G5.5ncore-PETIM in water
158845
    1aaa     N1    1  10.266   0.988   6.801  0.6609 -0.1914  0.3477
    1aaa     C1    2  10.166   0.978   6.689  0.9238  0.3326 -0.1317
    1aaa     H1    3  10.116   1.073   6.666 -1.9270 -0.6047  1.6446
    1aaa     H2    4  10.215   0.947   6.596 -1.0589 -0.7058 -0.8911
    1aaa     C2    5  10.403   1.033   6.745 -0.2082  0.0277 -0.1584
    1aaa     H3    6  10.494   1.008   6.801  1.2641 -0.6665 -2.6555
    1aaa     H4    7  10.421   0.973   6.654  1.1134 -2.3433  1.5575
    1aaa     C3    8  10.213   1.041   6.930 -0.1106  0.2883  0.5236
    1aaa     H5    9  10.174   1.143   6.922 -0.9024  0.1081  1.7420
    1aaa     H6   10  10.129   0.982   6.969  0.1263 -0.2737  0.1858
    1aaa     C4   11  10.325   1.045   7.033  0.2282  0.3984 -0.4201
    1aaa     H7   12  10.377   0.948   7.040  1.0923  0.7884 -1.2490
    1aaa     H8   13  10.409   1.111   7.007  1.5153 -1.0005 -0.0299
    1aaa     C5   14  10.059   0.872   6.712  0.1897 -0.5395  0.3955
    1aaa     H9   15  10.094   0.769   6.697  0.8688 -0.3687  0.7699
    1aaa    H10   16  10.016   0.880   6.812 -0.2579 -1.0931  0.2525
    1aaa     C6   17  10.415   1.181   6.707 -0.4111  0.3529 -0.2893
    1aaa    H11   18  10.370   1.190   6.608 -0.4045 -1.8860 -0.5616
    1aaa    H12   19  10.340   1.230   6.770 -1.6195 -1.3439 -0.3265
    1aaa     C7   20  10.561   1.222   6.718  0.1910  0.5668 -0.1950
    1aaa    H13   21  10.590   1.222   6.824 -0.5049  1.9127  0.0198
    1aaa    H14   22  10.628   1.155   6.663 -0.4298 -0.3492  0.1375
    1aaa     C8   23  10.263   1.087   7.166  0.1132 -0.6807 -0.0347
    1aaa    H15   24  10.199   1.014   7.216  1.4395 -0.2830  2.4134
    1aaa    H16   25  10.341   1.087   7.243  1.3871  0.3864 -1.2749
    1aaa     C9   26   9.954   0.901   6.600 -0.3714 -0.3624  0.0991
    1aaa    H17   27   9.998   0.948   6.511 -1.7714 -1.4962 -1.2489
    1aaa    H18   28   9.907   0.807   6.566 -2.3355  0.3141  0.8026
    2bbb     N1   29  10.525   1.791   6.657 -0.0555 -0.1357 -0.5280
    2bbb     C1   30  10.388   1.836   6.708  0.3699 -0.5066  0.4790
    2bbb     H1   31  10.345   1.917   6.648  1.8945 -0.0958 -0.1218
    2bbb     H2   32  10.395   1.865   6.813 -0.3972  1.1190  0.1081
    2bbb     C2   33  10.637   1.887   6.686  0.0747 -0.1484 -0.5108
    2bbb     H3   34  10.729   1.846   6.640 -0.2948 -0.4212 -1.0252
    2bbb     H4   35  10.651   1.879   6.794  2.1406 -1.7091 -0.8219
    2bbb     C3   36  10.564   1.662   6.722 -0.1664 -0.0572 -0.0197
    2bbb     H5   37  10.482   1.594   6.747  1.0756 -1.0874  1.4247
    2bbb     H6   38  10.611   1.671   6.821  0.8721 -1.5966 -0.3270
    2bbb     C4   39  10.655   1.575   6.629 -0.5032 -0.6298  0.3778
    2bbb     H7   40  10.754   1.621   6.614 -0.2513 -0.9886  0.9003
    2bbb     H8   41  10.610   1.570   6.529 -0.1325 -3.1599  0.2631
    2bbb     C5   42  10.278   1.732   6.681 -0.5897  0.1571  0.6805
    2bbb     H9   43  10.181   1.770   6.714 -0.2739  1.8207 -0.1884
    2bbb    H10   44  10.297   1.644   6.744 -0.9076 -0.2192  0.2560
    2bbb     C6   45  10.615   2.035   6.638 -0.4563  0.3825  0.1827
    2bbb    H11   46  10.509   2.065   6.639 -0.9479 -1.0886 -1.3367
    2bbb    H12   47  10.629   2.025   6.530 -0.4990 -0.8797  0.2792
    2bbb     C7   48  10.674   1.434   6.688 -0.4847  0.1532  0.0906
    2bbb    H13   49  10.709   1.437   6.792  1.0573  0.8656 -0.4271
    2bbb    H14   50  10.760   1.389   6.638 -1.1015 -0.4054 -0.4793
    2bbb     C8   51  10.709   2.142   6.706  0.3370  0.6935  0.5820
    2bbb    H15   52  10.685   2.153   6.813  1.5585 -0.5117  1.0088
    2bbb    H16   53  10.707   2.239   6.655 -0.6797  0.0171 -0.7466
    2bbb     C9   54  10.265   1.677   6.537 -0.1266  0.2094  0.5047
    2bbb    H17   55  10.362   1.639   6.505  0.1430  0.9015  0.4757
    2bbb    H18   56  10.252   1.768   6.477  0.4654  1.1034  1.6938
    2bbb     O1   57  10.559   1.349   6.660 -0.2534  0.1682  0.0136
    3bbb     N1   58  10.050   1.620   7.048  0.2674 -0.3512  0.2477
    3bbb     C1   59  10.117   1.748   7.035  0.5052 -0.0174 -0.5045
    3bbb     H1   60  10.213   1.738   6.982  1.7837 -0.7814  1.8051
    3bbb     H2   61  10.155   1.783   7.132  3.2859 -1.9471 -0.7627
    3bbb     C2   62  10.012   1.569   6.911 -0.1621 -0.3848 -0.8443
    3bbb     H3   63  10.098   1.545   6.847  1.5079  0.4853  0.9818
    3bbb     H4   64   9.967   1.646   6.847  1.6209  3.7550  2.4245
    3bbb     C3   65  10.109   1.532   7.142 -0.1804 -0.1887 -0.9054
    3bbb     H5   66  10.041   1.450   7.169 -0.5326 -0.4816 -2.5797
    3bbb     H6   67  10.125   1.585   7.236  2.1167 -1.4846 -0.5013
    3bbb     C4   68  10.236   1.449   7.094  0.0946 -0.9071 -0.7897
    3bbb     H7   69  10.322   1.516   7.112 -0.8929  0.0380  0.6193
    3bbb     H8   70  10.231   1.424   6.987 -0.9540  0.4871 -1.0964
    3bbb     C5   71  10.022   1.864   6.985 -0.4668 -0.5424 -0.0584
    3bbb     H9   72   9.921   1.855   7.026 -0.2334 -1.8779  0.2554
    3bbb    H10   73  10.009   1.851   6.877 -1.3882  1.0922 -0.1763
    3bbb     C6   74   9.916   1.445   6.920  0.7530 -0.2003  0.0854
    3bbb    H11   75   9.977   1.355   6.932  0.1296 -0.3713  2.8013
    3bbb    H12   76   9.867   1.444   6.822  0.3160 -0.0452  0.3022
    3bbb     C7   77  10.272   1.328   7.185  0.0356  0.7902  0.6830
    3bbb    H13   78  10.255   1.355   7.290  2.2822 -0.8187  1.5373
    3bbb    H14   79  10.378   1.304   7.175 -0.2964 -0.3893 -0.2551
    3bbb     C8   80   9.795   1.440   7.024  1.0719 -0.1743  0.3867
    3bbb    H15   81   9.737   1.533   7.018 -0.2324 -1.0392 -0.9970
    3bbb    H16   82   9.823   1.426   7.129 -1.6561 -0.2486  1.1900
    3bbb     C9   83  10.081   2.009   7.010 -0.0949  0.4779 -0.3842
    3bbb    H17   84  10.068   2.026   7.117 -1.4666  0.0334 -0.4659
    3bbb    H18   85  10.015   2.086   6.970 -1.2698  0.0531  0.6586
    3bbb     O1   86  10.200   1.213   7.146  0.9039  0.3138  0.7144
    4bbb     N1   87   9.590   1.286   6.481 -0.6098 -0.0092 -0.0973
    4bbb     C1   88   9.658   1.413   6.512 -0.3610  0.0727 -0.0098
    4bbb     H1   89   9.665   1.475   6.422 -0.6618 -0.0122 -0.0918
    4bbb     H2   90   9.761   1.386   6.541 -0.6751 -0.4646  0.6331
    4bbb     C2   91   9.639   1.227   6.356  0.0836  0.3764 -0.1492
    4bbb     H3   92   9.743   1.196   6.369 -0.1754 -0.6531 -0.3823
    4bbb     H4   93   9.627   1.298   6.274 -0.4877  1.0383  0.4983
    4bbb     C3   94   9.553   1.197   6.594  0.2067 -0.1846 -0.0451
    4bbb     H5   95   9.481   1.115   6.581 -1.2914  0.8564  1.1573
    4bbb     H6   96   9.493   1.252   6.668 -2.9302 -1.8618 -1.1611
    4bbb     C4   97   9.680   1.144   6.665 -0.4752  0.3627  0.1022
    4bbb     H7   98   9.653   1.098   6.761  0.9439  1.9923  1.3416
    4bbb     H8   99   9.753   1.217   6.703  0.8428 -1.3803  1.0966
    4bbb     C5  100   9.605   1.503   6.628  1.0049 -0.5427  0.7852
    4bbb     H9  101   9.655   1.600   6.618 -1.4955  0.8715  1.1614
    4bbb    H10  102   9.635   1.455   6.722  1.4052  2.5507  2.3873
    4bbb     C6  103   9.557   1.106   6.300  0.2629  0.2435  0.0358
    4bbb    H11  104   9.457   1.141   6.275  0.7050  0.5555 -1.3698
    4bbb    H12  105   9.540   1.031   6.379 -2.1264  0.8646  0.1928
    4bbb     C7  106   9.751   1.039   6.587 -0.2479  0.5968 -0.4098
    4bbb    H13  107   9.786   1.081   6.492  1.1862  0.0425 -0.1535
    4bbb    H14  108   9.677   0.960   6.573 -1.2480  1.3596  0.3952
    4bbb     C8  109   9.633   1.050   6.178 -0.0176  0.5905  0.9428
    4bbb    H15  110   9.677   1.134   6.123 -1.1429  0.9155  0.5006
    4bbb    H16  111   9.575   1.004   6.096  1.3300 -0.6228  0.6198
    4bbb     C9  112   9.453   1.540   6.634 -0.3616 -1.0610  0.0192
    4bbb    H17  113   9.391   1.450   6.648 -3.2382  0.7818 -0.0108
    4bbb    H18  114   9.422   1.589   6.541  2.4563  3.6515  1.2169
    4bbb     O1  115   9.859   0.986   6.669 -0.2620 -0.4896  0.1191
    5bbb     N1  116  11.205   1.891   6.819 -0.1687 -0.6199  0.0465
    5bbb     C1  117  11.335   1.960   6.861  0.2333  0.0308  0.1324
    5bbb     H1  118  11.355   2.050   6.802 -0.1934  1.7791  2.5171
    5bbb     H2  119  11.423   1.899   6.835  0.7094  0.6640  0.2332
    5bbb     C2  120  11.186   1.769   6.894  0.0193  0.2152 -0.1956
    5bbb     H3  121  11.167   1.800   6.998  1.5924  0.1004  0.1624
    5bbb     H4  122  11.282   1.716   6.892  0.6248  1.2244  0.5871
    5bbb     C3  123  11.087   1.979   6.842 -0.1880  0.5821 -0.1827
    5bbb     H5  124  11.081   2.011   6.946  0.1327 -0.6058  0.2139
    5bbb     H6  125  10.999   1.922   6.810  0.3960 -0.3183 -0.2002
    5bbb     C4  126  11.076   2.104   6.762  0.4384 -0.0949  0.7008
    5bbb     H7  127  11.090   2.082   6.656 -2.4880  2.2232 -0.2985
    5bbb     H8  128  11.165   2.164   6.784  2.4446 -2.4284 -0.5123
    5bbb     C5  129  11.343   2.012   7.008 -0.3554  0.0492  0.1186
    5bbb     H9  130  11.321   1.925   7.070 -0.1116  0.3748  0.6686
    5bbb    H10  131  11.259   2.082   7.019 -1.6254 -1.1333 -1.5073
    5bbb     C6  132  11.070   1.676   6.855 -0.2538  1.1743  0.1906
    5bbb    H11  133  11.078   1.657   6.748  1.1673  1.6442  0.1859
    5bbb    H12  134  10.969   1.714   6.871 -1.9024 -2.6144 -0.2169
    5bbb     C7  135  10.937   2.174   6.761 -0.6378  0.3714  0.3155
    5bbb    H13  136  10.954   2.265   6.703  1.1265  1.1962  2.0184
    5bbb    H14  137  10.906   2.196   6.864 -2.8554  2.4079 -0.7038
    5bbb     C8  138  11.059   1.542   6.937 -0.4345  0.0433  0.2083
    5bbb    H15  139  11.013   1.558   7.035  1.2428  0.3347  0.9899
    5bbb    H16  140  11.155   1.494   6.959  0.1313  1.0245 -0.0654
    5bbb     C9  141  11.484   2.067   7.034  0.6234 -0.1153 -0.2499
    5bbb    H17  142  11.557   1.985   7.030  1.0456  0.2648 -0.6857
    5bbb    H18  143  11.476   2.097   7.139 -5.5577  1.9754 -0.9263
    5bbb     O1  144  10.840   2.093   6.698 -0.1367 -0.3756 -0.2185
    6bbb     N1  145  10.122   1.281   6.304  0.7988 -0.5350  0.3377
    6bbb     C1  146  10.084   1.290   6.160  0.0080 -0.6443 -0.0247
    6bbb     H1  147  10.162   1.256   6.091  0.1986 -0.0119 -0.1256
    6bbb     H2  148  10.067   1.394   6.127  1.7996 -0.6775 -1.1663
    6bbb     C2  149  10.155   1.142   6.337 -0.4845  0.5704  0.1366
    6bbb     H3  150  10.065   1.080   6.338 -0.7763  0.9226 -1.5519
    6bbb     H4  151  10.188   1.153   6.442 -1.5419 -1.6778  0.7632
    6bbb     C3  152  10.021   1.336   6.400  0.1394  0.9636  0.1601
    6bbb     H5  153   9.936   1.267   6.400  1.6169 -0.9994 -1.7556
    6bbb     H6  154   9.979   1.426   6.353  0.3013  1.5481  1.1124
    6bbb     C4  155  10.072   1.361   6.549 -0.4571 -0.0169  0.0337
    6bbb     H7  156  10.099   1.272   6.607  1.6180  0.3389 -0.2968
    6bbb     H8  157   9.984   1.399   6.602 -0.6138  1.6662 -1.3330
    6bbb     C5  158   9.949   1.213   6.131 -0.1904  0.5036 -0.3501
    6bbb     H9  159   9.866   1.263   6.183  0.3389 -0.6090  1.7071
    6bbb    H10  160   9.951   1.108   6.162  0.4103 -0.1788 -2.5382
    6bbb     C6  161  10.275   1.089   6.262 -0.6807  0.6315  0.4194
    6bbb    H11  162  10.354   1.160   6.289 -0.6477 -0.5326  3.7935
    6bbb    H12  163  10.249   1.084   6.155 -0.5954  0.4872  0.4053
    6bbb     C7  164  10.197   1.451   6.574  0.7508 -0.5012 -0.6246
    6bbb    H13  165  10.278   1.412   6.511 -0.0768  0.2387 -2.2102
    6bbb    H14  166  10.238   1.451   6.676  0.7663 -0.6221 -0.6300
    6bbb     C8  167  10.335   0.951   6.307  0.2939  0.0908 -0.3527
    6bbb    H15  168  10.344   0.939   6.416 -3.7728 -0.0691  0.1111
    6bbb    H16  169  10.430   0.934   6.255 -0.3682  0.6476 -1.7981
    6bbb     C9  170   9.924   1.210   5.980  0.7221 -0.4849 -0.8807
    6bbb    H17  171   9.833   1.153   5.958  0.7783 -1.6205  1.5547
    6bbb    H18  172  10.015   1.162   5.942  2.4534  1.5310  0.4859
    6bbb     O1  173  10.157   1.583   6.531 -0.1246 -0.0955 -0.0064
    7bbb     N1  174   9.290   1.198   7.168 -0.7458 -0.2651  0.5140
    7bbb     C1  175   9.313   1.300   7.276 -0.1891  0.2835 -0.0731
    7bbb     H1  176   9.294   1.403   7.244 -2.1076  0.3518  1.1666
    7bbb     H2  177   9.416   1.292   7.313  0.2046  2.9506 -0.3974
    7bbb     C2  178   9.302   1.054   7.200 -0.5831  0.3211 -0.3987
    7bbb     H3  179   9.282   1.030   7.305 -0.4726  1.1186 -0.1865
    7bbb     H4  180   9.403   1.014   7.183  0.1119  1.8255  0.0446
    7bbb     C3  181   9.337   1.238   7.036  0.4516  0.0834  0.1629
    7bbb     H5  182   9.322   1.345   7.015 -0.9828  0.0615  0.9462
    7bbb     H6  183   9.277   1.187   6.960  0.6692  0.2346 -0.1147
    7bbb     C4  184   9.494   1.221   7.015  0.6522 -0.2121  0.0180
    7bbb     H7  185   9.492   1.189   6.910 -2.5238 -0.2347 -0.0224
    7bbb     H8  186   9.536   1.141   7.076  1.1192  1.2341  1.6686
    7bbb     C5  187   9.202   1.283   7.387 -0.5491  0.1899  0.2531
    7bbb     H9  188   9.211   1.190   7.444  3.1667  0.1555 -0.1133
    7bbb    H10  189   9.103   1.301   7.345  0.7048  2.4696 -2.0417
    7bbb     C6  190   9.195   0.979   7.115 -0.3931  0.3075 -0.7309
    7bbb    H11  191   9.200   0.873   7.143  2.4330  0.5764  0.0787
    7bbb    H12  192   9.215   0.984   7.007 -1.4647  3.0763 -0.8942
    7bbb     C7  193   9.571   1.357   7.047 -0.0696 -0.6538  0.9447
    7bbb    H13  194   9.578   1.370   7.155  1.3039  1.9164  0.6003
    7bbb    H14  195   9.523   1.444   7.001  0.1923 -0.6188  0.7353
    7bbb     C8  196   9.048   1.035   7.147 -0.8339  0.5692 -0.9669
    7bbb    H15  197   9.047   1.144   7.133 -1.2590  0.8485  0.9891
    7bbb    H16  198   9.016   1.019   7.251  1.3825  0.8857 -0.1762
    7bbb     C9  199   9.207   1.409   7.476 -0.4903 -0.3216 -0.3053
    7bbb    H17  200   9.130   1.404   7.554  0.4869 -0.7595  0.6614
    7bbb    H18  201   9.183   1.498   7.417 -0.6840  1.3662  2.1277
    7bbb     O1  202   9.706   1.339   6.985  0.1456 -0.2096 -0.2935
    8bbb     N1  203  10.607   1.993   7.167  0.0091 -0.4188 -0.4382
    8bbb     C1  204  10.649   2.103   7.266  0.2350  0.5497  0.4947
    8bbb     H1  205  10.639   2.203   7.223  2.0820  0.9245  0.8544
    8bbb     H2  206  10.755   2.091   7.290 -0.2282 -2.4430  1.4124
    8bbb     C2  207  10.706   1.970   7.058  0.0722  0.0472 -0.3748
    8bbb     H3  208  10.714   2.051   6.985 -2.6041 -0.2019 -1.0503
    8bbb     H4  209  10.674   1.888   6.993  2.2241  0.4671 -2.0912
    8bbb     C3  210  10.467   2.001   7.114 -0.1719  0.4247  0.4961
    8bbb     H5  211  10.399   1.995   7.199 -1.1556  0.3626 -0.2713
    8bbb     H6  212  10.456   1.906   7.060 -1.1235  1.3405 -0.9807
    8bbb     C4  213  10.438   2.113   7.017 -0.2255 -0.9906  0.0643
    8bbb     H7  214  10.490   2.090   6.923  0.7340  1.0155  0.0674
    8bbb     H8  215  10.476   2.209   7.053  0.6255 -0.7479 -1.3751
    8bbb     C5  216  10.561   2.095   7.394  0.2723  0.4731  0.0149
    8bbb     H9  217  10.454   2.109   7.376 -0.1726 -0.5810  1.6673
    8bbb    H10  218  10.581   2.182   7.458 -1.7272  0.0184  1.3339
    8bbb     C6  219  10.848   1.930   7.113  0.4951  0.0338  0.8698
    8bbb    H11  220  10.901   2.016   7.155 -0.7152  1.3550 -0.2467
    8bbb    H12  221  10.905   1.900   7.024  0.5274 -0.7629  1.1506
    8bbb     C7  222  10.288   2.136   7.021 -0.0783 -0.0532  0.2614
    8bbb    H13  223  10.262   2.213   6.947  1.6936 -0.6477 -1.0438
    8bbb    H14  224  10.256   2.164   7.122  1.3199 -1.3916  1.1075
    8bbb     C8  225  10.844   1.821   7.217 -0.0927  0.1927  0.3009
    8bbb    H15  226  10.792   1.732   7.180 -1.0808  0.4403  1.0539
    8bbb    H16  227  10.798   1.859   7.309  0.5321  0.3681  0.5469
    8bbb     C9  228  10.591   1.968   7.488 -0.5635 -0.3613  0.1344
    8bbb    H17  229  10.602   1.877   7.428  2.2920  0.6621 -1.0781
    8bbb    H18  230  10.506   1.956   7.557  0.1858  1.9122  1.5824
    8bbb     O1  231  10.217   2.017   6.970 -0.1018 -0.3825  0.2192
    9bbb     N1  232   9.808   0.579   6.275  0.3051  0.2266 -0.0061
    9bbb     C1  233   9.669   0.559   6.235  0.6966  0.5990 -0.4849
    9bbb     H1  234   9.644   0.453   6.247 -0.6884  0.9165 -0.4112
    9bbb     H2  235   9.655   0.587   6.130 -1.1911 -0.8068 -0.6650
    9bbb     C2  236   9.901   0.506   6.180  0.4148  0.2886  0.1151
    9bbb     H3  237   9.995   0.478   6.229  0.5366  1.6583  0.7400
    9bbb     H4  238   9.920   0.571   6.094 -4.1440  0.8437 -0.7365
    9bbb     C3  239   9.861   0.706   6.336  1.0131 -0.1515  0.0698
    9bbb     H5  240   9.953   0.680   6.391  1.0489 -1.2537 -0.4695
    9bbb     H6  241   9.787   0.746   6.407  0.0002  0.9107 -1.5274
    9bbb     C4  242   9.912   0.815   6.233 -0.3760 -0.2235 -0.7146
    9bbb     H7  243   9.987   0.772   6.165 -2.6485  0.1172 -3.6480
    9bbb     H8  244   9.957   0.892   6.297 -1.8454  0.8542 -0.9313
    9bbb     C5  245   9.568   0.641   6.322 -0.3031  0.2869 -0.2433
    9bbb     H9  246   9.585   0.749   6.313 -3.1460  0.8865  0.5466
    9bbb    H10  247   9.579   0.604   6.425 -2.4147 -1.0819 -0.4425
    9bbb     C6  248   9.855   0.374   6.125 -0.0335 -0.1171  0.0184
    9bbb    H11  249   9.763   0.393   6.067 -1.2261  3.4586  2.7349
    9bbb    H12  250   9.828   0.298   6.200  0.7593  0.5549  1.0082
    9bbb     C7  251   9.803   0.875   6.144  0.5190  0.2490 -0.5233
    9bbb    H13  252   9.735   0.801   6.100 -1.3337  1.6870 -0.2272
    9bbb    H14  253   9.853   0.935   6.066  3.9815 -0.9309  0.6287
    9bbb     C8  254   9.967   0.326   6.034 -0.5567  0.0153 -0.2565
    9bbb    H15  255   9.998   0.411   5.973  0.8378 -1.7510 -2.1562
    9bbb    H16  256   9.936   0.251   5.961 -0.1245 -0.3069 -0.1135
    9bbb     C9  257   9.417   0.607   6.296 -0.4701 -0.1634 -0.4451
    9bbb    H17  258   9.360   0.659   6.373  1.5838  0.8939  0.4437
    9bbb    H18  259   9.402   0.498   6.297  1.6851 -0.5021 -0.8398
    9bbb     O1  260   9.730   0.959   6.229  0.2489  0.3611  0.1234
   10bbb     N1  261   9.001   1.529   6.955  0.0763 -0.5778 -0.3022
   10bbb     C1  262   9.054   1.507   7.097  0.5280  0.3363  0.5759
   10bbb     H1  263   9.161   1.484   7.094  0.3694 -0.5675 -3.5813
   10bbb     H2  264   9.000   1.425   7.146 -1.0141  0.6865 -0.4664
   10bbb     C2  265   8.979   1.401   6.880  0.1899  0.3643 -0.5398
   10bbb     H3  266   9.074   1.347   6.871 -0.3879 -1.2596  2.0805
   10bbb     H4  267   8.942   1.416   6.778 -4.0876 -3.8648  0.0257
   10bbb     C3  268   9.079   1.638   6.875 -0.9300  0.1605  0.4943
   10bbb     H5  269   9.075   1.734   6.926 -1.8139 -0.3503  1.4323
   10bbb     H6  270   9.032   1.646   6.776  0.1885 -0.9584 -0.1658
   10bbb     C4  271   9.230   1.599   6.849 -0.1940 -0.4682  0.5862
   10bbb     H7  272   9.226   1.500   6.804 -0.4615 -0.4324  0.5320
   10bbb     H8  273   9.285   1.588   6.944  0.9607 -0.9999 -0.1305
   10bbb     C5  274   9.030   1.624   7.186  0.0221  0.3269  0.3637
   10bbb     H9  275   9.084   1.712   7.150 -2.2500  1.4262 -0.5118
   10bbb    H10  276   9.077   1.600   7.282 -0.3421  1.6625  0.8881
   10bbb     C6  277   8.881   1.304   6.943  0.5026  0.2049  0.0663
   10bbb    H11  278   8.916   1.277   7.043  0.5525 -1.6073 -0.3974
   10bbb    H12  279   8.880   1.206   6.893  0.7963 -0.3395  1.1052
   10bbb     C7  280   9.307   1.690   6.752 -0.7558  0.5287  0.6581
   10bbb    H13  281   9.331   1.795   6.774 -1.1214  0.4598  1.4328
   10bbb    H14  282   9.260   1.679   6.654  0.8910  1.0349 -0.2205
   10bbb     C8  283   8.740   1.360   6.944  0.5229 -0.4299  0.3614
   10bbb    H15  284   8.714   1.398   6.845 -0.9661 -0.1510  0.8362
   10bbb    H16  285   8.724   1.446   7.012 -2.1517 -1.2627  0.8837
   10bbb     C9  286   8.881   1.666   7.200 -0.8035  0.1157 -0.6662
   10bbb    H17  287   8.837   1.647   7.102  2.1957 -1.0413 -1.9113
   10bbb    H18  288   8.881   1.770   7.236 -1.9815 -0.1850  0.2826
   10bbb     O1  289   9.440   1.627   6.750 -0.1490 -0.3409  0.1429
   11bbb     N1  290  11.136   0.991   6.861  0.0618  0.3793  0.4246
   11bbb     C1  291  11.115   0.855   6.916  0.1569  0.3376 -0.0081
   11bbb     H1  292  11.031   0.801   6.870 -0.4915 -0.1378  1.6342
   11bbb     H2  293  11.098   0.871   7.023 -0.7352  1.1907 -0.2539
   11bbb     C2  294  11.176   0.986   6.712  0.3198  0.3304 -0.1401
   11bbb     H3  295  11.254   0.912   6.695  0.0387  0.0408 -0.1757
   11bbb     H4  296  11.220   1.081   6.679 -2.7793  1.7912 -0.4119
   11bbb     C3  297  11.034   1.087   6.882  0.8739  0.0643 -0.3801
   11bbb     H5  298  11.014   1.094   6.989  2.8932  0.1505  0.0353
   11bbb     H6  299  10.942   1.042   6.842  0.0320  1.4895 -0.1321
   11bbb     C4  300  11.052   1.232   6.825  0.9717  0.5245 -0.3435
   11bbb     H7  301  11.031   1.237   6.717 -1.4189  0.9781  0.0961
   11bbb     H8  302  11.154   1.267   6.842  0.6182  1.4207 -0.0661
   11bbb     C5  303  11.234   0.765   6.909 -0.1987  0.8695  0.5614
   11bbb     H9  304  11.262   0.736   6.807 -2.3436 -1.1001  0.4584
   11bbb    H10  305  11.204   0.668   6.951  0.8274 -0.1351 -0.9073
   11bbb     C6  306  11.064   0.949   6.609  0.3521 -0.6281 -0.4945
   11bbb    H11  307  10.972   0.992   6.650  1.4723 -0.5400  2.1553
   11bbb    H12  308  11.028   0.846   6.601 -1.4075  0.0445 -1.8582
   11bbb     C7  309  10.951   1.316   6.893  0.0593 -1.0595 -0.0932
   11bbb    H13  310  10.954   1.302   7.002 -1.6110 -1.1395 -0.0337
   11bbb    H14  311  10.860   1.279   6.846 -0.1476  0.7053 -1.1373
   11bbb     C8  312  11.100   1.002   6.463  0.9519  0.2010 -0.4224
   11bbb    H15  313  11.034   0.942   6.399  2.8408 -0.6182 -1.7227
   11bbb    H16  314  11.205   0.983   6.437  0.0296 -3.1352 -2.3064
   11bbb     C9  315  11.355   0.826   6.981 -0.0646  0.1347  0.3784
   11bbb    H17  316  11.328   0.840   7.087  3.5497 -0.0152  1.4468
   11bbb    H18  317  11.384   0.924   6.941 -0.5771 -0.3217 -1.1795
   11bbb     O1  318  10.972   1.455   6.858  0.0914 -0.3137  0.3128
   12bbb     N1  319  11.838   2.554   6.871  0.1318  0.1786  0.7353
   12bbb     C1  320  11.817   2.618   7.001 -0.3175 -0.3993  0.0661
   12bbb     H1  321  11.710   2.635   7.017 -0.3634  0.2972 -0.9109
   12bbb     H2  322  11.856   2.721   6.994 -2.5008  0.5360  0.6709
   12bbb     C2  323  11.798   2.633   6.751  0.8489  0.6096 -0.0327
   12bbb     H3  324  11.805   2.740   6.776  0.0441  0.6059  0.2564
   12bbb     H4  325  11.696   2.599   6.727  1.1169  0.1978 -0.6128
   12bbb     C3  326  11.807   2.407   6.854  0.0732  0.4151  0.0230
   12bbb     H5  327  11.864   2.358   6.934 -0.8120  3.2861  2.6536
   12bbb     H6  328  11.845   2.373   6.758  1.2334  0.4841  0.4459
   12bbb     C4  329  11.665   2.370   6.874  1.0373  0.3757 -0.2153
   12bbb     H7  330  11.624   2.357   6.773  1.0534 -0.2030 -0.1511
   12bbb     H8  331  11.608   2.454   6.916 -0.2799 -0.4537 -0.2780
   12bbb     C5  332  11.862   2.548   7.128 -0.1290  0.3181  0.0587
   12bbb     H9  333  11.969   2.526   7.115 -0.2329  0.8670 -2.1428
   12bbb    H10  334  11.805   2.455   7.123  0.9830 -0.3500 -0.6013
   12bbb     C6  335  11.887   2.615   6.628 -0.3831  0.5276 -0.3168
   12bbb    H11  336  11.909   2.510   6.603  0.9635  0.3114  1.5882
   12bbb    H12  337  11.990   2.651   6.640 -0.2742 -0.2014  1.2708
   12bbb     C7  338  11.650   2.235   6.948 -0.1530 -0.8851 -0.2934
   12bbb    H13  339  11.682   2.249   7.052  4.1014 -2.8802 -1.1393
   12bbb    H14  340  11.731   2.172   6.910  3.2961  1.0936  3.0775
   12bbb     C8  341  11.822   2.676   6.503 -0.5026 -0.2226 -0.4280
   12bbb    H15  342  11.717   2.644   6.495 -0.5188 -0.0405 -0.9765
   12bbb    H16  343  11.878   2.633   6.419 -1.7250  1.0484 -1.9440
   12bbb     C9  344  11.828   2.630   7.252 -0.0464 -0.6548 -1.0125
   12bbb    H17  345  11.721   2.651   7.264  0.5006  1.2699  1.4699
   12bbb    H18  346  11.866   2.733   7.246 -2.0107  0.0360 -2.7079
   12bbb     O1  347  11.519   2.174   6.939 -0.0539 -0.0089  0.0219
   13bbb     N1  348  10.356   0.603   5.938 -0.2142 -0.0322  0.1489
   13bbb     C1  349  10.477   0.640   5.854 -0.2314 -0.1438  0.0774
   13bbb     H1  350  10.571   0.609   5.901 -0.3080  2.5528  2.2924
   13bbb     H2  351  10.493   0.749   5.848  0.3441 -0.2594 -0.6668
   13bbb     C2  352  10.222   0.638   5.877 -0.4473  1.1016  0.2572
   13bbb     H3  353  10.136   0.598   5.933 -1.5385  0.3028 -1.9013
   13bbb     H4  354  10.221   0.593   5.778 -2.2432 -1.2837  1.2758
   13bbb     C3  355  10.365   0.653   6.077 -0.4416 -0.1918  0.6886
   13bbb     H5  356  10.384   0.760   6.084  1.4312 -0.5224  1.0013
   13bbb     H6  357  10.445   0.600   6.130 -0.0897  0.4999  0.8457
   13bbb     C4  358  10.259   0.613   6.178  0.4041 -0.4835  0.1859
   13bbb     H7  359  10.260   0.506   6.200  2.5462 -0.6536 -0.5652
   13bbb     H8  360  10.160   0.635   6.134 -0.2766 -0.9666  1.4260
   13bbb     C5  361  10.479   0.578   5.711 -0.3674  0.5638 -0.2248
   13bbb     H9  362  10.574   0.600   5.659 -0.0071  1.5597  0.8308
   13bbb    H10  363  10.400   0.614   5.644 -0.9896  0.1385  0.2719
   13bbb     C6  364  10.209   0.795   5.860  0.4334  0.7571  0.0846
   13bbb    H11  365  10.298   0.841   5.815  0.6976  0.1775 -0.0029
   13bbb    H12  366  10.198   0.832   5.962  2.8257  0.8483  0.3729
   13bbb     C7  367  10.274   0.708   6.298  0.0389  0.0374 -0.8382
   13bbb    H13  368  10.373   0.699   6.345  0.0471 -3.0929 -1.2099
   13bbb    H14  369  10.201   0.677   6.374 -0.8289  1.1257 -1.1945
   13bbb     C8  370  10.071   0.829   5.783 -0.0162  0.1426 -0.3621
   13bbb    H15  371  10.074   0.776   5.687  3.0118 -1.4653  0.4851
   13bbb    H16  372  10.067   0.937   5.761 -2.3759  0.0023 -0.9308
   13bbb     C9  373  10.473   0.426   5.719  0.2738  0.0088  0.2005
   13bbb    H17  374  10.399   0.411   5.798  1.4490  1.8003  1.7174
   13bbb    H18  375  10.566   0.377   5.749 -0.0029 -1.2724 -0.9103
   13bbb     O1  376  10.243   0.847   6.260  0.1102  0.2767  0.0087
   14bbb     N1  377  10.290   1.456   5.729  1.0292  0.3682 -0.1251
   14bbb     C1  378  10.369   1.335   5.758 -0.3222  0.1899  0.6937
   14bbb     H1  379  10.477   1.349   5.745 -0.2246 -0.9255  0.1345
   14bbb     H2  380  10.342   1.261   5.681  2.6452 -1.0681  0.7197
   14bbb     C2  381  10.294   1.503   5.584 -0.7940  0.1076  0.3348
   14bbb     H3  382  10.237   1.596   5.574  1.1380  1.0951 -3.4287
   14bbb     H4  383  10.251   1.427   5.517  1.7743  0.2459 -1.6175
   14bbb     C3  384  10.156   1.464   5.787  0.3039 -0.3762  0.2561
   14bbb     H5  385  10.120   1.567   5.773  1.7104 -0.0578 -1.4468
   14bbb     H6  386  10.168   1.458   5.896  0.6148 -2.3824  0.1456
   14bbb     C4  387  10.058   1.368   5.729  0.2623  0.1073 -0.2596
   14bbb     H7  388  10.099   1.267   5.721 -2.3548 -0.9453 -1.2931
   14bbb     H8  389  10.049   1.411   5.629 -0.3840  1.2080  0.2527
   14bbb     C5  390  10.359   1.272   5.894  0.1009  0.0010  0.4987
   14bbb     H9  391  10.268   1.212   5.910 -1.5532  1.5088 -2.4471
   14bbb    H10  392  10.360   1.350   5.971 -0.9198  2.1270 -1.5226
   14bbb     C6  393  10.440   1.515   5.532 -0.2227  0.1381 -0.5851
   14bbb    H11  394  10.482   1.421   5.496  0.5481  0.5617 -0.8190
   14bbb    H12  395  10.511   1.547   5.610  1.1643  1.0828 -2.1602
   14bbb     C7  396   9.910   1.366   5.790 -0.2981 -0.1316 -0.0450
   14bbb    H13  397   9.854   1.289   5.736  0.0601 -1.3791  1.3163
   14bbb    H14  398   9.867   1.464   5.764  1.4748  0.6401 -0.2160
   14bbb     C8  399  10.449   1.622   5.418  0.7049 -0.2696 -0.1652
   14bbb    H15  400  10.549   1.668   5.411  0.7502 -0.3548 -0.0796
   14bbb    H16  401  10.389   1.711   5.439  2.4974  0.5570  1.9243
   14bbb     C9  402  10.477   1.183   5.921  0.0823  0.0322 -0.2006
   14bbb    H17  403  10.463   1.129   6.015 -2.5094  2.2466  0.8055
   14bbb    H18  404  10.571   1.239   5.921  0.5645 -0.7621  0.6479
   14bbb     O1  405   9.911   1.350   5.936 -0.1777  0.2213  0.2114
   15bbb     N1  406   8.770   0.839   6.747 -0.8403 -0.2357  0.0330
   15bbb     C1  407   8.706   0.711   6.717 -0.3252  0.3179  0.2409
   15bbb     H1  408   8.745   0.634   6.785  0.9074 -0.2509 -1.0532
   15bbb     H2  409   8.729   0.688   6.613  0.9062 -0.6772  0.7075
   15bbb     C2  410   8.917   0.845   6.720  0.2515  0.0778 -0.0656
   15bbb     H3  411   8.974   0.775   6.783  1.9502  1.1719 -0.3291
   15bbb     H4  412   8.950   0.941   6.761 -0.0871  0.2025 -0.0853
   15bbb     C3  413   8.745   0.901   6.885  0.1948 -0.1028  0.1969
   15bbb     H5  414   8.638   0.927   6.882 -0.3875 -1.7581  2.8363
   15bbb     H6  415   8.796   0.998   6.889  2.3238 -1.1592 -0.1074
   15bbb     C4  416   8.778   0.818   7.005  0.2426  0.3709  0.3515
   15bbb     H7  417   8.845   0.737   6.974  1.3350  1.1526  0.5643
   15bbb     H8  418   8.687   0.774   7.047 -1.3164  1.0717 -2.0612
   15bbb     C5  419   8.558   0.722   6.732 -0.3375 -0.5830  0.0249
   15bbb     H9  420   8.536   0.762   6.832  0.7281  0.7132 -0.2306
   15bbb    H10  421   8.510   0.624   6.736 -0.4501 -0.5254  4.1577
   15bbb     C6  422   8.952   0.838   6.572  0.1036  0.5488 -0.3749
   15bbb    H11  423   8.876   0.882   6.506 -1.3353 -0.4429  0.5732
   15bbb    H12  424   8.962   0.733   6.544 -1.4417 -0.0005  1.0043
   15bbb     C7  425   8.843   0.903   7.114  0.2596 -0.0059  0.3053
   15bbb    H13  426   8.879   0.842   7.198 -1.3547  0.0091  1.0485
   15bbb    H14  427   8.771   0.976   7.153  1.0189 -0.1857  2.1740
   15bbb     C8  428   9.086   0.912   6.546 -0.4224  0.4868  0.0564
   15bbb    H15  429   9.085   1.002   6.608  0.4445 -0.0092  0.8266
   15bbb    H16  430   9.087   0.937   6.439  1.4806 -0.5080 -0.2092
   15bbb     C9  431   8.485   0.804   6.628 -0.0336 -0.4428 -0.2601
   15bbb    H17  432   8.515   0.761   6.531  2.1644  3.2415 -1.4144
   15bbb    H18  433   8.528   0.904   6.624 -2.2681  0.5616 -2.0198
   15bbb     O1  434   8.956   0.963   7.057  0.0004 -0.0995 -0.0122
   16bbb     N1  435   9.572   1.381   7.895 -0.2219 -0.3027 -0.2868
   16bbb     C1  436   9.619   1.499   7.977 -0.1989 -0.2674  0.2360
   16bbb     H1  437   9.539   1.522   8.049  0.0346  0.6067  0.2261
   16bbb     H2  438   9.647   1.584   7.914  1.5369 -0.2713  0.9431
   16bbb     C2  439   9.561   1.258   7.970 -0.4055 -0.0156 -0.6370
   16bbb     H3  440   9.457   1.244   8.001  0.2765 -0.9538  1.3591
   16bbb     H4  441   9.610   1.256   8.068  1.9750  0.9110 -1.7060
   16bbb     C3  442   9.460   1.419   7.807 -0.3845 -0.3380 -0.2778
   16bbb     H5  443   9.381   1.464   7.868 -0.2588  2.4641 -1.9663
   16bbb     H6  444   9.407   1.331   7.769  0.7941 -0.4245 -1.8364
   16bbb     C4  445   9.493   1.526   7.701 -0.1819 -0.6247  0.2460
   16bbb     H7  446   9.585   1.490   7.654 -0.7662 -0.4439 -1.0836
   16bbb     H8  447   9.513   1.624   7.746  1.1394 -0.1615 -1.2626
   16bbb     C5  448   9.750   1.471   8.049  0.0312  0.1686 -0.8229
   16bbb     H9  449   9.820   1.435   7.973  0.3310  1.5487 -1.2200
   16bbb    H10  450   9.738   1.396   8.128  0.6137  0.1038 -0.7930
   16bbb     C6  451   9.612   1.142   7.889 -0.2957 -0.0129 -0.4822
   16bbb    H11  452   9.548   1.119   7.803 -0.2240 -1.5726 -0.1454
   16bbb    H12  453   9.599   1.054   7.954 -0.9229 -0.8104 -1.6574
   16bbb     C7  454   9.380   1.544   7.591 -0.1113 -0.3410 -0.7405
   16bbb    H13  455   9.422   1.598   7.505 -0.6218 -1.6012 -1.8240
   16bbb    H14  456   9.291   1.587   7.638 -0.7527 -0.6874 -1.5944
   16bbb     C8  457   9.761   1.141   7.863  0.2734  0.2371 -0.0467
   16bbb    H15  458   9.815   1.171   7.954  0.2826 -1.6825  0.6449
   16bbb    H16  459   9.778   1.202   7.775 -1.6997  2.2462  0.8621
   16bbb     C9  460   9.801   1.608   8.101 -0.6958 -0.3376 -1.0078
   16bbb    H17  461   9.790   1.680   8.019 -2.7938  1.7813  0.9560
   16bbb    H18  462   9.905   1.606   8.135 -1.1970 -0.7728  0.6274
   16bbb     O1  463   9.343   1.418   7.536 -0.1160  0.2221  0.0702
   17bbb     N1  464  11.330   1.503   7.247 -0.0736  0.1558  0.3959
   17bbb     C1  465  11.309   1.359   7.292  0.2376 -0.6637 -0.9366
   17bbb     H1  466  11.234   1.354   7.371  1.6286 -0.4840  0.4357
   17bbb     H2  467  11.404   1.332   7.339 -0.4849  0.3335  1.2383
   17bbb     C2  468  11.446   1.571   7.295  0.1167 -0.3505  0.2712
   17bbb     H3  469  11.524   1.496   7.315  1.6215  0.8971 -0.6672
   17bbb     H4  470  11.421   1.606   7.396  1.9399 -0.2324  0.7277
   17bbb     C3  471  11.205   1.575   7.217  0.5944 -0.3305  0.1907
   17bbb     H5  472  11.124   1.509   7.184  0.7550  1.1523 -3.6689
   17bbb     H6  473  11.226   1.635   7.128  0.6189 -0.9085 -0.2013
   17bbb     C4  474  11.155   1.653   7.346 -0.9244 -0.0693 -0.2958
   17bbb     H7  475  11.215   1.744   7.359  1.3983 -1.5554 -0.1000
   17bbb     H8  476  11.164   1.586   7.432 -0.5464  0.7594  0.3187
   17bbb     C5  477  11.272   1.258   7.177  0.7619 -0.4589  0.1615
   17bbb     H9  478  11.177   1.292   7.133  0.4517  1.5774  2.1518
   17bbb    H10  479  11.251   1.156   7.210 -0.1806 -0.0830  0.7887
   17bbb     C6  480  11.516   1.685   7.215 -0.0003 -0.4380  0.4858
   17bbb    H11  481  11.608   1.719   7.264 -0.2333  0.8948  0.0283
   17bbb    H12  482  11.450   1.772   7.208  0.1059 -0.1981  2.0814
   17bbb     C7  483  11.011   1.690   7.342  0.5561  0.4226  0.1692
   17bbb    H13  484  10.976   1.728   7.439  0.3653  1.7205 -0.4009
   17bbb    H14  485  10.958   1.596   7.324  1.5326 -0.1963  0.4466
   17bbb     C8  486  11.568   1.642   7.070 -0.0809 -0.2859 -0.0484
   17bbb    H15  487  11.493   1.607   6.998  0.1398 -2.0795  0.5328
   17bbb    H16  488  11.632   1.554   7.081 -0.8663 -0.7853  0.6523
   17bbb     C9  489  11.370   1.249   7.050 -0.0184 -0.3284 -0.4733
   17bbb    H17  490  11.391   1.349   7.011  0.2971 -0.5960 -0.9974
   17bbb    H18  491  11.315   1.180   6.984 -1.9787  0.6923 -0.0071
   17bbb     O1  492  10.983   1.782   7.239 -0.6492  0.1664 -0.4473
   18bbb     N1  493  10.750   2.119   8.004 -0.0746  0.1062 -0.1739
   18bbb     C1  494  10.644   2.220   8.056 -0.2668  0.8116  0.6611
   18bbb     H1  495  10.547   2.201   8.008  0.2688 -2.0368  0.5570
   18bbb     H2  496  10.672   2.322   8.026  0.0916  0.6908  0.5873
   18bbb     C2  497  10.886   2.177   7.992  0.6024 -0.2976  0.1376
   18bbb     H3  498  10.883   2.240   7.903 -1.3125 -1.0782 -0.3838
   18bbb     H4  499  10.948   2.088   7.970 -0.3009 -0.2377 -3.0204
   18bbb     C3  500  10.703   2.059   7.876 -0.3390  0.1906 -0.1119
   18bbb     H5  501  10.686   2.137   7.801  0.6406  1.0615  0.5304
   18bbb     H6  502  10.606   2.014   7.902  0.1937 -1.1090 -0.3234
   18bbb     C4  503  10.794   1.956   7.810  0.2095 -0.7133 -0.2483
   18bbb     H7  504  10.813   1.875   7.882 -2.3061  0.4730  1.8871
   18bbb     H8  505  10.895   1.985   7.778  0.4991 -3.9576 -2.8780
   18bbb     C5  506  10.632   2.223   8.211 -0.6546  0.0732 -0.2246
   18bbb     H9  507  10.553   2.287   8.251  1.2508  1.6088  1.2755
   18bbb    H10  508  10.723   2.267   8.252 -1.8908  1.3866  1.2189
   18bbb     C6  509  10.959   2.237   8.121 -0.4339 -1.0091  0.1173
   18bbb    H11  510  10.939   2.172   8.207  0.9394 -2.5234 -0.6552
   18bbb    H12  511  10.927   2.339   8.146  2.0458 -0.0849 -0.1987
   18bbb     C7  512  10.727   1.898   7.682  0.5606  0.8596 -0.2080
   18bbb    H13  513  10.629   1.856   7.707  0.0647  1.2279 -1.4545
   18bbb    H14  514  10.789   1.816   7.642 -0.2485  0.5754 -0.8938
   18bbb     C8  515  11.113   2.236   8.097  0.5233  0.2846 -0.1203
   18bbb    H15  516  11.136   2.332   8.050 -0.8561  1.3536  1.2789
   18bbb    H16  517  11.145   2.157   8.028 -1.7022 -1.7144  0.9536
   18bbb     C9  518  10.615   2.081   8.269  0.1582  0.8084 -0.3527
   18bbb    H17  519  10.691   2.015   8.226  0.2078  0.1365  0.7348
   18bbb    H18  520  10.513   2.049   8.244  0.1707  0.1016  0.4554
   18bbb     O1  521  10.706   1.995   7.574  0.2576 -0.0541 -0.0300
   19bbb     N1  522  10.181  -0.074   5.868  0.0104 -0.1902  0.3386
   19bbb     C1  523  10.303  -0.151   5.893  0.4835  0.3577  0.6105
   19bbb     H1  524  10.296  -0.260   5.880  2.9031  0.1211  0.8564
   19bbb     H2  525  10.343  -0.134   5.993  0.0148 -2.4133  1.3471
   19bbb     C2  526  10.133  -0.063   5.726 -0.2124 -0.0453 -0.4409
   19bbb     H3  527  10.151  -0.159   5.677  2.7155 -0.7142  1.6612
   19bbb     H4  528  10.183   0.021   5.676  0.8363 -1.1587 -1.3221
   19bbb     C3  529  10.159   0.030   5.967 -0.1954 -1.0515  0.9290
   19bbb     H5  530  10.209   0.009   6.062  4.1475  0.2041 -0.8182
   19bbb     H6  531  10.051   0.043   5.980 -0.3217  0.5931 -1.1723
   19bbb     C4  532  10.208   0.170   5.926  0.0262  0.1323 -0.3997
   19bbb     H7  533  10.157   0.204   5.836  1.6445 -0.0603 -1.4365
   19bbb     H8  534  10.307   0.161   5.878  0.3592  1.2556  0.0253
   19bbb     C5  535  10.426  -0.104   5.808 -0.3875  0.0686  0.9237
   19bbb     H9  536  10.429   0.006   5.812 -1.7993  0.2106 -0.7833
   19bbb    H10  537  10.409  -0.141   5.707  4.7605  1.8963 -0.9371
   19bbb     C6  538   9.984  -0.029   5.706 -0.2695 -0.1886  0.4041
   19bbb    H11  539   9.979  -0.012   5.598 -0.0691 -0.7950  0.2994
   19bbb    H12  540   9.958   0.067   5.752  1.0682  0.3805  0.0235
   19bbb     C7  541  10.206   0.271   6.044 -0.5920  0.3598  0.4711
   19bbb    H13  542  10.229   0.368   5.996  1.9543 -0.2304  0.3272
   19bbb    H14  543  10.289   0.250   6.112 -0.5729  0.0404  0.3525
   19bbb     C8  544   9.894  -0.143   5.754 -0.2231 -0.2398 -0.3880
   19bbb    H15  545   9.887  -0.147   5.863 -1.1309  0.7246 -0.3958
   19bbb    H16  546   9.947  -0.231   5.717  1.6812 -0.0241  1.6610
   19bbb     C9  547  10.561  -0.167   5.864 -0.6016  0.5460 -0.5879
   19bbb    H17  548  10.547  -0.275   5.871  3.5155 -0.1277 -0.0892
   19bbb    H18  549  10.587  -0.124   5.962 -1.2696  0.8049 -0.5202
   19bbb     O1  550  10.083   0.262   6.111 -0.0735 -0.2311  0.2989
   20bbb     N1  551   9.267   0.908   5.795 -0.1412  0.7647 -0.3332
   20bbb     C1  552   9.360   0.983   5.709  0.0431 -0.1577 -0.0380
   20bbb     H1  553   9.306   1.049   5.640  1.4385  2.1120  0.9107
   20bbb     H2  554   9.416   0.916   5.642  0.4898  1.0572 -0.9078
   20bbb     C2  555   9.187   0.810   5.714  0.4264 -0.1329  0.4964
   20bbb     H3  556   9.133   0.748   5.787 -1.2557 -0.3073 -0.8390
   20bbb     H4  557   9.257   0.745   5.661  1.8511  2.2605 -0.6837
   20bbb     C3  558   9.326   0.845   5.915  0.2648  0.0921  0.6354
   20bbb     H5  559   9.371   0.927   5.972  0.2078 -1.4748  3.0904
   20bbb     H6  560   9.406   0.777   5.883  0.4535  1.0057 -0.9615
   20bbb     C4  561   9.227   0.781   6.014  0.1851 -0.6355 -0.0013
   20bbb     H7  562   9.203   0.679   5.980  3.5655 -0.9156 -1.9794
   20bbb     H8  563   9.132   0.833   6.033 -0.3137 -2.1858  2.2315
   20bbb     C5  564   9.476   1.066   5.773  0.7637  0.1644  0.0629
   20bbb     H9  565   9.549   0.991   5.807  2.1370  0.4375 -2.1044
   20bbb    H10  566   9.436   1.120   5.860  0.1350  0.0979 -0.1760
   20bbb     C6  567   9.095   0.884   5.617  0.2762 -0.0468  0.5209
   20bbb    H11  568   9.152   0.913   5.529 -1.6979  0.7071 -0.5569
   20bbb    H12  569   9.067   0.977   5.669 -1.4798  0.6501 -1.5357
   20bbb     C7  570   9.295   0.758   6.150  0.4147  0.1041 -0.5234
   20bbb    H13  571   9.210   0.740   6.217  0.9587  1.2353  0.5183
   20bbb    H14  572   9.349   0.848   6.183  2.0423 -0.5070 -1.4244
   20bbb     C8  573   8.972   0.801   5.566 -0.3825 -0.0191  0.1834
   20bbb    H15  574   8.907   0.866   5.507 -1.6074 -0.4072  1.0654
   20bbb    H16  575   8.922   0.759   5.654  2.2500  0.6676  2.1553
   20bbb     C9  576   9.553   1.159   5.683  0.2136 -0.1547  0.3004
   20bbb    H17  577   9.628   1.205   5.748  0.5921 -1.6510  0.9525
   20bbb    H18  578   9.496   1.242   5.639  0.9136  0.3754  0.3667
   20bbb     O1  579   9.386   0.645   6.161 -0.0444  0.5610 -0.1656
   21bbb     N1  580   8.400   1.059   7.263 -0.0318  0.5324  0.1283
   21bbb     C1  581   8.295   0.960   7.218  0.4870  0.5382  0.1154
   21bbb     H1  582   8.212   1.008   7.165 -0.0928  0.5981  1.0707
   21bbb     H2  583   8.235   0.924   7.302  0.8052  2.6588  1.3164
   21bbb     C2  584   8.468   1.005   7.382 -0.0415 -0.2567 -0.1775
   21bbb     H3  585   8.565   1.056   7.390 -0.7531  1.0710  0.3424
   21bbb     H4  586   8.485   0.902   7.350  0.3110 -0.1231 -0.4333
   21bbb     C3  587   8.486   1.112   7.157  0.2837 -0.1658 -0.3249
   21bbb     H5  588   8.530   1.024   7.108 -0.2021 -0.1621 -0.7847
   21bbb     H6  589   8.570   1.167   7.200  0.6795 -1.0279  0.0122
   21bbb     C4  590   8.413   1.195   7.044 -0.8713  0.2241 -0.8590
   21bbb     H7  591   8.324   1.250   7.079 -0.0501  0.4246  1.0885
   21bbb     H8  592   8.379   1.119   6.974 -0.6445 -1.3954  0.7229
   21bbb     C5  593   8.342   0.844   7.134  0.1045  0.1322  0.1467
   21bbb     H9  594   8.435   0.803   7.176 -0.4689  0.7898  2.1683
   21bbb    H10  595   8.363   0.874   7.030 -1.2048 -0.7551 -0.3969
   21bbb     C6  596   8.384   1.012   7.512  0.1267 -0.1401  0.4929
   21bbb    H11  597   8.297   0.945   7.514 -0.0790  0.1271  1.7062
   21bbb    H12  598   8.339   1.112   7.511  2.0623  0.7834 -0.1103
   21bbb     C7  599   8.506   1.302   6.982  0.0053  0.2998 -0.0812
   21bbb    H13  600   8.508   1.378   7.061 -1.2728  0.9606 -0.6576
   21bbb    H14  601   8.465   1.342   6.888 -1.8298 -0.6864  0.2649
   21bbb     C8  602   8.468   0.994   7.643  0.0345  0.2148  1.0779
   21bbb    H15  603   8.488   0.886   7.647 -0.0555  0.2059  1.3409
   21bbb    H16  604   8.401   1.024   7.724 -1.3053  0.0846  0.0473
   21bbb     C9  605   8.225   0.735   7.130  0.0154  0.0552 -0.3538
   21bbb    H17  606   8.132   0.786   7.103  0.2602  0.1682 -1.0171
   21bbb    H18  607   8.217   0.687   7.228  1.1197 -0.8320 -0.6645
   21bbb     O1  608   8.646   1.259   6.971 -0.9775  0.0958  0.0406
   22bbb     N1  609   8.422   1.492   7.563 -0.1034  0.0386  0.1363
   22bbb     C1  610   8.479   1.364   7.625  0.0043  0.2087  0.4550
   22bbb     H1  611   8.579   1.332   7.592  0.1477 -0.4156  1.4604
   22bbb     H2  612   8.410   1.285   7.594  0.7535 -0.2769 -0.0138
   22bbb     C2  613   8.272   1.503   7.577  0.0196 -0.0500 -0.5611
   22bbb     H3  614   8.241   1.452   7.669  0.7487  0.6442  0.0785
   22bbb     H4  615   8.213   1.456   7.497 -3.2814  1.6919  0.6291
   22bbb     C3  616   8.467   1.509   7.422  0.0788 -0.1702 -0.2409
   22bbb     H5  617   8.441   1.603   7.372  1.6821 -0.3604 -1.5070
   22bbb     H6  618   8.425   1.429   7.360  2.2925 -0.8873 -0.9035
   22bbb     C4  619   8.620   1.490   7.409 -0.1917  0.1959  0.1814
   22bbb     H7  620   8.655   1.387   7.395  1.3095  0.6108  0.6123
   22bbb     H8  621   8.673   1.521   7.500  0.0887 -1.0357  0.4537
   22bbb     C5  622   8.498   1.371   7.777 -0.6296  0.5527  0.3659
   22bbb     H9  623   8.515   1.267   7.807 -1.0868  0.5534  0.6546
   22bbb    H10  624   8.402   1.397   7.824 -1.6970 -0.3547 -1.2205
   22bbb     C6  625   8.237   1.652   7.589 -0.5987  0.9307 -0.2641
   22bbb    H11  626   8.135   1.685   7.612 -0.3568  0.5017  1.5388
   22bbb    H12  627   8.254   1.698   7.491 -0.1313 -0.8311 -1.0518
   22bbb     C7  628   8.678   1.583   7.302 -0.2856  0.4742  0.0358
   22bbb    H13  629   8.632   1.683   7.303 -0.3221  0.4534  0.8379
   22bbb    H14  630   8.643   1.539   7.207 -0.2735  1.2283 -0.3274
   22bbb     C8  631   8.331   1.727   7.691  0.5680 -0.2712 -0.0776
   22bbb    H15  632   8.422   1.755   7.637 -0.5209 -0.4488 -2.1273
   22bbb    H16  633   8.346   1.669   7.782  0.8639  1.1125  0.7911
   22bbb     C9  634   8.616   1.461   7.805  0.0272  0.5513  0.3784
   22bbb    H17  635   8.591   1.554   7.752 -1.0592 -0.4363 -0.8831
   22bbb    H18  636   8.706   1.410   7.770  0.4559  0.8982  0.9557
   22bbb     O1  637   8.825   1.581   7.301 -0.1245  0.8188  0.7711
   23bbb     N1  638  11.251   1.474   6.434  0.2308  0.4467  0.0783
   23bbb     C1  639  11.279   1.535   6.300 -0.1197  0.1399 -0.3866
   23bbb     H1  640  11.253   1.641   6.306 -1.7388 -0.2545 -0.0012
   23bbb     H2  641  11.216   1.486   6.224 -0.6366  0.1443  0.0321
   23bbb     C2  642  11.330   1.544   6.544 -0.0498  0.2251  0.5988
   23bbb     H3  643  11.282   1.636   6.579  0.2853  0.3683  0.6884
   23bbb     H4  644  11.428   1.570   6.502 -0.7956  0.7435 -0.8461
   23bbb     C3  645  11.105   1.460   6.469 -0.2469 -0.4552 -0.2906
   23bbb     H5  646  11.056   1.555   6.446 -0.6910 -0.3941  0.8512
   23bbb     H6  647  11.082   1.424   6.570 -2.1602 -0.2001 -0.5961
   23bbb     C4  648  11.030   1.360   6.382  0.3073  0.6229  0.1497
   23bbb     H7  649  10.995   1.410   6.291  1.3584 -1.1628 -1.3114
   23bbb     H8  650  10.934   1.341   6.432  0.1541 -0.8458 -0.6368
   23bbb     C5  651  11.433   1.533   6.252  0.6612  0.2338  0.0016
   23bbb     H9  652  11.501   1.595   6.312  0.3892  0.5400 -0.0042
   23bbb    H10  653  11.423   1.572   6.150 -0.6111  0.6193  0.2576
   23bbb     C6  654  11.353   1.456   6.667  0.1080  0.1298  0.5921
   23bbb    H11  655  11.263   1.458   6.730  1.7461  1.0026  3.0480
   23bbb    H12  656  11.421   1.501   6.740 -0.7365 -1.8084  2.6976
   23bbb     C7  657  11.090   1.220   6.349  0.4639 -0.4015 -0.2767
   23bbb    H13  658  11.198   1.226   6.328  0.5134  1.0291  0.2651
   23bbb    H14  659  11.031   1.182   6.265  1.3308 -1.0024 -0.6291
   23bbb     C8  660  11.398   1.316   6.647  0.1545  0.1846  0.3834
   23bbb    H15  661  11.335   1.275   6.567 -0.9573  2.9876 -0.2792
   23bbb    H16  662  11.378   1.252   6.734  0.3734 -3.0784 -1.7974
   23bbb     C9  663  11.485   1.386   6.253 -0.0556  0.2723  0.6508
   23bbb    H17  664  11.458   1.349   6.353  2.4404 -2.2568  0.4827
   23bbb    H18  665  11.594   1.395   6.249  0.0754 -1.1449  0.7143
   23bbb     O1  666  11.054   1.136   6.455 -0.0923 -0.6077 -0.2585
   24bbb     N1  667  11.802   0.571   7.194  0.0535  0.9324 -0.5532
   24bbb     C1  668  11.905   0.509   7.104  0.4411 -0.3067  0.5690
   24bbb     H1  669  11.999   0.498   7.159  0.7571 -0.8454 -0.0674
   24bbb     H2  670  11.919   0.569   7.013  1.5606 -1.3253  0.0500
   24bbb     C2  671  11.779   0.499   7.324 -0.1992 -0.5133 -0.6058
   24bbb     H3  672  11.736   0.401   7.301  0.6064 -0.6513 -1.5743
   24bbb     H4  673  11.704   0.550   7.386  1.0561  0.8027 -0.1090
   24bbb     C3  674  11.674   0.624   7.137  0.8031 -0.1996  0.2508
   24bbb     H5  675  11.612   0.673   7.213  1.1082 -1.4311  1.3419
   24bbb     H6  676  11.611   0.543   7.098 -0.1620  0.5319  0.2665
   24bbb     C4  677  11.712   0.727   7.025  0.4267  0.2756 -0.1364
   24bbb     H7  678  11.745   0.667   6.940  2.0152 -0.8444  1.2141
   24bbb     H8  679  11.799   0.782   7.063 -0.4097  0.6757  1.2574
   24bbb     C5  680  11.868   0.370   7.053  0.8448  0.5512  0.0483
   24bbb     H9  681  11.763   0.354   7.026  0.8275 -1.9950  1.2967
   24bbb    H10  682  11.886   0.306   7.140 -1.3409  2.8552  2.3742
   24bbb     C6  683  11.912   0.471   7.408  0.2769 -0.5337 -0.0857
   24bbb    H11  684  11.962   0.566   7.430  0.9495 -1.0669  0.7849
   24bbb    H12  685  11.985   0.409   7.354  0.6921 -3.4137  3.4160
   24bbb     C7  686  11.591   0.821   6.990 -0.3975 -0.3867 -0.0799
   24bbb    H13  687  11.615   0.868   6.893  1.8638  0.3736  0.7848
   24bbb    H14  688  11.574   0.895   7.069  1.2434 -1.8741  1.7413
   24bbb     C8  689  11.880   0.408   7.549  0.0649  0.3289 -0.1101
   24bbb    H15  690  11.969   0.418   7.613  1.6699  1.1714 -2.3258
   24bbb    H16  691  11.862   0.300   7.545  0.1222  0.3428 -2.9628
   24bbb     C9  692  11.949   0.310   6.939 -0.5047  0.0483 -0.3544
   24bbb    H17  693  11.931   0.380   6.856 -3.0509  1.6901  1.4296
   24bbb    H18  694  11.914   0.211   6.908  2.8790 -1.5875  0.5418
   24bbb     O1  695  11.471   0.742   6.972 -0.1322 -0.1014  0.2136
   25bbb     N1  696  11.436   2.974   6.499 -0.2334 -0.4082 -0.8861
   25bbb     C1  697  11.396   2.840   6.540 -0.5262 -0.6707  0.6020
   25bbb     H1  698  11.417   2.770   6.458  0.3632 -0.1169  0.3358
   25bbb     H2  699  11.287   2.836   6.547 -0.7934  1.6510 -1.1944
   25bbb     C2  700  11.354   3.031   6.387 -0.0860  0.5441  0.6184
   25bbb     H3  701  11.247   3.022   6.406 -0.1778 -0.0447 -0.1230
   25bbb     H4  702  11.366   2.968   6.297 -1.6177  0.7293  0.2594
   25bbb     C3  703  11.583   2.990   6.480  0.2308  0.1597  0.0312
   25bbb     H5  704  11.630   2.958   6.573  2.0999  0.3490 -0.8044
   25bbb     H6  705  11.612   3.095   6.467 -0.5603  0.5530  1.3133
   25bbb     C4  706  11.645   2.897   6.374 -0.5884  0.9060  0.3270
   25bbb     H7  707  11.622   2.929   6.272  1.0383 -3.4749 -1.6329
   25bbb     H8  708  11.609   2.794   6.377  1.0624  0.0605 -3.4958
   25bbb     C5  709  11.454   2.794   6.675 -0.4316  0.8283 -0.3272
   25bbb     H9  710  11.458   2.879   6.745  1.1192  0.4689  0.0526
   25bbb    H10  711  11.558   2.762   6.659  0.4323  2.8553  0.8490
   25bbb     C6  712  11.389   3.181   6.356  0.1604  0.0024 -0.3642
   25bbb    H11  713  11.495   3.191   6.328 -0.2374 -0.8034 -2.3331
   25bbb    H12  714  11.373   3.246   6.443  1.1060 -1.0927  0.6672
   25bbb     C7  715  11.801   2.887   6.392  0.2685  0.3422  0.1356
   25bbb    H13  716  11.854   2.983   6.389  1.1076 -0.1382 -0.6639
   25bbb    H14  717  11.828   2.835   6.299  2.7772  0.4545  0.7325
   25bbb     C8  718  11.311   3.234   6.238  0.1213  0.0550  0.5273
   25bbb    H15  719  11.204   3.222   6.254 -0.1144 -0.0538 -0.9909
   25bbb    H16  720  11.331   3.169   6.152 -1.4032  1.2023 -0.7432
   25bbb     C9  721  11.374   2.670   6.736 -0.4742 -0.1141  1.0643
   25bbb    H17  722  11.269   2.696   6.722 -0.2322 -0.2637 -1.6489
   25bbb    H18  723  11.400   2.653   6.841 -0.6094 -1.8762  0.8453
   25bbb     O1  724  11.848   2.817   6.509 -0.7454  0.3954 -0.5626
   26bbb     N1  725  11.810   2.359   7.775  0.0914 -0.4231 -0.2495
   26bbb     C1  726  11.939   2.285   7.800 -0.7255 -0.3379 -0.3128
   26bbb     H1  727  11.954   2.264   7.906  1.6526 -2.1217 -0.9393
   26bbb     H2  728  12.021   2.353   7.773 -0.8599  0.2546  0.7309
   26bbb     C2  729  11.694   2.277   7.821  0.7319  0.0610 -0.2593
   26bbb     H3  730  11.685   2.183   7.764 -0.7197 -0.7387  1.1966
   26bbb     H4  731  11.607   2.341   7.801  1.3854  0.1494 -3.4579
   26bbb     C3  732  11.800   2.410   7.636  0.0768 -0.4315  0.1295
   26bbb     H5  733  11.694   2.429   7.615 -0.3053 -2.5640 -0.1325
   26bbb     H6  734  11.834   2.339   7.559 -1.6170  0.4459 -1.5057
   26bbb     C4  735  11.874   2.544   7.612 -0.4717  0.2483 -0.4210
   26bbb     H7  736  11.982   2.528   7.601 -0.4991 -1.1195  0.8835
   26bbb     H8  737  11.867   2.604   7.703  0.6095  1.2893 -1.0138
   26bbb     C5  738  11.949   2.153   7.729  0.8812 -0.3416  0.7426
   26bbb     H9  739  11.930   2.150   7.621  0.8215  0.4458  0.7247
   26bbb    H10  740  11.866   2.088   7.757  0.8358 -0.2685  0.7790
   26bbb     C6  741  11.681   2.244   7.974  0.3757  0.2145  0.0602
   26bbb    H11  742  11.742   2.154   7.987 -0.4356 -0.3748 -0.1527
   26bbb    H12  743  11.583   2.197   7.984 -0.0284  0.3797 -2.3655
   26bbb     C7  744  11.831   2.621   7.483  0.2630  0.2211 -0.4779
   26bbb    H13  745  11.864   2.726   7.487 -1.4438  0.7745 -0.2228
   26bbb    H14  746  11.724   2.644   7.491  0.6470  1.9711  0.2599
   26bbb     C8  747  11.694   2.358   8.082  0.0742  0.3681  0.3003
   26bbb    H15  748  11.605   2.423   8.087  1.1702  2.0138 -0.5945
   26bbb    H16  749  11.773   2.418   8.035 -0.0223 -0.9004 -1.5647
   26bbb     C9  750  12.081   2.084   7.743 -0.6665  0.0382 -1.3530
   26bbb    H17  751  12.147   2.139   7.674  1.7357  0.6497  1.2639
   26bbb    H18  752  12.072   1.982   7.705  0.0499 -0.8130  0.6619
   26bbb     O1  753  11.867   2.556   7.368 -0.2018  0.4431 -0.0771
   27bbb     N1  754   9.693   0.452   5.720  0.7267 -0.4914  0.5627
   27bbb     C1  755   9.624   0.338   5.789  0.3186  0.1445  0.1770
   27bbb     H1  756   9.700   0.280   5.842  2.1291  2.3175  0.1255
   27bbb     H2  757   9.585   0.265   5.716 -1.0083  0.1739  0.8189
   27bbb     C2  758   9.794   0.420   5.614  0.1802 -0.5946 -0.5520
   27bbb     H3  759   9.794   0.504   5.542 -0.0948 -1.5406 -1.6881
   27bbb     H4  760   9.763   0.335   5.552 -0.0213 -2.1106  1.5439
   27bbb     C3  761   9.727   0.575   5.800 -0.3906 -0.0773  0.1402
   27bbb     H5  762   9.801   0.549   5.877  0.3143 -1.1905 -0.8799
   27bbb     H6  763   9.638   0.611   5.854  0.8542  0.3891  2.0031
   27bbb     C4  764   9.786   0.703   5.717 -0.0493 -0.6798  1.3097
   27bbb     H7  765   9.714   0.723   5.636 -0.1919 -0.9338  1.3702
   27bbb     H8  766   9.873   0.673   5.659  0.8919 -0.6651  2.6722
   27bbb     C5  767   9.506   0.382   5.876 -0.4862  0.7758 -0.2425
   27bbb     H9  768   9.548   0.440   5.959 -0.2943 -0.6670  0.6818
   27bbb    H10  769   9.481   0.292   5.932  0.8195  0.5070 -0.0541
   27bbb     C6  770   9.930   0.391   5.662 -0.9243  0.3686 -0.0063
   27bbb    H11  771   9.932   0.298   5.721  2.7092 -1.7889 -3.1002
   27bbb    H12  772   9.968   0.466   5.733  1.1638 -1.7323  1.2382
   27bbb     C7  773   9.833   0.823   5.806  0.5843 -0.3762  0.0650
   27bbb    H13  774   9.761   0.838   5.887 -0.1289  1.9993 -0.9241
   27bbb    H14  775   9.831   0.921   5.757  0.3571  0.1695  1.1360
   27bbb     C8  776  10.035   0.383   5.552  0.1909 -0.4484 -0.4072
   27bbb    H15  777   9.998   0.308   5.482  0.6090 -2.1314  1.1126
   27bbb    H16  778  10.126   0.361   5.609  0.0041  0.4036  0.2347
   27bbb     C9  779   9.394   0.446   5.795 -0.0445  0.2996 -0.7634
   27bbb    H17  780   9.428   0.539   5.747  0.1638  1.3411  1.2790
   27bbb    H18  781   9.321   0.480   5.869  1.2074  0.8411  0.2637
   27bbb     O1  782   9.959   0.788   5.866  0.3368 -0.1713 -0.7634
   28bbb     N1  783  10.592   0.270   5.310  0.0577  0.2562  0.6179
   28bbb     C1  784  10.606   0.158   5.216 -0.2532  0.3990 -0.9414
   28bbb     H1  785  10.595   0.204   5.117 -0.3042 -0.0856 -1.1614
   28bbb     H2  786  10.523   0.087   5.219 -1.1641  1.4790  1.6598
   28bbb     C2  787  10.674   0.392   5.273 -0.9904  0.0350 -0.6136
   28bbb     H3  788  10.625   0.449   5.193 -1.4901  0.2958 -0.1297
   28bbb     H4  789  10.771   0.355   5.239 -0.0830  2.4760 -0.8707
   28bbb     C3  790  10.448   0.303   5.323  0.0387  0.1472 -0.2471
   28bbb     H5  791  10.403   0.281   5.226  0.3917  0.5662 -0.5102
   28bbb     H6  792  10.436   0.406   5.359 -0.8353 -0.1711  0.4180
   28bbb     C4  793  10.391   0.205   5.428 -0.4298 -0.3967 -0.1596
   28bbb     H7  794  10.417   0.101   5.403 -0.4972 -0.4903  0.1601
   28bbb     H8  795  10.283   0.218   5.417 -0.4079  3.1834  2.3584
   28bbb     C5  796  10.744   0.078   5.225  0.1430  0.0378  0.4211
   28bbb     H9  797  10.817   0.158   5.207  0.3620 -0.0663  0.8416
   28bbb    H10  798  10.748   0.003   5.144  1.3986 -0.8362  1.2553
   28bbb     C6  799  10.696   0.486   5.391  0.3534 -0.1276  0.3103
   28bbb    H11  800  10.710   0.427   5.483 -3.0104  0.9603  1.6621
   28bbb    H12  801  10.608   0.540   5.429  0.7264  0.8447 -0.1801
   28bbb     C7  802  10.421   0.246   5.578 -0.3065  0.2010  0.5561
   28bbb    H13  803  10.516   0.204   5.613 -1.3233 -1.1061  1.9111
   28bbb    H14  804  10.346   0.196   5.641  0.2120  0.0704  1.0762
   28bbb     C8  805  10.804   0.592   5.368 -0.5751 -0.8505 -0.1451
   28bbb    H15  806  10.905   0.548   5.360 -0.7872 -1.1545 -1.2819
   28bbb    H16  807  10.809   0.645   5.464  0.6151  0.9996 -1.1605
   28bbb     C9  808  10.760  -0.002   5.357  0.0998 -0.1625  0.3313
   28bbb    H17  809  10.864  -0.029   5.376 -0.8022 -2.4999  2.5795
   28bbb    H18  810  10.725   0.062   5.440  1.0625  3.3956 -1.7857
   28bbb     O1  811  10.424   0.385   5.593 -0.3386 -0.4013 -0.2110
   29bbb     N1  812  10.305   1.562   4.870 -0.3034 -0.6534  0.0398
   29bbb     C1  813  10.440   1.511   4.833 -0.0890 -0.1620 -0.1692
   29bbb     H1  814  10.474   1.423   4.889  2.4430  0.1470 -1.1056
   29bbb     H2  815  10.513   1.588   4.859  0.7153 -0.3139 -1.8169
   29bbb     C2  816  10.238   1.659   4.783 -0.0095  0.7887  1.1101
   29bbb     H3  817  10.135   1.671   4.819  0.2758 -1.4002  2.8714
   29bbb     H4  818  10.236   1.610   4.684 -1.2208  0.5408  1.2377
   29bbb     C3  819  10.306   1.609   5.008  0.5351 -0.2116 -0.1837
   29bbb     H5  820  10.223   1.675   5.039 -0.7511 -0.2644 -3.1775
   29bbb     H6  821  10.400   1.663   5.027 -0.2136  0.9773  0.2704
   29bbb     C4  822  10.287   1.490   5.105 -0.3131  0.1448  1.1949
   29bbb     H7  823  10.357   1.412   5.073  0.2851  1.8333 -2.1523
   29bbb     H8  824  10.187   1.448   5.094 -0.2123  0.0742  0.5310
   29bbb     C5  825  10.469   1.488   4.686 -0.3022  0.1811 -0.4172
   29bbb     H9  826  10.572   1.449   4.695 -1.2410 -2.0160  2.3779
   29bbb    H10  827  10.473   1.582   4.630  1.4746 -0.0779 -0.7887
   29bbb     C6  828  10.297   1.804   4.762 -0.2872  0.1260  0.1884
   29bbb    H11  829  10.401   1.805   4.726 -0.0568 -1.6202  0.7284
   29bbb    H12  830  10.293   1.853   4.860  0.6594  0.5499  0.0255
   29bbb     C7  831  10.291   1.531   5.250 -0.0023 -0.6313 -0.6159
   29bbb    H13  832  10.250   1.441   5.297  1.2420 -2.5236 -2.9829
   29bbb    H14  833  10.224   1.616   5.266  1.0702  0.3574 -1.2191
   29bbb     C8  834  10.220   1.893   4.665 -0.4410  0.5779 -0.4209
   29bbb    H15  835  10.121   1.909   4.710  0.1431 -0.3913  1.2956
   29bbb    H16  836  10.205   1.837   4.572 -0.2851 -0.7469  0.3241
   29bbb     C9  837  10.372   1.385   4.617 -0.0618 -0.2543  0.6594
   29bbb    H17  838  10.293   1.352   4.686 -2.4598  0.7193 -1.4483
   29bbb    H18  839  10.432   1.301   4.579  0.4237  0.2527  0.3030
   29bbb     O1  840  10.427   1.567   5.286 -0.2397  0.4463  0.3016
   30bbb     N1  841  10.677   1.134   5.442  0.0120 -0.8587  0.6729
   30bbb     C1  842  10.577   1.090   5.341 -0.3246 -0.1669 -0.2502
   30bbb     H1  843  10.531   0.996   5.375 -0.6469  0.2334  0.4351
   30bbb     H2  844  10.631   1.051   5.254  0.3130 -1.1535  0.5704
   30bbb     C2  845  10.751   1.252   5.400  0.1268 -0.6945  0.0250
   30bbb     H3  846  10.831   1.281   5.469 -0.6061  1.6187 -0.0278
   30bbb     H4  847  10.682   1.337   5.404  1.0417  0.2244 -2.1879
   30bbb     C3  848  10.626   1.140   5.581  0.3290 -0.1831 -0.1920
   30bbb     H5  849  10.523   1.178   5.576  0.9267  1.3288 -2.4558
   30bbb     H6  850  10.695   1.208   5.634  1.0254 -0.0575 -1.2376
   30bbb     C4  851  10.633   0.998   5.644  0.1545 -1.1496 -0.1255
   30bbb     H7  852  10.729   0.960   5.607  0.1416 -0.5569 -0.7739
   30bbb     H8  853  10.566   0.921   5.603 -1.7854 -0.4804  1.5818
   30bbb     C5  854  10.468   1.196   5.300  0.1478  0.4409  0.4373
   30bbb     H9  855  10.507   1.295   5.276 -1.4742  0.8019 -0.9183
   30bbb    H10  856  10.385   1.195   5.372 -1.3149 -2.1746 -1.1131
   30bbb     C6  857  10.799   1.247   5.246  0.6035 -0.3721  0.0478
   30bbb    H11  858  10.711   1.254   5.180 -0.3977  0.4237  1.4222
   30bbb    H12  859  10.848   1.151   5.223  0.4398  0.2063 -3.2470
   30bbb     C7  860  10.619   1.016   5.801  0.0349  0.5411  0.4076
   30bbb    H13  861  10.705   1.077   5.833  0.4657 -0.1380  0.5539
   30bbb    H14  862  10.624   0.916   5.846  0.3017 -1.2854 -3.3140
   30bbb     C8  863  10.893   1.367   5.225 -0.1468 -0.1536 -0.1950
   30bbb    H15  864  10.936   1.370   5.124 -0.3184 -1.1101 -0.3073
   30bbb    H16  865  10.979   1.349   5.290 -0.2831  0.4265  0.1521
   30bbb     C9  866  10.390   1.146   5.174 -0.0094 -0.2695  0.2534
   30bbb    H17  867  10.302   1.209   5.161 -0.5421 -1.2583 -1.2455
   30bbb    H18  868  10.359   1.043   5.195  2.4341 -1.3979 -1.1556
   30bbb     O1  869  10.490   1.076   5.825 -0.6445  0.0610 -0.1165
   31bbb     N1  870   9.519   0.754   6.861  0.2777 -0.2728  0.0195
   31bbb     C1  871   9.664   0.756   6.830 -0.1863 -0.8527  0.1038
   31bbb     H1  872   9.723   0.737   6.920 -1.8416  0.4010  1.5156
   31bbb     H2  873   9.686   0.861   6.806  1.0242 -1.1862 -0.3406
   31bbb     C2  874   9.483   0.775   7.003 -0.1205  0.2726 -0.0314
   31bbb     H3  875   9.378   0.747   7.018 -0.3234  1.0984  0.1158
   31bbb     H4  876   9.499   0.875   7.045  2.4726 -1.3659  3.2843
   31bbb     C3  877   9.424   0.833   6.774  0.1833 -0.1352  0.2515
   31bbb     H5  878   9.447   0.940   6.786  1.4187 -0.3587  0.0202
   31bbb     H6  879   9.322   0.825   6.813  1.3738 -1.4032  3.5332
   31bbb     C4  880   9.423   0.794   6.623  0.3591 -0.2142 -0.6131
   31bbb     H7  881   9.404   0.686   6.611  0.2065 -0.3071  0.3576
   31bbb     H8  882   9.518   0.820   6.574  0.4606 -0.4443 -0.5438
   31bbb     C5  883   9.724   0.645   6.732  0.4830 -0.5065  0.5638
   31bbb     H9  884   9.833   0.663   6.728  0.7652 -2.1058  0.6123
   31bbb    H10  885   9.674   0.661   6.636  0.4339 -0.0123  0.6663
   31bbb     C6  886   9.559   0.676   7.100 -0.3518  0.6189 -0.6469
   31bbb    H11  887   9.666   0.697   7.103 -0.4009  0.8311  1.4417
   31bbb    H12  888   9.546   0.574   7.063  0.6291  0.1290  0.3188
   31bbb     C7  889   9.313   0.869   6.549  0.0392  0.2383  0.0403
   31bbb    H13  890   9.308   0.856   6.440 -1.2990  0.5128  0.0417
   31bbb    H14  891   9.323   0.976   6.574 -0.0362  0.1443  0.4761
   31bbb     C8  892   9.497   0.683   7.240 -0.4368  0.0339  0.3387
   31bbb    H15  893   9.398   0.635   7.236 -0.3070 -0.1777 -0.4981
   31bbb    H16  894   9.498   0.787   7.274  0.6053  0.0959  0.1289
   31bbb     C9  895   9.700   0.507   6.794  0.0585  0.4277  0.1082
   31bbb    H17  896   9.692   0.433   6.713  0.3812  1.9468 -1.3647
   31bbb    H18  897   9.605   0.503   6.850  0.3458 -1.9443  0.5247
   31bbb     O1  898   9.189   0.825   6.598  0.1435 -0.8331 -0.4124
   32bbb     N1  899   8.053   1.128   6.719 -0.5030 -0.3094 -0.3790
   32bbb     C1  900   7.955   1.079   6.618 -0.6075 -0.1903  0.0966
   32bbb     H1  901   7.944   0.972   6.641  2.7817 -0.9542 -1.2109
   32bbb     H2  902   8.018   1.081   6.528 -0.5571 -0.3796  0.1270
   32bbb     C2  903   8.007   1.184   6.850 -0.0017  0.1790  0.3171
   32bbb     H3  904   7.908   1.231   6.847 -0.9364 -1.4618  2.5130
   32bbb     H4  905   8.078   1.264   6.875  1.6660 -1.2361  0.2945
   32bbb     C3  906   8.177   1.052   6.733 -0.0127  0.3349  0.0032
   32bbb     H5  907   8.154   0.951   6.768 -2.2927  1.4573  2.0098
   32bbb     H6  908   8.234   1.100   6.814  0.8829 -1.6043  0.6030
   32bbb     C4  909   8.262   1.043   6.609 -0.8124 -0.1454  0.4133
   32bbb     H7  910   8.363   1.084   6.622  0.1153 -2.0304 -0.3877
   32bbb     H8  911   8.221   1.110   6.532 -0.0240 -0.4295 -0.2675
   32bbb     C5  912   7.829   1.169   6.594  0.0582 -0.2699  0.0442
   32bbb     H9  913   7.851   1.276   6.601 -3.8785  0.5996  2.3454
   32bbb    H10  914   7.753   1.153   6.672  0.2134 -0.3252  0.1847
   32bbb     C6  915   7.988   1.096   6.966 -0.2729  0.2096  0.0742
   32bbb    H11  916   7.934   1.147   7.047  1.6933  1.5034  0.6523
   32bbb    H12  917   8.082   1.056   7.007 -0.2409 -1.6001 -1.6120
   32bbb     C7  918   8.283   0.901   6.548  0.0587  0.0570  0.5632
   32bbb    H13  919   8.336   0.924   6.455  0.2220  2.3610  1.1692
   32bbb    H14  920   8.183   0.871   6.514 -0.0554  1.7892 -0.7723
   32bbb     C8  921   7.908   0.971   6.930 -0.7582  0.6304  0.0157
   32bbb    H15  922   7.983   0.894   6.911 -0.5807  0.6966  0.4545
   32bbb    H16  923   7.846   0.983   6.839 -2.1954  0.9503  1.0015
   32bbb     C9  924   7.769   1.136   6.455  0.2159  0.2595 -0.1951
   32bbb    H17  925   7.833   1.186   6.381  2.1478 -1.6818  0.0722
   32bbb    H18  926   7.679   1.196   6.438  0.5922  0.3901 -1.9472
   32bbb     O1  927   8.345   0.797   6.629  0.3593  0.3511  0.1445
   33bbb     N1  928  10.032   0.686   8.046 -0.3063 -0.7411 -0.0276
   33bbb     C1  929  10.016   0.541   8.050 -0.2564 -0.6439  0.4419
   33bbb     H1  930  10.103   0.490   8.092  0.3762 -1.0467 -1.2416
   33bbb     H2  931  10.018   0.501   7.948 -0.3515 -0.2969  0.3008
   33bbb     C2  932  10.038   0.750   8.181  0.4804  0.5896  0.3379
   33bbb     H3  933   9.938   0.742   8.226  0.5381  1.5434  0.6568
   33bbb     H4  934  10.053   0.858   8.188 -0.9429  0.8425 -0.0501
   33bbb     C3  935   9.944   0.765   7.953  0.2139  0.0464 -0.0493
   33bbb     H5  936   9.842   0.772   7.991 -0.0316  0.9523 -0.8603
   33bbb     H6  937   9.939   0.708   7.860  1.6273 -0.8960  0.4140
   33bbb     C4  938   9.995   0.908   7.925 -0.5036  0.6282  0.0361
   33bbb     H7  939  10.104   0.899   7.912 -0.4172  0.1374  0.9942
   33bbb     H8  940   9.982   0.974   8.011  0.4362 -0.4558  1.0544
   33bbb     C5  941   9.879   0.500   8.098 -0.4209 -0.6424 -0.1435
   33bbb     H9  942   9.807   0.539   8.025 -0.1569  0.1646  0.0221
   33bbb    H10  943   9.857   0.545   8.195  0.3604 -1.9183  0.6642
   33bbb     C6  944  10.151   0.701   8.275 -0.1774 -0.3416 -0.7831
   33bbb    H11  945  10.159   0.781   8.349 -0.9849 -0.0924 -0.9525
   33bbb    H12  946  10.235   0.682   8.207  0.4613 -0.7577  0.1167
   33bbb     C7  947   9.936   0.975   7.805  0.0049  0.0668  0.2438
   33bbb    H13  948   9.945   0.906   7.721 -0.6039 -0.9903  1.0142
   33bbb    H14  949   9.993   1.068   7.795 -1.4515  1.0033  0.2419
   33bbb     C8  950  10.125   0.568   8.362 -0.2293  0.0597 -0.1957
   33bbb    H15  951  10.049   0.504   8.317 -0.3875 -0.8206  1.2614
   33bbb    H16  952  10.091   0.591   8.463  2.4451 -0.2507  0.8527
   33bbb     C9  953   9.840   0.349   8.120 -0.1902  0.6205  0.0801
   33bbb    H17  954   9.835   0.300   8.022  0.0090 -2.0474  1.3408
   33bbb    H18  955   9.740   0.352   8.165 -0.3570 -1.3293 -0.1002
   33bbb     O1  956   9.794   1.010   7.828  0.1625  0.4757 -0.2462
   34bbb     N1  957   9.447   1.509   8.418 -0.1453  0.6574 -0.2350
   34bbb     C1  958   9.468   1.459   8.557 -0.2232  0.2513  0.0152
   34bbb     H1  959   9.574   1.473   8.584  0.2929 -1.0335 -1.2355
   34bbb     H2  960   9.457   1.350   8.562 -1.0785  0.2917 -0.7459
   34bbb     C2  961   9.304   1.491   8.371 -0.0209  0.0418 -0.0610
   34bbb     H3  962   9.231   1.557   8.420  0.4585 -0.1995  1.0076
   34bbb     H4  963   9.274   1.388   8.395  2.5810 -1.1737 -1.6516
   34bbb     C3  964   9.498   1.649   8.391 -0.0018  0.7337  0.6638
   34bbb     H5  965   9.428   1.714   8.445 -0.9670  0.7940 -0.5935
   34bbb     H6  966   9.488   1.693   8.291  1.7337  2.1840  1.0880
   34bbb     C4  967   9.643   1.680   8.430 -0.2605 -0.5031 -0.1310
   34bbb     H7  968   9.661   1.678   8.538  0.2868  1.8830 -0.1201
   34bbb     H8  969   9.655   1.788   8.412 -0.4226 -0.5008 -0.2320
   34bbb     C5  970   9.382   1.527   8.667  0.0601  0.1802  0.4868
   34bbb     H9  971   9.280   1.509   8.630  1.0604 -2.4247 -1.2553
   34bbb    H10  972   9.393   1.636   8.658 -0.5763  0.1651 -0.6790
   34bbb     C6  973   9.290   1.504   8.216 -0.2707 -0.0872 -0.7281
   34bbb    H11  974   9.355   1.437   8.158  0.1650  0.7325 -1.2062
   34bbb    H12  975   9.321   1.602   8.176  0.4572  0.2704  0.6353
   34bbb     C7  976   9.728   1.594   8.346  0.3478  0.1094  0.0055
   34bbb    H13  977   9.687   1.492   8.337 -0.1501  0.4352 -1.8567
   34bbb    H14  978   9.826   1.590   8.394 -0.0397 -0.8059  0.7527
   34bbb     C8  979   9.146   1.498   8.163 -0.1624  0.7905 -0.1416
   34bbb    H15  980   9.095   1.579   8.216 -1.5364  0.9176 -1.5600
   34bbb    H16  981   9.094   1.406   8.192  0.7648  1.0236  2.5430
   34bbb     C9  982   9.407   1.469   8.803 -0.6876  0.7851  0.2789
   34bbb    H17  983   9.332   1.390   8.812 -1.2163  1.2509  0.0096
   34bbb    H18  984   9.368   1.546   8.871 -1.5491  0.3356  0.3048
   34bbb     O1  985   9.722   1.654   8.212 -0.5435 -0.3376 -0.0790
   35bbb     N1  986  11.967   2.011   6.926 -0.0918 -0.4296 -0.0973
   35bbb     C1  987  12.057   1.998   6.806 -0.2984  0.1142 -1.1766
   35bbb     H1  988  11.992   1.963   6.725 -0.4367  2.8124 -2.3505
   35bbb     H2  989  12.130   1.921   6.832 -0.6343  0.8608  2.3775
   35bbb     C2  990  12.027   2.050   7.056  0.1615  0.0257 -0.0522
   35bbb     H3  991  12.105   2.123   7.032 -0.7567  0.9887 -0.2367
   35bbb     H4  992  12.060   1.957   7.103  0.5198 -0.5546 -1.4010
   35bbb     C3  993  11.892   1.887   6.943 -1.0106  0.5711  0.0390
   35bbb     H5  994  11.833   1.888   7.036 -0.6043  0.3337  0.3005
   35bbb     H6  995  11.957   1.799   6.948 -0.4330  0.9742 -0.2393
   35bbb     C4  996  11.782   1.855   6.841  0.9885  1.3589 -0.3407
   35bbb     H7  997  11.817   1.837   6.738 -0.1388  0.4342 -0.5881
   35bbb     H8  998  11.713   1.940   6.837  1.1528  1.4604 -1.2892
   35bbb     C5  999  12.132   2.123   6.764 -0.1524 -0.0511 -0.1073
   35bbb     H9 1000  12.210   2.129   6.840 -1.8358  1.0750  1.6199
   35bbb    H10 1001  12.073   2.213   6.785 -0.4368 -0.4358  0.8113
   35bbb     C6 1002  11.923   2.117   7.152 -0.3313 -0.8021  0.7245
   35bbb    H11 1003  11.836   2.055   7.177 -0.7305 -1.3783 -1.7433
   35bbb    H12 1004  11.887   2.200   7.090 -0.9443 -1.3179  0.3738
   35bbb     C7 1005  11.695   1.724   6.877 -0.6152  0.0014 -0.1296
   35bbb    H13 1006  11.758   1.637   6.897 -3.5558 -2.6228 -1.3692
   35bbb    H14 1007  11.626   1.702   6.794  0.4379  0.6498 -1.1976
   35bbb     C8 1008  11.990   2.180   7.276 -0.2021  0.9845 -0.1361
   35bbb    H15 1009  11.920   2.230   7.344  1.8231 -1.0492  3.7516
   35bbb    H16 1010  12.058   2.261   7.244 -1.2512  1.8308 -0.2799
   35bbb     C9 1011  12.181   2.107   6.618 -0.6492  0.0386 -0.2360
   35bbb    H17 1012  12.252   2.024   6.619 -1.9461 -1.1378  1.6366
   35bbb    H18 1013  12.246   2.190   6.590 -1.4921  0.9727  0.4831
   35bbb     O1 1014  11.633   1.750   7.008 -0.2186 -0.0340 -0.1540
   36bbb     N1 1015  11.950   1.286   7.122 -0.4488 -0.0069 -0.2550
   36bbb     C1 1016  12.005   1.159   7.172  0.1987  0.5893 -0.1692
   36bbb     H1 1017  12.113   1.167   7.187  0.3111 -1.5927  0.5260
   36bbb     H2 1018  11.979   1.073   7.108  0.0641  0.2179  0.3781
   36bbb     C2 1019  11.995   1.402   7.209  0.0937  1.3231  0.0350
   36bbb     H3 1020  12.105   1.394   7.217  0.4646  2.1756 -2.8813
   36bbb     H4 1021  11.941   1.392   7.303 -0.9101  1.5715 -0.4964
   36bbb     C3 1022  11.802   1.294   7.089  0.3972  0.0778 -1.1005
   36bbb     H5 1023  11.786   1.369   7.010 -2.1421  0.8567  0.0751
   36bbb     H6 1024  11.745   1.324   7.178  1.4905  0.1018 -0.3887
   36bbb     C4 1025  11.738   1.167   7.029 -0.1489  0.7053 -0.4167
   36bbb     H7 1026  11.737   1.078   7.093 -0.2494 -0.2144 -1.6509
   36bbb     H8 1027  11.795   1.126   6.944 -0.2549  2.6499 -1.4836
   36bbb     C5 1028  11.944   1.122   7.308 -0.3517  0.6147  0.1298
   36bbb     H9 1029  11.834   1.119   7.306 -0.4386  1.0271  2.1667
   36bbb    H10 1030  11.967   1.197   7.384  0.4779 -0.6287  1.1421
   36bbb     C6 1031  11.965   1.544   7.151 -0.1367  0.1738 -0.7385
   36bbb    H11 1032  11.858   1.552   7.128  0.2523 -1.6791 -3.7037
   36bbb    H12 1033  12.018   1.553   7.055 -1.5850  2.1105 -1.4367
   36bbb     C7 1034  11.599   1.205   6.985  0.8669 -0.0006  0.1883
   36bbb    H13 1035  11.564   1.160   6.891  2.1748 -0.5256 -0.0711
   36bbb    H14 1036  11.597   1.309   6.951 -1.7710 -0.2655 -0.6821
   36bbb     C8 1037  12.009   1.666   7.240 -0.3348  0.1005 -0.1835
   36bbb    H15 1038  11.963   1.751   7.188 -0.5829  0.5384  0.7417
   36bbb    H16 1039  12.117   1.683   7.242 -0.2665 -0.3911  0.7525
   36bbb     C9 1040  11.996   0.985   7.363 -0.1352 -0.0505  0.4807
   36bbb    H17 1041  11.980   0.976   7.471 -2.6106 -1.4315  0.0497
   36bbb    H18 1042  11.954   0.897   7.314 -0.6846  0.6491 -0.3531
   36bbb     O1 1043  11.500   1.200   7.093 -0.2492  0.0543  0.2786
   37bbb     N1 1044  11.296   2.507   8.443  0.1182  0.0913  0.0906
   37bbb     C1 1045  11.208   2.557   8.549  0.4377  0.9786  0.3433
   37bbb     H1 1046  11.130   2.483   8.571  2.4511 -1.8228 -1.3263
   37bbb     H2 1047  11.154   2.648   8.519 -2.2420 -0.1242  1.5307
   37bbb     C2 1048  11.405   2.597   8.409  0.4105 -0.2899 -0.7361
   37bbb     H3 1049  11.468   2.551   8.332  0.5168 -3.0072  0.8493
   37bbb     H4 1050  11.468   2.610   8.498 -0.4870  0.3909 -0.1865
   37bbb     C3 1051  11.334   2.367   8.474 -0.4830  0.9595  0.3529
   37bbb     H5 1052  11.247   2.311   8.511 -0.4854  0.5797 -0.2200
   37bbb     H6 1053  11.413   2.359   8.550  1.8814  2.4094 -1.8038
   37bbb     C4 1054  11.398   2.289   8.354 -0.3109 -0.6221 -0.2583
   37bbb     H7 1055  11.414   2.187   8.390 -1.7711 -1.1764 -1.1038
   37bbb     H8 1056  11.496   2.329   8.323  0.7117 -2.4527  0.4676
   37bbb     C5 1057  11.274   2.567   8.684  0.8085  0.6926 -0.2883
   37bbb     H9 1058  11.384   2.561   8.687  0.8518  1.5418  0.4395
   37bbb    H10 1059  11.243   2.475   8.734  1.5858  0.4419 -0.2554
   37bbb     C6 1060  11.362   2.739   8.370 -0.4050 -0.6154  0.4294
   37bbb    H11 1061  11.305   2.796   8.445 -2.4581  1.0760 -2.2541
   37bbb    H12 1062  11.284   2.719   8.296  0.3659 -3.0220  0.1863
   37bbb     C7 1063  11.320   2.286   8.215  0.4069  0.0137 -0.1129
   37bbb    H13 1064  11.372   2.226   8.140 -1.0449 -0.6662 -0.6273
   37bbb    H14 1065  11.311   2.388   8.176  0.2170 -0.0190 -0.1543
   37bbb     C8 1066  11.476   2.828   8.313 -0.0772  0.0894 -0.9945
   37bbb    H15 1067  11.556   2.830   8.388  0.0095  2.1429 -1.0983
   37bbb    H16 1068  11.450   2.933   8.298  1.0086  0.5372  0.0809
   37bbb     C9 1069  11.224   2.673   8.778  0.0019 -0.3488  0.4927
   37bbb    H17 1070  11.121   2.647   8.805 -0.4104  1.9472  1.4015
   37bbb    H18 1071  11.225   2.759   8.709 -2.2940 -0.6626 -0.0150
   37bbb     O1 1072  11.184   2.237   8.224  0.1948 -0.0734 -0.2692
   38bbb     N1 1073  10.602   1.896   8.868 -0.1854 -0.2059 -0.3791
   38bbb     C1 1074  10.747   1.917   8.905  0.2399 -0.2432 -0.5827
   38bbb     H1 1075  10.739   1.921   9.014 -2.1414  1.7036 -0.7337
   38bbb     H2 1076  10.783   2.015   8.870 -0.4742 -0.5192 -2.1848
   38bbb     C2 1077  10.525   1.804   8.959 -0.1413 -0.8526 -0.1734
   38bbb     H3 1078  10.556   1.828   9.062 -1.5881 -0.3775  0.1899
   38bbb     H4 1079  10.553   1.699   8.947  2.0244 -0.8325  3.2001
   38bbb     C3 1080  10.583   1.867   8.727  0.5163  0.1397 -0.1436
   38bbb     H5 1081  10.474   1.867   8.714  0.3379  2.8238  0.8341
   38bbb     H6 1082  10.632   1.773   8.700  1.0011  0.3806 -0.0997
   38bbb     C4 1083  10.632   1.980   8.628  1.2382 -0.0784  0.0170
   38bbb     H7 1084  10.741   1.970   8.617  1.3950  1.7908 -0.3910
   38bbb     H8 1085  10.629   2.076   8.680 -0.6057 -0.6358  1.0211
   38bbb     C5 1086  10.855   1.815   8.864  0.5915  0.4068  0.6405
   38bbb     H9 1087  10.949   1.857   8.899  0.3040  1.3646  0.2988
   38bbb    H10 1088  10.872   1.805   8.756 -0.5838  0.3650  0.4380
   38bbb     C6 1089  10.371   1.819   8.961  0.4191  0.1596  0.0753
   38bbb    H11 1090  10.330   1.814   8.860 -1.5046 -0.0696  0.8177
   38bbb    H12 1091  10.328   1.915   8.992  0.8699 -0.0018  1.2662
   38bbb     C7 1092  10.570   1.986   8.490 -0.4157 -0.5656  0.2618
   38bbb    H13 1093  10.461   1.986   8.507 -0.4130 -2.5572  0.5506
   38bbb    H14 1094  10.598   1.892   8.442 -1.5556 -0.9429  0.2944
   38bbb     C8 1095  10.300   1.715   9.058 -0.5797 -0.1208 -0.2154
   38bbb    H15 1096  10.192   1.727   9.045 -0.7403  1.8641  2.2081
   38bbb    H16 1097  10.320   1.743   9.162 -0.1362 -0.0761 -0.3091
   38bbb     C9 1098  10.818   1.676   8.911 -0.4478  0.6527  0.1168
   38bbb    H17 1099  10.731   1.639   8.856  0.3803  0.2477 -0.9672
   38bbb    H18 1100  10.788   1.695   9.014 -0.5143  1.4975 -0.0514
   38bbb     O1 1101  10.621   2.095   8.411 -0.3329  0.2221 -0.1612
   39bbb     N1 1102   9.465  -0.177   5.944  0.2344 -0.2915 -0.9169
   39bbb     C1 1103   9.409  -0.039   5.981  0.4047  0.7078  0.4321
   39bbb     H1 1104   9.475   0.043   5.948  1.5190 -0.5137 -0.4744
   39bbb     H2 1105   9.394  -0.031   6.089 -2.2725 -1.7661  0.3425
   39bbb     C2 1106   9.385  -0.283   6.008  0.4823  0.2700 -0.1565
   39bbb     H3 1107   9.278  -0.277   5.988 -0.1634  0.1531  2.8000
   39bbb     H4 1108   9.385  -0.264   6.116 -0.3632 -1.0898  0.1032
   39bbb     C3 1109   9.477  -0.200   5.799 -0.4074 -0.0973  0.0088
   39bbb     H5 1110   9.390  -0.239   5.746 -0.6209 -0.5701  0.6875
   39bbb     H6 1111   9.555  -0.275   5.781  1.2521  1.1273  1.6163
   39bbb     C4 1112   9.520  -0.079   5.707 -0.2660 -0.3109 -0.7394
   39bbb     H7 1113   9.462   0.013   5.722  1.5714  1.1220 -1.9059
   39bbb     H8 1114   9.506  -0.099   5.600  2.4234  0.6131 -1.3556
   39bbb     C5 1115   9.264  -0.012   5.929 -0.1039 -0.6446 -0.1937
   39bbb     H9 1116   9.195  -0.086   5.973 -2.3264 -0.0805 -2.5045
   39bbb    H10 1117   9.254  -0.042   5.824 -0.7800 -1.2357  0.0292
   39bbb     C6 1118   9.447  -0.428   5.994  0.0956  0.2181 -0.4067
   39bbb    H11 1119   9.556  -0.417   5.984  0.1068 -0.1426 -0.7128
   39bbb    H12 1120   9.414  -0.475   5.900 -0.1500  0.3877 -0.4057
   39bbb     C7 1121   9.668  -0.035   5.740  0.2607  0.9796  0.6878
   39bbb    H13 1122   9.673  -0.022   5.849  0.4031  1.7948  0.5875
   39bbb    H14 1123   9.695   0.060   5.693 -0.3808  2.1670  2.6202
   39bbb     C8 1124   9.401  -0.531   6.101  0.1090 -0.4753  0.0619
   39bbb    H15 1125   9.293  -0.533   6.085  0.1500  0.0322 -0.2917
   39bbb    H16 1126   9.422  -0.499   6.204 -1.7854 -0.2507  0.3995
   39bbb     C9 1127   9.201   0.132   5.968 -0.6114  0.5928  0.4250
   39bbb    H17 1128   9.108   0.153   5.914 -0.6176  0.9413  0.5678
   39bbb    H18 1129   9.267   0.209   5.926 -0.9637  0.7317  0.1215
   39bbb     O1 1130   9.765  -0.135   5.694  0.4629  0.8228 -0.1773
   40bbb     N1 1131  10.954   0.180   5.689  0.1781  0.4136 -0.3439
   40bbb     C1 1132  10.927   0.315   5.735 -0.2991 -0.2517 -0.9302
   40bbb     H1 1133  10.828   0.343   5.696 -0.9664 -1.5326 -0.2165
   40bbb     H2 1134  11.002   0.379   5.688  1.9927 -1.1329  1.3125
   40bbb     C2 1135  10.973   0.178   5.548  0.9284 -0.1513 -0.2392
   40bbb     H3 1136  10.891   0.237   5.504  0.3626 -0.9252 -0.2472
   40bbb     H4 1137  10.962   0.075   5.512  0.2578 -0.4432  0.7832
   40bbb     C3 1138  10.850   0.087   5.731 -0.2963  0.3180 -0.5164
   40bbb     H5 1139  10.758   0.106   5.675 -2.3955 -0.6103  2.3435
   40bbb     H6 1140  10.830   0.104   5.838  1.4371  0.0118 -0.1137
   40bbb     C4 1141  10.888  -0.058   5.713 -0.0244 -1.2513 -0.0065
   40bbb     H7 1142  10.996  -0.072   5.730 -0.1119 -2.3171 -0.2924
   40bbb     H8 1143  10.871  -0.080   5.607  0.7937  1.4956 -0.7851
   40bbb     C5 1144  10.929   0.340   5.892 -0.4845  0.3328 -0.1395
   40bbb     H9 1145  11.023   0.306   5.937 -1.0339 -1.4568 -0.2373
   40bbb    H10 1146  10.861   0.272   5.945  0.1211 -2.4972 -2.6973
   40bbb     C6 1147  11.101   0.234   5.491  0.4736 -0.1743 -0.3620
   40bbb    H11 1148  11.173   0.163   5.533  1.2136 -0.3955 -1.9229
   40bbb    H12 1149  11.125   0.338   5.515 -0.7322 -0.0157  0.2227
   40bbb     C7 1150  10.807  -0.154   5.801  0.8685 -0.0568  0.7622
   40bbb    H13 1151  10.817  -0.124   5.906  0.9429 -1.7541  1.2603
   40bbb    H14 1152  10.847  -0.255   5.789 -0.1930 -0.3000 -1.1206
   40bbb     C8 1153  11.105   0.223   5.336 -1.0338  0.1607 -0.5831
   40bbb    H15 1154  11.036   0.297   5.294 -0.7296  0.8344  0.0860
   40bbb    H16 1155  11.074   0.120   5.312  1.7677 -0.6700 -1.0931
   40bbb     C9 1156  10.891   0.488   5.923  0.7103  0.1319  0.9965
   40bbb    H17 1157  10.946   0.526   6.010  0.8205  0.0324  0.9703
   40bbb    H18 1158  10.784   0.500   5.945  0.2499 -1.3006 -0.2608
   40bbb     O1 1159  10.669  -0.133   5.769  0.4008  0.0451  0.1331
   41bbb     N1 1160   9.106   0.575   5.082 -0.7373 -0.4431  0.5640
   41bbb     C1 1161   9.202   0.662   5.010 -0.3235  0.0810 -1.1433
   41bbb     H1 1162   9.296   0.685   5.061 -1.5900  2.3840  0.2856
   41bbb     H2 1163   9.150   0.758   5.014 -0.9264 -0.2573 -0.6825
   41bbb     C2 1164   9.153   0.439   5.100 -0.4241  1.0743  0.4368
   41bbb     H3 1165   9.194   0.394   5.008 -1.5459 -2.1810  1.3691
   41bbb     H4 1166   9.070   0.374   5.132  0.6458 -0.8020 -0.3865
   41bbb     C3 1167   9.078   0.644   5.210  0.6747  0.5048  0.6348
   41bbb     H5 1168   9.032   0.740   5.183 -1.4933 -1.0867 -1.8750
   41bbb     H6 1169   9.167   0.662   5.271  1.4236  1.9103 -0.7882
   41bbb     C4 1170   8.981   0.563   5.291 -0.2918  0.0643 -0.4101
   41bbb     H7 1171   9.023   0.475   5.342  0.2933  0.5035 -0.1289
   41bbb     H8 1172   8.896   0.526   5.232 -1.0267 -0.6008  1.0162
   41bbb     C5 1173   9.247   0.631   4.863 -0.1090 -0.0198 -0.6069
   41bbb     H9 1174   9.315   0.545   4.861  1.5962  1.2552 -0.1345
   41bbb    H10 1175   9.308   0.716   4.830  0.4130 -0.0366  0.2995
   41bbb     C6 1176   9.269   0.434   5.198 -0.2157 -0.4247 -0.4759
   41bbb    H11 1177   9.242   0.471   5.298  0.9749 -0.8381  0.0181
   41bbb    H12 1178   9.359   0.486   5.163  0.9996 -2.8048 -1.1409
   41bbb     C7 1179   8.918   0.636   5.408 -0.3174 -0.2713  0.5354
   41bbb    H13 1180   8.855   0.572   5.471 -1.1223 -0.0899 -0.0799
   41bbb    H14 1181   8.859   0.717   5.365  1.6761  1.6635  1.2772
   41bbb     C8 1182   9.314   0.288   5.220  0.3119  0.1998  0.5101
   41bbb    H15 1183   9.249   0.217   5.273  1.5660 -0.7622  0.8169
   41bbb    H16 1184   9.402   0.278   5.285 -0.5975 -1.3545  1.5721
   41bbb     C9 1185   9.124   0.618   4.762 -0.0507 -0.2634  0.4005
   41bbb    H17 1186   9.077   0.715   4.746 -1.4111 -1.2989 -2.5323
   41bbb    H18 1187   9.046   0.552   4.802  0.6167 -1.5020 -0.2767
   41bbb     O1 1188   9.024   0.693   5.485  0.4957 -0.4596  0.2443
   42bbb     N1 1189   9.943   1.032   5.352  0.2653 -0.0598  0.0925
   42bbb     C1 1190  10.044   0.931   5.368 -0.2144  0.8840 -0.0070
   42bbb     H1 1191  10.069   0.875   5.278 -1.7750 -1.3565  0.8512
   42bbb     H2 1192  10.004   0.850   5.431 -1.0244 -0.5190 -2.2033
   42bbb     C2 1193   9.979   1.134   5.242 -0.0298  0.1265  0.4212
   42bbb     H3 1194  10.087   1.156   5.246  0.3073 -1.2844 -0.2793
   42bbb     H4 1195   9.929   1.231   5.252  0.2789  0.1517  1.9630
   42bbb     C3 1196   9.812   0.977   5.355  0.2506  0.3902 -1.0311
   42bbb     H5 1197   9.802   0.928   5.452 -0.6109 -0.2548 -1.4292
   42bbb     H6 1198   9.797   0.899   5.278  0.3424  0.1021 -0.7611
   42bbb     C4 1199   9.706   1.087   5.347  0.9695  0.1223 -1.2367
   42bbb     H7 1200   9.612   1.033   5.332  1.6488 -1.6436  0.4239
   42bbb     H8 1201   9.719   1.148   5.256  0.2305  1.3299 -0.5621
   42bbb     C5 1202  10.173   0.977   5.430  0.1915  0.3374  0.0407
   42bbb     H9 1203  10.149   1.039   5.518 -3.0884  0.9931 -1.2109
   42bbb    H10 1204  10.227   1.038   5.357  0.9217 -2.0200 -1.4927
   42bbb     C6 1205   9.961   1.072   5.101  0.2484  0.4198 -0.0280
   42bbb    H11 1206   9.853   1.057   5.083  0.3250  1.1362 -1.2032
   42bbb    H12 1207  10.016   0.978   5.102 -0.5997 -0.1079 -0.7732
   42bbb     C7 1208   9.685   1.173   5.475  0.5718 -0.4871 -0.5390
   42bbb    H13 1209   9.624   1.258   5.440 -0.6418 -1.8993 -2.0204
   42bbb    H14 1210   9.774   1.212   5.526 -1.0013  1.0211  1.2194
   42bbb     C8 1211  10.013   1.161   4.984 -0.1695  0.5521 -0.3363
   42bbb    H15 1212  10.036   1.096   4.899 -0.0367 -1.9570  1.5265
   42bbb    H16 1213  10.110   1.209   5.005  0.2923 -0.0870 -0.9626
   42bbb     C9 1214  10.275   0.864   5.451 -0.3210 -0.5180  0.0918
   42bbb    H17 1215  10.227   0.773   5.489 -0.3332 -0.5974 -0.1111
   42bbb    H18 1216  10.356   0.902   5.515  0.7265 -0.7342 -1.0795
   42bbb     O1 1217   9.619   1.092   5.569  0.3453  0.4334  0.2567
   43bbb     N1 1218   9.035   0.956   7.641  0.2340 -0.3718 -0.0059
   43bbb     C1 1219   9.162   0.901   7.577 -0.5551  0.0505 -0.3834
   43bbb     H1 1220   9.229   0.988   7.584 -0.1934 -0.3502  2.4080
   43bbb     H2 1221   9.145   0.872   7.473  2.9165 -0.3923 -0.9221
   43bbb     C2 1222   9.057   0.999   7.788  0.0758 -0.4947 -0.0892
   43bbb     H3 1223   9.095   0.916   7.849 -2.7405 -2.4808 -0.8522
   43bbb     H4 1224   8.960   1.029   7.829 -0.4002 -0.2977 -1.3223
   43bbb     C3 1225   8.956   1.053   7.551  0.4168  0.3107  0.0169
   43bbb     H5 1226   8.947   1.013   7.449 -1.2852 -1.8478  0.9188
   43bbb     H6 1227   9.016   1.144   7.539 -0.7139  1.3505  1.8496
   43bbb     C4 1228   8.815   1.111   7.602 -0.7195 -0.4561  0.0499
   43bbb     H7 1229   8.787   1.169   7.513  0.1547  1.0749  0.7334
   43bbb     H8 1230   8.817   1.191   7.676  2.0506 -0.5968  0.2369
   43bbb     C5 1231   9.232   0.784   7.632  0.2731  0.5541 -0.1723
   43bbb     H9 1232   9.183   0.691   7.601  2.0850 -0.4870 -0.0605
   43bbb    H10 1233   9.243   0.781   7.741 -4.0910  0.9394  0.4341
   43bbb     C6 1234   9.153   1.120   7.806  0.6018  0.0485 -0.3054
   43bbb    H11 1235   9.140   1.194   7.726 -0.2394 -1.8036 -1.9649
   43bbb    H12 1236   9.255   1.080   7.796  0.1925 -1.1406  0.1416
   43bbb     C7 1237   8.706   1.013   7.643 -0.7870 -0.5609  0.1091
   43bbb    H13 1238   8.731   0.966   7.739  1.2465 -1.0009 -0.5705
   43bbb    H14 1239   8.702   0.939   7.562 -4.5852  2.0910 -2.4858
   43bbb     C8 1240   9.146   1.184   7.945 -0.4993  0.2989 -0.1568
   43bbb    H15 1241   9.039   1.204   7.958 -0.2034  0.2232  3.2024
   43bbb    H16 1242   9.194   1.281   7.958  0.6130 -0.3817  0.9039
   43bbb     C9 1243   9.373   0.781   7.560  0.0152  0.1772 -0.1454
   43bbb    H17 1244   9.355   0.793   7.452 -0.8512 -2.0520 -0.2819
   43bbb    H18 1245   9.419   0.683   7.574 -1.4100 -0.3164  1.3893
   43bbb     O1 1246   8.581   1.076   7.643  0.3885  0.0449  0.3048
   44bbb     N1 1247   7.831   0.641   6.771 -0.3504 -0.3246  0.7066
   44bbb     C1 1248   7.778   0.512   6.829 -0.0551  0.7456 -0.4111
   44bbb     H1 1249   7.669   0.521   6.832  0.0640  2.1173  0.8698
   44bbb     H2 1250   7.822   0.501   6.929 -0.4407  1.7662 -0.1260
   44bbb     C2 1251   7.755   0.678   6.645  0.4152 -0.1850  0.0178
   44bbb     H3 1252   7.755   0.592   6.577  4.5842 -0.7548  0.4986
   44bbb     H4 1253   7.823   0.742   6.587 -1.4876  0.8835 -1.1811
   44bbb     C3 1254   7.981   0.650   6.764  0.0961 -0.1635 -0.4370
   44bbb     H5 1255   8.010   0.754   6.742  5.5857 -1.1015  0.9467
   44bbb     H6 1256   8.024   0.598   6.678  0.8571 -0.8593  0.3452
   44bbb     C4 1257   8.057   0.626   6.893 -0.3644  0.1117 -0.7264
   44bbb     H7 1258   8.046   0.521   6.925  2.2658  0.1426  0.5708
   44bbb     H8 1259   8.013   0.692   6.967  4.4108  1.7693  1.0367
   44bbb     C5 1260   7.802   0.382   6.743  0.3371  0.3913 -0.3392
   44bbb     H9 1261   7.903   0.387   6.700  0.3345  1.5010 -0.2477
   44bbb    H10 1262   7.725   0.371   6.666  0.1852  1.9658 -0.4593
   44bbb     C6 1263   7.621   0.751   6.646 -0.3061  0.1179  0.9051
   44bbb    H11 1264   7.595   0.767   6.540 -3.6428 -0.6523  1.5031
   44bbb    H12 1265   7.632   0.855   6.678 -1.3909  0.6251 -0.2660
   44bbb     C7 1266   8.207   0.664   6.891  0.0631 -0.1200  0.0334
   44bbb    H13 1267   8.235   0.767   6.865  1.8019 -0.8724 -1.3619
   44bbb    H14 1268   8.254   0.605   6.810  1.4465  1.4387 -0.3672
   44bbb     C8 1269   7.507   0.684   6.722 -0.3670  0.2637 -0.5760
   44bbb    H15 1270   7.419   0.743   6.691 -0.6060 -0.3912 -1.1623
   44bbb    H16 1271   7.513   0.685   6.831  0.9558 -1.0638 -0.6149
   44bbb     C9 1272   7.803   0.259   6.832  0.0196 -0.6859  0.2365
   44bbb    H17 1273   7.710   0.252   6.890  0.6532 -1.5288  1.1910
   44bbb    H18 1274   7.818   0.168   6.772 -0.3266 -1.7320  1.6797
   44bbb     O1 1275   8.269   0.641   7.025  0.0316  0.3806 -0.1675
   45bbb     N1 1276   8.328   2.094   8.089  0.1360 -0.4138 -0.0071
   45bbb     C1 1277   8.420   2.172   8.180  0.6642 -0.4253  0.0396
   45bbb     H1 1278   8.431   2.118   8.274  2.7819 -2.1213 -1.1122
   45bbb     H2 1279   8.385   2.270   8.216 -1.5067 -1.0802 -0.1071
   45bbb     C2 1280   8.184   2.120   8.109 -0.2385 -0.1547 -0.3514
   45bbb     H3 1281   8.144   2.065   8.196 -0.2392  0.7797  0.2480
   45bbb     H4 1282   8.130   2.085   8.020  2.1145 -0.0011 -1.9343
   45bbb     C3 1283   8.365   1.948   8.079  0.2282  1.1334  0.2308
   45bbb     H5 1284   8.349   1.903   8.178  1.0657  1.0036  0.3146
   45bbb     H6 1285   8.473   1.930   8.076 -0.0675 -0.9485  0.5251
   45bbb     C4 1286   8.292   1.874   7.972  0.3289 -0.1413  0.6192
   45bbb     H7 1287   8.182   1.869   7.981  0.1363 -0.5079 -1.3889
   45bbb     H8 1288   8.318   1.769   7.983 -0.0533 -0.4799 -1.2796
   45bbb     C5 1289   8.567   2.190   8.128 -0.0318 -0.4272  0.1028
   45bbb     H9 1290   8.545   2.237   8.031 -0.5652  0.8148  0.8015
   45bbb    H10 1291   8.622   2.096   8.113  2.5860  1.1228 -0.6873
   45bbb     C6 1292   8.145   2.268   8.117  0.2948 -1.3204 -0.0637
   45bbb    H11 1293   8.187   2.306   8.211  1.7277 -0.0326 -1.1876
   45bbb    H12 1294   8.038   2.266   8.143  0.2043 -0.5425 -0.3501
   45bbb     C7 1295   8.340   1.929   7.839  0.3835  0.4707 -0.5334
   45bbb    H13 1296   8.449   1.934   7.829  0.4607 -0.4475 -0.2607
   45bbb    H14 1297   8.306   2.032   7.823 -0.5119 -0.1151 -2.7727
   45bbb     C8 1298   8.186   2.345   7.996 -0.1790 -0.3363  0.2508
   45bbb    H15 1299   8.121   2.310   7.915  0.2448  1.2050 -0.7996
   45bbb    H16 1300   8.290   2.316   7.980 -0.3779  0.1259 -2.4187
   45bbb     C9 1301   8.648   2.279   8.226 -0.4022  0.1302  0.2005
   45bbb    H17 1302   8.590   2.359   8.273 -2.1516 -1.5801  1.0918
   45bbb    H18 1303   8.721   2.332   8.164  0.0489  2.3552  2.4542
   45bbb     O1 1304   8.283   1.865   7.731 -0.2498 -0.0570  0.6606
   46bbb     N1 1305   8.715   1.724   8.322 -0.2401 -0.2884 -0.0096
   46bbb     C1 1306   8.855   1.740   8.375  0.0274  0.9056  0.2052
   46bbb     H1 1307   8.907   1.647   8.348 -0.8985  0.9876 -2.1142
   46bbb     H2 1308   8.852   1.743   8.485 -1.3631 -0.3531  0.2378
   46bbb     C2 1309   8.618   1.835   8.346 -0.1403 -0.0800  0.5262
   46bbb     H3 1310   8.511   1.810   8.337 -0.5377  1.2325  1.2804
   46bbb     H4 1311   8.629   1.915   8.272  2.9865 -0.6185  0.2917
   46bbb     C3 1312   8.715   1.673   8.189  0.2988 -0.1467  0.6862
   46bbb     H5 1313   8.797   1.601   8.183  0.8975  0.5041  0.9605
   46bbb     H6 1314   8.722   1.753   8.114  1.5777 -2.0483 -1.3376
   46bbb     C4 1315   8.581   1.616   8.146  0.6446 -0.1561  0.7398
   46bbb     H7 1316   8.495   1.680   8.172  0.3575 -0.2584  0.0655
   46bbb     H8 1317   8.561   1.522   8.199  3.7818 -0.0161  2.3696
   46bbb     C5 1318   8.936   1.851   8.314 -1.4350  0.0670 -0.0180
   46bbb     H9 1319   8.890   1.947   8.340 -0.3196  1.0226 -1.3858
   46bbb    H10 1320   8.932   1.840   8.205  2.0776 -1.5009 -0.1421
   46bbb     C6 1321   8.631   1.891   8.488  0.6321 -0.0926 -0.2606
   46bbb    H11 1322   8.721   1.952   8.501 -0.5859  1.4027  2.0407
   46bbb    H12 1323   8.643   1.813   8.564  0.2222  1.8849  1.9535
   46bbb     C7 1324   8.584   1.593   7.991  0.0391 -0.3431 -0.8343
   46bbb    H13 1325   8.632   1.677   7.938 -0.7816 -0.8326 -2.4160
   46bbb    H14 1326   8.482   1.607   7.951 -0.0456  0.1418 -0.4588
   46bbb     C8 1327   8.513   1.983   8.528 -0.7100 -0.0551  0.2407
   46bbb    H15 1328   8.512   2.075   8.468  1.6610 -0.3301 -0.3063
   46bbb    H16 1329   8.524   2.020   8.630  0.9576  1.4292 -0.4197
   46bbb     C9 1330   9.087   1.849   8.347 -0.2048  0.4674 -0.0094
   46bbb    H17 1331   9.138   1.934   8.301 -0.2652  0.6128  0.1918
   46bbb    H18 1332   9.123   1.749   8.319 -0.2322 -0.4263  2.7959
   46bbb     O1 1333   8.641   1.470   7.949 -0.2379 -0.6744 -0.0349
   47bbb     N1 1334  11.963   1.223   6.636  0.6662 -0.2474 -0.3310
   47bbb     C1 1335  12.000   1.356   6.591  0.1387 -0.2216 -0.0068
   47bbb     H1 1336  11.951   1.354   6.493  0.2401  0.3161 -0.0733
   47bbb     H2 1337  12.106   1.381   6.580 -0.3246  1.9011 -0.1396
   47bbb     C2 1338  12.023   1.106   6.570 -0.9679 -0.0706 -0.0771
   47bbb     H3 1339  11.984   1.095   6.468 -1.0545  0.2838 -0.0829
   47bbb     H4 1340  12.006   1.013   6.625  1.3596 -0.9030 -0.6191
   47bbb     C3 1341  11.825   1.199   6.662  0.0222 -0.4011  0.4470
   47bbb     H5 1342  11.781   1.279   6.722  1.6058  0.1658  0.8908
   47bbb     H6 1343  11.837   1.110   6.725  3.1374  0.1337  0.7689
   47bbb     C4 1344  11.732   1.193   6.536  0.4539 -0.5238 -0.2095
   47bbb     H7 1345  11.760   1.107   6.474 -0.5126  0.1734 -1.6811
   47bbb     H8 1346  11.744   1.279   6.469 -1.4938 -0.5267 -0.6224
   47bbb     C5 1347  11.942   1.473   6.674  0.1576  0.6122  0.1805
   47bbb     H9 1348  11.964   1.462   6.781 -0.8409  4.1889  0.9103
   47bbb    H10 1349  11.833   1.470   6.659  0.1459 -0.2783  0.4119
   47bbb     C6 1350  12.185   1.103   6.562  0.0920  0.0796  0.1029
   47bbb    H11 1351  12.222   1.079   6.663 -2.2882 -1.6148  0.6689
   47bbb    H12 1352  12.216   1.206   6.541 -1.9111  1.0352  1.4938
   47bbb     C7 1353  11.587   1.182   6.580  0.7985 -0.6901 -0.0147
   47bbb    H13 1354  11.576   1.111   6.663 -1.9502 -0.0762  0.2391
   47bbb    H14 1355  11.539   1.138   6.491  2.3449 -0.5325 -0.9735
   47bbb     C8 1356  12.229   1.008   6.446 -0.1439 -0.4592  0.8651
   47bbb    H15 1357  12.217   0.903   6.474 -2.2567 -0.3263  0.6565
   47bbb    H16 1358  12.337   1.025   6.439 -0.4026  0.9829 -0.3440
   47bbb     C9 1359  11.995   1.610   6.632 -0.3988 -0.7092  0.3018
   47bbb    H17 1360  12.103   1.615   6.650 -0.5174 -1.4109  1.2727
   47bbb    H18 1361  11.956   1.685   6.702 -3.9023  0.5287 -2.6124
   47bbb     O1 1362  11.533   1.312   6.617  0.0097  0.3781  0.4178
   48bbb     N1 1363  11.811   1.140   6.033  0.3183  0.0931 -0.6421
   48bbb     C1 1364  11.904   1.172   6.149  0.0305  0.0869  0.7235
   48bbb     H1 1365  12.003   1.128   6.138  0.4285  0.7721  1.4401
   48bbb     H2 1366  11.858   1.137   6.243  0.3630  1.2898  1.3577
   48bbb     C2 1367  11.876   1.173   5.907 -0.0273 -0.9994  0.2304
   48bbb     H3 1368  11.896   1.281   5.900 -2.5456 -0.2751  2.3725
   48bbb     H4 1369  11.806   1.156   5.823 -3.0269  2.0361  1.8378
   48bbb     C3 1370  11.670   1.185   6.042 -0.5416 -1.0904 -0.0415
   48bbb     H5 1371  11.617   1.141   5.956 -1.4289  1.1372 -0.6938
   48bbb     H6 1372  11.652   1.293   6.034 -1.3358 -1.1441  0.9530
   48bbb     C4 1373  11.597   1.130   6.161 -0.1669 -0.1849  0.2465
   48bbb     H7 1374  11.640   1.172   6.253 -0.7005  1.6132 -0.2761
   48bbb     H8 1375  11.614   1.022   6.154  3.5316  0.3444 -0.8565
   48bbb     C5 1376  11.923   1.316   6.179  0.0591 -0.1125  0.4174
   48bbb     H9 1377  11.842   1.350   6.245  0.9698  3.0773  0.1028
   48bbb    H10 1378  11.912   1.380   6.091  1.1212  0.9615  1.0186
   48bbb     C6 1379  12.008   1.109   5.884  0.1416  0.3895  0.4128
   48bbb    H11 1380  12.085   1.144   5.954  2.6464 -2.2810 -0.8411
   48bbb    H12 1381  12.053   1.132   5.787  1.7184  1.9376  1.4468
   48bbb     C7 1382  11.445   1.168   6.161  0.2750 -0.2443 -0.2212
   48bbb    H13 1383  11.391   1.122   6.244 -1.9307 -0.0601 -1.4876
   48bbb    H14 1384  11.392   1.135   6.070 -0.4813 -0.3012  0.2337
   48bbb     C8 1385  11.995   0.953   5.903  0.0186 -0.3253 -0.2360
   48bbb    H15 1386  11.914   0.909   5.845  0.9413 -2.1143 -0.2557
   48bbb    H16 1387  11.979   0.939   6.011 -0.0048  2.6324  0.2185
   48bbb     C9 1388  12.060   1.356   6.245 -0.0131 -0.2659 -0.2667
   48bbb    H17 1389  12.094   1.286   6.321 -0.9437  0.6602  1.0561
   48bbb    H18 1390  12.040   1.451   6.297 -0.3727 -0.8406  0.6599
   48bbb     O1 1391  11.426   1.308   6.155 -0.4053 -0.7592  0.2764
   49bbb     N1 1392  11.649   0.944   7.765  0.5388  0.3850 -0.5557
   49bbb     C1 1393  11.560   0.957   7.653 -0.2460 -0.5100  0.0454
   49bbb     H1 1394  11.490   1.034   7.688 -0.0412  0.2729 -1.1872
   49bbb     H2 1395  11.498   0.867   7.640 -0.4296 -0.2173 -1.3037
   49bbb     C2 1396  11.674   1.074   7.825  1.0581  0.4782  0.2460
   49bbb     H3 1397  11.581   1.127   7.849 -0.1640 -0.2203 -2.5774
   49bbb     H4 1398  11.723   1.142   7.755 -0.8118  0.9513 -0.6498
   49bbb     C3 1399  11.751   0.833   7.759 -0.2222 -0.0476  0.1000
   49bbb     H5 1400  11.789   0.822   7.861  0.2729  0.1089 -0.0640
   49bbb     H6 1401  11.834   0.872   7.699  0.0170  2.6509  2.0338
   49bbb     C4 1402  11.698   0.699   7.707  0.7548 -0.1445  0.1961
   49bbb     H7 1403  11.660   0.723   7.607 -0.5101  1.1477  0.9453
   49bbb     H8 1404  11.611   0.669   7.766 -1.0750  4.0063  0.0078
   49bbb     C5 1405  11.632   1.003   7.521  0.1866  0.2849  0.2534
   49bbb     H9 1406  11.704   0.926   7.492  0.7145  0.3062  1.4302
   49bbb    H10 1407  11.683   1.097   7.543  2.8040 -1.1716  0.7879
   49bbb     C6 1408  11.759   1.077   7.957 -0.3863  0.7091  0.0315
   49bbb    H11 1409  11.770   1.180   7.993 -2.0377  1.2281 -0.8387
   49bbb    H12 1410  11.861   1.050   7.930  0.0499  1.5401  0.8025
   49bbb     C7 1411  11.806   0.590   7.691  0.2355  0.3681 -0.2978
   49bbb    H13 1412  11.843   0.563   7.790  1.4962  1.2788 -0.4864
   49bbb    H14 1413  11.888   0.639   7.637  0.3362  0.1985 -0.2984
   49bbb     C8 1414  11.708   0.982   8.065  0.1471  0.2112 -0.7778
   49bbb    H15 1415  11.769   0.983   8.156 -1.0864 -0.6611  0.0810
   49bbb    H16 1416  11.692   0.879   8.028  1.6001 -0.1070 -0.5751
   49bbb     C9 1417  11.531   1.030   7.407 -0.0124  0.0686  0.1920
   49bbb    H17 1418  11.592   1.081   7.332  1.6237 -1.5862  0.2993
   49bbb    H18 1419  11.440   1.079   7.444 -1.5346 -3.8584  2.3447
   49bbb     O1 1420  11.767   0.472   7.612 -0.1191  0.6036  0.0736
   50bbb     N1 1421  12.519   0.313   7.012  0.4341 -0.9620  0.1753
   50bbb     C1 1422  12.528   0.240   7.143  0.5200 -0.0273  0.4803
   50bbb     H1 1423  12.630   0.209   7.169  0.8041  2.3957  2.6825
   50bbb     H2 1424  12.462   0.152   7.136  1.4502 -0.6657 -0.6638
   50bbb     C2 1425  12.618   0.269   6.908  0.3133 -0.3703 -0.4085
   50bbb     H3 1426  12.619   0.162   6.883  0.4629 -0.1913 -1.1959
   50bbb     H4 1427  12.719   0.288   6.947  0.8270  0.6769 -2.1520
   50bbb     C3 1428  12.383   0.344   6.968  0.1775 -0.5868  0.5022
   50bbb     H5 1429  12.369   0.406   6.878  0.3336 -0.0312  0.8555
   50bbb     H6 1430  12.325   0.394   7.047  2.1833  0.2731  1.4910
   50bbb     C4 1431  12.306   0.212   6.925 -0.0531 -0.5961  0.2369
   50bbb     H7 1432  12.297   0.145   7.011  0.7124 -2.4430 -1.0617
   50bbb     H8 1433  12.360   0.149   6.852  0.1448  0.5254 -0.6228
   50bbb     C5 1434  12.481   0.315   7.275 -0.1432 -0.1692  0.0986
   50bbb     H9 1435  12.374   0.337   7.267 -0.1140 -0.2977 -0.7072
   50bbb    H10 1436  12.518   0.418   7.280  0.2950 -0.2157 -1.5619
   50bbb     C6 1437  12.614   0.366   6.784  0.3208  0.8876 -0.1627
   50bbb    H11 1438  12.597   0.470   6.814  1.0396  0.4237  2.0275
   50bbb    H12 1439  12.530   0.345   6.717 -0.0664  0.8856  0.3221
   50bbb     C7 1440  12.164   0.238   6.880  0.2246  0.4381  0.2286
   50bbb    H13 1441  12.124   0.137   6.861  0.0181  0.4652  0.5187
   50bbb    H14 1442  12.179   0.292   6.786  4.1300 -0.7531 -0.0410
   50bbb     C8 1443  12.756   0.365   6.713 -0.3742 -0.3305 -0.2661
   50bbb    H15 1444  12.805   0.268   6.703  1.8423  0.4881  1.5402
   50bbb    H16 1445  12.831   0.407   6.782  0.2593 -2.7928  0.6401
   50bbb     C9 1446  12.502   0.238   7.413  0.5308  0.5910  0.5384
   50bbb    H17 1447  12.457   0.139   7.401  0.2624  0.8181 -0.3658
   50bbb    H18 1448  12.433   0.287   7.484 -0.3537 -0.9721  0.7964
   50bbb     O1 1449  12.083   0.302   6.981 -0.0080 -0.5692 -0.3806
   51bbb     N1 1450  11.151   3.590   5.863 -0.2287 -0.1798 -0.2459
   51bbb     C1 1451  11.176   3.659   5.734 -0.0503  0.0343 -0.7727
   51bbb     H1 1452  11.284   3.680   5.738 -0.2675  1.8075 -2.4266
   51bbb     H2 1453  11.126   3.757   5.730  2.2898  1.3338 -0.4500
   51bbb     C2 1454  11.016   3.534   5.890 -0.0161  0.5426  0.2679
   51bbb     H3 1455  11.011   3.499   5.994  1.9841  1.3058  0.6839
   51bbb     H4 1456  10.988   3.450   5.826 -1.1844  1.2887 -0.2203
   51bbb     C3 1457  11.206   3.664   5.981  0.1527  0.1087 -0.6261
   51bbb     H5 1458  11.132   3.717   6.042  0.0703 -0.4914 -0.1990
   51bbb     H6 1459  11.260   3.751   5.941  0.5940 -0.3262 -0.9982
   51bbb     C4 1460  11.295   3.578   6.076 -0.2505 -0.1904 -0.1223
   51bbb     H7 1461  11.309   3.645   6.161 -0.7330  1.4015 -1.2580
   51bbb     H8 1462  11.397   3.569   6.037 -0.0877  1.1516 -0.0506
   51bbb     C5 1463  11.138   3.582   5.604  0.0351 -0.1152  0.1075
   51bbb     H9 1464  11.052   3.638   5.566 -0.0238 -0.8863 -0.9136
   51bbb    H10 1465  11.102   3.481   5.628 -0.3547 -0.3809 -1.5141
   51bbb     C6 1466  10.894   3.637   5.885 -0.0275 -0.6202  0.2825
   51bbb    H11 1467  10.917   3.725   5.946 -2.9454  0.8439 -0.5555
   51bbb    H12 1468  10.810   3.584   5.930 -1.9855 -0.0608 -2.4838
   51bbb     C7 1469  11.241   3.443   6.124  0.4698 -0.6678 -0.2580
   51bbb    H13 1470  11.216   3.385   6.034  0.7350  0.4585 -1.0840
   51bbb    H14 1471  11.149   3.465   6.179  2.6125  0.9203  2.9948
   51bbb     C8 1472  10.838   3.682   5.744  0.3072  0.4448  0.2263
   51bbb    H15 1473  10.912   3.739   5.686 -0.9598 -0.4513 -2.4723
   51bbb    H16 1474  10.747   3.741   5.758  0.7573  0.7966  1.9186
   51bbb     C9 1475  11.254   3.590   5.500  0.3679  0.2576 -1.0604
   51bbb    H17 1476  11.323   3.507   5.522  1.0960  0.5951 -1.9868
   51bbb    H18 1477  11.309   3.686   5.502 -0.0444  0.4844 -0.3418
   51bbb     O1 1478  11.341   3.374   6.206 -0.1155 -0.1757  0.3363
   52bbb     N1 1479  11.102   2.435   6.379 -0.0986  0.5417 -0.2826
   52bbb     C1 1480  11.003   2.323   6.400 -0.0168  0.2233  0.2981
   52bbb     H1 1481  10.941   2.350   6.486 -1.7985 -0.4169 -0.7372
   52bbb     H2 1482  11.050   2.228   6.426  0.8857  0.7088  0.4905
   52bbb     C2 1483  11.033   2.567   6.372  0.4284  1.2752  0.3214
   52bbb     H3 1484  11.001   2.588   6.474  1.7577  1.1747  0.7847
   52bbb     H4 1485  10.946   2.558   6.305  1.9220  1.2452 -1.7166
   52bbb     C3 1486  11.220   2.425   6.465  0.6067 -0.4184 -0.1905
   52bbb     H5 1487  11.295   2.498   6.431 -0.0912  0.3408 -0.1447
   52bbb     H6 1488  11.263   2.327   6.444 -0.5723 -0.6401 -1.7523
   52bbb     C4 1489  11.189   2.447   6.615 -0.3222 -0.3444 -0.1901
   52bbb     H7 1490  11.112   2.375   6.647  0.6915 -1.1133  0.5719
   52bbb     H8 1491  11.156   2.551   6.626  1.4968  0.0689  2.0972
   52bbb     C5 1492  10.902   2.295   6.287  0.1651  0.0511 -0.3794
   52bbb     H9 1493  10.828   2.376   6.288 -0.3936 -0.4429 -0.6982
   52bbb    H10 1494  10.838   2.213   6.320 -1.0115  2.2717  3.6245
   52bbb     C6 1495  11.120   2.683   6.324  0.6146  0.0124 -0.4232
   52bbb    H11 1496  11.195   2.693   6.404  0.6882 -1.6865 -0.2506
   52bbb    H12 1497  11.066   2.778   6.319  0.9407  0.1776 -0.8808
   52bbb     C7 1498  11.328   2.433   6.690  0.7595 -0.0023 -0.2261
   52bbb    H13 1499  11.377   2.339   6.663  0.5374  0.0584 -0.8532
   52bbb    H14 1500  11.313   2.431   6.799  1.4882  1.1790 -0.0924
   52bbb     C8 1501  11.184   2.652   6.188 -0.0322 -0.6694  0.1455
   52bbb    H15 1502  11.226   2.550   6.185 -0.5282 -0.9438  1.5914
   52bbb    H16 1503  11.258   2.732   6.182 -1.1703  0.4241  0.2535
   52bbb     C9 1504  10.955   2.289   6.141 -0.5129  0.3526 -0.0158
   52bbb    H17 1505  10.980   2.390   6.106 -0.9902 -0.1226 -1.8365
   52bbb    H18 1506  10.873   2.252   6.077 -1.5570  3.4011 -0.6208
   52bbb     O1 1507  11.402   2.551   6.656  0.4411  0.0003  0.2525
   53bbb     N1 1508  11.775   2.211   8.653  0.2668 -0.1536  0.2005
   53bbb     C1 1509  11.832   2.076   8.628 -0.1622  0.2639 -0.1680
   53bbb     H1 1510  11.906   2.082   8.547 -1.0789 -1.1415 -1.1761
   53bbb     H2 1511  11.757   2.000   8.602  0.0709 -1.3734  3.4019
   53bbb     C2 1512  11.657   2.193   8.744 -0.9611  0.4975  0.5303
   53bbb     H3 1513  11.687   2.133   8.831 -2.6659 -1.2787 -0.0217
   53bbb     H4 1514  11.580   2.136   8.690 -0.7324  1.7505 -1.1705
   53bbb     C3 1515  11.744   2.287   8.525  0.7786 -0.0789 -0.0294
   53bbb     H5 1516  11.727   2.392   8.553 -0.5586 -0.5633  1.0337
   53bbb     H6 1517  11.651   2.256   8.477  0.1603 -1.3398  1.8852
   53bbb     C4 1518  11.855   2.291   8.420  0.9926  0.0969 -0.1512
   53bbb     H7 1519  11.890   2.195   8.380 -0.0364  0.6955 -2.7086
   53bbb     H8 1520  11.941   2.337   8.470 -0.6072  0.0062  2.9206
   53bbb     C5 1521  11.915   2.011   8.736  0.4064  0.6913 -0.3584
   53bbb     H9 1522  11.967   1.930   8.685  1.8171  1.4252 -0.1237
   53bbb    H10 1523  11.836   1.974   8.803  1.5687 -0.5686  0.3670
   53bbb     C6 1524  11.598   2.323   8.786 -0.0076 -0.2613 -0.5344
   53bbb    H11 1525  11.569   2.386   8.701 -0.2070  2.5722  1.4730
   53bbb    H12 1526  11.671   2.388   8.837 -0.1785 -1.4081  1.2616
   53bbb     C7 1527  11.816   2.380   8.297 -0.4604 -0.1737 -1.1065
   53bbb    H13 1528  11.913   2.405   8.252  0.3826  0.5498  0.9553
   53bbb    H14 1529  11.768   2.474   8.325 -0.4312  0.1047 -1.9591
   53bbb     C8 1530  11.489   2.306   8.890 -0.2466  0.2182  0.9219
   53bbb    H15 1531  11.472   2.406   8.933  0.7533  1.2549 -0.9552
   53bbb    H16 1532  11.533   2.244   8.968  1.7952  2.2321  1.4849
   53bbb     C9 1533  12.000   2.090   8.832  0.0643 -0.2318  0.8576
   53bbb    H17 1534  12.029   2.036   8.922 -0.4734  0.2162  1.3111
   53bbb    H18 1535  11.949   2.180   8.871  1.9400  2.0869 -1.6127
   53bbb     O1 1536  11.736   2.298   8.211 -0.5122 -0.5762  0.0823
   54bbb     N1 1537  12.244   2.002   8.308  0.5694  0.0664 -0.0461
   54bbb     C1 1538  12.170   1.910   8.403  0.1972 -0.2477  0.0042
   54bbb     H1 1539  12.062   1.930   8.403  0.3333  0.5818  0.9433
   54bbb     H2 1540  12.207   1.924   8.506 -2.3089  0.6994  0.8487
   54bbb     C2 1541  12.242   2.138   8.364 -0.8998  0.6488  0.4870
   54bbb     H3 1542  12.292   2.144   8.462 -0.3868  1.0666  0.2073
   54bbb     H4 1543  12.136   2.166   8.371 -0.6635  1.7653 -0.1281
   54bbb     C3 1544  12.223   1.983   8.165 -0.0316 -0.1493 -0.6925
   54bbb     H5 1545  12.243   1.879   8.134 -2.1759 -1.2354  1.2265
   54bbb     H6 1546  12.295   2.041   8.107  1.3733 -1.4978 -0.3797
   54bbb     C4 1547  12.079   2.022   8.115 -0.4689  0.0733  0.8310
   54bbb     H7 1548  12.061   2.126   8.147  0.2944  0.7828 -0.9204
   54bbb     H8 1549  12.004   1.958   8.162 -0.1288 -2.0324 -1.3444
   54bbb     C5 1550  12.187   1.760   8.361 -0.1514 -0.4139 -0.0596
   54bbb     H9 1551  12.293   1.744   8.335 -0.1655 -2.6931  1.0615
   54bbb    H10 1552  12.124   1.745   8.272  1.1668 -0.3286 -1.0390
   54bbb     C6 1553  12.325   2.228   8.266 -0.6083 -0.1157 -0.4814
   54bbb    H11 1554  12.285   2.240   8.165 -1.9016  2.3202  0.2389
   54bbb    H12 1555  12.429   2.194   8.266 -0.0352  1.5478 -0.9549
   54bbb     C7 1556  12.047   1.997   7.968  0.6068 -0.3476  0.0530
   54bbb    H13 1557  11.939   2.010   7.960  0.4355  1.4311  3.5674
   54bbb    H14 1558  12.082   1.895   7.947 -0.7007 -0.9275  0.5998
   54bbb     C8 1559  12.324   2.378   8.309 -0.3559  0.3784  0.0571
   54bbb    H15 1560  12.229   2.405   8.358 -0.2884 -0.1127  0.4653
   54bbb    H16 1561  12.334   2.434   8.215 -1.1858  1.5496  0.6471
   54bbb     C9 1562  12.155   1.649   8.465  0.2648 -0.3273  0.8335
   54bbb    H17 1563  12.239   1.637   8.534  0.3636 -1.2767  0.5657
   54bbb    H18 1564  12.143   1.550   8.420 -0.1665 -0.2988  0.8831
   54bbb     O1 1565  12.125   2.085   7.880  0.8745  0.5729 -0.1911
   55bbb     N1 1566   9.810   0.539   5.132 -0.2108 -0.1164  0.0436
   55bbb     C1 1567   9.713   0.653   5.139 -0.7138  0.0864  0.5181
   55bbb     H1 1568   9.773   0.745   5.138  0.2476 -0.5239  1.0900
   55bbb     H2 1569   9.658   0.650   5.234  0.2168 -1.6178  1.0388
   55bbb     C2 1570   9.755   0.402   5.141  0.1618 -0.3019 -0.0550
   55bbb     H3 1571   9.831   0.324   5.129  0.3263 -0.6079  2.5078
   55bbb     H4 1572   9.682   0.393   5.059  0.3692  0.9749 -0.3884
   55bbb     C3 1573   9.899   0.573   5.242 -0.0296  0.2710  1.1315
   55bbb     H5 1574   9.849   0.571   5.340  0.8846 -2.1635  1.6463
   55bbb     H6 1575   9.935   0.673   5.218  2.1047 -0.9255 -1.1614
   55bbb     C4 1576  10.021   0.485   5.249 -0.1528  0.4309 -0.0587
   55bbb     H7 1577  10.072   0.491   5.152 -0.8517  1.4207 -0.3751
   55bbb     H8 1578   9.979   0.387   5.275 -0.4946  0.8276  0.9246
   55bbb     C5 1579   9.608   0.658   5.024 -1.0518 -0.2625  0.3635
   55bbb     H9 1580   9.519   0.604   5.059 -0.4696 -1.2724  0.3120
   55bbb    H10 1581   9.645   0.595   4.943 -0.1795 -0.3772  0.8378
   55bbb     C6 1582   9.675   0.368   5.269 -0.5262 -0.3606  0.0118
   55bbb    H11 1583   9.571   0.402   5.269 -0.9680 -1.6232  0.9754
   55bbb    H12 1584   9.728   0.418   5.352  2.6980 -0.5781 -1.7732
   55bbb     C7 1585  10.124   0.527   5.360  0.3479  0.8406  0.6860
   55bbb    H13 1586  10.151   0.633   5.354 -1.1704  1.2170  0.0428
   55bbb    H14 1587  10.218   0.470   5.353  0.4150  1.1024 -0.7891
   55bbb     C8 1588   9.677   0.217   5.305 -0.0132  0.3005  0.2577
   55bbb    H15 1589   9.623   0.166   5.224 -1.0947  1.7284  0.0244
   55bbb    H16 1590   9.625   0.196   5.400 -0.1999  2.3997  0.6635
   55bbb     C9 1591   9.581   0.800   4.982  0.3311 -0.1612  0.6282
   55bbb    H17 1592   9.544   0.863   5.064 -1.9984  1.1967 -1.3137
   55bbb    H18 1593   9.505   0.810   4.903  0.5615 -0.9971  0.2929
   55bbb     O1 1594  10.062   0.514   5.496  0.1724  0.5034  0.1504
   56bbb     N1 1595   9.121   0.073   5.451 -0.5209  0.2793 -0.9364
   56bbb     C1 1596   8.971   0.083   5.426  0.3821 -0.3052 -0.0692
   56bbb     H1 1597   8.941   0.189   5.430 -2.3233 -0.9444 -0.9601
   56bbb     H2 1598   8.915   0.028   5.502  2.0609 -1.3870  0.4415
   56bbb     C2 1599   9.183  -0.061   5.428 -0.2041  0.3290  0.5664
   56bbb     H3 1600   9.289  -0.059   5.456 -0.2917 -1.8004  1.2309
   56bbb     H4 1601   9.176  -0.072   5.319 -1.1325 -1.2061  0.7547
   56bbb     C3 1602   9.180   0.142   5.568 -0.5946 -0.3647  0.5749
   56bbb     H5 1603   9.288   0.124   5.579 -0.7311 -0.7532  1.3925
   56bbb     H6 1604   9.132   0.122   5.665 -1.6186 -2.4465 -0.3060
   56bbb     C4 1605   9.161   0.298   5.555  1.0671  0.8196  0.0111
   56bbb     H7 1606   9.053   0.314   5.549  0.7913  0.7179  3.1097
   56bbb     H8 1607   9.198   0.329   5.457  1.4901 -0.7753 -0.3746
   56bbb     C5 1608   8.945   0.047   5.281 -0.0015  0.5807 -0.1985
   56bbb     H9 1609   8.959  -0.062   5.282 -2.0774  0.2259 -2.1289
   56bbb    H10 1610   9.026   0.084   5.217 -1.0323  1.0591 -1.2606
   56bbb     C6 1611   9.112  -0.174   5.507  0.1577  0.5798 -0.3260
   56bbb    H11 1612   9.017  -0.204   5.462 -0.4749  3.5327 -1.1498
   56bbb    H12 1613   9.091  -0.134   5.607  1.4454  0.1156  0.1549
   56bbb     C7 1614   9.208   0.373   5.678  0.0553  0.6257  0.0250
   56bbb    H13 1615   9.146   0.359   5.768 -0.5460 -0.2901 -0.5155
   56bbb    H14 1616   9.202   0.481   5.657 -0.0230  0.7820  0.8232
   56bbb     C8 1617   9.204  -0.302   5.521  0.3508 -0.8278  0.0653
   56bbb    H15 1618   9.302  -0.265   5.554  0.5918 -1.5527  0.1853
   56bbb    H16 1619   9.200  -0.358   5.427 -0.7551  1.9047 -1.6350
   56bbb     C9 1620   8.807   0.086   5.224 -0.6741  0.3388 -0.1414
   56bbb    H17 1621   8.797   0.056   5.119 -1.2239  1.1978 -0.3511
   56bbb    H18 1622   8.788   0.194   5.224 -1.1439  0.3188  2.4433
   56bbb     O1 1623   9.346   0.353   5.703 -0.7506  0.1610  0.1651
   57bbb     N1 1624  11.016   0.751   4.931  0.1158 -0.8811  0.6153
   57bbb     C1 1625  11.039   0.666   4.812  0.0900  0.1452 -0.0918
   57bbb     H1 1626  11.131   0.698   4.761  0.5775 -1.4001 -0.2199
   57bbb     H2 1627  10.957   0.681   4.741  0.2603  0.0037 -0.3219
   57bbb     C2 1628  11.129   0.758   5.035  0.3815  0.2166  0.5092
   57bbb     H3 1629  11.139   0.657   5.078 -0.1232 -0.1321 -0.1510
   57bbb     H4 1630  11.100   0.821   5.120 -5.0497 -1.8107  0.6068
   57bbb     C3 1631  10.878   0.730   4.978  0.0542 -0.5659 -0.4525
   57bbb     H5 1632  10.859   0.629   5.018  1.1166 -0.6644 -0.1657
   57bbb     H6 1633  10.810   0.739   4.893 -0.9107 -1.5106  0.1798
   57bbb     C4 1634  10.830   0.832   5.092  0.3257  0.1590  0.1420
   57bbb     H7 1635  10.723   0.854   5.079  0.2983  0.0911  0.2502
   57bbb     H8 1636  10.883   0.928   5.094  0.8761 -0.1524  1.1370
   57bbb     C5 1637  11.048   0.515   4.848 -0.1820 -0.4026  0.1352
   57bbb     H9 1638  10.952   0.480   4.888  0.1780 -0.6865  0.7600
   57bbb    H10 1639  11.116   0.512   4.934  0.3929  3.0558 -0.0631
   57bbb     C6 1640  11.267   0.812   4.982 -0.1787 -0.1902  0.6277
   57bbb    H11 1641  11.298   0.758   4.893  0.4577  1.7175 -0.3677
   57bbb    H12 1642  11.345   0.811   5.059  0.2881 -0.3182  0.1558
   57bbb     C7 1643  10.859   0.786   5.237  0.1831  1.1571  0.1444
   57bbb    H13 1644  10.838   0.875   5.298  0.7651  2.1240 -1.0022
   57bbb    H14 1645  10.964   0.756   5.238 -0.3504 -0.8362  0.4561
   57bbb     C8 1646  11.261   0.958   4.934 -0.8027  0.0162 -0.3427
   57bbb    H15 1647  11.174   0.984   4.872 -0.9280 -0.1743 -0.2477
   57bbb    H16 1648  11.347   0.983   4.870  0.5643 -0.2853  1.3174
   57bbb     C9 1649  11.106   0.435   4.731  0.8190 -0.5059  0.8308
   57bbb    H17 1650  11.205   0.480   4.717  0.7291 -0.3593  0.6614
   57bbb    H18 1651  11.049   0.444   4.637  0.3921 -0.3795  1.0972
   57bbb     O1 1652  10.772   0.676   5.260  0.2005  0.0711  0.2784
   58bbb     N1 1653  10.451  -0.522   5.522 -0.3628 -0.7424  0.1894
   58bbb     C1 1654  10.525  -0.624   5.451  0.3978  0.9544 -0.7213
   58bbb     H1 1655  10.617  -0.631   5.509 -0.6009  0.5164  0.8647
   58bbb     H2 1656  10.542  -0.598   5.346 -1.1160  1.8865 -0.7686
   58bbb     C2 1657  10.317  -0.489   5.460  0.8638 -0.6232  0.4290
   58bbb     H3 1658  10.258  -0.580   5.443  0.8652 -0.3191 -1.4255
   58bbb     H4 1659  10.333  -0.457   5.356 -1.5502 -1.3135 -0.2098
   58bbb     C3 1660  10.537  -0.405   5.560  0.0090  0.4461  0.0305
   58bbb     H5 1661  10.622  -0.442   5.619  0.4713  0.2599 -0.7347
   58bbb     H6 1662  10.490  -0.345   5.638 -0.7215 -0.9179  0.6608
   58bbb     C4 1663  10.572  -0.317   5.440  0.2834  0.1326 -0.4439
   58bbb     H7 1664  10.486  -0.280   5.382  0.2722  0.8420  0.0159
   58bbb     H8 1665  10.618  -0.392   5.375 -1.0756 -0.7026 -0.4775
   58bbb     C5 1666  10.458  -0.769   5.447  0.3708 -1.3009  0.4486
   58bbb     H9 1667  10.365  -0.760   5.390  0.8427 -0.5530 -0.2319
   58bbb    H10 1668  10.451  -0.811   5.548 -0.0767 -1.5427  0.3192
   58bbb     C6 1669  10.228  -0.385   5.536 -0.9002  0.4106  0.3052
   58bbb    H11 1670  10.286  -0.297   5.566 -3.4024  1.2326  3.3440
   58bbb    H12 1671  10.188  -0.435   5.625  0.4453 -0.4586  0.4411
   58bbb     C7 1672  10.661  -0.195   5.470 -0.0674 -0.4798  0.1037
   58bbb    H13 1673  10.759  -0.227   5.508  1.0898  1.5451 -0.9595
   58bbb    H14 1674  10.605  -0.132   5.540  0.1678 -0.8701  0.6576
   58bbb     C8 1675  10.109  -0.343   5.455 -0.3448 -0.2196  0.6716
   58bbb    H15 1676  10.043  -0.274   5.509 -1.4938 -0.6771 -0.1201
   58bbb    H16 1677  10.053  -0.435   5.434  0.7313 -0.6792 -0.2922
   58bbb     C9 1678  10.543  -0.877   5.372 -0.0531 -0.9268 -0.5502
   58bbb    H17 1679  10.497  -0.975   5.385  0.6135 -1.4017 -1.6292
   58bbb    H18 1680  10.643  -0.889   5.414 -0.8582 -3.4635  0.8505
   58bbb     O1 1681  10.682  -0.120   5.342 -0.6411  0.1834 -0.1667
   59bbb     N1 1682  10.117   2.409   4.560 -0.0719  0.3219  0.4146
   59bbb     C1 1683  10.194   2.461   4.674  0.0886  0.1190  0.0066
   59bbb     H1 1684  10.265   2.532   4.629  0.3778 -0.0081  0.2545
   59bbb     H2 1685  10.251   2.377   4.715  1.3206  0.2242 -1.3772
   59bbb     C2 1686  10.001   2.493   4.519 -0.4294 -0.1759  0.3846
   59bbb     H3 1687  10.035   2.580   4.462 -2.2289 -0.7755 -1.7457
   59bbb     H4 1688   9.953   2.530   4.611 -0.3528  0.8325  0.0376
   59bbb     C3 1689  10.208   2.349   4.459 -0.4208 -0.0033  0.2392
   59bbb     H5 1690  10.270   2.430   4.418  1.1359 -1.3015 -0.0704
   59bbb     H6 1691  10.146   2.312   4.377  0.6057  0.0098 -0.5649
   59bbb     C4 1692  10.292   2.225   4.509 -0.2135  0.1740 -0.3645
   59bbb     H7 1693  10.361   2.252   4.590  1.2063 -1.7681 -0.8679
   59bbb     H8 1694  10.342   2.181   4.422  1.5338  0.6563  0.3524
   59bbb     C5 1695  10.130   2.522   4.794 -0.8316  0.6138 -0.0318
   59bbb     H9 1696  10.081   2.616   4.764  1.0694  2.2797  1.7657
   59bbb    H10 1697  10.203   2.565   4.864 -0.5486  1.7447 -0.9958
   59bbb     C6 1698   9.899   2.423   4.427  0.1603 -0.4343  0.0945
   59bbb    H11 1699   9.943   2.411   4.327 -0.5762  0.6354 -0.3709
   59bbb    H12 1700   9.806   2.478   4.414 -0.5856 -1.5172  0.7218
   59bbb     C7 1701  10.205   2.107   4.562 -0.8766 -0.3273  0.3135
   59bbb    H13 1702  10.157   2.066   4.472 -0.5877  0.5000 -0.2288
   59bbb    H14 1703  10.123   2.145   4.625 -0.5878  3.2232 -1.2484
   59bbb     C8 1704   9.862   2.279   4.484 -0.5362 -0.0535 -0.5559
   59bbb    H15 1705   9.957   2.233   4.514 -0.9647 -0.2311  0.6061
   59bbb    H16 1706   9.826   2.219   4.400  1.8057 -1.2785 -0.7812
   59bbb     C9 1707  10.036   2.426   4.863 -0.0505  0.1224  0.6029
   59bbb    H17 1708   9.994   2.353   4.793  0.4043 -0.9142  1.3997
   59bbb    H18 1709   9.956   2.481   4.915 -2.1721 -1.4072 -0.8821
   59bbb     O1 1710  10.287   2.017   4.639 -0.2095  0.0198 -0.2605
   60bbb     N1 1711  10.082   1.698   4.225 -0.4431 -0.1191 -0.5888
   60bbb     C1 1712  10.184   1.696   4.115  0.0016 -0.0618  0.0813
   60bbb     H1 1713  10.142   1.737   4.022 -0.7330 -1.2702 -0.1339
   60bbb     H2 1714  10.209   1.590   4.107  1.8281  0.2896  0.7722
   60bbb     C2 1715  10.021   1.831   4.255  0.5193  0.5935  0.4848
   60bbb     H3 1716  10.093   1.888   4.313 -1.0992  0.3747  2.8380
   60bbb     H4 1717   9.938   1.803   4.321  2.6771  1.3515  3.7592
   60bbb     C3 1718  10.128   1.632   4.347  0.0695 -0.0119 -0.5147
   60bbb     H5 1719  10.049   1.635   4.423 -0.6440 -1.8723 -1.1389
   60bbb     H6 1720  10.214   1.683   4.392 -0.6154  0.4277  0.3192
   60bbb     C4 1721  10.149   1.478   4.328 -0.0457  0.2753 -0.1414
   60bbb     H7 1722  10.235   1.451   4.266  1.5667  1.0168  1.6490
   60bbb     H8 1723  10.065   1.420   4.288  0.9810 -1.7257  0.4303
   60bbb     C5 1724  10.313   1.767   4.142 -0.0056 -0.2231 -0.3450
   60bbb     H9 1725  10.356   1.723   4.233 -0.7949 -1.8360 -0.7322
   60bbb    H10 1726  10.291   1.871   4.169  0.0161 -0.1662 -0.5457
   60bbb     C6 1727   9.959   1.908   4.136  0.3368 -0.0780  0.2957
   60bbb    H11 1728   9.870   1.853   4.102  1.9121 -2.9935  0.5570
   60bbb    H12 1729  10.028   1.921   4.052  0.3356  1.2587  0.4798
   60bbb     C7 1730  10.187   1.405   4.465 -0.8361 -0.4730  0.2123
   60bbb    H13 1731  10.186   1.299   4.438  0.4739  0.0275 -2.0616
   60bbb    H14 1732  10.112   1.439   4.537  0.6019 -1.4130  2.2696
   60bbb     C8 1733   9.912   2.050   4.188 -0.8436 -0.0414  0.3193
   60bbb    H15 1734   9.832   2.042   4.262  0.0019  2.2125  1.5931
   60bbb    H16 1735   9.877   2.101   4.097  1.3692 -1.1557 -1.2543
   60bbb     C9 1736  10.402   1.771   4.013  1.3514 -0.9308 -0.7792
   60bbb    H17 1737  10.462   1.680   3.998  4.1990  0.8468 -0.9936
   60bbb    H18 1738  10.474   1.853   4.025 -0.5980  1.4610 -3.8783
   60bbb     O1 1739  10.324   1.452   4.500  0.1324  0.6636 -0.5734
   61bbb     N1 1740  10.847   1.868   5.089  0.1474  0.1374 -0.0403
   61bbb     C1 1741  10.722   1.954   5.074  0.4021 -0.0863  0.8076
   61bbb     H1 1742  10.742   2.057   5.104 -2.7354  0.2344  2.1904
   61bbb     H2 1743  10.642   1.926   5.144 -0.0077  2.0537  1.2561
   61bbb     C2 1744  10.955   1.914   5.001 -0.9853  1.0298  0.0381
   61bbb     H3 1745  10.957   2.024   5.010  1.9611  1.1359 -0.6838
   61bbb     H4 1746  10.927   1.888   4.898 -2.7941  0.1743  0.7123
   61bbb     C3 1747  10.817   1.719   5.086 -0.2584 -0.5032  0.9303
   61bbb     H5 1748  10.906   1.661   5.111 -0.3843 -1.4567 -0.6850
   61bbb     H6 1749  10.778   1.682   4.990  1.6468  1.0747 -0.5350
   61bbb     C4 1750  10.708   1.679   5.184 -0.2842  0.1473 -0.2595
   61bbb     H7 1751  10.613   1.720   5.148 -1.3647  0.1139  2.3228
   61bbb     H8 1752  10.729   1.719   5.284 -0.6818 -0.5936  0.1319
   61bbb     C5 1753  10.655   1.946   4.930 -0.1635 -0.0908  0.2090
   61bbb     H9 1754  10.624   1.845   4.901  0.7201 -0.7987  1.5959
   61bbb    H10 1755  10.720   1.975   4.847 -1.0376 -2.4463 -1.3974
   61bbb     C6 1756  11.100   1.861   5.016  0.1223 -0.3011  0.8086
   61bbb    H11 1757  11.114   1.755   4.992  0.1299  0.1502 -1.4342
   61bbb    H12 1758  11.136   1.882   5.118  2.1471  0.5208 -0.0198
   61bbb     C7 1759  10.712   1.522   5.191  0.4182 -0.4720  0.0276
   61bbb    H13 1760  10.711   1.469   5.095 -2.2553 -1.1379  0.3316
   61bbb    H14 1761  10.627   1.476   5.243  0.3161  0.1319  0.4048
   61bbb     C8 1762  11.203   1.943   4.930  0.0465  0.9103  0.7306
   61bbb    H15 1763  11.298   1.921   4.981 -1.7584 -1.0876  3.5528
   61bbb    H16 1764  11.182   2.050   4.943 -1.4950  1.3206 -3.6390
   61bbb     C9 1765  10.531   2.038   4.914 -0.0070  0.4227  0.2625
   61bbb    H17 1766  10.475   2.046   5.008  0.1646  0.9615  0.3205
   61bbb    H18 1767  10.464   2.022   4.828  1.3063 -1.5209 -0.4785
   61bbb     O1 1768  10.823   1.485   5.265  0.0983  0.4824 -0.1758
   62bbb     N1 1769  10.773   1.098   4.738 -0.3921 -0.2098 -0.3190
   62bbb     C1 1770  10.892   1.006   4.718  0.1801  0.6099  0.3978
   62bbb     H1 1771  10.857   0.908   4.685 -0.1638  0.9279 -0.1975
   62bbb     H2 1772  10.936   0.975   4.814  0.1158 -1.0721 -0.0955
   62bbb     C2 1773  10.808   1.239   4.755  1.0655 -0.8921  0.0816
   62bbb     H3 1774  10.717   1.301   4.762  1.3961 -0.3900  0.0324
   62bbb     H4 1775  10.862   1.253   4.660 -0.0432 -1.6947 -0.6985
   62bbb     C3 1776  10.676   1.052   4.839 -0.1368 -0.4450 -0.5012
   62bbb     H5 1777  10.719   1.087   4.933 -1.3677 -1.6941  0.5698
   62bbb     H6 1778  10.674   0.944   4.857 -0.4485 -0.2470  0.7604
   62bbb     C4 1779  10.532   1.110   4.825  0.0716  0.9909 -0.2064
   62bbb     H7 1780  10.492   1.063   4.735 -1.3661 -1.3836  1.5488
   62bbb     H8 1781  10.531   1.218   4.807 -2.3415  0.7557 -2.0930
   62bbb     C5 1782  11.004   1.045   4.621  0.3208 -0.2927  0.6674
   62bbb     H9 1783  11.064   1.130   4.656  0.4522 -0.1452  0.0992
   62bbb    H10 1784  10.960   1.077   4.526  1.0137  0.1090  0.4724
   62bbb     C6 1785  10.892   1.283   4.873 -0.3526  0.5661 -0.2133
   62bbb    H11 1786  10.967   1.204   4.884 -2.7113 -1.6294  1.2707
   62bbb    H12 1787  10.837   1.291   4.967  1.1487  0.0020  0.7492
   62bbb     C7 1788  10.438   1.086   4.943 -0.3488  0.2294 -0.0382
   62bbb    H13 1789  10.428   0.978   4.959 -1.2465  0.3781  0.4764
   62bbb    H14 1790  10.335   1.115   4.918 -0.5766 -1.0832 -0.7212
   62bbb     C8 1791  10.970   1.412   4.834 -0.7559  0.4852  0.4386
   62bbb    H15 1792  11.030   1.395   4.744 -1.9716  0.7375 -0.4500
   62bbb    H16 1793  11.037   1.454   4.910 -0.4578  0.6305  0.1028
   62bbb     C9 1794  11.089   0.925   4.585 -0.7474  0.3765  0.7358
   62bbb    H17 1795  11.125   0.873   4.675 -1.0202 -0.1243  0.5593
   62bbb    H18 1796  11.181   0.957   4.534 -1.5098  0.0313 -0.9122
   62bbb     O1 1797  10.477   1.158   5.057 -0.1791 -0.2030  0.3948
   63bbb     N1 1798   9.679   0.190   7.597 -0.2146  0.0690  0.5100
   63bbb     C1 1799   9.640   0.048   7.595  0.4173 -0.0990  0.3644
   63bbb     H1 1800   9.699   0.001   7.516 -0.7865  2.8906 -2.5357
   63bbb     H2 1801   9.535   0.022   7.577  0.8214 -0.7993 -1.1464
   63bbb     C2 1802   9.819   0.227   7.643  0.8296  0.3673 -0.4763
   63bbb     H3 1803   9.826   0.204   7.750  0.0630  0.9758 -0.2841
   63bbb     H4 1804   9.833   0.336   7.641  1.0936  0.5543  3.5336
   63bbb     C3 1805   9.646   0.251   7.457 -0.7872 -0.6893  0.1819
   63bbb     H5 1806   9.541   0.232   7.430 -0.2232  1.0208 -3.9175
   63bbb     H6 1807   9.719   0.208   7.388  2.3098  1.4832  1.8778
   63bbb     C4 1808   9.666   0.410   7.454  0.1235  0.0460  0.5241
   63bbb     H7 1809   9.771   0.442   7.450  0.4553 -0.7940  1.8044
   63bbb     H8 1810   9.622   0.454   7.544  0.9955  0.5712  0.7076
   63bbb     C5 1811   9.668  -0.025   7.726  0.8166 -0.0348 -0.1856
   63bbb     H9 1812   9.776  -0.032   7.747  1.0005  2.7359  0.2022
   63bbb    H10 1813   9.634  -0.128   7.709 -0.1307  0.3672 -0.7762
   63bbb     C6 1814   9.938   0.152   7.582 -0.1366  0.2905 -0.3721
   63bbb    H11 1815   9.929   0.144   7.473  0.0544  0.2694 -0.3869
   63bbb    H12 1816   9.931   0.050   7.623 -1.1558  0.9270  1.1218
   63bbb     C7 1817   9.593   0.468   7.329 -0.3560  0.1512  0.5840
   63bbb    H13 1818   9.491   0.429   7.338 -0.6738  1.0541  0.9755
   63bbb    H14 1819   9.644   0.428   7.241  0.8232  0.9858  0.8607
   63bbb     C8 1820  10.070   0.229   7.609 -0.1857 -0.2346 -0.1550
   63bbb    H15 1821  10.097   0.232   7.715 -1.8226 -2.2571  0.3822
   63bbb    H16 1822  10.054   0.332   7.572 -0.9936  0.3551  1.7240
   63bbb     C9 1823   9.591   0.039   7.851 -0.8996  0.1945  0.2806
   63bbb    H17 1824   9.482   0.032   7.846 -1.1323  3.1836 -0.3279
   63bbb    H18 1825   9.625   0.142   7.864  1.5223 -0.6727  1.6056
   63bbb     O1 1826   9.583   0.612   7.332 -0.3752  0.4610  0.6239
   64bbb     N1 1827  10.168   0.407   7.112 -0.8692  0.4403 -0.7814
   64bbb     C1 1828  10.165   0.542   7.167  0.3989 -0.3395  0.4861
   64bbb     H1 1829  10.261   0.551   7.221 -1.4966  0.5677  4.0450
   64bbb     H2 1830  10.079   0.560   7.232  0.3638  0.7643  0.1628
   64bbb     C2 1831  10.188   0.320   7.230  0.8305 -0.1237  0.3829
   64bbb     H3 1832  10.097   0.345   7.286 -0.8262  1.8259 -2.8757
   64bbb     H4 1833  10.274   0.350   7.292  1.1066  1.4853 -0.7013
   64bbb     C3 1834  10.053   0.370   7.019  0.2330  0.6316 -1.0223
   64bbb     H5 1835  10.077   0.274   6.971 -1.7687  0.9857 -2.8919
   64bbb     H6 1836  10.056   0.446   6.940  1.9156 -0.6012 -2.2060
   64bbb     C4 1837   9.910   0.380   7.076 -0.1930  0.4170 -0.0668
   64bbb     H7 1838   9.899   0.473   7.133 -1.0470  0.5756 -0.4630
   64bbb     H8 1839   9.888   0.294   7.141 -0.9849  1.7834  1.5624
   64bbb     C5 1840  10.164   0.660   7.064  0.2357  0.3871 -0.0270
   64bbb     H9 1841  10.180   0.749   7.126 -1.6493  0.3485  0.5679
   64bbb    H10 1842  10.062   0.665   7.025  0.6026  2.5451 -0.8028
   64bbb     C6 1843  10.189   0.169   7.211  0.4283  0.9249 -0.2690
   64bbb    H11 1844  10.087   0.132   7.199  0.7900 -0.2804  0.1886
   64bbb    H12 1845  10.221   0.121   7.304 -0.3408 -0.4101 -0.6722
   64bbb     C7 1846   9.801   0.367   6.968 -0.1226 -0.4490  0.0456
   64bbb    H13 1847   9.705   0.365   7.022  0.0090  4.7623  0.9362
   64bbb    H14 1848   9.824   0.272   6.916  1.4222 -0.1095  0.0615
   64bbb     C8 1849  10.275   0.118   7.095 -0.1213 -0.0270 -0.4169
   64bbb    H15 1850  10.382   0.134   7.111  0.4318 -1.8509 -1.9467
   64bbb    H16 1851  10.241   0.175   7.007 -0.0459  0.6043 -0.0425
   64bbb     C9 1852  10.269   0.646   6.960 -0.0613 -0.2280  0.1458
   64bbb    H17 1853  10.252   0.734   6.896  0.0110 -0.5087 -0.2663
   64bbb    H18 1854  10.261   0.550   6.906 -1.1594  0.4147 -0.9002
   64bbb     O1 1855   9.811   0.483   6.883  0.3803 -0.0979  0.5455
   65bbb     N1 1856   7.562   0.574   7.259  0.8797 -0.4376  0.6010
   65bbb     C1 1857   7.494   0.656   7.367 -0.0022 -0.4042  0.1052
   65bbb     H1 1858   7.560   0.735   7.404 -1.0209  0.4803  0.0656
   65bbb     H2 1859   7.465   0.591   7.451 -0.5184 -0.8315 -0.3999
   65bbb     C2 1860   7.503   0.437   7.231  0.8102 -0.5462 -0.2992
   65bbb     H3 1861   7.425   0.443   7.155 -2.3345 -3.5969  2.3182
   65bbb     H4 1862   7.459   0.400   7.324  1.3706  2.2229  1.1828
   65bbb     C3 1863   7.601   0.641   7.130 -0.4598  0.3622  0.6622
   65bbb     H5 1864   7.517   0.644   7.059 -1.2625 -0.7630  1.5222
   65bbb     H6 1865   7.676   0.572   7.089 -0.6950 -0.2282  1.1981
   65bbb     C4 1866   7.670   0.779   7.149  0.5495  0.2893  0.1914
   65bbb     H7 1867   7.748   0.778   7.225  0.5167  0.8282  0.2368
   65bbb     H8 1868   7.605   0.865   7.170 -0.1169 -0.3381  0.7483
   65bbb     C5 1869   7.365   0.721   7.314  0.2299  0.4014  0.6420
   65bbb     H9 1870   7.309   0.648   7.254  1.3099 -0.8095  1.0633
   65bbb    H10 1871   7.379   0.807   7.247 -0.9958 -0.6751 -1.0799
   65bbb     C6 1872   7.613   0.335   7.194 -0.5588 -0.0648 -0.2008
   65bbb    H11 1873   7.657   0.365   7.098 -0.0736  0.5860  0.2228
   65bbb    H12 1874   7.565   0.238   7.173 -0.0519 -0.8073  1.8688
   65bbb     C7 1875   7.744   0.819   7.022 -0.1761 -0.0849  0.2765
   65bbb    H13 1876   7.662   0.831   6.950 -0.7381 -2.5393  0.4391
   65bbb    H14 1877   7.806   0.740   6.978  0.2564  1.6677 -2.6028
   65bbb     C8 1878   7.726   0.307   7.304 -0.8006 -0.2295  0.4223
   65bbb    H15 1879   7.806   0.382   7.311 -0.5074 -0.4378 -0.5967
   65bbb    H16 1880   7.784   0.215   7.291 -0.3359 -0.0219  0.9759
   65bbb     C9 1881   7.267   0.776   7.429 -0.5369  0.6601 -0.5160
   65bbb    H17 1882   7.169   0.811   7.395 -0.3238  0.7191 -1.0833
   65bbb    H18 1883   7.317   0.849   7.493 -0.4297  0.5871 -0.5169
   65bbb     O1 1884   7.828   0.932   7.043 -0.1070  0.2039 -0.4079
   66bbb     N1 1885   7.933   0.635   6.253  0.9081  0.9099  0.1260
   66bbb     C1 1886   8.071   0.602   6.258 -0.0998  0.5557 -0.6595
   66bbb     H1 1887   8.126   0.681   6.207 -1.2877  1.0618 -1.2009
   66bbb     H2 1888   8.090   0.511   6.199 -1.2310  0.2865 -0.6342
   66bbb     C2 1889   7.838   0.531   6.302  0.5827  0.7610  0.4913
   66bbb     H3 1890   7.732   0.556   6.299  0.8562  2.1411  1.2619
   66bbb     H4 1891   7.855   0.513   6.409 -0.9044 -2.7905  0.2501
   66bbb     C3 1892   7.899   0.767   6.295  0.1307 -0.2681 -0.3374
   66bbb     H5 1893   7.969   0.839   6.251 -0.5180 -0.1445 -1.1968
   66bbb     H6 1894   7.916   0.778   6.403 -3.5318  0.1200  0.3259
   66bbb     C4 1895   7.752   0.810   6.266  0.5080 -0.7301 -0.0021
   66bbb     H7 1896   7.688   0.763   6.341 -0.4472  1.4098  0.6214
   66bbb     H8 1897   7.714   0.774   6.169  1.1906  1.9284 -1.3570
   66bbb     C5 1898   8.129   0.589   6.405  0.0351 -0.3769  0.3819
   66bbb     H9 1899   8.077   0.662   6.468 -0.0013  0.9802 -1.1485
   66bbb    H10 1900   8.234   0.621   6.404  0.3611 -1.3086  1.7495
   66bbb     C6 1901   7.859   0.401   6.221  0.0250  0.2804 -0.4495
   66bbb    H11 1902   7.960   0.358   6.226  1.2401  2.4582 -3.4016
   66bbb    H12 1903   7.852   0.420   6.113 -0.2511  0.5685 -0.3823
   66bbb     C7 1904   7.728   0.958   6.286  0.1219  0.2682  0.5712
   66bbb    H13 1905   7.626   0.988   6.258  0.3445  0.0562 -0.5115
   66bbb    H14 1906   7.789   1.024   6.223 -1.9007 -1.3726 -3.5113
   66bbb     C8 1907   7.769   0.285   6.265 -0.5704 -0.5541 -0.7134
   66bbb    H15 1908   7.787   0.191   6.212  2.3626 -0.9505  0.7884
   66bbb    H16 1909   7.662   0.308   6.260 -1.0542 -2.6317 -0.6822
   66bbb     C9 1910   8.125   0.449   6.468 -0.7607  0.2099 -0.0476
   66bbb    H17 1911   8.161   0.367   6.405 -1.3837 -0.6935  0.7379
   66bbb    H18 1912   8.031   0.417   6.515  0.1349 -1.1222  0.9144
   66bbb     O1 1913   7.756   0.991   6.426 -0.2855 -0.6423 -0.5506
   67bbb     N1 1914  10.449   0.067   8.553  0.1326  0.9818  0.0051
   67bbb     C1 1915  10.417  -0.081   8.554 -0.0204  0.1895  0.0007
   67bbb     H1 1916  10.496  -0.144   8.596 -2.8309 -2.6083  1.4938
   67bbb     H2 1917  10.387  -0.113   8.454 -2.8149  1.4365  0.3526
   67bbb     C2 1918  10.586   0.090   8.500  0.7791  0.1392 -0.6104
   67bbb     H3 1919  10.606   0.197   8.505  1.0251  0.0798 -0.2393
   67bbb     H4 1920  10.586   0.063   8.393 -1.1397 -2.4098 -0.0831
   67bbb     C3 1921  10.335   0.147   8.497 -0.1777  0.8708 -0.2255
   67bbb     H5 1922  10.256   0.154   8.573  1.1585  0.1947  1.2536
   67bbb     H6 1923  10.288   0.086   8.418  1.9060 -0.4979 -0.4822
   67bbb     C4 1924  10.355   0.294   8.457  0.2938  0.1394  0.0331
   67bbb     H7 1925  10.416   0.294   8.366  1.6310 -1.8507  0.8755
   67bbb     H8 1926  10.409   0.346   8.537  0.5793 -0.3737  0.1772
   67bbb     C5 1927  10.297  -0.112   8.646  0.2128  0.3705 -0.4501
   67bbb     H9 1928  10.206  -0.054   8.625 -0.0415  1.0481  2.2200
   67bbb    H10 1929  10.314  -0.073   8.747  0.1914 -0.1894 -0.2238
   67bbb     C6 1930  10.701   0.032   8.580 -0.2029  0.4875  0.2395
   67bbb    H11 1931  10.696  -0.073   8.612  1.1160  0.4173  0.2475
   67bbb    H12 1932  10.698   0.077   8.680 -1.4122 -0.3721  0.6215
   67bbb     C7 1933  10.223   0.359   8.427  0.1960 -0.2591  1.0362
   67bbb    H13 1934  10.156   0.374   8.513  0.0734  0.0468  0.8878
   67bbb    H14 1935  10.170   0.295   8.355  1.8809 -0.7935  0.2033
   67bbb     C8 1936  10.836   0.047   8.504 -0.2400 -0.1021  0.0465
   67bbb    H15 1937  10.858  -0.010   8.413  1.7012  3.1970 -1.7483
   67bbb    H16 1938  10.911   0.011   8.575 -1.1290 -0.2975  0.9048
   67bbb     C9 1939  10.243  -0.255   8.656 -0.0623 -0.4055  0.1597
   67bbb    H17 1940  10.168  -0.240   8.735  0.3691 -1.3338  0.7562
   67bbb    H18 1941  10.324  -0.323   8.686  0.5356 -0.0194 -0.5416
   67bbb     O1 1942  10.243   0.488   8.361 -0.3402  0.4358 -0.3558
   68bbb     N1 1943   9.871  -0.133   8.299 -0.5120  0.0756 -0.2220
   68bbb     C1 1944   9.981  -0.208   8.231  0.2573  0.7271  0.3864
   68bbb     H1 1945   9.994  -0.307   8.275  0.8452 -0.0902 -1.5471
   68bbb     H2 1946  10.082  -0.166   8.243  0.6547 -0.1877  0.3080
   68bbb     C2 1947   9.768  -0.231   8.355  0.1989  0.6522 -0.0199
   68bbb     H3 1948   9.819  -0.312   8.410 -2.5443 -0.7237  0.6663
   68bbb     H4 1949   9.715  -0.271   8.268  3.3515 -2.2512 -0.8364
   68bbb     C3 1950   9.934  -0.045   8.393 -0.3263 -0.2485  0.2162
   68bbb     H5 1951  10.016  -0.086   8.453 -0.5850  0.1023  0.8132
   68bbb     H6 1952   9.865  -0.018   8.473  1.3978  1.1031  1.3258
   68bbb     C4 1953   9.991   0.083   8.328  0.2230  0.6521  0.4952
   68bbb     H7 1954  10.071   0.061   8.256 -0.3896 -0.3566  0.1011
   68bbb     H8 1955  10.042   0.142   8.406  2.3744  1.1178 -1.1394
   68bbb     C5 1956   9.959  -0.223   8.084  0.7590  0.6781  0.8981
   68bbb     H9 1957   9.864  -0.274   8.065  1.7116 -2.2086  3.0801
   68bbb    H10 1958  10.029  -0.302   8.054  2.3423  1.7306  1.6881
   68bbb     C6 1959   9.657  -0.162   8.445  0.3195  0.1823  0.2597
   68bbb    H11 1960   9.609  -0.082   8.387 -1.6180 -1.0770  0.0110
   68bbb    H12 1961   9.695  -0.125   8.541 -1.7805 -0.2162  1.2998
   68bbb     C7 1962   9.881   0.156   8.255 -0.1446  0.8166  0.1092
   68bbb    H13 1963   9.809   0.169   8.337 -0.1151 -0.0294  0.2800
   68bbb    H14 1964   9.840   0.093   8.176  0.5932  0.4814 -0.0149
   68bbb     C8 1965   9.553  -0.271   8.485  0.1658 -0.6866  0.2984
   68bbb    H15 1966   9.607  -0.345   8.545  0.4382 -0.4563  0.3388
   68bbb    H16 1967   9.511  -0.321   8.396  1.7056  0.2803 -1.0277
   68bbb     C9 1968   9.980  -0.101   7.991  0.6227  0.6233 -0.1621
   68bbb    H17 1969   9.913  -0.018   8.015 -0.0453  0.9932 -3.0143
   68bbb    H18 1970   9.960  -0.127   7.887  1.0586 -0.9604  0.1285
   68bbb     O1 1971   9.938   0.277   8.198  0.3703 -0.2429 -0.3000
   69bbb     N1 1972   8.957   1.805   7.814 -0.1692  0.2445  1.0080
   69bbb     C1 1973   9.010   1.939   7.856 -0.0219  0.2363  0.8306
   69bbb     H1 1974   9.090   1.984   7.797 -0.3794 -0.8625 -0.5458
   69bbb     H2 1975   9.058   1.934   7.954  0.3575  1.9913  0.7677
   69bbb     C2 1976   8.846   1.794   7.715 -0.4432  0.2727 -0.2523
   69bbb     H3 1977   8.760   1.854   7.747 -0.2190  0.2365  0.4211
   69bbb     H4 1978   8.816   1.690   7.699  2.1252 -0.6203  0.2695
   69bbb     C3 1979   9.062   1.710   7.784 -0.1897 -0.2760  0.4009
   69bbb     H5 1980   9.157   1.740   7.831 -0.8994  0.1838  1.5745
   69bbb     H6 1981   9.095   1.726   7.680  2.6491 -0.1125  1.2392
   69bbb     C4 1982   9.026   1.561   7.814 -0.5385 -0.1945  0.0796
   69bbb     H7 1983   9.095   1.491   7.766 -0.8292  0.6788 -1.7030
   69bbb     H8 1984   8.939   1.520   7.762  0.6968 -4.2073  0.7830
   69bbb     C5 1985   8.892   2.032   7.896  0.1875 -1.3721  0.4458
   69bbb     H9 1986   8.835   1.985   7.978 -4.0773 -0.0367 -1.4601
   69bbb    H10 1987   8.826   2.048   7.810  2.1615  0.1646 -0.8455
   69bbb     C6 1988   8.893   1.847   7.576 -0.3949  0.8570 -0.7935
   69bbb    H11 1989   8.946   1.766   7.525  0.7811  0.1145  1.4747
   69bbb    H12 1990   8.965   1.929   7.588  1.3543 -0.6161 -0.9112
   69bbb     C7 1991   9.021   1.521   7.963 -0.2829 -1.2123  0.3058
   69bbb    H13 1992   8.977   1.421   7.970 -1.7676 -0.5578  0.5417
   69bbb    H14 1993   8.954   1.595   8.007 -0.3360 -1.5873  0.8697
   69bbb     C8 1994   8.765   1.897   7.495 -0.1366 -0.8573 -0.6360
   69bbb    H15 1995   8.687   1.820   7.501 -1.3264  0.3900  1.4110
   69bbb    H16 1996   8.784   1.910   7.388  3.2815 -0.1621 -0.0461
   69bbb     C9 1997   8.952   2.174   7.940  0.4743 -0.1776 -0.0626
   69bbb    H17 1998   9.040   2.144   7.999 -0.0493 -0.2999  0.6727
   69bbb    H18 1999   8.877   2.227   7.999  0.0575 -0.2849 -0.4900
   69bbb     O1 2000   9.148   1.523   8.023  0.0381 -0.2331 -0.0417
   70bbb     N1 2001   9.938   1.249   8.943  0.1544 -0.4121  0.1533
   70bbb     C1 2002   9.994   1.117   8.907  0.4651 -0.3678  0.1465
   70bbb     H1 2003  10.104   1.121   8.903  0.4526 -0.2378 -0.0912
   70bbb     H2 2004   9.969   1.095   8.802  4.0984 -1.9011 -0.5620
   70bbb     C2 2005  10.026   1.363   8.908  0.8240  0.2636  0.1539
   70bbb     H3 2006  10.127   1.337   8.944  0.5819  0.2769  0.8546
   70bbb     H4 2007  10.000   1.454   8.963  0.8288  1.0799 -1.1454
   70bbb     C3 2008   9.800   1.281   8.911 -0.5467 -0.6839 -0.6006
   70bbb     H5 2009   9.743   1.200   8.958  1.5084 -0.8581  1.8623
   70bbb     H6 2010   9.777   1.277   8.804  1.1954 -1.0776 -1.0040
   70bbb     C4 2011   9.742   1.418   8.970 -0.5360 -0.1450 -0.1469
   70bbb     H7 2012   9.793   1.509   8.937 -0.1343 -0.6739 -1.0252
   70bbb     H8 2013   9.772   1.412   9.076  1.8040 -0.0313 -0.7405
   70bbb     C5 2014   9.961   1.007   9.008 -0.0576  0.0504  0.2175
   70bbb     H9 2015   9.853   1.002   9.022 -0.4079  1.1422 -1.6984
   70bbb    H10 2016  10.020   1.030   9.097 -1.7813  0.6514  1.2479
   70bbb     C6 2017  10.039   1.404   8.756  0.4065 -0.5421 -0.2026
   70bbb    H11 2018   9.938   1.408   8.712  0.3445 -1.4019 -0.1534
   70bbb    H12 2019  10.088   1.316   8.712 -0.1277 -0.6213 -0.6496
   70bbb     C7 2020   9.592   1.435   8.972  0.3303  0.3885  0.2270
   70bbb    H13 2021   9.574   1.529   9.025 -2.7922  0.0195  0.0100
   70bbb    H14 2022   9.549   1.353   9.031  0.1822  1.3188  1.4465
   70bbb     C8 2023  10.129   1.532   8.736 -0.4102 -0.0477 -0.0144
   70bbb    H15 2024  10.207   1.541   8.813 -1.0079  0.8733  0.5098
   70bbb    H16 2025  10.064   1.620   8.740  2.3094  2.0517  1.0975
   70bbb     C9 2026  10.013   0.873   8.955  0.0298  0.0962  0.2889
   70bbb    H17 2027  10.122   0.871   8.942 -0.0217 -0.5026 -0.1190
   70bbb    H18 2028   9.970   0.862   8.854 -1.2428  1.8002  0.5930
   70bbb     O1 2029   9.548   1.451   8.833 -0.6805  0.4596 -0.3053
   71bbb     N1 2030  12.477   1.836   7.470  0.6060 -0.2007  0.1842
   71bbb     C1 2031  12.438   1.787   7.610 -0.7181 -0.4765  0.0182
   71bbb     H1 2032  12.518   1.726   7.653 -0.1994 -0.1897 -0.5263
   71bbb     H2 2033  12.352   1.720   7.601 -0.1732 -1.2187  0.2508
   71bbb     C2 2034  12.460   1.732   7.361  0.4562 -0.4143 -0.4865
   71bbb     H3 2035  12.491   1.773   7.264 -1.4220  1.2811 -0.4409
   71bbb     H4 2036  12.353   1.712   7.351  0.7702 -2.5285 -0.1409
   71bbb     C3 2037  12.417   1.965   7.421  0.2469  0.3329  0.3647
   71bbb     H5 2038  12.445   1.979   7.316 -0.9041  2.1457  0.2514
   71bbb     H6 2039  12.459   2.050   7.476  0.1410 -0.5904  1.9341
   71bbb     C4 2040  12.263   1.966   7.424 -0.1584 -0.8289  0.9107
   71bbb     H7 2041  12.228   1.948   7.526 -1.0052 -1.2691  0.5510
   71bbb     H8 2042  12.223   1.887   7.359  0.4580  0.5157 -1.2166
   71bbb     C5 2043  12.426   1.893   7.719 -0.3825 -0.5625 -0.7191
   71bbb     H9 2044  12.363   1.978   7.690 -0.8828 -0.8076 -0.3851
   71bbb    H10 2045  12.528   1.931   7.728  0.5574 -2.2049 -3.1919
   71bbb     C6 2046  12.537   1.602   7.392  0.0826  0.0760 -0.1819
   71bbb    H11 2047  12.490   1.555   7.479  0.9493 -0.0748  0.2208
   71bbb    H12 2048  12.641   1.622   7.423 -0.4146  0.1932  1.5569
   71bbb     C7 2049  12.202   2.090   7.371 -0.3021 -0.5830 -0.6427
   71bbb    H13 2050  12.245   2.120   7.274  1.3033 -1.5337 -0.2589
   71bbb    H14 2051  12.224   2.174   7.438  1.6197 -1.9432  0.5461
   71bbb     C8 2052  12.534   1.503   7.272 -0.6894  0.3287  0.4386
   71bbb    H15 2053  12.624   1.440   7.268 -0.7010  0.3590 -0.6242
   71bbb    H16 2054  12.544   1.563   7.181  0.3127  0.8461  0.8619
   71bbb     C9 2055  12.375   1.833   7.856  0.0646 -0.6872 -0.0901
   71bbb    H17 2056  12.274   1.790   7.853 -0.2846 -0.0058  0.9951
   71bbb    H18 2057  12.372   1.919   7.924 -0.4564 -0.9903  0.2806
   71bbb     O1 2058  12.061   2.073   7.353  0.3235 -0.4815 -0.5025
   72bbb     N1 2059  11.642   2.148   6.423  0.2832  0.5472  0.7971
   72bbb     C1 2060  11.536   2.080   6.503  0.0480  0.0585 -0.8611
   72bbb     H1 2061  11.492   2.144   6.581  1.0283  0.0670 -0.3017
   72bbb     H2 2062  11.573   2.003   6.572 -3.4590  1.6009  3.2309
   72bbb     C2 2063  11.611   2.260   6.326  0.1622  0.2674 -0.3271
   72bbb     H3 2064  11.509   2.244   6.288  0.4338 -1.2873 -0.4923
   72bbb     H4 2065  11.684   2.265   6.245 -0.0209  2.4119 -0.4188
   72bbb     C3 2066  11.763   2.159   6.495 -0.4979  0.4324 -0.0916
   72bbb     H5 2067  11.792   2.067   6.548 -0.2494  0.5200 -0.0750
   72bbb     H6 2068  11.748   2.230   6.577 -1.6942 -1.0037  1.0083
   72bbb     C4 2069  11.889   2.206   6.414 -0.3502 -0.5762  0.5106
   72bbb     H7 2070  11.880   2.303   6.364  1.2627 -0.3031  0.6951
   72bbb     H8 2071  11.912   2.130   6.339  1.5749  0.0778  0.3765
   72bbb     C5 2072  11.423   2.022   6.407 -0.5250  0.1633 -0.3510
   72bbb     H9 2073  11.467   1.963   6.327 -0.0865 -1.3019  0.9245
   72bbb    H10 2074  11.375   2.106   6.355  0.0457 -0.0029 -1.1549
   72bbb     C6 2075  11.606   2.396   6.395  0.3705 -0.6374 -0.2240
   72bbb    H11 2076  11.705   2.419   6.436  0.5546 -0.3670 -0.8052
   72bbb    H12 2077  11.542   2.384   6.483  0.0708 -1.9020 -0.5964
   72bbb     C7 2078  12.012   2.230   6.511  0.0192  0.5795  0.8300
   72bbb    H13 2079  11.991   2.274   6.610 -1.0814  0.5727  0.6066
   72bbb    H14 2080  12.086   2.292   6.458 -0.5809 -2.0403 -3.5644
   72bbb     C8 2081  11.553   2.509   6.296  0.8416  0.0754  0.6943
   72bbb    H15 2082  11.543   2.607   6.345 -0.4107  0.1694  0.2868
   72bbb    H16 2083  11.459   2.472   6.254  0.7875 -0.6820  1.4515
   72bbb     C9 2084  11.322   1.934   6.482 -0.6013  0.1242 -0.2972
   72bbb    H17 2085  11.280   1.982   6.572  2.7334  1.0977  0.8878
   72bbb    H18 2086  11.359   1.835   6.510  0.9050  0.1672 -2.0221
   72bbb     O1 2087  12.068   2.099   6.533  0.1010 -0.2673  0.2711
   73bbb     N1 2088  11.847   1.596   7.769  0.2833 -0.2731 -0.1907
   73bbb     C1 2089  11.902   1.497   7.865 -0.2169 -0.7491 -0.1508
   73bbb     H1 2090  11.907   1.398   7.818  0.1130 -0.7646 -0.0832
   73bbb     H2 2091  11.838   1.476   7.951 -0.4376 -3.2330 -0.8468
   73bbb     C2 2092  11.713   1.560   7.722  0.9167  0.7538  0.6104
   73bbb     H3 2093  11.656   1.648   7.691  0.3610  1.2249  2.7971
   73bbb     H4 2094  11.649   1.535   7.808 -0.6910  1.8607 -0.2145
   73bbb     C3 2095  11.937   1.641   7.657 -0.2376 -0.3439 -0.0611
   73bbb     H5 2096  11.962   1.556   7.593 -2.8040 -1.5772  0.4201
   73bbb     H6 2097  12.032   1.672   7.702 -0.7343 -1.2385  1.7171
   73bbb     C4 2098  11.885   1.760   7.580 -0.1665  0.3705 -0.1528
   73bbb     H7 2099  11.894   1.860   7.626  2.0059  1.2228 -2.2033
   73bbb     H8 2100  11.779   1.742   7.557 -0.2286 -0.0525  0.4419
   73bbb     C5 2101  12.040   1.522   7.923 -0.5576 -0.4873 -0.3616
   73bbb     H9 2102  12.042   1.624   7.965  0.6388  0.4731 -2.6097
   73bbb    H10 2103  12.116   1.523   7.845 -0.1157  1.1995  0.0608
   73bbb     C6 2104  11.719   1.455   7.612 -0.0636 -0.0622  0.4774
   73bbb    H11 2105  11.772   1.367   7.651  0.2062  0.3444  1.0453
   73bbb    H12 2106  11.780   1.491   7.529  1.8495  1.2346  2.3406
   73bbb     C7 2107  11.965   1.774   7.449  0.2894 -0.0980  0.4798
   73bbb    H13 2108  12.073   1.787   7.461  0.5751 -3.0619  1.8633
   73bbb    H14 2109  11.919   1.859   7.396 -0.6823 -0.1270  1.2439
   73bbb     C8 2110  11.577   1.411   7.563  0.2167 -0.0575 -0.2121
   73bbb    H15 2111  11.573   1.325   7.496 -0.1389  0.1773 -0.4898
   73bbb    H16 2112  11.518   1.487   7.512  0.2977 -0.7338 -1.3353
   73bbb     C9 2113  12.075   1.421   8.031  0.2571 -0.0305  0.5480
   73bbb    H17 2114  12.183   1.434   8.048  0.2802 -0.1700  0.5081
   73bbb    H18 2115  12.062   1.317   7.998  1.0093  0.0879 -0.1712
   73bbb     O1 2116  11.948   1.659   7.369 -0.3574 -0.2382  0.6143
   74bbb     N1 2117  12.309   0.765   7.007  0.1529  0.3770  0.0152
   74bbb     C1 2118  12.412   0.663   7.017  0.8618  0.8763  0.4564
   74bbb     H1 2119  12.413   0.607   6.923  0.3646  0.9895  0.3835
   74bbb     H2 2120  12.396   0.601   7.106  0.1490  0.1028 -0.1927
   74bbb     C2 2121  12.182   0.719   6.954  0.0262  0.1628  0.6612
   74bbb     H3 2122  12.117   0.678   7.033  0.8783  0.9350  1.7945
   74bbb     H4 2123  12.190   0.641   6.877 -1.2633  0.8274 -0.1759
   74bbb     C3 2124  12.294   0.848   7.140  0.0923  0.4072  0.3434
   74bbb     H5 2125  12.253   0.946   7.114 -1.3279 -0.1098  0.5375
   74bbb     H6 2126  12.391   0.869   7.188  0.6236 -2.1590  0.5550
   74bbb     C4 2127  12.209   0.777   7.252 -0.0166  0.1652 -0.5335
   74bbb     H7 2128  12.242   0.675   7.276  1.6846  0.3545 -1.8887
   74bbb     H8 2129  12.105   0.764   7.220  0.0636 -2.7413  0.1100
   74bbb     C5 2130  12.556   0.717   7.037  0.6841 -0.1753 -0.3150
   74bbb     H9 2131  12.563   0.806   7.101 -0.9908 -1.2334  1.4766
   74bbb    H10 2132  12.590   0.747   6.938  0.9184 -0.9315 -0.4697
   74bbb     C6 2133  12.097   0.826   6.885  0.4212  0.7814  0.2194
   74bbb    H11 2134  12.167   0.893   6.834  0.0383 -0.8060 -2.5717
   74bbb    H12 2135  12.036   0.881   6.958 -0.2073  1.3602 -0.7187
   74bbb     C7 2136  12.216   0.860   7.378  0.0576 -0.0501  0.7555
   74bbb    H13 2137  12.322   0.883   7.395  0.2948 -0.2270 -0.3427
   74bbb    H14 2138  12.173   0.802   7.460 -0.1145  2.6504  2.6998
   74bbb     C8 2139  11.997   0.775   6.778  0.9964 -0.3422  0.2756
   74bbb    H15 2140  11.931   0.858   6.749  1.3597 -0.0858  0.1760
   74bbb    H16 2141  11.947   0.685   6.816  1.3062 -0.3869  0.5829
   74bbb     C9 2142  12.659   0.612   7.091  0.0446  0.0044  0.5824
   74bbb    H17 2143  12.758   0.634   7.049  0.6823  2.3659  3.0253
   74bbb    H18 2144  12.628   0.510   7.064 -0.0945 -0.6470  2.9409
   74bbb     O1 2145  12.141   0.982   7.346 -0.0504 -0.1604 -0.4050
   75bbb     N1 2146  12.005   2.684   8.215 -0.2165  0.3471 -0.4739
   75bbb     C1 2147  12.038   2.598   8.100  0.3107  0.8613  0.1664
   75bbb     H1 2148  11.951   2.558   8.046  0.9382 -1.6978  0.8976
   75bbb     H2 2149  12.089   2.509   8.140 -0.0758 -0.1706 -1.5149
   75bbb     C2 2150  12.125   2.716   8.297 -0.0387 -0.4073 -1.0648
   75bbb     H3 2151  12.168   2.805   8.249  1.5143 -1.3919 -1.5525
   75bbb     H4 2152  12.201   2.639   8.282  1.4101  0.2966  1.8829
   75bbb     C3 2153  11.905   2.789   8.191  0.9557 -0.2373  0.3777
   75bbb     H5 2154  11.917   2.838   8.093 -1.8476 -0.3902 -0.1267
   75bbb     H6 2155  11.911   2.866   8.269  0.8254  1.3688 -1.1118
   75bbb     C4 2156  11.759   2.730   8.186  0.1433  0.1596  0.0947
   75bbb     H7 2157  11.738   2.717   8.293  2.3420 -1.5768  0.3780
   75bbb     H8 2158  11.763   2.631   8.139  1.2252 -0.6942  1.8679
   75bbb     C5 2159  12.144   2.655   8.003  0.7457 -0.0732 -0.3857
   75bbb     H9 2160  12.227   2.686   8.068 -1.2789  1.7380  1.4852
   75bbb    H10 2161  12.106   2.750   7.966  1.7955 -0.0631 -1.4960
   75bbb     C6 2162  12.102   2.742   8.452  0.3712 -0.4902 -0.6752
   75bbb    H11 2163  12.030   2.824   8.459 -2.4429 -2.8767  0.3610
   75bbb    H12 2164  12.194   2.763   8.508 -0.3922  3.2537 -0.5707
   75bbb     C7 2165  11.646   2.817   8.128  0.0570 -0.3669  0.6353
   75bbb    H13 2166  11.645   2.815   8.018 -0.3938  1.6853  0.5675
   75bbb    H14 2167  11.663   2.920   8.163 -0.5334 -0.0526  0.0164
   75bbb     C8 2168  12.049   2.616   8.521  0.3356 -0.0914  0.1931
   75bbb    H15 2169  12.116   2.532   8.498  0.4480  0.5209 -1.9248
   75bbb    H16 2170  11.951   2.599   8.473  1.2952  0.1962 -1.9777
   75bbb     C9 2171  12.206   2.564   7.892  0.1554  0.3962 -0.0755
   75bbb    H17 2172  12.257   2.630   7.820  2.3788  0.3927  1.3703
   75bbb    H18 2173  12.122   2.514   7.843  0.7165 -0.5711 -0.0847
   75bbb     O1 2174  11.522   2.765   8.187 -0.5316 -0.1737  0.0490
   76bbb     N1 2175  11.622   2.828   9.160  0.2516  0.1409  0.8148
   76bbb     C1 2176  11.632   2.698   9.231  0.4880  0.1443  0.0010
   76bbb     H1 2177  11.537   2.673   9.279  0.0329  3.7111  1.2387
   76bbb     H2 2178  11.706   2.710   9.312  0.1756  0.2471  0.2735
   76bbb     C2 2179  11.749   2.879   9.107  0.0216 -0.2514 -0.2427
   76bbb     H3 2180  11.741   2.987   9.088  0.6386  0.1357  1.4935
   76bbb     H4 2181  11.785   2.826   9.018  1.0455 -0.7418  0.4495
   76bbb     C3 2182  11.529   2.842   9.048  0.6352  0.2595 -0.6546
   76bbb     H5 2183  11.559   2.775   8.967 -2.3950 -0.5301 -1.2296
   76bbb     H6 2184  11.526   2.942   9.003  3.2816 -0.1769 -1.9808
   76bbb     C4 2185  11.377   2.817   9.089 -0.4006  0.1971  0.1756
   76bbb     H7 2186  11.344   2.901   9.151  1.4071  2.5757 -1.8911
   76bbb     H8 2187  11.376   2.723   9.146 -0.4097  0.8465  1.2830
   76bbb     C5 2188  11.685   2.584   9.142  0.4465 -0.1692 -0.4376
   76bbb     H9 2189  11.790   2.610   9.126  0.4697  0.3643  0.5201
   76bbb    H10 2190  11.623   2.591   9.052 -3.0774  0.4780  1.8378
   76bbb     C6 2191  11.866   2.879   9.205 -0.6227  0.8029 -0.4294
   76bbb    H11 2192  11.926   2.787   9.200 -0.3361  0.8656  1.3447
   76bbb    H12 2193  11.831   2.884   9.309  0.0539  0.8891 -0.2018
   76bbb     C7 2194  11.284   2.807   8.967  0.6767 -0.1661 -0.4014
   76bbb    H13 2195  11.288   2.899   8.909 -3.8375  0.1766 -0.4722
   76bbb    H14 2196  11.182   2.802   9.007  0.7740  2.1149  0.2546
   76bbb     C8 2197  11.959   3.005   9.179  0.6456 -0.3740  0.5948
   76bbb    H15 2198  11.914   3.093   9.228 -0.7107 -0.1859 -0.8954
   76bbb    H16 2199  11.968   3.034   9.074 -0.0451 -1.8992  0.0783
   76bbb     C9 2200  11.672   2.445   9.204  0.0220 -0.2325 -0.4884
   76bbb    H17 2201  11.565   2.422   9.220  0.1227  1.0983  2.6962
   76bbb    H18 2202  11.724   2.440   9.300  2.4608 -1.2692 -1.7781
   76bbb     O1 2203  11.313   2.690   8.888  0.1692 -0.1324 -0.0813
   77bbb     N1 2204  10.356   1.094   9.149  0.3745  0.0106 -0.1946
   77bbb     C1 2205  10.312   0.988   9.247  0.1757  0.3824  0.6690
   77bbb     H1 2206  10.371   0.898   9.222 -0.3310  0.2013  0.0736
   77bbb     H2 2207  10.205   0.963   9.237  0.7439 -1.4335 -2.5808
   77bbb     C2 2208  10.364   1.048   9.009 -0.4223  0.6569  0.2127
   77bbb     H3 2209  10.412   1.128   8.950 -0.1268 -0.4602 -1.1199
   77bbb     H4 2210  10.267   1.032   8.960  0.9012  0.8136 -2.7268
   77bbb     C3 2211  10.295   1.225   9.169 -0.8269 -0.1008  0.3043
   77bbb     H5 2212  10.302   1.257   9.274 -0.7252  2.9801 -0.5405
   77bbb     H6 2213  10.189   1.220   9.142 -1.2207 -1.4743  1.8879
   77bbb     C4 2214  10.356   1.348   9.086  0.3894  0.1405 -0.3694
   77bbb     H7 2215  10.333   1.323   8.981  1.5489 -2.4796 -0.0802
   77bbb     H8 2216  10.465   1.352   9.095  0.1615  1.1119  3.1772
   77bbb     C5 2217  10.344   1.014   9.393  0.2901 -0.4301 -0.0283
   77bbb     H9 2218  10.282   1.091   9.439  1.6982 -0.3974  1.9782
   77bbb    H10 2219  10.446   1.049   9.412 -0.4403  1.5635  0.3697
   77bbb     C6 2220  10.457   0.923   8.981  0.5396 -0.7399  0.2647
   77bbb    H11 2221  10.488   0.923   8.876  0.6472 -1.1835  0.2953
   77bbb    H12 2222  10.404   0.828   8.988 -0.3152 -0.4137 -1.3349
   77bbb     C7 2223  10.286   1.485   9.119  0.0764 -0.6259 -0.0535
   77bbb    H13 2224  10.312   1.512   9.222 -1.1153  1.9494 -0.3342
   77bbb    H14 2225  10.178   1.470   9.104  0.3828 -2.4649 -0.5741
   77bbb     C8 2226  10.585   0.913   9.072 -0.2754 -0.1616 -0.7524
   77bbb    H15 2227  10.560   0.933   9.177 -1.3414  0.3827 -1.0905
   77bbb    H16 2228  10.657   0.993   9.052  0.3028 -0.3903  0.3501
   77bbb     C9 2229  10.311   0.891   9.488  0.7184  0.0907 -0.1783
   77bbb    H17 2230  10.265   0.808   9.433  0.1116  0.7308 -0.6511
   77bbb    H18 2231  10.252   0.919   9.576  1.2036 -0.1685  0.2374
   77bbb     O1 2232  10.344   1.577   9.035  0.5455 -0.2991 -0.4698
   78bbb     N1 2233  10.685   1.459   9.256 -0.8246  0.4699 -0.1369
   78bbb     C1 2234  10.730   1.337   9.334 -0.0914 -0.3745 -0.0209
   78bbb     H1 2235  10.722   1.355   9.442 -0.9176  1.6803 -0.3867
   78bbb     H2 2236  10.838   1.333   9.315 -0.0296  1.3740 -0.2229
   78bbb     C2 2237  10.561   1.529   9.290 -0.8500 -0.3468  0.2241
   78bbb     H3 2238  10.488   1.447   9.294  1.5601 -2.6286  0.3878
   78bbb     H4 2239  10.547   1.608   9.215  1.6098  1.3384  1.4014
   78bbb     C3 2240  10.716   1.454   9.116  0.3743 -0.0661  0.4230
   78bbb     H5 2241  10.681   1.547   9.070  0.0305 -0.7037 -0.6420
   78bbb     H6 2242  10.660   1.373   9.067 -0.1085 -0.4574  1.6022
   78bbb     C4 2243  10.866   1.420   9.089 -0.1732 -0.5178  0.3148
   78bbb     H7 2244  10.888   1.314   9.103 -0.3760 -0.3831  1.8537
   78bbb     H8 2245  10.941   1.465   9.156  1.4792  0.1422 -1.8733
   78bbb     C5 2246  10.661   1.209   9.292  0.6555  0.3223  0.0435
   78bbb     H9 2247  10.674   1.188   9.186 -2.9740  0.8565 -0.6470
   78bbb    H10 2248  10.554   1.216   9.317  0.6674 -1.5431  0.8501
   78bbb     C6 2249  10.566   1.601   9.425  0.4371  0.1422  0.0421
   78bbb    H11 2250  10.580   1.527   9.505  1.7011 -0.3892 -0.6388
   78bbb    H12 2251  10.468   1.644   9.445  0.5234  0.9822 -1.1805
   78bbb     C7 2252  10.906   1.448   8.944 -0.1213 -0.2575 -0.3461
   78bbb    H13 2253  10.831   1.395   8.884  0.7307 -2.1806  0.2172
   78bbb    H14 2254  11.003   1.401   8.922  0.5804 -0.4776  2.7121
   78bbb     C8 2255  10.658   1.723   9.441 -0.2816 -0.8892 -0.0866
   78bbb    H15 2256  10.621   1.793   9.517 -1.9190  0.2734 -1.8341
   78bbb    H16 2257  10.663   1.779   9.346  0.4929  0.7650  0.8763
   78bbb     C9 2258  10.720   1.094   9.378 -0.2363  0.0808  0.1076
   78bbb    H17 2259  10.653   1.008   9.368 -1.0075  0.7068 -0.2552
   78bbb    H18 2260  10.735   1.140   9.477  1.9496  0.9544 -0.5556
   78bbb     O1 2261  10.929   1.586   8.919  0.2943  0.1302 -0.0305
   79bbb     N1 2262   9.215  -1.024   5.979 -0.4897 -0.9036 -0.1251
   79bbb     C1 2263   9.074  -0.992   6.018 -0.2948  0.7728  0.0398
   79bbb     H1 2264   9.006  -1.009   5.933  1.3698 -1.5296 -0.9390
   79bbb     H2 2265   9.067  -0.886   6.045  0.2592  0.5055  1.3204
   79bbb     C2 2266   9.217  -1.094   5.847 -0.0103 -0.4479  0.4939
   79bbb     H3 2267   9.318  -1.114   5.808 -0.6712 -2.8916 -0.1391
   79bbb     H4 2268   9.158  -1.033   5.778  1.6121  0.9490  0.2804
   79bbb     C3 2269   9.314  -0.910   5.995  0.4073 -0.4356 -0.3895
   79bbb     H5 2270   9.297  -0.831   5.921  1.7338  0.6014  0.3597
   79bbb     H6 2271   9.411  -0.957   5.973  1.5109 -0.3624  3.6102
   79bbb     C4 2272   9.322  -0.849   6.136  0.7153  0.4881 -0.1929
   79bbb     H7 2273   9.305  -0.937   6.199 -0.5286 -0.4623 -1.7633
   79bbb     H8 2274   9.239  -0.782   6.161  0.8957  0.4679  0.4666
   79bbb     C5 2275   9.041  -1.065   6.150  0.4105  0.2778 -0.3369
   79bbb     H9 2276   9.106  -1.034   6.233  0.9467  3.1385 -1.6849
   79bbb    H10 2277   9.062  -1.171   6.132 -0.0040  0.0545  0.4546
   79bbb     C6 2278   9.157  -1.232   5.857  0.2576  0.8919  0.3461
   79bbb    H11 2279   9.180  -1.280   5.953 -1.8897  0.5425  0.7523
   79bbb    H12 2280   9.203  -1.280   5.770 -0.6245  1.8814 -0.7043
   79bbb     C7 2281   9.457  -0.773   6.161 -0.4287 -0.0328 -0.4941
   79bbb    H13 2282   9.537  -0.847   6.148 -0.2041  0.4495 -2.1450
   79bbb    H14 2283   9.469  -0.744   6.266 -0.1920 -0.7994 -0.3041
   79bbb     C8 2284   9.002  -1.248   5.832  0.2468  0.4662  0.5334
   79bbb    H15 2285   8.946  -1.195   5.910  0.3410  2.5178 -0.7088
   79bbb    H16 2286   8.989  -1.357   5.827 -0.4680  0.5234  0.9584
   79bbb     C9 2287   8.894  -1.050   6.196  0.3563  0.3644  0.3355
   79bbb    H17 2288   8.876  -0.941   6.196  3.4639  0.9790 -0.2341
   79bbb    H18 2289   8.882  -1.090   6.298 -0.8516 -2.5643 -0.8606
   79bbb     O1 2290   9.459  -0.654   6.076  0.0051  0.3202 -0.0513
   80bbb     N1 2291   8.883   0.542   6.156  0.3051 -0.1011 -0.4467
   80bbb     C1 2292   8.827   0.501   6.017 -0.2844  0.4117  0.4612
   80bbb     H1 2293   8.724   0.535   6.001 -0.4563 -0.9888 -1.8823
   80bbb     H2 2294   8.812   0.393   6.013  0.8824  0.2670 -1.9931
   80bbb     C2 2295   8.864   0.681   6.202 -0.0910 -0.0670 -0.0665
   80bbb     H3 2296   8.928   0.738   6.135  1.4277 -1.6578 -0.0639
   80bbb     H4 2297   8.899   0.696   6.305  0.6768 -1.4696 -0.0872
   80bbb     C3 2298   9.022   0.491   6.178  0.2488  1.3747  0.0819
   80bbb     H5 2299   9.050   0.514   6.282  0.9507 -3.6681  1.2911
   80bbb     H6 2300   9.091   0.546   6.113 -0.7266  1.6115 -0.7740
   80bbb     C4 2301   9.043   0.335   6.154 -0.2292 -0.5436  0.5838
   80bbb     H7 2302   9.019   0.315   6.049 -0.7845 -0.3631  0.6732
   80bbb     H8 2303   8.975   0.269   6.210 -3.2366  0.0770 -2.0493
   80bbb     C5 2304   8.900   0.552   5.891 -0.1485  0.7301  1.1353
   80bbb     H9 2305   9.006   0.530   5.910  0.5134  1.7583 -1.1608
   80bbb    H10 2306   8.884   0.659   5.876 -1.0646  0.4437 -0.0615
   80bbb     C6 2307   8.725   0.747   6.203  0.0493  0.2410  0.1653
   80bbb    H11 2308   8.673   0.728   6.108  0.3480  1.9619 -0.3707
   80bbb    H12 2309   8.739   0.856   6.206  0.0780  0.3197 -1.6175
   80bbb     C7 2310   9.186   0.285   6.163 -0.1644  0.7737  0.2860
   80bbb    H13 2311   9.201   0.280   6.272 -0.0709  2.4019  0.3773
   80bbb    H14 2312   9.261   0.353   6.121  0.6542 -1.1640 -1.5634
   80bbb     C8 2313   8.635   0.702   6.321  0.5576  0.3312  0.3873
   80bbb    H15 2314   8.547   0.766   6.330 -0.0579 -0.0759 -2.0106
   80bbb    H16 2315   8.710   0.716   6.400  2.3058  0.7114 -1.2658
   80bbb     C9 2316   8.851   0.473   5.766  0.0782 -0.9480  0.3341
   80bbb    H17 2317   8.902   0.514   5.678 -0.9466 -3.2837 -1.4144
   80bbb    H18 2318   8.743   0.493   5.767  0.5092  2.0026 -1.3647
   80bbb     O1 2319   9.189   0.146   6.112  0.0618  0.3808  0.3384
   81bbb     N1 2320  11.533   0.361   4.902 -0.0069 -0.2814  0.5347
   81bbb     C1 2321  11.576   0.226   4.863  0.0849 -0.0929 -0.0495
   81bbb     H1 2322  11.493   0.181   4.807 -0.9495  1.2351  0.3499
   81bbb     H2 2323  11.595   0.172   4.957  1.7935  3.9095  2.1936
   81bbb     C2 2324  11.640   0.441   4.958  0.8826  0.0598 -0.7179
   81bbb     H3 2325  11.707   0.458   4.873 -0.3955  1.1330 -1.5531
   81bbb     H4 2326  11.682   0.389   5.046 -1.7736 -2.7086 -0.9102
   81bbb     C3 2327  11.396   0.362   4.962 -0.0745  0.0482 -0.0439
   81bbb     H5 2328  11.332   0.296   4.903  0.1513  0.6653 -0.9949
   81bbb     H6 2329  11.353   0.462   4.955  1.8412  1.0627  1.5776
   81bbb     C4 2330  11.393   0.304   5.104  0.0437 -0.4741 -0.6737
   81bbb     H7 2331  11.434   0.379   5.173 -2.0064  0.5302 -0.4590
   81bbb     H8 2332  11.448   0.209   5.100  0.0225 -0.4726 -3.6148
   81bbb     C5 2333  11.688   0.214   4.769 -0.2968  1.1188 -0.0327
   81bbb     H9 2334  11.773   0.274   4.805  1.5534 -0.5686 -1.3618
   81bbb    H10 2335  11.657   0.264   4.676 -0.0107  2.2304  0.4538
   81bbb     C6 2336  11.594   0.589   4.999 -0.3554 -0.0489  0.1751
   81bbb    H11 2337  11.510   0.589   5.069 -0.9307  1.3916 -0.4805
   81bbb    H12 2338  11.550   0.630   4.907  0.8648 -1.6699 -1.1860
   81bbb     C7 2339  11.249   0.255   5.145  0.3034 -0.4031  0.4652
   81bbb    H13 2340  11.226   0.152   5.115  2.2405 -0.3610 -1.4551
   81bbb    H14 2341  11.173   0.317   5.095 -3.0672 -0.9965  4.3496
   81bbb     C8 2342  11.714   0.674   5.052 -0.4994 -0.2538 -0.0919
   81bbb    H15 2343  11.777   0.698   4.965  1.2962 -0.5574  1.0798
   81bbb    H16 2344  11.776   0.611   5.116  1.0082  0.0504 -1.1982
   81bbb     C9 2345  11.732   0.067   4.740  0.6258 -0.1519 -0.4442
   81bbb    H17 2346  11.799   0.067   4.653 -0.9040 -0.3582 -1.6583
   81bbb    H18 2347  11.645   0.013   4.700  1.8420 -2.8233  0.3381
   81bbb     O1 2348  11.236   0.261   5.285 -0.2693 -0.4504 -0.5047
   82bbb     N1 2349  11.087   1.006   5.652 -0.0709  0.3177 -0.4090
   82bbb     C1 2350  11.012   1.011   5.523 -0.3247  0.0346 -0.6712
   82bbb     H1 2351  10.920   1.070   5.525 -0.3700 -0.0438 -0.3368
   82bbb     H2 2352  10.967   0.913   5.503  0.6498 -0.4472 -0.6046
   82bbb     C2 2353  11.157   1.133   5.684  0.1965  0.4023  0.4958
   82bbb     H3 2354  11.081   1.211   5.695 -1.3851 -0.8179 -1.2893
   82bbb     H4 2355  11.232   1.152   5.607 -0.5733  0.1567 -0.3260
   82bbb     C3 2356  11.003   0.949   5.758 -0.9768 -0.0307 -0.0922
   82bbb     H5 2357  10.902   0.992   5.755 -0.1436  2.5879  3.2208
   82bbb     H6 2358  11.048   0.970   5.855 -0.1060  1.7450 -0.8347
   82bbb     C4 2359  11.000   0.796   5.733 -0.5145  0.4376  0.1548
   82bbb     H7 2360  11.099   0.758   5.706 -1.2668 -2.1806  0.8292
   82bbb     H8 2361  10.940   0.773   5.644 -1.1971  1.1773  0.4113
   82bbb     C5 2362  11.099   1.031   5.398 -0.1872 -0.2860 -0.3749
   82bbb     H9 2363  11.136   1.134   5.396  0.0815 -0.3945 -0.9925
   82bbb    H10 2364  11.030   1.017   5.314 -0.0667 -0.0354 -0.5160
   82bbb     C6 2365  11.260   1.126   5.801  1.0439  0.4040  0.7495
   82bbb    H11 2366  11.200   1.123   5.893  0.6318 -2.3870  0.4930
   82bbb    H12 2367  11.321   1.217   5.791  1.8138 -0.2468 -0.7508
   82bbb     C7 2368  10.945   0.716   5.854  0.1614  0.0404 -0.1360
   82bbb    H13 2369  10.849   0.755   5.889  0.8126 -0.0731  1.9128
   82bbb    H14 2370  11.009   0.713   5.943 -1.7898  0.5159  1.3490
   82bbb     C8 2371  11.352   1.000   5.808 -0.0833 -0.5215 -0.7470
   82bbb    H15 2372  11.292   0.908   5.806 -0.1530 -0.5807  1.6514
   82bbb    H16 2373  11.406   0.980   5.901  0.7661  1.2321 -0.8294
   82bbb     C9 2374  11.229   0.935   5.393  0.0482 -0.8270 -0.3342
   82bbb    H17 2375  11.287   0.954   5.484 -0.4569  0.5594 -0.2746
   82bbb    H18 2376  11.290   0.957   5.305 -0.6620  2.0734 -0.2140
   82bbb     O1 2377  10.928   0.576   5.813 -0.0276 -0.4496 -1.1714
   83bbb     N1 2378   9.686   0.106   4.837 -0.0930  0.8763 -0.3132
   83bbb     C1 2379   9.612   0.094   4.707 -0.5671  0.1484  0.0364
   83bbb     H1 2380   9.551   0.004   4.723 -1.9475  1.0152 -0.1176
   83bbb     H2 2381   9.678   0.068   4.624  0.3807 -0.3014  0.9073
   83bbb     C2 2382   9.813   0.189   4.831  0.4165  0.0821  0.5328
   83bbb     H3 2383   9.786   0.294   4.844  0.1445 -0.1736  2.2314
   83bbb     H4 2384   9.864   0.196   4.733  1.4231  0.0872  1.0416
   83bbb     C3 2385   9.604   0.132   4.955 -0.0846  0.1202 -0.2156
   83bbb     H5 2386   9.564   0.234   4.950 -2.5799 -0.7330  1.0128
   83bbb     H6 2387   9.674   0.128   5.040 -1.3804 -2.8824  0.8456
   83bbb     C4 2388   9.488   0.037   4.980  0.6842 -0.0605 -0.3061
   83bbb     H7 2389   9.506  -0.071   4.981 -0.3184 -0.3312 -2.9035
   83bbb     H8 2390   9.409   0.044   4.904 -1.0047  0.2756  1.4066
   83bbb     C5 2391   9.516   0.211   4.674 -0.1168  0.4001  0.7519
   83bbb     H9 2392   9.458   0.256   4.755 -3.6295 -1.3432 -0.6067
   83bbb    H10 2393   9.444   0.162   4.607 -0.3441  0.7601  0.7311
   83bbb     C6 2394   9.920   0.153   4.939  0.3326  0.3410  0.0670
   83bbb    H11 2395   9.969   0.058   4.914 -0.9984 -0.5167  0.5911
   83bbb    H12 2396   9.885   0.144   5.042 -0.2016  0.7216 -0.0782
   83bbb     C7 2397   9.404   0.078   5.105  0.0029 -0.3038  0.2975
   83bbb    H13 2398   9.448   0.046   5.200 -3.6743 -0.8818  1.9975
   83bbb    H14 2399   9.306   0.030   5.099  0.6814 -1.7406  0.3555
   83bbb     C8 2400  10.032   0.259   4.942  0.5476  0.0733 -0.0528
   83bbb    H15 2401  10.115   0.247   5.013 -0.1334 -0.3835  0.6798
   83bbb    H16 2402   9.982   0.354   4.961 -1.0674  0.0479 -3.3652
   83bbb     C9 2403   9.580   0.318   4.578 -0.1581 -0.1413 -0.0519
   83bbb    H17 2404   9.627   0.263   4.496 -1.5501 -0.7844 -0.4414
   83bbb    H18 2405   9.659   0.375   4.628  1.4927 -2.0132 -0.3826
   83bbb     O1 2406   9.366   0.221   5.100 -0.6386  0.4361  0.2491
   84bbb     N1 2407   9.109   0.384   4.175  0.2446 -0.4621  0.5414
   84bbb     C1 2408   9.138   0.499   4.086  1.0783  0.3493  0.2529
   84bbb     H1 2409   9.178   0.462   3.991  1.2921  0.2718  0.3723
   84bbb     H2 2410   9.207   0.569   4.135  0.7180  3.7547 -3.5300
   84bbb     C2 2411   9.219   0.285   4.181  0.2986 -0.1589 -0.4633
   84bbb     H3 2412   9.203   0.214   4.263  1.0908  0.7711  0.5235
   84bbb     H4 2413   9.309   0.343   4.201  0.2436 -0.6004  1.2127
   84bbb     C3 2414   9.056   0.418   4.313 -1.0782  0.2334  0.1533
   84bbb     H5 2415   9.018   0.324   4.355 -2.2319  0.5310 -0.1948
   84bbb     H6 2416   8.968   0.484   4.307 -0.2481  1.2504 -1.2002
   84bbb     C4 2417   9.156   0.493   4.415 -0.0136 -0.0490  0.6130
   84bbb     H7 2418   9.203   0.587   4.383  0.2926  0.9895  3.7476
   84bbb     H8 2419   9.238   0.422   4.432  0.5714 -0.1984 -2.3131
   84bbb     C5 2420   9.002   0.578   4.050  0.3664  0.0617  0.2908
   84bbb     H9 2421   8.942   0.608   4.137 -0.8255 -0.4983 -0.3186
   84bbb    H10 2422   8.939   0.511   3.991 -0.1992  1.0738 -0.2805
   84bbb     C6 2423   9.244   0.204   4.055 -0.0046 -0.0309 -0.2339
   84bbb    H11 2424   9.327   0.139   4.085  1.0617  0.9226 -1.0058
   84bbb    H12 2425   9.288   0.280   3.989  1.6899  1.8374  2.8225
   84bbb     C7 2426   9.084   0.522   4.545 -0.0004  0.4995  0.1089
   84bbb    H13 2427   9.039   0.428   4.581  1.8921 -0.0656  1.1088
   84bbb    H14 2428   9.010   0.602   4.530  0.1356  0.2232 -2.6223
   84bbb     C8 2429   9.120   0.128   4.003 -1.2160 -0.5772  0.0277
   84bbb    H15 2430   9.050   0.200   3.962 -0.1814 -0.3708 -1.4535
   84bbb    H16 2431   9.075   0.077   4.090  0.2500 -0.6100  0.8075
   84bbb     C9 2432   9.042   0.702   3.964  0.3359 -0.1553 -0.1793
   84bbb    H17 2433   9.095   0.771   4.031 -0.6361  0.3905  0.0516
   84bbb    H18 2434   8.954   0.750   3.919 -0.2515  1.5852  2.6030
   84bbb     O1 2435   9.175   0.561   4.641 -0.7246  0.2905  0.7165
   85bbb     N1 2436   9.749   1.591   4.635  0.2835 -0.3227  0.3618
   85bbb     C1 2437   9.745   1.636   4.493  0.3288 -0.3292  0.1359
   85bbb     H1 2438   9.765   1.560   4.416  1.9578  0.4819 -0.3019
   85bbb     H2 2439   9.822   1.710   4.469 -0.1733  0.5765  1.2551
   85bbb     C2 2440   9.744   1.703   4.735  0.1435 -0.1857 -0.4594
   85bbb     H3 2441   9.756   1.662   4.836  0.1911  0.7460 -0.0846
   85bbb     H4 2442   9.646   1.750   4.742 -0.6552 -1.6392 -1.3176
   85bbb     C3 2443   9.865   1.504   4.668 -0.5676 -0.5395  0.0378
   85bbb     H5 2444   9.952   1.553   4.712  0.8510 -1.0325 -2.0415
   85bbb     H6 2445   9.895   1.452   4.576  0.2074 -1.0975  0.5909
   85bbb     C4 2446   9.827   1.402   4.773  0.4844 -0.1452 -0.1710
   85bbb     H7 2447   9.763   1.322   4.733 -0.0083 -0.2995  0.8724
   85bbb     H8 2448   9.775   1.438   4.863 -1.0871 -1.3458 -0.5507
   85bbb     C5 2449   9.599   1.686   4.452  0.4303 -0.3083 -0.2866
   85bbb     H9 2450   9.562   1.744   4.538 -0.0863 -0.2307 -0.5565
   85bbb    H10 2451   9.529   1.602   4.450  2.6730 -2.2856  0.4747
   85bbb     C6 2452   9.844   1.818   4.712 -0.2050  0.0082 -0.1942
   85bbb    H11 2453   9.810   1.876   4.625 -2.0542 -1.5212 -0.5485
   85bbb    H12 2454   9.942   1.780   4.680 -0.6000  0.8757 -2.6339
   85bbb     C7 2455   9.949   1.323   4.815 -0.1064 -0.0349 -0.6808
   85bbb    H13 2456  10.036   1.384   4.843 -0.1212 -0.7579  1.0907
   85bbb    H14 2457   9.973   1.254   4.733  1.2540  0.9384 -1.1263
   85bbb     C8 2458   9.856   1.902   4.843 -0.0965 -0.5534 -0.1523
   85bbb    H15 2459   9.750   1.920   4.860 -0.2834 -0.9481 -0.8536
   85bbb    H16 2460   9.911   1.997   4.833 -0.0183 -0.2089  2.7250
   85bbb     C9 2461   9.609   1.771   4.328 -0.3602 -0.5983  0.8864
   85bbb    H17 2462   9.692   1.843   4.331 -0.6537 -0.2554  0.9263
   85bbb    H18 2463   9.514   1.826   4.321 -0.9844 -1.7400 -0.0541
   85bbb     O1 2464   9.914   1.259   4.945  0.3068 -0.0150  0.8415
   86bbb     N1 2465  10.355   0.588   4.963  0.0383 -0.3519  0.3927
   86bbb     C1 2466  10.230   0.549   4.893  0.1357 -0.0275 -0.9087
   86bbb     H1 2467  10.191   0.463   4.950  1.3614 -0.8535 -1.2945
   86bbb     H2 2468  10.246   0.514   4.791 -0.2814 -2.8106 -0.0940
   86bbb     C2 2469  10.455   0.480   4.946 -0.0521 -0.1914 -0.5712
   86bbb     H3 2470  10.402   0.387   4.967 -0.2275  0.2291  0.9627
   86bbb     H4 2471  10.533   0.487   5.024 -0.5843 -1.3988  0.0843
   86bbb     C3 2472  10.340   0.632   5.107 -0.1895 -0.0964 -0.2596
   86bbb     H5 2473  10.331   0.549   5.177 -0.8640 -0.8726 -1.2358
   86bbb     H6 2474  10.247   0.689   5.122 -0.2568  0.1401 -1.4342
   86bbb     C4 2475  10.456   0.719   5.161  0.4987  0.0653 -0.8028
   86bbb     H7 2476  10.463   0.812   5.104 -0.8955  0.3611 -0.5262
   86bbb     H8 2477  10.555   0.673   5.149 -0.1406 -1.7914  0.5676
   86bbb     C5 2478  10.120   0.663   4.894 -0.0118  0.0186  0.4675
   86bbb     H9 2479  10.151   0.755   4.843 -1.7107 -0.0317 -0.7374
   86bbb    H10 2480  10.089   0.691   4.995 -0.8782  1.0407 -0.0640
   86bbb     C6 2481  10.527   0.471   4.810  0.1699 -0.4648 -0.4410
   86bbb    H11 2482  10.570   0.570   4.790  2.2247 -0.6934  2.1818
   86bbb    H12 2483  10.454   0.453   4.731 -0.5705  0.0365  0.1227
   86bbb     C7 2484  10.446   0.751   5.311  0.5208  0.4901  0.1730
   86bbb    H13 2485  10.536   0.804   5.345 -0.9529  3.5991 -0.4024
   86bbb    H14 2486  10.440   0.655   5.364 -0.5659 -1.6933 -3.5962
   86bbb     C8 2487  10.655   0.380   4.805 -0.1843  0.0682  0.4073
   86bbb    H15 2488  10.708   0.390   4.901  0.8295  1.9499 -0.2890
   86bbb    H16 2489  10.719   0.411   4.721 -0.9524  3.5667  0.9681
   86bbb     C9 2490   9.990   0.623   4.820 -0.5895  0.0158 -0.2033
   86bbb    H17 2491   9.915   0.700   4.841 -0.3345  0.4257 -0.7782
   86bbb    H18 2492   9.948   0.529   4.860  1.1701 -1.0711 -0.8264
   86bbb     O1 2493  10.320   0.837   5.324 -0.2964  0.1724  0.3251
   87bbb     N1 2494   9.525   1.006   8.290 -0.5743 -0.8044 -0.8233
   87bbb     C1 2495   9.661   1.075   8.309 -0.0578  0.0354  0.5588
   87bbb     H1 2496   9.712   1.082   8.212  3.9617  0.8280  2.4870
   87bbb     H2 2497   9.728   1.009   8.367  0.4947 -2.5381 -2.7270
   87bbb     C2 2498   9.536   0.876   8.236 -0.5087 -0.1466 -0.6567
   87bbb     H3 2499   9.543   0.888   8.128 -0.8895  2.1922 -0.4911
   87bbb     H4 2500   9.436   0.837   8.257 -0.2140 -0.4288  0.3234
   87bbb     C3 2501   9.421   1.090   8.220  0.6304  0.5609 -0.0049
   87bbb     H5 2502   9.422   1.072   8.112  0.1389 -3.1754  0.4651
   87bbb     H6 2503   9.440   1.196   8.242  2.3349  0.0774  1.0026
   87bbb     C4 2504   9.281   1.048   8.262  1.0330 -0.5928 -0.2912
   87bbb     H7 2505   9.268   1.070   8.368 -1.6739 -2.0554 -0.2258
   87bbb     H8 2506   9.247   0.945   8.248 -2.1119 -0.0206  2.0201
   87bbb     C5 2507   9.656   1.204   8.387 -0.1993 -0.2538  0.1250
   87bbb     H9 2508   9.571   1.202   8.456 -0.2100 -0.1609  0.1148
   87bbb    H10 2509   9.640   1.284   8.314  2.4474  1.6389  1.4611
   87bbb     C6 2510   9.640   0.779   8.297 -0.1692  0.5802 -0.0203
   87bbb    H11 2511   9.743   0.814   8.291 -0.3720  1.2256  0.1920
   87bbb    H12 2512   9.636   0.691   8.231 -1.8232  2.3669 -2.5014
   87bbb     C7 2513   9.188   1.140   8.179 -0.0903 -0.2504 -0.1470
   87bbb    H13 2514   9.231   1.240   8.183 -2.7292  0.9355  1.3992
   87bbb    H14 2515   9.086   1.137   8.218 -0.2872 -0.2147 -0.6465
   87bbb     C8 2516   9.610   0.735   8.443  1.0668 -0.7846  0.4135
   87bbb    H15 2517   9.509   0.691   8.446  1.4731 -1.7992 -0.1500
   87bbb    H16 2518   9.620   0.827   8.502  0.8221  0.2398 -1.0975
   87bbb     C9 2519   9.794   1.243   8.442 -0.0835 -0.2222 -0.5135
   87bbb    H17 2520   9.823   1.167   8.516  0.9095  1.0383  0.4261
   87bbb    H18 2521   9.789   1.339   8.495 -1.9846  0.0736 -1.1426
   87bbb     O1 2522   9.187   1.092   8.047 -0.2077  0.1663  0.0772
   88bbb     N1 2523   9.810   1.062   7.393  0.4380  0.0063  0.0241
   88bbb     C1 2524   9.872   1.142   7.500  0.1236 -0.1365 -0.4020
   88bbb     H1 2525   9.970   1.103   7.532  0.0913 -0.2745 -0.4766
   88bbb     H2 2526   9.800   1.155   7.582 -2.9252  1.8895 -3.1722
   88bbb     C2 2527   9.901   1.059   7.275 -0.1976  0.1079  1.2108
   88bbb     H3 2528  10.003   1.076   7.312  0.2211 -0.8395  0.5155
   88bbb     H4 2529   9.874   1.144   7.211 -0.9776 -1.0445 -0.0384
   88bbb     C3 2530   9.668   1.081   7.362 -0.2104  0.4721  0.2169
   88bbb     H5 2531   9.639   1.001   7.293 -2.0860 -0.5402  2.0895
   88bbb     H6 2532   9.646   1.173   7.306 -0.9292 -0.3403 -0.8662
   88bbb     C4 2533   9.571   1.050   7.482  0.1846 -0.0615 -0.4968
   88bbb     H7 2534   9.469   1.057   7.443  1.1086  1.8141 -2.8318
   88bbb     H8 2535   9.578   1.130   7.556 -3.0388 -2.8609  3.3132
   88bbb     C5 2536   9.906   1.291   7.477 -0.4452  0.4074 -0.0837
   88bbb     H9 2537   9.985   1.288   7.401  0.0151  0.6129  0.3830
   88bbb    H10 2538   9.954   1.339   7.564 -2.1667  1.1733  0.4740
   88bbb     C6 2539   9.897   0.920   7.195  0.5514 -0.0815  0.9702
   88bbb    H11 2540   9.985   0.908   7.131 -0.0369  0.5666  0.0057
   88bbb    H12 2541   9.810   0.935   7.131 -0.1886  2.9352  2.4678
   88bbb     C7 2542   9.582   0.912   7.548 -0.1726  0.7052 -0.1525
   88bbb    H13 2543   9.661   0.910   7.623  0.8038 -0.9163 -1.1461
   88bbb    H14 2544   9.596   0.831   7.475  0.3716 -0.7749  1.5130
   88bbb     C8 2545   9.890   0.801   7.291 -0.0905  0.1388  0.1023
   88bbb    H15 2546   9.866   0.712   7.231  0.5096  0.0625 -0.0337
   88bbb    H16 2547   9.820   0.828   7.371  1.8851  3.1502  0.9971
   88bbb     C9 2548   9.783   1.374   7.423  0.1196 -0.1173 -0.2592
   88bbb    H17 2549   9.688   1.348   7.470  0.1529  0.4078  0.0980
   88bbb    H18 2550   9.772   1.362   7.314  1.0781  1.2187 -0.5202
   88bbb     O1 2551   9.455   0.881   7.621 -0.2631 -0.4562 -0.2071
   89bbb     N1 2552   7.242   0.215   6.557  0.6391  0.6250 -0.2922
   89bbb     C1 2553   7.168   0.229   6.430  0.1350 -0.2817 -0.3577
   89bbb     H1 2554   7.220   0.308   6.373  0.1658  0.1160  0.2075
   89bbb     H2 2555   7.067   0.269   6.445  0.7261  1.1107  0.1299
   89bbb     C2 2556   7.165   0.135   6.662 -0.1647  0.2020 -0.4115
   89bbb     H3 2557   7.131   0.037   6.625 -0.9428  0.5674 -0.6813
   89bbb     H4 2558   7.080   0.190   6.703 -0.0827 -0.6970  1.0230
   89bbb     C3 2559   7.302   0.346   6.594  0.0507  0.0204 -0.2086
   89bbb     H5 2560   7.323   0.345   6.702  0.4362  1.7668 -0.2412
   89bbb     H6 2561   7.220   0.419   6.589 -0.8066 -0.9692 -1.1401
   89bbb     C4 2562   7.430   0.392   6.519 -0.0785 -0.0796  0.4351
   89bbb     H7 2563   7.435   0.366   6.413  1.6763  0.0913  0.4463
   89bbb     H8 2564   7.512   0.331   6.558 -2.2851 -4.1422 -0.6455
   89bbb     C5 2565   7.169   0.095   6.349  0.3048  0.3579  0.4570
   89bbb     H9 2566   7.121   0.113   6.252 -1.7268 -2.1615  0.8833
   89bbb    H10 2567   7.105   0.021   6.398  0.7368 -0.3447 -0.0160
   89bbb     C6 2568   7.257   0.091   6.779  0.7862  0.2465  0.0548
   89bbb    H11 2569   7.204   0.036   6.858  1.5167  1.6501  1.5972
   89bbb    H12 2570   7.286   0.181   6.836  1.0976  0.9623 -1.2043
   89bbb     C7 2571   7.465   0.539   6.538 -0.8796 -0.4039 -0.1860
   89bbb    H13 2572   7.380   0.598   6.502 -0.1052 -0.6516 -2.5414
   89bbb    H14 2573   7.556   0.556   6.481 -1.5492  2.2941 -0.6172
   89bbb     C8 2574   7.381   0.018   6.736  0.3750  0.2752 -0.4066
   89bbb    H15 2575   7.432   0.073   6.656 -0.8974 -1.3338 -2.4529
   89bbb    H16 2576   7.353  -0.080   6.694  0.7159 -0.3128  0.6898
   89bbb     C9 2577   7.307   0.035   6.320 -0.6723 -0.8919  0.4066
   89bbb    H17 2578   7.298  -0.067   6.282 -0.4927 -0.9223  0.4430
   89bbb    H18 2579   7.357   0.038   6.418 -1.2831 -0.2612  0.7020
   89bbb     O1 2580   7.483   0.554   6.680 -0.6306 -0.3887  0.2015
   90bbb     N1 2581   8.285   0.220   7.185  0.1917 -0.1490  0.1220
   90bbb     C1 2582   8.421   0.259   7.142 -0.3207  0.4978  0.6113
   90bbb     H1 2583   8.426   0.353   7.087  0.0460 -0.6616 -1.4261
   90bbb     H2 2584   8.443   0.189   7.061 -2.6524 -0.6976  0.9166
   90bbb     C2 2585   8.240   0.261   7.322  0.4081 -0.2365 -0.2813
   90bbb     H3 2586   8.305   0.210   7.395  0.0535 -1.6547 -0.9244
   90bbb     H4 2587   8.143   0.218   7.348  0.5978  0.1295  1.1288
   90bbb     C3 2588   8.191   0.226   7.073  0.3916 -0.0095 -0.1003
   90bbb     H5 2589   8.227   0.156   6.997  1.9265  2.8039 -2.1728
   90bbb     H6 2590   8.199   0.325   7.026  1.9117 -0.2464 -0.4059
   90bbb     C4 2591   8.050   0.196   7.117  0.5349  0.1155  0.3287
   90bbb     H7 2592   8.000   0.281   7.166 -0.1920 -0.6240  0.9006
   90bbb     H8 2593   8.054   0.110   7.185  1.0186  0.8610  1.2643
   90bbb     C5 2594   8.533   0.228   7.245  0.4901  0.6369  0.0082
   90bbb     H9 2595   8.495   0.275   7.337 -2.4141 -1.8633  0.2519
   90bbb    H10 2596   8.626   0.276   7.214  1.3629 -1.1542 -0.2373
   90bbb     C6 2597   8.240   0.412   7.353  0.4183 -0.0294  0.1208
   90bbb    H11 2598   8.169   0.457   7.283  2.9552  1.4871 -1.6286
   90bbb    H12 2599   8.342   0.446   7.331  0.5166 -0.1611  0.3718
   90bbb     C7 2600   7.954   0.155   6.996  0.6594 -0.3022  0.3858
   90bbb    H13 2601   7.859   0.120   7.037  0.4897  0.1975  0.4235
   90bbb    H14 2602   7.995   0.073   6.935  1.4813 -0.0129  0.5338
   90bbb     C8 2603   8.201   0.448   7.495  0.4852  0.1169 -0.9723
   90bbb    H15 2604   8.096   0.423   7.512 -0.1374  3.0067 -0.0532
   90bbb    H16 2605   8.208   0.557   7.506  1.0288  0.0649 -0.7177
   90bbb     C9 2606   8.565   0.076   7.254  0.2290 -0.8681 -0.2753
   90bbb    H17 2607   8.567   0.044   7.149  1.8183 -0.1838 -0.4774
   90bbb    H18 2608   8.476   0.037   7.306 -0.8490  0.4966 -1.0204
   90bbb     O1 2609   7.922   0.273   6.920  0.4527  0.3961 -0.1025
   91bbb     N1 2610   8.560   2.670   7.985  0.7865 -0.1337  0.3612
   91bbb     C1 2611   8.634   2.568   7.903 -0.0212  0.3412  0.0877
   91bbb     H1 2612   8.585   2.566   7.805 -1.1847 -0.7058  0.6672
   91bbb     H2 2613   8.620   2.471   7.953  3.3427  0.2891  1.1956
   91bbb     C2 2614   8.629   2.737   8.099  0.1615 -0.2230  1.0747
   91bbb     H3 2615   8.562   2.814   8.139 -0.3610 -0.8263  1.3786
   91bbb     H4 2616   8.709   2.802   8.062 -1.5090  0.4867 -1.5082
   91bbb     C3 2617   8.426   2.641   8.016 -0.5280 -0.3821 -0.3215
   91bbb     H5 2618   8.383   2.737   8.048  1.8555  1.2340 -1.6611
   91bbb     H6 2619   8.431   2.574   8.103 -2.1100  0.5704  0.5588
   91bbb     C4 2620   8.343   2.585   7.900 -0.2159  0.3241  0.2571
   91bbb     H7 2621   8.373   2.482   7.880 -2.5739 -0.6312  1.2339
   91bbb     H8 2622   8.356   2.642   7.808 -0.6655 -1.1558 -0.7517
   91bbb     C5 2623   8.787   2.583   7.886 -0.2329 -0.0740  0.1816
   91bbb     H9 2624   8.825   2.484   7.856  1.4826  1.0636 -1.5845
   91bbb    H10 2625   8.841   2.604   7.979  0.0211  1.8450 -0.3703
   91bbb     C6 2626   8.667   2.646   8.219  0.3086  0.0407 -0.0401
   91bbb    H11 2627   8.743   2.571   8.195  1.3616  1.1820 -0.3635
   91bbb    H12 2628   8.585   2.583   8.257  2.1707 -2.4189  0.1974
   91bbb     C7 2629   8.191   2.575   7.920 -0.0553 -0.3860 -0.0344
   91bbb    H13 2630   8.155   2.548   7.820  1.7378  1.5956 -1.3214
   91bbb    H14 2631   8.147   2.671   7.950  1.0853  0.4316 -0.8726
   91bbb     C8 2632   8.721   2.732   8.333  0.4993 -0.5914 -0.5331
   91bbb    H15 2633   8.647   2.804   8.369 -1.2571 -2.3405 -0.4555
   91bbb    H16 2634   8.796   2.795   8.284 -1.7707  1.8738 -1.0812
   91bbb     C9 2635   8.833   2.688   7.783  0.0009 -0.2202  0.0045
   91bbb    H17 2636   8.798   2.788   7.813  2.5699 -0.0066  2.8203
   91bbb    H18 2637   8.796   2.666   7.683 -0.0731  0.0395 -0.0262
   91bbb     O1 2638   8.159   2.486   8.025  0.3579  0.3265 -0.0648
   92bbb     N1 2639   9.171   2.382   8.320 -0.4578  0.2215  0.2122
   92bbb     C1 2640   9.139   2.490   8.232  0.8774 -0.1852  0.5097
   92bbb     H1 2641   9.069   2.449   8.158  1.5689  0.4509 -0.5370
   92bbb     H2 2642   9.230   2.518   8.177  1.3549 -2.8044 -0.2063
   92bbb     C2 2643   9.247   2.284   8.240 -0.7278  0.2209  0.1361
   92bbb     H3 2644   9.315   2.338   8.172  0.3415 -0.2868  0.7659
   92bbb     H4 2645   9.188   2.218   8.176  1.1827 -0.0270 -1.4954
   92bbb     C3 2646   9.063   2.331   8.418 -0.7710  0.1015 -0.7274
   92bbb     H5 2647   9.012   2.413   8.471 -1.9202 -2.0611  1.7311
   92bbb     H6 2648   9.100   2.259   8.493  1.7074  2.5993  0.6658
   92bbb     C4 2649   8.953   2.252   8.338  0.1946 -1.2061 -0.4021
   92bbb     H7 2650   8.993   2.155   8.306  0.7086 -0.5939 -1.7119
   92bbb     H8 2651   8.943   2.305   8.242  0.7001 -1.5733 -0.6603
   92bbb     C5 2652   9.072   2.616   8.292 -0.2349 -0.8857  0.7128
   92bbb     H9 2653   9.135   2.656   8.373 -1.2400 -0.3585  1.2573
   92bbb    H10 2654   8.981   2.594   8.349 -0.2786 -1.0690  0.5709
   92bbb     C6 2655   9.347   2.206   8.339  0.6205  0.0713  0.4595
   92bbb    H11 2656   9.302   2.115   8.379 -0.9103  0.5350 -0.1462
   92bbb    H12 2657   9.386   2.269   8.419  0.5011 -1.7467  2.0135
   92bbb     C7 2658   8.818   2.259   8.403  0.5249  0.0369  0.2671
   92bbb    H13 2659   8.797   2.365   8.422 -2.3352 -0.6210  1.2748
   92bbb    H14 2660   8.822   2.217   8.504  1.6563  0.5752  0.4713
   92bbb     C8 2661   9.472   2.157   8.251  0.3172  0.0932  0.5673
   92bbb    H15 2662   9.548   2.137   8.328 -1.6946  0.1707  2.6686
   92bbb    H16 2663   9.506   2.235   8.182 -0.5927 -0.6177 -0.7301
   92bbb     C9 2664   9.060   2.728   8.186  0.0131 -0.2049 -0.0993
   92bbb    H17 2665   8.979   2.702   8.117  0.2530 -0.2985 -0.3469
   92bbb    H18 2666   9.147   2.735   8.120 -1.0372  1.9571 -1.3808
   92bbb     O1 2667   8.723   2.190   8.320 -0.6508 -0.5342 -0.0708
   93bbb     N1 2668   7.986   1.775   8.577  0.3763  0.4633 -0.3056
   93bbb     C1 2669   7.945   1.665   8.668  0.5776  0.4206  0.1389
   93bbb     H1 2670   7.973   1.692   8.771 -0.1443 -0.0925  0.4712
   93bbb     H2 2671   7.992   1.569   8.645  0.9059  0.4010  0.8543
   93bbb     C2 2672   7.951   1.733   8.438 -0.8109  0.6087 -0.1284
   93bbb     H3 2673   7.845   1.710   8.426 -0.4008 -1.3723 -0.3273
   93bbb     H4 2674   8.003   1.637   8.424  0.6721  1.4281 -0.5297
   93bbb     C3 2675   8.124   1.823   8.606  0.1200 -0.1929 -0.6176
   93bbb     H5 2676   8.145   1.837   8.713  0.1803  1.1667 -0.7918
   93bbb     H6 2677   8.132   1.925   8.566  1.1778 -0.2992 -0.6888
   93bbb     C4 2678   8.234   1.724   8.562  0.4897  0.3593 -0.0605
   93bbb     H7 2679   8.225   1.703   8.455  1.6186  0.6111 -0.2247
   93bbb     H8 2680   8.225   1.629   8.616 -1.3151  1.1222  1.0692
   93bbb     C5 2681   7.791   1.646   8.681 -0.2937 -0.3395  0.1455
   93bbb     H9 2682   7.746   1.615   8.585 -0.6183 -0.1276  0.2289
   93bbb    H10 2683   7.744   1.743   8.701 -0.8770 -0.8462  1.2754
   93bbb     C6 2684   8.005   1.834   8.331  0.2728 -0.1346  0.1540
   93bbb    H11 2685   8.112   1.855   8.346  0.5291 -0.7994 -0.6578
   93bbb    H12 2686   7.961   1.934   8.335 -1.0695 -0.5418 -2.5458
   93bbb     C7 2687   8.376   1.782   8.576  0.3364  0.4725  0.6451
   93bbb    H13 2688   8.448   1.715   8.527 -0.6815 -0.3445  0.1936
   93bbb    H14 2689   8.412   1.781   8.679  2.2268  0.2652  0.0185
   93bbb     C8 2690   7.985   1.787   8.183  0.2484 -0.6493  0.1062
   93bbb    H15 2691   8.024   1.867   8.119 -0.9348  0.0211  0.1882
   93bbb    H16 2692   7.879   1.764   8.165 -0.0930  0.3949  0.7025
   93bbb     C9 2693   7.772   1.545   8.803 -0.6177 -1.2546  0.2835
   93bbb    H17 2694   7.666   1.553   8.828 -0.4592  0.6200  0.5312
   93bbb    H18 2695   7.833   1.576   8.888 -0.5807 -0.0623 -0.1544
   93bbb     O1 2696   8.388   1.914   8.507  0.1412  0.1451 -0.0146
   94bbb     N1 2697   9.133   1.917   8.932  0.1554 -0.1973  0.5822
   94bbb     C1 2698   9.231   2.005   8.987 -0.9533  0.0123 -0.0311
   94bbb     H1 2699   9.327   1.976   8.943  0.1020  2.1310  0.7066
   94bbb     H2 2700   9.226   1.998   9.096 -1.8187  1.7290  0.0847
   94bbb     C2 2701   9.161   1.787   8.988 -0.6655 -0.7138  0.7245
   94bbb     H3 2702   9.191   1.795   9.093  0.7119 -0.7306  0.3598
   94bbb     H4 2703   9.251   1.744   8.942  0.2964  0.4019  1.5313
   94bbb     C3 2704   9.106   1.938   8.786  0.0166  0.8783  0.8571
   94bbb     H5 2705   9.074   2.042   8.769 -1.0466  0.5281  0.6410
   94bbb     H6 2706   9.017   1.882   8.754  1.1713 -0.1457 -0.6685
   94bbb     C4 2707   9.220   1.900   8.689  0.4756  0.2435 -0.4232
   94bbb     H7 2708   9.230   1.791   8.695  1.3482  0.3835  1.3492
   94bbb     H8 2709   9.313   1.942   8.727  0.5120 -0.7053  0.5988
   94bbb     C5 2710   9.217   2.154   8.952 -0.5197 -0.2501  0.6471
   94bbb     H9 2711   9.109   2.173   8.955 -0.7056 -1.3073  1.0483
   94bbb    H10 2712   9.246   2.158   8.846 -2.6257 -0.5479 -0.0006
   94bbb     C6 2713   9.046   1.681   8.977 -0.5233  0.2031  0.2823
   94bbb    H11 2714   9.045   1.653   8.871  0.1163 -1.8143  0.7588
   94bbb    H12 2715   8.952   1.723   9.013 -0.1941  2.1954 -1.0572
   94bbb     C7 2716   9.196   1.931   8.544 -0.5463 -0.3463 -0.2320
   94bbb    H13 2717   9.289   1.930   8.485  0.5528 -0.7589  1.4407
   94bbb    H14 2718   9.164   2.035   8.542 -1.8948 -0.7468  0.0192
   94bbb     C8 2719   9.075   1.558   9.067 -0.1053 -0.0431  0.3269
   94bbb    H15 2720   8.989   1.492   9.085  1.9141 -2.2041  2.8693
   94bbb    H16 2721   9.095   1.600   9.166  1.8080  1.1382 -0.5092
   94bbb     C9 2722   9.303   2.254   9.033  0.0207  0.1591 -0.6244
   94bbb    H17 2723   9.396   2.201   9.057 -0.9208 -1.4206 -0.2918
   94bbb    H18 2724   9.262   2.258   9.135  0.7601 -0.4013 -0.2884
   94bbb     O1 2725   9.090   1.849   8.491 -0.2106  0.0465 -0.1487
   95ccc     C3 2726  12.190   0.950   6.211 -0.5775 -0.5594 -0.0324
   95ccc     H5 2727  12.150   0.850   6.233 -1.2413 -0.0084  1.3322
   95ccc     H6 2728  12.133   0.987   6.125  0.5912  2.1295  0.2530
   95ccc     C2 2729  12.340   0.937   6.176 -0.1099 -0.0845 -0.5589
   95ccc     H3 2730  12.349   0.865   6.094 -3.0990  0.0093 -1.0904
   95ccc     H4 2731  12.389   0.906   6.269 -1.4511  0.8303  0.4957
   95ccc     C1 2732  12.405   1.069   6.131  0.1543  0.2614 -0.0932
   95ccc     H1 2733  12.375   1.151   6.198  2.3623  0.0346  1.2932
   95ccc     H2 2734  12.374   1.090   6.028 -0.1682 -0.3180 -0.1147
   95ccc     N1 2735  12.555   1.065   6.139  0.0293  0.0923 -0.1405
   95ccc     C4 2736  12.607   1.066   6.274 -0.7530  0.7423  0.6179
   95ccc     H7 2737  12.717   1.062   6.274 -0.6977 -0.2618 -2.0799
   95ccc     H8 2738  12.579   0.976   6.330  1.2600 -0.0255  0.4725
   95ccc     C5 2739  12.566   1.190   6.346  0.3193  0.1967 -0.5349
   95ccc     H9 2740  12.583   1.277   6.282  1.0539 -0.8881 -1.8570
   95ccc    H10 2741  12.459   1.192   6.368  0.1732  0.2639 -1.2162
   95ccc     C6 2742  12.642   1.207   6.477  0.1774 -0.2935  1.2387
   95ccc     O2 2743  12.758   1.179   6.490  0.5261  0.2594 -0.6726
   95ccc     O3 2744  12.587   1.260   6.568  0.1869 -0.1909  0.3151
   95ccc     C7 2745  12.616   0.956   6.065 -0.7612  0.8166 -0.2432
   95ccc    H11 2746  12.720   0.951   6.097 -0.9002  1.6096  0.3722
   95ccc    H12 2747  12.574   0.857   6.087 -1.4386  0.9248 -1.0079
   95ccc     C8 2748  12.610   0.986   5.912  0.0325 -0.0393 -0.4590
   95ccc    H13 2749  12.503   0.996   5.888 -0.4481  1.4743  2.0045
   95ccc    H14 2750  12.658   1.084   5.904 -2.6026  1.4355  0.4334
   95ccc     C9 2751  12.684   0.876   5.839  0.1714 -0.2344  0.4320
   95ccc     O4 2752  12.781   0.908   5.773 -0.2204  0.5217  0.2678
   95ccc     O5 2753  12.636   0.767   5.831  0.0769  0.3453 -0.2790
   95ccc     O1 2754  12.165   1.037   6.323  0.1827  0.0391  0.3342
   96ccc     C3 2755  11.848   1.715   6.483 -0.3496 -0.2437  0.3118
   96ccc     H5 2756  11.761   1.666   6.528 -0.7458 -0.1228 -0.3070
   96ccc     H6 2757  11.856   1.817   6.523 -1.7738 -0.4099  1.1048
   96ccc     C2 2758  11.811   1.714   6.331  0.1903 -0.2897  0.4311
   96ccc     H3 2759  11.713   1.763   6.337  1.1892  1.7799  0.8058
   96ccc     H4 2760  11.795   1.615   6.287 -0.5933  0.6537 -1.5704
   96ccc     C1 2761  11.907   1.792   6.238 -0.8096  0.1265  0.5316
   96ccc     H1 2762  12.001   1.746   6.269 -1.0163 -1.5463 -1.1550
   96ccc     H2 2763  11.905   1.899   6.261  0.2183  0.0697  0.9155
   96ccc     N1 2764  11.899   1.772   6.095  0.5286  0.1538 -0.2418
   96ccc     C4 2765  12.005   1.838   6.025  0.4034  0.3640  0.0423
   96ccc     H7 2766  12.093   1.851   6.090  0.3922  0.8860 -0.0435
   96ccc     H8 2767  11.968   1.941   6.020  1.6513  0.8302 -0.0738
   96ccc     C5 2768  12.051   1.779   5.897  1.0253 -0.4818  0.0537
   96ccc     H9 2769  12.161   1.781   5.891  0.9536 -0.2204 -1.6961
   96ccc    H10 2770  12.029   1.672   5.900  3.7707 -1.1842 -1.0855
   96ccc     C6 2771  11.987   1.843   5.773 -0.3014 -1.0254 -0.2425
   96ccc     O2 2772  11.965   1.776   5.675 -0.1269  0.1623  0.1631
   96ccc     O3 2773  11.987   1.968   5.769  0.0535 -0.1095 -0.2390
   96ccc     C7 2774  11.764   1.772   6.038 -0.4947  0.0543 -0.6450
   96ccc    H11 2775  11.690   1.807   6.111  1.1162 -0.5275  1.3554
   96ccc    H12 2776  11.775   1.849   5.960  0.8498  1.6694  1.0414
   96ccc     C8 2777  11.717   1.636   5.998 -0.3493 -0.0895  0.1472
   96ccc    H13 2778  11.795   1.560   5.987 -0.4634 -0.3126  0.8272
   96ccc    H14 2779  11.649   1.591   6.072 -3.2081  1.5196 -1.3076
   96ccc     C9 2780  11.631   1.649   5.877 -0.3023  0.8898  0.3743
   96ccc     O4 2781  11.676   1.659   5.768  0.3443  0.0929 -0.1796
   96ccc     O5 2782  11.513   1.650   5.883 -0.0954 -0.3557 -0.1178
   96ccc     O1 2783  11.971   1.644   6.500 -0.2662 -0.2304  0.1345
   97ccc     C3 2784  12.134   0.757   5.861 -0.5452 -0.1244 -0.5943
   97ccc     H5 2785  12.115   0.719   5.962  0.7978  0.1791 -0.2074
   97ccc     H6 2786  12.050   0.723   5.798 -0.0088 -0.4814 -1.1235
   97ccc     C2 2787  12.270   0.707   5.811  0.8910 -0.3712  0.4167
   97ccc     H3 2788  12.268   0.597   5.809  2.4362 -0.5580  3.1052
   97ccc     H4 2789  12.344   0.744   5.883  1.7944 -1.1221 -0.0991
   97ccc     C1 2790  12.281   0.764   5.669 -0.4073 -0.9053  0.2890
   97ccc     H1 2791  12.320   0.865   5.684 -1.8428 -0.0919 -1.0905
   97ccc     H2 2792  12.182   0.772   5.621 -0.6438  1.9508  1.1086
   97ccc     N1 2793  12.382   0.701   5.581 -0.0618 -0.0488  0.6770
   97ccc     C4 2794  12.347   0.560   5.543  1.0227 -0.9382 -0.5212
   97ccc     H7 2795  12.282   0.569   5.455  0.7015  1.0114 -0.1263
   97ccc     H8 2796  12.287   0.519   5.625  0.8663  0.9177  0.3512
   97ccc     C5 2797  12.476   0.473   5.520 -0.0119 -0.0819  0.1368
   97ccc     H9 2798  12.438   0.371   5.507  0.0242 -0.0221 -0.4585
   97ccc    H10 2799  12.534   0.508   5.434 -0.1212  1.7628  0.7787
   97ccc     C6 2800  12.562   0.474   5.647  1.0203  0.2680 -0.1928
   97ccc     O2 2801  12.662   0.536   5.650 -0.4891  0.3975 -0.0562
   97ccc     O3 2802  12.518   0.429   5.757  0.3339  0.6166 -0.3460
   97ccc     C7 2803  12.416   0.766   5.456 -0.0613  0.3535  0.1351
   97ccc    H11 2804  12.492   0.710   5.400 -0.4721 -0.4591  0.3762
   97ccc    H12 2805  12.325   0.770   5.396 -0.4399 -2.0209  0.4348
   97ccc     C8 2806  12.460   0.909   5.483 -0.4069 -0.3978 -0.7710
   97ccc    H13 2807  12.372   0.963   5.520 -0.0073 -0.4974  0.3594
   97ccc    H14 2808  12.536   0.908   5.562 -1.1931 -2.3892  0.0340
   97ccc     C9 2809  12.510   0.977   5.359 -0.4000 -0.2671 -0.0284
   97ccc     O4 2810  12.435   1.030   5.278  0.1996  0.2717  0.0036
   97ccc     O5 2811  12.633   0.967   5.346 -0.9166 -0.0354 -0.1918
   97ccc     O1 2812  12.125   0.903   5.861 -0.4896 -0.4906  0.7080
   98ccc     C3 2813  12.269   1.433   6.190 -1.0140 -0.7064  0.6390
   98ccc     H5 2814  12.252   1.521   6.252  2.2850  0.8688 -0.4554
   98ccc     H6 2815  12.342   1.368   6.240 -0.2762  0.5655  1.2648
   98ccc     C2 2816  12.328   1.502   6.064  0.0615  0.5996  0.6086
   98ccc     H3 2817  12.416   1.564   6.087 -0.7665  1.8063  0.6103
   98ccc     H4 2818  12.252   1.567   6.020 -0.0325  1.3553  1.8585
   98ccc     C1 2819  12.365   1.386   5.963 -0.0464  0.2212 -0.5004
   98ccc     H1 2820  12.287   1.311   5.944  1.3238 -0.8947 -2.0531
   98ccc     H2 2821  12.439   1.320   6.009 -0.1881  0.2608 -0.2118
   98ccc     N1 2822  12.404   1.433   5.836  0.0027  0.7669  0.0054
   98ccc     C4 2823  12.291   1.494   5.760 -0.5155 -0.7961  0.4511
   98ccc     H7 2824  12.328   1.529   5.662 -2.4552 -0.3345 -0.1681
   98ccc     H8 2825  12.263   1.584   5.815 -2.0958 -0.4194 -0.9039
   98ccc     C5 2826  12.170   1.407   5.753  0.1755 -0.2619  0.2718
   98ccc     H9 2827  12.191   1.304   5.722 -1.1332 -0.3899 -0.2343
   98ccc    H10 2828  12.109   1.402   5.844 -2.2636 -3.2192 -1.3439
   98ccc     C6 2829  12.087   1.479   5.647 -0.6770  0.3594 -0.1056
   98ccc     O2 2830  12.130   1.467   5.532  0.0071  0.1602 -0.1782
   98ccc     O3 2831  11.966   1.496   5.657 -0.0422  0.1989  0.1586
   98ccc     C7 2832  12.475   1.325   5.758 -0.0048 -0.1324 -0.5770
   98ccc    H11 2833  12.551   1.284   5.826  0.1869 -0.0496 -0.7410
   98ccc    H12 2834  12.400   1.249   5.733  0.0183 -0.2712 -0.2394
   98ccc     C8 2835  12.550   1.365   5.627 -0.2243 -0.2350  0.0488
   98ccc    H13 2836  12.538   1.474   5.618  0.8364  0.0193  1.3350
   98ccc    H14 2837  12.657   1.343   5.628 -0.3027 -0.8469 -1.6637
   98ccc     C9 2838  12.500   1.297   5.504 -0.9648 -0.0071 -0.0692
   98ccc     O4 2839  12.587   1.261   5.428  0.6638 -0.5275 -0.1444
   98ccc     O5 2840  12.387   1.297   5.461  0.1705 -0.5076 -0.1743
   98ccc     O1 2841  12.153   1.367   6.145 -0.0987  0.5393 -0.0043
   99ccc     C3 2842  11.495   0.965   8.188  0.2033 -0.1894 -0.0751
   99ccc     H5 2843  11.487   0.866   8.141 -1.9796 -0.0740 -0.0575
   99ccc     H6 2844  11.527   0.972   8.292 -1.1563  1.9029  0.2629
   99ccc     C2 2845  11.360   1.024   8.167 -0.5336  0.1446  0.1567
   99ccc     H3 2846  11.297   0.988   8.249 -1.2441 -1.3207 -0.9648
   99ccc     H4 2847  11.306   0.979   8.082 -0.4538 -0.0115  0.1887
   99ccc     C1 2848  11.351   1.177   8.172 -0.2615 -0.0953 -0.2382
   99ccc     H1 2849  11.419   1.228   8.103 -0.7129  1.2163  0.2409
   99ccc     H2 2850  11.376   1.204   8.276 -2.9097 -0.5936  0.6079
   99ccc     N1 2851  11.214   1.236   8.153 -0.3343 -0.4748 -0.4980
   99ccc     C4 2852  11.195   1.375   8.201 -0.0788  0.5944 -0.5503
   99ccc     H7 2853  11.235   1.444   8.126 -1.3463  1.6575 -0.2928
   99ccc     H8 2854  11.247   1.397   8.295  3.6954 -1.1386 -2.0090
   99ccc     C5 2855  11.045   1.406   8.202  0.0057 -0.3643  0.0088
   99ccc     H9 2856  11.011   1.428   8.100 -0.0248  0.7880  0.2559
   99ccc    H10 2857  10.986   1.320   8.237  1.6996 -1.9638 -0.8333
   99ccc     C6 2858  11.011   1.525   8.295  0.2657  0.5744 -0.3029
   99ccc     O2 2859  11.068   1.632   8.282  0.2364 -0.2475 -0.0153
   99ccc     O3 2860  10.988   1.503   8.410 -0.0666  0.1291 -0.0790
   99ccc     C7 2861  11.155   1.210   8.023 -0.6102  0.0622  0.5569
   99ccc    H11 2862  11.122   1.300   7.970  0.4683 -0.5929 -1.3064
   99ccc    H12 2863  11.235   1.163   7.965 -0.1914  0.6128  0.6809
   99ccc     C8 2864  11.036   1.107   8.027 -0.1856  0.8931 -0.6341
   99ccc    H13 2865  11.061   1.003   8.052 -3.3338  0.6664  2.1460
   99ccc    H14 2866  10.954   1.139   8.092 -1.1651 -1.4684 -0.5973
   99ccc     C9 2867  10.972   1.109   7.896 -0.7490 -0.1314  0.0849
   99ccc     O4 2868  10.994   1.023   7.812 -0.6666  0.2557  0.4815
   99ccc     O5 2869  10.878   1.182   7.875  0.0173  0.2989 -0.0637
   99ccc     O1 2870  11.585   1.040   8.103  0.2448  0.3153  0.3553
  100ccc     C3 2871  11.365   0.864   7.368 -0.5411 -0.1785  0.3255
  100ccc     H5 2872  11.325   0.895   7.465 -0.3728 -1.2858  0.7661
  100ccc     H6 2873  11.301   0.916   7.295 -3.9388 -1.4084  2.2276
  100ccc     C2 2874  11.352   0.715   7.336  0.3030  0.4237  0.3777
  100ccc     H3 2875  11.401   0.692   7.241 -2.6656  2.6452 -1.8925
  100ccc     H4 2876  11.245   0.694   7.330 -0.0360  1.6148  1.6045
  100ccc     C1 2877  11.408   0.628   7.453  0.8327 -0.2987  0.7483
  100ccc     H1 2878  11.404   0.694   7.541 -2.9051 -1.3086  1.5021
  100ccc     H2 2879  11.514   0.608   7.431  0.7032  0.5453 -0.8040
  100ccc     N1 2880  11.351   0.495   7.483 -0.8267  0.6475  0.2665
  100ccc     C4 2881  11.224   0.500   7.553  0.7668  0.9450 -0.3516
  100ccc     H7 2882  11.195   0.394   7.557  0.8024  0.9632  0.4817
  100ccc     H8 2883  11.147   0.553   7.496 -1.8580 -0.8555  1.2673
  100ccc     C5 2884  11.239   0.549   7.695  0.7036  0.3169  0.2761
  100ccc     H9 2885  11.317   0.492   7.747 -0.3386 -2.6522 -1.1359
  100ccc    H10 2886  11.260   0.656   7.696 -0.9910  0.6833  0.3073
  100ccc     C6 2887  11.116   0.525   7.764  0.1241  0.5801 -0.3322
  100ccc     O2 2888  11.022   0.604   7.753 -0.1475  0.3077 -0.0680
  100ccc     O3 2889  11.085   0.407   7.789  0.4081  0.8676 -0.3712
  100ccc     C7 2890  11.369   0.406   7.368  0.3713 -0.1354  0.6418
  100ccc    H11 2891  11.292   0.421   7.291  0.3144  0.4703  0.8127
  100ccc    H12 2892  11.455   0.438   7.308 -1.5428  0.5984 -1.8786
  100ccc     C8 2893  11.378   0.257   7.415  0.7748  0.4642 -0.0132
  100ccc    H13 2894  11.445   0.186   7.364  0.4960 -1.7833  2.5079
  100ccc    H14 2895  11.422   0.246   7.515 -0.4488  0.0166  0.4967
  100ccc     C9 2896  11.240   0.194   7.416  0.3373 -0.7858  0.0650
  100ccc     O4 2897  11.207   0.155   7.525 -0.0940  0.1053 -0.2981
  100ccc     O5 2898  11.171   0.166   7.323  0.0467  0.5009  0.7145
  100ccc     O1 2899  11.504   0.902   7.351  0.2590  0.0845 -0.0533
  101ccc     C3 2900  12.885   0.460   6.533 -1.0658  0.1011  0.0048
  101ccc     H5 2901  12.947   0.520   6.600  1.6936 -0.2882 -2.0336
  101ccc     H6 2902  12.938   0.365   6.526  0.8302  0.9953  1.3128
  101ccc     C2 2903  12.850   0.532   6.399 -0.0057  0.1194  0.4077
  101ccc     H3 2904  12.777   0.614   6.403 -1.6492 -1.3151  1.2768
  101ccc     H4 2905  12.781   0.462   6.350 -2.1608  1.8584  0.7634
  101ccc     C1 2906  12.981   0.571   6.321 -0.4095  0.2635  0.0518
  101ccc     H1 2907  13.017   0.491   6.255  0.6192  0.7213  0.0376
  101ccc     H2 2908  13.063   0.572   6.394 -0.1566 -1.0013 -0.1799
  101ccc     N1 2909  12.977   0.701   6.249  0.0812 -0.5418 -0.2672
  101ccc     C4 2910  12.940   0.822   6.330 -0.1441 -0.3564  0.7918
  101ccc     H7 2911  12.835   0.828   6.362 -0.1616  0.9343  0.5505
  101ccc     H8 2912  12.972   0.910   6.274 -0.1273  1.0409  2.9084
  101ccc     C5 2913  13.036   0.829   6.444  0.0963 -0.3083 -0.2092
  101ccc     H9 2914  13.013   0.750   6.517 -0.3423 -0.3912 -0.4302
  101ccc    H10 2915  13.141   0.834   6.414  0.3612  1.8899  0.8663
  101ccc     C6 2916  13.016   0.963   6.499  0.0875  0.7714 -0.3008
  101ccc     O2 2917  12.972   0.973   6.617  0.5534 -0.1494  0.2413
  101ccc     O3 2918  13.069   1.057   6.449  0.0089 -0.7004  0.5925
  101ccc     C7 2919  12.898   0.695   6.126 -0.0558  0.2507  0.4489
  101ccc    H11 2920  12.810   0.638   6.157 -1.4322  2.9832  1.9078
  101ccc    H12 2921  12.868   0.793   6.088 -2.0644 -0.5908 -0.2821
  101ccc     C8 2922  12.976   0.628   6.009  0.3660 -0.6452  0.0831
  101ccc    H13 2923  13.061   0.687   5.973 -0.4516  1.5080  1.5158
  101ccc    H14 2924  13.014   0.530   6.041  1.5558  0.2295  1.4262
  101ccc     C9 2925  12.881   0.606   5.891  0.2604  0.6685 -0.1214
  101ccc     O4 2926  12.792   0.521   5.898 -0.3066  0.6296  0.5756
  101ccc     O5 2927  12.922   0.642   5.779  0.1557  0.5843 -0.3295
  101ccc     O1 2928  12.759   0.432   6.589 -0.8456 -0.3823 -0.6716
  102ccc     C3 2929  12.648   0.188   7.596 -0.2702 -0.7965  0.7875
  102ccc     H5 2930  12.563   0.119   7.599 -0.9497 -0.0924 -0.7957
  102ccc     H6 2931  12.743   0.140   7.623  0.3540  0.3645  0.6966
  102ccc     C2 2932  12.627   0.310   7.685 -0.1919 -0.0826  0.2958
  102ccc     H3 2933  12.586   0.270   7.778 -1.5478 -1.8127 -0.9884
  102ccc     H4 2934  12.559   0.384   7.643 -0.7053  0.3158  1.8050
  102ccc     C1 2935  12.764   0.381   7.713  0.5049  0.2805  0.5797
  102ccc     H1 2936  12.812   0.412   7.619 -1.2604  2.0705  0.2003
  102ccc     H2 2937  12.826   0.301   7.755  1.0521  0.6628  0.5235
  102ccc     N1 2938  12.773   0.483   7.804  0.3690  0.0757  0.1886
  102ccc     C4 2939  12.914   0.523   7.807  0.0474  0.7554  0.4192
  102ccc     H7 2940  12.942   0.578   7.716 -2.6429 -0.4636 -1.2877
  102ccc     H8 2941  12.970   0.429   7.796 -0.2399  0.7473 -1.2734
  102ccc     C5 2942  12.948   0.597   7.937  0.2239  0.8168  0.5415
  102ccc     H9 2943  12.864   0.604   8.007  0.7573  2.1163  1.0693
  102ccc    H10 2944  13.030   0.554   7.996 -0.5302 -0.4535  0.7021
  102ccc     C6 2945  12.988   0.732   7.907 -0.6874 -0.5461 -0.0764
  102ccc     O2 2946  13.110   0.754   7.896  0.0197  0.1819  0.1606
  102ccc     O3 2947  12.903   0.822   7.895  0.1192  0.0722 -0.0174
  102ccc     C7 2948  12.668   0.591   7.790 -0.2419  0.1910  0.3523
  102ccc    H11 2949  12.569   0.543   7.789  0.4561 -1.3574  1.2173
  102ccc    H12 2950  12.675   0.657   7.876 -1.9554  0.9539 -0.0635
  102ccc     C8 2951  12.693   0.673   7.661 -0.5548 -0.0700  0.3209
  102ccc    H13 2952  12.800   0.689   7.643 -0.6319 -0.9063 -1.0498
  102ccc    H14 2953  12.660   0.628   7.567  1.2538  1.1949 -0.9935
  102ccc     C9 2954  12.629   0.803   7.657 -0.3691  0.2401  0.2621
  102ccc     O4 2955  12.687   0.884   7.726 -0.5367  0.4105 -0.3773
  102ccc     O5 2956  12.519   0.825   7.604  0.1718 -0.2111  0.3676
  102ccc     O1 2957  12.637   0.234   7.458 -0.0074 -0.1929 -1.1484
  103ccc     C3 2958  10.749   3.615   5.541 -0.1532 -1.2776 -0.0709
  103ccc     H5 2959  10.653   3.663   5.563  1.2603  0.7268  2.0922
  103ccc     H6 2960  10.816   3.691   5.501 -2.0843  0.2383 -0.6136
  103ccc     C2 2961  10.720   3.500   5.447  0.1800 -0.1101  0.2333
  103ccc     H3 2962  10.658   3.535   5.363 -2.3126 -4.8815 -0.2551
  103ccc     H4 2963  10.661   3.421   5.495  0.4306  1.3567  3.2227
  103ccc     C1 2964  10.850   3.430   5.402  0.1441 -0.2343  0.0646
  103ccc     H1 2965  10.913   3.427   5.492  0.5813  0.4369 -0.2058
  103ccc     H2 2966  10.901   3.489   5.325 -0.4929  1.0010  0.5721
  103ccc     N1 2967  10.831   3.294   5.350 -0.1992 -0.1249 -0.3153
  103ccc     C4 2968  10.957   3.216   5.379 -0.7228  0.5304  0.6262
  103ccc     H7 2969  11.049   3.273   5.366 -0.0370 -0.3849  1.3691
  103ccc     H8 2970  10.964   3.130   5.311 -1.4419  0.2270  0.9324
  103ccc     C5 2971  10.964   3.169   5.519  0.7667  0.2051 -0.7756
  103ccc     H9 2972  11.013   3.241   5.585 -0.0802  0.5891 -0.5535
  103ccc    H10 2973  10.869   3.137   5.564  0.8766  1.5755  0.4854
  103ccc     C6 2974  11.039   3.039   5.521  0.2272  0.3160  0.2900
  103ccc     O2 2975  11.158   3.043   5.536 -0.8907  0.5232  0.0239
  103ccc     O3 2976  10.988   2.933   5.496  0.2155  0.2348  0.4076
  103ccc     C7 2977  10.794   3.300   5.202 -0.4521  0.8354 -0.8304
  103ccc    H11 2978  10.707   3.365   5.189 -1.1107  0.3619  0.9581
  103ccc    H12 2979  10.873   3.343   5.139  0.8873  0.0952  0.2755
  103ccc     C8 2980  10.752   3.165   5.143 -0.0228  0.6153 -0.4042
  103ccc    H13 2981  10.806   3.081   5.189  0.5470 -0.7600 -3.3484
  103ccc    H14 2982  10.644   3.150   5.153 -0.0150 -0.6003 -1.8663
  103ccc     C9 2983  10.780   3.164   4.995  0.8354  0.0365 -0.5666
  103ccc     O4 2984  10.694   3.199   4.919  0.1214  0.3564 -0.2523
  103ccc     O5 2985  10.859   3.085   4.955  0.0634  0.3110  0.2642
  103ccc     O1 2986  10.812   3.569   5.661  0.5750 -0.0755  0.4701
  104ccc     C3 2987  11.303   3.567   5.261 -0.4120 -0.7912  0.5381
  104ccc     H5 2988  11.284   3.641   5.183 -1.0609  0.1778  1.5947
  104ccc     H6 2989  11.402   3.588   5.303 -0.0505  1.4184 -1.2358
  104ccc     C2 2990  11.299   3.418   5.202 -0.0935 -0.8382 -0.3018
  104ccc     H3 2991  11.255   3.354   5.279 -0.0080 -0.1878  0.2973
  104ccc     H4 2992  11.400   3.381   5.178 -0.1309 -0.7786 -0.5584
  104ccc     C1 2993  11.206   3.423   5.082  0.1832  0.2440 -0.0900
  104ccc     H1 2994  11.244   3.514   5.033 -1.0082  1.4124  1.0343
  104ccc     H2 2995  11.100   3.434   5.112  0.3083 -2.1331  1.4366
  104ccc     N1 2996  11.222   3.305   5.000  0.0144  0.1412 -0.4078
  104ccc     C4 2997  11.147   3.199   5.068  0.0270  0.3023  0.7421
  104ccc     H7 2998  11.067   3.155   5.007 -1.4439  0.9866  2.1038
  104ccc     H8 2999  11.090   3.228   5.157  0.0130  0.2829  0.7395
  104ccc     C5 3000  11.244   3.088   5.110  0.2329  0.0125 -0.4747
  104ccc     H9 3001  11.316   3.053   5.035  0.3549 -0.5288 -0.1149
  104ccc    H10 3002  11.319   3.136   5.174  1.1628  2.0927 -2.9470
  104ccc     C6 3003  11.193   2.967   5.175  0.4054  0.0596 -0.7465
  104ccc     O2 3004  11.266   2.915   5.262 -0.1484  0.1576 -0.3459
  104ccc     O3 3005  11.094   2.921   5.132  0.3362 -0.0374 -0.2278
  104ccc     C7 3006  11.180   3.337   4.867  0.7913 -0.0236  0.1503
  104ccc    H11 3007  11.071   3.348   4.862  0.8916  0.4511 -2.2375
  104ccc    H12 3008  11.229   3.432   4.844  0.1566  0.3257  0.2268
  104ccc     C8 3009  11.211   3.229   4.761  0.0918  0.3061  0.5346
  104ccc    H13 3010  11.215   3.277   4.662  0.6678 -1.2600 -0.2421
  104ccc    H14 3011  11.309   3.184   4.779  0.1920 -0.1319 -0.9448
  104ccc     C9 3012  11.106   3.122   4.757  0.8877 -0.2957 -0.3141
  104ccc     O4 3013  11.008   3.134   4.687 -0.4108  0.0558  0.1340
  104ccc     O5 3014  11.111   3.013   4.808 -0.0806  0.1967 -0.8275
  104ccc     O1 3015  11.201   3.585   5.366  0.0507  0.2235  0.0908
  105ccc     C3 3016  11.158   2.659   5.961 -0.0777  0.0828  0.1839
  105ccc     H5 3017  11.234   2.738   5.957  1.1074 -1.0992 -1.8477
  105ccc     H6 3018  11.211   2.564   5.949  1.5066  0.9052  0.4628
  105ccc     C2 3019  11.056   2.684   5.846  0.3497  0.5810 -0.3007
  105ccc     H3 3020  11.102   2.732   5.759  0.1173  1.5253  0.0780
  105ccc     H4 3021  10.973   2.751   5.873 -0.8126 -0.0327 -2.1311
  105ccc     C1 3022  10.989   2.554   5.803 -0.2125 -0.4967 -0.1868
  105ccc     H1 3023  10.946   2.499   5.887  2.4272 -0.0511  1.5734
  105ccc     H2 3024  11.060   2.483   5.759 -1.1726 -1.2885 -0.5143
  105ccc     N1 3025  10.883   2.572   5.702  0.2930  0.0555  0.8361
  105ccc     C4 3026  10.925   2.616   5.574  0.7380 -0.1643 -0.0338
  105ccc     H7 3027  10.965   2.718   5.585 -0.6617  0.3688  0.4336
  105ccc     H8 3028  10.840   2.623   5.505 -0.9456 -1.2533  1.8441
  105ccc     C5 3029  11.028   2.531   5.502  0.4576  0.3612  0.2985
  105ccc     H9 3030  11.123   2.514   5.553 -0.1874 -2.7437  0.6925
  105ccc    H10 3031  10.977   2.436   5.483 -0.1215  0.7409 -0.0844
  105ccc     C6 3032  11.048   2.586   5.366 -0.2746  0.1984 -0.3486
  105ccc     O2 3033  10.999   2.538   5.267  0.2698  0.3292  0.2907
  105ccc     O3 3034  11.112   2.691   5.348 -0.0005  0.6400 -0.3157
  105ccc     C7 3035  10.777   2.467   5.703 -0.1838 -0.9186 -0.2805
  105ccc    H11 3036  10.822   2.386   5.645  0.4513 -1.5236  0.9994
  105ccc    H12 3037  10.749   2.426   5.801 -0.0345 -0.5505 -0.0819
  105ccc     C8 3038  10.652   2.510   5.624  0.5533 -0.3901  0.6297
  105ccc    H13 3039  10.593   2.596   5.659  0.3943 -0.4915  0.6106
  105ccc    H14 3040  10.669   2.521   5.516 -2.1585  0.5449  0.2359
  105ccc     C9 3041  10.551   2.402   5.622 -0.2438  0.8043  0.5223
  105ccc     O4 3042  10.585   2.295   5.579  0.0801  0.2084  0.0275
  105ccc     O5 3043  10.455   2.409   5.691 -0.2070  0.4705  0.6933
  105ccc     O1 3044  11.089   2.663   6.085 -0.2746 -0.0144  0.3753
  106ccc     C3 3045  11.178   2.233   6.051  0.1192 -0.1704 -0.0529
  106ccc     H5 3046  11.226   2.332   6.045 -2.2776  1.2740  2.1926
  106ccc     H6 3047  11.261   2.166   6.075 -0.4843 -0.5787  0.9347
  106ccc     C2 3048  11.123   2.203   5.910  0.3530 -0.0793 -0.3648
  106ccc     H3 3049  11.046   2.282   5.905 -0.0752 -0.4421  0.3490
  106ccc     H4 3050  11.084   2.102   5.895  1.5285 -0.2739 -2.4870
  106ccc     C1 3051  11.226   2.237   5.794  0.5244  0.2553 -0.0614
  106ccc     H1 3052  11.328   2.216   5.830  0.1051 -1.2091  0.3449
  106ccc     H2 3053  11.216   2.344   5.773 -0.3964  0.0716 -0.6148
  106ccc     N1 3054  11.207   2.159   5.672 -0.0249  0.3032 -0.0430
  106ccc     C4 3055  11.082   2.196   5.606 -0.7518 -0.6039 -0.5912
  106ccc     H7 3056  11.080   2.305   5.605  0.5916 -0.4884  1.8501
  106ccc     H8 3057  10.995   2.162   5.664 -1.4882  0.0828 -1.2598
  106ccc     C5 3058  11.053   2.151   5.465 -0.2615 -0.1198 -0.2091
  106ccc     H9 3059  11.106   2.204   5.385 -0.9875  0.7578 -0.1307
  106ccc    H10 3060  11.081   2.046   5.449  1.3286  0.0690  1.1548
  106ccc     C6 3061  10.905   2.156   5.438 -0.2584  0.1837  0.6054
  106ccc     O2 3062  10.860   2.250   5.378 -0.2638  0.0496  0.5928
  106ccc     O3 3063  10.828   2.069   5.472  0.6712  0.4839 -0.1320
  106ccc     C7 3064  11.246   2.018   5.684  0.4228 -0.7453  0.1039
  106ccc    H11 3065  11.284   2.004   5.786 -0.6016  0.4813  0.6760
  106ccc    H12 3066  11.163   1.949   5.662 -0.0105  0.0800 -0.9583
  106ccc     C8 3067  11.349   1.997   5.576 -0.4633 -0.5264 -0.1782
  106ccc    H13 3068  11.316   2.019   5.474 -1.4519  0.4166  0.3237
  106ccc    H14 3069  11.441   2.055   5.595  1.3104 -3.0091 -0.7085
  106ccc     C9 3070  11.409   1.859   5.568  0.2606 -0.1575  0.6760
  106ccc     O4 3071  11.379   1.769   5.645 -0.4461  0.0402 -0.4100
  106ccc     O5 3072  11.511   1.843   5.500  0.4810 -0.2042  0.0114
  106ccc     O1 3073  11.076   2.205   6.153 -0.0866  0.2769 -0.3764
  107ccc     C3 3074  11.286   2.195   8.928  0.6363  0.2781 -0.0741
  107ccc     H5 3075  11.327   2.111   8.984 -0.6894 -1.9525 -2.2089
  107ccc     H6 3076  11.264   2.286   8.986 -0.4413  1.9974 -2.9334
  107ccc     C2 3077  11.152   2.142   8.860 -0.3642 -0.6245  0.0170
  107ccc     H3 3078  11.076   2.109   8.932 -1.5884  0.5707 -0.6830
  107ccc     H4 3079  11.180   2.058   8.795 -1.7407  0.1052 -1.5696
  107ccc     C1 3080  11.087   2.262   8.784  0.1387  0.7600  0.5268
  107ccc     H1 3081  11.156   2.294   8.705 -0.5501  0.6093 -0.1466
  107ccc     H2 3082  11.075   2.342   8.858 -1.9150  0.2995  0.7451
  107ccc     N1 3083  10.957   2.228   8.726  0.3520 -0.2139 -0.2762
  107ccc     C4 3084  10.977   2.185   8.586 -0.0310  0.1185 -0.1843
  107ccc     H7 3085  11.031   2.260   8.526 -0.4998 -0.4699 -1.3745
  107ccc     H8 3086  10.879   2.177   8.538 -1.1072  1.1824  1.7149
  107ccc     C5 3087  11.044   2.048   8.577  0.7674  0.1935 -0.2062
  107ccc     H9 3088  11.153   2.059   8.568  0.7572  0.8140  0.3904
  107ccc    H10 3089  11.014   1.983   8.661  0.0385  2.3275  1.2721
  107ccc     C6 3090  11.006   1.966   8.456 -0.8566  0.3680 -0.9558
  107ccc     O2 3091  10.980   1.847   8.469 -0.1467 -0.6263 -0.7297
  107ccc     O3 3092  11.056   1.993   8.354 -0.2461 -0.0382  0.9982
  107ccc     C7 3093  10.860   2.337   8.742  0.6016 -0.2004  0.4868
  107ccc    H11 3094  10.902   2.433   8.713  2.0906 -1.1581 -0.6480
  107ccc    H12 3095  10.774   2.319   8.676  0.2474 -0.3347  0.9697
  107ccc     C8 3096  10.804   2.343   8.887  0.0135 -0.5913  0.0730
  107ccc    H13 3097  10.778   2.244   8.926  0.9921 -1.2122 -0.7868
  107ccc    H14 3098  10.881   2.387   8.951  2.0746 -1.6205 -1.5628
  107ccc     C9 3099  10.692   2.438   8.896  0.1746  0.2054 -1.0920
  107ccc     O4 3100  10.703   2.549   8.848 -0.0488  0.3819 -0.3144
  107ccc     O5 3101  10.589   2.405   8.952  0.1066  0.2192 -0.5259
  107ccc     O1 3102  11.375   2.240   8.828 -0.0988 -0.4863  0.2391
  108ccc     C3 3103  12.227   2.180   8.819 -0.2379 -0.7976  0.2189
  108ccc     H5 3104  12.208   2.272   8.875  0.3237 -1.4500  1.5214
  108ccc     H6 3105  12.252   2.101   8.891 -1.6392 -1.2288  0.2666
  108ccc     C2 3106  12.337   2.199   8.714 -0.0160 -0.5749  0.2901
  108ccc     H3 3107  12.300   2.268   8.638 -0.3014  0.1170  1.0406
  108ccc     H4 3108  12.352   2.102   8.665  0.3109 -0.8338  0.8981
  108ccc     C1 3109  12.472   2.255   8.773 -0.0972  0.5619  0.2998
  108ccc     H1 3110  12.450   2.347   8.828  1.3670  0.5934  0.8538
  108ccc     H2 3111  12.543   2.282   8.694 -2.4120  1.9051 -1.4526
  108ccc     N1 3112  12.531   2.153   8.858 -0.1924  0.1053  0.3669
  108ccc     C4 3113  12.629   2.074   8.777  0.5236  0.1608  0.0395
  108ccc     H7 3114  12.733   2.109   8.782  1.1081 -1.4829  0.2291
  108ccc     H8 3115  12.594   2.060   8.674 -1.2429 -1.2174  0.7736
  108ccc     C5 3116  12.620   1.931   8.840 -0.4112 -0.1712  0.4292
  108ccc     H9 3117  12.665   1.928   8.940  1.7681  1.0747 -0.4348
  108ccc    H10 3118  12.515   1.901   8.849  0.2892 -2.2342  2.8292
  108ccc     C6 3119  12.710   1.846   8.753  0.6152  0.6801 -0.5083
  108ccc     O2 3120  12.820   1.824   8.796  0.4163 -0.6647 -0.1327
  108ccc     O3 3121  12.673   1.782   8.659 -0.2526  0.3742 -0.2224
  108ccc     C7 3122  12.599   2.214   8.974  0.7320 -0.0172 -0.0361
  108ccc    H11 3123  12.630   2.126   9.033 -0.7103 -0.7020 -0.2463
  108ccc    H12 3124  12.687   2.274   8.948  0.7773 -0.3722 -0.7348
  108ccc     C8 3125  12.497   2.288   9.069 -0.5926  0.2261  0.1496
  108ccc    H13 3126  12.462   2.383   9.029 -0.6743 -0.2082 -0.8423
  108ccc    H14 3127  12.408   2.225   9.077 -2.0610  2.0620 -0.9813
  108ccc     C9 3128  12.556   2.317   9.201 -0.4254 -0.5010  0.2960
  108ccc     O4 3129  12.613   2.424   9.220  0.3169  0.2399 -0.0348
  108ccc     O5 3130  12.508   2.262   9.297 -0.0350  0.0922 -0.0178
  108ccc     O1 3131  12.110   2.124   8.755  0.6154 -0.3701 -0.1175
  109ccc     C3 3132  12.455   2.534   8.408 -0.2550 -0.2558  0.9337
  109ccc     H5 3133  12.483   2.579   8.312  0.7114  2.0696  2.2146
  109ccc     H6 3134  12.365   2.580   8.452 -1.6108 -0.4868 -1.4187
  109ccc     C2 3135  12.579   2.545   8.504  0.7415 -0.5051 -0.2867
  109ccc     H3 3136  12.547   2.512   8.604  0.8955 -1.6880 -0.6146
  109ccc     H4 3137  12.609   2.650   8.510 -1.6658  0.2353 -0.3496
  109ccc     C1 3138  12.697   2.461   8.451 -0.1184  0.6885  0.4159
  109ccc     H1 3139  12.729   2.488   8.349  0.7506 -2.3590 -0.2252
  109ccc     H2 3140  12.657   2.360   8.439 -0.9258  1.1107 -0.5612
  109ccc     N1 3141  12.820   2.447   8.538 -0.0049  0.3747  0.3494
  109ccc     C4 3142  12.782   2.446   8.686 -0.1647  0.3183 -0.5520
  109ccc     H7 3143  12.723   2.357   8.711 -1.6648  1.2475 -0.6676
  109ccc     H8 3144  12.718   2.532   8.709  0.5945  1.8085 -3.5929
  109ccc     C5 3145  12.918   2.447   8.767 -0.4518 -0.1496 -0.3088
  109ccc     H9 3146  12.957   2.344   8.777  2.1334  0.7247 -0.4557
  109ccc    H10 3147  12.987   2.506   8.705 -0.1617  2.7435  2.5638
  109ccc     C6 3148  12.903   2.530   8.891 -0.5473  0.2422  0.1547
  109ccc     O2 3149  12.859   2.476   8.998 -0.6372  0.3145 -0.4021
  109ccc     O3 3150  12.934   2.646   8.890 -0.3243  0.0398  0.1434
  109ccc     C7 3151  12.891   2.331   8.490 -0.0589 -0.3736 -0.3865
  109ccc    H11 3152  12.888   2.338   8.380  0.6704  2.5893 -0.3037
  109ccc    H12 3153  12.993   2.347   8.525 -0.7782 -0.4132  1.8680
  109ccc     C8 3154  12.850   2.197   8.542 -0.7568  0.4888 -0.4684
  109ccc    H13 3155  12.876   2.199   8.648  1.4885  2.8361 -0.9698
  109ccc    H14 3156  12.742   2.183   8.523 -0.4006  0.5488 -2.8995
  109ccc     C9 3157  12.923   2.087   8.475 -0.8386  0.0659 -0.2075
  109ccc     O4 3158  12.881   1.974   8.506  0.4033  0.1470  0.2338
  109ccc     O5 3159  12.995   2.093   8.374 -0.5511 -0.2206  0.1633
  109ccc     O1 3160  12.431   2.394   8.400 -0.2579 -0.0422  0.3331
  110ccc     C3 3161  11.997   1.588   8.639  0.6203  0.1862  0.4281
  110ccc     H5 3162  11.984   1.486   8.600  2.1179  0.5572 -1.1569
  110ccc     H6 3163  12.073   1.567   8.715 -0.5761 -0.7739  1.4129
  110ccc     C2 3164  11.870   1.641   8.721  0.0109 -0.2218  0.5026
  110ccc     H3 3165  11.900   1.723   8.788 -1.5038 -0.2252  1.2275
  110ccc     H4 3166  11.818   1.561   8.775 -0.1854 -0.6600 -0.3108
  110ccc     C1 3167  11.775   1.690   8.605 -0.7157  0.3477 -0.6003
  110ccc     H1 3168  11.743   1.606   8.543  1.3842  0.0057 -1.2843
  110ccc     H2 3169  11.823   1.760   8.536 -1.7715 -0.6919 -2.4758
  110ccc     N1 3170  11.654   1.764   8.652  0.2658  0.7823 -0.1639
  110ccc     C4 3171  11.580   1.708   8.768 -0.1261  0.8407 -0.3333
  110ccc     H7 3172  11.510   1.782   8.807  0.1295  0.9550 -0.0858
  110ccc     H8 3173  11.649   1.692   8.851 -0.4141  0.6584 -0.1316
  110ccc     C5 3174  11.512   1.580   8.719  0.2727 -0.2387  0.3063
  110ccc     H9 3175  11.444   1.594   8.634  1.9941  0.0456 -1.0831
  110ccc    H10 3176  11.592   1.508   8.693  1.8182  2.0140 -1.6591
  110ccc     C6 3177  11.446   1.532   8.844  0.7820  0.0333 -0.2591
  110ccc     O2 3178  11.499   1.536   8.958  0.6237  0.7834  0.8079
  110ccc     O3 3179  11.344   1.468   8.830  0.0507  0.4604 -0.4090
  110ccc     C7 3180  11.571   1.801   8.536 -0.9385 -0.1231  0.0256
  110ccc    H11 3181  11.635   1.865   8.475  3.1954 -1.6450  2.3569
  110ccc    H12 3182  11.553   1.718   8.467 -0.9380  0.7938 -1.1071
  110ccc     C8 3183  11.436   1.867   8.565  0.0949  0.5788 -0.1261
  110ccc    H13 3184  11.385   1.820   8.649  0.1694 -0.8641 -0.8564
  110ccc    H14 3185  11.443   1.976   8.575 -1.4800  0.8045 -1.0488
  110ccc     C9 3186  11.343   1.848   8.446  0.6383  0.0190 -0.6445
  110ccc     O4 3187  11.266   1.756   8.445  0.0780  0.3937 -0.0756
  110ccc     O5 3188  11.350   1.910   8.339  0.1495 -0.2934  0.3157
  110ccc     O1 3189  12.049   1.692   8.545 -0.9490  0.0328 -0.6527
  111ccc     C3 3190   9.810   0.018   5.340 -0.1891 -0.7089  0.0445
  111ccc     H5 3191   9.906  -0.004   5.388  0.7475  2.0565 -0.3745
  111ccc     H6 3192   9.726  -0.004   5.408 -0.6949 -1.3636 -0.7652
  111ccc     C2 3193   9.794  -0.062   5.209  0.1136  0.4723 -0.0182
  111ccc     H3 3194   9.877  -0.048   5.139 -0.2381 -2.3259 -1.1489
  111ccc     H4 3195   9.700  -0.037   5.159  1.0639  3.0624 -0.6283
  111ccc     C1 3196   9.793  -0.209   5.250  0.3677  0.7378  0.2124
  111ccc     H1 3197   9.890  -0.235   5.295 -0.1907  0.0674  1.0625
  111ccc     H2 3198   9.781  -0.270   5.159 -0.6981 -0.3633  1.0643
  111ccc     N1 3199   9.689  -0.242   5.350 -0.0412  0.1121  0.2448
  111ccc     C4 3200   9.548  -0.220   5.305  0.4970 -0.2903 -0.1202
  111ccc     H7 3201   9.541  -0.113   5.281 -0.5872 -0.3385 -0.0702
  111ccc     H8 3202   9.478  -0.232   5.389 -0.5849 -1.6874 -1.1706
  111ccc     C5 3203   9.507  -0.305   5.178  0.0562 -0.3242 -0.9526
  111ccc     H9 3204   9.481  -0.246   5.089  0.4450 -0.4505 -1.1502
  111ccc    H10 3205   9.587  -0.378   5.160 -1.1906 -1.6542 -1.3424
  111ccc     C6 3206   9.380  -0.381   5.217 -0.2236 -0.4634 -0.7497
  111ccc     O2 3207   9.374  -0.470   5.301 -0.2890 -0.5054 -0.8659
  111ccc     O3 3208   9.278  -0.360   5.152  0.7940  0.1667  0.0169
  111ccc     C7 3209   9.719  -0.373   5.412  0.3281 -0.2017  0.1866
  111ccc    H11 3210   9.725  -0.453   5.338 -0.1677  1.3076 -1.5613
  111ccc    H12 3211   9.816  -0.363   5.462  0.7954 -0.0841 -0.7256
  111ccc     C8 3212   9.619  -0.411   5.520 -0.7240  0.0581  0.1705
  111ccc    H13 3213   9.654  -0.368   5.614  0.6280  1.0712 -0.7578
  111ccc    H14 3214   9.514  -0.383   5.504 -0.3249  1.3358 -0.3368
  111ccc     C9 3215   9.629  -0.562   5.532 -0.3401  0.4239 -0.5825
  111ccc     O4 3216   9.560  -0.637   5.461 -0.0846  0.0416  0.4307
  111ccc     O5 3217   9.666  -0.611   5.639  0.1520 -0.8573  0.4058
  111ccc     O1 3218   9.805   0.161   5.316 -0.1367  0.2412  0.2663
  112ccc     C3 3219   9.697   0.987   4.866 -0.4606  1.2694  0.3990
  112ccc     H5 3220   9.628   1.055   4.918 -1.3413  0.0445  0.8898
  112ccc     H6 3221   9.799   1.026   4.867 -0.6310  1.7310  1.3741
  112ccc     C2 3222   9.661   0.976   4.713 -0.2724  0.3806 -0.2733
  112ccc     H3 3223   9.611   1.062   4.666 -0.9922 -0.0574 -0.3256
  112ccc     H4 3224   9.588   0.895   4.703  0.4261 -0.7370  2.6104
  112ccc     C1 3225   9.780   0.927   4.630 -0.6653  0.3553 -0.4254
  112ccc     H1 3226   9.738   0.886   4.537  0.5924  0.0667 -0.8860
  112ccc     H2 3227   9.819   0.835   4.676 -0.0037  0.0502 -1.5625
  112ccc     N1 3228   9.886   1.024   4.601  0.1797 -0.0926 -0.5521
  112ccc     C4 3229   9.839   1.128   4.512  0.6342  0.5170  0.5829
  112ccc     H7 3230   9.909   1.210   4.492 -0.6661  1.4960 -0.0666
  112ccc     H8 3231   9.748   1.166   4.560  0.7580  0.6958  0.6831
  112ccc     C5 3232   9.808   1.084   4.368 -0.4886  0.3054  0.7866
  112ccc     H9 3233   9.875   1.002   4.339  1.4652  2.5870 -1.6576
  112ccc    H10 3234   9.705   1.045   4.369  0.1441 -1.4409  0.6188
  112ccc     C6 3235   9.824   1.194   4.267 -0.4549 -0.0984  0.1766
  112ccc     O2 3236   9.912   1.194   4.189 -0.5400 -0.6746  0.0667
  112ccc     O3 3237   9.727   1.241   4.219  0.1394  0.0879  0.0533
  112ccc     C7 3238  10.012   0.962   4.574 -0.7786  0.2590 -0.1595
  112ccc    H11 3239  10.026   0.871   4.635  0.1764  0.0623 -0.6457
  112ccc    H12 3240  10.006   0.915   4.475 -0.8032 -1.4581  0.6192
  112ccc     C8 3241  10.132   1.063   4.569  0.3268 -0.7260 -0.1332
  112ccc    H13 3242  10.101   1.135   4.492 -2.9033 -2.4294 -0.5828
  112ccc    H14 3243  10.129   1.111   4.668 -1.2929 -0.4127 -0.3064
  112ccc     C9 3244  10.260   0.998   4.532  0.4876 -0.8208  0.0931
  112ccc     O4 3245  10.334   1.057   4.451  0.3624  0.3515 -0.4572
  112ccc     O5 3246  10.282   0.878   4.533  0.0643  0.3265 -0.0576
  112ccc     O1 3247   9.704   0.862   4.930 -0.1152  0.8312 -0.1548
  113ccc     C3 3248   9.191  -0.477   5.701  0.3862 -0.1949 -0.8333
  113ccc     H5 3249   9.236  -0.549   5.631 -3.2403 -1.3678 -2.1717
  113ccc     H6 3250   9.279  -0.428   5.745  1.0328 -1.7979 -0.2747
  113ccc     C2 3251   9.093  -0.548   5.789  0.0772  0.0864 -0.1876
  113ccc     H3 3252   9.135  -0.621   5.859 -1.5014 -1.6565 -0.9751
  113ccc     H4 3253   9.029  -0.611   5.726  0.2531 -1.9076  1.5090
  113ccc     C1 3254   9.013  -0.444   5.877  0.2499 -0.3755  0.0205
  113ccc     H1 3255   8.957  -0.367   5.822 -2.4254 -1.2939  1.2712
  113ccc     H2 3256   9.091  -0.397   5.938  0.0975  2.7139 -1.9817
  113ccc     N1 3257   8.910  -0.496   5.968  0.2055 -0.1582 -0.2509
  113ccc     C4 3258   8.964  -0.569   6.083 -0.2784  0.1509 -0.1613
  113ccc     H7 3259   9.038  -0.642   6.048 -1.0527  0.4868 -2.7524
  113ccc     H8 3260   8.877  -0.615   6.132  0.6870 -1.0139  0.4978
  113ccc     C5 3261   9.018  -0.470   6.182  0.2389  0.3205  0.0660
  113ccc     H9 3262   9.083  -0.523   6.253  2.0475  0.8566 -1.1126
  113ccc    H10 3263   9.076  -0.386   6.141 -1.6996  0.6689 -2.1618
  113ccc     C6 3264   8.901  -0.405   6.253  0.2942 -0.4381 -0.1854
  113ccc     O2 3265   8.859  -0.450   6.362 -0.0092 -0.3490 -0.0970
  113ccc     O3 3266   8.849  -0.312   6.200 -0.6353  0.0890 -0.0391
  113ccc     C7 3267   8.798  -0.568   5.900 -0.0649 -0.0274 -0.0365
  113ccc    H11 3268   8.842  -0.662   5.866  0.7619 -0.2011  1.4311
  113ccc    H12 3269   8.712  -0.580   5.967 -0.3759  0.8673 -0.2514
  113ccc     C8 3270   8.732  -0.501   5.773 -0.6570  0.6351  0.7171
  113ccc    H13 3271   8.812  -0.457   5.712 -1.1361  1.6814  0.8182
  113ccc    H14 3272   8.680  -0.573   5.710 -0.4563  0.6501  0.5351
  113ccc     C9 3273   8.638  -0.386   5.796 -0.0285  0.3732  1.1859
  113ccc     O4 3274   8.668  -0.297   5.873  0.5625 -0.2490 -0.6071
  113ccc     O5 3275   8.534  -0.379   5.728  0.4848  0.1019  0.3808
  113ccc     O1 3276   9.123  -0.372   5.631 -0.1518 -0.5230  0.2745
  114ccc     C3 3277   8.590  -0.001   5.217  0.2503  0.8709  0.1674
  114ccc     H5 3278   8.585   0.087   5.151  1.5461  1.8552  1.3043
  114ccc     H6 3279   8.599  -0.088   5.151  0.0077  0.8054  0.2198
  114ccc     C2 3280   8.466  -0.003   5.311  0.5128 -0.0499 -0.0168
  114ccc     H3 3281   8.464   0.089   5.370  2.0631 -1.0844  1.7746
  114ccc     H4 3282   8.473  -0.085   5.383 -0.2813  0.5844  0.7907
  114ccc     C1 3283   8.352  -0.027   5.220 -0.0344 -0.2219 -0.4745
  114ccc     H1 3284   8.376  -0.118   5.163  1.3166 -0.4282  0.3851
  114ccc     H2 3285   8.332   0.056   5.152  1.2778  0.9192  0.4842
  114ccc     N1 3286   8.238  -0.067   5.300  0.0628  0.5133 -0.0432
  114ccc     C4 3287   8.150   0.047   5.314 -0.6960 -0.3710 -0.8254
  114ccc     H7 3288   8.100   0.059   5.217  2.2419 -2.8289 -2.8357
  114ccc     H8 3289   8.215   0.129   5.346  1.1786 -0.5035 -3.8785
  114ccc     C5 3290   8.048   0.017   5.419 -0.1097  0.1556 -0.1043
  114ccc     H9 3291   7.969  -0.046   5.377 -0.0051 -1.0948  1.4423
  114ccc    H10 3292   8.099  -0.041   5.498 -0.8768 -0.4740 -0.0599
  114ccc     C6 3293   7.995   0.142   5.474 -0.0272 -0.4272 -0.1462
  114ccc     O2 3294   8.025   0.247   5.419  0.3258  0.4547 -0.2438
  114ccc     O3 3295   7.943   0.150   5.583  0.1902  0.0902  0.3548
  114ccc     C7 3296   8.171  -0.193   5.273  0.7085  0.1564  0.3464
  114ccc    H11 3297   8.081  -0.204   5.335  1.1592 -0.7987  0.8659
  114ccc    H12 3298   8.148  -0.201   5.166 -2.2361 -2.3088  1.0200
  114ccc     C8 3299   8.245  -0.313   5.315 -0.1418  0.1697  0.3589
  114ccc    H13 3300   8.195  -0.401   5.272  3.5390 -1.9705 -0.0113
  114ccc    H14 3301   8.341  -0.308   5.263 -0.4031 -1.5477 -0.3528
  114ccc     C9 3302   8.259  -0.314   5.464 -0.8171 -0.3880  0.3157
  114ccc     O4 3303   8.371  -0.309   5.512 -0.0504  0.3523 -0.0588
  114ccc     O5 3304   8.188  -0.376   5.536  0.5842  0.0721  0.0836
  114ccc     O1 3305   8.715   0.012   5.294 -0.0286 -0.4060  0.1692
  115ccc     C3 3306  11.239   1.172   5.023  0.1106  0.4376  0.1765
  115ccc     H5 3307  11.279   1.208   4.928 -1.8981  3.5770  0.3662
  115ccc     H6 3308  11.130   1.183   5.020 -0.0804 -1.4718 -0.8479
  115ccc     C2 3309  11.291   1.262   5.140  0.3790  0.2006 -0.5479
  115ccc     H3 3310  11.266   1.219   5.237 -0.4636 -1.2175 -1.3597
  115ccc     H4 3311  11.244   1.361   5.131  1.1664  1.0008  2.9002
  115ccc     C1 3312  11.446   1.283   5.138 -0.1528  0.2835 -0.0051
  115ccc     H1 3313  11.472   1.309   5.035  0.6396 -1.8211 -0.3718
  115ccc     H2 3314  11.499   1.189   5.157  2.5726  1.5336 -0.8350
  115ccc     N1 3315  11.501   1.385   5.230 -0.0546  0.2768  0.1859
  115ccc     C4 3316  11.632   1.421   5.193 -0.1365 -0.9715  0.4681
  115ccc     H7 3317  11.629   1.432   5.084  2.8468 -1.5606  0.2259
  115ccc     H8 3318  11.706   1.346   5.225  0.7691  0.5444  2.1412
  115ccc     C5 3319  11.681   1.556   5.250 -0.2320 -0.8904 -0.4938
  115ccc     H9 3320  11.757   1.590   5.179 -1.9505  1.8477 -1.1917
  115ccc    H10 3321  11.604   1.634   5.262  0.9525 -0.0461  2.3731
  115ccc     C6 3322  11.748   1.536   5.384  0.6934  0.0817 -0.0995
  115ccc     O2 3323  11.713   1.594   5.485  0.3016 -0.2714  0.2658
  115ccc     O3 3324  11.852   1.479   5.388  0.0965  0.3699  0.0041
  115ccc     C7 3325  11.468   1.360   5.364 -0.1351  0.8222  0.9790
  115ccc    H11 3326  11.426   1.260   5.383 -1.8786  1.4425  0.5412
  115ccc    H12 3327  11.564   1.361   5.418 -0.2598 -0.9667  1.3118
  115ccc     C8 3328  11.370   1.462   5.420 -0.3532  0.2454 -0.2671
  115ccc    H13 3329  11.409   1.561   5.394  1.3242 -0.5211 -0.8384
  115ccc    H14 3330  11.272   1.465   5.372 -0.4209 -0.3997 -0.1828
  115ccc     C9 3331  11.357   1.451   5.574  0.5512  0.0481  0.0493
  115ccc     O4 3332  11.243   1.475   5.621  0.1300  0.6360  0.0089
  115ccc     O5 3333  11.457   1.483   5.638 -0.2765 -0.9218  0.0677
  115ccc     O1 3334  11.271   1.035   5.050  0.4810 -0.0694  0.3564
  116ccc     C3 3335  11.189   0.210   4.688 -0.3370  0.0807  0.2765
  116ccc     H5 3336  11.164   0.223   4.582  0.3729 -0.9545 -0.0327
  116ccc     H6 3337  11.296   0.232   4.701 -0.1526 -0.7257  0.1697
  116ccc     C2 3338  11.166   0.062   4.725 -0.2109  0.2033 -0.3095
  116ccc     H3 3339  11.197  -0.001   4.641  0.2886 -0.4661  0.3678
  116ccc     H4 3340  11.057   0.047   4.732 -0.1688  0.5212  2.7529
  116ccc     C1 3341  11.220   0.011   4.864  0.3719 -0.2931 -0.1398
  116ccc     H1 3342  11.150   0.058   4.933  2.1766 -0.4961  1.9526
  116ccc     H2 3343  11.317   0.059   4.884 -0.0382  1.5166 -2.2116
  116ccc     N1 3344  11.231  -0.135   4.882  0.2513  0.4772 -0.3011
  116ccc     C4 3345  11.099  -0.203   4.865 -0.5443 -0.3011  0.3926
  116ccc     H7 3346  11.056  -0.166   4.771  0.1627  0.5357  0.3818
  116ccc     H8 3347  11.033  -0.176   4.948 -3.4024 -0.4665 -1.6775
  116ccc     C5 3348  11.113  -0.353   4.844  0.0230 -0.5733 -0.3432
  116ccc     H9 3349  11.122  -0.369   4.736  0.6621  0.6243 -0.4881
  116ccc    H10 3350  11.203  -0.396   4.891  0.2093  0.6864  0.4930
  116ccc     C6 3351  10.986  -0.415   4.891 -0.6798  0.3435 -0.0190
  116ccc     O2 3352  10.982  -0.497   4.979 -0.3549  0.3328 -0.6244
  116ccc     O3 3353  10.886  -0.399   4.829  0.2160 -0.1562 -0.7075
  116ccc     C7 3354  11.294  -0.168   5.013 -0.0271 -0.6753 -0.3569
  116ccc    H11 3355  11.239  -0.115   5.092 -0.0088  0.7332 -1.2386
  116ccc    H12 3356  11.294  -0.276   5.029  4.0205 -1.0916 -1.8559
  116ccc     C8 3357  11.442  -0.127   5.021  0.6230  0.6319 -0.3685
  116ccc    H13 3358  11.492  -0.192   4.949  1.0761  0.8899 -0.2883
  116ccc    H14 3359  11.464  -0.021   5.003  0.4608  0.9099  0.9379
  116ccc     C9 3360  11.499  -0.149   5.155 -0.6504  0.3922 -0.3142
  116ccc     O4 3361  11.533  -0.264   5.185  0.3526  0.2525 -0.0674
  116ccc     O5 3362  11.564  -0.061   5.211 -0.4268 -0.0391 -0.2335
  116ccc     O1 3363  11.111   0.293   4.767  0.1388 -0.3358 -0.3373
  117ccc     C3 3364  10.179  -0.144   5.349  0.0269 -1.3266  1.0233
  117ccc     H5 3365  10.091  -0.086   5.378  0.8116  0.6281 -0.2745
  117ccc     H6 3366  10.267  -0.136   5.414  0.9330  0.6095 -0.3414
  117ccc     C2 3367  10.212  -0.084   5.211 -0.3342 -1.0648  0.7971
  117ccc     H3 3368  10.215   0.025   5.213 -1.6270 -0.9984  0.0192
  117ccc     H4 3369  10.135  -0.095   5.134  0.5441  1.0547 -0.4743
  117ccc     C1 3370  10.349  -0.145   5.154  0.2663 -0.3872 -0.4292
  117ccc     H1 3371  10.425  -0.136   5.232  0.6142 -0.0575 -0.8005
  117ccc     H2 3372  10.380  -0.077   5.073 -0.0840  1.3913  0.8871
  117ccc     N1 3373  10.341  -0.283   5.105 -0.5892 -0.6961  0.1828
  117ccc     C4 3374  10.224  -0.309   5.022  0.4904  0.6063  0.6643
  117ccc     H7 3375  10.137  -0.300   5.088 -0.2461 -1.4780  0.0863
  117ccc     H8 3376  10.224  -0.416   4.995 -0.8430  0.9192 -0.7207
  117ccc     C5 3377  10.210  -0.233   4.895  0.3604 -0.0664  0.6047
  117ccc     H9 3378  10.172  -0.133   4.920 -0.5503 -0.4331  0.7423
  117ccc    H10 3379  10.311  -0.223   4.853  0.8613 -2.3376  1.1204
  117ccc     C6 3380  10.117  -0.299   4.800 -0.3154  0.6555 -0.0752
  117ccc     O2 3381  10.163  -0.354   4.700  0.4392  0.3749 -1.0616
  117ccc     O3 3382   9.999  -0.293   4.810  0.6967 -0.3863  0.2077
  117ccc     C7 3383  10.467  -0.326   5.049  0.0586 -0.0076 -0.2223
  117ccc    H11 3384  10.491  -0.278   4.953 -1.0071 -1.1817 -1.1045
  117ccc    H12 3385  10.548  -0.308   5.121 -1.5279 -2.0777  2.2759
  117ccc     C8 3386  10.478  -0.476   5.036 -0.1617 -0.0571 -0.1107
  117ccc    H13 3387  10.466  -0.523   5.135  2.1533 -2.2119 -0.7673
  117ccc    H14 3388  10.404  -0.520   4.968  0.0881 -0.1817 -0.3031
  117ccc     C9 3389  10.601  -0.515   4.984 -0.8510  0.4091 -0.6227
  117ccc     O4 3390  10.613  -0.540   4.868 -0.4801  0.1858 -0.2668
  117ccc     O5 3391  10.692  -0.539   5.065  0.1991 -0.6360 -0.2547
  117ccc     O1 3392  10.145  -0.279   5.336 -1.0296  0.7446  0.2288
  118ccc     C3 3393  10.482  -0.906   5.131  0.1920  0.4821 -0.3187
  118ccc     H5 3394  10.528  -1.005   5.125  2.0712  1.3742 -1.3817
  118ccc     H6 3395  10.378  -0.931   5.157  0.4520 -1.4702 -1.0129
  118ccc     C2 3396  10.489  -0.832   4.994  0.1230  0.2013 -0.2136
  118ccc     H3 3397  10.594  -0.806   4.984  0.3212 -0.2134  0.6707
  118ccc     H4 3398  10.422  -0.745   4.989  1.5867  1.3035 -1.9757
  118ccc     C1 3399  10.441  -0.916   4.877  0.6260  1.1115 -0.2500
  118ccc     H1 3400  10.332  -0.926   4.881  0.7484  0.0167  0.4649
  118ccc     H2 3401  10.476  -1.015   4.905 -0.8758  1.0110  1.4239
  118ccc     N1 3402  10.491  -0.869   4.745 -0.0620  0.2885  0.9411
  118ccc     C4 3403  10.408  -0.931   4.634  0.5529 -0.7894 -0.1254
  118ccc     H7 3404  10.372  -1.029   4.665 -0.3837 -0.1461  0.9060
  118ccc     H8 3405  10.462  -0.936   4.539  1.4789 -0.0599  0.3402
  118ccc     C5 3406  10.287  -0.845   4.613 -0.1619  0.3295  0.1963
  118ccc     H9 3407  10.230  -0.879   4.526  0.9420 -0.2567 -0.3144
  118ccc    H10 3408  10.217  -0.856   4.697 -2.9596 -1.9807 -2.2206
  118ccc     C6 3409  10.313  -0.695   4.587 -0.3152 -0.1077  0.6289
  118ccc     O2 3410  10.325  -0.651   4.472  0.6120  0.5146 -0.0674
  118ccc     O3 3411  10.333  -0.615   4.681  0.3991 -0.1297  0.1002
  118ccc     C7 3412  10.628  -0.913   4.725 -0.7944  0.1823  0.6065
  118ccc    H11 3413  10.679  -0.889   4.819  1.1680 -1.3271 -0.0115
  118ccc    H12 3414  10.633  -1.022   4.712  1.1478  0.3631 -0.5816
  118ccc     C8 3415  10.701  -0.843   4.610  0.1910  0.3504 -0.2218
  118ccc    H13 3416  10.796  -0.898   4.606 -0.8582 -1.4847 -0.8334
  118ccc    H14 3417  10.647  -0.865   4.517  2.2436  3.2840 -2.3029
  118ccc     C9 3418  10.725  -0.692   4.623 -0.1565  0.3945  0.4339
  118ccc     O4 3419  10.822  -0.656   4.689 -0.1442 -0.2066  0.3374
  118ccc     O5 3420  10.648  -0.605   4.579  0.4163  0.0127  0.2840
  118ccc     O1 3421  10.543  -0.824   5.240 -0.2233 -0.0608 -0.4781
  119ccc     C3 3422   9.772   2.195   4.691  0.4410 -0.1572  0.1016
  119ccc     H5 3423   9.754   2.100   4.639 -0.8021 -0.1754  0.5296
  119ccc     H6 3424   9.868   2.190   4.745  2.0333  1.5044 -2.3802
  119ccc     C2 3425   9.658   2.212   4.785  0.2827  0.2497 -0.5957
  119ccc     H3 3426   9.634   2.116   4.834  0.6420  1.1261  1.4064
  119ccc     H4 3427   9.569   2.235   4.725  0.9481  0.7982 -1.3924
  119ccc     C1 3428   9.685   2.320   4.887  0.0976  0.1788  0.0781
  119ccc     H1 3429   9.720   2.405   4.829  1.8527 -0.3244  0.3259
  119ccc     H2 3430   9.768   2.296   4.955  1.0796  1.4542 -0.6434
  119ccc     N1 3431   9.570   2.355   4.973  0.3068  0.3069  0.8931
  119ccc     C4 3432   9.514   2.254   5.064  0.6228 -0.3874 -0.0006
  119ccc     H7 3433   9.461   2.179   5.005  0.9831 -1.1516  0.6236
  119ccc     H8 3434   9.453   2.302   5.142  1.0979 -1.2910  0.9601
  119ccc     C5 3435   9.614   2.172   5.141  0.5128  0.7192 -0.8766
  119ccc     H9 3436   9.668   2.108   5.070 -0.3741  1.2709 -2.0915
  119ccc    H10 3437   9.674   2.238   5.205  1.1402 -1.1142  0.5298
  119ccc     C6 3438   9.543   2.072   5.238 -0.6231 -0.1332  0.5159
  119ccc     O2 3439   9.457   1.988   5.202 -0.4924  0.1295 -0.0270
  119ccc     O3 3440   9.598   2.046   5.343 -0.0436  0.6470  0.3015
  119ccc     C7 3441   9.470   2.431   4.905 -0.2009 -0.4867  0.2655
  119ccc    H11 3442   9.523   2.514   4.856  1.4417 -1.7295 -0.1566
  119ccc    H12 3443   9.419   2.374   4.827  0.1557  1.5786 -1.5694
  119ccc     C8 3444   9.377   2.519   4.989  0.4398  0.1893 -0.1947
  119ccc    H13 3445   9.299   2.471   5.048 -0.2638  2.3689  0.7641
  119ccc    H14 3446   9.433   2.577   5.064  0.5155 -2.1959  1.7052
  119ccc     C9 3447   9.311   2.607   4.889  0.6987  0.3580 -0.2607
  119ccc     O4 3448   9.277   2.716   4.916 -0.2233 -0.4759 -0.0916
  119ccc     O5 3449   9.245   2.558   4.799 -0.2796  0.1669  0.5607
  119ccc     O1 3450   9.776   2.303   4.599  0.0795  0.2498  0.3410
  120ccc     C3 3451  10.074   2.212   4.944  0.4662  0.5375 -0.3037
  120ccc     H5 3452   9.971   2.187   4.973  0.6494  1.3730  1.1509
  120ccc     H6 3453  10.101   2.165   4.849  0.5514 -0.6727  0.3026
  120ccc     C2 3454  10.156   2.145   5.056 -0.1820  0.7268  0.0568
  120ccc     H3 3455  10.247   2.206   5.062 -0.6648  1.3932  0.7495
  120ccc     H4 3456  10.178   2.038   5.048 -0.5014  0.6646 -0.0008
  120ccc     C1 3457  10.084   2.166   5.192  0.5079  0.9616  0.0082
  120ccc     H1 3458   9.980   2.137   5.173  0.3018  1.0616  0.9262
  120ccc     H2 3459  10.088   2.270   5.227 -0.0621  0.8881  0.2978
  120ccc     N1 3460  10.131   2.074   5.302 -0.5867 -0.1211 -0.3834
  120ccc     C4 3461  10.266   2.103   5.336 -0.7463 -0.1622  0.2510
  120ccc     H7 3462  10.274   2.193   5.398  0.7621  0.5756 -0.9138
  120ccc     H8 3463  10.326   2.122   5.245 -0.4769  2.8352  0.9556
  120ccc     C5 3464  10.319   1.973   5.403 -0.2841  0.1266 -0.1649
  120ccc     H9 3465  10.246   1.907   5.450  1.3289 -2.9773 -1.7505
  120ccc    H10 3466  10.365   1.921   5.318 -0.6167  1.6124 -1.2977
  120ccc     C6 3467  10.426   2.014   5.505 -0.1905 -0.2389 -0.0184
  120ccc     O2 3468  10.388   2.036   5.620 -0.7619  0.1976 -0.2632
  120ccc     O3 3469  10.538   2.032   5.463  0.0867  0.0801  0.4887
  120ccc     C7 3470  10.035   2.085   5.413  0.0113 -0.5577 -0.2803
  120ccc    H11 3471   9.942   2.039   5.378 -1.4090 -0.8535  3.4117
  120ccc    H12 3472  10.071   2.022   5.495  0.5178 -2.8285 -2.1316
  120ccc     C8 3473  10.012   2.229   5.472 -0.1059  0.0557 -0.7576
  120ccc    H13 3474  10.106   2.279   5.498 -0.3333  0.5114 -0.8003
  120ccc    H14 3475   9.964   2.292   5.395  1.2660  0.1597 -1.5499
  120ccc     C9 3476   9.922   2.199   5.590  0.4778 -0.5235  0.0762
  120ccc     O4 3477   9.796   2.196   5.586  0.4837 -0.2220  0.3681
  120ccc     O5 3478   9.973   2.155   5.688  0.2202 -0.3570  0.0525
  120ccc     O1 3479  10.109   2.349   4.952  0.0186 -0.4896  0.2773
  121ccc     C3 3480  10.132   2.163   4.165 -0.0444  0.7107 -0.4431
  121ccc     H5 3481  10.222   2.173   4.226  1.5679  1.3338 -2.7556
  121ccc     H6 3482  10.152   2.083   4.093 -1.6479  0.2271 -0.4081
  121ccc     C2 3483  10.101   2.295   4.093 -0.3319 -0.0318  0.4377
  121ccc     H3 3484  10.083   2.373   4.169  2.5347  1.8434 -0.6082
  121ccc     H4 3485  10.020   2.283   4.020  1.0350  1.3995 -1.4314
  121ccc     C1 3486  10.229   2.351   4.030 -0.5680  0.1491  0.8275
  121ccc     H1 3487  10.302   2.383   4.106  3.2410 -1.7675 -1.6817
  121ccc     H2 3488  10.207   2.445   3.980  0.4876  0.4042  0.8277
  121ccc     N1 3489  10.302   2.262   3.935  0.0829  0.2369 -0.0033
  121ccc     C4 3490  10.440   2.308   3.910 -0.6614 -0.4871 -0.1959
  121ccc     H7 3491  10.470   2.370   3.995  0.7287  0.4895 -1.3430
  121ccc     H8 3492  10.450   2.372   3.822 -0.0839  1.6842  1.3714
  121ccc     C5 3493  10.538   2.187   3.882 -0.6511 -0.0224 -0.3500
  121ccc     H9 3494  10.509   2.109   3.954 -0.2229 -1.0351 -1.2484
  121ccc    H10 3495  10.530   2.151   3.779 -0.7177  1.3162 -0.8291
  121ccc     C6 3496  10.684   2.224   3.893 -0.5362 -0.1922  0.3604
  121ccc     O2 3497  10.720   2.295   3.982  0.0299  0.0047 -0.0277
  121ccc     O3 3498  10.770   2.152   3.845  0.3690  0.0355  0.2523
  121ccc     C7 3499  10.222   2.186   3.829  0.0485 -0.4030  0.4938
  121ccc    H11 3500  10.284   2.110   3.780 -0.6144 -1.4996  1.3005
  121ccc    H12 3501  10.132   2.135   3.867 -0.4205  1.4451  1.9829
  121ccc     C8 3502  10.171   2.277   3.718  0.0181  0.3337 -0.5716
  121ccc    H13 3503  10.114   2.357   3.767  1.6957  2.3803 -1.7654
  121ccc    H14 3504  10.246   2.330   3.658 -1.5120  1.0892 -1.8923
  121ccc     C9 3505  10.072   2.198   3.635  0.4326 -0.3177  1.0459
  121ccc     O4 3506  10.093   2.200   3.516  0.0865  0.6382  0.2181
  121ccc     O5 3507   9.959   2.174   3.671 -0.0486  0.3620  0.0366
  121ccc     O1 3508  10.026   2.123   4.245  0.5584 -0.0745 -0.4506
  122ccc     C3 3509  10.403   1.794   3.772 -0.0483  1.0154  0.4699
  122ccc     H5 3510  10.479   1.873   3.780 -0.4917  1.4300  0.6728
  122ccc     H6 3511  10.444   1.694   3.755 -2.7899 -0.4347  1.8344
  122ccc     C2 3512  10.309   1.826   3.654 -0.5298  0.2024  0.7266
  122ccc     H3 3513  10.362   1.809   3.559  1.4675  2.1633  1.4156
  122ccc     H4 3514  10.284   1.933   3.651  0.1451  0.3792  1.2027
  122ccc     C1 3515  10.176   1.763   3.670  0.0391 -0.7461  0.2688
  122ccc     H1 3516  10.107   1.817   3.604  0.0763 -1.3925 -0.3097
  122ccc     H2 3517  10.140   1.782   3.772  0.8724 -1.3059  0.6798
  122ccc     N1 3518  10.160   1.619   3.649  0.4938  0.2100 -0.0200
  122ccc     C4 3519  10.093   1.600   3.530  0.6348 -0.2555  0.2490
  122ccc     H7 3520   9.996   1.652   3.528  0.0730 -0.9069  3.7380
  122ccc     H8 3521  10.076   1.493   3.510  2.1991 -0.7332  1.2998
  122ccc     C5 3522  10.166   1.639   3.404 -0.0856  0.0473  0.5941
  122ccc     H9 3523  10.188   1.746   3.403 -2.9987  0.7359  0.3815
  122ccc    H10 3524  10.261   1.587   3.386  1.0906  1.4487  2.4860
  122ccc     C6 3525  10.073   1.626   3.283 -0.0335  0.1394  0.1561
  122ccc     O2 3526  10.026   1.517   3.259  0.3673  0.0591 -0.2904
  122ccc     O3 3527  10.015   1.721   3.237 -0.7171 -0.1521 -0.2173
  122ccc     C7 3528  10.103   1.552   3.763  0.0994 -0.7997 -0.0443
  122ccc    H11 3529  10.164   1.580   3.850 -1.3352 -2.1091  1.4491
  122ccc    H12 3530   9.998   1.580   3.778 -0.0613 -0.3957 -1.7186
  122ccc     C8 3531  10.107   1.404   3.758  0.3791 -0.2912  0.2758
  122ccc    H13 3532  10.038   1.360   3.685 -1.7731  0.5048  1.7043
  122ccc    H14 3533  10.202   1.355   3.735 -0.0036 -2.1444  2.2417
  122ccc     C9 3534  10.076   1.353   3.893  0.2864  0.0777  0.0464
  122ccc     O4 3535  10.166   1.321   3.968  0.3050 -0.0387  0.0223
  122ccc     O5 3536   9.966   1.297   3.904  0.3921  0.7318 -0.1098
  122ccc     O1 3537  10.328   1.795   3.897 -0.3320 -0.2865  0.3080
  123ccc     C3 3538  11.309   1.971   4.729  0.1134 -0.4169 -0.7872
  123ccc     H5 3539  11.295   2.079   4.739 -2.6656 -0.6980 -0.7848
  123ccc     H6 3540  11.409   1.943   4.764  0.4560  0.7502 -0.7865
  123ccc     C2 3541  11.300   1.919   4.580  0.2105 -0.3325 -0.7713
  123ccc     H3 3542  11.339   1.816   4.580  1.2103  0.0233  0.7597
  123ccc     H4 3543  11.373   1.974   4.520  0.7988 -1.3092 -0.9701
  123ccc     C1 3544  11.165   1.943   4.517 -0.2676 -0.0617 -0.3865
  123ccc     H1 3545  11.166   2.053   4.521  0.9681 -0.0811  2.0011
  123ccc     H2 3546  11.081   1.902   4.575  0.4062 -2.5787 -1.0831
  123ccc     N1 3547  11.159   1.907   4.377  0.3148 -0.1086  0.1671
  123ccc     C4 3548  11.048   1.983   4.315 -0.2459 -0.0898  0.6119
  123ccc     H7 3549  10.978   2.012   4.394  0.1555  1.5048  0.4185
  123ccc     H8 3550  11.001   1.922   4.237 -0.1046 -0.9700  1.2058
  123ccc     C5 3551  11.108   2.106   4.253  0.1632  0.6258 -0.4765
  123ccc     H9 3552  11.119   2.175   4.337  0.7889  0.6303 -0.5602
  123ccc    H10 3553  11.204   2.090   4.201 -1.9720 -1.3433 -4.3074
  123ccc     C6 3554  11.013   2.167   4.151  0.0087  0.0539 -0.1245
  123ccc     O2 3555  10.989   2.115   4.042  0.6524  0.3196 -0.2381
  123ccc     O3 3556  10.952   2.268   4.178  0.3456  0.3905  0.2984
  123ccc     C7 3557  11.148   1.758   4.354  0.3755 -0.1705 -0.2630
  123ccc    H11 3558  11.227   1.721   4.420  1.0653  3.1564  0.9853
  123ccc    H12 3559  11.044   1.728   4.372  0.0508 -0.3301 -2.2540
  123ccc     C8 3560  11.183   1.732   4.208 -0.2620  0.2295 -0.2056
  123ccc    H13 3561  11.098   1.750   4.141  0.4815  0.4455 -1.1167
  123ccc    H14 3562  11.269   1.792   4.176 -1.4986  2.7414  0.9193
  123ccc     C9 3563  11.216   1.582   4.198 -0.7263 -0.2682  0.2464
  123ccc     O4 3564  11.176   1.518   4.106  0.3667 -0.2457 -0.2962
  123ccc     O5 3565  11.290   1.527   4.277  0.5382 -0.1674 -0.3176
  123ccc     O1 3566  11.199   1.908   4.791 -0.1597  0.1518 -0.6168
  124ccc     C3 3567  10.484   2.272   4.924 -0.8771  0.5673  0.0561
  124ccc     H5 3568  10.397   2.249   4.862  0.3541 -3.2979 -0.4727
  124ccc     H6 3569  10.455   2.274   5.030  0.3962  0.1417  0.4306
  124ccc     C2 3570  10.538   2.409   4.888 -0.3095  0.0767  0.1805
  124ccc     H3 3571  10.622   2.431   4.956 -0.8735 -0.2259  0.9980
  124ccc     H4 3572  10.457   2.482   4.891  0.2844  0.8929 -2.1563
  124ccc     C1 3573  10.594   2.420   4.741  0.5732  0.2058 -0.0796
  124ccc     H1 3574  10.539   2.359   4.669  0.5686 -0.6595  0.6380
  124ccc     H2 3575  10.695   2.380   4.735  0.4950  0.1672 -1.3033
  124ccc     N1 3576  10.617   2.557   4.677 -0.4404 -0.3963  0.7531
  124ccc     C4 3577  10.682   2.646   4.770  0.0026  0.0866 -0.7553
  124ccc     H7 3578  10.621   2.656   4.860  0.6700 -0.0118 -0.2874
  124ccc     H8 3579  10.692   2.746   4.726  1.5046  0.6499  0.7663
  124ccc     C5 3580  10.821   2.599   4.813  0.2129  0.3984  0.2430
  124ccc     H9 3581  10.814   2.515   4.883  1.8518 -0.9807 -1.1340
  124ccc    H10 3582  10.886   2.566   4.731  1.8186  1.6260  0.9515
  124ccc     C6 3583  10.886   2.712   4.882  0.4949  0.7005  0.2516
  124ccc     O2 3584  10.874   2.708   5.004 -0.2639 -0.3880 -0.0828
  124ccc     O3 3585  10.921   2.815   4.825  0.5467  0.3622 -0.4505
  124ccc     C7 3586  10.678   2.555   4.538  0.5961  0.7200  0.1696
  124ccc    H11 3587  10.695   2.660   4.513 -0.6111  0.0760 -4.1663
  124ccc    H12 3588  10.768   2.492   4.546 -2.3245 -3.7089  2.4655
  124ccc     C8 3589  10.592   2.482   4.426  0.3866 -0.5675 -0.0637
  124ccc    H13 3590  10.600   2.373   4.429  0.3317 -0.5996 -0.9604
  124ccc    H14 3591  10.487   2.514   4.424  0.1064 -1.4863 -0.3633
  124ccc     C9 3592  10.649   2.512   4.290  0.3648  0.1289 -0.1039
  124ccc     O4 3593  10.620   2.619   4.233  0.0866  0.3770 -0.0026
  124ccc     O5 3594  10.745   2.444   4.248 -0.2537 -0.1405 -0.2919
  124ccc     O1 3595  10.583   2.177   4.893  0.3914  0.0067  1.2745
  125ccc     C3 3596  10.926   1.621   4.733  0.2386  0.6943 -0.2351
  125ccc     H5 3597  10.972   1.694   4.801  1.8931  1.0503 -1.6540
  125ccc     H6 3598  11.005   1.588   4.665 -0.3649  1.5023 -1.3643
  125ccc     C2 3599  10.824   1.703   4.647  0.0751 -0.0245 -0.1130
  125ccc     H3 3600  10.880   1.791   4.613  0.2503 -0.7043 -1.6545
  125ccc     H4 3601  10.728   1.720   4.698  0.0889  2.3014 -0.7056
  125ccc     C1 3602  10.794   1.616   4.519 -0.1815 -0.3566  0.1183
  125ccc     H1 3603  10.757   1.518   4.553 -0.4479 -0.6175 -0.8646
  125ccc     H2 3604  10.893   1.614   4.472  0.1119  0.9690  0.6544
  125ccc     N1 3605  10.698   1.681   4.431  0.2515  0.5760  0.1936
  125ccc     C4 3606  10.730   1.815   4.382  0.2649 -0.5093  0.2054
  125ccc     H7 3607  10.803   1.798   4.302  0.9124 -0.8720  0.8615
  125ccc     H8 3608  10.758   1.878   4.467 -1.4147 -1.1171  1.2442
  125ccc     C5 3609  10.619   1.880   4.305 -0.4771 -0.3738 -0.7990
  125ccc     H9 3610  10.583   1.825   4.217 -2.1574 -0.5153 -0.0638
  125ccc    H10 3611  10.529   1.908   4.362 -1.2432 -0.3037 -2.0232
  125ccc     C6 3612  10.679   2.009   4.256  1.1419  0.3972  0.7800
  125ccc     O2 3613  10.718   2.026   4.139 -0.2382 -0.3198 -0.3802
  125ccc     O3 3614  10.687   2.102   4.336 -0.4447  0.0387 -0.0369
  125ccc     C7 3615  10.666   1.589   4.321 -0.0102 -0.1915 -0.1510
  125ccc    H11 3616  10.644   1.499   4.381 -1.2804 -0.1226 -0.4769
  125ccc    H12 3617  10.569   1.619   4.280 -0.0818 -1.0416 -0.6324
  125ccc     C8 3618  10.779   1.571   4.215 -0.3352  0.4524 -0.5131
  125ccc    H13 3619  10.752   1.621   4.121  1.5356  0.2418 -1.1933
  125ccc    H14 3620  10.878   1.604   4.248  0.2650 -0.2259 -1.5944
  125ccc     C9 3621  10.800   1.429   4.166 -0.6689  0.0812  0.1342
  125ccc     O4 3622  10.859   1.423   4.062 -0.2805  0.0777  0.1488
  125ccc     O5 3623  10.755   1.323   4.215 -0.0406 -0.0543  0.2071
  125ccc     O1 3624  10.870   1.506   4.801  0.2864 -0.0192  0.2218
  126ccc     C3 3625  11.065   0.717   4.466 -0.2885 -0.5957 -0.1239
  126ccc     H5 3626  11.158   0.744   4.416 -0.3654  1.1419  0.6003
  126ccc     H6 3627  11.089   0.650   4.549  0.9692  1.3505  1.1737
  126ccc     C2 3628  10.982   0.649   4.366  0.2444  0.0202  1.1790
  126ccc     H3 3629  10.877   0.671   4.392  0.2511  0.4087  0.8920
  126ccc     H4 3630  11.007   0.543   4.378  0.0670 -0.2369 -0.4957
  126ccc     C1 3631  11.006   0.698   4.218  0.1133 -0.5800  0.2938
  126ccc     H1 3632  10.945   0.639   4.149 -1.0487 -0.1529  0.9281
  126ccc     H2 3633  11.113   0.683   4.201  0.3337  2.2029 -1.4541
  126ccc     N1 3634  10.993   0.841   4.188  0.3715 -0.7311  0.3544
  126ccc     C4 3635  10.865   0.901   4.231  0.6096  0.2843 -0.0535
  126ccc     H7 3636  10.868   1.010   4.227  1.2346  0.3615  1.6536
  126ccc     H8 3637  10.842   0.880   4.336  0.1798  0.6008 -0.0812
  126ccc     C5 3638  10.756   0.856   4.140  0.4074 -0.6784  0.0952
  126ccc     H9 3639  10.783   0.840   4.035  0.4351 -0.9427  0.1435
  126ccc    H10 3640  10.713   0.763   4.179  0.7730 -0.2828  1.5111
  126ccc     C6 3641  10.651   0.960   4.148  0.2883 -0.0757 -0.4191
  126ccc     O2 3642  10.660   1.070   4.098  0.0994 -0.2509 -0.1007
  126ccc     O3 3643  10.579   0.967   4.249  0.5751 -0.3126  0.2919
  126ccc     C7 3644  11.105   0.925   4.218  0.5746  0.8567 -0.2082
  126ccc    H11 3645  11.077   0.982   4.308 -3.4511  0.0189 -0.7238
  126ccc    H12 3646  11.183   0.856   4.252  1.3583  1.0454 -1.5930
  126ccc     C8 3647  11.158   1.008   4.108 -0.3862  0.2049 -0.5258
  126ccc    H13 3648  11.265   1.027   4.123 -0.5830  0.7666  0.2289
  126ccc    H14 3649  11.153   0.962   4.009 -0.3288 -0.8577 -0.0482
  126ccc     C9 3650  11.100   1.139   4.095 -0.4944  0.0728 -0.3618
  126ccc     O4 3651  10.995   1.154   4.042 -0.4227 -0.2258  0.1558
  126ccc     O5 3652  11.152   1.237   4.152  0.4359 -0.2796 -0.1742
  126ccc     O1 3653  11.006   0.842   4.503 -0.0384  0.4570 -0.3230
  127ccc     C3 3654  10.239   0.047   7.570 -0.3946 -0.7624  0.0151
  127ccc     H5 3655  10.245   0.038   7.679  4.1473  0.6547  0.1061
  127ccc     H6 3656  10.178  -0.038   7.536  0.2469 -1.0683 -0.4019
  127ccc     C2 3657  10.380   0.032   7.505  0.5844  0.1965 -0.5739
  127ccc     H3 3658  10.425   0.131   7.519 -0.7193  0.7723 -0.3111
  127ccc     H4 3659  10.372   0.023   7.396  3.0775 -0.1187 -0.7954
  127ccc     C1 3660  10.471  -0.080   7.561 -0.4054  0.1534 -0.3331
  127ccc     H1 3661  10.518  -0.121   7.471 -0.7241 -0.6230 -0.1576
  127ccc     H2 3662  10.404  -0.163   7.587 -1.1473  0.3865 -1.4446
  127ccc     N1 3663  10.573  -0.036   7.663 -0.3424  0.0469 -0.7212
  127ccc     C4 3664  10.688   0.039   7.611 -0.3819 -0.1758  0.6291
  127ccc     H7 3665  10.653   0.115   7.541  0.1846  0.6030  1.1849
  127ccc     H8 3666  10.755  -0.025   7.551 -1.4024  0.7443 -1.6111
  127ccc     C5 3667  10.769   0.098   7.721 -0.5558  0.3837  0.2514
  127ccc     H9 3668  10.708   0.136   7.805  0.9398 -2.1402  2.6390
  127ccc    H10 3669  10.839   0.026   7.765 -1.4060 -1.0044 -0.5769
  127ccc     C6 3670  10.854   0.210   7.680  0.0673  1.0551 -0.5406
  127ccc     O2 3671  10.960   0.186   7.619  0.4019 -0.3063  0.6637
  127ccc     O3 3672  10.806   0.321   7.671  0.2777  0.1227  0.0287
  127ccc     C7 3673  10.611  -0.151   7.743  0.7818 -0.2970 -0.0290
  127ccc    H11 3674  10.662  -0.125   7.837 -0.0445 -0.1156  0.3828
  127ccc    H12 3675  10.513  -0.190   7.771  0.3851  0.7247  0.0382
  127ccc     C8 3676  10.691  -0.262   7.665 -0.0965 -0.4738  1.1765
  127ccc    H13 3677  10.634  -0.298   7.579 -2.1907 -0.5160  2.5266
  127ccc    H14 3678  10.785  -0.214   7.633 -1.5114  2.7563  1.4871
  127ccc     C9 3679  10.704  -0.379   7.761 -0.3931 -1.1254  0.3462
  127ccc     O4 3680  10.808  -0.392   7.815  0.1098 -0.3042  0.4917
  127ccc     O5 3681  10.608  -0.457   7.782  0.5334 -0.0050  0.8131
  127ccc     O1 3682  10.181   0.181   7.533  0.3888 -0.0517  0.5287
  128ccc     C3 3683   9.548  -0.023   8.085 -0.6308  0.1578 -0.3210
  128ccc     H5 3684   9.452  -0.075   8.073  0.3000 -2.1885  1.5667
  128ccc     H6 3685   9.597  -0.077   8.167 -0.2698  0.1835 -0.5147
  128ccc     C2 3686   9.523   0.125   8.125  0.3682 -0.6014  0.3652
  128ccc     H3 3687   9.460   0.180   8.054  2.0503 -0.1569 -0.8615
  128ccc     H4 3688   9.610   0.192   8.124 -1.0611  1.3711 -1.4740
  128ccc     C1 3689   9.467   0.145   8.270 -0.2548 -0.1958 -0.0765
  128ccc     H1 3690   9.545   0.203   8.322 -1.0356  0.1791  0.6977
  128ccc     H2 3691   9.463   0.048   8.321  0.8212 -0.2515 -0.0671
  128ccc     N1 3692   9.336   0.210   8.279 -0.5164  0.2896  0.3948
  128ccc     C4 3693   9.307   0.259   8.412  1.1217 -0.3521 -0.5876
  128ccc     H7 3694   9.324   0.183   8.490 -0.9315  0.4007  0.6671
  128ccc     H8 3695   9.201   0.285   8.424  1.4656  0.9131 -0.1275
  128ccc     C5 3696   9.391   0.382   8.439 -0.6547 -0.1534 -0.3943
  128ccc     H9 3697   9.495   0.351   8.456 -0.5166  1.4587  2.2628
  128ccc    H10 3698   9.375   0.463   8.367  0.3558 -0.1020 -0.5769
  128ccc     C6 3699   9.339   0.437   8.570 -0.2989 -0.2781  0.4316
  128ccc     O2 3700   9.411   0.422   8.673 -0.4575 -0.0280  0.3324
  128ccc     O3 3701   9.264   0.532   8.582 -0.5062 -0.5904  0.2884
  128ccc     C7 3702   9.218   0.133   8.222 -0.2796  1.1504 -0.0358
  128ccc    H11 3703   9.249   0.094   8.124  2.2335 -1.3379  1.6015
  128ccc    H12 3704   9.185   0.044   8.278 -1.7924  2.5881  1.4645
  128ccc     C8 3705   9.106   0.221   8.196 -0.2839  0.1357 -0.2167
  128ccc    H13 3706   9.060   0.233   8.294  0.7215 -0.9365  0.4098
  128ccc    H14 3707   9.140   0.320   8.163 -1.0674  0.1353 -1.0679
  128ccc     C9 3708   9.015   0.156   8.103 -0.2958 -0.6717  0.4916
  128ccc     O4 3709   8.937   0.065   8.142 -0.5649  0.4307  0.2552
  128ccc     O5 3710   9.011   0.190   7.986 -0.1451  0.4303 -0.4811
  128ccc     O1 3711   9.633  -0.042   7.967  0.2285 -0.3881  0.2341
  129ccc     C3 3712  10.312  -0.099   6.986  0.3663  0.4438 -0.1392
  129ccc     H5 3713  10.268  -0.199   6.985  0.5095  0.3726  0.3846
  129ccc     H6 3714  10.273  -0.047   6.897 -1.3059 -0.3588  0.0869
  129ccc     C2 3715  10.463  -0.113   6.993 -0.3818 -0.4593  0.2259
  129ccc     H3 3716  10.505  -0.013   6.978 -0.2715 -0.5844 -0.2975
  129ccc     H4 3717  10.498  -0.168   6.905 -0.2585 -1.5725  0.9593
  129ccc     C1 3718  10.505  -0.177   7.127  0.1635  0.3136  0.3305
  129ccc     H1 3719  10.443  -0.267   7.127  0.9031 -0.2080  0.2727
  129ccc     H2 3720  10.476  -0.120   7.216  1.3331 -0.1607  1.0402
  129ccc     N1 3721  10.646  -0.219   7.143 -0.3048 -0.2628 -0.0638
  129ccc     C4 3722  10.664  -0.293   7.269  0.9607  0.2736 -0.0464
  129ccc     H7 3723  10.608  -0.237   7.345 -0.0193 -0.0614 -0.5053
  129ccc     H8 3724  10.769  -0.312   7.294  1.2003 -2.2203 -2.4009
  129ccc     C5 3725  10.592  -0.431   7.262  0.3938 -0.2122  0.4362
  129ccc     H9 3726  10.487  -0.418   7.289  0.2296 -1.1929  0.2977
  129ccc    H10 3727  10.619  -0.473   7.164  0.6175 -2.4512  1.4070
  129ccc     C6 3728  10.653  -0.530   7.365  0.4531  0.0484  0.3703
  129ccc     O2 3729  10.583  -0.591   7.440  0.2823  0.1606 -0.4489
  129ccc     O3 3730  10.777  -0.543   7.363 -0.3037  0.2487 -0.2271
  129ccc     C7 3731  10.736  -0.101   7.146 -0.6256  0.1959 -0.0254
  129ccc    H11 3732  10.839  -0.128   7.170 -0.3255  1.0338 -0.3234
  129ccc    H12 3733  10.739  -0.063   7.043  0.9573  0.8232  0.2254
  129ccc     C8 3734  10.705   0.019   7.235 -0.3623  0.4991 -0.1828
  129ccc    H13 3735  10.609   0.065   7.206 -0.0640  0.8477 -0.6218
  129ccc    H14 3736  10.692  -0.011   7.340  0.8859 -0.2498 -0.2225
  129ccc     C9 3737  10.819   0.118   7.230  0.3540  0.2892  0.7834
  129ccc     O4 3738  10.865   0.140   7.123  0.0789 -0.7883 -0.6968
  129ccc     O5 3739  10.875   0.154   7.332 -0.1350 -0.2730  0.0071
  129ccc     O1 3740  10.256  -0.028   7.096 -0.4161 -0.3679 -0.0580
  130ccc     C3 3741  10.491   0.703   6.916 -0.2886  0.0419  0.2591
  130ccc     H5 3742  10.488   0.626   6.838  2.4136 -1.7013  1.7358
  130ccc     H6 3743  10.456   0.798   6.875 -0.7863 -0.1296  0.2758
  130ccc     C2 3744  10.640   0.709   6.983 -0.4450  0.2451  0.5822
  130ccc     H3 3745  10.715   0.736   6.908 -0.3040 -1.1076  0.2088
  130ccc     H4 3746  10.664   0.605   7.010 -0.1692 -0.2186 -1.3349
  130ccc     C1 3747  10.639   0.811   7.092 -0.0655 -0.6756  0.1581
  130ccc     H1 3748  10.556   0.793   7.162 -2.7751  4.7081 -1.1197
  130ccc     H2 3749  10.618   0.910   7.051  1.6639 -0.9348 -1.5055
  130ccc     N1 3750  10.760   0.819   7.173 -0.5544  0.5732 -0.0242
  130ccc     C4 3751  10.790   0.950   7.232 -0.7559 -0.5278  0.4824
  130ccc     H7 3752  10.799   1.027   7.155 -1.6986 -1.4015 -0.5359
  130ccc     H8 3753  10.886   0.944   7.287 -1.0389  0.6234  1.1407
  130ccc     C5 3754  10.679   0.992   7.332 -0.3277  0.6353  0.1361
  130ccc     H9 3755  10.586   1.010   7.276 -1.0730 -1.0958  0.7416
  130ccc    H10 3756  10.657   0.908   7.399 -0.2173  1.3845  1.1352
  130ccc     C6 3757  10.715   1.106   7.417  0.0309  0.5530 -0.7227
  130ccc     O2 3758  10.693   1.221   7.386 -1.2417  0.3262  0.5610
  130ccc     O3 3759  10.767   1.073   7.523 -0.0858  0.1666  0.1922
  130ccc     C7 3760  10.791   0.698   7.250  0.7715  0.5146 -0.2126
  130ccc    H11 3761  10.740   0.705   7.347  1.6206  5.0601  0.1549
  130ccc    H12 3762  10.743   0.615   7.197  3.0089 -1.5944  0.8534
  130ccc     C8 3763  10.937   0.658   7.252  0.5575  0.0209 -0.5761
  130ccc    H13 3764  10.979   0.644   7.151  2.2444 -1.6135  0.2867
  130ccc    H14 3765  10.986   0.725   7.323 -1.1223 -3.3954  4.3765
  130ccc     C9 3766  10.935   0.530   7.328  0.5375  0.3214 -0.5161
  130ccc     O4 3767  10.901   0.535   7.446 -0.3867  0.1075 -0.0818
  130ccc     O5 3768  10.933   0.426   7.267 -0.7082  0.1362  0.4146
  130ccc     O1 3769  10.399   0.656   7.016  0.2240 -0.5817  0.0676
  131ccc     C3 3770   7.763   0.266   7.531  0.2214 -0.2080 -0.0943
  131ccc     H5 3771   7.801   0.165   7.510  3.1808  0.2322  2.4232
  131ccc     H6 3772   7.851   0.332   7.524 -0.1162  0.1218 -1.5573
  131ccc     C2 3773   7.708   0.262   7.678  0.3568 -0.4639  0.1210
  131ccc     H3 3774   7.787   0.247   7.752 -0.3841 -0.1843  0.9808
  131ccc     H4 3775   7.630   0.186   7.686 -0.1268  0.2170  2.8454
  131ccc     C1 3776   7.649   0.395   7.726 -0.1414 -0.1433 -0.5028
  131ccc     H1 3777   7.637   0.389   7.834 -0.4711  2.7668 -0.3131
  131ccc     H2 3778   7.551   0.413   7.681 -0.6991  0.2311  0.8454
  131ccc     N1 3779   7.725   0.525   7.694 -0.2920 -0.2146 -0.0987
  131ccc     C4 3780   7.864   0.527   7.750 -0.2087  0.2391  0.5080
  131ccc     H7 3781   7.918   0.617   7.718 -1.1493  0.4295 -0.6119
  131ccc     H8 3782   7.928   0.453   7.700 -0.0161  1.1243 -0.5839
  131ccc     C5 3783   7.896   0.509   7.899 -0.5170  0.7849  0.5001
  131ccc     H9 3784   7.828   0.430   7.934 -0.8306  0.8831  0.1129
  131ccc    H10 3785   7.994   0.461   7.913 -0.2456  1.0788 -0.3399
  131ccc     C6 3786   7.885   0.640   7.972  0.0064 -0.3842  0.3158
  131ccc     O2 3787   7.991   0.703   7.968 -0.2426  0.1105  0.6911
  131ccc     O3 3788   7.821   0.658   8.071 -0.2898 -0.2002  0.0519
  131ccc     C7 3789   7.650   0.639   7.744  1.5604 -0.8848  0.6453
  131ccc    H11 3790   7.556   0.649   7.688  2.4318  0.1922 -0.6742
  131ccc    H12 3791   7.621   0.625   7.849 -0.6885 -2.6297 -0.1271
  131ccc     C8 3792   7.705   0.779   7.718  0.2122  0.7003  0.3771
  131ccc    H13 3793   7.806   0.789   7.760 -0.7128 -0.0030  2.9472
  131ccc    H14 3794   7.719   0.798   7.611 -0.3620  0.1557  0.2013
  131ccc     C9 3795   7.617   0.879   7.778 -0.8610 -0.0981 -0.5337
  131ccc     O4 3796   7.561   0.957   7.707  1.0828 -0.6480  0.3233
  131ccc     O5 3797   7.601   0.880   7.901  0.3243 -0.0020 -0.1495
  131ccc     O1 3798   7.665   0.297   7.431  0.7377  0.3212  0.0873
  132ccc     C3 3799   7.173   0.701   7.647  0.0887 -0.5919  0.3067
  132ccc     H5 3800   7.233   0.778   7.697  0.2042  0.3215 -1.1809
  132ccc     H6 3801   7.072   0.733   7.619  0.3802 -0.3973 -0.5362
  132ccc     C2 3802   7.163   0.576   7.740  0.2701  0.3516 -0.3858
  132ccc     H3 3803   7.134   0.486   7.684  1.7581 -0.6522  0.3820
  132ccc     H4 3804   7.082   0.579   7.814 -0.9659 -0.7756 -1.6218
  132ccc     C1 3805   7.298   0.560   7.814  0.7490  0.3934 -0.1987
  132ccc     H1 3806   7.314   0.662   7.851 -3.0385  0.5102  1.6033
  132ccc     H2 3807   7.375   0.535   7.740 -0.6612 -0.2015 -1.5098
  132ccc     N1 3808   7.296   0.460   7.923 -0.2144  0.3584  0.0686
  132ccc     C4 3809   7.410   0.485   8.018 -0.1019 -0.5863 -0.1270
  132ccc     H7 3810   7.504   0.505   7.966  0.0173  0.7216  0.5617
  132ccc     H8 3811   7.434   0.390   8.067  3.2533  0.6351  0.8026
  132ccc     C5 3812   7.393   0.597   8.123 -0.0548  0.1933 -0.3805
  132ccc     H9 3813   7.373   0.696   8.082  0.1617  0.1699 -0.5463
  132ccc    H10 3814   7.312   0.569   8.193  0.0355  0.4032 -0.1909
  132ccc     C6 3815   7.514   0.612   8.209  0.6396  0.0431 -0.3461
  132ccc     O2 3816   7.563   0.518   8.266  0.5361  0.1408 -0.2033
  132ccc     O3 3817   7.580   0.714   8.191 -0.1174 -0.0862 -0.3105
  132ccc     C7 3818   7.293   0.316   7.876  0.7705 -0.4754  0.3342
  132ccc    H11 3819   7.219   0.310   7.795  0.6681  2.0286  0.1498
  132ccc    H12 3820   7.393   0.306   7.832  0.4996  1.7811 -0.9846
  132ccc     C8 3821   7.252   0.202   7.973 -0.5709 -0.0243  1.0589
  132ccc    H13 3822   7.315   0.206   8.062 -0.1473  1.1313  0.7283
  132ccc    H14 3823   7.150   0.224   8.005 -0.5108  2.6281 -0.3160
  132ccc     C9 3824   7.273   0.074   7.903 -0.3258 -0.3429 -0.1812
  132ccc     O4 3825   7.350  -0.019   7.944 -0.0379 -0.3186  0.2861
  132ccc     O5 3826   7.228   0.058   7.793 -0.7448 -0.2047 -0.2446
  132ccc     O1 3827   7.240   0.665   7.522 -0.1886  0.1642 -0.4929
  133ccc     C3 3828   7.729   0.136   6.461 -0.4923 -0.9654 -0.5854
  133ccc     H5 3829   7.728   0.142   6.571  0.4668  0.9359 -0.6260
  133ccc     H6 3830   7.628   0.137   6.419  0.0681  3.6945 -2.4554
  133ccc     C2 3831   7.810   0.015   6.424  1.0036 -0.2700 -0.1093
  133ccc     H3 3832   7.810   0.017   6.315 -3.1649  0.6420 -0.2244
  133ccc     H4 3833   7.753  -0.072   6.459  0.6119 -1.0684 -2.5390
  133ccc     C1 3834   7.953   0.014   6.473 -0.2213 -0.2177  0.4295
  133ccc     H1 3835   7.941   0.057   6.573  1.4838  1.6189 -0.0800
  133ccc     H2 3836   8.029   0.070   6.416 -0.3908 -0.8813 -0.4637
  133ccc     N1 3837   7.995  -0.126   6.483  0.6612  0.3133  0.2441
  133ccc     C4 3838   8.093  -0.166   6.375  0.6028 -0.1353 -0.0029
  133ccc     H7 3839   8.158  -0.247   6.410  0.0627  0.1154  1.6677
  133ccc     H8 3840   8.156  -0.085   6.338 -0.5648  0.0733 -1.6301
  133ccc     C5 3841   8.019  -0.221   6.252  0.8837 -0.0418  0.4300
  133ccc     H9 3842   7.966  -0.311   6.285  0.8412  0.1537  0.9069
  133ccc    H10 3843   7.948  -0.145   6.218  1.4195  1.0415  1.6649
  133ccc     C6 3844   8.100  -0.255   6.130  0.1668 -0.5557  0.2455
  133ccc     O2 3845   8.222  -0.264   6.137 -0.1513 -0.5348  0.6841
  133ccc     O3 3846   8.038  -0.288   6.035 -0.1298  0.1534 -0.7868
  133ccc     C7 3847   8.039  -0.152   6.618 -0.2081 -0.1641  0.4965
  133ccc    H11 3848   8.071  -0.257   6.616 -1.9725 -0.7307 -1.4753
  133ccc    H12 3849   8.124  -0.092   6.653 -0.4062 -0.4312  1.4780
  133ccc     C8 3850   7.932  -0.151   6.726  0.1435  0.1818  0.1527
  133ccc    H13 3851   7.912  -0.053   6.771  2.3301  1.0592 -0.6661
  133ccc    H14 3852   7.835  -0.185   6.688 -0.1925  0.1885  0.9783
  133ccc     C9 3853   7.973  -0.246   6.832  0.4911 -0.5448 -0.2094
  133ccc     O4 3854   8.030  -0.211   6.932  0.1513 -0.1298  0.3660
  133ccc     O5 3855   7.922  -0.352   6.827 -0.1426  0.2853  0.0749
  133ccc     O1 3856   7.794   0.255   6.406 -0.3156 -0.6395 -0.2609
  134ccc     C3 3857   8.211   0.339   6.678 -0.0144 -0.4442  0.2464
  134ccc     H5 3858   8.247   0.386   6.770  0.2453  0.2503 -0.1971
  134ccc     H6 3859   8.106   0.315   6.697  0.0237 -0.0459  1.0306
  134ccc     C2 3860   8.296   0.220   6.645 -0.0181  0.5255  0.2856
  134ccc     H3 3861   8.397   0.257   6.627 -0.0954 -0.3959 -2.4995
  134ccc     H4 3862   8.251   0.190   6.549  0.8123 -1.7173  0.5538
  134ccc     C1 3863   8.299   0.114   6.746 -0.1863  0.4754 -0.0112
  134ccc     H1 3864   8.192   0.090   6.754 -1.0697  3.3694 -1.4369
  134ccc     H2 3865   8.331   0.154   6.843  0.5593 -0.7828  0.2723
  134ccc     N1 3866   8.383  -0.008   6.723 -0.2749 -0.2271 -0.2762
  134ccc     C4 3867   8.413  -0.036   6.585  0.1374  0.3852  0.3851
  134ccc     H7 3868   8.451   0.058   6.542 -0.2132  0.9418  1.2602
  134ccc     H8 3869   8.327  -0.078   6.533  1.8783 -1.9116 -0.8564
  134ccc     C5 3870   8.528  -0.138   6.567  0.2864  0.2369  0.3758
  134ccc     H9 3871   8.617  -0.100   6.617 -0.9703  1.2993  1.9253
  134ccc    H10 3872   8.506  -0.235   6.611 -0.2287 -0.4990 -1.4011
  134ccc     C6 3873   8.556  -0.172   6.419  1.1609  0.2932 -0.3818
  134ccc     O2 3874   8.665  -0.187   6.376 -0.5329 -0.2824 -0.3957
  134ccc     O3 3875   8.478  -0.255   6.369 -0.2164 -0.9462 -0.5344
  134ccc     C7 3876   8.352  -0.116   6.811  0.6258 -0.5463  0.2689
  134ccc    H11 3877   8.285  -0.076   6.888  1.1113  0.5086  0.1601
  134ccc    H12 3878   8.298  -0.202   6.770 -0.8952 -0.3914  1.8016
  134ccc     C8 3879   8.474  -0.174   6.890 -0.0085 -0.2712  0.7065
  134ccc    H13 3880   8.557  -0.181   6.818 -1.6004  0.3971 -1.3163
  134ccc    H14 3881   8.504  -0.100   6.965  1.3445 -0.0193 -0.0578
  134ccc     C9 3882   8.448  -0.307   6.948  0.0902  0.2094 -0.3130
  134ccc     O4 3883   8.347  -0.319   7.009  0.6712  0.0820  0.0377
  134ccc     O5 3884   8.512  -0.398   6.900 -0.0985  0.1435 -0.4624
  134ccc     O1 3885   8.227   0.440   6.573  0.2946 -0.4476 -0.3711
  135ccc     C3 3886  10.969   0.221   8.409  0.8452 -0.1951 -0.3007
  135ccc     H5 3887  11.063   0.185   8.453  1.4727  1.2877 -0.3600
  135ccc     H6 3888  10.971   0.168   8.313  1.0276  0.0892 -0.4577
  135ccc     C2 3889  10.951   0.366   8.383  0.7134 -0.0764  0.4705
  135ccc     H3 3890  10.847   0.384   8.354  0.9108  0.2328 -0.0629
  135ccc     H4 3891  11.017   0.407   8.305 -0.5226  1.6909  0.2925
  135ccc     C1 3892  10.992   0.449   8.500  0.1903  0.1315 -0.5912
  135ccc     H1 3893  11.073   0.404   8.558  0.0281 -1.4777 -1.5690
  135ccc     H2 3894  10.903   0.462   8.564  1.8213  1.1256  1.6195
  135ccc     N1 3895  11.039   0.581   8.453  0.4255 -0.5644 -0.3727
  135ccc     C4 3896  10.929   0.659   8.404 -0.0430 -0.3448  0.1158
  135ccc     H7 3897  10.880   0.714   8.485 -0.6479 -0.6537 -0.0327
  135ccc     H8 3898  10.847   0.596   8.366 -1.8560  0.7974  1.9416
  135ccc     C5 3899  10.970   0.766   8.305 -0.6221  0.1903 -0.2829
  135ccc     H9 3900  11.038   0.829   8.362 -0.5507  0.1338 -0.3040
  135ccc    H10 3901  11.028   0.717   8.225  0.0247  0.8472 -0.2262
  135ccc     C6 3902  10.851   0.844   8.252 -0.7580 -0.0469 -0.6132
  135ccc     O2 3903  10.831   0.958   8.289  0.1766  0.1677 -0.4671
  135ccc     O3 3904  10.759   0.774   8.205 -0.4619 -0.0366 -0.0482
  135ccc     C7 3905  11.103   0.650   8.559 -0.7572 -0.2969 -0.2477
  135ccc    H11 3906  11.105   0.759   8.545  0.7609 -0.4624 -1.5178
  135ccc    H12 3907  11.056   0.629   8.656 -1.3796 -0.7066 -0.6337
  135ccc     C8 3908  11.247   0.604   8.572  0.7895  0.0968 -0.5148
  135ccc    H13 3909  11.246   0.501   8.608  0.3365 -0.6044 -2.4347
  135ccc    H14 3910  11.301   0.603   8.477 -0.3809 -1.3752 -1.2026
  135ccc     C9 3911  11.298   0.699   8.678 -0.1121 -0.2211  0.6875
  135ccc     O4 3912  11.343   0.658   8.784 -0.1989  0.0681 -0.1173
  135ccc     O5 3913  11.316   0.817   8.662 -0.1900 -0.2691 -0.3274
  135ccc     O1 3914  10.848   0.187   8.478 -0.4979  0.0215  0.0683
  136ccc     C3 3915  10.103  -0.418   8.534 -0.3534 -0.6778 -0.1174
  136ccc     H5 3916  10.043  -0.434   8.625 -0.9863 -0.8827 -0.5680
  136ccc     H6 3917  10.038  -0.422   8.445  2.4071 -2.3868 -2.2007
  136ccc     C2 3918  10.207  -0.531   8.516 -0.7800  0.0187 -0.1822
  136ccc     H3 3919  10.149  -0.623   8.501 -1.1293 -0.2416  2.2419
  136ccc     H4 3920  10.269  -0.543   8.606 -0.8981  2.3383  0.2483
  136ccc     C1 3921  10.310  -0.490   8.409 -0.0978  0.3415 -0.6090
  136ccc     H1 3922  10.370  -0.412   8.458  1.2399 -0.8038 -0.3582
  136ccc     H2 3923  10.257  -0.459   8.318 -2.3522  0.8668  0.8134
  136ccc     N1 3924  10.412  -0.599   8.382  0.5866  0.2250 -0.3583
  136ccc     C4 3925  10.354  -0.731   8.367  0.6524 -0.2701  0.0912
  136ccc     H7 3926  10.391  -0.768   8.270  0.5297  1.0705 -0.4897
  136ccc     H8 3927  10.245  -0.730   8.351  0.6356 -1.5581 -0.0112
  136ccc     C5 3928  10.402  -0.820   8.476  0.7017  0.2833 -0.0962
  136ccc     H9 3929  10.511  -0.802   8.482  0.3830  2.0672  1.5955
  136ccc    H10 3930  10.352  -0.788   8.568  0.5314 -0.9567  0.2535
  136ccc     C6 3931  10.365  -0.958   8.448 -0.4092  0.3796  0.7761
  136ccc     O2 3932  10.442  -1.052   8.478  0.1270  0.6057  0.4127
  136ccc     O3 3933  10.254  -1.003   8.427 -0.2293  0.3631 -0.7934
  136ccc     C7 3934  10.506  -0.551   8.273 -0.5424 -0.4923  0.1969
  136ccc    H11 3935  10.447  -0.554   8.181  0.5831  0.1332 -0.5700
  136ccc    H12 3936  10.540  -0.450   8.301  2.1401 -1.6407  1.4496
  136ccc     C8 3937  10.630  -0.637   8.250  0.5312  0.6278 -0.3154
  136ccc    H13 3938  10.683  -0.659   8.343 -0.9051 -1.9223 -0.0208
  136ccc    H14 3939  10.596  -0.722   8.189 -1.2841  1.7775 -1.0024
  136ccc     C9 3940  10.724  -0.576   8.146 -0.0470  1.0884  0.7068
  136ccc     O4 3941  10.690  -0.570   8.029  0.4645  0.0060 -0.3390
  136ccc     O5 3942  10.815  -0.504   8.185  0.1652  0.7518 -0.2043
  136ccc     O1 3943  10.172  -0.283   8.528  0.5956  0.3526 -0.2591
  137ccc     C3 3944   9.343  -0.281   8.601 -0.3633 -0.7421  0.2576
  137ccc     H5 3945   9.318  -0.353   8.522 -1.8797 -2.1483  1.9264
  137ccc     H6 3946   9.387  -0.344   8.679  1.2561 -1.3626 -1.1139
  137ccc     C2 3947   9.218  -0.193   8.647 -0.4801  0.1453 -0.4998
  137ccc     H3 3948   9.257  -0.150   8.740 -1.2391 -2.8501  1.3073
  137ccc     H4 3949   9.134  -0.256   8.678  0.1956 -0.9525 -0.8374
  137ccc     C1 3950   9.157  -0.101   8.543 -0.7984  1.0425  0.2405
  137ccc     H1 3951   9.120  -0.157   8.456  0.1736 -0.4002  0.7174
  137ccc     H2 3952   9.242  -0.045   8.502  0.4620 -0.4311  0.7181
  137ccc     N1 3953   9.055  -0.018   8.615 -1.0000  0.4184  0.6420
  137ccc     C4 3954   9.115   0.105   8.669  0.0017  0.2189  0.0277
  137ccc     H7 3955   9.133   0.174   8.586  3.3738 -1.2807 -0.6481
  137ccc     H8 3956   9.199   0.079   8.734  1.5087  0.0844 -1.8898
  137ccc     C5 3957   9.026   0.172   8.779  0.3004  0.5732  0.3115
  137ccc     H9 3958   8.921   0.191   8.753  0.2944 -0.5016 -0.5408
  137ccc    H10 3959   9.029   0.091   8.853  3.4075 -2.0787 -2.4208
  137ccc     C6 3960   9.090   0.290   8.832  0.3451 -0.6131 -0.7114
  137ccc     O2 3961   9.042   0.398   8.802  0.1256  0.7174 -0.0781
  137ccc     O3 3962   9.197   0.288   8.888 -0.1466 -0.3407  0.3013
  137ccc     C7 3963   8.943   0.009   8.519 -0.9409 -0.2954 -0.1186
  137ccc    H11 3964   8.892   0.100   8.553  0.2557 -0.4769  2.3731
  137ccc    H12 3965   8.975   0.014   8.414 -1.5030 -0.8404 -0.3223
  137ccc     C8 3966   8.832  -0.096   8.536  0.2941 -0.1042 -0.1079
  137ccc    H13 3967   8.872  -0.198   8.539 -3.5132 -1.7311  1.8499
  137ccc    H14 3968   8.768  -0.076   8.623 -1.5272  0.5281 -1.5341
  137ccc     C9 3969   8.746  -0.085   8.415  0.8281 -0.2325  0.0679
  137ccc     O4 3970   8.783  -0.117   8.302 -0.3674  0.4900  0.2188
  137ccc     O5 3971   8.660   0.001   8.419 -0.3335 -0.5961 -0.8419
  137ccc     O1 3972   9.442  -0.195   8.549 -0.1399  0.3723  0.5127
  138ccc     C3 3973  10.132   0.078   7.962 -0.3055 -0.1623  0.2382
  138ccc     H5 3974  10.101   0.085   7.857  0.4351 -0.2857  0.0060
  138ccc     H6 3975  10.070   0.154   8.010 -0.8815  0.9602 -2.1291
  138ccc     C2 3976  10.280   0.110   7.977 -0.7420 -0.0202 -0.2303
  138ccc     H3 3977  10.293   0.215   7.947  1.0643 -0.1163  0.1554
  138ccc     H4 3978  10.335   0.062   7.895 -1.2430 -2.3518  0.7273
  138ccc     C1 3979  10.345   0.087   8.115  0.0271  0.2975  0.3483
  138ccc     H1 3980  10.329  -0.019   8.138 -0.7199  0.4401  0.5179
  138ccc     H2 3981  10.282   0.143   8.186  0.7482 -0.4164  1.5966
  138ccc     N1 3982  10.493   0.111   8.137 -0.9464 -0.4853 -0.4183
  138ccc     C4 3983  10.568  -0.005   8.082  0.2645  0.0745 -0.4463
  138ccc     H7 3984  10.671   0.020   8.053  0.7433 -0.5555  0.6405
  138ccc     H8 3985  10.515  -0.050   7.997 -0.1614 -0.3452  0.0372
  138ccc     C5 3986  10.580  -0.111   8.178 -0.2144  0.5713 -0.2974
  138ccc     H9 3987  10.622  -0.078   8.274 -1.2935  1.0628  0.0211
  138ccc    H10 3988  10.488  -0.167   8.200  1.0441 -1.7036 -0.4706
  138ccc     C6 3989  10.676  -0.216   8.124 -0.1243 -0.0254  0.2004
  138ccc     O2 3990  10.644  -0.300   8.046 -0.3964  0.4957  0.1301
  138ccc     O3 3991  10.788  -0.223   8.164 -0.1174  0.2097 -0.5771
  138ccc     C7 3992  10.529   0.241   8.079  0.0628  0.2904  0.0598
  138ccc    H11 3993  10.532   0.226   7.971 -0.3339  0.5175  0.0151
  138ccc    H12 3994  10.458   0.318   8.112 -0.0288  1.0102 -1.7541
  138ccc     C8 3995  10.666   0.290   8.113 -0.1560  0.0662 -0.2580
  138ccc    H13 3996  10.685   0.294   8.221  3.5152  0.7840 -0.8113
  138ccc    H14 3997  10.746   0.229   8.069  1.1172  0.7250  1.0437
  138ccc     C9 3998  10.689   0.424   8.065  0.2306  0.6055 -0.2467
  138ccc     O4 3999  10.777   0.457   7.991 -0.6819 -0.0819 -0.0935
  138ccc     O5 4000  10.632   0.523   8.113 -0.5827  0.1788 -0.1397
  138ccc     O1 4001  10.109  -0.056   8.006 -0.3969 -0.2898  0.3649
  139ccc     C3 4002   8.605   2.066   7.525 -0.1982  0.1429 -0.6279
  139ccc     H5 4003   8.595   2.082   7.416 -2.1041 -0.7785 -0.6313
  139ccc     H6 4004   8.527   1.996   7.558  0.3886  0.0150  0.5250
  139ccc     C2 4005   8.576   2.193   7.603 -0.3077  0.7950 -0.2613
  139ccc     H3 4006   8.664   2.257   7.591  0.4012  0.1818  1.3377
  139ccc     H4 4007   8.573   2.159   7.707  1.0230  0.8508 -0.1882
  139ccc     C1 4008   8.448   2.274   7.569 -0.0382 -0.4406 -0.4726
  139ccc     H1 4009   8.468   2.378   7.597 -1.8589 -0.5306  1.3468
  139ccc     H2 4010   8.370   2.248   7.641 -1.7276  1.2927 -1.5708
  139ccc     N1 4011   8.390   2.267   7.430 -0.4665  0.4243 -0.4221
  139ccc     C4 4012   8.248   2.275   7.435  0.0159  0.0100  0.2723
  139ccc     H7 4013   8.222   2.296   7.330  1.4891 -0.7936 -0.2877
  139ccc     H8 4014   8.207   2.362   7.487  0.9379  0.7968 -0.2916
  139ccc     C5 4015   8.179   2.149   7.482 -0.3571  0.0673  0.2482
  139ccc     H9 4016   8.184   2.069   7.407 -2.0750 -1.6259  1.8386
  139ccc    H10 4017   8.224   2.113   7.576  0.1648 -0.4853 -0.2066
  139ccc     C6 4018   8.034   2.194   7.498  0.1248  0.4701 -0.7652
  139ccc     O2 4019   7.983   2.203   7.607 -0.2239  0.1029 -0.4622
  139ccc     O3 4020   7.959   2.182   7.403  0.3166  0.4014  0.2151
  139ccc     C7 4021   8.469   2.358   7.344 -0.3126  0.0591  0.0853
  139ccc    H11 4022   8.444   2.462   7.366 -3.6994 -0.6215  0.0161
  139ccc    H12 4023   8.577   2.347   7.360 -0.0548  1.8587 -0.2736
  139ccc     C8 4024   8.441   2.347   7.199 -0.3552 -0.2970  0.6403
  139ccc    H13 4025   8.455   2.245   7.161  0.5177  0.4132 -1.0161
  139ccc    H14 4026   8.343   2.390   7.173  1.4535  3.4255 -0.6648
  139ccc     C9 4027   8.542   2.429   7.129  0.4532 -0.7478 -0.4241
  139ccc     O4 4028   8.520   2.547   7.106 -0.7761 -0.6328 -0.3318
  139ccc     O5 4029   8.641   2.372   7.093  0.1899  0.3054 -0.0811
  139ccc     O1 4030   8.737   2.022   7.552 -0.0149 -0.5164  0.4022
  140ccc     C3 4031   9.115   2.253   7.789  0.5885 -0.1194  0.2201
  140ccc     H5 4032   9.179   2.263   7.878  1.4533  0.5588 -0.4610
  140ccc     H6 4033   9.128   2.162   7.729 -0.6667  0.8051 -1.5162
  140ccc     C2 4034   9.139   2.370   7.693 -0.3318 -0.3457  0.0507
  140ccc     H3 4035   9.243   2.354   7.662  0.1418  1.4704  0.5907
  140ccc     H4 4036   9.133   2.457   7.760 -0.5167 -0.5962  0.3594
  140ccc     C1 4037   9.038   2.375   7.578  0.4325 -0.3242  0.1013
  140ccc     H1 4038   8.943   2.377   7.633  0.7795 -1.8746  0.7957
  140ccc     H2 4039   9.033   2.289   7.510  0.9048  0.8686 -1.5092
  140ccc     N1 4040   9.052   2.500   7.504  0.1577  0.9878  0.4611
  140ccc     C4 4041   8.931   2.521   7.430  0.4478  0.3048 -0.8552
  140ccc     H7 4042   8.838   2.501   7.486  1.8618 -2.8515  0.6096
  140ccc     H8 4043   8.931   2.447   7.349 -0.4467  0.2252 -0.7909
  140ccc     C5 4044   8.921   2.657   7.363  0.0696 -0.0277 -0.0524
  140ccc     H9 4045   8.918   2.739   7.437  0.2600  0.3388 -0.4431
  140ccc    H10 4046   9.000   2.679   7.291 -0.9743  2.0023 -0.6886
  140ccc     C6 4047   8.792   2.656   7.286  0.2259 -0.3041 -0.0737
  140ccc     O2 4048   8.794   2.641   7.164  0.1662  0.0134 -0.0379
  140ccc     O3 4049   8.697   2.724   7.327  0.3242  0.0945 -0.2531
  140ccc     C7 4050   9.183   2.506   7.428  0.3949 -0.0314 -0.8473
  140ccc    H11 4051   9.192   2.602   7.377  0.7168 -0.1846 -1.0836
  140ccc    H12 4052   9.268   2.507   7.496  0.6506  0.5267 -1.1715
  140ccc     C8 4053   9.198   2.388   7.332 -0.2576  0.7055 -0.1350
  140ccc    H13 4054   9.187   2.293   7.385 -1.7298  2.1966  2.4666
  140ccc    H14 4055   9.137   2.389   7.241 -2.2560 -1.9241  1.0362
  140ccc     C9 4056   9.342   2.397   7.279  0.2388 -0.2407  0.2810
  140ccc     O4 4057   9.432   2.453   7.341  0.0795 -0.3212 -0.5721
  140ccc     O5 4058   9.372   2.332   7.179  0.0257 -0.0909 -0.5688
  140ccc     O1 4059   8.975   2.258   7.827 -0.1672 -0.4575  0.3429
  141ccc     C3 4060  10.280   1.624   8.561 -0.8015  0.6268 -0.0773
  141ccc     H5 4061  10.210   1.708   8.544 -1.2793 -0.4884 -5.1379
  141ccc     H6 4062  10.368   1.637   8.625  1.1945 -1.8466 -2.1130
  141ccc     C2 4063  10.338   1.572   8.425  0.6582 -0.0318 -0.4381
  141ccc     H3 4064  10.262   1.550   8.349  1.8023 -1.8454 -1.1335
  141ccc     H4 4065  10.384   1.476   8.454 -2.4035 -1.6884 -0.6449
  141ccc     C1 4066  10.443   1.656   8.359  0.0529 -0.3729 -0.2613
  141ccc     H1 4067  10.542   1.656   8.407  1.5694 -2.2349 -3.0578
  141ccc     H2 4068  10.405   1.757   8.344 -1.9518 -1.1071 -0.4449
  141ccc     N1 4069  10.481   1.608   8.218  0.9222 -0.7454  0.0955
  141ccc     C4 4070  10.505   1.465   8.200 -0.2053  0.0258  0.4273
  141ccc     H7 4071  10.510   1.436   8.094 -2.5855  0.3415  0.1795
  141ccc     H8 4072  10.425   1.408   8.247 -2.3431  2.0174 -0.5787
  141ccc     C5 4073  10.636   1.428   8.275 -0.5957 -0.7235 -0.1247
  141ccc     H9 4074  10.716   1.500   8.254 -2.6013  1.7651  0.2322
  141ccc    H10 4075  10.627   1.436   8.384  0.0085 -1.1861 -0.0368
  141ccc     C6 4076  10.681   1.287   8.241  0.2319 -0.7200  0.1728
  141ccc     O2 4077  10.698   1.205   8.328 -0.6348  0.4698 -0.3061
  141ccc     O3 4078  10.695   1.252   8.127  0.7540  0.4408  0.5777
  141ccc     C7 4079  10.395   1.654   8.105  0.1256 -0.0356 -0.7118
  141ccc    H11 4080  10.418   1.602   8.012 -0.4071 -0.7150 -0.4750
  141ccc    H12 4081  10.290   1.629   8.124 -0.1986  0.5320 -1.6915
  141ccc     C8 4082  10.424   1.801   8.064 -0.9144  0.1524  0.7697
  141ccc    H13 4083  10.422   1.875   8.145  4.3379  0.6230  0.8418
  141ccc    H14 4084  10.525   1.812   8.022 -0.6865 -0.1173  1.2343
  141ccc     C9 4085  10.330   1.843   7.953  0.1930 -0.0467 -0.2271
  141ccc     O4 4086  10.365   1.835   7.838 -0.0501 -0.4438  0.3896
  141ccc     O5 4087  10.215   1.872   7.982  0.1148 -0.4779  0.3128
  141ccc     O1 4088  10.202   1.515   8.614  0.0805  0.1948  0.4428
  142ccc     C3 4089  10.005   0.642   8.994  0.6034  0.3278  0.3020
  142ccc     H5 4090   9.941   0.631   8.906 -0.7770  0.8929  1.2101
  142ccc     H6 4091  10.111   0.617   8.979  0.2529 -1.5060  0.6440
  142ccc     C2 4092   9.942   0.536   9.097 -0.0062  0.1122 -0.2986
  142ccc     H3 4093   9.991   0.549   9.195  1.8322  2.2358 -1.4090
  142ccc     H4 4094   9.986   0.437   9.076  3.6218  1.1262  1.5736
  142ccc     C1 4095   9.787   0.537   9.091 -0.1382  0.5509 -0.1984
  142ccc     H1 4096   9.747   0.502   8.995 -1.6235  0.9269  0.2569
  142ccc     H2 4097   9.760   0.641   9.111  0.3969  0.2239  2.7762
  142ccc     N1 4098   9.718   0.459   9.196  0.0217 -0.0467 -0.4180
  142ccc     C4 4099   9.569   0.448   9.164  1.0646 -0.5282 -0.3828
  142ccc     H7 4100   9.518   0.403   9.250  2.2174 -0.1646  0.5129
  142ccc     H8 4101   9.558   0.388   9.073  0.7702  1.0778 -1.4404
  142ccc     C5 4102   9.496   0.578   9.133 -0.5216 -0.0027  0.5048
  142ccc     H9 4103   9.475   0.632   9.226  0.5843 -0.3316  0.9682
  142ccc    H10 4104   9.549   0.647   9.067  1.5685 -0.5966  1.4482
  142ccc     C6 4105   9.370   0.540   9.067 -0.1329  0.2514 -0.7350
  142ccc     O2 4106   9.262   0.536   9.125  0.0756  0.0848 -0.1054
  142ccc     O3 4107   9.370   0.514   8.949 -0.5895 -0.0284  0.0906
  142ccc     C7 4108   9.774   0.321   9.200  0.6199 -0.2696 -0.7221
  142ccc    H11 4109   9.759   0.269   9.105 -1.5573 -1.0774 -0.0232
  142ccc    H12 4110   9.882   0.322   9.218  0.5566 -0.0232 -0.3351
  142ccc     C8 4111   9.721   0.235   9.315  0.3291 -0.2402 -0.4650
  142ccc    H13 4112   9.792   0.242   9.398  0.1941  0.4947 -0.4090
  142ccc    H14 4113   9.628   0.271   9.359  0.7297 -0.6407  0.7376
  142ccc     C9 4114   9.707   0.095   9.264  0.2073  0.6044 -0.8321
  142ccc     O4 4115   9.626   0.075   9.179  0.1718 -0.5243 -0.1285
  142ccc     O5 4116   9.812   0.038   9.254  0.3919  0.9034 -0.2263
  142ccc     O1 4117   9.976   0.771   9.050  0.2761 -0.0969 -0.2539
  143ccc     C3 4118  12.409   1.343   7.153  0.4666  0.5802  0.1266
  143ccc     H5 4119  12.322   1.372   7.093 -2.4461 -1.6870  2.9217
  143ccc     H6 4120  12.501   1.349   7.094  2.9301 -3.5542  3.0330
  143ccc     C2 4121  12.399   1.194   7.191 -0.2260  0.2117 -0.1255
  143ccc     H3 4122  12.373   1.131   7.105  1.3221 -0.5450 -0.0776
  143ccc     H4 4123  12.314   1.198   7.260 -0.3742  2.4209 -0.3511
  143ccc     C1 4124  12.515   1.135   7.278  0.4942  0.1545  0.3702
  143ccc     H1 4125  12.500   1.032   7.312  2.2527  0.3868  2.0346
  143ccc     H2 4126  12.519   1.196   7.369 -1.2021 -0.1505  0.6715
  143ccc     N1 4127  12.647   1.147   7.215  0.3471  0.4745  0.1185
  143ccc     C4 4128  12.761   1.116   7.308 -0.0352  0.5473  0.2952
  143ccc     H7 4129  12.851   1.082   7.256  1.0831  0.1819  2.3608
  143ccc     H8 4130  12.732   1.028   7.368 -0.0572  0.4265  0.1067
  143ccc     C5 4131  12.808   1.240   7.386 -0.1057  0.1726  0.0150
  143ccc     H9 4132  12.854   1.321   7.326  2.0355 -0.9142  0.0893
  143ccc    H10 4133  12.721   1.283   7.436 -0.0236 -0.9176  1.1141
  143ccc     C6 4134  12.900   1.197   7.498  0.1281 -0.2696 -0.4327
  143ccc     O2 4135  12.857   1.160   7.608 -0.0061 -0.2160  0.3453
  143ccc     O3 4136  13.017   1.217   7.493  0.2162  0.1418  0.5872
  143ccc     C7 4137  12.668   1.096   7.083  0.3344 -0.4962  0.1913
  143ccc    H11 4138  12.705   0.993   7.088  1.5111 -0.0318  2.6750
  143ccc    H12 4139  12.572   1.102   7.031 -1.7859  0.3918  3.9054
  143ccc     C8 4140  12.771   1.181   7.010 -0.7268  0.1257 -0.6374
  143ccc    H13 4141  12.751   1.289   7.013 -0.6002  0.1457 -0.5169
  143ccc    H14 4142  12.869   1.169   7.058 -0.5326 -0.3287 -1.1346
  143ccc     C9 4143  12.777   1.139   6.878 -0.2013  0.7965 -0.0582
  143ccc     O4 4144  12.718   1.189   6.792 -0.5605 -0.2031  0.4003
  143ccc     O5 4145  12.852   1.048   6.854  0.1251  0.0434  0.6255
  143ccc     O1 4146  12.420   1.421   7.274 -0.2889 -0.0343 -0.3302
  144ccc     C3 4147  12.417   1.660   8.027  0.3986 -0.5080 -0.5751
  144ccc     H5 4148  12.417   1.738   8.104 -1.6078  1.1384 -2.1423
  144ccc     H6 4149  12.309   1.636   8.024 -0.5337  3.2423 -1.6185
  144ccc     C2 4150  12.496   1.532   8.066  0.2682 -0.0322 -1.0658
  144ccc     H3 4151  12.473   1.452   7.994 -2.8928 -0.5824  0.3618
  144ccc     H4 4152  12.454   1.487   8.157 -1.8781 -1.0143 -2.4591
  144ccc     C1 4153  12.652   1.560   8.062  0.9959 -0.5497  0.4954
  144ccc     H1 4154  12.670   1.650   8.123 -1.4674  2.0596 -2.2497
  144ccc     H2 4155  12.679   1.577   7.957 -1.2280 -2.0290 -0.4027
  144ccc     N1 4156  12.718   1.447   8.121 -0.3353  0.1974 -0.5443
  144ccc     C4 4157  12.830   1.489   8.215  0.4239 -0.0015  0.6438
  144ccc     H7 4158  12.868   1.574   8.157 -1.2331 -0.5769 -1.3985
  144ccc     H8 4159  12.902   1.409   8.238 -0.5365 -0.9776  0.3102
  144ccc     C5 4160  12.765   1.542   8.348 -0.0911  0.0111 -0.0123
  144ccc     H9 4161  12.687   1.620   8.340 -0.7807 -0.6177  0.4492
  144ccc    H10 4162  12.720   1.454   8.395  0.9293 -1.0269 -0.9187
  144ccc     C6 4163  12.878   1.581   8.436  0.6314 -0.4393 -0.0676
  144ccc     O2 4164  12.929   1.489   8.500  0.0837  0.4410  0.1661
  144ccc     O3 4165  12.887   1.702   8.471 -0.0172 -0.1930 -0.1698
  144ccc     C7 4166  12.767   1.366   8.013 -0.5309  0.5458  0.2192
  144ccc    H11 4167  12.693   1.334   7.938  0.8444  0.4784 -1.1657
  144ccc    H12 4168  12.834   1.439   7.966  0.1410 -0.0634  0.2158
  144ccc     C8 4169  12.847   1.241   8.047  0.0347 -0.1247  0.3044
  144ccc    H13 4170  12.953   1.270   8.058  0.5874 -1.2809 -1.4977
  144ccc    H14 4171  12.810   1.199   8.141 -3.4001  0.3957 -0.7054
  144ccc     C9 4172  12.846   1.146   7.933  0.9949  0.3157 -0.7968
  144ccc     O4 4173  12.947   1.113   7.881 -0.3219  0.2730  0.4012
  144ccc     O5 4174  12.742   1.084   7.909 -0.3054 -0.4134  0.0778
  144ccc     O1 4175  12.464   1.717   7.902  0.4367  0.1878  0.1470
  145ccc     C3 4176  11.596   2.618   6.083  0.1357 -0.2433 -0.7743
  145ccc     H5 4177  11.499   2.585   6.044  0.9735 -0.5756 -2.6841
  145ccc     H6 4178  11.593   2.717   6.129  1.9077 -0.4835 -0.0517
  145ccc     C2 4179  11.687   2.641   5.965 -0.4866 -0.1416  0.5047
  145ccc     H3 4180  11.787   2.660   6.008 -0.7740  0.5790  0.8848
  145ccc     H4 4181  11.664   2.736   5.915  1.3596  0.0270 -0.0921
  145ccc     C1 4182  11.684   2.522   5.867  0.3259  0.0326 -0.0254
  145ccc     H1 4183  11.702   2.427   5.919 -2.0434 -0.2654  0.3897
  145ccc     H2 4184  11.766   2.535   5.795 -0.1821  0.8857 -0.4753
  145ccc     N1 4185  11.564   2.500   5.785  0.0925 -0.2511  0.0518
  145ccc     C4 4186  11.561   2.360   5.728 -0.2507 -0.1496 -0.3072
  145ccc     H7 4187  11.470   2.342   5.669 -0.1674  0.9893 -0.8247
  145ccc     H8 4188  11.555   2.290   5.812 -1.7870 -2.5804 -2.3054
  145ccc     C5 4189  11.681   2.333   5.641 -0.2829  0.1810 -0.1578
  145ccc     H9 4190  11.695   2.416   5.570 -0.4740 -0.2253 -0.6736
  145ccc    H10 4191  11.776   2.330   5.696  0.0997 -0.3953 -0.8283
  145ccc     C6 4192  11.666   2.203   5.578 -0.0218 -0.2522  0.2621
  145ccc     O2 4193  11.700   2.097   5.630  0.0684 -0.4033 -0.7489
  145ccc     O3 4194  11.616   2.196   5.467 -0.0924 -0.2901 -0.6130
  145ccc     C7 4195  11.534   2.615   5.695 -0.1881 -0.1950 -0.0525
  145ccc    H11 4196  11.526   2.710   5.750 -1.7821 -0.4970  0.2750
  145ccc    H12 4197  11.614   2.621   5.620  1.3119 -1.7679  1.3313
  145ccc     C8 4198  11.405   2.594   5.618  0.4497 -0.5461 -0.4401
  145ccc    H13 4199  11.414   2.532   5.528  1.8765 -0.0095 -0.7001
  145ccc    H14 4200  11.330   2.560   5.690  0.1856 -0.4519 -0.6692
  145ccc     C9 4201  11.364   2.727   5.566  0.0751  0.3716 -0.2178
  145ccc     O4 4202  11.288   2.797   5.630 -0.7129 -0.6834  0.3784
  145ccc     O5 4203  11.363   2.751   5.444  0.2370  0.4015 -0.0934
  145ccc     O1 4204  11.636   2.522   6.182  0.7315  0.0048  0.3470
  146ccc     C3 4205  11.093   1.845   6.435 -0.5031 -0.1018 -0.0014
  146ccc     H5 4206  11.117   1.758   6.496 -0.4534 -0.9279 -1.1711
  146ccc     H6 4207  11.026   1.911   6.492 -0.4755  1.5614 -1.7817
  146ccc     C2 4208  11.013   1.796   6.312  0.0499  0.9787  0.2340
  146ccc     H3 4209  10.930   1.733   6.347 -0.6475  1.6320 -0.2418
  146ccc     H4 4210  11.075   1.726   6.255 -0.2210  1.1311 -0.2495
  146ccc     C1 4211  10.957   1.904   6.215 -0.0206  0.1395  0.3494
  146ccc     H1 4212  11.043   1.953   6.167  0.7686 -1.8043 -0.3154
  146ccc     H2 4213  10.907   1.983   6.273  1.8821  0.8831  1.0834
  146ccc     N1 4214  10.871   1.850   6.106 -0.1347  0.5179 -0.5757
  146ccc     C4 4215  10.786   1.954   6.047  0.2371 -0.1768  0.1745
  146ccc     H7 4216  10.837   2.030   5.986  1.1776  1.2411  2.5672
  146ccc     H8 4217  10.741   2.015   6.127  1.5648  3.2720 -1.4941
  146ccc     C5 4218  10.670   1.896   5.963 -0.0671  0.5119  0.7846
  146ccc     H9 4219  10.709   1.823   5.891  0.5002  1.7278 -0.1578
  146ccc    H10 4220  10.586   1.849   6.017 -0.1621  2.1938  2.2025
  146ccc     C6 4221  10.620   2.000   5.869  0.0570  0.6682  0.2867
  146ccc     O2 4222  10.537   2.082   5.900  1.1502 -0.1665 -0.1863
  146ccc     O3 4223  10.651   2.014   5.752 -0.6089 -0.3255  1.0196
  146ccc     C7 4224  10.935   1.748   6.022 -0.2742 -0.1272  0.6598
  146ccc    H11 4225  10.991   1.672   6.078 -0.0778 -1.3583 -1.1036
  146ccc    H12 4226  10.857   1.704   5.959 -0.3877  0.5555  0.3059
  146ccc     C8 4227  11.036   1.823   5.933  0.0457 -0.0195  0.5840
  146ccc    H13 4228  10.980   1.893   5.871 -0.8139 -0.2761  1.0602
  146ccc    H14 4229  11.123   1.859   5.990  2.1476 -3.2221 -0.3488
  146ccc     C9 4230  11.102   1.730   5.830  0.6630  0.8925 -0.2110
  146ccc     O4 4231  11.221   1.704   5.835 -0.2990  0.3707 -0.5117
  146ccc     O5 4232  11.048   1.727   5.720 -0.2946 -0.6952  0.1311
  146ccc     O1 4233  11.219   1.912   6.389  0.5508  0.6035  0.1516
  147ccc     C3 4234  11.391   1.308   7.687  0.5960  0.0728  0.6815
  147ccc     H5 4235  11.390   1.237   7.603 -1.3755  0.2445  0.5088
  147ccc     H6 4236  11.366   1.250   7.776 -1.6917  1.4949  1.0478
  147ccc     C2 4237  11.267   1.403   7.668 -0.0331 -0.0618  0.4302
  147ccc     H3 4238  11.172   1.356   7.640  0.0287  0.4778 -0.7603
  147ccc     H4 4239  11.293   1.461   7.578  0.3671  1.2225  1.3382
  147ccc     C1 4240  11.261   1.500   7.792  0.2040  0.1201  0.2505
  147ccc     H1 4241  11.347   1.566   7.780  0.3583  0.0628  0.9906
  147ccc     H2 4242  11.274   1.445   7.886  0.0323  2.2056  1.5559
  147ccc     N1 4243  11.138   1.586   7.800 -0.0087 -0.9609 -0.1943
  147ccc     C4 4244  11.141   1.682   7.909  0.8250 -0.1958  0.0355
  147ccc     H7 4245  11.154   1.623   8.001 -2.6821 -1.4663 -0.1496
  147ccc     H8 4246  11.040   1.723   7.915  0.6517 -0.8205  2.3161
  147ccc     C5 4247  11.241   1.801   7.894  1.1336  0.1891 -0.3361
  147ccc     H9 4248  11.345   1.769   7.880  0.6400 -0.9657 -1.5975
  147ccc    H10 4249  11.207   1.858   7.807 -0.2980 -1.4758 -0.9356
  147ccc     C6 4250  11.229   1.893   8.015 -0.0433  0.3335  0.2811
  147ccc     O2 4251  11.314   1.976   8.044 -0.3181  0.0451 -0.0596
  147ccc     O3 4252  11.167   1.857   8.117 -0.3261  0.0515  0.1447
  147ccc     C7 4253  11.020   1.505   7.806 -0.2690 -0.2328 -0.5066
  147ccc    H11 4254  11.054   1.404   7.781  0.5478 -0.3118  0.8223
  147ccc    H12 4255  10.979   1.496   7.908  0.4718 -1.9359 -0.3352
  147ccc     C8 4256  10.909   1.559   7.718  0.3423 -0.1935 -0.2726
  147ccc    H13 4257  10.867   1.653   7.759  0.5849 -0.7511  1.3406
  147ccc    H14 4258  10.940   1.578   7.615 -1.1196 -0.2704 -0.7509
  147ccc     C9 4259  10.804   1.456   7.713 -0.2646  0.7118  0.3972
  147ccc     O4 4260  10.717   1.450   7.801 -0.1357 -0.0320 -0.3279
  147ccc     O5 4261  10.816   1.363   7.628 -0.4668 -0.3946  0.0336
  147ccc     O1 4262  11.514   1.370   7.689  0.1082 -0.3952 -0.5011
  148ccc     C3 4263  11.987   1.338   8.237 -0.2616 -0.6088 -0.4151
  148ccc     H5 4264  11.966   1.249   8.176  2.0126  1.0326 -3.9125
  148ccc     H6 4265  12.075   1.335   8.302 -0.7145 -3.4839  0.1847
  148ccc     C2 4266  11.867   1.364   8.324  0.0877  0.7596 -0.5248
  148ccc     H3 4267  11.845   1.471   8.339 -0.9744  0.2186  2.5825
  148ccc     H4 4268  11.887   1.324   8.424  0.0442  0.0903 -0.7787
  148ccc     C1 4269  11.740   1.295   8.266 -0.8248 -0.3053 -0.1554
  148ccc     H1 4270  11.759   1.191   8.293 -1.0969 -0.6878 -1.3520
  148ccc     H2 4271  11.737   1.299   8.156 -2.4818 -0.5500 -0.1472
  148ccc     N1 4272  11.616   1.334   8.312  0.0991 -0.2431  0.1449
  148ccc     C4 4273  11.614   1.327   8.457 -0.0651 -0.1358 -0.1711
  148ccc     H7 4274  11.522   1.365   8.503 -0.6580 -1.7790  0.0483
  148ccc     H8 4275  11.691   1.390   8.504 -2.1968  0.4453  2.7939
  148ccc     C5 4276  11.616   1.187   8.512  0.0333  1.4827  0.0493
  148ccc     H9 4277  11.541   1.136   8.450 -1.1650  1.1881  1.6843
  148ccc    H10 4278  11.710   1.131   8.510 -0.3041  0.9108 -0.0953
  148ccc     C6 4279  11.565   1.173   8.647  0.5585  0.5054 -0.2454
  148ccc     O2 4280  11.633   1.151   8.744  0.3805  0.0030  0.3259
  148ccc     O3 4281  11.452   1.207   8.670  0.5309  0.2889 -0.2483
  148ccc     C7 4282  11.564   1.473   8.278 -0.4596  0.1561  0.1657
  148ccc    H11 4283  11.460   1.476   8.313 -0.5635 -1.9585  0.1582
  148ccc    H12 4284  11.620   1.544   8.339  0.1963  0.0263 -0.2784
  148ccc     C8 4285  11.564   1.511   8.132 -0.1846  0.2034 -0.2905
  148ccc    H13 4286  11.667   1.503   8.096 -0.0132 -0.0195  0.2401
  148ccc    H14 4287  11.498   1.439   8.083 -1.6924  2.0529 -1.1121
  148ccc     C9 4288  11.523   1.645   8.114 -0.9119  0.3123 -0.2583
  148ccc     O4 4289  11.612   1.733   8.113  0.5149  0.4174  0.3352
  148ccc     O5 4290  11.416   1.690   8.130 -0.2909  0.2367 -0.0628
  148ccc     O1 4291  11.982   1.449   8.141 -0.1646  0.3683  0.1657
  149ccc     C3 4292  12.052   0.618   6.588 -0.8448  0.2667  0.5049
  149ccc     H5 4293  12.051   0.533   6.657 -0.3480  0.5816  0.9118
  149ccc     H6 4294  11.954   0.612   6.540 -1.2573 -0.5734  1.4266
  149ccc     C2 4295  12.171   0.608   6.487 -0.4338  0.5763 -0.1527
  149ccc     H3 4296  12.192   0.700   6.432 -3.4222  1.4578  0.0225
  149ccc     H4 4297  12.137   0.529   6.418  1.6008  1.1058 -1.8564
  149ccc     C1 4298  12.296   0.556   6.559 -0.9714 -0.5456 -0.1412
  149ccc     H1 4299  12.280   0.451   6.588  1.5996 -0.9985 -0.1155
  149ccc     H2 4300  12.309   0.610   6.653 -1.1649  0.2918 -0.5918
  149ccc     N1 4301  12.424   0.573   6.484 -0.5505  0.4572 -0.4449
  149ccc     C4 4302  12.490   0.702   6.499 -0.1723 -0.5547 -0.8510
  149ccc     H7 4303  12.429   0.785   6.462 -0.1749  0.2134  0.8311
  149ccc     H8 4304  12.581   0.711   6.438 -0.7173  0.3965 -1.5558
  149ccc     C5 4305  12.536   0.729   6.641  0.2255 -0.7756 -0.4648
  149ccc     H9 4306  12.450   0.746   6.707 -0.5513 -2.9417 -0.8348
  149ccc    H10 4307  12.596   0.648   6.684 -1.1701 -1.1462  0.8494
  149ccc     C6 4308  12.619   0.851   6.629  0.0313 -0.3382 -0.4794
  149ccc     O2 4309  12.739   0.850   6.658 -0.3600 -0.2143 -0.1571
  149ccc     O3 4310  12.574   0.966   6.633  0.0277  0.3094  0.2393
  149ccc     C7 4311  12.425   0.500   6.360 -0.4475 -0.3658  0.5421
  149ccc    H11 4312  12.528   0.465   6.342 -0.9262 -1.4554 -0.1513
  149ccc    H12 4313  12.358   0.415   6.376 -0.8196  0.0418  1.1950
  149ccc     C8 4314  12.377   0.578   6.237 -0.0056  0.2807  0.0967
  149ccc    H13 4315  12.268   0.584   6.250 -0.3329  0.7499 -2.4206
  149ccc    H14 4316  12.420   0.676   6.215  2.3526 -0.5115  0.8307
  149ccc     C9 4317  12.394   0.505   6.108  0.3156  0.2505  0.1762
  149ccc     O4 4318  12.496   0.507   6.039  0.5597 -0.2266  0.0865
  149ccc     O5 4319  12.307   0.439   6.055  0.3499  0.2574 -0.2281
  149ccc     O1 4320  12.076   0.741   6.658  0.0934 -0.4310  0.2623
  150ccc     C3 4321  12.760   0.519   7.281 -0.2593  0.2924 -0.7109
  150ccc     H5 4322  12.737   0.504   7.387  1.1181  1.1813 -0.2526
  150ccc     H6 4323  12.742   0.426   7.227 -0.7149  0.7762 -1.4083
  150ccc     C2 4324  12.911   0.569   7.267  0.2013 -0.1242  0.5662
  150ccc     H3 4325  12.938   0.565   7.160 -1.0977  0.5729  0.1845
  150ccc     H4 4326  12.983   0.494   7.300 -1.4232 -1.9085  0.2430
  150ccc     C1 4327  12.937   0.702   7.332  0.3849  0.1706  0.1032
  150ccc     H1 4328  12.941   0.685   7.440  1.4193 -0.3581 -0.0114
  150ccc     H2 4329  12.853   0.773   7.320  0.3789  0.2330  0.5251
  150ccc     N1 4330  13.057   0.779   7.282  0.0357  0.2555  0.2459
  150ccc     C4 4331  13.092   0.882   7.383  0.0865 -0.0509  0.5334
  150ccc     H7 4332  13.004   0.936   7.420  1.6825  2.6991  0.5848
  150ccc     H8 4333  13.158   0.958   7.339 -1.5491  1.6692  0.9315
  150ccc     C5 4334  13.166   0.829   7.506  0.1241 -0.0849  0.2384
  150ccc     H9 4335  13.135   0.728   7.535  0.3083 -0.1948  0.0533
  150ccc    H10 4336  13.273   0.814   7.486 -0.1962 -1.2695 -0.7641
  150ccc     C6 4337  13.149   0.922   7.624  0.4805 -0.0317 -0.9582
  150ccc     O2 4338  13.249   0.957   7.687  0.5172  0.8237  0.2051
  150ccc     O3 4339  13.041   0.969   7.661 -0.0466  0.5621 -0.4112
  150ccc     C7 4340  13.047   0.832   7.140 -0.8899  0.5877 -0.2878
  150ccc    H11 4341  13.015   0.752   7.072 -0.5744 -1.0501  1.4031
  150ccc    H12 4342  12.979   0.918   7.142  0.7635  1.9301  0.5092
  150ccc     C8 4343  13.180   0.879   7.082  0.2994 -0.7112  0.2159
  150ccc    H13 4344  13.235   0.954   7.141  1.1918 -1.1208 -0.0752
  150ccc    H14 4345  13.253   0.801   7.057  3.0699  0.9608  2.4041
  150ccc     C9 4346  13.148   0.957   6.962  0.5386  0.6095 -0.1273
  150ccc     O4 4347  13.162   1.080   6.964  0.1084  0.0927  0.2953
  150ccc     O5 4348  13.100   0.906   6.862  0.0659  0.2377 -0.3282
  150ccc     O1 4349  12.671   0.615   7.231 -0.2103  0.7280  0.1951
  151ccc     C3 4350  11.969   2.530   8.734 -0.3440  0.2668 -0.1008
  151ccc     H5 4351  11.877   2.486   8.693 -0.7059 -0.4307  1.3952
  151ccc     H6 4352  12.051   2.459   8.747  0.4968  1.3548  0.7473
  151ccc     C2 4353  11.955   2.589   8.882 -0.1145 -0.1265  0.8859
  151ccc     H3 4354  11.929   2.509   8.953 -0.8261 -0.2406  0.5045
  151ccc     H4 4355  11.871   2.659   8.877  0.9870  1.2276  0.8069
  151ccc     C1 4356  12.083   2.671   8.928 -0.3959  0.1122  0.2063
  151ccc     H1 4357  12.053   2.742   9.006  1.6600  2.1951 -0.7915
  151ccc     H2 4358  12.114   2.735   8.845 -1.8485  0.3603 -0.1823
  151ccc     N1 4359  12.193   2.574   8.962  0.0353  0.3492  0.2892
  151ccc     C4 4360  12.163   2.487   9.079  0.4435  0.0898  0.2464
  151ccc     H7 4361  12.249   2.430   9.115 -0.1681  0.6010  2.7242
  151ccc     H8 4362  12.086   2.413   9.055 -0.5067  0.4702  1.9305
  151ccc     C5 4363  12.099   2.557   9.196  0.8692 -0.8738 -0.0977
  151ccc     H9 4364  12.160   2.644   9.226  0.1815 -1.0762  2.0382
  151ccc    H10 4365  11.997   2.580   9.164  0.7507 -0.9065  0.2648
  151ccc     C6 4366  12.098   2.481   9.324  0.1570  0.2969 -0.3703
  151ccc     O2 4367  12.019   2.507   9.415  0.2151 -0.3266 -0.0778
  151ccc     O3 4368  12.192   2.420   9.364  0.2166 -0.0133 -0.2284
  151ccc     C7 4369  12.313   2.663   8.987 -0.3583  0.1597  0.5299
  151ccc    H11 4370  12.284   2.766   9.009  0.8881  0.9121 -1.1846
  151ccc    H12 4371  12.376   2.614   9.061 -1.9089  0.0523  1.8388
  151ccc     C8 4372  12.393   2.667   8.853 -0.2164  0.4122 -0.1701
  151ccc    H13 4373  12.404   2.567   8.810 -1.3378  0.2889 -0.2106
  151ccc    H14 4374  12.336   2.735   8.789  1.1635  1.1457 -0.6442
  151ccc     C9 4375  12.522   2.730   8.875 -0.5626  0.2576  0.1939
  151ccc     O4 4376  12.547   2.840   8.828  0.4940  0.4855 -0.3678
  151ccc     O5 4377  12.608   2.669   8.931 -0.2983 -0.2675  0.1915
  151ccc     O1 4378  12.013   2.639   8.652  0.4467 -0.5051 -0.3538
  152ccc     C3 4379  12.338   2.363   7.829 -0.1033  0.0237 -0.8370
  152ccc     H5 4380  12.258   2.321   7.767 -0.0496 -1.7668  0.2374
  152ccc     H6 4381  12.398   2.423   7.761  0.8460  0.5743  0.4391
  152ccc     C2 4382  12.414   2.244   7.889  0.3614 -0.2431  0.7151
  152ccc     H3 4383  12.436   2.180   7.802  1.0676 -0.6901  1.2175
  152ccc     H4 4384  12.347   2.191   7.958  0.2194  1.2550  1.7901
  152ccc     C1 4385  12.544   2.290   7.961  0.9221 -0.3857 -0.3275
  152ccc     H1 4386  12.509   2.317   8.061 -0.7865  0.9379 -1.2485
  152ccc     H2 4387  12.596   2.372   7.909  0.3429  1.0117  1.2164
  152ccc     N1 4388  12.644   2.184   7.971  0.6655  0.5572  0.0736
  152ccc     C4 4389  12.609   2.081   8.066 -0.0683  0.5939 -0.3044
  152ccc     H7 4390  12.503   2.064   8.043 -0.1384  1.1622 -0.4282
  152ccc     H8 4391  12.619   2.120   8.168  1.3020  0.8189 -0.4992
  152ccc     C5 4392  12.684   1.945   8.051  0.0603  0.0036 -0.1478
  152ccc     H9 4393  12.614   1.861   8.050 -0.1303  0.1000 -3.2382
  152ccc    H10 4394  12.734   1.938   7.954 -0.1460 -1.6196 -0.1573
  152ccc     C6 4395  12.780   1.927   8.165  0.0525  0.3787 -0.4500
  152ccc     O2 4396  12.737   1.896   8.275  0.2258  0.0513  0.2800
  152ccc     O3 4397  12.903   1.936   8.149 -0.6333  0.2014  0.2590
  152ccc     C7 4398  12.787   2.233   7.973  0.6505 -0.1804  0.6484
  152ccc    H11 4399  12.853   2.146   7.982 -4.7245 -5.0855 -1.2363
  152ccc    H12 4400  12.807   2.275   7.874 -1.4689  1.9362  1.0178
  152ccc     C8 4401  12.811   2.318   8.093  0.0341  0.0102  1.0715
  152ccc    H13 4402  12.749   2.408   8.083 -0.9123 -0.6454  0.9174
  152ccc    H14 4403  12.779   2.265   8.184  1.1267 -0.2457  1.3211
  152ccc     C9 4404  12.951   2.369   8.111 -0.3549 -0.5984 -0.2782
  152ccc     O4 4405  12.969   2.489   8.126 -0.3552  0.3005  0.1259
  152ccc     O5 4406  13.038   2.286   8.144 -0.4110  0.1962 -0.0029
  152ccc     O1 4407  12.282   2.449   7.937  0.0015  0.0556 -0.5974
  153ccc     C3 4408  12.192   3.060   9.208 -0.0897 -0.0636  0.0244
  153ccc     H5 4409  12.235   3.051   9.108  0.4350 -1.8503  0.3765
  153ccc     H6 4410  12.157   3.164   9.207 -0.2371 -0.1117  0.2062
  153ccc     C2 4411  12.301   3.039   9.321  0.4722  0.4524  0.5525
  153ccc     H3 4412  12.267   3.085   9.414  1.6450 -1.4346  1.9690
  153ccc     H4 4413  12.398   3.083   9.293 -0.6107  2.6347  0.0030
  153ccc     C1 4414  12.334   2.887   9.342 -0.5458  0.1579 -0.0184
  153ccc     H1 4415  12.312   2.829   9.251 -0.6144  1.2400 -0.7027
  153ccc     H2 4416  12.268   2.843   9.418  1.4868 -0.4443  1.4918
  153ccc     N1 4417  12.472   2.847   9.375 -0.0675  0.2520  0.5938
  153ccc     C4 4418  12.477   2.700   9.406 -0.8528 -0.4739  0.1251
  153ccc     H7 4419  12.578   2.665   9.383 -1.2055 -0.0663 -2.2803
  153ccc     H8 4420  12.407   2.645   9.343 -1.4462 -1.2595  1.4253
  153ccc     C5 4421  12.439   2.668   9.545 -0.1473  0.5781 -0.6360
  153ccc     H9 4422  12.516   2.723   9.602  0.5781  0.6435 -1.6317
  153ccc    H10 4423  12.334   2.692   9.561 -0.7561 -1.2050 -1.6865
  153ccc     C6 4424  12.450   2.520   9.568  0.2078 -0.0706  0.2373
  153ccc     O2 4425  12.561   2.471   9.573 -0.6408 -0.2731 -0.4919
  153ccc     O3 4426  12.350   2.449   9.558 -0.1127  0.2356  0.4282
  153ccc     C7 4427  12.556   2.870   9.252  1.4143 -0.0577  0.0513
  153ccc    H11 4428  12.539   2.795   9.173  1.0506  0.7532 -0.6556
  153ccc    H12 4429  12.539   2.962   9.196  0.8838 -0.6828 -0.8408
  153ccc     C8 4430  12.703   2.884   9.283 -0.0553  0.5297  0.1880
  153ccc    H13 4431  12.728   2.986   9.315 -1.8529  0.0287  3.6638
  153ccc    H14 4432  12.737   2.814   9.361 -0.6953  0.5080  0.4551
  153ccc     C9 4433  12.777   2.851   9.154 -0.2165  0.7328  0.5589
  153ccc     O4 4434  12.811   2.738   9.134 -0.0612  0.2168  0.0526
  153ccc     O5 4435  12.786   2.925   9.057  0.3640 -0.2912  0.2515
  153ccc     O1 4436  12.081   2.982   9.242 -0.4910  0.9870  0.3959
  154ccc     C3 4437  11.720   2.216   9.160  0.0719  0.2330  0.0146
  154ccc     H5 4438  11.619   2.195   9.197  1.1098 -3.4531  1.2203
  154ccc     H6 4439  11.741   2.146   9.077 -3.1982 -0.9036  0.0073
  154ccc     C2 4440  11.816   2.194   9.274 -0.4527 -0.2323 -0.9371
  154ccc     H3 4441  11.782   2.245   9.365  2.4561  0.4757 -0.1348
  154ccc     H4 4442  11.910   2.247   9.253 -2.1878  3.1320 -0.9644
  154ccc     C1 4443  11.839   2.043   9.305  0.3845  0.0023  0.0283
  154ccc     H1 4444  11.742   1.998   9.280  0.4630 -1.4581  2.0646
  154ccc     H2 4445  11.866   2.021   9.409  1.7571 -0.0954 -0.3321
  154ccc     N1 4446  11.940   1.971   9.217  0.5664 -0.6886 -0.3481
  154ccc     C4 4447  11.917   1.830   9.196  0.0377 -0.1724 -0.2251
  154ccc     H7 4448  11.911   1.779   9.294 -0.1614  0.4676  0.1026
  154ccc     H8 4449  12.004   1.799   9.137 -0.3646  1.7937 -1.9464
  154ccc     C5 4450  11.793   1.797   9.108 -0.0783  0.4655  0.3762
  154ccc     H9 4451  11.711   1.858   9.148  0.5609  0.6214  1.4902
  154ccc    H10 4452  11.822   1.817   9.005 -0.8262 -1.6373 -0.3026
  154ccc     C6 4453  11.758   1.652   9.127  0.3662 -0.3231  0.6522
  154ccc     O2 4454  11.662   1.618   9.197 -1.1259  0.0097 -0.0714
  154ccc     O3 4455  11.823   1.566   9.072  0.3281  0.0756 -0.0539
  154ccc     C7 4456  12.080   2.018   9.236  0.1235  0.1189  0.2447
  154ccc    H11 4457  12.130   1.996   9.141 -0.4680  0.7525 -0.2266
  154ccc    H12 4458  12.076   2.127   9.252  2.1961  0.2563  0.0756
  154ccc     C8 4459  12.158   1.946   9.350  0.1972 -0.4437 -0.6419
  154ccc    H13 4460  12.110   1.954   9.448  0.4017  1.6432 -0.6636
  154ccc    H14 4461  12.169   1.839   9.329 -0.3317 -0.7426  0.5098
  154ccc     C9 4462  12.286   2.010   9.353  0.2741  0.2664 -0.4985
  154ccc     O4 4463  12.316   2.096   9.437  0.5011 -0.5000  0.6893
  154ccc     O5 4464  12.367   1.964   9.277 -0.9955 -0.4919 -0.5612
  154ccc     O1 4465  11.726   2.350   9.109 -0.0503 -0.0424  0.2209
  155ccc     C3 4466  10.769   0.793   9.121  0.2909 -0.1435 -0.3354
  155ccc     H5 4467  10.821   0.889   9.122 -1.6729  0.9868  1.4774
  155ccc     H6 4468  10.750   0.771   9.226  0.1540  0.1900 -0.2881
  155ccc     C2 4469  10.876   0.696   9.060  0.1647 -0.5128 -0.3867
  155ccc     H3 4470  10.838   0.594   9.063  0.8301 -0.9255 -3.1917
  155ccc     H4 4471  10.967   0.702   9.122  0.2495 -0.3228 -0.5300
  155ccc     C1 4472  10.911   0.732   8.910  0.4374 -0.6789  0.1504
  155ccc     H1 4473  10.824   0.697   8.853 -0.2263  1.2107 -0.0688
  155ccc     H2 4474  11.004   0.684   8.876  0.8952  0.2246  0.1016
  155ccc     N1 4475  10.924   0.875   8.883 -0.0985  0.1864 -0.3406
  155ccc     C4 4476  10.887   0.895   8.741  0.0495 -0.8663 -0.2752
  155ccc     H7 4477  10.916   0.816   8.671  0.9876  0.8430 -1.9352
  155ccc     H8 4478  10.917   0.990   8.694 -2.1808 -0.1202 -0.3317
  155ccc     C5 4479  10.735   0.900   8.732  0.1007 -0.5015  0.1185
  155ccc     H9 4480  10.675   0.811   8.753 -1.5802 -0.0241 -2.3056
  155ccc    H10 4481  10.700   0.978   8.801 -0.0592 -0.4947  0.0307
  155ccc     C6 4482  10.689   0.929   8.596 -0.0120 -0.2524 -0.6780
  155ccc     O2 4483  10.685   1.044   8.565  0.1465  0.1578  0.2374
  155ccc     O3 4484  10.642   0.851   8.517 -0.0211  0.6746  0.4698
  155ccc     C7 4485  11.064   0.918   8.915 -0.0945 -0.9539  0.4259
  155ccc    H11 4486  11.082   0.915   9.024 -0.3027  0.8208  0.5341
  155ccc    H12 4487  11.136   0.859   8.857  1.0252  2.4664 -1.9621
  155ccc     C8 4488  11.093   1.063   8.869  0.0573  0.1022 -0.1850
  155ccc    H13 4489  11.102   1.062   8.760  0.1443  0.7634 -0.1904
  155ccc    H14 4490  11.003   1.118   8.901 -0.3693 -1.4556  1.4747
  155ccc     C9 4491  11.224   1.107   8.927 -0.0559  0.1955 -0.1852
  155ccc     O4 4492  11.321   1.034   8.920 -0.3224  0.1990  0.5917
  155ccc     O5 4493  11.240   1.225   8.921 -1.1673  0.5960  0.1178
  155ccc     O1 4494  10.646   0.791   9.051 -0.3621 -0.3538  0.6225
  156ccc     C3 4495  10.429   0.728   9.620  0.4484  0.4123  1.1530
  156ccc     H5 4496  10.361   0.732   9.706  1.9427 -4.0205  2.8354
  156ccc     H6 4497  10.403   0.639   9.562  0.7322  1.3426 -0.4673
  156ccc     C2 4498  10.577   0.702   9.664  0.3955  0.0082 -0.1063
  156ccc     H3 4499  10.588   0.608   9.720  4.1120 -0.3034 -1.0861
  156ccc     H4 4500  10.610   0.783   9.732  1.1701  1.5711 -2.2330
  156ccc     C1 4501  10.676   0.698   9.545  0.2623 -1.0607  0.0183
  156ccc     H1 4502  10.704   0.802   9.528 -0.0989 -0.8454  0.7011
  156ccc     H2 4503  10.628   0.656   9.455  4.4416 -4.3306 -1.0112
  156ccc     N1 4504  10.790   0.617   9.579 -0.7571 -0.2391 -0.6754
  156ccc     C4 4505  10.860   0.674   9.690 -0.6194  0.3896 -0.5041
  156ccc     H7 4506  10.807   0.644   9.781 -0.7297  2.0736  0.0089
  156ccc     H8 4507  10.861   0.782   9.677 -0.0415  0.3821 -0.5711
  156ccc     C5 4508  11.007   0.624   9.699  0.1469 -0.4749 -0.0412
  156ccc     H9 4509  11.019   0.537   9.764  4.4867  1.9102  2.8917
  156ccc    H10 4510  11.047   0.597   9.601 -0.9950 -1.0670 -0.3594
  156ccc     C6 4511  11.096   0.722   9.769 -0.9972 -0.8021  0.7625
  156ccc     O2 4512  11.208   0.755   9.726  0.8556 -0.5528  0.4177
  156ccc     O3 4513  11.060   0.770   9.873 -0.1046 -0.5195 -0.0331
  156ccc     C7 4514  10.780   0.470   9.597  0.4764 -0.0627 -0.1641
  156ccc    H11 4515  10.883   0.435   9.605  1.2747  2.4011  2.3061
  156ccc    H12 4516  10.725   0.456   9.691  0.3240 -0.7982 -0.3571
  156ccc     C8 4517  10.707   0.390   9.485 -0.2423  0.8079 -0.2514
  156ccc    H13 4518  10.639   0.454   9.428 -0.2273 -0.5140 -1.8151
  156ccc    H14 4519  10.787   0.361   9.416  0.3818 -0.7048  1.0354
  156ccc     C9 4520  10.641   0.260   9.524  0.5880 -0.5849  0.0986
  156ccc     O4 4521  10.583   0.250   9.633 -0.6643 -1.0017 -0.2050
  156ccc     O5 4522  10.607   0.187   9.435 -0.4901  0.1377  0.3746
  156ccc     O1 4523  10.437   0.841   9.529 -0.2984  0.1461 -0.0659
  157ccc     C3 4524  10.810   1.661   9.618 -0.2237 -0.7456 -0.2502
  157ccc     H5 4525  10.798   1.751   9.680  0.4709 -1.6504  1.2717
  157ccc     H6 4526  10.745   1.588   9.668 -1.8908  2.0015  1.8906
  157ccc     C2 4527  10.962   1.629   9.635 -0.0208 -0.1097 -0.6931
  157ccc     H3 4528  10.997   1.638   9.738  0.3092 -1.4070 -0.6876
  157ccc     H4 4529  11.012   1.705   9.573  1.6331 -0.9267 -0.4164
  157ccc     C1 4530  10.984   1.483   9.581 -0.0143  0.8400 -0.2533
  157ccc     H1 4531  10.955   1.486   9.475 -1.1771  0.0802  0.0222
  157ccc     H2 4532  10.905   1.422   9.628 -0.9569  1.1752 -1.3447
  157ccc     N1 4533  11.112   1.425   9.590 -1.0295 -0.0912 -0.7452
  157ccc     C4 4534  11.114   1.289   9.643 -0.0677  0.2056 -0.0027
  157ccc     H7 4535  11.215   1.248   9.631  0.4778  1.6235 -0.5327
  157ccc     H8 4536  11.046   1.218   9.595  1.5335 -0.5381 -1.2430
  157ccc     C5 4537  11.088   1.282   9.797 -0.2570  0.2984  0.0738
  157ccc     H9 4538  11.150   1.356   9.849  0.6059  0.5646 -1.2945
  157ccc    H10 4539  10.983   1.293   9.826 -0.9264 -2.0249 -1.2222
  157ccc     C6 4540  11.131   1.149   9.855 -0.3190 -0.2099 -1.0156
  157ccc     O2 4541  11.248   1.126   9.880  0.7291  0.0278  0.0579
  157ccc     O3 4542  11.051   1.053   9.873 -0.1893  0.2596  0.2857
  157ccc     C7 4543  11.179   1.422   9.467 -0.1327  0.3400  0.1454
  157ccc    H11 4544  11.279   1.386   9.494 -0.2935  1.8659  3.2015
  157ccc    H12 4545  11.133   1.343   9.406  0.1708  0.7106 -0.5828
  157ccc     C8 4546  11.198   1.551   9.385 -1.0255 -0.3617 -0.1121
  157ccc    H13 4547  11.107   1.577   9.329  0.3914  0.7620 -2.0227
  157ccc    H14 4548  11.237   1.632   9.447  0.0336 -0.6704 -0.3549
  157ccc     C9 4549  11.304   1.521   9.289 -0.7968 -0.5020 -0.4782
  157ccc     O4 4550  11.420   1.535   9.322  0.4228  0.3359  0.3382
  157ccc     O5 4551  11.286   1.518   9.167  0.3178 -0.5824  0.1240
  157ccc     O1 4552  10.790   1.685   9.476 -0.5392  0.6548 -0.2591
  158ccc     C3 4553  10.914   0.961   9.396 -0.4264 -0.3163  0.7700
  158ccc     H5 4554  10.921   0.979   9.504 -1.1709  0.6607  0.6741
  158ccc     H6 4555  10.862   0.865   9.386 -0.5090 -0.2056  0.0750
  158ccc     C2 4556  11.049   0.931   9.333  0.6615 -0.0574  0.6658
  158ccc     H3 4557  11.041   0.886   9.234  0.5229  0.1566  0.5788
  158ccc     H4 4558  11.086   0.847   9.393 -1.6148 -0.6528  1.3071
  158ccc     C1 4559  11.138   1.051   9.315  0.1504  0.0125  0.1849
  158ccc     H1 4560  11.129   1.114   9.405 -4.4354  1.2287 -0.8132
  158ccc     H2 4561  11.100   1.105   9.227 -1.7940 -1.6331 -0.0496
  158ccc     N1 4562  11.283   1.017   9.293  0.2686 -0.4015 -0.5250
  158ccc     C4 4563  11.353   1.143   9.263 -0.3263  0.0880  0.3539
  158ccc     H7 4564  11.358   1.209   9.350 -0.4137 -0.9114  1.1309
  158ccc     H8 4565  11.303   1.186   9.176  1.2337 -2.4593 -1.9746
  158ccc     C5 4566  11.500   1.124   9.221 -0.5247  0.5534  0.1941
  158ccc     H9 4567  11.558   1.105   9.313  0.2422  1.9292  0.0193
  158ccc    H10 4568  11.515   1.042   9.150  2.8550 -0.3496  1.7145
  158ccc     C6 4569  11.546   1.248   9.150  0.2321  0.0667  0.1532
  158ccc     O2 4570  11.608   1.338   9.198 -0.1902  0.3168 -0.3702
  158ccc     O3 4571  11.503   1.269   9.039 -0.3652 -0.1943  0.0976
  158ccc     C7 4572  11.348   0.938   9.404 -0.1877 -0.1064 -0.1731
  158ccc    H11 4573  11.298   0.843   9.423  2.1427 -1.3888 -0.0550
  158ccc    H12 4574  11.445   0.910   9.360 -0.2712 -0.6145 -0.0294
  158ccc     C8 4575  11.373   1.011   9.534  0.5417  0.9000 -0.4109
  158ccc    H13 4576  11.436   1.100   9.522  0.1049  1.3816  0.7446
  158ccc    H14 4577  11.276   1.050   9.568 -0.5328 -0.4015 -1.8201
  158ccc     C9 4578  11.445   0.923   9.635  0.1784 -0.7252  0.2905
  158ccc     O4 4579  11.445   0.958   9.751 -0.1032 -0.7210 -0.1708
  158ccc     O5 4580  11.483   0.810   9.604 -0.3845  0.6046  0.5030
  158ccc     O1 4581  10.850   1.076   9.327 -0.0709  0.5219 -0.0571
  159ccc     C3 4582   8.828  -1.191   5.665 -0.1291 -0.0110 -0.2676
  159ccc     H5 4583   8.790  -1.286   5.627 -3.1102  0.3135  1.5581
  159ccc     H6 4584   8.777  -1.168   5.760  0.4048  0.0050  0.0172
  159ccc     C2 4585   8.828  -1.071   5.563  0.6851  0.4097  0.3623
  159ccc     H3 4586   8.731  -1.064   5.511  1.0404  0.7610 -0.2672
  159ccc     H4 4587   8.906  -1.089   5.488 -0.4619  2.0686 -1.3163
  159ccc     C1 4588   8.856  -0.933   5.631  0.6946  0.1292 -0.2847
  159ccc     H1 4589   8.941  -0.938   5.699  1.9445 -0.7031 -1.8471
  159ccc     H2 4590   8.771  -0.894   5.689  2.2068  1.5151  1.1207
  159ccc     N1 4591   8.885  -0.822   5.539 -0.2491  0.2733  0.6260
  159ccc     C4 4592   9.006  -0.854   5.462 -0.8651  0.7806 -0.1338
  159ccc     H7 4593   8.976  -0.858   5.356 -2.7214  0.1336  0.3800
  159ccc     H8 4594   9.043  -0.952   5.495  0.4266  1.4456  0.4837
  159ccc     C5 4595   9.123  -0.754   5.492  0.1421  0.4164  0.1869
  159ccc     H9 4596   9.079  -0.654   5.494 -2.2422 -0.5550  2.5108
  159ccc    H10 4597   9.176  -0.772   5.587 -0.6512 -1.7847  0.2652
  159ccc     C6 4598   9.224  -0.771   5.384 -0.4034 -0.5708  0.1852
  159ccc     O2 4599   9.227  -0.696   5.292  0.5265  0.2050 -0.0182
  159ccc     O3 4600   9.336  -0.806   5.424 -0.3560 -0.1570  0.0169
  159ccc     C7 4601   8.769  -0.772   5.471 -0.4522  0.0790  0.1769
  159ccc    H11 4602   8.718  -0.846   5.409 -0.1301 -2.0022  2.2602
  159ccc    H12 4603   8.702  -0.736   5.551 -0.5976  2.6665 -1.0052
  159ccc     C8 4604   8.792  -0.646   5.382  0.0292 -0.2800 -0.3239
  159ccc    H13 4605   8.844  -0.573   5.446  1.7659 -1.5373 -0.2179
  159ccc    H14 4606   8.859  -0.669   5.298  1.9745  0.0217  1.0838
  159ccc     C9 4607   8.661  -0.596   5.343  0.1342 -0.1938 -0.3072
  159ccc     O4 4608   8.599  -0.536   5.428  0.2244 -0.0304  0.0048
  159ccc     O5 4609   8.613  -0.619   5.232  0.7366  0.1385  0.2408
  159ccc     O1 4610   8.971  -1.199   5.698 -0.1439 -0.7487 -0.0839
  160ccc     C3 4611   8.669  -1.094   6.117  0.2926  0.2418 -0.2604
  160ccc     H5 4612   8.617  -1.190   6.104  2.0015 -0.6611 -0.7782
  160ccc     H6 4613   8.660  -1.070   6.223  3.2241 -0.4282  0.2380
  160ccc     C2 4614   8.626  -0.985   6.010 -0.0657 -0.1192  0.3751
  160ccc     H3 4615   8.644  -1.040   5.916  0.0497  0.4668  0.0508
  160ccc     H4 4616   8.700  -0.905   6.017  0.8157 -0.9514  0.9260
  160ccc     C1 4617   8.478  -0.936   6.034  0.5479  0.2667  0.2447
  160ccc     H1 4618   8.458  -0.910   6.139 -0.4493 -3.4967  1.1327
  160ccc     H2 4619   8.418  -1.027   6.020 -1.0004  1.0248  1.6028
  160ccc     N1 4620   8.420  -0.840   5.938  0.6455  0.7277 -0.2009
  160ccc     C4 4621   8.271  -0.827   5.954  1.0359  0.4318 -0.7316
  160ccc     H7 4622   8.243  -0.798   6.056  3.4120 -0.5160  0.2670
  160ccc     H8 4623   8.224  -0.926   5.955 -0.5681  1.1336  1.7031
  160ccc     C5 4624   8.212  -0.745   5.843 -0.2661  0.2100 -0.2052
  160ccc     H9 4625   8.282  -0.745   5.759 -0.7605  0.7207 -0.6233
  160ccc    H10 4626   8.122  -0.796   5.806  1.3030 -2.4312 -0.6175
  160ccc     C6 4627   8.185  -0.605   5.883 -0.1866  0.1075 -0.7206
  160ccc     O2 4628   8.199  -0.508   5.806 -0.0730  0.0047  0.4159
  160ccc     O3 4629   8.147  -0.570   5.995 -0.1741 -0.1951  0.6714
  160ccc     C7 4630   8.496  -0.716   5.938 -0.0664 -0.3701  0.3500
  160ccc    H11 4631   8.602  -0.728   5.912  0.0768  2.1104 -0.5072
  160ccc    H12 4632   8.450  -0.646   5.868  2.2621  1.3250  0.4011
  160ccc     C8 4633   8.477  -0.643   6.075 -0.1268  0.2358  0.4387
  160ccc    H13 4634   8.390  -0.666   6.137  0.0911 -2.6628 -0.1928
  160ccc    H14 4635   8.560  -0.685   6.135  0.5597 -0.0242 -0.6669
  160ccc     C9 4636   8.500  -0.497   6.072  0.4600 -0.0675  0.1620
  160ccc     O4 4637   8.574  -0.440   6.151 -0.2092 -0.0436 -0.5418
  160ccc     O5 4638   8.419  -0.426   6.008  0.3113 -0.6843 -0.7620
  160ccc     O1 4639   8.808  -1.124   6.100 -0.6050 -0.2944 -0.2018
  161ccc     C3 4640   8.535   0.485   6.400  0.0318  0.0823 -0.4398
  161ccc     H5 4641   8.618   0.477   6.471  0.2626  2.0195 -0.4128
  161ccc     H6 4642   8.447   0.530   6.446  0.0568  0.4447 -0.7386
  161ccc     C2 4643   8.502   0.343   6.354 -0.0571  0.3531  0.5455
  161ccc     H3 4644   8.459   0.289   6.440 -0.4044 -0.6258 -0.2268
  161ccc     H4 4645   8.587   0.285   6.316  0.6760 -0.1556  2.8129
  161ccc     C1 4646   8.393   0.343   6.250 -0.1268 -0.0608  0.4363
  161ccc     H1 4647   8.452   0.362   6.159 -1.8969 -0.2300 -0.7911
  161ccc     H2 4648   8.324   0.427   6.264 -0.0006 -0.1950  2.1395
  161ccc     N1 4649   8.317   0.220   6.239 -0.3149  0.0605  0.1152
  161ccc     C4 4650   8.220   0.244   6.137  0.5803 -0.2992  0.9713
  161ccc     H7 4651   8.268   0.268   6.041 -1.0489 -0.1609  0.1589
  161ccc     H8 4652   8.160   0.328   6.174  1.4351  0.3855  0.8523
  161ccc     C5 4653   8.110   0.131   6.118 -0.3910 -0.1705  0.7684
  161ccc     H9 4654   8.150   0.029   6.110  1.5575  0.6681 -1.5480
  161ccc    H10 4655   8.041   0.138   6.203  0.1603  3.0575  1.0746
  161ccc     C6 4656   8.023   0.151   5.997  0.2197  0.1203 -0.5011
  161ccc     O2 4657   8.028   0.253   5.932 -1.0477  0.0670  0.0791
  161ccc     O3 4658   7.981   0.048   5.943  0.1042  0.1845 -0.1381
  161ccc     C7 4659   8.396   0.100   6.220 -0.3862  0.3364  0.0962
  161ccc    H11 4660   8.465   0.099   6.306  0.8277 -1.7424 -0.8424
  161ccc    H12 4661   8.328   0.014   6.224  1.2429 -1.3645 -3.7675
  161ccc     C8 4662   8.484   0.080   6.096  0.4037 -0.1004 -0.1102
  161ccc    H13 4663   8.419   0.074   6.008 -0.5989 -2.2560  0.7261
  161ccc    H14 4664   8.550   0.168   6.085 -0.8669  0.7839 -1.0056
  161ccc     C9 4665   8.562  -0.047   6.104  0.1033  0.3631  0.2748
  161ccc     O4 4666   8.684  -0.058   6.118 -0.3242 -0.1898  0.0181
  161ccc     O5 4667   8.507  -0.152   6.079  0.1439 -0.0705  0.0483
  161ccc     O1 4668   8.592   0.562   6.296 -0.4269 -0.1647 -0.3494
  162ccc     C3 4669   8.817   0.238   5.706  0.0865 -0.3093 -0.8942
  162ccc     H5 4670   8.817   0.269   5.601  0.9234  0.2434 -0.7372
  162ccc     H6 4671   8.864   0.139   5.708 -0.2494 -0.4755 -1.0850
  162ccc     C2 4672   8.670   0.233   5.746  0.7946 -0.4793  0.4846
  162ccc     H3 4673   8.619   0.322   5.706  0.9058  0.3784  2.1479
  162ccc     H4 4674   8.662   0.236   5.856  2.6277  0.7021  0.6242
  162ccc     C1 4675   8.595   0.110   5.683 -0.3263 -0.3902  0.3067
  162ccc     H1 4676   8.632   0.018   5.730 -0.3519 -0.8231 -0.5132
  162ccc     H2 4677   8.615   0.107   5.575  3.1117  2.3115  0.6864
  162ccc     N1 4678   8.447   0.110   5.713  0.0128 -0.2964 -0.0383
  162ccc     C4 4679   8.380  -0.022   5.706  0.0917  0.5533 -0.9913
  162ccc     H7 4680   8.455  -0.086   5.753  1.0179  1.4402 -1.2271
  162ccc     H8 4681   8.365  -0.050   5.601 -2.7654  1.2681 -0.8510
  162ccc     C5 4682   8.241  -0.031   5.774  0.8173  0.4706  0.2871
  162ccc     H9 4683   8.250  -0.005   5.880 -1.8578 -1.5656  1.1009
  162ccc    H10 4684   8.168   0.031   5.721  0.9061 -1.3331 -2.1077
  162ccc     C6 4685   8.196  -0.175   5.769 -0.4821  0.2617  0.0611
  162ccc     O2 4686   8.083  -0.200   5.746 -0.3242  0.1789 -0.0247
  162ccc     O3 4687   8.278  -0.258   5.810  0.2235 -0.1399 -0.0120
  162ccc     C7 4688   8.377   0.217   5.640  0.5587 -0.0676 -0.2644
  162ccc    H11 4689   8.438   0.269   5.566 -0.4850  2.1512  0.3545
  162ccc    H12 4690   8.297   0.170   5.582  1.5784 -0.3506 -1.4751
  162ccc     C8 4691   8.325   0.329   5.744 -0.1231 -0.1385  0.2590
  162ccc    H13 4692   8.260   0.286   5.822  0.2260  1.5068  1.5155
  162ccc    H14 4693   8.405   0.382   5.797 -1.5961  0.3312  2.1273
  162ccc     C9 4694   8.242   0.424   5.657  0.8487 -0.3989 -0.2790
  162ccc     O4 4695   8.121   0.435   5.669  0.3551  0.0773 -0.7033
  162ccc     O5 4696   8.301   0.513   5.597  0.7252  0.3122  0.4505
  162ccc     O1 4697   8.883   0.337   5.792 -0.1299 -0.1163 -0.0980
  163ccc     C3 4698  11.657   0.918   5.050 -0.8861 -0.2835  0.2228
  163ccc     H5 4699  11.605   0.916   4.954 -1.5241  2.2212  0.4504
  163ccc     H6 4700  11.600   0.986   5.114  0.6139  2.0833 -0.8356
  163ccc     C2 4701  11.796   0.992   5.040  0.6762 -0.6459 -0.7546
  163ccc     H3 4702  11.872   0.917   5.012  0.4313 -0.4417 -2.0534
  163ccc     H4 4703  11.819   1.040   5.135  4.0074 -0.8736 -1.3139
  163ccc     C1 4704  11.788   1.113   4.943  0.6307  0.0870  0.4953
  163ccc     H1 4705  11.707   1.179   4.978 -0.4992 -0.1648 -1.4741
  163ccc     H2 4706  11.748   1.079   4.846  0.4493 -0.8316  0.8814
  163ccc     N1 4707  11.912   1.181   4.920 -0.8852 -0.5870 -0.3190
  163ccc     C4 4708  11.968   1.242   5.045  0.2867  0.2233 -0.3325
  163ccc     H7 4709  11.986   1.156   5.111  0.8471 -0.3279 -1.1959
  163ccc     H8 4710  11.894   1.298   5.104  1.9796  1.5694  0.6193
  163ccc     C5 4711  12.095   1.324   5.040  0.1083 -0.5374  0.6274
  163ccc     H9 4712  12.166   1.284   4.967  0.5139 -1.4357  1.4985
  163ccc    H10 4713  12.069   1.430   5.026  3.1322  0.1949 -0.1272
  163ccc     C6 4714  12.162   1.306   5.168 -0.1825 -0.1882  1.0161
  163ccc     O2 4715  12.135   1.384   5.258  0.0341  0.9813  0.1434
  163ccc     O3 4716  12.252   1.219   5.178  0.5764 -0.4408 -0.2591
  163ccc     C7 4717  11.900   1.277   4.812 -0.9663 -0.6730 -0.4428
  163ccc    H11 4718  12.003   1.313   4.795 -0.1855 -1.0243  2.9362
  163ccc    H12 4719  11.868   1.225   4.721 -1.0956  0.3762 -1.0155
  163ccc     C8 4720  11.807   1.400   4.846  0.1783  0.3040  0.2659
  163ccc    H13 4721  11.705   1.363   4.862 -0.0807  0.7092 -0.4233
  163ccc    H14 4722  11.840   1.456   4.934 -1.3208  0.8262  0.5183
  163ccc     C9 4723  11.795   1.478   4.723 -0.3090 -0.1734  0.3412
  163ccc     O4 4724  11.694   1.462   4.658 -0.1125  0.4173 -0.5847
  163ccc     O5 4725  11.899   1.519   4.670 -0.1963  0.1879 -0.2243
  163ccc     O1 4726  11.661   0.792   5.122 -0.9457  0.1100 -0.1959
  164ccc     C3 4727  11.816  -0.145   4.831 -0.5179 -0.4576  0.3446
  164ccc     H5 4728  11.728  -0.203   4.800  0.0861 -1.9843  1.4022
  164ccc     H6 4729  11.891  -0.143   4.752 -0.0628 -1.0207  0.7607
  164ccc     C2 4730  11.876  -0.203   4.960 -0.4247  0.3590 -0.3095
  164ccc     H3 4731  11.879  -0.311   4.946 -1.6457 -0.1775  2.7127
  164ccc     H4 4732  11.798  -0.190   5.037 -0.8882 -1.1015 -0.5081
  164ccc     C1 4733  12.009  -0.155   5.010  0.2707 -0.2476  0.6781
  164ccc     H1 4734  12.009  -0.046   5.020 -1.8143 -0.0698 -0.6349
  164ccc     H2 4735  12.084  -0.176   4.932 -0.3344  0.4656 -0.1129
  164ccc     N1 4736  12.031  -0.227   5.135 -0.2361 -0.2098  0.1538
  164ccc     C4 4737  12.113  -0.157   5.235  0.0472 -0.5283  0.2943
  164ccc     H7 4738  12.147  -0.062   5.191 -2.0134 -0.1013 -0.5064
  164ccc     H8 4739  12.205  -0.215   5.246 -1.1207 -2.6425 -0.3509
  164ccc     C5 4740  12.058  -0.126   5.376  0.4959 -0.2710  0.1505
  164ccc     H9 4741  12.032  -0.221   5.423 -0.9260  0.8119  1.6600
  164ccc    H10 4742  12.132  -0.085   5.445  2.7086 -2.5694 -0.6998
  164ccc     C6 4743  11.943  -0.034   5.378 -0.1201  0.5444  0.0143
  164ccc     O2 4744  11.830  -0.074   5.354  0.7305 -1.0765  0.4329
  164ccc     O3 4745  11.963   0.081   5.395 -0.0916  0.1211 -0.7211
  164ccc     C7 4746  12.062  -0.377   5.127  0.5498  0.1705 -0.0053
  164ccc    H11 4747  12.034  -0.426   5.032 -0.0163  2.0504 -0.8489
  164ccc    H12 4748  12.169  -0.400   5.134 -0.0866 -2.8086  1.6856
  164ccc     C8 4749  11.985  -0.461   5.229 -0.0912  0.1673  0.3261
  164ccc    H13 4750  12.022  -0.563   5.211  0.8066  0.5357  0.0367
  164ccc    H14 4751  12.006  -0.435   5.333  1.5684 -1.0289  0.3213
  164ccc     C9 4752  11.845  -0.456   5.195 -0.3258  0.6046  0.2765
  164ccc     O4 4753  11.797  -0.543   5.129 -0.2323 -0.9847  0.1901
  164ccc     O5 4754  11.768  -0.386   5.257 -0.1804 -0.3865  0.1666
  164ccc     O1 4755  11.779  -0.007   4.860 -0.1433 -0.4299  0.1987
  165ccc     C3 4756  11.512   0.896   5.662 -0.4784  0.2693 -0.6521
  165ccc     H5 4757  11.570   0.851   5.744  0.9101 -0.1950 -1.8410
  165ccc     H6 4758  11.436   0.821   5.636  0.2997 -0.6052 -0.4618
  165ccc     C2 4759  11.607   0.910   5.538 -0.1420 -0.0711 -0.4249
  165ccc     H3 4760  11.654   1.010   5.540  1.7522 -0.8822  3.2710
  165ccc     H4 4761  11.540   0.897   5.452 -2.0116  0.6413  0.8700
  165ccc     C1 4762  11.713   0.800   5.547 -0.0932 -0.0695 -0.3033
  165ccc     H1 4763  11.660   0.704   5.548 -1.4199  0.6466 -0.1420
  165ccc     H2 4764  11.762   0.807   5.645 -0.2014  0.2218 -0.2706
  165ccc     N1 4765  11.805   0.798   5.434  0.3670  0.2875 -0.0440
  165ccc     C4 4766  11.882   0.916   5.400 -0.3324 -0.0449  0.2598
  165ccc     H7 4767  11.820   0.991   5.348 -0.1416 -1.1029 -1.5618
  165ccc     H8 4768  11.959   0.890   5.326 -0.3712 -0.8253  0.4937
  165ccc     C5 4769  11.956   0.972   5.520 -0.2610 -0.5094  0.0485
  165ccc     H9 4770  11.891   0.988   5.607  0.3698 -0.2077  0.4725
  165ccc    H10 4771  12.037   0.909   5.557  1.3368 -0.4249 -2.9952
  165ccc     C6 4772  12.020   1.098   5.479 -0.1485  0.4178  0.2938
  165ccc     O2 4773  12.129   1.099   5.426 -0.4058 -1.0329 -0.7695
  165ccc     O3 4774  11.993   1.195   5.544  0.9201 -0.3608 -0.3430
  165ccc     C7 4775  11.897   0.679   5.428  0.2179 -0.4100  0.1278
  165ccc    H11 4776  11.965   0.701   5.345 -0.6345  3.5347  0.2765
  165ccc    H12 4777  11.955   0.675   5.521 -4.1745  2.6688  3.3992
  165ccc     C8 4778  11.827   0.541   5.405  0.1732 -0.0503  0.7524
  165ccc    H13 4779  11.754   0.528   5.487  1.1943 -2.9885  1.3176
  165ccc    H14 4780  11.777   0.534   5.308  2.2911  0.9969 -0.4883
  165ccc     C9 4781  11.929   0.432   5.408  0.2715 -0.7622  0.4598
  165ccc     O4 4782  11.927   0.342   5.492  0.8696 -0.0424 -0.1123
  165ccc     O5 4783  12.016   0.430   5.320  0.3437 -0.1180  0.2463
  165ccc     O1 4784  11.446   1.015   5.692 -0.5487  0.0921 -0.3515
  166ccc     C3 4785  11.275   0.698   5.362  0.2111 -0.5678 -0.6678
  166ccc     H5 4786  11.260   0.661   5.260 -3.2595 -1.8049  0.1477
  166ccc     H6 4787  11.374   0.745   5.368 -0.5853  1.0571  0.8159
  166ccc     C2 4788  11.261   0.577   5.446  0.1855  0.1300 -0.1217
  166ccc     H3 4789  11.299   0.494   5.385 -0.0061  0.6055 -0.9072
  166ccc     H4 4790  11.159   0.553   5.478 -0.1876  1.8116  0.0571
  166ccc     C1 4791  11.343   0.598   5.569 -0.8578 -0.2677 -0.0797
  166ccc     H1 4792  11.284   0.660   5.638  2.6377  2.9880  0.3656
  166ccc     H2 4793  11.438   0.650   5.550 -0.5549 -1.1195 -0.9079
  166ccc     N1 4794  11.381   0.472   5.642 -0.7005  0.6558  0.6129
  166ccc     C4 4795  11.489   0.400   5.576  0.7661  0.1794  0.1061
  166ccc     H7 4796  11.586   0.431   5.616  1.0870 -0.2316 -0.3399
  166ccc     H8 4797  11.498   0.433   5.471 -0.2243  2.9503  0.8103
  166ccc     C5 4798  11.476   0.245   5.586  0.8745 -0.6332  0.8294
  166ccc     H9 4799  11.428   0.216   5.681 -1.0772 -1.3227 -0.3188
  166ccc    H10 4800  11.414   0.209   5.503 -0.6425  0.4491  1.4538
  166ccc     C6 4801  11.611   0.185   5.581  0.2858  0.1536  0.0253
  166ccc     O2 4802  11.649   0.142   5.475  0.6068  0.2978  0.6423
  166ccc     O3 4803  11.688   0.183   5.679 -0.0410 -0.0532 -0.5725
  166ccc     C7 4804  11.410   0.485   5.780  0.0255 -0.6255 -0.9708
  166ccc    H11 4805  11.459   0.396   5.821  0.2348 -0.9647 -1.9373
  166ccc    H12 4806  11.480   0.567   5.799 -0.7062 -0.1540 -0.2123
  166ccc     C8 4807  11.283   0.508   5.860 -0.0747 -0.0694 -0.2453
  166ccc    H13 4808  11.260   0.614   5.875 -0.5213 -0.0973 -0.7202
  166ccc    H14 4809  11.200   0.445   5.826  1.0253 -1.7019 -0.0526
  166ccc     C9 4810  11.307   0.454   5.998 -0.2041 -0.1120  0.0132
  166ccc     O4 4811  11.320   0.329   6.009  0.1609 -0.7597  0.7690
  166ccc     O5 4812  11.338   0.540   6.084  0.2046 -0.4259 -0.2068
  166ccc     O1 4813  11.178   0.802   5.396 -0.2712 -0.3321  0.2591
  167ccc     C3 4814  10.189   0.179   4.781  0.7747 -0.5618  0.0161
  167ccc     H5 4815  10.269   0.182   4.857  0.0730  1.6079  0.7369
  167ccc     H6 4816  10.151   0.076   4.777  3.3295 -1.5914 -0.0893
  167ccc     C2 4817  10.253   0.216   4.649 -0.3362  0.1373  0.1472
  167ccc     H3 4818  10.335   0.148   4.619 -1.0710 -0.1012 -1.4325
  167ccc     H4 4819  10.285   0.320   4.662  3.1829 -0.7810 -0.0201
  167ccc     C1 4820  10.157   0.204   4.525 -0.3400 -0.0665 -0.2955
  167ccc     H1 4821  10.186   0.289   4.462  0.7894  1.2599  1.8887
  167ccc     H2 4822  10.060   0.235   4.564  0.0698 -0.2345  0.9131
  167ccc     N1 4823  10.178   0.074   4.459 -0.0760  0.7633 -0.4748
  167ccc     C4 4824  10.158   0.071   4.312 -0.1916  0.2683 -0.1935
  167ccc     H7 4825  10.232   0.145   4.278  0.6348 -0.6469 -0.4316
  167ccc     H8 4826  10.050   0.090   4.300 -0.2940 -0.5881 -0.7480
  167ccc     C5 4827  10.201  -0.056   4.237 -0.2270 -0.4284  0.0780
  167ccc     H9 4828  10.308  -0.068   4.257 -0.0318 -1.0588 -1.2141
  167ccc    H10 4829  10.154  -0.149   4.272  2.3763 -2.1396 -0.6963
  167ccc     C6 4830  10.173  -0.062   4.095 -0.3358 -0.3831  0.2329
  167ccc     O2 4831  10.266  -0.034   4.018 -0.4916 -0.2857 -0.3807
  167ccc     O3 4832  10.059  -0.038   4.052  0.3116  0.3290  0.1754
  167ccc     C7 4833  10.137  -0.046   4.525  0.1798  0.0700 -0.2545
  167ccc    H11 4834  10.165  -0.142   4.481  2.2540  0.2996  0.4646
  167ccc    H12 4835  10.185  -0.045   4.623 -0.5143 -0.0398  0.0942
  167ccc     C8 4836   9.987  -0.052   4.542  0.2081  0.4870  0.5476
  167ccc    H13 4837   9.972  -0.097   4.641  0.0371 -0.4373  0.1117
  167ccc    H14 4838   9.944   0.048   4.527  1.1978  1.0340  1.2632
  167ccc     C9 4839   9.927  -0.146   4.447 -0.5931 -0.1526 -0.5813
  167ccc     O4 4840   9.905  -0.262   4.473  0.0049  0.1171  0.8163
  167ccc     O5 4841   9.883  -0.105   4.342 -0.0792  0.3238  0.4333
  167ccc     O1 4842  10.085   0.276   4.811 -0.1280  0.1662  0.1693
  168ccc     C3 4843   9.504   0.541   4.513 -0.1714  0.7060 -0.2043
  168ccc     H5 4844   9.406   0.586   4.492 -0.4699  0.0130 -0.2923
  168ccc     H6 4845   9.542   0.583   4.607 -0.5795 -0.0695  0.3188
  168ccc     C2 4846   9.583   0.559   4.379 -0.0863  0.4724 -0.4848
  168ccc     H3 4847   9.679   0.506   4.378  0.1131  0.7305  1.6655
  168ccc     H4 4848   9.608   0.666   4.382 -0.2290  0.5541  3.8109
  168ccc     C1 4849   9.512   0.509   4.250 -0.3182 -0.2940  0.3361
  168ccc     H1 4850   9.412   0.554   4.253 -1.2800 -2.2700 -0.2211
  168ccc     H2 4851   9.513   0.400   4.261  0.4524 -0.6363 -2.3240
  168ccc     N1 4852   9.586   0.544   4.130 -1.1703  0.3553 -0.3108
  168ccc     C4 4853   9.613   0.686   4.107  0.2807 -0.8590 -0.1855
  168ccc     H7 4854   9.658   0.696   4.007 -0.6306  2.5927 -0.3823
  168ccc     H8 4855   9.689   0.723   4.176  0.4085  0.5060 -1.0312
  168ccc     C5 4856   9.486   0.778   4.108 -0.1035  0.0291 -0.2850
  168ccc     H9 4857   9.430   0.769   4.014 -0.3211  2.4574 -0.4542
  168ccc    H10 4858   9.421   0.770   4.195  0.7512  3.0314  0.7486
  168ccc     C6 4859   9.550   0.914   4.115  1.2447 -0.3388 -0.5699
  168ccc     O2 4860   9.510   0.988   4.204  0.3307  0.2805  0.1330
  168ccc     O3 4861   9.602   0.959   4.016  0.4922 -0.0381  0.1509
  168ccc     C7 4862   9.705   0.467   4.103 -0.5116 -1.0700 -0.3748
  168ccc    H11 4863   9.760   0.516   4.021  0.7286 -0.5019  0.7533
  168ccc    H12 4864   9.770   0.485   4.189 -2.5721  2.9988  0.5881
  168ccc     C8 4865   9.668   0.326   4.069 -0.0279 -0.0567  0.8900
  168ccc    H13 4866   9.634   0.273   4.159  2.1489 -0.4003  1.5887
  168ccc    H14 4867   9.592   0.326   3.991  1.3217  1.4158 -0.4948
  168ccc     C9 4868   9.797   0.256   4.030 -1.0082 -0.3119  0.0124
  168ccc     O4 4869   9.848   0.159   4.088  0.9687 -0.4752 -0.1808
  168ccc     O5 4870   9.846   0.278   3.919 -0.1700  0.4753 -0.1249
  168ccc     O1 4871   9.471   0.400   4.537 -0.0743  0.2312  0.3310
  169ccc     C3 4872   9.197   0.049   3.782  0.1833 -1.0532  0.3133
  169ccc     H5 4873   9.119   0.104   3.728 -0.0952  0.3107  2.0116
  169ccc     H6 4874   9.281   0.117   3.802  0.7264 -1.4857 -0.4658
  169ccc     C2 4875   9.243  -0.078   3.710 -0.0244  0.6078 -0.5550
  169ccc     H3 4876   9.259  -0.053   3.605 -1.4346 -0.8343 -1.1660
  169ccc     H4 4877   9.152  -0.140   3.712 -1.8617  3.1616  1.1902
  169ccc     C1 4878   9.364  -0.154   3.775 -0.5631 -0.1806 -0.0128
  169ccc     H1 4879   9.400  -0.243   3.722  1.4121  0.3123  0.4105
  169ccc     H2 4880   9.320  -0.197   3.866  0.3975 -1.1787  0.0077
  169ccc     N1 4881   9.478  -0.061   3.805  0.8095  0.1092  0.0828
  169ccc     C4 4882   9.536   0.016   3.689 -0.1446  0.3365 -1.0782
  169ccc     H7 4883   9.455   0.034   3.617 -1.4561 -2.8045 -0.5325
  169ccc     H8 4884   9.608  -0.049   3.637 -0.5129 -1.2364  0.3011
  169ccc     C5 4885   9.587   0.153   3.730  0.1143 -0.6931  0.1691
  169ccc     H9 4886   9.508   0.226   3.752  2.5194  2.4784 -0.8129
  169ccc    H10 4887   9.656   0.135   3.814  1.2116 -0.1188 -0.5892
  169ccc     C6 4888   9.660   0.209   3.616  0.1966 -0.2568 -0.1153
  169ccc     O2 4889   9.647   0.167   3.502  0.4520 -0.4603 -0.0127
  169ccc     O3 4890   9.740   0.297   3.616 -0.1891  0.4130 -0.6173
  169ccc     C7 4891   9.578  -0.122   3.894 -1.0020 -0.6119 -0.1633
  169ccc    H11 4892   9.578  -0.231   3.885 -1.7965 -0.8584  2.1194
  169ccc    H12 4893   9.678  -0.084   3.868  0.6081 -2.4806  2.7616
  169ccc     C8 4894   9.546  -0.074   4.028  0.6710 -0.5261  0.0609
  169ccc    H13 4895   9.537   0.035   4.036  0.0294 -0.4687 -1.2062
  169ccc    H14 4896   9.445  -0.103   4.059  0.4605  0.9924  0.8831
  169ccc     C9 4897   9.627  -0.135   4.134 -0.2478  0.4162 -0.4345
  169ccc     O4 4898   9.744  -0.160   4.109  0.2272 -0.3511  0.1961
  169ccc     O5 4899   9.580  -0.157   4.245 -0.1655 -0.3112 -0.1283
  169ccc     O1 4900   9.149   0.021   3.914  0.2146 -0.2231  0.4545
  170ccc     C3 4901   9.058   0.603   3.742 -0.8114 -0.3842 -0.9973
  170ccc     H5 4902   9.003   0.518   3.784 -1.4212  0.3494 -0.2788
  170ccc     H6 4903   8.988   0.668   3.687  0.4949 -0.1319 -2.4187
  170ccc     C2 4904   9.158   0.553   3.643 -0.0675 -0.1067  0.5404
  170ccc     H3 4905   9.208   0.643   3.605  0.5061 -0.7776 -0.3222
  170ccc     H4 4906   9.090   0.517   3.565 -0.0776 -0.6456  0.7901
  170ccc     C1 4907   9.266   0.458   3.698  0.3882  0.1500 -0.3777
  170ccc     H1 4908   9.226   0.360   3.730 -0.5843  0.9094  0.8276
  170ccc     H2 4909   9.292   0.502   3.795 -1.3295  1.2811 -0.3919
  170ccc     N1 4910   9.383   0.434   3.617  0.6608  0.7236  0.9136
  170ccc     C4 4911   9.362   0.386   3.475  0.1203  0.6258 -0.1568
  170ccc     H7 4912   9.458   0.364   3.427  0.2347  1.9021 -0.5689
  170ccc     H8 4913   9.305   0.458   3.415 -0.8677  2.2056  2.5259
  170ccc     C5 4914   9.280   0.262   3.472 -0.4608 -0.3801  0.2572
  170ccc     H9 4915   9.336   0.193   3.537  0.1679  0.5956  0.7920
  170ccc    H10 4916   9.178   0.279   3.506 -0.8818  1.3560 -1.6496
  170ccc     C6 4917   9.278   0.224   3.328  0.7241  0.4816  0.0515
  170ccc     O2 4918   9.354   0.138   3.289  0.1543 -0.7698  0.1733
  170ccc     O3 4919   9.187   0.254   3.249 -0.6160 -0.1347 -0.1769
  170ccc     C7 4920   9.477   0.539   3.616  0.2509 -0.3757 -0.1018
  170ccc    H11 4921   9.565   0.511   3.556 -0.6706  0.8806 -2.1459
  170ccc    H12 4922   9.437   0.625   3.562  4.2082  1.4089 -0.4990
  170ccc     C8 4923   9.523   0.589   3.750  0.7464 -0.0190 -0.3212
  170ccc    H13 4924   9.449   0.645   3.809  2.6710  1.4818  0.8003
  170ccc    H14 4925   9.550   0.500   3.807  0.4355  0.2413  0.2369
  170ccc     C9 4926   9.647   0.671   3.752  0.0756  0.1331  0.4866
  170ccc     O4 4927   9.750   0.601   3.749  0.2495 -0.0937 -0.8243
  170ccc     O5 4928   9.649   0.792   3.737  0.5221  0.5275  0.8564
  170ccc     O1 4929   9.120   0.681   3.851  0.1381 -0.3428 -0.0227
  171ccc     C3 4930   9.889   1.872   5.074  0.8315 -0.6734  0.3786
  171ccc     H5 4931   9.938   1.970   5.078  2.6874 -1.6091  2.2092
  171ccc     H6 4932   9.782   1.877   5.099  0.8950  2.1753  0.4914
  171ccc     C2 4933   9.966   1.779   5.172  1.0228  0.1626 -0.5029
  171ccc     H3 4934   9.950   1.834   5.265 -0.9990  0.6082 -1.0550
  171ccc     H4 4935  10.071   1.775   5.143  0.6326 -2.3586 -1.7901
  171ccc     C1 4936   9.918   1.634   5.188  0.4668 -0.1330  0.0094
  171ccc     H1 4937  10.004   1.572   5.214 -1.1148 -2.1417  0.7534
  171ccc     H2 4938   9.892   1.596   5.088  1.5135 -0.3374 -0.2000
  171ccc     N1 4939   9.815   1.620   5.291  0.0202  1.2440 -0.5301
  171ccc     C4 4940   9.891   1.614   5.425  0.3852 -0.2704  0.7169
  171ccc     H7 4941   9.966   1.694   5.427 -0.5817  0.9156 -2.7706
  171ccc     H8 4942   9.938   1.517   5.445  2.0560 -0.0155 -1.6132
  171ccc     C5 4943   9.802   1.652   5.546 -0.2976 -0.0524 -0.5765
  171ccc     H9 4944   9.717   1.582   5.554  0.5261 -0.9970  0.2572
  171ccc    H10 4945   9.851   1.650   5.644 -3.9792 -0.7887  1.4398
  171ccc     C6 4946   9.752   1.796   5.528 -0.4360 -0.1784  0.2217
  171ccc     O2 4947   9.824   1.879   5.586  0.4669 -0.1760 -0.0878
  171ccc     O3 4948   9.633   1.820   5.513  0.6618  0.1155 -0.2873
  171ccc     C7 4949   9.723   1.499   5.264 -1.0876 -0.4320  1.2498
  171ccc    H11 4950   9.784   1.409   5.258  1.6608  1.3622  0.6292
  171ccc    H12 4951   9.660   1.486   5.353 -1.4977  1.3999  1.2793
  171ccc     C8 4952   9.627   1.523   5.142 -0.6580  0.6405  0.3110
  171ccc    H13 4953   9.683   1.529   5.048  1.6462 -1.7492  1.3971
  171ccc    H14 4954   9.572   1.432   5.116  0.0299  0.0772  0.7641
  171ccc     C9 4955   9.540   1.647   5.148 -0.1324 -0.3086 -0.2197
  171ccc     O4 4956   9.491   1.698   5.247 -0.0982 -0.3469  0.3756
  171ccc     O5 4957   9.484   1.684   5.042 -0.4609  0.1896 -0.5404
  171ccc     O1 4958   9.907   1.820   4.946 -0.2138 -0.4838  0.2652
  172ccc     C3 4959   9.578   1.752   4.091  0.4913  0.2547  0.3156
  172ccc     H5 4960   9.475   1.790   4.091 -0.1906 -1.4851 -0.1180
  172ccc     H6 4961   9.650   1.832   4.070  1.1423 -0.2448  0.6198
  172ccc     C2 4962   9.565   1.646   3.983 -0.6673 -0.2401 -0.2909
  172ccc     H3 4963   9.461   1.628   3.954 -1.3681  2.3289  0.3899
  172ccc     H4 4964   9.602   1.545   4.007  0.0724 -0.1036 -0.8253
  172ccc     C1 4965   9.650   1.706   3.862 -0.3684 -0.1419  0.6870
  172ccc     H1 4966   9.754   1.728   3.890  0.0084 -1.9469  0.8184
  172ccc     H2 4967   9.594   1.794   3.828 -0.6734 -0.9843 -1.1022
  172ccc     N1 4968   9.666   1.616   3.741 -0.5430  0.6000  0.6128
  172ccc     C4 4969   9.747   1.681   3.634 -0.1221  0.5992  0.6304
  172ccc     H7 4970   9.756   1.616   3.546  0.9318  2.7161 -0.9057
  172ccc     H8 4971   9.850   1.705   3.661 -0.1712  0.6801  0.7470
  172ccc     C5 4972   9.688   1.806   3.573  0.0438  0.9013 -0.1299
  172ccc     H9 4973   9.583   1.795   3.543 -0.1066 -0.9941  0.9814
  172ccc    H10 4974   9.696   1.894   3.639 -2.1726  1.1095 -0.0765
  172ccc     C6 4975   9.760   1.835   3.448 -0.9916  0.0598  0.0440
  172ccc     O2 4976   9.758   1.764   3.346 -0.4387  0.5600  0.0297
  172ccc     O3 4977   9.803   1.949   3.435  0.1460  0.1528 -0.4044
  172ccc     C7 4978   9.714   1.479   3.766 -0.0394 -0.1041 -0.4099
  172ccc    H11 4979   9.796   1.452   3.700 -0.5131 -1.5343 -0.4559
  172ccc    H12 4980   9.752   1.471   3.869 -0.1354  1.4134 -0.2339
  172ccc     C8 4981   9.606   1.380   3.754  1.3114  0.3888  0.5065
  172ccc    H13 4982   9.518   1.403   3.816  1.8906  0.8499  1.1660
  172ccc    H14 4983   9.581   1.364   3.648  2.2613 -0.3569  0.3900
  172ccc     C9 4984   9.643   1.245   3.811 -0.1564 -0.2396 -0.1388
  172ccc     O4 4985   9.681   1.244   3.930  0.1537 -0.1232  0.9049
  172ccc     O5 4986   9.697   1.158   3.751  0.0743  0.0027 -0.2484
  172ccc     O1 4987   9.623   1.686   4.217  0.7437 -0.4800 -0.5693
  173ccc     C3 4988  10.665   0.130   4.800 -0.9464  0.1326  0.5631
  173ccc     H5 4989  10.727   0.125   4.890 -0.7115 -0.0802  0.3909
  173ccc     H6 4990  10.606   0.037   4.798 -0.8097  0.0041 -2.1466
  173ccc     C2 4991  10.770   0.131   4.682 -0.1733 -0.4830  0.6436
  173ccc     H3 4992  10.841   0.048   4.697  1.0580 -0.1487 -2.4129
  173ccc     H4 4993  10.846   0.208   4.698  2.2362 -2.6513  0.4099
  173ccc     C1 4994  10.727   0.149   4.538 -0.2994 -0.4617 -0.5321
  173ccc     H1 4995  10.818   0.136   4.479 -0.6045 -1.3964 -0.8275
  173ccc     H2 4996  10.683   0.249   4.528 -0.3119 -0.0406  2.6852
  173ccc     N1 4997  10.632   0.051   4.484  0.1253  0.0920 -0.2714
  173ccc     C4 4998  10.577   0.090   4.356  0.5222 -0.3333  0.3567
  173ccc     H7 4999  10.531   0.188   4.372 -1.5591 -1.6080  3.0570
  173ccc     H8 5000  10.487   0.036   4.323 -0.9809  1.6648  0.9967
  173ccc     C5 5001  10.663   0.079   4.230  0.1856 -0.2782 -0.6528
  173ccc     H9 5002  10.735   0.163   4.230 -0.9739  0.7810  0.9254
  173ccc    H10 5003  10.715  -0.015   4.208  2.4256  0.8650 -0.5733
  173ccc     C6 5004  10.575   0.111   4.113 -0.2713  0.5361  0.3471
  173ccc     O2 5005  10.514   0.211   4.122 -0.5839 -0.7905  0.7461
  173ccc     O3 5006  10.560   0.044   4.008 -0.2559  0.3838  0.4387
  173ccc     C7 5007  10.656  -0.092   4.505 -0.4968  0.5303 -0.1474
  173ccc    H11 5008  10.715  -0.138   4.424  2.0573  0.1179  1.8056
  173ccc    H12 5009  10.716  -0.108   4.595 -2.1805 -0.9110  0.7830
  173ccc     C8 5010  10.516  -0.162   4.526  0.3702  0.3888 -0.0173
  173ccc    H13 5011  10.443  -0.128   4.601  0.2962  0.5515 -0.1630
  173ccc    H14 5012  10.464  -0.167   4.430 -1.0249 -0.0491  0.7410
  173ccc     C9 5013  10.542  -0.302   4.571  0.1324  0.4544  0.2316
  173ccc     O4 5014  10.629  -0.323   4.654  0.3168  0.2201  0.0667
  173ccc     O5 5015  10.457  -0.390   4.547  0.1791 -0.2787 -0.4141
  173ccc     O1 5016  10.589   0.251   4.795 -0.1021  0.2151  0.4345
  174ccc     C3 5017   9.906   0.552   4.597 -0.0651  0.1069 -0.2287
  174ccc     H5 5018   9.886   0.455   4.644 -0.7332 -0.0176 -0.7376
  174ccc     H6 5019   9.811   0.607   4.594 -1.8857 -2.8062 -2.7094
  174ccc     C2 5020   9.969   0.528   4.460  0.4014 -0.6221 -0.1969
  174ccc     H3 5021   9.909   0.456   4.404  0.2972 -1.6399  1.1696
  174ccc     H4 5022  10.067   0.480   4.477  0.3945 -0.6831 -0.3267
  174ccc     C1 5023   9.975   0.670   4.386  0.5912  0.2149  1.0715
  174ccc     H1 5024  10.056   0.725   4.437  0.8298  0.1773  0.7403
  174ccc     H2 5025   9.893   0.737   4.414  1.5228  1.6165  0.5656
  174ccc     N1 5026  10.004   0.668   4.238 -0.3721 -0.3167 -0.1583
  174ccc     C4 5027   9.996   0.804   4.177  0.4080  0.1731 -0.9337
  174ccc     H7 5028  10.085   0.861   4.206  2.5938 -3.6022  0.5301
  174ccc     H8 5029   9.910   0.849   4.228  0.4286 -0.9604  0.1514
  174ccc     C5 5030   9.965   0.795   4.026 -0.0914 -0.2222 -0.6608
  174ccc     H9 5031  10.059   0.763   3.979  0.2035  0.9784 -0.9269
  174ccc    H10 5032   9.891   0.716   4.004  0.7383 -0.8228 -1.3430
  174ccc     C6 5033   9.930   0.925   3.962  0.3128  0.1234 -0.0279
  174ccc     O2 5034  10.007   1.018   3.964  0.0303 -0.4713 -0.3170
  174ccc     O3 5035   9.856   0.925   3.864  0.2862 -0.4054 -0.0597
  174ccc     C7 5036  10.116   0.579   4.202 -0.2206 -0.5181 -0.1539
  174ccc    H11 5037  10.183   0.639   4.141  1.2025 -1.4657  0.4230
  174ccc    H12 5038  10.167   0.548   4.294  0.8197  0.3028 -0.4466
  174ccc     C8 5039  10.072   0.459   4.120  0.0159  0.2935  0.1117
  174ccc    H13 5040  10.012   0.394   4.185  0.6841  0.3825  0.8285
  174ccc    H14 5041  10.014   0.490   4.032 -2.1252 -1.0707  0.9789
  174ccc     C9 5042  10.183   0.368   4.077  0.0981 -0.0014  0.1377
  174ccc     O4 5043  10.151   0.256   4.042 -0.4312 -0.0049  0.0352
  174ccc     O5 5044  10.296   0.400   4.089  0.1527 -0.7494  0.1225
  174ccc     O1 5045  10.009   0.619   4.680 -0.6645  0.0605  0.9342
  175ccc     C3 5046   9.716   0.579   8.604 -0.2326 -0.0161  0.2765
  175ccc     H5 5047   9.767   0.657   8.663  0.3204 -0.5235  0.4925
  175ccc     H6 5048   9.613   0.559   8.636 -0.4654 -2.3089 -1.6878
  175ccc     C2 5049   9.804   0.455   8.605 -0.2675 -0.1728  0.3900
  175ccc     H3 5050   9.911   0.475   8.591  0.0283  0.2382  2.6998
  175ccc     H4 5051   9.779   0.376   8.533  0.6789  0.5159 -0.7233
  175ccc     C1 5052   9.792   0.383   8.742 -0.7000 -0.0369 -0.5153
  175ccc     H1 5053   9.689   0.380   8.781 -0.5797  1.0061 -0.0884
  175ccc     H2 5054   9.843   0.442   8.819 -2.5152 -0.5486  1.1696
  175ccc     N1 5055   9.843   0.249   8.756 -0.1624  0.3205  0.8397
  175ccc     C4 5056   9.766   0.144   8.682  0.6962  0.1028 -0.5904
  175ccc     H7 5057   9.812   0.050   8.712 -1.7462 -1.2591 -0.8169
  175ccc     H8 5058   9.778   0.147   8.573 -0.6347 -0.3096 -0.7677
  175ccc     C5 5059   9.615   0.145   8.707  0.9316  0.8454 -0.1325
  175ccc     H9 5060   9.572   0.240   8.673 -1.9620  0.2855  1.6623
  175ccc    H10 5061   9.563   0.069   8.647 -0.1355  1.4505 -0.0020
  175ccc     C6 5062   9.576   0.115   8.845  0.0831  0.1037 -0.7000
  175ccc     O2 5063   9.604   0.009   8.905  0.2147  0.8046  0.0896
  175ccc     O3 5064   9.492   0.178   8.903 -0.1787 -0.3303  0.4680
  175ccc     C7 5065   9.986   0.235   8.731  0.2571  0.2565 -0.2104
  175ccc    H11 5066  10.008   0.234   8.624  1.1762 -2.6991 -0.0754
  175ccc    H12 5067  10.035   0.326   8.767  2.1494 -0.3712 -1.0725
  175ccc     C8 5068  10.047   0.118   8.790  0.2140  0.3826 -0.1660
  175ccc    H13 5069  10.016   0.026   8.739  0.9728  1.1315 -2.0821
  175ccc    H14 5070  10.156   0.132   8.785  0.2880 -0.1409 -0.0192
  175ccc     C9 5071  10.010   0.084   8.935 -0.6686 -0.3651 -0.2306
  175ccc     O4 5072  10.091   0.114   9.022  0.0081  0.2381 -0.3065
  175ccc     O5 5073   9.924   0.008   8.971  0.7269 -0.0782  0.3102
  175ccc     O1 5074   9.702   0.633   8.473  0.0124  0.3254  0.1011
  176ccc     C3 5075  10.019   1.254   8.392 -0.0569  0.0800 -0.6855
  176ccc     H5 5076  10.026   1.329   8.471  1.9740 -2.3053  1.5941
  176ccc     H6 5077  10.028   1.152   8.433 -2.5555 -0.7713 -2.0493
  176ccc     C2 5078  10.121   1.288   8.278  0.3031 -0.0371 -0.5833
  176ccc     H3 5079  10.220   1.275   8.322  0.1698  1.2743  0.1666
  176ccc     H4 5080  10.122   1.395   8.254 -1.4131 -0.0027 -0.6754
  176ccc     C1 5081  10.106   1.195   8.158  0.7291  0.4751  0.2918
  176ccc     H1 5082  10.010   1.207   8.107 -0.1864 -1.2133  1.5393
  176ccc     H2 5083  10.097   1.092   8.192 -1.0608 -0.0092 -1.4615
  176ccc     N1 5084  10.215   1.209   8.060 -0.4623 -0.4419  0.0659
  176ccc     C4 5085  10.229   1.341   7.995 -0.6081  0.9566  0.4658
  176ccc     H7 5086  10.314   1.338   7.925 -2.0751  0.2734 -1.3565
  176ccc     H8 5087  10.253   1.414   8.073 -0.3179 -0.1934  1.4827
  176ccc     C5 5088  10.112   1.388   7.918  0.6193 -0.7996  0.1262
  176ccc     H9 5089  10.095   1.317   7.836  0.0752 -1.8354  1.1129
  176ccc    H10 5090  10.016   1.387   7.969  0.1697 -0.0971 -0.6779
  176ccc     C6 5091  10.128   1.525   7.862 -0.5832 -0.0695 -0.2789
  176ccc     O2 5092  10.068   1.617   7.920  0.0005  0.8032  0.1123
  176ccc     O3 5093  10.171   1.547   7.754 -0.4251 -0.3265  0.2348
  176ccc     C7 5094  10.342   1.152   8.107  0.4699  0.0564  0.6411
  176ccc    H11 5095  10.406   1.135   8.020 -1.8326 -0.0233 -1.1468
  176ccc    H12 5096  10.386   1.217   8.184  0.9973  0.8587 -0.3084
  176ccc     C8 5097  10.321   1.003   8.163 -0.0745 -0.2431  0.1768
  176ccc    H13 5098  10.270   0.992   8.259 -0.0218  1.2022  0.3997
  176ccc    H14 5099  10.273   0.949   8.081  0.1844 -0.1461 -0.0395
  176ccc     C9 5100  10.452   0.940   8.176 -0.6473  0.7157  0.2031
  176ccc     O4 5101  10.534   0.987   8.255 -0.1213 -0.1272 -0.2033
  176ccc     O5 5102  10.462   0.818   8.170  0.0798  0.2576 -0.5616
  176ccc     O1 5103   9.889   1.251   8.334 -0.2921 -0.4986 -0.1014
  177ccc     C3 5104  10.048   0.719   7.466 -0.4378 -0.6130  0.0292
  177ccc     H5 5105   9.996   0.766   7.551  0.5474  0.0652  0.2778
  177ccc     H6 5106  10.011   0.616   7.457  0.5161 -0.9476 -0.1617
  177ccc     C2 5107  10.200   0.729   7.491 -0.6085 -0.4133 -0.0181
  177ccc     H3 5108  10.246   0.710   7.394  0.2253  0.6771  0.1491
  177ccc     H4 5109  10.223   0.644   7.558 -2.1762  0.0608  1.1798
  177ccc     C1 5110  10.236   0.870   7.550 -0.4953  0.0106  0.6855
  177ccc     H1 5111  10.189   0.877   7.649 -1.0985  0.1351  0.4021
  177ccc     H2 5112  10.191   0.948   7.487 -0.8438 -0.6028  0.1572
  177ccc     N1 5113  10.383   0.881   7.578  0.3175 -0.0852 -0.2316
  177ccc     C4 5114  10.421   1.018   7.594 -0.1461 -0.0001  0.4478
  177ccc     H7 5115  10.377   1.081   7.516  0.1805  0.7009  0.8220
  177ccc     H8 5116  10.527   1.026   7.567 -0.7684  2.0548 -1.7843
  177ccc     C5 5117  10.403   1.070   7.730  0.1810 -0.4188 -0.4626
  177ccc     H9 5118  10.303   1.107   7.753 -0.1162 -2.0058  1.0083
  177ccc    H10 5119  10.426   0.999   7.810 -0.1315  1.3886  1.3273
  177ccc     C6 5120  10.495   1.187   7.747 -0.2412  0.1532 -0.4246
  177ccc     O2 5121  10.609   1.176   7.780  0.2668 -0.0916 -0.3589
  177ccc     O3 5122  10.469   1.286   7.687 -0.3992 -0.9017 -0.7489
  177ccc     C7 5123  10.443   0.775   7.658 -0.2478  0.7043  0.4100
  177ccc    H11 5124  10.397   0.768   7.758  1.5854 -0.1861  1.2460
  177ccc    H12 5125  10.428   0.678   7.609  1.5905  0.3780  0.4154
  177ccc     C8 5126  10.598   0.790   7.680  0.2374  0.0978 -0.2625
  177ccc    H13 5127  10.655   0.778   7.587 -0.5716 -0.1556 -0.7333
  177ccc    H14 5128  10.634   0.886   7.720  2.4350 -1.2632  1.2482
  177ccc     C9 5129  10.654   0.696   7.783 -0.0829  0.2713  0.3713
  177ccc     O4 5130  10.744   0.619   7.751  0.1182  0.2685  0.1914
  177ccc     O5 5131  10.628   0.725   7.898  0.1985 -0.4468  0.5385
  177ccc     O1 5132  10.028   0.792   7.342  0.5295 -0.3465 -0.5263
  178ccc     C3 5133   9.701   1.595   7.382  0.5472  0.4887 -0.6131
  178ccc     H5 5134   9.680   1.566   7.279 -0.5552  0.5275 -0.4157
  178ccc     H6 5135   9.604   1.573   7.429  0.2395  1.4494 -0.7672
  178ccc     C2 5136   9.746   1.744   7.397 -0.2053  0.0651 -0.9282
  178ccc     H3 5137   9.779   1.759   7.500 -0.5765  1.2367 -0.9668
  178ccc     H4 5138   9.658   1.809   7.399  0.1319  0.5835  2.2374
  178ccc     C1 5139   9.862   1.781   7.296  0.4354  0.1270 -0.4049
  178ccc     H1 5140   9.821   1.754   7.197  1.4030  2.0032 -1.3698
  178ccc     H2 5141   9.946   1.712   7.306  0.3780  0.0594 -0.3906
  178ccc     N1 5142   9.908   1.921   7.301 -0.4533  0.1340 -0.5192
  178ccc     C4 5143   9.802   2.030   7.293  0.3879 -0.0381  0.0345
  178ccc     H7 5144   9.754   2.036   7.391  1.6668  0.8518  0.6274
  178ccc     H8 5145   9.728   1.997   7.219  2.1920 -0.1009 -1.8401
  178ccc     C5 5146   9.848   2.166   7.251  0.1985 -0.4529 -0.2146
  178ccc     H9 5147   9.940   2.205   7.296 -0.3528 -0.1769  0.7088
  178ccc    H10 5148   9.856   2.165   7.141 -0.8909  1.4328 -0.3597
  178ccc     C6 5149   9.749   2.276   7.288 -0.4084  0.1991 -0.4425
  178ccc     O2 5150   9.650   2.284   7.221  0.2399  0.1932  0.1297
  178ccc     O3 5151   9.752   2.334   7.395 -0.3843  0.6039  0.3666
  178ccc     C7 5152   9.990   1.943   7.425 -0.2312  0.2218 -0.2836
  178ccc    H11 5153   9.996   2.051   7.442 -0.5695  0.1934  0.0334
  178ccc    H12 5154   9.958   1.898   7.519  2.5998  0.3314  0.8312
  178ccc     C8 5155  10.125   1.891   7.411 -0.4204  0.4316  0.3006
  178ccc    H13 5156  10.118   1.784   7.388  2.6542  0.3193 -0.4756
  178ccc    H14 5157  10.185   1.943   7.336  2.6826 -1.6448  1.1688
  178ccc     C9 5158  10.190   1.897   7.548  0.2739  0.2222 -0.8010
  178ccc     O4 5159  10.221   2.000   7.602 -0.4344 -0.4176  0.5538
  178ccc     O5 5160  10.164   1.813   7.633 -0.2324 -0.2667 -0.0714
  178ccc     O1 5161   9.802   1.514   7.441  0.0382 -0.1916 -0.5086
  179ccc     C3 5162   7.543  -0.116   6.853  0.0796 -0.2488  0.2471
  179ccc     H5 5163   7.482  -0.207   6.864 -1.6073  0.7323 -0.5803
  179ccc     H6 5164   7.608  -0.113   6.765  1.3651 -0.3422  1.1687
  179ccc     C2 5165   7.642  -0.109   6.965  0.4253 -0.3291 -0.1459
  179ccc     H3 5166   7.703  -0.020   6.943 -0.6725  0.8282  1.2632
  179ccc     H4 5167   7.697  -0.203   6.959  0.4177 -0.2604 -3.9441
  179ccc     C1 5168   7.574  -0.083   7.103 -0.4934 -0.3599 -0.1602
  179ccc     H1 5169   7.499  -0.162   7.119 -3.0314  2.2668  2.0727
  179ccc     H2 5170   7.512   0.007   7.098  1.5792  1.1153 -0.4226
  179ccc     N1 5171   7.669  -0.082   7.209 -0.1843 -0.0087  0.3155
  179ccc     C4 5172   7.765  -0.192   7.217  0.2423  0.0115  0.0861
  179ccc     H7 5173   7.814  -0.217   7.122  1.4192 -0.4554  0.8006
  179ccc     H8 5174   7.708  -0.277   7.256 -0.8374  1.2709  1.3521
  179ccc     C5 5175   7.877  -0.170   7.314 -0.2129  0.0474  0.3019
  179ccc     H9 5176   7.943  -0.090   7.279  1.4019 -1.8896 -1.3616
  179ccc    H10 5177   7.837  -0.137   7.410  0.8118  2.3674 -0.0183
  179ccc     C6 5178   7.965  -0.296   7.322 -0.4541  0.0730  0.4667
  179ccc     O2 5179   8.043  -0.321   7.225  0.5742 -0.0215  0.0826
  179ccc     O3 5180   7.956  -0.376   7.416 -0.7188 -0.2043  0.5399
  179ccc     C7 5181   7.604  -0.033   7.337 -0.9629  0.6488  0.0845
  179ccc    H11 5182   7.679  -0.001   7.411 -1.1979 -0.3089  0.7511
  179ccc    H12 5183   7.547   0.059   7.318 -0.2260  0.8934 -1.0793
  179ccc     C8 5184   7.516  -0.137   7.405  0.3081 -0.4893  0.0227
  179ccc    H13 5185   7.423  -0.150   7.349 -1.2189  2.4539  1.6215
  179ccc    H14 5186   7.570  -0.230   7.427 -1.0508 -1.1288  0.7497
  179ccc     C9 5187   7.480  -0.079   7.542 -0.6091 -0.1286  0.1420
  179ccc     O4 5188   7.368  -0.042   7.557 -0.7985 -0.1160  0.3169
  179ccc     O5 5189   7.540  -0.129   7.636  0.0408 -0.3782 -0.0260
  179ccc     O1 5190   7.466   0.007   6.853 -0.2793 -0.7453 -0.1493
  180ccc     C3 5191   7.380   0.106   6.096 -0.3331  0.5449  0.0492
  180ccc     H5 5192   7.402   0.007   6.056 -2.4610  0.9526 -2.4078
  180ccc     H6 5193   7.277   0.130   6.066 -2.0963 -1.0505  4.1282
  180ccc     C2 5194   7.469   0.221   6.039  0.1089 -0.0633 -0.0924
  180ccc     H3 5195   7.470   0.207   5.930  1.5765 -2.3531  0.1465
  180ccc     H4 5196   7.570   0.191   6.070 -0.1221  0.8943  1.7250
  180ccc     C1 5197   7.446   0.367   6.096 -0.4118  1.0329 -0.0350
  180ccc     H1 5198   7.498   0.376   6.192  0.4438  0.1017 -0.3918
  180ccc     H2 5199   7.338   0.378   6.108 -0.7063 -0.5900 -0.9114
  180ccc     N1 5200   7.487   0.475   6.008 -0.0915 -0.3216  0.0155
  180ccc     C4 5201   7.632   0.481   5.982  0.1229  0.6725 -0.4402
  180ccc     H7 5202   7.663   0.377   6.000 -2.3530  0.3362  2.7447
  180ccc     H8 5203   7.692   0.550   6.042  1.0273 -1.2169  0.9056
  180ccc     C5 5204   7.653   0.511   5.836 -0.1182  0.3778 -0.1876
  180ccc     H9 5205   7.595   0.451   5.764  0.4382 -0.0935 -0.2486
  180ccc    H10 5206   7.623   0.616   5.820  1.6227  0.7006 -1.6457
  180ccc     C6 5207   7.801   0.485   5.815  0.3162  0.4958 -0.2237
  180ccc     O2 5208   7.843   0.377   5.770  0.3189  0.1756  0.7180
  180ccc     O3 5209   7.885   0.572   5.830  0.3137  0.0784 -0.3099
  180ccc     C7 5210   7.441   0.611   6.047 -0.1156  0.0514  0.3548
  180ccc    H11 5211   7.461   0.631   6.153  0.6366  0.5900  0.1246
  180ccc    H12 5212   7.501   0.682   5.990 -0.5566  0.1687  0.0379
  180ccc     C8 5213   7.296   0.647   6.010  0.1573 -0.1027 -0.9524
  180ccc    H13 5214   7.265   0.621   5.908 -1.2433 -0.5611 -0.4447
  180ccc    H14 5215   7.241   0.568   6.063  0.5634 -0.5595 -1.2056
  180ccc     C9 5216   7.246   0.780   6.047  0.7156 -0.4479  0.0575
  180ccc     O4 5217   7.135   0.818   6.020  0.4542 -0.2798 -0.1850
  180ccc     O5 5218   7.323   0.861   6.099 -0.4791 -0.4104 -0.8065
  180ccc     O1 5219   7.389   0.119   6.240 -0.1292 -0.3109  0.2023
  181ccc     C3 5220   8.274   0.419   7.719 -0.3483 -0.3817  0.0024
  181ccc     H5 5221   8.375   0.441   7.754 -0.2004 -0.8735 -0.1086
  181ccc     H6 5222   8.212   0.508   7.734  1.5651  0.8944  0.6548
  181ccc     C2 5223   8.217   0.301   7.801  0.6434  0.0775 -0.4724
  181ccc     H3 5224   8.110   0.298   7.779  0.9369  3.0015 -3.0125
  181ccc     H4 5225   8.231   0.322   7.908  0.8912 -3.2421  0.2587
  181ccc     C1 5226   8.280   0.172   7.747  0.8069  0.3489 -0.2532
  181ccc     H1 5227   8.387   0.195   7.741  0.8991 -0.1448 -0.5208
  181ccc     H2 5228   8.232   0.150   7.651  0.6986  0.4018 -0.2122
  181ccc     N1 5229   8.257   0.062   7.842  0.1585  0.5667 -0.6483
  181ccc     C4 5230   8.370  -0.007   7.904  0.1744 -0.9807  0.7403
  181ccc     H7 5231   8.428  -0.049   7.821 -1.3113 -0.0118 -0.8401
  181ccc     H8 5232   8.332  -0.079   7.977 -1.3482 -0.0969  0.8533
  181ccc     C5 5233   8.452   0.101   7.981 -0.2752  0.5390 -0.1194
  181ccc     H9 5234   8.487   0.186   7.921 -0.6724 -0.8025 -2.3812
  181ccc    H10 5235   8.391   0.144   8.061 -2.7946 -1.5398 -0.8322
  181ccc     C6 5236   8.574   0.036   8.035  0.0964 -0.0320 -0.4991
  181ccc     O2 5237   8.560  -0.023   8.143  0.2985  0.4695  0.1587
  181ccc     O3 5238   8.679   0.099   8.036  0.4997 -0.4341  0.1979
  181ccc     C7 5239   8.157  -0.041   7.801 -0.7911 -0.3295  0.0396
  181ccc    H11 5240   8.184  -0.095   7.709  0.7428 -3.3977  2.1054
  181ccc    H12 5241   8.135  -0.111   7.882 -0.2990 -1.0921 -0.4716
  181ccc     C8 5242   8.022   0.029   7.772 -0.1576  0.2335 -0.1554
  181ccc    H13 5243   7.997   0.095   7.856  2.3120  1.5312 -0.3293
  181ccc    H14 5244   8.014   0.089   7.681 -0.1807 -1.1442 -1.0942
  181ccc     C9 5245   7.912  -0.078   7.774 -0.3417 -0.5145  0.7842
  181ccc     O4 5246   7.915  -0.174   7.698 -0.4149  0.0369  0.6128
  181ccc     O5 5247   7.809  -0.057   7.837  0.7055 -0.3171 -0.2140
  181ccc     O1 5248   8.291   0.389   7.583 -0.4137 -0.2010 -0.2216
  182ccc     C3 5249   8.729  -0.100   7.288  0.0081  0.3434 -0.2514
  182ccc     H5 5250   8.717  -0.133   7.184 -1.2595  1.4591 -0.4839
  182ccc     H6 5251   8.832  -0.128   7.314  0.1634 -0.0272 -1.2248
  182ccc     C2 5252   8.644  -0.186   7.386 -0.0610  0.4104 -0.0926
  182ccc     H3 5253   8.671  -0.291   7.368  0.0410  0.2737  0.8167
  182ccc     H4 5254   8.538  -0.180   7.358 -0.2380  1.3313  0.7296
  182ccc     C1 5255   8.671  -0.160   7.529  0.9575 -0.0844 -0.1652
  182ccc     H1 5256   8.658  -0.052   7.543 -0.6638 -0.4780  1.8292
  182ccc     H2 5257   8.779  -0.182   7.537  1.3344  1.4373 -0.8103
  182ccc     N1 5258   8.591  -0.233   7.630  0.5045  0.1764 -1.2829
  182ccc     C4 5259   8.638  -0.186   7.757 -0.0985 -0.1920  0.3564
  182ccc     H7 5260   8.560  -0.196   7.834 -1.9368 -0.1956 -1.4348
  182ccc     H8 5261   8.668  -0.081   7.746  0.2744 -0.4365 -1.1815
  182ccc     C5 5262   8.758  -0.267   7.803  0.2923 -0.2747 -0.0532
  182ccc     H9 5263   8.714  -0.367   7.804 -0.9928  0.2362 -1.4919
  182ccc    H10 5264   8.839  -0.257   7.730  0.1300  1.6357 -0.0325
  182ccc     C6 5265   8.809  -0.217   7.932  0.6232  0.1292  0.2182
  182ccc     O2 5266   8.880  -0.117   7.939  0.4877 -0.2273 -0.3791
  182ccc     O3 5267   8.777  -0.270   8.037 -0.4748  0.1741 -0.5501
  182ccc     C7 5268   8.445  -0.248   7.608  0.2496  0.3779  0.3926
  182ccc    H11 5269   8.389  -0.155   7.626  0.4314  0.9644 -1.7883
  182ccc    H12 5270   8.432  -0.277   7.503 -1.3671  1.4723  0.2608
  182ccc     C8 5271   8.385  -0.356   7.699  0.2135 -0.1672 -0.1549
  182ccc    H13 5272   8.421  -0.459   7.685  1.3428  0.1636  0.2047
  182ccc    H14 5273   8.388  -0.320   7.802 -0.7447 -0.9583  0.1746
  182ccc     C9 5274   8.240  -0.381   7.666  0.3912 -0.2971  0.2051
  182ccc     O4 5275   8.197  -0.364   7.550 -0.5081  0.3422 -0.3625
  182ccc     O5 5276   8.160  -0.405   7.758 -0.0048 -0.3042 -0.0937
  182ccc     O1 5277   8.699   0.042   7.298  0.5672  0.0508  0.1698
  183ccc     C3 5278   8.835   2.723   8.538  0.4802  0.2090 -0.1242
  183ccc     H5 5279   8.929   2.763   8.498  1.0439 -0.9956 -0.0573
  183ccc     H6 5280   8.773   2.796   8.591  0.2226 -0.2126  0.1555
  183ccc     C2 5281   8.873   2.626   8.648 -0.8736  0.2872  0.2121
  183ccc     H3 5282   8.948   2.558   8.605 -0.2094  0.4944  1.0075
  183ccc     H4 5283   8.784   2.568   8.674 -2.0287  1.8385 -0.1719
  183ccc     C1 5284   8.920   2.688   8.777 -0.6886  0.5493  0.2506
  183ccc     H1 5285   8.960   2.607   8.840 -1.2984  0.9854  1.2253
  183ccc     H2 5286   8.837   2.724   8.839 -0.0139  1.2293  0.7722
  183ccc     N1 5287   9.009   2.806   8.751 -0.1261 -0.0721 -0.5379
  183ccc     C4 5288   9.138   2.771   8.681  0.9102  0.5966 -0.1449
  183ccc     H7 5289   9.123   2.691   8.608  3.0276 -0.0984  0.1015
  183ccc     H8 5290   9.213   2.744   8.757 -2.6730 -3.9507  2.2872
  183ccc     C5 5291   9.177   2.894   8.604  0.5627  0.3493 -0.5852
  183ccc     H9 5292   9.120   2.897   8.510  0.5428 -1.6544 -0.6825
  183ccc    H10 5293   9.143   2.983   8.658 -0.5734 -0.0186 -0.6726
  183ccc     C6 5294   9.321   2.908   8.570  0.1296 -0.4079  0.2991
  183ccc     O2 5295   9.353   3.023   8.558  0.1566 -0.4619 -0.0878
  183ccc     O3 5296   9.383   2.829   8.509 -0.0950  0.0169  0.5230
  183ccc     C7 5297   9.044   2.876   8.874  0.1513  0.1788 -0.6078
  183ccc    H11 5298   9.112   2.825   8.943  2.5519  3.8304  0.0339
  183ccc    H12 5299   9.101   2.967   8.849  0.6901 -0.6289 -2.5267
  183ccc     C8 5300   8.913   2.931   8.940  0.5257 -0.3639 -0.3039
  183ccc    H13 5301   8.845   2.975   8.865 -0.2537 -2.0427 -0.6378
  183ccc    H14 5302   8.864   2.846   8.989  2.0691 -1.1238 -0.0049
  183ccc     C9 5303   8.949   3.016   9.057 -0.7811  0.5170 -0.0967
  183ccc     O4 5304   8.978   3.133   9.043 -1.1933  0.0206  0.7428
  183ccc     O5 5305   9.007   2.956   9.146 -0.3003 -0.2087 -0.4866
  183ccc     O1 5306   8.771   2.653   8.434 -0.7182  0.6302  0.2458
  184ccc     C3 5307   9.056   2.791   7.714 -0.3678 -0.2060 -0.5559
  184ccc     H5 5308   9.076   2.740   7.618 -0.0948 -2.0724  0.4330
  184ccc     H6 5309   9.003   2.883   7.689 -1.0129 -0.2524  0.5930
  184ccc     C2 5310   9.190   2.821   7.794  0.3679  0.5259 -0.0399
  184ccc     H3 5311   9.164   2.876   7.885  1.1585  0.6733  0.0986
  184ccc     H4 5312   9.245   2.899   7.740 -0.1340  1.5687  0.9156
  184ccc     C1 5313   9.278   2.696   7.824 -0.3551  0.7165  0.2816
  184ccc     H1 5314   9.292   2.640   7.731 -1.7514 -0.5991  0.8226
  184ccc     H2 5315   9.227   2.634   7.898  1.7851 -1.2982  0.1730
  184ccc     N1 5316   9.408   2.736   7.869  0.1592  0.7803 -0.5347
  184ccc     C4 5317   9.508   2.639   7.825  0.0088 -0.3455  0.8924
  184ccc     H7 5318   9.465   2.539   7.839 -1.7013 -0.1864 -2.3373
  184ccc     H8 5319   9.600   2.644   7.884  1.3450 -1.3111 -0.9992
  184ccc     C5 5320   9.547   2.660   7.678  0.1197  0.1720 -0.0301
  184ccc     H9 5321   9.467   2.659   7.603  0.9326  2.3018 -1.0185
  184ccc    H10 5322   9.589   2.761   7.687  2.0307 -0.7624  5.3069
  184ccc     C6 5323   9.654   2.565   7.642  0.3226 -0.3809  0.0131
  184ccc     O2 5324   9.769   2.599   7.634  0.6916  0.4509 -0.2748
  184ccc     O3 5325   9.634   2.444   7.620  0.1811  0.0383  0.5765
  184ccc     C7 5326   9.414   2.748   8.018  0.2938 -0.6580 -0.1719
  184ccc    H11 5327   9.336   2.817   8.053  2.0676  0.3855  1.9566
  184ccc    H12 5328   9.402   2.649   8.064  0.7521 -2.5515 -3.7948
  184ccc     C8 5329   9.546   2.816   8.068  0.0552  0.1701 -0.0871
  184ccc    H13 5330   9.624   2.739   8.076  2.1608  2.1308 -0.7057
  184ccc    H14 5331   9.578   2.892   7.996  0.5820 -0.8599 -0.9682
  184ccc     C9 5332   9.523   2.879   8.203 -0.0772 -0.4467 -1.1129
  184ccc     O4 5333   9.559   2.815   8.296  0.0299 -0.9767 -0.3416
  184ccc     O5 5334   9.476   2.992   8.210  0.1787 -0.0255  0.1269
  184ccc     O1 5335   8.976   2.705   7.802 -0.9826  0.5060  0.6358
  185ccc     C3 5336   9.403   2.037   8.047 -0.2462 -0.0790 -0.5685
  185ccc     H5 5337   9.313   2.100   8.037  0.7389  1.2331 -1.5097
  185ccc     H6 5338   9.486   2.084   7.992 -0.3851  0.5508 -0.2544
  185ccc     C2 5339   9.373   1.897   7.996  0.0204  0.1712  0.5873
  185ccc     H3 5340   9.271   1.874   8.030 -0.2846 -0.2712 -0.5875
  185ccc     H4 5341   9.425   1.818   8.052  2.9543  1.0497 -0.7305
  185ccc     C1 5342   9.396   1.878   7.842 -0.1456 -0.4508  0.4396
  185ccc     H1 5343   9.306   1.920   7.794 -0.6497 -0.8512  1.0160
  185ccc     H2 5344   9.391   1.776   7.802  0.7702 -0.2684 -0.1569
  185ccc     N1 5345   9.516   1.940   7.787  0.2166 -0.3003  0.1162
  185ccc     C4 5346   9.637   1.898   7.854  0.0260  0.1887 -0.0253
  185ccc     H7 5347   9.658   1.795   7.823 -0.2082  0.3021 -0.5625
  185ccc     H8 5348   9.613   1.884   7.960 -0.0197 -0.7173 -0.1513
  185ccc     C5 5349   9.756   1.991   7.854  0.7124 -0.4678  1.0316
  185ccc     H9 5350   9.783   2.026   7.753 -2.0998 -1.8033 -0.2898
  185ccc    H10 5351   9.730   2.078   7.916 -2.9241 -1.4205  1.0791
  185ccc     C6 5352   9.880   1.931   7.908 -0.4124 -0.2743 -0.0011
  185ccc     O2 5353   9.972   1.890   7.837 -0.2931  0.4370  0.0749
  185ccc     O3 5354   9.894   1.924   8.030 -0.3484  0.7182  0.1352
  185ccc     C7 5355   9.534   1.942   7.641 -0.2178 -0.1810  0.2393
  185ccc    H11 5356   9.608   2.021   7.626 -0.7320  0.3860  0.6889
  185ccc    H12 5357   9.575   1.850   7.595  1.5661 -0.1383  1.6283
  185ccc     C8 5358   9.408   1.988   7.566 -0.5084 -0.3102  0.3355
  185ccc    H13 5359   9.324   1.918   7.558 -3.6667  3.2256 -0.3581
  185ccc    H14 5360   9.371   2.075   7.622  2.2671  0.1998  1.5808
  185ccc     C9 5361   9.444   2.048   7.439 -0.6399  0.6259 -0.4790
  185ccc     O4 5362   9.485   2.161   7.430 -0.2726  0.5009 -0.0538
  185ccc     O5 5363   9.402   2.010   7.334  0.7077 -0.0934  0.3829
  185ccc     O1 5364   9.436   2.029   8.186  0.3750  0.1620  0.0868
  186ccc     C3 5365   9.061   2.968   8.167  0.3681  0.1113 -0.2130
  186ccc     H5 5366   9.162   2.969   8.125 -0.1754  0.2807 -1.5826
  186ccc     H6 5367   9.004   2.973   8.073 -0.7190  2.5626  0.4984
  186ccc     C2 5368   9.026   3.090   8.261 -0.1373  1.0271 -0.5876
  186ccc     H3 5369   9.055   3.186   8.216 -0.8088  1.1095 -0.8718
  186ccc     H4 5370   9.090   3.088   8.350 -1.6361  0.0880  0.5128
  186ccc     C1 5371   8.872   3.106   8.289 -0.3614 -0.5649  0.0427
  186ccc     H1 5372   8.832   3.025   8.350  2.8353 -1.2377  1.4784
  186ccc     H2 5373   8.818   3.094   8.194  1.2740 -5.0314 -0.5967
  186ccc     N1 5374   8.832   3.233   8.349 -0.3992  0.3077  0.2880
  186ccc     C4 5375   8.691   3.239   8.381  0.3852  0.8047  0.2868
  186ccc     H7 5376   8.660   3.326   8.440 -0.5953 -0.3137  1.4519
  186ccc     H8 5377   8.668   3.152   8.443 -0.0679  0.3447 -0.5053
  186ccc     C5 5378   8.605   3.244   8.254 -0.4149  1.0201 -0.4675
  186ccc     H9 5379   8.650   3.308   8.177  2.4902 -1.2728 -0.8766
  186ccc    H10 5380   8.608   3.143   8.209  3.5629  0.1936  1.1511
  186ccc     C6 5381   8.466   3.282   8.286 -0.5727  0.0127  1.5604
  186ccc     O2 5382   8.424   3.387   8.241  0.0432 -0.0060  0.2323
  186ccc     O3 5383   8.380   3.209   8.319  0.2733  0.1255 -0.4767
  186ccc     C7 5384   8.910   3.283   8.462 -0.4617 -0.1214  0.0180
  186ccc    H11 5385   9.007   3.313   8.421 -0.1758 -0.6462  0.2990
  186ccc    H12 5386   8.852   3.367   8.502  0.1482 -0.3306  1.4252
  186ccc     C8 5387   8.922   3.170   8.575  0.7310 -0.6242  0.3390
  186ccc    H13 5388   8.828   3.163   8.631 -1.4417 -0.2339 -2.9599
  186ccc    H14 5389   8.941   3.070   8.535  3.0540 -0.7672  1.6516
  186ccc     C9 5390   9.037   3.209   8.660  0.4320 -0.3376  0.2339
  186ccc     O4 5391   9.141   3.242   8.613 -0.4471  0.2430  0.5563
  186ccc     O5 5392   9.005   3.228   8.778 -0.3096 -0.1834  0.2558
  186ccc     O1 5393   9.035   2.853   8.248  0.3644 -0.0540  0.2348
  187ccc     C3 5394   8.036   1.585   8.065 -0.3759 -0.2026 -0.1888
  187ccc     H5 5395   7.927   1.573   8.060 -0.8534  2.7764  1.0596
  187ccc     H6 5396   8.069   1.616   7.965 -1.1390 -2.0803 -1.0703
  187ccc     C2 5397   8.094   1.451   8.114 -0.6696 -0.0035  0.3070
  187ccc     H3 5398   8.201   1.457   8.135 -1.0134 -1.8080  3.0788
  187ccc     H4 5399   8.068   1.385   8.030  1.8634 -1.3187  0.4632
  187ccc     C1 5400   8.020   1.409   8.242 -0.2292 -0.5140 -0.3334
  187ccc     H1 5401   7.915   1.424   8.213  0.3586  2.2628 -1.2564
  187ccc     H2 5402   8.046   1.479   8.322  1.7167 -2.8827  1.2361
  187ccc     N1 5403   8.055   1.269   8.300 -0.0214  0.9649 -0.3806
  187ccc     C4 5404   8.008   1.151   8.229  0.0918  0.3357  0.0849
  187ccc     H7 5405   8.034   1.055   8.277 -0.2423 -0.1528 -0.6951
  187ccc     H8 5406   8.061   1.137   8.134 -0.3063 -2.1702  0.1629
  187ccc     C5 5407   7.858   1.157   8.212 -0.3067  1.0401  0.2118
  187ccc     H9 5408   7.811   1.168   8.311  0.8662 -0.7862  1.0103
  187ccc    H10 5409   7.834   1.251   8.159 -2.3086  0.9791  0.9238
  187ccc     C6 5410   7.798   1.046   8.141  0.2553  0.6448  0.7683
  187ccc     O2 5411   7.691   1.001   8.179 -0.2433  0.7099 -0.0978
  187ccc     O3 5412   7.869   0.963   8.082 -0.2304  0.1690 -0.4547
  187ccc     C7 5413   8.192   1.249   8.342  0.3967  0.5130 -0.0640
  187ccc    H11 5414   8.191   1.152   8.393 -0.5948  1.1942  1.2657
  187ccc    H12 5415   8.255   1.241   8.253 -0.2528  1.2135 -0.6018
  187ccc     C8 5416   8.254   1.354   8.429  0.1195  0.2870 -0.1194
  187ccc    H13 5417   8.292   1.437   8.367 -0.1102  1.2961  1.0512
  187ccc    H14 5418   8.190   1.399   8.506  0.7453  2.0077 -0.5497
  187ccc     C9 5419   8.373   1.286   8.489  0.1546  0.1059  0.2914
  187ccc     O4 5420   8.410   1.313   8.602 -0.4810  0.1105 -0.3691
  187ccc     O5 5421   8.454   1.224   8.416 -0.2628 -0.1497  0.4499
  187ccc     O1 5422   8.072   1.671   8.172 -0.4225 -0.2900  0.2095
  188ccc     C3 5423   7.774   1.303   8.862 -0.0538 -0.3924 -0.2769
  188ccc     H5 5424   7.838   1.301   8.951  0.5603 -0.7092 -0.7210
  188ccc     H6 5425   7.673   1.308   8.905 -0.4779  1.4071 -1.4191
  188ccc     C2 5426   7.794   1.171   8.799 -0.1224  0.9007  0.1346
  188ccc     H3 5427   7.729   1.155   8.712 -1.3371 -1.1848  1.3351
  188ccc     H4 5428   7.761   1.090   8.866  1.2790 -0.2638 -0.5204
  188ccc     C1 5429   7.939   1.142   8.760  0.6159 -0.0092 -0.1573
  188ccc     H1 5430   7.997   1.163   8.851 -1.6456 -1.5963  1.7973
  188ccc     H2 5431   7.968   1.208   8.678 -0.4919 -1.1802 -1.5687
  188ccc     N1 5432   7.958   1.001   8.721  0.1740 -0.5663  1.4917
  188ccc     C4 5433   8.100   0.958   8.754  0.5124  0.2089 -0.2447
  188ccc     H7 5434   8.109   0.849   8.741  1.2863  0.3173 -0.7064
  188ccc     H8 5435   8.122   0.976   8.860 -1.7873 -2.8309  0.9183
  188ccc     C5 5436   8.202   1.035   8.675  1.3558 -0.4606 -0.1621
  188ccc     H9 5437   8.200   1.007   8.569 -1.3341 -2.9574  0.3900
  188ccc    H10 5438   8.204   1.144   8.682 -2.1306 -0.1564 -1.6365
  188ccc     C6 5439   8.328   0.980   8.728 -0.8898 -0.3221  0.4637
  188ccc     O2 5440   8.396   0.921   8.648  0.3185  0.2659  0.4146
  188ccc     O3 5441   8.388   1.060   8.802 -0.3789  0.3104  0.0730
  188ccc     C7 5442   7.912   0.976   8.589  0.1681  0.2465  0.1358
  188ccc    H11 5443   7.803   0.988   8.590  0.2564  1.2870  1.7944
  188ccc    H12 5444   7.957   1.041   8.512 -0.6659  0.1277 -0.4654
  188ccc     C8 5445   7.932   0.826   8.545 -0.4155  0.8960  0.1312
  188ccc    H13 5446   8.038   0.798   8.548 -0.4508  0.6500 -0.7323
  188ccc    H14 5447   7.884   0.771   8.628  1.7004 -1.4341 -0.0570
  188ccc     C9 5448   7.874   0.790   8.415 -0.4977 -0.7340  0.3806
  188ccc     O4 5449   7.941   0.747   8.325 -0.1067 -0.3350 -0.4052
  188ccc     O5 5450   7.756   0.772   8.408 -0.3849  0.1526  0.0142
  188ccc     O1 5451   7.810   1.412   8.773 -0.4970  0.4277  0.5155
  189ccc     C3 5452   9.226   1.380   9.111 -0.3973  0.2696  0.0229
  189ccc     H5 5453   9.333   1.360   9.104 -0.0175  1.9010  0.6202
  189ccc     H6 5454   9.209   1.399   9.218  0.7033  0.2821  0.2085
  189ccc     C2 5455   9.145   1.255   9.062 -0.2942  0.5457  0.3463
  189ccc     H3 5456   9.043   1.269   9.098 -0.3995 -1.9321  1.2410
  189ccc     H4 5457   9.184   1.164   9.111 -1.3432 -0.2644 -0.3028
  189ccc     C1 5458   9.138   1.236   8.905  0.6882 -0.6376  0.1196
  189ccc     H1 5459   9.242   1.217   8.876  0.5234 -1.9845  0.3602
  189ccc     H2 5460   9.092   1.325   8.860 -1.7396 -1.2932  1.1821
  189ccc     N1 5461   9.057   1.119   8.868 -0.0415  0.2236  0.2429
  189ccc     C4 5462   9.107   0.984   8.919 -0.4707 -0.7552  0.7905
  189ccc     H7 5463   9.079   0.963   9.023  1.9241 -0.9101  1.4440
  189ccc     H8 5464   9.216   0.992   8.912 -0.6267  1.5739  0.1543
  189ccc     C5 5465   9.065   0.870   8.826  0.0181 -0.5301 -0.4249
  189ccc     H9 5466   8.958   0.849   8.820  0.0960 -1.8913  1.9763
  189ccc    H10 5467   9.112   0.880   8.727 -0.9553  0.9613 -0.7748
  189ccc     C6 5468   9.122   0.749   8.890  0.0065  0.2764  0.4899
  189ccc     O2 5469   9.063   0.714   8.993 -0.3879  0.0439 -0.2155
  189ccc     O3 5470   9.187   0.672   8.829 -0.3189 -0.6400 -0.4529
  189ccc     C7 5471   8.912   1.139   8.891 -0.4501 -0.0992 -0.8765
  189ccc    H11 5472   8.859   1.047   8.864  0.1515 -0.5779 -0.4649
  189ccc    H12 5473   8.894   1.161   8.997 -0.1819 -2.2803 -0.3141
  189ccc     C8 5474   8.850   1.247   8.804  0.0629  0.0917  0.4958
  189ccc    H13 5475   8.875   1.344   8.849  0.8000 -0.5563  1.5584
  189ccc    H14 5476   8.884   1.239   8.700  0.3914 -1.3806  0.6911
  189ccc     C9 5477   8.700   1.232   8.800 -0.6734 -0.3627 -0.3945
  189ccc     O4 5478   8.639   1.191   8.704 -0.1309 -0.3077 -0.3257
  189ccc     O5 5479   8.634   1.268   8.898  0.0007 -0.7080 -0.1218
  189ccc     O1 5480   9.192   1.495   9.020  0.5307 -0.0395 -0.2911
  190ccc     C3 5481   9.407   2.468   9.060 -0.9523  0.0981 -0.5097
  190ccc     H5 5482   9.376   2.480   9.165  2.6603 -0.2752  0.7402
  190ccc     H6 5483   9.504   2.416   9.056 -2.1043 -2.0958 -1.6210
  190ccc     C2 5484   9.416   2.607   8.995  0.1673 -0.1398 -0.0782
  190ccc     H3 5485   9.324   2.658   9.027  0.5123  0.1432  0.4704
  190ccc     H4 5486   9.409   2.591   8.887 -0.2559 -1.5162  0.1252
  190ccc     C1 5487   9.539   2.691   9.029  0.0273 -0.3404  0.1722
  190ccc     H1 5488   9.627   2.629   9.003  1.0709  0.6345  1.2726
  190ccc     H2 5489   9.544   2.709   9.137 -0.5933  0.7714  0.0336
  190ccc     N1 5490   9.542   2.822   8.951 -0.4241  0.1663 -0.5663
  190ccc     C4 5491   9.446   2.918   8.996 -0.2741 -0.4696 -0.0784
  190ccc     H7 5492   9.430   2.906   9.104 -0.0921  0.2886  0.0376
  190ccc     H8 5493   9.350   2.889   8.951 -1.1352  1.6815  0.2428
  190ccc     C5 5494   9.469   3.066   8.968 -0.3229 -0.9819  0.6108
  190ccc     H9 5495   9.536   3.110   9.043 -0.8050  1.0295 -0.0640
  190ccc    H10 5496   9.520   3.097   8.876 -3.4564  0.0371 -0.9412
  190ccc     C6 5497   9.342   3.141   8.970  0.1205 -0.0479 -0.4969
  190ccc     O2 5498   9.273   3.154   9.070  0.2638  0.5460 -0.8773
  190ccc     O3 5499   9.300   3.177   8.864 -0.4247 -0.3726  0.5257
  190ccc     C7 5500   9.550   2.811   8.802 -0.1959 -0.3374 -0.9385
  190ccc    H11 5501   9.456   2.773   8.763 -0.5047  0.4491 -0.9868
  190ccc    H12 5502   9.555   2.912   8.759 -1.4811  0.3465  0.4216
  190ccc     C8 5503   9.655   2.721   8.747 -0.8478 -0.1543  0.1396
  190ccc    H13 5504   9.754   2.727   8.794 -0.6649  2.3944 -0.4227
  190ccc    H14 5505   9.616   2.618   8.746  1.1091 -0.9955 -2.7475
  190ccc     C9 5506   9.669   2.756   8.604 -0.7315 -0.0167 -0.3226
  190ccc     O4 5507   9.735   2.851   8.568 -0.1898 -0.0072 -0.7235
  190ccc     O5 5508   9.646   2.670   8.518  0.2377 -0.1040  0.0088
  190ccc     O1 5509   9.318   2.388   8.984  0.2368 -0.2384 -0.2309
  191SOL     OW 5510   2.350  11.412   6.714 -0.3037  0.4902 -0.6235
  191SOL    HW1 5511   2.345  11.346   6.644 -2.3751  0.9838 -0.9871
  191SOL    HW2 5512   2.319  11.367   6.792  0.3193  0.4447 -0.3972
  192SOL     OW 5513   1.484   3.308  10.839 -0.2151 -0.1685  0.0905
  192SOL    HW1 5514   1.557   3.249  10.820  1.4402  1.6777  0.3117
  192SOL    HW2 5515   1.495   3.329  10.932 -0.3406  0.9947 -0.1438
  193SOL     OW 5516   7.250   4.061   8.826  0.0634 -0.3923  0.4651
  193SOL    HW1 5517   7.168   4.012   8.826  0.2840 -0.7620  0.7061
  193SOL    HW2 5518   7.316   3.999   8.796  0.1281  0.1335 -0.4966
  194SOL     OW 5519   4.334  11.631  11.474 -0.4060  0.3069 -0.0617
  194SOL    HW1 5520   4.408  11.648  11.533 -0.5403  1.0925 -0.1098
  194SOL    HW2 5521   4.352  11.686  11.398 -0.1579 -0.8047 -0.8309
  195SOL     OW 5522   6.551   3.278   2.617  0.5071 -0.4675  0.2997
  195SOL    HW1 5523   6.499   3.202   2.592  0.5755 -0.3430 -0.2266
  195SOL    HW2 5524   6.499   3.321   2.685 -1.1395  0.8507 -1.6977
  196SOL     OW 5525  10.340  11.055   9.061 -0.8586 -0.1419 -0.1046
  196SOL    HW1 5526  10.255  11.043   9.103 -2.0616  2.0404 -1.6838
  196SOL    HW2 5527  10.389  11.111   9.122 -0.9146 -0.5565  0.3301
  197SOL     OW 5528   5.590   8.781  11.003  0.1715  0.0102 -0.0021
  197SOL    HW1 5529   5.656   8.813  10.941 -0.3666  2.1125  0.4284
  197SOL    HW2 5530   5.639   8.770  11.085  0.6478 -1.6799 -0.4883
  198SOL     OW 5531   3.811   7.095   3.205  0.0176 -0.0777  0.1553
  198SOL    HW1 5532   3.829   7.185   3.180  0.1452 -0.7716 -2.7100
  198SOL    HW2 5533   3.718   7.082   3.184 -0.6298 -0.0459  2.7210
  199SOL     OW 5534   9.381   1.371  10.490 -0.5158 -0.4112 -0.4524
  199SOL    HW1 5535   9.333   1.362  10.407 -1.0569  0.1230 -0.2042
  199SOL    HW2 5536   9.458   1.315  10.479 -1.2827 -1.4486 -0.7970
  200SOL     OW 5537   7.391   9.756   2.429 -0.1907 -0.2757  0.1502
  200SOL    HW1 5538   7.310   9.732   2.384 -0.5848  0.7753  0.2721
  200SOL    HW2 5539   7.377   9.729   2.520 -0.4281 -0.0516  0.1813
  201SOL     OW 5540  10.144   4.513  10.732  0.2509  0.4747  0.4835
  201SOL    HW1 5541  10.161   4.431  10.778 -1.4770  0.0819  0.5086
  201SOL    HW2 5542  10.112   4.486  10.646 -0.9457  1.0852  0.7143
  202SOL     OW 5543   1.303   9.216   4.607 -0.1151 -0.4908  0.5581
  202SOL    HW1 5544   1.356   9.190   4.682  0.6580  0.7119  0.4503
  202SOL    HW2 5545   1.235   9.273   4.644  1.7459  2.2031  0.1332
  203SOL     OW 5546   7.390   6.156   0.903  0.2113 -0.4844 -0.3210
  203SOL    HW1 5547   7.324   6.195   0.845  0.2340 -1.6196 -1.1265
  203SOL    HW2 5548   7.452   6.227   0.919 -1.4017  0.7457  0.7989
  204SOL     OW 5549  10.876   5.727  10.451  0.6905 -0.0324  0.1945
  204SOL    HW1 5550  10.873   5.769  10.538  1.2206 -1.8892  1.1658
  204SOL    HW2 5551  10.881   5.634  10.470  1.2163 -0.4682 -1.8629
  205SOL     OW 5552   3.571   3.198  11.492  0.6219 -0.9173 -0.5600
  205SOL    HW1 5553   3.619   3.121  11.523  0.6073 -0.8568 -0.3849
  205SOL    HW2 5554   3.494   3.202  11.548  0.5719 -0.8313 -0.6341
  206SOL     OW 5555   3.330   1.807   5.428 -0.1005  0.9413 -0.4196
  206SOL    HW1 5556   3.241   1.770   5.423  0.1966  0.0457  0.4826
  206SOL    HW2 5557   3.329   1.858   5.509  0.0975  1.2494 -0.6126
  207SOL     OW 5558   6.318  10.697   4.260 -0.1425 -0.3170 -0.2034
  207SOL    HW1 5559   6.402  10.730   4.292  0.1396 -0.2984 -0.9571
  207SOL    HW2 5560   6.334  10.605   4.238 -0.7851 -0.8394  1.3479
  208SOL     OW 5561  10.142  10.055   4.644  0.2555 -0.4225  0.6934
  208SOL    HW1 5562  10.184   9.971   4.624 -0.7565 -0.6196 -0.7727
  208SOL    HW2 5563  10.086  10.035   4.720  1.3460 -0.6130  1.4709
  209SOL     OW 5564   8.685   2.524   0.532 -0.1527  0.3024  0.1204
  209SOL    HW1 5565   8.747   2.465   0.574  0.9336  1.4465  0.1608
  209SOL    HW2 5566   8.608   2.523   0.589  1.1996  1.6330  2.0725
  210SOL     OW 5567   7.943  10.200   5.535 -0.5055  0.2035  0.1993
  210SOL    HW1 5568   8.021  10.151   5.560 -0.7372 -0.5393 -0.5099
  210SOL    HW2 5569   7.935  10.187   5.440 -1.8243 -0.2301  0.3447
  211SOL     OW 5570   1.242  11.663   0.076  0.0655 -0.6120 -0.0093
  211SOL    HW1 5571   1.186  11.631   0.006 -0.0864 -0.8435  0.2136
  211SOL    HW2 5572   1.194  11.736   0.114  1.1071  0.9120 -1.5183
  212SOL     OW 5573  10.635   9.333   5.397 -0.2568  0.0212  0.4833
  212SOL    HW1 5574  10.548   9.332   5.436  0.1356  0.2550  1.3875
  212SOL    HW2 5575  10.620   9.360   5.306 -1.0124  1.2203  0.9393
  213SOL     OW 5576   7.281  10.450   4.350 -0.1802 -0.4023 -0.0366
  213SOL    HW1 5577   7.325  10.495   4.422 -1.0963 -1.4862  1.2490
  213SOL    HW2 5578   7.340  10.461   4.275  1.1628  0.1084  1.0558
  214SOL     OW 5579   4.751   0.748   2.203  0.5961  0.6544  0.1239
  214SOL    HW1 5580   4.728   0.838   2.225  0.3151  0.5677  0.1910
  214SOL    HW2 5581   4.734   0.742   2.109  2.2852  1.1727 -0.2466
  215SOL     OW 5582   3.252   3.415   5.912 -0.4121  0.2465 -0.2123
  215SOL    HW1 5583   3.288   3.493   5.869  0.6219  0.1529  0.4374
  215SOL    HW2 5584   3.224   3.445   5.998 -1.1094  0.1317 -0.3917
  216SOL     OW 5585   6.149   6.876   4.586 -0.4039  0.1531  0.1831
  216SOL    HW1 5586   6.164   6.878   4.681  1.2139  2.1486 -0.0518
  216SOL    HW2 5587   6.220   6.929   4.549 -1.1964 -0.2823 -2.1366
  217SOL     OW 5588   2.264   8.570   3.241  0.5737  0.1865 -0.6418
  217SOL    HW1 5589   2.215   8.507   3.189  1.0005  0.0800 -0.9174
  217SOL    HW2 5590   2.356   8.543   3.232  0.8905  1.4594 -1.6524
  218SOL     OW 5591   4.110   6.915   6.404  0.2291  0.0014  0.1469
  218SOL    HW1 5592   4.163   6.982   6.359  0.5294 -0.0612  0.4027
  218SOL    HW2 5593   4.039   6.964   6.445 -0.2985  0.0122 -0.7533
  219SOL     OW 5594   0.741  10.235   4.071  0.5732  0.1870  0.5971
  219SOL    HW1 5595   0.671  10.231   4.006  0.4666  0.7187  0.6696
  219SOL    HW2 5596   0.775  10.146   4.076 -0.8792 -0.3463  1.4076
  220SOL     OW 5597   7.683   2.548   5.290 -0.0054 -0.0328 -0.4601
  220SOL    HW1 5598   7.614   2.553   5.357  0.7752  3.0067  0.2356
  220SOL    HW2 5599   7.637   2.515   5.212 -1.1434 -2.7261  1.1865
  221SOL     OW 5600   7.165  10.749   3.363  0.5475 -0.0298  0.7774
  221SOL    HW1 5601   7.158  10.752   3.459 -0.3963 -1.2006  0.7700
  221SOL    HW2 5602   7.248  10.793   3.344 -0.5452  2.7855  1.9177
  222SOL     OW 5603   2.547   6.351   1.223  0.0051  0.1774  0.4108
  222SOL    HW1 5604   2.642   6.350   1.215  0.1663 -3.4646  1.3759
  222SOL    HW2 5605   2.530   6.332   1.315 -1.5888 -2.2884 -0.3193
  223SOL     OW 5606   1.443   5.290   1.018  0.2317  0.0056 -0.0830
  223SOL    HW1 5607   1.388   5.280   0.940  0.1692 -1.1724  0.0977
  223SOL    HW2 5608   1.499   5.365   0.998 -2.0738  1.9228  0.1094
  224SOL     OW 5609   6.115  10.632   5.255  0.1004 -0.0187  0.1718
  224SOL    HW1 5610   6.143  10.663   5.341  0.1517 -0.3144  0.2624
  224SOL    HW2 5611   6.197  10.613   5.209  0.0736  0.1666  0.0464
  225SOL     OW 5612   8.732   1.095   5.261  0.2415 -0.5731  0.4169
  225SOL    HW1 5613   8.674   1.169   5.240  2.2404  0.6316 -1.3676
  225SOL    HW2 5614   8.777   1.122   5.341 -0.0806 -0.5228  0.5827
  226SOL     OW 5615   0.825   3.517   3.230 -0.4826  0.3592  0.9017
  226SOL    HW1 5616   0.871   3.599   3.216  1.8527 -0.8318  1.1062
  226SOL    HW2 5617   0.873   3.474   3.301 -1.4435 -1.3276  0.5947
  227SOL     OW 5618   6.199   1.025   2.282  0.1860 -0.0636 -0.3194
  227SOL    HW1 5619   6.156   1.098   2.238 -0.7178 -0.0405  0.5541
  227SOL    HW2 5620   6.145   0.949   2.258 -0.3127 -0.0481  0.7221
  228SOL     OW 5621   4.874   8.040   9.264  0.0190 -0.3404  0.9240
  228SOL    HW1 5622   4.785   8.066   9.286 -0.1790 -0.9697  0.8802
  228SOL    HW2 5623   4.899   7.976   9.331 -0.2119 -1.4850 -0.0526
  229SOL     OW 5624   0.172   0.242  10.615 -0.1468 -0.5734  0.8018
  229SOL    HW1 5625   0.265   0.268  10.615  0.2441 -1.4267 -3.0787
  229SOL    HW2 5626   0.127   0.317  10.577 -1.0818 -0.2883  2.3890
  230SOL     OW 5627   3.627   2.546   1.200  0.0566 -0.2654 -0.9110
  230SOL    HW1 5628   3.627   2.642   1.194  1.0200 -0.1754  0.1747
  230SOL    HW2 5629   3.712   2.521   1.164 -0.3767 -0.7651 -1.6174
  231SOL     OW 5630   3.978   1.917   5.667 -0.4460  0.5180  0.1401
  231SOL    HW1 5631   3.916   1.990   5.674  0.5634  1.4763 -0.4161
  231SOL    HW2 5632   4.057   1.949   5.710  0.0078 -0.2592 -0.1007
  232SOL     OW 5633  10.403   6.085   8.089  0.0168  0.0396  0.2722
  232SOL    HW1 5634  10.495   6.071   8.064  0.4294 -0.4929  2.0070
  232SOL    HW2 5635  10.398   6.178   8.110 -0.5361  0.7034 -2.3950
  233SOL     OW 5636  11.602  10.554   6.897  0.7434  0.0910  0.2257
  233SOL    HW1 5637  11.689  10.592   6.909  0.7126 -0.0677  0.9778
  233SOL    HW2 5638  11.544  10.629   6.889  1.0076  0.2026 -0.8014
  234SOL     OW 5639   6.004   5.194   6.813  0.0880 -0.0567 -0.4642
  234SOL    HW1 5640   5.926   5.149   6.784 -0.7740  0.8844  0.3142
  234SOL    HW2 5641   6.022   5.159   6.901  0.4053 -0.0977 -0.5423
  235SOL     OW 5642   2.907  10.925  11.367 -0.6969  0.6054 -0.4466
  235SOL    HW1 5643   2.837  10.922  11.432 -0.1942  0.3582  0.0981
  235SOL    HW2 5644   2.934  10.834  11.357 -0.0065  0.7653 -0.1423
  236SOL     OW 5645   5.205   8.276   5.190  0.7776 -0.5090  0.1198
  236SOL    HW1 5646   5.228   8.256   5.099  0.2302 -1.5235  0.1997
  236SOL    HW2 5647   5.240   8.364   5.204  0.0554  0.0500 -1.3578
  237SOL     OW 5648   4.777   3.627  11.279 -0.3499  0.4292  0.0330
  237SOL    HW1 5649   4.858   3.581  11.258  0.2031  1.7665 -0.9265
  237SOL    HW2 5650   4.709   3.560  11.274  0.5725 -0.5223 -0.0916
  238SOL     OW 5651   5.269  11.437   0.602 -0.6700 -0.5947  0.1859
  238SOL    HW1 5652   5.352  11.441   0.556  0.6356  1.3913  2.4566
  238SOL    HW2 5653   5.228  11.356   0.572  1.4174 -0.9221 -2.0534
  239SOL     OW 5654   7.033   6.083   9.951  0.8167  0.3819 -0.5201
  239SOL    HW1 5655   6.946   6.058   9.921  0.8868  0.7503 -1.0667
  239SOL    HW2 5656   7.092   6.040   9.889  0.9890  0.6665 -0.5572
  240SOL     OW 5657   6.108   5.990   1.011 -0.6178  0.1341 -0.3307
  240SOL    HW1 5658   6.015   6.008   1.020 -0.5240 -0.3033  2.3028
  240SOL    HW2 5659   6.151   6.057   1.063  0.3645 -1.0484  0.4523
  241SOL     OW 5660   4.307   1.427   2.338  0.0476 -0.3690 -0.1161
  241SOL    HW1 5661   4.401   1.420   2.328  0.4573  2.2585  1.0181
  241SOL    HW2 5662   4.282   1.500   2.280 -0.6248  1.3844  2.1933
  242SOL     OW 5663   0.843  10.463   5.372 -0.1732 -0.3055 -0.5341
  242SOL    HW1 5664   0.759  10.427   5.403 -0.4133  0.7789  0.1332
  242SOL    HW2 5665   0.894  10.474   5.452  0.0723  0.3582 -0.7744
  243SOL     OW 5666   1.988   5.314   6.197 -0.0329 -0.1302  0.2951
  243SOL    HW1 5667   2.058   5.321   6.261  1.3372  1.0184 -1.2490
  243SOL    HW2 5668   2.008   5.380   6.131 -2.8168  0.5303 -0.0195
  244SOL     OW 5669  10.546   1.196  11.082  0.0148  0.2965 -0.2153
  244SOL    HW1 5670  10.533   1.153  10.998  0.3087 -1.7615  0.7425
  244SOL    HW2 5671  10.497   1.278  11.074  1.1178  0.8071 -2.8333
  245SOL     OW 5672   3.978   3.722   1.783 -0.1099  0.5630 -0.1756
  245SOL    HW1 5673   3.904   3.782   1.787 -0.0509  0.5649  1.6877
  245SOL    HW2 5674   4.048   3.774   1.744 -1.1618  0.4234 -2.3982
  246SOL     OW 5675   4.033   4.610   6.371 -0.4214 -0.0036 -0.1279
  246SOL    HW1 5676   3.946   4.607   6.331 -0.2342  0.0279 -0.5403
  246SOL    HW2 5677   4.089   4.564   6.309 -0.2385 -0.4832  0.3848
  247SOL     OW 5678   3.987  11.402   2.725  0.2351  0.0767 -0.1238
  247SOL    HW1 5679   4.069  11.450   2.738  0.2512  1.0528 -3.0655
  247SOL    HW2 5680   3.922  11.450   2.776  1.2251  0.0741  1.1806
  248SOL     OW 5681   2.918   5.533   2.630 -0.1582 -0.1525  0.3979
  248SOL    HW1 5682   2.851   5.595   2.659  0.1577  0.2178  0.3389
  248SOL    HW2 5683   2.994   5.587   2.609 -0.0303 -0.5094 -0.0970
  249SOL     OW 5684  10.289   5.795   5.974  0.3494  0.3322  0.3603
  249SOL    HW1 5685  10.208   5.780   5.924 -0.5556  2.7038  0.9938
  249SOL    HW2 5686  10.353   5.737   5.933 -1.1294 -0.0583 -1.5612
  250SOL     OW 5687   0.271   6.950   2.015 -0.0762  0.0697 -0.1545
  250SOL    HW1 5688   0.248   6.985   1.929 -2.5515  0.0796  0.4516
  250SOL    HW2 5689   0.275   6.855   2.002  1.0251  0.1516 -0.5584
  251SOL     OW 5690  10.091   5.807   8.030  0.6395  0.1785 -0.1485
  251SOL    HW1 5691  10.102   5.816   8.124  0.3567 -1.6174  0.1002
  251SOL    HW2 5692  10.112   5.893   7.994 -1.1712  1.4867  1.7020
  252SOL     OW 5693   8.565   8.265   3.299  0.1143  0.1344 -0.2043
  252SOL    HW1 5694   8.647   8.272   3.348  0.1853 -1.1961 -0.0969
  252SOL    HW2 5695   8.592   8.244   3.210 -0.0750  0.9576 -0.4641
  253SOL     OW 5696   4.964   9.983   8.398 -0.0038 -0.1521  0.5702
  253SOL    HW1 5697   4.961   9.926   8.321  0.4470  1.3394 -0.6058
  253SOL    HW2 5698   4.872   9.999   8.420 -0.1827 -2.7999  2.1261
  254SOL     OW 5699   3.837  10.877   8.414 -0.3931 -0.5224 -0.3141
  254SOL    HW1 5700   3.764  10.929   8.380  0.5573  0.7308 -0.5088
  254SOL    HW2 5701   3.854  10.913   8.501  0.0765 -0.7012 -0.3287
  255SOL     OW 5702   7.384  11.115   8.952 -0.1667 -0.3533  0.3619
  255SOL    HW1 5703   7.348  11.203   8.964 -1.8026 -0.6267 -2.0505
  255SOL    HW2 5704   7.346  11.064   9.024 -1.5664  0.2755  0.1107
  256SOL     OW 5705   8.842   7.166   6.987  0.4313 -0.3095 -0.1999
  256SOL    HW1 5706   8.915   7.178   7.048  0.1464 -0.6684  0.2174
  256SOL    HW2 5707   8.857   7.231   6.919  0.3909  0.5590  0.6035
  257SOL     OW 5708   1.528   9.543   5.085 -0.0108  0.5253 -0.6543
  257SOL    HW1 5709   1.515   9.522   4.992  0.7970 -0.9198 -0.4772
  257SOL    HW2 5710   1.448   9.514   5.128  0.2138 -0.1775 -0.7081
  258SOL     OW 5711   6.813  10.982  11.448  0.0867  0.1391  0.3437
  258SOL    HW1 5712   6.821  11.048  11.517  1.6260 -0.2004  0.5334
  258SOL    HW2 5713   6.758  11.022  11.382  0.9078  1.5800  0.5061
  259SOL     OW 5714   9.832   5.381  11.493 -0.2969 -0.0382 -0.2261
  259SOL    HW1 5715   9.758   5.369  11.434 -0.8115 -1.4538  0.6444
  259SOL    HW2 5716   9.900   5.324  11.458 -0.4914 -0.6288  0.3253
  260SOL     OW 5717  10.358  10.506   9.172 -0.6313 -0.6452 -0.0356
  260SOL    HW1 5718  10.385  10.560   9.097 -0.1541 -1.4972 -0.4906
  260SOL    HW2 5719  10.332  10.570   9.239  1.5338  0.2189  0.0687
  261SOL     OW 5720   5.391  11.108   2.018 -0.2612  0.2374  0.6547
  261SOL    HW1 5721   5.426  11.179   1.963  1.0168 -1.3953 -0.7600
  261SOL    HW2 5722   5.409  11.028   1.968  0.2150 -1.2787  3.1008
  262SOL     OW 5723  11.084   4.576   3.607  0.1501  0.1857  0.6101
  262SOL    HW1 5724  11.054   4.597   3.695  1.7246 -0.6954  1.4114
  262SOL    HW2 5725  11.170   4.535   3.621  1.0647  1.2778 -1.4256
  263SOL     OW 5726   0.506  10.162   8.928 -0.1585 -0.3619  0.2783
  263SOL    HW1 5727   0.490  10.155   8.834  0.6621  0.9064  0.0200
  263SOL    HW2 5728   0.422  10.141   8.969 -0.6349 -0.4939 -0.7435
  264SOL     OW 5729   8.975   2.016   4.228 -0.4137 -0.2639 -0.4835
  264SOL    HW1 5730   8.928   2.030   4.311 -0.3537  3.8351 -0.9563
  264SOL    HW2 5731   9.066   2.001   4.254 -0.5351  0.1667  0.2098
  265SOL     OW 5732   7.550   1.902   4.062  0.4517 -0.7077 -0.7379
  265SOL    HW1 5733   7.466   1.856   4.055 -0.3812  0.2630  1.8068
  265SOL    HW2 5734   7.530   1.991   4.032  0.6903 -0.5837 -0.5231
  266SOL     OW 5735   5.070   0.329   5.814  0.0351  0.3169  0.7388
  266SOL    HW1 5736   5.097   0.365   5.898 -0.0084 -1.1141  1.4015
  266SOL    HW2 5737   4.985   0.370   5.796 -0.1671  0.3004  1.6251
  267SOL     OW 5738   8.821   6.154   4.741  0.4712  0.2801  0.2083
  267SOL    HW1 5739   8.912   6.167   4.768  0.6190 -1.3995  0.6446
  267SOL    HW2 5740   8.816   6.061   4.719 -1.9178 -0.4983  3.3668
  268SOL     OW 5741   7.804   5.328   4.864 -0.0941  0.1733 -0.0215
  268SOL    HW1 5742   7.716   5.290   4.859 -0.4778  1.0418 -0.1468
  268SOL    HW2 5743   7.838   5.322   4.775 -0.8984  1.7829 -0.4813
  269SOL     OW 5744   0.074   4.323   8.778 -0.0117 -0.0741 -0.4483
  269SOL    HW1 5745   0.126   4.243   8.772  0.6581  0.3424 -0.3753
  269SOL    HW2 5746   0.027   4.315   8.861  0.6015 -0.0734 -0.0944
  270SOL     OW 5747   8.026   6.161   5.597  0.6213  0.5373  0.0555
  270SOL    HW1 5748   8.118   6.153   5.622  1.5611  1.0254 -2.7748
  270SOL    HW2 5749   7.977   6.139   5.676  3.1483  0.1606  1.6405
  271SOL     OW 5750   8.278  10.506   4.281  0.0737  0.3715 -0.0099
  271SOL    HW1 5751   8.210  10.569   4.306  1.0130  0.4421  2.7334
  271SOL    HW2 5752   8.246  10.422   4.313  0.8994  0.2632  0.5402
  272SOL     OW 5753   7.628   7.272   7.586  0.3516  0.0958  0.0126
  272SOL    HW1 5754   7.543   7.312   7.567  0.5589  0.3303 -0.4343
  272SOL    HW2 5755   7.610   7.209   7.655 -0.3309 -0.3830 -0.5828
  273SOL     OW 5756   4.374   5.244   2.166  0.3721  0.3385  0.2282
  273SOL    HW1 5757   4.441   5.288   2.218  1.6688 -1.5593  0.2311
  273SOL    HW2 5758   4.362   5.159   2.208 -0.0474 -0.4327 -1.3708
  274SOL     OW 5759   1.335   9.813   7.415 -0.0329  0.3522  1.1847
  274SOL    HW1 5760   1.325   9.850   7.328 -0.4256  1.1816  1.5690
  274SOL    HW2 5761   1.361   9.722   7.400 -1.3169  0.1170  0.1931
  275SOL     OW 5762   2.813   9.001   3.539 -0.0457 -0.4614  0.2621
  275SOL    HW1 5763   2.798   8.951   3.459 -0.5244  1.8641 -1.2107
  275SOL    HW2 5764   2.908   9.000   3.551  0.0478 -0.6517 -0.4801
  276SOL     OW 5765   1.948   8.808   4.053  0.0582 -0.2917  0.0892
  276SOL    HW1 5766   2.018   8.807   4.118 -1.0917  0.7758  1.4071
  276SOL    HW2 5767   1.989   8.846   3.975  1.4492 -1.5560  0.1696
  277SOL     OW 5768   4.187   7.209   0.106  0.2054 -0.2379 -0.0493
  277SOL    HW1 5769   4.101   7.240   0.136 -0.3991 -0.1122 -1.8228
  277SOL    HW2 5770   4.167   7.136   0.047  1.3274 -0.3309 -0.3310
  278SOL     OW 5771   3.645   3.248   3.507  0.1788  0.0573 -0.1193
  278SOL    HW1 5772   3.550   3.244   3.499  0.2854  0.0032 -1.8677
  278SOL    HW2 5773   3.675   3.273   3.419  1.8001 -0.4493  0.2547
  279SOL     OW 5774  11.007   7.337   1.223  0.1893 -0.0243  0.6524
  279SOL    HW1 5775  11.001   7.295   1.309 -0.7487 -0.6220  0.3099
  279SOL    HW2 5776  10.923   7.381   1.211  1.4576  2.8075  1.3898
  280SOL     OW 5777   0.070  11.634  10.912  0.1802  0.0447 -0.7375
  280SOL    HW1 5778   0.151  11.633  10.964  0.3685 -0.8986 -1.0395
  280SOL    HW2 5779   0.006  11.676  10.970  0.6198 -0.1529 -0.0877
  281SOL     OW 5780   8.439  10.045  10.609  0.2003 -0.0774  0.3331
  281SOL    HW1 5781   8.371  10.035  10.676  1.4668 -1.8575  1.4256
  281SOL    HW2 5782   8.393  10.036  10.526 -1.0367 -0.3460  1.0317
  282SOL     OW 5783   1.524   3.051   5.594 -0.1274 -0.1776  0.4526
  282SOL    HW1 5784   1.510   3.103   5.515  0.8655  0.7775  0.8838
  282SOL    HW2 5785   1.595   3.095   5.640  0.6156 -1.7931  0.9378
  283SOL     OW 5786   0.804   1.384   0.296  0.2472  0.0099 -0.4620
  283SOL    HW1 5787   0.807   1.426   0.211 -1.6386 -0.2560 -0.7155
  283SOL    HW2 5788   0.828   1.452   0.358 -1.9144  1.2788 -0.9306
  284SOL     OW 5789   9.056  10.126   7.896 -0.4033  0.3852 -0.3384
  284SOL    HW1 5790   8.984  10.115   7.834  0.6457  0.2034 -1.5659
  284SOL    HW2 5791   9.025  10.194   7.956 -1.0716  1.2850 -1.6487
  285SOL     OW 5792   6.691   5.961   3.463  0.0934 -0.1645  0.6153
  285SOL    HW1 5793   6.697   6.057   3.469 -0.7673 -0.0135 -0.4637
  285SOL    HW2 5794   6.637   5.936   3.538 -0.1744  0.2717  0.5773
  286SOL     OW 5795   6.952   0.470   1.365  0.6679  0.6601 -0.1400
  286SOL    HW1 5796   6.996   0.448   1.283 -0.6166 -1.3530 -0.3714
  286SOL    HW2 5797   6.924   0.561   1.354  2.4682  1.1596 -0.9827
  287SOL     OW 5798   5.822   6.815  10.321  0.2168 -0.3615 -1.1099
  287SOL    HW1 5799   5.808   6.899  10.278 -0.3212  0.0810 -0.0776
  287SOL    HW2 5800   5.908   6.822  10.361 -0.8459  0.6714  1.1347
  288SOL     OW 5801   1.263   8.515   7.086  0.0527 -0.1181  0.6416
  288SOL    HW1 5802   1.167   8.517   7.090  0.0348  1.1876  0.1072
  288SOL    HW2 5803   1.288   8.607   7.073  1.3878 -0.4139  1.0021
  289SOL     OW 5804  10.315   6.771   0.581 -0.0499 -0.3791 -0.0799
  289SOL    HW1 5805  10.290   6.858   0.551 -4.0652 -0.6745  1.7865
  289SOL    HW2 5806  10.305   6.774   0.676 -0.8045 -2.9723 -0.0053
  290SOL     OW 5807   8.721   7.546  10.467  0.6170 -0.1479 -0.1881
  290SOL    HW1 5808   8.695   7.592  10.388 -0.8138  1.5162  1.1751
  290SOL    HW2 5809   8.704   7.454  10.448 -2.5794  0.4614 -0.8588
  291SOL     OW 5810   5.872   1.695   2.427 -0.1708  0.4174 -0.0500
  291SOL    HW1 5811   5.842   1.758   2.361 -0.3966  0.6824  0.2958
  291SOL    HW2 5812   5.946   1.650   2.387 -1.2361 -0.4866 -1.0657
  292SOL     OW 5813   4.265   0.762   6.061 -0.2976 -0.1026 -0.4221
  292SOL    HW1 5814   4.310   0.689   6.104  0.6254 -0.2256 -1.5579
  292SOL    HW2 5815   4.172   0.747   6.081  0.1003 -0.0199  1.6874
  293SOL     OW 5816   6.101   1.877   8.461  0.7874 -0.1554  0.0713
  293SOL    HW1 5817   6.071   1.952   8.513  1.3160 -1.4348  2.3242
  293SOL    HW2 5818   6.025   1.819   8.456  0.8503 -0.2107 -0.2535
  294SOL     OW 5819   0.261   6.623   3.955  0.2780 -0.6578 -0.0821
  294SOL    HW1 5820   0.230   6.637   4.045 -0.5982  0.3894 -0.5136
  294SOL    HW2 5821   0.350   6.657   3.955  0.4227 -1.0327  0.4912
  295SOL     OW 5822   3.814   0.774   0.578  0.1340 -0.0576 -0.1700
  295SOL    HW1 5823   3.815   0.869   0.568  1.4870  0.0004  0.3198
  295SOL    HW2 5824   3.893   0.754   0.627 -0.5104 -1.3829  0.3738
  296SOL     OW 5825   4.717   4.485   6.571  0.3451  0.1686 -0.7642
  296SOL    HW1 5826   4.725   4.453   6.661 -0.0368  1.2950 -0.3056
  296SOL    HW2 5827   4.626   4.514   6.564 -0.2262 -1.7734 -2.1902
  297SOL     OW 5828   9.348   8.846   7.741  0.1451  0.5404 -0.5702
  297SOL    HW1 5829   9.389   8.905   7.804 -1.5142  1.7304 -0.5371
  297SOL    HW2 5830   9.274   8.896   7.706 -2.0893 -1.9443  0.3347
  298SOL     OW 5831   0.153   4.141  10.762 -0.2138  0.7708 -0.7603
  298SOL    HW1 5832   0.222   4.101  10.709  0.4406 -0.4564  0.9174
  298SOL    HW2 5833   0.197   4.164  10.844 -1.9543 -0.9169  0.7201
  299SOL     OW 5834   6.616   0.188   6.698 -0.0194  0.6673 -0.5428
  299SOL    HW1 5835   6.567   0.159   6.621  0.9271 -1.5511 -0.3707
  299SOL    HW2 5836   6.551   0.232   6.752 -1.1323  0.5064 -1.7065
  300SOL     OW 5837   8.322   8.512   1.714 -0.0314 -0.0361  0.2196
  300SOL    HW1 5838   8.394   8.469   1.761  1.8506 -0.2010 -2.5751
  300SOL    HW2 5839   8.298   8.450   1.645 -0.7223  1.2938 -0.7814
  301SOL     OW 5840   4.325   6.418   7.986  0.3996  0.2511 -0.2070
  301SOL    HW1 5841   4.416   6.387   7.985  0.0955 -0.6938  0.6363
  301SOL    HW2 5842   4.303   6.428   7.893  1.2969  0.3168 -0.4292
  302SOL     OW 5843   2.164   9.069   6.276 -0.3239 -0.0778 -0.6068
  302SOL    HW1 5844   2.243   9.106   6.237  0.2373 -1.5266 -0.9143
  302SOL    HW2 5845   2.095   9.132   6.255  0.8824  1.6881  0.4767
  303SOL     OW 5846   3.594  11.309   1.385 -0.5942  0.6161 -0.1171
  303SOL    HW1 5847   3.553  11.256   1.317  0.6798  0.5444 -0.8557
  303SOL    HW2 5848   3.647  11.373   1.338  1.1885 -0.1406  0.7811
  304SOL     OW 5849   2.782   0.117   8.275  0.4293  0.0031 -0.1860
  304SOL    HW1 5850   2.735   0.157   8.348  2.0080  1.2730  0.1790
  304SOL    HW2 5851   2.736   0.148   8.197 -0.4800 -0.3340  0.1921
  305SOL     OW 5852   2.983   8.011   0.714 -0.0934  0.1405  0.2793
  305SOL    HW1 5853   3.070   7.987   0.746 -0.4269  0.1807  1.2590
  305SOL    HW2 5854   2.923   7.960   0.768 -0.6672 -1.0482 -1.3949
  306SOL     OW 5855   5.153   3.552   1.549  0.1169  0.0318  0.2280
  306SOL    HW1 5856   5.068   3.508   1.548  0.6657 -1.1016  1.4284
  306SOL    HW2 5857   5.133   3.643   1.529 -1.1738 -0.5281 -1.2139
  307SOL     OW 5858   7.936   8.942   7.042  0.4356  0.6048  0.6922
  307SOL    HW1 5859   7.980   8.861   7.067 -0.9164 -0.4167 -0.0667
  307SOL    HW2 5860   8.006   9.007   7.036  2.2192 -1.3399 -2.3571
  308SOL     OW 5861   0.465   3.519   2.215  0.4554  0.5085 -0.2325
  308SOL    HW1 5862   0.520   3.490   2.287  0.9209  0.9004 -0.4274
  308SOL    HW2 5863   0.521   3.576   2.162 -0.2180  1.1697 -0.2596
  309SOL     OW 5864   9.709   9.717  10.542 -0.5443  0.2876 -0.2716
  309SOL    HW1 5865   9.787   9.752  10.586 -1.4817  1.2155  0.6916
  309SOL    HW2 5866   9.668   9.661  10.607 -0.3645 -0.7300 -1.0013
  310SOL     OW 5867   8.664   6.688   2.010 -0.0224 -0.3416 -0.4101
  310SOL    HW1 5868   8.640   6.706   2.101 -0.4341  1.5353 -0.8562
  310SOL    HW2 5869   8.581   6.662   1.969 -0.1699  0.3836 -0.5933
  311SOL     OW 5870   9.673   5.395   8.354 -0.4399 -0.0897 -0.2182
  311SOL    HW1 5871   9.632   5.480   8.337  0.2456  0.1687 -0.6059
  311SOL    HW2 5872   9.758   5.400   8.311  0.9181  0.1915  2.3163
  312SOL     OW 5873   2.776   3.842   5.753  0.5465  0.1405 -0.0302
  312SOL    HW1 5874   2.866   3.874   5.748  0.5705  0.2130  0.7042
  312SOL    HW2 5875   2.756   3.842   5.847  0.0265 -0.5616 -0.1338
  313SOL     OW 5876   2.651   2.495   2.896  0.0551 -0.1668 -0.1097
  313SOL    HW1 5877   2.617   2.406   2.881  0.4465 -0.4826  0.8258
  313SOL    HW2 5878   2.605   2.526   2.974 -0.5809  0.7328 -0.8185
  314SOL     OW 5879   3.498  10.438   2.364  0.0968 -0.2387  0.2029
  314SOL    HW1 5880   3.488  10.497   2.289  3.3597  1.3591  0.8543
  314SOL    HW2 5881   3.523  10.496   2.436 -0.4926 -2.0349  1.9263
  315SOL     OW 5882   6.048  10.875   1.420 -0.5315  0.8543 -0.0059
  315SOL    HW1 5883   6.081  10.854   1.508 -0.0761  2.2838  0.1958
  315SOL    HW2 5884   5.957  10.901   1.434 -0.9318 -0.3786 -0.1848
  316SOL     OW 5885   8.390   1.837   0.483 -0.1602  0.1072 -0.1887
  316SOL    HW1 5886   8.416   1.782   0.557  1.3327 -0.5846 -1.1824
  316SOL    HW2 5887   8.294   1.836   0.485 -0.2026 -2.2634  0.0606
  317SOL     OW 5888   0.978   4.003  10.683 -0.1657 -0.8504  0.4506
  317SOL    HW1 5889   1.036   3.935  10.717  0.5997 -0.3059  0.2449
  317SOL    HW2 5890   1.008   4.083  10.725  0.1341 -0.3337 -0.7259
  318SOL     OW 5891   6.998   3.930   0.852  0.5987  0.4507 -0.4695
  318SOL    HW1 5892   7.084   3.892   0.831 -0.5711 -2.1947 -0.8344
  318SOL    HW2 5893   6.951   3.928   0.769 -1.4738 -2.9226  0.6122
  319SOL     OW 5894   9.837   4.187   1.561 -0.1063  0.1714 -0.4813
  319SOL    HW1 5895   9.831   4.194   1.656  1.3279 -2.9146 -0.0163
  319SOL    HW2 5896   9.861   4.095   1.546  0.8247  0.8327 -3.7769
  320SOL     OW 5897   6.294   3.974   2.530  0.0836 -0.4705 -0.2037
  320SOL    HW1 5898   6.265   3.970   2.621 -0.4790  1.3587 -0.2602
  320SOL    HW2 5899   6.234   3.916   2.484 -3.5109  2.8711 -0.2449
  321SOL     OW 5900   7.134   5.763   8.205 -0.4557  0.1784  0.3828
  321SOL    HW1 5901   7.122   5.793   8.115 -0.3139 -2.4961 -0.6492
  321SOL    HW2 5902   7.229   5.757   8.216 -0.4680 -1.0216  0.0675
  322SOL     OW 5903   5.497   0.861   2.292 -0.3446  0.0265 -0.0088
  322SOL    HW1 5904   5.522   0.953   2.294 -0.3500  0.0260  0.1012
  322SOL    HW2 5905   5.449   0.850   2.210 -1.6196  0.4521  0.6546
  323SOL     OW 5906   6.425   0.889  11.268  0.7860 -0.4637  0.1388
  323SOL    HW1 5907   6.485   0.961  11.290 -1.5303  1.5378  0.3879
  323SOL    HW2 5908   6.338   0.930  11.269 -0.3943 -2.5750 -2.9069
  324SOL     OW 5909   2.768   5.857   1.381  0.0133 -0.1681 -0.1360
  324SOL    HW1 5910   2.767   5.873   1.286  0.8502 -3.4011 -0.8189
  324SOL    HW2 5911   2.857   5.824   1.398 -0.5319 -0.8501  1.5241
  325SOL     OW 5912   8.113   7.871   6.235 -0.0667  0.0796 -0.5444
  325SOL    HW1 5913   8.099   7.820   6.314 -0.5114 -0.2950 -0.8575
  325SOL    HW2 5914   8.055   7.831   6.170  1.6334 -0.8186 -1.5946
  326SOL     OW 5915   1.627   7.868   2.981  0.4803  0.3915  0.4639
  326SOL    HW1 5916   1.550   7.814   2.966  0.2115  1.0822 -0.7550
  326SOL    HW2 5917   1.600   7.956   2.957  0.8564  1.1445  2.5764
  327SOL     OW 5918   9.181   2.639   5.406  0.0835  0.4142 -0.7665
  327SOL    HW1 5919   9.229   2.654   5.488  0.3927  1.5238 -1.1310
  327SOL    HW2 5920   9.179   2.544   5.396  2.3710  0.3310 -0.8250
  328SOL     OW 5921   5.736   0.853   6.092 -0.1569  0.2246 -0.2021
  328SOL    HW1 5922   5.817   0.832   6.046 -0.8437 -0.7079 -1.0227
  328SOL    HW2 5923   5.765   0.894   6.173  1.1516 -0.4354 -0.3056
  329SOL     OW 5924   9.025   5.907  11.051  0.0717  0.3876  0.3297
  329SOL    HW1 5925   9.047   5.964  11.125  1.0969 -0.2954  0.5658
  329SOL    HW2 5926   9.095   5.842  11.049 -0.5382 -0.2616 -0.5670
  330SOL     OW 5927  10.435   3.876  11.198 -0.3642  0.5752  0.0555
  330SOL    HW1 5928  10.494   3.910  11.130 -0.0463  0.3105  0.1983
  330SOL    HW2 5929  10.471   3.909  11.280  0.0979 -0.3016  0.2221
  331SOL     OW 5930   7.164   4.689   7.932 -0.1653 -0.3964 -0.1008
  331SOL    HW1 5931   7.087   4.726   7.975 -1.4964 -0.7466 -2.0455
  331SOL    HW2 5932   7.160   4.723   7.843  1.3135 -1.3381 -0.5579
  332SOL     OW 5933   3.345   6.372   2.676  0.1926  0.2586  0.0941
  332SOL    HW1 5934   3.266   6.426   2.682 -2.1317 -2.7610 -0.6778
  332SOL    HW2 5935   3.385   6.377   2.763 -0.9879  1.6949  0.5848
  333SOL     OW 5936   2.569  11.574   4.305  0.3505  0.1820 -0.1903
  333SOL    HW1 5937   2.510  11.603   4.236 -0.2769  0.4422  0.4427
  333SOL    HW2 5938   2.538  11.619   4.384  1.0071 -0.1646  0.2767
  334SOL     OW 5939   2.272   3.502  10.824  0.3158 -0.0907  0.2537
  334SOL    HW1 5940   2.285   3.505  10.919  0.7526  0.8254  0.1766
  334SOL    HW2 5941   2.215   3.576  10.805 -1.4689 -1.4443  0.0205
  335SOL     OW 5942   0.108   5.995   6.975 -0.3328 -0.5328  0.1347
  335SOL    HW1 5943   0.120   5.932   6.904  1.8992 -1.3184  1.1157
  335SOL    HW2 5944   0.153   6.074   6.945  0.2151 -0.7150  0.4558
  336SOL     OW 5945   2.050  11.632   6.914 -0.0195  0.1517 -0.3292
  336SOL    HW1 5946   2.008  11.718   6.910  1.7714  1.0457 -1.0619
  336SOL    HW2 5947   1.977  11.569   6.912 -1.5655  1.6080  3.2747
  337SOL     OW 5948   7.144   9.183   4.955  0.4678  0.3713 -0.1976
  337SOL    HW1 5949   7.180   9.202   4.868  3.7234 -2.0674  0.4585
  337SOL    HW2 5950   7.192   9.241   5.014  0.8271 -0.4911  0.3567
  338SOL     OW 5951   3.853   7.815   6.867 -0.3882 -0.6879 -0.2629
  338SOL    HW1 5952   3.876   7.908   6.854  1.4624 -0.6560  2.3548
  338SOL    HW2 5953   3.758   7.813   6.862 -0.4786  1.3695 -0.3791
  339SOL     OW 5954   3.921   5.957   7.275  0.1837 -0.2022  0.0032
  339SOL    HW1 5955   3.867   5.878   7.269  0.1935 -0.1411 -1.1602
  339SOL    HW2 5956   4.010   5.923   7.286 -0.1865 -0.2969  3.6992
  340SOL     OW 5957   7.334   7.175   6.746  0.5658 -0.2772 -0.3660
  340SOL    HW1 5958   7.247   7.207   6.767  0.9591  0.5864 -0.0284
  340SOL    HW2 5959   7.320   7.107   6.680 -0.3015  0.2820 -0.7560
  341SOL     OW 5960   4.070   8.908   5.111 -0.6532 -0.2111  0.3977
  341SOL    HW1 5961   4.027   8.823   5.121 -0.1114 -0.4568  0.6801
  341SOL    HW2 5962   4.149   8.902   5.166 -0.2732  0.2374 -0.0866
  342SOL     OW 5963   6.258   1.657   1.750 -0.5159  0.1002  0.4406
  342SOL    HW1 5964   6.343   1.689   1.781 -0.7892  1.6557 -0.3003
  342SOL    HW2 5965   6.274   1.636   1.657 -0.8832  0.1891  0.3573
  343SOL     OW 5966   7.488  11.175   3.125  0.3516  0.2093 -0.2083
  343SOL    HW1 5967   7.442  11.250   3.087 -0.5069 -0.5183 -0.6243
  343SOL    HW2 5968   7.443  11.099   3.089  1.0396 -0.5078  0.4345
  344SOL     OW 5969   1.937   8.076   5.712  0.5621  0.0135 -0.4178
  344SOL    HW1 5970   1.928   7.985   5.683  0.4046  0.1532 -0.8179
  344SOL    HW2 5971   1.908   8.127   5.637 -1.0194  0.3719  0.3997
  345SOL     OW 5972   6.808   6.273   3.226 -0.6889 -0.3339  0.6264
  345SOL    HW1 5973   6.803   6.237   3.137 -0.4728  0.7784  0.1444
  345SOL    HW2 5974   6.726   6.246   3.268 -1.1245 -0.2546 -0.1578
  346SOL     OW 5975   5.428   6.323   6.056  0.1902 -0.1904  0.5530
  346SOL    HW1 5976   5.364   6.253   6.042 -0.3070  0.3678 -0.0021
  346SOL    HW2 5977   5.503   6.298   6.001 -0.2261  0.0105 -0.1221
  347SOL     OW 5978   4.808   0.123   9.930  0.2902  0.1228 -0.9632
  347SOL    HW1 5979   4.747   0.089   9.865  0.9429 -0.1398 -1.4495
  347SOL    HW2 5980   4.856   0.046   9.961 -0.2124  0.1946  0.0618
  348SOL     OW 5981   6.144  10.357   8.724  0.3189  0.3568 -0.2360
  348SOL    HW1 5982   6.140  10.279   8.779 -0.3211 -0.7638 -1.8308
  348SOL    HW2 5983   6.237  10.368   8.704  0.4118  0.0323  0.0254
  349SOL     OW 5984   3.127   2.965  10.129  0.3331  0.1567 -0.6237
  349SOL    HW1 5985   3.178   2.900  10.081 -0.2476 -0.0557 -0.9653
  349SOL    HW2 5986   3.152   3.049  10.090  0.0482  0.0067 -1.1279
  350SOL     OW 5987   8.783   3.698   9.639 -0.3850  0.6494 -0.4496
  350SOL    HW1 5988   8.856   3.641   9.660 -1.3624 -0.1867  0.7692
  350SOL    HW2 5989   8.819   3.760   9.575  1.3800  0.2956  0.1554
  351SOL     OW 5990   1.168   6.368   4.248  0.3617 -0.0105  0.2878
  351SOL    HW1 5991   1.252   6.371   4.201  1.5302  2.3198  2.3140
  351SOL    HW2 5992   1.123   6.448   4.222 -0.4197 -0.3203  0.6606
  352SOL     OW 5993   2.828  10.438   3.982 -0.0001 -0.0681  0.2330
  352SOL    HW1 5994   2.902  10.418   3.925 -0.2935  0.2291 -0.2721
  352SOL    HW2 5995   2.862  10.431   4.071  0.5790 -0.1259  0.0081
  353SOL     OW 5996   7.246  10.895   5.064  0.4006 -0.0859 -0.3206
  353SOL    HW1 5997   7.212  10.984   5.057  0.3185  0.2872  3.2938
  353SOL    HW2 5998   7.340  10.906   5.080  0.4951 -0.6943 -0.4334
  354SOL     OW 5999   8.793   6.019   3.841  0.2647  0.4952 -0.2861
  354SOL    HW1 6000   8.746   6.094   3.879  1.6462  0.6760  1.2108
  354SOL    HW2 6001   8.761   5.943   3.890  1.9537  0.7107  1.2743
  355SOL     OW 6002   4.965   2.404   6.528  0.1122  0.0726 -0.2600
  355SOL    HW1 6003   4.928   2.378   6.444  2.7353 -0.7421 -1.2488
  355SOL    HW2 6004   4.959   2.500   6.529 -0.6274  0.0442 -0.9955
  356SOL     OW 6005   1.754   8.606   5.238 -0.5702  0.9914 -0.0578
  356SOL    HW1 6006   1.662   8.631   5.240 -0.5678  1.1436 -1.0165
  356SOL    HW2 6007   1.758   8.535   5.174 -0.4435 -0.9814  2.0147
  357SOL     OW 6008  10.724   6.012   9.634 -0.3578 -0.0255  0.1517
  357SOL    HW1 6009  10.647   6.022   9.578  0.1195 -0.8424 -0.6971
  357SOL    HW2 6010  10.749   5.920   9.624  0.0575 -0.0536  1.3148
  358SOL     OW 6011   4.845   3.328   3.173 -0.4965 -0.2402  0.3117
  358SOL    HW1 6012   4.799   3.376   3.105 -0.2337  0.7752  0.8315
  358SOL    HW2 6013   4.786   3.329   3.248  1.0889  2.9009  1.6925
  359SOL     OW 6014   3.955   6.178   9.933 -0.4199 -0.3861  0.6730
  359SOL    HW1 6015   3.885   6.113   9.932  0.8146 -1.7826 -0.3045
  359SOL    HW2 6016   4.035   6.126   9.925  0.6463  1.2405  0.3872
  360SOL     OW 6017   1.720  10.852   7.759 -0.3015 -0.0961 -0.0027
  360SOL    HW1 6018   1.796  10.899   7.724 -0.1862  0.2376  0.6712
  360SOL    HW2 6019   1.684  10.805   7.684 -0.6347  1.3519 -0.8005
  361SOL     OW 6020   0.243   5.974  11.374 -0.2304 -0.0142  0.3727
  361SOL    HW1 6021   0.196   5.992  11.456 -2.3087  0.5087 -0.8712
  361SOL    HW2 6022   0.273   5.883  11.384  1.2216  0.5983  2.4298
  362SOL     OW 6023   1.193   8.685   9.940  0.2827 -0.0169  0.3622
  362SOL    HW1 6024   1.232   8.607   9.900 -0.5307 -0.9357  1.2862
  362SOL    HW2 6025   1.102   8.662   9.953 -0.3774  1.7116 -0.8109
  363SOL     OW 6026   4.972   0.137   4.616 -0.2600 -0.0970 -0.2108
  363SOL    HW1 6027   4.937   0.199   4.679 -0.5359 -0.8786  0.4200
  363SOL    HW2 6028   5.007   0.191   4.545  1.6135  0.8714  1.3871
  364SOL     OW 6029   3.787   8.513   2.108 -0.3621 -0.2006 -0.6376
  364SOL    HW1 6030   3.760   8.597   2.071 -0.2115  0.0887 -0.0976
  364SOL    HW2 6031   3.771   8.522   2.202 -0.7578 -0.9366 -0.6293
  365SOL     OW 6032   7.041  10.491   0.904  0.0645 -0.0078  0.2956
  365SOL    HW1 6033   7.132  10.492   0.934  0.0485  1.9831  0.3930
  365SOL    HW2 6034   7.016  10.583   0.901 -1.4738 -0.4266 -1.2093
  366SOL     OW 6035   2.417   8.377   8.517 -0.5042 -0.6071 -0.2350
  366SOL    HW1 6036   2.452   8.337   8.437  1.8032  0.3148  0.2531
  366SOL    HW2 6037   2.387   8.303   8.569  0.4432 -1.4363 -0.8300
  367SOL     OW 6038   7.729   1.736   0.767  0.2219 -0.3567 -0.1031
  367SOL    HW1 6039   7.737   1.644   0.740 -2.1802 -0.1697 -1.6927
  367SOL    HW2 6040   7.635   1.755   0.761  0.6609  2.2348  0.1487
  368SOL     OW 6041   6.065   5.178  11.580 -0.0863 -0.2803  0.3859
  368SOL    HW1 6042   6.032   5.221  11.501  2.6035 -1.1562 -1.3235
  368SOL    HW2 6043   5.986   5.147  11.624 -1.7431  1.0920 -1.4084
  369SOL     OW 6044   5.436  11.431   1.400 -0.1070  0.1558  0.1485
  369SOL    HW1 6045   5.446  11.491   1.474  1.5589 -0.7122  0.6750
  369SOL    HW2 6046   5.341  11.421   1.390 -0.3768  0.7831  1.7675
  370SOL     OW 6047   6.467   3.893   9.397 -0.0508  0.3581 -0.0527
  370SOL    HW1 6048   6.408   3.847   9.457 -1.5768  1.8456 -0.3228
  370SOL    HW2 6049   6.525   3.943   9.454 -1.6769  1.9932  0.2908
  371SOL     OW 6050  10.528   5.114   2.220 -0.1688  0.4586 -0.5158
  371SOL    HW1 6051  10.583   5.175   2.270 -0.0498  0.3217 -0.4790
  371SOL    HW2 6052  10.590   5.058   2.174 -0.2598  1.4194 -1.8686
  372SOL     OW 6053  11.106   1.155  11.468 -0.0450  0.1778 -0.3514
  372SOL    HW1 6054  11.072   1.085  11.525  0.6582  0.5533  0.5577
  372SOL    HW2 6055  11.071   1.235  11.506 -0.3956  0.3707 -1.0654
  373SOL     OW 6056   8.327   4.290   7.959  0.1831  0.0247  0.0579
  373SOL    HW1 6057   8.274   4.213   7.937 -0.4002  0.7670 -1.2182
  373SOL    HW2 6058   8.405   4.283   7.903 -0.2041  0.7202 -0.5760
  374SOL     OW 6059   8.225   7.469   0.201 -0.0007  0.1530 -0.2533
  374SOL    HW1 6060   8.308   7.425   0.179  0.2101  0.0269  0.7643
  374SOL    HW2 6061   8.227   7.479   0.296 -1.5981 -0.7344 -0.0867
  375SOL     OW 6062   6.646  11.658   1.159  0.1937  0.0050  0.8955
  375SOL    HW1 6063   6.569  11.693   1.204  0.1906 -0.7726  1.5365
  375SOL    HW2 6064   6.686  11.733   1.116 -1.1836  0.3443  0.1465
  376SOL     OW 6065   3.386   5.034  10.527 -0.1843 -0.0461 -0.0392
  376SOL    HW1 6066   3.395   5.038  10.622  0.8131 -0.2877 -0.1169
  376SOL    HW2 6067   3.321   4.965  10.512 -1.2839  0.8365  0.4939
  377SOL     OW 6068   1.735   8.427   0.381 -0.1019 -0.4113 -0.0799
  377SOL    HW1 6069   1.789   8.471   0.447 -0.6665 -0.3755  0.3700
  377SOL    HW2 6070   1.787   8.352   0.353  0.0299 -0.5912  0.6161
  378SOL     OW 6071   2.843   5.612   8.515  0.0308 -0.5375 -0.1655
  378SOL    HW1 6072   2.861   5.522   8.491 -2.0192 -0.4594 -2.4271
  378SOL    HW2 6073   2.781   5.606   8.588 -1.3908 -1.0324 -1.3806
  379SOL     OW 6074   4.405   0.177  10.654 -0.4167  0.0582 -0.0907
  379SOL    HW1 6075   4.354   0.242  10.607 -0.5465  2.1803  2.7525
  379SOL    HW2 6076   4.342   0.108  10.676 -0.8202  0.0974 -1.0627
  380SOL     OW 6077   7.169   4.463   8.608 -0.8559 -0.0687  0.1096
  380SOL    HW1 6078   7.162   4.494   8.518 -1.0891 -1.4255 -0.3605
  380SOL    HW2 6079   7.160   4.368   8.602 -2.5411 -0.0810  1.7145
  381SOL     OW 6080   5.880   2.958  10.185 -0.5061 -1.0116 -0.0475
  381SOL    HW1 6081   5.825   2.994  10.255 -0.4432 -0.8119 -0.0981
  381SOL    HW2 6082   5.942   2.901  10.229 -1.5291 -2.2011 -0.1117
  382SOL     OW 6083   2.776   1.738   4.629  0.6577  0.0441  0.5031
  382SOL    HW1 6084   2.765   1.833   4.635 -0.1279 -0.1256  2.2550
  382SOL    HW2 6085   2.780   1.721   4.535  0.0507  1.7325  0.1338
  383SOL     OW 6086   4.153   2.724   7.635  0.0218 -0.4691 -0.1995
  383SOL    HW1 6087   4.226   2.780   7.611  0.4277 -1.6199 -1.7770
  383SOL    HW2 6088   4.083   2.785   7.658  0.6114  0.6779 -1.3353
  384SOL     OW 6089   6.700   5.074   9.572  0.0908  0.8060 -0.7042
  384SOL    HW1 6090   6.664   5.030   9.495  1.4291  0.9925 -1.4781
  384SOL    HW2 6091   6.712   5.004   9.636 -2.0835  0.8207 -0.1964
  385SOL     OW 6092   6.930   9.027   1.022  0.1562 -0.0666  0.4031
  385SOL    HW1 6093   7.005   9.082   0.998 -1.5868  1.5944 -1.5092
  385SOL    HW2 6094   6.855   9.085   1.020 -1.3902 -1.9002  1.3330
  386SOL     OW 6095   6.029   0.288   6.279 -0.3016  0.0701  0.2650
  386SOL    HW1 6096   5.991   0.287   6.367  2.6529 -1.0813  1.6548
  386SOL    HW2 6097   6.058   0.378   6.266 -1.6052  0.4758  0.0106
  387SOL     OW 6098   4.725   7.874   2.901 -0.2212 -0.1126  0.0083
  387SOL    HW1 6099   4.763   7.790   2.877 -0.1104 -0.4920  1.4183
  387SOL    HW2 6100   4.631   7.862   2.887 -0.0564  0.0936 -1.3667
  388SOL     OW 6101   4.531  10.746   8.586  1.1542 -0.2716  0.1712
  388SOL    HW1 6102   4.451  10.695   8.600  1.7175 -1.2057  0.0608
  388SOL    HW2 6103   4.499  10.834   8.565  0.1815 -0.1585  1.8817
  389SOL     OW 6104   7.969   3.355   7.733 -0.4464 -0.8313 -0.0411
  389SOL    HW1 6105   8.006   3.320   7.651  1.3413  0.3610  0.1998
  389SOL    HW2 6106   7.992   3.448   7.732  1.3405 -1.1233  2.6494
  390SOL     OW 6107   2.254   7.199  11.515  0.2474 -0.3789 -0.1509
  390SOL    HW1 6108   2.245   7.125  11.574 -0.1876  1.0764  1.6954
  390SOL    HW2 6109   2.349   7.209  11.504  0.3342 -0.6707  0.3023
  391SOL     OW 6110   0.878   1.304   4.868 -0.3741 -0.8272 -0.0407
  391SOL    HW1 6111   0.852   1.396   4.866  0.2894 -0.6451 -0.9499
  391SOL    HW2 6112   0.937   1.294   4.793  0.2516 -1.7885  0.5568
  392SOL     OW 6113   8.219   5.521   8.845  0.5629 -0.2235 -0.4979
  392SOL    HW1 6114   8.129   5.506   8.816  0.6625  0.3947 -1.1478
  392SOL    HW2 6115   8.210   5.583   8.918  0.5498  1.1110 -1.5904
  393SOL     OW 6116   0.513   4.725   2.179 -0.5258 -0.3386 -0.1961
  393SOL    HW1 6117   0.549   4.750   2.265 -0.2966 -2.3031  0.3268
  393SOL    HW2 6118   0.422   4.754   2.182 -0.5601 -0.4977  0.7710
  394SOL     OW 6119   3.607   0.370  10.454 -0.1101  0.3092  0.0979
  394SOL    HW1 6120   3.547   0.363  10.380  1.6559 -0.9155 -1.3351
  394SOL    HW2 6121   3.604   0.284  10.496  0.5408  0.2465  0.0400
  395SOL     OW 6122  11.611   1.309   3.824 -0.4341  0.3157  0.0418
  395SOL    HW1 6123  11.683   1.250   3.846 -0.3743  1.0840  2.2079
  395SOL    HW2 6124  11.653   1.394   3.813 -1.0186  0.9342  2.1277
  396SOL     OW 6125   8.818  10.771   9.950 -0.0309 -0.1407  0.1748
  396SOL    HW1 6126   8.778  10.791  10.035 -0.8365 -1.2883  0.0891
  396SOL    HW2 6127   8.826  10.856   9.907  0.0623  0.4184  1.2507
  397SOL     OW 6128  10.505   7.466   9.125  0.1432  0.3361 -0.3766
  397SOL    HW1 6129  10.570   7.473   9.054  1.2870  0.0500  0.6124
  397SOL    HW2 6130  10.435   7.525   9.098  1.0660  1.1031 -1.2186
  398SOL     OW 6131   2.990   2.527   7.656  0.4967 -0.2180 -0.5144
  398SOL    HW1 6132   2.980   2.438   7.689  1.2311 -0.6455 -1.4036
  398SOL    HW2 6133   3.056   2.567   7.713  1.1755 -0.6993 -0.9385
  399SOL     OW 6134   7.558   2.032   5.026 -0.1521  0.0911  0.1281
  399SOL    HW1 6135   7.631   2.094   5.016 -0.1132 -0.0203 -0.2850
  399SOL    HW2 6136   7.543   1.998   4.938  0.9824 -1.8031  0.6009
  400SOL     OW 6137   0.671   9.808   3.162  0.6931 -0.7901 -0.6617
  400SOL    HW1 6138   0.693   9.742   3.228  3.1105  0.0462 -0.5595
  400SOL    HW2 6139   0.755   9.834   3.124 -0.3159  1.2845 -1.6315
  401SOL     OW 6140   6.718   1.508   1.337 -0.1533  0.2651  0.0463
  401SOL    HW1 6141   6.661   1.546   1.270 -0.2113 -0.2264 -0.1888
  401SOL    HW2 6142   6.788   1.465   1.287  0.2908  0.6547  0.3275
  402SOL     OW 6143   6.312   6.764   4.020  0.4365 -0.0138  0.1171
  402SOL    HW1 6144   6.400   6.787   3.993  0.5084 -0.6732 -0.2270
  402SOL    HW2 6145   6.255   6.801   3.952  0.5798 -1.1893 -0.6698
  403SOL     OW 6146  10.721  10.855   0.703 -0.2421  0.2431  0.3031
  403SOL    HW1 6147  10.788  10.797   0.738  0.7966  0.4317 -1.2881
  403SOL    HW2 6148  10.751  10.876   0.615 -2.1819  0.6922 -0.2922
  404SOL     OW 6149   1.988   4.716   7.022 -0.5905 -0.5884  0.2950
  404SOL    HW1 6150   1.904   4.754   6.997 -0.4673  1.0860  2.1645
  404SOL    HW2 6151   1.982   4.704   7.116  1.2671 -0.4348  0.4720
  405SOL     OW 6152   7.887   7.895   8.049  0.4975  0.1133 -0.0600
  405SOL    HW1 6153   7.831   7.955   8.098 -1.1474 -2.6527  1.6860
  405SOL    HW2 6154   7.865   7.910   7.958 -2.2461  0.0033  0.5113
  406SOL     OW 6155   8.278   8.728   7.468  0.1971 -0.4770  0.2021
  406SOL    HW1 6156   8.363   8.751   7.431  0.2789  0.2323  0.8047
  406SOL    HW2 6157   8.239   8.812   7.493 -0.0655 -0.8868  1.2398
  407SOL     OW 6158   0.095   5.634   5.785  0.1697 -0.3942 -0.5245
  407SOL    HW1 6159   0.036   5.664   5.716  1.3836  1.2872 -0.9022
  407SOL    HW2 6160   0.070   5.543   5.800 -0.5706 -0.6102 -2.7006
  408SOL     OW 6161   4.219   3.762  10.200 -0.2784 -0.4104  0.9013
  408SOL    HW1 6162   4.301   3.714  10.209  0.3374  0.9135  3.1058
  408SOL    HW2 6163   4.244   3.846  10.162 -0.7951 -0.4031  0.5567
  409SOL     OW 6164   6.918   0.888   2.607 -0.5956  0.2061 -0.6351
  409SOL    HW1 6165   6.866   0.963   2.637 -0.2979 -0.0516  0.5711
  409SOL    HW2 6166   6.863   0.812   2.625 -0.1655 -0.0006 -0.1962
  410SOL     OW 6167   1.431   7.096   2.896  0.1840 -0.1974 -0.2556
  410SOL    HW1 6168   1.424   7.167   2.960  0.6973 -0.9251  0.6469
  410SOL    HW2 6169   1.376   7.027   2.932  0.6291 -0.6834 -0.4971
  411SOL     OW 6170   2.179   2.487   7.786 -0.4009  0.2889 -0.4080
  411SOL    HW1 6171   2.167   2.560   7.847 -1.3365 -0.2938  0.1162
  411SOL    HW2 6172   2.253   2.514   7.731 -0.5387  1.4924 -0.0208
  412SOL     OW 6173   0.197  10.302   8.599 -0.2285 -0.1816  0.4678
  412SOL    HW1 6174   0.200  10.211   8.629 -0.0437  0.6100  3.1321
  412SOL    HW2 6175   0.137  10.345   8.660  1.3468  1.9106  0.6487
  413SOL     OW 6176   0.296   0.898  10.184 -0.1161 -0.4686  0.4309
  413SOL    HW1 6177   0.273   0.828  10.246 -0.8865  0.8806  1.7419
  413SOL    HW2 6178   0.307   0.853  10.100  0.1831 -2.2568  1.3769
  414SOL     OW 6179  10.585   4.445   5.928 -0.1031 -0.0307  0.0243
  414SOL    HW1 6180  10.659   4.488   5.971 -0.4375  0.9472 -0.3493
  414SOL    HW2 6181  10.508   4.494   5.958 -0.3899  0.3620 -1.2673
  415SOL     OW 6182   2.829   4.696   2.737  0.2432  0.0023 -0.0851
  415SOL    HW1 6183   2.858   4.775   2.691  1.2338 -0.4519 -0.2675
  415SOL    HW2 6184   2.734   4.693   2.723  0.5144 -0.1626 -2.1819
  416SOL     OW 6185  10.479   3.568   0.261 -1.2027 -0.2751 -0.1685
  416SOL    HW1 6186  10.444   3.644   0.307  0.5306  0.8507 -0.6133
  416SOL    HW2 6187  10.525   3.605   0.185 -0.3867 -1.7660 -0.4361
  417SOL     OW 6188   5.625   3.660   9.901 -0.6796  0.0820  0.3459
  417SOL    HW1 6189   5.558   3.600   9.869  0.6812 -0.6256 -1.3403
  417SOL    HW2 6190   5.708   3.616   9.881  0.3173  1.2019  1.7997
  418SOL     OW 6191   5.581   7.415   1.300  0.6019 -0.0233  0.4221
  418SOL    HW1 6192   5.600   7.439   1.391 -0.9262  0.4504  0.6501
  418SOL    HW2 6193   5.563   7.322   1.303  1.3987 -0.1826  0.4470
  419SOL     OW 6194   1.803   8.041   0.134 -0.1453  0.1724 -0.0433
  419SOL    HW1 6195   1.804   8.031   0.039 -2.8397 -0.5364 -0.0646
  419SOL    HW2 6196   1.741   8.113   0.150 -1.1562 -0.9297  1.2089
  420SOL     OW 6197  10.530   4.610   6.694 -0.6753 -0.5052  0.2387
  420SOL    HW1 6198  10.565   4.695   6.720  0.6659 -1.1278  0.5948
  420SOL    HW2 6199  10.589   4.579   6.625 -2.0059 -0.5215 -0.9255
  421SOL     OW 6200  10.964   0.202   0.779 -0.2344 -0.2567  0.0483
  421SOL    HW1 6201  10.955   0.150   0.699 -1.8954  0.3831 -0.2197
  421SOL    HW2 6202  10.935   0.290   0.755  0.6132  0.3179  1.0051
  422SOL     OW 6203   0.206   3.709   5.874 -0.1813 -0.4180  0.4272
  422SOL    HW1 6204   0.153   3.756   5.810 -1.6739 -0.6209  1.4795
  422SOL    HW2 6205   0.221   3.623   5.834  3.1841  1.0058 -1.8381
  423SOL     OW 6206   6.955   6.926   0.746 -0.0593  0.6716 -0.3426
  423SOL    HW1 6207   7.045   6.922   0.778 -0.6127  0.3762  1.3100
  423SOL    HW2 6208   6.953   7.002   0.688  1.1522  0.9423 -0.0580
  424SOL     OW 6209   2.203   5.336   8.555  0.0802  0.3477  0.6452
  424SOL    HW1 6210   2.269   5.266   8.555  0.3455  0.5949  0.8183
  424SOL    HW2 6211   2.191   5.358   8.647  0.4637  0.9633  0.5555
  425SOL     OW 6212   0.782  10.694   6.406  0.1126  0.1737  0.0969
  425SOL    HW1 6213   0.756  10.781   6.374 -0.1646  1.1902  2.8184
  425SOL    HW2 6214   0.755  10.694   6.498  1.0301 -2.4517  0.4323
  426SOL     OW 6215   0.257   0.143   1.510 -0.0682 -0.4141  0.5353
  426SOL    HW1 6216   0.165   0.168   1.522  0.0381 -0.2091  0.9501
  426SOL    HW2 6217   0.268   0.135   1.416  0.2347  2.3534  0.2670
  427SOL     OW 6218  10.415   8.334   1.242  0.2216 -0.1988 -0.3396
  427SOL    HW1 6219  10.447   8.318   1.153 -1.1143 -0.7367 -0.7467
  427SOL    HW2 6220  10.389   8.426   1.242 -1.2172 -0.5789 -1.0047
  428SOL     OW 6221   3.163   8.080   7.802 -0.1873 -0.1101 -0.0287
  428SOL    HW1 6222   3.079   8.110   7.768  0.0478 -0.3240 -0.8175
  428SOL    HW2 6223   3.155   7.984   7.805  1.3372 -0.5623 -3.9290
  429SOL     OW 6224   6.403   6.943  11.561 -0.2842 -0.4147 -0.2145
  429SOL    HW1 6225   6.438   6.895  11.637  1.1832 -0.1913 -0.7139
  429SOL    HW2 6226   6.469   7.011  11.544 -0.4568 -0.6182 -1.8399
  430SOL     OW 6227   6.509   4.524   8.410 -0.1297  0.6192 -0.2071
  430SOL    HW1 6228   6.456   4.445   8.415 -0.5539  0.8799 -0.5806
  430SOL    HW2 6229   6.568   4.519   8.485 -2.2801  1.5040  1.6328
  431SOL     OW 6230   8.836   0.065   6.386  0.2289  0.0874 -0.5209
  431SOL    HW1 6231   8.784   0.099   6.458  1.6550 -0.1074  0.6580
  431SOL    HW2 6232   8.918   0.114   6.390 -0.5085  1.8359 -3.5921
  432SOL     OW 6233   6.137   0.857   1.897 -0.3957  0.5795 -0.4544
  432SOL    HW1 6234   6.098   0.771   1.884  0.7388  0.1804 -1.4123
  432SOL    HW2 6235   6.213   0.841   1.953 -1.2961  1.2765  1.0263
  433SOL     OW 6236   8.314   2.201   5.327 -0.2289  0.0594  0.8131
  433SOL    HW1 6237   8.304   2.296   5.317  0.6851  0.0763 -0.1048
  433SOL    HW2 6238   8.245   2.176   5.389 -2.6342  0.8150 -1.4120
  434SOL     OW 6239  10.593   7.858  11.038  0.4504 -0.7954  0.2719
  434SOL    HW1 6240  10.549   7.940  11.060  0.5983 -0.4119 -0.8391
  434SOL    HW2 6241  10.562   7.796  11.104 -0.8982 -0.2583  0.1672
  435SOL     OW 6242  11.333   2.391   2.901  0.0940 -0.1700  0.2945
  435SOL    HW1 6243  11.253   2.385   2.953 -0.1892 -0.7838 -0.2077
  435SOL    HW2 6244  11.398   2.344   2.953 -0.3799 -1.4677 -0.2563
  436SOL     OW 6245   4.185   7.821   1.301  0.2323 -0.5253  0.2177
  436SOL    HW1 6246   4.108   7.771   1.275 -0.1681  0.5249 -0.6724
  436SOL    HW2 6247   4.157   7.870   1.378  0.0609 -0.2837  0.0034
  437SOL     OW 6248   9.917  10.612  10.917  0.2681  0.0881 -0.3236
  437SOL    HW1 6249  10.011  10.595  10.925  0.6473  2.1365  0.0629
  437SOL    HW2 6250   9.895  10.577  10.830  1.3216 -0.6455 -0.3231
  438SOL     OW 6251   3.534   9.632  10.420 -0.2961  0.9626  0.1367
  438SOL    HW1 6252   3.487   9.574  10.479 -0.9348  0.4317 -0.8729
  438SOL    HW2 6253   3.500   9.720  10.440 -0.3706  0.8136  0.6742
  439SOL     OW 6254   4.289   2.302   3.347 -0.9218  0.1573  0.1643
  439SOL    HW1 6255   4.245   2.262   3.272 -0.1080  1.5114 -1.0858
  439SOL    HW2 6256   4.273   2.396   3.338  0.1670  0.4594  1.0243
  440SOL     OW 6257  10.956   9.712  10.113 -0.1646 -0.0794  0.1359
  440SOL    HW1 6258  10.868   9.695  10.144 -0.2024 -0.5857 -0.2400
  440SOL    HW2 6259  10.955   9.683  10.022 -0.1312  1.5844 -0.4319
  441SOL     OW 6260   6.130   7.936   4.788 -0.0972  0.1978 -0.1248
  441SOL    HW1 6261   6.047   7.977   4.810 -1.0064 -1.1709 -0.8337
  441SOL    HW2 6262   6.115   7.843   4.803  0.9537 -0.1878 -1.2684
  442SOL     OW 6263   0.094   5.979   8.637 -0.1344 -0.0462  0.2393
  442SOL    HW1 6264   0.017   6.030   8.612 -0.2107  0.4124  1.3627
  442SOL    HW2 6265   0.072   5.889   8.612 -0.6701  0.2227 -0.2680
  443SOL     OW 6266   3.621   0.138   8.246  0.0648 -0.0734  0.1529
  443SOL    HW1 6267   3.609   0.065   8.306 -2.0955 -0.7108 -0.9635
  443SOL    HW2 6268   3.572   0.210   8.285  2.7256  1.1044  1.5923
  444SOL     OW 6269   7.819   4.122   6.735 -0.1186  0.3033 -0.1145
  444SOL    HW1 6270   7.902   4.080   6.711  0.1488  1.0389 -0.5376
  444SOL    HW2 6271   7.833   4.215   6.714 -0.6261  0.6309  0.9548
  445SOL     OW 6272  10.918   0.960   3.808 -0.3109 -0.0372  0.2615
  445SOL    HW1 6273  10.916   1.012   3.889 -1.4212  1.0817 -0.4588
  445SOL    HW2 6274  11.011   0.959   3.783 -0.3473  2.4512 -0.2024
  446SOL     OW 6275   3.957   4.590  11.123  0.1329  0.6847 -0.0778
  446SOL    HW1 6276   3.897   4.522  11.092  0.8503  0.2252 -0.4844
  446SOL    HW2 6277   3.960   4.579  11.218  0.5856 -0.1410 -0.1831
  447SOL     OW 6278   2.984   7.996   5.691  0.3913  0.2187  0.6425
  447SOL    HW1 6279   2.891   8.008   5.672  0.9845  1.2361 -2.0762
  447SOL    HW2 6280   3.006   7.912   5.651  0.6802  0.0269  1.1947
  448SOL     OW 6281   4.695   0.457  10.564 -0.3876  0.0737  0.4438
  448SOL    HW1 6282   4.771   0.453  10.505  0.5309  0.1418  1.5827
  448SOL    HW2 6283   4.625   0.495  10.510 -0.4160 -2.4109 -1.4238
  449SOL     OW 6284   3.230   8.472   9.410  0.3714  0.1667 -0.3523
  449SOL    HW1 6285   3.324   8.488   9.422  0.6445 -2.2642  1.5298
  449SOL    HW2 6286   3.191   8.505   9.491  0.1106 -1.9562  0.4414
  450SOL     OW 6287   6.240   9.619   0.028  0.2388 -0.2593  0.5688
  450SOL    HW1 6288   6.276   9.578   0.106 -3.1469 -2.6229  1.0438
  450SOL    HW2 6289   6.296   9.587  -0.043  0.6267 -1.7921  1.5142
  451SOL     OW 6290  10.316  10.814   7.067  0.1565  0.1639 -0.0912
  451SOL    HW1 6291  10.286  10.813   6.976 -1.3742 -0.8719  0.3790
  451SOL    HW2 6292  10.276  10.736   7.107  0.8806  0.5287  1.4447
  452SOL     OW 6293   6.102   3.957  11.234  0.2244  0.4493 -0.5912
  452SOL    HW1 6294   6.057   4.003  11.163  0.7296 -0.1574 -1.3201
  452SOL    HW2 6295   6.194   3.956  11.207  0.3333 -0.2921 -0.2060
  453SOL     OW 6296   0.497   7.315  10.756 -0.3659  0.3055  0.1960
  453SOL    HW1 6297   0.533   7.386  10.809 -0.4197 -0.0486  0.7225
  453SOL    HW2 6298   0.565   7.297  10.691  0.1080  0.1322  0.7266
  454SOL     OW 6299   2.183   1.841   5.902 -0.0494  0.0786 -1.1856
  454SOL    HW1 6300   2.270   1.879   5.893 -0.2323  0.5615 -0.9769
  454SOL    HW2 6301   2.169   1.835   5.996  1.0458 -3.0649 -1.1119
  455SOL     OW 6302   9.874   8.388   7.735 -0.1778 -0.4760  0.6667
  455SOL    HW1 6303   9.779   8.381   7.745 -0.1987  0.2394  1.0048
  455SOL    HW2 6304   9.902   8.445   7.807  0.4857 -0.5651  0.4822
  456SOL     OW 6305   8.858   9.175   8.101  0.5346 -0.7752  0.5268
  456SOL    HW1 6306   8.868   9.082   8.082  1.9022 -0.3988 -0.7970
  456SOL    HW2 6307   8.945   9.212   8.085  0.2616  0.5767  1.9888
  457SOL     OW 6308   4.183   6.250   2.796 -0.2115  0.3510 -0.8072
  457SOL    HW1 6309   4.238   6.220   2.724  0.1983 -0.9707  0.0242
  457SOL    HW2 6310   4.136   6.326   2.760  0.4270  0.0977 -2.2577
  458SOL     OW 6311   8.633   1.884   0.336  0.1253 -0.1278  0.3049
  458SOL    HW1 6312   8.564   1.867   0.400 -1.2337 -3.0244 -1.6535
  458SOL    HW2 6313   8.611   1.970   0.299 -1.2973 -0.1103  1.1155
  459SOL     OW 6314  10.466   4.003   8.416  0.4955  0.2334  0.4682
  459SOL    HW1 6315  10.460   4.086   8.462  1.8693  1.0439 -0.7498
  459SOL    HW2 6316  10.539   3.958   8.458  0.0024 -0.2179  0.8651
  460SOL     OW 6317   0.174  10.498   6.603  0.5033 -0.1190 -0.0238
  460SOL    HW1 6318   0.251  10.470   6.653  0.0596  2.0429  2.0361
  460SOL    HW2 6319   0.100  10.462   6.651  0.0864  1.5839  0.6810
  461SOL     OW 6320   4.726   6.195   0.771  0.6210 -0.4755 -0.0202
  461SOL    HW1 6321   4.810   6.177   0.812 -0.5327 -1.1680  2.1763
  461SOL    HW2 6322   4.666   6.131   0.809 -0.8526 -0.2487 -1.7986
  462SOL     OW 6323   7.274   0.766   8.627 -0.7908 -0.2322 -0.2248
  462SOL    HW1 6324   7.276   0.671   8.619 -0.1937 -0.5311  2.4456
  462SOL    HW2 6325   7.195   0.793   8.580  0.1110 -1.7693 -2.7940
  463SOL     OW 6326   0.303  10.145   7.590 -0.0375  0.2304 -0.2321
  463SOL    HW1 6327   0.290  10.092   7.511  0.9760 -1.8927  0.9172
  463SOL    HW2 6328   0.227  10.126   7.644  0.4895 -0.3508  0.3224
  464SOL     OW 6329   2.740   1.920   1.944 -0.1844  0.1905 -0.3828
  464SOL    HW1 6330   2.745   1.839   1.893 -1.7227 -0.8404  1.0027
  464SOL    HW2 6331   2.701   1.894   2.027  0.2778  2.1923  0.5209
  465SOL     OW 6332   3.570   7.095   9.643  0.1770  0.5724  0.5290
  465SOL    HW1 6333   3.513   7.020   9.627  2.3802 -1.2273  0.6568
  465SOL    HW2 6334   3.561   7.149   9.564  0.2972 -1.0485 -0.6514
  466SOL     OW 6335   2.187   1.130   0.777  0.0644  0.8580  0.1308
  466SOL    HW1 6336   2.165   1.108   0.867 -0.7328  3.3793  0.6364
  466SOL    HW2 6337   2.167   1.223   0.769  2.2864  1.2770 -1.9911
  467SOL     OW 6338   7.472   9.298   6.358  0.5365 -0.4362 -0.5417
  467SOL    HW1 6339   7.447   9.269   6.270 -2.1147  0.3197 -0.1406
  467SOL    HW2 6340   7.496   9.390   6.347  0.3429 -0.3813 -0.5181
  468SOL     OW 6341   2.482   4.948   0.998  0.1435 -0.0208 -0.1233
  468SOL    HW1 6342   2.419   4.998   1.050  0.3129 -0.6951  0.7508
  468SOL    HW2 6343   2.430   4.882   0.952  0.2211 -0.6788  0.7210
  469SOL     OW 6344   5.289   3.659   6.504  0.5207 -0.8964 -0.2789
  469SOL    HW1 6345   5.345   3.729   6.471  0.7473 -1.2783 -0.7364
  469SOL    HW2 6346   5.200   3.694   6.497  0.7644  0.3843  2.1055
  470SOL     OW 6347   3.841   9.596  11.103 -0.0382  0.2767  0.9019
  470SOL    HW1 6348   3.782   9.663  11.070 -0.6428 -0.4301  0.5257
  470SOL    HW2 6349   3.823   9.519  11.050  1.5788  0.1715  0.4308
  471SOL     OW 6350   9.873   2.777   7.447  0.2145 -0.3439  0.3563
  471SOL    HW1 6351   9.792   2.824   7.427 -0.9829 -2.8333 -1.1997
  471SOL    HW2 6352   9.846   2.710   7.510  1.4870 -0.0211  1.2616
  472SOL     OW 6353   7.875   4.866  10.222 -0.1607 -0.6264 -0.1890
  472SOL    HW1 6354   7.892   4.901  10.134 -0.7964  0.3357  0.0622
  472SOL    HW2 6355   7.961   4.867  10.265 -0.3351  1.8651  0.2340
  473SOL     OW 6356   3.257   4.144   7.757  0.0044 -0.1470  0.5805
  473SOL    HW1 6357   3.171   4.179   7.736  0.7500  1.4770  0.0243
  473SOL    HW2 6358   3.318   4.208   7.720  1.4925 -2.2170 -0.7987
  474SOL     OW 6359   2.957   8.724   2.986  0.2199 -0.0497  0.3847
  474SOL    HW1 6360   2.985   8.773   2.909  0.3558  0.8282  0.9840
  474SOL    HW2 6361   3.029   8.663   3.003  0.0490 -0.4762 -0.3607
  475SOL     OW 6362   0.389   9.150   7.269  0.7548 -0.4967 -0.6264
  475SOL    HW1 6363   0.375   9.077   7.208 -0.6409 -0.8647  0.0850
  475SOL    HW2 6364   0.300   9.181   7.289  0.8946 -2.0889  3.2560
  476SOL     OW 6365   1.266   7.347   0.764 -0.5603 -0.0981 -0.2394
  476SOL    HW1 6366   1.257   7.382   0.853  0.7160  0.5434 -0.3466
  476SOL    HW2 6367   1.194   7.284   0.756 -0.6612 -0.2108  1.2587
  477SOL     OW 6368  11.355   9.853  10.854  0.0395 -0.6403 -0.3243
  477SOL    HW1 6369  11.382   9.784  10.794 -1.8746 -1.4097 -0.3739
  477SOL    HW2 6370  11.262   9.868  10.833 -0.8726 -1.2817  2.7362
  478SOL     OW 6371   7.087  10.549   2.318  0.2395  0.5066 -0.3925
  478SOL    HW1 6372   7.076  10.619   2.254 -1.3383 -0.4211 -1.1921
  478SOL    HW2 6373   7.146  10.487   2.276 -0.4634  0.0989 -0.7843
  479SOL     OW 6374   0.973   7.823   8.114  0.2503 -0.0480  0.0840
  479SOL    HW1 6375   1.003   7.911   8.138 -0.5349 -0.1714  1.6358
  479SOL    HW2 6376   0.900   7.838   8.054 -1.3499  0.4764  2.0574
  480SOL     OW 6377   7.912   1.025   4.544 -0.3150 -0.0670  0.0221
  480SOL    HW1 6378   7.876   0.965   4.480  0.3003 -0.3900 -0.0246
  480SOL    HW2 6379   7.901   0.981   4.628 -3.7008  1.4932  0.5818
  481SOL     OW 6380   7.582   5.569  11.446  0.1192 -0.6074 -0.6998
  481SOL    HW1 6381   7.556   5.489  11.492  0.0937  0.2644  0.8456
  481SOL    HW2 6382   7.526   5.572  11.369 -0.5300 -1.5855 -0.2818
  482SOL     OW 6383   3.497   6.493   7.727  0.1753 -0.6042  0.5902
  482SOL    HW1 6384   3.415   6.528   7.762  0.5074  1.5164 -0.5824
  482SOL    HW2 6385   3.478   6.472   7.636  1.2124  1.2709 -0.1287
  483SOL     OW 6386   1.135   6.842   9.334  0.7005 -0.2401 -0.4183
  483SOL    HW1 6387   1.189   6.764   9.320  1.1769  0.1304 -0.6815
  483SOL    HW2 6388   1.061   6.832   9.274  0.3114 -0.8962  0.1607
  484SOL     OW 6389   0.590   1.481   4.564  0.7080  0.1237 -0.2664
  484SOL    HW1 6390   0.630   1.409   4.613  0.2826  1.4799  2.3069
  484SOL    HW2 6391   0.664   1.532   4.532  1.0882  0.4313  1.0081
  485SOL     OW 6392  11.613   7.656   7.151  0.3531 -0.1370 -0.6185
  485SOL    HW1 6393  11.635   7.572   7.111 -1.2887 -1.5594  1.2846
  485SOL    HW2 6394  11.669   7.661   7.228 -1.0540 -0.5498  0.4660
  486SOL     OW 6395  11.087   3.921   1.679  0.2760  0.0673  0.0686
  486SOL    HW1 6396  11.142   3.894   1.606 -1.4826 -1.3371 -0.7856
  486SOL    HW2 6397  11.139   3.900   1.757  1.5394  0.1862 -0.7150
  487SOL     OW 6398   5.550   5.137   1.267 -0.0594  0.0258  0.4056
  487SOL    HW1 6399   5.609   5.062   1.264  1.3075  1.0905 -0.7982
  487SOL    HW2 6400   5.607   5.211   1.288 -0.6928  1.2794 -1.9846
  488SOL     OW 6401   6.059   9.761   7.752 -0.0782 -0.1483 -0.0646
  488SOL    HW1 6402   5.967   9.739   7.769 -0.1308  0.7234  0.8273
  488SOL    HW2 6403   6.079   9.830   7.814  1.4910 -1.0200  0.4537
  489SOL     OW 6404  11.618   0.232   4.324  0.1167  0.1980  0.5858
  489SOL    HW1 6405  11.666   0.229   4.241  0.4154  1.2444  0.7157
  489SOL    HW2 6406  11.667   0.292   4.379  0.8551 -1.7472  2.1537
  490SOL     OW 6407   2.705   7.347   2.332 -0.0789 -0.7317 -0.3432
  490SOL    HW1 6408   2.752   7.420   2.373 -1.3014 -0.2557  0.2512
  490SOL    HW2 6409   2.622   7.385   2.304  0.8941 -0.8291 -3.9223
  491SOL     OW 6410  11.241   7.395   0.779  0.3343 -0.6731 -0.5754
  491SOL    HW1 6411  11.264   7.468   0.722 -2.1258  1.4778  0.9999
  491SOL    HW2 6412  11.147   7.382   0.765  0.3644 -2.3765  0.5251
  492SOL     OW 6413  10.609   9.981   8.681  0.4484 -0.2558  0.5657
  492SOL    HW1 6414  10.689   9.936   8.707  1.0012 -0.7426 -1.7552
  492SOL    HW2 6415  10.637  10.070   8.660  0.3304 -0.3416  0.0379
  493SOL     OW 6416   3.123   1.375   0.218 -0.7540  0.1264 -0.2076
  493SOL    HW1 6417   3.071   1.371   0.138 -0.6482  0.0902 -0.2746
  493SOL    HW2 6418   3.140   1.469   0.230 -1.9855  0.2800  0.5620
  494SOL     OW 6419   4.920  11.366   0.494  0.3511 -0.0100 -0.0346
  494SOL    HW1 6420   4.920  11.436   0.428 -0.1105 -0.0293 -0.0594
  494SOL    HW2 6421   4.875  11.404   0.569 -1.0290 -0.6830 -0.4975
  495SOL     OW 6422  10.479   7.848   7.196  0.2837 -0.1579 -0.1161
  495SOL    HW1 6423  10.455   7.939   7.213 -0.4994 -0.1601 -1.1369
  495SOL    HW2 6424  10.415   7.818   7.132  0.3898 -1.5016  0.3715
  496SOL     OW 6425   2.259   8.021  11.373 -0.6915 -0.0152 -0.2382
  496SOL    HW1 6426   2.171   8.025  11.336  0.3892 -0.4755 -3.0992
  496SOL    HW2 6427   2.305   7.958  11.318  1.3944  0.0746  1.2986
  497SOL     OW 6428   8.477   2.663   2.850  0.2039 -0.0902 -0.1941
  497SOL    HW1 6429   8.550   2.725   2.852 -1.5039  2.0691 -0.4218
  497SOL    HW2 6430   8.479   2.619   2.935  2.0202 -0.4386 -0.3857
  498SOL     OW 6431   1.575  10.853   5.297  0.4963  0.0735 -0.0736
  498SOL    HW1 6432   1.526  10.925   5.336  1.1909  0.8469 -0.5951
  498SOL    HW2 6433   1.661  10.857   5.338  0.9063  0.2645 -0.9344
  499SOL     OW 6434   0.724   7.339   5.810 -0.0774  0.2593 -0.3103
  499SOL    HW1 6435   0.721   7.263   5.752 -1.2099  0.4727 -0.5602
  499SOL    HW2 6436   0.674   7.406   5.763 -0.7245  0.5448  0.7544
  500SOL     OW 6437  11.113   2.764   0.833  0.2661  0.2143 -0.1353
  500SOL    HW1 6438  11.054   2.839   0.835 -1.6672 -1.2365  0.7219
  500SOL    HW2 6439  11.132   2.752   0.740 -1.5266  0.2405 -0.5553
  501SOL     OW 6440   3.487   5.519  11.419  0.1202  0.1809  0.7246
  501SOL    HW1 6441   3.409   5.465  11.436  0.4774  0.3583  3.4217
  501SOL    HW2 6442   3.552   5.486  11.481  1.8099  0.8726 -0.6011
  502SOL     OW 6443   3.300  10.581   2.641  0.4559  0.1464  0.3554
  502SOL    HW1 6444   3.334  10.567   2.729  2.6114  1.1922 -0.2226
  502SOL    HW2 6445   3.329  10.504   2.592 -0.5102 -0.3074  0.4720
  503SOL     OW 6446   0.001  11.396   3.371  0.0621 -0.6441  0.1514
  503SOL    HW1 6447   0.014  11.484   3.405 -0.6190 -1.2864  2.2875
  503SOL    HW2 6448  -0.094  11.386   3.366 -0.0313 -2.1181  2.7164
  504SOL     OW 6449   3.403   5.467   0.471 -0.3552 -0.4021 -0.3222
  504SOL    HW1 6450   3.359   5.517   0.539 -1.9130 -2.0253 -0.0735
  504SOL    HW2 6451   3.333   5.433   0.415  0.5490 -2.6767 -0.2006
  505SOL     OW 6452   8.135   5.931   5.322 -0.0659  0.4487 -0.4775
  505SOL    HW1 6453   8.059   5.970   5.366 -0.5254  0.9895 -1.7316
  505SOL    HW2 6454   8.205   5.994   5.337 -0.5442  1.2666 -1.5989
  506SOL     OW 6455  11.110   4.463   0.165 -0.7588 -0.3415 -0.4085
  506SOL    HW1 6456  11.038   4.517   0.199  0.6473 -0.4227  3.1653
  506SOL    HW2 6457  11.077   4.374   0.170 -0.5343 -0.3765  1.2017
  507SOL     OW 6458   8.680   7.991  10.310  0.1484 -0.7102  0.1239
  507SOL    HW1 6459   8.691   8.023  10.221 -0.5654 -1.6771 -0.3238
  507SOL    HW2 6460   8.585   7.994  10.325 -0.4322 -5.5596 -1.1244
  508SOL     OW 6461  10.301  10.112   8.627  0.8263 -0.6964  0.3882
  508SOL    HW1 6462  10.345  10.040   8.581 -0.4568 -1.3376  0.1055
  508SOL    HW2 6463  10.331  10.191   8.583  0.1012 -1.2623 -1.2114
  509SOL     OW 6464   7.811   7.385   4.984 -0.1943  0.1978  0.0589
  509SOL    HW1 6465   7.850   7.329   4.917  1.7950  2.6418 -1.0009
  509SOL    HW2 6466   7.751   7.442   4.936 -0.9225  0.1144  0.8437
  510SOL     OW 6467   1.921   2.580   6.820  0.2593  0.2132  0.2160
  510SOL    HW1 6468   1.985   2.598   6.751  0.8545 -2.1331  0.0418
  510SOL    HW2 6469   1.849   2.641   6.804  0.4606 -0.1440 -2.3953
  511SOL     OW 6470   6.233   8.810   8.038 -0.5056  0.1577 -0.2690
  511SOL    HW1 6471   6.193   8.880   8.090 -1.5543 -0.0868 -0.7233
  511SOL    HW2 6472   6.287   8.856   7.974 -0.0208  0.4960  0.3772
  512SOL     OW 6473   9.178   7.840   8.029 -0.5498  0.0916  0.3006
  512SOL    HW1 6474   9.085   7.818   8.024 -1.1650  2.6324 -0.4260
  512SOL    HW2 6475   9.211   7.823   7.941 -0.2531 -0.9582  0.5983
  513SOL     OW 6476   0.706   0.080  10.215 -0.0611  0.3774 -0.2793
  513SOL    HW1 6477   0.783   0.134  10.197  0.4220 -0.6317 -1.4572
  513SOL    HW2 6478   0.684   0.042  10.130 -0.4429 -1.1856  0.4895
  514SOL     OW 6479   0.670   1.996  11.354  0.1155 -0.0475 -0.0146
  514SOL    HW1 6480   0.693   1.921  11.408  0.8170  0.0561 -0.1530
  514SOL    HW2 6481   0.735   1.995  11.283  0.1796  0.7235  0.0242
  515SOL     OW 6482   3.665   7.928  10.039 -0.1000  0.4421 -0.0998
  515SOL    HW1 6483   3.757   7.953  10.034 -0.3204  1.4346  0.5475
  515SOL    HW2 6484   3.625   7.967   9.961 -0.3891  1.9636  0.7667
  516SOL     OW 6485   2.254   4.704   3.705 -0.3612 -0.1909 -0.1280
  516SOL    HW1 6486   2.206   4.623   3.688  0.3167 -1.1274  2.0930
  516SOL    HW2 6487   2.203   4.748   3.774  0.5639  0.0746  0.4065
  517SOL     OW 6488   9.470   8.087   8.495 -0.6622  0.2126 -0.7203
  517SOL    HW1 6489   9.529   8.155   8.528 -0.3804  0.0520 -0.8831
  517SOL    HW2 6490   9.499   8.073   8.404  0.9872 -1.9222  0.0371
  518SOL     OW 6491   0.925  10.904   9.067  0.1166 -0.2058  0.7554
  518SOL    HW1 6492   0.948  10.823   9.022 -0.6968 -1.0920  1.8811
  518SOL    HW2 6493   0.978  10.903   9.147  1.9550  1.6125 -0.3344
  519SOL     OW 6494   7.597   1.632   1.625  0.6546 -0.2126  0.0082
  519SOL    HW1 6495   7.649   1.557   1.654  3.0631  0.8982 -1.1776
  519SOL    HW2 6496   7.576   1.613   1.534 -1.3543 -0.7488  0.5206
  520SOL     OW 6497   8.541   6.429   7.791 -0.1986  0.3060  0.2635
  520SOL    HW1 6498   8.533   6.403   7.882 -0.4430  0.6029  0.3267
  520SOL    HW2 6499   8.607   6.370   7.755  0.3654  0.6111  0.7914
  521SOL     OW 6500   3.847   6.818   1.852  0.0757  0.0708  0.1748
  521SOL    HW1 6501   3.828   6.748   1.789 -0.6246 -0.8203  1.3249
  521SOL    HW2 6502   3.927   6.858   1.819 -0.6593  0.1343 -1.6786
  522SOL     OW 6503   9.383  10.024   1.842 -0.4923  0.0964  0.0705
  522SOL    HW1 6504   9.445  10.077   1.793  0.0897 -0.8965 -0.2933
  522SOL    HW2 6505   9.436   9.955   1.882 -1.4681 -1.4408 -1.1528
  523SOL     OW 6506   3.438   6.755   6.571 -0.0432  0.0362 -0.4749
  523SOL    HW1 6507   3.494   6.831   6.556  0.0848  0.4062  1.5685
  523SOL    HW2 6508   3.352   6.782   6.537 -0.6547  2.1665  2.3264
  524SOL     OW 6509   9.658  11.213   2.243  0.7734 -0.3188  0.1315
  524SOL    HW1 6510   9.748  11.207   2.277  0.5193 -1.2279  0.6744
  524SOL    HW2 6511   9.626  11.297   2.277  1.0407 -0.5138  0.8845
  525SOL     OW 6512  10.371   4.653   7.643 -0.0362  0.5667  0.3474
  525SOL    HW1 6513  10.439   4.605   7.595  0.1076  0.5296  0.5906
  525SOL    HW2 6514  10.406   4.742   7.651 -0.0128  0.5444  0.4836
  526SOL     OW 6515   3.079   3.387   0.918 -0.0383  0.2910 -0.0380
  526SOL    HW1 6516   3.107   3.476   0.898  0.6760  0.0826  0.0073
  526SOL    HW2 6517   3.126   3.365   0.999  2.0514 -1.1430 -1.5432
  527SOL     OW 6518   7.921   9.774   4.574  0.1844 -0.2385  0.2639
  527SOL    HW1 6519   7.854   9.766   4.642  1.7471  0.6943  2.0365
  527SOL    HW2 6520   7.941   9.868   4.571 -0.0522 -0.2029 -1.7682
  528SOL     OW 6521   3.044   4.829   1.602  0.4544  0.4439  0.3430
  528SOL    HW1 6522   3.027   4.749   1.552  2.4352 -0.2761  0.7399
  528SOL    HW2 6523   3.044   4.899   1.536  1.6370 -0.3074 -0.4818
  529SOL     OW 6524   9.958   5.529   6.400 -0.2309 -0.7079  0.0478
  529SOL    HW1 6525   9.938   5.496   6.313  0.3404  0.8506 -0.7149
  529SOL    HW2 6526   9.912   5.614   6.404  0.4398 -0.3743  0.9303
  530SOL     OW 6527   5.402   4.915   1.963 -0.1778  0.0772 -0.0705
  530SOL    HW1 6528   5.399   4.875   2.050  1.8605 -1.3249 -0.5737
  530SOL    HW2 6529   5.341   4.863   1.911 -0.5823  0.2345  0.2356
  531SOL     OW 6530   1.905   8.331   4.617 -0.1311  0.0674 -0.1144
  531SOL    HW1 6531   1.825   8.317   4.669  0.2595  0.3432  0.5801
  531SOL    HW2 6532   1.885   8.293   4.532 -0.8168 -0.3481  0.2177
  532SOL     OW 6533   1.003   4.502   9.727 -0.0712  0.4187  0.0903
  532SOL    HW1 6534   1.016   4.597   9.717  1.4344  0.3707  1.2658
  532SOL    HW2 6535   0.936   4.495   9.795  0.1031  0.6321  0.2858
  533SOL     OW 6536   0.409   8.653   5.513 -0.1368  0.4001  0.1457
  533SOL    HW1 6537   0.403   8.711   5.588 -0.1775 -0.4390  0.8098
  533SOL    HW2 6538   0.452   8.705   5.445  2.3430  0.3836  1.5809
  534SOL     OW 6539   0.007   0.975  10.503 -0.1021 -0.5010  0.1007
  534SOL    HW1 6540   0.042   0.894  10.465  0.6436  0.5221 -1.5359
  534SOL    HW2 6541   0.074   1.004  10.564 -0.1647 -0.8758  0.3506
  535SOL     OW 6542   9.646  10.581   8.269  0.7825  0.5536  0.0863
  535SOL    HW1 6543   9.676  10.501   8.225 -1.1994 -1.1863  1.6347
  535SOL    HW2 6544   9.561  10.600   8.227  0.2840  0.6145  1.1027
  536SOL     OW 6545   0.175   6.621   9.870 -0.3576  0.2866  0.2276
  536SOL    HW1 6546   0.199   6.708   9.838 -0.5788  0.6040  0.8974
  536SOL    HW2 6547   0.257   6.571   9.869 -0.2998  0.3874 -0.4992
  537SOL     OW 6548  11.680   2.494   4.657  0.1010  0.2519  0.1694
  537SOL    HW1 6549  11.764   2.450   4.644  0.7302  1.4010  0.1776
  537SOL    HW2 6550  11.666   2.544   4.576 -1.0743 -0.6928 -0.2405
  538SOL     OW 6551   7.084   9.761   4.544  0.2145 -0.1238 -0.3276
  538SOL    HW1 6552   7.029   9.790   4.472 -0.9790  1.0289  0.9982
  538SOL    HW2 6553   7.173   9.783   4.516  0.0372 -1.6598 -2.3315
  539SOL     OW 6554   6.895  10.810   4.443  0.3928  0.4740  0.0987
  539SOL    HW1 6555   6.928  10.825   4.355  0.5047  0.1179  0.0767
  539SOL    HW2 6556   6.972  10.820   4.500  1.1202 -2.5292 -0.1419
  540SOL     OW 6557   5.303   0.860   4.498 -0.2173 -0.5504  0.2253
  540SOL    HW1 6558   5.227   0.829   4.449 -0.4935  1.4579 -0.7410
  540SOL    HW2 6559   5.341   0.928   4.443 -0.3753  1.6364  2.6134
  541SOL     OW 6560   1.905   3.617   5.796  0.2282 -0.5809 -0.0712
  541SOL    HW1 6561   1.979   3.614   5.857 -0.3008  1.3469  0.7108
  541SOL    HW2 6562   1.915   3.699   5.749 -0.2775 -1.2847 -1.4848
  542SOL     OW 6563   4.139   2.086   2.312 -0.0500  0.0571  0.0762
  542SOL    HW1 6564   4.223   2.123   2.284 -0.2404 -0.7885 -1.7525
  542SOL    HW2 6565   4.075   2.151   2.286  0.0378  1.2662  2.5371
  543SOL     OW 6566   8.669   7.200   8.713  0.0104 -0.1308 -0.3659
  543SOL    HW1 6567   8.672   7.286   8.671  0.5140  0.1426  0.2083
  543SOL    HW2 6568   8.578   7.190   8.740 -0.3279 -0.3309 -1.5478
  544SOL     OW 6569   1.847   2.777   6.632 -0.4330 -0.2563 -0.5320
  544SOL    HW1 6570   1.802   2.857   6.605  0.4364  0.9598  1.3830
  544SOL    HW2 6571   1.782   2.708   6.620 -1.7293  0.9597 -0.7989
  545SOL     OW 6572   0.449   7.474   2.127 -0.6821 -0.7500 -0.2579
  545SOL    HW1 6573   0.424   7.383   2.145  0.7253 -1.4929 -1.7640
  545SOL    HW2 6574   0.540   7.468   2.099 -0.8155  1.0365 -1.1930
  546SOL     OW 6575   2.630   1.196   1.385  0.2739  0.0212  0.0697
  546SOL    HW1 6576   2.548   1.146   1.394 -0.2041  0.9258  0.8813
  546SOL    HW2 6577   2.644   1.235   1.471  0.9216  0.8631 -0.4071
  547SOL     OW 6578   6.656   9.754   6.940  0.4312  0.2423 -0.5237
  547SOL    HW1 6579   6.607   9.712   7.010 -2.9511  2.3291 -1.3353
  547SOL    HW2 6580   6.729   9.696   6.922 -2.2794 -3.8364  0.2095
  548SOL     OW 6581   2.917   9.462   7.384 -0.4599 -0.0104 -0.0701
  548SOL    HW1 6582   2.965   9.518   7.445 -0.1674 -0.8326  0.4710
  548SOL    HW2 6583   2.969   9.382   7.379 -1.2590 -0.5267 -0.2497
  549SOL     OW 6584   2.899   4.914   4.620  0.6091  0.1611 -0.5400
  549SOL    HW1 6585   2.894   4.858   4.542  1.0229 -0.8363  0.1359
  549SOL    HW2 6586   2.947   4.862   4.684  2.0049  1.7326 -0.2469
  550SOL     OW 6587   0.830  11.112   0.517  0.0362 -0.1435  0.1961
  550SOL    HW1 6588   0.898  11.062   0.562  0.6578 -0.3566 -0.9314
  550SOL    HW2 6589   0.807  11.059   0.441 -0.4569  0.5403 -0.1461
  551SOL     OW 6590   7.645   7.689   1.869 -0.1971 -0.0428 -0.3630
  551SOL    HW1 6591   7.566   7.734   1.838 -2.2519 -2.5093  0.9126
  551SOL    HW2 6592   7.629   7.674   1.962  0.1736 -3.5065 -0.7342
  552SOL     OW 6593   3.034   1.415   6.842 -0.8794  0.0031  0.4702
  552SOL    HW1 6594   3.022   1.494   6.789 -0.7691 -0.6096 -0.4907
  552SOL    HW2 6595   3.051   1.345   6.778  0.7370 -0.4952  1.3767
  553SOL     OW 6596   1.030   9.711  10.579  0.3738 -0.1108  0.1617
  553SOL    HW1 6597   1.036   9.708  10.675  0.6574  0.8313  0.1749
  553SOL    HW2 6598   0.936   9.720  10.562  0.3664  0.1711  0.3577
  554SOL     OW 6599   8.632   3.273   6.468  0.4355 -0.1587  0.3067
  554SOL    HW1 6600   8.583   3.264   6.550 -1.3259 -0.2950 -0.7080
  554SOL    HW2 6601   8.570   3.247   6.400  1.5725  0.7565 -1.1419
  555SOL     OW 6602   0.804   4.849   0.131  0.2327  0.4805 -0.5745
  555SOL    HW1 6603   0.859   4.878   0.059  0.2737 -0.0105 -0.7502
  555SOL    HW2 6604   0.822   4.910   0.202  1.1539  0.2044 -0.5649
  556SOL     OW 6605   9.668   6.917   4.568 -0.1860 -0.0541 -0.3365
  556SOL    HW1 6606   9.595   6.935   4.508 -0.9858 -0.2991  0.5370
  556SOL    HW2 6607   9.703   6.833   4.538 -0.9051 -0.4262 -0.1687
  557SOL     OW 6608   8.266   5.780   2.211  0.1743 -0.5836  0.0313
  557SOL    HW1 6609   8.342   5.742   2.168  0.2124 -0.9142  0.3847
  557SOL    HW2 6610   8.205   5.799   2.140  0.9981  0.6736 -0.3776
  558SOL     OW 6611   2.938   4.847  10.324 -0.3992 -0.4675 -0.0590
  558SOL    HW1 6612   2.937   4.764  10.276 -2.2497 -1.8093  2.0751
  558SOL    HW2 6613   2.953   4.821  10.415 -0.0048  1.6691  0.5373
  559SOL     OW 6614   6.933   8.427   3.659  0.5666  0.0165  0.1090
  559SOL    HW1 6615   6.853   8.462   3.621  1.0835 -0.0305 -1.0623
  559SOL    HW2 6616   7.002   8.488   3.632  1.3807 -1.4804 -1.4424
  560SOL     OW 6617   3.624   1.132   2.522  0.0155 -0.1817 -0.2676
  560SOL    HW1 6618   3.551   1.190   2.503 -0.5317 -1.2138 -1.5040
  560SOL    HW2 6619   3.583   1.050   2.549  0.6171 -1.2075 -2.2536
  561SOL     OW 6620   4.033   2.317   9.306  0.6419 -0.6674 -0.1782
  561SOL    HW1 6621   4.128   2.326   9.307  0.6957 -1.2716  0.6622
  561SOL    HW2 6622   4.002   2.399   9.267  1.5110 -0.5478 -0.6456
  562SOL     OW 6623   8.792   8.472   2.362 -0.0815 -0.0490  0.3779
  562SOL    HW1 6624   8.784   8.387   2.405 -0.8760  0.6598  1.6869
  562SOL    HW2 6625   8.772   8.536   2.430 -0.0638  1.1737 -0.7181
  563SOL     OW 6626   4.385   1.118   9.764  0.2735 -0.1110 -0.0677
  563SOL    HW1 6627   4.479   1.132   9.754 -0.0558  1.4737 -1.6643
  563SOL    HW2 6628   4.359   1.180   9.832  0.0917  1.1485 -1.2302
  564SOL     OW 6629  10.767   3.727   0.301  0.2707 -0.1535  0.5278
  564SOL    HW1 6630  10.834   3.757   0.239  0.6170  1.7145  1.7201
  564SOL    HW2 6631  10.776   3.632   0.301  1.3497 -0.1071 -1.0532
  565SOL     OW 6632   2.123   1.345   5.369 -0.1026 -0.0733  0.3246
  565SOL    HW1 6633   2.073   1.418   5.404  0.2193  1.0326 -1.4146
  565SOL    HW2 6634   2.057   1.284   5.335 -0.3498 -0.3313  1.2423
  566SOL     OW 6635  11.363   3.854   8.592  0.0677 -0.0264 -0.2841
  566SOL    HW1 6636  11.331   3.824   8.677  0.3495  0.3521 -0.0433
  566SOL    HW2 6637  11.293   3.911   8.559  0.1439  0.1621 -0.1184
  567SOL     OW 6638   6.790   2.382   8.711  0.3194 -0.4110  0.0366
  567SOL    HW1 6639   6.840   2.452   8.669 -1.0151  0.2913 -0.4604
  567SOL    HW2 6640   6.811   2.303   8.661  1.3040 -0.2364  0.1641
  568SOL     OW 6641   8.955   8.458   8.114  0.2934  0.1507 -0.1037
  568SOL    HW1 6642   8.997   8.372   8.122  0.4719  0.1650 -0.8377
  568SOL    HW2 6643   9.025   8.521   8.129  0.7616  0.1848 -2.1912
  569SOL     OW 6644   8.079   7.292  11.646 -0.5323  0.0907  0.0380
  569SOL    HW1 6645   8.148   7.232  11.673  1.5544  2.4952  0.4029
  569SOL    HW2 6646   8.099   7.312  11.554 -0.4889  1.0795  0.2515
  570SOL     OW 6647   1.943   1.578   8.053  0.2294 -0.1810 -0.4619
  570SOL    HW1 6648   1.849   1.557   8.047  0.3292 -0.3781 -1.5083
  570SOL    HW2 6649   1.966   1.610   7.965  0.8088  1.2941  0.1946
  571SOL     OW 6650   6.345   8.074  10.663  0.1495  0.1797 -0.3071
  571SOL    HW1 6651   6.438   8.053  10.660 -0.3352 -2.2951 -0.0693
  571SOL    HW2 6652   6.301   7.993  10.638 -1.9769  0.8605  0.9485
  572SOL     OW 6653  11.531   2.996   2.397  0.6494 -0.4927 -0.2614
  572SOL    HW1 6654  11.456   3.005   2.455  1.4266  0.3115  0.6628
  572SOL    HW2 6655  11.530   3.075   2.344  0.9509 -0.3873 -0.1111
  573SOL     OW 6656  11.572   3.966  10.902 -0.0077 -0.2286 -0.0784
  573SOL    HW1 6657  11.652   4.014  10.884 -0.4961  0.1626 -1.2989
  573SOL    HW2 6658  11.567   3.900  10.833 -0.4025 -0.6963  0.3815
  574SOL     OW 6659   4.920   0.479   0.730 -0.2894 -0.1711 -0.8440
  574SOL    HW1 6660   4.952   0.569   0.721  0.3532 -0.4166 -1.0352
  574SOL    HW2 6661   4.999   0.425   0.727 -0.4407 -0.6061  1.4903
  575SOL     OW 6662   3.304   4.015   6.398  0.1775 -0.2407 -0.3983
  575SOL    HW1 6663   3.229   4.069   6.375  0.9359  1.5188  1.0235
  575SOL    HW2 6664   3.273   3.961   6.471 -0.1922 -0.8192 -0.9688
  576SOL     OW 6665   6.764  10.481   1.884 -0.4953  0.2747 -0.4880
  576SOL    HW1 6666   6.687  10.426   1.903 -0.2724 -0.0840 -0.6033
  576SOL    HW2 6667   6.817  10.477   1.963  0.2186 -0.8577 -0.9945
  577SOL     OW 6668   6.348   9.765   4.742  0.3067 -0.2018  1.0537
  577SOL    HW1 6669   6.395   9.725   4.815  0.6746 -0.5372  0.6418
  577SOL    HW2 6670   6.350   9.699   4.673  3.0399  1.3208 -0.5301
  578SOL     OW 6671   1.778   5.806   1.703  0.0629  0.5824 -0.3643
  578SOL    HW1 6672   1.755   5.802   1.610  2.1837 -1.8288 -0.8770
  578SOL    HW2 6673   1.797   5.716   1.727  1.0499  1.3621  2.0446
  579SOL     OW 6674   0.124   2.713   0.406  0.5600  0.4612  0.1107
  579SOL    HW1 6675   0.151   2.643   0.346  0.7829  0.9042 -0.3091
  579SOL    HW2 6676   0.054   2.674   0.459 -0.4268  0.4168 -1.1964
  580SOL     OW 6677   0.832   3.110   6.215  1.0038  0.4009  0.0473
  580SOL    HW1 6678   0.780   3.190   6.222 -0.6344 -0.4398 -1.7580
  580SOL    HW2 6679   0.782   3.054   6.157  2.6284 -1.5595  0.4393
  581SOL     OW 6680   2.180  11.478   3.607  0.3242 -0.0200  0.1549
  581SOL    HW1 6681   2.100  11.528   3.589  0.2568 -0.8470 -2.1434
  581SOL    HW2 6682   2.250  11.540   3.589  0.2759  0.6643  2.0420
  582SOL     OW 6683  10.794   2.752   6.442 -0.2905  0.1531 -0.1071
  582SOL    HW1 6684  10.738   2.807   6.497  1.1982  1.8976 -0.2443
  582SOL    HW2 6685  10.877   2.748   6.489 -0.1795 -1.5978 -0.3745
  583SOL     OW 6686   6.212   9.613   8.139  0.0863  0.4781  0.6414
  583SOL    HW1 6687   6.285   9.568   8.182  2.1676 -1.4000 -4.1238
  583SOL    HW2 6688   6.253   9.688   8.095 -0.5316 -0.8765 -2.5393
  584SOL     OW 6689   2.025   6.230   1.505 -0.4676 -0.1351  0.4499
  584SOL    HW1 6690   1.998   6.305   1.557 -0.6042  0.8742 -0.9957
  584SOL    HW2 6691   1.942   6.194   1.471 -0.3764 -0.6933  0.8190
  585SOL     OW 6692   4.987   1.460   9.559 -0.4211  0.1640 -0.4475
  585SOL    HW1 6693   4.987   1.542   9.510 -0.6660  0.9484  0.8350
  585SOL    HW2 6694   5.026   1.482   9.643 -1.1317 -0.8819  0.1714
  586SOL     OW 6695   2.939   1.947   3.670 -0.4232 -0.0296 -0.0434
  586SOL    HW1 6696   2.853   1.928   3.633 -0.4755  0.5341 -0.2276
  586SOL    HW2 6697   2.980   2.005   3.606 -0.0857  0.0618  0.2533
  587SOL     OW 6698   6.461   1.723   7.759  0.2202 -0.1854  0.2921
  587SOL    HW1 6699   6.369   1.721   7.788  0.1578 -0.3663  0.0891
  587SOL    HW2 6700   6.460   1.777   7.680  0.1086 -1.0305 -0.2984
  588SOL     OW 6701   6.968   1.562   9.103 -0.0125 -0.0949 -0.2861
  588SOL    HW1 6702   6.921   1.619   9.041  1.3337 -0.3790 -1.6155
  588SOL    HW2 6703   6.917   1.481   9.104 -0.9867  0.5016  0.3099
  589SOL     OW 6704   5.745   1.042   1.334 -0.8100  0.0149 -0.2729
  589SOL    HW1 6705   5.789   0.992   1.402  0.0748  2.3760  1.0163
  589SOL    HW2 6706   5.706   0.976   1.276 -0.1041 -2.0838  1.5267
  590SOL     OW 6707   1.723   8.842   4.364  0.0251  0.0147  0.3186
  590SOL    HW1 6708   1.731   8.783   4.439 -4.0760  0.9583  1.7419
  590SOL    HW2 6709   1.792   8.907   4.378  1.1537 -1.4075  1.6814
  591SOL     OW 6710   0.981   2.685   4.304 -0.7252  0.2440 -0.2417
  591SOL    HW1 6711   0.898   2.695   4.257  0.7992 -1.2722 -3.6027
  591SOL    HW2 6712   0.975   2.598   4.343 -0.7534  0.1333 -0.4857
  592SOL     OW 6713   0.775   8.009   3.630  0.1475 -0.0008  0.0974
  592SOL    HW1 6714   0.856   8.026   3.678  0.3003  3.3242 -1.0912
  592SOL    HW2 6715   0.795   8.030   3.539 -1.2931 -2.0104 -0.7553
  593SOL     OW 6716   5.762  11.621   3.518 -0.5671  0.1759 -0.3318
  593SOL    HW1 6717   5.724  11.699   3.477 -0.9504  0.4378  0.4817
  593SOL    HW2 6718   5.849  11.614   3.481 -0.4248  1.1634 -0.2214
  594SOL     OW 6719   1.086   1.960   2.924  0.4327 -0.4305  0.6348
  594SOL    HW1 6720   1.162   1.904   2.910  0.6936  0.0518  0.0470
  594SOL    HW2 6721   1.077   2.009   2.842  0.5272  0.7371  1.2887
  595SOL     OW 6722   0.184   8.183   5.635 -0.0269  0.9409  0.4471
  595SOL    HW1 6723   0.238   8.131   5.694  0.3142  2.4221  1.5015
  595SOL    HW2 6724   0.098   8.187   5.677 -0.0638  1.1921  0.3556
  596SOL     OW 6725   1.791   3.762   1.222 -0.0067  0.0676  0.0005
  596SOL    HW1 6726   1.740   3.829   1.178  0.6523  0.5033 -0.1128
  596SOL    HW2 6727   1.861   3.810   1.267 -0.3299 -0.4146  1.0646
  597SOL     OW 6728   9.656  10.160  10.995 -0.8064  0.4390 -0.1286
  597SOL    HW1 6729   9.677  10.252  11.008 -2.0120  1.1854 -2.6880
  597SOL    HW2 6730   9.570  10.149  11.036 -1.0907  0.7449 -0.6198
  598SOL     OW 6731  10.259   6.953   0.157  0.0070 -0.3715  0.1779
  598SOL    HW1 6732  10.334   6.937   0.100  1.0964  0.0764  1.4521
  598SOL    HW2 6733  10.193   6.890   0.126  0.2422  0.4011 -2.0786
  599SOL     OW 6734   8.537   5.140   0.329  0.5213 -0.0313 -0.2022
  599SOL    HW1 6735   8.491   5.222   0.342 -0.5206 -0.3180 -1.8412
  599SOL    HW2 6736   8.596   5.156   0.256 -1.7550 -1.4397 -2.5337
  600SOL     OW 6737   6.185   9.226   5.732  0.0810  0.0732  0.8593
  600SOL    HW1 6738   6.172   9.231   5.638  0.1742  1.4430  0.8964
  600SOL    HW2 6739   6.209   9.315   5.758 -0.7326 -0.0852  2.2902
  601SOL     OW 6740   3.930   2.465   3.291 -0.1959 -0.1023  0.0779
  601SOL    HW1 6741   4.020   2.498   3.295 -0.2687  0.0217  0.8607
  601SOL    HW2 6742   3.935   2.378   3.331 -0.3596 -0.2544 -0.2249
  602SOL     OW 6743   9.647   1.747   9.736  0.2127  0.3728  0.4029
  602SOL    HW1 6744   9.596   1.670   9.712 -0.2358  0.8169 -0.0906
  602SOL    HW2 6745   9.671   1.787   9.653  0.4486  0.7599  0.6541
  603SOL     OW 6746  11.442   1.102   0.438  0.2923 -0.2779 -0.5936
  603SOL    HW1 6747  11.425   1.131   0.349 -1.0285  0.9302  0.0103
  603SOL    HW2 6748  11.461   1.009   0.430  0.3886 -0.1502 -2.1414
  604SOL     OW 6749   5.573  10.375   4.291 -0.1212 -0.7630 -0.8516
  604SOL    HW1 6750   5.611  10.411   4.212  0.2696 -0.7793 -0.6700
  604SOL    HW2 6751   5.509  10.441   4.319 -0.7331 -1.0535 -1.5333
  605SOL     OW 6752   4.180  10.760   7.844 -0.4439  0.1403 -0.3557
  605SOL    HW1 6753   4.239  10.743   7.918  0.0525 -0.3664 -0.8561
  605SOL    HW2 6754   4.163  10.674   7.806 -0.0065  0.4728 -1.3474
  606SOL     OW 6755   2.405   1.014   1.068 -0.3684  0.5806 -0.2831
  606SOL    HW1 6756   2.312   1.008   1.049 -0.0820 -1.2717 -1.3160
  606SOL    HW2 6757   2.410   1.071   1.146 -2.2053  1.8369 -1.0179
  607SOL     OW 6758   6.031   7.299  10.991  0.1736 -0.0337 -0.0897
  607SOL    HW1 6759   5.956   7.354  11.015 -0.1437 -1.0793  1.4765
  607SOL    HW2 6760   6.080   7.287  11.073  0.9815 -0.9524 -0.6775
  608SOL     OW 6761   4.045   3.606  10.744 -0.0596  0.4744  0.5111
  608SOL    HW1 6762   4.080   3.619  10.655  0.8416 -1.1092  0.6010
  608SOL    HW2 6763   4.093   3.531  10.778  2.1898  3.0953  3.7196
  609SOL     OW 6764   3.963   0.026   3.405 -0.1599  0.1430  0.2002
  609SOL    HW1 6765   3.964   0.074   3.322  0.2803 -0.5960 -0.2285
  609SOL    HW2 6766   4.044   0.051   3.449 -0.1795  0.1890  0.2103
  610SOL     OW 6767   3.292   8.764   2.180 -0.3937 -0.2503 -0.0413
  610SOL    HW1 6768   3.284   8.698   2.249  0.7982 -0.9487 -0.5441
  610SOL    HW2 6769   3.385   8.763   2.156 -0.5266  0.9668 -0.6982
  611SOL     OW 6770   1.894   6.153   1.105 -0.1221 -0.7452  0.1832
  611SOL    HW1 6771   1.802   6.136   1.082 -0.9823  0.2293  2.5554
  611SOL    HW2 6772   1.940   6.073   1.079 -1.4171 -0.8875 -1.9713
  612SOL     OW 6773   7.293   2.375  10.236  0.2395 -0.0964 -0.1290
  612SOL    HW1 6774   7.334   2.335  10.159  0.6936 -0.1576  0.1389
  612SOL    HW2 6775   7.367   2.399  10.292  0.2539  3.5710 -1.4303
  613SOL     OW 6776  11.236   4.506   2.192  0.2733 -0.1494  0.1796
  613SOL    HW1 6777  11.264   4.595   2.214  0.2568 -0.0916 -0.0325
  613SOL    HW2 6778  11.253   4.456   2.272  2.5100 -0.4695 -0.4078
  614SOL     OW 6779   0.420   3.583   3.692  0.1978 -0.1959 -0.3464
  614SOL    HW1 6780   0.487   3.602   3.627 -0.0382 -0.8579 -0.7933
  614SOL    HW2 6781   0.343   3.557   3.641 -0.5857  1.0592  0.1376
  615SOL     OW 6782   8.045   2.430   7.005  0.2739 -0.0957 -0.0216
  615SOL    HW1 6783   8.117   2.481   7.043  0.8785 -0.0487 -1.1795
  615SOL    HW2 6784   7.979   2.426   7.074  0.5684  1.5314  0.4002
  616SOL     OW 6785   5.330   0.958   5.517 -0.1101  0.3629  0.7614
  616SOL    HW1 6786   5.280   0.917   5.447 -0.2057  0.0818  0.9942
  616SOL    HW2 6787   5.385   0.888   5.552  0.6040  0.7208  0.3683
  617SOL     OW 6788   2.435   9.492   3.170 -0.3798  0.2680  0.3077
  617SOL    HW1 6789   2.492   9.520   3.099  2.0786 -1.2177  1.5869
  617SOL    HW2 6790   2.447   9.397   3.176 -1.5426  0.1670  1.8603
  618SOL     OW 6791   3.207  11.129   6.265  0.0467 -0.0727  0.2975
  618SOL    HW1 6792   3.219  11.184   6.188  0.0409  0.6049  0.7705
  618SOL    HW2 6793   3.214  11.189   6.339 -0.4383 -0.6328  0.8095
  619SOL     OW 6794   4.351   7.879   0.159 -0.0657 -0.0383  0.2787
  619SOL    HW1 6795   4.441   7.890   0.189  0.1634  0.1853 -0.4799
  619SOL    HW2 6796   4.309   7.963   0.179 -0.0714 -0.0917  0.4984
  620SOL     OW 6797   2.036  10.409   7.921 -0.3275 -0.0877 -0.3069
  620SOL    HW1 6798   1.944  10.428   7.902  0.0997  1.3250 -1.0854
  620SOL    HW2 6799   2.078  10.494   7.921  0.7693 -0.5708  1.3816
  621SOL     OW 6800   8.743   6.242   8.680  0.2934 -0.0836  0.3224
  621SOL    HW1 6801   8.657   6.238   8.640  0.1372  0.0174  0.6439
  621SOL    HW2 6802   8.731   6.206   8.768  1.1330 -2.5822 -0.4993
  622SOL     OW 6803   2.467   6.354   8.599 -0.2168 -0.1839  0.7878
  622SOL    HW1 6804   2.487   6.283   8.659  0.9486 -0.6483 -0.1099
  622SOL    HW2 6805   2.523   6.426   8.627  1.3845 -0.8419 -0.5084
  623SOL     OW 6806   0.491  10.191   7.047  0.1031  0.5712  0.8617
  623SOL    HW1 6807   0.560  10.258   7.042 -1.0274  1.6957 -0.0784
  623SOL    HW2 6808   0.535  10.110   7.021  1.5400  0.8735  2.1671
  624SOL     OW 6809   2.994   4.800   8.260 -0.2478 -0.0458  0.4113
  624SOL    HW1 6810   3.060   4.828   8.197  0.3131  0.5118  1.2256
  624SOL    HW2 6811   2.958   4.719   8.223 -0.0742  0.3716 -0.7122
  625SOL     OW 6812   4.295   9.621   6.550  0.0638 -0.0699 -0.0388
  625SOL    HW1 6813   4.269   9.701   6.596 -0.5824  0.3678 -1.1350
  625SOL    HW2 6814   4.216   9.594   6.503  0.1214 -1.6433  0.6979
  626SOL     OW 6815   7.990   4.447   8.493  0.4335 -0.4221  0.1612
  626SOL    HW1 6816   8.064   4.495   8.529  0.4176 -0.5238  0.3267
  626SOL    HW2 6817   7.962   4.388   8.563  0.5024 -0.7295 -0.0689
  627SOL     OW 6818  10.915   9.174   2.432 -0.0930 -0.2016 -0.1559
  627SOL    HW1 6819  10.888   9.109   2.367  0.1472 -2.5905  1.9698
  627SOL    HW2 6820  10.846   9.172   2.499 -0.0409  1.7420  0.0047
  628SOL     OW 6821   9.799   2.101  11.568  0.0809  0.1318  0.3011
  628SOL    HW1 6822   9.808   2.075  11.477 -0.6044  0.3903  0.1483
  628SOL    HW2 6823   9.803   2.197  11.565 -1.6411  0.2391  0.3084
  629SOL     OW 6824   2.861   0.904   2.952 -0.1448 -0.0185  0.6486
  629SOL    HW1 6825   2.787   0.956   2.921  0.5042  1.2589  1.1604
  629SOL    HW2 6826   2.884   0.848   2.878 -1.4823 -0.2884  0.4140
  630SOL     OW 6827  10.302   3.285   3.167  0.1478 -0.1230  0.1116
  630SOL    HW1 6828  10.376   3.336   3.201  0.0551 -0.7386  1.2869
  630SOL    HW2 6829  10.231   3.300   3.230 -1.0097  1.0993 -1.4291
  631SOL     OW 6830  10.465   0.075  10.858  0.3888  0.2295 -0.2946
  631SOL    HW1 6831  10.466   0.082  10.762  0.4276  1.6079 -0.2176
  631SOL    HW2 6832  10.459   0.166  10.888  0.8063 -0.1613  1.0248
  632SOL     OW 6833   3.907   7.192   8.057  0.6450 -0.0017  0.2257
  632SOL    HW1 6834   3.866   7.232   8.134  1.1501  1.2687 -0.1321
  632SOL    HW2 6835   3.975   7.254   8.032 -0.3683  0.3039 -2.0496
  633SOL     OW 6836   7.418  10.329  11.212 -0.0263 -0.1184 -0.1041
  633SOL    HW1 6837   7.462  10.303  11.293 -1.0351 -0.0368  0.4902
  633SOL    HW2 6838   7.338  10.277  11.211 -1.5177  2.0629  0.5047
  634SOL     OW 6839   7.169  10.368   4.698 -0.0503  0.0881 -0.1755
  634SOL    HW1 6840   7.157  10.433   4.630  0.3132 -0.5558 -0.8706
  634SOL    HW2 6841   7.082  10.332   4.713  0.1396 -1.0981 -1.6747
  635SOL     OW 6842  10.084   2.889   7.185 -0.3526  0.4269 -0.5151
  635SOL    HW1 6843  10.153   2.849   7.132 -0.5767  0.7253 -1.0392
  635SOL    HW2 6844  10.131   2.939   7.251 -0.0499  1.3486 -1.4070
  636SOL     OW 6845   6.649   2.698   9.859 -0.2080 -0.9778  0.6443
  636SOL    HW1 6846   6.664   2.793   9.854  0.9292 -1.1990 -1.1206
  636SOL    HW2 6847   6.733   2.662   9.889 -0.6005 -1.4403  1.2041
  637SOL     OW 6848   6.775   0.472   3.016 -0.0816  0.3178  0.4780
  637SOL    HW1 6849   6.831   0.480   3.094  0.9896 -1.2676 -0.0946
  637SOL    HW2 6850   6.686   0.475   3.051  0.3793 -0.3388  1.7779
  638SOL     OW 6851   7.460   6.917   1.468 -0.2530 -0.1401 -0.1203
  638SOL    HW1 6852   7.467   6.950   1.379 -1.8650  1.0328  0.1449
  638SOL    HW2 6853   7.430   6.827   1.457 -0.7140  0.0836 -0.7532
  639SOL     OW 6854   7.597   9.890   5.030  0.2674  0.3495  0.7943
  639SOL    HW1 6855   7.585   9.956   5.098 -1.3850 -0.9299  1.8281
  639SOL    HW2 6856   7.524   9.830   5.041  0.6578 -0.6315 -1.3208
  640SOL     OW 6857   0.394  11.551   2.519 -0.2802  0.3917 -0.0710
  640SOL    HW1 6858   0.394  11.475   2.461  1.4157 -0.0203  0.4200
  640SOL    HW2 6859   0.319  11.603   2.490 -0.6435 -0.7709 -1.3230
  641SOL     OW 6860   8.964   8.678   7.123 -0.0860  0.2688 -0.1126
  641SOL    HW1 6861   8.907   8.637   7.188  0.6576 -0.1980  0.2663
  641SOL    HW2 6862   8.949   8.772   7.134 -0.5559  0.1627  0.1871
  642SOL     OW 6863   9.412   1.563   5.458  0.1328  0.2206  0.6234
  642SOL    HW1 6864   9.456   1.609   5.386 -1.1360  2.2366  1.0435
  642SOL    HW2 6865   9.454   1.597   5.537 -0.7695  0.6123  0.9437
  643SOL     OW 6866   6.716   0.643   2.290 -0.2660  0.3399  0.0622
  643SOL    HW1 6867   6.776   0.714   2.268 -0.1822  1.0511  2.3697
  643SOL    HW2 6868   6.728   0.579   2.219 -1.0836  2.9753 -2.6575
  644SOL     OW 6869   2.390   2.848   8.347 -0.7891 -0.0448  0.4050
  644SOL    HW1 6870   2.308   2.861   8.300 -1.4919  1.4318  1.9091
  644SOL    HW2 6871   2.363   2.815   8.433  0.1413  0.9184  1.0869
  645SOL     OW 6872   2.795  10.897   9.703  0.3998 -0.3045  0.5413
  645SOL    HW1 6873   2.726  10.830   9.701  0.1547 -0.0636 -1.6442
  645SOL    HW2 6874   2.756  10.970   9.750 -0.7603 -0.2995 -0.3695
  646SOL     OW 6875   0.317  10.531   7.065  0.7789 -0.0304 -0.5675
  646SOL    HW1 6876   0.260  10.587   7.116  0.9588 -0.4910  0.1530
  646SOL    HW2 6877   0.342  10.460   7.125  0.3562 -1.0197 -1.5128
  647SOL     OW 6878   2.551   2.192  10.122  0.1562  0.2358  0.5810
  647SOL    HW1 6879   2.461   2.202  10.090 -0.2079 -0.2979  1.3876
  647SOL    HW2 6880   2.548   2.223  10.213  0.9237  0.7444  0.4433
  648SOL     OW 6881  11.595   4.480   0.240  0.2175  0.5017 -0.5036
  648SOL    HW1 6882  11.504   4.477   0.211 -0.0697 -0.0549  0.4086
  648SOL    HW2 6883  11.646   4.459   0.162 -0.2327  3.6512 -1.8038
  649SOL     OW 6884   0.521  10.771   6.131  0.8249 -0.2133  0.6715
  649SOL    HW1 6885   0.580  10.808   6.197 -0.2546  0.0051  1.5569
  649SOL    HW2 6886   0.482  10.847   6.089  0.6996 -0.3555  0.5343
  650SOL     OW 6887  11.578   0.909   8.811 -0.2819  0.5144  0.1197
  650SOL    HW1 6888  11.634   0.832   8.817 -0.9809  0.0020  0.2703
  650SOL    HW2 6889  11.635   0.978   8.779  0.1970 -0.2392 -0.7059
  651SOL     OW 6890   7.371  11.205   7.681  0.3912  0.7732  0.5373
  651SOL    HW1 6891   7.434  11.161   7.739  1.3966  2.9010  1.1640
  651SOL    HW2 6892   7.403  11.187   7.593  1.6028  1.3708  0.8335
  652SOL     OW 6893  10.510  10.789   1.646 -0.3507 -0.7651 -0.4683
  652SOL    HW1 6894  10.572  10.761   1.579  1.8324  2.9432 -0.2744
  652SOL    HW2 6895  10.438  10.828   1.597 -1.4094 -2.7927 -0.6360
  653SOL     OW 6896  11.425   5.606  11.410 -0.2646  0.2519  0.3202
  653SOL    HW1 6897  11.396   5.535  11.468 -1.0826 -0.2676 -0.6958
  653SOL    HW2 6898  11.503   5.572  11.368  0.5300  0.7583  1.3264
  654SOL     OW 6899   5.922  11.063   1.222 -0.2488  0.0111 -0.3958
  654SOL    HW1 6900   5.897  11.001   1.290 -0.3699  0.1514 -0.3104
  654SOL    HW2 6901   5.924  11.148   1.267  0.4896 -0.0166 -0.3789
  655SOL     OW 6902   3.630   2.077   4.484 -0.3634  0.3724 -0.4630
  655SOL    HW1 6903   3.560   2.138   4.460  1.6340  2.8819 -0.3808
  655SOL    HW2 6904   3.699   2.093   4.420  1.3625  0.2967  1.2643
  656SOL     OW 6905   7.491   5.992   4.791  0.4446 -0.0726 -0.1532
  656SOL    HW1 6906   7.529   5.905   4.777  1.0269 -0.3298  2.6244
  656SOL    HW2 6907   7.483   6.000   4.886  0.1164  2.8119 -0.3500
  657SOL     OW 6908   5.570   6.558  10.531  0.1518  0.2806 -0.0204
  657SOL    HW1 6909   5.495   6.532  10.478 -0.5140  1.7663  0.1438
  657SOL    HW2 6910   5.646   6.545  10.474 -0.3491 -0.0818 -0.6153
  658SOL     OW 6911   4.588   1.698   5.613  0.1205 -0.1585  0.1573
  658SOL    HW1 6912   4.496   1.699   5.641 -0.5262  1.5396 -1.7800
  658SOL    HW2 6913   4.616   1.608   5.626 -2.0718 -0.9065  0.0936
  659SOL     OW 6914   6.182   7.623   2.173  0.5672  0.2119 -0.3699
  659SOL    HW1 6915   6.183   7.560   2.245  0.6650  1.8640  1.1373
  659SOL    HW2 6916   6.274   7.640   2.154  0.5818  1.5479  0.7720
  660SOL     OW 6917   5.371   1.920  11.576  0.1862  0.7439 -0.2480
  660SOL    HW1 6918   5.458   1.889  11.601 -0.2767 -1.4148 -1.1217
  660SOL    HW2 6919   5.359   1.889  11.487 -1.3083  1.4264 -0.3104
  661SOL     OW 6920   4.820   7.582   7.992  0.1875 -0.1431  0.4589
  661SOL    HW1 6921   4.852   7.567   8.081 -1.1596 -0.9225  0.8473
  661SOL    HW2 6922   4.770   7.663   7.997  0.4263  0.0185  0.3046
  662SOL     OW 6923   9.143   6.885   8.316  0.2645 -0.2333  0.5745
  662SOL    HW1 6924   9.211   6.885   8.383  0.7575 -0.2198  0.0839
  662SOL    HW2 6925   9.096   6.967   8.328 -0.6773 -0.9167  1.9080
  663SOL     OW 6926   5.856   8.740  11.091  0.4728  0.0638 -0.5906
  663SOL    HW1 6927   5.819   8.651  11.089 -0.3922  0.3859 -2.9614
  663SOL    HW2 6928   5.946   8.728  11.121  0.2006 -1.5352 -0.3068
  664SOL     OW 6929   9.173   3.837   1.368 -0.2236  0.1966  0.0739
  664SOL    HW1 6930   9.104   3.846   1.433  0.1936  0.9085  0.4204
  664SOL    HW2 6931   9.159   3.750   1.330 -0.4886 -0.2112  1.0836
  665SOL     OW 6932   5.790   9.961   5.591 -0.3209 -0.3705 -0.4667
  665SOL    HW1 6933   5.727   9.980   5.521 -0.1241 -3.2883 -1.5528
  665SOL    HW2 6934   5.856   9.906   5.551  0.9486 -0.4531  1.5685
  666SOL     OW 6935   3.684   3.350   6.607 -0.5439 -0.3460 -0.1745
  666SOL    HW1 6936   3.766   3.331   6.653 -1.1177 -2.1529  0.1902
  666SOL    HW2 6937   3.629   3.392   6.673 -0.5110 -0.7059  0.0841
  667SOL     OW 6938   9.612   3.021   4.588 -0.5013 -0.4076  0.1414
  667SOL    HW1 6939   9.622   2.968   4.667 -0.7401 -0.7590 -0.0576
  667SOL    HW2 6940   9.548   3.088   4.611  0.1509  0.0811  0.5380
  668SOL     OW 6941   8.840   5.307  10.942 -0.3232 -0.4394 -0.3566
  668SOL    HW1 6942   8.922   5.355  10.926 -1.4816  1.6920 -0.3465
  668SOL    HW2 6943   8.831   5.308  11.037 -0.3689 -0.6719 -0.3583
  669SOL     OW 6944   3.871  10.498  10.200  0.2853 -0.0838  0.1541
  669SOL    HW1 6945   3.925  10.571  10.171  1.4684 -0.9856  0.0174
  669SOL    HW2 6946   3.841  10.523  10.287  1.0055  0.3879  0.2723
  670SOL     OW 6947   3.500   0.987   9.991 -0.1076  0.1161  0.5952
  670SOL    HW1 6948   3.578   1.027  10.029 -0.2248 -1.1592  2.2887
  670SOL    HW2 6949   3.446   1.061   9.964  2.0771  1.0399 -1.5858
  671SOL     OW 6950   5.551   2.643   7.195 -0.0626  0.4420 -0.2881
  671SOL    HW1 6951   5.597   2.715   7.238  0.4223  0.7167 -1.2286
  671SOL    HW2 6952   5.609   2.568   7.205 -0.5910  0.1507  0.7366
  672SOL     OW 6953   0.011   7.608   3.860 -0.3316  0.0176 -0.3235
  672SOL    HW1 6954  -0.040   7.674   3.906 -0.0480  0.0677 -0.0740
  672SOL    HW2 6955   0.102   7.631   3.879 -0.2016 -1.7674  1.7351
  673SOL     OW 6956   0.547   4.073  10.748 -0.0330 -0.1865  0.3751
  673SOL    HW1 6957   0.626   4.124  10.729 -0.4399  0.8690  1.4068
  673SOL    HW2 6958   0.534   4.021  10.669  1.2253  0.2270 -0.1455
  674SOL     OW 6959   2.418   4.222   6.405  0.4675  0.5387 -0.0458
  674SOL    HW1 6960   2.455   4.149   6.455  0.0256 -0.0395 -0.5435
  674SOL    HW2 6961   2.336   4.186   6.369  0.1240  1.3584 -0.0963
  675SOL     OW 6962   2.986  11.108   0.212  0.3089  0.5343  0.1600
  675SOL    HW1 6963   3.074  11.081   0.184  0.3878  0.3592  0.5791
  675SOL    HW2 6964   2.947  11.147   0.133  1.0292  1.2988  0.1673
  676SOL     OW 6965  10.616   5.500   8.270 -0.0805  0.5112 -0.4000
  676SOL    HW1 6966  10.706   5.485   8.299  0.5506  2.0425 -1.4773
  676SOL    HW2 6967  10.601   5.593   8.286 -1.3635  0.3479 -0.5519
  677SOL     OW 6968   2.185   8.737   2.079  0.4782 -0.7540 -0.6425
  677SOL    HW1 6969   2.185   8.641   2.078 -0.9791 -0.8222  0.8201
  677SOL    HW2 6970   2.201   8.762   1.988  1.4266 -2.3697 -0.9570
  678SOL     OW 6971   3.727  10.730   4.914  0.0750 -0.2740  0.3628
  678SOL    HW1 6972   3.714  10.697   4.825 -2.6653  1.0303  0.1806
  678SOL    HW2 6973   3.669  10.677   4.968 -1.6966  1.7734  0.6043
  679SOL     OW 6974   0.549   6.117   3.803  0.6737  0.4816  0.1619
  679SOL    HW1 6975   0.610   6.185   3.833  1.0438 -0.3013  1.2556
  679SOL    HW2 6976   0.606   6.043   3.779  0.2173  0.1126  0.2011
  680SOL     OW 6977   1.259   5.691   4.706 -0.3038  0.0219 -0.3827
  680SOL    HW1 6978   1.176   5.646   4.718 -0.2369  0.0683  0.3424
  680SOL    HW2 6979   1.259   5.760   4.773 -0.1665  0.7456 -1.1141
  681SOL     OW 6980   5.427   1.105  10.985 -0.0252 -0.4684  0.4131
  681SOL    HW1 6981   5.504   1.051  11.001 -0.2649 -0.9438  0.0238
  681SOL    HW2 6982   5.443   1.144  10.899 -0.3193 -0.7556  0.2257
  682SOL     OW 6983   2.745   1.301   7.023 -0.2336  0.8079  0.0300
  682SOL    HW1 6984   2.795   1.364   6.972 -0.8044  0.7937 -0.5674
  682SOL    HW2 6985   2.737   1.224   6.966 -0.1632  0.4696  0.4682
  683SOL     OW 6986   0.560   2.299   0.607 -0.4513 -0.5457  0.0248
  683SOL    HW1 6987   0.556   2.252   0.524  0.3520 -0.3365 -0.1396
  683SOL    HW2 6988   0.512   2.380   0.590 -3.4500 -2.0142  0.8400
  684SOL     OW 6989   6.582   9.228   5.121 -0.6475  0.0096 -0.1975
  684SOL    HW1 6990   6.652   9.164   5.132  0.8585  1.3222 -1.5075
  684SOL    HW2 6991   6.539   9.233   5.206  1.0996 -0.5956  0.7484
  685SOL     OW 6992   9.605  11.005   9.851 -0.5352  0.0218 -0.3994
  685SOL    HW1 6993   9.653  10.930   9.886  1.2353  1.1658 -0.2255
  685SOL    HW2 6994   9.519  11.001   9.893  0.6248 -0.1124  2.1636
  686SOL     OW 6995   6.902   2.894   3.898  0.1355 -0.2947  0.6429
  686SOL    HW1 6996   6.943   2.811   3.922 -1.1333 -1.2896 -0.5134
  686SOL    HW2 6997   6.821   2.896   3.948 -1.6829 -1.5802 -2.0515
  687SOL     OW 6998   1.364   0.209   3.253 -1.0413  0.5657  0.5159
  687SOL    HW1 6999   1.336   0.122   3.223 -1.0532 -0.3339  2.9378
  687SOL    HW2 7000   1.456   0.214   3.228 -0.6371 -0.7912  1.6009
  688SOL     OW 7001   7.178  10.387   3.599  0.1322  0.2894  0.1147
  688SOL    HW1 7002   7.268  10.413   3.621 -0.3753  1.5512  0.8253
  688SOL    HW2 7003   7.153  10.326   3.669  0.9611 -1.3801 -0.9742
  689SOL     OW 7004   4.199   9.965   5.817  0.3117 -0.1708 -0.1275
  689SOL    HW1 7005   4.178  10.031   5.883 -0.2951  0.1181 -0.6034
  689SOL    HW2 7006   4.162   9.884   5.852  0.6162 -0.1634  0.2189
  690SOL     OW 7007   0.221   4.249   3.879 -0.0866  0.1637  0.0483
  690SOL    HW1 7008   0.136   4.208   3.895  0.7129 -1.3692  0.5113
  690SOL    HW2 7009   0.278   4.177   3.852  1.4458  0.8984  1.1589
  691SOL     OW 7010   1.715   7.163   5.691  0.5289  0.5258  0.1501
  691SOL    HW1 7011   1.762   7.080   5.688  1.6189  1.1449 -0.3273
  691SOL    HW2 7012   1.728   7.195   5.780  0.0873  0.1871  0.3421
  692SOL     OW 7013   6.568   4.186   2.938  0.5400 -0.6512 -0.5099
  692SOL    HW1 7014   6.620   4.109   2.914 -0.8805 -1.5592 -0.8048
  692SOL    HW2 7015   6.632   4.251   2.965  1.8205 -1.7235 -0.8741
  693SOL     OW 7016   2.340   4.828  11.314 -0.3968 -0.0529 -0.1005
  693SOL    HW1 7017   2.301   4.910  11.344  1.8673  0.2869  2.1496
  693SOL    HW2 7018   2.297   4.761  11.366 -0.0304  0.0185  0.2914
  694SOL     OW 7019   3.750  10.427   9.709  0.2171 -0.3497 -0.0983
  694SOL    HW1 7020   3.806  10.490   9.755  0.6512 -0.3501 -0.6053
  694SOL    HW2 7021   3.759  10.450   9.616 -1.6228  0.4510 -0.1210
  695SOL     OW 7022   4.859   6.180   5.383  0.2814 -0.3229  0.2622
  695SOL    HW1 7023   4.885   6.160   5.473  1.4317 -1.3476 -0.2715
  695SOL    HW2 7024   4.936   6.157   5.331 -0.4957 -0.0680 -1.0203
  696SOL     OW 7025   0.111   7.184  10.203  0.0067 -0.0871  0.1401
  696SOL    HW1 7026   0.106   7.126  10.127  0.9848  0.4113 -0.3229
  696SOL    HW2 7027   0.157   7.133  10.269 -2.2741 -1.1308  1.0192
  697SOL     OW 7028   3.274   8.172   6.359  0.8167 -0.8977 -0.2903
  697SOL    HW1 7029   3.274   8.231   6.435 -1.5627 -0.8423 -0.2374
  697SOL    HW2 7030   3.274   8.084   6.397  0.6512 -0.8782 -0.2439
  698SOL     OW 7031   1.901   1.639  11.268 -0.2181 -0.1410  0.2960
  698SOL    HW1 7032   1.834   1.695  11.228 -0.4006  0.3715  1.2891
  698SOL    HW2 7033   1.984   1.686  11.252 -0.3933  0.5557  1.3135
  699SOL     OW 7034   1.903   4.259   7.340  0.0756  0.2071  0.0114
  699SOL    HW1 7035   1.896   4.281   7.433 -0.5829  1.5789 -0.3287
  699SOL    HW2 7036   1.844   4.321   7.297  0.8646  0.0309 -1.3764
  700SOL     OW 7037   5.702   6.877   3.004 -0.5051  0.1794 -0.1806
  700SOL    HW1 7038   5.787   6.865   2.962  0.5537  1.5512  1.4397
  700SOL    HW2 7039   5.667   6.957   2.965 -0.8642 -0.1318 -0.5098
  701SOL     OW 7040   6.880   5.226   6.208 -0.2711 -0.2162  0.3888
  701SOL    HW1 7041   6.869   5.165   6.135  1.6129  0.7916 -0.7952
  701SOL    HW2 7042   6.794   5.228   6.251 -2.4696  1.4869 -3.6111
  702SOL     OW 7043  10.316  11.073   7.155  0.0203 -0.1072  0.0211
  702SOL    HW1 7044  10.253  11.125   7.105 -0.0459 -0.0707  0.1391
  702SOL    HW2 7045  10.310  10.985   7.117 -0.5630 -0.2544  0.4453
  703SOL     OW 7046   0.222   3.089   0.789  0.3443 -0.1853 -0.1064
  703SOL    HW1 7047   0.212   3.009   0.737  0.9270 -0.3307 -0.0003
  703SOL    HW2 7048   0.269   3.149   0.731 -0.7090  0.3418 -0.4462
  704SOL     OW 7049   4.702   3.444  10.524  0.1373 -0.3903 -0.0382
  704SOL    HW1 7050   4.659   3.464  10.607 -0.2875 -0.1173 -0.3178
  704SOL    HW2 7051   4.632   3.414  10.466  0.5835 -1.5460 -0.0049
  705SOL     OW 7052  11.324   4.205   4.110  0.2303 -0.3704 -0.0007
  705SOL    HW1 7053  11.284   4.136   4.057  0.1603 -0.6783  0.4442
  705SOL    HW2 7054  11.399   4.163   4.151 -0.4807 -0.5201  1.1912
  706SOL     OW 7055   2.130   0.921   7.678  0.3644 -0.5994 -0.0256
  706SOL    HW1 7056   2.124   0.959   7.590  1.3594 -0.6876 -0.1434
  706SOL    HW2 7057   2.050   0.868   7.687  0.4603 -0.9347 -1.0384
  707SOL     OW 7058  11.220  10.148   9.084 -0.4239 -0.4113 -0.1736
  707SOL    HW1 7059  11.203  10.221   9.144 -2.0603 -1.9458  1.3305
  707SOL    HW2 7060  11.315  10.145   9.077 -0.0900 -0.5413  2.9018
  708SOL     OW 7061   5.876   5.180   7.444  0.2705  0.3514  0.3130
  708SOL    HW1 7062   5.958   5.169   7.492  0.1946  1.3674  0.7029
  708SOL    HW2 7063   5.872   5.274   7.425 -1.2660  0.4965  1.1895
  709SOL     OW 7064   1.717   0.036   4.877 -0.1408  0.9021  0.0072
  709SOL    HW1 7065   1.807   0.041   4.845  0.5149 -3.4285  0.5815
  709SOL    HW2 7066   1.665   0.013   4.801 -0.4349  1.4054  0.0530
  710SOL     OW 7067  10.344   0.125   9.013 -0.0704  0.1961  0.2344
  710SOL    HW1 7068  10.249   0.128   9.003  0.0571  1.9597 -1.0340
  710SOL    HW2 7069  10.360   0.160   9.100 -0.5103  2.8151 -0.6553
  711SOL     OW 7070  11.294   4.480   8.981 -0.6453 -0.2953  0.3560
  711SOL    HW1 7071  11.337   4.557   9.019  1.1353 -0.5437 -0.9862
  711SOL    HW2 7072  11.239   4.447   9.051  1.9092 -0.3220  2.5398
  712SOL     OW 7073   3.734   8.367   9.671  0.0026  0.4291 -1.0060
  712SOL    HW1 7074   3.788   8.438   9.707 -0.1776  1.2218 -2.2265
  712SOL    HW2 7075   3.747   8.294   9.731  0.2487  1.4751  0.2583
  713SOL     OW 7076   1.505   8.503   6.065 -0.9045  0.3659 -0.3599
  713SOL    HW1 7077   1.513   8.597   6.049 -0.9598  0.3306 -0.5919
  713SOL    HW2 7078   1.594   8.468   6.057 -0.6027  0.6406  1.3040
  714SOL     OW 7079   7.209   1.399   4.232 -0.1889  0.0444 -0.1374
  714SOL    HW1 7080   7.154   1.415   4.155  0.5244 -0.5698 -0.8005
  714SOL    HW2 7081   7.148   1.373   4.301 -0.6507 -2.2163 -1.2992
  715SOL     OW 7082   2.690   2.965   3.879 -0.1136  0.1540  0.0135
  715SOL    HW1 7083   2.700   2.870   3.879  0.9734  0.2517  0.3341
  715SOL    HW2 7084   2.596   2.980   3.868 -0.3664 -0.9676  0.5589
  716SOL     OW 7085   6.110   6.458   4.393  0.4924 -0.1379  0.0021
  716SOL    HW1 7086   6.017   6.478   4.382  0.9024  0.6950 -2.4912
  716SOL    HW2 7087   6.117   6.365   4.371  0.4893  0.2840 -2.0060
  717SOL     OW 7088   7.140   9.360   0.507 -0.4760  0.1989 -0.0386
  717SOL    HW1 7089   7.046   9.350   0.519 -0.6028 -0.3276 -1.3837
  717SOL    HW2 7090   7.152   9.375   0.414  1.0076 -3.4966 -0.6389
  718SOL     OW 7091   7.606  11.147   2.465 -0.1315  0.1003 -0.0169
  718SOL    HW1 7092   7.694  11.134   2.500  0.9058  2.0179 -1.7597
  718SOL    HW2 7093   7.575  11.227   2.508 -0.4726  0.1833 -0.4172
  719SOL     OW 7094   1.902   3.064  10.881 -0.4353  0.4295  0.0613
  719SOL    HW1 7095   1.815   3.077  10.842  0.0758  0.6565 -1.0258
  719SOL    HW2 7096   1.960   3.047  10.807  0.6557  1.3320  0.6816
  720SOL     OW 7097   0.888   8.471   6.047  0.5726 -1.1733  0.6506
  720SOL    HW1 7098   0.960   8.485   5.986 -0.5100  0.7756 -0.2982
  720SOL    HW2 7099   0.874   8.557   6.087 -1.7623 -1.2492  0.1396
  721SOL     OW 7100   4.646   4.907   8.024  0.9622  0.3285 -0.0004
  721SOL    HW1 7101   4.566   4.898   8.075  0.1875 -1.4695 -1.3769
  721SOL    HW2 7102   4.625   4.974   7.958  0.7429  0.2078 -0.0570
  722SOL     OW 7103   5.923   2.109   4.554  0.4034 -0.4735 -0.2064
  722SOL    HW1 7104   5.870   2.077   4.626 -0.8654 -0.4061 -1.0764
  722SOL    HW2 7105   5.860   2.142   4.490  1.5520  1.3348 -0.4872
  723SOL     OW 7106   1.962   6.741   0.058 -0.3720  0.3792 -0.0342
  723SOL    HW1 7107   2.038   6.683   0.065 -1.2636 -0.6275  2.3460
  723SOL    HW2 7108   1.928   6.726  -0.030  1.2067 -0.4076 -0.5352
  724SOL     OW 7109  10.512   6.305   2.303  0.0876  0.1953  0.0665
  724SOL    HW1 7110  10.589   6.261   2.266 -0.4553  0.4853 -1.4694
  724SOL    HW2 7111  10.477   6.357   2.231 -0.7182  1.2217  1.1598
  725SOL     OW 7112   1.948   9.092   0.645 -0.2549 -0.5862  0.3104
  725SOL    HW1 7113   1.931   8.998   0.633 -0.5433 -0.3275 -1.6660
  725SOL    HW2 7114   1.965   9.124   0.557 -2.1404  1.6128  0.6658
  726SOL     OW 7115   1.076   7.142   7.496 -0.4280  0.0269  0.3293
  726SOL    HW1 7116   1.031   7.144   7.412  1.7188 -2.0273 -0.9811
  726SOL    HW2 7117   1.017   7.093   7.554 -1.5448  0.7364 -0.1755
  727SOL     OW 7118   6.357   5.243  10.658  0.0690 -0.0014 -0.2245
  727SOL    HW1 7119   6.431   5.205  10.704 -0.2399 -0.8619 -0.4162
  727SOL    HW2 7120   6.371   5.338  10.663  0.5294 -0.1158  0.8004
  728SOL     OW 7121   6.626   6.665   9.883  0.1007 -0.1952 -0.1246
  728SOL    HW1 7122   6.597   6.585   9.839  0.8130 -0.4643 -0.1292
  728SOL    HW2 7123   6.546   6.715   9.898 -0.2850 -0.6387 -0.6606
  729SOL     OW 7124   9.198   5.361   8.510  0.3940  0.2498  0.8948
  729SOL    HW1 7125   9.199   5.448   8.470  1.9007 -0.0849  0.1409
  729SOL    HW2 7126   9.230   5.375   8.599 -2.9716  0.9971  2.1580
  730SOL     OW 7127   9.952   5.236   5.464  0.4677  0.2459  0.4260
  730SOL    HW1 7128  10.001   5.291   5.404  1.8461 -1.4994 -0.1181
  730SOL    HW2 7129  10.017   5.207   5.529 -0.6448  0.7818  1.8425
  731SOL     OW 7130   5.726   7.532  10.439 -0.4789 -0.4529  0.3145
  731SOL    HW1 7131   5.726   7.520  10.534  0.7537 -0.0511  0.3783
  731SOL    HW2 7132   5.644   7.579  10.421 -1.2212 -1.4360  1.0449
  732SOL     OW 7133  10.334   5.347  10.178  0.1907  0.2541  0.2105
  732SOL    HW1 7134  10.429   5.349  10.169  0.0603  0.6868 -1.3948
  732SOL    HW2 7135  10.309   5.263  10.141 -0.1676  0.8325 -0.8862
  733SOL     OW 7136   2.341   1.316  11.504 -0.5099 -0.4051  0.4705
  733SOL    HW1 7137   2.282   1.391  11.504 -1.4293 -1.0947  0.2587
  733SOL    HW2 7138   2.307   1.260  11.575  0.6817 -0.2399  1.2050
  734SOL     OW 7139   9.605   9.566   0.665 -0.1665 -0.4423  0.4267
  734SOL    HW1 7140   9.514   9.556   0.692 -0.1740 -1.0845  0.1845
  734SOL    HW2 7141   9.656   9.534   0.739 -0.0793  1.4080  1.2143
  735SOL     OW 7142   9.506   7.046   7.052  0.3772  0.3408 -0.3738
  735SOL    HW1 7143   9.573   7.066   7.117  1.1454  2.0535 -1.6070
  735SOL    HW2 7144   9.502   6.950   7.051  2.0635  0.2125  0.4954
  736SOL     OW 7145   1.230  11.350   2.003  0.4209  0.3716  0.3656
  736SOL    HW1 7146   1.319  11.347   2.039 -0.8108  1.7461  3.9979
  736SOL    HW2 7147   1.229  11.428   1.948  1.6185 -0.0951 -0.3668
  737SOL     OW 7148   3.181   2.994   9.319 -0.2884 -0.3641 -0.6162
  737SOL    HW1 7149   3.154   2.928   9.255  1.2246 -0.7755 -0.8670
  737SOL    HW2 7150   3.208   2.944   9.395 -1.9096  0.1210  0.3190
  738SOL     OW 7151   8.575  10.934   0.011  0.4500 -0.2516 -0.0405
  738SOL    HW1 7152   8.645  10.933  -0.055  0.0112 -0.9365 -0.5077
  738SOL    HW2 7153   8.496  10.912  -0.038 -0.2186  1.1376  0.3618
  739SOL     OW 7154   2.757   6.372   5.541  0.1022 -0.9374 -0.3861
  739SOL    HW1 7155   2.717   6.413   5.618  0.5085 -0.6396 -0.3330
  739SOL    HW2 7156   2.688   6.318   5.504 -0.1763 -0.8764  0.0404
  740SOL     OW 7157   1.854   9.242   8.630  0.0729  0.1518 -0.0629
  740SOL    HW1 7158   1.861   9.230   8.725 -1.7227 -1.5520 -0.0730
  740SOL    HW2 7159   1.934   9.202   8.595  0.6538  0.6087  0.7091
  741SOL     OW 7160  11.555   4.080   2.461 -0.0534 -0.3872  0.1487
  741SOL    HW1 7161  11.625   4.082   2.396  0.0538 -0.9524  0.2414
  741SOL    HW2 7162  11.525   3.989   2.461  0.2043 -0.4764  1.1696
  742SOL     OW 7163   3.420   2.358   9.498  0.3367 -0.0968  0.1718
  742SOL    HW1 7164   3.372   2.440   9.509 -0.0382 -0.2553 -0.2557
  742SOL    HW2 7165   3.375   2.296   9.556  0.7377  0.0384  0.6421
  743SOL     OW 7166   3.875  10.616   0.807  0.2906  0.2793 -0.3414
  743SOL    HW1 7167   3.795  10.568   0.784 -0.6089  0.4046  2.2224
  743SOL    HW2 7168   3.946  10.561   0.772 -0.8206 -1.3299 -0.1953
  744SOL     OW 7169  11.163   7.455   3.016  0.4916  0.1692  0.1195
  744SOL    HW1 7170  11.196   7.515   2.949  0.2761  0.6180  0.4132
  744SOL    HW2 7171  11.143   7.375   2.968  1.1946  0.1807 -0.2022
  745SOL     OW 7172   9.924  10.490   9.739 -0.1405 -0.1571  0.4459
  745SOL    HW1 7173   9.835  10.462   9.718 -0.2101  0.6949 -0.4729
  745SOL    HW2 7174   9.952  10.432   9.810 -1.0810 -1.0447  0.1062
  746SOL     OW 7175   1.574   1.507  11.426  0.2454  0.3151 -0.6095
  746SOL    HW1 7176   1.601   1.527  11.336  1.4837 -1.2096 -0.6190
  746SOL    HW2 7177   1.483   1.478  11.417  0.0326  1.1216 -1.2244
  747SOL     OW 7178   0.128  10.608  11.429  0.2763 -0.2266  0.3967
  747SOL    HW1 7179   0.101  10.516  11.436 -0.3863  0.0038  0.8608
  747SOL    HW2 7180   0.145  10.635  11.519 -0.9232  0.5210  0.4085
  748SOL     OW 7181   6.732   8.583   7.382 -0.7090 -0.0694  0.2874
  748SOL    HW1 7182   6.803   8.616   7.437  0.6358 -0.6288 -1.0750
  748SOL    HW2 7183   6.734   8.639   7.304 -1.2415 -0.5963 -0.1139
  749SOL     OW 7184  10.659   7.422   6.042  0.3220 -0.2618  0.0891
  749SOL    HW1 7185  10.658   7.369   6.121  1.4211 -0.7422 -0.1842
  749SOL    HW2 7186  10.630   7.363   5.973 -1.1357  0.3017  0.1950
  750SOL     OW 7187   7.330   5.394   3.258 -0.0719  0.4925 -0.2247
  750SOL    HW1 7188   7.425   5.395   3.252 -0.1549  0.2918 -1.9154
  750SOL    HW2 7189   7.307   5.479   3.294  0.7452  0.4225  0.4915
  751SOL     OW 7190   0.797   2.619   5.443  0.1004 -0.2378  0.2651
  751SOL    HW1 7191   0.829   2.594   5.356  0.5335 -0.3691  0.4611
  751SOL    HW2 7192   0.706   2.646   5.428 -0.3216 -1.7396  0.0288
  752SOL     OW 7193   4.163   7.548   5.270 -0.1579 -0.2170  0.0566
  752SOL    HW1 7194   4.101   7.475   5.265 -0.5630 -0.0154  1.4662
  752SOL    HW2 7195   4.232   7.516   5.329  2.0703 -1.0767 -2.8039
  753SOL     OW 7196   2.321   8.124   8.565  0.1975 -0.4878 -0.1853
  753SOL    HW1 7197   2.366   8.092   8.487 -0.5310  0.1679 -0.8938
  753SOL    HW2 7198   2.239   8.073   8.567  0.7249 -1.3186  0.8073
  754SOL     OW 7199   1.992   5.214   5.114  0.2849 -0.3802  0.1404
  754SOL    HW1 7200   1.899   5.234   5.119  0.3822 -0.2532  2.2266
  754SOL    HW2 7201   2.027   5.280   5.054 -0.9377 -0.4051 -0.6394
  755SOL     OW 7202   7.904   7.335   0.667 -0.3016  0.4201  0.0650
  755SOL    HW1 7203   7.991   7.314   0.698 -0.8423 -1.3538  0.4904
  755SOL    HW2 7204   7.913   7.420   0.624  1.3965  0.7518  1.0283
  756SOL     OW 7205   1.713   4.826   1.549  0.1174 -0.2189 -0.1885
  756SOL    HW1 7206   1.639   4.778   1.585  2.8307 -2.5077  2.8629
  756SOL    HW2 7207   1.732   4.782   1.466 -0.6848 -0.9229 -0.0087
  757SOL     OW 7208   9.251   1.109   4.992  0.0233 -0.4221 -0.1044
  757SOL    HW1 7209   9.301   1.072   5.065  0.9451  0.5810 -0.1874
  757SOL    HW2 7210   9.318   1.142   4.932 -0.5915  3.6340  1.1252
  758SOL     OW 7211   6.761   0.668   8.756 -0.8606  0.0818  0.3257
  758SOL    HW1 7212   6.795   0.697   8.671  0.7317  1.5713  1.3878
  758SOL    HW2 7213   6.677   0.712   8.765 -1.6545 -1.1042 -0.9971
  759SOL     OW 7214   4.349   8.041   2.766 -0.2067 -0.3033 -0.3247
  759SOL    HW1 7215   4.313   8.013   2.682 -1.8620  1.5603 -0.3091
  759SOL    HW2 7216   4.423   8.097   2.743 -0.5223  0.0252 -0.5574
  760SOL     OW 7217   3.306   5.565   7.147 -0.4576 -0.1296  0.2836
  760SOL    HW1 7218   3.275   5.600   7.231 -0.8039 -1.6516  0.8064
  760SOL    HW2 7219   3.288   5.635   7.084 -1.3888  0.5179  1.2414
  761SOL     OW 7220  11.455   8.060   0.639 -0.6264 -0.2987  0.9782
  761SOL    HW1 7221  11.515   8.053   0.564 -1.8710 -0.3147 -0.0423
  761SOL    HW2 7222  11.373   8.024   0.607 -1.6396  1.1600  1.8386
  762SOL     OW 7223   5.997   9.194   6.083  0.4944  0.0899  0.0838
  762SOL    HW1 7224   6.081   9.210   6.127 -0.1798  2.2285  0.6979
  762SOL    HW2 7225   5.937   9.175   6.155  0.5817 -2.4288 -0.4154
  763SOL     OW 7226  11.025   7.020   1.808 -0.5429  0.1385 -0.1374
  763SOL    HW1 7227  10.968   6.959   1.761 -1.4439  1.2967 -0.5794
  763SOL    HW2 7228  11.027   7.098   1.753  1.8729 -0.0147 -0.3928
  764SOL     OW 7229   4.982   8.477   5.628 -0.5902 -0.4416  0.0569
  764SOL    HW1 7230   4.934   8.515   5.555 -1.8589 -1.5271  0.2934
  764SOL    HW2 7231   4.917   8.469   5.698  0.1857 -0.9971  0.7346
  765SOL     OW 7232   7.455   0.352  10.373  1.0804 -0.4345 -0.3703
  765SOL    HW1 7233   7.549   0.336  10.359  1.5172  1.6895 -0.1818
  765SOL    HW2 7234   7.449   0.381  10.464  0.1682 -0.8180 -0.2958
  766SOL     OW 7235   1.940   5.944  10.274 -0.1721 -0.8414 -0.0740
  766SOL    HW1 7236   1.886   5.933  10.352  0.7697 -0.8786  0.5939
  766SOL    HW2 7237   1.888   5.905  10.203 -1.4669  0.0813  0.3323
  767SOL     OW 7238   7.888   3.153   0.395  0.1020  0.3126 -0.7492
  767SOL    HW1 7239   7.961   3.092   0.409 -0.7766 -0.7268 -0.6523
  767SOL    HW2 7240   7.889   3.169   0.300  0.6360  0.5448 -0.7106
  768SOL     OW 7241   3.949   5.723   7.653  0.3168 -0.3360 -0.1977
  768SOL    HW1 7242   3.922   5.676   7.574 -0.7174 -1.7138  0.9226
  768SOL    HW2 7243   4.042   5.739   7.641 -0.0371  0.6091 -2.2246
  769SOL     OW 7244   9.964   0.458   1.771  0.5668 -0.7838  0.0307
  769SOL    HW1 7245   9.925   0.380   1.811  1.4829 -1.2547  0.0390
  769SOL    HW2 7246  10.048   0.467   1.815 -0.1315  1.0840  1.0744
  770SOL     OW 7247   9.845   8.928  10.926 -0.2504  0.4673  0.4439
  770SOL    HW1 7248   9.836   8.931  10.830 -0.7878 -0.0743  0.4698
  770SOL    HW2 7249   9.771   8.875  10.955 -0.4710  1.1947  1.2238
  771SOL     OW 7250   5.184   9.597   4.053  0.0954 -0.2127  0.4155
  771SOL    HW1 7251   5.134   9.674   4.080  0.3461 -0.2238  0.9256
  771SOL    HW2 7252   5.193   9.545   4.133  1.5174  0.1324  0.5104
  772SOL     OW 7253   3.104   6.373   6.194  0.6069  0.1485 -0.5390
  772SOL    HW1 7254   3.160   6.429   6.139  1.5525  0.3782  0.6220
  772SOL    HW2 7255   3.151   6.366   6.277  0.3117 -2.0483 -0.5011
  773SOL     OW 7256   5.487   0.265   9.471 -0.6263 -0.4132  0.2919
  773SOL    HW1 7257   5.471   0.315   9.551  1.3344  0.4006  0.2572
  773SOL    HW2 7258   5.401   0.254   9.431 -1.2880  2.1003  0.8234
  774SOL     OW 7259   4.115   8.171   3.811  1.2083  0.1061 -0.0891
  774SOL    HW1 7260   4.111   8.148   3.904 -3.0302 -0.9175 -0.2934
  774SOL    HW2 7261   4.114   8.267   3.810 -2.2087  0.2499  1.1655
  775SOL     OW 7262   8.790   2.573   5.640 -0.4250  0.6787 -0.5478
  775SOL    HW1 7263   8.867   2.518   5.630  1.0272  2.8553 -2.3915
  775SOL    HW2 7264   8.727   2.519   5.688  0.9186 -2.4743 -2.0887
  776SOL     OW 7265  11.029   6.560   0.765 -0.0089  0.0554 -0.2244
  776SOL    HW1 7266  10.983   6.505   0.828 -1.8963  1.0480 -0.6764
  776SOL    HW2 7267  10.979   6.551   0.684  1.0836  0.5291 -0.9785
  777SOL     OW 7268   8.170   9.466   9.208  0.2564 -0.6789 -0.0021
  777SOL    HW1 7269   8.106   9.458   9.137 -1.2555 -0.3499  1.2729
  777SOL    HW2 7270   8.178   9.560   9.222  0.7743 -0.7339  0.0791
  778SOL     OW 7271   0.268   1.594   3.400 -0.8471  0.0258 -0.1675
  778SOL    HW1 7272   0.333   1.661   3.419 -1.2335 -0.2610  2.4942
  778SOL    HW2 7273   0.187   1.642   3.385 -1.2285  0.2246  2.1883
  779SOL     OW 7274   2.215   2.763   9.908  0.0075  0.8628 -0.8060
  779SOL    HW1 7275   2.264   2.810   9.976  1.0431  0.3306 -1.1725
  779SOL    HW2 7276   2.280   2.710   9.863 -0.9222  0.0619 -1.2549
  780SOL     OW 7277   9.029  10.484  10.528  0.0081 -0.6475  0.1538
  780SOL    HW1 7278   8.965  10.533  10.476  1.5269  0.4168 -0.7964
  780SOL    HW2 7279   9.059  10.414  10.470 -0.5869 -1.4127  0.7504
  781SOL     OW 7280   6.584   1.679   2.633  0.0454 -0.7595  0.3493
  781SOL    HW1 7281   6.571   1.634   2.549  0.4756 -0.3392  0.0531
  781SOL    HW2 7282   6.523   1.635   2.692 -0.6608 -0.7003 -0.3084
  782SOL     OW 7283   2.816   7.010   3.233  0.5159 -0.3022 -0.1301
  782SOL    HW1 7284   2.726   6.984   3.212  0.1110  1.5463 -0.8760
  782SOL    HW2 7285   2.853   6.934   3.278 -1.1551 -1.4052 -0.5277
  783SOL     OW 7286   5.576   9.444   6.199 -0.6655 -0.0391 -0.5876
  783SOL    HW1 7287   5.639   9.455   6.127 -0.0906 -1.7739 -0.3892
  783SOL    HW2 7288   5.626   9.404   6.269 -1.6863 -0.1783  0.0808
  784SOL     OW 7289   8.468   9.219   6.748 -0.2772 -0.2426 -0.6161
  784SOL    HW1 7290   8.408   9.144   6.756 -0.2894 -0.4657 -2.3266
  784SOL    HW2 7291   8.424   9.277   6.685 -0.6533  1.6270  1.2750
  785SOL     OW 7292   4.978   7.828  11.061  0.4043  0.3502 -0.3218
  785SOL    HW1 7293   4.887   7.848  11.081  0.7209  0.1908  1.3754
  785SOL    HW2 7294   5.027   7.902  11.097  0.9093  0.8715 -1.9852
  786SOL     OW 7295   7.545   4.082   1.094  0.4333  0.2247  0.2700
  786SOL    HW1 7296   7.577   4.154   1.040 -0.7075  0.2956 -0.3467
  786SOL    HW2 7297   7.462   4.056   1.053 -0.7879  0.6746  2.3267
  787SOL     OW 7298   5.536   9.889   6.025 -0.6142  0.6253 -0.1711
  787SOL    HW1 7299   5.583   9.854   5.949  0.3365 -1.1046  1.1404
  787SOL    HW2 7300   5.592   9.959   6.057  0.2286 -0.2640  0.3455
  788SOL     OW 7301   0.858   4.471  10.236 -0.1987  0.0578 -0.5762
  788SOL    HW1 7302   0.915   4.409  10.282  0.1953  0.5091 -0.4525
  788SOL    HW2 7303   0.907   4.553  10.236 -0.5352  0.2639 -1.1091
  789SOL     OW 7304   9.447   7.590   5.001  0.2959 -0.2324  0.1835
  789SOL    HW1 7305   9.531   7.604   5.046 -0.3070  2.0548  0.7390
  789SOL    HW2 7306   9.401   7.673   5.011 -2.3125 -1.6010  0.3993
  790SOL     OW 7307   2.141  11.132   8.690 -0.0446  0.7599 -0.0202
  790SOL    HW1 7308   2.135  11.045   8.651 -2.3753 -0.6844  3.0616
  790SOL    HW2 7309   2.212  11.124   8.754 -1.4234  0.4468  1.5341
  791SOL     OW 7310   8.373   8.772   5.082  0.2144 -0.6699 -0.3741
  791SOL    HW1 7311   8.344   8.860   5.108 -0.9627 -0.4073 -2.3269
  791SOL    HW2 7312   8.342   8.715   5.152 -0.7425  0.2464 -0.0199
  792SOL     OW 7313   9.754   6.929   1.460 -0.6415 -0.0030 -0.0680
  792SOL    HW1 7314   9.810   6.971   1.526 -0.7455 -0.5531  0.3706
  792SOL    HW2 7315   9.670   6.975   1.467 -0.4186  0.4593 -0.3574
  793SOL     OW 7316   6.742   6.488   8.076  0.0959  0.6614 -0.5605
  793SOL    HW1 7317   6.771   6.436   8.001  0.1627 -0.9140  0.5076
  793SOL    HW2 7318   6.809   6.474   8.142 -1.4121 -0.4079  0.8184
  794SOL     OW 7319   9.159   5.155   9.532 -0.0505  0.1198  0.4247
  794SOL    HW1 7320   9.133   5.187   9.618 -3.6211  0.9157 -0.7680
  794SOL    HW2 7321   9.109   5.074   9.521  0.4574 -0.0404 -0.8397
  795SOL     OW 7322   0.341   0.676   0.900 -0.5383  0.2737 -0.0869
  795SOL    HW1 7323   0.353   0.663   0.806 -0.2549 -0.9275  0.0916
  795SOL    HW2 7324   0.416   0.633   0.940 -2.3704 -2.3847  0.8169
  796SOL     OW 7325   5.381   4.430   5.529 -0.3876  0.1203 -0.1575
  796SOL    HW1 7326   5.311   4.495   5.531 -0.2509  0.2565  0.9126
  796SOL    HW2 7327   5.341   4.351   5.567 -0.1380  0.0215 -0.0947
  797SOL     OW 7328   0.150   1.634  10.284 -0.3418 -0.1831  0.0381
  797SOL    HW1 7329   0.235   1.632  10.326 -1.2679  0.1968  2.0296
  797SOL    HW2 7330   0.152   1.712  10.229  1.1770 -1.1407 -1.3471
  798SOL     OW 7331   7.801   4.022  10.051 -0.2311  0.3634 -0.1791
  798SOL    HW1 7332   7.850   4.097  10.084 -0.7929  0.3650  0.6709
  798SOL    HW2 7333   7.746   4.058   9.981  0.8234  0.3932 -1.0090
  799SOL     OW 7334   0.328   6.246   1.188  0.0378 -0.2238 -0.0496
  799SOL    HW1 7335   0.371   6.307   1.128  2.5888 -2.3640 -0.6068
  799SOL    HW2 7336   0.394   6.227   1.255 -1.4510 -0.7362  1.3574
  800SOL     OW 7337   3.708   4.646   2.710  0.3730  0.4177  0.2258
  800SOL    HW1 7338   3.801   4.666   2.695 -0.4834  2.6523 -3.1961
  800SOL    HW2 7339   3.662   4.726   2.685 -2.5391 -0.7398  1.4944
  801SOL     OW 7340   0.740   8.952   2.377  0.4520  0.2919 -0.5270
  801SOL    HW1 7341   0.803   8.972   2.446  0.3185  0.1744 -0.3707
  801SOL    HW2 7342   0.794   8.915   2.307  0.4007 -1.1564  0.1577
  802SOL     OW 7343   6.916   3.221   0.315  0.1656  0.5069  0.0579
  802SOL    HW1 7344   6.837   3.169   0.335 -1.3535  1.3483 -3.0372
  802SOL    HW2 7345   6.981   3.155   0.289 -1.6884 -0.1675 -3.6964
  803SOL     OW 7346   2.361   2.922   4.673 -0.1307 -0.0942 -0.1989
  803SOL    HW1 7347   2.440   2.871   4.689  0.1594  0.0648 -1.0529
  803SOL    HW2 7348   2.292   2.857   4.663 -0.2694 -0.2043  1.3435
  804SOL     OW 7349   2.986   2.647   1.589 -0.6556 -0.3191  0.2356
  804SOL    HW1 7350   3.017   2.736   1.575 -1.6524 -0.0415 -0.3554
  804SOL    HW2 7351   3.054   2.605   1.640  0.8909  0.1256 -1.3558
  805SOL     OW 7352   2.927   3.872   3.151  0.0544 -0.0732 -0.1318
  805SOL    HW1 7353   2.903   3.959   3.120 -2.2988 -0.2727  0.8906
  805SOL    HW2 7354   2.927   3.879   3.246  1.6869 -0.7846 -0.0429
  806SOL     OW 7355  11.091   7.300   8.019  0.8626  1.1378  0.2027
  806SOL    HW1 7356  11.034   7.332   7.949  1.4623  0.9904 -0.3569
  806SOL    HW2 7357  11.174   7.280   7.976  0.0276 -2.9699  0.0537
  807SOL     OW 7358   4.494   8.099   4.800 -0.2983 -0.6638 -0.4312
  807SOL    HW1 7359   4.476   8.029   4.738 -3.5755 -0.2919 -0.0677
  807SOL    HW2 7360   4.527   8.054   4.878 -2.3521 -1.9004 -0.1980
  808SOL     OW 7361   8.643   7.468   6.883 -0.0809 -0.5042  0.2311
  808SOL    HW1 7362   8.635   7.428   6.970 -0.8540  0.2446  0.5249
  808SOL    HW2 7363   8.738   7.474   6.869  0.0565 -0.8663  0.9145
  809SOL     OW 7364   9.837   2.881   1.127  0.2536  0.2440  0.1642
  809SOL    HW1 7365   9.768   2.840   1.180  0.0882 -0.3605 -0.4935
  809SOL    HW2 7366   9.864   2.957   1.177 -0.5392  0.1997  0.6788
  810SOL     OW 7367   3.161   7.200   2.479  0.5721  0.1532 -0.1569
  810SOL    HW1 7368   3.227   7.163   2.420  0.3599  1.5958 -1.3451
  810SOL    HW2 7369   3.090   7.135   2.478  1.1798 -0.5251 -0.3375
  811SOL     OW 7370   1.925   8.811   9.364  0.1906  0.3026 -0.2514
  811SOL    HW1 7371   1.893   8.900   9.381 -1.1606 -0.2582  0.3474
  811SOL    HW2 7372   1.862   8.774   9.302  1.0169 -0.0880 -0.8804
  812SOL     OW 7373  11.451   4.701   9.212 -0.0031  0.4486 -0.0826
  812SOL    HW1 7374  11.504   4.627   9.183 -0.1252  1.0247 -1.8750
  812SOL    HW2 7375  11.482   4.775   9.161 -0.7089  1.3969  0.8054
  813SOL     OW 7376   7.656   7.553   4.814 -0.0467  1.2397  0.2333
  813SOL    HW1 7377   7.621   7.637   4.844  1.2183  2.1079 -0.6276
  813SOL    HW2 7378   7.685   7.570   4.724  0.8986  0.0840  0.3012
  814SOL     OW 7379   4.381   0.839   1.324  0.1284  0.0091  0.0508
  814SOL    HW1 7380   4.438   0.797   1.259  0.6221  0.7127  0.0142
  814SOL    HW2 7381   4.322   0.893   1.271 -0.1278 -0.1997  0.1274
  815SOL     OW 7382   9.939   2.448   2.147  0.4195  0.7268  0.6027
  815SOL    HW1 7383   9.994   2.502   2.202 -0.7592  2.3604  0.2345
  815SOL    HW2 7384   9.854   2.490   2.148 -0.1541 -0.2873 -0.9030
  816SOL     OW 7385   9.213   1.725   4.193  0.9127 -0.6892  0.2163
  816SOL    HW1 7386   9.186   1.677   4.115 -0.7997  0.3991  0.0900
  816SOL    HW2 7387   9.209   1.660   4.263 -1.5815 -0.8012  0.0888
  817SOL     OW 7388   0.226   7.184   1.333  0.3567  0.3737 -0.2216
  817SOL    HW1 7389   0.140   7.212   1.366  0.3677 -1.1515  1.2075
  817SOL    HW2 7390   0.280   7.263   1.339 -0.2009  0.6675  1.5056
  818SOL     OW 7391   1.770  10.229   1.873  0.1457 -0.6285 -0.1051
  818SOL    HW1 7392   1.710  10.169   1.918 -1.5779  1.5429  0.6276
  818SOL    HW2 7393   1.731  10.240   1.786  0.6303 -0.7631 -0.3456
  819SOL     OW 7394   2.550   0.453   3.459 -0.1740 -0.4109  0.3312
  819SOL    HW1 7395   2.474   0.394   3.463 -0.0141 -0.8883 -2.3220
  819SOL    HW2 7396   2.512   0.541   3.467 -0.6974 -0.7122  1.5147
  820SOL     OW 7397   1.873  10.553   9.951 -0.0627 -0.1821  0.1985
  820SOL    HW1 7398   1.794  10.608   9.952 -0.3409 -0.5497 -0.6905
  820SOL    HW2 7399   1.888  10.535   9.859  2.4439  1.7767  0.1302
  821SOL     OW 7400   5.552   3.947   3.197  0.6507 -0.4263  0.6553
  821SOL    HW1 7401   5.517   3.869   3.241  1.8627 -0.7744  1.0434
  821SOL    HW2 7402   5.474   3.997   3.172 -0.1318 -1.4296  0.9997
  822SOL     OW 7403   7.146   0.609   3.433 -0.2859 -0.6634 -0.7929
  822SOL    HW1 7404   7.123   0.522   3.465  1.0422 -1.4333 -1.8463
  822SOL    HW2 7405   7.233   0.626   3.470 -0.7934  0.4953 -0.0859
  823SOL     OW 7406   0.015   5.982   4.876 -0.2801  0.0901 -0.2952
  823SOL    HW1 7407   0.086   6.038   4.842 -0.5736  0.2091 -0.7201
  823SOL    HW2 7408  -0.054   6.044   4.900  0.6407  0.2207  2.4466
  824SOL     OW 7409   0.991   9.472   2.593  0.0362 -0.0133 -0.5921
  824SOL    HW1 7410   0.991   9.458   2.499  0.8194 -0.5564 -0.5223
  824SOL    HW2 7411   1.059   9.412   2.626 -0.9931 -0.6441  0.4327
  825SOL     OW 7412  10.398   0.445   3.846  0.1488 -0.0729  0.0840
  825SOL    HW1 7413  10.363   0.428   3.933 -0.5898  0.3983 -0.1169
  825SOL    HW2 7414  10.367   0.371   3.793  0.2600 -0.1493  0.1247
  826SOL     OW 7415  11.101   4.890   8.152 -0.6517  0.5449  0.0943
  826SOL    HW1 7416  11.190   4.873   8.124 -0.2671  0.7712  1.1297
  826SOL    HW2 7417  11.087   4.983   8.134 -1.3265  0.1385 -1.7313
  827SOL     OW 7418  10.722   1.967   1.140  0.3492  0.0682 -0.0812
  827SOL    HW1 7419  10.701   2.060   1.136 -0.8740 -0.1113  1.1954
  827SOL    HW2 7420  10.638   1.923   1.128  1.2204 -1.0230 -3.2751
  828SOL     OW 7421   2.911   0.988  10.499 -0.1298  0.7432 -0.0039
  828SOL    HW1 7422   2.871   1.075  10.496  1.0837  1.3887  1.4015
  828SOL    HW2 7423   2.863   0.941  10.567 -2.2162 -0.5116 -2.1890
  829SOL     OW 7424   5.976   9.771   7.408 -0.3057  0.6687 -0.1620
  829SOL    HW1 7425   6.011   9.754   7.496  0.0094 -0.5728 -0.5068
  829SOL    HW2 7426   5.888   9.734   7.409  0.2177 -0.6585 -0.7837
  830SOL     OW 7427   3.157   2.451   5.232  0.1579 -0.6585  0.0187
  830SOL    HW1 7428   3.193   2.381   5.286  1.9042 -0.4675 -0.8366
  830SOL    HW2 7429   3.174   2.531   5.282 -2.0480 -0.7843  1.1086
  831SOL     OW 7430   1.318   9.539   8.329 -0.6698 -0.0661 -0.2692
  831SOL    HW1 7431   1.290   9.523   8.239  0.2290  1.3441 -0.8406
  831SOL    HW2 7432   1.263   9.611   8.359 -0.7912 -0.3576  0.2284
  832SOL     OW 7433   5.267   5.682   3.374 -0.6925 -0.0438  0.0143
  832SOL    HW1 7434   5.298   5.769   3.351 -1.1376  0.6714  1.9802
  832SOL    HW2 7435   5.346   5.633   3.399 -0.7831  1.0389  2.6910
  833SOL     OW 7436   6.332   6.238  10.646 -1.0169 -0.3903 -0.5615
  833SOL    HW1 7437   6.390   6.178  10.694  1.0669  2.7290  1.1866
  833SOL    HW2 7438   6.259   6.253  10.705  0.0465  1.1096  0.4525
  834SOL     OW 7439   6.018  11.666   5.105 -0.1006  0.1419  0.3487
  834SOL    HW1 7440   5.956  11.685   5.034  1.7543  2.3572 -0.7889
  834SOL    HW2 7441   6.103  11.660   5.062  0.8618 -0.2314  2.1901
  835SOL     OW 7442  10.992   5.496   7.194  0.1983  0.1071  0.1788
  835SOL    HW1 7443  10.907   5.459   7.218 -0.2925  1.0038 -0.1155
  835SOL    HW2 7444  10.999   5.483   7.100 -0.7790  2.2523 -0.2520
  836SOL     OW 7445   7.213   7.463   2.995 -0.3765 -0.3945  1.0155
  836SOL    HW1 7446   7.168   7.385   3.026  0.8090 -1.6402 -0.2909
  836SOL    HW2 7447   7.232   7.513   3.075  0.1589 -2.1629  2.0371
  837SOL     OW 7448   5.395   6.743   7.152 -0.2640 -0.3919 -0.3095
  837SOL    HW1 7449   5.324   6.808   7.153 -0.5141 -0.6621  0.2909
  837SOL    HW2 7450   5.444   6.760   7.232 -1.5383 -2.2148  0.9567
  838SOL     OW 7451   3.804   4.735  11.600 -0.0739 -0.5233  0.4696
  838SOL    HW1 7452   3.752   4.680  11.659 -0.3871 -1.0909 -0.3151
  838SOL    HW2 7453   3.748   4.810  11.580  0.1988 -0.1120  1.2262
  839SOL     OW 7454   4.055   9.127   7.453  0.3945  0.4008  0.1906
  839SOL    HW1 7455   4.123   9.152   7.515 -0.0396  0.1933  0.7632
  839SOL    HW2 7456   4.098   9.126   7.368  0.4871  3.0455  0.1199
  840SOL     OW 7457   6.898  10.205  10.671  0.1612 -0.3020 -0.3535
  840SOL    HW1 7458   6.820  10.238  10.627 -0.7996 -0.6202  1.0182
  840SOL    HW2 7459   6.865  10.167  10.753  1.6992 -0.9180  0.0236
  841SOL     OW 7460   3.840   5.283   8.744  0.5961  0.1155  0.1399
  841SOL    HW1 7461   3.900   5.316   8.677  0.2682  0.6272  0.0907
  841SOL    HW2 7462   3.793   5.361   8.774 -0.5156 -0.3729 -0.2966
  842SOL     OW 7463   9.517   0.700   2.836 -0.4095  0.0285 -0.0778
  842SOL    HW1 7464   9.605   0.725   2.864 -0.3022 -1.1904  0.7507
  842SOL    HW2 7465   9.473   0.675   2.917 -1.2901 -0.0775 -0.5804
  843SOL     OW 7466  11.325   4.464   0.357 -0.1143 -0.5438 -0.1742
  843SOL    HW1 7467  11.333   4.375   0.391  1.0284 -0.5117 -0.3106
  843SOL    HW2 7468  11.250   4.460   0.297 -0.4970 -1.2396  0.3404
  844SOL     OW 7469   8.534   7.618  11.459  0.1277  0.2707 -0.3253
  844SOL    HW1 7470   8.560   7.592  11.548  1.6219  0.7816 -0.5918
  844SOL    HW2 7471   8.556   7.711  11.453  2.1593 -0.2219 -1.9065
  845SOL     OW 7472   8.230   4.317   5.298 -0.1580 -0.5070 -0.6078
  845SOL    HW1 7473   8.309   4.264   5.301  2.5382  3.1224  1.2563
  845SOL    HW2 7474   8.188   4.304   5.383  0.0217 -0.3678 -0.4957
  846SOL     OW 7475   1.286   9.881  10.968  0.4019  0.2318 -0.2528
  846SOL    HW1 7476   1.219   9.948  10.970  0.5465  0.3664  0.3586
  846SOL    HW2 7477   1.285   9.848  10.878 -2.8772 -2.1883  0.4759
  847SOL     OW 7478   4.786   4.148   0.932 -0.0192 -0.2449  0.1891
  847SOL    HW1 7479   4.825   4.128   1.017  0.0767  0.6632  0.3710
  847SOL    HW2 7480   4.798   4.242   0.922  1.3605 -0.5480 -1.5085
  848SOL     OW 7481   8.225   3.257   3.202  0.1352  0.6099 -0.0453
  848SOL    HW1 7482   8.198   3.339   3.162  0.3520  0.8947  0.3812
  848SOL    HW2 7483   8.153   3.196   3.183 -0.6435  1.2502  0.7609
  849SOL     OW 7484   7.711   8.538  10.901  0.2588 -0.1545 -0.2789
  849SOL    HW1 7485   7.775   8.559  10.969 -1.5851 -1.5985  2.0690
  849SOL    HW2 7486   7.703   8.443  10.903 -1.9772 -0.0216 -0.4212
  850SOL     OW 7487  11.014   9.716   2.515 -0.2870  0.6361 -0.6515
  850SOL    HW1 7488  10.972   9.800   2.531  1.2969  1.3459 -0.0240
  850SOL    HW2 7489  10.960   9.652   2.561 -1.1437  1.3847 -0.5973
  851SOL     OW 7490  10.903  11.651   1.509 -0.2998  0.6523 -0.0617
  851SOL    HW1 7491  10.983  11.704   1.505  0.0624  0.0552 -1.0781
  851SOL    HW2 7492  10.923  11.573   1.457 -1.7675  0.8031 -0.9007
  852SOL     OW 7493   7.560  10.919   5.091 -0.0764 -0.2476  0.2864
  852SOL    HW1 7494   7.640  10.958   5.054  0.7032 -0.5122  1.6096
  852SOL    HW2 7495   7.571  10.825   5.078 -1.2812 -0.1538 -1.6055
  853SOL     OW 7496   0.561   7.358   7.681 -0.0473 -0.0949 -0.1840
  853SOL    HW1 7497   0.524   7.445   7.695  1.5187  0.5960 -0.1576
  853SOL    HW2 7498   0.636   7.354   7.739  0.1134 -1.3406 -0.4497
  854SOL     OW 7499   6.837   6.693   0.713 -0.0013 -0.3693 -0.2812
  854SOL    HW1 7500   6.873   6.779   0.736 -1.1485  0.0770 -0.0802
  854SOL    HW2 7501   6.852   6.640   0.791  1.7985 -0.7392 -0.8325
  855SOL     OW 7502   1.044  10.784   6.277 -0.6782 -0.6937 -0.1275
  855SOL    HW1 7503   1.021  10.823   6.192 -0.7122 -0.5134 -0.0354
  855SOL    HW2 7504   0.964  10.740   6.305 -0.9608  0.0536  0.2601
  856SOL     OW 7505   8.322   4.801   2.579  0.5308  0.1137  0.5249
  856SOL    HW1 7506   8.383   4.812   2.506 -0.1324  0.3811  0.0071
  856SOL    HW2 7507   8.330   4.708   2.602 -1.0778 -0.6287 -1.5508
  857SOL     OW 7508   7.872   1.548   2.563 -0.5747 -0.2251 -0.2120
  857SOL    HW1 7509   7.889   1.498   2.642 -0.1409 -1.1156 -0.8452
  857SOL    HW2 7510   7.872   1.639   2.591 -1.7403 -0.5710  1.0382
  858SOL     OW 7511  10.137   6.533   5.787  0.0862 -0.3466 -0.3328
  858SOL    HW1 7512  10.173   6.445   5.784 -0.0325 -0.3850 -0.6243
  858SOL    HW2 7513  10.174   6.571   5.867 -1.1653 -1.2208  0.7104
  859SOL     OW 7514   3.512   4.492  11.612 -0.2040 -0.3714 -0.0155
  859SOL    HW1 7515   3.559   4.408  11.612 -1.8967 -1.3658 -0.1915
  859SOL    HW2 7516   3.550   4.540  11.538 -1.3350 -2.2899 -1.9554
  860SOL     OW 7517   3.591   6.351   4.308  0.4440 -0.7513 -0.2631
  860SOL    HW1 7518   3.500   6.379   4.299  0.6478  0.0662  0.0545
  860SOL    HW2 7519   3.641   6.417   4.259  1.0235  0.0061  1.2859
  861SOL     OW 7520   9.442   4.402   8.276  0.3058 -0.0097 -0.2068
  861SOL    HW1 7521   9.534   4.380   8.258  0.1423 -0.7015 -0.2325
  861SOL    HW2 7522   9.439   4.497   8.272  0.8370 -0.0242 -1.1219
  862SOL     OW 7523   5.893  11.340   1.309  0.3360 -0.4795 -0.0254
  862SOL    HW1 7524   5.972  11.391   1.327 -0.1689 -0.0984  1.2244
  862SOL    HW2 7525   5.865  11.370   1.222 -0.2034  1.7606  0.8471
  863SOL     OW 7526   5.478   0.154   7.348 -0.2107  0.3887  0.4864
  863SOL    HW1 7527   5.471   0.069   7.392 -0.2033 -0.0935 -0.4091
  863SOL    HW2 7528   5.400   0.202   7.376  0.8458  0.9380  2.6918
  864SOL     OW 7529   3.029   6.766   7.175  0.4752 -0.7633 -0.5937
  864SOL    HW1 7530   2.981   6.686   7.156  1.7752 -1.3402 -1.6030
  864SOL    HW2 7531   3.121   6.739   7.182  1.0990  0.7663 -2.0693
  865SOL     OW 7532   3.082   1.597   4.446  0.0315  0.7032 -1.1207
  865SOL    HW1 7533   3.156   1.551   4.406 -1.0679 -2.7411  0.4059
  865SOL    HW2 7534   3.098   1.590   4.540 -1.7928  0.5713 -0.7874
  866SOL     OW 7535   8.577   8.259   8.058 -0.2576 -0.2665  0.8193
  866SOL    HW1 7536   8.590   8.342   8.103 -0.5348 -0.2034  0.7873
  866SOL    HW2 7537   8.635   8.263   7.981  0.0196 -0.2664  1.0271
  867SOL     OW 7538   7.339   3.247   3.586  0.0235 -0.0087 -0.5276
  867SOL    HW1 7539   7.380   3.311   3.527 -0.8854  1.1392  0.0378
  867SOL    HW2 7540   7.254   3.230   3.547  0.0094 -0.3919 -0.3291
  868SOL     OW 7541   4.507   6.684   5.525  0.2508 -0.0355  0.3203
  868SOL    HW1 7542   4.567   6.609   5.519  0.2858  0.0399 -0.4404
  868SOL    HW2 7543   4.483   6.688   5.617 -0.6118 -1.6472  0.1981
  869SOL     OW 7544   3.778   1.394   2.510  0.2157  0.5169  0.3825
  869SOL    HW1 7545   3.860   1.411   2.462  0.6227  0.7762  1.1622
  869SOL    HW2 7546   3.749   1.308   2.478  0.5874  0.5927 -0.1790
  870SOL     OW 7547   8.792   2.845   6.688  0.1165 -0.4390  0.1393
  870SOL    HW1 7548   8.877   2.857   6.646 -0.2914 -1.2582 -0.9832
  870SOL    HW2 7549   8.792   2.906   6.762  0.9347  0.9130 -0.9379
  871SOL     OW 7550   6.557   4.388   8.121  0.0778  0.1117 -0.4777
  871SOL    HW1 7551   6.523   4.348   8.201  0.9069  0.6269  0.1568
  871SOL    HW2 7552   6.628   4.445   8.151  0.8511 -0.1945 -1.6467
  872SOL     OW 7553  11.198   8.791  11.559  0.6713  0.1173 -0.2310
  872SOL    HW1 7554  11.126   8.782  11.497 -0.5334  1.3714  0.9146
  872SOL    HW2 7555  11.247   8.867  11.528 -1.3092  2.2656  1.5410
  873SOL     OW 7556  10.258   8.137   4.240  0.5324 -0.0294 -0.3568
  873SOL    HW1 7557  10.276   8.124   4.148  0.2517  2.4437 -0.8357
  873SOL    HW2 7558  10.330   8.192   4.272  0.7478 -1.0185  0.9827
  874SOL     OW 7559   1.866   0.887   5.683 -0.5216 -0.1271 -0.2608
  874SOL    HW1 7560   1.792   0.902   5.741  0.3993 -0.4041  1.0281
  874SOL    HW2 7561   1.932   0.950   5.711 -0.5360  0.7265 -1.9651
  875SOL     OW 7562   5.539   1.147   5.287  0.2753 -0.4969 -0.1238
  875SOL    HW1 7563   5.470   1.081   5.279 -0.1097 -0.3113  1.2854
  875SOL    HW2 7564   5.616   1.098   5.314  0.6318 -0.6673 -1.4211
  876SOL     OW 7565   0.950   2.258  11.417 -0.7040  0.0464  0.4947
  876SOL    HW1 7566   0.885   2.216  11.473  0.9649 -1.0999  1.6744
  876SOL    HW2 7567   0.992   2.323  11.474  0.1230 -0.1982  0.1715
  877SOL     OW 7568   0.554   2.483   2.364 -0.1725  0.4165  0.2292
  877SOL    HW1 7569   0.464   2.513   2.353  0.1909  1.0657 -1.2138
  877SOL    HW2 7570   0.605   2.535   2.301  1.1818 -0.0920  0.8500
  878SOL     OW 7571   5.821   9.647   0.450 -0.5677  0.1899 -0.1408
  878SOL    HW1 7572   5.756   9.648   0.520 -0.3396  0.4971  0.0701
  878SOL    HW2 7573   5.819   9.736   0.414 -0.4558  0.1241 -0.3144
  879SOL     OW 7574   4.888  11.125   5.754 -0.0896 -0.0226 -0.2928
  879SOL    HW1 7575   4.855  11.116   5.843 -1.7019 -2.2243 -1.0409
  879SOL    HW2 7576   4.844  11.202   5.719  0.1163  0.5145  0.5943
  880SOL     OW 7577   4.003   0.699   4.470  0.5096  0.0175  0.2179
  880SOL    HW1 7578   4.025   0.792   4.465 -0.6034  0.3426  1.0422
  880SOL    HW2 7579   4.013   0.677   4.562 -0.6151 -0.2989  0.2858
  881SOL     OW 7580   6.454   6.463  10.535 -0.6702  0.4862  0.2374
  881SOL    HW1 7581   6.420   6.373  10.532 -0.9996  0.6268 -0.4403
  881SOL    HW2 7582   6.546   6.454  10.511 -0.5856  0.2757  0.6332
  882SOL     OW 7583   8.849   8.537   2.941 -0.1430  0.0328 -0.3461
  882SOL    HW1 7584   8.903   8.474   2.988  1.0768  0.3744 -1.2401
  882SOL    HW2 7585   8.768   8.542   2.992 -0.3416 -2.3318 -0.3139
  883SOL     OW 7586   2.841   8.811  10.119  0.2063 -0.5135 -0.5934
  883SOL    HW1 7587   2.816   8.740  10.060 -0.9650  0.0461 -0.7930
  883SOL    HW2 7588   2.767   8.872  10.117  1.6314  1.3251 -1.3623
  884SOL     OW 7589   3.579   9.066   2.664 -0.1240  0.5701 -0.1190
  884SOL    HW1 7590   3.557   9.148   2.622 -2.1314  1.2834  2.0950
  884SOL    HW2 7591   3.495   9.023   2.679  0.7859 -1.3343 -0.1115
  885SOL     OW 7592   5.283  10.684   5.597  0.0373  0.7556 -0.8684
  885SOL    HW1 7593   5.294  10.674   5.691  0.1159 -0.1451 -0.9654
  885SOL    HW2 7594   5.364  10.648   5.559 -0.6588 -0.3767 -1.3341
  886SOL     OW 7595   0.994   9.313   8.273 -0.0242 -0.0777 -0.0226
  886SOL    HW1 7596   0.953   9.344   8.192 -1.8669 -3.5960 -0.6183
  886SOL    HW2 7597   1.088   9.325   8.258 -0.4217  1.3375 -1.7378
  887SOL     OW 7598   2.206   3.143   7.016 -0.3076  0.3857 -0.2659
  887SOL    HW1 7599   2.192   3.051   6.992  2.0975 -0.3563  0.8766
  887SOL    HW2 7600   2.232   3.141   7.108  0.8637  2.0826 -0.5045
  888SOL     OW 7601  10.685   3.883   8.512 -0.5312  0.4495  0.2584
  888SOL    HW1 7602  10.757   3.828   8.481 -1.7467 -0.4104 -1.2134
  888SOL    HW2 7603  10.722   3.934   8.584  1.1663 -0.9179  0.4109
  889SOL     OW 7604  11.401   1.865   9.112  0.3230  0.3469  0.5069
  889SOL    HW1 7605  11.391   1.958   9.133 -0.4357  0.6629 -1.0901
  889SOL    HW2 7606  11.322   1.843   9.063  1.4352 -0.5848 -0.9569
  890SOL     OW 7607   3.030   9.097   2.630  0.0835 -0.1883  0.6109
  890SOL    HW1 7608   2.996   9.036   2.564  1.2439 -1.5162  1.1908
  890SOL    HW2 7609   3.118   9.117   2.600 -0.1246  0.8674  0.6755
  891SOL     OW 7610   5.844   2.868  10.756  0.5498  0.1489  0.6348
  891SOL    HW1 7611   5.874   2.778  10.749  0.2503  0.1608 -1.9766
  891SOL    HW2 7612   5.916   2.920  10.719  0.2047  0.8605  0.9384
  892SOL     OW 7613   1.363   8.556   3.917  0.0599  0.4816 -0.0395
  892SOL    HW1 7614   1.276   8.584   3.946 -0.3103 -1.3335  0.7351
  892SOL    HW2 7615   1.346   8.480   3.861  1.1006  0.6860 -0.6499
  893SOL     OW 7616   6.280   4.338   0.672  0.2683 -0.4424  0.0353
  893SOL    HW1 7617   6.235   4.280   0.733  0.8973  1.4506  2.4584
  893SOL    HW2 7618   6.289   4.421   0.719  2.2123  0.6594 -2.0449
  894SOL     OW 7619   4.612   5.634  11.595 -0.0612  0.0600 -0.1120
  894SOL    HW1 7620   4.585   5.716  11.555  0.3428  0.7570  1.0001
  894SOL    HW2 7621   4.687   5.605  11.543 -1.0570 -0.3436 -1.3639
  895SOL     OW 7622   5.745   2.702  11.027 -0.3176  0.4098 -0.0994
  895SOL    HW1 7623   5.776   2.681  10.939 -2.2121 -0.0911 -0.6959
  895SOL    HW2 7624   5.816   2.675  11.085  1.3329  1.5150 -1.4866
  896SOL     OW 7625   4.077   8.902   1.302 -0.1618  0.2086 -0.1401
  896SOL    HW1 7626   4.038   8.814   1.306 -0.5310  0.3030 -1.1962
  896SOL    HW2 7627   4.063   8.939   1.389  1.4147 -1.3554  0.8550
  897SOL     OW 7628   5.755  11.338   0.523 -1.0519  0.3311 -0.0886
  897SOL    HW1 7629   5.820  11.401   0.554 -1.2777 -0.4040  2.0112
  897SOL    HW2 7630   5.767  11.337   0.428  0.6920  1.6260  0.0605
  898SOL     OW 7631  11.571   3.175   4.248  0.0702  0.2818  0.9384
  898SOL    HW1 7632  11.562   3.246   4.186  1.0186  0.0780  0.5562
  898SOL    HW2 7633  11.511   3.108   4.217  0.5269  0.1875  0.2462
  899SOL     OW 7634  10.451   7.106   8.665 -0.0591 -0.2227 -0.4537
  899SOL    HW1 7635  10.427   7.180   8.720 -0.8212 -0.7249 -0.0811
  899SOL    HW2 7636  10.367   7.064   8.644  0.0471  0.6988 -3.1113
  900SOL     OW 7637   7.327   2.003   6.082  0.4349 -0.1184  0.6188
  900SOL    HW1 7638   7.353   2.093   6.062  0.3226  0.3368  2.3966
  900SOL    HW2 7639   7.272   1.977   6.008  1.5210  0.7898 -0.5540
  901SOL     OW 7640   9.099  10.100   6.019 -0.1780  0.1918 -0.0531
  901SOL    HW1 7641   9.032  10.143   5.967  0.4425  2.2519  0.7768
  901SOL    HW2 7642   9.069  10.009   6.025 -1.4642  0.4248 -1.9627
  902SOL     OW 7643   0.833  10.581   1.146  0.3328 -0.0430  0.3214
  902SOL    HW1 7644   0.839  10.671   1.112 -0.3335 -0.4456 -0.9008
  902SOL    HW2 7645   0.779  10.589   1.225  0.5782  0.6806  0.4233
  903SOL     OW 7646  11.113   3.352   8.929  0.1365 -0.0124 -0.0747
  903SOL    HW1 7647  11.143   3.286   8.991 -0.3507  0.1510  0.3436
  903SOL    HW2 7648  11.133   3.436   8.971  1.7491  0.1471 -1.0743
  904SOL     OW 7649   6.835   6.043   5.247 -0.3445  0.8864 -0.0680
  904SOL    HW1 7650   6.770   6.109   5.219 -1.7794 -0.3840  0.1432
  904SOL    HW2 7651   6.868   6.007   5.165 -2.0193 -0.4244 -0.2158
  905SOL     OW 7652  10.728   9.555   6.419  0.2063  0.0733  0.3627
  905SOL    HW1 7653  10.684   9.508   6.348 -0.2123 -1.3295  1.5199
  905SOL    HW2 7654  10.731   9.646   6.389 -0.6495 -0.3546 -1.1106
  906SOL     OW 7655   4.649   9.197   9.595 -0.7932  0.1802 -0.7595
  906SOL    HW1 7656   4.636   9.129   9.661 -1.1727  1.1438  0.1979
  906SOL    HW2 7657   4.744   9.213   9.596 -0.2911 -2.1379 -2.9013
  907SOL     OW 7658   5.154   1.967   1.127 -0.3003 -0.0824  0.0646
  907SOL    HW1 7659   5.129   2.042   1.073  0.5006  0.0119 -0.1999
  907SOL    HW2 7660   5.242   1.989   1.158  0.1313 -1.1072 -0.3839
  908SOL     OW 7661   1.960   2.920   4.097 -0.4234 -0.4420 -0.5258
  908SOL    HW1 7662   1.974   2.851   4.162  0.5034  1.9338  1.9814
  908SOL    HW2 7663   1.882   2.967   4.127 -0.5511  0.1406 -1.6907
  909SOL     OW 7664   8.699   7.550   2.041 -0.1503 -0.3068 -0.2458
  909SOL    HW1 7665   8.754   7.473   2.048  1.2431  0.6080 -0.6211
  909SOL    HW2 7666   8.731   7.609   2.110 -3.3347 -1.2335  2.2971
  910SOL     OW 7667   7.265   8.690   5.456  0.2902  0.1202 -0.0324
  910SOL    HW1 7668   7.298   8.765   5.505 -2.5769  0.9759  0.7487
  910SOL    HW2 7669   7.332   8.623   5.468  0.2566  0.5586  4.3950
  911SOL     OW 7670   5.256   5.889   4.493 -0.0116  0.0440 -0.0854
  911SOL    HW1 7671   5.336   5.940   4.510  0.3058  0.2379 -1.9373
  911SOL    HW2 7672   5.227   5.919   4.407 -0.1063 -2.5066 -1.0211
  912SOL     OW 7673   9.530   3.421  11.172 -0.1389  0.3801 -0.0132
  912SOL    HW1 7674   9.567   3.487  11.113 -0.0407  0.3200 -0.0179
  912SOL    HW2 7675   9.603   3.362  11.192 -0.1024  0.5745  0.4140
  913SOL     OW 7676   0.366   3.099  10.039 -0.0970 -0.1579  0.4661
  913SOL    HW1 7677   0.276   3.132  10.050 -0.4023 -1.0821  0.8298
  913SOL    HW2 7678   0.391   3.070  10.127 -0.2373 -1.8532 -0.0215
  914SOL     OW 7679   9.600   2.659   6.173  0.4162 -0.6227  0.3156
  914SOL    HW1 7680   9.540   2.600   6.219  0.4707 -0.6279  0.3800
  914SOL    HW2 7681   9.623   2.725   6.239 -0.4332  0.0517 -0.0446
  915SOL     OW 7682   9.335  10.213   8.505 -0.1763  0.0230 -0.0947
  915SOL    HW1 7683   9.312  10.215   8.597 -1.3836 -2.1685 -0.2878
  915SOL    HW2 7684   9.263  10.165   8.463  0.2855  1.0450 -2.2023
  916SOL     OW 7685  10.858   9.777   0.605 -0.5173  0.0598  0.4256
  916SOL    HW1 7686  10.768   9.772   0.572  0.5288 -0.4936 -2.7750
  916SOL    HW2 7687  10.860   9.715   0.678 -2.2811 -1.5638 -0.7784
  917SOL     OW 7688   5.325   7.979   1.914 -0.0215 -0.1524  0.0743
  917SOL    HW1 7689   5.284   8.062   1.890 -0.1144 -0.8630 -2.6232
  917SOL    HW2 7690   5.277   7.913   1.864  1.8789 -1.4610 -0.1585
  918SOL     OW 7691  11.100  11.647   0.516  0.0791 -0.3135 -0.5254
  918SOL    HW1 7692  11.011  11.633   0.548  0.1804  1.8138  0.8839
  918SOL    HW2 7693  11.092  11.713   0.448  0.6530  0.5292  0.2079
  919SOL     OW 7694   1.603  10.021   8.952 -0.0317 -0.1915 -0.4085
  919SOL    HW1 7695   1.671   9.956   8.934  0.5898  0.3835 -0.1961
  919SOL    HW2 7696   1.646  10.105   8.938 -0.3795  0.2110  0.7724
  920SOL     OW 7697   8.359   5.437  11.619 -0.7533  0.6860 -0.4343
  920SOL    HW1 7698   8.393   5.349  11.630 -0.6849  0.4998 -1.8970
  920SOL    HW2 7699   8.309   5.454  11.699 -0.8443 -0.7042 -0.1766
  921SOL     OW 7700   4.163   1.154   8.368 -0.7222  0.6319  0.2872
  921SOL    HW1 7701   4.230   1.090   8.344  0.4629  2.1518 -0.6083
  921SOL    HW2 7702   4.205   1.211   8.432 -1.5945  0.8510  0.6907
  922SOL     OW 7703   2.878   9.166   9.161 -0.2274  0.5749  0.4097
  922SOL    HW1 7704   2.922   9.220   9.227  0.1913  1.2705 -0.4166
  922SOL    HW2 7705   2.785   9.181   9.176 -0.1320  0.8235  0.7767
  923SOL     OW 7706   7.308   6.810   1.779  0.4013  0.3877 -0.7854
  923SOL    HW1 7707   7.254   6.799   1.701  2.8906 -1.9776 -2.3655
  923SOL    HW2 7708   7.375   6.874   1.753  1.3574 -0.5529 -0.7052
  924SOL     OW 7709   1.974   8.135  10.176  0.0275  0.2843  0.3866
  924SOL    HW1 7710   1.943   8.087  10.100  0.8842 -1.3325  1.0050
  924SOL    HW2 7711   1.894   8.159  10.224 -0.4218 -0.4082 -0.0131
  925SOL     OW 7712   6.983   3.898   1.394  0.6164 -0.9024 -0.1925
  925SOL    HW1 7713   7.013   3.977   1.349  0.2371 -0.5178  0.2280
  925SOL    HW2 7714   7.005   3.826   1.333  0.7034 -0.4531 -0.6995
  926SOL     OW 7715   4.459   8.464   7.437 -0.0684 -0.3882  0.1355
  926SOL    HW1 7716   4.554   8.464   7.424 -0.0138  0.5027  0.4865
  926SOL    HW2 7717   4.432   8.375   7.412  0.6766 -0.2650 -1.2201
  927SOL     OW 7718   1.983  10.105   6.008  0.3396  0.2376  0.1364
  927SOL    HW1 7719   2.073  10.136   6.003  0.1408  0.7620 -0.3055
  927SOL    HW2 7720   1.931  10.185   6.017 -0.2305  0.0935 -1.5702
  928SOL     OW 7721   7.744   7.894   3.500  0.1563 -0.3573  0.0888
  928SOL    HW1 7722   7.676   7.862   3.558 -1.0207  1.1246 -0.3997
  928SOL    HW2 7723   7.738   7.840   3.422 -0.5449 -0.1721  0.0115
  929SOL     OW 7724   3.030   3.100   2.709 -0.1675  0.3988  0.8922
  929SOL    HW1 7725   3.028   3.194   2.725  0.7725  0.3737  1.2130
  929SOL    HW2 7726   2.995   3.090   2.620  0.4771  1.1413  0.5390
  930SOL     OW 7727   6.879   9.732   8.633  0.4705 -0.3273 -0.1182
  930SOL    HW1 7728   6.832   9.781   8.701 -0.8334 -0.6496 -0.7427
  930SOL    HW2 7729   6.967   9.769   8.632 -0.1374  1.2047  0.2258
  931SOL     OW 7730   3.042   1.882   6.930  0.0800  0.0137 -0.1345
  931SOL    HW1 7731   3.048   1.790   6.904  1.5231 -0.3210  1.2091
  931SOL    HW2 7732   2.961   1.913   6.891 -0.2668 -1.7421 -0.8962
  932SOL     OW 7733   6.849   7.902  10.026  0.3085 -0.1455 -0.3792
  932SOL    HW1 7734   6.783   7.949   9.974 -1.2520 -1.2175  0.5593
  932SOL    HW2 7735   6.801   7.829  10.065  1.2559  0.8404  2.9261
  933SOL     OW 7736   3.921   9.179  11.207  0.1498  0.7760 -0.2081
  933SOL    HW1 7737   3.848   9.238  11.226  0.1836  0.7007  0.1670
  933SOL    HW2 7738   3.918   9.166  11.112 -1.5155 -0.7566  0.0042
  934SOL     OW 7739   4.258   0.386   8.739 -0.2179 -0.1452  0.6063
  934SOL    HW1 7740   4.314   0.451   8.780 -2.2985  0.8005  2.1338
  934SOL    HW2 7741   4.289   0.302   8.775 -0.2272  0.4213  1.9976
  935SOL     OW 7742   1.449   4.643  10.993  0.2374  0.1694  0.3136
  935SOL    HW1 7743   1.490   4.729  11.004  0.5064  0.0573  0.1872
  935SOL    HW2 7744   1.357   4.663  10.972  0.7195  0.4893 -1.7197
  936SOL     OW 7745   8.557   0.779  11.323  0.1064 -0.1704 -0.2096
  936SOL    HW1 7746   8.587   0.755  11.411  0.0296  0.7380  0.0777
  936SOL    HW2 7747   8.609   0.725  11.264  0.8317 -0.1230  0.3642
  937SOL     OW 7748  10.396   3.162   8.582  0.0530  0.1725 -0.3029
  937SOL    HW1 7749  10.364   3.075   8.559  1.8940 -0.6231 -0.0224
  937SOL    HW2 7750  10.468   3.146   8.642 -0.4913  1.9678  0.9298
  938SOL     OW 7751   4.127   3.646   3.627 -0.1034 -0.4348  0.3097
  938SOL    HW1 7752   4.061   3.578   3.611  0.0453 -0.7149  0.8814
  938SOL    HW2 7753   4.111   3.674   3.717  0.5123 -0.4499  0.4257
  939SOL     OW 7754   4.917   9.787  11.178  0.3504  0.5670 -0.0081
  939SOL    HW1 7755   4.989   9.749  11.127 -0.3000  0.3608 -0.7990
  939SOL    HW2 7756   4.862   9.829  11.112  0.9882  2.8323  0.8279
  940SOL     OW 7757   8.024   4.700   4.044  0.2863  0.1815  0.2416
  940SOL    HW1 7758   8.048   4.607   4.039 -0.2672  0.0370  0.2101
  940SOL    HW2 7759   8.048   4.726   4.133  2.2312  0.5254 -0.3281
  941SOL     OW 7760  10.080   9.261   6.287  0.2163 -0.6257  0.3698
  941SOL    HW1 7761   9.986   9.251   6.299  0.2694 -1.4394  0.1776
  941SOL    HW2 7762  10.091   9.287   6.196  0.1623 -0.1613  0.4911
  942SOL     OW 7763   0.169   2.918   5.750  0.0580  0.0435  0.5447
  942SOL    HW1 7764   0.234   2.983   5.722 -0.2254  0.2101  0.2652
  942SOL    HW2 7765   0.085   2.965   5.748 -0.0372 -0.0923  1.1651
  943SOL     OW 7766   3.545   8.261   0.304 -0.3811 -0.4697 -0.3075
  943SOL    HW1 7767   3.456   8.238   0.280 -0.3660 -1.6899  0.6946
  943SOL    HW2 7768   3.562   8.344   0.259 -1.9817 -0.2630 -0.5675
  944SOL     OW 7769   1.753   9.728  11.677 -0.1616  0.2702 -0.5534
  944SOL    HW1 7770   1.833   9.676  11.673 -0.0742  0.0954  1.8936
  944SOL    HW2 7771   1.780   9.810  11.717 -0.9598  0.7875 -1.0473
  945SOL     OW 7772   1.697   9.060   6.457  0.1813 -0.5393  0.3533
  945SOL    HW1 7773   1.728   8.974   6.429  1.3807 -0.3299  0.9711
  945SOL    HW2 7774   1.655   9.097   6.380  0.7859 -1.1583 -0.2836
  946SOL     OW 7775  11.650   1.322   1.706  0.0678  0.2798  0.2804
  946SOL    HW1 7776  11.579   1.350   1.649  0.9170  0.5418 -0.6866
  946SOL    HW2 7777  11.613   1.325   1.794 -1.0226  0.6851 -0.1752
  947SOL     OW 7778   3.924   3.197   1.855  0.0010  0.1992  0.0483
  947SOL    HW1 7779   3.882   3.283   1.867  0.3450  0.0884  2.8119
  947SOL    HW2 7780   4.018   3.216   1.859  0.0915 -0.2113 -0.1107
  948SOL     OW 7781   6.054   4.912   1.515 -0.0805  0.0921 -0.3482
  948SOL    HW1 7782   6.067   4.861   1.595  2.3889  1.3339  0.1351
  948SOL    HW2 7783   6.034   4.846   1.449 -1.3106 -1.0507  1.0784
  949SOL     OW 7784  11.037   5.806   9.568  0.8262  0.4207 -0.5600
  949SOL    HW1 7785  11.091   5.807   9.647  2.8026  0.6493 -1.8360
  949SOL    HW2 7786  11.017   5.714   9.553  0.5447  0.3661  0.1277
  950SOL     OW 7787   7.059   6.235   8.745  0.0285  0.4283 -0.2374
  950SOL    HW1 7788   7.150   6.219   8.719  0.5269  1.7879  0.5012
  950SOL    HW2 7789   7.043   6.325   8.717 -2.0446 -0.6210 -2.7921
  951SOL     OW 7790   5.599   8.604   6.304  0.0505  0.4022  0.8896
  951SOL    HW1 7791   5.528   8.596   6.369  0.6723  1.1707  1.6968
  951SOL    HW2 7792   5.677   8.625   6.356  0.8268 -0.1941 -0.0054
  952SOL     OW 7793  11.316   6.002   8.370 -0.7334 -0.2534 -0.2220
  952SOL    HW1 7794  11.239   6.003   8.314 -1.6890  1.9060  0.9838
  952SOL    HW2 7795  11.293   5.943   8.442 -0.8978 -0.2836 -0.2993
  953SOL     OW 7796   6.556   2.224   2.719 -0.6251 -0.3658 -0.4231
  953SOL    HW1 7797   6.483   2.217   2.658 -1.4072 -2.3819  0.6410
  953SOL    HW2 7798   6.515   2.248   2.802  0.1096 -0.1782 -0.1060
  954SOL     OW 7799  10.958   9.660   4.832  0.1610  0.2869  0.2950
  954SOL    HW1 7800  10.878   9.689   4.788  0.4590  1.8054  0.6832
  954SOL    HW2 7801  10.931   9.641   4.921  0.2636  1.0739  0.5024
  955SOL     OW 7802   7.186   8.370  10.981  0.3598 -0.5465  0.1087
  955SOL    HW1 7803   7.132   8.293  10.965 -0.4734  0.4491 -2.3007
  955SOL    HW2 7804   7.276   8.338  10.972  0.1355 -1.6678  1.4970
  956SOL     OW 7805   7.857   8.159   5.413  0.1581 -0.0955 -0.8681
  956SOL    HW1 7806   7.796   8.225   5.447  0.0962 -0.6669  0.1598
  956SOL    HW2 7807   7.847   8.165   5.318  0.1908  1.4033 -0.8102
  957SOL     OW 7808   8.456   3.195   5.502 -0.5298 -0.3561  0.0355
  957SOL    HW1 7809   8.529   3.150   5.546 -0.1228  0.3977  0.1498
  957SOL    HW2 7810   8.457   3.160   5.412 -0.2574 -0.6205  0.1400
  958SOL     OW 7811   2.082   1.805   3.359  0.0806  0.4389  0.6604
  958SOL    HW1 7812   2.002   1.839   3.319 -1.4988 -1.8917  1.6242
  958SOL    HW2 7813   2.090   1.716   3.325  0.9604 -0.1793  2.3435
  959SOL     OW 7814   4.836  11.237  11.139  0.4494  0.4967  0.3094
  959SOL    HW1 7815   4.890  11.160  11.157  1.6657  1.4665  1.0315
  959SOL    HW2 7816   4.783  11.249  11.218 -1.0672 -0.6083 -0.5032
  960SOL     OW 7817   0.353   2.756   6.049  0.0458  0.1487 -0.1709
  960SOL    HW1 7818   0.420   2.751   5.981  1.9814  1.0410  1.5287
  960SOL    HW2 7819   0.352   2.669   6.088  0.3184  0.1658 -0.1233
  961SOL     OW 7820   6.046   2.082   8.639 -0.0733 -0.3242  0.2627
  961SOL    HW1 7821   6.083   2.052   8.722 -0.3003  0.6728  0.7290
  961SOL    HW2 7822   5.952   2.081   8.653 -0.1407 -0.6430 -0.1655
  962SOL     OW 7823   8.490   4.641   1.714 -0.1383  0.2432  0.0043
  962SOL    HW1 7824   8.569   4.593   1.743  0.2381  1.1854  0.5769
  962SOL    HW2 7825   8.420   4.576   1.718 -0.0516  0.2104  2.8017
  963SOL     OW 7826  10.471   3.910   7.570 -0.1574  0.1577 -0.0700
  963SOL    HW1 7827  10.381   3.906   7.538  0.0196  0.1607 -0.5701
  963SOL    HW2 7828  10.493   3.820   7.594 -0.6910  0.3313  1.1817
  964SOL     OW 7829   3.683  10.633  11.495 -0.3188  0.1694  0.4477
  964SOL    HW1 7830   3.589  10.616  11.491 -0.4476  0.7827  0.6909
  964SOL    HW2 7831   3.722  10.567  11.438 -0.7656 -1.0340  1.4914
  965SOL     OW 7832   3.890   2.506   1.089  0.9021  0.1233 -0.0892
  965SOL    HW1 7833   3.947   2.564   1.139  0.1393 -1.1082  2.3773
  965SOL    HW2 7834   3.931   2.420   1.094  1.6070  0.1893 -3.0235
  966SOL     OW 7835   4.824   5.733   3.681 -0.0082 -0.7055  0.1055
  966SOL    HW1 7836   4.791   5.675   3.611 -0.8806  1.4078 -1.3332
  966SOL    HW2 7837   4.746   5.770   3.720  0.5385  0.8547 -0.2269
  967SOL     OW 7838   6.375   9.550  10.357  0.6726  0.3077 -0.2509
  967SOL    HW1 7839   6.367   9.455  10.364  0.5250  0.3389  0.0275
  967SOL    HW2 7840   6.315   9.574  10.286 -0.2350  0.3233  0.5103
  968SOL     OW 7841   0.152   9.945  10.209 -0.2391  0.5594 -0.4639
  968SOL    HW1 7842   0.232   9.974  10.254 -0.1819  0.0187 -0.2069
  968SOL    HW2 7843   0.132   9.860  10.248 -1.1745  0.8684 -0.2288
  969SOL     OW 7844   9.825   4.657  10.464  0.3485 -0.5521 -0.0415
  969SOL    HW1 7845   9.748   4.711  10.447  0.5774  0.3260  1.4637
  969SOL    HW2 7846   9.809   4.620  10.551  0.5550 -2.3289 -0.7298
  970SOL     OW 7847  10.979   2.641   1.933 -0.0219  0.5104  0.2155
  970SOL    HW1 7848  10.895   2.685   1.924 -1.1054 -1.2237  1.3054
  970SOL    HW2 7849  10.991   2.629   2.027  1.7468  1.1999  0.1332
  971SOL     OW 7850   3.599   4.966   3.194  0.2359 -0.6765  0.3500
  971SOL    HW1 7851   3.680   4.996   3.236  0.1871  1.5000 -0.9414
  971SOL    HW2 7852   3.544   5.044   3.193 -0.1691 -0.9138 -2.7282
  972SOL     OW 7853   7.623   2.793   4.151  0.3043  0.0598 -0.1676
  972SOL    HW1 7854   7.551   2.751   4.196  1.5197 -0.8020  1.0509
  972SOL    HW2 7855   7.699   2.779   4.208  0.7714  4.2616  0.5773
  973SOL     OW 7856   1.868   4.565   3.860 -0.2028  0.3189  0.1677
  973SOL    HW1 7857   1.947   4.535   3.816 -0.2158  0.9397 -0.2957
  973SOL    HW2 7858   1.897   4.591   3.947 -0.1534 -0.7891  0.4959
  974SOL     OW 7859   1.904   7.626   9.937  0.2664  0.4620 -0.1886
  974SOL    HW1 7860   1.929   7.557   9.876 -1.8600  0.3166 -0.9919
  974SOL    HW2 7861   1.832   7.671   9.893  1.0833  2.7498  0.6269
  975SOL     OW 7862   0.770  11.450   8.304 -0.5808 -0.2966 -0.6478
  975SOL    HW1 7863   0.709  11.378   8.285 -0.6410 -0.6590  0.8493
  975SOL    HW2 7864   0.724  11.504   8.368  0.5496 -0.4043  0.2727
  976SOL     OW 7865   7.350   1.178   8.612  0.2881 -0.0739 -1.0804
  976SOL    HW1 7866   7.431   1.228   8.600  1.4099 -0.2858  3.7674
  976SOL    HW2 7867   7.283   1.244   8.632 -0.0395 -0.1260 -1.9381
  977SOL     OW 7868   3.527   3.489   1.682  0.1416  0.2751  0.4723
  977SOL    HW1 7869   3.586   3.503   1.756 -1.2451  2.5753  1.2426
  977SOL    HW2 7870   3.443   3.468   1.722 -0.5316  1.1591 -0.4291
  978SOL     OW 7871   0.390   2.047   4.447 -0.1493  0.5954 -0.6608
  978SOL    HW1 7872   0.446   1.971   4.462 -0.3236  0.6005  0.0548
  978SOL    HW2 7873   0.335   2.022   4.373 -1.4339 -0.6912  0.6751
  979SOL     OW 7874   7.336   5.091   5.868 -0.1840 -0.3403  0.2905
  979SOL    HW1 7875   7.253   5.054   5.837 -0.1133 -0.9741  0.8549
  979SOL    HW2 7876   7.320   5.112   5.960  0.0967  0.0976  0.2443
  980SOL     OW 7877   4.370   0.956   7.961  0.2877 -0.0061 -0.7250
  980SOL    HW1 7878   4.303   1.004   8.010  2.0587  1.2920  0.5497
  980SOL    HW2 7879   4.369   0.997   7.874  1.3848  2.0721  0.1678
  981SOL     OW 7880   4.155   9.407  10.750 -0.2825 -0.3992 -0.4282
  981SOL    HW1 7881   4.067   9.400  10.713  0.7227 -1.4851 -2.8150
  981SOL    HW2 7882   4.164   9.500  10.772 -1.1378  0.2567 -2.5955
  982SOL     OW 7883   5.234  10.361   4.430  0.0956 -0.2618 -0.7894
  982SOL    HW1 7884   5.301  10.389   4.368  2.8927 -1.3055  1.5606
  982SOL    HW2 7885   5.207  10.442   4.475  2.6523 -0.1906  0.8107
  983SOL     OW 7886   9.404   3.284  11.543 -0.1932 -0.4666  0.1417
  983SOL    HW1 7887   9.362   3.237  11.470  0.6578 -1.1906  0.1049
  983SOL    HW2 7888   9.426   3.369  11.507  1.7883 -1.3957 -1.0266
  984SOL     OW 7889  11.362   8.805   8.053 -0.0724  0.1983 -0.0642
  984SOL    HW1 7890  11.341   8.722   8.011 -1.8074  1.6207 -2.2393
  984SOL    HW2 7891  11.446   8.830   8.015  0.0551 -0.1691 -0.0286
  985SOL     OW 7892  10.075   3.044   0.232  0.2309  0.0555  0.7791
  985SOL    HW1 7893   9.983   3.068   0.223  0.7671  2.2924  0.7208
  985SOL    HW2 7894  10.082   2.960   0.187 -1.7623 -0.1649  0.7733
  986SOL     OW 7895   6.729   5.049   1.024 -0.9446 -0.2057  0.5549
  986SOL    HW1 7896   6.710   4.956   1.036 -0.9075 -0.3179 -0.2212
  986SOL    HW2 7897   6.713   5.065   0.932  1.0758  0.0808  0.1970
  987SOL     OW 7898   9.152   4.956   5.254 -0.2939 -0.3870 -0.2959
  987SOL    HW1 7899   9.183   4.981   5.167 -1.0392 -0.2384 -0.5280
  987SOL    HW2 7900   9.202   4.878   5.276  0.9899  0.4212 -0.2062
  988SOL     OW 7901   1.527   8.115   2.903  0.2984  0.1638  0.0351
  988SOL    HW1 7902   1.445   8.146   2.941 -0.1439 -0.2432 -0.5801
  988SOL    HW2 7903   1.503   8.082   2.817  1.2802  1.0237 -0.5872
  989SOL     OW 7904   1.791  11.289   7.997 -0.4250 -0.3146 -0.2372
  989SOL    HW1 7905   1.817  11.227   8.065  0.5256  0.0737 -0.2315
  989SOL    HW2 7906   1.744  11.359   8.043  1.5003  0.7077  0.2707
  990SOL     OW 7907  10.605  10.608   7.041  0.1364  0.4040  0.8394
  990SOL    HW1 7908  10.548  10.645   7.108 -1.5173  0.0528 -0.3022
  990SOL    HW2 7909  10.675  10.565   7.089 -1.0992 -0.0015  2.3358
  991SOL     OW 7910   3.413   4.588   9.319 -0.1879 -0.2210 -0.6930
  991SOL    HW1 7911   3.433   4.545   9.235  0.6201 -0.2881 -0.4790
  991SOL    HW2 7912   3.382   4.675   9.294 -2.1274 -0.9817 -1.1492
  992SOL     OW 7913   0.408   3.421   7.278 -0.0022  0.3551 -0.3984
  992SOL    HW1 7914   0.441   3.494   7.330  0.6224  0.8486 -1.4641
  992SOL    HW2 7915   0.314   3.420   7.295  0.3637 -0.4490  1.9040
  993SOL     OW 7916   4.302   3.366   3.564  0.0258  0.3435 -0.0033
  993SOL    HW1 7917   4.265   3.432   3.622 -2.1884 -0.4869 -0.3778
  993SOL    HW2 7918   4.394   3.360   3.590  0.1243  3.0154  0.5087
  994SOL     OW 7919   6.273   2.143   5.416  0.2356  0.3762  0.5985
  994SOL    HW1 7920   6.270   2.140   5.321 -0.6315 -2.4590  0.6172
  994SOL    HW2 7921   6.181   2.143   5.443  0.3331  4.2275  1.5507
  995SOL     OW 7922   0.263  10.570   1.836 -0.3902 -0.1556 -0.5411
  995SOL    HW1 7923   0.195  10.611   1.783  0.2619 -0.0645 -1.3276
  995SOL    HW2 7924   0.215  10.514   1.897 -1.1987  0.4363 -0.6119
  996SOL     OW 7925   5.948   5.079  10.699 -0.4119 -0.3750  0.2750
  996SOL    HW1 7926   5.980   5.020  10.768 -2.4182 -1.6648  0.1843
  996SOL    HW2 7927   5.867   5.116  10.735  0.5728  2.0655  0.1537
  997SOL     OW 7928   4.629   1.731   8.850  0.3512 -0.3177  0.2252
  997SOL    HW1 7929   4.622   1.767   8.761  0.7523 -0.9589 -0.0656
  997SOL    HW2 7930   4.571   1.655   8.849 -0.7944  0.4985  0.9552
  998SOL     OW 7931   2.818   8.076   3.698 -0.0624 -0.5745  0.2147
  998SOL    HW1 7932   2.888   8.040   3.644 -0.9305 -1.1957 -0.5301
  998SOL    HW2 7933   2.742   8.023   3.677 -1.1085  0.9411 -0.0336
  999SOL     OW 7934   0.521   4.232   4.046 -0.2976  0.2343  0.1028
  999SOL    HW1 7935   0.604   4.213   4.002 -0.0468  0.3105  0.5325
  999SOL    HW2 7936   0.507   4.157   4.104  0.6430  1.2418  1.7247
 1000SOL     OW 7937   2.838   8.111  10.490 -0.3355 -0.4015 -0.2604
 1000SOL    HW1 7938   2.824   8.189  10.436 -0.7677 -1.3307 -1.5215
 1000SOL    HW2 7939   2.927   8.082  10.468 -0.5037 -0.7704 -0.4541
 1001SOL     OW 7940   8.457   9.512   9.437  0.2889 -0.5068 -0.3829
 1001SOL    HW1 7941   8.409   9.546   9.361  0.8725 -0.4527 -0.7306
 1001SOL    HW2 7942   8.498   9.589   9.476 -2.1450 -0.0701  1.5875
 1002SOL     OW 7943   4.663   3.762   8.260 -0.4376 -0.1063  0.2927
 1002SOL    HW1 7944   4.591   3.824   8.250 -0.3526  0.2103  1.5913
 1002SOL    HW2 7945   4.620   3.676   8.258 -0.6824  0.0196 -0.3091
 1003SOL     OW 7946   2.376   7.268   6.197  0.2968  0.0061 -0.0675
 1003SOL    HW1 7947   2.431   7.313   6.261  0.6818 -0.1370 -0.2990
 1003SOL    HW2 7948   2.308   7.333   6.175 -0.9363 -0.5389  1.8329
 1004SOL     OW 7949  10.585   5.019   7.134  0.4453 -0.0630 -0.2380
 1004SOL    HW1 7950  10.549   5.062   7.211 -1.2765 -3.0497  0.7851
 1004SOL    HW2 7951  10.677   5.005   7.156 -0.1406 -1.3933  1.6016
 1005SOL     OW 7952   4.147   1.171   5.692  0.4246  0.1480 -0.2777
 1005SOL    HW1 7953   4.133   1.096   5.750  0.2769  0.2548 -0.1727
 1005SOL    HW2 7954   4.212   1.141   5.629  2.2740  0.7090  1.2528
 1006SOL     OW 7955   7.687   8.442   5.130  0.4311  0.3278  0.3241
 1006SOL    HW1 7956   7.762   8.498   5.149  1.4782 -0.7872 -0.4356
 1006SOL    HW2 7957   7.666   8.460   5.038  0.5519 -0.2517  0.1800
 1007SOL     OW 7958   8.735   1.422   9.077  0.0980 -0.0628  0.1569
 1007SOL    HW1 7959   8.704   1.362   9.009 -2.3185  1.8774 -0.5970
 1007SOL    HW2 7960   8.721   1.509   9.040  3.4031  1.0882  1.2351
 1008SOL     OW 7961   7.255   7.363   7.038  0.6262 -0.7025 -0.5285
 1008SOL    HW1 7962   7.174   7.396   7.078  1.1894 -1.5080  1.3990
 1008SOL    HW2 7963   7.275   7.284   7.088  2.2810 -0.8682 -1.3972
 1009SOL     OW 7964   4.411   5.453   9.450 -0.5093  0.3493 -0.6968
 1009SOL    HW1 7965   4.427   5.537   9.493  1.4525  0.3794 -1.3985
 1009SOL    HW2 7966   4.409   5.389   9.521  1.6726  0.5347 -0.4146
 1010SOL     OW 7967   5.166   1.242   2.552  0.0024 -0.5966  0.3972
 1010SOL    HW1 7968   5.203   1.257   2.464  0.3910 -3.3192  0.0261
 1010SOL    HW2 7969   5.206   1.310   2.606  0.2391  0.7655 -1.3758
 1011SOL     OW 7970   5.285  10.428   9.866  0.2755 -0.1612 -0.6230
 1011SOL    HW1 7971   5.255  10.481   9.792  1.6335 -0.2416 -1.2791
 1011SOL    HW2 7972   5.268  10.338   9.839  1.0761 -0.2081 -1.0068
 1012SOL     OW 7973  10.510   5.154   9.330  0.0480  0.2830 -0.6896
 1012SOL    HW1 7974  10.502   5.217   9.259 -0.9814 -0.9033 -1.6926
 1012SOL    HW2 7975  10.604   5.142   9.342  0.2626  2.0916 -0.3501
 1013SOL     OW 7976   2.692   6.156   4.795 -0.2122 -0.1337 -0.6947
 1013SOL    HW1 7977   2.736   6.189   4.874 -2.7369 -2.3234  1.8354
 1013SOL    HW2 7978   2.751   6.089   4.761  0.6551  0.4515 -0.3806
 1014SOL     OW 7979  10.559   9.712   2.049 -0.1166 -0.1591  0.4867
 1014SOL    HW1 7980  10.548   9.799   2.012  3.1437  0.9684  1.8159
 1014SOL    HW2 7981  10.521   9.717   2.137 -0.3757 -0.2470  0.3808
 1015SOL     OW 7982   8.354   3.442   4.669  0.2627  0.3609 -0.1824
 1015SOL    HW1 7983   8.342   3.534   4.692 -0.7592  0.4210 -0.8589
 1015SOL    HW2 7984   8.378   3.399   4.751  1.9948  1.4144 -0.0858
 1016SOL     OW 7985  11.629   1.179  11.503  0.7056 -0.2855  0.1894
 1016SOL    HW1 7986  11.629   1.127  11.422  1.6285 -0.4655  0.2864
 1016SOL    HW2 7987  11.722   1.197  11.519  0.4700  0.5299  0.7134
 1017SOL     OW 7988   5.745   0.662   1.775  0.0292 -0.0858  0.1209
 1017SOL    HW1 7989   5.754   0.605   1.698 -0.7920 -0.5369  0.3569
 1017SOL    HW2 7990   5.686   0.732   1.746  0.2351  0.0996  0.1454
 1018SOL     OW 7991   7.372   7.751   7.006  0.0863 -0.2005  0.3782
 1018SOL    HW1 7992   7.336   7.681   6.952 -0.5444 -0.1166  0.6761
 1018SOL    HW2 7993   7.436   7.795   6.950 -1.0025  0.2795 -0.5103
 1019SOL     OW 7994   0.294   2.831  11.387 -0.5122  0.3083  0.0740
 1019SOL    HW1 7995   0.351   2.839  11.311 -0.8629 -0.3952 -0.2780
 1019SOL    HW2 7996   0.330   2.758  11.437 -1.7136 -0.9047 -0.7370
 1020SOL     OW 7997   2.548   7.498   6.801  0.6163  0.9051  0.5258
 1020SOL    HW1 7998   2.613   7.439   6.764  1.3896  0.6747  2.2018
 1020SOL    HW2 7999   2.553   7.577   6.746  1.3417  0.3801 -0.1785
 1021SOL     OW 8000   0.077   1.963   1.607 -0.2662 -0.0902 -0.1758
 1021SOL    HW1 8001   0.050   1.922   1.689 -0.1725  0.8323  0.3314
 1021SOL    HW2 8002   0.163   2.000   1.627  0.7901 -1.7701 -1.3566
 1022SOL     OW 8003   1.978  10.293   3.082  0.2596  0.0716  0.6181
 1022SOL    HW1 8004   1.939  10.220   3.034  0.1958  0.8413 -0.5617
 1022SOL    HW2 8005   1.975  10.266   3.174  0.6045 -1.5631  0.1789
 1023SOL     OW 8006  10.668  10.483   9.631  0.4442  0.1931  0.6595
 1023SOL    HW1 8007  10.735  10.415   9.640  0.4787  0.1183 -0.1384
 1023SOL    HW2 8008  10.629  10.467   9.545 -0.7010  0.1471  1.1627
 1024SOL     OW 8009   2.581   0.447   7.461  0.2340 -0.1159  0.1272
 1024SOL    HW1 8010   2.545   0.441   7.373 -0.2717  0.1001  0.3121
 1024SOL    HW2 8011   2.504   0.442   7.518  0.6408 -1.3560  0.5954
 1025SOL     OW 8012   2.762   9.179   5.713 -0.5583 -0.7364 -0.3059
 1025SOL    HW1 8013   2.798   9.250   5.661  0.0997 -0.5564  0.3710
 1025SOL    HW2 8014   2.668   9.183   5.698 -0.4289 -0.3679 -1.0647
 1026SOL     OW 8015   8.864  11.475   4.840  0.0038  0.4367  1.3545
 1026SOL    HW1 8016   8.850  11.399   4.897 -0.6208  0.9302  1.8716
 1026SOL    HW2 8017   8.858  11.439   4.751 -3.6107  0.3230  1.4772
 1027SOL     OW 8018   6.339   7.584   5.014  0.0789  0.7432  0.1350
 1027SOL    HW1 8019   6.306   7.495   5.000  0.2221  0.7475 -0.2549
 1027SOL    HW2 8020   6.414   7.591   4.954 -1.2267  1.8605 -1.4522
 1028SOL     OW 8021   4.660   0.565  10.128  0.7330 -0.0383  0.2789
 1028SOL    HW1 8022   4.627   0.579  10.217  1.6222 -1.1446  0.8195
 1028SOL    HW2 8023   4.648   0.471  10.113 -0.1556  0.2695 -1.1014
 1029SOL     OW 8024   8.806   4.099   9.050  0.0332 -0.2349 -0.3949
 1029SOL    HW1 8025   8.761   4.130   9.129  1.2046  0.3749  0.0602
 1029SOL    HW2 8026   8.892   4.141   9.054 -0.3540  0.9593 -2.7350
 1030SOL     OW 8027   4.653   1.362   3.685 -0.2648 -0.0590 -0.2252
 1030SOL    HW1 8028   4.573   1.373   3.736  0.0734  0.0212  0.2918
 1030SOL    HW2 8029   4.711   1.432   3.716  0.5482 -1.0061  0.4622
 1031SOL     OW 8030   1.865   9.550   6.872  0.1318 -0.8218 -0.0518
 1031SOL    HW1 8031   1.948   9.553   6.920 -0.1855 -1.4139  0.5578
 1031SOL    HW2 8032   1.816   9.479   6.914 -0.0958 -1.4806 -1.3627
 1032SOL     OW 8033   6.261   1.417   8.923  0.0351 -0.5057 -0.0601
 1032SOL    HW1 8034   6.271   1.511   8.936 -2.7761  0.2315 -2.1293
 1032SOL    HW2 8035   6.290   1.401   8.833  0.3968 -1.6149  0.2345
 1033SOL     OW 8036   3.148  11.107   1.037  0.2781 -0.0751 -0.7284
 1033SOL    HW1 8037   3.190  11.028   1.071  0.7853  0.4441 -0.1250
 1033SOL    HW2 8038   3.160  11.101   0.942 -1.1106 -1.5151 -0.8445
 1034SOL     OW 8039   6.182  11.542   2.447 -1.1359  0.1045  0.1632
 1034SOL    HW1 8040   6.139  11.628   2.454 -0.6011  0.3457  0.5798
 1034SOL    HW2 8041   6.263  11.552   2.497  0.0725  0.0809 -1.6994
 1035SOL     OW 8042   1.552   3.809   0.923 -0.5341  0.9348 -0.1513
 1035SOL    HW1 8043   1.621   3.748   0.900 -1.3419 -0.1075  0.1428
 1035SOL    HW2 8044   1.590   3.865   0.991 -0.2843 -0.2526  0.7015
 1036SOL     OW 8045   5.765   8.491   7.751  0.1931 -0.5211 -0.1752
 1036SOL    HW1 8046   5.812   8.467   7.830  0.7245 -0.3220 -0.4253
 1036SOL    HW2 8047   5.692   8.430   7.747 -1.2144  0.9173  1.7146
 1037SOL     OW 8048   5.070   6.910   3.001 -0.2583 -0.3740 -0.0188
 1037SOL    HW1 8049   5.043   6.850   3.071 -1.9312  0.9136  0.5200
 1037SOL    HW2 8050   5.143   6.958   3.039 -0.9126  0.0571  0.7350
 1038SOL     OW 8051   9.504   5.050   8.847 -0.6760 -0.5920 -0.7814
 1038SOL    HW1 8052   9.474   4.960   8.840  0.5758 -1.1130  0.1268
 1038SOL    HW2 8053   9.458   5.085   8.923 -0.5773 -0.7127 -0.6659
 1039SOL     OW 8054  11.266   3.535   3.554  0.2961 -0.7132  0.8914
 1039SOL    HW1 8055  11.264   3.540   3.459 -0.4026  1.7770  0.9643
 1039SOL    HW2 8056  11.175   3.518   3.579  0.3696 -0.7563  1.1324
 1040SOL     OW 8057   3.214   4.606  10.996 -0.2888  0.2139 -0.0278
 1040SOL    HW1 8058   3.164   4.603  11.077  0.2300  0.6204  0.3101
 1040SOL    HW2 8059   3.245   4.516  10.984  0.0378  0.2597  0.4734
 1041SOL     OW 8060   3.317   7.430   5.423  0.0281  0.0853 -0.0093
 1041SOL    HW1 8061   3.234   7.440   5.470  0.5191  0.7155  0.7365
 1041SOL    HW2 8062   3.314   7.341   5.387 -1.3465  0.3982 -0.7391
 1042SOL     OW 8063  10.465   6.634   0.017 -0.3754  0.3545 -0.0417
 1042SOL    HW1 8064  10.534   6.654   0.080  0.4409  0.2061 -0.8660
 1042SOL    HW2 8065  10.434   6.720  -0.013  0.3866  0.4212 -0.6574
 1043SOL     OW 8066  10.060   7.535   0.222 -0.1382 -0.2814  0.3372
 1043SOL    HW1 8067  10.001   7.610   0.211  0.0455 -0.2878 -0.8633
 1043SOL    HW2 8068  10.082   7.536   0.315  0.5893  1.7115  0.1976
 1044SOL     OW 8069   3.815   1.554   4.359 -0.4626  0.4008  0.3409
 1044SOL    HW1 8070   3.727   1.564   4.394 -0.9971 -2.1136 -0.0634
 1044SOL    HW2 8071   3.850   1.477   4.404  0.8389  0.2747 -0.8043
 1045SOL     OW 8072   1.148   6.319   7.417 -0.6297 -0.0881 -0.3748
 1045SOL    HW1 8073   1.151   6.396   7.473 -1.3158  0.5801 -1.2404
 1045SOL    HW2 8074   1.153   6.353   7.328  0.4087 -1.1339 -0.7425
 1046SOL     OW 8075   7.258   2.970   7.315 -0.0577 -0.0409 -0.7757
 1046SOL    HW1 8076   7.316   2.933   7.382 -0.8959 -0.4529 -0.2699
 1046SOL    HW2 8077   7.318   3.004   7.248  0.7663 -0.6829 -0.3833
 1047SOL     OW 8078   1.016   5.378   4.093  0.3598  0.1799  0.4063
 1047SOL    HW1 8079   1.082   5.427   4.143  0.7281  0.2484 -0.1478
 1047SOL    HW2 8080   1.035   5.397   4.002  0.5893 -1.0897  0.1677
 1048SOL     OW 8081   7.175   0.060  11.647 -0.8137 -0.6135 -0.3078
 1048SOL    HW1 8082   7.266   0.088  11.661 -1.1491 -0.3321  1.5003
 1048SOL    HW2 8083   7.181  -0.004  11.576  0.7522 -0.3838 -0.4288
 1049SOL     OW 8084   2.627   7.556   0.066 -0.1942 -0.1691 -0.0192
 1049SOL    HW1 8085   2.656   7.583   0.153  0.6066 -2.7593  0.6065
 1049SOL    HW2 8086   2.684   7.604   0.006  0.0190  0.7798  0.9179
 1050SOL     OW 8087   7.329   2.827   9.961 -0.0005 -0.2103  0.3501
 1050SOL    HW1 8088   7.257   2.890   9.953  2.4455  2.8153  0.3464
 1050SOL    HW2 8089   7.387   2.848   9.887  1.1497 -2.1920  0.6393
 1051SOL     OW 8090   5.258   4.587  11.009 -0.2463 -0.3393  0.0217
 1051SOL    HW1 8091   5.276   4.663  10.953  0.4378 -1.3003 -1.0984
 1051SOL    HW2 8092   5.163   4.575  11.002 -0.3610  0.4155  0.2129
 1052SOL     OW 8093   6.016   6.093  10.697  0.4689 -0.2722 -0.0776
 1052SOL    HW1 8094   5.963   6.133  10.766 -2.0378 -1.3459 -1.2715
 1052SOL    HW2 8095   5.976   6.122  10.615  1.9529 -0.8692 -1.0608
 1053SOL     OW 8096  10.310   9.729   7.951 -0.6899  0.9939  0.0915
 1053SOL    HW1 8097  10.404   9.743   7.960 -0.4036 -0.7760  0.2291
 1053SOL    HW2 8098  10.302   9.655   7.892 -1.8119 -1.0762  2.6418
 1054SOL     OW 8099   1.460   3.364   8.384 -0.0552  0.3041 -0.0951
 1054SOL    HW1 8100   1.460   3.459   8.378 -0.2127  0.2917 -0.2905
 1054SOL    HW2 8101   1.549   3.338   8.360  1.2131  0.6245  3.5415
 1055SOL     OW 8102   2.090   7.683   2.862  0.4899  0.5685 -0.1302
 1055SOL    HW1 8103   2.095   7.753   2.796  0.5021  1.0284  0.3563
 1055SOL    HW2 8104   2.180   7.651   2.869  0.3404 -0.0639 -0.9541
 1056SOL     OW 8105   8.466  11.307  10.009  0.6990  0.4288  0.1071
 1056SOL    HW1 8106   8.546  11.267  10.044  0.4889 -0.3627 -0.3158
 1056SOL    HW2 8107   8.464  11.280   9.918  0.3758  1.1361 -0.0972
 1057SOL     OW 8108   2.345   7.639   2.837  0.1551 -0.1108  0.1312
 1057SOL    HW1 8109   2.410   7.641   2.767  0.3344  0.6269  0.3041
 1057SOL    HW2 8110   2.383   7.693   2.907 -0.3002 -0.3070  0.5401
 1058SOL     OW 8111   8.704   6.873   5.851  0.2957 -0.7018 -0.9109
 1058SOL    HW1 8112   8.668   6.917   5.774  0.4270  1.7855  0.3240
 1058SOL    HW2 8113   8.638   6.886   5.919  0.4814 -2.2539 -0.4097
 1059SOL     OW 8114   5.601  10.330   2.541 -0.2480  0.4323  0.2531
 1059SOL    HW1 8115   5.572  10.254   2.490 -1.2653 -0.2794  1.7988
 1059SOL    HW2 8116   5.690  10.307   2.569 -0.9937 -0.8141  1.7515
 1060SOL     OW 8117   3.732   5.741   7.339  1.2356 -0.0008  0.7510
 1060SOL    HW1 8118   3.730   5.795   7.418 -0.3994  1.5351 -0.2463
 1060SOL    HW2 8119   3.654   5.687   7.344  0.9725  0.2999  0.0871
 1061SOL     OW 8120   6.303   6.291  11.439  0.1258  0.3343 -0.1604
 1061SOL    HW1 8121   6.290   6.227  11.369  0.0909 -0.4430  0.5449
 1061SOL    HW2 8122   6.336   6.369  11.394  0.8933 -0.4201 -0.9385
 1062SOL     OW 8123  10.859   5.019   9.092  0.4769 -0.0091  0.7096
 1062SOL    HW1 8124  10.796   5.091   9.084 -0.9465 -1.1864  1.0334
 1062SOL    HW2 8125  10.811   4.941   9.063  2.3002 -0.7080 -0.5949
 1063SOL     OW 8126   9.468   6.024   0.408 -0.1848  0.4750 -0.2994
 1063SOL    HW1 8127   9.557   6.001   0.381 -0.5378  0.2600 -1.3335
 1063SOL    HW2 8128   9.478   6.102   0.462  0.6861  0.0821  0.1230
 1064SOL     OW 8129   5.006   1.587   2.222  0.0894  0.0735  0.4412
 1064SOL    HW1 8130   5.022   1.494   2.241  0.1851  0.2083  1.0295
 1064SOL    HW2 8131   4.971   1.587   2.133 -1.1363 -0.6518  0.8922
 1065SOL     OW 8132   1.443  11.441   5.011 -0.0680  0.0593 -0.2267
 1065SOL    HW1 8133   1.519  11.499   5.003 -0.4708  0.5726 -0.3937
 1065SOL    HW2 8134   1.470  11.375   5.075  0.5943  0.1088 -0.4455
 1066SOL     OW 8135   0.735   5.600   7.368  0.2213  0.4753 -0.0969
 1066SOL    HW1 8136   0.722   5.508   7.393  1.1003  0.0419 -1.1546
 1066SOL    HW2 8137   0.818   5.600   7.321  1.2729  2.1705  1.6374
 1067SOL     OW 8138   3.374   0.774   4.432 -0.1395 -0.4299  0.6137
 1067SOL    HW1 8139   3.330   0.782   4.347 -0.2839 -0.2277  0.7082
 1067SOL    HW2 8140   3.366   0.860   4.472  0.7408 -0.2678  0.4442
 1068SOL     OW 8141   6.661   5.402  10.754  0.2844 -0.1336  0.0363
 1068SOL    HW1 8142   6.749   5.381  10.784  0.2462  1.2995  1.2410
 1068SOL    HW2 8143   6.605   5.337  10.797  0.5359  0.2351  0.9324
 1069SOL     OW 8144   0.246   0.018   0.868  0.8542  0.7326  0.1807
 1069SOL    HW1 8145   0.316   0.013   0.802  0.3986  1.2355 -0.3470
 1069SOL    HW2 8146   0.266   0.096   0.919  0.5747  0.9900 -0.0979
 1070SOL     OW 8147   5.156   0.853   7.510  0.5146 -0.0497 -0.3767
 1070SOL    HW1 8148   5.212   0.856   7.588  0.0323 -0.5788  0.0002
 1070SOL    HW2 8149   5.211   0.886   7.439  0.5265  1.8479  0.4484
 1071SOL     OW 8150   8.540   3.100   6.165 -0.1685  0.1946  0.5046
 1071SOL    HW1 8151   8.520   3.037   6.096 -0.7481 -0.5334  1.3143
 1071SOL    HW2 8152   8.612   3.152   6.131 -0.0897 -0.5114 -0.4224
 1072SOL     OW 8153   9.529   1.227   3.192  0.2397  0.4523 -0.9889
 1072SOL    HW1 8154   9.519   1.305   3.137 -0.4285  1.5860  0.6473
 1072SOL    HW2 8155   9.488   1.156   3.142 -0.1985  1.3959 -2.0014
 1073SOL     OW 8156   8.146  10.966   8.923  0.4211  0.4417  0.4526
 1073SOL    HW1 8157   8.088  11.041   8.912 -0.1625  0.0289  0.6474
 1073SOL    HW2 8158   8.108  10.898   8.868  0.8257  0.2208  0.4390
 1074SOL     OW 8159  11.248   3.433  11.582 -0.1147  0.4788  0.3087
 1074SOL    HW1 8160  11.292   3.414  11.500 -0.4994 -0.5403  0.3236
 1074SOL    HW2 8161  11.269   3.359  11.638 -0.4171  0.8347  0.9040
 1075SOL     OW 8162   1.706  10.648  10.552 -0.1056  0.0617 -0.0251
 1075SOL    HW1 8163   1.685  10.740  10.540 -1.0354 -0.2044 -0.5940
 1075SOL    HW2 8164   1.621  10.604  10.556  0.2369 -1.1416 -2.8742
 1076SOL     OW 8165  10.709   7.424   1.638  0.0956 -0.2173  0.0187
 1076SOL    HW1 8166  10.717   7.339   1.594  0.3267  0.7791 -2.0058
 1076SOL    HW2 8167  10.638   7.468   1.592  1.4755  1.5482 -0.5567
 1077SOL     OW 8168   6.516   6.232   0.719  0.3935 -0.2873 -0.0044
 1077SOL    HW1 8169   6.437   6.235   0.773 -0.6239 -1.3802 -1.3599
 1077SOL    HW2 8170   6.496   6.286   0.643  0.4213 -1.5738 -0.9707
 1078SOL     OW 8171   4.765   3.088   8.857  0.3103 -0.1256  0.1802
 1078SOL    HW1 8172   4.788   3.074   8.949  0.6261  0.3695  0.1814
 1078SOL    HW2 8173   4.836   3.142   8.823  1.1410 -1.7606 -0.8159
 1079SOL     OW 8174   5.602   9.209  10.750 -0.3315  0.4955 -0.3554
 1079SOL    HW1 8175   5.533   9.148  10.777 -0.1115  0.1383 -0.5891
 1079SOL    HW2 8176   5.605   9.274  10.819 -0.5928  0.2571 -0.1170
 1080SOL     OW 8177   0.858   2.007   0.391 -0.1346  0.0034  0.1858
 1080SOL    HW1 8178   0.842   1.913   0.383  0.4019 -0.1210  0.5418
 1080SOL    HW2 8179   0.882   2.035   0.302 -1.8107  0.1101 -0.2675
 1081SOL     OW 8180   4.354   3.752   4.013  0.0223  0.6402 -0.1722
 1081SOL    HW1 8181   4.435   3.786   3.976  1.7352 -1.9725  0.8492
 1081SOL    HW2 8182   4.380   3.715   4.097 -2.4680  0.6037  0.6649
 1082SOL     OW 8183   9.668  11.153  10.196 -0.4775  0.5416 -0.8181
 1082SOL    HW1 8184   9.761  11.140  10.180 -0.4660  1.3467 -1.4989
 1082SOL    HW2 8185   9.640  11.074  10.241  0.7491  0.7337  0.3527
 1083SOL     OW 8186   1.102  10.107  10.869  0.1325  0.6387 -0.3975
 1083SOL    HW1 8187   1.097  10.168  10.796 -0.0344  2.0240  0.7174
 1083SOL    HW2 8188   1.151  10.155  10.937  0.0074 -0.4753  0.5081
 1084SOL     OW 8189   7.731  11.630  10.183 -0.1652  0.7542 -0.0711
 1084SOL    HW1 8190   7.727  11.539  10.213  1.1705  0.3921 -0.8985
 1084SOL    HW2 8191   7.701  11.681  10.259 -1.3197 -0.3712  0.2745
 1085SOL     OW 8192   6.864   8.977   7.000 -0.6099  0.2167 -0.3683
 1085SOL    HW1 8193   6.922   9.002   7.073  0.3376 -1.3258 -0.5475
 1085SOL    HW2 8194   6.792   9.040   7.004  0.4008  1.3697  0.7002
 1086SOL     OW 8195   9.119   8.922   0.511  0.0489 -0.5062 -0.2193
 1086SOL    HW1 8196   9.117   8.930   0.606 -1.2210 -0.4199 -0.2284
 1086SOL    HW2 8197   9.051   8.857   0.491  0.7554 -1.0172 -1.0260
 1087SOL     OW 8198   2.175  10.979   3.103 -0.5062  0.3322  0.1034
 1087SOL    HW1 8199   2.172  10.935   3.018  1.2897 -0.0509  0.1959
 1087SOL    HW2 8200   2.251  11.038   3.097  0.6039 -0.7933  1.9050
 1088SOL     OW 8201   7.712   8.613   7.357 -0.1505  0.3414 -0.1768
 1088SOL    HW1 8202   7.783   8.677   7.350  2.2357 -2.0828  0.5326
 1088SOL    HW2 8203   7.709   8.571   7.271 -0.2667 -0.0413  0.0135
 1089SOL     OW 8204   8.662  10.657   3.911 -0.4889  0.0422 -0.4105
 1089SOL    HW1 8205   8.697  10.733   3.958  0.4409 -0.3945 -0.3675
 1089SOL    HW2 8206   8.618  10.605   3.978 -0.9612  0.4337 -0.4062
 1090SOL     OW 8207   7.606   6.887   1.060  0.6925 -0.1423  0.4292
 1090SOL    HW1 8208   7.540   6.835   1.105  1.3435 -1.7814 -0.4454
 1090SOL    HW2 8209   7.558   6.963   1.025 -0.4893 -0.7196  0.7661
 1091SOL     OW 8210   3.999  10.105   4.787  0.1306  0.0761 -0.0103
 1091SOL    HW1 8211   3.946  10.087   4.865  0.0520  2.1433  0.4869
 1091SOL    HW2 8212   4.004  10.022   4.741 -0.6258 -0.9845  1.7164
 1092SOL     OW 8213   7.429  11.298   8.390  0.1481 -0.5199  0.2605
 1092SOL    HW1 8214   7.379  11.275   8.312  0.6867  1.2110 -0.6689
 1092SOL    HW2 8215   7.367  11.287   8.462 -0.6027 -1.4130 -0.4878
 1093SOL     OW 8216  11.016   6.644   8.277  0.0310  0.5021  0.2878
 1093SOL    HW1 8217  10.973   6.728   8.262 -0.5582  0.0200 -0.8528
 1093SOL    HW2 8218  11.038   6.613   8.189 -0.3728 -0.8530  0.6473
 1094SOL     OW 8219   9.896   4.045   5.260  0.6201  0.4375  0.4442
 1094SOL    HW1 8220   9.837   3.971   5.273  0.2232  0.6129 -0.3329
 1094SOL    HW2 8221   9.977   4.007   5.227  0.1815  0.4077 -0.6243
 1095SOL     OW 8222   0.203  11.482   5.888  0.6173 -0.3269 -0.7104
 1095SOL    HW1 8223   0.125  11.524   5.851  0.5044  1.5903  1.4533
 1095SOL    HW2 8224   0.244  11.551   5.941  1.1875 -2.5463  1.9766
 1096SOL     OW 8225   9.854   8.035   7.067 -0.5554 -0.0673  0.2708
 1096SOL    HW1 8226   9.821   8.123   7.046 -2.4805 -0.6378  0.7058
 1096SOL    HW2 8227   9.822   7.980   6.996 -1.9954 -0.9263  1.5121
 1097SOL     OW 8228   5.410   2.286   7.773  0.1932  0.1458  0.3466
 1097SOL    HW1 8229   5.460   2.318   7.848  0.5208  1.1629 -0.2837
 1097SOL    HW2 8230   5.418   2.191   7.778  0.3754  0.2067  1.4851
 1098SOL     OW 8231   3.072   9.031   4.002  0.1894  0.2753  0.7874
 1098SOL    HW1 8232   3.010   8.961   3.980  0.4012  0.7451 -1.5441
 1098SOL    HW2 8233   3.017   9.108   4.015  0.1431  0.2952  0.4908
 1099SOL     OW 8234   3.504   6.990   7.007 -0.4685 -1.0582  0.6859
 1099SOL    HW1 8235   3.449   6.994   6.929  2.1119 -0.5623 -1.2095
 1099SOL    HW2 8236   3.590   6.963   6.976  1.1932  1.0234  3.0418
 1100SOL     OW 8237   7.808   2.086   0.711  0.2634  0.1935  0.0510
 1100SOL    HW1 8238   7.742   2.076   0.643 -0.2999  1.2458  0.4322
 1100SOL    HW2 8239   7.761   2.069   0.793  0.4129  1.0811  0.3344
 1101SOL     OW 8240   4.480   0.089   2.790  0.0048  0.2725 -0.5866
 1101SOL    HW1 8241   4.512   0.003   2.765 -0.0231 -0.0850  0.5415
 1101SOL    HW2 8242   4.546   0.150   2.759  0.6196 -0.2669 -0.3442
 1102SOL     OW 8243   4.924   6.124   0.935  0.2350 -0.1964 -0.2563
 1102SOL    HW1 8244   5.018   6.117   0.917  0.3010  0.0517 -0.0234
 1102SOL    HW2 8245   4.919   6.151   1.027 -0.0323  1.1973 -0.6676
 1103SOL     OW 8246   4.746  10.731   1.476 -0.6407 -0.1666  0.3088
 1103SOL    HW1 8247   4.796  10.799   1.431  0.0829 -0.2352  0.9938
 1103SOL    HW2 8248   4.776  10.649   1.436  1.0750 -0.3492  1.8580
 1104SOL     OW 8249   6.590   0.625   0.128  0.2708  0.1549 -0.2520
 1104SOL    HW1 8250   6.594   0.672   0.211 -1.9942 -1.4760  0.8894
 1104SOL    HW2 8251   6.651   0.672   0.071  2.2233  1.1008  2.4050
 1105SOL     OW 8252  10.800   9.434   3.668  0.3733 -0.3921 -0.4874
 1105SOL    HW1 8253  10.892   9.406   3.669  0.9798  1.4364 -1.3236
 1105SOL    HW2 8254  10.803   9.528   3.683 -1.3836 -0.2931 -0.5432
 1106SOL     OW 8255   6.355   6.307   6.051 -0.2687  0.1908 -0.2593
 1106SOL    HW1 8256   6.276   6.360   6.065  0.1924  0.6740  0.6333
 1106SOL    HW2 8257   6.408   6.322   6.129  0.2435 -0.9651 -0.3592
 1107SOL     OW 8258   6.049   0.918   7.843 -0.6808 -0.1461 -0.1336
 1107SOL    HW1 8259   6.086   0.911   7.931  0.9821 -1.4425 -0.8659
 1107SOL    HW2 8260   5.955   0.908   7.855 -0.5810  0.6908  1.5826
 1108SOL     OW 8261   4.289   6.775   2.298  0.7754  0.1867 -0.0898
 1108SOL    HW1 8262   4.220   6.713   2.274 -0.1173  0.7638  0.8908
 1108SOL    HW2 8263   4.371   6.726   2.286  0.0537 -1.5804  1.7593
 1109SOL     OW 8264   9.333   6.409   5.496 -0.3107  0.4006 -0.0192
 1109SOL    HW1 8265   9.272   6.401   5.423 -0.5876 -1.4636  0.3629
 1109SOL    HW2 8266   9.283   6.458   5.562 -0.9162  0.0442 -0.2010
 1110SOL     OW 8267   3.417   6.275   2.200 -0.0677  0.2331  0.0192
 1110SOL    HW1 8268   3.343   6.295   2.141 -1.1591  1.2572  1.6555
 1110SOL    HW2 8269   3.409   6.182   2.218 -1.0664  0.3591  0.2832
 1111SOL     OW 8270   9.318   4.564   8.623  0.0257  0.0492 -0.1868
 1111SOL    HW1 8271   9.402   4.610   8.621  1.2026 -1.9762 -0.8556
 1111SOL    HW2 8272   9.326   4.503   8.697 -0.0559 -1.4442 -1.3495
 1112SOL     OW 8273   9.924   1.779   0.649 -0.3612 -0.5741 -0.0422
 1112SOL    HW1 8274   9.913   1.857   0.595 -1.2514 -0.3593  0.4225
 1112SOL    HW2 8275   9.880   1.709   0.600 -0.2216 -0.6157 -0.1069
 1113SOL     OW 8276   8.203   9.111   4.249 -0.0599  0.4192 -0.3257
 1113SOL    HW1 8277   8.195   9.064   4.332 -0.7585  2.5599  0.9288
 1113SOL    HW2 8278   8.275   9.173   4.264  0.3969  0.2329 -1.6581
 1114SOL     OW 8279   7.453   0.712  10.322 -0.5911  0.0304 -0.1402
 1114SOL    HW1 8280   7.493   0.666  10.248 -1.3194 -0.9533  0.0500
 1114SOL    HW2 8281   7.367   0.739  10.289  0.1804  2.1403 -0.5528
 1115SOL     OW 8282   3.926   9.770   0.057 -0.0603  0.4144  0.4639
 1115SOL    HW1 8283   3.844   9.750   0.102 -0.5822  2.6317  0.6447
 1115SOL    HW2 8284   3.899   9.820  -0.020  1.0338 -0.5081 -0.5593
 1116SOL     OW 8285   8.543   6.452   1.627 -0.2035 -0.1619 -0.6249
 1116SOL    HW1 8286   8.569   6.450   1.535  0.5475 -0.1889 -0.4122
 1116SOL    HW2 8287   8.624   6.444   1.676 -0.5108  0.6692  0.0548
 1117SOL     OW 8288   8.202   1.115   3.033  0.4611 -0.1674  0.1299
 1117SOL    HW1 8289   8.110   1.141   3.037  0.7645  0.8393  2.6382
 1117SOL    HW2 8290   8.240   1.169   2.964 -0.5533  0.4964  0.0752
 1118SOL     OW 8291   3.941   8.531   2.595  0.3094 -0.4525 -0.2354
 1118SOL    HW1 8292   3.861   8.487   2.567  0.8540 -0.0902 -2.5814
 1118SOL    HW2 8293   3.946   8.610   2.541  2.2537 -0.4737 -0.1799
 1119SOL     OW 8294   1.963  11.025  10.493  0.0845  0.4079  0.3672
 1119SOL    HW1 8295   1.972  11.040  10.587  1.4993  1.0377  0.1563
 1119SOL    HW2 8296   2.026  11.084  10.453 -1.0658  0.7379 -1.0469
 1120SOL     OW 8297  10.135   8.002   7.111  0.2117  0.4203  0.4937
 1120SOL    HW1 8298  10.052   8.048   7.125  0.6199  1.1749  0.4483
 1120SOL    HW2 8299  10.108   7.915   7.079 -0.5864  0.3209  1.3760
 1121SOL     OW 8300   4.890   3.878   3.619 -0.0110 -0.5158 -0.4420
 1121SOL    HW1 8301   4.909   3.962   3.660  0.2300 -0.3994 -0.7874
 1121SOL    HW2 8302   4.810   3.894   3.568 -0.0788 -0.5517 -0.3480
 1122SOL     OW 8303   7.884   0.961   2.331  0.2968 -0.7634  0.2108
 1122SOL    HW1 8304   7.801   1.000   2.304  0.5941  0.0169  0.3971
 1122SOL    HW2 8305   7.931   1.032   2.375  1.1141 -1.1647  0.0027
 1123SOL     OW 8306   0.819   5.397   0.902 -0.5538 -0.1617 -0.1006
 1123SOL    HW1 8307   0.751   5.345   0.945 -0.9498 -0.4455 -1.0519
 1123SOL    HW2 8308   0.900   5.371   0.945 -1.0340  0.1854  1.0601
 1124SOL     OW 8309   2.548   8.970   2.780  0.6937 -0.3819 -0.0511
 1124SOL    HW1 8310   2.568   8.888   2.735  0.4717  0.1979 -1.2605
 1124SOL    HW2 8311   2.481   8.946   2.844 -0.9978 -0.8292 -1.8513
 1125SOL     OW 8312  11.397   2.465   4.405 -0.2539  0.2500 -0.1664
 1125SOL    HW1 8313  11.403   2.370   4.400 -1.1487  0.1479  0.5171
 1125SOL    HW2 8314  11.488   2.495   4.403  0.0533 -0.6450  0.1239
 1126SOL     OW 8315   8.843   0.412   6.429  0.1945  0.1065 -0.1853
 1126SOL    HW1 8316   8.754   0.413   6.465  0.1422  1.8314 -0.2904
 1126SOL    HW2 8317   8.837   0.465   6.349  1.3403  0.3446 -0.1262
 1127SOL     OW 8318  11.178   4.864   3.709 -0.3211 -0.3204 -0.0939
 1127SOL    HW1 8319  11.194   4.829   3.622  0.9807  0.2391 -0.1098
 1127SOL    HW2 8320  11.229   4.808   3.767 -1.4656 -0.9103  0.3638
 1128SOL     OW 8321   0.736   9.317   0.866 -0.4975  0.3198 -0.0163
 1128SOL    HW1 8322   0.805   9.250   0.867 -0.6089  0.2176  0.8226
 1128SOL    HW2 8323   0.751   9.364   0.783  0.9540  0.6794  0.4099
 1129SOL     OW 8324   0.180   3.446   5.696  0.7434  0.2905 -0.3219
 1129SOL    HW1 8325   0.221   3.526   5.662 -0.8567  1.8028  1.0718
 1129SOL    HW2 8326   0.093   3.475   5.723  0.8099 -1.4872  2.0550
 1130SOL     OW 8327   4.277   3.256   2.942 -1.0060  0.0250  0.1803
 1130SOL    HW1 8328   4.282   3.351   2.933  0.3877  0.0118  0.5839
 1130SOL    HW2 8329   4.224   3.228   2.868 -0.6473  1.0371 -0.4857
 1131SOL     OW 8330   6.503   1.334   2.192 -0.5972 -0.5456  0.6125
 1131SOL    HW1 8331   6.545   1.268   2.247 -1.7764 -2.2387 -0.4179
 1131SOL    HW2 8332   6.409   1.314   2.199 -0.9253  0.5620 -0.3180
 1132SOL     OW 8333   8.171  11.353   4.647 -0.4150  0.1529 -0.4262
 1132SOL    HW1 8334   8.246  11.293   4.646 -0.0458  0.6174 -0.6901
 1132SOL    HW2 8335   8.174  11.393   4.734 -0.8596 -0.4453 -0.1230
 1133SOL     OW 8336   6.077   9.009   6.307  0.8439  0.3676  0.0558
 1133SOL    HW1 8337   6.143   8.948   6.275 -0.1057 -0.8824  0.4235
 1133SOL    HW2 8338   5.994   8.975   6.274  0.4084  2.3291 -1.0591
 1134SOL     OW 8339   5.611   5.586   3.781 -0.4023 -0.1202 -0.0147
 1134SOL    HW1 8340   5.662   5.665   3.797 -2.7570  1.4839 -0.0661
 1134SOL    HW2 8341   5.654   5.546   3.705 -0.0086  1.8938 -0.9191
 1135SOL     OW 8342   3.979   2.885  10.814 -0.0820 -0.1873  0.3121
 1135SOL    HW1 8343   4.047   2.821  10.795 -0.6846 -0.8830  0.4226
 1135SOL    HW2 8344   3.995   2.957  10.754  0.2134 -0.7463 -0.2832
 1136SOL     OW 8345   2.655   6.990   8.674  0.4319 -0.7125 -0.7137
 1136SOL    HW1 8346   2.738   6.986   8.721  0.8560 -0.2627 -1.4133
 1136SOL    HW2 8347   2.668   6.933   8.598 -0.3399 -1.6517 -0.1731
 1137SOL     OW 8348   1.876   5.481   4.457  0.3863  0.0593  0.3536
 1137SOL    HW1 8349   1.904   5.408   4.512  0.6607 -0.4385 -0.4318
 1137SOL    HW2 8350   1.830   5.440   4.384  2.5009  0.4540 -1.3049
 1138SOL     OW 8351   2.221  11.582   9.805 -0.1345  0.1624 -0.0215
 1138SOL    HW1 8352   2.172  11.500   9.801  0.2993 -0.1561  0.8824
 1138SOL    HW2 8353   2.180  11.638   9.739 -1.1523 -0.3969  0.1116
 1139SOL     OW 8354   3.750  11.176   3.302  0.4117  0.1039 -0.5518
 1139SOL    HW1 8355   3.709  11.129   3.374  0.0483 -0.7537 -1.3031
 1139SOL    HW2 8356   3.686  11.174   3.231  0.6526  1.1735 -0.8222
 1140SOL     OW 8357   2.616   4.093   1.142  0.1612  0.0685  0.3058
 1140SOL    HW1 8358   2.624   4.153   1.068  0.0945 -0.4316 -0.1198
 1140SOL    HW2 8359   2.680   4.124   1.205 -0.8461  1.4258  0.7064
 1141SOL     OW 8360  11.212   6.445   6.524 -0.3129 -0.8051 -0.0088
 1141SOL    HW1 8361  11.209   6.519   6.584  3.7566 -0.1787 -0.2988
 1141SOL    HW2 8362  11.291   6.459   6.472 -0.6278 -4.1982 -1.7003
 1142SOL     OW 8363   9.991   7.532   3.084 -0.1341  0.4937  0.0413
 1142SOL    HW1 8364  10.082   7.510   3.102  0.2085  1.3276 -0.5755
 1142SOL    HW2 8365   9.989   7.628   3.087 -0.8489  0.5082 -0.5758
 1143SOL     OW 8366   3.197   6.051  11.071 -0.4611 -0.2047 -0.1148
 1143SOL    HW1 8367   3.174   6.045  11.164 -1.3322  0.6204 -0.2613
 1143SOL    HW2 8368   3.140   6.120  11.037 -0.2591 -0.6033 -1.2993
 1144SOL     OW 8369   4.324  11.297   3.736 -0.0771 -0.1638 -0.4520
 1144SOL    HW1 8370   4.331  11.274   3.643 -1.2352  1.0028 -0.8532
 1144SOL    HW2 8371   4.250  11.357   3.740 -0.2251 -0.4240  1.2808
 1145SOL     OW 8372  10.709   5.697   4.164 -1.0740  0.7472  0.2341
 1145SOL    HW1 8373  10.631   5.666   4.212 -0.5139 -0.1628  0.5894
 1145SOL    HW2 8374  10.715   5.639   4.088 -1.2465  1.3941 -0.2838
 1146SOL     OW 8375   6.295   5.746   8.819  0.4996 -0.1861 -0.1288
 1146SOL    HW1 8376   6.252   5.814   8.870 -2.3357 -0.6380 -1.7277
 1146SOL    HW2 8377   6.236   5.729   8.746  3.1477 -1.3837 -2.1552
 1147SOL     OW 8378   7.072   7.515   7.171  0.0253 -0.1223  0.5827
 1147SOL    HW1 8379   7.007   7.571   7.129  0.6013  1.4545  1.7309
 1147SOL    HW2 8380   7.020   7.451   7.219 -0.6374 -1.0968 -1.2922
 1148SOL     OW 8381   1.984   7.459   1.434 -0.2532  0.2936  0.3504
 1148SOL    HW1 8382   1.932   7.521   1.383 -1.5021 -0.6130  0.4771
 1148SOL    HW2 8383   2.025   7.512   1.502 -2.2330  0.8647  1.1832
 1149SOL     OW 8384   5.693   3.050   1.789 -0.5365  0.3270  0.3809
 1149SOL    HW1 8385   5.674   3.064   1.697  1.1232  1.0651  0.1086
 1149SOL    HW2 8386   5.656   3.127   1.833  2.3604  2.2109 -0.2463
 1150SOL     OW 8387   5.496   8.625   8.530 -0.2499  0.4362 -0.7331
 1150SOL    HW1 8388   5.584   8.589   8.534 -0.6664 -0.5824 -0.1732
 1150SOL    HW2 8389   5.504   8.706   8.480  1.0426  0.4974 -0.4421
 1151SOL     OW 8390   4.562  10.826  10.195  0.3869 -0.3053 -0.0020
 1151SOL    HW1 8391   4.551  10.862  10.283  1.5029  0.9717 -0.3504
 1151SOL    HW2 8392   4.648  10.857  10.167  0.5210 -1.5860 -1.1434
 1152SOL     OW 8393  11.153   0.428   0.575 -0.0086  0.8240  0.2236
 1152SOL    HW1 8394  11.095   0.467   0.641 -0.7794 -0.5721  0.3984
 1152SOL    HW2 8395  11.130   0.472   0.493 -0.7774  0.8340  0.4372
 1153SOL     OW 8396   1.371   5.597   0.180  0.3033  0.2060 -0.2624
 1153SOL    HW1 8397   1.459   5.627   0.204  0.8027 -1.2095 -0.1609
 1153SOL    HW2 8398   1.312   5.645   0.237  1.2519 -1.0413  1.9211
 1154SOL     OW 8399   4.704   9.848   5.754 -0.2196  0.2605  0.2161
 1154SOL    HW1 8400   4.787   9.895   5.749 -0.2112  0.3611  1.1144
 1154SOL    HW2 8401   4.729   9.757   5.770 -0.2180 -0.1856 -2.0281
 1155SOL     OW 8402   4.110   7.011   4.037  0.1727 -0.5336 -0.2686
 1155SOL    HW1 8403   4.174   6.940   4.044  0.2478 -0.3542  1.0510
 1155SOL    HW2 8404   4.035   6.971   3.992  0.6782 -1.1136 -0.6145
 1156SOL     OW 8405  10.250  10.547   1.476 -0.1118  0.2988  0.8852
 1156SOL    HW1 8406  10.259  10.476   1.539  0.7670 -1.6034 -1.2666
 1156SOL    HW2 8407  10.327  10.540   1.419 -2.4911 -0.3943 -2.5643
 1157SOL     OW 8408   9.326   8.555   4.318 -0.6865 -0.5699 -0.2750
 1157SOL    HW1 8409   9.246   8.587   4.360 -1.4066 -1.2027 -1.1460
 1157SOL    HW2 8410   9.396   8.587   4.375 -1.4854  0.8135 -0.0199
 1158SOL     OW 8411   6.433   3.211   5.687 -0.2712 -0.1153 -0.0699
 1158SOL    HW1 8412   6.440   3.305   5.670 -0.7236 -0.2711 -1.2112
 1158SOL    HW2 8413   6.402   3.205   5.777 -3.5226  0.9579 -0.9735
 1159SOL     OW 8414   1.890   1.640   9.277  0.0715  0.1182  0.6288
 1159SOL    HW1 8415   1.858   1.650   9.366 -2.4457 -1.4432  0.0078
 1159SOL    HW2 8416   1.812   1.654   9.222  1.2149 -0.4651 -1.2392
 1160SOL     OW 8417  10.600   5.801   5.612 -0.0901  0.2068 -0.2044
 1160SOL    HW1 8418  10.658   5.731   5.640 -0.0813  0.2125 -0.2081
 1160SOL    HW2 8419  10.515   5.759   5.599  0.2968 -0.1319 -1.8171
 1161SOL     OW 8420   7.875   3.389   1.931 -0.1508  0.2037  0.0995
 1161SOL    HW1 8421   7.926   3.308   1.928 -0.5212 -0.0106 -0.3979
 1161SOL    HW2 8422   7.850   3.398   2.023 -1.6409 -1.2128 -0.1268
 1162SOL     OW 8423   8.756  11.583   9.761  0.3047 -0.0083  0.5863
 1162SOL    HW1 8424   8.771  11.510   9.701 -0.4889 -2.4875  3.1417
 1162SOL    HW2 8425   8.682  11.630   9.723  0.4551 -0.8682 -0.8610
 1163SOL     OW 8426   9.753   9.847   9.997 -0.6428  0.4346 -0.5963
 1163SOL    HW1 8427   9.785   9.919  10.051 -0.9930 -0.1179  0.3606
 1163SOL    HW2 8428   9.832   9.810   9.957 -0.1140 -0.5336  1.2604
 1164SOL     OW 8429   9.623   8.471   2.006  0.2250  0.0340  0.3338
 1164SOL    HW1 8430   9.669   8.546   2.043  0.8446 -0.7421  1.1810
 1164SOL    HW2 8431   9.674   8.395   2.034 -1.0673 -0.7895  0.5633
 1165SOL     OW 8432   1.317   6.603   3.847 -0.1280 -0.1619 -0.1419
 1165SOL    HW1 8433   1.297   6.547   3.772  1.4337  0.5350 -1.1333
 1165SOL    HW2 8434   1.349   6.685   3.808 -1.6786  1.1774  1.2742
 1166SOL     OW 8435   4.397   9.006   0.311 -0.2361 -0.3047 -0.0150
 1166SOL    HW1 8436   4.470   9.040   0.259 -0.2590 -0.6046 -0.2478
 1166SOL    HW2 8437   4.439   8.957   0.381 -0.2002  0.2821  0.3815
 1167SOL     OW 8438   2.608   9.073   5.317  0.3109 -0.3189 -0.0536
 1167SOL    HW1 8439   2.646   8.986   5.313  1.1703  0.0235  0.3524
 1167SOL    HW2 8440   2.660   9.125   5.255  0.5414  0.1645  0.5358
 1168SOL     OW 8441   0.209   3.082   8.813  0.1641 -0.3118  0.9022
 1168SOL    HW1 8442   0.153   3.018   8.857 -1.4455  0.0501 -0.5205
 1168SOL    HW2 8443   0.291   3.035   8.798 -1.2054 -2.3280 -0.7269
 1169SOL     OW 8444   9.936   3.289   9.360  0.0648  0.3497 -0.6290
 1169SOL    HW1 8445   9.902   3.301   9.449 -0.8645 -0.3894 -0.8593
 1169SOL    HW2 8446   9.958   3.196   9.356 -1.0017  0.1043 -1.5121
 1170SOL     OW 8447   8.761   1.648   8.740 -0.0827  0.1342 -0.3020
 1170SOL    HW1 8448   8.674   1.618   8.716 -1.1836  2.4243  0.5672
 1170SOL    HW2 8449   8.758   1.659   8.835 -0.0858  3.6064 -0.5780
 1171SOL     OW 8450   9.465   6.330  10.910 -0.1870 -0.1519  0.1748
 1171SOL    HW1 8451   9.539   6.301  10.963 -0.6964 -2.1516 -0.1229
 1171SOL    HW2 8452   9.444   6.255  10.855 -1.6102  0.8235 -0.6901
 1172SOL     OW 8453   4.635   4.759   4.082  0.0020 -0.2338 -1.0548
 1172SOL    HW1 8454   4.565   4.823   4.094 -0.3686 -0.7102 -0.6121
 1172SOL    HW2 8455   4.682   4.789   4.004 -0.6304  0.1520 -1.2995
 1173SOL     OW 8456  10.411  10.744   0.114 -0.3058 -0.3713  0.0998
 1173SOL    HW1 8457  10.415  10.649   0.129 -1.1231 -0.3548  0.4791
 1173SOL    HW2 8458  10.336  10.773   0.166 -0.0357  0.4955  0.0198
 1174SOL     OW 8459   6.984   6.102   2.922  0.4152  0.0990  0.4221
 1174SOL    HW1 8460   7.020   6.124   3.007 -1.8327 -0.3654  1.5742
 1174SOL    HW2 8461   6.892   6.081   2.939  0.0229 -0.5621 -2.0357
 1175SOL     OW 8462   7.807   0.240   9.902  0.3779 -0.1881 -0.2368
 1175SOL    HW1 8463   7.815   0.238   9.807 -0.0876 -1.4334 -0.2744
 1175SOL    HW2 8464   7.730   0.187   9.921 -1.4187  2.5491  0.6977
 1176SOL     OW 8465   0.137   7.436   7.182 -0.1131 -0.5049  0.8267
 1176SOL    HW1 8466   0.056   7.402   7.218 -0.7833  0.0217 -0.1433
 1176SOL    HW2 8467   0.199   7.363   7.188 -1.1634 -1.5114 -0.0580
 1177SOL     OW 8468  10.565   0.746   2.412 -0.5360  0.2111  0.2720
 1177SOL    HW1 8469  10.640   0.686   2.423 -0.0329  1.0397  1.6032
 1177SOL    HW2 8470  10.498   0.693   2.368  0.1753 -1.0915  0.7115
 1178SOL     OW 8471   7.835   2.241   3.231 -0.4438  0.0056 -0.1870
 1178SOL    HW1 8472   7.902   2.259   3.297 -0.1506  1.2974 -0.8028
 1178SOL    HW2 8473   7.756   2.283   3.267 -0.4286  0.2065 -0.3896
 1179SOL     OW 8474   3.981  11.022   3.356 -0.3544 -0.0543 -0.1066
 1179SOL    HW1 8475   3.933  10.940   3.344 -0.6179  0.1609 -0.5794
 1179SOL    HW2 8476   3.912  11.089   3.354 -0.0530  0.2414 -0.5590
 1180SOL     OW 8477   3.784   0.132   9.031 -0.3088  0.1315 -0.2652
 1180SOL    HW1 8478   3.709   0.108   8.977  0.6406  0.9584 -2.0296
 1180SOL    HW2 8479   3.787   0.227   9.028 -0.0131  0.1778  0.9814
 1181SOL     OW 8480   2.089   0.345   8.262  0.7089  0.4548 -0.5348
 1181SOL    HW1 8481   2.040   0.290   8.201  0.3454  2.4060 -2.1182
 1181SOL    HW2 8482   2.056   0.320   8.349 -0.5401 -0.7247 -1.3056
 1182SOL     OW 8483   0.584   0.445   4.981  0.0132  0.2542  0.2753
 1182SOL    HW1 8484   0.643   0.383   4.938 -1.9672  0.2973 -2.7244
 1182SOL    HW2 8485   0.541   0.491   4.910 -2.7754  1.0798  2.3371
 1183SOL     OW 8486   1.794   9.441   6.338  0.5502  0.0293 -0.2039
 1183SOL    HW1 8487   1.700   9.445   6.321  0.5288  0.1057 -0.0757
 1183SOL    HW2 8488   1.801   9.449   6.433  0.5270 -2.6991  0.1012
 1184SOL     OW 8489   8.123   7.739   3.972 -0.1704 -0.1819 -0.0300
 1184SOL    HW1 8490   8.076   7.662   4.004 -0.1847 -0.8160 -1.5173
 1184SOL    HW2 8491   8.214   7.725   4.000 -0.0352 -1.0940 -0.8655
 1185SOL     OW 8492   0.483   5.215   8.289 -0.2366 -0.1716  0.6856
 1185SOL    HW1 8493   0.428   5.261   8.352  0.1979  0.7429  0.4158
 1185SOL    HW2 8494   0.436   5.222   8.206  0.6775  1.4238  0.2539
 1186SOL     OW 8495   7.977   7.732   7.587 -0.6746  0.3664  0.5829
 1186SOL    HW1 8496   7.999   7.707   7.497  0.8228 -1.1529  1.3122
 1186SOL    HW2 8497   7.888   7.700   7.599  0.1637 -2.1762  0.5412
 1187SOL     OW 8498   7.423   3.214   1.640  0.3679  0.4702  0.0925
 1187SOL    HW1 8499   7.353   3.256   1.690  0.0597  0.4755 -0.3468
 1187SOL    HW2 8500   7.488   3.283   1.629  0.9950  0.1565  1.5170
 1188SOL     OW 8501   4.160   6.520  10.016 -0.3775  0.2476  0.3650
 1188SOL    HW1 8502   4.072   6.550  10.038 -0.1600  0.7210  0.6229
 1188SOL    HW2 8503   4.217   6.591  10.045  0.2615 -0.8792  2.0563
 1189SOL     OW 8504   6.194   7.319   8.610 -0.3498 -0.8067 -0.1852
 1189SOL    HW1 8505   6.246   7.244   8.580  1.0188  0.3927 -0.9252
 1189SOL    HW2 8506   6.238   7.348   8.690  0.8251  0.8401 -1.3571
 1190SOL     OW 8507   7.238   6.946   4.813 -0.2715  0.3972 -0.2861
 1190SOL    HW1 8508   7.259   7.009   4.743  0.0139  2.1528  1.2846
 1190SOL    HW2 8509   7.290   6.976   4.888  2.2162 -3.4749 -0.1803
 1191SOL     OW 8510   7.068   1.038   8.837  0.4190 -0.7483  0.1258
 1191SOL    HW1 8511   7.078   1.122   8.882  0.5973 -0.5245 -0.3271
 1191SOL    HW2 8512   7.116   1.048   8.755 -2.4614 -0.0179 -1.6337
 1192SOL     OW 8513   2.501   6.772  10.666 -0.3109 -0.0694 -0.7025
 1192SOL    HW1 8514   2.444   6.812  10.731  2.0036  0.9639  0.8298
 1192SOL    HW2 8515   2.465   6.801  10.582 -2.5801 -0.3311  0.1183
 1193SOL     OW 8516  11.128   3.387   0.603 -0.1045  0.1077 -0.1581
 1193SOL    HW1 8517  11.183   3.375   0.526  1.2059 -0.8754  0.8731
 1193SOL    HW2 8518  11.172   3.456   0.653  0.4805 -0.9420  0.8540
 1194SOL     OW 8519   8.447  11.368   9.581 -0.2132 -0.2014  0.2212
 1194SOL    HW1 8520   8.451  11.364   9.485  0.8148  0.6456  0.2092
 1194SOL    HW2 8521   8.430  11.460   9.600 -0.4390 -0.3732  0.8597
 1195SOL     OW 8522   9.318   5.788  10.739  0.4979 -0.3823  0.0484
 1195SOL    HW1 8523   9.323   5.770  10.646  0.4533 -1.1222  0.1815
 1195SOL    HW2 8524   9.226   5.809  10.754  0.4169 -0.6847 -0.0076
 1196SOL     OW 8525   0.269   2.838  10.672 -0.2840 -0.0549 -0.3979
 1196SOL    HW1 8526   0.197   2.776  10.656 -1.3251  1.5677 -2.4456
 1196SOL    HW2 8527   0.240   2.920  10.632  2.2383  0.9987 -0.2561
 1197SOL     OW 8528  10.283  11.435  10.331 -0.0158  0.8699 -0.1762
 1197SOL    HW1 8529  10.257  11.373  10.263 -2.1285  1.2392  0.2252
 1197SOL    HW2 8530  10.360  11.479  10.295 -0.1190 -0.0617 -1.6225
 1198SOL     OW 8531   3.891   9.134  10.952  0.1490  0.1539 -0.0210
 1198SOL    HW1 8532   3.821   9.069  10.952 -0.7761  1.1053 -1.1270
 1198SOL    HW2 8533   3.965   9.089  10.912 -1.0435  0.2832 -2.6128
 1199SOL     OW 8534  10.711   4.642  10.077  0.7111  0.2888  0.0150
 1199SOL    HW1 8535  10.765   4.716  10.106 -0.8791  1.3205  0.5208
 1199SOL    HW2 8536  10.685   4.665   9.988 -1.6584  1.5471  0.9508
 1200SOL     OW 8537   9.012  10.627   0.706 -0.4105 -0.1042 -1.0335
 1200SOL    HW1 8538   9.098  10.618   0.667  0.1612  0.9681 -0.0891
 1200SOL    HW2 8539   9.001  10.550   0.760  1.4858  1.3150  1.5998
 1201SOL     OW 8540   4.797   2.019   4.620 -0.0286 -0.4027  0.3693
 1201SOL    HW1 8541   4.703   2.001   4.621  0.0695 -1.2368 -1.5126
 1201SOL    HW2 8542   4.804   2.114   4.626 -0.9443 -0.3861  1.3449
 1202SOL     OW 8543   8.176   6.561   8.090  0.8213 -0.3289  0.5809
 1202SOL    HW1 8544   8.121   6.607   8.154  1.2116  1.0832 -0.0510
 1202SOL    HW2 8545   8.138   6.585   8.005  0.7950 -1.5336  0.2313
 1203SOL     OW 8546  11.411   3.670  11.469 -0.0676  0.1565  0.1544
 1203SOL    HW1 8547  11.390   3.626  11.551 -0.7488  1.0142  0.4525
 1203SOL    HW2 8548  11.484   3.728  11.490  1.4190 -1.4077 -0.4384
 1204SOL     OW 8549   1.556   0.368   1.024  0.6613  0.2627 -0.7201
 1204SOL    HW1 8550   1.556   0.288   0.972  1.1071  0.4010 -0.9335
 1204SOL    HW2 8551   1.573   0.339   1.113 -1.9565 -0.2032 -0.2707
 1205SOL     OW 8552   2.966   2.476   6.099 -0.6582  0.6462 -0.1307
 1205SOL    HW1 8553   3.048   2.446   6.059  0.1439  2.5644 -0.0177
 1205SOL    HW2 8554   2.953   2.565   6.065 -1.8570  0.9784  1.0808
 1206SOL     OW 8555   0.799   6.731   9.658 -0.0525 -0.2458 -0.0306
 1206SOL    HW1 8556   0.750   6.650   9.668  0.7991 -1.1600 -2.4762
 1206SOL    HW2 8557   0.890   6.707   9.675  0.1523  0.3076 -0.3069
 1207SOL     OW 8558   4.211   9.441   3.977  0.0243 -0.2319  0.1467
 1207SOL    HW1 8559   4.272   9.375   4.010 -0.5704 -0.5243  0.6942
 1207SOL    HW2 8560   4.133   9.431   4.032 -0.0358  1.0154  0.3142
 1208SOL     OW 8561   9.306   3.054   3.816 -0.1249 -0.0890  0.0938
 1208SOL    HW1 8562   9.342   3.079   3.901 -2.5378  0.1927  1.1133
 1208SOL    HW2 8563   9.245   3.125   3.793  0.4210 -0.1818 -1.8734
 1209SOL     OW 8564   7.771   8.115   4.731  0.5267 -0.0912 -0.4153
 1209SOL    HW1 8565   7.776   8.195   4.784  0.0336 -0.3122 -0.0265
 1209SOL    HW2 8566   7.849   8.118   4.675  0.4238  0.7450 -0.5227
 1210SOL     OW 8567   1.067   2.074  11.244 -0.0578  0.4858  0.1806
 1210SOL    HW1 8568   1.035   2.126  11.317  0.3704 -0.2076  0.8799
 1210SOL    HW2 8569   1.002   2.004  11.234 -1.0976  1.5909 -1.3183
 1211SOL     OW 8570   6.284   3.431   7.731  0.3828 -0.0852 -0.3160
 1211SOL    HW1 8571   6.244   3.517   7.718  1.1390  0.4069  0.4717
 1211SOL    HW2 8572   6.246   3.376   7.663 -3.8905 -0.4734  1.9760
 1212SOL     OW 8573   9.731  10.579  10.444 -0.0808  0.3539 -0.5531
 1212SOL    HW1 8574   9.693  10.586  10.357 -1.9469  1.3322  0.2893
 1212SOL    HW2 8575   9.715  10.664  10.485  1.4122  0.1739  0.5261
 1213SOL     OW 8576   5.117  10.448   5.014  0.2847 -0.1664 -0.4390
 1213SOL    HW1 8577   5.036  10.397   5.017 -0.9279  1.6989  0.1483
 1213SOL    HW2 8578   5.164  10.422   5.093 -0.3613 -0.3031 -0.0903
 1214SOL     OW 8579   3.737   4.211   4.256  0.1818 -0.4892  0.2418
 1214SOL    HW1 8580   3.741   4.211   4.160  2.0173 -0.4612  0.2822
 1214SOL    HW2 8581   3.780   4.293   4.282 -0.0228 -0.6439  1.0980
 1215SOL     OW 8582  10.451   7.224   1.008  0.2920 -0.6215  0.0174
 1215SOL    HW1 8583  10.441   7.300   0.950  1.2274 -1.5321 -1.4083
 1215SOL    HW2 8584  10.482   7.261   1.091 -1.3592  0.7431  0.0752
 1216SOL     OW 8585  10.035   1.030   1.104 -0.3315  0.4535  0.4074
 1216SOL    HW1 8586  10.058   0.963   1.040 -0.5329  0.5669  0.2180
 1216SOL    HW2 8587  10.104   1.096   1.097 -0.9414  1.0144 -0.4742
 1217SOL     OW 8588   5.181  11.667   6.520 -0.2932  0.0660 -0.1796
 1217SOL    HW1 8589   5.086  11.661   6.506 -0.2538 -0.2439 -0.3374
 1217SOL    HW2 8590   5.192  11.742   6.578 -0.6727 -0.1687  0.2043
 1218SOL     OW 8591  10.367   4.907   9.281  0.1637  0.5138 -0.0817
 1218SOL    HW1 8592  10.385   4.998   9.259  0.3326  0.0774 -1.8590
 1218SOL    HW2 8593  10.453   4.867   9.294  0.0911  0.5765  0.6688
 1219SOL     OW 8594   6.593  11.422  11.459  0.5959  0.9359  0.0731
 1219SOL    HW1 8595   6.501  11.447  11.454 -0.1724 -1.2287  1.8462
 1219SOL    HW2 8596   6.622  11.454  11.544  0.8712 -0.2286  0.4268
 1220SOL     OW 8597   0.681   2.300   1.494  0.4542 -0.0622 -0.4493
 1220SOL    HW1 8598   0.645   2.296   1.582  3.0574  0.6184  0.7372
 1220SOL    HW2 8599   0.695   2.208   1.470 -0.2600 -0.2518 -0.1804
 1221SOL     OW 8600   5.149   2.201  11.114  0.0703  0.8814 -0.4079
 1221SOL    HW1 8601   5.068   2.164  11.078  0.7529 -0.9171 -0.2057
 1221SOL    HW2 8602   5.132   2.212  11.207  0.6000 -1.2973  0.0138
 1222SOL     OW 8603   8.690   8.526   0.700 -0.2294  0.7149  0.3862
 1222SOL    HW1 8604   8.600   8.553   0.683 -0.2367  0.4023 -0.0888
 1222SOL    HW2 8605   8.711   8.466   0.629  0.4470  0.9905  0.3476
 1223SOL     OW 8606  10.350   2.042  11.331  0.1486  0.5442  0.6161
 1223SOL    HW1 8607  10.318   2.043  11.421 -1.4984  0.9401  0.0482
 1223SOL    HW2 8608  10.386   2.130  11.318  0.3170  0.5123  0.8551
 1224SOL     OW 8609   4.892  10.180   1.723 -1.6236 -0.1161  0.6279
 1224SOL    HW1 8610   4.947  10.167   1.646  0.3336  0.1395  1.9005
 1224SOL    HW2 8611   4.854  10.094   1.741  1.6646 -1.4521  2.0243
 1225SOL     OW 8612   7.067   9.446   1.431  0.4164 -0.6256 -0.6401
 1225SOL    HW1 8613   7.146   9.499   1.423  0.2141 -0.1225  0.4754
 1225SOL    HW2 8614   7.004   9.502   1.477 -0.3406 -1.2824 -0.8395
 1226SOL     OW 8615   4.170  11.131   1.009 -0.6034 -0.0313 -0.1049
 1226SOL    HW1 8616   4.189  11.157   0.919 -0.3180  1.5344  0.3798
 1226SOL    HW2 8617   4.168  11.035   1.006 -0.5124 -0.0160 -1.7490
 1227SOL     OW 8618   2.338  11.306   0.735 -0.9461 -0.1084  0.0669
 1227SOL    HW1 8619   2.251  11.330   0.702 -1.6210 -1.4744  0.7572
 1227SOL    HW2 8620   2.320  11.256   0.814  0.4915 -0.2585  0.3208
 1228SOL     OW 8621  10.679   5.490   3.732  0.4220  0.1410  0.2014
 1228SOL    HW1 8622  10.636   5.483   3.646  1.9415  2.1268 -0.8192
 1228SOL    HW2 8623  10.693   5.399   3.759 -1.1007 -0.5397 -1.1113
 1229SOL     OW 8624   9.113  10.292   4.390  0.6087 -0.3470 -0.3967
 1229SOL    HW1 8625   9.182  10.284   4.325  0.2682  0.1572 -0.8315
 1229SOL    HW2 8626   9.124  10.381   4.426  1.4519 -0.9841  1.0022
 1230SOL     OW 8627   4.988   4.436   6.592 -0.7646  0.6908 -0.1904
 1230SOL    HW1 8628   5.031   4.520   6.577 -0.4747  0.8278  1.1945
 1230SOL    HW2 8629   4.898   4.448   6.563 -0.8020  1.5863  0.2711
 1231SOL     OW 8630   1.250   4.640   5.213 -0.2446 -0.2405 -0.0178
 1231SOL    HW1 8631   1.298   4.708   5.260  1.0466 -1.5390  0.6205
 1231SOL    HW2 8632   1.172   4.625   5.267 -0.7491  0.9875 -0.3801
 1232SOL     OW 8633   2.648   0.037   1.305  0.0188  0.5780  0.3860
 1232SOL    HW1 8634   2.621   0.004   1.390  2.0962 -0.1358  0.8348
 1232SOL    HW2 8635   2.586  -0.000   1.242 -0.1908 -0.7295  1.3478
 1233SOL     OW 8636   6.751  10.321  11.524 -0.3272  0.1070 -0.7659
 1233SOL    HW1 8637   6.782  10.328  11.434 -2.4427  0.3339 -1.5117
 1233SOL    HW2 8638   6.716  10.407  11.545 -1.7724 -0.5292 -0.4856
 1234SOL     OW 8639   3.846   7.158   9.318 -0.6182 -0.6265 -0.2665
 1234SOL    HW1 8640   3.832   7.122   9.230  0.7781 -1.6091 -0.1206
 1234SOL    HW2 8641   3.847   7.082   9.376 -0.7436 -0.0600  0.5025
 1235SOL     OW 8642   3.074  10.162   5.532 -0.1890  0.1478  0.3364
 1235SOL    HW1 8643   3.147  10.181   5.473  0.1616  0.6153  0.9087
 1235SOL    HW2 8644   3.076  10.067   5.542 -0.5557  0.0107 -0.7744
 1236SOL     OW 8645   0.021   3.621   2.600 -0.4636 -0.6041 -0.1564
 1236SOL    HW1 8646   0.051   3.630   2.510 -0.1201 -0.1815 -0.0031
 1236SOL    HW2 8647   0.095   3.581   2.646 -0.0369  0.6109  0.2608
 1237SOL     OW 8648   4.188  10.841   6.395  0.1330  0.3484  0.1756
 1237SOL    HW1 8649   4.264  10.886   6.434 -0.3506  1.6139 -0.2874
 1237SOL    HW2 8650   4.118  10.906   6.398 -0.5911 -0.3838 -0.5281
 1238SOL     OW 8651   4.839   3.404  10.097  0.1666 -0.7227  0.9046
 1238SOL    HW1 8652   4.928   3.404  10.133  1.0458  0.9806 -1.0257
 1238SOL    HW2 8653   4.794   3.475  10.143  1.0829  1.0057 -0.6964
 1239SOL     OW 8654   2.678   5.539   9.628 -1.1513 -0.2075 -0.4737
 1239SOL    HW1 8655   2.722   5.602   9.571  0.9913 -0.5844  0.6884
 1239SOL    HW2 8656   2.626   5.594   9.687 -1.9122  0.2584 -1.5171
 1240SOL     OW 8657   2.529   3.903   7.138 -0.0124 -0.4934 -0.0294
 1240SOL    HW1 8658   2.548   3.980   7.192 -1.3083 -0.1613 -0.0153
 1240SOL    HW2 8659   2.485   3.842   7.197 -0.9051 -0.3689 -0.5413
 1241SOL     OW 8660   3.560   3.330   0.247  0.6821  0.2874 -0.4028
 1241SOL    HW1 8661   3.596   3.241   0.248 -1.6795 -0.7446  0.7963
 1241SOL    HW2 8662   3.466   3.318   0.262  0.5793  3.1334  2.0116
 1242SOL     OW 8663   2.890   9.675   2.121  0.5876 -0.3266  0.3592
 1242SOL    HW1 8664   2.819   9.635   2.070 -1.8712  1.5328  2.0433
 1242SOL    HW2 8665   2.918   9.750   2.068  0.3426 -0.2988  0.2657
 1243SOL     OW 8666   0.262   1.137  10.101  0.0367 -0.5035 -0.1822
 1243SOL    HW1 8667   0.261   1.197  10.175  1.0400 -1.2480  0.4535
 1243SOL    HW2 8668   0.287   1.052  10.138 -0.5417 -1.1411 -1.1921
 1244SOL     OW 8669  10.636   7.125   5.421 -0.6610  0.5611 -0.1054
 1244SOL    HW1 8670  10.584   7.174   5.358  0.1759 -0.8630 -1.9919
 1244SOL    HW2 8671  10.571   7.078   5.474 -1.3543  0.4249 -1.0556
 1245SOL     OW 8672   4.539   1.183  10.918 -0.3866 -0.1134 -0.1361
 1245SOL    HW1 8673   4.534   1.144  10.830  0.7388  0.5534 -0.5267
 1245SOL    HW2 8674   4.521   1.110  10.977 -0.7086 -0.6837 -0.9128
 1246SOL     OW 8675   0.213   6.314   8.774 -0.0473  0.4602 -0.4299
 1246SOL    HW1 8676   0.130   6.361   8.786 -0.1131  0.0558  0.7858
 1246SOL    HW2 8677   0.273   6.381   8.742 -0.8436  0.7422 -1.4235
 1247SOL     OW 8678  11.471   9.548   7.400 -0.2872 -0.4827  0.4004
 1247SOL    HW1 8679  11.413   9.537   7.476 -0.6439  0.0575  0.2148
 1247SOL    HW2 8680  11.457   9.469   7.348 -2.0019  0.2967 -0.3864
 1248SOL     OW 8681   6.568   4.172   9.265  0.2449 -0.1392 -0.0733
 1248SOL    HW1 8682   6.568   4.079   9.241  0.7679 -0.1076 -0.2209
 1248SOL    HW2 8683   6.484   4.186   9.307 -0.1438 -0.5062 -0.7189
 1249SOL     OW 8684   4.074   0.394   6.067  0.3325  0.0706 -0.3394
 1249SOL    HW1 8685   4.114   0.446   6.137  2.9316 -1.2159 -0.7371
 1249SOL    HW2 8686   4.015   0.333   6.113 -0.9481  1.7288  0.3140
 1250SOL     OW 8687   9.430  11.544   2.006 -0.4955 -0.1860  0.7437
 1250SOL    HW1 8688   9.373  11.476   1.969 -2.1293  1.1832  0.6564
 1250SOL    HW2 8689   9.378  11.624   2.002  2.4463  1.8358 -2.1527
 1251SOL     OW 8690   3.435   7.993   2.817 -0.0511  0.0523  0.1375
 1251SOL    HW1 8691   3.366   7.998   2.751 -1.0416  0.6921  1.1938
 1251SOL    HW2 8692   3.418   7.910   2.863 -0.3657  0.4053  0.6614
 1252SOL     OW 8693   6.628   8.128   2.919 -0.0745  0.1653 -0.3654
 1252SOL    HW1 8694   6.548   8.167   2.884 -0.1578 -0.0700 -0.4428
 1252SOL    HW2 8695   6.683   8.112   2.842  0.2657  0.8149 -0.2569
 1253SOL     OW 8696   0.221   3.957   3.103  0.0322  0.4337 -0.6385
 1253SOL    HW1 8697   0.279   4.027   3.073 -0.4099  1.0601 -0.0819
 1253SOL    HW2 8698   0.274   3.907   3.165  0.2751  0.4283 -0.8504
 1254SOL     OW 8699   1.810   4.354   6.786  0.5333  0.1010 -0.3402
 1254SOL    HW1 8700   1.905   4.350   6.793  0.5677 -0.9765 -1.0555
 1254SOL    HW2 8701   1.784   4.263   6.768 -0.5230  0.5639 -1.2752
 1255SOL     OW 8702   0.696   8.004   0.795  0.6880 -0.1461 -0.0993
 1255SOL    HW1 8703   0.720   7.919   0.758 -0.2595 -0.7696  0.6454
 1255SOL    HW2 8704   0.776   8.055   0.794  1.6964 -1.6301  0.9411
 1256SOL     OW 8705   4.317   8.821   0.892 -0.1230 -0.0446 -0.1893
 1256SOL    HW1 8706   4.292   8.850   0.804  1.3559  0.6745 -0.4119
 1256SOL    HW2 8707   4.331   8.902   0.941 -1.3007 -0.4374  0.8551
 1257SOL     OW 8708   7.895  10.662   6.637  0.2959  0.1231  0.2948
 1257SOL    HW1 8709   7.805  10.679   6.609  0.0229  0.7105  1.4585
 1257SOL    HW2 8710   7.935  10.616   6.563 -1.2653 -1.0999  0.1640
 1258SOL     OW 8711   8.158   2.881   7.718  0.0177 -0.0920  0.2230
 1258SOL    HW1 8712   8.205   2.964   7.706  1.3436 -0.6868  1.0412
 1258SOL    HW2 8713   8.112   2.892   7.802 -0.1936 -0.0234  0.1000
 1259SOL     OW 8714   0.265   9.847   3.504 -0.0059 -0.2552  0.2791
 1259SOL    HW1 8715   0.252   9.783   3.434 -0.8018 -0.3893  0.5408
 1259SOL    HW2 8716   0.181   9.892   3.512  0.3044  0.2809  0.6387
 1260SOL     OW 8717   3.917   9.997   6.289  0.8596 -0.0123 -0.7143
 1260SOL    HW1 8718   3.867  10.046   6.223  2.8996 -1.0003 -3.1742
 1260SOL    HW2 8719   3.878   9.909   6.287  0.1715  0.2601  0.2965
 1261SOL     OW 8720   4.267   8.512   2.123  0.3224  0.8204  0.2063
 1261SOL    HW1 8721   4.201   8.568   2.164  1.8048  1.0094  2.5434
 1261SOL    HW2 8722   4.325   8.572   2.077  0.2874  0.8989  0.2653
 1262SOL     OW 8723   4.117   2.348   7.493  0.6030 -0.1598  0.1909
 1262SOL    HW1 8724   4.152   2.261   7.475  1.0989  0.1777 -0.5637
 1262SOL    HW2 8725   4.122   2.358   7.588 -0.3078 -1.2914  0.3778
 1263SOL     OW 8726   3.641   1.205   9.849 -0.2591 -0.1575  0.4167
 1263SOL    HW1 8727   3.667   1.279   9.904  0.4098  0.4167 -0.6403
 1263SOL    HW2 8728   3.717   1.187   9.794 -0.7013 -1.1077  0.0801
 1264SOL     OW 8729   6.439   4.147   6.490 -0.7580 -0.1055  0.3833
 1264SOL    HW1 8730   6.354   4.106   6.474 -0.6956  0.0785 -0.4676
 1264SOL    HW2 8731   6.494   4.118   6.417  0.0477 -0.5812  1.1624
 1265SOL     OW 8732   3.459   2.735  11.446  0.5944 -0.4866  0.3916
 1265SOL    HW1 8733   3.393   2.681  11.490  1.6564 -1.8285  0.3835
 1265SOL    HW2 8734   3.540   2.720  11.495  1.0330  0.7294  0.0838
 1266SOL     OW 8735   1.421  11.134   3.519  0.2315 -0.5224  0.4364
 1266SOL    HW1 8736   1.339  11.179   3.498  0.3365 -0.5515 -0.0500
 1266SOL    HW2 8737   1.489  11.201   3.507  0.3624 -0.7355 -0.0314
 1267SOL     OW 8738   9.299   3.205   5.535 -0.4261 -0.0235  0.6592
 1267SOL    HW1 8739   9.293   3.232   5.444  0.5923 -0.6087  0.4039
 1267SOL    HW2 8740   9.230   3.255   5.580 -0.1757  1.1440 -0.2128
 1268SOL     OW 8741   1.077   8.363   4.849  0.1881 -0.3404  0.2588
 1268SOL    HW1 8742   1.126   8.290   4.886  3.1687  0.0359 -2.4874
 1268SOL    HW2 8743   1.010   8.322   4.795 -0.8047 -0.9035  1.8412
 1269SOL     OW 8744   0.062   7.326   0.839  0.1069 -0.1420  0.6973
 1269SOL    HW1 8745   0.089   7.394   0.777 -1.5512  0.1951  0.2973
 1269SOL    HW2 8746   0.090   7.359   0.924  0.9281  0.1729  0.3180
 1270SOL     OW 8747  10.818   6.825   9.995  0.4488 -0.3588  0.4075
 1270SOL    HW1 8748  10.775   6.861   9.917 -0.6925 -1.6039  0.4143
 1270SOL    HW2 8749  10.901   6.790   9.962  0.6390  0.4032  0.0386
 1271SOL     OW 8750   1.420   8.722  10.494  0.2790  0.0591 -0.1896
 1271SOL    HW1 8751   1.359   8.651  10.472 -0.1095  0.2479  0.2561
 1271SOL    HW2 8752   1.461   8.694  10.576 -1.0381  1.0397  0.8621
 1272SOL     OW 8753   1.135   0.709   8.590 -0.0027 -0.0686 -0.5116
 1272SOL    HW1 8754   1.066   0.766   8.623 -0.4230 -0.8624  0.0182
 1272SOL    HW2 8755   1.209   0.724   8.649  1.1887  2.5967 -2.4952
 1273SOL     OW 8756   9.972   5.684   3.866  0.0800 -0.7791  0.2148
 1273SOL    HW1 8757   9.953   5.645   3.780  0.0322 -2.6314  1.0069
 1273SOL    HW2 8758  10.068   5.686   3.870  0.0816 -0.5301  0.0520
 1274SOL     OW 8759   5.501   1.486   9.071  0.0521 -0.3050 -0.2331
 1274SOL    HW1 8760   5.541   1.551   9.013  1.6029 -0.7750  0.2490
 1274SOL    HW2 8761   5.456   1.537   9.138  1.9051  0.3257  0.5881
 1275SOL     OW 8762   5.016   2.745   0.299  0.9813 -0.3036 -0.0628
 1275SOL    HW1 8763   5.000   2.788   0.214  1.5056  1.8172  0.8426
 1275SOL    HW2 8764   4.984   2.656   0.287  0.7303  0.0291 -2.3857
 1276SOL     OW 8765   4.643   1.401   5.023 -0.1029 -0.3331 -0.3173
 1276SOL    HW1 8766   4.668   1.461   5.093  1.1371  0.6137 -1.5246
 1276SOL    HW2 8767   4.551   1.420   5.006  0.0898  0.7370 -0.2047
 1277SOL     OW 8768   8.876   7.114   4.150 -0.1471 -0.1016  0.4301
 1277SOL    HW1 8769   8.874   7.116   4.246  1.0570 -1.1732  0.5070
 1277SOL    HW2 8770   8.794   7.154   4.123  0.3392  2.0470  1.8852
 1278SOL     OW 8771   9.238   1.086  11.238 -0.0672  0.6848  0.7213
 1278SOL    HW1 8772   9.261   0.995  11.218  1.8169  0.4544  3.3763
 1278SOL    HW2 8773   9.196   1.082  11.324  2.0525  2.4429  1.9500
 1279SOL     OW 8774   5.841   2.724   5.998 -0.1326 -0.6212  0.1663
 1279SOL    HW1 8775   5.790   2.653   5.959  0.9566 -2.5205  1.9639
 1279SOL    HW2 8776   5.780   2.769   6.056 -1.1869  0.8462 -1.9824
 1280SOL     OW 8777   8.537  10.823  10.958 -0.4756 -0.6020  0.1805
 1280SOL    HW1 8778   8.534  10.875  11.039 -0.9577  0.4493 -0.4824
 1280SOL    HW2 8779   8.618  10.849  10.915 -0.2687 -1.0840  0.2769
 1281SOL     OW 8780   1.551   4.871   0.163  0.6666  0.0706 -0.6370
 1281SOL    HW1 8781   1.580   4.946   0.215  1.3862 -0.0845 -0.8003
 1281SOL    HW2 8782   1.479   4.905   0.110 -1.8234 -0.3451  2.1750
 1282SOL     OW 8783   9.582   0.308   6.449  0.3258  0.0867 -0.3381
 1282SOL    HW1 8784   9.583   0.242   6.380 -0.8302  0.4603 -0.7483
 1282SOL    HW2 8785   9.529   0.269   6.519  1.6666 -0.3769  0.4619
 1283SOL     OW 8786   7.647  10.841  10.745  0.1100  0.2126 -0.1315
 1283SOL    HW1 8787   7.598  10.871  10.821  0.5559  1.8570 -0.4497
 1283SOL    HW2 8788   7.612  10.891  10.672 -1.4825 -2.5054 -1.3972
 1284SOL     OW 8789   4.421   2.546   3.061 -0.6130 -0.1726  0.3059
 1284SOL    HW1 8790   4.482   2.475   3.083 -0.3209 -0.0860 -0.1985
 1284SOL    HW2 8791   4.390   2.579   3.145 -0.8417 -0.9785  0.5461
 1285SOL     OW 8792   3.739   8.294   9.153 -0.4076 -0.3788  0.4216
 1285SOL    HW1 8793   3.804   8.223   9.149 -1.9091 -1.8746  1.2610
 1285SOL    HW2 8794   3.751   8.333   9.239 -0.2202 -0.2696  0.3449
 1286SOL     OW 8795   5.246   6.010   1.729 -0.6394  0.0149 -0.3527
 1286SOL    HW1 8796   5.308   5.947   1.694 -1.3007 -0.5848 -0.4735
 1286SOL    HW2 8797   5.212   5.970   1.809  1.0045  1.4559  1.1585
 1287SOL     OW 8798  10.922   7.981   1.835 -0.0244  0.6119  0.0273
 1287SOL    HW1 8799  10.858   7.923   1.794  1.0312 -0.8275  0.3582
 1287SOL    HW2 8800  10.996   7.983   1.775  0.3025  0.9436  0.4293
 1288SOL     OW 8801   2.862   9.988  11.149 -0.2514  0.0066  0.7026
 1288SOL    HW1 8802   2.875   9.950  11.236 -0.6298  0.9123  1.1647
 1288SOL    HW2 8803   2.948  10.020  11.123  0.3956 -2.2994 -0.2801
 1289SOL     OW 8804   8.495   9.644   3.481  0.4748 -0.1245  0.2060
 1289SOL    HW1 8805   8.538   9.657   3.565  1.5457  0.5350 -0.4183
 1289SOL    HW2 8806   8.492   9.731   3.442  1.6513 -0.6754 -1.1976
 1290SOL     OW 8807   8.685   5.535   9.254 -0.2825 -0.1013  0.0457
 1290SOL    HW1 8808   8.733   5.607   9.295 -0.0224  0.2722 -0.8815
 1290SOL    HW2 8809   8.703   5.460   9.310  1.9375 -0.1276 -0.5876
 1291SOL     OW 8810  11.456  10.644   4.823  0.1343 -0.1228  0.7557
 1291SOL    HW1 8811  11.532  10.604   4.780 -1.2330 -0.7264 -1.2467
 1291SOL    HW2 8812  11.482  10.735   4.838  0.9441 -0.0593 -0.7941
 1292SOL     OW 8813   2.591   1.047   9.761 -0.1125 -0.1649  0.4618
 1292SOL    HW1 8814   2.543   0.964   9.763  0.8198 -0.7503 -0.3894
 1292SOL    HW2 8815   2.585   1.080   9.850 -1.6863 -0.4469  0.4889
 1293SOL     OW 8816   9.946   4.980   9.056 -0.0115 -0.6713 -0.0727
 1293SOL    HW1 8817   9.938   5.070   9.086  0.1302 -0.8946  0.6385
 1293SOL    HW2 8818  10.013   4.983   8.988 -0.5792 -0.1071 -0.6276
 1294SOL     OW 8819   7.005   4.604   0.656 -0.5004 -0.1956  0.0517
 1294SOL    HW1 8820   7.038   4.521   0.690  0.7328  0.2362 -0.0053
 1294SOL    HW2 8821   7.047   4.613   0.571 -0.8929  0.3162 -0.0920
 1295SOL     OW 8822   6.938   8.621   5.672 -0.6291 -0.7236 -0.1508
 1295SOL    HW1 8823   6.946   8.655   5.583  2.2764  0.7719  0.5335
 1295SOL    HW2 8824   6.862   8.665   5.709 -1.4445 -0.8377 -1.6619
 1296SOL     OW 8825   1.340   3.950   7.544  0.0667 -0.0721  0.0604
 1296SOL    HW1 8826   1.260   3.897   7.542  0.5841 -0.8553 -0.6245
 1296SOL    HW2 8827   1.410   3.888   7.524  0.8861  0.5418  0.9769
 1297SOL     OW 8828   1.647   8.976  11.371  0.6078 -0.4441 -0.2933
 1297SOL    HW1 8829   1.601   8.912  11.425  1.8144 -3.1053 -2.1970
 1297SOL    HW2 8830   1.737   8.943  11.366  0.7172  0.0240 -3.2709
 1298SOL     OW 8831   1.999   6.041   0.458 -0.1659 -0.4146 -0.7671
 1298SOL    HW1 8832   1.992   6.136   0.455 -0.5867 -0.3182  1.5854
 1298SOL    HW2 8833   1.922   6.009   0.412 -0.8273  0.3955 -0.2351
 1299SOL     OW 8834   4.309   5.894   6.953 -0.1224  0.4941 -0.1530
 1299SOL    HW1 8835   4.240   5.843   6.910  0.0664  0.8789 -0.9192
 1299SOL    HW2 8836   4.264   5.941   7.023 -0.0336 -2.0801  1.8045
 1300SOL     OW 8837   2.639   7.818   3.866 -0.4411 -0.1919 -0.0226
 1300SOL    HW1 8838   2.696   7.834   3.941 -2.5209 -1.4805  1.9399
 1300SOL    HW2 8839   2.672   7.737   3.827  0.8818  0.6858 -0.8085
 1301SOL     OW 8840   1.952  11.164  10.027 -0.6988  0.2920 -0.0387
 1301SOL    HW1 8841   1.947  11.090  10.087 -0.1102  0.8750  0.7661
 1301SOL    HW2 8842   1.873  11.215  10.044 -2.3766 -1.3296 -2.2995
 1302SOL     OW 8843   7.093   2.666   9.038  0.2562 -0.6960 -0.2576
 1302SOL    HW1 8844   7.111   2.575   9.063  0.5659 -0.7726 -0.7571
 1302SOL    HW2 8845   7.109   2.717   9.118  3.4827 -0.6422 -0.8247
 1303SOL     OW 8846   6.203   8.023  10.391 -0.6265 -0.0165 -0.0746
 1303SOL    HW1 8847   6.117   8.052  10.421 -0.2209 -0.8387  2.0307
 1303SOL    HW2 8848   6.224   7.948  10.446  1.1233 -0.2910 -1.0458
 1304SOL     OW 8849   0.703   4.694  10.022 -0.1467 -0.4073 -0.0027
 1304SOL    HW1 8850   0.745   4.780  10.021  0.5315 -0.7333 -0.0110
 1304SOL    HW2 8851   0.621   4.706   9.975  0.7474 -0.1692 -1.5590
 1305SOL     OW 8852   8.295   2.028   2.388  0.1839  0.0661  0.2764
 1305SOL    HW1 8853   8.311   1.986   2.303  0.4908 -1.2633  0.9679
 1305SOL    HW2 8854   8.243   2.106   2.367 -2.0771 -1.6392 -0.8824
 1306SOL     OW 8855   6.740   3.763   2.964  0.1509 -0.2913 -0.7034
 1306SOL    HW1 8856   6.773   3.717   3.041  1.6430  0.2692 -0.9670
 1306SOL    HW2 8857   6.806   3.830   2.946 -0.6360  0.1967 -1.9119
 1307SOL     OW 8858   2.911  10.620   4.629 -0.1784  0.0800  0.0031
 1307SOL    HW1 8859   2.847  10.557   4.598 -1.0974  1.5478 -1.2142
 1307SOL    HW2 8860   2.867  10.668   4.699  0.0828  0.1797  0.1028
 1308SOL     OW 8861  11.133   6.604   7.628  0.0077  0.2165  0.0201
 1308SOL    HW1 8862  11.182   6.534   7.670 -0.8789 -0.0044  0.7226
 1308SOL    HW2 8863  11.170   6.610   7.540  1.5536  0.3459  0.6540
 1309SOL     OW 8864   1.340   2.520  11.216  0.5575  0.1478 -0.0712
 1309SOL    HW1 8865   1.431   2.548  11.226  0.4607  1.1748 -1.6690
 1309SOL    HW2 8866   1.300   2.588  11.161 -1.3028 -0.0337  0.9636
 1310SOL     OW 8867   8.665  11.177  10.959  0.0908  0.0486  0.6213
 1310SOL    HW1 8868   8.740  11.185  10.900 -0.1068 -0.3111  0.3167
 1310SOL    HW2 8869   8.594  11.222  10.914 -0.7247 -2.2564 -0.5833
 1311SOL     OW 8870   6.178   4.795   2.776  0.2613 -0.3770  0.0988
 1311SOL    HW1 8871   6.180   4.798   2.680 -0.9947  0.7429  0.0807
 1311SOL    HW2 8872   6.172   4.701   2.796 -1.7798 -0.5547 -1.0264
 1312SOL     OW 8873   1.779   6.937   0.410 -0.5323 -0.7064  0.7441
 1312SOL    HW1 8874   1.857   6.899   0.450 -0.4504 -1.6798 -0.2974
 1312SOL    HW2 8875   1.751   7.005   0.472  1.1861 -0.2674  1.0897
 1313SOL     OW 8876   7.906   3.492  11.146  0.1194 -0.0821  0.3277
 1313SOL    HW1 8877   7.921   3.586  11.136  0.6026 -0.1945 -0.0346
 1313SOL    HW2 8878   7.831   3.474  11.090 -0.7055  0.2818  1.2719
 1314SOL     OW 8879   9.636  10.531   4.164  0.7641  0.0700 -0.7578
 1314SOL    HW1 8880   9.629  10.479   4.084  0.7237 -0.2696 -0.5361
 1314SOL    HW2 8881   9.600  10.474   4.233  0.1542  0.6196 -0.6098
 1315SOL     OW 8882   9.991  11.463   8.901  0.2306  0.6140  0.0169
 1315SOL    HW1 8883   9.962  11.553   8.913 -0.4658  0.5287 -0.9093
 1315SOL    HW2 8884   9.936  11.429   8.830  0.5682 -0.4969  0.2595
 1316SOL     OW 8885   9.450   9.041   7.907  0.3851  1.1127 -0.4959
 1316SOL    HW1 8886   9.381   9.025   7.972  1.3379  0.9294  0.4893
 1316SOL    HW2 8887   9.431   9.128   7.872  0.9569  2.0812  1.4537
 1317SOL     OW 8888   0.051   7.000   2.969  0.7224  0.7576  0.6924
 1317SOL    HW1 8889   0.095   6.928   2.924  2.4332  2.1350  0.0277
 1317SOL    HW2 8890  -0.024   6.959   3.013  2.0854 -1.5732  1.0392
 1318SOL     OW 8891   6.146  11.237   6.800  0.2040 -0.6499 -0.2942
 1318SOL    HW1 8892   6.072  11.177   6.796  0.5925 -1.2634  1.1799
 1318SOL    HW2 8893   6.154  11.261   6.892 -1.0250  3.1268 -1.0041
 1319SOL     OW 8894   2.090   8.258  10.877 -0.6654  0.1226  0.0340
 1319SOL    HW1 8895   2.114   8.334  10.930  1.1057 -1.2414  1.3206
 1319SOL    HW2 8896   2.149   8.188  10.907  0.7075 -0.7074 -3.9975
 1320SOL     OW 8897   5.374  11.247   6.746 -0.9257 -0.0470  0.5498
 1320SOL    HW1 8898   5.280  11.246   6.728 -0.8004  0.6049 -0.1967
 1320SOL    HW2 8899   5.391  11.335   6.780 -0.3844  0.2780 -0.5169
 1321SOL     OW 8900   8.146   9.130   7.046 -0.2799 -0.0491  0.4620
 1321SOL    HW1 8901   8.219   9.151   7.104  0.1011 -0.7548  0.2499
 1321SOL    HW2 8902   8.185   9.079   6.975 -1.1784 -1.5917  1.0217
 1322SOL     OW 8903   9.920   1.744   6.592 -0.1520  0.1804  0.2873
 1322SOL    HW1 8904   9.884   1.735   6.504  0.1547  0.9382  0.0747
 1322SOL    HW2 8905  10.002   1.695   6.589 -0.1977  0.1103  0.1796
 1323SOL     OW 8906   2.478   7.882   7.575  0.1953 -0.2980  0.0557
 1323SOL    HW1 8907   2.516   7.818   7.516  0.6590 -0.2486  0.3004
 1323SOL    HW2 8908   2.535   7.882   7.651 -0.1403 -0.0268  0.3116
 1324SOL     OW 8909   7.878   4.558   3.396 -0.2479 -0.0227 -0.0689
 1324SOL    HW1 8910   7.948   4.596   3.342 -0.6405 -0.4511 -0.9020
 1324SOL    HW2 8911   7.924   4.504   3.460  0.1750 -0.5443 -0.8013
 1325SOL     OW 8912   4.277   2.157   0.889 -0.1196 -0.1419 -0.3582
 1325SOL    HW1 8913   4.266   2.213   0.812  2.6929  2.4952  0.9411
 1325SOL    HW2 8914   4.356   2.106   0.872  1.0031  1.0487  0.9820
 1326SOL     OW 8915   2.468   7.542   0.958 -0.2026  0.1613 -0.3969
 1326SOL    HW1 8916   2.380   7.553   0.922 -0.1884  0.7428 -0.2591
 1326SOL    HW2 8917   2.511   7.626   0.943 -0.8408  1.1751  2.7472
 1327SOL     OW 8918  11.285   9.618   7.807  0.2069 -0.1260 -0.1513
 1327SOL    HW1 8919  11.355   9.591   7.867 -0.6722 -1.3468  0.3670
 1327SOL    HW2 8920  11.204   9.607   7.858 -0.4547  0.1627 -1.1084
 1328SOL     OW 8921   0.742   3.844   1.170  0.1780  0.4911 -0.2020
 1328SOL    HW1 8922   0.686   3.819   1.096  0.5233 -0.4087 -0.1785
 1328SOL    HW2 8923   0.722   3.780   1.238  2.7011 -1.2427 -0.9154
 1329SOL     OW 8924   0.766   1.434   5.180  0.1785 -0.5225  0.4460
 1329SOL    HW1 8925   0.749   1.461   5.090 -0.4083 -2.3818 -0.0439
 1329SOL    HW2 8926   0.837   1.491   5.210 -0.4181  0.8976 -0.7791
 1330SOL     OW 8927   9.528   1.978   9.866  0.0269  0.2376  0.5023
 1330SOL    HW1 8928   9.592   2.041   9.834  0.0478 -0.8031 -1.7127
 1330SOL    HW2 8929   9.554   1.895   9.826 -2.6475 -0.2280 -0.5023
 1331SOL     OW 8930  10.186  11.208   9.727  0.3463 -0.2112  0.4712
 1331SOL    HW1 8931  10.221  11.245   9.808  1.1518 -0.5390  0.2803
 1331SOL    HW2 8932  10.101  11.172   9.752  0.5138 -0.1589  1.1382
 1332SOL     OW 8933   2.728  11.052   7.679 -0.0047  0.3238  0.0419
 1332SOL    HW1 8934   2.751  11.012   7.762 -0.6309 -1.9709 -0.8169
 1332SOL    HW2 8935   2.794  11.020   7.618 -0.7551  0.2858 -0.7691
 1333SOL     OW 8936   7.238   2.961   0.975 -0.2621 -0.1840 -0.3533
 1333SOL    HW1 8937   7.272   2.938   1.062 -1.2090 -1.1367 -0.2128
 1333SOL    HW2 8938   7.149   2.991   0.991 -0.6442 -0.9133 -1.0466
 1334SOL     OW 8939   9.108   3.261   9.348 -0.1926 -0.4521 -0.4177
 1334SOL    HW1 8940   9.138   3.248   9.438  0.9609 -0.3634 -0.7646
 1334SOL    HW2 8941   9.095   3.355   9.340 -0.5928 -0.4931 -0.2583
 1335SOL     OW 8942   7.238   4.490   0.184  0.5973  0.0398 -0.0780
 1335SOL    HW1 8943   7.291   4.569   0.180  1.2264 -0.2022  2.0906
 1335SOL    HW2 8944   7.149   4.519   0.163  0.9356  1.1870  0.0299
 1336SOL     OW 8945   5.134   2.401   7.753 -0.2612 -0.0208  0.1974
 1336SOL    HW1 8946   5.193   2.330   7.778 -0.6902 -0.6457 -0.5360
 1336SOL    HW2 8947   5.092   2.371   7.673 -3.3234 -0.6444  1.8819
 1337SOL     OW 8948   5.018   9.782   7.429  0.0318  0.4199  0.3913
 1337SOL    HW1 8949   4.979   9.738   7.353 -0.9934  1.7838  0.0817
 1337SOL    HW2 8950   5.052   9.865   7.394  2.8965 -0.4887  0.7415
 1338SOL     OW 8951  11.597   5.025  11.585 -0.4060  1.0052 -0.6162
 1338SOL    HW1 8952  11.593   4.938  11.546  1.5651  1.2004 -1.3540
 1338SOL    HW2 8953  11.516   5.033  11.635 -0.7419 -1.1339 -0.7515
 1339SOL     OW 8954   6.839   9.740  11.073 -0.3893  0.4078  0.0863
 1339SOL    HW1 8955   6.772   9.770  11.011 -0.7656 -0.2626  0.1588
 1339SOL    HW2 8956   6.885   9.671  11.026 -1.4745 -0.9643  0.9682
 1340SOL     OW 8957  11.187   4.235   5.266  0.4072  0.2681  0.0306
 1340SOL    HW1 8958  11.144   4.263   5.347 -1.0684 -0.0589 -0.6286
 1340SOL    HW2 8959  11.124   4.177   5.223  1.2704  0.2332 -1.2406
 1341SOL     OW 8960   8.841   9.022   4.919 -0.2025  0.3787 -0.3256
 1341SOL    HW1 8961   8.878   9.019   5.008 -1.7339 -0.2514  0.3222
 1341SOL    HW2 8962   8.802   9.109   4.913 -0.2161  0.3723 -0.3346
 1342SOL     OW 8963   2.537   3.038   6.027  0.5192  0.4269 -0.5654
 1342SOL    HW1 8964   2.529   3.124   5.985  0.4749  1.6891  1.8026
 1342SOL    HW2 8965   2.449   3.020   6.060  1.2953  1.5919  2.5672
 1343SOL     OW 8966  11.407   6.729   9.156 -0.0258  0.0864  0.1653
 1343SOL    HW1 8967  11.342   6.734   9.227  0.1591 -0.3446  0.3691
 1343SOL    HW2 8968  11.367   6.669   9.093 -0.3368  0.7261 -0.2539
 1344SOL     OW 8969  11.307   7.715  11.594 -0.3131 -0.4486  0.2180
 1344SOL    HW1 8970  11.380   7.726  11.533 -0.7201 -0.5944 -0.2950
 1344SOL    HW2 8971  11.234   7.761  11.553 -0.8356 -1.3182  0.1533
 1345SOL     OW 8972  10.761   3.632   1.917  0.3199  0.0689  0.0369
 1345SOL    HW1 8973  10.778   3.725   1.905 -0.6095  0.1939 -0.3802
 1345SOL    HW2 8974  10.666   3.624   1.915  0.4030 -1.0547 -1.3544
 1346SOL     OW 8975   7.035  11.157   9.648  0.0133  0.5760 -0.2913
 1346SOL    HW1 8976   7.012  11.187   9.561 -0.3646  0.9241 -0.0742
 1346SOL    HW2 8977   7.085  11.229   9.686 -2.6836  1.9155  1.0087
 1347SOL     OW 8978   0.499  11.443   0.171  0.0361  0.1593 -0.2800
 1347SOL    HW1 8979   0.425  11.490   0.208  0.0355  0.4405 -0.6333
 1347SOL    HW2 8980   0.548  11.411   0.247 -0.6669 -0.3832 -0.0476
 1348SOL     OW 8981   4.616   6.087   0.246 -0.1397 -0.2979 -0.0649
 1348SOL    HW1 8982   4.535   6.036   0.240  0.1639 -0.8550  0.5699
 1348SOL    HW2 8983   4.623   6.110   0.338  0.4460 -0.2724 -0.1144
 1349SOL     OW 8984   5.175   6.682   7.935  0.0709  0.4471  0.5726
 1349SOL    HW1 8985   5.188   6.688   8.029 -0.2594  0.8896  0.5899
 1349SOL    HW2 8986   5.092   6.726   7.919 -1.9970 -3.0950  0.5688
 1350SOL     OW 8987   4.387   8.249   6.118  0.2666 -0.5712 -0.3379
 1350SOL    HW1 8988   4.311   8.249   6.059  0.4667 -0.0751 -0.6008
 1350SOL    HW2 8989   4.367   8.181   6.182 -0.1537 -0.8191 -0.7228
 1351SOL     OW 8990  10.710   2.198  11.645 -0.4315 -0.2463 -0.2660
 1351SOL    HW1 8991  10.713   2.269  11.581  2.7260 -0.7826 -0.8740
 1351SOL    HW2 8992  10.736   2.120  11.595 -1.5686 -1.4223  0.8951
 1352SOL     OW 8993   3.909   6.417   1.535  0.4355  0.3670 -0.0353
 1352SOL    HW1 8994   3.985   6.375   1.577 -0.3805  0.4535  1.5882
 1352SOL    HW2 8995   3.947   6.482   1.477  1.6788 -1.2726 -1.1628
 1353SOL     OW 8996   1.866   6.201  11.591 -0.2019  0.4283 -0.3190
 1353SOL    HW1 8997   1.848   6.272  11.530  0.8486  0.5036 -0.5752
 1353SOL    HW2 8998   1.961   6.204  11.604  0.1247 -1.8407 -1.5167
 1354SOL     OW 8999   5.196   4.734  11.597  0.0997 -0.3241 -0.4392
 1354SOL    HW1 9000   5.203   4.643  11.629  1.4775  0.0890  0.5688
 1354SOL    HW2 9001   5.186   4.726  11.503  1.1004 -1.5366 -0.4719
 1355SOL     OW 9002   6.767   2.759   5.911  0.7673 -0.0642  0.6805
 1355SOL    HW1 9003   6.713   2.689   5.947  0.4979 -0.2856 -0.1341
 1355SOL    HW2 9004   6.856   2.724   5.910  0.6188 -0.4485  0.1766
 1356SOL     OW 9005   8.833  11.687   6.768  0.3652  0.6109 -0.0141
 1356SOL    HW1 9006   8.865  11.597   6.758 -0.2076  0.1771  1.6871
 1356SOL    HW2 9007   8.912  11.741   6.771  0.9050 -0.2154  2.0440
 1357SOL     OW 9008   9.554  10.411   7.546 -0.1707 -0.9657  0.0581
 1357SOL    HW1 9009   9.498  10.360   7.605 -0.9771  2.0964  2.1822
 1357SOL    HW2 9010   9.525  10.385   7.458 -1.9062 -2.6217  1.0400
 1358SOL     OW 9011   5.089   9.526   6.318 -0.7711 -0.2309 -0.7385
 1358SOL    HW1 9012   5.108   9.543   6.410 -2.0218  2.6139 -0.8840
 1358SOL    HW2 9013   5.003   9.486   6.318 -0.1840 -1.5427 -0.6527
 1359SOL     OW 9014   6.146   8.899  11.657 -0.4277  0.1453  0.2933
 1359SOL    HW1 9015   6.135   8.873  11.748 -0.1963 -0.5712  0.1278
 1359SOL    HW2 9016   6.229   8.947  11.656  0.5493 -1.4600  0.1623
 1360SOL     OW 9017   5.753   5.897   8.850  0.3867  0.3367 -0.2381
 1360SOL    HW1 9018   5.704   5.972   8.883 -2.0622 -0.7464 -1.1880
 1360SOL    HW2 9019   5.752   5.908   8.755 -1.4370 -1.6695 -0.5081
 1361SOL     OW 9020   5.820  11.610   3.134  0.1976  0.6384 -0.0057
 1361SOL    HW1 9021   5.809  11.632   3.041  2.6571  0.6921 -0.3421
 1361SOL    HW2 9022   5.731  11.598   3.166 -0.6877 -1.1338 -2.7947
 1362SOL     OW 9023  10.205   8.643   9.316 -0.4971  0.8192  0.5390
 1362SOL    HW1 9024  10.145   8.717   9.325 -2.3186 -0.6115  0.8778
 1362SOL    HW2 9025  10.286   8.672   9.359 -1.0217  2.7056  0.3520
 1363SOL     OW 9026   6.931   0.884   5.878  0.5073  0.5075  0.0109
 1363SOL    HW1 9027   7.011   0.865   5.925  1.2460  0.3773 -1.2521
 1363SOL    HW2 9028   6.950   0.964   5.828 -0.6050  1.2541  0.7367
 1364SOL     OW 9029   6.639   9.877   7.994 -0.2052 -0.2088  0.4972
 1364SOL    HW1 9030   6.673   9.889   8.083  0.4206 -1.9557  0.5269
 1364SOL    HW2 9031   6.585   9.955   7.979  3.1028  2.3733  0.7337
 1365SOL     OW 9032   0.055   8.453   3.741  0.0826  0.8335 -0.2360
 1365SOL    HW1 9033   0.106   8.526   3.706 -0.3368  1.2171 -0.0566
 1365SOL    HW2 9034   0.121   8.387   3.764  0.4199  0.9126 -0.9455
 1366SOL     OW 9035   5.002   6.194   2.068 -0.4989  0.3803  0.1031
 1366SOL    HW1 9036   5.063   6.130   2.106 -0.8679  0.7423  1.3487
 1366SOL    HW2 9037   4.945   6.141   2.012  0.2637 -0.1213 -0.2288
 1367SOL     OW 9038   5.644   9.053  10.398  0.3114 -0.1663 -0.2190
 1367SOL    HW1 9039   5.636   9.138  10.442 -1.3675 -0.8441  0.8647
 1367SOL    HW2 9040   5.559   9.041  10.354  0.5113 -1.3115 -0.3121
 1368SOL     OW 9041   0.007   1.019   0.524 -0.2242  0.3603  0.1246
 1368SOL    HW1 9042   0.085   0.964   0.533  0.0419  0.6023 -0.5748
 1368SOL    HW2 9043  -0.057   0.962   0.481 -0.9840 -0.3271  2.0699
 1369SOL     OW 9044   4.357   6.925  11.383  0.2763 -0.1857 -0.1052
 1369SOL    HW1 9045   4.369   7.005  11.332 -0.3241 -0.7758 -1.1945
 1369SOL    HW2 9046   4.264   6.924  11.405  0.5787  0.2077  1.2826
 1370SOL     OW 9047   1.346   2.730   2.715 -0.3920 -0.8018  0.2130
 1370SOL    HW1 9048   1.318   2.749   2.625  0.7840 -2.2894 -0.5050
 1370SOL    HW2 9049   1.427   2.780   2.726 -1.5025  0.8787  1.1436
 1371SOL     OW 9050   3.897   1.579   1.688 -0.2518 -0.4295 -0.3463
 1371SOL    HW1 9051   3.961   1.626   1.742 -0.3450 -1.5343  0.7578
 1371SOL    HW2 9052   3.946   1.504   1.654  0.1011  0.7668 -2.6825
 1372SOL     OW 9053  10.458   6.406   2.020  0.3039  0.4473  0.2420
 1372SOL    HW1 9054  10.365   6.384   2.024  0.2923  0.6492  2.9539
 1372SOL    HW2 9055  10.460   6.496   1.987 -0.3826  0.1820 -0.5604
 1373SOL     OW 9056   5.775   6.609   0.785  0.3674 -0.3215 -0.1959
 1373SOL    HW1 9057   5.771   6.697   0.749  0.2327  0.1754  0.9892
 1373SOL    HW2 9058   5.864   6.579   0.767  1.3092  1.1221  1.7526
 1374SOL     OW 9059   2.862   0.473   4.801 -0.2486 -0.0028 -0.1923
 1374SOL    HW1 9060   2.880   0.414   4.728 -1.1780 -0.3676 -0.1494
 1374SOL    HW2 9061   2.907   0.554   4.778  0.1789 -0.3936 -0.7566
 1375SOL     OW 9062  11.326  10.046   2.982  0.1298 -0.6078  0.0409
 1375SOL    HW1 9063  11.372  10.111   3.034  0.2874 -1.0702  0.4889
 1375SOL    HW2 9064  11.239  10.041   3.023  0.5957 -1.7308  0.9319
 1376SOL     OW 9065   6.208   0.505   8.046  0.4978  0.3202 -0.2446
 1376SOL    HW1 9066   6.265   0.527   7.972  0.8430 -0.4969 -0.2343
 1376SOL    HW2 9067   6.119   0.508   8.010  0.3300  3.3733  0.1559
 1377SOL     OW 9068   1.608   6.966   3.456  0.6092 -0.8588  0.1370
 1377SOL    HW1 9069   1.601   7.023   3.379  1.3776 -0.8613  0.0579
 1377SOL    HW2 9070   1.679   7.005   3.507 -0.3501 -0.4517  1.1994
 1378SOL     OW 9071   0.834   6.093   6.338 -0.3902  0.1210 -0.2020
 1378SOL    HW1 9072   0.807   6.159   6.274 -2.6940  0.7274  1.2754
 1378SOL    HW2 9073   0.754   6.072   6.386  0.6520 -2.4676  0.5703
 1379SOL     OW 9074   6.709   7.894   7.690  0.3361 -0.5629  0.0791
 1379SOL    HW1 9075   6.772   7.832   7.654  0.2567  0.7717 -2.6158
 1379SOL    HW2 9076   6.654   7.918   7.616 -0.0834  2.1732  1.1594
 1380SOL     OW 9077  11.594  10.848   2.874 -0.2450  0.4073  0.2326
 1380SOL    HW1 9078  11.666  10.800   2.916 -0.0755 -0.9545 -1.5036
 1380SOL    HW2 9079  11.515  10.816   2.918  0.1031  1.0078  1.3227
 1381SOL     OW 9080   3.561   6.805   7.336 -0.1550  0.4987 -0.0761
 1381SOL    HW1 9081   3.632   6.796   7.399  0.7438  2.1646 -0.7786
 1381SOL    HW2 9082   3.524   6.717   7.328  0.9558 -0.1328  1.2876
 1382SOL     OW 9083   9.393   7.231   9.290 -0.2497 -0.1709  0.0359
 1382SOL    HW1 9084   9.417   7.164   9.355 -0.8566 -0.4855 -0.0546
 1382SOL    HW2 9085   9.340   7.184   9.226  1.4802 -0.1640 -1.4521
 1383SOL     OW 9086   1.354   4.056   7.857 -0.5986  0.8653  0.0771
 1383SOL    HW1 9087   1.426   3.993   7.867  0.2127  1.9310  1.3370
 1383SOL    HW2 9088   1.358   4.081   7.765  1.5233  1.8575  0.3723
 1384SOL     OW 9089   1.507   3.086  10.315 -0.2996  0.2927  0.1518
 1384SOL    HW1 9090   1.481   2.999  10.284 -1.3274  0.6352  0.0168
 1384SOL    HW2 9091   1.475   3.090  10.406 -1.5423  1.0420 -0.2960
 1385SOL     OW 9092   2.177   8.147   4.590  0.0728 -0.0712  0.4803
 1385SOL    HW1 9093   2.258   8.108   4.556  0.5977  0.9972  0.4469
 1385SOL    HW2 9094   2.110   8.123   4.527  1.1507  2.4757 -1.8067
 1386SOL     OW 9095   7.925   4.939   6.764 -0.2485  0.1752 -0.0298
 1386SOL    HW1 9096   7.838   4.978   6.772 -0.3156  0.3957 -1.5058
 1386SOL    HW2 9097   7.952   4.922   6.854 -2.8324 -2.2349  0.4312
 1387SOL     OW 9098   7.830   7.766   6.774 -0.0618 -0.0948  0.3439
 1387SOL    HW1 9099   7.850   7.854   6.806  0.0665 -0.6211  1.7479
 1387SOL    HW2 9100   7.916   7.730   6.749 -0.2029  0.4598 -1.0727
 1388SOL     OW 9101   8.997   7.639   4.244 -0.0457 -0.0221 -0.0480
 1388SOL    HW1 9102   8.987   7.549   4.212  0.5230 -0.1195  0.0374
 1388SOL    HW2 9103   8.912   7.660   4.283 -0.4977 -0.1759 -0.9236
 1389SOL     OW 9104   0.615  10.431  11.545 -0.2821 -0.0265 -0.2193
 1389SOL    HW1 9105   0.675  10.356  11.553  0.7849  0.6947 -1.1836
 1389SOL    HW2 9106   0.658  10.500  11.596 -0.8815  0.1667  0.0299
 1390SOL     OW 9107   7.505   0.888   4.512 -0.1381  0.0197  0.0461
 1390SOL    HW1 9108   7.574   0.833   4.475  0.4215  0.8207 -0.1140
 1390SOL    HW2 9109   7.453   0.915   4.436  0.8771  1.4780 -0.1723
 1391SOL     OW 9110   5.250   8.977   7.159  0.9726  0.0747 -0.1948
 1391SOL    HW1 9111   5.282   9.058   7.199  1.1791 -1.8131  3.9806
 1391SOL    HW2 9112   5.329   8.933   7.128  1.6034 -0.7232  2.2862
 1392SOL     OW 9113   0.897   3.494   3.990  0.0360  0.0442 -0.1104
 1392SOL    HW1 9114   0.977   3.458   4.027 -0.0158 -0.3265 -0.3513
 1392SOL    HW2 9115   0.832   3.483   4.059 -0.8803 -3.6137 -1.3239
 1393SOL     OW 9116   0.143   1.192   9.227 -0.3165 -0.1300 -0.1140
 1393SOL    HW1 9117   0.216   1.253   9.236  0.0118 -0.7843  2.2042
 1393SOL    HW2 9118   0.066   1.245   9.249 -0.0352 -0.4784  1.8731
 1394SOL     OW 9119   5.309   1.751   7.594 -0.7847 -0.3943  0.0325
 1394SOL    HW1 9120   5.299   1.804   7.673  1.7153  0.8480 -0.3879
 1394SOL    HW2 9121   5.226   1.763   7.547 -0.3729  3.3268 -0.0651
 1395SOL     OW 9122   6.343  10.058   3.484  0.7813 -0.4026 -0.0272
 1395SOL    HW1 9123   6.253  10.056   3.453  1.3418 -1.9089 -1.6767
 1395SOL    HW2 9124   6.346   9.994   3.555  0.4765 -0.0367  0.3230
 1396SOL     OW 9125   1.131  10.584   2.032  0.0343  0.0979 -0.0745
 1396SOL    HW1 9126   1.068  10.641   2.077  1.3420  1.2393  0.3797
 1396SOL    HW2 9127   1.118  10.498   2.071  1.7445  1.2002  3.3172
 1397SOL     OW 9128   7.858   4.032  11.579 -0.4545 -0.0265 -0.7928
 1397SOL    HW1 9129   7.768   4.008  11.601 -0.1912  1.2567  2.2162
 1397SOL    HW2 9130   7.911   3.964  11.622  0.0456  1.4199  1.0079
 1398SOL     OW 9131   2.318   5.643   1.694 -0.2154  0.4563  0.2232
 1398SOL    HW1 9132   2.260   5.710   1.656 -0.2440 -0.3274 -1.1823
 1398SOL    HW2 9133   2.299   5.564   1.643  1.0611 -0.1861  0.7146
 1399SOL     OW 9134  10.491   3.225   9.958 -0.3257  0.3615  0.8259
 1399SOL    HW1 9135  10.517   3.271   9.877 -0.5315  0.4628  0.8155
 1399SOL    HW2 9136  10.566   3.169   9.979 -0.3544  0.1783  0.4489
 1400SOL     OW 9137   7.483   9.179   7.693  0.3862  0.2279  0.1554
 1400SOL    HW1 9138   7.418   9.195   7.625  0.5592  0.3774  0.0265
 1400SOL    HW2 9139   7.486   9.084   7.702 -2.0863  0.2238  2.2905
 1401SOL     OW 9140   2.759   1.244  10.063 -0.2189 -0.1787 -0.6153
 1401SOL    HW1 9141   2.826   1.249   9.995  0.8494 -0.2057  0.4049
 1401SOL    HW2 9142   2.778   1.163  10.110  0.2899  0.8089  0.9390
 1402SOL     OW 9143   6.170   5.577   7.476  0.4260 -0.1299 -0.1086
 1402SOL    HW1 9144   6.158   5.632   7.554 -0.9177 -1.2874  0.5396
 1402SOL    HW2 9145   6.256   5.536   7.490  0.1606 -0.3953  0.8232
 1403SOL     OW 9146   2.687   5.427   5.774 -0.1320 -0.5371  0.2664
 1403SOL    HW1 9147   2.711   5.334   5.777  0.6116 -0.3437  0.6260
 1403SOL    HW2 9148   2.670   5.450   5.865  0.7246 -0.0724  0.3220
 1404SOL     OW 9149   2.495   2.168   7.746  0.2916 -0.0398  0.6440
 1404SOL    HW1 9150   2.415   2.116   7.743  1.2045 -1.4844  0.1452
 1404SOL    HW2 9151   2.480   2.232   7.816 -2.1158  1.1747 -0.8367
 1405SOL     OW 9152   2.848   0.613   3.141  0.2966 -0.2422  0.2613
 1405SOL    HW1 9153   2.831   0.523   3.169  1.9124 -0.7204 -0.2305
 1405SOL    HW2 9154   2.901   0.604   3.062  0.7929  1.1552  0.4137
 1406SOL     OW 9155   3.117   7.137  11.480  0.2685  0.0624 -0.1582
 1406SOL    HW1 9156   3.161   7.163  11.399 -0.2060  3.7143  0.5768
 1406SOL    HW2 9157   3.028   7.169  11.470 -0.3258 -1.1165  1.0865
 1407SOL     OW 9158   8.528   7.349   0.462 -0.3832 -0.5144 -0.2948
 1407SOL    HW1 9159   8.569   7.412   0.522 -2.6367  0.0802  0.7322
 1407SOL    HW2 9160   8.549   7.263   0.499  1.5177 -0.3461 -0.8995
 1408SOL     OW 9161   8.131   8.597   9.817  0.1454  0.3396 -0.0965
 1408SOL    HW1 9162   8.081   8.517   9.834  0.8105 -0.2939 -1.0377
 1408SOL    HW2 9163   8.086   8.664   9.868 -0.0484 -0.7497  1.2377
 1409SOL     OW 9164   5.344  10.179  11.061 -0.6539  0.1174  0.5795
 1409SOL    HW1 9165   5.305  10.248  11.009 -0.4971 -1.0994 -1.2265
 1409SOL    HW2 9166   5.409  10.223  11.116 -0.8267  1.4405 -0.2498
 1410SOL     OW 9167   8.947   7.393  11.430 -0.6489 -0.1493 -0.0239
 1410SOL    HW1 9168   8.976   7.310  11.392 -0.4036 -0.1319  0.1186
 1410SOL    HW2 9169   8.868   7.416  11.382 -0.5078 -0.2778 -0.3192
 1411SOL     OW 9170  10.751   9.013   6.216 -0.5270 -0.3969  0.3302
 1411SOL    HW1 9171  10.727   8.946   6.280 -0.1297 -0.6653  0.2030
 1411SOL    HW2 9172  10.677   9.015   6.155 -0.5209 -0.7647  0.3044
 1412SOL     OW 9173  11.519  10.481   8.414 -0.0346  0.3338  0.3353
 1412SOL    HW1 9174  11.563  10.421   8.355 -3.6026 -0.2449 -2.0696
 1412SOL    HW2 9175  11.574  10.559   8.416  1.9274 -0.9404 -0.9588
 1413SOL     OW 9176   7.345   1.509   6.640 -0.0559  0.1006 -0.3500
 1413SOL    HW1 9177   7.270   1.547   6.685  0.2070  0.0997  0.0895
 1413SOL    HW2 9178   7.329   1.415   6.641 -0.8004  0.1811 -1.6033
 1414SOL     OW 9179  11.609   8.408   5.980 -0.3037 -0.0303  0.4507
 1414SOL    HW1 9180  11.679   8.468   6.009 -0.2792 -0.1233  0.5841
 1414SOL    HW2 9181  11.536   8.466   5.958  0.1287  0.1358 -0.5874
 1415SOL     OW 9182   8.909   8.300   4.787 -0.1371 -0.1838 -0.3230
 1415SOL    HW1 9183   8.938   8.378   4.739 -0.0245  1.8831  2.8265
 1415SOL    HW2 9184   8.989   8.249   4.800  0.2175  0.3422 -0.4094
 1416SOL     OW 9185   5.430   3.256   5.991 -0.5363  0.1413  0.2355
 1416SOL    HW1 9186   5.435   3.170   6.033  0.2102  0.4160  0.7156
 1416SOL    HW2 9187   5.513   3.299   6.012 -0.7164  0.8155 -0.3707
 1417SOL     OW 9188   4.948  11.362   4.110 -0.4839  0.0386 -0.0319
 1417SOL    HW1 9189   4.949  11.449   4.151  1.2799 -0.8878  2.0835
 1417SOL    HW2 9190   4.990  11.375   4.025 -2.3990  1.6378 -0.8261
 1418SOL     OW 9191   9.236   8.698   9.802  0.7611 -0.0637 -0.5250
 1418SOL    HW1 9192   9.217   8.605   9.788  1.2630 -0.3630  0.7065
 1418SOL    HW2 9193   9.152   8.742   9.784 -0.3481 -1.0658  1.8227
 1419SOL     OW 9194  11.386   3.990   4.621  0.0982  0.1178 -0.0850
 1419SOL    HW1 9195  11.362   4.042   4.698 -0.4636 -1.1160  0.5948
 1419SOL    HW2 9196  11.350   3.903   4.638  0.0719 -0.2163 -1.6909
 1420SOL     OW 9197   5.767   1.778   9.747  0.3139 -0.2094 -0.0598
 1420SOL    HW1 9198   5.760   1.771   9.652  1.6580 -0.6166 -0.1542
 1420SOL    HW2 9199   5.857   1.751   9.766  0.0858 -0.0628  1.3229
 1421SOL     OW 9200   0.949   7.223   6.004  0.2606 -0.4748 -0.3508
 1421SOL    HW1 9201   0.865   7.262   6.026  0.4086 -0.5199  0.3152
 1421SOL    HW2 9202   1.002   7.233   6.084  0.7099 -0.9126 -0.5862
 1422SOL     OW 9203   7.939   8.713   9.043 -0.2189  0.2779 -0.5363
 1422SOL    HW1 9204   7.890   8.776   9.096 -1.5091 -0.5792 -0.6518
 1422SOL    HW2 9205   7.928   8.745   8.953  2.3257  1.9726 -0.3413
 1423SOL     OW 9206   7.046   4.625  10.646 -0.1023  0.2078 -0.1565
 1423SOL    HW1 9207   7.125   4.587  10.607 -1.0446 -0.0009 -1.9897
 1423SOL    HW2 9208   7.064   4.719  10.651  1.1448 -0.0742  1.7327
 1424SOL     OW 9209   4.378   8.626  11.447  0.5855 -0.3216 -0.4284
 1424SOL    HW1 9210   4.464   8.666  11.452  0.8911 -0.9718 -0.3726
 1424SOL    HW2 9211   4.368   8.579  11.530 -0.0110  0.1218 -0.2451
 1425SOL     OW 9212   5.388   3.190   6.506 -0.4122 -0.0437  0.3146
 1425SOL    HW1 9213   5.388   3.273   6.552 -0.9394 -0.0334  0.3015
 1425SOL    HW2 9214   5.345   3.129   6.566  1.2308 -0.6575  0.9299
 1426SOL     OW 9215   6.941   4.087   9.591  0.2224  0.3896  0.2648
 1426SOL    HW1 9216   6.958   3.995   9.573  0.8631  0.8724 -1.8681
 1426SOL    HW2 9217   6.845   4.093   9.598  0.2007 -0.4843  0.8508
 1427SOL     OW 9218   9.897  10.406   0.643  0.3419 -0.0403  0.1472
 1427SOL    HW1 9219   9.826  10.433   0.701  1.6090  2.5539  0.6909
 1427SOL    HW2 9220   9.862  10.334   0.592 -1.9944 -0.1103  1.7172
 1428SOL     OW 9221   2.895   6.581  10.629  0.6088 -0.0189  0.9451
 1428SOL    HW1 9222   2.977   6.543  10.597  0.2265  0.7718 -1.1218
 1428SOL    HW2 9223   2.889   6.666  10.586 -1.8073 -0.5144  0.1174
 1429SOL     OW 9224   9.467   7.589   5.403 -0.3377  0.3742 -0.2798
 1429SOL    HW1 9225   9.463   7.581   5.498 -1.0954 -0.4510 -0.3676
 1429SOL    HW2 9226   9.479   7.500   5.371 -1.5589  0.4389 -1.0085
 1430SOL     OW 9227   6.689   9.964   2.474  0.1509  0.6258  0.7848
 1430SOL    HW1 9228   6.633   9.889   2.495  1.9637 -0.7302  1.0415
 1430SOL    HW2 9229   6.694   9.965   2.379 -1.9909  2.0957  0.6413
 1431SOL     OW 9230   5.536   9.298   5.910  0.2035  0.2330  0.4545
 1431SOL    HW1 9231   5.611   9.285   5.852  0.7120  1.7764  0.7129
 1431SOL    HW2 9232   5.534   9.393   5.925 -1.2791  0.1161  1.1521
 1432SOL     OW 9233   5.471   2.213   0.640 -0.2440  0.1998 -0.2849
 1432SOL    HW1 9234   5.487   2.134   0.693 -0.2651  0.5071  0.1924
 1432SOL    HW2 9235   5.447   2.179   0.554 -0.3484 -0.3196 -0.0607
 1433SOL     OW 9236   6.884   7.213   1.910  0.3397  0.0765  0.1883
 1433SOL    HW1 9237   6.979   7.208   1.896  0.2768  0.7238 -0.4848
 1433SOL    HW2 9238   6.872   7.289   1.967  0.3238 -0.7616  1.3413
 1434SOL     OW 9239   5.089  10.343   6.858  0.0225 -0.3382 -0.0474
 1434SOL    HW1 9240   5.127  10.360   6.772 -0.2571 -0.4229 -0.1887
 1434SOL    HW2 9241   5.149  10.384   6.919 -0.0077  0.1124 -0.3142
 1435SOL     OW 9242   0.825   1.709   3.671 -0.2392  0.1802 -0.3766
 1435SOL    HW1 9243   0.886   1.697   3.599  2.8103  0.4707  1.9494
 1435SOL    HW2 9244   0.795   1.620   3.692 -0.1471 -0.0463 -1.1799
 1436SOL     OW 9245  10.994   3.419   7.951  0.4647 -0.3963 -0.0189
 1436SOL    HW1 9246  11.053   3.400   8.024 -2.0105  0.0115  2.2412
 1436SOL    HW2 9247  10.927   3.351   7.956 -0.8335  0.7834 -0.6437
 1437SOL     OW 9248   2.343   3.710   4.185 -0.3563  0.3233  0.4096
 1437SOL    HW1 9249   2.380   3.659   4.258  1.4274  1.8259  0.6390
 1437SOL    HW2 9250   2.361   3.657   4.107 -0.0028 -0.1445  0.8001
 1438SOL     OW 9251   1.678   6.999  11.596  0.1681  0.1692  0.4817
 1438SOL    HW1 9252   1.739   7.072  11.591 -0.0731  0.3543  0.2445
 1438SOL    HW2 9253   1.663   6.986  11.690 -0.8066  1.2705  0.4974
 1439SOL     OW 9254  10.761   9.093   7.682  0.2813 -0.0967  0.2113
 1439SOL    HW1 9255  10.777   9.108   7.589  0.1874  1.7314  0.4449
 1439SOL    HW2 9256  10.763   8.998   7.692  1.9413 -0.2921 -1.3570
 1440SOL     OW 9257   3.791   7.634  10.509 -0.5240  0.0189 -0.0911
 1440SOL    HW1 9258   3.830   7.675  10.432  1.1958 -0.1326  0.6532
 1440SOL    HW2 9259   3.765   7.707  10.564 -1.4588  0.1239 -0.6451
 1441SOL     OW 9260   1.315   6.719   4.794 -0.1439 -0.4173  0.4675
 1441SOL    HW1 9261   1.303   6.671   4.712 -0.3100 -0.2746  0.4050
 1441SOL    HW2 9262   1.230   6.714   4.838  0.4460 -2.0413  1.4952
 1442SOL     OW 9263   3.136   5.323   7.459  0.3668  0.2088  0.3984
 1442SOL    HW1 9264   3.138   5.413   7.492  0.5789  1.5094 -2.8525
 1442SOL    HW2 9265   3.228   5.299   7.450  0.3169  0.0437  0.3355
 1443SOL     OW 9266   7.075   3.573  11.378  0.0262  0.0995  0.3210
 1443SOL    HW1 9267   7.044   3.484  11.360  1.9494 -0.5577  0.0486
 1443SOL    HW2 9268   7.014   3.629  11.330 -0.0182 -1.2031 -1.2461
 1444SOL     OW 9269  10.828   5.769   7.874  0.0008 -0.4192 -0.1426
 1444SOL    HW1 9270  10.780   5.745   7.795 -1.4781 -2.7432  1.3342
 1444SOL    HW2 9271  10.770   5.830   7.920 -0.7063 -1.7054  0.7140
 1445SOL     OW 9272   0.082  11.394   3.034 -0.4597 -0.0155  0.0623
 1445SOL    HW1 9273   0.028  11.370   3.109 -2.3053  1.2544 -0.7850
 1445SOL    HW2 9274   0.171  11.375   3.062 -1.1110  0.0412  2.4353
 1446SOL     OW 9275   5.371   3.240   9.931  0.2434 -0.2739  0.0847
 1446SOL    HW1 9276   5.411   3.164   9.889 -3.0039 -1.7144 -0.6622
 1446SOL    HW2 9277   5.370   3.218  10.024 -0.2297 -0.9289 -0.0715
 1447SOL     OW 9278   4.897   3.665   4.812  0.3291  0.5867  0.6548
 1447SOL    HW1 9279   4.868   3.589   4.862 -1.3476  0.1853 -0.8150
 1447SOL    HW2 9280   4.946   3.718   4.874  1.1464 -1.4467  1.8414
 1448SOL     OW 9281   7.004   0.422   5.262 -0.1151  0.1215 -0.2513
 1448SOL    HW1 9282   6.968   0.463   5.183 -0.4984  0.4414  0.0873
 1448SOL    HW2 9283   7.085   0.380   5.232 -0.2569  0.2417 -0.8144
 1449SOL     OW 9284  11.122  11.288  10.423 -0.1695  0.2426 -0.3571
 1449SOL    HW1 9285  11.084  11.267  10.338  0.8636  0.8382 -1.0016
 1449SOL    HW2 9286  11.048  11.308  10.480 -0.8429  0.7012 -1.3748
 1450SOL     OW 9287   3.447   1.397   0.644  0.5688 -0.0767 -0.2143
 1450SOL    HW1 9288   3.445   1.349   0.561  1.9775  2.3595 -1.7685
 1450SOL    HW2 9289   3.489   1.480   0.623 -3.2358  2.6572  1.9083
 1451SOL     OW 9290   1.339   2.619   3.039  0.2908 -0.2092 -0.3034
 1451SOL    HW1 9291   1.429   2.629   3.007  0.5579 -0.2935  0.4022
 1451SOL    HW2 9292   1.318   2.527   3.022  0.9462 -0.6358  1.0144
 1452SOL     OW 9293   2.265   4.667   2.625 -0.3135  0.2598  0.1373
 1452SOL    HW1 9294   2.240   4.639   2.713  0.8187 -3.9828 -0.6679
 1452SOL    HW2 9295   2.210   4.615   2.567  1.1425  0.5824 -1.6249
 1453SOL     OW 9296   8.726  10.145   8.540 -0.2947 -0.6638 -0.0187
 1453SOL    HW1 9297   8.784  10.177   8.609 -3.6195  2.5156  1.6287
 1453SOL    HW2 9298   8.677  10.073   8.581 -0.1914 -0.8085 -0.1435
 1454SOL     OW 9299  10.083   8.334   1.695  0.0229 -0.3178  0.3633
 1454SOL    HW1 9300  10.107   8.427   1.696 -1.4218  0.0814  1.3351
 1454SOL    HW2 9301  10.118   8.299   1.777 -0.8145 -0.2380  0.7630
 1455SOL     OW 9302   2.180  11.437  11.600  0.3312 -0.2473 -0.4532
 1455SOL    HW1 9303   2.095  11.471  11.570 -0.3407 -1.4166  0.0531
 1455SOL    HW2 9304   2.182  11.457  11.693  0.6216 -0.2006 -0.4707
 1456SOL     OW 9305   1.164   9.651   3.864 -0.1265  0.6508  0.2745
 1456SOL    HW1 9306   1.185   9.709   3.791 -1.1061 -0.0940 -0.6305
 1456SOL    HW2 9307   1.246   9.639   3.910  0.4914  1.2134 -0.6494
 1457SOL     OW 9308   6.533   4.371   0.152 -0.0407  0.0699  0.2231
 1457SOL    HW1 9309   6.477   4.355   0.228  0.5897 -3.6829  0.1119
 1457SOL    HW2 9310   6.474   4.374   0.078 -0.3980 -0.1933  0.4923
 1458SOL     OW 9311   0.808   0.466   4.464  0.6825  0.2091 -0.3486
 1458SOL    HW1 9312   0.842   0.538   4.413  0.7182  1.0082  0.7647
 1458SOL    HW2 9313   0.886   0.415   4.489  0.5951 -0.6422 -1.7204
 1459SOL     OW 9314   2.073   9.613   7.029 -0.7095  0.1332 -0.1455
 1459SOL    HW1 9315   2.144   9.560   7.064 -2.3615 -0.6296  2.3700
 1459SOL    HW2 9316   2.102   9.703   7.042 -0.0346 -0.1630  0.4914
 1460SOL     OW 9317   1.060   3.367  11.043  0.6707  0.3255 -0.4512
 1460SOL    HW1 9318   1.067   3.395  11.134  2.1136  1.5256 -0.8870
 1460SOL    HW2 9319   1.005   3.434  11.002  2.5042  1.5184 -1.0738
 1461SOL     OW 9320   0.215   6.874   9.754 -0.1921 -0.0511  0.3558
 1461SOL    HW1 9321   0.175   6.876   9.667 -1.4306 -0.1036  0.8925
 1461SOL    HW2 9322   0.306   6.901   9.740  0.0306 -1.4422 -1.1518
 1462SOL     OW 9323   9.901   9.001   4.579  0.4019 -0.1897 -0.0389
 1462SOL    HW1 9324   9.917   8.909   4.602  1.7091  0.0616  0.1517
 1462SOL    HW2 9325   9.807   9.012   4.590  0.3643 -1.2391  0.9558
 1463SOL     OW 9326   1.040   6.269  10.138 -0.0452  0.0046  0.5547
 1463SOL    HW1 9327   1.027   6.258  10.044 -2.4588  0.4544  0.7777
 1463SOL    HW2 9328   0.968   6.325  10.166  2.4070  2.5894  2.1984
 1464SOL     OW 9329   1.545   2.764  11.207 -0.3647  0.3364 -0.4279
 1464SOL    HW1 9330   1.569   2.842  11.158  0.0829 -0.5987 -1.7548
 1464SOL    HW2 9331   1.498   2.797  11.284  1.4302  1.9933  0.0345
 1465SOL     OW 9332   1.777   0.919   6.042 -0.7862  0.1369  0.8142
 1465SOL    HW1 9333   1.689   0.940   6.076 -1.7485  1.4911 -2.1949
 1465SOL    HW2 9334   1.771   0.827   6.015 -2.2341  0.9148 -1.7963
 1466SOL     OW 9335   8.685   1.289   0.502  0.4670 -0.8063  0.5164
 1466SOL    HW1 9336   8.657   1.251   0.419 -0.3397  0.9866 -0.0665
 1466SOL    HW2 9337   8.610   1.277   0.560  0.0087  0.3052  0.1770
 1467SOL     OW 9338   6.782   4.817  10.717 -0.0901 -0.3970 -0.1354
 1467SOL    HW1 9339   6.853   4.847  10.660 -0.7341  0.3584 -0.5588
 1467SOL    HW2 9340   6.822   4.812  10.804  0.5583 -0.2667 -0.4158
 1468SOL     OW 9341  10.777   6.168   4.470 -0.4216  0.5036  0.1642
 1468SOL    HW1 9342  10.708   6.133   4.414 -1.1092 -0.3494  1.4842
 1468SOL    HW2 9343  10.787   6.259   4.442 -2.2195  0.7003  0.0349
 1469SOL     OW 9344   4.841   3.565   9.109 -0.2836 -0.2679  0.0382
 1469SOL    HW1 9345   4.813   3.594   9.195  0.2542  1.2982 -0.2794
 1469SOL    HW2 9346   4.924   3.611   9.093  1.7372 -3.4633  0.2637
 1470SOL     OW 9347   6.068   3.484   3.715 -0.2228 -0.3538 -0.4768
 1470SOL    HW1 9348   6.083   3.393   3.741  1.6784 -0.2348 -1.0395
 1470SOL    HW2 9349   6.011   3.478   3.638 -0.4868 -1.0252 -0.2340
 1471SOL     OW 9350   3.814  10.433   5.153 -0.2639  0.3372 -0.0029
 1471SOL    HW1 9351   3.837  10.360   5.211 -0.1281  1.0759  0.9031
 1471SOL    HW2 9352   3.869  10.505   5.183  0.3519  0.5519 -1.5450
 1472SOL     OW 9353  10.229   0.708   1.860 -0.0720  0.9686  0.0202
 1472SOL    HW1 9354  10.216   0.618   1.830 -2.2085  1.3956 -0.4685
 1472SOL    HW2 9355  10.320   0.728   1.837  0.2805 -0.8692 -0.3365
 1473SOL     OW 9356   5.524  10.627  10.829  0.2780  0.3288  0.2038
 1473SOL    HW1 9357   5.502  10.684  10.902  0.2549 -0.5597  0.9111
 1473SOL    HW2 9358   5.569  10.552  10.870  0.4172 -0.0955 -0.7052
 1474SOL     OW 9359   5.965   5.201   8.685  0.2668 -0.3555  0.4268
 1474SOL    HW1 9360   5.965   5.163   8.597  0.3455 -3.9806  1.8416
 1474SOL    HW2 9361   6.013   5.284   8.675  1.3310 -1.2013 -2.6826
 1475SOL     OW 9362  10.216   8.805   8.280  0.2135 -0.0900  0.6890
 1475SOL    HW1 9363  10.265   8.735   8.323 -0.2352  0.0386  1.4290
 1475SOL    HW2 9364  10.125   8.790   8.306  0.0889  0.6643  0.7034
 1476SOL     OW 9365   2.817   2.090   0.839 -0.0915  0.0350  0.3454
 1476SOL    HW1 9366   2.908   2.107   0.864 -0.3280  1.9289  0.0509
 1476SOL    HW2 9367   2.804   1.998   0.860  2.6431 -1.0473 -1.9958
 1477SOL     OW 9368   2.582   7.679   4.541  0.7002  0.6313  0.4093
 1477SOL    HW1 9369   2.566   7.732   4.620  1.1600 -0.9337  1.5979
 1477SOL    HW2 9370   2.590   7.590   4.574  2.2952  0.1169 -1.2624
 1478SOL     OW 9371   9.307   3.543   0.426 -0.5107  0.4941 -0.5775
 1478SOL    HW1 9372   9.370   3.612   0.403  0.8383 -0.3903  0.3235
 1478SOL    HW2 9373   9.280   3.563   0.515 -0.0485 -0.1758 -0.2786
 1479SOL     OW 9374  10.848   4.594   2.407 -0.1111 -0.0061  0.1952
 1479SOL    HW1 9375  10.935   4.631   2.423  0.8607 -2.2795  0.5738
 1479SOL    HW2 9376  10.810   4.586   2.494  0.3220 -1.2763  0.2846
 1480SOL     OW 9377   5.117   1.855   9.758 -0.0334 -0.2540  0.6341
 1480SOL    HW1 9378   5.049   1.894   9.703  1.6678  0.9454 -0.6833
 1480SOL    HW2 9379   5.068   1.806   9.824 -2.1667 -0.0190 -0.6850
 1481SOL     OW 9380   2.460   1.824   7.128  0.1693 -0.5939 -0.2601
 1481SOL    HW1 9381   2.553   1.814   7.149 -0.0250  0.2166  1.0805
 1481SOL    HW2 9382   2.436   1.909   7.165 -1.2873 -1.1360  0.1052
 1482SOL     OW 9383   1.103   8.901   2.855 -0.4457 -0.1162  0.1256
 1482SOL    HW1 9384   1.063   8.988   2.859 -0.6956 -0.2693  1.3132
 1482SOL    HW2 9385   1.080   8.868   2.767 -1.7962  0.3433  0.2760
 1483SOL     OW 9386   3.870   8.687   9.613  0.0569  0.6432 -0.1630
 1483SOL    HW1 9387   3.895   8.670   9.704  0.8762  0.1641 -0.4668
 1483SOL    HW2 9388   3.853   8.781   9.611  0.4932  0.7468  0.3882
 1484SOL     OW 9389   6.069  11.591   2.212 -0.3600 -0.2825 -0.2535
 1484SOL    HW1 9390   6.100  11.546   2.291  1.2554 -0.1283 -0.7697
 1484SOL    HW2 9391   5.974  11.581   2.215 -0.3512 -0.1726  1.7732
 1485SOL     OW 9392   7.787   9.548   8.810  0.2521 -0.6462  0.8993
 1485SOL    HW1 9393   7.738   9.495   8.748  0.5345 -0.2846  0.3638
 1485SOL    HW2 9394   7.766   9.639   8.787 -0.1222 -0.5099  1.7221
 1486SOL     OW 9395   1.337   8.956   7.946 -0.1679  0.6103 -0.4820
 1486SOL    HW1 9396   1.278   9.019   7.906 -0.6293  1.1721  1.0013
 1486SOL    HW2 9397   1.285   8.915   8.015  0.1144 -1.4361 -1.4186
 1487SOL     OW 9398   0.375   8.550   9.223  0.6315  0.0192  0.3075
 1487SOL    HW1 9399   0.280   8.563   9.220  0.5677 -0.5862 -0.6129
 1487SOL    HW2 9400   0.401   8.581   9.310 -0.4523 -0.1208  0.6915
 1488SOL     OW 9401   3.214   2.641   7.801  0.3582  0.0762 -0.2467
 1488SOL    HW1 9402   3.291   2.622   7.748 -0.5623 -2.2296 -0.9037
 1488SOL    HW2 9403   3.249   2.651   7.890  1.4048 -1.5099 -0.4253
 1489SOL     OW 9404  11.255   7.311  11.451 -0.2015  0.5499  0.3171
 1489SOL    HW1 9405  11.333   7.343  11.405 -0.6790  0.3598 -0.6543
 1489SOL    HW2 9406  11.262   7.216  11.447  0.5916  0.5054  2.1213
 1490SOL     OW 9407   1.927   1.192   5.272  0.0016  0.0351  0.6931
 1490SOL    HW1 9408   1.851   1.240   5.305 -0.8160 -1.0172  0.4106
 1490SOL    HW2 9409   1.909   1.100   5.294 -0.4525 -0.7119 -2.2943
 1491SOL     OW 9410   4.060   0.226   9.354  1.0547  0.1365 -0.1121
 1491SOL    HW1 9411   3.988   0.163   9.342  0.7943  0.7273 -2.0763
 1491SOL    HW2 9412   4.139   0.173   9.340  1.0690 -0.5459  2.1959
 1492SOL     OW 9413   3.549   4.026   6.564  0.1011  0.1536  0.3132
 1492SOL    HW1 9414   3.468   4.038   6.514  0.2013 -1.4405 -0.2826
 1492SOL    HW2 9415   3.568   3.933   6.557  1.4142  0.3163  1.3627
 1493SOL     OW 9416   4.226   1.878   3.002  0.1409  0.4544 -0.0044
 1493SOL    HW1 9417   4.316   1.900   3.026 -0.1532  1.7228 -0.0017
 1493SOL    HW2 9418   4.179   1.878   3.086  0.2167 -0.7319  0.0645
 1494SOL     OW 9419   1.154   2.935   1.770 -0.2027 -0.0283  0.6032
 1494SOL    HW1 9420   1.125   2.844   1.779  0.2118 -0.6553 -2.8414
 1494SOL    HW2 9421   1.083   2.987   1.807 -0.0554 -1.6980  3.4789
 1495SOL     OW 9422   6.228  10.717   7.998  0.2005  0.9178 -0.4081
 1495SOL    HW1 9423   6.261  10.664   7.926  1.3826 -0.8170  1.3134
 1495SOL    HW2 9424   6.136  10.690   8.007  0.4428  0.0756 -0.3697
 1496SOL     OW 9425   4.489  11.655   8.851 -0.2805  0.7663 -0.0078
 1496SOL    HW1 9426   4.426  11.724   8.832 -1.8368 -0.2934  1.0577
 1496SOL    HW2 9427   4.527  11.633   8.765 -0.5592  2.1426 -0.5138
 1497SOL     OW 9428   3.613   5.241   2.072 -0.5898  0.2083  0.3652
 1497SOL    HW1 9429   3.623   5.165   2.015  0.6995  0.7009 -0.1056
 1497SOL    HW2 9430   3.580   5.310   2.015  1.4109  0.9131  0.0018
 1498SOL     OW 9431  11.231   5.350   1.413 -0.1080  0.6337  0.2755
 1498SOL    HW1 9432  11.308   5.356   1.356  0.0465  0.2847  0.4446
 1498SOL    HW2 9433  11.252   5.280   1.475 -0.6919  0.3108  0.1170
 1499SOL     OW 9434   6.423   6.863   8.548 -0.0367 -0.5696  0.2087
 1499SOL    HW1 9435   6.330   6.848   8.531  0.0836 -1.7543  0.5047
 1499SOL    HW2 9436   6.466   6.785   8.513  0.8109 -0.2096  0.4330
 1500SOL     OW 9437   1.696   8.384   6.283  0.1666 -0.0506  0.1926
 1500SOL    HW1 9438   1.781   8.396   6.240  1.1427  0.3696  2.1396
 1500SOL    HW2 9439   1.709   8.308   6.341 -0.3574  0.8117  1.4796
 1501SOL     OW 9440  11.214   2.607   3.410  0.3907  0.2474 -0.1913
 1501SOL    HW1 9441  11.232   2.687   3.360  2.2881 -0.3630 -0.5594
 1501SOL    HW2 9442  11.298   2.585   3.452 -0.4025 -0.8896  0.8772
 1502SOL     OW 9443   9.689   9.161   6.663  0.3677  0.2890 -0.3638
 1502SOL    HW1 9444   9.779   9.162   6.695  0.5638 -1.2236 -0.7687
 1502SOL    HW2 9445   9.676   9.071   6.632 -1.3951  0.3856  0.0031
 1503SOL     OW 9446  11.650   3.420   6.480  0.3080  0.1044 -0.0027
 1503SOL    HW1 9447  11.648   3.348   6.543 -0.1454 -0.2494 -0.4156
 1503SOL    HW2 9448  11.590   3.486   6.517  2.2925  1.2117  1.4511
 1504SOL     OW 9449   5.135   6.615   3.948 -0.0780  0.1656 -0.1558
 1504SOL    HW1 9450   5.103   6.690   3.898 -0.7569  0.3550  0.5564
 1504SOL    HW2 9451   5.115   6.540   3.892  0.1378  0.4626 -0.6411
 1505SOL     OW 9452   3.996  11.173   4.792  1.0168 -0.0628  0.1803
 1505SOL    HW1 9453   3.949  11.210   4.867  0.7862 -1.1422  0.5771
 1505SOL    HW2 9454   3.927  11.139   4.735  1.2954 -1.7672  0.8232
 1506SOL     OW 9455   6.075   5.200   4.371  0.1381 -0.3108  0.3046
 1506SOL    HW1 9456   6.118   5.141   4.309  1.2402 -0.5469  1.2604
 1506SOL    HW2 9457   6.016   5.253   4.317  0.2163 -1.2869 -0.7717
 1507SOL     OW 9458  11.340  10.585   6.334  0.4884  0.1921 -0.2477
 1507SOL    HW1 9459  11.418  10.542   6.300  1.6907  0.5394  1.8449
 1507SOL    HW2 9460  11.323  10.656   6.273  1.4837 -0.2312 -1.0511
 1508SOL     OW 9461   5.716   9.844   4.325  0.6818  0.3623  0.0846
 1508SOL    HW1 9462   5.701   9.935   4.297  0.4342  0.4894  0.6202
 1508SOL    HW2 9463   5.665   9.835   4.405 -0.1238 -0.5667 -0.5094
 1509SOL     OW 9464   5.062   8.062   1.622  0.5632 -0.1133  0.0800
 1509SOL    HW1 9465   5.060   8.139   1.679  0.0643 -0.5489  0.6700
 1509SOL    HW2 9466   5.090   7.991   1.680  3.0368 -0.0416 -0.8993
 1510SOL     OW 9467   5.901   4.337   0.899  0.1500 -0.6192 -0.8759
 1510SOL    HW1 9468   5.817   4.353   0.857 -0.7537  1.3025  1.4588
 1510SOL    HW2 9469   5.880   4.290   0.979  1.4537 -1.1879 -0.8379
 1511SOL     OW 9470   0.829   3.677   2.243  0.0082  0.1365  0.1526
 1511SOL    HW1 9471   0.819   3.726   2.325 -1.0879 -2.7856  1.9337
 1511SOL    HW2 9472   0.758   3.710   2.187  0.2947  1.6533  0.6478
 1512SOL     OW 9473   7.451  11.234  10.869  0.0631 -0.1130  0.1240
 1512SOL    HW1 9474   7.536  11.266  10.837 -0.3357  0.3862 -0.4456
 1512SOL    HW2 9475   7.445  11.268  10.958 -1.0634  2.8426 -0.9834
 1513SOL     OW 9476  11.202   1.030   0.615 -0.0551  0.6396  0.4139
 1513SOL    HW1 9477  11.175   1.088   0.686  1.4204 -1.6509  3.0558
 1513SOL    HW2 9478  11.273   1.076   0.571 -2.0553  2.8033 -0.7729
 1514SOL     OW 9479   4.317  10.195  11.662  0.0478 -1.1226  0.0134
 1514SOL    HW1 9480   4.318  10.115  11.608 -2.1272 -1.4355  0.3589
 1514SOL    HW2 9481   4.329  10.163  11.751  0.5836 -0.8989  0.0271
 1515SOL     OW 9482   0.584   8.732   4.459 -0.0375 -0.1424  0.2996
 1515SOL    HW1 9483   0.523   8.765   4.392 -0.2604 -3.0615 -1.0852
 1515SOL    HW2 9484   0.627   8.811   4.493 -0.2694  1.5304 -2.9293
 1516SOL     OW 9485   0.466   2.710   7.586  0.1728 -0.2750 -0.1546
 1516SOL    HW1 9486   0.519   2.787   7.605 -0.2909  0.1247 -0.4710
 1516SOL    HW2 9487   0.476   2.696   7.492 -0.3683 -0.1304 -0.2346
 1517SOL     OW 9488   1.792   3.096   7.587 -0.8221  0.1416 -0.7022
 1517SOL    HW1 9489   1.839   3.178   7.576  0.0028 -0.1471  0.4408
 1517SOL    HW2 9490   1.702   3.116   7.561 -0.2614  0.9132 -2.1650
 1518SOL     OW 9491   5.017   6.133   0.554  0.2532  0.1519  0.0964
 1518SOL    HW1 9492   4.963   6.076   0.609  0.3335 -0.0959 -0.0769
 1518SOL    HW2 9493   4.960   6.207   0.532  0.6353  0.9241  1.5908
 1519SOL     OW 9494   2.144   3.220   5.865 -0.3697  0.0485 -0.0249
 1519SOL    HW1 9495   2.049   3.216   5.871 -0.3378 -0.9069 -0.0447
 1519SOL    HW2 9496   2.170   3.134   5.831  0.6037 -0.3132  1.5318
 1520SOL     OW 9497   5.203   5.879  10.778  0.2913  0.6594 -0.0049
 1520SOL    HW1 9498   5.294   5.897  10.754  0.3459  0.9038  0.3763
 1520SOL    HW2 9499   5.203   5.880  10.873 -0.2855  1.5393 -0.0114
 1521SOL     OW 9500   6.400   2.644   5.239 -0.2706  0.1606  0.3403
 1521SOL    HW1 9501   6.339   2.594   5.294 -1.0382  0.5884 -0.0962
 1521SOL    HW2 9502   6.371   2.735   5.249 -1.3227  0.1329 -1.8059
 1522SOL     OW 9503   6.686   4.243   6.662  0.5437  0.4834  0.0970
 1522SOL    HW1 9504   6.709   4.259   6.570 -0.2496 -1.6525 -0.5266
 1522SOL    HW2 9505   6.634   4.163   6.660  0.0114  0.7185  2.3684
 1523SOL     OW 9506   8.452   3.689   5.155  0.2341 -0.6473  0.1156
 1523SOL    HW1 9507   8.381   3.745   5.124  1.4782  0.6422 -0.5106
 1523SOL    HW2 9508   8.510   3.680   5.079  2.2462  0.7940  1.4158
 1524SOL     OW 9509   4.871   6.115   5.678 -0.5447  0.5472 -0.0861
 1524SOL    HW1 9510   4.802   6.094   5.740  1.3532 -0.7365  1.7489
 1524SOL    HW2 9511   4.902   6.202   5.705 -0.2098  0.3022  0.3452
 1525SOL     OW 9512   1.756  10.299   6.020 -0.3107  0.1767 -0.2099
 1525SOL    HW1 9513   1.663  10.316   6.010 -0.1467  0.2943 -1.6810
 1525SOL    HW2 9514   1.797  10.340   5.944  0.7822 -1.1082 -0.3501
 1526SOL     OW 9515   8.551   9.745   9.216  0.1999  0.0384 -0.0432
 1526SOL    HW1 9516   8.617   9.792   9.267  0.6897  0.9050 -1.4227
 1526SOL    HW2 9517   8.490   9.813   9.187 -0.9622 -0.6663  0.6864
 1527SOL     OW 9518   5.998   2.934   5.130 -0.3579  0.1531 -0.8238
 1527SOL    HW1 9519   5.912   2.964   5.101 -1.1018 -0.3409  0.7863
 1527SOL    HW2 9520   6.023   2.868   5.065 -1.6092 -0.3646 -0.8001
 1528SOL     OW 9521   5.510   5.143   0.032 -0.1010 -0.4952 -0.8481
 1528SOL    HW1 9522   5.453   5.072   0.004 -3.2160  0.8232  1.5721
 1528SOL    HW2 9523   5.471   5.221  -0.009 -0.4592  0.5098  1.3007
 1529SOL     OW 9524   2.329   4.556   6.698  0.0457  0.1339 -0.0870
 1529SOL    HW1 9525   2.263   4.575   6.765  0.0208  0.1908 -0.1270
 1529SOL    HW2 9526   2.278   4.527   6.622  0.1709 -1.5877  0.4607
 1530SOL     OW 9527   3.118   6.460   9.705  0.0962 -0.7885  0.0982
 1530SOL    HW1 9528   3.074   6.545   9.709  1.4727 -0.0745  0.4799
 1530SOL    HW2 9529   3.131   6.444   9.612  1.6846  0.4241  0.0793
 1531SOL     OW 9530  10.561   7.140   0.443  0.3821 -0.4082 -0.5665
 1531SOL    HW1 9531  10.576   7.220   0.393 -0.4793  1.3148  1.7596
 1531SOL    HW2 9532  10.467   7.124   0.435  0.3151 -0.3733  0.1145
 1532SOL     OW 9533   9.751   7.260   9.243  0.3770 -0.1000  0.3300
 1532SOL    HW1 9534   9.697   7.337   9.262 -2.5069 -1.7498 -0.5974
 1532SOL    HW2 9535   9.754   7.212   9.326 -0.2294 -0.3558  0.2097
 1533SOL     OW 9536  11.685   9.860   5.583  0.4118 -0.0098  0.1188
 1533SOL    HW1 9537  11.670   9.856   5.677  0.1126  1.1994  0.1438
 1533SOL    HW2 9538  11.688   9.769   5.555 -1.0719 -0.3814  1.0617
 1534SOL     OW 9539   1.877   3.093   7.164 -0.8638  0.2062  0.4730
 1534SOL    HW1 9540   1.907   3.042   7.089 -2.9161 -0.2886 -0.0619
 1534SOL    HW2 9541   1.782   3.098   7.154 -0.9558  2.2739  1.7026
 1535SOL     OW 9542   0.501   6.057  11.518 -0.1046  0.0091 -0.3619
 1535SOL    HW1 9543   0.414   6.019  11.504 -0.0273 -1.1713  1.8206
 1535SOL    HW2 9544   0.526   6.027  11.606  2.4548  0.4288 -0.8684
 1536SOL     OW 9545   4.366   0.517   6.136 -0.5017 -0.1528 -0.2033
 1536SOL    HW1 9546   4.402   0.437   6.098  1.2237 -0.8882  2.6511
 1536SOL    HW2 9547   4.341   0.492   6.224 -1.2215  2.1596  0.3004
 1537SOL     OW 9548   7.079   7.567   3.417 -0.4360  0.0516 -0.3822
 1537SOL    HW1 9549   7.050   7.570   3.325  0.6990  0.4235 -0.7407
 1537SOL    HW2 9550   7.156   7.623   3.420 -0.3010 -0.1714  0.7533
 1538SOL     OW 9551   5.584  10.777   4.633 -0.3893  0.0737 -0.5887
 1538SOL    HW1 9552   5.659  10.754   4.577 -0.7317 -1.2207 -0.5420
 1538SOL    HW2 9553   5.622  10.782   4.722 -0.2788 -0.1497 -0.6225
 1539SOL     OW 9554   2.093   7.425  11.458  0.6138 -0.6872 -0.0986
 1539SOL    HW1 9555   2.033   7.449  11.529  0.1832  0.8552 -0.9472
 1539SOL    HW2 9556   2.140   7.349  11.492  1.4150  0.8132  2.4382
 1540SOL     OW 9557   1.298   5.157   4.479 -0.3924 -0.2249 -0.0611
 1540SOL    HW1 9558   1.272   5.065   4.492 -1.7366  0.2281  0.6643
 1540SOL    HW2 9559   1.278   5.199   4.562 -2.7685  1.3682 -1.3465
 1541SOL     OW 9560   6.059   4.076   4.424 -0.3859  0.2565 -0.8031
 1541SOL    HW1 9561   6.141   4.057   4.469  1.6816  1.9020 -3.5818
 1541SOL    HW2 9562   6.006   3.997   4.438  1.1778 -0.4593  1.9378
 1542SOL     OW 9563   0.549   4.639   9.653 -0.1998 -0.1094 -0.1470
 1542SOL    HW1 9564   0.575   4.597   9.572  0.4454 -0.3176  0.1644
 1542SOL    HW2 9565   0.610   4.712   9.664 -0.2248 -0.1339  0.1923
 1543SOL     OW 9566   0.034   9.177   4.969 -0.1260 -0.1616  0.1865
 1543SOL    HW1 9567   0.004   9.212   5.053 -1.2599  0.2159 -0.3527
 1543SOL    HW2 9568  -0.004   9.089   4.964  0.0007 -0.2117  0.1078
 1544SOL     OW 9569   4.027   4.175   0.998  0.4932 -0.1366  0.0219
 1544SOL    HW1 9570   3.936   4.161   1.025  1.1949 -2.0056  1.7143
 1544SOL    HW2 9571   4.049   4.262   1.030 -0.3499 -0.1679  0.7190
 1545SOL     OW 9572   2.030   4.650  10.775  0.8098 -0.0560 -0.1406
 1545SOL    HW1 9573   2.090   4.638  10.848 -0.3704 -0.4343  0.7940
 1545SOL    HW2 9574   2.031   4.744  10.758  0.2634  0.1979  1.1128
 1546SOL     OW 9575   6.554   5.622   0.453 -0.0552  0.3119 -0.2862
 1546SOL    HW1 9576   6.618   5.629   0.524 -1.3267  0.4459  0.8825
 1546SOL    HW2 9577   6.566   5.533   0.420  0.3915  0.1610  0.2509
 1547SOL     OW 9578   5.362   8.473  10.026 -0.1897 -0.5072 -0.0290
 1547SOL    HW1 9579   5.389   8.389   9.990 -1.4982 -1.4315  1.0316
 1547SOL    HW2 9580   5.356   8.458  10.120 -0.0048  0.9080  0.2268
 1548SOL     OW 9581  11.578   2.041   2.525 -0.2018 -0.3622  0.4032
 1548SOL    HW1 9582  11.614   2.127   2.550  1.0471 -1.4933  2.8063
 1548SOL    HW2 9583  11.544   2.055   2.436  1.0700  2.2863  0.2212
 1549SOL     OW 9584   8.732   1.784  10.162 -0.2230 -0.0357  0.1103
 1549SOL    HW1 9585   8.805   1.735  10.125 -0.6881 -0.1815 -0.6344
 1549SOL    HW2 9586   8.770   1.831  10.237  0.3251 -1.1440  0.5386
 1550SOL     OW 9587   1.087   6.468   2.524 -0.4692  0.2506  0.1805
 1550SOL    HW1 9588   1.021   6.481   2.456 -0.6938 -0.5965  0.2219
 1550SOL    HW2 9589   1.154   6.534   2.506 -0.5155  0.0222 -0.8868
 1551SOL     OW 9590   5.301   2.055  10.740 -0.6340  0.6949 -0.2954
 1551SOL    HW1 9591   5.333   2.050  10.830 -0.4366 -1.3694 -0.4307
 1551SOL    HW2 9592   5.354   1.991  10.692 -0.5348  1.9664 -1.9573
 1552SOL     OW 9593   4.039   2.651   1.273 -0.0888  0.2052 -0.0005
 1552SOL    HW1 9594   4.109   2.716   1.269 -0.8022  1.1207  1.6731
 1552SOL    HW2 9595   4.022   2.638   1.366  0.8240 -3.3190 -0.1868
 1553SOL     OW 9596   0.958   9.392   5.911  0.6365 -0.0245  0.2410
 1553SOL    HW1 9597   1.003   9.473   5.887 -0.7215  1.5155  2.5055
 1553SOL    HW2 9598   0.917   9.362   5.830  1.2022  1.5572 -0.6652
 1554SOL     OW 9599   6.280  11.676   2.782  0.1322 -0.6344 -0.0663
 1554SOL    HW1 9600   6.372  11.655   2.797  0.1995  0.4815  1.2580
 1554SOL    HW2 9601   6.274  11.693   2.688  1.3392 -0.4390 -0.1172
 1555SOL     OW 9602   3.233   8.126   7.130  0.0110 -0.1639  0.1283
 1555SOL    HW1 9603   3.154   8.162   7.172 -0.2567 -1.0228  0.3844
 1555SOL    HW2 9604   3.304   8.148   7.190 -0.0370  0.5312 -0.0549
 1556SOL     OW 9605   9.448  10.030   6.957  0.4034  0.5498  0.2268
 1556SOL    HW1 9606   9.381   9.961   6.961  0.7985  0.1735  0.5558
 1556SOL    HW2 9607   9.521   9.989   6.910  0.6155  0.7667  0.3673
 1557SOL     OW 9608   5.149   7.655   9.677 -0.3492 -0.7421  0.1678
 1557SOL    HW1 9609   5.244   7.650   9.684 -0.1544  1.5032 -0.2809
 1557SOL    HW2 9610   5.125   7.734   9.725 -1.6871  0.1107 -1.7637
 1558SOL     OW 9611  11.227   6.965  11.470 -0.0728  0.6446  0.0852
 1558SOL    HW1 9612  11.216   6.916  11.389  1.4776 -0.2839  0.3942
 1558SOL    HW2 9613  11.192   6.908  11.538 -0.4958  1.0249  0.1989
 1559SOL     OW 9614   2.470  10.078   7.620  0.0162  0.0814 -0.0248
 1559SOL    HW1 9615   2.428  10.063   7.705 -0.9410 -0.4067 -0.5657
 1559SOL    HW2 9616   2.404  10.123   7.568  0.4900  0.1081 -0.6180
 1560SOL     OW 9617   9.526  10.031  11.436  0.5698  0.3009 -0.4276
 1560SOL    HW1 9618   9.518   9.966  11.506 -0.2706 -0.7948 -1.4942
 1560SOL    HW2 9619   9.607  10.009  11.391  0.1525 -0.2020 -0.9518
 1561SOL     OW 9620   9.338   0.405   6.620  0.3973 -0.1051 -0.2399
 1561SOL    HW1 9621   9.256   0.388   6.574  0.3826 -1.3420  0.2026
 1561SOL    HW2 9622   9.381   0.474   6.569  0.4990 -1.5620 -2.2482
 1562SOL     OW 9623  10.843   4.196   8.021  0.5162  0.3925  0.3824
 1562SOL    HW1 9624  10.932   4.169   8.043 -0.0455 -0.9622  1.1394
 1562SOL    HW2 9625  10.804   4.220   8.105  0.1201  0.8088  0.0806
 1563SOL     OW 9626  10.566  10.940   4.294 -0.2290  0.4268 -0.0020
 1563SOL    HW1 9627  10.504  10.900   4.234  0.0811  1.2216 -0.8747
 1563SOL    HW2 9628  10.652  10.921   4.255  0.0118  0.3513  0.5614
 1564SOL     OW 9629   6.744   2.224   7.316  0.1363 -0.2269  0.3602
 1564SOL    HW1 9630   6.740   2.131   7.338 -2.4348 -0.4991 -0.8749
 1564SOL    HW2 9631   6.831   2.236   7.279  0.0647 -2.4509 -0.6845
 1565SOL     OW 9632   5.521   8.059   6.380  0.1187  0.1197  0.1585
 1565SOL    HW1 9633   5.550   7.968   6.369  1.1737  0.2368  1.6825
 1565SOL    HW2 9634   5.563   8.106   6.308 -2.4281 -0.9363 -2.1925
 1566SOL     OW 9635   7.064   1.652   5.867 -0.4803  0.0699  0.5351
 1566SOL    HW1 9636   7.052   1.570   5.820  0.0539 -0.8112  1.8637
 1566SOL    HW2 9637   7.010   1.715   5.820 -1.3742 -1.1695 -0.1596
 1567SOL     OW 9638  11.557   2.870   4.563 -0.1049 -0.9429 -0.1742
 1567SOL    HW1 9639  11.575   2.900   4.652  0.2540 -0.4325 -0.4135
 1567SOL    HW2 9640  11.492   2.800   4.573 -1.7765  0.5986  0.3353
 1568SOL     OW 9641   6.983   5.516   7.806  0.1741 -0.0756 -0.7857
 1568SOL    HW1 9642   7.000   5.572   7.730  0.4534  0.7757 -0.1179
 1568SOL    HW2 9643   7.023   5.432   7.784 -2.0970 -0.7736 -2.7248
 1569SOL     OW 9644   3.250   4.018   3.726  0.2232  0.3390  0.0564
 1569SOL    HW1 9645   3.339   4.036   3.757  0.0064  0.7125  0.4678
 1569SOL    HW2 9646   3.194   4.078   3.775 -0.4770 -1.1262  1.1636
 1570SOL     OW 9647   2.927   2.769   7.333 -0.3696  0.3701  0.3592
 1570SOL    HW1 9648   2.991   2.793   7.266  0.3770 -0.1139  0.8894
 1570SOL    HW2 9649   2.933   2.674   7.340  0.2400  0.4795  1.7491
 1571SOL     OW 9650   6.685   2.621   4.087 -0.8214 -0.1756  0.0794
 1571SOL    HW1 9651   6.597   2.588   4.104 -0.9991  0.1414 -0.2384
 1571SOL    HW2 9652   6.711   2.579   4.006 -1.3156  0.9841 -0.6998
 1572SOL     OW 9653   4.092   8.462   3.905 -0.2785 -0.3249  0.3951
 1572SOL    HW1 9654   4.021   8.526   3.913 -0.5135 -0.4919 -0.2660
 1572SOL    HW2 9655   4.141   8.469   3.987 -0.5698  0.3839  0.5127
 1573SOL     OW 9656   2.787   8.050   6.400  0.1080 -0.6061 -0.0618
 1573SOL    HW1 9657   2.850   8.078   6.466 -0.5387 -0.1002  0.3511
 1573SOL    HW2 9658   2.752   7.967   6.433  0.2580 -0.6791 -0.0882
 1574SOL     OW 9659   6.678   1.402   3.152  0.1873  0.2866  0.4390
 1574SOL    HW1 9660   6.717   1.490   3.154  0.7999  0.0354 -0.0816
 1574SOL    HW2 9661   6.698   1.365   3.237 -0.3633  0.7608  0.7923
 1575SOL     OW 9662   3.477   0.764   6.644  0.5641 -0.2279  0.1324
 1575SOL    HW1 9663   3.391   0.735   6.614  0.3874  1.2417 -0.9003
 1575SOL    HW2 9664   3.539   0.707   6.599  0.1807 -0.2979 -0.3084
 1576SOL     OW 9665   6.899   6.671   0.261 -0.7055  0.0904 -0.1917
 1576SOL    HW1 9666   6.905   6.668   0.357  0.8901  0.9767 -0.2201
 1576SOL    HW2 9667   6.967   6.734   0.235  1.3663 -2.6751 -2.0906
 1577SOL     OW 9668   0.261   0.630   3.233  0.3285 -0.4370 -0.1289
 1577SOL    HW1 9669   0.313   0.565   3.186  0.4991 -0.5510  0.2122
 1577SOL    HW2 9670   0.249   0.592   3.320 -1.0958 -0.8184 -0.4709
 1578SOL     OW 9671   2.938   0.827   7.135  0.1654 -0.8019 -0.4200
 1578SOL    HW1 9672   3.002   0.775   7.185 -0.0652 -0.5394  0.1583
 1578SOL    HW2 9673   2.864   0.838   7.195 -0.0554 -0.3553 -0.7707
 1579SOL     OW 9674   9.153   5.260   2.016  0.3291 -0.6785 -0.3613
 1579SOL    HW1 9675   9.195   5.271   2.101 -0.4063 -1.6069  0.1383
 1579SOL    HW2 9676   9.221   5.283   1.953  0.6053  0.9045  0.4698
 1580SOL     OW 9677   4.437   4.838  10.891 -0.0655 -0.1853  0.0540
 1580SOL    HW1 9678   4.356   4.789  10.901  0.1156 -0.1354  2.0487
 1580SOL    HW2 9679   4.463   4.862  10.980  2.1599 -0.2228 -0.5173
 1581SOL     OW 9680   3.217   0.306   8.118  0.6999  0.5257  0.1891
 1581SOL    HW1 9681   3.135   0.327   8.163  1.3588  0.9901  1.2012
 1581SOL    HW2 9682   3.213   0.211   8.104 -0.7416  0.7521 -1.2922
 1582SOL     OW 9683   5.977  11.267  11.685  0.3569  0.3299  0.4050
 1582SOL    HW1 9684   5.952  11.184  11.645  0.8378  0.7173 -0.7419
 1582SOL    HW2 9685   6.017  11.242  11.769 -0.4969 -0.5062  0.5845
 1583SOL     OW 9686   6.475  11.326   3.720 -0.5116  0.2484  0.7219
 1583SOL    HW1 9687   6.391  11.313   3.675 -0.3919 -1.0839  0.8302
 1583SOL    HW2 9688   6.501  11.238   3.746  1.6720  0.4565 -0.6007
 1584SOL     OW 9689   7.361   8.073   8.245  0.1118 -0.0115 -0.1004
 1584SOL    HW1 9690   7.403   8.128   8.311 -0.5229 -0.2843  0.5407
 1584SOL    HW2 9691   7.271   8.104   8.241  0.1184 -0.0618 -0.7776
 1585SOL     OW 9692   9.457   0.780   8.810  0.3748 -0.0942 -0.5515
 1585SOL    HW1 9693   9.516   0.813   8.877  0.3388 -1.3078  0.1011
 1585SOL    HW2 9694   9.447   0.853   8.749 -0.2190  1.3127  1.1525
 1586SOL     OW 9695   4.518   3.521   1.481  0.2571  0.1224 -0.1092
 1586SOL    HW1 9696   4.545   3.581   1.412  0.3856 -0.8338 -0.9121
 1586SOL    HW2 9697   4.424   3.510   1.469  0.0107  1.0798  0.7918
 1587SOL     OW 9698   4.087   6.484   8.583 -0.2005  0.1383  0.3383
 1587SOL    HW1 9699   4.116   6.395   8.562 -1.0517  0.2966 -1.6606
 1587SOL    HW2 9700   4.040   6.513   8.506 -3.7387  0.7338  2.5138
 1588SOL     OW 9701   8.712   8.844  10.663 -0.0702 -0.2290 -0.7426
 1588SOL    HW1 9702   8.789   8.807  10.619 -0.0230  0.3732 -1.1738
 1588SOL    HW2 9703   8.694   8.783  10.735  2.5486  1.1171  1.2113
 1589SOL     OW 9704   5.951  10.394   3.214  0.3250 -0.6886  0.7963
 1589SOL    HW1 9705   5.977  10.469   3.160  0.6644 -0.4046  1.3472
 1589SOL    HW2 9706   5.900  10.339   3.155  0.7068 -0.3927  0.1755
 1590SOL     OW 9707   6.931   8.728   0.572  0.3792 -0.2841 -0.0655
 1590SOL    HW1 9708   6.914   8.649   0.522  0.2698 -0.5016  0.3073
 1590SOL    HW2 9709   6.844   8.768   0.583  0.4059 -0.2259 -0.0679
 1591SOL     OW 9710   6.571   1.253   5.483  0.0549  0.0162 -0.2428
 1591SOL    HW1 9711   6.581   1.247   5.578 -3.4644 -0.6182  0.2251
 1591SOL    HW2 9712   6.602   1.341   5.462  0.7330  0.2499  1.5347
 1592SOL     OW 9713   7.252   4.896   1.742  0.0752 -0.2009 -0.1977
 1592SOL    HW1 9714   7.253   4.991   1.757  0.6174 -0.5005  1.9244
 1592SOL    HW2 9715   7.171   4.866   1.784  1.0220 -0.9380  1.1539
 1593SOL     OW 9716   7.292   7.949   0.229  0.2498  0.2397  0.4752
 1593SOL    HW1 9717   7.261   7.917   0.314 -1.3907 -0.1089 -0.2256
 1593SOL    HW2 9718   7.323   7.870   0.184 -0.8533  0.0949 -0.0462
 1594SOL     OW 9719   7.612   7.042   6.275  0.4572 -0.7426  0.5362
 1594SOL    HW1 9720   7.604   7.123   6.225  0.6249 -1.6150 -0.9706
 1594SOL    HW2 9721   7.552   6.981   6.231  1.3100 -1.8186  0.8149
 1595SOL     OW 9722   1.349  10.951   6.661 -0.3923  0.2895 -0.3112
 1595SOL    HW1 9723   1.350  10.866   6.618  0.6495  1.9795 -3.9843
 1595SOL    HW2 9724   1.439  10.966   6.690 -1.0562 -0.7796  2.6493
 1596SOL     OW 9725   5.507   3.121   8.272  0.1583 -0.0207  0.5695
 1596SOL    HW1 9726   5.477   3.100   8.184  1.0402 -0.7449  0.4369
 1596SOL    HW2 9727   5.457   3.200   8.296  0.7879  0.9172 -1.0469
 1597SOL     OW 9728   1.150  11.044  11.465 -0.1965 -0.1472 -0.2722
 1597SOL    HW1 9729   1.225  10.991  11.439 -0.2529 -0.0510 -0.6421
 1597SOL    HW2 9730   1.109  11.069  11.382 -2.2718 -2.4980 -0.0648
 1598SOL     OW 9731   7.059  11.327   4.703 -0.4295 -0.2991 -0.4082
 1598SOL    HW1 9732   7.095  11.362   4.785 -1.9267  0.0218  0.1551
 1598SOL    HW2 9733   6.996  11.393   4.675  0.4234 -0.1754 -2.1147
 1599SOL     OW 9734  11.372   5.999   6.979  0.0672  0.0369 -0.0296
 1599SOL    HW1 9735  11.451   5.981   6.928  0.8352  3.1083 -0.1015
 1599SOL    HW2 9736  11.337   5.912   7.000  4.2163 -1.5767  1.2605
 1600SOL     OW 9737   3.690   5.990   2.160  0.0899 -0.3044  0.4049
 1600SOL    HW1 9738   3.625   5.928   2.128 -1.7038  1.2951  0.7543
 1600SOL    HW2 9739   3.762   5.936   2.193 -0.8845 -2.1251 -0.3466
 1601SOL     OW 9740   5.044   3.633   2.677  0.3222  0.2464  0.7352
 1601SOL    HW1 9741   5.016   3.656   2.766  0.2651 -0.2561  0.8523
 1601SOL    HW2 9742   5.113   3.568   2.691 -1.6846 -2.0637  0.3880
 1602SOL     OW 9743  11.600   3.504   1.976 -0.1665 -1.0235 -0.3423
 1602SOL    HW1 9744  11.528   3.465   1.926 -0.4328 -0.1832 -0.6212
 1602SOL    HW2 9745  11.645   3.429   2.015 -0.8484 -1.5921 -0.6302
 1603SOL     OW 9746  10.562   7.596   7.162 -0.2305 -0.0039  0.0478
 1603SOL    HW1 9747  10.582   7.562   7.249 -2.4800 -0.4412  0.4423
 1603SOL    HW2 9748  10.528   7.684   7.177  1.0738  0.6321 -0.5743
 1604SOL     OW 9749   0.491   5.696   7.401 -0.5197 -0.2427 -0.4632
 1604SOL    HW1 9750   0.577   5.669   7.371 -0.3830  0.3798 -0.6496
 1604SOL    HW2 9751   0.435   5.690   7.324 -0.3856  0.4259 -0.6208
 1605SOL     OW 9752   7.608   5.558   2.200  0.0558 -0.2815 -0.0675
 1605SOL    HW1 9753   7.590   5.511   2.119  2.4689  0.7636 -1.3159
 1605SOL    HW2 9754   7.601   5.651   2.176  1.7417  0.0567  0.6274
 1606SOL     OW 9755   3.387   9.861   8.384 -0.0771 -0.0608 -0.2427
 1606SOL    HW1 9756   3.417   9.951   8.372 -0.8608  0.1030 -1.1678
 1606SOL    HW2 9757   3.456   9.818   8.435  0.0273  1.2162  0.7364
 1607SOL     OW 9758   8.395  10.478  10.020  0.1057 -0.0012 -0.1718
 1607SOL    HW1 9759   8.449  10.408  10.055 -0.1769 -0.7824 -1.2703
 1607SOL    HW2 9760   8.321  10.434   9.979 -0.4310  0.9718 -0.2909
 1608SOL     OW 9761   1.597  11.475  11.319 -0.0268 -0.3955 -0.5771
 1608SOL    HW1 9762   1.585  11.452  11.227  0.5078  0.6777 -0.9244
 1608SOL    HW2 9763   1.525  11.535  11.338  0.1947 -0.1682 -0.4571
 1609SOL     OW 9764   8.846   5.517   8.701 -0.6753  0.0838 -0.2127
 1609SOL    HW1 9765   8.897   5.594   8.729 -0.9705  0.1701  0.0974
 1609SOL    HW2 9766   8.795   5.548   8.627 -1.9688  0.6410  0.8661
 1610SOL     OW 9767   7.227   3.035  11.562 -0.1372  0.0207  0.4562
 1610SOL    HW1 9768   7.202   3.109  11.618 -1.4390  0.8695 -1.1437
 1610SOL    HW2 9769   7.157   2.970  11.576  0.3249 -0.3899  0.9008
 1611SOL     OW 9770   2.188   1.055   9.212 -0.0048  0.1611 -0.4421
 1611SOL    HW1 9771   2.237   1.007   9.279 -1.6278 -1.1370 -0.1247
 1611SOL    HW2 9772   2.099   1.022   9.219 -0.4705  0.8453 -2.4769
 1612SOL     OW 9773   6.630   0.540   9.213 -0.0406  0.2417  0.1931
 1612SOL    HW1 9774   6.715   0.561   9.251 -0.1044  0.0740  0.4324
 1612SOL    HW2 9775   6.651   0.495   9.131  0.1438 -1.5733  1.1798
 1613SOL     OW 9776  10.727   6.576   0.140  0.1224  0.0432 -0.3346
 1613SOL    HW1 9777  10.690   6.487   0.142 -0.3245  0.1449 -2.2082
 1613SOL    HW2 9778  10.690   6.619   0.217 -3.7442  0.1167 -2.0245
 1614SOL     OW 9779   0.328   4.563   1.472  0.2722 -0.2196 -0.1510
 1614SOL    HW1 9780   0.241   4.602   1.467  0.1531 -0.2636  1.2130
 1614SOL    HW2 9781   0.320   4.481   1.423 -0.6493 -0.5454  0.5107
 1615SOL     OW 9782   5.904   4.156   1.152 -0.3458 -0.0962 -0.0654
 1615SOL    HW1 9783   5.872   4.067   1.163 -0.3132 -0.3329 -1.6678
 1615SOL    HW2 9784   5.996   4.153   1.179 -0.3665 -0.5237 -0.0452
 1616SOL     OW 9785  11.349   2.721   9.947  0.5238 -0.1664 -0.6762
 1616SOL    HW1 9786  11.436   2.721   9.988  0.1590 -2.3260  0.2382
 1616SOL    HW2 9787  11.293   2.767  10.010  0.6051 -0.6667 -0.2288
 1617SOL     OW 9788   3.775   7.424   9.696 -0.1763 -0.2054 -0.1459
 1617SOL    HW1 9789   3.870   7.409   9.695  0.4655  2.9841  1.5513
 1617SOL    HW2 9790   3.739   7.344   9.657  3.1588 -1.5814 -0.8288
 1618SOL     OW 9791   9.839   2.624   6.354 -0.6713 -0.4206 -0.2043
 1618SOL    HW1 9792   9.877   2.593   6.436  0.9835 -0.3964 -0.9266
 1618SOL    HW2 9793   9.835   2.719   6.363  0.4731 -0.3235 -0.5072
 1619SOL     OW 9794   1.734   5.748   2.826 -0.3834  0.2892  0.4255
 1619SOL    HW1 9795   1.811   5.803   2.815 -0.3224  0.3851  1.2463
 1619SOL    HW2 9796   1.705   5.729   2.737 -0.0125  1.0953  0.1193
 1620SOL     OW 9797   3.113   9.797   1.206  0.0827  0.0474  0.4561
 1620SOL    HW1 9798   3.109   9.846   1.124 -0.9630 -0.2595  0.3046
 1620SOL    HW2 9799   3.047   9.728   1.195  0.0999 -0.1345  1.4647
 1621SOL     OW 9800   5.862   0.109   8.821 -0.3546  0.3127 -0.0017
 1621SOL    HW1 9801   5.930   0.176   8.833  1.0348 -0.9755 -0.3666
 1621SOL    HW2 9802   5.824   0.098   8.908 -0.0895  1.0430  0.2151
 1622SOL     OW 9803   7.195   7.962   1.633  0.4616 -0.3880  0.3587
 1622SOL    HW1 9804   7.191   7.870   1.661  0.2586  0.1756  2.3382
 1622SOL    HW2 9805   7.179   8.012   1.713  2.2243  1.4110 -0.3365
 1623SOL     OW 9806  11.411   3.348   1.638  0.2487  0.0937  0.2759
 1623SOL    HW1 9807  11.347   3.302   1.585  0.6323 -0.8811  0.6422
 1623SOL    HW2 9808  11.436   3.424   1.585 -0.3212 -0.1663 -0.3729
 1624SOL     OW 9809   5.279   4.178   7.571  0.3889  0.2192 -0.0895
 1624SOL    HW1 9810   5.235   4.262   7.564  1.4122  0.6717 -1.2839
 1624SOL    HW2 9811   5.291   4.149   7.481  0.7047 -0.8713  0.2864
 1625SOL     OW 9812   1.904   6.706  10.426  0.6620  0.0917 -0.2928
 1625SOL    HW1 9813   1.912   6.801  10.432 -0.1355  0.1968 -0.7265
 1625SOL    HW2 9814   1.879   6.678  10.514 -1.0824  0.5127 -0.6305
 1626SOL     OW 9815   2.907   3.313   8.929 -0.8433  0.0427  0.2855
 1626SOL    HW1 9816   2.884   3.228   8.968  0.1108 -0.6919 -0.6834
 1626SOL    HW2 9817   2.927   3.369   9.004 -1.6856 -0.5169  0.9538
 1627SOL     OW 9818   7.786   9.071   0.303 -0.0391  0.0888  0.0112
 1627SOL    HW1 9819   7.799   9.127   0.226  1.5123 -0.0231  0.1611
 1627SOL    HW2 9820   7.714   9.014   0.278  0.5822 -0.1105 -1.4786
 1628SOL     OW 9821   1.177   7.864   5.694 -0.1826  0.1836 -0.7057
 1628SOL    HW1 9822   1.258   7.863   5.644 -0.4507 -1.0916 -1.1627
 1628SOL    HW2 9823   1.158   7.957   5.708  0.0536  0.5767 -2.7286
 1629SOL     OW 9824   0.312   1.486  11.002 -0.0954  0.0319 -0.1498
 1629SOL    HW1 9825   0.266   1.412  11.041 -0.8291  0.6791  0.2381
 1629SOL    HW2 9826   0.260   1.563  11.027  0.9321  0.7349 -0.1051
 1630SOL     OW 9827  10.697   8.582   9.901  0.7358 -0.1129  0.1782
 1630SOL    HW1 9828  10.790   8.561   9.906  0.5078 -0.9341  1.3244
 1630SOL    HW2 9829  10.665   8.571   9.990 -0.3745  0.6272 -0.1028
 1631SOL     OW 9830   8.003   4.374   9.794 -0.9981 -0.2505  0.8027
 1631SOL    HW1 9831   7.967   4.396   9.708 -0.1297  0.7403  0.6781
 1631SOL    HW2 9832   7.985   4.281   9.804 -2.4723 -0.0593  0.2118
 1632SOL     OW 9833   3.536   8.925   8.709  0.5836 -0.1390 -0.4494
 1632SOL    HW1 9834   3.548   8.853   8.648 -0.4324 -0.0237 -0.7925
 1632SOL    HW2 9835   3.458   8.902   8.759 -0.5652  1.3330 -1.4763
 1633SOL     OW 9836   7.023   4.751   6.234 -0.1351  0.1238 -0.8107
 1633SOL    HW1 9837   6.998   4.801   6.312  2.4067 -1.4313  1.1830
 1633SOL    HW2 9838   6.957   4.682   6.227  0.2946 -0.4934  0.8187
 1634SOL     OW 9839   9.451   8.595   1.123  0.3228  0.5147 -0.2674
 1634SOL    HW1 9840   9.513   8.668   1.124  2.5812 -1.2680 -0.0910
 1634SOL    HW2 9841   9.408   8.599   1.209  0.3060  1.6913 -0.3158
 1635SOL     OW 9842   5.853   8.141   5.325  0.0324  0.2593  0.2985
 1635SOL    HW1 9843   5.836   8.056   5.365  1.1783  0.2442  0.7952
 1635SOL    HW2 9844   5.943   8.135   5.292  0.2065  1.3360  0.5237
 1636SOL     OW 9845   1.547   7.507   1.365  0.3395  0.2457  0.7767
 1636SOL    HW1 9846   1.565   7.413   1.364 -1.1143 -0.0684  1.3280
 1636SOL    HW2 9847   1.504   7.522   1.449 -1.2923  1.0156 -0.1458
 1637SOL     OW 9848   2.345   4.865   4.360  0.0584 -0.0890  0.4961
 1637SOL    HW1 9849   2.284   4.928   4.398  0.2873 -0.5601  1.6722
 1637SOL    HW2 9850   2.350   4.794   4.424  0.9749 -0.5929 -0.1078
 1638SOL     OW 9851   5.579   5.312  11.192 -0.0279  0.0532 -0.3005
 1638SOL    HW1 9852   5.494   5.320  11.235  0.8565 -0.7856  1.7423
 1638SOL    HW2 9853   5.617   5.400  11.199  0.0691 -0.0547  0.5664
 1639SOL     OW 9854   9.245   3.918   7.976 -0.1040  0.0547 -0.3422
 1639SOL    HW1 9855   9.273   3.925   7.885  0.3400 -0.6289 -0.2655
 1639SOL    HW2 9856   9.156   3.952   7.976  0.5000  1.7342 -0.7007
 1640SOL     OW 9857   1.245   5.089   0.395  0.1661 -1.2085 -0.5083
 1640SOL    HW1 9858   1.276   5.048   0.314 -1.8622 -0.7970 -1.5705
 1640SOL    HW2 9859   1.154   5.110   0.377  0.3434  1.2049  1.0072
 1641SOL     OW 9860   5.146   0.976   6.416 -0.3280  0.1095 -0.9722
 1641SOL    HW1 9861   5.190   0.947   6.336  1.9363 -0.9046  0.5180
 1641SOL    HW2 9862   5.102   0.897   6.449 -0.6114  0.3279 -0.8188
 1642SOL     OW 9863   3.113   9.149   6.970 -0.2451  0.1813  0.5094
 1642SOL    HW1 9864   3.055   9.221   6.997  1.1304  0.9801  1.4286
 1642SOL    HW2 9865   3.200   9.188   6.968  0.1839 -0.7466 -1.8560
 1643SOL     OW 9866   3.163  10.345   7.873  0.1004  0.1833 -0.2884
 1643SOL    HW1 9867   3.257  10.333   7.883  0.0396  0.1879  0.3773
 1643SOL    HW2 9868   3.136  10.392   7.952 -0.6062 -0.6649 -0.0057
 1644SOL     OW 9869   1.761   1.844   1.483  0.1117 -0.6671  0.7468
 1644SOL    HW1 9870   1.698   1.851   1.554  0.4797  0.7972  0.9525
 1644SOL    HW2 9871   1.782   1.751   1.479  1.0844 -0.6388  3.4593
 1645SOL     OW 9872  10.453   7.250   5.232 -0.4258  0.0137  0.0245
 1645SOL    HW1 9873  10.529   7.215   5.185 -0.5003  0.5897 -0.5430
 1645SOL    HW2 9874  10.385   7.254   5.165 -0.9696 -0.5175  0.5327
 1646SOL     OW 9875   2.814   9.934   0.356  0.2612  0.2520  0.1486
 1646SOL    HW1 9876   2.857   9.883   0.425  1.5160  0.8168 -0.1750
 1646SOL    HW2 9877   2.850   9.897   0.275  0.1741  0.7784 -0.1315
 1647SOL     OW 9878   7.486   8.164   5.914  0.2052 -0.5245  0.1109
 1647SOL    HW1 9879   7.473   8.196   5.825  2.6010 -0.2649 -0.1934
 1647SOL    HW2 9880   7.450   8.233   5.970 -1.5054 -0.7831 -0.5962
 1648SOL     OW 9881   2.655   6.491   2.428  0.2055 -0.3903 -0.1591
 1648SOL    HW1 9882   2.617   6.415   2.472  0.5209  0.2280  1.2394
 1648SOL    HW2 9883   2.612   6.494   2.343 -0.8589 -1.2908  0.3305
 1649SOL     OW 9884   9.882   7.910   0.547  0.5779  0.4916  0.0300
 1649SOL    HW1 9885   9.874   8.000   0.579 -1.1521 -0.3440  2.2688
 1649SOL    HW2 9886   9.861   7.856   0.624  0.5051 -1.7990 -1.5118
 1650SOL     OW 9887   3.544   8.232   2.402  0.5170 -0.1910 -0.2502
 1650SOL    HW1 9888   3.601   8.172   2.353  0.8473 -0.2873  0.2400
 1650SOL    HW2 9889   3.499   8.282   2.335  0.8224 -0.4519 -0.6576
 1651SOL     OW 9890  11.152   4.860   5.926 -0.1098 -0.3192  0.2158
 1651SOL    HW1 9891  11.116   4.803   5.994  0.2135 -0.2131  0.4737
 1651SOL    HW2 9892  11.168   4.943   5.970 -0.1122 -0.1802 -0.0457
 1652SOL     OW 9893   9.634   6.891   5.411 -0.2500 -0.3140 -0.2384
 1652SOL    HW1 9894   9.721   6.893   5.450  0.0429 -0.0848 -0.8875
 1652SOL    HW2 9895   9.605   6.800   5.423  0.0673 -0.3875  0.0007
 1653SOL     OW 9896   3.443   2.659   4.679 -0.5168 -0.0138  0.1752
 1653SOL    HW1 9897   3.355   2.664   4.642 -1.4083  0.7128  2.2916
 1653SOL    HW2 9898   3.499   2.695   4.610 -2.3756  3.4050  0.2600
 1654SOL     OW 9899   9.907   8.855   2.791 -0.0802 -0.0392 -0.3694
 1654SOL    HW1 9900   9.815   8.874   2.773 -0.2718 -1.0215 -0.4410
 1654SOL    HW2 9901   9.954   8.926   2.747 -0.7719  0.2123 -0.7271
 1655SOL     OW 9902   3.480   9.038   7.452  0.0008 -0.2153  0.1405
 1655SOL    HW1 9903   3.496   8.946   7.471 -3.0707 -1.1109 -1.0695
 1655SOL    HW2 9904   3.428   9.038   7.371  1.6219  2.7256 -1.0822
 1656SOL     OW 9905   7.031   4.900   0.285  0.1758  0.4103 -0.6062
 1656SOL    HW1 9906   7.043   4.963   0.355 -0.1324  1.2336 -1.2730
 1656SOL    HW2 9907   7.070   4.942   0.208  2.0067 -1.1504 -0.6248
 1657SOL     OW 9908  10.664   9.502   9.550 -0.4651 -0.2234 -0.2193
 1657SOL    HW1 9909  10.681   9.591   9.583  0.1064 -0.0395 -0.9815
 1657SOL    HW2 9910  10.569   9.498   9.540 -0.4299  0.7058 -1.2205
 1658SOL     OW 9911   9.271   8.302  11.047 -0.7995 -0.1224  0.2817
 1658SOL    HW1 9912   9.211   8.235  11.013  0.4100 -1.1215  0.0653
 1658SOL    HW2 9913   9.351   8.292  10.996 -0.4676  1.2952  0.4628
 1659SOL     OW 9914   2.794   3.385   0.710 -0.1070 -0.0525  0.1305
 1659SOL    HW1 9915   2.830   3.401   0.797 -2.0047  2.3127  0.5693
 1659SOL    HW2 9916   2.728   3.316   0.724 -0.9726  0.8773  0.7590
 1660SOL     OW 9917   1.093   1.578  11.223  0.4261 -0.0578  0.3761
 1660SOL    HW1 9918   1.113   1.537  11.139 -1.6300  0.5898 -0.4836
 1660SOL    HW2 9919   1.007   1.617  11.211  0.9894  1.9021  2.1347
 1661SOL     OW 9920   6.758  10.131   7.210  0.4294 -0.5348 -0.1764
 1661SOL    HW1 9921   6.668  10.139   7.242  0.4006  1.3473 -0.6083
 1661SOL    HW2 9922   6.807  10.196   7.260  1.3779 -0.9120 -0.5965
 1662SOL     OW 9923   7.847   8.443   8.375  0.4606  0.2956  0.2683
 1662SOL    HW1 9924   7.754   8.460   8.364  0.2661  0.4827  1.9398
 1662SOL    HW2 9925   7.862   8.359   8.331 -0.3435  0.6050 -0.6052
 1663SOL     OW 9926   4.602   0.548   2.870 -0.4910  0.0426 -0.7086
 1663SOL    HW1 9927   4.577   0.633   2.834  1.4215  0.8113 -0.4007
 1663SOL    HW2 9928   4.676   0.569   2.928  0.4100 -1.9179 -1.0977
 1664SOL     OW 9929   3.530   9.239   0.495 -0.4268  0.4058 -0.5369
 1664SOL    HW1 9930   3.514   9.272   0.583  0.4195 -1.8022  0.5167
 1664SOL    HW2 9931   3.622   9.213   0.495 -0.5587 -0.1562 -1.8936
 1665SOL     OW 9932   6.141   2.319   6.891  0.1744 -0.1357  0.0340
 1665SOL    HW1 9933   6.068   2.355   6.842 -1.6032 -0.9901  1.9017
 1665SOL    HW2 9934   6.213   2.381   6.876 -0.5059  0.0986 -2.8182
 1666SOL     OW 9935   2.005   6.815   2.928 -0.0728  0.4623 -0.1177
 1666SOL    HW1 9936   1.945   6.740   2.927  0.9913 -0.4401  0.8265
 1666SOL    HW2 9937   1.982   6.863   3.008 -0.0105  0.5142 -0.1306
 1667SOL     OW 9938   3.898   7.043   0.327 -0.1726 -0.1463  0.2001
 1667SOL    HW1 9939   3.854   6.974   0.277 -0.6071 -0.0794  0.4764
 1667SOL    HW2 9940   3.891   7.121   0.273  1.4388 -0.5776 -0.6926
 1668SOL     OW 9941   9.034   7.833   2.047 -0.3235  0.0211 -0.1833
 1668SOL    HW1 9942   9.085   7.778   1.987 -0.2861  1.2018 -1.2706
 1668SOL    HW2 9943   8.958   7.861   1.995 -0.9649  0.0441  0.7381
 1669SOL     OW 9944   4.018   7.653   9.445 -0.3342  0.4512 -0.0493
 1669SOL    HW1 9945   3.990   7.564   9.426 -0.5776  0.1560  1.5841
 1669SOL    HW2 9946   4.045   7.652   9.536  0.4218  1.8776 -0.2151
 1670SOL     OW 9947  11.098   6.870   2.616  0.5384  0.0809 -0.0380
 1670SOL    HW1 9948  11.194   6.865   2.621  0.5982 -0.0040 -1.0697
 1670SOL    HW2 9949  11.081   6.947   2.561  0.0058  0.3509  0.5011
 1671SOL     OW 9950   3.224   1.332  11.469 -0.5034  0.0499  0.2410
 1671SOL    HW1 9951   3.142   1.379  11.485 -1.1995 -0.9136 -0.3730
 1671SOL    HW2 9952   3.292   1.399  11.479 -1.2663  0.6572  1.7894
 1672SOL     OW 9953   6.934   9.328   2.691 -0.1241 -0.3261 -0.0484
 1672SOL    HW1 9954   6.978   9.407   2.659 -1.7112  0.2872 -0.8040
 1672SOL    HW2 9955   6.856   9.320   2.636 -0.0506 -2.3904  0.0574
 1673SOL     OW 9956   2.661   7.992   2.130  0.0856 -0.0217  0.2330
 1673SOL    HW1 9957   2.707   7.941   2.063 -0.5566 -0.4221  0.0940
 1673SOL    HW2 9958   2.665   7.938   2.209 -1.2625 -0.6617 -0.1076
 1674SOL     OW 9959   6.759   0.102  10.654  0.3055  0.0674 -0.3141
 1674SOL    HW1 9960   6.806   0.155  10.718  1.0720 -0.7895 -0.1336
 1674SOL    HW2 9961   6.667   0.126  10.665  0.4048 -0.1274  1.1912
 1675SOL     OW 9962   8.943   1.992   7.170 -0.6347 -0.5084  1.0526
 1675SOL    HW1 9963   9.033   2.016   7.152 -0.9078  0.1670  0.5498
 1675SOL    HW2 9964   8.899   2.075   7.190 -1.5891 -0.5377 -0.7097
 1676SOL     OW 9965  11.147  11.006   6.065  0.3332  0.2563 -0.5625
 1676SOL    HW1 9966  11.079  10.951   6.103  1.1490 -0.7713 -0.5538
 1676SOL    HW2 9967  11.193  10.949   6.003  1.6381  0.7013 -0.0508
 1677SOL     OW 9968   0.032   6.927   1.334  0.4973  0.2922  0.2626
 1677SOL    HW1 9969   0.082   6.996   1.377 -0.7937  0.7499  1.0803
 1677SOL    HW2 9970   0.016   6.863   1.402 -2.4422  1.5033  0.8418
 1678SOL     OW 9971   9.560  11.442   0.186 -0.2126 -0.4804 -0.6569
 1678SOL    HW1 9972   9.510  11.486   0.117  0.1986 -0.2957 -0.8451
 1678SOL    HW2 9973   9.585  11.358   0.147 -0.8290 -0.8053 -0.3685
 1679SOL     OW 9974   8.527   4.780   5.364 -0.2090 -0.0012 -0.1790
 1679SOL    HW1 9975   8.611   4.765   5.408 -0.1445 -0.6936 -0.5281
 1679SOL    HW2 9976   8.467   4.805   5.434  0.6221  1.9909 -0.0926
 1680SOL     OW 9977   5.745   1.386   7.096 -0.0989 -0.2841 -0.0853
 1680SOL    HW1 9978   5.766   1.444   7.169 -0.2115  1.5322 -1.4430
 1680SOL    HW2 9979   5.687   1.320   7.134 -0.7221  1.0207  1.3142
 1681SOL     OW 9980   4.118   0.910  10.918 -0.1950  0.3173 -0.0129
 1681SOL    HW1 9981   4.060   0.939  10.847 -0.7099 -0.1788  0.2033
 1681SOL    HW2 9982   4.204   0.902  10.877 -1.0031 -2.7755 -1.3306
 1682SOL     OW 9983   4.638   8.064  10.910 -0.1686 -0.7882  0.1051
 1682SOL    HW1 9984   4.689   8.121  10.853 -0.3769 -0.8311 -0.1270
 1682SOL    HW2 9985   4.678   8.073  10.996 -0.9125  0.5955  0.3340
 1683SOL     OW 9986   3.044   2.999   5.044  0.1440 -0.3176  0.2024
 1683SOL    HW1 9987   3.054   2.906   5.020  2.0218  0.1100 -0.8258
 1683SOL    HW2 9988   3.097   3.009   5.123 -2.0274 -0.6039  1.7813
 1684SOL     OW 9989   1.146   0.079  11.402  0.3834 -0.3045  0.0795
 1684SOL    HW1 9990   1.102   0.043  11.325 -1.4664  0.4635  0.7046
 1684SOL    HW2 9991   1.110   0.030  11.476 -2.4493  2.7469  0.9972
 1685SOL     OW 9992   6.374   9.431   5.437  0.3326  0.6482  0.4595
 1685SOL    HW1 9993   6.298   9.374   5.427 -0.2666  1.4921  0.0484
 1685SOL    HW2 9994   6.444   9.374   5.467 -0.3985 -0.1920  0.5822
 1686SOL     OW 9995   2.451   2.082   8.167  0.3346  0.2809  0.4594
 1686SOL    HW1 9996   2.447   1.995   8.128 -1.8785  0.5188  0.0471
 1686SOL    HW2 9997   2.474   2.066   8.259  1.1996 -0.6123  0.1034
 1687SOL     OW 9998  10.803   8.965   4.509 -0.8353 -0.1412  0.2270
 1687SOL    HW1 9999  10.836   8.876   4.493 -0.9623 -0.0811 -0.3762
 1687SOL    HW210000  10.756   8.958   4.592  1.5215 -0.0109  1.6623
 1688SOL     OW10001  10.716   4.681   7.570  0.6384  0.3204 -0.1873
 1688SOL    HW110002  10.757   4.765   7.550 -0.6059  0.7573 -1.0455
 1688SOL    HW210003  10.674   4.655   7.488  0.9517 -1.1281  0.0791
 1689SOL     OW10004   3.215   5.176   4.111 -0.2060 -0.1547  0.1107
 1689SOL    HW110005   3.256   5.259   4.137  0.9403 -0.0529 -1.8510
 1689SOL    HW210006   3.137   5.202   4.063 -0.3610 -0.2351  0.3199
 1690SOL     OW10007   1.353  10.763   9.048  0.4814  0.2856 -0.3939
 1690SOL    HW110008   1.327  10.673   9.069 -2.9258  1.1830 -0.1676
 1690SOL    HW210009   1.410  10.754   8.972  1.2022 -2.1034  0.3239
 1691SOL     OW10010   6.527   4.611   3.717 -0.5999 -0.0811  0.0630
 1691SOL    HW110011   6.597   4.677   3.722  0.4872 -1.1850  0.0201
 1691SOL    HW210012   6.481   4.619   3.801  1.7982 -1.6209  1.6719
 1692SOL     OW10013   8.561   8.582   9.738 -0.1657  0.4138  0.0660
 1692SOL    HW110014   8.574   8.670   9.773  0.3443  0.4281 -0.1682
 1692SOL    HW210015   8.503   8.540   9.802 -0.4591  0.9346  0.1456
 1693SOL     OW10016   0.511   5.934   3.400 -0.5386  0.1553 -0.1604
 1693SOL    HW110017   0.595   5.970   3.427 -0.8271  0.8372 -0.1509
 1693SOL    HW210018   0.449   5.961   3.468 -1.0252  0.8341 -0.8448
 1694SOL     OW10019   4.947  10.812   0.790  0.5156 -0.4749  0.1348
 1694SOL    HW110020   4.971  10.785   0.878 -1.1992 -0.8560  0.5216
 1694SOL    HW210021   4.898  10.738   0.754  0.3186  0.0691 -0.7523
 1695SOL     OW10022   5.010   1.327   8.034 -0.1928 -0.4677  0.5249
 1695SOL    HW110023   5.104   1.326   8.015 -0.4339 -0.0100 -0.8219
 1695SOL    HW210024   4.994   1.416   8.067 -0.1706 -0.4976  0.6152
 1696SOL     OW10025   3.217   7.141   1.897 -0.1822 -0.1815  0.0655
 1696SOL    HW110026   3.276   7.119   1.825  0.6544  1.9167  0.0362
 1696SOL    HW210027   3.187   7.056   1.931  0.8612 -1.2440 -1.5323
 1697SOL     OW10028   6.408   9.596   4.539 -0.1059 -0.2923  0.2267
 1697SOL    HW110029   6.441   9.518   4.584 -0.3947 -0.3579  0.3240
 1697SOL    HW210030   6.462   9.603   4.460  1.5962  0.8087  1.4089
 1698SOL     OW10031   8.649   5.955   5.620  0.0597 -0.1634  0.0375
 1698SOL    HW110032   8.616   5.915   5.701 -0.6340  0.3907  0.0285
 1698SOL    HW210033   8.669   5.880   5.564  0.0242 -0.5370  0.5132
 1699SOL     OW10034   5.198   0.861  11.337 -0.1823 -0.4194  0.0989
 1699SOL    HW110035   5.135   0.814  11.391  0.2266 -0.0598  0.9000
 1699SOL    HW210036   5.192   0.819  11.251 -3.9612  1.7101 -0.9347
 1700SOL     OW10037   9.890   9.455   5.001 -0.3350  0.2749 -0.6188
 1700SOL    HW110038   9.909   9.520   4.933  1.9585  0.2208 -0.1256
 1700SOL    HW210039   9.947   9.481   5.074 -0.0945 -1.7109 -0.0550
 1701SOL     OW10040   3.076   6.813   2.671  0.4811 -0.2052  0.0712
 1701SOL    HW110041   3.002   6.823   2.731  0.5612  3.4938 -0.1999
 1701SOL    HW210042   3.153   6.840   2.723  1.1616 -0.8938 -0.5592
 1702SOL     OW10043   9.723   7.440   8.372 -0.5311 -0.1201  0.4866
 1702SOL    HW110044   9.650   7.489   8.409 -0.9646 -1.3151  1.2542
 1702SOL    HW210045   9.683   7.384   8.306 -0.5378 -1.7006  1.7761
 1703SOL     OW10046   2.340   4.337   8.340 -0.2167  0.3652  0.1654
 1703SOL    HW110047   2.350   4.401   8.270  1.8741  1.1400  1.0765
 1703SOL    HW210048   2.391   4.261   8.311 -1.6393 -0.4303 -0.3420
 1704SOL     OW10049   5.133   5.295   3.769 -0.1819  0.3289  0.2991
 1704SOL    HW110050   5.058   5.345   3.738 -2.9137 -3.4213  0.2107
 1704SOL    HW210051   5.131   5.306   3.864 -1.1028 -0.0042  0.3285
 1705SOL     OW10052   4.157   2.340   5.609 -0.0416  0.0779  0.1993
 1705SOL    HW110053   4.115   2.425   5.623  1.5632  0.9197  0.1729
 1705SOL    HW210054   4.133   2.316   5.519 -2.2444 -0.5780  0.8921
 1706SOL     OW10055   6.443   6.127   3.206  0.0962  0.3767 -0.2411
 1706SOL    HW110056   6.388   6.184   3.152 -0.9830  0.1470  0.5831
 1706SOL    HW210057   6.436   6.042   3.164  0.3197  0.4770 -0.4856
 1707SOL     OW10058   0.140   5.756   2.787  0.1272  0.4310  0.0941
 1707SOL    HW110059   0.179   5.710   2.713  0.0793 -2.5090  1.7667
 1707SOL    HW210060   0.138   5.692   2.858 -1.4182  2.5715  2.1681
 1708SOL     OW10061  10.433   8.012   1.663  0.3107  0.5275 -0.1696
 1708SOL    HW110062  10.413   8.068   1.588 -1.8921  1.0560  0.7442
 1708SOL    HW210063  10.348   7.980   1.693  1.3104 -1.3284  0.8775
 1709SOL     OW10064   8.436  10.445   2.692 -0.4252  0.0881  0.0119
 1709SOL    HW110065   8.380  10.430   2.615  0.0151 -1.3326 -0.0549
 1709SOL    HW210066   8.512  10.492   2.657 -0.0918 -0.8094 -0.4831
 1710SOL     OW10067   7.905   0.482   2.785  0.5126 -0.3707 -0.2120
 1710SOL    HW110068   7.870   0.468   2.873 -1.6948  1.1565 -0.7382
 1710SOL    HW210069   7.837   0.449   2.726  2.1436 -1.7866 -1.3947
 1711SOL     OW10070   6.731  11.228   6.065  0.2983  0.1777 -0.5655
 1711SOL    HW110071   6.747  11.322   6.077  1.6070  0.1111 -1.6199
 1711SOL    HW210072   6.638  11.217   6.086  0.7563  1.1925  2.4427
 1712SOL     OW10073   6.816   9.969   9.708 -0.4246 -0.1595 -0.2787
 1712SOL    HW110074   6.883   9.977   9.776 -0.6787  1.2682 -0.1766
 1712SOL    HW210075   6.734   9.957   9.756 -0.3979 -0.8903 -0.3909
 1713SOL     OW10076   2.360   3.461   3.062 -0.5585 -0.2307  0.4807
 1713SOL    HW110077   2.286   3.510   3.025  0.0550  1.6262  1.5673
 1713SOL    HW210078   2.386   3.512   3.138  2.3135 -0.4139 -0.2682
 1714SOL     OW10079   7.642   1.135   6.964 -0.3066  0.0624 -0.2077
 1714SOL    HW110080   7.617   1.074   6.894  0.6065 -1.9084  1.0858
 1714SOL    HW210081   7.731   1.109   6.987  0.4403  2.4994 -0.1471
 1715SOL     OW10082   7.150   0.932  11.565 -0.1433  0.2160 -0.1325
 1715SOL    HW110083   7.112   0.876  11.496  1.2612  0.0926 -0.8288
 1715SOL    HW210084   7.234   0.891  11.585 -0.2866  0.5686  1.2913
 1716SOL     OW10085   2.646   7.322   1.827 -0.2717 -0.5493 -0.4106
 1716SOL    HW110086   2.728   7.356   1.863 -0.9382  0.6057  0.0357
 1716SOL    HW210087   2.647   7.349   1.736 -0.4162 -0.0423 -0.2632
 1717SOL     OW10088   7.898   7.466   1.493  0.0426 -0.3651 -0.9579
 1717SOL    HW110089   7.860   7.459   1.581  1.2704 -0.3102 -0.3920
 1717SOL    HW210090   7.977   7.519   1.506 -0.4553  0.7743 -2.3339
 1718SOL     OW10091   0.452   4.779   8.862  1.0020  0.2411  0.0149
 1718SOL    HW110092   0.510   4.734   8.801  0.8345 -0.9646  0.7134
 1718SOL    HW210093   0.375   4.722   8.868 -0.4712  1.9961 -1.2053
 1719SOL     OW10094   1.536  11.236   7.900  0.0965  0.0239  0.0329
 1719SOL    HW110095   1.520  11.145   7.875 -0.7988 -0.0401  0.7677
 1719SOL    HW210096   1.593  11.230   7.977  1.8201  0.1803 -1.1674
 1720SOL     OW10097   2.954  10.005   2.763  0.2571 -0.0368 -0.1019
 1720SOL    HW110098   2.986   9.996   2.673 -0.3269 -1.3701 -0.2000
 1720SOL    HW210099   2.926  10.096   2.770 -1.0324 -0.2621 -1.7357
 1721SOL     OW10100   8.612   2.494   4.208 -0.0963 -0.2188  0.4562
 1721SOL    HW110101   8.584   2.500   4.300 -0.3318 -1.4301  0.4881
 1721SOL    HW210102   8.593   2.580   4.171  0.4561  0.4490  1.6670
 1722SOL     OW10103   6.918   2.593   9.317 -0.1921  0.1546 -0.0302
 1722SOL    HW110104   6.953   2.674   9.280  0.3034 -0.0265  0.0390
 1722SOL    HW210105   6.980   2.525   9.290 -0.3401 -0.1263  0.3286
 1723SOL     OW10106   7.194   7.912  11.049 -0.5275 -0.2702  0.4055
 1723SOL    HW110107   7.205   7.865  10.966  0.0890  0.8705 -0.1884
 1723SOL    HW210108   7.105   7.892  11.077 -1.1018  0.1233 -1.0651
 1724SOL     OW10109   5.338   3.091   7.607 -0.1120  0.0882  0.0062
 1724SOL    HW110110   5.408   3.080   7.671 -0.7912  0.0938  0.7698
 1724SOL    HW210111   5.318   3.002   7.579  0.1751  0.0833 -0.1811
 1725SOL     OW10112   8.287   8.377   8.531 -0.4125  0.0600  0.1155
 1725SOL    HW110113   8.223   8.448   8.523 -0.1579  0.1785 -1.1085
 1725SOL    HW210114   8.233   8.299   8.545 -0.7021  0.4515  1.3011
 1726SOL     OW10115   0.384  11.377   2.335  0.0486  0.5261  0.0140
 1726SOL    HW110116   0.303  11.327   2.322  0.2856  0.9029 -3.8356
 1726SOL    HW210117   0.452  11.311   2.342 -0.1579  0.2342 -0.6512
 1727SOL     OW10118   9.316   8.214   3.792  0.3224 -0.0751  0.2494
 1727SOL    HW110119   9.262   8.293   3.792  1.1161  0.5647 -2.5082
 1727SOL    HW210120   9.405   8.246   3.812  0.4090 -0.5060  0.5712
 1728SOL     OW10121  11.223   9.775   1.085 -0.0968  0.0318 -0.0327
 1728SOL    HW110122  11.209   9.823   1.167 -0.4709 -1.6500  0.9478
 1728SOL    HW210123  11.137   9.740   1.062  0.1156  0.0272 -0.8561
 1729SOL     OW10124   8.193   4.336   6.246 -0.9158 -0.5234  0.1947
 1729SOL    HW110125   8.268   4.394   6.253 -1.0163 -0.3099 -0.4201
 1729SOL    HW210126   8.125   4.377   6.299 -1.3448  0.5193 -1.0975
 1730SOL     OW10127   4.704   8.963   9.228  0.0295  0.1200 -0.0305
 1730SOL    HW110128   4.716   8.877   9.187  2.4591  0.7883 -0.9022
 1730SOL    HW210129   4.754   9.023   9.173 -0.9893  1.9915  0.9836
 1731SOL     OW10130   4.106  10.335   1.282  0.2483  0.1437 -0.2446
 1731SOL    HW110131   4.035  10.308   1.340  0.8151 -1.0085 -0.0332
 1731SOL    HW210132   4.129  10.255   1.235  1.8024  0.3261  0.1476
 1732SOL     OW10133   1.557   3.583   7.088 -0.3032  0.7781 -0.6112
 1732SOL    HW110134   1.623   3.559   7.153 -1.1074 -0.5174 -0.2435
 1732SOL    HW210135   1.550   3.679   7.095 -0.1625  0.6899  0.9930
 1733SOL     OW10136   9.744   0.760   1.631 -0.5294  0.1838 -0.0309
 1733SOL    HW110137   9.739   0.733   1.539 -1.1649 -1.6776  0.5104
 1733SOL    HW210138   9.653   0.770   1.658 -0.3501  0.4863  0.4705
 1734SOL     OW10139   7.663   1.958   5.668 -0.0697  0.4658  0.1894
 1734SOL    HW110140   7.642   1.918   5.584 -0.4130  1.2429 -0.0989
 1734SOL    HW210141   7.593   1.930   5.727 -1.0779  1.7526 -0.3638
 1735SOL     OW10142   6.422  10.878  10.000 -0.4286  0.3880 -0.3301
 1735SOL    HW110143   6.485  10.947  10.021 -1.8552  2.4693 -2.3487
 1735SOL    HW210144   6.464  10.826   9.932  0.5441 -0.6510  1.0083
 1736SOL     OW10145   8.483   8.288   2.481 -0.3130 -0.0065 -0.7243
 1736SOL    HW110146   8.508   8.365   2.531  0.0869 -1.3341  1.2718
 1736SOL    HW210147   8.566   8.253   2.448 -0.6245  1.1969 -2.9521
 1737SOL     OW10148   7.077   5.676   3.710 -0.1587  0.1702  0.5740
 1737SOL    HW110149   7.082   5.610   3.641 -0.1497 -0.0632  0.7959
 1737SOL    HW210150   7.101   5.629   3.790  0.6606  0.6444  0.6081
 1738SOL     OW10151   8.068   4.781   1.739  0.8763 -0.1644 -0.4208
 1738SOL    HW110152   8.037   4.719   1.673  0.5175  0.5617 -0.9482
 1738SOL    HW210153   8.140   4.827   1.697  1.0716 -0.1474 -0.0722
 1739SOL     OW10154   7.047   3.312   3.807 -0.0084 -0.1678  0.3214
 1739SOL    HW110155   7.037   3.237   3.865  1.8208  0.9903  2.2742
 1739SOL    HW210156   7.038   3.388   3.864  1.3734  1.0512 -0.9879
 1740SOL     OW10157   7.446   8.890   1.155  0.2704 -0.6514 -0.3852
 1740SOL    HW110158   7.352   8.897   1.173  0.3560  1.2416 -0.4421
 1740SOL    HW210159   7.452   8.875   1.061  0.0341 -0.5508 -0.4163
 1741SOL     OW10160   6.844   1.400   4.945 -0.3471  0.2940  0.2267
 1741SOL    HW110161   6.921   1.348   4.921 -0.6993 -0.7643  1.2771
 1741SOL    HW210162   6.829   1.457   4.870  1.1788  0.1901 -0.1881
 1742SOL     OW10163   3.733   5.560   3.909 -0.6042  0.2443 -0.2449
 1742SOL    HW110164   3.708   5.652   3.905 -2.9981 -0.3296 -0.6695
 1742SOL    HW210165   3.661   5.519   3.958  0.2615 -1.4361 -0.3247
 1743SOL     OW10166   1.584   6.649   6.864  0.5613 -0.9771 -0.1175
 1743SOL    HW110167   1.575   6.613   6.952  0.2112 -0.9647 -0.1456
 1743SOL    HW210168   1.580   6.744   6.877 -0.3668 -0.9914 -0.2320
 1744SOL     OW10169  10.920   7.945  10.033 -0.6690 -0.2268 -0.7217
 1744SOL    HW110170  10.941   8.037  10.015 -1.6892  0.2480  0.3351
 1744SOL    HW210171  10.970   7.896   9.968  0.5528  1.0222 -0.7971
 1745SOL     OW10172  11.177   6.306  10.584  0.2827 -0.3987 -0.3284
 1745SOL    HW110173  11.102   6.310  10.644  0.0761 -0.7525 -0.5580
 1745SOL    HW210174  11.178   6.215  10.554  0.8929 -0.4279 -0.2210
 1746SOL     OW10175   1.519   8.244  10.997  0.5808  0.4693 -0.4223
 1746SOL    HW110176   1.449   8.269  11.057 -0.4702 -0.3653 -1.2488
 1746SOL    HW210177   1.599   8.282  11.035 -0.2063  0.8449  0.9118
 1747SOL     OW10178   6.452   7.082   9.176 -0.0569 -0.2791  0.1070
 1747SOL    HW110179   6.416   7.001   9.213  0.0358 -0.0786  0.6439
 1747SOL    HW210180   6.390   7.150   9.201  0.4995  0.0104  0.7430
 1748SOL     OW10181   5.551   1.090  10.245  0.4560 -0.0924 -0.5467
 1748SOL    HW110182   5.522   1.139  10.323 -0.3201  0.4479 -1.1610
 1748SOL    HW210183   5.505   1.006  10.251 -1.6027  0.8774 -1.6815
 1749SOL     OW10184   8.225   6.741   2.126  0.6739 -0.0634 -0.1014
 1749SOL    HW110185   8.233   6.829   2.165  1.2227 -0.4503  0.7056
 1749SOL    HW210186   8.231   6.756   2.032  2.4910  0.6331  0.0647
 1750SOL     OW10187   5.647   1.206   2.638  0.3937 -1.2411 -0.6149
 1750SOL    HW110188   5.591   1.203   2.559  0.9408 -0.5835 -1.0431
 1750SOL    HW210189   5.736   1.198   2.604  0.7681  0.8867 -0.2762
 1751SOL     OW10190   7.415   5.621   6.529  0.2607 -0.2253  0.3391
 1751SOL    HW110191   7.356   5.567   6.477  1.8310 -0.0388 -1.7814
 1751SOL    HW210192   7.465   5.559   6.581  0.2780 -0.6357 -0.1576
 1752SOL     OW10193   4.008   6.433   7.566 -0.3373 -0.3857  0.2470
 1752SOL    HW110194   4.041   6.521   7.585  2.3709 -1.2727  0.0262
 1752SOL    HW210195   4.000   6.391   7.652 -2.7653  0.3617  0.4619
 1753SOL     OW10196   0.676   5.832   6.685 -0.1717  0.1368  0.2409
 1753SOL    HW110197   0.760   5.876   6.699 -0.8832  1.2093  1.2634
 1753SOL    HW210198   0.700   5.741   6.666  1.3479  0.9408 -2.1569
 1754SOL     OW10199   7.001  11.175   3.671  0.0769 -0.1619  0.1542
 1754SOL    HW110200   7.073  11.218   3.624  0.8727 -0.3791  1.1585
 1754SOL    HW210201   6.927  11.234   3.659  0.6669  0.5472 -0.0869
 1755SOL     OW10202   2.078   0.338  10.880 -0.0065  0.7390 -0.1677
 1755SOL    HW110203   2.102   0.416  10.929 -2.0212  0.8211  0.8211
 1755SOL    HW210204   1.982   0.339  10.878 -0.1754 -2.1951  0.7822
 1756SOL     OW10205   1.338  10.602   9.622 -0.0395  0.1751 -0.5785
 1756SOL    HW110206   1.396  10.605   9.698  0.1031  0.3143 -0.6897
 1756SOL    HW210207   1.250  10.609   9.658  0.0712  1.5032 -0.4933
 1757SOL     OW10208   9.237  11.039   7.741 -0.2338 -0.2125  0.5430
 1757SOL    HW110209   9.210  11.131   7.748  0.7571  0.3733 -2.0870
 1757SOL    HW210210   9.193  11.007   7.663  2.2885 -0.7994 -0.7390
 1758SOL     OW10211   2.215   5.779   6.252  0.0734 -0.1553 -0.4902
 1758SOL    HW110212   2.179   5.753   6.336 -1.3587 -1.0642 -1.3323
 1758SOL    HW210213   2.140   5.778   6.192  0.6899  2.2132 -1.4304
 1759SOL     OW10214   7.201   7.660  10.649  0.2708 -0.1514 -0.1846
 1759SOL    HW110215   7.130   7.608  10.612  0.5095 -1.0700  0.5988
 1759SOL    HW210216   7.274   7.599  10.657  0.7311  0.4394  0.2709
 1760SOL     OW10217  10.766   8.833   9.377  0.2008  0.2041 -0.2412
 1760SOL    HW110218  10.794   8.907   9.430 -1.0610  1.2572 -0.9957
 1760SOL    HW210219  10.828   8.763   9.399  0.5315  1.0128  1.5819
 1761SOL     OW10220   8.444   7.619   2.602 -0.2583  0.0549  0.6430
 1761SOL    HW110221   8.385   7.619   2.527 -0.6554 -0.4800  0.9498
 1761SOL    HW210222   8.527   7.654   2.568 -0.2798 -0.6649 -0.1663
 1762SOL     OW10223   1.295   6.724   8.564  0.2133 -0.1825 -0.0309
 1762SOL    HW110224   1.378   6.722   8.613  1.3455  0.3343 -1.8491
 1762SOL    HW210225   1.263   6.813   8.575 -0.6708 -0.6379  1.4839
 1763SOL     OW10226  11.611   8.929   7.960 -0.4612 -0.2415  0.1505
 1763SOL    HW110227  11.680   8.874   7.998  0.0352  0.0304 -0.3463
 1763SOL    HW210228  11.611   9.008   8.014  1.0051  0.6253 -1.0561
 1764SOL     OW10229   5.706   3.592   9.402  0.4373  0.3416 -0.2632
 1764SOL    HW110230   5.634   3.647   9.370 -0.2528  0.4302  1.3203
 1764SOL    HW210231   5.733   3.541   9.326 -1.3596  0.2591 -0.9052
 1765SOL     OW10232  11.230  10.161   4.409 -0.1642 -0.2235 -0.1040
 1765SOL    HW110233  11.236  10.221   4.483  0.3427  1.0745 -1.1456
 1765SOL    HW210234  11.302  10.100   4.422 -1.5408 -1.5743  1.7289
 1766SOL     OW10235  10.194   9.625   8.245  0.3273  0.0829 -0.1339
 1766SOL    HW110236  10.114   9.594   8.203  1.0224 -0.6194 -0.9757
 1766SOL    HW210237  10.260   9.561   8.220  1.5485  1.6152 -0.9184
 1767SOL     OW10238   2.191   7.607   1.906  0.2311  0.1755  0.2040
 1767SOL    HW110239   2.145   7.532   1.942 -0.7798 -1.1659 -3.3982
 1767SOL    HW210240   2.147   7.683   1.944 -2.2425 -1.0946  0.0971
 1768SOL     OW10241   1.806   2.654   6.094  0.2650  0.4683 -0.0336
 1768SOL    HW110242   1.809   2.583   6.029  1.0029  1.3984 -1.0486
 1768SOL    HW210243   1.712   2.668   6.110  0.0276  0.6623 -1.4206
 1769SOL     OW10244   5.953   0.180   3.777  0.0881  0.1621 -0.7989
 1769SOL    HW110245   6.001   0.121   3.719  0.0352 -0.1500 -0.5296
 1769SOL    HW210246   5.872   0.200   3.730 -0.0816 -0.3128 -0.7181
 1770SOL     OW10247  10.787   9.582   9.270  0.3265  0.2075 -0.0052
 1770SOL    HW110248  10.722   9.652   9.263 -0.7979 -0.7937  0.1738
 1770SOL    HW210249  10.757   9.528   9.343  0.0719 -1.5541 -1.3510
 1771SOL     OW10250   3.500  10.371   9.101  0.0777 -0.6580 -0.4434
 1771SOL    HW110251   3.420  10.398   9.147  1.0107 -0.5907  1.2052
 1771SOL    HW210252   3.468  10.324   9.025 -1.5462 -0.0241 -0.2055
 1772SOL     OW10253  11.543   4.730   3.877  0.3254  0.0367  0.0893
 1772SOL    HW110254  11.584   4.762   3.796  0.0824 -0.6966 -0.3331
 1772SOL    HW210255  11.559   4.636   3.876 -2.2108 -0.4492 -0.6142
 1773SOL     OW10256   8.752   4.821   8.541  0.1121  0.0168 -0.4832
 1773SOL    HW110257   8.843   4.831   8.516 -0.4301  0.7464 -2.3514
 1773SOL    HW210258   8.731   4.902   8.587  0.9926 -1.1475  2.1724
 1774SOL     OW10259  10.590   4.222  11.547 -0.2429 -0.1930  0.1465
 1774SOL    HW110260  10.521   4.257  11.604  0.5914  1.9507 -0.0709
 1774SOL    HW210261  10.555   4.234  11.458 -1.0262 -2.4034  0.0965
 1775SOL     OW10262   5.217   3.290   7.803 -0.0271 -0.5645 -0.5031
 1775SOL    HW110263   5.295   3.345   7.807 -0.3152 -0.2404  1.5491
 1775SOL    HW210264   5.240   3.220   7.741  1.4022  0.2300 -0.9106
 1776SOL     OW10265   0.113   5.244   8.431 -0.1087 -0.4457  0.3587
 1776SOL    HW110266   0.178   5.314   8.421  0.1301 -0.5901  0.8525
 1776SOL    HW210267   0.164   5.163   8.424 -0.3847 -0.5743 -0.2092
 1777SOL     OW10268   3.825  11.403   7.277  0.2457  0.1857  0.7318
 1777SOL    HW110269   3.898  11.409   7.339 -1.0695 -2.4728  2.7224
 1777SOL    HW210270   3.747  11.414   7.331 -0.9139  0.2419 -0.8855
 1778SOL     OW10271   5.541   1.556   7.254  0.5094  0.5990 -0.5008
 1778SOL    HW110272   5.523   1.608   7.332  2.0673  0.8562 -0.2644
 1778SOL    HW210273   5.463   1.563   7.201 -1.1803 -0.6994  1.6287
 1779SOL     OW10274   5.474   8.299   2.843 -0.1157 -0.0351  0.9729
 1779SOL    HW110275   5.487   8.262   2.930 -0.9909  1.8309  1.9513
 1779SOL    HW210276   5.384   8.332   2.843  0.0091  0.4184 -0.4735
 1780SOL     OW10277   9.546   3.503   6.267  1.0319 -0.0283  0.0882
 1780SOL    HW110278   9.612   3.438   6.244  1.5727 -0.0634  1.6253
 1780SOL    HW210279   9.594   3.568   6.319 -0.0883  0.0375  1.0790
 1781SOL     OW10280   5.880   1.589   1.946  1.3075  0.5125  0.1940
 1781SOL    HW110281   5.885   1.493   1.941  2.6139  0.4239  2.0875
 1781SOL    HW210282   5.787   1.607   1.953  0.9897 -0.5629 -0.8661
 1782SOL     OW10283  11.263   8.328   3.243  0.0786 -0.3767 -0.4265
 1782SOL    HW110284  11.319   8.395   3.281 -0.7273 -0.2794  0.6158
 1782SOL    HW210285  11.266   8.345   3.149  1.6153 -0.2491 -0.3838
 1783SOL     OW10286   9.499   5.076   7.978  0.0724 -0.4372 -0.2322
 1783SOL    HW110287   9.550   5.082   8.058 -1.4651  0.7607  0.7352
 1783SOL    HW210288   9.510   4.986   7.948  0.5030 -0.9762  1.4648
 1784SOL     OW10289   5.760   7.089   8.816  0.2947 -0.2378  0.5265
 1784SOL    HW110290   5.840   7.094   8.764 -0.2208  0.0633 -0.2453
 1784SOL    HW210291   5.692   7.068   8.753 -0.1339 -1.1889  1.2848
 1785SOL     OW10292   0.039   8.685   9.005  0.0640 -0.6062 -0.1949
 1785SOL    HW110293  -0.042   8.732   8.985 -0.2031 -0.8521  0.3037
 1785SOL    HW210294   0.108   8.750   8.989 -0.1738 -0.5966 -1.2826
 1786SOL     OW10295  10.736   1.042   0.246 -0.3460  0.0321 -0.7938
 1786SOL    HW110296  10.738   0.949   0.223 -2.0831 -0.1032 -0.4937
 1786SOL    HW210297  10.649   1.071   0.220  0.1771  1.5907 -0.8762
 1787SOL     OW10298   6.299   0.686   5.905 -0.0103  0.2135  0.3239
 1787SOL    HW110299   6.364   0.726   5.847 -0.8720 -0.5301 -1.2085
 1787SOL    HW210300   6.273   0.756   5.964  0.5664  1.1203 -0.4783
 1788SOL     OW10301  10.833   8.367  11.323 -0.1420  0.8011 -0.2749
 1788SOL    HW110302  10.887   8.336  11.395 -3.2205 -0.5581  1.6798
 1788SOL    HW210303  10.771   8.428  11.365 -1.4959  0.6064 -1.9089
 1789SOL     OW10304   2.017   9.197   7.762  0.2892  0.1202  0.0008
 1789SOL    HW110305   2.005   9.125   7.700 -0.5160 -0.8699  1.2505
 1789SOL    HW210306   1.944   9.189   7.823 -0.7755  3.0376 -0.7463
 1790SOL     OW10307   6.022   0.559   0.908 -0.7805  0.4355  0.2615
 1790SOL    HW110308   6.084   0.544   0.979 -0.0679  0.4162 -0.3532
 1790SOL    HW210309   6.034   0.485   0.849 -1.0454  0.6794 -0.1040
 1791SOL     OW10310   4.278   8.908   6.264 -0.3088  0.0052  0.4293
 1791SOL    HW110311   4.363   8.911   6.309  0.1678 -0.7465 -0.3901
 1791SOL    HW210312   4.236   8.991   6.288  0.5595  0.2945  1.0248
 1792SOL     OW10313   8.291   7.528   7.260 -0.0453  0.1516 -0.0638
 1792SOL    HW110314   8.323   7.584   7.331  1.0797 -0.3677 -0.1433
 1792SOL    HW210315   8.318   7.574   7.180 -1.7165  0.9735 -0.1891
 1793SOL     OW10316   9.225   3.180   4.368 -0.0200 -0.5219 -0.2265
 1793SOL    HW110317   9.146   3.144   4.327  0.4385 -0.3048 -1.3441
 1793SOL    HW210318   9.280   3.103   4.384 -0.4956 -0.6860  0.6630
 1794SOL     OW10319   7.117   3.334   2.533 -0.6491 -0.7341 -0.3715
 1794SOL    HW110320   7.153   3.276   2.465 -1.0206 -0.7487 -0.5554
 1794SOL    HW210321   7.040   3.373   2.493 -0.1923  0.1870 -0.3801
 1795SOL     OW10322   1.272   4.170   1.877 -0.3043 -0.2959 -0.1831
 1795SOL    HW110323   1.362   4.202   1.870 -0.7712  1.0437 -0.2435
 1795SOL    HW210324   1.232   4.225   1.944 -0.4396 -2.4555  1.6156
 1796SOL     OW10325   8.180   6.451   1.905  0.4348 -0.3028  0.1358
 1796SOL    HW110326   8.128   6.474   1.828  1.0051 -1.6199 -0.6841
 1796SOL    HW210327   8.146   6.507   1.975 -0.2299  0.7942 -1.0129
 1797SOL     OW10328   2.972   4.755   4.841  0.4987 -0.1977 -0.0340
 1797SOL    HW110329   2.932   4.686   4.894  1.2705 -0.3267  0.3950
 1797SOL    HW210330   3.055   4.717   4.811  0.3918  0.1281 -0.7639
 1798SOL     OW10331  11.169   7.077   3.290 -0.4130  0.1990 -0.1082
 1798SOL    HW110332  11.183   7.060   3.383  0.3232  1.2877 -0.0089
 1798SOL    HW210333  11.125   7.162   3.287  1.6085  1.2712 -0.8255
 1799SOL     OW10334   6.578  11.619   7.559  0.2591 -0.3428  0.1158
 1799SOL    HW110335   6.525  11.544   7.585  0.2327 -0.9230 -1.5343
 1799SOL    HW210336   6.517  11.677   7.515  0.0143  1.2707  2.3861
 1800SOL     OW10337  10.907   7.836   0.767 -0.3510  0.0705 -0.3166
 1800SOL    HW110338  10.931   7.808   0.678 -0.1417  1.3928 -0.6868
 1800SOL    HW210339  10.982   7.888   0.797 -1.3391  1.4765 -0.2179
 1801SOL     OW10340   4.168   0.347   8.477 -0.3621 -0.1524 -0.6519
 1801SOL    HW110341   4.208   0.369   8.561 -0.5602 -1.7568 -0.1031
 1801SOL    HW210342   4.079   0.381   8.484  0.0944  1.1350 -0.8607
 1802SOL     OW10343   6.261  11.369   0.166 -0.0689 -0.0224  0.6864
 1802SOL    HW110344   6.244  11.370   0.260  0.3077 -0.4369  0.7630
 1802SOL    HW210345   6.334  11.308   0.155 -0.1565 -0.0347  0.1153
 1803SOL     OW10346   5.652   1.489   7.874  0.1921  0.5131 -0.0946
 1803SOL    HW110347   5.634   1.579   7.847 -1.4355 -0.5075 -2.7939
 1803SOL    HW210348   5.683   1.446   7.794  0.4948 -1.4482  1.0199
 1804SOL     OW10349  10.119   4.314   8.894 -0.0558  0.3272 -0.2096
 1804SOL    HW110350  10.177   4.303   8.969 -0.5393 -1.3503 -0.0312
 1804SOL    HW210351  10.155   4.257   8.827 -1.8211 -1.3371  0.1529
 1805SOL     OW10352   7.585   4.846   8.204 -0.4675 -0.6469  0.0392
 1805SOL    HW110353   7.664   4.898   8.217 -0.1037 -1.7472  2.8956
 1805SOL    HW210354   7.514   4.904   8.233 -0.3943 -0.6983  0.3200
 1806SOL     OW10355   7.462   8.776   0.532 -0.4703  0.1646  0.1969
 1806SOL    HW110356   7.367   8.785   0.539 -0.3978  0.5228  0.8322
 1806SOL    HW210357   7.497   8.849   0.583  0.1508  0.2512 -0.3415
 1807SOL     OW10358  10.997   1.890  10.483  0.7619 -0.4460  0.0974
 1807SOL    HW110359  10.951   1.952  10.539 -0.8747 -1.7151  0.2172
 1807SOL    HW210360  11.088   1.921  10.483  0.2084  1.2982  1.0118
 1808SOL     OW10361   3.855   9.666  11.381  0.2068  0.2826  0.0761
 1808SOL    HW110362   3.852   9.637  11.289  1.3508  2.7107 -0.8149
 1808SOL    HW210363   3.948   9.666  11.403  0.1265  1.7213  0.5139
 1809SOL     OW10364   4.635   2.253  11.024  0.1380 -0.4284  0.3792
 1809SOL    HW110365   4.630   2.202  11.106 -1.3588  0.0710  0.6190
 1809SOL    HW210366   4.583   2.203  10.962 -0.9691  0.5369  0.4912
 1810SOL     OW10367   4.623   4.659   4.341 -0.1096 -0.5994 -0.4161
 1810SOL    HW110368   4.632   4.660   4.246  0.6081  0.1550 -0.3521
 1810SOL    HW210369   4.568   4.583   4.360 -1.0079 -0.2444 -1.4959
 1811SOL     OW10370   0.494   4.149   9.318  0.0519  0.3746  0.2916
 1811SOL    HW110371   0.413   4.144   9.369  0.4055 -1.6287  0.7552
 1811SOL    HW210372   0.558   4.101   9.371  1.2421  0.8837 -0.6366
 1812SOL     OW10373   0.591   8.900   7.800 -0.1346  0.3173 -0.1788
 1812SOL    HW110374   0.521   8.866   7.856 -0.4099  1.6112  0.3099
 1812SOL    HW210375   0.544   8.944   7.729  0.2101 -1.2223 -1.4114
 1813SOL     OW10376   1.858   8.327   5.596 -0.1284 -0.4319 -0.2756
 1813SOL    HW110377   1.931   8.387   5.606  1.6837 -2.6907  1.2308
 1813SOL    HW210378   1.794   8.355   5.662  0.5048  0.0590  0.1324
 1814SOL     OW10379   2.571   6.323   7.944  0.6137  0.2558  0.0317
 1814SOL    HW110380   2.586   6.231   7.925 -0.4468  0.0806  0.0089
 1814SOL    HW210381   2.563   6.327   8.039  1.2752  0.4321  0.0893
 1815SOL     OW10382   1.333   5.819   9.290 -0.4049  0.2012 -0.1168
 1815SOL    HW110383   1.402   5.758   9.265  0.6580  1.7525 -1.0723
 1815SOL    HW210384   1.363   5.857   9.373 -0.9585 -0.3605  0.3582
 1816SOL     OW10385   0.232   5.399   6.534 -0.2306 -0.6316  0.0247
 1816SOL    HW110386   0.324   5.421   6.544  0.0229 -1.6529  0.0155
 1816SOL    HW210387   0.207   5.359   6.617 -0.9439  0.5418  0.3988
 1817SOL     OW10388   9.848   9.526   1.541  0.0258  0.0220  0.2026
 1817SOL    HW110389   9.797   9.464   1.490  2.3705 -1.7116 -0.2108
 1817SOL    HW210390   9.791   9.603   1.550 -1.0412 -0.0857 -3.7917
 1818SOL     OW10391   1.482   4.188   7.579 -0.1667  0.2126  0.7471
 1818SOL    HW110392   1.563   4.183   7.528 -0.0821  0.4636  0.8503
 1818SOL    HW210393   1.439   4.104   7.566 -0.3532  0.4265 -0.0816
 1819SOL     OW10394   8.683   8.774   8.690  0.0616 -0.2949  0.2305
 1819SOL    HW110395   8.760   8.767   8.745  1.2990 -0.9522 -1.4947
 1819SOL    HW210396   8.655   8.683   8.676  1.4309 -0.4335 -2.3451
 1820SOL     OW10397  11.330   9.523   3.434  0.2131  0.2853  0.1040
 1820SOL    HW110398  11.330   9.502   3.527  1.4666  0.7451  0.2256
 1820SOL    HW210399  11.423   9.535   3.412 -0.0995  0.6461 -1.0941
 1821SOL     OW10400  10.272   7.322   6.544 -0.7000 -0.0097 -0.3564
 1821SOL    HW110401  10.254   7.370   6.624 -0.5725  1.1909 -1.0290
 1821SOL    HW210402  10.188   7.314   6.500 -0.8144 -0.8848 -0.0026
 1822SOL     OW10403   4.442   7.440   4.513 -0.5324  0.6308 -0.1328
 1822SOL    HW110404   4.369   7.404   4.563 -0.4351 -1.3899 -1.3598
 1822SOL    HW210405   4.401   7.480   4.436 -0.3756 -1.0167 -1.1208
 1823SOL     OW10406   8.050   1.911   1.219  0.0564 -0.0826  0.0107
 1823SOL    HW110407   7.980   1.866   1.267  0.8639  0.2384  1.5546
 1823SOL    HW210408   8.004   1.970   1.159 -0.9896 -0.6676  0.2090
 1824SOL     OW10409   7.188   1.846  10.208 -0.2048 -0.0892  0.0499
 1824SOL    HW110410   7.168   1.932  10.246 -1.4409 -0.8514  1.2157
 1824SOL    HW210411   7.122   1.833  10.140 -2.2466 -1.4846  2.1378
 1825SOL     OW10412  10.150   3.317   8.822 -0.2231  0.2959 -0.1372
 1825SOL    HW110413  10.187   3.256   8.886  0.0652 -2.8017 -2.9715
 1825SOL    HW210414  10.222   3.337   8.763 -1.4718 -0.7797 -2.1431
 1826SOL     OW10415   7.993   2.589   8.939  0.2894  0.7967 -0.1587
 1826SOL    HW110416   7.967   2.681   8.948  0.1984  0.7891 -0.3400
 1826SOL    HW210417   8.087   2.588   8.960  0.1821  0.8476  0.3498
 1827SOL     OW10418   5.246   5.599   1.639  0.3999  0.0356 -0.2014
 1827SOL    HW110419   5.294   5.524   1.604 -0.8573 -1.5430  1.3025
 1827SOL    HW210420   5.311   5.670   1.640  2.1242 -1.4671 -0.0986
 1828SOL     OW10421  10.399   9.174   3.341 -0.0006 -0.0424  0.8146
 1828SOL    HW110422  10.382   9.225   3.262  1.9420  0.9043  0.9691
 1828SOL    HW210423  10.476   9.122   3.320  1.1656  0.9675  2.3800
 1829SOL     OW10424   8.680   0.241   3.928  0.2634 -0.3636 -0.9389
 1829SOL    HW110425   8.738   0.170   3.900 -0.0736 -0.7638 -0.6226
 1829SOL    HW210426   8.700   0.254   4.021  0.0181 -0.3325 -0.8910
 1830SOL     OW10427   3.599   5.929   9.846 -0.3004 -0.3549  0.1581
 1830SOL    HW110428   3.546   6.002   9.878  1.0045  0.2644  1.0303
 1830SOL    HW210429   3.683   5.939   9.892 -0.0116 -2.2799  0.1301
 1831SOL     OW10430   1.951   1.941   7.570  0.3963 -0.1976 -0.1532
 1831SOL    HW110431   2.028   1.890   7.544  0.1818 -0.6832  0.1458
 1831SOL    HW210432   1.967   2.028   7.533  1.9688  0.2550  1.4511
 1832SOL     OW10433  10.141  10.015   3.857  0.0019  0.8352 -0.0249
 1832SOL    HW110434  10.095   9.932   3.866  0.7435  0.1940 -1.6458
 1832SOL    HW210435  10.194  10.022   3.937  1.3228 -1.1937 -0.6401
 1833SOL     OW10436   1.204   7.013  10.523  0.7101 -0.2276  0.1528
 1833SOL    HW110437   1.217   7.105  10.546  1.6532 -0.2366 -0.3114
 1833SOL    HW210438   1.228   6.965  10.602  0.4713 -0.0899  0.3101
 1834SOL     OW10439   8.498   6.041   9.203  0.1264  0.3313  0.3914
 1834SOL    HW110440   8.579   5.991   9.188 -0.2693 -0.0629 -0.4961
 1834SOL    HW210441   8.528   6.126   9.235  0.8917  0.1491  0.1811
 1835SOL     OW10442  11.019  10.433   2.125 -0.1005  0.4030 -0.8886
 1835SOL    HW110443  11.113  10.418   2.115 -0.3357 -2.1797  0.0401
 1835SOL    HW210444  10.996  10.386   2.205 -2.4105 -0.2097 -1.8416
 1836SOL     OW10445   1.708   2.846   3.537  0.1782 -0.0083  1.0806
 1836SOL    HW110446   1.788   2.797   3.520 -0.6607 -1.6925  1.6849
 1836SOL    HW210447   1.680   2.878   3.452  0.0882 -1.7172  0.4252
 1837SOL     OW10448  10.844  10.885   2.722 -0.4703  0.0019 -0.7453
 1837SOL    HW110449  10.933  10.917   2.736 -0.0893 -0.8768 -1.1097
 1837SOL    HW210450  10.835  10.809   2.780 -0.9514  0.0243 -0.7802
 1838SOL     OW10451   3.892   6.542   9.983  0.1797  0.6406  0.0373
 1838SOL    HW110452   3.858   6.613   9.930  3.8225  1.6513 -1.2439
 1838SOL    HW210453   3.852   6.463   9.946 -1.6054  1.7304 -0.4904
 1839SOL     OW10454   2.869   0.626   2.843 -0.3059 -0.4407  0.1501
 1839SOL    HW110455   2.888   0.652   2.752  0.6706  0.5900  0.6143
 1839SOL    HW210456   2.862   0.531   2.840  0.2040 -0.4635 -0.9365
 1840SOL     OW10457   7.880   2.379   9.136  0.2079  0.2079  0.0050
 1840SOL    HW110458   7.904   2.459   9.090  1.4653 -0.5717 -0.7380
 1840SOL    HW210459   7.869   2.313   9.068  0.9000 -0.6686  0.7108
 1841SOL     OW10460   6.055   3.246   8.668 -0.8918  0.1068  0.4823
 1841SOL    HW110461   6.028   3.207   8.751  0.1597 -0.5723  0.5179
 1841SOL    HW210462   6.147   3.267   8.680 -0.9332  0.7514 -0.2414
 1842SOL     OW10463   6.461  10.601  10.932 -0.1617 -0.9858 -0.3995
 1842SOL    HW110464   6.545  10.646  10.944 -1.6975  1.7556  0.9396
 1842SOL    HW210465   6.440  10.565  11.018 -1.6816  0.9495  0.1016
 1843SOL     OW10466   8.032   9.904   8.360 -0.6372  0.2798  0.0639
 1843SOL    HW110467   8.081   9.829   8.326  0.6214  0.7145  0.8275
 1843SOL    HW210468   8.063   9.979   8.310  0.3718  0.7384  1.3111
 1844SOL     OW10469   5.958   8.567   5.173 -0.2681 -0.2852 -0.0624
 1844SOL    HW110470   5.968   8.577   5.267 -2.2115  0.5506  0.1056
 1844SOL    HW210471   5.870   8.601   5.154  0.3229  0.2033 -2.2647
 1845SOL     OW10472   3.409  10.125   5.091  0.1633 -0.0847 -0.2962
 1845SOL    HW110473   3.441  10.109   5.002  1.4364 -0.2972  0.1678
 1845SOL    HW210474   3.483  10.168   5.135 -0.4740  0.0811  0.6438
 1846SOL     OW10475   1.506   3.460  10.609 -0.1058 -0.6277  0.0672
 1846SOL    HW110476   1.522   3.415  10.692  0.1633 -0.3924  0.1435
 1846SOL    HW210477   1.453   3.536  10.634  1.4710  0.4506  0.2923
 1847SOL     OW10478   0.960  11.504   0.306 -0.5012 -0.5486 -0.0731
 1847SOL    HW110479   0.940  11.426   0.254  0.5881  0.4427 -2.1012
 1847SOL    HW210480   1.048  11.489   0.340  0.4257  0.4579 -1.9058
 1848SOL     OW10481   7.621   6.347   3.891  0.2900 -0.5307  0.2941
 1848SOL    HW110482   7.662   6.433   3.905 -1.6165  0.5166 -0.2046
 1848SOL    HW210483   7.687   6.297   3.843  1.5510  0.5523  0.8296
 1849SOL     OW10484  10.512   2.315   8.546  0.5167  0.5263  0.1746
 1849SOL    HW110485  10.534   2.223   8.533 -1.5737  0.2099 -1.6109
 1849SOL    HW210486  10.478   2.319   8.636 -0.8222 -0.7774 -0.2481
 1850SOL     OW10487  11.345   2.451   4.019  0.1994 -0.2715  0.2913
 1850SOL    HW110488  11.347   2.452   3.924  1.8577 -0.8926  0.2990
 1850SOL    HW210489  11.435   2.470   4.046 -0.2325 -0.1144  1.7406
 1851SOL     OW10490   1.953   2.859   9.244  0.3145 -0.3418 -0.1306
 1851SOL    HW110491   1.887   2.880   9.177 -0.6541 -1.2719  0.5082
 1851SOL    HW210492   1.972   2.943   9.286 -0.9759 -0.1513  0.1183
 1852SOL     OW10493   7.895   4.799   3.047  0.4962 -0.1924  0.2115
 1852SOL    HW110494   7.814   4.752   3.026  0.0508 -0.3288  2.0808
 1852SOL    HW210495   7.869   4.891   3.050  0.3042 -0.2729  1.2172
 1853SOL     OW10496   9.482   7.294   3.469 -0.0659  0.3908  0.5261
 1853SOL    HW110497   9.545   7.330   3.532  0.6530  1.0255 -0.5330
 1853SOL    HW210498   9.437   7.224   3.518  2.9278 -1.5846  0.7091
 1854SOL     OW10499  11.139   5.165   7.650  0.1542  0.0982 -0.3544
 1854SOL    HW110500  11.186   5.179   7.733  0.6780  0.0255 -0.6343
 1854SOL    HW210501  11.181   5.087   7.612 -1.9242 -1.5915  0.6143
 1855SOL     OW10502   6.806   5.011   5.795 -0.1125  0.3111 -0.2283
 1855SOL    HW110503   6.830   4.921   5.769  1.5040  0.2376  1.3018
 1855SOL    HW210504   6.713   5.018   5.773 -0.4579 -1.9658  0.1786
 1856SOL     OW10505  11.267   6.884   1.851 -0.0290 -0.0505  0.2074
 1856SOL    HW110506  11.298   6.968   1.886 -0.6512  0.4508 -0.3870
 1856SOL    HW210507  11.182   6.905   1.812 -1.0241 -1.3266  1.5954
 1857SOL     OW10508  11.473   5.287   6.514 -0.3451 -0.2637 -0.1740
 1857SOL    HW110509  11.516   5.328   6.440  0.5479 -2.6696 -1.0699
 1857SOL    HW210510  11.380   5.305   6.501 -0.0915  0.3508 -1.2124
 1858SOL     OW10511   1.786   3.113   9.616 -0.1663 -0.4531  0.0115
 1858SOL    HW110512   1.696   3.084   9.625 -0.5271  1.0135  1.8211
 1858SOL    HW210513   1.832   3.074   9.691  0.4484 -0.3125 -0.2835
 1859SOL     OW10514   4.796   0.168  10.324 -0.7802 -0.0245 -0.1494
 1859SOL    HW110515   4.814   0.076  10.304  2.5087  0.0563  1.6563
 1859SOL    HW210516   4.769   0.168  10.416 -0.8788  0.8138 -0.1689
 1860SOL     OW10517   3.457  10.509  10.615 -0.1126 -0.4943  0.0517
 1860SOL    HW110518   3.392  10.488  10.548 -0.3701  2.0737 -0.5968
 1860SOL    HW210519   3.521  10.563  10.569  0.8955 -0.5193  1.3888
 1861SOL     OW10520   3.189   7.771   7.832  0.9376 -0.6558  0.2826
 1861SOL    HW110521   3.244   7.800   7.904  1.4794  0.4626 -0.5481
 1861SOL    HW210522   3.106   7.748   7.873  0.6193  1.6620  1.0989
 1862SOL     OW10523  11.423   9.415   5.110 -0.6007  0.4599  0.1994
 1862SOL    HW110524  11.471   9.470   5.172 -0.9616 -0.0485  0.9364
 1862SOL    HW210525  11.367   9.476   5.062  1.2222  1.1906 -1.1631
 1863SOL     OW10526   8.611   7.683   4.905  0.6972 -0.0705 -0.8262
 1863SOL    HW110527   8.675   7.615   4.886 -0.1552 -1.0509 -0.2640
 1863SOL    HW210528   8.542   7.671   4.840 -0.5803 -1.2769  0.6466
 1864SOL     OW10529   3.258   7.157   4.310 -0.2560  0.6814 -0.2230
 1864SOL    HW110530   3.211   7.226   4.264 -0.7032  0.4130 -0.1733
 1864SOL    HW210531   3.347   7.190   4.319 -0.3524  1.0532 -0.6145
 1865SOL     OW10532   8.268   3.185   0.780 -0.2266 -0.2607  0.1324
 1865SOL    HW110533   8.279   3.106   0.833  2.5361 -1.0535 -1.4584
 1865SOL    HW210534   8.174   3.186   0.760 -0.3526 -3.3223 -0.0257
 1866SOL     OW10535   2.137   4.309   3.887  0.3764 -0.5989 -0.5392
 1866SOL    HW110536   2.174   4.393   3.916 -2.4399  0.3682  0.6155
 1866SOL    HW210537   2.152   4.250   3.961 -1.4339  0.1699  0.5082
 1867SOL     OW10538   5.961   5.436   3.797  0.0520  0.3349 -0.1883
 1867SOL    HW110539   5.979   5.493   3.722 -1.1082  0.8320 -0.1178
 1867SOL    HW210540   5.942   5.496   3.869  0.2375 -0.1409  0.2656
 1868SOL     OW10541   0.124   1.478   0.885  0.0427  0.0215  0.0150
 1868SOL    HW110542   0.157   1.561   0.920  1.2132 -1.0336  1.5992
 1868SOL    HW210543   0.115   1.422   0.963 -1.2033 -1.1774 -0.9512
 1869SOL     OW10544  10.983   8.281  10.681 -0.6213 -0.2074  0.0783
 1869SOL    HW110545  10.888   8.289  10.669 -0.5219  0.0592 -0.6258
 1869SOL    HW210546  11.019   8.294  10.593  0.0476 -0.6832  0.2716
 1870SOL     OW10547   5.908   3.680   7.620  0.2616  0.2009  0.3542
 1870SOL    HW110548   5.965   3.611   7.586 -0.4566 -0.5574  0.6566
 1870SOL    HW210549   5.820   3.653   7.594 -0.1523  0.3562  1.5553
 1871SOL     OW10550   4.780   6.033   7.590  0.3556 -0.0683 -0.0759
 1871SOL    HW110551   4.789   5.939   7.603 -1.2290 -0.3624 -0.8891
 1871SOL    HW210552   4.688   6.051   7.608  0.8551  1.5227  1.0904
 1872SOL     OW10553   2.615   4.533   9.636 -0.1688 -0.1510 -0.1707
 1872SOL    HW110554   2.558   4.562   9.708 -0.8959  0.7531 -1.0780
 1872SOL    HW210555   2.555   4.499   9.570  0.4726 -0.6985 -0.4812
 1873SOL     OW10556   0.789   6.859   4.619  0.0278  0.1392 -0.0788
 1873SOL    HW110557   0.727   6.790   4.638 -1.4313  1.4877  0.2317
 1873SOL    HW210558   0.875   6.820   4.639 -0.3960 -2.5891 -2.8615
 1874SOL     OW10559   7.747   1.929   3.716 -0.0782 -0.2231 -0.5802
 1874SOL    HW110560   7.672   1.876   3.743  0.0988  0.6152  1.7066
 1874SOL    HW210561   7.733   1.945   3.623 -1.4396 -2.1356 -0.7555
 1875SOL     OW10562  10.000   9.562   0.838 -0.8427  0.0816 -0.7244
 1875SOL    HW110563  10.044   9.483   0.806  1.4767  0.8132  0.4006
 1875SOL    HW210564  10.044   9.581   0.921 -0.8201  2.9511 -1.3016
 1876SOL     OW10565   4.308  11.008   9.011  0.1072  0.0312 -0.0700
 1876SOL    HW110566   4.402  10.993   9.020  0.3371  1.1216 -0.5941
 1876SOL    HW210567   4.269  10.955   9.082  1.1427  0.0503  0.5367
 1877SOL     OW10568   1.166   0.987   0.465 -0.0746 -0.0120  0.2262
 1877SOL    HW110569   1.121   0.998   0.549  0.9220  1.4452  0.6050
 1877SOL    HW210570   1.154   0.894   0.444  0.4195 -0.6641  2.4556
 1878SOL     OW10571   7.763   0.684   3.649 -0.6240  0.0744 -0.3716
 1878SOL    HW110572   7.700   0.615   3.628 -0.7643  0.9394 -3.1275
 1878SOL    HW210573   7.762   0.742   3.573  1.1135  1.9319  0.9089
 1879SOL     OW10574   2.088   6.580  11.468  0.5815  0.4890 -0.3978
 1879SOL    HW110575   2.065   6.673  11.465 -0.3012  0.3042  0.0894
 1879SOL    HW210576   2.099   6.561  11.561  1.7977  0.3387 -0.5628
 1880SOL     OW10577   7.338   6.516   8.841  0.4184  0.0672 -0.6219
 1880SOL    HW110578   7.358   6.572   8.766  1.7300  1.1405  0.4604
 1880SOL    HW210579   7.268   6.563   8.888 -1.1514 -1.1136 -1.6496
 1881SOL     OW10580   9.394   5.880   0.777  0.2472  0.1908 -0.1599
 1881SOL    HW110581   9.381   5.879   0.871 -1.9013 -0.0070 -0.3994
 1881SOL    HW210582   9.422   5.969   0.757 -1.2114  0.8317  0.4899
 1882SOL     OW10583   3.254  11.467   1.580 -0.2802 -0.4946 -0.3009
 1882SOL    HW110584   3.282  11.376   1.570  1.0788 -0.0842 -0.4005
 1882SOL    HW210585   3.266  11.506   1.493 -1.1033 -0.2644 -0.3303
 1883SOL     OW10586   2.288   6.294   6.262 -0.3150 -0.1508  0.0850
 1883SOL    HW110587   2.384   6.289   6.261 -0.2750  0.5481 -0.6853
 1883SOL    HW210588   2.267   6.358   6.195 -1.3154  0.0398  0.5669
 1884SOL     OW10589  10.608   8.664   1.432  0.7096 -0.2265 -0.3535
 1884SOL    HW110590  10.520   8.646   1.465  1.0542  0.9490  1.3324
 1884SOL    HW210591  10.596   8.738   1.372  0.5668  0.1054  0.0763
 1885SOL     OW10592   4.699   0.838   3.927 -0.2755  0.1662 -0.3936
 1885SOL    HW110593   4.769   0.865   3.867 -1.2350 -0.3691 -1.8011
 1885SOL    HW210594   4.659   0.763   3.884  0.0287 -1.3031  1.7120
 1886SOL     OW10595   8.818   2.360   4.357 -0.0181 -0.2657 -0.3673
 1886SOL    HW110596   8.832   2.440   4.306  1.4030 -0.4412 -0.2749
 1886SOL    HW210597   8.897   2.308   4.343 -0.2215 -0.9460  0.8713
 1887SOL     OW10598   4.545   3.414   4.346 -0.2582 -0.0486 -0.4263
 1887SOL    HW110599   4.589   3.370   4.419 -0.2371  2.4371  1.2004
 1887SOL    HW210600   4.616   3.433   4.284  0.4592  1.0693  0.6755
 1888SOL     OW10601   1.102   7.020   2.957  0.2621 -0.1517  0.2050
 1888SOL    HW110602   1.052   6.940   2.947 -0.8441  0.3986  1.0901
 1888SOL    HW210603   1.107   7.034   3.051  1.5349  0.1574  0.1085
 1889SOL     OW10604   1.554   6.702   0.445 -0.3118 -0.0882  0.4304
 1889SOL    HW110605   1.616   6.750   0.500 -0.2851  0.6307 -0.2093
 1889SOL    HW210606   1.590   6.709   0.357 -0.4705 -1.0390  0.2795
 1890SOL     OW10607   0.101   8.594  10.609 -0.0204  0.0956  0.7481
 1890SOL    HW110608   0.141   8.681  10.610  0.0921  0.0498  2.3295
 1890SOL    HW210609   0.174   8.534  10.625  0.0286 -0.3736 -1.0750
 1891SOL     OW10610   1.829   4.598   6.528 -0.2904  0.0281 -0.6276
 1891SOL    HW110611   1.910   4.601   6.579 -1.1541 -0.0679  0.8231
 1891SOL    HW210612   1.857   4.605   6.437  1.3455 -0.0871 -0.1642
 1892SOL     OW10613   7.974   5.042   6.207 -0.0261 -0.3455 -0.1193
 1892SOL    HW110614   7.960   4.958   6.162  1.8281 -0.3281 -0.8105
 1892SOL    HW210615   7.919   5.037   6.284 -1.0514 -1.6074 -0.8896
 1893SOL     OW10616  10.327   7.913  11.400  0.0129 -0.4366 -0.4923
 1893SOL    HW110617  10.266   7.862  11.454 -0.0889  1.6357  1.4890
 1893SOL    HW210618  10.301   7.892  11.310 -0.2491 -3.5231  0.1790
 1894SOL     OW10619   5.312   2.730   6.951 -1.0019 -0.0747 -0.4675
 1894SOL    HW110620   5.405   2.726   6.973 -0.5572  3.0915 -1.1684
 1894SOL    HW210621   5.270   2.765   7.030 -1.6501 -1.5974 -0.1120
 1895SOL     OW10622   4.989  11.386   5.925  0.0720 -0.0677 -0.2154
 1895SOL    HW110623   5.003  11.344   5.841  2.5311 -2.1093  1.0909
 1895SOL    HW210624   4.896  11.412   5.923 -0.9199 -3.1592 -2.2032
 1896SOL     OW10625   8.523   5.939   1.949  0.7842 -0.1708 -0.8715
 1896SOL    HW110626   8.443   5.958   1.900  0.1894 -2.4259 -0.9085
 1896SOL    HW210627   8.497   5.872   2.012  2.2896  0.2561  0.2487
 1897SOL     OW10628  10.319   7.277  10.202  0.1720 -0.3127 -0.7400
 1897SOL    HW110629  10.291   7.198  10.156  0.9082 -1.3876  0.5720
 1897SOL    HW210630  10.245   7.337  10.195 -0.0273 -0.7147 -2.6127
 1898SOL     OW10631   8.950   4.463   3.643 -0.2719  0.4659  0.2247
 1898SOL    HW110632   8.951   4.407   3.722 -0.4505  0.3740  0.1647
 1898SOL    HW210633   8.949   4.552   3.677  1.5705  0.4779  0.3140
 1899SOL     OW10634  11.628   0.671   4.667 -0.4715 -0.0032  0.0777
 1899SOL    HW110635  11.603   0.759   4.640  0.1675  0.6893  1.6481
 1899SOL    HW210636  11.704   0.684   4.724  1.6676 -1.7938 -2.1573
 1900SOL     OW10637   2.925   1.146   1.816 -0.2141  0.0205  0.1121
 1900SOL    HW110638   2.878   1.109   1.741  1.6683  1.7605 -2.1211
 1900SOL    HW210639   2.981   1.075   1.847  2.1613  0.2722 -3.0543
 1901SOL     OW10640   5.657   0.655   8.391 -0.4972 -0.1371 -0.6684
 1901SOL    HW110641   5.622   0.744   8.399  0.5573  0.1427  1.3855
 1901SOL    HW210642   5.625   0.610   8.468  1.1351 -0.7594 -0.3248
 1902SOL     OW10643  11.276   5.645   9.357  0.2166 -0.3314  0.0816
 1902SOL    HW110644  11.240   5.590   9.426  2.8067 -0.6347  1.2948
 1902SOL    HW210645  11.335   5.706   9.402 -0.0105  1.2168 -1.5985
 1903SOL     OW10646   0.138   5.427  10.671 -0.3957 -0.2493 -0.0495
 1903SOL    HW110647   0.047   5.413  10.644 -0.0964 -0.1706 -1.1736
 1903SOL    HW210648   0.190   5.389  10.599  0.4537  0.0390  0.4000
 1904SOL     OW10649   3.163   5.819  10.362  0.1984 -0.0335  0.2997
 1904SOL    HW110650   3.228   5.782  10.422  0.6286 -0.6556 -0.5206
 1904SOL    HW210651   3.088   5.842  10.417  1.0578  0.5851  1.2501
 1905SOL     OW10652   6.056  11.667   3.325  0.4172 -0.7094 -0.1255
 1905SOL    HW110653   6.092  11.747   3.285  1.0757 -0.2052  1.3870
 1905SOL    HW210654   5.977  11.649   3.275  0.6498  0.4753 -0.9737
 1906SOL     OW10655   3.038   3.146   3.348  0.7236 -0.2746  0.6376
 1906SOL    HW110656   3.085   3.064   3.363  0.0236 -0.8309 -0.0999
 1906SOL    HW210657   3.068   3.175   3.262  0.3149 -0.2198  0.5127
 1907SOL     OW10658   7.137   9.069   5.444  0.3666 -0.0752 -0.1696
 1907SOL    HW110659   7.230   9.049   5.441  0.3309 -0.5149  0.9824
 1907SOL    HW210660   7.132   9.161   5.470  0.4883 -0.2833  0.6338
 1908SOL     OW10661   9.424   9.490   7.442  0.2349  0.3031  0.3038
 1908SOL    HW110662   9.496   9.428   7.433 -1.0898 -1.2267 -0.1663
 1908SOL    HW210663   9.438   9.530   7.528  1.4065 -0.2662  0.4005
 1909SOL     OW10664   1.228  10.673   1.022 -0.2848 -0.7405 -0.0560
 1909SOL    HW110665   1.186  10.703   1.103  2.2441 -1.8001  1.7727
 1909SOL    HW210666   1.211  10.579   1.020 -0.1528 -0.7538 -0.6835
 1910SOL     OW10667   2.036   8.041   3.949 -0.2823  0.1238  0.1427
 1910SOL    HW110668   2.110   8.101   3.957 -0.1394  0.1604 -1.2038
 1910SOL    HW210669   2.003   8.055   3.860  0.6221 -2.7515 -0.7382
 1911SOL     OW10670  11.320   1.815   2.394 -0.2287  0.2465  0.6512
 1911SOL    HW110671  11.245   1.797   2.339  0.4818  0.7330 -0.5069
 1911SOL    HW210672  11.352   1.728   2.421  1.1144 -0.1847 -2.0528
 1912SOL     OW10673   9.019   3.002  11.357 -0.0834  0.6864  0.2828
 1912SOL    HW110674   8.948   2.964  11.305 -0.3263  2.7086 -0.9694
 1912SOL    HW210675   8.988   3.089  11.381  1.5671  1.2499  0.5327
 1913SOL     OW10676   1.592   2.942  11.584 -0.3404 -0.8976 -0.2939
 1913SOL    HW110677   1.678   2.901  11.571 -0.2611 -1.2847  1.3422
 1913SOL    HW210678   1.612   3.028  11.621 -0.6586 -1.0472  0.2333
 1914SOL     OW10679   2.406   5.873   2.833  0.8355 -0.2429  0.1056
 1914SOL    HW110680   2.477   5.894   2.894  1.5331  1.0078 -1.0846
 1914SOL    HW210681   2.445   5.813   2.770 -0.3925 -3.1027  1.8570
 1915SOL     OW10682   1.902   6.971  10.426  0.0368  0.1338 -0.2295
 1915SOL    HW110683   1.907   7.009  10.338  0.0613  3.0917  0.9461
 1915SOL    HW210684   1.813   6.991  10.456 -0.1745 -1.3795  0.2432
 1916SOL     OW10685   6.095   2.636  11.552  0.5634 -0.4242 -0.0990
 1916SOL    HW110686   6.085   2.667  11.642  0.9924  1.2213 -0.5823
 1916SOL    HW210687   6.060   2.547  11.553 -0.9101  0.1224  1.3384
 1917SOL     OW10688   3.774   3.126  10.298  0.0429 -0.3456  0.0966
 1917SOL    HW110689   3.839   3.179  10.250  0.7951  0.2158  1.6562
 1917SOL    HW210690   3.699   3.184  10.308  0.5103  0.1393  0.9794
 1918SOL     OW10691   3.283  10.230   6.301  0.1361 -0.7979 -0.1662
 1918SOL    HW110692   3.193  10.196   6.307  0.0797 -0.4775  0.9974
 1918SOL    HW210693   3.277  10.320   6.332  0.9054 -0.8738  0.2353
 1919SOL     OW10694   9.545  11.640  10.873  0.5180  0.0898  0.2314
 1919SOL    HW110695   9.577  11.593  10.795  1.3103  0.1591  0.5037
 1919SOL    HW210696   9.545  11.574  10.942 -0.3088 -0.0027  0.1516
 1920SOL     OW10697  11.382   9.087   9.753 -0.8575  0.4542  0.1674
 1920SOL    HW110698  11.416   9.161   9.702  1.4142 -0.9194 -0.4480
 1920SOL    HW210699  11.318   9.046   9.695 -0.1567  0.4005 -0.5927
 1921SOL     OW10700   7.098   2.118   3.533  0.3516 -0.0273  0.2481
 1921SOL    HW110701   7.174   2.063   3.513  0.9223  0.3751  1.2166
 1921SOL    HW210702   7.132   2.207   3.538 -0.5679  0.4424 -1.3069
 1922SOL     OW10703  10.966   7.979   9.263 -0.3770 -0.7615 -0.3757
 1922SOL    HW110704  10.930   8.052   9.313  0.9057 -1.0055  0.9950
 1922SOL    HW210705  10.891   7.924   9.242 -1.2406  0.4792 -0.6447
 1923SOL     OW10706   9.965  10.688   8.959  0.0092  0.7140 -0.0170
 1923SOL    HW110707   9.990  10.622   9.023  2.2710  1.3186 -0.1852
 1923SOL    HW210708   9.950  10.767   9.011  0.9885  0.9827 -0.1189
 1924SOL     OW10709   8.297   4.606   1.296  0.2260 -0.0415  0.4920
 1924SOL    HW110710   8.287   4.689   1.343  0.1083 -0.2644  0.8697
 1924SOL    HW210711   8.379   4.615   1.248  0.2150  0.2927  0.5364
 1925SOL     OW10712   2.802   7.387   6.680  0.3005 -0.1081 -0.6662
 1925SOL    HW110713   2.802   7.467   6.628  1.6124 -1.1185 -2.3211
 1925SOL    HW210714   2.872   7.399   6.744  0.1441  0.2569 -0.5600
 1926SOL     OW10715   3.517   6.721  10.027  0.1432 -0.3226 -0.1717
 1926SOL    HW110716   3.510   6.642  10.081  0.2935  0.0810  0.4605
 1926SOL    HW210717   3.433   6.765  10.038 -0.1543 -0.6770 -0.9879
 1927SOL     OW10718  11.137   5.476  10.338 -0.1741 -0.1595  0.2555
 1927SOL    HW110719  11.118   5.481  10.431 -0.4933  0.9307  0.1493
 1927SOL    HW210720  11.133   5.567  10.308  0.9202 -0.3846 -0.6260
 1928SOL     OW10721   3.262   9.076  10.164  0.2390 -0.5825  0.4955
 1928SOL    HW110722   3.172   9.106  10.160  0.2435 -0.5969  0.3021
 1928SOL    HW210723   3.295   9.085  10.075  0.1612 -1.4203  0.3737
 1929SOL     OW10724   9.937  10.267   6.465 -0.3296  0.2477 -0.2901
 1929SOL    HW110725   9.846  10.275   6.437 -2.2568 -3.2445  3.6988
 1929SOL    HW210726   9.958  10.352   6.502 -1.6938  1.3395 -1.8756
 1930SOL     OW10727   6.064   0.316   0.778 -0.0782 -0.2810 -0.0151
 1930SOL    HW110728   6.095   0.304   0.868 -0.7078  1.2650  0.4435
 1930SOL    HW210729   6.020   0.233   0.758  1.7264 -1.3907  0.3641
 1931SOL     OW10730   7.346   9.189   1.007 -0.1759  0.0437  0.0430
 1931SOL    HW110731   7.272   9.197   0.946 -0.4680  0.6237  0.4633
 1931SOL    HW210732   7.423   9.203   0.952 -0.4774  1.5306 -0.0619
 1932SOL     OW10733   4.994  10.971   6.904 -0.3018 -0.5415 -0.2482
 1932SOL    HW110734   5.084  10.996   6.880 -0.4794 -0.0136 -0.3685
 1932SOL    HW210735   4.972  10.901   6.842 -1.1748  1.5694 -2.4912
 1933SOL     OW10736   4.432  10.753   9.659 -0.0487 -0.8243 -0.1635
 1933SOL    HW110737   4.464  10.681   9.605  0.9238 -0.0962 -0.5935
 1933SOL    HW210738   4.497  10.761   9.729  0.8391  0.7283 -1.0984
 1934SOL     OW10739   1.441   2.482   3.515  0.5194 -0.7989  0.5251
 1934SOL    HW110740   1.355   2.521   3.533  0.9745  1.6040 -1.8768
 1934SOL    HW210741   1.494   2.504   3.591 -0.7416 -1.7135  1.7290
 1935SOL     OW10742   8.256   2.448  11.625  0.2861  0.1498 -0.1137
 1935SOL    HW110743   8.323   2.395  11.581 -0.5685 -0.5664 -0.5913
 1935SOL    HW210744   8.297   2.534  11.637  1.3432 -0.3249 -0.2400
 1936SOL     OW10745   9.508   8.262   0.529  0.7374 -0.2724 -0.6583
 1936SOL    HW110746   9.498   8.297   0.617 -2.1964  0.0690 -1.0370
 1936SOL    HW210747   9.536   8.171   0.543 -0.2308 -0.4023  0.6742
 1937SOL     OW10748   0.725   4.621   4.707  0.1939  0.4504 -0.8343
 1937SOL    HW110749   0.721   4.694   4.645 -0.8131  0.9479 -0.2049
 1937SOL    HW210750   0.669   4.648   4.779 -1.0822 -1.4015 -1.0664
 1938SOL     OW10751   6.755   6.011   1.685 -0.7370  1.0929 -0.2334
 1938SOL    HW110752   6.687   6.062   1.730  0.3994  1.6053  0.9800
 1938SOL    HW210753   6.709   5.933   1.654 -1.7838  1.1514  1.0437
 1939SOL     OW10754   4.576   7.672   4.608  0.0323  0.2566  0.5544
 1939SOL    HW110755   4.519   7.606   4.567 -0.2324  0.3146  0.8316
 1939SOL    HW210756   4.599   7.635   4.693  2.2539 -0.8167 -0.4232
 1940SOL     OW10757   6.585   5.209   3.650  0.2378  0.3864  0.1071
 1940SOL    HW110758   6.556   5.206   3.558  0.3546  0.0093  0.0795
 1940SOL    HW210759   6.656   5.273   3.650  0.8823 -0.3128 -0.2598
 1941SOL     OW10760   2.678  11.082   5.092 -0.3453 -0.0240  0.1298
 1941SOL    HW110761   2.666  10.990   5.067  0.8825 -0.4569  1.0367
 1941SOL    HW210762   2.757  11.109   5.045 -0.6239  0.5356 -0.0219
 1942SOL     OW10763  10.819  11.271   3.125  0.1919  0.6952 -0.3180
 1942SOL    HW110764  10.759  11.203   3.097  0.4501  0.2627  0.1705
 1942SOL    HW210765  10.772  11.318   3.195  0.7518 -0.2161  0.7015
 1943SOL     OW10766   8.348  10.774   2.501  0.1989 -0.5534  0.1446
 1943SOL    HW110767   8.265  10.730   2.482 -0.7611  0.4568  1.7448
 1943SOL    HW210768   8.357  10.839   2.432 -0.4513 -0.5374  0.0705
 1944SOL     OW10769   7.063   7.222   8.867 -0.5670 -0.5789  0.4331
 1944SOL    HW110770   7.054   7.212   8.962 -0.7093 -1.9649  0.2816
 1944SOL    HW210771   7.088   7.136   8.836  0.2956  0.0561 -0.7111
 1945SOL     OW10772   3.184   4.840   3.041  0.2501 -0.0052  0.1204
 1945SOL    HW110773   3.152   4.777   2.977 -0.3352 -0.6077  0.9802
 1945SOL    HW210774   3.272   4.810   3.063 -0.2050 -0.8039  0.8741
 1946SOL     OW10775   8.402   2.526   5.914  0.3953  0.0134  0.1041
 1946SOL    HW110776   8.331   2.530   5.850  1.1362  1.2913 -0.6911
 1946SOL    HW210777   8.364   2.482   5.990 -0.6813 -1.0024 -0.9919
 1947SOL     OW10778   3.516  11.424   9.730  0.0883  0.0459  0.0732
 1947SOL    HW110779   3.559  11.363   9.670 -0.7560 -1.3044  0.7766
 1947SOL    HW210780   3.467  11.483   9.673 -0.5759 -1.1167 -0.6044
 1948SOL     OW10781   0.455   2.416   5.743  0.0964 -0.0381  0.0215
 1948SOL    HW110782   0.437   2.494   5.794 -0.2263 -0.9041  1.2625
 1948SOL    HW210783   0.551   2.415   5.734  0.0840  0.6448 -0.2775
 1949SOL     OW10784   3.256   6.986   6.843 -0.2636  0.3049 -0.2805
 1949SOL    HW110785   3.203   6.966   6.920 -0.1375  1.3880  0.1077
 1949SOL    HW210786   3.193   7.003   6.773 -0.4510  1.4983  0.1556
 1950SOL     OW10787  10.918  10.475   1.875  0.7320 -0.5683 -0.0228
 1950SOL    HW110788  10.928  10.458   1.968 -0.0088 -0.4414  0.0873
 1950SOL    HW210789  10.906  10.570   1.869 -3.5408 -0.8803  0.2424
 1951SOL     OW10790   8.608   0.076   2.143 -1.0244 -0.5974 -0.0124
 1951SOL    HW110791   8.630   0.065   2.050  2.2282  0.7840  0.4772
 1951SOL    HW210792   8.615   0.170   2.159  0.3560 -0.9787  1.9957
 1952SOL     OW10793  10.175   7.221   3.820  0.2894  0.1674 -0.2466
 1952SOL    HW110794  10.139   7.147   3.771 -0.3029  0.8668 -0.8823
 1952SOL    HW210795  10.227   7.270   3.756  0.7229  0.2796  0.1812
 1953SOL     OW10796   1.716   5.206   3.351  0.1054 -0.1193  0.0246
 1953SOL    HW110797   1.639   5.241   3.396 -0.1689 -0.5226 -0.1243
 1953SOL    HW210798   1.774   5.281   3.339 -0.9858  0.5193 -1.3797
 1954SOL     OW10799   3.424   7.739   9.873  0.0695  0.2242 -0.4205
 1954SOL    HW110800   3.498   7.678   9.875 -0.6449 -0.7067 -1.3846
 1954SOL    HW210801   3.346   7.683   9.868 -0.8102  1.1376  1.7678
 1955SOL     OW10802   4.886   0.682   7.007  0.1781 -0.4522 -0.8136
 1955SOL    HW110803   4.960   0.621   7.003  0.0458 -0.5840 -1.2158
 1955SOL    HW210804   4.902   0.733   7.087  0.0865 -1.2724 -0.2583
 1956SOL     OW10805   3.307   4.802   7.901  0.4293 -0.1899 -0.5432
 1956SOL    HW110806   3.241   4.745   7.862  1.6959 -1.4449 -0.9240
 1956SOL    HW210807   3.342   4.852   7.827 -0.0675  0.4790 -0.3400
 1957SOL     OW10808   8.170   1.869   1.540 -0.0859 -0.2079 -0.4674
 1957SOL    HW110809   8.108   1.809   1.498 -0.7564 -0.5413  0.9194
 1957SOL    HW210810   8.119   1.948   1.557  0.8683  0.9289 -2.5455
 1958SOL     OW10811   4.203   3.840   8.191  0.8240 -0.0965 -0.2418
 1958SOL    HW110812   4.184   3.779   8.262 -4.1472  0.9110 -0.3408
 1958SOL    HW210813   4.156   3.804   8.116  0.7196  2.0154 -1.2575
 1959SOL     OW10814  10.487   5.661   0.861 -0.6084 -0.3747 -0.4936
 1959SOL    HW110815  10.409   5.647   0.915 -0.9614 -1.0431 -1.1431
 1959SOL    HW210816  10.487   5.586   0.801  2.1058 -1.9771  1.3151
 1960SOL     OW10817   6.761   4.728   4.164 -0.8328  0.2847  0.0824
 1960SOL    HW110818   6.685   4.679   4.131 -0.5263 -1.7660  2.1496
 1960SOL    HW210819   6.830   4.662   4.172  0.8888  1.9098 -0.8064
 1961SOL     OW10820   7.175   2.253   3.013  0.6156 -0.0299  0.5288
 1961SOL    HW110821   7.222   2.324   2.967 -0.4369 -0.0305 -0.5998
 1961SOL    HW210822   7.086   2.286   3.023  0.2224 -1.0226  0.3758
 1962SOL     OW10823   7.238   5.813   1.098 -0.3651  0.0517 -0.1496
 1962SOL    HW110824   7.225   5.800   1.004 -1.6556 -1.1005  0.1521
 1962SOL    HW210825   7.171   5.758   1.139  1.8006 -1.5392  1.5039
 1963SOL     OW10826   7.581   1.344   4.097 -0.1563  0.0218 -1.1678
 1963SOL    HW110827   7.530   1.326   4.018 -0.7589  0.7551 -0.9593
 1963SOL    HW210828   7.617   1.432   4.081  1.3668 -0.6246 -1.4755
 1964SOL     OW10829   0.852   5.521  11.081  0.0895  0.2475 -0.1771
 1964SOL    HW110830   0.932   5.574  11.077  0.7364 -0.7256 -0.5927
 1964SOL    HW210831   0.829   5.507  10.989  0.4299 -0.9184 -0.0921
 1965SOL     OW10832   9.257   8.153   1.846  0.4559 -0.0249  0.2405
 1965SOL    HW110833   9.290   8.163   1.935 -1.0378  2.0652  0.6328
 1965SOL    HW210834   9.201   8.230   1.832  0.2545 -0.5376 -2.3316
 1966SOL     OW10835   6.301   8.094   0.030  0.0048  0.7880 -0.4201
 1966SOL    HW110836   6.342   8.081  -0.055  1.7444  0.6713  0.3918
 1966SOL    HW210837   6.365   8.144   0.080 -0.7027  0.2968  1.0246
 1967SOL     OW10838  10.355   0.133   9.542  0.8580 -0.1341  0.5896
 1967SOL    HW110839  10.448   0.149   9.558  0.7228  1.3727  0.0450
 1967SOL    HW210840  10.311   0.212   9.575 -0.0361  0.0088 -0.8355
 1968SOL     OW10841   9.083   9.978  10.867 -0.0757  0.1149  0.0245
 1968SOL    HW110842   9.117   9.889  10.858  1.6036  0.6820  0.3099
 1968SOL    HW210843   9.118  10.024  10.790 -1.8700  0.2877 -0.7374
 1969SOL     OW10844  10.059   2.324  11.287 -0.3553  0.2923  0.5306
 1969SOL    HW110845  10.043   2.297  11.378 -1.3130  1.1510  0.6345
 1969SOL    HW210846  10.033   2.248  11.235 -0.3308 -0.0053  0.9438
 1970SOL     OW10847   0.394  11.166   3.723 -0.3992 -0.4570  0.1204
 1970SOL    HW110848   0.337  11.185   3.798  0.2098 -2.3274  1.1232
 1970SOL    HW210849   0.468  11.225   3.734 -0.3871 -0.6135  0.9245
 1971SOL     OW10850   4.852   4.950   0.803 -0.2236 -0.6095 -0.2090
 1971SOL    HW110851   4.896   5.017   0.856  0.5684 -1.1129 -0.2034
 1971SOL    HW210852   4.810   4.999   0.733 -0.3373 -0.0351  0.2522
 1972SOL     OW10853   5.956   4.481   3.001 -0.3981  0.3426  0.2789
 1972SOL    HW110854   5.917   4.408   3.049  2.0539 -0.4605  1.1966
 1972SOL    HW210855   5.952   4.554   3.062 -1.5041  0.6143 -0.0899
 1973SOL     OW10856   7.213  10.992   0.823 -0.6035  0.4397 -0.5032
 1973SOL    HW110857   7.208  11.046   0.745  0.6397  1.0266 -0.2004
 1973SOL    HW210858   7.306  10.974   0.835 -0.6169  1.2920  1.4295
 1974SOL     OW10859   6.115   5.229  11.046 -0.3148  0.5886  0.4151
 1974SOL    HW110860   6.085   5.243  10.956  0.4596 -1.2800 -0.1815
 1974SOL    HW210861   6.200   5.186  11.036 -0.2312  0.3271  2.0579
 1975SOL     OW10862   7.584   0.593   2.620  0.0728 -0.0598  0.3114
 1975SOL    HW110863   7.606   0.593   2.527 -0.6149 -0.8723  0.1287
 1975SOL    HW210864   7.540   0.676   2.635 -0.0701 -0.0466 -0.1652
 1976SOL     OW10865   7.031  11.075   7.828 -0.1851  0.2819 -0.5222
 1976SOL    HW110866   7.016  11.102   7.919  0.6913  0.7540 -0.5137
 1976SOL    HW210867   7.126  11.077   7.817 -0.3315  1.6217 -1.8733
 1977SOL     OW10868   9.520   5.747  10.239 -0.5460  0.1181  0.2420
 1977SOL    HW110869   9.584   5.684  10.272 -1.6014 -0.5404  1.0772
 1977SOL    HW210870   9.478   5.702  10.166 -0.6795  0.2002  0.2683
 1978SOL     OW10871   6.320   5.017  11.668 -0.0790 -0.2837  0.0716
 1978SOL    HW110872   6.385   5.060  11.723 -1.2048  1.3981  0.1710
 1978SOL    HW210873   6.257   5.086  11.647 -0.3300 -1.1547 -2.3727
 1979SOL     OW10874   3.204   7.493  10.134  0.7809  0.1079  0.1530
 1979SOL    HW110875   3.165   7.440  10.204  0.1878  2.5409  1.7931
 1979SOL    HW210876   3.142   7.486  10.062 -1.6413  1.9268  1.8573
 1980SOL     OW10877   2.731   3.607  10.544 -0.2646 -0.1486 -0.3122
 1980SOL    HW110878   2.651   3.597  10.594 -0.6711 -0.5153 -1.0177
 1980SOL    HW210879   2.715   3.558  10.463  1.4077 -2.0219  0.3800
 1981SOL     OW10880   0.537   4.542   3.953 -0.4419 -0.7805 -0.4037
 1981SOL    HW110881   0.529   4.449   3.977  0.7411 -0.7449  0.1883
 1981SOL    HW210882   0.631   4.556   3.941 -0.4928  0.5846  0.5567
 1982SOL     OW10883   5.817   2.430   0.503  0.1249  0.5995 -0.6547
 1982SOL    HW110884   5.888   2.493   0.492 -0.4671  1.1119 -1.7459
 1982SOL    HW210885   5.758   2.472   0.566  1.3092 -0.3313  1.1472
 1983SOL     OW10886   1.388   2.837  11.413  0.4409 -0.1543  0.2369
 1983SOL    HW110887   1.314   2.885  11.374  0.4932  1.4598  1.9994
 1983SOL    HW210888   1.429   2.900  11.472  2.2891 -1.5282  0.5032
 1984SOL     OW10889   4.118   1.169   8.796 -0.9741 -0.3265 -0.3951
 1984SOL    HW110890   4.196   1.138   8.840 -0.6418  1.3472  0.2905
 1984SOL    HW210891   4.150   1.224   8.724 -1.5017  0.5314  0.0079
 1985SOL     OW10892   4.723   4.463   2.992 -0.2315 -0.3539 -0.5711
 1985SOL    HW110893   4.657   4.505   3.048  0.2363  2.2010 -1.7801
 1985SOL    HW210894   4.672   4.423   2.922 -0.5957  1.4427 -1.3984
 1986SOL     OW10895   5.881   6.343   6.053  0.0466  0.0768 -0.4282
 1986SOL    HW110896   5.884   6.420   5.996 -0.2073  0.3661 -0.0581
 1986SOL    HW210897   5.942   6.364   6.124  0.8949 -0.5748 -0.9415
 1987SOL     OW10898   6.888   8.756   7.550 -0.5784  0.3748  0.0999
 1987SOL    HW110899   6.977   8.781   7.575 -0.2051  0.3573 -1.1323
 1987SOL    HW210900   6.840   8.751   7.633  1.1291 -1.8945  1.0664
 1988SOL     OW10901  10.322  10.273  10.184 -0.0939  0.2244  0.5625
 1988SOL    HW110902  10.335  10.272  10.278 -1.8670 -0.0024  0.8349
 1988SOL    HW210903  10.411  10.269  10.147  0.5886 -0.4264  2.2005
 1989SOL     OW10904  11.158   5.533   4.268 -0.0580  0.5397  0.1184
 1989SOL    HW110905  11.243   5.574   4.284 -0.0615  0.2537  0.9422
 1989SOL    HW210906  11.165   5.447   4.311  0.0990 -0.5210 -1.9202
 1990SOL     OW10907   6.078   1.220   8.594  0.0791  0.0371 -0.4250
 1990SOL    HW110908   6.134   1.145   8.613 -1.9234 -1.3388  0.3495
 1990SOL    HW210909   5.998   1.204   8.644 -0.8718  2.1269 -1.1514
 1991SOL     OW10910   9.474   5.648   4.090 -0.7972 -0.3620  0.0325
 1991SOL    HW110911   9.477   5.553   4.091  1.3472 -0.3893 -1.8734
 1991SOL    HW210912   9.560   5.676   4.121 -1.6118  1.0214  1.2328
 1992SOL     OW10913   4.236   1.054   6.675 -0.5304  0.5916  0.5384
 1992SOL    HW110914   4.310   0.994   6.669  0.7949  2.1409  0.5997
 1992SOL    HW210915   4.268   1.126   6.729 -1.6724  1.8786 -0.4124
 1993SOL     OW10916   6.871   8.681   0.101  0.2202 -0.1588  0.3626
 1993SOL    HW110917   6.890   8.744   0.169  0.8306 -0.5394  0.5535
 1993SOL    HW210918   6.831   8.732   0.030 -0.0334  0.2990  0.8345
 1994SOL     OW10919   4.306   9.911   7.250  0.2367  0.1595 -0.2635
 1994SOL    HW110920   4.240   9.882   7.313  0.4986 -0.0570 -0.0846
 1994SOL    HW210921   4.356   9.978   7.298  1.0760 -0.7191  0.1129
 1995SOL     OW10922   3.077   4.661   2.872 -0.1577 -0.0738  0.0923
 1995SOL    HW110923   3.020   4.707   2.811 -0.4863 -1.6150 -0.8182
 1995SOL    HW210924   3.043   4.571   2.874  3.2698 -1.6377 -2.0380
 1996SOL     OW10925   9.357   7.611   7.408 -0.0127 -0.1386 -0.4656
 1996SOL    HW110926   9.297   7.601   7.482  0.8547  0.3356  0.3270
 1996SOL    HW210927   9.443   7.620   7.449  0.5938 -0.7269 -1.5758
 1997SOL     OW10928   4.874   7.071   3.568  0.2375 -0.1110  0.4822
 1997SOL    HW110929   4.791   7.092   3.612  0.4158  0.0131  0.7581
 1997SOL    HW210930   4.855   7.085   3.475  0.1496  0.6181  0.5991
 1998SOL     OW10931   7.620   7.325   8.800 -0.4977 -0.1077 -0.8100
 1998SOL    HW110932   7.628   7.253   8.737 -0.2137  0.2894 -1.2297
 1998SOL    HW210933   7.710   7.345   8.826 -0.5617  0.2246 -0.8428
 1999SOL     OW10934   2.958   4.503   9.301 -0.0866 -0.1453 -0.3050
 1999SOL    HW110935   3.043   4.543   9.318 -1.5814  2.2207  2.5826
 1999SOL    HW210936   2.930   4.468   9.386 -2.0408 -0.7404 -1.1339
 2000SOL     OW10937   0.795   4.307   3.388 -0.1942  0.3564  0.1437
 2000SOL    HW110938   0.830   4.396   3.394 -0.1790  0.3344  0.3718
 2000SOL    HW210939   0.841   4.258   3.455 -0.2091  0.1769  0.0234
 2001SOL     OW10940   5.508   5.536   9.333  0.2968 -0.3385 -0.2108
 2001SOL    HW110941   5.418   5.522   9.363  0.9822 -1.3160  1.5345
 2001SOL    HW210942   5.498   5.578   9.248 -1.8046 -0.0152  0.1316
 2002SOL     OW10943   5.945   7.883   5.349  0.0102 -0.0749 -0.6654
 2002SOL    HW110944   5.988   7.945   5.291  0.0091 -1.1259 -1.8132
 2002SOL    HW210945   6.014   7.853   5.408  0.7047 -1.1204 -1.9580
 2003SOL     OW10946   4.923  11.438   3.356 -0.2187 -0.2729 -0.1416
 2003SOL    HW110947   4.919  11.480   3.270 -0.5196 -1.0166 -0.5004
 2003SOL    HW210948   4.943  11.346   3.337  0.9159 -0.2160  0.6534
 2004SOL     OW10949  11.284   6.803   4.014  0.1450  0.1676  0.3332
 2004SOL    HW110950  11.358   6.747   4.040 -0.8164 -0.9720  0.7219
 2004SOL    HW210951  11.283   6.872   4.080  0.2944 -0.3467  0.8919
 2005SOL     OW10952   6.894  10.228   9.133 -0.0170 -0.0167 -0.1437
 2005SOL    HW110953   6.958  10.177   9.182 -0.9558 -1.6629 -0.5403
 2005SOL    HW210954   6.890  10.313   9.178  0.4311 -0.8453  1.5193
 2006SOL     OW10955  10.675   4.021   3.881 -0.7000  0.4209 -0.0754
 2006SOL    HW110956  10.605   3.986   3.937 -0.9344  2.4524  1.0161
 2006SOL    HW210957  10.675   4.115   3.900  2.2268  0.5149 -0.1729
 2007SOL     OW10958   3.011   6.992   7.038 -0.0119  0.2304 -0.2942
 2007SOL    HW110959   2.997   6.930   7.110 -1.0929  0.8452  0.0460
 2007SOL    HW210960   2.977   6.946   6.961  1.1574 -0.4342 -0.4385
 2008SOL     OW10961   3.255  11.115  10.596  0.1119  0.2960 -0.3050
 2008SOL    HW110962   3.190  11.044  10.594 -1.7318  1.7834  1.7732
 2008SOL    HW210963   3.312  11.094  10.670 -1.8156  1.9284  1.8143
 2009SOL     OW10964   9.128   3.438   9.011 -0.1203 -0.1068 -0.2535
 2009SOL    HW110965   9.170   3.513   8.970  0.3673 -0.3880 -0.2683
 2009SOL    HW210966   9.129   3.458   9.105  0.0776 -0.1328 -0.2510
 2010SOL     OW10967   8.703   7.317   0.955 -0.3393  0.5546 -0.1348
 2010SOL    HW110968   8.691   7.241   1.012  2.6502  0.3957  0.4670
 2010SOL    HW210969   8.640   7.381   0.987 -2.1070 -1.2184  0.1094
 2011SOL     OW10970   2.180   7.807   0.345  0.4412 -0.1973 -0.3601
 2011SOL    HW110971   2.098   7.777   0.306  0.5612  1.3975 -1.9404
 2011SOL    HW210972   2.168   7.792   0.439 -1.9848  0.6664 -0.4542
 2012SOL     OW10973   0.403   8.082   5.005 -0.0567  0.1797 -0.4776
 2012SOL    HW110974   0.385   7.991   4.981 -1.2646  0.5143 -0.8932
 2012SOL    HW210975   0.459   8.114   4.935 -0.5470  0.0730 -0.9254
 2013SOL     OW10976   0.674   4.306   1.611 -0.0125 -0.1689 -0.4504
 2013SOL    HW110977   0.712   4.242   1.550 -0.0475 -0.0094 -0.6397
 2013SOL    HW210978   0.582   4.311   1.586 -0.3299 -1.0914  0.4744
 2014SOL     OW10979   4.712   7.344   8.846 -0.1290 -0.0750 -0.4512
 2014SOL    HW110980   4.765   7.423   8.839  3.8929 -2.3986  0.7359
 2014SOL    HW210981   4.682   7.343   8.937 -0.4757  0.2142 -0.5590
 2015SOL     OW10982   1.482   3.709   2.780  0.2728  0.0435 -0.1115
 2015SOL    HW110983   1.521   3.749   2.703 -0.5253 -0.6431 -0.8940
 2015SOL    HW210984   1.388   3.723   2.770  0.0731 -0.9827  0.1830
 2016SOL     OW10985   8.567   6.721  10.112  0.5009 -0.5729  0.2843
 2016SOL    HW110986   8.518   6.748  10.190  1.4526  0.8804  0.4230
 2016SOL    HW210987   8.615   6.643  10.140 -1.8980 -2.2476  0.0459
 2017SOL     OW10988   1.492  10.840   7.124  0.5803  0.7080  0.0992
 2017SOL    HW110989   1.512  10.924   7.084  0.1518  0.6583 -0.2145
 2017SOL    HW210990   1.577  10.795   7.129  0.4089 -0.0808 -2.5484
 2018SOL     OW10991   3.541   2.052   8.199 -0.3767 -0.2133 -0.3969
 2018SOL    HW110992   3.487   2.045   8.121 -0.5168 -3.6163 -0.1754
 2018SOL    HW210993   3.631   2.049   8.167 -0.4334 -1.4035 -0.5015
 2019SOL     OW10994   4.332   4.078  10.940 -0.4311 -0.4155  0.1905
 2019SOL    HW110995   4.285   4.150  10.981 -0.2302  0.7912 -1.5992
 2019SOL    HW210996   4.340   4.012  11.009 -0.7992  1.1782  1.8197
 2020SOL     OW10997   5.972   3.516   3.222 -0.4029  0.0088 -0.3379
 2020SOL    HW110998   6.018   3.458   3.161  2.4232  0.6631  0.9580
 2020SOL    HW210999   5.970   3.601   3.179  1.3835  0.4154  0.2887
 2021SOL     OW11000   2.285   3.790   8.432  0.0183  0.1792  0.3859
 2021SOL    HW111001   2.355   3.819   8.374  1.8097 -3.7029  0.2886
 2021SOL    HW211002   2.209   3.779   8.374  0.8522 -0.5184 -0.6091
 2022SOL     OW11003   9.821   9.279   1.407  0.0595 -0.4789 -0.1364
 2022SOL    HW111004   9.838   9.217   1.337 -1.0960 -0.1105 -0.7736
 2022SOL    HW211005   9.833   9.229   1.488 -1.5557 -1.7534 -0.6335
 2023SOL     OW11006   7.371  10.370   4.906 -0.3369  0.5150 -0.2385
 2023SOL    HW111007   7.298  10.397   4.851 -0.2652  0.4518 -0.3637
 2023SOL    HW211008   7.436  10.439   4.895 -0.7092  1.0021  0.5213
 2024SOL     OW11009   4.763   1.266  10.726  0.3012 -0.1692 -0.1166
 2024SOL    HW111010   4.704   1.222  10.787  0.8869  0.9801  1.3146
 2024SOL    HW211011   4.845   1.216  10.731  1.3842  1.6684  2.4467
 2025SOL     OW11012   3.802   4.631   4.732 -0.0452  0.1210  0.7689
 2025SOL    HW111013   3.723   4.685   4.740 -0.6971 -0.2672 -1.9654
 2025SOL    HW211014   3.772   4.554   4.683  2.0990  0.1142 -0.6246
 2026SOL     OW11015   1.041   8.143   8.798 -0.2993 -0.3672  0.4467
 2026SOL    HW111016   1.067   8.233   8.778 -0.5199 -0.3150  0.3908
 2026SOL    HW211017   1.122   8.102   8.829  0.5111 -0.9121 -2.0768
 2027SOL     OW11018  11.063  10.715   1.620  0.2637 -0.6043  0.8629
 2027SOL    HW111019  10.976  10.748   1.644 -0.0805 -0.6952 -0.1720
 2027SOL    HW211020  11.045  10.648   1.554  1.2118  1.3829 -1.5893
 2028SOL     OW11021   9.947  10.271   5.402 -0.7539 -0.6234  0.0024
 2028SOL    HW111022   9.854  10.267   5.422 -0.7705  0.9982  0.3779
 2028SOL    HW211023   9.958  10.350   5.350  0.4918 -0.4905  0.4217
 2029SOL     OW11024   5.246   0.553   0.893  0.1720  0.3017  0.5108
 2029SOL    HW111025   5.298   0.621   0.850 -0.1401  1.0998  1.3351
 2029SOL    HW211026   5.243   0.481   0.831  0.4912  1.0622 -0.4080
 2030SOL     OW11027   8.463   4.956   2.181 -0.2596  0.1264 -0.2089
 2030SOL    HW111028   8.435   5.022   2.117  0.0921 -0.7100 -1.2482
 2030SOL    HW211029   8.469   5.005   2.263 -0.2454  1.3450 -0.9004
 2031SOL     OW11030  10.837   4.875   1.413  0.1482 -0.0576 -0.1356
 2031SOL    HW111031  10.780   4.836   1.479 -0.2227 -0.4742 -0.6871
 2031SOL    HW211032  10.840   4.968   1.434 -0.2580 -0.1329  0.2487
 2032SOL     OW11033   9.052   2.308   1.178  0.0705 -0.2733  0.8146
 2032SOL    HW111034   9.041   2.222   1.136 -1.0884  0.0452  0.4391
 2032SOL    HW211035   9.134   2.300   1.227  0.1708 -1.4734  0.4866
 2033SOL     OW11036   5.510   5.078   3.708  0.0720  0.0017  0.0851
 2033SOL    HW111037   5.438   5.037   3.756  0.4061  1.9953  2.5360
 2033SOL    HW211038   5.583   5.016   3.716 -0.4297 -0.5345  0.5379
 2034SOL     OW11039   1.361   6.671   1.727  0.0137  0.1394  0.1360
 2034SOL    HW111040   1.426   6.603   1.743 -0.9596 -0.9320 -0.3491
 2034SOL    HW211041   1.391   6.716   1.648  1.1127  0.8584  0.9382
 2035SOL     OW11042   6.638   4.422   7.396  0.4948 -0.2003 -0.0050
 2035SOL    HW111043   6.568   4.371   7.356 -0.0663  0.2540  0.3847
 2035SOL    HW211044   6.708   4.422   7.331 -0.2825  0.2738 -0.8575
 2036SOL     OW11045   3.759   4.150   1.090 -0.3155  0.0457 -0.0817
 2036SOL    HW111046   3.714   4.221   1.135 -0.5181  0.4753 -0.9329
 2036SOL    HW211047   3.689   4.101   1.047 -0.2783 -1.2724  1.2922
 2037SOL     OW11048  11.144   6.687   7.000 -0.0431  0.0277 -0.0343
 2037SOL    HW111049  11.123   6.602   6.961  0.2610  0.5635 -1.4133
 2037SOL    HW211050  11.192   6.665   7.080  0.7763 -1.0954 -0.7961
 2038SOL     OW11051   3.663   8.280   8.482 -0.4353  0.2709  0.1070
 2038SOL    HW111052   3.630   8.333   8.409  0.9338 -0.8708 -1.4137
 2038SOL    HW211053   3.756   8.267   8.462  0.2044  0.6798  2.5572
 2039SOL     OW11054   6.647   7.149   2.669  0.0856  0.3757 -0.0244
 2039SOL    HW111055   6.581   7.139   2.600  1.4208 -0.6449 -1.2052
 2039SOL    HW211056   6.721   7.192   2.625  1.2111 -0.8833  0.5681
 2040SOL     OW11057   5.510   6.446   5.597 -0.1737  0.0365 -0.2443
 2040SOL    HW111058   5.437   6.508   5.590  0.6619  1.0964  0.1831
 2040SOL    HW211059   5.532   6.445   5.690  0.2957 -0.3494 -0.3569
 2041SOL     OW11060   0.489  11.354   4.126  0.1038 -0.0382  0.1713
 2041SOL    HW111061   0.503  11.334   4.218 -0.6449  0.7117  0.4565
 2041SOL    HW211062   0.493  11.269   4.082 -0.9725 -0.5786  1.0793
 2042SOL     OW11063   3.501   7.393   3.290 -0.7615 -0.7147 -0.0229
 2042SOL    HW111064   3.524   7.467   3.346 -0.8136 -1.0438  0.4430
 2042SOL    HW211065   3.510   7.426   3.201  1.1062 -0.7183  0.1374
 2043SOL     OW11066   2.611  11.030   8.606 -0.2156 -0.2673  0.1502
 2043SOL    HW111067   2.673  11.035   8.533 -1.8102 -1.1858 -1.3227
 2043SOL    HW211068   2.664  10.997   8.679  1.4890  0.9621 -0.4559
 2044SOL     OW11069   0.119  10.368   4.395 -0.5699  0.2633  0.2150
 2044SOL    HW111070   0.197  10.363   4.450 -0.1408 -0.3902 -0.4339
 2044SOL    HW211071   0.148  10.416   4.317 -0.3569 -1.3499 -0.7475
 2045SOL     OW11072   8.004   5.163   5.954  0.4783  0.2959  0.6452
 2045SOL    HW111073   8.010   5.156   6.049 -0.9026 -0.2949  0.7184
 2045SOL    HW211074   8.051   5.087   5.921  0.1633 -0.0112  0.8937
 2046SOL     OW11075  11.211   8.762   5.234  0.1637 -0.4873  0.3701
 2046SOL    HW111076  11.205   8.750   5.139  0.4995 -0.1915  0.3079
 2046SOL    HW211077  11.121   8.755   5.265 -0.4399  2.5964 -0.3637
 2047SOL     OW11078   6.201   9.309   5.150  1.0234  1.0304 -0.0309
 2047SOL    HW111079   6.145   9.385   5.133 -0.4301  0.0900  0.4383
 2047SOL    HW211080   6.183   9.285   5.241  2.9614  1.3016  0.4858
 2048SOL     OW11081   2.248   4.192   6.174 -0.0135 -0.2788 -0.4020
 2048SOL    HW111082   2.305   4.208   6.098 -1.2067  0.9486 -1.0927
 2048SOL    HW211083   2.224   4.100   6.167  1.9618 -0.8634 -0.0098
 2049SOL     OW11084   4.757   0.621   1.957  0.3386  0.2238  0.8425
 2049SOL    HW111085   4.708   0.686   1.907  0.4967 -1.0073 -1.0040
 2049SOL    HW211086   4.833   0.602   1.903  1.3062 -0.0862  2.2749
 2050SOL     OW11087   3.265   3.426  11.145 -0.0029 -0.1464 -0.1006
 2050SOL    HW111088   3.300   3.511  11.170  1.2550 -0.0179 -2.1115
 2050SOL    HW211089   3.332   3.387  11.090 -1.5024 -1.4696 -1.0973
 2051SOL     OW11090  11.074  11.223   3.061  0.2946  0.2303  0.0699
 2051SOL    HW111091  10.982  11.222   3.084  0.6114  2.1991  1.7452
 2051SOL    HW211092  11.093  11.315   3.042  1.6704 -0.3146 -1.4332
 2052SOL     OW11093   0.984   2.613  10.285 -0.1826 -0.0943 -0.1931
 2052SOL    HW111094   1.018   2.619  10.196 -0.9972  0.3383 -0.4870
 2052SOL    HW211095   1.058   2.583  10.337  1.0274  1.9459 -0.5972
 2053SOL     OW11096   5.565   8.641   0.489  0.0035 -0.2923  0.4871
 2053SOL    HW111097   5.475   8.618   0.513  0.2961 -1.6889  0.3182
 2053SOL    HW211098   5.574   8.610   0.399 -0.4536  3.1159 -0.9107
 2054SOL     OW11099   9.227   2.385  11.502  0.3623  0.5453  0.5667
 2054SOL    HW111100   9.289   2.327  11.546 -0.2226  0.5016  1.3694
 2054SOL    HW211101   9.280   2.437  11.442  1.6006  2.2102  2.9093
 2055SOL     OW11102  10.014   4.598   5.439 -0.1207 -0.0655 -0.3658
 2055SOL    HW111103  10.097   4.599   5.391 -1.2500  0.6362 -2.4361
 2055SOL    HW211104  10.035   4.557   5.522  2.2094 -0.3002 -0.9974
 2056SOL     OW11105   7.116  10.022   1.774  0.2870 -0.4312  0.6291
 2056SOL    HW111106   7.162  10.023   1.858  1.2473  0.4177  0.1215
 2056SOL    HW211107   7.110   9.930   1.751  0.9552 -0.6173  1.1413
 2057SOL     OW11108   6.418   5.964   5.688 -0.6422  0.0247 -0.3849
 2057SOL    HW111109   6.377   6.047   5.712 -0.6292 -0.1945  0.4304
 2057SOL    HW211110   6.351   5.898   5.707 -0.7033 -0.1434 -1.1626
 2058SOL     OW11111   4.745   1.530   9.883 -0.1321  0.0233  0.2501
 2058SOL    HW111112   4.668   1.477   9.864  0.8554 -1.2399 -0.4331
 2058SOL    HW211113   4.816   1.466   9.894  1.5911  1.1724 -2.8127
 2059SOL     OW11114   3.062   5.407   3.652 -0.0213  0.3884  0.3912
 2059SOL    HW111115   3.073   5.375   3.563 -0.3577  0.8321  0.1825
 2059SOL    HW211116   2.972   5.385   3.675  0.3017 -0.4147  0.9134
 2060SOL     OW11117   2.683   6.075   0.461  0.3377 -0.3146 -0.9388
 2060SOL    HW111118   2.621   6.146   0.448  0.9868  0.4436 -0.0545
 2060SOL    HW211119   2.746   6.084   0.390  0.7890  0.4250 -0.4633
 2061SOL     OW11120   7.042   8.137   9.666 -0.4851  0.3614  0.2681
 2061SOL    HW111121   7.061   8.230   9.656 -1.0191  0.5068  0.5946
 2061SOL    HW211122   6.997   8.130   9.750 -2.6908  0.1504 -0.8479
 2062SOL     OW11123   9.415  10.316  11.629  0.0417 -0.1365 -0.4492
 2062SOL    HW111124   9.351  10.270  11.575  0.2439 -0.1347 -0.6903
 2062SOL    HW211125   9.482  10.345  11.568 -0.9058  1.9500 -0.5951
 2063SOL     OW11126   4.015   1.805   7.288 -0.3337  0.2233 -0.0863
 2063SOL    HW111127   4.048   1.831   7.202  0.4625 -0.5860 -0.0426
 2063SOL    HW211128   4.082   1.747   7.323 -0.9224  0.0783  0.8402
 2064SOL     OW11129   4.343  10.356   4.852 -0.3196 -0.2601 -0.1008
 2064SOL    HW111130   4.323  10.324   4.763 -0.3459  0.6086 -0.4148
 2064SOL    HW211131   4.438  10.347   4.860 -0.5012 -2.2490  0.5540
 2065SOL     OW11132   8.903   8.200  10.096  0.0969  0.5258 -0.3216
 2065SOL    HW111133   8.880   8.208  10.189  0.4101  0.1887 -0.2135
 2065SOL    HW211134   8.891   8.107  10.076 -2.8150  1.0183 -1.3794
 2066SOL     OW11135   5.845  10.641   9.841 -0.4863 -0.1809 -0.5692
 2066SOL    HW111136   5.795  10.711   9.882  0.7440  0.2100  0.3494
 2066SOL    HW211137   5.925  10.684   9.810  0.3693 -1.1871  0.1736
 2067SOL     OW11138   6.087  11.010   9.223  0.0112 -0.2570 -0.1267
 2067SOL    HW111139   6.011  11.011   9.281 -0.9941 -1.3084 -1.3854
 2067SOL    HW211140   6.141  11.084   9.254 -0.2205 -1.0535  2.4236
 2068SOL     OW11141   6.447  11.116  11.553 -0.3186 -0.4865  0.6938
 2068SOL    HW111142   6.531  11.128  11.507 -0.1789 -1.3980  0.6843
 2068SOL    HW211143   6.382  11.116  11.483 -0.6105  2.3378  0.8522
 2069SOL     OW11144  10.546   0.360   7.741  0.3615 -0.1559 -0.4576
 2069SOL    HW111145  10.568   0.287   7.684 -0.0168 -1.5517  1.1174
 2069SOL    HW211146  10.622   0.418   7.736  0.0397  0.1708 -2.9184
 2070SOL     OW11147   2.504   1.363   7.712  0.4094  0.2565  0.6969
 2070SOL    HW111148   2.549   1.365   7.797 -0.7241 -2.8337  1.5012
 2070SOL    HW211149   2.573   1.341   7.649  0.9409  0.8481  1.0564
 2071SOL     OW11150   0.023   4.979   4.473 -0.4832  0.3932  0.0384
 2071SOL    HW111151   0.048   5.042   4.405  1.7942  0.3515  0.7644
 2071SOL    HW211152   0.106   4.941   4.502 -1.3278  0.6144  3.0427
 2072SOL     OW11153   9.115   0.457   9.999  0.2211  0.1754  0.6958
 2072SOL    HW111154   9.067   0.375  10.012  1.1020 -0.6079 -0.7153
 2072SOL    HW211155   9.091   0.485   9.911 -0.4423  1.7301  1.3382
 2073SOL     OW11156   0.161   1.590   4.421  0.6559  0.3642 -0.3427
 2073SOL    HW111157   0.187   1.583   4.513  0.7091  1.9377 -0.2008
 2073SOL    HW211158   0.238   1.626   4.377  0.2905  0.5760 -0.8146
 2074SOL     OW11159   3.171   5.604   3.086  0.4503  0.4784 -0.2594
 2074SOL    HW111160   3.131   5.588   3.171  1.0423 -0.2963 -0.1073
 2074SOL    HW211161   3.253   5.650   3.106  0.4857  0.4876 -0.4236
 2075SOL     OW11162   6.227   1.724   3.487  0.0206  0.1320 -0.4520
 2075SOL    HW111163   6.271   1.713   3.571 -0.8821 -0.5983 -0.0701
 2075SOL    HW211164   6.138   1.693   3.502  0.0355 -0.6655 -1.8584
 2076SOL     OW11165   3.418  11.207  10.366  0.3619  0.2423 -0.0660
 2076SOL    HW111166   3.371  11.199  10.449  0.5177 -0.5149 -0.0469
 2076SOL    HW211167   3.464  11.291  10.373 -1.2654  1.1883 -0.2417
 2077SOL     OW11168   5.607   3.605   0.954  0.5627  0.3892 -0.2892
 2077SOL    HW111169   5.681   3.574   0.902  1.5259  1.5796  0.2927
 2077SOL    HW211170   5.594   3.537   1.020 -1.6583 -1.8730 -2.8669
 2078SOL     OW11171  10.081   7.259   8.034 -0.2033  0.3684  0.4274
 2078SOL    HW111172  10.044   7.240   7.948  0.7377 -2.0379  0.4653
 2078SOL    HW211173  10.011   7.240   8.095 -0.4775  0.8559  0.2736
 2079SOL     OW11174   6.149   8.826   7.567  0.1377 -0.0454  0.5289
 2079SOL    HW111175   6.081   8.861   7.509 -0.0068  0.1851  0.8304
 2079SOL    HW211176   6.164   8.737   7.536 -1.4116 -0.6566  1.3939
 2080SOL     OW11177   4.703   8.565   0.964 -0.4155  0.4169  0.5673
 2080SOL    HW111178   4.726   8.545   1.054 -2.1910  0.3412  1.0341
 2080SOL    HW211179   4.737   8.654   0.950  0.9736 -0.0363  0.8642
 2081SOL     OW11180   8.569   8.567   3.027  0.4575  0.0754 -0.1394
 2081SOL    HW111181   8.533   8.649   3.060 -1.4499 -0.2827 -1.1760
 2081SOL    HW211182   8.495   8.507   3.025  1.0395 -0.6778 -2.4969
 2082SOL     OW11183   2.602   8.725   7.206 -0.2459 -0.1139  0.0101
 2082SOL    HW111184   2.617   8.819   7.192 -2.0711  0.7048  2.7292
 2082SOL    HW211185   2.619   8.686   7.121  1.8136  2.4784 -0.9384
 2083SOL     OW11186   7.959  10.384   9.731 -0.2165 -0.0505 -0.3159
 2083SOL    HW111187   7.992  10.422   9.650 -0.3480  0.4293 -0.1532
 2083SOL    HW211188   7.954  10.290   9.714 -0.6578  0.0918 -1.0089
 2084SOL     OW11189   4.389   1.323   1.571 -0.2865 -0.1285  0.2493
 2084SOL    HW111190   4.344   1.294   1.650 -0.9309 -0.1989 -0.1411
 2084SOL    HW211191   4.407   1.242   1.523  3.1402 -0.5157  1.8543
 2085SOL     OW11192   7.985   6.854   8.540  0.0406 -0.2005 -0.2223
 2085SOL    HW111193   7.952   6.785   8.598 -0.6679  0.0392 -0.3312
 2085SOL    HW211194   8.008   6.926   8.600 -1.1094  0.2153 -0.2495
 2086SOL     OW11195   5.570   9.467   8.536 -0.0755 -0.1768 -0.5744
 2086SOL    HW111196   5.543   9.559   8.531  1.6211  0.4428  0.7208
 2086SOL    HW211197   5.606   9.449   8.449  1.9481  1.2290 -0.0959
 2087SOL     OW11198  11.640   7.688   2.532  0.3033 -0.4259  0.0685
 2087SOL    HW111199  11.642   7.661   2.624  1.2479  1.5021  0.6725
 2087SOL    HW211200  11.550   7.717   2.518  0.2760 -0.2512  0.5536
 2088SOL     OW11201   7.513   1.012   2.661 -0.4101  0.5337 -0.5967
 2088SOL    HW111202   7.475   0.993   2.747  0.8170 -0.0398 -0.1564
 2088SOL    HW211203   7.489   0.938   2.606 -0.3268  0.3932 -0.4452
 2089SOL     OW11204   1.414   8.603   4.246  0.4875  0.2537  0.2505
 2089SOL    HW111205   1.344   8.633   4.187  0.5524  0.0010  0.0395
 2089SOL    HW211206   1.495   8.628   4.201  0.6377 -2.5630 -1.2840
 2090SOL     OW11207  11.189   4.867   7.403  0.0107  0.3089 -0.5300
 2090SOL    HW111208  11.148   4.818   7.331 -0.3539 -0.9584  0.5145
 2090SOL    HW211209  11.117   4.887   7.462  0.4078  0.8356 -0.2160
 2091SOL     OW11210   5.687   7.377   6.913  0.0245  0.5311 -0.0502
 2091SOL    HW111211   5.677   7.290   6.953  1.7315  0.0483 -0.5848
 2091SOL    HW211212   5.674   7.362   6.819 -1.4139  1.1975  0.0180
 2092SOL     OW11213   4.059  11.076   0.305  0.1284 -0.4281 -0.1379
 2092SOL    HW111214   3.988  11.141   0.314  0.3055 -0.4741  1.9641
 2092SOL    HW211215   4.139  11.128   0.310  0.2791 -0.7713  1.9050
 2093SOL     OW11216   1.495   7.109   5.333 -0.2852  0.1194 -0.4955
 2093SOL    HW111217   1.567   7.150   5.381 -0.1327  0.0756 -0.6873
 2093SOL    HW211218   1.527   7.021   5.312 -0.9669 -0.4499  0.7475
 2094SOL     OW11219   6.992   5.859   0.626 -0.3589 -0.2829  0.0049
 2094SOL    HW111220   7.007   5.770   0.592  0.4061 -0.1519 -0.0086
 2094SOL    HW211221   6.916   5.890   0.577 -0.6654 -0.9498  0.0427
 2095SOL     OW11222   3.974   9.450   4.971  0.4245  0.7327  0.3127
 2095SOL    HW111223   4.046   9.489   4.921 -0.2368 -0.4631 -1.6998
 2095SOL    HW211224   3.897   9.501   4.946  0.0817  0.1283  0.1183
 2096SOL     OW11225   7.512   5.989   4.080 -0.2999  0.4443  0.5267
 2096SOL    HW111226   7.455   6.022   4.149 -0.5367  0.4802  0.3187
 2096SOL    HW211227   7.494   5.895   4.077  2.8693 -0.4592  3.4674
 2097SOL     OW11228   6.395   5.045   1.020  0.3298  0.4654 -0.0598
 2097SOL    HW111229   6.331   5.061   1.089  0.3138 -0.6113  0.1926
 2097SOL    HW211230   6.413   4.951   1.025 -0.1184  0.2528 -1.9090
 2098SOL     OW11231   6.359   9.571   3.744 -0.0450  0.6441 -0.0503
 2098SOL    HW111232   6.432   9.529   3.700  0.1497 -0.2477  1.0786
 2098SOL    HW211233   6.320   9.502   3.798 -1.1014  1.3593  0.1390
 2099SOL     OW11234   7.939   5.789   7.496  0.2216 -0.2995 -0.0811
 2099SOL    HW111235   8.011   5.745   7.541 -0.6420 -0.1534  1.5209
 2099SOL    HW211236   7.968   5.796   7.405  2.5451  0.4196  0.6418
 2100SOL     OW11237   5.878   6.188   4.374  0.6020  0.0146  0.4791
 2100SOL    HW111238   5.967   6.159   4.392  0.7775  0.2411 -0.0052
 2100SOL    HW211239   5.871   6.185   4.279 -0.2656 -1.0572  0.5524
 2101SOL     OW11240   6.632   9.751  10.871  0.2533 -0.4901  0.3069
 2101SOL    HW111241   6.676   9.763  10.786  1.3981  0.7511  1.0356
 2101SOL    HW211242   6.556   9.808  10.866 -0.3624 -1.3454 -0.3244
 2102SOL     OW11243   2.540   4.263   3.503 -0.2444 -0.4104 -0.1582
 2102SOL    HW111244   2.569   4.331   3.563 -2.8550  1.7437 -1.1150
 2102SOL    HW211245   2.620   4.236   3.457  1.5269 -0.9632  2.9966
 2103SOL     OW11246   0.585   6.780  10.862  0.2462 -0.0763  0.3496
 2103SOL    HW111247   0.596   6.859  10.809 -4.2365  0.5242 -0.0943
 2103SOL    HW211248   0.538   6.810  10.940 -2.8162 -2.2824 -0.4487
 2104SOL     OW11249   9.058   1.620   0.200 -0.1028  0.1455  0.0928
 2104SOL    HW111250   8.980   1.565   0.196 -0.4665  0.7167 -1.4722
 2104SOL    HW211251   9.091   1.620   0.110  2.8056 -1.5976  1.0238
 2105SOL     OW11252   4.132  11.539   6.693  0.2567  0.4424  0.0814
 2105SOL    HW111253   4.153  11.525   6.785  0.1684  0.0164  0.0391
 2105SOL    HW211254   4.141  11.453   6.653  0.0013  0.5677 -0.2507
 2106SOL     OW11255   2.635   7.665  10.842  0.0007 -0.3467 -0.6228
 2106SOL    HW111256   2.726   7.658  10.813  0.6545  0.1081  1.1757
 2106SOL    HW211257   2.610   7.755  10.824  0.4054 -0.0633  0.2026
 2107SOL     OW11258   3.388   9.440   5.692 -0.1502 -0.5043  0.5158
 2107SOL    HW111259   3.464   9.383   5.683  0.6051  0.6812 -1.0277
 2107SOL    HW211260   3.316   9.392   5.650  0.2807 -0.6623 -0.0420
 2108SOL     OW11261  10.072   7.732   2.593 -0.1973  0.1261 -0.5820
 2108SOL    HW111262   9.979   7.708   2.587 -0.1403 -0.2936  0.1020
 2108SOL    HW211263  10.077   7.784   2.674  0.1889  0.0364 -0.5480
 2109SOL     OW11264   5.642   5.894   3.369  0.5749  0.2563 -0.2368
 2109SOL    HW111265   5.580   5.945   3.316 -1.0388 -0.4443  0.8893
 2109SOL    HW211266   5.700   5.960   3.408 -1.0424  1.2154  0.6513
 2110SOL     OW11267   0.492   7.865   4.305 -0.8450 -0.5948  0.3313
 2110SOL    HW111268   0.532   7.778   4.302 -0.2473 -0.3089 -1.5395
 2110SOL    HW211269   0.403   7.852   4.273 -0.6027 -0.4616 -0.4149
 2111SOL     OW11270   6.699   0.336   9.966  0.1925  0.0452 -0.3333
 2111SOL    HW111271   6.657   0.404  10.020  0.1243 -0.2695  0.0190
 2111SOL    HW211272   6.776   0.309  10.017  0.3142 -0.0189 -0.5512
 2112SOL     OW11273   5.808   0.016   9.064  0.2230  0.0951 -0.4116
 2112SOL    HW111274   5.737  -0.040   9.094  0.1895  0.2041 -0.2851
 2112SOL    HW211275   5.862   0.031   9.142  0.8186 -0.6199 -0.6655
 2113SOL     OW11276   4.140   2.444   4.537  0.0351 -0.3807 -0.0433
 2113SOL    HW111277   4.173   2.358   4.510  0.0062  0.0510 -1.5762
 2113SOL    HW211278   4.216   2.488   4.574 -0.4476 -1.8353  2.9132
 2114SOL     OW11279   4.571   4.670   0.904 -0.4693 -0.9985  0.6920
 2114SOL    HW111280   4.554   4.726   0.829  0.9284 -1.1975  0.1950
 2114SOL    HW211281   4.663   4.685   0.926 -1.0567 -0.3011  2.9269
 2115SOL     OW11282  10.017   4.741   5.013  0.5412  0.0617 -0.6381
 2115SOL    HW111283  10.000   4.674   4.947 -1.3121 -0.6366  0.4478
 2115SOL    HW211284   9.944   4.732   5.075  0.7059  2.5209  0.0107
 2116SOL     OW11285  10.370   5.714   4.739  0.5081  0.5002  0.1488
 2116SOL    HW111286  10.365   5.786   4.675 -1.9471  0.9786  0.7636
 2116SOL    HW211287  10.301   5.654   4.712  3.5234 -2.6288 -1.3134
 2117SOL     OW11288   5.183   8.231   2.503 -0.1457  0.1693  0.4103
 2117SOL    HW111289   5.276   8.235   2.525  0.2259  0.6824 -1.1188
 2117SOL    HW211290   5.176   8.154   2.446 -0.9152 -0.6178  1.5092
 2118SOL     OW11291   2.519   8.403  10.600  0.2922 -0.0597  0.2612
 2118SOL    HW111292   2.553   8.313  10.601  0.8937  0.1548 -0.4500
 2118SOL    HW211293   2.459   8.406  10.675 -1.2287 -1.6262 -0.8060
 2119SOL     OW11294   3.802   1.409   7.774 -0.0707  0.5010  0.0307
 2119SOL    HW111295   3.872   1.458   7.730  0.4752  0.3965  0.7695
 2119SOL    HW211296   3.806   1.439   7.865 -0.8911  0.3788  0.1119
 2120SOL     OW11297   9.329   7.120   4.549 -0.2646 -0.4726 -0.4640
 2120SOL    HW111298   9.392   7.090   4.484  0.8506  1.7357 -0.4709
 2120SOL    HW211299   9.304   7.208   4.520 -1.4138 -0.2953  0.9386
 2121SOL     OW11300   5.399   6.525   3.331  0.1267  0.2659  0.3995
 2121SOL    HW111301   5.463   6.539   3.261 -0.0674  1.5581  0.4397
 2121SOL    HW211302   5.452   6.511   3.410  0.3454 -0.3308  0.1521
 2122SOL     OW11303  11.504   0.666   4.253  0.2068  0.0406  0.5248
 2122SOL    HW111304  11.476   0.645   4.164  0.3722  1.1041  0.2133
 2122SOL    HW211305  11.464   0.598   4.308 -1.2487  0.3217 -0.1640
 2123SOL     OW11306   8.314   8.802  11.204  0.1142 -0.1925 -0.1301
 2123SOL    HW111307   8.368   8.773  11.277 -0.0819  0.4747  0.2954
 2123SOL    HW211308   8.230   8.757  11.217  0.3280 -0.6770 -0.3914
 2124SOL     OW11309   1.757   5.643   6.280  0.1497 -0.6358  0.4160
 2124SOL    HW111310   1.679   5.588   6.285 -1.1041  1.0432  0.3078
 2124SOL    HW211311   1.792   5.644   6.369 -0.6553 -0.4623  0.7397
 2125SOL     OW11312  10.910   3.278   6.242  0.6633  0.3065  0.2492
 2125SOL    HW111313  10.953   3.340   6.301 -1.8243  1.0972  1.3914
 2125SOL    HW211314  10.871   3.212   6.300  1.1427 -0.9407 -0.7879
 2126SOL     OW11315   8.141   5.539   0.881  0.5102  0.2316 -0.0412
 2126SOL    HW111316   8.166   5.460   0.929  2.0410  0.7325  0.0615
 2126SOL    HW211317   8.076   5.582   0.936  0.7105 -0.2563  0.5802
 2127SOL     OW11318   4.011   2.095   6.658  0.1062 -0.4013 -0.1991
 2127SOL    HW111319   3.952   2.050   6.719 -1.4732  2.0467  0.2038
 2127SOL    HW211320   3.960   2.104   6.578  1.1710 -1.1159 -0.9822
 2128SOL     OW11321   8.697   7.948  11.212  0.2245  0.4650  0.3100
 2128SOL    HW111322   8.664   7.943  11.302  0.0737 -0.2124  0.2159
 2128SOL    HW211323   8.764   7.880  11.208 -0.1104  0.1684 -0.2388
 2129SOL     OW11324   7.779   9.397  11.184  0.0814  0.5226 -0.6842
 2129SOL    HW111325   7.758   9.304  11.177 -0.5768  0.6021  0.0894
 2129SOL    HW211326   7.706   9.435  11.233 -0.5742  1.7741 -2.4853
 2130SOL     OW11327   3.110  10.652   5.848 -0.6768 -0.0829  0.0113
 2130SOL    HW111328   3.054  10.635   5.924 -0.7559  2.3948  0.5679
 2130SOL    HW211329   3.060  10.713   5.794  0.6473  0.6290 -0.4636
 2131SOL     OW11330  10.899   8.558   7.061  0.1544 -0.4378  0.9185
 2131SOL    HW111331  10.974   8.604   7.022  1.8592 -1.9696  2.1954
 2131SOL    HW211332  10.878   8.609   7.139  0.0045 -0.1187  0.6706
 2132SOL     OW11333   4.363   9.349   6.719 -0.6007  0.8210 -0.4774
 2132SOL    HW111334   4.348   9.413   6.649  2.0428  0.5385 -1.3986
 2132SOL    HW211335   4.395   9.271   6.674 -1.3150 -0.2851  0.8656
 2133SOL     OW11336   8.292   9.110   3.988  0.1317 -0.5918 -0.2262
 2133SOL    HW111337   8.257   9.195   3.960 -1.3105 -1.0056  0.2056
 2133SOL    HW211338   8.268   9.104   4.080  2.5704 -0.3572  0.4938
 2134SOL     OW11339   2.596   6.110   2.080  0.3533  1.0849 -0.1541
 2134SOL    HW111340   2.623   6.056   2.154  0.4222  0.0385 -0.9316
 2134SOL    HW211341   2.672   6.113   2.023 -0.4258 -0.0613 -1.2981
 2135SOL     OW11342   5.656   0.631   6.878  0.9065  0.2643  0.5633
 2135SOL    HW111343   5.657   0.541   6.845 -0.0641  0.7781 -0.9922
 2135SOL    HW211344   5.737   0.670   6.844  0.3292  0.5419 -0.5487
 2136SOL     OW11345  10.061   8.704   4.986  0.2473 -0.1348  0.8370
 2136SOL    HW111346  10.128   8.646   5.023  1.6455  1.5420  1.0944
 2136SOL    HW211347  10.018   8.742   5.063  0.7465  0.6931  0.7181
 2137SOL     OW11348   1.713   3.474   7.987  0.1012  0.1360 -0.1807
 2137SOL    HW111349   1.677   3.399   7.939 -1.3981  0.1123  0.9114
 2137SOL    HW211350   1.734   3.439   8.073  1.1443  0.5792 -0.2385
 2138SOL     OW11351   6.302   4.220   7.025 -0.0362  0.1126 -0.2163
 2138SOL    HW111352   6.318   4.231   6.931  1.7864 -0.2786  0.0184
 2138SOL    HW211353   6.216   4.178   7.030 -0.4732  0.7718 -1.6679
 2139SOL     OW11354  11.294   3.978  10.381 -0.0328  0.2547  0.1049
 2139SOL    HW111355  11.362   3.918  10.414  0.0488  0.4376  0.2699
 2139SOL    HW211356  11.295   4.051  10.442  1.0273  1.2274 -1.0322
 2140SOL     OW11357   0.631   0.447   9.688 -0.5064 -0.4213 -0.2167
 2140SOL    HW111358   0.606   0.456   9.780 -0.1336  0.8014 -0.2206
 2140SOL    HW211359   0.551   0.418   9.644 -0.7673 -0.7138  0.4422
 2141SOL     OW11360   3.822   6.196   3.130  0.0170 -0.1367  0.2358
 2141SOL    HW111361   3.899   6.139   3.128 -0.2688 -0.5300  0.2785
 2141SOL    HW211362   3.822   6.234   3.218  1.7451  2.0836 -0.6172
 2142SOL     OW11363   0.307   1.675   5.125 -0.4328 -0.0981 -0.2200
 2142SOL    HW111364   0.239   1.696   5.060 -1.1521  1.7674  1.0502
 2142SOL    HW211365   0.340   1.760   5.153 -1.5511 -0.6873  3.2935
 2143SOL     OW11366  11.660   5.271   8.052  0.2044  0.0626 -0.1423
 2143SOL    HW111367  11.708   5.193   8.080 -1.9084 -1.6135 -0.8919
 2143SOL    HW211368  11.608   5.295   8.128 -0.8217 -0.6752 -0.5817
 2144SOL     OW11369   5.455   4.848   7.571 -0.1678 -0.8978 -0.1414
 2144SOL    HW111370   5.546   4.877   7.570 -0.6190  0.6293 -1.7622
 2144SOL    HW211371   5.457   4.764   7.618  1.9528 -0.5916  0.4196
 2145SOL     OW11372   8.247   6.548  10.322 -0.1289 -0.0051 -0.0287
 2145SOL    HW111373   8.287   6.493  10.256 -0.8192 -0.7369  0.1465
 2145SOL    HW211374   8.318   6.570  10.382  0.6097  1.0736 -1.2576
 2146SOL     OW11375   6.185   9.897   0.539 -0.0616 -0.4430 -0.0326
 2146SOL    HW111376   6.097   9.896   0.576 -0.6270 -3.3982 -1.2072
 2146SOL    HW211377   6.238   9.945   0.603 -2.0270 -0.7242  1.9117
 2147SOL     OW11378   5.341   6.951  11.637 -0.5911  0.8957  0.6209
 2147SOL    HW111379   5.377   6.863  11.622  0.4826  1.6870 -1.9460
 2147SOL    HW211380   5.252   6.947  11.600 -0.8241  0.6951  1.1938
 2148SOL     OW11381   3.781   2.278   0.260 -0.4312  0.0292 -0.2581
 2148SOL    HW111382   3.869   2.251   0.287 -0.6149 -1.6192 -1.1852
 2148SOL    HW211383   3.789   2.372   0.245  1.0273  0.0137  0.2001
 2149SOL     OW11384   5.642   2.257   1.445  0.2040  0.0621 -0.2701
 2149SOL    HW111385   5.729   2.255   1.405 -0.7289  0.2570 -2.4556
 2149SOL    HW211386   5.628   2.167   1.476  0.9329 -0.1123 -0.4200
 2150SOL     OW11387   5.203   2.350   3.683  0.3451  0.5000 -0.0575
 2150SOL    HW111388   5.242   2.363   3.597 -0.1362 -0.0118 -0.3575
 2150SOL    HW211389   5.263   2.291   3.728  1.3966  1.9509  0.5241
 2151SOL     OW11390   5.942   9.144   0.999  0.1068 -0.6450 -0.3737
 2151SOL    HW111391   5.919   9.232   1.027  0.0095 -0.7910  0.0039
 2151SOL    HW211392   5.872   9.088   1.034 -0.9896 -0.6141 -2.3563
 2152SOL     OW11393   6.967   9.726   3.705  0.2813 -0.4158 -0.0388
 2152SOL    HW111394   6.873   9.708   3.714  0.5276 -1.2113  1.2568
 2152SOL    HW211395   7.005   9.641   3.682  0.7853 -0.2832  0.2962
 2153SOL     OW11396   7.278   1.817   7.040 -0.5077 -0.0636 -0.1753
 2153SOL    HW111397   7.209   1.834   7.104  0.0719 -2.4906  1.2147
 2153SOL    HW211398   7.235   1.767   6.970 -0.5736  0.2470 -0.3606
 2154SOL     OW11399   3.998  10.694   1.715 -0.0354  0.6411 -0.1776
 2154SOL    HW111400   4.065  10.759   1.736 -0.9564  0.7531  2.9098
 2154SOL    HW211401   4.046  10.615   1.692  1.0925  1.9604 -2.8072
 2155SOL     OW11402   8.453   1.195   5.077 -0.3062  0.4603  0.2228
 2155SOL    HW111403   8.508   1.145   5.017  0.1144  1.5492 -0.3172
 2155SOL    HW211404   8.433   1.133   5.147  1.1591 -0.1378  0.1561
 2156SOL     OW11405   9.929   3.191   8.269  0.2670  0.1242 -0.0686
 2156SOL    HW111406   9.962   3.105   8.296  0.6492  0.8549  2.0164
 2156SOL    HW211407   9.842   3.175   8.235  0.2455 -1.0659  0.5206
 2157SOL     OW11408   2.721   4.462   2.450  0.3346  0.3721 -0.5095
 2157SOL    HW111409   2.801   4.464   2.503  0.3376 -0.1491 -0.4883
 2157SOL    HW211410   2.668   4.534   2.485 -0.8117 -1.5422  2.0206
 2158SOL     OW11411   3.173  10.887  10.271  0.1504 -0.2258  0.3102
 2158SOL    HW111412   3.200  10.934  10.193 -1.0827  0.7850  0.4665
 2158SOL    HW211413   3.255  10.867  10.317  0.7413  1.3205 -0.0158
 2159SOL     OW11414  10.747   9.861   8.979 -0.6082 -0.2583  0.0560
 2159SOL    HW111415  10.739   9.890   9.070  0.9422 -1.2705  0.5631
 2159SOL    HW211416  10.674   9.801   8.966 -2.3207  1.7527 -0.2021
 2160SOL     OW11417   8.558   5.459   3.838 -0.2211 -0.1751 -0.4245
 2160SOL    HW111418   8.642   5.455   3.884  0.5053 -2.3533 -1.7636
 2160SOL    HW211419   8.582   5.466   3.745 -1.5520 -0.1264 -0.7856
 2161SOL     OW11420  10.047   2.709  11.128 -0.0906  0.3424 -0.3332
 2161SOL    HW111421  10.087   2.673  11.049  1.5682 -0.5525  0.8653
 2161SOL    HW211422  10.002   2.788  11.097 -0.6316 -0.6879 -2.3801
 2162SOL     OW11423   3.260   2.412   3.380  0.0984  0.1552 -0.8716
 2162SOL    HW111424   3.233   2.498   3.410 -2.0373 -1.1919  1.4808
 2162SOL    HW211425   3.308   2.375   3.453  1.0231 -0.6492 -1.8610
 2163SOL     OW11426   0.153   5.056   8.647  0.2943  0.6727  0.4465
 2163SOL    HW111427   0.135   5.150   8.648  0.6850  0.7497  0.4159
 2163SOL    HW211428   0.244   5.049   8.675 -0.1122  0.2101  1.6944
 2164SOL     OW11429   3.756   5.881   6.435  0.0016 -0.5461 -0.7117
 2164SOL    HW111430   3.771   5.824   6.360 -3.5576 -0.0690 -1.9904
 2164SOL    HW211431   3.754   5.969   6.399 -2.6356 -0.3770 -0.3478
 2165SOL     OW11432   6.731  10.115   1.966  0.3435  0.4495 -0.0530
 2165SOL    HW111433   6.678  10.184   2.007  0.3867  0.4226  0.0500
 2165SOL    HW211434   6.809  10.161   1.935 -0.6446  0.8868 -2.0864
 2166SOL     OW11435   0.737   7.940  11.068  0.5816  0.8232 -0.5420
 2166SOL    HW111436   0.672   7.978  11.128  2.3265  1.6918  0.9090
 2166SOL    HW211437   0.688   7.920  10.989 -2.2993 -2.2087  1.7428
 2167SOL     OW11438   7.774   0.873   9.779  0.5752  0.2925 -0.3453
 2167SOL    HW111439   7.838   0.814   9.739 -1.9736 -0.8994 -3.1277
 2167SOL    HW211440   7.760   0.941   9.713  0.8551  2.0665  1.3395
 2168SOL     OW11441   6.555  10.080   5.835  0.0874  0.1452 -0.4090
 2168SOL    HW111442   6.487  10.086   5.768 -1.0699 -0.0761  0.7067
 2168SOL    HW211443   6.589  10.169   5.843  0.1848  0.1856 -1.2241
 2169SOL     OW11444   0.106  10.732   1.649  0.0506  0.1475 -0.5440
 2169SOL    HW111445   0.036  10.742   1.584 -0.0938 -1.1601 -0.6183
 2169SOL    HW211446   0.082  10.792   1.719 -1.8029 -1.1207 -0.0272
 2170SOL     OW11447   3.411   6.441   5.715  0.3833  0.4907 -0.1498
 2170SOL    HW111448   3.359   6.521   5.714  0.9733  0.8878 -1.9872
 2170SOL    HW211449   3.440   6.429   5.625 -1.0855 -2.7453 -0.3300
 2171SOL     OW11450   2.302   0.974   2.232  0.1996  0.3970  0.0107
 2171SOL    HW111451   2.360   1.023   2.174  0.3609 -0.7073 -0.7873
 2171SOL    HW211452   2.235   1.038   2.259  0.8057  1.2317 -0.4195
 2172SOL     OW11453   6.476   5.793  10.742 -0.7340  0.5296  0.3460
 2172SOL    HW111454   6.496   5.808  10.650  1.8597  2.1843  1.0883
 2172SOL    HW211455   6.382   5.813  10.750 -1.4454 -1.3434 -2.1763
 2173SOL     OW11456   2.667   8.421   2.430 -1.0323  0.1178  0.2512
 2173SOL    HW111457   2.732   8.399   2.365 -0.5360  0.3586  0.6605
 2173SOL    HW211458   2.605   8.478   2.384 -1.1122 -0.3311 -0.2092
 2174SOL     OW11459   9.396   0.487   2.257  0.1023  0.0629 -0.4268
 2174SOL    HW111460   9.395   0.455   2.347 -1.9056 -1.2872 -0.8918
 2174SOL    HW211461   9.441   0.419   2.208  1.5017  0.9525 -0.4568
 2175SOL     OW11462   1.469   5.977  10.447  0.1306  0.3749 -0.0421
 2175SOL    HW111463   1.476   6.072  10.443 -1.8358  0.7828  3.0768
 2175SOL    HW211464   1.559   5.947  10.456  0.7408  1.9487 -0.5307
 2176SOL     OW11465  10.205   8.963   9.151 -0.0151 -0.0946 -0.5681
 2176SOL    HW111466  10.278   9.019   9.173  0.8206 -1.2669 -0.2585
 2176SOL    HW211467  10.201   8.965   9.055  0.9319 -0.6301 -0.6311
 2177SOL     OW11468   9.603   5.621   0.462  0.2564 -0.1004  0.0087
 2177SOL    HW111469   9.548   5.560   0.511  1.3328 -0.3171  0.9782
 2177SOL    HW211470   9.542   5.667   0.405 -0.7265 -1.3686 -0.0176
 2178SOL     OW11471   1.331   2.130   3.657  0.0893  0.0474 -0.2480
 2178SOL    HW111472   1.332   2.034   3.657  0.1076  0.0426  0.3715
 2178SOL    HW211473   1.363   2.154   3.570  1.0120 -0.5013 -0.0735
 2179SOL     OW11474   7.951   5.601   0.171  0.4440  0.2190  0.0723
 2179SOL    HW111475   7.897   5.674   0.142 -0.2313 -0.0824  0.5440
 2179SOL    HW211476   7.975   5.556   0.091 -2.4236 -1.3266 -0.0781
 2180SOL     OW11477   1.245  11.398   8.150 -0.2584 -0.3572  0.0340
 2180SOL    HW111478   1.284  11.485   8.139 -0.4599 -0.4161 -1.1910
 2180SOL    HW211479   1.211  11.399   8.240  0.2308  0.6248  0.2251
 2181SOL     OW11480   7.887   2.792   5.235  0.2834  0.0728  0.9562
 2181SOL    HW111481   7.853   2.710   5.271  1.4317 -0.4258  0.9233
 2181SOL    HW211482   7.855   2.794   5.145 -2.3651  1.1850  1.8151
 2182SOL     OW11483   5.666   7.746   8.396 -0.2799 -0.4449 -0.0987
 2182SOL    HW111484   5.743   7.725   8.343  0.7064 -0.8199  1.4349
 2182SOL    HW211485   5.699   7.751   8.486 -2.3905 -2.6866  0.9155
 2183SOL     OW11486   0.431   3.924   2.216 -0.7660  0.2898  0.4957
 2183SOL    HW111487   0.353   3.887   2.256 -1.3858  2.1207  1.0828
 2183SOL    HW211488   0.404   3.949   2.127 -0.4973 -0.1955  0.2752
 2184SOL     OW11489   1.087   8.819   0.235 -0.0675 -0.6306 -0.4149
 2184SOL    HW111490   0.997   8.793   0.218 -0.6687  0.9054  0.2546
 2184SOL    HW211491   1.110   8.772   0.316 -1.2326  0.9981  0.9328
 2185SOL     OW11492   4.315  11.029   2.433  0.4351 -0.3848 -0.0449
 2185SOL    HW111493   4.300  11.101   2.372  0.0158 -0.8627 -0.5304
 2185SOL    HW211494   4.323  11.070   2.518 -1.2754  0.1415 -0.0865
 2186SOL     OW11495   4.254   5.256   8.742 -0.8067  0.1393 -0.0734
 2186SOL    HW111496   4.176   5.225   8.788  0.0935 -0.6386  0.9922
 2186SOL    HW211497   4.301   5.176   8.720 -0.0462  0.6227 -0.2282
 2187SOL     OW11498   1.736   5.731   0.536  0.1162 -0.1480  0.1433
 2187SOL    HW111499   1.777   5.646   0.529 -0.4831 -0.5082  0.7988
 2187SOL    HW211500   1.795   5.782   0.592  0.1597 -0.3417  0.2743
 2188SOL     OW11501   5.495   1.574   3.669  0.7204  0.2622  0.1256
 2188SOL    HW111502   5.478   1.604   3.580 -2.4991 -2.5451 -0.4189
 2188SOL    HW211503   5.426   1.614   3.722  0.1346 -1.2173  0.5269
 2189SOL     OW11504   6.935  11.543   6.309 -0.2298  0.5312  0.4482
 2189SOL    HW111505   6.957  11.609   6.243 -0.1120  1.1495  1.0938
 2189SOL    HW211506   6.839  11.547   6.316 -0.1313  1.6529  1.4959
 2190SOL     OW11507   8.612   7.896  11.463 -0.5797  0.0783 -0.4855
 2190SOL    HW111508   8.532   7.947  11.457 -1.0566 -0.6719 -0.6162
 2190SOL    HW211509   8.623   7.879  11.557  0.4591  1.7552 -0.2496
 2191SOL     OW11510   0.345   5.115   4.491 -0.1286 -0.4750 -0.0623
 2191SOL    HW111511   0.305   5.035   4.524  0.8990 -0.9890 -0.0183
 2191SOL    HW211512   0.438   5.092   4.480  0.3517  0.9701  0.7754
 2192SOL     OW11513   5.883   6.854   4.518  0.0028 -0.3528 -0.5325
 2192SOL    HW111514   5.973   6.843   4.549  1.0924  1.8782 -2.5309
 2192SOL    HW211515   5.849   6.765   4.510  2.7400 -1.4228 -1.5451
 2193SOL     OW11516   7.134   8.275   8.482  0.3646  0.3801  0.9374
 2193SOL    HW111517   7.114   8.368   8.495  0.5572  0.6805 -0.6650
 2193SOL    HW211518   7.094   8.231   8.557 -0.2505  1.6910  1.4156
 2194SOL     OW11519   2.779   1.476  10.435  0.3851  0.1311 -0.0708
 2194SOL    HW111520   2.687   1.491  10.414  0.7183  1.1219 -0.8828
 2194SOL    HW211521   2.793   1.522  10.518  0.3493  0.6982 -0.3751
 2195SOL     OW11522  10.213  11.099   9.477  0.5130  0.4168  0.5214
 2195SOL    HW111523  10.235  11.016   9.520  1.5443  0.5929  0.3550
 2195SOL    HW211524  10.211  11.163   9.548 -1.6800  0.0470  0.8774
 2196SOL     OW11525   6.024   1.139   5.863  0.2615  0.2675  0.1313
 2196SOL    HW111526   6.093   1.072   5.864  1.0881  1.0726  2.1328
 2196SOL    HW211527   6.071   1.222   5.858 -0.4733  0.8462  1.8682
 2197SOL     OW11528  11.573   8.160   4.369  0.1554  0.2905  0.2746
 2197SOL    HW111529  11.607   8.178   4.281 -2.3534  1.0135 -0.6134
 2197SOL    HW211530  11.632   8.207   4.428  2.2287 -0.6642 -0.9267
 2198SOL     OW11531  11.290   9.788   2.128 -0.0051 -0.0184  0.1638
 2198SOL    HW111532  11.238   9.715   2.162  0.8581 -0.8464 -0.2720
 2198SOL    HW211533  11.374   9.749   2.104  0.1505  0.9422 -0.9314
 2199SOL     OW11534   8.764   4.121   4.969  0.4431 -0.1675 -0.6791
 2199SOL    HW111535   8.783   4.129   4.875 -0.9801  0.9282 -0.9118
 2199SOL    HW211536   8.687   4.064   4.972  2.6061 -3.3153  0.1269
 2200SOL     OW11537   8.344   5.034  10.737  0.5604  0.0811  0.3240
 2200SOL    HW111538   8.397   5.097  10.785  0.3820  0.9203 -0.5449
 2200SOL    HW211539   8.253   5.058  10.756  0.4786 -0.5060  0.7256
 2201SOL     OW11540   5.792   7.169   6.326  0.6496  0.3957  0.8319
 2201SOL    HW111541   5.716   7.129   6.369  0.8304  1.0552  1.7938
 2201SOL    HW211542   5.762   7.257   6.303  0.2050 -0.2845 -1.4074
 2202SOL     OW11543   7.196  10.549   2.976 -0.8876 -0.4521 -0.0763
 2202SOL    HW111544   7.153  10.621   2.931 -0.6755  1.0285  1.9449
 2202SOL    HW211545   7.169  10.558   3.067  1.0163 -1.5014  0.6551
 2203SOL     OW11546   5.227   1.462   8.356  0.1683 -0.9306  1.0534
 2203SOL    HW111547   5.232   1.506   8.441  1.1945 -0.1544  0.6207
 2203SOL    HW211548   5.318   1.460   8.325 -0.5017  2.1747 -1.6675
 2204SOL     OW11549   8.390  10.940   6.442  0.2964 -0.2524  0.1856
 2204SOL    HW111550   8.410  10.868   6.383  0.4488  0.3095 -0.4645
 2204SOL    HW211551   8.319  10.988   6.400 -0.7381 -0.7945  1.2779
 2205SOL     OW11552   0.572   4.413   6.611  0.0578 -0.4303 -0.2263
 2205SOL    HW111553   0.493   4.377   6.571  1.4984 -3.9938 -0.2152
 2205SOL    HW211554   0.613   4.464   6.541 -2.0784  1.3826 -0.2683
 2206SOL     OW11555   9.148   5.563   5.588 -0.0443  0.5370 -0.0754
 2206SOL    HW111556   9.156   5.490   5.527 -1.6424  1.5405 -1.5753
 2206SOL    HW211557   9.193   5.636   5.545 -2.2412  1.5903 -0.7134
 2207SOL     OW11558   6.550   2.981   9.974 -0.3666  0.1597  0.3469
 2207SOL    HW111559   6.462   2.944   9.966 -0.0481 -0.8363  1.2294
 2207SOL    HW211560   6.553   3.049   9.907 -2.0063  0.6048  0.6702
 2208SOL     OW11561   1.988   9.073  11.556  0.2883  0.1723 -0.3146
 2208SOL    HW111562   2.005   8.979  11.548  0.1285  0.0385  0.8336
 2208SOL    HW211563   2.071   9.110  11.584 -0.3879 -0.0730  2.2720
 2209SOL     OW11564  10.415   9.372   5.840 -0.1660  0.1375  0.1848
 2209SOL    HW111565  10.353   9.299   5.841  1.7113 -1.5879  2.3407
 2209SOL    HW211566  10.382   9.432   5.908 -0.6948  0.3935 -0.2895
 2210SOL     OW11567   9.709   9.563   4.431  0.0870 -0.0781  0.1716
 2210SOL    HW111568   9.624   9.521   4.444  0.4144 -1.0280 -0.6674
 2210SOL    HW211569   9.728   9.604   4.516 -0.2662 -1.6054  1.0309
 2211SOL     OW11570   9.494  10.687   8.847  0.6866 -0.4179  1.0211
 2211SOL    HW111571   9.536  10.652   8.925  1.2024 -1.6798  0.1939
 2211SOL    HW211572   9.484  10.613   8.789 -1.0653  0.1947  0.4503
 2212SOL     OW11573   6.965   1.614   3.774 -0.3696 -0.3819  0.4851
 2212SOL    HW111574   6.961   1.707   3.797 -1.4660 -0.2338 -0.2659
 2212SOL    HW211575   6.906   1.571   3.836 -1.0725 -0.3620 -0.1565
 2213SOL     OW11576   8.695   6.837   1.265  0.0550  0.3060  0.3545
 2213SOL    HW111577   8.687   6.818   1.358 -0.2833 -1.0766  0.0646
 2213SOL    HW211578   8.750   6.767   1.230  2.1234  2.0709 -0.1153
 2214SOL     OW11579   3.203  10.385   0.956 -0.2331  0.6209  0.2920
 2214SOL    HW111580   3.149  10.336   0.893 -0.9775  1.5456  0.1908
 2214SOL    HW211581   3.162  10.367   1.041  0.6584 -0.4733  0.5178
 2215SOL     OW11582  10.178   8.699   3.717  0.0451 -0.1492  0.2012
 2215SOL    HW111583  10.115   8.725   3.650  0.2888  2.0125  0.7593
 2215SOL    HW211584  10.218   8.780   3.746  0.9303 -1.1664  2.0075
 2216SOL     OW11585   2.380  11.446   7.619  0.4378 -0.0790  0.9472
 2216SOL    HW111586   2.359  11.381   7.686  0.4436  1.1889  2.2394
 2216SOL    HW211587   2.407  11.524   7.669 -0.3729  1.1939 -0.5086
 2217SOL     OW11588  10.314   6.406   5.263 -0.5672 -0.6594 -0.1104
 2217SOL    HW111589  10.240   6.439   5.313 -0.0265  0.2714  0.1033
 2217SOL    HW211590  10.320   6.314   5.286  0.4611  0.0096  2.6045
 2218SOL     OW11591   3.369   5.807   9.953  0.3903 -0.1303 -0.2897
 2218SOL    HW111592   3.422   5.801  10.033 -2.2434  1.5008  1.7416
 2218SOL    HW211593   3.406   5.881   9.905  0.0657  0.9389  1.0510
 2219SOL     OW11594   0.361   9.217   3.578 -0.1870 -0.2963 -0.4390
 2219SOL    HW111595   0.420   9.142   3.569  0.0699 -0.1537  0.0220
 2219SOL    HW211596   0.319   9.225   3.493  0.7919 -0.1270 -0.9186
 2220SOL     OW11597   1.803   5.384   0.575  0.1840 -0.4668 -0.5080
 2220SOL    HW111598   1.724   5.373   0.522  0.5478 -1.2687 -0.8975
 2220SOL    HW211599   1.875   5.360   0.516  0.5635 -1.8290  0.4596
 2221SOL     OW11600   3.735   6.119  10.527 -0.0653  0.0051  0.3520
 2221SOL    HW111601   3.813   6.123  10.583 -0.0353 -0.6324  0.3567
 2221SOL    HW211602   3.736   6.203  10.480  0.8547 -0.1631  0.0431
 2222SOL     OW11603   2.899   6.042   4.647 -0.2645 -0.1225 -0.3587
 2222SOL    HW111604   2.935   6.120   4.689 -1.2265 -0.4754  1.1793
 2222SOL    HW211605   2.976   5.989   4.625  0.2883  0.0740  0.9974
 2223SOL     OW11606   0.399   0.153   8.875 -0.1905  0.2159  0.6121
 2223SOL    HW111607   0.412   0.112   8.961  0.2643  1.6742  1.2689
 2223SOL    HW211608   0.380   0.245   8.894  1.9526  1.0581 -0.8794
 2224SOL     OW11609  10.061   4.393   1.995  0.7257  0.9273  0.6000
 2224SOL    HW111610  10.128   4.434   1.940  1.0294 -0.2388  0.0795
 2224SOL    HW211611  10.085   4.301   1.998 -0.6805  0.5363  0.6716
 2225SOL     OW11612   0.650   7.757   2.046  0.2399  0.0431 -0.2526
 2225SOL    HW111613   0.604   7.832   2.084 -0.9996 -0.8844  0.1380
 2225SOL    HW211614   0.672   7.785   1.957 -1.0398  0.5492 -0.4367
 2226SOL     OW11615   6.274   7.910   8.880  0.0892 -0.2439  0.0889
 2226SOL    HW111616   6.214   7.947   8.945  1.3865 -0.8148  1.6644
 2226SOL    HW211617   6.232   7.829   8.852 -0.4551 -0.0234  0.2497
 2227SOL     OW11618   7.463   4.591   7.753 -0.3987 -0.1590 -0.1331
 2227SOL    HW111619   7.503   4.578   7.839 -2.8429  0.7137  1.2369
 2227SOL    HW211620   7.515   4.660   7.712 -0.2718  0.7069  1.4361
 2228SOL     OW11621  10.814  11.516   0.952  0.2301 -0.0203  0.0077
 2228SOL    HW111622  10.756  11.585   0.920  0.4349  0.3623  0.4454
 2228SOL    HW211623  10.867  11.492   0.877 -0.6128 -0.4967 -0.4464
 2229SOL     OW11624  10.490   4.623   8.408  0.3691 -0.3825 -0.1663
 2229SOL    HW111625  10.579   4.653   8.390  0.2377  0.2644  0.2419
 2229SOL    HW211626  10.489   4.607   8.502 -0.1677  0.3417 -0.0477
 2230SOL     OW11627   7.420   6.140   1.241  0.0310 -0.5978 -0.3715
 2230SOL    HW111628   7.359   6.159   1.312  1.2048 -0.0422  0.5132
 2230SOL    HW211629   7.447   6.226   1.209  0.7263 -0.8389 -0.4364
 2231SOL     OW11630   2.743  11.550  10.659 -0.6868  0.5297 -0.2044
 2231SOL    HW111631   2.794  11.524  10.736 -1.1301  1.2997  0.3640
 2231SOL    HW211632   2.786  11.506  10.586 -2.0271 -2.7804  0.7907
 2232SOL     OW11633   5.668   8.225   2.655  0.3750  0.5755 -0.2944
 2232SOL    HW111634   5.626   8.276   2.724 -0.6566  0.2063 -0.6246
 2232SOL    HW211635   5.749   8.193   2.693  0.3386  1.2705  0.3839
 2233SOL     OW11636   4.978   4.767   4.537  0.6584 -0.6399 -0.1152
 2233SOL    HW111637   4.887   4.738   4.532  0.6974 -0.9008  0.6445
 2233SOL    HW211638   5.009   4.764   4.446 -1.1509  3.0501 -1.0712
 2234SOL     OW11639   4.284   2.764   9.672 -0.2917 -0.3610  0.0264
 2234SOL    HW111640   4.288   2.804   9.585 -0.4400  1.4264  0.8098
 2234SOL    HW211641   4.328   2.679   9.661 -1.8793 -0.9814 -2.1859
 2235SOL     OW11642   5.901   3.954   5.552 -0.9103  0.6055 -0.0956
 2235SOL    HW111643   5.807   3.943   5.541 -0.6439 -2.7547 -0.0122
 2235SOL    HW211644   5.937   3.940   5.465 -0.3678 -1.3592  0.3848
 2236SOL     OW11645   6.668   6.238   7.520 -0.3253 -0.4493  0.3482
 2236SOL    HW111646   6.734   6.297   7.558 -1.1429  0.6669  0.0897
 2236SOL    HW211647   6.611   6.296   7.470 -2.0918 -1.2692  1.3517
 2237SOL     OW11648   3.313   2.983   3.928 -0.2291 -0.5062  0.0942
 2237SOL    HW111649   3.296   2.923   4.001 -0.9593  0.4600  0.7429
 2237SOL    HW211650   3.406   2.971   3.909 -0.1364 -1.1282  0.8659
 2238SOL     OW11651   4.481   4.331   3.941 -0.3517 -0.1262  0.0527
 2238SOL    HW111652   4.394   4.370   3.948  0.2733  1.0895  2.1655
 2238SOL    HW211653   4.496   4.291   4.027  1.1628 -0.2990 -0.2577
 2239SOL     OW11654   5.739   3.665   2.095  0.3787 -0.0873 -0.1053
 2239SOL    HW111655   5.727   3.696   2.005 -0.0580  0.8047  0.2510
 2239SOL    HW211656   5.650   3.662   2.130  0.5888 -0.0275  0.4305
 2240SOL     OW11657  10.988   5.157   6.542 -0.2212 -0.3440  0.1759
 2240SOL    HW111658  10.948   5.121   6.621 -0.5429  1.0203  0.6780
 2240SOL    HW211659  10.928   5.132   6.472 -0.4889 -0.6724  0.5165
 2241SOL     OW11660   9.341  10.700  10.545  0.5809  0.2695 -0.5747
 2241SOL    HW111661   9.280  10.762  10.504  0.2780 -0.1595 -0.7824
 2241SOL    HW211662   9.324  10.617  10.500 -0.0917 -0.3285  0.7427
 2242SOL     OW11663   9.045   4.509   5.592 -0.2048 -0.4365  0.4967
 2242SOL    HW111664   9.007   4.594   5.610 -1.8816 -1.2930  1.2527
 2242SOL    HW211665   9.048   4.503   5.496  1.2101  0.9714  0.4230
 2243SOL     OW11666  11.414   4.255   9.735  0.2514  0.0352  0.5218
 2243SOL    HW111667  11.332   4.208   9.752 -0.4057  0.4251 -1.2862
 2243SOL    HW211668  11.448   4.276   9.822  0.1490 -2.9959  1.4233
 2244SOL     OW11669   2.267   8.666   1.486 -0.0440 -0.0456 -0.5383
 2244SOL    HW111670   2.323   8.643   1.560  0.5409  0.6440 -0.7562
 2244SOL    HW211671   2.282   8.760   1.473 -1.9831  0.3670  0.0066
 2245SOL     OW11672   7.830   5.244  10.537 -0.1876 -0.2351  0.6775
 2245SOL    HW111673   7.852   5.336  10.554  0.8700 -0.5261  0.9662
 2245SOL    HW211674   7.838   5.235  10.442  0.7898 -0.2828  0.7567
 2246SOL     OW11675   1.847   6.192   9.110  0.0785 -0.0178  0.7794
 2246SOL    HW111676   1.931   6.159   9.079 -1.4324 -0.9199 -3.0122
 2246SOL    HW211677   1.834   6.274   9.063 -0.9954  0.2837  1.5646
 2247SOL     OW11678   4.850   0.407   0.977  0.3216  0.6493 -0.9356
 2247SOL    HW111679   4.867   0.444   0.890  0.4024  1.0524 -0.7477
 2247SOL    HW211680   4.814   0.479   1.028 -1.6572 -0.0719 -1.2052
 2248SOL     OW11681   6.590   6.717   1.193  0.4140 -0.0615  0.0092
 2248SOL    HW111682   6.682   6.722   1.219  0.3419  0.0747  0.2469
 2248SOL    HW211683   6.546   6.780   1.250  0.1245 -0.3643  0.1245
 2249SOL     OW11684   3.655   5.305   3.159 -0.5999 -0.1643  0.0600
 2249SOL    HW111685   3.717   5.301   3.232 -0.0761  1.0598 -0.2919
 2249SOL    HW211686   3.569   5.299   3.200 -0.3076  0.4483  0.7798
 2250SOL     OW11687   3.859   7.574   3.378  0.0922 -0.1500 -0.3035
 2250SOL    HW111688   3.895   7.660   3.354  0.9006 -0.1696  0.7956
 2250SOL    HW211689   3.771   7.594   3.409  0.3460  0.3186  0.1391
 2251SOL     OW11690  11.254  10.281   7.122 -0.3865 -0.0947  0.2192
 2251SOL    HW111691  11.257  10.208   7.060  1.0548  0.7314 -0.7494
 2251SOL    HW211692  11.334  10.271   7.174  0.0556  0.9997 -0.2123
 2252SOL     OW11693   8.342   4.380   1.688 -0.3677  0.1994  0.2024
 2252SOL    HW111694   8.407   4.346   1.750 -2.5685 -3.3726  0.8674
 2252SOL    HW211695   8.267   4.403   1.741 -1.4523 -0.6626 -0.9036
 2253SOL     OW11696   9.808   5.575   2.695 -0.4251 -0.3623 -0.5879
 2253SOL    HW111697   9.784   5.483   2.702 -1.8284  0.0345  0.5404
 2253SOL    HW211698   9.755   5.609   2.623  0.9463 -0.6556 -1.7727
 2254SOL     OW11699   5.784   2.180   9.989 -0.7804 -0.2606  0.0590
 2254SOL    HW111700   5.830   2.262  10.003 -1.2116  0.1399 -0.8084
 2254SOL    HW211701   5.759   2.151  10.077 -1.9158  1.2931  0.2893
 2255SOL     OW11702   0.671   1.683   2.938  0.4580 -0.1243 -0.0177
 2255SOL    HW111703   0.603   1.681   3.005  0.3165 -0.4209 -0.1679
 2255SOL    HW211704   0.727   1.608   2.958 -0.3844 -1.0598 -1.0590
 2256SOL     OW11705   3.420   8.089   7.916  0.0839 -0.2822  0.1307
 2256SOL    HW111706   3.467   8.093   7.832  0.9267 -1.5196  0.5178
 2256SOL    HW211707   3.330   8.066   7.892  0.5149 -1.4948 -0.3838
 2257SOL     OW11708   3.638   4.412   6.382  0.2130  0.0327 -0.1110
 2257SOL    HW111709   3.672   4.387   6.468 -2.2935 -0.8112  0.7379
 2257SOL    HW211710   3.698   4.480   6.350  2.4261 -1.1537  1.3136
 2258SOL     OW11711   9.971   4.180  11.401 -0.1360 -0.0403 -0.4237
 2258SOL    HW111712   9.894   4.217  11.444 -0.1033  1.3483 -1.4904
 2258SOL    HW211713   9.972   4.088  11.429 -1.3654  0.2541  0.7234
 2259SOL     OW11714  10.749   7.013   5.844  0.2983  0.3402  0.1741
 2259SOL    HW111715  10.738   6.957   5.921  0.6754  1.5646  1.1515
 2259SOL    HW211716  10.689   7.087   5.860 -0.5866 -0.0073 -1.3357
 2260SOL     OW11717   8.096   8.986   0.085  0.0453  0.2997 -0.4283
 2260SOL    HW111718   8.040   9.063   0.091  1.4264  1.4958 -2.0969
 2260SOL    HW211719   8.046   8.917   0.129 -3.0786  1.0966 -2.4634
 2261SOL     OW11720  10.848   2.515   1.095  0.1576  0.1549 -0.3597
 2261SOL    HW111721  10.811   2.519   1.007 -1.1962 -0.7049  0.1489
 2261SOL    HW211722  10.942   2.531   1.082 -0.0174  0.0230 -1.9570
 2262SOL     OW11723   5.356  10.992   1.290  0.1291 -0.3656 -0.5284
 2262SOL    HW111724   5.433  11.043   1.315 -0.4666  0.4266 -0.2723
 2262SOL    HW211725   5.385  10.939   1.216  0.8332  0.1616 -0.6350
 2263SOL     OW11726   9.574   9.388   6.576 -0.2791 -0.2345 -0.5250
 2263SOL    HW111727   9.644   9.439   6.535 -0.6096  1.2756  0.7336
 2263SOL    HW211728   9.613   9.301   6.589  1.0335  0.3026 -0.6987
 2264SOL     OW11729   3.959   6.903  10.074  0.2819 -0.3845  0.1848
 2264SOL    HW111730   4.029   6.848  10.038  0.8468 -0.5071  1.4110
 2264SOL    HW211731   3.986   6.919  10.164 -1.1502 -0.2116  0.6051
 2265SOL     OW11732   3.741   9.751   2.721 -0.0018 -0.4071  0.4286
 2265SOL    HW111733   3.656   9.787   2.697 -0.6677 -1.2700  1.4179
 2265SOL    HW211734   3.755   9.680   2.658  0.0482 -0.2011  0.2029
 2266SOL     OW11735   9.624   7.845   5.379  0.3049 -0.3330  0.4139
 2266SOL    HW111736   9.675   7.842   5.460  0.2939  0.8279  0.4768
 2266SOL    HW211737   9.564   7.771   5.385 -0.6678  0.5493  2.1308
 2267SOL     OW11738   5.715  10.805   6.802  0.1454  0.3892 -0.9002
 2267SOL    HW111739   5.733  10.712   6.788  0.4439  0.4703 -1.0505
 2267SOL    HW211740   5.768  10.850   6.737  1.8377  0.8048  0.6753
 2268SOL     OW11741   1.349   4.574   4.719 -0.6060  0.4298 -0.4684
 2268SOL    HW111742   1.347   4.552   4.812  1.4972  1.6373 -0.0723
 2268SOL    HW211743   1.416   4.641   4.712 -1.2069  0.8738 -2.7810
 2269SOL     OW11744   7.166   1.584   9.323 -0.1818  0.3907 -0.5421
 2269SOL    HW111745   7.113   1.581   9.243 -1.8926 -0.5978  0.5525
 2269SOL    HW211746   7.111   1.541   9.389  1.9336 -0.4733  0.7464
 2270SOL     OW11747   8.340   3.845   9.608  0.0042 -0.0917 -0.1622
 2270SOL    HW111748   8.427   3.806   9.617  0.0027 -0.3332 -1.1121
 2270SOL    HW211749   8.297   3.791   9.542 -1.6110 -1.2478  1.7175
 2271SOL     OW11750  10.571   9.092   9.515  0.3076 -0.3859 -0.1361
 2271SOL    HW111751  10.575   8.998   9.529 -0.1328 -0.5232 -0.8752
 2271SOL    HW211752  10.552   9.129   9.602 -1.3393 -1.1105 -0.1631
 2272SOL     OW11753   3.697   4.965   2.682  0.2309 -0.2907 -0.3697
 2272SOL    HW111754   3.666   5.013   2.758 -0.0291  0.1934 -0.7742
 2272SOL    HW211755   3.630   4.979   2.616  0.9350  0.1444 -1.0148
 2273SOL     OW11756   2.157   5.868  10.099  0.3761 -0.0141 -0.3241
 2273SOL    HW111757   2.247   5.896  10.116  0.5349  0.4695 -1.7990
 2273SOL    HW211758   2.116   5.866  10.186  1.0969  2.2824  0.1524
 2274SOL     OW11759   6.125   7.092  11.217  0.6588  0.1434 -0.3028
 2274SOL    HW111760   6.112   7.055  11.130  0.8182  1.1026 -0.7520
 2274SOL    HW211761   6.096   7.023  11.277 -0.5980 -0.0819 -1.1251
 2275SOL     OW11762  11.203   0.251  10.082 -0.2711 -0.2740  0.0621
 2275SOL    HW111763  11.123   0.284  10.040 -1.0885 -0.6962  1.2414
 2275SOL    HW211764  11.222   0.315  10.150  1.4473  0.7798 -1.3166
 2276SOL     OW11765   1.363  11.529   3.716 -0.5526 -0.0507  0.1064
 2276SOL    HW111766   1.294  11.543   3.781 -0.2376 -0.0357  0.4416
 2276SOL    HW211767   1.444  11.551   3.762 -0.0133 -2.6795  0.6237
 2277SOL     OW11768   6.374   5.534  10.630  0.0734 -0.2326 -0.6393
 2277SOL    HW111769   6.415   5.551  10.715  0.1489 -0.7998 -0.5591
 2277SOL    HW211770   6.324   5.613  10.612  1.1612  0.4635 -0.7131
 2278SOL     OW11771   9.133  11.273   3.980  0.1262  0.0248  0.2327
 2278SOL    HW111772   9.202  11.230   4.032  0.2023 -0.2597 -0.1034
 2278SOL    HW211773   9.140  11.365   4.004  0.2916 -0.0756  0.5821
 2279SOL     OW11774   5.411  11.166   3.019 -0.0290 -0.4950  0.2162
 2279SOL    HW111775   5.371  11.081   3.002 -1.9692  0.4292 -0.0951
 2279SOL    HW211776   5.340  11.229   3.005  1.8641  1.3804 -1.7139
 2280SOL     OW11777   2.105   9.263  11.213 -0.6801  0.1492  0.1661
 2280SOL    HW111778   2.046   9.259  11.138  0.4961  1.3191 -0.8703
 2280SOL    HW211779   2.056   9.315  11.278 -0.7520  1.2505 -0.7385
 2281SOL     OW11780   7.911   0.751  10.782 -0.2181  0.0054  0.0906
 2281SOL    HW111781   7.949   0.830  10.742  0.3323  0.2379  1.0427
 2281SOL    HW211782   7.817   0.765  10.777 -0.1264  0.6878  0.1583
 2282SOL     OW11783   7.179   0.142   8.523  0.0970 -0.1074  0.3936
 2282SOL    HW111784   7.168   0.198   8.446  0.4452 -0.7273 -0.1133
 2282SOL    HW211785   7.151   0.056   8.494  0.0754 -0.3111  1.0158
 2283SOL     OW11786   3.327   1.474  11.102  0.0921  0.2766  0.4312
 2283SOL    HW111787   3.365   1.430  11.178 -2.4208 -2.1184  0.4934
 2283SOL    HW211788   3.398   1.477  11.038  0.8706 -2.7431  0.9779
 2284SOL     OW11789   1.091  10.960   7.204 -0.0389  0.6591 -0.0527
 2284SOL    HW111790   1.129  10.872   7.198  0.5629  0.9998 -3.5126
 2284SOL    HW211791   1.087  10.978   7.298 -1.4993 -3.5579  0.9035
 2285SOL     OW11792   1.747   6.599   1.892  0.0471 -0.0749  0.4868
 2285SOL    HW111793   1.656   6.607   1.922  0.1625  0.8024  0.6432
 2285SOL    HW211794   1.739   6.575   1.800 -0.3456 -0.2950  0.5747
 2286SOL     OW11795   4.169   1.767   6.607  0.4058  0.3025 -0.1432
 2286SOL    HW111796   4.129   1.826   6.543 -1.1187 -1.2698 -0.7171
 2286SOL    HW211797   4.208   1.697   6.555  0.9635  0.0552  0.5816
 2287SOL     OW11798   3.354  10.389   0.215 -0.2129  0.3704  0.0262
 2287SOL    HW111799   3.437  10.347   0.195 -0.6804 -0.3878 -0.3693
 2287SOL    HW211800   3.325  10.426   0.131 -0.0002  1.1515  0.2856
 2288SOL     OW11801   3.978  10.126   4.240  0.0944 -0.3393  0.1532
 2288SOL    HW111802   3.941  10.154   4.156  2.5156  0.3199 -0.7704
 2288SOL    HW211803   4.000  10.208   4.285 -1.3225 -0.6764  1.5636
 2289SOL     OW11804   8.111   1.248   4.022  0.1280 -0.3888  0.1124
 2289SOL    HW111805   8.018   1.233   4.006  0.3210 -0.4464 -1.1210
 2289SOL    HW211806   8.153   1.167   3.993  0.5805 -0.2459  0.3707
 2290SOL     OW11807   9.530  10.534   6.667 -0.1773 -0.2115 -1.0147
 2290SOL    HW111808   9.529  10.448   6.625 -1.2358 -0.0046 -1.4423
 2290SOL    HW211809   9.489  10.518   6.752  3.1546 -0.9105  0.6058
 2291SOL     OW11810   2.951  10.842   2.932  0.1246  0.0128 -0.1733
 2291SOL    HW111811   3.036  10.802   2.949 -0.5653 -1.0946  0.7651
 2291SOL    HW211812   2.963  10.889   2.850  1.5477 -0.3966 -0.2249
 2292SOL     OW11813   4.010   0.446   7.291 -0.4340  0.2268 -0.1614
 2292SOL    HW111814   4.067   0.405   7.356  1.3901  0.8788 -1.2790
 2292SOL    HW211815   3.969   0.519   7.338 -0.2233 -0.1616  0.6407
 2293SOL     OW11816  11.128  11.008   7.947 -0.1801  0.2929 -0.5106
 2293SOL    HW111817  11.207  10.953   7.946 -0.8432 -0.7117 -1.6977
 2293SOL    HW211818  11.148  11.079   7.886 -0.6561 -0.7538 -1.9720
 2294SOL     OW11819   3.197   4.957   8.079  0.3577 -0.0349 -0.5565
 2294SOL    HW111820   3.265   4.975   8.144  0.9254 -2.2954 -0.4395
 2294SOL    HW211821   3.233   4.888   8.024 -0.3197  1.4176 -3.0120
 2295SOL     OW11822   7.503   2.507   5.049 -0.0126 -0.2373  0.2293
 2295SOL    HW111823   7.509   2.485   4.957  0.3444  2.2308 -0.4193
 2295SOL    HW211824   7.420   2.469   5.078 -0.5787 -0.2732 -1.3581
 2296SOL     OW11825   3.895   2.798   0.418 -0.0271  0.4302 -0.0229
 2296SOL    HW111826   3.978   2.819   0.461  0.6068 -0.2499 -0.8875
 2296SOL    HW211827   3.828   2.836   0.476  0.8427  0.3901  1.0505
 2297SOL     OW11828   0.985   5.556  11.523 -0.5606 -0.0955  0.5648
 2297SOL    HW111829   0.991   5.624  11.456  2.6918 -1.6624 -0.9337
 2297SOL    HW211830   1.063   5.567  11.576 -0.3938 -2.0752  0.8177
 2298SOL     OW11831   3.969   2.682   3.562 -0.0918 -0.3348  0.3978
 2298SOL    HW111832   3.915   2.687   3.483  0.2683 -1.8776  0.0237
 2298SOL    HW211833   3.999   2.772   3.576  0.4467 -0.1495 -1.6445
 2299SOL     OW11834   7.032   3.196   4.393 -0.2730  0.2833  0.0346
 2299SOL    HW111835   7.107   3.149   4.432  2.0489  1.7601 -2.2894
 2299SOL    HW211836   7.039   3.285   4.428  0.5278  1.0331 -1.8813
 2300SOL     OW11837   3.326   5.238   0.104 -0.6321 -0.2827 -0.1933
 2300SOL    HW111838   3.395   5.191   0.151 -1.6631 -2.8745 -1.0706
 2300SOL    HW211839   3.332   5.206   0.014 -2.2884  0.2158 -0.5219
 2301SOL     OW11840   0.770   7.221   3.423 -0.0531 -0.5831  0.0912
 2301SOL    HW111841   0.843   7.283   3.420 -0.4100 -0.1373  0.5304
 2301SOL    HW211842   0.696   7.267   3.384 -0.7184 -0.1618  1.7694
 2302SOL     OW11843  11.415   0.282   3.483 -0.3683 -0.1113  0.6154
 2302SOL    HW111844  11.382   0.355   3.430 -2.1340 -0.7863  0.7201
 2302SOL    HW211845  11.352   0.212   3.468  0.7054 -1.2687  1.3657
 2303SOL     OW11846   5.179   7.087   5.586  0.0386 -0.2338 -0.2898
 2303SOL    HW111847   5.135   7.090   5.671 -0.1765  0.0508 -0.4087
 2303SOL    HW211848   5.263   7.132   5.601  0.4902 -1.1549  0.0459
 2304SOL     OW11849   8.555   2.114   4.128 -0.0087 -0.2963  0.1571
 2304SOL    HW111850   8.566   2.199   4.171 -0.5832  0.1743 -0.6031
 2304SOL    HW211851   8.461   2.102   4.121  0.0443  0.0134 -1.6510
 2305SOL     OW11852   0.574   5.693   5.855  0.2257  0.2598 -0.0837
 2305SOL    HW111853   0.523   5.617   5.825 -0.1786  0.5977 -0.2594
 2305SOL    HW211854   0.521   5.732   5.924  0.7906 -0.0545  0.5463
 2306SOL     OW11855   4.859   4.236   4.764 -0.3338 -0.4342 -0.1310
 2306SOL    HW111856   4.898   4.248   4.851 -0.8973  1.3245 -0.0875
 2306SOL    HW211857   4.848   4.141   4.756  1.1824 -0.7562  1.0589
 2307SOL     OW11858   2.647   1.957  10.626  0.0824  0.4310 -0.0505
 2307SOL    HW111859   2.569   1.953  10.572  0.5733  0.6035 -0.7873
 2307SOL    HW211860   2.694   2.034  10.595 -0.9573  2.2274  2.4693
 2308SOL     OW11861   5.188  10.547   1.348  0.0519 -0.0393 -0.2245
 2308SOL    HW111862   5.236  10.628   1.365  1.5544 -1.0575  0.6420
 2308SOL    HW211863   5.255  10.487   1.314 -0.7345 -1.3428  0.4622
 2309SOL     OW11864   4.646   0.264  10.132 -0.6973  0.6503 -0.1224
 2309SOL    HW111865   4.671   0.217  10.212 -0.3804 -0.8226 -1.0586
 2309SOL    HW211866   4.715   0.243  10.070 -0.7532  2.0742 -0.7061
 2310SOL     OW11867   0.919   6.169   3.311 -0.1986 -0.0954 -0.1719
 2310SOL    HW111868   1.011   6.193   3.296  0.0288  0.1224  1.4108
 2310SOL    HW211869   0.872   6.213   3.240  0.6617  1.8332  0.3800
 2311SOL     OW11870  10.176   1.813   2.414  0.4028  0.0669  0.3014
 2311SOL    HW111871  10.188   1.733   2.362  0.3684 -0.9604  1.8129
 2311SOL    HW211872  10.232   1.878   2.371  0.7970 -0.8922 -0.6916
 2312SOL     OW11873   5.012   2.537   9.675 -0.3353  0.1649  0.3631
 2312SOL    HW111874   4.996   2.595   9.601 -0.6263 -0.2738  0.0809
 2312SOL    HW211875   5.017   2.596   9.750  0.8222  0.6929 -0.1135
 2313SOL     OW11876   7.314   1.851   9.350 -0.5451  0.1414  0.5769
 2313SOL    HW111877   7.303   1.859   9.256 -1.1607 -0.3039  0.6073
 2313SOL    HW211878   7.279   1.765   9.372  1.0910 -0.4509  0.9930
 2314SOL     OW11879   8.464   1.328   9.184  0.4602 -0.1399  0.3605
 2314SOL    HW111880   8.546   1.361   9.148 -0.2745 -0.6471 -1.9441
 2314SOL    HW211881   8.472   1.233   9.180  0.2754 -0.2182  1.4545
 2315SOL     OW11882   0.654   6.449   8.426 -0.3659  0.4086  0.3619
 2315SOL    HW111883   0.747   6.460   8.408 -0.6539  0.2773 -1.3126
 2315SOL    HW211884   0.641   6.354   8.432 -0.4022  0.4253  0.5641
 2316SOL     OW11885   8.510  11.555   1.926  0.1971 -0.2312 -0.2207
 2316SOL    HW111886   8.568  11.556   2.003 -0.0920 -1.0970  0.0103
 2316SOL    HW211887   8.548  11.622   1.868  1.8348 -1.2255 -0.3667
 2317SOL     OW11888   3.378   4.797   5.944  0.3234  0.0174  0.0522
 2317SOL    HW111889   3.343   4.741   5.874  2.8042 -0.2645 -1.0719
 2317SOL    HW211890   3.353   4.886   5.919 -1.8193 -0.3389  0.7254
 2318SOL     OW11891  11.149   4.348   5.616  0.4407 -0.2623  0.0182
 2318SOL    HW111892  11.139   4.342   5.711 -0.9524  1.0674 -0.0122
 2318SOL    HW211893  11.124   4.262   5.583  0.3514 -0.5394  0.8090
 2319SOL     OW11894   8.795   8.487   6.612  0.0955  0.0636 -0.0152
 2319SOL    HW111895   8.762   8.514   6.698  1.8524 -0.5140  0.8901
 2319SOL    HW211896   8.860   8.553   6.590  0.8910 -0.7382 -0.0855
 2320SOL     OW11897   2.424   1.949   4.303  0.0001  0.2176 -0.5062
 2320SOL    HW111898   2.343   1.994   4.280 -0.7111  0.0636  1.5470
 2320SOL    HW211899   2.400   1.856   4.306  0.5327  0.0572 -0.9404
 2321SOL     OW11900   8.892   6.758   4.244 -0.2321  0.5575 -0.0939
 2321SOL    HW111901   8.809   6.773   4.198  0.6159  1.2723 -1.4783
 2321SOL    HW211902   8.958   6.798   4.187  1.0063  0.4913  1.2490
 2322SOL     OW11903   4.253   8.940   5.990 -0.0291  0.1700  0.0897
 2322SOL    HW111904   4.304   8.963   6.067 -1.1813 -0.7040  1.1476
 2322SOL    HW211905   4.313   8.887   5.937  0.4961  0.0510  0.7937
 2323SOL     OW11906   3.063   4.806   3.560 -0.5508  0.3074  0.0856
 2323SOL    HW111907   3.112   4.829   3.481  0.2436  0.3369  0.5816
 2323SOL    HW211908   3.126   4.814   3.631 -0.4065 -2.5312  0.4256
 2324SOL     OW11909   7.956   5.293   2.364  0.2202  0.5800 -0.1143
 2324SOL    HW111910   7.943   5.223   2.428  0.2699  0.5708 -0.1140
 2324SOL    HW211911   7.968   5.247   2.281 -0.2538  0.6062 -0.1986
 2325SOL     OW11912   7.744   3.559   2.504 -0.4282 -0.3352 -0.0095
 2325SOL    HW111913   7.719   3.574   2.596  0.5868 -3.2583  0.8534
 2325SOL    HW211914   7.835   3.588   2.499 -0.2697 -0.7977  0.1180
 2326SOL     OW11915  10.304   9.464   7.864  0.0312 -0.2429 -0.4908
 2326SOL    HW111916  10.376   9.492   7.807 -0.5327 -1.4162 -1.8425
 2326SOL    HW211917  10.300   9.369   7.852 -1.0127 -0.3337  0.4567
 2327SOL     OW11918   0.630   5.066   4.475  0.1194 -0.1145  0.2191
 2327SOL    HW111919   0.639   5.048   4.382 -1.4953  0.6330 -0.1106
 2327SOL    HW211920   0.638   5.161   4.483  3.0053 -0.3577  1.2361
 2328SOL     OW11921   5.138   1.075  10.920  0.1721 -0.1103 -0.0489
 2328SOL    HW111922   5.145   1.084  11.015  0.5024 -1.6495  0.0976
 2328SOL    HW211923   5.227   1.056  10.891  0.1562  0.7973 -0.7405
 2329SOL     OW11924   8.011   3.983   9.302  0.0117 -0.2169 -0.7505
 2329SOL    HW111925   8.039   4.049   9.239  1.0779 -0.5757 -0.6667
 2329SOL    HW211926   7.961   3.920   9.250  1.6012 -0.9676 -1.4313
 2330SOL     OW11927   9.345   5.887   1.042  0.1536 -0.0689  0.4020
 2330SOL    HW111928   9.380   5.839   1.117  1.8093  1.6322  0.7613
 2330SOL    HW211929   9.271   5.937   1.078  0.4862  0.1783  0.7478
 2331SOL     OW11930   9.437   7.349   4.836  0.2053 -0.3219  0.0848
 2331SOL    HW111931   9.521   7.347   4.791 -0.1947 -0.3907 -0.6794
 2331SOL    HW211932   9.437   7.432   4.884  1.3203 -1.0095  1.3164
 2332SOL     OW11933   4.041   4.765   2.220  0.2770 -0.1029  0.3947
 2332SOL    HW111934   3.949   4.771   2.246 -0.1293  1.0140 -1.1217
 2332SOL    HW211935   4.089   4.806   2.291 -0.5090  0.2516  0.7336
 2333SOL     OW11936  10.603   6.580   5.336  0.3696 -0.3703  0.2384
 2333SOL    HW111937  10.563   6.496   5.360 -1.1233  0.4258  0.6185
 2333SOL    HW211938  10.532   6.630   5.297  0.8493  1.2847  1.3964
 2334SOL     OW11939   6.434   4.407   1.598  0.2414 -0.1174  0.4912
 2334SOL    HW111940   6.374   4.480   1.583  0.1006 -0.4834 -0.8724
 2334SOL    HW211941   6.521   4.445   1.587  0.1736 -0.1037 -0.0299
 2335SOL     OW11942   1.664   3.675   9.021 -0.4084 -0.0947  0.2747
 2335SOL    HW111943   1.718   3.701   9.096 -0.4600  1.2851 -0.1395
 2335SOL    HW211944   1.690   3.734   8.951 -1.6874 -0.1263 -0.2579
 2336SOL     OW11945   2.223   3.548   4.452 -0.4629 -0.2724 -0.2837
 2336SOL    HW111946   2.186   3.634   4.432 -1.3424 -0.2766  1.1736
 2336SOL    HW211947   2.316   3.564   4.466 -0.5610  0.3875 -0.3668
 2337SOL     OW11948   9.583   5.004   6.772  0.3118  0.0016 -0.4825
 2337SOL    HW111949   9.504   5.020   6.825  1.2064  1.4862  0.4851
 2337SOL    HW211950   9.630   4.936   6.819  0.3482  0.2145 -0.2070
 2338SOL     OW11951   0.923   3.607   7.728 -0.1051 -0.0641  0.5215
 2338SOL    HW111952   0.947   3.577   7.816 -0.7574 -1.0470  0.3825
 2338SOL    HW211953   0.855   3.673   7.743  0.9150  0.9700  0.8024
 2339SOL     OW11954   1.164  10.824   3.265 -0.8320 -0.6864 -0.0168
 2339SOL    HW111955   1.129  10.827   3.176 -0.0362 -2.0370 -0.4125
 2339SOL    HW211956   1.182  10.731   3.280  0.9866 -0.2584  0.7652
 2340SOL     OW11957   3.567   3.564   4.311  0.0228 -0.1362  0.1312
 2340SOL    HW111958   3.504   3.493   4.298  0.4482 -0.6515  0.8016
 2340SOL    HW211959   3.626   3.559   4.235 -1.2390  0.9144 -0.9703
 2341SOL     OW11960   9.628   7.340   2.522 -0.4552 -0.2388 -0.2532
 2341SOL    HW111961   9.650   7.248   2.530  2.0228  0.2416 -0.5848
 2341SOL    HW211962   9.614   7.370   2.612 -0.8535 -0.8588 -0.1122
 2342SOL     OW11963   8.599   4.691   0.777  0.0120  0.0390  0.1411
 2342SOL    HW111964   8.690   4.666   0.795 -0.4916 -2.3541 -0.3931
 2342SOL    HW211965   8.557   4.692   0.863  0.5282  1.2843  0.4078
 2343SOL     OW11966   1.326  10.043   3.854  0.5569 -0.4272  0.5560
 2343SOL    HW111967   1.322   9.969   3.914 -1.2001 -1.5937 -0.8891
 2343SOL    HW211968   1.279  10.113   3.900 -0.1406 -1.0692  0.8442
 2344SOL     OW11969   1.962   3.322   5.512 -0.1347 -0.0801  0.3070
 2344SOL    HW111970   2.022   3.369   5.454 -0.0568  0.6872  0.9984
 2344SOL    HW211971   2.005   3.237   5.524 -0.3093 -0.3843 -0.9954
 2345SOL     OW11972   9.874   3.400  10.858 -0.0879 -0.1839 -0.7548
 2345SOL    HW111973   9.931   3.462  10.905 -1.6717  0.4436  0.4129
 2345SOL    HW211974   9.873   3.322  10.913  0.4211 -0.5799 -1.2892
 2346SOL     OW11975   6.836   0.143   6.225  0.8373  0.3764 -0.8436
 2346SOL    HW111976   6.872   0.231   6.235 -0.0187  0.6285  0.1417
 2346SOL    HW211977   6.746   0.150   6.258  0.9189 -0.9743 -0.2778
 2347SOL     OW11978   9.658   0.435  11.361 -0.2262 -0.3128  0.0986
 2347SOL    HW111979   9.609   0.497  11.307 -1.7500  0.5858  2.3583
 2347SOL    HW211980   9.594   0.366  11.382  0.2121 -0.4521  1.0204
 2348SOL     OW11981  11.533   7.946   7.008  0.2535  0.1368 -0.6486
 2348SOL    HW111982  11.611   7.891   7.021 -0.2823 -0.1766  1.6765
 2348SOL    HW211983  11.565   8.020   6.956  2.6015  0.9493  1.7159
 2349SOL     OW11984  10.813   0.254   1.024  0.3597 -0.2161 -0.3093
 2349SOL    HW111985  10.807   0.346   0.999 -2.3701 -0.6364 -1.4885
 2349SOL    HW211986  10.862   0.212   0.953 -1.2305 -0.1904 -1.4603
 2350SOL     OW11987  10.954   0.227   6.730  0.0870  0.2278  0.1313
 2350SOL    HW111988  10.944   0.153   6.789  2.3573 -0.2678 -0.0094
 2350SOL    HW211989  10.986   0.298   6.786  0.5729  0.2627 -0.1822
 2351SOL     OW11990   1.700   7.753   1.062 -0.3456  0.1388 -0.1820
 2351SOL    HW111991   1.757   7.710   0.997  0.0035 -0.1363  0.3029
 2351SOL    HW211992   1.760   7.781   1.132 -0.8077 -0.1588  0.3362
 2352SOL     OW11993   7.137   8.501   4.665 -0.3018 -0.1506 -0.2147
 2352SOL    HW111994   7.097   8.588   4.670 -0.9533 -0.4621  0.2747
 2352SOL    HW211995   7.193   8.497   4.743  0.6109  0.2435 -0.8393
 2353SOL     OW11996   8.664   2.241   9.831  0.0046  0.4666 -0.7029
 2353SOL    HW111997   8.596   2.264   9.894 -0.2833  1.4040 -1.3355
 2353SOL    HW211998   8.728   2.311   9.837 -0.7724  1.3928 -2.5017
 2354SOL     OW11999   1.832   8.691   0.104 -0.7481  0.1894  0.2178
 2354SOL    HW112000   1.776   8.759   0.142  0.6710  0.5577  1.7776
 2354SOL    HW212001   1.864   8.641   0.180 -2.8015 -3.1793 -0.9290
 2355SOL     OW12002   0.332  11.173  11.126  0.6538  0.0461 -0.7051
 2355SOL    HW112003   0.286  11.089  11.114 -1.5802  1.3223 -1.8560
 2355SOL    HW212004   0.324  11.216  11.041  0.1344  2.1715  0.3713
 2356SOL     OW12005   6.108   7.650   4.908 -0.4666  0.1349  0.3289
 2356SOL    HW112006   6.189   7.654   4.958 -0.0018 -0.2366 -0.3776
 2356SOL    HW212007   6.079   7.559   4.916 -0.1471 -0.0436 -0.4317
 2357SOL     OW12008   5.502   1.890   2.618  0.0262 -0.4799  0.3783
 2357SOL    HW112009   5.560   1.825   2.659 -0.8263 -1.5240 -0.0305
 2357SOL    HW212010   5.428   1.898   2.679  0.0829  0.0508  0.3807
 2358SOL     OW12011   0.547  10.109   8.682  0.0252  0.6481 -1.1288
 2358SOL    HW112012   0.610  10.145   8.619  1.6673  0.0549  0.0985
 2358SOL    HW212013   0.522  10.024   8.647 -0.2998  0.9972 -1.7527
 2359SOL     OW12014   4.516   7.257   7.338 -0.5069 -0.1094 -0.4679
 2359SOL    HW112015   4.597   7.291   7.375 -0.1122 -1.2843 -0.2035
 2359SOL    HW212016   4.451   7.270   7.408 -0.2991 -0.1757 -0.2622
 2360SOL     OW12017   8.350   5.367   6.360  0.0567  0.2077  0.3300
 2360SOL    HW112018   8.401   5.306   6.413  0.8948  0.2977 -0.3651
 2360SOL    HW212019   8.390   5.452   6.375 -0.2210  0.3671  0.1889
 2361SOL     OW12020   5.756   2.375   2.942 -0.0551  0.4295  0.2967
 2361SOL    HW112021   5.727   2.346   3.028  1.4360  0.6809  0.9271
 2361SOL    HW212022   5.845   2.341   2.934 -0.6299 -0.7790 -1.7542
 2362SOL     OW12023   6.509  11.372   6.450  0.0456 -0.2484  0.4630
 2362SOL    HW112024   6.588  11.333   6.486 -0.1177 -0.3014  0.7672
 2362SOL    HW212025   6.456  11.297   6.423 -0.0823 -0.2260  0.6507
 2363SOL     OW12026   8.803   1.011   2.358 -0.2149 -0.8367 -0.0676
 2363SOL    HW112027   8.864   1.010   2.432 -0.5875 -2.1577  0.2482
 2363SOL    HW212028   8.843   0.952   2.294  0.0436  0.1976 -0.8981
 2364SOL     OW12029   1.871   8.199   1.634 -0.3674 -0.3056  0.5924
 2364SOL    HW112030   1.883   8.289   1.665 -1.1255  0.4804 -1.2561
 2364SOL    HW212031   1.899   8.201   1.542 -4.2595 -0.8688 -0.7847
 2365SOL     OW12032   6.838   6.305   8.899  0.0421 -0.4813 -0.3097
 2365SOL    HW112033   6.919   6.303   8.849  1.9068  0.2603  2.4850
 2365SOL    HW212034   6.790   6.227   8.871  1.3861 -0.6244 -2.4529
 2366SOL     OW12035   8.016   4.675   5.577  0.3760  0.2143 -0.2083
 2366SOL    HW112036   8.099   4.632   5.595 -0.1759 -0.2168  1.4511
 2366SOL    HW212037   8.000   4.730   5.653 -0.6912  0.5431 -0.6517
 2367SOL     OW12038   9.468   7.387   0.276  0.1917  0.4141  0.1508
 2367SOL    HW112039   9.379   7.368   0.246  0.5363  0.7088 -1.1319
 2367SOL    HW212040   9.508   7.301   0.289 -0.0421  0.2776 -0.0166
 2368SOL     OW12041   8.115   4.824  10.364  0.1739  0.1751  0.1780
 2368SOL    HW112042   8.184   4.767  10.399  2.1126  0.3801 -2.9629
 2368SOL    HW212043   8.066   4.852  10.442  2.6044 -1.2673  2.4132
 2369SOL     OW12044   8.182   1.092  11.219 -1.0272  0.4286  0.4404
 2369SOL    HW112045   8.094   1.057  11.210 -1.6767  2.0594  0.0951
 2369SOL    HW212046   8.235   1.018  11.247 -1.8289 -1.3876 -2.4690
 2370SOL     OW12047   8.359   7.428   4.843 -0.2806  1.0640 -0.2808
 2370SOL    HW112048   8.374   7.435   4.938  1.6998  0.4635 -0.5129
 2370SOL    HW212049   8.264   7.434   4.834 -0.5430  0.8533  1.7681
 2371SOL     OW12050   4.146   9.178  10.182  0.1611 -0.2330 -0.0233
 2371SOL    HW112051   4.234   9.149  10.158 -0.1347  0.5656 -2.3317
 2371SOL    HW212052   4.121   9.239  10.112 -1.6249  0.7764  1.4070
 2372SOL     OW12053   6.435   6.652   8.152 -0.0499 -0.2389  0.0926
 2372SOL    HW112054   6.484   6.601   8.087 -0.4356 -3.6635  2.1808
 2372SOL    HW212055   6.344   6.629   8.137 -0.1233 -1.3447  1.9025
 2373SOL     OW12056   4.147   9.129   2.739 -0.2276  0.1758 -0.0771
 2373SOL    HW112057   4.186   9.200   2.789 -2.6547  1.5375  0.0574
 2373SOL    HW212058   4.204   9.119   2.663  1.0100  1.2047  0.6786
 2374SOL     OW12059   4.186   8.751   9.580 -0.0070  0.0247 -0.5915
 2374SOL    HW112060   4.119   8.781   9.518 -0.9264 -1.1306 -0.2073
 2374SOL    HW212061   4.185   8.817   9.649 -0.7114  0.0681 -0.6262
 2375SOL     OW12062   7.124   5.376   3.823  0.0411 -0.7472  0.6176
 2375SOL    HW112063   7.161   5.332   3.747  0.5188 -1.4112  1.2165
 2375SOL    HW212064   7.198   5.387   3.883 -0.3470 -0.3419  1.0324
 2376SOL     OW12065   3.468   2.276   1.633  0.5293 -0.2572 -0.2930
 2376SOL    HW112066   3.532   2.245   1.697 -0.0042 -1.9533 -0.5154
 2376SOL    HW212067   3.513   2.269   1.548  0.0132 -1.7473 -0.4846
 2377SOL     OW12068  10.348   2.783   7.107  0.0768 -0.1583  0.4702
 2377SOL    HW112069  10.437   2.764   7.137  0.6594  0.2911 -0.8979
 2377SOL    HW212070  10.316   2.699   7.074  1.5206  0.4249 -2.7370
 2378SOL     OW12071   7.880   5.987   5.446 -0.0019  0.2017 -0.5668
 2378SOL    HW112072   7.922   6.059   5.494  0.3413  0.2954 -1.0040
 2378SOL    HW212073   7.836   5.936   5.514  2.6015 -1.1588  0.2224
 2379SOL     OW12074   6.837   1.436   2.868 -0.2270 -0.1315 -0.4293
 2379SOL    HW112075   6.891   1.424   2.945 -1.8375 -0.2062  0.7286
 2379SOL    HW212076   6.780   1.359   2.866  1.4219 -1.4366 -3.1467
 2380SOL     OW12077  10.692   0.498   0.669  0.3424 -0.2955 -0.2015
 2380SOL    HW112078  10.625   0.475   0.733 -0.5045  1.3456 -0.4287
 2380SOL    HW212079  10.650   0.563   0.613  0.7971 -2.1832 -2.9344
 2381SOL     OW12080   8.379  10.893   1.850 -0.0589  0.1330 -0.3919
 2381SOL    HW112081   8.283  10.897   1.847 -0.0559  0.9049  0.2188
 2381SOL    HW212082   8.404  10.970   1.900  0.8563 -0.3716 -0.0589
 2382SOL     OW12083   9.640  10.439   3.540 -0.4098  0.3420 -0.1934
 2382SOL    HW112084   9.551  10.415   3.567  0.2999 -0.5073  1.5427
 2382SOL    HW212085   9.663  10.373   3.475 -0.4930 -0.4019  0.5110
 2383SOL     OW12086   7.664   1.441   0.729 -0.3939 -0.0246 -0.6006
 2383SOL    HW112087   7.626   1.442   0.817 -1.4278  0.4681 -1.0328
 2383SOL    HW212088   7.683   1.349   0.711  0.3030 -0.0748  0.3292
 2384SOL     OW12089   0.602   5.735   4.850  0.0727 -0.9359  0.3008
 2384SOL    HW112090   0.655   5.781   4.915  0.7109 -0.9621 -0.2010
 2384SOL    HW212091   0.606   5.643   4.876  0.9107 -1.0387 -0.1822
 2385SOL     OW12092   9.942   5.304   7.026 -0.4062  0.6463  0.8173
 2385SOL    HW112093   9.940   5.243   7.099  0.0883  0.7025  0.8763
 2385SOL    HW212094   9.879   5.268   6.963  0.0058 -0.0163  0.7775
 2386SOL     OW12095   3.851   3.846   8.724  0.2252  0.1841  0.1151
 2386SOL    HW112096   3.926   3.789   8.707 -1.4593 -2.4928  1.0531
 2386SOL    HW212097   3.851   3.857   8.820  0.3324  1.6132 -0.0152
 2387SOL     OW12098   9.441   9.381   3.319  0.4515  0.3471 -0.0809
 2387SOL    HW112099   9.386   9.347   3.389  1.7437 -1.0817  0.3147
 2387SOL    HW212100   9.410   9.336   3.240 -1.7160  2.7503 -0.7283
 2388SOL     OW12101   7.821   6.428   8.264 -0.0711 -0.3903  0.2052
 2388SOL    HW112102   7.826   6.462   8.175  2.7270 -1.5899 -0.2041
 2388SOL    HW212103   7.768   6.348   8.256 -0.4999 -0.0670 -0.2160
 2389SOL     OW12104   7.679   0.492  10.561 -0.0520 -0.5934  0.2214
 2389SOL    HW112105   7.682   0.446  10.477 -0.0825 -1.0509  0.4730
 2389SOL    HW212106   7.768   0.487  10.594  0.1844  0.3874 -0.2038
 2390SOL     OW12107   8.261   9.470  11.493 -0.0631 -0.1629  0.0142
 2390SOL    HW112108   8.240   9.436  11.580  0.2099 -0.3938 -0.0059
 2390SOL    HW212109   8.340   9.421  11.467  0.4614  0.6330  0.0685
 2391SOL     OW12110   4.760   8.243   1.671  0.4059 -0.2947 -0.9185
 2391SOL    HW112111   4.802   8.310   1.725 -1.8427  0.2885  0.2221
 2391SOL    HW212112   4.785   8.160   1.711  0.7690  0.0160 -0.4956
 2392SOL     OW12113   9.621   5.938   3.984  0.3091  0.3752  0.1371
 2392SOL    HW112114   9.583   5.899   3.905  0.0748  1.7993 -0.4921
 2392SOL    HW212115   9.545   5.961   4.038  0.4363  0.1767  0.4045
 2393SOL     OW12116  10.775   8.545   3.553 -0.1447  0.1795  0.2309
 2393SOL    HW112117  10.733   8.623   3.517 -0.7514 -0.1498  0.2216
 2393SOL    HW212118  10.705   8.480   3.559  0.6226 -0.8195 -1.0663
 2394SOL     OW12119   3.480   1.990   4.728  0.3015  0.4876  0.3521
 2394SOL    HW112120   3.524   2.009   4.645  0.8965  0.7755  0.7279
 2394SOL    HW212121   3.532   2.036   4.794  1.4131 -1.8434  1.2154
 2395SOL     OW12122   4.530   8.031   9.082 -0.4882 -0.1294 -0.3745
 2395SOL    HW112123   4.537   8.122   9.111 -1.4445 -0.2055  0.1622
 2395SOL    HW212124   4.619   8.005   9.060  0.1471  0.3024  1.4791
 2396SOL     OW12125   3.148   5.846  10.671 -0.4682  0.3061 -0.1867
 2396SOL    HW112126   3.208   5.785  10.628 -0.2749  0.6917 -0.4656
 2396SOL    HW212127   3.078   5.790  10.706 -0.0030 -0.1322  0.0517
 2397SOL     OW12128  10.329   6.720   8.657  0.4926 -0.7936  0.0944
 2397SOL    HW112129  10.288   6.790   8.707  2.5881 -0.6284  1.7337
 2397SOL    HW212130  10.357   6.762   8.575  0.4704 -0.0670  0.4553
 2398SOL     OW12131   3.649   8.118   4.490 -0.1135  0.6968  0.3453
 2398SOL    HW112132   3.695   8.147   4.569  0.8377  0.1610 -0.0093
 2398SOL    HW212133   3.711   8.131   4.419  0.1322 -1.5504  0.0747
 2399SOL     OW12134   8.769   4.228   4.711 -0.1070 -0.1408 -0.1063
 2399SOL    HW112135   8.729   4.198   4.629  1.5148 -0.6399 -0.7509
 2399SOL    HW212136   8.842   4.283   4.683  1.2441 -1.3332  0.9793
 2400SOL     OW12137   4.038   4.011   6.331 -0.1403  0.4898  0.2289
 2400SOL    HW112138   3.960   4.065   6.324 -0.1977  0.2024 -2.9149
 2400SOL    HW212139   4.011   3.924   6.302  1.2029  0.2700 -0.4908
 2401SOL     OW12140   0.427   4.751   9.977 -0.0521 -0.8024 -0.6790
 2401SOL    HW112141   0.377   4.710  10.047  2.8730 -2.6522  0.5275
 2401SOL    HW212142   0.447   4.839  10.008  0.6221 -1.3714  0.5677
 2402SOL     OW12143   9.325   6.254   7.211  0.4557 -0.3363  0.4144
 2402SOL    HW112144   9.247   6.221   7.256  0.9194 -1.7251  0.2587
 2402SOL    HW212145   9.329   6.202   7.130  1.7724 -0.5936  0.6257
 2403SOL     OW12146  11.119   5.567   9.863 -0.6516  0.1871 -0.7354
 2403SOL    HW112147  11.161   5.650   9.883  0.8083 -0.6990  0.0071
 2403SOL    HW212148  11.147   5.547   9.774 -0.2571  0.0568 -0.5844
 2404SOL     OW12149   6.244  11.635   4.890 -0.2267  0.0810  0.2741
 2404SOL    HW112150   6.305  11.646   4.817  0.8089  1.5694  1.3258
 2404SOL    HW212151   6.296  11.595   4.959 -0.9478 -0.4060  0.5517
 2405SOL     OW12152   0.048   2.056  11.261 -0.0115  0.0059  0.1305
 2405SOL    HW112153   0.011   2.079  11.346  0.4201 -0.1544  0.3684
 2405SOL    HW212154   0.072   1.964  11.270  1.4893  0.3936  0.3850
 2406SOL     OW12155  11.637   5.749   9.167 -0.1348 -0.6082  0.2263
 2406SOL    HW112156  11.629   5.842   9.187  0.5845 -0.5079  0.0770
 2406SOL    HW212157  11.686   5.747   9.084  1.8886 -1.1808  1.3818
 2407SOL     OW12158  10.065   8.790   8.911 -0.0518  0.0399 -0.0768
 2407SOL    HW112159  10.039   8.711   8.959  0.4468  0.8576  1.6344
 2407SOL    HW212160   9.994   8.852   8.927  0.4644  0.5590  0.2334
 2408SOL     OW12161   7.239   5.138   5.466 -0.1831  0.5153  0.0500
 2408SOL    HW112162   7.148   5.144   5.438 -0.0041  0.3083 -0.5879
 2408SOL    HW212163   7.242   5.061   5.522 -0.1317 -0.2819 -1.0168
 2409SOL     OW12164   2.901   2.052   6.762 -0.3502  0.2909  0.4054
 2409SOL    HW112165   2.940   2.136   6.787 -0.4570  0.0648  1.4139
 2409SOL    HW212166   2.815   2.052   6.804 -0.9393  0.2569 -0.7631
 2410SOL     OW12167   5.193   3.428   9.624 -0.3246 -0.2874 -0.2068
 2410SOL    HW112168   5.161   3.389   9.705  1.3506  1.8894  1.6536
 2410SOL    HW212169   5.234   3.356   9.576  2.5536 -1.0172  2.9791
 2411SOL     OW12170  10.036   2.810   6.174  0.2244  0.0364  0.3897
 2411SOL    HW112171  10.114   2.768   6.137 -0.1074 -1.3375  1.1834
 2411SOL    HW212172  10.070   2.868   6.242  0.4886 -2.9922  3.0623
 2412SOL     OW12173   7.115   6.505   8.021 -0.3633 -0.1170 -0.1700
 2412SOL    HW112174   7.152   6.537   8.104  0.2622 -1.6732  0.1722
 2412SOL    HW212175   7.110   6.410   8.031 -0.1263 -0.3595 -1.9921
 2413SOL     OW12176   9.920   8.436   1.315 -0.2849  0.3342 -0.1085
 2413SOL    HW112177   9.951   8.524   1.296  1.0572  0.0057  0.4542
 2413SOL    HW212178   9.857   8.417   1.245 -0.5546  1.7081 -0.2492
 2414SOL     OW12179   5.464   2.113   7.306  0.3750 -0.3096 -0.3432
 2414SOL    HW112180   5.557   2.111   7.330  0.2784 -2.0921  0.0112
 2414SOL    HW212181   5.434   2.023   7.320 -1.5348  0.3449  0.0470
 2415SOL     OW12182   9.415   5.684   9.982  0.7878 -0.3961  0.1929
 2415SOL    HW112183   9.334   5.729  10.004  1.7432  1.9420 -0.8034
 2415SOL    HW212184   9.387   5.598   9.952 -1.3076  0.3267 -0.0690
 2416SOL     OW12185   9.178   9.297   9.641  0.3829  1.0040  0.0311
 2416SOL    HW112186   9.197   9.351   9.565 -1.8707 -1.3884 -2.4294
 2416SOL    HW212187   9.090   9.323   9.668  0.5306  0.7242  0.8236
 2417SOL     OW12188   2.011   1.966  11.513  0.1530  0.0428 -0.1355
 2417SOL    HW112189   1.945   1.935  11.575  2.6983 -0.9521  2.3254
 2417SOL    HW212190   2.033   2.054  11.544  0.8284 -0.1133 -0.1552
 2418SOL     OW12191  11.120   9.513   1.164  0.6422 -0.0523  0.4688
 2418SOL    HW112192  11.121   9.573   1.239  1.7496  0.0282  0.4150
 2418SOL    HW212193  11.192   9.451   1.182  1.3423  0.3475 -0.8059
 2419SOL     OW12194   6.844   2.068  11.382 -0.1621  0.2503 -0.5396
 2419SOL    HW112195   6.872   2.150  11.341 -1.7575  1.8035  1.3181
 2419SOL    HW212196   6.914   2.048  11.445  0.3429  0.0139 -1.1583
 2420SOL     OW12197   0.435   3.205   0.258 -0.0820 -0.4599  0.4645
 2420SOL    HW112198   0.347   3.190   0.291 -0.4931 -1.9016 -1.1845
 2420SOL    HW212199   0.478   3.120   0.265  0.0447 -0.6573 -1.9452
 2421SOL     OW12200   1.497   8.682   8.722 -1.1946  0.1456 -0.2315
 2421SOL    HW112201   1.513   8.771   8.753 -1.3428  0.1642 -0.2071
 2421SOL    HW212202   1.512   8.686   8.628 -0.1531 -0.0443 -0.0844
 2422SOL     OW12203   5.622  11.623   4.445  0.0382  0.1549 -0.0004
 2422SOL    HW112204   5.655  11.621   4.535  1.9949  2.3813 -0.5613
 2422SOL    HW212205   5.664  11.547   4.404 -1.1077 -1.0630  0.9688
 2423SOL     OW12206  10.071   3.014   1.777 -0.4628  0.1107 -0.4348
 2423SOL    HW112207  10.041   3.073   1.846  0.4900 -0.1895  0.2490
 2423SOL    HW212208  10.162   3.039   1.761 -0.4015 -0.4187 -0.9545
 2424SOL     OW12209  10.041   0.625   1.578 -0.1347 -0.0693 -0.1867
 2424SOL    HW112210   9.984   0.585   1.644 -1.3458 -0.3293 -1.3529
 2424SOL    HW212211   9.984   0.684   1.529  0.8300  0.3940 -0.7795
 2425SOL     OW12212   2.808  11.170   7.340 -0.7576 -0.2101  0.0091
 2425SOL    HW112213   2.723  11.212   7.325  1.3597  4.1726 -1.4065
 2425SOL    HW212214   2.845  11.160   7.252  1.0990  0.2397  0.6915
 2426SOL     OW12215   6.961   1.805   3.224  0.2210 -0.4691  0.2144
 2426SOL    HW112216   6.969   1.894   3.257  0.1031 -0.2071 -0.4484
 2426SOL    HW212217   7.031   1.796   3.160  1.5658 -1.5576  1.7618
 2427SOL     OW12218   8.752  10.595   0.940 -0.3975 -0.1819 -0.0788
 2427SOL    HW112219   8.709  10.622   1.021  0.9393  0.8317  0.3220
 2427SOL    HW212220   8.846  10.603   0.959 -0.0574 -0.6659 -1.4807
 2428SOL     OW12221   7.930   0.992   3.150  0.8199 -0.2467  0.0876
 2428SOL    HW112222   7.858   0.942   3.189  1.2949 -1.0868 -0.0895
 2428SOL    HW212223   7.894   1.080   3.138 -0.0241 -0.5316  0.4294
 2429SOL     OW12224   1.267   6.663   2.453 -0.3311  0.9971 -0.2135
 2429SOL    HW112225   1.360   6.659   2.430 -1.0212  1.0619 -3.5212
 2429SOL    HW212226   1.251   6.756   2.471  0.3694  0.8555  1.3288
 2430SOL     OW12227   5.148   3.902   6.628  0.3111 -0.0709 -0.0809
 2430SOL    HW112228   5.145   3.877   6.535  0.0032  1.5828 -0.5413
 2430SOL    HW212229   5.057   3.898   6.657 -0.1169  2.5483 -0.7810
 2431SOL     OW12230   1.683   1.202   9.723  0.0446 -0.5100  0.6584
 2431SOL    HW112231   1.673   1.113   9.689 -1.1533  0.4403 -1.7002
 2431SOL    HW212232   1.614   1.253   9.680  0.9930  1.6836  1.5460
 2432SOL     OW12233  10.277   1.768  10.282  0.0314  0.5406  0.1142
 2432SOL    HW112234  10.228   1.794  10.361  0.4437  1.2098  0.1596
 2432SOL    HW212235  10.297   1.851  10.239 -1.4614  0.1366 -1.4879
 2433SOL     OW12236   8.285   7.191   3.898 -0.1003  0.2180 -0.1870
 2433SOL    HW112237   8.371   7.228   3.916  0.5199 -0.2741 -1.9273
 2433SOL    HW212238   8.266   7.217   3.808 -0.8290 -1.4519 -0.5517
 2434SOL     OW12239   0.840   7.154   1.742  0.2714  0.0464  0.0258
 2434SOL    HW112240   0.928   7.129   1.766  0.0784  1.0537  1.9788
 2434SOL    HW212241   0.792   7.072   1.734  1.1835 -0.4635 -0.3096
 2435SOL     OW12242   6.085   7.061   2.771  0.2175  0.1645  0.1918
 2435SOL    HW112243   6.157   7.105   2.816  0.4973  0.1412 -0.2258
 2435SOL    HW212244   6.105   7.072   2.678  1.2919 -2.3960  0.0272
 2436SOL     OW12245   6.390   4.857   9.287 -0.7043  0.3722  1.1666
 2436SOL    HW112246   6.349   4.913   9.352 -0.4937  1.4542  0.3915
 2436SOL    HW212247   6.477   4.839   9.322 -1.1165 -0.3177  1.8851
 2437SOL     OW12248  11.609   8.784   1.078  0.3138  0.1602  0.1419
 2437SOL    HW112249  11.603   8.825   1.165 -0.1521  2.1540 -0.7682
 2437SOL    HW212250  11.702   8.765   1.067  0.5721  1.0869  0.5786
 2438SOL     OW12251   6.148   6.396   7.819  0.1564  0.3844 -0.2324
 2438SOL    HW112252   6.135   6.312   7.775 -0.9991 -0.0761  0.9278
 2438SOL    HW212253   6.143   6.461   7.749 -0.1407 -0.4253 -0.9765
 2439SOL     OW12254   9.569   9.429   6.024  0.2006 -0.3279 -0.2608
 2439SOL    HW112255   9.480   9.451   5.995  0.2412 -1.0876 -0.9763
 2439SOL    HW212256   9.622   9.505   5.998 -0.3750  0.5800  1.0420
 2440SOL     OW12257   3.333   7.134   7.856  0.3354  0.6963 -0.3078
 2440SOL    HW112258   3.259   7.191   7.833 -0.7464 -0.5661 -0.0973
 2440SOL    HW212259   3.350   7.085   7.776 -0.2450 -0.2678  0.1399
 2441SOL     OW12260   3.043  10.719   4.984 -0.7355 -0.4940  0.3146
 2441SOL    HW112261   3.112  10.705   4.918  1.3968 -1.4586  2.6003
 2441SOL    HW212262   2.980  10.648   4.968 -0.3847 -0.5862 -0.7814
 2442SOL     OW12263   5.108   7.836   2.437 -0.0147 -0.0807  0.0305
 2442SOL    HW112264   5.148   7.781   2.504 -1.4111 -0.9102  0.2284
 2442SOL    HW212265   5.045   7.889   2.485 -0.2896  0.0574 -0.4786
 2443SOL     OW12266   9.599   4.855  11.689 -0.1639 -0.1799 -0.2013
 2443SOL    HW112267   9.583   4.900  11.607  1.0633  0.0413 -0.3392
 2443SOL    HW212268   9.693   4.835  11.688 -0.1010 -0.0535  1.2018
 2444SOL     OW12269   9.662   4.116   3.635  0.2605  0.3832  0.5621
 2444SOL    HW112270   9.716   4.064   3.694 -0.6966 -0.2742  0.8906
 2444SOL    HW212271   9.626   4.186   3.691 -0.5170 -0.1457  0.7470
 2445SOL     OW12272   3.107  11.003   5.402  0.5553  0.1576 -0.3572
 2445SOL    HW112273   3.098  10.981   5.310 -0.7860 -0.2950 -0.1328
 2445SOL    HW212274   3.202  11.012   5.415  0.8192 -0.6857 -1.5562
 2446SOL     OW12275   0.351   6.245   9.625 -0.1273 -0.4862  0.3586
 2446SOL    HW112276   0.390   6.328   9.597 -2.1694  0.2259 -0.5030
 2446SOL    HW212277   0.424   6.183   9.621  0.6761  0.4780 -2.5069
 2447SOL     OW12278   6.122   6.838   9.328 -0.1887  0.3430  0.8027
 2447SOL    HW112279   6.154   6.807   9.243  0.4384  1.7703  0.4865
 2447SOL    HW212280   6.149   6.770   9.390  0.0504 -0.3346 -0.0232
 2448SOL     OW12281   7.314   8.304   7.083  0.6581  0.3532 -0.1853
 2448SOL    HW112282   7.277   8.362   7.016  0.5040  0.3328 -0.1175
 2448SOL    HW212283   7.275   8.218   7.065  1.8072 -0.0248 -1.0491
 2449SOL     OW12284   7.806   3.020   9.731 -0.3065 -0.2880 -0.1079
 2449SOL    HW112285   7.827   3.025   9.638 -0.4964 -0.4699 -0.1600
 2449SOL    HW212286   7.741   2.951   9.737 -0.0889 -0.4660  0.1994
 2450SOL     OW12287   3.318   9.574   6.845  0.5425 -0.2938  0.3690
 2450SOL    HW112288   3.236   9.600   6.802 -1.2481 -0.7834  3.2496
 2450SOL    HW212289   3.367   9.656   6.853 -1.0918  0.6544  1.3541
 2451SOL     OW12290   9.448   0.368   2.503 -0.1917 -0.1410 -0.5723
 2451SOL    HW112291   9.394   0.394   2.578  1.0658  1.4904 -0.1578
 2451SOL    HW212292   9.501   0.296   2.536  0.7154  0.8900  0.3391
 2452SOL     OW12293   9.354   8.910   6.897 -0.2552  0.2008 -0.0889
 2452SOL    HW112294   9.337   8.850   6.824  0.7362  0.4730 -0.5569
 2452SOL    HW212295   9.381   8.991   6.855  0.9138  0.1800  0.5839
 2453SOL     OW12296   3.235   0.479   7.906 -0.0621 -0.7504 -0.1412
 2453SOL    HW112297   3.254   0.554   7.962  0.4662 -0.1094 -1.1582
 2453SOL    HW212298   3.226   0.406   7.967  1.6951 -0.3150  0.7233
 2454SOL     OW12299   8.858   7.973   8.041 -0.6339 -0.1781 -0.1916
 2454SOL    HW112300   8.870   7.973   7.946 -1.5981 -0.9372 -0.3213
 2454SOL    HW212301   8.944   7.999   8.075 -0.0748 -0.5638 -1.2428
 2455SOL     OW12302  10.474   3.649  11.369 -0.0692 -0.0202 -0.1086
 2455SOL    HW112303  10.448   3.669  11.279 -1.9396  0.0860  0.4083
 2455SOL    HW212304  10.464   3.733  11.415 -0.1885 -0.3205  0.4147
 2456SOL     OW12305   3.243  10.509   5.283  0.5238  0.7235  0.1215
 2456SOL    HW112306   3.289  10.489   5.364  1.2265 -0.2063 -0.4775
 2456SOL    HW212307   3.255  10.603   5.270  0.3169  0.8959  1.1304
 2457SOL     OW12308   6.986   6.270   0.652  0.0723  0.3489 -0.4931
 2457SOL    HW112309   6.947   6.293   0.568 -2.4181 -0.6744  0.3094
 2457SOL    HW212310   6.913   6.268   0.714  1.9134  1.7253  1.8951
 2458SOL     OW12311   0.600   1.617   1.569 -0.1300  0.1630 -0.0987
 2458SOL    HW112312   0.686   1.640   1.605 -0.0566 -1.8961  1.2373
 2458SOL    HW212313   0.543   1.690   1.593  1.1561  1.4482 -0.7796
 2459SOL     OW12314   5.019   8.725   2.425 -0.2238 -0.2152  0.1225
 2459SOL    HW112315   5.078   8.729   2.500 -0.2352 -2.9509  0.4001
 2459SOL    HW212316   5.051   8.650   2.374 -0.5597  1.2079 -2.3648
 2460SOL     OW12317  11.241   6.662  10.415 -0.1899  0.2515  0.0416
 2460SOL    HW112318  11.201   6.698  10.336  0.1440 -0.0776 -0.2831
 2460SOL    HW212319  11.248   6.736  10.475 -0.0395  0.6000 -0.4009
 2461SOL     OW12320   7.225   3.189   9.090  0.3458 -0.9917  0.1932
 2461SOL    HW112321   7.249   3.244   9.164 -0.2141  0.0237 -0.3492
 2461SOL    HW212322   7.130   3.176   9.099  0.1388 -0.2326 -0.7280
 2462SOL     OW12323   3.941   9.980   7.357  0.0794  0.4501 -0.6301
 2462SOL    HW112324   3.906   9.909   7.304 -0.4270  1.1776 -1.2948
 2462SOL    HW212325   4.017   9.942   7.401 -0.2483 -0.5240 -0.8871
 2463SOL     OW12326  10.824   5.099   0.150 -0.3362  0.2973 -0.3459
 2463SOL    HW112327  10.894   5.084   0.213  0.1390 -1.3127 -1.1885
 2463SOL    HW212328  10.862   5.159   0.085  0.4095 -0.8054 -0.9640
 2464SOL     OW12329   0.732   4.918   1.162  0.2066 -0.3088  0.4871
 2464SOL    HW112330   0.820   4.904   1.199 -0.6728 -1.4573  2.2620
 2464SOL    HW212331   0.673   4.909   1.237 -1.4611  0.1944 -0.7237
 2465SOL     OW12332   5.233   6.841   0.433  0.2859 -1.0548 -0.2001
 2465SOL    HW112333   5.230   6.888   0.350  0.2305 -0.6506  0.0266
 2465SOL    HW212334   5.147   6.800   0.442 -0.8074  1.3214  1.0337
 2466SOL     OW12335   3.296   9.848   1.432  0.1147  0.4223  0.3524
 2466SOL    HW112336   3.257   9.859   1.345 -0.4668 -2.1065  0.2090
 2466SOL    HW212337   3.262   9.920   1.483 -0.2282  1.4748 -1.2745
 2467SOL     OW12338   2.862  10.543   7.407  0.1000 -0.3142  0.1622
 2467SOL    HW112339   2.805  10.620   7.412 -0.0068 -0.4025  0.3354
 2467SOL    HW212340   2.945  10.573   7.444  0.4375  0.0577 -0.8653
 2468SOL     OW12341   2.992   2.136   9.915 -0.3758 -0.2303  0.4355
 2468SOL    HW112342   2.906   2.105   9.943 -1.5407  1.8115 -0.6289
 2468SOL    HW212343   3.034   2.165   9.997 -1.2179 -0.1020  0.8383
 2469SOL     OW12344   3.548  10.452   3.637  0.0895  0.0985  0.0299
 2469SOL    HW112345   3.529  10.538   3.673  1.7293  0.2235  0.6987
 2469SOL    HW212346   3.482  10.439   3.569 -1.1121  1.2204  0.9425
 2470SOL     OW12347   1.936   1.125   8.077 -0.1869  0.6891 -0.3982
 2470SOL    HW112348   2.001   1.195   8.081  0.0856  0.5424 -1.5910
 2470SOL    HW212349   1.885   1.134   8.157  0.9051  1.2046  0.2580
 2471SOL     OW12350   0.912   8.581   9.979  0.1688 -0.4819  0.3576
 2471SOL    HW112351   0.920   8.521  10.054 -0.5407  0.2064  1.0099
 2471SOL    HW212352   0.833   8.632   9.999  1.2618  1.2994  0.2728
 2472SOL     OW12353   3.787   9.567   8.555 -0.1979  0.2119 -0.1451
 2472SOL    HW112354   3.814   9.477   8.534 -0.3996  0.4568 -1.5806
 2472SOL    HW212355   3.856   9.600   8.612  1.3878  0.0563 -1.8646
 2473SOL     OW12356   4.448   1.102   4.832 -0.6107 -0.0178  0.1648
 2473SOL    HW112357   4.402   1.172   4.785 -1.2443  0.2456  1.1661
 2473SOL    HW212358   4.452   1.030   4.768  0.0644  0.9228 -0.8752
 2474SOL     OW12359   1.724   7.356   0.162  0.0055 -0.0241  0.3459
 2474SOL    HW112360   1.760   7.443   0.174  0.0997  0.1450 -1.0419
 2474SOL    HW212361   1.784   7.298   0.209  0.9240  0.4697 -0.2082
 2475SOL     OW12362   2.997  10.812   9.559 -0.5615  0.1220  0.1619
 2475SOL    HW112363   3.004  10.878   9.491  0.7505  0.8796  0.9724
 2475SOL    HW212364   2.916  10.833   9.606 -0.0784  1.2906  0.5142
 2476SOL     OW12365   7.818  11.514   9.034 -0.1461  0.1708 -0.0556
 2476SOL    HW112366   7.879  11.475   9.097 -1.4692  0.5988  1.5600
 2476SOL    HW212367   7.827  11.608   9.048 -0.9757  0.2423  0.0150
 2477SOL     OW12368   0.005  11.348   8.682 -0.0465  0.1530  0.4649
 2477SOL    HW112369  -0.057  11.286   8.720  0.5487 -1.0754 -0.4891
 2477SOL    HW212370  -0.030  11.368   8.595 -0.0344  0.8845  0.6173
 2478SOL     OW12371   8.513   5.244   1.857 -0.1536  0.2134  0.9616
 2478SOL    HW112372   8.488   5.269   1.946  1.9878 -2.5040  2.4906
 2478SOL    HW212373   8.518   5.149   1.860  0.6266  0.0815 -1.9205
 2479SOL     OW12374   0.979   0.615  10.025 -0.6574  0.4278 -0.3476
 2479SOL    HW112375   0.901   0.639  10.075 -0.4229  0.8981 -0.2017
 2479SOL    HW212376   0.988   0.685   9.960  1.1198  1.8099  1.2955
 2480SOL     OW12377  10.798   3.811   7.657 -0.7955 -0.2017 -0.7612
 2480SOL    HW112378  10.814   3.757   7.734 -1.0728 -1.1758 -1.3604
 2480SOL    HW212379  10.723   3.770   7.614 -0.4148  0.0945 -1.7392
 2481SOL     OW12380   6.454   8.067   6.677  0.1690  0.4354  0.6751
 2481SOL    HW112381   6.398   8.024   6.742  1.7422 -0.4966  1.4671
 2481SOL    HW212382   6.423   8.031   6.593 -0.8308  0.4333  1.0261
 2482SOL     OW12383  10.386  11.177   0.859  0.2204 -0.1804 -0.0758
 2482SOL    HW112384  10.467  11.174   0.809 -0.3669 -2.0230 -0.9825
 2482SOL    HW212385  10.414  11.186   0.950  1.4084 -0.2766 -0.4226
 2483SOL     OW12386  10.110  11.271   4.387  0.0413  0.3918 -0.2685
 2483SOL    HW112387  10.049  11.216   4.339  0.7790  1.5157 -2.6876
 2483SOL    HW212388  10.074  11.360   4.379  1.0453  0.8259 -0.2028
 2484SOL     OW12389  11.569   6.641   1.739  0.4887  0.5971  0.0671
 2484SOL    HW112390  11.492   6.612   1.690  0.2084  0.5300  0.5398
 2484SOL    HW212391  11.612   6.560   1.766 -0.3262  0.5989  1.4358
 2485SOL     OW12392   7.239   3.358   6.618 -0.6127  0.4119  0.0827
 2485SOL    HW112393   7.226   3.325   6.707 -0.2081  0.3078  0.1014
 2485SOL    HW212394   7.239   3.453   6.628 -1.6701  0.4326  0.0424
 2486SOL     OW12395  10.142   6.662   2.017 -0.3283 -0.3768  0.0213
 2486SOL    HW112396  10.182   6.730   2.071 -1.7123 -0.3383  1.0656
 2486SOL    HW212397  10.133   6.587   2.076 -1.8282 -0.3509 -0.1275
 2487SOL     OW12398   7.762   4.360  10.320  0.0958  0.2418  0.4126
 2487SOL    HW112399   7.789   4.395  10.405  0.1411 -1.2947  1.0761
 2487SOL    HW212400   7.666   4.362  10.322  0.0888  1.7329 -0.2011
 2488SOL     OW12401  10.283   2.478   6.928  0.3679 -0.0545  0.2229
 2488SOL    HW112402  10.353   2.436   6.978  1.1962  0.0784 -0.7858
 2488SOL    HW212403  10.268   2.418   6.854  0.4090  0.5986 -0.3290
 2489SOL     OW12404   8.242   5.998   7.731  0.0600 -0.4513  0.0751
 2489SOL    HW112405   8.188   5.924   7.759 -1.3226  0.1078 -1.0243
 2489SOL    HW212406   8.187   6.075   7.744  0.9698  0.2553 -0.1020
 2490SOL     OW12407   6.373   1.327   1.381  0.1023  0.0304  0.4344
 2490SOL    HW112408   6.367   1.295   1.472 -0.5516  1.1176  0.7908
 2490SOL    HW212409   6.346   1.419   1.386 -0.0653  0.0712 -0.8842
 2491SOL     OW12410   6.783   4.787   2.981  0.3133 -0.7411 -0.3852
 2491SOL    HW112411   6.864   4.760   3.024 -0.2083 -1.3483  0.2414
 2491SOL    HW212412   6.713   4.750   3.035 -0.4019  0.4043 -0.4971
 2492SOL     OW12413   4.351   3.044   3.140 -0.0035  0.0802 -0.2470
 2492SOL    HW112414   4.333   3.091   3.221  0.5483 -1.0479  0.5691
 2492SOL    HW212415   4.334   3.107   3.070 -1.6918  0.7137  0.6788
 2493SOL     OW12416   4.207   1.905   5.085 -0.3429  0.3087 -0.4115
 2493SOL    HW112417   4.207   1.904   4.989 -1.5755  0.4235 -0.4197
 2493SOL    HW212418   4.144   1.972   5.109  0.1483  0.4658  0.4901
 2494SOL     OW12419  10.060   5.382   8.131 -0.6759 -0.6630  0.2447
 2494SOL    HW112420  10.106   5.371   8.047 -0.5419 -1.1901  0.3866
 2494SOL    HW212421  10.102   5.320   8.190  1.0349  1.4801  1.4522
 2495SOL     OW12422  11.278   3.012   9.430  0.0591 -0.3166  0.1075
 2495SOL    HW112423  11.281   3.079   9.498  0.8855 -0.1325 -0.1037
 2495SOL    HW212424  11.360   2.964   9.440 -0.7656 -1.6625  0.6150
 2496SOL     OW12425  10.317   4.179   5.594 -0.1390  0.0645 -0.7221
 2496SOL    HW112426  10.259   4.244   5.632  0.2976  0.7519 -1.2047
 2496SOL    HW212427  10.267   4.097   5.596 -0.0476  0.0138  1.5016
 2497SOL     OW12428   2.226   3.855   0.480  0.8104  0.0451 -0.0015
 2497SOL    HW112429   2.162   3.784   0.494  0.9885 -0.0991  0.0953
 2497SOL    HW212430   2.186   3.931   0.522  1.0462 -0.2325  0.7616
 2498SOL     OW12431   8.219   8.208   5.295  0.0652 -0.0867  0.4736
 2498SOL    HW112432   8.266   8.272   5.349 -0.7892  0.6769  0.3397
 2498SOL    HW212433   8.267   8.126   5.309  0.2146  0.2081  1.9422
 2499SOL     OW12434  11.185   2.474   4.213 -0.5753 -0.1455  0.4586
 2499SOL    HW112435  11.237   2.470   4.133 -0.8854  0.2467  0.2390
 2499SOL    HW212436  11.250   2.468   4.284 -0.3324 -0.8761  0.1827
 2500SOL     OW12437   3.713  10.622   0.514  0.4472  0.0476  0.3612
 2500SOL    HW112438   3.686  10.573   0.592 -0.3368  0.1517  0.1637
 2500SOL    HW212439   3.676  10.709   0.527 -0.5429 -0.2103 -0.5792
 2501SOL     OW12440   6.618   7.228   6.050 -0.5538 -0.3071 -0.3208
 2501SOL    HW112441   6.615   7.142   6.091 -0.6893 -0.1448  0.0174
 2501SOL    HW212442   6.705   7.233   6.009  0.3356  0.2250  1.5144
 2502SOL     OW12443   7.030   9.689   2.873 -0.5763 -0.2963 -0.2824
 2502SOL    HW112444   7.033   9.781   2.849  0.3222 -0.2933 -0.1785
 2502SOL    HW212445   6.966   9.651   2.813 -0.7596  0.3419 -0.4973
 2503SOL     OW12446  10.909   1.452   1.466 -0.5809  0.4851 -0.3934
 2503SOL    HW112447  10.860   1.410   1.537 -1.1104  0.4560 -0.7738
 2503SOL    HW212448  10.979   1.390   1.445  0.3739  1.0516  0.9644
 2504SOL     OW12449   2.644   6.523   3.613 -0.1703 -0.4219  0.4077
 2504SOL    HW112450   2.640   6.608   3.570  2.5350 -0.2409  0.2921
 2504SOL    HW212451   2.594   6.534   3.694 -0.9948  0.8306 -0.2442
 2505SOL     OW12452   4.455   3.449   8.571  0.2047  0.2927 -0.4025
 2505SOL    HW112453   4.519   3.439   8.501  0.1202 -0.0727 -0.4265
 2505SOL    HW212454   4.424   3.361   8.589  1.0556  0.2262  0.8828
 2506SOL     OW12455   6.907   9.960   5.362 -0.6824  0.1926 -0.4151
 2506SOL    HW112456   6.911   9.864   5.367  0.3240  0.1713 -1.2330
 2506SOL    HW212457   6.925   9.979   5.270 -4.4663  1.0377 -1.1454
 2507SOL     OW12458   9.861   8.344   0.743 -0.2150  0.1402 -0.1103
 2507SOL    HW112459   9.937   8.345   0.684 -0.0092 -0.2555  0.1484
 2507SOL    HW212460   9.832   8.253   0.744 -1.6891  0.5419 -1.4723
 2508SOL     OW12461   0.828   0.116  10.611  0.4310 -0.1576 -0.1442
 2508SOL    HW112462   0.827   0.034  10.562 -0.8037  0.2392 -0.8346
 2508SOL    HW212463   0.741   0.120  10.653 -0.3346  1.7014 -1.7521
 2509SOL     OW12464   6.317   9.038   9.358 -0.0132 -0.1526 -0.1027
 2509SOL    HW112465   6.367   8.974   9.308  1.2199  1.7003 -1.3639
 2509SOL    HW212466   6.382   9.102   9.387 -1.5819  2.6643 -2.2814
 2510SOL     OW12467   6.745   9.327   3.661  0.7946 -0.2557  0.3190
 2510SOL    HW112468   6.652   9.325   3.641  0.3000 -0.3904  2.3533
 2510SOL    HW212469   6.788   9.342   3.577 -1.1236  1.1088 -0.4913
 2511SOL     OW12470   9.345   5.248   0.044 -0.0141 -0.1560  0.0794
 2511SOL    HW112471   9.432   5.242   0.004 -0.3447  0.4111 -0.7384
 2511SOL    HW212472   9.344   5.334   0.086 -0.0203 -0.3529  0.4929
 2512SOL     OW12473   0.884   3.951   4.887  0.0059  0.2102  0.2467
 2512SOL    HW112474   0.797   3.971   4.920 -0.0122  0.7817 -0.1311
 2512SOL    HW212475   0.873   3.946   4.792  0.5664  1.2357  0.1176
 2513SOL     OW12476  10.406  10.214   3.817 -0.3833  0.3050 -0.4413
 2513SOL    HW112477  10.341  10.281   3.798  0.4393  0.6158 -2.4170
 2513SOL    HW212478  10.384  10.182   3.904 -1.7553  2.0172 -0.1244
 2514SOL     OW12479   2.634   5.492   2.867 -0.1568  0.2120  0.1061
 2514SOL    HW112480   2.665   5.565   2.814  1.7454 -1.2666 -0.9310
 2514SOL    HW212481   2.708   5.431   2.870 -1.4857 -1.4374  1.3916
 2515SOL     OW12482   9.268   9.209   3.964  0.1557  0.3132 -0.7300
 2515SOL    HW112483   9.204   9.205   3.894  1.8364  0.5358 -2.3573
 2515SOL    HW212484   9.282   9.303   3.979 -1.0987  0.2973  0.8388
 2516SOL     OW12485   0.017   2.266   4.429  0.2982 -0.3463 -0.0995
 2516SOL    HW112486   0.014   2.231   4.340  0.6869 -0.7236  0.0342
 2516SOL    HW212487   0.038   2.359   4.417 -2.6346  0.3621 -0.5688
 2517SOL     OW12488  10.851  10.248  10.293  0.0695 -0.4742 -0.0154
 2517SOL    HW112489  10.816  10.292  10.371 -0.0803  0.4622 -0.5929
 2517SOL    HW212490  10.911  10.311  10.254 -0.5650 -0.5503 -1.1674
 2518SOL     OW12491   4.410   1.705  10.302  0.2611 -0.5223 -0.4943
 2518SOL    HW112492   4.317   1.690  10.283 -0.5032 -0.7507  2.7631
 2518SOL    HW212493   4.418   1.800  10.311  0.4606 -0.4670 -1.2267
 2519SOL     OW12494   3.041   7.906   9.027  0.4417  0.7487  0.2335
 2519SOL    HW112495   3.015   7.899   9.118 -1.4902 -1.4821 -0.3869
 2519SOL    HW212496   3.012   7.993   9.000 -1.9201  0.2597  0.9593
 2520SOL     OW12497  11.571   0.107  11.044  0.6014  0.6268  0.5127
 2520SOL    HW112498  11.499   0.062  11.088 -1.3582  0.2609 -2.7379
 2520SOL    HW212499  11.548   0.200  11.050 -0.3459  0.5020 -0.6664
 2521SOL     OW12500  11.017   3.136   2.433 -0.1285 -0.1800  0.5736
 2521SOL    HW112501  11.066   3.213   2.404 -0.8911 -0.3317 -1.2786
 2521SOL    HW212502  10.943   3.130   2.372 -0.5477 -1.9054  1.1811
 2522SOL     OW12503   3.380   7.836   4.249  0.5490  0.1178 -0.8717
 2522SOL    HW112504   3.362   7.916   4.201 -0.7990  0.2280 -0.2234
 2522SOL    HW212505   3.464   7.852   4.292 -0.1248  1.5590 -0.0146
 2523SOL     OW12506  10.334   8.336   5.978  0.5764  0.2878  0.4150
 2523SOL    HW112507  10.304   8.401   5.914  1.5833 -0.5013 -0.9057
 2523SOL    HW212508  10.283   8.355   6.057  0.2040  2.1001 -0.2143
 2524SOL     OW12509   6.076   2.365   8.843  0.0160  0.7504  0.8883
 2524SOL    HW112510   6.127   2.297   8.887 -0.4378 -1.5514 -1.9056
 2524SOL    HW212511   6.134   2.401   8.777 -0.7053  0.9968  0.3716
 2525SOL     OW12512   5.879   5.660   8.375 -0.5004 -0.1259  0.3048
 2525SOL    HW112513   5.923   5.628   8.297 -0.2752  1.7401 -0.3756
 2525SOL    HW212514   5.788   5.634   8.363 -0.1366 -1.4860  0.3436
 2526SOL     OW12515   5.485   5.506   6.126 -0.0731 -0.1864 -0.1239
 2526SOL    HW112516   5.525   5.580   6.170  0.3991 -0.5563  0.0783
 2526SOL    HW212517   5.396   5.502   6.161 -0.2855  0.6224 -0.5606
 2527SOL     OW12518   4.011   4.708  11.398  0.1097  0.2319 -0.3204
 2527SOL    HW112519   3.921   4.705  11.430  0.4674 -3.0142  0.8429
 2527SOL    HW212520   4.059   4.756  11.465  0.0496 -2.6868  2.0661
 2528SOL     OW12521   8.877   3.633   6.378  0.0477  0.0402  0.2362
 2528SOL    HW112522   8.795   3.633   6.429 -1.9688  3.4567 -2.5419
 2528SOL    HW212523   8.931   3.700   6.419  0.5707 -0.6747  0.7459
 2529SOL     OW12524   1.556   8.513   0.190  0.0021  0.4076 -0.6957
 2529SOL    HW112525   1.544   8.608   0.192 -1.1693  0.2519  0.8615
 2529SOL    HW212526   1.604   8.494   0.270 -1.9204 -0.5586  0.2771
 2530SOL     OW12527   6.327  10.503   0.232  0.3895 -0.0423  0.1843
 2530SOL    HW112528   6.406  10.454   0.207  0.6987  1.0138 -1.0017
 2530SOL    HW212529   6.297  10.543   0.150 -1.5870 -0.6951  0.5407
 2531SOL     OW12530   3.327   0.880   7.861  0.5815  0.0015 -0.0855
 2531SOL    HW112531   3.376   0.962   7.857  1.6624 -0.6587 -0.9472
 2531SOL    HW212532   3.317   0.863   7.955  0.9944  0.7362  0.1016
 2532SOL     OW12533   1.931   1.760   8.481 -0.2650 -0.1084  0.4277
 2532SOL    HW112534   1.920   1.803   8.566  2.3564  0.0014  0.7939
 2532SOL    HW212535   1.867   1.803   8.424 -0.2382  1.7186  1.6705
 2533SOL     OW12536   8.159   8.039   7.559  0.3013 -0.0223 -0.0634
 2533SOL    HW112537   8.157   8.096   7.636  2.3438 -0.4993  0.4021
 2533SOL    HW212538   8.141   7.951   7.595 -0.6624  0.0014 -0.4513
 2534SOL     OW12539   2.917   7.175   4.633  0.6542 -0.0246  0.1986
 2534SOL    HW112540   2.826   7.204   4.635  1.3655  2.4290 -0.0802
 2534SOL    HW212541   2.926   7.130   4.549 -0.4624 -0.9849  0.5654
 2535SOL     OW12542   9.825   1.716  11.250 -0.1842 -0.1167  0.3413
 2535SOL    HW112543   9.783   1.801  11.263 -0.8608 -0.3549 -0.2857
 2535SOL    HW212544   9.847   1.713  11.157 -1.7357 -1.3356 -0.0138
 2536SOL     OW12545   6.960   3.864   5.310  0.1727  0.1506  0.0055
 2536SOL    HW112546   6.868   3.887   5.306 -0.1646 -1.2010 -1.3478
 2536SOL    HW212547   6.964   3.791   5.372  0.0862 -0.6770 -0.9362
 2537SOL     OW12548  11.679  11.268   1.413  0.7698 -0.0143  0.2704
 2537SOL    HW112549  11.774  11.258   1.398  0.5007 -2.6932 -0.2611
 2537SOL    HW212550  11.667  11.242   1.505  0.3982 -1.4362 -0.1548
 2538SOL     OW12551   4.439   0.817   5.876  0.2957  0.3442  0.0227
 2538SOL    HW112552   4.481   0.731   5.871  0.1246  0.2745 -0.2319
 2538SOL    HW212553   4.400   0.820   5.963  0.4201  0.2165  0.0823
 2539SOL     OW12554   4.523   0.932   2.782 -0.2470 -0.1216 -0.1995
 2539SOL    HW112555   4.614   0.931   2.752 -0.1501  1.9201 -0.1280
 2539SOL    HW212556   4.473   0.891   2.712  0.5776 -0.0703 -0.8260
 2540SOL     OW12557   2.659  10.041   6.490 -0.1354 -0.3491  0.5433
 2540SOL    HW112558   2.713   9.962   6.483 -0.6672 -0.6175 -0.7538
 2540SOL    HW212559   2.569  10.009   6.489 -0.3447  0.1645  1.7447
 2541SOL     OW12560   7.567   4.241  11.668  0.4232  0.3399 -0.5918
 2541SOL    HW112561   7.557   4.149  11.646 -0.4811  0.8810 -2.7119
 2541SOL    HW212562   7.619   4.242  11.748 -1.5822 -2.0856  0.8725
 2542SOL     OW12563   1.111   3.734   9.419  0.2838 -0.4709  0.6525
 2542SOL    HW112564   1.143   3.743   9.508  0.7893 -0.7200  0.5001
 2542SOL    HW212565   1.187   3.704   9.369  0.2311  0.5076 -0.0305
 2543SOL     OW12566   3.110   8.741   1.770 -0.0031  0.5925 -0.3380
 2543SOL    HW112567   3.144   8.768   1.685 -0.7269 -1.4874 -1.3664
 2543SOL    HW212568   3.021   8.710   1.751 -0.0979 -0.1106  1.1352
 2544SOL     OW12569   6.998  11.304   1.204 -0.3511 -0.0090 -0.3009
 2544SOL    HW112570   6.917  11.348   1.231  0.6420  1.4595  0.3920
 2544SOL    HW212571   6.991  11.296   1.109 -1.6464 -0.6323 -0.1790
 2545SOL     OW12572  10.476   4.113   8.032  0.7050 -0.0066  0.1239
 2545SOL    HW112573  10.530   4.050   7.986  2.4280 -0.5489  2.6983
 2545SOL    HW212574  10.490   4.196   7.986 -0.0656 -1.0407 -2.1001
 2546SOL     OW12575   8.627   6.843   6.385 -0.2275 -0.4600 -0.6603
 2546SOL    HW112576   8.639   6.786   6.461 -1.4921  0.2733  0.1241
 2546SOL    HW212577   8.667   6.926   6.411 -0.1224 -0.3883 -1.0456
 2547SOL     OW12578   9.694   6.832   3.639 -0.5876 -0.4372 -0.4319
 2547SOL    HW112579   9.664   6.879   3.717  1.7606  1.8488 -0.7935
 2547SOL    HW212580   9.729   6.750   3.674 -0.3619  0.1688  0.8460
 2548SOL     OW12581   4.709   2.015   3.737 -0.0508 -0.2439 -0.8247
 2548SOL    HW112582   4.787   2.006   3.791 -0.2930  0.8845 -0.2600
 2548SOL    HW212583   4.732   2.080   3.671 -1.1606  1.7265  0.6396
 2549SOL     OW12584   7.812   2.048  10.853  0.0506 -0.3355 -0.1802
 2549SOL    HW112585   7.839   2.026  10.764  0.9472 -0.9869  0.2401
 2549SOL    HW212586   7.718   2.064  10.846  0.3105  0.7506 -1.4494
 2550SOL     OW12587   6.457   8.507   3.741  0.9201 -0.2398 -0.2184
 2550SOL    HW112588   6.531   8.563   3.720 -0.2369  1.6925  0.5385
 2550SOL    HW212589   6.386   8.541   3.686  0.2022 -1.0410  0.1921
 2551SOL     OW12590  10.001  11.506   7.382 -0.0995  0.0716  0.2492
 2551SOL    HW112591  10.002  11.499   7.477 -0.8035  0.1874  0.2678
 2551SOL    HW212592  10.088  11.477   7.355  0.1936  0.3019  0.9432
 2552SOL     OW12593   4.674   5.893   4.524 -0.6429  0.7307  0.3459
 2552SOL    HW112594   4.617   5.839   4.579  1.9522 -1.4540  1.1129
 2552SOL    HW212595   4.678   5.846   4.440 -0.1427  0.9796  0.2287
 2553SOL     OW12596   9.282   1.953   0.916 -0.8055  0.5926 -0.3615
 2553SOL    HW112597   9.228   1.962   0.837 -1.1568  1.0954 -0.0659
 2553SOL    HW212598   9.315   1.863   0.911 -0.4504  0.7608 -1.3178
 2554SOL     OW12599   9.884   3.242   9.089 -0.3040 -0.0005  0.5583
 2554SOL    HW112600   9.918   3.156   9.063 -0.5430  0.3105 -0.8747
 2554SOL    HW212601   9.896   3.245   9.184  0.4961 -1.2694  0.5219
 2555SOL     OW12602   5.200   9.412   4.257  0.3458  0.1047 -0.2110
 2555SOL    HW112603   5.226   9.390   4.346  0.8201 -1.3960 -0.6840
 2555SOL    HW212604   5.110   9.445   4.265  0.8019  1.1147  0.9345
 2556SOL     OW12605  11.488  10.375   6.198 -0.8537  0.3614 -0.5871
 2556SOL    HW112606  11.556  10.376   6.131 -0.8552  0.5697 -0.5878
 2556SOL    HW212607  11.534  10.393   6.280 -0.7518 -0.5680 -0.4316
 2557SOL     OW12608   5.721   6.486  11.360  0.2009 -0.2413 -0.9107
 2557SOL    HW112609   5.739   6.578  11.382  1.0695 -0.6523  0.1825
 2557SOL    HW212610   5.785   6.465  11.292 -0.1042 -0.0018 -1.2779
 2558SOL     OW12611   5.769   5.124   6.713 -0.2043  0.0071  0.8258
 2558SOL    HW112612   5.755   5.033   6.688 -1.9391  0.4875 -0.0974
 2558SOL    HW212613   5.688   5.169   6.688  1.0691  2.0456  0.0778
 2559SOL     OW12614   0.840  11.431  10.003 -0.4182 -0.0315  0.6134
 2559SOL    HW112615   0.793  11.349  10.019  0.8629 -0.8529  0.3244
 2559SOL    HW212616   0.794  11.470   9.929 -1.8315  0.1656  1.5520
 2560SOL     OW12617   1.720   3.696   8.369 -0.6219 -0.4013  0.1050
 2560SOL    HW112618   1.788   3.630   8.381 -0.6064 -0.3096  0.5547
 2560SOL    HW212619   1.755   3.755   8.302  0.0001 -0.0315  0.7391
 2561SOL     OW12620   8.268   0.838   1.684  0.3329 -0.0885 -0.2089
 2561SOL    HW112621   8.315   0.881   1.613 -2.4829  2.2643 -0.8207
 2561SOL    HW212622   8.233   0.758   1.644  0.4501  0.1821 -0.8708
 2562SOL     OW12623   3.511   5.940   2.500  0.2764 -0.1481  0.9293
 2562SOL    HW112624   3.606   5.932   2.486  0.0478 -0.3224 -0.6798
 2562SOL    HW212625   3.474   5.944   2.412 -1.0857  1.7502  1.5276
 2563SOL     OW12626   2.081   4.265   8.438 -0.6846 -0.2685 -0.1095
 2563SOL    HW112627   2.153   4.281   8.377 -0.5641 -2.4356 -0.6246
 2563SOL    HW212628   2.002   4.284   8.388 -0.5523  2.3863  0.5413
 2564SOL     OW12629   4.449   9.984   3.530  0.1503  0.4641 -0.5948
 2564SOL    HW112630   4.479  10.017   3.615  0.4332 -0.6826 -0.2314
 2564SOL    HW212631   4.506  10.028   3.467 -1.6666  3.2504 -0.4511
 2565SOL     OW12632   1.330  11.287   9.249 -0.3502 -0.1331 -0.0295
 2565SOL    HW112633   1.423  11.273   9.269 -0.4080 -0.0358  0.3110
 2565SOL    HW212634   1.300  11.202   9.216 -0.3500 -0.4223  0.6793
 2566SOL     OW12635   9.104   3.312  10.916  0.0841  0.6388 -0.7351
 2566SOL    HW112636   9.136   3.390  10.871  1.6175 -0.8142 -2.3042
 2566SOL    HW212637   9.157   3.307  10.996  1.8046 -0.1075 -1.8603
 2567SOL     OW12638   5.018  11.492   7.233  0.1941  0.5991 -0.3459
 2567SOL    HW112639   4.926  11.466   7.242 -0.2817  2.2823 -0.0175
 2567SOL    HW212640   5.017  11.587   7.239  2.2665  0.5894  2.6341
 2568SOL     OW12641   2.578   6.296   6.198 -0.0173 -0.0259 -0.1995
 2568SOL    HW112642   2.585   6.356   6.124 -0.6655  0.8729  0.4433
 2568SOL    HW212643   2.655   6.316   6.252 -0.7468  0.9390  0.5079
 2569SOL     OW12644   1.696  10.784   6.226 -0.6175  0.3066  0.4015
 2569SOL    HW112645   1.758  10.855   6.244 -0.4521 -0.1241  1.6573
 2569SOL    HW212646   1.700  10.730   6.305  0.6926 -2.1544 -1.2256
 2570SOL     OW12647   8.587   6.497   9.619  0.0593 -0.2585  0.2003
 2570SOL    HW112648   8.526   6.570   9.629 -0.7461 -0.7812 -0.7144
 2570SOL    HW212649   8.583   6.451   9.703  1.2835  1.2359  1.1387
 2571SOL     OW12650  10.381   9.208   2.231 -0.3468 -0.5629 -0.0979
 2571SOL    HW112651  10.400   9.301   2.221  0.2633 -0.4200  1.9579
 2571SOL    HW212652  10.291   9.199   2.199 -1.2994  1.2266  1.8553
 2572SOL     OW12653   4.785   5.801   8.700 -0.1212  0.4770  0.1161
 2572SOL    HW112654   4.800   5.806   8.606  1.2862  0.1996  0.3022
 2572SOL    HW212655   4.704   5.850   8.714 -0.3803  0.4652 -1.2382
 2573SOL     OW12656   7.787   8.537   8.693 -0.5059  0.1988 -0.8224
 2573SOL    HW112657   7.877   8.506   8.687 -0.6950 -0.5045 -0.2730
 2573SOL    HW212658   7.734   8.463   8.660 -1.0320 -0.5121  1.4637
 2574SOL     OW12659   1.193   9.153   7.512 -0.0811 -0.1782 -0.1622
 2574SOL    HW112660   1.112   9.171   7.465  0.1507 -0.4794 -0.6750
 2574SOL    HW212661   1.216   9.064   7.489  0.3884 -0.1025 -0.0017
 2575SOL     OW12662   2.659   9.192   6.572 -0.1928 -0.4953  0.4428
 2575SOL    HW112663   2.627   9.272   6.530 -0.4616 -0.6884  0.2805
 2575SOL    HW212664   2.642   9.123   6.509  0.5817 -0.5984  0.3385
 2576SOL     OW12665   8.547   9.769   4.029  0.0484 -0.4236 -0.3414
 2576SOL    HW112666   8.490   9.831   3.984 -0.0110  0.9790  1.5543
 2576SOL    HW212667   8.490   9.695   4.051 -1.7790  1.7865  3.2950
 2577SOL     OW12668   4.823   7.411  11.042  0.2495 -0.2032 -0.4257
 2577SOL    HW112669   4.779   7.412  10.957  1.7422  1.4394 -1.2449
 2577SOL    HW212670   4.874   7.329  11.042  0.6909  0.0560 -1.3918
 2578SOL     OW12671  10.594   2.298   6.046  0.1375 -0.4532 -0.7495
 2578SOL    HW112672  10.561   2.288   6.136 -0.2603  1.4322 -0.6433
 2578SOL    HW212673  10.573   2.215   6.004  0.4871 -1.4413  0.9425
 2579SOL     OW12674   8.924   0.422   7.905  0.4838 -0.0329 -0.3593
 2579SOL    HW112675   8.846   0.415   7.960  1.2823  1.7053  1.1110
 2579SOL    HW212676   8.972   0.340   7.920  0.5192  0.2710  1.3362
 2580SOL     OW12677   5.716   6.015   5.252  0.1468  0.6618 -0.2772
 2580SOL    HW112678   5.801   6.036   5.214  0.7703  0.4215  0.9306
 2580SOL    HW212679   5.728   6.027   5.346 -1.3267  1.1762 -0.1296
 2581SOL     OW12680   1.133   5.108   1.546  0.0848  0.2975 -0.4310
 2581SOL    HW112681   1.050   5.060   1.540  0.3644 -0.3278  0.5527
 2581SOL    HW212682   1.201   5.040   1.542  0.4631  0.3242  2.9756
 2582SOL     OW12683   9.777  10.209   7.446 -0.7285 -0.3504  0.1252
 2582SOL    HW112684   9.852  10.225   7.503 -0.4327 -0.0136 -0.3547
 2582SOL    HW212685   9.764  10.291   7.399 -2.1348  0.0027  1.0342
 2583SOL     OW12686   8.233   5.746   7.427 -0.0689  0.4495  0.0186
 2583SOL    HW112687   8.239   5.807   7.500 -1.6006  0.2563  0.3358
 2583SOL    HW212688   8.244   5.801   7.349  0.4556  0.8223  0.3451
 2584SOL     OW12689  11.408   1.661   0.707  0.3218 -0.2154  0.1152
 2584SOL    HW112690  11.340   1.648   0.773 -0.8396 -2.6220 -1.4459
 2584SOL    HW212691  11.469   1.589   0.720 -0.8201 -1.7504 -2.4055
 2585SOL     OW12692   6.251   2.999   0.008 -0.7532  0.4572  0.3097
 2585SOL    HW112693   6.208   2.957   0.083 -1.0214  0.9327  0.4301
 2585SOL    HW212694   6.199   2.972  -0.068 -1.2814  1.0294  0.4546
 2586SOL     OW12695   9.417   9.330   1.559 -0.0290  0.1763  0.2871
 2586SOL    HW112696   9.436   9.237   1.546 -0.6251  0.0894 -0.0104
 2586SOL    HW212697   9.482   9.375   1.506  1.3455 -0.0080  1.7463
 2587SOL     OW12698   5.461  10.744   1.158  0.3602 -0.5163  0.1381
 2587SOL    HW112699   5.401  10.680   1.120 -0.7658  1.4524 -1.5964
 2587SOL    HW212700   5.539  10.738   1.103  0.4056 -0.6600  0.2174
 2588SOL     OW12701   1.776  10.811   0.658  0.3949  0.4517  0.0018
 2588SOL    HW112702   1.807  10.828   0.569  2.0059  0.4588  0.5467
 2588SOL    HW212703   1.778  10.715   0.666  1.0765  0.4856  0.3030
 2589SOL     OW12704   6.323   0.529   6.119  0.0223 -0.1465 -0.4835
 2589SOL    HW112705   6.357   0.596   6.179  0.2953  0.6658 -1.5255
 2589SOL    HW212706   6.355   0.555   6.033 -1.0793 -0.8266 -1.1147
 2590SOL     OW12707   6.917   0.258   7.779  0.1079 -0.1330 -0.4935
 2590SOL    HW112708   7.004   0.221   7.762  0.1041 -0.3520 -0.0558
 2590SOL    HW212709   6.864   0.229   7.706 -0.0769 -1.6109  0.2101
 2591SOL     OW12710   2.776   5.895   8.552 -0.2727  0.1273 -0.0746
 2591SOL    HW112711   2.841   5.890   8.621  0.5402 -0.4762 -0.8525
 2591SOL    HW212712   2.776   5.807   8.513 -0.5584  0.5110 -0.9622
 2592SOL     OW12713   7.709   9.919   7.883  0.9110  0.1254 -0.3205
 2592SOL    HW112714   7.746   9.835   7.854  1.2488  0.4280 -0.7808
 2592SOL    HW212715   7.747   9.984   7.824  1.2751  0.7112  0.5397
 2593SOL     OW12716   4.843   0.005   0.800 -0.2340 -0.0461 -0.0175
 2593SOL    HW112717   4.869   0.061   0.873 -2.6862 -0.7258  1.4758
 2593SOL    HW212718   4.867   0.055   0.722  0.5158  1.6653  1.2457
 2594SOL     OW12719   9.800   3.378   4.379  0.6124 -0.8783  0.1830
 2594SOL    HW112720   9.867   3.429   4.333 -0.4295  0.0469 -0.3660
 2594SOL    HW212721   9.777   3.308   4.318  0.4420 -0.6494 -0.0221
 2595SOL     OW12722   8.137  10.210   4.271 -0.1038  0.1486  0.3629
 2595SOL    HW112723   8.118  10.139   4.209 -0.0182 -0.2130  0.7502
 2595SOL    HW212724   8.223  10.190   4.306  1.0888  1.8262 -1.4257
 2596SOL     OW12725   5.354   3.831  10.704 -0.7253 -0.2965 -1.0003
 2596SOL    HW112726   5.343   3.876  10.620  0.3100  1.5854 -0.2051
 2596SOL    HW212727   5.393   3.897  10.761 -0.3006 -1.8808  0.6371
 2597SOL     OW12728   1.956  10.987   2.577 -0.3153  0.1595 -0.8220
 2597SOL    HW112729   1.993  10.923   2.516  1.5484  0.5480 -0.1571
 2597SOL    HW212730   1.931  10.935   2.654  1.2386  0.1980 -0.2639
 2598SOL     OW12731   5.394   4.053   8.109  0.2171  0.2817 -0.5114
 2598SOL    HW112732   5.436   3.990   8.167  1.1403  0.3564 -1.0701
 2598SOL    HW212733   5.379   4.004   8.028  1.8300  0.9951 -1.2953
 2599SOL     OW12734   1.081   8.038   9.864 -0.0072  0.0276  0.0132
 2599SOL    HW112735   1.019   8.011   9.931  0.7468 -0.7074  0.4247
 2599SOL    HW212736   1.027   8.076   9.795 -0.9271 -0.7822  0.2777
 2600SOL     OW12737   6.691  11.314   5.021 -0.1915 -0.4102 -0.6176
 2600SOL    HW112738   6.673  11.281   4.932  3.7594  1.7673 -2.4933
 2600SOL    HW212739   6.786  11.319   5.026 -0.2723  0.4394  3.5029
 2601SOL     OW12740   8.823  10.054   3.240 -0.1265 -0.2861 -0.0668
 2601SOL    HW112741   8.866  10.113   3.177  0.3879 -0.1944  0.3688
 2601SOL    HW212742   8.737  10.039   3.202 -0.3866  0.9952 -0.0485
 2602SOL     OW12743   0.553   5.673  10.337 -0.3118 -0.0477  0.5727
 2602SOL    HW112744   0.631   5.620  10.350 -0.0880  0.1157 -0.0562
 2602SOL    HW212745   0.497   5.620  10.280  0.1807  0.6318 -0.5759
 2603SOL     OW12746   4.939   0.680   7.593  0.0142 -0.2656 -0.5933
 2603SOL    HW112747   4.946   0.616   7.522 -2.5254  1.7598 -2.9415
 2603SOL    HW212748   5.021   0.729   7.590  0.3480 -0.8584 -1.4828
 2604SOL     OW12749   6.269   3.682   2.319  0.7152 -0.1797  0.2259
 2604SOL    HW112750   6.364   3.693   2.325  0.4619  1.7786  1.7566
 2604SOL    HW212751   6.249   3.693   2.226  2.0719 -1.8475 -0.3078
 2605SOL     OW12752  11.677   0.233   0.594  0.0509 -0.1528  0.2431
 2605SOL    HW112753  11.716   0.185   0.668 -0.4505 -0.0064  0.6086
 2605SOL    HW212754  11.641   0.164   0.537 -1.0658 -0.2137  0.9883
 2606SOL     OW12755   4.045   2.741   1.649 -0.3325 -0.0272 -0.1034
 2606SOL    HW112756   4.007   2.827   1.634 -0.7712 -0.1259  0.4079
 2606SOL    HW212757   4.009   2.686   1.580 -0.3020  0.1234 -0.2401
 2607SOL     OW12758   1.065   1.308   9.232 -0.0514 -0.1560 -0.0457
 2607SOL    HW112759   1.095   1.367   9.301 -0.1829 -1.5530  1.2821
 2607SOL    HW212760   1.109   1.339   9.153  0.0875  1.5190  0.6466
 2608SOL     OW12761   9.803   4.174   9.114  0.4063 -0.1629  0.0092
 2608SOL    HW112762   9.780   4.107   9.051 -0.0139  0.5925 -0.6532
 2608SOL    HW212763   9.899   4.174   9.116  0.4393  0.1437 -1.0068
 2609SOL     OW12764   0.161  10.877   3.265 -0.2675  0.6377  0.3836
 2609SOL    HW112765   0.230  10.811   3.272 -0.6963  0.2203  0.6755
 2609SOL    HW212766   0.177  10.919   3.180 -0.2933 -0.1721 -0.0285
 2610SOL     OW12767  10.506   8.968   8.662 -0.0728 -0.2718  0.2327
 2610SOL    HW112768  10.470   8.904   8.724  0.9455 -1.2831 -0.1797
 2610SOL    HW212769  10.434   9.029   8.647 -1.2572 -1.5855  0.2950
 2611SOL     OW12770   3.275   0.777   0.993  0.1888 -0.0853 -0.0356
 2611SOL    HW112771   3.308   0.687   0.999 -0.0753 -0.0625  2.6558
 2611SOL    HW212772   3.186   0.773   1.027  0.1729  1.2028  0.1383
 2612SOL     OW12773   1.134   3.084   6.515 -0.2651  0.0888  0.0901
 2612SOL    HW112774   1.116   3.050   6.428  1.1426  1.5910 -0.8662
 2612SOL    HW212775   1.048   3.091   6.557 -0.9818 -0.5451 -1.2211
 2613SOL     OW12776   5.416  10.086   8.345  0.1275  0.3244  0.0710
 2613SOL    HW112777   5.449  10.016   8.402 -0.0156 -0.4011 -0.7164
 2613SOL    HW212778   5.326  10.061   8.326 -0.0438  0.9276  0.0831
 2614SOL     OW12779   4.019   6.463   9.402  0.0295 -0.4209  0.5004
 2614SOL    HW112780   4.029   6.558   9.413 -0.5524 -0.3023  0.0512
 2614SOL    HW212781   4.074   6.425   9.471  1.2077  0.2229 -0.0609
 2615SOL     OW12782   9.299  11.475   6.340  0.0054  0.3744  0.0642
 2615SOL    HW112783   9.380  11.424   6.342 -0.0182  0.3253 -0.1785
 2615SOL    HW212784   9.243  11.435   6.405 -0.5689 -0.8392 -1.1318
 2616SOL     OW12785  11.338   5.848   9.570  0.3795  0.1664  0.2184
 2616SOL    HW112786  11.420   5.826   9.615  0.2083  0.2214  0.5670
 2616SOL    HW212787  11.273   5.848   9.640 -0.0090 -0.3651 -0.1387
 2617SOL     OW12788   4.089   3.821   2.951 -0.2096  0.2564  0.0296
 2617SOL    HW112789   4.007   3.771   2.944  0.5115 -0.6401 -3.3921
 2617SOL    HW212790   4.062   3.912   2.941 -1.1015  0.3598  2.5774
 2618SOL     OW12791   6.428   5.515   7.508  0.1235  0.5617 -0.3219
 2618SOL    HW112792   6.452   5.592   7.560  1.2017  0.4766 -0.6589
 2618SOL    HW212793   6.475   5.443   7.550 -1.7197 -0.1381  0.6426
 2619SOL     OW12794   6.099  10.665   1.254 -0.2145  0.5193  0.2345
 2619SOL    HW112795   6.045  10.735   1.292 -0.4156  0.4761  0.0322
 2619SOL    HW212796   6.069  10.658   1.164  0.7946  1.1464 -0.1663
 2620SOL     OW12797   2.212  11.343   3.867 -0.6587 -0.3151 -0.2986
 2620SOL    HW112798   2.211  11.366   3.774 -0.8083 -0.8347 -0.4304
 2620SOL    HW212799   2.188  11.424   3.912  3.0418  1.0707 -0.4443
 2621SOL     OW12800   9.442   2.863  11.386  0.2197 -0.0409 -0.2466
 2621SOL    HW112801   9.405   2.949  11.405  2.0402  0.5979  0.5752
 2621SOL    HW212802   9.466   2.867  11.293 -0.4888 -0.0007 -0.4380
 2622SOL     OW12803   2.234   8.127   5.759 -0.3031  0.3196  0.7865
 2622SOL    HW112804   2.284   8.059   5.712  0.5518  2.0583 -0.9475
 2622SOL    HW212805   2.144   8.096   5.755  0.0273 -0.6292 -0.1762
 2623SOL     OW12806   5.480   5.801   4.253  0.4385 -0.0303  0.5348
 2623SOL    HW112807   5.474   5.752   4.335  0.0736 -0.6161  0.1656
 2623SOL    HW212808   5.409   5.766   4.199 -1.3253  2.4751  1.0583
 2624SOL     OW12809   3.029   7.267  11.232 -0.0644 -0.6913  0.1709
 2624SOL    HW112810   2.997   7.192  11.182  0.8648 -1.2039  0.3233
 2624SOL    HW212811   3.063   7.328  11.166 -0.6408 -0.4798  0.0610
 2625SOL     OW12812   8.612   9.109   4.247  0.0242  0.4475 -0.2140
 2625SOL    HW112813   8.577   9.020   4.242 -0.5271  0.5929  0.8353
 2625SOL    HW212814   8.679   9.105   4.315 -0.5113  0.9882  0.3591
 2626SOL     OW12815   9.218  11.350   1.639  0.0893 -0.0550 -0.0883
 2626SOL    HW112816   9.259  11.324   1.721  0.7359 -3.1160 -1.2483
 2626SOL    HW212817   9.143  11.292   1.630 -0.0763  0.3451 -1.5501
 2627SOL     OW12818   1.235   4.731   0.316  0.1252 -0.1448  0.6088
 2627SOL    HW112819   1.145   4.727   0.349 -0.5965 -2.6565 -1.3171
 2627SOL    HW212820   1.228   4.779   0.233  0.2312 -1.4731 -0.2151
 2628SOL     OW12821   3.515   7.348   5.650  0.6004 -0.0464  0.7840
 2628SOL    HW112822   3.534   7.287   5.579  0.7021 -0.9765  1.5787
 2628SOL    HW212823   3.423   7.333   5.671  0.5464  0.2870  0.7858
 2629SOL     OW12824   2.988   1.648   6.702 -0.4246  0.4289 -0.5163
 2629SOL    HW112825   3.061   1.624   6.645 -0.2572  0.4474 -0.3110
 2629SOL    HW212826   2.966   1.738   6.677  0.5344  0.9281  0.3640
 2630SOL     OW12827   3.640  10.443  10.074  0.0648 -0.1755 -0.1800
 2630SOL    HW112828   3.625  10.350  10.090  0.1654 -0.3604 -1.1282
 2630SOL    HW212829   3.730  10.458  10.105  0.1667 -0.4632 -0.3342
 2631SOL     OW12830   3.495   6.521   9.626 -0.0781 -0.1092 -0.3122
 2631SOL    HW112831   3.498   6.438   9.674  1.1727 -0.1016 -0.3430
 2631SOL    HW212832   3.567   6.572   9.662 -1.2561  1.2559  0.1907
 2632SOL     OW12833  10.346   1.631   1.592 -0.3444 -0.5630 -0.1143
 2632SOL    HW112834  10.361   1.554   1.646  1.8954  0.2875  0.6265
 2632SOL    HW212835  10.308   1.696   1.652  2.2126  0.4066  0.6291
 2633SOL     OW12836   7.357   0.843   1.939 -0.0925 -0.0010 -0.2263
 2633SOL    HW112837   7.361   0.921   1.994  1.5857  0.0402 -0.3656
 2633SOL    HW212838   7.322   0.874   1.855  2.1042  0.9931 -0.8486
 2634SOL     OW12839   7.637   2.958   3.933 -1.0355  0.2248  0.1691
 2634SOL    HW112840   7.674   3.028   3.987  0.2128  0.9184 -1.4918
 2634SOL    HW212841   7.615   2.888   3.995 -0.5852  1.3567  1.6540
 2635SOL     OW12842   9.552   9.989   2.162  0.1498  0.0651 -0.0502
 2635SOL    HW112843   9.520   9.943   2.085  0.4038 -1.1037  0.5106
 2635SOL    HW212844   9.530  10.081   2.147 -0.8879 -0.3116 -0.9523
 2636SOL     OW12845   0.526   1.812   4.499  0.2776  0.7202  0.4427
 2636SOL    HW112846   0.487   1.763   4.426  1.6283  1.8270 -1.0909
 2636SOL    HW212847   0.489   1.771   4.577  0.3552 -1.8911 -0.7714
 2637SOL     OW12848   0.207   9.406   3.743 -0.3160  0.3876  0.0363
 2637SOL    HW112849   0.269   9.443   3.805  0.5241  2.1838 -1.7795
 2637SOL    HW212850   0.261   9.359   3.679 -0.8004  1.6015 -1.3156
 2638SOL     OW12851   3.477   1.243   9.654  0.1792 -0.3001  0.7316
 2638SOL    HW112852   3.457   1.336   9.662  2.4939  0.4880 -1.3941
 2638SOL    HW212853   3.516   1.219   9.738 -1.3124  0.3460  1.6419
 2639SOL     OW12854  11.473   6.152   5.378 -0.4308 -0.0380  0.0672
 2639SOL    HW112855  11.427   6.129   5.459 -1.3667 -0.1330 -0.4760
 2639SOL    HW212856  11.404   6.184   5.320  0.3932  1.1176 -0.3051
 2640SOL     OW12857   1.908   2.708   0.814  0.8248 -0.1364  0.3875
 2640SOL    HW112858   1.867   2.737   0.896  0.1461 -0.5541  0.2032
 2640SOL    HW212859   1.907   2.612   0.820  0.1106 -0.1907 -0.4199
 2641SOL     OW12860   1.012   7.230   1.440 -0.0323  0.1630 -0.4362
 2641SOL    HW112861   0.959   7.260   1.365 -0.2916  0.5405 -0.1039
 2641SOL    HW212862   1.083   7.294   1.447 -0.9615  1.1099  0.6889
 2642SOL     OW12863   0.334   6.105   0.864  0.4602 -0.0568  0.2445
 2642SOL    HW112864   0.263   6.067   0.917 -0.4871  0.6363 -0.4987
 2642SOL    HW212865   0.370   6.030   0.816  0.4445 -0.4669  0.8562
 2643SOL     OW12866   8.029   1.330   3.458 -0.5741  0.4895  0.0294
 2643SOL    HW112867   8.096   1.285   3.405 -1.0211  1.7031 -1.6327
 2643SOL    HW212868   7.952   1.273   3.451 -0.2730  0.0318  0.3885
 2644SOL     OW12869   1.594   6.076   7.314  0.2844  0.4768 -0.1116
 2644SOL    HW112870   1.499   6.083   7.307  0.3050  1.2465  0.2557
 2644SOL    HW212871   1.610   5.982   7.327 -0.4119  0.3259 -0.2736
 2645SOL     OW12872   0.858  10.291   6.232  0.3976 -0.5495 -0.0540
 2645SOL    HW112873   0.779  10.321   6.277  0.0443 -0.9992 -0.3591
 2645SOL    HW212874   0.826  10.250   6.151  1.0933  1.3336 -1.3591
 2646SOL     OW12875   6.356   6.306   2.594  0.1364 -0.3073 -0.3379
 2646SOL    HW112876   6.262   6.292   2.607  0.2532  1.2720  3.7805
 2646SOL    HW212877   6.397   6.224   2.621  0.0262 -0.6996 -1.3127
 2647SOL     OW12878   5.881   3.515  10.169  0.6218  0.2308  0.2523
 2647SOL    HW112879   5.892   3.607  10.148  0.1724  0.5421  1.2954
 2647SOL    HW212880   5.831   3.515  10.251  3.0521 -0.8516  1.8386
 2648SOL     OW12881   1.192   0.729  11.396 -0.1319 -0.2559 -0.9791
 2648SOL    HW112882   1.276   0.774  11.390  1.2157 -2.6198 -1.2543
 2648SOL    HW212883   1.186   0.680  11.313 -2.7622  1.3846 -1.8528
 2649SOL     OW12884   4.224   8.553   1.385  0.4373 -0.5578 -0.0477
 2649SOL    HW112885   4.215   8.460   1.367 -0.6955 -0.8176  1.5908
 2649SOL    HW212886   4.255   8.557   1.476 -1.4175  0.6353  0.5907
 2650SOL     OW12887   2.276   1.740   5.391  0.1693 -0.1022  0.0703
 2650SOL    HW112888   2.268   1.802   5.463 -2.1542 -0.6819  0.3985
 2650SOL    HW212889   2.341   1.677   5.421 -0.6536 -0.2613  1.6604
 2651SOL     OW12890   0.792   7.202   6.798 -0.2792 -0.0512  0.1388
 2651SOL    HW112891   0.863   7.252   6.838 -0.1722  0.2952 -0.4750
 2651SOL    HW212892   0.713   7.240   6.836 -0.1107 -1.4461  1.9845
 2652SOL     OW12893   6.172  10.629  10.077 -0.0876 -0.7917  0.5192
 2652SOL    HW112894   6.235  10.608  10.008 -1.1542  0.0860 -0.7653
 2652SOL    HW212895   6.102  10.565  10.065  0.1397 -1.2224  1.4010
 2653SOL     OW12896   7.620   2.597   0.472 -0.5472  0.0820  0.1713
 2653SOL    HW112897   7.580   2.620   0.556 -2.3403  0.0605 -0.6157
 2653SOL    HW212898   7.637   2.503   0.478 -0.9010  0.0329  0.4402
 2654SOL     OW12899  10.017   1.986   6.409 -0.4798 -0.1559 -0.1474
 2654SOL    HW112900   9.924   1.993   6.386 -0.5058  0.7595  0.1828
 2654SOL    HW212901  10.058   1.946   6.333 -1.0268  0.1420 -0.6093
 2655SOL     OW12902  10.361   7.393   6.122  0.3036 -0.5912 -0.1516
 2655SOL    HW112903  10.272   7.362   6.138  0.0686 -0.1594 -0.6083
 2655SOL    HW212904  10.402   7.396   6.209 -0.6578  0.8211  0.2838
 2656SOL     OW12905  10.780   8.260   2.384 -0.2067 -0.2627 -0.1222
 2656SOL    HW112906  10.712   8.325   2.366 -1.4530 -1.4935 -0.0722
 2656SOL    HW212907  10.799   8.270   2.477  0.9629  1.2415 -0.4958
 2657SOL     OW12908   9.192   7.919   9.843  0.0965  0.1989 -0.4112
 2657SOL    HW112909   9.170   7.829   9.871  0.5627  0.1791 -0.0896
 2657SOL    HW212910   9.265   7.944   9.900  0.7352  0.3541 -1.2775
 2658SOL     OW12911   0.413   0.851   7.804  0.0871  0.1969 -0.4153
 2658SOL    HW112912   0.458   0.885   7.881 -0.7116  0.5286 -0.0877
 2658SOL    HW212913   0.411   0.925   7.743 -0.7294  0.4326 -0.1097
 2659SOL     OW12914   7.031   8.843  10.601  0.1588  0.3335  0.6441
 2659SOL    HW112915   7.125   8.830  10.595 -0.0156 -1.9251  1.6163
 2659SOL    HW212916   7.017   8.934  10.574  2.1547 -0.3041 -3.2393
 2660SOL     OW12917   3.166   6.337   7.294  0.6562 -0.1131  0.6240
 2660SOL    HW112918   3.176   6.428   7.267 -2.5265  0.3699  0.7216
 2660SOL    HW212919   3.181   6.286   7.214  1.9866  0.4903  0.4678
 2661SOL     OW12920   8.656   8.535   5.842 -0.1139  0.3696  0.1676
 2661SOL    HW112921   8.568   8.518   5.876  0.2148 -0.2383  0.7287
 2661SOL    HW212922   8.656   8.497   5.754 -0.2991  0.0503  0.3051
 2662SOL     OW12923   3.554   4.733   2.151  0.2357  0.0076 -0.0465
 2662SOL    HW112924   3.565   4.640   2.168  0.9205 -0.2440 -1.7266
 2662SOL    HW212925   3.470   4.740   2.105 -0.8947  0.5149  1.9652
 2663SOL     OW12926   0.246   3.195   9.589  0.2220 -0.1119 -0.0769
 2663SOL    HW112927   0.342   3.194   9.589  0.2347 -0.1146 -1.0142
 2663SOL    HW212928   0.223   3.214   9.498 -0.6907 -2.0093 -0.2876
 2664SOL     OW12929   8.124   3.031   5.789 -0.0263  0.2125  0.0279
 2664SOL    HW112930   8.168   2.950   5.762  1.0792  0.7386  0.2219
 2664SOL    HW212931   8.172   3.101   5.745 -0.6122  0.8105  0.3177
 2665SOL     OW12932   4.804   4.646   8.024 -0.4523  0.6060 -0.6583
 2665SOL    HW112933   4.733   4.708   8.008 -0.0378  2.4021  3.2270
 2665SOL    HW212934   4.883   4.700   8.021  0.1908 -0.2524  0.2985
 2666SOL     OW12935   7.763   1.238  11.678 -0.6377  0.6257  0.2616
 2666SOL    HW112936   7.786   1.247  11.586 -2.9816  0.0834 -0.4367
 2666SOL    HW212937   7.679   1.284  11.687 -0.3041  0.9712  2.2142
 2667SOL     OW12938   8.103   1.277   9.032  0.6850 -0.0925  0.3917
 2667SOL    HW112939   8.079   1.361   9.071  0.2620  0.9080 -1.8970
 2667SOL    HW212940   8.026   1.221   9.045  0.5280  0.2335  0.8791
 2668SOL     OW12941   9.947   4.630   4.608 -0.2423  0.0910  0.1084
 2668SOL    HW112942   9.922   4.706   4.660 -0.1524 -0.9076  1.6902
 2668SOL    HW212943   9.919   4.651   4.519  0.1444  2.1096  0.4275
 2669SOL     OW12944   3.886   9.955   1.075  0.5254  0.0799  0.8437
 2669SOL    HW112945   3.817   9.957   1.142 -0.0780  0.8981  0.2114
 2669SOL    HW212946   3.889   9.863   1.048 -1.2821  0.2557 -0.0808
 2670SOL     OW12947   3.207   8.700   5.662  0.7163 -0.1499  0.3132
 2670SOL    HW112948   3.171   8.619   5.626 -1.3868  1.4308 -1.3550
 2670SOL    HW212949   3.144   8.727   5.729  1.2580  0.2674  0.6654
 2671SOL     OW12950   0.072   6.578   0.020 -0.1835 -0.3905 -0.0799
 2671SOL    HW112951   0.154   6.624   0.038 -0.8502  0.5250  0.7184
 2671SOL    HW212952   0.027   6.635  -0.043 -0.4799 -0.5685 -0.0302
 2672SOL     OW12953   9.143   1.573   6.413  0.4333 -0.7849  0.1832
 2672SOL    HW112954   9.069   1.522   6.447 -0.5609  0.7559  0.4522
 2672SOL    HW212955   9.213   1.509   6.401 -0.8699 -2.2630  0.1222
 2673SOL     OW12956   2.318   3.557   5.211 -0.3130 -0.3268  0.1714
 2673SOL    HW112957   2.350   3.512   5.132 -2.1914  0.7764 -1.2973
 2673SOL    HW212958   2.393   3.610   5.240  0.2249 -0.2543 -1.2602
 2674SOL     OW12959   0.939   9.453   4.560 -0.4849 -0.1734  0.4973
 2674SOL    HW112960   0.979   9.377   4.520  1.4325  1.0013  0.0631
 2674SOL    HW212961   0.940   9.520   4.492  1.0217  1.2591  1.8450
 2675SOL     OW12962  10.678  10.214   5.145  0.3712  0.1096  0.1489
 2675SOL    HW112963  10.726  10.143   5.187 -0.1602 -0.3002  0.0740
 2675SOL    HW212964  10.711  10.215   5.055 -0.3163 -0.6936 -0.1232
 2676SOL     OW12965   1.585   8.707   9.749  0.0803  0.1782  0.9622
 2676SOL    HW112966   1.640   8.696   9.671  0.1527 -0.2185  1.0662
 2676SOL    HW212967   1.514   8.765   9.720 -0.9090 -1.4019  0.0686
 2677SOL     OW12968   2.715   4.800   2.157 -0.2015  0.3392 -0.1804
 2677SOL    HW112969   2.679   4.713   2.175  1.2057 -0.3669 -0.6614
 2677SOL    HW212970   2.741   4.797   2.065  0.2935  1.1114 -0.0736
 2678SOL     OW12971   4.861   3.153   1.599  0.2272 -0.3605 -0.6784
 2678SOL    HW112972   4.828   3.064   1.612  0.6190 -0.4509 -0.2829
 2678SOL    HW212973   4.795   3.210   1.640  1.2735 -0.6219  1.4791
 2679SOL     OW12974   3.607   7.673  11.484  0.3707 -0.2869  0.5912
 2679SOL    HW112975   3.534   7.617  11.510 -0.3866  0.1928 -0.4492
 2679SOL    HW212976   3.570   7.761  11.484  0.8719 -0.0715 -0.2535
 2680SOL     OW12977   2.297  11.678   8.727 -0.2482 -0.3325 -0.1917
 2680SOL    HW112978   2.344  11.603   8.689  1.0396  0.7929 -0.9032
 2680SOL    HW212979   2.285  11.738   8.653 -0.6141  0.4760  0.5155
 2681SOL     OW12980   8.102   5.849   2.532  0.2111 -0.1223 -0.4808
 2681SOL    HW112981   8.018   5.851   2.487  0.5859 -3.5681 -1.6696
 2681SOL    HW212982   8.160   5.901   2.477 -0.8998  1.5475 -0.1237
 2682SOL     OW12983   6.905   2.274   7.595 -0.4227 -0.2052  0.4346
 2682SOL    HW112984   6.995   2.244   7.609  0.5307  0.8962 -2.6515
 2682SOL    HW212985   6.867   2.209   7.537 -1.7497 -0.7718  1.8846
 2683SOL     OW12986   5.062   5.744   3.918 -0.0717  0.2455 -0.3173
 2683SOL    HW112987   5.154   5.717   3.916 -0.1345 -0.0354  0.2972
 2683SOL    HW212988   5.032   5.719   4.006 -0.2129  2.0641  0.1869
 2684SOL     OW12989   3.579   3.386   2.453  0.2418  0.0239 -0.8884
 2684SOL    HW112990   3.507   3.418   2.509  0.2552 -0.1163 -0.7901
 2684SOL    HW212991   3.600   3.461   2.397  0.3381  0.2200 -0.5941
 2685SOL     OW12992   0.547   0.332  10.284  0.0367  0.2437 -0.3932
 2685SOL    HW112993   0.633   0.311  10.247 -0.8185 -0.0733 -2.3308
 2685SOL    HW212994   0.498   0.250  10.280 -0.3846  0.4224  0.6918
 2686SOL     OW12995   5.084   3.379   0.196 -0.5942  0.0031  0.1819
 2686SOL    HW112996   5.151   3.420   0.250  0.1581  0.6393 -1.1561
 2686SOL    HW212997   5.133   3.322   0.136 -1.0600  1.3666 -1.6087
 2687SOL     OW12998   1.540   1.128  11.376 -0.0842 -0.2971 -0.0532
 2687SOL    HW112999   1.566   1.036  11.377  0.9978 -0.0088  0.0438
 2687SOL    HW213000   1.605   1.171  11.320  0.5290  0.7031  1.3646
 2688SOL     OW13001   2.187   2.694   9.089  0.5879 -0.0306  0.0263
 2688SOL    HW113002   2.113   2.747   9.119  1.0168  1.1300 -0.8841
 2688SOL    HW213003   2.222   2.654   9.169 -1.3817 -1.1237  0.4090
 2689SOL     OW13004   0.952   2.929   8.590 -0.1065 -0.0794  0.4342
 2689SOL    HW113005   1.042   2.916   8.618  0.0912  0.6592  0.1547
 2689SOL    HW213006   0.899   2.899   8.665  0.3051 -2.0346  0.0006
 2690SOL     OW13007   4.134   1.870   9.694  0.6498  0.9189  0.8936
 2690SOL    HW113008   4.167   1.875   9.784  0.7055 -1.0039  1.0132
 2690SOL    HW213009   4.191   1.806   9.651 -1.6289 -1.0264  0.5547
 2691SOL     OW13010   0.811   7.969   0.162 -0.5186 -0.1250 -0.2884
 2691SOL    HW113011   0.803   7.959   0.257  2.9653  3.1652  0.6206
 2691SOL    HW213012   0.861   7.893   0.134 -0.0360 -0.2557  0.8712
 2692SOL     OW13013   6.894   4.510   6.258  0.0401  0.1983 -0.2832
 2692SOL    HW113014   6.802   4.487   6.274  0.8688 -2.0785  1.8400
 2692SOL    HW213015   6.914   4.471   6.172 -1.0869  1.2333 -1.0466
 2693SOL     OW13016   6.441  10.475  11.566 -0.0204 -0.1335  0.0792
 2693SOL    HW113017   6.468  10.457  11.656 -2.0807 -0.4724  0.6910
 2693SOL    HW213018   6.407  10.391  11.534 -0.7994  0.3596 -0.4263
 2694SOL     OW13019   8.194   5.953   5.033  0.2245  0.8784  0.2874
 2694SOL    HW113020   8.195   6.049   5.039 -1.2195  0.8548  1.4491
 2694SOL    HW213021   8.227   5.923   5.118 -2.6066  0.4146  1.3422
 2695SOL     OW13022   3.636   5.809   3.816 -0.0270  0.6373 -0.5845
 2695SOL    HW113023   3.661   5.805   3.723 -0.6565 -0.2084 -0.7315
 2695SOL    HW213024   3.541   5.801   3.815  0.0123 -0.1220  0.1653
 2696SOL     OW13025   5.278   4.072   5.654 -0.0616  0.2023  0.3675
 2696SOL    HW113026   5.214   4.131   5.615 -0.3201  0.1918  0.7667
 2696SOL    HW213027   5.308   4.017   5.582  0.6935  1.2677 -0.1660
 2697SOL     OW13028   5.764   8.011   3.765  0.0515 -0.3311  0.3906
 2697SOL    HW113029   5.726   8.077   3.707 -0.7465  0.1532  1.4283
 2697SOL    HW213030   5.712   7.932   3.749  1.5048 -0.9828 -1.4208
 2698SOL     OW13031   7.697   3.691  11.443 -0.4597 -0.4496 -0.7532
 2698SOL    HW113032   7.726   3.607  11.406  0.2621  0.3359 -2.0385
 2698SOL    HW213033   7.663   3.739  11.367  1.8008  1.5442 -0.5921
 2699SOL     OW13034   7.513   2.340  10.408 -0.0776  0.5402  0.6770
 2699SOL    HW113035   7.460   2.344  10.488  0.5086  0.0033  1.0951
 2699SOL    HW213036   7.499   2.251  10.375 -2.1738  1.4451 -1.1134
 2700SOL     OW13037  10.725   6.254   0.284 -0.7697  0.0300 -0.3487
 2700SOL    HW113038  10.692   6.309   0.355  1.3047 -0.5864  1.1955
 2700SOL    HW213039  10.732   6.167   0.323  0.9005 -0.2142 -1.1264
 2701SOL     OW13040   1.581   9.135   8.621 -0.0232  0.4473  0.6638
 2701SOL    HW113041   1.671   9.146   8.591  0.5725  2.4013  2.8393
 2701SOL    HW213042   1.548   9.225   8.631 -1.6185 -0.1856  1.5030
 2702SOL     OW13043   0.936   4.546  11.156  0.0245  0.5115 -0.0083
 2702SOL    HW113044   0.970   4.626  11.115  1.1568  0.5695  0.9708
 2702SOL    HW213045   0.933   4.568  11.249 -0.1923 -0.4023  0.2034
 2703SOL     OW13046   4.784   4.489   0.652 -0.2598  0.0769  0.5267
 2703SOL    HW113047   4.805   4.570   0.698 -2.9592  1.8384 -1.0435
 2703SOL    HW213048   4.868   4.444   0.643  1.1739  2.1407  2.4505
 2704SOL     OW13049   9.485   7.573  10.201  0.1907 -0.3156 -0.1536
 2704SOL    HW113050   9.562   7.527  10.234  0.3578  0.4443  0.5842
 2704SOL    HW213051   9.500   7.581  10.107  2.1511  1.7657  0.2355
 2705SOL     OW13052   8.945   4.672   1.070  0.2019 -0.0089 -0.0805
 2705SOL    HW113053   9.032   4.631   1.074 -0.4173 -1.3667 -0.0375
 2705SOL    HW213054   8.918   4.664   0.979 -0.4328 -0.8221  0.1661
 2706SOL     OW13055   6.357   5.624   5.113  0.3909  0.0095 -0.0546
 2706SOL    HW113056   6.407   5.705   5.123  0.7842 -0.2638  0.2319
 2706SOL    HW213057   6.303   5.619   5.192  1.0302 -0.4569  0.3637
 2707SOL     OW13058   6.711   3.204   5.641  0.4070 -0.3686  0.0722
 2707SOL    HW113059   6.778   3.217   5.708  0.6674 -3.4257  0.5508
 2707SOL    HW213060   6.628   3.208   5.689  0.2305  2.3601 -0.3427
 2708SOL     OW13061   6.196  10.610   0.005  0.3487  0.1937 -0.1600
 2708SOL    HW113062   6.121  10.664  -0.018  0.6995  1.1046  0.7663
 2708SOL    HW213063   6.245  10.600  -0.077 -1.2386 -1.1932 -0.9809
 2709SOL     OW13064   3.814   7.660   0.193 -0.3041  0.3737 -0.2413
 2709SOL    HW113065   3.755   7.589   0.218  2.1210 -2.0635 -1.0258
 2709SOL    HW213066   3.772   7.739   0.227 -3.2565 -1.3651  0.4578
 2710SOL     OW13067   7.900  10.429   2.065 -0.2457  0.2555  0.4163
 2710SOL    HW113068   7.896  10.476   1.981  0.7690  1.1311  0.8276
 2710SOL    HW213069   7.963  10.358   2.049  0.4626  0.8248  0.6028
 2711SOL     OW13070   9.006   0.207  10.620  0.1780 -0.8834  0.2014
 2711SOL    HW113071   9.072   0.258  10.573 -0.4249 -0.5196 -0.2731
 2711SOL    HW213072   9.056   0.147  10.675  0.8997 -0.5030 -0.0301
 2712SOL     OW13073  10.880   7.151   3.066 -0.2088 -0.6328 -0.0438
 2712SOL    HW113074  10.862   7.148   2.972  1.2484 -0.6852 -0.3504
 2712SOL    HW213075  10.815   7.211   3.102 -0.7782 -0.6175 -1.0899
 2713SOL     OW13076   6.606   7.495   9.330  0.1204 -0.3383 -0.0243
 2713SOL    HW113077   6.585   7.584   9.304 -1.5369 -0.4661  0.7626
 2713SOL    HW213078   6.693   7.501   9.368  0.3933  0.7667 -0.7680
 2714SOL     OW13079  11.140   6.688  11.360  0.3448  0.2332  0.8520
 2714SOL    HW113080  11.209   6.624  11.342  0.2860 -0.4320  2.8012
 2714SOL    HW213081  11.106   6.712  11.274  2.3707 -0.1189 -0.0941
 2715SOL     OW13082   6.069   5.028   0.821 -0.5834 -0.0075  0.1041
 2715SOL    HW113083   6.007   5.097   0.843 -1.5412 -0.3058 -1.4516
 2715SOL    HW213084   6.077   4.976   0.901 -2.2769  0.0957  0.3706
 2716SOL     OW13085   6.725   1.132   6.988  0.6645  0.6337  0.4349
 2716SOL    HW113086   6.803   1.186   6.992  0.8857  0.3641 -0.1970
 2716SOL    HW213087   6.683   1.155   6.905  0.7901 -0.1940  0.1293
 2717SOL     OW13088   6.860   6.733   4.330  0.8064 -0.0305 -0.0175
 2717SOL    HW113089   6.919   6.759   4.400 -0.9393  2.1024  0.7626
 2717SOL    HW213090   6.779   6.708   4.375  0.3090 -0.5657 -1.1681
 2718SOL     OW13091   2.023   6.910   8.845 -0.0682  0.0447  0.2299
 2718SOL    HW113092   1.964   6.878   8.914  1.2604  0.4832  1.6234
 2718SOL    HW213093   2.107   6.868   8.864  0.0599 -0.8100 -1.8942
 2719SOL     OW13094  11.325   8.803   1.047  0.0883 -0.7464  0.4821
 2719SOL    HW113095  11.415   8.770   1.056  0.1540 -0.5393  0.5791
 2719SOL    HW213096  11.335   8.889   1.008 -0.0290 -0.4237  1.1573
 2720SOL     OW13097   9.829   4.528   3.151  0.2240 -0.2111 -0.2596
 2720SOL    HW113098   9.777   4.464   3.198 -0.2222  0.7964  0.6491
 2720SOL    HW213099   9.920   4.506   3.174  0.5207 -3.3897 -3.6107
 2721SOL     OW13100  11.542  11.263   2.720 -0.3634 -0.1517 -0.0706
 2721SOL    HW113101  11.619  11.313   2.695  0.6175 -0.4417  2.1770
 2721SOL    HW213102  11.576  11.186   2.764 -1.9297 -1.1846 -0.5774
 2722SOL     OW13103   1.680   1.905   3.909 -0.2266  0.1728  0.0089
 2722SOL    HW113104   1.720   1.947   3.832  0.7188  0.0628  0.4189
 2722SOL    HW213105   1.639   1.826   3.874  0.5804 -0.1088 -0.3282
 2723SOL     OW13106   2.532   0.513   5.418 -0.0617  0.1069 -0.3292
 2723SOL    HW113107   2.437   0.500   5.408 -0.3403  1.4623  0.3406
 2723SOL    HW213108   2.542   0.607   5.430  0.9978 -0.3276  3.3865
 2724SOL     OW13109  11.422   4.904  10.894  0.3458  0.2652 -0.3172
 2724SOL    HW113110  11.381   4.959  10.962 -2.7424 -1.3741 -0.6810
 2724SOL    HW213111  11.406   4.951  10.812 -0.1157  0.0063 -0.3773
 2725SOL     OW13112   7.869   3.047   6.367  0.5316 -0.2092 -0.0995
 2725SOL    HW113113   7.821   3.074   6.444  0.7535 -0.8357  0.2700
 2725SOL    HW213114   7.956   3.085   6.377  1.3891 -2.3423  1.2591
 2726SOL     OW13115   4.643  10.568   4.271 -0.0238  0.0687 -0.3135
 2726SOL    HW113116   4.672  10.655   4.243  0.5621 -0.2867 -0.8426
 2726SOL    HW213117   4.571  10.585   4.332 -0.4164  0.8945 -0.9895
 2727SOL     OW13118   4.114   1.458   9.322 -0.3285 -0.2293  0.1011
 2727SOL    HW113119   4.064   1.524   9.274  0.1757  0.1678  0.1132
 2727SOL    HW213120   4.085   1.374   9.284 -0.2326  0.0529 -0.6121
 2728SOL     OW13121  10.472   5.873   2.715 -0.3285 -0.0930 -0.1701
 2728SOL    HW113122  10.534   5.801   2.706  2.4410  2.0976  0.0344
 2728SOL    HW213123  10.407   5.859   2.647  0.8751 -2.0455 -0.9693
 2729SOL     OW13124   6.476   0.831  10.392 -0.2711  0.1006 -0.1304
 2729SOL    HW113125   6.428   0.752  10.368 -1.3704  1.3971 -2.5107
 2729SOL    HW213126   6.416   0.881  10.446  0.2001 -0.3708  0.8577
 2730SOL     OW13127   6.267   3.583   8.775  0.6771 -0.2281  0.2144
 2730SOL    HW113128   6.201   3.535   8.825  0.6233 -1.3787 -0.8987
 2730SOL    HW213129   6.304   3.517   8.715  2.4622  0.5023  0.4425
 2731SOL     OW13130   2.370   2.218  10.498  0.1179 -0.0283  0.1727
 2731SOL    HW113131   2.387   2.264  10.581  0.6405  0.0982 -0.0041
 2731SOL    HW213132   2.352   2.288  10.435 -0.3831 -0.1298  0.1989
 2732SOL     OW13133   0.357  11.161  10.609 -0.3369  0.5857  0.5236
 2732SOL    HW113134   0.331  11.072  10.585  0.1201  0.4253  0.6068
 2732SOL    HW213135   0.428  11.148  10.672  0.0248  1.0092  0.2082
 2733SOL     OW13136  10.092  10.483   7.102  0.4606 -0.2011 -0.3349
 2733SOL    HW113137  10.040  10.544   7.049  0.6885  0.1601 -0.1485
 2733SOL    HW213138  10.145  10.540   7.158  0.1830 -0.5807  0.3203
 2734SOL     OW13139   0.037   6.698   6.330  0.1261 -0.1085 -0.1878
 2734SOL    HW113140   0.129   6.725   6.327  0.1308  0.0457  1.0385
 2734SOL    HW213141  -0.006   6.756   6.267  0.5186  1.3294  0.8015
 2735SOL     OW13142   8.290   9.909   9.105 -0.3769  0.3366 -0.4791
 2735SOL    HW113143   8.213   9.895   9.051  0.0114 -0.0322 -0.9518
 2735SOL    HW213144   8.352   9.954   9.048  0.9002 -2.0669 -1.1266
 2736SOL     OW13145   0.117   6.642   7.511  0.0222 -0.3073 -0.0145
 2736SOL    HW113146   0.175   6.573   7.479  1.0307  0.4755  0.0923
 2736SOL    HW213147   0.131   6.715   7.452 -1.5907 -0.4169 -0.5707
 2737SOL     OW13148   2.251   8.403   2.729  0.1302  0.1832  0.2706
 2737SOL    HW113149   2.314   8.370   2.665  1.3325  2.0826  0.4071
 2737SOL    HW213150   2.280   8.366   2.812 -1.1369 -1.8823 -0.1507
 2738SOL     OW13151  11.386   1.647   2.965  0.3031  0.2422  0.5135
 2738SOL    HW113152  11.469   1.671   3.006  1.4848  1.6644 -2.3645
 2738SOL    HW213153  11.345   1.730   2.943 -0.4217 -0.4137 -0.7502
 2739SOL     OW13154   9.507   8.158   9.911  0.1402  0.0260 -0.0687
 2739SOL    HW113155   9.551   8.242   9.896 -1.6690  1.5544  2.3780
 2739SOL    HW213156   9.434   8.158   9.848 -0.5662  0.9252  0.7072
 2740SOL     OW13157   7.699   5.620   5.168  0.0729 -0.5996  0.0134
 2740SOL    HW113158   7.776   5.673   5.148  0.4662 -0.9685  0.5558
 2740SOL    HW213159   7.639   5.637   5.094  0.4788  0.0401 -0.1761
 2741SOL     OW13160   2.729   5.631   7.631 -0.3201  0.1394 -0.0334
 2741SOL    HW113161   2.651   5.608   7.681 -1.1670  1.5799 -0.6565
 2741SOL    HW213162   2.699   5.694   7.566  1.4010  0.9275 -0.1294
 2742SOL     OW13163   0.908   1.799   0.102 -1.0192  0.4954  0.4995
 2742SOL    HW113164   0.924   1.753   0.185 -2.0132 -0.5675  0.1348
 2742SOL    HW213165   0.816   1.781   0.083 -1.3616  2.4249  0.1810
 2743SOL     OW13166   2.408   4.657   2.255 -0.1173  0.7151  0.0238
 2743SOL    HW113167   2.344   4.595   2.291  1.4312 -1.0480 -0.1466
 2743SOL    HW213168   2.398   4.735   2.309 -2.4870  0.5695 -0.0787
 2744SOL     OW13169   7.536   7.950   1.313 -0.5282  0.2858  0.0673
 2744SOL    HW113170   7.449   7.988   1.327 -0.4293  0.8731 -0.8528
 2744SOL    HW213171   7.580   7.959   1.398 -1.4960 -0.4044  0.6626
 2745SOL     OW13172   5.418   5.361   0.872  0.1270 -0.1749  0.0308
 2745SOL    HW113173   5.512   5.371   0.856  0.2141  1.0602  1.1124
 2745SOL    HW213174   5.410   5.360   0.968 -0.9487 -0.4364 -0.0458
 2746SOL     OW13175   9.385   2.441   3.966 -0.4249 -0.1468 -0.8763
 2746SOL    HW113176   9.480   2.428   3.970 -0.5598 -1.1102 -0.3024
 2746SOL    HW213177   9.364   2.487   4.047 -0.6535 -1.5876 -0.0773
 2747SOL     OW13178   4.848   9.495   3.632  0.1034  0.3842  0.1438
 2747SOL    HW113179   4.900   9.467   3.706  1.2779 -1.4097 -1.2770
 2747SOL    HW213180   4.905   9.554   3.583  0.4831 -0.8310 -0.9123
 2748SOL     OW13181   4.421   1.315   8.048 -0.1893 -0.1075  0.5836
 2748SOL    HW113182   4.481   1.305   8.122  0.1214 -1.3339  0.1927
 2748SOL    HW213183   4.466   1.273   7.975 -1.2277 -0.4570  0.1288
 2749SOL     OW13184   3.079  10.726   9.899  0.1309  0.2311  0.0462
 2749SOL    HW113185   3.129  10.646   9.882 -0.9271 -0.0215 -2.2717
 2749SOL    HW213186   2.991  10.707   9.864 -0.3350  2.1610  0.0664
 2750SOL     OW13187   6.581  11.318   8.759  0.4621 -0.1345 -0.4565
 2750SOL    HW113188   6.592  11.226   8.783  0.2640 -0.2150 -0.6694
 2750SOL    HW213189   6.526  11.355   8.828  1.9535  0.2511  0.5731
 2751SOL     OW13190   6.961   8.334   2.012 -0.1963  0.5103 -0.1335
 2751SOL    HW113191   6.921   8.418   1.990  0.6771  1.1064  0.5077
 2751SOL    HW213192   6.907   8.269   1.966 -0.9290  1.4063 -0.5672
 2752SOL     OW13193   3.367   6.660   4.698 -0.3834  0.0432 -0.1846
 2752SOL    HW113194   3.400   6.571   4.714 -0.6509  0.0185  0.2386
 2752SOL    HW213195   3.395   6.680   4.608 -0.7613 -0.6669 -0.4648
 2753SOL     OW13196   5.746   2.111   5.409 -0.2211 -0.1193  0.1607
 2753SOL    HW113197   5.831   2.154   5.417  0.4401 -1.1739 -0.9116
 2753SOL    HW213198   5.754   2.055   5.331 -1.6333 -0.8264  0.4842
 2754SOL     OW13199   5.423  11.206   9.459 -0.2995 -0.2849 -0.2976
 2754SOL    HW113200   5.375  11.268   9.404 -1.7514 -0.4873  0.6528
 2754SOL    HW213201   5.515  11.222   9.440 -0.6800  1.4286 -0.8619
 2755SOL     OW13202   8.608   2.912   3.740 -0.0726 -0.6142 -0.1273
 2755SOL    HW113203   8.682   2.973   3.733 -1.7457  1.3629 -1.6986
 2755SOL    HW213204   8.574   2.905   3.651 -2.8904  0.0181  0.8022
 2756SOL     OW13205  10.846  10.834   7.264  0.4935  0.2920 -0.0126
 2756SOL    HW113206  10.807  10.918   7.237  2.0799  0.7653 -0.9347
 2756SOL    HW213207  10.770  10.777   7.279 -0.5856  1.3893 -1.0031
 2757SOL     OW13208   6.157   9.431   2.695 -0.3362  0.2821  0.7867
 2757SOL    HW113209   6.204   9.387   2.766 -0.5200 -1.8734 -0.3204
 2757SOL    HW213210   6.072   9.453   2.733 -0.0716  0.0666  1.5230
 2758SOL     OW13211   1.285   7.610  11.672  0.5110 -0.1361  0.1500
 2758SOL    HW113212   1.210   7.552  11.658  0.3614 -0.0125  0.4456
 2758SOL    HW213213   1.355   7.552  11.702  0.4918 -0.2285  0.0171
 2759SOL     OW13214   5.155   7.571   0.950 -0.3136 -0.4879 -0.2223
 2759SOL    HW113215   5.210   7.593   0.875 -0.7442 -0.0701 -0.4179
 2759SOL    HW213216   5.197   7.493   0.988 -0.2800 -0.9054 -1.0850
 2760SOL     OW13217   3.595   0.173   6.818  0.5612  0.1780  0.3589
 2760SOL    HW113218   3.684   0.168   6.851  0.7516  0.5299 -0.0907
 2760SOL    HW213219   3.540   0.164   6.896  0.9915  0.2109  0.6676
 2761SOL     OW13220   7.759   2.902   2.775  0.0897  0.2915 -0.0581
 2761SOL    HW113221   7.674   2.908   2.732  0.5218 -2.0683 -1.4576
 2761SOL    HW213222   7.747   2.835   2.843  0.6303  0.4622  0.2131
 2762SOL     OW13223   2.673   7.028   2.358 -0.0092 -0.2298  0.2003
 2762SOL    HW113224   2.657   7.109   2.310  0.0572 -1.2918 -1.6912
 2762SOL    HW213225   2.742   6.984   2.309  1.6389 -0.4040  2.5197
 2763SOL     OW13226   0.724   5.389   5.358  0.9561  0.7190 -0.1817
 2763SOL    HW113227   0.653   5.369   5.419  0.6850  1.4918 -0.2236
 2763SOL    HW213228   0.749   5.305   5.321  0.1541  0.4210 -0.0615
 2764SOL     OW13229   4.806  11.095  11.570 -0.0376  0.0831 -0.5857
 2764SOL    HW113230   4.734  11.045  11.610 -1.6204  2.2752 -0.5257
 2764SOL    HW213231   4.847  11.139  11.644  1.1826 -0.8490 -0.6737
 2765SOL     OW13232   6.111   3.535   2.828  0.1687  0.6468 -0.3934
 2765SOL    HW113233   6.025   3.550   2.789  0.4776 -0.1119 -1.3993
 2765SOL    HW213234   6.166   3.606   2.793 -0.0850  1.2473  0.4049
 2766SOL     OW13235  10.846   1.274  10.280 -0.1932  0.1333  0.7338
 2766SOL    HW113236  10.857   1.367  10.297  2.0736  0.0434 -0.0291
 2766SOL    HW213237  10.753   1.258  10.299 -0.6289  2.5000  0.9298
 2767SOL     OW13238  11.001  10.189   4.990  0.1299 -0.1568  0.5093
 2767SOL    HW113239  11.071  10.179   4.926  2.5029 -3.5935  3.2527
 2767SOL    HW213240  10.954  10.105   4.986 -0.3093 -0.0441  2.4702
 2768SOL     OW13241   5.031   7.756   1.557  0.1102 -0.6104  0.2754
 2768SOL    HW113242   4.938   7.777   1.565  0.3518  0.8256 -0.3716
 2768SOL    HW213243   5.037   7.709   1.474  0.3296  2.0747 -1.3598
 2769SOL     OW13244   7.531  11.105   7.117 -0.0169  0.1497 -0.2092
 2769SOL    HW113245   7.458  11.164   7.095 -0.1921 -0.0284 -0.1166
 2769SOL    HW213246   7.610  11.156   7.100 -0.1636  0.9363  1.2466
 2770SOL     OW13247   5.110   8.967   5.761 -0.3354  0.2344 -0.3866
 2770SOL    HW113248   5.053   8.989   5.835 -2.5118 -0.1237 -1.8550
 2770SOL    HW213249   5.100   8.872   5.751  0.4001  0.1958 -0.8018
 2771SOL     OW13250   8.207   7.114   9.512  0.0962 -0.8615  0.5774
 2771SOL    HW113251   8.120   7.147   9.488  0.4201  0.8031  1.5451
 2771SOL    HW213252   8.248   7.094   9.428 -0.7548 -0.4098  0.0364
 2772SOL     OW13253   0.450   4.498   4.780 -0.0087  0.2912  0.3454
 2772SOL    HW113254   0.436   4.476   4.688  1.9675 -1.7564  0.4401
 2772SOL    HW213255   0.385   4.565   4.800 -1.5408 -0.3781 -2.0957
 2773SOL     OW13256  11.320   3.334   2.471 -0.5764 -0.0914 -0.8984
 2773SOL    HW113257  11.249   3.299   2.524  1.0884 -3.9626 -0.8890
 2773SOL    HW213258  11.376   3.381   2.534 -1.1690 -0.3089 -0.2039
 2774SOL     OW13259   2.491   2.791   7.501  0.4361 -0.0622 -0.5173
 2774SOL    HW113260   2.454   2.823   7.418  0.5192  1.6924  0.0781
 2774SOL    HW213261   2.573   2.840   7.511 -0.3068  0.9055  1.3147
 2775SOL     OW13262   5.729   9.614   4.187 -0.3609  0.0255 -0.4053
 2775SOL    HW113263   5.637   9.622   4.161 -1.1455 -2.0711  1.4254
 2775SOL    HW213264   5.740   9.683   4.253 -0.0884  1.3248 -1.7327
 2776SOL     OW13265   3.472   9.718   5.809 -0.9742  0.4914 -0.4616
 2776SOL    HW113266   3.414   9.718   5.732 -0.8936  1.1437 -0.5336
 2776SOL    HW213267   3.427   9.665   5.873 -1.0058 -0.1345 -0.9897
 2777SOL     OW13268   5.750   5.430   1.085 -0.3935 -0.4728  0.0937
 2777SOL    HW113269   5.840   5.399   1.097  0.1041  0.5917 -0.7635
 2777SOL    HW213270   5.740   5.437   0.990 -0.3464  2.3128  0.2380
 2778SOL     OW13271   4.509  10.272   1.421 -0.3737 -0.0815 -0.1065
 2778SOL    HW113272   4.604  10.271   1.430 -0.3100  1.0338 -0.4943
 2778SOL    HW213273   4.480  10.345   1.476 -0.9344 -0.0001 -0.5010
 2779SOL     OW13274   2.784   4.004   2.739  0.4944  0.3660 -0.2917
 2779SOL    HW113275   2.714   4.036   2.682  0.0158  2.3515  1.2775
 2779SOL    HW213276   2.739   3.961   2.811  0.9529  0.3236 -0.0252
 2780SOL     OW13277   5.998   8.309   4.773  0.4850 -0.1822 -0.4382
 2780SOL    HW113278   5.906   8.288   4.789  0.2326 -0.3637 -1.9889
 2780SOL    HW213279   6.015   8.279   4.684  1.8248  0.6003 -0.4852
 2781SOL     OW13280   9.895   5.876   2.343  0.0007  0.4088  0.4960
 2781SOL    HW113281   9.856   5.926   2.415 -1.7288  0.3724 -0.3695
 2781SOL    HW213282   9.891   5.935   2.268 -0.7157 -0.4957 -0.1944
 2782SOL     OW13283  10.195   6.694   8.248  0.3063  0.0768  1.0735
 2782SOL    HW113284  10.164   6.626   8.308  0.6676  0.5330  1.7892
 2782SOL    HW213285  10.205   6.771   8.303 -0.2181  0.7495  0.2398
 2783SOL     OW13286  10.804   8.732   7.269  0.2237  0.4267 -0.0014
 2783SOL    HW113287  10.757   8.700   7.346 -2.0769  0.5745 -1.2496
 2783SOL    HW213288  10.842   8.815   7.297 -0.3590  0.3517  1.0681
 2784SOL     OW13289   7.279   8.002   1.385 -0.3730  0.2063 -0.0331
 2784SOL    HW113290   7.264   8.094   1.366 -0.8812  0.1086 -0.1494
 2784SOL    HW213291   7.247   7.990   1.474 -0.7872  0.0406 -0.2002
 2785SOL     OW13292  11.557   0.510   8.844  0.2209  0.1001  0.0943
 2785SOL    HW113293  11.617   0.584   8.845 -0.7851  0.9547 -0.5980
 2785SOL    HW213294  11.470   0.549   8.834 -0.4830 -1.0928  1.1728
 2786SOL     OW13295   6.116   4.895  11.280 -0.1773  0.4105  0.4177
 2786SOL    HW113296   6.032   4.876  11.323  0.0389  1.9855  1.6289
 2786SOL    HW213297   6.182   4.881  11.349  0.3135  1.5578  0.1994
 2787SOL     OW13298   3.790   5.604   4.535  0.2164 -0.6323  0.3128
 2787SOL    HW113299   3.819   5.514   4.548 -0.6631 -1.0792 -0.7201
 2787SOL    HW213300   3.783   5.640   4.624  2.1973 -1.0251  0.6874
 2788SOL     OW13301   9.674   2.208   2.186 -0.0591  0.2392 -0.3780
 2788SOL    HW113302   9.749   2.195   2.243  0.5520  0.3026 -1.1502
 2788SOL    HW213303   9.606   2.245   2.243 -0.5956 -2.6701  1.0333
 2789SOL     OW13304   2.738   1.725   5.718  0.4770 -0.2244 -0.1105
 2789SOL    HW113305   2.687   1.719   5.799  1.4468 -0.1792  0.5217
 2789SOL    HW213306   2.765   1.816   5.713  0.8831 -0.3479 -0.1916
 2790SOL     OW13307   7.248  11.657   8.232  0.3035  0.7805 -0.2363
 2790SOL    HW113308   7.278  11.629   8.318  1.1795  0.9258 -0.4849
 2790SOL    HW213309   7.328  11.685   8.187 -0.2099  1.1519 -0.9261
 2791SOL     OW13310   3.387   3.676  10.416  0.0165 -0.2042 -0.0606
 2791SOL    HW113311   3.456   3.624  10.457 -1.5598 -1.3931  1.2820
 2791SOL    HW213312   3.355   3.733  10.486  1.8163  2.8482 -1.5548
 2792SOL     OW13313  11.014   1.740  11.055 -0.0256 -0.1728  0.2820
 2792SOL    HW113314  10.978   1.806  10.997 -0.0532  1.5587  2.1641
 2792SOL    HW213315  10.942   1.679  11.071 -0.8697  0.9317  0.7368
 2793SOL     OW13316  10.265   6.615   4.750  0.0727 -0.1013 -0.3323
 2793SOL    HW113317  10.184   6.620   4.801  0.2923  2.3903 -0.1179
 2793SOL    HW213318  10.334   6.644   4.809  0.6210  0.9382 -1.4229
 2794SOL     OW13319  11.330  11.272   6.015 -0.0122 -0.1125  0.4190
 2794SOL    HW113320  11.325  11.200   5.953  1.4519  0.3825 -0.3133
 2794SOL    HW213321  11.250  11.322   6.000  0.8592  0.7093 -2.0262
 2795SOL     OW13322   3.238   5.040   7.154  0.1104 -0.3547  0.6136
 2795SOL    HW113323   3.307   5.032   7.219 -0.2763  0.3708  1.1265
 2795SOL    HW213324   3.167   5.087   7.199  0.2476  1.1363 -0.6202
 2796SOL     OW13325   8.656   3.235   2.096 -0.1659  0.7543 -0.0274
 2796SOL    HW113326   8.620   3.323   2.101 -2.0904 -0.0548  2.0483
 2796SOL    HW213327   8.584   3.178   2.122  0.9485 -1.4920 -1.5313
 2797SOL     OW13328  11.681   5.339   3.453  0.4065 -0.2342 -0.4778
 2797SOL    HW113329  11.771   5.360   3.428  0.5395 -0.6795 -0.3927
 2797SOL    HW213330  11.654   5.412   3.508  0.3900  0.3567 -1.2534
 2798SOL     OW13331   7.779   9.945  10.332  0.5636  0.3305  0.3126
 2798SOL    HW113332   7.693   9.987  10.332  0.6411  0.5922  1.9676
 2798SOL    HW213333   7.832   9.998  10.272  0.4749  2.2791  1.8378
 2799SOL     OW13334   9.620   3.604  10.985  0.5869  0.1255 -0.6276
 2799SOL    HW113335   9.635   3.686  10.938  0.2335 -0.5943 -2.0399
 2799SOL    HW213336   9.635   3.536  10.919  1.1381 -0.9622  0.5859
 2800SOL     OW13337   9.827  10.922   4.792  0.6681 -0.6342 -0.1821
 2800SOL    HW113338   9.852  10.835   4.824  0.7635 -0.4106  0.3733
 2800SOL    HW213339   9.861  10.982   4.859  0.1786 -0.2052 -0.3147
 2801SOL     OW13340   7.244   3.516   9.216 -0.5002 -0.4100 -0.2297
 2801SOL    HW113341   7.236   3.611   9.204  0.5009 -0.0010  1.8049
 2801SOL    HW213342   7.338   3.502   9.229 -0.7969 -1.4445  0.9590
 2802SOL     OW13343   5.412   8.710   8.983 -0.0216 -0.5996  0.8100
 2802SOL    HW113344   5.386   8.618   8.984  0.0507 -0.6295  2.7687
 2802SOL    HW213345   5.473   8.719   9.056  0.7545  0.8071  0.0406
 2803SOL     OW13346   6.263   4.249   3.090  0.0305  0.0879 -0.2423
 2803SOL    HW113347   6.327   4.303   3.043  1.8942 -1.3813  0.4473
 2803SOL    HW213348   6.238   4.302   3.165  0.7076  0.5743 -0.3436
 2804SOL     OW13349  10.330   2.347   0.054 -0.4658  0.2341  0.4910
 2804SOL    HW113350  10.377   2.430   0.064 -0.8986  0.3160  2.0824
 2804SOL    HW213351  10.351   2.298   0.132 -0.0413 -1.2814 -0.5353
 2805SOL     OW13352   0.158   0.279   8.555  0.8140  0.0218 -0.0509
 2805SOL    HW113353   0.237   0.232   8.583 -0.2876 -1.1047  1.3721
 2805SOL    HW213354   0.150   0.260   8.462  0.0030 -3.4006  0.5854
 2806SOL     OW13355   2.597   8.356   9.817  0.3515  0.2578 -0.0993
 2806SOL    HW113356   2.620   8.266   9.841  0.9480  0.3540 -0.3085
 2806SOL    HW213357   2.674   8.408   9.840  0.6002  0.4878 -1.3643
 2807SOL     OW13358   5.367   2.699   4.223  0.1290 -0.2880 -0.2150
 2807SOL    HW113359   5.406   2.738   4.302 -1.7545  1.7850 -0.2100
 2807SOL    HW213360   5.416   2.736   4.151  0.0184  0.0587 -0.1133
 2808SOL     OW13361   1.548   5.034   1.039  0.0381 -0.1980 -0.0793
 2808SOL    HW113362   1.619   5.032   1.102 -0.0757 -1.4875  0.0241
 2808SOL    HW213363   1.518   5.125   1.040  0.8417  0.0704  0.8086
 2809SOL     OW13364   1.473   0.994   8.066  0.1192  0.3832 -0.0095
 2809SOL    HW113365   1.437   1.066   8.118 -0.3378  0.2806 -0.1820
 2809SOL    HW213366   1.492   0.926   8.130  0.3831  0.5852  0.1326
 2810SOL     OW13367  10.487   4.588  11.231  0.3686  0.1625  0.2775
 2810SOL    HW113368  10.403   4.583  11.186  0.5487  0.7944 -0.1326
 2810SOL    HW213369  10.550   4.609  11.163  0.9688 -0.9316  0.4657
 2811SOL     OW13370   1.893   4.274   0.209 -0.1662  0.2046  0.2872
 2811SOL    HW113371   1.879   4.194   0.260  3.0401 -0.6199  0.1240
 2811SOL    HW213372   1.987   4.292   0.219 -0.4763  3.0496 -1.0218
 2812SOL     OW13373   4.248   3.062   9.106 -0.5699 -0.3783 -0.9003
 2812SOL    HW113374   4.327   3.083   9.056  1.9801  0.3132  2.9629
 2812SOL    HW213375   4.260   2.971   9.132 -1.2505 -0.3891 -0.5926
 2813SOL     OW13376   3.784  11.641  10.697  0.4067  0.2771  0.0342
 2813SOL    HW113377   3.751  11.552  10.713  0.7694 -0.2395 -1.9358
 2813SOL    HW213378   3.761  11.689  10.777  0.1674 -1.5634  1.1222
 2814SOL     OW13379  11.656   0.745   6.450 -0.2288  0.5930 -0.2011
 2814SOL    HW113380  11.725   0.809   6.432 -0.2258  0.4702 -0.6344
 2814SOL    HW213381  11.574   0.790   6.427 -0.3136  0.8160  0.5216
 2815SOL     OW13382  10.019   4.953  10.608  0.4608 -0.4824 -0.9810
 2815SOL    HW113383  10.003   4.899  10.685 -0.4050 -0.6383 -1.2630
 2815SOL    HW213384  10.011   5.043  10.639  1.5885 -0.4973 -0.5816
 2816SOL     OW13385   8.202   0.858   8.182 -0.0260  0.1193 -0.2700
 2816SOL    HW113386   8.240   0.866   8.270 -1.7299 -0.3172  0.5551
 2816SOL    HW213387   8.229   0.938   8.137  2.0515 -0.2810  0.1407
 2817SOL     OW13388   5.272   8.762   8.717 -0.4969 -0.5572 -0.7389
 2817SOL    HW113389   5.315   8.683   8.684 -0.0795 -1.0651  0.9354
 2817SOL    HW213390   5.183   8.734   8.735 -1.5263  0.3678 -3.7166
 2818SOL     OW13391   0.851  11.427  10.290 -0.2146 -0.5427 -0.2737
 2818SOL    HW113392   0.861  11.336  10.317 -1.5583 -0.7652 -0.4336
 2818SOL    HW213393   0.849  11.424  10.194 -1.0643 -0.4653 -0.2694
 2819SOL     OW13394   9.930   1.110  10.600 -0.7571  0.2857 -0.0842
 2819SOL    HW113395   9.955   1.166  10.526  0.3156  1.8321  1.3673
 2819SOL    HW213396   9.883   1.169  10.659 -2.0583 -1.0409  0.2707
 2820SOL     OW13397   3.750   4.431  11.048 -0.4769  0.5338  0.4431
 2820SOL    HW113398   3.781   4.413  10.959 -1.2285  1.3050  0.0142
 2820SOL    HW213399   3.744   4.345  11.089  0.0029  0.1809 -0.2027
 2821SOL     OW13400   3.248   6.049  10.229  0.3889 -0.3371 -0.1249
 2821SOL    HW113401   3.223   5.962  10.262 -1.4958  0.4870  0.7786
 2821SOL    HW213402   3.166   6.088  10.199  1.1813  1.1618 -0.4560
 2822SOL     OW13403   1.056   5.806   8.926  0.5035 -0.3355 -0.5211
 2822SOL    HW113404   1.093   5.890   8.952  0.3892 -0.4025 -0.1354
 2822SOL    HW213405   1.069   5.749   9.002 -0.1694 -0.4261 -0.4635
 2823SOL     OW13406   4.872   0.106   2.757  0.7985 -0.2136 -0.2663
 2823SOL    HW113407   4.881   0.079   2.666 -1.5222  0.0361 -0.6258
 2823SOL    HW213408   4.853   0.199   2.754  2.4671  0.1998  0.6198
 2824SOL     OW13409   2.209   3.094   7.279  0.5381 -0.2611  0.2623
 2824SOL    HW113410   2.128   3.054   7.311  0.5425 -0.0729  0.5107
 2824SOL    HW213411   2.237   3.151   7.350  1.9933 -1.8447  1.0352
 2825SOL     OW13412   6.865   7.147   8.167 -0.2260  0.1137 -0.2236
 2825SOL    HW113413   6.862   7.168   8.074 -0.6964 -0.4020 -0.3258
 2825SOL    HW213414   6.797   7.202   8.206 -1.2549 -0.9645 -0.4487
 2826SOL     OW13415   0.787   7.226   8.897  0.2687  0.2836  0.0795
 2826SOL    HW113416   0.752   7.260   8.979 -0.5860 -0.4342  0.0234
 2826SOL    HW213417   0.871   7.271   8.886 -0.8661  2.4630 -0.0741
 2827SOL     OW13418   0.294   4.029   7.915  0.2803  0.1843  0.2186
 2827SOL    HW113419   0.256   4.048   8.001 -1.3671  0.3528 -0.5081
 2827SOL    HW213420   0.307   4.114   7.874  0.5246  0.0840  0.0851
 2828SOL     OW13421   7.793  10.414   8.159 -0.1076 -0.0982 -0.1202
 2828SOL    HW113422   7.811  10.421   8.065  1.9053  0.6932  0.2862
 2828SOL    HW213423   7.716  10.469   8.173 -0.5686 -0.4050 -1.3314
 2829SOL     OW13424   1.757   1.130   5.853 -0.5197 -0.0553  0.1916
 2829SOL    HW113425   1.808   1.088   5.922 -1.6331 -0.1261  1.0016
 2829SOL    HW213426   1.672   1.085   5.854 -1.2160  1.1976  0.0577
 2830SOL     OW13427   2.224   9.860   7.084 -0.3571 -0.3091  0.1669
 2830SOL    HW113428   2.276   9.780   7.088 -1.2330 -0.9242 -0.3140
 2830SOL    HW213429   2.230   9.897   7.172  2.8212  0.9380 -0.4622
 2831SOL     OW13430   0.494   4.474  10.591 -0.6185 -0.0096  0.8091
 2831SOL    HW113431   0.578   4.487  10.549 -0.5396 -1.3903  0.5005
 2831SOL    HW213432   0.515   4.470  10.685 -0.2175 -1.0683  0.6926
 2832SOL     OW13433   3.561   6.890   2.650 -0.0729 -0.1045 -0.0486
 2832SOL    HW113434   3.569   6.815   2.592  0.6396 -0.3853  0.4020
 2832SOL    HW213435   3.630   6.878   2.716 -1.3801 -0.2302  1.3543
 2833SOL     OW13436   9.744   0.858   2.655 -0.4333  0.1698  0.4051
 2833SOL    HW113437   9.682   0.793   2.623 -0.3123  0.4356 -0.4013
 2833SOL    HW213438   9.693   0.912   2.716 -0.1557 -1.5740  2.2712
 2834SOL     OW13439   2.685  10.602   5.364  0.0133 -0.2345  0.2379
 2834SOL    HW113440   2.770  10.589   5.321  1.5522  0.8801  2.7306
 2834SOL    HW213441   2.651  10.514   5.378  1.6377 -0.8055  0.8007
 2835SOL     OW13442   3.720   5.447   5.942 -0.1498  0.5511 -0.1730
 2835SOL    HW113443   3.689   5.368   5.987 -0.2254  0.2055 -0.8246
 2835SOL    HW213444   3.641   5.486   5.905  0.0442  0.2187 -0.9671
 2836SOL     OW13445   4.340   1.970   3.714  0.2117  0.0624 -0.0709
 2836SOL    HW113446   4.349   1.983   3.808 -0.2419 -0.4830  0.0514
 2836SOL    HW213447   4.370   2.052   3.676 -1.7989  1.2006  0.6413
 2837SOL     OW13448   6.403   9.023   4.132  0.7320 -0.0849 -0.0006
 2837SOL    HW113449   6.484   8.996   4.087  0.4471 -0.8234 -0.0853
 2837SOL    HW213450   6.333   8.982   4.081  0.2132  1.5701 -0.6747
 2838SOL     OW13451   0.344   7.487  10.954  0.1559 -0.1403 -0.3238
 2838SOL    HW113452   0.334   7.431  11.031  0.5661 -0.9142 -0.8149
 2838SOL    HW213453   0.269   7.465  10.899  1.2723 -1.6045 -1.3460
 2839SOL     OW13454  10.397   2.074   9.950  0.4364 -0.2619  0.0282
 2839SOL    HW113455  10.420   2.123   9.871 -0.2302 -0.9702 -0.6209
 2839SOL    HW213456  10.480   2.037   9.980  0.5266 -0.9287 -0.9998
 2840SOL     OW13457   6.108   3.179   5.269 -0.3298  0.0915  0.2597
 2840SOL    HW113458   6.079   3.167   5.359 -1.5044  0.3570 -0.0642
 2840SOL    HW213459   6.080   3.099   5.224 -1.1097  0.6010 -0.1840
 2841SOL     OW13460  10.747   7.283   2.173 -0.1069 -0.4295 -0.0067
 2841SOL    HW113461  10.676   7.286   2.108  0.8128 -0.8095 -1.0604
 2841SOL    HW213462  10.809   7.220   2.137  1.3057  0.7228  0.3425
 2842SOL     OW13463   6.842   5.224   2.502  0.1975  0.8855  0.1459
 2842SOL    HW113464   6.803   5.189   2.422  0.9191 -0.4600  0.3418
 2842SOL    HW213465   6.789   5.187   2.573  1.2140 -0.2035  0.3754
 2843SOL     OW13466   6.962   2.072   3.299  0.2749 -0.2681 -0.4762
 2843SOL    HW113467   6.991   2.085   3.389 -0.8611 -4.0252  0.6153
 2843SOL    HW213468   6.905   2.147   3.280  1.4553  1.2051  1.4475
 2844SOL     OW13469   4.041   4.947   1.231  0.0087 -0.4122 -0.5832
 2844SOL    HW113470   4.106   4.888   1.192  0.4766 -0.0884 -0.3026
 2844SOL    HW213471   4.084   4.982   1.310 -1.2805 -1.8527  0.8342
 2845SOL     OW13472  10.446   4.052   4.412 -0.4755 -0.3941  0.3526
 2845SOL    HW113473  10.536   4.066   4.439 -0.9446  0.3788  1.6361
 2845SOL    HW213474  10.422   3.968   4.450 -0.5267 -0.2281  0.6952
 2846SOL     OW13475   6.323  11.581   5.295  0.2681  0.5757  0.6067
 2846SOL    HW113476   6.340  11.518   5.225 -0.3251 -0.4399  1.3406
 2846SOL    HW213477   6.410  11.605   5.328  0.5252  0.6387 -0.0982
 2847SOL     OW13478   9.463   9.601   8.712 -0.1388  0.5752  0.3133
 2847SOL    HW113479   9.493   9.661   8.780  1.5412 -0.3009  0.3946
 2847SOL    HW213480   9.453   9.517   8.756 -1.6152  0.5561  0.0057
 2848SOL     OW13481   4.516   9.143   3.831 -0.0555 -0.5782  0.0230
 2848SOL    HW113482   4.482   9.131   3.743  1.9770 -0.0389 -0.8976
 2848SOL    HW213483   4.610   9.125   3.823  1.0246  3.4656  1.1215
 2849SOL     OW13484   4.503   3.926   3.804  0.1579  0.2766  0.3256
 2849SOL    HW113485   4.409   3.922   3.788 -0.1568  1.2973  1.7372
 2849SOL    HW213486   4.522   4.019   3.811  0.7178  0.0215  2.9513
 2850SOL     OW13487   5.048   8.634  11.567  0.2624 -0.3338  0.4360
 2850SOL    HW113488   5.122   8.686  11.537 -0.1134  0.7450  1.3241
 2850SOL    HW213489   5.039   8.656  11.659 -2.7402  1.5942 -0.1742
 2851SOL     OW13490  10.583   9.870   4.604  0.0224  0.4112  0.2584
 2851SOL    HW113491  10.650   9.832   4.547 -0.5485 -0.7737  0.3519
 2851SOL    HW213492  10.500   9.842   4.565 -0.3890  0.2544  1.2244
 2852SOL     OW13493   8.076   1.090  10.279  0.3317 -0.0573 -0.1084
 2852SOL    HW113494   7.986   1.059  10.280  0.6392 -0.9813  0.3699
 2852SOL    HW213495   8.112   1.063  10.364  1.5631 -1.3059 -0.9673
 2853SOL     OW13496   0.392   9.014   1.991  0.5515 -0.5211  0.1076
 2853SOL    HW113497   0.318   8.954   1.994 -0.7894  0.8712 -1.9493
 2853SOL    HW213498   0.420   9.023   2.082 -0.4375 -2.7168  0.6803
 2854SOL     OW13499   0.261   3.118   4.941 -0.1320  0.1322 -0.4569
 2854SOL    HW113500   0.328   3.097   5.007 -0.1484 -0.5458 -0.6494
 2854SOL    HW213501   0.304   3.180   4.882 -0.5596  1.8486  0.9623
 2855SOL     OW13502   3.271  10.498   6.450 -0.1391 -0.1633 -0.0692
 2855SOL    HW113503   3.204  10.527   6.512 -0.8069 -1.2620 -0.2450
 2855SOL    HW213504   3.342  10.464   6.505 -0.3298 -0.2721  0.1123
 2856SOL     OW13505   9.592   6.788   1.681  0.5669  0.1665 -0.5509
 2856SOL    HW113506   9.605   6.834   1.597  1.3497  0.1302 -0.4576
 2856SOL    HW213507   9.593   6.858   1.746  1.8351  0.0209 -0.4012
 2857SOL     OW13508   8.803   3.536   0.790  0.2372 -0.2337 -0.0013
 2857SOL    HW113509   8.729   3.532   0.730  0.2940  0.7838 -0.1616
 2857SOL    HW213510   8.869   3.479   0.750  0.5584  1.0259 -1.3272
 2858SOL     OW13511   5.724   2.272   1.886  0.2274 -0.4489 -0.2190
 2858SOL    HW113512   5.648   2.215   1.877 -0.6459 -0.1515  3.4390
 2858SOL    HW213513   5.796   2.222   1.848 -1.1298 -2.4433 -0.3109
 2859SOL     OW13514   4.426   6.582   9.200 -0.6961 -0.7771 -0.2370
 2859SOL    HW113515   4.343   6.625   9.181 -1.6626 -1.4279  2.1407
 2859SOL    HW213516   4.489   6.625   9.142 -2.1854  1.5882 -0.2515
 2860SOL     OW13517   6.792  10.477   7.147 -0.1759 -0.0019  0.5952
 2860SOL    HW113518   6.703  10.489   7.179 -0.2611 -0.1386  0.4157
 2860SOL    HW213519   6.781  10.434   7.062  0.0511  0.2260  0.4498
 2861SOL     OW13520   7.566   2.703   0.738 -0.5298 -0.3291 -0.3771
 2861SOL    HW113521   7.530   2.786   0.708 -1.0862 -0.6675 -0.6442
 2861SOL    HW213522   7.645   2.728   0.786 -1.0748  0.4067  0.1557
 2862SOL     OW13523   0.486   6.191   1.679 -0.2842 -0.1689  0.3845
 2862SOL    HW113524   0.408   6.244   1.691 -0.9334 -1.0703  0.2471
 2862SOL    HW213525   0.534   6.199   1.761 -0.7502  0.0257  0.6393
 2863SOL     OW13526   2.109   3.237   8.359 -0.0449 -0.1523  0.2211
 2863SOL    HW113527   2.201   3.259   8.369  0.0799  0.1481 -1.3935
 2863SOL    HW213528   2.091   3.178   8.432  1.0486  0.8622  1.3732
 2864SOL     OW13529   8.291   6.921   1.593 -0.3920 -0.4671  0.2982
 2864SOL    HW113530   8.349   6.904   1.519  0.6545 -0.8997  1.1914
 2864SOL    HW213531   8.242   7.000   1.568  0.9413  0.2047 -0.2723
 2865SOL     OW13532   2.749   5.287   1.674 -0.5262 -0.4977  0.2371
 2865SOL    HW113533   2.736   5.195   1.651 -0.4293 -0.0872 -1.6680
 2865SOL    HW213534   2.836   5.308   1.640 -0.6606  0.3606  0.3958
 2866SOL     OW13535   3.210   3.705   0.536  0.0959  0.1247  0.3018
 2866SOL    HW113536   3.285   3.727   0.481 -0.5338  1.6642 -0.0208
 2866SOL    HW213537   3.246   3.695   0.624  1.1264 -2.4282 -0.3276
 2867SOL     OW13538   1.444  10.488   8.166  0.6197 -0.0094  0.0414
 2867SOL    HW113539   1.534  10.460   8.182  0.1990 -1.2150  0.4048
 2867SOL    HW213540   1.412  10.519   8.251 -0.3360 -2.6877  0.7492
 2868SOL     OW13541   0.875   3.004   1.548 -0.3366  0.3491  0.4343
 2868SOL    HW113542   0.900   2.972   1.634 -0.2500  0.6979  0.5425
 2868SOL    HW213543   0.891   2.931   1.489  3.1779  1.2325  0.1056
 2869SOL     OW13544   4.814  10.034   3.890  0.2781 -0.2468  0.2833
 2869SOL    HW113545   4.891   9.993   3.928 -0.7322 -2.4130  0.1108
 2869SOL    HW213546   4.741   9.997   3.938 -0.7379  1.2211 -0.0445
 2870SOL     OW13547   1.799   9.676  10.236  0.3918 -0.2909  0.5603
 2870SOL    HW113548   1.866   9.697  10.301 -0.8058 -2.1056  2.4941
 2870SOL    HW213549   1.716   9.683  10.283 -0.9040  1.8978 -1.7658
 2871SOL     OW13550   5.332  10.384   3.080 -0.4682  0.1265  0.2850
 2871SOL    HW113551   5.357  10.395   2.988 -0.1914 -0.2025  0.3206
 2871SOL    HW213552   5.347  10.470   3.120  2.2103 -0.4630  0.6935
 2872SOL     OW13553  10.483  10.894   5.994 -0.2551 -0.5630 -0.1626
 2872SOL    HW113554  10.530  10.947   5.930 -1.5588 -0.2835 -0.9208
 2872SOL    HW213555  10.547  10.827   6.021  1.0435  0.6739 -0.0238
 2873SOL     OW13556  11.430   7.254   9.141  0.4422  0.1103 -0.0694
 2873SOL    HW113557  11.433   7.289   9.052  1.7868 -1.5433 -0.7520
 2873SOL    HW213558  11.519   7.221   9.156 -0.2697 -1.3650  1.1424
 2874SOL     OW13559   5.144   6.850   4.615  0.4570 -0.0216 -0.5711
 2874SOL    HW113560   5.127   6.931   4.565 -0.5903 -0.5804 -1.1533
 2874SOL    HW213561   5.057   6.820   4.641  0.7370 -1.6520 -1.4560
 2875SOL     OW13562   5.930   5.511   7.789 -0.2279 -0.4653  0.1607
 2875SOL    HW113563   6.025   5.513   7.781 -0.1687 -0.8533  0.7085
 2875SOL    HW213564   5.911   5.555   7.872 -0.5919  0.3900 -0.3640
 2876SOL     OW13565   3.287   6.976   3.815  0.3396  0.1489  0.0495
 2876SOL    HW113566   3.260   6.962   3.724  1.3839 -0.8832 -0.1240
 2876SOL    HW213567   3.222   6.929   3.867 -0.0530  0.4349 -0.1798
 2877SOL     OW13568   8.892   4.640   7.515  0.1745 -0.6891 -0.4343
 2877SOL    HW113569   8.919   4.550   7.532  0.0300 -0.7421 -0.4821
 2877SOL    HW213570   8.887   4.646   7.420  1.7864 -0.1584 -0.5006
 2878SOL     OW13571   5.627   2.349   5.286 -0.1112 -0.0747  0.4170
 2878SOL    HW113572   5.534   2.364   5.298 -0.3791 -1.1730 -0.1988
 2878SOL    HW213573   5.642   2.260   5.316  0.9486  0.4308  1.5006
 2879SOL     OW13574   5.938   5.753   4.354 -0.3683 -0.2084 -0.2640
 2879SOL    HW113575   5.903   5.822   4.410 -0.3816 -0.6773  0.3266
 2879SOL    HW213576   5.867   5.732   4.293  0.0612  1.1376 -1.2675
 2880SOL     OW13577  10.769  11.139   2.560  0.1885  0.2767 -0.2368
 2880SOL    HW113578  10.794  11.069   2.620  0.7154 -0.8944 -1.7672
 2880SOL    HW213579  10.814  11.216   2.594 -0.8765  0.0654  1.8271
 2881SOL     OW13580   8.091   1.636   3.821  0.6934 -0.3706  0.5722
 2881SOL    HW113581   8.115   1.548   3.791 -1.3284 -0.3278 -1.4217
 2881SOL    HW213582   8.031   1.621   3.893 -0.3327 -0.6842 -0.3233
 2882SOL     OW13583   2.066  10.242   0.178 -0.2075  0.4341 -0.1659
 2882SOL    HW113584   2.151  10.256   0.218 -1.0687 -0.4575  2.1192
 2882SOL    HW213585   2.069  10.151   0.147 -0.1348  0.5868 -0.6117
 2883SOL     OW13586   3.693   9.481   1.881 -0.3665  0.1062  0.5677
 2883SOL    HW113587   3.709   9.387   1.886  0.1983  0.2136  0.8866
 2883SOL    HW213588   3.617   9.490   1.823 -1.4523 -0.6492  1.8287
 2884SOL     OW13589  11.302   7.897   2.728  0.1687  0.3667 -0.7873
 2884SOL    HW113590  11.267   7.984   2.707 -2.4757 -0.2532  0.5681
 2884SOL    HW213591  11.284   7.844   2.651 -0.9420  0.3582 -0.5466
 2885SOL     OW13592   6.849   0.971   9.662 -0.3916  0.2581 -0.0299
 2885SOL    HW113593   6.931   0.959   9.710  0.3505  0.0751 -1.3146
 2885SOL    HW213594   6.826   0.883   9.633 -1.4690  0.1861  0.9595
 2886SOL     OW13595   8.793  10.673   0.484 -0.6780 -0.0230 -0.6390
 2886SOL    HW113596   8.791  10.766   0.463  0.4236  0.5756  1.6155
 2886SOL    HW213597   8.844  10.667   0.565  0.8148 -2.7785 -1.6202
 2887SOL     OW13598   2.245   8.517  10.450 -0.8164  0.4842  0.1423
 2887SOL    HW113599   2.322   8.561  10.486 -1.0197 -0.2323  1.5265
 2887SOL    HW213600   2.171   8.567  10.485 -1.0064  1.0939 -1.0766
 2888SOL     OW13601   9.643   8.950   2.738  0.2000 -0.3686 -0.4912
 2888SOL    HW113602   9.594   9.032   2.731 -0.9180 -1.0348 -0.9331
 2888SOL    HW213603   9.606   8.907   2.815 -0.0192 -0.9537 -0.9207
 2889SOL     OW13604  10.628  10.065   9.680 -0.1326  0.3160  0.3259
 2889SOL    HW113605  10.723  10.064   9.684 -0.0838  1.4934 -0.1680
 2889SOL    HW213606  10.607  10.110   9.598 -1.0970  1.2944  1.0712
 2890SOL     OW13607   0.473   9.216   0.782  0.3909  0.7054 -0.2097
 2890SOL    HW113608   0.529   9.223   0.859 -0.8846  0.9378  0.7197
 2890SOL    HW213609   0.515   9.148   0.728  1.4308  0.7124  0.5597
 2891SOL     OW13610   0.962   5.317   8.793  0.3746 -0.4109  0.4219
 2891SOL    HW113611   0.940   5.393   8.846  0.1443 -0.4540  0.3869
 2891SOL    HW213612   0.899   5.318   8.721  0.4250 -0.5840  0.3737
 2892SOL     OW13613  10.998   9.741  11.080  0.0755  0.7041 -0.2002
 2892SOL    HW113614  11.035   9.660  11.046 -1.6950 -0.0862 -0.3778
 2892SOL    HW213615  11.062   9.771  11.145  1.9179  0.4878 -1.8355
 2893SOL     OW13616   1.784   9.469   6.608 -0.2117  0.0219  0.2904
 2893SOL    HW113617   1.832   9.502   6.685 -0.3906 -0.0291  0.4248
 2893SOL    HW213618   1.702   9.435   6.644 -0.7805  0.9877 -0.0442
 2894SOL     OW13619   0.611   3.263   2.108  0.0296 -0.4057  0.2197
 2894SOL    HW113620   0.587   3.315   2.185  2.1224  0.2407  0.5179
 2894SOL    HW213621   0.707   3.261   2.110  0.0858 -1.8375 -1.4319
 2895SOL     OW13622   9.884   7.191   6.364 -0.0660 -0.1291 -0.0346
 2895SOL    HW113623   9.790   7.191   6.376  0.1442  0.4590  1.9011
 2895SOL    HW213624   9.908   7.098   6.362 -0.4144 -0.3061  2.2212
 2896SOL     OW13625  11.491   1.540   4.424 -0.0210 -0.0655  0.1038
 2896SOL    HW113626  11.442   1.560   4.504 -1.2522  2.3914 -1.1222
 2896SOL    HW213627  11.424   1.539   4.355  1.4170  2.2109 -1.4642
 2897SOL     OW13628   9.159   8.766   5.400  0.0105  0.3483  0.4796
 2897SOL    HW113629   9.192   8.807   5.320 -0.9413  0.1715 -0.0229
 2897SOL    HW213630   9.075   8.727   5.374 -0.0114 -0.2598  1.4138
 2898SOL     OW13631   6.624  10.632   1.087  0.5369  0.8309 -0.6457
 2898SOL    HW113632   6.588  10.630   1.175 -0.1178 -1.5650 -0.9040
 2898SOL    HW213633   6.698  10.571   1.090 -1.0623 -1.3233 -2.3236
 2899SOL     OW13634  11.276   0.073   6.469 -0.5605  0.6663 -0.3988
 2899SOL    HW113635  11.272   0.121   6.386 -1.6655  1.6275  0.1847
 2899SOL    HW213636  11.359   0.100   6.508  1.3135 -1.8060 -2.3060
 2900SOL     OW13637   3.259   7.100   8.322  0.0155  0.0885  0.2764
 2900SOL    HW113638   3.200   7.171   8.296  0.3933  0.1838 -0.3306
 2900SOL    HW213639   3.277   7.117   8.414  0.6966  1.2099 -0.0420
 2901SOL     OW13640   5.447   6.481   5.268  0.0741 -0.3997  0.6253
 2901SOL    HW113641   5.355   6.469   5.291  0.0867 -0.5087  0.6152
 2901SOL    HW213642   5.476   6.553   5.325 -0.6416  1.2523 -0.9861
 2902SOL     OW13643  11.500   8.337   8.992  0.6803 -0.2488 -0.1744
 2902SOL    HW113644  11.448   8.406   8.951 -0.0760 -0.3300  0.6088
 2902SOL    HW213645  11.586   8.376   9.008  0.6227  0.1336 -0.7965
 2903SOL     OW13646   4.095   9.466   9.056 -0.1076 -0.2005 -0.3664
 2903SOL    HW113647   4.115   9.402   9.125 -1.5665  1.6345  1.9275
 2903SOL    HW213648   4.042   9.418   8.993 -0.7829 -1.4157  1.0609
 2904SOL     OW13649   4.537   7.810   5.210 -0.0802 -0.0958  0.1324
 2904SOL    HW113650   4.510   7.867   5.283  1.7132 -1.3924  1.9045
 2904SOL    HW213651   4.562   7.728   5.251 -0.7702 -1.5578 -2.1815
 2905SOL     OW13652   4.934   1.585   1.194  0.7714  0.3413  0.0843
 2905SOL    HW113653   4.982   1.537   1.261  2.3388  1.5039 -0.1615
 2905SOL    HW213654   4.882   1.649   1.242  3.2078  2.3717  0.2367
 2906SOL     OW13655  10.028  11.177   1.759  0.4460  0.1417 -0.1450
 2906SOL    HW113656  10.069  11.255   1.721  0.0572  0.2751 -0.3037
 2906SOL    HW213657   9.969  11.146   1.690  0.5395 -0.2447 -0.0507
 2907SOL     OW13658   0.360   6.392   6.601  0.2446  0.2855 -0.3679
 2907SOL    HW113659   0.289   6.454   6.616  0.0053  0.1170 -0.8067
 2907SOL    HW213660   0.334   6.343   6.523  0.1471 -0.7887  0.3307
 2908SOL     OW13661   8.531   9.363   2.957 -0.4353 -0.1645  0.3387
 2908SOL    HW113662   8.545   9.458   2.956 -0.0767 -0.2031  1.0198
 2908SOL    HW213663   8.445   9.351   2.919 -0.2357  0.3937 -0.3050
 2909SOL     OW13664   6.126  11.052   0.591 -0.1740 -0.4630 -0.2265
 2909SOL    HW113665   6.089  11.112   0.655 -1.5226 -1.5642  0.0776
 2909SOL    HW213666   6.180  10.992   0.643 -1.3267 -1.4012 -0.0812
 2910SOL     OW13667  10.628   5.250   1.731 -0.0107 -0.3504  0.4097
 2910SOL    HW113668  10.704   5.201   1.762  0.5389  1.2395  1.7189
 2910SOL    HW213669  10.661   5.299   1.655 -0.3703 -1.4094 -0.4532
 2911SOL     OW13670   5.179  10.410   9.380  0.2203  0.2608  0.3407
 2911SOL    HW113671   5.274  10.402   9.377  0.1997 -0.4518  1.1931
 2911SOL    HW213672   5.147  10.330   9.336 -0.0009  1.0592 -1.0170
 2912SOL     OW13673   4.175   3.543   0.877 -0.3126  0.0829  0.6207
 2912SOL    HW113674   4.256   3.518   0.832  0.3863 -0.8060  2.3088
 2912SOL    HW213675   4.107   3.533   0.810  0.4999 -2.4147  0.0509
 2913SOL     OW13676   3.606  11.213   6.483 -0.5397 -0.3307 -0.2291
 2913SOL    HW113677   3.699  11.189   6.482 -0.5195 -0.2696 -1.0450
 2913SOL    HW213678   3.592  11.252   6.569 -0.4091 -2.5857  0.8792
 2914SOL     OW13679  10.409   2.087   7.769 -0.2311 -0.0702  0.1034
 2914SOL    HW113680  10.414   2.004   7.816  2.5396 -1.4694 -2.2874
 2914SOL    HW213681  10.365   2.065   7.687  0.2941  0.8805 -0.4547
 2915SOL     OW13682  10.201   6.433   3.768  0.4978 -0.5018 -0.6095
 2915SOL    HW113683  10.124   6.440   3.711  0.7269 -1.4849 -1.0582
 2915SOL    HW213684  10.174   6.372   3.837  0.4993  0.0497 -0.1049
 2916SOL     OW13685   1.715   8.193   4.913  0.9832  0.9434  0.6110
 2916SOL    HW113686   1.694   8.236   4.831  0.7511 -2.1469 -1.0852
 2916SOL    HW213687   1.811   8.190   4.915  1.0529 -1.9458 -1.3915
 2917SOL     OW13688   3.149  10.312   9.525  0.0434  0.3354 -0.0412
 2917SOL    HW113689   3.225  10.342   9.476 -1.4728  1.6806 -1.7463
 2917SOL    HW213690   3.095  10.390   9.536 -0.6843 -0.3843  1.9437
 2918SOL     OW13691  10.689   7.786   5.870  0.4417 -0.0324  0.3683
 2918SOL    HW113692  10.597   7.806   5.851 -0.6170 -2.4453  2.3651
 2918SOL    HW213693  10.690   7.763   5.963  2.7378 -1.7653  0.0131
 2919SOL     OW13694   1.191   8.199   7.480  0.4609  0.8068  0.1667
 2919SOL    HW113695   1.106   8.240   7.492  0.7128  1.1988  0.6552
 2919SOL    HW213696   1.234   8.252   7.413  0.2665  0.5156 -0.1931
 2920SOL     OW13697   5.483   1.615   9.773  0.4334  0.3911 -0.5136
 2920SOL    HW113698   5.548   1.674   9.812  1.5615 -0.6191 -0.8000
 2920SOL    HW213699   5.437   1.669   9.710  1.9211  0.8321 -1.2831
 2921SOL     OW13700   3.126  11.350   1.977  0.3395 -0.0604 -0.5926
 2921SOL    HW113701   3.058  11.378   2.038 -1.1325 -0.1315 -2.1160
 2921SOL    HW213702   3.095  11.265   1.945  1.8714 -0.7584 -0.2759
 2922SOL     OW13703   0.716   4.832   3.139 -0.0077 -0.6328 -0.5535
 2922SOL    HW113704   0.707   4.788   3.224  0.1889 -0.0569 -0.2314
 2922SOL    HW213705   0.668   4.914   3.149  1.0369 -0.0020 -0.5885
 2923SOL     OW13706   3.122   1.010   7.762  0.6744  1.0893 -0.3604
 2923SOL    HW113707   3.148   1.002   7.670 -0.5506  0.4736 -0.6727
 2923SOL    HW213708   3.181   0.952   7.809  0.4301  0.3372 -0.9515
 2924SOL     OW13709   2.492   2.368  10.696 -0.7645  0.1605  0.1302
 2924SOL    HW113710   2.441   2.444  10.725 -1.4009 -0.8338  1.7375
 2924SOL    HW213711   2.506   2.316  10.775 -1.1279 -1.8557 -1.0470
 2925SOL     OW13712   1.814   3.412   8.759 -0.3110  0.6495  0.0917
 2925SOL    HW113713   1.865   3.420   8.840  0.7745  1.0576 -0.6120
 2925SOL    HW213714   1.872   3.445   8.690 -1.0341 -0.1268 -0.9306
 2926SOL     OW13715   2.289   2.432   9.596 -0.6180  0.2404 -0.3239
 2926SOL    HW113716   2.338   2.469   9.523  0.7499 -1.0567 -0.1156
 2926SOL    HW213717   2.228   2.370   9.556 -1.7843  1.4530 -0.5336
 2927SOL     OW13718   6.615  10.284   8.766 -0.0161  1.0790 -0.0544
 2927SOL    HW113719   6.609  10.260   8.859 -1.5348 -0.1728 -0.4313
 2927SOL    HW213720   6.709  10.291   8.749  0.2987  1.0362  1.5042
 2928SOL     OW13721   3.431  10.529   4.635 -0.0533 -1.0575 -0.3872
 2928SOL    HW113722   3.410  10.611   4.590  0.5925 -0.0377  1.0761
 2928SOL    HW213723   3.351  10.477   4.628  0.3679 -1.4583 -3.6201
 2929SOL     OW13724   0.305   8.324   0.749 -0.0536  0.1400 -0.3713
 2929SOL    HW113725   0.251   8.306   0.672 -0.5837  1.7646 -0.4277
 2929SOL    HW213726   0.332   8.238   0.780 -3.7688 -0.9456  0.4365
 2930SOL     OW13727   6.546   1.441  10.093 -0.7792  0.5875  0.1795
 2930SOL    HW113728   6.626   1.446  10.041 -2.5284 -2.0119 -3.1747
 2930SOL    HW213729   6.567   1.382  10.166 -0.6008 -4.4481 -3.4247
 2931SOL     OW13730   4.732   6.872   5.713 -0.2588  0.1014  0.4821
 2931SOL    HW113731   4.744   6.872   5.618 -1.1865 -0.9025  0.3395
 2931SOL    HW213732   4.713   6.963   5.735  1.1683  0.5582 -0.1122
 2932SOL     OW13733   1.025   6.081  10.362  0.6807  0.1865 -0.0067
 2932SOL    HW113734   1.047   6.151  10.423 -2.5702  2.1583 -0.8714
 2932SOL    HW213735   1.040   6.118  10.276  2.0411 -1.4151 -0.5084
 2933SOL     OW13736   5.690   5.021   7.637  0.1714 -0.1272 -0.0817
 2933SOL    HW113737   5.773   5.062   7.614  0.9741 -0.9661  1.2047
 2933SOL    HW213738   5.710   4.928   7.644 -1.4681 -0.7364 -2.3072
 2934SOL     OW13739   8.353   5.601  11.074  0.7069 -0.0186  0.1712
 2934SOL    HW113740   8.380   5.554  10.996  2.0717  0.6886  0.1763
 2934SOL    HW213741   8.363   5.538  11.145 -0.4861 -0.6478 -0.1961
 2935SOL     OW13742   2.910   5.124   2.220  0.7562 -0.2757  0.1645
 2935SOL    HW113743   2.845   5.114   2.151 -0.2504  1.3504  0.7934
 2935SOL    HW213744   2.899   5.047   2.276 -1.4110  0.4508  0.8321
 2936SOL     OW13745   6.035   6.867   3.909  0.6551  0.7569 -0.0549
 2936SOL    HW113746   6.074   6.800   3.851 -1.5356 -1.1374  0.5218
 2936SOL    HW213747   5.958   6.898   3.861 -0.5275  0.0073  1.3185
 2937SOL     OW13748   5.175   1.724   5.369  0.3538 -0.4405 -0.5493
 2937SOL    HW113749   5.245   1.705   5.431  2.1435  0.2452 -2.2380
 2937SOL    HW213750   5.174   1.649   5.309 -1.2532 -1.0369  0.1760
 2938SOL     OW13751   5.990   5.532   3.162  0.0104 -0.0821 -0.3985
 2938SOL    HW113752   6.020   5.448   3.127 -0.6444 -0.5590  0.1531
 2938SOL    HW213753   5.968   5.513   3.253 -1.9154  0.2162 -0.7547
 2939SOL     OW13754   5.280   5.567   6.724 -0.1889  0.2700  0.4359
 2939SOL    HW113755   5.213   5.590   6.660 -0.1707  0.3520  0.4458
 2939SOL    HW213756   5.280   5.640   6.786 -0.7382 -0.1612  0.9587
 2940SOL     OW13757   8.862   0.758   7.487 -0.0913  0.1621  0.2628
 2940SOL    HW113758   8.916   0.808   7.548 -0.2348  1.3012 -0.5175
 2940SOL    HW213759   8.925   0.713   7.430  0.0450 -0.9313  1.2284
 2941SOL     OW13760   3.236  11.618   0.693 -0.0961 -0.6691  0.4493
 2941SOL    HW113761   3.220  11.613   0.788  1.0990  0.2359  0.7157
 2941SOL    HW213762   3.267  11.707   0.679  0.4589 -1.0317 -0.6851
 2942SOL     OW13763   4.380   6.130   8.815 -0.3602 -0.1851  0.1168
 2942SOL    HW113764   4.305   6.089   8.859 -1.0489  0.3719 -0.5088
 2942SOL    HW213765   4.367   6.224   8.829 -0.0839 -0.0554 -0.4918
 2943SOL     OW13766   2.552   6.271   2.540  0.7025 -0.3222  0.2639
 2943SOL    HW113767   2.499   6.273   2.461  1.6348  1.6985 -0.3752
 2943SOL    HW213768   2.628   6.217   2.517 -0.7415 -2.8838  1.0561
 2944SOL     OW13769   2.084  11.055   1.135  0.5571 -0.1621 -0.0674
 2944SOL    HW113770   2.058  11.004   1.059 -1.8422 -0.7868  1.0712
 2944SOL    HW213771   2.013  11.119   1.146  1.4024  0.6292  1.0074
 2945SOL     OW13772   7.257   3.454   2.202  0.2656 -0.8616 -0.5238
 2945SOL    HW113773   7.340   3.492   2.175 -0.1774 -1.2565 -2.6847
 2945SOL    HW213774   7.277   3.363   2.223  0.4928 -0.7674 -0.3372
 2946SOL     OW13775   1.088  10.955  10.537 -0.1869 -0.5196 -0.0064
 2946SOL    HW113776   1.073  10.861  10.548 -0.6857 -0.3521  0.8227
 2946SOL    HW213777   1.163  10.974  10.593 -1.4445 -0.0408  1.5839
 2947SOL     OW13778  10.172   7.849   9.246  0.2584  0.5935  0.3015
 2947SOL    HW113779  10.132   7.911   9.306 -0.1712 -1.1347  1.8877
 2947SOL    HW213780  10.099   7.813   9.195  0.4621  1.1063 -0.3702
 2948SOL     OW13781   0.730   7.382   9.435 -0.8934 -0.7400  0.0519
 2948SOL    HW113782   0.732   7.330   9.355 -0.2669  0.6233 -0.8686
 2948SOL    HW213783   0.809   7.436   9.431 -0.5336 -1.0592  1.9111
 2949SOL     OW13784  10.249   8.998   0.704 -0.2032 -0.5144 -0.0654
 2949SOL    HW113785  10.200   8.925   0.739  1.0355 -1.0369  0.6466
 2949SOL    HW213786  10.336   8.990   0.744  0.5755  0.1655 -1.5378
 2950SOL     OW13787   0.261   4.362   0.716  0.0271  0.5798 -0.2078
 2950SOL    HW113788   0.256   4.276   0.674  0.2817 -0.0585  1.0063
 2950SOL    HW213789   0.170   4.388   0.729 -0.1477 -0.8365  1.9428
 2951SOL     OW13790   4.978   0.022   6.966 -0.2376 -0.1742 -0.9152
 2951SOL    HW113791   5.060   0.032   6.918  0.3535 -1.5571 -0.2491
 2951SOL    HW213792   5.005   0.017   7.058 -1.2319  1.0935 -0.5302
 2952SOL     OW13793   5.158   7.555   6.834 -0.2807  0.0183  0.9655
 2952SOL    HW113794   5.236   7.610   6.831 -0.6020  0.4316 -1.4479
 2952SOL    HW213795   5.188   7.473   6.872  0.8395  0.8627  1.9899
 2953SOL     OW13796   1.337   6.348   1.056  0.3880  0.0501 -0.2749
 2953SOL    HW113797   1.313   6.440   1.054 -3.5900 -0.7344  1.3018
 2953SOL    HW213798   1.379   6.332   0.972 -0.7750  2.8322 -1.5108
 2954SOL     OW13799   7.936   0.953   3.609  0.1996 -0.2941  0.1765
 2954SOL    HW113800   7.973   0.865   3.614  1.7927  0.2079 -1.6832
 2954SOL    HW213801   7.864   0.945   3.545  1.0760 -0.0577 -0.8708
 2955SOL     OW13802   5.302   6.308   2.587 -0.3027 -0.0853 -0.2439
 2955SOL    HW113803   5.223   6.351   2.554  1.2244  1.5588 -2.0360
 2955SOL    HW213804   5.370   6.329   2.522  1.3748 -2.3676  0.6184
 2956SOL     OW13805   2.998   5.803   9.825 -0.1594 -0.1786 -0.1916
 2956SOL    HW113806   3.012   5.799   9.920 -1.2336 -0.5290 -0.0331
 2956SOL    HW213807   3.005   5.896   9.804  0.1607 -0.1063  0.2232
 2957SOL     OW13808   1.764   6.165   0.724 -0.2865 -0.2924 -0.2401
 2957SOL    HW113809   1.858   6.158   0.708  0.2171  0.8857  1.7784
 2957SOL    HW213810   1.723   6.120   0.650  1.8387 -0.4881 -1.3715
 2958SOL     OW13811   9.514   3.416   3.238 -0.0059 -0.5363  0.3155
 2958SOL    HW113812   9.455   3.426   3.312 -0.7389  1.6152 -0.4765
 2958SOL    HW213813   9.486   3.483   3.175  1.1038 -1.7331 -1.5655
 2959SOL     OW13814   3.196  10.389  10.640 -0.5325  0.5019 -0.2228
 2959SOL    HW113815   3.132  10.341  10.692 -0.6978  0.1980 -0.6947
 2959SOL    HW213816   3.266  10.411  10.701  1.3884 -3.5220 -0.6099
 2960SOL     OW13817  10.024   0.699   1.118  0.2476 -0.1967 -0.0924
 2960SOL    HW113818  10.119   0.690   1.108  0.3662  1.2884 -0.5175
 2960SOL    HW213819  10.013   0.755   1.195 -0.2333  0.7523 -0.8408
 2961SOL     OW13820   3.494   7.890   4.848  1.1902  0.1686  0.1631
 2961SOL    HW113821   3.502   7.904   4.753 -1.6506  0.8008 -0.0835
 2961SOL    HW213822   3.422   7.828   4.856  3.1994 -2.1347  1.9026
 2962SOL     OW13823   9.005   1.536   9.660 -0.1992  0.5028 -0.2018
 2962SOL    HW113824   8.927   1.590   9.645  1.1621  1.9017 -3.1114
 2962SOL    HW213825   9.073   1.598   9.685  0.9054 -0.1116 -1.5458
 2963SOL     OW13826   8.283   9.946   6.157 -0.1408  0.7699  0.2634
 2963SOL    HW113827   8.375   9.920   6.165  0.1140  1.1404 -1.1008
 2963SOL    HW213828   8.236   9.864   6.150  0.3548  0.5826 -1.2459
 2964SOL     OW13829   5.934   6.196   2.346  0.2512 -0.0265 -0.3716
 2964SOL    HW113830   5.947   6.195   2.251 -0.4455 -1.1793 -0.4749
 2964SOL    HW213831   5.841   6.218   2.357  0.0933 -0.8096 -0.0143
 2965SOL     OW13832   9.809   9.511   6.450 -0.7210 -0.2587 -0.6558
 2965SOL    HW113833   9.893   9.478   6.482 -1.1539  0.5965  1.5282
 2965SOL    HW213834   9.830   9.596   6.412 -0.3482 -0.8679 -1.8750
 2966SOL     OW13835   2.865   4.910   2.395 -0.0938 -0.3536  0.4945
 2966SOL    HW113836   2.947   4.863   2.410 -0.1208 -0.8428 -0.8378
 2966SOL    HW213837   2.815   4.854   2.335 -1.6775 -0.3685  1.7431
 2967SOL     OW13838   2.416   3.929  11.349 -0.1525 -0.1051 -0.1346
 2967SOL    HW113839   2.452   3.921  11.260  0.0356 -2.7427  0.0921
 2967SOL    HW213840   2.490   3.913  11.406 -0.6971 -0.5864  0.4480
 2968SOL     OW13841   0.098   8.558   9.241  0.4397 -0.7415 -0.4287
 2968SOL    HW113842   0.046   8.480   9.263 -0.9668  0.3747  0.3923
 2968SOL    HW213843   0.053   8.596   9.165 -0.7621  0.9142  1.0373
 2969SOL     OW13844   2.336   6.312   6.916  0.3390  0.2980 -0.0612
 2969SOL    HW113845   2.347   6.232   6.968 -0.6806 -0.0525 -0.3606
 2969SOL    HW213846   2.247   6.306   6.882  0.7444  0.8591 -1.2839
 2970SOL     OW13847   0.821   3.209   4.235 -0.7445  0.7801  0.0630
 2970SOL    HW113848   0.898   3.184   4.184  0.1439  4.2705 -0.5332
 2970SOL    HW213849   0.755   3.142   4.214  0.8610 -0.1228 -2.5038
 2971SOL     OW13850  11.599   8.575   1.343 -0.2113  0.0707  0.2641
 2971SOL    HW113851  11.676   8.579   1.287 -0.3620 -0.8690 -0.0319
 2971SOL    HW213852  11.570   8.484   1.336 -0.2451 -0.0545  1.8600
 2972SOL     OW13853  10.785  10.378   8.957  0.0313  0.4865 -0.0226
 2972SOL    HW113854  10.789  10.300   9.014  1.0499 -1.8163 -2.9899
 2972SOL    HW213855  10.695  10.408   8.964 -0.7758 -1.8002  0.2053
 2973SOL     OW13856   7.449   4.395   5.207  0.3215  0.3185  0.3082
 2973SOL    HW113857   7.490   4.475   5.239  0.4444 -0.3369  1.8708
 2973SOL    HW213858   7.521   4.332   5.199  0.1717  0.2400 -0.5664
 2974SOL     OW13859  10.693   3.023  10.310 -0.2298  0.1083 -0.0262
 2974SOL    HW113860  10.670   3.117  10.308 -2.0875 -0.2974 -1.9233
 2974SOL    HW213861  10.643   2.988  10.384 -1.7332  0.1843 -0.9621
 2975SOL     OW13862   0.972  10.637   4.595 -0.7296  0.1630 -0.0309
 2975SOL    HW113863   0.977  10.732   4.599 -0.1289  0.1044  1.1252
 2975SOL    HW213864   0.878  10.617   4.599 -0.8222  0.6917  0.6061
 2976SOL     OW13865   4.068   1.880   3.894 -0.6213  0.0527 -0.1458
 2976SOL    HW113866   4.042   1.792   3.867  0.9874 -1.5582  2.9422
 2976SOL    HW213867   3.988   1.917   3.931 -1.4776  0.2210 -2.0384
 2977SOL     OW13868   7.652   7.488   2.477  0.3050 -0.1131 -0.0630
 2977SOL    HW113869   7.592   7.516   2.408 -0.4133 -1.4489 -0.0220
 2977SOL    HW213870   7.659   7.563   2.536  0.7507  0.9669 -1.4533
 2978SOL     OW13871   8.305   4.682  10.492  0.2302  0.3898 -0.0788
 2978SOL    HW113872   8.307   4.695  10.587  0.6708 -0.7584  0.0930
 2978SOL    HW213873   8.321   4.588  10.481  0.4239  0.5514 -1.3005
 2979SOL     OW13874  10.528  11.274   9.755  0.5366 -0.1956 -0.2490
 2979SOL    HW113875  10.493  11.196   9.798 -0.6400  0.3587 -0.1543
 2979SOL    HW213876  10.502  11.346   9.812 -1.1897  0.5822 -1.8858
 2980SOL     OW13877   6.103   9.777   1.436 -0.4375 -0.2365  0.3322
 2980SOL    HW113878   6.153   9.857   1.451  0.4053 -0.4807 -1.0439
 2980SOL    HW213879   6.019   9.808   1.400  0.5627  0.0081 -1.9512
 2981SOL     OW13880   8.479   0.751   9.821 -0.0690 -0.3815  0.2319
 2981SOL    HW113881   8.457   0.738   9.913  1.4250 -0.4421  0.6032
 2981SOL    HW213882   8.552   0.692   9.805 -0.5701 -0.6803 -1.1175
 2982SOL     OW13883  10.604   2.509  10.799 -0.2577 -0.3913  0.7677
 2982SOL    HW113884  10.687   2.477  10.833 -0.8118 -3.0113 -0.1628
 2982SOL    HW213885  10.559   2.543  10.876  1.5284  0.9021  1.3207
 2983SOL     OW13886   6.621  11.344   4.661 -0.3214  0.1457 -0.3977
 2983SOL    HW113887   6.535  11.330   4.622  0.0305  0.0022 -1.1251
 2983SOL    HW213888   6.674  11.271   4.632  0.3664  0.8179 -0.8802
 2984SOL     OW13889   4.250   2.874   9.942 -0.1029 -0.4128 -0.3218
 2984SOL    HW113890   4.250   2.850   9.850  0.8690  0.7696 -0.6581
 2984SOL    HW213891   4.300   2.956   9.946  0.4357 -0.7810  1.3475
 2985SOL     OW13892   4.032   6.364   5.335 -0.0887  0.2236 -0.4943
 2985SOL    HW113893   4.068   6.384   5.248  0.3132  1.0769 -0.1466
 2985SOL    HW213894   3.956   6.422   5.342 -0.7037 -0.5399 -0.6492
 2986SOL     OW13895  11.212   1.442   3.577  0.3626 -0.3877 -0.8223
 2986SOL    HW113896  11.210   1.365   3.521 -0.7429 -0.9006 -0.0996
 2986SOL    HW213897  11.179   1.513   3.522  0.5026 -0.6222 -1.2094
 2987SOL     OW13898   9.132   4.732   2.135  0.2894 -0.1544 -0.2828
 2987SOL    HW113899   9.148   4.682   2.055 -1.9417 -0.5120 -0.5542
 2987SOL    HW213900   9.145   4.823   2.109  0.8423 -0.3425 -0.6979
 2988SOL     OW13901   5.341  10.837   9.900 -0.4550 -0.5578 -0.0249
 2988SOL    HW113902   5.284  10.914   9.904  0.4040  0.0405  2.7070
 2988SOL    HW213903   5.311  10.789   9.823 -0.6719  2.7329 -2.1991
 2989SOL     OW13904  10.300   9.303  10.546 -0.6209  0.0429  0.2343
 2989SOL    HW113905  10.238   9.376  10.546  1.0687  1.5634  1.0081
 2989SOL    HW213906  10.279   9.255  10.626 -0.8302  0.5601  0.5007
 2990SOL     OW13907   6.072   8.890   4.639  0.2505  0.0498 -1.2521
 2990SOL    HW113908   6.003   8.950   4.612 -0.2478 -1.2669 -3.1172
 2990SOL    HW213909   6.153   8.935   4.616  0.0363  1.3054  0.2966
 2991SOL     OW13910   4.458   9.826   4.942  0.2170 -0.2657 -0.2590
 2991SOL    HW113911   4.512   9.779   5.005  1.4885  0.7559 -0.5438
 2991SOL    HW213912   4.446   9.913   4.982  0.4221  0.1512 -1.0937
 2992SOL     OW13913   5.222   1.673   2.644 -0.9876  0.4076 -0.0973
 2992SOL    HW113914   5.239   1.753   2.693  0.9259 -0.0069 -0.0167
 2992SOL    HW213915   5.234   1.697   2.553  0.0998  0.1296 -0.0440
 2993SOL     OW13916   4.903   5.367   3.136  0.2219  0.0556  0.2088
 2993SOL    HW113917   4.880   5.388   3.045 -1.4155  3.8420  1.3041
 2993SOL    HW213918   4.981   5.419   3.154 -0.6514  0.9755  1.4860
 2994SOL     OW13919   8.616  10.426   5.228  0.1959 -0.4761 -0.4715
 2994SOL    HW113920   8.545  10.475   5.270  0.3554 -1.2853  0.7949
 2994SOL    HW213921   8.572  10.364   5.171 -0.0534  0.1527 -0.9694
 2995SOL     OW13922   6.918   7.070   9.694  0.1459 -0.0865 -0.3130
 2995SOL    HW113923   7.002   7.114   9.711  0.8632 -0.2209 -3.0384
 2995SOL    HW213924   6.865   7.135   9.650 -0.0851 -0.8539 -1.2115
 2996SOL     OW13925   9.976  11.369   7.081 -0.0454  0.4020 -0.3654
 2996SOL    HW113926  10.002  11.395   7.169 -0.5736 -0.5643  0.0786
 2996SOL    HW213927   9.982  11.450   7.030  1.6678  0.6859  0.2110
 2997SOL     OW13928   9.762   8.409   8.885 -0.0047  0.1782  0.2980
 2997SOL    HW113929   9.841   8.394   8.937 -0.0235  0.5876  0.4499
 2997SOL    HW213930   9.691   8.415   8.950 -0.0106  0.8125  0.2414
 2998SOL     OW13931   7.997   5.535  11.584 -0.2881  0.2839  0.5012
 2998SOL    HW113932   8.026   5.576  11.502 -2.4078 -2.2385 -1.6906
 2998SOL    HW213933   7.906   5.561  11.594 -0.4610 -0.5596  1.3164
 2999SOL     OW13934   6.980   6.455   7.800 -0.0628 -0.0528  0.0976
 2999SOL    HW113935   7.018   6.487   7.882 -0.5546 -0.5665  0.5306
 2999SOL    HW213936   6.921   6.385   7.826 -0.9460  0.3998 -0.6121
 3000SOL     OW13937   4.940   0.436   9.767 -0.1987  0.2668  0.0418
 3000SOL    HW113938   4.913   0.527   9.783  0.7372  0.6540 -0.5222
 3000SOL    HW213939   5.023   0.443   9.721 -1.0931 -0.8311 -1.8797
 3001SOL     OW13940   1.365   7.793   7.244  0.1565  0.2606 -0.4422
 3001SOL    HW113941   1.280   7.749   7.239  0.0163  0.0133  2.2315
 3001SOL    HW213942   1.349   7.871   7.296  1.5529  0.1414  0.2391
 3002SOL     OW13943  10.761   4.003   5.762  0.0972  0.3101  0.3370
 3002SOL    HW113944  10.762   4.087   5.718 -0.7177  0.0074 -0.2716
 3002SOL    HW213945  10.673   3.995   5.799 -0.0085 -0.4820 -0.0458
 3003SOL     OW13946  11.327  11.629  11.130  0.3517  0.4482  0.3036
 3003SOL    HW113947  11.349  11.608  11.039  0.7793 -0.1140  0.5282
 3003SOL    HW213948  11.293  11.547  11.165  1.0161  0.4236  0.8951
 3004SOL     OW13949  11.067  11.403   2.822 -0.2604  0.2943  0.5808
 3004SOL    HW113950  11.107  11.487   2.800  1.4611 -0.2543  1.3520
 3004SOL    HW213951  10.982  11.425   2.858  0.0780  1.6988  0.5867
 3005SOL     OW13952  11.254   1.421   5.966 -0.5802 -0.5136  0.0038
 3005SOL    HW113953  11.164   1.400   5.990 -0.3175  0.3004  1.8995
 3005SOL    HW213954  11.307   1.369   6.026  0.2473 -1.1389 -1.2219
 3006SOL     OW13955   2.546   3.487  11.540 -0.2320 -0.3927 -0.1908
 3006SOL    HW113956   2.479   3.459  11.602 -1.7287 -1.8781 -2.3918
 3006SOL    HW213957   2.500   3.543  11.478  1.0906  0.4656 -0.4520
 3007SOL     OW13958   8.170  10.541   2.048  0.0388  0.0544 -0.1165
 3007SOL    HW113959   8.215  10.467   2.089  1.0898 -1.2887 -3.3824
 3007SOL    HW213960   8.077  10.517   2.050  0.5395 -3.5014 -4.3980
 3008SOL     OW13961   6.662   4.018   9.592  0.0788 -0.6497 -0.0459
 3008SOL    HW113962   6.656   3.933   9.637  0.4587  0.2819  1.9053
 3008SOL    HW213963   6.581   4.063   9.615  0.1040 -0.2924 -0.6404
 3009SOL     OW13964   8.562   2.730   5.175  0.0071 -0.3743  0.0214
 3009SOL    HW113965   8.549   2.804   5.235 -0.6544 -1.1147  0.8224
 3009SOL    HW213966   8.630   2.760   5.115  1.3937  0.0730  1.7178
 3010SOL     OW13967   9.369   0.045   6.442  0.1440  0.5467 -0.5663
 3010SOL    HW113968   9.393   0.007   6.527  0.4042  2.3055  0.1727
 3010SOL    HW213969   9.379  -0.028   6.381  2.2869 -0.1747  0.5325
 3011SOL     OW13970   2.319   1.567   8.164 -0.1001  0.7090 -0.0754
 3011SOL    HW113971   2.259   1.606   8.100 -0.8773 -0.6649 -0.2297
 3011SOL    HW213972   2.271   1.491   8.198  0.8960  0.5592  1.0533
 3012SOL     OW13973   2.354   1.479  10.012  0.0708 -0.1546  0.0258
 3012SOL    HW113974   2.358   1.385   9.996  0.0409 -0.4084  1.3927
 3012SOL    HW213975   2.260   1.498  10.020  0.0501  0.0872 -0.6973
 3013SOL     OW13976   9.252   4.344   5.683 -0.1028 -0.4408 -0.1575
 3013SOL    HW113977   9.310   4.420   5.678 -0.1467 -0.4479 -0.8312
 3013SOL    HW213978   9.167   4.376   5.653 -0.1945 -0.6791 -0.1584
 3014SOL     OW13979   9.241   8.380   3.328 -0.1473 -0.0920 -0.3854
 3014SOL    HW113980   9.278   8.297   3.297 -0.1307 -0.2835  0.1411
 3014SOL    HW213981   9.302   8.409   3.396 -0.6474 -0.1121  0.0735
 3015SOL     OW13982   5.144   1.876   6.121 -0.1405  0.2718 -0.1174
 3015SOL    HW113983   5.180   1.941   6.181 -0.3292 -0.1235  0.4304
 3015SOL    HW213984   5.082   1.826   6.174 -1.2005  0.6770 -0.9337
 3016SOL     OW13985  10.948  11.528   4.322  0.6468 -0.2526  0.2002
 3016SOL    HW113986  10.981  11.615   4.300  0.3295  0.4626  2.3443
 3016SOL    HW213987  10.858  11.542   4.351  0.0481 -1.5399 -0.8797
 3017SOL     OW13988   8.948  10.332   6.307 -0.5360 -0.2433 -0.1797
 3017SOL    HW113989   8.899  10.277   6.369 -0.1010 -1.2653 -0.7316
 3017SOL    HW213990   8.937  10.289   6.223  0.9410 -0.2383 -0.3944
 3018SOL     OW13991   9.346   9.657   1.527 -0.0407 -0.6578 -0.2694
 3018SOL    HW113992   9.331   9.573   1.570 -1.4763 -0.6730 -0.7465
 3018SOL    HW213993   9.298   9.720   1.579  2.4154  0.2302  1.0979
 3019SOL     OW13994   6.193   0.884   7.384 -0.3731  0.5535  0.7483
 3019SOL    HW113995   6.147   0.800   7.385 -0.3486  0.5387  0.5831
 3019SOL    HW213996   6.191   0.913   7.475 -0.8041  0.6016  0.7290
 3020SOL     OW13997   5.890   4.575   5.854  0.6600  0.1650  0.1795
 3020SOL    HW113998   5.895   4.589   5.949  1.7812  1.3599 -0.0237
 3020SOL    HW213999   5.948   4.501   5.838  1.7617  0.9995  0.2499
 3021SOL     OW14000   5.464   5.142   2.326 -0.5718 -0.4548 -0.3625
 3021SOL    HW114001   5.432   5.161   2.414 -1.3447  0.7097 -0.8736
 3021SOL    HW214002   5.535   5.079   2.340  1.7038  2.2923  1.4050
 3022SOL     OW14003   7.909   6.361   5.432 -0.5965 -0.0282  0.6267
 3022SOL    HW114004   7.958   6.310   5.496 -2.1790 -1.6601  0.6211
 3022SOL    HW214005   7.843   6.408   5.483 -1.0452 -0.3280  0.3299
 3023SOL     OW14006   7.061   2.080   1.705 -0.2831  0.5131  0.2191
 3023SOL    HW114007   7.031   2.068   1.615  0.4805 -1.6208  0.1810
 3023SOL    HW214008   7.108   2.163   1.704  2.0173 -0.6884 -2.0774
 3024SOL     OW14009   0.943   8.707   2.703 -0.2045 -0.7372  0.1145
 3024SOL    HW114010   0.899   8.623   2.687 -0.1125 -0.4680 -1.8370
 3024SOL    HW214011   1.035   8.690   2.683 -0.0420 -0.3564  0.5189
 3025SOL     OW14012   8.451   3.884   3.194 -0.2008 -0.4964 -0.4768
 3025SOL    HW114013   8.431   3.817   3.128  0.9911 -2.0649  0.6542
 3025SOL    HW214014   8.509   3.945   3.150 -0.4060 -0.8316 -1.2278
 3026SOL     OW14015   1.415  10.960   1.690  0.3909 -0.3171 -0.0276
 3026SOL    HW114016   1.367  10.912   1.622  0.7584 -0.8024  0.0483
 3026SOL    HW214017   1.385  11.050   1.682 -0.9670 -0.7122  0.3926
 3027SOL     OW14018   7.954   7.252   8.521  0.0750  0.0107  0.1446
 3027SOL    HW114019   7.973   7.345   8.535 -1.2130  0.2822  0.2247
 3027SOL    HW214020   7.924   7.247   8.431 -2.4766  0.1605  0.9211
 3028SOL     OW14021  10.685   7.914  10.415  0.4233  0.1222 -0.0113
 3028SOL    HW114022  10.656   7.895  10.504  1.0961 -0.4616  0.0892
 3028SOL    HW214023  10.687   7.829  10.371  1.4034  0.2188 -0.1810
 3029SOL     OW14024   4.200   7.397   4.653  0.1429 -0.1306  0.2315
 3029SOL    HW114025   4.114   7.366   4.623  0.4849 -0.2082 -0.7101
 3029SOL    HW214026   4.180   7.467   4.715 -0.6093 -0.9192  0.8998
 3030SOL     OW14027   3.006  10.811   5.598 -0.5413  0.2147  0.6601
 3030SOL    HW114028   2.959  10.733   5.568  1.1918 -0.6924  0.1159
 3030SOL    HW214029   3.035  10.854   5.518 -0.0786  0.4988  0.9733
 3031SOL     OW14030   0.497   0.230   1.683  0.3648 -0.3953 -0.7428
 3031SOL    HW114031   0.504   0.155   1.743 -0.7253  0.8018  0.9639
 3031SOL    HW214032   0.409   0.224   1.647  0.9269 -0.9613 -2.1118
 3032SOL     OW14033   6.885  11.159   4.303  0.9236  0.9206  0.7047
 3032SOL    HW114034   6.960  11.205   4.264  0.5751  0.8962 -0.0015
 3032SOL    HW214035   6.816  11.225   4.309  0.9903  0.9386  1.3433
 3033SOL     OW14036   9.457  10.633  10.028 -0.2011 -0.0100 -0.3292
 3033SOL    HW114037   9.527  10.696  10.012 -0.4294  0.1236 -0.8266
 3033SOL    HW214038   9.500  10.560  10.073 -0.0606  0.7808  0.8548
 3034SOL     OW14039   6.329  10.268   2.309  0.1282 -0.1391  0.6677
 3034SOL    HW114040   6.313  10.264   2.215  0.4043  0.6379  0.5837
 3034SOL    HW214041   6.248  10.235   2.348 -1.0942  2.1187  0.2057
 3035SOL     OW14042   3.968   2.957   6.557 -0.2944  0.0168  0.4723
 3035SOL    HW114043   3.897   2.979   6.618  0.5293 -0.2009  1.5436
 3035SOL    HW214044   4.041   2.932   6.614  0.4924 -0.2221 -0.6193
 3036SOL     OW14045   0.945  10.043   3.047 -0.0185  0.2522  0.2310
 3036SOL    HW114046   0.873  10.090   3.005  0.4947  0.7478 -0.1150
 3036SOL    HW214047   0.907  10.008   3.128 -1.1102 -0.9787 -0.7622
 3037SOL     OW14048   5.407   2.957   5.848 -0.7820 -0.1739  0.5464
 3037SOL    HW114049   5.395   2.964   5.942 -0.1218 -1.8255  0.7800
 3037SOL    HW214050   5.409   3.048   5.817 -1.3310  0.3794  2.0641
 3038SOL     OW14051   5.554   6.833   3.361  0.6740  0.0941 -0.4827
 3038SOL    HW114052   5.533   6.741   3.347 -1.5971  0.3641  0.5310
 3038SOL    HW214053   5.575   6.839   3.454 -1.2037  0.8433 -0.0539
 3039SOL     OW14054   8.207  10.058   5.833 -0.2145 -0.5029  0.2445
 3039SOL    HW114055   8.296  10.085   5.855 -0.0637 -1.1219  0.4341
 3039SOL    HW214056   8.213   9.963   5.820 -0.7914 -0.5103 -0.0176
 3040SOL     OW14057   7.707   9.629  10.901 -0.2596 -0.8772  0.8581
 3040SOL    HW114058   7.649   9.660  10.831 -0.1776 -0.7945  0.8268
 3040SOL    HW214059   7.671   9.543  10.925  0.3461 -1.3938 -0.0273
 3041SOL     OW14060   5.663   1.133   2.214  0.5143 -0.2652  0.2433
 3041SOL    HW114061   5.659   1.139   2.119 -0.1383 -0.2006  0.2683
 3041SOL    HW214062   5.743   1.178   2.238  1.1426 -1.0463 -0.3398
 3042SOL     OW14063   8.321   4.473   7.242  0.2927 -0.1021 -0.2386
 3042SOL    HW114064   8.257   4.530   7.285 -1.3754 -1.5217 -0.7023
 3042SOL    HW214065   8.406   4.512   7.262 -0.7032  1.7840  0.5310
 3043SOL     OW14066   8.879   9.965   2.817  0.5584  0.0002  0.1882
 3043SOL    HW114067   8.802  10.019   2.800  0.0269 -0.3562  1.3418
 3043SOL    HW214068   8.938   9.983   2.743 -1.0295 -0.5103 -1.2620
 3044SOL     OW14069   6.489   0.199   7.906 -0.7259 -0.1300  0.2852
 3044SOL    HW114070   6.538   0.121   7.882 -0.1533  0.3396 -0.0824
 3044SOL    HW214071   6.474   0.245   7.823 -1.3744 -0.0265  0.4491
 3045SOL     OW14072   4.943   8.209  10.123  0.4269 -0.9977  0.0335
 3045SOL    HW114073   4.856   8.195  10.162  0.8089 -0.7199  1.0184
 3045SOL    HW214074   4.926   8.264  10.046 -0.1151  0.3970  1.1145
 3046SOL     OW14075   1.562   1.913   4.155  0.0984  0.3186  0.2822
 3046SOL    HW114076   1.596   1.923   4.066 -0.6640  1.1226  0.0595
 3046SOL    HW214077   1.591   1.826   4.182  0.0840 -0.0707 -0.8754
 3047SOL     OW14078   8.037   6.573   1.241  0.2298 -0.3933 -0.0639
 3047SOL    HW114079   7.969   6.626   1.281  1.9302  2.9694 -1.1861
 3047SOL    HW214080   8.023   6.583   1.147  2.0752  0.2688 -0.3225
 3048SOL     OW14081   6.646   5.141   8.540  0.0045 -0.2936  0.0612
 3048SOL    HW114082   6.607   5.092   8.612 -0.2630  0.5899  0.5234
 3048SOL    HW214083   6.619   5.231   8.555  0.2144 -0.0494 -0.9676
 3049SOL     OW14084   6.858  10.971   2.825  0.2827 -0.2301  0.2609
 3049SOL    HW114085   6.794  10.936   2.887  1.2255  0.7974  1.9220
 3049SOL    HW214086   6.806  10.999   2.750 -0.9740 -1.1551  0.7482
 3050SOL     OW14087   4.415   9.279   5.451 -0.1579  0.0184 -0.5293
 3050SOL    HW114088   4.329   9.312   5.477 -0.1146 -0.3847  0.1349
 3050SOL    HW214089   4.420   9.298   5.358 -0.9261  0.1416 -0.5553
 3051SOL     OW14090   4.446   2.054   2.517 -0.5010  0.0552  0.5700
 3051SOL    HW114091   4.527   2.011   2.546 -0.1052  0.3158 -0.1204
 3051SOL    HW214092   4.376   1.992   2.540 -0.3397  0.7275  3.0838
 3052SOL     OW14093   7.955   6.492  10.575 -0.0725 -0.0686 -0.3261
 3052SOL    HW114094   8.047   6.471  10.595 -0.3833 -0.1265  1.2054
 3052SOL    HW214095   7.909   6.475  10.657 -1.3741  0.5001 -0.9161
 3053SOL     OW14096   5.787   5.955   8.561 -0.7386 -0.0016  0.1380
 3053SOL    HW114097   5.725   6.028   8.559  0.2412  0.8347 -0.5273
 3053SOL    HW214098   5.837   5.963   8.480 -0.1375 -0.9941  0.3930
 3054SOL     OW14099   7.980   8.303   5.932 -0.1201  0.1018  0.1648
 3054SOL    HW114100   7.963   8.394   5.905 -0.6302  0.1433  0.6093
 3054SOL    HW214101   8.050   8.274   5.874  1.0983  1.2543  0.9825
 3055SOL     OW14102  10.672   2.591   6.099  0.2824  0.1815  0.0468
 3055SOL    HW114103  10.677   2.641   6.018 -0.3635 -1.2021 -0.8812
 3055SOL    HW214104  10.695   2.501   6.075 -1.4750 -0.6058  1.0309
 3056SOL     OW14105   8.297   1.345   6.214  0.8694  0.4227 -0.2593
 3056SOL    HW114106   8.303   1.438   6.191  1.7401  0.2307 -0.8845
 3056SOL    HW214107   8.350   1.301   6.148 -0.1649 -0.6053 -0.4311
 3057SOL     OW14108   6.209   4.205   9.144  0.2394 -0.7280  0.0210
 3057SOL    HW114109   6.212   4.281   9.085  3.2860 -2.5835 -2.5192
 3057SOL    HW214110   6.263   4.232   9.219  0.6163 -0.0932 -0.4629
 3058SOL     OW14111  10.725   3.078   2.833  0.3646 -0.5300  0.3689
 3058SOL    HW114112  10.694   3.136   2.763  0.7478  1.3715  1.7091
 3058SOL    HW214113  10.664   3.094   2.905  0.3404 -2.0100  0.6976
 3059SOL     OW14114   5.466   7.241   4.844  0.1266 -0.4417  0.6516
 3059SOL    HW114115   5.402   7.173   4.824 -0.7316  0.4970  0.0776
 3059SOL    HW214116   5.528   7.238   4.772  0.0638 -0.5971  0.6048
 3060SOL     OW14117   7.054   5.101   7.265  0.0135 -0.4751  0.4008
 3060SOL    HW114118   6.972   5.125   7.307  0.8978  0.0513  1.9010
 3060SOL    HW214119   7.099   5.047   7.329  0.8792 -0.6908 -0.3686
 3061SOL     OW14120   7.213   1.970   8.782  0.0313 -0.8087 -0.3074
 3061SOL    HW114121   7.209   2.058   8.743 -0.5409 -0.3000  0.8210
 3061SOL    HW214122   7.176   1.912   8.716 -0.7674 -0.0014 -0.5910
 3062SOL     OW14123   1.862   1.842   0.309  0.8062 -0.1462 -0.1916
 3062SOL    HW114124   1.825   1.930   0.309 -0.3976 -0.6292 -0.7132
 3062SOL    HW214125   1.957   1.855   0.309  0.6362  1.1424 -0.2252
 3063SOL     OW14126   8.618   4.990   0.769 -0.9877 -0.4377 -0.1495
 3063SOL    HW114127   8.591   4.939   0.845 -1.0500 -2.7372 -1.5866
 3063SOL    HW214128   8.554   4.966   0.701 -0.5473  1.0003 -1.1068
 3064SOL     OW14129   3.596   4.472   2.235  0.4935  0.3119 -0.1827
 3064SOL    HW114130   3.564   4.382   2.232  0.3088  0.3462  0.5534
 3064SOL    HW214131   3.678   4.468   2.284 -0.8898  0.8977  2.3405
 3065SOL     OW14132   8.502   2.437   3.343  0.1747 -0.1475  0.4698
 3065SOL    HW114133   8.433   2.383   3.380 -0.1648  0.1392  0.2766
 3065SOL    HW214134   8.519   2.399   3.257 -2.0655  1.6459 -0.9035
 3066SOL     OW14135   8.502  11.010   3.286 -0.5656  0.4041 -0.5867
 3066SOL    HW114136   8.525  10.935   3.231  0.2546 -1.1764  1.7342
 3066SOL    HW214137   8.407  11.020   3.276 -1.3911 -3.3037  1.5948
 3067SOL     OW14138  10.126   2.626   1.274 -0.1738  0.4164  0.4763
 3067SOL    HW114139  10.081   2.630   1.190  0.1441  3.8047  0.3472
 3067SOL    HW214140  10.078   2.688   1.329  0.1799 -1.0580  2.5635
 3068SOL     OW14141   6.105   2.971   6.126  0.3761 -0.2411 -0.2834
 3068SOL    HW114142   6.154   2.962   6.043 -1.3690 -0.4417 -1.3363
 3068SOL    HW214143   6.101   2.882   6.161  2.7551  0.0941  1.0700
 3069SOL     OW14144   3.657   6.858  10.271  0.3866 -0.2059  0.4997
 3069SOL    HW114145   3.643   6.942  10.228 -0.4961 -0.9290 -0.6897
 3069SOL    HW214146   3.720   6.877  10.341  1.6937  1.0692 -0.9465
 3070SOL     OW14147   3.936   9.961   7.681  0.1516  0.1122 -0.4684
 3070SOL    HW114148   4.001   9.992   7.744  0.7932 -0.4972 -0.8141
 3070SOL    HW214149   3.954  10.011   7.601 -0.2209  0.4011 -0.3711
 3071SOL     OW14150   6.873   5.343   0.736 -0.0895 -0.5561  0.1378
 3071SOL    HW114151   6.877   5.269   0.796  1.8145 -0.7459 -0.1598
 3071SOL    HW214152   6.841   5.306   0.654 -0.2724 -0.7977  0.3173
 3072SOL     OW14153   9.733   8.188  11.114  0.4638 -0.0880 -0.4056
 3072SOL    HW114154   9.670   8.235  11.060 -1.2839 -0.9163  0.7961
 3072SOL    HW214155   9.789   8.142  11.052 -0.0540  0.7461 -1.5205
 3073SOL     OW14156   5.950   0.966  11.472 -0.2272  0.4264  0.6986
 3073SOL    HW114157   5.894   1.034  11.434  0.6846  0.6781 -0.2214
 3073SOL    HW214158   5.888   0.906  11.514 -1.4522 -0.5080 -2.1455
 3074SOL     OW14159   5.941   8.259   9.895 -0.7028  0.0829  0.1549
 3074SOL    HW114160   6.007   8.316   9.935  1.2295 -0.5405 -1.9671
 3074SOL    HW214161   5.944   8.178   9.946 -0.3844  0.3344  0.5355
 3075SOL     OW14162  10.110   8.587   8.663  0.3799 -0.3383  0.1443
 3075SOL    HW114163  10.096   8.653   8.731  3.2650  0.3605  0.1690
 3075SOL    HW214164  10.158   8.517   8.708  1.8016 -0.1348 -1.0043
 3076SOL     OW14165   9.419   4.413   0.643 -0.5001 -0.2958 -0.1833
 3076SOL    HW114166   9.503   4.417   0.691 -1.1318 -0.1774  0.9574
 3076SOL    HW214167   9.426   4.483   0.578  0.8611 -1.2369 -1.1122
 3077SOL     OW14168   9.048   3.602   9.751  0.2615  0.1349  0.4823
 3077SOL    HW114169   9.022   3.574   9.838 -1.3189 -0.1854 -0.0669
 3077SOL    HW214170   9.066   3.696   9.760  2.0167 -0.2441  1.5331
 3078SOL     OW14171   3.126   3.958   1.862  0.5625 -0.0660 -0.8917
 3078SOL    HW114172   3.171   3.874   1.852  0.6284  0.2054 -3.5829
 3078SOL    HW214173   3.117   3.969   1.957  2.5179 -2.0432 -0.3847
 3079SOL     OW14174  10.191   0.508   3.236  0.4260  0.0915 -0.3710
 3079SOL    HW114175  10.118   0.567   3.253  0.1302 -0.0343 -1.1334
 3079SOL    HW214176  10.250   0.558   3.178  0.0803 -0.4092 -1.1750
 3080SOL     OW14177   5.309  10.227   1.857  0.4579  0.2171  0.1444
 3080SOL    HW114178   5.238  10.290   1.867  1.1992  1.0603  0.2165
 3080SOL    HW214179   5.346  10.218   1.945 -0.2341 -1.0713  0.3425
 3081SOL     OW14180   6.924   0.457   0.312 -0.1589 -0.0312 -0.1222
 3081SOL    HW114181   6.892   0.533   0.360  0.4901 -0.4680  1.0413
 3081SOL    HW214182   6.844   0.414   0.280 -0.5131  1.4829 -1.4155
 3082SOL     OW14183   0.768   4.217  10.676 -0.4984  0.1348 -0.6459
 3082SOL    HW114184   0.846   4.271  10.664  0.3322 -0.9027 -0.0209
 3082SOL    HW214185   0.766   4.160  10.599 -0.5693  0.0768 -0.6015
 3083SOL     OW14186   7.249   1.821   0.237 -0.1257 -0.7099 -0.4319
 3083SOL    HW114187   7.180   1.884   0.217 -0.3178 -0.4394  0.9736
 3083SOL    HW214188   7.300   1.815   0.156 -1.4449 -0.4874 -1.3116
 3084SOL     OW14189   7.439   0.579   0.579  0.0038 -0.2165 -0.2136
 3084SOL    HW114190   7.465   0.669   0.562  0.5389 -0.6056 -1.5650
 3084SOL    HW214191   7.504   0.526   0.533 -1.9201 -1.2617 -1.8691
 3085SOL     OW14192   7.297   4.405   2.170 -0.2376  0.6854  0.7046
 3085SOL    HW114193   7.348   4.437   2.096 -1.7100  0.9784 -0.2243
 3085SOL    HW214194   7.278   4.483   2.222  1.7801  0.3220  2.0711
 3086SOL     OW14195   4.909   1.709   0.070  0.0712 -0.1708 -0.0818
 3086SOL    HW114196   4.888   1.799   0.095  0.7935  0.1923 -0.7295
 3086SOL    HW214197   4.824   1.664   0.070  0.0374 -0.3102  3.2389
 3087SOL     OW14198   8.426   7.367   5.348 -0.2055 -0.3110 -0.0260
 3087SOL    HW114199   8.439   7.281   5.307  2.1237 -1.0764  2.0661
 3087SOL    HW214200   8.441   7.430   5.278  0.2811 -1.5921 -1.1176
 3088SOL     OW14201  10.168   7.828   6.713 -0.2457 -0.1587  0.0590
 3088SOL    HW114202  10.163   7.886   6.789 -1.8984  1.9502 -1.5322
 3088SOL    HW214203  10.157   7.886   6.637 -1.9271 -2.5191 -1.6652
 3089SOL     OW14204   3.325   2.239   2.840  0.0908 -0.3042 -0.4461
 3089SOL    HW114205   3.331   2.206   2.751 -0.2670 -1.4130 -0.0829
 3089SOL    HW214206   3.410   2.218   2.880 -0.5142 -1.8492  0.1092
 3090SOL     OW14207   9.057   0.718   2.432  0.1931 -0.2288 -0.3347
 3090SOL    HW114208   9.015   0.776   2.495 -2.0798 -1.3848 -0.6574
 3090SOL    HW214209   9.111   0.659   2.485  0.7327  0.7327  0.2012
 3091SOL     OW14210  10.665  10.360   5.675 -0.0978 -0.5978 -0.7357
 3091SOL    HW114211  10.695  10.270   5.684  0.6199 -0.3790 -0.9012
 3091SOL    HW214212  10.580  10.361   5.719  0.4330 -1.0709  0.3537
 3092SOL     OW14213   1.514   0.619   5.745 -0.3287  0.4053  0.6253
 3092SOL    HW114214   1.533   0.526   5.748  0.0811  0.4994  1.2215
 3092SOL    HW214215   1.418   0.624   5.750 -0.3334  0.0269  0.9477
 3093SOL     OW14216   7.210   8.396   2.667  0.1384  0.2944 -0.2620
 3093SOL    HW114217   7.131   8.344   2.681 -0.8494  0.6574 -3.5851
 3093SOL    HW214218   7.180   8.487   2.673  0.1498  0.4373 -1.8100
 3094SOL     OW14219   0.368   5.877   4.824  0.6461  0.4499  0.5353
 3094SOL    HW114220   0.449   5.826   4.830 -0.4873 -1.6917 -0.9358
 3094SOL    HW214221   0.300   5.819   4.857 -0.6239  1.2367 -0.5506
 3095SOL     OW14222   4.088   9.635   5.714 -0.3448  0.1912  0.2539
 3095SOL    HW114223   4.081   9.683   5.797  0.1368  1.2763 -0.3125
 3095SOL    HW214224   4.037   9.687   5.652 -0.9722 -0.7870 -0.0720
 3096SOL     OW14225   4.293   1.796   7.314  0.4497 -0.0247  0.3599
 3096SOL    HW114226   4.373   1.756   7.281  0.1335  0.8427 -1.5699
 3096SOL    HW214227   4.317   1.886   7.333 -0.3883  0.7223 -1.8240
 3097SOL     OW14228   5.060   2.520   8.661 -0.1482  0.0627 -0.3160
 3097SOL    HW114229   5.017   2.449   8.709  0.9308 -0.7546 -0.5162
 3097SOL    HW214230   5.145   2.484   8.636 -0.2704  0.8155 -1.9591
 3098SOL     OW14231   7.659   6.016   6.487  0.0309 -0.5139 -0.0213
 3098SOL    HW114232   7.578   6.021   6.539 -1.2657 -1.3275 -1.8377
 3098SOL    HW214233   7.705   5.940   6.522  0.2510  0.2017  1.3097
 3099SOL     OW14234   0.887   6.613   0.533 -0.0081  0.1408 -0.1589
 3099SOL    HW114235   0.930   6.694   0.562 -0.8588  0.0859  1.3504
 3099SOL    HW214236   0.953   6.545   0.546 -0.5284  0.0232  2.3533
 3100SOL     OW14237   9.686   8.916   3.292 -0.1632 -0.9781  0.2736
 3100SOL    HW114238   9.737   8.949   3.219 -2.7650  1.7720 -0.4864
 3100SOL    HW214239   9.620   8.859   3.252  0.4718 -2.2281  0.9277
 3101SOL     OW14240   4.204   4.839   0.768  0.3239  0.4721 -0.4261
 3101SOL    HW114241   4.243   4.755   0.743 -0.4374 -0.1621  0.4264
 3101SOL    HW214242   4.235   4.901   0.702  1.4032 -0.3479 -0.7103
 3102SOL     OW14243   5.887   5.733  10.858  0.7298 -0.2278 -0.0522
 3102SOL    HW114244   5.881   5.780  10.942  0.8935 -2.0906  1.0698
 3102SOL    HW214245   5.978   5.703  10.855  0.5151 -0.8370 -0.5183
 3103SOL     OW14246   1.005   7.252  10.516 -0.9088  0.0083 -0.6848
 3103SOL    HW114247   1.017   7.330  10.462 -0.8132  1.1033  0.8570
 3103SOL    HW214248   0.910   7.242  10.522 -1.0588  1.8944  1.6030
 3104SOL     OW14249   1.584   2.067   1.213  0.0926 -0.2822  0.2248
 3104SOL    HW114250   1.569   2.144   1.268 -0.0889  0.3085 -0.6341
 3104SOL    HW214251   1.666   2.086   1.168  0.1413 -0.6778  0.1461
 3105SOL     OW14252   6.645   1.846   1.554 -0.2845 -0.5250  0.0984
 3105SOL    HW114253   6.623   1.775   1.614 -2.2951  1.7547  2.2945
 3105SOL    HW214254   6.573   1.849   1.491 -0.6267  0.0344  0.5069
 3106SOL     OW14255   7.282   2.341   9.550  0.6955 -0.1967 -0.0398
 3106SOL    HW114256   7.351   2.329   9.616  0.6070 -0.8193 -0.0489
 3106SOL    HW214257   7.229   2.414   9.583  0.8636 -0.2709  0.3977
 3107SOL     OW14258   4.856   3.656   6.575  0.3567 -0.0190  0.0923
 3107SOL    HW114259   4.908   3.627   6.651  2.1784  0.6624 -0.8226
 3107SOL    HW214260   4.769   3.673   6.611  0.0825 -3.2123  1.3287
 3108SOL     OW14261   1.691   2.545   1.541  0.3462 -0.0803  0.3806
 3108SOL    HW114262   1.763   2.489   1.513  0.2023 -0.4456  0.7341
 3108SOL    HW214263   1.624   2.534   1.473 -0.6607 -2.2173  1.6224
 3109SOL     OW14264  10.400   0.910   1.109 -0.4222 -0.3208  0.2018
 3109SOL    HW114265  10.350   0.981   1.067 -0.7189 -0.2348  0.6925
 3109SOL    HW214266  10.491   0.937   1.099 -0.4306 -0.6996 -1.1041
 3110SOL     OW14267   6.214  10.045  10.514 -0.1293 -0.1379  0.0159
 3110SOL    HW114268   6.200   9.957  10.550 -0.6715  0.7974  2.2730
 3110SOL    HW214269   6.126  10.076  10.492 -0.0069  0.1129 -0.1326
 3111SOL     OW14270   4.108  11.403   1.345  0.6071  0.2186  0.0831
 3111SOL    HW114271   4.118  11.376   1.436  1.0927 -1.1055 -0.3454
 3111SOL    HW214272   4.183  11.363   1.300  0.6721  1.2989 -0.8052
 3112SOL     OW14273   1.939   1.436   0.283 -0.5732  0.0400 -0.0224
 3112SOL    HW114274   1.860   1.397   0.247 -1.3798  0.5354  1.1462
 3112SOL    HW214275   1.952   1.516   0.232 -0.3045 -0.5032 -0.8121
 3113SOL     OW14276  11.625   5.370   3.061  0.7502 -0.4461  0.2017
 3113SOL    HW114277  11.577   5.346   3.140  1.3746 -1.1036  0.3934
 3113SOL    HW214278  11.556   5.386   2.995  0.2625 -0.9763  0.5753
 3114SOL     OW14279   2.673   1.597   8.650  0.3372  0.3225  0.4952
 3114SOL    HW114280   2.659   1.558   8.736  0.1302 -0.6422  0.0344
 3114SOL    HW214281   2.715   1.528   8.599  0.8391  1.0257 -0.0590
 3115SOL     OW14282   1.733   8.248   8.853  0.1134 -0.0511  0.4532
 3115SOL    HW114283   1.816   8.213   8.822 -0.3766 -0.5120 -0.3551
 3115SOL    HW214284   1.690   8.283   8.775 -1.3473 -1.6807  0.4541
 3116SOL     OW14285   6.531   9.989   4.749  0.9827  0.4425 -0.4106
 3116SOL    HW114286   6.466   9.918   4.756 -0.6471  1.7432 -1.4783
 3116SOL    HW214287   6.605   9.950   4.703  0.0200 -0.5260 -1.1814
 3117SOL     OW14288   4.641   6.005  10.215  0.1141 -0.4038 -0.2857
 3117SOL    HW114289   4.587   5.941  10.262 -0.8583  1.4355  1.2262
 3117SOL    HW214290   4.579   6.068  10.179  1.1604  1.2398  0.6751
 3118SOL     OW14291  10.947   9.701   8.149  0.0912 -0.8325 -0.0321
 3118SOL    HW114292  10.924   9.668   8.236  0.1130 -3.7820 -1.0264
 3118SOL    HW214293  10.995   9.629   8.108 -0.7155  0.0866 -2.8288
 3119SOL     OW14294   7.168   2.183   7.360  0.4523  0.3423 -0.9265
 3119SOL    HW114295   7.165   2.238   7.438 -1.5686 -0.3335 -0.4715
 3119SOL    HW214296   7.143   2.241   7.289 -0.1130  0.3875 -0.6942
 3120SOL     OW14297   5.386   1.575   9.293  0.3013 -0.0111 -0.3899
 3120SOL    HW114298   5.383   1.635   9.367  0.9609 -0.7715  0.2778
 3120SOL    HW214299   5.362   1.490   9.330  3.4370 -1.0031 -0.3546
 3121SOL     OW14300   3.489   9.722   5.459 -0.4722  0.0022 -0.2068
 3121SOL    HW114301   3.490   9.753   5.368  2.2128 -0.3090 -0.3851
 3121SOL    HW214302   3.530   9.636   5.455  1.0945  0.6099  1.4428
 3122SOL     OW14303   9.581   3.234   8.204 -0.5294  0.2590  0.5518
 3122SOL    HW114304   9.514   3.268   8.263 -2.0898 -1.7000  0.0147
 3122SOL    HW214305   9.553   3.145   8.185  1.1591  0.0621 -1.3383
 3123SOL     OW14306   8.174   0.783  11.083 -0.0658 -0.0533 -0.1044
 3123SOL    HW114307   8.079   0.779  11.091 -0.0983 -0.4584 -0.6684
 3123SOL    HW214308   8.198   0.703  11.037  0.2212  1.4372 -2.7952
 3124SOL     OW14309  10.421   2.245   0.270 -0.4588 -0.2283  0.2073
 3124SOL    HW114310  10.395   2.157   0.296 -0.5291 -0.0518  0.7678
 3124SOL    HW214311  10.500   2.263   0.322 -1.5151  0.7410  1.5812
 3125SOL     OW14312   7.347   3.238   6.337 -0.3559  0.0377  0.4930
 3125SOL    HW114313   7.318   3.329   6.327 -0.5024  0.0099  0.6590
 3125SOL    HW214314   7.359   3.226   6.431 -3.1680 -0.9528  0.8529
 3126SOL     OW14315   6.318   0.827   4.886 -0.1857  0.4695  0.1523
 3126SOL    HW114316   6.339   0.741   4.848  1.6298  0.8979  0.0624
 3126SOL    HW214317   6.225   0.823   4.904 -0.5748 -0.7831 -1.7636
 3127SOL     OW14318   0.703   5.363   9.766  0.2769 -0.1259 -0.1262
 3127SOL    HW114319   0.615   5.375   9.802  0.9702  2.1372  0.9708
 3127SOL    HW214320   0.688   5.345   9.673 -1.4218 -2.9595  0.5676
 3128SOL     OW14321   0.562   2.116   3.051 -0.0967  0.3093 -0.5637
 3128SOL    HW114322   0.540   2.176   3.122 -0.6466 -0.0447 -0.4224
 3128SOL    HW214323   0.593   2.037   3.096 -1.4810 -0.3234 -0.6631
 3129SOL     OW14324  11.529   1.031   0.012 -0.2598  0.4516  0.5383
 3129SOL    HW114325  11.555   1.080  -0.066  1.0248 -3.0468 -1.4323
 3129SOL    HW214326  11.581   1.069   0.083  0.7081  1.8579 -0.8800
 3130SOL     OW14327   2.815   1.322  11.245 -0.0948  0.0099  0.1076
 3130SOL    HW114328   2.881   1.269  11.289  0.7235  0.3706 -0.6682
 3130SOL    HW214329   2.765   1.362  11.317  1.7228  1.2423  0.7391
 3131SOL     OW14330   4.050   5.414   2.884  0.0094  0.4798 -0.0030
 3131SOL    HW114331   4.082   5.347   2.823  0.3714 -0.7085  1.4433
 3131SOL    HW214332   4.106   5.405   2.961 -0.4486  1.9400  0.5315
 3132SOL     OW14333   8.453   2.308   9.978 -0.2024  0.1097  0.1909
 3132SOL    HW114334   8.411   2.256  10.047 -3.1059  0.0306 -1.4595
 3132SOL    HW214335   8.382   2.362   9.942  1.8264  2.2562 -0.8682
 3133SOL     OW14336   8.731   2.183   0.342 -0.7416  0.3587  0.0132
 3133SOL    HW114337   8.698   2.269   0.315  0.1625  0.5325 -0.5918
 3133SOL    HW214338   8.767   2.198   0.429 -0.7459  0.5566 -0.0166
 3134SOL     OW14339  11.185  10.448   1.168 -0.1629 -0.3104 -0.0748
 3134SOL    HW114340  11.268  10.461   1.214 -0.4583  0.7595  0.1796
 3134SOL    HW214341  11.142  10.533   1.172 -0.4434 -0.3434 -1.8637
 3135SOL     OW14342   2.979   2.222   7.431 -0.4039 -0.2351  0.0110
 3135SOL    HW114343   3.002   2.212   7.523 -0.3413  1.3172  0.1800
 3135SOL    HW214344   3.063   2.214   7.385 -0.2788  0.1367  0.1774
 3136SOL     OW14345   6.777   9.147   8.325  0.0932  0.1121 -0.5252
 3136SOL    HW114346   6.817   9.085   8.265  0.9478 -0.3701  0.5209
 3136SOL    HW214347   6.750   9.220   8.269 -0.5709 -1.0004 -1.7128
 3137SOL     OW14348   6.703   5.610   7.757  0.1598 -0.4688 -0.2909
 3137SOL    HW114349   6.772   5.632   7.695 -0.2618 -0.1593 -0.6494
 3137SOL    HW214350   6.749   5.601   7.841  0.5405  0.3509 -0.4087
 3138SOL     OW14351   1.295   3.468   6.731  0.5093 -0.0192 -0.3599
 3138SOL    HW114352   1.219   3.416   6.703 -0.9771  1.5969  0.4713
 3138SOL    HW214353   1.331   3.503   6.649 -1.5295  1.6371 -0.6343
 3139SOL     OW14354   5.051   2.362   1.871 -0.2126 -0.2495  0.1571
 3139SOL    HW114355   5.064   2.449   1.833  0.4480 -0.4853 -0.1703
 3139SOL    HW214356   5.023   2.379   1.961  0.0699  0.3001  0.1445
 3140SOL     OW14357   2.811   7.761   6.548  0.2196 -0.1138  0.3526
 3140SOL    HW114358   2.874   7.722   6.488  0.5230 -0.1504  0.6907
 3140SOL    HW214359   2.863   7.786   6.624 -0.3246 -1.1240  1.0892
 3141SOL     OW14360  11.401   8.263   2.963  0.3195 -0.1987  0.0404
 3141SOL    HW114361  11.435   8.242   2.876  0.2516  1.5015 -0.4406
 3141SOL    HW214362  11.355   8.184   2.991  0.5670 -0.8617 -1.3570
 3142SOL     OW14363  10.405   0.491  11.143  0.7220 -0.0321  0.1115
 3142SOL    HW114364  10.319   0.502  11.182  0.8958  0.4287  0.3702
 3142SOL    HW214365  10.438   0.409  11.181 -0.0568 -0.8333 -0.8665
 3143SOL     OW14366   7.380   4.779   4.021  0.1566 -0.5751  0.5671
 3143SOL    HW114367   7.404   4.701   3.971  1.6203 -0.2727  0.7378
 3143SOL    HW214368   7.464   4.816   4.048 -0.5696 -1.0359  3.7598
 3144SOL     OW14369   9.727  11.450   7.415  0.1235  0.3810  0.4595
 3144SOL    HW114370   9.678  11.408   7.345  0.7981  0.7513 -0.2489
 3144SOL    HW214371   9.817  11.453   7.383 -0.0032  2.9831  0.1950
 3145SOL     OW14372   7.598  10.071   6.264 -0.3677  0.1175 -0.5441
 3145SOL    HW114373   7.675  10.124   6.285 -0.8316  0.0291  1.5802
 3145SOL    HW214374   7.524  10.124   6.293 -0.8881 -1.2855  0.8202
 3146SOL     OW14375   5.140  10.345   0.590  0.6824 -0.0986  0.5296
 3146SOL    HW114376   5.045  10.338   0.595  0.7410 -1.0626  0.5108
 3146SOL    HW214377   5.172  10.282   0.654  1.3111  0.5226  0.8364
 3147SOL     OW14378   0.603   4.847   1.442  0.4579  0.1390  0.0855
 3147SOL    HW114379   0.603   4.935   1.480 -2.1907  0.1157  0.3755
 3147SOL    HW214380   0.599   4.789   1.518  1.2910 -0.2127 -0.1295
 3148SOL     OW14381   4.272   3.252   3.924 -0.1220  0.3193 -0.1400
 3148SOL    HW114382   4.331   3.188   3.964 -0.3999 -0.5026 -1.0026
 3148SOL    HW214383   4.189   3.239   3.969 -0.9901 -1.9507 -2.1487
 3149SOL     OW14384   9.258   2.915   0.235 -0.6215 -0.3299 -0.4641
 3149SOL    HW114385   9.241   2.845   0.172  1.1164 -0.6126 -0.6698
 3149SOL    HW214386   9.283   2.990   0.181 -1.2123  0.0734 -0.1878
 3150SOL     OW14387   1.128  10.206   4.631 -0.1031  0.5836 -0.7312
 3150SOL    HW114388   1.204  10.168   4.674 -2.9856 -1.8431  2.8749
 3150SOL    HW214389   1.145  10.300   4.632  2.0889  0.2817  1.5926
 3151SOL     OW14390   5.031   4.269   2.179 -0.0261 -0.0869 -0.1500
 3151SOL    HW114391   5.041   4.200   2.245 -1.0951 -1.2125 -1.1333
 3151SOL    HW214392   5.032   4.350   2.230  1.0031 -0.8170  1.0558
 3152SOL     OW14393   4.777  11.298  11.380  0.5582  0.7933 -0.3316
 3152SOL    HW114394   4.733  11.344  11.451 -3.5182 -1.6196 -0.9610
 3152SOL    HW214395   4.815  11.221  11.422  1.0682  1.0465 -0.3213
 3153SOL     OW14396   5.518   9.442   7.045 -0.4084  0.1991  0.3243
 3153SOL    HW114397   5.595   9.485   7.006  0.2395 -0.7754  0.5067
 3153SOL    HW214398   5.460   9.515   7.067  0.9008  1.0456  1.1368
 3154SOL     OW14399   9.032  10.919  10.077 -0.5104  0.0708  0.7915
 3154SOL    HW114400   9.000  10.863  10.006  1.2915 -0.1768  0.1102
 3154SOL    HW214401   9.033  10.862  10.154  0.9290 -0.7656  0.1930
 3155SOL     OW14402   0.138   8.842   9.306  0.0788 -0.0792  0.1393
 3155SOL    HW114403   0.120   8.903   9.234 -0.1619  1.0800  1.1348
 3155SOL    HW214404   0.181   8.767   9.265  1.5098  1.2926 -0.9962
 3156SOL     OW14405   5.759   4.847   9.431 -0.6296 -0.1279  0.1515
 3156SOL    HW114406   5.732   4.830   9.340 -0.5098  1.0167 -0.1080
 3156SOL    HW214407   5.696   4.912   9.462  0.9007  1.4689  0.0271
 3157SOL     OW14408   8.745   5.772   2.410 -0.0808  0.0346 -0.6361
 3157SOL    HW114409   8.762   5.684   2.379 -2.6185 -0.3592 -1.1026
 3157SOL    HW214410   8.713   5.819   2.334 -0.9442  0.6911  0.1096
 3158SOL     OW14411   3.335   2.024   5.068  0.1723  0.0407 -0.2601
 3158SOL    HW114412   3.393   1.975   5.126 -0.1035 -0.9903 -0.8285
 3158SOL    HW214413   3.267   2.059   5.126 -0.5234 -1.6011 -0.0322
 3159SOL     OW14414   1.012  10.694   1.793  0.1311  0.2478 -0.5916
 3159SOL    HW114415   1.074  10.623   1.807 -1.1844 -0.8466 -0.1473
 3159SOL    HW214416   0.976  10.678   1.705 -0.0416  0.4621 -0.5620
 3160SOL     OW14417   1.993  10.707   8.163  0.0825 -0.4478  0.3546
 3160SOL    HW114418   1.920  10.681   8.108 -0.0019 -1.3246  0.8665
 3160SOL    HW214419   1.953  10.762   8.231  0.0854  0.0694 -0.0596
 3161SOL     OW14420   9.613   4.923   7.756  1.0238  0.3739  0.4074
 3161SOL    HW114421   9.692   4.973   7.777  1.0249  0.0568  1.1848
 3161SOL    HW214422   9.645   4.849   7.704  1.2184  0.3405  0.5742
 3162SOL     OW14423   0.171   8.816   3.138 -0.0609 -0.2777 -0.0835
 3162SOL    HW114424   0.106   8.784   3.200  0.5510 -0.7261  0.3215
 3162SOL    HW214425   0.250   8.831   3.190 -0.2757  1.8040 -0.2568
 3163SOL     OW14426   4.465  10.243   3.319 -0.3223 -0.6105  0.2986
 3163SOL    HW114427   4.438  10.333   3.304  1.0254 -0.2043  0.1494
 3163SOL    HW214428   4.553  10.250   3.357  0.2536 -1.8691 -0.7115
 3164SOL     OW14429   0.104   4.201   6.741  0.0418 -0.0926 -0.1114
 3164SOL    HW114430   0.089   4.284   6.787 -1.0050 -0.4803  0.2703
 3164SOL    HW214431   0.096   4.223   6.648 -1.4046  0.0261  0.0230
 3165SOL     OW14432   9.256   3.844   4.268 -0.2182 -0.3439 -0.4765
 3165SOL    HW114433   9.306   3.812   4.343  1.2475 -0.4850 -1.4462
 3165SOL    HW214434   9.211   3.766   4.234  1.7122 -1.0353 -1.6207
 3166SOL     OW14435   4.109   5.681   6.067 -0.5034  0.4638 -0.1068
 3166SOL    HW114436   4.126   5.620   6.139 -1.0536  0.6351  0.1832
 3166SOL    HW214437   4.067   5.628   6.000 -0.7132  0.4607  0.0253
 3167SOL     OW14438  10.019   5.375   1.491 -0.0225  0.4354  0.0016
 3167SOL    HW114439   9.992   5.368   1.583  0.0792  0.6020  0.0439
 3167SOL    HW214440  10.113   5.389   1.495 -0.1620  1.4969 -0.0870
 3168SOL     OW14441   6.848   9.695   5.716 -0.1378  0.2823  0.1291
 3168SOL    HW114442   6.914   9.744   5.666 -0.3848  0.8486  0.3457
 3168SOL    HW214443   6.820   9.756   5.784 -3.3169  1.3679 -1.9462
 3169SOL     OW14444   3.328  10.055   9.314  0.8741 -0.4240 -0.3050
 3169SOL    HW114445   3.320  10.075   9.220 -0.4478 -0.8638 -0.3048
 3169SOL    HW214446   3.351  10.139   9.354 -0.1313  0.1311 -0.8437
 3170SOL     OW14447  11.517   7.736  10.265 -0.0727 -0.2095 -0.1580
 3170SOL    HW114448  11.586   7.694  10.214  0.7164 -0.0870  0.7849
 3170SOL    HW214449  11.506   7.681  10.342  0.1896  0.7073  0.5436
 3171SOL     OW14450  10.302  10.585   8.046  0.3067  0.1076 -0.6805
 3171SOL    HW114451  10.338  10.536   7.972 -1.0292  0.1074 -1.3560
 3171SOL    HW214452  10.358  10.663   8.051 -0.0878  0.5312 -2.2573
 3172SOL     OW14453   1.221   2.191   6.227 -0.7696  0.6167 -0.1387
 3172SOL    HW114454   1.225   2.164   6.135 -1.9776  0.1429 -0.0706
 3172SOL    HW214455   1.203   2.111   6.275 -1.3761  1.0550  0.3807
 3173SOL     OW14456   4.870   8.202  11.419 -0.3304 -0.0512 -0.2426
 3173SOL    HW114457   4.902   8.162  11.500 -1.8488 -0.5382  0.1528
 3173SOL    HW214458   4.932   8.273  11.401  1.0077 -1.0136  0.3948
 3174SOL     OW14459   0.192   2.976   3.466  0.4350 -0.1792 -0.0665
 3174SOL    HW114460   0.286   2.978   3.448  0.9312  0.1960  2.2413
 3174SOL    HW214461   0.178   2.893   3.512 -0.5339 -0.6361 -1.1589
 3175SOL     OW14462   4.044   7.633   4.362 -0.3922  0.4462  0.3470
 3175SOL    HW114463   3.964   7.597   4.399 -0.8634  1.2078  0.0921
 3175SOL    HW214464   4.017   7.671   4.279  0.3146  0.3638  0.0723
 3176SOL     OW14465   0.199   4.323   2.758 -0.3051 -0.0567  0.4107
 3176SOL    HW114466   0.271   4.281   2.712  0.8175 -0.1659  2.1671
 3176SOL    HW214467   0.237   4.402   2.796 -1.0503 -0.2022  1.4969
 3177SOL     OW14468   2.759   3.323   0.420  0.3053  0.2408  0.4493
 3177SOL    HW114469   2.798   3.272   0.350  0.2821  0.0971  0.5410
 3177SOL    HW214470   2.672   3.285   0.433 -0.0616  0.8781 -0.0913
 3178SOL     OW14471   0.144   4.730   2.235  0.4366 -0.3838  0.0434
 3178SOL    HW114472   0.174   4.814   2.200 -2.3991  0.9805  0.5861
 3178SOL    HW214473   0.059   4.715   2.193 -0.5144 -1.4503  2.1587
 3179SOL     OW14474   1.303   9.575   2.549 -0.3548 -0.1001 -0.3554
 3179SOL    HW114475   1.301   9.594   2.643  1.9766  1.5689 -0.5633
 3179SOL    HW214476   1.229   9.625   2.513 -0.2942  0.5347  0.3877
 3180SOL     OW14477   6.560   3.922   0.659 -0.6541 -0.5770  0.7327
 3180SOL    HW114478   6.654   3.938   0.673 -0.9497  0.7252  1.4137
 3180SOL    HW214479   6.517   3.975   0.725 -1.9276  0.1156 -0.5941
 3181SOL     OW14480  11.432   8.787   2.135 -0.2468  0.3777 -0.2239
 3181SOL    HW114481  11.432   8.869   2.086  0.2372  0.1262 -0.6529
 3181SOL    HW214482  11.366   8.733   2.092 -0.2667  0.3868 -0.2054
 3182SOL     OW14483   2.150   8.076   8.967  0.3095  0.0528 -0.5670
 3182SOL    HW114484   2.116   8.099   9.053 -1.1537 -1.8590 -0.5613
 3182SOL    HW214485   2.167   7.982   8.972  1.3867  0.1287 -1.9950
 3183SOL     OW14486   9.448  10.795   6.615 -0.0465 -0.6149  0.2746
 3183SOL    HW114487   9.523  10.850   6.638 -0.8166  0.1554  0.9980
 3183SOL    HW214488   9.476  10.707   6.641  0.0609 -0.1184  1.9838
 3184SOL     OW14489   7.344   2.879   8.774  0.6050 -0.3845 -0.3114
 3184SOL    HW114490   7.423   2.921   8.740  0.8116 -1.2406 -0.9078
 3184SOL    HW214491   7.292   2.952   8.809  1.6776  0.1869  0.1662
 3185SOL     OW14492   6.457  10.379   4.377 -0.0796 -0.2847  0.1319
 3185SOL    HW114493   6.536  10.392   4.430 -0.0333  1.5320 -0.2890
 3185SOL    HW214494   6.458  10.287   4.353  1.7274 -0.3730  0.4330
 3186SOL     OW14495   8.104   6.106   6.848  0.5063  0.3023  0.1213
 3186SOL    HW114496   8.136   6.048   6.917 -2.0846 -1.8724 -0.3408
 3186SOL    HW214497   8.082   6.187   6.893 -0.2342 -0.7308  1.7094
 3187SOL     OW14498   1.457   9.142  11.274 -0.1433  0.0348 -0.1407
 3187SOL    HW114499   1.424   9.161  11.362 -1.1619  0.3455 -0.5808
 3187SOL    HW214500   1.529   9.081  11.289  2.2328  2.9409  1.2084
 3188SOL     OW14501   4.497   2.699   5.624 -0.0244 -0.5196 -0.2859
 3188SOL    HW114502   4.546   2.618   5.640  0.1127 -0.9604 -2.6022
 3188SOL    HW214503   4.418   2.690   5.677  0.3606 -1.7927  0.1161
 3189SOL     OW14504  11.627   7.317   1.237 -0.4681  0.4750 -0.2824
 3189SOL    HW114505  11.655   7.294   1.326  0.7567 -1.2037 -1.0396
 3189SOL    HW214506  11.536   7.290   1.233  0.0877 -1.5223 -0.1888
 3190SOL     OW14507   2.907   4.998   0.302 -0.7311  0.3374  0.3138
 3190SOL    HW114508   2.816   4.991   0.332 -0.7448  1.3801  0.5827
 3190SOL    HW214509   2.959   4.986   0.382 -0.6971  1.1337  0.4249
 3191SOL     OW14510   7.319   8.950   0.264 -0.5384 -0.6516  0.1106
 3191SOL    HW114511   7.297   8.896   0.340  0.2499 -0.7903  0.2475
 3191SOL    HW214512   7.277   8.906   0.190 -0.3099 -1.1882  0.2931
 3192SOL     OW14513   6.361   2.345   5.576 -0.4791  0.7018  0.1894
 3192SOL    HW114514   6.295   2.281   5.551  0.3778 -0.1902  0.1517
 3192SOL    HW214515   6.409   2.304   5.647 -0.8384  1.9081  1.1642
 3193SOL     OW14516   9.580   6.734   2.506 -0.0149 -0.2988  0.3426
 3193SOL    HW114517   9.632   6.673   2.454  0.5157 -0.0583  0.5797
 3193SOL    HW214518   9.630   6.816   2.505 -0.6756  0.1121  0.0992
 3194SOL     OW14519   9.684   5.090   2.223 -0.7545 -1.2060  0.1524
 3194SOL    HW114520   9.614   5.035   2.186  0.2533 -2.1619 -0.4058
 3194SOL    HW214521   9.700   5.053   2.309 -1.1904 -0.7470  0.4326
 3195SOL     OW14522   9.115   0.553   7.041 -0.0743  0.3497 -0.3933
 3195SOL    HW114523   9.064   0.499   6.981  2.2636 -0.2489 -1.9754
 3195SOL    HW214524   9.161   0.615   6.984  2.4294 -0.4106  0.6308
 3196SOL     OW14525   5.447   0.043   0.887 -0.3515 -0.2606  0.2935
 3196SOL    HW114526   5.438   0.006   0.799 -0.7068 -1.2982  0.7477
 3196SOL    HW214527   5.483   0.130   0.873 -0.8123 -0.2436 -0.9091
 3197SOL     OW14528  11.581   4.954   5.300  0.0616 -0.0175  0.3034
 3197SOL    HW114529  11.619   5.013   5.236 -1.3867  0.2047 -0.3847
 3197SOL    HW214530  11.541   4.884   5.248  1.2610 -1.3261  1.0815
 3198SOL     OW14531  11.575   8.918   6.963  0.3206 -0.0259  0.4217
 3198SOL    HW114532  11.559   8.915   7.057 -0.4043  0.6298  0.3353
 3198SOL    HW214533  11.499   8.965   6.928 -0.7581 -2.4841 -0.7934
 3199SOL     OW14534   9.713   7.216   5.076 -0.5667 -0.1447 -0.1209
 3199SOL    HW114535   9.656   7.181   5.007 -0.9949  0.0332  0.1414
 3199SOL    HW214536   9.781   7.263   5.028 -0.0925 -1.1580 -0.4749
 3200SOL     OW14537   2.784   0.067   0.404  0.4576  0.7715  0.0692
 3200SOL    HW114538   2.769   0.161   0.412  0.7834  0.8288 -0.0040
 3200SOL    HW214539   2.879   0.057   0.410  0.3137  0.2565  2.2537
 3201SOL     OW14540   9.148   9.837   1.628 -0.1761 -0.1024  0.2762
 3201SOL    HW114541   9.100   9.861   1.548  2.7301 -0.9322 -1.8921
 3201SOL    HW214542   9.138   9.912   1.686 -0.6744  1.4626 -1.7279
 3202SOL     OW14543   6.266   8.211   7.379  0.2035  0.6770 -0.7164
 3202SOL    HW114544   6.235   8.214   7.469 -1.1190 -1.2921 -1.0490
 3202SOL    HW214545   6.311   8.127   7.372  1.4677  1.3865 -1.5656
 3203SOL     OW14546   5.814   1.018   9.102  0.7166 -0.0542 -0.4987
 3203SOL    HW114547   5.756   1.061   9.166 -1.3876  1.2208 -3.0394
 3203SOL    HW214548   5.808   0.925   9.123 -0.0901  0.2963  1.0101
 3204SOL     OW14549   0.879   9.340   6.320 -0.1254 -0.1263  0.1606
 3204SOL    HW114550   0.871   9.245   6.328 -2.7345  0.0635  0.6474
 3204SOL    HW214551   0.894   9.371   6.409  1.3187 -0.0782 -0.0728
 3205SOL     OW14552   1.312   5.335   7.945  0.3600 -0.2469 -0.4557
 3205SOL    HW114553   1.261   5.314   8.024  0.3665  3.5829  0.8052
 3205SOL    HW214554   1.262   5.404   7.902  3.1856  2.0035 -0.4554
 3206SOL     OW14555   2.420   6.042   4.144  0.2226  0.0069  0.1269
 3206SOL    HW114556   2.442   6.113   4.085 -0.6180 -0.9641 -1.4079
 3206SOL    HW214557   2.350   5.994   4.100 -0.5103 -0.7017  1.9568
 3207SOL     OW14558  10.507   4.383   7.879  0.0716 -0.1025 -0.4489
 3207SOL    HW114559  10.588   4.423   7.847  0.2925 -0.7011 -0.6501
 3207SOL    HW214560  10.483   4.320   7.812  0.3512 -1.1283  0.3932
 3208SOL     OW14561   6.967   5.288   5.005 -0.3486  0.3518 -0.3597
 3208SOL    HW114562   6.961   5.219   4.939  0.9020 -0.3163  0.2030
 3208SOL    HW214563   6.896   5.268   5.067 -2.1165  1.4957 -1.9058
 3209SOL     OW14564  10.016   7.176   7.372  0.2880  0.0428  0.5338
 3209SOL    HW114565   9.967   7.187   7.290  2.1432 -0.3788 -0.7182
 3209SOL    HW214566  10.046   7.085   7.369  2.1105  0.5886  0.6070
 3210SOL     OW14567  10.668   9.106   6.853  0.6005  0.1558  0.0642
 3210SOL    HW114568  10.718   9.156   6.789  3.5627 -1.8674  0.6316
 3210SOL    HW214569  10.658   9.165   6.927  1.0721  0.9961 -0.5277
 3211SOL     OW14570   4.727   7.507  10.052 -0.0314  0.1026 -0.2679
 3211SOL    HW114571   4.683   7.554  10.123  0.2314  1.1321 -0.7533
 3211SOL    HW214572   4.820   7.520  10.070  0.0420 -0.2624 -0.3916
 3212SOL     OW14573   2.884   5.348   0.992  0.4027  0.3702 -0.4112
 3212SOL    HW114574   2.962   5.292   0.993 -0.2660 -0.5944  0.8525
 3212SOL    HW214575   2.811   5.287   0.992 -0.3551  1.2555 -0.1248
 3213SOL     OW14576   2.584   1.942   6.175 -0.5168 -0.5355  0.1080
 3213SOL    HW114577   2.568   2.025   6.131 -0.1639 -0.7945 -0.5209
 3213SOL    HW214578   2.525   1.942   6.250 -1.6366 -0.3896 -0.7577
 3214SOL     OW14579   3.904   3.483   1.037 -0.2739 -0.1169  0.6446
 3214SOL    HW114580   3.927   3.450   0.950  0.0155  1.0936  0.2382
 3214SOL    HW214581   3.813   3.459   1.049  0.2576 -2.1874  0.9286
 3215SOL     OW14582   6.295   5.424   3.448  0.1797 -0.0837 -0.0224
 3215SOL    HW114583   6.274   5.397   3.537 -2.3833 -1.6377 -0.9670
 3215SOL    HW214584   6.328   5.345   3.406  1.2377  0.5992 -0.5285
 3216SOL     OW14585   7.628   5.142   8.648  0.4717  0.0442  0.2265
 3216SOL    HW114586   7.551   5.177   8.605  1.1246  0.7311 -0.4159
 3216SOL    HW214587   7.631   5.050   8.622 -0.1268  0.0151  0.2597
 3217SOL     OW14588   6.838   0.442   7.942 -0.4878 -0.7352  0.4449
 3217SOL    HW114589   6.905   0.486   7.994 -0.2166 -0.9221  0.2579
 3217SOL    HW214590   6.885   0.370   7.899 -0.6604 -0.4413 -0.2416
 3218SOL     OW14591   7.537   8.734   0.914 -0.1508 -0.1308 -0.3151
 3218SOL    HW114592   7.595   8.779   0.852 -0.8082  2.2653  0.6977
 3218SOL    HW214593   7.586   8.656   0.939  1.6717  0.6494 -1.1932
 3219SOL     OW14594   7.819   4.452  10.954  0.3807 -0.1912  0.0259
 3219SOL    HW114595   7.874   4.446  11.032 -0.2451  0.4327  0.5347
 3219SOL    HW214596   7.756   4.521  10.975  0.0643 -0.1670 -0.9503
 3220SOL     OW14597   6.853   8.001   8.148  0.3051 -0.0690  0.4243
 3220SOL    HW114598   6.863   7.908   8.130 -2.0650 -0.7101  1.9377
 3220SOL    HW214599   6.876   8.045   8.066 -0.9296 -2.1616 -1.1248
 3221SOL     OW14600   7.828   0.586   1.322  0.7253  0.1126  0.4730
 3221SOL    HW114601   7.860   0.637   1.397  1.3967  1.1369 -0.4868
 3221SOL    HW214602   7.865   0.499   1.336  2.8911  0.9084  0.1239
 3222SOL     OW14603   5.425   1.218   4.519 -0.4174  0.4287  0.6932
 3222SOL    HW114604   5.381   1.299   4.543  0.0666  0.8504  0.2099
 3222SOL    HW214605   5.473   1.240   4.439 -1.2204 -0.6566 -0.1183
 3223SOL     OW14606   4.358   3.521   0.266 -0.0802  0.5695  0.1088
 3223SOL    HW114607   4.352   3.470   0.348  0.4898 -0.5776 -0.5370
 3223SOL    HW214608   4.430   3.581   0.281  1.2117 -0.8506 -0.1530
 3224SOL     OW14609   6.352   5.936   5.243 -0.4592 -0.3817 -0.5866
 3224SOL    HW114610   6.262   5.968   5.231 -0.6167 -0.7205 -0.3238
 3224SOL    HW214611   6.387   5.932   5.154 -0.2797  0.9376 -0.5933
 3225SOL     OW14612  11.135   9.000   2.918  0.4873  0.0748  0.4065
 3225SOL    HW114613  11.214   9.046   2.947  1.1614  0.5703 -2.0118
 3225SOL    HW214614  11.068   9.026   2.980  2.4095 -1.3009  3.2834
 3226SOL     OW14615  10.512   9.320   4.572  0.4925  0.8780  0.5046
 3226SOL    HW114616  10.461   9.243   4.595  0.5790 -0.1364 -2.3355
 3226SOL    HW214617  10.550   9.349   4.655 -0.6956 -1.2511  1.8899
 3227SOL     OW14618   6.840   7.977   9.507 -0.3574  0.0872 -0.0147
 3227SOL    HW114619   6.844   8.059   9.557  0.7813 -0.2423  0.4521
 3227SOL    HW214620   6.897   7.993   9.432 -0.2700 -0.2294 -0.0137
 3228SOL     OW14621   5.162  10.638  10.510  0.6597  0.0011 -0.2724
 3228SOL    HW114622   5.215  10.603  10.582 -0.5674  1.1627  1.2588
 3228SOL    HW214623   5.205  10.720  10.486 -0.1691  0.7386  0.6931
 3229SOL     OW14624   7.917   6.114   6.393  0.1913 -0.7604 -0.2498
 3229SOL    HW114625   7.963   6.042   6.436 -1.2274 -0.9437  1.0590
 3229SOL    HW214626   7.829   6.110   6.429 -0.3718  0.6290 -1.4005
 3230SOL     OW14627   2.557   2.153  11.212 -0.0697 -0.0171 -0.1196
 3230SOL    HW114628   2.517   2.203  11.284  0.6548 -0.7280  0.8003
 3230SOL    HW214629   2.507   2.071  11.210  0.4619 -0.3509  0.1467
 3231SOL     OW14630  10.723   6.980   2.617 -0.0359  0.2141  0.1768
 3231SOL    HW114631  10.741   6.954   2.527  0.3303  3.0447 -0.6635
 3231SOL    HW214632  10.629   6.999   2.618  0.0055  0.4159  0.3281
 3232SOL     OW14633   0.697   6.762   9.400 -0.4073  0.1352  0.9854
 3232SOL    HW114634   0.610   6.795   9.422 -0.9310 -1.4554  1.4788
 3232SOL    HW214635   0.744   6.761   9.483 -0.3176 -0.0903  0.9324
 3233SOL     OW14636  10.373   2.680   7.623 -0.0505 -0.4397 -0.2535
 3233SOL    HW114637  10.356   2.738   7.697 -1.0010 -1.3046  0.2334
 3233SOL    HW214638  10.346   2.730   7.546  1.6319  0.7486 -0.1327
 3234SOL     OW14639   3.314  10.521   5.603 -0.4826 -0.0956  0.2094
 3234SOL    HW114640   3.227  10.485   5.621 -0.9289 -0.0402 -1.6085
 3234SOL    HW214641   3.316  10.604   5.651 -1.2499 -0.3293  0.6688
 3235SOL     OW14642   2.270   5.543   5.940  0.2616  0.0862 -0.0353
 3235SOL    HW114643   2.178   5.551   5.964  0.4889  0.7501  0.6907
 3235SOL    HW214644   2.305   5.477   6.000  0.5411  0.7968  0.6033
 3236SOL     OW14645   3.918   2.836   9.589 -0.0770 -0.4195  0.6154
 3236SOL    HW114646   3.952   2.774   9.525 -1.0456  0.9144 -1.3015
 3236SOL    HW214647   3.976   2.912   9.582  0.5905 -0.7393  2.3141
 3237SOL     OW14648  11.410   7.521   3.677 -0.5179  0.4561 -0.2380
 3237SOL    HW114649  11.462   7.496   3.753  0.4679 -0.0922 -1.0714
 3237SOL    HW214650  11.453   7.478   3.603 -2.8490 -1.0768 -0.8202
 3238SOL     OW14651   3.027   0.717   1.045  0.1874 -0.1605 -0.5163
 3238SOL    HW114652   3.005   0.636   1.090 -1.5784  0.1868 -0.6745
 3238SOL    HW214653   2.980   0.711   0.962  1.2750  0.3682 -1.1942
 3239SOL     OW14654   4.574   3.080   8.263  0.2273  0.1698  0.0267
 3239SOL    HW114655   4.480   3.075   8.246  0.6057 -2.6490 -1.9782
 3239SOL    HW214656   4.614   3.024   8.197  3.3647  1.1804  0.8529
 3240SOL     OW14657  10.248   6.365   6.036 -0.6978 -0.1669 -0.3872
 3240SOL    HW114658  10.267   6.320   6.118  1.2781 -0.4926 -0.9706
 3240SOL    HW214659  10.223   6.454   6.063 -2.0027 -0.8076  0.6340
 3241SOL     OW14660   8.403   8.222   3.515 -0.0814 -0.0894  0.4117
 3241SOL    HW114661   8.427   8.287   3.581 -0.6728 -0.4925  1.0471
 3241SOL    HW214662   8.457   8.242   3.439 -0.7840  1.6057  0.3223
 3242SOL     OW14663   2.858   5.162   5.853 -0.4143 -0.0491  0.2399
 3242SOL    HW114664   2.925   5.098   5.830 -1.2387 -0.2934 -1.6437
 3242SOL    HW214665   2.874   5.181   5.946  3.1560  0.9428 -0.3988
 3243SOL     OW14666   2.857   1.039   1.373 -0.3120  0.1800  0.1452
 3243SOL    HW114667   2.791   1.107   1.360  0.4433  0.9274  0.1589
 3243SOL    HW214668   2.900   1.030   1.288 -0.8570 -0.7739 -0.0432
 3244SOL     OW14669   6.828   2.442   0.840 -0.2821 -0.0804  0.0421
 3244SOL    HW114670   6.862   2.494   0.768  1.8975  3.1757  3.0605
 3244SOL    HW214671   6.773   2.503   0.890 -2.0181 -2.2802  1.0485
 3245SOL     OW14672   8.057  10.793   8.324 -0.1533  0.4506 -0.2753
 3245SOL    HW114673   7.994  10.847   8.371 -0.2495 -0.1324  0.2906
 3245SOL    HW214674   8.053  10.708   8.368 -0.1693 -0.0886 -1.2767
 3246SOL     OW14675   2.173   1.601   4.696  0.1865  0.0468 -0.3054
 3246SOL    HW114676   2.103   1.560   4.747 -1.8047  2.6195 -0.7242
 3246SOL    HW214677   2.128   1.667   4.644  2.9954  2.2207 -0.2029
 3247SOL     OW14678  10.816   5.141   3.455  0.0050  0.6947  0.9015
 3247SOL    HW114679  10.910   5.141   3.473 -0.0715 -0.7903  1.4081
 3247SOL    HW214680  10.803   5.071   3.392 -0.8627  0.3698  1.4310
 3248SOL     OW14681   1.929   9.688   3.612 -0.0319  0.3131  0.6856
 3248SOL    HW114682   1.960   9.680   3.702 -2.1514  0.4821  1.4940
 3248SOL    HW214683   1.856   9.751   3.617  0.6268  1.3535 -1.3869
 3249SOL     OW14684   7.542   8.503   4.855  0.4198  0.3588 -0.6505
 3249SOL    HW114685   7.499   8.576   4.811  0.8556 -0.2121 -2.0798
 3249SOL    HW214686   7.569   8.445   4.784 -0.1122 -1.3067  0.4511
 3250SOL     OW14687  11.302   5.813   5.584 -0.1513  0.1363 -0.0043
 3250SOL    HW114688  11.245   5.809   5.661  1.5773  2.7893  1.5801
 3250SOL    HW214689  11.332   5.904   5.580  2.7025 -0.7314 -1.6490
 3251SOL     OW14690   9.823   7.238   8.559  0.1623  0.4599  0.2159
 3251SOL    HW114691   9.811   7.278   8.473 -0.3741 -0.0242  0.0617
 3251SOL    HW214692   9.853   7.149   8.541  1.7777  0.9131  0.5668
 3252SOL     OW14693   7.857   3.438   6.010  0.3828 -0.6758 -0.0144
 3252SOL    HW114694   7.885   3.405   6.095 -2.2835 -0.5662  1.0091
 3252SOL    HW214695   7.765   3.462   6.023 -0.0319 -0.3930 -2.8532
 3253SOL     OW14696   5.149   3.203   5.866 -0.1898  0.1193  0.3899
 3253SOL    HW114697   5.103   3.258   5.803  2.9295  3.2385  0.5419
 3253SOL    HW214698   5.084   3.183   5.933 -2.1417  1.4799 -1.0013
 3254SOL     OW14699   0.899   3.996   4.353 -0.3859 -0.1280 -0.6214
 3254SOL    HW114700   0.865   3.994   4.263 -0.0006  0.4597 -0.7854
 3254SOL    HW214701   0.988   3.960   4.346 -0.8662 -1.4563 -0.2288
 3255SOL     OW14702   3.097   6.414   3.101 -0.1415  0.4126 -0.2894
 3255SOL    HW114703   3.016   6.383   3.143 -0.7989  1.1815 -0.9639
 3255SOL    HW214704   3.109   6.502   3.136 -1.4854  1.6473 -2.7178
 3256SOL     OW14705   7.280   8.627   7.425  0.3078 -0.0802 -0.3502
 3256SOL    HW114706   7.324   8.712   7.423 -0.6253  0.4094 -0.7453
 3256SOL    HW214707   7.329   8.574   7.363  0.4880  0.3792 -0.6101
 3257SOL     OW14708  10.286   1.855   1.751  0.1297  0.2805  0.5545
 3257SOL    HW114709  10.201   1.879   1.714  0.0518  2.0251  1.7690
 3257SOL    HW214710  10.264   1.804   1.829  0.2649 -0.8404 -0.1062
 3258SOL     OW14711   2.873   4.011   7.268 -0.3350  0.1627  0.3670
 3258SOL    HW114712   2.819   4.084   7.299 -0.7831  0.1697 -0.3879
 3258SOL    HW214713   2.886   4.030   7.174 -0.0118 -0.4538  0.2867
 3259SOL     OW14714   3.499   5.627   9.210 -0.0398 -0.0522 -0.0893
 3259SOL    HW114715   3.485   5.596   9.299  0.9263 -1.2710 -0.3406
 3259SOL    HW214716   3.479   5.721   9.214 -0.9232 -0.2741  1.1815
 3260SOL     OW14717   7.535   6.244   2.446 -0.2433 -1.0335 -0.3346
 3260SOL    HW114718   7.546   6.284   2.532 -1.5355 -0.3680 -0.4566
 3260SOL    HW214719   7.558   6.152   2.459  0.7220 -0.7023  0.4314
 3261SOL     OW14720   6.398   8.253   3.796 -0.0300 -0.4072 -0.5531
 3261SOL    HW114721   6.471   8.217   3.848 -0.1646  0.4481  0.2473
 3261SOL    HW214722   6.421   8.345   3.783 -1.3940  0.1220  0.5106
 3262SOL     OW14723   1.196   5.738   1.257  0.2683  0.1808  0.1800
 3262SOL    HW114724   1.121   5.796   1.241  0.6500  0.5373 -0.3718
 3262SOL    HW214725   1.197   5.679   1.182  1.4093  1.1385 -0.6054
 3263SOL     OW14726   0.671   4.900   7.185  0.1800  0.4802  0.3236
 3263SOL    HW114727   0.750   4.868   7.141 -0.2908 -1.3003  0.7105
 3263SOL    HW214728   0.703   4.962   7.250  1.0175  1.9320 -1.3737
 3264SOL     OW14729   4.353   4.269   1.603 -0.4432  0.3715  0.2122
 3264SOL    HW114730   4.326   4.248   1.514  1.2397  1.4197 -0.5903
 3264SOL    HW214731   4.415   4.342   1.593  0.9730 -0.4889  2.0931
 3265SOL     OW14732   2.020   9.151   3.409  0.5749 -0.1687 -0.0173
 3265SOL    HW114733   2.104   9.117   3.380 -0.2823 -1.8662 -0.6086
 3265SOL    HW214734   1.963   9.144   3.333 -0.0857  1.1154  0.3212
 3266SOL     OW14735   8.386   7.826   4.300 -0.3601  0.3353 -0.3989
 3266SOL    HW114736   8.454   7.889   4.322 -1.6875  1.3952  0.8607
 3266SOL    HW214737   8.320   7.836   4.369 -1.4885 -1.1166 -1.1975
 3267SOL     OW14738  11.502   6.236   8.791  0.3911 -0.0705 -0.1765
 3267SOL    HW114739  11.545   6.322   8.790 -1.4592  0.8988 -0.0801
 3267SOL    HW214740  11.541   6.189   8.718  0.0715  1.5694 -1.4501
 3268SOL     OW14741  11.214  11.609  10.546  0.7822  0.0668 -0.3600
 3268SOL    HW114742  11.258  11.524  10.535  1.3670  0.4180 -0.8409
 3268SOL    HW214743  11.286  11.672  10.547  0.2692  0.7128 -1.7696
 3269SOL     OW14744   3.437   8.098   8.520  0.3054  0.3488  0.3744
 3269SOL    HW114745   3.516   8.146   8.494 -0.1054  0.5878 -0.5095
 3269SOL    HW214746   3.367   8.139   8.469 -0.2817 -0.2921  0.6460
 3270SOL     OW14747   4.649   1.917   2.644  0.1694 -0.2614  0.4786
 3270SOL    HW114748   4.674   1.831   2.678 -1.4704 -0.6683  0.7757
 3270SOL    HW214749   4.719   1.975   2.672 -0.1218 -0.9461  2.9086
 3271SOL     OW14750   0.369   4.177   3.028 -0.6114 -0.3213  0.3648
 3271SOL    HW114751   0.372   4.254   3.085 -0.9889 -0.5731  0.7283
 3271SOL    HW214752   0.316   4.205   2.953 -0.8129 -0.2447  0.5328
 3272SOL     OW14753   1.650  11.313   3.493  0.9275  0.7255 -0.4382
 3272SOL    HW114754   1.679  11.343   3.579  1.3356 -0.6149 -0.0680
 3272SOL    HW214755   1.711  11.242   3.471 -0.1897 -0.0873 -1.0570
 3273SOL     OW14756   5.371   8.593   5.770  0.2928  0.0896  0.1649
 3273SOL    HW114757   5.372   8.498   5.773  0.8537 -0.1820 -3.4743
 3273SOL    HW214758   5.458   8.617   5.736  0.2532  1.9243  1.2247
 3274SOL     OW14759   1.723   7.061   8.260  0.0068 -0.3982 -0.0732
 3274SOL    HW114760   1.722   7.133   8.323 -0.5126  0.8770 -1.4708
 3274SOL    HW214761   1.719   7.104   8.175 -0.9635 -2.1062 -0.9410
 3275SOL     OW14762   2.956   4.560   6.953 -0.6726 -0.3713  0.6104
 3275SOL    HW114763   2.932   4.501   7.023 -0.1903 -0.8465  0.3830
 3275SOL    HW214764   2.978   4.643   6.997  3.6017 -1.7330  1.5429
 3276SOL     OW14765   5.546   3.573   8.199  0.4932 -0.0400  0.0859
 3276SOL    HW114766   5.633   3.533   8.196  0.0665 -1.1166  1.2771
 3276SOL    HW214767   5.505   3.548   8.117  0.7066 -0.9564  0.2503
 3277SOL     OW14768   3.582   5.380   6.649  0.2701 -0.0486  0.4538
 3277SOL    HW114769   3.529   5.345   6.721  1.6039 -2.3637  0.4079
 3277SOL    HW214770   3.671   5.380   6.683  0.9272 -1.1351 -1.1267
 3278SOL     OW14771   1.311  11.610   5.266  0.0351  0.4231 -0.2898
 3278SOL    HW114772   1.395  11.611   5.221 -0.0422  1.7244 -0.4291
 3278SOL    HW214773   1.318  11.677   5.333 -1.5355  1.9755 -1.5666
 3279SOL     OW14774   2.783  10.337   0.720 -0.1463 -0.1546 -0.7440
 3279SOL    HW114775   2.706  10.280   0.726  0.9901 -1.7365 -0.4744
 3279SOL    HW214776   2.846  10.286   0.668  1.1156  0.6214 -0.0245
 3280SOL     OW14777   4.377   7.001   8.492  0.1865 -0.2705 -0.1046
 3280SOL    HW114778   4.309   7.009   8.559  0.2615  0.5170 -0.1057
 3280SOL    HW214779   4.351   7.063   8.424 -0.1984 -1.4868 -1.0944
 3281SOL     OW14780   6.366   2.070   0.390  0.3521 -0.2497  0.0802
 3281SOL    HW114781   6.359   2.039   0.300  0.4658  0.1373 -0.0636
 3281SOL    HW214782   6.373   2.165   0.382 -2.1923  0.0526  0.6048
 3282SOL     OW14783   0.748   2.924   2.927  0.3295 -0.4353 -0.9110
 3282SOL    HW114784   0.716   2.910   2.838  0.0189 -1.6259 -0.6332
 3282SOL    HW214785   0.788   3.011   2.925 -1.9925  0.6911 -1.5374
 3283SOL     OW14786   7.281   4.394   1.337 -0.0874  0.5001 -0.1435
 3283SOL    HW114787   7.323   4.308   1.334  0.2872  0.5996  1.3547
 3283SOL    HW214788   7.187   4.374   1.338 -0.0685  0.2139 -1.8439
 3284SOL     OW14789   5.021  11.470  11.200  0.2232  0.2572  0.2668
 3284SOL    HW114790   5.082  11.486  11.128  1.3774 -0.0040  1.1543
 3284SOL    HW214791   4.979  11.387  11.177 -2.5296  2.1296 -2.1441
 3285SOL     OW14792   7.577   2.310   6.840 -0.2897 -0.2323  0.3985
 3285SOL    HW114793   7.618   2.225   6.855  1.5377  0.8568  1.9272
 3285SOL    HW214794   7.606   2.364   6.913 -1.2550  1.7842 -0.6405
 3286SOL     OW14795   5.098   0.721   1.556 -0.5104  0.6040  0.1568
 3286SOL    HW114796   5.025   0.669   1.591  0.5858 -1.0503  0.1142
 3286SOL    HW214797   5.087   0.716   1.461  0.3461 -0.7473  0.1068
 3287SOL     OW14798   3.501   2.752   3.601 -0.1340  0.0849 -0.0372
 3287SOL    HW114799   3.427   2.724   3.655  0.1597 -0.7036 -0.0251
 3287SOL    HW214800   3.571   2.770   3.664 -0.1019  0.1407 -0.0892
 3288SOL     OW14801   9.837   6.631   0.632  0.5463 -0.1556 -0.2614
 3288SOL    HW114802   9.910   6.586   0.675 -0.7256 -1.6649  0.4282
 3288SOL    HW214803   9.831   6.715   0.676  0.5712 -0.8603  1.1462
 3289SOL     OW14804   0.162   6.190   3.755 -0.1577 -0.4377 -0.2452
 3289SOL    HW114805   0.108   6.246   3.700  1.4299  0.8044 -0.6287
 3289SOL    HW214806   0.185   6.245   3.830 -1.1037 -1.6353  0.9766
 3290SOL     OW14807   2.495   3.655   5.821 -0.3011 -0.0293 -0.0497
 3290SOL    HW114808   2.446   3.675   5.741 -0.0249  1.5977  0.1509
 3290SOL    HW214809   2.460   3.716   5.886  2.6884  2.0169 -0.1677
 3291SOL     OW14810   4.394   9.386   8.466 -0.0627 -0.5963  0.5622
 3291SOL    HW114811   4.487   9.408   8.465 -0.4388  1.1353 -1.0066
 3291SOL    HW214812   4.390   9.300   8.508  2.3077 -1.0940 -0.1191
 3292SOL     OW14813   4.818   8.176   9.543  0.4789  0.4236 -0.9237
 3292SOL    HW114814   4.805   8.203   9.634 -0.0759  0.6486 -1.0651
 3292SOL    HW214815   4.732   8.148   9.514  0.7586 -0.1278 -1.2309
 3293SOL     OW14816   0.509   9.549   0.208 -0.2138 -0.2168 -0.3043
 3293SOL    HW114817   0.474   9.478   0.154  0.5873  0.3379 -1.6144
 3293SOL    HW214818   0.465   9.539   0.292 -1.3052 -1.2928 -0.9636
 3294SOL     OW14819   5.313   5.078   5.677  0.1753  0.0368 -0.5034
 3294SOL    HW114820   5.340   5.026   5.602  0.8949 -0.4688  0.0899
 3294SOL    HW214821   5.238   5.031   5.714  0.0496  0.0912 -0.6901
 3295SOL     OW14822   2.822   9.086   1.106  0.1252  0.3398  0.2175
 3295SOL    HW114823   2.894   9.111   1.163  0.4344 -1.0028  0.4401
 3295SOL    HW214824   2.863   9.066   1.022 -0.4032  3.1072 -0.8317
 3296SOL     OW14825   5.117   7.711  10.610 -0.1499 -0.3348 -0.3085
 3296SOL    HW114826   5.150   7.778  10.670 -0.5181  0.0666 -0.5508
 3296SOL    HW214827   5.088   7.640  10.667 -2.7997  1.0333  0.1678
 3297SOL     OW14828  11.205   7.483   1.080  0.2421  0.1172  0.8788
 3297SOL    HW114829  11.179   7.449   0.994  1.0958 -0.8844  1.0027
 3297SOL    HW214830  11.159   7.427   1.143  0.6878 -0.0327  1.0773
 3298SOL     OW14831   4.216   5.044   1.423 -0.3473 -0.1246  0.0630
 3298SOL    HW114832   4.295   4.993   1.444 -0.5491  0.4132  2.4749
 3298SOL    HW214833   4.243   5.135   1.435 -1.5595  0.0320  2.0683
 3299SOL     OW14834   7.512   5.557   4.917 -0.4756 -0.1076  0.1074
 3299SOL    HW114835   7.525   5.472   4.959  1.4486  0.3679  0.5775
 3299SOL    HW214836   7.426   5.585   4.947 -0.8790 -1.6056  0.4460
 3300SOL     OW14837   7.368   8.196   9.191 -0.0575  0.4391 -0.2577
 3300SOL    HW114838   7.392   8.134   9.123 -2.9527 -0.8741 -0.2224
 3300SOL    HW214839   7.297   8.248   9.154 -1.9836 -0.5634  1.7568
 3301SOL     OW14840   6.939   8.215   1.043 -0.2360  0.2345 -0.0295
 3301SOL    HW114841   6.901   8.300   1.065 -0.9205 -0.1689  0.4158
 3301SOL    HW214842   7.029   8.219   1.077 -0.5477  0.4651  0.8084
 3302SOL     OW14843  10.816   7.550  10.675 -0.5596 -0.4395 -0.2858
 3302SOL    HW114844  10.746   7.604  10.637  0.5470  1.5839  0.4142
 3302SOL    HW214845  10.830   7.587  10.762  0.3080 -1.8414  0.1992
 3303SOL     OW14846   8.061   4.684   9.277  0.4081 -0.1058 -0.4242
 3303SOL    HW114847   8.094   4.601   9.312  3.2449  0.7458 -0.8332
 3303SOL    HW214848   8.052   4.741   9.353 -0.2460 -0.3825 -0.2939
 3304SOL     OW14849   1.185   4.562   7.665 -0.2224 -0.2639 -0.1064
 3304SOL    HW114850   1.252   4.518   7.614  0.6592  0.1815  0.6378
 3304SOL    HW214851   1.173   4.506   7.742 -0.3064 -0.0634  0.0261
 3305SOL     OW14852   3.515  10.654   8.757  0.2024  0.2374  0.8016
 3305SOL    HW114853   3.501  10.625   8.667 -1.8824  0.8550  0.8882
 3305SOL    HW214854   3.504  10.749   8.755  1.4299  0.4162  1.4986
 3306SOL     OW14855   3.756   2.410   4.515 -0.3694  0.1812  1.0031
 3306SOL    HW114856   3.714   2.404   4.601 -2.1573  0.7907  0.2107
 3306SOL    HW214857   3.819   2.481   4.524  0.4240 -0.6337  2.1665
 3307SOL     OW14858   5.004   5.712   4.807 -0.0360  0.0871  0.3111
 3307SOL    HW114859   5.070   5.777   4.783  0.6377 -0.4092  0.7926
 3307SOL    HW214860   4.948   5.705   4.730 -0.9670  2.2360  0.6835
 3308SOL     OW14861   0.398   6.517   5.064  0.1924 -0.2482 -0.1771
 3308SOL    HW114862   0.440   6.528   5.149  1.2035 -1.4054 -0.4875
 3308SOL    HW214863   0.446   6.577   5.006 -0.8541  0.9433  0.1585
 3309SOL     OW14864   2.846   2.491   5.770 -0.1155  0.8388  0.3108
 3309SOL    HW114865   2.919   2.479   5.709 -0.0353  1.1735  0.3375
 3309SOL    HW214866   2.837   2.586   5.777 -0.4596  0.7974  0.4218
 3310SOL     OW14867  10.222   4.155   8.707 -0.3322  0.4214  0.5700
 3310SOL    HW114868  10.181   4.095   8.644 -1.4516  1.5682  0.1552
 3310SOL    HW214869  10.296   4.192   8.660  0.9533 -1.2832  1.1469
 3311SOL     OW14870   9.141  11.444  11.358  0.2091 -0.2733 -0.3819
 3311SOL    HW114871   9.047  11.436  11.343  0.2375  0.8827 -1.3144
 3311SOL    HW214872   9.175  11.355  11.347 -0.5192 -0.3781 -2.0971
 3312SOL     OW14873   1.042   3.910   7.808 -0.1610  0.0397 -0.3948
 3312SOL    HW114874   1.135   3.919   7.832 -0.0606  0.8556 -1.0547
 3312SOL    HW214875   1.043   3.871   7.721 -0.4304  0.4891 -0.5996
 3313SOL     OW14876  10.151   9.696   7.205  0.4611 -0.4458 -0.5229
 3313SOL    HW114877  10.169   9.787   7.227 -0.4293 -0.3062 -0.3274
 3313SOL    HW214878  10.087   9.668   7.271  0.8373 -1.2503 -0.4982
 3314SOL     OW14879   1.853   3.640   4.725  0.2240 -0.0021  0.1192
 3314SOL    HW114880   1.920   3.572   4.719  1.1614  0.9176 -0.2379
 3314SOL    HW214881   1.900   3.716   4.760 -1.2659 -0.1344  2.6796
 3315SOL     OW14882   8.118   5.915   0.833  0.0025  0.2804  0.3059
 3315SOL    HW114883   8.044   5.856   0.851 -0.1927  1.0885  2.3864
 3315SOL    HW214884   8.189   5.882   0.888  0.6536  0.5441 -0.3650
 3316SOL     OW14885   8.236   1.379   4.598 -0.1124 -0.0887 -0.2788
 3316SOL    HW114886   8.299   1.390   4.527  0.1286 -1.6428 -0.3587
 3316SOL    HW214887   8.289   1.379   4.678 -0.0395 -0.8838 -0.3110
 3317SOL     OW14888   3.385   6.339   3.735  0.2809  0.3053  0.0873
 3317SOL    HW114889   3.460   6.369   3.786 -0.3754  2.1602  0.0429
 3317SOL    HW214890   3.419   6.330   3.646  1.0679 -1.5052  0.5264
 3318SOL     OW14891   0.967   5.811   9.950 -0.2091 -0.3599  0.0786
 3318SOL    HW114892   0.923   5.891   9.921  1.4433  0.8522  0.7900
 3318SOL    HW214893   0.990   5.766   9.869 -0.7289  0.1252 -0.3483
 3319SOL     OW14894   3.566   7.074   8.748 -0.1112 -0.3425  0.3739
 3319SOL    HW114895   3.513   7.003   8.782  0.1799 -0.2709  0.9992
 3319SOL    HW214896   3.517   7.108   8.673 -0.4112 -0.9786  0.2771
 3320SOL     OW14897   1.082   4.049   0.874 -0.2203  0.4352  0.0240
 3320SOL    HW114898   0.993   4.044   0.841 -0.3251 -3.3001  0.3716
 3320SOL    HW214899   1.073   4.054   0.969 -0.1294 -0.4521  0.0935
 3321SOL     OW14900   3.775   4.536  10.423 -0.3987  0.0380 -0.1734
 3321SOL    HW114901   3.751   4.574  10.339 -0.0100 -1.7781 -1.1391
 3321SOL    HW214902   3.740   4.598  10.488 -1.1315  1.2156 -1.6412
 3322SOL     OW14903   4.036   6.051   1.321 -0.6955 -0.8994  0.7492
 3322SOL    HW114904   3.942   6.063   1.331 -0.4934  0.5199  1.1708
 3322SOL    HW214905   4.068   6.037   1.411 -0.7123 -3.4303  0.4399
 3323SOL     OW14906   9.152   8.035   8.957 -0.2402  0.4671 -0.4712
 3323SOL    HW114907   9.213   8.066   8.889  1.6760 -0.8144  0.5669
 3323SOL    HW214908   9.101   7.966   8.914  0.3687  0.2481 -0.8604
 3324SOL     OW14909  10.863   1.927   0.253  0.4485 -0.3520  0.7570
 3324SOL    HW114910  10.957   1.909   0.259  0.6958 -0.0841 -1.4564
 3324SOL    HW214911  10.825   1.846   0.218  0.0677 -0.0041  0.3510
 3325SOL     OW14912   7.956   6.299   6.121 -0.1208 -0.1011  0.5953
 3325SOL    HW114913   7.932   6.335   6.206 -2.1826  1.1559 -0.4456
 3325SOL    HW214914   8.050   6.285   6.127 -0.0966  0.5594  2.8331
 3326SOL     OW14915  10.225  10.960   3.834 -0.3953  0.1896 -0.0347
 3326SOL    HW114916  10.161  10.889   3.845 -1.3801  0.9206 -0.8798
 3326SOL    HW214917  10.172  11.037   3.815  0.6838  1.0989  0.5785
 3327SOL     OW14918   8.352   4.263   3.630  0.2896 -0.9108 -0.1258
 3327SOL    HW114919   8.352   4.279   3.536  0.3616 -1.0395 -0.1478
 3327SOL    HW214920   8.392   4.177   3.640  2.8459  0.2053  0.2227
 3328SOL     OW14921   0.779   3.690   9.035 -0.0261 -0.6587 -0.3448
 3328SOL    HW114922   0.816   3.607   9.002 -0.7934 -0.6652 -1.2213
 3328SOL    HW214923   0.842   3.719   9.102 -0.3201 -2.5313  0.8225
 3329SOL     OW14924  10.309   6.133   5.309 -1.0414 -0.2000  0.0246
 3329SOL    HW114925  10.292   6.080   5.387 -1.8472  0.6200  0.4269
 3329SOL    HW214926  10.403   6.123   5.293 -1.3857 -2.8378 -0.7524
 3330SOL     OW14927   4.796   2.501   4.871  0.1418  0.4164  0.3994
 3330SOL    HW114928   4.752   2.416   4.875  1.8455 -0.5751 -0.4273
 3330SOL    HW214929   4.750   2.556   4.934 -3.8469  0.2899 -2.0629
 3331SOL     OW14930   4.754  11.297  10.899 -0.3886 -0.4144  0.2666
 3331SOL    HW114931   4.663  11.275  10.918  0.0264 -1.9090  0.6931
 3331SOL    HW214932   4.801  11.271  10.979  0.7273 -2.0467 -0.8554
 3332SOL     OW14933   3.346   9.533   5.951  0.7470 -0.0474  0.2590
 3332SOL    HW114934   3.348   9.490   5.865  0.4711  0.7067 -0.1328
 3332SOL    HW214935   3.276   9.489   5.998 -1.6228  1.9268 -1.2155
 3333SOL     OW14936   2.717   7.009   4.111 -0.6303 -0.1524 -0.0922
 3333SOL    HW114937   2.715   7.102   4.090 -0.6839 -0.2536 -0.5517
 3333SOL    HW214938   2.631   6.991   4.150 -0.8117 -0.1123 -0.4682
 3334SOL     OW14939   8.697   4.874   2.986  0.1218 -0.1107 -0.2697
 3334SOL    HW114940   8.718   4.935   2.916  0.7187  1.4025  1.1554
 3334SOL    HW214941   8.649   4.927   3.050  1.1039 -0.9717  1.2575
 3335SOL     OW14942   9.108   5.818   6.422 -0.4474 -0.2352  0.2621
 3335SOL    HW114943   9.116   5.911   6.445  0.0879 -0.2084 -0.0190
 3335SOL    HW214944   9.032   5.814   6.364  0.2560  0.2229 -0.7179
 3336SOL     OW14945   7.239   5.070   7.707  0.0949  0.0291 -0.0765
 3336SOL    HW114946   7.313   5.130   7.700 -1.0095  1.3202 -1.3654
 3336SOL    HW214947   7.240   5.041   7.798  0.5798  2.1176  0.6292
 3337SOL     OW14948   1.408  10.207   5.563  0.0281  0.3978  0.2893
 3337SOL    HW114949   1.352  10.160   5.625  1.4993  0.4239  1.7032
 3337SOL    HW214950   1.477  10.144   5.540 -0.1969  0.5695 -0.9431
 3338SOL     OW14951   4.379   5.846   2.146  0.1961  0.3560  0.1731
 3338SOL    HW114952   4.438   5.811   2.213  0.0148  2.1224  1.3197
 3338SOL    HW214953   4.415   5.815   2.063  1.0334 -1.0045  1.0037
 3339SOL     OW14954   0.613   9.190  10.512  0.1615 -0.2332  0.1000
 3339SOL    HW114955   0.528   9.149  10.524  1.0265 -1.7961  1.3683
 3339SOL    HW214956   0.641   9.214  10.601  0.9529  0.4394 -0.3137
 3340SOL     OW14957   8.473   6.508   5.919  0.5936  0.6052  0.1250
 3340SOL    HW114958   8.478   6.487   6.013  1.1575  0.1962  0.0075
 3340SOL    HW214959   8.553   6.557   5.902 -0.0501  1.6642  0.0932
 3341SOL     OW14960   4.942  10.027   0.623 -0.1358 -0.3258 -0.3988
 3341SOL    HW114961   5.006  10.045   0.692 -1.6249  2.6951  0.3830
 3341SOL    HW214962   4.890   9.954   0.656  1.0403 -0.8750  0.2872
 3342SOL     OW14963   1.958  10.767   6.665  0.1839  0.7165 -0.0146
 3342SOL    HW114964   1.926  10.749   6.754  1.4921  2.2992  0.8589
 3342SOL    HW214965   1.955  10.863   6.659  2.5194  0.8028 -0.6850
 3343SOL     OW14966   3.322   0.065   7.797  0.3385  0.2632  0.5098
 3343SOL    HW114967   3.362   0.152   7.796  1.0063 -0.0098 -1.4827
 3343SOL    HW214968   3.279   0.059   7.882 -0.5081  2.8985  0.3600
 3344SOL     OW14969   2.675   1.239   0.512  0.2060  0.1851  0.0182
 3344SOL    HW114970   2.714   1.158   0.544  0.8478  1.0238  1.4125
 3344SOL    HW214971   2.747   1.284   0.467  0.4275  0.9250  1.0739
 3345SOL     OW14972   6.060   5.387   0.588  0.8955  0.4618 -0.0683
 3345SOL    HW114973   6.136   5.400   0.532  2.0858 -1.8697  0.8602
 3345SOL    HW214974   6.072   5.449   0.659  2.9197 -0.9358  0.9294
 3346SOL     OW14975   2.097   8.730  10.582  0.0503 -0.3715 -0.1785
 3346SOL    HW114976   2.051   8.772  10.510  0.3176  1.3068  0.5721
 3346SOL    HW214977   2.038   8.660  10.611 -0.9552  0.2293 -0.7287
 3347SOL     OW14978   2.741  10.407   6.765 -0.0832  0.0887  0.1742
 3347SOL    HW114979   2.789  10.382   6.687  0.1956  0.3439  0.2594
 3347SOL    HW214980   2.745  10.503   6.766  0.4400  0.0635  0.8227
 3348SOL     OW14981   5.586   3.314   8.571  0.5519 -0.0392  0.1451
 3348SOL    HW114982   5.524   3.314   8.498  0.8212 -1.1695 -0.0893
 3348SOL    HW214983   5.546   3.373   8.635  0.5376  1.3511 -1.0866
 3349SOL     OW14984   1.755   1.901   3.161  0.1488 -0.4987 -0.0751
 3349SOL    HW114985   1.677   1.870   3.116 -0.4707 -0.1391  0.7291
 3349SOL    HW214986   1.782   1.978   3.111  0.1823 -0.8024 -0.5382
 3350SOL     OW14987   4.219   9.912   7.729 -0.1695 -0.6103 -0.2726
 3350SOL    HW114988   4.283   9.843   7.747  1.4365  0.7655 -0.4030
 3350SOL    HW214989   4.165   9.916   7.808 -1.6444 -3.3155 -1.0255
 3351SOL     OW14990   0.733  10.546   0.790 -0.0717 -0.2688  0.6702
 3351SOL    HW114991   0.790  10.505   0.856 -0.5203  0.5014  1.5648
 3351SOL    HW214992   0.754  10.639   0.796  1.1218 -0.3326 -1.5124
 3352SOL     OW14993  10.500   6.682   7.874  0.0831 -0.2759 -0.3493
 3352SOL    HW114994  10.441   6.720   7.939  0.4958  0.4573 -0.3931
 3352SOL    HW214995  10.567   6.637   7.925 -0.3121 -0.8105 -0.2939
 3353SOL     OW14996   8.640  10.109  10.366  0.6201  0.1038 -0.3754
 3353SOL    HW114997   8.588  10.039  10.405 -2.0191  0.5250 -2.7540
 3353SOL    HW214998   8.718  10.066  10.331  0.5343 -1.0709  0.8281
 3354SOL     OW14999   4.610   5.667   2.410 -0.0102  0.5114  0.5002
 3354SOL    HW115000   4.675   5.723   2.453 -1.9804  3.3653  0.0018
 3354SOL    HW215001   4.527   5.688   2.452 -0.8676 -2.2954  0.4224
 3355SOL     OW15002   2.399   4.630   7.108 -0.6098  0.4229  0.2193
 3355SOL    HW115003   2.469   4.593   7.054 -0.2422 -0.7057  1.4350
 3355SOL    HW215004   2.342   4.674   7.045  0.8979  0.9217 -0.8578
 3356SOL     OW15005  10.354   3.879  10.494 -0.2906  0.0732 -0.1188
 3356SOL    HW115006  10.274   3.827  10.493  0.6912 -1.5479 -2.4189
 3356SOL    HW215007  10.342   3.940  10.567 -1.8757 -2.8118  2.2858
 3357SOL     OW15008   9.598   8.105   6.295  0.4464 -0.3088  0.3053
 3357SOL    HW115009   9.575   8.099   6.202 -0.1303  0.0304  0.4247
 3357SOL    HW215010   9.571   8.021   6.332 -0.4345  0.0105  0.4043
 3358SOL     OW15011   8.530   7.274  11.545  0.4930  0.5539 -0.2082
 3358SOL    HW115012   8.437   7.294  11.555  1.1045  4.2395 -0.6635
 3358SOL    HW215013   8.574   7.336  11.602  2.7937  1.6344 -2.9186
 3359SOL     OW15014   3.081  10.516  11.194 -0.2070  0.1196  0.6209
 3359SOL    HW115015   3.003  10.537  11.247 -1.0399  0.3018 -0.6240
 3359SOL    HW215016   3.131  10.598  11.193 -0.2256  0.1386  1.0535
 3360SOL     OW15017   4.414  11.164   8.722  0.5023  0.1882  0.3130
 3360SOL    HW115018   4.508  11.148   8.724  0.4979  0.1970  0.5809
 3360SOL    HW215019   4.386  11.159   8.814  0.2969  0.5119  0.2710
 3361SOL     OW15020   9.930  11.240  10.507  0.5900 -0.5524  0.3901
 3361SOL    HW115021   9.867  11.215  10.574 -1.5316  1.3510 -0.7673
 3361SOL    HW215022   9.955  11.330  10.530  0.9203 -0.3754 -0.5838
 3362SOL     OW15023  11.560   7.439   4.369 -0.4483  0.1824 -0.1939
 3362SOL    HW115024  11.521   7.396   4.445 -0.5815 -1.4064 -1.1216
 3362SOL    HW215025  11.654   7.441   4.387 -0.2523 -1.8636 -0.7289
 3363SOL     OW15026   0.236   6.860   8.118  0.3401 -0.9968 -0.5282
 3363SOL    HW115027   0.228   6.821   8.031  1.5127  0.1064 -1.1448
 3363SOL    HW215028   0.217   6.953   8.105 -0.3657 -0.9663  0.5662
 3364SOL     OW15029   5.959   9.625   9.860  0.3703  0.4815 -0.1895
 3364SOL    HW115030   6.026   9.669   9.911  0.4929 -1.1893  1.1902
 3364SOL    HW215031   5.928   9.554   9.917 -1.5875  0.3428 -1.3127
 3365SOL     OW15032   3.474   3.311   5.535  0.2063 -0.0200 -0.1490
 3365SOL    HW115033   3.493   3.220   5.561  1.8368  0.2414 -0.3322
 3365SOL    HW215034   3.420   3.302   5.457 -0.9171 -0.8192  0.6802
 3366SOL     OW15035   5.246  10.938   3.001  0.0954 -0.5672  0.4410
 3366SOL    HW115036   5.254  10.844   2.983 -0.9258 -0.5649 -0.1171
 3366SOL    HW215037   5.190  10.971   2.931 -1.2258  0.0797  1.7398
 3367SOL     OW15038   5.518   5.234   4.219 -0.6518  0.4415  0.2365
 3367SOL    HW115039   5.586   5.180   4.259 -2.4399 -0.6218  2.0130
 3367SOL    HW215040   5.471   5.174   4.162 -0.7690  0.9149 -0.1700
 3368SOL     OW15041   0.751   7.488   5.044 -0.2539  0.2075 -0.9456
 3368SOL    HW115042   0.735   7.405   4.998 -0.3550  0.5744 -1.5701
 3368SOL    HW215043   0.840   7.512   5.019  0.9819 -1.2334  1.6002
 3369SOL     OW15044  10.539   5.470   3.492  0.0143 -0.5634  0.2312
 3369SOL    HW115045  10.458   5.464   3.543 -0.5695  0.0935 -0.6005
 3369SOL    HW215046  10.522   5.538   3.427  1.5119  0.1470  0.5365
 3370SOL     OW15047  11.017   6.142   7.064  0.1761 -0.0719  0.3431
 3370SOL    HW115048  11.096   6.126   7.012  0.1189 -0.2354  0.3048
 3370SOL    HW215049  11.007   6.237   7.063  0.4389 -0.0418  0.4470
 3371SOL     OW15050  11.167   4.583   0.997  0.4925 -0.0910  0.2221
 3371SOL    HW115051  11.201   4.664   0.960  0.2440 -0.3075 -0.5031
 3371SOL    HW215052  11.105   4.611   1.064  1.0574  0.3086  0.5869
 3372SOL     OW15053   2.744   3.427   8.747 -0.5719  0.1433 -0.3224
 3372SOL    HW115054   2.681   3.360   8.721 -0.4682  0.2616 -0.8813
 3372SOL    HW215055   2.783   3.393   8.828 -1.9325  0.4483  0.5002
 3373SOL     OW15056  10.054   9.159   0.890 -0.1465  0.1411  0.1154
 3373SOL    HW115057   9.976   9.153   0.835  0.6631 -1.2132 -0.9742
 3373SOL    HW215058  10.061   9.072   0.931  1.7845 -0.4625 -1.3187
 3374SOL     OW15059  10.708  10.741   5.976 -0.2101 -1.0291 -0.1416
 3374SOL    HW115060  10.769  10.719   5.905  0.5870 -1.7323  0.7288
 3374SOL    HW215061  10.671  10.657   6.003  1.0777 -1.0821  1.6463
 3375SOL     OW15062  10.360  10.817   8.892 -0.3743  0.3011  0.4114
 3375SOL    HW115063  10.454  10.815   8.874 -0.3920  0.2874  0.3202
 3375SOL    HW215064  10.349  10.886   8.958 -0.3090  0.3493  0.3719
 3376SOL     OW15065   7.914   8.301   2.319 -0.5599  0.1075  0.7756
 3376SOL    HW115066   7.966   8.221   2.322 -1.1160 -0.2761  0.2409
 3376SOL    HW215067   7.834   8.280   2.367 -1.0068  0.1128  0.0481
 3377SOL     OW15068   4.155   4.735  10.355  0.5373  0.1350 -0.4738
 3377SOL    HW115069   4.149   4.647  10.391  0.4407  0.1670 -0.4113
 3377SOL    HW215070   4.079   4.781  10.391 -0.5564 -0.3306 -2.1262
 3378SOL     OW15071   6.040   5.318  10.570 -0.2137  0.0822  0.1130
 3378SOL    HW115072   6.108   5.351  10.629  0.2727  1.3137 -1.0635
 3378SOL    HW215073   6.001   5.244  10.616  0.9202  0.2850  1.4587
 3379SOL     OW15074  11.376   7.773   9.934  0.1480  0.2787  0.3784
 3379SOL    HW115075  11.389   7.741  10.024  1.0113  0.4002  0.3003
 3379SOL    HW215076  11.371   7.868   9.944  1.7200  0.4106  0.1464
 3380SOL     OW15077   0.648  10.549   7.960  0.5869  0.3201 -0.2422
 3380SOL    HW115078   0.725  10.574   7.909  0.6568  1.1479  0.2672
 3380SOL    HW215079   0.665  10.580   8.048 -0.0543 -0.0590  0.0273
 3381SOL     OW15080  10.297  10.010   6.715  0.2876 -0.2246 -0.2169
 3381SOL    HW115081  10.262   9.958   6.643 -1.7514  0.3591  0.2969
 3381SOL    HW215082  10.252  10.094   6.708  0.8093  0.1950  1.1429
 3382SOL     OW15083   1.625   5.391   6.507  0.3308 -0.0325 -0.2241
 3382SOL    HW115084   1.542   5.345   6.514  0.2828  0.0945  0.0398
 3382SOL    HW215085   1.686   5.326   6.472  0.4525 -0.5251  0.8620
 3383SOL     OW15086   1.810   4.768  10.425 -0.1816  0.3722 -0.1985
 3383SOL    HW115087   1.818   4.742  10.333  0.3786 -0.1677 -0.0100
 3383SOL    HW215088   1.773   4.691  10.468  0.6799  0.1820  0.2265
 3384SOL     OW15089   8.967   4.256   1.383  0.1558 -0.0677 -0.2237
 3384SOL    HW115090   8.991   4.282   1.471 -1.3634 -0.2959  0.2867
 3384SOL    HW215091   9.037   4.197   1.355  0.4451 -0.3303  0.9951
 3385SOL     OW15092  10.632   1.531   7.042 -0.0698  0.7915 -0.1929
 3385SOL    HW115093  10.608   1.466   6.975 -0.0900  0.4497  0.1437
 3385SOL    HW215094  10.699   1.487   7.095  1.7007  1.8878 -1.4052
 3386SOL     OW15095   6.169   3.822   6.902  0.4342  0.0806 -0.8882
 3386SOL    HW115096   6.155   3.902   6.851 -2.7558 -0.4606 -1.1146
 3386SOL    HW215097   6.135   3.752   6.846 -1.0303 -0.8185  0.9717
 3387SOL     OW15098  11.274   3.923   5.284  0.4133  0.2059  0.0201
 3387SOL    HW115099  11.290   4.015   5.301 -0.2259  0.5690 -1.2584
 3387SOL    HW215100  11.285   3.913   5.189 -0.6415 -0.7961 -0.0259
 3388SOL     OW15101   3.197   9.473   7.166  0.0365  0.1775 -0.1913
 3388SOL    HW115102   3.129   9.536   7.189  0.2093  0.3605 -0.1810
 3388SOL    HW215103   3.274   9.500   7.216 -0.1591 -0.6187  0.5690
 3389SOL     OW15104   6.294   7.977   6.891  0.0126 -0.6447  0.1392
 3389SOL    HW115105   6.380   7.958   6.929  1.0460  0.9091 -1.2569
 3389SOL    HW215106   6.244   8.017   6.963  1.1550  0.2403  0.4774
 3390SOL     OW15107   3.411   1.919   6.248 -0.3768 -0.3692  0.3854
 3390SOL    HW115108   3.470   1.991   6.271 -1.4144  0.0435  2.0012
 3390SOL    HW215109   3.381   1.939   6.159 -0.5725  1.1795  0.7729
 3391SOL     OW15110   1.447   0.358   7.508  0.3197 -0.5342 -0.4846
 3391SOL    HW115111   1.443   0.277   7.559  2.5934 -0.0395  0.6220
 3391SOL    HW215112   1.437   0.428   7.573  3.6945  0.1271 -0.5032
 3392SOL     OW15113   5.182   7.516   8.076 -0.1818  0.1990  0.3871
 3392SOL    HW115114   5.177   7.502   7.982 -0.9491  0.9637  0.3051
 3392SOL    HW215115   5.269   7.485   8.101 -0.0574 -0.2032 -0.5305
 3393SOL     OW15116   7.790   0.702   2.457  0.3796  0.3066  0.2610
 3393SOL    HW115117   7.820   0.786   2.423 -0.7942  1.2323  1.4132
 3393SOL    HW215118   7.722   0.674   2.395 -0.4367  1.0629  0.8047
 3394SOL     OW15119   8.314   1.234  10.710  0.1377 -0.5325  0.1999
 3394SOL    HW115120   8.256   1.178  10.657 -1.1459  1.7983 -0.9881
 3394SOL    HW215121   8.394   1.242  10.657 -0.3901  0.2108 -0.5015
 3395SOL     OW15122   3.822   1.251  11.442 -0.1070 -0.3059 -0.1580
 3395SOL    HW115123   3.885   1.288  11.379 -0.4121  0.1306 -0.2077
 3395SOL    HW215124   3.825   1.156  11.425  0.2411 -0.2511 -0.4330
 3396SOL     OW15125   3.925   3.164   6.955  0.0768  0.2940 -0.4808
 3396SOL    HW115126   3.851   3.180   7.013  0.3254  0.4577 -0.2019
 3396SOL    HW215127   3.983   3.107   7.006 -0.1733 -0.4039 -0.9554
 3397SOL     OW15128  11.682   6.770   8.640  0.2206  0.1884  0.5905
 3397SOL    HW115129  11.773   6.751   8.619 -0.8371 -1.1260 -4.1703
 3397SOL    HW215130  11.675   6.865   8.634  1.0242  0.1930 -0.8009
 3398SOL     OW15131   1.989   4.307  11.390 -0.1128 -0.0878  0.6145
 3398SOL    HW115132   1.982   4.238  11.456 -0.8453 -0.0397  0.5930
 3398SOL    HW215133   2.075   4.293  11.350 -0.2089 -0.9360  0.6739
 3399SOL     OW15134   1.132   5.027  10.188 -0.0594 -0.1798 -0.0147
 3399SOL    HW115135   1.205   5.089  10.196 -1.4381  1.3731  1.0897
 3399SOL    HW215136   1.114   5.023  10.094  1.1005 -0.2017 -0.2529
 3400SOL     OW15137   0.267   4.236   1.936  0.9948 -0.1036  0.1314
 3400SOL    HW115138   0.358   4.246   1.907  0.3626  1.4816 -1.5509
 3400SOL    HW215139   0.255   4.142   1.948  2.2756 -0.5750 -1.7990
 3401SOL     OW15140   7.559   6.241   6.272 -0.4871  0.1093  0.4400
 3401SOL    HW115141   7.495   6.182   6.233 -0.7905  1.2558 -0.8880
 3401SOL    HW215142   7.528   6.329   6.249  0.3917  0.7778  1.6395
 3402SOL     OW15143   7.112  10.139   0.978 -0.2929 -0.4585  0.0659
 3402SOL    HW115144   7.182  10.179   0.927 -1.9873  0.9451 -1.2833
 3402SOL    HW215145   7.155  10.071   1.030  2.2890  1.3488  0.4387
 3403SOL     OW15146   4.042   8.898   9.769 -0.1556  0.0942 -0.3019
 3403SOL    HW115147   4.061   8.970   9.709  0.5406  0.0039 -0.2045
 3403SOL    HW215148   3.962   8.923   9.814 -0.0780  0.6712 -0.4887
 3404SOL     OW15149   9.431   9.977  11.058 -0.0556  0.2344  0.5839
 3404SOL    HW115150   9.374   9.904  11.083  0.1917 -0.4274 -0.7079
 3404SOL    HW215151   9.380  10.055  11.078 -0.9743 -0.3264  0.5036
 3405SOL     OW15152   7.394   7.204   5.901 -0.5396  0.1587  0.1113
 3405SOL    HW115153   7.402   7.282   5.956 -2.0783 -0.6273  1.5061
 3405SOL    HW215154   7.360   7.136   5.959 -0.0974 -1.3350 -1.2898
 3406SOL     OW15155   8.734   9.412   4.561 -0.1119  0.6974 -0.2303
 3406SOL    HW115156   8.731   9.453   4.474 -0.2663 -1.4287 -1.2961
 3406SOL    HW215157   8.711   9.483   4.622 -0.1636  2.2101 -1.9213
 3407SOL     OW15158   3.014   1.839   5.200  0.0280 -0.1182  0.4187
 3407SOL    HW115159   3.080   1.822   5.133 -0.9026  1.1255 -0.8839
 3407SOL    HW215160   2.930   1.826   5.156 -0.6184  1.3403  1.1178
 3408SOL     OW15161  10.764  11.075   9.802  0.5520  0.5581 -0.0693
 3408SOL    HW115162  10.701  11.004   9.814 -0.2640  0.9481 -1.7566
 3408SOL    HW215163  10.713  11.155   9.816  0.6769  0.8706 -1.2551
 3409SOL     OW15164   9.431   4.537   6.487 -0.6629 -0.1148  0.6140
 3409SOL    HW115165   9.408   4.456   6.533 -1.0831 -0.5170 -0.2870
 3409SOL    HW215166   9.451   4.509   6.398  3.1443  0.2084  1.2203
 3410SOL     OW15167   0.511   5.890   4.292  0.0635  0.9576  0.0159
 3410SOL    HW115168   0.578   5.903   4.360  0.8442  2.1747 -0.9433
 3410SOL    HW215169   0.523   5.800   4.263 -0.2953  0.4089  1.4945
 3411SOL     OW15170   4.796   1.828   7.219 -0.5701 -0.8576 -0.0845
 3411SOL    HW115171   4.808   1.750   7.165 -1.2518 -2.3928  1.8852
 3411SOL    HW215172   4.883   1.866   7.225 -0.3250 -1.1311 -1.5152
 3412SOL     OW15173   9.720   5.969   0.794  0.5127 -0.4786  0.1577
 3412SOL    HW115174   9.799   5.993   0.744 -1.4277  1.1384 -2.3841
 3412SOL    HW215175   9.648   5.988   0.735 -1.9202 -0.3567  2.9402
 3413SOL     OW15176   6.469   1.585   6.696  0.0079  0.1979 -0.3804
 3413SOL    HW115177   6.399   1.578   6.761 -0.6333  0.6136 -1.0037
 3413SOL    HW215178   6.423   1.590   6.612  0.7602  1.0202 -0.7670
 3414SOL     OW15179   9.455  10.144  10.649 -0.0167 -0.5182  0.2322
 3414SOL    HW115180   9.500  10.219  10.610  0.5674 -0.3000  1.2730
 3414SOL    HW215181   9.503  10.068  10.617  0.0322 -0.3905 -0.0041
 3415SOL     OW15182   2.789   1.605  10.665  0.1762 -1.0479  0.0995
 3415SOL    HW115183   2.875   1.645  10.677  0.4143 -1.4718 -0.1659
 3415SOL    HW215184   2.731   1.656  10.722  0.3122  0.1729 -0.8245
 3416SOL     OW15185   2.375   1.055   2.771 -0.4387  0.3831 -0.0398
 3416SOL    HW115186   2.409   0.970   2.798  0.8609  0.9771  0.2735
 3416SOL    HW215187   2.374   1.107   2.852 -0.5572  0.8811 -0.3553
 3417SOL     OW15188   5.777   4.853   6.855  0.1601  0.1184  0.3477
 3417SOL    HW115189   5.826   4.775   6.881  0.8736  0.4855  0.1404
 3417SOL    HW215190   5.825   4.926   6.893 -0.9960  0.4266  1.2930
 3418SOL     OW15191  11.574   4.567   5.010 -0.0232  0.5163  0.2729
 3418SOL    HW115192  11.550   4.617   4.932  0.2407  0.0431 -0.1179
 3418SOL    HW215193  11.502   4.505   5.022 -0.1354  0.6882  0.4960
 3419SOL     OW15194   4.553   2.693  11.614 -0.2595 -0.6339 -0.3470
 3419SOL    HW115195   4.487   2.631  11.645 -1.5298  1.5112  1.5465
 3419SOL    HW215196   4.533   2.705  11.521 -1.2365 -1.5574 -0.2729
 3420SOL     OW15197   9.489  10.223   8.859  0.1280  0.5605 -0.1095
 3420SOL    HW115198   9.501  10.131   8.834  0.6864 -0.5054  3.4545
 3420SOL    HW215199   9.423  10.220   8.929 -1.0839  3.1307 -1.0485
 3421SOL     OW15200   2.113   5.259   0.531 -0.0546  0.5361  0.2935
 3421SOL    HW115201   2.147   5.178   0.567 -1.4369  0.2632  1.0759
 3421SOL    HW215202   2.187   5.299   0.485  0.1254 -2.2510 -2.1016
 3422SOL     OW15203   8.181   2.969   0.916  0.2548 -0.4696  0.1012
 3422SOL    HW115204   8.178   3.005   1.005 -1.1773  1.7546 -0.7552
 3422SOL    HW215205   8.217   2.881   0.927  0.6174 -0.0785  2.8006
 3423SOL     OW15206   9.000  10.114   2.038  0.4959 -0.4419 -0.1739
 3423SOL    HW115207   8.925  10.169   2.063 -0.4137 -2.0408  0.7752
 3423SOL    HW215208   9.075  10.172   2.045 -0.7158  1.5233 -2.1853
 3424SOL     OW15209   5.919   4.956   6.176 -0.0062 -1.3040  0.3048
 3424SOL    HW115210   5.833   5.000   6.170  0.2568 -0.2017  2.9995
 3424SOL    HW215211   5.974   5.002   6.112 -1.2579 -1.7508 -1.1671
 3425SOL     OW15212   0.710   3.335   0.001  0.2925  0.2172 -0.5484
 3425SOL    HW115213   0.776   3.358  -0.064  0.5235 -1.1961 -0.8313
 3425SOL    HW215214   0.685   3.245  -0.019  0.4300 -0.2929  1.3474
 3426SOL     OW15215   8.903   9.134  10.650 -0.2079  0.5936  0.4778
 3426SOL    HW115216   8.872   9.063  10.594  2.8964 -0.6318  0.0807
 3426SOL    HW215217   8.908   9.210  10.593 -0.0007  0.1375 -0.1149
 3427SOL     OW15218   1.250   1.241  11.103  1.1416  0.0396 -0.0086
 3427SOL    HW115219   1.272   1.220  11.194 -0.7931  0.7826  0.7024
 3427SOL    HW215220   1.256   1.158  11.057 -1.2239 -1.1677  1.6061
 3428SOL     OW15221   1.094   1.120   3.358  0.3288  0.2240 -0.0603
 3428SOL    HW115222   1.122   1.202   3.318 -1.5581  0.3551 -1.2768
 3428SOL    HW215223   1.173   1.068   3.365  2.0469  2.8407  2.7486
 3429SOL     OW15224   6.832  10.946   4.134 -0.2901 -0.2833  0.5215
 3429SOL    HW115225   6.896  10.957   4.063 -0.1112 -2.0884  0.3426
 3429SOL    HW215226   6.850  11.018   4.194  2.1662 -0.9154  0.6468
 3430SOL     OW15227   0.013   6.633   9.222  0.7653 -0.3512  0.5936
 3430SOL    HW115228  -0.004   6.563   9.159  0.5794  1.2181 -1.2234
 3430SOL    HW215229  -0.074   6.668   9.243  0.9845  1.1834 -0.8365
 3431SOL     OW15230   2.625   8.295   5.773 -0.0360 -0.2129  0.1441
 3431SOL    HW115231   2.621   8.207   5.734 -0.5559  1.1637 -3.2392
 3431SOL    HW215232   2.717   8.320   5.767  0.0853 -0.4156  0.9739
 3432SOL     OW15233   7.117  11.117   8.484 -0.5564 -0.0363  0.1305
 3432SOL    HW115234   7.067  11.118   8.403 -1.8875 -1.4975  0.8900
 3432SOL    HW215235   7.199  11.073   8.462 -1.3121 -1.3040 -0.2251
 3433SOL     OW15236   8.801   3.550   5.734 -0.5959  0.0980  0.2035
 3433SOL    HW115237   8.764   3.629   5.771  1.3113  0.9443  0.4217
 3433SOL    HW215238   8.888   3.542   5.774 -0.0248 -1.1153 -1.1364
 3434SOL     OW15239   2.436   9.896   6.153  0.4127 -0.2114  0.2868
 3434SOL    HW115240   2.436   9.948   6.233  0.4750  0.4063 -0.1088
 3434SOL    HW215241   2.480   9.951   6.088 -1.3550  0.1382 -0.6979
 3435SOL     OW15242   6.193   9.463   3.936 -0.3811 -0.0899 -0.6657
 3435SOL    HW115243   6.148   9.398   3.883 -1.2095 -1.4927  1.5863
 3435SOL    HW215244   6.125   9.496   3.996  0.5668  1.1264 -0.2164
 3436SOL     OW15245   3.364   6.330   3.138 -0.0431  0.1663 -0.5770
 3436SOL    HW115246   3.274   6.361   3.126  0.0599  0.5577 -0.3767
 3436SOL    HW215247   3.359   6.266   3.209  0.1804  1.9679  1.1706
 3437SOL     OW15248  10.944   3.708   9.278 -0.2812  0.2555 -0.3400
 3437SOL    HW115249  11.025   3.723   9.327  0.2031  0.6470 -1.2463
 3437SOL    HW215250  10.898   3.791   9.282 -0.2139  0.3058 -0.5853
 3438SOL     OW15251   8.445  10.033   7.643  0.0437  0.0450 -0.1673
 3438SOL    HW115252   8.492   9.958   7.679 -0.3638  1.0448  2.6690
 3438SOL    HW215253   8.412  10.080   7.719 -0.0291  2.9393 -1.8257
 3439SOL     OW15254  10.994  10.316   5.783 -0.0288  0.1071 -0.7292
 3439SOL    HW115255  11.046  10.336   5.861 -1.3175 -0.1227  0.1966
 3439SOL    HW215256  10.939  10.393   5.770 -0.9742 -0.5088 -0.4564
 3440SOL     OW15257   7.113   3.510   7.511  0.3303  0.8713 -0.6975
 3440SOL    HW115258   7.141   3.426   7.548 -0.3888  0.1745 -1.6996
 3440SOL    HW215259   7.083   3.560   7.587  0.7839  0.2301 -0.0857
 3441SOL     OW15260  11.582  11.190   6.500 -0.5265 -0.4147 -0.1359
 3441SOL    HW115261  11.537  11.223   6.578 -1.3714  0.0634 -0.8077
 3441SOL    HW215262  11.645  11.126   6.534 -1.6301 -1.0250  0.8408
 3442SOL     OW15263   2.124   3.562  11.655  0.4121  1.0301 -0.6248
 3442SOL    HW115264   2.107   3.491  11.593 -1.9070  1.8159 -0.9758
 3442SOL    HW215265   2.190   3.616  11.611  1.7509 -0.5087 -0.6209
 3443SOL     OW15266   9.050   5.554   3.790 -0.3458  0.0395 -0.2081
 3443SOL    HW115267   9.042   5.521   3.701 -0.0482 -1.4264  0.2802
 3443SOL    HW215268   8.999   5.635   3.790 -2.6917 -1.3306 -0.9899
 3444SOL     OW15269   0.797   2.380   2.571  0.0940 -0.2269  0.0641
 3444SOL    HW115270   0.770   2.296   2.606 -0.1694  0.4486  1.5871
 3444SOL    HW215271   0.717   2.419   2.535  0.3449 -0.8770 -1.2664
 3445SOL     OW15272   1.466   6.933   9.269 -0.0480  0.2831 -0.0768
 3445SOL    HW115273   1.491   7.018   9.235 -0.0195  0.1084 -0.4972
 3445SOL    HW215274   1.426   6.888   9.194  1.1551 -0.5778 -0.2206
 3446SOL     OW15275   2.383   2.279   9.189 -0.0528 -0.0136  0.2262
 3446SOL    HW115276   2.418   2.216   9.253  1.0910  0.7322  0.3512
 3446SOL    HW215277   2.333   2.341   9.243  0.2797  0.1807  0.3140
 3447SOL     OW15278   3.812  10.179   2.621  0.4767  0.3051  0.3129
 3447SOL    HW115279   3.718  10.198   2.618  0.2027 -1.0737 -1.0414
 3447SOL    HW215280   3.838  10.201   2.711 -1.0523  1.0828  0.5951
 3448SOL     OW15281   1.402   7.156   3.260 -0.4405 -0.0172  0.0990
 3448SOL    HW115282   1.318   7.150   3.307 -1.2074 -0.2916 -1.2404
 3448SOL    HW215283   1.379   7.197   3.176  0.6455 -0.7635 -0.5863
 3449SOL     OW15284   5.344  10.730   0.862  0.1625  0.2557  0.0926
 3449SOL    HW115285   5.260  10.705   0.823  0.8300 -0.6357 -0.8522
 3449SOL    HW215286   5.400  10.749   0.786  0.5200  1.8478  0.7324
 3450SOL     OW15287   6.909   3.117   9.731  0.4771 -0.4330  0.1718
 3450SOL    HW115288   6.889   3.177   9.803 -0.2846  1.3912 -1.4630
 3450SOL    HW215289   6.992   3.150   9.696  1.0787 -1.5887  0.4544
 3451SOL     OW15290   1.682   5.886   5.377 -0.3207  0.2003 -0.4491
 3451SOL    HW115291   1.627   5.938   5.436  1.4399  0.7746  0.7813
 3451SOL    HW215292   1.710   5.811   5.431  1.5717  0.8923 -0.3920
 3452SOL     OW15293   0.465   7.508   9.165 -0.6893 -0.1411 -0.1050
 3452SOL    HW115294   0.400   7.481   9.230 -0.4179 -1.1713 -0.2402
 3452SOL    HW215295   0.510   7.583   9.205 -1.2021 -0.1227  0.4547
 3453SOL     OW15296   5.988   5.207   4.944 -0.5650 -0.3751  0.0019
 3453SOL    HW115297   5.904   5.175   4.977 -0.1724 -0.9635  0.4340
 3453SOL    HW215298   6.047   5.132   4.949 -0.0445 -0.0086 -0.4387
 3454SOL     OW15299   5.433   7.590   6.755 -0.6003 -0.0574  0.6215
 3454SOL    HW115300   5.471   7.676   6.737 -0.5120 -0.0190  0.9772
 3454SOL    HW215301   5.472   7.564   6.839 -2.1485  0.4506  1.5314
 3455SOL     OW15302   7.419   0.138   0.037  0.0491 -0.2163  0.3375
 3455SOL    HW115303   7.411   0.231   0.059  0.8139 -0.4608  1.7394
 3455SOL    HW215304   7.512   0.126   0.020 -0.1062 -0.6579 -0.2294
 3456SOL     OW15305   6.914   2.616   9.742 -0.4814 -0.1251  0.6230
 3456SOL    HW115306   6.864   2.674   9.685  2.6955  0.2935 -2.0623
 3456SOL    HW215307   6.899   2.528   9.708  2.5677  0.2417 -2.1952
 3457SOL     OW15308   7.824   7.857   1.766  0.2020  0.0703  0.3863
 3457SOL    HW115309   7.802   7.943   1.802  0.8280  0.6063 -0.4812
 3457SOL    HW215310   7.755   7.799   1.799 -1.7560  1.4116 -1.1474
 3458SOL     OW15311   6.548  11.384   8.449 -0.1777 -0.2430 -0.0924
 3458SOL    HW115312   6.606  11.457   8.426  0.4612 -0.9310 -0.7131
 3458SOL    HW215313   6.547  11.384   8.545 -0.7788  1.0322 -0.0831
 3459SOL     OW15314  10.912   0.488   0.288 -0.1542  0.5351 -0.4530
 3459SOL    HW115315  10.933   0.580   0.298 -1.9155  1.0749 -1.3184
 3459SOL    HW215316  10.970   0.458   0.217 -2.1470  2.0077 -2.8755
 3460SOL     OW15317  11.557  11.417   3.951  0.1437 -0.6543 -0.7133
 3460SOL    HW115318  11.503  11.492   3.975 -0.8401 -0.9733 -1.7967
 3460SOL    HW215319  11.500  11.341   3.967  1.4574 -1.2754  1.3046
 3461SOL     OW15320   6.802   4.889  11.675 -0.0816 -0.1043  0.0198
 3461SOL    HW115321   6.796   4.958  11.741 -0.4870 -2.6023  2.8310
 3461SOL    HW215322   6.889   4.851  11.688 -0.4022 -1.0405 -0.5023
 3462SOL     OW15323   8.156   3.053   7.413  0.0817  0.3199  0.0540
 3462SOL    HW115324   8.128   3.144   7.414 -1.4974 -0.1362  0.8847
 3462SOL    HW215325   8.251   3.057   7.407 -0.0332  1.9860 -1.7586
 3463SOL     OW15326   1.674  10.343   8.155  0.2945 -0.7229  0.5134
 3463SOL    HW115327   1.708  10.347   8.066 -0.3764  0.1316  0.2736
 3463SOL    HW215328   1.640  10.254   8.164 -2.4084 -0.0029 -1.2010
 3464SOL     OW15329   7.931   7.208  10.030  0.1848 -0.2707  0.0262
 3464SOL    HW115330   7.981   7.160  10.096 -1.5396 -0.8987  0.9427
 3464SOL    HW215331   7.911   7.143   9.963  1.1312  0.1450 -0.6894
 3465SOL     OW15332   0.341   7.383   2.631 -0.0801 -0.6500  0.1014
 3465SOL    HW115333   0.250   7.381   2.601 -0.0649  1.1234 -0.1974
 3465SOL    HW215334   0.371   7.293   2.623 -1.3364 -0.9804 -1.3458
 3466SOL     OW15335   9.386  10.373   8.298  0.3181 -0.2078 -0.0081
 3466SOL    HW115336   9.367  10.324   8.378  0.5606 -2.7973 -1.4496
 3466SOL    HW215337   9.481  10.376   8.293  0.3703 -2.1018 -1.2788
 3467SOL     OW15338   6.479   4.241   2.053  0.1162  0.7949 -0.2978
 3467SOL    HW115339   6.386   4.261   2.045 -0.3166 -0.3000  1.5702
 3467SOL    HW215340   6.503   4.207   1.967 -1.2643  0.8397 -0.7242
 3468SOL     OW15341   5.056   5.695   9.957  0.5664  0.4660  0.8155
 3468SOL    HW115342   5.071   5.623   9.895  0.3772  0.5832  0.6320
 3468SOL    HW215343   5.104   5.669  10.036  1.7793  0.8488  0.2375
 3469SOL     OW15344   7.482   4.176   8.591  0.1470 -0.3797  0.2758
 3469SOL    HW115345   7.565   4.135   8.616  0.0533 -0.1067  1.0682
 3469SOL    HW215346   7.508   4.260   8.552  0.3884 -1.4699 -2.0951
 3470SOL     OW15347   2.343   0.379  10.600 -0.2197  0.7268 -0.5675
 3470SOL    HW115348   2.387   0.448  10.550 -1.3331  0.3101 -2.2373
 3470SOL    HW215349   2.261   0.418  10.629 -0.6294  0.2968 -1.0986
 3471SOL     OW15350  11.485   5.917  11.387 -0.7428  0.4862 -0.0396
 3471SOL    HW115351  11.472   5.824  11.404 -1.6400  0.2519 -1.7636
 3471SOL    HW215352  11.436   5.961  11.457 -0.6145 -0.3199  0.5757
 3472SOL     OW15353   6.441   1.534   3.059 -0.0997 -0.0782  0.0033
 3472SOL    HW115354   6.400   1.499   3.138 -0.5021 -0.0065 -0.1704
 3472SOL    HW215355   6.523   1.487   3.051 -0.3554 -0.5450  0.1104
 3473SOL     OW15356   0.662   1.066   1.145  0.0766 -0.3587  0.0829
 3473SOL    HW115357   0.668   1.009   1.222  0.8496  0.8424  0.9563
 3473SOL    HW215358   0.740   1.045   1.094  0.2243 -0.2690  0.2708
 3474SOL     OW15359   4.854  10.036   6.930 -0.3274 -0.0220 -0.0905
 3474SOL    HW115360   4.848  10.131   6.944 -0.4680 -0.1956  1.1259
 3474SOL    HW215361   4.943  10.013   6.959 -1.5330 -0.8185  3.5463
 3475SOL     OW15362   6.549   3.952   1.119  0.2095 -0.2934 -0.0941
 3475SOL    HW115363   6.644   3.953   1.117  0.2332  1.7774  0.2704
 3475SOL    HW215364   6.527   3.889   1.188  1.2523 -1.4328 -0.7525
 3476SOL     OW15365   6.429   5.389   9.229 -0.4550 -0.0121 -0.3949
 3476SOL    HW115366   6.438   5.295   9.213 -0.7636 -0.0709 -0.2351
 3476SOL    HW215367   6.451   5.430   9.145  1.1497 -0.1391 -0.0624
 3477SOL     OW15368   5.135   0.501   3.334 -0.0287 -0.1185  0.0555
 3477SOL    HW115369   5.051   0.490   3.291 -0.8199 -1.5776  1.8257
 3477SOL    HW215370   5.198   0.460   3.275 -0.7852 -0.3943 -0.5841
 3478SOL     OW15371   2.026   9.722   9.354 -0.2815 -0.3777 -0.5323
 3478SOL    HW115372   2.078   9.771   9.417 -0.2359 -2.2266  0.9675
 3478SOL    HW215373   1.986   9.789   9.298  1.4782  1.2166  0.0144
 3479SOL     OW15374   1.843   7.753   7.262 -0.1016  0.2914 -0.1640
 3479SOL    HW115375   1.763   7.793   7.229 -1.4409  0.0230  2.5344
 3479SOL    HW215376   1.869   7.808   7.336  0.7470 -1.0960  0.6161
 3480SOL     OW15377   7.005   3.657   5.511  0.5475  0.0654  0.0393
 3480SOL    HW115378   6.972   3.739   5.546  0.9456 -0.1814  1.0362
 3480SOL    HW215379   7.095   3.651   5.544  0.9224 -0.2116 -0.9995
 3481SOL     OW15380   4.182   4.155   6.569  0.3342  0.4812 -0.3195
 3481SOL    HW115381   4.143   4.120   6.490  1.6258  0.0325 -0.7926
 3481SOL    HW215382   4.192   4.079   6.626 -0.1129  0.7131  0.0764
 3482SOL     OW15383   3.852   3.050   4.536  0.1971 -0.1877  0.1486
 3482SOL    HW115384   3.890   2.962   4.537  0.8030  0.0707  0.3746
 3482SOL    HW215385   3.849   3.076   4.628  0.2301  0.1131  0.0662
 3483SOL     OW15386   3.075   2.931   8.729  0.0157  0.4766 -0.2467
 3483SOL    HW115387   3.131   2.928   8.651 -0.8613  0.9434 -0.9055
 3483SOL    HW215388   3.111   2.863   8.786  0.8550  0.3260 -0.9236
 3484SOL     OW15389  11.240   7.201   5.076  0.2917 -0.3102  0.2113
 3484SOL    HW115390  11.180   7.259   5.124  0.7498 -1.0978  1.8204
 3484SOL    HW215391  11.216   7.113   5.105  0.5688 -0.8213 -1.0785
 3485SOL     OW15392   7.396  10.884   9.496  0.2754  0.3342 -0.4552
 3485SOL    HW115393   7.392  10.791   9.473  3.0173  0.3157 -1.2331
 3485SOL    HW215394   7.394  10.930   9.412  1.9000  0.7692 -0.2867
 3486SOL     OW15395   3.910   0.518   8.348  0.3545  0.2285 -1.0955
 3486SOL    HW115396   3.877   0.458   8.281  0.3461  0.9652 -1.7682
 3486SOL    HW215397   3.837   0.580   8.363  0.5383  0.3698 -0.7770
 3487SOL     OW15398  10.552  10.757   9.590 -0.7236 -0.3765  0.0660
 3487SOL    HW115399  10.600  10.684   9.629 -1.4581  0.0849  1.9552
 3487SOL    HW215400  10.598  10.776   9.508 -0.2265 -2.6158 -0.2322
 3488SOL     OW15401   9.150   1.282   2.677 -0.0604  0.0761 -0.4226
 3488SOL    HW115402   9.163   1.277   2.582  2.4322 -1.3670 -0.1094
 3488SOL    HW215403   9.090   1.210   2.697 -1.9951  1.4354 -1.0083
 3489SOL     OW15404   0.446   3.403   8.237 -0.1801 -0.5051  0.0085
 3489SOL    HW115405   0.473   3.399   8.145 -0.2318 -2.4308  0.0304
 3489SOL    HW215406   0.351   3.412   8.234 -0.2013 -0.7735 -0.1264
 3490SOL     OW15407   8.798   8.367   7.169 -0.2630 -0.5015 -0.2994
 3490SOL    HW115408   8.862   8.364   7.098  0.3912  1.3517  0.1473
 3490SOL    HW215409   8.846   8.335   7.246 -0.4255 -0.7794 -0.3103
 3491SOL     OW15410   7.113   0.743   2.802 -0.2077 -0.5398 -0.1792
 3491SOL    HW115411   7.102   0.783   2.888  0.3753 -0.5212 -0.1073
 3491SOL    HW215412   7.025   0.739   2.765 -0.4207 -0.2824  0.3004
 3492SOL     OW15413   2.030   1.567   3.193  0.5612  0.0767 -0.0111
 3492SOL    HW115414   2.062   1.620   3.120 -3.6148  0.5569 -1.7388
 3492SOL    HW215415   1.983   1.495   3.152 -1.6668  0.1583  2.1609
 3493SOL     OW15416  10.863  10.275   9.565 -0.7849  0.7036 -0.2846
 3493SOL    HW115417  10.931  10.324   9.612 -0.1202 -0.2389 -0.2427
 3493SOL    HW215418  10.883  10.183   9.583 -1.8074  0.4007 -0.6485
 3494SOL     OW15419  10.400   7.405   3.005 -0.2082 -0.6401  0.1177
 3494SOL    HW115420  10.491   7.411   3.034  1.0750  0.4691 -3.6309
 3494SOL    HW215421  10.355   7.474   3.055  1.9593  1.5562 -0.7644
 3495SOL     OW15422   0.273   2.604   1.831  0.1120  0.7623 -0.5627
 3495SOL    HW115423   0.271   2.533   1.896  1.4960  2.4130  1.4365
 3495SOL    HW215424   0.328   2.570   1.760  1.5666  0.1391  0.7963
 3496SOL     OW15425   9.256   8.461   0.989  0.4421 -0.0664 -0.8040
 3496SOL    HW115426   9.259   8.392   1.054 -1.6765  0.6186  0.1151
 3496SOL    HW215427   9.316   8.528   1.022  0.4090 -0.2985 -0.2645
 3497SOL     OW15428   5.895  10.177   5.408 -0.3317  0.2633 -0.7202
 3497SOL    HW115429   5.935  10.089   5.405  1.1052  0.8775 -0.3730
 3497SOL    HW215430   5.801  10.160   5.407 -0.0982 -1.2327 -2.1594
 3498SOL     OW15431   4.973  10.262   0.077  0.0602 -0.0572  0.1861
 3498SOL    HW115432   4.880  10.282   0.089  0.5115  1.5004  1.4817
 3498SOL    HW215433   5.009  10.263   0.166  1.2448 -1.0495 -0.2588
 3499SOL     OW15434  11.532   3.892   1.417 -0.1283 -0.6206 -0.0941
 3499SOL    HW115435  11.440   3.868   1.408 -0.4335  0.4223  0.0954
 3499SOL    HW215436  11.546   3.896   1.512 -0.7211  2.1484 -0.0574
 3500SOL     OW15437   0.841   6.038   7.809 -0.2813 -0.2709 -0.1277
 3500SOL    HW115438   0.805   5.955   7.840 -0.4708 -0.6205 -1.2571
 3500SOL    HW215439   0.827   6.098   7.882 -1.6695 -0.8099  0.0789
 3501SOL     OW15440   7.333   1.970   3.819  0.5176 -0.1310  0.0071
 3501SOL    HW115441   7.334   1.968   3.723 -0.8348 -0.1415 -0.0214
 3501SOL    HW215442   7.253   1.923   3.844  2.0561 -2.2879  1.2339
 3502SOL     OW15443   9.197   4.739  10.164  0.0998  0.0977  0.7122
 3502SOL    HW115444   9.132   4.707  10.227  0.8682  0.1793  1.5616
 3502SOL    HW215445   9.281   4.710  10.199  0.4358 -1.6139 -1.3151
 3503SOL     OW15446   5.567   4.308  11.665 -0.6142 -0.0763 -0.3047
 3503SOL    HW115447   5.578   4.306  11.760 -1.3610 -0.2534 -0.2158
 3503SOL    HW215448   5.477   4.338  11.652 -0.5666 -0.2032 -0.9563
 3504SOL     OW15449   2.434  11.478   2.439  0.1470 -0.1340  0.7114
 3504SOL    HW115450   2.388  11.495   2.356 -0.0835 -1.2238  0.5951
 3504SOL    HW215451   2.454  11.564   2.473  0.7467  0.3502 -0.7673
 3505SOL     OW15452   9.299   0.330   3.031  0.3660  0.6341  0.3022
 3505SOL    HW115453   9.244   0.288   3.096 -0.5242 -1.0528 -1.4280
 3505SOL    HW215454   9.383   0.344   3.075  0.0591 -1.1812  1.5544
 3506SOL     OW15455   5.841   7.012   1.783  0.6258 -0.7347 -0.4532
 3506SOL    HW115456   5.919   7.061   1.755  1.6498 -1.1552  1.4950
 3506SOL    HW215457   5.876   6.932   1.822 -0.7370 -0.6126  1.1287
 3507SOL     OW15458   9.051   6.695   5.435 -0.4000 -0.1270  0.1532
 3507SOL    HW115459   9.058   6.790   5.427 -0.9227 -0.1416 -0.5504
 3507SOL    HW215460   9.053   6.663   5.345 -0.1275 -0.7975  0.3895
 3508SOL     OW15461   6.113   7.745   0.315 -0.0305 -0.3276 -0.2549
 3508SOL    HW115462   6.143   7.777   0.400  0.5430 -0.4881 -0.3911
 3508SOL    HW215463   6.025   7.710   0.332 -0.9153  1.7760 -0.2098
 3509SOL     OW15464   7.599  11.359   0.257 -0.3318 -0.8728 -0.3757
 3509SOL    HW115465   7.570  11.269   0.249 -0.7061 -1.0189  1.9958
 3509SOL    HW215466   7.673  11.355   0.318 -1.1117  0.5370  0.7131
 3510SOL     OW15467   4.041   3.277   8.540 -0.4801 -0.4447  0.0817
 3510SOL    HW115468   4.000   3.195   8.510 -1.1756  0.2261 -0.8704
 3510SOL    HW215469   3.973   3.343   8.527  1.1038  0.8472 -2.2785
 3511SOL     OW15470   5.408   9.432   7.909 -0.0817  0.6849 -0.1268
 3511SOL    HW115471   5.399   9.523   7.880 -1.3204  1.0587  1.3141
 3511SOL    HW215472   5.318   9.404   7.929  0.1066 -1.2780 -1.6739
 3512SOL     OW15473  10.304   9.089   8.246  0.4021 -0.1315 -0.0213
 3512SOL    HW115474  10.219   9.113   8.284 -0.3104 -2.2658 -0.1598
 3512SOL    HW215475  10.306   8.994   8.250  2.0727 -0.2118 -1.6377
 3513SOL     OW15476   2.501   4.651   3.864 -0.1767 -0.5433  0.1199
 3513SOL    HW115477   2.468   4.663   3.775 -0.7004 -0.6835  0.2921
 3513SOL    HW215478   2.563   4.723   3.877  0.5649 -1.0145 -0.6589
 3514SOL     OW15479  10.645   5.405   8.588  0.4294 -0.3923  0.0501
 3514SOL    HW115480  10.706   5.468   8.549  0.6554 -1.2697 -1.0657
 3514SOL    HW215481  10.639   5.431   8.680  1.2831  0.6453 -0.1704
 3515SOL     OW15482   1.025   1.161   9.666 -0.1864 -0.0408  0.0063
 3515SOL    HW115483   1.105   1.159   9.717 -0.2525  0.9177  0.1813
 3515SOL    HW215484   0.996   1.253   9.672 -1.9751 -0.6233  1.0137
 3516SOL     OW15485   8.039  10.451   5.353  0.0954  0.2262 -0.0910
 3516SOL    HW115486   8.102  10.486   5.416  1.3479  0.5829 -1.4971
 3516SOL    HW215487   8.068  10.362   5.335 -1.0304 -0.3524  0.7880
 3517SOL     OW15488   8.696   1.390   5.840 -0.4411 -0.2659  0.0191
 3517SOL    HW115489   8.603   1.408   5.857 -0.5660 -0.4763 -0.4279
 3517SOL    HW215490   8.710   1.423   5.751  0.3616  1.4232  0.7373
 3518SOL     OW15491   7.819   8.696   7.667  0.0984  0.5589  0.3266
 3518SOL    HW115492   7.864   8.657   7.742  1.6896 -1.8045 -1.6773
 3518SOL    HW215493   7.744   8.639   7.652  2.1845 -1.8152 -2.3436
 3519SOL     OW15494  10.812   4.465   9.148 -0.7295 -0.1357  0.2573
 3519SOL    HW115495  10.769   4.547   9.124  0.2510  0.6520  1.0690
 3519SOL    HW215496  10.767   4.398   9.097 -1.2791  0.9613 -0.7508
 3520SOL     OW15497  11.515   6.364   7.045 -0.2110 -0.7859 -0.2824
 3520SOL    HW115498  11.510   6.440   7.103  0.1558  0.0665 -1.3426
 3520SOL    HW215499  11.527   6.290   7.105 -1.2205 -0.1055  0.8109
 3521SOL     OW15500   9.463   6.244   5.985 -0.0473 -0.1283  0.5182
 3521SOL    HW115501   9.466   6.240   6.081  0.3402 -0.1151  0.5098
 3521SOL    HW215502   9.464   6.338   5.965 -0.8187 -0.1157  0.5155
 3522SOL     OW15503   2.515   6.082   0.155 -0.1473  0.1715  0.1290
 3522SOL    HW115504   2.432   6.060   0.198 -0.0836  1.1075  0.7672
 3522SOL    HW215505   2.521   6.178   0.163  1.1138  0.0905  0.3279
 3523SOL     OW15506   9.425   3.067   7.870  0.1874 -0.2688 -0.8049
 3523SOL    HW115507   9.472   3.044   7.790  0.2135 -1.3455 -0.5007
 3523SOL    HW215508   9.437   2.991   7.927  2.8388  1.6581  1.4873
 3524SOL     OW15509   3.375   0.983   0.478  0.0909 -0.0013 -0.5856
 3524SOL    HW115510   3.350   0.902   0.522 -0.4417  0.3881 -0.1545
 3524SOL    HW215511   3.302   1.002   0.419 -0.3076  0.7384  0.1197
 3525SOL     OW15512  11.510  11.356  11.144  0.2263 -0.7495  0.1993
 3525SOL    HW115513  11.569  11.335  11.072  0.5163 -1.4584  0.6268
 3525SOL    HW215514  11.534  11.445  11.170  0.2389 -0.5562 -0.4541
 3526SOL     OW15515   3.814   4.933   6.125 -0.1331  0.0057 -0.0269
 3526SOL    HW115516   3.736   4.882   6.104  1.2218 -2.6517  0.9828
 3526SOL    HW215517   3.790   4.982   6.203 -1.1807  0.2508 -0.4808
 3527SOL     OW15518   4.099   8.280  10.788  0.1492 -0.6942  0.5824
 3527SOL    HW115519   4.092   8.239  10.701 -1.6853 -1.7909  1.1996
 3527SOL    HW215520   4.020   8.335  10.794  1.6147  1.5585  0.5300
 3528SOL     OW15521   4.357  10.675   4.828 -0.2025 -0.5397  0.6271
 3528SOL    HW115522   4.448  10.682   4.856  0.4698 -0.3280 -1.4286
 3528SOL    HW215523   4.350  10.587   4.791  0.1268  0.5048 -2.1322
 3529SOL     OW15524   7.172   0.410   9.223 -0.2298 -0.0620  0.6435
 3529SOL    HW115525   7.118   0.344   9.179  2.8660 -1.8764 -0.7687
 3529SOL    HW215526   7.173   0.484   9.163  0.6047 -0.9037 -0.4198
 3530SOL     OW15527   5.907   5.067   2.582  0.6523  0.1483 -0.3789
 3530SOL    HW115528   5.859   5.150   2.582 -0.1482 -0.2710  1.3402
 3530SOL    HW215529   5.999   5.093   2.595  0.1599  0.7382  2.7150
 3531SOL     OW15530   2.101   7.549   4.721 -0.0541  0.2469  0.5640
 3531SOL    HW115531   2.113   7.643   4.731 -0.9194  0.2840  1.4870
 3531SOL    HW215532   2.189   7.514   4.708  0.2082  1.2440 -0.4871
 3532SOL     OW15533   1.930   4.132  10.198  0.5427  0.3229 -0.0334
 3532SOL    HW115534   1.898   4.205  10.251 -0.6521  1.2820 -1.9651
 3532SOL    HW215535   1.982   4.173  10.129 -0.1843 -0.6182 -1.1744
 3533SOL     OW15536   3.597   6.077   9.406  0.2372 -0.5361  0.7999
 3533SOL    HW115537   3.546   6.158   9.414 -1.2766 -1.2097 -1.2270
 3533SOL    HW215538   3.679   6.104   9.365 -0.7964 -0.1317 -1.1269
 3534SOL     OW15539   9.885   3.540   1.545 -0.6358  0.0134 -0.0461
 3534SOL    HW115540   9.818   3.582   1.491  0.6161  0.6418 -1.1766
 3534SOL    HW215541   9.891   3.451   1.510 -1.8334 -0.4999  0.9849
 3535SOL     OW15542   1.985   1.212   2.901 -0.6875 -0.3817 -0.4246
 3535SOL    HW115543   1.906   1.191   2.850 -0.5887  1.8962 -1.5977
 3535SOL    HW215544   2.025   1.127   2.918 -1.8406 -1.3702 -2.3339
 3536SOL     OW15545   0.910   7.468  10.331  0.1430 -0.9102  0.1655
 3536SOL    HW115546   0.911   7.552  10.286  2.0522 -1.4048 -0.7764
 3536SOL    HW215547   0.840   7.419  10.288  0.0094 -0.3362 -0.2846
 3537SOL     OW15548   8.274   8.031   5.807 -0.2087  0.2249  0.5653
 3537SOL    HW115549   8.184   8.011   5.784 -0.1450 -0.4033  0.8464
 3537SOL    HW215550   8.305   7.953   5.854 -0.0977  1.1332  2.0889
 3538SOL     OW15551   4.840   3.660   8.435 -0.1516  0.0549  0.1380
 3538SOL    HW115552   4.786   3.684   8.360 -0.9902 -1.7787  0.1070
 3538SOL    HW215553   4.817   3.724   8.502 -2.8892 -1.0011  0.3303
 3539SOL     OW15554   2.466   8.570   8.901  0.1604 -0.2710 -0.7329
 3539SOL    HW115555   2.498   8.491   8.945  0.9744 -0.1624 -1.0989
 3539SOL    HW215556   2.474   8.551   8.808  1.6713  0.7165 -0.8453
 3540SOL     OW15557  10.491   3.303   8.959  0.5910  0.0278  0.4307
 3540SOL    HW115558  10.469   3.344   9.043 -1.1733  0.7761 -0.3320
 3540SOL    HW215559  10.463   3.367   8.893  2.9384 -0.0600 -0.7522
 3541SOL     OW15560   0.942   3.748   6.167 -0.1387 -0.1510  0.0700
 3541SOL    HW115561   0.961   3.813   6.235  0.6404  0.3583 -0.6000
 3541SOL    HW215562   0.851   3.764   6.144 -0.2188  0.1025  0.5461
 3542SOL     OW15563   1.368   5.263   6.547  0.1144  0.1333  0.0525
 3542SOL    HW115564   1.366   5.248   6.642 -1.3349  0.9309  0.1733
 3542SOL    HW215565   1.278   5.285   6.524  0.0796 -1.6144 -1.7987
 3543SOL     OW15566   6.573   7.726   9.203  0.0900 -0.7085  0.2001
 3543SOL    HW115567   6.651   7.733   9.148 -0.5955 -0.1196 -0.7371
 3543SOL    HW215568   6.504   7.697   9.142 -0.5377 -0.6786  0.8867
 3544SOL     OW15569  11.370   0.816  10.003  0.5312  0.1110 -0.6544
 3544SOL    HW115570  11.355   0.782  10.091 -0.3125  3.8268  0.8603
 3544SOL    HW215571  11.465   0.827   9.997  0.6188 -0.4478 -0.3560
 3545SOL     OW15572  10.910   5.292   7.697  0.2840  0.4246 -0.1085
 3545SOL    HW115573  10.996   5.251   7.683  1.1898  2.3777 -0.5684
 3545SOL    HW215574  10.888   5.269   7.787  1.6183  0.4283  0.2530
 3546SOL     OW15575  11.009   4.926   5.338 -0.1864 -0.6056  0.0885
 3546SOL    HW115576  11.059   4.989   5.286 -0.3917 -1.4865 -1.2356
 3546SOL    HW215577  10.955   4.980   5.396  1.9421  0.3819  1.2813
 3547SOL     OW15578  11.497   9.147   3.890  0.7913 -0.4124  0.1181
 3547SOL    HW115579  11.591   9.161   3.900  1.0593 -0.9590 -1.3625
 3547SOL    HW215580  11.489   9.055   3.867  0.1182  0.0992 -1.9060
 3548SOL     OW15581   5.323  11.585   5.482 -1.1817 -0.4691 -0.5321
 3548SOL    HW115582   5.271  11.665   5.491 -0.1044  0.1709  0.2337
 3548SOL    HW215583   5.341  11.578   5.388  0.1279  1.1356 -0.4397
 3549SOL     OW15584  11.068   0.802  10.652 -0.2916 -0.0688  0.0828
 3549SOL    HW115585  11.010   0.840  10.718 -2.4370 -1.8621 -0.6138
 3549SOL    HW215586  11.047   0.850  10.571  0.1572  0.1317  0.0823
 3550SOL     OW15587   2.364   3.252   1.504 -0.1180 -0.0922  0.3739
 3550SOL    HW115588   2.314   3.333   1.494 -1.7501 -1.1708 -0.8912
 3550SOL    HW215589   2.297   3.185   1.518  1.1751 -1.2623  1.2207
 3551SOL     OW15590   4.743   3.475   4.960 -0.7839  0.0292  0.1269
 3551SOL    HW115591   4.704   3.398   4.918 -1.6655  1.1924 -1.2915
 3551SOL    HW215592   4.812   3.440   5.017 -0.5371 -1.7377 -1.1967
 3552SOL     OW15593  10.432  11.420   6.602  0.0312  0.4946 -0.0176
 3552SOL    HW115594  10.393  11.506   6.586  0.6279  0.7565 -0.1025
 3552SOL    HW215595  10.401  11.396   6.689  0.5151  1.1731  0.3532
 3553SOL     OW15596   5.884   4.449   2.399 -0.1316 -0.0759  0.3163
 3553SOL    HW115597   5.815   4.510   2.427 -0.9617 -1.1957  0.7482
 3553SOL    HW215598   5.906   4.399   2.477  2.5002  1.4563  0.6643
 3554SOL     OW15599  10.930   3.103  11.592  0.8974 -0.0392  0.3967
 3554SOL    HW115600  11.006   3.105  11.651 -0.9755  3.2862  3.0276
 3554SOL    HW215601  10.942   3.178  11.534  0.0209  0.0280  0.2889
 3555SOL     OW15602   4.159   7.810   4.549  0.2429  0.1086 -0.1969
 3555SOL    HW115603   4.111   7.733   4.519  1.3865 -1.2542  1.3090
 3555SOL    HW215604   4.226   7.824   4.482 -1.5050  1.4079 -1.7813
 3556SOL     OW15605   5.459  10.765   5.870 -0.1242 -0.2809 -0.6323
 3556SOL    HW115606   5.437  10.841   5.816 -0.2112  0.2166  0.0894
 3556SOL    HW215607   5.421  10.784   5.956  1.0378 -0.5012 -0.0450
 3557SOL     OW15608   2.321   4.098   8.043 -0.1551 -0.1911  0.2089
 3557SOL    HW115609   2.271   4.179   8.056  1.5411  0.9781 -0.2254
 3557SOL    HW215610   2.289   4.063   7.960 -0.4079  0.4200  0.0436
 3558SOL     OW15611   0.044   0.496  10.218  0.2064 -0.0615  0.3439
 3558SOL    HW115612   0.127   0.524  10.181  0.1706  1.3436  1.2552
 3558SOL    HW215613   0.022   0.563  10.283 -1.0551 -1.0158  0.9661
 3559SOL     OW15614   8.098   5.748  10.941 -0.2266  0.0335 -0.2838
 3559SOL    HW115615   8.186   5.775  10.917  0.3111 -1.3399  0.0036
 3559SOL    HW215616   8.057   5.826  10.976 -0.0123  1.3430 -2.7491
 3560SOL     OW15617   3.352   3.073  11.297  0.4573  0.1126  0.4199
 3560SOL    HW115618   3.308   3.147  11.254 -1.5700 -0.0866  2.0105
 3560SOL    HW215619   3.294   3.050  11.370  3.0055 -0.5249  2.3615
 3561SOL     OW15620   6.297   8.744   5.968 -0.5074 -0.0550  0.4896
 3561SOL    HW115621   6.301   8.699   5.884 -1.9671  1.8700 -0.7176
 3561SOL    HW215622   6.287   8.837   5.944  0.7554  0.7472  2.8144
 3562SOL     OW15623   7.088   0.856   4.690 -0.5031  0.0037  0.5810
 3562SOL    HW115624   7.117   0.765   4.694 -1.1508 -0.3555 -1.7427
 3562SOL    HW215625   7.035   0.868   4.769  0.5933 -1.2401  1.5482
 3563SOL     OW15626   5.144   9.665  10.334  0.5539 -0.3630  0.2536
 3563SOL    HW115627   5.096   9.713  10.266  1.4145  1.6684  0.9922
 3563SOL    HW215628   5.236   9.682  10.314  0.8296 -0.4144  1.4340
 3564SOL     OW15629   0.634   1.849   0.770 -0.0010  0.2773  0.1556
 3564SOL    HW115630   0.651   1.905   0.695  0.1877  0.3377  0.2427
 3564SOL    HW215631   0.555   1.885   0.810 -1.3457 -0.9959 -1.2123
 3565SOL     OW15632   9.239   4.539   4.275 -0.2501 -0.4432  0.2683
 3565SOL    HW115633   9.309   4.590   4.315  0.5357 -2.0393  1.0189
 3565SOL    HW215634   9.249   4.553   4.181 -0.3924  1.1631  0.4607
 3566SOL     OW15635   4.763   6.241   9.869 -0.3851 -0.2470  0.0358
 3566SOL    HW115636   4.674   6.218   9.896 -0.9968 -0.7450 -2.2331
 3566SOL    HW215637   4.804   6.157   9.848  0.3863  0.0413  0.3635
 3567SOL     OW15638   7.676   5.942   4.325 -0.1872  0.6096  0.4532
 3567SOL    HW115639   7.679   5.902   4.412 -0.2537  1.5520  0.8997
 3567SOL    HW215640   7.628   5.879   4.271 -3.2559  1.5026  1.9323
 3568SOL     OW15641   2.632   8.492   6.007  0.0680 -0.1546  0.6055
 3568SOL    HW115642   2.662   8.420   5.952  1.7641  0.4136  0.7387
 3568SOL    HW215643   2.544   8.513   5.973 -0.0408 -1.6068 -0.0667
 3569SOL     OW15644   1.921   9.151   7.163  0.2607 -0.5230  0.0871
 3569SOL    HW115645   1.943   9.244   7.169  1.1867 -0.8312  3.3977
 3569SOL    HW215646   1.833   9.144   7.200 -0.0950 -0.9346 -0.7899
 3570SOL     OW15647   3.230   2.484   9.164  0.3095 -0.2072 -0.0612
 3570SOL    HW115648   3.302   2.533   9.204 -0.5708 -0.2272  1.6518
 3570SOL    HW215649   3.267   2.448   9.084  1.3394  2.2599 -0.7924
 3571SOL     OW15650  11.369   8.275   6.309  0.3892  0.1866  0.1460
 3571SOL    HW115651  11.447   8.222   6.289  0.2082 -0.0690  0.1114
 3571SOL    HW215652  11.303   8.245   6.246  0.3223  0.5434  0.0432
 3572SOL     OW15653   5.877   7.876   7.965  0.0857  0.8513  0.1509
 3572SOL    HW115654   5.807   7.940   7.979 -0.3024  0.6902 -0.9668
 3572SOL    HW215655   5.837   7.808   7.912  1.0770  0.7482 -0.4958
 3573SOL     OW15656   8.375  10.606   1.047 -0.4386 -0.3271 -0.2914
 3573SOL    HW115657   8.310  10.638   0.985 -0.9037 -0.3902  0.1581
 3573SOL    HW215658   8.369  10.665   1.122 -0.9724 -1.1581  0.3395
 3574SOL     OW15659   5.301   1.027   4.278  0.0284 -0.0137 -0.4984
 3574SOL    HW115660   5.383   1.040   4.231  0.0185 -0.3554 -0.6122
 3574SOL    HW215661   5.237   1.007   4.210  0.3419 -2.0888 -0.2272
 3575SOL     OW15662   5.128   8.023   9.487 -0.1116  0.7295  0.0163
 3575SOL    HW115663   5.211   7.983   9.461 -1.4705 -3.0461  0.9076
 3575SOL    HW215664   5.063   7.986   9.427 -1.2956  3.5168 -0.6010
 3576SOL     OW15665   6.824  11.013   1.243 -0.9318 -0.4371  0.4783
 3576SOL    HW115666   6.768  11.056   1.308 -1.1756  1.5087 -0.9002
 3576SOL    HW215667   6.907  11.000   1.288 -1.4712 -0.3154  1.5602
 3577SOL     OW15668   1.397   9.513   5.806  0.2553 -0.3445 -0.2775
 3577SOL    HW115669   1.344   9.519   5.886  0.2495  3.6346 -0.3809
 3577SOL    HW215670   1.482   9.550   5.831  0.5541  0.1224 -1.8685
 3578SOL     OW15671   6.394   8.538   9.226 -0.8800 -0.4859 -0.7891
 3578SOL    HW115672   6.433   8.623   9.247 -0.3474 -0.9615  0.2851
 3578SOL    HW215673   6.428   8.516   9.140  0.0101 -0.1767 -0.5319
 3579SOL     OW15674   4.828   5.321   9.820  0.1648 -0.6279 -0.0570
 3579SOL    HW115675   4.797   5.230   9.821 -1.9019  0.0237 -0.1066
 3579SOL    HW215676   4.862   5.336   9.908 -0.7535 -1.0558  0.3801
 3580SOL     OW15677   3.113   1.425   8.938  0.1410  0.5291 -0.3546
 3580SOL    HW115678   3.174   1.476   8.991  1.4384  0.1187 -1.4100
 3580SOL    HW215679   3.165   1.353   8.904  0.1682  2.2534 -4.4769
 3581SOL     OW15680   2.593   9.071   3.696  0.3027  0.8210 -0.9053
 3581SOL    HW115681   2.659   9.058   3.628 -0.7451  2.1930 -2.2448
 3581SOL    HW215682   2.510   9.076   3.649 -0.6795  0.1026  0.6516
 3582SOL     OW15683   4.008   2.172  10.007  0.3753  0.2414 -0.1961
 3582SOL    HW115684   4.053   2.206   9.930 -0.2110  1.0286 -0.2000
 3582SOL    HW215685   4.001   2.247  10.066 -3.0876  0.8720 -1.1652
 3583SOL     OW15686  10.125   6.108   2.297  0.2184 -0.0891 -0.3100
 3583SOL    HW115687  10.048   6.098   2.241  0.9546 -0.5521 -1.2787
 3583SOL    HW215688  10.095   6.160   2.371 -1.1155 -0.6011 -0.4742
 3584SOL     OW15689   5.366  10.361   1.281 -0.3523  0.6174  0.0523
 3584SOL    HW115690   5.336  10.313   1.358 -0.9711 -3.1131 -2.2516
 3584SOL    HW215691   5.460  10.373   1.295 -0.4658  0.0220  1.4007
 3585SOL     OW15692   9.449   6.597   4.013 -0.1999  0.5191  0.6675
 3585SOL    HW115693   9.409   6.664   3.957 -0.3638 -0.2801 -0.1936
 3585SOL    HW215694   9.540   6.624   4.020 -0.5808  1.6552  1.5876
 3586SOL     OW15695   0.354   9.189   8.244 -0.0767 -0.1001  0.0342
 3586SOL    HW115696   0.329   9.247   8.172 -2.7990 -0.7337  0.3436
 3586SOL    HW215697   0.274   9.139   8.263  1.5321 -2.3666  1.2603
 3587SOL     OW15698   7.658   9.032   4.264 -0.3913  0.0806 -0.1119
 3587SOL    HW115699   7.657   9.127   4.275 -1.4245 -0.0717  1.4382
 3587SOL    HW215700   7.620   9.017   4.178  0.3378  1.0853 -0.6317
 3588SOL     OW15701   9.050   4.166   4.152  0.2611  0.5217 -0.6236
 3588SOL    HW115702   9.038   4.091   4.093 -1.2597  0.0395  0.2330
 3588SOL    HW215703   9.127   4.211   4.118  0.2865 -0.5490 -2.1047
 3589SOL     OW15704   6.822   0.283   4.093  0.7377  0.6224  0.5748
 3589SOL    HW115705   6.782   0.272   4.006  2.1470 -0.3229  0.0082
 3589SOL    HW215706   6.752   0.258   4.154  0.3985 -0.9137 -0.3787
 3590SOL     OW15707   0.382   7.303  11.596  0.1259  0.1363 -0.0502
 3590SOL    HW115708   0.356   7.215  11.569 -0.0883 -0.0640  0.7922
 3590SOL    HW215709   0.371   7.304  11.691  2.4707  0.2748  0.2944
 3591SOL     OW15710   5.725   5.751   0.842  0.7883 -0.8347  0.2660
 3591SOL    HW115711   5.806   5.701   0.855  1.4482 -0.8700 -3.0954
 3591SOL    HW215712   5.698   5.730   0.753 -2.1651  0.3332  0.7793
 3592SOL     OW15713   2.754   1.739   8.992 -0.0688 -0.0309 -0.2282
 3592SOL    HW115714   2.825   1.774   8.939 -0.6129  1.1399 -0.2215
 3592SOL    HW215715   2.717   1.668   8.940 -0.3126  0.8158 -1.2475
 3593SOL     OW15716   2.250  10.578   1.565  0.8143 -0.0392  0.5641
 3593SOL    HW115717   2.239  10.643   1.635 -0.6536  0.3774 -0.0294
 3593SOL    HW215718   2.333  10.601   1.524  0.4102  1.3623  0.4916
 3594SOL     OW15719   8.302   1.945   0.102 -0.0712  0.5397 -0.1449
 3594SOL    HW115720   8.324   1.960   0.010 -0.7175 -1.7328 -0.7495
 3594SOL    HW215721   8.302   1.849   0.111 -2.3211  0.6163  1.6147
 3595SOL     OW15722   9.491   4.753   3.843  0.9690 -0.4980  0.1284
 3595SOL    HW115723   9.396   4.765   3.841  1.2018  1.6673 -1.5922
 3595SOL    HW215724   9.523   4.825   3.897  1.7339 -0.1919 -0.7091
 3596SOL     OW15725   4.149   0.295   7.589 -0.2410 -0.3586 -0.4609
 3596SOL    HW115726   4.099   0.240   7.528  0.4031 -0.1155 -1.2277
 3596SOL    HW215727   4.120   0.266   7.676  0.2054 -2.0524 -0.8301
 3597SOL     OW15728  11.305  11.672   6.019  0.1380 -0.3057 -0.6164
 3597SOL    HW115729  11.391  11.711   6.035  0.2012 -1.0012  0.9238
 3597SOL    HW215730  11.264  11.730   5.955  1.7105  0.0724 -1.3455
 3598SOL     OW15731   2.651   2.449   4.574  0.1347  0.3602 -0.2075
 3598SOL    HW115732   2.558   2.426   4.580  0.1553  0.4545  0.6153
 3598SOL    HW215733   2.695   2.387   4.632  0.8604 -1.0146 -2.1188
 3599SOL     OW15734   7.749   3.019   2.047 -0.4555  0.4284  0.0224
 3599SOL    HW115735   7.743   3.100   2.098  3.4447  1.1754 -0.4443
 3599SOL    HW215736   7.805   2.961   2.098 -0.1319 -0.5276 -1.3605
 3600SOL     OW15737   1.788  10.028   8.420 -0.0603  0.0988 -0.2387
 3600SOL    HW115738   1.700   9.999   8.441  0.1326 -2.2668 -2.2076
 3600SOL    HW215739   1.837  10.021   8.502 -1.2063 -0.6252  0.3964
 3601SOL     OW15740  11.323   8.272   4.008  0.4907 -0.6227  0.1717
 3601SOL    HW115741  11.252   8.212   4.032 -1.3261  1.7980  1.3659
 3601SOL    HW215742  11.281   8.340   3.956  1.8952  0.8959  0.9051
 3602SOL     OW15743   1.300   3.267  10.617 -0.0941  0.2469 -0.2999
 3602SOL    HW115744   1.339   3.291  10.701 -0.9435 -0.5957  0.3516
 3602SOL    HW215745   1.341   3.327  10.554 -0.4419  1.8260  0.9082
 3603SOL     OW15746  10.268   2.932   6.852 -0.4279  0.3285 -0.3188
 3603SOL    HW115747  10.295   3.023   6.865 -0.0067  0.0894  0.4831
 3603SOL    HW215748  10.244   2.901   6.939 -1.6452 -0.0009 -0.7409
 3604SOL     OW15749   7.356   7.633   1.457 -0.1784 -0.3578  0.1435
 3604SOL    HW115750   7.331   7.680   1.378 -1.6942  0.2664  0.9513
 3604SOL    HW215751   7.276   7.631   1.510  0.5635 -1.5324  1.2784
 3605SOL     OW15752   9.883   6.972   8.548  0.0893  0.6708  0.1240
 3605SOL    HW115753   9.939   6.897   8.526  1.0626  1.1893  0.7496
 3605SOL    HW215754   9.907   6.994   8.638 -1.1704  0.8883  0.4251
 3606SOL     OW15755   0.293   0.387   8.976 -0.4392 -0.0420 -0.0433
 3606SOL    HW115756   0.218   0.374   8.918  1.0019  0.3616 -2.0924
 3606SOL    HW215757   0.299   0.482   8.986  0.3287 -0.0235 -0.6346
 3607SOL     OW15758   7.299   5.926   2.359  0.1356 -0.3691 -0.2719
 3607SOL    HW115759   7.379   5.977   2.348 -0.6537  0.5329 -2.5010
 3607SOL    HW215760   7.257   5.929   2.273 -1.1863 -2.7249  0.1988
 3608SOL     OW15761   4.441   9.439  10.747  0.0464  0.1609 -0.4985
 3608SOL    HW115762   4.461   9.410  10.836 -0.2980 -0.2959 -0.5653
 3608SOL    HW215763   4.350   9.414  10.734 -0.5232  1.9294 -0.2930
 3609SOL     OW15764   3.188   9.239   5.745 -0.0684 -0.0757  0.2944
 3609SOL    HW115765   3.125   9.311   5.746 -1.2821 -1.0783 -1.1128
 3609SOL    HW215766   3.212   9.228   5.837  0.1841  2.1096  0.5596
 3610SOL     OW15767   4.387   7.812   6.392  0.4621  0.1480 -0.3186
 3610SOL    HW115768   4.448   7.741   6.371  0.2346 -0.1929  0.1782
 3610SOL    HW215769   4.344   7.831   6.309  0.4674 -0.3458 -0.4343
 3611SOL     OW15770   2.367   7.995   2.066 -0.2379  0.6603  0.3680
 3611SOL    HW115771   2.352   7.910   2.107  1.0822 -0.2680 -0.9542
 3611SOL    HW215772   2.433   8.037   2.120  0.2735  0.1611  0.1361
 3612SOL     OW15773   9.995   3.945   4.139  0.4976 -0.0017  0.1768
 3612SOL    HW115774  10.049   4.017   4.107  1.0908  0.0732  1.2880
 3612SOL    HW215775  10.057   3.887   4.183 -0.2106 -0.3265  0.7647
 3613SOL     OW15776   0.487   7.240   1.058 -0.5554  1.0437 -0.6028
 3613SOL    HW115777   0.498   7.330   1.087  0.4795  0.7264  0.0534
 3613SOL    HW215778   0.554   7.191   1.105 -2.7832 -0.5402  1.1611
 3614SOL     OW15779   9.974   6.786   6.762  0.1325 -0.1968  0.3811
 3614SOL    HW115780  10.004   6.717   6.704  0.1457  0.0850  0.0533
 3614SOL    HW215781   9.923   6.845   6.706 -1.4678 -0.9280  1.0196
 3615SOL     OW15782   3.741   7.636   3.979  0.8717 -0.5753 -0.4511
 3615SOL    HW115783   3.768   7.629   4.071 -0.6058 -1.0787 -0.0178
 3615SOL    HW215784   3.645   7.633   3.982  0.8090 -1.5448 -2.0764
 3616SOL     OW15785   1.285   1.112   8.743  0.1859 -0.1458  0.1177
 3616SOL    HW115786   1.352   1.176   8.768 -0.8518  1.2576 -0.5547
 3616SOL    HW215787   1.218   1.119   8.812  0.2326 -0.7922  0.2379
 3617SOL     OW15788   1.899   0.342   8.907 -0.2350 -0.0822  0.5485
 3617SOL    HW115789   1.823   0.298   8.944 -0.6759  0.2182  0.0191
 3617SOL    HW215790   1.962   0.272   8.891 -0.9495 -0.5358 -0.3505
 3618SOL     OW15791  10.748   8.508   2.053 -0.3255 -0.4338  0.0754
 3618SOL    HW115792  10.810   8.573   2.019  1.3559 -1.7367  0.4905
 3618SOL    HW215793  10.662   8.548   2.042  0.5033  1.0446 -1.4864
 3619SOL     OW15794   5.148   9.183   5.615 -0.3782  0.3548  0.0875
 3619SOL    HW115795   5.214   9.230   5.667  0.0592  0.0870 -0.2146
 3619SOL    HW215796   5.112   9.118   5.675 -0.7494  0.8493  0.4092
 3620SOL     OW15797   4.974   3.381   7.710 -0.2177 -0.3967  0.0847
 3620SOL    HW115798   5.046   3.360   7.770 -1.1932  0.0354  1.4700
 3620SOL    HW215799   4.943   3.297   7.679  2.5820 -0.5639 -2.7481
 3621SOL     OW15800   6.420   4.934   1.992  0.3450  0.0559 -0.2957
 3621SOL    HW115801   6.363   4.925   2.068  0.7782  0.0462  0.0342
 3621SOL    HW215802   6.450   5.025   1.996  1.5880 -0.3662  0.4341
 3622SOL     OW15803   4.829   8.858   6.678 -0.6402 -0.0837  0.1205
 3622SOL    HW115804   4.866   8.772   6.700 -1.3784 -0.7812 -1.2266
 3622SOL    HW215805   4.897   8.920   6.703 -0.4432 -0.9646  1.9747
 3623SOL     OW15806   3.997   4.497   0.805 -0.0871  0.4425 -0.1915
 3623SOL    HW115807   4.076   4.445   0.820  0.3615  0.5439 -1.9754
 3623SOL    HW215808   3.930   4.433   0.783 -0.8090  0.2708  2.2080
 3624SOL     OW15809  11.049   6.807  11.143 -0.0405  0.1456  0.4506
 3624SOL    HW115810  11.012   6.887  11.179 -0.8023 -1.1002  2.6371
 3624SOL    HW215811  11.136   6.833  11.113 -0.2986  1.8054  1.0183
 3625SOL     OW15812   0.510   0.614  10.302  0.2572  0.9896 -1.1923
 3625SOL    HW115813   0.517   0.522  10.279  2.3267  0.9844 -0.7047
 3625SOL    HW215814   0.417   0.627  10.322  0.2683 -1.5228  0.9201
 3626SOL     OW15815   4.378   8.084  10.946  0.0154  0.5574  0.4719
 3626SOL    HW115816   4.359   8.104  10.854  1.1538 -0.3950  0.0005
 3626SOL    HW215817   4.473   8.073  10.948  0.0923  1.3259  1.9358
 3627SOL     OW15818   9.939  10.457  11.276  0.3940  0.0325 -0.2532
 3627SOL    HW115819   9.893  10.523  11.327  2.2778  2.1205 -1.1106
 3627SOL    HW215820   9.993  10.411  11.340 -0.5615 -0.4132  0.2682
 3628SOL     OW15821   3.047  10.359   5.710  0.0848 -0.1991 -0.0394
 3628SOL    HW115822   3.063  10.325   5.798  1.0155 -0.4645 -0.2934
 3628SOL    HW215823   3.060  10.283   5.653  0.5418  0.2076 -0.4869
 3629SOL     OW15824   0.441   6.854   9.458  0.1404  0.1757 -0.5452
 3629SOL    HW115825   0.428   6.949   9.458  0.3475  0.2139  0.1817
 3629SOL    HW215826   0.355   6.818   9.436  0.2305  0.5372 -1.5475
 3630SOL     OW15827  10.365  11.436  10.736 -0.4262 -0.7551 -0.1610
 3630SOL    HW115828  10.325  11.499  10.797 -0.8684 -1.1539 -0.0337
 3630SOL    HW215829  10.384  11.359  10.790  1.4425 -0.2249  0.0086
 3631SOL     OW15830  11.115  11.116   3.967 -0.0082  0.1101 -0.2677
 3631SOL    HW115831  11.062  11.113   4.047 -0.5926 -0.9184 -0.6783
 3631SOL    HW215832  11.104  11.206   3.935  1.2658  0.9336  1.4631
 3632SOL     OW15833   2.524   6.727   6.685  0.3959  0.2005 -0.3804
 3632SOL    HW115834   2.467   6.658   6.718  1.7075  0.0399  1.7025
 3632SOL    HW215835   2.464   6.790   6.645 -1.3769  0.4295  2.3854
 3633SOL     OW15836   2.854   9.728   5.784  0.0729  0.1787  0.6157
 3633SOL    HW115837   2.864   9.674   5.862 -1.0187  2.7018  2.6579
 3633SOL    HW215838   2.769   9.701   5.748 -0.1973  0.1391  1.2682
 3634SOL     OW15839   1.100   8.760   7.814 -0.2034 -0.0467  0.1317
 3634SOL    HW115840   1.180   8.748   7.865  1.2639 -0.5609 -2.1921
 3634SOL    HW215841   1.121   8.730   7.726 -2.2213  2.0109 -1.1776
 3635SOL     OW15842   4.675   9.421   0.033 -0.5297  0.4066 -0.1620
 3635SOL    HW115843   4.628   9.388  -0.043  1.0599 -0.2391 -0.9268
 3635SOL    HW215844   4.738   9.483  -0.003 -0.5728  1.0110  0.7788
 3636SOL     OW15845   6.533   8.189   7.204 -0.0356  0.2542 -0.3485
 3636SOL    HW115846   6.565   8.272   7.170 -0.8992  1.1579  0.9531
 3636SOL    HW215847   6.438   8.195   7.196 -0.1419 -0.3222  0.3785
 3637SOL     OW15848   4.299   9.107   4.937 -0.3468  0.7418  0.0370
 3637SOL    HW115849   4.332   9.043   5.000 -0.1072  1.2483  0.4334
 3637SOL    HW215850   4.236   9.160   4.987 -0.9973  0.4435 -0.4426
 3638SOL     OW15851  10.794   5.929   4.600 -0.0613 -0.4281 -0.3977
 3638SOL    HW115852  10.791   6.011   4.551 -0.0381 -0.1960 -0.0179
 3638SOL    HW215853  10.802   5.956   4.692 -0.8247 -0.8361 -0.1965
 3639SOL     OW15854   2.505   5.875   5.904 -0.1857  0.3240  0.2271
 3639SOL    HW115855   2.522   5.961   5.866  1.6688  0.5088  1.3815
 3639SOL    HW215856   2.453   5.894   5.982  0.4823  0.4273  0.6477
 3640SOL     OW15857   5.058  10.958   0.571  0.1152 -0.3219  0.6339
 3640SOL    HW115858   5.010  10.926   0.647 -1.7781  0.6115 -0.1065
 3640SOL    HW215859   5.021  10.910   0.497 -1.6936  2.2415 -0.2961
 3641SOL     OW15860  10.224   1.270  11.119 -0.6912 -0.0946 -0.4203
 3641SOL    HW115861  10.139   1.267  11.075 -1.4760 -0.0971  1.0142
 3641SOL    HW215862  10.222   1.195  11.179 -0.0878  0.4861  0.3477
 3642SOL     OW15863   3.191   5.356   5.537 -0.3217 -0.3595  0.4701
 3642SOL    HW115864   3.211   5.442   5.499 -1.1270 -0.0488  0.7131
 3642SOL    HW215865   3.100   5.339   5.511  0.1972 -1.6966 -0.5660
 3643SOL     OW15866   6.625   9.816   8.426  0.5515  0.7083  0.5928
 3643SOL    HW115867   6.615   9.850   8.515 -0.1726 -1.0889  1.2509
 3643SOL    HW215868   6.677   9.737   8.436  2.4966  1.7152 -0.9278
 3644SOL     OW15869   5.475   8.484   4.725 -0.1106 -0.3169  0.6411
 3644SOL    HW115870   5.464   8.403   4.676 -0.9603  0.3659 -0.3317
 3644SOL    HW215871   5.413   8.478   4.798  0.0626 -0.6780  0.7580
 3645SOL     OW15872   7.877   4.221   7.819 -0.3633 -0.0553 -0.1615
 3645SOL    HW115873   7.828   4.139   7.814 -0.2517 -0.2487  1.5033
 3645SOL    HW215874   7.825   4.282   7.767 -0.4252 -1.1667 -1.4669
 3646SOL     OW15875   1.125   8.973   9.906  0.0131 -0.6589 -0.3426
 3646SOL    HW115876   1.105   8.983   9.813  1.1323 -1.3805 -0.6694
 3646SOL    HW215877   1.124   8.879   9.922 -1.1164 -0.5117  0.6063
 3647SOL     OW15878   8.954   7.716   7.912 -0.4466 -0.5834 -0.0983
 3647SOL    HW115879   8.874   7.717   7.965  0.3426  0.1003  1.1302
 3647SOL    HW215880   8.925   7.742   7.824 -1.3991  1.0765  0.6482
 3648SOL     OW15881   5.641   0.932  11.540  0.3967 -0.0193 -0.2524
 3648SOL    HW115882   5.671   1.012  11.498  2.3439 -0.5198  0.1121
 3648SOL    HW215883   5.561   0.957  11.586  1.2700  1.8496  0.3229
 3649SOL     OW15884   9.848   3.398   5.870  0.0008  0.6231 -0.1582
 3649SOL    HW115885   9.844   3.326   5.807 -0.4299 -0.7104  1.3261
 3649SOL    HW215886   9.774   3.455   5.847 -0.1122  0.1831 -0.8906
 3650SOL     OW15887   7.498   7.209   9.725 -0.6660 -0.4179 -0.6009
 3650SOL    HW115888   7.550   7.219   9.645 -0.4972  1.0478 -0.3420
 3650SOL    HW215889   7.561   7.181   9.792 -0.1569  1.3379 -0.2904
 3651SOL     OW15890   2.324   3.775  11.593 -0.8482 -0.3833  0.9844
 3651SOL    HW115891   2.376   3.806  11.667  0.4468 -1.0587  0.3969
 3651SOL    HW215892   2.330   3.845  11.528 -1.5606 -0.0104  1.3128
 3652SOL     OW15893   9.710   9.341  10.860  0.1113 -0.1201 -0.2308
 3652SOL    HW115894   9.740   9.250  10.868 -0.0210 -0.1425  0.0367
 3652SOL    HW215895   9.786   9.389  10.828  0.1224 -0.3620 -0.5673
 3653SOL     OW15896   8.366   4.405   1.043  0.2026  0.1089 -0.0729
 3653SOL    HW115897   8.382   4.373   1.132 -0.3726  0.6960  0.2553
 3653SOL    HW215898   8.302   4.344   1.007 -1.7726  1.4623  0.9542
 3654SOL     OW15899   1.587   2.720   9.935  0.0675  0.1072  0.0863
 3654SOL    HW115900   1.620   2.744  10.022  4.2936 -2.6244 -0.4992
 3654SOL    HW215901   1.548   2.633   9.948 -0.5055  0.2629 -0.5501
 3655SOL     OW15902   5.486   2.338   2.811  0.0918  0.1631 -0.6221
 3655SOL    HW115903   5.437   2.282   2.751  1.0185 -1.3973  0.0067
 3655SOL    HW215904   5.427   2.350   2.886 -1.1693  2.3368 -1.8950
 3656SOL     OW15905   0.995   3.089   0.628 -0.3735  0.1266 -0.3630
 3656SOL    HW115906   0.983   2.996   0.650 -0.2820 -0.1224 -1.2982
 3656SOL    HW215907   0.949   3.100   0.545 -0.4425  0.9456 -0.2263
 3657SOL     OW15908   1.153   9.499  11.641  0.3791 -0.3735 -0.3252
 3657SOL    HW115909   1.154   9.567  11.574  0.2610 -0.6379 -0.5960
 3657SOL    HW215910   1.086   9.438  11.612  0.5052 -0.6223 -0.0934
 3658SOL     OW15911  10.733   8.958   3.169 -0.0766 -0.0540  0.2706
 3658SOL    HW115912  10.666   8.969   3.102  0.1406 -0.1783  0.0315
 3658SOL    HW215913  10.807   9.010   3.138  0.0411 -0.1479  0.3891
 3659SOL     OW15914   6.732   2.970  11.367  0.1348  0.1103  0.6043
 3659SOL    HW115915   6.691   2.904  11.423  0.1127  0.3020  0.8144
 3659SOL    HW215916   6.825   2.968  11.392  0.3033 -0.5052 -0.0506
 3660SOL     OW15917   6.094   8.384   5.428 -0.3551 -0.2240 -0.6556
 3660SOL    HW115918   6.147   8.378   5.507  0.4015  1.3561 -1.0013
 3660SOL    HW215919   6.107   8.299   5.384  0.9872 -0.2967 -0.1662
 3661SOL     OW15920  11.051   8.367   4.088  0.2961  0.1273 -0.2154
 3661SOL    HW115921  11.050   8.274   4.066 -0.3539 -0.1414  0.8853
 3661SOL    HW215922  11.096   8.409   4.014  0.9613 -1.1009 -0.5365
 3662SOL     OW15923   9.149   6.524   5.651 -0.1291 -0.1943  0.5418
 3662SOL    HW115924   9.120   6.606   5.611 -0.9663  0.7839  2.9041
 3662SOL    HW215925   9.093   6.457   5.612  0.3225  0.3989 -1.1732
 3663SOL     OW15926   3.640  10.065   9.749 -0.6369  0.0432  0.0850
 3663SOL    HW115927   3.625  10.057   9.654 -0.0292 -0.2573  0.0076
 3663SOL    HW215928   3.566  10.117   9.781 -0.7899  0.2354 -0.5708
 3664SOL     OW15929   0.983   1.295  10.222  0.1820 -0.2218  0.2731
 3664SOL    HW115930   0.922   1.297  10.149 -0.2938  0.7745  0.6754
 3664SOL    HW215931   1.047   1.228  10.199 -0.4824 -0.5548 -0.6264
 3665SOL     OW15932   8.207   7.118   0.416  0.0686  0.3506 -0.3043
 3665SOL    HW115933   8.287   7.065   0.413 -0.0674  0.0339  1.1991
 3665SOL    HW215934   8.152   7.076   0.481 -1.1015  0.9042 -0.9027
 3666SOL     OW15935   8.105   3.183   7.998 -0.5994  0.0975 -0.1072
 3666SOL    HW115936   8.089   3.090   8.012  1.8715 -0.1181  1.9938
 3666SOL    HW215937   8.118   3.190   7.903 -0.0417 -1.8671 -0.2325
 3667SOL     OW15938   2.137   3.442  11.360  0.3255 -0.4725  0.1982
 3667SOL    HW115939   2.131   3.513  11.296 -0.4694 -0.5125  0.2161
 3667SOL    HW215940   2.225   3.407  11.349  0.7579  0.5578  0.2337
 3668SOL     OW15941   2.574   2.192   6.054 -0.4383  0.3813 -0.1257
 3668SOL    HW115942   2.512   2.259   6.084  0.4960  0.5681  1.5323
 3668SOL    HW215943   2.606   2.225   5.969 -1.1840  1.2294 -0.0925
 3669SOL     OW15944   4.121   2.092   9.519 -0.1233 -0.5656  0.2771
 3669SOL    HW115945   4.083   2.015   9.562 -0.8296 -0.3613  0.0213
 3669SOL    HW215946   4.164   2.057   9.441 -0.0742 -0.7570  0.3904
 3670SOL     OW15947   0.063   1.363   9.468  0.0280 -0.6739 -0.5035
 3670SOL    HW115948   0.152   1.331   9.480 -0.2373 -0.8620  1.2626
 3670SOL    HW215949   0.027   1.368   9.556 -1.1173  1.1570 -1.0110
 3671SOL     OW15950   5.319  10.245  10.392  0.0058 -0.6703  0.1672
 3671SOL    HW115951   5.307  10.314  10.327  1.6566 -0.1310  0.3692
 3671SOL    HW215952   5.282  10.166  10.352  0.4239 -0.2141 -1.1640
 3672SOL     OW15953   0.580   9.280   6.086 -0.6312  0.5052 -0.2308
 3672SOL    HW115954   0.510   9.337   6.118  0.2093  0.1944  2.4112
 3672SOL    HW215955   0.659   9.332   6.095 -0.0605 -0.4762  0.6243
 3673SOL     OW15956   9.362   7.015  11.455 -0.5330  0.1508  0.7104
 3673SOL    HW115957   9.433   7.072  11.423 -1.6078 -0.4306 -3.2768
 3673SOL    HW215958   9.406   6.949  11.508  1.4982  1.3217  0.5988
 3674SOL     OW15959   4.857   3.012  10.925  0.1606 -0.2904  0.0152
 3674SOL    HW115960   4.918   2.994  10.997 -1.3182 -1.2312  1.0671
 3674SOL    HW215961   4.875   2.943  10.861 -0.6745 -1.3702  0.9141
 3675SOL     OW15962   4.580   4.002   6.583 -0.4209 -0.1948  0.3457
 3675SOL    HW115963   4.662   4.051   6.581 -0.1384 -0.6146  1.0155
 3675SOL    HW215964   4.512   4.069   6.580 -0.0487  0.1868  0.2714
 3676SOL     OW15965   3.574   5.845  10.200 -0.4127 -0.6075 -0.2347
 3676SOL    HW115966   3.535   5.855  10.287  0.1410 -0.9290  0.0615
 3676SOL    HW215967   3.625   5.763  10.206 -0.3716 -0.6351 -0.8600
 3677SOL     OW15968   8.215   2.707   0.886 -0.1502 -0.1336 -0.0617
 3677SOL    HW115969   8.260   2.637   0.933 -1.8731 -0.1020  1.8014
 3677SOL    HW215970   8.125   2.676   0.877 -0.3451  0.7761 -1.5217
 3678SOL     OW15971   3.821   9.923   6.787  0.0725 -0.1465  0.2737
 3678SOL    HW115972   3.771   9.871   6.724  0.2721  1.1773 -1.0120
 3678SOL    HW215973   3.800   9.883   6.872  1.5148 -3.4096 -0.7343
 3679SOL     OW15974   8.057   4.151   6.106 -0.0312 -0.4917  0.0288
 3679SOL    HW115975   8.017   4.094   6.171  1.9746 -1.0118  0.8699
 3679SOL    HW215976   8.096   4.222   6.156  0.8371 -0.4587 -0.6674
 3680SOL     OW15977   6.697  10.963   0.805  0.7759 -0.1008  0.7275
 3680SOL    HW115978   6.761  10.951   0.735  1.4179  1.0307  1.0904
 3680SOL    HW215979   6.731  10.911   0.878  0.0774 -1.3258  0.2120
 3681SOL     OW15980   4.249   6.496   6.839 -0.3252  0.2183  0.6225
 3681SOL    HW115981   4.212   6.447   6.766  1.6448  0.4845 -0.6494
 3681SOL    HW215982   4.253   6.433   6.910  1.1666 -1.2525 -0.6632
 3682SOL     OW15983  11.557   1.887   9.391 -0.3859 -0.0202  0.2829
 3682SOL    HW115984  11.472   1.855   9.422 -0.6991 -0.2946 -0.8150
 3682SOL    HW215985  11.537   1.930   9.308  0.4930  0.3231  0.2411
 3683SOL     OW15986   8.536   8.401   5.072 -0.1032 -0.3716  0.5157
 3683SOL    HW115987   8.513   8.425   5.162 -0.9312 -0.7377  0.4132
 3683SOL    HW215988   8.629   8.424   5.064  0.1608 -0.9622  1.6698
 3684SOL     OW15989   3.043   8.797   1.161  0.6822  0.0145 -0.3948
 3684SOL    HW115990   3.036   8.875   1.106  1.7826  0.7010  0.3856
 3684SOL    HW215991   2.998   8.728   1.112 -2.9695  1.7474  0.1433
 3685SOL     OW15992  10.499   3.246   8.241  0.0301  0.0978  0.7198
 3685SOL    HW115993  10.513   3.248   8.335  1.8061  0.6602  0.4866
 3685SOL    HW215994  10.586   3.262   8.203 -0.7928  0.8117 -1.0113
 3686SOL     OW15995   6.431   1.970   8.657 -0.8791  0.1195 -0.1741
 3686SOL    HW115996   6.508   2.027   8.648  0.4405 -1.1171  2.1778
 3686SOL    HW215997   6.466   1.882   8.644 -1.8715 -0.4564  0.8871
 3687SOL     OW15998   0.819   9.307   7.125 -0.3678  0.6355  0.0392
 3687SOL    HW115999   0.780   9.394   7.116  0.1383  0.7731 -1.0165
 3687SOL    HW216000   0.752   9.256   7.169 -0.6563  1.5684  0.7187
 3688SOL     OW16001   3.927   0.343  10.356  0.0644 -0.0785  0.5450
 3688SOL    HW116002   3.873   0.393  10.418 -2.7545 -1.9291 -0.2026
 3688SOL    HW216003   3.930   0.255  10.394  1.7351 -0.2833 -0.0027
 3689SOL     OW16004   0.943   5.863   4.591 -0.5583  0.0206 -0.2635
 3689SOL    HW116005   1.033   5.882   4.563 -0.6019  1.0205  0.2325
 3689SOL    HW216006   0.944   5.770   4.614  0.3604  0.0325 -0.2163
 3690SOL     OW16007   6.672   9.875   0.831 -0.1437 -0.3482 -0.1023
 3690SOL    HW116008   6.731   9.934   0.877  0.2422 -0.4568 -0.4486
 3690SOL    HW216009   6.710   9.788   0.844 -0.1718 -0.4090 -0.4083
 3691SOL     OW16010   7.201   3.380   1.676 -0.2224  0.0107 -0.0006
 3691SOL    HW116011   7.194   3.414   1.765 -0.2409 -0.4835  0.1893
 3691SOL    HW216012   7.191   3.457   1.620 -2.8338  0.0303  0.3330
 3692SOL     OW16013   4.220   0.182   2.684 -0.5125  0.6471 -0.1153
 3692SOL    HW116014   4.195   0.090   2.685 -2.2340  1.0722  1.9498
 3692SOL    HW216015   4.303   0.185   2.731  0.2564  0.0252 -1.3775
 3693SOL     OW16016  10.629   3.963   0.029 -0.1724  0.2066 -0.0348
 3693SOL    HW116017  10.714   3.923   0.048 -0.3238 -0.5096 -0.8446
 3693SOL    HW216018  10.645   4.057   0.040  1.0153  0.1757 -1.2099
 3694SOL     OW16019   2.150   3.337   2.101  0.0877  0.6481 -0.5648
 3694SOL    HW116020   2.134   3.428   2.124  0.8738  0.8165 -0.6509
 3694SOL    HW216021   2.180   3.340   2.010 -0.1044  0.2770 -0.6451
 3695SOL     OW16022   5.014   0.607   2.095  0.3576 -0.0139 -0.4175
 3695SOL    HW116023   5.013   0.678   2.160 -0.6522  0.0686 -0.5105
 3695SOL    HW216024   4.922   0.585   2.083  0.6034 -0.6575 -1.1488
 3696SOL     OW16025   5.566   2.803   1.833  0.5877  0.1314  0.0307
 3696SOL    HW116026   5.558   2.761   1.747  1.0001  0.0882  0.0106
 3696SOL    HW216027   5.630   2.873   1.820 -0.5168  1.1568 -0.0726
 3697SOL     OW16028   3.185   1.083   4.215 -0.1087  0.0253  0.0453
 3697SOL    HW116029   3.107   1.098   4.269 -0.4949 -1.0296 -0.1918
 3697SOL    HW216030   3.169   1.133   4.135  0.5675  1.7811  0.9694
 3698SOL     OW16031   4.750   6.191  11.129  0.1111 -0.2170  0.1621
 3698SOL    HW116032   4.779   6.277  11.158  1.0994 -0.4766 -0.0359
 3698SOL    HW216033   4.799   6.174  11.048  0.8701 -1.4836  0.8512
 3699SOL     OW16034   3.350   0.758   8.900 -0.1214 -0.2197  0.1771
 3699SOL    HW116035   3.383   0.806   8.825 -1.3066  0.9999  0.4158
 3699SOL    HW216036   3.309   0.679   8.863  0.9269 -0.5611 -0.2873
 3700SOL     OW16037   4.078   0.068   2.073  0.4177  0.0366  0.6356
 3700SOL    HW116038   4.114   0.108   1.994 -0.8187 -0.8410 -0.4079
 3700SOL    HW216039   4.089   0.135   2.141  0.5412  1.2189 -0.5174
 3701SOL     OW16040   6.023   8.941   2.174 -0.5330  0.0194  0.5023
 3701SOL    HW116041   6.000   9.009   2.110 -3.4223 -0.5051  0.8130
 3701SOL    HW216042   6.099   8.976   2.220 -3.5237  4.5922  2.6891
 3702SOL     OW16043   1.324  11.600   1.291 -0.1532  0.1317  0.3473
 3702SOL    HW116044   1.417  11.586   1.307 -0.3789 -1.5151  0.3657
 3702SOL    HW216045   1.320  11.686   1.248  1.1410  1.1997  2.2356
 3703SOL     OW16046   3.242   3.354   1.137 -0.4311  0.0275 -0.0637
 3703SOL    HW116047   3.169   3.327   1.192 -1.2038 -1.0779 -1.5554
 3703SOL    HW216048   3.319   3.312   1.176 -0.8684 -0.2481  0.5086
 3704SOL     OW16049   1.451   3.614   4.832  0.4748 -0.4206  0.5705
 3704SOL    HW116050   1.493   3.625   4.747  1.0272  3.0004  1.1523
 3704SOL    HW216051   1.523   3.603   4.894  0.0838 -2.5918  0.7456
 3705SOL     OW16052   9.554  10.803  11.571  0.4417 -0.6565  0.0820
 3705SOL    HW116053   9.472  10.755  11.585 -1.4054  0.9147 -3.7028
 3705SOL    HW216054   9.610  10.741  11.523  0.8187 -1.1785  1.1782
 3706SOL     OW16055   8.902   5.116   6.327 -0.8474  0.6201 -0.3068
 3706SOL    HW116056   8.930   5.089   6.415 -0.6760 -1.7858 -1.0351
 3706SOL    HW216057   8.980   5.152   6.287 -0.9014  1.6461  0.4808
 3707SOL     OW16058   1.449   2.230   6.988 -0.3998  1.0022 -0.2283
 3707SOL    HW116059   1.358   2.256   6.978 -0.8429 -0.0261  0.9480
 3707SOL    HW216060   1.455   2.145   6.945  0.2241  1.4581 -1.0640
 3708SOL     OW16061   2.355   1.547   8.765 -0.1322  0.4228 -0.0201
 3708SOL    HW116062   2.434   1.502   8.794 -0.5797 -0.4252 -0.0923
 3708SOL    HW216063   2.345   1.523   8.673 -1.3738 -0.8439  0.4124
 3709SOL     OW16064   5.739   1.454  10.389 -0.1462 -0.0757 -0.3092
 3709SOL    HW116065   5.669   1.435  10.451  2.5133  0.1099  3.0672
 3709SOL    HW216066   5.767   1.368  10.358 -0.7765 -0.2706 -0.3386
 3710SOL     OW16067   1.061  10.275   7.402  0.0498  0.0653  0.0172
 3710SOL    HW116068   1.079  10.270   7.496 -0.5821  1.4398  0.2376
 3710SOL    HW216069   1.050  10.183   7.375  0.9749 -0.3955  1.1212
 3711SOL     OW16070   6.609   8.988   2.416  0.1038  0.4080  0.7176
 3711SOL    HW116071   6.546   8.975   2.344  0.1776 -1.3663  0.9474
 3711SOL    HW216072   6.676   9.046   2.378 -0.1271 -0.0790 -0.4876
 3712SOL     OW16073   4.557   5.746   9.209  0.8784 -0.2277 -0.0227
 3712SOL    HW116074   4.612   5.815   9.172  3.1429 -1.6723  0.4229
 3712SOL    HW216075   4.619   5.677   9.233 -1.2122 -2.1419  0.1722
 3713SOL     OW16076  10.815   3.890   1.951  0.1561 -0.1662  0.0547
 3713SOL    HW116077  10.789   3.930   2.034 -1.8857 -0.6572 -0.2996
 3713SOL    HW216078  10.911   3.886   1.955  0.2429  1.8588  1.4134
 3714SOL     OW16079   6.514   8.007   6.236  0.0815 -0.2090 -0.5680
 3714SOL    HW116080   6.510   8.101   6.220  0.7208  0.6176  3.1351
 3714SOL    HW216081   6.487   7.967   6.153  0.1473  3.1776 -2.3965
 3715SOL     OW16082  10.140  10.856   1.946  0.5635 -0.4810  0.5972
 3715SOL    HW116083  10.143  10.824   1.856  0.4609  0.1027  0.3893
 3715SOL    HW216084  10.051  10.889   1.957  1.2739  1.7656  0.1097
 3716SOL     OW16085  11.502   6.367   4.557  0.6195 -0.1791 -0.0695
 3716SOL    HW116086  11.469   6.441   4.608  1.7185 -0.4815  1.1386
 3716SOL    HW216087  11.427   6.337   4.506 -0.0797  1.1939  0.0930
 3717SOL     OW16088   8.851  11.403   9.248  0.1015  0.2234  0.1953
 3717SOL    HW116089   8.908  11.480   9.244  0.4768 -0.1077 -2.1635
 3717SOL    HW216090   8.792  11.413   9.173 -1.2598 -0.7443  1.1001
 3718SOL     OW16091   4.377   4.985   8.753 -0.2456 -0.2382  0.5059
 3718SOL    HW116092   4.398   4.900   8.791 -1.4837 -1.6774 -1.7978
 3718SOL    HW216093   4.462   5.023   8.732  0.3241 -1.6784  0.0527
 3719SOL     OW16094  10.927   9.471   7.295  0.1571  0.1588 -0.2173
 3719SOL    HW116095  10.929   9.375   7.296 -0.3656  0.0161  3.4520
 3719SOL    HW216096  11.003   9.497   7.244 -0.9203 -2.0900 -3.2376
 3720SOL     OW16097   0.364  11.147   9.351 -0.4171  0.0627 -0.0118
 3720SOL    HW116098   0.379  11.062   9.309  0.0013 -0.1091  0.4785
 3720SOL    HW216099   0.269  11.158   9.348 -0.5338 -0.7253  0.4874
 3721SOL     OW16100   7.950   2.480   5.366 -0.2899  0.1175 -0.1743
 3721SOL    HW116101   7.861   2.458   5.335 -0.4184 -2.2312  1.5726
 3721SOL    HW216102   7.939   2.501   5.458  0.9666 -0.2613  0.0841
 3722SOL     OW16103   1.870   0.314   2.554 -0.1525 -0.6748 -0.1010
 3722SOL    HW116104   1.937   0.262   2.597 -1.5433 -1.0571  1.7010
 3722SOL    HW216105   1.815   0.250   2.508 -0.3945 -0.5519  0.0146
 3723SOL     OW16106   3.328  10.989   8.921 -0.2295  0.1643  0.1063
 3723SOL    HW116107   3.411  11.035   8.935 -0.1553 -0.1983  0.8738
 3723SOL    HW216108   3.262  11.047   8.958 -0.2807  0.2583 -0.1280
 3724SOL     OW16109   1.270  10.270   2.838  0.3493 -0.2725 -0.0949
 3724SOL    HW116110   1.197  10.285   2.897  1.0376 -1.6110  1.1735
 3724SOL    HW216111   1.231  10.233   2.760 -0.5911  1.6085 -0.5697
 3725SOL     OW16112   4.112   6.802   7.331  0.4203 -0.4634  0.1453
 3725SOL    HW116113   4.162   6.871   7.288  2.3992 -1.3658  0.8658
 3725SOL    HW216114   4.079   6.843   7.411  0.0155  0.1454 -0.3284
 3726SOL     OW16115   9.775   4.131  10.723  0.0522 -0.2353  0.3656
 3726SOL    HW116116   9.766   4.092  10.810  1.8916  0.9348  1.1577
 3726SOL    HW216117   9.868   4.153  10.717  0.1150 -0.9058 -2.2059
 3727SOL     OW16118   4.381   4.626   8.639 -0.6478 -0.0565  0.3318
 3727SOL    HW116119   4.459   4.617   8.585 -0.5617  0.4717  0.3596
 3727SOL    HW216120   4.413   4.660   8.723 -0.8583 -0.2350  0.4865
 3728SOL     OW16121   5.107   8.987   6.218  0.3386 -0.1958 -0.7022
 3728SOL    HW116122   5.177   8.996   6.153  1.1785  1.7898  0.4121
 3728SOL    HW216123   5.030   9.026   6.176  0.8957  1.1562 -0.5115
 3729SOL     OW16124   8.281   7.102   5.934  0.0580 -0.6938 -0.0913
 3729SOL    HW116125   8.275   7.080   6.027 -0.8674 -0.6404 -0.1326
 3729SOL    HW216126   8.313   7.192   5.933  0.7008 -0.9092  0.1490
 3730SOL     OW16127   5.183  10.130   2.875 -0.2231 -0.2250  0.2251
 3730SOL    HW116128   5.241  10.128   2.951 -0.6178  1.6524  0.6459
 3730SOL    HW216129   5.241  10.122   2.800  0.6807  1.7777  0.6273
 3731SOL     OW16130   1.744   4.255   4.941 -0.4744  0.3280  0.1775
 3731SOL    HW116131   1.825   4.204   4.935  2.1540  4.0068  1.2441
 3731SOL    HW216132   1.720   4.251   5.033 -1.2083 -0.2204 -0.0254
 3732SOL     OW16133   7.967   1.995   7.198  0.0495  0.4380 -0.4321
 3732SOL    HW116134   8.047   1.947   7.218 -1.5805 -1.5896  1.7170
 3732SOL    HW216135   7.965   2.066   7.262 -1.1117 -1.1367  1.3763
 3733SOL     OW16136   1.350   0.852   3.083 -0.0057 -0.0824 -0.0899
 3733SOL    HW116137   1.410   0.780   3.101 -1.7794 -1.2438  1.5095
 3733SOL    HW216138   1.406   0.923   3.052  2.1874 -1.1293  1.2599
 3734SOL     OW16139   6.739   6.724   5.650  0.3134 -0.0956 -0.0347
 3734SOL    HW116140   6.729   6.818   5.634  0.2932 -0.1560 -0.3870
 3734SOL    HW216141   6.682   6.683   5.585  0.9568 -0.3787 -0.4248
 3735SOL     OW16142   4.158   8.660   8.017  0.2389  0.7034  0.2841
 3735SOL    HW116143   4.093   8.602   7.976  2.0601 -1.2408 -0.0264
 3735SOL    HW216144   4.242   8.620   7.995  1.4524  1.5695  2.9920
 3736SOL     OW16145   8.769   2.797   5.026  0.1311  0.3813  0.6875
 3736SOL    HW116146   8.718   2.833   4.954 -2.0894 -2.7841  0.4315
 3736SOL    HW216147   8.858   2.827   5.011 -0.7923  2.1643 -1.7159
 3737SOL     OW16148   2.796   4.007   6.752  0.4502  0.0849 -0.1863
 3737SOL    HW116149   2.753   3.956   6.820  2.3567 -1.5358 -0.1030
 3737SOL    HW216150   2.725   4.051   6.706 -1.3753 -2.8196 -0.3924
 3738SOL     OW16151   5.497   8.070   2.499 -0.3715  0.2238 -0.3378
 3738SOL    HW116152   5.551   8.106   2.569 -2.0295  1.3295  0.4303
 3738SOL    HW216153   5.434   8.014   2.544 -0.7378  0.0388 -1.0651
 3739SOL     OW16154   5.004   5.858  11.098 -0.1504 -0.4136 -0.1339
 3739SOL    HW116155   4.981   5.885  11.187 -0.4928 -1.1240  0.0013
 3739SOL    HW216156   4.920   5.855  11.052 -0.2068 -1.7428  0.0053
 3740SOL     OW16157  10.877   5.442   9.876  0.0716 -0.0456  0.0597
 3740SOL    HW116158  10.876   5.389   9.956  3.1562 -1.8909 -0.9529
 3740SOL    HW216159  10.952   5.502   9.888 -1.4358  2.0084 -0.1647
 3741SOL     OW16160   2.343   3.425   6.917 -0.5414 -0.2721  0.2979
 3741SOL    HW116161   2.267   3.408   6.860 -0.0767  0.3759 -0.5318
 3741SOL    HW216162   2.305   3.432   7.004 -2.0782  3.6496 -0.4360
 3742SOL     OW16163   3.990   5.260   7.218  0.4579 -0.4618  0.0611
 3742SOL    HW116164   4.021   5.253   7.308  1.7077  0.7259 -0.2464
 3742SOL    HW216165   3.969   5.353   7.206  0.1452 -0.6321 -0.8274
 3743SOL     OW16166   2.034   4.866   1.713 -0.4001  0.5355  0.2577
 3743SOL    HW116167   1.955   4.854   1.765 -0.2079  0.6307  0.5737
 3743SOL    HW216168   2.011   4.935   1.651 -0.2037  1.3855  1.1057
 3744SOL     OW16169   3.179   0.986   5.330 -0.2257  0.5689 -0.2464
 3744SOL    HW116170   3.256   0.945   5.292  0.4845  0.8649  0.8404
 3744SOL    HW216171   3.182   0.962   5.423 -1.6514  0.2686 -0.2480
 3745SOL     OW16172   2.734   3.402   8.248  0.4138 -0.1014 -0.1986
 3745SOL    HW116173   2.825   3.413   8.219  0.4590  0.7090  0.2181
 3745SOL    HW216174   2.717   3.308   8.238  1.7283 -0.4989  0.9865
 3746SOL     OW16175  11.687   1.327   5.654  0.0347  0.2077  0.3317
 3746SOL    HW116176  11.658   1.249   5.701  0.0067 -0.5272 -0.8652
 3746SOL    HW216177  11.608   1.381   5.644  0.1840  0.7392  1.7488
 3747SOL     OW16178   7.781   3.886   8.851  0.2103  0.1440 -0.0415
 3747SOL    HW116179   7.827   3.843   8.779 -0.3366 -0.6511  0.0730
 3747SOL    HW216180   7.689   3.886   8.825  0.2993  2.3420 -0.5877
 3748SOL     OW16181  10.106  10.830   2.240  0.2125  0.0032  0.3620
 3748SOL    HW116182  10.128  10.913   2.283  0.5259 -0.2955  0.7853
 3748SOL    HW216183  10.100  10.852   2.147 -0.4752  0.6585  0.5524
 3749SOL     OW16184  10.998  11.088   1.618  0.2189  0.0989 -1.0953
 3749SOL    HW116185  11.092  11.092   1.604  0.2922 -1.0078 -0.9830
 3749SOL    HW216186  10.960  11.109   1.532  0.5418  1.0741 -1.0126
 3750SOL     OW16187   3.091   1.910   1.343 -0.2957 -0.4796 -0.5543
 3750SOL    HW116188   3.047   1.825   1.356  0.7331 -1.1317 -1.1648
 3750SOL    HW216189   3.073   1.932   1.252 -0.4156 -0.1177 -0.4445
 3751SOL     OW16190   0.564   3.884   3.838 -0.5923 -0.1155  0.3456
 3751SOL    HW116191   0.606   3.800   3.856  0.2943  0.0551 -0.8322
 3751SOL    HW216192   0.608   3.917   3.760 -2.0471  0.6928 -0.1604
 3752SOL     OW16193   8.320   8.053   2.531 -0.1181  0.1973  0.4281
 3752SOL    HW116194   8.355   8.003   2.457 -0.1161 -0.2771  0.7390
 3752SOL    HW216195   8.363   8.138   2.525 -0.6762  0.4313 -0.5444
 3753SOL     OW16196   6.776   9.076   1.950  0.2733 -0.1898 -0.2218
 3753SOL    HW116197   6.816   8.994   1.922  0.2950 -0.3509  0.2728
 3753SOL    HW216198   6.706   9.091   1.886  0.3132 -0.5568 -0.3568
 3754SOL     OW16199   5.332   4.553   8.212  0.0247 -0.0078  0.2795
 3754SOL    HW116200   5.345   4.582   8.122  2.5248 -1.6152  0.0480
 3754SOL    HW216201   5.264   4.485   8.206  0.4400 -0.3637 -0.4591
 3755SOL     OW16202   9.310   1.857   1.507 -0.6495  0.0864 -0.5799
 3755SOL    HW116203   9.306   1.762   1.499  0.0811 -0.0402  0.3632
 3755SOL    HW216204   9.225   1.882   1.544 -0.4424 -0.3225  0.1925
 3756SOL     OW16205   2.371   9.544   8.599 -0.0074 -0.7724 -0.0575
 3756SOL    HW116206   2.431   9.469   8.601  0.9448 -0.0737 -0.9645
 3756SOL    HW216207   2.424   9.615   8.561  0.0283  1.1667  3.2403
 3757SOL     OW16208   1.804   2.123   8.862  0.4948  0.2123  0.2874
 3757SOL    HW116209   1.879   2.164   8.906  0.2546  2.1106 -0.9544
 3757SOL    HW216210   1.733   2.186   8.874 -0.0804 -0.1438 -1.1520
 3758SOL     OW16211   5.653   7.909   7.015 -0.3182 -0.1729  0.0398
 3758SOL    HW116212   5.746   7.908   7.037 -0.3801 -2.6061  0.5472
 3758SOL    HW216213   5.626   8.000   7.025  1.8079  0.4405  0.6900
 3759SOL     OW16214   7.314   2.265   5.066  0.0971  0.1004 -0.0668
 3759SOL    HW116215   7.329   2.274   4.972 -1.1268  1.8204 -0.1585
 3759SOL    HW216216   7.245   2.329   5.085 -0.6434 -1.1443  1.7708
 3760SOL     OW16217   4.808   7.805   8.626  0.2088  0.8219 -0.1821
 3760SOL    HW116218   4.837   7.715   8.640  1.3165  0.6729 -2.7992
 3760SOL    HW216219   4.855   7.856   8.692  0.4200 -0.3812  0.6144
 3761SOL     OW16220   9.232   6.479   8.775 -0.8452 -0.3295 -0.1567
 3761SOL    HW116221   9.174   6.411   8.743 -1.0895 -0.0071 -0.4045
 3761SOL    HW216222   9.177   6.558   8.779 -0.4216 -0.0210 -0.4056
 3762SOL     OW16223   1.085   3.822   8.973  0.2376 -0.0729 -0.8226
 3762SOL    HW116224   1.063   3.846   9.062  1.9129  2.7097 -1.0557
 3762SOL    HW216225   1.031   3.879   8.918  1.3084  0.3121 -1.5074
 3763SOL     OW16226   4.633  10.779   9.843 -0.0144 -0.3311 -0.0043
 3763SOL    HW116227   4.684  10.852   9.877  0.2845 -0.8059  0.5870
 3763SOL    HW216228   4.689  10.703   9.855 -0.5699 -0.7528 -0.0292
 3764SOL     OW16229   1.437   9.818   9.075  0.3341  0.5574  0.5977
 3764SOL    HW116230   1.345   9.821   9.049  0.8317  0.7688 -1.2932
 3764SOL    HW216231   1.471   9.905   9.055  1.3730 -0.0728 -0.5016
 3765SOL     OW16232   5.869   4.642   7.031 -0.7565  0.2068  0.5881
 3765SOL    HW116233   5.790   4.645   7.084 -0.8527 -2.3847  0.7489
 3765SOL    HW216234   5.879   4.549   7.008  1.0138  0.7700 -1.2984
 3766SOL     OW16235   9.483   2.242  11.240  0.0868 -0.6460 -0.2453
 3766SOL    HW116236   9.508   2.151  11.257  3.0115 -0.0583 -0.7532
 3766SOL    HW216237   9.556   2.277  11.188 -0.7296  2.0965  0.2863
 3767SOL     OW16238   6.970   7.020   3.475  0.0791 -0.2707 -1.0311
 3767SOL    HW116239   6.915   7.087   3.516 -1.4132 -0.5869 -2.4537
 3767SOL    HW216240   6.939   6.937   3.512 -0.1323 -0.4188 -1.5410
 3768SOL     OW16241   1.038  10.269   0.002 -0.1035 -0.2478  0.0957
 3768SOL    HW116242   0.949  10.232  -0.001 -0.3081  0.2807 -0.4904
 3768SOL    HW216243   1.028  10.358  -0.032  1.1364 -1.1042 -2.7439
 3769SOL     OW16244   8.975   1.087   9.304 -0.1487  0.0674  0.0655
 3769SOL    HW116245   9.005   1.106   9.393 -0.8198  1.8019 -0.0386
 3769SOL    HW216246   8.885   1.119   9.302  0.0347  0.5486 -1.3801
 3770SOL     OW16247   2.146   5.848   1.631 -0.2881 -0.6472 -0.1094
 3770SOL    HW116248   2.193   5.929   1.647  1.4255 -1.7736  0.9316
 3770SOL    HW216249   2.060   5.875   1.601  0.0212  1.5434  0.8317
 3771SOL     OW16250   0.906   9.091   2.156  0.3745 -0.3283 -0.0261
 3771SOL    HW116251   0.843   9.100   2.085  0.2096  1.1261  0.2730
 3771SOL    HW216252   0.990   9.115   2.117 -0.0381  2.7245  0.7324
 3772SOL     OW16253   7.696   7.657   2.705  0.0777  0.3026  0.2286
 3772SOL    HW116254   7.691   7.592   2.774  1.8994  0.4268  0.5296
 3772SOL    HW216255   7.788   7.682   2.702 -0.0083  0.5944 -1.9804
 3773SOL     OW16256   3.243   0.672   3.289  0.0532 -0.4357  0.9370
 3773SOL    HW116257   3.160   0.682   3.336 -0.6297 -1.0431 -0.0890
 3773SOL    HW216258   3.304   0.729   3.336 -1.0191  0.2833  1.5136
 3774SOL     OW16259  10.301   2.551   1.831 -0.3305 -0.0431  0.0089
 3774SOL    HW116260  10.215   2.533   1.870 -0.7151  1.7898  0.1102
 3774SOL    HW216261  10.284   2.553   1.737 -0.5366  0.8888  0.0580
 3775SOL     OW16262   7.826   4.833   7.929 -0.2597 -0.2952 -0.0439
 3775SOL    HW116263   7.866   4.837   7.842 -2.8049  1.7825 -1.2641
 3775SOL    HW216264   7.747   4.780   7.917  0.1193 -1.2619  1.4132
 3776SOL     OW16265   2.095   1.352   7.185 -0.4920  0.4962  0.2097
 3776SOL    HW116266   2.080   1.407   7.262 -0.0237  0.0275  0.6440
 3776SOL    HW216267   2.053   1.399   7.113 -0.8245  1.0000  0.7300
 3777SOL     OW16268   3.182   2.593   2.261  0.5781 -0.3336  0.0959
 3777SOL    HW116269   3.261   2.551   2.295  0.6446 -0.0610  0.2809
 3777SOL    HW216270   3.146   2.640   2.336 -0.6607 -1.7755  0.4489
 3778SOL     OW16271  11.499   8.931   4.296 -0.3955 -0.8493 -0.0395
 3778SOL    HW116272  11.434   8.997   4.320 -1.4984 -1.6097 -0.8332
 3778SOL    HW216273  11.485   8.860   4.359  1.4751  0.0291  1.4754
 3779SOL     OW16274   5.777   8.989   5.218 -0.7476 -0.6853  0.6742
 3779SOL    HW116275   5.691   8.947   5.222 -0.9506 -0.1760  2.4823
 3779SOL    HW216276   5.836   8.926   5.259 -0.3033 -0.8603 -0.1982
 3780SOL     OW16277   7.104   4.887   4.899  0.7188  0.1785 -0.2002
 3780SOL    HW116278   7.183   4.836   4.918 -0.9277 -1.7477  2.1678
 3780SOL    HW216279   7.044   4.825   4.860 -1.0714  0.3972  2.0123
 3781SOL     OW16280   0.730   5.175   2.546 -0.1993  0.1157  0.3054
 3781SOL    HW116281   0.759   5.260   2.580  0.0440 -0.0672  0.5565
 3781SOL    HW216282   0.647   5.159   2.592 -0.3072  0.2688  0.1697
 3782SOL     OW16283   1.084   1.413   1.276 -0.3389 -0.1701 -0.3080
 3782SOL    HW116284   1.100   1.430   1.184  0.6098  3.5842  0.3848
 3782SOL    HW216285   1.171   1.413   1.316 -0.8834  1.2752  0.9529
 3783SOL     OW16286   3.831   7.294   4.645 -0.2597 -0.6014  0.0951
 3783SOL    HW116287   3.888   7.226   4.682 -0.1816  0.2161  1.5890
 3783SOL    HW216288   3.749   7.285   4.694  0.0004  0.8138  0.8519
 3784SOL     OW16289   6.680   2.132  10.067 -0.4964  0.1207 -0.2851
 3784SOL    HW116290   6.682   2.036  10.073  2.9560  0.1065  0.5058
 3784SOL    HW216291   6.625   2.159  10.140  0.7945 -1.2789  1.3096
 3785SOL     OW16292   0.353  10.592   2.900  0.8831  0.3409  0.3335
 3785SOL    HW116293   0.395  10.508   2.882 -0.4001 -0.1765 -0.4143
 3785SOL    HW216294   0.392  10.622   2.982  0.6310 -1.4948  1.1693
 3786SOL     OW16295  10.860   7.649   1.668  0.1269  0.2703  0.2972
 3786SOL    HW116296  10.808   7.569   1.663 -1.2733  1.0887  1.1393
 3786SOL    HW216297  10.796   7.719   1.678  1.3116  1.5387 -0.5634
 3787SOL     OW16298   3.315   3.815   3.129 -0.7108  0.2219  0.1790
 3787SOL    HW116299   3.245   3.762   3.091 -0.1384 -0.7019  0.3876
 3787SOL    HW216300   3.288   3.906   3.112 -2.0472 -0.1058  0.4154
 3788SOL     OW16301   5.072   8.093   2.137 -0.1153 -0.1135 -0.0869
 3788SOL    HW116302   5.096   8.106   2.045  1.1556 -0.2592  0.2146
 3788SOL    HW216303   5.106   8.006   2.158 -1.0641 -0.3993  0.3186
 3789SOL     OW16304  11.182   7.633   6.140  0.7145 -0.3592  0.1766
 3789SOL    HW116305  11.240   7.558   6.153  0.7658 -0.2049  0.8458
 3789SOL    HW216306  11.137   7.643   6.223 -0.4956 -0.6598 -0.4209
 3790SOL     OW16307   0.096   9.283   0.390 -0.1988  0.0999  0.5154
 3790SOL    HW116308   0.176   9.308   0.344  0.7864  3.0911  3.4303
 3790SOL    HW216309   0.126   9.230   0.464 -1.4241 -1.9903 -0.3812
 3791SOL     OW16310  10.129   5.222   0.223 -0.0144 -0.2438  0.2332
 3791SOL    HW116311  10.168   5.182   0.145 -0.0098 -0.4965  0.3628
 3791SOL    HW216312  10.065   5.283   0.189 -0.3771 -0.7282  0.0354
 3792SOL     OW16313   9.886   2.650   2.576 -0.1884  0.0450  0.2124
 3792SOL    HW116314   9.939   2.610   2.645  2.0983  0.0404 -1.4463
 3792SOL    HW216315   9.815   2.587   2.562  0.3805 -0.8677  1.2425
 3793SOL     OW16316   7.334   6.312  11.599 -0.9994 -0.1896  0.2400
 3793SOL    HW116317   7.289   6.327  11.682 -2.0367 -0.1913 -0.2908
 3793SOL    HW216318   7.283   6.242  11.557  0.0916 -0.8758  0.0233
 3794SOL     OW16319   7.748   9.156   8.764 -0.3183  0.4867  0.0805
 3794SOL    HW116320   7.816   9.110   8.814 -0.4898 -0.4798 -0.5361
 3794SOL    HW216321   7.667   9.114   8.792 -0.4346  0.0805 -0.8319
 3795SOL     OW16322   6.610   0.433  10.370 -0.0214  0.3370  0.3454
 3795SOL    HW116323   6.543   0.368  10.389 -0.3214 -0.3012 -2.4792
 3795SOL    HW216324   6.612   0.490  10.447  0.8805 -3.4393  3.3992
 3796SOL     OW16325   4.080   3.966   1.958  0.5319 -0.4264 -0.4744
 3796SOL    HW116326   4.164   4.005   1.982 -0.7013  2.4016 -0.4172
 3796SOL    HW216327   4.096   3.926   1.872  1.8409  0.3401 -0.6183
 3797SOL     OW16328   8.047   6.207   1.343  0.8160 -0.1486  0.0272
 3797SOL    HW116329   8.139   6.206   1.318  0.9238  5.0961 -1.0227
 3797SOL    HW216330   8.044   6.264   1.420 -1.5746  0.2902 -0.3171
 3798SOL     OW16331   2.517  11.660   7.724 -0.1192 -0.0033  0.0610
 3798SOL    HW116332   2.591  11.720   7.734 -0.3288  0.2253  0.2333
 3798SOL    HW216333   2.508  11.619   7.810 -0.9394  0.8321  0.3854
 3799SOL     OW16334   5.060   8.973   4.124 -0.0002  0.5945 -0.0172
 3799SOL    HW116335   5.017   8.908   4.068 -0.7085  1.0531 -0.0073
 3799SOL    HW216336   5.006   8.977   4.202  1.5349 -0.7865  1.1907
 3800SOL     OW16337   8.362   9.954   8.041 -0.1709  0.1664  0.2900
 3800SOL    HW116338   8.319   9.870   8.027 -1.8320  0.9212  0.6449
 3800SOL    HW216339   8.423   9.939   8.113  1.8020 -1.4545 -1.5570
 3801SOL     OW16340  10.564   1.463   3.806  0.2960 -0.1855 -0.5106
 3801SOL    HW116341  10.499   1.467   3.736 -1.0993  3.5098  0.7627
 3801SOL    HW216342  10.514   1.442   3.884  0.9207  0.8984  0.2005
 3802SOL     OW16343   3.889   2.084   4.872 -0.7952  0.0672 -0.1843
 3802SOL    HW116344   3.794   2.087   4.857 -1.1013  0.7881  1.5974
 3802SOL    HW216345   3.922   2.165   4.832 -1.1204  0.4286  0.2700
 3803SOL     OW16346   4.231   3.817   6.545 -0.6347 -0.2859  0.0725
 3803SOL    HW116347   4.265   3.879   6.610  1.6832 -1.9420  0.5398
 3803SOL    HW216348   4.268   3.848   6.461 -0.5159 -0.2995  0.1192
 3804SOL     OW16349   8.253  10.449   7.950  0.0603 -0.2503 -0.0531
 3804SOL    HW116350   8.212  10.413   8.029  0.4043 -0.5128  0.0112
 3804SOL    HW216351   8.197  10.420   7.878 -0.5364  0.4164  0.1351
 3805SOL     OW16352   0.462  11.375   9.272 -0.3776  0.1878  0.2759
 3805SOL    HW116353   0.442  11.390   9.180  2.0798  1.2603 -0.1649
 3805SOL    HW216354   0.451  11.281   9.284 -0.2981 -0.0397 -1.2268
 3806SOL     OW16355   1.145  11.333   4.188  0.0819 -0.3396 -0.4578
 3806SOL    HW116356   1.124  11.243   4.211  0.4832 -0.0673  1.0931
 3806SOL    HW216357   1.071  11.384   4.221 -0.1635 -0.0829 -1.3599
 3807SOL     OW16358   1.610   8.355   7.959 -0.8695  0.3720  0.0934
 3807SOL    HW116359   1.586   8.328   7.870 -1.7816 -0.5360  0.6055
 3807SOL    HW216360   1.679   8.420   7.945  0.5858 -1.3461 -1.2239
 3808SOL     OW16361   8.815   1.790   2.124  0.8480  0.1169  0.3138
 3808SOL    HW116362   8.853   1.839   2.197 -1.2089  0.3864  1.2989
 3808SOL    HW216363   8.799   1.703   2.160  1.9743 -0.4843 -0.5831
 3809SOL     OW16364   2.567   4.444   8.129  0.1992 -0.0097 -0.4108
 3809SOL    HW116365   2.571   4.349   8.122  0.8844  0.0268 -0.5815
 3809SOL    HW216366   2.616   4.476   8.053  0.2782  0.4798 -0.1609
 3810SOL     OW16367   5.586   6.172  11.588  0.2457  0.0601  0.0899
 3810SOL    HW116368   5.636   6.249  11.615 -1.3584  1.3721 -0.5661
 3810SOL    HW216369   5.500   6.182  11.629 -0.7749 -0.1501 -1.8736
 3811SOL     OW16370   1.540  10.953   7.957 -0.1338 -0.0805 -0.0088
 3811SOL    HW116371   1.595  10.935   7.880 -0.8678 -0.2226 -0.5112
 3811SOL    HW216372   1.507  10.867   7.984 -0.8468  0.0933 -0.2873
 3812SOL     OW16373   2.289   3.473   4.016 -0.2813 -0.1441 -0.6015
 3812SOL    HW116374   2.266   3.447   3.927  1.4440 -1.6746 -0.6640
 3812SOL    HW216375   2.319   3.392   4.057  0.7988  0.9088  0.7617
 3813SOL     OW16376  10.919  11.240   5.962  0.1607 -0.4110  0.4731
 3813SOL    HW116377  10.890  11.211   6.049 -2.8318  0.7779  0.0155
 3813SOL    HW216378  10.965  11.322   5.978 -1.4423  0.4486  0.9349
 3814SOL     OW16379   5.002   6.816   5.272  0.1479  0.6599 -0.5301
 3814SOL    HW116380   5.003   6.734   5.224  0.0900 -0.0196  0.5920
 3814SOL    HW216381   5.085   6.817   5.320  0.2791  1.3995 -0.7531
 3815SOL     OW16382   1.289   3.651  11.092 -0.6511  0.2197  0.1349
 3815SOL    HW116383   1.241   3.595  11.153 -1.4213  1.6318  0.8705
 3815SOL    HW216384   1.227   3.719  11.067  0.5392  1.3256  0.0567
 3816SOL     OW16385   4.504   9.132   0.607 -0.2692 -0.8750  0.5221
 3816SOL    HW116386   4.472   9.050   0.569 -2.7046 -0.4624  1.5218
 3816SOL    HW216387   4.495   9.120   0.701 -1.5642  0.8393  0.6680
 3817SOL     OW16388   0.314   3.491   7.620  0.0489  0.1214  0.5408
 3817SOL    HW116389   0.305   3.585   7.636 -0.8799 -0.2247  2.4064
 3817SOL    HW216390   0.406   3.478   7.600 -0.1665  1.6676 -1.8913
 3818SOL     OW16391   9.054   5.003   1.720  0.5620  0.1310 -0.4883
 3818SOL    HW116392   9.029   5.091   1.690 -0.5111 -0.1616 -0.5165
 3818SOL    HW216393   8.991   4.983   1.790  1.1503 -0.3926 -0.0999
 3819SOL     OW16394   6.883   4.607   6.001 -0.6330 -0.1248  0.7401
 3819SOL    HW116395   6.856   4.656   5.924 -0.0399 -0.2283  0.4620
 3819SOL    HW216396   6.826   4.530   6.002  2.0953 -2.4150 -2.0757
 3820SOL     OW16397   3.310  11.477   5.603 -0.0210 -0.3027  0.3267
 3820SOL    HW116398   3.275  11.510   5.521  0.0173 -0.3120  0.3067
 3820SOL    HW216399   3.342  11.554   5.649 -0.1804 -0.2801  0.3994
 3821SOL     OW16400   9.672   7.319   4.705  0.0526 -0.2008  0.0682
 3821SOL    HW116401   9.741   7.331   4.770 -0.1725 -0.4202  0.3525
 3821SOL    HW216402   9.708   7.258   4.641 -0.3159 -1.3223  0.8865
 3822SOL     OW16403  10.964   5.175   5.509 -0.1597  0.1921  0.2257
 3822SOL    HW116404  10.949   5.114   5.582 -3.3836 -1.8809 -1.9623
 3822SOL    HW216405  10.899   5.244   5.522  1.3736  1.5814  0.9264
 3823SOL     OW16406   3.764   9.709   7.308 -0.0184  0.4183 -0.0751
 3823SOL    HW116407   3.723   9.623   7.299 -2.3402  1.4958 -0.5914
 3823SOL    HW216408   3.761   9.727   7.402  1.6636 -0.5496  0.2049
 3824SOL     OW16409   1.421   4.283   7.964 -0.0635 -0.2806  0.6543
 3824SOL    HW116410   1.502   4.256   8.007  0.6731  1.1226  0.2073
 3824SOL    HW216411   1.377   4.201   7.943  2.1906 -1.1941 -0.8961
 3825SOL     OW16412   7.217   1.947   4.671 -0.5092 -0.2352  1.0800
 3825SOL    HW116413   7.133   1.939   4.716 -1.7169  2.1151 -0.5514
 3825SOL    HW216414   7.202   1.906   4.585  0.5556 -1.2280  1.3360
 3826SOL     OW16415   7.875   9.363   7.770  0.1916  0.1506 -0.2459
 3826SOL    HW116416   7.798   9.417   7.758 -0.2159  0.3804  2.6918
 3826SOL    HW216417   7.841   9.280   7.804  1.1821 -0.0254  0.3417
 3827SOL     OW16418   7.007   3.262  11.319  0.0115  0.1224 -0.0627
 3827SOL    HW116419   6.973   3.298  11.401  0.6491  0.1504  0.1901
 3827SOL    HW216420   6.934   3.270  11.258 -0.1410  1.0661  0.2211
 3828SOL     OW16421   0.936   4.792   7.858 -0.1612  0.3887  0.2538
 3828SOL    HW116422   1.025   4.776   7.826 -0.7754 -0.9120 -0.9399
 3828SOL    HW216423   0.948   4.846   7.936  1.5964  1.4025 -0.6320
 3829SOL     OW16424   8.134  11.413   2.989  0.3311  0.0710  0.5323
 3829SOL    HW116425   8.104  11.325   2.969 -2.0765 -0.6134  5.6136
 3829SOL    HW216426   8.063  11.470   2.959  0.5335 -0.0166 -0.1212
 3830SOL     OW16427   2.459   1.481   3.146 -0.0821 -0.1848 -0.1620
 3830SOL    HW116428   2.387   1.456   3.203  1.0746 -1.5515  0.7819
 3830SOL    HW216429   2.419   1.498   3.061 -1.7772  1.3042  0.8683
 3831SOL     OW16430   5.524   9.825   7.194  0.2215  0.4527  0.0714
 3831SOL    HW116431   5.492   9.886   7.260 -1.0004  0.4928 -0.5241
 3831SOL    HW216432   5.461   9.753   7.196 -0.1533  0.7018 -1.4038
 3832SOL     OW16433   4.277  11.120   6.188  0.5095 -0.1154 -0.5188
 3832SOL    HW116434   4.356  11.103   6.240  0.4089  0.7684 -0.0571
 3832SOL    HW216435   4.221  11.045   6.206  1.1848 -0.6913 -0.7502
 3833SOL     OW16436   7.510   4.280  10.360  0.3670  0.4849 -0.6138
 3833SOL    HW116437   7.538   4.234  10.439 -2.2681 -0.6869 -0.2351
 3833SOL    HW216438   7.464   4.358  10.394 -0.3623  0.2227 -0.9787
 3834SOL     OW16439   3.127   1.224   0.757  0.1446 -0.2980  0.1780
 3834SOL    HW116440   3.186   1.226   0.833  0.8365  1.4681 -0.3382
 3834SOL    HW216441   3.164   1.157   0.700 -0.4375 -1.7179  1.3944
 3835SOL     OW16442   5.224   1.995   0.103  0.2571 -0.0575 -0.0089
 3835SOL    HW116443   5.270   1.978   0.021 -0.1021 -2.2365  0.1858
 3835SOL    HW216444   5.138   2.028   0.076 -0.2774 -1.8066 -0.6163
 3836SOL     OW16445   5.798   0.492   6.553 -0.2211  0.2755  0.3202
 3836SOL    HW116446   5.746   0.571   6.538  0.0222  0.1149 -1.5784
 3836SOL    HW216447   5.886   0.525   6.569 -0.3076  0.4244  0.5001
 3837SOL     OW16448   6.557   2.164   9.016 -0.1992 -0.0866 -0.5222
 3837SOL    HW116449   6.595   2.112   9.087  0.3419 -0.0667 -0.8001
 3837SOL    HW216450   6.585   2.120   8.936 -0.5808  0.0535 -0.7336
 3838SOL     OW16451   7.239   2.984   2.861  0.4489 -0.3009  0.0015
 3838SOL    HW116452   7.168   2.975   2.798  2.3616 -2.0789 -2.0793
 3838SOL    HW216453   7.221   2.918   2.928  0.2905 -0.9790 -0.6968
 3839SOL     OW16454   7.977   4.135   1.528 -0.0978  0.6917  0.0589
 3839SOL    HW116455   7.921   4.072   1.573 -1.3186  0.5461 -1.5415
 3839SOL    HW216456   8.066   4.113   1.555 -0.6532 -0.4807  1.0086
 3840SOL     OW16457   6.249   7.933  10.095 -0.1445 -0.6365 -0.1333
 3840SOL    HW116458   6.237   7.918  10.189  0.0992  2.1080  0.4280
 3840SOL    HW216459   6.167   7.974  10.067  1.3426  2.6617 -0.0500
 3841SOL     OW16460   5.585   5.576   5.719 -0.0907  0.2860  0.2670
 3841SOL    HW116461   5.592   5.538   5.631 -0.9322 -0.9078  0.6873
 3841SOL    HW216462   5.655   5.534   5.769 -0.1124  0.3641  0.3619
 3842SOL     OW16463   4.698   0.769   7.374 -0.1898  0.3706  0.1011
 3842SOL    HW116464   4.606   0.750   7.356 -0.3460  0.6821  0.5396
 3842SOL    HW216465   4.713   0.731   7.461 -0.4125  1.8731  0.8392
 3843SOL     OW16466   3.721   1.342   9.190 -0.1099 -0.2288  0.2793
 3843SOL    HW116467   3.693   1.254   9.215 -2.1317  0.3101  0.1028
 3843SOL    HW216468   3.656   1.370   9.126  0.2429  1.5667  0.6634
 3844SOL     OW16469   1.860   1.653   2.459  0.1075  0.0376  0.0538
 3844SOL    HW116470   1.934   1.644   2.400  0.5103  0.1322  0.5338
 3844SOL    HW216471   1.860   1.746   2.484 -0.9340  0.3145 -0.9117
 3845SOL     OW16472   6.571   7.567   0.968  0.2353  0.5786 -0.0680
 3845SOL    HW116473   6.592   7.492   1.024  2.2660  0.8117 -0.4362
 3845SOL    HW216474   6.503   7.535   0.909  1.4170 -1.1596 -0.5630
 3846SOL     OW16475   2.783   7.168   9.146  0.0775 -0.5986 -0.0652
 3846SOL    HW116476   2.814   7.245   9.098  0.4005 -0.0284  1.0170
 3846SOL    HW216477   2.689   7.165   9.128 -0.2181  0.9091  0.9890
 3847SOL     OW16478   7.910  11.617   4.015  0.0181  0.4334 -0.5562
 3847SOL    HW116479   7.945  11.553   4.078  1.4451 -0.3905 -2.1204
 3847SOL    HW216480   7.826  11.581   3.990 -0.1156  0.2476  0.1179
 3848SOL     OW16481   7.658  10.472   6.246 -0.2444 -0.1190  0.1152
 3848SOL    HW116482   7.701  10.556   6.230 -1.6131  0.4232 -0.9040
 3848SOL    HW216483   7.684  10.416   6.173  1.3434 -0.8976  1.2302
 3849SOL     OW16484   1.384  11.095   0.091  0.6184 -0.2873  0.0913
 3849SOL    HW116485   1.358  11.007   0.065  2.0326 -0.0431 -2.5646
 3849SOL    HW216486   1.469  11.083   0.134  0.9509 -0.2263 -0.5338
 3850SOL     OW16487   8.310  10.515   3.979  0.0008  0.0140  0.1956
 3850SOL    HW116488   8.251  10.511   4.055  0.4213 -0.7022  0.5011
 3850SOL    HW216489   8.388  10.468   4.008  0.7295  0.9624 -0.1953
 3851SOL     OW16490  10.326   3.020   1.688  0.2622  0.8136  0.1639
 3851SOL    HW116491  10.415   3.002   1.656 -0.1110  0.4352 -0.7041
 3851SOL    HW216492  10.316   2.965   1.765 -0.2753 -1.5126 -1.4832
 3852SOL     OW16493   0.475   8.413   2.147  0.2572 -0.6243  0.4031
 3852SOL    HW116494   0.500   8.454   2.065  0.9965 -1.9446 -0.0686
 3852SOL    HW216495   0.392   8.454   2.170 -0.0382 -0.3325 -1.0743
 3853SOL     OW16496   9.071   8.942   3.542 -0.0244  0.3901 -0.1012
 3853SOL    HW116497   9.138   8.874   3.544 -1.4483 -1.1131 -0.9983
 3853SOL    HW216498   9.097   8.998   3.469  2.0735  1.8939  1.6582
 3854SOL     OW16499  11.620   4.655   1.707 -0.4308 -0.4926  0.3544
 3854SOL    HW116500  11.525   4.652   1.712 -0.4802  0.3203  0.0650
 3854SOL    HW216501  11.650   4.606   1.784 -1.0849 -0.1219  0.8494
 3855SOL     OW16502   4.798   4.704   2.598 -0.1692 -0.1143  0.0765
 3855SOL    HW116503   4.852   4.636   2.638 -0.2954  0.3336  1.0452
 3855SOL    HW216504   4.861   4.771   2.569 -0.0834 -0.4076 -0.4326
 3856SOL     OW16505   5.562   1.569  10.933  0.0911 -0.7061 -0.0714
 3856SOL    HW116506   5.576   1.614  11.016 -2.4030  1.0664 -0.4792
 3856SOL    HW216507   5.473   1.533  10.941 -0.1118 -0.6872 -1.8750
 3857SOL     OW16508   6.203   3.087   7.777 -1.0000 -0.2203  0.6533
 3857SOL    HW116509   6.295   3.060   7.772 -1.0674 -0.4517  0.6577
 3857SOL    HW216510   6.169   3.041   7.853 -1.0201  0.1709  0.8848
 3858SOL     OW16511   9.464   3.997   7.110 -0.4891 -0.1533 -0.2477
 3858SOL    HW116512   9.394   3.942   7.077  0.1143 -1.6092  0.7931
 3858SOL    HW216513   9.495   3.952   7.189  0.9227  0.9825 -0.1080
 3859SOL     OW16514   5.586  10.531   5.896  0.4261  0.4633  0.3365
 3859SOL    HW116515   5.597  10.518   5.990 -0.4826 -1.3966  0.2373
 3859SOL    HW216516   5.555  10.621   5.887 -0.1508  0.4451  1.8739
 3860SOL     OW16517   6.931   5.719   1.797 -0.4362 -0.2189  0.8915
 3860SOL    HW116518   6.884   5.703   1.879 -0.5922  0.1907  0.8829
 3860SOL    HW216519   6.867   5.696   1.729 -0.2211 -0.8070  0.8806
 3861SOL     OW16520  10.706   0.262   9.885 -0.0718 -0.4405 -0.0530
 3861SOL    HW116521  10.678   0.265   9.794 -0.8307  0.0432  0.1851
 3861SOL    HW216522  10.637   0.211   9.930  0.6902 -1.3457  0.1188
 3862SOL     OW16523   8.576   9.262   3.691  0.0398  0.3621 -0.0904
 3862SOL    HW116524   8.556   9.353   3.713 -2.6901  0.2446 -1.5969
 3862SOL    HW216525   8.562   9.214   3.773 -0.8166  1.0123  0.1551
 3863SOL     OW16526  10.106   6.504   6.464 -0.2597 -0.2247  0.0990
 3863SOL    HW116527  10.162   6.566   6.510 -1.0686  1.0456 -0.5589
 3863SOL    HW216528  10.081   6.440   6.530 -0.4378  0.8842  1.1427
 3864SOL     OW16529   6.004   5.591   8.766  0.2526 -0.0810 -0.3912
 3864SOL    HW116530   5.976   5.667   8.716 -0.6544  0.0640  0.3012
 3864SOL    HW216531   6.004   5.519   8.703 -1.9178 -0.1238 -0.4249
 3865SOL     OW16532   1.724   8.129  11.441  0.4856 -0.2978 -0.1099
 3865SOL    HW116533   1.735   8.059  11.506 -0.2716 -0.0869  0.2543
 3865SOL    HW216534   1.667   8.091  11.375 -0.2935  0.1044  0.3103
 3866SOL     OW16535   9.592   1.012   2.829  0.2457 -0.0108  0.0990
 3866SOL    HW116536   9.540   1.065   2.769  0.8238  0.7594  0.2669
 3866SOL    HW216537   9.532   0.991   2.900  0.1508  0.8796  0.2961
 3867SOL     OW16538   1.166  10.653   5.850  0.4905 -0.5543 -0.1557
 3867SOL    HW116539   1.193  10.561   5.860  0.7818 -0.3269  1.2577
 3867SOL    HW216540   1.122  10.655   5.765  0.1643 -2.0899 -0.0597
 3868SOL     OW16541   3.468   7.931   1.355 -0.3115 -0.3532  0.2070
 3868SOL    HW116542   3.382   7.934   1.312 -1.1187 -2.6880  1.4679
 3868SOL    HW216543   3.449   7.899   1.443  1.7593  0.2128  0.9026
 3869SOL     OW16544  10.468  11.469  11.258 -0.4774 -0.1929  0.4097
 3869SOL    HW116545  10.486  11.538  11.195  0.6128 -0.7971  0.0250
 3869SOL    HW216546  10.382  11.490  11.294 -0.2993  1.1831  0.0817
 3870SOL     OW16547  10.893   6.146   9.797  0.1809 -0.0317 -0.1830
 3870SOL    HW116548  10.837   6.109   9.729 -2.4667 -0.3245  1.9809
 3870SOL    HW216549  10.921   6.070   9.849  2.6890  0.1078 -1.1724
 3871SOL     OW16550   6.572   0.564   5.015 -0.3949  0.5882  0.0913
 3871SOL    HW116551   6.622   0.604   5.086 -2.3166  2.0942  0.6969
 3871SOL    HW216552   6.574   0.470   5.035  1.1622  0.7190  0.7193
 3872SOL     OW16553   2.437   5.804   9.355 -0.4905  0.3136  0.6949
 3872SOL    HW116554   2.474   5.817   9.442 -1.8650  0.2436  1.3204
 3872SOL    HW216555   2.342   5.804   9.370 -0.7199 -0.6856 -0.6662
 3873SOL     OW16556   8.903   8.981   7.126  0.6077  0.1973 -0.3415
 3873SOL    HW116557   8.980   9.016   7.082  0.9977  1.2096  1.0400
 3873SOL    HW216558   8.930   8.973   7.218 -0.9991  0.9123  0.2406
 3874SOL     OW16559   0.664   0.241   3.171 -0.0337 -0.1181 -0.2216
 3874SOL    HW116560   0.657   0.146   3.182  1.1846 -0.0791  1.1625
 3874SOL    HW216561   0.642   0.277   3.257 -1.3717  0.9481 -0.9540
 3875SOL     OW16562   4.845   7.663   2.746  0.5082 -0.4609  0.0623
 3875SOL    HW116563   4.908   7.618   2.690  0.1373 -1.0836  0.1332
 3875SOL    HW216564   4.865   7.630   2.834 -0.8618 -1.8101 -0.0968
 3876SOL     OW16565   6.300   9.702   0.693  0.2837 -0.2648 -0.0633
 3876SOL    HW116566   6.206   9.707   0.678  0.3137 -0.1591 -0.2079
 3876SOL    HW216567   6.334   9.786   0.664  0.3683 -0.1423  0.3797
 3877SOL     OW16568   1.391   3.152  11.154 -0.2360  0.1960  0.1655
 3877SOL    HW116569   1.362   3.225  11.208  0.0483  1.9054 -1.8757
 3877SOL    HW216570   1.327   3.148  11.083  1.8561  1.0207 -1.8672
 3878SOL     OW16571   9.652   6.372   3.129 -0.1856  0.3624 -0.2254
 3878SOL    HW116572   9.703   6.440   3.173  2.4723 -0.7251 -1.4101
 3878SOL    HW216573   9.659   6.296   3.187 -0.7534  0.2585 -0.2816
 3879SOL     OW16574   7.888  11.052   5.645 -0.6466  0.2665 -0.0134
 3879SOL    HW116575   7.805  11.013   5.616  0.8148 -1.6759 -1.9585
 3879SOL    HW216576   7.892  11.136   5.600 -1.3013  0.1141 -0.3660
 3880SOL     OW16577   4.586   4.816   6.718 -0.2423 -0.0483  0.2211
 3880SOL    HW116578   4.555   4.741   6.769  0.6814  0.5655  1.7329
 3880SOL    HW216579   4.607   4.779   6.632  0.2382 -1.5371  0.9450
 3881SOL     OW16580   6.560   8.883   0.125 -0.4625 -0.3183 -0.0644
 3881SOL    HW116581   6.568   8.937   0.047  0.4776 -0.1567  0.1288
 3881SOL    HW216582   6.488   8.921   0.174 -0.9193 -0.2925 -0.7510
 3882SOL     OW16583   4.158   3.681   3.360 -0.4461 -0.3246  0.2044
 3882SOL    HW116584   4.122   3.594   3.346 -1.0336 -0.1624  0.6836
 3882SOL    HW216585   4.175   3.685   3.454  2.2289 -0.9333 -0.1596
 3883SOL     OW16586   4.494  11.560   0.745  0.4421 -0.5173 -0.0055
 3883SOL    HW116587   4.519  11.580   0.835  1.0132 -1.6122  0.0975
 3883SOL    HW216588   4.485  11.645   0.703  1.4447 -0.0193  0.7523
 3884SOL     OW16589   9.387   0.962   9.395 -0.4249 -0.0656  0.4988
 3884SOL    HW116590   9.422   1.048   9.422 -0.8726 -0.1646  1.4515
 3884SOL    HW216591   9.387   0.911   9.476 -0.6800 -0.7875  0.0447
 3885SOL     OW16592   6.394   9.149  11.352  0.1204  0.4689  0.2397
 3885SOL    HW116593   6.426   9.177  11.438  0.3724 -1.4445  0.8314
 3885SOL    HW216594   6.430   9.061  11.341  0.0363  0.6524 -1.8175
 3886SOL     OW16595  11.260   1.326   1.988 -0.3809 -0.0585 -0.3232
 3886SOL    HW116596  11.306   1.273   2.052  1.5609  1.7021 -0.1547
 3886SOL    HW216597  11.192   1.371   2.038  0.2171  0.2471  0.2238
 3887SOL     OW16598   2.977   5.999   6.069  1.3614 -0.2913  0.3777
 3887SOL    HW116599   2.946   5.912   6.044  0.5312 -0.5695  2.2801
 3887SOL    HW216600   2.898   6.052   6.077  1.7671  0.2981  0.5539
 3888SOL     OW16601   0.679   7.434   0.320 -0.1936  0.0401  0.8953
 3888SOL    HW116602   0.733   7.355   0.329  0.3412  0.3542  0.4899
 3888SOL    HW216603   0.602   7.405   0.270  0.7850  0.1251 -0.7178
 3889SOL     OW16604   7.904   2.376   2.162  0.1023 -0.3540  0.3796
 3889SOL    HW116605   7.918   2.288   2.126 -2.9161 -0.8706  0.1670
 3889SOL    HW216606   7.846   2.362   2.237 -0.2661  1.4283  0.4745
 3890SOL     OW16607   8.450   6.312   6.878 -0.4274 -0.2005  0.6847
 3890SOL    HW116608   8.461   6.295   6.784 -1.8753  0.1285  0.4209
 3890SOL    HW216609   8.357   6.335   6.886  0.1192  1.7129  1.9064
 3891SOL     OW16610  11.660  11.178   5.994  0.2259  0.1139  0.8184
 3891SOL    HW116611  11.735  11.189   5.936 -1.0782  3.0427 -0.5369
 3891SOL    HW216612  11.698  11.163   6.080  2.2885 -0.6075 -0.1551
 3892SOL     OW16613   1.948   5.654   5.126 -0.1669 -0.5185 -0.7540
 3892SOL    HW116614   1.986   5.710   5.194  0.7601 -1.7997 -0.1885
 3892SOL    HW216615   1.855   5.650   5.148 -0.7392  2.4676 -2.0178
 3893SOL     OW16616   3.054   2.973   2.371  0.2079  0.4515  0.3205
 3893SOL    HW116617   3.108   3.015   2.438 -0.8766  1.4888  0.5815
 3893SOL    HW216618   2.977   3.029   2.364  0.9564  1.3241 -2.9504
 3894SOL     OW16619   0.833   1.585   4.547 -0.3590  0.4146 -0.1513
 3894SOL    HW116620   0.892   1.619   4.614  0.1365 -2.8518  1.2748
 3894SOL    HW216621   0.889   1.563   4.473 -0.4154  0.9202 -0.3508
 3895SOL     OW16622   5.995   4.608  10.013 -0.6734 -0.5105  0.1334
 3895SOL    HW116623   6.058   4.665  10.056 -2.0594  1.3041 -0.1295
 3895SOL    HW216624   5.910   4.633  10.049 -1.7154 -0.0692 -2.3649
 3896SOL     OW16625   1.737   1.544  10.238 -0.5973 -0.1393 -0.0600
 3896SOL    HW116626   1.769   1.584  10.157  0.3848 -1.3565 -0.3056
 3896SOL    HW216627   1.776   1.456  10.238 -1.0052 -0.3444  1.4804
 3897SOL     OW16628   9.845   2.496   0.701  0.0007 -0.0424 -0.5543
 3897SOL    HW116629   9.928   2.448   0.700 -0.3282 -0.6241 -0.6837
 3897SOL    HW216630   9.792   2.451   0.766  0.2532  1.1671  0.5322
 3898SOL     OW16631   2.618   9.523   3.546  0.1225 -0.7332  0.3448
 3898SOL    HW116632   2.652   9.597   3.597 -0.5812 -0.1178 -0.0672
 3898SOL    HW216633   2.674   9.520   3.468 -1.3852  0.9840 -0.8843
 3899SOL     OW16634  10.596   7.024   8.445  0.2891 -0.4592  0.0052
 3899SOL    HW116635  10.680   7.051   8.408 -0.0302  0.6059  0.0010
 3899SOL    HW216636  10.587   7.076   8.525 -1.5553  1.5383 -1.3672
 3900SOL     OW16637   4.081   3.521   4.077  0.2135 -0.0175  0.9677
 3900SOL    HW116638   4.101   3.428   4.073  0.6258  0.0228  1.8472
 3900SOL    HW216639   4.035   3.532   4.161 -0.8148  0.3932  0.3606
 3901SOL     OW16640   3.304   5.119   5.548  0.6285  0.1447  0.3462
 3901SOL    HW116641   3.302   5.076   5.462  1.2752 -0.6270  0.6952
 3901SOL    HW216642   3.252   5.198   5.537  2.0402  0.9373 -1.2387
 3902SOL     OW16643   2.580  10.620   7.350 -0.0472 -0.1508 -0.3536
 3902SOL    HW116644   2.497  10.666   7.358  1.4365  2.3825  2.4611
 3902SOL    HW216645   2.576  10.551   7.415 -0.0651 -0.2595 -0.4691
 3903SOL     OW16646   1.214   4.950   8.004  0.0090  0.5794  0.1020
 3903SOL    HW116647   1.132   4.999   7.996 -0.2921  0.5075  2.1237
 3903SOL    HW216648   1.245   4.939   7.914 -2.2992  0.4032 -0.7292
 3904SOL     OW16649   5.354   3.762   6.123 -0.5299 -0.4349  0.2366
 3904SOL    HW116650   5.393   3.768   6.036 -2.1458  1.7378 -0.4154
 3904SOL    HW216651   5.347   3.668   6.140 -0.3587 -0.9154 -2.0661
 3905SOL     OW16652   9.666   9.527   7.827 -0.6172 -0.1271 -0.8290
 3905SOL    HW116653   9.724   9.490   7.760  2.0035 -0.5242  1.4869
 3905SOL    HW216654   9.614   9.453   7.857  0.6015 -0.7478 -0.1526
 3906SOL     OW16655  10.995  11.577   3.629  0.2244 -0.1651 -0.3129
 3906SOL    HW116656  10.900  11.592   3.631  0.5884  2.5271 -0.0556
 3906SOL    HW216657  11.015  11.564   3.536 -0.4253 -1.2478 -0.3226
 3907SOL     OW16658   3.535   5.781   1.153 -0.2482 -0.5297  0.5326
 3907SOL    HW116659   3.619   5.817   1.126  0.0427 -2.0375 -0.6598
 3907SOL    HW216660   3.556   5.702   1.201 -0.9748 -0.9845  0.1284
 3908SOL     OW16661   4.789   4.922  11.040 -0.2075  0.0983 -0.2712
 3908SOL    HW116662   4.714   4.899  11.095  0.9225 -1.7705  0.5930
 3908SOL    HW216663   4.753   4.924  10.951 -1.1781 -1.5032  0.0307
 3909SOL     OW16664   8.260   1.135   0.293  0.4679 -0.1013  0.4038
 3909SOL    HW116665   8.334   1.116   0.350  0.3384  0.6430  0.8302
 3909SOL    HW216666   8.273   1.079   0.216 -0.1835 -2.3752  1.8308
 3910SOL     OW16667   1.267   1.615   7.274 -0.9978 -0.1533  0.5301
 3910SOL    HW116668   1.358   1.610   7.246 -1.4490 -3.7866 -0.8151
 3910SOL    HW216669   1.256   1.539   7.332 -3.0098  0.6131  1.2356
 3911SOL     OW16670   0.165  11.559   1.342 -0.2016 -0.2861  0.2666
 3911SOL    HW116671   0.224  11.488   1.367 -0.6596 -0.0517  2.1130
 3911SOL    HW216672   0.224  11.628   1.309  0.2189 -1.5707 -1.8575
 3912SOL     OW16673   8.453   5.895   5.151 -0.4350  0.1932  0.2323
 3912SOL    HW116674   8.445   5.940   5.235 -2.9113  1.0683 -0.4025
 3912SOL    HW216675   8.535   5.928   5.114 -0.0861  0.9530  1.6176
 3913SOL     OW16676   6.062   2.898  11.524 -0.2103  0.0948 -0.3976
 3913SOL    HW116677   5.999   2.931  11.460  1.1672  0.1669 -1.7709
 3913SOL    HW216678   6.053   2.803  11.519 -2.5585  0.0898  1.9046
 3914SOL     OW16679   0.084   9.463  10.911  0.2289 -0.3371  0.0151
 3914SOL    HW116680  -0.002   9.451  10.950 -0.1920  0.5022 -0.6186
 3914SOL    HW216681   0.145   9.457  10.984 -0.3343 -1.2944  0.4173
 3915SOL     OW16682   3.056   7.365   8.670 -0.1570 -0.2668 -0.2826
 3915SOL    HW116683   3.076   7.423   8.743 -1.7533 -1.3710  1.1068
 3915SOL    HW216684   2.966   7.337   8.685  0.7182 -3.6240 -0.4689
 3916SOL     OW16685   1.861   6.228   7.587 -0.2791  0.5674 -0.0623
 3916SOL    HW116686   1.867   6.134   7.601 -1.4670  0.5718  0.6070
 3916SOL    HW216687   1.777   6.241   7.542  0.7544  1.1400 -1.9128
 3917SOL     OW16688   6.912   2.972   6.612  0.6877 -0.1619 -0.0828
 3917SOL    HW116689   6.894   3.064   6.630 -0.8765 -0.2335 -1.1716
 3917SOL    HW216690   6.861   2.924   6.678  0.6857 -0.2775 -0.1679
 3918SOL     OW16691   9.339   1.916   5.479 -0.1498 -0.4808 -0.2296
 3918SOL    HW116692   9.296   2.000   5.465 -0.6433 -0.7120 -0.1325
 3918SOL    HW216693   9.302   1.883   5.561  1.0473 -0.1787  0.4474
 3919SOL     OW16694   7.187   0.263   1.285 -0.1775  0.2793 -0.6205
 3919SOL    HW116695   7.149   0.203   1.221  0.2861 -0.6679 -0.0259
 3919SOL    HW216696   7.225   0.333   1.233 -1.7765  0.6972 -1.2858
 3920SOL     OW16697   8.124   8.844   5.365  0.2439 -0.1021  0.0985
 3920SOL    HW116698   8.035   8.830   5.334  0.8654  1.0055 -2.4350
 3920SOL    HW216699   8.118   8.836   5.460 -2.5839  0.1635  0.0209
 3921SOL     OW16700   8.113   7.266   4.521  0.1215 -0.1993 -0.4345
 3921SOL    HW116701   8.040   7.318   4.485 -1.0884 -1.4963  0.0531
 3921SOL    HW216702   8.187   7.285   4.463 -0.5562  1.2499 -0.8712
 3922SOL     OW16703   0.365   0.124  10.085  0.1385 -0.3065 -0.7760
 3922SOL    HW116704   0.379   0.048  10.029  0.6568  0.3436 -1.5634
 3922SOL    HW216705   0.286   0.104  10.135  1.6245 -2.4499  0.9284
 3923SOL     OW16706   4.891   2.522   7.605 -0.0416  0.2392 -1.0971
 3923SOL    HW116707   4.947   2.532   7.682 -0.7103  1.7032 -0.7638
 3923SOL    HW216708   4.908   2.600   7.552 -1.1339  0.2964 -1.3899
 3924SOL     OW16709   3.707   3.743   3.219  0.4601 -1.3358 -0.6918
 3924SOL    HW116710   3.643   3.674   3.237 -0.8968  0.1796  0.7383
 3924SOL    HW216711   3.690   3.768   3.128 -1.9389 -0.1293  0.0016
 3925SOL     OW16712   1.354   5.966   0.409  0.6508  0.3618  0.3903
 3925SOL    HW116713   1.357   6.045   0.355 -1.4612  0.1819 -0.0825
 3925SOL    HW216714   1.434   5.969   0.462  2.3498  1.0295 -2.0537
 3926SOL     OW16715   4.521   6.156  11.673  0.2743  0.0591 -0.9715
 3926SOL    HW116716   4.580   6.156  11.749  1.3568 -0.1850 -1.7835
 3926SOL    HW216717   4.433   6.148  11.711  0.7777  0.0588  0.2539
 3927SOL     OW16718   3.335   1.489   5.757 -0.2642  0.0790 -0.3681
 3927SOL    HW116719   3.324   1.405   5.802 -1.4219  0.2280 -0.3297
 3927SOL    HW216720   3.429   1.497   5.744 -0.0226 -0.6322  0.7661
 3928SOL     OW16721   7.365   8.798   9.769  0.5459 -0.3762 -0.2144
 3928SOL    HW116722   7.434   8.857   9.800  0.9467 -0.8958 -0.1062
 3928SOL    HW216723   7.337   8.835   9.685 -0.2572  0.8118  0.5326
 3929SOL     OW16724   6.309   3.173   9.736 -0.2386  0.2023 -0.0758
 3929SOL    HW116725   6.308   3.105   9.669  0.2220 -0.3751  0.4836
 3929SOL    HW216726   6.401   3.198   9.743 -0.2144 -0.0615  0.6465
 3930SOL     OW16727   3.138   2.643   2.969  0.2690 -0.3929 -0.4093
 3930SOL    HW116728   3.209   2.639   3.032 -0.1197  1.1988  0.1761
 3930SOL    HW216729   3.093   2.558   2.978  0.6698 -0.4820  0.9037
 3931SOL     OW16730   2.152   5.754  10.979  0.2569  0.8400 -0.0178
 3931SOL    HW116731   2.137   5.742  10.885 -0.5027  1.1159  0.0555
 3931SOL    HW216732   2.111   5.839  10.999 -0.3036  0.4172  0.7050
 3932SOL     OW16733  11.125   7.703  10.035  0.3753 -0.0397  0.1978
 3932SOL    HW116734  11.120   7.743   9.948  2.2596 -0.2290 -0.0372
 3932SOL    HW216735  11.178   7.763  10.087  0.7709 -0.7863  0.6890
 3933SOL     OW16736   8.066   2.223   3.725  0.1456  0.1290  0.2582
 3933SOL    HW116737   7.992   2.183   3.771  0.3590  0.0936  0.5731
 3933SOL    HW216738   8.117   2.150   3.690 -0.1026  0.1592 -0.1787
 3934SOL     OW16739   6.970   5.969   8.901  0.3824  0.0231 -0.1617
 3934SOL    HW116740   6.970   6.062   8.878  1.7239  0.1218  0.1680
 3934SOL    HW216741   7.012   5.965   8.987 -1.5808 -0.6819  0.8488
 3935SOL     OW16742   4.525   0.578   1.722 -0.3920  0.1005  0.4312
 3935SOL    HW116743   4.460   0.645   1.702  0.2721  0.7700  0.5006
 3935SOL    HW216744   4.564   0.556   1.637  0.3453  0.7968  0.5810
 3936SOL     OW16745   3.466   2.454   3.864 -0.2018 -0.0407 -0.0638
 3936SOL    HW116746   3.378   2.456   3.902 -0.2286 -1.3817  0.0147
 3936SOL    HW216747   3.474   2.366   3.827  0.2010  0.8704 -2.3107
 3937SOL     OW16748   4.557   0.617  10.377 -0.2754 -0.0569  0.3350
 3937SOL    HW116749   4.539   0.711  10.373  0.3228  0.0847  0.7902
 3937SOL    HW216750   4.478   0.576  10.343 -0.3728  0.6280 -0.2988
 3938SOL     OW16751   3.573   8.675   1.054 -0.1775  0.3480 -0.7797
 3938SOL    HW116752   3.558   8.635   0.968  0.3131  0.5132 -0.9474
 3938SOL    HW216753   3.489   8.715   1.077 -1.5800 -3.0305  0.6290
 3939SOL     OW16754   2.511  10.079   7.043 -0.2030 -0.1302  0.3707
 3939SOL    HW116755   2.420  10.095   7.018 -0.1728  0.5275  0.6532
 3939SOL    HW216756   2.545  10.166   7.063  1.3363  0.0550 -2.5340
 3940SOL     OW16757   3.816   1.285   4.447  0.8413 -0.4295  0.0634
 3940SOL    HW116758   3.813   1.190   4.438  1.2674 -0.4614  0.2174
 3940SOL    HW216759   3.833   1.299   4.540 -1.1876 -0.1578  0.4499
 3941SOL     OW16760   3.665   3.053   3.865 -0.1967  0.3507 -0.3556
 3941SOL    HW116761   3.746   3.036   3.915  0.5309  1.3045 -1.1777
 3941SOL    HW216762   3.683   3.017   3.778 -0.8090  0.2473 -0.4435
 3942SOL     OW16763   6.892   5.521   8.788 -0.8724 -0.2230 -0.0566
 3942SOL    HW116764   6.943   5.601   8.797 -1.2641  0.0993 -0.6986
 3942SOL    HW216765   6.937   5.458   8.845  2.0985 -0.8772 -2.8417
 3943SOL     OW16766   5.349   1.600   2.059  0.7573  0.0860  0.1909
 3943SOL    HW116767   5.366   1.510   2.086  0.2353  0.2160  0.9707
 3943SOL    HW216768   5.385   1.654   2.130  0.3550  0.4669  0.1093
 3944SOL     OW16769   5.804   5.834   9.128  0.3211 -0.8661 -0.0712
 3944SOL    HW116770   5.786   5.756   9.077 -1.3587 -0.5663  0.0308
 3944SOL    HW216771   5.802   5.906   9.065  1.2034 -0.8103 -0.0556
 3945SOL     OW16772   2.113   1.921   4.267  0.4587 -0.5743 -0.0929
 3945SOL    HW116773   2.123   1.837   4.222  0.0220 -0.4224 -0.4916
 3945SOL    HW216774   2.025   1.950   4.244  0.8074  0.2625 -0.4367
 3946SOL     OW16775   4.234   8.714   9.265  0.0464 -0.0557 -0.0429
 3946SOL    HW116776   4.277   8.783   9.316  0.4329  0.0795 -0.5417
 3946SOL    HW216777   4.227   8.640   9.326  1.3628 -0.2253 -0.0667
 3947SOL     OW16778   6.106  10.455   2.512  0.2111 -0.2664 -0.3787
 3947SOL    HW116779   6.171  10.522   2.489 -1.0609  1.0410 -0.3403
 3947SOL    HW216780   6.155  10.389   2.561  1.3332  1.1575  0.5027
 3948SOL     OW16781   6.491   7.754   9.685  0.0435 -0.0313  0.4335
 3948SOL    HW116782   6.412   7.733   9.636 -1.2866  2.3146  1.4056
 3948SOL    HW216783   6.489   7.696   9.761  0.4042 -1.4053 -0.5612
 3949SOL     OW16784   7.094   8.153   8.254 -0.2720  0.7069  0.1647
 3949SOL    HW116785   7.102   8.181   8.345 -0.1675 -1.0760  0.7544
 3949SOL    HW216786   7.014   8.101   8.252  0.6391 -0.7468 -0.3162
 3950SOL     OW16787   1.002   0.101  10.924 -0.2003 -0.2763 -0.1636
 3950SOL    HW116788   0.970   0.177  10.876 -1.6723  0.2826  1.6081
 3950SOL    HW216789   1.097   0.106  10.917 -0.3344  0.5924 -1.7258
 3951SOL     OW16790   5.625   6.721   3.587  0.1518  0.5016 -0.1241
 3951SOL    HW116791   5.667   6.635   3.583  0.0343  0.3301  1.5790
 3951SOL    HW216792   5.531   6.702   3.583  0.1498  0.6099 -0.5491
 3952SOL     OW16793   5.096   9.583   9.061  0.2476  0.1522  0.1429
 3952SOL    HW116794   5.113   9.616   9.149 -1.1308  2.0460 -0.2406
 3952SOL    HW216795   5.180   9.591   9.015  1.1802 -1.5730  1.4490
 3953SOL     OW16796   7.129   1.260   2.474 -0.2732 -0.1892  0.2674
 3953SOL    HW116797   7.090   1.333   2.523  1.0761  0.5156  0.3601
 3953SOL    HW216798   7.168   1.204   2.541  0.5212  0.1383  0.0991
 3954SOL     OW16799   9.969  11.452   7.647  0.1633  0.5934 -0.0682
 3954SOL    HW116800   9.947  11.444   7.739 -1.3934  0.4025 -0.4418
 3954SOL    HW216801   9.908  11.395   7.601  2.1269 -0.7940 -1.1015
 3955SOL     OW16802   2.217   8.472   2.087 -0.6398  0.1964 -0.5681
 3955SOL    HW116803   2.202   8.393   2.035 -2.3086  0.7512 -0.9878
 3955SOL    HW216804   2.312   8.476   2.098 -0.2170 -0.0319 -3.4273
 3956SOL     OW16805   3.907  10.622   2.397  0.2504 -0.5454 -0.2032
 3956SOL    HW116806   3.959  10.701   2.385 -0.9537  0.5553  1.4501
 3956SOL    HW216807   3.962  10.565   2.451  0.0860  0.2813  0.8612
 3957SOL     OW16808   1.321   6.891   0.777  0.7202  0.0075  0.2758
 3957SOL    HW116809   1.241   6.877   0.726  1.2717 -0.2673 -0.5416
 3957SOL    HW216810   1.353   6.976   0.749  0.2930  0.4908  1.2086
 3958SOL     OW16811   3.323  11.217   5.158  0.3314  0.7144  0.4306
 3958SOL    HW116812   3.273  11.298   5.151  1.3889  1.4003  0.5613
 3958SOL    HW216813   3.291  11.162   5.086 -1.4890  0.6029  1.2637
 3959SOL     OW16814   3.572   9.235   2.344 -0.6713 -0.0288  0.2308
 3959SOL    HW116815   3.576   9.320   2.386 -1.2275 -0.3559  0.9632
 3959SOL    HW216816   3.538   9.252   2.256 -0.4775  0.5320  0.2650
 3960SOL     OW16817   0.710   4.019   5.885 -0.2417 -0.4379  0.1547
 3960SOL    HW116818   0.654   4.086   5.924 -2.0315 -1.7747  0.0097
 3960SOL    HW216819   0.699   4.031   5.791  0.6278 -0.0010  0.0992
 3961SOL     OW16820   0.120   4.529   4.477  0.5186 -0.0528 -0.1632
 3961SOL    HW116821   0.119   4.616   4.438 -0.6096 -0.2415 -0.5909
 3961SOL    HW216822   0.212   4.503   4.478  0.9852  1.5052  0.8054
 3962SOL     OW16823  10.403   2.595  10.189 -0.3562  0.0889 -0.4622
 3962SOL    HW116824  10.443   2.517  10.227 -0.8372  0.1048  0.0979
 3962SOL    HW216825  10.476   2.655  10.174 -0.0216 -0.3618 -0.6383
 3963SOL     OW16826   5.747   8.974   0.717  0.0883  0.1144 -0.5584
 3963SOL    HW116827   5.672   9.007   0.766  1.4082  1.8160  0.4433
 3963SOL    HW216828   5.768   9.044   0.656  0.3856 -0.6830 -1.3926
 3964SOL     OW16829   4.085   1.401   6.026  0.2712 -0.5267 -1.1449
 3964SOL    HW116830   4.103   1.307   6.034 -0.1971 -0.5157  0.1415
 3964SOL    HW216831   3.998   1.412   6.062 -2.2375 -0.4119 -6.3892
 3965SOL     OW16832   1.759   0.041   0.244  0.5644 -0.0482  0.5304
 3965SOL    HW116833   1.851   0.024   0.222  0.2117 -1.2685 -0.1678
 3965SOL    HW216834   1.716   0.051   0.159 -0.1187 -0.5312  0.8072
 3966SOL     OW16835   9.020   2.548  10.447 -0.0498 -0.1006  0.3703
 3966SOL    HW116836   9.115   2.546  10.443 -0.0868  0.0309 -0.7325
 3966SOL    HW216837   9.001   2.566  10.539  0.9979  0.5451  0.4820
 3967SOL     OW16838   2.004   1.101   3.407 -0.1083 -0.8395 -0.0456
 3967SOL    HW116839   2.079   1.061   3.364 -0.0304  0.2113 -0.9197
 3967SOL    HW216840   2.039   1.133   3.491  0.9163  1.2683 -1.2017
 3968SOL     OW16841  10.823   9.078  10.681 -0.3595  0.0069 -0.4620
 3968SOL    HW116842  10.840   9.104  10.771  0.3431  0.5187 -0.7369
 3968SOL    HW216843  10.901   9.028  10.655 -0.9935 -1.0230 -0.4638
 3969SOL     OW16844   7.208   4.240   0.299  0.1001 -0.6393  0.2372
 3969SOL    HW116845   7.225   4.330   0.272 -1.4085 -0.2704  0.4364
 3969SOL    HW216846   7.137   4.247   0.363 -0.2864 -2.0053 -0.0119
 3970SOL     OW16847   4.094   9.766   5.972 -0.4270 -0.9569 -0.5030
 3970SOL    HW116848   4.006   9.772   6.010 -0.2059  0.1012 -0.0988
 3970SOL    HW216849   4.152   9.792   6.044  0.0516  0.4665 -1.3548
 3971SOL     OW16850   6.570  11.092   3.869  0.0716  0.1233 -0.0426
 3971SOL    HW116851   6.490  11.093   3.922 -0.0688 -1.0846 -0.2132
 3971SOL    HW216852   6.601  11.002   3.873  0.7340  0.2894 -1.0200
 3972SOL     OW16853   4.103   3.324  10.516 -0.1827  0.0259 -0.3277
 3972SOL    HW116854   4.160   3.393  10.550 -0.0608 -0.5051  0.5865
 3972SOL    HW216855   4.145   3.297  10.434 -0.0865  0.8425 -0.5566
 3973SOL     OW16856   8.791   6.161   6.246  0.3643  0.3011 -0.3935
 3973SOL    HW116857   8.776   6.255   6.249  0.3865  0.3125 -0.6149
 3973SOL    HW216858   8.875   6.148   6.290 -0.2034  0.2543  0.7205
 3974SOL     OW16859   8.324  10.935   7.209  0.5958  0.0234 -0.2443
 3974SOL    HW116860   8.254  10.875   7.186  0.3586  0.0224  0.4512
 3974SOL    HW216861   8.359  10.965   7.125 -0.5192  0.3633 -0.6066
 3975SOL     OW16862   4.788   7.130   7.969 -0.3063 -0.1508 -0.1671
 3975SOL    HW116863   4.723   7.190   8.004  0.7219 -0.0450  1.6497
 3975SOL    HW216864   4.739   7.049   7.952 -1.2178  0.4376 -0.4186
 3976SOL     OW16865   0.080   8.153   8.059  0.0577 -0.0135 -0.5662
 3976SOL    HW116866   0.080   8.228   7.999  3.1096 -1.1491 -2.1943
 3976SOL    HW216867   0.075   8.192   8.146 -1.0651  1.8835 -1.4090
 3977SOL     OW16868  11.120   0.256   1.252 -0.3811 -0.8775 -0.3673
 3977SOL    HW116869  11.075   0.298   1.326 -0.4738 -0.9644 -0.3751
 3977SOL    HW216870  11.054   0.197   1.214 -1.2309  1.0903 -2.1532
 3978SOL     OW16871   1.976   1.730   9.797 -0.2574  0.1808 -0.3665
 3978SOL    HW116872   1.981   1.801   9.861 -1.1649 -0.4070  0.3794
 3978SOL    HW216873   1.911   1.760   9.734  1.0079  0.9855 -1.3339
 3979SOL     OW16874   7.688  11.312   1.422 -0.1144 -0.4633  0.4034
 3979SOL    HW116875   7.637  11.335   1.500  0.5936 -1.8221  1.3031
 3979SOL    HW216876   7.773  11.284   1.456  0.7694  0.4363 -0.9834
 3980SOL     OW16877   9.087   3.134   7.839 -0.1659  0.1131 -0.3544
 3980SOL    HW116878   9.049   3.058   7.795 -0.1104 -0.6015  0.7925
 3980SOL    HW216879   9.012   3.183   7.872 -0.1818  0.1962 -0.5141
 3981SOL     OW16880   0.800   7.562   0.077 -0.9178  0.1079  0.2316
 3981SOL    HW116881   0.760   7.517   0.151  0.1396  0.5175  1.0683
 3981SOL    HW216882   0.731   7.563   0.010 -3.0546  2.4973  2.2788
 3982SOL     OW16883   3.394   1.250   0.429  0.5468 -0.2965  0.1475
 3982SOL    HW116884   3.406   1.164   0.471  1.5237 -0.8429 -1.1757
 3982SOL    HW216885   3.334   1.234   0.357  1.1504  0.0006 -0.4371
 3983SOL     OW16886   2.401   1.211   0.475  0.0594  0.1236 -0.8503
 3983SOL    HW116887   2.410   1.157   0.397 -0.9204  1.6072 -2.0549
 3983SOL    HW216888   2.491   1.235   0.498  0.4561 -1.4661 -0.6519
 3984SOL     OW16889   5.544   9.105   0.130  0.1016 -0.1553  0.8864
 3984SOL    HW116890   5.592   9.112   0.047 -0.5491 -0.7617  0.4416
 3984SOL    HW216891   5.544   9.193   0.166  0.5435  0.0795  0.3301
 3985SOL     OW16892   0.884   6.754   1.521  0.0575  0.1536 -0.4568
 3985SOL    HW116893   0.925   6.841   1.526  1.9911 -0.7732  0.8907
 3985SOL    HW216894   0.890   6.720   1.610 -0.1822 -1.5702 -1.0801
 3986SOL     OW16895   0.026   6.831   9.522  0.0021  0.9139 -0.0596
 3986SOL    HW116896  -0.050   6.828   9.580  1.7488  2.6621  2.5779
 3986SOL    HW216897   0.073   6.749   9.538  0.9181  1.7315  1.8512
 3987SOL     OW16898   9.178   6.151  11.073 -0.0887  0.4745 -0.1949
 3987SOL    HW116899   9.104   6.207  11.094  0.2272 -0.3801  4.1885
 3987SOL    HW216900   9.245   6.174  11.138  0.2606 -4.3837  1.6039
 3988SOL     OW16901   6.009   6.231   0.341  0.5331  0.4416 -0.1333
 3988SOL    HW116902   6.011   6.269   0.253 -0.6299  0.5477 -0.1208
 3988SOL    HW216903   5.921   6.247   0.373  0.3268 -1.3068  0.2955
 3989SOL     OW16904   0.392   3.843   3.297 -0.0174  0.3010 -0.1947
 3989SOL    HW116905   0.429   3.810   3.379 -0.1122 -0.3963 -0.4286
 3989SOL    HW216906   0.390   3.939   3.308 -1.3695  0.1576  1.2155
 3990SOL     OW16907   0.016   9.420   8.383  0.1792  0.0597  0.6176
 3990SOL    HW116908  -0.003   9.496   8.437 -1.4615  0.9440 -1.0754
 3990SOL    HW216909   0.109   9.402   8.398 -0.2134  0.0844  3.8148
 3991SOL     OW16910   2.949   4.194   0.388 -0.0681  0.4101  0.0544
 3991SOL    HW116911   2.939   4.170   0.480  0.5517  1.0954  0.3109
 3991SOL    HW216912   2.877   4.254   0.370 -0.4167 -0.0254 -0.0206
 3992SOL     OW16913   3.150   6.973   7.399  0.0278 -0.7058  0.3042
 3992SOL    HW116914   3.095   6.895   7.399  0.2499 -0.8808 -0.9369
 3992SOL    HW216915   3.226   6.949   7.346 -0.2266  0.5670 -0.6872
 3993SOL     OW16916   5.660   7.907  10.756  0.2022  0.3008  0.2851
 3993SOL    HW116917   5.650   7.927  10.663  0.9727 -1.5587 -0.2418
 3993SOL    HW216918   5.750   7.874  10.764  0.9377  2.4648  2.1172
 3994SOL     OW16919  10.900   7.575   3.102 -0.6640  0.0249 -0.0733
 3994SOL    HW116920  10.873   7.553   3.191  1.6412  0.4382  0.7964
 3994SOL    HW216921  10.988   7.537   3.093 -0.3738  0.9719 -1.7747
 3995SOL     OW16922  10.138   9.464   4.840 -0.6796  0.3575  0.1927
 3995SOL    HW116923  10.074   9.513   4.789 -0.0238 -0.3443 -1.3851
 3995SOL    HW216924  10.217   9.519   4.838 -0.1507 -0.4028 -1.0013
 3996SOL     OW16925  11.346   0.015  10.129  0.1103 -0.0555  0.1675
 3996SOL    HW116926  11.281   0.081  10.106 -1.8954 -1.2997  1.9199
 3996SOL    HW216927  11.301  -0.069  10.120  2.0494 -1.1176 -0.3108
 3997SOL     OW16928   1.256   7.447   8.690  0.6378 -0.0199 -0.3309
 3997SOL    HW116929   1.243   7.400   8.608 -0.4106 -0.6993  0.2072
 3997SOL    HW216930   1.304   7.527   8.665  2.0580 -1.1360 -1.3158
 3998SOL     OW16931   7.447  11.226   4.771  0.1123 -0.0002  0.1916
 3998SOL    HW116932   7.534  11.204   4.805  0.8464  4.0047  1.5687
 3998SOL    HW216933   7.464  11.269   4.687 -0.5010  0.6229  0.3714
 3999SOL     OW16934   6.552   4.727   2.380 -0.9701  0.3878 -0.5373
 3999SOL    HW116935   6.474   4.697   2.427 -0.8041 -0.5318 -0.8354
 3999SOL    HW216936   6.558   4.669   2.304 -0.1110  0.5774 -0.6236
 4000SOL     OW16937   0.752   2.888   7.520 -0.1389 -0.3560  0.1625
 4000SOL    HW116938   0.751   2.915   7.428  1.1249 -0.4801  0.0997
 4000SOL    HW216939   0.808   2.953   7.564 -0.6553 -0.3479  0.8331
 4001SOL     OW16940  11.257   6.419   8.789 -0.0214  0.6315 -0.3582
 4001SOL    HW116941  11.333   6.362   8.775  0.1124  0.3983  1.1238
 4001SOL    HW216942  11.188   6.382   8.735  0.5872  0.1442 -0.8125
 4002SOL     OW16943   6.928   5.598   5.445 -0.1764 -0.6859  0.1779
 4002SOL    HW116944   6.906   5.649   5.368  1.2860 -0.2424  0.0278
 4002SOL    HW216945   6.975   5.521   5.411  0.3607 -0.5547  0.6008
 4003SOL     OW16946   8.786   6.969   6.789 -0.2727 -0.1493  0.4380
 4003SOL    HW116947   8.805   7.010   6.873 -1.4281 -1.4763  1.3933
 4003SOL    HW216948   8.750   7.040   6.735  0.7190  0.7692  0.9519
 4004SOL     OW16949   6.603   3.864  11.431  0.5176 -0.0254  0.2780
 4004SOL    HW116950   6.554   3.946  11.426  0.0412 -0.3055  0.2555
 4004SOL    HW216951   6.578   3.817  11.352  3.7368  1.3787 -1.7491
 4005SOL     OW16952   1.320   0.998   3.596 -0.0727 -0.1463  0.3881
 4005SOL    HW116953   1.383   1.071   3.595  0.2709 -0.4405  0.3128
 4005SOL    HW216954   1.315   0.969   3.505 -0.8216  0.2957  0.2772
 4006SOL     OW16955   6.388   4.447   4.444 -0.3672 -0.0057 -0.2745
 4006SOL    HW116956   6.397   4.370   4.389  2.8385 -0.8965  1.2532
 4006SOL    HW216957   6.347   4.415   4.525  0.7758 -0.1093  0.2809
 4007SOL     OW16958   5.289   8.566   0.479  0.3325  0.0623  0.1552
 4007SOL    HW116959   5.209   8.558   0.530  0.0362 -0.5785 -0.3822
 4007SOL    HW216960   5.279   8.501   0.409  1.1158  0.2966 -0.1887
 4008SOL     OW16961   3.271   9.396   8.544 -0.0148  0.6647 -0.0209
 4008SOL    HW116962   3.337   9.364   8.606 -0.7573 -0.9549 -0.0084
 4008SOL    HW216963   3.235   9.317   8.504  0.2437  1.6559 -2.3502
 4009SOL     OW16964   5.028  10.149   6.627 -0.3680  0.0849 -0.2489
 4009SOL    HW116965   4.966  10.080   6.650  0.1134 -0.0893  0.5537
 4009SOL    HW216966   5.112  10.104   6.617  0.2113  0.6946  1.4891
 4010SOL     OW16967   0.526   0.937   0.067 -0.9211  0.0696  0.4112
 4010SOL    HW116968   0.572   0.899  -0.008 -0.2245 -2.0403  1.8477
 4010SOL    HW216969   0.440   0.962   0.032  0.0225  0.8838 -1.4902
 4011SOL     OW16970   2.160   9.232   7.462 -0.1619  0.4947 -0.0255
 4011SOL    HW116971   2.082   9.286   7.473  0.0581  0.5988  1.1698
 4011SOL    HW216972   2.190   9.214   7.551  0.7975 -0.0988 -0.4464
 4012SOL     OW16973   0.583   2.957   0.245 -0.2630  0.3439 -0.8346
 4012SOL    HW116974   0.565   2.898   0.172  1.6388  0.6541 -1.6266
 4012SOL    HW216975   0.673   2.938   0.270  0.1494  2.3262 -0.5992
 4013SOL     OW16976  11.237  10.313   0.526 -0.2097 -0.1160  0.2720
 4013SOL    HW116977  11.262  10.403   0.502  1.2776 -0.3174  0.9656
 4013SOL    HW216978  11.146  10.321   0.557 -0.1716  1.1124  0.1209
 4014SOL     OW16979   6.017   2.141   2.310  0.2710  0.1597 -0.7230
 4014SOL    HW116980   6.097   2.104   2.347  1.4145  1.8399 -1.3735
 4014SOL    HW216981   6.009   2.101   2.223  1.2601  1.0531 -1.2505
 4015SOL     OW16982   4.304  10.119   2.430  0.7305 -0.5178  0.3065
 4015SOL    HW116983   4.394  10.090   2.420  1.0393 -0.1056  1.7347
 4015SOL    HW216984   4.290  10.181   2.358  1.2181 -1.3992 -0.5662
 4016SOL     OW16985   7.762   8.198   6.372 -0.0898 -0.5349 -0.6182
 4016SOL    HW116986   7.706   8.205   6.450  0.2214  0.3402 -0.4584
 4016SOL    HW216987   7.839   8.251   6.394  0.5144 -1.2073 -1.0844
 4017SOL     OW16988   2.693  11.670   5.800  0.5707  0.1172 -0.0781
 4017SOL    HW116989   2.701  11.592   5.746  0.2727 -0.2885  0.4565
 4017SOL    HW216990   2.781  11.685   5.834  0.5626 -0.1615  0.0645
 4018SOL     OW16991   9.499   4.195   4.458 -0.5338 -0.1018  0.2798
 4018SOL    HW116992   9.488   4.183   4.553 -0.7237  0.1453  0.2894
 4018SOL    HW216993   9.594   4.191   4.445 -0.5944 -2.2298  0.1955
 4019SOL     OW16994  10.909   5.070  10.237  0.4854  0.0737 -0.4906
 4019SOL    HW116995  10.827   5.108  10.268  0.8361  0.8619 -0.4963
 4019SOL    HW216996  10.921   5.105  10.149  1.5195  1.1139  0.0309
 4020SOL     OW16997   2.803   4.094   1.827 -0.1338 -0.5793 -0.1994
 4020SOL    HW116998   2.832   4.004   1.815  0.0333 -0.7812  1.5244
 4020SOL    HW216999   2.728   4.088   1.885  0.3527  0.4378  0.5673
 4021SOL     OW17000   4.162   3.305  10.234 -0.4397 -0.0117 -0.0712
 4021SOL    HW117001   4.201   3.300  10.147  1.8905 -1.7343  0.9596
 4021SOL    HW217002   4.139   3.397  10.245  2.1227  0.8895 -1.3684
 4022SOL     OW17003   1.179  10.283   6.686 -0.3100  0.4874  0.3959
 4022SOL    HW117004   1.107  10.260   6.745 -0.5224  0.5126  0.1492
 4022SOL    HW217005   1.140  10.346   6.625 -0.2820 -0.0650 -0.2041
 4023SOL     OW17006   4.801   5.701   3.327 -0.0173  0.0703  0.3509
 4023SOL    HW117007   4.749   5.640   3.379  1.8099 -0.5036  1.5931
 4023SOL    HW217008   4.889   5.697   3.365  1.2494  0.1765 -2.3001
 4024SOL     OW17009   2.452  11.541   7.300 -0.4424 -0.3674  0.0107
 4024SOL    HW117010   2.400  11.583   7.231 -0.5496  0.4876  0.5894
 4024SOL    HW217011   2.436  11.596   7.377 -0.3765 -1.3486  0.7288
 4025SOL     OW17012   7.993  11.345  11.196 -0.2384  0.5606 -0.1537
 4025SOL    HW117013   7.902  11.339  11.227 -0.4474  0.5514 -0.7531
 4025SOL    HW217014   8.045  11.353  11.276 -0.8650  1.7248  0.1692
 4026SOL     OW17015   4.102  10.079   5.101  0.3499 -0.1219  0.1992
 4026SOL    HW117016   4.007  10.081   5.113  0.0770  0.0429 -1.6820
 4026SOL    HW217017   4.130  10.169   5.113 -0.0985  0.2873 -1.5505
 4027SOL     OW17018   3.777   7.553   2.311 -0.5330 -0.7200  0.7817
 4027SOL    HW117019   3.757   7.495   2.237 -0.7134 -1.0324  1.0741
 4027SOL    HW217020   3.868   7.532   2.334 -0.2283 -0.1070  0.1870
 4028SOL     OW17021  10.655   4.330   0.411 -0.1360 -0.1887  0.1789
 4028SOL    HW117022  10.655   4.409   0.357 -0.7598  0.2379  0.7710
 4028SOL    HW217023  10.709   4.353   0.487  0.3641 -0.6209 -0.0467
 4029SOL     OW17024  10.418   6.663   3.073  0.1005  0.1588  0.4748
 4029SOL    HW117025  10.380   6.750   3.086 -1.3294 -0.5300  1.0966
 4029SOL    HW217026  10.490   6.677   3.012 -1.4529  1.4465 -1.1468
 4030SOL     OW17027   0.046  11.628   9.959 -0.4755  0.1833  0.0975
 4030SOL    HW117028   0.125  11.574   9.956 -0.1200  0.6791  0.3225
 4030SOL    HW217029   0.028  11.639  10.053 -0.1876  0.9631  0.0621
 4031SOL     OW17030  10.602   2.638   2.291 -0.6952 -0.5896 -0.1163
 4031SOL    HW117031  10.584   2.561   2.344  0.1786 -0.1102  0.8952
 4031SOL    HW217032  10.623   2.603   2.204  2.0809 -1.7026  0.9110
 4032SOL     OW17033   8.108   9.301   3.078 -0.4880 -0.1551 -0.4330
 4032SOL    HW117034   8.124   9.259   2.994 -0.1821  0.8017 -0.8758
 4032SOL    HW217035   8.152   9.245   3.142 -0.5166 -0.7663 -0.9369
 4033SOL     OW17036   4.022   8.698  11.571  0.8891  0.2711  0.0956
 4033SOL    HW117037   3.934   8.735  11.572  0.4843 -0.6434 -0.6448
 4033SOL    HW217038   4.057   8.724  11.486  1.2644  0.4563  0.3055
 4034SOL     OW17039  10.319   0.586   7.976 -0.4602 -0.7610  0.3253
 4034SOL    HW117040  10.233   0.620   8.001 -0.3010 -0.0487 -0.0586
 4034SOL    HW217041  10.302   0.526   7.904 -0.4583  0.9718 -1.1639
 4035SOL     OW17042   7.042   6.940   0.206  0.3040 -0.3127  0.4588
 4035SOL    HW117043   7.100   6.890   0.150 -1.5371 -1.2754 -0.7108
 4035SOL    HW217044   7.012   7.013   0.151  0.5681  0.3059  1.1157
 4036SOL     OW17045   5.956   6.889   6.757  0.2384 -0.2168 -0.6273
 4036SOL    HW117046   6.049   6.874   6.776  0.2075  0.0466 -0.2660
 4036SOL    HW217047   5.957   6.945   6.679  0.3579 -1.6190 -1.6698
 4037SOL     OW17048   9.111   5.863   6.010  0.0060 -0.5043  0.4050
 4037SOL    HW117049   9.021   5.892   6.002  0.6298  1.3997 -0.2097
 4037SOL    HW217050   9.162   5.931   5.967  1.7742 -1.3663  1.0385
 4038SOL     OW17051   6.070   8.152   0.387 -0.0538 -0.4947 -0.4520
 4038SOL    HW117052   6.127   8.097   0.334  0.5725  0.8139 -1.1695
 4038SOL    HW217053   6.119   8.233   0.400 -0.1937 -0.7457  2.1190
 4039SOL     OW17054  11.273   5.041   4.435 -0.3365  0.2883  0.5099
 4039SOL    HW117055  11.325   5.045   4.355  0.9795  0.9443  1.3778
 4039SOL    HW217056  11.331   5.003   4.500 -1.4490 -0.3832  1.1291
 4040SOL     OW17057   2.592   4.823   6.067  0.8098 -0.2717  0.2810
 4040SOL    HW117058   2.571   4.913   6.041 -0.5349 -0.1995  1.5365
 4040SOL    HW217059   2.606   4.777   5.984 -1.3997  0.4054 -0.5389
 4041SOL     OW17060   4.789   0.415   4.145  0.2517  0.0728  0.7972
 4041SOL    HW117061   4.755   0.387   4.060 -0.3749  1.6853  0.4793
 4041SOL    HW217062   4.712   0.449   4.191  0.7882  0.2906  1.5500
 4042SOL     OW17063   3.655   0.599  11.029  0.5218 -0.1255 -0.1238
 4042SOL    HW117064   3.742   0.604  10.989  0.1948  2.0291 -0.6914
 4042SOL    HW217065   3.671   0.584  11.122  1.5175  0.5514 -0.1777
 4043SOL     OW17066   8.882   5.833   6.276  0.5557 -0.4347  0.0958
 4043SOL    HW117067   8.891   5.885   6.196  2.0113 -1.3527 -0.3931
 4043SOL    HW217068   8.795   5.794   6.270 -0.3459  1.4308  0.2009
 4044SOL     OW17069   8.498   4.217   1.237 -0.2702 -0.0718  0.0352
 4044SOL    HW117070   8.450   4.251   1.312 -0.6587  0.3900 -0.4216
 4044SOL    HW217071   8.583   4.191   1.273 -0.1714  0.8606  0.4948
 4045SOL     OW17072   3.817   0.403   3.542 -0.5459  0.0418 -0.3783
 4045SOL    HW117073   3.789   0.490   3.570  1.5124  0.7005 -0.1872
 4045SOL    HW217074   3.854   0.364   3.621 -0.1218 -0.4261 -0.8055
 4046SOL     OW17075   3.560   8.441   1.223 -0.9184  0.2491 -0.2097
 4046SOL    HW117076   3.592   8.528   1.201 -2.1901  0.8961  0.4115
 4046SOL    HW217077   3.469   8.454   1.247 -0.8844 -1.1216  0.7841
 4047SOL     OW17078   0.590   8.501   8.746  0.3300 -0.2208  0.5955
 4047SOL    HW117079   0.579   8.415   8.706 -1.2054  0.0745  0.3183
 4047SOL    HW217080   0.561   8.489   8.837 -3.4041  0.7124 -0.3010
 4048SOL     OW17081   4.799   5.340   0.947 -0.2169 -0.1450 -0.4916
 4048SOL    HW117082   4.790   5.333   0.852 -1.2300 -1.4577 -0.3292
 4048SOL    HW217083   4.712   5.362   0.979 -0.3060 -1.4353  0.2444
 4049SOL     OW17084   1.400   9.814   7.915  0.4551  0.0610  0.1388
 4049SOL    HW117085   1.494   9.832   7.919  0.4176  0.1371  0.8326
 4049SOL    HW217086   1.388   9.762   7.836  0.6534  2.5505 -1.6309
 4050SOL     OW17087   2.620   4.539   4.822 -0.4029  0.1754  0.2926
 4050SOL    HW117088   2.706   4.525   4.862 -0.4204 -1.0672 -0.0611
 4050SOL    HW217089   2.564   4.474   4.864 -0.9585  0.3943 -0.1129
 4051SOL     OW17090   9.216  10.098   7.354  0.0760 -0.0055 -0.1151
 4051SOL    HW117091   9.309  10.113   7.370  0.6160  0.1268 -2.8521
 4051SOL    HW217092   9.199  10.010   7.388  1.1991 -0.0293  0.4214
 4052SOL     OW17093   9.300   5.321   7.107 -0.1808  0.1221  0.6130
 4052SOL    HW117094   9.282   5.238   7.151 -1.1571 -0.3181 -0.5711
 4052SOL    HW217095   9.239   5.324   7.033  2.6268 -0.0818 -1.9215
 4053SOL     OW17096   1.157  10.772   0.020 -0.3195  0.5066  0.7226
 4053SOL    HW117097   1.186  10.697   0.072  1.0255  0.0795 -0.5803
 4053SOL    HW217098   1.237  10.810  -0.014 -1.1024  1.3709 -0.2195
 4054SOL     OW17099  10.192   6.710   1.748 -0.2103 -0.2428 -0.4905
 4054SOL    HW117100  10.166   6.693   1.839  0.8000 -1.9761 -0.4732
 4054SOL    HW217101  10.266   6.650   1.733  1.0911  1.5831 -1.7731
 4055SOL     OW17102   0.107   6.557  10.723  0.4085  0.5596 -0.4628
 4055SOL    HW117103   0.199   6.568  10.700  0.4424  0.9423 -0.1380
 4055SOL    HW217104   0.067   6.521  10.643  0.6202  1.4324 -0.9660
 4056SOL     OW17105   7.179   1.741   2.620  0.1565 -0.1929  0.1882
 4056SOL    HW117106   7.173   1.776   2.531 -1.9437 -1.2818 -0.1546
 4056SOL    HW217107   7.111   1.787   2.669  0.9389  0.0071  1.1329
 4057SOL     OW17108   7.774   7.026   3.225 -0.5010  0.2238 -0.0512
 4057SOL    HW117109   7.688   7.068   3.216 -1.4705 -1.6952 -0.3197
 4057SOL    HW217110   7.754   6.933   3.239  1.4469  0.1194  3.1621
 4058SOL     OW17111   9.833   1.123   1.487  0.0804  0.0985 -0.1348
 4058SOL    HW117112   9.773   1.107   1.560  2.1606  0.4211  1.7658
 4058SOL    HW217113   9.920   1.122   1.527  1.2115  2.3291 -2.2724
 4059SOL     OW17114   6.786   9.882  10.075 -0.3448  0.2205  0.2655
 4059SOL    HW117115   6.694   9.860  10.092 -0.4764  1.6361  1.6924
 4059SOL    HW217116   6.788   9.978  10.082  1.1738  0.2306 -0.1199
 4060SOL     OW17117   8.034   3.881   7.692  0.1077  0.2383  0.1798
 4060SOL    HW117118   7.980   3.850   7.764  0.1980  0.0277  0.1554
 4060SOL    HW217119   8.110   3.822   7.691 -0.1958 -0.1412 -0.4794
 4061SOL     OW17120   9.281   4.189   0.744  0.1118  0.4548  1.0248
 4061SOL    HW117121   9.202   4.150   0.707 -0.7476  2.0553  1.0571
 4061SOL    HW217122   9.306   4.257   0.680  0.8989  0.6155  1.4882
 4062SOL     OW17123  11.407   8.285  11.471  0.3394 -1.1004  0.0086
 4062SOL    HW117124  11.313   8.268  11.458 -0.0998  2.2563 -2.9091
 4062SOL    HW217125  11.442   8.294  11.383  3.0941 -0.5598  1.0556
 4063SOL     OW17126   0.290   9.232   9.967  0.7201  0.1446 -0.2309
 4063SOL    HW117127   0.375   9.247   9.926  0.4033  1.0727 -0.5435
 4063SOL    HW217128   0.311   9.219  10.060  1.0584  2.1331  0.0040
 4064SOL     OW17129   6.671   6.095  11.642  0.0148 -0.4405  0.0169
 4064SOL    HW117130   6.622   6.176  11.630  0.2662 -0.3355 -0.3156
 4064SOL    HW217131   6.634   6.056  11.721 -0.8136 -0.5099 -0.3968
 4065SOL     OW17132   0.001   2.093  10.685 -0.3515 -0.4925  0.4551
 4065SOL    HW117133  -0.069   2.098  10.750 -0.4447  1.2227  0.2888
 4065SOL    HW217134   0.080   2.123  10.732 -0.0152 -1.0771  0.2733
 4066SOL     OW17135   2.397   4.314   7.451  0.0710 -0.0987  0.2598
 4066SOL    HW117136   2.388   4.301   7.545  0.5862  0.9981  0.4736
 4066SOL    HW217137   2.315   4.282   7.414  0.2498 -1.4387  0.9778
 4067SOL     OW17138   3.374   8.100   8.831 -0.0628 -0.1170 -0.1206
 4067SOL    HW117139   3.425   8.131   8.756  0.2018 -1.3440 -0.4681
 4067SOL    HW217140   3.309   8.041   8.793 -0.0466 -0.6028  0.5907
 4068SOL     OW17141   2.931   0.928   2.190  0.0768  0.5798 -0.7766
 4068SOL    HW117142   2.870   1.001   2.183  0.4007  0.9111 -0.2549
 4068SOL    HW217143   2.890   0.856   2.143 -1.8841  0.0079  1.6010
 4069SOL     OW17144   2.476   2.565   9.397  0.5947  0.7018  0.0034
 4069SOL    HW117145   2.446   2.653   9.375  0.3119  0.6388  0.1323
 4069SOL    HW217146   2.545   2.546   9.333  0.4175  0.8799 -0.2382
 4070SOL     OW17147   8.804   0.226   3.153 -0.3040  1.2609  0.3230
 4070SOL    HW117148   8.723   0.183   3.177  0.2588 -0.9482 -1.3472
 4070SOL    HW217149   8.777   0.300   3.098 -1.2142 -0.2887 -1.4232
 4071SOL     OW17150   6.672   1.811  10.122  0.1737  0.1652  0.0640
 4071SOL    HW117151   6.720   1.868  10.182  0.8239 -0.0522 -0.2412
 4071SOL    HW217152   6.603   1.773  10.175 -0.6516  1.6929  0.1432
 4072SOL     OW17153   3.715   1.007   4.696 -0.0532 -0.0733  0.9692
 4072SOL    HW117154   3.702   1.093   4.735 -0.1393 -0.1266  1.0602
 4072SOL    HW217155   3.629   0.983   4.662  0.3460  0.6115 -0.5816
 4073SOL     OW17156   8.652   0.537  10.766 -0.1970 -0.1139  0.2561
 4073SOL    HW117157   8.576   0.480  10.752  1.1906 -1.6339 -1.8533
 4073SOL    HW217158   8.726   0.477  10.769  1.2646  1.4870 -1.2583
 4074SOL     OW17159  10.279   8.818   6.387 -0.3684  0.1194 -0.4726
 4074SOL    HW117160  10.286   8.908   6.418 -1.2437  0.5272 -1.4041
 4074SOL    HW217161  10.361   8.802   6.340  0.1316  0.1459  0.3712
 4075SOL     OW17162   0.143   1.124   9.849 -0.3775 -0.0443  0.3054
 4075SOL    HW117163   0.111   1.036   9.831 -0.4094  0.0035  0.1189
 4075SOL    HW217164   0.192   1.116   9.930 -1.3515 -0.0047  0.9201
 4076SOL     OW17165   1.023  10.270   7.961  0.3269  0.2261 -0.6262
 4076SOL    HW117166   1.014  10.175   7.970  2.1469  0.0261 -0.6692
 4076SOL    HW217167   1.031  10.284   7.867 -0.9415  0.5507 -0.7047
 4077SOL     OW17168  10.260   4.540   1.886 -0.0588 -0.3038  0.8177
 4077SOL    HW117169  10.336   4.555   1.830 -1.1554  0.2322 -0.5978
 4077SOL    HW217170  10.295   4.541   1.975  1.5662  0.0158  0.2063
 4078SOL     OW17171   3.893   3.551   4.315  0.0006 -0.1726  0.1300
 4078SOL    HW117172   3.837   3.511   4.249  0.5486 -1.7573  0.5689
 4078SOL    HW217173   3.852   3.634   4.335 -1.0633 -0.3974 -1.0246
 4079SOL     OW17174   0.946   2.212   3.739 -0.0651 -0.3333 -0.4626
 4079SOL    HW117175   0.876   2.232   3.801  0.7030  0.5351  0.1423
 4079SOL    HW217176   1.022   2.192   3.794  0.3881 -0.4579 -1.1231
 4080SOL     OW17177   2.407   7.206   2.621 -0.4022  0.2850 -0.0556
 4080SOL    HW117178   2.445   7.118   2.611  0.0209  0.4718 -0.1059
 4080SOL    HW217179   2.397   7.216   2.716  1.7753  1.0923  0.1593
 4081SOL     OW17180   8.407  11.358   1.789 -0.4440  0.1701 -0.2247
 4081SOL    HW117181   8.398  11.384   1.698  3.1481  1.4002 -0.3977
 4081SOL    HW217182   8.443  11.435   1.833  0.7731 -1.2856  1.5385
 4082SOL     OW17183   7.244   7.291   0.008  0.6050  0.5021 -0.1084
 4082SOL    HW117184   7.253   7.386  -0.001  1.8796  0.4430  0.2965
 4082SOL    HW217185   7.333   7.260   0.023  0.3294 -0.8653 -1.0992
 4083SOL     OW17186   9.429   8.897   0.630  0.4814  0.2185 -0.2560
 4083SOL    HW117187   9.371   8.851   0.692  1.2890 -3.2458 -1.8406
 4083SOL    HW217188   9.374   8.913   0.553  0.4141  1.3256  0.0068
 4084SOL     OW17189   7.243   3.531  10.684  0.2855  0.2856  0.2086
 4084SOL    HW117190   7.236   3.508  10.591  0.2235 -0.3092  0.3561
 4084SOL    HW217191   7.226   3.449  10.730  1.9749  0.1745  0.7058
 4085SOL     OW17192   9.034  10.148   2.965  0.0185  0.4744  0.0803
 4085SOL    HW117193   9.121  10.111   2.980 -0.7227 -0.2518  3.5760
 4085SOL    HW217194   8.986  10.079   2.920  0.7219  0.1410 -0.1760
 4086SOL     OW17195   2.622   8.820   7.564 -0.0722  0.7082 -0.0766
 4086SOL    HW117196   2.538   8.813   7.519  0.1093 -0.8564 -0.2381
 4086SOL    HW217197   2.682   8.855   7.498  0.0289 -0.8955 -0.8924
 4087SOL     OW17198   7.743   4.110   8.665 -0.0934  0.1224  0.3860
 4087SOL    HW117199   7.808   4.089   8.598 -0.2563 -1.8297  0.7734
 4087SOL    HW217200   7.790   4.166   8.727  1.0545 -0.7424  0.3366
 4088SOL     OW17201   3.291   8.544   6.430  0.0914  0.1001  0.1329
 4088SOL    HW117202   3.207   8.508   6.401  0.9044 -1.2852 -0.5779
 4088SOL    HW217203   3.330   8.581   6.351  0.1616  0.7624  0.4692
 4089SOL     OW17204   2.481   0.523  11.225  0.1279  0.6492 -0.1330
 4089SOL    HW117205   2.484   0.479  11.310 -0.8316  1.1224  0.1584
 4089SOL    HW217206   2.483   0.451  11.161 -0.5295  0.2060  0.3200
 4090SOL     OW17207   4.891   4.772   5.726  0.1132  0.2034 -0.5623
 4090SOL    HW117208   4.844   4.695   5.695 -0.2031  0.7257 -1.4340
 4090SOL    HW217209   4.864   4.783   5.817  0.1361 -0.6885 -0.4448
 4091SOL     OW17210   7.016   2.670   7.902 -0.3999 -0.3182 -0.3211
 4091SOL    HW117211   6.943   2.656   7.842 -1.1268  0.0247  0.4562
 4091SOL    HW217212   6.988   2.627   7.983 -0.0124  0.3593  0.1757
 4092SOL     OW17213   5.076   6.411   4.605  0.1852 -0.2124  0.0554
 4092SOL    HW117214   5.034   6.432   4.688  1.3656  0.0327  0.6046
 4092SOL    HW217215   5.056   6.319   4.590 -0.0942 -0.2364  0.5724
 4093SOL     OW17216   6.916   3.196  10.422 -0.1528 -0.2008  0.1065
 4093SOL    HW117217   6.833   3.152  10.439 -0.5773  1.0742  1.5845
 4093SOL    HW217218   6.920   3.266  10.488  1.6688  0.3399 -0.5164
 4094SOL     OW17219   0.436   9.762   6.711 -0.2291 -0.2095 -0.0869
 4094SOL    HW117220   0.382   9.803   6.778 -2.5594 -1.2979 -1.1833
 4094SOL    HW217221   0.473   9.835   6.661 -1.2787  0.5829  0.2684
 4095SOL     OW17222   2.021   7.649  11.108  0.5501  0.0558 -0.0559
 4095SOL    HW117223   1.965   7.574  11.086 -1.2082  1.0330  0.8690
 4095SOL    HW217224   2.063   7.623  11.190 -0.1279  0.0902  0.3149
 4096SOL     OW17225   0.457   5.877   2.052 -1.0589 -0.4411  0.1170
 4096SOL    HW117226   0.448   5.782   2.048 -0.4231 -0.5056 -3.3735
 4096SOL    HW217227   0.390   5.910   1.991 -0.1753  1.2240 -0.0267
 4097SOL     OW17228   4.935   2.715  10.908 -0.1126  0.1622 -0.1702
 4097SOL    HW117229   4.886   2.730  10.989  1.4973 -0.8657  1.0468
 4097SOL    HW217230   5.011   2.773  10.915 -0.4214  0.7599 -1.4189
 4098SOL     OW17231   4.808   6.828   8.273 -0.0129 -0.4294 -0.2595
 4098SOL    HW117232   4.881   6.790   8.225  0.1726 -1.3123  0.6872
 4098SOL    HW217233   4.848   6.884   8.338 -0.2686  0.8875 -1.1977
 4099SOL     OW17234  10.091   6.213   3.944 -0.2894  0.1473  0.8259
 4099SOL    HW117235  10.158   6.159   3.902 -1.8772  0.7620 -2.8496
 4099SOL    HW217236  10.013   6.158   3.944 -0.4018  0.2200  3.0826
 4100SOL     OW17237   4.956   7.201   5.423  0.7173 -0.4694  0.2124
 4100SOL    HW117238   5.020   7.151   5.472  1.3910  0.2471  0.0838
 4100SOL    HW217239   5.005   7.275   5.387 -0.5789  1.3051  1.8721
 4101SOL     OW17240   8.559   4.924   1.807  0.3983 -0.0143  0.2879
 4101SOL    HW117241   8.495   4.971   1.753 -1.1281 -0.8245  1.2874
 4101SOL    HW217242   8.525   4.835   1.811  0.7873 -0.1191  2.0401
 4102SOL     OW17243   0.455   2.933   4.396 -0.0132  0.5255  0.0518
 4102SOL    HW117244   0.488   2.901   4.480 -0.0622  0.2657 -0.0255
 4102SOL    HW217245   0.465   3.028   4.401 -0.5062  0.5579  0.5647
 4103SOL     OW17246  10.070   3.025   9.288 -0.1951  0.6647 -0.3103
 4103SOL    HW117247  10.042   2.953   9.232 -3.0082  0.3132  1.3373
 4103SOL    HW217248  10.092   2.984   9.371 -1.1718  1.6004  0.4397
 4104SOL     OW17249   0.871   0.038   1.791  0.2093  0.3704  0.2877
 4104SOL    HW117250   0.912  -0.023   1.729  1.1232  2.6583 -1.5194
 4104SOL    HW217251   0.826   0.102   1.735 -0.7223  1.3474  2.0852
 4105SOL     OW17252   4.502   7.482   8.293 -0.0886  0.5531 -0.0982
 4105SOL    HW117253   4.588   7.522   8.310  0.1371  0.4725 -1.0284
 4105SOL    HW217254   4.513   7.391   8.318  0.3681  0.3416 -1.0217
 4106SOL     OW17255   6.503   3.474   6.476 -0.1455  0.1961  0.4182
 4106SOL    HW117256   6.498   3.448   6.384  0.5393 -1.1951  0.7562
 4106SOL    HW217257   6.582   3.530   6.481 -1.0135  1.5208 -0.0963
 4107SOL     OW17258   5.504   8.190   6.620  0.2632 -0.1039  0.4769
 4107SOL    HW117259   5.449   8.146   6.685  0.3002 -0.0795  0.5251
 4107SOL    HW217260   5.493   8.138   6.540  2.4378 -1.8524  1.2246
 4108SOL     OW17261   7.714   3.675   5.203  0.0638  0.4484 -0.1804
 4108SOL    HW117262   7.699   3.583   5.224  0.9241  0.3703  0.1195
 4108SOL    HW217263   7.641   3.699   5.146  0.7561 -0.8974 -1.6822
 4109SOL     OW17264  10.057  10.550   3.318  0.0339 -0.1018 -0.2468
 4109SOL    HW117265  10.071  10.596   3.401  0.0127  1.7859 -1.2255
 4109SOL    HW217266  10.005  10.611   3.266  0.1449 -1.1971 -1.7006
 4110SOL     OW17267   1.327   9.225   6.185 -0.0154  0.0509  0.6533
 4110SOL    HW117268   1.345   9.160   6.117  1.8428  0.2473  0.9068
 4110SOL    HW217269   1.254   9.276   6.151  0.8938  0.1848 -1.2533
 4111SOL     OW17270   6.500  10.053   9.169  0.7272 -0.5164  0.2426
 4111SOL    HW117271   6.463  10.137   9.198  2.7287  0.3390  0.4892
 4111SOL    HW217272   6.486   9.994   9.243  2.5467  0.6458  1.5953
 4112SOL     OW17273   8.291   2.868   9.145  0.3353 -0.0394  0.0604
 4112SOL    HW117274   8.353   2.812   9.192  0.4614  0.5245  0.5765
 4112SOL    HW217275   8.288   2.831   9.057  0.9990 -0.3970  0.1776
 4113SOL     OW17276   5.880   0.998   0.844  0.3480 -0.3011 -0.5441
 4113SOL    HW117277   5.843   1.056   0.911 -0.8769  2.1318 -3.1536
 4113SOL    HW217278   5.973   0.992   0.866  0.1823  1.2884  0.7438
 4114SOL     OW17279   2.406   1.748   1.797 -0.0797  0.6550 -0.4229
 4114SOL    HW117280   2.491   1.719   1.765  0.0844 -1.5288  1.6679
 4114SOL    HW217281   2.426   1.815   1.862  0.0986  0.0095  0.2046
 4115SOL     OW17282   0.959   0.978   1.078 -0.1886  0.3120 -0.3058
 4115SOL    HW117283   0.908   0.912   1.032 -0.2233 -0.7369  1.1650
 4115SOL    HW217284   0.971   0.942   1.166  2.6403  0.7228 -0.4193
 4116SOL     OW17285   4.435  11.537   6.270 -0.0679  0.2075 -0.3452
 4116SOL    HW117286   4.351  11.567   6.303 -0.3287 -0.2068 -0.6104
 4116SOL    HW217287   4.414  11.461   6.216  0.5506 -0.3728  0.2044
 4117SOL     OW17288   7.224   0.609   4.757 -0.0443 -0.2198  0.0283
 4117SOL    HW117289   7.184   0.523   4.758  0.9620 -0.7063  0.3099
 4117SOL    HW217290   7.297   0.601   4.695 -0.2059  0.5586 -0.2843
 4118SOL     OW17291  11.261   2.447   2.636  0.3989  0.0665  0.2424
 4118SOL    HW117292  11.323   2.471   2.705 -0.2456  0.1102  0.8159
 4118SOL    HW217293  11.178   2.433   2.682 -0.2741  1.0521 -0.6366
 4119SOL     OW17294  10.303   2.840   4.830 -0.4238 -0.4475 -0.6552
 4119SOL    HW117295  10.236   2.858   4.897  0.2526  0.1383 -0.1241
 4119SOL    HW217296  10.383   2.878   4.865  0.7314 -3.0283 -0.2265
 4120SOL     OW17297   6.962   5.944   0.958  0.1157 -0.4368 -0.4133
 4120SOL    HW117298   6.893   6.010   0.968  1.1759  0.7992 -1.0152
 4120SOL    HW217299   7.041   5.987   0.990  0.9738 -1.1605 -1.4944
 4121SOL     OW17300   5.400   2.836   8.793 -0.0923  0.2520  0.7096
 4121SOL    HW117301   5.491   2.866   8.789  0.5270 -1.5513  0.4237
 4121SOL    HW217302   5.350   2.915   8.814  1.6685  1.0501  2.1919
 4122SOL     OW17303   7.816  11.292   3.418 -0.2762 -0.0099  0.1270
 4122SOL    HW117304   7.755  11.357   3.385 -1.0191 -0.9136 -0.3133
 4122SOL    HW217305   7.867  11.265   3.342  1.1867  1.2233  0.6035
 4123SOL     OW17306   8.133   2.727   8.606 -0.1300 -0.2425 -0.3947
 4123SOL    HW117307   8.137   2.774   8.690  1.2700 -0.1908 -0.4601
 4123SOL    HW217308   8.112   2.795   8.542  2.8009  0.6062 -0.6278
 4124SOL     OW17309   1.810   1.948  11.330 -0.1627 -0.1776 -0.0753
 4124SOL    HW117310   1.870   1.942  11.405  0.2161  0.9322 -0.2608
 4124SOL    HW217311   1.747   2.016  11.356 -0.9593 -0.8821 -0.1478
 4125SOL     OW17312   1.864   0.398   3.424  0.8099  0.3308 -0.0908
 4125SOL    HW117313   1.883   0.327   3.364 -0.4801  1.1494 -1.5646
 4125SOL    HW217314   1.929   0.466   3.403  0.9986  0.2238  0.1492
 4126SOL     OW17315  10.824   5.262   3.803  0.3462  0.1124 -0.1123
 4126SOL    HW117316  10.801   5.170   3.788  0.4533 -0.1629  1.2970
 4126SOL    HW217317  10.889   5.259   3.874  1.6454  1.1598 -1.2074
 4127SOL     OW17318   7.749   5.656   0.796  0.2654  0.8860  0.6117
 4127SOL    HW117319   7.698   5.695   0.867 -0.4723  1.2058 -0.0813
 4127SOL    HW217320   7.750   5.724   0.728  2.1389  1.1446  0.8292
 4128SOL     OW17321  11.607   3.509  10.924 -1.0766 -0.1496  0.0673
 4128SOL    HW117322  11.688   3.534  10.879 -1.1628 -1.6875 -1.0543
 4128SOL    HW217323  11.626   3.420  10.957 -1.9843 -0.1407  0.6299
 4129SOL     OW17324   7.491  11.078   3.869  0.2316  0.7778 -0.1669
 4129SOL    HW117325   7.403  11.056   3.898  0.4842 -0.1150 -0.0763
 4129SOL    HW217326   7.532  11.117   3.945 -0.0085  0.9963 -0.1456
 4130SOL     OW17327   6.540   9.152   1.784  0.3884 -0.2478 -0.0889
 4130SOL    HW117328   6.469   9.160   1.720  1.7092 -1.0150 -1.7277
 4130SOL    HW217329   6.574   9.241   1.794 -0.0012 -0.0793 -0.2643
 4131SOL     OW17330   3.030   2.299   9.048  0.0531 -0.2754  0.0548
 4131SOL    HW117331   3.125   2.312   9.049 -0.0293  0.3785  1.0811
 4131SOL    HW217332   3.019   2.207   9.024  1.0077 -0.6587  0.9649
 4132SOL     OW17333   2.295   6.051   7.041  0.0316  0.2164 -0.4692
 4132SOL    HW117334   2.206   6.039   7.075  0.1385 -1.5487 -0.6845
 4132SOL    HW217335   2.348   5.987   7.090  1.4234  1.9240  0.3872
 4133SOL     OW17336   5.184   7.061   4.996  0.5493 -0.4843 -0.2631
 4133SOL    HW117337   5.091   7.040   4.992  0.1473  0.7767  1.4154
 4133SOL    HW217338   5.216   7.047   4.907 -1.8599  1.7558 -1.5941
 4134SOL     OW17339   0.218   4.139   1.604 -0.1437  0.5626 -0.0538
 4134SOL    HW117340   0.163   4.108   1.532  0.2428  2.6008 -1.3173
 4134SOL    HW217341   0.156   4.162   1.673 -0.5868 -0.5650 -0.0513
 4135SOL     OW17342   2.262  10.184   7.439  0.0027 -0.0237 -0.4041
 4135SOL    HW117343   2.315  10.232   7.376 -0.0292  1.3609  0.5928
 4135SOL    HW217344   2.172  10.194   7.407 -0.0202  0.7247 -0.0994
 4136SOL     OW17345   9.114   0.148   7.105 -0.1437  0.2201 -0.1541
 4136SOL    HW117346   9.194   0.201   7.101  2.3090 -3.0481  0.8710
 4136SOL    HW217347   9.083   0.144   7.015  3.3271 -1.6766 -1.4350
 4137SOL     OW17348   7.177   1.024   3.957  0.0095  0.2723  1.2442
 4137SOL    HW117349   7.135   1.091   3.903  0.8733  0.4773  0.8252
 4137SOL    HW217350   7.196   1.067   4.040  0.6635  0.5787  0.9360
 4138SOL     OW17351   5.998   0.389   2.405  0.1079 -0.3097 -0.0080
 4138SOL    HW117352   6.087   0.406   2.435  0.2288 -0.1328 -0.4526
 4138SOL    HW217353   6.007   0.322   2.337  0.1654  1.2101 -1.5745
 4139SOL     OW17354   1.939  11.160   4.127 -0.3709  0.5092 -0.1092
 4139SOL    HW117355   1.864  11.135   4.181 -1.4170 -0.1242 -1.7935
 4139SOL    HW217356   2.003  11.091   4.143 -0.9767 -0.1056 -0.2637
 4140SOL     OW17357   6.244   0.799   5.586  0.2130  0.2743 -0.8577
 4140SOL    HW117358   6.314   0.741   5.614 -0.3457  0.3165  0.7541
 4140SOL    HW217359   6.275   0.887   5.609  0.2710  0.4419 -1.5607
 4141SOL     OW17360   1.510   1.191   3.634 -0.0879  0.1862  0.4936
 4141SOL    HW117361   1.576   1.185   3.566 -0.0762 -1.2012  0.5915
 4141SOL    HW217362   1.508   1.283   3.659  1.4804  0.3199  0.1706
 4142SOL     OW17363   0.256   8.850   9.024  0.8166 -0.4757 -0.4296
 4142SOL    HW117364   0.220   8.921   8.972  1.5112  0.9393  0.9244
 4142SOL    HW217365   0.321   8.809   8.967 -1.0371 -1.4338 -1.9767
 4143SOL     OW17366   6.244   5.763   2.433 -0.1411 -0.1645  0.4627
 4143SOL    HW117367   6.217   5.768   2.524 -1.2491  0.2491  0.1285
 4143SOL    HW217368   6.211   5.844   2.394 -1.0170 -1.0165 -0.6374
 4144SOL     OW17369   9.127   7.095   9.427 -0.1869  0.3576 -0.5996
 4144SOL    HW117370   9.103   7.126   9.340  1.5650 -1.2431 -1.7337
 4144SOL    HW217371   9.219   7.068   9.419  0.2361  0.7305  1.9273
 4145SOL     OW17372  11.324   6.315   9.279  0.1566 -0.3338 -0.7597
 4145SOL    HW117373  11.256   6.277   9.336  2.1302 -2.1593  0.5103
 4145SOL    HW217374  11.328   6.256   9.204  1.1170 -0.9482 -0.2499
 4146SOL     OW17375   6.145   3.191   2.312  0.0076 -0.1509 -0.1366
 4146SOL    HW117376   6.096   3.120   2.354  0.4445  0.6251  1.7921
 4146SOL    HW217377   6.205   3.146   2.252 -2.0774 -1.1831 -1.5723
 4147SOL     OW17378   5.662   4.005   4.693 -0.2969  0.2363  0.3536
 4147SOL    HW117379   5.670   3.974   4.602  0.6892 -1.1312  0.8717
 4147SOL    HW217380   5.649   4.099   4.685 -0.8910  0.0519 -1.2260
 4148SOL     OW17381   4.921   1.246   3.415  0.0455  0.6332 -0.7667
 4148SOL    HW117382   4.935   1.323   3.469 -3.0555  0.7459  0.0846
 4148SOL    HW217383   4.920   1.279   3.325  0.0412  1.3487 -0.5084
 4149SOL     OW17384   3.432   9.908   0.256  0.0167  0.0213  0.0892
 4149SOL    HW117385   3.497   9.906   0.185 -0.2210 -4.2555 -0.2916
 4149SOL    HW217386   3.479   9.945   0.331  1.3034  1.5309 -1.3755
 4150SOL     OW17387   9.476   2.748  11.630 -0.2198  0.0251  0.0615
 4150SOL    HW117388   9.471   2.781  11.540  0.4752 -0.4797 -0.1707
 4150SOL    HW217389   9.548   2.798  11.670  0.4934 -0.8191 -0.1370
 4151SOL     OW17390   1.593   1.045  10.035  0.4593 -0.1412  0.3427
 4151SOL    HW117391   1.680   1.069  10.068  0.5076 -1.0734  0.9305
 4151SOL    HW217392   1.549   1.006  10.111 -1.1507  1.9619  0.5793
 4152SOL     OW17393   2.334   6.548   8.256  0.1141  0.0194 -0.4661
 4152SOL    HW117394   2.343   6.643   8.269  0.1320 -0.0085 -0.2727
 4152SOL    HW217395   2.294   6.540   8.170 -1.4475  0.2512  0.2145
 4153SOL     OW17396   0.710   6.007   0.933 -0.7297  0.2369 -0.3246
 4153SOL    HW117397   0.621   6.023   0.965 -1.1803 -1.1768 -0.8208
 4153SOL    HW217398   0.723   5.913   0.944  0.2970  0.2507 -1.2863
 4154SOL     OW17399   8.785   4.503   4.596  0.3342 -0.0734  0.4014
 4154SOL    HW117400   8.817   4.577   4.544  0.4231 -0.2049  0.2663
 4154SOL    HW217401   8.863   4.448   4.609  0.3665  0.0798  0.8819
 4155SOL     OW17402   5.680   4.527  11.473 -0.3979  0.4145  0.1901
 4155SOL    HW117403   5.730   4.592  11.523  3.0197 -0.8875 -1.2034
 4155SOL    HW217404   5.638   4.473  11.540  0.3110  1.4262  1.5029
 4156SOL     OW17405   2.540   8.695   6.736 -1.0108  0.0785  0.1582
 4156SOL    HW117406   2.503   8.663   6.818  1.0034  0.2176  1.1594
 4156SOL    HW217407   2.634   8.702   6.752 -0.1381 -2.2735 -2.8996
 4157SOL     OW17408   8.831   6.626   1.183  0.3514 -0.6272 -0.4338
 4157SOL    HW117409   8.802   6.583   1.102 -0.9724 -1.2726  0.3398
 4157SOL    HW217410   8.884   6.560   1.227  3.8283  0.7682 -2.1483
 4158SOL     OW17411   5.911   1.845   3.074 -0.0216  0.8774  0.2708
 4158SOL    HW117412   5.916   1.779   3.143 -1.0943 -0.3855 -0.8235
 4158SOL    HW217413   5.958   1.920   3.110  1.4946 -0.5620  1.4365
 4159SOL     OW17414   9.482  11.092   3.976 -0.6138 -0.4194  0.4289
 4159SOL    HW117415   9.460  11.111   4.067 -0.3838 -1.4420  0.7136
 4159SOL    HW217416   9.564  11.043   3.981  1.1050  2.1556 -0.5269
 4160SOL     OW17417   4.376   5.014   5.147 -0.1475  0.7102 -0.0116
 4160SOL    HW117418   4.428   4.947   5.103 -0.2176  0.6992 -0.0793
 4160SOL    HW217419   4.323   4.967   5.210  0.0637  0.7445  0.1908
 4161SOL     OW17420   4.006   5.552  10.170  0.8151 -0.0631 -0.3362
 4161SOL    HW117421   3.993   5.457  10.165  0.5338  0.0393 -1.8299
 4161SOL    HW217422   4.082   5.569  10.114 -0.7714  0.8831 -2.3265
 4162SOL     OW17423   2.579   7.508   6.224  0.0737 -0.6107 -0.3809
 4162SOL    HW117424   2.672   7.489   6.213  0.0249 -1.5041  0.5496
 4162SOL    HW217425   2.576   7.595   6.263  0.4721 -0.1885 -1.2702
 4163SOL     OW17426  10.348  10.426   4.401  0.5883 -0.2858 -0.6778
 4163SOL    HW117427  10.328  10.366   4.473 -0.1361  1.3385  0.5388
 4163SOL    HW217428  10.273  10.486   4.399  0.8920  0.0755 -2.4082
 4164SOL     OW17429   1.068   7.293   9.302 -0.3378  0.4813 -0.5530
 4164SOL    HW117430   1.043   7.370   9.353  0.1540 -0.6360  1.5094
 4164SOL    HW217431   1.008   7.224   9.331 -0.0902 -0.1830 -1.5593
 4165SOL     OW17432   6.723  10.575  11.276  0.1257  0.1962  0.3808
 4165SOL    HW117433   6.753  10.485  11.261  0.7974  0.5450 -0.4858
 4165SOL    HW217434   6.785  10.610  11.341  0.0361  0.1272  0.5044
 4166SOL     OW17435   7.613   9.486   3.967 -0.1371  0.1364  0.0176
 4166SOL    HW117436   7.706   9.467   3.984 -0.1064 -0.1539 -0.4414
 4166SOL    HW217437   7.595   9.564   4.019 -0.9134 -2.3937  3.9834
 4167SOL     OW17438   9.030   2.392   2.056 -0.1256  0.3734  0.4196
 4167SOL    HW117439   9.122   2.368   2.067 -0.1121 -0.0225 -0.4225
 4167SOL    HW217440   8.986   2.309   2.038 -0.4495  0.6939 -0.3274
 4168SOL     OW17441   6.856   5.611   4.206  0.0998  0.0172 -0.1205
 4168SOL    HW117442   6.879   5.570   4.123 -0.1361  0.6205 -0.4908
 4168SOL    HW217443   6.822   5.539   4.260  1.1353 -0.5395 -0.2044
 4169SOL     OW17444   1.445   9.106   5.135 -0.2822 -0.4060  0.4064
 4169SOL    HW117445   1.505   9.174   5.167 -0.0663  0.5329 -1.8335
 4169SOL    HW217446   1.442   9.042   5.206  1.5395  0.6628  1.5381
 4170SOL     OW17447   0.328   6.186   6.175  0.8412 -0.6445  0.0889
 4170SOL    HW117448   0.338   6.282   6.175 -4.1164  0.1310 -0.4669
 4170SOL    HW217449   0.338   6.162   6.083  0.9659 -0.4866  0.0596
 4171SOL     OW17450   4.374  10.634   5.518 -0.2554 -0.1834  0.2310
 4171SOL    HW117451   4.338  10.653   5.431  0.6403 -1.1525 -0.3649
 4171SOL    HW217452   4.316  10.681   5.578 -2.7513 -1.9377 -0.6424
 4172SOL     OW17453   9.053   9.130   6.842  0.7313  0.6718 -0.0173
 4172SOL    HW117454   8.990   9.195   6.811 -0.9976 -0.8563  0.1392
 4172SOL    HW217455   9.063   9.148   6.935 -1.1234 -0.2956  0.4281
 4173SOL     OW17456   5.382   4.125   8.734 -0.1132  0.3220 -0.4287
 4173SOL    HW117457   5.472   4.092   8.728 -0.3447 -0.5748  0.6901
 4173SOL    HW217458   5.348   4.118   8.645  1.4343  2.2927 -1.2791
 4174SOL     OW17459   4.624   4.166   2.382  0.4179  0.1066 -0.4112
 4174SOL    HW117460   4.565   4.172   2.306 -0.6713  0.2239  0.4130
 4174SOL    HW217461   4.676   4.088   2.366 -0.6462 -0.5630 -0.7117
 4175SOL     OW17462   9.111   7.818   0.860  0.2385  0.4406  0.3788
 4175SOL    HW117463   9.040   7.841   0.801  0.0855  0.8010  0.7044
 4175SOL    HW217464   9.154   7.901   0.880 -0.4855  0.4953  1.7686
 4176SOL     OW17465   5.295   0.133   4.408 -0.6798  0.4567  0.4429
 4176SOL    HW117466   5.329   0.160   4.323  0.2243  2.0278  1.2399
 4176SOL    HW217467   5.205   0.163   4.409 -0.3664  1.4361  0.4272
 4177SOL     OW17468   1.436   6.180   4.359 -0.2751  0.2107  0.0828
 4177SOL    HW117469   1.344   6.159   4.342 -0.8597  0.8701  2.2240
 4177SOL    HW217470   1.466   6.110   4.416  0.0751  0.8870  0.7323
 4178SOL     OW17471   3.380   0.583   2.180 -0.2353 -0.1571  0.2312
 4178SOL    HW117472   3.401   0.514   2.242  0.9987  0.7897  0.9118
 4178SOL    HW217473   3.397   0.664   2.227  0.8537  0.5974 -1.3538
 4179SOL     OW17474   4.967   1.008   2.890 -0.1106 -0.6769 -0.2172
 4179SOL    HW117475   4.939   1.056   2.968 -1.5008 -3.8244  1.4012
 4179SOL    HW217476   5.050   1.048   2.865 -0.4223  1.4646  1.9182
 4180SOL     OW17477   8.603   8.967   6.330 -0.1123  0.0819 -0.3847
 4180SOL    HW117478   8.600   8.877   6.298 -1.2026  0.1011 -0.3873
 4180SOL    HW217479   8.670   8.967   6.398 -1.2156 -1.1124  0.7491
 4181SOL     OW17480   1.723   7.298   5.446  0.6324  0.1503  0.0067
 4181SOL    HW117481   1.716   7.287   5.541 -0.4604  0.6627  0.0059
 4181SOL    HW217482   1.713   7.393   5.433  0.7045  0.0729 -0.6205
 4182SOL     OW17483   5.527   3.852   1.005 -0.6455  0.3406 -0.0845
 4182SOL    HW117484   5.569   3.773   0.970  0.4771  0.0432  1.8151
 4182SOL    HW217485   5.559   3.859   1.094 -2.4864  1.7283  0.5298
 4183SOL     OW17486   6.564   0.122  10.105 -0.2230 -0.1776  0.1184
 4183SOL    HW117487   6.588   0.206  10.065  1.5758 -0.8643 -0.3611
 4183SOL    HW217488   6.610   0.122  10.189 -1.1634 -0.2150  0.6477
 4184SOL     OW17489  10.276   7.110   9.639 -0.0602  0.2024 -0.1836
 4184SOL    HW117490  10.316   7.059   9.709 -1.3361  0.5863  0.8795
 4184SOL    HW217491  10.186   7.079   9.635 -0.5431  1.5316 -0.3074
 4185SOL     OW17492   5.435   7.510   5.618 -0.7754 -0.0818 -0.3306
 4185SOL    HW117493   5.457   7.537   5.529 -1.6729 -0.4802 -0.6870
 4185SOL    HW217494   5.401   7.589   5.660 -0.1417  0.1610 -0.2655
 4186SOL     OW17495  11.681  11.079   0.884  0.4549  0.3700 -0.2988
 4186SOL    HW117496  11.596  11.036   0.891  0.4570  0.3243 -0.5233
 4186SOL    HW217497  11.729  11.051   0.961  0.4537 -0.0258 -0.4404
 4187SOL     OW17498   8.559   8.570   6.369  0.1883 -0.4080 -0.3386
 4187SOL    HW117499   8.466   8.594   6.366 -0.1256 -1.5697 -0.4395
 4187SOL    HW217500   8.581   8.571   6.462 -0.2474 -1.2627 -0.2186
 4188SOL     OW17501   2.550   2.239   9.658 -0.2803  0.4615  0.4807
 4188SOL    HW117502   2.472   2.184   9.650 -0.8312  1.4064 -0.8179
 4188SOL    HW217503   2.603   2.217   9.581 -0.4054  1.5653  0.0637
 4189SOL     OW17504  10.070  11.433   0.771  0.0133  0.5528  0.0448
 4189SOL    HW117505  10.115  11.407   0.691  1.4174  0.2643  0.8910
 4189SOL    HW217506  10.133  11.486   0.819 -0.3101 -0.3392  1.5353
 4190SOL     OW17507   6.661   7.422  11.125  0.5536 -0.9890 -0.0803
 4190SOL    HW117508   6.631   7.513  11.135  0.4784 -1.0953  0.7825
 4190SOL    HW217509   6.618   7.375  11.197  0.6118 -1.7046 -0.5058
 4191SOL     OW17510   4.404   1.790  10.727 -0.2222 -0.7217  0.0765
 4191SOL    HW117511   4.421   1.834  10.644  1.0508 -1.4076 -0.0527
 4191SOL    HW217512   4.343   1.720  10.705 -0.7183 -0.2451 -0.0773
 4192SOL     OW17513   0.097   9.303   3.977  0.0102  0.7445 -0.3085
 4192SOL    HW117514   0.110   9.213   4.006 -1.6760  0.4420 -0.3881
 4192SOL    HW217515   0.143   9.309   3.893  0.5413  0.1186 -0.0700
 4193SOL     OW17516   8.982   8.734   3.148 -0.7751  0.0920 -0.1529
 4193SOL    HW117517   8.945   8.822   3.155 -0.3569  0.4092 -1.5464
 4193SOL    HW217518   8.911   8.676   3.174 -1.9954  0.7247 -1.8970
 4194SOL     OW17519   6.064   7.037   7.139 -0.4125  0.1579 -0.1591
 4194SOL    HW117520   5.983   6.991   7.119  0.0430 -0.8335  0.1796
 4194SOL    HW217521   6.128   7.003   7.075  0.5780 -1.6724  1.6513
 4195SOL     OW17522   7.373   1.350   1.038 -0.8921 -0.3623 -0.0314
 4195SOL    HW117523   7.327   1.351   0.954  0.8384 -0.4685 -1.0235
 4195SOL    HW217524   7.409   1.262   1.045  2.2585  0.7185 -1.1149
 4196SOL     OW17525  10.808   9.364   0.559 -0.3254  0.2117 -0.2366
 4196SOL    HW117526  10.876   9.336   0.621 -0.6874  0.9904  0.5377
 4196SOL    HW217527  10.733   9.307   0.579  0.3180 -1.2156 -1.6489
 4197SOL     OW17528   5.526   3.496   8.768  0.0332  0.4515 -0.1435
 4197SOL    HW117529   5.432   3.484   8.756  0.2412 -0.6955 -0.7642
 4197SOL    HW217530   5.544   3.466   8.857  0.0054 -0.6162 -0.4881
 4198SOL     OW17531   3.104   9.041   5.569  0.1737  1.0736 -0.1248
 4198SOL    HW117532   3.017   9.007   5.590 -1.1321  3.4140 -1.3295
 4198SOL    HW217533   3.116   9.114   5.629  2.3260 -0.5074  1.5093
 4199SOL     OW17534   1.599   5.135   8.696  0.1965 -0.8065  0.1634
 4199SOL    HW117535   1.680   5.186   8.692 -0.9615  1.1059 -2.9704
 4199SOL    HW217536   1.579   5.130   8.789  2.0125  1.8760  0.8266
 4200SOL     OW17537   9.152   7.446   1.566  0.1168  0.3048 -0.4823
 4200SOL    HW117538   9.146   7.510   1.495 -0.1627  0.5510 -0.2360
 4200SOL    HW217539   9.246   7.439   1.584  0.1951  0.2090 -0.9046
 4201SOL     OW17540   8.089   5.089  10.733  0.2872  0.8747  0.2219
 4201SOL    HW117541   8.020   5.092  10.800  0.6651 -0.4844  0.7217
 4201SOL    HW217542   8.044   5.064  10.653 -0.1620  2.4504 -0.0528
 4202SOL     OW17543  10.685   9.349   7.795 -0.0213  0.2463 -0.0201
 4202SOL    HW117544  10.767   9.393   7.773  1.3159 -1.5088  1.1464
 4202SOL    HW217545  10.700   9.257   7.770 -2.1053  0.0921 -0.9030
 4203SOL     OW17546   9.020   7.856   2.562 -1.2062 -0.0084 -0.0935
 4203SOL    HW117547   9.086   7.787   2.563 -0.3725  0.7120 -1.8416
 4203SOL    HW217548   9.038   7.906   2.482 -2.6654  1.3860  0.3942
 4204SOL     OW17549  10.547  10.927   2.729  0.1891 -0.0665 -0.1143
 4204SOL    HW117550  10.634  10.917   2.767  0.8870 -0.3336 -1.6739
 4204SOL    HW217551  10.541  10.857   2.663 -0.9754  0.3072 -0.4454
 4205SOL     OW17552   0.081   3.068  10.729  0.5349 -0.1845 -0.2195
 4205SOL    HW117553   0.120   3.085  10.642  0.9010 -0.7561 -0.1702
 4205SOL    HW217554   0.082   2.973  10.737 -1.4293 -0.2485 -0.4524
 4206SOL     OW17555  10.892   2.308   0.714 -0.4716  0.5287 -0.0569
 4206SOL    HW117556  10.845   2.229   0.688 -0.1197 -0.0515  1.0218
 4206SOL    HW217557  10.831   2.356   0.769 -0.2605  0.4078  0.2864
 4207SOL     OW17558   0.640   4.115   6.825 -0.2081  0.2197  0.0527
 4207SOL    HW117559   0.660   4.032   6.869 -2.4268  0.6010  1.9725
 4207SOL    HW217560   0.594   4.090   6.745 -1.5769 -0.4249  1.0124
 4208SOL     OW17561   1.167   0.750   2.156  0.2093 -0.0648  0.6730
 4208SOL    HW117562   1.087   0.765   2.106 -0.2401  0.6240  1.5758
 4208SOL    HW217563   1.161   0.811   2.230  2.3829  1.3198 -0.1814
 4209SOL     OW17564   4.633   8.234   7.065 -0.0815  0.2829 -0.2431
 4209SOL    HW117565   4.588   8.316   7.086  1.4338  0.8201  1.1867
 4209SOL    HW217566   4.564   8.175   7.037 -1.8492  0.7689  2.6598
 4210SOL     OW17567   0.624   6.978   1.693 -0.0511  0.0202  0.3579
 4210SOL    HW117568   0.588   6.917   1.628  0.4222  1.6639 -1.5721
 4210SOL    HW217569   0.599   6.942   1.778  0.2777 -2.8568 -0.6791
 4211SOL     OW17570   8.535   6.152   3.811  0.7812  0.0262 -0.6295
 4211SOL    HW117571   8.509   6.066   3.842  0.7984  0.2908  0.1389
 4211SOL    HW217572   8.461   6.183   3.759  0.4637 -0.1417 -0.2802
 4212SOL     OW17573  11.246   5.486   7.827  0.2373  0.0358 -0.0293
 4212SOL    HW117574  11.287   5.460   7.745 -1.2766 -0.8360 -0.5414
 4212SOL    HW217575  11.230   5.580   7.818  1.0915  0.1634 -0.2602
 4213SOL     OW17576   1.352   7.407   1.977 -0.2770 -0.2443 -0.2373
 4213SOL    HW117577   1.310   7.453   1.903 -0.7530  1.7667  1.1999
 4213SOL    HW217578   1.439   7.386   1.945 -0.2254  1.2127 -1.1749
 4214SOL     OW17579   6.968   4.175   1.641  0.0123 -0.2931 -0.0340
 4214SOL    HW117580   7.052   4.148   1.605  0.1709  0.5514 -0.3315
 4214SOL    HW217581   6.989   4.224   1.720 -0.3531 -2.3798  1.4263
 4215SOL     OW17582   7.667   1.399   0.354 -0.2325 -0.3030  0.1884
 4215SOL    HW117583   7.643   1.456   0.427 -1.0783 -0.0609 -0.2700
 4215SOL    HW217584   7.694   1.317   0.395 -1.5599 -0.4790  0.7500
 4216SOL     OW17585   1.203   4.464   8.745  0.2090  0.2125  0.4355
 4216SOL    HW117586   1.184   4.390   8.802 -1.8704  0.5154  0.2185
 4216SOL    HW217587   1.172   4.437   8.659  0.0791  1.0491  0.2039
 4217SOL     OW17588   7.922  10.694   1.370 -0.2445 -0.3295  0.6347
 4217SOL    HW117589   7.900  10.627   1.304  1.4090  0.0062 -0.3005
 4217SOL    HW217590   7.932  10.775   1.319 -2.4332  0.7405  1.7741
 4218SOL     OW17591   5.497   6.719   1.142  0.0189 -0.4872  0.3768
 4218SOL    HW117592   5.491   6.657   1.215  0.4101 -1.7666 -0.6283
 4218SOL    HW217593   5.571   6.687   1.090 -0.6979 -0.0334 -0.9588
 4219SOL     OW17594   4.570  10.607   3.945 -0.1237  0.1342 -0.4628
 4219SOL    HW117595   4.593  10.587   4.036 -0.0622 -1.9782 -0.9026
 4219SOL    HW217596   4.647  10.652   3.911  0.4500 -0.3788  0.1205
 4220SOL     OW17597   3.476   4.365   8.347  0.8055  0.2138 -0.3731
 4220SOL    HW117598   3.500   4.345   8.257  0.8365 -0.1809 -0.2791
 4220SOL    HW217599   3.390   4.324   8.358  2.2745 -2.8374  0.8403
 4221SOL     OW17600   9.887   7.629   4.956  0.2509 -0.8166 -0.0514
 4221SOL    HW117601   9.831   7.686   4.904 -0.0746 -1.8134 -0.8361
 4221SOL    HW217602   9.829   7.593   5.023  0.5252 -0.0168  0.6305
 4222SOL     OW17603   8.015   2.240   8.615 -0.1146  0.4389 -0.0636
 4222SOL    HW117604   8.043   2.320   8.659  0.5728  0.0416  0.2472
 4222SOL    HW217605   8.091   2.212   8.565 -0.6090  0.4063 -0.8130
 4223SOL     OW17606   7.885   6.540   5.812  0.2507  0.2012  0.1096
 4223SOL    HW117607   7.917   6.564   5.725  0.6171 -1.1248 -0.1455
 4223SOL    HW217608   7.959   6.493   5.852  0.3761  1.4891  1.4618
 4224SOL     OW17609   3.155   9.946   9.061 -0.1115 -0.7977  0.7183
 4224SOL    HW117610   3.116   9.917   8.978 -1.5200 -0.8027  1.3566
 4224SOL    HW217611   3.150   9.869   9.117  0.5852 -0.7112  0.9084
 4225SOL     OW17612   3.910   1.549   6.608 -0.8047  0.1890  0.0876
 4225SOL    HW117613   3.990   1.498   6.598 -0.1542  0.8232  1.7069
 4225SOL    HW217614   3.898   1.556   6.703 -0.8772  2.9867 -0.0601
 4226SOL     OW17615   4.542   4.708   4.812  0.2263  0.3142  0.0387
 4226SOL    HW117616   4.515   4.617   4.824 -3.2412  1.1866 -0.0747
 4226SOL    HW217617   4.545   4.720   4.717  2.4473 -0.0716  0.0185
 4227SOL     OW17618   9.758   9.227  10.475 -0.2148  0.1194  0.1612
 4227SOL    HW117619   9.682   9.284  10.479 -0.4290 -0.2217  1.7925
 4227SOL    HW217620   9.728   9.149  10.429 -0.7082  0.1994  0.3460
 4228SOL     OW17621  10.503   3.325   6.569  0.1823 -0.7972  0.5864
 4228SOL    HW117622  10.470   3.309   6.481 -0.3122 -0.6606  0.7460
 4228SOL    HW217623  10.437   3.288   6.627 -0.9078  1.5929  0.9675
 4229SOL     OW17624   6.842   6.120   0.206 -0.3032 -0.1342  0.1114
 4229SOL    HW117625   6.796   6.128   0.122 -0.1113  0.4100  0.0580
 4229SOL    HW217626   6.915   6.061   0.188 -0.7505 -0.6885  0.0998
 4230SOL     OW17627   9.989   6.951   6.291  0.0669  0.6313 -0.6516
 4230SOL    HW117628   9.944   6.878   6.333 -0.1259  0.5188 -1.0491
 4230SOL    HW217629  10.077   6.950   6.330  0.0747  0.1724 -0.6708
 4231SOL     OW17630   2.853   4.353   5.192 -0.9752  0.4740  0.0745
 4231SOL    HW117631   2.898   4.401   5.262 -0.4062  0.9458 -0.6001
 4231SOL    HW217632   2.863   4.261   5.216 -1.2737  0.6431  0.8992
 4232SOL     OW17633   5.183   7.744   8.984 -0.1997  0.7394 -0.3866
 4232SOL    HW117634   5.098   7.750   9.028 -0.4871  1.4934 -1.0338
 4232SOL    HW217635   5.226   7.670   9.027 -0.0672  2.0224  1.8712
 4233SOL     OW17636  11.450   7.431   0.026  0.1094 -0.2564 -0.3228
 4233SOL    HW117637  11.360   7.410   0.053  0.4143  0.3089  1.2152
 4233SOL    HW217638  11.477   7.355  -0.026 -0.8811 -0.9386  0.1042
 4234SOL     OW17639   0.308   9.763   0.376 -0.1951 -0.7203  0.1489
 4234SOL    HW117640   0.372   9.786   0.310 -1.1393  2.7675  0.2650
 4234SOL    HW217641   0.353   9.776   0.460 -0.6140  0.5349  0.2069
 4235SOL     OW17642   1.725  11.668   2.800  0.6307 -0.7697 -0.1025
 4235SOL    HW117643   1.649  11.689   2.747  0.7638 -0.2142 -0.0764
 4235SOL    HW217644   1.740  11.575   2.784  0.3809 -0.7192 -0.6589
 4236SOL     OW17645   1.848  10.060   3.562  0.0438  0.1620  0.1717
 4236SOL    HW117646   1.782  10.129   3.552 -1.0504 -1.1554 -2.7045
 4236SOL    HW217647   1.800   9.985   3.595  0.9139  0.2440  1.7182
 4237SOL     OW17648   8.117   1.158   2.002 -0.1933 -0.3601 -0.6739
 4237SOL    HW117649   8.182   1.209   1.953 -1.2623  0.8327 -0.9142
 4237SOL    HW217650   8.169   1.106   2.064  0.9341  1.4670 -0.0015
 4238SOL     OW17651   4.180   8.113   9.781 -0.2140 -0.2229 -0.2448
 4238SOL    HW117652   4.234   8.139   9.707 -1.5045  0.9765 -0.8183
 4238SOL    HW217653   4.164   8.019   9.767  1.1700 -0.4465 -0.3951
 4239SOL     OW17654   8.464   5.858   3.803  0.7056 -0.3894 -0.6842
 4239SOL    HW117655   8.467   5.806   3.723 -1.0320 -1.9834  0.2214
 4239SOL    HW217656   8.371   5.867   3.823  0.8406  3.4661 -0.9627
 4240SOL     OW17657  10.533   6.683   1.948 -0.5493 -0.1810 -0.4400
 4240SOL    HW117658  10.460   6.739   1.977 -1.5870 -2.0219  0.7081
 4240SOL    HW217659  10.599   6.744   1.917 -2.0813  1.6272 -0.3406
 4241SOL     OW17660   3.061   3.852   4.428 -0.7558  0.3323  0.0160
 4241SOL    HW117661   2.989   3.906   4.398 -0.3903  0.1821 -1.1876
 4241SOL    HW217662   3.074   3.877   4.519 -3.2720 -0.6674  0.7421
 4242SOL     OW17663   7.278   0.806   4.949 -0.5177 -0.9783  0.1076
 4242SOL    HW117664   7.267   0.734   4.888  1.1631 -0.9392 -0.2888
 4242SOL    HW217665   7.281   0.884   4.894  0.9646 -0.9401  0.2175
 4243SOL     OW17666   7.708   6.708   0.371 -0.3690  0.1309 -0.1740
 4243SOL    HW117667   7.658   6.658   0.306  0.7065 -0.1510 -0.8098
 4243SOL    HW217668   7.703   6.799   0.341 -2.3781  0.4735  1.0161
 4244SOL     OW17669   1.326  10.239   7.556 -0.7110  0.5755 -0.0811
 4244SOL    HW117670   1.362  10.207   7.474  0.1179 -0.5746  0.6977
 4244SOL    HW217671   1.267  10.170   7.586  0.6285 -0.0284  1.3215
 4245SOL     OW17672  10.013   4.124   3.152 -0.4736 -0.1071 -0.2759
 4245SOL    HW117673  10.021   4.032   3.176 -0.8717 -0.1384 -0.2558
 4245SOL    HW217674   9.980   4.166   3.232  1.7678  0.4343  0.4452
 4246SOL     OW17675  10.970   7.341   7.777  0.1598  0.3479 -1.0954
 4246SOL    HW117676  11.013   7.425   7.789 -1.9294  1.2893  0.3710
 4246SOL    HW217677  10.939   7.342   7.686  1.8370  0.2815 -1.6919
 4247SOL     OW17678   8.634  10.601   0.030  0.0310  0.2538  0.3693
 4247SOL    HW117679   8.592  10.621  -0.054 -1.1763 -2.5156  0.2043
 4247SOL    HW217680   8.576  10.639   0.096 -0.5969 -0.0556  0.0041
 4248SOL     OW17681   4.719   4.153   8.509  0.1353 -0.0982  0.1305
 4248SOL    HW117682   4.746   4.228   8.456  0.1807  0.1153  0.4517
 4248SOL    HW217683   4.791   4.140   8.571  0.5852 -1.0368 -0.5668
 4249SOL     OW17684   1.012   1.805  11.517 -0.4397  0.7254  0.3074
 4249SOL    HW117685   1.024   1.861  11.594  2.0281 -0.9077  1.2450
 4249SOL    HW217686   0.917   1.796  11.509 -0.8148  2.1258  2.2764
 4250SOL     OW17687   7.572   8.850   4.941 -0.3816  0.2819  0.2050
 4250SOL    HW117688   7.641   8.805   4.892  0.1349 -0.2132  1.3419
 4250SOL    HW217689   7.577   8.812   5.029 -0.3483  2.1015  1.0399
 4251SOL     OW17690   8.177   4.669   7.371 -0.1540 -0.7535  0.5224
 4251SOL    HW117691   8.203   4.730   7.302  0.0850  0.0429  1.2916
 4251SOL    HW217692   8.084   4.686   7.385  0.1201  0.1227  1.3829
 4252SOL     OW17693   4.288   1.378   5.405  0.8500 -0.2530 -0.1660
 4252SOL    HW117694   4.285   1.425   5.489 -0.6013 -2.6809  1.2725
 4252SOL    HW217695   4.381   1.378   5.381  1.1651  1.3952  0.8907
 4253SOL     OW17696   6.458  10.265   9.892 -0.2828  0.6955  0.0144
 4253SOL    HW117697   6.418  10.236   9.810  1.3080 -0.2142 -0.4880
 4253SOL    HW217698   6.439  10.359   9.897 -0.5770  0.7204 -1.3040
 4254SOL     OW17699   6.814   3.462   4.771 -0.8222 -0.1035 -0.2445
 4254SOL    HW117700   6.780   3.535   4.822  0.6891 -0.3719  1.2364
 4254SOL    HW217701   6.772   3.385   4.810 -0.9602 -0.1798 -0.5418
 4255SOL     OW17702   6.017   2.000   6.160  0.5587  0.6273  0.2599
 4255SOL    HW117703   5.953   2.018   6.229 -0.5580  1.7152 -0.9910
 4255SOL    HW217704   6.023   2.083   6.112  0.7031 -0.3258 -1.4107
 4256SOL     OW17705   4.161   4.154   2.707  0.4710  0.2391 -0.3112
 4256SOL    HW117706   4.110   4.123   2.782  1.2248 -0.1737  0.0443
 4256SOL    HW217707   4.173   4.076   2.653 -0.7445  0.6884 -1.2898
 4257SOL     OW17708   5.335   2.777   7.946 -0.0678  0.1596 -0.1662
 4257SOL    HW117709   5.362   2.735   7.865 -0.7426 -0.5591 -0.0332
 4257SOL    HW217710   5.416   2.800   7.990  0.3080 -0.4631 -0.5272
 4258SOL     OW17711   3.238   5.495  11.107  0.6230 -0.2015  0.2253
 4258SOL    HW117712   3.301   5.564  11.127 -0.1603  0.7362 -0.4331
 4258SOL    HW217713   3.233   5.494  11.011  0.6103 -1.1705  0.2272
 4259SOL     OW17714   2.745   3.135   8.144 -0.1132 -0.3181  0.0600
 4259SOL    HW117715   2.805   3.177   8.082 -0.1019 -0.2873  0.0915
 4259SOL    HW217716   2.782   3.049   8.159 -0.5452 -0.6286 -0.5935
 4260SOL     OW17717   7.446   3.585   0.638 -0.3329  0.0011  0.5736
 4260SOL    HW117718   7.442   3.658   0.577 -0.5581 -0.8122 -0.4218
 4260SOL    HW217719   7.358   3.548   0.637  0.3068 -1.5975 -0.6325
 4261SOL     OW17720   4.208   0.187   5.416  0.2522  0.5489 -0.3252
 4261SOL    HW117721   4.197   0.105   5.368 -1.2611 -0.3920  1.5099
 4261SOL    HW217722   4.253   0.161   5.496 -0.0363  1.5638  0.1716
 4262SOL     OW17723   6.847   1.225   3.893  0.5403 -0.5556  0.4044
 4262SOL    HW117724   6.916   1.183   3.840  1.5179 -0.5050  1.5988
 4262SOL    HW217725   6.803   1.153   3.937  0.3510 -0.5259  0.2665
 4263SOL     OW17726   5.797   7.522   7.908 -0.2809  0.7782 -0.0471
 4263SOL    HW117727   5.866   7.582   7.880 -0.9560  0.5607 -2.4235
 4263SOL    HW217728   5.827   7.435   7.880 -0.5499  0.3628  0.8879
 4264SOL     OW17729   5.551   8.364   3.665 -0.3040 -0.3931 -0.8706
 4264SOL    HW117730   5.602   8.311   3.603  0.0879 -0.7403 -0.2561
 4264SOL    HW217731   5.528   8.303   3.735 -0.1838  0.1549 -0.3508
 4265SOL     OW17732  10.429   7.724   9.449 -0.0449  0.1446  0.1537
 4265SOL    HW117733  10.405   7.751   9.361  0.4001  0.5265  0.1446
 4265SOL    HW217734  10.444   7.630   9.442 -0.9284  0.0070  0.0321
 4266SOL     OW17735   2.730   5.959   0.845  0.1806  0.0239 -0.0803
 4266SOL    HW117736   2.806   5.932   0.793  1.9602  1.4704  1.5950
 4266SOL    HW217737   2.660   5.899   0.818  1.8006 -1.1818 -1.9318
 4267SOL     OW17738   8.114   3.010   2.240  0.5022 -0.3723 -0.2691
 4267SOL    HW117739   8.035   2.959   2.223  0.3884  0.3277 -2.0111
 4267SOL    HW217740   8.139   2.986   2.329 -2.7739  0.8524  1.1278
 4268SOL     OW17741   2.527  10.907   8.162 -0.4611 -0.5400  0.1282
 4268SOL    HW117742   2.483  10.892   8.245  0.3658  1.3335  0.9733
 4268SOL    HW217743   2.572  10.824   8.143 -1.7259 -1.4198  0.8417
 4269SOL     OW17744  10.322   6.538   2.449 -0.1811  0.6922  0.4795
 4269SOL    HW117745  10.325   6.614   2.508  0.0760  0.4897  0.7288
 4269SOL    HW217746  10.347   6.464   2.504 -3.3912 -0.1111  1.0688
 4270SOL     OW17747   4.363   1.182   1.243  0.3445  0.0363 -0.3460
 4270SOL    HW117748   4.315   1.258   1.277 -1.5113 -1.5590  0.8256
 4270SOL    HW217749   4.454   1.209   1.245  0.0418  1.2546  2.9000
 4271SOL     OW17750   3.672   7.373   1.152 -1.0295  0.1773  0.5915
 4271SOL    HW117751   3.590   7.392   1.106 -0.0036 -0.6102 -1.7344
 4271SOL    HW217752   3.675   7.278   1.156  0.5573  0.1113 -1.0105
 4272SOL     OW17753   5.291   8.726   5.985  0.3128  0.0510  0.1981
 4272SOL    HW117754   5.321   8.681   5.906  3.1171  0.6607  0.7970
 4272SOL    HW217755   5.265   8.656   6.045  0.5486 -0.5338 -0.3742
 4273SOL     OW17756   9.658   0.764  10.917 -0.2406 -0.4038  0.4672
 4273SOL    HW117757   9.608   0.827  10.968  1.0620 -2.2051  4.3639
 4273SOL    HW217758   9.748   0.799  10.918  0.0648 -1.1698  0.6809
 4274SOL     OW17759   2.042   9.180   9.904 -0.6239 -0.0144 -0.7483
 4274SOL    HW117760   2.070   9.090   9.887 -0.2866  0.3475 -2.2804
 4274SOL    HW217761   1.971   9.172   9.968 -0.8143 -1.3900 -1.1091
 4275SOL     OW17762   2.159   3.136  10.074 -0.6426  0.4651  0.3392
 4275SOL    HW117763   2.121   3.132  10.162 -0.6386  1.7992  0.4195
 4275SOL    HW217764   2.223   3.207  10.079 -0.6656  0.5765 -0.7522
 4276SOL     OW17765   9.379   7.225   1.990  0.1289  0.3591 -0.0709
 4276SOL    HW117766   9.443   7.228   1.920  0.1732 -3.9169 -0.4820
 4276SOL    HW217767   9.294   7.220   1.945 -0.1129  1.0541  0.2988
 4277SOL     OW17768  10.121   5.692   9.687  0.5688  0.2910 -0.2468
 4277SOL    HW117769  10.122   5.666   9.595  0.0016  1.3667 -0.5652
 4277SOL    HW217770  10.085   5.616   9.733  0.4947 -0.1056 -0.9548
 4278SOL     OW17771   0.001   6.684  10.152 -1.0702 -0.2260 -0.3457
 4278SOL    HW117772  -0.065   6.730  10.204 -1.8554 -1.8738  0.1496
 4278SOL    HW217773  -0.046   6.612  10.110  0.1247 -0.5847 -1.1247
 4279SOL     OW17774   9.705   1.143   9.691  0.8370  0.5148 -0.0273
 4279SOL    HW117775   9.742   1.188   9.615 -0.3200  1.6758  0.0495
 4279SOL    HW217776   9.721   1.050   9.675  0.7566  0.7504 -1.6221
 4280SOL     OW17777   0.109   7.875   1.746 -0.0479 -0.0217 -0.3159
 4280SOL    HW117778   0.027   7.826   1.735  0.0498 -0.6231  1.3452
 4280SOL    HW217779   0.169   7.812   1.787  0.7337  0.8769 -0.0492
 4281SOL     OW17780  10.677   5.993  10.242  0.1908  0.1128  0.3467
 4281SOL    HW117781  10.625   6.034  10.311  1.0926  0.2473  0.9600
 4281SOL    HW217782  10.633   5.910  10.225 -0.0572  0.0920  1.0595
 4282SOL     OW17783   3.131   2.841   5.684  0.1338 -0.0904 -0.5322
 4282SOL    HW117784   3.134   2.922   5.633 -3.6986  1.3298  1.0737
 4282SOL    HW217785   3.197   2.853   5.752 -0.5550  1.9271 -0.1390
 4283SOL     OW17786   7.910   8.175   0.722  0.0671  0.0901 -0.4624
 4283SOL    HW117787   7.862   8.203   0.645 -0.2654 -0.1982 -0.3645
 4283SOL    HW217788   7.878   8.231   0.793  2.6016  2.5638 -1.0632
 4284SOL     OW17789   4.992   3.376   0.728  0.3519 -0.2756 -0.0862
 4284SOL    HW117790   5.039   3.296   0.706  0.8123  0.1439 -0.6355
 4284SOL    HW217791   4.912   3.372   0.676  0.3159 -0.4329 -0.0203
 4285SOL     OW17792   0.104   6.556   5.837 -0.7781  0.1825  0.8848
 4285SOL    HW117793   0.072   6.484   5.890 -0.4219 -0.0945  0.7242
 4285SOL    HW217794   0.176   6.593   5.887 -0.5603  0.0361  0.6829
 4286SOL     OW17795   2.792   4.999   3.139 -0.0778  0.2858  0.3756
 4286SOL    HW117796   2.718   4.989   3.199  1.3337  0.4558  2.2158
 4286SOL    HW217797   2.813   5.092   3.143  0.4028  0.1921  0.0522
 4287SOL     OW17798   9.214   7.112   8.600 -0.0924 -0.3410  0.3132
 4287SOL    HW117799   9.231   7.165   8.678 -1.3907  0.9605 -0.2395
 4287SOL    HW217800   9.300   7.098   8.561  0.5984 -1.1075  1.9968
 4288SOL     OW17801   9.086   7.227   6.301 -0.1195 -0.3315 -0.5186
 4288SOL    HW117802   9.031   7.182   6.237 -1.2214  0.3824 -0.0887
 4288SOL    HW217803   9.038   7.222   6.383  1.3884 -1.4406  0.3518
 4289SOL     OW17804   9.031   8.658   2.544 -0.1588 -0.0098  0.3948
 4289SOL    HW117805   9.069   8.688   2.626 -1.6054 -1.2255  1.5647
 4289SOL    HW217806   8.962   8.597   2.570 -0.0953 -1.0967 -1.7563
 4290SOL     OW17807  11.030   3.022   8.367  0.0943  0.1887 -0.1377
 4290SOL    HW117808  11.115   3.052   8.401  0.7055 -3.2235  1.7439
 4290SOL    HW217809  11.052   2.974   8.287  0.0705 -1.1718  0.6462
 4291SOL     OW17810   3.720   6.298   9.025  0.2166 -0.4280  0.2959
 4291SOL    HW117811   3.799   6.316   8.975  1.6616 -2.7969  1.5296
 4291SOL    HW217812   3.665   6.245   8.967  0.4951 -0.5391  0.1352
 4292SOL     OW17813   2.563   5.595   8.278  0.1068  0.3535  0.5500
 4292SOL    HW117814   2.534   5.680   8.245  0.9507  0.7922  0.8818
 4292SOL    HW217815   2.495   5.533   8.251 -0.9497  1.2723  1.0488
 4293SOL     OW17816   2.080   2.640   8.616 -0.6019  0.0870  0.0120
 4293SOL    HW117817   2.091   2.582   8.540  0.8415  1.4726 -0.9175
 4293SOL    HW217818   1.986   2.645   8.630 -0.7927 -2.0737 -0.1640
 4294SOL     OW17819   1.124  11.146   6.698  0.3594  0.1732  0.2962
 4294SOL    HW117820   1.144  11.223   6.644  0.7811 -1.0430 -1.3364
 4294SOL    HW217821   1.182  11.077   6.665  1.0771 -0.4925  2.7219
 4295SOL     OW17822   5.249   7.289  10.450  0.2466  0.0033 -0.0066
 4295SOL    HW117823   5.280   7.281  10.540 -1.2551 -0.6266  0.4840
 4295SOL    HW217824   5.315   7.242  10.398  0.7643 -0.2248  0.8313
 4296SOL     OW17825   1.798   9.319   9.358  0.6457  0.1858  0.0117
 4296SOL    HW117826   1.878   9.349   9.402  0.3394 -0.3539  0.9640
 4296SOL    HW217827   1.799   9.224   9.368  0.9232 -0.0323 -1.7960
 4297SOL     OW17828   2.380   2.906   2.710  0.2161  0.4515 -0.1336
 4297SOL    HW117829   2.372   2.812   2.729  1.6300  0.4548  0.5748
 4297SOL    HW217830   2.342   2.916   2.623 -0.3412 -0.7028 -0.0469
 4298SOL     OW17831   2.675   7.826   3.080 -0.2544 -0.4342 -0.1439
 4298SOL    HW117832   2.683   7.794   3.170  0.4478 -0.6883 -0.2933
 4298SOL    HW217833   2.764   7.844   3.052 -0.5128  0.1737 -0.6061
 4299SOL     OW17834   3.032   5.867   7.135  0.3645  0.0447 -0.1971
 4299SOL    HW117835   3.109   5.817   7.110  1.2508  2.2107 -2.2952
 4299SOL    HW217836   3.042   5.883   7.229  2.5887  0.4012 -0.4497
 4300SOL     OW17837   3.798   6.487  10.773  0.5032 -0.4504  0.4014
 4300SOL    HW117838   3.763   6.576  10.780  0.3960 -0.5611  1.5083
 4300SOL    HW217839   3.790   6.465  10.680 -3.1555 -0.7628  0.6374
 4301SOL     OW17840   2.344   2.240   4.118  0.5609 -0.2155  0.8067
 4301SOL    HW117841   2.260   2.193   4.116  0.1088  0.5789 -0.8888
 4301SOL    HW217842   2.404   2.184   4.069  0.5070  0.1017  0.3719
 4302SOL     OW17843   8.196   7.275   7.183  0.7258  0.2694 -0.4487
 4302SOL    HW117844   8.186   7.225   7.264 -0.8907  1.3890  0.0972
 4302SOL    HW217845   8.238   7.357   7.210 -0.4421  0.9387 -0.5803
 4303SOL     OW17846  10.788   6.830   8.048 -0.2946 -0.1692  0.1454
 4303SOL    HW117847  10.837   6.874   8.117  0.4323 -1.3835  0.4504
 4303SOL    HW217848  10.819   6.870   7.967 -2.7015  2.7791  0.5186
 4304SOL     OW17849   0.035   1.624   0.382  0.1576  0.1257  0.1130
 4304SOL    HW117850  -0.017   1.649   0.306 -0.3236 -2.3095 -0.4678
 4304SOL    HW217851   0.004   1.536   0.404  3.0600 -0.9106  0.5782
 4305SOL     OW17852   6.010   0.925   1.119  0.3433 -0.1009 -0.1084
 4305SOL    HW117853   5.923   0.925   1.079  0.2100  1.7503  0.0733
 4305SOL    HW217854   6.026   1.017   1.141  1.6083 -0.6513  1.4840
 4306SOL     OW17855   1.175   7.837   9.660 -0.0631 -0.3746 -0.1594
 4306SOL    HW117856   1.154   7.928   9.680 -3.0876 -0.8498 -0.6266
 4306SOL    HW217857   1.101   7.787   9.695  0.7725 -2.4890 -1.2289
 4307SOL     OW17858   2.553   7.514  10.409  0.6892 -0.1762  0.7685
 4307SOL    HW117859   2.571   7.608  10.417 -0.4787  0.0233  1.3540
 4307SOL    HW217860   2.473   7.510  10.357  0.2401 -0.7855  1.4806
 4308SOL     OW17861   1.720   2.779   1.054  0.0604  0.7345  0.2427
 4308SOL    HW117862   1.782   2.838   1.012 -2.4304  2.0373 -1.8449
 4308SOL    HW217863   1.771   2.700   1.074  2.1861  1.4340 -2.0324
 4309SOL     OW17864  11.247   9.880  11.189 -0.6806  0.1512  0.0763
 4309SOL    HW117865  11.299   9.932  11.250 -1.3270 -0.3043  1.0420
 4309SOL    HW217866  11.221   9.943  11.121 -1.4108  1.1127  1.1973
 4310SOL     OW17867  10.518   2.307   3.057  0.2117  0.0620  0.5476
 4310SOL    HW117868  10.462   2.326   2.982 -0.7401  0.7658  1.4017
 4310SOL    HW217869  10.476   2.234   3.102 -0.1199  0.6827  1.2736
 4311SOL     OW17870  10.868   3.613   6.273  0.0008 -0.0457  0.0179
 4311SOL    HW117871  10.928   3.688   6.278  0.6475 -0.4699 -1.0790
 4311SOL    HW217872  10.920   3.538   6.301  0.4602 -0.6546 -2.2508
 4312SOL     OW17873   4.131   1.318  11.596  0.9529 -0.8001 -0.5927
 4312SOL    HW117874   4.067   1.357  11.655  3.4285  1.6420  0.7196
 4312SOL    HW217875   4.094   1.330  11.509 -0.6335 -0.0488  0.1572
 4313SOL     OW17876  10.231   0.086   2.556  0.0324 -0.2932 -0.0020
 4313SOL    HW117877  10.174   0.039   2.495 -0.2674  0.2333 -0.1303
 4313SOL    HW217878  10.179   0.161   2.584  0.8738  0.5157 -0.5733
 4314SOL     OW17879   4.580   4.837  11.193  0.3329 -0.1309 -0.1999
 4314SOL    HW117880   4.548   4.901  11.257 -0.3009  1.2011 -1.7721
 4314SOL    HW217881   4.536   4.755  11.218  0.1157  0.3459  1.0628
 4315SOL     OW17882   6.754   4.823   9.139 -0.3631 -0.4424 -0.3968
 4315SOL    HW117883   6.795   4.737   9.150 -1.0002 -0.6838  0.1537
 4315SOL    HW217884   6.719   4.821   9.050 -0.0113 -0.5900 -0.5365
 4316SOL     OW17885   1.735  10.143  11.398  0.1902  0.2092 -0.4053
 4316SOL    HW117886   1.759  10.050  11.403  0.0339  0.2300  0.9919
 4316SOL    HW217887   1.644  10.146  11.429  0.1445  0.8108 -0.5939
 4317SOL     OW17888   4.942   7.754   7.383 -0.0977  0.0871  0.8750
 4317SOL    HW117889   4.887   7.794   7.315 -0.5519 -0.8480  0.6744
 4317SOL    HW217890   4.886   7.687   7.423 -0.0908  1.1224  2.7010
 4318SOL     OW17891   5.502   5.416   2.347  0.8634 -0.7180 -0.4876
 4318SOL    HW117892   5.424   5.467   2.367  0.6701 -1.1869 -0.0087
 4318SOL    HW217893   5.472   5.325   2.351  0.9862 -0.8562 -2.2613
 4319SOL     OW17894   8.779   3.751   5.087 -0.5604  0.0725  0.1899
 4319SOL    HW117895   8.812   3.779   5.001 -1.0900 -0.8582 -0.3278
 4319SOL    HW217896   8.790   3.828   5.143 -3.6780  1.9986 -1.6143
 4320SOL     OW17897   3.230   4.422  11.597  0.0710  0.5346 -0.0013
 4320SOL    HW117898   3.324   4.433  11.582  0.2261  0.9281  1.1451
 4320SOL    HW217899   3.209   4.485  11.666 -0.6685 -0.7958  1.0319
 4321SOL     OW17900   5.237   1.719   2.381  0.3133  0.5751  0.1736
 4321SOL    HW117901   5.192   1.668   2.314  0.7236  1.2253 -0.6249
 4321SOL    HW217902   5.259   1.802   2.337  0.5402  1.0409  1.1310
 4322SOL     OW17903   6.316   4.266   3.463 -0.0085  0.6723  0.6909
 4322SOL    HW117904   6.281   4.177   3.459  0.4865  0.3836  2.1235
 4322SOL    HW217905   6.294   4.297   3.551  1.3754  1.2913  0.8575
 4323SOL     OW17906   1.234   7.227   0.486  0.3022 -0.0271  0.1437
 4323SOL    HW117907   1.287   7.300   0.519 -1.6896  1.9430 -0.6863
 4323SOL    HW217908   1.144   7.252   0.507 -0.4875 -2.1154 -0.5055
 4324SOL     OW17909   2.423   0.620   3.670  0.1190 -0.2361 -0.2032
 4324SOL    HW117910   2.392   0.683   3.736  0.5812  0.8738 -1.0066
 4324SOL    HW217911   2.364   0.545   3.679 -0.6324  0.4243  0.6022
 4325SOL     OW17912   1.422   9.225   9.206 -0.2876 -0.4109 -0.0459
 4325SOL    HW117913   1.341   9.275   9.205  0.0964  0.4073 -3.2181
 4325SOL    HW217914   1.421   9.178   9.289 -1.4921  3.5141  2.4057
 4326SOL     OW17915   6.609   7.836   8.789  0.3613  0.7581  0.3197
 4326SOL    HW117916   6.667   7.829   8.713 -1.4200 -0.3081 -1.0145
 4326SOL    HW217917   6.560   7.917   8.775 -0.3253  0.3041  0.0367
 4327SOL     OW17918   8.954   4.547   8.431 -0.2054 -0.2648  0.2095
 4327SOL    HW117919   9.049   4.539   8.428 -0.2326 -0.2302 -1.6168
 4327SOL    HW217920   8.926   4.480   8.494  1.0687  0.4931  1.6520
 4328SOL     OW17921  10.529   2.391   9.977 -0.3579  0.2449 -0.6163
 4328SOL    HW117922  10.587   2.465   9.995 -0.9763  0.4977  0.4171
 4328SOL    HW217923  10.542   2.372   9.884 -0.1930  1.6642 -0.9025
 4329SOL     OW17924   8.140  11.039   1.435  0.3377  0.0074  0.2552
 4329SOL    HW117925   8.115  11.046   1.343  1.2912  0.0074 -0.0161
 4329SOL    HW217926   8.058  11.027   1.481 -0.1436 -0.1484 -0.6138
 4330SOL     OW17927   4.280   7.263   7.798  0.4056  0.4937 -0.6442
 4330SOL    HW117928   4.271   7.359   7.800 -3.5201  0.2719  0.6568
 4330SOL    HW217929   4.285   7.237   7.890  0.8478 -0.6103 -0.9633
 4331SOL     OW17930   2.356   4.624   8.502  0.0660  0.1261  0.1965
 4331SOL    HW117931   2.358   4.704   8.555 -0.0962  1.2648 -1.4340
 4331SOL    HW217932   2.412   4.563   8.549  0.5113  1.3310  1.2947
 4332SOL     OW17933   7.581   3.976  11.567 -0.4125 -0.0421  0.1735
 4332SOL    HW117934   7.588   3.973  11.471 -1.0504  0.0597  0.1200
 4332SOL    HW217935   7.516   3.909  11.587 -0.7160  0.3499  0.4913
 4333SOL     OW17936   4.958  10.802   0.102  0.3521 -0.4205  0.1863
 4333SOL    HW117937   4.904  10.728   0.072 -1.6485  0.5529  1.1721
 4333SOL    HW217938   4.977  10.782   0.194 -1.6690  1.0086  0.9818
 4334SOL     OW17939  10.260  11.395   2.934 -0.3323  0.4511  0.5226
 4334SOL    HW117940  10.321  11.321   2.935 -1.0301 -0.1483 -0.1296
 4334SOL    HW217941  10.315  11.471   2.952  0.3296 -0.2657  1.6450
 4335SOL     OW17942   0.571   5.319   7.736  0.1347  0.1222  0.4313
 4335SOL    HW117943   0.544   5.360   7.818 -1.4541 -0.5493  0.2867
 4335SOL    HW217944   0.666   5.324   7.737  0.1291  0.5968  2.0656
 4336SOL     OW17945   8.319   4.543   2.655  0.3602 -0.6604  0.4229
 4336SOL    HW117946   8.411   4.524   2.639  0.0286 -1.9866  0.0134
 4336SOL    HW217947   8.306   4.525   2.748  0.4556 -0.7339  0.4215
 4337SOL     OW17948   9.799   9.900   3.359 -0.9166 -0.0281 -0.1573
 4337SOL    HW117949   9.765   9.828   3.305 -1.0382 -0.0184 -0.0959
 4337SOL    HW217950   9.881   9.867   3.395 -1.4141 -0.4922  0.6087
 4338SOL     OW17951   0.194   5.069   9.197  0.0623  0.0684 -0.2951
 4338SOL    HW117952   0.213   5.093   9.287 -0.8660  1.9142 -0.5401
 4338SOL    HW217953   0.274   5.028   9.165  0.6185 -0.0320  1.1644
 4339SOL     OW17954   1.832  10.293   1.279 -0.5413 -0.5670  0.1412
 4339SOL    HW117955   1.825  10.387   1.292  0.7003 -0.4046 -0.2860
 4339SOL    HW217956   1.812  10.280   1.186  0.7917 -0.5296 -0.1711
 4340SOL     OW17957   8.244   7.525   6.580 -0.0301  0.1691 -0.3032
 4340SOL    HW117958   8.306   7.577   6.529  1.2313 -1.0359 -0.0766
 4340SOL    HW217959   8.282   7.437   6.582 -1.7075 -0.5949 -0.0478
 4341SOL     OW17960   0.476  11.002   3.117  0.4982 -0.2520  0.3413
 4341SOL    HW117961   0.523  11.054   3.181 -1.2158  4.3722 -1.6888
 4341SOL    HW217962   0.539  10.985   3.047  0.6663  0.8005  0.2255
 4342SOL     OW17963   3.738  10.921   7.541 -1.0276 -0.3203  0.2751
 4342SOL    HW117964   3.771  10.946   7.627  1.6082  0.0621 -0.7528
 4342SOL    HW217965   3.712  11.003   7.500 -0.0930 -0.2051 -0.1102
 4343SOL     OW17966   9.095   2.561   1.036 -0.1065 -0.3813 -0.1688
 4343SOL    HW117967   9.070   2.471   1.061  0.8938 -0.6527 -0.1331
 4343SOL    HW217968   9.143   2.551   0.954 -0.8120  0.2334 -0.6817
 4344SOL     OW17969  10.811   2.898   6.209  0.7068  0.2158 -0.1528
 4344SOL    HW117970  10.811   2.861   6.298  1.7993 -1.8902 -0.9492
 4344SOL    HW217971  10.875   2.845   6.161  2.3194  3.1405 -1.4941
 4345SOL     OW17972   8.461  10.556   0.539  0.7379  0.1370 -0.5953
 4345SOL    HW117973   8.555  10.541   0.538  0.6779 -0.3611 -2.3910
 4345SOL    HW217974   8.452  10.651   0.532  1.0778  0.3592  1.4293
 4346SOL     OW17975   1.789   2.233   5.485  0.0637  0.3562  0.2541
 4346SOL    HW117976   1.863   2.181   5.515  1.0912 -0.1304 -2.8733
 4346SOL    HW217977   1.721   2.168   5.465  0.4529  0.3989 -1.2538
 4347SOL     OW17978   0.408   9.419   7.098 -1.0771  0.1693  0.4519
 4347SOL    HW117979   0.323   9.384   7.125 -1.7539  2.2729  1.2153
 4347SOL    HW217980   0.453   9.440   7.179 -0.1074 -0.2257  0.0345
 4348SOL     OW17981   0.536   7.508   6.560 -0.2688  0.7930  0.9186
 4348SOL    HW117982   0.631   7.502   6.550 -0.4206  0.1734 -0.2735
 4348SOL    HW217983   0.510   7.421   6.591 -0.6651  0.2683 -0.7981
 4349SOL     OW17984   5.725   8.742   1.588  0.3798  0.2695 -0.0762
 4349SOL    HW117985   5.644   8.768   1.544  0.1627  0.3218  0.3464
 4349SOL    HW217986   5.698   8.668   1.644  1.1627 -1.5458 -1.9721
 4350SOL     OW17987   3.998   0.304   2.544  0.0898  0.3767  0.2498
 4350SOL    HW117988   3.985   0.382   2.597  0.4085  0.8770 -0.4094
 4350SOL    HW217989   4.074   0.260   2.584  0.3452  0.7622  0.1856
 4351SOL     OW17990   5.594   9.736   1.473 -0.3672  0.5176 -0.0137
 4351SOL    HW117991   5.557   9.649   1.463  0.9195 -0.0418 -0.0668
 4351SOL    HW217992   5.658   9.727   1.543 -0.6612  1.5745  0.4102
 4352SOL     OW17993   3.571   0.674   0.905 -0.2650 -0.0591  0.6685
 4352SOL    HW117994   3.565   0.767   0.883  0.6593 -0.1594 -0.0769
 4352SOL    HW217995   3.665   0.656   0.903 -0.3445 -0.7473  1.9713
 4353SOL     OW17996   1.792   8.708   5.945 -0.3681 -0.4610  0.2084
 4353SOL    HW117997   1.816   8.678   5.857  0.3686 -0.6865  0.4837
 4353SOL    HW217998   1.868   8.759   5.975 -0.4365 -0.7543  0.8905
 4354SOL     OW17999   7.916   7.441   6.850 -0.4030  0.0223  0.0679
 4354SOL    HW118000   7.961   7.526   6.852  0.3707 -0.3673 -0.4169
 4354SOL    HW218001   7.888   7.431   6.760 -1.3803  0.2044  0.3405
 4355SOL     OW18002   6.917   3.994   5.872 -0.3876 -0.5058  0.3036
 4355SOL    HW118003   6.868   4.076   5.879 -0.7436 -0.6194 -0.6914
 4355SOL    HW218004   7.008   4.022   5.860 -0.2626 -0.2896  1.6258
 4356SOL     OW18005  11.191   5.632   6.883  0.2872  0.1279  0.1894
 4356SOL    HW118006  11.148   5.557   6.924  1.3937  0.2541  1.6763
 4356SOL    HW218007  11.201   5.607   6.791 -1.1484 -0.6935  0.2283
 4357SOL     OW18008   2.594   5.082  10.656  0.1386 -0.2703 -0.3345
 4357SOL    HW118009   2.559   5.029  10.727  0.2067  1.3120  0.9300
 4357SOL    HW218010   2.551   5.049  10.577 -1.5464 -0.6693  0.7161
 4358SOL     OW18011   9.782   0.599  11.574 -0.3579 -0.3035 -0.7836
 4358SOL    HW118012   9.705   0.619  11.626 -1.1200 -0.0155 -1.9819
 4358SOL    HW218013   9.749   0.590  11.485  1.2827  2.2827 -1.7674
 4359SOL     OW18014   7.074   1.879   7.544 -0.1125  0.0741 -0.3415
 4359SOL    HW118015   7.032   1.924   7.618 -0.5665 -0.4668 -0.2569
 4359SOL    HW218016   7.166   1.905   7.549 -0.0675 -0.2327  0.6342
 4360SOL     OW18017   8.554   4.400   4.479  0.1097 -0.0123 -0.2248
 4360SOL    HW118018   8.550   4.304   4.471  0.1325  0.0861 -1.5379
 4360SOL    HW218019   8.629   4.416   4.536 -1.3273 -0.8479  2.0776
 4361SOL     OW18020   7.085   4.566   2.935  0.3024 -0.1446 -0.5031
 4361SOL    HW118021   7.069   4.472   2.938 -1.4156  0.1276 -0.2726
 4361SOL    HW218022   7.108   4.590   3.025  0.1974 -0.2448 -0.4500
 4362SOL     OW18023   2.764   9.601   9.358  0.7666 -0.1853 -0.0055
 4362SOL    HW118024   2.794   9.579   9.270  3.0258 -0.3789  0.7488
 4362SOL    HW218025   2.724   9.520   9.391 -0.3043 -0.0460 -0.8920
 4363SOL     OW18026   2.957  11.049   6.759  0.5968  0.4948 -0.4745
 4363SOL    HW118027   2.985  11.005   6.679  1.9776  0.8638 -0.2139
 4363SOL    HW218028   3.026  11.113   6.777 -0.1705  1.0827  0.4872
 4364SOL     OW18029  11.225   9.092   1.977  0.2283  0.1889 -0.2095
 4364SOL    HW118030  11.245   9.020   1.916 -0.0565  0.1293 -0.2325
 4364SOL    HW218031  11.296   9.154   1.964  1.2645 -0.7261  0.8147
 4365SOL     OW18032   9.565   2.305  10.117 -0.0745  0.4329  0.5392
 4365SOL    HW118033   9.545   2.212  10.129  1.4318  0.1315  0.9299
 4365SOL    HW218034   9.539   2.323  10.026  1.7802 -1.0192 -0.3565
 4366SOL     OW18035   7.099   2.278   5.754 -0.6568  0.0591 -0.1897
 4366SOL    HW118036   7.069   2.211   5.694 -0.7345  0.0608 -0.1525
 4366SOL    HW218037   7.043   2.269   5.831 -0.0730 -0.4368  0.1853
 4367SOL     OW18038   4.375   8.830   1.484  0.0178  0.1505  0.2844
 4367SOL    HW118039   4.304   8.775   1.518  0.5079  0.1678  1.3906
 4367SOL    HW218040   4.338   8.918   1.482 -0.9770 -0.2499 -2.0925
 4368SOL     OW18041   7.875   8.702  11.146 -0.5672  0.1534 -0.3775
 4368SOL    HW118042   7.962   8.662  11.143 -0.8643 -0.5022 -0.4340
 4368SOL    HW218043   7.843   8.683  11.234 -0.3182  1.1236 -0.0739
 4369SOL     OW18044   8.074   4.412   4.038  0.2539 -0.5068 -0.2202
 4369SOL    HW118045   8.166   4.385   4.036  0.1484 -0.8766 -1.4351
 4369SOL    HW218046   8.030   4.340   4.083  0.6869  0.1742  1.3386
 4370SOL     OW18047   7.000   7.581   4.060 -0.2283  0.2080 -0.2272
 4370SOL    HW118048   6.971   7.535   4.139 -0.9041  1.7164  0.4482
 4370SOL    HW218049   7.089   7.609   4.081  0.2729 -0.9548 -0.7319
 4371SOL     OW18050   8.192   1.423   4.207  0.0830 -0.4903  0.0923
 4371SOL    HW118051   8.137   1.372   4.149  0.7584 -0.7032 -0.3705
 4371SOL    HW218052   8.138   1.438   4.285 -0.9158  0.0158 -0.6801
 4372SOL     OW18053   8.962   0.420   7.642  0.1368  0.2433  0.5771
 4372SOL    HW118054   8.931   0.419   7.733 -1.1260 -1.9755  0.1971
 4372SOL    HW218055   9.053   0.390   7.647  0.0911  0.1823  1.1052
 4373SOL     OW18056   1.573   3.822   7.493 -0.4973 -0.2314 -0.1312
 4373SOL    HW118057   1.624   3.890   7.449  3.0604 -1.5877  1.5742
 4373SOL    HW218058   1.586   3.743   7.440 -2.2256 -0.3011 -0.5186
 4374SOL     OW18059   9.116   4.946   1.320  0.1197 -0.4322 -0.1592
 4374SOL    HW118060   9.142   4.893   1.245 -0.3123 -0.5328 -0.2426
 4374SOL    HW218061   9.130   5.036   1.293  1.2040 -0.5057  0.1121
 4375SOL     OW18062  11.360   0.623   4.036 -0.3276 -0.0705  0.6998
 4375SOL    HW118063  11.272   0.632   3.999 -0.4217 -1.3510  0.5814
 4375SOL    HW218064  11.417   0.660   3.969 -0.6930 -0.2113  0.3052
 4376SOL     OW18065   5.824   6.300   8.665 -0.6743  0.2611  0.2887
 4376SOL    HW118066   5.763   6.333   8.731  0.0383 -0.5151  1.3637
 4376SOL    HW218067   5.777   6.226   8.625 -0.5903 -0.1073  0.8634
 4377SOL     OW18068   2.633   8.059   8.094 -0.2730 -0.5051  0.2910
 4377SOL    HW118069   2.633   7.964   8.106  0.3005 -0.4852  0.4946
 4377SOL    HW218070   2.710   8.076   8.039 -0.8345 -0.2382 -0.4295
 4378SOL     OW18071   7.396  10.886   6.177 -0.3487 -0.0051 -0.3509
 4378SOL    HW118072   7.364  10.964   6.132 -0.1118  0.6338  0.5812
 4378SOL    HW218073   7.435  10.918   6.258  0.2704 -1.0337 -0.2201
 4379SOL     OW18074   7.215   9.550   8.554 -0.0113 -0.5338  0.5638
 4379SOL    HW118075   7.261   9.536   8.471 -2.0087  0.0308 -0.7223
 4379SOL    HW218076   7.226   9.467   8.601  0.0192 -1.3997 -0.8826
 4380SOL     OW18077  11.082   8.799   0.226  0.0088  0.2260 -0.0891
 4380SOL    HW118078  10.994   8.779   0.194 -0.7875  1.8129  1.0170
 4380SOL    HW218079  11.082   8.893   0.238  1.5202  0.1108  0.9853
 4381SOL     OW18080   2.881   8.237   9.915 -0.1741  0.3727  0.3621
 4381SOL    HW118081   2.860   8.330   9.908 -1.2399  0.1043 -0.3112
 4381SOL    HW218082   2.853   8.213  10.004  0.5699  0.7997  0.7147
 4382SOL     OW18083   7.285   3.672   1.903  0.1652 -0.4628 -0.1557
 4382SOL    HW118084   7.373   3.655   1.935  0.3154  1.0238  0.3166
 4382SOL    HW218085   7.244   3.724   1.972  0.0184  1.6346 -1.7103
 4383SOL     OW18086   8.603   0.547   0.302  0.3714  0.3095 -0.6420
 4383SOL    HW118087   8.551   0.474   0.268  0.5562 -0.5617  0.8956
 4383SOL    HW218088   8.576   0.556   0.393  1.6948  0.9597 -0.2897
 4384SOL     OW18089   1.247   5.882   4.905 -0.0127  0.2484  0.2912
 4384SOL    HW118090   1.341   5.873   4.919  0.1897 -0.8800 -1.4305
 4384SOL    HW218091   1.208   5.828   4.974  0.7271 -1.2636 -0.4143
 4385SOL     OW18092   5.533   3.539   0.071  0.2394  0.3720  0.4656
 4385SOL    HW118093   5.530   3.446   0.046 -0.3115  0.0477  1.6664
 4385SOL    HW218094   5.581   3.539   0.154  1.0360  1.2803  0.0202
 4386SOL     OW18095   7.590   6.555   6.876 -0.7736  0.8077  0.0856
 4386SOL    HW118096   7.675   6.542   6.834 -1.1676 -0.4013 -0.3625
 4386SOL    HW218097   7.609   6.613   6.951  1.1070 -2.1660  2.1264
 4387SOL     OW18098   5.686   0.232   9.305  0.5285 -0.2932 -0.3052
 4387SOL    HW118099   5.719   0.146   9.331 -0.2222 -0.6695 -0.5832
 4387SOL    HW218100   5.609   0.246   9.360 -1.7940 -1.6113 -2.9917
 4388SOL     OW18101  10.587   6.487   2.795  0.4001  0.0706  0.0489
 4388SOL    HW118102  10.581   6.439   2.712  0.4739 -1.1440  0.7166
 4388SOL    HW218103  10.539   6.432   2.857 -0.5843  1.4969  0.5951
 4389SOL     OW18104   0.170   6.361   3.961  0.6001  0.2035  0.5166
 4389SOL    HW118105   0.213   6.444   3.941  2.5641 -0.6119  1.1996
 4389SOL    HW218106   0.224   6.321   4.029 -1.4019 -0.7734  1.6228
 4390SOL     OW18107   0.434   6.648   2.130 -0.4135 -0.2756  0.0245
 4390SOL    HW118108   0.421   6.582   2.199 -0.4255  1.1556  1.4459
 4390SOL    HW218109   0.346   6.664   2.096 -0.4294 -0.8786 -0.2353
 4391SOL     OW18110   5.519   3.496   5.779  0.5203 -0.3418  0.2989
 4391SOL    HW118111   5.577   3.420   5.765  1.8142  0.7158 -0.3007
 4391SOL    HW218112   5.525   3.513   5.873 -2.2113 -2.8002  1.0829
 4392SOL     OW18113   4.582   0.441   2.273  0.1395 -0.0180  0.0011
 4392SOL    HW118114   4.633   0.512   2.312 -0.5240  0.1826  0.5289
 4392SOL    HW218115   4.618   0.430   2.186  0.2759  0.9449 -0.0700
 4393SOL     OW18116   0.530   9.894   0.305 -0.0486  0.1270 -0.2075
 4393SOL    HW118117   0.574   9.914   0.387  0.3127 -0.3837 -0.2691
 4393SOL    HW218118   0.597   9.904   0.238 -0.3279  0.4911 -0.4381
 4394SOL     OW18119   3.911   6.379   8.810 -0.1984  0.1168  0.5030
 4394SOL    HW118120   3.941   6.444   8.746  0.0233 -0.4209  0.0599
 4394SOL    HW218121   3.932   6.295   8.771 -0.8718 -0.2354  0.8906
 4395SOL     OW18122   1.944  11.507   0.894 -0.2573 -0.1364  0.0361
 4395SOL    HW118123   1.868  11.492   0.837  0.0104 -0.8689 -0.1439
 4395SOL    HW218124   1.990  11.580   0.853  0.3327 -1.1227 -1.1414
 4396SOL     OW18125   9.274   5.148   3.410  0.0900  0.0294  0.2298
 4396SOL    HW118126   9.180   5.162   3.417  0.0054 -1.1415  1.7257
 4396SOL    HW218127   9.313   5.232   3.438 -0.4851  0.5889 -0.6087
 4397SOL     OW18128   7.891   0.465  11.010  0.2970 -0.3081 -0.3497
 4397SOL    HW118129   7.891   0.456  11.105  0.4376 -3.4688 -0.5429
 4397SOL    HW218130   7.801   0.491  10.988  0.2495  0.3798  0.5908
 4398SOL     OW18131   5.188   5.254  10.427  0.0719 -0.0941 -0.4338
 4398SOL    HW118132   5.139   5.181  10.465  0.6223 -0.6259 -0.7529
 4398SOL    HW218133   5.197   5.232  10.335 -0.4543  0.7627 -0.7078
 4399SOL     OW18134   8.983   8.877   0.749  0.2442  0.4634 -0.1142
 4399SOL    HW118135   8.969   8.855   0.841 -0.1373 -1.2564 -0.5606
 4399SOL    HW218136   8.923   8.949   0.732 -1.7207 -1.0016  0.2988
 4400SOL     OW18137  10.029  10.704   0.722  0.4051  0.3486  0.4607
 4400SOL    HW118138  10.090  10.727   0.792  1.6625  0.1628 -0.5345
 4400SOL    HW218139  10.052  10.613   0.700  0.5451  0.6450 -0.6761
 4401SOL     OW18140   4.475   2.676   2.578 -0.1601  0.4318 -0.3870
 4401SOL    HW118141   4.496   2.766   2.551  1.1526  0.0733 -0.6716
 4401SOL    HW218142   4.392   2.657   2.536  0.7746  0.6514 -2.4436
 4402SOL     OW18143   6.421  10.367   8.623  0.4639  0.7300 -0.4263
 4402SOL    HW118144   6.464  10.418   8.555  0.0828  1.6020 -0.0261
 4402SOL    HW218145   6.492  10.321   8.668  0.7406  0.3485 -1.2347
 4403SOL     OW18146   3.690   4.200   9.633  0.6622 -0.3692  0.2912
 4403SOL    HW118147   3.607   4.177   9.590  0.1243 -0.3664  1.2934
 4403SOL    HW218148   3.748   4.127   9.612  0.7936  0.1907 -1.4055
 4404SOL     OW18149   8.972   5.892  11.374 -0.6119 -0.5999 -0.3910
 4404SOL    HW118150   9.045   5.844  11.414 -2.6217 -2.1544  1.6620
 4404SOL    HW218151   8.989   5.983  11.398  0.9793 -0.8130 -0.5653
 4405SOL     OW18152   5.841   9.481   5.366 -0.6613  0.1742 -0.1014
 4405SOL    HW118153   5.845   9.394   5.406 -2.1233  1.1055  2.3205
 4405SOL    HW218154   5.748   9.498   5.355 -0.3488  0.6398 -2.5859
 4406SOL     OW18155   8.680   1.863   1.119  0.2790  0.4978 -0.4745
 4406SOL    HW118156   8.752   1.861   1.056  0.1651  0.5048 -0.6037
 4406SOL    HW218157   8.719   1.830   1.200 -0.0878 -1.5508 -1.0717
 4407SOL     OW18158   2.690   5.009  11.616  0.0853  0.0607 -0.1719
 4407SOL    HW118159   2.713   5.090  11.573 -1.4193  0.9222  0.5629
 4407SOL    HW218160   2.679   4.946  11.545 -0.2823  0.9063 -0.8800
 4408SOL     OW18161   2.702  10.664   8.997 -0.0811 -0.5069 -0.1413
 4408SOL    HW118162   2.750  10.701   9.070  0.2807  0.9001 -1.0534
 4408SOL    HW218163   2.610  10.664   9.025  0.2765 -2.2577  1.2122
 4409SOL     OW18164   0.750   6.890   6.930  0.2819  0.0183  0.5464
 4409SOL    HW118165   0.748   6.972   6.880 -0.4891 -0.4862 -0.2753
 4409SOL    HW218166   0.713   6.825   6.871 -2.0493 -0.3369  2.2687
 4410SOL     OW18167   6.345  10.026   6.325 -0.3287  0.5075  0.1140
 4410SOL    HW118168   6.336  10.005   6.418 -0.2054 -0.5218 -0.0957
 4410SOL    HW218169   6.440  10.036   6.312 -0.4082  1.8312  0.3217
 4411SOL     OW18170   6.445   0.195   1.179  0.3152 -0.1227  0.0509
 4411SOL    HW118171   6.439   0.291   1.174 -0.4666 -0.1060  0.9278
 4411SOL    HW218172   6.406   0.164   1.097 -0.5466  0.2959  0.2906
 4412SOL     OW18173   6.894   6.485   8.649  0.1343  0.0917  0.1168
 4412SOL    HW118174   6.830   6.423   8.682  0.4018  0.1223  0.7193
 4412SOL    HW218175   6.848   6.569   8.649  0.0355  0.0375  0.1273
 4413SOL     OW18176   6.840   0.673  10.042  0.5663 -0.0385 -0.3143
 4413SOL    HW118177   6.924   0.631  10.058  0.8704  0.3542 -0.8223
 4413SOL    HW218178   6.863   0.763  10.017  0.0263 -0.0589 -0.9221
 4414SOL     OW18179   0.906   1.979   9.532  0.4807  0.0060  0.1603
 4414SOL    HW118180   0.922   2.026   9.614 -0.0038 -0.1697  0.3549
 4414SOL    HW218181   0.895   1.888   9.558 -1.3978  0.1825  0.1156
 4415SOL     OW18182   0.393  10.829   3.385 -0.6862  0.7619 -0.1396
 4415SOL    HW118183   0.445  10.902   3.350 -0.1056  0.7916  0.7405
 4415SOL    HW218184   0.336  10.870   3.450  0.4849  0.3137  1.2398
 4416SOL     OW18185   4.538   4.052  10.272  0.8089  0.8001 -0.1761
 4416SOL    HW118186   4.534   4.050  10.368  1.3350  1.6894 -0.1285
 4416SOL    HW218187   4.564   4.142  10.251 -0.5291  0.9792 -1.1996
 4417SOL     OW18188   6.002  11.380   7.386 -0.2764  0.0241 -0.5391
 4417SOL    HW118189   5.983  11.338   7.471  4.6050  0.7589  1.2596
 4417SOL    HW218190   5.994  11.474   7.403 -1.3780  0.1394 -1.5914
 4418SOL     OW18191   4.543   0.018   5.606  0.4313 -0.5371 -0.6023
 4418SOL    HW118192   4.470   0.079   5.592  0.6127 -0.2221 -0.1667
 4418SOL    HW218193   4.607   0.042   5.539  0.4245 -0.3766 -0.5499
 4419SOL     OW18194   3.966   9.296   1.752 -0.6230 -0.9055 -0.5729
 4419SOL    HW118195   3.886   9.273   1.800 -0.9029  0.3696 -0.3890
 4419SOL    HW218196   3.936   9.344   1.675 -0.0822 -1.4573 -1.1445
 4420SOL     OW18197  10.867   5.264  11.128  0.3830 -0.2474 -0.4714
 4420SOL    HW118198  10.877   5.339  11.069  0.3691 -0.0831 -0.2638
 4420SOL    HW218199  10.891   5.188  11.074  1.0071 -0.0351 -0.5028
 4421SOL     OW18200   4.805   0.657   3.038  0.0339 -0.3185  0.4559
 4421SOL    HW118201   4.837   0.703   2.961 -0.9300 -0.3130  0.0409
 4421SOL    HW218202   4.732   0.710   3.069 -2.6856 -2.6163 -1.4198
 4422SOL     OW18203   6.299   6.849   5.549  0.1121 -0.6100  0.2574
 4422SOL    HW118204   6.244   6.797   5.608 -1.0200  0.6084  0.3141
 4422SOL    HW218205   6.273   6.823   5.461 -2.5409  1.7872  0.1938
 4423SOL     OW18206   5.223   5.122   8.778  0.0953 -0.2263 -0.3113
 4423SOL    HW118207   5.198   5.184   8.846  1.6886  0.2801 -0.1570
 4423SOL    HW218208   5.147   5.118   8.719 -0.1887  1.5583 -0.1070
 4424SOL     OW18209   9.337  11.168   4.225  0.3904 -0.5389 -0.3073
 4424SOL    HW118210   9.378  11.106   4.286  2.1095  0.9432  0.1282
 4424SOL    HW218211   9.366  11.254   4.255 -2.1797  0.5535 -0.7077
 4425SOL     OW18212   2.992   1.189   6.127  0.0624  0.0330 -0.0231
 4425SOL    HW118213   2.939   1.236   6.063 -1.0242  0.2404  0.9825
 4425SOL    HW218214   2.981   1.240   6.208 -0.4045 -1.4215  0.8642
 4426SOL     OW18215   6.068   2.150   4.802  0.3475  0.3730 -0.0983
 4426SOL    HW118216   5.996   2.135   4.864  0.4878 -1.4956 -0.3353
 4426SOL    HW218217   6.030   2.134   4.716  0.8100  0.3595 -0.3036
 4427SOL     OW18218   8.092  10.164  11.507  0.2650 -0.2960  0.4013
 4427SOL    HW118219   8.036  10.116  11.446 -0.3669 -0.0427  0.7674
 4427SOL    HW218220   8.095  10.253  11.471 -1.7334  0.3980  1.7227
 4428SOL     OW18221  10.337   6.306  10.428  0.4773  0.3798 -0.3714
 4428SOL    HW118222  10.379   6.313  10.342  0.1812  1.1284 -0.4670
 4428SOL    HW218223  10.243   6.310  10.409  0.2909 -1.9098 -0.2138
 4429SOL     OW18224   9.611   0.769  10.298  0.1791  0.7517  0.4245
 4429SOL    HW118225   9.614   0.682  10.339  0.5049  0.6885  0.2671
 4429SOL    HW218226   9.518   0.783  10.280  0.3002 -0.3635 -1.2380
 4430SOL     OW18227   9.425   2.054   4.448 -0.2103 -0.0293 -0.1541
 4430SOL    HW118228   9.500   2.113   4.444 -0.9359  0.8629 -1.6771
 4430SOL    HW218229   9.418   2.029   4.540  1.0531  1.0466  0.2602
 4431SOL     OW18230   4.767   3.590  10.295 -0.0267 -0.6248 -0.3583
 4431SOL    HW118231   4.767   3.546  10.380 -2.2911  1.2200  0.7208
 4431SOL    HW218232   4.793   3.680  10.313 -1.1829 -0.0187 -1.4531
 4432SOL     OW18233   9.605  11.242   4.911 -0.6662 -0.0457  0.4342
 4432SOL    HW118234   9.591  11.333   4.882 -1.5055 -0.7319 -1.4762
 4432SOL    HW218235   9.698  11.239   4.934 -0.5372  1.2114  0.1878
 4433SOL     OW18236   9.330  10.867   2.125  0.3963 -0.0340 -0.0246
 4433SOL    HW118237   9.361  10.777   2.139 -0.2547 -0.2439  0.0905
 4433SOL    HW218238   9.345  10.910   2.209 -0.4374 -0.3814  0.3151
 4434SOL     OW18239   4.416   2.522   4.849  0.0275  0.0107  0.1477
 4434SOL    HW118240   4.366   2.576   4.910  1.5841  1.5833  0.0973
 4434SOL    HW218241   4.391   2.432   4.871 -2.8429  0.6944  0.0638
 4435SOL     OW18242   9.986   4.424   1.077 -0.4770 -0.1417  0.8180
 4435SOL    HW118243   9.998   4.358   1.146 -0.6837  0.8981  1.8875
 4435SOL    HW218244  10.052   4.402   1.011  0.3262 -0.6455  1.7560
 4436SOL     OW18245   3.877   0.200   5.280  0.4948 -0.5044 -0.1960
 4436SOL    HW118246   3.804   0.223   5.223  0.4105 -1.9787 -0.7062
 4436SOL    HW218247   3.892   0.107   5.265  1.8134 -0.4636  0.6680
 4437SOL     OW18248   5.178   6.184   3.901 -0.0945  0.7602  0.2231
 4437SOL    HW118249   5.128   6.104   3.890  2.0493 -0.5366 -0.8871
 4437SOL    HW218250   5.125   6.253   3.860 -2.6029  0.2695  2.3910
 4438SOL     OW18251   1.864   7.246   2.956 -0.1067  0.4482 -0.3962
 4438SOL    HW118252   1.943   7.210   2.997 -0.2218 -2.1280 -2.1484
 4438SOL    HW218253   1.896   7.313   2.896  0.7383 -0.3966 -0.9052
 4439SOL     OW18254   7.914   0.184  11.330  0.2417 -0.1116 -0.0514
 4439SOL    HW118255   7.857   0.161  11.256  0.1576  1.0870 -0.3873
 4439SOL    HW218256   7.922   0.279  11.324  0.8507 -0.0859  1.0471
 4440SOL     OW18257   6.447   8.692   1.032  0.3277  0.1252  0.6392
 4440SOL    HW118258   6.353   8.688   1.048  0.1749 -0.2646 -0.2700
 4440SOL    HW218259   6.458   8.769   0.976  0.5069  0.0011  0.5024
 4441SOL     OW18260   4.698  10.695   2.706  1.0172  0.2111 -0.0250
 4441SOL    HW118261   4.697  10.742   2.622  1.1223  0.6082  0.1922
 4441SOL    HW218262   4.791  10.685   2.727  1.0260 -1.0397 -0.5819
 4442SOL     OW18263   9.066   5.584   0.655  0.7412 -0.1005  0.0941
 4442SOL    HW118264   8.979   5.585   0.695  0.8493 -1.9640  0.4585
 4442SOL    HW218265   9.125   5.561   0.727  1.0377 -2.7443 -0.8940
 4443SOL     OW18266  11.270   4.846   3.985 -0.0020 -0.3557 -0.0904
 4443SOL    HW118267  11.296   4.924   3.936  1.5658 -2.1071 -2.2607
 4443SOL    HW218268  11.350   4.818   4.030 -0.6391 -0.5425  0.9666
 4444SOL     OW18269   4.294   6.977   0.740 -0.2062 -0.3401  0.1722
 4444SOL    HW118270   4.351   7.051   0.719  1.2168 -1.3819  0.2295
 4444SOL    HW218271   4.213   7.017   0.771  0.7952  1.1868  0.9157
 4445SOL     OW18272   8.134   7.766   0.659 -0.7276 -0.1424  0.5045
 4445SOL    HW118273   8.070   7.744   0.726  1.6200 -1.7788  2.4109
 4445SOL    HW218274   8.122   7.859   0.642 -2.7946 -0.1665  1.6146
 4446SOL     OW18275   8.236   4.794  11.539  0.6238  0.1807  0.1181
 4446SOL    HW118276   8.150   4.832  11.558  1.2935  1.1025  1.4819
 4446SOL    HW218277   8.217   4.709  11.501 -0.9054  0.0250  1.1396
 4447SOL     OW18278   7.304   3.074   8.116  0.2917 -0.5052  0.3331
 4447SOL    HW118279   7.270   3.134   8.182  1.0638  0.2397  0.0698
 4447SOL    HW218280   7.230   3.017   8.095 -1.1904  1.8174 -1.1460
 4448SOL     OW18281   0.259   8.554   8.422  0.3450 -0.8249  0.2224
 4448SOL    HW118282   0.237   8.570   8.514  0.4277 -0.9614  0.2657
 4448SOL    HW218283   0.327   8.487   8.425  0.3082 -0.8690  0.0588
 4449SOL     OW18284   6.233   5.263   7.346 -0.1794  0.0090 -0.3684
 4449SOL    HW118285   6.254   5.262   7.439  0.5489 -0.4936 -0.5287
 4449SOL    HW218286   6.218   5.172   7.324 -1.9841  0.2910 -0.4003
 4450SOL     OW18287   1.440   6.660  10.815 -0.4838  0.1353  0.3561
 4450SOL    HW118288   1.503   6.685  10.748 -1.5405  0.7004 -0.4733
 4450SOL    HW218289   1.486   6.672  10.898  0.7734 -0.3444 -0.2605
 4451SOL     OW18290   0.949   0.551   9.430 -0.6733 -0.3578  0.1775
 4451SOL    HW118291   1.010   0.570   9.358 -0.0526 -1.3325  0.4254
 4451SOL    HW218292   0.875   0.610   9.415  0.2300  0.7094 -0.2615
 4452SOL     OW18293   5.229   2.278   2.280 -0.2365  0.0323  0.3347
 4452SOL    HW118294   5.287   2.312   2.212 -0.6768  1.2215  0.5297
 4452SOL    HW218295   5.159   2.235   2.232  0.5175 -0.9389  0.0890
 4453SOL     OW18296   1.320   7.282   9.127 -0.0825 -0.3540  0.1102
 4453SOL    HW118297   1.263   7.241   9.192 -0.4574  1.6960  1.1557
 4453SOL    HW218298   1.401   7.231   9.130 -0.9712 -1.8254  0.3365
 4454SOL     OW18299   9.636   4.149   3.023  0.1069 -0.5954 -0.6018
 4454SOL    HW118300   9.665   4.189   3.105  3.0861 -1.0611 -1.3032
 4454SOL    HW218301   9.589   4.220   2.978  0.2923  0.3315  0.6008
 4455SOL     OW18302   9.527  11.347   7.613  0.1247 -0.2374 -0.7452
 4455SOL    HW118303   9.554  11.422   7.560  0.6102  0.8540  1.0058
 4455SOL    HW218304   9.435  11.364   7.635  0.0294 -0.5181 -0.9117
 4456SOL     OW18305   1.557   2.899   2.718 -0.3854 -0.4970  0.6685
 4456SOL    HW118306   1.573   2.989   2.689 -0.1378 -0.2623  1.5055
 4456SOL    HW218307   1.608   2.845   2.657 -1.1498 -0.1417 -0.3298
 4457SOL     OW18308   8.965   9.443   1.288 -0.7279  0.0173  0.0319
 4457SOL    HW118309   8.921   9.465   1.370  1.0547  2.8715  0.3683
 4457SOL    HW218310   9.045   9.397   1.316  0.5956  2.2322  0.1031
 4458SOL     OW18311   5.286   1.419   2.746  0.6715 -0.5006  0.2011
 4458SOL    HW118312   5.278   1.507   2.711 -0.6635 -0.0814  1.4736
 4458SOL    HW218313   5.380   1.409   2.763  1.1483 -0.1566 -1.9217
 4459SOL     OW18314  10.997   4.836   4.107 -0.2586  0.8752 -0.1114
 4459SOL    HW118315  11.090   4.837   4.129 -0.2517 -0.0739 -0.0337
 4459SOL    HW218316  10.960   4.765   4.160 -0.7028  0.1637 -1.3161
 4460SOL     OW18317   4.910   3.973   7.534  0.5006 -0.9317  0.5120
 4460SOL    HW118318   4.903   3.878   7.533 -1.9850 -0.8444 -1.8787
 4460SOL    HW218319   4.825   4.004   7.504  2.4487  1.8894 -2.8652
 4461SOL     OW18320   2.954  10.109   3.209  0.1854  0.0263  0.5785
 4461SOL    HW118321   2.990  10.184   3.160  1.9959 -0.8393  0.4740
 4461SOL    HW218322   2.872  10.088   3.164  0.2864  1.1627 -0.1828
 4462SOL     OW18323   1.873   3.972   8.164  0.7497 -0.0165 -0.3330
 4462SOL    HW118324   1.818   4.013   8.230  0.6772  0.7470 -0.8511
 4462SOL    HW218325   1.814   3.956   8.090  1.1593  0.6636 -0.8312
 4463SOL     OW18326   6.904   7.384   7.358 -0.7674  0.0582  0.5819
 4463SOL    HW118327   6.922   7.331   7.436 -1.8388  0.5209  1.1642
 4463SOL    HW218328   6.808   7.383   7.350 -0.6670 -1.4157 -1.7377
 4464SOL     OW18329   6.140   3.541   9.251 -0.2931  0.3197  0.5690
 4464SOL    HW118330   6.195   3.467   9.226 -0.9843  0.6841 -2.5057
 4464SOL    HW218331   6.095   3.513   9.330  1.7326 -1.3041  1.2097
 4465SOL     OW18332   4.222  11.464   5.871 -0.0061  0.6476 -0.5144
 4465SOL    HW118333   4.166  11.403   5.823  1.2535 -0.4492 -0.6510
 4465SOL    HW218334   4.172  11.546   5.873 -1.8833 -0.4397 -0.0647
 4466SOL     OW18335  10.047  11.138   5.167  0.1953  0.0969  0.4871
 4466SOL    HW118336  10.064  11.059   5.219 -0.0947  0.0929  0.5802
 4466SOL    HW218337  10.116  11.199   5.192  1.6880 -0.8508 -1.1265
 4467SOL     OW18338   8.683   5.671   3.639 -0.3745  0.4383 -0.6415
 4467SOL    HW118339   8.743   5.710   3.575  0.6269  0.3328  0.1999
 4467SOL    HW218340   8.676   5.579   3.612 -0.3325  0.5000 -0.8680
 4468SOL     OW18341   6.519   2.694   7.174  0.2073 -0.4651 -0.1061
 4468SOL    HW118342   6.429   2.704   7.145  0.4324  0.6391 -0.4865
 4468SOL    HW218343   6.513   2.666   7.265 -0.5099 -0.1444 -0.0548
 4469SOL     OW18344  11.471   4.924   1.952 -0.7772 -0.5097  0.1726
 4469SOL    HW118345  11.541   4.944   1.890 -1.8083  2.0375 -0.2959
 4469SOL    HW218346  11.513   4.869   2.018  1.5590  0.4824 -0.3588
 4470SOL     OW18347   0.555   0.790   9.030  0.5797 -0.5477 -0.0618
 4470SOL    HW118348   0.484   0.806   9.093  0.9696 -1.6176  0.6647
 4470SOL    HW218349   0.618   0.861   9.047  0.3653 -0.4385  0.2838
 4471SOL     OW18350   0.724   7.772  10.021 -0.4757  0.5031 -0.1082
 4471SOL    HW118351   0.709   7.844   9.959 -1.9193  0.5442  0.2627
 4471SOL    HW218352   0.658   7.785  10.089 -0.1137 -0.6194  0.4759
 4472SOL     OW18353   8.330   5.811   6.898  0.2396 -0.1008 -0.5395
 4472SOL    HW118354   8.381   5.871   6.843 -0.0651  0.7110  0.0321
 4472SOL    HW218355   8.394   5.771   6.956  0.5331 -0.8002 -1.3308
 4473SOL     OW18356   2.477   8.084  10.783  0.0500 -0.0069  0.7585
 4473SOL    HW118357   2.417   8.039  10.724  0.6091  1.4964 -1.0825
 4473SOL    HW218358   2.452   8.176  10.777  2.8426  0.7814 -0.5943
 4474SOL     OW18359   1.864   1.267   9.904 -0.1254  0.6645 -0.1850
 4474SOL    HW118360   1.938   1.215   9.873  0.6504  2.1733 -0.9147
 4474SOL    HW218361   1.797   1.257   9.837 -0.0525  0.4572 -0.2263
 4475SOL     OW18362   9.870   4.814   8.082  0.4846  0.5530  0.5683
 4475SOL    HW118363   9.897   4.753   8.151  0.2631 -0.5710 -0.2969
 4475SOL    HW218364   9.932   4.886   8.088  1.9309 -0.6277  0.4660
 4476SOL     OW18365   1.811   4.842   2.909  0.1392 -0.1658 -0.0289
 4476SOL    HW118366   1.789   4.784   2.836 -0.0976  1.0602 -0.9611
 4476SOL    HW218367   1.898   4.813   2.936 -0.2003 -1.3143 -0.0923
 4477SOL     OW18368   3.173   8.079   2.752  0.0281 -0.7518 -0.2395
 4477SOL    HW118369   3.138   8.005   2.703 -0.9972 -1.0940  0.9409
 4477SOL    HW218370   3.136   8.156   2.708 -1.8193 -1.0915  0.6001
 4478SOL     OW18371  10.232  11.334   7.308 -0.0313 -0.3771 -0.4048
 4478SOL    HW118372  10.321  11.314   7.279  0.7230  0.9337  0.8674
 4478SOL    HW218373  10.200  11.252   7.346  1.8203 -0.1364  1.9110
 4479SOL     OW18374   1.768   6.516   7.355 -0.1384 -0.6128  0.1649
 4479SOL    HW118375   1.747   6.424   7.366  1.7129 -0.9194  1.7128
 4479SOL    HW218376   1.764   6.553   7.443 -0.6247  0.7560 -0.3962
 4480SOL     OW18377   5.741   9.733   8.022 -0.3131 -0.2477 -0.0995
 4480SOL    HW118378   5.676   9.702   8.086 -1.7675  0.1716 -1.3011
 4480SOL    HW218379   5.729   9.828   8.020  1.3864  0.0197  0.7028
 4481SOL     OW18380   7.424   2.264   0.691 -0.2132 -0.6385  0.3241
 4481SOL    HW118381   7.517   2.285   0.696  0.1799 -1.5731 -1.7907
 4481SOL    HW218382   7.379   2.339   0.729  1.3911 -0.1127  1.2366
 4482SOL     OW18383   5.270  10.064  10.065  0.1856  0.4082 -0.5920
 4482SOL    HW118384   5.366  10.065  10.064  0.1985  1.7713 -0.2474
 4482SOL    HW218385   5.244  10.111   9.986 -0.1670  1.3325  0.0564
 4483SOL     OW18386   5.046   1.025   2.240  0.3876  0.2004  0.5311
 4483SOL    HW118387   5.081   0.958   2.299 -0.5572 -0.6042  0.1938
 4483SOL    HW218388   5.065   0.991   2.152 -1.4156 -0.3738  0.3330
 4484SOL     OW18389   4.049   2.947  11.082  0.4210 -0.0708 -0.2731
 4484SOL    HW118390   4.118   3.010  11.059  0.3061  0.6717  1.2655
 4484SOL    HW218391   3.985   2.954  11.012 -0.1311  2.3831  0.3868
 4485SOL     OW18392   5.463   9.312   9.879  0.3947 -0.1663  0.1461
 4485SOL    HW118393   5.546   9.304   9.926  0.2738 -0.7811  0.2683
 4485SOL    HW218394   5.480   9.272   9.794 -0.0816 -1.3262  0.5762
 4486SOL     OW18395   9.300   2.050   3.474 -0.1611  0.2458  0.0814
 4486SOL    HW118396   9.289   2.059   3.380  5.0495 -1.3053 -1.0208
 4486SOL    HW218397   9.288   2.139   3.508 -1.2022  1.0148 -2.1427
 4487SOL     OW18398   1.429   8.122   0.488 -0.7951 -0.0306  0.0966
 4487SOL    HW118399   1.519   8.097   0.507 -0.8141 -0.9392 -0.9228
 4487SOL    HW218400   1.423   8.214   0.513  0.4162  0.0411  0.1478
 4488SOL     OW18401   8.658   5.638   9.674  0.0713 -0.4233 -0.6539
 4488SOL    HW118402   8.735   5.684   9.707  0.8321 -0.8031 -1.8332
 4488SOL    HW218403   8.587   5.702   9.682  0.1786 -0.5178  1.6900
 4489SOL     OW18404   5.708   7.493   5.620 -0.4518  0.5802  0.5286
 4489SOL    HW118405   5.704   7.463   5.529 -0.3390 -1.0319  1.0079
 4489SOL    HW218406   5.616   7.512   5.642 -0.4455  1.2474  0.0070
 4490SOL     OW18407   2.646   6.692  10.121 -0.2208  0.3395  0.3769
 4490SOL    HW118408   2.632   6.774  10.074 -1.3948  0.7691  1.4390
 4490SOL    HW218409   2.623   6.711  10.212  0.4875 -0.8904  0.8451
 4491SOL     OW18410   0.307   5.621   9.087 -0.4958  0.7066  0.1447
 4491SOL    HW118411   0.301   5.714   9.111 -1.2647  0.4842  0.8614
 4491SOL    HW218412   0.321   5.622   8.993  3.0335  1.6273  0.5265
 4492SOL     OW18413   1.683  11.069   4.270  0.4700 -1.3941 -0.0512
 4492SOL    HW118414   1.624  10.998   4.295 -0.9976 -0.1821  0.0410
 4492SOL    HW218415   1.662  11.086   4.178  0.9699 -1.2049 -0.1347
 4493SOL     OW18416   6.336  11.326   4.613 -0.3592  0.0229  0.2752
 4493SOL    HW118417   6.315  11.304   4.704  1.8627  0.0371  0.8752
 4493SOL    HW218418   6.363  11.243   4.574 -0.2983  0.1923 -0.0455
 4494SOL     OW18419  10.692   5.773   8.244  0.3118 -0.2440 -0.0905
 4494SOL    HW118420  10.600   5.797   8.245  0.0300 -1.2367 -0.3801
 4494SOL    HW218421  10.739   5.854   8.262 -0.5562  0.5802 -1.3632
 4495SOL     OW18422   2.298   4.591   2.915 -0.5761 -0.0594 -0.2644
 4495SOL    HW118423   2.352   4.574   2.993 -1.1219  0.3986  0.2293
 4495SOL    HW218424   2.284   4.505   2.876 -0.2131 -0.2865  0.0923
 4496SOL     OW18425   9.062   9.504  10.506  0.0456  0.0954 -0.5519
 4496SOL    HW118426   9.146   9.489  10.548  1.6958  1.3091 -3.1265
 4496SOL    HW218427   9.013   9.559  10.567  1.7781  0.7089  0.3339
 4497SOL     OW18428   5.538   4.828  10.542  0.7729  0.3530 -0.4119
 4497SOL    HW118429   5.552   4.919  10.570  0.2872  0.3760 -0.2414
 4497SOL    HW218430   5.444   4.814  10.552  1.0590 -0.6953  1.1869
 4498SOL     OW18431   0.214   1.331   0.625  0.0535 -0.0223  0.0994
 4498SOL    HW118432   0.204   1.397   0.693 -0.1356 -1.3926  1.4572
 4498SOL    HW218433   0.225   1.249   0.673 -1.3239 -1.2220 -1.5029
 4499SOL     OW18434  10.548   5.974   5.387 -0.0918 -0.1380  0.3282
 4499SOL    HW118435  10.598   5.928   5.320  1.4863 -0.8993  1.9678
 4499SOL    HW218436  10.550   5.916   5.463 -2.4769  0.3632  0.8446
 4500SOL     OW18437   7.736  11.495   4.751  0.5246 -0.2640  0.2758
 4500SOL    HW118438   7.759  11.522   4.662 -0.3215 -1.6028 -0.3827
 4500SOL    HW218439   7.648  11.532   4.766  0.3351 -0.6916  0.2438
 4501SOL     OW18440  11.448   6.931   7.777  0.0101 -0.6558 -0.2699
 4501SOL    HW118441  11.526   6.916   7.723  0.8116  0.3735  0.5485
 4501SOL    HW218442  11.403   7.003   7.733 -1.5329 -2.4456 -1.7911
 4502SOL     OW18443  11.658   1.258   2.321 -0.0451 -0.2664  0.4825
 4502SOL    HW118444  11.731   1.291   2.268  2.0741 -2.0739  2.0527
 4502SOL    HW218445  11.649   1.323   2.391  0.7410 -0.4878  0.8060
 4503SOL     OW18446   0.198   1.587   2.234 -0.0942  0.1085  0.0471
 4503SOL    HW118447   0.230   1.653   2.296 -0.7512 -1.0978  1.7497
 4503SOL    HW218448   0.110   1.618   2.210 -0.8071 -0.6039  1.6217
 4504SOL     OW18449   8.399   8.959   9.713 -0.2101  0.6695 -0.3420
 4504SOL    HW118450   8.456   9.028   9.748  0.8743 -0.7758  0.8972
 4504SOL    HW218451   8.383   8.984   9.623  0.8296  2.1206 -0.1574
 4505SOL     OW18452   0.785   3.019   0.931 -0.5554 -0.6763 -0.0775
 4505SOL    HW118453   0.726   2.958   0.976 -1.3304 -0.4069 -0.7034
 4505SOL    HW218454   0.728   3.069   0.872  0.1459  0.2903  0.0317
 4506SOL     OW18455   9.045   1.919   1.565  0.1037 -0.4344 -0.0976
 4506SOL    HW118456   8.985   1.849   1.591 -0.8114  0.0415 -0.8617
 4506SOL    HW218457   9.032   1.928   1.470  0.2793  0.6867 -0.0336
 4507SOL     OW18458   9.308   3.312   6.866  0.0455 -0.4725 -0.4998
 4507SOL    HW118459   9.315   3.356   6.781  1.5560 -0.3900 -0.3639
 4507SOL    HW218460   9.318   3.219   6.845 -1.7150 -0.6733 -0.6215
 4508SOL     OW18461   3.059   2.372   2.370 -0.3513  0.6528 -0.0417
 4508SOL    HW118462   3.080   2.456   2.329  1.5993  1.4409  2.3184
 4508SOL    HW218463   2.975   2.388   2.414 -1.3713  0.4501 -1.8214
 4509SOL     OW18464   3.867   7.587   8.365 -0.2557  0.1189 -0.7742
 4509SOL    HW118465   3.790   7.616   8.414 -0.4913  1.0194 -1.6467
 4509SOL    HW218466   3.894   7.505   8.408 -1.9587 -0.4517 -0.7489
 4510SOL     OW18467   5.410   9.805  11.658  0.4849 -0.2513  0.3985
 4510SOL    HW118468   5.487   9.832  11.607 -0.2408  1.4001  0.1054
 4510SOL    HW218469   5.369   9.738  11.604  2.1199 -1.7462  0.9340
 4511SOL     OW18470   6.602   6.424   0.297 -0.5165  0.1644 -0.4170
 4511SOL    HW118471   6.527   6.463   0.253  0.4417 -0.1547 -2.4418
 4511SOL    HW218472   6.675   6.482   0.276 -0.0779  0.1839  1.0729
 4512SOL     OW18473   0.541  10.737   7.754 -0.3562  0.1012 -0.2863
 4512SOL    HW118474   0.498  10.657   7.784 -1.0586  0.2865 -0.7669
 4512SOL    HW218475   0.588  10.770   7.830 -1.1518 -0.0552  0.2800
 4513SOL     OW18476   1.084  10.605   9.403  0.2550  0.2892  0.4441
 4513SOL    HW118477   1.020  10.538   9.379  0.6815  0.2432 -0.6186
 4513SOL    HW218478   1.068  10.621   9.496 -0.8430 -0.2085  0.3598
 4514SOL     OW18479   3.369   3.998   0.163  0.1514 -0.1927  0.4457
 4514SOL    HW118480   3.318   4.047   0.098 -0.7266 -0.8018  0.6545
 4514SOL    HW218481   3.457   4.034   0.157  0.6467 -1.5958 -2.5350
 4515SOL     OW18482   3.123  11.090  11.378  0.4009 -0.7299  0.5370
 4515SOL    HW118483   3.053  11.028  11.356  0.4497 -0.7924  0.5618
 4515SOL    HW218484   3.146  11.131  11.295  1.0036 -1.3963  0.3660
 4516SOL     OW18485  11.581  10.253   9.838 -0.5153  0.1259 -0.1087
 4516SOL    HW118486  11.543  10.269   9.924 -0.5428 -0.4794 -0.0066
 4516SOL    HW218487  11.598  10.159   9.836 -0.4897  0.1405 -0.7524
 4517SOL     OW18488   9.043   3.350   5.054 -0.7175  0.1382 -0.6979
 4517SOL    HW118489   9.013   3.434   5.089 -1.7718 -0.3882 -0.2765
 4517SOL    HW218490   9.064   3.368   4.963  0.0235  1.0686 -0.3536
 4518SOL     OW18491   8.284   2.180   6.618 -0.0439 -0.3349 -0.2814
 4518SOL    HW118492   8.189   2.179   6.631 -0.3825 -0.6200 -2.3960
 4518SOL    HW218493   8.318   2.229   6.693 -2.0609  1.5934 -0.5193
 4519SOL     OW18494   6.238   6.081   1.824  0.3307 -0.7251  0.0160
 4519SOL    HW118495   6.152   6.072   1.784 -0.0482  1.6518  0.1754
 4519SOL    HW218496   6.296   6.028   1.770 -1.0358 -1.5130 -0.7111
 4520SOL     OW18497   4.580   2.589   9.911  0.4228  0.0294  0.2194
 4520SOL    HW118498   4.649   2.533   9.946  1.8866  1.7562  0.2819
 4520SOL    HW218499   4.550   2.639   9.987  0.6849  0.8380 -0.1945
 4521SOL     OW18500   1.451   3.679   1.220  0.4942 -0.3808 -0.0264
 4521SOL    HW118501   1.484   3.598   1.260 -1.1039 -1.0862 -0.0741
 4521SOL    HW218502   1.435   3.656   1.129  3.3581  1.0051 -1.0147
 4522SOL     OW18503   2.359   1.206   4.869 -0.1916  0.6231 -0.0833
 4522SOL    HW118504   2.362   1.301   4.863 -2.0629  0.6637 -1.1651
 4522SOL    HW218505   2.267   1.186   4.890  0.4675 -0.9044  1.6421
 4523SOL     OW18506   5.648  10.999   1.143 -0.5159  0.0255 -0.8124
 4523SOL    HW118507   5.740  11.019   1.129 -0.1416 -0.5959  0.5770
 4523SOL    HW218508   5.621  11.057   1.214 -1.0479 -0.1873 -0.8330
 4524SOL     OW18509   2.870   2.076   1.168 -0.2684  0.1142 -0.4430
 4524SOL    HW118510   2.924   2.155   1.173  0.2371 -0.2813  3.2178
 4524SOL    HW218511   2.924   2.012   1.121  0.4194  1.1230 -1.0607
 4525SOL     OW18512   4.534   9.186  10.719  0.3038  0.4525 -0.5088
 4525SOL    HW118513   4.455   9.152  10.761  0.6206  0.3510  0.0261
 4525SOL    HW218514   4.508   9.270  10.683 -0.2841  0.0075 -1.1479
 4526SOL     OW18515  10.435   5.534   0.102  0.1211  0.3636 -0.4220
 4526SOL    HW118516  10.449   5.611   0.046  0.5090  0.6116  0.0135
 4526SOL    HW218517  10.370   5.482   0.054  0.5887  0.4771 -1.2029
 4527SOL     OW18518   5.172  10.052   6.060  0.0346  0.5712  0.0117
 4527SOL    HW118519   5.083  10.038   6.027  0.3808 -0.0499 -0.6752
 4527SOL    HW218520   5.160  10.098   6.143 -0.9593 -0.2360  0.3283
 4528SOL     OW18521   9.404   3.204   9.500 -0.1158  0.0761 -0.4236
 4528SOL    HW118522   9.334   3.268   9.515 -0.7033 -0.1622 -1.9706
 4528SOL    HW218523   9.399   3.184   9.406  2.5965  0.7159 -0.7992
 4529SOL     OW18524   6.837   1.138  10.256  0.3332 -0.1515  0.2584
 4529SOL    HW118525   6.766   1.202  10.256 -1.2982 -1.8566 -0.9366
 4529SOL    HW218526   6.808   1.071  10.317  1.7925 -0.0453  1.1185
 4530SOL     OW18527   8.776   2.606   3.197 -0.3812  0.1385 -0.0524
 4530SOL    HW118528   8.772   2.688   3.246  1.2777 -0.8382  1.8468
 4530SOL    HW218529   8.860   2.608   3.152 -1.1062  0.2195 -1.4661
 4531SOL     OW18530   5.445   4.475  10.422  1.0519 -0.1996  0.5380
 4531SOL    HW118531   5.472   4.464  10.513  1.1119 -1.6391  0.3684
 4531SOL    HW218532   5.455   4.388  10.383  1.0522  0.3976 -0.8572
 4532SOL     OW18533   2.856   0.382   7.084  0.2559 -0.0990 -0.8690
 4532SOL    HW118534   2.828   0.291   7.084 -1.2015  0.2234  2.2215
 4532SOL    HW218535   2.938   0.383   7.133  0.3982  0.1992 -1.1094
 4533SOL     OW18536   7.998   2.435  10.165  0.4006  0.1963  0.1807
 4533SOL    HW118537   7.943   2.491  10.110  0.6145  1.5365  1.3057
 4533SOL    HW218538   8.051   2.495  10.217  1.4362 -1.0593  0.6371
 4534SOL     OW18539   8.339   4.805   4.445  0.1813 -0.8835 -0.2432
 4534SOL    HW118540   8.414   4.759   4.407  0.1076 -1.5233  0.3671
 4534SOL    HW218541   8.351   4.798   4.540  0.8699  1.5298 -0.0774
 4535SOL     OW18542   3.574   8.844   9.977 -0.4804 -0.5983  0.1460
 4535SOL    HW118543   3.648   8.796  10.015 -0.9102 -1.3411  0.0584
 4535SOL    HW218544   3.560   8.804   9.892 -1.2963 -0.7914  0.3640
 4536SOL     OW18545   6.537   8.536  10.687 -0.1708  0.1512  0.0604
 4536SOL    HW118546   6.510   8.596  10.756  2.7026 -0.2667  1.7424
 4536SOL    HW218547   6.624   8.568  10.660  0.3204 -1.7541 -0.8144
 4537SOL     OW18548   1.190   0.419  10.264  0.1679  0.3591  0.0863
 4537SOL    HW118549   1.260   0.402  10.327  1.6163 -0.9587 -1.7899
 4537SOL    HW218550   1.116   0.368  10.296  1.1404 -0.9559  0.3175
 4538SOL     OW18551   9.425   2.148  10.750 -0.0241 -0.5318  0.0952
 4538SOL    HW118552   9.363   2.134  10.679  0.4055 -1.9908 -0.0161
 4538SOL    HW218553   9.386   2.219  10.801 -0.6822  0.0742 -1.1896
 4539SOL     OW18554  10.301   1.132  10.090 -0.2831  0.4144 -0.7212
 4539SOL    HW118555  10.244   1.099  10.159 -1.2035  0.5640 -1.4025
 4539SOL    HW218556  10.328   1.054  10.042  1.5406  0.1347  0.6546
 4540SOL     OW18557   6.974   3.943   7.993  0.1655 -0.0807 -0.1882
 4540SOL    HW118558   7.056   3.983   7.963  1.0198 -0.3539  1.5764
 4540SOL    HW218559   6.948   3.996   8.069 -0.0042 -1.3585  0.6878
 4541SOL     OW18560   2.041   1.562   8.345 -0.2075 -0.0466  0.0820
 4541SOL    HW118561   1.999   1.631   8.396 -1.4470 -0.3822 -0.4378
 4541SOL    HW218562   1.985   1.554   8.267  0.7747 -0.5960 -0.5801
 4542SOL     OW18563  11.426   9.293   5.366  0.0901 -0.3203  0.3842
 4542SOL    HW118564  11.439   9.338   5.283 -3.0583  0.7512  0.3580
 4542SOL    HW218565  11.408   9.202   5.342  2.3157 -0.7548  0.1729
 4543SOL     OW18566   2.966   7.491   3.356 -0.4878  0.1063 -0.3726
 4543SOL    HW118567   2.931   7.413   3.400  2.9665 -1.6824 -0.4683
 4543SOL    HW218568   3.005   7.543   3.426 -1.5000  1.0754 -0.5005
 4544SOL     OW18569   4.418   6.720  11.231 -0.4291 -0.3231 -0.0460
 4544SOL    HW118570   4.389   6.790  11.290 -1.2871 -0.7672  0.0728
 4544SOL    HW218571   4.375   6.739  11.148 -0.4303 -0.5356 -0.0950
 4545SOL     OW18572   9.972   4.236   6.726 -0.1877 -0.2567  0.2893
 4545SOL    HW118573  10.004   4.201   6.643 -1.4530 -1.0445  0.0945
 4545SOL    HW218574  10.008   4.325   6.731 -0.9610  0.2128 -1.6399
 4546SOL     OW18575   4.575   7.074   3.014  0.6990 -0.1694 -0.4341
 4546SOL    HW118576   4.642   7.104   3.075  0.3806  1.5896 -0.9013
 4546SOL    HW218577   4.494   7.077   3.065  0.8139 -1.4244 -0.1395
 4547SOL     OW18578   5.691  11.414  10.146  0.5069  0.2551  0.2369
 4547SOL    HW118579   5.612  11.468  10.144 -1.0622 -1.7354  2.6880
 4547SOL    HW218580   5.746  11.453  10.214 -0.8001 -1.2802  2.2893
 4548SOL     OW18581   1.290   3.468  11.432  0.2576  0.5129 -0.2821
 4548SOL    HW118582   1.352   3.537  11.454 -0.1399  0.8479 -0.1896
 4548SOL    HW218583   1.297   3.405  11.503  1.7547 -0.3479 -1.1375
 4549SOL     OW18584   7.595  10.530   3.529 -0.0929  0.1836 -0.5151
 4549SOL    HW118585   7.639  10.614   3.545  0.6093  0.1576 -2.1513
 4549SOL    HW218586   7.576  10.530   3.435 -1.3034 -0.9230 -0.2991
 4550SOL     OW18587   3.763   7.543   7.383  0.0643  0.2805 -0.3003
 4550SOL    HW118588   3.671   7.568   7.393 -0.3005 -0.5432 -1.3225
 4550SOL    HW218589   3.806   7.622   7.349 -0.2865  0.6239  0.0389
 4551SOL     OW18590   9.292  10.272   7.916  0.2933 -0.1886  0.1319
 4551SOL    HW118591   9.216  10.214   7.923 -0.2625  0.6845  2.5187
 4551SOL    HW218592   9.255  10.356   7.887  0.6464 -0.2177 -0.4305
 4552SOL     OW18593  10.961   7.805   5.923  0.4877 -0.2902 -0.1521
 4552SOL    HW118594  10.962   7.782   6.016 -1.5342 -0.1809 -0.0422
 4552SOL    HW218595  10.869   7.794   5.898  1.0208 -0.4383 -2.1771
 4553SOL     OW18596   9.748   2.111   0.470 -0.1579  0.1210 -0.0135
 4553SOL    HW118597   9.812   2.143   0.406  0.9033 -1.3339  0.2847
 4553SOL    HW218598   9.702   2.190   0.499  1.1918  1.1413 -0.5705
 4554SOL     OW18599   7.932   3.381   9.731 -0.0307  0.2515  0.1586
 4554SOL    HW118600   8.019   3.348   9.712  0.2181  1.2090 -0.4679
 4554SOL    HW218601   7.947   3.462   9.780 -0.5745  0.3039  0.2470
 4555SOL     OW18602   5.592   6.330   4.327  0.0694  0.1038  0.5939
 4555SOL    HW118603   5.526   6.360   4.389 -1.0005 -1.7033  0.4108
 4555SOL    HW218604   5.558   6.246   4.295  0.6065  0.9182 -2.3887
 4556SOL     OW18605  10.594   8.156   5.385  0.0293  0.5562 -0.2764
 4556SOL    HW118606  10.526   8.217   5.356 -1.6938 -0.9152  0.5206
 4556SOL    HW218607  10.657   8.155   5.313 -0.0705  2.9461 -0.4821
 4557SOL     OW18608   2.204   1.655   6.923 -0.1258 -0.0955  0.0227
 4557SOL    HW118609   2.224   1.690   7.009 -1.0798 -0.7946  0.5550
 4557SOL    HW218610   2.273   1.689   6.866  1.5120 -1.0302  1.3863
 4558SOL     OW18611   2.041   4.979   2.379 -0.1631  0.0249  0.2622
 4558SOL    HW118612   2.003   4.911   2.323 -0.2619  0.8054 -0.6407
 4558SOL    HW218613   2.127   4.997   2.340 -0.1776  0.4827  0.4308
 4559SOL     OW18614   8.177   4.588   6.860 -0.3561  0.1239  0.2531
 4559SOL    HW118615   8.227   4.669   6.863  0.1822 -0.0544 -1.9292
 4559SOL    HW218616   8.101   4.609   6.805 -2.1914  0.0766  2.5776
 4560SOL     OW18617   7.300  10.255   7.899  0.1167  0.4685 -0.8231
 4560SOL    HW118618   7.377  10.210   7.866  0.0394 -0.1517 -0.1855
 4560SOL    HW218619   7.291  10.332   7.843  1.9809  1.2985 -0.0612
 4561SOL     OW18620   4.708   5.563   7.760 -0.1965  0.3463  0.0963
 4561SOL    HW118621   4.768   5.592   7.829 -0.5526  1.9364 -0.2232
 4561SOL    HW218622   4.698   5.640   7.703 -2.6959  0.2409  0.2662
 4562SOL     OW18623  10.990  11.231   9.387 -0.2767  0.3889  0.4795
 4562SOL    HW118624  10.933  11.155   9.403  0.8627 -0.3236  1.3194
 4562SOL    HW218625  10.934  11.307   9.403 -1.4627 -0.2505 -0.4542
 4563SOL     OW18626   7.483  10.795   0.967 -0.3144  0.0957 -0.6525
 4563SOL    HW118627   7.477  10.891   0.967  2.5481  0.4230  1.4413
 4563SOL    HW218628   7.531  10.774   0.887 -1.5821  0.2803 -1.4955
 4564SOL     OW18629   1.584   8.423   8.689  0.4568 -0.2339 -0.4755
 4564SOL    HW118630   1.526   8.367   8.740  0.6530 -0.1938 -0.2020
 4564SOL    HW218631   1.545   8.510   8.695 -0.1024 -0.4186 -1.2876
 4565SOL     OW18632  10.504   7.550   5.733 -0.3547  0.4759  0.4679
 4565SOL    HW118633  10.592   7.525   5.706 -0.6824  0.8073 -0.9646
 4565SOL    HW218634  10.503   7.645   5.732 -0.4464  0.4971  1.4650
 4566SOL     OW18635   2.384   4.011   3.254  0.0978  0.5463  0.2418
 4566SOL    HW118636   2.346   4.024   3.341  2.1589  1.6387  1.0487
 4566SOL    HW218637   2.471   4.049   3.260  0.2500  0.8016 -2.3790
 4567SOL     OW18638   6.628   4.302   1.168  0.0650 -0.1455 -0.4771
 4567SOL    HW118639   6.570   4.276   1.096  0.3516 -0.6535 -0.5324
 4567SOL    HW218640   6.603   4.244   1.240  0.3064 -0.1697 -0.4133
 4568SOL     OW18641   1.763   0.131   9.057 -0.2181 -0.1013 -0.5968
 4568SOL    HW118642   1.814   0.096   9.129 -1.0427 -2.3541 -1.0292
 4568SOL    HW218643   1.710   0.201   9.097  0.4221 -0.3028  0.6408
 4569SOL     OW18644   5.180   7.487   6.516 -0.2283 -0.2177 -0.1189
 4569SOL    HW118645   5.209   7.561   6.569  1.4315 -2.0101  1.5976
 4569SOL    HW218646   5.155   7.527   6.432  0.4892  2.2760  0.7573
 4570SOL     OW18647   8.756  11.183   4.970 -0.1405 -0.1204  0.8405
 4570SOL    HW118648   8.681  11.209   5.023 -0.9770  0.6664 -0.6588
 4570SOL    HW218649   8.830  11.186   5.030 -1.0311  0.8126  1.9407
 4571SOL     OW18650   1.367  11.108   2.681 -0.1182  0.6862 -0.2621
 4571SOL    HW118651   1.391  11.115   2.588 -0.5520 -3.5995 -0.9297
 4571SOL    HW218652   1.450  11.121   2.728  0.3210  1.8293 -1.3023
 4572SOL     OW18653  11.187   8.911   9.645 -0.1094 -0.4820  0.3235
 4572SOL    HW118654  11.107   8.963   9.636  1.2492  1.6096 -0.3701
 4572SOL    HW218655  11.203   8.876   9.557 -0.1861 -0.7749  0.4262
 4573SOL     OW18656   1.054   3.224   9.520  0.3309 -0.4353  0.2009
 4573SOL    HW118657   0.999   3.155   9.558  2.7831 -2.4093  0.4498
 4573SOL    HW218658   1.023   3.232   9.430 -0.2225 -1.6722  0.2497
 4574SOL     OW18659   7.917   6.025   7.162 -0.6685 -0.6020 -0.5304
 4574SOL    HW118660   7.978   5.954   7.145  0.3524  0.1965 -0.2958
 4574SOL    HW218661   7.879   6.045   7.077 -1.5820 -1.9409 -0.4753
 4575SOL     OW18662   4.893  11.510  11.666  0.1541 -0.1787 -0.3243
 4575SOL    HW118663   4.924  11.437  11.611  0.8378 -0.1142 -0.0253
 4575SOL    HW218664   4.859  11.467  11.744 -1.1870 -0.2994 -0.9413
 4576SOL     OW18665   7.147   1.660   7.426  0.2994 -0.6265  0.8686
 4576SOL    HW118666   7.157   1.746   7.468  2.0296  1.5915 -3.4322
 4576SOL    HW218667   7.232   1.618   7.439  2.5263  1.8564 -3.3303
 4577SOL     OW18668   0.582   0.024   1.895 -0.4893 -0.2450 -0.1376
 4577SOL    HW118669   0.612   0.014   1.985 -0.3817  2.8787  0.2643
 4577SOL    HW218670   0.655  -0.008   1.842  0.4112  0.0595  0.8739
 4578SOL     OW18671  11.463   6.191   0.411  0.1757  0.1244  0.3438
 4578SOL    HW118672  11.552   6.204   0.377 -0.3826  1.3612 -0.6976
 4578SOL    HW218673  11.407   6.238   0.350 -1.4017 -2.0414  0.0229
 4579SOL     OW18674   6.566   3.042   4.651 -0.6198  1.3634  0.0902
 4579SOL    HW118675   6.580   3.136   4.637  2.1166  0.9412 -0.5169
 4579SOL    HW218676   6.557   3.005   4.563  0.9370  0.7701  0.1405
 4580SOL     OW18677   8.201   4.301   0.682  0.0651  0.5549 -0.5010
 4580SOL    HW118678   8.156   4.292   0.766  0.1095  1.4572 -0.3714
 4580SOL    HW218679   8.276   4.357   0.701  0.6557 -0.0653 -0.9373
 4581SOL     OW18680   9.327   9.211   9.175  0.2171 -0.0385 -0.1614
 4581SOL    HW118681   9.259   9.183   9.237 -0.2145 -0.7607 -0.9493
 4581SOL    HW218682   9.402   9.155   9.196  0.2447  0.0712  0.0417
 4582SOL     OW18683   9.714   6.644   4.029  0.6635  0.5734  0.3151
 4582SOL    HW118684   9.761   6.650   3.946  0.5945  1.0502  0.3076
 4582SOL    HW218685   9.782   6.654   4.096  0.5113  1.9091  0.3026
 4583SOL     OW18686   5.501   9.869  10.772  0.0803  0.2888 -0.5992
 4583SOL    HW118687   5.593   9.887  10.752  0.6981 -0.6755  1.1438
 4583SOL    HW218688   5.484   9.783  10.732  0.4907 -0.3460  0.5387
 4584SOL     OW18689   3.448   7.846   2.421 -0.1431 -0.5069  0.1396
 4584SOL    HW118690   3.429   7.905   2.493  0.7332 -0.3840  0.2818
 4584SOL    HW218691   3.540   7.821   2.434  0.2804  0.1497 -1.3661
 4585SOL     OW18692   8.991   1.070   2.836  0.1552 -0.9461 -0.1705
 4585SOL    HW118693   8.965   1.162   2.848  2.3379  0.1624 -2.8812
 4585SOL    HW218694   9.038   1.048   2.916  0.6052  0.7183  0.0704
 4586SOL     OW18695   9.560   3.413   4.496 -0.4521 -0.1358 -0.0095
 4586SOL    HW118696   9.511   3.361   4.433 -0.8275  0.9245 -0.6066
 4586SOL    HW218697   9.647   3.425   4.457 -1.0142  1.4168 -0.8463
 4587SOL     OW18698  10.808   5.538   0.732  0.7741 -0.4509  0.4289
 4587SOL    HW118699  10.772   5.451   0.717  1.7235 -0.8897  0.6831
 4587SOL    HW218700  10.782   5.588   0.654 -1.7826 -0.2685  1.3014
 4588SOL     OW18701   2.183   2.780  11.245  0.0976 -0.1312  0.3375
 4588SOL    HW118702   2.193   2.874  11.235 -1.1229 -0.0899 -0.8596
 4588SOL    HW218703   2.264   2.743  11.212 -0.7201  0.4033 -2.5680
 4589SOL     OW18704   6.505   8.060  11.531 -0.4896  0.1544 -0.3034
 4589SOL    HW118705   6.531   8.038  11.441  0.9928 -1.2941  0.4405
 4589SOL    HW218706   6.522   8.154  11.538  0.4260  0.0766 -1.2046
 4590SOL     OW18707   2.992   8.949   0.072  0.4804 -0.0475 -0.1531
 4590SOL    HW118708   3.035   8.993   0.146  0.3538  1.9914 -1.2270
 4590SOL    HW218709   3.063   8.923   0.015  0.4439  1.8435 -1.1289
 4591SOL     OW18710   0.681   5.083   8.511  0.3183  0.2760 -0.0994
 4591SOL    HW118711   0.691   5.178   8.519 -1.1257  0.4343  0.2035
 4591SOL    HW218712   0.589   5.071   8.485  1.1029 -0.9273 -2.6879
 4592SOL     OW18713   2.391   8.956  11.361 -0.2098  0.1229  0.9913
 4592SOL    HW118714   2.425   9.037  11.400 -0.2515  0.8238 -0.3582
 4592SOL    HW218715   2.460   8.891  11.375  1.4288  1.3074 -1.0028
 4593SOL     OW18716   5.031   1.101   7.888  0.2945 -0.4245 -0.2470
 4593SOL    HW118717   5.027   1.172   7.952 -0.0360 -0.6296 -0.0296
 4593SOL    HW218718   5.043   1.144   7.804 -0.4407 -0.0740 -0.1787
 4594SOL     OW18719   1.119  11.131   0.814  0.3005 -0.1025  0.3316
 4594SOL    HW118720   1.103  11.041   0.786  1.2773 -0.3529  0.5356
 4594SOL    HW218721   1.059  11.184   0.763 -0.4584 -0.8980  0.3853
 4595SOL     OW18722  11.576   3.451   2.996  0.2899 -0.0578 -0.2831
 4595SOL    HW118723  11.605   3.371   3.039  1.1790  0.4601  0.1033
 4595SOL    HW218724  11.657   3.498   2.974 -0.2062  0.5886 -0.7803
 4596SOL     OW18725   9.307   7.823   4.682 -0.3144  0.2450 -0.3005
 4596SOL    HW118726   9.379   7.761   4.672  0.2324  0.7710  0.2902
 4596SOL    HW218727   9.237   7.787   4.628  0.8402  0.4289 -2.0137
 4597SOL     OW18728  10.069   8.641   4.426 -0.1183 -0.1528  0.2946
 4597SOL    HW118729  10.055   8.622   4.519 -1.2011 -1.2934 -0.0674
 4597SOL    HW218730  10.133   8.575   4.398 -1.7290 -1.5338 -0.3156
 4598SOL     OW18731   6.427   8.696   1.679 -0.1355 -0.0144 -0.0066
 4598SOL    HW118732   6.403   8.664   1.766  0.5444  2.7692  1.3192
 4598SOL    HW218733   6.523   8.688   1.677 -0.1152  0.3258 -0.3269
 4599SOL     OW18734  11.127   9.053   1.586 -0.2625  0.2034  0.0987
 4599SOL    HW118735  11.037   9.041   1.556 -0.4223 -0.1206  0.6744
 4599SOL    HW218736  11.132   9.144   1.613 -0.2315  0.3893 -0.5258
 4600SOL     OW18737   1.976   4.631   1.623  0.1514 -0.2586  0.1950
 4600SOL    HW118738   2.000   4.721   1.644 -2.3548  0.7487 -0.8601
 4600SOL    HW218739   2.028   4.609   1.546  0.4183  0.4912  0.1550
 4601SOL     OW18740   2.554   4.932   4.940 -0.9001 -0.3826 -0.2148
 4601SOL    HW118741   2.592   5.003   4.993 -0.9713 -0.6122  0.1461
 4601SOL    HW218742   2.606   4.932   4.860  0.3035 -1.1315  0.5441
 4602SOL     OW18743   4.603   3.899   7.269 -0.1879  0.2382 -0.0405
 4602SOL    HW118744   4.614   3.951   7.190 -0.7601 -0.0774 -0.3325
 4602SOL    HW218745   4.569   3.815   7.239  1.3591 -0.5665  0.3605
 4603SOL     OW18746   1.860   2.522   7.780 -0.1054 -1.0786 -0.6961
 4603SOL    HW118747   1.921   2.577   7.830 -0.1552  0.9137 -2.6827
 4603SOL    HW218748   1.784   2.512   7.837  0.7384 -0.8018  0.5102
 4604SOL     OW18749   2.115   9.987   2.024 -0.0967  0.1535 -0.0885
 4604SOL    HW118750   2.171   9.912   2.005 -0.8315 -0.5312  0.3778
 4604SOL    HW218751   2.090  10.021   1.938  0.7077  0.2162 -0.2979
 4605SOL     OW18752   4.941  10.428   1.398 -0.4158 -0.0688  0.0289
 4605SOL    HW118753   4.938  10.441   1.303 -1.5453 -2.1429 -0.2887
 4605SOL    HW218754   5.031  10.452   1.422 -0.7272  2.6574 -1.1492
 4606SOL     OW18755   0.426  10.488   4.856  0.3789 -0.7388 -0.0996
 4606SOL    HW118756   0.350  10.503   4.911  0.2279  0.9014 -0.6814
 4606SOL    HW218757   0.496  10.463   4.917 -0.2354 -0.7154  0.6241
 4607SOL     OW18758   8.828   5.014   1.877  0.4861  0.2568  0.0496
 4607SOL    HW118759   8.739   4.998   1.846  0.8115 -0.0068 -0.7748
 4607SOL    HW218760   8.817   5.070   1.954 -0.5169 -1.4432  1.2202
 4608SOL     OW18761  10.975   9.199   7.142 -0.1492  0.4447  0.1270
 4608SOL    HW118762  10.952   9.267   7.078  1.1540  1.3656  0.5993
 4608SOL    HW218763  10.952   9.117   7.098  0.4200  1.0707 -1.4135
 4609SOL     OW18764   9.121   1.658   1.734 -0.1879 -0.3873  0.5054
 4609SOL    HW118765   9.176   1.596   1.684  1.4630  0.3539  1.3304
 4609SOL    HW218766   9.037   1.612   1.744  0.6653 -2.0964  0.2663
 4610SOL     OW18767   3.525   9.608   8.113 -0.3725 -0.0425  0.6463
 4610SOL    HW118768   3.481   9.569   8.189 -0.4133  1.7726  1.6092
 4610SOL    HW218769   3.601   9.653   8.150 -0.1017  0.4434 -0.4562
 4611SOL     OW18770   5.634  11.394   2.707  0.8622 -0.3079  0.1102
 4611SOL    HW118771   5.541  11.381   2.721  0.9289 -0.6274  0.2551
 4611SOL    HW218772   5.676  11.350   2.781  1.1745 -1.1837 -0.5716
 4612SOL     OW18773   4.592   5.246   5.922  0.0966  0.0966 -0.1370
 4612SOL    HW118774   4.568   5.159   5.955  0.6585 -0.3287 -0.8252
 4612SOL    HW218775   4.592   5.237   5.827  2.3103  0.2431 -0.1903
 4613SOL     OW18776  11.281   3.561   1.480 -0.1810  0.0001  0.1657
 4613SOL    HW118777  11.355   3.548   1.421 -0.2901  2.2350 -0.5523
 4613SOL    HW218778  11.212   3.504   1.446 -0.1426  1.0089 -1.7192
 4614SOL     OW18779   6.469   7.176   6.875  0.0118 -0.2293  0.4202
 4614SOL    HW118780   6.487   7.270   6.875  0.3460 -0.2381 -1.5261
 4614SOL    HW218781   6.490   7.149   6.785 -1.0296 -1.9753  0.6739
 4615SOL     OW18782   8.100   2.874   0.291 -0.2782  0.3951  0.5652
 4615SOL    HW118783   8.057   2.847   0.210  0.6659 -2.4252  0.8805
 4615SOL    HW218784   8.032   2.869   0.358 -0.2632 -0.8315  0.5134
 4616SOL     OW18785   7.149   7.189   9.647 -0.0382 -0.1010  0.1882
 4616SOL    HW118786   7.190   7.195   9.560 -0.8667  0.8359 -0.1646
 4616SOL    HW218787   7.222   7.183   9.708  0.6398  1.2855 -0.4479
 4617SOL     OW18788   9.342   7.874   6.602  0.0561  0.0728 -0.2232
 4617SOL    HW118789   9.386   7.872   6.517  2.9002  1.2629  1.0869
 4617SOL    HW218790   9.316   7.965   6.614 -3.7169 -0.6783 -1.2355
 4618SOL     OW18791   8.023   1.560   5.620  0.3408  0.5093 -0.6264
 4618SOL    HW118792   7.957   1.527   5.559 -1.3877  2.1000  0.2778
 4618SOL    HW218793   7.991   1.534   5.706  0.1285  2.4649 -0.0668
 4619SOL     OW18794  10.038   7.191  11.124  0.5267 -0.3016  0.3057
 4619SOL    HW118795   9.971   7.125  11.140 -0.0490  0.1553 -0.1748
 4619SOL    HW218796  10.017   7.261  11.185  0.1719  0.1194 -0.2944
 4620SOL     OW18797   3.146   9.725  11.207  0.1513  0.1891  0.0546
 4620SOL    HW118798   3.157   9.807  11.254  1.2333 -0.2281  0.5577
 4620SOL    HW218799   3.158   9.657  11.273 -2.1178 -0.4113 -0.0553
 4621SOL     OW18800   0.027   4.112   8.558  0.1403  0.0308  0.0180
 4621SOL    HW118801   0.113   4.072   8.570  0.2667 -0.2562 -1.5703
 4621SOL    HW218802  -0.014   4.109   8.644  2.1446  1.2371  1.0956
 4622SOL     OW18803   7.904   1.010   9.565 -0.0445  0.1220  0.4037
 4622SOL    HW118804   7.950   1.022   9.481 -0.5130 -0.8826 -0.0214
 4622SOL    HW218805   7.949   0.935   9.605 -1.3729 -0.9797 -0.0937
 4623SOL     OW18806   2.317  11.082   2.615  0.4100  0.0692  0.5317
 4623SOL    HW118807   2.401  11.101   2.573  1.0579 -3.5301 -0.1345
 4623SOL    HW218808   2.306  11.153   2.679  2.4025  2.3341 -1.4100
 4624SOL     OW18809   5.161   8.466   2.357  0.4397 -0.1501  0.1564
 4624SOL    HW118810   5.183   8.409   2.431  1.3308  0.1794  0.1660
 4624SOL    HW218811   5.096   8.417   2.307 -0.8599 -0.0065  1.6267
 4625SOL     OW18812   6.210   9.033   1.282 -0.2305 -0.7247 -0.5826
 4625SOL    HW118813   6.258   8.977   1.343 -0.1718 -1.1258 -0.9894
 4625SOL    HW218814   6.193   9.114   1.330 -0.0206 -0.9683 -0.1018
 4626SOL     OW18815   9.878  10.642   2.303 -0.6860 -0.1143  0.1211
 4626SOL    HW118816   9.919  10.726   2.282  0.1646 -0.6457 -0.4332
 4626SOL    HW218817   9.902  10.626   2.394 -0.8933  0.2682  0.2439
 4627SOL     OW18818   0.207   4.462   9.918 -0.0250  0.6974  0.0685
 4627SOL    HW118819   0.158   4.383   9.941 -2.7101  2.4735  0.9517
 4627SOL    HW218820   0.248   4.490  10.000 -0.6845  1.2110  0.2380
 4628SOL     OW18821   8.762   4.069   1.301  0.4443  0.2534  0.2363
 4628SOL    HW118822   8.772   4.010   1.227  0.2718 -1.6559  1.6781
 4628SOL    HW218823   8.832   4.133   1.289  1.6852 -1.1761 -0.5165
 4629SOL     OW18824   6.139  10.888   6.676 -0.6466 -0.0733  0.0487
 4629SOL    HW118825   6.207  10.935   6.629 -1.0750  1.6944  1.0845
 4629SOL    HW218826   6.172  10.799   6.686  3.0068  1.3729  3.1996
 4630SOL     OW18827   0.693  10.762   8.782  0.1052  0.7456  0.0281
 4630SOL    HW118828   0.686  10.849   8.821 -2.9888  0.7280 -0.2269
 4630SOL    HW218829   0.738  10.709   8.849 -1.7522  1.5801  2.0595
 4631SOL     OW18830   1.186   6.463  11.586  0.3839 -0.3169  0.5108
 4631SOL    HW118831   1.205   6.388  11.643  1.3337 -0.6128 -0.1506
 4631SOL    HW218832   1.246   6.452  11.512 -0.9972 -0.1106 -0.6973
 4632SOL     OW18833   5.647   7.790   1.204  0.2534 -0.4102 -0.9450
 4632SOL    HW118834   5.650   7.862   1.141  0.2666  0.2747 -0.1909
 4632SOL    HW218835   5.635   7.833   1.289  0.0550 -1.3160 -0.4956
 4633SOL     OW18836   3.584  10.956   8.677 -0.1604  0.5299 -0.3377
 4633SOL    HW118837   3.652  10.950   8.744  0.5613  0.3825 -1.0572
 4633SOL    HW218838   3.570  11.050   8.665  0.5733  0.5953 -0.8043
 4634SOL     OW18839   2.047  10.172   2.704 -0.2778  0.1184 -0.1053
 4634SOL    HW118840   2.041  10.193   2.611 -0.3765  0.0013 -0.1261
 4634SOL    HW218841   2.004  10.245   2.749 -1.4735 -0.4852 -0.2258
 4635SOL     OW18842   3.644   8.917   6.586 -0.3992 -0.2391 -0.2451
 4635SOL    HW118843   3.727   8.955   6.559 -1.3384  2.1746 -0.0025
 4635SOL    HW218844   3.580   8.953   6.525 -1.4587 -0.9004  0.4420
 4636SOL     OW18845   0.852   4.728   8.203 -0.3796 -0.1838  0.3437
 4636SOL    HW118846   0.878   4.812   8.241  0.3786 -1.1466  2.0727
 4636SOL    HW218847   0.758   4.721   8.222 -0.0885 -0.4870  1.8178
 4637SOL     OW18848   1.299   7.037   1.379  0.3255  0.0707  0.1746
 4637SOL    HW118849   1.307   7.077   1.292  0.3033 -0.0718  0.1071
 4637SOL    HW218850   1.388   7.013   1.403  0.3571  0.2794  0.2727
 4638SOL     OW18851   8.245   8.653   4.888  0.4182 -0.1713 -0.7470
 4638SOL    HW118852   8.229   8.712   4.815 -0.6292 -1.4009 -1.5684
 4638SOL    HW218853   8.297   8.704   4.950 -0.9011  1.7978 -1.1495
 4639SOL     OW18854   2.201   9.749   8.071 -0.0179 -0.7392  0.0647
 4639SOL    HW118855   2.203   9.787   8.159 -0.4610  0.1578 -0.3032
 4639SOL    HW218856   2.282   9.780   8.030 -1.0294  1.0120 -0.7064
 4640SOL     OW18857  10.929   5.392   6.666 -0.2321 -0.1781  0.0650
 4640SOL    HW118858  10.966   5.311   6.629 -3.4915 -2.1153  0.6482
 4640SOL    HW218859  10.898   5.441   6.590  1.0426  0.1950 -0.2403
 4641SOL     OW18860  10.619   0.011   9.721  0.3370 -0.1742 -0.0371
 4641SOL    HW118861  10.613   0.104   9.699 -0.5544 -0.3053 -0.4011
 4641SOL    HW218862  10.665  -0.028   9.646 -1.6823 -0.4354 -1.2091
 4642SOL     OW18863   4.667   9.213   0.382  0.1295  0.0592  0.2816
 4642SOL    HW118864   4.630   9.300   0.370  1.6005  0.8791  1.3151
 4642SOL    HW218865   4.615   9.173   0.452  0.9101  1.0713  1.4898
 4643SOL     OW18866  11.183   3.637   6.845  0.4873 -0.4455 -0.0356
 4643SOL    HW118867  11.173   3.661   6.753 -0.8207 -1.5440 -0.2142
 4643SOL    HW218868  11.186   3.720   6.891 -0.0835  0.1166 -0.9693
 4644SOL     OW18869   0.930   2.614  11.294 -0.3935 -0.3014  0.2170
 4644SOL    HW118870   0.940   2.614  11.389  2.1017 -0.5250  0.0203
 4644SOL    HW218871   0.938   2.706  11.269 -0.1042 -0.3339  0.1766
 4645SOL     OW18872   7.314   4.757   0.103 -0.2436 -0.0712 -0.4281
 4645SOL    HW118873   7.359   4.792   0.026 -0.8838 -0.9635 -1.2290
 4645SOL    HW218874   7.352   4.805   0.176  2.4367 -1.0982 -0.9962
 4646SOL     OW18875  10.501   6.049   6.101  0.0887 -0.2205  0.8155
 4646SOL    HW118876  10.574   6.077   6.157  0.3844  2.2193 -0.6582
 4646SOL    HW218877  10.544   6.018   6.021 -0.4186 -1.2284  0.9295
 4647SOL     OW18878   5.810  10.772   5.174  0.3815  0.4598 -0.1194
 4647SOL    HW118879   5.825  10.710   5.245  0.3891  0.9951  0.3606
 4647SOL    HW218880   5.898  10.801   5.148  0.3270  1.7919  1.0561
 4648SOL     OW18881  10.391   7.266   8.890 -0.2901  0.1014 -0.5363
 4648SOL    HW118882  10.298   7.281   8.870 -0.5482 -2.1020 -1.2167
 4648SOL    HW218883  10.390   7.219   8.973  0.0962 -1.2265 -1.2540
 4649SOL     OW18884   9.000   8.631   5.055 -0.1460 -0.2421 -0.1309
 4649SOL    HW118885   8.975   8.674   5.137 -1.9073 -1.1715 -0.1395
 4649SOL    HW218886   9.088   8.597   5.072  0.5552  1.7274  0.4903
 4650SOL     OW18887   9.401   2.535   3.026 -0.1679  0.3562  0.1212
 4650SOL    HW118888   9.480   2.503   3.071 -0.4527 -0.9095 -0.2447
 4650SOL    HW218889   9.333   2.472   3.049 -0.9637  1.1744  0.0450
 4651SOL     OW18890   7.663   0.766   5.481  0.6229  0.3485  0.2047
 4651SOL    HW118891   7.727   0.751   5.551  0.1936 -0.1608  0.4960
 4651SOL    HW218892   7.715   0.798   5.408  1.4075 -1.2012  0.0326
 4652SOL     OW18893   3.471   2.980   1.287  0.0082  0.2070  0.3276
 4652SOL    HW118894   3.566   2.979   1.301 -0.1673 -0.1213  1.5543
 4652SOL    HW218895   3.460   2.950   1.196  1.0338 -0.4956  0.4175
 4653SOL     OW18896   7.071   2.086   6.366  0.6375  0.1980 -0.8455
 4653SOL    HW118897   7.102   2.115   6.452 -0.1648 -0.6811 -0.2308
 4653SOL    HW218898   7.098   1.994   6.361  3.0558  0.8931 -2.7018
 4654SOL     OW18899   0.841  11.231   4.152  0.2115  0.0264  0.2230
 4654SOL    HW118900   0.893  11.163   4.108  0.2739  0.3911 -0.2690
 4654SOL    HW218901   0.763  11.184   4.182  0.0050 -0.1686 -0.5737
 4655SOL     OW18902  10.045   5.931   9.810  0.1457  0.3864  0.0131
 4655SOL    HW118903   9.970   5.961   9.757  0.9461  2.0603 -0.2366
 4655SOL    HW218904  10.074   5.852   9.766 -1.7621 -0.5897  0.3979
 4656SOL     OW18905   5.164   8.319   9.799 -0.0519 -0.1049 -0.8599
 4656SOL    HW118906   5.242   8.301   9.747 -0.5665 -1.0642 -1.3305
 4656SOL    HW218907   5.186   8.290   9.887  0.7911  1.4395 -0.5299
 4657SOL     OW18908   5.003   9.310   0.048 -0.2739 -0.3501 -0.0046
 4657SOL    HW118909   4.920   9.330   0.091  0.4104  1.5989  0.5181
 4657SOL    HW218910   5.067   9.307   0.119  0.0952 -2.1385 -0.3677
 4658SOL     OW18911  11.536   8.690   7.233  0.1583  0.0628 -0.1831
 4658SOL    HW118912  11.601   8.622   7.212 -1.0505 -1.8051  1.6453
 4658SOL    HW218913  11.575   8.738   7.306  0.2783  0.1927 -0.3318
 4659SOL     OW18914   9.035  11.260   8.881 -0.0387  0.3657 -0.4935
 4659SOL    HW118915   9.071  11.202   8.948  0.3544 -0.2965 -1.2588
 4659SOL    HW218916   8.984  11.202   8.824 -0.2814  0.8995 -0.8276
 4660SOL     OW18917   3.709   7.699   1.076 -0.1666  0.0817  0.4055
 4660SOL    HW118918   3.614   7.701   1.086 -0.0094  0.2072  2.0309
 4660SOL    HW218919   3.725   7.632   1.009 -1.3185 -1.1855  1.3455
 4661SOL     OW18920   3.158   4.587   0.127 -0.5635  0.1121  0.2486
 4661SOL    HW118921   3.063   4.584   0.131 -0.5615 -2.0488 -0.0378
 4661SOL    HW218922   3.182   4.667   0.174 -2.4687  0.0866  1.3482
 4662SOL     OW18923   1.980   3.935   1.011 -0.1871 -0.2141  0.9955
 4662SOL    HW118924   2.031   4.008   1.046  1.1843 -2.0137  2.9648
 4662SOL    HW218925   1.998   3.937   0.917  1.1380  0.9772  1.2408
 4663SOL     OW18926   0.949   8.675  10.306 -0.3867  0.3840  0.0202
 4663SOL    HW118927   0.985   8.590  10.279 -0.0145  0.3396  0.6425
 4663SOL    HW218928   0.957   8.675  10.401 -0.4032  1.1163  0.0243
 4664SOL     OW18929   4.440   7.874   1.569  0.1274  0.4351  0.7364
 4664SOL    HW118930   4.368   7.934   1.589 -1.2097 -0.7756 -0.2614
 4664SOL    HW218931   4.450   7.880   1.474 -0.5736 -1.4637  0.4983
 4665SOL     OW18932   0.076   9.675   6.673  0.1950  0.0450 -0.2592
 4665SOL    HW118933   0.116   9.703   6.590  0.1697 -0.0791 -0.3127
 4665SOL    HW218934   0.060   9.582   6.661  0.5520 -0.0572  0.0309
 4666SOL     OW18935   4.120   3.200   2.720  0.1372 -0.3318  0.1710
 4666SOL    HW118936   4.065   3.263   2.673  0.1051 -0.2927  0.2611
 4666SOL    HW218937   4.058   3.137   2.756  0.2016 -0.6626 -0.2882
 4667SOL     OW18938   0.597   4.285   0.529  0.1288  0.1347 -0.1809
 4667SOL    HW118939   0.593   4.368   0.482  3.2197  0.3167 -0.3310
 4667SOL    HW218940   0.583   4.308   0.620 -0.3550  0.5899 -0.3612
 4668SOL     OW18941   5.431   1.347   1.011 -0.4822  0.3504 -0.1057
 4668SOL    HW118942   5.384   1.272   1.049 -0.2486 -0.0808 -0.6569
 4668SOL    HW218943   5.510   1.309   0.973  0.0495  0.9980  0.3332
 4669SOL     OW18944   6.231   2.252   5.931  0.2159 -0.0122 -0.1194
 4669SOL    HW118945   6.270   2.258   5.844  1.8879  1.0359  0.6698
 4669SOL    HW218946   6.275   2.178   5.973  0.2758  0.2345  0.2565
 4670SOL     OW18947   0.717   3.154   4.568  1.0330  0.2857  0.3798
 4670SOL    HW118948   0.793   3.186   4.519  0.4933  0.4543 -0.3494
 4670SOL    HW218949   0.731   3.059   4.575  1.3303  0.3215  0.2835
 4671SOL     OW18950   6.820   6.793   1.284  0.6142  0.3892  0.2190
 4671SOL    HW118951   6.811   6.867   1.344  1.1635  0.6717 -0.0438
 4671SOL    HW218952   6.839   6.833   1.199 -0.8419  0.0208 -0.2954
 4672SOL     OW18953  10.215   3.840   4.301 -0.0704 -0.3488  0.2362
 4672SOL    HW118954  10.259   3.772   4.251 -0.1423  0.1425 -0.5036
 4672SOL    HW218955  10.206   3.803   4.389 -1.2399 -1.8275 -0.4475
 4673SOL     OW18956   8.880  10.016   1.715  0.2782 -0.9539 -0.3615
 4673SOL    HW118957   8.966  10.041   1.749 -0.6961  0.5377  1.1610
 4673SOL    HW218958   8.846   9.954   1.780 -0.1435 -0.8809 -0.5104
 4674SOL     OW18959   4.474   0.511   7.150 -0.3901 -0.8530 -0.4543
 4674SOL    HW118960   4.570   0.506   7.155 -0.2968 -1.9856 -2.5952
 4674SOL    HW218961   4.452   0.583   7.210  1.6896 -1.1800  0.8442
 4675SOL     OW18962   8.395   5.145   3.849  0.4878  0.3412  0.5284
 4675SOL    HW118963   8.356   5.064   3.881  2.7265 -0.4082  1.5645
 4675SOL    HW218964   8.415   5.127   3.757 -1.1029  0.5855  0.1039
 4676SOL     OW18965   7.793   2.325   1.099 -0.5259 -0.9285  0.2410
 4676SOL    HW118966   7.819   2.366   1.181 -1.2063 -1.1109  0.5571
 4676SOL    HW218967   7.835   2.377   1.030 -1.0841  0.0727  0.6453
 4677SOL     OW18968   0.548   4.133   9.772 -0.0900 -0.0377  0.0813
 4677SOL    HW118969   0.455   4.111   9.769  0.1464 -0.9472 -0.8127
 4677SOL    HW218970   0.559   4.198   9.702  0.0044 -0.1660 -0.0236
 4678SOL     OW18971   6.776   0.870   6.931  0.2646 -0.6684 -0.2724
 4678SOL    HW118972   6.769   0.964   6.946 -0.2087 -0.8750  0.9464
 4678SOL    HW218973   6.753   0.858   6.839  2.1013  0.5782 -0.9374
 4679SOL     OW18974   7.941   7.013   9.279 -0.1906  0.3739  0.7406
 4679SOL    HW118975   7.956   7.104   9.304 -1.2536  0.2120  2.0625
 4679SOL    HW218976   7.958   7.011   9.184  2.9833  1.2389  1.1672
 4680SOL     OW18977   6.886   9.956   5.024  0.5522 -1.0053 -0.4177
 4680SOL    HW118978   6.895   9.913   4.939  0.2068  0.7973 -1.3990
 4680SOL    HW218979   6.847  10.041   5.005  1.8298  0.0552  1.3903
 4681SOL     OW18980   4.483   7.398   1.594  0.2065  0.7776 -0.2526
 4681SOL    HW118981   4.575   7.421   1.610  0.6019 -0.0259 -1.3080
 4681SOL    HW218982   4.438   7.483   1.593  1.1321  1.2790 -0.9658
 4682SOL     OW18983   5.298   2.407   6.788 -0.2299  0.3526  0.1561
 4682SOL    HW118984   5.293   2.315   6.812 -1.9157  0.1332 -0.8857
 4682SOL    HW218985   5.210   2.440   6.801  0.2848  1.7541  0.2257
 4683SOL     OW18986   7.074   5.529   0.796 -0.6436 -0.2247  0.4019
 4683SOL    HW118987   7.160   5.488   0.803 -1.3593 -1.7015  0.9729
 4683SOL    HW218988   7.020   5.465   0.750 -1.8049  0.0674  1.2981
 4684SOL     OW18989  11.183   6.904   1.558 -0.9374  0.3695  0.2605
 4684SOL    HW118990  11.253   6.842   1.540 -0.3745  0.9188  0.5093
 4684SOL    HW218991  11.104   6.850   1.570 -0.4015 -0.3141  0.7756
 4685SOL     OW18992   4.439   1.675   5.958 -0.0455 -0.1098  0.4280
 4685SOL    HW118993   4.417   1.633   5.874 -0.5353 -0.6984  0.8462
 4685SOL    HW218994   4.354   1.687   6.001  0.2619 -0.3795  1.1100
 4686SOL     OW18995   8.064  11.248  11.638 -0.3061  0.1896  0.2477
 4686SOL    HW118996   7.987  11.234  11.694 -1.3059  0.3198 -1.0336
 4686SOL    HW218997   8.045  11.330  11.592  0.9216  0.5721  0.3944
 4687SOL     OW18998   3.207   9.993   0.390 -0.4756  0.3859  0.3163
 4687SOL    HW118999   3.267   9.986   0.316 -0.2810  0.9082  0.4173
 4687SOL    HW219000   3.179   9.903   0.408  2.6734 -0.3611  2.2356
 4688SOL     OW19001   5.739   2.070   7.420 -0.4207  0.1667  0.5371
 4688SOL    HW119002   5.784   2.151   7.400 -0.7825  0.0489 -0.8394
 4688SOL    HW219003   5.784   2.036   7.498 -0.2286  1.6283  1.0887
 4689SOL     OW19004   6.506  11.345   3.343  0.3673 -0.0709 -0.2902
 4689SOL    HW119005   6.483  11.355   3.250 -1.5733 -0.8831  0.0451
 4689SOL    HW219006   6.432  11.383   3.390  0.5599 -1.1181  0.9172
 4690SOL     OW19007   2.158   2.372  10.914 -0.4095  0.1425  0.5956
 4690SOL    HW119008   2.191   2.430  10.846  0.3237  1.8702  2.3199
 4690SOL    HW219009   2.063   2.370  10.900 -0.1387 -0.7306 -1.3148
 4691SOL     OW19010   6.513   2.047   4.225 -0.0487  0.3965  0.1321
 4691SOL    HW119011   6.485   2.055   4.317  0.2213 -1.2558  0.3928
 4691SOL    HW219012   6.440   2.002   4.182  0.1101  0.5569 -0.3042
 4692SOL     OW19013   5.574   7.988  11.430 -0.2594 -0.5909 -0.7761
 4692SOL    HW119014   5.611   7.921  11.488  0.5126  1.0912  0.7866
 4692SOL    HW219015   5.504   8.028  11.481  1.6451  2.2029 -0.0890
 4693SOL     OW19016   1.780   6.792   0.997 -0.1699 -0.8433  0.2889
 4693SOL    HW119017   1.783   6.804   1.092  0.1561  0.7124  0.1015
 4693SOL    HW219018   1.716   6.855   0.966  1.2606  0.1807 -0.7176
 4694SOL     OW19019   1.504  11.435   5.491  0.2631  0.2417  0.1838
 4694SOL    HW119020   1.495  11.452   5.397 -0.6842 -0.7628  0.0767
 4694SOL    HW219021   1.596  11.455   5.509  0.2069  1.5210 -0.7129
 4695SOL     OW19022   7.079   9.515   2.567 -0.3713 -0.4586  0.6050
 4695SOL    HW119023   7.053   9.608   2.572 -0.5777 -0.5335  1.0063
 4695SOL    HW219024   7.155   9.509   2.624  0.1404 -0.3724 -0.0616
 4696SOL     OW19025   0.293   1.442   3.653 -0.5176  0.2035  0.1350
 4696SOL    HW119026   0.291   1.357   3.608 -0.4412 -0.4629  1.3600
 4696SOL    HW219027   0.267   1.505   3.585  1.3559 -0.5281 -1.3504
 4697SOL     OW19028   7.105   0.100   9.936 -0.1789 -0.4211 -0.5190
 4697SOL    HW119029   7.164   0.166   9.900 -0.8528 -0.0701 -1.0258
 4697SOL    HW219030   7.050   0.075   9.861 -3.0125  1.8152  0.6429
 4698SOL     OW19031   9.192   3.891   8.688  0.3329  0.2686  0.4283
 4698SOL    HW119032   9.163   3.917   8.775  1.7227  1.1187  0.6830
 4698SOL    HW219033   9.133   3.821   8.662  0.7765 -1.0338  2.6685
 4699SOL     OW19034   6.769   6.935   6.548  0.3521 -0.1595  0.6324
 4699SOL    HW119035   6.753   6.848   6.511 -1.4261  0.1069  0.7006
 4699SOL    HW219036   6.767   6.994   6.473  1.9532 -0.1880  0.5346
 4700SOL     OW19037  10.141   9.963   0.532  0.1773 -0.1927 -0.1268
 4700SOL    HW119038  10.233   9.991   0.531  0.4801 -1.1398 -0.7031
 4700SOL    HW219039  10.126   9.936   0.623  0.9702 -1.5320 -0.3676
 4701SOL     OW19040   1.142   5.538   8.661 -0.2020  0.4061 -0.1852
 4701SOL    HW119041   1.169   5.492   8.741  1.1092 -0.4556 -1.0753
 4701SOL    HW219042   1.056   5.501   8.641 -0.7716  0.9817  1.0612
 4702SOL     OW19043   4.844   8.325   1.416 -0.0359 -0.1835  0.1288
 4702SOL    HW119044   4.813   8.304   1.504 -0.4162  0.7826  0.2394
 4702SOL    HW219045   4.765   8.325   1.362  0.3223 -1.8092 -0.4486
 4703SOL     OW19046   5.382   0.332   6.816  0.1361 -0.3295 -0.2070
 4703SOL    HW119047   5.444   0.305   6.748 -1.1584 -1.8018 -0.8648
 4703SOL    HW219048   5.364   0.424   6.798 -0.2549 -0.7210 -1.9441
 4704SOL     OW19049   9.928  10.274   9.514 -0.2415  0.0566  0.0209
 4704SOL    HW119050   9.924  10.360   9.557  0.6153 -0.7053  1.6957
 4704SOL    HW219051   9.858  10.223   9.555  0.4240 -0.6013  0.3623
 4705SOL     OW19052   6.999   2.740   2.750  0.5377 -0.4053  0.3217
 4705SOL    HW119053   6.956   2.790   2.820 -0.5458 -1.0893  0.1577
 4705SOL    HW219054   6.967   2.779   2.669 -0.0712 -1.1465  0.1958
 4706SOL     OW19055   7.694  11.022   9.442  0.9215  0.3398  0.0624
 4706SOL    HW119056   7.752  10.979   9.506  1.3430  0.6952 -0.0768
 4706SOL    HW219057   7.610  10.978   9.454  0.8328  0.7902  1.2671
 4707SOL     OW19058   1.896   8.561   4.783 -0.4444  0.6816  0.4657
 4707SOL    HW119059   1.935   8.486   4.737  0.5549  1.4933 -0.0662
 4707SOL    HW219060   1.970   8.619   4.801 -1.3005  1.9116  0.1541
 4708SOL     OW19061   4.753   7.604   8.380  0.2903  0.2153  0.4927
 4708SOL    HW119062   4.782   7.616   8.470  1.4316 -1.0281  0.3177
 4708SOL    HW219063   4.833   7.602   8.328 -0.3245  0.3833 -0.4996
 4709SOL     OW19064   7.470   4.909  11.184  0.2066  0.2123  0.2138
 4709SOL    HW119065   7.447   4.816  11.179  0.2792  0.1313  1.3034
 4709SOL    HW219066   7.510   4.920  11.270 -1.0160  1.5224  0.6513
 4710SOL     OW19067   2.455  11.232   4.144  0.1472  0.0471 -0.0713
 4710SOL    HW119068   2.463  11.255   4.236  1.6345  1.1913 -0.4377
 4710SOL    HW219069   2.369  11.265   4.118 -0.8215 -1.4036  1.1673
 4711SOL     OW19070   2.485   0.887   5.984 -0.0692  0.3192 -0.0916
 4711SOL    HW119071   2.572   0.878   6.023  0.3325  1.4126 -0.6805
 4711SOL    HW219072   2.501   0.928   5.899 -1.1283  0.1052 -0.4082
 4712SOL     OW19073   6.036  11.423   3.131 -0.3448 -0.7945  0.1493
 4712SOL    HW119074   5.973  11.495   3.131 -0.3276 -0.7728  1.0765
 4712SOL    HW219075   6.107  11.453   3.075 -0.9738 -0.6589 -0.5956
 4713SOL     OW19076  11.163   1.333   0.100 -0.0650  0.1619 -0.3494
 4713SOL    HW119077  11.126   1.410   0.142  0.1820  1.5394 -2.5093
 4713SOL    HW219078  11.102   1.312   0.030  0.7267 -0.5833 -0.8419
 4714SOL     OW19079   1.133   2.552   9.395 -0.1216 -0.7971  0.1928
 4714SOL    HW119080   1.170   2.595   9.318 -2.3929 -0.0106 -0.5233
 4714SOL    HW219081   1.183   2.588   9.469  0.4839  0.2425 -0.7047
 4715SOL     OW19082   0.750   8.095   2.904  0.1011 -0.0500 -0.0177
 4715SOL    HW119083   0.657   8.076   2.916 -0.5691  2.5703 -0.3990
 4715SOL    HW219084   0.762   8.095   2.809 -0.8128  4.3354 -0.3584
 4716SOL     OW19085   2.074   1.482   7.415 -0.2115 -0.1318  0.2320
 4716SOL    HW119086   2.023   1.417   7.463  0.3106 -0.9994 -0.3370
 4716SOL    HW219087   2.164   1.469   7.446 -0.1451  0.4952  0.2963
 4717SOL     OW19088   7.752   7.155  10.830  0.0134 -0.1396  0.6707
 4717SOL    HW119089   7.826   7.135  10.772  0.3109 -0.1557  1.0483
 4717SOL    HW219090   7.772   7.242  10.863 -0.4696  0.1270  0.2724
 4718SOL     OW19091   7.911   5.695   9.314 -0.0436 -0.1806  0.3891
 4718SOL    HW119092   7.940   5.762   9.375  0.1787 -1.8465  2.2201
 4718SOL    HW219093   7.819   5.717   9.295  0.5203  1.5897 -0.4969
 4719SOL     OW19094  11.390   5.044   2.496  0.3848  0.3033  0.0125
 4719SOL    HW119095  11.441   5.019   2.572  0.8252 -2.1267 -0.9888
 4719SOL    HW219096  11.368   4.961   2.453 -1.8785  1.4302 -1.2184
 4720SOL     OW19097   8.872   6.514   9.584  0.1387 -0.0587 -0.0843
 4720SOL    HW119098   8.779   6.525   9.605  0.3132  0.2045  0.5779
 4720SOL    HW219099   8.888   6.580   9.517 -0.4536 -0.9907 -1.1794
 4721SOL     OW19100   4.081   9.321   9.970 -0.3106 -0.2213  0.0701
 4721SOL    HW119101   4.095   9.413   9.993  0.1774 -0.4260  0.6109
 4721SOL    HW219102   4.047   9.323   9.880 -2.2333  0.6111  0.7607
 4722SOL     OW19103   4.417   5.864  10.284 -0.9466  0.0779  0.7452
 4722SOL    HW119104   4.425   5.787  10.227  0.2195  0.6028  0.1636
 4722SOL    HW219105   4.438   5.832  10.371 -2.8724 -0.7687  0.9484
 4723SOL     OW19106   8.866   9.061   9.539 -0.4163 -0.4230  0.1583
 4723SOL    HW119107   8.807   8.993   9.571  0.7724 -1.1251  0.9388
 4723SOL    HW219108   8.866   9.127   9.608 -2.2031  0.8228 -0.9560
 4724SOL     OW19109   9.836   0.334   1.548 -0.4411 -0.1518  0.0227
 4724SOL    HW119110   9.764   0.395   1.562 -0.1947  0.6316 -1.8369
 4724SOL    HW219111   9.895   0.348   1.622 -1.9520 -0.5243  1.3663
 4725SOL     OW19112   3.536   6.322   9.337 -0.0239  0.2002  0.2911
 4725SOL    HW119113   3.614   6.377   9.343  0.3217 -0.3483  1.0362
 4725SOL    HW219114   3.481   6.365   9.272 -1.0741  3.0746  2.8344
 4726SOL     OW19115   0.880   3.460   4.728  0.1723  0.4355 -0.2964
 4726SOL    HW119116   0.942   3.531   4.747 -0.8343  1.3882 -0.5016
 4726SOL    HW219117   0.913   3.421   4.648  1.0657  0.2851  0.1333
 4727SOL     OW19118   2.310  10.201   2.808  0.0501  0.3407 -0.0642
 4727SOL    HW119119   2.218  10.181   2.791  0.0554 -0.6334  0.8990
 4727SOL    HW219120   2.309  10.286   2.851 -0.3384  0.6570 -0.6884
 4728SOL     OW19121   7.673  10.254   2.052 -0.2111 -0.0000  0.7037
 4728SOL    HW119122   7.706  10.164   2.053 -0.8565 -0.2475  0.2610
 4728SOL    HW219123   7.747  10.307   2.080  0.7217 -0.4931 -0.7340
 4729SOL     OW19124   6.943   5.521   4.639  0.2698  0.0148 -0.4251
 4729SOL    HW119125   6.892   5.529   4.720  1.4722  0.4934  0.3121
 4729SOL    HW219126   6.913   5.593   4.584 -0.8428 -0.5512 -0.5867
 4730SOL     OW19127   3.647   9.429   7.299  0.2872 -0.1438  0.1600
 4730SOL    HW119128   3.606   9.343   7.305 -1.8942  0.7111 -1.3350
 4730SOL    HW219129   3.732   9.418   7.342  1.7440 -3.9905 -3.1244
 4731SOL     OW19130  10.661   0.935   3.564 -0.0799  0.7210 -0.5873
 4731SOL    HW119131  10.646   1.029   3.571 -2.0541  0.4432 -0.4324
 4731SOL    HW219132  10.583   0.902   3.518  0.6612 -0.8119 -0.8024
 4732SOL     OW19133   1.162   1.845   0.450 -0.0339  0.1908  0.1289
 4732SOL    HW119134   1.108   1.911   0.494 -0.7930 -0.6569  0.4761
 4732SOL    HW219135   1.203   1.796   0.522  1.8624  1.3197 -0.1077
 4733SOL     OW19136   9.257   8.761   8.672 -0.1330 -0.1377 -0.6043
 4733SOL    HW119137   9.177   8.710   8.659  1.7743 -3.1258 -1.5896
 4733SOL    HW219138   9.285   8.738   8.761  0.8598 -1.0565 -1.1362
 4734SOL     OW19139   9.636   3.479   2.862  0.5613  0.6140  0.1243
 4734SOL    HW119140   9.576   3.500   2.934  0.9469 -0.5767  0.8340
 4734SOL    HW219141   9.723   3.500   2.897  0.6184  1.8526 -0.7136
 4735SOL     OW19142   2.950   0.919  10.881  0.0272 -0.3734  0.6908
 4735SOL    HW119143   2.866   0.926  10.835  0.7295  0.0621 -0.5607
 4735SOL    HW219144   2.926   0.906  10.973 -1.4244  1.5897  0.6511
 4736SOL     OW19145   4.658   7.553  11.234 -0.1850 -0.6970  0.0238
 4736SOL    HW119146   4.633   7.493  11.305  2.3598 -1.1922  0.6068
 4736SOL    HW219147   4.728   7.507  11.188 -0.3409  0.5325 -1.5138
 4737SOL     OW19148   3.672   2.208  11.107  0.0715  0.3540  1.0841
 4737SOL    HW119149   3.758   2.211  11.066 -1.2912 -1.2576 -2.3327
 4737SOL    HW219150   3.633   2.126  11.075 -3.6056  2.1592  0.3438
 4738SOL     OW19151  10.001   2.584   7.286 -0.0714 -0.7106 -0.1857
 4738SOL    HW119152  10.032   2.527   7.356 -1.4373 -1.3592 -0.0849
 4738SOL    HW219153   9.972   2.663   7.331  0.7601 -0.3790 -0.2143
 4739SOL     OW19154   8.437   3.717   2.007 -0.0365  0.3710 -0.2330
 4739SOL    HW119155   8.377   3.713   1.933 -0.4256 -1.4408  0.1515
 4739SOL    HW219156   8.385   3.689   2.082  1.6147 -2.8054 -0.1325
 4740SOL     OW19157   5.446   7.168  10.300 -0.1766 -0.2665  0.2826
 4740SOL    HW119158   5.539   7.183  10.313 -0.1328  0.0031 -0.3049
 4740SOL    HW219159   5.440   7.075  10.277 -0.2603 -0.7585  2.1412
 4741SOL     OW19160  10.840   9.010   1.551 -0.2969 -0.5270 -0.5061
 4741SOL    HW119161  10.760   8.963   1.528 -1.0052 -0.6403  1.9332
 4741SOL    HW219162  10.827   9.037   1.641  1.2745  1.9537 -0.9362
 4742SOL     OW19163   4.567   6.982   5.925  0.2863 -0.4544 -0.4392
 4742SOL    HW119164   4.639   6.922   5.907  0.0165 -1.0325  0.3661
 4742SOL    HW219165   4.587   7.018   6.012  0.1191  0.1485 -0.6419
 4743SOL     OW19166   3.243   5.674   0.214  0.7024  0.5465  0.2534
 4743SOL    HW119167   3.263   5.656   0.122  0.4079 -1.5563  0.5505
 4743SOL    HW219168   3.148   5.666   0.220  0.9210 -2.4732  1.2609
 4744SOL     OW19169   3.186  11.339   4.084 -0.1427 -0.3532  0.3086
 4744SOL    HW119170   3.278  11.364   4.093 -0.1286  0.0654 -0.8366
 4744SOL    HW219171   3.144  11.370   4.165  0.9906 -1.9410  1.5844
 4745SOL     OW19172   9.337   5.647   9.192 -0.5570  0.5836  0.1453
 4745SOL    HW119173   9.306   5.575   9.247 -0.4690  0.3599 -0.0974
 4745SOL    HW219174   9.384   5.605   9.120 -1.7197  0.8018 -0.7798
 4746SOL     OW19175   2.721   4.115   8.301  0.2384 -0.6312 -0.3655
 4746SOL    HW119176   2.659   4.126   8.374 -1.2503  1.2578 -1.8046
 4746SOL    HW219177   2.673   4.064   8.236  0.5817 -0.0680 -1.0737
 4747SOL     OW19178   5.641   1.270   7.634 -0.2860  0.4605  0.1312
 4747SOL    HW119179   5.686   1.280   7.551  0.2926 -0.2243  0.3468
 4747SOL    HW219180   5.711   1.250   7.697 -0.9366 -1.4070  0.3240
 4748SOL     OW19181   3.911   2.056   6.216 -0.4372 -0.2568  0.2563
 4748SOL    HW119182   3.917   2.001   6.138  2.6930  0.0061  0.2082
 4748SOL    HW219183   3.900   2.145   6.182  1.5315 -0.0663  0.0320
 4749SOL     OW19184   3.938  10.584   9.847 -0.4573  0.2625  0.2551
 4749SOL    HW119185   4.025  10.581   9.886 -0.2858  2.5281  0.1884
 4749SOL    HW219186   3.903  10.670   9.871 -2.7218 -0.5895  0.3314
 4750SOL     OW19187   2.865   3.721   1.992 -0.0182 -0.3905 -0.5049
 4750SOL    HW119188   2.812   3.781   2.043  1.8725  0.1737  0.9231
 4750SOL    HW219189   2.827   3.635   2.008 -0.8777  0.0597 -0.0612
 4751SOL     OW19190   4.760   3.862   7.935 -0.0467  0.2275  0.1893
 4751SOL    HW119191   4.788   3.802   7.866 -1.5618  0.7754 -0.9328
 4751SOL    HW219192   4.811   3.835   8.012  1.5834 -0.4706 -1.0809
 4752SOL     OW19193   2.125   2.118  11.122 -0.2325  0.2285  0.1556
 4752SOL    HW119194   2.049   2.166  11.156  0.0214  0.1104  0.9077
 4752SOL    HW219195   2.176   2.183  11.075 -0.6573  0.3679 -0.1175
 4753SOL     OW19196   1.972   3.881   4.872  0.4441 -0.0185 -0.3764
 4753SOL    HW119197   2.052   3.861   4.920  0.6487  0.3890 -0.5407
 4753SOL    HW219198   1.931   3.952   4.921  0.6744  0.4267 -0.8213
 4754SOL     OW19199   5.450   4.417   5.911 -0.3090 -0.4774  0.2754
 4754SOL    HW119200   5.369   4.440   5.957  1.3339  1.9846  2.2250
 4754SOL    HW219201   5.460   4.486   5.846 -0.9000 -2.1041 -1.6334
 4755SOL     OW19202   6.347   9.827   9.706  0.2811  0.2984 -0.2228
 4755SOL    HW119203   6.436   9.861   9.717  0.4188 -0.3068  0.6013
 4755SOL    HW219204   6.300   9.859   9.783  0.3691 -1.1911  0.4884
 4756SOL     OW19205   3.843   1.111   7.210 -0.0509  0.2154  0.7112
 4756SOL    HW119206   3.935   1.126   7.231 -0.1292 -1.7237  2.8943
 4756SOL    HW219207   3.795   1.165   7.274 -0.4256  0.5586  0.1446
 4757SOL     OW19208   6.673   4.262   0.863  0.2340  0.4599  0.0002
 4757SOL    HW119209   6.702   4.224   0.781 -0.4130 -0.8475  0.3582
 4757SOL    HW219210   6.583   4.230   0.875 -0.2412  1.8613  0.4706
 4758SOL     OW19211   8.134   9.272   4.890 -0.2642  0.1460 -0.4782
 4758SOL    HW119212   8.146   9.367   4.881  0.9719  0.0777  0.2475
 4758SOL    HW219213   8.069   9.250   4.824 -0.5974  1.5090 -0.6386
 4759SOL     OW19214   3.130   8.818   9.359 -0.1593  0.3691  0.0443
 4759SOL    HW119215   3.051   8.827   9.306 -0.4564 -0.0189  0.4110
 4759SOL    HW219216   3.099   8.779   9.441  0.3683  0.5017  0.3091
 4760SOL     OW19217   1.963   4.287   5.369  0.2797  0.5214 -0.4247
 4760SOL    HW119218   1.884   4.280   5.423 -0.5152  0.5921 -1.5440
 4760SOL    HW219219   1.988   4.196   5.352 -0.0077  0.4933 -0.7022
 4761SOL     OW19220   0.576   1.645   3.937 -0.3500 -0.7200 -0.6091
 4761SOL    HW119221   0.665   1.611   3.943  0.0806  0.5929  1.1417
 4761SOL    HW219222   0.560   1.685   4.022 -1.2499  2.3404 -2.1094
 4762SOL     OW19223   1.462   6.748   1.093 -0.5013  0.0469  0.1004
 4762SOL    HW119224   1.395   6.816   1.085 -0.7280 -0.2049 -0.1982
 4762SOL    HW219225   1.420   6.680   1.145 -0.1358  0.3043  0.7427
 4763SOL     OW19226   2.882   7.979   7.959 -0.6429  0.3354  0.0084
 4763SOL    HW119227   2.964   8.028   7.952 -1.9036  3.0400  2.3084
 4763SOL    HW219228   2.908   7.894   7.995  1.2686  0.5779 -0.6913
 4764SOL     OW19229   1.342   3.683   9.012 -0.6586 -0.1428  0.5631
 4764SOL    HW119230   1.256   3.719   8.991  0.1455  2.7438  1.6912
 4764SOL    HW219231   1.382   3.667   8.926 -1.0548  1.8828 -0.0542
 4765SOL     OW19232   8.292   9.622  11.250  0.6007  0.1789 -0.4528
 4765SOL    HW119233   8.226   9.689  11.265 -0.6156 -1.1265  0.2697
 4765SOL    HW219234   8.264   9.548  11.304  1.2547 -1.3290 -2.0954
 4766SOL     OW19235   0.841  10.702   4.160 -0.2447 -0.3317 -0.1131
 4766SOL    HW119236   0.842  10.612   4.130  0.4454 -0.4509  0.2571
 4766SOL    HW219237   0.789  10.700   4.241 -1.7582 -0.0773 -1.0481
 4767SOL     OW19238   6.713   0.036   3.346 -0.1976  0.3408 -0.0307
 4767SOL    HW119239   6.807   0.033   3.332 -0.2336  0.0043 -0.2192
 4767SOL    HW219240   6.680   0.090   3.274 -0.1729  0.2745 -0.0918
 4768SOL     OW19241   5.148   2.887  10.967  0.6094 -0.5613 -0.0438
 4768SOL    HW119242   5.203   2.960  10.939  1.6802 -0.8257  1.2591
 4768SOL    HW219243   5.209   2.813  10.973  0.1008 -0.8972  1.3093
 4769SOL     OW19244   9.388   7.294   9.931 -0.3901  0.2857  0.6355
 4769SOL    HW119245   9.419   7.226   9.871 -2.1204  0.6459 -0.7415
 4769SOL    HW219246   9.441   7.370   9.912  0.2922 -0.1234  0.8681
 4770SOL     OW19247   5.039   4.992   5.272 -0.0133  0.8782 -0.2146
 4770SOL    HW119248   5.129   4.961   5.262 -0.7467 -1.1643 -1.0018
 4770SOL    HW219249   5.009   5.005   5.182 -0.1169  2.9149  0.0592
 4771SOL     OW19250   2.190   0.777   0.125  0.0892  0.0461  0.1121
 4771SOL    HW119251   2.166   0.837   0.196 -0.0798 -0.6271  0.6344
 4771SOL    HW219252   2.134   0.803   0.051  0.0079  0.5187  0.3384
 4772SOL     OW19253   5.767   6.983   9.634  0.1052 -0.0391  0.0010
 4772SOL    HW119254   5.818   7.001   9.714 -0.1449 -0.1950  0.1983
 4772SOL    HW219255   5.789   7.055   9.575  0.8281 -0.2921 -0.0515
 4773SOL     OW19256   0.121   3.149   4.423 -0.2317  0.3002  0.6230
 4773SOL    HW119257   0.139   3.240   4.446  2.5939  0.4793 -1.7267
 4773SOL    HW219258   0.046   3.154   4.363 -1.7095  0.7227  2.4078
 4774SOL     OW19259   0.425   9.733  11.572 -0.1607 -0.0245 -0.6751
 4774SOL    HW119260   0.384   9.757  11.655  1.1429  1.5724 -0.4406
 4774SOL    HW219261   0.355   9.740  11.507 -0.6425  1.1181 -0.0545
 4775SOL     OW19262   7.706   5.238   3.166  0.0995 -0.2564  0.2495
 4775SOL    HW119263   7.618   5.234   3.130 -0.9445 -0.0906  2.5916
 4775SOL    HW219264   7.747   5.314   3.125 -0.1909 -1.3073 -2.1314
 4776SOL     OW19265   4.191   0.276   0.834 -0.7523 -0.0233 -0.0597
 4776SOL    HW119266   4.216   0.358   0.877  1.6989 -1.0558  0.6992
 4776SOL    HW219267   4.183   0.214   0.906 -0.1959 -0.9744 -0.8020
 4777SOL     OW19268   2.251   1.683   3.582  0.3962 -0.1354  0.6608
 4777SOL    HW119269   2.315   1.627   3.539 -0.2647 -1.8328  1.7663
 4777SOL    HW219270   2.198   1.719   3.511  0.2945 -1.6261 -0.0387
 4778SOL     OW19271   1.867   0.738  10.492  0.1724  0.3340 -0.2622
 4778SOL    HW119272   1.954   0.702  10.474  0.4982  0.0464  1.6571
 4778SOL    HW219273   1.824   0.739  10.407  2.3888  1.4510 -1.4791
 4779SOL     OW19274   9.007   7.752  10.180 -0.1096 -0.2752 -0.1550
 4779SOL    HW119275   9.063   7.828  10.166 -1.6442  0.9797  0.3130
 4779SOL    HW219276   8.987   7.753  10.274 -0.5699 -0.9467 -0.2341
 4780SOL     OW19277   6.171   4.545   9.788 -0.4990  0.0355  0.2763
 4780SOL    HW119278   6.247   4.514   9.838  0.1162  0.0317 -0.6509
 4780SOL    HW219279   6.103   4.556   9.854  0.1420 -0.4802  1.0456
 4781SOL     OW19280   8.085   9.673   8.650  0.8937  0.1733 -0.5006
 4781SOL    HW119281   8.096   9.611   8.721  1.0175  0.5665 -0.1693
 4781SOL    HW219282   8.054   9.621   8.576 -2.9154  0.2698  0.8207
 4782SOL     OW19283   5.083   9.223   7.329 -0.2974  0.0329  0.0963
 4782SOL    HW119284   5.113   9.238   7.419 -1.0611  1.2726  0.1762
 4782SOL    HW219285   5.164   9.216   7.278  0.1426 -0.1370  0.8002
 4783SOL     OW19286   1.125   2.908   6.839 -0.4271  0.5738  0.7179
 4783SOL    HW119287   1.143   2.867   6.755 -0.5938  0.9009  0.5179
 4783SOL    HW219288   1.209   2.943   6.867 -0.2168 -0.1712  1.0433
 4784SOL     OW19289   4.080   6.497   5.102 -0.4692 -0.4919  0.2721
 4784SOL    HW119290   4.173   6.506   5.120 -0.5029 -1.2488  0.8760
 4784SOL    HW219291   4.044   6.585   5.115  0.0632 -0.3233  0.6024
 4785SOL     OW19292   6.903  10.195   3.599  0.1679 -0.3784  0.0214
 4785SOL    HW119293   6.809  10.211   3.590 -0.0190 -0.8369  1.0286
 4785SOL    HW219294   6.924  10.222   3.689  0.9244 -0.6318 -0.0690
 4786SOL     OW19295   1.837  10.963   0.094 -0.0164 -0.0120  0.2378
 4786SOL    HW119296   1.890  10.911   0.032  0.3835  0.2599  0.3443
 4786SOL    HW219297   1.882  11.047   0.098 -2.0066  1.2658 -1.8362
 4787SOL     OW19298   3.890  10.481  11.378 -0.1330  0.2847 -0.2692
 4787SOL    HW119299   3.876  10.386  11.383 -1.9254  0.5227 -0.1157
 4787SOL    HW219300   3.937  10.502  11.459 -1.4912 -0.2240  0.6980
 4788SOL     OW19301   3.551   0.121   4.341  0.8051 -0.0167 -0.2046
 4788SOL    HW119302   3.600   0.200   4.321  1.5238 -0.1010  1.1155
 4788SOL    HW219303   3.533   0.081   4.256  1.0399  1.1952 -0.8379
 4789SOL     OW19304  10.898   6.156   3.418  0.0781  0.2223 -0.2179
 4789SOL    HW119305  10.897   6.072   3.373 -0.6228  0.0949  0.0198
 4789SOL    HW219306  10.867   6.219   3.354  1.6822  0.5057 -0.7555
 4790SOL     OW19307   7.520   0.083   5.277  0.4606  0.9034  0.9774
 4790SOL    HW119308   7.450   0.141   5.245  1.1957  1.5341  0.4864
 4790SOL    HW219309   7.500   0.071   5.370 -1.3644 -0.4687  0.4761
 4791SOL     OW19310   2.579  11.013   3.261  0.0262  0.0318 -0.2673
 4791SOL    HW119311   2.643  10.963   3.312  0.9422  0.5846 -0.8279
 4791SOL    HW219312   2.573  10.967   3.177  0.4517  0.5230 -0.5787
 4792SOL     OW19313   4.810   5.677   8.175 -0.1443 -0.0747 -0.6118
 4792SOL    HW119314   4.722   5.691   8.211 -0.2323 -1.7354 -0.1214
 4792SOL    HW219315   4.866   5.665   8.251  0.1572 -0.9425 -0.9653
 4793SOL     OW19316   5.396  11.553   3.451  0.7673 -0.0331  0.0075
 4793SOL    HW119317   5.446  11.509   3.520  0.5918 -1.5710 -0.8204
 4793SOL    HW219318   5.307  11.521   3.462  0.5428  0.4656 -0.3309
 4794SOL     OW19319   4.981   8.776   9.336  0.2428  0.2058  0.0078
 4794SOL    HW119320   4.964   8.713   9.266 -0.9356 -0.2561  0.6808
 4794SOL    HW219321   4.985   8.723   9.416  0.6749  0.8311  0.4168
 4795SOL     OW19322   9.919   3.493   6.290  0.3501  0.0005  0.2621
 4795SOL    HW119323   9.886   3.446   6.213 -1.0141  0.6054  0.4480
 4795SOL    HW219324   9.907   3.432   6.363 -1.5920  0.6458  0.5343
 4796SOL     OW19325   2.540   6.018   8.406 -0.3132 -0.2549  0.6290
 4796SOL    HW119326   2.470   6.020   8.471 -0.7635  0.4154  0.1439
 4796SOL    HW219327   2.621   6.022   8.457 -0.6484 -0.1222  1.1605
 4797SOL     OW19328   4.294  11.281   2.930 -0.2338  0.0572  0.7592
 4797SOL    HW119329   4.202  11.295   2.951 -0.7282 -1.1752 -0.3999
 4797SOL    HW219330   4.341  11.344   2.983 -1.7394  0.5997  1.4990
 4798SOL     OW19331   2.916  10.766   1.019  0.7959 -0.1797  0.1499
 4798SOL    HW119332   2.888  10.780   0.929  0.2089  0.0389  0.3647
 4798SOL    HW219333   2.945  10.675   1.020 -2.1741 -1.2286  0.4719
 4799SOL     OW19334   7.428   5.563   7.159  0.1351  0.2179 -0.0770
 4799SOL    HW119335   7.448   5.474   7.130  0.1809  0.0965  0.3175
 4799SOL    HW219336   7.506   5.614   7.138  0.1151  0.1605 -0.2885
 4800SOL     OW19337  10.127   5.311   6.269 -0.2632 -0.2317  0.1019
 4800SOL    HW119338  10.118   5.348   6.182 -0.9879  0.8357  0.6042
 4800SOL    HW219339  10.137   5.387   6.327  0.6194 -0.9356  0.9100
 4801SOL     OW19340   2.670   7.329   4.258  0.0516 -0.2137 -0.1018
 4801SOL    HW119341   2.634   7.388   4.192 -0.6994  0.9020  1.2603
 4801SOL    HW219342   2.764   7.350   4.260 -0.0986  0.4558 -0.0926
 4802SOL     OW19343   4.916   9.021   4.360  0.0906 -0.3058 -0.2599
 4802SOL    HW119344   4.919   9.108   4.401  0.2947 -0.8812  0.9894
 4802SOL    HW219345   4.962   8.964   4.421 -1.2286 -1.5687 -0.4015
 4803SOL     OW19346   8.520   5.704   2.121 -0.0620 -0.5994  0.9271
 4803SOL    HW119347   8.610   5.730   2.104 -0.1359  0.7030  2.3073
 4803SOL    HW219348   8.519   5.609   2.107  1.2920 -0.5036  0.0344
 4804SOL     OW19349  11.226   4.488   9.510 -0.1751 -0.1499  0.2814
 4804SOL    HW119350  11.321   4.494   9.509 -0.0753 -1.1747  1.1352
 4804SOL    HW219351  11.195   4.577   9.496  0.9292  0.4538  1.5386
 4805SOL     OW19352  11.494   9.267   7.698 -0.1864 -0.0727 -0.0366
 4805SOL    HW119353  11.553   9.336   7.667  1.6382 -1.3693  0.4419
 4805SOL    HW219354  11.418   9.273   7.639 -0.0732  2.2582 -0.0625
 4806SOL     OW19355   0.321   4.333   6.436  0.1121 -0.7302 -0.4109
 4806SOL    HW119356   0.358   4.245   6.434 -0.1375 -1.0486  2.7825
 4806SOL    HW219357   0.227   4.320   6.451 -0.1015  0.0789 -0.9485
 4807SOL     OW19358   9.095   1.240  11.055 -0.8777  0.5732  0.4412
 4807SOL    HW119359   9.063   1.307  11.115  0.2762  1.5124  0.0481
 4807SOL    HW219360   9.162   1.194  11.105 -0.0417  1.2397 -0.0305
 4808SOL     OW19361   6.589   9.515   2.799 -1.1887 -0.0210 -0.3444
 4808SOL    HW119362   6.655   9.473   2.854 -1.0395  1.1222  0.3915
 4808SOL    HW219363   6.527   9.445   2.778 -0.2155 -0.9136 -0.3344
 4809SOL     OW19364   3.973   5.167   5.383  0.2259 -0.3172  0.1835
 4809SOL    HW119365   4.060   5.141   5.413  0.5468  1.3507  0.7875
 4809SOL    HW219366   3.962   5.256   5.416 -0.9527  0.1896 -1.4799
 4810SOL     OW19367   4.343   0.321   0.588 -0.2718  0.5469  0.0104
 4810SOL    HW119368   4.396   0.401   0.587  3.0081 -1.3604  1.8725
 4810SOL    HW219369   4.311   0.314   0.678 -1.2690  0.1459 -0.3528
 4811SOL     OW19370   1.258   2.753   8.369  0.2361  0.4978 -0.4084
 4811SOL    HW119371   1.174   2.720   8.399  0.3286  0.9203  0.3485
 4811SOL    HW219372   1.248   2.763   8.274  0.7117 -3.1656 -0.9980
 4812SOL     OW19373   1.922  11.004   6.356  0.4859 -0.0323  0.4966
 4812SOL    HW119374   1.905  11.054   6.276 -1.2503  1.6972  1.8399
 4812SOL    HW219375   2.018  11.001   6.362  0.6460  0.6096 -1.1481
 4813SOL     OW19376   3.255   6.153   6.059 -0.0922  0.4562 -0.0553
 4813SOL    HW119377   3.211   6.071   6.037 -0.9576  0.3778  1.7920
 4813SOL    HW219378   3.188   6.206   6.101  1.1563  0.9556  1.4123
 4814SOL     OW19379   2.311  10.450   8.579 -0.5039 -0.1338  0.0156
 4814SOL    HW119380   2.224  10.487   8.593 -0.3390  0.2255  0.0863
 4814SOL    HW219381   2.357  10.465   8.662 -1.1739 -2.5713  0.9482
 4815SOL     OW19382   2.149   3.107   5.517  0.1122 -0.3900 -0.3109
 4815SOL    HW119383   2.136   3.046   5.590 -0.5075 -0.4020 -0.4202
 4815SOL    HW219384   2.235   3.145   5.532 -0.6328  0.8342  1.3599
 4816SOL     OW19385   1.453   4.294   0.643 -0.4486 -0.5557 -0.3166
 4816SOL    HW119386   1.395   4.218   0.638 -1.1174  0.0003 -1.2808
 4816SOL    HW219387   1.479   4.310   0.552  2.3346 -1.6186  0.2064
 4817SOL     OW19388  10.140   2.157   7.868  0.0657 -0.3334  0.2882
 4817SOL    HW119389  10.198   2.232   7.884 -0.2015  0.1598 -0.9385
 4817SOL    HW219390  10.107   2.133   7.955  0.3042  0.8611  0.7237
 4818SOL     OW19391   4.158   7.159   9.220  0.0503  0.6322 -0.0889
 4818SOL    HW119392   4.114   7.144   9.304  0.3950  1.3052  0.2150
 4818SOL    HW219393   4.237   7.104   9.224  0.2459  0.9297  0.1742
 4819SOL     OW19394   2.706   4.860   8.351 -0.3881 -0.0638 -0.1779
 4819SOL    HW119395   2.751   4.797   8.295 -1.7790 -0.6669 -0.6366
 4819SOL    HW219396   2.768   4.933   8.359  0.8872 -1.0934 -0.3503
 4820SOL     OW19397   7.665   4.231   5.442  0.1471 -0.1156  0.4402
 4820SOL    HW119398   7.656   4.238   5.347 -1.4796  0.1006  0.5741
 4820SOL    HW219399   7.664   4.137   5.459  2.2405 -0.2288  0.1340
 4821SOL     OW19400   7.026  11.356   0.718  0.0024 -0.2374  0.2359
 4821SOL    HW119401   7.076  11.432   0.749  0.1095 -0.7361  1.3331
 4821SOL    HW219402   7.091  11.301   0.673 -0.0311  0.2050 -0.3621
 4822SOL     OW19403   9.127   8.360  10.066  0.0179 -0.5409 -0.4456
 4822SOL    HW119404   9.058   8.295  10.067  0.2074 -0.7362  0.0756
 4822SOL    HW219405   9.097   8.430  10.124  0.8262 -1.2315  0.8454
 4823SOL     OW19406   1.988   6.246   5.704  0.0548 -0.0414  0.1901
 4823SOL    HW119407   1.979   6.313   5.636  0.6622 -1.5250 -1.4381
 4823SOL    HW219408   2.009   6.166   5.656  3.5832 -0.6003  2.2905
 4824SOL     OW19409   2.427   8.327   2.553 -0.8336  0.3774  0.2095
 4824SOL    HW119410   2.475   8.256   2.596 -1.0767  1.5834  2.6291
 4824SOL    HW219411   2.494   8.376   2.506  0.2965  1.6108  2.9481
 4825SOL     OW19412  10.617   6.667   0.735  0.4536  0.2758  0.2958
 4825SOL    HW119413  10.626   6.758   0.762  0.8207  0.8175 -1.5795
 4825SOL    HW219414  10.557   6.669   0.661 -0.3343 -1.1485  0.8406
 4826SOL     OW19415   5.115   4.532   0.187  0.0903 -0.1591 -0.3883
 4826SOL    HW119416   5.155   4.475   0.252  0.5608 -0.1277 -0.6490
 4826SOL    HW219417   5.153   4.618   0.202  0.2485 -0.1642 -0.7438
 4827SOL     OW19418   3.643   3.462   8.939  0.3901  0.7068  1.0272
 4827SOL    HW119419   3.721   3.406   8.943  0.4497  0.3784 -2.1046
 4827SOL    HW219420   3.574   3.409   8.980  1.3378  0.0728  1.8429
 4828SOL     OW19421   8.260   3.882   2.263 -0.0097  0.0551  0.0960
 4828SOL    HW119422   8.317   3.927   2.201 -0.5141 -0.2745 -0.6271
 4828SOL    HW219423   8.297   3.794   2.269 -0.9257 -0.4290 -1.0512
 4829SOL     OW19424   3.111   3.334  11.553 -0.2450  0.3270 -0.8171
 4829SOL    HW119425   3.083   3.415  11.510  0.0609  0.8229 -0.1036
 4829SOL    HW219426   3.085   3.265  11.493 -1.3270  0.8949 -1.0324
 4830SOL     OW19427   9.543   7.999   6.861 -0.6496  0.2106 -0.0491
 4830SOL    HW119428   9.566   8.077   6.911  1.5141 -1.1316  1.2194
 4830SOL    HW219429   9.448   7.992   6.870 -0.6807  1.7161  1.2745
 4831SOL     OW19430   2.154   9.890   9.510  0.1086  0.3676 -0.1770
 4831SOL    HW119431   2.131   9.973   9.468 -0.8040 -0.1383 -0.6942
 4831SOL    HW219432   2.208   9.916   9.585 -0.7050  1.4764  0.0463
 4832SOL     OW19433   7.875   3.600   6.605 -0.0140  0.4689  0.1803
 4832SOL    HW119434   7.790   3.560   6.589  1.0742 -1.1259 -2.1626
 4832SOL    HW219435   7.923   3.533   6.655  1.6896 -1.2425 -3.4313
 4833SOL     OW19436   1.899   9.880   0.201  0.5743  0.2201 -0.2151
 4833SOL    HW119437   1.909   9.874   0.296 -0.7772 -0.6145 -0.0938
 4833SOL    HW219438   1.986   9.861   0.166  0.9093 -0.2305  0.8400
 4834SOL     OW19439   3.822   8.997   2.494 -0.0094 -0.4944  0.2162
 4834SOL    HW119440   3.804   8.950   2.575  1.8984 -0.0153  0.9668
 4834SOL    HW219441   3.845   9.085   2.522  1.3705 -0.5077 -0.7835
 4835SOL     OW19442   1.699   6.904   9.406  0.1927 -0.2560 -0.2745
 4835SOL    HW119443   1.614   6.874   9.374 -0.3017  1.7409 -0.9704
 4835SOL    HW219444   1.726   6.970   9.343  0.7186  1.4803  1.6767
 4836SOL     OW19445   4.052   4.515  10.521  0.1048 -0.1887  0.1862
 4836SOL    HW119446   4.109   4.476  10.455  0.3130  0.3626  0.0313
 4836SOL    HW219447   3.964   4.511  10.482  0.3480  0.9800 -0.5480
 4837SOL     OW19448   7.577   1.750   9.291 -0.0571 -0.3233  0.0092
 4837SOL    HW119449   7.519   1.780   9.360 -0.1155 -0.4393  0.0102
 4837SOL    HW219450   7.519   1.707   9.227  0.1043 -1.0788  0.3541
 4838SOL     OW19451   6.515   6.586   5.527  0.5841  0.1918 -0.0542
 4838SOL    HW119452   6.442   6.610   5.585  0.6513 -0.8755  0.5097
 4838SOL    HW219453   6.477   6.584   5.440  0.2469  0.9085  0.0705
 4839SOL     OW19454   7.707   5.385   9.633 -0.1402  0.5423  0.4473
 4839SOL    HW119455   7.763   5.357   9.560 -0.7333  1.3990 -0.3629
 4839SOL    HW219456   7.635   5.321   9.633  0.4319 -0.1044  0.9924
 4840SOL     OW19457   0.651   3.707   2.910  0.7218  0.0473  0.3278
 4840SOL    HW119458   0.702   3.762   2.969  0.7144 -1.8022  2.1890
 4840SOL    HW219459   0.564   3.746   2.909  1.0691  0.8461  0.4783
 4841SOL     OW19460   2.745   6.288   8.901  0.2148 -0.1921 -0.4318
 4841SOL    HW119461   2.820   6.344   8.888 -0.3365  0.3370 -1.4527
 4841SOL    HW219462   2.774   6.201   8.872  0.8927 -0.3384  0.6319
 4842SOL     OW19463   0.405   6.445   8.239 -0.0568 -0.3910  0.6594
 4842SOL    HW119464   0.380   6.537   8.244 -0.0949 -0.2887 -1.0185
 4842SOL    HW219465   0.468   6.441   8.167  0.2392 -1.6210  0.9633
 4843SOL     OW19466   4.913   9.094   1.926 -0.0189  0.3406 -0.0486
 4843SOL    HW119467   4.890   9.071   1.836 -0.7313 -1.4657  0.5382
 4843SOL    HW219468   4.867   9.028   1.979  2.6853 -0.4365  1.4805
 4844SOL     OW19469   6.759   7.816   3.772  0.1565 -0.4541  0.1045
 4844SOL    HW119470   6.813   7.748   3.732  0.0783 -0.0881 -0.6389
 4844SOL    HW219471   6.759   7.796   3.865  1.5534 -0.4783  0.1118
 4845SOL     OW19472   5.763   7.749   2.785  0.1245 -0.2767  0.3859
 4845SOL    HW119473   5.708   7.711   2.716  2.3217 -1.7402 -0.6592
 4845SOL    HW219474   5.715   7.828   2.812 -1.4960 -0.3796 -1.8566
 4846SOL     OW19475   8.704   8.109   7.178 -0.8689 -0.1457 -0.1214
 4846SOL    HW119476   8.786   8.086   7.221 -0.9345  0.4377  0.3276
 4846SOL    HW219477   8.707   8.204   7.169 -0.4828 -0.3051 -2.1865
 4847SOL     OW19478   7.749   3.238   0.640 -0.3841  0.0099  0.5636
 4847SOL    HW119479   7.769   3.201   0.555  0.7361  2.8781 -0.5492
 4847SOL    HW219480   7.688   3.176   0.680 -0.8000 -1.5096 -2.2179
 4848SOL     OW19481   8.687   7.917   5.056  0.6281  0.6023 -0.0715
 4848SOL    HW119482   8.633   7.994   5.038 -1.2801 -0.0047  2.4176
 4848SOL    HW219483   8.641   7.845   5.012  1.1485  0.5488 -0.5277
 4849SOL     OW19484   9.801   6.586   3.773 -0.5609  0.0273 -0.4865
 4849SOL    HW119485   9.826   6.579   3.681 -0.4848  0.9415 -0.5381
 4849SOL    HW219486   9.861   6.527   3.819 -2.5188 -2.8214 -1.3307
 4850SOL     OW19487   5.283   0.221   2.705 -0.2234 -0.0625 -0.0829
 4850SOL    HW119488   5.327   0.216   2.620  0.4879  1.6104  0.1343
 4850SOL    HW219489   5.293   0.313   2.731  0.8289 -0.8019  2.4523
 4851SOL     OW19490  11.501   3.475   8.976 -0.0259  0.3453  0.6508
 4851SOL    HW119491  11.580   3.524   8.997  1.5037 -2.2752  1.4534
 4851SOL    HW219492  11.527   3.414   8.907 -1.2393 -0.7597  1.1121
 4852SOL     OW19493   0.377   8.497  10.687  0.2606 -0.3151  0.0824
 4852SOL    HW119494   0.403   8.406  10.678 -0.1085 -0.7266  2.5099
 4852SOL    HW219495   0.456   8.543  10.713  0.3032 -0.0585 -0.4920
 4853SOL     OW19496   7.856   9.592   6.409  0.2761  1.2181  0.4662
 4853SOL    HW119497   7.776   9.571   6.457  0.3738  0.3151  0.2379
 4853SOL    HW219498   7.919   9.525   6.436  1.2448  2.4210  1.3183
 4854SOL     OW19499   9.614   4.984   3.956  0.2416 -0.9790  0.1240
 4854SOL    HW119500   9.626   5.040   3.880  0.6489 -0.8352  0.2936
 4854SOL    HW219501   9.560   5.036   4.015  1.5547 -0.2990  0.7609
 4855SOL     OW19502   1.244   7.051   7.217 -0.1714  0.3744  0.0324
 4855SOL    HW119503   1.226   7.122   7.278  0.9498  1.2593 -0.6399
 4855SOL    HW219504   1.233   6.971   7.270  0.3440  1.0987  1.2739
 4856SOL     OW19505   5.784   5.955   0.004  0.5180  0.1937 -0.2821
 4856SOL    HW119506   5.702   6.004  -0.007  1.9697  2.9278  0.3842
 4856SOL    HW219507   5.853   6.019  -0.011  2.6336 -2.2819 -1.9239
 4857SOL     OW19508   5.115   3.004   9.660 -0.0162  0.1510  0.4257
 4857SOL    HW119509   5.120   3.085   9.710 -1.1736 -0.4982  1.6641
 4857SOL    HW219510   5.027   3.003   9.623  0.7737  0.5441 -1.5672
 4858SOL     OW19511  10.212  11.386   7.739 -0.4215  0.2899 -0.8639
 4858SOL    HW119512  10.125  11.408   7.708 -0.0770  0.7513 -1.5235
 4858SOL    HW219513  10.251  11.335   7.669 -1.3680 -2.9824  0.8125
 4859SOL     OW19514   9.418   6.916   6.605  0.2848  0.4150  0.6514
 4859SOL    HW119515   9.417   6.985   6.670  0.5073 -0.4288  1.5789
 4859SOL    HW219516   9.368   6.951   6.531 -1.8777  0.6140  2.1094
 4860SOL     OW19517   1.765   3.671   4.074  0.1894 -0.1876 -0.4236
 4860SOL    HW119518   1.842   3.615   4.073  0.2063 -0.1634 -0.9271
 4860SOL    HW219519   1.783   3.737   4.006  0.0356  0.2419 -0.0542
 4861SOL     OW19520  10.263   8.361   0.431 -0.1617  0.0243  0.0748
 4861SOL    HW119521  10.218   8.331   0.510 -1.7169  1.0541 -0.3746
 4861SOL    HW219522  10.217   8.317   0.359 -0.3653  0.9680 -0.3843
 4862SOL     OW19523   6.128   3.202   1.134 -0.6238 -0.6302 -0.0596
 4862SOL    HW119524   6.044   3.246   1.148  1.0617  3.9348 -2.2091
 4862SOL    HW219525   6.156   3.174   1.221 -2.7568  0.9591  1.2333
 4863SOL     OW19526   9.584   5.674   6.217  0.0220 -0.0351  0.0680
 4863SOL    HW119527   9.502   5.655   6.171  0.6531  0.0414 -1.1241
 4863SOL    HW219528   9.573   5.633   6.303 -1.7919  1.1153  0.4457
 4864SOL     OW19529   7.800   1.153   0.476  0.0002 -0.1673 -0.2068
 4864SOL    HW119530   7.750   1.119   0.402  1.3393 -2.1447 -0.2765
 4864SOL    HW219531   7.887   1.116   0.466  0.1311 -0.8747  2.5772
 4865SOL     OW19532   9.858   3.562   4.566  0.0271  0.6203  0.5686
 4865SOL    HW119533   9.826   3.511   4.491 -0.5058 -0.9110  1.8026
 4865SOL    HW219534   9.782   3.570   4.623  0.2119  2.4732  0.6213
 4866SOL     OW19535   9.212   2.290   9.951 -0.5328  0.8244  0.2860
 4866SOL    HW119536   9.281   2.356   9.961 -1.9462  2.4617 -0.3611
 4866SOL    HW219537   9.214   2.241  10.033  0.9008  1.3090  0.5701
 4867SOL     OW19538   6.459   1.162   3.191 -0.0560  0.3467  0.4835
 4867SOL    HW119539   6.414   1.201   3.266  0.5593  1.1699  0.4456
 4867SOL    HW219540   6.541   1.128   3.228  0.1785  0.6182  0.2201
 4868SOL     OW19541   7.173  11.412   5.944  0.3105  0.2991  0.0862
 4868SOL    HW119542   7.124  11.367   6.013  2.1328  0.7453  1.7577
 4868SOL    HW219543   7.264  11.410   5.973  1.1099  0.9004 -2.1199
 4869SOL     OW19544   8.398   2.305   3.001  0.0984  0.7587 -0.3429
 4869SOL    HW119545   8.447   2.247   2.942  1.0540  1.8258 -0.6207
 4869SOL    HW219546   8.306   2.285   2.982  0.3315  1.6311 -2.8309
 4870SOL     OW19547   5.316  10.872   9.006  0.1544  0.2125 -0.4788
 4870SOL    HW119548   5.325  10.800   9.069 -3.1829  2.2080  2.7297
 4870SOL    HW219549   5.383  10.936   9.033  1.1902 -0.4316 -1.4528
 4871SOL     OW19550   5.546  11.671   2.937  0.3097  0.5099  0.3272
 4871SOL    HW119551   5.469  11.617   2.920 -1.8486  3.3609  0.3072
 4871SOL    HW219552   5.600  11.662   2.858  0.8933 -2.7245  0.9608
 4872SOL     OW19553   9.530   9.388   6.952  0.3657 -0.0258  0.2326
 4872SOL    HW119554   9.455   9.447   6.956  1.9626  2.2392 -1.0583
 4872SOL    HW219555   9.509   9.328   6.880  1.4727  3.3945 -3.3166
 4873SOL     OW19556   9.800  11.587   1.115  0.5608 -0.2779  0.0448
 4873SOL    HW119557   9.755  11.580   1.031  0.3956  0.7760  0.0358
 4873SOL    HW219558   9.841  11.501   1.128  0.3480 -0.5392 -0.9703
 4874SOL     OW19559   6.489  10.249   3.228 -0.7159 -0.1591  0.3739
 4874SOL    HW119560   6.543  10.268   3.304 -2.4332 -0.5911  1.7721
 4874SOL    HW219561   6.404  10.223   3.264 -1.3392 -1.2214 -1.6735
 4875SOL     OW19562   2.584   2.658   5.840  0.1746 -0.0042  0.1661
 4875SOL    HW119563   2.603   2.692   5.753 -0.9415 -0.3449 -0.2188
 4875SOL    HW219564   2.635   2.578   5.846  1.2080  0.6394  0.3058
 4876SOL     OW19565   1.968   1.475   2.196  0.3456  0.6344  0.1384
 4876SOL    HW119566   2.029   1.542   2.165  1.5715 -0.8280 -0.7029
 4876SOL    HW219567   1.977   1.402   2.135  0.7126 -1.2111  2.2455
 4877SOL     OW19568   3.025   6.722   9.732  0.0027 -0.5291  0.7275
 4877SOL    HW119569   3.004   6.783   9.662  2.8069 -0.7456 -0.4411
 4877SOL    HW219570   3.023   6.775   9.811  2.5470  1.2542 -0.2706
 4878SOL     OW19571  11.305   9.066   2.557  0.0755  0.5963 -0.4994
 4878SOL    HW119572  11.366   9.138   2.576 -0.3045  0.5763  0.9014
 4878SOL    HW219573  11.327   8.998   2.620  0.1787 -0.3994 -1.5626
 4879SOL     OW19574   3.917   4.260   5.533  0.0250  0.0735  0.0991
 4879SOL    HW119575   3.959   4.196   5.590 -0.1351 -0.3173 -0.2100
 4879SOL    HW219576   3.824   4.256   5.558 -0.3640 -1.4117 -1.3660
 4880SOL     OW19577   9.355   8.220   5.027 -0.8903  0.6129  0.3192
 4880SOL    HW119578   9.277   8.268   5.054 -0.9655  1.7262 -1.6073
 4880SOL    HW219579   9.322   8.145   4.978 -0.7596 -1.3053  2.9570
 4881SOL     OW19580   2.935   8.048   9.265 -0.0978  0.3503 -0.8343
 4881SOL    HW119581   2.965   8.128   9.222 -0.0178 -0.1139 -1.6704
 4881SOL    HW219582   3.008   8.023   9.322  1.0879 -0.6745 -2.7171
 4882SOL     OW19583   0.480   0.185   6.099 -0.0070  0.1579  0.0286
 4882SOL    HW119584   0.553   0.138   6.140 -1.2542 -0.3641  1.8095
 4882SOL    HW219585   0.507   0.276   6.098  0.5624  0.0128  0.9720
 4883SOL     OW19586   0.116   3.273  10.911 -0.2443 -0.3300 -0.0466
 4883SOL    HW119587   0.154   3.348  10.864 -0.0684  0.1639  0.8602
 4883SOL    HW219588   0.119   3.201  10.848  2.5805 -0.4410  0.0748
 4884SOL     OW19589   1.319  10.650  11.086 -0.0892 -0.2096 -0.1503
 4884SOL    HW119590   1.225  10.634  11.091  0.1683 -2.0267 -0.5597
 4884SOL    HW219591   1.327  10.732  11.038 -1.5196  1.3493  2.0755
 4885SOL     OW19592   7.753   0.165   0.530 -0.0528  0.6098 -0.4565
 4885SOL    HW119593   7.816   0.235   0.548 -0.1363  0.6520 -0.3264
 4885SOL    HW219594   7.733   0.175   0.437 -0.0317  0.7323 -0.4480
 4886SOL     OW19595   7.752   7.529   7.632  0.1630  0.3449 -0.5438
 4886SOL    HW119596   7.668   7.573   7.646  0.6293  0.8139  0.9809
 4886SOL    HW219597   7.730   7.451   7.581 -0.7688  2.0048 -2.8830
 4887SOL     OW19598   4.222  10.585   8.078 -0.3552  0.3474 -0.3580
 4887SOL    HW119599   4.263  10.500   8.092 -2.0463 -0.2221  1.6401
 4887SOL    HW219600   4.151  10.567   8.017  0.0580  0.6069 -0.9278
 4888SOL     OW19601   1.183   1.065   4.048 -0.6346 -0.5223 -0.5650
 4888SOL    HW119602   1.229   1.064   4.132  2.8832  0.0471 -2.2855
 4888SOL    HW219603   1.133   1.147   4.049 -0.5396 -0.4632  0.9304
 4889SOL     OW19604   1.949   4.791   2.210  0.0593  0.4080  0.3232
 4889SOL    HW119605   1.968   4.709   2.164  1.4248  1.0071 -0.2500
 4889SOL    HW219606   1.870   4.825   2.168  0.6751  0.4111 -0.8579
 4890SOL     OW19607   5.165   7.598  11.075 -0.0733 -0.7402  0.7754
 4890SOL    HW119608   5.138   7.543  11.148 -1.0411 -1.9181 -0.4226
 4890SOL    HW219609   5.106   7.674  11.079  1.4843  0.4615  2.6324
 4891SOL     OW19610  10.374   3.741   7.277  0.4190 -0.4869  0.6386
 4891SOL    HW119611  10.397   3.698   7.360  1.9420  0.6544  0.8386
 4891SOL    HW219612  10.292   3.787   7.296  0.7194 -0.2855  1.4973
 4892SOL     OW19613   3.975   5.255   7.730  0.6415 -0.3693  0.1780
 4892SOL    HW119614   3.919   5.177   7.736  0.8035 -0.5805 -0.8410
 4892SOL    HW219615   3.989   5.267   7.636  2.2501 -0.2809  0.3926
 4893SOL     OW19616  10.723  10.763   9.984  0.0128  0.3145  0.4197
 4893SOL    HW119617  10.628  10.757   9.982  0.1112 -2.9221 -0.2332
 4893SOL    HW219618  10.742  10.839  10.040 -2.9039  0.9861  0.6231
 4894SOL     OW19619   4.352   0.485   5.636 -0.2820 -0.9225  0.1740
 4894SOL    HW119620   4.264   0.472   5.672 -0.7175 -2.5993 -1.3602
 4894SOL    HW219621   4.354   0.577   5.609 -1.0987 -0.5321  1.3678
 4895SOL     OW19622   3.402   1.360   1.236  0.3909 -0.1292 -0.0547
 4895SOL    HW119623   3.493   1.389   1.226  0.1866  0.8148  0.6893
 4895SOL    HW219624   3.363   1.423   1.296  0.1204 -2.3585  2.2923
 4896SOL     OW19625  10.244   8.867   5.311  0.2038 -0.7261  0.6125
 4896SOL    HW119626  10.203   8.828   5.234 -2.0046  0.1888  1.2403
 4896SOL    HW219627  10.186   8.843   5.383  1.0662  0.2191  1.6508
 4897SOL     OW19628   3.883   1.647   0.036 -0.2372  0.0580  0.1172
 4897SOL    HW119629   3.833   1.567   0.052 -0.4656  0.3131  0.7468
 4897SOL    HW219630   3.832   1.694  -0.030 -0.5245  0.0405  0.3201
 4898SOL     OW19631   1.290   7.892   7.880 -0.2248  0.2452  0.2769
 4898SOL    HW119632   1.295   7.979   7.840  1.1501  1.3937  2.6875
 4898SOL    HW219633   1.259   7.909   7.969  0.8492 -1.6215  1.0715
 4899SOL     OW19634   7.042   5.402   5.733  0.5793 -0.2439  0.3787
 4899SOL    HW119635   7.119   5.406   5.788  0.8426  0.2069 -0.0200
 4899SOL    HW219636   6.970   5.381   5.793  0.9353 -0.2265  0.8113
 4900SOL     OW19637   9.066   1.377   9.422  0.6024 -0.0977  0.5719
 4900SOL    HW119638   8.978   1.376   9.386  0.5089  0.0451  0.7971
 4900SOL    HW219639   9.056   1.414   9.509  1.1530  1.7270 -0.1032
 4901SOL     OW19640   3.793   8.257   7.771  0.5888  0.0822 -0.1412
 4901SOL    HW119641   3.810   8.163   7.779 -2.3657 -0.5912 -0.5744
 4901SOL    HW219642   3.764   8.268   7.680  1.7928  1.6367 -0.3823
 4902SOL     OW19643  11.540   1.669   4.710 -0.8491  0.5009  0.2636
 4902SOL    HW119644  11.594   1.743   4.680  1.0233  0.2742  2.7403
 4902SOL    HW219645  11.587   1.591   4.681 -1.0492  0.2968  0.4816
 4903SOL     OW19646   8.254   0.553  10.587  0.0169 -0.5997  0.0557
 4903SOL    HW119647   8.323   0.615  10.608  0.0325 -0.9104  0.9569
 4903SOL    HW219648   8.273   0.525  10.497  0.6418 -0.1452  0.0416
 4904SOL     OW19649   0.503  10.764   5.323 -0.0656  0.4302  0.0688
 4904SOL    HW119650   0.550  10.838   5.363 -0.1871  0.8793 -0.5998
 4904SOL    HW219651   0.536  10.687   5.369 -0.4532  0.9566  1.2611
 4905SOL     OW19652   8.777   5.048   0.427 -0.6146  0.4068  0.0636
 4905SOL    HW119653   8.814   5.134   0.451 -0.8955  1.1122 -1.8491
 4905SOL    HW219654   8.685   5.067   0.407 -0.5079 -0.1944 -1.0500
 4906SOL     OW19655   3.333   6.086   3.846  0.5887  0.2044  0.1191
 4906SOL    HW119656   3.362   6.175   3.828 -0.1220  0.5822  0.7739
 4906SOL    HW219657   3.261   6.071   3.786  1.2091 -0.2256 -0.5354
 4907SOL     OW19658   9.163   0.425   1.656  0.3379  0.2551  0.3386
 4907SOL    HW119659   9.092   0.484   1.680  0.8212  0.8757  0.2676
 4907SOL    HW219660   9.123   0.338   1.658 -1.3907  0.8132 -3.1469
 4908SOL     OW19661   4.377   0.057   9.471 -0.5447 -0.1435  0.4035
 4908SOL    HW119662   4.361   0.114   9.545  0.0231  0.3081  0.1908
 4908SOL    HW219663   4.310  -0.011   9.476 -1.3570  0.6677  0.5293
 4909SOL     OW19664   7.381   4.454   2.738 -0.7015  0.1720 -0.6823
 4909SOL    HW119665   7.469   4.437   2.706 -0.3027 -0.6673  0.7747
 4909SOL    HW219666   7.393   4.517   2.810 -1.1844 -0.5965  0.0867
 4910SOL     OW19667   2.683   0.135  10.642  0.3601  0.2498  0.0514
 4910SOL    HW119668   2.706   0.045  10.665  1.0573  0.0208 -1.4482
 4910SOL    HW219669   2.602   0.128  10.593  0.1570  0.4924  0.3492
 4911SOL     OW19670  11.114   9.478   4.698 -0.3399  0.0681 -0.0197
 4911SOL    HW119671  11.033   9.526   4.716 -0.5559  0.6260 -2.1154
 4911SOL    HW219672  11.183   9.545   4.703  0.0246 -0.3831  1.6492
 4912SOL     OW19673   1.220   3.300   2.558 -0.1433  0.1136 -0.6918
 4912SOL    HW119674   1.188   3.227   2.503 -0.7632 -0.7626  0.7755
 4912SOL    HW219675   1.258   3.257   2.634  2.4465  1.2425 -1.2641
 4913SOL     OW19676   8.568   6.094   8.218 -0.1873 -0.0209 -0.0854
 4913SOL    HW119677   8.552   6.062   8.129 -1.7543  1.7852 -0.5166
 4913SOL    HW219678   8.499   6.054   8.270 -0.4091  0.3979 -0.0583
 4914SOL     OW19679   8.138   1.626  11.644 -0.2591  0.1801  0.4201
 4914SOL    HW119680   8.066   1.571  11.676  0.2682 -0.4360  0.5834
 4914SOL    HW219681   8.197   1.633  11.719 -0.6177  1.5079  0.5980
 4915SOL     OW19682   7.668   7.014  11.417  0.5038 -0.2203  0.3280
 4915SOL    HW119683   7.651   7.107  11.431  0.2994 -0.1424 -0.3682
 4915SOL    HW219684   7.709   6.984  11.498 -0.4713  0.2162  0.9973
 4916SOL     OW19685   2.829   7.693   6.255  0.7315  0.3738  0.0378
 4916SOL    HW119686   2.868   7.742   6.183 -0.3215 -1.1107 -1.6345
 4916SOL    HW219687   2.742   7.730   6.265  0.8965  0.6133  0.5870
 4917SOL     OW19688  10.871   4.445   9.757 -0.4349  0.4393  0.3080
 4917SOL    HW119689  10.831   4.531   9.766  0.0822  0.9626 -1.8656
 4917SOL    HW219690  10.963   4.458   9.781 -0.5202  0.2823  0.7469
 4918SOL     OW19691   9.983   3.018   3.786 -0.2989 -0.3282  0.5136
 4918SOL    HW119692  10.000   2.925   3.768 -0.9245 -0.8049  2.2318
 4918SOL    HW219693   9.891   3.021   3.812 -0.0005  0.6108  1.5133
 4919SOL     OW19694   8.718  11.272   8.297 -0.0574  0.6357  0.4483
 4919SOL    HW119695   8.673  11.190   8.317 -1.3536  1.0491 -0.5961
 4919SOL    HW219696   8.811  11.253   8.308 -0.4654 -0.1075  3.2146
 4920SOL     OW19697   4.067  11.522   8.215  0.1738  0.4113 -0.0139
 4920SOL    HW119698   4.099  11.515   8.305  0.3445 -1.2013 -0.1661
 4920SOL    HW219699   4.072  11.432   8.181 -1.7225  0.6456 -1.0135
 4921SOL     OW19700   6.870   4.154   6.411 -0.4291  0.2418 -0.1725
 4921SOL    HW119701   6.809   4.138   6.339 -1.6556  1.7655  0.4521
 4921SOL    HW219702   6.951   4.181   6.369 -0.4441 -0.9413 -1.0070
 4922SOL     OW19703   7.821   2.802   4.965 -0.1622 -0.6423  0.0129
 4922SOL    HW119704   7.726   2.799   4.975 -0.2702  0.2976 -0.5985
 4922SOL    HW219705   7.835   2.796   4.871  0.4745 -2.2394  0.1758
 4923SOL     OW19706   3.639  10.405  11.032  0.4212  0.1335 -0.4019
 4923SOL    HW119707   3.562  10.414  10.975 -0.5001 -0.3608  0.7377
 4923SOL    HW219708   3.637  10.483  11.087 -0.4447 -0.8468  1.0036
 4924SOL     OW19709   0.411   4.420   8.869 -0.1343  0.2630  0.0301
 4924SOL    HW119710   0.396   4.336   8.914  0.2444  0.2774  0.1846
 4924SOL    HW219711   0.490   4.405   8.817  1.0738  1.1028  1.5399
 4925SOL     OW19712   5.844   4.423   8.126 -0.3585  0.1662 -0.8545
 4925SOL    HW119713   5.752   4.400   8.118 -0.4263  0.4909 -1.0347
 4925SOL    HW219714   5.873   4.379   8.206 -0.3871 -0.8234 -1.3860
 4926SOL     OW19715   9.623  10.517   5.918  0.3607 -0.3458  0.4829
 4926SOL    HW119716   9.548  10.481   5.965  0.1850 -1.9245 -0.8990
 4926SOL    HW219717   9.655  10.587   5.974 -1.4620 -0.3659  1.6296
 4927SOL     OW19718   7.370   2.384   9.274  0.0575  0.0744  0.3593
 4927SOL    HW119719   7.354   2.342   9.359 -2.0667  1.1072  0.5368
 4927SOL    HW219720   7.463   2.370   9.258  0.3668 -0.7928  2.4996
 4928SOL     OW19721   4.064   4.959   6.085 -0.1445 -0.8110 -0.4740
 4928SOL    HW119722   4.099   4.897   6.148 -0.1586  0.4264  0.8071
 4928SOL    HW219723   3.969   4.953   6.096 -0.1309 -0.2423 -0.0090
 4929SOL     OW19724   6.487   0.644  11.203 -0.1708  0.4222 -0.3741
 4929SOL    HW119725   6.453   0.723  11.245 -0.4757 -0.1270  0.4333
 4929SOL    HW219726   6.532   0.676  11.125  1.5402  1.6149  1.0107
 4930SOL     OW19727   8.989   5.854   7.892 -0.3123  0.1917 -0.1391
 4930SOL    HW119728   9.044   5.838   7.815 -1.6607  1.4244 -1.4205
 4930SOL    HW219729   8.983   5.768   7.935  0.4709 -0.5309 -1.3894
 4931SOL     OW19730   0.688   2.634   2.187 -0.3706  0.4219 -0.1053
 4931SOL    HW119731   0.774   2.666   2.214 -1.1348  1.9640  0.6730
 4931SOL    HW219732   0.673   2.673   2.101 -0.6117  0.8085  0.1091
 4932SOL     OW19733  10.481   2.684   2.553  0.1540 -0.7113  0.4577
 4932SOL    HW119734  10.437   2.740   2.489  0.3983 -2.2088 -1.0763
 4932SOL    HW219735  10.563   2.729   2.573  1.0938 -1.2429 -1.9589
 4933SOL     OW19736   3.679   4.278   1.641 -0.0377  0.1058 -0.1791
 4933SOL    HW119737   3.708   4.244   1.557  1.8292  2.1135 -0.4376
 4933SOL    HW219738   3.759   4.309   1.684 -1.3311  2.5008  0.7105
 4934SOL     OW19739   7.730   3.291   9.522  0.2806  0.3839 -0.3429
 4934SOL    HW119740   7.737   3.196   9.513  2.0672  0.6070 -2.2021
 4934SOL    HW219741   7.801   3.315   9.581 -0.0460  0.5779 -0.0305
 4935SOL     OW19742   9.665   3.858  10.237  0.1165  0.1015 -0.5092
 4935SOL    HW119743   9.580   3.816  10.250 -0.8489  1.0004 -3.3433
 4935SOL    HW219744   9.644   3.949  10.216  1.8578  0.5662 -0.3954
 4936SOL     OW19745   8.629   6.093   9.558  0.1687  0.2593 -0.3504
 4936SOL    HW119746   8.611   6.177   9.517  1.8959  0.7093 -0.2752
 4936SOL    HW219747   8.683   6.114   9.634 -0.7415 -0.7980  0.6260
 4937SOL     OW19748   1.879   2.393   1.733  0.3868  0.2619 -0.8836
 4937SOL    HW119749   1.868   2.324   1.668 -0.8595  0.7293 -1.1991
 4937SOL    HW219750   1.876   2.348   1.817 -2.0565  0.0725 -1.0230
 4938SOL     OW19751   9.717   8.982   4.841  0.1475 -0.1944  0.3753
 4938SOL    HW119752   9.661   9.004   4.767 -0.0244 -2.6109 -0.2673
 4938SOL    HW219753   9.656   8.965   4.913  0.1311 -1.2253  0.1215
 4939SOL     OW19754  10.397   2.001   6.274 -0.4879 -0.3193 -1.0848
 4939SOL    HW119755  10.373   1.976   6.184  0.5036  2.2609 -2.1471
 4939SOL    HW219756  10.355   2.086   6.287 -1.2686 -0.9739  1.2606
 4940SOL     OW19757   5.407  11.115   7.638 -0.3074  0.0020  0.2370
 4940SOL    HW119758   5.475  11.096   7.702 -0.7632 -0.5861  0.5557
 4940SOL    HW219759   5.360  11.032   7.627 -0.1562  0.0683 -0.9527
 4941SOL     OW19760   9.139   7.724   3.790 -0.0400 -0.2875 -0.0779
 4941SOL    HW119761   9.114   7.785   3.720  1.0622 -0.3525 -0.5357
 4941SOL    HW219762   9.075   7.741   3.859  0.4804  1.7109 -0.0201
 4942SOL     OW19763   0.813   9.729   2.434 -0.3649  0.0639 -0.1957
 4942SOL    HW119764   0.799   9.718   2.528  1.3431  0.4193  0.1394
 4942SOL    HW219765   0.848   9.644   2.405  3.4820  1.2058  0.4725
 4943SOL     OW19766   3.445   6.385   5.446  0.7708 -0.2237 -0.2655
 4943SOL    HW119767   3.398   6.458   5.406  2.2281  1.4133  0.8682
 4943SOL    HW219768   3.519   6.369   5.388  0.5343 -0.7354 -0.4359
 4944SOL     OW19769  11.319   0.484  10.220 -0.1725  0.8370 -0.2526
 4944SOL    HW119770  11.237   0.514  10.181 -0.0737  0.5277 -0.6978
 4944SOL    HW219771  11.365   0.565  10.242  0.0606  1.0328 -1.3934
 4945SOL     OW19772   4.058   9.168   8.629  0.3096 -0.2442  0.1796
 4945SOL    HW119773   4.119   9.135   8.696  2.0010  2.4069  0.1107
 4945SOL    HW219774   4.111   9.172   8.549  0.6445  3.4105  0.4233
 4946SOL     OW19775   1.563   6.623   5.517  0.2642 -0.4301  0.2945
 4946SOL    HW119776   1.492   6.619   5.580 -1.3410  0.9750 -1.2841
 4946SOL    HW219777   1.643   6.608   5.568 -1.0124 -0.2426  2.4531
 4947SOL     OW19778   5.287   6.256   8.893 -0.5381  0.4457  0.0446
 4947SOL    HW119779   5.268   6.172   8.853  1.9917 -0.7589  1.1397
 4947SOL    HW219780   5.326   6.234   8.978  2.2190  2.5421 -0.5006
 4948SOL     OW19781   4.523   0.842   4.662 -0.1796  0.4378  0.0324
 4948SOL    HW119782   4.539   0.927   4.621  1.1710  1.0683  1.7310
 4948SOL    HW219783   4.599   0.828   4.718 -0.9662 -1.3226  0.7231
 4949SOL     OW19784   7.630   9.458   3.598  0.0034  0.3612 -0.7333
 4949SOL    HW119785   7.702   9.407   3.558 -0.0945 -0.9179  0.6350
 4949SOL    HW219786   7.663   9.548   3.600  2.4190 -0.4297  1.5170
 4950SOL     OW19787   9.128   8.214   5.206 -0.5831 -0.1581  0.2668
 4950SOL    HW119788   9.037   8.214   5.177 -0.3034 -0.8119 -0.6872
 4950SOL    HW219789   9.158   8.125   5.190  0.4627  0.2707 -0.2381
 4951SOL     OW19790  11.349   6.179   9.025  0.1217  0.4352 -0.0765
 4951SOL    HW119791  11.412   6.177   8.954  0.6217 -3.2927  0.2850
 4951SOL    HW219792  11.268   6.211   8.985  0.9347  0.4261 -1.7958
 4952SOL     OW19793   8.013   5.462   4.959 -0.6625 -0.0329 -0.2582
 4952SOL    HW119794   8.050   5.377   4.981 -0.5467 -0.0749 -0.6100
 4952SOL    HW219795   7.921   5.443   4.939 -0.8394  0.0449  0.4313
 4953SOL     OW19796   7.100   5.282   9.800  0.2650  0.1687 -0.5957
 4953SOL    HW119797   7.035   5.220   9.833 -0.3265  0.6457 -0.8362
 4953SOL    HW219798   7.048   5.358   9.772  0.8207  0.1281 -1.7943
 4954SOL     OW19799  11.074   7.339   3.649 -0.7155 -0.0644 -0.4699
 4954SOL    HW119800  11.009   7.407   3.634 -0.5494  0.6176  1.5708
 4954SOL    HW219801  11.140   7.353   3.581 -1.1332  1.2295 -0.6316
 4955SOL     OW19802   6.658   8.663   9.670  0.1384 -0.0552 -0.2830
 4955SOL    HW119803   6.627   8.754   9.675  0.6828  0.0979  0.5006
 4955SOL    HW219804   6.582   8.614   9.640 -1.0532  0.2467  1.9886
 4956SOL     OW19805  10.291   6.671   6.584  0.0916  0.5531 -0.0562
 4956SOL    HW119806  10.275   6.625   6.666  2.7879  0.6180  0.6029
 4956SOL    HW219807  10.366   6.624   6.545  1.3568  2.8302 -0.5487
 4957SOL     OW19808  10.125   3.207   4.174  0.1363  0.3565  0.6121
 4957SOL    HW119809  10.193   3.213   4.107  0.1499 -1.1068  0.4753
 4957SOL    HW219810  10.043   3.223   4.126  0.3001  1.2684  0.6218
 4958SOL     OW19811   8.067   4.843   3.567  0.3494  0.6510  0.0741
 4958SOL    HW119812   7.989   4.857   3.514  0.6282 -0.4942 -0.6898
 4958SOL    HW219813   8.056   4.755   3.604  0.7225  0.9577  0.9350
 4959SOL     OW19814   2.932  10.941   2.682 -0.5297  0.1929 -0.3032
 4959SOL    HW119815   2.981  10.880   2.626  0.3080 -0.1310  0.7440
 4959SOL    HW219816   2.841  10.913   2.673 -0.1026 -1.6576  0.6392
 4960SOL     OW19817   1.899  11.112   8.509 -0.2627  0.2934 -0.3003
 4960SOL    HW119818   1.851  11.190   8.480 -2.3419 -0.5074  0.8011
 4960SOL    HW219819   1.951  11.142   8.583 -0.6497  0.7583 -0.2095
 4961SOL     OW19820   3.764   6.575   2.806 -0.0594 -0.3537 -0.1039
 4961SOL    HW119821   3.740   6.490   2.843 -2.7333  0.1121 -0.5709
 4961SOL    HW219822   3.765   6.635   2.880 -1.2519 -0.2463 -0.1432
 4962SOL     OW19823  11.566   9.043   2.348 -0.6823  0.0660  0.1827
 4962SOL    HW119824  11.599   8.992   2.274 -1.7613 -2.2848  1.2010
 4962SOL    HW219825  11.504   8.984   2.391  0.3339  1.0747  3.2929
 4963SOL     OW19826   5.134   6.247   9.199  0.0169  1.2220  0.0661
 4963SOL    HW119827   5.158   6.297   9.277  0.6980  0.3365  0.4398
 4963SOL    HW219828   5.043   6.220   9.215  0.3323  0.5852  0.8002
 4964SOL     OW19829   4.253   1.226   6.882  0.3744  0.6721  0.1708
 4964SOL    HW119830   4.341   1.264   6.880  0.2864  1.0281  1.6882
 4964SOL    HW219831   4.221   1.244   6.971 -0.6174 -0.8300  0.1606
 4965SOL     OW19832   2.273   4.536   3.997  0.3267  0.4331 -0.2665
 4965SOL    HW119833   2.346   4.560   3.940  1.1595 -2.1660 -0.4134
 4965SOL    HW219834   2.313   4.483   4.066 -1.2820 -0.1876  0.2303
 4966SOL     OW19835   1.488   5.685   6.472  0.7509  0.5761  0.0102
 4966SOL    HW119836   1.395   5.710   6.471  0.9159  1.2064 -0.6766
 4966SOL    HW219837   1.508   5.672   6.565  0.2559  1.5506  0.2743
 4967SOL     OW19838   4.980   5.946   7.109 -0.1278  0.1127 -0.1625
 4967SOL    HW119839   4.901   5.954   7.163 -0.8352  1.3311 -1.3256
 4967SOL    HW219840   5.047   5.917   7.171 -1.4089 -0.7295  0.9049
 4968SOL     OW19841  10.166   6.931   5.429  0.2006  0.4701 -0.6560
 4968SOL    HW119842  10.223   6.941   5.506 -0.2881 -0.5577 -0.1507
 4968SOL    HW219843  10.227   6.913   5.357  0.6448  1.2123 -0.4808
 4969SOL     OW19844  10.529   2.902   9.527  0.2725  0.5399  0.0025
 4969SOL    HW119845  10.467   2.925   9.596  1.8850  1.5216  1.2121
 4969SOL    HW219846  10.587   2.978   9.521  0.0604  0.5802 -2.6269
 4970SOL     OW19847   4.349   1.125   2.333  0.3523  0.4412  0.3777
 4970SOL    HW119848   4.266   1.079   2.321  0.8897 -0.3669 -0.3871
 4970SOL    HW219849   4.324   1.217   2.344 -0.5950  0.3581 -0.8429
 4971SOL     OW19850   3.133   5.005   8.804  0.0515  0.0682 -0.1293
 4971SOL    HW119851   3.047   5.044   8.808  0.0392  0.1025 -0.6152
 4971SOL    HW219852   3.170   5.035   8.721  0.4277 -0.1511 -0.0487
 4972SOL     OW19853   1.929   6.416   1.204  0.2252  0.1188  0.2382
 4972SOL    HW119854   1.948   6.333   1.159 -1.1211  0.0840 -0.2825
 4972SOL    HW219855   2.016   6.452   1.222  0.8388 -1.1504  0.0121
 4973SOL     OW19856   3.348   6.015  10.666 -0.1752 -0.1047  0.0244
 4973SOL    HW119857   3.310   6.103  10.663 -0.0548 -0.0699 -0.8988
 4973SOL    HW219858   3.274   5.957  10.646 -0.3358 -0.2501  0.9947
 4974SOL     OW19859   0.532   0.233   0.289  0.2337  0.1462  0.1752
 4974SOL    HW119860   0.624   0.219   0.312  0.2592 -0.8413 -0.4422
 4974SOL    HW219861   0.527   0.210   0.196 -0.8820 -1.1504  0.5188
 4975SOL     OW19862   8.384   0.989   8.356 -0.2797  0.4885  0.2816
 4975SOL    HW119863   8.388   0.956   8.446  2.4089  2.3655  0.9750
 4975SOL    HW219864   8.396   1.084   8.365 -0.6907  0.8142 -2.0466
 4976SOL     OW19865   2.847  10.784   8.253  0.0787 -0.0878 -0.0460
 4976SOL    HW119866   2.884  10.803   8.167  0.8963 -1.7953 -0.1139
 4976SOL    HW219867   2.804  10.699   8.242  0.4856 -0.4935  1.3026
 4977SOL     OW19868   8.880  10.687   7.736 -0.4301 -0.4893 -0.4507
 4977SOL    HW119869   8.906  10.595   7.745  2.2855  0.2487  0.1152
 4977SOL    HW219870   8.902  10.727   7.820 -0.4737  0.9368 -1.0850
 4978SOL     OW19871   3.785   2.786   8.465  0.0071  0.1769 -0.4483
 4978SOL    HW119872   3.720   2.735   8.416  0.8846 -1.8445  0.3371
 4978SOL    HW219873   3.862   2.786   8.409  0.5434 -0.8637  0.2507
 4979SOL     OW19874   3.826   9.970  11.575  0.1549  0.0208  0.9883
 4979SOL    HW119875   3.887  10.038  11.604 -0.1869  0.0922  1.5656
 4979SOL    HW219876   3.821   9.980  11.480  0.9047  0.1283  0.9576
 4980SOL     OW19877   7.189   8.155   6.363 -0.1579  0.3443 -0.0057
 4980SOL    HW119878   7.265   8.117   6.321 -1.3678  0.0586 -2.0525
 4980SOL    HW219879   7.195   8.249   6.345  0.1233  0.4376  0.5505
 4981SOL     OW19880   4.076   0.717   2.977 -0.2792  0.3581 -0.0382
 4981SOL    HW119881   4.149   0.667   2.941  0.2677  1.2696 -0.2134
 4981SOL    HW219882   4.039   0.762   2.901 -0.9950 -0.0578  0.0578
 4982SOL     OW19883  11.259   4.123  11.194  0.3518  0.3896  0.1715
 4982SOL    HW119884  11.173   4.081  11.184  0.5370  0.4910 -2.7325
 4982SOL    HW219885  11.303   4.072  11.262 -1.4519 -0.6045  0.6545
 4983SOL     OW19886   4.977   3.971  11.082  0.2753  0.1704 -0.0597
 4983SOL    HW119887   4.962   4.053  11.128  1.2672  0.5509 -0.4087
 4983SOL    HW219888   5.046   3.927  11.131 -0.8229 -0.8685  0.6277
 4984SOL     OW19889   6.409   9.914   8.917  0.6281  0.0758  0.0397
 4984SOL    HW119890   6.407   9.825   8.953  1.0020 -0.0147 -0.1508
 4984SOL    HW219891   6.441   9.969   8.989 -2.2435  0.5361  1.0838
 4985SOL     OW19892   9.838   8.629   5.356 -0.0677  0.5668  0.0329
 4985SOL    HW119893   9.787   8.585   5.424 -0.7716 -0.1115 -0.8975
 4985SOL    HW219894   9.792   8.608   5.275  2.1649 -0.8529 -0.9698
 4986SOL     OW19895   2.839   3.520  10.029  0.4718 -0.0180 -0.0835
 4986SOL    HW119896   2.927   3.483  10.039  0.6153  0.0033 -1.1986
 4986SOL    HW219897   2.851   3.615  10.039  0.1574 -0.1582  2.4022
 4987SOL     OW19898   8.961   9.670   6.774  0.3837  0.3096 -0.2082
 4987SOL    HW119899   9.039   9.718   6.804  0.4344 -0.8019  1.5822
 4987SOL    HW219900   8.888   9.715   6.818  0.1558  0.3998 -0.6720
 4988SOL     OW19901   0.029   4.868   1.372 -0.0356 -0.2565  0.2187
 4988SOL    HW119902   0.046   4.783   1.412 -0.9140 -1.1047 -1.1491
 4988SOL    HW219903   0.103   4.883   1.313 -0.2017 -0.3679 -0.0174
 4989SOL     OW19904   7.542   7.190  11.659  0.2168 -0.0206  0.1402
 4989SOL    HW119905   7.528   7.208  11.752 -2.0709 -1.3404  0.1175
 4989SOL    HW219906   7.525   7.096  11.650  3.0635 -0.5099 -1.2095
 4990SOL     OW19907   4.618  11.050  10.036 -0.8060 -0.5081  0.2872
 4990SOL    HW119908   4.551  11.061  10.104  0.7604 -0.9672  1.9494
 4990SOL    HW219909   4.699  11.080  10.076 -0.0376  0.5066 -1.8580
 4991SOL     OW19910   1.033   8.541   5.606 -0.1382 -0.3359  0.1040
 4991SOL    HW119911   0.940   8.524   5.593 -0.5503  0.9808  1.0667
 4991SOL    HW219912   1.041   8.566   5.698  0.9806  0.5993 -0.2062
 4992SOL     OW19913   7.655   9.239   5.042  0.1483  0.6010 -0.1114
 4992SOL    HW119914   7.564   9.225   5.066 -0.3566 -0.8522 -2.6074
 4992SOL    HW219915   7.705   9.195   5.112 -1.1748 -1.7305 -0.5411
 4993SOL     OW19916   7.533   3.747   1.231  0.0564 -0.0064  0.0393
 4993SOL    HW119917   7.617   3.786   1.206  0.3518 -1.0316 -0.6670
 4993SOL    HW219918   7.468   3.795   1.180  0.2162  0.7386  0.5255
 4994SOL     OW19919   1.772   2.481   5.265  0.3824  0.2597 -0.2871
 4994SOL    HW119920   1.714   2.440   5.329  2.0651 -0.7227  0.6669
 4994SOL    HW219921   1.752   2.436   5.183 -2.3672  2.0761 -0.7638
 4995SOL     OW19922   9.950   9.463  10.804  0.5268 -0.1860 -0.2723
 4995SOL    HW119923  10.041   9.467  10.833  0.0535 -0.2840  1.3176
 4995SOL    HW219924   9.921   9.554  10.800  0.2839 -0.2134  0.6507
 4996SOL     OW19925   3.097   2.660   8.809  0.5105  0.5677 -0.4814
 4996SOL    HW119926   3.130   2.593   8.749  1.0921  0.1040  0.3401
 4996SOL    HW219927   3.003   2.643   8.814  0.7342 -0.5442  0.1372
 4997SOL     OW19928   7.942  10.569   3.858  0.4074  0.3137 -0.4465
 4997SOL    HW119929   7.998  10.497   3.829 -2.9555 -2.2526 -1.2333
 4997SOL    HW219930   7.927  10.621   3.779 -1.6712 -1.5981 -1.4516
 4998SOL     OW19931   3.573   8.182   8.128 -0.1841 -0.2766  0.2307
 4998SOL    HW119932   3.520   8.123   8.073  1.3350 -1.4739 -0.0155
 4998SOL    HW219933   3.524   8.264   8.128 -2.0341 -1.3092  0.0187
 4999SOL     OW19934  10.287   4.618   0.973  0.0160 -0.1018 -0.2580
 4999SOL    HW119935  10.225   4.650   0.908 -1.7211 -0.4154  1.1571
 4999SOL    HW219936  10.261   4.661   1.054  1.7049 -0.2209  0.3941
 5000SOL     OW19937   7.217   4.270   2.978 -0.1974 -0.2134 -0.3165
 5000SOL    HW119938   7.296   4.314   3.010  0.5725 -1.0390 -1.0222
 5000SOL    HW219939   7.245   4.225   2.898 -0.7378 -2.6025  0.7301
 5001SOL     OW19940  10.379   3.592   1.261 -0.5856  0.5287 -0.0007
 5001SOL    HW119941  10.402   3.685   1.253 -2.0055  0.9198  0.1732
 5001SOL    HW219942  10.405   3.568   1.350 -0.5563  0.8625  0.0834
 5002SOL     OW19943   1.657   9.178   4.672 -0.4120 -0.0320 -0.3900
 5002SOL    HW119944   1.678   9.207   4.761 -1.1993  0.4851 -0.3630
 5002SOL    HW219945   1.735   9.197   4.621  1.0662 -2.6438  0.6684
 5003SOL     OW19946   5.000  10.769   4.662 -0.3403  0.0964 -0.4940
 5003SOL    HW119947   4.963  10.824   4.731 -0.1366  0.3158 -0.5569
 5003SOL    HW219948   5.030  10.831   4.596  2.3408  0.1229  0.6070
 5004SOL     OW19949   9.304   5.780   9.579 -0.6599  0.3273  0.3868
 5004SOL    HW119950   9.308   5.695   9.535 -3.5578  1.4418 -2.3904
 5004SOL    HW219951   9.223   5.777   9.629 -0.9198  1.5556  0.0606
 5005SOL     OW19952   4.188   1.687  10.959  0.8356  0.0969 -0.0742
 5005SOL    HW119953   4.220   1.737  10.885 -2.2680  0.4857 -1.2903
 5005SOL    HW219954   4.096   1.671  10.939 -0.6927  1.7222  4.4490
 5006SOL     OW19955   1.411  11.686  11.366 -0.1487  0.7950  0.0757
 5006SOL    HW119956   1.319  11.714  11.359 -0.5539 -0.6700 -1.0701
 5006SOL    HW219957   1.418  11.649  11.455 -1.3723 -1.2578 -0.6123
 5007SOL     OW19958   8.061   6.018   3.167 -0.5129 -0.1071 -0.0647
 5007SOL    HW119959   7.969   6.047   3.162 -1.1267 -1.1290  2.9167
 5007SOL    HW219960   8.055   5.923   3.182  0.9949 -0.1563  0.3711
 5008SOL     OW19961   7.057   0.092   3.497  0.2692  0.7980 -0.2136
 5008SOL    HW119962   7.107   0.045   3.430 -0.1427  0.5474 -0.3507
 5008SOL    HW219963   6.988   0.030   3.523  0.6752  0.7404  0.7412
 5009SOL     OW19964   8.128   3.761   3.048  0.0803  0.0133 -0.2298
 5009SOL    HW119965   8.221   3.779   3.060  0.6987 -1.2823 -2.3922
 5009SOL    HW219966   8.101   3.718   3.129  1.3613  0.4027  0.4366
 5010SOL     OW19967   3.000   6.239  11.019 -0.0894  0.6433  0.6236
 5010SOL    HW119968   3.055   6.305  10.977 -2.7524  1.1502 -2.4868
 5010SOL    HW219969   2.918   6.285  11.039 -0.8728 -0.9667  1.3216
 5011SOL     OW19970   3.862   6.939  11.538 -0.5614  0.3278  0.1362
 5011SOL    HW119971   3.825   6.874  11.598 -1.6011  0.5927 -0.2059
 5011SOL    HW219972   3.927   6.891  11.487 -1.5807 -0.5446 -0.3724
 5012SOL     OW19973   1.152   1.018  10.196  0.4597 -0.0980  0.0792
 5012SOL    HW119974   1.166   1.004  10.102  0.4516  1.2132 -0.1437
 5012SOL    HW219975   1.110   0.938  10.227  1.2288 -0.8822 -0.8669
 5013SOL     OW19976   4.335   0.491   1.184 -0.1039  0.3063 -0.6032
 5013SOL    HW119977   4.245   0.460   1.198  0.3151 -0.6473  0.0670
 5013SOL    HW219978   4.374   0.426   1.126  0.3780  0.3122 -0.2899
 5014SOL     OW19979   4.682  10.034   7.381 -0.2209  0.5383 -0.0147
 5014SOL    HW119980   4.675  10.091   7.304 -0.9091  2.6440  1.5099
 5014SOL    HW219981   4.594  10.034   7.419 -0.4171 -2.1264 -0.2813
 5015SOL     OW19982   9.030   0.184   6.827  0.3566 -0.1924 -0.9041
 5015SOL    HW119983   8.954   0.177   6.884  0.6128  0.6193 -0.4352
 5015SOL    HW219984   9.030   0.276   6.799  1.9006  0.2014  0.1991
 5016SOL     OW19985   5.689   4.018   3.769  0.0592  0.2748 -0.8070
 5016SOL    HW119986   5.651   4.000   3.855 -1.4978 -0.3473 -1.5859
 5016SOL    HW219987   5.639   4.093   3.736  1.7197  1.5829 -0.5628
 5017SOL     OW19988   8.317   7.320   1.214  0.0989 -0.0632 -0.2295
 5017SOL    HW119989   8.222   7.328   1.204  0.1180 -0.2782 -0.6205
 5017SOL    HW219990   8.344   7.266   1.140  0.8797  2.2149 -1.7438
 5018SOL     OW19991   6.089   8.286  10.751 -0.0017 -0.5939 -0.4897
 5018SOL    HW119992   6.073   8.202  10.793  1.0370 -0.3103  0.4959
 5018SOL    HW219993   6.159   8.326  10.801 -1.2641  1.4007 -0.1805
 5019SOL     OW19994   9.147   1.669   0.767 -0.2499 -0.4487  0.0085
 5019SOL    HW119995   9.239   1.646   0.785 -0.5461 -1.6778  0.0416
 5019SOL    HW219996   9.150   1.762   0.743  0.7575  0.0915  1.9715
 5020SOL     OW19997   3.390   7.870   0.116 -0.3967  0.0514 -0.0907
 5020SOL    HW119998   3.406   7.781   0.148 -0.4991  0.6029  1.5566
 5020SOL    HW219999   3.340   7.858   0.036 -0.6477 -1.3651  0.2577
 5021SOL     OW20000   8.164  11.210  10.504 -0.5764 -0.1930  0.3670
 5021SOL    HW120001   8.215  11.197  10.584 -2.0917  0.7415  1.5444
 5021SOL    HW220002   8.177  11.302  10.481 -2.3244  0.3093  1.1865
 5022SOL     OW20003   5.520   8.865   4.887  0.1265  0.1488 -0.1381
 5022SOL    HW120004   5.599   8.813   4.905  0.1099  0.3033  0.4129
 5022SOL    HW220005   5.510   8.920   4.965  0.3097  1.1920 -0.8219
 5023SOL     OW20006   4.050   4.495   1.108 -0.1725  0.4096  0.0751
 5023SOL    HW120007   3.988   4.566   1.092 -0.2935  0.1177 -0.8535
 5023SOL    HW220008   4.136   4.535   1.095 -0.2542  0.3036 -0.9053
 5024SOL     OW20009   3.572   4.912  11.007  0.5991 -0.0883 -0.0850
 5024SOL    HW120010   3.509   4.860  11.056  1.1977 -0.1852  0.5915
 5024SOL    HW220011   3.657   4.875  11.030  1.0336  1.1412  0.3682
 5025SOL     OW20012   0.441   1.273   3.161  0.5575  0.0328  0.2544
 5025SOL    HW120013   0.510   1.238   3.105  0.5466  0.2602  0.0979
 5025SOL    HW220014   0.420   1.201   3.221  0.1417 -0.4181 -0.4280
 5026SOL     OW20015   3.233   9.457   2.453 -1.4855  0.5024 -0.0730
 5026SOL    HW120016   3.186   9.496   2.379 -0.2001  0.4833 -0.9251
 5026SOL    HW220017   3.187   9.491   2.531 -1.6956  2.0517 -0.8252
 5027SOL     OW20018   7.004   5.166   0.894 -0.0518 -1.2632  0.3416
 5027SOL    HW120019   7.015   5.083   0.942  2.9149 -1.5416 -0.6069
 5027SOL    HW220020   7.053   5.153   0.813 -0.4701  1.0521 -0.3418
 5028SOL     OW20021   1.392   4.241   2.254 -0.1615  0.5241 -0.4218
 5028SOL    HW120022   1.340   4.266   2.177  0.8910 -0.0581 -1.3588
 5028SOL    HW220023   1.462   4.306   2.257  0.4787 -0.1381 -0.6853
 5029SOL     OW20024   8.227   7.943   9.505  0.1398  0.2398  0.4896
 5029SOL    HW120025   8.223   8.037   9.486 -0.8457  0.1800  0.3533
 5029SOL    HW220026   8.302   7.934   9.564 -0.1855  1.2087  1.0745
 5030SOL     OW20027   0.720  10.994   9.336  0.2925 -0.2445 -0.2464
 5030SOL    HW120028   0.807  11.031   9.357 -0.5806  1.7910  0.0564
 5030SOL    HW220029   0.702  11.024   9.247 -0.5935  0.4130  0.1360
 5031SOL     OW20030   1.253   7.142   6.792  0.2948  0.1521  0.4430
 5031SOL    HW120031   1.200   7.097   6.727 -0.3198 -0.4618  1.3501
 5031SOL    HW220032   1.226   7.234   6.786 -0.5447 -0.0834  0.5857
 5032SOL     OW20033   9.858   9.187   7.084 -0.6539 -0.5293  0.2668
 5032SOL    HW120034   9.857   9.280   7.065 -0.1718 -0.9743 -2.3060
 5032SOL    HW220035   9.766   9.162   7.091 -0.8071 -0.0695 -0.1493
 5033SOL     OW20036   7.202   2.437   7.910 -0.4324  0.1849  0.0098
 5033SOL    HW120037   7.147   2.390   7.972 -1.6955  2.6168  0.8392
 5033SOL    HW220038   7.142   2.497   7.865  1.1183  1.2057 -0.7890
 5034SOL     OW20039   5.355   9.424   7.598  0.5110  0.4263 -0.7177
 5034SOL    HW120040   5.343   9.478   7.676 -0.0559  1.3454 -1.4109
 5034SOL    HW220041   5.274   9.435   7.548 -0.2387 -2.2218 -0.2495
 5035SOL     OW20042   4.248   0.748   3.912 -0.4005 -0.7486  0.3981
 5035SOL    HW120043   4.189   0.819   3.936  1.0785 -0.1521  2.5980
 5035SOL    HW220044   4.311   0.788   3.851  0.0033 -0.3444  1.0723
 5036SOL     OW20045   2.344   0.972   8.082  0.0080 -0.3143  0.0038
 5036SOL    HW120046   2.405   0.918   8.030 -1.9975 -0.9896 -1.7954
 5036SOL    HW220047   2.318   1.042   8.023 -0.0137  0.7130  1.1964
 5037SOL     OW20048   8.847   7.765   7.161 -0.4077  0.4400  0.0438
 5037SOL    HW120049   8.895   7.789   7.241 -0.6898 -0.4527  0.4935
 5037SOL    HW220050   8.759   7.743   7.192 -0.3426 -0.5305 -0.4184
 5038SOL     OW20051   4.635   5.240   3.579 -0.2430 -0.3454  0.5352
 5038SOL    HW120052   4.617   5.199   3.664  0.6833 -1.7194  0.1055
 5038SOL    HW220053   4.679   5.172   3.529  0.7291  0.9726 -0.4675
 5039SOL     OW20054   5.885   1.393   3.400 -0.0940  0.3277  0.8466
 5039SOL    HW120055   5.918   1.436   3.479 -0.4402  0.4040  0.9512
 5039SOL    HW220056   5.818   1.332   3.432 -0.0235  0.1375  0.6408
 5040SOL     OW20057   5.271   2.190   9.853 -0.2408 -0.4668 -0.2259
 5040SOL    HW120058   5.179   2.207   9.876  0.2171  0.4999  1.0107
 5040SOL    HW220059   5.270   2.178   9.758 -1.5884 -0.0765 -0.2831
 5041SOL     OW20060   3.274   0.249   2.035 -0.3577 -0.1786 -0.0535
 5041SOL    HW120061   3.235   0.328   2.072  1.0155  0.2072  0.6453
 5041SOL    HW220062   3.345   0.281   1.980 -1.3118 -0.8404 -1.7536
 5042SOL     OW20063   8.685   2.973   1.123  0.0325  0.3082  0.6806
 5042SOL    HW120064   8.762   2.967   1.068  1.1670  1.3117  2.0862
 5042SOL    HW220065   8.649   3.060   1.105  0.9845  1.0586  2.1675
 5043SOL     OW20066   1.460   8.038   5.277 -0.2415  0.0406  0.7247
 5043SOL    HW120067   1.477   8.066   5.187  2.7157 -1.9105  0.5033
 5043SOL    HW220068   1.489   8.112   5.331 -0.9255  0.7751  0.1100
 5044SOL     OW20069  10.105   7.639   8.870 -0.1135  0.6613  0.1537
 5044SOL    HW120070  10.109   7.574   8.940 -2.7034  1.2458  0.9196
 5044SOL    HW220071  10.192   7.634   8.829  0.1703 -2.4773  0.8499
 5045SOL     OW20072   2.720   8.018   6.144 -0.3138 -0.1393 -0.0759
 5045SOL    HW120073   2.807   7.980   6.129 -0.7141 -0.7203 -1.0839
 5045SOL    HW220074   2.722   8.051   6.234  0.4098 -1.5959  0.4643
 5046SOL     OW20075   5.424   4.209   7.792 -0.0539  0.1115  0.3330
 5046SOL    HW120076   5.373   4.183   7.715  0.1046 -0.9751  0.5722
 5046SOL    HW220077   5.359   4.237   7.856 -0.1622  1.4433 -0.3331
 5047SOL     OW20078   0.761   1.364   8.563 -0.3932 -0.6773 -0.4126
 5047SOL    HW120079   0.686   1.421   8.580 -0.6609 -0.3558 -2.3808
 5047SOL    HW220080   0.836   1.409   8.603 -0.7174  0.7453 -1.3276
 5048SOL     OW20081   8.733   4.846  11.521 -0.0313  0.1203  0.4863
 5048SOL    HW120082   8.784   4.927  11.534 -0.0351 -0.0354  1.5175
 5048SOL    HW220083   8.648   4.876  11.489  0.9075  0.3486 -2.0041
 5049SOL     OW20084   4.725   8.534   7.337  0.0130  0.0911  0.3282
 5049SOL    HW120085   4.775   8.460   7.303  1.1209  0.7310  0.5291
 5049SOL    HW220086   4.790   8.600   7.357 -0.8553  0.6880  1.2842
 5050SOL     OW20087   1.016  11.136   7.657 -0.1208  0.1739  0.1903
 5050SOL    HW120088   0.924  11.160   7.641  0.0051 -0.6789 -2.2614
 5050SOL    HW220089   1.011  11.068   7.724 -1.3288 -0.0896 -0.1302
 5051SOL     OW20090  11.098   3.714   4.972  0.2264  0.6604  0.0980
 5051SOL    HW120091  11.057   3.722   5.059  0.9309 -0.2557  0.5371
 5051SOL    HW220092  11.141   3.798   4.958  0.6568  0.5977  0.9438
 5052SOL     OW20093   2.115   2.517   0.047 -0.4285 -0.2673 -0.1494
 5052SOL    HW120094   2.087   2.575   0.118 -1.5766  1.7789 -2.1343
 5052SOL    HW220095   2.061   2.439   0.057 -0.0741 -0.3426  1.5717
 5053SOL     OW20096   4.814   3.757   8.810  0.0920  0.1535  0.3550
 5053SOL    HW120097   4.819   3.815   8.734  0.3061  0.7362  0.8043
 5053SOL    HW220098   4.750   3.691   8.786 -1.8289  1.8161  0.6320
 5054SOL     OW20099   2.836   7.687   4.362  0.5284  0.5499  0.4820
 5054SOL    HW120100   2.746   7.667   4.386  0.2419  0.4486 -0.5967
 5054SOL    HW220101   2.827   7.749   4.289  1.3411  0.9935  0.7461
 5055SOL     OW20102   5.303   6.976  10.629  0.5518 -0.3842  0.5136
 5055SOL    HW120103   5.373   6.915  10.607 -0.5748 -1.6500  0.2946
 5055SOL    HW220104   5.234   6.957  10.565  0.1936  1.1814  0.3922
 5056SOL     OW20105  10.063   5.928   1.418  0.4059 -0.5548  0.1131
 5056SOL    HW120106  10.056   5.909   1.325  1.1861 -0.0573 -0.0496
 5056SOL    HW220107  10.108   6.012   1.423 -1.4204  0.4154  0.8919
 5057SOL     OW20108   0.427   9.606  10.014 -0.2046 -0.2164  0.3762
 5057SOL    HW120109   0.521   9.613  10.027 -0.4080  1.6224  1.1884
 5057SOL    HW220110   0.418   9.570   9.926  1.2639  0.1846  0.0318
 5058SOL     OW20111   5.766  11.232   3.382  0.5742  0.6142 -0.0794
 5058SOL    HW120112   5.801  11.230   3.293  2.9551 -0.5562  0.8117
 5058SOL    HW220113   5.686  11.180   3.377  1.3505 -0.5203 -1.2788
 5059SOL     OW20114   0.061   6.455   2.085  0.2031 -0.0815  0.2670
 5059SOL    HW120115  -0.014   6.444   2.026  0.3584 -2.3242  0.3739
 5059SOL    HW220116   0.021   6.470   2.171 -0.0802  0.3797  0.0598
 5060SOL     OW20117   3.814  11.682   2.151  0.1880  0.0275  0.1893
 5060SOL    HW120118   3.885  11.714   2.095 -0.4340  1.6048  0.2546
 5060SOL    HW220119   3.756  11.635   2.091  1.3886 -1.5204  0.1822
 5061SOL     OW20120   0.909   9.909   8.873  0.4806 -0.0723 -0.1508
 5061SOL    HW120121   0.843   9.898   8.942  0.1662 -1.3597 -0.6241
 5061SOL    HW220122   0.992   9.893   8.916  0.2264 -1.8345 -0.2052
 5062SOL     OW20123   3.107   7.332   8.271 -0.1312  0.2498  0.3153
 5062SOL    HW120124   3.081   7.331   8.179  0.6378 -0.4508  0.0951
 5062SOL    HW220125   3.102   7.425   8.296  0.1196  0.5097 -0.5725
 5063SOL     OW20126   2.930   4.284   4.305  0.1536 -0.1053  0.0267
 5063SOL    HW120127   3.014   4.256   4.342 -0.2356  0.8595  1.7614
 5063SOL    HW220128   2.950   4.368   4.263  0.7923 -1.6338 -2.9316
 5064SOL     OW20129   8.278   6.935  10.458  0.5499  0.3406  0.0624
 5064SOL    HW120130   8.214   6.884  10.507  0.2542  0.2739 -0.3867
 5064SOL    HW220131   8.275   7.022  10.498  0.3003  0.2898  0.1526
 5065SOL     OW20132   0.068   7.956  10.653 -0.2031  0.8446 -0.6680
 5065SOL    HW120133  -0.004   7.940  10.715  0.6826 -2.0794 -0.2079
 5065SOL    HW220134   0.028   7.945  10.567 -0.1330 -2.6606 -0.4149
 5066SOL     OW20135   2.274   6.125  11.104 -0.6365  0.0438 -0.0016
 5066SOL    HW120136   2.350   6.150  11.157 -0.2328 -0.7978 -0.1582
 5066SOL    HW220137   2.258   6.033  11.128 -0.2559 -0.4637 -1.5454
 5067SOL     OW20138  10.778   2.105  10.904  0.4423 -0.2365 -0.3053
 5067SOL    HW120139  10.686   2.117  10.927  1.1759  2.8380  1.5649
 5067SOL    HW220140  10.823   2.180  10.942  3.5262 -0.6443 -2.7070
 5068SOL     OW20141  11.282   3.273   5.550  0.3574  0.2162 -0.5142
 5068SOL    HW120142  11.260   3.316   5.468 -0.7150 -1.2311 -1.0038
 5068SOL    HW220143  11.232   3.192   5.551  0.5847  0.0293  1.4250
 5069SOL     OW20144   3.121   2.996   1.480  0.1338 -0.2746  0.0693
 5069SOL    HW120145   3.127   3.089   1.502 -1.8068 -0.2379  0.6349
 5069SOL    HW220146   3.211   2.963   1.489  0.3608  0.8299  3.2777
 5070SOL     OW20147  10.380   8.208   3.655  0.0786 -0.0303  0.5930
 5070SOL    HW120148  10.289   8.181   3.646  0.0611 -0.1980  1.2413
 5070SOL    HW220149  10.375   8.295   3.696  0.2001  0.0921  0.3483
 5071SOL     OW20150   5.953   6.793   7.749  0.2278  0.3842 -0.0752
 5071SOL    HW120151   5.933   6.853   7.820 -1.3753 -2.2169  1.8709
 5071SOL    HW220152   5.873   6.790   7.696 -0.0633 -0.6316  0.3848
 5072SOL     OW20153   8.138   8.595  11.172 -0.0710 -0.2770  0.2937
 5072SOL    HW120154   8.144   8.501  11.191 -2.4427 -0.5650 -0.0295
 5072SOL    HW220155   8.165   8.602  11.080 -2.1517 -1.0786 -0.4477
 5073SOL     OW20156   5.763   6.244   6.501  0.3247 -0.2261 -0.1209
 5073SOL    HW120157   5.759   6.322   6.556  1.1141  0.7376 -1.3690
 5073SOL    HW220158   5.725   6.271   6.417 -0.7139 -1.6121 -0.1522
 5074SOL     OW20159   4.951   8.163   9.032  0.5870  0.2492 -0.4579
 5074SOL    HW120160   4.953   8.133   9.123  1.0123 -1.1638 -0.9110
 5074SOL    HW220161   4.866   8.133   9.000  0.5850  0.4381 -0.6240
 5075SOL     OW20162   2.331   3.868   9.538 -0.1173 -0.0719  0.3577
 5075SOL    HW120163   2.293   3.941   9.586  1.7989 -0.0561  1.9792
 5075SOL    HW220164   2.272   3.795   9.553 -2.1464  1.0699 -1.3950
 5076SOL     OW20165  11.452   4.740   5.924  0.0002  0.4174 -0.1378
 5076SOL    HW120166  11.443   4.835   5.914  0.2951  0.5664  0.8422
 5076SOL    HW220167  11.443   4.725   6.018 -1.3198 -0.6814 -0.3991
 5077SOL     OW20168   1.801   9.162   5.979  0.0966  0.6875  0.4339
 5077SOL    HW120169   1.763   9.206   5.903 -0.2750 -0.9560 -0.3715
 5077SOL    HW220170   1.731   9.104   6.010  0.9905 -0.2941  0.6629
 5078SOL     OW20171   3.427   2.863   0.530  0.3341 -0.7363  0.3039
 5078SOL    HW120172   3.379   2.832   0.452  1.2617 -0.1386 -0.5303
 5078SOL    HW220173   3.458   2.783   0.572 -1.4692 -1.1505  0.9435
 5079SOL     OW20174   6.878   4.387  10.684  0.2609  0.1506  0.2267
 5079SOL    HW120175   6.819   4.360  10.614  1.7060 -2.1062 -0.2547
 5079SOL    HW220176   6.926   4.462  10.648 -0.6140  0.4772 -0.2877
 5080SOL     OW20177   1.506   0.713   3.283  0.3246  0.5573  0.4849
 5080SOL    HW120178   1.591   0.747   3.310  0.7849  0.0331 -0.2830
 5080SOL    HW220179   1.520   0.620   3.266 -0.1548  0.6640 -0.6090
 5081SOL     OW20180   1.507   5.712   5.825  0.5734  0.2593  0.3633
 5081SOL    HW120181   1.487   5.653   5.897 -0.7017 -0.7035 -0.7207
 5081SOL    HW220182   1.422   5.736   5.789  1.1855 -0.0577 -1.4019
 5082SOL     OW20183   9.248   5.273   7.523  0.1944  0.2092  0.4255
 5082SOL    HW120184   9.284   5.240   7.606 -0.5637 -1.6278  0.0678
 5082SOL    HW220185   9.154   5.255   7.529  0.2611 -0.8374 -1.2211
 5083SOL     OW20186   8.265   2.768   2.693  0.7442  0.1211  0.0036
 5083SOL    HW120187   8.230   2.826   2.760  1.2664  0.4978 -0.0406
 5083SOL    HW220188   8.349   2.738   2.729  0.4265 -0.6884  0.0705
 5084SOL     OW20189   5.594   1.256   1.470  0.1195  0.9575 -0.8299
 5084SOL    HW120190   5.658   1.299   1.526  0.7618  0.1912 -0.9574
 5084SOL    HW220191   5.646   1.198   1.415 -0.8156 -1.3826  0.5896
 5085SOL     OW20192   1.776  11.310   8.362  0.1099  0.4295 -0.0103
 5085SOL    HW120193   1.681  11.310   8.345  0.6473 -1.4908 -4.2687
 5085SOL    HW220194   1.808  11.389   8.318  0.7269 -0.2881 -0.8754
 5086SOL     OW20195   6.313   1.978   7.277 -0.3708  0.5233 -0.3822
 5086SOL    HW120196   6.315   1.923   7.199 -0.2764  0.4708 -0.3439
 5086SOL    HW220197   6.361   2.057   7.252  0.4200  0.1374 -0.1092
 5087SOL     OW20198   5.632  11.012   2.212 -0.5488  0.0683 -0.2689
 5087SOL    HW120199   5.636  10.964   2.295 -0.8182  0.3040 -0.1177
 5087SOL    HW220200   5.713  10.990   2.167 -0.4854 -0.2053 -0.0203
 5088SOL     OW20201   4.728   5.621   6.176 -0.3215  0.2391 -0.3000
 5088SOL    HW120202   4.790   5.574   6.121 -0.6675  0.2222 -0.6795
 5088SOL    HW220203   4.652   5.563   6.182 -1.0096  1.0040 -1.2925
 5089SOL     OW20204  11.380  10.033   5.083  0.1148  0.2396 -0.2025
 5089SOL    HW120205  11.350  10.108   5.133 -1.1696  0.3743 -1.1414
 5089SOL    HW220206  11.417  10.070   5.003  1.6634 -0.0074  0.3542
 5090SOL     OW20207   2.676   6.881   7.398  0.2384  0.0027  0.2086
 5090SOL    HW120208   2.599   6.892   7.454  1.1792  2.8579  1.0878
 5090SOL    HW220209   2.722   6.806   7.435 -1.2610 -0.7127  0.6804
 5091SOL     OW20210  10.252   9.131   6.436 -0.1025  0.4828  0.1565
 5091SOL    HW120211  10.193   9.147   6.362 -0.8414  0.3216  0.6959
 5091SOL    HW220212  10.328   9.186   6.418  0.4039 -0.7086 -1.4725
 5092SOL     OW20213   8.424   7.733   5.152  0.3001 -0.3061 -0.2393
 5092SOL    HW120214   8.336   7.735   5.113  0.4598  0.9627 -0.5514
 5092SOL    HW220215   8.484   7.738   5.078  0.6833 -2.0106 -0.0898
 5093SOL     OW20216   9.227   8.416   9.811  0.4475 -0.7303 -0.4907
 5093SOL    HW120217   9.189   8.337   9.773 -1.2186  0.4462 -1.3904
 5093SOL    HW220218   9.202   8.413   9.903 -1.5513 -0.2298 -0.9607
 5094SOL     OW20219   6.827   8.161   6.328  0.1052  0.0544  0.3665
 5094SOL    HW120220   6.884   8.146   6.404 -0.6256  0.7165  1.0721
 5094SOL    HW220221   6.836   8.255   6.310 -0.0741 -0.0145 -0.0802
 5095SOL     OW20222   6.722   1.436   9.118  0.4610  0.1748 -0.6871
 5095SOL    HW120223   6.696   1.521   9.083  1.0158  0.4802 -0.3803
 5095SOL    HW220224   6.651   1.377   9.095 -0.6627  1.0543  0.4286
 5096SOL     OW20225   3.987   2.928   3.644 -0.1701 -0.4472  0.5151
 5096SOL    HW120226   3.895   2.955   3.645  0.5502  2.5514 -1.5534
 5096SOL    HW220227   4.037   3.009   3.648  2.3532 -1.7812 -0.9286
 5097SOL     OW20228   9.524   2.098   7.007 -0.1291 -0.3062  0.2097
 5097SOL    HW120229   9.450   2.069   6.955 -0.4681  0.3994  0.2917
 5097SOL    HW220230   9.591   2.121   6.943 -0.1983 -0.3660  0.1158
 5098SOL     OW20231   1.621   6.339   9.252 -0.4724  0.1572  0.6642
 5098SOL    HW120232   1.653   6.370   9.168  0.0866  1.8130  1.4418
 5098SOL    HW220233   1.670   6.258   9.267 -1.3613 -0.7532 -1.0467
 5099SOL     OW20234   5.954   2.883   7.151  0.2090 -0.0865 -0.2549
 5099SOL    HW120235   5.979   2.840   7.069 -1.3948 -0.2667 -0.6874
 5099SOL    HW220236   6.027   2.865   7.210  0.9456 -0.8176 -1.3293
 5100SOL     OW20237   4.269   9.676  10.273 -0.3531 -0.7901 -0.2626
 5100SOL    HW120238   4.295   9.589  10.305  1.6039 -0.4055 -0.6556
 5100SOL    HW220239   4.256   9.728  10.352 -0.1769 -1.0979 -0.0294
 5101SOL     OW20240   0.537   4.414   2.657  0.3265 -0.2667 -0.0564
 5101SOL    HW120241   0.477   4.471   2.609  0.9028  0.7048  0.3330
 5101SOL    HW220242   0.514   4.326   2.630  0.2025  0.2162 -1.6348
 5102SOL     OW20243   1.043   0.251   9.700  0.3665  0.0043 -0.5677
 5102SOL    HW120244   1.062   0.312   9.772  1.6521  0.3338 -1.1582
 5102SOL    HW220245   1.098   0.281   9.628 -1.1210 -0.1319 -1.8175
 5103SOL     OW20246   2.819   1.809   6.194  0.6987 -0.1554  0.5497
 5103SOL    HW120247   2.878   1.846   6.128 -0.0487  0.2712  0.0941
 5103SOL    HW220248   2.740   1.864   6.188 -1.1134 -2.6940 -1.2483
 5104SOL     OW20249  10.133  11.505   1.338  0.2099 -0.3618  0.0376
 5104SOL    HW120250  10.162  11.594   1.317 -0.8444  0.2585  1.1253
 5104SOL    HW220251  10.091  11.474   1.258 -0.7317  0.6904  0.1020
 5105SOL     OW20252   3.528   3.988   1.656 -0.1919  0.1052  0.1473
 5105SOL    HW120253   3.613   4.006   1.696 -0.4919  2.0088  0.0221
 5105SOL    HW220254   3.467   4.045   1.704 -1.2236 -0.4716 -0.4459
 5106SOL     OW20255   3.675   5.188   7.874 -0.3815 -0.0306  0.2292
 5106SOL    HW120256   3.726   5.141   7.939 -1.2745 -2.3313 -0.6335
 5106SOL    HW220257   3.592   5.206   7.918 -0.1508  0.4941  0.4586
 5107SOL     OW20258   1.968  10.420   4.993  0.0415  0.2611 -0.2898
 5107SOL    HW120259   1.985  10.331   4.965 -0.3659  0.4874 -1.3089
 5107SOL    HW220260   1.998  10.424   5.083  2.6067 -0.1457 -1.0656
 5108SOL     OW20261   2.883   2.248   9.693  0.0695 -0.1905  0.2893
 5108SOL    HW120262   2.920   2.215   9.775  1.9120 -2.4222 -1.2963
 5108SOL    HW220263   2.848   2.170   9.649 -1.5088  1.0427 -0.7954
 5109SOL     OW20264   1.012   7.099   4.340 -0.3786 -0.0015  0.5399
 5109SOL    HW120265   1.098   7.085   4.379 -1.2353 -0.8843  2.2418
 5109SOL    HW220266   1.000   7.194   4.343  0.0328  0.0326  1.4584
 5110SOL     OW20267   0.041   3.177   8.117 -0.1923 -0.4080 -0.6828
 5110SOL    HW120268   0.106   3.106   8.113 -0.6894 -0.9014 -0.3153
 5110SOL    HW220269  -0.024   3.153   8.051 -1.1430 -1.1125  0.4717
 5111SOL     OW20270   6.500   4.054   7.363 -0.0843 -0.3060  0.0338
 5111SOL    HW120271   6.428   3.997   7.337 -0.8062 -0.3145  1.8897
 5111SOL    HW220272   6.476   4.141   7.330  0.3873 -0.7759 -1.6566
 5112SOL     OW20273   2.388   0.809   9.806  0.0683 -0.2013 -0.4308
 5112SOL    HW120274   2.406   0.718   9.781 -0.1657  0.0331 -1.4826
 5112SOL    HW220275   2.338   0.802   9.887 -0.2009 -1.0208 -0.6598
 5113SOL     OW20276   1.252   2.038  10.510 -0.0744  0.3080 -0.3886
 5113SOL    HW120277   1.247   1.951  10.550 -1.7880  0.3170 -0.5208
 5113SOL    HW220278   1.250   2.099  10.584 -0.5579  0.2674 -0.3675
 5114SOL     OW20279   5.974  10.095   0.410 -0.8399  0.1721 -0.0351
 5114SOL    HW120280   6.054  10.101   0.358 -1.3338 -0.1685 -0.8627
 5114SOL    HW220281   6.005  10.086   0.500  0.0235  1.3881 -0.1904
 5115SOL     OW20282   5.609   1.821   9.185  0.5462  0.1945  0.2371
 5115SOL    HW120283   5.630   1.779   9.101 -0.8097 -1.8140  0.8330
 5115SOL    HW220284   5.575   1.908   9.160  0.5121 -0.2138 -1.2615
 5116SOL     OW20285   3.611   8.237   1.970 -0.0463 -0.0197  0.4322
 5116SOL    HW120286   3.598   8.235   1.876 -1.5093  0.1755  0.6142
 5116SOL    HW220287   3.591   8.327   1.996  2.1748  0.4515  0.7197
 5117SOL     OW20288   0.844   0.057   9.592 -0.3909  0.3169  0.0293
 5117SOL    HW120289   0.920   0.105   9.625 -1.6923  2.5251  0.0407
 5117SOL    HW220290   0.779   0.125   9.573 -1.4953 -1.2738 -2.3600
 5118SOL     OW20291   5.355   1.770  11.050  0.1383 -0.1371 -0.3439
 5118SOL    HW120292   5.394   1.757  10.963 -2.6178  0.1772 -1.7379
 5118SOL    HW220293   5.373   1.861  11.071 -0.5751  0.2591 -1.3788
 5119SOL     OW20294   9.890   8.590  11.480  0.0744 -0.6746 -0.3524
 5119SOL    HW120295   9.956   8.527  11.451 -1.2347 -1.9299 -0.7256
 5119SOL    HW220296   9.846   8.547  11.552 -0.5907 -0.0106 -0.3518
 5120SOL     OW20297   0.593   8.170   7.025 -0.1019 -0.2644  0.5587
 5120SOL    HW120298   0.553   8.252   7.053  0.0263  0.2432 -0.6729
 5120SOL    HW220299   0.650   8.195   6.952  0.4822 -1.3476  0.6218
 5121SOL     OW20300   9.027   3.922  10.550  0.3101  0.0075  0.4295
 5121SOL    HW120301   8.932   3.909  10.555  0.3164  0.0695  0.8094
 5121SOL    HW220302   9.063   3.852  10.605  0.4783  0.0430  0.3642
 5122SOL     OW20303   2.022   6.573   4.913 -0.2820 -0.0747  0.1201
 5122SOL    HW120304   2.048   6.486   4.942 -0.3114  0.0175  0.4218
 5122SOL    HW220305   2.104   6.618   4.895 -0.2663 -0.7437 -1.7923
 5123SOL     OW20306   8.743   1.866   5.911 -0.0305  0.2214 -0.0906
 5123SOL    HW120307   8.671   1.820   5.954  1.7846 -1.7055  1.0508
 5123SOL    HW220308   8.814   1.865   5.975  1.0960  1.8921 -1.2449
 5124SOL     OW20309   2.885  10.872  10.228  0.0263 -0.1095 -0.1933
 5124SOL    HW120310   2.979  10.887  10.243  0.2045  0.5913 -1.8138
 5124SOL    HW220311   2.842  10.941  10.280  0.3826 -0.5071  0.6525
 5125SOL     OW20312   9.284   5.490   5.840 -0.1258  0.3123  0.0427
 5125SOL    HW120313   9.361   5.435   5.821  0.1699  0.5186  0.6452
 5125SOL    HW220314   9.248   5.510   5.753  0.8724  0.7503 -0.2852
 5126SOL     OW20315   2.088  10.745   4.022 -0.0207 -0.3013  0.2874
 5126SOL    HW120316   2.006  10.697   4.013 -1.1662  1.4107  1.1302
 5126SOL    HW220317   2.107  10.778   3.934  0.3714 -1.6091 -0.1340
 5127SOL     OW20318   3.423   5.607   9.514 -0.0249  0.2929  0.2528
 5127SOL    HW120319   3.429   5.593   9.608  1.7558  3.8471  0.8337
 5127SOL    HW220320   3.378   5.691   9.505 -0.6853 -0.2350 -2.1467
 5128SOL     OW20321   1.432   5.639   3.456 -1.1172  0.0805  0.2542
 5128SOL    HW120322   1.469   5.721   3.489 -1.9299  0.2455  0.7892
 5128SOL    HW220323   1.468   5.629   3.368  0.2568  0.1787  0.7950
 5129SOL     OW20324  10.297   5.996   6.599  0.6720  0.0625  0.0820
 5129SOL    HW120325  10.388   6.013   6.576  0.6393  0.6197  0.3345
 5129SOL    HW220326  10.249   6.007   6.517  0.9976 -1.7685 -0.4047
 5130SOL     OW20327  11.690   2.356   2.188  0.5619 -0.0816 -0.3224
 5130SOL    HW120328  11.732   2.407   2.257  0.4604 -0.8500  0.3076
 5130SOL    HW220329  11.761   2.337   2.126  0.3130  2.1459 -1.4014
 5131SOL     OW20330   2.255   6.167   9.418 -0.4064 -0.9366  0.3999
 5131SOL    HW120331   2.309   6.199   9.345  0.9774 -1.7544  1.0425
 5131SOL    HW220332   2.240   6.245   9.472 -0.3172 -0.5963 -0.0561
 5132SOL     OW20333   4.992   7.202   0.451 -0.0205  0.0870  0.0312
 5132SOL    HW120334   5.018   7.197   0.359 -0.1166  0.7537 -0.0342
 5132SOL    HW220335   4.899   7.225   0.449 -0.3781 -1.2249  0.2834
 5133SOL     OW20336   5.305  10.220   3.733  0.1482 -0.3485 -0.1603
 5133SOL    HW120337   5.214  10.242   3.712  0.5190 -0.7750 -2.5476
 5133SOL    HW220338   5.342  10.190   3.650  2.4057 -0.4758  0.8121
 5134SOL     OW20339   7.169   2.052   5.267  0.7506  0.4924 -0.0876
 5134SOL    HW120340   7.122   2.005   5.336  1.3570 -1.0582 -0.6882
 5134SOL    HW220341   7.107   2.119   5.237  0.3235  0.9001  1.6348
 5135SOL     OW20342   3.356   0.187   3.758 -0.1833  0.4593  0.6266
 5135SOL    HW120343   3.351   0.095   3.783 -2.0112  0.0265 -1.0381
 5135SOL    HW220344   3.315   0.234   3.831 -0.8971 -0.2407  0.6882
 5136SOL     OW20345   6.053   8.817   9.279 -0.0982 -0.4392 -0.1464
 5136SOL    HW120346   6.072   8.909   9.261 -2.9123  0.2471  0.0569
 5136SOL    HW220347   6.079   8.804   9.371  1.5078 -0.2613 -0.5410
 5137SOL     OW20348   4.295   4.432   0.262  0.4869  0.1633 -0.5484
 5137SOL    HW120349   4.367   4.485   0.295  1.4476 -0.7956 -1.0519
 5137SOL    HW220350   4.318   4.342   0.285  0.6614 -0.4179 -2.7676
 5138SOL     OW20351   2.090   2.575   1.747  0.7046  0.5707  0.0829
 5138SOL    HW120352   2.016   2.515   1.758  2.1006 -1.5097 -1.1748
 5138SOL    HW220353   2.050   2.655   1.711 -1.2199  0.5208  1.9174
 5139SOL     OW20354   8.850   2.306  11.168 -0.0355  0.1953  0.0191
 5139SOL    HW120355   8.886   2.233  11.118 -0.4477  0.2639 -0.3900
 5139SOL    HW220356   8.762   2.277  11.193  0.5403 -0.2535  1.6187
 5140SOL     OW20357   8.679   3.147   4.243  0.4193 -0.3330 -0.2503
 5140SOL    HW120358   8.603   3.093   4.218 -0.7113  1.3372 -0.5596
 5140SOL    HW220359   8.643   3.212   4.303  1.4627  0.9248 -0.9420
 5141SOL     OW20360   9.191   7.984  10.137 -0.1669  0.0934 -0.1748
 5141SOL    HW120361   9.266   8.044  10.135 -0.5996  0.8303  2.1587
 5141SOL    HW220362   9.120   8.036  10.174 -1.3963 -1.0622 -0.8159
 5142SOL     OW20363   5.387   0.320   7.631 -0.3763  0.7481  0.3228
 5142SOL    HW120364   5.336   0.320   7.550 -0.3587 -0.3799  0.2876
 5142SOL    HW220365   5.425   0.408   7.637 -1.6562  1.3499 -0.0718
 5143SOL     OW20366   4.468   4.778   4.511  0.5108 -0.4334 -0.5222
 5143SOL    HW120367   4.523   4.752   4.438  0.2328  1.1972 -1.3562
 5143SOL    HW220368   4.485   4.871   4.523  1.9949 -0.9668  2.7650
 5144SOL     OW20369   8.846   9.587   9.563  0.1994  0.4912  0.1036
 5144SOL    HW120370   8.890   9.640   9.631  1.5748  0.5433 -0.7923
 5144SOL    HW220371   8.824   9.505   9.608 -0.4568  1.1562  1.0572
 5145SOL     OW20372   5.584  10.629  10.193  0.3299  0.1564 -0.6025
 5145SOL    HW120373   5.493  10.656  10.202  0.8076  1.3983  1.0074
 5145SOL    HW220374   5.586  10.576  10.113 -1.9877 -0.8078 -0.1010
 5146SOL     OW20375  10.855   7.810   4.591 -0.1181  0.1562  0.0828
 5146SOL    HW120376  10.858   7.717   4.570 -1.5558 -0.1589  1.0841
 5146SOL    HW220377  10.942   7.830   4.626  0.3572 -0.6856 -0.5886
 5147SOL     OW20378   8.131   7.459   6.098 -0.6572 -0.1632 -0.1637
 5147SOL    HW120379   8.151   7.526   6.032 -0.7452 -1.0151 -1.0691
 5147SOL    HW220380   8.058   7.409   6.061 -1.1566 -0.2470  0.8799
 5148SOL     OW20381   8.896   7.891   6.283 -0.2152 -0.0870  0.2704
 5148SOL    HW120382   8.879   7.913   6.192 -0.2257 -0.7690  0.1051
 5148SOL    HW220383   8.923   7.974   6.323 -0.0147  0.1727 -0.3942
 5149SOL     OW20384   5.151   1.237   7.034 -0.3559 -0.3184 -0.7537
 5149SOL    HW120385   5.216   1.263   7.101 -2.2077 -0.3671  1.1670
 5149SOL    HW220386   5.134   1.145   7.052 -1.7638 -0.0283 -0.4464
 5150SOL     OW20387   1.615   4.175  10.339 -0.2128 -0.4417  0.2161
 5150SOL    HW120388   1.547   4.136  10.394 -2.9472  1.2812 -1.6553
 5150SOL    HW220389   1.631   4.110  10.271  1.0265 -1.3851  1.3786
 5151SOL     OW20390   1.958   6.329  10.358 -0.0778  0.1620 -0.0414
 5151SOL    HW120391   1.892   6.292  10.416  0.4944  0.3666  0.7551
 5151SOL    HW220392   1.988   6.255  10.305  1.2513 -0.6400  1.7189
 5152SOL     OW20393   8.425   0.865   1.917  0.4532  0.3185 -0.4758
 5152SOL    HW120394   8.373   0.924   1.971  2.9936  3.9147 -1.6145
 5152SOL    HW220395   8.372   0.851   1.839 -0.5430  0.3932  0.1680
 5153SOL     OW20396   2.252   0.625   9.255  0.2098  0.1831  0.1842
 5153SOL    HW120397   2.166   0.582   9.248  0.5859 -0.4975 -0.3923
 5153SOL    HW220398   2.312   0.554   9.278  0.8375  0.3937 -0.7561
 5154SOL     OW20399  10.162   7.174   2.868  0.4953  0.7162 -0.5517
 5154SOL    HW120400  10.112   7.146   2.791  0.1030 -1.5190  0.4336
 5154SOL    HW220401  10.184   7.265   2.850 -0.8942  0.7240 -2.6170
 5155SOL     OW20402   4.645   9.891   8.790  0.1198 -0.1859  0.4916
 5155SOL    HW120403   4.723   9.938   8.759  0.1450 -0.2771  0.4163
 5155SOL    HW220404   4.577   9.958   8.794 -0.3501 -0.4802 -1.4138
 5156SOL     OW20405   8.974   7.251  11.079 -0.3318  0.1748 -0.7043
 5156SOL    HW120406   8.946   7.230  11.168 -1.3889 -1.3266 -1.3553
 5156SOL    HW220407   9.070   7.254  11.084 -0.2793 -1.6167  0.1508
 5157SOL     OW20408   5.811   2.327   8.802  0.5190  0.0917 -0.0516
 5157SOL    HW120409   5.901   2.312   8.830  0.4995  0.3027  0.1242
 5157SOL    HW220410   5.774   2.239   8.793  0.3834  0.0267  1.0290
 5158SOL     OW20411   0.672   6.466   9.331 -0.1550 -0.0953 -0.1018
 5158SOL    HW120412   0.697   6.546   9.377 -0.7952 -1.6982  3.3124
 5158SOL    HW220413   0.605   6.426   9.387 -1.4806 -1.9656 -2.8166
 5159SOL     OW20414   1.928   9.689  11.254 -0.4687 -0.1775  0.0616
 5159SOL    HW120415   1.901   9.729  11.337  0.8797 -0.5175  0.6970
 5159SOL    HW220416   1.851   9.640  11.225 -1.0011  0.0311  1.0652
 5160SOL     OW20417   8.026   6.950   1.074  0.3588  0.2772 -0.0153
 5160SOL    HW120418   8.116   6.969   1.100 -0.0485  1.5230  0.5248
 5160SOL    HW220419   7.995   7.030   1.031 -0.9108  0.3663  0.9853
 5161SOL     OW20420   4.396   1.582   5.028  0.2424  0.3357  0.1706
 5161SOL    HW120421   4.421   1.560   4.939  0.9830 -1.6531  0.8100
 5161SOL    HW220422   4.435   1.669   5.043  2.9140 -0.6502 -0.4266
 5162SOL     OW20423   6.234  10.603   6.690  0.3039 -0.1031  0.2551
 5162SOL    HW120424   6.175  10.562   6.627 -0.5001  2.6861 -1.0021
 5162SOL    HW220425   6.213  10.561   6.774 -0.3625 -2.1817 -0.8853
 5163SOL     OW20426   1.704   8.463  10.500  0.0899 -0.2846  0.2245
 5163SOL    HW120427   1.731   8.512  10.577  1.7692 -1.0404  0.1613
 5163SOL    HW220428   1.666   8.529  10.441 -1.4338  0.2620  1.7361
 5164SOL     OW20429   7.997  10.848   4.501  0.1837 -0.3718 -0.1750
 5164SOL    HW120430   7.997  10.943   4.495 -2.3376 -0.3099 -0.2385
 5164SOL    HW220431   8.026  10.829   4.590 -2.1807  0.6556  0.9010
 5165SOL     OW20432   8.475   7.629   6.443 -0.5753 -0.0388 -0.8803
 5165SOL    HW120433   8.509   7.647   6.530  0.2592  1.2841 -1.4467
 5165SOL    HW220434   8.537   7.671   6.384 -1.5147 -0.2836 -2.0857
 5166SOL     OW20435   9.262  10.511   8.584  0.4226 -0.0480  0.4556
 5166SOL    HW120436   9.314  10.582   8.547  0.3539  1.6384  3.2725
 5166SOL    HW220437   9.319  10.472   8.650 -0.8976  0.0341  1.6926
 5167SOL     OW20438   7.921   3.730   8.650 -0.2611 -0.6816 -0.1985
 5167SOL    HW120439   7.840   3.724   8.599 -1.2760 -1.1323  1.3788
 5167SOL    HW220440   7.982   3.673   8.605 -1.1983 -1.2570 -0.7762
 5168SOL     OW20441   2.283  10.135   4.909 -0.2345 -0.0578 -0.5080
 5168SOL    HW120442   2.348  10.194   4.870  0.4074  0.3283  1.0557
 5168SOL    HW220443   2.335  10.064   4.947 -0.7258  0.1415  0.5713
 5169SOL     OW20444   3.403   9.270   0.759  0.1035  0.4526 -0.0106
 5169SOL    HW120445   3.443   9.237   0.839 -0.2360  0.1615  0.0452
 5169SOL    HW220446   3.402   9.365   0.770 -0.1344  0.4035  0.4300
 5170SOL     OW20447  11.379   7.749   2.445  0.3586 -0.5185  0.7246
 5170SOL    HW120448  11.290   7.713   2.442 -0.0793  0.5391  0.6072
 5170SOL    HW220449  11.393   7.783   2.356  0.2474  0.7874  1.1959
 5171SOL     OW20450   1.478   5.868   2.612 -0.5321  0.0185  0.5413
 5171SOL    HW120451   1.545   5.932   2.589 -1.3029  0.2278 -1.2318
 5171SOL    HW220452   1.528   5.790   2.637  0.3908  0.8652  1.4741
 5172SOL     OW20453   7.544   3.131  11.004 -0.1304  0.2638 -0.0764
 5172SOL    HW120454   7.567   3.216  11.042  3.2644 -0.4548 -0.2453
 5172SOL    HW220455   7.573   3.136  10.913  0.9212 -1.2994  0.1292
 5173SOL     OW20456   6.109   7.333   6.848  0.0287  0.3213  0.3309
 5173SOL    HW120457   6.126   7.419   6.809  0.8418 -0.0410 -0.1529
 5173SOL    HW220458   6.053   7.288   6.785 -0.1783  0.4016  0.4573
 5174SOL     OW20459   8.602  11.015   8.341  0.3495 -0.0642  0.1579
 5174SOL    HW120460   8.515  11.051   8.326  0.9601  1.0643 -0.7949
 5174SOL    HW220461   8.606  10.939   8.284 -0.8113 -1.5431  1.9100
 5175SOL     OW20462  10.792   3.962   0.850 -0.4773  0.2820 -0.6290
 5175SOL    HW120463  10.806   3.877   0.807 -1.6185  0.0934 -0.6567
 5175SOL    HW220464  10.823   3.949   0.939 -0.8699 -0.2545 -0.5607
 5176SOL     OW20465  11.263  11.204   2.741  0.2309  1.1431 -0.1582
 5176SOL    HW120466  11.337  11.200   2.801  0.7764  0.3655 -0.8632
 5176SOL    HW220467  11.213  11.281   2.769 -1.5660 -1.1317  3.5885
 5177SOL     OW20468   0.606   7.506   5.603 -0.0041 -0.3602  0.0388
 5177SOL    HW120469   0.624   7.495   5.509 -0.5328 -1.0993  0.0158
 5177SOL    HW220470   0.527   7.560   5.606 -0.6823 -1.3261  0.0194
 5178SOL     OW20471   1.407   6.184   1.352  0.3122 -0.2080  0.0317
 5178SOL    HW120472   1.408   6.118   1.282  1.9590  0.0953 -0.2780
 5178SOL    HW220473   1.449   6.260   1.313  2.4848 -0.4527  1.7218
 5179SOL     OW20474   2.993   8.523   2.130 -0.5120 -0.6423  0.4109
 5179SOL    HW120475   2.973   8.445   2.182  0.7556 -1.3598 -0.1329
 5179SOL    HW220476   3.034   8.489   2.051  0.4475  0.5838  0.3567
 5180SOL     OW20477   8.471  11.384   8.065 -0.3388 -0.2058  0.5525
 5180SOL    HW120478   8.393  11.433   8.090 -1.4721 -1.9266  0.5127
 5180SOL    HW220479   8.438  11.301   8.032  1.4747 -0.6243 -0.3264
 5181SOL     OW20480   2.835  10.084   7.049 -0.1036 -0.0166  0.0814
 5181SOL    HW120481   2.835  10.046   7.136 -1.0415 -1.9632 -0.7004
 5181SOL    HW220482   2.751  10.132   7.044 -0.6519 -0.9822 -0.1635
 5182SOL     OW20483   8.466   8.620  10.108  0.4709  0.5063 -0.7578
 5182SOL    HW120484   8.443   8.586  10.022  0.0670 -0.0156 -0.4541
 5182SOL    HW220485   8.391   8.675  10.133 -1.6551 -2.8680  1.1447
 5183SOL     OW20486   8.688   8.339   1.663 -0.5710 -0.1268  0.4802
 5183SOL    HW120487   8.641   8.402   1.609 -1.2064  0.6320  1.8772
 5183SOL    HW220488   8.650   8.254   1.639 -0.7695  0.1721 -0.3118
 5184SOL     OW20489  10.407   2.356   0.722 -0.2240  0.1312 -0.1341
 5184SOL    HW120490  10.415   2.261   0.730  1.5835  0.0749 -1.7766
 5184SOL    HW220491  10.448   2.391   0.802 -0.7491 -0.4473  0.3966
 5185SOL     OW20492   8.369   9.020  11.062 -0.4376  0.5624 -0.3998
 5185SOL    HW120493   8.346   8.936  11.101  0.7655 -0.5345 -1.9046
 5185SOL    HW220494   8.287   9.053  11.025 -0.6249 -0.8312 -1.3225
 5186SOL     OW20495   2.602   1.416   7.227  0.0886  0.0323  0.1341
 5186SOL    HW120496   2.663   1.363   7.176 -0.2942 -1.4626  1.1818
 5186SOL    HW220497   2.533   1.440   7.165  0.5991 -0.1268 -0.5038
 5187SOL     OW20498   9.586   7.849   0.986 -0.2501 -0.3696  0.0708
 5187SOL    HW120499   9.679   7.834   0.967  0.0664 -0.3875  1.4851
 5187SOL    HW220500   9.543   7.842   0.901  0.7970 -2.1594 -0.3751
 5188SOL     OW20501   7.509  10.649   2.588 -0.4871 -0.2399  0.0835
 5188SOL    HW120502   7.447  10.646   2.515 -0.2821  2.1246 -0.2558
 5188SOL    HW220503   7.591  10.677   2.548 -0.3315  0.9452  1.1875
 5189SOL     OW20504   6.084   2.119   5.593 -1.0281 -0.1757 -0.2198
 5189SOL    HW120505   6.102   2.075   5.676 -1.3489 -2.4792 -1.2974
 5189SOL    HW220506   6.019   2.187   5.615  0.1586  0.4370  1.6592
 5190SOL     OW20507  10.618   9.756   2.667 -0.4502  0.1409  0.4723
 5190SOL    HW120508  10.567   9.785   2.742 -0.1277 -1.3061  1.2810
 5190SOL    HW220509  10.552   9.739   2.599 -1.0998 -1.6340  1.4774
 5191SOL     OW20510   2.687   8.720  10.748 -0.3237  0.7401  0.0507
 5191SOL    HW120511   2.648   8.643  10.789  0.2047  0.9221  0.9012
 5191SOL    HW220512   2.780   8.699  10.740 -0.4326  0.6529 -1.1935
 5192SOL     OW20513   8.707   9.924   9.376 -0.0795  0.3905  0.0159
 5192SOL    HW120514   8.646   9.997   9.362 -0.2807  0.0792 -0.7348
 5192SOL    HW220515   8.793   9.966   9.381 -0.0371  0.5628 -1.7793
 5193SOL     OW20516   7.782  10.778   0.532  0.2858 -0.1807  0.6215
 5193SOL    HW120517   7.875  10.793   0.550  0.4747  0.5186 -0.7567
 5193SOL    HW220518   7.774  10.682   0.527  1.6388 -0.2663 -2.2394
 5194SOL     OW20519   4.824   6.450  11.266  0.1568 -0.0476  0.0526
 5194SOL    HW120520   4.810   6.404  11.349  1.6600  1.8553  1.4702
 5194SOL    HW220521   4.737   6.478  11.239 -0.2146  0.9583  2.0767
 5195SOL     OW20522   9.619   5.391   7.635  0.2663 -0.2912 -0.0824
 5195SOL    HW120523   9.597   5.484   7.647 -0.4821 -0.3090 -1.1610
 5195SOL    HW220524   9.714   5.388   7.643  0.3352  0.6278 -0.3870
 5196SOL     OW20525   3.769   5.098   1.272 -0.0488 -0.5138 -0.3456
 5196SOL    HW120526   3.721   5.024   1.309  0.5751  0.3726  2.5306
 5196SOL    HW220527   3.861   5.072   1.277  0.1784  0.3875  0.7069
 5197SOL     OW20528   2.217   9.362   8.758  0.4394 -1.1067  0.1269
 5197SOL    HW120529   2.289   9.361   8.821 -0.2325 -1.3284  0.9105
 5197SOL    HW220530   2.148   9.309   8.799 -0.0251 -1.2429 -0.7847
 5198SOL     OW20531   7.188   6.959   2.856  0.5139  0.2346  0.3467
 5198SOL    HW120532   7.205   7.000   2.941 -0.8646  0.0790  0.7231
 5198SOL    HW220533   7.152   6.873   2.878  2.2012 -0.7070 -0.4268
 5199SOL     OW20534  10.069   2.112   0.115 -0.0401 -0.3075 -0.2025
 5199SOL    HW120535  10.002   2.048   0.094 -0.7605  0.4692 -0.3302
 5199SOL    HW220536  10.148   2.060   0.131 -0.6146 -1.2181 -0.2533
 5200SOL     OW20537   9.701  11.101   6.210 -0.3734  0.4114 -0.7515
 5200SOL    HW120538   9.610  11.090   6.182 -0.5638  0.9864 -0.3521
 5200SOL    HW220539   9.732  11.179   6.164 -0.8809  1.7526  1.0610
 5201SOL     OW20540   8.695   5.452  10.207  0.0687 -0.5825 -0.0653
 5201SOL    HW120541   8.672   5.497  10.289 -0.1431 -1.1695  0.2031
 5201SOL    HW220542   8.631   5.382  10.200  1.1773 -1.6529  0.1957
 5202SOL     OW20543   6.130  10.219   5.675 -0.2082  0.2809 -0.3924
 5202SOL    HW120544   6.093  10.151   5.732  1.4389  1.3480  2.0950
 5202SOL    HW220545   6.055  10.276   5.655 -0.8288 -0.0846  0.7838
 5203SOL     OW20546   4.847  11.592   9.034  0.6894  0.2467  0.0576
 5203SOL    HW120547   4.886  11.678   9.053  0.9057  0.7031 -2.1048
 5203SOL    HW220548   4.755  11.602   9.055  0.6847  1.0839 -0.2942
 5204SOL     OW20549   0.159   0.628   9.233  0.1193  0.4297 -0.2147
 5204SOL    HW120550   0.083   0.685   9.248  0.5088  0.4316  2.1427
 5204SOL    HW220551   0.138   0.548   9.280  0.7484 -0.3579 -1.2348
 5205SOL     OW20552   4.772   9.600   0.920  0.1769  0.2732 -0.0463
 5205SOL    HW120553   4.785   9.631   1.009 -1.2140 -1.6820  0.8945
 5205SOL    HW220554   4.833   9.527   0.910  0.7756  0.8694 -0.9492
 5206SOL     OW20555   4.430  10.531   4.549  0.9718  0.8551 -0.0392
 5206SOL    HW120556   4.503  10.570   4.598 -0.1455  2.1284  0.6636
 5206SOL    HW220557   4.403  10.599   4.488  1.7277 -0.3825 -1.8668
 5207SOL     OW20558   6.488   8.581  10.113  0.1664 -0.2023 -0.4111
 5207SOL    HW120559   6.455   8.561  10.025  1.7119  0.4687 -1.1882
 5207SOL    HW220560   6.569   8.532  10.120  0.3778  0.2478  0.4020
 5208SOL     OW20561  11.564   2.977   9.392 -0.4933 -0.2362 -0.0344
 5208SOL    HW120562  11.563   2.935   9.307 -1.7026 -2.1868  0.8753
 5208SOL    HW220563  11.627   3.049   9.383  1.5296 -2.1030 -1.7363
 5209SOL     OW20564   5.211   5.111  10.151  0.2471  0.5986 -0.0697
 5209SOL    HW120565   5.144   5.047  10.125 -1.5343  1.7236  1.4876
 5209SOL    HW220566   5.287   5.058  10.173 -1.7256 -1.3045  2.9705
 5210SOL     OW20567   7.988   2.525   2.833 -0.0932 -0.2128 -0.5809
 5210SOL    HW120568   7.927   2.545   2.905  1.2242  0.3392  0.4323
 5210SOL    HW220569   7.971   2.592   2.768 -1.2110 -0.6299 -0.7366
 5211SOL     OW20570   9.880   6.587   3.502  0.3844  0.3260  0.0664
 5211SOL    HW120571   9.912   6.662   3.452  0.0094  1.0823  0.9229
 5211SOL    HW220572   9.932   6.513   3.472  0.6545  0.9047 -0.9062
 5212SOL     OW20573  11.038  11.354   8.043 -0.6083 -0.3092  0.0985
 5212SOL    HW120574  11.061  11.443   8.069 -0.7647 -0.2785  0.1308
 5212SOL    HW220575  11.101  11.333   7.974 -1.2585  0.2284 -0.6779
 5213SOL     OW20576   5.954  10.763  11.343  0.4534 -0.8949 -0.5478
 5213SOL    HW120577   5.975  10.780  11.435 -3.1969 -1.4206  0.5480
 5213SOL    HW220578   5.946  10.850  11.304  1.4447 -0.6540 -0.2458
 5214SOL     OW20579   9.950   1.025   3.323 -0.9487  0.1708 -0.3227
 5214SOL    HW120580   9.983   1.114   3.329  1.6470 -0.6765 -0.8576
 5214SOL    HW220581   9.880   1.029   3.257  1.2481  1.2997 -2.7535
 5215SOL     OW20582   2.538   6.299   9.758  0.1657 -0.3611 -0.3126
 5215SOL    HW120583   2.495   6.213   9.764  1.1313 -0.9997 -1.8846
 5215SOL    HW220584   2.511   6.345   9.838 -2.0399 -1.3443 -0.4279
 5216SOL     OW20585   3.311   1.531   4.311 -0.1989 -0.3300  0.3433
 5216SOL    HW120586   3.357   1.598   4.362  0.3496  0.2986 -0.9256
 5216SOL    HW220587   3.381   1.473   4.280 -0.1085  0.9828 -2.1234
 5217SOL     OW20588  10.176  11.117   7.445 -0.0429  0.4161 -0.8217
 5217SOL    HW120589  10.243  11.151   7.503 -0.9369 -0.4755  0.8162
 5217SOL    HW220590  10.201  11.025   7.431 -1.9759 -0.5940  1.6096
 5218SOL     OW20591   4.532   9.612   0.196 -0.0839  0.7167  0.5960
 5218SOL    HW120592   4.586   9.679   0.237 -0.5713  2.8074 -1.8671
 5218SOL    HW220593   4.595   9.553   0.154  0.3417  1.4207  0.2239
 5219SOL     OW20594   1.635  10.576   8.701 -0.3915  0.4141 -0.1299
 5219SOL    HW120595   1.686  10.539   8.628 -0.4919  0.8222 -0.4129
 5219SOL    HW220596   1.695  10.635   8.745 -0.0956 -0.4056  0.5895
 5220SOL     OW20597   7.352  11.275   0.901 -0.3223 -0.5818  0.5246
 5220SOL    HW120598   7.404  11.343   0.857 -0.9789  0.7024  1.6704
 5220SOL    HW220599   7.391  11.193   0.871  0.6198  0.2865 -0.7595
 5221SOL     OW20600   0.358   9.036   6.943  0.3619 -0.1885 -0.0341
 5221SOL    HW120601   0.355   8.982   6.864  1.1829  2.2412 -1.8496
 5221SOL    HW220602   0.266   9.055   6.962  0.1660  2.2135 -2.7278
 5222SOL     OW20603   5.553   4.171   2.928 -0.0782  0.1303 -0.2528
 5222SOL    HW120604   5.501   4.139   3.002 -0.2063  1.2025  0.1338
 5222SOL    HW220605   5.643   4.165   2.958 -0.1938  1.7338  0.4839
 5223SOL     OW20606   6.458   5.663   1.742  0.0229  0.2661 -0.2038
 5223SOL    HW120607   6.373   5.694   1.712  0.9445  1.6329 -1.5170
 5223SOL    HW220608   6.490   5.733   1.800  0.8872  0.4722 -0.9124
 5224SOL     OW20609   0.540  10.332   5.854  0.2801 -0.6654 -0.5446
 5224SOL    HW120610   0.450  10.319   5.825  0.8956  0.0830 -3.0326
 5224SOL    HW220611   0.569  10.245   5.882 -1.1980 -0.9024  0.3158
 5225SOL     OW20612   3.493   7.595   5.749  0.1558  0.2455 -0.3757
 5225SOL    HW120613   3.486   7.625   5.658 -0.5961  0.6840 -0.1893
 5225SOL    HW220614   3.523   7.505   5.743  1.1349  0.6004 -1.0145
 5226SOL     OW20615   9.230   4.678   5.216 -0.1451  0.1964 -0.3729
 5226SOL    HW120616   9.318   4.642   5.207  0.4359  1.1782  1.0181
 5226SOL    HW220617   9.212   4.719   5.131  0.2872 -0.9243 -1.0218
 5227SOL     OW20618   4.199   1.978   5.825  0.3653  0.3547 -0.2660
 5227SOL    HW120619   4.168   2.056   5.871 -0.1340  0.1922 -0.3116
 5227SOL    HW220620   4.256   2.011   5.756  0.5326  0.6454  0.0088
 5228SOL     OW20621   4.028   9.008   8.903  0.2354 -0.1284 -0.4237
 5228SOL    HW120622   4.044   8.946   8.974  0.3978 -0.0441 -0.3868
 5228SOL    HW220623   4.114   9.027   8.868  0.2158  0.3127 -0.2359
 5229SOL     OW20624   6.287   7.954   7.408 -0.0114  0.1192 -0.2346
 5229SOL    HW120625   6.196   7.933   7.384  0.2796 -0.3187 -1.0161
 5229SOL    HW220626   6.323   7.871   7.438  0.4682  0.0141 -1.0706
 5230SOL     OW20627  11.281   6.256   7.471  0.0291  0.0421  0.0074
 5230SOL    HW120628  11.295   6.206   7.392  0.0482 -1.2085  0.7807
 5230SOL    HW220629  11.368   6.288   7.496  0.2432 -0.7376  0.2780
 5231SOL     OW20630   2.016   7.779   3.304 -0.5102  0.0911  0.0057
 5231SOL    HW120631   1.925   7.792   3.275 -0.8725  0.2614  1.1855
 5231SOL    HW220632   2.030   7.685   3.297 -1.1426 -0.0763  0.8264
 5232SOL     OW20633   2.894   6.903   6.292 -0.7873  0.0626  0.4091
 5232SOL    HW120634   2.980   6.869   6.266 -1.9316 -1.2077 -2.0174
 5232SOL    HW220635   2.913   6.991   6.325  1.3233  0.4656 -1.5618
 5233SOL     OW20636   3.875   4.387   5.795 -0.6421  0.1582 -0.1897
 5233SOL    HW120637   3.846   4.304   5.757  0.2238 -0.1636 -0.1537
 5233SOL    HW220638   3.793   4.434   5.813 -1.1422 -0.6794 -0.2087
 5234SOL     OW20639   7.159   1.704   1.762  0.3717 -0.5436 -0.2201
 5234SOL    HW120640   7.166   1.639   1.832 -1.3155 -0.6498 -0.1183
 5234SOL    HW220641   7.208   1.780   1.794  0.5340 -0.9805  0.5874
 5235SOL     OW20642   0.065   3.543   9.339  0.1546  0.6874 -1.3820
 5235SOL    HW120643   0.066   3.639   9.332  0.7774  0.7541 -0.5648
 5235SOL    HW220644   0.129   3.514   9.274  0.3988  0.8617 -1.2216
 5236SOL     OW20645   2.290  11.012  10.424 -0.0495  0.0876 -0.4379
 5236SOL    HW120646   2.326  10.958  10.354 -0.8600  0.0985 -0.8852
 5236SOL    HW220647   2.251  11.087  10.379 -1.9290 -0.6538 -0.1375
 5237SOL     OW20648  11.147   2.781   4.283 -0.7846  0.1972 -0.2349
 5237SOL    HW120649  11.053   2.791   4.270 -0.5394  1.6048 -1.1230
 5237SOL    HW220650  11.163   2.687   4.277 -1.8055  0.1151 -2.6620
 5238SOL     OW20651   5.105  10.346  10.534 -0.3948 -0.0240 -0.3449
 5238SOL    HW120652   5.179  10.300  10.495  1.1045  1.1961  0.9266
 5238SOL    HW220653   5.116  10.437  10.506 -1.9601  0.0409 -0.8690
 5239SOL     OW20654   7.699   3.383   8.986 -0.0180  0.7308  0.1707
 5239SOL    HW120655   7.765   3.320   8.958 -0.8350  0.2774 -0.8091
 5239SOL    HW220656   7.627   3.373   8.923 -2.5009 -1.1690  3.0061
 5240SOL     OW20657  10.564   6.480   5.705 -0.2593 -0.2949  0.1708
 5240SOL    HW120658  10.523   6.400   5.739 -0.6839  0.4119  1.3447
 5240SOL    HW220659  10.615   6.449   5.630 -0.1375 -1.7378  0.7981
 5241SOL     OW20660   2.058   0.371  11.433  0.1835 -0.1698 -0.2209
 5241SOL    HW120661   2.019   0.362  11.346 -2.7309  0.7666  0.8617
 5241SOL    HW220662   2.101   0.456  11.432 -0.9808  0.4366 -0.3899
 5242SOL     OW20663   7.913  10.590   8.758 -0.4827  0.0996 -0.3942
 5242SOL    HW120664   7.865  10.510   8.779  1.5686 -0.9288  0.6112
 5242SOL    HW220665   7.851  10.661   8.778 -1.5147 -1.1514  1.0419
 5243SOL     OW20666   7.184   1.269  10.028  0.0117  0.0540  0.5814
 5243SOL    HW120667   7.225   1.233  10.107 -0.9824 -0.6738  0.7907
 5243SOL    HW220668   7.092   1.278  10.052  0.2524  3.2448  0.7126
 5244SOL     OW20669   5.534   8.596   9.473  0.2966  0.2991  0.0280
 5244SOL    HW120670   5.538   8.682   9.513 -1.2332  0.8809 -0.9809
 5244SOL    HW220671   5.494   8.611   9.387 -1.1670 -1.5517  0.3106
 5245SOL     OW20672   2.259   3.947   9.864  0.0411  0.3487  0.2435
 5245SOL    HW120673   2.203   3.895   9.807 -1.1812 -0.3397  1.9878
 5245SOL    HW220674   2.298   3.884   9.924  1.4171  1.0277  0.1123
 5246SOL     OW20675   4.082   8.232  11.358 -0.4074 -0.2826 -0.4607
 5246SOL    HW120676   4.040   8.303  11.310 -0.1985  0.1382 -0.0239
 5246SOL    HW220677   4.145   8.275  11.415  0.6526 -0.9232 -1.1327
 5247SOL     OW20678   3.093   8.506   1.111 -0.1139 -0.1209  0.3417
 5247SOL    HW120679   3.127   8.420   1.087  1.6210  0.5545  0.2306
 5247SOL    HW220680   3.131   8.525   1.197 -0.0229  0.7545  0.1221
 5248SOL     OW20681   4.606   4.904  10.659 -0.4253 -0.2860  0.2515
 5248SOL    HW120682   4.538   4.898  10.592 -0.9677 -0.1213  0.7788
 5248SOL    HW220683   4.560   4.889  10.742  0.4814 -1.9683  0.4855
 5249SOL     OW20684   2.695   6.397   7.387 -0.4711 -0.0241  0.1387
 5249SOL    HW120685   2.659   6.355   7.310 -0.9817  1.7127 -0.6245
 5249SOL    HW220686   2.766   6.339   7.416 -0.5042 -0.8762 -1.4110
 5250SOL     OW20687   6.639   2.709   9.011  0.5084 -0.3483  0.2163
 5250SOL    HW120688   6.582   2.667   8.947 -0.4904 -1.1797  1.6060
 5250SOL    HW220689   6.672   2.638   9.065  1.9741  0.2541  0.1580
 5251SOL     OW20690   0.646   3.553   9.982  1.0031 -0.5386  0.0821
 5251SOL    HW120691   0.645   3.457   9.986  0.7072 -0.5034  1.2990
 5251SOL    HW220692   0.582   3.575   9.914  0.3644 -1.1960  0.4545
 5252SOL     OW20693   4.080   8.479  10.519  0.1835 -0.7999  0.0795
 5252SOL    HW120694   4.012   8.421  10.552  0.2839 -0.2673  1.2555
 5252SOL    HW220695   4.060   8.565  10.557  1.7830 -0.7339  0.8541
 5253SOL     OW20696   1.257   3.688   9.641  0.0612  0.2701 -0.3016
 5253SOL    HW120697   1.348   3.696   9.669  0.0381 -0.4206 -0.0017
 5253SOL    HW220698   1.225   3.609   9.686 -0.4416  0.0342 -1.0577
 5254SOL     OW20699  10.089  10.049   5.577  0.2958  0.3714 -0.1641
 5254SOL    HW120700  10.043  10.007   5.504 -1.1105  1.9562 -0.2528
 5254SOL    HW220701  10.038  10.025   5.654 -0.7842  2.1430 -0.2633
 5255SOL     OW20702   6.462   3.947   8.322  0.5365 -0.0317  0.2473
 5255SOL    HW120703   6.512   3.999   8.385  0.2855  2.6025 -1.5646
 5255SOL    HW220704   6.525   3.885   8.286  1.7549  1.1841  0.1909
 5256SOL     OW20705   5.787   0.788   2.294 -0.0871 -0.7067 -0.0175
 5256SOL    HW120706   5.798   0.701   2.332 -1.5001 -0.2208  1.6254
 5256SOL    HW220707   5.699   0.814   2.319  0.2948  1.1928 -0.5027
 5257SOL     OW20708   8.059  11.439   9.302  0.5830  0.7997 -0.4196
 5257SOL    HW120709   8.095  11.365   9.251  2.0513  1.4473 -0.3687
 5257SOL    HW220710   8.047  11.404   9.390 -3.4931 -0.8188 -1.4149
 5258SOL     OW20711   5.641   8.453  11.673 -0.2231  0.2525  0.0876
 5258SOL    HW120712   5.685   8.394  11.613  0.2673 -0.8740  1.4964
 5258SOL    HW220713   5.547   8.442  11.654 -0.2525 -2.1896  1.3430
 5259SOL     OW20714  11.504   6.787   8.389  0.3544  0.0504  0.4454
 5259SOL    HW120715  11.542   6.760   8.472 -0.0964 -1.9941  0.0379
 5259SOL    HW220716  11.428   6.730   8.377  0.9247 -0.3620 -1.7730
 5260SOL     OW20717   9.010   9.479   2.562  0.3782  0.0140  0.6957
 5260SOL    HW120718   9.018   9.574   2.563  0.3997  0.2100 -3.4502
 5260SOL    HW220719   8.916   9.463   2.557  0.4447 -0.1119 -0.1632
 5261SOL     OW20720   3.690   5.472   7.690 -0.4889  0.1640 -0.2979
 5261SOL    HW120721   3.738   5.472   7.607  0.9636 -0.3518  0.5269
 5261SOL    HW220722   3.684   5.380   7.715 -0.5228  0.3475  0.3881
 5262SOL     OW20723   3.451   5.130   2.630 -0.2045  0.4433  0.3202
 5262SOL    HW120724   3.398   5.119   2.709 -0.7881 -0.5773 -0.2043
 5262SOL    HW220725   3.392   5.109   2.558  0.8950 -0.7348 -0.2800
 5263SOL     OW20726   4.495  10.427   1.105 -0.0650  0.0681  0.2374
 5263SOL    HW120727   4.442  10.487   1.157  2.3545  0.7349  2.1536
 5263SOL    HW220728   4.501  10.348   1.159 -0.7713 -0.7829 -0.8999
 5264SOL     OW20729  11.417   3.840   6.396 -0.8846  0.1171 -0.8047
 5264SOL    HW120730  11.334   3.874   6.430 -1.3539 -0.1327 -1.6900
 5264SOL    HW220731  11.399   3.818   6.305 -0.1739 -1.0833 -0.6774
 5265SOL     OW20732   9.434  10.979   0.885  0.6304 -0.6526  0.4653
 5265SOL    HW120733   9.404  10.953   0.798  1.2958  1.2176 -0.4000
 5265SOL    HW220734   9.370  10.943   0.945  1.1786 -3.6608 -0.5875
 5266SOL     OW20735   8.117   1.345   1.628  0.0769 -0.6717 -0.4118
 5266SOL    HW120736   8.082   1.398   1.700 -0.5654 -0.7055 -0.6881
 5266SOL    HW220737   8.118   1.256   1.663 -0.4325 -0.7187 -0.5138
 5267SOL     OW20738   6.614   7.724   4.890 -0.2420 -0.1740 -0.2145
 5267SOL    HW120739   6.702   7.707   4.858  1.6978  3.1583  2.5368
 5267SOL    HW220740   6.617   7.699   4.983 -2.7080 -1.2376 -0.3342
 5268SOL     OW20741  11.082   8.122   4.033 -0.0695 -0.6663 -0.2865
 5268SOL    HW120742  11.099   8.041   4.081  1.2375 -1.0430 -1.3292
 5268SOL    HW220743  11.011   8.100   3.973 -0.8171 -0.5566  0.5326
 5269SOL     OW20744   6.630   9.607   0.073 -0.4541 -0.4737 -0.2156
 5269SOL    HW120745   6.576   9.624   0.150  0.3439  4.2318 -0.3844
 5269SOL    HW220746   6.568   9.594   0.002 -1.2873 -0.3248  0.4757
 5270SOL     OW20747   9.831   5.808   6.287  0.1103  0.1294 -0.3320
 5270SOL    HW120748   9.826   5.877   6.221 -0.9236 -0.2160 -0.6395
 5270SOL    HW220749   9.758   5.750   6.266  0.2155 -0.3836  0.6667
 5271SOL     OW20750   1.136   2.378   5.146 -0.3145 -0.3207 -0.6484
 5271SOL    HW120751   1.093   2.432   5.079 -2.0388 -1.5332 -0.5739
 5271SOL    HW220752   1.103   2.413   5.229 -1.0905 -1.1459 -0.5866
 5272SOL     OW20753   0.935  11.482   4.292 -0.5981  0.0848  0.3580
 5272SOL    HW120754   0.870  11.552   4.294 -1.1212 -0.3051 -1.2379
 5272SOL    HW220755   0.887  11.406   4.257  1.0963  0.3405 -2.9607
 5273SOL     OW20756   2.561   3.206   7.062  0.6022 -0.1149  0.3133
 5273SOL    HW120757   2.491   3.271   7.050 -0.0159 -1.0238 -1.3570
 5273SOL    HW220758   2.535   3.133   7.006  2.5199 -0.7991  0.2639
 5274SOL     OW20759   6.489   3.391  10.306  0.2577 -0.0571  0.1316
 5274SOL    HW120760   6.460   3.301  10.319  0.9845 -0.1507  1.2039
 5274SOL    HW220761   6.409   3.443  10.308  0.0462 -0.3697  2.4157
 5275SOL     OW20762   3.003   4.825   6.082 -0.4646 -0.6217 -0.3443
 5275SOL    HW120763   2.953   4.891   6.032 -2.1801  0.6754  2.7957
 5275SOL    HW220764   3.075   4.875   6.122  0.4561 -1.4820 -0.8892
 5276SOL     OW20765   3.381   8.230   3.014  0.4880  0.2365  0.0272
 5276SOL    HW120766   3.433   8.173   2.956  0.7815 -0.5690  1.0497
 5276SOL    HW220767   3.383   8.316   2.972 -0.4644 -0.6204 -1.8802
 5277SOL     OW20768   8.093   4.573  10.242 -0.7904  1.0195  0.4035
 5277SOL    HW120769   8.031   4.560  10.314  0.0206  0.8567  1.0911
 5277SOL    HW220770   8.106   4.667  10.238  0.4217  0.9214  1.5803
 5278SOL     OW20771  11.089   2.313   3.806  0.4225  0.5232 -0.3256
 5278SOL    HW120772  11.162   2.373   3.792 -0.3260  1.1194 -1.7771
 5278SOL    HW220773  11.074   2.272   3.721 -1.1829  0.7192 -0.1771
 5279SOL     OW20774   5.036   6.851   1.592  0.1675  0.2647 -0.0418
 5279SOL    HW120775   5.060   6.859   1.499  0.3138 -0.1358 -0.0408
 5279SOL    HW220776   4.943   6.874   1.595 -0.1670 -0.9539 -0.4880
 5280SOL     OW20777   8.204   7.746   5.011 -0.2573  0.3763  0.0451
 5280SOL    HW120778   8.129   7.725   5.067 -0.0896  2.0676  0.9635
 5280SOL    HW220779   8.178   7.717   4.924 -0.9051 -1.4597  0.7979
 5281SOL     OW20780   0.668   4.998   4.232 -0.4950  0.4077 -0.2326
 5281SOL    HW120781   0.702   4.909   4.230 -1.5197 -0.2126  3.2766
 5281SOL    HW220782   0.738   5.052   4.193  1.5923 -1.5431  0.6238
 5282SOL     OW20783   9.607   7.083   6.418  0.2754 -0.1639 -0.3123
 5282SOL    HW120784   9.517   7.113   6.424  0.0434 -0.8662 -0.1727
 5282SOL    HW220785   9.600   6.990   6.400  0.9665 -0.3577  0.3601
 5283SOL     OW20786   1.024  11.583   7.881 -0.4095  0.2635  0.5007
 5283SOL    HW120787   0.947  11.535   7.912 -1.1248  0.3834 -1.0024
 5283SOL    HW220788   1.058  11.531   7.809 -0.4114  1.3113 -0.2881
 5284SOL     OW20789   9.833   3.521   9.236 -0.1159 -0.0913  0.0757
 5284SOL    HW120790   9.759   3.486   9.187  0.4709 -1.5146  0.1751
 5284SOL    HW220791   9.870   3.446   9.282  1.5975  0.5162 -0.2348
 5285SOL     OW20792   8.508   9.033   0.089 -0.3608  0.5359  0.3325
 5285SOL    HW120793   8.472   9.073   0.167  0.3250  1.0259  0.4103
 5285SOL    HW220794   8.452   8.957   0.072 -0.8219  0.7234  0.9948
 5286SOL     OW20795   8.281   5.216   0.810  0.0611  0.3670  0.5354
 5286SOL    HW120796   8.359   5.190   0.760  0.0889 -1.3553  1.4253
 5286SOL    HW220797   8.298   5.186   0.899 -1.5635  0.0600  0.7761
 5287SOL     OW20798   4.181   4.820   9.915 -1.0819 -0.3259  0.3380
 5287SOL    HW120799   4.234   4.877   9.859 -1.0336 -1.0560 -0.3754
 5287SOL    HW220800   4.107   4.796   9.859 -0.9979 -1.1205  0.5686
 5288SOL     OW20801   6.427   1.240  10.402  0.0258  0.7653 -0.3852
 5288SOL    HW120802   6.360   1.198  10.347  0.7067  1.8826 -2.1360
 5288SOL    HW220803   6.459   1.169  10.458 -2.5394  0.1726  0.4733
 5289SOL     OW20804   9.348  11.012   8.538  0.2276 -0.0941  0.3236
 5289SOL    HW120805   9.393  10.962   8.470  1.5680  0.2680  0.9098
 5289SOL    HW220806   9.354  11.103   8.509 -0.1725 -0.0462  0.3874
 5290SOL     OW20807   6.695   4.320   9.069  0.2170  0.2654 -0.1948
 5290SOL    HW120808   6.622   4.313   9.007  0.4757 -2.2703 -0.3266
 5290SOL    HW220809   6.663   4.277   9.148  0.7121  1.4273  0.6692
 5291SOL     OW20810   1.206  10.016   7.589 -0.0187  0.6418 -0.4637
 5291SOL    HW120811   1.214   9.951   7.520 -0.5841 -0.4277  0.4393
 5291SOL    HW220812   1.115  10.010   7.618  0.0775  1.4121  0.0381
 5292SOL     OW20813   8.330   3.462  10.514  0.7875 -0.3159 -0.1664
 5292SOL    HW120814   8.360   3.376  10.543  0.5339 -0.4496 -0.2954
 5292SOL    HW220815   8.334   3.517  10.592  2.3351 -0.0530 -0.3940
 5293SOL     OW20816   9.106   5.491   4.937 -0.4147 -0.0216  0.2882
 5293SOL    HW120817   9.024   5.443   4.948  0.3445 -1.1551  1.2500
 5293SOL    HW220818   9.154   5.441   4.870 -0.1643  0.1452  0.3429
 5294SOL     OW20819  11.204   2.903   1.957  0.1878  0.2582  0.2340
 5294SOL    HW120820  11.214   2.839   1.886  1.9746 -0.3060  0.9414
 5294SOL    HW220821  11.263   2.975   1.933 -0.3068  0.7352  0.4312
 5295SOL     OW20822   1.035   5.151   2.248  0.1389 -0.2445  0.0122
 5295SOL    HW120823   0.950   5.108   2.253 -0.6320  1.3485  3.5124
 5295SOL    HW220824   1.098   5.081   2.261 -0.8936 -0.9078  1.7796
 5296SOL     OW20825  10.269  10.019  11.277 -0.3881  0.2118  0.4451
 5296SOL    HW120826  10.205  10.073  11.230  0.3550 -0.7462 -1.8277
 5296SOL    HW220827  10.225   9.934  11.287  0.0702 -0.1010 -0.1015
 5297SOL     OW20828   7.436   5.062   8.290  0.0834 -0.1213  0.2004
 5297SOL    HW120829   7.353   5.070   8.338 -0.3116 -1.3614 -0.2336
 5297SOL    HW220830   7.416   5.094   8.202 -0.1389 -1.0666 -0.1033
 5298SOL     OW20831  11.134   2.516   0.941  0.2038  1.0810 -0.1138
 5298SOL    HW120832  11.114   2.603   0.907 -1.3244  1.7609  2.2137
 5298SOL    HW220833  11.206   2.530   1.003  0.7160  0.4721 -0.5580
 5299SOL     OW20834  10.405  10.785  11.207 -0.1225 -0.5336 -0.3260
 5299SOL    HW120835  10.345  10.719  11.173  0.9819 -0.5519 -2.4203
 5299SOL    HW220836  10.349  10.856  11.237 -1.3373  0.6664 -4.7162
 5300SOL     OW20837   6.182   7.102  11.676 -0.1390 -0.1727  0.2000
 5300SOL    HW120838   6.241   7.060  11.614 -1.8449 -4.5867  1.1965
 5300SOL    HW220839   6.222   7.085  11.762 -1.0785 -0.1438  0.6592
 5301SOL     OW20840   5.033   7.212   8.842 -0.1493 -0.1727 -0.0043
 5301SOL    HW120841   5.022   7.249   8.754  0.5631 -1.6868 -0.7647
 5301SOL    HW220842   5.075   7.282   8.892  1.4525 -0.0102 -1.4854
 5302SOL     OW20843   1.742   2.742   4.344  0.0425  0.0902 -0.8182
 5302SOL    HW120844   1.829   2.706   4.326 -0.4232 -0.3950 -2.2889
 5302SOL    HW220845   1.743   2.828   4.303  1.0168  1.7139  2.3477
 5303SOL     OW20846   4.643  11.106   3.172  0.7856 -0.5235  0.5607
 5303SOL    HW120847   4.654  11.047   3.097 -1.8405 -0.6046  0.1604
 5303SOL    HW220848   4.549  11.113   3.184  1.0968  0.1565  3.3802
 5304SOL     OW20849   0.026   7.049   8.654  0.1245  0.1364  0.6138
 5304SOL    HW120850   0.043   7.112   8.724 -0.8015  1.6325 -0.4232
 5304SOL    HW220851   0.098   7.062   8.592  0.5693 -0.6845  0.9533
 5305SOL     OW20852   0.811  11.066   8.572  0.3670  0.4974 -0.3849
 5305SOL    HW120853   0.762  11.061   8.654  0.4157 -1.2665 -0.4278
 5305SOL    HW220854   0.903  11.055   8.598  0.5497  1.5531 -0.5318
 5306SOL     OW20855   8.577   8.122   1.131 -0.2342 -0.9206 -0.0109
 5306SOL    HW120856   8.628   8.054   1.086  0.5469  0.0094 -0.5904
 5306SOL    HW220857   8.573   8.194   1.067 -0.2460 -0.0750  0.9248
 5307SOL     OW20858   2.791   8.449   8.463 -0.3686  0.3717 -0.9027
 5307SOL    HW120859   2.764   8.458   8.554 -0.3006 -1.7922 -0.6065
 5307SOL    HW220860   2.743   8.516   8.416 -2.3906 -0.1143  0.3632
 5308SOL     OW20861   5.138  10.469   0.319 -0.0285  0.0526 -0.7844
 5308SOL    HW120862   5.047  10.453   0.346  0.1528 -0.2015 -0.3166
 5308SOL    HW220863   5.190  10.411   0.374  0.4694  0.6475 -0.6125
 5309SOL     OW20864   8.409   6.580   4.448 -0.2587  0.6381  0.3286
 5309SOL    HW120865   8.457   6.498   4.437 -1.2233  0.0855  0.0702
 5309SOL    HW220866   8.474   6.642   4.481  0.7642  0.1008 -0.6262
 5310SOL     OW20867   6.318  10.022   6.989 -0.3897  0.4029  0.2429
 5310SOL    HW120868   6.236   9.981   7.016 -0.5586  1.2526  1.0605
 5310SOL    HW220869   6.335  10.088   7.056 -0.0330  1.5531 -0.9338
 5311SOL     OW20870   7.878  11.302   5.541  0.4300 -0.2896 -0.3903
 5311SOL    HW120871   7.851  11.319   5.451  0.7805  1.2185 -0.2444
 5311SOL    HW220872   7.809  11.341   5.594 -1.3266 -3.7086  0.1038
 5312SOL     OW20873   6.013   4.204   2.205 -0.5509  0.5950  0.3472
 5312SOL    HW120874   6.098   4.226   2.243  0.4082  0.7906 -1.7634
 5312SOL    HW220875   5.956   4.187   2.280  1.6874 -0.9195  1.8012
 5313SOL     OW20876   2.831  10.888   3.856 -0.2442  1.0556  0.2993
 5313SOL    HW120877   2.797  10.977   3.855 -1.5646  0.6079 -1.9318
 5313SOL    HW220878   2.772  10.839   3.913 -0.5376  1.2743  0.1835
 5314SOL     OW20879   4.858   4.417   0.271 -0.0045  0.8450 -0.1929
 5314SOL    HW120880   4.915   4.490   0.250  1.3232  0.2134  0.9989
 5314SOL    HW220881   4.918   4.343   0.284 -1.2710 -0.3699 -0.9835
 5315SOL     OW20882   7.821   6.951   8.319  0.5389 -0.0462 -0.1651
 5315SOL    HW120883   7.887   6.921   8.382  1.0248  0.6307 -0.3458
 5315SOL    HW220884   7.750   6.887   8.327 -0.6789  1.4848  3.0817
 5316SOL     OW20885   8.203   5.443   7.666 -0.1221  0.0011 -0.0311
 5316SOL    HW120886   8.272   5.415   7.606 -1.4538 -0.3592 -1.4534
 5316SOL    HW220887   8.249   5.461   7.748  1.6914  0.0472 -0.9978
 5317SOL     OW20888   6.664  11.543   8.088  0.3294  0.0712  0.5088
 5317SOL    HW120889   6.682  11.566   7.997 -1.7434  0.1970  0.0756
 5317SOL    HW220890   6.685  11.449   8.093  0.9144  0.1701  0.0352
 5318SOL     OW20891   2.032  10.049  11.595  0.5986  0.5228  0.0522
 5318SOL    HW120892   2.074  10.022  11.677  0.5490 -0.4026 -0.2126
 5318SOL    HW220893   2.090  10.116  11.559  1.3015  0.0242  0.2198
 5319SOL     OW20894   3.436   6.497   4.096  0.0216 -0.4780  0.1744
 5319SOL    HW120895   3.445   6.411   4.054 -0.8539 -0.9474  0.9170
 5319SOL    HW220896   3.523   6.515   4.131  0.2923 -0.9268 -0.2484
 5320SOL     OW20897   1.471   5.914   4.477 -0.8684  0.1439  0.5820
 5320SOL    HW120898   1.406   5.908   4.546  0.4142 -0.3666  1.7965
 5320SOL    HW220899   1.488   5.823   4.452 -1.7473  0.3448 -0.8492
 5321SOL     OW20900   6.228   3.925  10.064  0.4409  0.6148  0.0146
 5321SOL    HW120901   6.298   3.950  10.124  0.0456 -2.3154  1.9213
 5321SOL    HW220902   6.152   3.976  10.094  0.8836  1.1313  0.2771
 5322SOL     OW20903   1.064   8.474   0.977  0.4176 -0.8106  0.1223
 5322SOL    HW120904   1.061   8.452   0.884 -0.7088 -2.4587  0.5039
 5322SOL    HW220905   1.042   8.567   0.981  0.1676 -0.7998 -1.2383
 5323SOL     OW20906   8.886  10.729   3.600 -0.1221  0.1978 -0.2634
 5323SOL    HW120907   8.977  10.739   3.628 -0.0905  0.8368 -0.5610
 5323SOL    HW220908   8.852  10.819   3.600 -0.9157 -0.0929  0.3810
 5324SOL     OW20909   1.572   6.909   7.282  1.1493 -0.5342  0.0860
 5324SOL    HW120910   1.538   6.925   7.371 -0.4946 -0.6813 -0.4882
 5324SOL    HW220911   1.534   6.979   7.229  1.1159 -1.1667 -0.7454
 5325SOL     OW20912   3.356   0.867   4.185  0.6083 -0.1494  0.0628
 5325SOL    HW120913   3.423   0.933   4.204  0.3207  0.1960 -0.1147
 5325SOL    HW220914   3.273   0.915   4.190  0.3761 -0.5671  0.2460
 5326SOL     OW20915   8.204   0.133   1.269 -0.1462  0.1445  0.4294
 5326SOL    HW120916   8.285   0.139   1.218  1.4286  0.6154  2.8242
 5326SOL    HW220917   8.213   0.053   1.320 -2.3717 -1.1243 -0.9966
 5327SOL     OW20918   0.767   1.112   8.187 -0.7214  0.3940 -0.0917
 5327SOL    HW120919   0.801   1.189   8.233 -0.9316  0.8855 -0.7456
 5327SOL    HW220920   0.786   1.129   8.094 -0.3645 -0.5475 -0.2004
 5328SOL     OW20921  11.679  10.434   1.706 -0.0726 -0.0159 -0.1625
 5328SOL    HW120922  11.687  10.516   1.754  1.4349  0.3701 -1.0092
 5328SOL    HW220923  11.595  10.398   1.733  0.2777  0.6603  2.0064
 5329SOL     OW20924   9.715   2.594   2.163 -0.3944  0.0947 -0.1125
 5329SOL    HW120925   9.624   2.579   2.189 -0.0763  0.5819  1.3738
 5329SOL    HW220926   9.713   2.679   2.117 -0.5001  0.8124  1.1624
 5330SOL     OW20927   0.112   3.143  10.044 -0.0676 -0.5181  0.1653
 5330SOL    HW120928   0.077   3.174   9.960  1.6519  0.2130 -0.3403
 5330SOL    HW220929   0.079   3.054  10.052 -4.3491  0.9453  1.1543
 5331SOL     OW20930   7.467   6.182   5.776  0.1044  0.5884  0.1602
 5331SOL    HW120931   7.375   6.164   5.754  0.1011  0.9048 -0.0988
 5331SOL    HW220932   7.478   6.145   5.864 -0.8603  2.3265  1.0859
 5332SOL     OW20933   1.912   2.611  10.422  0.2089 -0.1943  0.0419
 5332SOL    HW120934   1.966   2.536  10.396 -0.0102  0.2115 -1.7175
 5332SOL    HW220935   1.973   2.684  10.429  0.0741  0.0212 -0.8643
 5333SOL     OW20936   3.123   3.783  10.764  0.3497  0.0241 -0.0203
 5333SOL    HW120937   3.028   3.771  10.761  0.3349 -0.0582  0.5869
 5333SOL    HW220938   3.159   3.694  10.759  0.3479 -0.0487  0.9886
 5334SOL     OW20939   3.673   5.186   2.494 -0.1355  0.0980 -0.1796
 5334SOL    HW120940   3.740   5.231   2.545  2.8247 -3.1074 -0.9019
 5334SOL    HW220941   3.599   5.177   2.554 -0.9090  5.2394  0.1416
 5335SOL     OW20942   9.872   2.823   5.957  0.1141 -0.2065  0.0202
 5335SOL    HW120943   9.780   2.795   5.949  0.4024 -1.2226  0.0654
 5335SOL    HW220944   9.889   2.822   6.051  0.6173 -1.6045 -0.0617
 5336SOL     OW20945  11.001   2.059   1.960 -0.1318  0.0660 -0.0609
 5336SOL    HW120946  10.963   2.122   1.899  0.5670 -0.0098 -0.5782
 5336SOL    HW220947  11.015   2.109   2.041 -0.5343  0.3081 -0.1384
 5337SOL     OW20948   5.501   0.774   1.716 -0.1073  0.3104  0.0700
 5337SOL    HW120949   5.431   0.711   1.698 -0.0394 -0.3045  1.7548
 5337SOL    HW220950   5.474   0.854   1.671 -0.6007 -0.6624 -1.4404
 5338SOL     OW20951   5.891   2.854   0.718  0.0512  0.0400  0.7519
 5338SOL    HW120952   5.965   2.908   0.694 -1.2566  1.5371 -0.1119
 5338SOL    HW220953   5.814   2.909   0.702 -1.3975 -2.2145 -0.6586
 5339SOL     OW20954   3.461   9.528  11.130 -0.0397  0.4018  0.3447
 5339SOL    HW120955   3.394   9.581  11.086  0.6544  1.6004  0.6876
 5339SOL    HW220956   3.461   9.445  11.082  1.3498  1.9311 -2.6089
 5340SOL     OW20957   5.595  11.571   1.176  0.0379  0.3056  0.2368
 5340SOL    HW120958   5.536  11.578   1.251 -0.4792 -1.1585 -0.0095
 5340SOL    HW220959   5.561  11.498   1.125  0.0942  1.5765 -1.7149
 5341SOL     OW20960   8.264   5.694   3.234 -0.1326 -0.5126  0.1135
 5341SOL    HW120961   8.345   5.650   3.208 -0.0840  0.0611 -0.7275
 5341SOL    HW220962   8.291   5.759   3.298  0.4930  1.5076 -2.0913
 5342SOL     OW20963   1.531   0.399   0.003  0.0470 -0.1538  0.1147
 5342SOL    HW120964   1.574   0.481   0.025  0.3897 -0.4576  0.5839
 5342SOL    HW220965   1.489   0.371   0.084 -2.3136  0.8658 -0.6574
 5343SOL     OW20966   3.727   6.746   8.787 -0.1218  0.3640 -0.3208
 5343SOL    HW120967   3.725   6.660   8.745 -0.5494  0.1258  0.1845
 5343SOL    HW220968   3.697   6.730   8.876 -1.3443  1.2263 -0.5623
 5344SOL     OW20969   8.506   1.575   1.628 -0.2428 -0.4358 -0.5669
 5344SOL    HW120970   8.518   1.552   1.720 -0.4774  0.3048 -0.3522
 5344SOL    HW220971   8.449   1.651   1.629  1.4876  0.9349 -1.2136
 5345SOL     OW20972   4.698   6.445   6.544  0.0575  0.1441 -0.2304
 5345SOL    HW120973   4.722   6.374   6.483  0.1323 -0.3070  0.3206
 5345SOL    HW220974   4.607   6.464   6.523 -0.2920 -0.8414  0.3143
 5346SOL     OW20975  10.318   9.455   5.075 -0.2890 -0.3338 -0.7936
 5346SOL    HW120976  10.241   9.437   5.022 -0.6644 -0.5830 -0.1708
 5346SOL    HW220977  10.343   9.544   5.050 -2.9786  1.2695  1.5855
 5347SOL     OW20978   3.975   6.557   8.325  0.3434  0.0984 -0.0221
 5347SOL    HW120979   3.888   6.517   8.319  0.4179 -0.5646  2.3742
 5347SOL    HW220980   3.958   6.649   8.346  0.1707 -0.2519  1.5087
 5348SOL     OW20981   4.645   4.012   6.236 -0.3372  0.1547  0.7721
 5348SOL    HW120982   4.738   4.019   6.261  0.1745  1.1154 -1.1595
 5348SOL    HW220983   4.610   4.099   6.254 -0.9832 -0.3196  1.8555
 5349SOL     OW20984   1.320   1.866   3.603  0.4980  0.2417 -0.0448
 5349SOL    HW120985   1.246   1.806   3.614 -0.6451  1.6459  0.2855
 5349SOL    HW220986   1.396   1.815   3.630 -0.4791 -0.9264  0.6392
 5350SOL     OW20987   9.849   8.141   5.656 -0.3454  0.3445  0.3884
 5350SOL    HW120988   9.926   8.185   5.693 -0.7445  0.4157  1.1427
 5350SOL    HW220989   9.870   8.131   5.563 -0.2325  2.1225  0.1770
 5351SOL     OW20990   8.316   8.376   4.882 -0.2790 -0.9701  0.1608
 5351SOL    HW120991   8.288   8.468   4.887  1.0052 -0.5229 -0.4164
 5351SOL    HW220992   8.403   8.375   4.921 -1.2749 -2.4503  2.5090
 5352SOL     OW20993   5.089   4.744   9.561  0.6369 -0.6455  0.4655
 5352SOL    HW120994   5.012   4.752   9.617  1.0407  1.0095  0.8549
 5352SOL    HW220995   5.162   4.737   9.622  1.2230  2.5221  0.2967
 5353SOL     OW20996   2.874   7.701   7.726  0.5959  0.2569 -0.0925
 5353SOL    HW120997   2.879   7.795   7.743 -2.9372  0.4927  0.2009
 5353SOL    HW220998   2.845   7.663   7.809  0.6793 -0.9479 -0.5991
 5354SOL     OW20999  10.120   0.135   0.982  0.5858  0.4490 -0.0771
 5354SOL    HW121000  10.037   0.122   1.027  0.4063  2.6823  0.3771
 5354SOL    HW221001  10.165   0.202   1.034  2.4515 -0.3141 -0.6123
 5355SOL     OW21002   5.735  10.657  11.185  0.1477  0.3700  0.2194
 5355SOL    HW121003   5.820  10.675  11.227  0.3093 -0.0213  0.0582
 5355SOL    HW221004   5.710  10.741  11.146  1.1480  0.1401 -0.9805
 5356SOL     OW21005   5.611  11.372   3.007 -0.0610 -0.2849 -0.0893
 5356SOL    HW121006   5.556  11.294   3.014 -1.1301  0.3167 -1.3594
 5356SOL    HW221007   5.576  11.432   3.073 -0.1263 -0.3774 -0.0403
 5357SOL     OW21008   4.843   4.770  10.291 -0.1043  0.2671  0.1009
 5357SOL    HW121009   4.754   4.743  10.314 -0.2338 -0.1820 -0.8446
 5357SOL    HW221010   4.899   4.726  10.355 -0.5173 -0.0320  0.2611
 5358SOL     OW21011   8.797   6.274   6.711  0.6109  0.2634 -0.0836
 5358SOL    HW121012   8.765   6.222   6.786  1.2944  0.0039  0.0299
 5358SOL    HW221013   8.840   6.349   6.751 -0.0631  0.7479 -0.2444
 5359SOL     OW21014  10.177   5.627   1.144  0.4794  0.3419 -0.1398
 5359SOL    HW121015  10.127   5.705   1.122  0.0197  0.4064  1.0982
 5359SOL    HW221016  10.114   5.555   1.136  0.7798  0.1374 -0.8000
 5360SOL     OW21017   3.217   4.853  10.344 -0.2617  0.1265  0.4741
 5360SOL    HW121018   3.127   4.856  10.313  0.4425 -1.3512 -1.9279
 5360SOL    HW221019   3.230   4.763  10.374  0.5706  0.1711  0.2806
 5361SOL     OW21020   3.428   5.774   5.696  0.5616 -0.2211 -0.2620
 5361SOL    HW121021   3.371   5.716   5.748 -0.2158  1.3602  0.7319
 5361SOL    HW221022   3.503   5.720   5.674 -1.2685 -2.4056 -1.5984
 5362SOL     OW21023   7.616   1.967   8.449  0.3644 -0.1260 -0.1386
 5362SOL    HW121024   7.578   1.879   8.440 -0.4775  0.2243 -0.0439
 5362SOL    HW221025   7.678   1.959   8.523 -0.7847 -0.2861  0.8335
 5363SOL     OW21026   2.556   7.575  11.082 -0.6547 -0.0200 -0.4155
 5363SOL    HW121027   2.582   7.583  10.991  0.0122 -0.3680 -0.2681
 5363SOL    HW221028   2.464   7.548  11.080 -0.3507 -1.0725 -1.0062
 5364SOL     OW21029  10.808  10.032   5.268 -0.1039 -0.6425  0.2665
 5364SOL    HW121030  10.903  10.045   5.264  0.1190 -1.8540  1.0627
 5364SOL    HW221031  10.798   9.944   5.306 -1.5388 -0.7054 -0.2246
 5365SOL     OW21032   5.060   1.323   2.210  0.6456 -0.2764 -0.4689
 5365SOL    HW121033   5.040   1.237   2.247 -0.0665 -0.3633 -1.0430
 5365SOL    HW221034   5.070   1.307   2.116 -3.6142  0.8732 -1.2952
 5366SOL     OW21035   2.744   6.622   3.233  0.0363  0.1132 -0.4410
 5366SOL    HW121036   2.765   6.656   3.320  0.1228 -0.3181 -0.2927
 5366SOL    HW221037   2.724   6.530   3.247  0.3744 -0.0378 -0.9264
 5367SOL     OW21038  10.684   5.337   2.011 -0.0751  0.5445 -0.1357
 5367SOL    HW121039  10.646   5.420   2.040  0.5032  0.9134 -0.4211
 5367SOL    HW221040  10.674   5.337   1.916 -0.5845  0.0264 -0.0882
 5368SOL     OW21041   8.730   2.237   9.185 -0.7212 -0.3251 -0.5757
 5368SOL    HW121042   8.671   2.182   9.236  0.6409 -2.9584 -1.6364
 5368SOL    HW221043   8.798   2.177   9.154  2.3636  2.3939  0.2564
 5369SOL     OW21044   7.236   2.714  10.577 -0.1088 -0.2331 -0.6301
 5369SOL    HW121045   7.204   2.803  10.590  0.6129  0.0067 -0.4547
 5369SOL    HW221046   7.180   2.679  10.508  0.6296  0.9240 -1.8820
 5370SOL     OW21047   2.136   4.695   9.399 -0.1995  0.0553  0.7519
 5370SOL    HW121048   2.219   4.717   9.442  0.4447 -1.3092  0.2610
 5370SOL    HW221049   2.112   4.609   9.434 -0.7765 -0.1125 -0.0056
 5371SOL     OW21050   3.665  11.374  10.791 -0.6603 -0.3346 -0.5363
 5371SOL    HW121051   3.721  11.299  10.770 -2.5811 -2.1135  0.3340
 5371SOL    HW221052   3.628  11.353  10.876 -2.3287  0.9545 -0.8967
 5372SOL     OW21053   5.789   8.285   7.560 -0.5586 -0.5375 -0.2886
 5372SOL    HW121054   5.794   8.309   7.468  0.9857  0.1085 -0.0615
 5372SOL    HW221055   5.835   8.354   7.606  2.0919 -2.7036  0.6034
 5373SOL     OW21056   2.420   0.685   6.498  0.1546  0.1745  0.1632
 5373SOL    HW121057   2.386   0.717   6.415 -0.7231  0.0816  0.4799
 5373SOL    HW221058   2.357   0.619   6.526  0.7764 -0.2444  0.5992
 5374SOL     OW21059   2.588   3.483   7.570 -0.2473  0.4630  0.1583
 5374SOL    HW121060   2.528   3.422   7.613 -0.4175 -0.1697 -0.9291
 5374SOL    HW221061   2.531   3.536   7.514  0.0731  0.6292 -0.0096
 5375SOL     OW21062   8.070   0.897   9.370 -0.0905  0.4321  0.2071
 5375SOL    HW121063   8.085   0.805   9.349  0.5333 -0.0444  2.4872
 5375SOL    HW221064   8.157   0.930   9.394 -0.3159  1.6289 -0.5477
 5376SOL     OW21065   2.597   4.671   0.949 -0.3924 -0.2535  0.1422
 5376SOL    HW121066   2.511   4.712   0.948 -0.5107 -0.4412  1.3100
 5376SOL    HW221067   2.606   4.636   1.037  0.7837 -0.4515 -0.0370
 5377SOL     OW21068   3.320   5.537   6.667 -0.0183 -0.2941 -0.9373
 5377SOL    HW121069   3.335   5.614   6.722 -2.1696 -0.1671 -0.4688
 5377SOL    HW221070   3.404   5.524   6.622  1.1805  0.8157  0.8137
 5378SOL     OW21071   1.870   5.975   2.705  0.4340  0.0251  0.4895
 5378SOL    HW121072   1.930   5.978   2.631  0.3600  2.2304  0.4602
 5378SOL    HW221073   1.789   6.014   2.672 -0.5988 -1.5947  0.9455
 5379SOL     OW21074   6.457   1.006   6.378 -0.4176  1.1273  0.1134
 5379SOL    HW121075   6.370   1.017   6.339 -0.5954 -0.1308  0.1144
 5379SOL    HW221076   6.517   1.033   6.309 -0.7878  1.0491 -0.2493
 5380SOL     OW21077  11.308   2.557   2.145 -0.4471 -0.1769 -0.0714
 5380SOL    HW121078  11.389   2.608   2.138 -0.2274 -0.5387 -0.2105
 5380SOL    HW221079  11.297   2.518   2.058 -1.6608  1.1849 -0.5729
 5381SOL     OW21080   9.527   0.479  10.822 -0.0597 -0.5531  0.0394
 5381SOL    HW121081   9.433   0.491  10.834 -0.2120 -1.1425 -0.5358
 5381SOL    HW221082   9.535   0.396  10.775  0.7145 -0.2252 -0.4187
 5382SOL     OW21083   9.495   3.758   2.010  0.1147  0.3399 -0.0964
 5382SOL    HW121084   9.571   3.702   1.997 -0.2932  0.1560 -2.0763
 5382SOL    HW221085   9.515   3.838   1.963 -0.0739  1.1515  1.1506
 5383SOL     OW21086   3.085  11.398   0.896 -0.7824  0.3734  0.2589
 5383SOL    HW121087   3.117  11.308   0.907 -2.2155  0.0637  2.3592
 5383SOL    HW221088   3.109  11.441   0.978 -0.8157  1.7093 -0.4203
 5384SOL     OW21089   7.030   3.718  10.131 -0.4768 -0.4618 -0.4723
 5384SOL    HW121090   7.109   3.764  10.160 -0.7083 -1.2042  1.4424
 5384SOL    HW221091   6.963   3.745  10.193 -1.2949 -1.2514 -0.9940
 5385SOL     OW21092   9.725  11.664   2.297  0.3707  0.5746 -0.0785
 5385SOL    HW121093   9.771  11.652   2.381 -1.0671  2.4184  1.0467
 5385SOL    HW221094   9.656  11.598   2.298 -1.1413  2.0607  1.3821
 5386SOL     OW21095   5.329  10.529   7.180 -0.0032 -0.3960  0.1820
 5386SOL    HW121096   5.400  10.593   7.186  0.4989 -0.3823 -3.5074
 5386SOL    HW221097   5.341  10.488   7.094 -3.1432 -2.0411  0.3770
 5387SOL     OW21098  11.623   0.235  11.498 -0.5444 -0.0702 -0.4312
 5387SOL    HW121099  11.554   0.293  11.530  0.6492  0.6869  0.8945
 5387SOL    HW221100  11.586   0.147  11.505 -1.0084  0.2346  1.2908
 5388SOL     OW21101   2.602   2.377   4.036  0.5507  0.2339  0.2334
 5388SOL    HW121102   2.560   2.447   4.086 -2.9180 -1.3606 -0.1216
 5388SOL    HW221103   2.586   2.400   3.944 -2.3274 -1.7397  0.1047
 5389SOL     OW21104   4.143   3.843   5.186 -0.2382  0.6346  0.3275
 5389SOL    HW121105   4.145   3.768   5.244 -0.7940  0.8635  0.6524
 5389SOL    HW221106   4.117   3.807   5.101 -0.5212  0.4592  0.4860
 5390SOL     OW21107   3.331   6.315  11.154 -0.7142 -0.3284  0.5025
 5390SOL    HW121108   3.378   6.260  11.217 -1.6465 -0.9591  0.6619
 5390SOL    HW221109   3.369   6.293  11.070  2.2280  2.2034  0.9587
 5391SOL     OW21110  10.026   5.749   5.901  0.3274  0.4461 -0.0912
 5391SOL    HW121111   9.987   5.725   5.817 -2.1690  0.0031  1.1091
 5391SOL    HW221112   9.956   5.793   5.949  1.8113  1.0651  1.6280
 5392SOL     OW21113   0.007   5.797   9.452 -0.2419 -1.3419  0.4641
 5392SOL    HW121114   0.099   5.820   9.443 -0.1189 -2.0682 -0.3018
 5392SOL    HW221115  -0.023   5.782   9.362 -1.3186 -0.3536  0.6300
 5393SOL     OW21116   6.343   2.346   1.688 -0.4940  0.7607  0.0284
 5393SOL    HW121117   6.353   2.412   1.757 -0.5501  2.0081 -1.1218
 5393SOL    HW221118   6.304   2.270   1.733 -0.6843  1.5967  1.3247
 5394SOL     OW21119   3.194   9.294   8.215 -0.0261  0.2497  0.8579
 5394SOL    HW121120   3.277   9.259   8.248 -0.0339  0.4671  1.1148
 5394SOL    HW221121   3.128   9.237   8.254  0.0156 -0.0508  0.4853
 5395SOL     OW21122   0.943   5.396   3.245  0.0326 -0.3884 -0.2883
 5395SOL    HW121123   1.030   5.423   3.214 -0.4817  1.2309 -0.3973
 5395SOL    HW221124   0.888   5.401   3.167 -0.4418 -0.1023  0.0632
 5396SOL     OW21125   1.749   4.192   5.508  0.3358 -0.8540  0.1701
 5396SOL    HW121126   1.731   4.160   5.420  1.6342 -0.1126 -0.3854
 5396SOL    HW221127   1.663   4.215   5.544 -0.0193  1.5559 -1.9646
 5397SOL     OW21128   0.281   1.090   4.525 -0.4953 -0.0561  0.3092
 5397SOL    HW121129   0.306   1.177   4.494  0.2887  0.3580  1.9984
 5397SOL    HW221130   0.359   1.036   4.512 -0.7501 -0.3488 -0.0646
 5398SOL     OW21131   8.605   0.838   5.143  0.1565 -0.0135 -0.4629
 5398SOL    HW121132   8.660   0.892   5.200  0.3864  0.1132 -0.7984
 5398SOL    HW221133   8.578   0.898   5.072  0.0247 -0.2154 -0.5844
 5399SOL     OW21134   2.759   9.288   3.817  0.1091  0.5143  0.0800
 5399SOL    HW121135   2.825   9.289   3.747 -0.4099  1.7188 -0.4230
 5399SOL    HW221136   2.698   9.218   3.791  0.2107  0.5983 -0.3950
 5400SOL     OW21137   3.448   0.090   1.461 -0.3029 -0.2613  0.1536
 5400SOL    HW121138   3.531   0.052   1.488 -0.5801 -1.8228 -1.0613
 5400SOL    HW221139   3.398   0.099   1.542  0.0771 -1.7760  0.5873
 5401SOL     OW21140  10.153  10.074  11.681 -0.0547 -0.7778  0.0287
 5401SOL    HW121141  10.085  10.058  11.747  0.2060 -1.5508  0.1274
 5401SOL    HW221142  10.120  10.030  11.603 -1.0751  1.4025 -0.8430
 5402SOL     OW21143   9.925   6.158   4.490 -0.6250 -0.3576 -0.1502
 5402SOL    HW121144  10.011   6.124   4.515 -0.1852 -0.7417 -2.0279
 5402SOL    HW221145   9.914   6.131   4.398 -2.6460 -0.0980 -0.0310
 5403SOL     OW21146   6.349   6.383   8.841  0.0497 -0.0432 -0.0332
 5403SOL    HW121147   6.384   6.400   8.754 -0.6180  1.4369 -0.0465
 5403SOL    HW221148   6.260   6.351   8.825 -0.2115  0.6052  0.1104
 5404SOL     OW21149   0.084   0.987   2.664 -0.5478  0.1061  0.1350
 5404SOL    HW121150   0.002   0.950   2.696 -1.2105 -0.6519 -2.2616
 5404SOL    HW221151   0.074   1.082   2.677 -1.9420  0.0545 -0.4184
 5405SOL     OW21152   5.692   4.950   0.608 -0.3789  0.4922  0.4623
 5405SOL    HW121153   5.654   4.987   0.688  1.0226  1.5800  0.6704
 5405SOL    HW221154   5.763   5.010   0.586 -0.5681  0.0612 -1.4673
 5406SOL     OW21155   9.384   8.813  10.032  0.5554 -0.0847  0.0443
 5406SOL    HW121156   9.442   8.748  10.072 -0.5746 -1.5029 -0.5391
 5406SOL    HW221157   9.328   8.763   9.974 -0.7421  1.3520 -0.0138
 5407SOL     OW21158  10.809   0.470   2.726  0.2029  0.1673 -0.5129
 5407SOL    HW121159  10.832   0.405   2.792 -1.6048 -0.1082 -0.1302
 5407SOL    HW221160  10.788   0.549   2.776 -2.4634 -0.4138 -0.5982
 5408SOL     OW21161   1.369  10.086   3.547  0.2458 -0.1174 -0.7350
 5408SOL    HW121162   1.446  10.069   3.492  0.7774 -1.2082  0.3058
 5408SOL    HW221163   1.405  10.107   3.633 -0.5885 -2.6741  0.3337
 5409SOL     OW21164   2.929   4.620   1.395 -0.3315  0.3035 -0.3442
 5409SOL    HW121165   2.919   4.528   1.372 -2.5570  0.4166  0.0022
 5409SOL    HW221166   2.907   4.625   1.488  0.5067  1.0821 -0.1712
 5410SOL     OW21167   8.109   6.663   5.017  1.1161 -0.5089  0.6757
 5410SOL    HW121168   8.020   6.670   5.050  1.1820 -0.9797  0.9635
 5410SOL    HW221169   8.164   6.696   5.087  1.1006  1.0722 -0.0180
 5411SOL     OW21170   9.810   5.523   4.494  0.6608  0.2928 -0.6122
 5411SOL    HW121171   9.803   5.494   4.585  2.0596  2.2295  0.1862
 5411SOL    HW221172   9.720   5.544   4.469  0.3184  0.2289  0.5052
 5412SOL     OW21173   3.240   4.944   0.184 -0.4716 -0.0279 -0.6174
 5412SOL    HW121174   3.329   4.943   0.150 -1.0135 -0.4608 -2.0696
 5412SOL    HW221175   3.196   5.014   0.136 -1.0459 -0.1124 -0.2322
 5413SOL     OW21176  11.104   3.031   9.981 -0.2433 -0.4881 -0.4118
 5413SOL    HW121177  11.086   3.099   9.917  0.7844 -0.1553 -0.3731
 5413SOL    HW221178  11.067   2.951   9.943 -0.8974 -0.0309 -0.7482
 5414SOL     OW21179   1.149   7.353   7.176  0.6965  0.2431 -0.4140
 5414SOL    HW121180   1.192   7.439   7.178 -0.2229  0.7080 -0.0933
 5414SOL    HW221181   1.099   7.350   7.257  0.6450 -0.5652 -0.4765
 5415SOL     OW21182   4.966   4.979   4.998  0.3860  0.1197  0.1361
 5415SOL    HW121183   5.001   5.052   4.946  1.7988 -1.8752 -1.8815
 5415SOL    HW221184   4.997   4.901   4.953 -3.8289 -1.8490  0.1578
 5416SOL     OW21185   8.854   8.721   5.862 -0.1989 -0.2849  0.1603
 5416SOL    HW121186   8.919   8.677   5.807  0.0164  0.4707 -0.2054
 5416SOL    HW221187   8.779   8.662   5.861 -0.1810 -0.3174 -0.9149
 5417SOL     OW21188   6.497  11.067   7.898  0.6157  0.0677  0.7426
 5417SOL    HW121189   6.557  11.026   7.836  0.7376 -0.3870  1.1468
 5417SOL    HW221190   6.519  11.026   7.982  0.6335  0.8512  1.1344
 5418SOL     OW21191   8.074   8.087   2.803  0.4143 -0.0852 -0.0796
 5418SOL    HW121192   7.990   8.106   2.761 -0.1238  0.1412  1.0624
 5418SOL    HW221193   8.138   8.135   2.751 -0.0859 -0.6584 -1.2669
 5419SOL     OW21194   5.463   6.093   2.300 -0.0747  0.6345  0.3081
 5419SOL    HW121195   5.459   6.055   2.387  1.6569  0.1544  0.2159
 5419SOL    HW221196   5.374   6.085   2.266 -0.0980 -2.2087  0.7916
 5420SOL     OW21197   3.349   4.332   9.649  0.0369  0.4479 -0.7542
 5420SOL    HW121198   3.376   4.423   9.639 -0.4388  0.3698 -3.7070
 5420SOL    HW221199   3.266   4.327   9.601 -0.9660 -1.1414  1.0251
 5421SOL     OW21200   2.010   5.007   8.408  0.4880  0.2626 -0.7375
 5421SOL    HW121201   2.075   4.951   8.365 -1.0504 -1.0449 -1.4784
 5421SOL    HW221202   1.944   4.946   8.441  0.4704  1.4302  1.5157
 5422SOL     OW21203   3.836   1.841   0.274 -0.3558  0.0903 -0.4184
 5422SOL    HW121204   3.828   1.826   0.179  2.7115 -0.3549 -0.7122
 5422SOL    HW221205   3.781   1.773   0.313  0.0387 -1.1301 -1.8869
 5423SOL     OW21206  11.571   7.340   6.788 -0.1535  0.2584 -0.3994
 5423SOL    HW121207  11.646   7.365   6.843 -1.3369  1.0672  0.9335
 5423SOL    HW221208  11.528   7.423   6.768 -0.4046 -0.1446 -1.6096
 5424SOL     OW21209   8.962   3.088   5.671  0.0629 -0.3305 -0.2638
 5424SOL    HW121210   8.991   3.174   5.643  2.7958 -0.9974  0.2245
 5424SOL    HW221211   8.960   3.035   5.591 -1.4792  0.0951 -0.5407
 5425SOL     OW21212   0.833   4.429   7.567 -0.3237  0.2478  0.6837
 5425SOL    HW121213   0.743   4.450   7.540 -0.7425 -1.5864  0.5474
 5425SOL    HW221214   0.826   4.409   7.660  0.1907  1.2847  0.9670
 5426SOL     OW21215   3.722   5.817   0.263 -0.3224 -0.0089 -0.7610
 5426SOL    HW121216   3.629   5.841   0.262  0.0498  1.6714  0.3923
 5426SOL    HW221217   3.768   5.900   0.278  1.2862 -1.0316  0.3195
 5427SOL     OW21218   6.584   4.315   3.323  0.4144 -0.0320 -0.7116
 5427SOL    HW121219   6.495   4.280   3.334  0.5426 -0.3701 -0.7428
 5427SOL    HW221220   6.570   4.404   3.289  0.0638  0.2808  0.2046
 5428SOL     OW21221  10.123   0.190   2.296 -0.5348  0.0920  0.4082
 5428SOL    HW121222  10.070   0.270   2.294  0.3243  0.6775 -1.1579
 5428SOL    HW221223  10.123   0.160   2.205 -0.0405 -1.1652  0.8085
 5429SOL     OW21224   2.778  10.808   9.996 -0.6985 -0.2342  0.0432
 5429SOL    HW121225   2.763  10.900   9.977 -3.8366 -0.7736 -0.6368
 5429SOL    HW221226   2.850  10.808  10.059  0.2443  2.5469 -0.8836
 5430SOL     OW21227   9.719   7.605   9.827 -0.2825 -0.1634 -0.3512
 5430SOL    HW121228   9.761   7.675   9.777 -0.9713  1.8054  1.6097
 5430SOL    HW221229   9.792   7.553   9.861  0.6960  2.3008  1.7535
 5431SOL     OW21230   6.833   4.721   0.284 -0.2182 -0.4751 -0.9089
 5431SOL    HW121231   6.845   4.664   0.209  3.1718  1.0685 -1.6939
 5431SOL    HW221232   6.909   4.779   0.284 -1.4403  1.4105  2.1561
 5432SOL     OW21233   9.969   0.865   2.272 -0.5370 -0.0046  0.1472
 5432SOL    HW121234   9.931   0.927   2.210 -0.1546  1.6001  1.4250
 5432SOL    HW221235   9.928   0.887   2.356 -0.1465 -1.2981  0.7121
 5433SOL     OW21236   6.066   0.111  10.563 -0.0511 -0.6085  0.2100
 5433SOL    HW121237   6.118   0.149  10.492 -1.6286  0.2146 -0.5640
 5433SOL    HW221238   6.009   0.182  10.591 -1.3123 -1.6853  0.4789
 5434SOL     OW21239   7.811  11.172   9.061  0.3461 -0.3138 -0.0217
 5434SOL    HW121240   7.772  11.257   9.083 -0.8843 -0.5933 -1.0480
 5434SOL    HW221241   7.873  11.156   9.133 -0.6774  0.6162  1.1226
 5435SOL     OW21242   5.781   2.315  10.818  0.7921  0.0945  0.0326
 5435SOL    HW121243   5.716   2.255  10.856 -1.5083  1.4808 -1.4302
 5435SOL    HW221244   5.853   2.316  10.881 -0.2944 -2.0680  1.4139
 5436SOL     OW21245   6.139   6.828   8.078  0.0763 -0.3965  0.4942
 5436SOL    HW121246   6.158   6.808   7.986 -0.4885 -0.8421  0.4717
 5436SOL    HW221247   6.195   6.769   8.128  2.1712  1.4307  0.4959
 5437SOL     OW21248   8.466   3.181   1.268 -0.1692  0.4317  0.1270
 5437SOL    HW121249   8.498   3.191   1.179 -0.4000  0.9334  0.0963
 5437SOL    HW221250   8.391   3.122   1.260 -0.2108  0.5042 -0.0130
 5438SOL     OW21251   3.989   7.788   3.207  0.0488  0.0025 -0.4104
 5438SOL    HW121252   3.940   7.869   3.191  2.4113  1.4992 -0.6549
 5438SOL    HW221253   3.972   7.734   3.130  0.5958  1.4773 -1.6174
 5439SOL     OW21254   5.409   5.652  10.481 -0.2410  0.4793  0.1263
 5439SOL    HW121255   5.330   5.603  10.458 -0.1787  0.7616 -0.7484
 5439SOL    HW221256   5.378   5.743  10.491  0.1508  0.8377 -1.5342
 5440SOL     OW21257   6.759   1.477  11.121 -0.1938 -0.0898 -0.3032
 5440SOL    HW121258   6.811   1.516  11.050  1.2059  2.2314  1.8373
 5440SOL    HW221259   6.824   1.452  11.187 -1.2411 -4.2069 -0.5356
 5441SOL     OW21260   7.049   9.718   3.364  0.5488 -0.1982  0.0856
 5441SOL    HW121261   6.992   9.648   3.395  1.0234 -1.8321 -2.4866
 5441SOL    HW221262   7.135   9.696   3.400  0.2471  0.5178  1.3307
 5442SOL     OW21263   0.764   8.006   7.800  0.4480  0.1945  0.0218
 5442SOL    HW121264   0.713   7.994   7.719  0.3923  2.2717 -0.2973
 5442SOL    HW221265   0.725   7.943   7.861 -0.4342 -0.4529 -1.1448
 5443SOL     OW21266  11.577   6.501   2.580 -0.2833  0.1920 -0.3732
 5443SOL    HW121267  11.523   6.425   2.604 -0.0593 -0.7369 -2.5801
 5443SOL    HW221268  11.586   6.550   2.662 -2.8113 -0.6517  0.5237
 5444SOL     OW21269   2.126   7.601   6.408  0.0783 -0.0302  0.1448
 5444SOL    HW121270   2.034   7.600   6.381 -0.4309 -0.2231  1.7941
 5444SOL    HW221271   2.161   7.517   6.378 -0.1268  0.2661 -0.9563
 5445SOL     OW21272   6.817  11.402   2.823 -0.3073 -0.0626  0.5442
 5445SOL    HW121273   6.737  11.450   2.843 -0.8003 -0.4720 -0.3656
 5445SOL    HW221274   6.788  11.312   2.809  0.1704 -0.0555 -0.6254
 5446SOL     OW21275   2.657   7.517   5.805 -0.3287  0.5731 -0.0002
 5446SOL    HW121276   2.561   7.516   5.794 -0.8649  0.7332  3.4225
 5446SOL    HW221277   2.684   7.428   5.781 -1.6844 -0.1122  0.8232
 5447SOL     OW21278   9.453  11.050   2.985 -0.7736 -0.3441 -0.5173
 5447SOL    HW121279   9.407  11.067   3.067  0.0168 -1.5371  0.2108
 5447SOL    HW221280   9.545  11.068   3.004 -0.5533 -0.8000 -1.0796
 5448SOL     OW21281   1.603  11.551   2.396 -0.3975 -0.6025 -0.1886
 5448SOL    HW121282   1.551  11.620   2.437  0.1721  0.5566 -1.3392
 5448SOL    HW221283   1.688  11.556   2.441 -0.3428 -0.5112 -0.3002
 5449SOL     OW21284   7.613   0.064   0.767  0.0271  0.0057  0.7861
 5449SOL    HW121285   7.552   0.005   0.723 -0.9708  0.5470  1.4280
 5449SOL    HW221286   7.648   0.119   0.696 -0.3641 -0.1745  0.4487
 5450SOL     OW21287   8.544   4.187   8.402  0.2486 -0.4239 -0.7896
 5450SOL    HW121288   8.527   4.093   8.390 -1.4724 -0.2200 -0.1146
 5450SOL    HW221289   8.522   4.227   8.318 -0.6781 -0.4200 -0.5501
 5451SOL     OW21290   5.609  10.892   0.669  0.2942 -0.3082 -0.5398
 5451SOL    HW121291   5.664  10.913   0.594 -1.1010 -0.2784 -1.5982
 5451SOL    HW221292   5.522  10.876   0.631 -0.3868 -0.5394  1.0435
 5452SOL     OW21293   5.163   4.802  10.582 -0.0577 -0.4084  0.3303
 5452SOL    HW121294   5.216   4.791  10.504  0.9661  0.5320  0.8589
 5452SOL    HW221295   5.105   4.875  10.562 -1.1497 -1.4134 -0.2345
 5453SOL     OW21296   0.108   3.194   2.844 -0.2599  0.1186 -0.6893
 5453SOL    HW121297   0.145   3.152   2.766  1.3814  0.3256 -0.0706
 5453SOL    HW221298   0.042   3.133   2.876  1.8987 -1.9715  0.0670
 5454SOL     OW21299  11.196   2.260   3.138 -0.2653  0.9526 -0.4235
 5454SOL    HW121300  11.146   2.180   3.154  0.0238  1.0924  1.3830
 5454SOL    HW221301  11.146   2.328   3.184  1.9944  0.9363  2.2816
 5455SOL     OW21302   0.024   7.707   8.856 -0.1753  0.0882 -0.5996
 5455SOL    HW121303   0.069   7.789   8.837  0.0672  0.6266  1.9468
 5455SOL    HW221304  -0.062   7.734   8.888 -0.3249 -0.6740 -0.3378
 5456SOL     OW21305   9.831   3.640  11.177 -0.0014 -0.2086  0.0775
 5456SOL    HW121306   9.742   3.641  11.141  0.9039  0.0957 -2.2990
 5456SOL    HW221307   9.847   3.730  11.203 -0.6988 -0.4499  1.4452
 5457SOL     OW21308   2.564   1.977   7.424  0.0710 -0.0721 -0.1784
 5457SOL    HW121309   2.614   2.058   7.430  0.3991 -0.2840 -0.0006
 5457SOL    HW221310   2.627   1.912   7.393 -0.9431  0.4168 -3.6961
 5458SOL     OW21311   1.770   1.045   0.687 -0.0722 -1.1489  0.3292
 5458SOL    HW121312   1.712   1.038   0.611 -0.7452 -2.0054  0.9048
 5458SOL    HW221313   1.733   1.115   0.740  1.4263  0.7163 -0.9733
 5459SOL     OW21314  11.085   1.115   2.824 -0.0235 -0.4878  0.0517
 5459SOL    HW121315  11.090   1.047   2.891  1.7687 -1.4459 -0.9538
 5459SOL    HW221316  11.093   1.067   2.741 -1.7651  0.6972 -0.8556
 5460SOL     OW21317   9.827   5.787   6.550 -0.0504  0.4240 -0.6864
 5460SOL    HW121318   9.740   5.812   6.581  0.6305  0.7648  1.0726
 5460SOL    HW221319   9.826   5.804   6.456 -1.8107  0.5970 -0.6588
 5461SOL     OW21320   8.677   2.428   5.908 -0.1657 -0.1411  0.0471
 5461SOL    HW121321   8.600   2.485   5.901 -0.1599 -0.2482 -1.0312
 5461SOL    HW221322   8.640   2.342   5.929 -0.1375  0.3239  2.2571
 5462SOL     OW21323   7.732   6.506   1.099  0.1987 -0.1835 -0.3977
 5462SOL    HW121324   7.658   6.474   1.047 -0.6935  0.9862  0.1105
 5462SOL    HW221325   7.744   6.597   1.071 -0.6154  0.6449  1.6982
 5463SOL     OW21326   4.451   7.402  10.408 -0.1565 -0.1656 -0.0839
 5463SOL    HW121327   4.502   7.482  10.414 -0.7316  0.1589  0.8054
 5463SOL    HW221328   4.489   7.343  10.474 -2.1287  0.8285  2.1212
 5464SOL     OW21329   3.967   9.864   3.395  0.3392 -0.2918 -0.2452
 5464SOL    HW121330   3.928   9.869   3.308  0.7056  0.9428 -0.3594
 5464SOL    HW221331   4.052   9.821   3.380 -0.4118 -1.8858 -0.1704
 5465SOL     OW21332   3.493   5.393   3.420 -0.0633  0.4542  0.1518
 5465SOL    HW121333   3.483   5.485   3.394  1.1114  0.1747 -1.4255
 5465SOL    HW221334   3.429   5.382   3.491 -2.9145  1.5477 -2.0076
 5466SOL     OW21335   5.785   7.320   5.862 -0.2176  0.3906 -0.4166
 5466SOL    HW121336   5.863   7.295   5.913 -0.8228 -1.7768 -0.4504
 5466SOL    HW221337   5.791   7.415   5.854  2.7209  0.2535 -0.9072
 5467SOL     OW21338   2.251   9.194   3.084 -0.2260 -0.0787  0.0763
 5467SOL    HW121339   2.312   9.223   3.152 -2.7167  1.6990  1.7444
 5467SOL    HW221340   2.205   9.120   3.123 -0.7207  0.0615 -0.2359
 5468SOL     OW21341   4.756  11.386   7.259 -0.2987 -0.7589 -0.5909
 5468SOL    HW121342   4.805  11.312   7.294 -0.5015 -0.7899 -0.3669
 5468SOL    HW221343   4.731  11.359   7.171  0.1976 -0.6889 -0.7553
 5469SOL     OW21344   1.241   0.381  11.645  0.2421  0.3527 -0.4966
 5469SOL    HW121345   1.255   0.395  11.551 -0.5923  1.7671 -0.4391
 5469SOL    HW221346   1.319   0.334  11.674  0.7782  0.3958 -1.7870
 5470SOL     OW21347   5.322   7.089   8.595  0.2506 -0.4880 -0.1399
 5470SOL    HW121348   5.266   7.027   8.640  2.7333 -2.3569  0.6043
 5470SOL    HW221349   5.350   7.150   8.663 -0.7767  0.4294 -0.5051
 5471SOL     OW21350   4.949   4.041  10.600 -0.4318 -0.4701 -0.0401
 5471SOL    HW121351   4.938   3.949  10.625 -0.1394 -0.6322 -0.4979
 5471SOL    HW221352   5.006   4.078  10.668 -0.3766 -0.6785  0.0268
 5472SOL     OW21353   5.628   4.028   4.396  0.5212  0.4102 -0.5736
 5472SOL    HW121354   5.633   4.091   4.325  0.9578  0.3880 -0.5639
 5472SOL    HW221355   5.536   4.031   4.424  0.6705  1.4943 -0.1540
 5473SOL     OW21356   2.429   9.305   5.204  0.0848  0.3978 -0.2503
 5473SOL    HW121357   2.444   9.338   5.293 -1.7970  1.9994 -0.4560
 5473SOL    HW221358   2.361   9.238   5.216  0.4200  0.0229 -0.4105
 5474SOL     OW21359   2.835   8.615   2.640  0.3985  0.1804 -0.3029
 5474SOL    HW121360   2.757   8.609   2.586  1.3295 -1.9460 -1.5407
 5474SOL    HW221361   2.806   8.589   2.727 -0.3417 -0.2766 -0.6798
 5475SOL     OW21362   9.899   8.311   7.012 -0.6115 -0.0984 -0.1568
 5475SOL    HW121363   9.855   8.381   7.061  0.8337 -0.1821  1.3692
 5475SOL    HW221364   9.924   8.352   6.929 -1.3663  0.6601 -0.0233
 5476SOL     OW21365   9.191  10.770   2.437 -0.5185 -0.3783 -0.0031
 5476SOL    HW121366   9.159  10.857   2.413 -0.1188  0.1481  1.3018
 5476SOL    HW221367   9.192  10.770   2.533  1.1425 -1.2036  0.0233
 5477SOL     OW21368   4.379   1.832   2.081  0.5366 -0.0835 -0.3369
 5477SOL    HW121369   4.436   1.897   2.120  1.1764 -0.2636 -0.9565
 5477SOL    HW221370   4.426   1.749   2.091  0.2550 -0.2794 -0.5997
 5478SOL     OW21371   1.392   2.037   1.764  0.1035 -0.0293 -0.4250
 5478SOL    HW121372   1.349   1.966   1.812 -0.4100 -0.4214 -1.4472
 5478SOL    HW221373   1.327   2.107   1.762  0.2622  0.1245 -0.2366
 5479SOL     OW21374   9.415   6.052   4.171  0.4810 -0.4556  0.3774
 5479SOL    HW121375   9.466   6.045   4.251  0.1840  0.3539  0.6482
 5479SOL    HW221376   9.423   6.144   4.145 -1.4462 -0.1037  0.8576
 5480SOL     OW21377  11.414   5.433   5.178 -0.5564  0.4733  0.1165
 5480SOL    HW121378  11.438   5.519   5.214 -1.1326  0.3930  0.7065
 5480SOL    HW221379  11.425   5.373   5.251 -0.6745  0.1288 -0.1479
 5481SOL     OW21380   1.835   1.432   0.555 -0.4459 -0.3815 -0.5229
 5481SOL    HW121381   1.764   1.496   0.540 -0.8951 -1.0430 -1.3105
 5481SOL    HW221382   1.875   1.421   0.469 -1.1577 -2.0650 -0.6783
 5482SOL     OW21383   7.284   2.783   7.738  0.4247  0.0706  0.4786
 5482SOL    HW121384   7.195   2.814   7.720 -0.6422 -2.1690  1.4782
 5482SOL    HW221385   7.336   2.816   7.665 -1.4586  0.4185 -0.7887
 5483SOL     OW21386   3.551   8.334   4.316  0.0293  0.1509 -0.0219
 5483SOL    HW121387   3.485   8.342   4.384  1.7673  1.1435  1.6494
 5483SOL    HW221388   3.593   8.420   4.312  2.5380 -0.9599  0.4334
 5484SOL     OW21389   1.149  10.845   4.653  0.4478  0.1568 -0.4031
 5484SOL    HW121390   1.224  10.787   4.662  1.3318  0.7759 -2.8891
 5484SOL    HW221391   1.187  10.932   4.639 -0.6666  0.4014 -2.2004
 5485SOL     OW21392   3.364   7.023   1.714  0.2913  0.2413 -0.6420
 5485SOL    HW121393   3.381   6.934   1.745 -2.5995 -0.0313  0.4972
 5485SOL    HW221394   3.450   7.058   1.693  1.7090 -2.1316  0.7516
 5486SOL     OW21395   5.505   3.486  10.875 -0.3147 -0.0192 -0.7555
 5486SOL    HW121396   5.516   3.545  10.950 -2.1045  1.5174 -1.6127
 5486SOL    HW221397   5.507   3.398  10.913  4.1661  0.3075  0.3720
 5487SOL     OW21398   0.336   7.685   0.335 -0.0061 -0.0217 -0.1771
 5487SOL    HW121399   0.409   7.728   0.289  1.0488 -2.0130 -0.4729
 5487SOL    HW221400   0.267   7.678   0.269 -0.2943  1.3624 -0.0574
 5488SOL     OW21401   6.245   4.234   2.449  0.0444  0.4423  0.0840
 5488SOL    HW121402   6.287   4.224   2.534  0.9949  0.7244 -0.3336
 5488SOL    HW221403   6.214   4.146   2.426 -2.1464  0.7307  1.6561
 5489SOL     OW21404   2.965   8.040   5.290 -0.3612 -0.0222  0.2438
 5489SOL    HW121405   2.935   8.052   5.200  0.6875  1.3059  0.0482
 5489SOL    HW221406   2.940   8.121   5.334  3.3506  1.5088 -0.0871
 5490SOL     OW21407   7.369   1.675   2.342  0.1877  0.2405  0.3961
 5490SOL    HW121408   7.282   1.636   2.338  0.5602 -0.4920 -1.1415
 5490SOL    HW221409   7.417   1.618   2.403 -0.4289  0.7342  1.3668
 5491SOL     OW21410  10.724   5.748   9.552  0.1507 -0.3237  0.0702
 5491SOL    HW121411  10.797   5.704   9.509 -0.0866 -2.2919  1.5392
 5491SOL    HW221412  10.653   5.744   9.487  1.4394  2.2233 -1.6351
 5492SOL     OW21413  10.474   1.089   0.159  0.5119 -0.0686  0.0986
 5492SOL    HW121414  10.459   1.183   0.153 -0.8410 -0.2566  0.1723
 5492SOL    HW221415  10.456   1.056   0.071  0.8821 -0.2716  0.0981
 5493SOL     OW21416   9.672   6.790  10.589  0.1067  0.6626  0.5404
 5493SOL    HW121417   9.642   6.741  10.512  0.3030 -0.9441  1.4521
 5493SOL    HW221418   9.761   6.759  10.604 -0.6071 -0.6118  2.5958
 5494SOL     OW21419   7.526   2.425   2.986  0.2322  0.1359 -0.0846
 5494SOL    HW121420   7.593   2.360   2.966 -0.0018 -0.4648  0.9801
 5494SOL    HW221421   7.478   2.436   2.905  1.9132  0.9587 -1.0319
 5495SOL     OW21422   4.655   1.685   7.587 -0.3868 -0.2351  0.7698
 5495SOL    HW121423   4.708   1.630   7.645 -0.6282  0.0995  1.3208
 5495SOL    HW221424   4.575   1.703   7.637 -1.6455 -1.8085 -0.5410
 5496SOL     OW21425   6.479   3.371   0.643 -0.4221  0.9586 -0.4519
 5496SOL    HW121426   6.496   3.406   0.731 -0.7755  3.0716 -1.1722
 5496SOL    HW221427   6.393   3.406   0.620 -0.8152 -0.4769 -1.2226
 5497SOL     OW21428   5.179   6.222   0.040 -0.1932 -0.3575  0.0526
 5497SOL    HW121429   5.169   6.170  -0.040 -1.7373  1.4572 -0.9941
 5497SOL    HW221430   5.105   6.197   0.095 -2.5192  2.5187 -1.5676
 5498SOL     OW21431   0.285   6.687  10.219  0.0753 -0.3800  0.1676
 5498SOL    HW121432   0.199   6.700  10.178  0.4482  0.4005 -0.4193
 5498SOL    HW221433   0.343   6.745  10.169  0.6678  0.1778  1.4481
 5499SOL     OW21434   7.963   0.263   1.094  0.1848  0.2581 -0.2755
 5499SOL    HW121435   7.943   0.246   1.002  0.9298  1.7836 -0.7425
 5499SOL    HW221436   8.056   0.243   1.103  0.1402  0.2140  0.1286
 5500SOL     OW21437   8.668  11.521   3.472  0.2675  0.0732 -0.4074
 5500SOL    HW121438   8.623  11.544   3.391 -0.3364  1.2736  0.2351
 5500SOL    HW221439   8.743  11.580   3.475 -1.8307  2.8963  1.7414
 5501SOL     OW21440  10.324   2.732   0.515 -0.0257 -0.5286  0.1706
 5501SOL    HW121441  10.349   2.818   0.547  0.6558 -1.0335  1.0354
 5501SOL    HW221442  10.400   2.677   0.530  0.1631 -0.9287 -1.9093
 5502SOL     OW21443   2.656   7.159   9.914  0.1392  0.1718  0.0252
 5502SOL    HW121444   2.674   7.246   9.951 -0.8381 -0.0536  1.0693
 5502SOL    HW221445   2.592   7.175   9.845 -1.0143  0.1516  1.0693
 5503SOL     OW21446   2.519  10.252   7.289 -0.4505 -0.2847 -0.0890
 5503SOL    HW121447   2.562  10.298   7.361 -0.3285  1.6308 -1.3088
 5503SOL    HW221448   2.577  10.267   7.214 -0.2143 -2.8163 -0.4874
 5504SOL     OW21449  10.989   6.674   1.615 -0.5783  0.3307  0.2277
 5504SOL    HW121450  11.002   6.588   1.656 -1.2946  0.4789  0.7898
 5504SOL    HW221451  11.022   6.663   1.526  0.7715 -0.0805  0.7445
 5505SOL     OW21452   1.952   6.004   8.370 -0.2581 -0.0429  0.3529
 5505SOL    HW121453   1.956   6.090   8.328 -0.5933  0.6606  1.7192
 5505SOL    HW221454   2.032   5.960   8.340 -1.0327 -0.0393 -1.9157
 5506SOL     OW21455   8.775  10.965   9.438  0.1288 -0.2209 -0.7745
 5506SOL    HW121456   8.827  11.041   9.410  0.3438  0.1562  0.5727
 5506SOL    HW221457   8.708  10.955   9.370  0.6527  0.6221 -1.4287
 5507SOL     OW21458   3.166   7.927   3.308  0.3125 -0.0133 -0.6335
 5507SOL    HW121459   3.201   7.984   3.240 -0.4111  1.4989  0.2019
 5507SOL    HW221460   3.238   7.916   3.370 -0.0362  1.4912  0.0941
 5508SOL     OW21461   2.669   5.719   3.835  0.0553 -0.6619 -0.0098
 5508SOL    HW121462   2.687   5.772   3.913  0.7803  1.0250 -1.2638
 5508SOL    HW221463   2.748   5.668   3.822  0.6343  0.3524 -0.6021
 5509SOL     OW21464   8.158   4.568   2.403 -0.0948 -0.2805  0.3195
 5509SOL    HW121465   8.135   4.478   2.377 -2.8260  0.2500  0.5396
 5509SOL    HW221466   8.201   4.558   2.488  1.2346 -1.4678 -0.4541
 5510SOL     OW21467   6.182   3.852   3.274  0.2417 -0.0583 -0.7288
 5510SOL    HW121468   6.099   3.873   3.232  0.8030  1.1531 -1.2879
 5510SOL    HW221469   6.219   3.783   3.218 -1.3283 -2.2259  0.7628
 5511SOL     OW21470  10.213   4.969   9.674 -0.4164 -0.6778 -0.2028
 5511SOL    HW121471  10.245   5.028   9.607 -2.1517 -0.2247 -0.6828
 5511SOL    HW221472  10.138   5.014   9.712 -0.6944 -1.8086  0.6496
 5512SOL     OW21473   1.200   7.376  10.957  0.4374  0.6916 -0.3025
 5512SOL    HW121474   1.180   7.391  11.049 -2.4499 -0.3466 -0.6462
 5512SOL    HW221475   1.279   7.322  10.958 -0.3569 -0.5597  1.6604
 5513SOL     OW21476   9.223   4.339   3.884 -0.0688 -0.4325 -0.0092
 5513SOL    HW121477   9.263   4.385   3.958 -2.2760  0.7023  0.5836
 5513SOL    HW221478   9.246   4.247   3.897  0.1789 -0.1560  1.7186
 5514SOL     OW21479   9.618  10.875  10.277 -0.2920 -0.5218  0.3390
 5514SOL    HW121480   9.531  10.859  10.241  0.0203  0.9996 -1.2917
 5514SOL    HW221481   9.678  10.839  10.211  0.3333 -1.3825  1.3494
 5515SOL     OW21482   5.817   2.313  10.528  0.0451 -0.0381 -0.4705
 5515SOL    HW121483   5.727   2.301  10.499 -0.0622  0.4023 -0.3260
 5515SOL    HW221484   5.812   2.319  10.624  0.3614 -1.1684 -0.3641
 5516SOL     OW21485   2.786   1.376   8.500  0.0198  0.1740 -0.4703
 5516SOL    HW121486   2.779   1.286   8.469  2.6753 -0.0220 -0.7972
 5516SOL    HW221487   2.793   1.428   8.420 -0.2990  0.5213 -0.2741
 5517SOL     OW21488   6.400   0.826   1.059 -0.2635 -0.4999  0.3440
 5517SOL    HW121489   6.392   0.913   1.019  1.0147  0.3997  1.9371
 5517SOL    HW221490   6.441   0.842   1.144 -0.5838 -2.6105  0.9521
 5518SOL     OW21491   1.159  10.578   4.169 -0.5150 -0.5227  0.3249
 5518SOL    HW121492   1.098  10.614   4.233 -0.8131 -0.7538  0.1728
 5518SOL    HW221493   1.112  10.585   4.086  0.5712  1.5810 -0.2068
 5519SOL     OW21494   6.066   1.350   0.719  0.0573 -0.0246  0.6707
 5519SOL    HW121495   6.048   1.444   0.716  1.1218  0.1991 -2.5706
 5519SOL    HW221496   5.980   1.308   0.716 -0.3813  0.8879  0.0902
 5520SOL     OW21497   7.206   0.296   5.749  0.1422 -0.1329  0.6370
 5520SOL    HW121498   7.146   0.282   5.675  0.2262 -2.3232  0.9039
 5520SOL    HW221499   7.237   0.386   5.738 -0.6405 -0.0429 -1.3937
 5521SOL     OW21500   2.859   0.164   9.546  0.4729  0.1897  0.0711
 5521SOL    HW121501   2.945   0.206   9.556 -0.3140  1.8612  0.2069
 5521SOL    HW221502   2.837   0.136   9.635 -0.0552  1.7735  0.4856
 5522SOL     OW21503   5.548  10.306   8.323 -0.2042  0.1467 -0.3196
 5522SOL    HW121504   5.594  10.280   8.243  0.5840  0.1585  0.1148
 5522SOL    HW221505   5.493  10.230   8.345  0.7083 -0.4526 -0.0572
 5523SOL     OW21506   7.605   2.931   3.499  0.0149 -0.4420 -0.2936
 5523SOL    HW121507   7.664   2.905   3.428  0.3510  1.6484 -0.8532
 5523SOL    HW221508   7.518   2.904   3.468  0.1901  0.2088 -1.4111
 5524SOL     OW21509  10.297  10.157   9.808  0.2687 -0.1560  0.1161
 5524SOL    HW121510  10.325  10.245   9.780  2.2058 -0.4941  0.8366
 5524SOL    HW221511  10.304  10.104   9.728 -3.8157  0.8166 -1.1589
 5525SOL     OW21512   5.132   9.904   3.832  0.5047 -0.7392  0.0325
 5525SOL    HW121513   5.205   9.842   3.824  0.3601 -1.0731  1.1229
 5525SOL    HW221514   5.111   9.903   3.926 -0.7226 -0.4449 -0.2309
 5526SOL     OW21515   0.698   2.598   0.441 -0.3270  0.7418 -0.0182
 5526SOL    HW121516   0.766   2.647   0.487  1.7292 -1.8910 -0.0036
 5526SOL    HW221517   0.623   2.599   0.501  0.6749  1.3569  1.2681
 5527SOL     OW21518   7.771  10.742   6.224 -0.2413  0.8576  0.2410
 5527SOL    HW121519   7.802  10.783   6.143  0.7084  0.8829  0.6140
 5527SOL    HW221520   7.755  10.814   6.284 -1.9470  0.9210 -0.2392
 5528SOL     OW21521   1.102   7.588   4.220  0.7207 -0.5511  0.0972
 5528SOL    HW121522   1.082   7.644   4.296  0.4034 -0.2036 -0.2366
 5528SOL    HW221523   1.079   7.642   4.144 -2.9259 -2.2826 -0.2261
 5529SOL     OW21524  10.611   6.564   8.171  0.1311 -0.0528  0.0661
 5529SOL    HW121525  10.651   6.649   8.153 -0.2513 -0.2800 -2.0259
 5529SOL    HW221526  10.567   6.576   8.256 -1.4546  2.4215 -0.9990
 5530SOL     OW21527   8.211   3.744   3.707 -0.0922 -0.3386  0.6240
 5530SOL    HW121528   8.123   3.737   3.743 -0.3707  1.2301  0.2996
 5530SOL    HW221529   8.198   3.758   3.613  0.4997 -0.1749  0.5608
 5531SOL     OW21530   5.058   0.266   4.379 -0.3357 -0.0653 -0.0734
 5531SOL    HW121531   5.030   0.224   4.297 -2.7097  2.6191 -0.8105
 5531SOL    HW221532   5.109   0.342   4.350 -0.6842  0.5756  0.9544
 5532SOL     OW21533   9.976   2.742   1.839 -0.2771  0.6682 -0.9877
 5532SOL    HW121534  10.033   2.819   1.829  1.4957 -0.6921 -1.9145
 5532SOL    HW221535  10.033   2.676   1.878 -2.4480  0.5250  2.3447
 5533SOL     OW21536   5.070  10.949   4.431 -0.1569 -0.6753  0.2410
 5533SOL    HW121537   5.159  10.927   4.403 -0.2211 -1.0206  0.3053
 5533SOL    HW221538   5.059  11.040   4.404  0.4694 -0.3966  0.8580
 5534SOL     OW21539   3.585   4.355  10.663 -0.4368  0.2868 -0.6335
 5534SOL    HW121540   3.672   4.375  10.630 -0.9582  0.1687 -2.1791
 5534SOL    HW221541   3.570   4.264  10.638 -0.4787 -0.1414  0.8647
 5535SOL     OW21542   3.103   3.749   9.165  0.1343 -0.4277  0.1619
 5535SOL    HW121543   3.133   3.691   9.095  0.2536  0.9438 -0.9582
 5535SOL    HW221544   3.011   3.765   9.145  0.4162  0.7496 -0.2539
 5536SOL     OW21545   7.852   6.903   1.804  0.2823  0.6860  0.0080
 5536SOL    HW121546   7.881   6.922   1.893 -0.1622 -0.7400  0.4706
 5536SOL    HW221547   7.928   6.863   1.762  0.0465  0.0165  0.2053
 5537SOL     OW21548   7.733   9.871  10.580 -0.5011 -0.1115 -0.1503
 5537SOL    HW121549   7.756   9.898  10.491  0.4612 -0.1905  0.0575
 5537SOL    HW221550   7.764   9.943  10.636  0.9788 -1.0548  0.2982
 5538SOL     OW21551   3.297   1.199   8.855 -0.6229 -0.3788 -0.6782
 5538SOL    HW121552   3.359   1.163   8.792 -0.7811  1.6665 -2.1073
 5538SOL    HW221553   3.213   1.157   8.834 -0.0646 -2.1588  0.4005
 5539SOL     OW21554   5.471   3.008   5.504  0.0052  0.0518 -0.3823
 5539SOL    HW121555   5.487   2.929   5.554 -0.6989 -0.5234 -1.0389
 5539SOL    HW221556   5.454   2.978   5.415  0.2528  0.9775 -0.7563
 5540SOL     OW21557   2.453   7.741   0.340  1.0002 -0.3266  0.0570
 5540SOL    HW121558   2.477   7.817   0.287  2.2234 -0.0982  0.8763
 5540SOL    HW221559   2.357   7.737   0.335  0.9963  0.5848 -0.9181
 5541SOL     OW21560   4.205   7.476  11.072 -0.2679  0.2632  0.3080
 5541SOL    HW121561   4.297   7.452  11.081 -0.2290  0.5704  0.7428
 5541SOL    HW221562   4.194   7.494  10.978  0.2416  0.7195  0.3322
 5542SOL     OW21563   5.826   2.958   3.483 -0.1259  0.0574  0.4119
 5542SOL    HW121564   5.778   2.969   3.401  0.4443  0.8023  0.1722
 5542SOL    HW221565   5.759   2.961   3.551 -0.7913 -1.9382 -0.0731
 5543SOL     OW21566  11.564   4.551   4.173 -0.1515  0.2019 -0.0281
 5543SOL    HW121567  11.589   4.633   4.215 -1.8203 -1.4159  4.8777
 5543SOL    HW221568  11.471   4.562   4.151  0.4260  0.6276 -2.5325
 5544SOL     OW21569   9.208   8.895   5.157  0.0459  0.1205 -0.2809
 5544SOL    HW121570   9.223   8.885   5.063 -0.0281 -1.5571 -0.1499
 5544SOL    HW221571   9.246   8.980   5.179  2.1823 -0.4822 -1.4005
 5545SOL     OW21572  10.747   6.866   6.091  0.2046  0.4117  0.4889
 5545SOL    HW121573  10.818   6.871   6.155 -1.1621 -2.2947  2.4120
 5545SOL    HW221574  10.672   6.906   6.135 -0.2913  0.2806 -0.2201
 5546SOL     OW21575   3.366   8.728   7.269  0.6115 -0.3847 -0.0058
 5546SOL    HW121576   3.364   8.639   7.234  1.0355 -0.0331 -0.9582
 5546SOL    HW221577   3.298   8.729   7.337  1.1384 -1.6477  0.5721
 5547SOL     OW21578   0.443   8.244  10.714  0.5411  0.3564 -0.1059
 5547SOL    HW121579   0.377   8.176  10.729 -0.1218  1.2492  1.1689
 5547SOL    HW221580   0.502   8.238  10.790  0.6214  1.0320 -0.1064
 5548SOL     OW21581   7.892  10.106   5.272 -0.0879 -0.0875  0.5016
 5548SOL    HW121582   7.905  10.166   5.198 -1.7132 -0.8367 -0.4467
 5548SOL    HW221583   7.970  10.051   5.272 -0.4543 -0.6884 -1.3025
 5549SOL     OW21584   1.589   0.269   2.036  0.3770 -0.1637 -0.3514
 5549SOL    HW121585   1.638   0.202   2.085 -1.0625  1.0795  3.1089
 5549SOL    HW221586   1.535   0.219   1.975 -1.0575 -2.3269  2.4644
 5550SOL     OW21587   5.779   4.940   1.284 -0.2512 -0.3478 -0.2320
 5550SOL    HW121588   5.813   4.973   1.367 -1.8208 -1.1760  0.7646
 5550SOL    HW221589   5.829   4.988   1.218  1.3250  0.0183  1.1650
 5551SOL     OW21590   0.041   5.956   3.618  0.3062 -0.3419  0.1768
 5551SOL    HW121591  -0.029   5.974   3.555  0.6010 -2.6498 -0.9167
 5551SOL    HW221592   0.058   6.041   3.660 -0.4081  1.1395 -2.3118
 5552SOL     OW21593   2.416  10.432   4.970 -0.3040 -0.0984 -0.2854
 5552SOL    HW121594   2.386  10.466   4.886  0.5639  0.9402 -0.1875
 5552SOL    HW221595   2.484  10.493   4.999  1.9351 -2.2998 -0.4853
 5553SOL     OW21596  10.849   8.285  10.165  0.1315  0.1247  0.6789
 5553SOL    HW121597  10.901   8.208  10.185 -2.6878 -1.7494  1.3645
 5553SOL    HW221598  10.841   8.332  10.248 -2.2498 -1.6453  1.5805
 5554SOL     OW21599   1.642   4.134   4.457 -0.0753 -0.5303 -0.3529
 5554SOL    HW121600   1.690   4.183   4.524 -0.3725 -0.2894 -0.3171
 5554SOL    HW221601   1.551   4.137   4.485 -0.3739  0.5674 -1.3605
 5555SOL     OW21602  11.276   2.722   2.590 -0.3350  0.4464 -0.1577
 5555SOL    HW121603  11.240   2.641   2.555  1.6650 -0.2943 -0.6637
 5555SOL    HW221604  11.231   2.792   2.542 -0.0339 -0.4653 -1.8256
 5556SOL     OW21605   2.760   2.354   0.828 -0.5350  0.1959 -0.0277
 5556SOL    HW121606   2.748   2.262   0.852 -0.9476  0.1642 -0.3381
 5556SOL    HW221607   2.840   2.381   0.874 -0.6329 -0.2024  0.3808
 5557SOL     OW21608   6.766   1.572   6.761 -0.0371 -0.2942  0.0151
 5557SOL    HW121609   6.673   1.586   6.776  0.0957  0.4575  0.1842
 5557SOL    HW221610   6.810   1.616   6.834  0.5030  0.8018 -0.9211
 5558SOL     OW21611   8.560   8.854   7.366 -0.0718  0.5775 -0.0848
 5558SOL    HW121612   8.560   8.927   7.427 -0.8003  0.4380  0.0999
 5558SOL    HW221613   8.641   8.806   7.384  0.2584  1.1653 -0.0054
 5559SOL     OW21614   4.557   2.845   6.887 -0.2855 -0.5853  0.0083
 5559SOL    HW121615   4.507   2.771   6.854 -2.8485  0.5907  0.9728
 5559SOL    HW221616   4.550   2.911   6.818 -0.8063 -0.1184  0.5003
 5560SOL     OW21617   1.610   4.436  10.255  0.3027  0.0276 -0.0683
 5560SOL    HW121618   1.615   4.344  10.278  2.7715  0.0309 -0.2843
 5560SOL    HW221619   1.599   4.481  10.339  2.3718 -0.3437  0.4605
 5561SOL     OW21620   4.163   9.300   5.087  0.8909  0.0938 -0.2266
 5561SOL    HW121621   4.135   9.260   5.169  0.2306 -0.5372 -0.7467
 5561SOL    HW221622   4.084   9.344   5.054  1.2891  0.7869 -0.2747
 5562SOL     OW21623   4.786   6.626   2.252  0.1613 -0.1576  0.1338
 5562SOL    HW121624   4.816   6.543   2.213  0.2489  0.4639 -1.1799
 5562SOL    HW221625   4.815   6.693   2.190 -0.4790  0.8032  0.8541
 5563SOL     OW21626   1.537   1.974   6.078 -0.6422 -0.0581  0.7088
 5563SOL    HW121627   1.485   2.041   6.034 -1.3303 -0.7087  0.5050
 5563SOL    HW221628   1.566   2.016   6.159 -1.8837  0.1746  1.0553
 5564SOL     OW21629   2.884   3.750   8.308 -0.1198  0.2956 -0.1732
 5564SOL    HW121630   2.843   3.689   8.370 -0.6979 -0.4801 -1.2871
 5564SOL    HW221631   2.850   3.724   8.223 -0.1545  2.0111 -0.7191
 5565SOL     OW21632   8.791   5.776   9.382 -0.3567 -0.1262  0.2512
 5565SOL    HW121633   8.745   5.805   9.461 -0.0854  2.1561 -0.3670
 5565SOL    HW221634   8.854   5.846   9.363 -0.4235 -0.5923 -1.9944
 5566SOL     OW21635   1.190   6.247   5.478  0.0777  0.2406  0.0622
 5566SOL    HW121636   1.235   6.329   5.459  0.9329  0.2413  1.8087
 5566SOL    HW221637   1.208   6.231   5.571 -2.6331 -0.3500  0.5707
 5567SOL     OW21638  11.246   6.196   9.677  0.5143 -0.1066 -0.1814
 5567SOL    HW121639  11.340   6.205   9.666  0.6014  0.1685  0.7150
 5567SOL    HW221640  11.235   6.164   9.766 -0.1178 -2.8384 -1.1228
 5568SOL     OW21641   9.558   5.869   2.730 -0.5456 -0.2019  0.2641
 5568SOL    HW121642   9.503   5.937   2.770 -0.3719  0.2585 -0.2686
 5568SOL    HW221643   9.648   5.898   2.746 -0.4722 -0.1616 -0.2011
 5569SOL     OW21644   0.145   7.128   0.576  0.3197  0.3736  0.1010
 5569SOL    HW121645   0.159   7.210   0.623  2.1490 -0.4820  1.1538
 5569SOL    HW221646   0.168   7.060   0.639 -1.7725 -1.0155 -0.5387
 5570SOL     OW21647   5.098   1.380   3.845 -0.7079 -0.2395  0.2966
 5570SOL    HW121648   5.015   1.426   3.829 -1.0207 -0.8429  0.1738
 5570SOL    HW221649   5.151   1.400   3.767 -0.8270 -0.0605  0.2585
 5571SOL     OW21650  10.336   6.013   1.782 -0.0190 -0.1804  0.7955
 5571SOL    HW121651  10.258   5.995   1.835  0.4483  0.1464  1.6286
 5571SOL    HW221652  10.306   6.072   1.714 -0.1927  1.3465  2.1281
 5572SOL     OW21653   0.033  10.735   9.205 -0.1110  0.4145  0.2549
 5572SOL    HW121654  -0.047  10.686   9.183 -0.7000  0.4989  1.9933
 5572SOL    HW221655   0.014  10.825   9.180 -0.2278  0.2810 -0.1377
 5573SOL     OW21656   8.541   9.309   2.465 -0.0876 -0.1133  0.1052
 5573SOL    HW121657   8.451   9.331   2.440  0.9228  0.8786 -3.1761
 5573SOL    HW221658   8.558   9.364   2.541 -2.0945 -0.0230  0.5579
 5574SOL     OW21659   5.322   4.858   2.533 -0.5475  0.1467  0.0705
 5574SOL    HW121660   5.331   4.867   2.628  1.3770  2.2271 -0.2250
 5574SOL    HW221661   5.409   4.877   2.499 -1.3942  0.2600 -2.1636
 5575SOL     OW21662   4.572   9.100   1.081  0.1297 -0.5741 -1.0560
 5575SOL    HW121663   4.634   9.028   1.086  1.3637  0.5280  0.2772
 5575SOL    HW221664   4.492   9.066   1.121  2.2273  0.2326  4.8101
 5576SOL     OW21665   8.479  10.343  10.363 -0.3437  0.6720  0.3517
 5576SOL    HW121666   8.550  10.278  10.365 -0.4430  0.5728  1.1479
 5576SOL    HW221667   8.399  10.290  10.360 -0.3985  0.7690 -2.7966
 5577SOL     OW21668   3.134   9.943   4.210 -0.1235 -0.2274  0.1092
 5577SOL    HW121669   3.085   9.877   4.259 -0.1242  0.5229  1.1531
 5577SOL    HW221670   3.222   9.940   4.247  0.2467 -0.5763 -0.7765
 5578SOL     OW21671   5.869   6.180   9.348 -0.1127  0.0150  0.1482
 5578SOL    HW121672   5.848   6.203   9.439  0.5764  2.4015 -0.2309
 5578SOL    HW221673   5.789   6.139   9.315 -1.4273  1.7397  1.0247
 5579SOL     OW21674   8.546   5.609   7.307 -0.4861  0.4543  0.1211
 5579SOL    HW121675   8.635   5.580   7.326 -0.4032  0.7994  0.2707
 5579SOL    HW221676   8.533   5.687   7.361 -0.3413  1.2916 -0.9935
 5580SOL     OW21677   2.870   6.172  11.539  0.4768  0.2892 -0.1746
 5580SOL    HW121678   2.960   6.198  11.521  0.5010 -1.2307 -2.7200
 5580SOL    HW221679   2.875   6.077  11.555 -0.6443  0.2098 -0.2241
 5581SOL     OW21680   7.209  11.176   0.590 -0.2709 -0.2959 -0.3037
 5581SOL    HW121681   7.278  11.242   0.600 -0.6532 -0.0839  1.1290
 5581SOL    HW221682   7.184  11.181   0.497  1.2765 -0.0321 -0.7347
 5582SOL     OW21683   8.170   4.575  11.389 -0.3090  0.5015  0.0830
 5582SOL    HW121684   8.182   4.484  11.418 -1.3942 -0.1176 -1.3092
 5582SOL    HW221685   8.235   4.588  11.321  1.9739  1.8331  2.3654
 5583SOL     OW21686   0.092   9.439   1.035  0.1136 -0.1665 -0.1349
 5583SOL    HW121687   0.122   9.419   1.124  0.2626 -0.4579 -0.2483
 5583SOL    HW221688   0.149   9.386   0.979  0.6314  0.7150 -0.4569
 5584SOL     OW21689   8.156   8.707   4.209  0.0162  0.7298 -0.1292
 5584SOL    HW121690   8.207   8.777   4.248  0.9853  0.3976 -0.7387
 5584SOL    HW221691   8.078   8.750   4.175  0.0578  1.3179  0.5010
 5585SOL     OW21692   3.057   7.695   4.992  0.1702 -0.2750 -0.4352
 5585SOL    HW121693   3.114   7.678   5.066  1.1146  2.1710 -0.5097
 5585SOL    HW221694   3.104   7.759   4.939 -1.3086 -0.5051 -2.1460
 5586SOL     OW21695   6.489   3.779   5.984  0.1594  0.1758 -0.1505
 5586SOL    HW121696   6.400   3.755   6.009  0.1920 -0.7929 -0.8679
 5586SOL    HW221697   6.522   3.832   6.057  0.3915 -2.7853  2.1011
 5587SOL     OW21698   0.077  11.415   2.622  0.4220  0.0257 -0.4271
 5587SOL    HW121699   0.069  11.487   2.559 -1.5865  0.0710 -0.1572
 5587SOL    HW221700   0.170  11.417   2.648  0.9334  1.0146 -2.1587
 5588SOL     OW21701   7.483   5.542   3.033 -0.3118 -0.3560  0.2069
 5588SOL    HW121702   7.391   5.568   3.044 -0.5820 -1.2077  0.0731
 5588SOL    HW221703   7.528   5.622   3.008 -0.9571  0.1490  0.6339
 5589SOL     OW21704   8.501   0.744   5.887 -0.1128 -0.2026 -0.0044
 5589SOL    HW121705   8.490   0.692   5.807 -1.1626 -1.6522  1.0387
 5589SOL    HW221706   8.568   0.808   5.864  0.8447 -1.6555 -1.5280
 5590SOL     OW21707   0.942   8.138   9.383 -0.6155  0.3652  0.5519
 5590SOL    HW121708   0.992   8.124   9.303 -0.0559 -0.6934  1.0664
 5590SOL    HW221709   0.869   8.194   9.357 -1.3407 -1.2356 -1.0393
 5591SOL     OW21710   2.020   0.082   2.620  0.6686 -0.2146  0.4832
 5591SOL    HW121711   2.042   0.107   2.710 -0.9672 -3.2578  1.8686
 5591SOL    HW221712   2.094   0.029   2.591  0.2386 -1.0589  0.8979
 5592SOL     OW21713   2.628   6.301   9.175 -0.3341  0.2625  0.1374
 5592SOL    HW121714   2.633   6.226   9.234 -0.9725  0.3678  0.3387
 5592SOL    HW221715   2.681   6.276   9.099 -0.6209 -0.4353  0.1608
 5593SOL     OW21716  10.730   5.806   0.852 -0.3630  0.0511 -0.4090
 5593SOL    HW121717  10.650   5.756   0.870 -0.1429 -0.2312 -0.1986
 5593SOL    HW221718  10.791   5.741   0.816 -0.4697  0.4124 -1.2793
 5594SOL     OW21719   9.133   9.455  10.206 -0.6605 -0.3156  0.1776
 5594SOL    HW121720   9.203   9.457  10.140 -0.3174  1.9762  0.5247
 5594SOL    HW221721   9.166   9.395  10.273  0.6670  0.1920  0.0062
 5595SOL     OW21722   4.148   0.438   8.012  0.2068  0.0656 -0.9923
 5595SOL    HW121723   4.143   0.521   8.060 -0.9035  0.8217 -2.3464
 5595SOL    HW221724   4.193   0.379   8.072 -0.9925  1.0006  0.9321
 5596SOL     OW21725   6.530   7.845   7.017  0.4008 -0.0464  0.0752
 5596SOL    HW121726   6.586   7.784   6.971 -2.1421 -1.7568 -0.9888
 5596SOL    HW221727   6.541   7.823   7.110  0.2273 -1.5293 -0.2393
 5597SOL     OW21728   5.695  11.368   1.488  0.1665 -0.2541  0.2364
 5597SOL    HW121729   5.619  11.403   1.442 -1.5143  0.1146  3.0275
 5597SOL    HW221730   5.763  11.363   1.422 -2.1387 -0.1999 -2.3293
 5598SOL     OW21731   4.039   5.589   8.119 -0.1119  0.4373  0.0718
 5598SOL    HW121732   4.008   5.522   8.057 -1.1422  1.9882 -1.1707
 5598SOL    HW221733   4.051   5.541   8.201 -1.4357 -1.1691 -0.5951
 5599SOL     OW21734   1.375   1.648   6.640 -0.4057 -0.3635 -0.7005
 5599SOL    HW121735   1.416   1.631   6.724 -1.0581 -0.4093 -0.3869
 5599SOL    HW221736   1.440   1.622   6.575  0.4046  0.4045 -0.2149
 5600SOL     OW21737   6.509  11.251   2.735  0.0380 -0.0014 -0.1546
 5600SOL    HW121738   6.511  11.345   2.749  0.2154 -0.2446  1.7005
 5600SOL    HW221739   6.417  11.231   2.719 -0.4232  0.1805  2.0763
 5601SOL     OW21740   4.353   2.286   5.948 -0.4665 -0.7305  0.1003
 5601SOL    HW121741   4.258   2.281   5.935 -0.3173 -0.8842 -0.9653
 5601SOL    HW221742   4.376   2.203   5.990 -0.6816 -1.0566 -0.4231
 5602SOL     OW21743   6.187   7.072   8.818 -0.8874 -0.5420  0.3852
 5602SOL    HW121744   6.281   7.056   8.829 -0.8395 -2.3384 -1.9299
 5602SOL    HW221745   6.145   6.990   8.842 -1.9663  0.3635  1.7657
 5603SOL     OW21746   3.856   7.364   3.175 -0.2208  0.3419  0.0175
 5603SOL    HW121747   3.898   7.399   3.097  0.1613 -1.0512 -0.4292
 5603SOL    HW221748   3.827   7.441   3.223  1.3282  1.3037 -0.5031
 5604SOL     OW21749   1.714   6.613   6.349  0.3992  0.4660 -0.4092
 5604SOL    HW121750   1.656   6.679   6.312 -0.3964 -0.8407 -1.6253
 5604SOL    HW221751   1.673   6.589   6.432 -0.3164  0.2176 -0.8230
 5605SOL     OW21752   3.918   9.954   9.106  0.2842  0.1751 -0.2308
 5605SOL    HW121753   3.907   9.865   9.071 -0.1078  0.2739 -0.3680
 5605SOL    HW221754   3.865   9.954   9.186  1.4698 -0.1680  0.5798
 5606SOL     OW21755   6.846   2.735   4.764 -0.1754 -0.1056  0.1606
 5606SOL    HW121756   6.857   2.801   4.695 -3.1307 -0.9496 -1.2807
 5606SOL    HW221757   6.819   2.785   4.840  1.3873  0.6725  0.2392
 5607SOL     OW21758   6.978   5.460  10.501  0.2674  0.3304  0.2413
 5607SOL    HW121759   7.014   5.508  10.575  0.0112  2.1903 -0.7838
 5607SOL    HW221760   7.035   5.484  10.427 -0.1774 -0.5700 -0.4200
 5608SOL     OW21761   1.989   2.944   1.021  0.0121  0.0283 -0.1199
 5608SOL    HW121762   2.066   2.901   0.985  0.4173 -0.6267  1.4295
 5608SOL    HW221763   1.987   2.916   1.113 -2.5339 -0.6550 -0.2936
 5609SOL     OW21764   2.286   0.056   2.414 -0.2526  0.9347  0.3217
 5609SOL    HW121765   2.343   0.130   2.438  0.7868 -0.0540  1.0010
 5609SOL    HW221766   2.276   0.064   2.319  0.3586  1.6017  0.2977
 5610SOL     OW21767   8.089  10.438   1.592  0.1698  0.5008  0.1148
 5610SOL    HW121768   8.129  10.465   1.509 -0.4990  0.1349 -0.3327
 5610SOL    HW221769   8.062  10.348   1.577 -0.2570  0.5405  0.6221
 5611SOL     OW21770   5.787   4.729  10.155 -0.0883 -0.3096  0.0726
 5611SOL    HW121771   5.751   4.686  10.233 -1.6009  0.6599 -0.0508
 5611SOL    HW221772   5.837   4.803  10.189 -0.5382 -0.0363  0.1573
 5612SOL     OW21773   7.210  10.709   1.915  0.1098  0.1850  0.3157
 5612SOL    HW121774   7.202  10.763   1.837  2.3710  0.6673  0.3592
 5612SOL    HW221775   7.214  10.771   1.987  0.3163 -0.1364  0.5833
 5613SOL     OW21776   6.157   1.093   5.494 -0.0210 -0.2232 -0.8707
 5613SOL    HW121777   6.243   1.054   5.475  0.6491 -0.1520  1.6098
 5613SOL    HW221778   6.094   1.028   5.463  0.9602 -1.0397 -1.2297
 5614SOL     OW21779   4.557   5.307   5.650  0.1057 -0.1398  0.0570
 5614SOL    HW121780   4.479   5.356   5.625  0.4594  1.9462  2.6126
 5614SOL    HW221781   4.626   5.372   5.657  1.9313 -1.8106 -1.3060
 5615SOL     OW21782   7.121   5.188   6.067  0.2884  0.3187  0.3517
 5615SOL    HW121783   7.041   5.210   6.115 -0.2378 -0.3068 -0.2177
 5615SOL    HW221784   7.121   5.092   6.062  1.4600  0.2584  0.9871
 5616SOL     OW21785   3.949   9.607   7.721 -0.2239 -0.3420  0.3946
 5616SOL    HW121786   3.906   9.627   7.804 -1.3469 -0.5807 -0.1211
 5616SOL    HW221787   3.912   9.668   7.658 -0.0812 -0.7827 -0.1320
 5617SOL     OW21788   9.831   1.742   1.864  0.0381  0.5908  0.2669
 5617SOL    HW121789   9.742   1.767   1.840 -0.3241 -0.5250  0.3569
 5617SOL    HW221790   9.859   1.683   1.794  1.0964  1.7038 -0.2792
 5618SOL     OW21791  10.460   8.100  11.055  0.5538 -0.1208  0.7770
 5618SOL    HW121792  10.451   8.128  11.146  0.8776 -0.5148  0.9361
 5618SOL    HW221793  10.373   8.113  11.017  0.8838  1.8682  0.6040
 5619SOL     OW21794  10.172   2.859  11.431 -0.0110  0.0499 -0.0524
 5619SOL    HW121795  10.150   2.780  11.382  1.3635 -0.9535  0.8786
 5619SOL    HW221796  10.090   2.884  11.474 -0.5665 -0.6111 -0.6886
 5620SOL     OW21797   8.165   5.260   5.067  0.2667  0.0930  0.1580
 5620SOL    HW121798   8.147   5.266   5.161 -1.0055  2.2681 -0.1674
 5620SOL    HW221799   8.245   5.207   5.062 -1.6953 -3.4678  2.1717
 5621SOL     OW21800   0.742   7.020   4.375  0.4046  0.5104 -0.1004
 5621SOL    HW121801   0.831   7.053   4.387  1.5650 -2.2128 -0.5037
 5621SOL    HW221802   0.741   6.936   4.421 -2.8916  1.6853  2.4363
 5622SOL     OW21803   4.954   7.543   1.798 -0.1285 -0.1956 -0.3539
 5622SOL    HW121804   4.998   7.579   1.721 -0.0857 -0.4520 -0.4500
 5622SOL    HW221805   4.951   7.616   1.860  0.3987 -0.1610 -0.3618
 5623SOL     OW21806   3.439   1.132   7.830 -0.2530 -0.0086  0.0790
 5623SOL    HW121807   3.460   1.220   7.860  0.6799 -0.4853  0.8798
 5623SOL    HW221808   3.353   1.140   7.788 -0.5434  1.1191  0.8663
 5624SOL     OW21809   1.901   2.713   9.891  0.6202 -0.5170 -0.1049
 5624SOL    HW121810   1.864   2.736   9.976 -0.9542 -1.1435 -0.5705
 5624SOL    HW221811   1.993   2.736   9.897  0.3048  0.4784  1.3835
 5625SOL     OW21812  10.545   7.003   6.223 -0.5690 -0.8057  0.0186
 5625SOL    HW121813  10.575   7.001   6.314  0.9747 -0.9401 -0.4572
 5625SOL    HW221814  10.585   7.083   6.188  0.8398 -1.9622 -1.1446
 5626SOL     OW21815   3.331   5.751   1.693  0.0231 -0.1719 -0.0473
 5626SOL    HW121816   3.354   5.667   1.653 -0.0041 -0.0568 -0.3063
 5626SOL    HW221817   3.276   5.727   1.768  0.1180 -0.3917 -0.0450
 5627SOL     OW21818   1.230   3.553   7.642  0.4235 -0.5767 -0.1796
 5627SOL    HW121819   1.194   3.642   7.643  1.9652  0.1441  2.7256
 5627SOL    HW221820   1.192   3.511   7.719  1.7562 -1.5423 -0.0168
 5628SOL     OW21821   8.788   5.561   3.333 -0.5189 -0.0646 -0.7073
 5628SOL    HW121822   8.759   5.469   3.333 -1.3795  0.1825 -0.0388
 5628SOL    HW221823   8.882   5.557   3.347 -0.5336 -0.8558 -0.8052
 5629SOL     OW21824   7.524   9.200   9.742 -0.5480 -0.0932  0.4844
 5629SOL    HW121825   7.608   9.160   9.720 -1.1014 -0.5310 -0.8665
 5629SOL    HW221826   7.496   9.243   9.662 -1.9497 -0.5240  0.7323
 5630SOL     OW21827   8.818   6.578   5.584 -0.6690  0.0203 -0.4078
 5630SOL    HW121828   8.848   6.607   5.498 -1.4066 -0.0602 -0.6972
 5630SOL    HW221829   8.867   6.497   5.600  1.3874  1.3335  0.3990
 5631SOL     OW21830   7.514   1.986   9.509  0.0195 -0.0288  0.1314
 5631SOL    HW121831   7.446   1.991   9.442  1.0822 -2.1744 -1.2442
 5631SOL    HW221832   7.470   1.947   9.585 -0.7151  0.4099 -0.0607
 5632SOL     OW21833   2.596   4.981   3.354  0.3988  0.2629 -0.0866
 5632SOL    HW121834   2.530   5.050   3.343 -0.0087 -0.2893 -1.2369
 5632SOL    HW221835   2.592   4.958   3.446  0.8716  2.0968  0.4424
 5633SOL     OW21836   3.472   1.037   3.585  0.2446 -0.5611 -0.4432
 5633SOL    HW121837   3.561   1.057   3.614 -0.0195  1.0849 -0.6933
 5633SOL    HW221838   3.461   1.087   3.504 -1.5259  0.7856  0.5633
 5634SOL     OW21839   0.113  11.141   6.244 -0.5839 -0.1164  0.1159
 5634SOL    HW121840   0.018  11.151   6.248 -0.5287  0.6631 -0.3909
 5634SOL    HW221841   0.142  11.158   6.334 -0.7867  1.2959 -0.0623
 5635SOL     OW21842   7.473   6.839  10.808  0.0939  0.2420  0.5166
 5635SOL    HW121843   7.460   6.858  10.715  1.4501  0.0129  0.2541
 5635SOL    HW221844   7.568   6.832  10.818 -0.0166  0.4750  1.9692
 5636SOL     OW21845   1.573   0.570   4.110 -0.7148 -0.2383 -0.2080
 5636SOL    HW121846   1.652   0.516   4.103  2.2666  3.5387  0.6824
 5636SOL    HW221847   1.560   0.605   4.022 -0.1148  0.6414  0.0337
 5637SOL     OW21848   6.937   2.393  10.309 -0.3947  0.3454 -0.2896
 5637SOL    HW121849   6.955   2.346  10.228  1.6942 -0.0374  0.3254
 5637SOL    HW221850   6.960   2.484  10.289 -1.6682  0.6055 -0.6407
 5638SOL     OW21851   0.593   3.993   3.035  0.3850  0.4112 -0.1753
 5638SOL    HW121852   0.515   4.048   3.023 -1.3719 -1.4390  1.8790
 5638SOL    HW221853   0.605   3.989   3.129  1.5748 -1.2165 -0.3569
 5639SOL     OW21854   6.914  11.448   9.619 -0.0770 -0.2474  0.4662
 5639SOL    HW121855   6.942  11.362   9.586  1.4081  0.3449  0.1024
 5639SOL    HW221856   6.842  11.473   9.561 -0.7242 -1.3480  0.7495
 5640SOL     OW21857   5.573   2.509   6.838  0.5732  0.2985  0.3116
 5640SOL    HW121858   5.598   2.540   6.752  4.1765 -2.2293  0.2268
 5640SOL    HW221859   5.484   2.475   6.827  0.4259  1.2789 -2.0001
 5641SOL     OW21860   2.234   9.646   3.571  0.0708  0.0606  0.1228
 5641SOL    HW121861   2.261   9.697   3.648 -0.3079 -0.9438  0.9409
 5641SOL    HW221862   2.139   9.658   3.566  0.4057  3.0994 -2.4028
 5642SOL     OW21863   0.589  10.912   1.769 -0.3035  0.0382  0.2583
 5642SOL    HW121864   0.628  10.953   1.691  1.8435 -0.7471  0.8388
 5642SOL    HW221865   0.530  10.978   1.804 -1.3196  0.4298 -1.9887
 5643SOL     OW21866   0.354   7.107   9.450 -0.0556  0.4995 -0.0213
 5643SOL    HW121867   0.297   7.156   9.509  0.7180  3.0654 -1.2656
 5643SOL    HW221868   0.330   7.136   9.362  0.1659 -1.7326 -0.9033
 5644SOL     OW21869  10.404   6.722   4.151 -0.0289  0.4411  0.3108
 5644SOL    HW121870  10.462   6.797   4.136 -1.4355  1.4292 -0.4278
 5644SOL    HW221871  10.378   6.694   4.063 -0.2841 -0.2859  0.6156
 5645SOL     OW21872  11.121   1.282   2.444  0.2538  0.2292  0.5532
 5645SOL    HW121873  11.066   1.295   2.521  1.2964 -0.2599  1.4119
 5645SOL    HW221874  11.208   1.263   2.479  0.8467  0.3737 -0.7533
 5646SOL     OW21875   5.201   1.648   6.505  0.2480  0.0881 -0.1047
 5646SOL    HW121876   5.234   1.585   6.568  2.1420 -0.9654 -2.0315
 5646SOL    HW221877   5.250   1.728   6.522 -1.0084  0.6212  1.2800
 5647SOL     OW21878   3.483   6.324   6.161 -0.7944  0.3318 -0.3100
 5647SOL    HW121879   3.498   6.418   6.147 -0.2094  0.1724 -0.7893
 5647SOL    HW221880   3.393   6.310   6.132 -1.1573  0.8922  0.5243
 5648SOL     OW21881   9.880   3.692   9.630  0.4468 -1.2931 -0.8736
 5648SOL    HW121882   9.929   3.716   9.708 -1.9017 -1.2939  0.7062
 5648SOL    HW221883   9.890   3.597   9.623  1.1020 -1.2251 -0.9014
 5649SOL     OW21884   9.907   2.404   6.183 -0.0255 -0.1459 -0.5694
 5649SOL    HW121885   9.980   2.374   6.237 -0.0032 -1.5084 -1.3017
 5649SOL    HW221886   9.859   2.465   6.239  1.0148 -0.1046  0.3249
 5650SOL     OW21887   1.252   5.088   9.166  0.6688 -0.4200 -0.1191
 5650SOL    HW121888   1.194   5.012   9.159  0.3119 -0.1920  0.3325
 5650SOL    HW221889   1.335   5.052   9.198  1.1404 -0.9102 -1.7727
 5651SOL     OW21890   6.395   9.427   6.610  0.0174  0.2375  0.2121
 5651SOL    HW121891   6.369   9.432   6.702 -0.2825  0.8701  0.0944
 5651SOL    HW221892   6.458   9.498   6.598 -1.5760  1.5867 -0.5845
 5652SOL     OW21893   0.336   9.621   8.552  0.3576  0.6169 -0.0243
 5652SOL    HW121894   0.260   9.653   8.504 -0.5283 -0.7530  0.4254
 5652SOL    HW221895   0.363   9.543   8.505 -2.3214 -2.5322  3.1538
 5653SOL     OW21896   4.478   2.512   3.573 -0.8989  0.2504  0.2085
 5653SOL    HW121897   4.525   2.580   3.621 -3.8038  1.1159  2.0656
 5653SOL    HW221898   4.393   2.550   3.554 -2.3807 -2.5616  0.6343
 5654SOL     OW21899  11.646   9.888   8.801  0.2772  0.1379 -0.0873
 5654SOL    HW121900  11.636   9.978   8.833 -0.6222 -0.1495  0.4912
 5654SOL    HW221901  11.650   9.835   8.881  1.2567 -0.3027 -0.4123
 5655SOL     OW21902   2.214   0.456   8.544  0.1282 -0.0616 -0.0626
 5655SOL    HW121903   2.170   0.541   8.543  0.9764  0.3885  0.0051
 5655SOL    HW221904   2.269   0.458   8.622  2.4317  0.5481 -1.6110
 5656SOL     OW21905   4.925   9.138   3.779  0.0256 -0.2576  0.4104
 5656SOL    HW121906   4.899   9.153   3.870  1.4475  2.1384  0.5087
 5656SOL    HW221907   5.020   9.127   3.783  0.0848 -0.2885 -0.7828
 5657SOL     OW21908   2.902  11.686   6.443 -0.5565 -0.6941  0.4146
 5657SOL    HW121909   2.907  11.711   6.536 -0.6428 -1.1262  0.5371
 5657SOL    HW221910   2.832  11.621   6.439  0.7246 -2.1278  0.3834
 5658SOL     OW21911   4.582   8.745   5.752 -0.1391  0.0100  0.2577
 5658SOL    HW121912   4.515   8.682   5.780 -0.8312  1.0774  1.0740
 5658SOL    HW221913   4.636   8.759   5.829  0.0658  0.3604  0.0534
 5659SOL     OW21914   7.836   8.121   8.415  0.3120  0.0176 -0.1831
 5659SOL    HW121915   7.767   8.079   8.364 -0.3710  2.9989 -1.9769
 5659SOL    HW221916   7.913   8.116   8.359  0.0536  1.5937 -0.7344
 5660SOL     OW21917   8.498   4.396   8.599  0.2843  0.6757  0.3757
 5660SOL    HW121918   8.554   4.473   8.587  1.3919  0.0785  1.5344
 5660SOL    HW221919   8.532   4.332   8.537  0.6024  0.4536  0.7836
 5661SOL     OW21920   0.066   0.698   8.818  0.0164 -0.6911 -0.0898
 5661SOL    HW121921   0.153   0.680   8.854  1.0761  3.7086  0.1510
 5661SOL    HW221922   0.078   0.696   8.723  0.0982 -1.1678 -0.0703
 5662SOL     OW21923  11.192   2.519  11.107  0.2835 -0.5011  0.2209
 5662SOL    HW121924  11.198   2.444  11.165 -1.0222 -1.7526 -1.1769
 5662SOL    HW221925  11.102   2.519  11.075  0.6778  0.7125 -1.0402
 5663SOL     OW21926   8.193   8.723   4.586 -0.5549  0.1007  0.2830
 5663SOL    HW121927   8.123   8.687   4.640 -0.9049  0.7267  0.2607
 5663SOL    HW221928   8.248   8.648   4.564 -0.2127 -0.1104  1.7814
 5664SOL     OW21929   6.002   4.321   5.522  0.0296 -1.0268  0.1750
 5664SOL    HW121930   5.993   4.286   5.433 -0.9488  1.1965 -0.6627
 5664SOL    HW221931   5.913   4.340   5.549  0.4131 -0.6468  1.1961
 5665SOL     OW21932  10.468   4.454   7.241 -0.1338 -0.1686  0.2595
 5665SOL    HW121933  10.546   4.409   7.273  0.2002  0.0408 -0.2313
 5665SOL    HW221934  10.400   4.435   7.305  0.0336 -1.2553  0.1313
 5666SOL     OW21935   7.760  10.749   7.175  0.0882 -0.6241  0.4170
 5666SOL    HW121936   7.811  10.802   7.237  0.7036 -0.1156 -0.4900
 5666SOL    HW221937   7.741  10.668   7.222  0.9888 -0.4652  1.0922
 5667SOL     OW21938   5.825   4.921   8.155 -0.0220  0.8834 -0.5087
 5667SOL    HW121939   5.906   4.885   8.119  0.6466 -0.8079  2.3707
 5667SOL    HW221940   5.759   4.853   8.141 -0.3721  1.2523 -0.7013
 5668SOL     OW21941   3.035  10.118   6.364  0.3138  0.6531  0.0327
 5668SOL    HW121942   3.080  10.123   6.448  0.6933  0.9354 -0.1857
 5668SOL    HW221943   3.034  10.025   6.342  0.7588  0.6411  0.0575
 5669SOL     OW21944   5.930   9.293   9.434  0.9667  0.0411  0.0871
 5669SOL    HW121945   5.883   9.310   9.352  1.6101 -0.6651 -0.4419
 5669SOL    HW221946   5.947   9.380   9.470 -0.1940  0.3366 -0.0138
 5670SOL     OW21947   8.227   8.425  11.659 -0.3163 -0.3943 -0.3376
 5670SOL    HW121948   8.239   8.377  11.741 -0.1599 -0.7540 -0.5653
 5670SOL    HW221949   8.305   8.404  11.608  1.8887  3.3646  1.0813
 5671SOL     OW21950  10.916   0.769   2.324  0.6016 -0.2527  0.1479
 5671SOL    HW121951  10.892   0.859   2.346 -0.5635 -0.8879  1.6446
 5671SOL    HW221952  10.963   0.776   2.240 -0.4017  1.6137 -0.3063
 5672SOL     OW21953  11.111   7.898   8.513 -0.0595 -0.5116 -0.0619
 5672SOL    HW121954  11.172   7.919   8.441 -0.6291 -1.6296 -0.8996
 5672SOL    HW221955  11.097   7.803   8.505  0.9405 -0.9279  2.3916
 5673SOL     OW21956   8.766   9.010   9.054 -1.0023 -0.0144  0.2874
 5673SOL    HW121957   8.777   9.075   9.123 -1.7030  1.2554 -0.7655
 5673SOL    HW221958   8.814   8.933   9.086 -0.3268  0.9335  1.6442
 5674SOL     OW21959  10.130   3.485   6.511 -0.3038  0.1706  0.1063
 5674SOL    HW121960  10.067   3.495   6.583 -0.6323 -1.7967  0.1612
 5674SOL    HW221961  10.127   3.391   6.490 -1.5289  0.8873 -3.6666
 5675SOL     OW21962   6.867   1.146   5.446 -0.2651  0.0421  1.0048
 5675SOL    HW121963   6.775   1.167   5.432 -0.2302  0.6931  1.6902
 5675SOL    HW221964   6.913   1.229   5.435  0.3679 -0.4596 -0.2982
 5676SOL     OW21965   4.765   2.450   9.298 -0.0969 -0.1338 -0.2494
 5676SOL    HW121966   4.826   2.516   9.330 -0.1007  0.1964 -0.9121
 5676SOL    HW221967   4.817   2.394   9.241  0.1423 -1.3224  1.0833
 5677SOL     OW21968   2.712   8.569   3.355  0.1345  0.3692  0.0390
 5677SOL    HW121969   2.797   8.525   3.359  0.7260  1.5585  1.3167
 5677SOL    HW221970   2.653   8.512   3.405  0.2847 -0.2231 -0.4521
 5678SOL     OW21971   9.348   8.600   1.378 -0.0338  0.1612  0.5851
 5678SOL    HW121972   9.268   8.642   1.407  0.8128  2.9117 -0.7730
 5678SOL    HW221973   9.414   8.626   1.443  0.1192 -0.7735  0.8241
 5679SOL     OW21974   9.876   7.499   2.287  0.1633 -0.4401 -0.1783
 5679SOL    HW121975   9.791   7.533   2.315  0.2885 -0.1486 -0.1483
 5679SOL    HW221976   9.878   7.512   2.193  1.0488  1.5971  0.0549
 5680SOL     OW21977   0.316   0.249   1.009 -0.1712  0.2943 -0.5128
 5680SOL    HW121978   0.265   0.327   0.989 -0.8134  1.0292  3.2255
 5680SOL    HW221979   0.407   0.274   0.989 -0.3958  1.9175  0.3259
 5681SOL     OW21980   9.332  10.227   3.606  0.6925 -0.3178  0.2348
 5681SOL    HW121981   9.321  10.189   3.519 -0.4675 -0.3685  0.3964
 5681SOL    HW221982   9.244  10.228   3.644  1.1441 -0.0795  1.3199
 5682SOL     OW21983   0.714   1.270   3.503 -0.6144 -0.1132  0.0664
 5682SOL    HW121984   0.655   1.244   3.573  0.1809  0.5501  1.0067
 5682SOL    HW221985   0.703   1.365   3.496  0.1350 -0.0140  0.0797
 5683SOL     OW21986   6.945   9.163  10.894  0.5196 -0.0440 -0.2713
 5683SOL    HW121987   7.004   9.235  10.874  0.5491 -0.3657 -1.3720
 5683SOL    HW221988   6.994   9.084  10.871 -0.8926 -0.2680 -2.7930
 5684SOL     OW21989   6.906   2.540   0.237 -0.6261  0.2068  0.2545
 5684SOL    HW121990   6.927   2.517   0.147  0.7039  0.4539  0.4819
 5684SOL    HW221991   6.828   2.488   0.258  0.2791 -1.4503 -0.3564
 5685SOL     OW21992   2.071   1.382   2.455  0.6534 -0.9104 -0.3651
 5685SOL    HW121993   2.004   1.405   2.391 -1.3506 -0.1826  1.8641
 5685SOL    HW221994   2.089   1.289   2.438 -0.5718 -0.9964 -1.3048
 5686SOL     OW21995   7.926   0.779   8.935 -0.4748  0.2758 -0.3602
 5686SOL    HW121996   7.884   0.836   8.870 -3.6895 -0.8513  0.5302
 5686SOL    HW221997   7.922   0.829   9.016  2.9482  1.4119 -0.7226
 5687SOL     OW21998   8.669   9.457   0.592 -0.0367  0.2910 -0.5838
 5687SOL    HW121999   8.657   9.364   0.607  1.0367  0.2780  0.2841
 5687SOL    HW222000   8.610   9.477   0.519 -1.3460 -0.7572  0.1426
 5688SOL     OW22001   9.656   8.818   7.839 -0.0331 -0.3064  0.3105
 5688SOL    HW122002   9.642   8.913   7.838  0.8786 -0.1639 -0.7026
 5688SOL    HW222003   9.700   8.801   7.922  0.0107  0.1976  0.3935
 5689SOL     OW22004   8.096   5.826  10.374  0.4417  0.1949  0.5909
 5689SOL    HW122005   8.159   5.768  10.417 -0.9065 -1.3420  0.5382
 5689SOL    HW222006   8.140   5.853  10.294  0.8772 -1.2007  0.3411
 5690SOL     OW22007  10.090   8.942   1.034  0.0564 -0.1710 -0.0939
 5690SOL    HW122008  10.169   8.920   1.084 -0.2200  0.0422  0.4478
 5690SOL    HW222009  10.079   8.869   0.973  0.3283 -0.5013  0.2485
 5691SOL     OW22010  10.803   4.017   4.843 -0.2039 -0.4228  0.1692
 5691SOL    HW122011  10.768   4.104   4.826  0.6130 -0.2486 -0.7082
 5691SOL    HW222012  10.759   3.960   4.780  2.5570  0.1617 -2.5439
 5692SOL     OW22013   8.625   3.793   2.875  0.6034  1.0889 -0.0825
 5692SOL    HW122014   8.691   3.723   2.876  1.8379  2.2225  0.1066
 5692SOL    HW222015   8.598   3.798   2.783  0.5017  0.3615 -0.0968
 5693SOL     OW22016   5.774   6.387   0.376  0.7674 -0.0995  0.3080
 5693SOL    HW122017   5.847   6.446   0.358  0.5746 -0.0637 -0.3893
 5693SOL    HW222018   5.705   6.416   0.316  0.2501 -0.2626  0.8180
 5694SOL     OW22019   1.164   9.838   3.307 -0.3969  0.7597 -0.5768
 5694SOL    HW122020   1.199   9.925   3.328  0.3617  1.2054 -3.2748
 5694SOL    HW222021   1.123   9.808   3.388  1.2003  2.7042  1.0463
 5695SOL     OW22022   9.057   4.932   4.379 -0.0206  0.3357 -0.3712
 5695SOL    HW122023   9.006   4.858   4.348  0.7767 -0.6550  0.5883
 5695SOL    HW222024   9.039   5.002   4.316 -3.3764  0.4029  0.4610
 5696SOL     OW22025  11.389  10.213  11.031  0.6247  0.4284 -0.7263
 5696SOL    HW122026  11.419  10.135  10.985  0.8170 -1.3338  2.1000
 5696SOL    HW222027  11.302  10.190  11.065  0.3081  1.7720 -0.5487
 5697SOL     OW22028   4.248   9.065   3.319 -0.1223  0.0135 -0.1020
 5697SOL    HW122029   4.157   9.037   3.313 -0.1691  0.0691  0.3115
 5697SOL    HW222030   4.296   8.984   3.337 -0.3242  0.2457  1.6935
 5698SOL     OW22031   7.711  10.417   6.774 -0.5518  0.0134  0.0950
 5698SOL    HW122032   7.746  10.351   6.833 -1.8977 -0.0161  0.8922
 5698SOL    HW222033   7.788  10.467   6.746  0.0635  0.3199  2.2163
 5699SOL     OW22034   5.356   4.115  11.247 -0.4898  0.1979 -0.0949
 5699SOL    HW122035   5.430   4.174  11.233 -0.7779  0.5778 -0.0164
 5699SOL    HW222036   5.279   4.170  11.237 -0.8126 -0.4562 -1.4994
 5700SOL     OW22037   5.181   4.954   0.730  0.2514 -0.2036 -0.0302
 5700SOL    HW122038   5.178   4.869   0.686 -2.1479 -0.3722  0.3210
 5700SOL    HW222039   5.121   4.945   0.804  0.2500  1.6939  0.2494
 5701SOL     OW22040   2.294   7.149   8.795 -0.4803  0.1924  0.4468
 5701SOL    HW122041   2.323   7.071   8.843 -2.8769 -0.8934  0.2755
 5701SOL    HW222042   2.272   7.213   8.862 -0.6866 -0.1199  0.6773
 5702SOL     OW22043   5.187   8.104   8.611  0.3818 -0.3278  0.3116
 5702SOL    HW122044   5.260   8.052   8.577  0.9769  1.3973 -1.2311
 5702SOL    HW222045   5.209   8.194   8.588 -1.4112  0.4517  1.3999
 5703SOL     OW22046   4.678   4.546  10.076 -0.4165  0.5938  0.0303
 5703SOL    HW122047   4.664   4.629  10.030  0.6868 -0.1481 -1.7585
 5703SOL    HW222048   4.772   4.529  10.066  0.0575  0.7390  3.3045
 5704SOL     OW22049   6.946   6.511   0.058  0.0406 -0.1778  0.1316
 5704SOL    HW122050   6.943   6.577   0.128 -0.6430  0.7195 -0.7035
 5704SOL    HW222051   6.856   6.507   0.026 -0.5218 -3.2788  1.6961
 5705SOL     OW22052   2.090   9.359   2.398  0.1056 -0.2929  0.1009
 5705SOL    HW122053   2.139   9.426   2.447  0.1399 -0.8552  0.8505
 5705SOL    HW222054   1.998   9.378   2.417  0.1391 -0.8799  0.8932
 5706SOL     OW22055   5.463   8.697   2.160  0.1481 -0.4981 -0.5094
 5706SOL    HW122056   5.380   8.741   2.180  0.4931  0.0086 -0.1628
 5706SOL    HW222057   5.520   8.767   2.127  0.8329 -0.5903  0.4276
 5707SOL     OW22058  10.497   2.627   8.711  0.0967  0.0850  0.4567
 5707SOL    HW122059  10.573   2.600   8.764 -0.8358  1.5547  2.7358
 5707SOL    HW222060  10.438   2.552   8.713  2.0620 -1.7402 -2.7896
 5708SOL     OW22061   1.222   0.156   1.785  0.2436 -0.2552  0.1437
 5708SOL    HW122062   1.188   0.086   1.730  1.4764 -1.0624  0.3580
 5708SOL    HW222063   1.146   0.191   1.830 -0.5519 -0.6966 -0.8245
 5709SOL     OW22064   0.678   2.521   7.177  0.7807  0.0603  0.3041
 5709SOL    HW122065   0.618   2.581   7.222  0.8448  0.3389  0.0203
 5709SOL    HW222066   0.722   2.576   7.112  0.7200 -0.3312 -0.0693
 5710SOL     OW22067   6.430   2.415   8.440 -1.0171  0.2578 -0.2280
 5710SOL    HW122068   6.490   2.341   8.450  0.3926  1.5108  1.3862
 5710SOL    HW222069   6.457   2.456   8.357 -1.0035 -0.3427 -0.5257
 5711SOL     OW22070   9.840   6.065   6.647 -0.2968 -0.2827  0.0936
 5711SOL    HW122071   9.773   6.076   6.715 -0.4535 -0.0390 -0.0947
 5711SOL    HW222072   9.839   5.972   6.628 -1.1302 -0.1823 -0.4394
 5712SOL     OW22073  10.991   3.095  10.210 -0.1279 -0.0252 -0.2327
 5712SOL    HW122074  10.909   3.047  10.207  0.4427 -0.9844 -1.2265
 5712SOL    HW222075  11.031   3.080  10.125  0.1954  2.0458 -0.5124
 5713SOL     OW22076  10.974   2.648   9.368 -0.2766  0.1631  0.3868
 5713SOL    HW122077  10.997   2.646   9.275  0.4983  1.0859  0.5399
 5713SOL    HW222078  11.029   2.581   9.407 -0.3494  0.0122  0.2342
 5714SOL     OW22079   5.056   2.728   1.504  0.1410 -0.3045 -0.0426
 5714SOL    HW122080   5.015   2.758   1.423  1.3517  3.0307  0.4258
 5714SOL    HW222081   5.096   2.644   1.482 -2.2336 -1.0662 -1.9443
 5715SOL     OW22082   8.227   8.608   2.821  0.2918 -0.5329  0.2424
 5715SOL    HW122083   8.273   8.561   2.891 -0.0597 -0.0126  0.8290
 5715SOL    HW222084   8.200   8.539   2.760  1.8169 -0.8501 -0.1101
 5716SOL     OW22085   2.737  10.441   0.469 -0.0806 -0.0389 -0.3961
 5716SOL    HW122086   2.752  10.394   0.552  0.9873  0.4859 -0.2682
 5716SOL    HW222087   2.794  10.517   0.475  1.3988 -0.9000 -2.3644
 5717SOL     OW22088   5.492   5.161   2.051  0.5633  0.3976 -0.5710
 5717SOL    HW122089   5.518   5.152   2.143  2.5740  0.1894 -1.1193
 5717SOL    HW222090   5.438   5.084   2.034  2.0723 -0.8001 -0.1621
 5718SOL     OW22091   8.305   6.148   4.142  0.2084 -0.6897 -0.2823
 5718SOL    HW122092   8.332   6.191   4.224 -0.1798  0.3954 -0.7058
 5718SOL    HW222093   8.362   6.186   4.075 -1.1977  0.3985 -0.9174
 5719SOL     OW22094   1.503   8.736   0.751  0.1031  0.2066 -0.5395
 5719SOL    HW122095   1.533   8.799   0.816  0.2207 -0.4977  0.1001
 5719SOL    HW222096   1.556   8.755   0.674  0.7418  0.3299 -0.0804
 5720SOL     OW22097   0.235   9.993   6.965  0.4276  0.2287  0.8751
 5720SOL    HW122098   0.300  10.026   7.028  0.6124 -0.3664  1.0052
 5720SOL    HW222099   0.227   9.900   6.986  2.5590 -0.6661 -1.7253
 5721SOL     OW22100   4.648  10.340  10.451 -0.3659  0.1617 -0.4353
 5721SOL    HW122101   4.563  10.297  10.454  0.7749 -2.2345  0.4440
 5721SOL    HW222102   4.655  10.375  10.363 -3.1489  2.5424  0.1317
 5722SOL     OW22103   9.530   7.710   2.613  0.0279  0.2768  0.5042
 5722SOL    HW122104   9.472   7.639   2.642  0.3839 -0.7462 -1.1334
 5722SOL    HW222105   9.478   7.790   2.625 -1.0432 -0.4306  0.7428
 5723SOL     OW22106   2.111   4.513   1.852  0.5098 -0.1468  0.6974
 5723SOL    HW122107   2.074   4.566   1.781 -0.3488 -0.9092  0.5451
 5723SOL    HW222108   2.199   4.547   1.865  1.1622 -0.7810 -1.6094
 5724SOL     OW22109  11.042   7.579   4.572  0.2447  0.6000  0.3445
 5724SOL    HW122110  11.041   7.486   4.592 -0.9040  0.3436 -0.7856
 5724SOL    HW222111  11.103   7.586   4.498  0.1353  0.6995  0.2626
 5725SOL     OW22112   0.063   2.982   3.241 -0.4532 -0.4115  0.1839
 5725SOL    HW122113   0.110   2.904   3.211 -1.1610 -0.5517 -0.5917
 5725SOL    HW222114   0.095   2.996   3.330  1.8712  0.1483 -0.6610
 5726SOL     OW22115   5.744  10.471   4.531 -0.2467 -0.0985  0.0543
 5726SOL    HW122116   5.824  10.469   4.479 -0.4388 -0.9586 -0.2124
 5726SOL    HW222117   5.674  10.485   4.467 -0.1556  3.4237  0.4976
 5727SOL     OW22118   7.489   8.523  10.663 -0.2138  0.2766 -0.2532
 5727SOL    HW122119   7.541   8.528  10.582 -1.2275 -0.7195 -1.0095
 5727SOL    HW222120   7.429   8.450  10.648  0.3463 -0.7059  1.8794
 5728SOL     OW22121   4.250   4.760   6.243  0.1097  0.0431  0.2871
 5728SOL    HW122122   4.278   4.714   6.164 -0.2848  1.0384 -0.4541
 5728SOL    HW222123   4.182   4.705   6.281 -1.6273  0.8213 -1.5545
 5729SOL     OW22124   7.759   4.757  11.170 -0.1869 -0.1198 -0.5494
 5729SOL    HW122125   7.737   4.758  11.077 -0.1968 -0.9551 -0.5644
 5729SOL    HW222126   7.675   4.752  11.215 -0.2782  1.9621 -0.4273
 5730SOL     OW22127   6.008   9.084   7.068 -0.1357  1.1869 -0.1815
 5730SOL    HW122128   6.072   9.017   7.091  0.4229  1.5428 -0.6815
 5730SOL    HW222129   5.945   9.039   7.011 -0.2628  0.8670  0.2137
 5731SOL     OW22130   5.608   8.568   0.232 -0.0489 -0.1424 -0.2278
 5731SOL    HW122131   5.613   8.502   0.163 -1.9122 -0.2613 -0.3179
 5731SOL    HW222132   5.553   8.637   0.195  1.1026  1.0606  0.2053
 5732SOL     OW22133   7.150   9.406  10.899  0.5842 -0.1792  0.5564
 5732SOL    HW122134   7.216   9.438  10.960 -0.5379  1.1166  1.1366
 5732SOL    HW222135   7.187   9.422  10.813  1.1371  0.2899  0.8731
 5733SOL     OW22136  11.130   0.667   3.914  0.4366 -0.1411 -0.0259
 5733SOL    HW122137  11.074   0.743   3.928  0.8422  0.1696 -0.0548
 5733SOL    HW222138  11.081   0.612   3.853  0.3495  0.3265 -0.3827
 5734SOL     OW22139  10.030   3.184   4.918 -0.0163  0.0488 -0.1271
 5734SOL    HW122140  10.062   3.265   4.956 -2.4940  0.7868  0.5854
 5734SOL    HW222141   9.969   3.211   4.849 -1.3216 -1.1258  0.4963
 5735SOL     OW22142   4.814   5.063   1.742  0.1434 -0.1672 -0.0218
 5735SOL    HW122143   4.898   5.107   1.725  0.7134 -1.1313  0.2270
 5735SOL    HW222144   4.798   5.079   1.835 -0.3916  0.7404 -0.2574
 5736SOL     OW22145   3.246   7.527   9.767  0.7990 -0.7582  0.1178
 5736SOL    HW122146   3.168   7.572   9.801  1.6240  0.6583  0.2450
 5736SOL    HW222147   3.218   7.488   9.685  0.4242  1.5597 -0.9494
 5737SOL     OW22148  10.569   3.014   4.445 -0.2652 -0.2292  0.7753
 5737SOL    HW122149  10.491   2.989   4.495  0.3831 -1.1916  1.3228
 5737SOL    HW222150  10.556   2.975   4.359 -1.1361  0.9907  0.3158
 5738SOL     OW22151   1.070   4.527   2.703 -0.2873  0.6550 -0.5515
 5738SOL    HW122152   1.082   4.442   2.745  0.1740  0.5931 -0.8039
 5738SOL    HW222153   0.975   4.535   2.694 -0.3057 -0.4062 -1.6591
 5739SOL     OW22154   8.847  11.489  11.108 -0.2132 -0.2910  0.3874
 5739SOL    HW122155   8.790  11.418  11.137 -1.0178  0.3657  0.4520
 5739SOL    HW222156   8.823  11.563  11.163  0.1133  0.2363 -0.1648
 5740SOL     OW22157   1.836   3.056   4.962 -0.2503 -0.8947  0.0327
 5740SOL    HW122158   1.928   3.061   4.935 -0.5040 -0.5381 -0.8021
 5740SOL    HW222159   1.835   3.087   5.052  0.2816  0.2838 -0.3506
 5741SOL     OW22160   9.041   5.371   7.824  0.2503  0.0861  0.3631
 5741SOL    HW122161   9.040   5.295   7.883  1.8803  0.6853  1.1942
 5741SOL    HW222162   9.059   5.446   7.880  0.4670  0.8669 -0.7112
 5742SOL     OW22163   9.715   2.150  10.725  0.1602  0.2671 -0.4170
 5742SOL    HW122164   9.624   2.156  10.755 -0.1960 -1.5612 -1.0184
 5742SOL    HW222165   9.739   2.240  10.705 -1.8231  0.7070 -1.0998
 5743SOL     OW22166   6.167   4.783  10.126  0.2296  0.2948  0.1981
 5743SOL    HW122167   6.209   4.847  10.068 -0.5880 -0.3182 -1.1086
 5743SOL    HW222168   6.098   4.832  10.170  0.1030  0.5000 -0.2252
 5744SOL     OW22169   3.168   1.830   4.980 -0.2125 -0.3088 -0.0827
 5744SOL    HW122170   3.236   1.767   4.955  0.7334  0.0453  1.4535
 5744SOL    HW222171   3.208   1.916   4.964 -1.4828 -0.0227 -2.1439
 5745SOL     OW22172   1.514   6.612   4.969  0.1135 -0.0182  0.4078
 5745SOL    HW122173   1.551   6.687   5.016  1.2708 -0.5140  0.3231
 5745SOL    HW222174   1.453   6.651   4.906 -0.8173  0.7158  1.7089
 5746SOL     OW22175   2.236  10.489   6.621 -0.2466  0.0765  0.0401
 5746SOL    HW122176   2.316  10.446   6.650 -0.2156 -1.2625 -1.8447
 5746SOL    HW222177   2.266  10.565   6.571 -0.0712 -0.7554 -1.1774
 5747SOL     OW22178   5.698   8.277   4.813  0.1725 -0.7687  0.3165
 5747SOL    HW122179   5.666   8.349   4.869 -1.3872 -0.8032 -0.4611
 5747SOL    HW222180   5.622   8.219   4.805  0.9638 -1.7304 -0.2890
 5748SOL     OW22181   7.519   1.337   1.328  0.0462 -0.4413 -0.0206
 5748SOL    HW122182   7.479   1.338   1.415  0.3222  0.7695  0.1093
 5748SOL    HW222183   7.446   1.328   1.267 -0.1863 -0.7948  0.3055
 5749SOL     OW22184   5.031   9.402   3.847 -0.0477  0.3523  0.6449
 5749SOL    HW122185   5.035   9.330   3.910 -1.0530  1.0014  1.4842
 5749SOL    HW222186   5.091   9.468   3.882  0.5044  0.1219  0.1363
 5750SOL     OW22187   8.517   4.937   6.629 -0.6253 -0.4426  0.5210
 5750SOL    HW122188   8.541   4.848   6.604  0.3328 -0.0560  0.0350
 5750SOL    HW222189   8.578   4.960   6.699 -0.0401  0.2643 -0.1921
 5751SOL     OW22190   8.552   9.167   5.056 -0.8470  0.1409  0.2637
 5751SOL    HW122191   8.630   9.219   5.038 -0.7029 -0.3714 -0.6472
 5751SOL    HW222192   8.483   9.232   5.072 -0.1785  0.5935  1.3671
 5752SOL     OW22193   3.662   1.602   6.999 -0.2960  0.2374 -0.5915
 5752SOL    HW122194   3.576   1.626   6.964 -0.9379 -0.1223  0.6574
 5752SOL    HW222195   3.649   1.516   7.039  0.2454  0.8041  0.9064
 5753SOL     OW22196   5.305   6.407   4.446  0.1860 -0.2000 -0.5848
 5753SOL    HW122197   5.242   6.420   4.517  0.7063  0.1736 -0.1787
 5753SOL    HW222198   5.253   6.412   4.366 -0.2277  0.6615 -0.2768
 5754SOL     OW22199   7.192   7.349   3.773  0.1344 -0.1510  0.2032
 5754SOL    HW122200   7.248   7.272   3.784 -1.5276 -1.4379  0.0397
 5754SOL    HW222201   7.167   7.373   3.862  0.6366  0.2019  0.2529
 5755SOL     OW22202   0.138   1.349   3.214 -0.3842 -0.1155  0.3942
 5755SOL    HW122203   0.227   1.318   3.201 -0.8969 -1.4815 -0.0102
 5755SOL    HW222204   0.083   1.285   3.169 -1.6607 -0.0522  1.7800
 5756SOL     OW22205  10.110   1.767   0.910  0.0824 -0.3270 -0.6731
 5756SOL    HW122206  10.142   1.722   0.832  0.9853  0.2858 -0.6821
 5756SOL    HW222207  10.016   1.776   0.897  0.2379 -0.1383 -1.7385
 5757SOL     OW22208  11.242   5.939   9.330  0.1149  0.3147 -0.3933
 5757SOL    HW122209  11.189   5.864   9.301 -0.8442  0.5396  0.6789
 5757SOL    HW222210  11.264   5.919   9.421  1.7897  0.3046 -0.7726
 5758SOL     OW22211   9.669   5.138  10.681 -0.0424 -0.3417 -0.0205
 5758SOL    HW122212   9.665   5.153  10.776  0.3558 -0.5363  0.0273
 5758SOL    HW222213   9.700   5.049  10.671 -2.3760 -1.1978 -0.3162
 5759SOL     OW22214   8.034   5.876   8.700  0.5717  0.1727  0.2074
 5759SOL    HW122215   8.092   5.879   8.775  1.5328  2.0914 -0.5427
 5759SOL    HW222216   7.991   5.961   8.699  0.4884  0.1507 -1.3130
 5760SOL     OW22217   5.225   7.798   8.716 -0.2662  0.4514 -0.1056
 5760SOL    HW122218   5.219   7.747   8.797 -0.6944 -1.0486 -1.0323
 5760SOL    HW222219   5.319   7.806   8.700 -0.1854  0.2853  0.2697
 5761SOL     OW22220   4.634  11.459   0.128  0.0181  0.0643 -0.3332
 5761SOL    HW122221   4.541  11.440   0.138 -0.2322  0.5759 -1.5633
 5761SOL    HW222222   4.667  11.464   0.218 -0.7814 -1.7802  0.1200
 5762SOL     OW22223  11.435  10.277   1.771  0.3973  0.7360  0.0214
 5762SOL    HW122224  11.410  10.301   1.860  1.6768  0.9229  0.3428
 5762SOL    HW222225  11.474  10.190   1.779  0.6025  0.7935 -0.3416
 5763SOL     OW22226   3.120   7.919   7.338 -0.2266 -0.2756  0.3244
 5763SOL    HW122227   3.196   7.918   7.280 -0.0587  0.5939  0.5174
 5763SOL    HW222228   3.153   7.886   7.422 -0.3847 -1.1862  0.0366
 5764SOL     OW22229   1.664   6.424   8.468  0.1656 -0.0359  0.3074
 5764SOL    HW122230   1.723   6.401   8.396  2.1243 -1.2369  2.2047
 5764SOL    HW222231   1.637   6.514   8.448  1.6989  0.1330 -1.2498
 5765SOL     OW22232  11.066   8.456   9.660 -0.5608 -0.1291 -0.7218
 5765SOL    HW122233  11.009   8.513   9.608 -1.9003  0.1812  0.9779
 5765SOL    HW222234  11.035   8.367   9.641 -0.3553 -0.0967 -1.2219
 5766SOL     OW22235   0.343  10.690   8.051 -0.0613 -0.2631  1.0284
 5766SOL    HW122236   0.396  10.764   8.081 -0.6789 -0.5184  2.8803
 5766SOL    HW222237   0.259  10.730   8.025  0.7130  0.0552 -1.2835
 5767SOL     OW22238   3.087   0.696   4.402 -0.0540 -0.2724  0.5806
 5767SOL    HW122239   3.153   0.678   4.469 -0.9160 -1.1061  1.2323
 5767SOL    HW222240   3.124   0.660   4.322  1.8350  2.3883  0.1092
 5768SOL     OW22241   9.637   6.832   9.798  0.0686  0.1022 -0.3617
 5768SOL    HW122242   9.615   6.758   9.741  0.8321 -0.9688  0.6806
 5768SOL    HW222243   9.611   6.803   9.886  2.0100  0.3260  0.3321
 5769SOL     OW22244   7.262   8.527   8.313  0.7081  0.5108 -0.1501
 5769SOL    HW122245   7.260   8.595   8.380 -2.7542  0.1244  0.2780
 5769SOL    HW222246   7.233   8.571   8.233 -0.7506 -0.2241 -0.0512
 5770SOL     OW22247   8.871   6.902   8.932 -0.1146  0.5783  0.2618
 5770SOL    HW122248   8.788   6.867   8.900 -0.0009  0.6157 -0.0906
 5770SOL    HW222249   8.930   6.895   8.856  0.5080 -0.4404  0.8166
 5771SOL     OW22250  10.307   8.660   2.777 -0.3257 -0.1360  0.6681
 5771SOL    HW122251  10.370   8.615   2.834 -3.1265  0.6954  4.8544
 5771SOL    HW222252  10.328   8.753   2.788 -0.1177  0.0110 -0.8083
 5772SOL     OW22253   3.574   7.228   5.946  0.3705 -0.0733 -0.3090
 5772SOL    HW122254   3.638   7.197   6.010  0.0046 -1.0055 -0.3730
 5772SOL    HW222255   3.624   7.285   5.887  1.2688 -1.1940 -0.6683
 5773SOL     OW22256  11.365   5.526   1.053  0.0938 -0.3563  0.0478
 5773SOL    HW122257  11.439   5.510   1.113  2.1288  1.5515 -1.7681
 5773SOL    HW222258  11.319   5.601   1.092  0.6064  0.0257 -0.0729
 5774SOL     OW22259   3.359   3.242   2.311 -0.1975 -1.2482 -0.2386
 5774SOL    HW122260   3.399   3.293   2.241 -0.6623  0.4781  0.6911
 5774SOL    HW222261   3.406   3.270   2.390 -1.3002 -1.3405  0.4599
 5775SOL     OW22262   6.197   6.006   4.787  0.4271  0.2194 -0.0707
 5775SOL    HW122263   6.119   6.057   4.768 -0.1396  0.2562  2.0734
 5775SOL    HW222264   6.200   5.939   4.720 -1.7809 -0.1230  0.1282
 5776SOL     OW22265   7.718   5.552   2.651 -0.3688  0.3869 -0.3431
 5776SOL    HW122266   7.760   5.538   2.566  1.7945 -0.3627  0.7695
 5776SOL    HW222267   7.722   5.466   2.694 -1.2288  0.8055  0.6036
 5777SOL     OW22268   2.945   4.101   2.941 -0.2017 -0.1654  0.7008
 5777SOL    HW122269   2.951   4.189   2.977 -1.6996  0.8830 -1.3802
 5777SOL    HW222270   2.874   4.106   2.878  0.0117 -2.7547  0.1440
 5778SOL     OW22271   4.676   4.592   1.744 -0.3169  0.2877  0.3230
 5778SOL    HW122272   4.750   4.584   1.684 -1.0125  1.0395 -0.6787
 5778SOL    HW222273   4.710   4.565   1.829  1.4453  1.6819  0.1270
 5779SOL     OW22274   2.962   5.250   7.716 -0.3876 -0.5045  0.0671
 5779SOL    HW122275   3.033   5.314   7.717  0.3443 -1.2808  1.3631
 5779SOL    HW222276   2.903   5.279   7.786 -1.0534 -0.1970 -0.6122
 5780SOL     OW22277  11.164   9.578   9.385  0.2223 -0.3919 -0.6056
 5780SOL    HW122278  11.256   9.565   9.408  0.5034  1.9618 -0.2235
 5780SOL    HW222279  11.124   9.493   9.401  2.2682 -1.4254 -0.5746
 5781SOL     OW22280   3.139   4.835   6.416  0.1783 -0.0231 -0.3789
 5781SOL    HW122281   3.175   4.751   6.443  1.0417  0.4761  0.0759
 5781SOL    HW222282   3.069   4.852   6.478 -1.3084 -1.2802 -1.6224
 5782SOL     OW22283   7.885   4.979   6.498 -0.1513 -0.3163 -0.1171
 5782SOL    HW122284   7.883   4.979   6.593  0.0259  1.4080 -0.0696
 5782SOL    HW222285   7.869   4.888   6.473 -3.0903 -0.3547  1.4839
 5783SOL     OW22286   7.348   0.916   2.859  0.6973  0.2181  0.1409
 5783SOL    HW122287   7.330   0.903   2.951  1.0639 -0.2206  0.1545
 5783SOL    HW222288   7.275   0.875   2.813  0.0648  1.2023  0.2450
 5784SOL     OW22289   1.736  10.384   7.839  0.0692 -0.4424  0.1405
 5784SOL    HW122290   1.651  10.342   7.849  0.4878 -1.4224 -0.2704
 5784SOL    HW222291   1.725  10.445   7.766 -0.9019  1.1606  1.5562
 5785SOL     OW22292   7.015  10.480   8.072  0.2315  0.5639  0.3650
 5785SOL    HW122293   7.004  10.428   7.992 -1.3326 -1.3544  1.7273
 5785SOL    HW222294   7.093  10.445   8.113  0.3272  0.7067  0.3079
 5786SOL     OW22295   5.669   0.219   4.491 -0.1981 -0.0447  0.2163
 5786SOL    HW122296   5.585   0.183   4.463  0.7035 -1.5275 -0.7461
 5786SOL    HW222297   5.666   0.215   4.587 -0.4743 -2.0805  0.1854
 5787SOL     OW22298   1.276   6.983   5.727  0.1163 -0.1033 -0.0391
 5787SOL    HW122299   1.348   6.946   5.676 -0.6626 -0.0154 -1.2433
 5787SOL    HW222300   1.257   7.067   5.685  0.1615  0.4978  1.0825
 5788SOL     OW22301   0.972   8.324   4.165 -0.1748 -0.2393 -0.5335
 5788SOL    HW122302   0.995   8.272   4.088 -0.5943 -1.0563 -0.1223
 5788SOL    HW222303   1.025   8.288   4.236 -3.3461 -2.9538  0.7090
 5789SOL     OW22304   6.990   2.437  11.563 -0.0951  0.1043 -0.3139
 5789SOL    HW122305   6.925   2.366  11.565  1.1389 -1.0644  0.3647
 5789SOL    HW222306   7.074   2.392  11.557  0.6245  1.6212 -2.7346
 5790SOL     OW22307   1.513  10.190   8.494  0.1956 -0.2979  0.3545
 5790SOL    HW122308   1.446  10.231   8.439 -1.0092  1.0109  2.6520
 5790SOL    HW222309   1.491  10.097   8.494 -0.7512 -0.0805 -0.0570
 5791SOL     OW22310   1.407  11.403  10.569  0.0300  0.4347 -0.3371
 5791SOL    HW122311   1.319  11.375  10.545 -0.1458  1.0717 -0.4333
 5791SOL    HW222312   1.395  11.458  10.646  0.5709 -1.4162  1.1603
 5792SOL     OW22313   2.072  10.301   5.231  0.0666 -0.6765  0.0913
 5792SOL    HW122314   2.000  10.237   5.228  0.1583 -0.7789  0.0918
 5792SOL    HW222315   2.151  10.248   5.231  0.1573 -0.5493 -0.5170
 5793SOL     OW22316   0.952   4.790   6.151  0.2066 -0.3178 -0.0241
 5793SOL    HW122317   0.964   4.803   6.057  1.4782 -1.6386 -0.0755
 5793SOL    HW222318   0.873   4.840   6.172  0.0660  0.2418 -1.7249
 5794SOL     OW22319   2.681   1.378   7.486 -0.3690 -0.7093  0.0711
 5794SOL    HW122320   2.628   1.362   7.408 -0.4877  0.1442 -0.0437
 5794SOL    HW222321   2.734   1.299   7.497 -0.7130 -1.0381 -0.5811
 5795SOL     OW22322   5.030   6.572   1.610  0.5678 -0.2362  0.3911
 5795SOL    HW122323   4.984   6.558   1.528  0.0753  0.1422  0.5982
 5795SOL    HW222324   5.042   6.666   1.615  1.4889 -0.3363  0.2805
 5796SOL     OW22325   1.413   3.701   2.093 -0.0716 -0.1957 -0.3760
 5796SOL    HW122326   1.366   3.779   2.064 -1.2127 -0.7106  0.0648
 5796SOL    HW222327   1.355   3.658   2.155  2.0133  0.5029  2.2480
 5797SOL     OW22328   4.487   5.064   6.529  0.1293 -0.2860 -0.0030
 5797SOL    HW122329   4.466   5.002   6.459  0.0164 -0.0244 -0.2045
 5797SOL    HW222330   4.517   5.010   6.602  1.1311 -0.5239 -0.5621
 5798SOL     OW22331   8.599   0.759   3.086 -0.6109  0.6576 -0.0271
 5798SOL    HW122332   8.640   0.845   3.072 -1.4748  0.7590 -2.2441
 5798SOL    HW222333   8.509   0.770   3.056 -0.3794 -1.3592 -1.6300
 5799SOL     OW22334   9.185   5.140  11.178  0.4801 -0.0528  0.5085
 5799SOL    HW122335   9.143   5.226  11.178  0.4601 -0.0549 -0.6005
 5799SOL    HW222336   9.129   5.086  11.234 -1.3076 -0.1810 -1.3113
 5800SOL     OW22337   5.188   3.061   3.548 -0.0813 -0.0334 -0.2347
 5800SOL    HW122338   5.171   3.133   3.487  0.9893  1.6050  1.2724
 5800SOL    HW222339   5.281   3.042   3.537 -0.5093 -1.7590 -1.1459
 5801SOL     OW22340  10.224   9.942   3.070  0.7331 -0.0358 -0.4858
 5801SOL    HW122341  10.201   9.855   3.102  0.5673  0.0751 -0.3008
 5801SOL    HW222342  10.282   9.978   3.138  0.7012  0.0463 -0.5012
 5802SOL     OW22343   2.894   1.777   4.956  0.0664 -0.2903  0.3103
 5802SOL    HW122344   2.986   1.791   4.934  0.0317  1.1143  0.9266
 5802SOL    HW222345   2.870   1.696   4.911  1.2914 -0.0871 -0.7646
 5803SOL     OW22346   7.475   3.211   9.906  0.0207 -0.5069 -0.3220
 5803SOL    HW122347   7.433   3.244   9.985  0.8455  0.0795 -0.1154
 5803SOL    HW222348   7.522   3.286   9.870 -0.8207 -0.6072 -1.7122
 5804SOL     OW22349   4.657   4.245   1.192 -0.2616  0.0739 -0.6741
 5804SOL    HW122350   4.681   4.335   1.212 -2.4717  0.4653  0.5258
 5804SOL    HW222351   4.566   4.250   1.164 -0.6118 -1.8431 -0.0203
 5805SOL     OW22352   5.242   2.595  10.160  0.6785 -0.2637 -0.3477
 5805SOL    HW122353   5.152   2.621  10.180  1.0700  0.8964 -0.0313
 5805SOL    HW222354   5.237   2.562  10.070 -0.4098 -2.1070  0.3315
 5806SOL     OW22355  10.698  10.968   2.046 -0.0353  0.5135 -0.0154
 5806SOL    HW122356  10.626  10.943   1.989  0.7202  0.0404 -0.7873
 5806SOL    HW222357  10.670  10.939   2.134  0.7107 -3.1095 -0.7932
 5807SOL     OW22358  11.627   5.226   6.896  0.5893 -0.3424 -0.3228
 5807SOL    HW122359  11.641   5.264   6.983 -0.1679 -1.7307  0.4256
 5807SOL    HW222360  11.552   5.275   6.861  0.9797  0.3138 -0.2623
 5808SOL     OW22361   7.889   9.320   0.665 -0.0920  0.3339 -0.3965
 5808SOL    HW122362   7.924   9.379   0.732 -0.8629  0.1340  0.2077
 5808SOL    HW222363   7.905   9.233   0.700  0.0595  0.2128 -0.7693
 5809SOL     OW22364   2.514   8.958   8.093  0.5380 -0.7014  0.6240
 5809SOL    HW122365   2.509   9.021   8.165  1.4393  1.2194 -0.9194
 5809SOL    HW222366   2.606   8.958   8.067 -0.1846  0.9487 -2.3930
 5810SOL     OW22367   1.191  10.608   2.780 -0.2647 -0.3125 -0.0120
 5810SOL    HW122368   1.118  10.636   2.725 -1.3001  0.5827  1.7518
 5810SOL    HW222369   1.150  10.572   2.858  1.1788 -0.8259  0.5389
 5811SOL     OW22370   4.959   9.059   0.956 -0.5444  0.0344  0.1254
 5811SOL    HW122371   4.932   9.115   0.883 -0.8961  1.4751  1.3228
 5811SOL    HW222372   5.039   9.016   0.925  0.2585  1.8958 -0.5146
 5812SOL     OW22373  10.358   9.062   1.730  0.0012  0.5058 -0.6137
 5812SOL    HW122374  10.391   9.050   1.819  1.1391 -0.2739 -1.1168
 5812SOL    HW222375  10.357   9.157   1.717  2.0738  0.5851 -0.5500
 5813SOL     OW22376   7.640   5.682  10.950 -0.6999 -0.1311 -0.1208
 5813SOL    HW122377   7.674   5.597  10.975 -0.9470 -0.4817 -0.9451
 5813SOL    HW222378   7.640   5.681  10.854 -0.4154  0.9102 -0.1463
 5814SOL     OW22379  10.460   3.368   6.906 -0.0756  0.2672 -0.2301
 5814SOL    HW122380  10.508   3.411   6.835 -0.7653  1.3524 -0.0515
 5814SOL    HW222381  10.380   3.419   6.915 -0.1251 -0.0258  1.1597
 5815SOL     OW22382   1.694   4.668   4.078  0.4792 -0.2793 -0.0737
 5815SOL    HW122383   1.772   4.720   4.098  0.2949  0.0827 -0.2856
 5815SOL    HW222384   1.708   4.638   3.989  0.7236 -0.8478  0.1540
 5816SOL     OW22385   4.584   5.334   4.237  0.1586 -0.4878 -0.1639
 5816SOL    HW122386   4.610   5.410   4.288 -2.7800  0.1833  0.5507
 5816SOL    HW222387   4.534   5.370   4.163 -1.6448 -1.6494  0.4100
 5817SOL     OW22388  11.600   6.609   8.011  0.6829 -0.5786 -0.0138
 5817SOL    HW122389  11.671   6.625   7.949 -0.9443  0.8592 -1.6141
 5817SOL    HW222390  11.559   6.527   7.981  1.0825 -0.9165  0.3533
 5818SOL     OW22391   8.651   8.048   8.824 -0.0707  0.0200  0.5564
 5818SOL    HW122392   8.725   8.073   8.768  1.2749 -2.0981  1.2788
 5818SOL    HW222393   8.589   8.121   8.816  1.3483  1.1067 -1.3789
 5819SOL     OW22394   5.576   9.242   2.594 -0.2280  0.7464  0.0911
 5819SOL    HW122395   5.609   9.230   2.505  1.9715  2.3563  0.6046
 5819SOL    HW222396   5.628   9.181   2.647 -1.4115 -0.0835  0.3512
 5820SOL     OW22397   0.659   9.377   7.875  0.3435 -0.1039 -0.2828
 5820SOL    HW122398   0.613   9.448   7.921  1.6442  0.4413  0.2105
 5820SOL    HW222399   0.613   9.298   7.903 -1.5407  0.5611 -1.3369
 5821SOL     OW22400  10.058   5.397   4.192  0.0459  0.0463 -0.1111
 5821SOL    HW122401  10.031   5.485   4.216 -1.2213  0.2896 -2.1822
 5821SOL    HW222402   9.978   5.345   4.195  0.1660 -0.3095 -1.8335
 5822SOL     OW22403   3.547   2.876   2.193  0.1979 -0.2044 -0.2054
 5822SOL    HW122404   3.453   2.892   2.203  0.4194  1.9598 -0.9792
 5822SOL    HW222405   3.581   2.959   2.159  2.3486 -1.0479 -0.2208
 5823SOL     OW22406   4.916   2.252   8.007 -0.1932  0.1126 -0.1971
 5823SOL    HW122407   4.823   2.231   7.995 -0.7087  1.9412  0.2631
 5823SOL    HW222408   4.933   2.322   7.944  1.2223 -1.0220 -1.1225
 5824SOL     OW22409  11.661   1.429   2.539 -1.0007 -0.2695 -0.1852
 5824SOL    HW122410  11.732   1.394   2.593 -1.9471 -1.0315  0.6004
 5824SOL    HW222411  11.662   1.523   2.555  0.3387 -0.1523 -0.8168
 5825SOL     OW22412   8.713   0.771   9.530 -0.4743  0.1930 -0.0990
 5825SOL    HW122413   8.745   0.687   9.498  0.2738  1.2357 -2.3014
 5825SOL    HW222414   8.628   0.782   9.488 -0.7894  0.3360  0.5628
 5826SOL     OW22415  11.642   2.862   5.437  0.5752  0.3675 -0.2934
 5826SOL    HW122416  11.688   2.946   5.438  1.0540  0.2352  3.7423
 5826SOL    HW222417  11.709   2.796   5.454 -0.3375 -0.3972  0.4851
 5827SOL     OW22418   5.273   9.702   8.344  0.2408 -0.3419 -0.3556
 5827SOL    HW122419   5.239   9.616   8.321  0.9592 -0.0619 -2.7762
 5827SOL    HW222420   5.225   9.727   8.423 -1.6920 -1.9307 -0.9518
 5828SOL     OW22421   0.936   8.996   7.065 -0.1099 -0.5854  0.4337
 5828SOL    HW122422   0.923   9.085   7.096 -0.0553 -0.1399 -0.7834
 5828SOL    HW222423   0.876   8.986   6.992  0.3347 -1.3374  0.1585
 5829SOL     OW22424   3.595  11.356   7.039 -0.4871  0.3139 -0.1229
 5829SOL    HW122425   3.641  11.391   7.116 -1.0366  0.5973  0.0816
 5829SOL    HW222426   3.665  11.323   6.983 -0.1230 -0.7994  0.9359
 5830SOL     OW22427   7.620   6.677   5.413 -0.1130 -0.5978  0.1925
 5830SOL    HW122428   7.591   6.762   5.379 -0.0004  0.1201  1.8234
 5830SOL    HW222429   7.618   6.620   5.337 -0.3585  0.8194 -0.9188
 5831SOL     OW22430   5.298   0.748   7.111  0.5468 -0.0625  0.1717
 5831SOL    HW122431   5.366   0.681   7.107 -1.2818 -2.0583 -0.0722
 5831SOL    HW222432   5.325   0.806   7.182  4.2306  1.4533 -2.1913
 5832SOL     OW22433   5.910   7.189   3.339 -0.0750  0.2992  0.3980
 5832SOL    HW122434   5.899   7.094   3.344  0.3164  0.2309  0.0478
 5832SOL    HW222435   5.907   7.209   3.245 -3.8464  1.1225  0.5338
 5833SOL     OW22436   5.796   3.041   4.986  0.6787  0.5286  0.3592
 5833SOL    HW122437   5.760   3.128   5.000 -1.3965 -0.0177 -1.0860
 5833SOL    HW222438   5.835   3.045   4.899 -1.9519 -0.6342 -1.0014
 5834SOL     OW22439  10.117   6.513   9.775  0.4598 -0.8767  0.5773
 5834SOL    HW122440  10.171   6.549   9.845 -0.0328  0.8371  0.1092
 5834SOL    HW222441  10.175   6.508   9.699  0.5719 -1.2605  0.6831
 5835SOL     OW22442   0.508   0.998   0.919  0.1715 -0.4775  0.3625
 5835SOL    HW122443   0.534   1.025   1.007  1.3140  0.6842 -0.3028
 5835SOL    HW222444   0.430   1.050   0.900  1.3735  1.1728 -0.2501
 5836SOL     OW22445   6.787   2.233   1.670 -0.0308  0.5097  0.0057
 5836SOL    HW122446   6.746   2.288   1.603 -0.0045  0.8661  0.2788
 5836SOL    HW222447   6.844   2.174   1.621  1.0351  1.6578 -0.2139
 5837SOL     OW22448   2.043   6.397   5.158  0.7022  0.0271  0.3175
 5837SOL    HW122449   2.107   6.430   5.221  1.1678 -1.2693  0.5504
 5837SOL    HW222450   2.089   6.327   5.112  0.1032  0.4158 -0.9204
 5838SOL     OW22451   7.733  10.911   7.767 -0.1791  0.1247  0.1398
 5838SOL    HW122452   7.826  10.902   7.747 -0.2503  0.8467 -0.5491
 5838SOL    HW222453   7.696  10.955   7.691 -0.5090  2.6659  1.6317
 5839SOL     OW22454   0.393   8.078   0.532  0.3980  0.1796  0.2620
 5839SOL    HW122455   0.307   8.109   0.560  0.7709  1.3279  0.1757
 5839SOL    HW222456   0.435   8.048   0.613 -0.9394 -2.7108  0.0169
 5840SOL     OW22457   2.734   6.871   2.035 -0.5850  0.1906  0.1090
 5840SOL    HW122458   2.823   6.876   2.069 -1.4398  0.3066  2.5458
 5840SOL    HW222459   2.697   6.958   2.052 -0.9692  0.4073 -1.6061
 5841SOL     OW22460   5.232   0.322   7.396 -0.2411  0.0419 -0.1444
 5841SOL    HW122461   5.155   0.266   7.398  0.3359 -0.7656 -0.0307
 5841SOL    HW222462   5.246   0.341   7.304 -1.2628  1.1692 -0.0781
 5842SOL     OW22463   3.132   3.581   2.099 -0.2205  0.1068  0.1111
 5842SOL    HW122464   3.092   3.495   2.087  1.9038 -0.8217 -0.7964
 5842SOL    HW222465   3.075   3.641   2.051 -2.8049 -0.3957  2.3330
 5843SOL     OW22466  10.865   4.648   7.806 -0.2756  0.3097  0.7838
 5843SOL    HW122467  10.938   4.710   7.806  2.1885 -2.3425  0.8376
 5843SOL    HW222468  10.838   4.642   7.714  0.9780 -0.0804  0.4119
 5844SOL     OW22469  10.703   5.208   5.130  0.5403  0.5341  0.0243
 5844SOL    HW122470  10.686   5.281   5.069  1.2657  1.7338  1.2018
 5844SOL    HW222471  10.793   5.182   5.111  0.8394  1.0500  0.6995
 5845SOL     OW22472   4.832   6.682   0.624 -0.7273 -0.5419  0.0139
 5845SOL    HW122473   4.803   6.756   0.677 -0.5676 -0.0412 -0.5805
 5845SOL    HW222474   4.769   6.677   0.553 -0.2247 -0.3939 -0.4522
 5846SOL     OW22475  11.004   9.981   5.565  0.4263  0.3203 -0.5753
 5846SOL    HW122476  10.949  10.041   5.616  0.6446 -1.4474  1.9231
 5846SOL    HW222477  11.040  10.035   5.495 -2.2827  2.2020 -0.6924
 5847SOL     OW22478   8.727   8.229   6.524 -0.1385 -0.0507 -0.0210
 5847SOL    HW122479   8.724   8.315   6.565  1.0347 -0.3152  0.6774
 5847SOL    HW222480   8.702   8.168   6.592 -1.3514 -0.2563 -0.6229
 5848SOL     OW22481   0.550   5.410  10.572 -0.1803 -0.1035 -0.1066
 5848SOL    HW122482   0.505   5.489  10.602 -0.4788 -0.3367  0.0646
 5848SOL    HW222483   0.481   5.356  10.533 -0.2966 -1.0376  1.3268
 5849SOL     OW22484   3.723   7.221   0.436  0.2302 -0.2332  0.0681
 5849SOL    HW122485   3.740   7.227   0.530  0.2527  0.2135  0.0376
 5849SOL    HW222486   3.792   7.164   0.402  0.4176 -0.1221  0.2688
 5850SOL     OW22487   1.007   1.749   9.798  0.3804 -0.2244  0.1764
 5850SOL    HW122488   0.972   1.790   9.877 -0.5659  0.3826 -0.5400
 5850SOL    HW222489   1.061   1.816   9.757  1.3466 -0.7299  0.5953
 5851SOL     OW22490   9.897  10.211   3.854  0.5970 -0.0786  0.4483
 5851SOL    HW122491   9.900  10.138   3.916 -1.0108 -0.8334 -0.2982
 5851SOL    HW222492   9.931  10.174   3.772 -1.4112 -0.4172 -0.2821
 5852SOL     OW22493   0.862   7.621   8.253 -0.0897 -0.1461 -0.4271
 5852SOL    HW122494   0.928   7.555   8.270  0.5200  0.0813 -1.7627
 5852SOL    HW222495   0.904   7.682   8.192 -1.2717  0.4164 -0.7179
 5853SOL     OW22496   8.056   5.467   5.376  0.0048  0.0112 -0.1993
 5853SOL    HW122497   8.059   5.562   5.389  0.2952 -0.2588  2.1546
 5853SOL    HW222498   8.147   5.439   5.382  0.2050 -0.2448 -3.0987
 5854SOL     OW22499   1.821  10.073   3.017  0.2014 -0.2503  0.1615
 5854SOL    HW122500   1.844  10.001   2.958  0.5425 -0.1805  0.2089
 5854SOL    HW222501   1.761  10.034   3.081 -0.0801 -0.3526 -0.1629
 5855SOL     OW22502   4.351   3.845   4.835  0.0081 -0.1170 -0.0382
 5855SOL    HW122503   4.387   3.879   4.916  0.2004  0.2308 -0.2645
 5855SOL    HW222504   4.374   3.911   4.769 -1.6001  0.4508 -0.0782
 5856SOL     OW22505   9.065   6.623   4.393 -0.7262 -0.2896 -0.2109
 5856SOL    HW122506   8.991   6.653   4.340 -0.9143 -3.4338 -1.9911
 5856SOL    HW222507   9.120   6.574   4.332  1.1777 -0.7473  1.7385
 5857SOL     OW22508   5.322  10.681   6.272 -0.1369  0.3659  0.5218
 5857SOL    HW122509   5.261  10.613   6.243  0.4908 -1.1653  2.5690
 5857SOL    HW222510   5.266  10.747   6.313 -0.5165 -1.3971  3.1123
 5858SOL     OW22511   2.319   3.381  10.042  0.6321 -0.3459  0.5701
 5858SOL    HW122512   2.364   3.307  10.001 -0.0746 -1.3603  1.5610
 5858SOL    HW222513   2.383   3.451  10.042  1.8593 -1.4301  0.9841
 5859SOL     OW22514   3.858  11.048  11.688 -0.2009 -0.1693 -0.0784
 5859SOL    HW122515   3.861  10.954  11.670  0.8113 -0.2720  0.5451
 5859SOL    HW222516   3.779  11.060  11.740  1.3832 -1.2846  2.8360
 5860SOL     OW22517   0.591   9.433   6.654 -0.2029  0.1608 -0.0479
 5860SOL    HW122518   0.523   9.396   6.598  1.1589  0.2699 -1.8767
 5860SOL    HW222519   0.636   9.358   6.692  0.0022  0.0352 -0.5380
 5861SOL     OW22520   3.903   4.762   9.364  0.0044 -0.2228  0.0928
 5861SOL    HW122521   3.965   4.690   9.372  0.2914 -0.7841 -4.5073
 5861SOL    HW222522   3.817   4.720   9.370  0.0917 -0.2597  1.3224
 5862SOL     OW22523   3.072   9.902   9.925  0.0934  0.3941  0.2535
 5862SOL    HW122524   2.990   9.918   9.878 -0.0139 -1.8996 -0.4774
 5862SOL    HW222525   3.123   9.983   9.914 -1.4258  1.2770 -0.6218
 5863SOL     OW22526   7.336   2.059   2.288  0.1583  0.1824 -0.2331
 5863SOL    HW122527   7.415   2.026   2.331  2.1577  0.1608 -3.5255
 5863SOL    HW222528   7.360   2.147   2.258 -1.3165  0.4358 -0.7510
 5864SOL     OW22529   6.790   8.121   2.332 -1.0001 -0.7332  0.6557
 5864SOL    HW122530   6.700   8.153   2.329 -0.1561  1.7706 -0.2892
 5864SOL    HW222531   6.830   8.154   2.252  0.9832 -1.0687  1.4499
 5865SOL     OW22532   2.986   3.943   5.438 -0.6085 -0.6812 -0.0212
 5865SOL    HW122533   2.978   3.959   5.532 -0.1775  1.5599 -0.3207
 5865SOL    HW222534   3.005   3.849   5.432 -1.2503 -1.0023  2.0754
 5866SOL     OW22535   6.968   4.742   1.187 -0.4088  0.3012 -0.2198
 5866SOL    HW122536   6.877   4.710   1.187 -0.9407  1.6367  1.7851
 5866SOL    HW222537   7.016   4.674   1.235 -0.5410  0.0918 -0.3773
 5867SOL     OW22538   8.598   2.905   9.592  0.0647 -0.3013  0.3988
 5867SOL    HW122539   8.672   2.863   9.547 -0.5082 -1.3535  0.4059
 5867SOL    HW222540   8.546   2.832   9.625 -1.6587  0.3626 -0.7057
 5868SOL     OW22541   1.042   5.859   0.111  0.3468 -0.0503  0.6269
 5868SOL    HW122542   0.983   5.785   0.098  0.6390 -0.3194  0.8183
 5868SOL    HW222543   1.079   5.845   0.199  0.0109  0.5970  0.8759
 5869SOL     OW22544  11.190   3.215   2.729 -0.0529 -0.4091  0.2282
 5869SOL    HW122545  11.265   3.228   2.786  1.4864  1.9071 -2.1142
 5869SOL    HW222546  11.115   3.245   2.781  1.1268  0.5704  1.4188
 5870SOL     OW22547   4.711   7.065  10.969  0.7480 -0.5551  0.4072
 5870SOL    HW122548   4.750   6.979  10.983 -0.4168 -1.1667  0.0219
 5870SOL    HW222549   4.632   7.048  10.918 -0.6001  0.5114  1.9993
 5871SOL     OW22550   2.115   7.222   4.494 -0.4130 -0.4460  0.2897
 5871SOL    HW122551   2.054   7.206   4.566  0.7963  1.4254  1.8376
 5871SOL    HW222552   2.089   7.306   4.458 -0.3985 -0.9106 -0.8471
 5872SOL     OW22553  11.538   5.600   2.549 -0.4960 -0.3201 -0.8506
 5872SOL    HW122554  11.587   5.537   2.604 -0.4384  2.0888  2.1381
 5872SOL    HW222555  11.446   5.577   2.564 -0.5614  1.1983  1.6487
 5873SOL     OW22556   2.914   5.412   9.239  0.3117 -0.3710 -0.1752
 5873SOL    HW122557   2.991   5.392   9.187  0.1141  2.6680 -1.8801
 5873SOL    HW222558   2.938   5.387   9.329  1.2020 -4.3684 -1.3236
 5874SOL     OW22559  11.541  10.147   6.593 -0.1412  0.3629  0.2839
 5874SOL    HW122560  11.540  10.054   6.615 -2.2193  0.3263  0.3099
 5874SOL    HW222561  11.509  10.190   6.672  2.2713  1.2962  0.8129
 5875SOL     OW22562  11.071  10.201   1.040  0.0278  0.2028  0.0066
 5875SOL    HW122563  10.978  10.211   1.057  0.3079  0.8394  1.3241
 5875SOL    HW222564  11.111  10.279   1.080  1.0900  0.0917 -0.7997
 5876SOL     OW22565   0.914   0.760   1.983  0.4243 -0.5338  0.3663
 5876SOL    HW122566   0.928   0.847   2.019  0.6296  0.0659 -1.0721
 5876SOL    HW222567   0.839   0.770   1.924 -0.0057 -1.5011  0.7267
 5877SOL     OW22568   7.259   4.581   5.475  0.1073 -0.1445  0.5262
 5877SOL    HW122569   7.231   4.659   5.426 -0.4331 -1.0747 -0.6962
 5877SOL    HW222570   7.328   4.613   5.533  0.0596  1.2090 -0.1160
 5878SOL     OW22571   1.206   9.694   9.973 -0.4287  0.3075  0.2045
 5878SOL    HW122572   1.263   9.616   9.973  0.6276  1.0034  2.2767
 5878SOL    HW222573   1.117   9.658   9.971  0.0373 -0.9618  0.7300
 5879SOL     OW22574  10.041   0.895   1.913  0.8376  0.0495  0.6301
 5879SOL    HW122575  10.116   0.837   1.898  1.1722  0.1978  1.6476
 5879SOL    HW222576   9.965   0.836   1.911  0.8022  0.1037 -1.8292
 5880SOL     OW22577   3.167   3.868  11.142 -0.0249 -0.2864 -0.0524
 5880SOL    HW122578   3.139   3.776  11.147  0.0250 -0.2510  4.5344
 5880SOL    HW222579   3.260   3.863  11.120 -0.3822 -1.1392 -1.5808
 5881SOL     OW22580   8.218  10.830   9.192  0.0831 -0.3351 -0.5711
 5881SOL    HW122581   8.296  10.783   9.162  1.2782  1.4631 -0.4746
 5881SOL    HW222582   8.191  10.882   9.116  0.9838  1.5334  0.3371
 5882SOL     OW22583   9.003   3.211  10.436 -0.6519  0.0978  0.1987
 5882SOL    HW122584   8.915   3.214  10.398 -0.1055 -0.3023 -1.1774
 5882SOL    HW222585   8.989   3.222  10.530 -2.0780  1.0739 -0.0878
 5883SOL     OW22586   6.497   9.332   0.139  0.5732 -0.4714  0.7220
 5883SOL    HW122587   6.422   9.340   0.198 -2.1632  1.1190 -2.5896
 5883SOL    HW222588   6.559   9.397   0.171  0.0525 -0.9125  2.8218
 5884SOL     OW22589  10.612   2.262   5.228 -0.2867  0.0611  0.1968
 5884SOL    HW122590  10.601   2.260   5.133 -0.5511  0.3024  0.2213
 5884SOL    HW222591  10.539   2.315   5.260 -0.1400  0.0678  0.5272
 5885SOL     OW22592   4.845   1.209   3.839 -0.3078 -0.1951  0.3640
 5885SOL    HW122593   4.923   1.262   3.825 -0.5314  0.0028 -0.1314
 5885SOL    HW222594   4.776   1.254   3.791 -0.8599 -0.0608  1.2477
 5886SOL     OW22595   6.288   6.697  10.439 -0.5857  0.5422 -0.0222
 5886SOL    HW122596   6.306   6.604  10.426 -0.1385  0.3975  1.4262
 5886SOL    HW222597   6.341   6.721  10.516 -0.9373  1.9152 -0.1824
 5887SOL     OW22598  10.374   0.555   8.719 -0.3308 -0.1783 -0.7776
 5887SOL    HW122599  10.280   0.538   8.727 -0.3485  0.6342  1.2158
 5887SOL    HW222600  10.416   0.472   8.744 -0.5093 -0.1849 -0.4993
 5888SOL     OW22601   1.738   9.431   7.671  0.0825  0.3758 -0.1648
 5888SOL    HW122602   1.739   9.525   7.688 -0.7905  0.4117 -0.2791
 5888SOL    HW222603   1.698   9.394   7.750  0.3393  0.1047 -0.1611
 5889SOL     OW22604   5.252   5.298   4.013  0.5782 -0.6839  0.1265
 5889SOL    HW122605   5.275   5.216   4.056  1.7214 -0.7698 -0.5956
 5889SOL    HW222606   5.331   5.352   4.022  0.1848 -0.0380 -0.2608
 5890SOL     OW22607  11.413   5.660   5.364  0.2701  0.1416 -0.1669
 5890SOL    HW122608  11.374   5.676   5.450  0.8095 -2.9999  0.7886
 5890SOL    HW222609  11.357   5.709   5.303 -4.0647 -2.3818  1.3088
 5891SOL     OW22610  10.251   5.128   1.287  0.1949  0.5930  0.4957
 5891SOL    HW122611  10.302   5.078   1.222  0.1080  2.8068 -1.4058
 5891SOL    HW222612  10.317   5.160   1.349  0.5167 -0.1273  0.5403
 5892SOL     OW22613   6.954   6.030   3.407 -0.0574 -0.2105 -0.2908
 5892SOL    HW122614   6.872   5.982   3.406  0.7299 -1.7127  1.3266
 5892SOL    HW222615   6.939   6.102   3.468 -0.6510  0.5224 -1.2719
 5893SOL     OW22616  10.711  10.976   0.939  0.0528  0.0367 -0.5393
 5893SOL    HW122617  10.692  10.919   0.864  0.9428  0.5067 -1.1410
 5893SOL    HW222618  10.763  11.047   0.902  1.1050 -0.0823  0.6543
 5894SOL     OW22619   6.653   3.793   8.201  0.1214  0.3660 -0.1668
 5894SOL    HW122620   6.730   3.806   8.257 -0.7302  0.8976  0.9216
 5894SOL    HW222621   6.681   3.825   8.115  1.6843 -1.1000 -0.2697
 5895SOL     OW22622   7.493  10.583   2.274  0.1929  0.3727 -0.0182
 5895SOL    HW122623   7.495  10.586   2.178 -0.7076  1.2324 -0.0129
 5895SOL    HW222624   7.453  10.665   2.300 -0.4070 -0.2501  1.0742
 5896SOL     OW22625   4.477  10.639  11.043  0.1112  0.2700 -0.2021
 5896SOL    HW122626   4.566  10.605  11.046  0.1736  0.5048  1.2619
 5896SOL    HW222627   4.441  10.620  11.130 -1.8995 -1.4549 -1.3029
 5897SOL     OW22628  10.886  11.016   7.782 -0.0650  0.5673 -0.3893
 5897SOL    HW122629  10.945  11.089   7.762 -0.7799  1.8809  1.9395
 5897SOL    HW222630  10.943  10.950   7.821  0.0169  1.5650  1.2468
 5898SOL     OW22631   2.716   6.246   0.847  0.2100  0.4358  0.0128
 5898SOL    HW122632   2.795   6.283   0.809  0.0465 -0.0873 -0.8702
 5898SOL    HW222633   2.735   6.152   0.857  0.5676  0.6807  2.0733
 5899SOL     OW22634   6.945   5.452   4.004  0.2080  0.1223 -0.5189
 5899SOL    HW122635   6.965   5.392   4.075  1.1080 -0.1345 -0.9755
 5899SOL    HW222636   7.006   5.429   3.935  2.3868  3.1837  0.1679
 5900SOL     OW22637   5.019   0.277   2.563 -0.7473 -0.1394  0.1300
 5900SOL    HW122638   5.007   0.349   2.501 -1.1162 -0.1531  0.1823
 5900SOL    HW222639   5.065   0.317   2.637 -1.6359  0.2277  0.4958
 5901SOL     OW22640   1.362  11.578   7.727 -0.2491 -0.0593  0.3312
 5901SOL    HW122641   1.276  11.537   7.720 -0.4274  0.1915  0.9700
 5901SOL    HW222642   1.405  11.558   7.644  0.6474 -3.7082  1.5196
 5902SOL     OW22643  11.682   8.990   7.265 -0.0966  0.3658  0.2654
 5902SOL    HW122644  11.599   8.996   7.313  0.3750 -1.8023  1.4473
 5902SOL    HW222645  11.731   8.922   7.310  1.3621 -0.0870 -1.8864
 5903SOL     OW22646   4.391   5.395  10.769  0.3741  0.3171  0.2882
 5903SOL    HW122647   4.458   5.463  10.781  0.3260  0.1556  1.5391
 5903SOL    HW222648   4.316   5.427  10.819  0.5602 -0.9416  1.4056
 5904SOL     OW22649   0.947   2.655   2.286  0.0461 -0.0859 -0.3539
 5904SOL    HW122650   0.942   2.725   2.352 -1.8427 -0.4765 -0.0312
 5904SOL    HW222651   1.009   2.688   2.221  0.8195  0.9536  0.8602
 5905SOL     OW22652   1.052   3.202   3.599  0.3728  0.1153  0.3163
 5905SOL    HW122653   1.056   3.231   3.690  3.2391 -0.5119  0.4826
 5905SOL    HW222654   1.040   3.107   3.604  0.0275  0.1392  0.0133
 5906SOL     OW22655   9.928   1.828   5.890  0.2778 -0.2827 -0.6845
 5906SOL    HW122656   9.844   1.785   5.907 -0.6937  2.0440  1.1154
 5906SOL    HW222657   9.980   1.810   5.969  0.2116  0.9165 -0.3425
 5907SOL     OW22658   4.454   1.012   4.016 -0.6530 -0.7582 -0.1370
 5907SOL    HW122659   4.526   0.956   3.986 -1.7218 -2.7947  0.9781
 5907SOL    HW222660   4.393   1.013   3.943  0.0047  0.1618 -0.7009
 5908SOL     OW22661   2.520  10.897   1.465 -0.2656  0.4150 -0.1492
 5908SOL    HW122662   2.528  10.988   1.435 -0.7861  0.2529 -0.8149
 5908SOL    HW222663   2.446  10.899   1.527 -0.7799  0.3154 -0.7477
 5909SOL     OW22664   5.117   7.101   9.852  0.5985  0.4344 -0.0826
 5909SOL    HW122665   5.136   7.176   9.796  2.0310  1.7949  2.0759
 5909SOL    HW222666   5.104   7.138   9.939 -0.5739 -1.6732  0.7375
 5910SOL     OW22667   9.921   7.132   7.140  0.0734 -0.1474 -0.4976
 5910SOL    HW122668   9.903   7.208   7.084  0.6958  0.0300 -0.4648
 5910SOL    HW222669   9.967   7.070   7.083  1.4460  0.3706  0.0092
 5911SOL     OW22670   6.188  11.633   1.200 -0.2006  0.0594 -0.1032
 5911SOL    HW122671   6.261  11.582   1.164 -0.8114 -1.1951  0.3683
 5911SOL    HW222672   6.116  11.618   1.139 -0.5993 -0.2452  0.4355
 5912SOL     OW22673   5.497   2.384   3.232  0.4884  0.4112  0.1412
 5912SOL    HW122674   5.468   2.459   3.180 -0.6163 -0.0630  0.0299
 5912SOL    HW222675   5.451   2.309   3.193 -0.2609  0.0262  1.6752
 5913SOL     OW22676   5.757   3.389   2.012 -0.3146 -0.0995  0.4267
 5913SOL    HW122677   5.761   3.347   2.098  1.9241  1.2233  1.0487
 5913SOL    HW222678   5.766   3.482   2.030  2.1994  0.0981 -1.2735
 5914SOL     OW22679   5.770   5.758   6.771  0.7437  0.0382 -0.5833
 5914SOL    HW122680   5.698   5.785   6.827  1.8836  0.7229  0.6074
 5914SOL    HW222681   5.737   5.680   6.726 -0.1685 -0.6538  1.1790
 5915SOL     OW22682   5.423   5.648  11.061  0.8524  0.1971 -0.4706
 5915SOL    HW122683   5.376   5.615  11.138  0.0613  0.2311 -0.9223
 5915SOL    HW222684   5.376   5.728  11.037  1.1847  0.2649 -0.9050
 5916SOL     OW22685  10.532  10.504   8.933  0.4746  0.0757 -0.2580
 5916SOL    HW122686  10.473  10.432   8.955 -1.0629  1.7541  1.3914
 5916SOL    HW222687  10.494  10.543   8.855  0.5286 -0.0453 -0.3454
 5917SOL     OW22688   5.277   6.055  10.299 -0.5131 -0.1616  0.1685
 5917SOL    HW122689   5.211   6.073  10.233 -1.5626 -0.0886  1.2110
 5917SOL    HW222690   5.334   5.989  10.259 -0.9485  0.0887 -0.8985
 5918SOL     OW22691  10.257   9.630   3.833 -0.2654  0.3601  0.3442
 5918SOL    HW122692  10.167   9.662   3.828 -0.4049 -0.2617 -2.8602
 5918SOL    HW222693  10.248   9.534   3.831  0.4168  0.1044  3.6250
 5919SOL     OW22694   4.599   2.743   6.033 -0.1082  0.1864 -0.3437
 5919SOL    HW122695   4.593   2.648   6.042  0.4066  0.3054  1.6299
 5919SOL    HW222696   4.564   2.777   6.115  1.4696  1.6549 -0.2350
 5920SOL     OW22697   3.061   1.990   2.441  0.3653  0.2334  0.4558
 5920SOL    HW122698   3.016   1.914   2.478  0.2445  0.3529  0.5574
 5920SOL    HW222699   3.015   2.008   2.359  1.6864 -1.0543 -0.6062
 5921SOL     OW22700   8.518   4.426   8.914  0.2973  0.2461 -0.1600
 5921SOL    HW122701   8.528   4.439   8.820 -0.3679 -1.3723 -0.4892
 5921SOL    HW222702   8.607   4.431   8.949  0.6543 -0.1114 -1.0080
 5922SOL     OW22703   5.147   7.286   2.663 -0.0312 -0.1749  0.0500
 5922SOL    HW122704   5.129   7.243   2.746  4.2810 -1.6474  0.5115
 5922SOL    HW222705   5.238   7.315   2.671  0.0690  1.0128 -3.6136
 5923SOL     OW22706   2.215   7.026   4.336  0.1215  0.3234  0.0460
 5923SOL    HW122707   2.153   6.954   4.325  0.6694  0.1195 -2.0948
 5923SOL    HW222708   2.169   7.088   4.393 -0.2690 -1.7609  2.1690
 5924SOL     OW22709   6.245   7.526   5.406 -0.4279  0.3198  0.3999
 5924SOL    HW122710   6.264   7.433   5.414  1.1672  0.6313  0.6111
 5924SOL    HW222711   6.321   7.563   5.361 -2.1421  1.1522 -2.0496
 5925SOL     OW22712   3.708  11.551  11.574 -0.0993 -0.1733  0.4915
 5925SOL    HW122713   3.675  11.538  11.485 -0.1178  2.9659 -0.0972
 5925SOL    HW222714   3.770  11.480  11.588 -0.3146 -0.9210 -1.9401
 5926SOL     OW22715   8.572   4.659   8.439  0.1979 -0.4473  0.6088
 5926SOL    HW122716   8.637   4.719   8.473 -0.2199 -0.4352  1.4154
 5926SOL    HW222717   8.576   4.670   8.344 -0.5142  1.5391  0.7704
 5927SOL     OW22718   8.877  10.572   9.248  0.0312  0.4039  0.3216
 5927SOL    HW122719   8.871  10.622   9.330 -1.2831 -1.4423  1.4202
 5927SOL    HW222720   8.825  10.623   9.186  0.3108  1.3764  0.8577
 5928SOL     OW22721   1.111   6.236   1.461  0.0218  0.4815 -0.1411
 5928SOL    HW122722   1.169   6.224   1.386  1.0832 -1.6138  0.9170
 5928SOL    HW222723   1.034   6.183   1.440 -0.9109  2.0551 -0.8778
 5929SOL     OW22724   3.156   4.058   8.613 -0.4184  0.5294  0.3974
 5929SOL    HW122725   3.116   3.995   8.672  0.3888  0.3905  0.8050
 5929SOL    HW222726   3.086   4.082   8.553 -0.4225 -1.7236 -0.6021
 5930SOL     OW22727  10.015  10.280   1.946  0.0046  0.5284 -0.3348
 5930SOL    HW122728  10.083  10.345   1.965 -0.1322 -0.1609  3.3313
 5930SOL    HW222729  10.057  10.196   1.964 -1.2865 -0.0174  0.2439
 5931SOL     OW22730   4.900   9.882   7.185 -0.5555 -0.1077  0.0966
 5931SOL    HW122731   4.882   9.971   7.215 -0.8121  0.3460 -1.3463
 5931SOL    HW222732   4.814   9.840   7.180 -0.6925  0.2781 -1.3256
 5932SOL     OW22733   1.841   9.869  11.428 -0.1358 -0.2758  0.1268
 5932SOL    HW122734   1.915   9.925  11.449  1.1168 -1.9396  0.4148
 5932SOL    HW222735   1.805   9.845  11.513  1.1370 -2.1387  0.2017
 5933SOL     OW22736   1.830   1.556   7.215 -0.1103 -0.2819  0.2092
 5933SOL    HW122737   1.889   1.504   7.161 -0.3683 -0.7763  0.3840
 5933SOL    HW222738   1.885   1.623   7.255  0.3094 -0.6505  0.2628
 5934SOL     OW22739   4.252   9.076   8.778 -0.2485  0.5822  0.4236
 5934SOL    HW122740   4.294   9.058   8.694 -1.9422 -0.5926 -0.2283
 5934SOL    HW222741   4.317   9.049   8.843  1.1811  1.7241 -0.4544
 5935SOL     OW22742   4.576   4.545   2.548  0.3686 -0.3811 -0.1028
 5935SOL    HW122743   4.605   4.469   2.498 -0.1103 -0.6532  0.0299
 5935SOL    HW222744   4.652   4.604   2.548  0.8543 -0.9975  0.0831
 5936SOL     OW22745   1.685   9.002   9.197 -0.0716  0.9609 -0.1003
 5936SOL    HW122746   1.700   8.907   9.198 -0.4661  0.8996  0.3641
 5936SOL    HW222747   1.718   9.033   9.281 -0.3099  1.1738 -0.0830
 5937SOL     OW22748   4.948   1.349  11.117  0.1309 -0.1394  0.3709
 5937SOL    HW122749   4.866   1.383  11.154 -0.5757 -0.3520 -0.9319
 5937SOL    HW222750   4.962   1.400  11.038 -0.1409 -1.7979 -0.8137
 5938SOL     OW22751   3.461   3.150   5.001 -0.5355 -0.0211 -0.0468
 5938SOL    HW122752   3.370   3.170   4.979 -0.3972  0.5570 -0.1261
 5938SOL    HW222753   3.496   3.107   4.923 -0.5094  0.5288 -0.3458
 5939SOL     OW22754   1.755   6.352   8.208  0.4880  0.2869 -0.1878
 5939SOL    HW122755   1.826   6.305   8.164 -1.4008 -0.7722 -2.2901
 5939SOL    HW222756   1.761   6.441   8.174  0.5188  0.0737 -0.7558
 5940SOL     OW22757   1.015   4.345   3.122  0.2886  0.4306  0.3084
 5940SOL    HW122758   1.092   4.290   3.106 -0.4678 -0.4832 -0.3246
 5940SOL    HW222759   0.943   4.282   3.131 -0.4459  1.2898  0.5248
 5941SOL     OW22760   2.265   7.953  11.662 -0.6782 -0.4224  0.5250
 5941SOL    HW122761   2.239   7.861  11.654  0.5494 -0.8089  0.6770
 5941SOL    HW222762   2.244   7.992  11.578 -1.7290 -0.6998  0.6513
 5942SOL     OW22763  11.311   6.604   8.336  0.0984 -0.0536  0.1229
 5942SOL    HW122764  11.304   6.509   8.342 -1.5504 -0.3722 -3.6595
 5942SOL    HW222765  11.230   6.636   8.377 -0.4447 -0.4913 -0.5708
 5943SOL     OW22766   6.293   8.357   8.711 -0.3637  0.2718 -0.3938
 5943SOL    HW122767   6.343   8.277   8.700  0.4751  0.8732 -1.1386
 5943SOL    HW222768   6.222   8.334   8.771  0.6828 -0.6585  0.5152
 5944SOL     OW22769   3.797   2.074   1.522  0.0400  0.0876 -0.2147
 5944SOL    HW122770   3.769   1.988   1.551  1.7316 -0.4784 -0.1266
 5944SOL    HW222771   3.720   2.112   1.479 -1.0448 -1.0131  0.7072
 5945SOL     OW22772   5.166   9.503  10.813 -0.2151  0.2895  0.0457
 5945SOL    HW122773   5.152   9.550  10.731 -0.3262  0.0707 -0.0616
 5945SOL    HW222774   5.226   9.432  10.791  2.4105  2.1123  0.7997
 5946SOL     OW22775   7.570   6.127   7.480 -0.0542  0.1467 -0.0148
 5946SOL    HW122776   7.652   6.153   7.440 -1.3908  0.5727 -2.7325
 5946SOL    HW222777   7.518   6.090   7.408 -1.7188 -1.4964  1.8715
 5947SOL     OW22778   6.584   7.347   9.759  0.1566  0.3253  0.1126
 5947SOL    HW122779   6.614   7.309   9.842  1.6413  0.3780 -0.3641
 5947SOL    HW222780   6.649   7.319   9.695 -0.7132  0.6670 -0.9586
 5948SOL     OW22781  10.431   8.297   0.715  0.5233 -0.1125 -0.4892
 5948SOL    HW122782  10.509   8.318   0.767  0.8967  2.2064 -1.8571
 5948SOL    HW222783  10.445   8.207   0.685  1.5819 -0.5202  1.1122
 5949SOL     OW22784   7.396  11.225   2.283  0.7164 -0.5014  0.1106
 5949SOL    HW122785   7.375  11.312   2.316 -0.4788 -1.2915  1.5926
 5949SOL    HW222786   7.477  11.201   2.327  0.2214 -0.7275  0.9254
 5950SOL     OW22787   0.415  10.216   2.568  0.0067  1.0520  0.3410
 5950SOL    HW122788   0.404  10.127   2.601  0.4854  0.1227 -1.8408
 5950SOL    HW222789   0.336  10.262   2.595 -1.5484 -0.8095 -0.8405
 5951SOL     OW22790   5.461   9.844   4.820 -0.2027 -0.1557  0.0235
 5951SOL    HW122791   5.520   9.828   4.746 -0.3369 -1.2076  0.1262
 5951SOL    HW222792   5.401   9.911   4.789  1.8355  1.9924  0.3651
 5952SOL     OW22793   7.307   4.120   6.651  0.2858 -0.2348 -0.3498
 5952SOL    HW122794   7.344   4.164   6.574  1.3774  0.2365  0.4113
 5952SOL    HW222795   7.317   4.027   6.632 -0.0387 -0.1371 -1.0449
 5953SOL     OW22796   1.650   6.721   2.500  0.1808  0.2355 -0.6135
 5953SOL    HW122797   1.683   6.811   2.501 -0.9773  0.6827  0.1347
 5953SOL    HW222798   1.609   6.712   2.414  1.0244  0.1248 -1.0178
 5954SOL     OW22799  11.054   0.185   9.698 -0.3342 -0.3498 -0.0276
 5954SOL    HW122800  11.098   0.108   9.734 -0.6340  0.2753  1.8212
 5954SOL    HW222801  11.027   0.234   9.776 -2.9801  0.0329 -1.1091
 5955SOL     OW22802   1.737   5.532   8.303  0.1518 -0.3116  0.2116
 5955SOL    HW122803   1.809   5.498   8.248 -0.2404 -1.1744  0.2075
 5955SOL    HW222804   1.660   5.484   8.273 -0.4072  0.5314  0.2967
 5956SOL     OW22805   4.721   0.816   8.336  0.4985 -0.3540 -0.4798
 5956SOL    HW122806   4.679   0.736   8.370  0.3794 -0.9577 -1.9639
 5956SOL    HW222807   4.665   0.843   8.263  1.2796  0.3179 -0.8410
 5957SOL     OW22808   7.942   8.687   0.934  0.7807  0.1567 -0.4606
 5957SOL    HW122809   7.901   8.646   0.858 -0.4101  0.5273 -0.0394
 5957SOL    HW222810   7.899   8.772   0.942 -0.9534 -0.7976  2.0352
 5958SOL     OW22811   7.792   9.029   0.571 -0.2317  0.0229 -0.2685
 5958SOL    HW122812   7.811   9.037   0.477 -1.0600  0.3801 -0.4141
 5958SOL    HW222813   7.843   9.098   0.612 -0.1889  0.1368 -0.5091
 5959SOL     OW22814   7.443   8.075   6.219 -0.3997 -0.4007 -0.2021
 5959SOL    HW122815   7.494   8.021   6.279  4.6551  3.9696  0.1671
 5959SOL    HW222816   7.472   8.047   6.132  1.4842  0.8650 -0.0398
 5960SOL     OW22817   2.651   0.413   2.052 -0.3404 -0.2486 -0.5914
 5960SOL    HW122818   2.666   0.490   2.108  1.3540 -0.0825 -1.1929
 5960SOL    HW222819   2.562   0.384   2.073 -0.6166  1.2318  0.4302
 5961SOL     OW22820   1.648   2.527   2.214  0.0809 -0.2827  0.7559
 5961SOL    HW122821   1.671   2.605   2.165 -0.7784  0.9470  2.2111
 5961SOL    HW222822   1.630   2.461   2.147  0.0315  0.9934 -0.5384
 5962SOL     OW22823   9.327   4.287   0.334 -0.0320  0.1886  0.0543
 5962SOL    HW122824   9.234   4.285   0.356 -0.0252  1.4012  0.2775
 5962SOL    HW222825   9.363   4.357   0.389  1.0560 -0.4152  0.1348
 5963SOL     OW22826   7.047   6.892   6.388  0.6279 -0.2440 -0.1663
 5963SOL    HW122827   7.038   6.984   6.362  2.6567 -0.5861 -2.4283
 5963SOL    HW222828   6.980   6.846   6.338 -0.5584 -0.0314  1.1577
 5964SOL     OW22829   7.729   4.793   1.426  0.5984  0.5854 -0.1882
 5964SOL    HW122830   7.649   4.787   1.478  0.5096  0.2863 -0.3577
 5964SOL    HW222831   7.702   4.836   1.345  0.5032  0.0287 -0.4560
 5965SOL     OW22832   2.007   4.085  10.918  0.4712  0.4793  0.4679
 5965SOL    HW122833   1.922   4.084  10.873  0.1241 -1.9014  1.0331
 5965SOL    HW222834   2.053   4.008  10.883  2.1030  1.2925  0.7512
 5966SOL     OW22835   9.757   2.158   6.084  0.0790 -0.1146 -0.3821
 5966SOL    HW122836   9.794   2.240   6.116  1.3006 -0.4948 -0.7524
 5966SOL    HW222837   9.737   2.175   5.992 -0.0128 -0.1118 -0.3608
 5967SOL     OW22838   4.176   1.533  10.023  0.2535  0.0854  0.1302
 5967SOL    HW122839   4.163   1.442  10.050 -0.6752  0.3438  0.5782
 5967SOL    HW222840   4.166   1.584  10.103 -0.1078  0.6605 -0.2691
 5968SOL     OW22841  10.964   2.504   4.009  0.2578  0.1843 -0.6717
 5968SOL    HW122842  10.903   2.568   3.972  0.4166  0.7390 -0.0072
 5968SOL    HW222843  11.046   2.521   3.964  0.5831  1.1992  0.2521
 5969SOL     OW22844   9.054   5.607   7.976  0.3591 -0.1717  0.2025
 5969SOL    HW122845   9.029   5.583   8.065  0.8279 -0.3218  0.2955
 5969SOL    HW222846   9.141   5.568   7.964  0.3723 -0.0054 -0.2596
 5970SOL     OW22847   2.329   7.863   6.772 -0.0928  0.2403 -0.4483
 5970SOL    HW122848   2.323   7.854   6.676  0.3372 -0.5932 -0.4082
 5970SOL    HW222849   2.326   7.773   6.804 -1.9685  0.5876  0.4438
 5971SOL     OW22850   4.541   4.188   9.018 -0.1719 -0.2615 -0.1453
 5971SOL    HW122851   4.515   4.231   9.099  2.2999  3.1425 -0.9242
 5971SOL    HW222852   4.496   4.238   8.949  1.9994  0.5653 -1.0564
 5972SOL     OW22853   7.805   1.348  10.335 -0.3619  0.6816 -0.5030
 5972SOL    HW122854   7.830   1.258  10.318 -1.2371  0.4469 -0.6292
 5972SOL    HW222855   7.710   1.344  10.351 -0.0626  1.2397  1.8308
 5973SOL     OW22856   1.235   3.073   5.356 -0.4740 -0.0628  0.2294
 5973SOL    HW122857   1.163   3.048   5.299  0.1979 -2.7243  0.3975
 5973SOL    HW222858   1.314   3.053   5.306  0.3821  4.6344 -0.7565
 5974SOL     OW22859   1.836   9.171   1.867  0.1507 -0.0182 -0.3744
 5974SOL    HW122860   1.888   9.130   1.936  0.1826 -0.7317 -0.8101
 5974SOL    HW222861   1.886   9.154   1.787 -1.0060 -1.1814 -0.8710
 5975SOL     OW22862   4.601   0.855   3.054  0.3535  0.5083 -0.0106
 5975SOL    HW122863   4.607   0.942   3.094 -1.1708  0.9958 -0.7618
 5975SOL    HW222864   4.549   0.868   2.975  0.6419 -0.9809 -0.4841
 5976SOL     OW22865   8.973   2.364   5.674 -0.5956  0.6081 -0.6435
 5976SOL    HW122866   8.897   2.310   5.652  0.9931 -2.6172  1.1160
 5976SOL    HW222867   9.033   2.350   5.600  0.3726 -1.3257  0.4386
 5977SOL     OW22868   4.466  11.497   5.396  0.2271  0.3938 -0.1304
 5977SOL    HW122869   4.481  11.531   5.484  0.9883  0.6387 -0.3377
 5977SOL    HW222870   4.504  11.409   5.397 -0.5385  0.0625  0.0263
 5978SOL     OW22871  10.401   8.375  10.306  0.5051 -0.1635  0.1944
 5978SOL    HW122872  10.377   8.309  10.241  1.5096  0.2728 -0.6549
 5978SOL    HW222873  10.327   8.377  10.367  0.9624 -2.9687  0.9958
 5979SOL     OW22874  10.695  11.600   0.381  1.0124  0.3687 -0.2652
 5979SOL    HW122875  10.615  11.613   0.331  0.7485  1.5372  0.4275
 5979SOL    HW222876  10.766  11.618   0.319  0.6948  1.1247 -0.4218
 5980SOL     OW22877   3.890   0.262   0.867 -0.1674  0.1819 -0.0921
 5980SOL    HW122878   3.962   0.325   0.869  0.7290 -0.8187 -0.3373
 5980SOL    HW222879   3.912   0.202   0.796 -1.7452  0.4385 -0.8281
 5981SOL     OW22880   0.808   9.283   5.704 -0.0722 -0.3614 -0.4782
 5981SOL    HW122881   0.772   9.343   5.638 -0.4185 -0.1759 -0.1243
 5981SOL    HW222882   0.826   9.202   5.655 -0.1908 -0.1795 -0.8288
 5982SOL     OW22883   7.638   9.495   6.554  0.0240  0.4372 -0.1735
 5982SOL    HW122884   7.582   9.455   6.620 -0.5751 -0.4312 -1.1850
 5982SOL    HW222885   7.600   9.582   6.540 -0.1800  0.4104  0.2132
 5983SOL     OW22886   1.779   3.549   0.538 -0.5169  0.0002 -0.1637
 5983SOL    HW122887   1.804   3.467   0.581  0.8240 -0.7681 -2.2551
 5983SOL    HW222888   1.703   3.526   0.485  0.9713 -0.4742 -2.2276
 5984SOL     OW22889   2.651   4.032   3.317  0.2913 -0.2345 -0.5365
 5984SOL    HW122890   2.715   4.053   3.385  1.8988 -1.3264 -1.6369
 5984SOL    HW222891   2.617   3.946   3.343  0.7310 -0.5422 -0.9512
 5985SOL     OW22892   9.990   6.059  10.535  0.0865  0.0913 -0.4452
 5985SOL    HW122893   9.924   6.065  10.465  0.1647 -1.6260 -0.7246
 5985SOL    HW222894  10.042   6.139  10.526  0.7842 -0.5459 -3.1122
 5986SOL     OW22895   0.096   5.577   2.397  0.0496 -0.4160 -0.0331
 5986SOL    HW122896   0.002   5.575   2.416  0.1491 -1.7013  0.4466
 5986SOL    HW222897   0.101   5.574   2.302 -0.3957 -0.9347 -0.0445
 5987SOL     OW22898   1.849   5.120  10.649 -0.0685 -0.0065  0.9820
 5987SOL    HW122899   1.856   5.095  10.557 -1.0172 -0.2947  0.9792
 5987SOL    HW222900   1.930   5.167  10.667 -0.2535  0.8251 -0.2409
 5988SOL     OW22901   2.464   7.010   9.391 -0.4480  0.0784  0.0566
 5988SOL    HW122902   2.403   6.943   9.363  0.2448 -0.3950 -0.3470
 5988SOL    HW222903   2.409   7.079   9.429 -1.2183 -0.3455 -0.2780
 5989SOL     OW22904   1.414   5.751   7.663 -1.0080 -0.3299  0.0564
 5989SOL    HW122905   1.469   5.830   7.668  0.5271 -1.1740 -2.0834
 5989SOL    HW222906   1.455   5.691   7.725 -1.4462  0.0910  0.7780
 5990SOL     OW22907   9.110   3.583  10.786  0.1201  0.0720  0.2390
 5990SOL    HW122908   9.191   3.611  10.829  1.2480 -3.6128  0.8540
 5990SOL    HW222909   9.137   3.562  10.697  0.1202 -2.0236  0.6941
 5991SOL     OW22910   8.831   3.895   9.452 -0.6719  0.2592 -0.6443
 5991SOL    HW122911   8.761   3.858   9.398 -2.0942 -0.3366  1.4990
 5991SOL    HW222912   8.786   3.953   9.514  1.0088  1.7276 -0.7226
 5992SOL     OW22913   7.645   3.828  11.196  0.0020 -0.4599  0.9171
 5992SOL    HW122914   7.607   3.793  11.116  1.2209  1.2645 -0.5207
 5992SOL    HW222915   7.594   3.907  11.214 -0.5147 -1.0434  2.1011
 5993SOL     OW22916   6.449   6.875   3.419  0.6875 -0.0352  0.4314
 5993SOL    HW122917   6.405   6.853   3.336  0.6945 -0.0241  0.4249
 5993SOL    HW222918   6.542   6.876   3.398  0.8505 -1.9017  0.8495
 5994SOL     OW22919   9.703   8.308   8.086  0.0918  0.3751 -0.3743
 5994SOL    HW122920   9.788   8.337   8.121 -0.2368  1.5389 -0.5169
 5994SOL    HW222921   9.642   8.377   8.112 -1.0611 -0.9830  0.7250
 5995SOL     OW22922   3.343   8.837   1.885  0.0637 -0.4597  0.0832
 5995SOL    HW122923   3.262   8.802   1.848 -1.5210  2.4266  0.4748
 5995SOL    HW222924   3.321   8.856   1.976  1.2380  0.2435  0.2372
 5996SOL     OW22925  11.521  11.277   0.526 -0.4583 -0.0002 -0.3469
 5996SOL    HW122926  11.459  11.224   0.477  0.8037 -1.9910  0.1035
 5996SOL    HW222927  11.499  11.262   0.618 -0.1164  0.2957 -0.2118
 5997SOL     OW22928   3.686   1.618   5.277 -0.0603  0.0158 -0.1432
 5997SOL    HW122929   3.748   1.635   5.206  2.2855  0.6651  1.8972
 5997SOL    HW222930   3.715   1.534   5.314  0.3082  0.8225  1.4906
 5998SOL     OW22931   9.282  10.873   5.087  0.2220 -0.0469 -0.2618
 5998SOL    HW122932   9.360  10.923   5.060  2.4619 -1.8924  2.2184
 5998SOL    HW222933   9.245  10.924   5.159  1.4929 -0.9526  1.1095
 5999SOL     OW22934   0.878   6.820   8.433 -0.0873  0.4664 -0.1508
 5999SOL    HW122935   0.923   6.738   8.451  1.1249  0.5676 -2.3605
 5999SOL    HW222936   0.785   6.799   8.441  0.2379 -0.7148  0.7789
 6000SOL     OW22937   3.407   9.698   6.203 -0.1006  0.0029  0.0060
 6000SOL    HW122938   3.319   9.703   6.165  0.1196  1.7585 -0.3566
 6000SOL    HW222939   3.454   9.637   6.146 -0.2232  1.4054 -1.7066
 6001SOL     OW22940   5.615   7.400   6.315 -0.3760 -0.1767  0.0471
 6001SOL    HW122941   5.699   7.445   6.319  1.0046 -2.4326 -1.4235
 6001SOL    HW222942   5.556   7.463   6.273  1.3079  0.5070 -1.4136
 6002SOL     OW22943   9.889   3.255   4.045  0.0857  0.4198  0.2454
 6002SOL    HW122944   9.896   3.189   3.976  0.7849  2.1178 -1.3837
 6002SOL    HW222945   9.801   3.292   4.035 -0.6257 -0.7449  1.6933
 6003SOL     OW22946   8.324   0.665   4.798  0.1433 -0.4100  0.3965
 6003SOL    HW122947   8.337   0.597   4.865  0.7367  1.0831  1.8564
 6003SOL    HW222948   8.359   0.625   4.718 -0.4156 -2.1849  0.9796
 6004SOL     OW22949   5.920   4.325   4.432 -0.2600 -0.3632 -0.7556
 6004SOL    HW122950   5.966   4.244   4.410 -1.6149 -0.7699 -2.2658
 6004SOL    HW222951   5.875   4.305   4.514  0.2269 -0.7978 -0.5888
 6005SOL     OW22952   5.714   3.755   5.414 -0.0250 -0.3293  0.2054
 6005SOL    HW122953   5.705   3.663   5.389  1.2115 -0.1108 -1.2239
 6005SOL    HW222954   5.720   3.753   5.509 -0.3783 -1.7000  0.2236
 6006SOL     OW22955   0.970   7.444   7.373  0.3080  0.2169 -0.4545
 6006SOL    HW122956   0.880   7.447   7.404  0.0322 -1.0719 -1.0733
 6006SOL    HW222957   0.978   7.519   7.313  0.5601  2.1294  1.8246
 6007SOL     OW22958   5.897   8.071   4.294  0.1397 -0.0546 -0.5528
 6007SOL    HW122959   5.877   8.044   4.204  0.7026 -0.7794 -0.4658
 6007SOL    HW222960   5.897   7.990   4.345 -2.0100  0.5418  0.4842
 6008SOL     OW22961   3.150   8.615   7.493  0.4999  0.4795  0.0833
 6008SOL    HW122962   3.073   8.644   7.543  0.2337  1.0517 -0.6491
 6008SOL    HW222963   3.123   8.622   7.402  1.8152  1.8550 -0.2349
 6009SOL     OW22964   5.496   9.676   8.162 -0.4189 -0.6691  0.1959
 6009SOL    HW122965   5.434   9.705   8.229 -1.4714 -0.6758 -0.7525
 6009SOL    HW222966   5.442   9.660   8.085  0.8506 -0.0354 -0.8572
 6010SOL     OW22967   3.406   5.539   7.619 -0.0071  0.7548  0.0708
 6010SOL    HW122968   3.419   5.618   7.567  0.9808 -1.0420 -2.6538
 6010SOL    HW222969   3.494   5.508   7.638 -0.3452  1.1934  2.7318
 6011SOL     OW22970   2.490  10.025   1.131  0.1205  0.0363 -0.0319
 6011SOL    HW122971   2.433   9.950   1.149  1.9447 -1.5080 -0.3025
 6011SOL    HW222972   2.430  10.097   1.113 -1.7467 -1.5486 -0.5364
 6012SOL     OW22973   2.326   0.175   5.535  0.0187  0.4241 -0.1504
 6012SOL    HW122974   2.308   0.268   5.544  2.0896  0.9572 -0.8518
 6012SOL    HW222975   2.350   0.146   5.623 -0.4231  0.6022  0.0290
 6013SOL     OW22976   1.662   8.892   0.534 -0.2864  0.2908  0.0304
 6013SOL    HW122977   1.747   8.862   0.564 -0.1517  0.2548 -0.3826
 6013SOL    HW222978   1.681   8.948   0.459 -0.6173  0.3698  0.0035
 6014SOL     OW22979   8.044   5.912   9.438 -0.2912 -0.7110  0.3969
 6014SOL    HW122980   8.012   5.985   9.491  0.8885  0.8355 -0.9177
 6014SOL    HW222981   8.064   5.951   9.353  3.0180 -1.9648  0.4729
 6015SOL     OW22982   1.196   9.536   2.131  0.3024  0.0755 -0.2678
 6015SOL    HW122983   1.213   9.505   2.042 -0.4791 -1.2939  0.0425
 6015SOL    HW222984   1.282   9.567   2.161  0.5743  0.5869 -1.4912
 6016SOL     OW22985   9.016   6.982  11.571 -0.4279 -0.0780 -0.7614
 6016SOL    HW122986   9.082   6.913  11.569 -1.2860 -0.9507 -0.0234
 6016SOL    HW222987   9.013   7.011  11.662 -1.7449 -0.7505 -0.5684
 6017SOL     OW22988   4.827   8.779   5.964 -0.2377  0.2364  0.4142
 6017SOL    HW122989   4.852   8.859   6.012  2.1395 -0.7412  0.9265
 6017SOL    HW222990   4.744   8.753   6.005 -0.3035  1.6226  1.2571
 6018SOL     OW22991  11.381   1.208   2.507 -0.4499  0.5822 -0.2852
 6018SOL    HW122992  11.421   1.121   2.510 -1.8207 -0.1178 -0.9862
 6018SOL    HW222993  11.449   1.267   2.537  0.2075 -0.8506  1.2029
 6019SOL     OW22994   2.941   2.263  10.312  0.4851  0.2309 -0.3217
 6019SOL    HW122995   2.941   2.355  10.339  0.0476 -0.2632  1.5021
 6019SOL    HW222996   3.024   2.251  10.266  0.1235  1.7492 -1.4667
 6020SOL     OW22997   7.263   0.094   0.288  0.7551 -0.3856  0.3543
 6020SOL    HW122998   7.211   0.104   0.208  1.3168 -0.1649  0.0126
 6020SOL    HW222999   7.209   0.038   0.344  0.5219 -0.8613 -0.3229
 6021SOL     OW23000   1.000   1.172  10.538  0.6644  0.2338  0.1590
 6021SOL    HW123001   0.997   1.218  10.455 -1.5286 -0.1071 -0.0184
 6021SOL    HW223002   0.956   1.089  10.521 -1.6813  0.9701  2.0804
 6022SOL     OW23003   4.908   5.401   6.507 -0.0490  0.6017 -0.6395
 6022SOL    HW123004   4.819   5.370   6.525  1.2656 -2.1680  1.8981
 6022SOL    HW223005   4.935   5.353   6.429  0.3878 -1.3844  0.6712
 6023SOL     OW23006   3.618   8.410   5.750 -0.1712  0.1210  0.1987
 6023SOL    HW123007   3.690   8.447   5.801 -0.7298  2.4663 -0.5632
 6023SOL    HW223008   3.565   8.363   5.814  1.2713 -0.4443  1.0235
 6024SOL     OW23009   0.836   9.447   8.439  0.2485 -0.5138 -0.0622
 6024SOL    HW123010   0.886   9.416   8.364 -1.1691 -0.7671 -0.9556
 6024SOL    HW223011   0.764   9.384   8.447  0.9642 -1.1088  2.2105
 6025SOL     OW23012   1.450   4.674   8.448 -0.1363 -0.4297  0.6181
 6025SOL    HW123013   1.517   4.638   8.507 -0.8263 -0.3267  1.4823
 6025SOL    HW223014   1.450   4.767   8.466  0.0459 -0.3082  0.0253
 6026SOL     OW23015   5.867  11.608   0.544  0.1508  0.2453  0.1985
 6026SOL    HW123016   5.897  11.688   0.500  0.6308  0.7710  1.4391
 6026SOL    HW223017   5.874  11.628   0.637 -0.7088 -0.8917  0.5279
 6027SOL     OW23018   5.616   8.639   6.974  0.4330 -0.0914 -0.1182
 6027SOL    HW123019   5.531   8.621   7.015  0.6725  0.1219  0.4869
 6027SOL    HW223020   5.647   8.553   6.946 -0.5735 -0.0140 -1.5501
 6028SOL     OW23021   2.793   2.405   6.697  0.0804 -0.1852  0.5479
 6028SOL    HW123022   2.801   2.332   6.637  1.3644  0.1029  0.3436
 6028SOL    HW223023   2.864   2.465   6.673 -1.6122  1.6925 -0.0410
 6029SOL     OW23024   3.721   8.248   3.582 -0.0162  0.0029 -0.2194
 6029SOL    HW123025   3.644   8.207   3.620 -0.6142 -0.2513 -1.6374
 6029SOL    HW223026   3.785   8.178   3.576 -0.2920 -0.2116 -0.6638
 6030SOL     OW23027  11.547   6.294   3.100 -0.5662 -0.1302  0.1368
 6030SOL    HW123028  11.494   6.217   3.077 -1.2862  0.5267 -0.4785
 6030SOL    HW223029  11.519   6.361   3.038  1.2921  0.1301 -0.4784
 6031SOL     OW23030   1.303   6.805   2.884  0.5066  0.1833  0.0532
 6031SOL    HW123031   1.275   6.724   2.842 -0.7417 -0.2558  1.6652
 6031SOL    HW223032   1.231   6.866   2.870  0.5491  0.3708  0.6439
 6032SOL     OW23033   7.341   7.399   2.708 -0.1032 -0.0156  0.6660
 6032SOL    HW123034   7.312   7.308   2.700 -0.2857  0.1393 -0.5923
 6032SOL    HW223035   7.275   7.450   2.662 -0.3579  0.8457  1.9271
 6033SOL     OW23036   9.409   3.390   0.989 -0.4900 -0.9667 -0.0802
 6033SOL    HW123037   9.332   3.362   0.938 -0.7610  0.9588 -0.8297
 6033SOL    HW223038   9.440   3.310   1.031 -2.2142 -2.0225 -0.6829
 6034SOL     OW23039   1.654   6.307   1.179 -0.1359 -0.1148 -0.3339
 6034SOL    HW123040   1.611   6.300   1.094  0.2713 -0.3067 -0.5299
 6034SOL    HW223041   1.747   6.315   1.158 -0.1446  1.1502  0.0500
 6035SOL     OW23042  11.440   4.433   7.594 -0.1206  0.3363 -0.1144
 6035SOL    HW123043  11.388   4.358   7.565  0.1437  0.0657  0.1051
 6035SOL    HW223044  11.376   4.498   7.623 -0.9379  2.7843 -5.8831
 6036SOL     OW23045   2.905   1.591   1.292 -0.0500 -0.3486 -0.1415
 6036SOL    HW123046   2.992   1.599   1.253  0.0906 -0.2926  0.1770
 6036SOL    HW223047   2.847   1.634   1.230  0.2073 -0.0247 -0.1602
 6037SOL     OW23048  10.943   4.856   6.398  0.1315  0.2215  0.0383
 6037SOL    HW123049  10.886   4.930   6.415  0.8033  0.3393  2.0453
 6037SOL    HW223050  11.015   4.866   6.461  0.3943 -1.9580  0.1727
 6038SOL     OW23051   4.265   0.746   5.607  0.2181 -0.5201 -0.6166
 6038SOL    HW123052   4.182   0.777   5.570  0.2293  0.2305 -0.0384
 6038SOL    HW223053   4.265   0.779   5.697  0.7389 -1.2872 -0.3190
 6039SOL     OW23054   2.722   9.381   7.934  0.9305  0.2714 -0.0846
 6039SOL    HW123055   2.646   9.392   7.877  1.3358  0.9496 -0.5083
 6039SOL    HW223056   2.689   9.331   8.009  0.3676 -0.5173 -0.8502
 6040SOL     OW23057  10.357   0.673   3.101 -0.3499 -0.1274  0.2953
 6040SOL    HW123058  10.408   0.592   3.096  0.5543  0.4971 -1.4625
 6040SOL    HW223059  10.396   0.730   3.035 -1.4667  1.4698  0.9534
 6041SOL     OW23060  11.173   1.682   0.869  0.4095 -0.1681 -0.0088
 6041SOL    HW123061  11.107   1.734   0.823 -0.5187 -1.0520  0.2979
 6041SOL    HW223062  11.164   1.708   0.961 -1.1206 -1.9477  0.3832
 6042SOL     OW23063   8.375   3.553   0.397 -0.2549  0.2101  0.3995
 6042SOL    HW123064   8.334   3.614   0.458 -0.5564 -0.1441  0.5510
 6042SOL    HW223065   8.418   3.488   0.453  0.0020  0.2389  0.2381
 6043SOL     OW23066   7.884   7.024  10.411 -0.5594  0.1307  0.1625
 6043SOL    HW123067   7.794   7.015  10.380 -0.6532 -1.1919  0.7575
 6043SOL    HW223068   7.907   6.937  10.444  0.5235  0.7513  1.1206
 6044SOL     OW23069   3.745  11.385  11.065  0.3567 -0.4364  0.7194
 6044SOL    HW123070   3.839  11.396  11.074  0.7095 -2.2369 -0.3716
 6044SOL    HW223071   3.721  11.441  10.991  1.1179 -2.2113 -0.9445
 6045SOL     OW23072   4.357   9.783   0.100 -0.0723 -0.1602 -0.0069
 6045SOL    HW123073   4.431   9.729   0.127 -0.1612 -0.5261 -0.4860
 6045SOL    HW223074   4.280   9.727   0.114 -0.1030 -0.4326 -1.1852
 6046SOL     OW23075  11.026   6.808   3.916  0.2755  0.2645  0.2879
 6046SOL    HW123076  11.117   6.817   3.944  0.7793 -1.0826 -0.8203
 6046SOL    HW223077  11.031   6.794   3.822 -1.1271  0.6144  0.1405
 6047SOL     OW23078   5.112   2.585   3.804  0.8414  0.1808 -0.1666
 6047SOL    HW123079   5.178   2.520   3.782 -0.7171 -0.6308 -2.9694
 6047SOL    HW223080   5.036   2.534   3.832  0.8977  1.0444  1.7349
 6048SOL     OW23081   6.135   8.123  10.999 -0.5255 -0.5576 -0.4843
 6048SOL    HW123082   6.167   8.198  11.049 -2.0313 -0.2367  0.0527
 6048SOL    HW223083   6.209   8.062  10.996 -0.6340 -1.0132  2.9341
 6049SOL     OW23084   1.786   5.397  10.207 -0.0748  0.3950  0.1517
 6049SOL    HW123085   1.847   5.466  10.235 -0.5955  1.1624 -0.5715
 6049SOL    HW223086   1.763   5.420  10.117 -1.1624 -0.0786  0.2922
 6050SOL     OW23087   0.645  10.899   6.677  0.0518  0.4579  0.4010
 6050SOL    HW123088   0.614  10.964   6.614 -1.4191 -0.3520  0.2486
 6050SOL    HW223089   0.720  10.941   6.719  0.0846  1.6371 -0.7679
 6051SOL     OW23090  10.740  11.074  11.005  0.1843 -0.0001  0.1643
 6051SOL    HW123091  10.707  11.046  10.920 -0.1725  2.4021 -0.5504
 6051SOL    HW223092  10.680  11.034  11.068  0.2012 -1.4665 -0.6812
 6052SOL     OW23093   1.977  11.625   7.257  0.3428  0.5858 -0.8489
 6052SOL    HW123094   1.982  11.716   7.287 -0.3567 -0.7154  4.2207
 6052SOL    HW223095   2.063  11.589   7.277 -0.0008 -0.2982 -0.9477
 6053SOL     OW23096   5.295   4.248   2.821 -0.0774 -0.3502  0.3079
 6053SOL    HW123097   5.391   4.248   2.816 -0.0344 -0.7220  1.0480
 6053SOL    HW223098   5.276   4.257   2.914 -0.7264 -2.2128  0.4053
 6054SOL     OW23099   1.034   6.013   5.588  0.0049  0.1999  0.2950
 6054SOL    HW123100   1.014   6.102   5.560  0.3402 -0.3882 -1.9878
 6054SOL    HW223101   1.115   6.021   5.639 -0.4807  1.2974  0.9189
 6055SOL     OW23102   5.616   0.205   7.713  0.3508 -0.0320 -0.5844
 6055SOL    HW123103   5.527   0.220   7.682  0.2331  1.0717  0.2241
 6055SOL    HW223104   5.666   0.185   7.633 -0.1498  1.7027 -1.3830
 6056SOL     OW23105   0.313   7.149  10.847 -0.3091 -0.6824 -0.1794
 6056SOL    HW123106   0.339   7.139  10.939 -1.1034  1.4423  0.3270
 6056SOL    HW223107   0.387   7.194  10.806  0.1268 -1.7972 -0.6663
 6057SOL     OW23108   8.570   7.410  11.067 -0.2730  0.3786  0.0752
 6057SOL    HW123109   8.604   7.439  10.982  2.2337  1.8154  1.4341
 6057SOL    HW223110   8.547   7.318  11.054  2.8669 -0.3285 -1.4925
 6058SOL     OW23111   2.427  10.065  11.104 -0.0883 -0.3551 -0.6601
 6058SOL    HW123112   2.504  10.078  11.049  0.6261  2.4408  0.8246
 6058SOL    HW223113   2.424  10.142  11.160 -2.7177 -1.4494  0.8953
 6059SOL     OW23114   8.397   5.361   0.377  0.2439 -0.3321  0.5453
 6059SOL    HW123115   8.449   5.408   0.442  0.1895 -2.0342  1.9267
 6059SOL    HW223116   8.312   5.406   0.376 -0.2389 -1.0490  2.7687
 6060SOL     OW23117   3.451   7.625   7.649 -0.0101 -0.1190 -0.2167
 6060SOL    HW123118   3.503   7.554   7.686  0.2341 -0.2357 -0.7708
 6060SOL    HW223119   3.507   7.702   7.656  0.3889 -0.3155 -1.1439
 6061SOL     OW23120   4.207   1.496   3.119  0.2016  0.0313  0.0384
 6061SOL    HW123121   4.164   1.543   3.047 -1.8332 -0.4610  0.8722
 6061SOL    HW223122   4.252   1.423   3.077 -2.3000 -1.2092 -0.6559
 6062SOL     OW23123   4.042   0.111   6.111 -0.1720 -0.0697 -0.1755
 6062SOL    HW123124   3.949   0.111   6.129 -0.2779  1.4187 -0.5828
 6062SOL    HW223125   4.084   0.098   6.196 -0.7376 -0.1187  0.0963
 6063SOL     OW23126   4.884   9.231   6.484  0.0588  0.0804 -0.0399
 6063SOL    HW123127   4.859   9.298   6.547 -1.3201  0.4103 -0.9060
 6063SOL    HW223128   4.905   9.280   6.404  1.9026 -0.3226  0.1466
 6064SOL     OW23129   5.820   4.747   4.125 -0.1528 -0.3340  0.2202
 6064SOL    HW123130   5.843   4.672   4.180  0.5368 -0.6479 -0.4776
 6064SOL    HW223131   5.812   4.820   4.186 -0.5364 -0.9063  0.8753
 6065SOL     OW23132   6.032   7.917   3.698 -0.5081  0.0912  0.2359
 6065SOL    HW123133   5.966   7.986   3.704 -1.2813 -0.6217  0.0005
 6065SOL    HW223134   6.115   7.965   3.690 -0.8095  0.9983  2.1411
 6066SOL     OW23135   8.304   5.548  11.377  0.6821  0.6223  0.1456
 6066SOL    HW123136   8.279   5.519  11.465 -0.9753 -0.9541 -0.7549
 6066SOL    HW223137   8.373   5.487  11.351 -0.0365 -0.0431 -0.2585
 6067SOL     OW23138   0.187   8.622   6.458  0.5380 -0.6178 -0.3258
 6067SOL    HW123139   0.097   8.620   6.490  0.2447 -0.0920 -1.1099
 6067SOL    HW223140   0.197   8.541   6.409  0.3510 -0.4656 -0.6159
 6068SOL     OW23141  10.653   3.293  10.249  0.2216  0.3433 -0.2565
 6068SOL    HW123142  10.563   3.280  10.221 -0.6105  1.3311  1.8214
 6068SOL    HW223143  10.694   3.339  10.175 -0.9964  0.0520 -1.1500
 6069SOL     OW23144   9.925   1.991  10.681  0.0962  0.0947 -0.4368
 6069SOL    HW123145   9.842   2.022  10.718  0.6142  1.4634 -0.3549
 6069SOL    HW223146   9.937   2.043  10.602 -0.3678 -1.9274 -1.8874
 6070SOL     OW23147   8.037   7.238  10.769  0.1394  0.2751  0.2659
 6070SOL    HW123148   8.108   7.201  10.717  0.5253  0.1846  0.8444
 6070SOL    HW223149   7.976   7.274  10.705  0.3571 -0.2785 -0.2632
 6071SOL     OW23150   5.938   1.068   0.538  0.3521  0.0187  0.1586
 6071SOL    HW123151   6.027   1.038   0.516  0.6299  1.0559 -0.1597
 6071SOL    HW223152   5.938   1.073   0.633  0.4541 -0.5138  0.1931
 6072SOL     OW23153  10.588   2.491   7.061 -0.0705 -0.5845  0.5488
 6072SOL    HW123154  10.672   2.471   7.102  0.0107 -1.9875 -0.2195
 6072SOL    HW223155  10.522   2.466   7.126  0.0784 -1.7885  0.2600
 6073SOL     OW23156   4.926   0.979   7.615 -0.7461 -0.3498 -0.4291
 6073SOL    HW123157   4.849   0.942   7.659  0.1192 -1.0558  0.5587
 6073SOL    HW223158   4.977   0.902   7.590 -0.1062  0.1309 -0.5971
 6074SOL     OW23159  10.949   3.921   3.914 -0.2318 -0.1617  0.2527
 6074SOL    HW123160  10.863   3.953   3.888  0.0834  0.0015 -0.6425
 6074SOL    HW223161  10.947   3.920   4.009 -0.6957  1.3130  0.2835
 6075SOL     OW23162   8.927   0.157   1.969 -0.0841 -0.0542  0.0286
 6075SOL    HW123163   8.960   0.071   1.944 -0.3306  0.2513 -1.4478
 6075SOL    HW223164   9.003   0.215   1.959 -0.2489  0.1135 -0.2576
 6076SOL     OW23165   1.055   3.529  11.291 -0.3247  0.0044 -0.0480
 6076SOL    HW123166   1.027   3.619  11.307 -1.0289 -0.3568  0.8416
 6076SOL    HW223167   1.111   3.508  11.366 -0.6281 -0.4917  0.0396
 6077SOL     OW23168   3.524   2.349   1.014  0.1375 -0.3530 -0.5692
 6077SOL    HW123169   3.575   2.337   0.934 -0.3565  1.0134 -1.0991
 6077SOL    HW223170   3.584   2.393   1.074  0.3454 -0.9347 -0.3358
 6078SOL     OW23171   9.629   5.382   2.794  0.2124 -0.1220  0.6714
 6078SOL    HW123172   9.665   5.440   2.861  3.0991 -1.9312  0.8870
 6078SOL    HW223173   9.615   5.299   2.839  1.0686 -1.0275 -0.6555
 6079SOL     OW23174   5.642   7.116   6.917  0.2294  0.0840 -0.0726
 6079SOL    HW123175   5.639   7.035   6.969 -0.2161  0.8688  1.1727
 6079SOL    HW223176   5.551   7.132   6.893 -0.1290  1.5892  1.9711
 6080SOL     OW23177   5.377   1.753  10.728  0.0480 -0.0824 -0.3286
 6080SOL    HW123178   5.419   1.715  10.651  1.7893 -0.4069  0.7212
 6080SOL    HW223179   5.284   1.755  10.706  0.6623  2.0900 -3.4137
 6081SOL     OW23180   0.450   3.403   5.958  0.3433  0.0080 -0.9334
 6081SOL    HW123181   0.399   3.467   5.908 -2.0152 -0.6647  0.4306
 6081SOL    HW223182   0.513   3.455   6.008 -0.7259  1.1845 -0.7638
 6082SOL     OW23183   6.800   0.338   4.582  0.3148 -0.0270 -0.4118
 6082SOL    HW123184   6.765   0.317   4.669 -1.5338  1.2502 -0.7797
 6082SOL    HW223185   6.722   0.357   4.529  1.3192 -1.8284 -2.6884
 6083SOL     OW23186   4.308   3.264   1.097  0.2335 -0.1684  0.1527
 6083SOL    HW123187   4.365   3.251   1.172 -1.4268 -1.0138  1.3247
 6083SOL    HW223188   4.276   3.354   1.107  1.3065  0.3125 -0.5147
 6084SOL     OW23189   7.936   4.672   6.721  0.5869 -0.3668  0.2016
 6084SOL    HW123190   7.943   4.760   6.758  0.7865 -0.0624 -0.5493
 6084SOL    HW223191   7.931   4.686   6.627  1.9423 -1.2148 -0.0257
 6085SOL     OW23192   4.238   5.595  10.010  0.0456 -0.4710 -0.3252
 6085SOL    HW123193   4.304   5.659  10.038  0.9766 -1.6461  0.2336
 6085SOL    HW223194   4.284   5.512  10.009 -0.7682 -0.9589 -2.4002
 6086SOL     OW23195   5.509   9.834   6.709  0.4680  0.0127 -0.5731
 6086SOL    HW123196   5.473   9.831   6.620  1.3505  0.8045 -0.9801
 6086SOL    HW223197   5.570   9.761   6.712  0.3696 -0.0705 -0.5918
 6087SOL     OW23198   8.572   9.572   8.538 -0.2918  0.6678  0.4467
 6087SOL    HW123199   8.521   9.652   8.524  1.4953  1.7056 -0.4884
 6087SOL    HW223200   8.585   9.567   8.632 -1.8200  0.5483  0.6710
 6088SOL     OW23201   0.598  11.066  11.117 -0.0594 -0.1491  0.4092
 6088SOL    HW123202   0.515  11.106  11.143 -0.1063  1.0983 -1.4525
 6088SOL    HW223203   0.579  10.972  11.115 -0.6329 -0.1291  2.5680
 6089SOL     OW23204   3.922   7.912   1.754  0.0438 -0.6366 -0.0988
 6089SOL    HW123205   3.954   7.834   1.798  0.0669 -0.8686 -0.5200
 6089SOL    HW223206   3.953   7.985   1.808  0.8044 -0.8804 -0.1996
 6090SOL     OW23207   2.921   4.468   8.815 -0.4242  0.0137 -0.2414
 6090SOL    HW123208   2.849   4.519   8.779  0.6896  1.2642 -0.7989
 6090SOL    HW223209   2.943   4.512   8.898 -0.7824 -0.8190  0.3109
 6091SOL     OW23210   8.220  10.184  10.159  0.8872 -0.3220  0.3432
 6091SOL    HW123211   8.145  10.146  10.115 -0.3195  2.2952 -0.0747
 6091SOL    HW223212   8.296  10.150  10.113 -0.2151 -0.1440 -1.7061
 6092SOL     OW23213   9.375   9.351   0.954 -0.6123 -0.1205 -1.0677
 6092SOL    HW123214   9.449   9.293   0.935 -0.5648 -0.7285  0.7897
 6092SOL    HW223215   9.304   9.292   0.978 -0.3256  0.5329  1.6752
 6093SOL     OW23216   7.335   7.668   3.680  0.2712  0.7781 -0.1305
 6093SOL    HW123217   7.310   7.702   3.766  1.2236 -0.0762  0.5107
 6093SOL    HW223218   7.397   7.597   3.700 -0.3666 -0.1988 -1.4731
 6094SOL     OW23219   3.608  10.240   7.038  0.3613 -0.5584  0.1873
 6094SOL    HW123220   3.556  10.189   7.100  0.6529 -0.9795  0.0829
 6094SOL    HW223221   3.697  10.237   7.072  0.2909  0.3448  0.4838
 6095SOL     OW23222   5.127   5.326   6.052 -0.1105 -0.1488 -0.3166
 6095SOL    HW123223   5.193   5.384   6.091  0.4317 -0.4737 -0.7505
 6095SOL    HW223224   5.174   5.245   6.034 -1.0599 -1.0643  1.0934
 6096SOL     OW23225   6.605   6.697   7.920 -0.0019 -0.5538 -0.5991
 6096SOL    HW123226   6.530   6.646   7.888  0.4178 -0.1000 -2.3868
 6096SOL    HW223227   6.659   6.633   7.966 -1.5765 -0.8446  0.9780
 6097SOL     OW23228   3.752   9.397   9.702  0.5905 -0.4334  0.2248
 6097SOL    HW123229   3.661   9.425   9.710 -0.7515 -4.1418  0.2382
 6097SOL    HW223230   3.752   9.339   9.625  2.2632 -2.4643  1.6371
 6098SOL     OW23231   0.339   9.447   6.810  0.0742  0.5522 -0.0936
 6098SOL    HW123232   0.252   9.441   6.769  0.4399  1.6009 -1.0755
 6098SOL    HW223233   0.338   9.380   6.878 -0.8629 -0.6955 -1.2803
 6099SOL     OW23234   9.969   7.674   8.150 -0.5345 -0.9573  0.0016
 6099SOL    HW123235  10.008   7.731   8.084 -0.3210  1.6461  2.1971
 6099SOL    HW223236   9.885   7.714   8.170 -0.4656 -1.5114  1.5026
 6100SOL     OW23237  11.261   0.258   1.679  0.3092 -0.1794 -0.2467
 6100SOL    HW123238  11.357   0.253   1.677  0.2400 -3.1477 -1.1156
 6100SOL    HW223239  11.238   0.245   1.771  0.7101  0.6900 -0.0131
 6101SOL     OW23240   7.306   2.681   6.490 -0.5574 -0.1250  0.3063
 6101SOL    HW123241   7.286   2.636   6.408 -0.9822 -0.3575  0.5393
 6101SOL    HW223242   7.394   2.649   6.513  0.1446  0.9434 -0.7397
 6102SOL     OW23243   4.630   5.801   5.945 -0.4888 -0.4413 -0.4216
 6102SOL    HW123244   4.549   5.846   5.971 -0.1053 -0.1750  0.3157
 6102SOL    HW223245   4.635   5.725   6.003 -0.0467 -0.2870 -0.2564
 6103SOL     OW23246   5.026  11.369   7.570  0.6372 -0.0083  0.1657
 6103SOL    HW123247   4.931  11.358   7.569  0.7607 -1.4134  0.7425
 6103SOL    HW223248   5.056  11.306   7.636  1.9495  0.5983  0.1768
 6104SOL     OW23249  10.324   4.716   7.965 -0.3320 -0.0410  0.1901
 6104SOL    HW123250  10.291   4.798   7.930  0.1161  0.2344  0.4126
 6104SOL    HW223251  10.331   4.658   7.889 -0.4405  0.1942  0.0023
 6105SOL     OW23252   0.696   7.796   6.996 -0.1379 -0.9231  0.6163
 6105SOL    HW123253   0.782   7.811   7.034  1.1612 -2.1082 -1.6203
 6105SOL    HW223254   0.707   7.717   6.943 -2.2188 -0.3318 -0.8155
 6106SOL     OW23255  11.484   5.014   5.834 -0.0454 -0.0044  0.6574
 6106SOL    HW123256  11.473   5.004   5.739  1.1134  0.1691  0.4894
 6106SOL    HW223257  11.414   5.074   5.860  0.6319  1.2830 -0.3770
 6107SOL     OW23258   0.928  10.423   9.256 -0.5499 -0.0035 -0.4375
 6107SOL    HW123259   1.001  10.415   9.195  0.2430  0.2136  0.4588
 6107SOL    HW223260   0.905  10.333   9.278  1.6136 -0.1308  1.7497
 6108SOL     OW23261   4.161   1.093   6.231  0.2724  0.5327 -0.0630
 6108SOL    HW123262   4.254   1.114   6.233  0.2921  0.3925  0.6130
 6108SOL    HW223263   4.119   1.162   6.282 -0.3454  2.2516 -2.6990
 6109SOL     OW23264   9.034   5.708  10.512  0.1607  0.3173 -0.0767
 6109SOL    HW123265   9.129   5.711  10.525  0.1970  0.7958 -0.4328
 6109SOL    HW223266   9.022   5.651  10.436 -0.0397 -2.2798  1.7589
 6110SOL     OW23267   3.781   6.794  10.745  0.7597 -0.2073  0.2813
 6110SOL    HW123268   3.810   6.802  10.836 -1.2436  1.4833  0.8531
 6110SOL    HW223269   3.744   6.880  10.724  0.3917 -0.8315 -1.8462
 6111SOL     OW23270   8.748   1.427   1.980 -0.0275 -0.5587  0.4024
 6111SOL    HW123271   8.762   1.471   2.064  0.9474  0.8108 -0.4303
 6111SOL    HW223272   8.816   1.359   1.978  0.1507 -0.3888  0.5770
 6112SOL     OW23273   4.380   4.456   9.481  0.3072 -0.1809 -0.5686
 6112SOL    HW123274   4.467   4.481   9.511 -0.0410  1.5381 -0.8895
 6112SOL    HW223275   4.356   4.381   9.536  0.5837  1.4489  1.9518
 6113SOL     OW23276   6.110   9.180   0.685 -0.1081  0.2704 -0.8738
 6113SOL    HW123277   6.149   9.235   0.753 -2.0699  0.2285  0.3634
 6113SOL    HW223278   6.106   9.093   0.725  0.6371 -0.2245 -1.8556
 6114SOL     OW23279   3.170   8.727   6.625  0.1631 -0.2663 -0.0864
 6114SOL    HW123280   3.221   8.762   6.698 -0.3793  0.3894 -0.0110
 6114SOL    HW223281   3.236   8.691   6.565  0.6033 -0.9768  0.7953
 6115SOL     OW23282  10.634   9.001   0.401 -0.3761 -0.3796  0.9020
 6115SOL    HW123283  10.559   8.945   0.380  0.2511 -0.2339 -2.0240
 6115SOL    HW223284  10.595   9.079   0.440 -1.4708 -1.5630  2.3215
 6116SOL     OW23285   6.627   8.926   4.034 -0.6455  0.0057 -0.6851
 6116SOL    HW123286   6.612   8.837   4.000 -0.4089 -0.2116 -0.2263
 6116SOL    HW223287   6.703   8.957   3.984  0.4974 -0.7905  0.4913
 6117SOL     OW23288   4.072   7.043   2.219 -0.1587 -0.0617 -0.2887
 6117SOL    HW123289   4.122   7.087   2.149  0.0946 -2.4816 -1.7283
 6117SOL    HW223290   4.102   6.953   2.218 -2.3346 -0.8924  0.9336
 6118SOL     OW23291   3.718   5.998   6.948 -0.1545 -0.4352  0.0199
 6118SOL    HW123292   3.804   5.957   6.958 -0.5549 -0.8453  2.2018
 6118SOL    HW223293   3.732   6.090   6.970 -0.3940 -0.6606  1.1794
 6119SOL     OW23294   3.248   6.319   6.414  0.8955 -0.3420 -0.0176
 6119SOL    HW123295   3.212   6.240   6.454  1.2596 -0.5293 -0.0554
 6119SOL    HW223296   3.341   6.317   6.437  1.4063 -1.1380 -1.9303
 6120SOL     OW23297   6.998   4.893  10.614 -0.0379  0.5821  0.2909
 6120SOL    HW123298   6.993   4.955  10.541  3.0048  0.4596 -0.1539
 6120SOL    HW223299   7.083   4.911  10.655  1.1126 -3.3576  0.0486
 6121SOL     OW23300   1.321  10.248   2.346  0.4010 -0.1250  0.0340
 6121SOL    HW123301   1.294  10.295   2.425 -1.8167  1.8083 -1.7406
 6121SOL    HW223302   1.293  10.158   2.361  0.0859  0.1774  1.4698
 6122SOL     OW23303   5.952   9.326   8.404 -0.4042 -0.0510  0.2019
 6122SOL    HW123304   6.037   9.282   8.400 -0.2311  0.3480 -1.3335
 6122SOL    HW223305   5.896   9.276   8.345 -0.8496  0.4602  0.1790
 6123SOL     OW23306   0.053  10.676   4.301 -0.3368  0.2794  0.2132
 6123SOL    HW123307   0.076  10.769   4.299  0.5698  0.0593  0.2071
 6123SOL    HW223308   0.100  10.641   4.377  1.3190 -0.6776 -1.2090
 6124SOL     OW23309   1.969   3.883   2.082 -0.4985  0.1078  0.1706
 6124SOL    HW123310   1.975   3.804   2.027  0.7497 -0.4350  1.0460
 6124SOL    HW223311   1.981   3.851   2.171  1.5925  1.4362  0.4361
 6125SOL     OW23312  11.551   7.219  10.311  0.0292  0.2514 -0.3903
 6125SOL    HW123313  11.555   7.128  10.340 -1.5950  0.3201  0.1552
 6125SOL    HW223314  11.634   7.234  10.266  0.4052 -1.4288 -0.3054
 6126SOL     OW23315   2.858   6.780   5.797 -0.3605 -0.1488  0.1476
 6126SOL    HW123316   2.880   6.828   5.717  1.1040 -0.7655  0.1578
 6126SOL    HW223317   2.874   6.843   5.868 -2.1956  0.5847 -0.0303
 6127SOL     OW23318   1.745   4.451   5.914 -0.2892  0.3345  0.1465
 6127SOL    HW123319   1.699   4.426   5.834  0.9540  0.3649 -0.6119
 6127SOL    HW223320   1.836   4.463   5.886 -0.0298  1.4122  1.3559
 6128SOL     OW23321  10.967   7.163   0.035 -0.3465  0.2714  0.1645
 6128SOL    HW123322  10.939   7.141   0.124 -0.2542 -0.2744  0.0580
 6128SOL    HW223323  10.886   7.190  -0.009 -0.4655  0.1202  0.2884
 6129SOL     OW23324  11.027   8.512   2.243  0.1831  0.2418  0.2859
 6129SOL    HW123325  11.106   8.470   2.277  1.5987  1.6670 -1.0840
 6129SOL    HW223326  10.956   8.476   2.297  1.9098  0.0556  2.5934
 6130SOL     OW23327   7.725  10.495   9.918  0.1296  0.3674 -0.3774
 6130SOL    HW123328   7.800  10.548   9.890 -0.0043  0.3736 -0.7272
 6130SOL    HW223329   7.692  10.455   9.837 -0.2997  0.4386 -0.2395
 6131SOL     OW23330   6.076   1.152   1.895 -0.0784  0.0521 -0.0268
 6131SOL    HW123331   6.121   1.070   1.910  0.3802  0.3569  0.2898
 6131SOL    HW223332   6.144   1.219   1.903  0.0316  0.3345 -2.4333
 6132SOL     OW23333   7.251   2.916   8.385 -0.2694 -0.3119  0.2012
 6132SOL    HW123334   7.274   2.841   8.439  1.2683  0.6467  0.9528
 6132SOL    HW223335   7.331   2.968   8.380 -0.6448  0.1614 -2.1852
 6133SOL     OW23336   6.786   0.335   4.849 -0.0052  0.0821 -0.2957
 6133SOL    HW123337   6.838   0.312   4.927  0.9446 -0.5695 -1.1023
 6133SOL    HW223338   6.797   0.429   4.840 -0.8598  0.3198  0.8615
 6134SOL     OW23339   5.615   5.569   6.419  0.3303  0.4764  0.5919
 6134SOL    HW123340   5.642   5.537   6.506 -1.9702  0.0736  1.2222
 6134SOL    HW223341   5.527   5.603   6.433 -1.8730 -3.3437 -2.3390
 6135SOL     OW23342  10.033   7.690   0.627  0.0125  0.1251 -0.8898
 6135SOL    HW123343  10.000   7.689   0.717 -1.0989 -1.9964 -1.2533
 6135SOL    HW223344  10.020   7.780   0.598  1.4125  1.1497  1.3853
 6136SOL     OW23345   1.789   6.218   9.994  0.2253 -0.0233 -0.5595
 6136SOL    HW123346   1.792   6.313  10.004  1.7454 -0.1950  0.9599
 6136SOL    HW223347   1.736   6.188  10.068  1.4049 -0.4743  0.1281
 6137SOL     OW23348   3.027   3.585  11.466  0.2475 -0.4727 -0.0016
 6137SOL    HW123349   3.068   3.671  11.479  1.0595 -0.8912  0.2522
 6137SOL    HW223350   2.937   3.606  11.438 -1.6062  0.5462  5.4935
 6138SOL     OW23351   8.096   0.405  10.332 -0.3035  0.4508 -0.0980
 6138SOL    HW123352   8.142   0.466  10.273  1.3669 -1.5124 -0.9535
 6138SOL    HW223353   8.041   0.353  10.274  0.2157 -0.5202  0.2708
 6139SOL     OW23354   1.602   3.539   1.539 -0.4270  0.0667 -0.4751
 6139SOL    HW123355   1.643   3.468   1.491 -0.1864  0.1908 -0.4562
 6139SOL    HW223356   1.511   3.512   1.551 -0.3990 -0.1181 -0.6952
 6140SOL     OW23357   7.417   4.738   3.355  0.3580 -0.3254  0.4811
 6140SOL    HW123358   7.349   4.707   3.415 -1.3305 -0.7039 -1.5386
 6140SOL    HW223359   7.482   4.669   3.354 -0.4667 -1.1209  0.5487
 6141SOL     OW23360  11.251  11.477   0.775  0.5614 -0.4328  0.0211
 6141SOL    HW123361  11.300  11.415   0.721  2.1758  0.1672  0.7119
 6141SOL    HW223362  11.264  11.445   0.865 -0.5679 -0.4119  0.1996
 6142SOL     OW23363  11.211   0.354  10.452  0.7141  0.2709  0.3083
 6142SOL    HW123364  11.228   0.389  10.364 -1.4638  1.4641  0.3059
 6142SOL    HW223365  11.232   0.426  10.510 -2.0344  1.0606  0.4283
 6143SOL     OW23366   7.175   7.922   1.089 -0.0330  0.6923  0.4694
 6143SOL    HW123367   7.141   7.924   1.179  0.2811  0.0488  0.6073
 6143SOL    HW223368   7.224   8.004   1.081  0.7466  0.3069  1.2060
 6144SOL     OW23369  10.957   2.868   1.092 -0.3527  0.0533  0.3508
 6144SOL    HW123370  11.022   2.935   1.071  0.3398 -0.1752  1.6481
 6144SOL    HW223371  10.922   2.840   1.008 -0.3528  1.7373 -0.2537
 6145SOL     OW23372   3.073   6.425   5.480  0.1039 -0.6072  0.0168
 6145SOL    HW123373   3.118   6.341   5.469  0.5629 -0.3395 -0.1631
 6145SOL    HW223374   2.983   6.401   5.500  0.1148 -1.1362 -0.5478
 6146SOL     OW23375   6.133   1.948   9.456  0.0395 -0.1812  0.5401
 6146SOL    HW123376   6.046   1.951   9.416  0.4351  0.0633 -0.3255
 6146SOL    HW223377   6.190   1.912   9.388  0.7345  0.2655  0.8657
 6147SOL     OW23378   1.970   3.329   1.698 -0.4241  0.1724 -0.8433
 6147SOL    HW123379   2.011   3.379   1.628  2.8342 -2.3872 -1.0326
 6147SOL    HW223380   1.926   3.257   1.654 -0.9113  0.1771 -0.3732
 6148SOL     OW23381   0.701   9.655   9.912  0.1638  0.8040 -0.0756
 6148SOL    HW123382   0.793   9.636   9.932  0.2678  0.7778 -0.5576
 6148SOL    HW223383   0.693   9.636   9.819 -0.4558  0.3377  0.0663
 6149SOL     OW23384   3.215   0.557   6.939  0.2350 -0.2128  0.0666
 6149SOL    HW123385   3.263   0.524   7.016  0.1355 -0.2707  0.1038
 6149SOL    HW223386   3.209   0.651   6.954 -0.3394 -0.3045  0.4435
 6150SOL     OW23387  11.326   8.098   2.441 -0.2234 -0.2407  0.1197
 6150SOL    HW123388  11.398   8.042   2.412 -0.0860  1.0618 -2.2871
 6150SOL    HW223389  11.250   8.066   2.392 -0.0482  1.8740 -1.6654
 6151SOL     OW23390   2.621   6.561   2.810 -0.0563 -0.4066 -0.0926
 6151SOL    HW123391   2.561   6.487   2.799 -0.5127  0.1063 -1.3124
 6151SOL    HW223392   2.573   6.635   2.774  0.7783  0.2920  0.2160
 6152SOL     OW23393  10.550   4.105   2.567 -0.4405  0.5749  0.0859
 6152SOL    HW123394  10.468   4.094   2.615 -0.0924 -1.1227  0.3713
 6152SOL    HW223395  10.524   4.143   2.483 -1.5623 -0.1343  0.0902
 6153SOL     OW23396   2.813   8.584   3.833  0.3708  0.1439 -0.1458
 6153SOL    HW123397   2.724   8.557   3.854  1.0055 -0.4525  2.0283
 6153SOL    HW223398   2.810   8.680   3.834 -0.4675  0.1476 -1.2765
 6154SOL     OW23399  10.029   6.081   7.987 -0.3638  0.3364  0.0051
 6154SOL    HW123400  10.040   6.138   8.063 -0.3639  1.1550 -0.5862
 6154SOL    HW223401   9.947   6.035   8.003  0.3785 -0.6133  1.1835
 6155SOL     OW23402   9.996   7.207   9.645 -0.7036  0.0648  0.3228
 6155SOL    HW123403  10.053   7.283   9.631 -1.8088  0.7747 -0.5385
 6155SOL    HW223404   9.983   7.204   9.740 -0.7653  1.0482  0.3584
 6156SOL     OW23405   3.821   1.482   0.716 -0.1758 -0.1359 -0.3754
 6156SOL    HW123406   3.738   1.530   0.723 -1.1472 -1.8285  0.1201
 6156SOL    HW223407   3.883   1.548   0.684 -1.0596  1.8807  1.7015
 6157SOL     OW23408   4.682   4.399   9.177  0.2184  0.4231 -0.2390
 6157SOL    HW123409   4.726   4.314   9.185  0.4322  0.3290 -2.0303
 6157SOL    HW223410   4.731   4.457   9.235  0.4317 -0.5290  0.5564
 6158SOL     OW23411   4.240   9.378   3.325 -0.3866 -0.4234 -1.1898
 6158SOL    HW123412   4.324   9.393   3.282  0.4124 -0.0912  0.4167
 6158SOL    HW223413   4.238   9.284   3.342 -0.1620 -0.3686 -0.8641
 6159SOL     OW23414  10.611  10.969  11.269 -0.6888  0.1028  0.2191
 6159SOL    HW123415  10.670  10.907  11.312  0.3162  0.0851 -1.1179
 6159SOL    HW223416  10.540  10.916  11.234 -1.6562  0.1435  1.9987
 6160SOL     OW23417   4.752   7.321   0.948 -0.4747 -0.0026 -0.3785
 6160SOL    HW123418   4.728   7.322   0.855 -0.9700 -0.1274 -0.2544
 6160SOL    HW223419   4.778   7.411   0.967  0.4536 -0.1602 -0.8452
 6161SOL     OW23420   7.144  11.231  10.635 -0.1493  0.3400 -0.0779
 6161SOL    HW123421   7.114  11.211  10.723  0.1089  1.5557  0.3124
 6161SOL    HW223422   7.079  11.190  10.577  0.8931 -2.4435  0.5723
 6162SOL     OW23423   3.351   3.833   0.787  0.2657  0.5004 -0.4342
 6162SOL    HW123424   3.388   3.803   0.870 -0.9461 -1.0498 -0.4018
 6162SOL    HW223425   3.303   3.913   0.810  1.9674  1.4865 -0.1458
 6163SOL     OW23426   2.961   1.752   2.515  0.0061  0.3271 -0.8014
 6163SOL    HW123427   2.980   1.729   2.606  0.4835 -3.5011 -1.7004
 6163SOL    HW223428   2.888   1.694   2.491  0.1525  0.9758 -2.9785
 6164SOL     OW23429   8.186   3.992  10.186  0.1856 -0.4489 -0.3971
 6164SOL    HW123430   8.273   4.033  10.181 -0.2597  0.4994 -0.5319
 6164SOL    HW223431   8.175   3.949  10.101  0.8618 -1.3021 -0.0732
 6165SOL     OW23432   3.501   4.667   6.319  0.2255  0.1469  0.0293
 6165SOL    HW123433   3.513   4.578   6.353  2.0174 -0.4959 -2.0974
 6165SOL    HW223434   3.551   4.722   6.379  2.5608 -0.8430 -0.9063
 6166SOL     OW23435   8.507   6.720   7.820 -0.7783  0.1222  0.4590
 6166SOL    HW123436   8.435   6.777   7.848 -0.5139  1.1449 -0.8473
 6166SOL    HW223437   8.487   6.636   7.860 -2.2528  0.6031  0.8157
 6167SOL     OW23438   1.920   7.288   6.989 -0.2310  0.1732 -0.2396
 6167SOL    HW123439   2.009   7.282   7.024  0.3503  1.7286 -1.3595
 6167SOL    HW223440   1.871   7.222   7.038  1.7437 -1.4163 -0.2538
 6168SOL     OW23441   7.421  10.976   8.701 -0.1475  0.2412  0.3294
 6168SOL    HW123442   7.349  10.916   8.684 -1.6836  2.2890 -0.9148
 6168SOL    HW223443   7.402  11.013   8.788 -1.6082  1.9717 -0.6544
 6169SOL     OW23444   7.302   4.323  11.658 -0.1562  0.2127 -0.4483
 6169SOL    HW123445   7.285   4.358  11.745  1.3364 -0.4270  0.1320
 6169SOL    HW223446   7.396   4.303  11.658 -0.5976 -2.1341 -1.3409
 6170SOL     OW23447   0.972   4.559   7.180 -0.2357  0.4542 -0.1848
 6170SOL    HW123448   1.059   4.527   7.157 -0.4321  0.3127 -0.7517
 6170SOL    HW223449   0.960   4.533   7.272  0.1409  0.0815 -0.2367
 6171SOL     OW23450   7.900   1.577   1.715  0.1483 -0.5109  0.3145
 6171SOL    HW123451   7.840   1.503   1.707 -0.3035 -0.0882 -0.3081
 6171SOL    HW223452   7.980   1.539   1.751  0.3126 -1.5209 -1.0311
 6172SOL     OW23453   9.146   9.077   8.370 -0.2621 -0.1094  0.0420
 6172SOL    HW123454   9.051   9.080   8.384 -0.1331  0.7239  0.7870
 6172SOL    HW223455   9.173   9.169   8.367  0.4890 -0.3325 -0.4643
 6173SOL     OW23456   3.754   2.016   2.560 -0.0093 -0.4669 -0.2881
 6173SOL    HW123457   3.678   1.972   2.596  0.3316 -0.1482  0.8756
 6173SOL    HW223458   3.738   2.020   2.466 -1.7158  0.1498 -0.0005
 6174SOL     OW23459  11.272   8.616   7.733  0.2978  0.1197 -0.5432
 6174SOL    HW123460  11.350   8.664   7.704 -1.3028  3.3770  0.1925
 6174SOL    HW223461  11.205   8.636   7.668 -0.8129  0.0662  0.5459
 6175SOL     OW23462   3.787   7.905   8.614  0.0014 -0.5285  0.1563
 6175SOL    HW123463   3.726   7.925   8.685 -1.0901 -0.0670 -0.8768
 6175SOL    HW223464   3.856   7.853   8.656  0.4871  1.4504  1.9798
 6176SOL     OW23465  10.022   2.576   9.330 -0.1727  0.2443  0.4917
 6176SOL    HW123466   9.937   2.611   9.356  0.5021  1.3014  1.3822
 6176SOL    HW223467  10.072   2.571   9.412  1.0610  0.9264 -0.1825
 6177SOL     OW23468   3.879   7.748  11.642 -0.5836 -0.2339  0.6649
 6177SOL    HW123469   3.911   7.836  11.626 -0.0881 -0.7734 -1.8824
 6177SOL    HW223470   3.869   7.742  11.737 -0.5268  2.4866  0.9129
 6178SOL     OW23471   5.480   1.649   5.018 -0.1820 -0.0849  0.5033
 6178SOL    HW123472   5.388   1.654   4.992 -0.3767 -0.0955  1.1688
 6178SOL    HW223473   5.521   1.598   4.949 -0.6436  0.0612  0.1114
 6179SOL     OW23474   7.467   0.558  10.104  0.7620  0.7773  0.3776
 6179SOL    HW123475   7.375   0.563  10.080  0.2431  0.2894  2.1625
 6179SOL    HW223476   7.510   0.621  10.045 -0.6794  1.0027 -0.4865
 6180SOL     OW23477   0.650   9.622   0.594  0.9313 -0.3089 -0.3508
 6180SOL    HW123478   0.607   9.708   0.593  1.0756 -0.2267  0.1254
 6180SOL    HW223479   0.599   9.571   0.657 -0.9541 -1.5411 -2.6897
 6181SOL     OW23480   2.926   3.096   9.337 -0.1273 -0.0542 -0.9772
 6181SOL    HW123481   2.900   3.136   9.254 -1.0887 -0.1851 -0.7494
 6181SOL    HW223482   3.006   3.047   9.316  0.0341  0.4838 -1.6602
 6182SOL     OW23483   2.835   6.339   1.533  1.0108  0.5777 -0.3834
 6182SOL    HW123484   2.865   6.430   1.539 -0.4747  1.1256 -0.9605
 6182SOL    HW223485   2.742   6.342   1.551  0.7772 -0.7265 -1.1959
 6183SOL     OW23486   2.076   4.763   6.109 -0.1673  0.2012  0.4190
 6183SOL    HW123487   2.171   4.750   6.109 -0.3690 -1.4542 -0.1284
 6183SOL    HW223488   2.049   4.747   6.019 -0.8253  2.1451  0.2163
 6184SOL     OW23489   2.067   4.041   2.398 -0.0519  0.1172 -0.4570
 6184SOL    HW123490   2.094   4.100   2.468 -1.1010  0.1587 -0.0705
 6184SOL    HW223491   2.038   4.099   2.328  0.4442  0.0719 -0.6995
 6185SOL     OW23492   0.669   0.189   0.735 -0.0422 -0.2882  0.0481
 6185SOL    HW123493   0.712   0.160   0.655 -0.4459 -1.8084  0.3465
 6185SOL    HW223494   0.686   0.283   0.739  1.9342 -0.5728 -0.6193
 6186SOL     OW23495   6.681   9.216  10.844 -0.5578 -0.5042 -0.2552
 6186SOL    HW123496   6.767   9.174  10.849  0.2791  1.1219 -0.0917
 6186SOL    HW223497   6.680   9.278  10.917 -0.7557  1.4268 -1.8102
 6187SOL     OW23498   0.370   9.071  10.465  0.1020 -0.0498  0.4048
 6187SOL    HW123499   0.335   9.144  10.515  1.5502  1.5530 -0.7879
 6187SOL    HW223500   0.352   9.093  10.374  0.0739 -1.4774  0.0297
 6188SOL     OW23501   2.371   9.399   3.584  0.8167 -0.1776  0.2281
 6188SOL    HW123502   2.311   9.473   3.577  2.1555  1.1059  1.6477
 6188SOL    HW223503   2.458   9.437   3.578  1.5394 -1.7984 -0.1918
 6189SOL     OW23504   0.281   2.245   2.399 -0.9491 -0.0720 -0.1663
 6189SOL    HW123505   0.281   2.340   2.383  1.7323 -0.1430 -1.1921
 6189SOL    HW223506   0.270   2.206   2.313 -0.3950 -0.6665  0.0238
 6190SOL     OW23507   2.671   7.769   6.924  0.0556 -0.4519  0.3211
 6190SOL    HW123508   2.648   7.860   6.940 -2.4885 -1.0251  0.3444
 6190SOL    HW223509   2.613   7.741   6.853  2.1385 -1.5517 -1.0416
 6191SOL     OW23510   6.999   9.117   7.691  0.3320 -0.2754  0.3335
 6191SOL    HW123511   6.915   9.140   7.731  0.9827  1.4454  0.7668
 6191SOL    HW223512   7.036   9.052   7.750  0.2728  0.5799  1.3308
 6192SOL     OW23513   2.119   9.330   6.797  0.0385  0.0599  0.3096
 6192SOL    HW123514   2.061   9.323   6.722  0.1596  0.1028  0.2115
 6192SOL    HW223515   2.098   9.254   6.851 -0.0936  0.0636  0.2648
 6193SOL     OW23516   0.798   6.437  11.164  0.2571 -0.1396 -0.7065
 6193SOL    HW123517   0.852   6.455  11.240  0.0119 -2.2449  0.0230
 6193SOL    HW223518   0.709   6.463  11.190  0.4206  0.6426 -0.8879
 6194SOL     OW23519   1.087   8.413   3.900  0.2047 -0.9600 -0.1981
 6194SOL    HW123520   1.019   8.347   3.914 -0.9600  0.2758  0.2163
 6194SOL    HW223521   1.129   8.387   3.819  0.5088 -2.8066  0.5026
 6195SOL     OW23522  10.307   9.696  10.721  0.0590  0.4998  0.3334
 6195SOL    HW123523  10.259   9.661  10.646  1.4060  0.5986 -0.6191
 6195SOL    HW223524  10.335   9.783  10.693 -0.5704  1.1018  1.4932
 6196SOL     OW23525   2.228   3.542   8.986 -0.3971 -0.0202  0.2063
 6196SOL    HW123526   2.154   3.486   8.964 -1.3497  1.3426 -0.2249
 6196SOL    HW223527   2.189   3.628   9.000  1.0135  0.5472  0.8197
 6197SOL     OW23528   2.278   3.768   4.668  0.1218 -0.5310 -0.3655
 6197SOL    HW123529   2.256   3.808   4.584 -1.8604 -1.9932 -0.5944
 6197SOL    HW223530   2.210   3.704   4.683  0.6041 -0.5405  2.2366
 6198SOL     OW23531   3.005   8.275   6.398 -0.5352  0.2184 -0.4849
 6198SOL    HW123532   3.039   8.193   6.362 -1.1467  0.1264 -0.8654
 6198SOL    HW223533   3.014   8.266   6.492  1.3579  0.5757 -0.5921
 6199SOL     OW23534   1.505   3.401   9.047 -0.1749 -0.0160  0.0912
 6199SOL    HW123535   1.545   3.488   9.049  0.7937 -0.4272 -0.7584
 6199SOL    HW223536   1.577   3.340   9.062 -0.4655 -0.7702 -1.4055
 6200SOL     OW23537   7.605   9.942   0.237  0.7617  0.1872  0.0875
 6200SOL    HW123538   7.615   9.990   0.319 -1.2005 -0.4067  0.7000
 6200SOL    HW223539   7.692   9.905   0.221  1.1310  0.1325  1.9974
 6201SOL     OW23540   0.213  10.079   9.268  0.1113 -0.7246 -0.2299
 6201SOL    HW123541   0.148  10.013   9.293  0.7833 -0.7817  1.4912
 6201SOL    HW223542   0.189  10.156   9.320  0.8673 -0.4630 -0.2640
 6202SOL     OW23543   5.337   7.826  11.176 -0.2210  0.0393  0.6872
 6202SOL    HW123544   5.389   7.857  11.102 -0.8609  0.8553  0.5685
 6202SOL    HW223545   5.272   7.767  11.136 -2.1020  2.2856  0.2085
 6203SOL     OW23546  11.376   1.908   6.029  0.2804 -0.2258 -0.4490
 6203SOL    HW123547  11.325   1.887   6.107  1.9024  0.1513  0.7551
 6203SOL    HW223548  11.429   1.984   6.053  0.1845  0.4686 -2.2192
 6204SOL     OW23549   2.920  10.715   1.454  0.4752 -0.3117  0.2010
 6204SOL    HW123550   2.857  10.679   1.392  0.7965  2.6409 -2.0427
 6204SOL    HW223551   3.003  10.715   1.407  1.0087  0.8429  1.0888
 6205SOL     OW23552   8.165   3.771  10.966  0.4563  0.1669  0.1005
 6205SOL    HW123553   8.074   3.779  10.996  0.2004  0.2269 -0.6668
 6205SOL    HW223554   8.164   3.807  10.877  1.3273  0.5917  0.2482
 6206SOL     OW23555   1.932   8.504   4.254  0.5522 -0.0950  0.2702
 6206SOL    HW123556   2.009   8.447   4.263 -0.6068 -1.7157  0.3287
 6206SOL    HW223557   1.866   8.449   4.211 -0.2974  1.5428 -0.5980
 6207SOL     OW23558   5.808  10.566   3.405  0.3640  0.4623  0.6055
 6207SOL    HW123559   5.890  10.615   3.399  0.3418  0.3881 -0.7913
 6207SOL    HW223560   5.821  10.490   3.348 -0.3872  0.0269  0.9979
 6208SOL     OW23561   4.150  10.089   1.128 -0.0799  0.0257  0.1325
 6208SOL    HW123562   4.182  10.009   1.086  0.1630  0.4737 -0.5565
 6208SOL    HW223563   4.057  10.092   1.107  0.0322  0.2263 -0.3564
 6209SOL     OW23564   4.536   8.136   6.416 -0.5500 -0.4916  0.3093
 6209SOL    HW123565   4.547   8.045   6.388 -0.4836 -0.2398 -0.5320
 6209SOL    HW223566   4.625   8.165   6.438 -0.7659 -1.0639  2.0426
 6210SOL     OW23567   0.030   8.471   0.284  0.1580 -0.2307  0.1567
 6210SOL    HW123568   0.032   8.501   0.193 -0.5502 -0.8600 -0.0762
 6210SOL    HW223569  -0.063   8.466   0.306  0.3228 -0.1997  0.8768
 6211SOL     OW23570   3.618  10.087   3.334  0.4085  0.2615  0.6310
 6211SOL    HW123571   3.556  10.141   3.285 -0.1147  0.5736  1.5968
 6211SOL    HW223572   3.695  10.082   3.278 -1.2489 -2.0515 -1.6789
 6212SOL     OW23573   5.508   5.237   2.679  0.4078  0.3112  0.0910
 6212SOL    HW123574   5.477   5.286   2.755 -1.7002  0.1648 -0.6139
 6212SOL    HW223575   5.520   5.148   2.711 -3.3270 -0.4683 -0.2783
 6213SOL     OW23576   2.327   0.418   1.344  0.6884 -0.7671  0.1185
 6213SOL    HW123577   2.281   0.349   1.296 -2.1773 -0.7292  2.5337
 6213SOL    HW223578   2.282   0.498   1.319  1.9379 -0.1609 -0.2741
 6214SOL     OW23579   9.570   5.287   4.934 -0.1071 -0.0761 -0.4329
 6214SOL    HW123580   9.640   5.352   4.939  0.1073 -0.2526 -1.0467
 6214SOL    HW223581   9.558   5.271   4.840  0.6657 -1.8150 -0.2764
 6215SOL     OW23582  10.270   7.892   0.289  0.2257  0.4108  0.3488
 6215SOL    HW123583  10.261   7.921   0.380  1.7476 -0.5036  0.8294
 6215SOL    HW223584  10.190   7.842   0.272 -0.6365  1.5943  0.7579
 6216SOL     OW23585   0.156   0.931   8.428 -0.4679  0.6561  0.3232
 6216SOL    HW123586   0.174   0.900   8.517 -1.8029  0.6931  0.6301
 6216SOL    HW223587   0.061   0.943   8.426 -0.4499  0.6942 -1.1063
 6217SOL     OW23588   1.414   7.399   8.029 -0.1036  0.0179  0.5902
 6217SOL    HW123589   1.396   7.404   8.123  0.3351  0.1474  0.6669
 6217SOL    HW223590   1.509   7.400   8.022 -0.1258 -0.3019  0.1600
 6218SOL     OW23591   1.330   5.564   2.860 -0.3159 -0.3700  0.1246
 6218SOL    HW123592   1.331   5.659   2.849 -1.4226 -0.3442  0.1722
 6218SOL    HW223593   1.414   5.535   2.824  0.2351  0.6610  0.5179
 6219SOL     OW23594   6.729   9.862   3.024  0.5782  0.5301 -0.6467
 6219SOL    HW123595   6.703   9.775   3.052 -0.4943  1.2555  0.7429
 6219SOL    HW223596   6.646   9.908   3.008  1.1030  1.4923 -0.6933
 6220SOL     OW23597   1.404   6.289   6.293  0.1272  0.2277 -0.4427
 6220SOL    HW123598   1.394   6.361   6.355 -1.0089  0.7473 -1.1775
 6220SOL    HW223599   1.324   6.237   6.304  0.8611 -0.8539 -0.0327
 6221SOL     OW23600   2.741   2.916   7.507 -0.4059 -0.1649 -0.6857
 6221SOL    HW123601   2.785   2.870   7.578 -0.4082 -0.1934 -0.7028
 6221SOL    HW223602   2.798   2.904   7.431 -0.3916 -0.1145 -0.6835
 6222SOL     OW23603   4.306  11.191   0.324 -0.2149 -0.1725 -0.5326
 6222SOL    HW123604   4.350  11.146   0.252  0.5351  0.2439 -0.3409
 6222SOL    HW223605   4.375  11.242   0.367 -1.1127  1.5384 -1.0204
 6223SOL     OW23606   0.373   4.555   5.616 -0.2212  0.0589  0.0153
 6223SOL    HW123607   0.369   4.482   5.555  0.1430  1.4507 -1.7271
 6223SOL    HW223608   0.314   4.529   5.688  1.8301 -3.0430  0.7711
 6224SOL     OW23609   2.932   9.738   0.804 -0.0490  0.1975 -0.0988
 6224SOL    HW123610   2.863   9.701   0.858  1.9243 -0.1058  2.3905
 6224SOL    HW223611   3.011   9.689   0.828  1.7786  2.9315 -0.0190
 6225SOL     OW23612   9.507   5.344  10.662 -0.2749  0.5140  0.1194
 6225SOL    HW123613   9.560   5.266  10.644 -0.6718 -0.2013  1.8622
 6225SOL    HW223614   9.565   5.417  10.641  0.6535 -0.2463 -0.0648
 6226SOL     OW23615  10.695   2.716   9.326 -0.5144 -0.3179 -0.5413
 6226SOL    HW123616  10.656   2.766   9.397 -0.1177 -0.7687 -0.0019
 6226SOL    HW223617  10.780   2.687   9.359 -0.2054 -0.3118 -1.2909
 6227SOL     OW23618  10.160  11.197   6.985  0.6256  0.5437 -0.0813
 6227SOL    HW123619  10.161  11.218   6.892  1.8483 -0.7013 -0.3814
 6227SOL    HW223620  10.102  11.262   7.024 -0.2079  0.8526 -1.7590
 6228SOL     OW23621   1.387   2.870   3.969  0.0545 -0.4515 -0.0082
 6228SOL    HW123622   1.333   2.944   3.946  0.5566 -0.2074 -0.4211
 6228SOL    HW223623   1.418   2.835   3.885  1.4951  0.1489  0.2336
 6229SOL     OW23624   3.066   7.468   1.663 -0.2561  0.1026  0.6832
 6229SOL    HW123625   3.150   7.425   1.648  0.4818  2.1569 -1.8329
 6229SOL    HW223626   3.085   7.536   1.728  0.3028  1.1118 -0.4916
 6230SOL     OW23627   5.177   8.185   3.833  0.2612 -0.2965 -0.4230
 6230SOL    HW123628   5.271   8.192   3.852  0.5162  0.2239 -1.7645
 6230SOL    HW223629   5.134   8.203   3.917  1.3490 -0.0524  0.0972
 6231SOL     OW23630   5.959  11.452   8.443  0.4108 -0.3779  0.0726
 6231SOL    HW123631   5.956  11.427   8.536 -0.3154 -1.5686 -0.2469
 6231SOL    HW223632   6.032  11.401   8.407  1.7449  1.3002  0.2982
 6232SOL     OW23633  10.696  11.216   1.912 -0.6224  0.8855  0.0316
 6232SOL    HW123634  10.648  11.262   1.981 -1.0382  0.1675  0.2293
 6232SOL    HW223635  10.705  11.127   1.944  0.1055  0.8000 -0.3884
 6233SOL     OW23636   7.544   7.253   3.872  0.4943  0.1109  0.5127
 6233SOL    HW123637   7.524   7.161   3.860 -2.4995  0.8542 -1.1121
 6233SOL    HW223638   7.617   7.271   3.813  0.9708 -1.1578  0.7050
 6234SOL     OW23639   1.566   0.896  10.900 -0.2235  0.5311  0.2655
 6234SOL    HW123640   1.505   0.970  10.900  0.7126  1.3325 -0.3210
 6234SOL    HW223641   1.648   0.933  10.866  0.2402 -0.7995 -0.1064
 6235SOL     OW23642  10.823   4.885  11.222  0.0608 -0.4468 -0.1698
 6235SOL    HW123643  10.804   4.910  11.131 -1.3042 -2.4451 -0.4951
 6235SOL    HW223644  10.749   4.918  11.272  0.8078  0.6443  0.2341
 6236SOL     OW23645   0.454   9.552  10.384  0.2282 -0.1172 -0.1435
 6236SOL    HW123646   0.427   9.613  10.452 -0.1771 -1.4766  0.9527
 6236SOL    HW223647   0.541   9.583  10.357  1.0088 -0.3452  1.9680
 6237SOL     OW23648   9.232   7.406   3.993 -0.6039  0.1678 -0.5070
 6237SOL    HW123649   9.302   7.470   3.977 -1.8272  1.6170 -0.3335
 6237SOL    HW223650   9.248   7.374   4.081 -2.4544  3.7164  1.3470
 6238SOL     OW23651   1.281   5.613  11.617  0.2435 -0.0460  0.2714
 6238SOL    HW123652   1.310   5.596  11.706  0.4496  0.4583  0.3062
 6238SOL    HW223653   1.333   5.689  11.589 -0.7324  0.6039  0.1845
 6239SOL     OW23654   0.675   6.472   2.590 -0.2004 -0.1726  0.5366
 6239SOL    HW123655   0.637   6.490   2.504  1.2475 -0.3700 -0.1861
 6239SOL    HW223656   0.681   6.557   2.633 -2.1922 -0.2365  1.0293
 6240SOL     OW23657   6.750   9.270   3.381 -0.5464 -0.6486  0.1584
 6240SOL    HW123658   6.791   9.195   3.338 -0.1533  0.2155 -1.0115
 6240SOL    HW223659   6.656   9.254   3.372 -0.4708 -1.1472  0.2011
 6241SOL     OW23660   3.942   5.561   8.956 -0.3915 -0.1749 -0.0106
 6241SOL    HW123661   3.872   5.544   8.894 -0.1080  0.4655 -0.5285
 6241SOL    HW223662   3.936   5.655   8.974 -0.5126 -0.3697  0.9876
 6242SOL     OW23663   9.323   6.138   3.845  0.0531 -0.1964  0.5181
 6242SOL    HW123664   9.303   6.051   3.880  0.4041  0.4422  2.4330
 6242SOL    HW223665   9.394   6.124   3.783 -0.6479 -1.4006 -0.0449
 6243SOL     OW23666   0.418   8.934   2.761 -0.0535 -0.4099 -0.7069
 6243SOL    HW123667   0.330   8.912   2.791 -0.0122  0.5984  0.2495
 6243SOL    HW223668   0.404   8.988   2.683 -0.2912 -0.3639 -0.6347
 6244SOL     OW23669  10.484   1.343   2.867  0.1605  0.3659 -0.7097
 6244SOL    HW123670  10.464   1.390   2.787  1.3775  1.5299 -0.3720
 6244SOL    HW223671  10.573   1.309   2.853  0.0935 -0.0558 -0.1524
 6245SOL     OW23672  10.705   8.831   7.695 -0.4975 -0.0468  0.5945
 6245SOL    HW123673  10.634   8.827   7.631  0.9087 -0.3318 -1.0079
 6245SOL    HW223674  10.752   8.748   7.684  2.5899  1.7662 -1.4376
 6246SOL     OW23675   1.249   4.749   8.210 -0.0517  0.5228  0.2494
 6246SOL    HW123676   1.244   4.817   8.143  0.6402 -1.6097 -2.1035
 6246SOL    HW223677   1.341   4.720   8.208 -0.5297 -1.0859  0.5356
 6247SOL     OW23678   9.980   7.024   1.991  0.0866 -0.2208 -0.0796
 6247SOL    HW123679  10.057   7.078   1.975 -1.3017  2.2997  1.1623
 6247SOL    HW223680   9.980   7.010   2.086  1.0520 -3.6000 -0.4512
 6248SOL     OW23681  11.250   8.134   6.873  0.9468  0.3981 -0.2129
 6248SOL    HW123682  11.274   8.103   6.960  1.2776  1.1354 -0.0329
 6248SOL    HW223683  11.260   8.057   6.816 -0.7456 -0.4874  0.6397
 6249SOL     OW23684   0.067   5.065  10.286  0.0708 -0.1871  0.0679
 6249SOL    HW123685   0.067   5.056  10.381  1.1285 -0.5756  0.0417
 6249SOL    HW223686   0.145   5.117  10.266 -0.8375  1.0165 -0.5125
 6250SOL     OW23687   8.547   3.414   5.677 -0.1624 -0.1062  0.8010
 6250SOL    HW123688   8.636   3.450   5.667 -0.1471 -0.4173 -0.3399
 6250SOL    HW223689   8.555   3.323   5.648 -1.3164  0.4987 -1.6801
 6251SOL     OW23690   0.545   2.772   3.631  0.3469  0.1893 -0.0064
 6251SOL    HW123691   0.581   2.689   3.601  2.0231  0.8857 -0.0478
 6251SOL    HW223692   0.538   2.826   3.552  0.5635  0.5319  0.2042
 6252SOL     OW23693   6.863   1.415   1.119  0.0556  0.1293  0.0895
 6252SOL    HW123694   6.780   1.398   1.073  0.1643  2.3758 -1.1055
 6252SOL    HW223695   6.920   1.343   1.094 -0.9874 -0.5144 -0.5157
 6253SOL     OW23696  10.694   6.902   9.775 -0.6001  0.3462 -0.4814
 6253SOL    HW123697  10.659   6.883   9.688  2.6535 -0.2231 -1.7924
 6253SOL    HW223698  10.642   6.976   9.805 -2.7439 -0.3078 -2.2860
 6254SOL     OW23699   6.123  11.230   3.330  0.3321 -0.1476  0.3084
 6254SOL    HW123700   6.109  11.306   3.274  1.2936 -1.0490 -1.2430
 6254SOL    HW223701   6.174  11.169   3.275 -0.2652 -1.8366  1.5440
 6255SOL     OW23702  10.753   8.202   9.859 -0.2979 -0.3902  0.3770
 6255SOL    HW123703  10.753   8.240   9.947 -0.1814 -0.1386  0.2684
 6255SOL    HW223704  10.692   8.128   9.866 -0.9231  0.1181  0.4628
 6256SOL     OW23705   7.837  11.036   6.731 -0.2933  0.3087  0.1639
 6256SOL    HW123706   7.761  10.979   6.746 -0.8560  0.7252 -0.9848
 6256SOL    HW223707   7.913  10.980   6.746 -0.8328 -0.6895 -0.7170
 6257SOL     OW23708   3.624  10.477   1.647 -0.4381  0.0895  0.3734
 6257SOL    HW123709   3.658  10.549   1.595  0.1679  0.5905  1.4182
 6257SOL    HW223710   3.530  10.493   1.651 -0.8018 -1.0028 -2.0808
 6258SOL     OW23711   8.410   5.138   1.045 -0.2100  0.1605 -0.4730
 6258SOL    HW123712   8.486   5.186   1.077 -0.0539 -0.8912  0.8094
 6258SOL    HW223713   8.439   5.047   1.039 -1.2452 -0.1914 -0.3301
 6259SOL     OW23714   3.152   6.170   8.043  0.1328  1.0610 -0.1206
 6259SOL    HW123715   3.149   6.210   8.130  0.7187  1.3380 -0.2254
 6259SOL    HW223716   3.242   6.140   8.034 -0.6971 -2.2617  0.8488
 6260SOL     OW23717   3.748   2.725   6.927  0.4003 -0.1223  0.4961
 6260SOL    HW123718   3.675   2.783   6.952  0.1615 -0.1780 -0.0448
 6260SOL    HW223719   3.806   2.725   7.003  0.0331  0.2434  0.7836
 6261SOL     OW23720   7.072   6.288   9.200  0.2005  0.1075  0.2622
 6261SOL    HW123721   6.996   6.234   9.220  0.4819 -0.0696  0.8575
 6261SOL    HW223722   7.110   6.310   9.285  0.9196  0.0414 -0.0309
 6262SOL     OW23723  10.589   1.814   2.636 -0.1031  0.1751 -0.0098
 6262SOL    HW123724  10.627   1.819   2.723  0.4738  0.8923 -0.2896
 6262SOL    HW223725  10.495   1.800   2.650  0.0388 -0.0559  0.7096
 6263SOL     OW23726   4.121   9.626   8.351  0.5616  0.9378  0.3543
 6263SOL    HW123727   4.046   9.684   8.364 -0.5908 -0.9259  2.6967
 6263SOL    HW223728   4.191   9.667   8.402 -0.0143  0.7313  1.3465
 6264SOL     OW23729   8.711   4.197   0.269  0.5579 -0.2886 -1.0061
 6264SOL    HW123730   8.644   4.169   0.330  0.2746  0.4517 -0.9694
 6264SOL    HW223731   8.679   4.168   0.183  1.0739 -1.5464 -0.8077
 6265SOL     OW23732   1.366   4.772   0.536 -0.3044 -0.0508  0.4896
 6265SOL    HW123733   1.315   4.842   0.578  0.3582  1.4448 -1.0919
 6265SOL    HW223734   1.316   4.751   0.457  0.8515  0.5853 -0.4450
 6266SOL     OW23735   6.074   4.585   2.230  0.5583  0.1670  0.2177
 6266SOL    HW123736   6.006   4.532   2.272  1.2227  0.3768  1.6437
 6266SOL    HW223737   6.155   4.536   2.245  1.0230  1.0100  0.5573
 6267SOL     OW23738   0.961   7.530   3.773 -0.0672 -0.3941  0.0751
 6267SOL    HW123739   0.985   7.472   3.846  0.9309 -0.1642 -0.0484
 6267SOL    HW223740   0.961   7.618   3.812  0.1821 -0.3006 -0.1334
 6268SOL     OW23741   9.207   7.606   1.948 -0.1597 -0.1890 -0.0788
 6268SOL    HW123742   9.230   7.554   2.025 -0.9901 -0.8835 -0.2821
 6268SOL    HW223743   9.289   7.616   1.900  0.6110  1.1947  1.4164
 6269SOL     OW23744   4.006   4.963   1.557  0.3932  0.0841 -0.2111
 6269SOL    HW123745   4.074   4.988   1.495  1.0379 -0.0362  0.4379
 6269SOL    HW223746   4.019   5.021   1.632  0.1513 -0.3314  0.1592
 6270SOL     OW23747  10.807   1.232   0.563  0.0317 -0.6013  0.8345
 6270SOL    HW123748  10.859   1.196   0.492 -1.3015 -0.3571 -0.3054
 6270SOL    HW223749  10.845   1.318   0.580 -0.4179 -0.1186 -0.4879
 6271SOL     OW23750   8.007   8.647   6.537 -0.3350 -0.8547 -0.1542
 6271SOL    HW123751   7.935   8.669   6.596 -0.4518 -0.2537 -0.5079
 6271SOL    HW223752   8.085   8.681   6.581 -0.5374  0.4987 -0.7883
 6272SOL     OW23753   2.463   8.578   2.336 -0.0413  0.2094 -0.3925
 6272SOL    HW123754   2.418   8.662   2.342  1.3782  0.9302  1.2339
 6272SOL    HW223755   2.399   8.519   2.297 -1.8281  1.5269  0.3795
 6273SOL     OW23756   9.473   5.903   9.784  0.0245 -0.5872 -0.7472
 6273SOL    HW123757   9.400   5.885   9.725 -1.1325  0.6191  0.2626
 6273SOL    HW223758   9.473   5.831   9.846 -1.0534 -0.0331 -0.0759
 6274SOL     OW23759   6.864   5.776  10.743 -0.3916  0.1461  0.2584
 6274SOL    HW123760   6.870   5.870  10.754  0.9790 -0.0566  1.6078
 6274SOL    HW223761   6.771   5.759  10.730 -0.6357  1.6845 -0.1571
 6275SOL     OW23762   4.436   0.820   1.962  0.4970  0.2729 -0.4857
 6275SOL    HW123763   4.390   0.850   1.883 -0.0045  0.6233 -0.0672
 6275SOL    HW223764   4.436   0.725   1.955  0.7035  0.3078 -1.0454
 6276SOL     OW23765  11.389   1.316  10.393  0.4042  0.2425 -0.3208
 6276SOL    HW123766  11.375   1.299  10.486  1.4501  0.3797 -0.1268
 6276SOL    HW223767  11.305   1.294  10.352 -0.3882  1.1049  0.7694
 6277SOL     OW23768  10.932   7.881   5.613  0.5743 -0.4936 -0.4442
 6277SOL    HW123769  10.931   7.922   5.699 -2.7653  1.3461 -1.1709
 6277SOL    HW223770  10.962   7.950   5.554 -0.9137 -0.4189 -1.1663
 6278SOL     OW23771   2.097   2.153   0.430  0.0454  0.4642 -0.0094
 6278SOL    HW123772   2.174   2.210   0.438 -0.2289  1.4292 -3.0702
 6278SOL    HW223773   2.029   2.210   0.394 -1.4941 -0.8927  0.6183
 6279SOL     OW23774   2.697   7.302   5.313  0.0831  0.1934  0.1638
 6279SOL    HW123775   2.704   7.215   5.274  0.0857 -1.0640  2.7437
 6279SOL    HW223776   2.751   7.358   5.257  0.3568 -1.5030 -1.3843
 6280SOL     OW23777   4.174   5.159   4.599 -0.0880 -0.5902 -0.3558
 6280SOL    HW123778   4.176   5.095   4.670  1.5215 -0.9909 -0.7320
 6280SOL    HW223779   4.083   5.156   4.568 -0.1614 -2.4334 -0.1253
 6281SOL     OW23780  11.071   1.575   2.485  0.8885  0.1492  0.0953
 6281SOL    HW123781  11.005   1.621   2.432  1.2170  2.6166  1.6978
 6281SOL    HW223782  11.064   1.484   2.456 -0.0341  1.0634 -3.0363
 6282SOL     OW23783   4.637   9.038   2.786 -0.0651  0.7355 -0.0904
 6282SOL    HW123784   4.677   9.125   2.785 -0.5868  0.9920  0.5650
 6282SOL    HW223785   4.627   9.017   2.879 -0.1378  0.0670 -0.2455
 6283SOL     OW23786   9.514   0.442   3.196 -0.2699  0.1829 -0.0219
 6283SOL    HW123787   9.598   0.404   3.221 -1.2886 -2.9182 -0.9384
 6283SOL    HW223788   9.518   0.532   3.230  2.2473 -0.7227  2.4711
 6284SOL     OW23789   3.853   2.447   9.550  0.6951  0.3530 -0.4008
 6284SOL    HW123790   3.935   2.490   9.527  1.2575  0.8821  2.2566
 6284SOL    HW223791   3.797   2.518   9.583 -0.3869 -0.1949 -0.9863
 6285SOL     OW23792   5.377   4.459   4.819 -0.3428  0.3534 -0.2884
 6285SOL    HW123793   5.293   4.441   4.777  0.3054 -0.8653 -1.1013
 6285SOL    HW223794   5.370   4.418   4.906 -0.0088 -1.1924 -0.9690
 6286SOL     OW23795   3.015   0.672  11.519 -0.7653  0.1276  0.3148
 6286SOL    HW123796   2.919   0.672  11.524 -0.7806  0.3861  0.0212
 6286SOL    HW223797   3.044   0.679  11.610 -1.0302  0.8481  0.3474
 6287SOL     OW23798   8.123   8.686   1.987 -0.5274 -0.4049  0.4289
 6287SOL    HW123799   8.211   8.658   1.961 -0.4371  0.4208 -0.1962
 6287SOL    HW223800   8.082   8.607   2.022 -0.7434 -1.6921 -2.4667
 6288SOL     OW23801   7.506  10.322   8.249 -0.5258 -0.1634  0.4029
 6288SOL    HW123802   7.525  10.408   8.212 -3.1571  0.1851 -0.3413
 6288SOL    HW223803   7.553  10.261   8.192  0.1082  0.6953 -0.0172
 6289SOL     OW23804   0.898   8.052   4.538 -0.5569  0.0796  0.3502
 6289SOL    HW123805   0.816   8.004   4.542 -1.0217  0.6765 -1.1734
 6289SOL    HW223806   0.891   8.105   4.458  0.6510  1.3383  1.0235
 6290SOL     OW23807   6.169   1.658   2.894 -0.3920 -0.4054 -0.2620
 6290SOL    HW123808   6.165   1.563   2.882 -3.1631 -0.4368  0.2136
 6290SOL    HW223809   6.162   1.671   2.989 -1.5219  0.2537 -0.4073
 6291SOL     OW23810   2.372   3.786  10.653 -0.0602  0.3701 -0.0659
 6291SOL    HW123811   2.378   3.878  10.628 -0.5973  0.5493  0.4373
 6291SOL    HW223812   2.288   3.757  10.617 -0.0521  0.1703  0.0739
 6292SOL     OW23813  11.619   9.783   0.933 -0.3646 -0.0344  0.2212
 6292SOL    HW123814  11.627   9.710   0.873  0.0952  0.0846  0.1352
 6292SOL    HW223815  11.555   9.754   0.998  0.2589 -0.7517  0.5321
 6293SOL     OW23816   5.334   8.284   3.498 -0.2727  0.3489  0.1411
 6293SOL    HW123817   5.347   8.322   3.411 -0.7058 -2.2364 -1.1370
 6293SOL    HW223818   5.396   8.332   3.554  1.0099  1.1660 -1.8564
 6294SOL     OW23819   7.058   8.138   5.240 -0.1089 -0.3108 -0.6364
 6294SOL    HW123820   7.076   8.169   5.151 -1.2197 -0.7308 -1.0312
 6294SOL    HW223821   7.050   8.218   5.292  4.1346 -0.0393 -0.0599
 6295SOL     OW23822   1.572   6.467  10.530 -0.5266  0.2562  0.0074
 6295SOL    HW123823   1.650   6.519  10.514 -0.4911  0.3368  0.4398
 6295SOL    HW223824   1.595   6.410  10.604 -0.1249 -1.2738 -1.2402
 6296SOL     OW23825  10.719   4.640   0.549 -0.1931 -0.4081 -0.0989
 6296SOL    HW123826  10.756   4.686   0.474 -0.0758 -0.1650  0.1060
 6296SOL    HW223827  10.670   4.707   0.597 -4.2842 -1.4215 -2.4110
 6297SOL     OW23828  10.848   5.689   3.514  0.2495  0.2239 -0.1266
 6297SOL    HW123829  10.819   5.601   3.537  0.9178  0.0799  0.2146
 6297SOL    HW223830  10.876   5.727   3.598  1.1943  0.2777 -0.4522
 6298SOL     OW23831   6.468   9.727   9.274 -0.0075  0.2011  0.0100
 6298SOL    HW123832   6.505   9.662   9.334 -0.1624 -1.1971 -1.3391
 6298SOL    HW223833   6.425   9.675   9.207 -0.2019  1.7287 -1.0906
 6299SOL     OW23834   8.800   2.174   3.030  0.1497  0.1595 -0.3649
 6299SOL    HW123835   8.809   2.174   3.125 -0.8889 -1.4967 -0.2366
 6299SOL    HW223836   8.766   2.261   3.009 -1.7526 -0.1946  1.0244
 6300SOL     OW23837   7.402   6.167   3.848 -0.6524  0.0690 -0.2206
 6300SOL    HW123838   7.440   6.255   3.851 -1.2123  0.2916  1.2186
 6300SOL    HW223839   7.472   6.110   3.881 -1.0154  0.2710  0.9216
 6301SOL     OW23840   0.453   4.211  10.043 -0.1500  0.3556 -0.2044
 6301SOL    HW123841   0.425   4.266   9.970 -0.2903 -0.7172 -0.9742
 6301SOL    HW223842   0.458   4.123  10.007  1.4494  0.0580  0.6451
 6302SOL     OW23843   4.551   6.499  11.171 -0.0459 -0.3245  0.2584
 6302SOL    HW123844   4.485   6.449  11.219 -0.0042  0.6147  1.3281
 6302SOL    HW223845   4.515   6.588  11.166  0.6849 -0.0369 -0.0496
 6303SOL     OW23846   2.262   9.001   1.823 -0.3379 -0.3961 -0.2486
 6303SOL    HW123847   2.346   8.967   1.792 -0.8131 -0.8607 -1.0847
 6303SOL    HW223848   2.201   8.929   1.809 -1.0090  0.1752 -0.3231
 6304SOL     OW23849   2.830   4.109   5.289 -0.7107  0.1724  0.2104
 6304SOL    HW123850   2.854   4.054   5.362 -0.2908 -0.8918 -0.6996
 6304SOL    HW223851   2.746   4.147   5.313 -0.8620 -0.6383  0.9704
 6305SOL     OW23852   8.651   0.201   4.457 -0.4119 -0.3864  0.3652
 6305SOL    HW123853   8.573   0.183   4.405  0.6625  0.2191 -1.5426
 6305SOL    HW223854   8.682   0.115   4.485 -0.8862 -0.7504 -0.2139
 6306SOL     OW23855   3.801   6.857   9.415  0.5027 -0.6812 -0.4698
 6306SOL    HW123856   3.793   6.839   9.509  2.6051 -1.8249 -0.4660
 6306SOL    HW223857   3.728   6.808   9.375  0.2374 -1.0655  0.4587
 6307SOL     OW23858   9.382   4.566   0.414 -0.0020 -0.6331  0.3971
 6307SOL    HW123859   9.286   4.568   0.405  0.1937  0.9539 -2.4573
 6307SOL    HW223860   9.414   4.576   0.324  2.8715 -0.0809  1.4014
 6308SOL     OW23861   6.979   2.498   6.614  0.3143  0.1337  0.8054
 6308SOL    HW123862   7.055   2.507   6.671  1.2508  0.6302 -0.4495
 6308SOL    HW223863   7.014   2.455   6.535 -0.5348  1.0364 -0.0860
 6309SOL     OW23864   7.620   8.875   2.029 -0.0202  0.7163  0.4510
 6309SOL    HW123865   7.693   8.894   1.970 -2.0745  1.1037 -2.1146
 6309SOL    HW223866   7.641   8.925   2.108  2.2309  1.2076 -0.3650
 6310SOL     OW23867   5.831   4.310   6.989 -0.0043  0.4040 -0.1956
 6310SOL    HW123868   5.746   4.350   6.968 -0.3524 -0.2535 -0.0507
 6310SOL    HW223869   5.824   4.286   7.081  0.9245  1.7808  0.2573
 6311SOL     OW23870   2.433   8.501   9.388  0.0075  0.1870  0.1954
 6311SOL    HW123871   2.465   8.411   9.397  1.1437  0.3729 -1.5184
 6311SOL    HW223872   2.503   8.556   9.424  0.4091  0.4732 -0.9826
 6312SOL     OW23873   1.746   8.174   8.329 -0.4562  0.1281  0.4104
 6312SOL    HW123874   1.814   8.239   8.314  0.5610 -0.8857  0.4542
 6312SOL    HW223875   1.664   8.222   8.321 -0.0790  0.5141 -4.8984
 6313SOL     OW23876   8.915   4.511  11.120 -0.0172  0.5554 -0.9772
 6313SOL    HW123877   8.909   4.560  11.202  0.9985 -0.6300 -0.1769
 6313SOL    HW223878   8.935   4.421  11.146 -1.0095 -0.1419 -2.4594
 6314SOL     OW23879   3.158   7.767   2.055  0.0837 -0.5371  0.2038
 6314SOL    HW123880   3.081   7.797   2.103 -1.0297 -2.7615 -0.1060
 6314SOL    HW223881   3.229   7.823   2.087 -1.6375  1.6796  0.3716
 6315SOL     OW23882  11.486   2.968   3.474 -0.4381  0.3631  0.3562
 6315SOL    HW123883  11.533   3.038   3.519 -0.5375  0.3488  0.4803
 6315SOL    HW223884  11.516   2.975   3.383  1.6849 -1.1530  0.8466
 6316SOL     OW23885  10.288   8.539   1.874  0.1939  0.0966 -0.3463
 6316SOL    HW123886  10.200   8.565   1.902  1.1568  1.9124  1.2673
 6316SOL    HW223887  10.289   8.443   1.882 -0.8617  0.2265  2.1865
 6317SOL     OW23888   6.508   6.589  10.834  0.0286 -0.3510 -0.1076
 6317SOL    HW123889   6.497   6.574  10.741 -0.5367  0.1187 -0.1240
 6317SOL    HW223890   6.591   6.636  10.842 -1.0322  1.7659 -0.6316
 6318SOL     OW23891  10.196   5.090   3.917 -0.0698 -0.2714 -0.0305
 6318SOL    HW123892  10.166   5.139   3.840 -0.7105  0.7705  0.8523
 6318SOL    HW223893  10.144   5.010   3.916 -2.3186  1.0680  0.9293
 6319SOL     OW23894   3.587   3.463   8.381 -0.3219  0.5815  0.3261
 6319SOL    HW123895   3.493   3.467   8.400  0.0204  2.4458  1.8840
 6319SOL    HW223896   3.592   3.413   8.299 -2.6315  0.1747  0.3517
 6320SOL     OW23897   1.012   3.560   2.094 -0.4578 -0.0388  0.7904
 6320SOL    HW123898   1.086   3.559   2.154  0.1719  1.0841  0.0628
 6320SOL    HW223899   0.944   3.609   2.141 -0.2894  0.0407  0.9544
 6321SOL     OW23900   1.220   5.396   8.894  0.2282 -0.2101  0.1385
 6321SOL    HW123901   1.236   5.396   8.988 -2.0430 -0.2138  0.5953
 6321SOL    HW223902   1.142   5.341   8.883  0.1891  0.1346 -1.6950
 6322SOL     OW23903   7.788  10.478   1.252  0.0691  0.5489  0.5318
 6322SOL    HW123904   7.730  10.518   1.187 -1.2794 -1.5856  0.3317
 6322SOL    HW223905   7.730  10.426   1.307  1.6625 -0.8758  0.9524
 6323SOL     OW23906   9.700   8.161   9.651 -0.1054  0.4229 -0.5338
 6323SOL    HW123907   9.796   8.170   9.650  0.1017 -1.1669  0.5496
 6323SOL    HW223908   9.677   8.154   9.743 -0.9538 -1.5709 -0.8359
 6324SOL     OW23909   0.928   6.206   4.818  0.0020  0.1375 -0.2660
 6324SOL    HW123910   1.015   6.178   4.787  0.1333  0.3307 -0.0768
 6324SOL    HW223911   0.904   6.141   4.883 -0.2995 -0.3009 -0.8090
 6325SOL     OW23912   3.930   7.800   5.720 -0.5770 -0.0649  0.1725
 6325SOL    HW123913   3.932   7.813   5.626  2.5513  0.0582  0.1764
 6325SOL    HW223914   3.945   7.707   5.732 -3.1178 -0.5077  0.6043
 6326SOL     OW23915   6.287   1.315   6.155  0.1112  0.2646 -1.0299
 6326SOL    HW123916   6.253   1.240   6.206  0.0784  1.0235  0.0974
 6326SOL    HW223917   6.212   1.344   6.104 -0.1399  0.1104 -0.7571
 6327SOL     OW23918  10.678  10.742   1.412  0.0215  0.4475 -0.0722
 6327SOL    HW123919  10.765  10.708   1.429 -0.1649 -1.1975 -2.0063
 6327SOL    HW223920  10.687  10.788   1.328 -0.9478  0.4000 -0.2096
 6328SOL     OW23921  10.351   6.332   6.973  0.8409  0.2204  0.1377
 6328SOL    HW123922  10.304   6.352   7.054  1.3067  0.7320  0.2898
 6328SOL    HW223923  10.440   6.363   6.989  0.4386  2.3888 -1.3638
 6329SOL     OW23924   4.057   5.877   3.192  0.2293  0.4187  0.2720
 6329SOL    HW123925   4.147   5.905   3.177  1.3716 -2.2754  1.4313
 6329SOL    HW223926   4.021   5.943   3.251  1.6409  1.2519  0.2424
 6330SOL     OW23927   2.737   8.839   3.316 -0.0097 -0.4495  0.6948
 6330SOL    HW123928   2.726   8.751   3.351  1.8384 -0.3458  1.6802
 6330SOL    HW223929   2.675   8.845   3.244 -0.5953 -2.3359  1.0075
 6331SOL     OW23930   5.429   2.704   3.418 -0.0421  0.0195  0.1074
 6331SOL    HW123931   5.520   2.675   3.425  0.1169 -0.0416 -1.7154
 6331SOL    HW223932   5.428   2.790   3.460  0.2234 -1.0543  2.5141
 6332SOL     OW23933   4.576   0.310   0.330  0.4415 -0.6356 -0.3079
 6332SOL    HW123934   4.534   0.372   0.389  0.4824 -1.1318  0.2526
 6332SOL    HW223935   4.502   0.266   0.286  0.3260 -1.7548  0.9323
 6333SOL     OW23936   7.128   2.695   3.930 -0.0137  0.4552 -0.2127
 6333SOL    HW123937   7.161   2.612   3.965  0.0962  0.1339 -1.0602
 6333SOL    HW223938   7.190   2.761   3.961  0.6742  0.0319 -0.6696
 6334SOL     OW23939   0.543   9.443   3.689  0.4969 -0.0934 -0.3949
 6334SOL    HW123940   0.507   9.418   3.774  0.3508  1.2863 -0.0251
 6334SOL    HW223941   0.560   9.360   3.644 -0.3482 -0.8162  0.5917
 6335SOL     OW23942  10.389   0.720  11.529  0.0610  0.1244 -0.6655
 6335SOL    HW123943  10.326   0.648  11.532 -0.2914  0.4212 -0.9677
 6335SOL    HW223944  10.424   0.725  11.618 -1.1441  0.6827 -0.2147
 6336SOL     OW23945   3.711   7.565   5.312 -0.0511 -0.2012  0.3390
 6336SOL    HW123946   3.779   7.497   5.312 -0.2009 -0.3523  0.7069
 6336SOL    HW223947   3.723   7.610   5.228 -1.1586 -1.8752 -0.7809
 6337SOL     OW23948   0.624  10.400   1.283  0.4939  0.0230  0.3079
 6337SOL    HW123949   0.557  10.457   1.245  2.0282  1.3365 -0.5692
 6337SOL    HW223950   0.619  10.417   1.377  1.5264  2.3998 -0.0037
 6338SOL     OW23951   0.608   2.130   5.996  0.4116  0.1928  0.1584
 6338SOL    HW123952   0.544   2.086   6.051  2.5548 -1.6405  1.3488
 6338SOL    HW223953   0.569   2.130   5.909 -1.5639  0.0082  0.9897
 6339SOL     OW23954   4.347   7.757   2.642  0.4280 -0.5427 -1.0143
 6339SOL    HW123955   4.437   7.785   2.626  0.2430  0.3001 -0.6597
 6339SOL    HW223956   4.338   7.759   2.737 -0.3539  0.7349 -1.0866
 6340SOL     OW23957   5.197   8.995  10.170 -0.0724 -0.2680 -0.2714
 6340SOL    HW123958   5.228   9.041  10.092 -0.7532  1.0534  0.2055
 6340SOL    HW223959   5.146   8.921  10.136 -0.1335  0.1345 -1.0708
 6341SOL     OW23960  10.621   0.098   3.757 -0.4399  0.3166  0.0418
 6341SOL    HW123961  10.598   0.096   3.850  0.6721 -0.2072  0.3259
 6341SOL    HW223962  10.539   0.080   3.712 -0.5621 -1.9183  1.0154
 6342SOL     OW23963   4.623   0.026   8.265  0.0051 -0.2839 -0.0061
 6342SOL    HW123964   4.571   0.063   8.194 -0.3105  1.7125  1.1660
 6342SOL    HW223965   4.681   0.098   8.292 -0.4539 -0.6863  2.2755
 6343SOL     OW23966   5.554   0.047   1.420 -0.4314 -0.0279  0.6535
 6343SOL    HW123967   5.636   0.026   1.465 -0.4765  1.6346  1.6091
 6343SOL    HW223968   5.486   0.015   1.479 -0.4949 -1.0925  0.0245
 6344SOL     OW23969   0.244   9.605   5.659 -0.3456 -0.3811  0.1960
 6344SOL    HW123970   0.170   9.594   5.599 -1.2080  0.9712  0.9560
 6344SOL    HW223971   0.203   9.613   5.745  0.8683 -2.3641  1.0301
 6345SOL     OW23972   5.096   9.055   0.608  0.5524 -0.2887  0.1986
 6345SOL    HW123973   5.071   8.999   0.535 -0.2485  0.3150 -0.0075
 6345SOL    HW223974   5.187   9.079   0.591  1.4858 -2.8171  1.1392
 6346SOL     OW23975   4.349   2.249   4.457  0.1678  0.3549  0.2844
 6346SOL    HW123976   4.302   2.166   4.457 -1.5696  1.2462 -1.4598
 6346SOL    HW223977   4.375   2.262   4.366  1.8861  0.9847  0.8166
 6347SOL     OW23978   4.773   8.846  10.313  0.7737 -0.5255  0.4769
 6347SOL    HW123979   4.726   8.929  10.315  1.2253 -0.2901  1.4977
 6347SOL    HW223980   4.744   8.805  10.231  0.4683  0.5766  0.0102
 6348SOL     OW23981  10.715  10.475   0.853 -0.0025  0.4030  0.6141
 6348SOL    HW123982  10.771  10.552   0.855 -0.1239  0.5182  0.0185
 6348SOL    HW223983  10.629  10.507   0.880 -0.1462  0.5739 -0.0105
 6349SOL     OW23984   7.923   0.456   4.044 -0.5040 -0.2258 -0.0683
 6349SOL    HW123985   7.908   0.383   4.105  0.6206  0.7761  1.4768
 6349SOL    HW223986   7.835   0.482   4.017 -0.9158 -2.9177 -1.6917
 6350SOL     OW23987   5.992   9.031  11.413  0.1746 -0.5455 -0.6163
 6350SOL    HW123988   5.935   9.006  11.485  1.2486  0.5184  0.6545
 6350SOL    HW223989   6.062   8.965  11.415 -1.4141 -2.4616 -2.8146
 6351SOL     OW23990   7.366   6.831   8.134 -0.2300 -0.1036 -0.3983
 6351SOL    HW123991   7.385   6.911   8.183 -1.9692  0.6503 -0.8693
 6351SOL    HW223992   7.396   6.850   8.045 -0.0303 -0.2362 -0.3598
 6352SOL     OW23993   1.122   0.132   4.458 -0.4015  0.7099 -0.2307
 6352SOL    HW123994   1.054   0.077   4.498 -0.6641  1.0819 -0.1650
 6352SOL    HW223995   1.119   0.108   4.365 -1.2207  1.3370 -0.3838
 6353SOL     OW23996   6.542   2.142   4.516 -0.8795  0.0289  0.4667
 6353SOL    HW123997   6.602   2.177   4.582 -1.0083 -1.0327  1.1826
 6353SOL    HW223998   6.474   2.209   4.507  0.9212  1.7600 -1.1662
 6354SOL     OW23999   3.257   7.535   5.166 -0.0293  0.0547  0.3022
 6354SOL    HW124000   3.297   7.619   5.189 -0.7379  0.8292 -1.1429
 6354SOL    HW224001   3.249   7.489   5.250  2.6994  0.3423  0.8283
 6355SOL     OW24002   1.616  11.605  10.174 -0.0357 -0.9758 -0.0508
 6355SOL    HW124003   1.632  11.526  10.227  2.2064  0.6100  1.8363
 6355SOL    HW224004   1.522  11.620  10.182  0.1619 -0.7522  3.7620
 6356SOL     OW24005   4.591   3.934   0.907  0.3317  0.0793  0.0109
 6356SOL    HW124006   4.564   3.923   0.816 -1.5340  1.2177  0.3814
 6356SOL    HW224007   4.655   4.005   0.905  0.4457 -0.0317 -0.4236
 6357SOL     OW24008   4.487   1.690   2.478  0.2429  0.0941 -0.1478
 6357SOL    HW124009   4.533   1.727   2.553  0.6928 -2.6462  1.0333
 6357SOL    HW224010   4.552   1.690   2.408  1.0603 -0.7686  0.5801
 6358SOL     OW24011   9.861   7.377   7.026 -0.7163  0.4132 -0.0937
 6358SOL    HW124012   9.900   7.358   6.941 -0.4824  2.9744 -0.6081
 6358SOL    HW224013   9.783   7.429   7.006 -2.2050 -1.1899  1.1545
 6359SOL     OW24014  10.470   0.810   1.689  0.2344  0.1606  0.3042
 6359SOL    HW124015  10.515   0.836   1.769 -2.2787 -0.2478  1.9775
 6359SOL    HW224016  10.469   0.714   1.693  0.9417  0.0888 -0.7725
 6360SOL     OW24017  11.386  10.921   7.990 -0.0664 -0.4133 -0.1819
 6360SOL    HW124018  11.416  10.837   7.954 -1.5290 -1.0599  0.0421
 6360SOL    HW224019  11.462  10.978   7.983  0.5346 -1.3408 -1.6592
 6361SOL     OW24020   5.917   2.287   7.338 -0.4546  0.2031  0.4344
 6361SOL    HW124021   5.988   2.241   7.295 -0.6628  0.3607 -0.0838
 6361SOL    HW224022   5.959   2.339   7.407 -0.0862  0.2077  0.2054
 6362SOL     OW24023   2.800   0.341   3.170  0.2221 -0.5210  0.5002
 6362SOL    HW124024   2.800   0.255   3.127 -1.1418 -1.2467  1.8509
 6362SOL    HW224025   2.781   0.321   3.262  0.4684  1.1969  0.9490
 6363SOL     OW24026   1.049   8.094   8.286  0.0431  0.3797  0.1790
 6363SOL    HW124027   1.068   8.065   8.375  0.2058 -0.9982 -0.2851
 6363SOL    HW224028   0.986   8.166   8.297 -0.4043 -0.1672  1.3812
 6364SOL     OW24029   7.078   3.958   3.394  0.3915  0.5660 -0.0484
 6364SOL    HW124030   7.155   4.015   3.401 -0.0763  1.2406 -0.2907
 6364SOL    HW224031   7.025   3.998   3.325  1.1884 -1.5339 -1.9704
 6365SOL     OW24032   0.313   8.743   9.920 -0.2198 -0.5764  0.3307
 6365SOL    HW124033   0.331   8.820   9.867  0.1002 -0.2880  0.8519
 6365SOL    HW224034   0.332   8.770  10.010 -2.4363 -0.4851  0.8417
 6366SOL     OW24035   9.220   5.289  10.437 -0.5351 -0.0561 -0.3317
 6366SOL    HW124036   9.221   5.293  10.533  1.4932  0.9026 -0.3410
 6366SOL    HW224037   9.152   5.352  10.411  0.6642  1.6323  0.4633
 6367SOL     OW24038   0.531  11.328   1.550  0.5444 -0.5933  0.1941
 6367SOL    HW124039   0.601  11.314   1.613  1.6798 -0.2753 -0.9645
 6367SOL    HW224040   0.514  11.422   1.554 -0.6502 -0.8261  1.2990
 6368SOL     OW24041   4.342   4.358   6.414 -0.1091  0.5163 -0.4172
 6368SOL    HW124042   4.290   4.299   6.468 -1.2327  1.3102 -0.6018
 6368SOL    HW224043   4.287   4.377   6.339 -0.2556  2.6548  0.1568
 6369SOL     OW24044   8.157   8.460  10.219 -0.4292 -0.5901 -0.1130
 6369SOL    HW124045   8.199   8.386  10.262 -0.1679 -0.5378 -0.2801
 6369SOL    HW224046   8.225   8.528  10.213 -1.0187  0.1478  1.2079
 6370SOL     OW24047   9.281   6.950   1.663  0.3783 -0.3318 -0.2050
 6370SOL    HW124048   9.193   6.990   1.667  0.0855 -0.9321 -0.4949
 6370SOL    HW224049   9.303   6.931   1.754 -0.0779 -0.7787 -0.1828
 6371SOL     OW24050   1.838   1.756   5.557 -0.0308  0.4557  0.3229
 6371SOL    HW124051   1.769   1.728   5.617 -0.0435  0.1720  0.1794
 6371SOL    HW224052   1.907   1.791   5.613 -0.4147  1.0158  0.4521
 6372SOL     OW24053   8.627   9.886   7.310 -0.1041 -0.4019 -0.1383
 6372SOL    HW124054   8.652   9.802   7.350  3.3491 -0.1838 -1.5240
 6372SOL    HW224055   8.579   9.861   7.232  1.3662 -1.2046 -0.8414
 6373SOL     OW24056   5.994   7.143   3.959 -0.3296 -0.2952 -0.2183
 6373SOL    HW124057   6.019   7.050   3.956  0.7391 -0.0845  1.2919
 6373SOL    HW224058   5.899   7.141   3.972 -0.3755 -1.1583 -0.5490
 6374SOL     OW24059   0.398  11.428   9.011 -0.4629 -0.0979 -0.0741
 6374SOL    HW124060   0.321  11.450   8.959  0.9328  0.9917 -1.7586
 6374SOL    HW224061   0.470  11.474   8.969  0.9130  0.0438  2.2806
 6375SOL     OW24062   8.672   3.559   2.023 -0.0195  0.0800 -0.1037
 6375SOL    HW124063   8.703   3.531   1.936  0.4552  3.7666 -1.2780
 6375SOL    HW224064   8.601   3.620   2.005 -0.7414  0.0221  2.2126
 6376SOL     OW24065  10.501   8.847   0.961 -0.7144  0.5425 -0.2130
 6376SOL    HW124066  10.426   8.859   1.018 -0.0069 -0.9748  1.1311
 6376SOL    HW224067  10.575   8.838   1.021 -0.1105 -2.2946 -1.2330
 6377SOL     OW24068  10.917   0.776   1.161 -0.2988 -0.1948 -0.1906
 6377SOL    HW124069  10.962   0.717   1.222  1.1666 -0.2125 -1.2488
 6377SOL    HW224070  10.906   0.857   1.211  0.8919 -0.1992  0.1108
 6378SOL     OW24071   3.232   6.369   0.540 -0.1849 -0.4697 -0.1228
 6378SOL    HW124072   3.250   6.340   0.630 -0.1520 -0.5930 -0.1685
 6378SOL    HW224073   3.169   6.441   0.550 -1.0455 -1.2107 -0.0547
 6379SOL     OW24074   5.446   1.512   3.237  0.2875 -0.1122  0.3576
 6379SOL    HW124075   5.361   1.526   3.277 -0.4466  1.5830 -1.5939
 6379SOL    HW224076   5.500   1.584   3.270 -0.1129  0.8679 -1.0226
 6380SOL     OW24077  10.753   6.810   3.323  0.2031  0.0782  0.1979
 6380SOL    HW124078  10.783   6.864   3.396 -0.4600  0.0469  0.5007
 6380SOL    HW224079  10.801   6.844   3.247  2.5588 -1.3113  0.9678
 6381SOL     OW24080   8.862   5.263   2.526 -0.2548 -0.2570 -0.4599
 6381SOL    HW124081   8.779   5.295   2.562  0.4312  0.2732  0.6941
 6381SOL    HW224082   8.852   5.168   2.522 -0.0074 -0.4720  2.1611
 6382SOL     OW24083   0.974   6.830   7.097 -0.4812 -0.0902 -0.1600
 6382SOL    HW124084   0.902   6.848   7.036  0.2272  1.1904 -0.6352
 6382SOL    HW224085   1.053   6.853   7.049  0.1574 -0.0627  0.8819
 6383SOL     OW24086   2.353   7.864   4.589  0.1588  0.4044 -0.1394
 6383SOL    HW124087   2.393   7.890   4.506  1.3254 -1.4181 -0.1977
 6383SOL    HW224088   2.427   7.860   4.650 -0.3814 -0.2173  0.4882
 6384SOL     OW24089   6.318   5.145   2.866  0.0441 -0.8387 -0.6126
 6384SOL    HW124090   6.315   5.052   2.846 -1.9435 -0.7721 -0.8422
 6384SOL    HW224091   6.249   5.184   2.813  0.3977  0.6757 -0.0345
 6385SOL     OW24092   0.453   6.459   9.935  0.2600  0.0703  0.4463
 6385SOL    HW124093   0.538   6.480   9.974  0.3824  1.5318 -0.5132
 6385SOL    HW224094   0.425   6.379   9.979  0.8617  1.0465  2.7596
 6386SOL     OW24095   4.765  11.576   5.904 -0.5982  0.2813 -0.1793
 6386SOL    HW124096   4.695  11.641   5.893 -0.8015  0.6299  2.5657
 6386SOL    HW224097   4.844  11.628   5.918 -0.6353 -0.0333  1.3087
 6387SOL     OW24098   8.297  11.457  10.548  0.1606  0.0577  0.4248
 6387SOL    HW124099   8.304  11.552  10.557 -0.5698  0.3109 -1.2114
 6387SOL    HW224100   8.373  11.432  10.495 -0.1296 -0.1401  0.0989
 6388SOL     OW24101   5.123  11.372   6.410  0.5253 -0.6757  0.5328
 6388SOL    HW124102   5.033  11.343   6.397  0.6413 -0.7728 -0.0862
 6388SOL    HW224103   5.137  11.366   6.505 -0.2657 -0.2227  0.6914
 6389SOL     OW24104   5.067   2.247   0.628 -0.3443 -0.7840 -0.1273
 6389SOL    HW124105   4.982   2.239   0.672 -1.5685  0.9679 -1.9488
 6389SOL    HW224106   5.047   2.229   0.536  0.9472  0.9525 -0.8036
 6390SOL     OW24107   3.379   3.760   9.677 -0.1208  0.5286  0.6297
 6390SOL    HW124108   3.407   3.741   9.767 -1.5732  0.5035  1.1046
 6390SOL    HW224109   3.317   3.833   9.686 -0.2423  0.5635 -0.3639
 6391SOL     OW24110   6.776   9.614   2.620  0.0907 -0.0329 -0.1246
 6391SOL    HW124111   6.700   9.596   2.676 -0.3734  1.4849 -0.2140
 6391SOL    HW224112   6.785   9.709   2.623  0.5340  0.0156 -2.0207
 6392SOL     OW24113   6.836  10.998   6.223  0.0307  0.2100 -0.0553
 6392SOL    HW124114   6.823  11.085   6.184  0.3274 -0.1088 -0.8670
 6392SOL    HW224115   6.863  11.017   6.313 -0.2643  0.9571 -0.1184
 6393SOL     OW24116   2.238   0.655   7.976  0.4124 -0.2277  0.1229
 6393SOL    HW124117   2.304   0.683   7.912  0.5239 -0.0053  0.3343
 6393SOL    HW224118   2.176   0.728   7.980  1.3945  0.5725  1.6320
 6394SOL     OW24119   0.145   4.950   8.382 -0.1820 -0.1641 -0.0952
 6394SOL    HW124120   0.147   4.981   8.472 -1.0441  0.1054 -0.1565
 6394SOL    HW224121   0.191   4.866   8.384  1.2091  0.5780  0.2750
 6395SOL     OW24122  10.314  10.934   3.293  0.0262  0.0120 -0.1176
 6395SOL    HW124123  10.337  10.921   3.385  1.4875  2.9608  0.0704
 6395SOL    HW224124  10.309  10.846   3.256 -0.9963 -1.2915  2.8194
 6396SOL     OW24125   5.000  10.913  11.540 -0.5471 -0.2291  0.3245
 6396SOL    HW124126   4.924  10.971  11.546 -0.6283 -0.2752 -0.2154
 6396SOL    HW224127   5.018  10.887  11.631  0.2948  1.6734  0.7562
 6397SOL     OW24128   1.944   7.605   0.046 -0.2361  0.0723  0.6330
 6397SOL    HW124129   1.869   7.619  -0.012 -1.8797  0.8194  2.7923
 6397SOL    HW224130   1.923   7.655   0.124  1.7100 -1.1453  2.0254
 6398SOL     OW24131   4.007   7.130   6.520  0.1883 -0.0559 -0.3834
 6398SOL    HW124132   4.015   7.172   6.435 -1.5873 -0.6965 -0.9128
 6398SOL    HW224133   3.978   7.199   6.579 -0.5798 -0.0428 -0.7665
 6399SOL     OW24134   7.593   9.016   9.424  0.0780  0.4580  0.6067
 6399SOL    HW124135   7.652   8.994   9.497  2.0723  0.7443 -0.8549
 6399SOL    HW224136   7.566   9.106   9.441  1.0989  0.7681  0.6479
 6400SOL     OW24137   5.845   5.076   1.534  0.2433 -0.3678 -0.0669
 6400SOL    HW124138   5.853   5.153   1.478 -0.4083  0.7180  1.2570
 6400SOL    HW224139   5.932   5.036   1.532  0.6839  0.5892 -0.5432
 6401SOL     OW24140   9.597   1.541  10.334  0.1770  0.2769 -0.2248
 6401SOL    HW124141   9.511   1.521  10.369  0.3583 -0.1201  0.0014
 6401SOL    HW224142   9.588   1.527  10.240  0.2599 -0.7595 -0.0921
 6402SOL     OW24143   9.005   8.057   4.779  0.0620 -0.3105  1.3378
 6402SOL    HW124144   9.020   7.984   4.718 -0.2138  0.2133  0.6292
 6402SOL    HW224145   8.910   8.062   4.787  0.0935 -0.2778  1.6988
 6403SOL     OW24146  10.009   6.188   5.401  0.4500 -0.1293 -0.1965
 6403SOL    HW124147   9.957   6.194   5.320  1.2787  1.2121 -0.6620
 6403SOL    HW224148  10.066   6.265   5.399  0.4592 -0.0278  1.7035
 6404SOL     OW24149   9.003   3.536   4.596  0.1157 -0.1198  0.3336
 6404SOL    HW124150   9.069   3.481   4.553  0.1133 -0.1973  0.4299
 6404SOL    HW224151   8.968   3.590   4.525  0.3405 -0.0215  0.2979
 6405SOL     OW24152   7.075  10.018   7.419  0.2988 -0.0910 -0.5223
 6405SOL    HW124153   7.034   9.938   7.384 -0.1589 -0.0066 -0.1886
 6405SOL    HW224154   7.012  10.087   7.400  0.6733  0.1830 -0.7646
 6406SOL     OW24155   7.540   1.855   1.099  0.0495 -0.0469  0.6471
 6406SOL    HW124156   7.452   1.884   1.121  1.3054  3.1027  2.0770
 6406SOL    HW224157   7.582   1.838   1.183  0.7925 -1.8020 -0.0255
 6407SOL     OW24158   8.713   8.431  10.172 -0.0238  0.1149  0.6323
 6407SOL    HW124159   8.743   8.398  10.087 -1.2583 -0.7789  0.5157
 6407SOL    HW224160   8.731   8.359  10.233  0.1483  0.4531  0.9823
 6408SOL     OW24161   5.004   6.716  11.677  0.3055 -0.2859 -0.0998
 6408SOL    HW124162   5.023   6.659  11.603 -1.0088  0.6065 -1.1716
 6408SOL    HW224163   5.019   6.805  11.644 -0.6967  0.1502  0.5654
 6409SOL     OW24164   1.841   7.490   1.043 -0.8216 -0.4834 -0.3774
 6409SOL    HW124165   1.906   7.483   0.973 -0.6993 -0.8542 -0.2321
 6409SOL    HW224166   1.758   7.464   1.002 -0.6570 -1.2137 -0.2558
 6410SOL     OW24167   5.536   7.975   4.052  0.1592  0.4956  0.0065
 6410SOL    HW124168   5.531   7.969   4.147  0.1002  0.6542  0.0143
 6410SOL    HW224169   5.454   7.939   4.020 -0.3356  1.5210  0.0658
 6411SOL     OW24170   8.027   2.913   1.722  0.4943 -0.3789 -0.2589
 6411SOL    HW124171   7.956   2.849   1.721  0.7832 -0.7554  0.8269
 6411SOL    HW224172   8.102   2.864   1.757  1.2844  0.0195 -1.3430
 6412SOL     OW24173   8.014   0.073   2.001  0.3229 -0.4037 -0.2240
 6412SOL    HW124174   7.983  -0.017   1.991  0.6488 -0.3077 -2.5683
 6412SOL    HW224175   8.091   0.078   1.944  1.8064  0.7132  1.7386
 6413SOL     OW24176   5.615   5.271   0.555  0.6469 -0.2030 -0.7988
 6413SOL    HW124177   5.687   5.327   0.528  0.5880 -0.6791 -2.0003
 6413SOL    HW224178   5.549   5.281   0.486 -0.3647  0.0779  0.1753
 6414SOL     OW24179   2.815   7.436   5.025  0.4461 -0.8213 -0.2907
 6414SOL    HW124180   2.872   7.474   5.092  2.1830 -0.9005 -1.6662
 6414SOL    HW224181   2.869   7.372   4.980 -1.2217 -2.0322 -0.6716
 6415SOL     OW24182   7.625   6.688   9.766  0.1815 -0.1080  0.3115
 6415SOL    HW124183   7.547   6.634   9.750 -0.2268  0.5414  0.1014
 6415SOL    HW224184   7.651   6.719   9.679  0.3766  0.0886  0.4401
 6416SOL     OW24185   9.522   4.961   8.480  0.3896 -0.2059  0.1752
 6416SOL    HW124186   9.444   4.991   8.527 -0.7563 -2.5580 -0.1086
 6416SOL    HW224187   9.587   4.946   8.549  0.2839  0.7728  0.5100
 6417SOL     OW24188   6.363   0.910   6.039  0.7304 -0.3283  0.4994
 6417SOL    HW124189   6.455   0.905   6.067  0.5915 -0.7266  0.8793
 6417SOL    HW224190   6.367   0.960   5.957  1.0896  1.2040  1.4104
 6418SOL     OW24191   7.399   6.686   4.372  0.0647 -0.0294  0.1212
 6418SOL    HW124192   7.468   6.732   4.420  1.3261 -0.9059 -0.7864
 6418SOL    HW224193   7.362   6.625   4.437 -1.8622  2.3916  1.4365
 6419SOL     OW24194  11.219   6.820   9.416  0.4263  0.0362 -0.3208
 6419SOL    HW124195  11.127   6.837   9.395  0.3538 -1.1280 -1.0178
 6419SOL    HW224196  11.264   6.901   9.391 -0.0514 -0.3035 -2.4894
 6420SOL     OW24197   0.032   7.753   0.847 -0.3213  0.7962  0.1151
 6420SOL    HW124198   0.105   7.739   0.907  0.4688  0.7325 -0.8273
 6420SOL    HW224199   0.047   7.690   0.776 -1.2375  0.8559 -0.1382
 6421SOL     OW24200   7.979   2.520   8.245  0.4022  0.6867 -0.7631
 6421SOL    HW124201   8.053   2.496   8.190  0.2521  1.3568 -1.2655
 6421SOL    HW224202   7.933   2.437   8.261  1.2735  0.2555 -0.3985
 6422SOL     OW24203   8.822  10.039   0.962  0.2367  0.1608  0.6670
 6422SOL    HW124204   8.870  10.066   0.883  1.4730 -0.3429  1.2172
 6422SOL    HW224205   8.804  10.122   1.007  0.5927  0.3683  0.4419
 6423SOL     OW24206   9.227   9.821   0.803 -0.1278  0.2463  0.1984
 6423SOL    HW124207   9.199   9.818   0.895 -1.0066  0.7291 -0.0439
 6423SOL    HW224208   9.252   9.731   0.783 -1.0084 -0.0997  0.5892
 6424SOL     OW24209   2.177  11.319  11.311 -0.3682  0.4049  0.2493
 6424SOL    HW124210   2.190  11.225  11.298  0.6197  0.6598 -0.8209
 6424SOL    HW224211   2.143  11.326  11.401  0.9491 -0.8639  0.8995
 6425SOL     OW24212  11.250   2.843  10.156  0.8417  0.2095 -0.2623
 6425SOL    HW124213  11.183   2.902  10.122  0.2757  0.4011  1.1089
 6425SOL    HW224214  11.228   2.832  10.249  0.7371 -2.4114 -0.5247
 6426SOL     OW24215   5.996  10.403   9.339  0.0496 -0.0364 -0.4366
 6426SOL    HW124216   6.030  10.492   9.338  0.4728 -0.1976 -1.4362
 6426SOL    HW224217   5.953  10.394   9.424 -0.5391  1.3173 -0.5797
 6427SOL     OW24218   9.494   6.509   2.094  0.1599  0.3804  0.3885
 6427SOL    HW124219   9.494   6.414   2.104 -0.6159  0.1787 -1.1297
 6427SOL    HW224220   9.519   6.542   2.180 -0.7814 -1.1635  1.3255
 6428SOL     OW24221   8.687   9.530   4.844  0.2061 -0.7026  0.3001
 6428SOL    HW124222   8.619   9.594   4.865  1.2290  0.2199  0.9063
 6428SOL    HW224223   8.757   9.548   4.907  0.5336 -2.4085  0.4582
 6429SOL     OW24224   0.866   5.162   9.756  0.1924 -1.0097 -0.1568
 6429SOL    HW124225   0.797   5.228   9.756  2.1834  1.2252 -0.9802
 6429SOL    HW224226   0.892   5.154   9.665  0.6821 -2.2190  0.0645
 6430SOL     OW24227  11.362   6.364   4.952 -0.6436 -0.6550 -0.5683
 6430SOL    HW124228  11.360   6.456   4.926 -0.5028 -0.6763 -0.6535
 6430SOL    HW224229  11.300   6.321   4.894  0.3008 -0.8545 -1.4489
 6431SOL     OW24230  10.256   8.454  10.571 -0.4434 -0.0028  0.0165
 6431SOL    HW124231  10.287   8.367  10.594 -0.1709 -0.1742 -0.9403
 6431SOL    HW224232  10.330   8.512  10.585 -0.0652 -0.2093 -1.0025
 6432SOL     OW24233   6.971   8.820  10.870 -0.0725  0.5391  0.0126
 6432SOL    HW124234   6.967   8.825  10.775 -1.9348 -0.9222 -0.0372
 6432SOL    HW224235   7.044   8.762  10.889 -0.4857 -0.1878 -0.5921
 6433SOL     OW24236   0.868   0.584   1.251  0.2682 -0.4679 -0.5406
 6433SOL    HW124237   0.949   0.634   1.257  0.0205  0.0658 -1.4572
 6433SOL    HW224238   0.850   0.557   1.341  0.5311  0.8829 -0.0618
 6434SOL     OW24239  10.768   3.988   2.186  0.3141  0.2052  0.3600
 6434SOL    HW124240  10.724   3.909   2.218  0.3750 -0.0231 -0.0998
 6434SOL    HW224241  10.852   3.989   2.230  0.5124 -0.2577  0.0014
 6435SOL     OW24242   0.656  11.304  10.593 -0.4647 -0.3009  0.5716
 6435SOL    HW124243   0.563  11.288  10.612 -0.6293 -0.4776 -0.3317
 6435SOL    HW224244   0.655  11.359  10.515  0.1545  1.8483  1.9763
 6436SOL     OW24245   8.119   6.502  11.547  0.1188  0.4183 -0.6144
 6436SOL    HW124246   8.198   6.538  11.587  0.4177 -0.2193 -0.6143
 6436SOL    HW224247   8.050   6.522  11.609  0.6500 -0.9523  0.4681
 6437SOL     OW24248   2.504   4.031   1.733 -0.1387  0.1515 -0.4940
 6437SOL    HW124249   2.438   4.012   1.800  1.6229 -0.1798  1.2384
 6437SOL    HW224250   2.526   4.123   1.747  0.5827 -0.0492 -0.2778
 6438SOL     OW24251   3.462   2.890   2.551  0.2761  0.1078 -0.2125
 6438SOL    HW124252   3.457   2.861   2.643  1.0130  0.9893  0.1181
 6438SOL    HW224253   3.379   2.935   2.535  0.6820  1.1091  0.4366
 6439SOL     OW24254   4.709   7.784   3.171  0.3019 -0.0857 -0.5151
 6439SOL    HW124255   4.640   7.731   3.133 -1.2300  0.4887  1.3253
 6439SOL    HW224256   4.722   7.855   3.108 -0.9645 -0.0664 -0.7720
 6440SOL     OW24257   3.307   2.604  10.804 -0.1412  0.1424 -0.6168
 6440SOL    HW124258   3.301   2.688  10.849 -1.6917 -0.4164  0.2900
 6440SOL    HW224259   3.382   2.614  10.745  1.5473  1.1484  1.5609
 6441SOL     OW24260   8.167   6.579   6.873 -0.3165 -0.0957 -0.2038
 6441SOL    HW124261   8.118   6.641   6.928  0.8219 -0.7154  1.5969
 6441SOL    HW224262   8.178   6.502   6.928  1.5274 -0.4638 -1.0218
 6442SOL     OW24263   6.276   1.143   0.223 -0.0794  0.0102 -0.2081
 6442SOL    HW124264   6.202   1.197   0.196  1.5399  2.0048 -0.8396
 6442SOL    HW224265   6.273   1.143   0.319 -0.3098  0.9175 -0.2135
 6443SOL     OW24266   0.334   7.831   4.928  0.2093  0.4864 -0.7496
 6443SOL    HW124267   0.401   7.763   4.930  0.4682  0.7458  0.9434
 6443SOL    HW224268   0.258   7.788   4.889  0.6652 -0.5040 -0.5818
 6444SOL     OW24269  10.069   2.049   9.658 -0.6829 -0.5270 -0.6099
 6444SOL    HW124270  10.029   2.127   9.697 -1.4118 -0.4801 -1.4428
 6444SOL    HW224271  10.008   1.978   9.677  0.1172 -0.9853  0.4036
 6445SOL     OW24272   2.535   5.994   1.432 -0.6455 -0.2196  0.2968
 6445SOL    HW124273   2.484   5.916   1.449 -0.1297 -0.6824 -0.2262
 6445SOL    HW224274   2.626   5.964   1.432 -0.4440  0.3643  0.0531
 6446SOL     OW24275   9.241  10.553   7.860  0.0113  0.6625 -0.6632
 6446SOL    HW124276   9.166  10.552   7.802  0.9741  0.7398 -1.9608
 6446SOL    HW224277   9.298  10.622   7.825  1.6888 -0.8580 -1.1011
 6447SOL     OW24278   8.135   9.666   2.035  0.1400 -0.4918  0.0139
 6447SOL    HW124279   8.118   9.628   1.948 -0.7035  0.2898 -0.1835
 6447SOL    HW224280   8.217   9.625   2.063  1.3812  0.4893 -1.9008
 6448SOL     OW24281   9.814  10.633   1.946 -0.4067 -0.1596 -0.5545
 6448SOL    HW124282   9.764  10.711   1.925  0.5789  0.7431  0.3269
 6448SOL    HW224283   9.878  10.625   1.875  0.1857  0.4729 -0.1090
 6449SOL     OW24284   2.097   3.042  10.653  0.9163  0.4696 -0.2164
 6449SOL    HW124285   2.105   3.074  10.563  2.1920  0.9131  0.0274
 6449SOL    HW224286   2.142   3.108  10.705 -2.6463  2.0136  1.2127
 6450SOL     OW24287   8.606   4.374   7.532  0.4323  0.3448  0.2158
 6450SOL    HW124288   8.555   4.455   7.520 -0.0988  0.1533  1.0560
 6450SOL    HW224289   8.555   4.324   7.596  0.9063 -0.5329 -0.0901
 6451SOL     OW24290   4.872   8.065   0.345 -0.3753  0.1721  0.2417
 6451SOL    HW124291   4.811   8.106   0.406 -0.4773  0.3412  0.0270
 6451SOL    HW224292   4.888   7.978   0.381 -0.7545  0.1242  0.2892
 6452SOL     OW24293  10.872   6.816   0.003 -0.4278 -0.1354 -0.5636
 6452SOL    HW124294  10.826   6.732   0.013 -1.3401  0.4623  0.5253
 6452SOL    HW224295  10.964   6.795   0.021 -0.6836 -0.8717 -0.0549
 6453SOL     OW24296   4.089  10.193  11.276  0.3351 -0.1112  0.8964
 6453SOL    HW124297   4.011  10.138  11.274 -0.0500  0.4367  0.7207
 6453SOL    HW224298   4.146  10.157  11.208  0.5675 -0.9890  1.5438
 6454SOL     OW24299   1.715   0.125  10.988 -0.3007 -0.3715 -0.1420
 6454SOL    HW124300   1.787   0.105  11.047  0.0028 -1.9437 -0.9730
 6454SOL    HW224301   1.637   0.126  11.044  0.4121  2.3492  0.9359
 6455SOL     OW24302   6.454   9.473   9.857 -0.2461 -0.0600 -0.2011
 6455SOL    HW124303   6.499   9.399   9.818 -0.7577 -1.1165  1.1487
 6455SOL    HW224304   6.523   9.536   9.878  0.2622 -0.4452 -0.7141
 6456SOL     OW24305   1.819  10.672   2.565 -0.2794 -0.3257 -0.7410
 6456SOL    HW124306   1.884  10.614   2.605  1.8735  1.6011 -1.2039
 6456SOL    HW224307   1.792  10.626   2.485  0.3213 -1.2860 -0.4041
 6457SOL     OW24308   0.240   2.461   0.986  0.6556 -0.3540  0.3010
 6457SOL    HW124309   0.173   2.494   1.047  0.0921 -1.4988  0.3170
 6457SOL    HW224310   0.321   2.504   1.015  0.2153 -0.1298  1.2513
 6458SOL     OW24311   0.134   2.141   5.897  0.0330 -0.4510  0.2382
 6458SOL    HW124312   0.205   2.084   5.866  0.2288 -0.1340  0.1077
 6458SOL    HW224313   0.057   2.112   5.848 -0.2691 -1.7831  1.4175
 6459SOL     OW24314   4.739   3.563   0.339 -0.2666  1.1481  0.3991
 6459SOL    HW124315   4.792   3.564   0.260  0.0244 -0.2384  0.5509
 6459SOL    HW224316   4.747   3.652   0.374  0.8610  1.3417 -0.2930
 6460SOL     OW24317  10.467   5.578   2.670 -0.3196 -0.2130  0.0486
 6460SOL    HW124318  10.459   5.583   2.765 -1.0362  2.5322 -0.0836
 6460SOL    HW224319  10.553   5.615   2.651 -0.3361 -0.4030 -0.4155
 6461SOL     OW24320   4.494   9.426   8.798  0.1748  0.3282  0.1771
 6461SOL    HW124321   4.544   9.508   8.790 -0.9222  1.0360  0.2587
 6461SOL    HW224322   4.405   9.451   8.774  0.0729 -1.1647 -1.1261
 6462SOL     OW24323  11.583   8.833   0.812  0.0484  0.0338 -0.2007
 6462SOL    HW124324  11.660   8.888   0.798 -0.4266  0.6447 -0.4791
 6462SOL    HW224325  11.583   8.815   0.906  0.7482 -0.3034 -0.2642
 6463SOL     OW24326   6.640   3.630   3.768 -0.6129  0.3184  0.2743
 6463SOL    HW124327   6.593   3.700   3.812  0.1573  0.4794  0.8675
 6463SOL    HW224328   6.572   3.573   3.732 -1.2426  1.0017  0.3737
 6464SOL     OW24329  11.297   7.897   6.684 -0.3754  0.1915 -0.1705
 6464SOL    HW124330  11.217   7.899   6.632 -0.7256  0.2054  0.3550
 6464SOL    HW224331  11.368   7.902   6.620 -0.7334  4.6355 -0.5365
 6465SOL     OW24332   8.328   2.740   4.143 -0.3582 -0.4504 -0.0532
 6465SOL    HW124333   8.321   2.692   4.225 -0.0505 -0.7122 -0.1801
 6465SOL    HW224334   8.272   2.691   4.082  1.3702 -1.7216 -0.6826
 6466SOL     OW24335   1.454  10.653   2.264 -0.1838 -0.8275  0.0701
 6466SOL    HW124336   1.528  10.595   2.283 -0.0030 -0.6687 -0.1525
 6466SOL    HW224337   1.449  10.655   2.169  0.2052  0.0278  0.0622
 6467SOL     OW24338   6.074   7.583   1.914 -0.4431  0.3359 -0.4917
 6467SOL    HW124339   6.084   7.660   1.859 -2.4933  0.5227 -0.6818
 6467SOL    HW224340   6.113   7.607   1.998 -1.0294  1.5868 -0.5632
 6468SOL     OW24341  10.047   5.815   3.327  0.5690  0.3350 -0.3383
 6468SOL    HW124342  10.000   5.832   3.245  0.0657  0.5066 -0.0207
 6468SOL    HW224343  10.138   5.804   3.301  0.2626 -0.6798 -1.0564
 6469SOL     OW24344   3.342   2.292   0.646  0.4455  0.1233  0.1956
 6469SOL    HW124345   3.433   2.304   0.619  0.5342 -0.0978  0.3884
 6469SOL    HW224346   3.345   2.220   0.710 -0.0335 -0.7563 -0.7448
 6470SOL     OW24347   5.973   6.112   4.667  0.0466  0.1702  0.4562
 6470SOL    HW124348   5.883   6.080   4.677 -0.2159  1.1881  1.4964
 6470SOL    HW224349   5.967   6.206   4.681  1.2916  0.2421  0.6087
 6471SOL     OW24350  11.592   5.236   8.580 -0.5829 -0.3973  0.0491
 6471SOL    HW124351  11.528   5.189   8.527 -1.3242  0.3623  0.2427
 6471SOL    HW224352  11.673   5.233   8.529 -1.0084 -0.5918 -0.6253
 6472SOL     OW24353   2.982   8.605   0.279 -0.0190 -0.0541  0.2721
 6472SOL    HW124354   3.050   8.574   0.220 -0.1831  2.0080 -1.0894
 6472SOL    HW224355   3.029   8.640   0.355  0.4145  0.5007 -0.2427
 6473SOL     OW24356   6.074  10.784   2.089 -0.0873 -0.4063  0.3299
 6473SOL    HW124357   6.037  10.718   2.148  0.3481 -1.7899 -0.8888
 6473SOL    HW224358   6.015  10.783   2.013  0.4906 -0.1184 -0.1233
 6474SOL     OW24359  10.592   7.241  11.210 -0.2420  0.4459 -0.5622
 6474SOL    HW124360  10.657   7.289  11.262  1.7910 -1.7434 -0.9129
 6474SOL    HW224361  10.570   7.301  11.139  2.2567  0.9276 -1.0324
 6475SOL     OW24362   8.002   7.998   3.592 -0.0015  0.0676  0.1644
 6475SOL    HW124363   8.022   8.086   3.559  0.8008 -0.1631  0.0081
 6475SOL    HW224364   7.944   7.960   3.526  2.4512 -0.7977 -1.6479
 6476SOL     OW24365   9.534   5.111   1.375 -0.1622 -0.4255  0.3763
 6476SOL    HW124366   9.596   5.154   1.434  0.0775 -1.1152  0.6297
 6476SOL    HW224367   9.584   5.094   1.296  0.3111 -1.9652  0.9680
 6477SOL     OW24368   5.570   0.365   2.419  0.2392 -0.5991  0.6081
 6477SOL    HW124369   5.571   0.331   2.508 -0.5842  0.9543  1.2397
 6477SOL    HW224370   5.636   0.434   2.419 -1.9176  1.5899  0.9778
 6478SOL     OW24371   2.233   1.167   0.023  0.0532  0.2734 -0.1747
 6478SOL    HW124372   2.221   1.204   0.111 -1.1495  0.2055 -0.2848
 6478SOL    HW224373   2.290   1.092   0.037 -1.6381 -0.9041  0.9021
 6479SOL     OW24374   1.070   0.103   9.185 -0.5525 -0.3467 -0.5239
 6479SOL    HW124375   1.028   0.024   9.218 -0.4014 -0.7697 -1.3133
 6479SOL    HW224376   0.999   0.166   9.174 -0.5054  0.0647  1.2952
 6480SOL     OW24377   5.373  11.290  10.296 -0.8360 -0.0818  0.1048
 6480SOL    HW124378   5.377  11.361  10.232 -0.4231 -0.1690  0.0305
 6480SOL    HW224379   5.457  11.294  10.342 -1.7710  1.0566  1.8250
 6481SOL     OW24380   6.209  11.508   4.021 -0.3161  0.3915 -0.2896
 6481SOL    HW124381   6.213  11.475   3.932  3.1811 -0.0530 -0.1189
 6481SOL    HW224382   6.146  11.451   4.065 -1.1426 -0.2002 -2.1365
 6482SOL     OW24383   6.222   9.232  10.893  0.2803 -0.4524 -0.2195
 6482SOL    HW124384   6.285   9.186  10.838  0.2593 -0.5127 -0.1941
 6482SOL    HW224385   6.273   9.265  10.967  0.6517  1.2497 -1.1971
 6483SOL     OW24386   8.668   1.406   1.253  0.1446  0.4327  0.4020
 6483SOL    HW124387   8.580   1.389   1.219  0.1724  0.9260  0.0688
 6483SOL    HW224388   8.657   1.478   1.314  0.2323  0.1137  0.7959
 6484SOL     OW24389  10.692  10.456   0.161 -0.0252  0.1978 -0.3964
 6484SOL    HW124390  10.773  10.499   0.132 -0.3209  0.6693 -0.5269
 6484SOL    HW224391  10.714  10.422   0.247  0.3786  0.1455 -0.5154
 6485SOL     OW24392   5.363   7.533   0.571 -0.1624 -0.6826  0.4719
 6485SOL    HW124393   5.419   7.580   0.509  0.4266  0.3562  1.7448
 6485SOL    HW224394   5.317   7.469   0.517  1.2486 -0.6678 -0.8435
 6486SOL     OW24395   5.033   0.555   6.062 -0.3844 -0.0324  0.6013
 6486SOL    HW124396   4.998   0.527   6.147 -1.2089 -0.3691  0.1691
 6486SOL    HW224397   4.972   0.517   5.998  0.5805 -0.3100 -0.1705
 6487SOL     OW24398   9.234   6.801   7.178  0.3697 -0.3964 -0.2564
 6487SOL    HW124399   9.158   6.860   7.178 -0.1498 -1.0523 -1.0339
 6487SOL    HW224400   9.307   6.857   7.153  0.1586  0.2538  0.5322
 6488SOL     OW24401   2.667  11.513   5.568  0.3156 -0.0504 -0.9130
 6488SOL    HW124402   2.669  11.577   5.498 -0.0840  1.2072  0.1841
 6488SOL    HW224403   2.574  11.490   5.578  0.2694  0.3766 -0.2879
 6489SOL     OW24404   2.388   1.826   8.814 -0.3195 -0.1780 -0.6053
 6489SOL    HW124405   2.381   1.730   8.813  1.6009 -0.3703  0.2384
 6489SOL    HW224406   2.304   1.856   8.780 -0.0738 -2.2082 -3.3756
 6490SOL     OW24407   5.207   8.361   1.643 -0.5706  0.2320 -0.3187
 6490SOL    HW124408   5.140   8.408   1.593 -0.8316  0.6369  0.3906
 6490SOL    HW224409   5.289   8.380   1.597 -0.7520  0.9136 -0.3810
 6491SOL     OW24410   0.525   3.326   3.760  0.4818  0.4549  0.1198
 6491SOL    HW124411   0.591   3.354   3.697 -1.2842 -0.0048 -2.0400
 6491SOL    HW224412   0.468   3.402   3.771 -0.6533 -0.2301 -0.8183
 6492SOL     OW24413   8.126   9.576   3.715 -0.2903  0.0531 -0.4997
 6492SOL    HW124414   8.164   9.550   3.631  0.7566  0.4410 -0.1648
 6492SOL    HW224415   8.148   9.669   3.724  0.6763 -0.2569  0.7210
 6493SOL     OW24416   3.330   2.806   6.649 -1.0281  0.1690  0.4682
 6493SOL    HW124417   3.384   2.885   6.656 -1.9606  0.7516  1.3827
 6493SOL    HW224418   3.241   2.836   6.667 -1.5137 -0.9563  0.0281
 6494SOL     OW24419   7.480  10.882  11.145  0.1702 -0.2635  0.4796
 6494SOL    HW124420   7.416  10.811  11.141 -1.9691  1.5756 -2.2340
 6494SOL    HW224421   7.478  10.921  11.058  1.8754  2.5802  1.5656
 6495SOL     OW24422   4.049   6.958  10.895 -0.1432 -0.3076  0.0515
 6495SOL    HW124423   4.038   7.050  10.916  1.2752 -0.2331  0.5344
 6495SOL    HW224424   3.988   6.912  10.953 -0.4316  0.2766  0.2166
 6496SOL     OW24425   0.437   5.691  10.649  0.1010  0.1442  0.2634
 6496SOL    HW124426   0.379   5.656  10.580  0.6537 -0.3119  0.0216
 6496SOL    HW224427   0.403   5.778  10.667  0.4165  0.5824 -1.1498
 6497SOL     OW24428  10.811   4.558   1.019 -0.1058  0.8692  0.1429
 6497SOL    HW124429  10.806   4.645   0.979 -2.3138  0.3638 -0.8332
 6497SOL    HW224430  10.816   4.498   0.944  0.6926  0.1138  0.7864
 6498SOL     OW24431   6.776   9.765   6.600  0.0760  0.6349  0.1523
 6498SOL    HW124432   6.854   9.815   6.574  0.6046 -0.0494  0.3744
 6498SOL    HW224433   6.803   9.720   6.681 -0.2926 -0.2045 -0.1774
 6499SOL     OW24434   1.074   1.886   7.546  0.0591 -0.0767  0.1533
 6499SOL    HW124435   0.981   1.877   7.526 -0.2504  1.3664  0.8321
 6499SOL    HW224436   1.108   1.942   7.476  0.5369 -0.9415 -0.3344
 6500SOL     OW24437   3.995   4.279   9.358 -0.2882 -0.2355  0.1182
 6500SOL    HW124438   4.013   4.356   9.412 -0.1588 -1.0303  1.2412
 6500SOL    HW224439   3.918   4.303   9.306  1.3401  1.6473 -1.6016
 6501SOL     OW24440   3.145  11.141   2.645  0.1227  0.0672 -0.1704
 6501SOL    HW124441   3.130  11.229   2.678  1.2367 -0.8401  3.1891
 6501SOL    HW224442   3.058  11.101   2.641 -0.1797  0.6630  0.3540
 6502SOL     OW24443   2.036  10.400   5.524  0.5826 -0.0431  0.5664
 6502SOL    HW124444   2.100  10.409   5.594  1.1003 -0.6146  0.1789
 6502SOL    HW224445   2.059  10.318   5.480  0.6866  0.6209 -0.6865
 6503SOL     OW24446   6.895   9.277   4.154  0.3728  0.4195 -0.0434
 6503SOL    HW124447   6.964   9.211   4.141 -2.7833 -3.0398 -1.2825
 6503SOL    HW224448   6.868   9.301   4.065 -1.2952  0.0584  0.3230
 6504SOL     OW24449   8.924   5.311   0.601 -0.7503  0.1693 -0.1659
 6504SOL    HW124450   9.002   5.301   0.546  0.3556  0.2737  1.3088
 6504SOL    HW224451   8.892   5.399   0.581  0.7354  0.9414  0.6518
 6505SOL     OW24452   3.536   0.264   6.580 -0.1018  0.1841 -0.0975
 6505SOL    HW124453   3.564   0.219   6.660 -3.8819 -1.1799  0.6759
 6505SOL    HW224454   3.468   0.325   6.609  0.4144  1.7598 -1.9961
 6506SOL     OW24455   5.003  11.225   5.130  0.1729 -0.6760  0.8765
 6506SOL    HW124456   5.094  11.256   5.134  0.2265 -0.5778 -0.6082
 6506SOL    HW224457   5.004  11.157   5.063 -0.5528 -1.8402  1.9851
 6507SOL     OW24458   2.264   9.898   2.470  0.0330 -0.5483 -0.8664
 6507SOL    HW124459   2.335   9.928   2.527  0.5230 -0.7949 -1.3373
 6507SOL    HW224460   2.267   9.957   2.395 -1.0737  0.2311 -0.3214
 6508SOL     OW24461   4.553   3.745   6.513  0.4386  0.8711 -0.3127
 6508SOL    HW124462   4.460   3.738   6.536  0.8045 -1.9564  0.8408
 6508SOL    HW224463   4.580   3.830   6.546 -1.5102  1.2934  0.3069
 6509SOL     OW24464   5.658   4.227   8.047  0.4856  0.7786 -0.1997
 6509SOL    HW124465   5.717   4.155   8.066  0.9071  0.9324 -0.8977
 6509SOL    HW224466   5.573   4.185   8.030  0.7944  0.4155 -0.8953
 6510SOL     OW24467   6.757   3.037   3.677 -0.3810  0.3656 -0.9307
 6510SOL    HW124468   6.794   2.977   3.742  1.3000  2.0462 -0.2531
 6510SOL    HW224469   6.700   3.095   3.727 -0.6849  0.4039 -1.3125
 6511SOL     OW24470   3.787   4.578   3.886 -0.2487  0.0399  0.1713
 6511SOL    HW124471   3.767   4.573   3.792  1.4383  0.2045 -0.2317
 6511SOL    HW224472   3.820   4.667   3.898 -1.5087  0.4056  1.1806
 6512SOL     OW24473   2.900   1.317   0.388  0.6718 -0.1783  0.5261
 6512SOL    HW124474   2.905   1.411   0.405  0.2547 -0.2966  1.3322
 6512SOL    HW224475   2.986   1.295   0.351  1.9979 -0.0395  3.2297
 6513SOL     OW24476   7.671   5.304   2.793  0.5488 -0.3335  0.2966
 6513SOL    HW124477   7.643   5.212   2.790 -0.6802  0.0318 -0.2978
 6513SOL    HW224478   7.589   5.353   2.783  1.2038  0.8255  0.5372
 6514SOL     OW24479   6.612   7.783  10.153  0.3449  0.2030  0.0636
 6514SOL    HW124480   6.552   7.785  10.078 -0.8307 -0.5460  0.9412
 6514SOL    HW224481   6.576   7.847  10.214  2.0909  1.8534 -0.5398
 6515SOL     OW24482  11.267   3.036   7.217  0.0690  0.7330 -0.5916
 6515SOL    HW124483  11.280   3.066   7.306 -1.3565  0.4268 -0.2504
 6515SOL    HW224484  11.175   3.007   7.214  0.0702  0.7656 -2.1512
 6516SOL     OW24485   4.897   3.452   6.379 -0.0712  0.4436 -0.2452
 6516SOL    HW124486   4.934   3.500   6.305 -1.0680  2.4980  0.5334
 6516SOL    HW224487   4.884   3.517   6.447 -0.4940 -1.1393  1.2717
 6517SOL     OW24488  10.418  10.821   8.025 -0.0953  0.1673 -0.0658
 6517SOL    HW124489  10.395  10.908   7.994  0.6114  1.1133  1.8832
 6517SOL    HW224490  10.514  10.821   8.025 -0.0698  0.0360  1.5240
 6518SOL     OW24491   2.729   9.857   5.064 -0.4924 -0.6215  0.5591
 6518SOL    HW124492   2.756   9.884   5.152  0.3299  0.1927  0.0734
 6518SOL    HW224493   2.652   9.912   5.045  0.2972  0.3723  0.1521
 6519SOL     OW24494   6.711   5.836   4.119  0.0366  0.2511  0.3942
 6519SOL    HW124495   6.767   5.760   4.104 -1.5410 -0.4360 -2.8068
 6519SOL    HW224496   6.739   5.900   4.054 -0.8582  1.0921  0.8037
 6520SOL     OW24497   4.577   1.036  10.702 -0.4027  0.5091 -0.0509
 6520SOL    HW124498   4.556   1.047  10.609 -0.1993 -0.3581 -0.2015
 6520SOL    HW224499   4.541   0.951  10.725 -2.2367  1.5349  1.1838
 6521SOL     OW24500   1.936   8.978   1.119  0.3434 -0.6456  0.3404
 6521SOL    HW124501   1.852   9.012   1.151  0.2432  0.2032 -0.7603
 6521SOL    HW224502   1.973   8.931   1.194 -0.4243  0.2439  1.3133
 6522SOL     OW24503  10.955   2.974   2.042 -0.0588  0.5521  0.1468
 6522SOL    HW124504  11.039   2.955   2.000  1.2459  3.0238  1.3888
 6522SOL    HW224505  10.952   2.915   2.117 -0.7875 -1.4587 -1.3837
 6523SOL     OW24506   6.005   4.856   5.180 -0.4055  0.2576 -0.8848
 6523SOL    HW124507   5.965   4.773   5.208 -1.8154  1.0277 -0.5122
 6523SOL    HW224508   5.933   4.903   5.137  0.6568  0.8436 -2.0792
 6524SOL     OW24509   4.264   4.134   8.002 -0.2767  0.4888 -0.0819
 6524SOL    HW124510   4.207   4.101   8.071 -0.2167  1.2259  0.3312
 6524SOL    HW224511   4.262   4.229   8.013  0.4641  0.5607 -0.5123
 6525SOL     OW24512   4.476   6.411   7.389 -0.9231  0.4971 -0.3358
 6525SOL    HW124513   4.523   6.436   7.469 -0.8810 -0.2882 -0.1009
 6525SOL    HW224514   4.406   6.353   7.419  0.2263 -1.3358 -1.0089
 6526SOL     OW24515   8.338   3.430   2.087 -0.1937  0.7215  0.1068
 6526SOL    HW124516   8.304   3.462   2.003 -0.7749  1.3167  0.5515
 6526SOL    HW224517   8.323   3.336   2.085 -0.4257  0.7654 -0.3559
 6527SOL     OW24518   7.324   9.275   2.547 -0.1335 -0.2133 -0.1103
 6527SOL    HW124519   7.277   9.217   2.607  0.3169 -0.5525 -0.0827
 6527SOL    HW224520   7.309   9.363   2.581 -0.1333 -0.3825  0.3219
 6528SOL     OW24521   3.079   5.684   0.959 -0.8237  0.2954 -0.2002
 6528SOL    HW124522   3.123   5.620   1.014 -0.5196  1.0250  0.4236
 6528SOL    HW224523   2.987   5.680   0.986 -0.7460  0.3575  0.0782
 6529SOL     OW24524   5.140  10.666   6.891 -0.0092  0.2266 -0.6590
 6529SOL    HW124525   5.196  10.601   6.847 -1.5225 -0.7763 -1.1955
 6529SOL    HW224526   5.201  10.729   6.927  1.4052  0.4876 -3.2285
 6530SOL     OW24527  10.104   3.610   1.283  0.0378  0.6228  0.2158
 6530SOL    HW124528  10.180   3.650   1.241 -0.5687  2.4078  0.7546
 6530SOL    HW224529  10.133   3.589   1.371  0.7162 -1.3160 -0.4180
 6531SOL     OW24530   0.390   7.193   5.990  0.6988  0.0547  0.1562
 6531SOL    HW124531   0.377   7.166   6.081  1.4552  0.5130  0.4061
 6531SOL    HW224532   0.360   7.284   5.986  0.9106  0.1192  0.0053
 6532SOL     OW24533   2.389   1.178  11.037 -0.1357 -0.5990 -0.1659
 6532SOL    HW124534   2.328   1.139  11.100 -0.4522 -0.7720 -0.5727
 6532SOL    HW224535   2.367   1.136  10.954  1.2771 -1.4809 -0.1294
 6533SOL     OW24536   9.121   8.768   1.434  0.4167 -0.1120 -0.1217
 6533SOL    HW124537   9.079   8.763   1.520  1.7144  0.0594  0.5573
 6533SOL    HW224538   9.057   8.812   1.378  0.2791  1.5715  1.2656
 6534SOL     OW24539   3.533  10.793   5.492  0.2615  0.2004  0.6343
 6534SOL    HW124540   3.584  10.864   5.532  0.0314  0.8672 -0.2420
 6534SOL    HW224541   3.473  10.765   5.561 -0.2237  1.4276  0.7279
 6535SOL     OW24542   6.409  10.272   2.843  0.1133 -0.2089  0.0409
 6535SOL    HW124543   6.447  10.322   2.771  0.0606  0.6844  0.6181
 6535SOL    HW224544   6.323  10.245   2.811 -1.4089  3.0912  0.9154
 6536SOL     OW24545  10.665  10.757   0.003 -0.4060  0.3296  0.1872
 6536SOL    HW124546  10.720  10.680   0.012  1.1765  1.3414 -0.3445
 6536SOL    HW224547  10.580  10.731   0.039 -0.0434 -1.7593 -0.3630
 6537SOL     OW24548   3.456   7.691   4.028  0.3715 -0.0112 -0.1521
 6537SOL    HW124549   3.397   7.616   4.035 -1.0610  0.6371 -3.3473
 6537SOL    HW224550   3.425   7.752   4.095 -0.2290 -1.1439  0.6396
 6538SOL     OW24551   5.901   9.208  10.495  0.3688  0.6518 -0.2339
 6538SOL    HW124552   5.979   9.167  10.534  1.2288  1.0419 -1.4719
 6538SOL    HW224553   5.829   9.151  10.521  1.1225  0.0323  0.5874
 6539SOL     OW24554  11.013   9.907   2.085  0.0423  0.1951  0.2179
 6539SOL    HW124555  11.087   9.853   2.110 -0.2562 -1.4844 -2.1968
 6539SOL    HW224556  10.957   9.849   2.035 -0.3979  2.6501 -2.3744
 6540SOL     OW24557   7.173   2.748   8.173  0.6059  1.1170 -0.5976
 6540SOL    HW124558   7.245   2.717   8.119  1.1937  0.5908  0.4511
 6540SOL    HW224559   7.215   2.792   8.247 -0.1395  0.9465 -0.0537
 6541SOL     OW24560   7.123   8.337  11.598  0.2644  0.2820  0.3427
 6541SOL    HW124561   7.083   8.411  11.553  0.3759 -0.7058 -1.4829
 6541SOL    HW224562   7.214   8.337  11.568  0.1240 -0.9061 -0.1607
 6542SOL     OW24563   1.459   8.290   1.570 -0.7844  0.0577 -1.1098
 6542SOL    HW124564   1.378   8.250   1.601 -0.6777  1.3261  1.0378
 6542SOL    HW224565   1.528   8.229   1.599 -0.9137 -0.8355 -2.6102
 6543SOL     OW24566   4.142   7.118  11.416  0.1675  0.1780 -0.4384
 6543SOL    HW124567   4.170   7.105  11.506  0.3222  1.1375 -0.3399
 6543SOL    HW224568   4.066   7.061  11.407 -0.3485  0.6725  0.5563
 6544SOL     OW24569   8.767   7.514   2.524  0.0290  0.2611 -1.1463
 6544SOL    HW124570   8.733   7.433   2.485  1.5291 -1.0286  0.0754
 6544SOL    HW224571   8.833   7.545   2.462  1.1401 -0.7995 -0.5334
 6545SOL     OW24572   1.488   7.558   1.093  0.1916  0.5024 -0.3721
 6545SOL    HW124573   1.499   7.554   1.188  0.5447 -0.5970 -0.4383
 6545SOL    HW224574   1.528   7.641   1.068  0.4673  0.6145  0.3905
 6546SOL     OW24575   9.868   4.251   4.208  0.2854 -0.2365 -0.0868
 6546SOL    HW124576   9.921   4.296   4.274 -0.4890  2.2062 -1.0377
 6546SOL    HW224577   9.831   4.176   4.255  1.8040 -0.0585  1.5217
 6547SOL     OW24578   5.071   9.062  11.605  0.2753 -0.6702  0.1922
 6547SOL    HW124579   5.073   9.149  11.646 -0.8898 -1.2629  1.6287
 6547SOL    HW224580   5.126   9.008  11.661 -1.1267 -1.4341  0.9049
 6548SOL     OW24581   9.590   7.012   0.858 -0.3776  0.2009 -0.0573
 6548SOL    HW124582   9.591   6.984   0.949  0.7346  1.2683  0.2914
 6548SOL    HW224583   9.511   7.065   0.849 -0.8320 -0.4471  0.1080
 6549SOL     OW24584   6.135   5.089   4.628  0.0586 -0.0146 -0.1121
 6549SOL    HW124585   6.083   5.010   4.640 -0.6042  0.5172  0.5642
 6549SOL    HW224586   6.097   5.132   4.552 -0.4651  0.3581  0.3634
 6550SOL     OW24587   0.068   4.497   7.794  0.3482 -0.0754  0.2271
 6550SOL    HW124588   0.018   4.508   7.875  0.5600  0.4461  0.2888
 6550SOL    HW224589   0.017   4.542   7.727  1.4821  1.8997  0.5846
 6551SOL     OW24590   7.440   3.289   3.910 -0.3453 -0.2541 -0.0124
 6551SOL    HW124591   7.515   3.311   3.856  0.2117 -0.8364  0.5049
 6551SOL    HW224592   7.385   3.234   3.855  0.8872 -2.0018  0.4115
 6552SOL     OW24593   1.030   4.342   5.968  0.1115  0.1735  0.0719
 6552SOL    HW124594   1.095   4.361   6.035  1.8126  0.2996 -1.5556
 6552SOL    HW224595   1.051   4.401   5.895 -0.8175 -0.8952 -1.1150
 6553SOL     OW24596  10.668   7.281   9.460 -0.0703 -0.0412  0.0950
 6553SOL    HW124597  10.740   7.275   9.523 -0.3402 -0.5832  0.3588
 6553SOL    HW224598  10.667   7.373   9.434  1.1723 -0.1516 -0.4472
 6554SOL     OW24599   2.581   3.531   2.674 -0.3174  0.4433 -0.2926
 6554SOL    HW124600   2.660   3.521   2.728  0.3987  1.7441 -1.0477
 6554SOL    HW224601   2.605   3.597   2.610 -1.9162  0.5650 -0.7901
 6555SOL     OW24602   8.914   4.699   2.463  0.3536  0.0787  0.1155
 6555SOL    HW124603   8.838   4.716   2.408  0.8019  1.5944 -0.0807
 6555SOL    HW224604   8.939   4.609   2.442 -0.7983 -0.1079 -0.5294
 6556SOL     OW24605   4.721   2.857   4.933 -0.1888 -0.5152  0.3648
 6556SOL    HW124606   4.633   2.894   4.939 -0.0892 -0.3267  0.7064
 6556SOL    HW224607   4.775   2.929   4.901  0.5713  0.6361  3.7457
 6557SOL     OW24608   4.145   4.905  11.217  0.7235  0.3622  0.4107
 6557SOL    HW124609   4.068   4.960  11.234  0.6421  0.5448 -0.4807
 6557SOL    HW224610   4.114   4.816  11.229  0.2089  0.4100 -0.5349
 6558SOL     OW24611   8.622   2.679   9.888 -0.0688 -1.0013  0.4697
 6558SOL    HW124612   8.569   2.673   9.808  0.1081 -2.0871  0.4273
 6558SOL    HW224613   8.561   2.655   9.958 -0.5687  1.1136  0.8476
 6559SOL     OW24614   2.312  11.141   8.293 -0.0805 -0.3717 -0.5558
 6559SOL    HW124615   2.246  11.158   8.226 -0.5701  0.2344  0.0647
 6559SOL    HW224616   2.392  11.181   8.259 -0.5399  0.7015 -0.3915
 6560SOL     OW24617   7.264   5.027  11.004  0.1303 -0.0069  0.3611
 6560SOL    HW124618   7.332   4.983  11.055 -1.4439 -0.2765  2.3183
 6560SOL    HW224619   7.193   5.044  11.066 -0.4980  2.8079 -0.9513
 6561SOL     OW24620   8.517   7.129   5.212  0.3315 -0.0749  0.1052
 6561SOL    HW124621   8.492   7.060   5.151 -1.1493 -0.0644  0.6337
 6561SOL    HW224622   8.603   7.104   5.244  1.2619  0.0538 -2.1299
 6562SOL     OW24623   5.435   4.552   2.719  0.2268  0.1073 -0.7514
 6562SOL    HW124624   5.492   4.503   2.778  1.8200 -0.0282 -2.3189
 6562SOL    HW224625   5.465   4.528   2.631 -1.1467  1.3607 -1.6142
 6563SOL     OW24626   4.618   4.649   2.174  0.0968 -0.6398 -0.4321
 6563SOL    HW124627   4.588   4.684   2.258  2.0599  1.5106 -0.5113
 6563SOL    HW224628   4.699   4.697   2.156  2.2808 -4.3330 -1.3536
 6564SOL     OW24629   4.027   8.230   0.587  0.5429  0.6555 -0.1833
 6564SOL    HW124630   3.987   8.286   0.521  0.6504  2.1523  0.9671
 6564SOL    HW224631   3.957   8.172   0.616  0.3220  0.4487 -1.1251
 6565SOL     OW24632   3.258   9.072  10.477  0.0226  0.2139 -0.8135
 6565SOL    HW124633   3.264   9.095  10.384  1.8741  1.0487 -0.5216
 6565SOL    HW224634   3.278   8.978  10.479  0.2494  0.2492 -1.2352
 6566SOL     OW24635   2.942   9.591  11.130 -0.1020 -0.5117  0.5080
 6566SOL    HW124636   2.982   9.504  11.125 -0.6015 -0.7294  0.3059
 6566SOL    HW224637   3.012   9.647  11.164 -0.2891 -1.3062  2.2789
 6567SOL     OW24638   3.763   1.646   6.213 -0.2930  0.8341  0.0868
 6567SOL    HW124639   3.697   1.674   6.149  0.9596  0.4119 -1.4495
 6567SOL    HW224640   3.760   1.550   6.209  0.2968  0.8135  0.1401
 6568SOL     OW24641  10.892   5.667   6.144  0.2024 -0.0089 -0.0510
 6568SOL    HW124642  10.961   5.732   6.130  0.2760  0.5428  2.4156
 6568SOL    HW224643  10.812   5.711   6.117  0.7045 -0.4927 -2.5029
 6569SOL     OW24644  11.256   7.690   7.983  0.8312 -0.3206  0.1966
 6569SOL    HW124645  11.241   7.771   8.031  0.7085  0.1514 -0.6131
 6569SOL    HW224646  11.254   7.622   8.050  2.0550  0.4447  1.0522
 6570SOL     OW24647   5.336   0.313   4.156 -0.5744  0.0101 -0.3722
 6570SOL    HW124648   5.363   0.367   4.229 -0.0246 -0.1889 -0.4254
 6570SOL    HW224649   5.340   0.370   4.080  0.9439 -0.3488 -0.5830
 6571SOL     OW24650   0.453  11.235  10.240 -0.3211 -0.4428  0.0675
 6571SOL    HW124651   0.406  11.304  10.288  1.7895  0.4347  1.0103
 6571SOL    HW224652   0.520  11.204  10.302 -0.1776 -2.2337 -0.9115
 6572SOL     OW24653   3.598   2.587  11.243  0.4599  0.2829 -0.5838
 6572SOL    HW124654   3.553   2.608  11.325  0.9062 -2.5394  0.5095
 6572SOL    HW224655   3.675   2.644  11.242 -0.6576  1.8641 -0.1478
 6573SOL     OW24656   2.209   4.324   0.737  0.3424  0.0620 -0.5319
 6573SOL    HW124657   2.283   4.265   0.751  0.1916  0.0821  0.3874
 6573SOL    HW224658   2.142   4.269   0.696 -0.0236 -0.5944  0.8678
 6574SOL     OW24659   5.973  11.186   4.420  0.4121  0.4093 -0.3251
 6574SOL    HW124660   5.991  11.252   4.353 -1.5518 -0.2818 -1.6195
 6574SOL    HW224661   5.972  11.234   4.503  0.6245  1.7028 -1.0607
 6575SOL     OW24662   9.303   4.740  10.961  0.2623  0.1269  0.4405
 6575SOL    HW124663   9.236   4.779  11.016  1.9671  0.8312  2.1250
 6575SOL    HW224664   9.340   4.814  10.912  0.4378 -0.1117  0.2103
 6576SOL     OW24665   5.743   9.807   9.449 -0.4123  0.2617  0.1519
 6576SOL    HW124666   5.777   9.895   9.432  1.2059 -0.5833 -1.2931
 6576SOL    HW224667   5.736   9.803   9.545 -0.0133  1.7779  0.2787
 6577SOL     OW24668   2.770   2.254   5.852 -0.0807  0.3925  0.1821
 6577SOL    HW124669   2.698   2.237   5.791  0.7458  0.3419 -0.8146
 6577SOL    HW224670   2.804   2.339   5.824 -0.0237  0.6164  0.9246
 6578SOL     OW24671  11.266   8.989   8.959 -0.1211  0.5911  0.1399
 6578SOL    HW124672  11.285   9.056   9.024 -0.2426  1.4091 -0.6320
 6578SOL    HW224673  11.172   8.999   8.942 -0.1494  0.1919  0.0457
 6579SOL     OW24674  11.120  10.301   2.733 -0.0526  0.5666 -0.1261
 6579SOL    HW124675  11.097  10.213   2.700  0.8681 -0.1887  1.1721
 6579SOL    HW224676  11.182  10.335   2.669  2.1826 -1.1239  1.0255
 6580SOL     OW24677   8.976   2.500   1.671 -0.0654  0.0243  0.3003
 6580SOL    HW124678   8.941   2.537   1.752  1.6549 -0.4018  1.3147
 6580SOL    HW224679   9.060   2.461   1.698  0.7313  0.2014 -1.7756
 6581SOL     OW24680   0.803   4.216   3.718  0.7093  0.6661 -0.1705
 6581SOL    HW124681   0.869   4.188   3.654  1.8578 -0.0859  1.2994
 6581SOL    HW224682   0.783   4.306   3.693  1.8268  0.7113 -1.0161
 6582SOL     OW24683   1.073   4.911   4.089  0.4750  0.1994 -0.0133
 6582SOL    HW124684   1.098   4.982   4.029 -2.0334  0.9628 -0.2649
 6582SOL    HW224685   1.110   4.938   4.174  0.7880  1.0765 -0.4120
 6583SOL     OW24686   7.416  10.955   6.454  0.8320 -0.1949 -0.2430
 6583SOL    HW124687   7.412  11.032   6.511 -2.4596  1.0062 -1.7757
 6583SOL    HW224688   7.342  10.901   6.482  0.2899 -0.4859 -2.0784
 6584SOL     OW24689   8.102   3.185   8.389  0.0016 -0.0171 -0.0849
 6584SOL    HW124690   8.155   3.121   8.340  0.2027  1.8877 -2.5400
 6584SOL    HW224691   8.113   3.159   8.481  1.5609 -2.3649 -0.8277
 6585SOL     OW24692   8.219   8.005   9.791 -0.6135 -0.1943 -0.3970
 6585SOL    HW124693   8.147   7.954   9.827 -0.2606  0.3573  1.1620
 6585SOL    HW224694   8.297   7.952   9.807 -0.5742 -0.5144 -1.5359
 6586SOL     OW24695   2.772   5.052   7.894 -0.3105  0.1410 -0.5415
 6586SOL    HW124696   2.791   5.144   7.877 -0.9430  0.0828 -1.6622
 6586SOL    HW224697   2.726   5.051   7.979  2.1858  0.5369  0.9059
 6587SOL     OW24698   3.086   6.795   1.839  0.1895 -0.1726 -0.2400
 6587SOL    HW124699   3.142   6.777   1.764 -0.7679 -0.6283 -0.8468
 6587SOL    HW224700   3.000   6.760   1.816 -0.2814  0.2244  0.8129
 6588SOL     OW24701   2.045   2.540   1.315  0.0180  0.5666 -0.5033
 6588SOL    HW124702   2.126   2.525   1.266 -1.0207 -0.4748 -2.0200
 6588SOL    HW224703   2.024   2.455   1.354 -0.2105  0.8948  0.0948
 6589SOL     OW24704   8.197  11.293   9.755 -0.1047  0.2631  0.5194
 6589SOL    HW124705   8.209  11.381   9.790 -1.2396  1.1079 -1.0627
 6589SOL    HW224706   8.268  11.282   9.692  0.2429 -0.1141  0.9685
 6590SOL     OW24707   4.815   6.600   9.925  0.1510 -0.6967  0.0522
 6590SOL    HW124708   4.795   6.691   9.904  0.8964 -0.5732 -0.1690
 6590SOL    HW224709   4.908   6.600   9.947  0.1238 -1.3768  0.2155
 6591SOL     OW24710   7.366  10.617  11.136 -0.1388  0.1733 -0.0692
 6591SOL    HW124711   7.350  10.534  11.180  1.1473  0.3647  0.8315
 6591SOL    HW224712   7.279  10.652  11.117 -0.7057 -1.7763 -1.2889
 6592SOL     OW24713  10.668   9.497   4.451  0.0101 -0.1899  0.0092
 6592SOL    HW124714  10.581   9.519   4.419 -0.1520  0.1997  0.6929
 6592SOL    HW224715  10.663   9.404   4.474  0.0002 -0.3593 -0.6544
 6593SOL     OW24716  10.141   8.060   9.429  0.1550  0.1568  0.0572
 6593SOL    HW124717  10.126   8.012   9.511  1.5882  1.1771  0.9521
 6593SOL    HW224718  10.218   8.113   9.446 -1.1235  2.5248 -1.0140
 6594SOL     OW24719   0.597   5.235   8.758  0.0999 -0.0726  0.1549
 6594SOL    HW124720   0.629   5.310   8.709  0.2882  2.8150  4.1548
 6594SOL    HW224721   0.526   5.271   8.813  0.0577 -2.8375  2.1353
 6595SOL     OW24722  11.100   8.632   9.914  0.1565  0.5795  0.4487
 6595SOL    HW124723  11.053   8.550   9.925  2.2078 -0.7760 -0.2257
 6595SOL    HW224724  11.032   8.699   9.912 -1.7085 -1.2421 -0.4976
 6596SOL     OW24725   0.950   4.329   2.224  0.2255  0.0082  0.3256
 6596SOL    HW124726   0.976   4.275   2.299 -0.6836  1.9031  2.1078
 6596SOL    HW224727   0.858   4.305   2.208  0.5217 -0.6466 -0.4391
 6597SOL     OW24728   2.528   5.007   8.860  0.6593  0.0351 -0.0562
 6597SOL    HW124729   2.506   4.979   8.948  0.4432  0.1427 -0.0742
 6597SOL    HW224730   2.576   5.089   8.872  0.8043 -0.0545 -0.0295
 6598SOL     OW24731   3.212  10.543   6.200 -0.1774 -0.2122  0.6071
 6598SOL    HW124732   3.227  10.511   6.289 -0.1934 -1.3804  0.2087
 6598SOL    HW224733   3.297  10.576   6.171  0.1315 -0.9847  0.6146
 6599SOL     OW24734   6.213   3.978   2.242  0.8912  0.2674  0.2135
 6599SOL    HW124735   6.196   4.036   2.167 -0.2748 -1.4203 -0.9048
 6599SOL    HW224736   6.227   3.892   2.203  1.7165 -0.3842  1.8756
 6600SOL     OW24737   0.325  10.975   6.674  1.0772 -0.1516 -0.1036
 6600SOL    HW124738   0.322  10.881   6.654  0.3111 -0.2934  0.6226
 6600SOL    HW224739   0.385  10.981   6.748  1.3510 -0.0228 -0.3321
 6601SOL     OW24740  11.645   2.591   1.010  0.2123 -0.0594  0.1627
 6601SOL    HW124741  11.644   2.591   0.914  0.5174 -0.5799  0.1609
 6601SOL    HW224742  11.674   2.504   1.034  0.3276  0.1323  0.7306
 6602SOL     OW24743   1.119  10.036   6.052 -0.7345 -0.2788  0.5401
 6602SOL    HW124744   1.050  10.085   6.007 -0.4550 -0.3458  0.0215
 6602SOL    HW224745   1.196  10.046   5.995 -0.2479  0.0098  1.2354
 6603SOL     OW24746   8.074   0.689   0.166 -0.3860  0.2764  0.5381
 6603SOL    HW124747   8.153   0.684   0.219  1.1462 -1.3694 -1.6846
 6603SOL    HW224748   8.068   0.603   0.123 -3.2731  0.4303  0.4281
 6604SOL     OW24749  11.375   5.771   5.969 -0.5656 -0.0638  0.3313
 6604SOL    HW124750  11.319   5.833   5.923 -0.4720  0.7761  1.3327
 6604SOL    HW224751  11.414   5.821   6.040  2.2176 -0.3469 -0.8485
 6605SOL     OW24752   3.539   7.017   4.769  0.1120  0.2220  0.3042
 6605SOL    HW124753   3.549   7.112   4.765 -0.4234  0.3232  1.3029
 6605SOL    HW224754   3.445   7.002   4.769  0.1933 -0.3130  0.2578
 6606SOL     OW24755  11.124   5.370   9.117  0.7185  0.3315  0.4665
 6606SOL    HW124756  11.086   5.353   9.203 -0.3481 -0.8133 -0.2041
 6606SOL    HW224757  11.086   5.453   9.089  1.7550  1.1834  1.4363
 6607SOL     OW24758   1.817   8.892   3.429  0.2929 -0.1201  0.0292
 6607SOL    HW124759   1.894   8.865   3.378 -1.0127 -2.2824 -0.9386
 6607SOL    HW224760   1.823   8.841   3.510  0.2085  0.2047  0.2435
 6608SOL     OW24761   1.106   1.676   9.349  0.2708  0.0068  0.0158
 6608SOL    HW124762   1.172   1.735   9.384  0.5211  0.4039 -1.0900
 6608SOL    HW224763   1.117   1.595   9.399  1.2186  0.2476  0.2088
 6609SOL     OW24764   6.358   1.866   9.997 -0.1499  0.2145 -0.4466
 6609SOL    HW124765   6.349   1.818  10.080 -0.4213 -0.4483 -0.8561
 6609SOL    HW224766   6.301   1.942  10.007 -0.1437  0.1661 -0.0033
 6610SOL     OW24767   9.499   3.000   9.663  0.0513  0.0734 -0.6953
 6610SOL    HW124768   9.472   3.074   9.609 -0.7375  0.8213  0.6874
 6610SOL    HW224769   9.436   2.997   9.735 -0.5718 -2.5953 -1.2429
 6611SOL     OW24770  10.142   0.539  10.765 -0.0674 -0.0581  0.1705
 6611SOL    HW124771  10.092   0.475  10.714  1.4776 -0.0478 -1.4723
 6611SOL    HW224772  10.210   0.570  10.704  2.1726 -0.3447  2.3768
 6612SOL     OW24773   6.712   5.410   3.153 -0.1207  0.0327  0.2706
 6612SOL    HW124774   6.708   5.362   3.071 -0.2023 -0.9429  0.8339
 6612SOL    HW224775   6.805   5.415   3.175 -0.0553  0.7267 -0.1122
 6613SOL     OW24776   0.308   9.621   1.002  0.2969  0.0172  0.1520
 6613SOL    HW124777   0.322   9.626   1.097  0.4176 -0.3478  0.1577
 6613SOL    HW224778   0.225   9.575   0.992 -0.2215  0.9619  0.0939
 6614SOL     OW24779   6.203   2.837   1.222 -0.8824 -0.2398  0.4360
 6614SOL    HW124780   6.241   2.750   1.211  1.0857  0.7083 -0.7565
 6614SOL    HW224781   6.147   2.848   1.145  1.4285  0.7269 -1.2253
 6615SOL     OW24782   5.874   0.535   9.934 -0.0183 -0.2572  0.1011
 6615SOL    HW124783   5.949   0.508   9.882 -0.3215  1.3893 -1.2723
 6615SOL    HW224784   5.838   0.611   9.888  0.1845  1.8296  3.0996
 6616SOL     OW24785  10.399   5.204   8.076 -0.0356 -0.9338  0.4113
 6616SOL    HW124786  10.355   5.206   7.991 -0.5791 -0.4791  0.7000
 6616SOL    HW224787  10.388   5.114   8.106 -2.3015 -0.4322  1.2575
 6617SOL     OW24788   1.612   9.840   0.262 -0.3445 -0.0421 -0.0596
 6617SOL    HW124789   1.661   9.783   0.204 -0.7767 -0.1555 -0.3107
 6617SOL    HW224790   1.523   9.842   0.226 -0.6425 -0.1922  0.6443
 6618SOL     OW24791   1.306   9.825   5.395 -0.7046 -0.4603  0.4932
 6618SOL    HW124792   1.243   9.864   5.455 -1.0672  0.1082 -0.2396
 6618SOL    HW224793   1.383   9.807   5.449 -0.3810  1.5870  0.8149
 6619SOL     OW24794   7.271   1.868   8.197 -0.6696 -0.1520 -0.5573
 6619SOL    HW124795   7.238   1.922   8.268 -0.1357  0.7548 -0.9703
 6619SOL    HW224796   7.241   1.912   8.117 -0.7318 -0.8023 -0.9018
 6620SOL     OW24797   8.489   9.002   0.470 -0.3038 -0.3020 -0.5940
 6620SOL    HW124798   8.421   9.032   0.409 -0.7260  0.6177  0.3044
 6620SOL    HW224799   8.498   8.908   0.452 -0.2959 -0.0247 -2.1844
 6621SOL     OW24800  10.105   3.094   2.526 -0.0979  0.6883 -0.2100
 6621SOL    HW124801  10.190   3.058   2.551 -0.5893 -0.2756  0.1385
 6621SOL    HW224802  10.042   3.031   2.559 -1.0929  2.5018  1.5766
 6622SOL     OW24803   4.480   5.522   1.626 -0.2802  0.1089 -0.5264
 6622SOL    HW124804   4.511   5.598   1.576  0.0278  0.2217 -0.1645
 6622SOL    HW224805   4.551   5.503   1.686 -0.6514 -0.0304 -0.1309
 6623SOL     OW24806   2.681   3.147   0.715 -0.4700  0.1849 -0.3494
 6623SOL    HW124807   2.671   3.075   0.778 -0.9905  0.9442  0.4578
 6623SOL    HW224808   2.740   3.112   0.647  1.0494 -0.2731  1.1368
 6624SOL     OW24809   1.222   9.763   3.644  0.6078 -0.3633 -0.2597
 6624SOL    HW124810   1.150   9.826   3.646 -0.0756 -1.1498  0.1327
 6624SOL    HW224811   1.294   9.812   3.603 -0.0287  0.5405 -0.3474
 6625SOL     OW24812   0.127   3.663   8.656  0.0822 -0.6310 -0.0221
 6625SOL    HW124813   0.160   3.747   8.625 -1.5147 -0.3859 -1.1830
 6625SOL    HW224814   0.146   3.602   8.584 -1.8154 -0.5093 -0.6537
 6626SOL     OW24815   6.733  10.717   5.439  0.3183  0.0345 -0.2874
 6626SOL    HW124816   6.666  10.747   5.377  0.1860  1.7027  0.6225
 6626SOL    HW224817   6.683  10.675   5.509  0.2054  1.0990  0.2911
 6627SOL     OW24818   0.618   1.850   5.298 -0.0579 -0.4355 -0.4850
 6627SOL    HW124819   0.549   1.853   5.233  1.5025 -1.6068 -2.2915
 6627SOL    HW224820   0.601   1.770   5.347 -0.2728 -0.4367 -0.5609
 6628SOL     OW24821  10.314   0.848   1.441 -0.1892 -0.3802  0.7776
 6628SOL    HW124822  10.311   0.779   1.508  0.9108 -1.3980 -0.1696
 6628SOL    HW224823  10.344   0.803   1.362 -0.4252  1.0056 -0.1296
 6629SOL     OW24824   9.239   7.501   6.543  0.1013  0.4334 -0.6924
 6629SOL    HW124825   9.269   7.542   6.462  0.0038  1.0371 -0.4321
 6629SOL    HW224826   9.219   7.575   6.601  0.9203  0.0048  0.1578
 6630SOL     OW24827   3.343   8.489   1.957  0.3602 -0.0059  0.0325
 6630SOL    HW124828   3.324   8.418   1.896  0.3914 -0.9293  1.0684
 6630SOL    HW224829   3.263   8.541   1.959 -0.8225 -1.7480  1.5368
 6631SOL     OW24830   5.967   3.088  11.338 -0.0099  0.2569  0.2812
 6631SOL    HW124831   5.944   3.140  11.415  1.2873  1.7203 -0.2718
 6631SOL    HW224832   6.057   3.114  11.317 -0.4208  0.1064 -1.8834
 6632SOL     OW24833   6.378   9.917   7.295 -0.2955 -0.5206 -0.0946
 6632SOL    HW124834   6.428   9.855   7.242  2.1937  1.5462 -0.3435
 6632SOL    HW224835   6.391   9.888   7.385  0.4390 -0.6733 -0.2417
 6633SOL     OW24836   5.262   8.018   4.645  0.1992 -0.1330 -0.0678
 6633SOL    HW124837   5.263   7.933   4.688 -0.7360 -0.5707 -0.8763
 6633SOL    HW224838   5.213   8.004   4.564 -2.6518  1.8209  1.1757
 6634SOL     OW24839   9.093   7.884   7.471 -0.2124  0.5945  0.2422
 6634SOL    HW124840   9.080   7.790   7.484  0.2764  0.6307  1.0622
 6634SOL    HW224841   9.187   7.895   7.459 -0.5212  0.6670 -2.8390
 6635SOL     OW24842   3.881   1.763   4.833 -0.5944 -0.0581  0.1298
 6635SOL    HW124843   3.828   1.790   4.758  0.4887 -0.6791 -0.8787
 6635SOL    HW224844   3.882   1.840   4.891  0.6250  1.3437 -1.6578
 6636SOL     OW24845   2.375   5.584   2.983  0.0487  0.1145  0.1517
 6636SOL    HW124846   2.375   5.588   3.079  0.7632  1.2620  0.1177
 6636SOL    HW224847   2.464   5.557   2.960 -0.4656 -1.4403 -0.1793
 6637SOL     OW24848   4.043   7.085   2.713  0.1694  0.2862 -0.6002
 6637SOL    HW124849   4.081   7.160   2.667 -1.9343  1.7003 -0.1471
 6637SOL    HW224850   3.992   7.039   2.647 -0.6510  0.7609 -0.3058
 6638SOL     OW24851   6.623   7.355   8.869  0.3860 -0.3059  0.4853
 6638SOL    HW124852   6.674   7.357   8.950 -1.0857  1.6373  1.4719
 6638SOL    HW224853   6.679   7.311   8.805  1.9397 -1.1303  2.3246
 6639SOL     OW24854   6.125   3.800   1.678 -0.0396  0.4954 -0.7199
 6639SOL    HW124855   6.079   3.789   1.761  0.6017 -0.8754 -0.5222
 6639SOL    HW224856   6.113   3.893   1.656 -0.5564  0.7893  0.6913
 6640SOL     OW24857   3.056   5.050   1.425  0.1744 -0.1656 -0.1651
 6640SOL    HW124858   3.147   5.069   1.403  0.3971 -3.2008 -2.5148
 6640SOL    HW224859   3.008   5.068   1.344 -0.9839 -0.4891  0.4302
 6641SOL     OW24860   6.442   6.379   7.337  0.3186 -0.2029  0.0455
 6641SOL    HW124861   6.415   6.375   7.429  1.6757 -1.3232  0.4257
 6641SOL    HW224862   6.375   6.434   7.295 -0.5094  0.0554  1.6210
 6642SOL     OW24863   2.361   2.723   8.603 -0.0889  0.2578  0.0967
 6642SOL    HW124864   2.265   2.724   8.602 -0.1027 -0.0523  0.7358
 6642SOL    HW224865   2.385   2.643   8.557 -0.2210 -1.3246  2.5922
 6643SOL     OW24866   9.732   8.434   5.584 -0.3612 -0.7037 -0.4903
 6643SOL    HW124867   9.658   8.442   5.644 -2.0469 -1.8927 -2.2608
 6643SOL    HW224868   9.799   8.388   5.634 -1.1939 -0.5156  0.8568
 6644SOL     OW24869   8.076   4.360   3.440 -0.4305  0.2120  0.0622
 6644SOL    HW124870   8.037   4.335   3.356  0.4471 -1.3270  0.0670
 6644SOL    HW224871   8.170   4.360   3.424 -0.2740  0.3051  0.9328
 6645SOL     OW24872   6.229   9.012   3.786  0.2471  0.3914  0.2249
 6645SOL    HW124873   6.192   9.101   3.781 -0.3084  0.0889 -2.1915
 6645SOL    HW224874   6.190   8.974   3.864 -2.5850  1.0140 -0.7706
 6646SOL     OW24875   7.148   2.820   4.378 -0.6714 -0.5021  0.0607
 6646SOL    HW124876   7.157   2.784   4.466 -0.4152 -1.8465 -0.4823
 6646SOL    HW224877   7.060   2.795   4.350 -0.1747 -1.5302 -0.6550
 6647SOL     OW24878   5.829   9.314   8.638  0.1709 -0.5776 -0.6963
 6647SOL    HW124879   5.786   9.400   8.642  0.4890 -0.4609  0.5581
 6647SOL    HW224880   5.880   9.317   8.558  2.7858  1.6907  0.8733
 6648SOL     OW24881   3.350   5.881   0.779  0.0369 -0.3899 -0.2342
 6648SOL    HW124882   3.404   5.906   0.703  1.2750 -0.8833  0.4558
 6648SOL    HW224883   3.317   5.794   0.757 -1.9254  0.5711 -1.3893
 6649SOL     OW24884   6.768   5.440   2.236  0.5209  0.0616  0.0548
 6649SOL    HW124885   6.725   5.360   2.265  1.1410  0.1200  1.2012
 6649SOL    HW224886   6.736   5.454   2.147 -1.7047  0.0254  0.7964
 6650SOL     OW24887   1.679   4.134   7.806 -0.5879  0.1712 -0.2400
 6650SOL    HW124888   1.611   4.160   7.743  0.8334  1.9513 -1.1228
 6650SOL    HW224889   1.669   4.195   7.879  1.2471  1.7802 -1.2553
 6651SOL     OW24890   1.723   7.567   8.987 -0.0698 -0.2269 -0.6168
 6651SOL    HW124891   1.747   7.503   8.920  0.6236 -1.0141  0.3575
 6651SOL    HW224892   1.632   7.546   9.009  0.2093 -1.0234 -0.1753
 6652SOL     OW24893   3.873   6.095   0.864 -0.4307 -0.1106 -0.6759
 6652SOL    HW124894   3.849   6.017   0.913  0.3012 -0.4339 -0.8261
 6652SOL    HW224895   3.852   6.074   0.773 -1.6924  0.4509 -0.5423
 6653SOL     OW24896   3.882   0.674   7.336 -0.3576  0.2902 -0.1618
 6653SOL    HW124897   3.831   0.607   7.290  0.2377 -0.8664  0.8223
 6653SOL    HW224898   3.818   0.743   7.356 -1.2389 -0.5138 -0.1382
 6654SOL     OW24899   1.101  10.844   4.015  0.1656 -0.4441 -0.1866
 6654SOL    HW124900   1.180  10.890   4.045  2.0617 -2.0703 -2.3535
 6654SOL    HW224901   1.029  10.893   4.055  2.2136  1.2650  1.7271
 6655SOL     OW24902   2.694  11.197   6.799  0.1757  0.1874  0.2676
 6655SOL    HW124903   2.765  11.136   6.781 -1.2121 -1.3596 -0.1526
 6655SOL    HW224904   2.663  11.226   6.713  1.8194  2.7893  0.4429
 6656SOL     OW24905   9.509   3.594   5.022 -0.6758  0.5263 -0.0103
 6656SOL    HW124906   9.604   3.607   5.011 -0.4969  0.2534  1.0749
 6656SOL    HW224907   9.485   3.531   4.954  0.2475 -0.6553  0.7110
 6657SOL     OW24908   4.377  11.116   3.173  0.0398 -0.0671  0.2169
 6657SOL    HW124909   4.337  11.173   3.238  2.1539  0.2253  1.3554
 6657SOL    HW224910   4.355  11.157   3.089 -0.8577  0.8079  0.8503
 6658SOL     OW24911   2.004   2.783   2.736 -0.5562  0.1752 -0.0183
 6658SOL    HW124912   1.952   2.730   2.797 -0.3595 -0.8731 -0.7368
 6658SOL    HW224913   1.998   2.872   2.771  0.1546 -0.4950  1.9516
 6659SOL     OW24914  10.457   2.404   2.674  0.2842 -0.7818  0.2111
 6659SOL    HW124915  10.392   2.471   2.696 -0.6666 -1.7366  0.4519
 6659SOL    HW224916  10.458   2.402   2.579  0.1005 -0.6172  0.2036
 6660SOL     OW24917   4.084  10.864   0.923 -0.0171  0.4414  0.2470
 6660SOL    HW124918   4.070  10.818   0.841  1.1296  2.9439 -1.4730
 6660SOL    HW224919   3.998  10.901   0.945 -0.2323  0.1175 -0.0397
 6661SOL     OW24920  10.650   0.511  10.823  0.0045  0.1122  0.2747
 6661SOL    HW124921  10.699   0.589  10.847 -0.6526  0.2833  1.0924
 6661SOL    HW224922  10.693   0.479  10.743  2.8726 -1.0026  2.1100
 6662SOL     OW24923   3.323   8.459   7.226 -0.5516 -0.3151  0.2748
 6662SOL    HW124924   3.231   8.438   7.238 -0.6855  0.9092  1.6666
 6662SOL    HW224925   3.369   8.407   7.292 -0.2916 -0.6129 -0.1381
 6663SOL     OW24926   0.980  10.914   2.523 -0.3423 -0.1975  0.0353
 6663SOL    HW124927   1.043  10.962   2.470  0.3662 -0.0787  0.9662
 6663SOL    HW224928   0.972  10.964   2.604 -0.6277 -0.9129  0.4657
 6664SOL     OW24929  11.107  11.535   1.006  0.0799  0.6762  0.1690
 6664SOL    HW124930  11.012  11.533   1.020  0.2516  1.7622  1.6904
 6664SOL    HW224931  11.122  11.613   0.952  0.1995  1.1694  0.9004
 6665SOL     OW24932   9.361  11.504   9.350 -0.2297 -0.7923  0.0832
 6665SOL    HW124933   9.345  11.410   9.345  0.0723 -0.9399  1.4488
 6665SOL    HW224934   9.313  11.533   9.428 -1.8553  0.5479 -1.3304
 6666SOL     OW24935  10.840   2.050   2.941  1.0801  0.6178 -0.2737
 6666SOL    HW124936  10.792   2.090   3.014  0.3389  2.8094 -1.8365
 6666SOL    HW224937  10.794   1.968   2.925 -2.1824  2.4838 -1.5155
 6667SOL     OW24938   0.250   8.271   3.221  0.1813  0.0587  0.0011
 6667SOL    HW124939   0.199   8.262   3.141  2.6046  1.5631 -1.8514
 6667SOL    HW224940   0.200   8.332   3.275 -2.0291 -1.8180  0.2110
 6668SOL     OW24941   5.904  10.062   8.800 -0.1546 -0.2094  0.0551
 6668SOL    HW124942   5.849  10.086   8.875 -1.0461 -0.9171 -0.3402
 6668SOL    HW224943   5.972  10.129   8.797 -2.5354  2.3359 -1.0453
 6669SOL     OW24944   5.400   5.188   7.583 -0.2234 -0.5328 -0.2408
 6669SOL    HW124945   5.419   5.095   7.596  0.5665 -0.3258  0.1448
 6669SOL    HW224946   5.481   5.225   7.549 -0.8644 -0.1708 -1.4211
 6670SOL     OW24947   1.825   9.901   1.608  0.1597 -0.4727 -0.1292
 6670SOL    HW124948   1.833   9.841   1.534 -1.1496 -1.6518  0.6209
 6670SOL    HW224949   1.775   9.975   1.573  0.0697 -0.7397 -0.5768
 6671SOL     OW24950   9.413   2.508  11.336  0.3111 -0.1313  0.1304
 6671SOL    HW124951   9.441   2.427  11.293 -0.0428 -0.4233  0.4399
 6671SOL    HW224952   9.492   2.562  11.340  0.5801 -0.5157  0.0390
 6672SOL     OW24953   8.909   6.340   0.626  0.5165 -0.4585  0.5047
 6672SOL    HW124954   8.825   6.336   0.672  1.1257 -0.9642  1.6386
 6672SOL    HW224955   8.935   6.432   0.631  0.0357 -0.2996  0.1457
 6673SOL     OW24956   0.744   3.461   4.212  0.3351  0.7958 -0.2839
 6673SOL    HW124957   0.769   3.371   4.235 -0.8553  0.0822 -1.5746
 6673SOL    HW224958   0.648   3.460   4.214  0.3075  2.2826  0.4789
 6674SOL     OW24959   0.174   1.223  11.034  0.5654  0.5135 -0.3547
 6674SOL    HW124960   0.085   1.239  11.065  1.3553  4.4155  0.4099
 6674SOL    HW224961   0.163   1.200  10.942 -1.2623  3.6826 -1.0886
 6675SOL     OW24962   8.848   9.551   0.157 -0.2222  0.2693 -0.3442
 6675SOL    HW124963   8.909   9.484   0.125 -0.5774 -0.2422  0.0114
 6675SOL    HW224964   8.845   9.617   0.088  0.7072  0.2883 -0.3786
 6676SOL     OW24965   5.619  11.518   6.319 -0.2612 -0.1831  0.2069
 6676SOL    HW124966   5.567  11.461   6.375 -0.1735 -0.8712 -0.3951
 6676SOL    HW224967   5.671  11.570   6.380 -0.1359 -0.9432  0.7740
 6677SOL     OW24968   1.702   4.887   2.517 -0.0349 -0.2170  0.0156
 6677SOL    HW124969   1.765   4.816   2.504  0.3020 -0.0053  0.4622
 6677SOL    HW224970   1.662   4.899   2.431 -0.2595 -1.0918 -0.0108
 6678SOL     OW24971   3.762   5.608   5.307 -0.1283 -0.1077  0.2213
 6678SOL    HW124972   3.825   5.539   5.290 -1.2152 -1.4704  1.4467
 6678SOL    HW224973   3.810   5.689   5.292  2.1370 -1.0659  1.7858
 6679SOL     OW24974   7.245   8.469   4.915 -0.1495  0.1531  0.7852
 6679SOL    HW124975   7.340   8.471   4.927  0.0242  1.5840 -0.6014
 6679SOL    HW224976   7.210   8.507   4.996  0.3630 -1.2612  1.7261
 6680SOL     OW24977   4.134   8.630   6.710  0.2790  0.1572 -0.2141
 6680SOL    HW124978   4.140   8.682   6.630  1.8737 -0.6106 -0.6406
 6680SOL    HW224979   4.225   8.613   6.734 -0.1880 -0.5921  1.1353
 6681SOL     OW24980  10.259   9.292   3.125  0.1840 -0.4639  0.1296
 6681SOL    HW124981  10.273   9.383   3.098  0.1958 -0.5982 -0.3390
 6681SOL    HW224982  10.250   9.244   3.042 -0.7639 -0.7488  0.3854
 6682SOL     OW24983   9.070   9.703   4.138 -0.8225  0.1458 -0.0727
 6682SOL    HW124984   9.026   9.623   4.109  0.6063 -1.2440  1.4053
 6682SOL    HW224985   9.092   9.749   4.056 -1.9031 -0.8118 -0.9442
 6683SOL     OW24986   2.425   4.063   0.570  0.2828  0.3996  0.1354
 6683SOL    HW124987   2.390   3.979   0.542  0.9861  0.1812 -0.1081
 6683SOL    HW224988   2.447   4.108   0.488  3.7156 -0.8146  0.2018
 6684SOL     OW24989   1.593   8.338   7.092  0.4251  0.6589  0.3671
 6684SOL    HW124990   1.598   8.430   7.065  0.4930  0.7021  0.5249
 6684SOL    HW224991   1.542   8.295   7.022  0.4447  0.8033  0.2631
 6685SOL     OW24992   2.731   2.041   7.765 -0.4565  0.1301 -0.4505
 6685SOL    HW124993   2.637   2.054   7.774 -0.4256  0.3036 -0.3663
 6685SOL    HW224994   2.748   1.957   7.806 -0.4147  0.6086  0.5417
 6686SOL     OW24995   8.547   0.358  11.438  0.0484  0.0704 -0.1254
 6686SOL    HW124996   8.614   0.425  11.452  0.4847 -0.1721 -1.0140
 6686SOL    HW224997   8.517   0.373  11.348  1.2756 -1.9216 -0.9139
 6687SOL     OW24998   1.479   3.374   6.955 -0.0904 -0.3025  0.0800
 6687SOL    HW124999   1.433   3.402   6.876 -1.3972 -1.1534  0.4957
 6687SOL    HW225000   1.518   3.453   6.991  0.0046  0.1931 -1.0849
 6688SOL     OW25001   8.259   7.195   8.509 -0.1065  0.0967 -0.2566
 6688SOL    HW125002   8.236   7.102   8.514 -1.2264  0.3845  0.3077
 6688SOL    HW225003   8.211   7.227   8.433  1.4784 -0.0870 -1.3724
 6689SOL     OW25004   0.218   5.573   7.455  0.7492 -0.6024  0.2341
 6689SOL    HW125005   0.258   5.507   7.512 -0.5836 -0.4141  1.4310
 6689SOL    HW225006   0.289   5.599   7.397  1.6374 -2.2039  0.5199
 6690SOL     OW25007   5.520   1.722   2.266 -0.0231  0.0126  0.2114
 6690SOL    HW125008   5.469   1.771   2.331 -0.9408 -0.7662  0.1017
 6690SOL    HW225009   5.609   1.722   2.301  0.2978  2.7884 -0.3871
 6691SOL     OW25010   7.342   4.519   5.859 -0.5553  0.2847  0.8101
 6691SOL    HW125011   7.351   4.454   5.790 -1.5265  0.7635  0.2226
 6691SOL    HW225012   7.415   4.579   5.844 -1.2891  0.9171 -0.4020
 6692SOL     OW25013   2.692   4.305   1.683 -0.0333 -0.1349 -0.2049
 6692SOL    HW125014   2.748   4.232   1.711 -0.9904 -1.3591 -1.3205
 6692SOL    HW225015   2.662   4.344   1.764  1.6814 -0.0162  0.4255
 6693SOL     OW25016   7.215  10.341   8.131  0.1110  0.2344  0.1105
 6693SOL    HW125017   7.242  10.306   8.046 -1.1428 -0.2098 -0.1270
 6693SOL    HW225018   7.285  10.318   8.191 -0.1849 -1.7736 -0.2656
 6694SOL     OW25019   7.301   0.203   0.607 -0.0066  0.2885 -0.9586
 6694SOL    HW125020   7.308   0.252   0.689 -0.1638  0.6528 -1.1563
 6694SOL    HW225021   7.298   0.271   0.539 -1.6454  0.0744 -1.1443
 6695SOL     OW25022   4.656   9.462   7.315 -0.0970 -0.1901  0.3406
 6695SOL    HW125023   4.590   9.392   7.309  0.7835 -0.9780 -0.3869
 6695SOL    HW225024   4.685   9.476   7.225  1.1659 -0.2843  0.7154
 6696SOL     OW25025   3.754   9.914   4.056  0.7576 -0.2312  0.3980
 6696SOL    HW125026   3.783  10.004   4.044  2.7698 -0.8606  0.2474
 6696SOL    HW225027   3.751   9.877   3.968 -1.8007  0.1282  0.2569
 6697SOL     OW25028   9.883   9.037   8.650 -0.6431  0.2142 -0.0409
 6697SOL    HW125029   9.823   9.087   8.594 -0.0621 -0.1026 -0.9616
 6697SOL    HW225030   9.890   8.952   8.607 -1.2329 -0.5075  1.2453
 6698SOL     OW25031   4.594  11.474   9.339 -0.2319 -0.1121  0.7680
 6698SOL    HW125032   4.597  11.513   9.252  1.2547  0.3062  0.9679
 6698SOL    HW225033   4.517  11.512   9.380  0.6065  1.9046  0.6004
 6699SOL     OW25034   2.622   9.415   9.551  0.3886  0.4225 -0.1894
 6699SOL    HW125035   2.635   9.320   9.562  1.8112  0.4987 -0.9460
 6699SOL    HW225036   2.620   9.449   9.640 -0.6147 -0.3720  0.1055
 6700SOL     OW25037   0.534   5.207   5.770 -0.1562 -0.1476  0.7079
 6700SOL    HW125038   0.516   5.259   5.692 -2.6859  1.0823  1.9928
 6700SOL    HW225039   0.623   5.173   5.757 -0.3557  0.3076 -2.4840
 6701SOL     OW25040   8.698   3.715   2.284  0.3850  0.7095 -0.0968
 6701SOL    HW125041   8.676   3.657   2.356 -0.1519  0.8605 -0.1374
 6701SOL    HW225042   8.702   3.658   2.207  0.5031  0.6247 -0.0288
 6702SOL     OW25043  11.099   5.498   3.208  0.3078  0.3228  0.3517
 6702SOL    HW125044  11.129   5.486   3.118  0.7892  0.1887  0.5211
 6702SOL    HW225045  11.048   5.578   3.207 -1.4462 -0.7571 -0.4593
 6703SOL     OW25046   4.275   0.734   6.440  0.0466 -0.6031  0.1648
 6703SOL    HW125047   4.239   0.718   6.527 -0.2658  1.7341  0.5493
 6703SOL    HW225048   4.359   0.777   6.456 -1.1641  2.3046 -0.5100
 6704SOL     OW25049   3.773  10.858   2.652  0.2290  0.8108  0.4051
 6704SOL    HW125050   3.845  10.904   2.608  1.3585 -1.5566 -0.3849
 6704SOL    HW225051   3.816  10.785   2.696 -1.6924 -0.6151 -0.0069
 6705SOL     OW25052   9.763   5.117   2.488  0.1995 -0.9155  0.5404
 6705SOL    HW125053   9.747   5.211   2.482 -0.7805 -1.1531 -1.7895
 6705SOL    HW225054   9.838   5.108   2.547  1.3937  1.4510 -0.5014
 6706SOL     OW25055   1.770   1.109   3.728 -0.1231  0.0203  0.2659
 6706SOL    HW125056   1.675   1.114   3.737 -0.2835 -1.2338 -0.5167
 6706SOL    HW225057   1.795   1.193   3.690 -0.9730  0.1969  0.0854
 6707SOL     OW25058   6.100   3.363   3.034 -0.2855 -0.4188  0.1078
 6707SOL    HW125059   6.113   3.270   3.018  0.0801 -0.2229 -0.7544
 6707SOL    HW225060   6.068   3.398   2.951 -0.9262  0.1354  0.5769
 6708SOL     OW25061   2.128   6.722   6.496 -0.0315  0.1694 -0.5461
 6708SOL    HW125062   2.092   6.702   6.582 -1.1855  0.7983 -0.8546
 6708SOL    HW225063   2.054   6.761   6.448 -0.1613 -2.2786 -2.6093
 6709SOL     OW25064   8.216   2.263   0.635  0.5518  0.0604  0.2036
 6709SOL    HW125065   8.155   2.200   0.672  1.0934 -1.6346 -1.5690
 6709SOL    HW225066   8.166   2.309   0.568  0.3697  1.0060  0.9685
 6710SOL     OW25067   5.421   1.479   5.805 -0.7580  0.2279 -0.2954
 6710SOL    HW125068   5.413   1.483   5.900 -2.2644 -1.5455 -0.2840
 6710SOL    HW225069   5.391   1.391   5.782  0.4626  0.2813 -2.3504
 6711SOL     OW25070   7.426   4.100  10.171  0.3918  0.9451  0.2604
 6711SOL    HW125071   7.455   4.155  10.243 -0.2576 -2.2107  3.1830
 6711SOL    HW225072   7.335   4.123  10.157  0.3155  1.0851  0.9843
 6712SOL     OW25073   0.388   3.757   7.108 -0.1852  0.0979 -0.1694
 6712SOL    HW125074   0.393   3.811   7.029  0.9688 -2.1532 -1.7651
 6712SOL    HW225075   0.475   3.764   7.148 -0.6133  0.8380  0.6646
 6713SOL     OW25076   7.049   1.489   2.626  0.0573 -0.5601 -0.4746
 6713SOL    HW125077   7.102   1.568   2.633  0.6799 -1.0434  0.4851
 6713SOL    HW225078   6.969   1.509   2.675  0.2043 -0.5129 -0.2540
 6714SOL     OW25079   7.772   4.629   4.099  0.1599 -0.9575 -0.0277
 6714SOL    HW125080   7.855   4.668   4.072 -0.0357 -0.3974  0.1622
 6714SOL    HW225081   7.750   4.673   4.181  0.2114 -1.8651  0.4953
 6715SOL     OW25082   3.072   2.539   7.191 -0.3173  0.1997 -0.3317
 6715SOL    HW125083   2.998   2.543   7.131  0.5049 -0.4439 -1.4187
 6715SOL    HW225084   3.146   2.510   7.137  0.2901 -1.1253  1.1351
 6716SOL     OW25085   5.981   2.116  10.447 -1.1547  0.5958  0.1322
 6716SOL    HW125086   5.980   2.039  10.505  0.4916  1.4672  1.4093
 6716SOL    HW225087   5.921   2.178  10.489 -1.2149  0.6201  0.0092
 6717SOL     OW25088   1.488   2.503   0.018  0.2418 -0.0001  0.7301
 6717SOL    HW125089   1.584   2.502   0.021  0.2484 -1.8611  1.2302
 6717SOL    HW225090   1.466   2.473  -0.070  0.1665 -2.0796  1.4056
 6718SOL     OW25091   5.815   1.942   1.761 -0.5763 -0.1084  0.3745
 6718SOL    HW125092   5.864   1.868   1.797 -1.7743 -0.0530  2.2269
 6718SOL    HW225093   5.845   1.948   1.670  1.5398 -1.1584  0.9329
 6719SOL     OW25094   5.869   7.333   1.467  0.3347 -0.4711  0.1636
 6719SOL    HW125095   5.919   7.354   1.546 -0.4287  0.7503  0.3362
 6719SOL    HW225096   5.835   7.417   1.436  0.0582 -1.0202 -1.0919
 6720SOL     OW25097   9.227   9.385   2.756 -0.3217 -0.4858 -0.1328
 6720SOL    HW125098   9.295   9.407   2.692  0.4567 -2.1553  0.0632
 6720SOL    HW225099   9.149   9.371   2.703  0.2945 -1.7576 -0.7672
 6721SOL     OW25100   8.296  10.418   2.459  0.4363 -0.6123  0.3923
 6721SOL    HW125101   8.307  10.418   2.363  1.6487  2.4435  0.4043
 6721SOL    HW225102   8.217  10.469   2.474 -0.8039 -2.6202  1.0507
 6722SOL     OW25103   2.895   2.387  10.726  0.1613 -0.5739  0.3768
 6722SOL    HW125104   2.865   2.296  10.738  0.0693 -0.4970  0.7534
 6722SOL    HW225105   2.968   2.396  10.788 -0.9834  0.1444  1.6871
 6723SOL     OW25106   2.161   9.186  10.803  0.2101 -0.5528 -0.0478
 6723SOL    HW125107   2.163   9.096  10.837  0.6076 -0.7291 -0.5153
 6723SOL    HW225108   2.092   9.229  10.853  0.8909 -0.7465  1.0921
 6724SOL     OW25109   4.960   5.594  10.634  0.4228  0.5349  0.4393
 6724SOL    HW125110   4.911   5.675  10.642  0.0297  0.4120 -0.5781
 6724SOL    HW225111   5.038   5.618  10.583  0.1486  0.2221 -0.1388
 6725SOL     OW25112   8.539   3.585  10.764  0.2613  0.8506  0.0964
 6725SOL    HW125113   8.454   3.623  10.746 -0.3220 -0.5959 -0.3049
 6725SOL    HW225114   8.544   3.582  10.860 -1.7182 -2.2974  0.2353
 6726SOL     OW25115   8.021   7.612  11.152  0.3301 -0.0237 -0.1722
 6726SOL    HW125116   8.022   7.648  11.063  0.5652 -0.1831 -0.2353
 6726SOL    HW225117   8.110   7.581  11.166  0.3799  0.2963  0.2416
 6727SOL     OW25118   0.803   7.948   0.466 -0.1310 -0.0061 -0.0877
 6727SOL    HW125119   0.894   7.933   0.490  0.0698 -1.6617 -1.6815
 6727SOL    HW225120   0.765   7.861   0.458 -1.7827  0.6413  0.1933
 6728SOL     OW25121   3.131   5.955   8.474  0.0103 -0.0912  0.7360
 6728SOL    HW125122   3.068   5.977   8.543 -1.6559 -0.4900 -0.6038
 6728SOL    HW225123   3.082   5.967   8.393  1.4884 -1.0415 -0.3280
 6729SOL     OW25124   3.100   9.839   2.483 -0.4239 -0.0510 -0.2618
 6729SOL    HW125125   3.060   9.752   2.496 -1.5382  0.5209  0.2535
 6729SOL    HW225126   3.153   9.829   2.404 -1.6990 -0.8273 -1.0601
 6730SOL     OW25127   8.710   7.381   7.156 -0.5427  0.3451 -0.1121
 6730SOL    HW125128   8.778   7.331   7.201 -0.3550 -1.1166 -1.8996
 6730SOL    HW225129   8.629   7.338   7.180 -0.5860  0.4643 -0.0433
 6731SOL     OW25130   8.057   1.289   5.296 -0.2107 -0.1490 -0.2477
 6731SOL    HW125131   7.990   1.332   5.348  0.7489  0.5558  0.4506
 6731SOL    HW225132   8.051   1.330   5.210 -0.2685  0.3426 -0.0102
 6732SOL     OW25133   3.460   9.388  10.896 -0.2029  0.0986 -0.1349
 6732SOL    HW125134   3.489   9.330  10.825  0.3264  0.2331 -0.0353
 6732SOL    HW225135   3.474   9.476  10.862 -2.5701  0.2305 -0.9373
 6733SOL     OW25136   9.142  10.435   4.686 -0.4529  0.1617  0.5470
 6733SOL    HW125137   9.163  10.492   4.612  0.0466  0.8804  1.2228
 6733SOL    HW225138   9.208  10.457   4.752  0.0922 -1.6056  0.6269
 6734SOL     OW25139   6.753   7.388   9.102 -0.2562 -0.1140 -0.0415
 6734SOL    HW125140   6.679   7.419   9.153  0.5432  2.0856 -0.1251
 6734SOL    HW225141   6.828   7.398   9.161  0.1820 -0.9214 -0.4477
 6735SOL     OW25142   1.066   9.321   4.755 -0.4494  0.4155  0.7467
 6735SOL    HW125143   0.997   9.339   4.692  0.9815 -3.0816 -2.1657
 6735SOL    HW225144   1.036   9.244   4.803  0.6289 -0.0593  0.6958
 6736SOL     OW25145   3.110   1.119   3.391 -0.3991  0.2433 -0.3283
 6736SOL    HW125146   3.048   1.145   3.459  0.6225  0.0312  0.7150
 6736SOL    HW225147   3.141   1.032   3.419  1.3515  0.9077 -0.0966
 6737SOL     OW25148   7.333   6.664   5.579  0.1821 -0.2027  0.5280
 6737SOL    HW125149   7.265   6.666   5.512 -0.1828 -0.5031  0.8823
 6737SOL    HW225150   7.290   6.701   5.657 -0.2602 -2.3150  1.3546
 6738SOL     OW25151  11.567   6.573  10.888  0.7153 -0.1979  0.3754
 6738SOL    HW125152  11.637   6.580  10.822  1.4260 -2.6526  0.7792
 6738SOL    HW225153  11.491   6.540  10.839 -0.1720  2.2186 -0.0101
 6739SOL     OW25154   0.508  11.343   3.463 -0.0114  0.5932 -0.0450
 6739SOL    HW125155   0.461  11.425   3.452 -0.1614  0.4080 -0.8005
 6739SOL    HW225156   0.498  11.322   3.556  0.2265  1.5442  0.2052
 6740SOL     OW25157   9.732   4.161   7.359 -0.1708 -0.0076 -0.0700
 6740SOL    HW125158   9.651   4.117   7.383 -0.7561  1.9547  1.9040
 6740SOL    HW225159   9.726   4.248   7.400  2.4308  0.6351 -0.8067
 6741SOL     OW25160   8.654   9.682   7.939  0.3579  0.1139  0.3418
 6741SOL    HW125161   8.738   9.649   7.907  0.7406 -0.8416  2.1619
 6741SOL    HW225162   8.667   9.692   8.034 -1.1242  1.4171  0.4560
 6742SOL     OW25163   6.710   4.003   8.462 -0.0307  0.6634  0.4811
 6742SOL    HW125164   6.781   4.060   8.490 -0.7218  2.1794 -0.6866
 6742SOL    HW225165   6.739   3.914   8.486  2.1619  1.2399  0.1903
 6743SOL     OW25166   8.329   5.587   3.744 -0.0617  0.0272  0.0258
 6743SOL    HW125167   8.246   5.539   3.743 -0.4512  0.6025  1.7325
 6743SOL    HW225168   8.388   5.530   3.793 -0.0108  0.4871  0.4992
 6744SOL     OW25169   3.193   1.317   9.546 -0.7404 -0.2661  0.9571
 6744SOL    HW125170   3.276   1.305   9.592 -0.8582 -0.8184  1.0277
 6744SOL    HW225171   3.182   1.237   9.495 -0.3747  0.5242 -0.4324
 6745SOL     OW25172   2.020   0.250   2.852  0.0123 -0.7169 -0.0623
 6745SOL    HW125173   2.113   0.271   2.846  0.1716 -1.1078  0.8755
 6745SOL    HW225174   1.976   0.335   2.845  0.4897 -0.4192  0.4366
 6746SOL     OW25175   2.761   6.204   9.412  0.4004 -0.0766 -0.2566
 6746SOL    HW125176   2.835   6.241   9.364 -1.9657  1.9279 -2.6689
 6746SOL    HW225177   2.754   6.259   9.491  0.3265  1.0851 -1.0385
 6747SOL     OW25178  11.466   9.945   6.776 -0.1921  0.4801  0.4645
 6747SOL    HW125179  11.506   9.867   6.813  1.0734  0.5851 -0.6295
 6747SOL    HW225180  11.421   9.915   6.697  0.6101  0.9024 -0.1619
 6748SOL     OW25181   7.524   9.073   0.572 -0.4768 -0.0139  0.5636
 6748SOL    HW125182   7.525   9.169   0.571  0.3902  0.0137 -1.6525
 6748SOL    HW225183   7.616   9.048   0.560 -0.6738 -1.1310  1.2634
 6749SOL     OW25184   1.732   3.898   0.601  0.4978 -0.5145 -0.3876
 6749SOL    HW125185   1.736   3.803   0.600 -0.5278 -0.6018  1.0260
 6749SOL    HW225186   1.818   3.925   0.636 -0.5753 -1.1507  3.1014
 6750SOL     OW25187   2.352   9.079   2.633  0.3311  0.2183 -0.5445
 6750SOL    HW125188   2.405   9.073   2.712  0.2984 -0.7794 -0.5919
 6750SOL    HW225189   2.417   9.085   2.562  0.3610  1.4875 -0.4341
 6751SOL     OW25190   7.907   6.982   3.934  0.0577  0.6838  0.6895
 6751SOL    HW125191   7.883   6.948   4.021  1.0029  0.4578  0.8785
 6751SOL    HW225192   7.843   6.944   3.875  0.8970 -1.2332  0.9336
 6752SOL     OW25193   6.936   2.679   3.496 -0.4768 -0.3591 -1.1073
 6752SOL    HW125194   6.971   2.638   3.575  0.6002  2.0851 -0.2010
 6752SOL    HW225195   6.847   2.705   3.521 -1.4827 -2.7613 -1.9702
 6753SOL     OW25196  10.931   0.790   7.949  0.2241 -0.1433 -0.0206
 6753SOL    HW125197  10.961   0.868   7.902 -1.5388 -0.0417 -1.0499
 6753SOL    HW225198  10.960   0.716   7.895  0.7532 -0.1682  0.2840
 6754SOL     OW25199   7.519   7.230   2.404  0.0805  0.2301 -1.0530
 6754SOL    HW125200   7.542   7.314   2.444  1.9141 -0.9537  0.5406
 6754SOL    HW225201   7.515   7.169   2.477 -1.6107 -1.0405 -2.1366
 6755SOL     OW25202   6.778   8.313   7.850 -0.3657  0.5258 -0.0221
 6755SOL    HW125203   6.852   8.345   7.901  0.3865 -0.1485 -0.6601
 6755SOL    HW225204   6.783   8.218   7.859 -1.5048  0.4945  0.4016
 6756SOL     OW25205   5.677   8.535   4.201  0.5714  0.0028 -0.0820
 6756SOL    HW125206   5.613   8.484   4.251 -0.1363 -0.2922 -1.2390
 6756SOL    HW225207   5.689   8.615   4.252 -1.2559  0.3639 -0.1576
 6757SOL     OW25208   6.965   5.657  11.023 -0.5588  0.4222 -0.2990
 6757SOL    HW125209   6.948   5.681  10.932 -0.8994  1.6687  0.0733
 6757SOL    HW225210   6.945   5.736  11.073 -1.1396 -0.4747  0.9451
 6758SOL     OW25211   5.645   3.303   9.965 -0.0577 -0.2319  0.2062
 6758SOL    HW125212   5.554   3.280   9.947 -0.1709  0.6599 -0.4323
 6758SOL    HW225213   5.645   3.330  10.057 -0.2805 -0.9685  0.4253
 6759SOL     OW25214   1.951   8.144   4.831 -0.0837 -0.7697 -0.4869
 6759SOL    HW125215   1.968   8.056   4.863 -1.9128 -1.4196 -1.1422
 6759SOL    HW225216   1.965   8.138   4.736 -1.3983 -0.7359 -0.7153
 6760SOL     OW25217   2.201   7.366   2.468  0.1214  0.0422  0.3700
 6760SOL    HW125218   2.203   7.458   2.495 -1.2694  0.2044 -0.0136
 6760SOL    HW225219   2.260   7.321   2.529  0.3170  1.0763  0.9600
 6761SOL     OW25220  10.967   1.510  11.212  0.0862  0.4445  0.1047
 6761SOL    HW125221  11.045   1.461  11.236  0.0474  0.5536  0.4735
 6761SOL    HW225222  10.928   1.461  11.140  1.5068  1.4136 -1.3602
 6762SOL     OW25223   4.740  10.627   6.541  0.6573 -0.1501  0.0563
 6762SOL    HW125224   4.689  10.645   6.462  2.5068 -0.6737 -1.3214
 6762SOL    HW225225   4.763  10.535   6.534  1.0457 -0.1444  1.1113
 6763SOL     OW25226   0.406   6.465   8.560 -0.7336 -0.1262 -0.4886
 6763SOL    HW125227   0.445   6.418   8.486 -0.7904 -1.3469  0.2309
 6763SOL    HW225228   0.481   6.492   8.613 -0.7350 -0.0234 -0.5393
 6764SOL     OW25229   3.371  11.037   9.658 -0.3828 -0.6319 -0.2909
 6764SOL    HW125230   3.340  10.946   9.659 -2.3507 -0.0090 -0.2647
 6764SOL    HW225231   3.349  11.070   9.745 -0.6734  0.1745 -0.6641
 6765SOL     OW25232   0.063   4.423   6.863 -1.6081 -0.2485 -0.3433
 6765SOL    HW125233   0.082   4.502   6.813 -0.1212 -0.0605  0.4454
 6765SOL    HW225234   0.069   4.450   6.954 -1.2722 -1.2174 -0.0626
 6766SOL     OW25235   6.410  11.670   0.313  0.6993 -0.1590  0.2389
 6766SOL    HW125236   6.336  11.728   0.300  0.8410  0.2552  1.2181
 6766SOL    HW225237   6.371  11.583   0.326  0.5196 -0.4600 -2.0138
 6767SOL     OW25238  11.402  10.788   9.288 -0.2364 -0.0521  0.0144
 6767SOL    HW125239  11.401  10.706   9.238  1.1619  0.4685 -0.9185
 6767SOL    HW225240  11.334  10.842   9.248 -2.2564 -1.2408  1.6044
 6768SOL     OW25241  11.100   7.809   0.463 -0.1246 -0.1677 -0.3462
 6768SOL    HW125242  11.097   7.877   0.396  0.6592 -0.2962 -0.5236
 6768SOL    HW225243  11.117   7.855   0.545  0.0696 -0.1147 -0.4154
 6769SOL     OW25244   7.164   5.555   4.954 -0.3001  0.1236  0.4511
 6769SOL    HW125245   7.073   5.578   4.973 -0.7706 -1.0043 -0.3245
 6769SOL    HW225246   7.185   5.606   4.876 -0.3637  0.1547  0.4539
 6770SOL     OW25247   7.999   7.581   1.129 -0.0531  0.2846 -0.7043
 6770SOL    HW125248   8.025   7.490   1.116 -0.6056  0.1164 -0.6656
 6770SOL    HW225249   8.070   7.619   1.182 -0.8328 -0.6995  1.1644
 6771SOL     OW25250   7.970   8.157   7.384  0.0998  0.3263  0.5569
 6771SOL    HW125251   8.052   8.124   7.420  0.6893  1.2514  0.1057
 6771SOL    HW225252   7.904   8.136   7.450  0.5893 -0.9258  0.6843
 6772SOL     OW25253   3.143   9.045   2.115 -0.5426  0.4426  0.6696
 6772SOL    HW125254   3.101   8.962   2.093 -0.4876  0.7278 -0.5916
 6772SOL    HW225255   3.215   9.020   2.174  1.3579 -0.8376 -1.9888
 6773SOL     OW25256   9.114   2.817   1.143  0.2272 -0.8126 -0.4521
 6773SOL    HW125257   9.043   2.826   1.208 -0.9645  0.2046 -1.8126
 6773SOL    HW225258   9.096   2.734   1.099 -1.0368  0.0930 -1.7535
 6774SOL     OW25259   8.968   5.532   8.208 -0.1868  0.3749 -0.0620
 6774SOL    HW125260   8.883   5.571   8.188 -0.6976 -0.4930  0.3515
 6774SOL    HW225261   8.947   5.451   8.255  0.8820  0.3318  0.3673
 6775SOL     OW25262   1.892  10.473   0.897 -0.3491 -0.5228  0.3896
 6775SOL    HW125263   1.805  10.461   0.934 -0.0509  0.4918  1.4678
 6775SOL    HW225264   1.918  10.561   0.923  0.0274  0.1382 -1.9876
 6776SOL     OW25265   3.909   1.352   4.697 -0.2793  0.6404 -0.5677
 6776SOL    HW125266   3.891   1.273   4.748  1.1555  0.9174  0.3972
 6776SOL    HW225267   3.928   1.420   4.762  0.3029  1.3203 -1.4215
 6777SOL     OW25268   7.151   9.694   5.600 -0.2992 -0.3653  0.2842
 6777SOL    HW125269   7.092   9.655   5.535  1.4100 -1.4184 -0.7076
 6777SOL    HW225270   7.181   9.776   5.560 -2.1133  0.9114  1.3954
 6778SOL     OW25271   9.848   4.603   8.798 -0.4192  0.1955 -0.4529
 6778SOL    HW125272   9.916   4.668   8.783  0.5152 -0.2062  1.7022
 6778SOL    HW225273   9.859   4.576   8.889 -2.2062 -1.3514 -0.6144
 6779SOL     OW25274   8.462   4.347   8.190 -0.0814 -0.1048  0.3842
 6779SOL    HW125275   8.539   4.389   8.153  0.5006 -1.1281  0.4200
 6779SOL    HW225276   8.395   4.355   8.122  0.6164 -0.8883 -0.4086
 6780SOL     OW25277   1.210   1.669   5.264 -0.0896 -0.3217 -0.5318
 6780SOL    HW125278   1.192   1.594   5.320  0.0300  0.9549  1.3371
 6780SOL    HW225279   1.298   1.654   5.230  0.7273 -0.1676  1.3892
 6781SOL     OW25280   1.008   8.746   1.113 -0.1736 -0.3126  0.2467
 6781SOL    HW125281   0.957   8.692   1.174 -1.5542 -0.8938 -1.3607
 6781SOL    HW225282   1.047   8.814   1.169 -0.1617 -1.6775  1.9828
 6782SOL     OW25283   4.789   7.314   5.746  0.4023 -0.1361 -0.6271
 6782SOL    HW125284   4.756   7.401   5.725  0.3874  0.0720  0.2473
 6782SOL    HW225285   4.760   7.259   5.673 -0.5278  0.3645 -0.6383
 6783SOL     OW25286   7.551   6.840   4.646 -0.5249 -0.1893  0.1681
 6783SOL    HW125287   7.597   6.765   4.607  0.6742  0.4744  0.2385
 6783SOL    HW225288   7.461   6.811   4.655 -0.1130 -1.5796  0.0743
 6784SOL     OW25289   7.900  11.164  10.267 -0.5614 -0.1383 -0.2598
 6784SOL    HW125290   7.940  11.120  10.342  0.9147 -0.5485 -1.2351
 6784SOL    HW225291   7.820  11.115  10.250 -1.6215  0.7551  1.8105
 6785SOL     OW25292   2.563   8.215  10.217  0.2104  0.2742  0.2028
 6785SOL    HW125293   2.563   8.310  10.230  0.6643  0.4287 -0.7859
 6785SOL    HW225294   2.656   8.193  10.206  0.0013  0.0012 -1.2912
 6786SOL     OW25295   7.177   7.887   9.062  0.1802  0.7363  0.0310
 6786SOL    HW125296   7.141   7.829   9.129  0.5927  0.3558 -0.0712
 6786SOL    HW225297   7.109   7.953   9.048 -0.8698 -0.4626 -0.7923
 6787SOL     OW25298   9.018   6.177   3.584  0.1191  0.2202 -0.3877
 6787SOL    HW125299   8.949   6.243   3.578 -1.0567 -0.8997  0.3652
 6787SOL    HW225300   9.032   6.166   3.678 -0.5206 -1.3961 -0.4603
 6788SOL     OW25301   3.460   5.688  11.090  0.0525 -0.5820 -0.0124
 6788SOL    HW125302   3.435   5.740  11.013 -0.3555 -0.9268 -0.1137
 6788SOL    HW225303   3.528   5.629  11.058  0.3038 -0.3207  0.0327
 6789SOL     OW25304   7.733   7.397  10.955  0.0746 -0.0891  0.2312
 6789SOL    HW125305   7.789   7.415  11.031  0.9017 -1.5885  0.0328
 6789SOL    HW225306   7.655   7.355  10.992 -0.2809  0.6936  0.3834
 6790SOL     OW25307   9.826   9.495   3.842 -0.2004  0.2830 -0.5009
 6790SOL    HW125308   9.836   9.423   3.779 -0.4081  0.0987 -0.3230
 6790SOL    HW225309   9.737   9.485   3.876 -0.9908  1.7796 -1.9291
 6791SOL     OW25310   5.591   7.811   6.757  0.2434 -0.0276 -0.7649
 6791SOL    HW125311   5.598   7.903   6.732  0.1541  0.3539  0.5207
 6791SOL    HW225312   5.611   7.810   6.851 -1.1826 -1.1199 -0.4442
 6792SOL     OW25313   0.720  10.654   3.112 -0.3545  0.2824 -0.4471
 6792SOL    HW125314   0.770  10.674   3.033  0.1149  0.7571 -0.0464
 6792SOL    HW225315   0.720  10.558   3.117  0.3905  0.2684 -0.5458
 6793SOL     OW25316   9.553   1.190   0.193 -0.0848 -0.2765 -0.1989
 6793SOL    HW125317   9.485   1.205   0.128 -0.6426  0.0743  0.4520
 6793SOL    HW225318   9.585   1.277   0.216 -0.4266 -0.3371  0.5450
 6794SOL     OW25319   8.881   0.150  10.385  0.8801 -1.2687 -0.6274
 6794SOL    HW125320   8.903   0.176  10.475 -1.0508  0.3253 -0.5317
 6794SOL    HW225321   8.851   0.230  10.344  1.4543 -2.0423 -2.6495
 6795SOL     OW25322  11.502  11.263   8.991 -0.7794 -0.0417 -0.3228
 6795SOL    HW125323  11.467  11.196   9.050  0.6853 -2.7077 -2.2292
 6795SOL    HW225324  11.578  11.299   9.037 -0.6237 -0.8841  0.1050
 6796SOL     OW25325  11.449  11.668   9.553 -0.2029  0.1745 -0.0310
 6796SOL    HW125326  11.487  11.752   9.530  0.7022 -0.5589 -1.3151
 6796SOL    HW225327  11.477  11.652   9.643 -0.9397  1.5264  0.4632
 6797SOL     OW25328   1.275   8.599   2.546  0.4074 -0.0190  0.4274
 6797SOL    HW125329   1.348   8.655   2.574  1.7020 -0.9041 -0.9969
 6797SOL    HW225330   1.306   8.559   2.464 -2.0619  0.2892 -0.7430
 6798SOL     OW25331   2.891   9.341   1.923 -0.7544 -0.3590  1.0163
 6798SOL    HW125332   2.916   9.367   2.011  2.8381  0.2510 -0.0201
 6798SOL    HW225333   2.869   9.248   1.931 -1.2068 -0.1448  2.6446
 6799SOL     OW25334   2.592   3.847   2.890 -0.0520  0.0219 -0.0795
 6799SOL    HW125335   2.503   3.835   2.925  0.0900  1.1345  0.7452
 6799SOL    HW225336   2.632   3.760   2.897  0.4991  0.3793  4.2093
 6800SOL     OW25337   7.156   6.346   9.460 -0.1104  0.0370  0.2615
 6800SOL    HW125338   7.086   6.336   9.524  0.0094  0.3397  0.4453
 6800SOL    HW225339   7.174   6.440   9.459  1.3214 -0.1831  1.3533
 6801SOL     OW25340   5.842   6.910   2.167  0.7483  0.2680 -1.0910
 6801SOL    HW125341   5.819   6.865   2.085 -0.6708 -1.3150  0.1268
 6801SOL    HW225342   5.764   6.961   2.189  0.9772  0.3530 -0.4805
 6802SOL     OW25343  10.676   6.767   0.342  0.0400 -0.2489 -0.4804
 6802SOL    HW125344  10.638   6.833   0.401  1.6778  2.3455 -2.0949
 6802SOL    HW225345  10.764   6.752   0.378  0.3706 -0.0428 -1.1770
 6803SOL     OW25346   1.218   4.475   7.142 -0.3711  0.1929  0.1759
 6803SOL    HW125347   1.268   4.481   7.061 -2.6546  1.5596 -1.2146
 6803SOL    HW225348   1.179   4.388   7.140 -0.9432  0.4561 -0.5540
 6804SOL     OW25349   8.489  10.026   5.257  0.1173  0.1812 -1.0554
 6804SOL    HW125350   8.478  10.015   5.163 -1.4145 -0.5951 -0.8136
 6804SOL    HW225351   8.449   9.948   5.295 -2.0223  1.8737  0.3555
 6805SOL     OW25352   0.575   6.889   1.932  0.0446 -0.2255  0.0495
 6805SOL    HW125353   0.573   6.799   1.899 -0.5386 -0.5158  0.8378
 6805SOL    HW225354   0.569   6.880   2.027  0.6849  0.6256  0.1803
 6806SOL     OW25355   7.234   4.371   5.013  0.2475  0.3613  0.0925
 6806SOL    HW125356   7.228   4.304   5.081 -0.7905  0.4913  0.1483
 6806SOL    HW225357   7.316   4.418   5.032  0.3173 -0.0497  0.8326
 6807SOL     OW25358  11.218   2.263   1.824 -0.0702 -0.1878 -0.5451
 6807SOL    HW125359  11.174   2.213   1.893 -2.7512  1.0163 -1.2607
 6807SOL    HW225360  11.202   2.354   1.847  2.1556  0.3454 -0.8808
 6808SOL     OW25361   5.595   5.254   9.095  0.4812 -0.8642 -0.5676
 6808SOL    HW125362   5.561   5.175   9.053 -2.7469  0.6895 -1.1849
 6808SOL    HW225363   5.567   5.326   9.039  1.8681  0.8826  0.8197
 6809SOL     OW25364   3.259   6.562  11.252 -0.4154 -0.2603 -0.3023
 6809SOL    HW125365   3.275   6.470  11.232 -0.0449 -0.6608  1.6179
 6809SOL    HW225366   3.344   6.595  11.284 -0.6157  0.6715 -0.6938
 6810SOL     OW25367  11.398   0.095   1.317  0.0222 -0.3001  0.0109
 6810SOL    HW125368  11.323   0.154   1.331  1.4477  1.5068  0.3913
 6810SOL    HW225369  11.390   0.030   1.387 -0.7806  0.3196  0.5161
 6811SOL     OW25370   4.427   7.890  11.183 -0.4956 -0.1831  0.9353
 6811SOL    HW125371   4.408   7.935  11.100  1.9286 -0.0152  0.4069
 6811SOL    HW225372   4.349   7.905  11.236 -1.2026  1.6447 -0.5076
 6812SOL     OW25373  10.096   8.753   0.121  0.1459  0.1873 -0.3392
 6812SOL    HW125374  10.037   8.783   0.051 -1.1493 -0.1401  0.5832
 6812SOL    HW225375  10.123   8.834   0.165  0.3681  0.3365 -0.7417
 6813SOL     OW25376   1.146   1.775   6.581 -0.3708  0.2528  0.0976
 6813SOL    HW125377   1.233   1.760   6.618 -0.9269 -1.2328  0.8876
 6813SOL    HW225378   1.133   1.870   6.588  0.9595  0.4243  0.4639
 6814SOL     OW25379   0.430   8.040   5.435  0.3261  0.2864 -0.0144
 6814SOL    HW125380   0.468   7.953   5.431 -0.0650  0.0817  0.6123
 6814SOL    HW225381   0.420   8.058   5.529  2.4264  1.8989 -0.0287
 6815SOL     OW25382   1.819   6.434   6.695 -0.1429  0.0319 -0.0603
 6815SOL    HW125383   1.864   6.440   6.611 -1.4093  2.1492 -0.6724
 6815SOL    HW225384   1.741   6.488   6.684 -0.8356 -0.4058  2.1872
 6816SOL     OW25385   2.674   5.853   9.977  0.0117 -0.0103 -0.1536
 6816SOL    HW125386   2.724   5.931   9.952  0.3326  0.4180  1.6646
 6816SOL    HW225387   2.740   5.784   9.983 -0.0717 -0.1229 -0.5092
 6817SOL     OW25388   7.223   6.611   8.238  0.3994 -0.1816 -0.0732
 6817SOL    HW125389   7.273   6.577   8.312  1.8049  0.0339 -0.8739
 6817SOL    HW225390   7.254   6.701   8.227  1.8536 -0.8397 -2.1895
 6818SOL     OW25391   0.845  10.081   2.614 -0.3208 -0.1380  0.3825
 6818SOL    HW125392   0.924  10.048   2.656 -0.4402 -1.1566 -0.1501
 6818SOL    HW225393   0.773  10.040   2.662 -0.4574 -1.3736 -0.7880
 6819SOL     OW25394  11.584   7.900   5.304 -1.2023 -0.1386 -0.5179
 6819SOL    HW125395  11.634   7.944   5.236 -0.7828 -1.2756 -0.9747
 6819SOL    HW225396  11.622   7.931   5.386 -1.1915  0.6437 -0.8144
 6820SOL     OW25397   2.116   9.527   6.387  0.5253  0.3267  0.4825
 6820SOL    HW125398   2.106   9.595   6.454  0.4043 -0.8296  1.6631
 6820SOL    HW225399   2.035   9.476   6.392  0.9521 -0.3993  0.1566
 6821SOL     OW25400   7.612   7.907   7.382 -0.3154  0.0568 -0.8189
 6821SOL    HW125401   7.649   7.824   7.352  0.9832  0.5349 -0.6281
 6821SOL    HW225402   7.518   7.894   7.381 -0.1185 -1.5731 -0.3421
 6822SOL     OW25403   8.183  10.094   8.233 -0.0578 -0.0818  0.4596
 6822SOL    HW125404   8.220  10.067   8.149  1.7085 -1.8092  1.6979
 6822SOL    HW225405   8.245  10.157   8.267 -1.0071  0.9655  0.3255
 6823SOL     OW25406   4.832   4.428   8.538  0.3454 -0.8540 -0.3459
 6823SOL    HW125407   4.822   4.428   8.443 -0.7837  0.1295 -0.2494
 6823SOL    HW225408   4.921   4.396   8.553  0.3545 -1.5085 -1.7005
 6824SOL     OW25409   4.750   7.362   1.318  0.0267  0.4267  0.0975
 6824SOL    HW125410   4.731   7.456   1.315  0.0619  0.4225 -2.8052
 6824SOL    HW225411   4.665   7.320   1.323 -0.0368  0.5861  0.3874
 6825SOL     OW25412   9.478   5.369   9.522 -0.0994  0.6730  0.3078
 6825SOL    HW125413   9.569   5.346   9.504 -0.7556 -2.4937  0.4939
 6825SOL    HW225414   9.478   5.399   9.613  0.8068  1.2287  0.1376
 6826SOL     OW25415   1.703   5.784   5.645  0.9712 -0.5730 -0.0750
 6826SOL    HW125416   1.656   5.708   5.678  0.3782 -1.0280 -1.9165
 6826SOL    HW225417   1.787   5.782   5.692 -0.0761 -0.7777  1.8923
 6827SOL     OW25418   6.770   9.014   0.481 -0.2454  0.1834 -0.0968
 6827SOL    HW125419   6.692   9.063   0.454 -1.0683 -1.1285 -0.1721
 6827SOL    HW225420   6.740   8.959   0.553  0.7498  0.0617  0.2309
 6828SOL     OW25421   6.640   7.890   2.519  0.5335 -0.1935  0.3574
 6828SOL    HW125422   6.594   7.939   2.451  0.0997  0.4010  1.0652
 6828SOL    HW225423   6.726   7.931   2.525 -0.1457  1.1380  1.5944
 6829SOL     OW25424   5.672   1.182   2.925 -0.2462 -0.2463  0.2512
 6829SOL    HW125425   5.647   1.237   3.000  0.9797  0.1621  0.3827
 6829SOL    HW225426   5.672   1.093   2.960  0.5242 -0.0387  0.8131
 6830SOL     OW25427   7.777   2.262   5.744 -0.0332  0.1167  0.5735
 6830SOL    HW125428   7.685   2.248   5.769 -0.4867  0.8044 -0.6295
 6830SOL    HW225429   7.820   2.289   5.826 -1.5740  2.8104  0.6170
 6831SOL     OW25430   4.863  10.373   9.251 -0.2057  0.2176  0.3115
 6831SOL    HW125431   4.804  10.418   9.190 -0.4778 -1.0652 -0.4034
 6831SOL    HW225432   4.936  10.434   9.263 -0.2533  0.5955 -1.1365
 6832SOL     OW25433   4.101   3.378   9.178  0.2507  0.2462  0.4940
 6832SOL    HW125434   4.157   3.345   9.248  1.9363  2.3833  0.2874
 6832SOL    HW225435   4.163   3.410   9.112 -1.1819  2.2647  0.0341
 6833SOL     OW25436   2.114   2.503   5.967  0.4723  0.1927  0.0880
 6833SOL    HW125437   2.108   2.599   5.967  2.3453  0.3503 -0.1022
 6833SOL    HW225438   2.126   2.480   6.059  0.4724  0.1816  0.0852
 6834SOL     OW25439   2.899   9.484   3.344  0.3525 -0.4652  0.6293
 6834SOL    HW125440   2.888   9.529   3.260  2.8896 -2.0728 -0.6566
 6834SOL    HW225441   2.949   9.545   3.397  1.0181 -0.4862  0.0319
 6835SOL     OW25442   8.613   5.422   4.264  0.2043 -0.2872 -0.3915
 6835SOL    HW125443   8.627   5.363   4.338  0.0249 -1.9414 -1.6258
 6835SOL    HW225444   8.518   5.430   4.258  0.1839  2.8280  1.7491
 6836SOL     OW25445  10.195   9.285   8.908 -0.0990  0.6242  0.3866
 6836SOL    HW125446  10.282   9.248   8.922  0.9907  1.7285 -2.7142
 6836SOL    HW225447  10.139   9.209   8.890  1.0136  0.0835 -0.9689
 6837SOL     OW25448   5.085   1.227  10.186 -0.5180  0.0122 -0.0829
 6837SOL    HW125449   5.081   1.133  10.171  0.9020 -0.1052  0.1018
 6837SOL    HW225450   5.093   1.236  10.281  0.6167  0.2336 -0.1823
 6838SOL     OW25451   1.305   7.665   4.634  0.1401 -0.3458 -0.0523
 6838SOL    HW125452   1.344   7.699   4.553 -0.9121 -0.0808 -0.4653
 6838SOL    HW225453   1.211   7.680   4.623  0.1275  4.4977  3.2985
 6839SOL     OW25454   2.578   5.150   5.502 -0.2824 -0.2198 -0.1941
 6839SOL    HW125455   2.482   5.157   5.502 -0.2042  1.5658 -1.4361
 6839SOL    HW225456   2.601   5.142   5.410  0.6646 -3.9392  0.2190
 6840SOL     OW25457   7.329   9.255   0.103  0.3347  0.8842 -0.1525
 6840SOL    HW125458   7.392   9.185   0.123  0.5594  0.7624 -1.2168
 6840SOL    HW225459   7.376   9.313   0.042 -0.6129  0.7206 -1.0676
 6841SOL     OW25460   4.461   0.687   8.651  0.1390 -0.3829  0.1353
 6841SOL    HW125461   4.481   0.775   8.619 -0.4223 -0.4147 -0.3165
 6841SOL    HW225462   4.533   0.666   8.710 -0.1474  0.7138  0.9069
 6842SOL     OW25463   4.500   1.814   5.103  0.1260  0.0650  0.2351
 6842SOL    HW125464   4.435   1.882   5.080  0.2120  0.1673  0.2941
 6842SOL    HW225465   4.564   1.860   5.157  0.3865  0.0229 -0.0372
 6843SOL     OW25466   1.906  10.031  11.048 -0.1914 -0.5827 -0.4664
 6843SOL    HW125467   1.940  10.094  10.984 -0.9000 -0.1549 -0.4392
 6843SOL    HW225468   1.978  10.016  11.108  0.4866 -0.9743 -1.3506
 6844SOL     OW25469   5.588   5.916   6.967 -0.2290  0.1803 -0.1687
 6844SOL    HW125470   5.525   5.922   7.040 -0.3973  0.9302 -0.3620
 6844SOL    HW225471   5.615   6.007   6.952  1.7878 -0.2402  0.6664
 6845SOL     OW25472   8.733   9.633   7.337 -0.6190  0.0326 -0.6436
 6845SOL    HW125473   8.658   9.593   7.293 -0.0318 -0.9161 -0.8233
 6845SOL    HW225474   8.809   9.603   7.286  0.2908 -2.7906  2.0652
 6846SOL     OW25475   1.962   2.274   2.720 -0.2067  0.7044  1.1896
 6846SOL    HW125476   1.980   2.185   2.751 -1.4332 -0.4930 -1.2160
 6846SOL    HW225477   1.878   2.266   2.673 -0.1898  3.0660  0.6560
 6847SOL     OW25478   8.729  10.664   1.941  0.7172  0.3796 -0.5462
 6847SOL    HW125479   8.703  10.622   2.023  2.3519  0.5417  0.0898
 6847SOL    HW225480   8.653  10.655   1.884 -0.2908 -0.1328  0.8353
 6848SOL     OW25481   3.801  10.000   3.577  0.5148 -0.0012 -0.2851
 6848SOL    HW125482   3.876   9.964   3.530  1.5035 -0.4701  1.5514
 6848SOL    HW225483   3.795  10.091   3.547  1.3990 -0.1459 -0.9340
 6849SOL     OW25484   9.646   5.303   1.873  0.4107  0.2634  0.0433
 6849SOL    HW125485   9.661   5.397   1.857  2.6628 -0.2746 -1.4267
 6849SOL    HW225486   9.720   5.277   1.928  0.6494 -0.9435 -0.8223
 6850SOL     OW25487   5.225   9.113   3.770 -0.2743 -0.5107  0.0907
 6850SOL    HW125488   5.246   9.077   3.856  1.3095 -0.8487 -0.4173
 6850SOL    HW225489   5.281   9.190   3.762  0.2527 -1.0032 -1.0090
 6851SOL     OW25490   2.359   7.421   6.431 -0.3260 -0.3578  0.0810
 6851SOL    HW125491   2.391   7.511   6.423 -0.8300 -0.2511 -0.9032
 6851SOL    HW225492   2.300   7.423   6.507 -0.5748  0.2137 -0.1226
 6852SOL     OW25493   7.707   4.653   0.582 -0.3201  0.0779 -0.5877
 6852SOL    HW125494   7.773   4.646   0.514  0.0859  1.1527 -0.3329
 6852SOL    HW225495   7.756   4.647   0.664 -0.7133 -0.4928 -0.3904
 6853SOL     OW25496   7.828   7.756   0.597 -0.5233  0.6375 -0.1765
 6853SOL    HW125497   7.868   7.686   0.546 -0.9262  1.9690 -2.4838
 6853SOL    HW225498   7.864   7.746   0.684  0.3246 -1.6933 -0.7191
 6854SOL     OW25499   5.522   4.003  10.819 -0.2578  0.3904  0.0695
 6854SOL    HW125500   5.590   3.960  10.767  2.0055  1.3289  2.0329
 6854SOL    HW225501   5.526   3.960  10.904 -3.1836 -0.4502 -0.1117
 6855SOL     OW25502  10.531  11.381   2.082  0.4103 -0.1485  0.0422
 6855SOL    HW125503  10.440  11.405   2.060 -0.4573 -3.1908 -0.0641
 6855SOL    HW225504  10.524  11.334   2.165  2.1845  1.0757  0.9475
 6856SOL     OW25505   8.187   5.025   6.710 -0.1949 -0.1224 -0.9864
 6856SOL    HW125506   8.093   5.014   6.698  0.0165 -1.8206 -1.2930
 6856SOL    HW225507   8.226   4.993   6.628  0.7444 -1.5891 -0.0027
 6857SOL     OW25508   4.050   9.710   6.699  0.0447  0.3859 -0.4285
 6857SOL    HW125509   3.961   9.697   6.665 -0.7816  1.5795  1.1667
 6857SOL    HW225510   4.038   9.725   6.792  1.8172  1.8787 -0.3941
 6858SOL     OW25511   8.672   7.274   3.044  0.0869 -0.4546  0.0232
 6858SOL    HW125512   8.668   7.239   2.955  0.9492 -0.6943  0.0725
 6858SOL    HW225513   8.601   7.338   3.048  0.7602  0.4193 -1.2175
 6859SOL     OW25514   2.463   9.699   0.429 -0.5736  0.4249 -0.8196
 6859SOL    HW125515   2.404   9.692   0.354 -2.6016 -2.0895  0.8075
 6859SOL    HW225516   2.422   9.643   0.496  2.5330  0.3733  1.2240
 6860SOL     OW25517   8.709   1.038   3.068 -0.5979  0.0823  0.0028
 6860SOL    HW125518   8.757   1.107   3.022  0.4505 -1.2552 -1.0229
 6860SOL    HW225519   8.662   1.083   3.137 -0.3905  1.8892 -0.9726
 6861SOL     OW25520   2.099   8.267   4.282 -0.0808  0.3268 -0.4839
 6861SOL    HW125521   2.087   8.212   4.205 -0.4583  2.8913 -2.4033
 6861SOL    HW225522   2.193   8.287   4.283  0.4180 -1.7104  1.3180
 6862SOL     OW25523   4.456   8.318   9.144 -0.3317  0.4629 -0.5450
 6862SOL    HW125524   4.534   8.355   9.185 -0.8410  1.2173 -0.2287
 6862SOL    HW225525   4.435   8.380   9.073  0.3637 -0.6606 -1.7796
 6863SOL     OW25526   0.812  11.261   9.633 -0.0582  0.2135 -0.0093
 6863SOL    HW125527   0.862  11.335   9.668 -1.2462  1.4112 -0.7277
 6863SOL    HW225528   0.805  11.200   9.706  2.4601 -0.0496  0.1078
 6864SOL     OW25529   6.999   1.069   1.225  0.2985  0.7450  0.2264
 6864SOL    HW125530   6.962   0.981   1.225  1.9835  0.0003  0.2385
 6864SOL    HW225531   6.960   1.111   1.148 -0.0745 -0.2014 -0.1199
 6865SOL     OW25532   2.407   6.877   8.539  0.3829  0.7635  0.2636
 6865SOL    HW125533   2.315   6.874   8.563  0.2020  1.2367 -0.3627
 6865SOL    HW225534   2.453   6.872   8.623 -0.1768 -0.5696  0.5159
 6866SOL     OW25535  10.958   5.291   2.431 -0.1965 -0.4972  0.0748
 6866SOL    HW125536  11.030   5.345   2.401 -0.3639  0.6181  1.5729
 6866SOL    HW225537  10.988   5.201   2.417  0.2292 -0.0544 -2.1172
 6867SOL     OW25538   1.867   3.850   9.175 -0.0992 -0.3562 -0.5918
 6867SOL    HW125539   1.909   3.827   9.258 -0.0013 -0.7956 -0.7613
 6867SOL    HW225540   1.796   3.909   9.201  1.8219  2.0572 -0.4876
 6868SOL     OW25541   6.497   9.734   5.554 -0.0982 -0.7556  0.1838
 6868SOL    HW125542   6.535   9.821   5.568 -0.9530  0.0971 -2.2725
 6868SOL    HW225543   6.410   9.738   5.593 -0.0858 -0.5306  0.1875
 6869SOL     OW25544   4.236  10.857   6.120 -0.3441  0.5596  0.0490
 6869SOL    HW125545   4.155  10.867   6.070 -0.1102 -2.6496 -1.2864
 6869SOL    HW225546   4.208  10.828   6.206 -0.6629  0.3414 -0.1240
 6870SOL     OW25547  10.959  10.331   0.605 -0.1204 -0.2166  0.3974
 6870SOL    HW125548  10.904  10.373   0.671 -0.6991 -0.1516 -0.1180
 6870SOL    HW225549  10.901  10.317   0.530  0.6703  0.2289 -0.3179
 6871SOL     OW25550   4.217   3.124   7.069 -0.3956  0.8183 -0.2548
 6871SOL    HW125551   4.248   3.046   7.115 -0.2740  1.7461  1.3069
 6871SOL    HW225552   4.237   3.107   6.976 -2.5022 -1.9825 -0.3042
 6872SOL     OW25553   7.810   6.775  10.177  0.5454  0.1130  0.2828
 6872SOL    HW125554   7.740   6.710  10.190  1.2020 -0.5852  0.4116
 6872SOL    HW225555   7.883   6.742  10.230  0.5510  1.5134  1.2002
 6873SOL     OW25556   4.248   9.594   4.976  0.1013  0.1000  0.2379
 6873SOL    HW125557   4.317   9.660   4.989 -0.2276  0.3651  0.6625
 6873SOL    HW225558   4.265   9.528   5.044 -1.6552  1.5154  2.1790
 6874SOL     OW25559   1.431   5.964  11.198 -0.0616  0.6374  0.7073
 6874SOL    HW125560   1.519   6.001  11.190  0.2461  0.3349  2.3605
 6874SOL    HW225561   1.373   6.039  11.208  0.0161  0.8312 -0.2423
 6875SOL     OW25562   5.438  10.870   1.847 -0.3900  0.4696 -0.5009
 6875SOL    HW125563   5.433  10.839   1.757  0.7410  0.2660 -0.5077
 6875SOL    HW225564   5.441  10.790   1.900 -0.8640  0.5888 -0.2844
 6876SOL     OW25565   7.050  10.044   0.088  0.5690 -0.4814  0.4727
 6876SOL    HW125566   6.975  10.061   0.030 -0.2130 -2.0272  0.9820
 6876SOL    HW225567   7.122  10.094   0.049 -0.0187 -1.1739 -1.6473
 6877SOL     OW25568   3.465   1.573   6.045  0.3399  0.1417  0.4816
 6877SOL    HW125569   3.497   1.486   6.069 -1.7603 -1.4657 -2.0961
 6877SOL    HW225570   3.370   1.568   6.056  0.1411  2.0425 -0.0084
 6878SOL     OW25571  11.177   8.664   5.614 -0.2564 -0.4458  0.0918
 6878SOL    HW125572  11.180   8.595   5.548  0.6043 -0.2870 -0.0458
 6878SOL    HW225573  11.105   8.721   5.588  0.2023 -0.2747 -0.8167
 6879SOL     OW25574  11.182   3.987   3.068 -0.0705 -0.5264  0.3635
 6879SOL    HW125575  11.257   3.941   3.031 -0.6500 -0.6622 -0.7136
 6879SOL    HW225576  11.166   4.059   3.007  0.1622  0.4804  1.4520
 6880SOL     OW25577   2.871   1.316   8.147 -0.7553 -0.2903 -0.3848
 6880SOL    HW125578   2.876   1.410   8.132  2.0586 -0.3110 -0.1372
 6880SOL    HW225579   2.895   1.277   8.063  0.6221 -0.7057  0.1806
 6881SOL     OW25580   5.823   6.066   3.485  0.6460  0.2400  0.0060
 6881SOL    HW125581   5.768   6.113   3.548  1.0500  1.8891 -0.8154
 6881SOL    HW225582   5.913   6.084   3.512  0.8132  0.3467 -0.6065
 6882SOL     OW25583   6.168   2.588   3.065  0.1655 -0.0918 -0.3453
 6882SOL    HW125584   6.169   2.643   3.143 -0.7969  0.3145 -0.6005
 6882SOL    HW225585   6.254   2.599   3.026 -0.2477  1.8527 -0.7969
 6883SOL     OW25586   7.164   8.257   3.160 -0.0880  0.3150 -0.0915
 6883SOL    HW125587   7.078   8.216   3.163 -0.4068  0.8222 -1.4749
 6883SOL    HW225588   7.207   8.217   3.084 -0.2337  2.1408 -1.2015
 6884SOL     OW25589   8.607   0.038   8.827 -0.1420 -0.8467 -0.0199
 6884SOL    HW125590   8.599   0.133   8.838  1.5456 -0.2880 -2.7178
 6884SOL    HW225591   8.680   0.013   8.884  0.6180 -0.1741 -0.6779
 6885SOL     OW25592   2.952   2.011   5.882 -0.3982  0.3110 -0.2470
 6885SOL    HW125593   2.976   2.027   5.791 -0.8025  0.2427 -0.3653
 6885SOL    HW225594   2.880   2.072   5.899  0.7297  1.4916  0.5105
 6886SOL     OW25595   8.597   6.042   1.551 -0.2096  0.1121 -0.2622
 6886SOL    HW125596   8.629   5.952   1.560  1.6648  0.8336  1.1929
 6886SOL    HW225597   8.504   6.037   1.571  0.1524 -1.3356  1.3258
 6887SOL     OW25598   4.767   6.449   5.334 -0.4840 -0.6394  0.0692
 6887SOL    HW125599   4.698   6.475   5.395  0.5581  1.3377  0.5169
 6887SOL    HW225600   4.795   6.362   5.365 -0.4544  0.0074  2.0321
 6888SOL     OW25601   8.921   6.600   0.569  0.1370 -0.4342 -0.1905
 6888SOL    HW125602   8.904   6.661   0.497  1.7596  2.5261  1.7445
 6888SOL    HW225603   8.835   6.587   0.610 -0.2077  0.7793 -0.4938
 6889SOL     OW25604   1.693   8.785   2.177 -0.4049  0.4977  0.4466
 6889SOL    HW125605   1.721   8.844   2.247  0.2142  2.3752 -1.2560
 6889SOL    HW225606   1.769   8.729   2.161 -0.5387  0.0811  1.2363
 6890SOL     OW25607   3.755  10.002   8.852  0.0589  0.3329  0.3912
 6890SOL    HW125608   3.733   9.973   8.941  1.2494 -0.2828  0.5047
 6890SOL    HW225609   3.753  10.097   8.857 -0.7694  0.3080  0.8327
 6891SOL     OW25610   5.778   2.869   4.320 -0.0072 -0.0979  0.0335
 6891SOL    HW125611   5.805   2.958   4.302 -0.2169 -0.0956 -0.2794
 6891SOL    HW225612   5.756   2.869   4.413 -0.5439  0.3169 -0.0899
 6892SOL     OW25613   9.517  10.074   3.728 -0.1414  0.3014  0.2145
 6892SOL    HW125614   9.448  10.118   3.678  0.7041  0.2550 -1.0075
 6892SOL    HW225615   9.566  10.024   3.664 -0.9088 -2.3001  1.5097
 6893SOL     OW25616   8.292   4.043   8.235  0.4199  0.2933 -0.3283
 6893SOL    HW125617   8.285   3.973   8.300  1.3725  1.4505  1.0878
 6893SOL    HW225618   8.209   4.090   8.243  0.6352  0.5866  0.2670
 6894SOL     OW25619   0.918   2.900   5.334  0.0552  0.4423  0.0678
 6894SOL    HW125620   0.851   2.840   5.299 -0.1984  0.0321  1.2244
 6894SOL    HW225621   1.001   2.855   5.318 -0.0031  0.5324 -0.5293
 6895SOL     OW25622   0.139   3.489   6.307 -0.4305 -0.0043  0.5426
 6895SOL    HW125623   0.086   3.509   6.230 -0.8595  0.8952  1.0552
 6895SOL    HW225624   0.077   3.459   6.373 -0.2492  0.4897  0.9534
 6896SOL     OW25625  10.234  10.151   0.814  0.1789  0.3363 -0.4947
 6896SOL    HW125626  10.175  10.083   0.848  0.5864  1.0211  1.7141
 6896SOL    HW225627  10.314  10.103   0.792  0.7133  0.1209  1.6987
 6897SOL     OW25628   9.959   3.103   6.173  0.3899 -0.1673  0.1294
 6897SOL    HW125629   9.995   3.111   6.085  0.6978  0.0245  0.2719
 6897SOL    HW225630   9.866   3.082   6.159  0.0383  1.4920 -0.2566
 6898SOL     OW25631  10.357   8.919   3.829  0.1629  0.4872  0.4698
 6898SOL    HW125632  10.289   8.985   3.814  2.1600  2.4180 -0.5564
 6898SOL    HW225633  10.353   8.901   3.923 -1.8749  0.3766  0.4006
 6899SOL     OW25634   2.887   6.527   9.134  0.0953  0.1601 -0.1049
 6899SOL    HW125635   2.884   6.432   9.147 -2.4840 -0.1434 -2.1333
 6899SOL    HW225636   2.818   6.562   9.190  1.9719  1.1164  1.7641
 6900SOL     OW25637   3.848   3.834   0.654 -0.0954  0.2373  0.0302
 6900SOL    HW125638   3.854   3.853   0.561 -1.0776 -1.6646 -0.4548
 6900SOL    HW225639   3.754   3.834   0.673  0.0017 -1.2437  0.5972
 6901SOL     OW25640   6.436   1.224  10.797  0.1623  0.1862 -0.7552
 6901SOL    HW125641   6.509   1.225  10.735 -1.1960  1.0761 -2.4260
 6901SOL    HW225642   6.436   1.311  10.836  0.8946 -0.3093  0.4136
 6902SOL     OW25643   4.287   8.350   9.433  0.1876 -0.4660  0.2854
 6902SOL    HW125644   4.273   8.407   9.509  0.9743 -2.0330  1.6747
 6902SOL    HW225645   4.362   8.389   9.387  0.4197 -0.1225  0.9413
 6903SOL     OW25646   3.352  10.656   8.045 -0.0885  0.5907  0.8576
 6903SOL    HW125647   3.337  10.564   8.068  1.8380  0.1902  0.6449
 6903SOL    HW225648   3.277  10.678   7.989  0.9273 -1.8201 -1.6781
 6904SOL     OW25649  11.366  11.067   0.431 -0.3918  0.0493  0.0863
 6904SOL    HW125650  11.407  11.005   0.372 -2.0929 -1.7612  0.6864
 6904SOL    HW225651  11.353  11.019   0.513  0.9042  2.1403  1.6491
 6905SOL     OW25652   5.274   6.231   5.075  0.2983 -0.0146 -0.3810
 6905SOL    HW125653   5.347   6.179   5.109  0.5394 -1.0914 -2.4269
 6905SOL    HW225654   5.315   6.307   5.036  0.1135  0.5670  0.5209
 6906SOL     OW25655   6.231   1.132   2.667  0.3712 -0.1401  0.2171
 6906SOL    HW125656   6.246   1.142   2.573  1.2924  1.7502  0.5231
 6906SOL    HW225657   6.135   1.128   2.675  0.2696 -0.0951 -0.7811
 6907SOL     OW25658   5.499   9.129   4.102  0.2980 -0.5897  0.0274
 6907SOL    HW125659   5.502   9.184   4.180  1.2639 -3.3640  2.1454
 6907SOL    HW225660   5.589   9.126   4.071  0.0088  0.0702 -0.9344
 6908SOL     OW25661   6.107  10.252   3.687  0.4201 -0.1031 -0.0160
 6908SOL    HW125662   6.099  10.183   3.621  0.2743 -0.4251  0.3356
 6908SOL    HW225663   6.160  10.213   3.757  3.1666  1.1771 -1.2271
 6909SOL     OW25664   0.842   3.440   8.984  0.1979 -0.1602 -0.1506
 6909SOL    HW125665   0.761   3.423   9.033  0.2713 -0.5464 -0.1625
 6909SOL    HW225666   0.836   3.384   8.907 -0.1449  0.8072 -0.8528
 6910SOL     OW25667   1.074  10.243   8.451  0.3656 -0.3663  0.2687
 6910SOL    HW125668   1.164  10.273   8.440  0.1979 -0.2482 -0.9419
 6910SOL    HW225669   1.022  10.301   8.395 -0.6867  0.5321  2.0849
 6911SOL     OW25670   8.083   9.498   9.484 -0.1657 -0.3330 -0.0034
 6911SOL    HW125671   8.099   9.557   9.410 -0.7440  1.6553  1.3620
 6911SOL    HW225672   8.169   9.480   9.519  0.1449 -1.5641 -1.3186
 6912SOL     OW25673   0.486   4.039   6.625 -0.2585 -0.1572 -0.0340
 6912SOL    HW125674   0.439   4.006   6.701 -0.8542  1.2982  0.2680
 6912SOL    HW225675   0.422   4.035   6.554  0.1601 -1.0963 -0.3808
 6913SOL     OW25676   1.369   2.938   3.635  0.3752  0.5758 -0.1941
 6913SOL    HW125677   1.437   2.881   3.671 -1.0135 -0.4060  0.9889
 6913SOL    HW225678   1.417   3.004   3.586  2.2712  0.7847  1.7849
 6914SOL     OW25679   1.230   3.418   6.043  0.0008 -0.2883  0.0192
 6914SOL    HW125680   1.259   3.429   5.952 -1.6435 -1.1078 -0.6605
 6914SOL    HW225681   1.240   3.505   6.082  1.5299 -0.1183 -0.6824
 6915SOL     OW25682   6.725   7.462   5.576 -0.3189 -0.6486 -0.2732
 6915SOL    HW125683   6.708   7.374   5.542  0.1020 -1.0706  0.5692
 6915SOL    HW225684   6.695   7.459   5.667  0.2828 -0.1114 -0.0489
 6916SOL     OW25685   3.514   3.900   4.363  0.5028  0.3828  0.2961
 6916SOL    HW125686   3.468   3.829   4.408  1.4402 -0.9586 -0.7693
 6916SOL    HW225687   3.445   3.963   4.341 -0.4717 -0.5102  0.6968
 6917SOL     OW25688  10.230   6.248   9.086  0.1494  0.4657  0.7935
 6917SOL    HW125689  10.197   6.221   9.171  3.1853  0.2639  2.0378
 6917SOL    HW225690  10.248   6.341   9.096 -0.2145  0.6227  0.0705
 6918SOL     OW25691   9.949   2.931   4.161 -0.4176  0.2443  0.0992
 6918SOL    HW125692  10.025   2.988   4.147 -0.2853 -0.4336 -2.6532
 6918SOL    HW225693   9.985   2.852   4.201  0.1262  0.4084 -0.0576
 6919SOL     OW25694   7.562   5.053   9.267 -0.1263 -0.1441 -0.9103
 6919SOL    HW125695   7.515   5.027   9.188 -0.6041  0.3573 -0.8014
 6919SOL    HW225696   7.499   5.037   9.338  0.5934 -1.3970 -0.5219
 6920SOL     OW25697   6.992  11.047   7.117  0.1091  0.1772 -0.0885
 6920SOL    HW125698   6.963  10.956   7.123  2.3320 -0.7410 -1.9700
 6920SOL    HW225699   6.989  11.067   7.023  0.0424  1.9237  0.2589
 6921SOL     OW25700   6.812   7.410   1.264  0.6453  0.0537  0.0023
 6921SOL    HW125701   6.719   7.399   1.246  0.9827 -3.1786 -0.3311
 6921SOL    HW225702   6.826   7.363   1.347  2.0336  0.2275 -0.1133
 6922SOL     OW25703  10.699   4.449   1.915 -0.0974  0.1589  0.2390
 6922SOL    HW125704  10.732   4.364   1.886  3.6461  1.4641  0.1543
 6922SOL    HW225705  10.718   4.451   2.009  0.5722  1.1726  0.0918
 6923SOL     OW25706   9.382   1.650   9.205  0.9354 -0.6416  0.3054
 6923SOL    HW125707   9.451   1.697   9.159  0.5788  1.0420  1.4172
 6923SOL    HW225708   9.324   1.619   9.136  1.7249 -0.3345 -0.5176
 6924SOL     OW25709   9.207   2.894  11.012  0.2098  0.2099  0.5435
 6924SOL    HW125710   9.178   2.828  10.949 -1.4483  1.9116 -0.6139
 6924SOL    HW225711   9.175   2.863  11.097 -0.9551 -0.2762 -0.0484
 6925SOL     OW25712   8.591   6.714   4.726 -0.5769 -0.3711  0.0458
 6925SOL    HW125713   8.673   6.669   4.702 -0.9967 -0.9046 -0.4275
 6925SOL    HW225714   8.588   6.790   4.668 -1.1822 -1.2125 -1.0572
 6926SOL     OW25715   6.417   6.513   2.173 -0.1319  0.0859  0.0135
 6926SOL    HW125716   6.491   6.468   2.213  0.8322  1.4567 -0.1668
 6926SOL    HW225717   6.403   6.590   2.229 -3.0390 -1.3428  1.5202
 6927SOL     OW25718   7.132   7.146   1.868 -0.6075  0.2421 -0.1717
 6927SOL    HW125719   7.227   7.154   1.856 -0.5553  0.7645  0.5408
 6927SOL    HW225720   7.120   7.054   1.894 -0.2233  0.3251  0.3268
 6928SOL     OW25721  10.261   4.456   0.189  0.1749  0.5919 -1.0626
 6928SOL    HW125722  10.300   4.539   0.162 -0.8847  1.8340  0.9720
 6928SOL    HW225723  10.292   4.443   0.279 -1.0900 -0.2980 -0.7265
 6929SOL     OW25724   5.865  10.260   2.538  0.0815  0.7402  0.2874
 6929SOL    HW125725   5.866  10.222   2.450 -2.0767  1.0929  0.0569
 6929SOL    HW225726   5.917  10.340   2.530  2.7315 -0.8623  0.2226
 6930SOL     OW25727   6.578  10.030   1.591  0.7064  0.1934 -0.6439
 6930SOL    HW125728   6.646  10.007   1.655 -0.6681  0.4030  0.9739
 6930SOL    HW225729   6.591   9.968   1.519  0.2407 -2.4334  1.3558
 6931SOL     OW25730   2.486  11.051   9.412 -0.5922 -0.3356  0.2420
 6931SOL    HW125731   2.432  11.129   9.413 -1.5737 -0.9869 -0.4459
 6931SOL    HW225732   2.576  11.083   9.424 -1.0471  0.8148  0.6711
 6932SOL     OW25733   5.479   7.732   2.383 -0.4186  0.1445  0.1927
 6932SOL    HW125734   5.465   7.816   2.339 -0.0597  0.4357  0.6189
 6932SOL    HW225735   5.452   7.666   2.319 -1.5207  0.6081  0.1669
 6933SOL     OW25736   8.064   5.498   6.545  0.2486 -0.0782 -0.3044
 6933SOL    HW125737   8.081   5.535   6.458  2.3732 -0.6305 -0.1773
 6933SOL    HW225738   8.112   5.554   6.605  0.8085 -1.1217  0.2447
 6934SOL     OW25739   4.866   9.960   2.443  0.1105 -0.0912 -0.1731
 6934SOL    HW125740   4.960   9.966   2.463 -0.0075  2.3463 -0.0727
 6934SOL    HW225741   4.847  10.039   2.393 -1.9658 -0.4163  0.0160
 6935SOL     OW25742   3.730   3.654   2.599 -0.1456  0.4207  0.5551
 6935SOL    HW125743   3.742   3.640   2.505 -1.0974  0.2167  0.4478
 6935SOL    HW225744   3.816   3.640   2.637 -0.0957 -1.2228 -0.0800
 6936SOL     OW25745   5.713   9.657  10.105 -0.2205  0.0839  0.4252
 6936SOL    HW125746   5.625   9.632  10.132  0.4812 -1.0635  1.7766
 6936SOL    HW225747   5.758   9.574  10.089  0.7137  0.6391  0.0402
 6937SOL     OW25748   8.106   9.025   3.075 -0.0850 -0.7037 -0.0045
 6937SOL    HW125749   8.199   9.036   3.053 -1.0430  1.5306 -3.8384
 6937SOL    HW225750   8.086   8.936   3.046  0.1074  0.1356 -3.0322
 6938SOL     OW25751  11.166   4.017  10.110  0.3637  0.2034 -0.3620
 6938SOL    HW125752  11.160   4.112  10.123  0.5674  0.3535 -1.3207
 6938SOL    HW225753  11.229   3.989  10.177 -0.5131  0.5681  0.6597
 6939SOL     OW25754   1.419   9.352   9.595 -0.0403 -0.2773 -0.2690
 6939SOL    HW125755   1.504   9.349   9.638 -0.8746 -1.2326  1.4332
 6939SOL    HW225756   1.438   9.366   9.502  1.8965  0.7455  0.2408
 6940SOL     OW25757   1.048   5.816   6.982 -0.3474 -0.1166 -0.2169
 6940SOL    HW125758   1.104   5.893   6.988  0.3688 -0.6219 -0.3526
 6940SOL    HW225759   0.959   5.850   6.992  0.0481  0.5251  1.5201
 6941SOL     OW25760  11.434   6.834   8.018 -0.1224  0.1983 -0.0864
 6941SOL    HW125761  11.478   6.845   7.934  1.4215  0.3171  0.6901
 6941SOL    HW225762  11.470   6.753   8.054 -1.3511 -0.2746  0.1304
 6942SOL     OW25763  11.666   8.187   2.834  0.2977  0.3501 -0.0273
 6942SOL    HW125764  11.641   8.095   2.823  0.3486  0.4538 -1.1457
 6942SOL    HW225765  11.733   8.185   2.902 -0.3194 -0.3295  0.5888
 6943SOL     OW25766   4.669   7.024   4.539 -0.3824 -0.2398 -0.1747
 6943SOL    HW125767   4.678   7.112   4.575  0.3052 -0.0289 -0.8524
 6943SOL    HW225768   4.644   6.970   4.615  2.0080 -0.0032  0.8597
 6944SOL     OW25769   0.579   3.007   6.662  0.4140 -0.0868 -0.2209
 6944SOL    HW125770   0.638   3.081   6.647  2.4878 -1.2041  1.7864
 6944SOL    HW225771   0.637   2.932   6.677 -1.5890 -1.8684 -0.8278
 6945SOL     OW25772   3.263   0.834   3.748 -0.2549 -0.3341  0.0767
 6945SOL    HW125773   3.297   0.748   3.769 -0.7953 -1.0534 -1.7835
 6945SOL    HW225774   3.190   0.847   3.809 -0.0611 -1.1082  0.4822
 6946SOL     OW25775   2.792   5.515   4.921  0.1124 -0.2724 -0.2985
 6946SOL    HW125776   2.765   5.575   4.991 -0.8893 -1.1609  0.1005
 6946SOL    HW225777   2.882   5.490   4.944  0.0099 -0.0748  0.3293
 6947SOL     OW25778  10.475   9.118   0.860  0.2520 -0.6778 -0.0175
 6947SOL    HW125779  10.507   9.038   0.902  1.4119 -0.9541 -1.3688
 6947SOL    HW225780  10.518   9.189   0.907  0.5575 -0.9257  0.0825
 6948SOL     OW25781  10.817   2.452   7.220 -0.1465 -0.1595  0.2428
 6948SOL    HW125782  10.884   2.384   7.230 -0.5589 -0.4344  1.2530
 6948SOL    HW225783  10.853   2.528   7.266 -0.2835 -0.1395  0.3184
 6949SOL     OW25784   9.734  11.487   4.810 -0.0512 -0.2387 -0.0542
 6949SOL    HW125785   9.824  11.472   4.838  0.5290 -0.7860 -2.0141
 6949SOL    HW225786   9.737  11.571   4.764 -0.5230 -0.2669 -0.1394
 6950SOL     OW25787   3.151   6.246   9.835  0.0818 -0.2178  0.3623
 6950SOL    HW125788   3.120   6.316   9.778 -0.4953 -1.1220 -0.4661
 6950SOL    HW225789   3.130   6.276   9.923  0.2578  0.8468  0.0564
 6951SOL     OW25790  10.973   4.975   2.627 -0.0087  0.0199 -0.0119
 6951SOL    HW125791  10.988   4.931   2.711 -1.1230  0.1963  0.3033
 6951SOL    HW225792  10.897   5.031   2.643 -1.7222 -1.6564 -1.7221
 6952SOL     OW25793   6.508   0.454   2.436  0.4259 -0.5159 -0.3196
 6952SOL    HW125794   6.547   0.521   2.381 -1.3873  0.5548 -0.3663
 6952SOL    HW225795   6.583   0.410   2.476  1.7133  0.2338 -1.7777
 6953SOL     OW25796   8.577   3.110   9.263  0.2592 -0.0485 -0.3800
 6953SOL    HW125797   8.626   3.139   9.186  0.2699 -0.7703 -0.6494
 6953SOL    HW225798   8.644   3.077   9.323  0.1546 -0.5171 -0.5198
 6954SOL     OW25799   3.640   5.824   0.705  0.0384 -0.6416 -0.2491
 6954SOL    HW125800   3.669   5.905   0.662  1.8436 -1.1251 -0.0099
 6954SOL    HW225801   3.623   5.764   0.632 -1.0606 -0.1502 -0.4172
 6955SOL     OW25802  10.368   9.074   4.636 -1.1539 -0.0855  0.1050
 6955SOL    HW125803  10.324   9.074   4.721  0.1597 -0.5128  0.8274
 6955SOL    HW225804  10.388   8.982   4.619 -0.4613  0.1005 -0.1410
 6956SOL     OW25805   1.852   4.812   0.138 -0.1893  0.3624 -0.5844
 6956SOL    HW125806   1.853   4.731   0.086  0.4035  0.3718 -0.6005
 6956SOL    HW225807   1.762   4.820   0.168 -0.2548 -0.3121 -0.5748
 6957SOL     OW25808   4.036   6.660   9.765  0.0394 -0.0041  0.4172
 6957SOL    HW125809   4.099   6.666   9.836  0.7453  1.1826 -0.2714
 6957SOL    HW225810   4.019   6.566   9.755 -0.5214 -0.1628  2.4886
 6958SOL     OW25811   6.856   4.867   7.801 -0.2277 -0.3559  0.5365
 6958SOL    HW125812   6.862   4.781   7.760  0.4424  0.4385 -1.1098
 6958SOL    HW225813   6.869   4.850   7.894 -0.9271 -2.1228  0.3479
 6959SOL     OW25814   4.249   7.835   3.333  0.2522  0.2100 -0.0741
 6959SOL    HW125815   4.167   7.839   3.285 -0.5643  0.2411  1.2907
 6959SOL    HW225816   4.312   7.882   3.277 -0.9959  1.4861 -0.4496
 6960SOL     OW25817   5.900   1.166   3.843 -0.1674 -0.2180  0.2091
 6960SOL    HW125818   5.835   1.227   3.877 -0.9394 -1.0456  0.2464
 6960SOL    HW225819   5.857   1.081   3.846  0.7200 -0.6975 -0.2992
 6961SOL     OW25820   5.377   3.499  10.133 -0.3494  0.1722 -0.2373
 6961SOL    HW125821   5.436   3.445  10.185 -0.1192 -0.4337 -1.1084
 6961SOL    HW225822   5.370   3.581  10.182  2.2758  0.8041 -0.7766
 6962SOL     OW25823   6.243   9.781   0.286 -0.3204  0.4648  0.5434
 6962SOL    HW125824   6.176   9.808   0.223 -0.6975  1.2405  1.2618
 6962SOL    HW225825   6.215   9.819   0.369 -0.7699 -1.9562  1.5998
 6963SOL     OW25826   4.687  10.803   2.456 -0.3818 -0.1727  0.3347
 6963SOL    HW125827   4.617  10.853   2.415 -0.8848  0.3693  1.7899
 6963SOL    HW225828   4.742  10.774   2.383 -1.7710 -0.0911 -0.7766
 6964SOL     OW25829   0.038   8.870  11.519  0.8403 -0.8871  0.2422
 6964SOL    HW125830   0.034   8.884  11.614 -0.7267 -2.6276  0.4760
 6964SOL    HW225831  -0.053   8.878  11.490  1.4547  1.0967 -1.4008
 6965SOL     OW25832   9.815   9.587  11.582  0.6676 -0.1537 -0.6766
 6965SOL    HW125833   9.861   9.617  11.660 -0.0946  2.7124 -1.1946
 6965SOL    HW225834   9.820   9.491  11.586  0.5769 -0.1384  2.8921
 6966SOL     OW25835   5.082   1.140  10.447 -0.1256 -0.1722  0.7118
 6966SOL    HW125836   5.032   1.068  10.408 -2.8925  2.1012 -0.3075
 6966SOL    HW225837   5.061   1.136  10.541 -0.1040 -0.8191  0.6893
 6967SOL     OW25838  11.620   5.369   6.288  0.1522 -0.4465 -0.1031
 6967SOL    HW125839  11.577   5.344   6.205 -0.1828  0.0003 -0.0682
 6967SOL    HW225840  11.706   5.327   6.283  0.2363 -0.2147 -0.7968
 6968SOL     OW25841   1.467   3.390   7.718 -0.0233  0.2187  0.0757
 6968SOL    HW125842   1.425   3.467   7.681  0.5709  1.5992  2.1359
 6968SOL    HW225843   1.396   3.328   7.734 -0.5952  0.5907 -0.9496
 6969SOL     OW25844   6.918   6.306   3.897 -0.0644 -0.0975  0.4261
 6969SOL    HW125845   6.914   6.340   3.986 -0.1185  0.1891  0.3156
 6969SOL    HW225846   7.004   6.264   3.891  0.2441  0.5290  0.3870
 6970SOL     OW25847   3.526   8.223   1.721  0.4782  0.9721 -0.2782
 6970SOL    HW125848   3.549   8.284   1.651 -0.4388  1.6885  0.0240
 6970SOL    HW225849   3.564   8.139   1.693  0.8609  1.4385 -1.2088
 6971SOL     OW25850   0.948  11.476   5.089  0.0883  0.6058 -0.9470
 6971SOL    HW125851   0.964  11.487   5.183 -0.4393  0.6783 -0.8636
 6971SOL    HW225852   1.035  11.466   5.051  0.2398 -0.8268 -0.2707
 6972SOL     OW25853   7.411   6.828   9.934  0.1429  0.4432 -0.5504
 6972SOL    HW125854   7.323   6.804   9.906 -0.0157  0.9225 -0.4664
 6972SOL    HW225855   7.469   6.791   9.866  0.0105 -1.2381  0.1942
 6973SOL     OW25856   1.989   9.258   9.649 -0.7070  0.4758 -0.7791
 6973SOL    HW125857   2.015   9.231   9.737  2.1082  1.8861 -1.0923
 6973SOL    HW225858   1.911   9.312   9.663 -0.6035  0.2666  0.7842
 6974SOL     OW25859   8.353   7.730   3.298  0.0446  0.0030  0.2135
 6974SOL    HW125860   8.444   7.701   3.301 -0.3968 -1.5794 -0.6343
 6974SOL    HW225861   8.356   7.822   3.325  2.0772  0.4387 -1.2903
 6975SOL     OW25862   2.391  10.993   5.378  0.0633 -0.1868  0.3728
 6975SOL    HW125863   2.348  10.928   5.322  0.0173  0.5336 -0.4534
 6975SOL    HW225864   2.338  10.995   5.458 -0.9386  0.0556 -0.2815
 6976SOL     OW25865   2.549   8.600   8.611  0.2519  0.6717 -0.2312
 6976SOL    HW125866   2.581   8.629   8.526  0.5969  1.0217  0.0140
 6976SOL    HW225867   2.488   8.529   8.591  1.6353 -0.4177 -0.6817
 6977SOL     OW25868   6.459  10.722   0.364  0.4302  0.5186 -0.1269
 6977SOL    HW125869   6.420  10.708   0.450 -1.5323  1.7944 -0.7240
 6977SOL    HW225870   6.404  10.670   0.304  3.2970 -2.4748 -0.4421
 6978SOL     OW25871   6.102   1.112   4.057  0.0107 -0.3320  0.4016
 6978SOL    HW125872   6.036   1.046   4.078 -1.1845  0.6108 -0.2088
 6978SOL    HW225873   6.058   1.169   3.994  1.6603 -0.0474 -0.5386
 6979SOL     OW25874   3.959   7.952   2.765  0.8218  0.3396  0.2446
 6979SOL    HW125875   4.005   7.908   2.693  0.7125  0.0694  0.3413
 6979SOL    HW225876   3.895   8.008   2.720  0.3217 -0.2970  0.1344
 6980SOL     OW25877   7.444   8.548   3.566 -0.1244  0.5924 -0.0033
 6980SOL    HW125878   7.501   8.503   3.629 -1.4133  1.1290  1.5854
 6980SOL    HW225879   7.457   8.498   3.484  1.7277 -0.0003  0.5821
 6981SOL     OW25880   0.646   7.906  10.538  0.9473 -0.3769  0.0478
 6981SOL    HW125881   0.616   7.821  10.571 -0.5409  0.4499  0.9231
 6981SOL    HW225882   0.588   7.924  10.464  0.9124  0.1170  0.1977
 6982SOL     OW25883   1.261  10.546   0.679  0.0161 -0.1584  0.2954
 6982SOL    HW125884   1.356  10.541   0.693  0.1566  2.0336  0.4057
 6982SOL    HW225885   1.246  10.494   0.600  1.4489  0.1885 -0.2363
 6983SOL     OW25886   7.499   7.635   9.077 -0.3825 -0.1751  0.2156
 6983SOL    HW125887   7.564   7.578   9.119 -0.5692 -0.6116 -0.0886
 6983SOL    HW225888   7.515   7.625   8.983 -2.9209 -2.7756 -0.0613
 6984SOL     OW25889   7.182   9.067   4.277 -0.3029 -0.4174  0.0489
 6984SOL    HW125890   7.264   9.110   4.305 -1.6682  1.1594  1.8816
 6984SOL    HW225891   7.148   9.027   4.356 -2.3708  0.8330 -0.1433
 6985SOL     OW25892   5.997  11.640   7.447  0.1575 -0.6270 -0.4996
 6985SOL    HW125893   5.926  11.704   7.438 -0.8200 -1.7664 -1.2626
 6985SOL    HW225894   6.046  11.669   7.523 -2.7630 -1.2738  1.8035
 6986SOL     OW25895   8.881  10.275   0.221 -0.1048 -0.1461 -0.2893
 6986SOL    HW125896   8.911  10.342   0.160  0.1556 -1.5905 -1.8039
 6986SOL    HW225897   8.846  10.325   0.295  0.4611  1.6458 -1.1625
 6987SOL     OW25898   2.528   4.417   1.198  0.9710 -0.1872 -0.3240
 6987SOL    HW125899   2.582   4.441   1.274 -1.2820  1.5500  0.8526
 6987SOL    HW225900   2.591   4.388   1.133  3.1881  0.1835  1.5022
 6988SOL     OW25901   5.063   1.649  11.554  0.0480  0.2865  0.2703
 6988SOL    HW125902   5.112   1.570  11.578 -0.4331 -0.3793 -0.7995
 6988SOL    HW225903   5.007   1.666  11.629 -1.4285 -1.7228 -0.2648
 6989SOL     OW25904   1.478   6.404   7.962 -0.3945  0.3004 -0.2955
 6989SOL    HW125905   1.569   6.420   7.986 -0.4483 -0.6076  0.5585
 6989SOL    HW225906   1.478   6.409   7.866  0.0554  2.7221 -0.2424
 6990SOL     OW25907   9.552   2.391   4.461 -0.1502 -0.2059 -0.8580
 6990SOL    HW125908   9.564   2.333   4.386 -0.5711  0.1255 -1.1859
 6990SOL    HW225909   9.627   2.373   4.517  1.1512  0.8480 -2.2153
 6991SOL     OW25910   9.093   4.223   2.169  0.2150 -0.3277 -0.1227
 6991SOL    HW125911   9.172   4.251   2.215 -0.6215 -0.8329  1.7178
 6991SOL    HW225912   9.083   4.131   2.191 -1.1762 -0.1399  0.1610
 6992SOL     OW25913   0.885   5.735  11.343 -0.3874 -0.4740  0.2004
 6992SOL    HW125914   0.845   5.791  11.409  0.6402 -0.4883  0.8452
 6992SOL    HW225915   0.883   5.788  11.263 -2.3994 -0.7622 -0.0111
 6993SOL     OW25916  10.402   6.286   2.754  0.5386  0.2334  0.2469
 6993SOL    HW125917  10.317   6.280   2.798  1.6114 -1.8086  2.2833
 6993SOL    HW225918  10.386   6.251   2.667 -0.7308 -0.0381  0.5685
 6994SOL     OW25919   1.440   1.339   8.867  0.1274 -0.4265  0.2685
 6994SOL    HW125920   1.395   1.365   8.948  0.6817 -1.8661  1.0729
 6994SOL    HW225921   1.530   1.373   8.879  0.2819 -0.8732  0.3818
 6995SOL     OW25922   2.273   1.920   5.577  0.3243 -0.0858 -0.1814
 6995SOL    HW125923   2.330   1.896   5.650 -0.1119  1.6802  0.7925
 6995SOL    HW225924   2.293   2.012   5.559 -0.0544 -0.2922 -1.8670
 6996SOL     OW25925  11.262   3.731   0.982 -0.1294  0.2723  0.2072
 6996SOL    HW125926  11.212   3.654   0.954 -0.0143  0.5982 -0.9307
 6996SOL    HW225927  11.353   3.703   0.977 -0.0602  0.6616 -0.7866
 6997SOL     OW25928   1.405   4.992  11.675 -0.5897  0.2852 -0.2277
 6997SOL    HW125929   1.363   5.074  11.702  0.4298  0.1908  1.8669
 6997SOL    HW225930   1.484   5.020  11.629 -2.7776  0.4638 -4.2486
 6998SOL     OW25931   8.137   4.138   7.141  0.1940 -0.0466 -0.5077
 6998SOL    HW125932   8.134   4.165   7.233  2.2582 -1.6087  0.1162
 6998SOL    HW225933   8.172   4.215   7.095 -1.4951  0.9820 -0.1413
 6999SOL     OW25934   7.066   3.407   5.702  0.4426 -0.4880 -0.1085
 6999SOL    HW125935   6.973   3.404   5.726  0.7872  0.2940  1.4596
 6999SOL    HW225936   7.070   3.362   5.618 -1.4666  0.1533 -0.5946
 7000SOL     OW25937   7.061   3.101   4.684  0.9802 -0.1255 -0.2666
 7000SOL    HW125938   7.126   3.103   4.614  0.1542  0.3699 -1.0333
 7000SOL    HW225939   7.110   3.126   4.763  1.9859 -1.0172 -0.5991
 7001SOL     OW25940   6.161   4.933   8.139  0.6251 -0.3755  0.0579
 7001SOL    HW125941   6.115   4.861   8.096 -0.0603  0.3578 -0.4672
 7001SOL    HW225942   6.253   4.906   8.139  0.2580 -1.7034  0.8022
 7002SOL     OW25943   0.292   9.958   5.425 -0.1756 -0.2086  0.2433
 7002SOL    HW125944   0.200   9.939   5.407 -0.3003 -0.2632  0.9117
 7002SOL    HW225945   0.321   9.887   5.482  1.5200 -2.6536 -3.3480
 7003SOL     OW25946   8.555   8.115   5.743 -0.2716  0.1345 -0.2568
 7003SOL    HW125947   8.476   8.096   5.792 -0.4006 -1.3006 -0.9577
 7003SOL    HW225948   8.622   8.058   5.782 -0.3100 -0.8174 -1.4866
 7004SOL     OW25949   1.283   3.443   3.282 -0.3871 -0.0571 -0.1743
 7004SOL    HW125950   1.202   3.448   3.332 -0.8597  1.7202 -1.0366
 7004SOL    HW225951   1.350   3.478   3.340 -0.8853  1.7445 -0.6227
 7005SOL     OW25952   0.072  10.670   0.735  0.3080 -0.2501 -0.0098
 7005SOL    HW125953   0.047  10.653   0.825  0.2626 -1.2847 -0.2021
 7005SOL    HW225954   0.006  10.625   0.682  0.7231 -0.2481 -0.5459
 7006SOL     OW25955   4.558   9.922   7.086  0.0946  0.3158 -0.5157
 7006SOL    HW125956   4.595   9.864   7.152  3.0080  0.5793 -1.7681
 7006SOL    HW225957   4.575  10.011   7.119 -0.7135  0.4680 -0.4821
 7007SOL     OW25958   1.589   3.001  11.080  0.3690 -0.3769  0.2648
 7007SOL    HW125959   1.534   3.064  11.126  0.6110  0.0558 -0.0243
 7007SOL    HW225960   1.555   3.000  10.991 -0.3401 -1.4950  0.5303
 7008SOL     OW25961   4.104   2.503   0.225 -0.1953 -0.7532 -0.6265
 7008SOL    HW125962   4.123   2.460   0.308  1.6840 -0.6787 -0.9660
 7008SOL    HW225963   4.087   2.594   0.249 -1.3104 -1.0614 -0.1884
 7009SOL     OW25964  10.039   2.632   1.027 -0.5811 -0.5929 -0.7616
 7009SOL    HW125965  10.021   2.721   1.058  0.5247 -0.8466  0.7204
 7009SOL    HW225966  10.095   2.645   0.950 -0.5756  0.0045 -0.6655
 7010SOL     OW25967   7.210   8.656   8.108 -0.0494  0.3536  0.4185
 7010SOL    HW125968   7.210   8.751   8.101  0.2242  0.3036 -0.4893
 7010SOL    HW225969   7.127   8.628   8.069  0.1169  0.2012  0.1629
 7011SOL     OW25970   7.535   5.883   6.281 -0.1975 -0.7119  0.3540
 7011SOL    HW125971   7.595   5.931   6.339 -0.0233 -0.4456 -0.0372
 7011SOL    HW225972   7.583   5.804   6.258  0.5366  0.0601 -0.9294
 7012SOL     OW25973   7.603   6.506   6.059 -0.5047 -0.3030  0.1564
 7012SOL    HW125974   7.530   6.508   6.121 -1.1736  1.0123 -0.6204
 7012SOL    HW225975   7.570   6.454   5.985  0.2037 -1.6637  0.7677
 7013SOL     OW25976   6.872  11.055   3.396 -0.1372  0.2103  0.0722
 7013SOL    HW125977   6.951  11.102   3.422 -0.8987  0.5653  1.8919
 7013SOL    HW225978   6.803  11.091   3.452 -1.0233 -2.1405  0.6094
 7014SOL     OW25979  10.399   6.445   8.695 -0.1093  0.1715 -0.1723
 7014SOL    HW125980  10.442   6.447   8.780  0.5963  0.2741 -0.5264
 7014SOL    HW225981  10.353   6.529   8.691 -1.1849 -0.3545  0.6204
 7015SOL     OW25982   3.506   7.043   7.539  0.1844  0.1017  0.2375
 7015SOL    HW125983   3.475   7.125   7.500  0.3289 -1.0637 -2.5862
 7015SOL    HW225984   3.595   7.033   7.506  0.0794 -1.2765  0.3178
 7016SOL     OW25985   1.367   6.910   4.988 -0.2059 -0.7664  0.2100
 7016SOL    HW125986   1.331   6.888   4.902 -0.3903  0.5368 -0.0658
 7016SOL    HW225987   1.447   6.960   4.968 -1.9762  2.4933  0.6856
 7017SOL     OW25988   0.437   3.126   2.631  0.2940 -0.2796 -0.3468
 7017SOL    HW125989   0.502   3.059   2.648 -1.5220 -2.2676 -0.8051
 7017SOL    HW225990   0.395   3.141   2.716  1.0747  0.7644 -0.1195
 7018SOL     OW25991   4.586   3.736   1.310 -0.5632  0.3294 -0.1024
 7018SOL    HW125992   4.619   3.723   1.221 -0.8216  0.8763 -0.2809
 7018SOL    HW225993   4.623   3.821   1.336 -0.7666  0.3292  0.1828
 7019SOL     OW25994   9.032  10.457   8.416  0.0166 -0.0614  0.2858
 7019SOL    HW125995   9.105  10.471   8.476  1.1847 -1.3471 -0.7713
 7019SOL    HW225996   9.058  10.503   8.336 -0.9987  0.6707  0.3525
 7020SOL     OW25997  11.690   3.777  10.728  0.4132  0.1156  0.5336
 7020SOL    HW125998  11.677   3.694  10.682 -0.1352  0.5096 -0.0366
 7020SOL    HW225999  11.776   3.768  10.769  0.4241 -0.6745  0.3612
 7021SOL     OW26000   6.194   9.695  11.178  0.5588 -0.5208 -0.2918
 7021SOL    HW126001   6.206   9.775  11.229  0.6549  0.3675 -1.6590
 7021SOL    HW226002   6.104   9.668  11.197  0.5470 -0.1254  0.2266
 7022SOL     OW26003   3.039   6.999   4.433  0.4636 -0.4008  0.5136
 7022SOL    HW126004   3.126   7.030   4.406  0.3727 -2.2648 -2.2919
 7022SOL    HW226005   3.052   6.908   4.457 -0.8205 -0.9680 -0.7985
 7023SOL     OW26006  10.692   7.837   3.982 -0.2684  0.4952 -0.2090
 7023SOL    HW126007  10.614   7.789   3.956 -0.5468 -0.1349  1.7028
 7023SOL    HW226008  10.737   7.856   3.899 -1.7928 -0.2166 -1.2327
 7024SOL     OW26009   6.090  11.158   4.813  0.0385  0.8562 -0.0576
 7024SOL    HW126010   6.178  11.169   4.776  0.1740  1.4783  0.4311
 7024SOL    HW226011   6.091  11.211   4.893 -0.6447  0.5170  0.1831
 7025SOL     OW26012   2.378   1.527   2.899  0.0761  0.7828 -0.4583
 7025SOL    HW126013   2.396   1.567   2.814  2.4183 -0.4217 -0.6294
 7025SOL    HW226014   2.353   1.437   2.877 -0.3097  0.7535  0.0957
 7026SOL     OW26015   3.714   0.021   8.787  0.2657  0.4064  0.4666
 7026SOL    HW126016   3.722   0.107   8.746  1.8941 -0.2668 -0.7333
 7026SOL    HW226017   3.745  -0.040   8.720  0.3748 -0.9892  1.7472
 7027SOL     OW26018   8.961   9.478   4.010 -0.0090 -0.3317  0.5845
 7027SOL    HW126019   8.968   9.437   3.924 -2.1128 -1.0381  0.6985
 7027SOL    HW226020   8.921   9.412   4.065  0.0720  0.5867  1.7811
 7028SOL     OW26021   0.802   3.903   1.926 -0.2014  1.0834  0.0348
 7028SOL    HW126022   0.781   3.943   1.841 -1.2540  0.5847  0.0502
 7028SOL    HW226023   0.886   3.859   1.912 -1.3447 -0.7582 -1.3616
 7029SOL     OW26024   9.585   8.164   3.252  0.4517  0.4131 -1.3248
 7029SOL    HW126025   9.676   8.149   3.277  0.0893 -0.4283 -0.4193
 7029SOL    HW226026   9.589   8.180   3.157  1.2952 -2.5599 -1.9271
 7030SOL     OW26027   9.069   8.013   0.156 -0.3304 -0.3423  0.4085
 7030SOL    HW126028   9.033   8.014   0.245  0.2175 -0.0844  0.6330
 7030SOL    HW226029   9.155   7.972   0.166 -1.0711 -2.1750 -0.3261
 7031SOL     OW26030   0.256  10.923  10.461 -0.1390  0.2775  0.4423
 7031SOL    HW126031   0.285  10.835  10.435 -0.5756  0.2129  0.1631
 7031SOL    HW226032   0.244  10.970  10.378  0.1162  0.6143  0.5912
 7032SOL     OW26033   2.918   4.101   7.018 -0.6209  0.3125 -0.1623
 7032SOL    HW126034   2.985   4.067   6.958 -0.4676  0.3190  0.0042
 7032SOL    HW226035   2.854   4.143   6.961 -1.1540 -0.8321 -0.4282
 7033SOL     OW26036   3.130   1.520   9.336 -0.2644  0.2747 -0.1049
 7033SOL    HW126037   3.142   1.448   9.398  0.3991  0.2855 -0.2151
 7033SOL    HW226038   3.082   1.586   9.386  1.8982  1.0881  1.0625
 7034SOL     OW26039   0.836   8.346  10.745  0.2543 -0.3971 -0.0587
 7034SOL    HW126040   0.810   8.289  10.818  0.7185 -0.5153  0.0148
 7034SOL    HW226041   0.778   8.320  10.673  0.0032 -0.4925  0.1743
 7035SOL     OW26042   9.037   0.434   2.806  0.0437  0.2044  0.0867
 7035SOL    HW126043   9.095   0.485   2.750  1.2035  0.2992  1.3187
 7035SOL    HW226044   8.994   0.373   2.747  0.4453  0.9949 -1.0526
 7036SOL     OW26045   4.083  11.192   6.983  0.2283  0.6167 -0.0818
 7036SOL    HW126046   4.125  11.135   6.917  0.6161 -0.6581  1.2064
 7036SOL    HW226047   4.017  11.136   7.024  1.7150  0.5006  2.3464
 7037SOL     OW26048   7.526   5.817   7.556  0.0325  0.1469 -0.0447
 7037SOL    HW126049   7.541   5.726   7.584 -1.0001  0.5151  1.8717
 7037SOL    HW226050   7.602   5.865   7.589 -0.2282  0.2416  0.4341
 7038SOL     OW26051   2.214   0.135   6.093 -0.4364  0.0951  0.2375
 7038SOL    HW126052   2.258   0.060   6.052 -1.5188 -1.1449  1.2691
 7038SOL    HW226053   2.121   0.121   6.074 -0.7519  0.5988  1.3737
 7039SOL     OW26054   5.907   8.203   5.788  0.2321 -0.1487 -0.0367
 7039SOL    HW126055   5.844   8.142   5.828  0.3347 -0.8177 -0.8624
 7039SOL    HW226056   5.852   8.265   5.740  0.1945 -1.0116 -1.1456
 7040SOL     OW26057   4.625   1.906   9.057  0.7089  0.0198  0.5895
 7040SOL    HW126058   4.617   1.837   8.991 -1.6286  0.3830  0.4315
 7040SOL    HW226059   4.684   1.970   9.017  0.1679 -0.2633 -0.7106
 7041SOL     OW26060   7.961   4.044   2.674 -0.3701  0.2307  0.6495
 7041SOL    HW126061   7.986   4.049   2.766 -0.1596  0.7876  0.5644
 7041SOL    HW226062   8.041   4.065   2.626  0.1041 -2.1548  0.2742
 7042SOL     OW26063   2.254   1.741   0.696  0.4289 -0.5315  0.6649
 7042SOL    HW126064   2.276   1.649   0.714 -0.0063 -0.6253  0.7524
 7042SOL    HW226065   2.163   1.749   0.724  0.5401 -0.0064  0.8847
 7043SOL     OW26066  10.524   3.091   8.815  0.1780  0.7035  0.0694
 7043SOL    HW126067  10.617   3.067   8.815 -0.0072 -0.2489 -2.1408
 7043SOL    HW226068  10.517   3.157   8.884  2.3206  0.2003  0.8646
 7044SOL     OW26069   8.682   5.787   0.193 -0.0990  0.5379 -0.5144
 7044SOL    HW126070   8.685   5.788   0.288 -2.3933 -1.3419 -0.3212
 7044SOL    HW226071   8.758   5.838   0.165  0.5359  1.2626  2.2951
 7045SOL     OW26072   9.636   0.880   9.002  0.2409 -0.1181 -0.2384
 7045SOL    HW126073   9.702   0.875   9.070 -0.9337 -1.2334  0.8762
 7045SOL    HW226074   9.565   0.931   9.041  0.1804  0.5894 -1.2126
 7046SOL     OW26075   3.683   5.059   6.844 -0.1263 -0.0137  0.1451
 7046SOL    HW126076   3.639   4.989   6.893  0.4768 -1.7117 -1.6302
 7046SOL    HW226077   3.630   5.069   6.765  0.4616  0.7370 -0.1608
 7047SOL     OW26078   8.990   4.468   6.409 -0.2648  0.5128 -0.2585
 7047SOL    HW126079   9.002   4.375   6.428 -3.2466  0.0831  0.0401
 7047SOL    HW226080   9.039   4.483   6.328  0.3736 -1.2731 -0.2495
 7048SOL     OW26081  11.588   7.313   6.297  0.4437 -0.4259 -0.4068
 7048SOL    HW126082  11.606   7.256   6.223 -3.0319  0.9160 -2.5271
 7048SOL    HW226083  11.509   7.277   6.337 -0.3536  1.4150 -0.2124
 7049SOL     OW26084   9.202   4.376   8.065 -0.4326  0.5813 -1.0503
 7049SOL    HW126085   9.227   4.291   8.102 -0.0208  1.2630  0.2702
 7049SOL    HW226086   9.107   4.371   8.056 -0.5136  0.3196 -0.0981
 7050SOL     OW26087  11.204   5.322   6.467  0.7072 -0.1192 -0.1688
 7050SOL    HW126088  11.123   5.278   6.494 -0.2194  0.3386 -2.0432
 7050SOL    HW226089  11.176   5.388   6.404  2.6072 -0.3119 -1.2929
 7051SOL     OW26090   0.732  11.675  10.929  0.1521  0.2612  0.0120
 7051SOL    HW126091   0.669  11.740  10.897 -0.6750  1.0377  2.9442
 7051SOL    HW226092   0.818  11.715  10.911 -0.2282  0.4042 -1.6118
 7052SOL     OW26093   1.463  10.684   7.950  0.1479  0.2191 -0.1733
 7052SOL    HW126094   1.456  10.632   8.030  0.5726 -0.1502 -0.3747
 7052SOL    HW226095   1.406  10.640   7.888  1.6383 -0.8943 -0.8067
 7053SOL     OW26096   1.720   2.488  11.165  0.5686  0.0575 -0.8947
 7053SOL    HW126097   1.684   2.548  11.100  0.9625  1.2254 -0.0569
 7053SOL    HW226098   1.708   2.532  11.249 -0.4357 -1.6626 -0.0772
 7054SOL     OW26099   9.396   3.507   5.697  0.7462  0.2951 -0.2566
 7054SOL    HW126100   9.404   3.582   5.637  2.9504  0.0660 -0.3332
 7054SOL    HW226101   9.450   3.439   5.657  0.5692 -0.5745  0.9512
 7055SOL     OW26102  10.078   6.928   3.728  0.5156  0.7576  1.0109
 7055SOL    HW126103  10.019   6.939   3.653  0.4532  2.0465  1.2344
 7055SOL    HW226104  10.153   6.880   3.692 -0.4722 -0.5548  0.6364
 7056SOL     OW26105   2.164  10.823   5.001  0.0445  0.9018  0.2170
 7056SOL    HW126106   2.167  10.753   4.937 -0.0965 -0.1058  1.2781
 7056SOL    HW226107   2.199  10.900   4.955  0.7375  0.0083 -0.7908
 7057SOL     OW26108   8.262   4.024   1.908 -0.6977  0.5117  0.2436
 7057SOL    HW126109   8.260   4.078   1.830  4.0734 -0.4715 -0.8698
 7057SOL    HW226110   8.219   3.943   1.883  0.8797  0.1636 -1.5249
 7058SOL     OW26111   9.392  11.653   2.552 -0.0917 -0.3420 -0.0614
 7058SOL    HW126112   9.480  11.637   2.518  0.6878 -0.1141  1.7497
 7058SOL    HW226113   9.341  11.577   2.525  1.2461 -1.5585  0.7582
 7059SOL     OW26114  10.388   7.737   7.751 -0.1592  0.1265 -0.0992
 7059SOL    HW126115  10.414   7.675   7.683 -0.2228  0.4652 -0.4373
 7059SOL    HW226116  10.302   7.768   7.724  0.4633  1.4302 -0.7140
 7060SOL     OW26117   0.263   8.485  10.948 -0.3223 -0.1775 -0.2545
 7060SOL    HW126118   0.193   8.442  10.900  1.0055 -0.5924 -1.9234
 7060SOL    HW226119   0.333   8.495  10.884  0.7869  1.1104  1.0921
 7061SOL     OW26120   1.896   6.670   9.108  0.1190  0.2690  0.4634
 7061SOL    HW126121   1.871   6.760   9.091 -0.4045 -0.1202 -0.9937
 7061SOL    HW226122   1.951   6.674   9.186 -0.0366  1.8160  0.5103
 7062SOL     OW26123   6.546   2.263  10.669  0.4002 -0.5432 -0.4502
 7062SOL    HW126124   6.542   2.324  10.742  3.9450 -1.4356  0.6630
 7062SOL    HW226125   6.566   2.317  10.593 -1.2047  0.1361 -0.4342
 7063SOL     OW26126   6.092   6.342   0.573  0.4483  0.2208 -0.3779
 7063SOL    HW126127   6.087   6.254   0.534  0.4448  0.2155 -0.3657
 7063SOL    HW226128   6.061   6.331   0.663  0.2475  0.2724 -0.4395
 7064SOL     OW26129   5.546   6.005   3.012 -0.0424  0.7267 -0.2156
 7064SOL    HW126130   5.470   5.998   3.070 -1.1197  1.8334 -1.4440
 7064SOL    HW226131   5.549   6.097   2.987  0.6698  0.3575 -1.5673
 7065SOL     OW26132   0.830   8.693   6.188 -0.4811 -0.6804 -0.3194
 7065SOL    HW126133   0.736   8.698   6.202 -0.4720  2.2014 -0.7357
 7065SOL    HW226134   0.865   8.653   6.268 -1.8814  0.0664  0.7018
 7066SOL     OW26135   7.829   0.108   9.025 -0.2831 -0.1677 -0.0932
 7066SOL    HW126136   7.827   0.178   9.090  0.8483  1.0154 -1.2714
 7066SOL    HW226137   7.797   0.149   8.945 -2.6899 -1.8762 -0.1146
 7067SOL     OW26138   2.234   6.040   4.660  0.3923 -0.0234 -0.3873
 7067SOL    HW126139   2.296   6.083   4.719 -0.1739 -0.0841  0.2607
 7067SOL    HW226140   2.285   6.022   4.582  1.2696 -0.2990  0.2310
 7068SOL     OW26141   8.097   7.911   5.415  0.1560 -0.0804 -0.1528
 7068SOL    HW126142   8.031   7.898   5.348 -1.1047 -0.9235  1.1923
 7068SOL    HW226143   8.169   7.954   5.370 -1.7363  1.9377 -1.4575
 7069SOL     OW26144  10.829   5.067   8.770 -0.3519 -0.2148  0.3811
 7069SOL    HW126145  10.901   5.129   8.773  0.3995 -1.0586  0.3707
 7069SOL    HW226146  10.797   5.061   8.860  0.7423 -1.1225  0.7289
 7070SOL     OW26147  11.342   6.045  10.653  0.1460 -0.3437 -0.3496
 7070SOL    HW126148  11.384   5.965  10.621  0.1117 -0.1486 -0.8849
 7070SOL    HW226149  11.407   6.083  10.712  0.8910  0.1483 -1.4619
 7071SOL     OW26150   8.479   3.733  11.011 -0.0322  0.2293 -0.1524
 7071SOL    HW126151   8.532   3.753  11.089 -0.2662 -0.4643  0.1900
 7071SOL    HW226152   8.389   3.740  11.041 -0.1270  0.3523 -0.4671
 7072SOL     OW26153   7.056  11.466   2.963 -0.2725  0.0263  0.0039
 7072SOL    HW126154   6.991  11.479   2.893 -1.9680 -1.7149  1.1516
 7072SOL    HW226155   7.044  11.375   2.990  1.7424  0.0598  1.2186
 7073SOL     OW26156   7.743   3.943   4.419 -0.2035  0.7544  0.0621
 7073SOL    HW126157   7.701   3.954   4.334 -0.8468 -1.3373  0.0598
 7073SOL    HW226158   7.701   4.010   4.474  0.0826  2.0011 -1.1714
 7074SOL     OW26159   0.934   8.702   7.509  0.5053  0.9147  0.2757
 7074SOL    HW126160   0.924   8.791   7.473 -0.8720  0.5041 -0.3996
 7074SOL    HW226161   0.850   8.660   7.493  1.3073 -0.6901  0.1471
 7075SOL     OW26162   5.609   5.177   5.409  0.5255  0.4630 -0.3661
 7075SOL    HW126163   5.605   5.273   5.406  0.7140  0.4842  0.0446
 7075SOL    HW226164   5.665   5.153   5.336  0.9118  0.6983 -0.1491
 7076SOL     OW26165   8.360  11.151   4.575  0.3191  0.0496  0.1223
 7076SOL    HW126166   8.336  11.061   4.596 -0.3831  0.3448  0.6261
 7076SOL    HW226167   8.397  11.145   4.487  1.7076 -0.9428  0.7434
 7077SOL     OW26168   9.039   9.992   2.541  0.2155  0.5493 -0.2358
 7077SOL    HW126169   8.978  10.018   2.472  0.3293  3.0806  0.5262
 7077SOL    HW226170   9.124  10.027   2.513  0.9954 -1.3706 -0.4116
 7078SOL     OW26171   9.600   9.655   0.136  0.2037  0.0562  0.3226
 7078SOL    HW126172   9.694   9.651   0.156  0.1881 -0.7790  0.2363
 7078SOL    HW226173   9.591   9.737   0.087  1.2608 -0.8331 -1.4644
 7079SOL     OW26174   5.623  10.903  11.312 -0.3890  0.0006 -0.4986
 7079SOL    HW126175   5.709  10.906  11.353 -0.5468  1.4290 -0.2321
 7079SOL    HW226176   5.627  10.965  11.240 -1.5386  0.9948  0.2562
 7080SOL     OW26177   8.169   8.169   8.668 -0.0146  1.1817 -0.0098
 7080SOL    HW126178   8.082   8.129   8.677 -0.0992  1.4200  0.2047
 7080SOL    HW226179   8.215   8.146   8.749  0.4343  0.2859 -0.5038
 7081SOL     OW26180   2.498   6.940   4.239 -0.1096  0.4029  0.2121
 7081SOL    HW126181   2.427   6.983   4.287 -0.3380 -0.2917  0.4995
 7081SOL    HW226182   2.455   6.881   4.178  0.2140  0.3234  0.0558
 7082SOL     OW26183   2.437   0.891   0.058  0.1555  0.6330  0.2322
 7082SOL    HW126184   2.490   0.853  -0.012  1.6038  3.0229 -0.0738
 7082SOL    HW226185   2.364   0.830   0.069  0.7914 -0.6685 -2.1767
 7083SOL     OW26186   4.119   5.956   4.064 -0.3821 -0.3208 -0.3051
 7083SOL    HW126187   4.067   6.016   4.117 -0.5503  0.1584 -0.9954
 7083SOL    HW226188   4.201   6.002   4.048 -0.1905 -0.6083 -0.1644
 7084SOL     OW26189   4.186  10.510  10.106  0.0035 -0.5233 -0.3403
 7084SOL    HW126190   4.116  10.570  10.128  0.0168 -0.4128 -0.5915
 7084SOL    HW226191   4.245  10.561  10.049  1.4746  0.0997  1.6361
 7085SOL     OW26192  10.363   2.773   0.961  0.7741 -0.5688 -0.0898
 7085SOL    HW126193  10.303   2.724   0.904  1.6823  0.3174 -1.9201
 7085SOL    HW226194  10.306   2.828   1.014 -0.1002  0.5369 -2.0473
 7086SOL     OW26195   7.048   0.217  11.198  0.3611 -0.0209  0.0307
 7086SOL    HW126196   7.110   0.147  11.222 -0.3812 -1.9793 -3.2294
 7086SOL    HW226197   6.968   0.195  11.245  0.1385 -1.4122 -0.9575
 7087SOL     OW26198   5.396   6.054   7.122  0.1786 -0.6304  0.2462
 7087SOL    HW126199   5.304   6.037   7.139  0.4511 -1.6799  0.7732
 7087SOL    HW226200   5.396   6.127   7.060 -1.0530 -1.4784 -0.8084
 7088SOL     OW26201   4.891   8.652   7.922  0.1468  0.1922  0.4834
 7088SOL    HW126202   4.963   8.591   7.939 -0.8593 -1.5965 -1.2391
 7088SOL    HW226203   4.893   8.664   7.827 -1.0199  1.1536  0.5701
 7089SOL     OW26204   8.036   2.719   1.173 -0.4061  0.1314  0.3996
 7089SOL    HW126205   8.121   2.676   1.165 -0.2646  0.6118 -0.9249
 7089SOL    HW226206   8.022   2.727   1.268 -0.4695 -2.8302  0.7240
 7090SOL     OW26207  11.573   0.156   1.873  0.1451  0.5986  0.0151
 7090SOL    HW126208  11.592   0.180   1.964 -0.3940  1.8511 -0.1827
 7090SOL    HW226209  11.611   0.069   1.863 -0.5282  0.0557  1.6986
 7091SOL     OW26210   9.666   9.607   2.381 -0.9737 -0.6328 -0.1839
 7091SOL    HW126211   9.641   9.698   2.401  2.5478 -0.1273  2.9990
 7091SOL    HW226212   9.709   9.613   2.296  0.3105  1.0047  0.5237
 7092SOL     OW26213   5.219   6.614   2.563 -0.0564 -0.2961  0.1571
 7092SOL    HW126214   5.156   6.543   2.551 -0.0258 -0.1914 -0.7557
 7092SOL    HW226215   5.194   6.656   2.645 -0.8097 -0.6214  0.0976
 7093SOL     OW26216   9.785   2.461  10.874 -0.0788  0.2723 -0.6086
 7093SOL    HW126217   9.735   2.451  10.793  1.0736  0.7963 -1.4147
 7093SOL    HW226218   9.808   2.554  10.876 -1.6258  0.7003  1.2841
 7094SOL     OW26219   0.691   0.371   8.259 -0.6676 -0.2340  0.0106
 7094SOL    HW126220   0.708   0.459   8.225 -0.3894 -0.0959  0.4907
 7094SOL    HW226221   0.773   0.323   8.243 -0.0317  0.2254  1.6864
 7095SOL     OW26222   0.169   8.465   4.382  0.4981 -0.7485  0.3426
 7095SOL    HW126223   0.256   8.435   4.354 -0.3026 -1.7204 -1.2683
 7095SOL    HW226224   0.137   8.396   4.439  1.4146  0.4153  2.3925
 7096SOL     OW26225   3.290   4.552   9.927  0.5415 -1.2173  0.3197
 7096SOL    HW126226   3.369   4.601   9.902  0.0919 -0.3924  0.4608
 7096SOL    HW226227   3.322   4.482   9.984  1.3077 -1.6805 -0.6589
 7097SOL     OW26228   3.447   4.763   3.089  0.2145 -0.9048  0.0844
 7097SOL    HW126229   3.498   4.822   3.144  0.0164  0.8461 -1.4814
 7097SOL    HW226230   3.513   4.710   3.044  0.5392 -0.3782 -0.0773
 7098SOL     OW26231   2.474   0.277   7.766  0.1310 -0.5535 -0.1343
 7098SOL    HW126232   2.430   0.350   7.721 -0.9568 -0.8207  0.4647
 7098SOL    HW226233   2.545   0.252   7.707 -1.7709 -1.4711 -2.1736
 7099SOL     OW26234   1.760   2.549   0.006  0.2672  0.1117  0.2102
 7099SOL    HW126235   1.806   2.630  -0.018 -1.9934  1.2730 -0.4698
 7099SOL    HW226236   1.793   2.529   0.094  2.2204  0.7138 -0.3297
 7100SOL     OW26237   6.515  11.049  10.243  0.4839  0.1642 -0.2314
 7100SOL    HW126238   6.453  10.981  10.218  0.2952  0.4836 -0.6534
 7100SOL    HW226239   6.488  11.125  10.192  0.8117  0.4993  0.0879
 7101SOL     OW26240   9.693   4.812   6.974  0.1624 -0.6553  0.1079
 7101SOL    HW126241   9.677   4.720   6.953  0.8652 -0.1702 -2.9997
 7101SOL    HW226242   9.788   4.822   6.971  0.0371  0.6374 -2.3282
 7102SOL     OW26243   5.677   1.510   6.635 -0.4849  0.2003 -0.5077
 7102SOL    HW126244   5.607   1.472   6.688  0.2797 -2.2168 -1.0538
 7102SOL    HW226245   5.751   1.516   6.696 -0.3768 -0.0033 -0.6160
 7103SOL     OW26246   5.038   6.454  11.090 -0.1962  0.5789 -0.3305
 7103SOL    HW126247   5.051   6.361  11.071 -0.3789  0.9230 -2.3805
 7103SOL    HW226248   4.975   6.455  11.162 -0.0776 -0.8760 -0.1734
 7104SOL     OW26249   7.407   2.861   5.511  0.2403  0.2548  0.1418
 7104SOL    HW126250   7.430   2.944   5.552  0.5853  0.0557  0.3572
 7104SOL    HW226251   7.454   2.795   5.562 -0.8693 -0.1804  0.6469
 7105SOL     OW26252   4.344   8.087   8.465  0.6877  0.3764 -0.3234
 7105SOL    HW126253   4.358   8.050   8.378 -0.3452 -1.1006  0.0925
 7105SOL    HW226254   4.407   8.042   8.521  0.8592  0.7909 -0.1813
 7106SOL     OW26255   5.448  11.384   5.621 -0.0914 -0.3483  0.0720
 7106SOL    HW126256   5.391  11.447   5.577  1.1109  0.8930  0.2162
 7106SOL    HW226257   5.468  11.319   5.554  0.4536  0.6672 -0.7824
 7107SOL     OW26258   9.794   5.797   0.510  0.3096 -0.4753 -0.5414
 7107SOL    HW126259   9.729   5.730   0.493  0.9171 -1.5913  1.2694
 7107SOL    HW226260   9.772   5.868   0.450 -2.1190 -1.1014 -0.4919
 7108SOL     OW26261   0.959   9.544  10.024 -0.2955 -0.0098  0.7166
 7108SOL    HW126262   1.017   9.497  10.083  0.9070  0.3740 -0.1352
 7108SOL    HW226263   0.910   9.475   9.978 -1.4530 -0.3056  2.3146
 7109SOL     OW26264   1.397   2.773   9.238 -0.3493 -0.3996  0.1270
 7109SOL    HW126265   1.445   2.847   9.202 -0.2377  0.3016  1.6383
 7109SOL    HW226266   1.433   2.762   9.326 -0.2855 -2.3253 -0.0893
 7110SOL     OW26267  11.651   1.197  10.346 -0.2376 -0.3313  0.3928
 7110SOL    HW126268  11.557   1.208  10.358 -0.3541 -1.8545  1.2105
 7110SOL    HW226269  11.668   1.108  10.378  1.7406  0.5171  1.9090
 7111SOL     OW26270   9.881   9.976   5.397  0.1199 -0.2238 -0.0927
 7111SOL    HW126271   9.869  10.047   5.460  1.8160  0.3858 -0.3772
 7111SOL    HW226272   9.889  10.021   5.313 -1.4389 -0.9754 -0.6785
 7112SOL     OW26273   4.922  10.667   3.231  0.4138 -0.7094 -0.0658
 7112SOL    HW126274   5.011  10.637   3.250  0.3965 -0.5023  0.3679
 7112SOL    HW226275   4.872  10.587   3.217  1.1698 -0.8025 -2.7450
 7113SOL     OW26276  10.733  11.455   2.351 -0.7275 -0.3751 -0.3287
 7113SOL    HW126277  10.713  11.361   2.354 -3.3387  0.0911 -1.1690
 7113SOL    HW226278  10.829  11.459   2.361 -0.5770 -3.0802  0.0645
 7114SOL     OW26279   6.859   3.051   1.728 -0.5226  0.1840 -0.4357
 7114SOL    HW126280   6.945   3.082   1.756 -0.5021  0.0266 -0.3254
 7114SOL    HW226281   6.825   3.121   1.672 -1.4512  1.4539  1.6108
 7115SOL     OW26282   5.528   4.147   1.802  0.4173  1.2003 -0.2090
 7115SOL    HW126283   5.530   4.083   1.873 -1.0943  0.3667 -0.8573
 7115SOL    HW226284   5.618   4.151   1.771  0.8180  0.4711  0.7905
 7116SOL     OW26285   2.456   9.278   8.611  0.0962  0.1201  0.1585
 7116SOL    HW126286   2.441   9.185   8.595 -0.6410  0.3948 -0.8391
 7116SOL    HW226287   2.442   9.288   8.706 -0.6534 -0.6385  0.1442
 7117SOL     OW26288   5.341   3.837   1.864 -0.3238 -0.4526 -0.0304
 7117SOL    HW126289   5.265   3.807   1.914  0.1343 -1.3373  0.1572
 7117SOL    HW226290   5.395   3.759   1.854  0.8197  0.2793  0.3012
 7118SOL     OW26291   0.468   4.652   6.122  0.6068 -0.4358 -0.0094
 7118SOL    HW126292   0.425   4.576   6.163 -0.7041 -0.5780 -1.5741
 7118SOL    HW226293   0.545   4.614   6.078 -0.7813 -1.1546 -1.9482
 7119SOL     OW26294   5.947  11.612   7.136 -0.0618  0.0352 -0.5563
 7119SOL    HW126295   6.032  11.635   7.175  0.0869 -0.0773 -0.8121
 7119SOL    HW226296   5.902  11.562   7.204  0.1405 -0.0413 -0.4781
 7120SOL     OW26297   6.858   9.867   2.762 -0.3841 -0.5426 -0.0298
 7120SOL    HW126298   6.811   9.853   2.844  0.9934 -1.1510  0.6931
 7120SOL    HW226299   6.850   9.961   2.745  1.2771  0.0481  2.0731
 7121SOL     OW26300   8.762   2.345   4.031  0.4016 -0.1398  0.2024
 7121SOL    HW126301   8.685   2.310   3.986  1.1920  0.7738 -1.9740
 7121SOL    HW226302   8.727   2.414   4.088 -0.7383 -2.0099  1.8823
 7122SOL     OW26303  10.840   6.590   1.196  0.1668 -0.5773  0.0836
 7122SOL    HW126304  10.814   6.624   1.111 -0.1563 -0.7272  0.1221
 7122SOL    HW226305  10.878   6.505   1.178 -0.2284 -0.7625  0.1280
 7123SOL     OW26306   9.220   7.382   2.454 -0.1887 -0.2238  0.2031
 7123SOL    HW126307   9.252   7.344   2.536  0.5834 -0.7156 -0.3091
 7123SOL    HW226308   9.286   7.357   2.389  1.0320  2.9562  0.0308
 7124SOL     OW26309  11.434   2.196   0.235 -0.1568 -0.3199  0.2277
 7124SOL    HW126310  11.359   2.176   0.291 -0.1157 -2.8714 -0.5271
 7124SOL    HW226311  11.404   2.175   0.146  0.4441  1.7287 -0.5313
 7125SOL     OW26312   3.717   1.960   8.878  0.4274  0.4598  0.0274
 7125SOL    HW126313   3.807   1.969   8.844  0.1453  0.8734 -0.6358
 7125SOL    HW226314   3.725   1.899   8.951  0.9118 -1.2951 -1.4212
 7126SOL     OW26315  11.279   6.592   6.250  0.1216  0.2316  0.0664
 7126SOL    HW126316  11.248   6.680   6.271 -1.5671 -0.3835  0.2976
 7126SOL    HW226317  11.224   6.563   6.178  2.1965  0.1931 -1.5838
 7127SOL     OW26318   1.006   1.553   6.578 -0.4438 -0.0353  0.1263
 7127SOL    HW126319   1.048   1.639   6.582 -1.7491  0.6079  0.5785
 7127SOL    HW226320   0.912   1.573   6.573 -0.8650 -1.4369  1.6863
 7128SOL     OW26321   2.978  11.539   4.082  0.0060 -0.4400  0.4006
 7128SOL    HW126322   2.995  11.474   4.013 -0.0233  0.0849 -0.1017
 7128SOL    HW226323   2.923  11.492   4.145 -0.0511 -0.8957  0.0228
 7129SOL     OW26324   6.577   8.374   8.435  0.6145  0.0354  0.6019
 7129SOL    HW126325   6.533   8.453   8.467  0.7496  0.5545 -0.4689
 7129SOL    HW226326   6.670   8.399   8.430  0.4895  0.2734 -1.0318
 7130SOL     OW26327   5.385   3.465   3.619 -0.2905 -0.2954  0.5659
 7130SOL    HW126328   5.342   3.391   3.662  0.2582 -1.0589 -0.1473
 7130SOL    HW226329   5.426   3.514   3.690  0.8172 -1.6734  0.9302
 7131SOL     OW26330   2.139   0.683   3.032 -0.0351  0.3250 -0.0535
 7131SOL    HW126331   2.200   0.676   2.959 -0.2618  0.7064 -0.2781
 7131SOL    HW226332   2.052   0.688   2.992 -0.2584 -0.6356  0.2775
 7132SOL     OW26333   2.015   5.987  11.008 -0.4689  0.1342  0.4128
 7132SOL    HW126334   1.943   6.023  10.955 -0.5776 -0.9391 -0.2206
 7132SOL    HW226335   2.011   6.035  11.090 -2.4177 -0.4066  0.6945
 7133SOL     OW26336   0.729   7.357   9.147 -0.3913  0.2368 -0.3628
 7133SOL    HW126337   0.758   7.445   9.124 -1.4330  1.1776  1.6192
 7133SOL    HW226338   0.634   7.363   9.150 -0.4265 -0.5903  1.0409
 7134SOL     OW26339   1.871   9.050   8.236 -0.4287  0.2225  0.4360
 7134SOL    HW126340   1.835   9.139   8.243  0.5887  0.7158 -0.3591
 7134SOL    HW226341   1.798   8.993   8.261 -1.1442  1.2711  0.8140
 7135SOL     OW26342   4.481   7.357   7.101  0.2189 -0.1667 -0.1276
 7135SOL    HW126343   4.511   7.314   7.181  0.9817 -0.8520 -0.7543
 7135SOL    HW226344   4.387   7.339   7.097  0.0407  0.4419  0.9367
 7136SOL     OW26345   8.457   1.614   5.806  0.1742 -0.1238  0.2876
 7136SOL    HW126346   8.366   1.627   5.833 -0.1881 -0.5428 -0.6870
 7136SOL    HW226347   8.458   1.636   5.713  1.6567  2.5202  0.8434
 7137SOL     OW26348  11.145   4.021   2.726  0.0749  0.2047 -0.5002
 7137SOL    HW126349  11.225   4.058   2.689 -0.0117 -0.2932 -1.2066
 7137SOL    HW226350  11.096   4.096   2.758  1.1636  0.4606  0.6507
 7138SOL     OW26351   6.909  11.334   7.260 -0.2016 -0.1416 -0.6184
 7138SOL    HW126352   6.856  11.398   7.212  0.5016  1.6869  0.8928
 7138SOL    HW226353   6.886  11.250   7.221 -2.4618  0.8221 -1.5812
 7139SOL     OW26354   7.427   2.977   6.847 -0.5026 -0.5111  0.4690
 7139SOL    HW126355   7.495   2.936   6.795 -0.4980  0.2401 -0.1246
 7139SOL    HW226356   7.392   2.905   6.901 -0.1410 -1.1749 -0.1608
 7140SOL     OW26357   8.680   7.473   6.171  0.0289  0.0562 -0.1976
 7140SOL    HW126358   8.688   7.465   6.076  3.6698 -3.8157  0.1091
 7140SOL    HW226359   8.598   7.428   6.192 -0.7828  0.9062 -1.4652
 7141SOL     OW26360   6.856   5.860   3.733  0.4687  0.1234  0.3847
 7141SOL    HW126361   6.776   5.813   3.710  0.2627  0.3281  0.6766
 7141SOL    HW226362   6.926   5.798   3.714  0.1656 -0.5192  1.3135
 7142SOL     OW26363   7.625  10.706  10.329  0.0885 -0.3219  0.4702
 7142SOL    HW126364   7.542  10.659  10.318  1.1514 -1.9940 -1.0378
 7142SOL    HW226365   7.667  10.663  10.403  0.5040 -0.9381 -0.1071
 7143SOL     OW26366   4.599   6.393   4.057  0.5103 -0.0895  0.0865
 7143SOL    HW126367   4.541   6.401   3.981  0.9116  0.4644 -0.1671
 7143SOL    HW226368   4.657   6.320   4.037  1.4797  0.8675 -0.7382
 7144SOL     OW26369  11.208   2.802   2.234  0.2977 -0.2191 -0.3498
 7144SOL    HW126370  11.246   2.846   2.157 -1.0480  0.3618 -0.7058
 7144SOL    HW226371  11.251   2.717   2.236 -0.2463 -0.5814 -2.2530
 7145SOL     OW26372   8.303   4.712   5.231  0.4341 -0.5123 -0.3158
 7145SOL    HW126373   8.385   4.734   5.274 -0.3897 -2.1586  2.2527
 7145SOL    HW226374   8.328   4.651   5.162  1.2494 -2.6515  1.7490
 7146SOL     OW26375   4.441   9.669   1.352 -0.3389 -0.1704 -0.3597
 7146SOL    HW126376   4.381   9.636   1.284 -1.7185 -0.2658  0.8596
 7146SOL    HW226377   4.394   9.742   1.392  1.0959  0.8683 -0.4702
 7147SOL     OW26378   7.348   6.814  11.378  0.5572 -0.3186  0.4436
 7147SOL    HW126379   7.359   6.729  11.421  0.8653 -0.5508 -0.0910
 7147SOL    HW226380   7.361   6.796  11.285  3.1213  0.7223  0.5240
 7148SOL     OW26381   7.383   8.952   1.558  0.1231  0.2074  0.1139
 7148SOL    HW126382   7.332   8.902   1.495 -2.2838 -0.6059  2.5332
 7148SOL    HW226383   7.372   9.043   1.531 -1.1407 -0.1016 -0.4795
 7149SOL     OW26384   8.069   3.175  11.466  0.1936 -0.0438  0.3852
 7149SOL    HW126385   8.069   3.180  11.370 -0.7131  1.1486  0.4205
 7149SOL    HW226386   8.055   3.265  11.494  0.7026 -0.3449  1.6583
 7150SOL     OW26387  10.080   4.187   4.054 -0.1269 -0.4760 -0.1854
 7150SOL    HW126388  10.039   4.170   3.970  0.2284 -2.6378  0.0343
 7150SOL    HW226389  10.011   4.226   4.107  0.1484  2.8235 -1.9839
 7151SOL     OW26390   2.148   1.636   2.028 -0.0238  0.0685 -0.2803
 7151SOL    HW126391   2.131   1.654   1.936  0.2902 -0.1377 -0.3805
 7151SOL    HW226392   2.230   1.587   2.028  1.3984  2.2897  0.2708
 7152SOL     OW26393   9.650   5.036   8.216  0.6475  0.0682 -0.8272
 7152SOL    HW126394   9.613   4.986   8.289 -0.1697 -0.9748 -1.9267
 7152SOL    HW226395   9.716   5.093   8.257 -0.9530  0.7369  0.9436
 7153SOL     OW26396  10.109  10.123   4.343  0.5606 -0.2423 -0.3929
 7153SOL    HW126397  10.108  10.122   4.439 -0.2915  0.7885 -0.3716
 7153SOL    HW226398  10.142  10.037   4.319  3.1641  0.2859  0.8342
 7154SOL     OW26399   5.350   9.762   6.462 -0.1849  0.5696  0.2063
 7154SOL    HW126400   5.262   9.779   6.427 -1.2193  0.2344  2.4849
 7154SOL    HW226401   5.399   9.728   6.387 -1.7336  1.5284 -1.3260
 7155SOL     OW26402   3.277   2.297   8.951  0.4791  0.3942  0.8351
 7155SOL    HW126403   3.367   2.267   8.938  0.5704  1.2718 -0.9622
 7155SOL    HW226404   3.226   2.245   8.888 -0.7697 -1.9270  3.5471
 7156SOL     OW26405   5.133   9.628   9.318  0.6138 -0.0009 -0.2337
 7156SOL    HW126406   5.058   9.596   9.369  0.3881 -0.6450 -0.9449
 7156SOL    HW226407   5.206   9.574   9.347  0.6483  0.1472 -0.0468
 7157SOL     OW26408   0.051   4.059   8.077 -0.1437  0.1397 -0.5363
 7157SOL    HW126409   0.068   4.153   8.069 -1.5429  0.3055 -2.3550
 7157SOL    HW226410   0.017   4.048   8.166  0.8127  1.1989 -0.0195
 7158SOL     OW26411   2.932   2.043   8.385  0.4272 -0.5704  0.3939
 7158SOL    HW126412   2.848   2.089   8.378  1.1546  0.5795 -1.2001
 7158SOL    HW226413   2.907   1.952   8.404 -1.2761 -0.6416 -1.7847
 7159SOL     OW26414   1.029  10.383   1.602 -0.6712  0.2208 -0.4506
 7159SOL    HW126415   0.999  10.347   1.685  0.7893 -1.3626 -0.5532
 7159SOL    HW226416   0.960  10.362   1.540 -0.8506 -0.4385 -0.0368
 7160SOL     OW26417   7.121   4.286   8.258  0.2505 -0.1553 -0.0112
 7160SOL    HW126418   7.170   4.286   8.340 -0.4294  0.3146  0.4045
 7160SOL    HW226419   7.069   4.206   8.262  0.3820 -0.2446 -0.0851
 7161SOL     OW26420   1.708   1.795  11.137 -0.0594  0.6158 -0.6744
 7161SOL    HW126421   1.727   1.848  11.214  0.5900 -0.5366 -0.0208
 7161SOL    HW226422   1.734   1.851  11.063  0.2891  1.3396 -0.0217
 7162SOL     OW26423   5.149   3.741   8.516 -0.1190 -0.3274 -0.2056
 7162SOL    HW126424   5.118   3.685   8.445 -0.2318  0.7824 -1.0486
 7162SOL    HW226425   5.125   3.829   8.489  0.4761  0.1787  0.8835
 7163SOL     OW26426   8.950   7.706   1.083 -0.6213  0.1227  0.7157
 7163SOL    HW126427   8.943   7.614   1.057 -1.6735 -0.3011  2.4100
 7163SOL    HW226428   9.037   7.732   1.052  0.6905 -2.1233  2.2263
 7164SOL     OW26429   7.490   8.625   9.450 -0.1464 -0.6523 -0.0853
 7164SOL    HW126430   7.581   8.620   9.478 -0.3606 -0.4438  0.6645
 7164SOL    HW226431   7.494   8.672   9.366  0.4682 -0.9973 -0.2550
 7165SOL     OW26432  10.562  11.308   6.223  1.1534  0.2814 -0.0500
 7165SOL    HW126433  10.573  11.253   6.301 -0.1751 -0.5528 -0.4035
 7165SOL    HW226434  10.647  11.351   6.211  1.3386  0.5818  1.9536
 7166SOL     OW26435   7.941  11.535   2.514  0.6383  0.0970  0.5797
 7166SOL    HW126436   7.857  11.571   2.543  0.9676  0.5717  0.9634
 7166SOL    HW226437   7.960  11.582   2.433  0.7692  0.3559  0.7564
 7167SOL     OW26438   9.319   3.102   7.091  0.4183 -0.5023  0.2849
 7167SOL    HW126439   9.335   3.047   7.015 -1.7876 -0.2767 -0.4079
 7167SOL    HW226440   9.267   3.047   7.150  0.7051 -0.1226  0.9057
 7168SOL     OW26441   6.533   2.995  11.689 -0.1058  0.2419  0.2867
 7168SOL    HW126442   6.541   2.900  11.687  0.5219  0.2931 -1.4911
 7168SOL    HW226443   6.440   3.012  11.703 -0.5790 -0.6780 -1.5487
 7169SOL     OW26444  10.699   6.140   6.261  0.0224  0.3667 -0.0190
 7169SOL    HW126445  10.794   6.132   6.271  0.2996  4.1827  3.2270
 7169SOL    HW226446  10.687   6.215   6.203 -1.0133 -0.1528 -0.5009
 7170SOL     OW26447  11.110   3.749   3.711  0.5101  0.2219  0.1356
 7170SOL    HW126448  11.080   3.834   3.744 -1.0429 -0.7727  1.4266
 7170SOL    HW226449  11.194   3.734   3.755  0.3749  0.6945  0.5552
 7171SOL     OW26450  11.211   2.519   1.865 -0.2357 -0.6163  0.2441
 7171SOL    HW126451  11.261   2.578   1.809 -0.8150  0.3754  0.7517
 7171SOL    HW226452  11.132   2.568   1.888 -0.8079 -1.6445  0.5605
 7172SOL     OW26453   4.430   7.811   9.210 -0.0440 -0.0005  0.4031
 7172SOL    HW126454   4.475   7.742   9.161 -0.3337 -0.9590  1.4319
 7172SOL    HW226455   4.460   7.892   9.171 -2.0874 -0.6931 -3.0617
 7173SOL     OW26456  10.914   7.638   8.993  0.2992 -0.0472  0.0513
 7173SOL    HW126457  10.960   7.577   8.936 -2.4630 -2.5884  0.2684
 7173SOL    HW226458  10.934   7.608   9.082  0.8247  0.9277  0.2781
 7174SOL     OW26459   4.491   3.243   7.190  0.3864 -0.3627 -0.0898
 7174SOL    HW126460   4.572   3.193   7.200  0.2447 -1.9652 -4.6523
 7174SOL    HW226461   4.422   3.177   7.186 -0.6139  0.6615 -0.3854
 7175SOL     OW26462  11.226   4.786   5.377 -0.0868 -0.7495  0.3532
 7175SOL    HW126463  11.140   4.815   5.345  0.1487 -0.5158 -0.0752
 7175SOL    HW226464  11.259   4.860   5.426  0.1185 -0.6233  0.0299
 7176SOL     OW26465   2.143  11.611  10.080 -0.0375 -0.0520 -0.4752
 7176SOL    HW126466   2.216  11.641  10.026 -0.9755 -0.7493 -2.2371
 7176SOL    HW226467   2.114  11.689  10.128  1.9139  0.1935  0.3632
 7177SOL     OW26468   9.604   0.836   3.484  0.0297  0.3081  0.1735
 7177SOL    HW126469   9.521   0.881   3.470 -0.7327 -1.0971 -0.0798
 7177SOL    HW226470   9.618   0.839   3.578  0.9080  2.5560  0.0215
 7178SOL     OW26471   0.234   0.559   3.785  0.2534 -0.3312 -0.7879
 7178SOL    HW126472   0.189   0.525   3.863  1.0665 -1.2227 -0.6811
 7178SOL    HW226473   0.232   0.654   3.796  0.6892 -0.4464  0.5250
 7179SOL     OW26474   2.621   4.528   6.960  0.1941  0.1459 -0.1115
 7179SOL    HW126475   2.700   4.476   6.942 -0.7979 -1.4186 -0.2048
 7179SOL    HW226476   2.652   4.618   6.967  1.8552 -0.3195 -0.9922
 7180SOL     OW26477   1.724   5.374   3.807 -0.0257  0.4733 -0.6190
 7180SOL    HW126478   1.785   5.397   3.876 -0.0663  0.8388 -0.7001
 7180SOL    HW226479   1.643   5.350   3.853 -0.0159  0.5995 -0.5362
 7181SOL     OW26480   6.476   5.322   1.008  0.8280 -0.0440  0.8570
 7181SOL    HW126481   6.466   5.227   1.012 -0.6117  0.0612  0.2563
 7181SOL    HW226482   6.558   5.340   1.055  0.9031 -1.5349  1.3253
 7182SOL     OW26483   8.436   8.922   5.420 -0.3404 -0.2438 -0.2159
 7182SOL    HW126484   8.430   8.972   5.501  1.1875  0.0557 -0.2739
 7182SOL    HW226485   8.350   8.880   5.412  0.1707 -2.1307  2.7396
 7183SOL     OW26486   0.182   3.603   9.932  0.1801 -0.0658 -0.3285
 7183SOL    HW126487   0.174   3.545   9.857  1.1604 -1.2016  0.4064
 7183SOL    HW226488   0.212   3.686   9.895  0.7718 -0.6529 -1.1849
 7184SOL     OW26489   9.646   3.678   8.173  0.1292  0.4869  0.0392
 7184SOL    HW126490   9.637   3.641   8.261  2.8623  0.9397  0.6230
 7184SOL    HW226491   9.609   3.766   8.181 -0.7514  0.0910  0.3904
 7185SOL     OW26492   9.764   2.387   2.506 -0.3820  0.4612  0.2816
 7185SOL    HW126493   9.688   2.377   2.449 -0.0495  0.4599 -0.1677
 7185SOL    HW226494   9.835   2.342   2.460 -0.2311 -0.0035  0.9479
 7186SOL     OW26495  10.301   7.141   1.611 -0.0572 -0.0765  0.1059
 7186SOL    HW126496  10.247   7.108   1.539 -0.0398  3.2189 -1.5632
 7186SOL    HW226497  10.241   7.194   1.663  0.7151  0.4308  0.4922
 7187SOL     OW26498   7.072   1.882  11.071 -0.1574 -0.6609 -0.5108
 7187SOL    HW126499   7.030   1.967  11.058 -0.3664 -0.8125 -0.8383
 7187SOL    HW226500   7.150   1.901  11.123 -0.1885 -0.2678 -0.6080
 7188SOL     OW26501   9.394   4.479   1.450  0.0561  0.4292  0.2974
 7188SOL    HW126502   9.427   4.420   1.518  0.9439 -0.4126 -0.8049
 7188SOL    HW226503   9.299   4.478   1.461 -0.0643 -2.1030 -0.3031
 7189SOL     OW26504   2.869   6.398  10.317 -0.1541 -0.7606  0.3256
 7189SOL    HW126505   2.891   6.490  10.299 -1.3488 -0.4970  0.1736
 7189SOL    HW226506   2.775   6.398  10.331 -0.1078 -1.9126  0.7246
 7190SOL     OW26507   7.663   5.001   8.946 -0.0818 -0.4502 -0.5919
 7190SOL    HW126508   7.746   4.975   8.986  0.0390  1.2960  0.4212
 7190SOL    HW226509   7.688   5.047   8.866 -0.1522 -1.0999 -0.9902
 7191SOL     OW26510   3.454   2.434   2.659  0.0909 -0.6767  0.5152
 7191SOL    HW126511   3.359   2.432   2.650  0.1255  0.5047 -0.4041
 7191SOL    HW226512   3.469   2.467   2.747 -0.3500 -0.8796  0.6710
 7192SOL     OW26513   8.743   6.423   1.866 -0.1696  0.1814 -0.4854
 7192SOL    HW126514   8.739   6.408   1.960 -0.5560 -0.5423 -0.6119
 7192SOL    HW226515   8.704   6.344   1.827  0.7907  0.0732 -1.2726
 7193SOL     OW26516  10.370   4.925   8.259 -0.1084  0.0303 -0.0565
 7193SOL    HW126517  10.420   4.853   8.223 -1.6931 -1.3638  0.3929
 7193SOL    HW226518  10.392   4.926   8.352  0.9717  1.0699 -0.2982
 7194SOL     OW26519   6.399   5.222   2.258  0.0255  0.1155 -0.0342
 7194SOL    HW126520   6.423   5.264   2.341 -2.4751  0.5092  0.5567
 7194SOL    HW226521   6.338   5.153   2.283 -1.1909  0.5782 -1.5622
 7195SOL     OW26522   6.882   7.015   1.709  0.0533 -0.0590 -0.3134
 7195SOL    HW126523   6.812   7.019   1.643 -0.6394 -0.8420  0.3565
 7195SOL    HW226524   6.883   7.102   1.748 -0.1072  0.1486 -0.7631
 7196SOL     OW26525  11.338   7.216   0.990 -0.7716 -0.7188  0.2118
 7196SOL    HW126526  11.425   7.240   0.961 -0.6542 -0.4940  0.7393
 7196SOL    HW226527  11.279   7.268   0.935 -0.5148  1.3405  1.7842
 7197SOL     OW26528   6.344   1.425   8.228  0.1096  0.1082  0.1905
 7197SOL    HW126529   6.254   1.400   8.250 -0.0253  0.5712  0.1890
 7197SOL    HW226530   6.374   1.358   8.166 -0.3788  0.1753 -0.1235
 7198SOL     OW26531   4.868  11.143   2.653  0.1104 -0.1449 -0.0118
 7198SOL    HW126532   4.924  11.066   2.648 -0.1650 -0.3765  0.3476
 7198SOL    HW226533   4.917  11.205   2.706 -0.8976 -1.2152  2.3777
 7199SOL     OW26534   1.909   5.627   1.455 -0.3194  0.1098 -0.3206
 7199SOL    HW126535   1.836   5.592   1.403 -0.8517  2.2004 -1.0566
 7199SOL    HW226536   1.899   5.722   1.450  2.2880  0.4574 -0.1672
 7200SOL     OW26537   8.267   2.491   5.607  0.6305 -0.3508 -0.4029
 7200SOL    HW126538   8.223   2.407   5.593  1.6569 -1.0072  0.1851
 7200SOL    HW226539   8.282   2.525   5.518 -0.8781 -0.1857 -0.6216
 7201SOL     OW26540  10.121   7.518   0.966  0.7205  0.4323  0.5847
 7201SOL    HW126541  10.029   7.523   0.991  1.2501  0.6354  2.6363
 7201SOL    HW226542  10.143   7.608   0.941  0.3121  0.3301 -0.1814
 7202SOL     OW26543  10.212   6.596   6.187 -0.3449  0.8483 -0.3023
 7202SOL    HW126544  10.308   6.600   6.191 -0.3534  2.4715 -1.1001
 7202SOL    HW226545  10.184   6.590   6.279  0.4776  1.9183  0.0370
 7203SOL     OW26546   8.287   8.419   4.557 -0.0720  0.3408  0.3397
 7203SOL    HW126547   8.367   8.411   4.608  0.2039 -0.7540 -0.2324
 7203SOL    HW226548   8.258   8.329   4.543 -0.8479  0.6766 -0.3250
 7204SOL     OW26549   9.578   6.090   6.794 -0.6415 -0.6371 -0.6363
 7204SOL    HW126550   9.554   6.006   6.754  0.3728 -0.8121 -0.9182
 7204SOL    HW226551   9.625   6.066   6.873 -0.3915 -0.3319 -0.6902
 7205SOL     OW26552   9.171   3.146   7.521 -0.0829  0.0332  0.2759
 7205SOL    HW126553   9.256   3.167   7.560 -0.4572  1.6428  0.2877
 7205SOL    HW226554   9.192   3.112   7.434  0.5618  1.0536  0.0138
 7206SOL     OW26555   7.115   6.997   6.953  0.0213  0.1489  0.1999
 7206SOL    HW126556   7.162   6.923   6.990  2.4281  1.3068 -0.3320
 7206SOL    HW226557   7.062   6.959   6.883 -0.5304 -1.3315  1.3828
 7207SOL     OW26558   0.623   0.860   0.702  0.4758 -0.2061  0.0190
 7207SOL    HW126559   0.552   0.902   0.655  0.2288  0.8453  1.2716
 7207SOL    HW226560   0.591   0.852   0.792 -0.0522 -4.3444 -0.3280
 7208SOL     OW26561   9.078   9.289   8.807  0.6801  0.4458 -0.4934
 7208SOL    HW126562   9.070   9.315   8.716  1.1686  1.3991 -0.2691
 7208SOL    HW226563   8.988   9.289   8.840  0.4298 -0.5042 -1.1195
 7209SOL     OW26564   9.106   0.954   2.289 -0.2297 -0.3693  0.6049
 7209SOL    HW126565   9.084   0.927   2.200 -0.8065 -0.3009  0.7233
 7209SOL    HW226566   9.105   0.872   2.340  0.2125 -0.4251  0.5332
 7210SOL     OW26567   0.296   8.787  10.606 -0.4075 -0.5084  0.1328
 7210SOL    HW126568   0.357   8.747  10.544  1.2339  0.7620  0.8542
 7210SOL    HW226569   0.306   8.882  10.592 -0.4269 -0.2092  1.9106
 7211SOL     OW26570   7.669   1.772   6.161  0.6248  0.1143  0.2983
 7211SOL    HW126571   7.706   1.717   6.230 -0.5328 -0.1164  0.7607
 7211SOL    HW226572   7.734   1.842   6.149  1.7519 -0.9118  0.2327
 7212SOL     OW26573   7.400   2.805   3.297  0.7125  0.1178  0.1376
 7212SOL    HW126574   7.322   2.754   3.275 -0.1418  0.8143  1.4642
 7212SOL    HW226575   7.444   2.819   3.213 -1.0401  0.4501 -0.7669
 7213SOL     OW26576   1.570   9.186   3.341  0.3260 -0.0527 -0.2994
 7213SOL    HW126577   1.545   9.113   3.283 -3.5783  2.8678 -2.8594
 7213SOL    HW226578   1.657   9.211   3.312 -0.1817 -0.8335 -2.7317
 7214SOL     OW26579  11.391   9.744   6.242 -0.5644  0.1171 -0.6026
 7214SOL    HW126580  11.402   9.731   6.147  0.2112 -0.3985 -0.4588
 7214SOL    HW226581  11.297   9.756   6.254 -0.8658 -1.3626 -1.2642
 7215SOL     OW26582   6.854   7.376   0.494  0.5051 -0.3808 -0.3232
 7215SOL    HW126583   6.821   7.436   0.561  0.4759 -1.7629  0.9678
 7215SOL    HW226584   6.775   7.337   0.457  0.5567 -1.0703  0.2621
 7216SOL     OW26585  10.902   2.497   3.095  0.1669 -0.2111  0.6752
 7216SOL    HW126586  10.866   2.583   3.115  0.5132  0.0101  0.3616
 7216SOL    HW226587  10.995   2.513   3.080  0.0111 -0.4349 -0.6110
 7217SOL     OW26588   8.215   8.942   0.849  0.6933  0.1318 -0.0394
 7217SOL    HW126589   8.305   8.921   0.824  0.5304 -1.1392  0.3568
 7217SOL    HW226590   8.179   8.859   0.881 -0.6699  0.5722 -0.3412
 7218SOL     OW26591  10.600   7.906   5.528 -0.2988 -0.0623  0.0303
 7218SOL    HW126592  10.662   7.904   5.602  0.1453  0.1380 -0.3350
 7218SOL    HW226593  10.604   7.996   5.496 -0.7122 -0.0750 -0.0587
 7219SOL     OW26594  11.174  10.126   0.802  0.4850  0.0061  0.2672
 7219SOL    HW126595  11.171  10.211   0.757 -1.5979 -0.0250  0.2676
 7219SOL    HW226596  11.132  10.143   0.886 -0.7198 -1.2037 -0.0684
 7220SOL     OW26597   0.010   9.844   0.215  0.3512  0.2121 -0.2625
 7220SOL    HW126598  -0.058   9.873   0.155  0.3768 -0.4639 -0.6267
 7220SOL    HW226599  -0.035   9.832   0.298  0.4274  1.7220  0.0283
 7221SOL     OW26600   4.804   8.530  11.411  0.0962 -1.0726 -0.5836
 7221SOL    HW126601   4.803   8.455  11.352  0.2550 -0.2115 -1.7238
 7221SOL    HW226602   4.884   8.519  11.463 -1.3159 -3.1955  1.3657
 7222SOL     OW26603  11.449  10.885   0.215  0.2081 -0.2312 -0.0793
 7222SOL    HW126604  11.472  10.909   0.126  1.2170  2.5158  0.8035
 7222SOL    HW226605  11.521  10.829   0.244 -0.0133 -0.9517 -0.8689
 7223SOL     OW26606   1.733   8.827   1.336  0.4189 -0.3372  0.0294
 7223SOL    HW126607   1.766   8.869   1.415  0.5192  1.4044 -0.8757
 7223SOL    HW226608   1.699   8.900   1.283 -0.3264 -1.5331 -1.1997
 7224SOL     OW26609   6.963   6.781   8.234  0.2912  0.6282  0.3002
 7224SOL    HW126610   7.022   6.848   8.201 -0.8112  0.8594 -1.3079
 7224SOL    HW226611   6.876   6.819   8.226 -0.3980 -1.0860 -1.0351
 7225SOL     OW26612  10.490   4.443   2.459 -0.1440  0.2062 -0.0299
 7225SOL    HW126613  10.545   4.393   2.399 -0.7728 -1.3685  0.6670
 7225SOL    HW226614  10.470   4.524   2.411  0.2519 -0.5309 -1.4939
 7226SOL     OW26615   3.315   5.097  11.583 -0.0470 -0.1688 -0.3873
 7226SOL    HW126616   3.333   5.090  11.490  0.5586 -1.2768 -0.2062
 7226SOL    HW226617   3.251   5.027  11.600  1.7682 -1.7175  0.4605
 7227SOL     OW26618  10.234   9.257   3.546  0.1692 -0.2647  0.0918
 7227SOL    HW126619  10.180   9.327   3.510 -0.3196 -0.9488 -0.5241
 7227SOL    HW226620  10.284   9.225   3.471 -0.2052 -1.1174  0.2013
 7228SOL     OW26621   5.734   0.509   3.424  0.3538 -0.2957  0.1069
 7228SOL    HW126622   5.737   0.425   3.377 -1.1625 -1.4322  1.8837
 7228SOL    HW226623   5.643   0.517   3.452  0.9065  0.9612  1.7044
 7229SOL     OW26624   6.098   2.459   9.486 -0.5183  0.1181  0.4277
 7229SOL    HW126625   6.175   2.403   9.497 -2.0687 -1.8384  1.9802
 7229SOL    HW226626   6.116   2.509   9.406  1.1692 -2.2853 -0.8245
 7230SOL     OW26627   8.862   4.689   8.224 -0.2426  0.5066  0.1975
 7230SOL    HW126628   8.926   4.760   8.221 -0.2210  0.5863  1.7186
 7230SOL    HW226629   8.885   4.639   8.302 -0.6120 -0.8605 -0.5244
 7231SOL     OW26630   6.519   0.118   5.506 -0.2434  0.1360  0.0539
 7231SOL    HW126631   6.578   0.187   5.536  1.9711 -1.1293 -1.0789
 7231SOL    HW226632   6.503   0.138   5.414 -1.4882  0.3649  0.3039
 7232SOL     OW26633   6.054   5.859   9.243  0.3508 -0.4250  0.0154
 7232SOL    HW126634   6.039   5.913   9.320  0.3435 -1.7748  0.9973
 7232SOL    HW226635   5.967   5.844   9.206  0.3450  0.1426 -0.2097
 7233SOL     OW26636   2.506   5.327   4.719  0.2532 -0.7584  0.6911
 7233SOL    HW126637   2.533   5.317   4.810  0.6274 -0.4011  0.6238
 7233SOL    HW226638   2.487   5.238   4.689 -2.9749 -0.6566  2.0354
 7234SOL     OW26639  10.712   0.653   2.143 -0.5517 -0.4278  0.0708
 7234SOL    HW126640  10.702   0.563   2.175  0.7283 -0.9416 -0.8661
 7234SOL    HW226641  10.756   0.698   2.215 -0.2565 -0.8313  0.1505
 7235SOL     OW26642  10.698   8.550  11.507  0.4383 -0.1468  0.2844
 7235SOL    HW126643  10.614   8.559  11.552  0.0803 -0.2379 -0.3490
 7235SOL    HW226644  10.760   8.526  11.576 -0.0722 -0.1684  0.7437
 7236SOL     OW26645   5.647   4.322   8.742 -0.0076  0.1155 -0.3270
 7236SOL    HW126646   5.674   4.230   8.742  0.4687  0.2425  0.6810
 7236SOL    HW226647   5.726   4.370   8.717  0.2597  0.3599  0.8936
 7237SOL     OW26648   3.719   9.751  10.755  0.1467 -0.0535  0.6006
 7237SOL    HW126649   3.702   9.771  10.847  0.1013  1.3462  0.3016
 7237SOL    HW226650   3.774   9.823  10.724 -0.1344 -0.3197 -0.5692
 7238SOL     OW26651   5.681   2.310   1.127 -0.1026 -0.5227  0.2396
 7238SOL    HW126652   5.615   2.288   1.061 -0.3701  0.3643  0.2034
 7238SOL    HW226653   5.669   2.244   1.196 -3.1373  1.3675  1.7162
 7239SOL     OW26654   6.218   3.642   7.364  0.0188  0.5035 -0.1178
 7239SOL    HW126655   6.189   3.701   7.295 -0.0560  0.9992  0.3299
 7239SOL    HW226656   6.314   3.647   7.362  0.0324  0.1653 -0.4799
 7240SOL     OW26657   0.668   8.682   0.356 -0.6087 -0.1357  0.0998
 7240SOL    HW126658   0.581   8.652   0.330 -1.3368  0.1809  2.0117
 7240SOL    HW226659   0.722   8.603   0.352 -1.0534 -0.4137 -0.7537
 7241SOL     OW26660   7.488   9.870   7.197 -0.0658  0.2784  0.3095
 7241SOL    HW126661   7.566   9.877   7.252 -0.3134 -0.1983  0.7391
 7241SOL    HW226662   7.419   9.845   7.258 -0.2332 -0.8100 -0.3055
 7242SOL     OW26663  11.390  10.315   2.832  0.0615  0.3241 -0.1210
 7242SOL    HW126664  11.315  10.354   2.876  0.6927  0.6322  0.6992
 7242SOL    HW226665  11.360  10.300   2.742 -0.5210  1.7684 -0.1913
 7243SOL     OW26666   2.093   8.722  10.961  0.4146  0.3273 -0.2854
 7243SOL    HW126667   2.089   8.815  10.938  0.3092  0.6388  0.9234
 7243SOL    HW226668   2.003   8.691  10.951  0.1521  0.7204  0.6695
 7244SOL     OW26669   8.095   5.123   8.189  0.3879 -0.5608 -0.2594
 7244SOL    HW126670   8.095   5.102   8.096  1.5660  0.6455 -0.5646
 7244SOL    HW226671   8.167   5.185   8.200 -1.2701  1.2786  1.0178
 7245SOL     OW26672   4.758   4.008   5.196  0.7264 -0.0173 -0.1207
 7245SOL    HW126673   4.743   3.914   5.182 -0.0689  0.2473 -1.0783
 7245SOL    HW226674   4.686   4.035   5.253 -0.1485  0.3956 -1.3913
 7246SOL     OW26675  10.406   0.356   2.533  0.3699 -0.0321  0.1416
 7246SOL    HW126676  10.409   0.267   2.498 -1.4566  0.1403 -0.5978
 7246SOL    HW226677  10.473   0.358   2.601  0.9496 -1.7397 -0.3267
 7247SOL     OW26678  11.140  10.520  11.354  0.0590  0.4773  0.1596
 7247SOL    HW126679  11.061  10.571  11.337  0.5056  1.2667  0.3972
 7247SOL    HW226680  11.205  10.558  11.295  0.2612 -0.1688 -0.0333
 7248SOL     OW26681  10.131   4.619  11.191  0.4759  0.3572  0.2896
 7248SOL    HW126682  10.144   4.580  11.277 -2.5334  0.8413  1.0677
 7248SOL    HW226683  10.098   4.547  11.137  0.6455  0.4713  0.0291
 7249SOL     OW26684   2.403  10.170   9.550 -0.3890  0.0283 -0.0519
 7249SOL    HW126685   2.330  10.134   9.601  0.7143 -0.3740  1.3096
 7249SOL    HW226686   2.392  10.265   9.557  0.4973  0.0346  2.1971
 7250SOL     OW26687   4.940   2.974   4.766 -0.5765 -0.2980 -0.1704
 7250SOL    HW126688   5.023   2.929   4.780 -1.1576 -0.9489  1.4709
 7250SOL    HW226689   4.938   2.993   4.673  2.4149  1.7332  0.0636
 7251SOL     OW26690   9.480   7.885   7.200  0.0346 -0.0527 -0.2761
 7251SOL    HW126691   9.501   7.900   7.107 -2.6734  2.4583 -0.6346
 7251SOL    HW226692   9.523   7.958   7.245  1.4240 -1.3215  0.5588
 7252SOL     OW26693   3.342   7.241  11.280  0.4937 -0.1199  0.2387
 7252SOL    HW126694   3.358   7.292  11.359  2.0398  1.6645 -1.1573
 7252SOL    HW226695   3.401   7.277  11.215 -1.2097 -1.0656 -1.9702
 7253SOL     OW26696   2.921   5.009   2.714  0.8940 -0.0714 -0.3675
 7253SOL    HW126697   2.995   5.006   2.775  0.9012  0.1124 -0.3676
 7253SOL    HW226698   2.903   5.102   2.702  1.2378 -0.0877 -1.0667
 7254SOL     OW26699   4.032   9.383   9.675 -0.5235 -0.8488 -0.2157
 7254SOL    HW126700   3.953   9.431   9.700 -0.6711 -1.7925  1.2164
 7254SOL    HW226701   4.095   9.451   9.651 -1.4634 -0.0529 -0.4822
 7255SOL     OW26702   4.411   6.082   1.059  0.0795 -0.4820 -0.2042
 7255SOL    HW126703   4.405   6.099   0.965 -0.9332 -0.2122 -0.1001
 7255SOL    HW226704   4.322   6.097   1.092 -0.3942 -3.6206  0.2784
 7256SOL     OW26705   9.859   4.262   8.822 -0.4843 -0.5881 -0.4034
 7256SOL    HW126706   9.920   4.302   8.884  0.3720 -0.0796 -1.5095
 7256SOL    HW226707   9.772   4.288   8.853 -0.0630 -0.0658  0.3821
 7257SOL     OW26708   3.233   0.720   6.559 -0.0219  0.2393 -0.0450
 7257SOL    HW126709   3.176   0.643   6.558 -0.1060  0.2995 -1.1576
 7257SOL    HW226710   3.187   0.785   6.508  0.5177  0.6844  0.0230
 7258SOL     OW26711   4.830   0.135   2.195 -0.2358  0.5710 -0.8226
 7258SOL    HW126712   4.922   0.109   2.193 -0.0549  1.1909 -1.0790
 7258SOL    HW226713   4.808   0.140   2.288 -0.2106 -0.2467 -0.7690
 7259SOL     OW26714   5.793   9.280   3.753 -0.1802 -0.2651 -0.1047
 7259SOL    HW126715   5.830   9.368   3.745  0.8843 -0.6363  0.4748
 7259SOL    HW226716   5.763   9.258   3.665 -0.5579  0.7083 -0.2371
 7260SOL     OW26717   8.779   2.886   2.632 -0.0022  0.6491 -0.1375
 7260SOL    HW126718   8.830   2.921   2.558  1.0259 -0.7913 -0.1516
 7260SOL    HW226719   8.814   2.798   2.645 -1.5543  0.1415  0.7890
 7261SOL     OW26720   7.277   1.981  11.230 -0.6664  0.2055  0.2078
 7261SOL    HW126721   7.250   2.072  11.219  0.7992  0.6543  0.1331
 7261SOL    HW226722   7.276   1.967  11.325 -0.0596  0.5782  0.2738
 7262SOL     OW26723   7.686   8.222  11.568 -0.7457 -0.0887  0.2057
 7262SOL    HW126724   7.656   8.235  11.659 -1.3640 -0.8857  0.1200
 7262SOL    HW226725   7.630   8.281  11.517  0.1032  0.9280  0.4054
 7263SOL     OW26726   8.264   8.754  10.202  0.0724 -0.1006 -0.1074
 7263SOL    HW126727   8.226   8.827  10.153 -0.1032  0.0195  0.2039
 7263SOL    HW226728   8.292   8.793  10.285  1.7909  0.0281 -0.7023
 7264SOL     OW26729   6.749   8.279   8.981 -0.0777  0.2732 -0.3034
 7264SOL    HW126730   6.802   8.253   9.056  0.3186 -4.1714 -1.8106
 7264SOL    HW226731   6.813   8.299   8.913 -0.3801  0.3707 -0.5608
 7265SOL     OW26732   4.875   7.971   7.531 -0.2493  0.2573 -0.1164
 7265SOL    HW126733   4.927   8.002   7.457  0.4689  1.7348  0.9846
 7265SOL    HW226734   4.866   7.877   7.515  0.6560  0.3914 -1.6056
 7266SOL     OW26735  11.019   2.576   7.383 -0.1686 -0.4300 -0.0840
 7266SOL    HW126736  11.046   2.485   7.391  0.4139 -0.1384  1.7617
 7266SOL    HW226737  11.101   2.624   7.373 -0.3608  0.0118  0.4140
 7267SOL     OW26738  11.099   1.649   3.877  0.0457  0.0502 -0.0464
 7267SOL    HW126739  11.128   1.579   3.819 -0.6595  0.3868 -0.8206
 7267SOL    HW226740  11.125   1.620   3.965  0.0490 -1.0205 -0.3907
 7268SOL     OW26741   9.541   9.107  11.212 -0.0243 -0.1430 -0.1006
 7268SOL    HW126742   9.495   9.098  11.129  2.4200  2.7603 -1.9526
 7268SOL    HW226743   9.477   9.148  11.271 -1.0814 -0.0937 -1.2466
 7269SOL     OW26744   2.622   0.323  10.812 -0.3478 -0.4916  0.1604
 7269SOL    HW126745   2.656   0.254  10.755 -0.2939 -0.2022 -0.1581
 7269SOL    HW226746   2.532   0.296  10.831 -0.6752 -0.1290 -0.8110
 7270SOL     OW26747   9.296   6.254   8.931 -0.0577  0.0386 -0.8408
 7270SOL    HW126748   9.357   6.291   8.995 -0.3435 -0.0116 -0.5339
 7270SOL    HW226749   9.282   6.324   8.868  2.6051 -0.8737 -2.6027
 7271SOL     OW26750   3.097   3.927   7.562 -0.0600 -0.0428 -0.3722
 7271SOL    HW126751   3.142   3.923   7.646  2.9418  0.7683 -1.7994
 7271SOL    HW226752   3.010   3.961   7.583  0.5671  0.0811  2.3949
 7272SOL     OW26753   5.583  10.572   6.158 -0.4859  0.2721  0.8990
 7272SOL    HW126754   5.657  10.633   6.161  0.2867 -0.5952  0.0049
 7272SOL    HW226755   5.515  10.615   6.211 -0.2576  2.2784 -0.2941
 7273SOL     OW26756   7.190   3.322   7.098  0.1610  0.3131  0.2914
 7273SOL    HW126757   7.185   3.232   7.066  1.3685  0.2090  0.3546
 7273SOL    HW226758   7.252   3.365   7.040 -0.2523  1.0626  0.3834
 7274SOL     OW26759   0.387   6.314   2.037 -0.7184 -0.2360 -0.4327
 7274SOL    HW126760   0.349   6.236   2.076  0.1321 -0.4200  0.0582
 7274SOL    HW226761   0.457   6.281   1.981  0.0729  0.2000  0.2807
 7275SOL     OW26762   5.842   4.234   5.049 -0.1936 -0.9081 -0.1439
 7275SOL    HW126763   5.845   4.160   4.988  0.2322 -0.2010 -1.0061
 7275SOL    HW226764   5.799   4.304   5.000 -0.1345 -0.4283  0.4801
 7276SOL     OW26765   3.252   9.900  10.238  0.2320 -0.1579  0.0979
 7276SOL    HW126766   3.341   9.910  10.272  0.0551 -0.0617  0.5352
 7276SOL    HW226767   3.244   9.807  10.218  0.4503 -0.1566  0.0044
 7277SOL     OW26768   5.478   6.571  11.035  0.1046 -0.0508 -0.4233
 7277SOL    HW126769   5.448   6.618  10.958 -3.1609  0.1523  0.8197
 7277SOL    HW226770   5.492   6.481  11.005  0.4114  0.3475 -1.5228
 7278SOL     OW26771   5.621  10.533   2.378 -0.5482  0.0257 -0.0728
 7278SOL    HW126772   5.530  10.562   2.391 -0.3306  0.5706  0.2583
 7278SOL    HW226773   5.628  10.455   2.433 -0.4980  0.6293  0.8033
 7279SOL     OW26774   2.648   5.468   3.271  1.0979  0.1866 -0.3887
 7279SOL    HW126775   2.610   5.485   3.357 -0.0223  0.8617 -0.9806
 7279SOL    HW226776   2.675   5.555   3.240 -2.4417  0.7587 -2.4439
 7280SOL     OW26777   4.865   4.016   0.706 -0.6516  0.4355  0.3947
 7280SOL    HW126778   4.897   4.037   0.794  0.5466 -1.1538  0.3720
 7280SOL    HW226779   4.927   4.059   0.647 -2.1514  2.5614  0.2396
 7281SOL     OW26780   5.984   4.315   9.774 -0.7181 -0.4783  0.7868
 7281SOL    HW126781   6.020   4.398   9.743 -1.7346 -0.5967 -0.8126
 7281SOL    HW226782   6.060   4.264   9.800  0.0338  0.4146  0.4019
 7282SOL     OW26783   1.451   8.001   6.984 -0.0921  0.5453 -0.2189
 7282SOL    HW126784   1.376   8.051   7.017 -1.0136  0.4743 -2.0637
 7282SOL    HW226785   1.483   8.052   6.909 -0.5842 -1.1891 -1.6867
 7283SOL     OW26786   3.744   3.929   5.802 -0.8687  0.2125  0.1093
 7283SOL    HW126787   3.664   3.950   5.753 -0.4678 -0.2694 -0.7830
 7283SOL    HW226788   3.717   3.927   5.893 -1.8590  0.1380 -0.1761
 7284SOL     OW26789   5.675   1.795   9.477 -0.0163  0.2441  0.5788
 7284SOL    HW126790   5.588   1.829   9.499  0.0305 -0.2734  1.6085
 7284SOL    HW226791   5.673   1.786   9.381 -0.3533  2.1928  0.3747
 7285SOL     OW26792   2.712   1.661   7.785 -0.1010 -0.0644  0.6222
 7285SOL    HW126793   2.757   1.738   7.750 -0.5221  0.9751  2.2757
 7285SOL    HW226794   2.774   1.589   7.772  0.6607  0.7034 -0.1345
 7286SOL     OW26795   8.842   2.916   1.551 -0.2068 -0.1745  0.5133
 7286SOL    HW126796   8.902   2.882   1.618  2.8767 -0.5269 -2.1874
 7286SOL    HW226797   8.882   2.999   1.524 -2.0235  0.5358 -0.1214
 7287SOL     OW26798  11.224   6.158   3.911  0.3272  0.4493 -0.2464
 7287SOL    HW126799  11.156   6.104   3.870  0.5353  0.2491 -0.3349
 7287SOL    HW226800  11.208   6.151   4.005 -0.4973  1.3676 -0.3079
 7288SOL     OW26801  10.754   6.384   6.936 -0.1046  0.1537 -0.2869
 7288SOL    HW126802  10.771   6.471   6.900  0.5874  0.1507 -0.0000
 7288SOL    HW226803  10.731   6.401   7.028  0.7797 -0.0020 -0.0233
 7289SOL     OW26804   3.540   0.945   0.801 -0.1273  0.0889  0.1943
 7289SOL    HW126805   3.525   1.017   0.861  2.0961 -0.3836  1.4294
 7289SOL    HW226806   3.602   0.980   0.737  0.4340 -0.5028  0.4022
 7290SOL     OW26807   4.441   6.587   0.364 -0.0009  0.2328 -0.2037
 7290SOL    HW126808   4.370   6.627   0.314  0.2531 -1.0301 -1.6353
 7290SOL    HW226809   4.400   6.565   0.448 -0.9786  0.6108 -0.5591
 7291SOL     OW26810   0.134   5.235  11.328  0.0568 -0.0907 -0.2121
 7291SOL    HW126811   0.091   5.315  11.359 -0.1450 -0.0636 -0.5614
 7291SOL    HW226812   0.147   5.182  11.407  1.0349  0.6847  0.1703
 7292SOL     OW26813   3.830   8.009   8.095 -0.3417 -0.6403  0.0113
 7292SOL    HW126814   3.889   8.084   8.097 -1.1741  0.0832 -1.0606
 7292SOL    HW226815   3.823   7.980   8.186  0.9942 -0.2368  0.2609
 7293SOL     OW26816   2.459   5.589   5.424 -1.0170 -0.6259  0.0963
 7293SOL    HW126817   2.408   5.661   5.385 -0.7049 -1.0816 -1.1927
 7293SOL    HW226818   2.542   5.630   5.448 -0.1513 -0.8738 -2.2456
 7294SOL     OW26819   7.888   2.019   3.053  0.2804 -0.6533  0.4587
 7294SOL    HW126820   7.938   1.940   3.075  1.0653 -0.3265 -0.0850
 7294SOL    HW226821   7.896   2.075   3.130  1.2911 -0.3544  0.1566
 7295SOL     OW26822   3.688   6.197   3.438 -0.1442 -0.0518  0.0006
 7295SOL    HW126823   3.652   6.112   3.461 -0.1802 -0.3290 -1.0231
 7295SOL    HW226824   3.619   6.259   3.461 -0.6641 -0.4333 -0.4918
 7296SOL     OW26825   9.766  10.629  11.415  0.6655 -0.0807  0.4090
 7296SOL    HW126826   9.716  10.628  11.334  1.9853  0.4336 -0.4406
 7296SOL    HW226827   9.728  10.558  11.467  0.8793 -1.5613 -1.3385
 7297SOL     OW26828  10.865   6.267  10.519  0.2511  0.1619 -0.0290
 7297SOL    HW126829  10.866   6.357  10.486 -1.0350 -0.1681 -1.0534
 7297SOL    HW226830  10.811   6.270  10.598  0.0803  0.2698 -0.1494
 7298SOL     OW26831   7.884  11.198   8.228 -0.2294  0.5398  0.1285
 7298SOL    HW126832   7.882  11.222   8.135 -0.5975  0.1776  0.0396
 7298SOL    HW226833   7.974  11.168   8.242 -0.3454 -0.0189 -0.2757
 7299SOL     OW26834   0.611   5.229  10.782 -0.1062 -0.4196  0.1949
 7299SOL    HW126835   0.608   5.276  10.699 -2.1461 -1.8229 -0.5983
 7299SOL    HW226836   0.680   5.273  10.832  1.7520 -0.0316 -2.5019
 7300SOL     OW26837   6.221  10.505   0.944  0.3088 -0.0024  0.5732
 7300SOL    HW126838   6.133  10.542   0.955  0.2654  0.9421 -2.1922
 7300SOL    HW226839   6.280  10.580   0.951  0.4403  0.2750 -2.2508
 7301SOL     OW26840   6.899   5.331   9.229  0.2610 -0.3816  0.0714
 7301SOL    HW126841   6.878   5.423   9.212  1.3995  0.0811  1.0428
 7301SOL    HW226842   6.945   5.303   9.149  0.2821  0.0077 -0.0564
 7302SOL     OW26843   2.139   9.434   0.095 -0.1649 -0.4993  0.5982
 7302SOL    HW126844   2.085   9.424   0.173 -1.6296  0.0170 -0.3224
 7302SOL    HW226845   2.162   9.344   0.070 -0.3318 -0.7070  1.1776
 7303SOL     OW26846   1.171   3.006   2.405 -0.5067 -0.2532 -0.4759
 7303SOL    HW126847   1.260   3.015   2.370 -1.5698 -1.4713 -3.8252
 7303SOL    HW226848   1.160   2.912   2.419 -1.8724 -0.3763 -2.0680
 7304SOL     OW26849  11.258  10.682   8.863 -0.1203 -0.0024 -0.1117
 7304SOL    HW126850  11.288  10.599   8.900 -0.5466 -0.0568  0.1159
 7304SOL    HW226851  11.211  10.724   8.935  0.7101  0.7669  0.0016
 7305SOL     OW26852   9.175   1.730  10.287 -0.0157  0.4225  0.4245
 7305SOL    HW126853   9.121   1.797  10.246  0.1380  0.3700  0.1313
 7305SOL    HW226854   9.193   1.763  10.374 -0.4505  0.4803  0.4954
 7306SOL     OW26855   0.485   5.689   9.324 -0.7863  0.3095  0.6076
 7306SOL    HW126856   0.506   5.758   9.262  0.5613 -0.3271  0.3212
 7306SOL    HW226857   0.437   5.624   9.273  0.8958 -0.5241  0.0247
 7307SOL     OW26858   0.592   4.633   7.210  0.2163  0.4726 -0.1294
 7307SOL    HW126859   0.632   4.607   7.128  0.4468  1.3661 -0.3097
 7307SOL    HW226860   0.599   4.728   7.211  2.6732  0.3842  2.1386
 7308SOL     OW26861   6.939   8.263   2.575  0.4933  0.0516  0.5044
 7308SOL    HW126862   6.954   8.216   2.493 -0.5955  0.3324  0.1265
 7308SOL    HW226863   6.905   8.349   2.548 -2.1363 -0.6531  1.2443
 7309SOL     OW26864   3.121   9.348   3.205  0.3508 -0.4077  0.8041
 7309SOL    HW126865   3.113   9.253   3.217  0.1629 -0.2863  1.7177
 7309SOL    HW226866   3.057   9.385   3.266  1.4486  0.3377  1.5474
 7310SOL     OW26867   9.160  10.667   4.971  0.2223 -0.3588 -0.1816
 7310SOL    HW126868   9.221  10.654   4.899  0.9786  1.1157  0.1587
 7310SOL    HW226869   9.194  10.743   5.019 -1.7984  0.4519  0.0786
 7311SOL     OW26870   4.465   3.691   4.241 -0.0073  0.1769 -0.8908
 7311SOL    HW126871   4.417   3.623   4.289 -1.6547  0.7609 -1.6264
 7311SOL    HW226872   4.557   3.675   4.263 -0.4205 -1.6920 -0.3010
 7312SOL     OW26873   0.711  10.149   2.950  0.2003 -0.1703 -0.0673
 7312SOL    HW126874   0.647  10.153   3.021 -1.2706  2.0918 -1.3984
 7312SOL    HW226875   0.676  10.082   2.891 -0.6628  0.6356 -0.4944
 7313SOL     OW26876   6.994   3.907   0.092  0.0831  0.0357 -0.1053
 7313SOL    HW126877   6.902   3.933   0.083  0.0497 -0.1211 -0.2183
 7313SOL    HW226878   7.021   3.944   0.176  0.4838  1.7769 -0.9683
 7314SOL     OW26879   4.439   6.089   1.500 -0.3348 -0.3923 -0.6753
 7314SOL    HW126880   4.413   6.156   1.437  1.0145 -0.2605 -1.1349
 7314SOL    HW226881   4.494   6.029   1.449  1.1723 -0.0335  0.4395
 7315SOL     OW26882   9.072   4.652   4.022 -0.1079 -0.0300 -0.4024
 7315SOL    HW126883   9.050   4.745   4.014 -0.3426  0.0466  0.8803
 7315SOL    HW226884   9.151   4.641   3.970  0.9693  1.2893  0.8903
 7316SOL     OW26885   5.704   2.447   1.678 -0.0344 -0.0457 -0.2684
 7316SOL    HW126886   5.706   2.392   1.756  3.5065 -0.6282 -0.6184
 7316SOL    HW226887   5.684   2.386   1.607 -0.4631 -0.0446 -0.1505
 7317SOL     OW26888   7.188   0.364   1.887  1.0309 -0.1815 -0.1969
 7317SOL    HW126889   7.137   0.442   1.865 -0.2035 -1.7126 -3.4062
 7317SOL    HW226890   7.123   0.295   1.898  1.9585 -0.6648  4.0815
 7318SOL     OW26891   3.437   1.488   9.838 -0.3276  0.5306 -0.1015
 7318SOL    HW126892   3.419   1.436   9.916  0.1939  0.3453 -0.0999
 7318SOL    HW226893   3.533   1.494   9.835 -0.3421  0.3926 -0.8215
 7319SOL     OW26894   8.543   7.511   9.546 -0.1462  0.2721  0.0076
 7319SOL    HW126895   8.637   7.496   9.560 -0.4808 -1.1776  0.9418
 7319SOL    HW226896   8.535   7.606   9.536  1.1725  0.6241  1.8790
 7320SOL     OW26897   2.103   0.982   2.956 -0.1161  0.3671 -0.0440
 7320SOL    HW126898   2.025   0.926   2.961 -0.0997  0.3130 -0.3757
 7320SOL    HW226899   2.162   0.935   2.897  0.5569 -0.0710  0.9402
 7321SOL     OW26900   2.111   2.137   9.191  0.2620  0.1921  0.1514
 7321SOL    HW126901   2.187   2.129   9.249  1.1359 -1.0242 -1.0861
 7321SOL    HW226902   2.070   2.050   9.194 -0.4341  0.5073 -0.0572
 7322SOL     OW26903   1.784   0.315   1.710  0.0411  0.4845 -0.0803
 7322SOL    HW126904   1.776   0.220   1.723 -2.9293  0.9238  2.5480
 7322SOL    HW226905   1.875   0.328   1.683  0.9336 -2.9722  0.7454
 7323SOL     OW26906  11.237   0.919   3.493 -0.0878  0.2587  0.2824
 7323SOL    HW126907  11.155   0.947   3.452 -1.0778 -1.6831  0.7918
 7323SOL    HW226908  11.217   0.917   3.586  0.8620  0.6506  0.5072
 7324SOL     OW26909   7.683   2.278   8.643 -0.2030  0.4962  0.4603
 7324SOL    HW126910   7.721   2.200   8.682 -2.1777 -0.0599  1.4047
 7324SOL    HW226911   7.720   2.351   8.693 -1.0820 -0.0899  2.0434
 7325SOL     OW26912   1.962   6.250   9.603 -0.3869 -0.7407  0.4318
 7325SOL    HW126913   1.904   6.318   9.636 -2.0118 -1.5311 -0.6484
 7325SOL    HW226914   1.984   6.278   9.515 -0.9720 -1.5150  0.0248
 7326SOL     OW26915  10.527  11.670  11.092 -0.5269  0.1638  0.0817
 7326SOL    HW126916  10.615  11.632  11.089 -0.1300  1.0804 -0.1522
 7326SOL    HW226917  10.506  11.687  11.000 -1.0951 -0.3628  0.1105
 7327SOL     OW26918  11.509   2.488   9.616 -0.1589 -0.0306  0.0468
 7327SOL    HW126919  11.572   2.450   9.678  0.4333 -0.1556 -0.6239
 7327SOL    HW226920  11.519   2.582   9.626 -0.9464 -0.0371  1.0231
 7328SOL     OW26921   0.801   8.136  11.408 -0.2197 -0.5742  0.4238
 7328SOL    HW126922   0.811   8.048  11.373 -3.3982 -0.7115 -0.4081
 7328SOL    HW226923   0.754   8.125  11.490  0.3857  0.2935  0.9085
 7329SOL     OW26924   6.635   3.849   5.768 -0.5049  0.6943  0.2912
 7329SOL    HW126925   6.565   3.913   5.755 -0.8848  0.9694  3.0172
 7329SOL    HW226926   6.610   3.802   5.848  1.4025 -0.6366  0.1795
 7330SOL     OW26927   6.479   3.359   0.346 -0.3110  0.0329 -0.2403
 7330SOL    HW126928   6.510   3.274   0.316 -0.8482 -0.6212  0.9541
 7330SOL    HW226929   6.482   3.353   0.442 -2.1266  0.6631 -0.1006
 7331SOL     OW26930   4.869   1.276  11.641  1.2127  0.4281  1.3607
 7331SOL    HW126931   4.940   1.318  11.593  2.4684 -0.4731  2.4009
 7331SOL    HW226932   4.810   1.244  11.573  2.9474 -0.8235  0.3959
 7332SOL     OW26933   2.730   1.521   6.709  0.1654 -0.2176 -0.0211
 7332SOL    HW126934   2.813   1.560   6.737 -0.4978  1.0153  0.2643
 7332SOL    HW226935   2.735   1.523   6.613  1.0406 -1.4398 -0.0277
 7333SOL     OW26936   4.468  10.422   8.747 -0.2077 -0.0896 -0.0544
 7333SOL    HW126937   4.446  10.453   8.835 -1.2746 -1.7030  0.2882
 7333SOL    HW226938   4.528  10.349   8.762 -0.5917 -0.5326 -0.6397
 7334SOL     OW26939   9.390   6.238   2.247 -0.0374 -0.3120  0.4655
 7334SOL    HW126940   9.298   6.266   2.246 -0.2069 -0.8548  0.0427
 7334SOL    HW226941   9.391   6.161   2.304  0.1531 -0.3151  0.4595
 7335SOL     OW26942   3.908   0.951   6.987  0.6299 -0.0834 -0.2076
 7335SOL    HW126943   4.003   0.946   6.984  0.7534 -1.5240  2.6364
 7335SOL    HW226944   3.890   1.029   7.041  0.3604 -1.3504  1.6256
 7336SOL     OW26945   1.498   3.263   5.434 -0.3306 -0.4360 -0.0307
 7336SOL    HW126946   1.431   3.311   5.482  0.7704  0.7827  0.3383
 7336SOL    HW226947   1.458   3.245   5.349 -0.2775  2.6017 -0.8286
 7337SOL     OW26948   4.102   1.139   4.127 -0.1423  0.1710  0.7730
 7337SOL    HW126949   4.026   1.193   4.149  1.0920  1.7302  1.3200
 7337SOL    HW226950   4.125   1.165   4.038 -0.1389 -0.1876  0.6662
 7338SOL     OW26951   5.312  11.402   3.175  0.0594 -0.9274 -1.1032
 7338SOL    HW126952   5.361  11.473   3.134  0.5229  0.0295  0.9965
 7338SOL    HW226953   5.247  11.376   3.110  0.7246  0.5348 -2.3899
 7339SOL     OW26954   3.005   8.823  10.984  0.0295 -0.8459  0.3926
 7339SOL    HW126955   3.042   8.812  11.072 -1.3823 -0.9357  1.0023
 7339SOL    HW226956   2.993   8.918  10.975 -0.1994 -0.8703  0.4532
 7340SOL     OW26957   8.296   3.932   3.915 -0.2520  0.0159 -0.0534
 7340SOL    HW126958   8.367   3.917   3.978  0.9267 -0.2911 -1.4276
 7340SOL    HW226959   8.293   3.852   3.862 -0.0293  0.9547 -1.5348
 7341SOL     OW26960   4.798   0.466   3.483  0.0764  0.9750  0.2030
 7341SOL    HW126961   4.779   0.447   3.391 -0.5932  0.5539  0.4208
 7341SOL    HW226962   4.843   0.551   3.482  1.3902  0.2911 -0.6286
 7342SOL     OW26963  11.018   6.930   1.183 -0.1212 -0.0058  0.1964
 7342SOL    HW126964  11.108   6.944   1.155  0.3150 -1.2562  0.9084
 7342SOL    HW226965  10.992   7.014   1.222  0.4700  0.5925 -0.6412
 7343SOL     OW26966  10.952  11.098  10.286  0.1873  0.0004 -0.0858
 7343SOL    HW126967  11.004  11.042  10.229 -0.9281 -1.7409  0.5502
 7343SOL    HW226968  10.903  11.154  10.226  1.5541  0.5688 -0.7211
 7344SOL     OW26969   4.219   0.842   9.453  0.0415 -0.4687 -0.0712
 7344SOL    HW126970   4.298   0.896   9.453  0.3858 -0.8151  3.1220
 7344SOL    HW226971   4.183   0.853   9.365  1.8043  2.3843 -0.5595
 7345SOL     OW26972   6.368   1.012  10.623 -0.1443  0.3369 -0.0365
 7345SOL    HW126973   6.417   0.941  10.666  0.4259  0.1833 -0.9070
 7345SOL    HW226974   6.361   1.080  10.689 -1.4447 -0.8483  1.1138
 7346SOL     OW26975   9.657  11.230   0.093 -0.8023 -0.3326 -0.7392
 7346SOL    HW126976   9.623  11.163   0.033  0.9517 -1.9533 -0.0416
 7346SOL    HW226977   9.681  11.181   0.172 -0.8951  1.3911  0.4094
 7347SOL     OW26978   1.635   3.946  11.371  0.0022 -0.0564 -0.2469
 7347SOL    HW126979   1.554   3.996  11.380  0.1271  0.3938 -1.4922
 7347SOL    HW226980   1.703   4.011  11.357  0.6080 -0.4313  0.8186
 7348SOL     OW26981   9.902   1.897   2.806 -0.4228  0.2059  0.5544
 7348SOL    HW126982   9.815   1.865   2.782 -0.1541 -0.0797 -0.0942
 7348SOL    HW226983   9.943   1.920   2.722  1.3291 -2.7906  0.4384
 7349SOL     OW26984   1.445   1.962   7.501  0.1146 -0.4460  0.1825
 7349SOL    HW126985   1.414   2.032   7.559  0.0144  0.7828 -1.3059
 7349SOL    HW226986   1.434   1.883   7.553 -0.4255  0.5514  1.6762
 7350SOL     OW26987   1.221  10.057   0.887  0.2927  0.6185 -0.0081
 7350SOL    HW126988   1.241  10.083   0.977 -2.3350  1.4185  0.4369
 7350SOL    HW226989   1.145   9.999   0.895 -0.1271  0.8645 -1.7251
 7351SOL     OW26990  10.889   6.452   9.036  0.2152 -0.1034  0.3294
 7351SOL    HW126991  10.895   6.406   9.120  1.5483 -1.8581 -0.6700
 7351SOL    HW226992  10.935   6.535   9.052  0.1368 -0.2521  1.4259
 7352SOL     OW26993   8.728   3.693   6.898  0.2644 -0.1009 -0.1472
 7352SOL    HW126994   8.812   3.732   6.921  0.2269  0.5431 -1.0294
 7352SOL    HW226995   8.682   3.762   6.850 -1.0991 -0.1717  0.9960
 7353SOL     OW26996   1.880   5.219   0.336  0.2153  0.5179 -0.3993
 7353SOL    HW126997   1.920   5.182   0.257  0.4926 -0.7678  0.3167
 7353SOL    HW226998   1.862   5.143   0.391  0.3431  1.4215  0.9280
 7354SOL     OW26999   4.000  11.168   5.980 -0.0507  0.1410 -0.0632
 7354SOL    HW127000   4.006  11.233   6.050  0.9347 -0.9711  0.9199
 7354SOL    HW227001   4.090  11.138   5.967  0.0794  1.4612 -2.9571
 7355SOL     OW27002   6.911   4.471   3.629 -0.6306 -0.2487 -0.3330
 7355SOL    HW127003   6.858   4.491   3.551 -1.2164  0.0994  0.1480
 7355SOL    HW227004   6.953   4.553   3.651  0.2624 -0.5594 -0.8051
 7356SOL     OW27005   6.460   6.749   6.958 -0.0090 -0.2146  0.3481
 7356SOL    HW127006   6.542   6.795   6.973  0.2030 -0.5502  0.2279
 7356SOL    HW227007   6.440   6.764   6.865  0.7345 -1.4369 -0.0293
 7357SOL     OW27008   9.736   1.655   9.236 -0.3063  0.0057  0.0313
 7357SOL    HW127009   9.701   1.709   9.165 -2.1664  0.3452  1.1539
 7357SOL    HW227010   9.831   1.658   9.223 -0.5514  0.4006 -2.1742
 7358SOL     OW27011   6.628   3.655   3.455 -0.2038 -0.4899 -0.5277
 7358SOL    HW127012   6.653   3.605   3.533  1.5481  0.6757 -0.2845
 7358SOL    HW227013   6.586   3.734   3.488 -0.5994 -0.5799 -0.8103
 7359SOL     OW27014  10.504   7.068   3.718 -0.0451 -0.5152  0.7799
 7359SOL    HW127015  10.488   7.068   3.623 -1.2371  0.8535  0.9380
 7359SOL    HW227016  10.537   6.981   3.737  1.4309 -0.4156 -1.0805
 7360SOL     OW27017   8.426   1.714   2.481  0.0840 -0.5885 -0.3155
 7360SOL    HW127018   8.437   1.711   2.386 -1.3040 -1.0785 -0.4765
 7360SOL    HW227019   8.499   1.663   2.515  0.8416 -0.0485 -1.0822
 7361SOL     OW27020   8.359   8.953   6.180 -0.3924 -0.0247  0.8322
 7361SOL    HW127021   8.284   9.009   6.199  0.6945  2.4339 -1.5246
 7361SOL    HW227022   8.417   8.965   6.255 -0.4785  1.5332  0.6781
 7362SOL     OW27023  10.702   4.204   9.304 -0.0942  0.7759  0.3217
 7362SOL    HW127024  10.616   4.234   9.336  0.2386  0.3777  1.6504
 7362SOL    HW227025  10.760   4.215   9.378  0.3400 -1.8796  0.4799
 7363SOL     OW27026   7.218   7.042  11.274 -0.2411  0.0825  0.2724
 7363SOL    HW127027   7.241   6.962  11.321  0.1766  1.2185  2.1092
 7363SOL    HW227028   7.282   7.107  11.305 -1.2858  1.4171 -0.2648
 7364SOL     OW27029  10.983   8.034   5.379  0.2676  0.2697 -0.3000
 7364SOL    HW127030  10.911   7.985   5.339  0.6637  1.0303 -2.0905
 7364SOL    HW227031  10.964   8.125   5.357  1.2861  0.5694  0.0027
 7365SOL     OW27032   4.986   3.638   9.551 -0.3705  0.0382 -0.1740
 7365SOL    HW127033   4.998   3.545   9.532 -0.2730  0.0122  0.0021
 7365SOL    HW227034   4.987   3.642   9.647 -0.4306  0.2135 -0.1812
 7366SOL     OW27035   0.706   7.536   4.711  0.0926  0.0661 -0.6798
 7366SOL    HW127036   0.708   7.480   4.634  1.6751 -0.5223 -0.2453
 7366SOL    HW227037   0.687   7.477   4.784 -1.8247  0.6777 -0.6141
 7367SOL     OW27038   5.578  11.163   0.348 -0.6091  0.7033  0.2708
 7367SOL    HW127039   5.508  11.140   0.286  0.8212 -0.6205 -0.9284
 7367SOL    HW227040   5.537  11.156   0.434 -2.5125  2.0675 -0.4552
 7368SOL     OW27041   7.961   0.230  10.140 -0.5776  0.2708 -0.4574
 7368SOL    HW127042   7.991   0.139  10.133  0.3372  0.5566 -0.4363
 7368SOL    HW227043   7.885   0.235  10.082 -1.1000 -0.6868  0.1156
 7369SOL     OW27044   6.112   9.561  10.198  0.3029 -0.1656  0.4116
 7369SOL    HW127045   6.047   9.631  10.192  0.5571 -0.0260 -1.3444
 7369SOL    HW227046   6.075   9.499  10.260 -1.2041  0.2317 -0.0508
 7370SOL     OW27047  10.175   7.346   8.537 -0.0165 -0.1720  0.1534
 7370SOL    HW127048  10.196   7.412   8.604  0.2842 -0.5676  0.4580
 7370SOL    HW227049  10.116   7.390   8.477 -0.4232  0.1434  0.7803
 7371SOL     OW27050   2.795   7.106   5.077  0.2954  0.3253  0.2010
 7371SOL    HW127051   2.872   7.151   5.042  1.4305 -1.7914 -0.2357
 7371SOL    HW227052   2.831   7.040   5.137 -0.9736 -1.8170 -1.2245
 7372SOL     OW27053   3.102  10.932   7.840 -0.1281 -0.4220 -0.0041
 7372SOL    HW127054   3.196  10.922   7.822  0.0303  0.5932  0.1911
 7372SOL    HW227055   3.083  11.022   7.815 -0.4167  0.3082  2.5809
 7373SOL     OW27056   7.078   7.504   9.776  0.4073  0.0367 -0.1159
 7373SOL    HW127057   7.115   7.486   9.689  0.0172  0.0855 -0.2962
 7373SOL    HW227058   7.040   7.591   9.768 -1.6421 -0.8434 -0.6035
 7374SOL     OW27059   5.034   7.536   1.384  0.1630 -0.1526  0.3065
 7374SOL    HW127060   4.950   7.492   1.390  0.6475 -1.0814  0.5533
 7374SOL    HW227061   5.082   7.487   1.317  0.5488  0.2892  0.2535
 7375SOL     OW27062   4.629   1.198   0.397  0.0947  0.1643 -0.1569
 7375SOL    HW127063   4.721   1.173   0.390  0.0162 -0.4878  0.9330
 7375SOL    HW227064   4.631   1.291   0.420  0.4494  0.3893 -1.0419
 7376SOL     OW27065   8.331   0.541   3.389  0.4622  0.1892 -0.0691
 7376SOL    HW127066   8.300   0.524   3.300  1.3500  0.3983 -0.4196
 7376SOL    HW227067   8.419   0.577   3.379  0.7527 -0.1925  0.9081
 7377SOL     OW27068   6.752   1.308   8.130  0.0436  0.0882  0.5782
 7377SOL    HW127069   6.842   1.340   8.129 -0.1281  0.5895 -1.2506
 7377SOL    HW227070   6.701   1.379   8.169  0.1962  0.5143  0.0038
 7378SOL     OW27071   4.167   8.142   2.084  0.0046 -0.1044 -0.1593
 7378SOL    HW127072   4.173   8.121   1.991 -0.7096  0.1772 -0.2780
 7378SOL    HW227073   4.100   8.211   2.089  2.0315  1.9614  0.2457
 7379SOL     OW27074   0.150   4.514   3.900  0.4384  0.6484  0.2307
 7379SOL    HW127075   0.062   4.508   3.935  0.5239  0.8722  0.4914
 7379SOL    HW227076   0.184   4.425   3.903 -0.3170  0.2792 -1.3074
 7380SOL     OW27077   8.868  10.988   7.686  0.0364 -0.1243 -0.0291
 7380SOL    HW127078   8.795  11.049   7.678  0.8139  0.6631 -1.4498
 7380SOL    HW227079   8.856  10.926   7.614  1.1729  0.4705 -0.7489
 7381SOL     OW27080   7.794   8.507   1.122 -0.3222  0.0672  0.2866
 7381SOL    HW127081   7.842   8.569   1.067  1.1755 -0.7977  0.5722
 7381SOL    HW227082   7.851   8.493   1.198 -0.6776 -1.5524  0.2871
 7382SOL     OW27083   7.858   6.078   5.806  0.9227  0.0064 -0.6521
 7382SOL    HW127084   7.813   6.038   5.881  1.6287  0.7286  0.1971
 7382SOL    HW227085   7.794   6.139   5.770 -0.2654 -2.0300 -2.1516
 7383SOL     OW27086   1.319  11.063   3.219 -0.0372 -0.0167  0.6622
 7383SOL    HW127087   1.396  11.015   3.249 -0.0015  0.4968  1.4163
 7383SOL    HW227088   1.248  10.999   3.222  0.3647 -0.5101 -0.1021
 7384SOL     OW27089   8.846   8.797   1.370  0.1138 -0.0465 -0.4001
 7384SOL    HW127090   8.793   8.736   1.319 -2.1578  1.7491 -0.3654
 7384SOL    HW227091   8.791   8.820   1.445  0.6478  2.3324 -0.6380
 7385SOL     OW27092   2.273   0.019   4.307 -0.5415 -0.5963 -0.5222
 7385SOL    HW127093   2.180  -0.003   4.299 -0.3567 -1.7502  0.1993
 7385SOL    HW227094   2.296  -0.008   4.396  0.6843 -1.1026 -0.9716
 7386SOL     OW27095   2.394   7.495   5.706  0.1020 -0.2106 -0.5984
 7386SOL    HW127096   2.472   7.498   5.651  0.2165 -2.0023 -0.6001
 7386SOL    HW227097   2.327   7.453   5.653 -0.2822 -0.4708  0.0698
 7387SOL     OW27098   9.933   4.216   9.806 -0.1993 -0.3932 -0.3083
 7387SOL    HW127099   9.956   4.288   9.864  0.0702 -0.2365 -0.6062
 7387SOL    HW227100   9.965   4.137   9.851 -1.5604 -0.4603  0.5863
 7388SOL     OW27101  11.008  10.651   7.926 -0.1679  0.0342  0.3023
 7388SOL    HW127102  11.013  10.743   7.954  2.7712  0.4159 -1.0894
 7388SOL    HW227103  11.049  10.602   7.998  1.6798  0.3078 -0.5051
 7389SOL     OW27104   4.844  11.113   7.645  0.0022 -0.9311 -0.0427
 7389SOL    HW127105   4.910  11.076   7.586 -0.5804 -2.6036  0.3077
 7389SOL    HW227106   4.894  11.145   7.720  0.5695 -0.4279 -0.6120
 7390SOL     OW27107   9.062  11.183  11.664 -0.3022 -0.0078 -0.5354
 7390SOL    HW127108   9.055  11.215  11.574 -0.1346 -0.6774 -0.7858
 7390SOL    HW227109   8.978  11.140  11.681  0.2222 -1.2116 -0.8950
 7391SOL     OW27110   8.203   4.258   3.840 -0.3029  0.1366 -0.0375
 7391SOL    HW127111   8.125   4.211   3.812  0.5975 -0.9731 -0.7485
 7391SOL    HW227112   8.257   4.265   3.761  0.5434  0.4372  0.5549
 7392SOL     OW27113   3.109   9.004   9.899 -0.2376  0.5415 -0.0289
 7392SOL    HW127114   3.196   9.011   9.860  0.0491 -0.3551  0.4278
 7392SOL    HW227115   3.094   8.910   9.908 -0.8653  0.7056  0.7617
 7393SOL     OW27116   5.535  10.272   0.127  0.7376  0.2625 -0.0122
 7393SOL    HW127117   5.476  10.341   0.157  0.5630  0.0568  0.1263
 7393SOL    HW227118   5.509  10.256   0.037  2.1292  1.7961 -0.7319
 7394SOL     OW27119  11.426   5.944   3.913 -0.0368 -0.5844  0.2387
 7394SOL    HW127120  11.462   5.954   4.002 -1.1561 -0.7964  0.7292
 7394SOL    HW227121  11.372   6.022   3.901  2.6789  1.2120 -1.5832
 7395SOL     OW27122   7.941   3.959   7.024 -0.3360 -0.0625 -0.3751
 7395SOL    HW127123   8.025   4.001   7.004  0.3782 -0.7901  0.9526
 7395SOL    HW227124   7.891   4.026   7.071  0.4302 -0.3348  0.8911
 7396SOL     OW27125   3.275  10.650   0.916  0.4257 -0.1953  0.1128
 7396SOL    HW127126   3.221  10.692   0.848 -1.3039  0.7674  1.9678
 7396SOL    HW227127   3.249  10.558   0.913 -1.7671  0.3106  1.2311
 7397SOL     OW27128   4.592   6.636   8.313  0.2760  0.3394 -0.2621
 7397SOL    HW127129   4.672   6.687   8.301  0.0681  0.4975 -1.0204
 7397SOL    HW227130   4.620   6.559   8.364  0.8701  0.4880 -0.3569
 7398SOL     OW27131   7.618   5.395   0.507 -0.3916 -0.0692  0.2963
 7398SOL    HW127132   7.620   5.447   0.427 -1.0816 -1.2396 -0.5071
 7398SOL    HW227133   7.700   5.416   0.551  2.5371 -2.9678 -3.0770
 7399SOL     OW27134   3.640  10.969   8.073 -0.9190  0.3658  0.2852
 7399SOL    HW127135   3.606  10.883   8.098 -3.1803  1.0149 -0.3096
 7399SOL    HW227136   3.656  11.013   8.157 -1.3061 -0.0688  0.5989
 7400SOL     OW27137   9.034  10.487   8.734  0.1987  0.1801 -0.8381
 7400SOL    HW127138   9.109  10.490   8.674 -0.8296  0.8088 -2.1385
 7400SOL    HW227139   9.007  10.579   8.743 -0.3306 -0.0231 -0.2642
 7401SOL     OW27140   4.892   1.079   6.825  0.9975 -0.2147 -0.0370
 7401SOL    HW127141   4.957   1.130   6.873  0.7148  0.5182 -0.4299
 7401SOL    HW227142   4.825   1.058   6.891  1.5362 -0.8461  0.3327
 7402SOL     OW27143   6.179  11.674   0.788 -0.1152 -0.2715  0.2017
 7402SOL    HW127144   6.186  11.601   0.727  0.8577  1.2990 -1.6772
 7402SOL    HW227145   6.085  11.691   0.795 -0.2273  0.2511 -1.8616
 7403SOL     OW27146   5.779   8.307   8.178 -0.3841 -0.0709  0.0553
 7403SOL    HW127147   5.860   8.337   8.220  0.2840 -0.0147 -1.2278
 7403SOL    HW227148   5.741   8.386   8.140 -0.6025 -0.2423 -0.0831
 7404SOL     OW27149   7.410   9.499   8.817 -0.4072  0.3866  0.2058
 7404SOL    HW127150   7.487   9.530   8.770  0.3775 -1.7817 -0.0419
 7404SOL    HW227151   7.445   9.452   8.893 -1.4718 -0.5645  0.1376
 7405SOL     OW27152   1.238   0.253   6.231 -0.6064 -0.9870  0.3648
 7405SOL    HW127153   1.161   0.304   6.206  0.8160  1.2772  0.3832
 7405SOL    HW227154   1.216   0.217   6.317 -1.7594 -0.6688  0.2176
 7406SOL     OW27155   6.987   6.921  11.447 -0.0056 -0.2963  0.4834
 7406SOL    HW127156   7.036   6.840  11.459  1.2118  0.2437 -0.6265
 7406SOL    HW227157   7.000   6.970  11.528  0.5435 -0.5424  0.5463
 7407SOL     OW27158   9.689   9.232   5.319  0.3182  0.1841 -0.2907
 7407SOL    HW127159   9.771   9.237   5.368  0.7030 -1.1665 -0.7531
 7407SOL    HW227160   9.652   9.320   5.325  1.2636  0.5298  0.8397
 7408SOL     OW27161   2.984   5.447   0.384 -0.2237 -0.0640 -0.3276
 7408SOL    HW127162   2.932   5.391   0.326 -0.4195  0.5417 -0.7426
 7408SOL    HW227163   3.067   5.400   0.395 -1.3966 -1.8595  1.6626
 7409SOL     OW27164   1.536   9.945   2.763  0.3755 -0.1214 -0.1211
 7409SOL    HW127165   1.517   9.984   2.848  0.0223 -1.9972  0.7232
 7409SOL    HW227166   1.630   9.929   2.766  0.1075 -1.7889  0.6991
 7410SOL     OW27167   9.048  11.398   8.167 -0.0711  0.1737  0.0672
 7410SOL    HW127168   9.034  11.307   8.195  0.7673  0.4842  1.6013
 7410SOL    HW227169   9.143  11.404   8.154 -0.1914  0.6846 -0.5953
 7411SOL     OW27170   8.049   9.454   0.891  0.3247 -0.5066  0.4840
 7411SOL    HW127171   8.074   9.546   0.883 -0.8183 -0.2527 -0.4092
 7411SOL    HW227172   8.118   9.415   0.946  0.5899  0.9641  1.2394
 7412SOL     OW27173   6.104   8.060   5.227  0.1150  0.1859 -0.4763
 7412SOL    HW127174   6.200   8.059   5.219  0.3799  1.9187  1.5777
 7412SOL    HW227175   6.075   8.102   5.145  1.3635  2.1296 -0.0126
 7413SOL     OW27176   8.047   0.568   9.831  0.1519  0.4524  0.1912
 7413SOL    HW127177   8.099   0.506   9.882 -0.7699  0.8914  1.7083
 7413SOL    HW227178   8.006   0.624   9.896 -1.7684  0.4869 -0.9891
 7414SOL     OW27179   8.343   4.666  11.176  0.1544  0.7716  0.2418
 7414SOL    HW127180   8.315   4.757  11.183  0.5430  0.9656 -0.5682
 7414SOL    HW227181   8.300   4.633  11.097 -0.5400  0.0311  0.9021
 7415SOL     OW27182   9.687  10.849   0.283  0.1340 -0.0500  0.8849
 7415SOL    HW127183   9.698  10.860   0.377  1.8620  1.7457  0.5306
 7415SOL    HW227184   9.731  10.767   0.263 -0.2038 -0.4175  1.6030
 7416SOL     OW27185   4.218   3.829  10.628  0.0477  0.4217  0.1396
 7416SOL    HW127186   4.209   3.818  10.723  0.9043  0.3244  0.2190
 7416SOL    HW227187   4.194   3.920  10.612 -4.5458 -0.5853 -0.1776
 7417SOL     OW27188   1.688   8.915   2.703 -0.3099 -0.0582 -0.5405
 7417SOL    HW127189   1.625   8.866   2.649 -0.2944 -1.0984  0.3359
 7417SOL    HW227190   1.773   8.878   2.680 -0.2816 -0.3582  0.0030
 7418SOL     OW27191   8.943   2.124   2.009 -0.1067  0.2194  0.3222
 7418SOL    HW127192   8.970   2.042   1.966  0.5263  0.4004  0.3569
 7418SOL    HW227193   8.952   2.106   2.103  0.5227  0.4846  0.3169
 7419SOL     OW27194   3.100   2.090   3.515 -0.4860  0.5697  0.0885
 7419SOL    HW127195   3.148   2.009   3.502  0.2851  1.1106 -0.5372
 7419SOL    HW227196   3.059   2.107   3.430 -1.7366  0.1659  0.5799
 7420SOL     OW27197   0.260   8.277   3.780 -0.1505  0.1647 -0.3298
 7420SOL    HW127198   0.348   8.265   3.745 -0.4859 -1.6160 -0.6846
 7420SOL    HW227199   0.208   8.207   3.738 -0.8705 -1.2954  2.7360
 7421SOL     OW27200   6.121   6.665  10.213 -0.7714  0.1802  0.0042
 7421SOL    HW127201   6.168   6.660  10.297 -0.0503  1.1089 -0.3132
 7421SOL    HW227202   6.074   6.583  10.206  1.3927 -1.1339  0.0194
 7422SOL     OW27203  10.609   9.935   8.184 -0.4184 -0.5563 -0.2599
 7422SOL    HW127204  10.613   9.839   8.187  0.9114 -0.5033  1.1122
 7422SOL    HW227205  10.677   9.960   8.122 -0.8933 -0.4888 -0.7622
 7423SOL     OW27206  10.918   7.658   4.182  0.2078  0.1621 -0.0146
 7423SOL    HW127207  10.868   7.690   4.108 -0.7834 -4.6238 -1.7773
 7423SOL    HW227208  11.003   7.634   4.145  0.3795 -0.5276  0.7901
 7424SOL     OW27209   9.569  10.590  11.201 -0.4280 -0.3836  0.0452
 7424SOL    HW127210   9.479  10.567  11.225 -0.9393  0.1042 -1.2968
 7424SOL    HW227211   9.595  10.523  11.138 -0.4564  0.3884 -0.8077
 7425SOL     OW27212   5.155   6.312  10.751 -0.4923 -0.0715 -0.2405
 7425SOL    HW127213   5.188   6.273  10.670  0.8844 -1.9001  1.1159
 7425SOL    HW227214   5.094   6.380  10.721 -2.2970 -2.5530 -2.8256
 7426SOL     OW27215   2.041   9.742   7.417  0.0077 -0.6015  0.0988
 7426SOL    HW127216   2.102   9.815   7.401  0.5317 -1.4933 -2.3651
 7426SOL    HW227217   2.084   9.666   7.378 -2.6917 -1.2604 -1.8641
 7427SOL     OW27218   3.682   2.710   8.699  0.0485 -0.0376 -0.2990
 7427SOL    HW127219   3.725   2.737   8.618  2.1405 -2.4130 -0.0987
 7427SOL    HW227220   3.753   2.694   8.761 -1.4204  0.4363  1.6443
 7428SOL     OW27221   3.430   9.584   7.267  0.3771  0.0043  0.5688
 7428SOL    HW127222   3.410   9.607   7.357  0.2062  1.6114  0.1473
 7428SOL    HW227223   3.502   9.521   7.273 -0.0174 -0.3452  1.8255
 7429SOL     OW27224   5.035   7.542   3.799 -0.1355 -0.4558  0.7995
 7429SOL    HW127225   4.992   7.466   3.760  0.5403 -0.1695 -0.5580
 7429SOL    HW227226   5.064   7.595   3.725  1.8038 -0.2207  1.6431
 7430SOL     OW27227   2.255   7.891   3.224  0.6317 -0.0916 -0.5062
 7430SOL    HW127228   2.291   7.906   3.311  1.8869 -2.5514 -0.5144
 7430SOL    HW227229   2.187   7.826   3.237 -0.6425  1.0803 -1.1256
 7431SOL     OW27230   0.318   0.517   4.774  0.1666  0.2329  0.1084
 7431SOL    HW127231   0.361   0.444   4.730  0.2949  1.1169 -1.2897
 7431SOL    HW227232   0.302   0.581   4.705  0.2940  1.6549  1.3450
 7432SOL     OW27233   3.283   7.881   7.595 -0.1706  0.8200 -0.4320
 7432SOL    HW127234   3.268   7.826   7.672  0.0463  2.3801  0.7848
 7432SOL    HW227235   3.375   7.906   7.601 -0.1289  0.8961 -1.2623
 7433SOL     OW27236   8.492   8.063   4.412 -0.3272 -0.4317 -0.3293
 7433SOL    HW127237   8.525   8.078   4.500  2.7040 -1.2349 -1.2072
 7433SOL    HW227238   8.498   8.149   4.369  0.3956 -0.5090 -0.3934
 7434SOL     OW27239   8.347   3.966   8.611 -0.0327 -0.0965 -0.3340
 7434SOL    HW127240   8.312   3.941   8.525  0.3731  0.5307 -0.6981
 7434SOL    HW227241   8.270   3.974   8.667 -0.5252  1.3295 -1.1362
 7435SOL     OW27242   3.139   0.692   0.079 -0.3720 -0.0799 -0.1365
 7435SOL    HW127243   3.098   0.606   0.080  0.9178 -0.7301  1.2575
 7435SOL    HW227244   3.183   0.698   0.164 -0.8105  2.1487 -0.0145
 7436SOL     OW27245  10.680   0.795   3.801 -0.8422  0.1512  0.0769
 7436SOL    HW127246  10.653   0.823   3.714 -2.0779 -1.1765  0.0019
 7436SOL    HW227247  10.762   0.843   3.817  0.1587 -0.5720 -2.3708
 7437SOL     OW27248   7.845  11.085   2.219 -0.1533  1.1957 -0.6864
 7437SOL    HW127249   7.873  11.167   2.259 -0.1624  0.5556  0.6748
 7437SOL    HW227250   7.764  11.107   2.173 -0.9055  1.6755  0.7997
 7438SOL     OW27251  11.564   8.210   1.753  0.1684 -0.1098 -0.0538
 7438SOL    HW127252  11.468   8.203   1.748 -0.0326  1.6387  0.6739
 7438SOL    HW227253  11.596   8.142   1.694 -1.4711 -2.0819  1.1918
 7439SOL     OW27254   7.792   1.062  10.556  0.1116 -0.1101  0.1524
 7439SOL    HW127255   7.761   1.115  10.630 -1.6549 -1.3096  0.3546
 7439SOL    HW227256   7.887   1.072  10.557  0.1301  0.0466  2.5064
 7440SOL     OW27257   3.737  11.368   8.838  0.6503 -0.0038 -0.1112
 7440SOL    HW127258   3.803  11.438   8.841  0.4464  0.2573 -1.1267
 7440SOL    HW227259   3.700  11.375   8.750 -0.2850 -0.5617  0.2242
 7441SOL     OW27260   0.382   0.507   8.710  0.0689  0.0065 -0.5166
 7441SOL    HW127261   0.395   0.422   8.667 -1.9938 -1.6533  1.8295
 7441SOL    HW227262   0.318   0.552   8.656  2.0052  0.6543 -2.4040
 7442SOL     OW27263   7.920   6.269   4.863 -0.6990  0.0428 -0.4654
 7442SOL    HW127264   7.903   6.361   4.843 -1.6369  0.0892  0.4407
 7442SOL    HW227265   7.859   6.221   4.806 -0.2114 -0.0262 -0.9361
 7443SOL     OW27266   0.049   7.324   7.662 -0.0414 -0.4920  0.2235
 7443SOL    HW127267   0.036   7.229   7.668 -1.3716 -0.2655  1.7058
 7443SOL    HW227268  -0.039   7.360   7.670  0.3361  0.8690 -1.2517
 7444SOL     OW27269  11.644   3.242   6.683 -0.6434  1.0135  0.0122
 7444SOL    HW127270  11.716   3.179   6.693 -2.1880 -0.9094 -0.4329
 7444SOL    HW227271  11.621   3.266   6.773 -0.5516  0.3102  0.2291
 7445SOL     OW27272   0.948   6.378   0.948  0.1859  0.2462  0.2407
 7445SOL    HW127273   1.016   6.419   0.895  1.5141 -0.3352  1.4165
 7445SOL    HW227274   0.883   6.346   0.885  0.5837  1.5415 -0.8580
 7446SOL     OW27275  10.972   9.989   6.022  0.0146 -0.3239 -0.5613
 7446SOL    HW127276  10.921  10.001   6.102 -1.5953 -1.6992 -1.3066
 7446SOL    HW227277  11.063   9.998   6.049 -0.5567  1.0808  1.0494
 7447SOL     OW27278   9.853   6.878   3.013  0.5633  0.1004 -0.3847
 7447SOL    HW127279   9.945   6.902   3.015  1.6799 -3.5128  0.1423
 7447SOL    HW227280   9.816   6.914   3.093  0.9870  3.0178 -1.3985
 7448SOL     OW27281   1.400   6.048  11.616 -0.7985  0.7940 -0.1552
 7448SOL    HW127282   1.462   5.979  11.638  0.0006  1.5169 -0.0718
 7448SOL    HW227283   1.314   6.005  11.615 -0.3938 -0.0418  0.5601
 7449SOL     OW27284   7.404   2.656   9.376 -0.1772 -0.4461 -0.3745
 7449SOL    HW127285   7.346   2.580   9.370  0.2964 -0.7031 -2.8020
 7449SOL    HW227286   7.421   2.681   9.285  2.8162  0.1487  0.2198
 7450SOL     OW27287   1.682   5.906   6.410  0.3969  0.4212  0.0927
 7450SOL    HW127288   1.682   5.895   6.315  1.3284 -1.0391  0.2322
 7450SOL    HW227289   1.625   5.836   6.442  1.0521  0.1387  0.6671
 7451SOL     OW27290   6.144  10.499  11.028  0.3401  0.2901 -0.5714
 7451SOL    HW127291   6.116  10.484  11.118  1.2807 -0.6166 -0.4183
 7451SOL    HW227292   6.099  10.580  11.002  0.9555  1.2022  1.0885
 7452SOL     OW27293   7.294   2.558   6.254 -0.9799  0.3194 -0.1408
 7452SOL    HW127294   7.288   2.577   6.161 -0.8057  0.0599 -0.2081
 7452SOL    HW227295   7.388   2.547   6.270 -0.9080  1.5021  0.3011
 7453SOL     OW27296   0.227   3.611   7.932  0.4411 -0.4628 -0.1186
 7453SOL    HW127297   0.151   3.654   7.971  0.5757  0.6556 -1.0537
 7453SOL    HW227298   0.199   3.520   7.919  0.3158 -0.8410  2.3124
 7454SOL     OW27299   3.768   4.608   7.676  0.0656  0.2390 -0.1107
 7454SOL    HW127300   3.770   4.644   7.587  0.5683  3.1315  0.9821
 7454SOL    HW227301   3.704   4.661   7.723  1.0661 -0.0628  1.6961
 7455SOL     OW27302   9.760   7.665  11.536 -0.2132  0.1525 -0.2494
 7455SOL    HW127303   9.771   7.696  11.626 -0.2007 -2.0599  0.5796
 7455SOL    HW227304   9.751   7.570  11.545  4.5312 -0.8367 -2.9300
 7456SOL     OW27305  11.508   9.012   1.235 -0.5138 -0.0884 -0.4346
 7456SOL    HW127306  11.576   9.077   1.252 -0.2716 -0.4898  0.1578
 7456SOL    HW227307  11.465   9.043   1.155 -0.8187  1.1443  0.1746
 7457SOL     OW27308   4.595   0.903   5.375  0.9173 -0.4298 -0.0054
 7457SOL    HW127309   4.578   0.967   5.306  2.7337 -1.4305 -1.4648
 7457SOL    HW227310   4.558   0.821   5.341  1.8731 -0.9406  0.1640
 7458SOL     OW27311   0.145   5.492   4.519 -0.1248  0.2637  0.0734
 7458SOL    HW127312   0.239   5.487   4.499 -0.0121 -4.2455  0.6992
 7458SOL    HW227313   0.137   5.457   4.607 -2.4364  0.0236 -0.1712
 7459SOL     OW27314  10.222   2.806   4.433 -0.0790 -0.0657  0.5384
 7459SOL    HW127315  10.296   2.774   4.485  0.2103 -0.4097 -0.0716
 7459SOL    HW227316  10.214   2.898   4.457  1.1235  0.2101 -0.0476
 7460SOL     OW27317   4.930   3.325   5.110 -0.4106 -0.2181  0.0983
 7460SOL    HW127318   4.987   3.397   5.082  0.6620 -0.7466  0.8570
 7460SOL    HW227319   4.983   3.246   5.099 -1.4192 -0.8611 -0.3079
 7461SOL     OW27320   5.004   6.067   0.233  0.1321 -0.3878 -0.0992
 7461SOL    HW127321   5.026   5.998   0.170  0.1142 -0.9743  0.5188
 7461SOL    HW227322   4.992   6.020   0.316 -1.2400  0.1836  0.0529
 7462SOL     OW27323   8.436  10.328   6.047 -0.2118  1.6926  0.5553
 7462SOL    HW127324   8.525  10.303   6.072 -0.7934  0.0606  1.1871
 7462SOL    HW227325   8.389  10.334   6.131 -0.8313  1.9040  0.1997
 7463SOL     OW27326   0.324   5.039   1.374  0.7948  0.8121  0.6694
 7463SOL    HW127327   0.309   4.973   1.305 -2.2640 -0.7600  2.5838
 7463SOL    HW227328   0.386   5.100   1.335  0.5277 -0.8628 -2.8582
 7464SOL     OW27329   1.872   8.686   5.714  0.4693  0.0188 -0.6122
 7464SOL    HW127330   1.906   8.635   5.641  0.1291 -1.9837  0.5719
 7464SOL    HW227331   1.827   8.760   5.673  0.3639 -0.9925 -2.4196
 7465SOL     OW27332   4.695   5.990   6.778  0.0146 -0.6579 -0.6881
 7465SOL    HW127333   4.690   6.073   6.730 -0.1498  1.3398  2.5142
 7465SOL    HW227334   4.787   5.963   6.769  0.6806  1.1687  0.1128
 7466SOL     OW27335   3.284   4.262   6.674  0.0717 -0.5095  0.7767
 7466SOL    HW127336   3.316   4.315   6.601 -2.0006  0.3615  0.4352
 7466SOL    HW227337   3.237   4.190   6.632 -0.3299 -0.5267  1.2569
 7467SOL     OW27338   6.299   0.243  11.588  0.3132  0.2691  0.5219
 7467SOL    HW127339   6.349   0.169  11.623 -1.2221  0.1822  2.7724
 7467SOL    HW227340   6.299   0.307  11.660 -2.3685  0.4269  0.4867
 7468SOL     OW27341   4.732   1.689   3.673  0.2516  0.0187 -0.5220
 7468SOL    HW127342   4.772   1.773   3.695  1.4813 -0.4998 -0.7381
 7468SOL    HW227343   4.652   1.713   3.625 -1.5111  1.1503  2.6852
 7469SOL     OW27344  11.089   3.610  10.969  0.0186 -0.1349 -0.2088
 7469SOL    HW127345  11.160   3.600  10.906  0.5832 -0.0072  0.3934
 7469SOL    HW227346  11.118   3.681  11.027 -0.0695 -0.8495  0.7417
 7470SOL     OW27347   8.780   0.037   4.863  0.7005  0.0842 -0.1431
 7470SOL    HW127348   8.851   0.068   4.920  1.1079 -2.4275  0.8802
 7470SOL    HW227349   8.811  -0.048   4.831 -0.6628  0.2332 -2.0259
 7471SOL     OW27350   0.468   0.739   0.454  0.2699 -1.1316  0.3445
 7471SOL    HW127351   0.549   0.780   0.424  0.0364  0.2683  1.4784
 7471SOL    HW227352   0.455   0.664   0.396  2.3541 -1.3792  0.1292
 7472SOL     OW27353  10.235   7.567   3.190 -0.0864  0.2233 -0.0611
 7472SOL    HW127354  10.271   7.644   3.233 -0.0781 -0.0630  0.4514
 7472SOL    HW227355  10.210   7.508   3.262 -0.2496 -0.1786 -0.4396
 7473SOL     OW27356   4.940   3.876   2.092  0.1461  0.0385 -0.5852
 7473SOL    HW127357   4.872   3.826   2.048 -0.9910 -0.5461  1.6834
 7473SOL    HW227358   5.019   3.822   2.082 -0.2300 -0.4027 -1.2742
 7474SOL     OW27359   7.735   4.443   9.824  0.4878 -0.2228 -0.0344
 7474SOL    HW127360   7.803   4.506   9.802  0.5018 -0.4711 -0.7205
 7474SOL    HW227361   7.717   4.397   9.742  1.9108 -2.4975  0.8168
 7475SOL     OW27362   4.102  10.402   1.726 -0.5717  0.2276 -0.2873
 7475SOL    HW127363   4.126  10.310   1.724 -1.5031 -0.0162 -0.9159
 7475SOL    HW227364   4.021  10.406   1.776  0.8035  1.0737  2.0155
 7476SOL     OW27365   6.390   8.740   3.980  0.2581  0.1108 -0.0545
 7476SOL    HW127366   6.449   8.690   4.037  0.8729  0.2754 -0.5276
 7476SOL    HW227367   6.413   8.710   3.891  0.2272  0.8110 -0.3003
 7477SOL     OW27368   2.769   0.853  11.140 -0.2991 -0.1836  0.0372
 7477SOL    HW127369   2.704   0.923  11.136  0.4712  0.5889  0.6574
 7477SOL    HW227370   2.834   0.884  11.202  0.4274 -1.1438 -0.2188
 7478SOL     OW27371   6.040   0.628   6.621 -0.4072  0.0417 -0.0324
 7478SOL    HW127372   6.091   0.579   6.685 -1.2939  0.0538  0.6999
 7478SOL    HW227373   6.104   0.686   6.579  0.2255 -0.1176  0.6833
 7479SOL     OW27374   8.838   9.102   8.375 -0.3625  0.1883  0.0626
 7479SOL    HW127375   8.824   9.107   8.280 -0.2980  2.5859  0.1232
 7479SOL    HW227376   8.773   9.038   8.405 -1.7506  0.8576 -1.3560
 7480SOL     OW27377   3.039   7.235   3.113  0.0505  0.1796 -0.0457
 7480SOL    HW127378   3.059   7.166   3.050 -0.5707  0.4287 -0.5318
 7480SOL    HW227379   2.967   7.199   3.165  1.8844 -0.8633  1.9337
 7481SOL     OW27380   9.103   5.837   1.267  0.5134 -0.4211  0.1146
 7481SOL    HW127381   9.090   5.853   1.360 -1.1905 -1.2969  0.0725
 7481SOL    HW227382   9.126   5.923   1.231  2.8282 -0.3681  1.5361
 7482SOL     OW27383   8.347   5.411   4.298  0.0732  0.2321 -0.2426
 7482SOL    HW127384   8.357   5.341   4.234 -1.2925 -1.1976  0.9953
 7482SOL    HW227385   8.279   5.468   4.262  1.1396  0.9469 -1.2204
 7483SOL     OW27386   7.539   5.415   0.943  0.1085  0.0134 -0.8065
 7483SOL    HW127387   7.543   5.509   0.955  0.8717  0.2891 -2.7659
 7483SOL    HW227388   7.621   5.382   0.979  0.5386  0.2984 -1.5188
 7484SOL     OW27389  10.516  10.186   7.973  0.0356  0.2748 -0.0342
 7484SOL    HW127390  10.607  10.200   7.999  0.1798 -1.5913  0.6424
 7484SOL    HW227391  10.521  10.135   7.893 -0.4047  0.0317  0.0856
 7485SOL     OW27392   2.492   7.490   2.338 -0.6054  0.4325 -0.0156
 7485SOL    HW127393   2.414   7.525   2.296 -0.2950 -0.4546 -1.4069
 7485SOL    HW227394   2.467   7.477   2.430 -1.2555  2.5630  0.1428
 7486SOL     OW27395   6.526  10.492   7.253  0.7661  0.0966  0.2816
 7486SOL    HW127396   6.507  10.582   7.280 -1.1876 -0.3749  0.6591
 7486SOL    HW227397   6.483  10.438   7.319  1.9224 -1.1360  0.0609
 7487SOL     OW27398   2.496   0.832   2.437  0.5934 -0.3977  0.4200
 7487SOL    HW127399   2.525   0.890   2.507  1.9631  1.7717 -1.7918
 7487SOL    HW227400   2.419   0.875   2.399 -0.1218 -1.5302  0.5374
 7488SOL     OW27401   8.256   7.603  10.817  0.1231  0.1988  0.6234
 7488SOL    HW127402   8.201   7.678  10.839 -1.5733 -0.4632 -1.0717
 7488SOL    HW227403   8.210   7.528  10.854 -0.7180 -0.4835 -1.6784
 7489SOL     OW27404   1.619  11.578   1.040 -0.4017  0.5752 -0.1242
 7489SOL    HW127405   1.695  11.635   1.026  0.6402 -0.3849  1.3314
 7489SOL    HW227406   1.602  11.583   1.134 -0.4191 -1.2881  0.0125
 7490SOL     OW27407   7.813   5.010   0.441 -0.3936  0.2516 -0.3069
 7490SOL    HW127408   7.786   4.929   0.397  0.0545  0.6562 -1.3818
 7490SOL    HW227409   7.872   5.052   0.378 -0.4141  1.2874  0.3464
 7491SOL     OW27410   5.097   3.250   9.801 -0.4162 -0.1476 -0.3455
 7491SOL    HW127411   5.034   3.212   9.863 -0.3944  0.5888  0.1400
 7491SOL    HW227412   5.182   3.236   9.842 -0.4498  0.8726  0.0836
 7492SOL     OW27413   0.831   2.331   4.133 -0.4230 -0.1460 -0.4204
 7492SOL    HW127414   0.821   2.287   4.049 -1.7737  0.6241 -0.6824
 7492SOL    HW227415   0.872   2.264   4.190 -1.0547 -1.2370 -1.2107
 7493SOL     OW27416   0.734   1.229   4.083  0.1776 -0.4167 -0.5244
 7493SOL    HW127417   0.746   1.176   4.005  0.4582  0.2154 -0.9183
 7493SOL    HW227418   0.743   1.167   4.156  0.4177 -0.9173 -0.9747
 7494SOL     OW27419   9.728   6.805  11.563  0.1170  0.6625 -0.4044
 7494SOL    HW127420   9.678   6.860  11.622  0.6388 -0.6719  1.3779
 7494SOL    HW227421   9.818   6.839  11.568 -0.1328  1.5751 -1.7530
 7495SOL     OW27422   4.609   2.474   6.051  0.3552  0.8697  0.2049
 7495SOL    HW127423   4.668   2.410   6.092 -0.4904 -0.0856 -0.0150
 7495SOL    HW227424   4.567   2.425   5.980  0.2284  1.8989 -0.4541
 7496SOL     OW27425   6.995  11.455  10.494  0.0921  0.2381 -0.1499
 7496SOL    HW127426   6.961  11.464  10.583  2.8964  1.6222  0.9036
 7496SOL    HW227427   7.066  11.391  10.503 -0.5775 -0.8011 -1.7778
 7497SOL     OW27428   1.658   8.641   1.862 -0.3807 -0.3568  0.2541
 7497SOL    HW127429   1.571   8.619   1.830 -1.3499  1.8340  1.2399
 7497SOL    HW227430   1.672   8.732   1.835  1.4654 -0.5327  0.4429
 7498SOL     OW27431   9.889   2.287   3.376 -0.8202 -1.3121 -0.5971
 7498SOL    HW127432   9.892   2.350   3.304 -2.5045 -0.4714  0.0010
 7498SOL    HW227433   9.979   2.281   3.407 -0.5341  0.5255 -0.9267
 7499SOL     OW27434   0.075   7.734   8.477 -0.0136 -0.1382 -0.1878
 7499SOL    HW127435   0.002   7.792   8.455 -0.5875 -1.1734 -1.1521
 7499SOL    HW227436   0.144   7.759   8.417  0.4142  0.7871  0.6691
 7500SOL     OW27437   4.457   1.348   2.960  0.3756  0.8941  0.8647
 7500SOL    HW127438   4.494   1.340   3.048  0.0613  1.4721  1.0501
 7500SOL    HW227439   4.426   1.260   2.939 -0.2827  0.9306  1.6567
 7501SOL     OW27440   5.452   7.315  10.067 -0.0797 -0.0411 -0.1012
 7501SOL    HW127441   5.485   7.246  10.010  0.3247 -1.1086  1.3785
 7501SOL    HW227442   5.461   7.280  10.156  1.4921  2.4508  0.8355
 7502SOL     OW27443   9.695   4.393  11.127 -0.4198 -0.4058  0.4361
 7502SOL    HW127444   9.613   4.426  11.162 -0.8110 -1.0163  0.1162
 7502SOL    HW227445   9.698   4.301  11.155 -0.9145 -1.0149 -1.3899
 7503SOL     OW27446   2.134   5.331   2.707 -0.0032 -0.0946  0.2909
 7503SOL    HW127447   2.170   5.277   2.637 -0.4339 -3.3549  2.3705
 7503SOL    HW227448   2.047   5.358   2.676  0.8870  0.8962 -1.4507
 7504SOL     OW27449   5.270   9.759   1.150  0.0771 -0.0687  0.4748
 7504SOL    HW127450   5.307   9.800   1.228 -2.0959  3.0027  0.0806
 7504SOL    HW227451   5.326   9.683   1.134  2.9541  1.3538  2.7671
 7505SOL     OW27452   0.792  11.166   5.372  0.6146 -0.4692  0.1282
 7505SOL    HW127453   0.716  11.193   5.423  0.8124  0.4585 -0.0577
 7505SOL    HW227454   0.755  11.139   5.287  0.5912  1.2294 -0.4348
 7506SOL     OW27455   0.784   3.993   8.397  0.8289 -0.4209  0.1329
 7506SOL    HW127456   0.728   3.918   8.416  1.7770 -1.2383 -0.2278
 7506SOL    HW227457   0.727   4.069   8.411 -1.1649 -1.2320 -2.6339
 7507SOL     OW27458  11.600   4.017   6.733 -0.0512 -0.1562  0.4107
 7507SOL    HW127459  11.596   4.016   6.638 -1.4260  1.1889  0.4059
 7507SOL    HW227460  11.678   4.069   6.754 -0.0703  0.0318  0.0130
 7508SOL     OW27461   7.462   8.278  11.015  0.6897  0.2535  0.2248
 7508SOL    HW127462   7.555   8.274  11.035  1.3614 -0.7782 -2.6232
 7508SOL    HW227463   7.444   8.197  10.966 -1.7359  0.3798  0.7614
 7509SOL     OW27464   8.950   9.360   9.749  0.3772  0.2248 -0.5298
 7509SOL    HW127465   8.875   9.337   9.803  1.5431 -0.4016  0.9043
 7509SOL    HW227466   9.004   9.415   9.804  1.0789  0.5010 -1.4584
 7510SOL     OW27467   8.281   5.418   3.018 -0.0478  0.1955 -0.6372
 7510SOL    HW127468   8.228   5.339   3.024  0.5871 -0.1418  0.8844
 7510SOL    HW227469   8.355   5.403   3.076  1.0011  1.2315 -1.6252
 7511SOL     OW27470   4.631  10.714   6.858  0.3661 -0.0358 -0.4621
 7511SOL    HW127471   4.692  10.678   6.794  1.1994 -0.2545  0.4482
 7511SOL    HW227472   4.678  10.787   6.898  0.2064 -0.4928  0.5742
 7512SOL     OW27473   1.144  10.132   5.742 -0.7570 -0.4466  0.0508
 7512SOL    HW127474   1.217  10.071   5.746 -0.8451 -0.6122 -0.6598
 7512SOL    HW227475   1.066  10.076   5.741 -0.8055 -0.4115 -1.8252
 7513SOL     OW27476   0.050   4.728   0.827  0.2796  0.5770  0.7699
 7513SOL    HW127477   0.136   4.763   0.804  0.2396  0.8495  1.0329
 7513SOL    HW227478   0.005   4.800   0.870  0.0769  0.3019  1.0262
 7514SOL     OW27479   5.591   6.078   8.979  0.5409 -0.0267  0.0530
 7514SOL    HW127480   5.504   6.045   9.002  0.9719 -2.1385 -1.0462
 7514SOL    HW227481   5.575   6.162   8.938 -1.0161 -0.4340 -0.2398
 7515SOL     OW27482   4.600  10.322   0.508  0.2306 -0.3086  0.0189
 7515SOL    HW127483   4.537  10.377   0.554 -0.3647 -0.4678 -0.5850
 7515SOL    HW227484   4.556  10.299   0.426  0.2339 -2.1014  0.4704
 7516SOL     OW27485   7.775   4.758   0.843  0.1805  0.3896 -0.2738
 7516SOL    HW127486   7.801   4.726   0.930  0.6919 -0.1155 -0.6070
 7516SOL    HW227487   7.796   4.852   0.845  0.1815  0.3813  0.1495
 7517SOL     OW27488   8.545   9.137   8.948 -0.3164 -0.1752 -0.3934
 7517SOL    HW127489   8.490   9.175   9.017  0.3631  1.9281 -0.9612
 7517SOL    HW227490   8.616   9.094   8.995 -0.3120  0.5219  0.2545
 7518SOL     OW27491   4.253   9.520   8.683 -0.1175  0.1668 -0.0634
 7518SOL    HW127492   4.290   9.469   8.610 -1.1979 -0.3102 -0.3023
 7518SOL    HW227493   4.170   9.552   8.649 -1.4870 -1.5303  1.5354
 7519SOL     OW27494   7.216   4.882  10.763  0.2126 -0.3609  0.0745
 7519SOL    HW127495   7.296   4.831  10.757  0.8224  0.6651 -0.6903
 7519SOL    HW227496   7.228   4.937  10.841  0.4003  0.0354 -0.2321
 7520SOL     OW27497   4.553   2.964   3.501  0.0864  0.5627  0.0669
 7520SOL    HW127498   4.632   3.014   3.485  1.0973 -0.6474  1.0436
 7520SOL    HW227499   4.492   3.026   3.539 -0.0723  1.9107 -2.2036
 7521SOL     OW27500   0.237   5.873   7.816 -0.0617 -0.1187 -0.1515
 7521SOL    HW127501   0.297   5.864   7.743 -0.2625 -0.8183 -0.2296
 7521SOL    HW227502   0.251   5.963   7.847 -0.4120  0.3901 -1.4225
 7522SOL     OW27503   3.343   9.301   2.776 -0.6786  0.4091 -0.2535
 7522SOL    HW127504   3.305   9.258   2.700  0.6912 -1.9283  0.3063
 7522SOL    HW227505   3.379   9.230   2.829 -0.6626  2.0548  2.0732
 7523SOL     OW27506  11.376   6.877   2.705  0.6027 -0.3183  0.8872
 7523SOL    HW127507  11.465   6.845   2.718  0.1917 -1.8112  0.1930
 7523SOL    HW227508  11.358   6.929   2.784  1.8928 -0.4123  1.2707
 7524SOL     OW27509   0.589   7.816   5.807  0.0400  0.3971 -0.9309
 7524SOL    HW127510   0.638   7.746   5.850  0.1761  0.6866 -0.6169
 7524SOL    HW227511   0.648   7.847   5.738  0.9266  1.7414  0.3699
 7525SOL     OW27512   8.458   3.851   3.454  0.5165 -0.5278  0.1841
 7525SOL    HW127513   8.502   3.868   3.370  1.0502  0.5574  0.6578
 7525SOL    HW227514   8.366   3.841   3.431  0.8987 -2.1889 -0.7520
 7526SOL     OW27515   8.882   2.231   5.915 -0.1073  0.1173  1.0515
 7526SOL    HW127516   8.797   2.191   5.897 -0.3641  0.7277  0.8986
 7526SOL    HW227517   8.898   2.289   5.841  0.6221 -0.2751  0.8886
 7527SOL     OW27518   5.034   2.808  11.296 -0.7839  0.1517  0.0025
 7527SOL    HW127519   5.005   2.794  11.386  0.6808 -2.9744  0.1303
 7527SOL    HW227520   4.955   2.798  11.243 -1.7173  2.3113  0.8635
 7528SOL     OW27521   7.467  10.536  10.901  0.0158 -0.3967 -0.1097
 7528SOL    HW127522   7.439  10.583  10.981  1.9050  1.4406 -0.4423
 7528SOL    HW227523   7.408  10.570  10.833 -1.8743 -2.2696  0.4770
 7529SOL     OW27524   2.026   1.292   1.423 -0.5600  0.6735 -0.2062
 7529SOL    HW127525   1.979   1.337   1.352  0.0743  2.0137  0.1898
 7529SOL    HW227526   2.051   1.208   1.385  1.6741  2.1751 -2.4061
 7530SOL     OW27527  10.286   5.142   9.505  0.1299  0.2003  0.1897
 7530SOL    HW127528  10.363   5.114   9.455  0.6137  0.4151  0.7996
 7530SOL    HW227529  10.282   5.237   9.490  1.4918  0.6360  2.1475
 7531SOL     OW27530   5.466   5.884  10.792  0.1794  0.2943  0.3809
 7531SOL    HW127531   5.521   5.810  10.767  1.5888  1.5461 -0.4262
 7531SOL    HW227532   5.488   5.901  10.884 -0.8248 -0.8108  0.8517
 7532SOL     OW27533   9.123   0.289   4.765 -0.1078 -0.1793 -0.2949
 7532SOL    HW127534   9.163   0.375   4.752  1.3453 -0.5152  1.4020
 7532SOL    HW227535   9.141   0.241   4.684  0.9715  0.4480 -0.4551
 7533SOL     OW27536   0.084   5.972   0.296  0.0964  0.9362  0.1449
 7533SOL    HW127537   0.154   5.920   0.255  0.0337 -0.7342  1.9860
 7533SOL    HW227538   0.012   5.967   0.234  0.0900 -1.2948  0.2452
 7534SOL     OW27539   7.027   2.575   7.219  0.2444  0.9014 -0.0592
 7534SOL    HW127540   7.063   2.539   7.138 -0.1014  2.2720 -0.8498
 7534SOL    HW227541   6.934   2.552   7.216  0.5080 -0.4004  0.7384
 7535SOL     OW27542   6.536   8.422   3.253  0.3522 -0.2821  0.0111
 7535SOL    HW127543   6.548   8.327   3.252 -0.8350 -0.4545 -0.7062
 7535SOL    HW227544   6.441   8.434   3.255  0.4438  0.8736 -1.0438
 7536SOL     OW27545   7.484   5.926   7.972 -0.0814 -0.1206  0.1627
 7536SOL    HW127546   7.408   5.881   7.934  0.1619 -1.4703  1.2173
 7536SOL    HW227547   7.550   5.858   7.983  1.5400  1.1272 -1.2570
 7537SOL     OW27548   5.170   7.793   3.283  0.1216  0.4745 -0.2017
 7537SOL    HW127549   5.154   7.853   3.210 -0.6772 -0.2788 -0.6574
 7537SOL    HW227550   5.211   7.848   3.350  1.6353  1.0091 -1.4992
 7538SOL     OW27551   4.751   2.562   5.637 -0.0598 -0.0473 -0.1796
 7538SOL    HW127552   4.738   2.646   5.593 -2.6532  1.1072  2.3891
 7538SOL    HW227553   4.781   2.585   5.725  0.5464 -1.9010  0.1474
 7539SOL     OW27554   6.833   2.585   6.920  0.5196  0.0139 -0.5691
 7539SOL    HW127555   6.799   2.545   6.840 -1.1216 -1.6091  0.8251
 7539SOL    HW227556   6.901   2.525   6.949 -0.4136 -0.6354  0.3615
 7540SOL     OW27557   2.629   5.326   0.012 -0.7779  0.2771  0.1035
 7540SOL    HW127558   2.684   5.312  -0.064 -0.0173  2.9453  0.0457
 7540SOL    HW227559   2.571   5.399  -0.014 -2.6666 -0.8148  1.0227
 7541SOL     OW27560   8.558   2.685   7.540 -0.3837  0.3038  0.1232
 7541SOL    HW127561   8.609   2.710   7.464 -2.2317  0.0105 -1.2831
 7541SOL    HW227562   8.495   2.621   7.507 -2.0058  1.0318  1.6517
 7542SOL     OW27563   7.587   8.360   4.612 -0.7400  0.4850  0.3777
 7542SOL    HW127564   7.507   8.384   4.567 -0.6173 -0.4355 -0.3617
 7542SOL    HW227565   7.625   8.290   4.559  1.1838  1.7147  0.0158
 7543SOL     OW27566  10.862   9.980   9.909  0.0144 -0.2048 -0.3991
 7543SOL    HW127567  10.808   9.986   9.988 -1.8208 -0.6568 -1.5499
 7543SOL    HW227568  10.952   9.982   9.941 -0.6571  1.2262  1.5592
 7544SOL     OW27569   5.851   9.070   3.104 -0.2687  0.6312  0.1034
 7544SOL    HW127570   5.756   9.077   3.113 -0.4152  0.5360 -1.1812
 7544SOL    HW227571   5.877   9.150   3.059  0.2052  0.4833  0.1051
 7545SOL     OW27572  11.039   8.517  11.567  0.4218  0.1227  0.2678
 7545SOL    HW127573  11.075   8.557  11.489 -0.3647  0.1149 -0.1130
 7545SOL    HW227574  11.039   8.423  11.549  1.1441  0.0429  0.6714
 7546SOL     OW27575   3.947   1.695   0.519 -0.1516  0.0178  0.3044
 7546SOL    HW127576   3.943   1.775   0.466 -0.5487  2.1451  3.3123
 7546SOL    HW227577   3.874   1.643   0.488 -2.1314  2.4427  0.5557
 7547SOL     OW27578   6.972   6.720   2.923 -0.1431  0.0600 -0.7297
 7547SOL    HW127579   6.950   6.670   3.002  1.7715  0.5811  0.2094
 7547SOL    HW227580   6.997   6.653   2.859 -0.9355 -0.3322 -0.6450
 7548SOL     OW27581   6.600   5.347   0.260 -0.2131 -0.2446 -0.2848
 7548SOL    HW127582   6.695   5.350   0.248 -0.2300 -1.4760 -0.8322
 7548SOL    HW227583   6.588   5.320   0.351 -0.0014 -1.7597 -0.6758
 7549SOL     OW27584  10.916   3.609   8.794 -0.2914 -0.1643 -0.1495
 7549SOL    HW127585  10.872   3.593   8.878 -0.5598 -1.5801 -0.5382
 7549SOL    HW227586  10.855   3.665   8.745 -0.6988 -0.3648  0.1234
 7550SOL     OW27587  11.680  10.144   2.043  0.5437  0.4918 -0.0974
 7550SOL    HW127588  11.662  10.081   1.972 -0.5670  2.2818 -1.4983
 7550SOL    HW227589  11.611  10.128   2.107 -0.5791  1.1714 -1.1034
 7551SOL     OW27590   7.542   9.663   0.215  0.2690  0.4903  0.2055
 7551SOL    HW127591   7.562   9.744   0.262  0.2523 -0.5765  2.1904
 7551SOL    HW227592   7.623   9.642   0.168  0.4214  1.4231  0.0364
 7552SOL     OW27593   5.342   9.232   1.346 -0.2893 -0.1617  0.4117
 7552SOL    HW127594   5.405   9.187   1.289  0.0925 -0.4309  1.0385
 7552SOL    HW227595   5.277   9.165   1.367 -1.0501  0.2436 -0.6149
 7553SOL     OW27596   7.823   2.899  10.383  0.3055  0.5826  0.3398
 7553SOL    HW127597   7.815   2.914  10.477  0.5865  0.8780  0.3186
 7553SOL    HW227598   7.796   2.982  10.344  2.6855  1.3810  0.2398
 7554SOL     OW27599   4.452   8.201   4.344 -0.8299 -0.1689  0.5108
 7554SOL    HW127600   4.456   8.230   4.253  4.6547  1.5519  0.9002
 7554SOL    HW227601   4.402   8.269   4.389 -0.0901  1.2416 -0.7049
 7555SOL     OW27602   2.014   3.135   9.071  0.2182 -0.1862 -0.1337
 7555SOL    HW127603   2.088   3.141   9.131  0.2217 -1.0335 -0.0452
 7555SOL    HW227604   1.938   3.128   9.129  0.2260 -1.0625 -0.2286
 7556SOL     OW27605  10.656   4.908   5.485 -0.7267 -0.6412  0.4228
 7556SOL    HW127606  10.649   4.972   5.555  0.6299  0.6780 -0.5879
 7556SOL    HW227607  10.750   4.901   5.468 -0.9803 -1.4582 -0.7745
 7557SOL     OW27608   2.418   4.824   3.544 -0.1741  0.2309 -0.4040
 7557SOL    HW127609   2.359   4.769   3.595 -3.1813  0.4513 -3.3123
 7557SOL    HW227610   2.415   4.909   3.588 -2.0339  0.2055 -0.4011
 7558SOL     OW27611   1.772   7.928  11.089 -0.1847 -0.0363 -0.5445
 7558SOL    HW127612   1.805   8.009  11.050  0.9548  0.3623  1.1185
 7558SOL    HW227613   1.695   7.955  11.139 -0.2739 -0.1276 -0.6317
 7559SOL     OW27614   0.372   6.225   5.028  0.5848 -0.0625 -0.2482
 7559SOL    HW127615   0.289   6.200   5.070  0.3409  0.5112 -0.3843
 7559SOL    HW227616   0.385   6.316   5.054  0.6023  0.1970 -1.1595
 7560SOL     OW27617  10.599  11.145   0.706  0.3016  0.2415  0.1930
 7560SOL    HW127618  10.692  11.129   0.686  0.1129  0.8873 -1.3417
 7560SOL    HW227619  10.553  11.124   0.625 -1.1175 -1.6458  1.4120
 7561SOL     OW27620   1.740   2.943   9.051 -0.0568 -0.1463  0.2176
 7561SOL    HW127621   1.748   2.863   8.999  2.0326  0.4277 -0.4116
 7561SOL    HW227622   1.774   3.012   8.995 -0.3083  0.9357  1.3582
 7562SOL     OW27623   5.864   6.091   5.470 -0.5363 -0.2103  0.3169
 7562SOL    HW127624   5.831   6.009   5.507  0.1572 -0.7359 -0.2064
 7562SOL    HW227625   5.955   6.073   5.449 -1.0645 -0.2316 -2.4130
 7563SOL     OW27626  10.075   7.407  10.204 -0.0668  0.1871 -0.1682
 7563SOL    HW127627  10.010   7.395  10.274  1.4972  1.9647  1.6877
 7563SOL    HW227628  10.042   7.482  10.154 -1.2413 -1.1508 -1.5012
 7564SOL     OW27629   0.090   6.912  10.557 -0.8050 -0.0859  0.1370
 7564SOL    HW127630   0.060   6.829  10.520  1.1446 -1.7204  1.9322
 7564SOL    HW227631   0.068   6.906  10.650 -0.6707  1.4467  0.2899
 7565SOL     OW27632   6.672   7.154   7.894 -0.3473  0.8954 -0.0538
 7565SOL    HW127633   6.640   7.200   7.817  0.0141  0.1347 -0.6742
 7565SOL    HW227634   6.762   7.130   7.872  0.7103  2.9725  1.6308
 7566SOL     OW27635   2.645   3.248  10.403 -1.2666 -0.5278  0.4738
 7566SOL    HW127636   2.738   3.242  10.424 -0.9352  1.0882 -0.3764
 7566SOL    HW227637   2.637   3.205  10.318 -0.8894  1.0641 -0.4111
 7567SOL     OW27638  10.236   4.402   9.735  0.5628  0.3438 -0.3763
 7567SOL    HW127639  10.187   4.396   9.653 -0.3926  0.4155  0.1779
 7567SOL    HW227640  10.172   4.433   9.799  1.1558 -0.2286  0.5201
 7568SOL     OW27641   6.783  10.308   6.498 -0.3464 -0.2452  0.1496
 7568SOL    HW127642   6.778  10.290   6.404  0.6572 -0.5471  0.1466
 7568SOL    HW227643   6.748  10.229   6.539  3.1735 -2.0164  0.1076
 7569SOL     OW27644   1.651   8.888   1.753  0.3645  0.4593 -0.6400
 7569SOL    HW127645   1.718   8.954   1.739  1.0900 -0.5642 -2.2025
 7569SOL    HW227646   1.599   8.888   1.673  0.7677 -1.2778 -0.9437
 7570SOL     OW27647  10.840  10.601  10.965  0.0700 -0.1481  0.9879
 7570SOL    HW127648  10.782  10.633  10.896 -0.0740  1.0117  1.6147
 7570SOL    HW227649  10.857  10.510  10.942 -0.1190  0.1596 -0.4693
 7571SOL     OW27650   4.550  11.675   1.818 -0.0431  0.2689 -0.0103
 7571SOL    HW127651   4.562  11.767   1.795 -1.2212  0.0436 -1.7399
 7571SOL    HW227652   4.569  11.628   1.737  2.0719 -1.1785  1.2343
 7572SOL     OW27653   2.953   4.220   9.549 -0.5574  0.1853  0.5246
 7572SOL    HW127654   3.026   4.242   9.491 -0.0258 -2.4181  0.0780
 7572SOL    HW227655   2.889   4.178   9.491 -0.9090 -0.6005  1.4500
 7573SOL     OW27656  10.993   4.876   1.718  0.8688  0.2357 -0.2875
 7573SOL    HW127657  10.986   4.781   1.706  3.2409 -0.0250 -0.1431
 7573SOL    HW227658  11.066   4.886   1.779 -1.3757  2.0732  2.3001
 7574SOL     OW27659   1.841   4.092   3.818  0.1101 -0.0791 -0.4347
 7574SOL    HW127660   1.776   4.150   3.858 -1.1676 -0.6243 -1.6676
 7574SOL    HW227661   1.893   4.151   3.763  1.1893  0.4852  1.1066
 7575SOL     OW27662   1.206   9.769   8.429  0.0049  0.1305 -0.1327
 7575SOL    HW127663   1.125   9.821   8.431  0.0268  0.2264  2.8715
 7575SOL    HW227664   1.262   9.810   8.494  2.4343 -0.1207 -1.9333
 7576SOL     OW27665   4.131  10.117   1.684  0.5411 -0.1178 -0.0422
 7576SOL    HW127666   4.037  10.127   1.669  0.5774 -0.4182 -0.4722
 7576SOL    HW227667   4.162  10.065   1.610  0.9040 -0.7037  0.5138
 7577SOL     OW27668   1.999  11.233   4.852 -0.0245  0.5811  0.2785
 7577SOL    HW127669   2.032  11.271   4.933  1.1307  0.6571 -0.2036
 7577SOL    HW227670   1.965  11.307   4.802  4.0679  1.5032 -1.5492
 7578SOL     OW27671   7.446   5.677   5.602 -0.7785  0.3455  0.3619
 7578SOL    HW127672   7.461   5.771   5.593 -0.1123  0.1407 -0.7619
 7578SOL    HW227673   7.466   5.641   5.516  0.9246 -1.0701  1.2806
 7579SOL     OW27674   0.267   6.473   4.271 -0.1798 -0.0378 -0.4079
 7579SOL    HW127675   0.181   6.478   4.312 -0.5964 -1.5901 -1.0070
 7579SOL    HW227676   0.322   6.431   4.337 -0.3055 -0.5529 -0.6272
 7580SOL     OW27677   5.498   5.292   5.744 -0.2192 -0.4055  0.1496
 7580SOL    HW127678   5.509   5.319   5.653 -0.9293  1.4608  0.5708
 7580SOL    HW227679   5.428   5.228   5.742 -0.1072 -0.5128 -0.6438
 7581SOL     OW27680   9.331   7.527   2.159 -0.1790  0.9887 -0.3436
 7581SOL    HW127681   9.316   7.434   2.175 -1.7351  1.1213 -0.8027
 7581SOL    HW227682   9.420   7.542   2.188 -0.6834 -0.1153  2.0586
 7582SOL     OW27683   8.142   2.387   0.323 -0.1459 -0.4336 -0.1417
 7582SOL    HW127684   8.191   2.314   0.284 -0.7816 -2.0112  1.8710
 7582SOL    HW227685   8.201   2.461   0.315  2.8771 -2.3018  2.4636
 7583SOL     OW27686  11.209  10.623  10.049 -0.2556  0.2623  0.0531
 7583SOL    HW127687  11.169  10.691   9.995 -2.0139 -0.5615  0.2467
 7583SOL    HW227688  11.228  10.666  10.132 -0.6810  0.6866 -0.0683
 7584SOL     OW27689   9.064   1.102  10.212  0.0272  0.4787  0.3685
 7584SOL    HW127690   9.143   1.096  10.266 -1.3560  0.0272  2.5021
 7584SOL    HW227691   9.018   1.179  10.246 -0.0212  1.3257 -1.5096
 7585SOL     OW27692   5.111  11.587   4.659 -0.1610  0.0174  0.3429
 7585SOL    HW127693   5.085  11.678   4.643  1.5992  0.6829  1.0646
 7585SOL    HW227694   5.028  11.541   4.673 -1.1064  1.4387 -0.2999
 7586SOL     OW27695   1.010   8.465  11.344  0.3896  0.1609 -0.1367
 7586SOL    HW127696   0.989   8.435  11.433 -2.8291 -3.8853 -1.9018
 7586SOL    HW227697   1.093   8.422  11.323  0.5406  0.1347  0.4960
 7587SOL     OW27698   4.294  10.625   0.574  0.6928  0.3665  0.4123
 7587SOL    HW127699   4.385  10.650   0.588  0.3110  2.7755 -0.9558
 7587SOL    HW227700   4.254  10.701   0.532 -1.8188 -0.8509  0.4190
 7588SOL     OW27701   9.900   7.974   8.682  0.1714 -0.9045  0.5522
 7588SOL    HW127702   9.830   7.910   8.670 -0.8145 -0.0600  1.5616
 7588SOL    HW227703   9.944   7.947   8.763 -0.3071 -0.2650  1.0316
 7589SOL     OW27704   6.657   6.335   3.852  0.3632 -0.7707 -0.8174
 7589SOL    HW127705   6.742   6.293   3.865 -1.0463 -3.2880  1.5985
 7589SOL    HW227706   6.609   6.315   3.933 -1.3352  3.7413 -0.4243
 7590SOL     OW27707   1.559  11.518   7.982 -0.2355 -0.1594  0.2989
 7590SOL    HW127708   1.532  11.455   7.915 -0.5829  1.8059 -1.5222
 7590SOL    HW227709   1.478  11.562   8.008  0.3562  1.6700 -0.8040
 7591SOL     OW27710   4.670  11.548   8.648 -0.2538 -0.4822 -0.0138
 7591SOL    HW127711   4.756  11.514   8.624  0.4426 -0.5133  2.2365
 7591SOL    HW227712   4.681  11.643   8.645 -0.6827 -0.4539 -1.3636
 7592SOL     OW27713   9.243   9.582   1.776 -0.1537 -0.0320  0.4595
 7592SOL    HW127714   9.247   9.563   1.870 -0.6790 -1.4310  0.2351
 7592SOL    HW227715   9.186   9.658   1.768  0.7646  0.7657  1.3408
 7593SOL     OW27716   2.772   5.031   1.499  0.1818  0.1383  0.1735
 7593SOL    HW127717   2.866   5.032   1.519  0.2873 -0.8511 -0.2280
 7593SOL    HW227718   2.743   4.943   1.525 -0.1341 -0.4208 -1.9291
 7594SOL     OW27719   2.875   9.616   8.433 -0.5454 -0.0746 -0.1148
 7594SOL    HW127720   2.886   9.548   8.366 -0.5328 -0.8472  0.6666
 7594SOL    HW227721   2.810   9.581   8.493  0.2658  0.1146  0.9101
 7595SOL     OW27722   5.746  11.681   5.405 -0.6619 -0.1378  0.0574
 7595SOL    HW127723   5.751  11.618   5.334 -1.3315  0.1988 -0.3070
 7595SOL    HW227724   5.834  11.684   5.442 -0.4738 -0.8084 -0.3261
 7596SOL     OW27725   1.385  10.148   6.025  0.3318  0.4706 -0.4132
 7596SOL    HW127726   1.371  10.137   6.119 -1.6510  0.0655 -0.7092
 7596SOL    HW227727   1.443  10.224   6.018 -2.0488  2.5609  1.0743
 7597SOL     OW27728   7.184   6.922   5.124 -0.4557 -0.2764 -0.1914
 7597SOL    HW127729   7.099   6.947   5.161  0.5570  2.6099  0.4152
 7597SOL    HW227730   7.213   6.999   5.076  1.5231 -1.4628 -1.0361
 7598SOL     OW27731   2.997   5.773   9.233  0.5008  0.5932 -0.2809
 7598SOL    HW127732   3.002   5.721   9.313  0.6062  1.4519  0.2933
 7598SOL    HW227733   2.936   5.726   9.177 -0.6633  0.6921  0.8626
 7599SOL     OW27734   7.165   2.416   3.332  0.3242 -0.0814  0.3192
 7599SOL    HW127735   7.183   2.442   3.423  1.2518  0.1713  0.0705
 7599SOL    HW227736   7.214   2.335   3.320  1.8754  0.9290 -0.5496
 7600SOL     OW27737   1.662   7.650   3.638  0.7671  0.3098 -0.1826
 7600SOL    HW127738   1.573   7.641   3.672  0.3721 -0.4028 -1.3398
 7600SOL    HW227739   1.651   7.656   3.543  1.8768  1.4613 -0.2681
 7601SOL     OW27740   4.539   3.442   6.180 -0.4408 -0.2915  0.2490
 7601SOL    HW127741   4.543   3.527   6.225 -0.4146  0.1437 -0.5530
 7601SOL    HW227742   4.606   3.448   6.112 -2.1337  0.0609 -1.4841
 7602SOL     OW27743   2.575   5.758   1.799  1.0903 -0.0806  0.4494
 7602SOL    HW127744   2.515   5.734   1.728  0.2231 -0.4033  1.2651
 7602SOL    HW227745   2.573   5.683   1.858  2.1174  0.0140  0.6280
 7603SOL     OW27746   8.933   7.553   8.921  0.7921 -0.1295  0.4329
 7603SOL    HW127747   8.904   7.517   9.005 -2.1213  0.6184 -0.1600
 7603SOL    HW227748   8.934   7.477   8.862  0.8381 -0.3062  0.6564
 7604SOL     OW27749   8.443   9.665   5.627  0.7743  0.1857 -0.1810
 7604SOL    HW127750   8.369   9.692   5.572  0.4930  1.5118  0.8153
 7604SOL    HW227751   8.509   9.733   5.613  1.2436 -0.2101  0.0752
 7605SOL     OW27752   1.886   2.630   3.440 -0.2925 -0.3307 -0.2408
 7605SOL    HW127753   1.825   2.577   3.388  1.0508 -1.0094 -1.1700
 7605SOL    HW227754   1.956   2.654   3.379 -0.0580  1.2157  0.5626
 7606SOL     OW27755   4.427   3.978   6.078 -0.0365 -0.4597  0.4978
 7606SOL    HW127756   4.422   3.886   6.053 -0.8104  0.0300 -1.3269
 7606SOL    HW227757   4.508   3.985   6.129  0.5388 -1.9598 -0.1590
 7607SOL     OW27758   8.949   7.412   1.230  0.3642  0.5362  0.1056
 7607SOL    HW127759   8.937   7.433   1.138  0.2781  0.6202  0.1370
 7607SOL    HW227760   9.033   7.365   1.233  1.6424  2.6801  0.3187
 7608SOL     OW27761   7.240   4.590   3.493 -0.8518 -0.1710 -0.1305
 7608SOL    HW127762   7.273   4.525   3.555  1.4237  1.5539  0.5998
 7608SOL    HW227763   7.174   4.639   3.542 -0.7068 -0.2839  0.1787
 7609SOL     OW27764   4.686   0.158  10.599 -0.3068  0.2179  0.2680
 7609SOL    HW127765   4.696   0.253  10.597  0.2364  0.1648  0.4058
 7609SOL    HW227766   4.603   0.144  10.644 -0.3133  0.6204  0.3866
 7610SOL     OW27767   0.968   5.263   4.722  0.0366  0.9492 -0.0617
 7610SOL    HW127768   0.954   5.170   4.708  1.1067  1.0085 -1.8672
 7610SOL    HW227769   0.888   5.294   4.763 -0.0464 -0.8834  1.2699
 7611SOL     OW27770   7.619   8.857   0.302  1.1669 -0.5819  1.1237
 7611SOL    HW127771   7.551   8.890   0.243  1.5866 -0.4083  0.7347
 7611SOL    HW227772   7.572   8.840   0.384  1.1091  2.0445  1.7230
 7612SOL     OW27773   6.764  11.562   8.822 -0.8566 -0.2392 -0.1388
 7612SOL    HW127774   6.770  11.601   8.909 -1.0301 -0.6314  0.0540
 7612SOL    HW227775   6.727  11.475   8.838  3.9592 -2.6139  0.1511
 7613SOL     OW27776   6.954   5.455   1.346 -0.0205 -0.1013 -0.3588
 7613SOL    HW127777   6.967   5.465   1.251 -1.1483  0.3173 -0.4779
 7613SOL    HW227778   6.866   5.419   1.355  1.0605 -2.7541  0.4325
 7614SOL     OW27779   8.938  10.880   0.849 -0.1024 -0.1082  0.0312
 7614SOL    HW127780   8.980  10.940   0.910  0.3970  0.1751 -0.5939
 7614SOL    HW227781   8.962  10.793   0.881 -1.8939 -0.0568  1.7186
 7615SOL     OW27782   1.125   6.480   8.602 -0.3374 -0.1487 -0.0199
 7615SOL    HW127783   1.204   6.464   8.549  1.1572  0.6828  1.8475
 7615SOL    HW227784   1.147   6.555   8.656 -1.7927 -0.9591  1.8052
 7616SOL     OW27785  11.685  10.812   3.464  0.3014  0.4382 -0.1948
 7616SOL    HW127786  11.719  10.867   3.534  0.6310  0.1246 -0.1025
 7616SOL    HW227787  11.748  10.822   3.393  1.3903 -1.2194  0.4650
 7617SOL     OW27788   0.522   7.170   5.738 -0.2993 -0.6109 -0.1703
 7617SOL    HW127789   0.464   7.197   5.809 -0.2302  1.3161 -0.7974
 7617SOL    HW227790   0.479   7.202   5.658 -0.7017 -3.2806 -1.1194
 7618SOL     OW27791  11.436   6.807   6.983 -0.4346 -0.7706 -0.2794
 7618SOL    HW127792  11.463   6.894   7.014 -0.8779 -0.5844 -0.3994
 7618SOL    HW227793  11.392   6.767   7.058  0.5920 -1.2709  0.0724
 7619SOL     OW27794   6.073   1.496   7.266 -0.1967 -0.8275 -0.6837
 7619SOL    HW127795   6.108   1.508   7.177  0.8465  0.0782 -0.1850
 7619SOL    HW227796   5.994   1.550   7.268  0.3638  0.0131 -0.7496
 7620SOL     OW27797  11.001   8.340   4.657 -0.3211 -0.4545 -0.1560
 7620SOL    HW127798  11.045   8.270   4.705  0.9969 -0.7048 -1.6222
 7620SOL    HW227799  11.025   8.324   4.565 -2.2040  0.3688 -0.8291
 7621SOL     OW27800   0.296   6.210   3.395 -0.0129 -0.2980  0.6922
 7621SOL    HW127801   0.242   6.144   3.352 -3.3685  1.6324  1.5536
 7621SOL    HW227802   0.329   6.166   3.474 -1.1086 -1.3257  0.6114
 7622SOL     OW27803   2.717   8.799   9.841  0.3587 -0.2617  0.3605
 7622SOL    HW127804   2.634   8.823   9.800  0.5750  0.2828  0.2364
 7622SOL    HW227805   2.720   8.703   9.834  0.5473 -0.1753 -1.2453
 7623SOL     OW27806   3.072   3.016   8.161 -0.2520  0.2252  0.1614
 7623SOL    HW127807   3.111   3.075   8.096 -1.8260 -0.9147 -1.9319
 7623SOL    HW227808   3.011   3.072   8.210 -0.8000  0.6224 -0.9508
 7624SOL     OW27809   8.998   7.818   4.648 -0.4913  0.0654  0.5476
 7624SOL    HW127810   9.037   7.734   4.623 -1.7166 -0.9056  1.7192
 7624SOL    HW227811   8.962   7.852   4.566  1.3316  0.2198 -0.2371
 7625SOL     OW27812   5.047   4.415   5.781 -0.2490  0.4426 -0.0766
 7625SOL    HW127813   4.961   4.403   5.820 -0.2438 -0.2842 -0.2781
 7625SOL    HW227814   5.030   4.448   5.693 -0.3748 -0.6384 -0.4787
 7626SOL     OW27815   3.954   8.757   3.650  0.6251 -0.9635  0.2526
 7626SOL    HW127816   3.888   8.816   3.614  0.9176  0.2849  1.6671
 7626SOL    HW227817   3.917   8.669   3.635 -1.0409 -0.3326  0.3931
 7627SOL     OW27818  11.432   4.180   2.939 -0.0302 -0.0834  0.1203
 7627SOL    HW127819  11.421   4.188   2.845  0.5160 -1.5364 -0.0857
 7627SOL    HW227820  11.525   4.194   2.954 -0.1865  0.6184  0.5190
 7628SOL     OW27821  10.007  11.007  10.340  0.8710 -0.0034 -0.3754
 7628SOL    HW127822   9.991  11.090  10.385  0.4562  0.1852 -0.8576
 7628SOL    HW227823  10.014  11.032  10.247  0.7315 -0.5078 -0.5221
 7629SOL     OW27824   8.725   7.078   4.728 -0.9622 -0.0473 -0.2397
 7629SOL    HW127825   8.783   7.036   4.664 -0.3232  0.9282 -0.3167
 7629SOL    HW227826   8.640   7.081   4.685 -0.4273  1.0585 -1.2648
 7630SOL     OW27827   7.474   0.297   9.520  0.5619 -0.0205  0.5459
 7630SOL    HW127828   7.406   0.353   9.556  0.3147 -0.3553  0.5988
 7630SOL    HW227829   7.486   0.228   9.585  0.6348 -0.2120  0.3311
 7631SOL     OW27830   0.476   6.602   5.626 -0.1450 -0.2748 -0.2401
 7631SOL    HW127831   0.411   6.623   5.559 -0.8770 -1.1007  0.1899
 7631SOL    HW227832   0.500   6.687   5.663 -1.8924 -0.0183  0.4118
 7632SOL     OW27833   4.079   7.899   0.244 -0.0746 -0.5126  0.2162
 7632SOL    HW127834   4.079   7.987   0.206  1.2540 -0.5322  0.1170
 7632SOL    HW227835   4.168   7.866   0.229  0.0428 -1.1200  1.9979
 7633SOL     OW27836   9.739   5.405   7.329 -0.2498  0.0193 -0.0568
 7633SOL    HW127837   9.673   5.440   7.388  2.1759  2.9112  1.2293
 7633SOL    HW227838   9.724   5.311   7.329 -1.5979  0.0425  3.7556
 7634SOL     OW27839   7.486   6.577   8.192  0.2755  0.0679 -0.1127
 7634SOL    HW127840   7.430   6.649   8.160  0.7572  0.8865  0.8278
 7634SOL    HW227841   7.427   6.502   8.196 -0.7184  0.8365  0.5585
 7635SOL     OW27842   9.539   1.975  10.929 -0.2188  0.5517 -0.1720
 7635SOL    HW127843   9.488   2.033  10.872 -0.7842  0.4577  0.2357
 7635SOL    HW227844   9.481   1.901  10.946  0.1673  0.2996  0.0570
 7636SOL     OW27845   5.360  10.441  11.362 -0.3000 -0.1783 -0.0222
 7636SOL    HW127846   5.432  10.480  11.412 -0.2096 -1.8125  1.2272
 7636SOL    HW227847   5.390  10.443  11.271  1.9695 -1.9264  0.5709
 7637SOL     OW27848   6.629   4.529   5.512 -0.4494 -0.4105  0.3884
 7637SOL    HW127849   6.711   4.501   5.553  0.0472 -0.7234 -0.7944
 7637SOL    HW227850   6.643   4.516   5.418 -1.5711  0.2886  0.1087
 7638SOL     OW27851   8.294   6.855   7.911 -0.8276  0.5131  0.5370
 7638SOL    HW127852   8.326   6.941   7.937 -2.6053  0.6019  2.6928
 7638SOL    HW227853   8.199   6.862   7.915 -1.0969 -0.9585 -1.4347
 7639SOL     OW27854  11.127   7.198   7.420 -0.0456 -0.5132  0.1673
 7639SOL    HW127855  11.152   7.265   7.356 -1.9869 -0.2027 -0.3177
 7639SOL    HW227856  11.045   7.230   7.457 -0.3564 -2.0229  0.8362
 7640SOL     OW27857   1.297   3.526   0.278  0.6232  0.2702 -0.0651
 7640SOL    HW127858   1.345   3.447   0.304  0.0552 -0.7514 -1.9274
 7640SOL    HW227859   1.206   3.507   0.300  0.5410  0.6145 -0.1052
 7641SOL     OW27860   5.657   2.573   0.673  0.1511 -0.5116 -0.3683
 7641SOL    HW127861   5.646   2.663   0.643 -0.8906 -0.4757  0.1062
 7641SOL    HW227862   5.641   2.577   0.767  0.6299 -1.1094 -0.2549
 7642SOL     OW27863   0.284   6.931   0.726 -0.0136  0.4508 -0.0959
 7642SOL    HW127864   0.327   6.880   0.658 -1.9005  0.1027 -1.1014
 7642SOL    HW227865   0.354   6.985   0.764  2.0137 -2.6117  0.8579
 7643SOL     OW27866   6.686   9.912   5.624  0.6089  0.1750  0.0404
 7643SOL    HW127867   6.716   9.960   5.701  3.1882  0.0054 -0.7761
 7643SOL    HW227868   6.750   9.842   5.613 -0.8188 -1.0033 -1.1405
 7644SOL     OW27869   7.478  10.587   9.375 -0.2425 -0.2998  0.8449
 7644SOL    HW127870   7.497  10.551   9.289 -2.9691  0.1733 -0.0503
 7644SOL    HW227871   7.558  10.571   9.426  0.9960 -1.6972 -1.3694
 7645SOL     OW27872  10.626   8.314   3.544 -0.4861 -0.0019  0.1305
 7645SOL    HW127873  10.571   8.297   3.467 -0.0765 -1.2680  0.0951
 7645SOL    HW227874  10.576   8.279   3.617 -0.9697  1.3940  0.4932
 7646SOL     OW27875   5.766  10.297   6.722 -0.3139 -0.1367  0.2382
 7646SOL    HW127876   5.767  10.245   6.802 -1.1216 -0.8719 -0.2096
 7646SOL    HW227877   5.834  10.259   6.667  1.0565  1.0997  0.9820
 7647SOL     OW27878   8.315  11.059   2.747  0.1474  0.6028 -0.0094
 7647SOL    HW127879   8.357  10.976   2.768 -0.7921  0.3927  1.0976
 7647SOL    HW227880   8.364  11.124   2.797  1.1833  0.8127 -1.2380
 7648SOL     OW27881   9.930   8.394   8.199  0.0846  0.5195 -0.4087
 7648SOL    HW127882   9.923   8.439   8.284 -0.1807  0.7861 -0.5693
 7648SOL    HW227883  10.017   8.417   8.168  1.5081 -2.1502  1.2190
 7649SOL     OW27884   2.716   9.568   1.927  0.1978  0.2714  0.1806
 7649SOL    HW127885   2.754   9.635   1.870  1.3014 -0.2167  0.3034
 7649SOL    HW227886   2.754   9.486   1.896 -2.3446 -0.5484 -0.9991
 7650SOL     OW27887   9.918   8.438   1.027  0.0722 -0.3045  0.0425
 7650SOL    HW127888   9.883   8.395   0.949  0.8574  1.3758 -1.2925
 7650SOL    HW227889   9.873   8.523   1.030 -0.6417 -0.7005  1.9831
 7651SOL     OW27890   8.409   3.413   9.738 -0.3866  0.2772 -0.6462
 7651SOL    HW127891   8.347   3.348   9.706  1.1031 -1.7320  0.3560
 7651SOL    HW227892   8.359   3.464   9.803 -1.1978 -0.7809 -0.4144
 7652SOL     OW27893  10.258   8.347   6.427  0.3629  0.3956  0.7522
 7652SOL    HW127894  10.351   8.344   6.403  0.0495 -1.0749 -0.4095
 7652SOL    HW227895  10.215   8.384   6.350 -0.2739 -1.2644  0.2572
 7653SOL     OW27896   6.425   3.550   2.035  0.0156 -0.1309  0.0262
 7653SOL    HW127897   6.420   3.483   2.103 -0.5719  0.9789  1.1096
 7653SOL    HW227898   6.517   3.577   2.035  0.4311 -1.4151 -0.9375
 7654SOL     OW27899   8.992   6.343   5.539  0.2925 -0.4260  0.0473
 7654SOL    HW127900   9.027   6.337   5.450  0.8882  0.3789  0.2183
 7654SOL    HW227901   8.948   6.259   5.553 -2.7379  0.6213 -2.2168
 7655SOL     OW27902   6.479   7.211   7.623 -0.1466 -0.1708  0.5780
 7655SOL    HW127903   6.514   7.161   7.549 -1.5842 -0.5969  0.1490
 7655SOL    HW227904   6.436   7.145   7.678  1.5672  0.0190  2.2388
 7656SOL     OW27905  11.294   7.792   3.959 -0.1387  1.0708  0.5142
 7656SOL    HW127906  11.273   7.841   4.039 -0.3804  2.2125 -0.2216
 7656SOL    HW227907  11.385   7.765   3.970 -0.4157  0.4971  1.5199
 7657SOL     OW27908   0.758   8.944   3.829  0.2706 -0.0669 -0.0811
 7657SOL    HW127909   0.673   8.987   3.838 -0.1475 -0.6024 -1.2922
 7657SOL    HW227910   0.822   9.015   3.835 -0.4246  0.8729 -2.6272
 7658SOL     OW27911  11.382   7.430   8.140 -0.1387 -0.1205  0.1921
 7658SOL    HW127912  11.363   7.439   8.234 -0.4856 -0.5962  0.1726
 7658SOL    HW227913  11.362   7.339   8.121  1.5092 -0.4799  0.0052
 7659SOL     OW27914   3.247   1.875   3.409  0.1150  0.3335 -0.1130
 7659SOL    HW127915   3.338   1.904   3.424  0.7386 -1.4520 -0.2736
 7659SOL    HW227916   3.241   1.863   3.315 -0.8541  2.0935 -0.3211
 7660SOL     OW27917   8.221   4.879   6.475  0.4557 -0.3475 -0.0265
 7660SOL    HW127918   8.296   4.864   6.417  0.6886  0.0365  0.1696
 7660SOL    HW227919   8.145   4.855   6.423  0.8409 -3.4845  0.6535
 7661SOL     OW27920   5.763  10.093   6.075  0.1063  0.1134  0.4791
 7661SOL    HW127921   5.840  10.088   6.133  1.8961  0.1422 -1.7424
 7661SOL    HW227922   5.793  10.143   6.000 -2.2134  0.3282 -0.3785
 7662SOL     OW27923   4.694   7.843  11.169 -0.4643 -0.7944 -0.7924
 7662SOL    HW127924   4.601   7.862  11.176 -0.3375 -0.7584  1.6951
 7662SOL    HW227925   4.699   7.747  11.168 -0.5071 -0.7973 -1.1150
 7663SOL     OW27926   2.860   2.958  11.317 -0.2818  0.3249  0.2855
 7663SOL    HW127927   2.859   2.864  11.338 -1.4893  0.0541 -0.8446
 7663SOL    HW227928   2.793   2.968  11.249 -0.0130  1.9794  0.2266
 7664SOL     OW27929  11.152   5.667   3.557 -0.4093 -0.7669 -0.3094
 7664SOL    HW127930  11.073   5.671   3.504 -0.3377 -1.3304 -0.4616
 7664SOL    HW227931  11.159   5.575   3.584  1.2145 -1.1425 -1.8459
 7665SOL     OW27932   6.380  10.174   1.660 -0.2905 -0.9510 -0.4942
 7665SOL    HW127933   6.378  10.259   1.617 -1.3727  0.8789  2.7881
 7665SOL    HW227934   6.458  10.131   1.625  0.3632  1.4318 -2.1996
 7666SOL     OW27935  10.424   1.970   0.359  0.7238  0.4531 -0.0996
 7666SOL    HW127936  10.472   1.889   0.341  0.0710 -0.2024  1.0473
 7666SOL    HW227937  10.463   2.005   0.439 -0.9293 -0.2936  1.0680
 7667SOL     OW27938   7.170   1.600  10.930 -0.2196 -0.4656  0.0461
 7667SOL    HW127939   7.244   1.596  10.991  0.4682  1.5289 -0.5720
 7667SOL    HW227940   7.133   1.688  10.943 -0.7453 -0.4142 -1.6009
 7668SOL     OW27941   8.118   1.509   9.952  0.4046  0.0056  0.0643
 7668SOL    HW127942   8.071   1.558  10.019  0.5340  1.8931 -1.1466
 7668SOL    HW227943   8.087   1.419   9.962 -1.8076  0.7690  0.7285
 7669SOL     OW27944   2.331   5.322   8.867  0.4725  0.0752  0.1700
 7669SOL    HW127945   2.408   5.378   8.859  0.5234 -0.2154 -2.2795
 7669SOL    HW227946   2.360   5.249   8.921  1.8970  0.0529 -0.5621
 7670SOL     OW27947   3.216   0.895   9.286 -0.2340  0.2561  0.5057
 7670SOL    HW127948   3.182   0.809   9.264  0.3973  0.3570 -0.9395
 7670SOL    HW227949   3.200   0.948   9.208 -1.1495  1.6404  1.5718
 7671SOL     OW27950   2.762   8.837   6.435 -0.5638  0.4212 -0.1952
 7671SOL    HW127951   2.712   8.796   6.364 -0.3968 -1.5819  0.7666
 7671SOL    HW227952   2.738   8.787   6.513  0.7820  1.2565  0.8041
 7672SOL     OW27953  10.441   3.636   8.256  0.1826  0.5248 -1.1448
 7672SOL    HW127954  10.525   3.591   8.262  0.1800  0.7239  1.3084
 7672SOL    HW227955  10.454   3.719   8.302 -1.2165  0.7523 -1.0856
 7673SOL     OW27956   5.927   2.789   0.332 -0.2081 -0.0174 -0.4547
 7673SOL    HW127957   5.833   2.778   0.343  0.1348 -1.0864  2.2081
 7673SOL    HW227958   5.965   2.751   0.411  2.3934  1.7427 -0.7195
 7674SOL     OW27959   3.007   3.275  11.122  0.3528 -0.0592  0.2298
 7674SOL    HW127960   2.995   3.195  11.070  0.2055  0.0703  0.0634
 7674SOL    HW227961   3.095   3.306  11.099 -0.5566  1.2840 -1.7498
 7675SOL     OW27962   7.020  10.901   8.092 -0.3446  0.4518 -0.8223
 7675SOL    HW127963   6.965  10.861   8.160  0.1942  0.0450 -0.6195
 7675SOL    HW227964   6.964  10.902   8.015 -0.8134  0.5085 -0.4872
 7676SOL     OW27965   7.432   9.198   9.980 -0.1955 -0.1046 -0.3679
 7676SOL    HW127966   7.465   9.200   9.890 -0.0199 -2.5138 -0.4230
 7676SOL    HW227967   7.455   9.111  10.012 -2.1818 -0.0956  1.2851
 7677SOL     OW27968   4.882   5.415   2.225  0.7915  0.2162 -0.3828
 7677SOL    HW127969   4.934   5.409   2.305 -0.9028  2.0043  0.9522
 7677SOL    HW227970   4.827   5.336   2.226  0.3384  0.5247  0.5851
 7678SOL     OW27971   2.627   1.181   8.123  0.2998 -0.0555 -0.0348
 7678SOL    HW127972   2.568   1.232   8.067  0.8151 -0.5212 -1.0125
 7678SOL    HW227973   2.708   1.231   8.124  0.0236  0.4121  1.0459
 7679SOL     OW27974  11.521   9.216   2.712  0.4573  0.4832  0.5036
 7679SOL    HW127975  11.492   9.307   2.715  2.4288  1.2060 -0.3220
 7679SOL    HW227976  11.590   9.215   2.645  0.8958 -1.4885  0.9132
 7680SOL     OW27977   5.118   3.869   6.137  0.3296 -0.2739  0.1473
 7680SOL    HW127978   5.212   3.853   6.132  0.1808 -1.7980  1.2368
 7680SOL    HW227979   5.083   3.838   6.054  0.7032 -0.5350  0.0854
 7681SOL     OW27980   2.213   9.097   9.642  0.7292  0.2842  0.7735
 7681SOL    HW127981   2.150   9.158   9.605  1.6067 -1.0404 -3.3979
 7681SOL    HW227982   2.169   9.012   9.641  2.0986 -0.4699 -1.2075
 7682SOL     OW27983   9.353   0.503   6.884  0.5086 -0.4160  0.0289
 7682SOL    HW127984   9.317   0.477   6.800 -0.1551  0.1180  0.1391
 7682SOL    HW227985   9.416   0.572   6.863  0.2024 -0.1473 -0.0205
 7683SOL     OW27986   7.182   8.513   7.635  0.5242 -0.6453 -0.7402
 7683SOL    HW127987   7.235   8.552   7.565  1.8762 -0.1785  0.4925
 7683SOL    HW227988   7.134   8.586   7.673  1.4902 -0.4819  0.2297
 7684SOL     OW27989  11.004   8.835  10.657  0.0249  0.2844  0.1802
 7684SOL    HW127990  10.983   8.869  10.570 -0.4757 -0.1258  0.1394
 7684SOL    HW227991  11.098   8.852  10.666  0.3606 -0.7570 -0.9451
 7685SOL     OW27992   7.844   5.506   4.396 -0.5279 -0.0509  0.1948
 7685SOL    HW127993   7.898   5.434   4.364 -1.4482 -0.3128 -0.8241
 7685SOL    HW227994   7.895   5.585   4.378 -0.3458 -0.3163 -0.4702
 7686SOL     OW27995   5.556   5.452   6.922  0.4256  0.2208 -0.0262
 7686SOL    HW127996   5.481   5.396   6.903  0.1105  0.4930  0.4032
 7686SOL    HW227997   5.518   5.537   6.946  0.8535  0.2614  0.5472
 7687SOL     OW27998   6.080   9.492   4.887  0.3041 -0.0389 -0.1450
 7687SOL    HW127999   6.057   9.585   4.890  0.3224 -0.0053 -0.8290
 7687SOL    HW228000   6.047   9.456   4.969  1.1851  0.7766  0.5898
 7688SOL     OW28001  10.599   6.371   7.982  0.4531  0.3711 -0.3646
 7688SOL    HW128002  10.584   6.435   8.051  1.2906  0.3412 -0.1525
 7688SOL    HW228003  10.680   6.399   7.939 -0.6365  1.0442 -2.0927
 7689SOL     OW28004   0.027   1.997   1.354 -0.7905  0.1841  0.0319
 7689SOL    HW128005   0.085   2.068   1.327 -0.7582  0.4384  0.7612
 7689SOL    HW228006   0.034   1.995   1.450 -1.2039 -0.4479  0.0529
 7690SOL     OW28007   3.636   4.906   5.172  0.1409  0.3831  0.2671
 7690SOL    HW128008   3.691   4.832   5.199 -0.3452  0.3061  1.0704
 7690SOL    HW228009   3.688   4.983   5.194  0.4900  0.2907 -0.2231
 7691SOL     OW28010   6.058   8.335   8.862 -0.6437 -0.0090  0.3343
 7691SOL    HW128011   6.111   8.337   8.942 -1.8325 -1.0126  1.1913
 7691SOL    HW228012   5.998   8.261   8.875  0.5677 -1.5953 -2.4400
 7692SOL     OW28013   1.003   3.190   8.462  0.3550  0.7159  0.4602
 7692SOL    HW128014   0.927   3.215   8.408  0.2872 -0.3938  0.0286
 7692SOL    HW228015   0.983   3.102   8.493  1.9005 -0.0087 -0.4729
 7693SOL     OW28016   2.405   7.287  10.571 -0.4503  0.0659  0.8349
 7693SOL    HW128017   2.490   7.312  10.606 -0.9746  0.9995  1.4656
 7693SOL    HW228018   2.380   7.359  10.514 -0.4481 -0.5941 -0.0313
 7694SOL     OW28019   2.348   0.487   4.001  0.1611  0.1421 -0.1986
 7694SOL    HW128020   2.331   0.575   3.967 -0.7162 -0.1912 -0.6461
 7694SOL    HW228021   2.429   0.497   4.051 -0.5743  1.4785  0.8070
 7695SOL     OW28022  10.698   6.204   1.171  0.2363  0.1961 -0.6443
 7695SOL    HW128023  10.626   6.267   1.170 -1.0967 -1.1902  1.1941
 7695SOL    HW228024  10.658   6.123   1.204  2.7243 -0.5288  0.8258
 7696SOL     OW28025   7.422   8.153   1.766  0.5716  0.1516 -0.0073
 7696SOL    HW128026   7.435   8.245   1.745  1.0560  0.2797  0.8251
 7696SOL    HW228027   7.447   8.106   1.686  0.9138  0.7024 -0.2274
 7697SOL     OW28028   3.871   0.001   0.698  0.1099  0.3619 -0.4645
 7697SOL    HW128029   3.960   0.019   0.667 -0.0230 -0.9866 -1.7600
 7697SOL    HW228030   3.837  -0.063   0.635 -1.5412  0.3582  0.3955
 7698SOL     OW28031   1.992  10.230   9.963  0.4157  0.6231  0.1289
 7698SOL    HW128032   2.050  10.271   9.899  0.2831  0.4661 -0.0958
 7698SOL    HW228033   2.012  10.273  10.046  2.8233 -1.2943  0.6587
 7699SOL     OW28034   8.037   9.016   6.782  0.1349 -0.0933 -0.0079
 7699SOL    HW128035   7.975   9.082   6.752 -0.1473 -0.0247  0.7084
 7699SOL    HW228036   7.994   8.975   6.857  0.9690 -0.0348  0.5138
 7700SOL     OW28037   6.149   9.533   3.545  0.6107  0.5355  0.9561
 7700SOL    HW128038   6.213   9.552   3.614 -0.0523 -0.5712  1.9033
 7700SOL    HW228039   6.183   9.454   3.503  1.4611  1.6708 -0.5939
 7701SOL     OW28040   7.212   2.066   0.585 -0.1085 -0.1137 -0.3356
 7701SOL    HW128041   7.278   2.109   0.639 -0.2855 -1.8467  1.3635
 7701SOL    HW228042   7.257   1.989   0.550 -0.4796  0.1145 -1.3546
 7702SOL     OW28043   6.653   0.119   0.356 -0.1742 -0.6445 -0.5353
 7702SOL    HW128044   6.565   0.089   0.331 -0.3191  0.0543 -0.8920
 7702SOL    HW228045   6.637   0.181   0.427  0.1554 -1.7182  0.5020
 7703SOL     OW28046   4.574   9.259   9.011 -0.0601 -0.6253  0.6212
 7703SOL    HW128047   4.507   9.318   8.976  0.1452 -1.6177 -1.5561
 7703SOL    HW228048   4.527   9.177   9.028  0.4130 -1.0388 -0.0490
 7704SOL     OW28049   8.325   3.648   9.112 -0.4975 -0.0195  0.1779
 7704SOL    HW128050   8.301   3.558   9.091 -0.9541 -0.2152  1.4261
 7704SOL    HW228051   8.252   3.680   9.166 -0.6968  1.3523 -0.8539
 7705SOL     OW28052   9.361   2.384   5.675 -0.6868  0.1433 -0.2121
 7705SOL    HW128053   9.442   2.357   5.632 -1.3338  0.3469 -1.6168
 7705SOL    HW228054   9.320   2.302   5.705 -1.3774 -0.2655 -2.1370
 7706SOL     OW28055   1.692   9.562   1.871 -0.4218 -0.2844 -0.3960
 7706SOL    HW128056   1.766   9.582   1.928  0.1982 -1.3229 -0.8142
 7706SOL    HW228057   1.707   9.613   1.792 -0.2411 -0.3640 -0.4124
 7707SOL     OW28058   5.659   3.572   3.505  0.1281  0.3497  0.3884
 7707SOL    HW128059   5.660   3.662   3.536 -1.7242 -0.1467  2.0803
 7707SOL    HW228060   5.592   3.529   3.558  0.4178 -1.8421 -0.9046
 7708SOL     OW28061   3.906   3.552   9.053  0.0479 -0.4043  0.4090
 7708SOL    HW128062   3.941   3.476   9.098 -0.6270 -1.1858 -0.3500
 7708SOL    HW228063   3.918   3.532   8.960 -2.5044 -0.7817  0.1104
 7709SOL     OW28064   1.365   1.668  10.377 -0.0647  0.1314  0.1328
 7709SOL    HW128065   1.363   1.710  10.291  0.6185 -1.7324 -0.8451
 7709SOL    HW228066   1.289   1.611  10.378  0.0662 -0.0414  0.6646
 7710SOL     OW28067   2.529  11.283   4.391  0.0984 -1.0521  0.0123
 7710SOL    HW128068   2.507  11.266   4.483 -0.8029  0.5498  0.1257
 7710SOL    HW228069   2.531  11.378   4.384 -1.1550 -1.1056 -1.9084
 7711SOL     OW28070   6.530   4.807   6.657  0.2105 -0.6636  0.1514
 7711SOL    HW128071   6.499   4.774   6.741 -1.0992 -1.8026 -0.7407
 7711SOL    HW228072   6.489   4.893   6.648 -1.5778 -1.5156 -0.3281
 7712SOL     OW28073   4.460   2.626   6.792 -0.0290 -0.0625  0.2149
 7712SOL    HW128074   4.383   2.591   6.837 -1.4231 -0.3047 -2.1721
 7712SOL    HW228075   4.515   2.549   6.776  0.0233 -0.1222  0.6783
 7713SOL     OW28076   0.852   7.565   6.459  0.0035  0.1510 -0.2868
 7713SOL    HW128077   0.910   7.553   6.384 -0.0537  0.2245 -0.3433
 7713SOL    HW228078   0.811   7.650   6.444 -0.1074  0.1061 -0.2387
 7714SOL     OW28079   7.738   0.116  11.133 -0.3267 -0.1838  0.0655
 7714SOL    HW128080   7.676   0.140  11.064  0.4193  1.0323 -0.2046
 7714SOL    HW228081   7.797   0.053  11.091  0.3180  0.7892 -0.5302
 7715SOL     OW28082   3.147   0.701  11.000  0.1146 -0.2418  0.0666
 7715SOL    HW128083   3.231   0.681  10.958  0.5029  0.7573  0.3195
 7715SOL    HW228084   3.087   0.714  10.927 -0.5550 -3.6547 -0.1126
 7716SOL     OW28085  10.666   7.864   1.705 -0.7546 -0.9133  0.2264
 7716SOL    HW128086  10.704   7.878   1.618  0.6492 -2.2381  0.5919
 7716SOL    HW228087  10.574   7.890   1.695 -0.1636  0.8037 -1.1148
 7717SOL     OW28088   5.577   2.671   8.544 -0.3015 -0.0574 -0.1884
 7717SOL    HW128089   5.566   2.765   8.551 -1.5166 -0.2220  0.4192
 7717SOL    HW228090   5.517   2.644   8.475 -1.8612 -0.6564  1.3149
 7718SOL     OW28091   4.449   6.570   1.549 -0.0582 -0.1326 -0.2178
 7718SOL    HW128092   4.433   6.628   1.474 -0.5645 -1.3543 -1.0743
 7718SOL    HW228093   4.362   6.550   1.583  0.1832  0.7110  0.9651
 7719SOL     OW28094   0.735  10.798  11.393 -0.7218  0.1163 -0.0849
 7719SOL    HW128095   0.712  10.723  11.337 -1.9496  1.4139 -1.4054
 7719SOL    HW228096   0.653  10.845  11.406  0.4308  2.9248 -1.8845
 7720SOL     OW28097   3.096   7.449   2.527 -0.2394  0.3567 -0.1898
 7720SOL    HW128098   3.179   7.496   2.537 -0.1327 -0.0003  0.7527
 7720SOL    HW228099   3.119   7.357   2.544 -0.9048  0.3191  0.5896
 7721SOL     OW28100   7.854   9.868   5.994 -0.3928  0.5117  0.4646
 7721SOL    HW128101   7.799   9.850   6.070 -1.8482  1.0015 -0.4353
 7721SOL    HW228102   7.801   9.840   5.919  0.8207  0.4766 -0.4126
 7722SOL     OW28103  11.657   9.357   2.949  0.0418 -0.0218  0.1085
 7722SOL    HW128104  11.608   9.366   3.031  1.3894  0.2372  0.9125
 7722SOL    HW228105  11.657   9.263   2.931  0.9474 -0.2482  1.1903
 7723SOL     OW28106   7.743   9.232   3.483  0.2131 -0.3025 -0.4402
 7723SOL    HW128107   7.666   9.263   3.435  0.6435  1.5254 -0.0106
 7723SOL    HW228108   7.815   9.241   3.421  0.2276 -1.2979 -0.5881
 7724SOL     OW28109   3.836   1.003   5.612 -0.2763  0.2894 -0.0774
 7724SOL    HW128110   3.867   1.074   5.556 -1.7502  0.4284 -0.7659
 7724SOL    HW228111   3.872   1.024   5.699  2.6178 -0.2889 -1.0119
 7725SOL     OW28112  10.350  10.231   4.608 -0.1021  0.4951  0.0592
 7725SOL    HW128113  10.270  10.179   4.603  0.7013 -0.7755  0.0595
 7725SOL    HW228114  10.353  10.263   4.698 -0.3635  0.1371  0.1955
 7726SOL     OW28115   5.335   9.477   2.872  0.0248  0.2644 -0.0207
 7726SOL    HW128116   5.426   9.472   2.846  0.3147 -1.2917  1.1411
 7726SOL    HW228117   5.290   9.415   2.815 -0.4260  1.3353 -0.8831
 7727SOL     OW28118   3.809   4.804   3.542 -0.4062 -0.1217 -0.1786
 7727SOL    HW128119   3.850   4.890   3.551  0.2167 -0.5805  1.6368
 7727SOL    HW228120   3.880   4.741   3.553 -1.2841 -0.9035  1.3390
 7728SOL     OW28121  11.421   4.514   5.774 -0.0591 -0.5911  0.2995
 7728SOL    HW128122  11.326   4.508   5.759 -0.0125  0.9414 -0.8686
 7728SOL    HW228123  11.430   4.566   5.854 -0.2049 -0.0484 -0.0330
 7729SOL     OW28124   6.049   2.986   8.867 -0.2627 -0.5833  0.0471
 7729SOL    HW128125   6.105   2.965   8.792 -1.1487 -1.9166 -0.2694
 7729SOL    HW228126   6.111   3.005   8.938  0.5937 -1.2579 -0.4933
 7730SOL     OW28127   1.937   2.617   2.240  0.2020 -0.3537  0.6260
 7730SOL    HW128128   1.895   2.569   2.168 -0.7337 -0.3733  1.1748
 7730SOL    HW228129   2.030   2.618   2.216 -0.0165 -0.8328 -0.3117
 7731SOL     OW28130   9.080   6.729   0.741 -0.8925 -0.2704 -0.5157
 7731SOL    HW128131   9.037   6.815   0.745  1.5100  1.0095 -0.1118
 7731SOL    HW228132   9.028   6.679   0.678 -2.0106  1.7046 -1.2566
 7732SOL     OW28133   2.844   3.649   6.321  0.2648  0.4984  0.3694
 7732SOL    HW128134   2.751   3.645   6.297  0.5217  0.5012 -0.6685
 7732SOL    HW228135   2.884   3.575   6.276  0.5166 -0.4817  2.1035
 7733SOL     OW28136   7.554   8.814   8.304  0.5164  0.1179  0.6479
 7733SOL    HW128137   7.556   8.806   8.208  1.5475  0.1372  0.6504
 7733SOL    HW228138   7.637   8.774   8.332 -0.2731 -0.8960  1.6173
 7734SOL     OW28139   5.236   3.055   8.847 -0.5816  0.0728 -0.0400
 7734SOL    HW128140   5.210   3.140   8.882  1.0799 -0.1559  1.9102
 7734SOL    HW228141   5.167   2.995   8.876 -0.7084  0.4093  0.3597
 7735SOL     OW28142   4.556   0.960   4.274  0.2006  0.1427  0.0798
 7735SOL    HW128143   4.540   0.935   4.183 -0.3419 -2.0611  0.7189
 7735SOL    HW228144   4.496   0.906   4.324  0.6721  1.1309  1.7920
 7736SOL     OW28145   5.046   0.727   0.704  0.0631 -0.1770 -0.0559
 7736SOL    HW128146   5.127   0.729   0.655  0.4926  0.5308  0.6538
 7736SOL    HW228147   5.065   0.778   0.783 -1.4536  1.1102 -0.4725
 7737SOL     OW28148   0.254   0.676   4.551 -0.0221 -0.6626 -0.4144
 7737SOL    HW128149   0.260   0.758   4.600 -1.0606 -0.2739 -0.9000
 7737SOL    HW228150   0.267   0.702   4.459  1.3477 -1.3025 -0.4279
 7738SOL     OW28151   9.607   8.467   3.274  0.2455  0.5808  0.1512
 7738SOL    HW128152   9.590   8.462   3.368 -0.9857  0.9885 -0.0360
 7738SOL    HW228153   9.612   8.376   3.246 -0.7160  0.4444  0.3875
 7739SOL     OW28154   1.240  10.344   4.290  0.5107 -0.4009  0.2267
 7739SOL    HW128155   1.335  10.337   4.277  0.8779  0.5949  2.0475
 7739SOL    HW228156   1.217  10.426   4.247  0.3778 -0.8646 -0.6050
 7740SOL     OW28157  11.571  11.128   7.015  0.2405  0.1585  0.3776
 7740SOL    HW128158  11.613  11.079   7.085 -1.3144 -0.0804  1.1789
 7740SOL    HW228159  11.478  11.104   7.021  0.2651 -1.3442 -2.9426
 7741SOL     OW28160   4.364   3.928   6.355  0.3708 -0.1680 -0.3863
 7741SOL    HW128161   4.449   3.926   6.312 -0.9820 -4.8506 -3.5747
 7741SOL    HW228162   4.306   3.971   6.292  0.0098  1.9422  1.2669
 7742SOL     OW28163   1.417  10.528   3.360 -0.3990 -0.2842  0.2177
 7742SOL    HW128164   1.480  10.563   3.423 -1.6238  1.2443  0.6764
 7742SOL    HW228165   1.459  10.450   3.324  0.8334 -0.5344  2.0626
 7743SOL     OW28166   3.921   3.388   4.987  0.3226 -0.7375 -0.5514
 7743SOL    HW128167   3.997   3.334   5.009 -0.1787 -0.7932  1.1874
 7743SOL    HW228168   3.866   3.331   4.933  0.4133 -1.5351  0.1689
 7744SOL     OW28169   9.356  11.229   9.313 -0.0593 -0.1723 -0.4410
 7744SOL    HW128170   9.368  11.183   9.397  0.6868  0.5353 -0.1444
 7744SOL    HW228171   9.287  11.180   9.269 -0.9475 -0.1692  0.8672
 7745SOL     OW28172   8.586   5.675  11.324  0.0930 -0.4359  0.2925
 7745SOL    HW128173   8.494   5.652  11.309 -0.2018  1.0479 -0.3371
 7745SOL    HW228174   8.627   5.668  11.238  0.1873  0.4711  0.2517
 7746SOL     OW28175   9.524   8.894   6.317  0.5377 -0.2634 -0.4659
 7746SOL    HW128176   9.549   8.828   6.253 -0.7764 -1.5515  0.2895
 7746SOL    HW228177   9.428   8.890   6.319  0.4939  0.8083  0.4985
 7747SOL     OW28178   5.306   8.223   3.105  0.2160 -0.1450  0.2528
 7747SOL    HW128179   5.357   8.260   3.177  0.2547 -0.1187  0.2121
 7747SOL    HW228180   5.278   8.300   3.054 -0.5230 -0.0932  0.7104
 7748SOL     OW28181   7.244   6.468   2.234 -0.1352  0.6333 -0.4334
 7748SOL    HW128182   7.228   6.433   2.322  0.6534  2.2517  0.4088
 7748SOL    HW228183   7.162   6.511   2.211 -0.2259  0.5159 -0.3343
 7749SOL     OW28184  10.822  11.052   5.279 -0.0915 -0.0243  0.4072
 7749SOL    HW128185  10.784  11.027   5.364  0.4133 -0.4348  0.5167
 7749SOL    HW228186  10.752  11.038   5.216  0.4681 -2.8559  0.2779
 7750SOL     OW28187   4.290   3.774   1.292 -0.0972  0.3286  0.2276
 7750SOL    HW128188   4.320   3.838   1.227  3.3797 -3.1009 -1.9403
 7750SOL    HW228189   4.369   3.748   1.338 -1.2089 -2.7184  0.6264
 7751SOL     OW28190   6.325   8.316   5.132 -0.2697  0.2865  0.1783
 7751SOL    HW128191   6.317   8.393   5.188 -1.7976 -0.5087  1.1364
 7751SOL    HW228192   6.234   8.287   5.119  0.1331 -0.2283 -1.7762
 7752SOL     OW28193   9.754  11.554   6.480  0.2864  0.1020 -0.4542
 7752SOL    HW128194   9.814  11.598   6.421  0.5072  0.6639  0.1833
 7752SOL    HW228195   9.710  11.625   6.528 -1.3242 -0.2530 -1.3177
 7753SOL     OW28196   5.982   9.884   6.749 -0.6246  0.1775 -0.1553
 7753SOL    HW128197   5.895   9.846   6.737 -1.2035  1.2533  0.4854
 7753SOL    HW228198   6.037   9.810   6.772 -0.9938 -0.7930 -2.1868
 7754SOL     OW28199  10.782   3.893   5.331  0.2455  0.2383 -0.1005
 7754SOL    HW128200  10.702   3.933   5.366 -0.8375 -1.5410 -0.4308
 7754SOL    HW228201  10.763   3.879   5.238  1.4979  1.0471 -0.5111
 7755SOL     OW28202  10.706   2.049   9.390  0.5968 -0.1944  0.4078
 7755SOL    HW128203  10.708   2.137   9.354 -0.5918 -1.0295 -1.9543
 7755SOL    HW228204  10.614   2.025   9.390  0.9498 -1.6535  0.3403
 7756SOL     OW28205   9.193   4.837   2.802 -1.0759 -0.2222 -0.0034
 7756SOL    HW128206   9.115   4.798   2.760 -1.4719  1.2685 -0.7092
 7756SOL    HW228207   9.183   4.816   2.895 -2.8510  0.7456  0.0719
 7757SOL     OW28208   4.706   1.765   2.298  0.2026 -0.2608 -1.2743
 7757SOL    HW128209   4.701   1.857   2.272 -2.1822  1.0314  2.8426
 7757SOL    HW228210   4.783   1.760   2.355 -0.9033 -0.2336  0.2528
 7758SOL     OW28211   8.907   2.834   1.813 -0.0968 -0.1721 -0.2349
 7758SOL    HW128212   8.825   2.865   1.851 -0.1897 -1.6369  0.8787
 7758SOL    HW228213   8.919   2.747   1.850  2.0063  0.0258 -0.3089
 7759SOL     OW28214   3.006   6.826   9.473  0.4289 -0.7499  0.8302
 7759SOL    HW128215   2.947   6.884   9.522 -0.7759  0.6726 -2.0937
 7759SOL    HW228216   2.949   6.760   9.434  0.9624 -0.3876 -0.6365
 7760SOL     OW28217  11.139  11.071   5.171 -0.1345 -0.0296  0.1525
 7760SOL    HW128218  11.068  11.100   5.113  0.2512 -1.2581 -1.0107
 7760SOL    HW228219  11.109  10.987   5.205  0.6725 -0.4957 -0.2431
 7761SOL     OW28220  10.040   3.860   3.153  0.0431  0.1404 -0.4722
 7761SOL    HW128221   9.957   3.813   3.159  0.1785 -0.1828 -1.0455
 7761SOL    HW228222  10.106   3.798   3.185 -0.0299  0.7038  0.8260
 7762SOL     OW28223   0.091   5.458  11.501  0.3969 -0.6175  0.2404
 7762SOL    HW128224   0.108   5.534  11.557 -0.5282 -0.9638  1.0227
 7762SOL    HW228225   0.074   5.386  11.562  0.7802 -1.3511 -0.4909
 7763SOL     OW28226   2.970   8.670  11.478  0.1630  0.2548  0.1482
 7763SOL    HW128227   2.943   8.662  11.570  0.7125  0.4679  0.3316
 7763SOL    HW228228   2.927   8.750  11.448  1.8565  1.5126  0.9109
 7764SOL     OW28229  10.724   4.221   5.594 -0.4383  0.0512 -0.3089
 7764SOL    HW128230  10.731   4.209   5.499  0.3063 -0.2675 -0.2179
 7764SOL    HW228231  10.727   4.316   5.606 -0.0335  0.0767 -0.5748
 7765SOL     OW28232   4.437   2.102   9.776 -0.1444 -0.0426 -0.3641
 7765SOL    HW128233   4.491   2.023   9.769 -0.3081 -0.2759  0.8028
 7765SOL    HW228234   4.358   2.073   9.821  0.8466  1.2494  2.4321
 7766SOL     OW28235   3.472   6.248   6.658 -0.2884  0.7259  0.5990
 7766SOL    HW128236   3.486   6.256   6.752 -1.4631  3.2426  0.6304
 7766SOL    HW228237   3.496   6.333   6.622  0.5969 -0.3244 -1.4762
 7767SOL     OW28238   8.622   8.791   2.125  0.1752  0.5388  0.4015
 7767SOL    HW128239   8.568   8.817   2.051  0.5889  0.3577  0.0359
 7767SOL    HW228240   8.610   8.861   2.189  0.1113  0.8816  0.0176
 7768SOL     OW28241   3.379   1.463   1.780 -0.1799 -0.2933 -0.0900
 7768SOL    HW128242   3.306   1.498   1.728  0.3005 -0.6549 -1.0389
 7768SOL    HW228243   3.451   1.524   1.765  0.7410 -1.7001 -1.9520
 7769SOL     OW28244   5.526   5.260   4.869  0.4565 -0.0692 -0.1509
 7769SOL    HW128245   5.503   5.325   4.935  1.5406 -0.8337  1.0175
 7769SOL    HW228246   5.564   5.188   4.918  1.2608 -0.6881 -1.6106
 7770SOL     OW28247  11.336   9.716   5.345 -0.2477  0.2506 -0.1368
 7770SOL    HW128248  11.254   9.672   5.320  0.9040 -1.8884 -0.3294
 7770SOL    HW228249  11.321   9.744   5.435 -0.6667 -1.4763  0.3541
 7771SOL     OW28250   0.203   7.127   7.026  0.4844  0.0357 -0.0954
 7771SOL    HW128251   0.222   7.135   6.933  1.1964 -0.3284  0.0169
 7771SOL    HW228252   0.287   7.138   7.069  0.2591 -0.3925  0.4709
 7772SOL     OW28253   5.940   8.441   6.932  0.6003  0.9900 -0.2475
 7772SOL    HW128254   5.881   8.443   6.856  1.0851 -1.0970 -0.7463
 7772SOL    HW228255   5.884   8.417   7.006  0.4968  0.8623 -0.3669
 7773SOL     OW28256   2.385   4.625   8.231 -0.3634 -0.4168  0.5142
 7773SOL    HW128257   2.447   4.567   8.188 -1.5040 -3.2025  2.3175
 7773SOL    HW228258   2.400   4.611   8.324 -1.2948  1.5950  1.0164
 7774SOL     OW28259   5.160  10.379  11.613 -0.4046 -0.0351  0.1793
 7774SOL    HW128260   5.129  10.395  11.523 -0.5970  0.6075  0.3570
 7774SOL    HW228261   5.079  10.369  11.664 -0.3053  0.5646  0.4521
 7775SOL     OW28262   5.235   3.256   3.287  0.2534  0.2880 -0.1166
 7775SOL    HW128263   5.278   3.315   3.225 -0.4685  0.5679 -0.3648
 7775SOL    HW228264   5.145   3.250   3.256 -0.4003  1.2318  1.4574
 7776SOL     OW28265   8.061   5.094   3.646  0.1424 -0.1385 -0.0872
 7776SOL    HW128266   7.970   5.119   3.662  0.4443  0.3548  0.9006
 7776SOL    HW228267   8.055   5.010   3.601 -0.7790 -1.4562  2.3182
 7777SOL     OW28268   1.489   8.756   2.582  0.3224 -0.2430  0.2656
 7777SOL    HW128269   1.467   8.827   2.520  0.0777 -0.0675  0.5530
 7777SOL    HW228270   1.544   8.697   2.531  0.2323 -0.0302 -0.0865
 7778SOL     OW28271  11.151   7.777   1.101  0.1148  0.1087  0.4351
 7778SOL    HW128272  11.246   7.786   1.112  0.0484 -1.0129  2.5036
 7778SOL    HW228273  11.136   7.683   1.092 -0.7292  0.3690 -1.2703
 7779SOL     OW28274   6.126   1.475   2.605 -0.4297 -0.0474 -0.0320
 7779SOL    HW128275   6.065   1.414   2.564  1.6108 -1.8930 -0.4783
 7779SOL    HW228276   6.129   1.449   2.697  0.1407 -0.3795 -0.1399
 7780SOL     OW28277   9.667   5.793  11.370 -0.0609 -0.7842  0.4893
 7780SOL    HW128278   9.635   5.706  11.395  1.5778 -1.2268  1.1305
 7780SOL    HW228279   9.730   5.816  11.438  1.6883 -0.3661 -1.1844
 7781SOL     OW28280   7.337   0.049   1.407  0.9762  0.1013  0.0073
 7781SOL    HW128281   7.294   0.116   1.352 -0.3773 -0.1564  0.6995
 7781SOL    HW228282   7.331  -0.031   1.355  0.8624  0.1233 -0.0156
 7782SOL     OW28283   8.892   1.283  10.283  0.0408 -0.3082 -0.0756
 7782SOL    HW128284   8.810   1.277  10.330 -2.0317  1.4156 -3.0867
 7782SOL    HW228285   8.931   1.365  10.313 -0.3992 -0.0749 -0.1386
 7783SOL     OW28286  10.200   5.232   8.321  0.2394 -0.5006  0.0033
 7783SOL    HW128287  10.214   5.138   8.311  0.8343 -0.5645  1.2282
 7783SOL    HW228288  10.285   5.266   8.350 -0.2039  0.2811  0.4112
 7784SOL     OW28289  10.141   4.516   8.701  0.2308 -0.0081 -0.3543
 7784SOL    HW128290  10.103   4.594   8.741  2.1968  1.3888 -1.0558
 7784SOL    HW228291  10.116   4.444   8.759 -3.1256  0.8122 -0.6217
 7785SOL     OW28292   6.650  11.080   0.502 -0.5550 -0.2458 -0.2899
 7785SOL    HW128293   6.662  11.094   0.596 -1.8826 -0.7541 -0.0196
 7785SOL    HW228294   6.727  11.119   0.462  0.9724 -1.6519  1.1288
 7786SOL     OW28295   8.409  11.303   4.270  0.0126 -0.0304  0.8459
 7786SOL    HW128296   8.453  11.228   4.231 -0.7058  0.7650 -1.6497
 7786SOL    HW228297   8.317  11.291   4.249 -0.3542  0.6719  1.9495
 7787SOL     OW28298   4.992   7.674   6.027  0.2614  0.1539  0.1545
 7787SOL    HW128299   5.053   7.616   5.982  0.2597  1.7966 -2.1757
 7787SOL    HW228300   5.038   7.758   6.032 -1.0983  0.9437 -0.0323
 7788SOL     OW28301   4.603   0.403   2.630  0.3325 -0.2289 -0.1940
 7788SOL    HW128302   4.601   0.456   2.709  0.6400 -0.8336  0.2213
 7788SOL    HW228303   4.601   0.467   2.559  0.6370  0.3400  0.3004
 7789SOL     OW28304   0.635   8.909  10.732  0.0541 -0.0386 -0.4067
 7789SOL    HW128305   0.707   8.962  10.768 -0.3050  1.7424 -2.1417
 7789SOL    HW228306   0.559   8.932  10.785  1.0441 -3.8720  3.2004
 7790SOL     OW28307   4.134   9.623   0.111  0.5188  0.4661 -0.2946
 7790SOL    HW128308   4.067   9.684   0.079 -0.2137 -0.0333  0.2382
 7790SOL    HW228309   4.124   9.545   0.058  0.0776  0.0656  0.3579
 7791SOL     OW28310   8.119   3.890   9.931  0.3538 -0.2437 -0.3207
 7791SOL    HW128311   8.162   3.961   9.884  0.9470 -1.8182 -2.2884
 7791SOL    HW228312   8.025   3.904   9.915  0.3519  0.9358  0.6194
 7792SOL     OW28313  10.070   3.196   4.444  0.1568  0.6345 -0.4008
 7792SOL    HW128314  10.093   3.176   4.353  0.3281  0.6466 -0.3612
 7792SOL    HW228315   9.978   3.171   4.452 -1.0384  4.0208 -1.6206
 7793SOL     OW28316   0.149  11.082   8.770  0.1110 -0.2659  0.2640
 7793SOL    HW128317   0.141  11.154   8.707 -0.9091 -0.0978  0.5666
 7793SOL    HW228318   0.084  11.018   8.742 -0.6373 -0.0187  1.3448
 7794SOL     OW28319   2.957   5.829   4.952  0.5342  0.2081  0.4889
 7794SOL    HW128320   2.885   5.883   4.986 -0.1849 -0.8720  0.7160
 7794SOL    HW228321   2.979   5.770   5.023  1.4166  0.2793  0.2906
 7795SOL     OW28322   8.286   1.947   6.423  0.4190  0.1140 -0.0001
 7795SOL    HW128323   8.288   1.998   6.504  0.7412  1.1250 -0.6354
 7795SOL    HW228324   8.223   1.992   6.367 -0.0192 -0.7441 -0.2168
 7796SOL     OW28325  11.016   6.819   5.947 -0.3415  0.2130  0.0773
 7796SOL    HW128326  11.103   6.792   5.918  0.4214  1.8766  0.7398
 7796SOL    HW228327  10.980   6.868   5.873 -0.9217 -0.8421 -0.3634
 7797SOL     OW28328   0.776   1.336   7.715 -0.4034 -0.0126 -0.2816
 7797SOL    HW128329   0.714   1.399   7.678  0.3567  0.1436 -1.3548
 7797SOL    HW228330   0.788   1.271   7.646  1.4685  0.5668 -0.5708
 7798SOL     OW28331   5.395   2.445   5.323 -0.0196 -0.1299  0.0281
 7798SOL    HW128332   5.317   2.390   5.329 -1.8052  2.2075 -0.3960
 7798SOL    HW228333   5.384   2.509   5.393  2.0761 -0.3471  0.6082
 7799SOL     OW28334  10.092   5.928   1.928 -0.1861  0.6476  0.1520
 7799SOL    HW128335  10.055   5.981   1.998  0.4148  0.7821  0.3801
 7799SOL    HW228336  10.018   5.907   1.871 -0.4249  1.7665  0.0363
 7800SOL     OW28337   0.076  10.097   7.760  0.1411  0.7283  0.3814
 7800SOL    HW128338   0.126  10.148   7.824  1.5067 -2.3013  1.9815
 7800SOL    HW228339  -0.015  10.101   7.790  0.0870  2.7207  0.0272
 7801SOL     OW28340   8.318   7.960   3.435 -0.1579  0.3052 -0.0148
 7801SOL    HW128341   8.364   8.036   3.469 -0.0356 -0.2822  1.1723
 7801SOL    HW228342   8.227   7.974   3.459 -0.1283  0.0576  0.2432
 7802SOL     OW28343   6.716   7.882   3.397 -0.6442  0.1833  0.6152
 7802SOL    HW128344   6.678   7.825   3.330 -1.8453 -0.6737  1.9440
 7802SOL    HW228345   6.809   7.887   3.375 -0.6525 -1.6115 -0.0439
 7803SOL     OW28346   0.457   9.310   0.100 -0.2157  0.0903  0.1581
 7803SOL    HW128347   0.423   9.264   0.023  0.3592  1.2788 -0.8471
 7803SOL    HW228348   0.544   9.274   0.113  0.7194  1.6291 -1.3625
 7804SOL     OW28349   7.828   1.003  11.451  0.0776 -0.2975 -0.1903
 7804SOL    HW128350   7.738   0.986  11.480  0.4329  1.0917  1.9599
 7804SOL    HW228351   7.879   0.930  11.487 -0.0355 -0.6155 -0.6608
 7805SOL     OW28352   0.395   8.326  11.111 -0.4149  0.8564 -0.5337
 7805SOL    HW128353   0.441   8.383  11.173  1.6143  1.1272 -2.1626
 7805SOL    HW228354   0.340   8.385  11.060 -0.2123  1.0091 -0.5787
 7806SOL     OW28355   4.830   4.738  10.738  0.3048  0.1504  0.0189
 7806SOL    HW128356   4.754   4.786  10.705 -0.5717 -1.7568 -0.8579
 7806SOL    HW228357   4.875   4.707  10.659  0.3012 -1.2564  0.5363
 7807SOL     OW28358  11.666   2.605   7.847 -0.2291  0.1712 -0.1427
 7807SOL    HW128359  11.590   2.584   7.901 -1.6543  1.3823 -1.5749
 7807SOL    HW228360  11.691   2.521   7.809 -0.0338 -0.4591  1.3234
 7808SOL     OW28361   4.699   1.992  11.099  0.1530 -0.1073  0.2539
 7808SOL    HW128362   4.777   2.013  11.047 -0.0943 -1.0447 -0.5207
 7808SOL    HW228363   4.734   1.942  11.173  0.0942 -2.9386 -1.4932
 7809SOL     OW28364   5.672   4.819   9.914 -0.0291  0.3033  0.0552
 7809SOL    HW128365   5.733   4.859   9.852 -0.3420  0.3974 -0.1972
 7809SOL    HW228366   5.727   4.791   9.987  0.1184  1.9424  0.6310
 7810SOL     OW28367   0.913   7.984   1.699  0.4852 -0.2033  0.2109
 7810SOL    HW128368   0.862   8.044   1.645  0.6202 -0.6167 -0.3790
 7810SOL    HW228369   0.950   8.040   1.768  1.2847  0.5636 -0.8016
 7811SOL     OW28370   5.951   8.776   3.398  0.4758  0.3104  0.1003
 7811SOL    HW128371   5.856   8.786   3.401  0.3395 -0.4907 -1.0247
 7811SOL    HW228372   5.972   8.721   3.474  0.2029  1.4563  1.0415
 7812SOL     OW28373   6.577   4.337   2.330 -0.4129 -0.4739  0.3139
 7812SOL    HW128374   6.647   4.313   2.391  1.1223 -1.4786 -1.7436
 7812SOL    HW228375   6.573   4.264   2.268 -1.3309  0.8777 -1.3020
 7813SOL     OW28376   3.104   4.791   2.388  0.9869 -0.6696  0.3310
 7813SOL    HW128377   3.193   4.763   2.408  1.5668  0.3920 -0.5832
 7813SOL    HW228378   3.110   4.826   2.299 -0.1277  0.3313  0.6243
 7814SOL     OW28379  10.761   4.919  10.945  0.1500 -0.1301  0.2365
 7814SOL    HW128380  10.771   4.825  10.929  1.6413 -0.0260  0.4410
 7814SOL    HW228381  10.815   4.961  10.879  2.0086  0.4682  2.0426
 7815SOL     OW28382   3.701   5.428   4.776  0.1389 -0.3044 -0.2501
 7815SOL    HW128383   3.770   5.392   4.720 -0.5359 -1.7067 -0.2248
 7815SOL    HW228384   3.687   5.517   4.742  1.3826 -0.2811 -0.7619
 7816SOL     OW28385   0.700   9.579   6.881 -0.0526  0.3378  0.2714
 7816SOL    HW128386   0.756   9.504   6.860 -1.5219 -0.3462 -1.4790
 7816SOL    HW228387   0.760   9.645   6.916  1.5020 -1.1051  0.4537
 7817SOL     OW28388   4.340   8.280   7.866  0.2085  0.5901  0.5364
 7817SOL    HW128389   4.333   8.350   7.932 -1.0101 -0.7632  1.9175
 7817SOL    HW228390   4.408   8.311   7.807  0.9159  2.1764  2.0535
 7818SOL     OW28391   4.604   6.377   2.614  0.3270 -0.0296 -0.1427
 7818SOL    HW128392   4.676   6.414   2.665 -0.1938  0.9763 -0.1123
 7818SOL    HW228393   4.539   6.447   2.610 -0.0124 -0.3927 -1.4590
 7819SOL     OW28394   9.176   4.779   4.980  0.1223 -0.3184  0.4353
 7819SOL    HW128395   9.171   4.714   4.910  1.1342 -0.3177  0.3506
 7819SOL    HW228396   9.086   4.809   4.991 -0.4939 -2.2771  0.9974
 7820SOL     OW28397   9.110   2.909   9.510 -0.0536  0.6002  0.1972
 7820SOL    HW128398   9.092   2.887   9.601  0.5195  2.5198  0.8061
 7820SOL    HW228399   9.028   2.946   9.477 -0.1824  0.1384 -0.0211
 7821SOL     OW28400   8.490   6.056   4.862  0.1381 -0.0297  0.1238
 7821SOL    HW128401   8.436   5.977   4.855  1.0751 -0.6264 -0.6922
 7821SOL    HW228402   8.441   6.113   4.921 -1.0139 -0.8421  0.0010
 7822SOL     OW28403   4.867   8.186   2.282  0.6213 -0.5414  0.1631
 7822SOL    HW128404   4.809   8.226   2.217  0.5063  1.0682  1.1858
 7822SOL    HW228405   4.951   8.175   2.237  0.3692 -0.0353 -0.4405
 7823SOL     OW28406   9.024  10.632   1.028  0.3861  0.3950 -0.2089
 7823SOL    HW128407   9.113  10.664   1.012  0.6393 -0.0687  0.2296
 7823SOL    HW228408   9.029  10.538   1.010 -0.1671  0.4674 -0.7779
 7824SOL     OW28409   1.376   4.008   4.326 -0.1753 -0.1251 -0.3858
 7824SOL    HW128410   1.340   4.096   4.324 -0.6506 -0.2864 -3.4250
 7824SOL    HW228411   1.454   4.013   4.270  0.8867 -1.2358  0.9278
 7825SOL     OW28412   3.425   5.250   7.537  0.3508 -0.2615  0.0870
 7825SOL    HW128413   3.411   5.224   7.629 -1.0703  0.4862  0.1200
 7825SOL    HW228414   3.452   5.341   7.542 -0.4256 -0.0026 -0.2501
 7826SOL     OW28415  11.499   5.302   0.216  0.1126  0.0755 -0.1245
 7826SOL    HW128416  11.570   5.328   0.275 -0.5634  1.4128  0.1369
 7826SOL    HW228417  11.450   5.235   0.266  0.4850  0.0248  0.1770
 7827SOL     OW28418   6.401   5.185   7.843 -0.2648 -0.0130 -0.8202
 7827SOL    HW128419   6.345   5.193   7.920  0.3531  0.7050 -0.4318
 7827SOL    HW228420   6.450   5.104   7.857  1.1334  0.9987  0.4300
 7828SOL     OW28421   7.652   7.684  10.089  0.0166 -0.1740 -0.1832
 7828SOL    HW128422   7.598   7.691  10.168 -2.1109 -2.3795 -1.3130
 7828SOL    HW228423   7.740   7.663  10.121 -1.3178 -3.8077  1.6557
 7829SOL     OW28424  10.510   0.150   0.844  0.2678 -0.0833  0.1565
 7829SOL    HW128425  10.598   0.113   0.845 -0.3220 -1.5557  0.2110
 7829SOL    HW228426  10.454   0.079   0.876 -0.7554  1.3245  1.6815
 7830SOL     OW28427   5.282   8.736  11.455  0.0366  0.1490 -0.6330
 7830SOL    HW128428   5.249   8.807  11.399  0.8501 -0.2916 -1.7001
 7830SOL    HW228429   5.367   8.713  11.417  0.2265 -0.7324  0.2959
 7831SOL     OW28430   6.872   6.807   2.583 -0.2733 -0.4913 -0.3205
 7831SOL    HW128431   6.855   6.897   2.608  2.1905 -0.0174 -0.1193
 7831SOL    HW228432   6.967   6.799   2.583 -0.4088 -3.0518 -0.5041
 7832SOL     OW28433  11.206   6.604   9.599  0.3497  0.3459 -0.2155
 7832SOL    HW128434  11.180   6.671   9.536 -1.2490 -0.6162 -0.6487
 7832SOL    HW228435  11.281   6.561   9.558 -0.6309 -0.2299 -1.4942
 7833SOL     OW28436   4.548   7.836   1.314 -0.5401  0.1410  0.2895
 7833SOL    HW128437   4.576   7.918   1.273  1.3331 -1.3233 -1.5644
 7833SOL    HW228438   4.479   7.803   1.256 -2.8675  1.3255  2.1904
 7834SOL     OW28439   6.361   1.005   4.445  0.1717 -0.2614  0.1828
 7834SOL    HW128440   6.333   1.076   4.388  3.0863 -0.1456 -1.2977
 7834SOL    HW228441   6.290   0.996   4.509 -0.4819  3.7397  0.2784
 7835SOL     OW28442   8.150   1.372   6.619  0.0648  0.0197 -0.3208
 7835SOL    HW128443   8.122   1.297   6.672  1.9003 -0.3248  0.2654
 7835SOL    HW228444   8.179   1.437   6.683  0.9156  0.1931 -0.8589
 7836SOL     OW28445   2.180   6.996   6.790 -0.2702  0.0892  0.0561
 7836SOL    HW128446   2.174   6.957   6.877  0.0484 -0.0516  0.0148
 7836SOL    HW228447   2.089   7.006   6.762 -0.4008 -2.9350 -0.9612
 7837SOL     OW28448   5.965   6.198  11.393  0.5665  0.7421 -0.5448
 7837SOL    HW128449   5.972   6.132  11.324  0.7925 -0.4217  0.5637
 7837SOL    HW228450   5.984   6.281  11.348  1.2795 -0.0466 -1.7682
 7838SOL     OW28451   9.311   2.582   6.638  0.2420 -0.6252  0.2691
 7838SOL    HW128452   9.384   2.524   6.658 -0.2648 -1.5592 -0.5710
 7838SOL    HW228453   9.253   2.531   6.583 -0.5910  0.4285  0.1341
 7839SOL     OW28454   0.396   8.493   1.173 -0.0948 -0.0833 -0.7337
 7839SOL    HW128455   0.482   8.534   1.164  0.9114 -1.4726  1.7178
 7839SOL    HW228456   0.409   8.403   1.142 -0.8484 -0.1306 -0.9416
 7840SOL     OW28457   7.813   3.040   9.439 -0.5090  0.1088 -0.5159
 7840SOL    HW128458   7.774   2.990   9.367 -0.2449  1.1499 -1.4134
 7840SOL    HW228459   7.885   3.088   9.399  0.7833 -0.6497  0.8310
 7841SOL     OW28460   5.540   7.588   5.355  0.2722 -0.3368  0.1282
 7841SOL    HW128461   5.625   7.617   5.322  1.0543 -0.8422  1.6150
 7841SOL    HW228462   5.490   7.566   5.276  2.2847 -2.1543 -0.7349
 7842SOL     OW28463   0.978   8.388   7.528 -0.2369  0.2086  0.1788
 7842SOL    HW128464   0.991   8.483   7.524 -0.7650  0.2436 -2.1740
 7842SOL    HW228465   0.898   8.377   7.580 -0.1450  1.0353  0.5173
 7843SOL     OW28466  10.145  10.428   0.045 -0.4758  0.0852  0.1634
 7843SOL    HW128467  10.162  10.383   0.128 -2.1715  1.6998  1.4917
 7843SOL    HW228468  10.216  10.491   0.036  0.7453 -1.3527 -0.6253
 7844SOL     OW28469   3.519  11.322   2.584 -0.1076  0.2824  0.1466
 7844SOL    HW128470   3.483  11.236   2.560  1.9971 -0.0571 -2.1861
 7844SOL    HW228471   3.613  11.306   2.595  0.1637  2.0933  0.8071
 7845SOL     OW28472   6.936   7.766  10.380 -0.3004  0.2089  0.0185
 7845SOL    HW128473   6.957   7.704  10.311  0.4585 -0.2187  0.6159
 7845SOL    HW228474   6.912   7.846  10.334  0.9151  0.1614 -0.7370
 7846SOL     OW28475   5.758   6.454   6.672  0.2224 -0.8243  0.6006
 7846SOL    HW128476   5.816   6.477   6.599 -0.0898  0.2764  0.6687
 7846SOL    HW228477   5.701   6.531   6.681 -0.3462 -1.3304  1.4084
 7847SOL     OW28478   5.275   5.364   0.279  0.1409 -0.1029 -0.4527
 7847SOL    HW128479   5.325   5.283   0.287 -1.8003 -1.4677 -1.4365
 7847SOL    HW228480   5.188   5.343   0.311 -0.5187  1.4980 -1.0699
 7848SOL     OW28481   1.572   5.937   9.087 -0.2909  0.6190 -0.8637
 7848SOL    HW128482   1.606   5.979   9.166  0.5099  0.8602 -1.3321
 7848SOL    HW228483   1.516   5.867   9.120  0.1579  0.6167 -0.0827
 7849SOL     OW28484   4.060   3.854   9.518  0.2658 -0.0842 -0.3435
 7849SOL    HW128485   4.037   3.822   9.605  1.7962  0.8462  0.4576
 7849SOL    HW228486   4.069   3.776   9.464 -2.3051 -0.5972 -0.1242
 7850SOL     OW28487   2.623   5.725   4.487  0.1019  0.1650  0.0723
 7850SOL    HW128488   2.605   5.735   4.580 -0.1725 -2.9474  0.4704
 7850SOL    HW228489   2.562   5.656   4.458  0.9984  0.2032 -2.1265
 7851SOL     OW28490   8.635   5.891   4.463  0.2484 -0.0199 -0.0657
 7851SOL    HW128491   8.641   5.823   4.395 -0.3393 -0.5769  0.4308
 7851SOL    HW228492   8.542   5.903   4.477  0.3627  0.4342  0.3112
 7852SOL     OW28493   2.084   5.177   2.977  0.1278 -0.2628 -0.5361
 7852SOL    HW128494   1.997   5.190   2.939  0.1685  1.8524 -0.0260
 7852SOL    HW228495   2.096   5.082   2.976 -1.9577 -0.5855 -1.0960
 7853SOL     OW28496   5.888   5.632   3.972 -0.7173 -0.1400  0.1156
 7853SOL    HW128497   5.834   5.662   4.045  1.7877  1.0347  1.6340
 7853SOL    HW228498   5.928   5.712   3.938 -2.0534 -0.5979 -2.8759
 7854SOL     OW28499   3.267   6.387   1.103 -0.0594 -0.1327 -0.1555
 7854SOL    HW128500   3.268   6.354   1.193 -0.1290  0.4865  0.0794
 7854SOL    HW228501   3.352   6.430   1.092 -0.8474  1.6541  0.3426
 7855SOL     OW28502   9.287   9.390   6.546 -0.0937  0.0568 -0.1217
 7855SOL    HW128503   9.258   9.352   6.629 -0.9182 -0.5945 -0.6932
 7855SOL    HW228504   9.383   9.387   6.551 -0.0186  2.3986  1.8817
 7856SOL     OW28505   7.729  11.429   2.204 -0.5276  0.1928 -0.3676
 7856SOL    HW128506   7.664  11.415   2.134 -0.3544  2.0029 -0.9358
 7856SOL    HW228507   7.678  11.462   2.278 -0.3419  1.1849 -0.6664
 7857SOL     OW28508   8.961   5.339   0.110  0.5700  0.2762 -0.3598
 7857SOL    HW128509   8.983   5.380   0.194 -0.3571 -0.5381  0.3059
 7857SOL    HW228510   8.991   5.402   0.044  1.1373  1.0200  0.5842
 7858SOL     OW28511   7.545  10.137   6.546  0.1110 -0.5367  0.2144
 7858SOL    HW128512   7.628  10.178   6.523  0.1504 -0.7023  0.0583
 7858SOL    HW228513   7.565  10.043   6.550 -0.3287 -0.6990 -0.9792
 7859SOL     OW28514   9.514   6.192   2.011 -0.1126 -0.1436  0.0464
 7859SOL    HW128515   9.456   6.164   1.941 -0.0239  1.4523 -0.7097
 7859SOL    HW228516   9.456   6.212   2.085 -0.5251  1.1679 -0.6121
 7860SOL     OW28517   2.113   1.204   9.821 -0.1127 -0.2336  0.4222
 7860SOL    HW128518   2.172   1.198   9.896  0.8002  1.4990 -0.1038
 7860SOL    HW228519   2.146   1.140   9.758  1.0681  0.5215  0.2495
 7861SOL     OW28520   9.623  10.630   6.183 -0.6136  0.7440 -0.0549
 7861SOL    HW128521   9.699  10.579   6.212 -0.0597  3.1199  3.1961
 7861SOL    HW228522   9.548  10.573   6.201  0.1262  0.1664  1.4240
 7862SOL     OW28523   7.749   4.241   4.309  0.3081  0.1255 -0.7085
 7862SOL    HW128524   7.706   4.291   4.378  0.1537  0.2562 -0.8978
 7862SOL    HW228525   7.683   4.175   4.284  0.6458 -0.4088 -0.2052
 7863SOL     OW28526   2.608   2.600   2.658  0.1182 -0.0703 -0.6751
 7863SOL    HW128527   2.533   2.659   2.667  0.9345  0.8920  0.0124
 7863SOL    HW228528   2.623   2.566   2.746 -0.0074 -0.8993 -0.9670
 7864SOL     OW28529   4.219  11.318   6.487  0.4435 -0.5910 -0.1480
 7864SOL    HW128530   4.178  11.386   6.433 -1.1011  0.0080  1.7001
 7864SOL    HW228531   4.172  11.238   6.465 -0.2766 -0.3214  0.4033
 7865SOL     OW28532   1.421   1.882  10.800  0.3962  0.2608  0.3938
 7865SOL    HW128533   1.510   1.851  10.786  0.5776  1.3229 -1.0463
 7865SOL    HW228534   1.431   1.970  10.836 -0.0650  0.4041  0.1832
 7866SOL     OW28535   2.526   4.223   2.386 -0.2876  0.4962  0.0796
 7866SOL    HW128536   2.454   4.241   2.446 -0.3583  1.7079 -0.3445
 7866SOL    HW228537   2.573   4.305   2.380  1.3171 -0.3431  0.5613
 7867SOL     OW28538   0.329   8.567   7.247  0.3369  0.1212 -0.1782
 7867SOL    HW128539   0.340   8.550   7.340 -1.2110  0.4809  0.1017
 7867SOL    HW228540   0.363   8.656   7.235  1.8184 -0.4358 -0.2497
 7868SOL     OW28541   6.021  10.812   8.159 -0.0109  0.3673  0.3437
 7868SOL    HW128542   6.056  10.863   8.232  1.2353 -2.5394  1.9838
 7868SOL    HW228543   5.940  10.774   8.193  0.3462 -0.6466  0.1217
 7869SOL     OW28544   3.600   7.218   9.910  0.1858  0.7392  0.4399
 7869SOL    HW128545   3.590   7.192   9.819  0.9495 -3.0425  1.2735
 7869SOL    HW228546   3.523   7.272   9.928 -0.7731  0.3197 -2.0119
 7870SOL     OW28547   7.621   5.286   4.314  0.3286  0.3262 -0.2909
 7870SOL    HW128548   7.526   5.294   4.308 -0.2138 -1.8141  2.8429
 7870SOL    HW228549   7.648   5.360   4.368 -0.3286 -1.3747  2.5990
 7871SOL     OW28550   0.024   4.472   7.466  0.6575  0.1850 -0.1831
 7871SOL    HW128551  -0.060   4.500   7.503  0.7542 -0.1780  0.3195
 7871SOL    HW228552   0.014   4.378   7.453  1.3376 -0.0436  0.8475
 7872SOL     OW28553   5.320  10.474   0.116 -0.1157 -0.0456 -0.0053
 7872SOL    HW128554   5.257  10.431   0.058 -0.1663 -1.8046  1.2811
 7872SOL    HW228555   5.274  10.480   0.200  1.3440 -1.2747  0.9305
 7873SOL     OW28556   4.529   0.302   1.258 -0.1738 -0.6251  0.4470
 7873SOL    HW128557   4.553   0.245   1.331  0.9664 -0.6213  0.0902
 7873SOL    HW228558   4.449   0.346   1.288 -0.3821 -1.4907  1.2131
 7874SOL     OW28559   3.839   8.892  11.302  0.2283 -0.0946  0.5875
 7874SOL    HW128560   3.747   8.890  11.328 -0.0119 -0.5654 -0.2578
 7874SOL    HW228561   3.869   8.979  11.327 -0.4440  0.0668  0.8670
 7875SOL     OW28562   1.295   8.020  11.313  0.4681 -0.4549 -0.3062
 7875SOL    HW128563   1.283   7.985  11.402 -0.3568  2.0820  0.6642
 7875SOL    HW228564   1.215   7.995  11.267  0.6097 -1.2253 -0.1531
 7876SOL     OW28565  10.576   4.940   4.441  0.9209 -0.2263  0.2066
 7876SOL    HW128566  10.542   5.019   4.482  1.9859  0.0011  0.6736
 7876SOL    HW228567  10.528   4.934   4.358 -0.3879 -0.0407  0.9255
 7877SOL     OW28568   2.321   3.725   3.800 -0.5095  0.2034 -0.1451
 7877SOL    HW128569   2.364   3.710   3.716 -1.0108 -0.0347 -0.3709
 7877SOL    HW228570   2.386   3.701   3.866 -0.1449  0.3012 -0.4698
 7878SOL     OW28571   6.289   1.440  10.273 -0.5502 -0.0939 -0.9128
 7878SOL    HW128572   6.357   1.390  10.319  1.0978  1.0102 -2.0340
 7878SOL    HW228573   6.210   1.425  10.324  0.9920  0.3756  1.8275
 7879SOL     OW28574   6.329   0.635  10.201  0.0977  0.1354  0.5724
 7879SOL    HW128575   6.417   0.603  10.183  0.6630  0.1284  3.0617
 7879SOL    HW228576   6.272   0.570  10.159  1.2412 -0.5344 -0.0128
 7880SOL     OW28577  10.540  11.596   3.348 -0.5638  0.1299  0.4685
 7880SOL    HW128578  10.580  11.632   3.427 -0.5374 -1.6119  1.3092
 7880SOL    HW228579  10.466  11.545   3.380 -2.4304  1.8467 -0.9190
 7881SOL     OW28580   4.333   4.824  11.551  0.6679  0.4058  0.4195
 7881SOL    HW128581   4.244   4.836  11.584  0.5443 -0.9324  0.6276
 7881SOL    HW228582   4.350   4.730  11.560  1.6655  0.4470 -0.7264
 7882SOL     OW28583   4.086  10.644   6.580 -0.5388  0.2634  0.5011
 7882SOL    HW128584   4.019  10.632   6.512  0.0997 -2.4249  0.2231
 7882SOL    HW228585   4.159  10.687   6.534 -0.4921 -0.6336 -0.2858
 7883SOL     OW28586  11.394   8.826   6.596  0.7460  0.4131  0.1461
 7883SOL    HW128587  11.366   8.890   6.662 -1.5481  1.1752 -1.4221
 7883SOL    HW228588  11.369   8.741   6.632 -1.5614  0.9073 -0.1542
 7884SOL     OW28589   7.030   7.275  11.226  0.2042  0.9177  0.3690
 7884SOL    HW128590   6.962   7.216  11.194  0.6679  0.0725  0.8678
 7884SOL    HW228591   7.108   7.219  11.231  0.9990  1.9265 -0.4355
 7885SOL     OW28592   2.940   8.608   5.100 -0.4132  0.4946 -0.3781
 7885SOL    HW128593   3.032   8.611   5.127 -0.1129 -2.3361 -0.7310
 7885SOL    HW228594   2.938   8.653   5.016  0.5625  0.9408 -0.1752
 7886SOL     OW28595   4.658   8.202   7.457 -0.1599 -0.8246 -0.2856
 7886SOL    HW128596   4.725   8.171   7.396  1.1309  0.9998  0.0943
 7886SOL    HW228597   4.686   8.169   7.543  1.9036  2.0266  0.3282
 7887SOL     OW28598   8.056   3.849  11.663  0.0353 -0.3573 -0.7472
 7887SOL    HW128599   8.107   3.797  11.724 -0.7027 -1.4381 -1.0255
 7887SOL    HW228600   8.010   3.785  11.609 -0.9111  0.5805 -1.0929
 7888SOL     OW28601   2.792   1.509   2.761  0.2623  0.0864 -0.0779
 7888SOL    HW128602   2.812   1.458   2.840  2.2817  0.6554 -0.1556
 7888SOL    HW228603   2.794   1.600   2.791  1.5897  0.3382 -0.8362
 7889SOL     OW28604   1.516   2.146   5.118 -0.0037  0.1170 -0.0032
 7889SOL    HW128605   1.451   2.089   5.078 -0.5464 -0.3626  1.5121
 7889SOL    HW228606   1.598   2.123   5.074 -0.4306 -0.9758 -0.2529
 7890SOL     OW28607   9.520   7.471   9.247  0.1301  0.6286  0.1933
 7890SOL    HW128608   9.446   7.530   9.261 -0.3606 -0.0010  0.2735
 7890SOL    HW228609   9.483   7.384   9.255  0.9376  0.3080  0.5020
 7891SOL     OW28610  10.653   5.776   6.026  0.1029 -0.2643  0.1653
 7891SOL    HW128611  10.568   5.745   5.996  0.9142 -0.6070 -1.8999
 7891SOL    HW228612  10.667   5.858   5.980  0.8266 -0.1198  0.6199
 7892SOL     OW28613   0.093   2.127   1.903 -0.2815  0.1710 -0.4414
 7892SOL    HW128614   0.127   2.172   1.825 -0.7248 -0.1429 -0.8232
 7892SOL    HW228615  -0.001   2.143   1.901 -0.2613  0.3995  0.1959
 7893SOL     OW28616  11.093  10.068   8.812  0.7734  0.1084  0.0142
 7893SOL    HW128617  11.097  10.075   8.908 -2.1686  0.5250  0.2126
 7893SOL    HW228618  11.030   9.997   8.796  0.3160  0.8314 -1.5812
 7894SOL     OW28619   9.281   9.431  10.627 -0.6261  0.9762  0.3262
 7894SOL    HW128620   9.328   9.494  10.682 -0.4049 -0.3572  1.6966
 7894SOL    HW228621   9.221   9.386  10.686 -0.3008 -0.5966 -0.4784
 7895SOL     OW28622   8.499   2.691   9.249 -0.1480  0.0472  0.3511
 7895SOL    HW128623   8.576   2.666   9.300  0.5687  1.5697  0.0680
 7895SOL    HW228624   8.521   2.669   9.158  0.0466  0.6557  0.2448
 7896SOL     OW28625  10.034   5.064   6.283 -0.2420  0.6693 -0.6558
 7896SOL    HW128626  10.056   5.156   6.296  0.8350  0.1293  1.8185
 7896SOL    HW228627  10.118   5.019   6.278 -0.7315 -0.3943  0.1432
 7897SOL     OW28628   7.243   9.360   6.721  0.4513 -0.5182 -0.7610
 7897SOL    HW128629   7.314   9.408   6.763  0.1046  0.3864 -1.1831
 7897SOL    HW228630   7.219   9.292   6.784  1.9470 -1.0969 -0.7842
 7898SOL     OW28631   3.546  11.274   5.021 -0.1455  0.0613 -0.0883
 7898SOL    HW128632   3.497  11.240   5.096  0.4396 -1.0282 -0.1759
 7898SOL    HW228633   3.534  11.368   5.025 -0.5313 -0.0248  1.1022
 7899SOL     OW28634  11.414   8.473   6.554 -0.3154  0.1467  0.0883
 7899SOL    HW128635  11.400   8.413   6.481  0.8272 -0.2242  0.1553
 7899SOL    HW228636  11.431   8.417   6.629  0.5979  0.5231  0.1832
 7900SOL     OW28637  10.521   2.369   2.409 -0.3142 -0.2524 -0.1716
 7900SOL    HW128638  10.612   2.346   2.428  0.0334  0.9962 -0.2588
 7900SOL    HW228639  10.501   2.320   2.329  0.9813  1.0475 -1.3600
 7901SOL     OW28640   7.614   7.317  11.430 -0.3391  0.7243 -0.3755
 7901SOL    HW128641   7.533   7.298  11.382 -0.3454 -0.6664  0.1309
 7901SOL    HW228642   7.596   7.286  11.519  1.4486 -1.6373 -0.7464
 7902SOL     OW28643   1.935  10.919  11.004 -0.2461 -0.0298 -0.0940
 7902SOL    HW128644   1.910  10.829  10.981 -0.8713  0.0789  0.1231
 7902SOL    HW228645   1.877  10.942  11.077  0.9153  0.0350  0.8379
 7903SOL     OW28646   2.425  11.658   3.544 -0.2452  0.1685  0.0286
 7903SOL    HW128647   2.506  11.649   3.493  1.8609  0.5450  3.0398
 7903SOL    HW228648   2.399  11.749   3.529 -0.7622 -0.2252 -1.7444
 7904SOL     OW28649   5.947   7.623   5.666  0.3562 -0.3848  0.2797
 7904SOL    HW128650   5.956   7.599   5.758  0.4678  0.4369  0.4990
 7904SOL    HW228651   5.889   7.557   5.629  0.2357 -0.6687  0.9635
 7905SOL     OW28652   6.952   4.678   6.846  0.1740  0.6722 -0.1772
 7905SOL    HW128653   6.882   4.612   6.847  3.2629 -3.1038 -2.1826
 7905SOL    HW228654   6.938   4.726   6.765  0.1494 -0.4860 -0.8931
 7906SOL     OW28655   4.594   3.714   9.927 -0.0054  0.0436 -0.1362
 7906SOL    HW128656   4.551   3.723  10.012 -2.7548  3.1637 -1.6293
 7906SOL    HW228657   4.621   3.622   9.924 -1.5680 -0.7089  3.2725
 7907SOL     OW28658   6.005   3.158   4.542  0.5683 -0.3681 -0.1303
 7907SOL    HW128659   5.995   3.182   4.450 -2.5301 -0.7638 -0.0072
 7907SOL    HW228660   5.958   3.227   4.590  0.8668 -0.9601  1.0453
 7908SOL     OW28661   6.020  10.212   1.006 -0.3963 -0.6797  0.6527
 7908SOL    HW128662   6.096  10.258   0.970 -0.6402 -1.1945 -0.5942
 7908SOL    HW228663   6.012  10.244   1.095 -0.7440  1.9644 -0.2399
 7909SOL     OW28664  11.072   4.834   0.000  0.2963 -0.1913  0.2054
 7909SOL    HW128665  11.116   4.849  -0.083  0.2717 -2.7853 -0.3697
 7909SOL    HW228666  11.142   4.837   0.065  0.6553 -0.2071 -0.1763
 7910SOL     OW28667   9.666   5.114   2.831  0.6707  0.5673  0.0074
 7910SOL    HW128668   9.628   5.038   2.875 -1.8303  1.1622 -0.9608
 7910SOL    HW228669   9.735   5.077   2.775 -0.3162 -0.9632 -0.2392
 7911SOL     OW28670   3.341   5.017   9.602 -0.3651  0.2989 -0.1186
 7911SOL    HW128671   3.296   4.994   9.683  2.0553 -1.7220  0.7510
 7911SOL    HW228672   3.285   4.981   9.533  0.1316 -2.8485  0.9622
 7912SOL     OW28673   6.675   3.489   7.557 -0.4986 -0.8814 -0.2742
 7912SOL    HW128674   6.711   3.504   7.644 -0.0802  1.0398 -0.7384
 7912SOL    HW228675   6.676   3.394   7.547  0.3818 -1.0897  1.4150
 7913SOL     OW28676   9.954   4.606  11.468  0.0437  0.0356  0.3251
 7913SOL    HW128677  10.031   4.571  11.424  0.3492  1.4143 -0.2701
 7913SOL    HW228678   9.989   4.658  11.541 -0.3995 -0.7419  1.1182
 7914SOL     OW28679   5.057   0.099   8.906 -0.0075 -0.3503  0.1926
 7914SOL    HW128680   5.135   0.124   8.856  0.2653  0.3647  0.9450
 7914SOL    HW228681   4.985   0.145   8.863  0.3073  0.7125  0.7689
 7915SOL     OW28682   7.734  10.469  10.879  0.4644  0.6982  0.4434
 7915SOL    HW128683   7.739  10.407  10.806  2.2596 -1.0119  1.9284
 7915SOL    HW228684   7.643  10.497  10.881 -0.1917 -1.1888 -0.8576
 7916SOL     OW28685   8.780   4.669   1.573 -0.5582 -0.2735  0.0861
 7916SOL    HW128686   8.856   4.722   1.548 -1.7772  0.9741 -1.2063
 7916SOL    HW228687   8.763   4.692   1.664 -0.9930  1.5575 -0.4103
 7917SOL     OW28688   4.603   5.324   3.256 -0.0924  0.0789 -0.4408
 7917SOL    HW128689   4.696   5.344   3.246 -0.6303  2.4184 -1.5486
 7917SOL    HW228690   4.601   5.240   3.301  2.5735  1.1955  2.0999
 7918SOL     OW28691   7.776   6.948   0.675 -0.1001  0.3234 -0.1486
 7918SOL    HW128692   7.760   7.010   0.746  0.5787  0.1613  0.1640
 7918SOL    HW228693   7.833   6.995   0.615  0.1000  0.1407 -0.1037
 7919SOL     OW28694   3.888  10.838   9.905 -0.1487  0.5380 -0.5694
 7919SOL    HW128695   3.896  10.877   9.817 -0.8107 -0.2667 -1.0049
 7919SOL    HW228696   3.937  10.897   9.962  2.8602 -0.4390 -1.9133
 7920SOL     OW28697   8.033   9.521  10.374 -0.2831  0.0664  0.1010
 7920SOL    HW128698   7.989   9.571  10.443  0.0804  0.9842 -0.3029
 7920SOL    HW228699   8.011   9.568  10.293 -0.6188 -0.9326 -0.3947
 7921SOL     OW28700   9.187   3.599  10.509  0.4769 -0.0828  0.4522
 7921SOL    HW128701   9.237   3.675  10.537 -0.7634  0.9922 -0.1187
 7921SOL    HW228702   9.154   3.623  10.422  0.9372 -1.7192 -0.2094
 7922SOL     OW28703   7.061   3.372   3.140 -0.4690 -0.0381  0.1249
 7922SOL    HW128704   7.136   3.332   3.183  0.4271  1.8938  0.4609
 7922SOL    HW228705   7.049   3.321   3.059  1.0975 -0.4644  0.1375
 7923SOL     OW28706   4.151   7.995  11.245  0.3435  1.2209  0.0211
 7923SOL    HW128707   4.101   7.916  11.265 -0.9215  1.4849 -1.8167
 7923SOL    HW228708   4.111   8.063  11.299  0.1343  0.9836  0.1663
 7924SOL     OW28709   9.803  10.677   6.607  0.2399  0.0515  0.7006
 7924SOL    HW128710   9.714  10.675   6.643  0.1261 -0.3652  0.4060
 7924SOL    HW228711   9.829  10.769   6.613 -0.0923  0.1238  1.0763
 7925SOL     OW28712   9.124   0.380  11.016 -0.0531  0.0419 -0.6695
 7925SOL    HW128713   9.139   0.459  11.068 -2.6744  0.6830 -0.7341
 7925SOL    HW228714   9.153   0.308  11.072  0.3127  0.9217  0.2980
 7926SOL     OW28715   4.226   6.749   9.092 -0.0679  0.1207  0.3490
 7926SOL    HW128716   4.158   6.776   9.153  2.0699  0.4087  2.7566
 7926SOL    HW228717   4.179   6.705   9.021 -2.7642  0.8177  1.6033
 7927SOL     OW28718   6.081  11.521  10.505  0.1044  0.3502  0.4608
 7927SOL    HW128719   6.050  11.474  10.582  0.8221 -1.0720 -0.0785
 7927SOL    HW228720   6.115  11.604  10.538  1.7211 -0.8224  1.8815
 7928SOL     OW28721   3.815  11.541   5.491  0.7368 -0.1876  0.0488
 7928SOL    HW128722   3.764  11.467   5.523  0.3955 -0.9931 -2.1851
 7928SOL    HW228723   3.825  11.598   5.568 -0.7765 -1.5251  1.3212
 7929SOL     OW28724   5.046   9.648   4.990 -0.0354 -0.0428 -0.5192
 7929SOL    HW128725   5.132   9.625   4.955 -0.6019 -0.9971 -1.3408
 7929SOL    HW228726   5.056   9.642   5.085  0.9276  0.3402 -0.5896
 7930SOL     OW28727   5.445   6.302  10.968 -0.5102  0.0507  0.1578
 7930SOL    HW128728   5.406   6.313  10.882 -0.0269  0.4182 -0.0175
 7930SOL    HW228729   5.498   6.223  10.961 -0.5464  0.0265  0.1503
 7931SOL     OW28730   2.065   7.050   2.458  0.0371 -0.2973  0.5047
 7931SOL    HW128731   2.013   6.987   2.408 -1.1617  0.9269  0.1647
 7931SOL    HW228732   2.038   7.036   2.549 -0.5617  0.0214  0.3814
 7932SOL     OW28733   3.411   4.064   3.214  0.2035  0.2135 -0.3746
 7932SOL    HW128734   3.455   4.023   3.288 -0.1390  0.7941  0.1554
 7932SOL    HW228735   3.481   4.095   3.157  0.4649  0.4462  0.0795
 7933SOL     OW28736   4.743   6.344   4.405  0.0525  0.0670  0.2973
 7933SOL    HW128737   4.813   6.310   4.460  0.5405  0.9444  0.2390
 7933SOL    HW228738   4.787   6.369   4.323 -0.1932  1.2267  0.4954
 7934SOL     OW28739  10.802   3.481  11.104 -0.2575 -0.0413 -0.0777
 7934SOL    HW128740  10.822   3.403  11.054 -3.2288  0.4722 -2.3364
 7934SOL    HW228741  10.737   3.453  11.168 -1.0861  0.4710 -0.6754
 7935SOL     OW28742   5.112  10.366  11.349  0.5787 -0.2318 -0.7014
 7935SOL    HW128743   5.073  10.413  11.276  0.9270 -1.0430 -1.4224
 7935SOL    HW228744   5.205  10.361  11.328  0.6529 -0.6399 -0.2947
 7936SOL     OW28745   4.578   2.394   7.423 -0.3043  0.0708  0.2683
 7936SOL    HW128746   4.641   2.345   7.476 -2.5972 -2.1370  1.1607
 7936SOL    HW228747   4.555   2.470   7.476 -0.4683 -0.6091  1.1881
 7937SOL     OW28748  10.295   8.884  11.512 -0.3964 -0.1096 -0.3866
 7937SOL    HW128749  10.377   8.860  11.554  2.7043  1.2907 -4.9283
 7937SOL    HW228750  10.279   8.814  11.449 -1.2359  0.9116 -1.3579
 7938SOL     OW28751   2.916   5.916  11.595 -0.0553 -0.7656  0.3061
 7938SOL    HW128752   2.938   5.869  11.515 -0.0059  1.3484 -1.0057
 7938SOL    HW228753   2.834   5.876  11.624  0.5019 -2.3050 -0.1501
 7939SOL     OW28754   7.034  11.388   5.481 -0.1159 -0.1598  0.1201
 7939SOL    HW128755   7.081  11.343   5.410 -1.1166 -0.8076 -0.1460
 7939SOL    HW228756   7.047  11.331   5.557  1.8083  1.0346  0.7555
 7940SOL     OW28757   3.576   7.330   2.481 -0.3686  0.2516  0.4526
 7940SOL    HW128758   3.601   7.240   2.459 -1.5175 -0.1259  0.5663
 7940SOL    HW228759   3.624   7.385   2.419 -1.5426 -0.6084 -1.3195
 7941SOL     OW28760   6.827   8.598   6.318 -0.3438 -0.3445  0.1493
 7941SOL    HW128761   6.845   8.560   6.403  0.1444  0.3302  0.3562
 7941SOL    HW228762   6.898   8.660   6.303 -2.1229  1.9844  0.7334
 7942SOL     OW28763   3.512  10.502   6.088  0.4128  0.1935  0.2500
 7942SOL    HW128764   3.583  10.450   6.126 -0.7641 -2.3997 -0.8666
 7942SOL    HW228765   3.544  10.527   6.001 -0.3929 -2.0333 -0.7588
 7943SOL     OW28766   4.874   4.166   3.720 -0.3264 -0.3012  0.2585
 7943SOL    HW128767   4.781   4.160   3.699 -0.2174  0.0007 -0.3136
 7943SOL    HW228768   4.898   4.257   3.701  0.1453 -0.4407  0.1630
 7944SOL     OW28769   9.932   8.583   2.785 -0.1193  0.0603  0.4683
 7944SOL    HW128770   9.890   8.549   2.706  3.1158 -0.8660 -1.0112
 7944SOL    HW228771   9.928   8.678   2.776  1.7589 -0.0094 -1.7899
 7945SOL     OW28772   1.571   6.711   8.384  0.7837  0.7291  0.7573
 7945SOL    HW128773   1.555   6.802   8.409  0.0509  0.8666 -0.1616
 7945SOL    HW228774   1.508   6.694   8.314  0.9917 -0.4513  0.8359
 7946SOL     OW28775   6.907   7.278   5.130 -0.4848  0.0511 -0.0041
 7946SOL    HW128776   6.924   7.198   5.180 -1.9948 -0.5099 -0.3539
 7946SOL    HW228777   6.955   7.346   5.178  0.1843 -0.9129  0.7458
 7947SOL     OW28778   2.904   7.438  11.428  0.2017  0.4898 -0.4184
 7947SOL    HW128779   2.947   7.370  11.376 -0.9103 -0.6075  0.0552
 7947SOL    HW228780   2.844   7.481  11.367 -1.4224 -1.0818 -0.0109
 7948SOL     OW28781   6.785  10.855   9.544  0.3350  0.6167 -0.2952
 7948SOL    HW128782   6.837  10.830   9.620 -0.2648  1.1825  0.3151
 7948SOL    HW228783   6.844  10.843   9.470  1.1372  0.6610  0.3229
 7949SOL     OW28784   4.233   8.858  10.235 -0.3610 -0.3232 -0.2951
 7949SOL    HW128785   4.238   8.947  10.270  1.3019  0.4964 -2.4152
 7949SOL    HW228786   4.223   8.803  10.313 -1.0353  1.6547  1.1030
 7950SOL     OW28787   6.874   5.185   3.853  0.0941 -0.4065 -0.2968
 7950SOL    HW128788   6.839   5.187   3.942  1.3978  0.9721  0.2393
 7950SOL    HW228789   6.967   5.166   3.865  0.1917 -0.6959 -1.4074
 7951SOL     OW28790   3.195   7.775  10.124  0.1904 -0.2226 -0.3308
 7951SOL    HW128791   3.272   7.827  10.149 -0.0248 -0.1046  0.0928
 7951SOL    HW228792   3.216   7.686  10.154  0.2313 -0.2237 -0.3631
 7952SOL     OW28793   2.916  10.107   4.122 -0.2775  0.0489  0.9671
 7952SOL    HW128794   3.004  10.118   4.158 -0.0760 -0.8795  0.7988
 7952SOL    HW228795   2.928  10.120   4.028 -0.2887 -0.2408  0.9259
 7953SOL     OW28796   3.447   2.688   8.600  0.6330 -1.1462  0.1422
 7953SOL    HW128797   3.538   2.687   8.629  0.7542  1.9548  0.2168
 7953SOL    HW228798   3.399   2.646   8.671  1.6887  0.2412  1.7694
 7954SOL     OW28799  11.618   9.020   5.688  0.1121  0.3190 -0.1591
 7954SOL    HW128800  11.711   9.000   5.688 -0.1995 -1.2708 -0.5560
 7954SOL    HW228801  11.589   9.002   5.777  0.0636  0.2143 -0.1962
 7955SOL     OW28802   2.180   3.563   5.928 -0.2498  0.1762 -0.0148
 7955SOL    HW128803   2.199   3.655   5.909 -2.1464  0.6007 -0.0422
 7955SOL    HW228804   2.195   3.555   6.022 -2.0523  1.0795  0.3853
 7956SOL     OW28805   0.149   6.323   8.025  0.0608 -0.1021  0.2035
 7956SOL    HW128806   0.069   6.272   8.013  1.1938 -2.6620  2.3523
 7956SOL    HW228807   0.142   6.358   8.114  0.7337  0.7727 -0.0720
 7957SOL     OW28808   3.524   5.394   2.310 -0.1168  0.0821  0.9004
 7957SOL    HW128809   3.527   5.478   2.356  0.9378  0.1504  0.7318
 7957SOL    HW228810   3.493   5.416   2.222 -1.9091 -0.0165  1.4693
 7958SOL     OW28811   0.029   7.261   6.533  0.2674 -0.6990  0.7602
 7958SOL    HW128812  -0.037   7.273   6.602  1.8111 -0.9457  2.3249
 7958SOL    HW228813  -0.009   7.305   6.457 -0.5960  1.4739  2.3393
 7959SOL     OW28814   7.332   4.809  10.038  0.3382  0.3606  0.4128
 7959SOL    HW128815   7.380   4.752   9.979 -1.6080 -0.2578 -0.6625
 7959SOL    HW228816   7.348   4.773  10.125 -1.9104 -2.8225 -0.3210
 7960SOL     OW28817   9.116   0.391  10.427  0.6281 -0.3808  0.4513
 7960SOL    HW128818   9.061   0.445  10.370 -1.0440 -1.1883  1.2291
 7960SOL    HW228819   9.178   0.453  10.466  0.0904  0.6175 -0.2360
 7961SOL     OW28820   2.927   7.007   2.207  0.2234  0.2246  0.2049
 7961SOL    HW128821   2.962   7.031   2.292  0.0079  1.5249 -0.0581
 7961SOL    HW228822   2.876   7.083   2.179 -1.3642 -0.9345 -0.2107
 7962SOL     OW28823   7.316   5.710   9.815 -0.4103 -0.7963  0.0166
 7962SOL    HW128824   7.227   5.742   9.801 -0.7572 -1.4078  0.7449
 7962SOL    HW228825   7.308   5.644   9.884  0.3040 -2.2979 -1.2483
 7963SOL     OW28826   1.447  11.021   8.213  0.0339  1.0953  0.3458
 7963SOL    HW128827   1.442  11.003   8.119 -2.3417 -2.3937  0.9436
 7963SOL    HW228828   1.356  11.027   8.242  0.6927  1.5188  2.5456
 7964SOL     OW28829   8.562   3.747  11.364 -0.2849  0.1501  0.3925
 7964SOL    HW128830   8.596   3.657  11.365  2.3315  1.0531  1.5395
 7964SOL    HW228831   8.623   3.795  11.307 -1.4785  1.2929  0.0227
 7965SOL     OW28832   7.170   7.947   5.672 -0.0788  0.9469  0.2929
 7965SOL    HW128833   7.149   7.912   5.759  1.6213 -0.2091  0.2784
 7965SOL    HW228834   7.224   7.879   5.632 -0.1554  1.8313 -1.3661
 7966SOL     OW28835   2.153   1.932   3.942  0.4481 -0.8913 -0.1481
 7966SOL    HW128836   2.109   2.003   3.989 -0.2978 -0.6569 -1.1645
 7966SOL    HW228837   2.152   1.959   3.851  3.4889 -0.4817 -0.1689
 7967SOL     OW28838   7.788   3.373   0.897  0.3791 -0.6622  0.1730
 7967SOL    HW128839   7.765   3.338   0.811 -0.5446 -1.4033  0.7066
 7967SOL    HW228840   7.832   3.456   0.877 -1.5981  0.1799 -0.9698
 7968SOL     OW28841   6.154   4.730   7.125  0.4250  0.3710  0.6366
 7968SOL    HW128842   6.188   4.771   7.046  0.8977  1.0476  1.1856
 7968SOL    HW228843   6.059   4.724   7.110  0.6234 -0.5782 -0.4588
 7969SOL     OW28844   3.115   5.498   6.107 -0.2166 -0.1466 -0.0630
 7969SOL    HW128845   3.186   5.458   6.156 -0.4170 -0.5165 -0.0661
 7969SOL    HW228846   3.077   5.563   6.166  0.2969  0.2491 -0.1615
 7970SOL     OW28847   1.924   1.917   2.486 -0.2510 -0.1003 -0.0622
 7970SOL    HW128848   1.880   1.982   2.432  0.9157 -0.1991 -1.1619
 7970SOL    HW228849   1.945   1.964   2.567 -0.2078  0.6307 -0.4894
 7971SOL     OW28850  10.785   2.216   1.013  0.1201  0.8089 -0.1028
 7971SOL    HW128851  10.748   2.268   0.941 -2.4678  0.7148  1.0465
 7971SOL    HW228852  10.843   2.277   1.058  1.0876  1.1309 -1.6885
 7972SOL     OW28853   4.605   4.153   8.227  0.1135  0.5053  0.4600
 7972SOL    HW128854   4.640   4.180   8.142 -0.9217 -1.8220 -0.8211
 7972SOL    HW228855   4.674   4.101   8.267  0.1981  0.6689  0.5251
 7973SOL     OW28856   8.471   8.122   5.047 -0.2896 -0.2220 -0.1736
 7973SOL    HW128857   8.398   8.119   4.986 -1.1883 -0.3546  0.8666
 7973SOL    HW228858   8.496   8.214   5.052 -0.2056 -0.2150 -0.7443
 7974SOL     OW28859  11.029   0.285  11.530 -0.8941 -0.4097 -0.0701
 7974SOL    HW128860  11.061   0.317  11.446 -0.5786 -3.0636 -1.0470
 7974SOL    HW228861  10.957   0.344  11.552 -0.0739  1.1949 -1.4669
 7975SOL     OW28862   3.950  10.526   3.379 -0.2224 -0.0408 -0.2647
 7975SOL    HW128863   4.019  10.469   3.414  0.5032  1.1600  0.3256
 7975SOL    HW228864   3.869  10.477   3.393  0.4146 -1.0664 -0.0885
 7976SOL     OW28865   3.546   5.553   1.342 -0.6938 -0.0672  0.0646
 7976SOL    HW128866   3.608   5.591   1.404 -0.8358  1.0959 -0.4734
 7976SOL    HW228867   3.566   5.460   1.342  0.6619  0.2003  0.3575
 7977SOL     OW28868   5.463   3.684   5.574  0.3723 -0.0219  0.2878
 7977SOL    HW128869   5.529   3.636   5.625  0.0564 -0.8688 -0.0773
 7977SOL    HW228870   5.413   3.615   5.530  0.3400  0.6828 -0.7960
 7978SOL     OW28871   8.391   8.630  11.482  0.1237  0.2680 -0.3652
 7978SOL    HW128872   8.397   8.541  11.447  0.6467  0.5458 -1.0002
 7978SOL    HW228873   8.459   8.632  11.551 -0.5835 -0.1300  0.3631
 7979SOL     OW28874   1.691   7.996   6.063  0.8290  0.0897  0.3159
 7979SOL    HW128875   1.605   8.036   6.051  0.9626 -0.2071 -2.1343
 7979SOL    HW228876   1.735   8.053   6.126 -0.7231  0.9201  0.7072
 7980SOL     OW28877  11.193   4.680   9.307 -0.2430  0.5552  0.3127
 7980SOL    HW128878  11.187   4.767   9.347 -0.2032  1.3177 -1.2770
 7980SOL    HW228879  11.287   4.668   9.291 -0.2718  0.3217  0.3225
 7981SOL     OW28880   5.094   7.906   9.760 -0.0027  0.1734 -0.3252
 7981SOL    HW128881   5.165   7.955   9.802  1.7711 -1.2240 -1.5309
 7981SOL    HW228882   5.072   7.959   9.683  1.5017 -0.5588 -1.3049
 7982SOL     OW28883  10.522   3.566   4.988 -0.7187  0.2763  0.0023
 7982SOL    HW128884  10.500   3.645   4.938 -1.9246  0.5663  0.9277
 7982SOL    HW228885  10.615   3.575   5.007 -0.3896  0.4769 -1.6004
 7983SOL     OW28886   6.797   6.023   3.953 -0.4352  0.4974  0.6224
 7983SOL    HW128887   6.845   6.104   3.970 -2.7010  2.3887 -1.3074
 7983SOL    HW228888   6.794   6.017   3.857  1.0701 -2.8262  0.6635
 7984SOL     OW28889   5.075  11.071   8.800  0.1935 -0.4123 -0.5133
 7984SOL    HW128890   5.168  11.085   8.818 -0.1924  3.1772 -0.4667
 7984SOL    HW228891   5.032  11.093   8.883 -0.7562 -0.3849 -1.0005
 7985SOL     OW28892   7.491   2.298   1.061  0.8696 -0.4705  0.3279
 7985SOL    HW128893   7.574   2.299   1.014 -1.0027 -0.0373 -3.3385
 7985SOL    HW228894   7.442   2.226   1.023 -1.0524  0.2876  1.2045
 7986SOL     OW28895   7.125  11.673   8.773  0.0258 -0.9073  0.5861
 7986SOL    HW128896   7.074  11.598   8.742 -3.1851  1.6867 -0.9340
 7986SOL    HW228897   7.152  11.718   8.693 -1.5638  1.6511  1.4107
 7987SOL     OW28898   6.841   6.957  10.991  0.3252 -0.3866  0.1730
 7987SOL    HW128899   6.895   7.005  10.928 -0.0502  0.5165  0.5279
 7987SOL    HW228900   6.860   6.997  11.075 -1.1251  0.1791  0.2594
 7988SOL     OW28901  10.935   1.659   1.093  0.3874  0.3285  0.1229
 7988SOL    HW128902  10.926   1.751   1.069  2.4415  0.4746 -0.3169
 7988SOL    HW228903  11.005   1.658   1.159  0.0435 -0.8644  0.4978
 7989SOL     OW28904   0.176   2.098   4.624  0.1775  0.4375 -0.0976
 7989SOL    HW128905   0.243   2.047   4.579 -0.3164 -0.2116 -0.1106
 7989SOL    HW228906   0.164   2.176   4.569  1.0575  0.6607  0.0121
 7990SOL     OW28907   3.949  10.152   8.506 -0.0396 -0.0779  0.1912
 7990SOL    HW128908   3.863  10.162   8.466  0.3525 -0.2105 -0.7095
 7990SOL    HW228909   3.979  10.242   8.521 -0.3762 -0.0322  0.6175
 7991SOL     OW28910   3.766   5.878   9.197 -0.3947  0.2948 -0.4284
 7991SOL    HW128911   3.780   5.970   9.218 -1.2908 -0.1050  2.3555
 7991SOL    HW228912   3.833   5.858   9.131  0.8879  2.5306  0.0841
 7992SOL     OW28913   7.472   8.255   7.481  0.3147 -0.2847  0.2484
 7992SOL    HW128914   7.442   8.166   7.501 -0.5340 -0.0530  0.0272
 7992SOL    HW228915   7.394   8.301   7.450  1.0569  0.0883 -1.1663
 7993SOL     OW28916   5.064  11.389   4.452 -0.2422  0.5082  0.5904
 7993SOL    HW128917   5.136  11.426   4.502 -0.1663  0.2593  0.6657
 7993SOL    HW228918   5.039  11.458   4.390  0.5051  0.3459  0.1003
 7994SOL     OW28919   0.018   9.504   0.767  0.1754 -0.4639 -0.0316
 7994SOL    HW128920   0.051   9.421   0.732 -0.1010 -0.7507  0.3743
 7994SOL    HW228921   0.013   9.490   0.862  1.0080  0.3355  0.1444
 7995SOL     OW28922   9.024   8.749   1.695  0.0277  0.0873  0.0612
 7995SOL    HW128923   9.100   8.729   1.749  1.4558  3.7912 -0.2597
 7995SOL    HW228924   8.955   8.768   1.759  0.2452 -0.3314  0.4333
 7996SOL     OW28925   4.916   2.675   8.908 -0.7501 -0.5584 -1.0496
 7996SOL    HW128926   4.902   2.651   8.817  1.9086 -0.9047 -1.4274
 7996SOL    HW228927   4.953   2.764   8.905 -1.5413 -0.1816 -0.2337
 7997SOL     OW28928   5.742   0.540   4.694  0.1729 -0.3433  0.5700
 7997SOL    HW128929   5.687   0.591   4.754 -1.5688 -2.2554  0.7300
 7997SOL    HW228930   5.753   0.597   4.618 -0.7304  0.7083  1.1891
 7998SOL     OW28931   6.174  10.652   6.248  0.4953 -0.1221  0.2546
 7998SOL    HW128932   6.227  10.667   6.169 -1.2603  1.1141 -0.7494
 7998SOL    HW228933   6.091  10.618   6.215  0.4245 -1.5456  1.7675
 7999SOL     OW28934  10.314  10.996  10.239  0.3299 -0.3239 -0.1123
 7999SOL    HW128935  10.267  10.913  10.228  0.6847 -0.4844 -0.4075
 7999SOL    HW228936  10.252  11.062  10.207  0.2882 -0.5312 -0.4632
 8000SOL     OW28937   8.641   5.341  10.555 -0.0110 -0.0886  0.6804
 8000SOL    HW128938   8.674   5.294  10.478 -1.8804 -0.3904 -0.0006
 8000SOL    HW228939   8.656   5.281  10.628 -0.3203 -0.8008  0.1734
 8001SOL     OW28940  11.259   0.558  11.466 -0.0262  0.2988 -0.2244
 8001SOL    HW128941  11.336   0.600  11.428 -0.2431  0.9459  0.0434
 8001SOL    HW228942  11.271   0.465  11.446 -0.6308  0.6776 -2.8052
 8002SOL     OW28943   7.140   0.805   6.753  0.4374  0.2287 -0.1775
 8002SOL    HW128944   7.183   0.851   6.825 -1.7731  0.5014  1.0613
 8002SOL    HW228945   7.132   0.714   6.783 -2.7316  0.8066  1.1940
 8003SOL     OW28946  11.479  10.567   9.133  0.0473  0.1854  0.4527
 8003SOL    HW128947  11.528  10.499   9.178  1.0272  0.6872  0.1654
 8003SOL    HW228948  11.420  10.519   9.075  1.8536 -0.4466 -0.9634
 8004SOL     OW28949   8.916   6.889   2.082 -0.2938  0.6751 -0.1691
 8004SOL    HW128950   8.870   6.806   2.086  0.0121  0.5349  0.8979
 8004SOL    HW228951   8.992   6.877   2.140  0.5626  1.2118 -1.1343
 8005SOL     OW28952   0.454  10.445   3.440 -0.8298  0.2099 -0.1613
 8005SOL    HW128953   0.384  10.508   3.424  0.0082  1.1483 -0.2200
 8005SOL    HW228954   0.418  10.361   3.412 -2.3691  0.4551  0.9557
 8006SOL     OW28955   5.953   0.134   4.517 -0.2551 -0.3070  0.0715
 8006SOL    HW128956   5.991   0.212   4.557 -0.9470 -0.6391  1.4458
 8006SOL    HW228957   5.859   0.152   4.514 -0.6473 -1.6975  1.9681
 8007SOL     OW28958   7.166   1.114   5.267 -0.3115 -0.6192  0.5404
 8007SOL    HW128959   7.109   1.050   5.309  0.3227 -1.8534 -0.4229
 8007SOL    HW228960   7.254   1.093   5.299  0.0328 -0.8908 -0.5536
 8008SOL     OW28961   5.171   0.107   1.201  0.7176  0.5492  0.2066
 8008SOL    HW128962   5.222   0.026   1.197 -0.4461 -0.2142 -3.3976
 8008SOL    HW228963   5.191   0.152   1.118 -1.7780  1.9012  0.2420
 8009SOL     OW28964   6.167   3.843   0.619  0.3796 -0.7452  1.1110
 8009SOL    HW128965   6.196   3.927   0.655  1.1104 -0.0601 -0.9402
 8009SOL    HW228966   6.076   3.856   0.595  0.9078 -0.0035 -0.6048
 8010SOL     OW28967   2.409   9.817   9.272 -0.0724  0.4749 -0.6337
 8010SOL    HW128968   2.335   9.797   9.214  0.2613  0.1148 -0.9384
 8010SOL    HW228969   2.403   9.751   9.342  1.0416 -0.7598 -1.6507
 8011SOL     OW28970   5.538   0.624   1.428  0.3410  0.1982  0.4526
 8011SOL    HW128971   5.515   0.708   1.468 -0.7160 -0.6944  1.7790
 8011SOL    HW228972   5.470   0.564   1.457  0.4958 -0.9023 -1.3352
 8012SOL     OW28973   3.783   1.976   0.019 -0.3609 -0.4490 -0.0623
 8012SOL    HW128974   3.764   1.957  -0.073  0.4913 -0.4401 -0.2434
 8012SOL    HW228975   3.878   1.982   0.023 -0.4592  0.8472  0.5773
 8013SOL     OW28976   9.426  11.211   2.591  0.1153  0.4731  0.3581
 8013SOL    HW128977   9.398  11.232   2.680 -1.1081 -0.0986  0.1438
 8013SOL    HW228978   9.499  11.151   2.602 -0.1925  0.2026  0.9896
 8014SOL     OW28979   6.028   8.184   3.447  0.5965 -1.1965 -0.5829
 8014SOL    HW128980   6.117   8.182   3.482  0.5400  0.8016 -0.1899
 8014SOL    HW228981   5.979   8.236   3.511 -0.1127  0.3610 -2.2992
 8015SOL     OW28982   9.440   6.018  10.321 -0.4894  0.1197 -0.6627
 8015SOL    HW128983   9.435   5.947  10.257  1.2185 -0.0541 -0.6732
 8015SOL    HW228984   9.373   6.080  10.294  0.4771  0.2846 -2.9649
 8016SOL     OW28985   7.905   5.725   1.244  0.3549  0.6103  0.5756
 8016SOL    HW128986   7.810   5.740   1.236  0.2590 -0.3131 -0.2969
 8016SOL    HW228987   7.936   5.797   1.298 -0.3121  2.9787 -1.9451
 8017SOL     OW28988   7.961  10.586   4.780 -0.0040 -0.1125  0.4610
 8017SOL    HW128989   7.886  10.535   4.750  0.6367 -1.4419  1.0590
 8017SOL    HW228990   8.036  10.548   4.732  0.6583 -0.5770  1.8240
 8018SOL     OW28991  10.490   5.402   5.698  0.6859 -0.1159 -0.1617
 8018SOL    HW128992  10.477   5.321   5.748  1.3668 -0.7882 -1.0558
 8018SOL    HW228993  10.409   5.414   5.649  1.1406 -1.0815 -1.1760
 8019SOL     OW28994   3.494   8.244   4.070  0.5866 -0.2822 -0.1288
 8019SOL    HW128995   3.532   8.157   4.070  1.2624  0.0009  0.5900
 8019SOL    HW228996   3.490   8.269   4.163 -4.2007 -1.4954  0.2442
 8020SOL     OW28997   6.990   6.601   2.196  0.1829 -0.0513 -0.0086
 8020SOL    HW128998   6.911   6.630   2.241 -0.1701 -1.7974  0.5882
 8020SOL    HW228999   6.958   6.548   2.123  0.7973  0.1578 -0.4403
 8021SOL     OW29000   7.190   2.029   7.982 -0.4674 -0.1812 -0.5541
 8021SOL    HW129001   7.119   1.985   7.934  0.2275 -0.7852 -1.0434
 8021SOL    HW229002   7.147   2.104   8.023 -2.1189 -2.2298  1.7899
 8022SOL     OW29003   4.616   1.357   4.060  0.0033 -0.8678 -0.1044
 8022SOL    HW129004   4.583   1.344   4.149 -1.0692  0.3581 -0.3044
 8022SOL    HW229005   4.538   1.375   4.008  0.7095 -0.7889 -1.1559
 8023SOL     OW29006   6.952   3.853  10.385  0.5979 -0.0521  0.5878
 8023SOL    HW129007   6.927   3.944  10.400  1.2498 -0.0252  1.6112
 8023SOL    HW229008   7.047   3.856  10.372  0.7875 -0.6799  1.6802
 8024SOL     OW29009   3.660   7.646   7.062  0.3298  0.1115 -0.5461
 8024SOL    HW129010   3.708   7.719   7.102 -1.8009  1.7515 -0.8092
 8024SOL    HW229011   3.611   7.686   6.990 -1.7704 -1.3490 -0.0124
 8025SOL     OW29012   9.675   0.814   0.188 -0.2069 -0.0547 -0.1361
 8025SOL    HW129013   9.583   0.842   0.182 -0.6405 -1.3040  0.4899
 8025SOL    HW229014   9.674   0.740   0.248  1.1220 -0.5052 -0.6353
 8026SOL     OW29015  10.922   8.304   5.306 -0.8050 -0.0609 -0.2275
 8026SOL    HW129016  10.839   8.295   5.260 -0.7364 -0.4786 -0.2695
 8026SOL    HW229017  10.970   8.369   5.256 -0.7871 -0.4094 -0.6667
 8027SOL     OW29018   6.127   3.863   0.302 -0.1130  0.2633 -0.1249
 8027SOL    HW129019   6.069   3.938   0.311 -0.1337  0.4142 -1.3162
 8027SOL    HW229020   6.150   3.839   0.392 -1.7756  0.3778  0.3705
 8028SOL     OW29021   9.993  10.870   9.321  0.5560  0.3180  1.2327
 8028SOL    HW129022   9.944  10.903   9.396 -0.3549  0.9779  0.3657
 8028SOL    HW229023  10.063  10.934   9.308  1.6882 -0.5985  2.4385
 8029SOL     OW29024   1.936   0.001   9.255 -0.6368 -0.4317  0.2423
 8029SOL    HW129025   1.970   0.071   9.310 -1.2738  0.5319 -0.5519
 8029SOL    HW229026   1.851  -0.020   9.293 -1.0310  0.1624 -0.2794
 8030SOL     OW29027   4.193  10.847   3.340 -0.0674 -0.8776 -0.0346
 8030SOL    HW129028   4.173  10.769   3.288  0.3197 -1.2129  0.3077
 8030SOL    HW229029   4.116  10.902   3.332  0.1408 -0.7448 -1.2845
 8031SOL     OW29030   4.198   5.878   7.328  0.5628  0.4513  0.1755
 8031SOL    HW129031   4.201   5.882   7.424  1.6132  0.6288  0.1501
 8031SOL    HW229032   4.258   5.808   7.305 -0.3130 -0.1556 -0.3355
 8032SOL     OW29033   8.782   6.922   5.188  0.3746  0.5933 -0.3457
 8032SOL    HW129034   8.763   6.864   5.114 -0.3374  0.9513 -0.4534
 8032SOL    HW229035   8.738   6.880   5.262 -1.1259  1.5649 -0.6458
 8033SOL     OW29036   3.854   7.734   6.404 -0.1982 -0.1531 -0.4042
 8033SOL    HW129037   3.762   7.734   6.377 -0.6081  0.0281  0.8835
 8033SOL    HW229038   3.850   7.714   6.498  0.9617  1.3340 -0.0036
 8034SOL     OW29039   4.115   9.132   9.623 -0.0096 -0.0111  0.1431
 8034SOL    HW129040   4.198   9.140   9.577  1.1847  1.1688  2.3442
 8034SOL    HW229041   4.079   9.221   9.624  0.4452  0.1833  2.2131
 8035SOL     OW29042   3.001   1.236   1.070 -0.2595 -0.2054  0.4733
 8035SOL    HW129043   2.915   1.268   1.044  0.4066 -0.4631 -2.3960
 8035SOL    HW229044   2.996   1.141   1.055  0.9001 -0.0496 -1.2006
 8036SOL     OW29045   9.078   1.909   4.601 -0.1130  0.0471  0.2666
 8036SOL    HW129046   9.027   1.840   4.557 -1.2380  1.7391 -1.2228
 8036SOL    HW229047   9.166   1.872   4.609 -0.2603 -0.9938 -2.0088
 8037SOL     OW29048   1.745   8.399   5.866  0.7773  0.5280 -0.3375
 8037SOL    HW129049   1.809   8.342   5.909 -0.0463 -1.2551 -1.3826
 8037SOL    HW229050   1.780   8.487   5.878  2.3874 -0.2214  0.8474
 8038SOL     OW29051   1.291   4.071   0.691  0.1281  0.6134 -0.0129
 8038SOL    HW129052   1.259   4.041   0.606  0.0754 -1.3050  0.6530
 8038SOL    HW229053   1.215   4.065   0.749  0.2837  1.4700  0.2954
 8039SOL     OW29054   4.203   6.263   0.265  0.1720 -0.0183 -0.2145
 8039SOL    HW129055   4.267   6.312   0.214  1.9025 -0.2240  1.6657
 8039SOL    HW229056   4.141   6.230   0.199  0.8298  1.8496 -1.8715
 8040SOL     OW29057   5.752   7.076  10.169  0.1211 -0.0383  0.0699
 8040SOL    HW129058   5.755   7.140  10.240 -2.6228 -0.2061  0.4595
 8040SOL    HW229059   5.757   7.128  10.089  0.3335  0.4212  0.3796
 8041SOL     OW29060   5.658   3.228   0.910  0.4657 -0.2269  0.7406
 8041SOL    HW129061   5.565   3.221   0.934  0.6760  0.7033  1.9162
 8041SOL    HW229062   5.705   3.203   0.989  1.2664 -2.2645 -0.3244
 8042SOL     OW29063   7.726   7.002  11.140  0.3901  0.4344  0.2371
 8042SOL    HW129064   7.722   7.018  11.234 -2.2408 -2.7611  0.8529
 8042SOL    HW229065   7.636   7.015  11.109  0.1785 -2.7838 -0.8819
 8043SOL     OW29066  11.052  10.887   5.647  0.5099 -0.1857 -0.5790
 8043SOL    HW129067  10.966  10.930   5.652  0.8167  0.3002  1.0163
 8043SOL    HW229068  11.099  10.937   5.580  0.2761  0.9423  0.0660
 8044SOL     OW29069   2.273   4.385   1.296 -0.1837 -0.4313 -0.1483
 8044SOL    HW129070   2.255   4.434   1.215  0.5213 -0.7050 -0.4777
 8044SOL    HW229071   2.367   4.370   1.294  0.1946  1.2775  1.7239
 8045SOL     OW29072   3.651   5.300   4.354 -0.5859  0.6948 -0.8179
 8045SOL    HW129073   3.601   5.366   4.402 -1.2754 -0.4776  0.1434
 8045SOL    HW229074   3.725   5.280   4.410 -0.4701  0.5471 -1.0215
 8046SOL     OW29075   5.481   0.358  10.682 -0.6571  0.2840 -0.3212
 8046SOL    HW129076   5.427   0.280  10.664 -1.5467  1.1980 -1.8321
 8046SOL    HW229077   5.564   0.322  10.714 -1.5013 -1.2288  0.3180
 8047SOL     OW29078   2.897   5.653   8.995  0.2549  0.3549  0.2000
 8047SOL    HW129079   2.973   5.673   8.941 -0.4723  1.0132 -0.6017
 8047SOL    HW229080   2.869   5.566   8.966  0.8601 -0.0158  0.6999
 8048SOL     OW29081   2.255   0.153   1.281  0.3135  0.4637  0.2061
 8048SOL    HW129082   2.341   0.111   1.270 -0.2200 -0.7528  0.5314
 8048SOL    HW229083   2.199   0.112   1.215 -0.7216 -0.7982  1.8010
 8049SOL     OW29084   2.870   4.669   9.625  0.1682  0.2768  0.2215
 8049SOL    HW129085   2.782   4.630   9.631 -0.1673  1.1013  1.0284
 8049SOL    HW229086   2.855   4.762   9.642  1.0744  0.6072 -0.6987
 8050SOL     OW29087   9.097   2.686   9.161  0.4499  0.1545  0.3107
 8050SOL    HW129088   9.149   2.709   9.083 -0.9380  0.1704 -0.6425
 8050SOL    HW229089   9.061   2.770   9.191  0.6287  0.0860  0.7262
 8051SOL     OW29090   0.034   8.231   9.432  0.2223 -0.4820 -0.4696
 8051SOL    HW129091   0.004   8.141   9.420  0.7519 -0.7759  0.2680
 8051SOL    HW229092   0.080   8.252   9.351 -0.9123 -0.4407 -1.1277
 8052SOL     OW29093   3.102   8.506   9.660 -0.1857 -0.3993  0.1233
 8052SOL    HW129094   3.171   8.439   9.668 -1.4826 -1.9288 -0.9070
 8052SOL    HW229095   3.023   8.456   9.638 -1.0997  1.5314 -1.2293
 8053SOL     OW29096   0.801   5.406   3.463  0.2253  0.0511 -0.8423
 8053SOL    HW129097   0.829   5.388   3.373 -0.7982 -3.2621 -0.6400
 8053SOL    HW229098   0.706   5.407   3.458  0.0049 -2.9704  0.4901
 8054SOL     OW29099   0.959   4.857   3.285  0.1415  0.2168  0.0079
 8054SOL    HW129100   0.887   4.859   3.222 -0.2818 -2.9699  0.2198
 8054SOL    HW229101   1.016   4.788   3.253  1.8508  1.0109  1.2073
 8055SOL     OW29102   0.119   8.245   9.170 -0.0733  0.0133  0.1169
 8055SOL    HW129103   0.118   8.296   9.089 -1.7772 -1.1984 -0.6712
 8055SOL    HW229104   0.205   8.204   9.172  0.5239  1.1988 -0.3067
 8056SOL     OW29105   2.932   7.446   4.291  0.2786 -0.1827 -0.3080
 8056SOL    HW129106   3.003   7.438   4.355 -1.0165 -2.5589  0.9456
 8056SOL    HW229107   2.888   7.528   4.315  2.0701  0.9348 -0.6372
 8057SOL     OW29108   9.806   8.738   9.280  0.3277 -0.5396  0.7868
 8057SOL    HW129109   9.837   8.678   9.213 -0.3539  1.4247 -1.4296
 8057SOL    HW229110   9.857   8.818   9.265 -2.2233  1.0910  0.2994
 8058SOL     OW29111   8.167   8.491   8.956  0.7160  0.4077 -0.3542
 8058SOL    HW129112   8.164   8.587   8.957 -2.6131  0.4425 -1.2023
 8058SOL    HW229113   8.161   8.465   9.048  1.6217  0.9695 -0.1204
 8059SOL     OW29114  11.218   9.906   7.771 -0.3289  0.3447 -0.2594
 8059SOL    HW129115  11.268   9.828   7.795  0.3414  0.4908 -1.0854
 8059SOL    HW229116  11.184   9.940   7.853  1.3123  0.4702  0.4179
 8060SOL     OW29117   2.146   3.971   3.789 -0.2863  0.9970 -0.1264
 8060SOL    HW129118   2.239   3.981   3.810  0.2534 -0.6174 -1.5715
 8060SOL    HW229119   2.101   4.014   3.862  1.5494 -0.1666  1.7976
 8061SOL     OW29120   6.774   9.590   4.724 -0.3061  0.6616  0.1309
 8061SOL    HW129121   6.708   9.594   4.793  0.2311 -0.0031  0.7020
 8061SOL    HW229122   6.747   9.517   4.668 -0.4210  0.8238 -0.0264
 8062SOL     OW29123   7.121   0.949   9.662 -0.0925  0.0925  0.0214
 8062SOL    HW129124   7.096   1.037   9.692 -1.7387 -0.6835  1.1056
 8062SOL    HW229125   7.214   0.956   9.641 -0.3595  2.2906 -0.7083
 8063SOL     OW29126   2.363   0.509   7.650  0.0467  0.0514  0.5971
 8063SOL    HW129127   2.357   0.604   7.654 -0.6776  0.0150  0.4304
 8063SOL    HW229128   2.278   0.480   7.617  0.5566 -0.6045 -0.1923
 8064SOL     OW29129   2.647   1.704   3.116  0.2160  0.4077 -0.0094
 8064SOL    HW129130   2.557   1.734   3.103  1.0576  3.1719  0.0419
 8064SOL    HW229131   2.637   1.613   3.146 -2.5073  0.4383 -0.5357
 8065SOL     OW29132   5.523   4.128   6.424  0.8871  0.1245  0.4998
 8065SOL    HW129133   5.531   4.180   6.504  2.9166  3.0434 -1.3952
 8065SOL    HW229134   5.463   4.179   6.369 -2.6909 -3.1719  0.9309
 8066SOL     OW29135  10.451   9.032   6.084  0.1790  0.7944 -0.0192
 8066SOL    HW129136  10.478   9.053   5.995  1.0095 -0.6833 -0.1628
 8066SOL    HW229137  10.364   8.993   6.074  1.6220 -2.6153 -0.7095
 8067SOL     OW29138   8.825   4.261   3.115  0.2260 -0.2356 -0.3270
 8067SOL    HW129139   8.900   4.223   3.160  1.0031  2.5389  0.9498
 8067SOL    HW229140   8.759   4.273   3.184 -1.0371 -1.6211 -1.2207
 8068SOL     OW29141   4.892   8.374   7.181  0.1630  0.0193 -0.0290
 8068SOL    HW129142   4.887   8.404   7.090  1.2854  0.4804  0.0425
 8068SOL    HW229143   4.881   8.279   7.176 -0.5665  0.1261 -0.5594
 8069SOL     OW29144   7.190  11.083   6.067 -0.3275  0.0629 -0.3869
 8069SOL    HW129145   7.150  11.116   6.147  2.5665 -0.6998  1.5265
 8069SOL    HW229146   7.122  11.093   6.000 -2.8408  0.8116  2.0983
 8070SOL     OW29147   1.845   8.056   4.130 -0.2408 -0.1171 -0.1816
 8070SOL    HW129148   1.840   7.964   4.156 -0.0742 -0.1258 -0.1804
 8070SOL    HW229149   1.909   8.057   4.058  0.0868  0.0628  0.1097
 8071SOL     OW29150   0.096   5.997   3.223 -0.2024  0.1180 -0.0004
 8071SOL    HW129151   0.113   5.905   3.204 -1.7148  0.2893 -2.7038
 8071SOL    HW229152   0.034   5.995   3.296  0.2280 -0.9726  0.3511
 8072SOL     OW29153   0.479   7.209   5.176 -0.2085  0.2557  0.2450
 8072SOL    HW129154   0.480   7.246   5.088  0.9313  0.1950  0.2086
 8072SOL    HW229155   0.417   7.264   5.225 -0.9049  0.2380 -0.6057
 8073SOL     OW29156  10.019   9.161  10.442  0.4750 -0.3610  0.1834
 8073SOL    HW129157   9.934   9.195  10.468  0.2032 -1.1232  0.3214
 8073SOL    HW229158  10.055   9.227  10.383  0.2862  0.5045  1.0215
 8074SOL     OW29159   2.498   5.364   1.785  0.2269  0.3054 -0.0970
 8074SOL    HW129160   2.445   5.291   1.752  0.6148  0.7625 -1.8652
 8074SOL    HW229161   2.582   5.355   1.739  0.5379  1.4387  0.2124
 8075SOL     OW29162   3.337   2.142  11.676  0.3533 -0.0803 -0.2589
 8075SOL    HW129163   3.424   2.147  11.717  1.2086  1.5991 -2.1237
 8075SOL    HW229164   3.348   2.079  11.605 -0.4929 -1.2098  0.5653
 8076SOL     OW29165   6.759  10.638   8.926 -0.0115  0.1333  0.4720
 8076SOL    HW129166   6.811  10.617   8.848  2.3245  0.8779  1.7151
 8076SOL    HW229167   6.822  10.679   8.986 -1.8421  0.1054  2.5347
 8077SOL     OW29168   8.407   3.698   4.768 -0.0458  0.3318  0.2675
 8077SOL    HW129169   8.445   3.689   4.856 -1.6334 -3.4475  0.7694
 8077SOL    HW229170   8.317   3.725   4.784 -0.1230  0.3934 -0.2558
 8078SOL     OW29171   6.308   0.320  10.865  0.4613 -0.0542  0.0783
 8078SOL    HW129172   6.216   0.316  10.841  0.9242  1.9331 -2.4391
 8078SOL    HW229173   6.308   0.357  10.953 -1.1127 -0.6173  0.3573
 8079SOL     OW29174   9.214   5.964   0.531 -0.6246  0.0811  0.4172
 8079SOL    HW129175   9.267   5.931   0.603 -1.1600  1.0103  1.2661
 8079SOL    HW229176   9.277   6.008   0.474 -0.2625 -0.2159  0.5865
 8080SOL     OW29177  11.091   1.631   3.433  0.4086  0.4780 -0.4044
 8080SOL    HW129178  11.040   1.665   3.506  0.2220  1.6928 -1.0849
 8080SOL    HW229179  11.064   1.683   3.358  1.1330 -0.2606 -1.2009
 8081SOL     OW29180   6.562  10.049   6.886  0.3615 -0.1511  0.3576
 8081SOL    HW129181   6.469  10.053   6.908  0.5768  0.0979  1.2778
 8081SOL    HW229182   6.585   9.957   6.894  0.6309  0.0385  2.1015
 8082SOL     OW29183   4.752   8.839   3.260 -0.2625  0.1456 -0.3126
 8082SOL    HW129184   4.820   8.897   3.296 -1.0179  0.1711  1.1347
 8082SOL    HW229185   4.742   8.770   3.326 -1.4522  0.0012 -0.6270
 8083SOL     OW29186   7.611  10.801   4.734  0.3508 -0.0823 -0.1527
 8083SOL    HW129187   7.661  10.783   4.654  0.9460 -1.6080  0.5306
 8083SOL    HW229188   7.579  10.891   4.722 -0.3151 -0.5695 -2.4921
 8084SOL     OW29189   1.594   1.715   6.181  0.0579  0.1849 -0.0113
 8084SOL    HW129190   1.658   1.686   6.116 -0.3302  0.7447 -0.6440
 8084SOL    HW229191   1.568   1.802   6.153  1.0937  1.1423  1.7666
 8085SOL     OW29192   0.519   8.825   8.272 -0.0245 -0.1317  0.6336
 8085SOL    HW129193   0.590   8.762   8.260  0.6079  0.4809  1.0187
 8085SOL    HW229194   0.563   8.910   8.270 -0.7804  0.2662  0.6981
 8086SOL     OW29195   2.610   1.069   6.268 -0.4440 -0.0957  0.0014
 8086SOL    HW129196   2.516   1.055   6.257  0.0255 -1.4436 -3.6764
 8086SOL    HW229197   2.627   1.151   6.221  0.6033 -1.7932 -2.8557
 8087SOL     OW29198   1.461   9.724   9.801 -0.6277  0.4706 -0.2228
 8087SOL    HW129199   1.546   9.699   9.839 -0.7695  0.4646  0.0934
 8087SOL    HW229200   1.404   9.649   9.819 -0.8287  0.6744 -0.0158
 8088SOL     OW29201   1.017   3.328  10.618 -0.1160  0.1684  0.5330
 8088SOL    HW129202   1.104   3.286  10.620 -0.0630  0.1709 -0.6553
 8088SOL    HW229203   0.974   3.289  10.542 -1.0196  0.4548  0.8862
 8089SOL     OW29204   1.012  11.678  10.262 -0.5002 -0.1683 -0.0841
 8089SOL    HW129205   0.980  11.588  10.250 -0.2960 -0.0003 -2.2310
 8089SOL    HW229206   1.038  11.706  10.175  0.1747  1.7316  0.6767
 8090SOL     OW29207   4.749   7.370   2.558 -0.4667  0.3053 -0.1078
 8090SOL    HW129208   4.828   7.424   2.569  1.0466 -1.5839 -1.0474
 8090SOL    HW229209   4.743   7.320   2.640  1.3631 -1.9719 -1.2321
 8091SOL     OW29210   4.191   5.235   4.184 -0.8982  0.0971 -0.4066
 8091SOL    HW129211   4.193   5.321   4.227 -1.0260  0.5290 -1.2461
 8091SOL    HW229212   4.139   5.181   4.243  3.8590 -1.1783  3.2293
 8092SOL     OW29213   3.222   5.453   8.006  0.5381  0.4047 -0.2457
 8092SOL    HW129214   3.191   5.455   7.915  0.4666 -1.6017 -0.3293
 8092SOL    HW229215   3.154   5.497   8.056 -0.3740 -0.1712 -0.9503
 8093SOL     OW29216   1.489   8.345   1.957  0.0560 -0.1277 -0.0250
 8093SOL    HW129217   1.510   8.358   1.864  0.3925 -0.6339 -0.0260
 8093SOL    HW229218   1.574   8.328   1.998 -0.0574  0.3671  0.4273
 8094SOL     OW29219   1.672  11.286   3.124  0.2058  0.3388  0.3224
 8094SOL    HW129220   1.596  11.340   3.102  0.4577  0.9608  0.9457
 8094SOL    HW229221   1.654  11.255   3.213 -0.5684 -1.7302 -0.4907
 8095SOL     OW29222   3.845   1.225   3.052  0.7545  0.2480  0.1826
 8095SOL    HW129223   3.890   1.205   3.135  0.7017  0.5287  0.2784
 8095SOL    HW229224   3.800   1.143   3.030 -1.8026  0.9802  2.0503
 8096SOL     OW29225   7.130  10.606   1.342  0.0772  0.5365  0.0323
 8096SOL    HW129226   7.175  10.523   1.328  0.8403  0.7247  1.2185
 8096SOL    HW229227   7.174  10.668   1.285 -0.1660  0.2438 -0.4802
 8097SOL     OW29228   5.763   1.642   3.964 -0.3924 -0.3186  0.2108
 8097SOL    HW129229   5.796   1.690   4.040 -1.1366 -0.5512  0.6986
 8097SOL    HW229230   5.708   1.706   3.918 -1.5112 -0.7206  0.9466
 8098SOL     OW29231   2.066   9.323   0.725 -0.2803 -0.3104  0.2148
 8098SOL    HW129232   2.115   9.337   0.644  1.7226 -1.4147  1.1720
 8098SOL    HW229233   2.011   9.247   0.707 -1.3090  0.6160 -0.6964
 8099SOL     OW29234   1.840   7.856   7.532 -0.1407  0.2130 -0.0233
 8099SOL    HW129235   1.891   7.937   7.530 -0.7610  0.7257 -4.4705
 8099SOL    HW229236   1.749   7.885   7.524 -0.3604 -0.8010 -1.9288
 8100SOL     OW29237  11.218   1.739   5.377 -0.4852  0.6200  0.1804
 8100SOL    HW129238  11.238   1.708   5.289  0.7100  1.1703  0.2383
 8100SOL    HW229239  11.146   1.801   5.364 -0.7032  0.2725 -0.3262
 8101SOL     OW29240   4.282   0.528  10.296 -0.3050 -0.4605 -0.1969
 8101SOL    HW129241   4.193   0.564  10.290  0.6472  1.8662 -2.3921
 8101SOL    HW229242   4.322   0.552  10.212  2.5263 -1.0754  0.8895
 8102SOL     OW29243   0.450   3.931   9.159  0.3659  0.3258 -0.2893
 8102SOL    HW129244   0.508   3.856   9.173 -1.3351 -0.8526  0.7728
 8102SOL    HW229245   0.492   4.003   9.206 -0.0442 -1.0429  2.3391
 8103SOL     OW29246   5.438   8.751   7.452  0.2067  0.2433  0.4626
 8103SOL    HW129247   5.497   8.818   7.417  1.1574 -1.3750 -1.1867
 8103SOL    HW229248   5.462   8.743   7.544  1.8241  0.3993  0.0717
 8104SOL     OW29249   0.938   1.464   0.992  0.8044 -0.4744 -0.8461
 8104SOL    HW129250   0.875   1.535   0.985  0.6389 -0.5938 -0.5506
 8104SOL    HW229251   1.023   1.508   0.997  0.6121 -0.2336  0.8319
 8105SOL     OW29252   7.799   9.999   4.078  0.3764  0.2613 -0.2562
 8105SOL    HW129253   7.794  10.055   4.000 -0.3385 -1.1530 -1.2591
 8105SOL    HW229254   7.840   9.919   4.047  0.8657  0.0064  1.0334
 8106SOL     OW29255   2.245   1.112   7.840  0.4632  0.1868  0.3982
 8106SOL    HW129256   2.336   1.095   7.815  0.2037 -0.5582 -0.0964
 8106SOL    HW229257   2.195   1.047   7.791 -0.1758 -0.6561  2.1004
 8107SOL     OW29258   3.910   9.418   1.063  0.0020 -0.2843 -1.0786
 8107SOL    HW129259   3.954   9.480   1.121 -1.7012  0.3400 -0.3900
 8107SOL    HW229260   3.977   9.395   0.998  0.2607  3.6990 -2.4967
 8108SOL     OW29261   4.354   5.293   1.545  0.4100  0.1156  0.1718
 8108SOL    HW129262   4.374   5.377   1.587 -0.5494  1.5723 -2.1105
 8108SOL    HW229263   4.401   5.296   1.462 -0.8914 -0.9260 -0.6419
 8109SOL     OW29264   1.883   6.593   5.291 -0.5714  0.2510  0.6464
 8109SOL    HW129265   1.931   6.675   5.300 -1.0984  1.0576 -2.5511
 8109SOL    HW229266   1.928   6.546   5.220 -2.5176 -0.4204 -0.2175
 8110SOL     OW29267   4.087   1.361  10.730 -0.2127  0.1602 -0.1972
 8110SOL    HW129268   4.069   1.297  10.661 -2.1155 -0.0841  0.4725
 8110SOL    HW229269   4.091   1.309  10.810 -1.3823  0.8044  0.3015
 8111SOL     OW29270   6.042   7.625   7.544 -0.3906 -0.9933 -0.4134
 8111SOL    HW129271   6.128   7.665   7.553 -0.3306 -1.3101  0.4773
 8111SOL    HW229272   5.999   7.639   7.628 -2.1296  1.2437 -1.5769
 8112SOL     OW29273   7.555   5.320   5.043  0.3407 -0.2595  0.2179
 8112SOL    HW129274   7.512   5.308   5.128 -0.2957  0.8814  0.0838
 8112SOL    HW229275   7.644   5.287   5.056  0.9544  1.8069  2.0130
 8113SOL     OW29276   8.426   2.372   9.204 -0.0896 -0.7498 -0.1510
 8113SOL    HW129277   8.406   2.305   9.139  2.0708 -1.3391 -0.2776
 8113SOL    HW229278   8.359   2.362   9.271 -1.0516 -1.5996 -1.2067
 8114SOL     OW29279   4.752   9.938   1.726  0.3175 -0.0287  0.2612
 8114SOL    HW129280   4.770   9.844   1.728  0.7479  0.0554  0.4452
 8114SOL    HW229281   4.661   9.945   1.695  0.8285 -0.4350 -1.4103
 8115SOL     OW29282   7.196   1.502   4.615 -0.2669 -0.1652  0.5777
 8115SOL    HW129283   7.157   1.439   4.554  0.1470  0.5894 -0.4928
 8115SOL    HW229284   7.120   1.550   4.651 -0.5054 -0.5299  0.5668
 8116SOL     OW29285   7.812   7.944   7.785  0.4355  0.4210 -0.2232
 8116SOL    HW129286   7.862   7.882   7.731  0.8376  0.9422 -0.4726
 8116SOL    HW229287   7.766   7.999   7.721  2.6353  2.4769 -0.1934
 8117SOL     OW29288  11.485  10.210  10.528  0.0297  0.0183 -0.3154
 8117SOL    HW129289  11.501  10.290  10.577 -1.2930  0.5789 -0.7768
 8117SOL    HW229290  11.414  10.231  10.468 -0.7479 -1.6646 -0.0482
 8118SOL     OW29291   3.363   9.392  10.422 -0.1929  0.5540 -0.0974
 8118SOL    HW129292   3.419   9.319  10.449  2.7315  2.6804  0.0499
 8118SOL    HW229293   3.336   9.370  10.333  2.4883  0.2102 -0.9220
 8119SOL     OW29294   2.544  10.822   3.927  0.5864 -0.4654 -0.5809
 8119SOL    HW129295   2.535  10.873   3.846  1.4805 -0.1788 -0.5145
 8119SOL    HW229296   2.565  10.733   3.897  0.5638 -0.4394 -0.6768
 8120SOL     OW29297   4.697   4.069   1.706  0.2232 -0.0369 -0.0389
 8120SOL    HW129298   4.742   3.986   1.688  0.1660 -0.4222  1.5085
 8120SOL    HW229299   4.634   4.048   1.775  0.5818  1.4003  0.7584
 8121SOL     OW29300  10.919  10.587   6.689  0.1549 -0.2580  0.3907
 8121SOL    HW129301  10.998  10.631   6.659 -0.1179  0.0124  0.0523
 8121SOL    HW229302  10.889  10.638   6.764  0.5911 -0.6741  0.8529
 8122SOL     OW29303   3.122   7.018   6.606  0.0162 -0.3426 -0.0091
 8122SOL    HW129304   3.150   6.936   6.567 -1.8178 -1.2642  0.4869
 8122SOL    HW229305   3.059   7.054   6.544 -0.5863 -0.2733  0.6166
 8123SOL     OW29306   5.733   9.586   6.924  0.3909 -0.7186  0.0455
 8123SOL    HW129307   5.758   9.494   6.937 -1.8349 -1.2912  0.8187
 8123SOL    HW229308   5.756   9.605   6.833  1.4963 -1.8040  0.0666
 8124SOL     OW29309   1.197  11.477   4.572  0.1685  0.5275 -0.0531
 8124SOL    HW129310   1.277  11.477   4.625 -1.0922  1.1036  1.9767
 8124SOL    HW229311   1.228  11.481   4.481  2.4523 -1.6310  0.5251
 8125SOL     OW29312   9.911   9.020   6.449 -0.1892  0.2411  0.2034
 8125SOL    HW129313   9.897   9.101   6.400 -0.8124  1.9816  2.9911
 8125SOL    HW229314   9.822   8.993   6.475  0.0848 -0.8281  0.0552
 8126SOL     OW29315   0.261   8.625   9.507 -0.3576  0.3007  0.2921
 8126SOL    HW129316   0.170   8.646   9.486 -0.8243 -2.2326 -0.6830
 8126SOL    HW229317   0.261   8.611   9.602 -1.0456  0.1788  0.2813
 8127SOL     OW29318   2.720   5.166   7.487 -0.3556 -0.2311  0.1278
 8127SOL    HW129319   2.674   5.219   7.552  1.5346  0.4896  0.9385
 8127SOL    HW229320   2.681   5.079   7.495  1.3832 -0.8560  4.0238
 8128SOL     OW29321   5.521  10.154   5.120 -0.0444  0.0408  0.3322
 8128SOL    HW129322   5.447  10.093   5.125  0.8935 -1.1105  0.6929
 8128SOL    HW229323   5.493  10.221   5.057 -0.7211 -1.3459 -0.9040
 8129SOL     OW29324   5.609   5.027   3.459  0.2697 -0.0024  0.9937
 8129SOL    HW129325   5.574   5.091   3.521  0.2879 -0.3986  1.4175
 8129SOL    HW229326   5.682   5.072   3.416  1.9222 -0.5277  3.0700
 8130SOL     OW29327   9.312   7.959   0.291 -0.2483  0.6514 -0.1597
 8130SOL    HW129328   9.299   7.883   0.233 -1.6775  0.7597 -0.0143
 8130SOL    HW229329   9.403   7.985   0.276  0.5360 -1.5713  0.3764
 8131SOL     OW29330  10.249   4.765   0.201 -0.2216  0.1471 -0.2653
 8131SOL    HW129331  10.156   4.783   0.211 -0.7441 -1.8892 -1.0085
 8131SOL    HW229332  10.259   4.738   0.110  0.9177 -0.6097  0.0545
 8132SOL     OW29333   3.136   1.057   4.846  0.1627  0.2629 -0.7318
 8132SOL    HW129334   3.184   1.139   4.832  1.1307 -0.3177 -0.9439
 8132SOL    HW229335   3.205   0.993   4.864 -0.6155 -0.3955 -0.0348
 8133SOL     OW29336   2.100   4.076   8.962 -0.0394 -0.1604 -0.5341
 8133SOL    HW129337   2.079   4.085   8.869 -2.3238 -0.6260 -0.1255
 8133SOL    HW229338   2.116   3.982   8.974 -3.0908 -0.7088  0.0686
 8134SOL     OW29339   9.284   3.004   9.327 -0.2334  0.3208 -0.0874
 8134SOL    HW129340   9.368   2.960   9.310 -0.1200  0.1298  0.9263
 8134SOL    HW229341   9.243   2.951   9.395 -1.1918  0.4112 -0.5836
 8135SOL     OW29342   6.671   2.884   4.048 -0.0444 -0.1780 -0.1872
 8135SOL    HW129343   6.683   2.789   4.059 -1.7770 -0.2163  2.1116
 8135SOL    HW229344   6.590   2.892   3.997  0.4457  0.1031 -0.9452
 8136SOL     OW29345   9.483   2.576  10.152  0.1934 -0.1493  0.4740
 8136SOL    HW129346   9.421   2.625  10.098  0.4229 -0.2096  0.1545
 8136SOL    HW229347   9.535   2.526  10.089  3.1288  2.7110  0.3862
 8137SOL     OW29348   0.222   9.189  10.869 -0.7981 -0.0592  0.0662
 8137SOL    HW129349   0.227   9.274  10.827 -1.1376  0.7828  1.6434
 8137SOL    HW229350   0.176   9.133  10.807 -2.8770  1.6028  0.0290
 8138SOL     OW29351  11.386   3.651   0.045  0.4484  0.4754  0.5421
 8138SOL    HW129352  11.428   3.715   0.102  0.9050 -0.6939  1.5831
 8138SOL    HW229353  11.345   3.589   0.106  0.3059 -0.3879 -0.4083
 8139SOL     OW29354   6.931   6.186   1.273 -0.4637  0.4278 -0.1618
 8139SOL    HW129355   6.999   6.156   1.212  0.5062 -1.1423  1.5772
 8139SOL    HW229356   6.978   6.235   1.340 -1.2720  0.6328  0.2736
 8140SOL     OW29357   5.537   4.966   9.031 -0.6314  0.1393  0.3495
 8140SOL    HW129358   5.624   4.929   9.046 -0.8874 -0.7049 -0.1589
 8140SOL    HW229359   5.499   4.910   8.964 -1.2630  1.0037 -0.0248
 8141SOL     OW29360   8.058   7.036   4.645 -0.3058  0.0950 -0.2382
 8141SOL    HW129361   8.135   6.987   4.674 -0.5998  1.0040  2.3639
 8141SOL    HW229362   8.093   7.112   4.600  0.5513  1.6337  2.7559
 8142SOL     OW29363   3.540   8.981   8.221  0.3283 -0.8618 -0.1195
 8142SOL    HW129364   3.610   8.931   8.265  0.0942 -0.7500  0.3811
 8142SOL    HW229365   3.587   9.039   8.161  0.6913 -0.5558  0.4466
 8143SOL     OW29366   4.250   6.563   8.292 -0.5077 -0.1518  0.6243
 8143SOL    HW129367   4.286   6.650   8.272 -0.6045  0.2029  1.9245
 8143SOL    HW229368   4.157   6.580   8.308 -0.2815 -0.2798  2.1577
 8144SOL     OW29369   7.891   7.555  10.166  0.6286 -0.2318  0.4334
 8144SOL    HW129370   7.849   7.519  10.244 -0.2566 -0.6914 -0.2442
 8144SOL    HW229371   7.949   7.624  10.199 -0.9234  0.6705  1.3509
 8145SOL     OW29372   8.205   4.753   8.813 -0.2669  0.3140  0.2887
 8145SOL    HW129373   8.275   4.781   8.755  0.6151 -1.6705  0.3110
 8145SOL    HW229374   8.125   4.782   8.770  0.3995 -0.5533 -1.6059
 8146SOL     OW29375  10.184  11.225   3.739  0.4319 -0.4912  0.4232
 8146SOL    HW129376  10.148  11.260   3.658  1.8172 -1.9576 -0.8952
 8146SOL    HW229377  10.255  11.286   3.761  1.1978 -1.0505 -0.4598
 8147SOL     OW29378   3.528   6.561   7.170  0.1124  0.6110  0.6464
 8147SOL    HW129379   3.550   6.646   7.131  1.3130 -0.6676 -1.6487
 8147SOL    HW229380   3.609   6.532   7.213  0.5179 -0.4808 -0.7981
 8148SOL     OW29381   0.620   2.286  10.997 -0.0742 -0.3505  0.2492
 8148SOL    HW129382   0.713   2.271  11.015  0.1087  2.5948  2.3187
 8148SOL    HW229383   0.620   2.352  10.928 -0.4969  1.3433  1.7924
 8149SOL     OW29384   8.821   2.693   0.372 -0.8712  0.0340 -0.0216
 8149SOL    HW129385   8.767   2.638   0.428 -1.6199 -0.8347 -1.5468
 8149SOL    HW229386   8.762   2.762   0.341 -0.2836  0.9263  0.7870
 8150SOL     OW29387   5.566   0.944   7.666 -0.1268  0.2932 -0.4872
 8150SOL    HW129388   5.577   0.998   7.588 -1.6167 -0.6949 -1.4239
 8150SOL    HW229389   5.471   0.931   7.673 -0.0141  0.1665  1.3704
 8151SOL     OW29390   9.194   0.200   2.208 -0.5852  0.0381  0.0801
 8151SOL    HW129391   9.151   0.279   2.240 -1.9091 -0.7670  0.3878
 8151SOL    HW229392   9.163   0.131   2.268  0.5658 -0.7067 -0.1536
 8152SOL     OW29393   8.965   7.417   6.533 -0.5467  0.1191 -0.2820
 8152SOL    HW129394   8.925   7.449   6.452 -0.8836 -1.7648 -0.8981
 8152SOL    HW229395   9.046   7.468   6.542 -0.6459  0.5487 -1.6544
 8153SOL     OW29396   4.523   5.690   4.033 -0.1894  0.3468  0.4272
 8153SOL    HW129397   4.553   5.723   3.948 -1.6610  0.6417 -0.0023
 8153SOL    HW229398   4.485   5.604   4.014  0.4364 -0.0620  0.9750
 8154SOL     OW29399   8.125   8.229   4.799  0.3824 -0.2795 -0.3564
 8154SOL    HW129400   8.167   8.162   4.852  1.0538  1.5732  1.6164
 8154SOL    HW229401   8.189   8.301   4.796 -1.6911  1.7591  0.8579
 8155SOL     OW29402   2.110   6.347  11.070  0.0467 -0.6762  0.4974
 8155SOL    HW129403   2.155   6.263  11.076  0.9973 -0.1785  0.6765
 8155SOL    HW229404   2.153   6.402  11.136  0.7194  0.4873 -0.8416
 8156SOL     OW29405   6.090   3.777   9.439 -0.3786 -0.1710  0.1361
 8156SOL    HW129406   6.096   3.714   9.367  0.4968 -1.4121  1.2294
 8156SOL    HW229407   6.156   3.747   9.501 -2.4753 -0.4058  2.4109
 8157SOL     OW29408   2.738   3.269   4.348  0.2724  0.5692 -0.3391
 8157SOL    HW129409   2.670   3.201   4.343  1.1232 -0.3679  0.3674
 8157SOL    HW229410   2.807   3.239   4.288  2.1555 -1.0072  2.4260
 8158SOL     OW29411   9.583   8.964   4.585  0.5432 -0.0453 -0.4778
 8158SOL    HW129412   9.603   8.874   4.607 -0.9621 -0.4974 -0.8066
 8158SOL    HW229413   9.526   8.958   4.509 -1.8946  0.9839  1.1217
 8159SOL     OW29414   1.033   7.149   9.097  0.2249 -0.1060  0.0746
 8159SOL    HW129415   1.053   7.180   9.008 -0.1310 -0.5544 -0.1665
 8159SOL    HW229416   1.039   7.228   9.151  0.7611  0.1162 -0.2917
 8160SOL     OW29417   3.125   5.381   1.428 -0.5181  0.2986  0.0676
 8160SOL    HW129418   3.162   5.317   1.368 -1.3690  0.4170 -0.6038
 8160SOL    HW229419   3.051   5.419   1.380 -1.0270  0.6140  1.0707
 8161SOL     OW29420  10.430   5.864  11.148  0.4810 -0.1922  0.3549
 8161SOL    HW129421  10.460   5.848  11.059  0.1189 -0.6774  0.3149
 8161SOL    HW229422  10.496   5.922  11.186 -0.1639  1.2798 -0.7120
 8162SOL     OW29423   5.334   4.749   9.676  0.1414  0.7880  0.0315
 8162SOL    HW129424   5.345   4.749   9.581  0.6321 -0.3836  0.0763
 8162SOL    HW229425   5.393   4.681   9.708 -0.0681  1.1113  1.1773
 8163SOL     OW29426   2.011   4.904   9.304  0.6122 -0.1314  0.0488
 8163SOL    HW129427   2.040   4.908   9.213  2.3128  0.1461  0.5728
 8163SOL    HW229428   2.056   4.827   9.340  0.7036  0.3090  0.8931
 8164SOL     OW29429   7.162   4.280   3.638 -0.3197  0.2614  0.0870
 8164SOL    HW129430   7.205   4.202   3.673 -1.3588  0.5819  2.2185
 8164SOL    HW229431   7.225   4.351   3.655 -0.1472  0.1709 -0.1698
 8165SOL     OW29432   8.685  10.347  10.100 -0.5316 -0.5157 -0.2136
 8165SOL    HW129433   8.703  10.254  10.084 -2.0845 -0.7794 -0.6204
 8165SOL    HW229434   8.720  10.392  10.024  3.9913 -0.1696  1.7203
 8166SOL     OW29435   2.387   3.533   6.532  0.1496  0.1363  0.1901
 8166SOL    HW129436   2.481   3.535   6.550  0.1246  1.3624  0.2976
 8166SOL    HW229437   2.369   3.443   6.504  1.3361 -0.1269  0.2332
 8167SOL     OW29438   0.656   9.481   2.969 -0.5242 -0.0662  0.0137
 8167SOL    HW129439   0.706   9.462   2.890  0.5127 -1.6984  1.0068
 8167SOL    HW229440   0.609   9.561   2.948 -0.4708 -0.5705 -2.3283
 8168SOL     OW29441  11.567   4.917   2.683  0.7021 -0.3219  0.5736
 8168SOL    HW129442  11.593   4.880   2.598  2.9549  0.9198  0.6284
 8168SOL    HW229443  11.638   4.978   2.704 -0.0439 -0.2457  3.1361
 8169SOL     OW29444   0.002   1.666   9.477  0.4004  0.3079 -0.5610
 8169SOL    HW129445  -0.041   1.744   9.443  1.1951  1.0000 -0.0105
 8169SOL    HW229446   0.002   1.678   9.572  0.6474 -0.2946 -0.4817
 8170SOL     OW29447   3.289   8.568   2.383  0.1142  0.3598  0.0657
 8170SOL    HW129448   3.309   8.589   2.474  0.1999 -2.3715  0.7551
 8170SOL    HW229449   3.210   8.515   2.387  1.6614 -2.2440 -1.0949
 8171SOL     OW29450   2.289   3.030   9.310 -0.1685  0.0548 -0.5996
 8171SOL    HW129451   2.276   3.081   9.229  1.3320  0.1699 -0.7905
 8171SOL    HW229452   2.257   3.088   9.379 -1.6911 -0.1351 -1.0995
 8172SOL     OW29453   7.819   3.652   4.378  0.2719  0.2133 -0.4521
 8172SOL    HW129454   7.748   3.714   4.359  0.7061  0.3732 -1.6885
 8172SOL    HW229455   7.889   3.707   4.414 -0.5000 -0.0673  1.5875
 8173SOL     OW29456   4.914   1.653  10.216 -0.1901 -0.2325  0.1069
 8173SOL    HW129457   4.881   1.563  10.219  1.4070 -0.8405  1.1906
 8173SOL    HW229458   4.929   1.670  10.123  1.1099 -1.7698 -0.0144
 8174SOL     OW29459   7.685   6.454   5.624  0.5225  0.1681 -0.3612
 8174SOL    HW129460   7.729   6.477   5.706  3.3744 -0.4169 -1.6167
 8174SOL    HW229461   7.702   6.361   5.612 -1.4510 -0.2018 -0.7771
 8175SOL     OW29462   7.087  11.655   0.468 -0.0144  0.0015 -0.1347
 8175SOL    HW129463   7.030  11.728   0.492  1.7047  1.1719  0.5646
 8175SOL    HW229464   7.027  11.588   0.436 -1.7738  1.1726  0.5377
 8176SOL     OW29465  11.407  11.163   9.249 -0.1319  0.3721  0.0138
 8176SOL    HW129466  11.371  11.074   9.253  1.7615 -0.4312  0.5345
 8176SOL    HW229467  11.467  11.167   9.324  0.1978  1.9224 -0.3158
 8177SOL     OW29468   1.276   6.105   2.718  0.3681 -0.3736 -0.1070
 8177SOL    HW129469   1.203   6.161   2.690  1.9533  1.6056 -0.5190
 8177SOL    HW229470   1.351   6.165   2.723  1.8818 -2.2499  0.7198
 8178SOL     OW29471   9.428   9.041   1.530  0.2166 -0.4863 -0.0255
 8178SOL    HW129472   9.387   8.974   1.584  1.0687 -1.8159 -0.9622
 8178SOL    HW229473   9.513   9.056   1.571 -0.2039  0.4812  0.5200
 8179SOL     OW29474   8.643   4.663   9.859 -0.2196 -0.1409 -0.0382
 8179SOL    HW129475   8.617   4.571   9.844  0.9215 -0.3968 -0.5154
 8179SOL    HW229476   8.728   4.657   9.901 -0.2095  0.7107  0.0615
 8180SOL     OW29477   1.409   7.172   2.437 -0.0067  0.0643 -0.4766
 8180SOL    HW129478   1.487   7.127   2.469 -0.2328 -0.2630 -0.3743
 8180SOL    HW229479   1.435   7.263   2.428  0.4949 -0.1028 -0.7812
 8181SOL     OW29480  11.682   5.586   0.287 -0.3973 -0.6670 -0.0918
 8181SOL    HW129481  11.698   5.597   0.381 -0.6620 -1.7190  0.0815
 8181SOL    HW229482  11.717   5.500   0.266 -2.0895 -1.2875 -0.5501
 8182SOL     OW29483   6.012   3.764   1.925  0.3460  0.1650  0.2161
 8182SOL    HW129484   5.996   3.857   1.941  0.9174  0.4735 -0.9145
 8182SOL    HW229485   5.938   3.720   1.966  1.0874  0.9414  2.6027
 8183SOL     OW29486   1.643   1.307   4.500  0.6891  0.2935  0.0435
 8183SOL    HW129487   1.712   1.325   4.436  0.2531  0.3706 -0.4154
 8183SOL    HW229488   1.645   1.383   4.559  0.5127  0.6540 -0.4046
 8184SOL     OW29489   4.787  10.345   6.246  0.0001  0.2405  0.4244
 8184SOL    HW129490   4.758  10.361   6.335 -0.2182 -0.6655  0.5337
 8184SOL    HW229491   4.707  10.326   6.197  0.2433 -0.8071  0.3978
 8185SOL     OW29492  11.062  11.353   3.847  0.3379  0.9038 -0.0330
 8185SOL    HW129493  11.098  11.333   3.761 -0.7867  0.8748 -0.5076
 8185SOL    HW229494  10.981  11.401   3.830 -1.5347 -1.6778  0.8731
 8186SOL     OW29495   5.688   2.024   4.108  0.2317 -1.0760  0.0855
 8186SOL    HW129496   5.726   1.961   4.046 -0.2741  0.8864 -2.4186
 8186SOL    HW229497   5.724   2.108   4.081 -3.9999  0.6538 -1.1339
 8187SOL     OW29498   2.278   6.611   2.452 -0.2807  0.5137 -0.3308
 8187SOL    HW129499   2.292   6.520   2.427  3.3681  0.6928  0.5581
 8187SOL    HW229500   2.284   6.659   2.369 -1.5359  0.0596 -0.7125
 8188SOL     OW29501   4.594   3.976   9.833 -0.5519 -0.5728  0.3855
 8188SOL    HW129502   4.565   3.968   9.743 -0.2663 -1.4426  0.3601
 8188SOL    HW229503   4.583   3.889   9.870 -1.1802 -0.0970  1.3570
 8189SOL     OW29504   3.834   9.109   2.207 -0.4646  0.5514 -0.1135
 8189SOL    HW129505   3.818   9.027   2.160 -0.6324  0.1672  0.5959
 8189SOL    HW229506   3.820   9.087   2.300 -0.6252  1.4083  0.0772
 8190SOL     OW29507  10.293   3.180   9.259  0.5440 -0.0343  0.1068
 8190SOL    HW129508  10.213   3.129   9.268  1.2678 -1.2393 -0.0705
 8190SOL    HW229509  10.331   3.181   9.347  1.0014 -0.6212 -0.0758
 8191SOL     OW29510   7.142   7.450   5.085 -0.0412  0.2983 -0.1739
 8191SOL    HW129511   7.159   7.540   5.057  0.5449  0.0722 -0.5735
 8191SOL    HW229512   7.205   7.435   5.156 -0.1030  0.1888 -0.1426
 8192SOL     OW29513   8.313   1.612   9.781 -0.1006 -0.8527 -0.2989
 8192SOL    HW129514   8.382   1.545   9.782  0.5457 -0.1977  0.5543
 8192SOL    HW229515   8.234   1.565   9.809  0.0628 -1.5373 -0.9439
 8193SOL     OW29516   3.191   1.375  10.772 -0.5367  0.0958 -0.2603
 8193SOL    HW129517   3.100   1.369  10.743 -0.3343  0.4386 -0.9826
 8193SOL    HW229518   3.191   1.450  10.832 -1.0915 -1.0295  1.2007
 8194SOL     OW29519   8.254   3.027  10.851 -0.2881 -0.6471 -0.2672
 8194SOL    HW129520   8.173   3.046  10.897 -0.3028 -0.3010 -0.4270
 8194SOL    HW229521   8.227   3.013  10.760 -0.0663  0.5394 -0.5412
 8195SOL     OW29522   5.018   7.762   5.616 -0.4810 -0.1628  0.1696
 8195SOL    HW129523   4.971   7.818   5.678 -0.1821 -0.0811  0.3245
 8195SOL    HW229524   5.014   7.809   5.533 -0.7792 -0.2150  0.1551
 8196SOL     OW29525   5.708   2.857   7.256 -0.5148 -0.2896 -0.4711
 8196SOL    HW129526   5.722   2.897   7.342  0.9077  0.4901 -1.0286
 8196SOL    HW229527   5.787   2.878   7.206 -2.1892  1.2716 -2.7247
 8197SOL     OW29528   8.097   8.417   9.553 -0.3902 -0.2958  0.5003
 8197SOL    HW129529   8.181   8.392   9.594  0.2055  3.3561  1.8445
 8197SOL    HW229530   8.061   8.334   9.522  2.5936 -2.3588  1.9894
 8198SOL     OW29531   9.975   8.488   5.976 -0.1042 -0.0058  0.0743
 8198SOL    HW129532  10.007   8.434   6.049 -1.7299  0.7023  1.3671
 8198SOL    HW229533   9.996   8.578   6.002  1.5795  0.1300 -1.5513
 8199SOL     OW29534   0.259   6.653   0.321 -0.3317  0.1834  0.0043
 8199SOL    HW129535   0.176   6.623   0.359 -0.0043  1.6022  2.0617
 8199SOL    HW229536   0.233   6.710   0.248 -1.1863  0.5131  0.5434
 8200SOL     OW29537   6.965  10.813   9.004 -0.0417  0.6338 -0.7473
 8200SOL    HW129538   6.946  10.890   9.057  2.2223  0.9979 -0.3578
 8200SOL    HW229539   7.032  10.842   8.942 -0.3628 -0.6067 -1.7260
 8201SOL     OW29540   3.384   6.012   2.245  0.7219  0.1442  0.0955
 8201SOL    HW129541   3.455   5.973   2.195 -0.6496  0.1893 -2.0519
 8201SOL    HW229542   3.316   5.944   2.247  0.2814  0.5940  0.8321
 8202SOL     OW29543   4.654   3.768   4.001 -0.2522 -0.0331 -0.3829
 8202SOL    HW129544   4.622   3.791   3.914 -0.0219  3.1423  0.2324
 8202SOL    HW229545   4.733   3.822   4.012 -0.3500 -0.2422  1.8212
 8203SOL     OW29546   7.246   3.492   6.337  0.1356  0.4629 -0.1749
 8203SOL    HW129547   7.178   3.471   6.401  0.3986 -1.2034 -0.4035
 8203SOL    HW229548   7.198   3.533   6.264 -0.1281  2.6263  1.1304
 8204SOL     OW29549   3.673   2.119  11.415 -0.2946 -0.1610 -0.0690
 8204SOL    HW129550   3.751   2.086  11.370 -0.2758 -0.5337  0.2359
 8204SOL    HW229551   3.620   2.157  11.345 -1.4105 -2.8750 -0.8240
 8205SOL     OW29552   8.283  11.417   3.804  0.8476  0.9522 -0.6882
 8205SOL    HW129553   8.220  11.469   3.755  1.6412  1.0812 -1.6128
 8205SOL    HW229554   8.368  11.441   3.766  1.2190 -1.1667 -1.3022
 8206SOL     OW29555   9.676   4.219   4.887  0.4335  0.0807  0.1792
 8206SOL    HW129556   9.712   4.292   4.938 -0.4493  0.2762  0.5430
 8206SOL    HW229557   9.753   4.170   4.858  0.9934 -0.6913  2.6621
 8207SOL     OW29558   5.942   1.038   3.451  0.1142 -0.0041  0.2802
 8207SOL    HW129559   5.923   0.975   3.521 -0.5051 -1.2079 -0.9319
 8207SOL    HW229560   5.878   1.108   3.464 -0.1511 -0.3334  0.7798
 8208SOL     OW29561   5.494   1.754   5.888  0.1267  0.0599 -0.6008
 8208SOL    HW129562   5.584   1.781   5.869  0.6051 -0.9218  0.2141
 8208SOL    HW229563   5.486   1.667   5.849 -0.9528  0.7249 -1.9532
 8209SOL     OW29564   8.995   8.250  10.796 -0.2757 -0.1378  0.8104
 8209SOL    HW129565   9.067   8.190  10.818  0.9862  0.2193 -1.9117
 8209SOL    HW229566   9.027   8.337  10.820  0.6274  0.1134 -1.0748
 8210SOL     OW29567   1.929   8.517   8.643 -0.1333 -0.1417 -0.2507
 8210SOL    HW129568   1.993   8.587   8.638 -0.9200  0.6510  0.3477
 8210SOL    HW229569   1.898   8.519   8.734 -0.1184 -1.3144 -0.2050
 8211SOL     OW29570   2.542   6.311   3.883  0.6226  0.6280 -0.0331
 8211SOL    HW129571   2.448   6.303   3.868  0.5805  0.4427  0.3093
 8211SOL    HW229572   2.557   6.404   3.896  0.2884  0.5308  1.1478
 8212SOL     OW29573   4.226   6.182   3.788 -0.0352  0.0134 -0.1679
 8212SOL    HW129574   4.229   6.247   3.718  1.4005  0.4682  0.2908
 8212SOL    HW229575   4.160   6.118   3.758  0.7291  0.0375 -2.0618
 8213SOL     OW29576   6.074   6.581   7.626 -0.3878 -0.4594 -0.6559
 8213SOL    HW129577   6.044   6.657   7.676 -0.4110 -1.2001  0.4792
 8213SOL    HW229578   6.139   6.616   7.565  1.7924  0.0505  1.8299
 8214SOL     OW29579   5.536   9.186   7.923  0.4113  0.0629 -0.6277
 8214SOL    HW129580   5.469   9.253   7.938  0.2178 -0.1099 -0.7178
 8214SOL    HW229581   5.615   9.236   7.900 -0.3585  0.2377 -3.2246
 8215SOL     OW29582   4.376   1.266   6.120  0.2712 -0.0696 -0.4112
 8215SOL    HW129583   4.356   1.244   6.028  0.3113  1.1032 -0.7112
 8215SOL    HW229584   4.471   1.258   6.126  0.4849  1.6198 -0.9839
 8216SOL     OW29585   8.920   2.333   0.531 -0.2342 -0.3659 -0.3035
 8216SOL    HW129586   8.991   2.322   0.468  0.7939  0.5740  0.6536
 8216SOL    HW229587   8.944   2.411   0.581 -1.7058 -0.3044  0.3627
 8217SOL     OW29588   7.717   8.733   1.687 -0.1123  0.8073  0.4290
 8217SOL    HW129589   7.752   8.691   1.766 -2.0034 -0.6904  0.5260
 8217SOL    HW229590   7.711   8.826   1.710 -2.5310  0.1520  2.8414
 8218SOL     OW29591   5.351   4.266  10.116 -0.1224  0.5091 -0.2342
 8218SOL    HW129592   5.413   4.194  10.105 -0.4769  0.3198 -1.1564
 8218SOL    HW229593   5.309   4.249  10.200 -1.1974 -1.1765 -1.0548
 8219SOL     OW29594  11.217  10.385   6.799 -0.1184 -0.0615  0.3726
 8219SOL    HW129595  11.249  10.475   6.791  1.3353 -0.6387 -0.9150
 8219SOL    HW229596  11.294  10.334   6.823 -0.6790 -1.1228 -0.0063
 8220SOL     OW29597   6.671   8.444   9.848 -0.0354  0.6732  0.7308
 8220SOL    HW129598   6.670   8.524   9.796 -0.0623  0.7760  0.8891
 8220SOL    HW229599   6.731   8.463   9.920 -0.7074  0.8629  1.2533
 8221SOL     OW29600   0.009   4.242   2.924  0.9461 -0.0558  0.0281
 8221SOL    HW129601   0.071   4.279   2.861 -0.1687  1.1528 -0.3972
 8221SOL    HW229602   0.065   4.207   2.994  2.1230  2.5369  0.5079
 8222SOL     OW29603  10.330   2.503   1.520  0.2102  0.2377 -0.7245
 8222SOL    HW129604  10.249   2.537   1.481 -0.3894 -0.9617 -0.5713
 8222SOL    HW229605  10.344   2.419   1.477  3.1124  1.7129 -2.9958
 8223SOL     OW29606   3.759   6.758   9.668  0.4263  0.1740 -0.3959
 8223SOL    HW129607   3.750   6.819   9.741  0.6638  1.2977 -1.2795
 8223SOL    HW229608   3.844   6.717   9.682 -0.4216 -1.2353  1.1036
 8224SOL     OW29609   2.282   6.477   2.984  0.5374  0.0515  0.0607
 8224SOL    HW129610   2.192   6.506   2.974  1.0504  1.7476 -0.0629
 8224SOL    HW229611   2.301   6.427   2.904  0.9071  3.1942 -2.0178
 8225SOL     OW29612   7.183  11.670   3.268 -0.4902  0.0247 -0.3038
 8225SOL    HW129613   7.108  11.647   3.213 -2.3600  1.4325  1.4748
 8225SOL    HW229614   7.248  11.705   3.208 -0.1654 -3.4303 -2.2355
 8226SOL     OW29615   5.746   9.149   3.988  0.1606  0.4395 -0.3859
 8226SOL    HW129616   5.758   9.201   3.909 -1.3316  1.8294  0.2573
 8226SOL    HW229617   5.801   9.193   4.054  0.3677  0.0705 -0.3105
 8227SOL     OW29618   6.923   2.563  10.912  0.1874  0.2273 -0.4663
 8227SOL    HW129619   6.920   2.479  10.959 -2.6577  0.7462  0.5095
 8227SOL    HW229620   6.911   2.539  10.820 -0.1447 -0.5011 -0.2461
 8228SOL     OW29621   1.713  10.269   8.906  0.1054  0.2454 -0.3704
 8228SOL    HW129622   1.642  10.295   8.848 -0.4199  0.5635  0.3870
 8228SOL    HW229623   1.790  10.260   8.850 -0.6367 -0.5507 -1.2822
 8229SOL     OW29624   9.094   4.460   3.205 -0.0731  0.2624  0.2527
 8229SOL    HW129625   9.084   4.536   3.147  0.8742  0.5960  0.5062
 8229SOL    HW229626   9.131   4.392   3.149  3.1759  1.3021  0.8833
 8230SOL     OW29627   9.876   0.002   3.495 -0.1192  0.1388 -0.0501
 8230SOL    HW129628   9.875  -0.084   3.454  0.8608  0.4692 -0.8317
 8230SOL    HW229629   9.785   0.029   3.498 -0.9710 -2.3837  3.5186
 8231SOL     OW29630   1.292   5.429   5.711  0.3970 -0.2288 -0.4256
 8231SOL    HW129631   1.259   5.514   5.741 -0.2749 -0.4927 -0.4100
 8231SOL    HW229632   1.223   5.367   5.735  1.3517 -0.9435  0.5472
 8232SOL     OW29633   5.930   7.438   9.557  0.0281  0.2337 -0.4722
 8232SOL    HW129634   5.922   7.532   9.537 -0.2535  0.2353 -0.3579
 8232SOL    HW229635   5.956   7.435   9.649  3.1850  0.2796 -1.2332
 8233SOL     OW29636   0.435   2.045   6.240 -0.2655 -0.2264 -0.0793
 8233SOL    HW129637   0.403   2.068   6.327 -1.0692 -1.8046  0.0662
 8233SOL    HW229638   0.409   2.119   6.185 -2.5783 -0.6041  0.4076
 8234SOL     OW29639   9.816   7.071   5.279 -0.0017  0.2603 -0.5209
 8234SOL    HW129640   9.786   7.127   5.208 -0.2515  1.7565  0.6949
 8234SOL    HW229641   9.748   7.004   5.287 -2.5236  2.7805  1.2787
 8235SOL     OW29642   2.172   6.158  11.467 -0.0752  0.3313 -0.2191
 8235SOL    HW129643   2.242   6.181  11.406 -0.0169 -1.0905 -0.7232
 8235SOL    HW229644   2.217   6.137  11.548 -0.1260  1.8397  0.2345
 8236SOL     OW29645   5.828   0.264   9.660  0.0890 -0.5890  0.0327
 8236SOL    HW129646   5.744   0.257   9.705  0.1196 -0.5081  0.1029
 8236SOL    HW229647   5.840   0.179   9.617  0.5123 -1.0183  0.9756
 8237SOL     OW29648   5.753   1.313   0.241 -0.2173  0.3124 -0.2408
 8237SOL    HW129649   5.758   1.236   0.183  1.1444 -0.3226  0.6799
 8237SOL    HW229650   5.668   1.305   0.284 -0.3171 -0.3718 -0.5517
 8238SOL     OW29651   2.050   3.840   3.079 -0.2006  0.5013 -0.6547
 8238SOL    HW129652   2.060   3.933   3.097 -1.4469  0.5480 -0.0943
 8238SOL    HW229653   2.040   3.835   2.984 -0.7442  1.0098 -0.6293
 8239SOL     OW29654   0.253   4.722   8.470  0.0980 -0.2164  0.3090
 8239SOL    HW129655   0.316   4.786   8.503 -0.2576 -0.2659  1.1102
 8239SOL    HW229656   0.215   4.683   8.549 -2.1727  1.0089 -0.0715
 8240SOL     OW29657   1.878   6.979   6.437 -0.1041  0.4188  0.1398
 8240SOL    HW129658   1.817   7.031   6.490 -0.0212  0.2743  0.3730
 8240SOL    HW229659   1.956   7.034   6.429  0.8221 -0.5100  2.1599
 8241SOL     OW29660   3.259   9.863   3.653 -0.8858 -0.0736 -0.0588
 8241SOL    HW129661   3.353   9.878   3.664 -1.0432  1.8325 -0.8543
 8241SOL    HW229662   3.252   9.799   3.583 -0.1908 -0.2405  0.0201
 8242SOL     OW29663   9.166   6.749  11.556  0.4995  0.7321 -0.3893
 8242SOL    HW129664   9.218   6.722  11.632  0.2818  0.8284 -0.2049
 8242SOL    HW229665   9.216   6.717  11.481  0.3959  0.0713 -0.1866
 8243SOL     OW29666   3.699   7.572   1.348 -0.2986 -0.4923  0.8110
 8243SOL    HW129667   3.763   7.643   1.345  0.1994 -0.8288  2.3295
 8243SOL    HW229668   3.710   7.525   1.266 -0.0365  0.6730  0.1652
 8244SOL     OW29669   6.655   3.306   8.451 -0.0896 -0.4897  0.0122
 8244SOL    HW129670   6.622   3.307   8.362 -0.6107 -2.9026  0.1257
 8244SOL    HW229671   6.750   3.317   8.442 -0.0141 -1.7307 -0.9459
 8245SOL     OW29672  10.116   8.109   1.214  1.1214 -0.4280  0.4190
 8245SOL    HW129673  10.047   8.044   1.210  1.9483 -1.3145  0.0709
 8245SOL    HW229674  10.103   8.153   1.298 -1.2117  0.9978 -0.5972
 8246SOL     OW29675   0.423   9.167   6.586 -0.0655 -0.4105  0.0005
 8246SOL    HW129676   0.458   9.129   6.505  0.0440 -0.7213  0.1917
 8246SOL    HW229677   0.332   9.138   6.588 -0.2007 -0.0119 -0.2479
 8247SOL     OW29678   7.620   1.961   4.502  0.1136  0.8029  0.1636
 8247SOL    HW129679   7.682   2.031   4.522 -0.5012  1.2296  0.6252
 8247SOL    HW229680   7.629   1.946   4.408  0.4618  1.2953  0.1165
 8248SOL     OW29681  11.210  10.571  11.602  0.9005 -0.2592  0.3537
 8248SOL    HW129682  11.298  10.535  11.612  1.6904  1.4898  0.1271
 8248SOL    HW229683  11.185  10.550  11.512  2.0449  1.1334 -0.3261
 8249SOL     OW29684   7.272   7.081   5.417  0.0411 -0.3215 -0.2435
 8249SOL    HW129685   7.310   7.149   5.361  1.0013 -0.1475  0.5808
 8249SOL    HW229686   7.218   7.029   5.358 -0.5932  1.0621 -0.9254
 8250SOL     OW29687   1.028   9.441   0.410  0.2706  0.8450  0.1489
 8250SOL    HW129688   1.108   9.433   0.462  0.9559  0.5436 -0.9212
 8250SOL    HW229689   1.051   9.500   0.339  0.1100 -0.6188 -1.1761
 8251SOL     OW29690   4.770   5.273  10.287  0.1175  0.1492  0.2224
 8251SOL    HW129691   4.783   5.195  10.341  0.0578  0.1769  0.2762
 8251SOL    HW229692   4.783   5.347  10.347  1.6168  0.2073 -0.1274
 8252SOL     OW29693   7.212   5.934   3.415  0.1369  0.0339  0.5427
 8252SOL    HW129694   7.247   5.914   3.502 -0.2536 -0.3891  0.6063
 8252SOL    HW229695   7.125   5.968   3.431 -0.3714 -1.0818  0.2743
 8253SOL     OW29696  11.551   2.097   6.046 -0.1437 -0.5742  0.6595
 8253SOL    HW129697  11.572   2.072   6.136  0.2288 -1.5034  0.3309
 8253SOL    HW229698  11.628   2.146   6.015  0.3017 -1.3920  0.4320
 8254SOL     OW29699   4.168   5.993   9.960  0.2521  0.1836 -0.2415
 8254SOL    HW129700   4.263   5.987   9.964  0.3338  1.0122 -0.8448
 8254SOL    HW229701   4.142   5.920   9.903  0.5413  0.1144 -0.2859
 8255SOL     OW29702   7.534  10.946   6.751  0.8310  0.9113  0.2553
 8255SOL    HW129703   7.465  11.012   6.753  0.6930  0.8003 -0.5594
 8255SOL    HW229704   7.539  10.915   6.841 -0.4421  0.6619  0.2618
 8256SOL     OW29705   0.803   2.124   2.038  0.5903 -0.0757 -0.5649
 8256SOL    HW129706   0.843   2.125   2.125 -2.1828  1.9350  0.8246
 8256SOL    HW229707   0.809   2.215   2.008 -0.8282 -0.2016 -1.2843
 8257SOL     OW29708   8.225   3.052  11.675  0.5074  0.4183 -0.2094
 8257SOL    HW129709   8.195   3.092  11.593  0.2978 -1.5138 -1.1381
 8257SOL    HW229710   8.307   3.008  11.652  0.7140  0.2789  0.7510
 8258SOL     OW29711  11.400  10.911   0.812  0.2822 -0.4223 -0.1586
 8258SOL    HW129712  11.399  10.879   0.722  0.8315  1.2787 -0.8050
 8258SOL    HW229713  11.348  10.846   0.861 -0.6912 -0.9692 -1.8301
 8259SOL     OW29714   1.716   5.797   7.387  0.0674  0.4851  0.2791
 8259SOL    HW129715   1.742   5.735   7.319 -0.6675 -0.4449  0.8273
 8259SOL    HW229716   1.627   5.772   7.409 -0.0843  1.4723  0.8201
 8260SOL     OW29717   7.295  10.810   7.084  0.1159 -0.6458 -0.3161
 8260SOL    HW129718   7.304  10.777   7.173 -1.6720 -0.2005  0.0645
 8260SOL    HW229719   7.384  10.807   7.048  1.4707  1.7855  2.3903
 8261SOL     OW29720   5.887   0.824   0.148 -0.0041  0.0678  0.0868
 8261SOL    HW129721   5.863   0.779   0.067  1.4650 -1.7807  0.5950
 8261SOL    HW229722   5.982   0.826   0.147  0.0112  1.1488  1.2035
 8262SOL     OW29723   4.526   6.004   8.521  0.0602  0.3005 -0.4089
 8262SOL    HW129724   4.522   5.987   8.615  0.1276  1.8534 -0.0847
 8262SOL    HW229725   4.451   5.959   8.485 -1.5165  1.8068  0.8030
 8263SOL     OW29726   2.707   4.136   9.390 -0.3176  0.2567 -0.0036
 8263SOL    HW129727   2.623   4.183   9.399 -0.0779  0.5290  0.9242
 8263SOL    HW229728   2.682   4.045   9.377 -0.7795 -0.1244  2.9730
 8264SOL     OW29729   0.412   4.523   8.318 -0.3106 -1.0045  0.0261
 8264SOL    HW129730   0.348   4.578   8.363 -0.4323 -0.1516 -1.1570
 8264SOL    HW229731   0.380   4.434   8.331  0.2085 -0.9200  2.4746
 8265SOL     OW29732   4.751  10.327  11.591  0.2021 -0.2367  0.0161
 8265SOL    HW129733   4.667  10.282  11.589  0.0649  0.0138  0.0959
 8265SOL    HW229734   4.801  10.287  11.520  0.0948 -0.5360  0.1080
 8266SOL     OW29735   7.253  10.573   0.210  0.0941  0.6139  0.6557
 8266SOL    HW129736   7.219  10.547   0.125  1.2462  1.3661 -0.0708
 8266SOL    HW229737   7.343  10.599   0.193  0.3232  0.8727  2.0950
 8267SOL     OW29738  10.239   6.552   7.161 -0.6644  0.7425 -0.0771
 8267SOL    HW129739  10.231   6.499   7.239 -1.5724  0.5863 -0.2713
 8267SOL    HW229740  10.334   6.563   7.149 -0.5162  0.7229  0.9956
 8268SOL     OW29741   2.139   8.708   4.756 -0.1871  0.2744 -0.1993
 8268SOL    HW129742   2.176   8.679   4.840 -1.2258 -0.3172  0.0755
 8268SOL    HW229743   2.118   8.800   4.770  1.4127  0.7020 -0.4563
 8269SOL     OW29744   2.001   4.834   5.562  0.0073  0.1588 -0.0113
 8269SOL    HW129745   1.974   4.901   5.498  2.4094 -0.5663 -1.9414
 8269SOL    HW229746   1.999   4.752   5.513 -0.8114 -0.8873  1.7096
 8270SOL     OW29747   1.983   3.416  10.889  0.8665  0.0628 -0.1432
 8270SOL    HW129748   2.001   3.410  10.795 -0.7253 -0.5202 -0.4554
 8270SOL    HW229749   1.926   3.341  10.907 -0.1235  1.0324  0.9622
 8271SOL     OW29750  10.592   3.031   2.486 -0.0407 -0.1803 -0.6953
 8271SOL    HW129751  10.542   2.976   2.425  0.3331  0.3110 -1.4635
 8271SOL    HW229752  10.683   3.003   2.476 -0.1106 -0.8528  0.4658
 8272SOL     OW29753   3.475   0.309   5.663  0.4078 -0.4165  0.5052
 8272SOL    HW129754   3.437   0.363   5.732  2.4411 -0.8450  2.0842
 8272SOL    HW229755   3.414   0.316   5.589  0.2112  3.4220  0.8477
 8273SOL     OW29756   6.237  11.520   4.403 -0.2731  0.4132  0.2723
 8273SOL    HW129757   6.242  11.436   4.450  1.8469  0.5742  0.4275
 8273SOL    HW229758   6.143  11.539   4.398 -0.7530 -1.5174  1.0259
 8274SOL     OW29759   6.629   7.770  10.482 -0.0057 -0.7801 -0.1565
 8274SOL    HW129760   6.557   7.755  10.543  0.0690  1.8184  0.6695
 8274SOL    HW229761   6.601   7.845  10.429  1.7594 -0.2060 -0.3427
 8275SOL     OW29762   6.352   3.344   5.357  0.2346 -0.2416  0.1217
 8275SOL    HW129763   6.270   3.312   5.319  0.2460 -0.1105 -0.0124
 8275SOL    HW229764   6.408   3.267   5.363  0.0478 -0.3600  0.3521
 8276SOL     OW29765   8.622   4.872   4.129  0.2315  0.3210  0.1666
 8276SOL    HW129766   8.666   4.940   4.179  0.8597 -1.5010  2.2671
 8276SOL    HW229767   8.529   4.896   4.131  0.3066  0.5898  1.7973
 8277SOL     OW29768   1.811   0.349   6.637  0.1271 -0.5306 -0.1589
 8277SOL    HW129769   1.776   0.436   6.657  0.2899 -0.3046 -0.8138
 8277SOL    HW229770   1.904   0.355   6.658 -0.1151 -0.9841  1.1238
 8278SOL     OW29771  11.505   1.778   3.377 -0.3412 -0.4087 -0.6438
 8278SOL    HW129772  11.477   1.869   3.369 -0.3438 -0.4250 -0.8090
 8278SOL    HW229773  11.447   1.742   3.444  1.8953  0.6449  2.0948
 8279SOL     OW29774   2.981  10.570   8.927  0.1918 -0.3000 -1.0555
 8279SOL    HW129775   2.990  10.515   9.005  1.3380 -1.3808 -1.9093
 8279SOL    HW229776   2.887  10.582   8.917 -0.0329 -1.2089 -0.2133
 8280SOL     OW29777   0.055   3.721   1.596  0.2315 -0.1386  0.2615
 8280SOL    HW129778  -0.018   3.672   1.558 -2.9159  3.3681  1.2035
 8280SOL    HW229779   0.050   3.700   1.690  0.3769  0.1556  0.3340
 8281SOL     OW29780  11.176   7.335   3.896  0.0137 -0.0219 -0.3102
 8281SOL    HW129781  11.269   7.349   3.874  0.7002 -3.1542  0.1438
 8281SOL    HW229782  11.134   7.321   3.811 -0.1445  1.5947 -0.5347
 8282SOL     OW29783  10.359  11.513   9.033  0.4812  0.0365  0.0202
 8282SOL    HW129784  10.388  11.509   9.124  0.9688  1.7053 -0.0217
 8282SOL    HW229785  10.360  11.607   9.012 -0.7937 -0.2202 -1.3352
 8283SOL     OW29786   9.641   7.821   2.095  0.6590 -0.1442 -0.2267
 8283SOL    HW129787   9.640   7.884   2.023  1.6902  0.6496  0.4229
 8283SOL    HW229788   9.559   7.836   2.142  0.8686  0.6889 -0.1185
 8284SOL     OW29789   3.172   2.323   1.558  0.1117  0.1268 -0.0285
 8284SOL    HW129790   3.174   2.393   1.623 -0.6061 -0.6206  0.8277
 8284SOL    HW229791   3.260   2.285   1.560 -0.3860 -1.0687  1.8762
 8285SOL     OW29792  11.386   5.048   7.539 -0.3788 -0.9086  0.4296
 8285SOL    HW129793  11.385   5.051   7.443  0.4058 -1.0895  0.4131
 8285SOL    HW229794  11.476   5.027   7.562 -0.9587 -2.7953  1.1626
 8286SOL     OW29795   4.649  10.484   7.634  0.3340  0.0987 -0.0507
 8286SOL    HW129796   4.726  10.443   7.593 -0.3553 -0.0651 -1.2443
 8286SOL    HW229797   4.623  10.422   7.702  1.3808  0.2667  0.5312
 8287SOL     OW29798   2.852   4.049   7.694  0.2023  0.4904 -0.3843
 8287SOL    HW129799   2.917   4.115   7.719 -0.1090  0.4927  0.4608
 8287SOL    HW229800   2.770   4.099   7.686 -0.7030 -0.1380  3.1664
 8288SOL     OW29801   2.259   0.238   2.974  0.2370 -0.1414  0.3066
 8288SOL    HW129802   2.344   0.248   3.017  1.0548 -0.3710 -1.1884
 8288SOL    HW229803   2.255   0.145   2.951  0.2112  0.1322 -0.8515
 8289SOL     OW29804   6.004   0.514   4.795  0.0999  0.0486 -0.3009
 8289SOL    HW129805   5.911   0.516   4.773  0.1105 -0.4239 -0.3887
 8289SOL    HW229806   6.005   0.509   4.891 -0.0373 -3.0247 -0.3532
 8290SOL     OW29807  11.561   7.540   1.555 -0.2965  0.3343 -0.5293
 8290SOL    HW129808  11.643   7.503   1.523  0.4519 -0.8843  2.4354
 8290SOL    HW229809  11.493   7.490   1.511  0.5766  0.0253 -1.5776
 8291SOL     OW29810   4.766   0.914   4.782  0.0494  0.0111  0.6010
 8291SOL    HW129811   4.830   0.855   4.743 -0.5236  0.8738 -1.8258
 8291SOL    HW229812   4.805   1.001   4.774 -0.6474  0.3453  0.7229
 8292SOL     OW29813   9.734   7.749   7.806 -0.1277  0.5257 -0.3678
 8292SOL    HW129814   9.752   7.753   7.712 -1.4922 -0.2345 -0.6857
 8292SOL    HW229815   9.783   7.822   7.843 -0.5144  1.5546 -1.8284
 8293SOL     OW29816   1.179   6.109   0.682  0.2037 -0.2983  0.0559
 8293SOL    HW129817   1.233   6.169   0.630  0.6466 -1.1557 -0.5004
 8293SOL    HW229818   1.137   6.054   0.616  0.0161 -0.7769  0.5773
 8294SOL     OW29819   4.767   2.148   4.335  0.0672 -0.3251 -0.1795
 8294SOL    HW129820   4.821   2.070   4.325  2.1726  1.2424 -2.0504
 8294SOL    HW229821   4.791   2.183   4.421  2.4570  0.5275 -1.1106
 8295SOL     OW29822   4.614   1.439   7.284  0.3230  0.1403 -0.4548
 8295SOL    HW129823   4.596   1.533   7.280 -0.2358  0.0359 -0.4069
 8295SOL    HW229824   4.679   1.424   7.215  2.0074  0.9149  0.8727
 8296SOL     OW29825  11.003  10.587  10.651  0.2263  0.3438 -0.2368
 8296SOL    HW129826  10.974  10.526  10.719 -3.0153  0.8180 -1.0469
 8296SOL    HW229827  11.097  10.568  10.640 -0.2997 -3.4719  0.5438
 8297SOL     OW29828   8.069   4.719   2.858 -0.4282  0.3445  0.3808
 8297SOL    HW129829   8.007   4.692   2.926 -0.8773 -0.9000 -0.4826
 8297SOL    HW229830   8.116   4.793   2.897 -0.7636 -0.2299  1.9872
 8298SOL     OW29831   2.137   5.634   7.152  0.0616 -0.0765 -0.4033
 8298SOL    HW129832   2.163   5.542   7.153  1.0835  0.1940 -0.6099
 8298SOL    HW229833   2.101   5.649   7.065 -3.1575 -1.0415  0.6110
 8299SOL     OW29834   4.070   9.192   3.020  0.1108 -0.3544 -0.7203
 8299SOL    HW129835   4.014   9.268   3.032 -0.1688 -0.4685 -1.2648
 8299SOL    HW229836   4.155   9.228   2.995 -0.0339 -0.2230 -1.0246
 8300SOL     OW29837   3.106   4.055   5.937  0.1329 -0.1052  0.0230
 8300SOL    HW129838   3.106   4.037   6.031 -1.7231  0.0919  0.0984
 8300SOL    HW229839   3.053   4.134   5.928  1.2387  0.5598 -1.1073
 8301SOL     OW29840  10.069   6.822   7.005 -0.2622 -0.0449 -0.3907
 8301SOL    HW129841  10.115   6.906   7.006 -3.5806  1.9605 -0.6568
 8301SOL    HW229842  10.045   6.808   6.914 -0.2434 -1.0084 -0.2608
 8302SOL     OW29843   8.270   3.499   1.054 -0.4205 -0.4052  0.2305
 8302SOL    HW129844   8.210   3.478   0.983  1.0353 -0.1743 -1.1263
 8302SOL    HW229845   8.214   3.530   1.125 -1.8463  0.3363 -1.1743
 8303SOL     OW29846   1.936   7.149   8.672  0.4287  0.3534 -0.0983
 8303SOL    HW129847   1.968   7.114   8.588 -0.5594 -0.3727 -0.1970
 8303SOL    HW229848   2.008   7.134   8.733  1.5931  1.8962 -1.0300
 8304SOL     OW29849   2.899   9.612   3.922  0.1589  0.5680  0.0047
 8304SOL    HW129850   2.949   9.533   3.903 -1.5181 -1.2616  2.4713
 8304SOL    HW229851   2.965   9.680   3.936  1.8128 -1.0594  0.4538
 8305SOL     OW29852   6.717   9.300   5.786  0.5303  0.1764  0.4056
 8305SOL    HW129853   6.753   9.313   5.873  2.1660  0.1691 -0.2342
 8305SOL    HW229854   6.624   9.286   5.800  0.7950  0.0158  2.1530
 8306SOL     OW29855   5.979   0.988   2.920 -0.4361 -0.1980  0.1269
 8306SOL    HW129856   6.069   0.994   2.953 -0.9044  1.1842  1.2436
 8306SOL    HW229857   5.961   1.074   2.884 -1.5951 -0.1825  0.6850
 8307SOL     OW29858   6.045   9.215   3.867  0.7706  0.1847  0.6968
 8307SOL    HW129859   6.027   9.184   3.956 -3.2551 -2.4478 -0.7160
 8307SOL    HW229860   5.961   9.250   3.837  0.9897 -1.9045 -2.9873
 8308SOL     OW29861   8.880   7.185   6.127 -0.2777  0.0122 -0.2651
 8308SOL    HW129862   8.928   7.205   6.046  0.3866  1.4546  0.4466
 8308SOL    HW229863   8.789   7.206   6.106  0.1545  2.4170 -0.0765
 8309SOL     OW29864   0.382   6.867   8.871 -0.3851 -0.2398  0.3835
 8309SOL    HW129865   0.454   6.922   8.841 -1.2572  0.2857 -0.8155
 8309SOL    HW229866   0.382   6.877   8.966  1.5159 -0.7681  0.4654
 8310SOL     OW29867  10.659   3.704   6.151  0.2020  0.0329  0.2658
 8310SOL    HW129868  10.593   3.663   6.206 -0.5196  0.3131 -0.3704
 8310SOL    HW229869  10.743   3.672   6.185 -0.2980 -1.1736  0.4066
 8311SOL     OW29870   0.192  11.219   5.828 -0.0986  0.1555  0.3960
 8311SOL    HW129871   0.241  11.230   5.746 -0.7631  0.2091  0.0057
 8311SOL    HW229872   0.210  11.299   5.877  0.1097  0.2273  0.2034
 8312SOL     OW29873   1.950   1.828   5.772 -0.2795  0.2428 -0.0559
 8312SOL    HW129874   1.894   1.897   5.808 -0.3046  0.8031 -1.1137
 8312SOL    HW229875   2.032   1.836   5.821 -0.4317  0.7473  0.1273
 8313SOL     OW29876   8.742   9.563   3.809  0.2163 -0.4014 -0.0119
 8313SOL    HW129877   8.763   9.577   3.902  1.7102 -1.2457 -0.1895
 8313SOL    HW229878   8.685   9.636   3.786 -0.7377 -0.5384  1.7383
 8314SOL     OW29879   3.788  10.723   7.936  0.3242 -0.1368 -0.5100
 8314SOL    HW129880   3.851  10.710   8.007  0.8341 -0.9328 -1.0909
 8314SOL    HW229881   3.721  10.656   7.951 -0.3163  0.6134  0.0224
 8315SOL     OW29882   3.562   7.114   8.424  0.5541  0.0288 -0.0903
 8315SOL    HW129883   3.488   7.063   8.391  0.8545 -0.5477  0.1188
 8315SOL    HW229884   3.523   7.182   8.478  0.0065  1.2715 -1.9558
 8316SOL     OW29885   9.163   4.983   2.013  0.2272 -0.4428 -0.0419
 8316SOL    HW129886   9.181   4.964   1.920 -0.2978  2.1906 -0.7682
 8316SOL    HW229887   9.165   5.079   2.018 -1.7029 -0.4399  2.2799
 8317SOL     OW29888  11.465   8.261   0.073  0.0644 -0.0561  0.1642
 8317SOL    HW129889  11.473   8.345   0.118 -1.6870  0.8098 -1.0549
 8317SOL    HW229890  11.431   8.201   0.139  0.2314  0.4686  0.7347
 8318SOL     OW29891   2.008   4.322   0.496  0.1124  0.0362  0.1695
 8318SOL    HW129892   1.918   4.332   0.465  0.6173 -1.1757 -1.9071
 8318SOL    HW229893   2.006   4.240   0.546  0.2480 -0.6301 -0.8700
 8319SOL     OW29894   1.283   1.198  11.385  0.1463  0.1290  0.0299
 8319SOL    HW129895   1.281   1.235  11.473  1.5039  2.9176 -0.9939
 8319SOL    HW229896   1.370   1.159  11.378  0.5516  1.0987 -0.4810
 8320SOL     OW29897   6.828   2.182   3.632  0.5361 -0.1425  0.2110
 8320SOL    HW129898   6.918   2.159   3.609 -0.1125 -1.4020 -1.2801
 8320SOL    HW229899   6.778   2.103   3.611 -0.7998  0.2052  1.8998
 8321SOL     OW29900   9.690   6.414   0.711  0.0174 -0.4665  0.2914
 8321SOL    HW129901   9.754   6.477   0.679 -0.0016 -0.4834  0.2190
 8321SOL    HW229902   9.642   6.460   0.780 -0.3371 -0.2270 -0.1092
 8322SOL     OW29903   0.725  10.264   2.452 -0.4224 -0.3343 -0.0334
 8322SOL    HW129904   0.797  10.328   2.455 -1.0139  0.3218  1.5502
 8322SOL    HW229905   0.745  10.202   2.522 -0.9454 -0.6600 -0.1678
 8323SOL     OW29906   8.944   8.046   7.323  0.1747  0.4026 -0.5897
 8323SOL    HW129907   9.005   8.003   7.383  0.1344  1.5889  0.3368
 8323SOL    HW229908   9.000   8.085   7.256  0.2771 -0.2785 -0.9033
 8324SOL     OW29909   5.678   3.236   5.454 -0.0813 -0.3583 -0.0917
 8324SOL    HW129910   5.604   3.218   5.395  0.2945 -0.6225 -0.4878
 8324SOL    HW229911   5.701   3.149   5.488  1.3707 -0.5889 -1.5585
 8325SOL     OW29912   4.221   7.919   5.268 -0.1229 -1.1514  0.2035
 8325SOL    HW129913   4.267   7.893   5.347  0.9851 -1.3899 -0.4982
 8325SOL    HW229914   4.260   8.003   5.244  0.2768 -1.5563 -0.6277
 8326SOL     OW29915   4.495   8.553   0.016  0.0860 -0.2808  0.8009
 8326SOL    HW129916   4.562   8.601  -0.032  0.4983 -1.1718  0.4612
 8326SOL    HW229917   4.544   8.486   0.064 -0.2941  0.6869  2.6168
 8327SOL     OW29918   8.770   6.695   2.359  0.3150 -0.3152  0.1135
 8327SOL    HW129919   8.698   6.731   2.306  0.4867 -1.0603 -0.6510
 8327SOL    HW229920   8.823   6.772   2.382 -0.7353  0.2476  0.7170
 8328SOL     OW29921   9.824   8.770   3.854  0.1931  0.1414 -0.3870
 8328SOL    HW129922   9.731   8.750   3.849  0.5060 -1.1626 -1.4695
 8328SOL    HW229923   9.830   8.863   3.834 -0.8816  0.2800 -0.1324
 8329SOL     OW29924  10.775   7.251   9.166  0.1090 -0.5124  0.0206
 8329SOL    HW129925  10.714   7.271   9.237  1.6537  0.5781  1.1014
 8329SOL    HW229926  10.842   7.196   9.207  0.9086 -0.0535 -0.6494
 8330SOL     OW29927   2.023   6.570   6.114 -0.3825  0.4142  0.0520
 8330SOL    HW129928   2.083   6.584   6.187 -0.5353  1.3987 -0.0004
 8330SOL    HW229929   2.053   6.487   6.075  0.1089  0.2129  0.8193
 8331SOL     OW29930   7.400   5.373   1.352  0.1842  0.4615 -0.9234
 8331SOL    HW129931   7.315   5.332   1.368  0.5803 -0.0707 -0.1193
 8331SOL    HW229932   7.402   5.388   1.257 -0.2634 -0.7400 -1.1452
 8332SOL     OW29933   5.964   7.492   5.366  0.3121 -0.0034  0.1442
 8332SOL    HW129934   5.979   7.406   5.327  0.1755  0.1818 -0.3238
 8332SOL    HW229935   6.052   7.525   5.385  0.4298  0.2307 -0.7357
 8333SOL     OW29936   6.491   0.334   7.677 -0.1501 -0.1615  0.2679
 8333SOL    HW129937   6.465   0.314   7.587  0.4076  1.5374 -0.3067
 8333SOL    HW229938   6.586   0.344   7.673 -0.2310  1.0347  0.7888
 8334SOL     OW29939   7.912   2.221   6.521  0.0698 -0.2073  0.0684
 8334SOL    HW129940   7.957   2.276   6.585 -1.7543  1.2081  0.2073
 8334SOL    HW229941   7.960   2.138   6.523  1.8932  0.8033  1.0538
 8335SOL     OW29942   6.444   7.822   3.044 -0.9548  0.6462  0.2152
 8335SOL    HW129943   6.424   7.778   3.127 -0.8729  0.6762  0.2507
 8335SOL    HW229944   6.491   7.757   2.992  1.9466  1.6103  1.4197
 8336SOL     OW29945   1.972   9.350   5.272  0.1594  0.1276  0.4111
 8336SOL    HW129946   1.928   9.304   5.200 -0.4803 -1.6960  1.8803
 8336SOL    HW229947   1.944   9.441   5.262 -0.6474 -0.2455 -1.1112
 8337SOL     OW29948   7.576   2.782   5.058  0.0672  0.0780  0.4865
 8337SOL    HW129949   7.494   2.826   5.082  0.1104  1.0530 -1.0372
 8337SOL    HW229950   7.552   2.689   5.052 -0.7971  0.2818  0.6130
 8338SOL     OW29951   5.546   0.169   7.972  0.3822 -0.6245 -0.2669
 8338SOL    HW129952   5.482   0.238   7.953  1.8558  1.6240  2.2201
 8338SOL    HW229953   5.598   0.162   7.892 -1.8587 -1.3344 -1.7427
 8339SOL     OW29954   4.016   4.332   2.163  0.3474  0.4707 -0.0406
 8339SOL    HW129955   4.005   4.375   2.079 -0.6909  1.1868  0.4436
 8339SOL    HW229956   4.101   4.363   2.196  0.9245 -0.0863 -0.9544
 8340SOL     OW29957   7.858   9.156   2.113  0.3002  0.0796 -0.0803
 8340SOL    HW129958   7.953   9.157   2.114  0.3702 -1.7937 -0.3811
 8340SOL    HW229959   7.834   9.191   2.027  0.6822  1.0195  0.1880
 8341SOL     OW29960  11.090   9.955   4.261  0.0602  0.4579  0.6207
 8341SOL    HW129961  11.131  10.014   4.324  0.9369  0.8705 -0.3068
 8341SOL    HW229962  10.998   9.983   4.259  0.0550  0.5514  1.5724
 8342SOL     OW29963   0.315   9.057  11.236  0.2313  0.4313  0.6470
 8342SOL    HW129964   0.405   9.090  11.243 -0.0331  1.9523 -1.9672
 8342SOL    HW229965   0.270   9.098  11.310  1.3132  0.9814  1.0351
 8343SOL     OW29966   0.699   0.337   1.505 -0.4945  0.4166 -0.0303
 8343SOL    HW129967   0.621   0.341   1.560  0.4809  1.2496  1.3890
 8343SOL    HW229968   0.744   0.420   1.524  1.0812 -0.3662 -0.2374
 8344SOL     OW29969   6.660   4.164   3.993  0.3055  0.5153 -0.4626
 8344SOL    HW129970   6.590   4.193   3.934  0.0522  0.9825  0.0550
 8344SOL    HW229971   6.733   4.223   3.975  0.1854  0.7392 -0.2297
 8345SOL     OW29972   6.425   0.662   6.853 -0.4502 -0.5448 -0.1693
 8345SOL    HW129973   6.365   0.723   6.811  0.4202 -0.9239 -2.0725
 8345SOL    HW229974   6.428   0.690   6.944 -1.1571  1.3668 -0.6836
 8346SOL     OW29975   9.022   1.557   3.583 -0.4040 -0.2660  0.2230
 8346SOL    HW129976   8.962   1.625   3.553 -1.9746 -2.1233 -1.0792
 8346SOL    HW229977   8.971   1.505   3.644  1.1784  0.3936  2.2350
 8347SOL     OW29978   6.040   7.331   5.973  0.2616  0.3717 -0.0174
 8347SOL    HW129979   6.113   7.336   6.034 -0.0967  0.1822  0.4323
 8347SOL    HW229980   6.081   7.323   5.886  0.7864  1.5154  0.1027
 8348SOL     OW29981  11.667   1.737   0.125 -0.4786  0.4013 -0.1191
 8348SOL    HW129982  11.583   1.691   0.125  0.1284 -0.7459 -0.6856
 8348SOL    HW229983  11.645   1.827   0.148 -1.6634 -0.2289  1.3257
 8349SOL     OW29984   7.861   8.278  10.821 -0.4671  0.0985  0.1272
 8349SOL    HW129985   7.830   8.307  10.735 -1.1826 -0.8388  0.0594
 8349SOL    HW229986   7.851   8.183  10.820 -0.6384  0.0860  1.3122
 8350SOL     OW29987   6.165   4.727   8.874 -0.3477  0.2601  0.0817
 8350SOL    HW129988   6.126   4.815   8.877  0.2236  0.5054  0.6084
 8350SOL    HW229989   6.123   4.685   8.799  0.5901  1.5823 -1.2608
 8351SOL     OW29990  10.483   3.873   2.893  0.2056 -0.2031  0.5470
 8351SOL    HW129991  10.519   3.786   2.907  1.4845 -0.4172 -3.1364
 8351SOL    HW229992  10.542   3.931   2.942  1.0870 -1.1808  0.6756
 8352SOL     OW29993   5.138   9.508   0.763  0.2035  0.1077  0.2102
 8352SOL    HW129994   5.118   9.589   0.810  1.5292 -0.5690  2.0316
 8352SOL    HW229995   5.132   9.439   0.829  1.5629 -0.9525 -0.7153
 8353SOL     OW29996   0.166   0.133   6.213  0.6107 -0.7662  0.1050
 8353SOL    HW129997   0.214   0.216   6.222 -0.2507 -0.1336 -0.8178
 8353SOL    HW229998   0.082   0.149   6.255  0.2900 -1.0363 -0.4206
 8354SOL     OW29999   6.659   2.201   4.771 -0.0535 -0.2221  0.0912
 8354SOL    HW130000   6.634   2.122   4.817 -0.0340 -0.4240 -0.2398
 8354SOL    HW230001   6.644   2.272   4.834 -0.1596 -0.4775  0.3541
 8355SOL     OW30002   3.412   7.926  10.174 -0.2897  0.7529  0.0479
 8355SOL    HW130003   3.452   7.895  10.255  0.9386  0.4964 -0.6168
 8355SOL    HW230004   3.482   7.978  10.133  0.0509 -1.1969 -2.0358
 8356SOL     OW30005   2.361   0.784   2.809  0.0243 -0.2423  0.2010
 8356SOL    HW130006   2.302   0.735   2.752  0.0541 -1.1688  0.9385
 8356SOL    HW230007   2.443   0.734   2.807  0.1267 -0.1081  0.7949
 8357SOL     OW30008   1.854   9.533   9.615 -0.9152  0.2451 -0.0263
 8357SOL    HW130009   1.825   9.614   9.573 -3.0245 -0.5616 -0.2575
 8357SOL    HW230010   1.896   9.562   9.696 -1.1968  1.5796 -0.3330
 8358SOL     OW30011   1.790  11.188   5.172  0.3133 -0.9218  0.4296
 8358SOL    HW130012   1.801  11.204   5.266  2.3345  0.0036  0.0739
 8358SOL    HW230013   1.853  11.120   5.151  0.5345 -0.4683 -0.4242
 8359SOL     OW30014   2.762   5.077  10.267 -0.4732 -0.0835  0.5908
 8359SOL    HW130015   2.804   4.999  10.304  0.5147 -0.4839 -1.2791
 8359SOL    HW230016   2.699   5.042  10.203 -1.4193  0.6183  1.1151
 8360SOL     OW30017   1.736  10.589   4.658  0.1394  0.4310 -0.0193
 8360SOL    HW130018   1.800  10.520   4.640 -1.5753 -0.7504 -1.9650
 8360SOL    HW230019   1.723  10.584   4.753  2.4304  0.2945  0.3310
 8361SOL     OW30020   2.660   9.412  10.349 -0.2906  0.4223 -0.4524
 8361SOL    HW130021   2.682   9.365  10.269  0.7343  0.4424 -0.1981
 8361SOL    HW230022   2.657   9.504  10.324 -0.6916  0.3650 -0.6160
 8362SOL     OW30023   4.911   2.522   3.018 -0.1621 -0.0541  0.0984
 8362SOL    HW130024   4.876   2.524   3.107 -0.3747 -0.6603  0.0347
 8362SOL    HW230025   4.893   2.609   2.983 -1.4772 -0.2919  0.1221
 8363SOL     OW30026   6.573   5.248   9.776  0.1197 -0.0419  0.1074
 8363SOL    HW130027   6.601   5.223   9.689  0.4992  0.3048  0.1290
 8363SOL    HW230028   6.644   5.220   9.834 -0.8450 -1.7630  0.5156
 8364SOL     OW30029  11.048   9.599  11.642  0.8478  0.1611  0.7231
 8364SOL    HW130030  11.120   9.593  11.704  0.6157  3.5678  1.5386
 8364SOL    HW230031  11.050   9.690  11.612 -1.5707 -0.2968 -1.1992
 8365SOL     OW30032   0.351   8.749   8.794  0.3876  0.3651 -0.0930
 8365SOL    HW130033   0.428   8.710   8.834 -0.1181 -0.6099 -0.0307
 8365SOL    HW230034   0.376   8.763   8.703  0.5796 -0.1200 -0.1181
 8366SOL     OW30035   3.312   7.344   0.220 -0.9367  0.3333  0.3730
 8366SOL    HW130036   3.350   7.283   0.284 -0.7878  0.1006  0.0637
 8366SOL    HW230037   3.259   7.289   0.163  0.1235  0.3107 -0.6265
 8367SOL     OW30038   1.408   1.490   6.135  0.0506 -0.2027  0.1071
 8367SOL    HW130039   1.433   1.580   6.157 -1.9013  0.4152  0.0260
 8367SOL    HW230040   1.395   1.492   6.040  0.3829 -0.6889  0.0488
 8368SOL     OW30041   6.565   6.207   4.458  0.2548  0.1276 -0.0058
 8368SOL    HW130042   6.572   6.145   4.531 -1.3745  0.3542  0.3853
 8368SOL    HW230043   6.548   6.152   4.381 -2.0976  0.0613  0.4849
 8369SOL     OW30044   8.031   4.746   2.251  0.4534  0.0392  0.7382
 8369SOL    HW130045   8.094   4.799   2.203 -0.1106  0.5820  0.5827
 8369SOL    HW230046   8.084   4.681   2.296  0.9774 -0.8501 -1.0437
 8370SOL     OW30047   8.820   7.974   6.034  0.4726 -0.1190  0.5576
 8370SOL    HW130048   8.731   8.000   6.055  0.8582 -0.1148  2.3521
 8370SOL    HW230049   8.819   7.956   5.940 -1.3768 -0.0488  0.5417
 8371SOL     OW30050   2.654   1.119   0.868 -0.0894  0.0404  0.1502
 8371SOL    HW130051   2.717   1.057   0.831 -0.8727 -0.6115 -0.1132
 8371SOL    HW230052   2.573   1.104   0.819  0.1693  2.5603 -1.2134
 8372SOL     OW30053   5.832  10.611   2.192 -0.2333  0.4710 -0.2413
 8372SOL    HW130054   5.771  10.599   2.264  0.3951 -1.6108  0.0162
 8372SOL    HW230055   5.777  10.630   2.116 -1.4033 -2.6786 -0.3164
 8373SOL     OW30056   3.464   4.112   9.486  0.5904  0.0844 -0.1613
 8373SOL    HW130057   3.425   4.185   9.534  1.1807 -0.7020  1.5724
 8373SOL    HW230058   3.466   4.143   9.395 -1.5243  1.2051  0.0926
 8374SOL     OW30059   6.146   3.438   4.738  0.3599  0.5399  0.8474
 8374SOL    HW130060   6.065   3.456   4.689  0.6031  0.5594  0.4469
 8374SOL    HW230061   6.216   3.468   4.680  0.6251  1.1462  1.4827
 8375SOL     OW30062  11.634   4.138  11.232  0.6316 -0.2146  0.5419
 8375SOL    HW130063  11.631   4.216  11.287  1.9372 -0.6661  1.2983
 8375SOL    HW230064  11.553   4.141  11.181  0.6925  1.6651  0.5038
 8376SOL     OW30065   9.552   1.446   5.864  0.4242 -0.1022  0.2841
 8376SOL    HW130066   9.615   1.507   5.903  1.2059 -0.6072 -0.1555
 8376SOL    HW230067   9.495   1.501   5.811  0.9729  0.2854  0.0865
 8377SOL     OW30068  10.565   6.320  11.178 -0.0377 -0.0012 -0.1854
 8377SOL    HW130069  10.611   6.277  11.250 -0.3805 -2.7446 -1.4944
 8377SOL    HW230070  10.496   6.371  11.221 -0.0778 -1.3480  1.4298
 8378SOL     OW30071  11.587   6.773   7.541 -0.0875  0.0464  0.1524
 8378SOL    HW130072  11.671   6.729   7.554  0.5724  1.5622  1.2632
 8378SOL    HW230073  11.525   6.722   7.592 -0.0242 -1.4730 -1.1962
 8379SOL     OW30074   1.934  11.654   6.506  1.0057  0.4670 -1.3219
 8379SOL    HW130075   1.888  11.573   6.487  0.0119  0.5866  0.3400
 8379SOL    HW230076   2.001  11.630   6.570  0.4018  1.0044 -0.4632
 8380SOL     OW30077   1.857   2.703   4.820 -0.2782  0.4324  0.1331
 8380SOL    HW130078   1.788   2.752   4.864 -1.2604  0.5711 -1.4608
 8380SOL    HW230079   1.815   2.669   4.741  1.4190  0.3391 -0.7787
 8381SOL     OW30080   5.967   7.866  10.366  0.6552  0.0861  0.3519
 8381SOL    HW130081   5.933   7.825  10.286  0.6695 -0.9246  0.8568
 8381SOL    HW230082   5.922   7.950  10.370 -2.0778 -1.2831  1.1205
 8382SOL     OW30083   8.003   8.743   3.003 -0.0119 -0.0058  0.4008
 8382SOL    HW130084   8.014   8.680   3.073  3.3276  0.8286  0.8023
 8382SOL    HW230085   8.074   8.724   2.942 -1.2356  0.9693 -1.4310
 8383SOL     OW30086   3.441   0.956   5.267  0.1310 -0.5218 -0.0370
 8383SOL    HW130087   3.429   1.051   5.270 -1.3753 -0.6870  0.0240
 8383SOL    HW230088   3.518   0.940   5.322 -1.0932  0.4608  2.1087
 8384SOL     OW30089   0.812   9.498   4.981 -0.1671  0.2214 -0.0622
 8384SOL    HW130090   0.805   9.404   4.995 -0.0968  0.0198 -1.2965
 8384SOL    HW230091   0.791   9.537   5.066 -1.0836 -0.8773  0.2296
 8385SOL     OW30092   3.603   6.097   8.129 -1.0112 -0.5236 -0.0552
 8385SOL    HW130093   3.639   6.009   8.143  0.2552 -0.3579 -1.8500
 8385SOL    HW230094   3.680   6.153   8.118 -1.7531  0.1854 -2.2052
 8386SOL     OW30095  11.326   6.837   0.846  0.0404 -0.1459 -0.5415
 8386SOL    HW130096  11.416   6.867   0.830  0.1744 -0.2292  0.0173
 8386SOL    HW230097  11.274   6.918   0.845  0.0635 -0.1349 -1.2190
 8387SOL     OW30098   0.704   7.852   3.976  0.0016 -0.0012 -0.3624
 8387SOL    HW130099   0.796   7.826   3.968  0.0291 -0.0173  0.0277
 8387SOL    HW230100   0.656   7.771   3.961  0.0201  0.1746 -1.4574
 8388SOL     OW30101   0.728   5.903   0.678 -0.5769  0.4192 -0.0325
 8388SOL    HW130102   0.755   5.939   0.762  0.1343 -3.1375  1.4300
 8388SOL    HW230103   0.749   5.810   0.683 -1.8019 -0.2377 -3.6459
 8389SOL     OW30104   7.319   5.991   1.695 -0.0535  0.1017  0.0196
 8389SOL    HW130105   7.292   6.023   1.781 -1.5007 -2.1529  0.5074
 8389SOL    HW230106   7.237   5.961   1.655  0.3829  2.2359 -2.7317
 8390SOL     OW30107   8.010   5.153   2.136  0.2601 -0.8406 -0.2523
 8390SOL    HW130108   8.071   5.084   2.110  1.1781 -0.6286  1.2407
 8390SOL    HW230109   7.938   5.145   2.074  1.6319 -1.3120 -1.8680
 8391SOL     OW30110   4.765   2.667   6.739  0.7061  0.2467  0.1382
 8391SOL    HW130111   4.702   2.739   6.741 -1.1322 -1.2571 -0.4257
 8391SOL    HW230112   4.819   2.684   6.662  1.4300  1.8590  0.9547
 8392SOL     OW30113   2.533   5.899   9.616 -0.3577 -0.5559 -0.4792
 8392SOL    HW130114   2.469   5.966   9.639  0.0982  0.0476 -0.9364
 8392SOL    HW230115   2.617   5.935   9.644  0.0370 -0.4033 -1.7650
 8393SOL     OW30116   7.300   3.518   3.665 -0.4914  0.6178  0.1685
 8393SOL    HW130117   7.391   3.536   3.690 -0.7673  0.1314  1.5977
 8393SOL    HW230118   7.291   3.423   3.673 -0.9809  0.6020 -0.4983
 8394SOL     OW30119   0.597  11.458   3.019  0.3920  0.0226 -0.2285
 8394SOL    HW130120   0.657  11.496   2.955  1.2951  0.3009  0.7632
 8394SOL    HW230121   0.643  11.382   3.053  0.0206  0.0102  0.2613
 8395SOL     OW30122   2.051   4.841   0.320 -0.3653 -0.3411 -0.1243
 8395SOL    HW130123   1.964   4.882   0.316 -0.5762 -0.6476  0.8928
 8395SOL    HW230124   2.061   4.798   0.236 -1.8150 -1.4906  0.2553
 8396SOL     OW30125   6.062   3.061  10.008 -0.8496 -0.5929  0.5079
 8396SOL    HW130126   6.017   3.097   9.931 -0.2785 -0.9357  0.0087
 8396SOL    HW230127   5.992   3.047  10.072 -1.3045 -0.1258  0.1237
 8397SOL     OW30128   0.003  11.671  10.220  0.2305 -0.3637  0.3831
 8397SOL    HW130129   0.031  11.710  10.303  1.6661  0.8685 -0.6326
 8397SOL    HW230130   0.016  11.577  10.232 -0.2080 -0.2686  1.7652
 8398SOL     OW30131   8.013   5.018   2.790 -0.1598 -0.3109 -0.5421
 8398SOL    HW130132   7.985   5.055   2.874 -1.0083 -0.3123 -0.8137
 8398SOL    HW230133   8.072   5.084   2.754 -1.0248  0.4353 -0.6537
 8399SOL     OW30134   9.125   3.709   3.482  0.2169  0.4339  0.1298
 8399SOL    HW130135   9.078   3.725   3.400 -1.0193 -0.9833  0.5114
 8399SOL    HW230136   9.100   3.782   3.538  1.3796  1.6297 -0.8430
 8400SOL     OW30137   7.523   3.660   3.806  0.0821 -0.0287 -0.1980
 8400SOL    HW130138   7.616   3.635   3.808  0.0559 -0.1067  0.3139
 8400SOL    HW230139   7.516   3.719   3.731  1.4383  3.3010  2.0563
 8401SOL     OW30140   0.488   8.546   1.891  0.1174  0.1421  0.4615
 8401SOL    HW130141   0.529   8.621   1.848 -2.0799  0.6119 -1.0240
 8401SOL    HW230142   0.497   8.474   1.828 -1.2150  0.2515  0.1058
 8402SOL     OW30143   6.125   0.087   3.596 -0.0910 -0.5271 -0.4033
 8402SOL    HW130144   6.099   0.038   3.517 -1.1276 -0.9229  0.1720
 8402SOL    HW230145   6.218   0.065   3.608 -0.3276 -1.7109 -0.6268
 8403SOL     OW30146   4.562  10.869   6.085 -0.0558  0.5285  0.1486
 8403SOL    HW130147   4.479  10.824   6.074  0.1849  0.3476 -1.1007
 8403SOL    HW230148   4.543  10.940   6.146 -1.1787  0.6111 -0.2753
 8404SOL     OW30149  10.782   4.205   5.301 -0.4158 -0.0845 -0.3182
 8404SOL    HW130150  10.817   4.275   5.244  0.0573 -1.5577 -1.9241
 8404SOL    HW230151  10.712   4.165   5.249 -1.1993 -0.3309  0.8995
 8405SOL     OW30152   7.641   4.202   5.170 -0.1158  0.6158 -0.1715
 8405SOL    HW130153   7.548   4.181   5.160 -0.9313  1.9757  3.1665
 8405SOL    HW230154   7.683   4.118   5.189 -1.2294  0.3650  1.3093
 8406SOL     OW30155   8.541   5.040  11.152 -0.2836  0.5691  0.0773
 8406SOL    HW130156   8.606   5.081  11.209  0.1659 -1.4502  1.1120
 8406SOL    HW230157   8.460   5.043  11.203 -0.7132  1.8357 -0.6402
 8407SOL     OW30158   4.877   9.084   7.694 -0.1983  0.4103  0.5106
 8407SOL    HW130159   4.967   9.107   7.672  0.4228 -1.1396  1.3091
 8407SOL    HW230160   4.825   9.114   7.619  1.0947  0.4467 -0.3879
 8408SOL     OW30161   1.118  11.416   7.665 -0.3107  0.3045  0.2540
 8408SOL    HW130162   1.109  11.442   7.573  0.0754 -2.0808 -0.5302
 8408SOL    HW230163   1.064  11.337   7.673  1.4601 -0.8482  1.4428
 8409SOL     OW30164   1.221  10.564  10.519  0.1772  0.2797 -0.5580
 8409SOL    HW130165   1.212  10.590  10.611 -0.3936  0.2128 -0.5951
 8409SOL    HW230166   1.289  10.497  10.520  0.5796  0.6813 -0.2585
 8410SOL     OW30167   9.193  11.616   7.869  0.2928 -0.1769  0.6427
 8410SOL    HW130168   9.127  11.631   7.937 -0.1561  0.4607  0.0869
 8410SOL    HW230169   9.211  11.703   7.833 -1.4698 -0.7179 -1.8528
 8411SOL     OW30170   6.118   4.872   0.585 -0.6777  0.7300  0.6034
 8411SOL    HW130171   6.169   4.811   0.638 -0.2513 -0.0721 -0.7079
 8411SOL    HW230172   6.105   4.948   0.643  0.2043  0.0969  1.6772
 8412SOL     OW30173   4.660   5.126   7.517 -0.1958  0.3921 -0.1971
 8412SOL    HW130174   4.602   5.201   7.520  0.6472  1.0911 -0.7820
 8412SOL    HW230175   4.719   5.137   7.591 -0.4192 -0.0017  0.0470
 8413SOL     OW30176   9.219   6.686   9.331  0.3173 -0.2672  0.2053
 8413SOL    HW130177   9.134   6.706   9.370  0.9928 -1.6196  2.5712
 8413SOL    HW230178   9.201   6.615   9.270 -0.3693 -0.0307  0.1278
 8414SOL     OW30179  11.132   4.334   7.872 -0.3777  0.5144 -0.7734
 8414SOL    HW130180  11.213   4.293   7.844 -1.1665 -0.7433 -1.2831
 8414SOL    HW230181  11.092   4.270   7.931 -1.4103  0.7503 -1.2047
 8415SOL     OW30182   5.725   8.231  10.936 -0.3222 -0.6988  0.3924
 8415SOL    HW130183   5.723   8.194  10.847 -1.7224 -1.1015  0.5646
 8415SOL    HW230184   5.771   8.165  10.988  1.0417 -0.1859 -0.1404
 8416SOL     OW30185   4.351   2.416   1.579 -0.1859  0.7418  0.3927
 8416SOL    HW130186   4.337   2.341   1.521  1.6367  0.1824  0.5965
 8416SOL    HW230187   4.283   2.406   1.646  0.1523 -0.8983  0.5521
 8417SOL     OW30188   3.918   0.090   0.379 -0.6505 -1.0918 -0.2131
 8417SOL    HW130189   4.009   0.115   0.389 -0.4982 -1.1976 -1.1660
 8417SOL    HW230190   3.871   0.142   0.443 -0.0538 -0.1435 -0.5243
 8418SOL     OW30191   3.128   8.211  10.049  0.4912 -0.6262 -0.9962
 8418SOL    HW130192   3.052   8.264  10.025 -0.6522 -1.6915  0.1612
 8418SOL    HW230193   3.121   8.132   9.996 -1.7329 -2.7305  2.0735
 8419SOL     OW30194   3.348   9.969   7.638  0.1257  0.0474 -0.0672
 8419SOL    HW130195   3.301  10.025   7.577 -2.0555 -1.3774  0.2151
 8419SOL    HW230196   3.304   9.983   7.722  1.1474 -0.2534  0.5371
 8420SOL     OW30197   4.342   6.210   0.479  0.2265  0.2643  0.6828
 8420SOL    HW130198   4.288   6.209   0.400  2.6285  0.5242 -1.0767
 8420SOL    HW230199   4.290   6.258   0.544 -1.8376  0.0002 -0.7065
 8421SOL     OW30200  11.444   7.327   5.594 -1.0124  0.2984 -0.1856
 8421SOL    HW130201  11.475   7.418   5.595 -0.0970  0.0511  2.2567
 8421SOL    HW230202  11.428   7.308   5.502 -0.3411  2.6366 -0.8619
 8422SOL     OW30203   2.633   0.765   5.534  0.3687 -0.4699  0.0326
 8422SOL    HW130204   2.717   0.728   5.507  0.9739 -0.2361  1.5048
 8422SOL    HW230205   2.634   0.759   5.629 -1.4789 -0.8464  0.0616
 8423SOL     OW30206   5.023   6.355   8.426 -0.4727 -0.2187  0.9024
 8423SOL    HW130207   5.003   6.318   8.512  1.0930 -1.9127  0.5908
 8423SOL    HW230208   5.113   6.329   8.408  0.1254  2.2918 -0.1684
 8424SOL     OW30209   4.925  11.283   6.177  0.4195  0.5394  0.4107
 8424SOL    HW130210   4.960  11.290   6.088 -1.2980 -4.6437 -1.0719
 8424SOL    HW230211   4.844  11.334   6.175  1.6533  2.5637 -0.0794
 8425SOL     OW30212  10.679   9.489   1.933 -0.0980 -0.0698  0.7018
 8425SOL    HW130213  10.689   9.409   1.986  0.7517  0.5050  1.4484
 8425SOL    HW230214  10.652   9.556   1.996 -1.2615  0.1438  0.0021
 8426SOL     OW30215   8.501   1.865   9.262 -0.2773  0.2738  0.2944
 8426SOL    HW130216   8.490   1.822   9.347  0.4055 -0.8489 -0.1567
 8426SOL    HW230217   8.453   1.947   9.270 -0.8540 -0.1544  1.5135
 8427SOL     OW30218   9.849   1.410   2.878 -0.0317  0.0630  0.0002
 8427SOL    HW130219   9.844   1.420   2.783  0.5380  1.4159  0.1000
 8427SOL    HW230220   9.919   1.346   2.892 -0.3476 -0.3974 -0.4850
 8428SOL     OW30221  10.071   1.748   8.241  0.1291 -0.2765 -0.3436
 8428SOL    HW130222  10.116   1.703   8.313  1.6078  1.0992 -0.3487
 8428SOL    HW230223  10.021   1.817   8.284 -0.2620 -0.4463 -0.5221
 8429SOL     OW30224   4.319   4.592   0.639 -0.0153 -0.5676  0.3280
 8429SOL    HW130225   4.396   4.642   0.665 -0.2773  0.3486 -0.5635
 8429SOL    HW230226   4.337   4.502   0.666  3.2968 -1.3762 -3.6169
 8430SOL     OW30227   4.945   8.990   2.346  0.4396  0.4241 -0.3313
 8430SOL    HW130228   4.953   8.905   2.388  0.0497  0.8414  0.6162
 8430SOL    HW230229   4.893   8.974   2.268  0.2120 -0.1714 -0.0618
 8431SOL     OW30230  10.136  10.499   8.255 -0.5178  0.4566  0.2118
 8431SOL    HW130231  10.058  10.453   8.223  0.3180 -1.0102  0.1991
 8431SOL    HW230232  10.181  10.529   8.176  0.4095 -1.2590  0.0353
 8432SOL     OW30233   9.221   9.298   1.741 -0.3677 -0.1340  0.5278
 8432SOL    HW130234   9.292   9.299   1.676 -0.5573  0.9050  0.3130
 8432SOL    HW230235   9.189   9.388   1.743  1.0029  0.4224  3.5785
 8433SOL     OW30236   2.413   0.323  11.447 -0.2006 -0.1675 -0.9610
 8433SOL    HW130237   2.333   0.375  11.455 -0.8349 -1.3298  0.5760
 8433SOL    HW230238   2.397   0.266  11.372 -0.1636  0.6513 -1.6174
 8434SOL     OW30239   9.565  11.393   6.385  0.3113 -0.8297 -0.0458
 8434SOL    HW130240   9.591  11.412   6.295  0.2900  1.4762  0.3825
 8434SOL    HW230241   9.637  11.425   6.439 -0.4938 -0.4341  0.8331
 8435SOL     OW30242  11.014   1.442   5.750 -0.4076  0.9166 -0.2849
 8435SOL    HW130243  11.081   1.398   5.698 -0.5842 -0.1091  0.3144
 8435SOL    HW230244  11.023   1.535   5.729  1.1361  0.7868 -0.2861
 8436SOL     OW30245  10.334   8.909   7.881 -0.0297  0.4907 -0.6373
 8436SOL    HW130246  10.327   9.000   7.909  2.2430  0.8340 -1.0554
 8436SOL    HW230247  10.368   8.863   7.958 -0.5837  0.0757 -0.6277
 8437SOL     OW30248   9.288   6.543   8.003 -0.2252  0.3100 -0.2950
 8437SOL    HW130249   9.205   6.549   7.956 -0.6865 -0.3506  0.4164
 8437SOL    HW230250   9.264   6.511   8.090  0.4226  2.8261  0.9108
 8438SOL     OW30251   9.953   3.010   3.446  0.1322 -0.1742 -0.4666
 8438SOL    HW130252   9.908   3.022   3.363  0.2228 -1.2972 -0.7029
 8438SOL    HW230253   9.896   2.951   3.496  1.0565 -1.1982 -0.5718
 8439SOL     OW30254   1.837   7.400   6.333 -0.0356 -0.2396  0.0377
 8439SOL    HW130255   1.892   7.371   6.406  0.2276 -2.3931 -0.9342
 8439SOL    HW230256   1.814   7.490   6.355  1.5018 -0.2236  1.8914
 8440SOL     OW30257  10.588  10.936  10.254 -0.3796 -0.0581  0.3070
 8440SOL    HW130258  10.524  11.005  10.271 -0.7521 -0.5163  0.8298
 8440SOL    HW230259  10.653  10.946  10.323  0.5062  0.8352 -0.6202
 8441SOL     OW30260  10.279   5.704   0.268  0.0768  0.0847  0.1413
 8441SOL    HW130261  10.342   5.719   0.339  0.2939  1.8006 -0.3628
 8441SOL    HW230262  10.326   5.648   0.206  0.3559 -0.3613  0.7506
 8442SOL     OW30263   0.389   5.324   8.934 -0.0056 -0.0301 -0.0834
 8442SOL    HW130264   0.408   5.400   8.989 -1.0835 -0.0747  0.3681
 8442SOL    HW230265   0.414   5.249   8.988  0.1525 -0.0366 -0.1633
 8443SOL     OW30266   9.620  11.386   4.508  0.0130 -0.6893 -0.2720
 8443SOL    HW130267   9.550  11.407   4.570  0.5525  2.3501 -0.5341
 8443SOL    HW230268   9.693  11.360   4.564  0.1505  0.9357  0.3734
 8444SOL     OW30269   7.148   6.421   5.079 -0.5937 -0.8969  0.4438
 8444SOL    HW130270   7.056   6.403   5.099 -0.3447 -1.9980  0.6635
 8444SOL    HW230271   7.159   6.514   5.097 -1.4541 -0.9423  1.2726
 8445SOL     OW30272   1.807   9.848   8.905 -0.2124 -0.1435 -0.2375
 8445SOL    HW130273   1.876   9.884   8.960  1.4180 -1.2962 -1.4514
 8445SOL    HW230274   1.820   9.754   8.908 -2.3609 -0.4779  0.2559
 8446SOL     OW30275   6.976   9.864   9.508  0.1499 -0.2502 -0.0302
 8446SOL    HW130276   6.909   9.866   9.440 -0.4634  1.3753  0.5907
 8446SOL    HW230277   6.932   9.894   9.587  1.1542 -0.9644  0.8368
 8447SOL     OW30278   3.909   4.074   6.657  0.3990  0.4102 -0.1464
 8447SOL    HW130279   3.971   4.031   6.717  1.1795  0.3816 -0.9493
 8447SOL    HW230280   3.891   4.008   6.590  1.0309  1.0594 -0.9866
 8448SOL     OW30281   5.922   8.907   6.838 -0.4271 -0.2099 -0.4782
 8448SOL    HW130282   5.957   8.821   6.861  3.7332  1.1299 -1.1017
 8448SOL    HW230283   5.962   8.928   6.754  0.0204  2.9569  0.3850
 8449SOL     OW30284  10.890   8.365   5.782 -0.0208  0.0481 -1.1121
 8449SOL    HW130285  10.893   8.392   5.874 -1.4551  0.9447 -1.2856
 8449SOL    HW230286  10.895   8.270   5.784 -1.4861 -0.0427  0.0373
 8450SOL     OW30287   0.778   7.203   8.538 -0.4192  0.3467  0.0749
 8450SOL    HW130288   0.703   7.260   8.555 -0.6946 -0.4409  1.6705
 8450SOL    HW230289   0.739   7.118   8.517  0.0146 -0.0061  0.6783
 8451SOL     OW30290   1.250   3.132   8.167  0.0047 -0.6885  0.3658
 8451SOL    HW130291   1.250   3.226   8.148  0.3647 -0.6422  0.5819
 8451SOL    HW230292   1.336   3.102   8.138 -0.6207 -1.2321 -1.0186
 8452SOL     OW30293   7.589   2.037  10.644 -0.0447  0.7103 -0.0700
 8452SOL    HW130294   7.628   1.984  10.574  0.2687 -0.9506  1.2851
 8452SOL    HW230295   7.513   1.987  10.672 -0.7551  1.8664  0.1001
 8453SOL     OW30296   7.696   3.172   2.550  0.4950 -0.4390 -0.2018
 8453SOL    HW130297   7.629   3.141   2.489 -0.7792  0.7307  0.5560
 8453SOL    HW230298   7.650   3.232   2.609  2.2629  0.6498  0.1652
 8454SOL     OW30299   0.449   1.910   0.104  0.5713 -0.1283  0.8353
 8454SOL    HW130300   0.390   1.839   0.127  1.0868 -0.5710  0.8017
 8454SOL    HW230301   0.396   1.990   0.113  0.1617 -0.4667  1.4404
 8455SOL     OW30302   4.141   9.041   4.369  0.0429 -0.0663  0.2343
 8455SOL    HW130303   4.151   9.019   4.276 -0.9567  0.2141  0.0488
 8455SOL    HW230304   4.189   9.123   4.380  2.1870 -1.2829  0.5135
 8456SOL     OW30305   0.900   8.569   5.266  0.0755  0.0685 -0.5783
 8456SOL    HW130306   0.949   8.644   5.234  0.0819  1.3249  2.1434
 8456SOL    HW230307   0.812   8.601   5.281  0.1893 -0.2670  1.0615
 8457SOL     OW30308   3.079   5.463   4.406 -0.4819  0.4107 -0.0974
 8457SOL    HW130309   2.986   5.486   4.399 -0.6732 -0.3980 -0.3281
 8457SOL    HW230310   3.109   5.510   4.485 -0.6095  2.1416 -1.0246
 8458SOL     OW30311   1.455  11.235  11.346  0.6284 -0.0460 -0.7734
 8458SOL    HW130312   1.388  11.294  11.380  0.3038 -1.5082  1.3267
 8458SOL    HW230313   1.526  11.293  11.317 -0.4264  1.4286 -0.5238
 8459SOL     OW30314  10.340  10.531  11.391  0.1225  0.3926 -0.2089
 8459SOL    HW130315  10.318  10.607  11.444 -0.6103  0.3692 -0.4626
 8459SOL    HW230316  10.261  10.476  11.394  0.6240 -0.3283 -0.0742
 8460SOL     OW30317   6.106   1.340  11.652  0.1752  0.4123  0.2289
 8460SOL    HW130318   6.090   1.331  11.746 -1.3662  0.9491  0.0503
 8460SOL    HW230319   6.101   1.434  11.635  0.2346  0.3050 -0.4198
 8461SOL     OW30320   3.814  10.299   6.697 -0.0264 -0.0133 -0.1063
 8461SOL    HW130321   3.758  10.283   6.773 -0.7583  0.1700 -0.5978
 8461SOL    HW230322   3.753  10.321   6.627  0.7241  1.1454 -0.4110
 8462SOL     OW30323   5.617  10.047   5.379  0.4470 -0.2256 -1.2893
 8462SOL    HW130324   5.530  10.019   5.410  0.5698 -0.5177 -1.2090
 8462SOL    HW230325   5.600  10.081   5.291  0.5290 -2.0826 -2.0855
 8463SOL     OW30326   8.166   5.379   9.262 -0.3352  0.0529  0.3436
 8463SOL    HW130327   8.078   5.407   9.287 -0.6550  0.8131 -1.4588
 8463SOL    HW230328   8.219   5.459   9.269 -0.8509  0.8583 -3.0289
 8464SOL     OW30329   1.703   7.846   8.112  0.0662  0.1667 -0.3313
 8464SOL    HW130330   1.762   7.906   8.067  1.6531 -1.6556 -0.8513
 8464SOL    HW230331   1.697   7.771   8.052  0.9102 -1.6358  1.7247
 8465SOL     OW30332   1.812   3.137   2.948 -0.8589  0.3149 -0.2748
 8465SOL    HW130333   1.751   3.063   2.955 -0.9204  0.4617  1.0941
 8465SOL    HW230334   1.848   3.130   2.860 -1.6687 -0.7156 -0.5497
 8466SOL     OW30335  11.278   0.874   3.769 -0.2483  0.0370  0.4742
 8466SOL    HW130336  11.365   0.864   3.731 -0.4427 -1.2661  0.3282
 8466SOL    HW230337  11.264   0.793   3.820 -1.4243  0.1542  0.3776
 8467SOL     OW30338   6.176   5.563   1.590 -0.1909 -0.1337 -0.1467
 8467SOL    HW130339   6.215   5.481   1.560  0.7794 -0.2464  1.3715
 8467SOL    HW230340   6.115   5.537   1.660 -0.8471  0.3346 -0.5255
 8468SOL     OW30341   3.388  10.145   5.429  0.2932 -0.0174  0.6182
 8468SOL    HW130342   3.404  10.074   5.491  1.5621 -0.0929  0.2365
 8468SOL    HW230343   3.447  10.126   5.356 -0.6166  0.4868 -0.2690
 8469SOL     OW30344   1.632   5.199  10.336 -0.0090  0.1500  0.5365
 8469SOL    HW130345   1.710   5.144  10.345  0.4469  0.7055  0.0747
 8469SOL    HW230346   1.664   5.279  10.295 -0.8932  0.2248 -0.0362
 8470SOL     OW30347  10.282   7.900   8.677  0.7250  0.1173  0.2195
 8470SOL    HW130348  10.245   7.849   8.606  1.2690  1.1299 -0.8416
 8470SOL    HW230349  10.374   7.913   8.652  0.6488  1.4282  0.5444
 8471SOL     OW30350  10.215   9.884   8.345 -0.4187  0.3593  0.0123
 8471SOL    HW130351  10.253   9.846   8.424 -0.5376 -2.5827 -1.2171
 8471SOL    HW230352  10.248   9.829   8.274 -0.3365  2.8824 -2.0315
 8472SOL     OW30353  10.346   2.850  11.661  1.1805 -0.3119  0.0796
 8472SOL    HW130354  10.281   2.877  11.596 -0.1642  0.4556  1.6554
 8472SOL    HW230355  10.420   2.817  11.610  1.3682  2.8207 -1.9243
 8473SOL     OW30356   7.104   8.812   9.887 -0.5344 -0.1455 -0.2268
 8473SOL    HW130357   7.052   8.755   9.830 -1.3981 -0.8081  1.1370
 8473SOL    HW230358   7.190   8.815   9.847 -0.8853 -1.2402 -1.1256
 8474SOL     OW30359   5.549   7.240   3.117 -0.3254 -0.7459 -0.1650
 8474SOL    HW130360   5.611   7.208   3.051 -0.4041  0.8765 -1.0721
 8474SOL    HW230361   5.557   7.336   3.113 -3.2293 -0.4367 -0.6651
 8475SOL     OW30362   9.966   9.836   0.751 -0.5456  0.8465 -0.2223
 8475SOL    HW130363  10.002   9.748   0.758  0.1830  1.0304 -1.4179
 8475SOL    HW230364   9.872   9.822   0.740 -0.3505  0.1683 -1.1566
 8476SOL     OW30365   1.150  11.367   9.443 -0.2136  0.1156 -0.0496
 8476SOL    HW130366   1.222  11.345   9.385  1.8076  0.8833  2.0149
 8476SOL    HW230367   1.128  11.285   9.488  1.1558  0.3329  1.1097
 8477SOL     OW30368  10.628   5.574   5.326 -0.9647 -0.1750 -0.2879
 8477SOL    HW130369  10.619   5.490   5.371 -0.9050 -0.9759 -1.7164
 8477SOL    HW230370  10.538   5.599   5.304 -0.9606  0.0057 -0.1016
 8478SOL     OW30371   5.531   4.077   9.679 -0.4819 -0.1046  0.4151
 8478SOL    HW130372   5.456   4.023   9.658  1.0654 -1.7942 -1.0971
 8478SOL    HW230373   5.603   4.015   9.691  1.5842  1.5449 -2.3075
 8479SOL     OW30374   0.748   2.408   5.686 -0.3910 -0.0795  0.4544
 8479SOL    HW130375   0.757   2.347   5.613 -0.0882 -0.2824  0.6579
 8479SOL    HW230376   0.804   2.482   5.663 -0.0832 -0.2649  0.6072
 8480SOL     OW30377   6.484   3.038   7.739 -0.0431  0.2762 -0.3018
 8480SOL    HW130378   6.485   2.995   7.653  0.2552 -1.2507  0.4314
 8480SOL    HW230379   6.571   3.076   7.748 -1.0315  3.2334 -1.9583
 8481SOL     OW30380  11.243   3.714   8.418  0.1551 -0.2738 -0.1223
 8481SOL    HW130381  11.331   3.732   8.451  0.9338 -3.3687 -0.1670
 8481SOL    HW230382  11.200   3.666   8.489 -1.2490  0.5243 -0.3951
 8482SOL     OW30383   3.885   6.620  10.273  0.0897 -0.0139  0.4246
 8482SOL    HW130384   3.798   6.625  10.313 -0.0517 -0.5269  0.1966
 8482SOL    HW230385   3.867   6.611  10.179  0.4009  0.3643  0.3249
 8483SOL     OW30386   4.867  11.172   9.453 -0.1458 -0.9794 -0.6288
 8483SOL    HW130387   4.870  11.255   9.500  0.2549 -1.4358  0.1743
 8483SOL    HW230388   4.844  11.107   9.520 -0.7851 -1.4743 -1.3051
 8484SOL     OW30389   2.463   1.188   8.765 -0.0222  0.4968 -0.3849
 8484SOL    HW130390   2.557   1.205   8.772  0.2309 -0.5072 -1.2069
 8484SOL    HW230391   2.434   1.176   8.856  0.8800 -0.3525 -0.1960
 8485SOL     OW30392   4.182  10.904   0.549 -0.5653 -1.0352  0.2049
 8485SOL    HW130393   4.108  10.947   0.592 -0.1880 -0.1203 -0.0354
 8485SOL    HW230394   4.166  10.916   0.456  0.6838  0.6267  0.1610
 8486SOL     OW30395   5.768   0.861   7.834  0.1769  0.4733  0.7124
 8486SOL    HW130396   5.705   0.907   7.778 -0.7549  0.2892  1.5693
 8486SOL    HW230397   5.747   0.768   7.823 -0.1062  0.4410  1.4490
 8487SOL     OW30398   1.214   4.240   4.316 -0.1940  0.5528  0.0575
 8487SOL    HW130399   1.271   4.301   4.363  0.9513  0.3869 -1.0752
 8487SOL    HW230400   1.131   4.287   4.307 -0.3485  0.7287  1.8857
 8488SOL     OW30401   7.320   8.965   8.329  0.2293 -0.0444  0.1200
 8488SOL    HW130402   7.353   9.049   8.298 -1.5629  1.5669  2.2159
 8488SOL    HW230403   7.395   8.906   8.323  1.5397  1.6664 -1.4696
 8489SOL     OW30404   7.772   4.737   2.173 -0.5521  0.0276 -0.5642
 8489SOL    HW130405   7.722   4.812   2.205 -0.9480 -0.5185  0.1250
 8489SOL    HW230406   7.858   4.745   2.214 -1.6729 -1.7992  2.4902
 8490SOL     OW30407   7.884   3.887   9.689 -0.7090  0.0428 -0.1465
 8490SOL    HW130408   7.799   3.887   9.646 -0.7392 -1.0296 -0.1294
 8490SOL    HW230409   7.922   3.972   9.669 -1.2797  0.0647 -1.1787
 8491SOL     OW30410   6.571   3.625   4.813 -0.0416 -0.3156 -0.5036
 8491SOL    HW130411   6.550   3.649   4.723 -0.6783  2.0815  0.2191
 8491SOL    HW230412   6.488   3.598   4.851 -1.0591  3.9769  0.8185
 8492SOL     OW30413   1.235   6.456   3.605 -0.1507 -0.3703  0.1888
 8492SOL    HW130414   1.145   6.482   3.584  0.6474  1.1543 -1.6927
 8492SOL    HW230415   1.281   6.461   3.521  1.6861 -1.2229  1.0914
 8493SOL     OW30416   1.655   7.435   0.864  0.4519 -0.0214 -0.1257
 8493SOL    HW130417   1.731   7.431   0.805  0.4723  3.0890 -0.4701
 8493SOL    HW230418   1.583   7.464   0.808  0.3708  2.5530  1.1462
 8494SOL     OW30419   6.783   5.973   7.509 -0.6690  0.2338 -0.1739
 8494SOL    HW130420   6.876   5.997   7.511 -0.3456 -0.5180 -2.5955
 8494SOL    HW230421   6.737   6.056   7.500 -0.2042  0.5759  0.5283
 8495SOL     OW30422  10.187   9.360   0.770 -0.0977 -0.5666  0.4204
 8495SOL    HW130423  10.152   9.279   0.807  0.2719 -2.8277 -3.5880
 8495SOL    HW230424  10.276   9.366   0.806 -0.1597 -1.8867  0.8563
 8496SOL     OW30425  11.481   6.682   8.836  0.3007  0.3363 -0.2710
 8496SOL    HW130426  11.537   6.721   8.769 -0.9735  0.2509 -1.4173
 8496SOL    HW230427  11.409   6.745   8.846 -0.9267 -0.9034 -0.9642
 8497SOL     OW30428  10.909   1.840   9.243  0.4781  0.0505  0.2042
 8497SOL    HW130429  10.826   1.889   9.244 -0.7681 -1.9761  0.3158
 8497SOL    HW230430  10.898   1.772   9.309  2.7508  0.4625  1.1157
 8498SOL     OW30431   3.661   5.217   6.103 -0.8124 -0.1419 -0.0566
 8498SOL    HW130432   3.666   5.184   6.192  0.7402  0.7164  0.2025
 8498SOL    HW230433   3.725   5.165   6.054 -0.0131  0.8996 -0.1472
 8499SOL     OW30434   9.976   8.731   8.432  0.0886 -0.2840  0.2610
 8499SOL    HW130435   9.882   8.736   8.446  0.2751  1.0735  1.2061
 8499SOL    HW230436  10.014   8.718   8.519  0.7410 -1.6874 -0.2101
 8500SOL     OW30437   6.589   7.225   5.455  0.5654 -0.1153  0.2461
 8500SOL    HW130438   6.598   7.151   5.394  2.0788 -0.1427  0.4724
 8500SOL    HW230439   6.542   7.188   5.530 -2.2146  0.1569 -1.2377
 8501SOL     OW30440   1.859   8.872   7.091 -0.1566 -0.3575 -0.2541
 8501SOL    HW130441   1.860   8.819   7.171  0.6367  1.1240  0.7598
 8501SOL    HW230442   1.952   8.890   7.073 -0.3793  0.1445 -0.9421
 8502SOL     OW30443   8.553   3.037  10.902 -0.1109  0.4808  0.7507
 8502SOL    HW130444   8.468   3.076  10.888 -0.2887  0.1333  0.8392
 8502SOL    HW230445   8.592   3.030  10.815  1.2318  3.6904  0.9498
 8503SOL     OW30446  11.629   2.489   0.479 -0.3533 -0.3948 -0.2327
 8503SOL    HW130447  11.631   2.433   0.402 -0.6084 -0.5854 -0.1039
 8503SOL    HW230448  11.550   2.462   0.526 -0.3929 -0.0384 -0.0873
 8504SOL     OW30449   1.200   0.615   3.331  1.1110  0.3455 -0.1956
 8504SOL    HW130450   1.199   0.530   3.376 -2.8878  0.2567 -0.1184
 8504SOL    HW230451   1.267   0.605   3.263  0.1756 -3.2608 -0.8245
 8505SOL     OW30452   1.740   2.500   2.739 -0.0215  0.4626  0.1824
 8505SOL    HW130453   1.800   2.515   2.812 -0.8198  1.5604  0.6320
 8505SOL    HW230454   1.798   2.492   2.663  0.8137 -0.5898  0.8896
 8506SOL     OW30455   4.480  11.466   9.737  0.4915  0.2409 -0.3793
 8506SOL    HW130456   4.400  11.433   9.697 -0.0829  0.1247  0.8286
 8506SOL    HW230457   4.515  11.392   9.787  2.4478 -0.3326 -2.4461
 8507SOL     OW30458   9.374   5.931   5.238  0.2261  0.2314 -0.1782
 8507SOL    HW130459   9.428   5.997   5.194 -0.6263  1.0637 -0.0039
 8507SOL    HW230460   9.372   5.857   5.177  0.7411  0.5740 -0.6222
 8508SOL     OW30461   3.450   6.730   2.918 -0.2529 -0.3225  0.2791
 8508SOL    HW130462   3.438   6.638   2.893  1.3504 -0.1487 -1.3205
 8508SOL    HW230463   3.536   6.733   2.959  1.4139  0.9560 -2.9340
 8509SOL     OW30464  11.004   5.122  10.931 -0.6242  0.7421  0.1101
 8509SOL    HW130465  11.096   5.126  10.959 -0.7882 -0.2417  0.8687
 8509SOL    HW230466  11.000   5.045  10.874 -0.3968  2.4691 -2.3835
 8510SOL     OW30467   2.794   1.777   9.816 -0.1062 -0.0194  0.4075
 8510SOL    HW130468   2.881   1.799   9.848 -0.5337  0.5198  1.2225
 8510SOL    HW230469   2.800   1.684   9.792  0.7324  0.0585  0.3008
 8511SOL     OW30470   4.383  10.472   1.910 -0.0327 -0.0124  0.3764
 8511SOL    HW130471   4.306  10.510   1.868 -0.1556  0.9342  1.4222
 8511SOL    HW230472   4.412  10.538   1.973  2.7429  0.4306 -1.2255
 8512SOL     OW30473   4.176   9.265   9.249  0.5644  0.5010  0.0981
 8512SOL    HW130474   4.180   9.170   9.257  0.9862  0.3883 -1.2410
 8512SOL    HW230475   4.252   9.296   9.300 -0.9497  0.3169  2.6197
 8513SOL     OW30476  11.004   6.101   3.666  0.5293 -0.1400 -0.4066
 8513SOL    HW130477  10.973   6.078   3.579 -0.5987  0.5109 -0.1995
 8513SOL    HW230478  11.069   6.034   3.687  0.6937 -0.4033 -1.6684
 8514SOL     OW30479   7.002   7.718   2.016 -0.1064  0.0500 -0.1924
 8514SOL    HW130480   6.982   7.658   2.088 -1.5990 -0.8975 -1.3382
 8514SOL    HW230481   6.923   7.770   2.005  0.3448  0.6449 -0.7177
 8515SOL     OW30482   2.238  10.193   6.112  0.2931 -0.4689  0.0453
 8515SOL    HW130483   2.189  10.216   6.191 -3.3417 -0.0776 -2.0673
 8515SOL    HW230484   2.286  10.272   6.089 -1.0307  0.4483  0.3072
 8516SOL     OW30485   0.394   5.867   8.782  0.2272 -0.7509  0.4090
 8516SOL    HW130486   0.315   5.816   8.802 -0.8814  0.6701 -0.1753
 8516SOL    HW230487   0.361   5.951   8.750  1.9526 -0.8708 -1.9231
 8517SOL     OW30488   9.972   7.529   4.406 -0.3381 -0.5590  0.1210
 8517SOL    HW130489   9.967   7.443   4.448 -0.6810 -0.6790 -0.1617
 8517SOL    HW230490  10.003   7.588   4.475 -1.7840 -0.5753  0.8225
 8518SOL     OW30491   6.908   8.195   9.890 -0.7343 -0.4440 -0.4737
 8518SOL    HW130492   6.981   8.226   9.943 -0.6458 -0.6976 -0.4468
 8518SOL    HW230493   6.830   8.218   9.940 -0.7698  1.3388 -1.2578
 8519SOL     OW30494   4.493   4.220   3.296  0.2864  0.1921  0.2013
 8519SOL    HW130495   4.579   4.226   3.254  0.0883  0.4284 -0.1769
 8519SOL    HW230496   4.503   4.151   3.362 -0.0997 -1.9959 -1.9228
 8520SOL     OW30497   0.900   5.972   8.219 -0.4409 -0.5118 -0.1671
 8520SOL    HW130498   0.989   6.006   8.210  0.7064 -3.3232 -0.8691
 8520SOL    HW230499   0.911   5.890   8.267 -2.9986  0.1065  1.6762
 8521SOL     OW30500   9.519   9.147   0.385  0.1287  0.1727 -0.5158
 8521SOL    HW130501   9.497   9.068   0.336  1.8360 -1.7360  1.5105
 8521SOL    HW230502   9.551   9.209   0.320 -0.9755 -0.9077 -2.1446
 8522SOL     OW30503  10.542   6.797  11.277 -0.0738 -1.2417  0.8640
 8522SOL    HW130504  10.614   6.734  11.282  1.8708  0.7172 -0.5085
 8522SOL    HW230505  10.567   6.868  11.336  1.0137  1.0779 -2.0694
 8523SOL     OW30506   1.690   1.098   9.190 -0.7121  0.2250 -0.3090
 8523SOL    HW130507   1.727   1.112   9.278  0.1246 -1.1497 -0.3927
 8523SOL    HW230508   1.717   1.174   9.140 -0.8444  0.8340  0.5207
 8524SOL     OW30509   4.515   6.973   5.439  0.8980 -0.1163  0.7437
 8524SOL    HW130510   4.451   6.987   5.508  0.6396 -0.1784  0.5177
 8524SOL    HW230511   4.547   6.884   5.453 -0.1491 -0.6225 -0.0326
 8525SOL     OW30512   0.749  11.557   4.773 -0.3704 -0.0705 -0.0159
 8525SOL    HW130513   0.760  11.490   4.840 -0.1200  0.1099  0.1244
 8525SOL    HW230514   0.669  11.603   4.798  0.0010  0.3291  0.4476
 8526SOL     OW30515   0.636  10.577   9.802 -0.2354 -0.0277  0.4609
 8526SOL    HW130516   0.575  10.565   9.729 -0.7252 -0.6277  0.9518
 8526SOL    HW230517   0.693  10.649   9.775  0.3761 -1.0194 -1.0415
 8527SOL     OW30518   0.478  11.617   1.494 -0.2571  0.0050 -0.1957
 8527SOL    HW130519   0.409  11.684   1.502 -1.0650 -0.5763 -1.8043
 8527SOL    HW230520   0.459  11.574   1.410  2.3645  0.1488 -0.9408
 8528SOL     OW30521   4.486   8.976   7.504  0.3475  0.0791  0.2676
 8528SOL    HW130522   4.482   8.881   7.515  0.0352  0.1419  0.7255
 8528SOL    HW230523   4.527   9.008   7.585 -0.9893  0.4665  0.8133
 8529SOL     OW30524   2.910   2.753   0.879 -0.2435  0.2133  0.1789
 8529SOL    HW130525   2.824   2.793   0.892 -0.5554  0.0585 -1.1639
 8529SOL    HW230526   2.951   2.806   0.811 -0.2699 -1.1019 -0.9178
 8530SOL     OW30527   4.458   3.502   1.803  0.2331 -0.2499  0.1712
 8530SOL    HW130528   4.384   3.508   1.742 -0.0792  2.5008  0.6929
 8530SOL    HW230529   4.517   3.571   1.775  1.4517 -0.8157  1.2659
 8531SOL     OW30530  11.131   5.409   4.793  0.2477  0.6422 -0.0204
 8531SOL    HW130531  11.154   5.427   4.884 -0.8928  1.0005  0.2083
 8531SOL    HW230532  11.212   5.377   4.754  0.2609 -1.7165  1.6757
 8532SOL     OW30533   8.147   3.410   8.153  0.1544 -0.3403 -0.6400
 8532SOL    HW130534   8.119   3.339   8.096  0.6483 -0.1608 -1.1108
 8532SOL    HW230535   8.210   3.459   8.101 -0.4285  0.6408 -0.4368
 8533SOL     OW30536   0.893   1.990   1.230 -0.5090  0.6777 -0.3390
 8533SOL    HW130537   0.870   2.052   1.300  1.4257  2.1571 -0.9326
 8533SOL    HW230538   0.984   2.012   1.208  0.8891 -3.4206  0.5035
 8534SOL     OW30539   8.113   9.730   6.073 -0.3457 -0.1818  0.0551
 8534SOL    HW130540   8.020   9.745   6.057 -0.5797 -1.7591 -0.1849
 8534SOL    HW230541   8.151   9.719   5.987  0.1688  0.8989  0.1275
 8535SOL     OW30542  11.228  10.213   1.624 -0.5365  0.0143  0.5326
 8535SOL    HW130543  11.260  10.130   1.589 -0.3566 -0.3306  1.4850
 8535SOL    HW230544  11.305  10.253   1.666 -0.7677  0.3744  0.6230
 8536SOL     OW30545   9.281   5.295   2.271 -0.8945  1.2615  0.2877
 8536SOL    HW130546   9.375   5.314   2.269 -0.6760  0.2884  0.6912
 8536SOL    HW230547   9.275   5.209   2.313 -1.9023  0.9338 -0.4925
 8537SOL     OW30548   7.799   3.789   3.431  0.1264  0.2513 -0.2868
 8537SOL    HW130549   7.842   3.779   3.346 -0.2366  0.9615 -0.5587
 8537SOL    HW230550   7.706   3.789   3.411  0.0471  0.7126  0.0775
 8538SOL     OW30551  11.443   3.129   3.735  0.5532 -0.2806 -0.0001
 8538SOL    HW130552  11.416   3.203   3.789  1.4008  0.7051 -0.8910
 8538SOL    HW230553  11.486   3.168   3.660  0.3157 -1.6642 -0.8950
 8539SOL     OW30554   8.848   3.588   5.463 -0.4341  0.3560 -0.4401
 8539SOL    HW130555   8.775   3.646   5.443 -0.5195 -0.3560 -2.4387
 8539SOL    HW230556   8.838   3.568   5.556 -3.1483 -0.2026 -0.7663
 8540SOL     OW30557   0.798   2.807   6.695  0.1898 -0.3238  0.3545
 8540SOL    HW130558   0.796   2.834   6.787 -1.8056 -1.7787  0.7888
 8540SOL    HW230559   0.851   2.728   6.694 -1.7233 -1.6647  0.7067
 8541SOL     OW30560   1.342   0.739   4.865  0.1278 -0.1574  0.0792
 8541SOL    HW130561   1.336   0.674   4.935 -0.5264  0.3780  0.5326
 8541SOL    HW230562   1.356   0.822   4.910 -0.5663  0.2307 -0.3952
 8542SOL     OW30563   8.281   8.261   6.706  0.0751 -0.1960 -0.5715
 8542SOL    HW130564   8.238   8.346   6.718  0.1200 -0.4293  1.6340
 8542SOL    HW230565   8.254   8.232   6.618 -1.8488  1.0122 -0.4245
 8543SOL     OW30566   2.188   4.465   9.058  0.0387  0.0783 -0.2876
 8543SOL    HW130567   2.108   4.413   9.063  0.5461 -0.9478 -1.9535
 8543SOL    HW230568   2.254   4.412   9.104  1.0214 -1.8564 -3.5801
 8544SOL     OW30569   4.591   9.269   4.947  0.4917 -0.6204 -0.4619
 8544SOL    HW130570   4.564   9.344   4.894 -0.7489 -0.1654  0.7671
 8544SOL    HW230571   4.516   9.209   4.945  0.9356 -1.1949 -0.2842
 8545SOL     OW30572  11.269   5.049   6.573  0.2660  0.1825  0.3260
 8545SOL    HW130573  11.269   5.012   6.484  0.9220  3.0363 -0.9790
 8545SOL    HW230574  11.178   5.072   6.589  0.4063  1.4411 -0.4933
 8546SOL     OW30575   5.639   5.907   9.470 -0.2123  0.5921  0.0538
 8546SOL    HW130576   5.653   5.973   9.402 -0.5336  1.7324  1.0636
 8546SOL    HW230577   5.704   5.840   9.451  0.6399  1.5529 -0.5655
 8547SOL     OW30578   2.997   4.790   7.125  0.0934  0.4368  0.1595
 8547SOL    HW130579   2.973   4.833   7.206  0.4347 -0.3697  0.7089
 8547SOL    HW230580   3.081   4.748   7.144 -0.4970 -0.9577 -0.1346
 8548SOL     OW30581   7.626   5.323   1.513  0.5849  0.6910 -0.2625
 8548SOL    HW130582   7.592   5.235   1.534  1.3982  0.2985 -0.5440
 8548SOL    HW230583   7.557   5.364   1.462 -0.5780  0.8921  1.3791
 8549SOL     OW30584  10.970  10.270   4.080  0.8543 -0.2514 -0.1255
 8549SOL    HW130585  10.974  10.206   4.008  0.6525 -1.7325  1.1161
 8549SOL    HW230586  11.060  10.274   4.113  0.6850 -0.6359  0.3969
 8550SOL     OW30587   5.308   4.486   7.495 -0.3137 -0.0506  0.3709
 8550SOL    HW130588   5.393   4.514   7.528 -0.8044 -1.2494  2.8709
 8550SOL    HW230589   5.246   4.510   7.564 -1.8796 -0.1377 -0.9456
 8551SOL     OW30590   0.477   1.977   2.108 -0.1246  0.2663 -0.1512
 8551SOL    HW130591   0.522   2.059   2.129 -2.3084  1.1205  1.6093
 8551SOL    HW230592   0.497   1.919   2.181 -1.3154  0.4511  0.3415
 8552SOL     OW30593   0.811   7.520   4.090  0.3374 -0.5799 -0.7619
 8552SOL    HW130594   0.894   7.565   4.104  0.7374 -0.8589 -2.0549
 8552SOL    HW230595   0.752   7.556   4.156  1.7888 -1.2112  0.9498
 8553SOL     OW30596   0.773   9.483   6.109  0.0039 -0.4569 -0.0340
 8553SOL    HW130597   0.845   9.446   6.161  0.1592 -1.9267 -1.2218
 8553SOL    HW230598   0.799   9.469   6.018 -1.0073  0.5777 -0.5142
 8554SOL     OW30599   2.179   4.321   3.128 -0.3530 -0.2666 -0.0073
 8554SOL    HW130600   2.094   4.295   3.162 -0.4160  0.4397  0.4053
 8554SOL    HW230601   2.208   4.390   3.187 -0.4079  0.9300 -1.3213
 8555SOL     OW30602   3.447   0.569   9.921  0.4276  0.4168  0.1845
 8555SOL    HW130603   3.381   0.504   9.945 -2.6945  3.1204 -0.1945
 8555SOL    HW230604   3.514   0.562   9.988 -0.6801 -1.9332  1.1406
 8556SOL     OW30605   0.068   9.752  10.411  0.1470  0.5545 -0.1086
 8556SOL    HW130606  -0.006   9.808  10.435 -0.4125  0.4870 -1.5753
 8556SOL    HW230607   0.033   9.695  10.342  1.2041 -0.3866  0.1139
 8557SOL     OW30608  10.939   4.780  10.147  0.6138 -0.3060  0.1672
 8557SOL    HW130609  10.959   4.874  10.140  0.7747 -0.4135 -1.0684
 8557SOL    HW230610  11.013   4.737  10.104 -0.7900 -0.8586 -1.8435
 8558SOL     OW30611   4.004   1.220   4.940 -0.0669  0.0525  0.9442
 8558SOL    HW130612   3.956   1.231   5.022 -0.9485  0.1110  0.4277
 8558SOL    HW230613   4.065   1.148   4.959 -1.1950 -0.8688  1.2581
 8559SOL     OW30614   9.040   2.948   3.440 -0.1556 -0.1516  0.2872
 8559SOL    HW130615   9.083   2.891   3.376 -0.3545  0.7989 -0.7229
 8559SOL    HW230616   9.104   3.017   3.457  0.1269 -0.7045  1.5833
 8560SOL     OW30617   8.858   0.601   9.915 -0.2078  0.0338  0.9590
 8560SOL    HW130618   8.891   0.689   9.895 -0.9753 -0.2427 -2.0309
 8560SOL    HW230619   8.784   0.616   9.974 -0.9970  1.5484 -0.3403
 8561SOL     OW30620   5.899   8.604   3.098  0.2132 -0.3244 -0.4397
 8561SOL    HW130621   5.898   8.520   3.053  0.1129 -0.8300  0.4703
 8561SOL    HW230622   5.954   8.589   3.175 -0.0610  0.3560 -0.1034
 8562SOL     OW30623   2.650  10.013   8.824  0.2097  0.0797 -0.2185
 8562SOL    HW130624   2.593   9.988   8.896  0.2314  0.5059 -0.0541
 8562SOL    HW230625   2.720  10.064   8.864  0.2789  0.2330 -0.5271
 8563SOL     OW30626   5.335   1.787   8.847  0.5016  0.4975  0.1600
 8563SOL    HW130627   5.291   1.760   8.927 -0.3049  1.4531  0.0510
 8563SOL    HW230628   5.343   1.882   8.853 -1.5980  0.8974 -1.8421
 8564SOL     OW30629  10.007   9.850   7.426 -0.4441 -0.5553 -0.3925
 8564SOL    HW130630  10.019   9.891   7.511 -1.2767 -0.1223 -0.4749
 8564SOL    HW230631  10.054   9.907   7.365 -2.0921  0.6770 -0.5962
 8565SOL     OW30632   3.749   5.049  10.322  0.3286 -0.0163  0.3207
 8565SOL    HW130633   3.837   5.069  10.289  0.4821  1.7160  1.6032
 8565SOL    HW230634   3.690   5.079  10.253  0.7057  0.6594  0.2826
 8566SOL     OW30635   4.751   0.911   9.786 -0.0928 -0.2069 -0.2373
 8566SOL    HW130636   4.826   0.952   9.829  0.7333 -0.4053 -1.4451
 8566SOL    HW230637   4.699   0.985   9.753 -1.0598 -0.0263  1.5532
 8567SOL     OW30638  10.285   1.827   3.139  0.4134 -0.4502 -0.4211
 8567SOL    HW130639  10.205   1.781   3.164  0.7624 -1.0011 -0.2950
 8567SOL    HW230640  10.271   1.852   3.048 -0.4596  0.6840 -0.0070
 8568SOL     OW30641   1.521   9.921   8.453 -0.0501  0.8616 -0.0785
 8568SOL    HW130642   1.550   9.873   8.531  0.5672  0.7905 -0.3429
 8568SOL    HW230643   1.538   9.862   8.380 -1.5583  0.5414 -0.1852
 8569SOL     OW30644   1.291   5.772   3.859  0.3144 -0.3878 -0.2758
 8569SOL    HW130645   1.339   5.690   3.849  1.6142  0.2619  0.4190
 8569SOL    HW230646   1.359   5.840   3.858 -0.5485  0.5420  0.9791
 8570SOL     OW30647   3.401   6.925   4.190 -0.0243  0.0686 -0.0099
 8570SOL    HW130648   3.333   6.881   4.140 -0.8106 -0.5543  1.5525
 8570SOL    HW230649   3.355   6.996   4.234  0.7528  0.9052 -0.5121
 8571SOL     OW30650   7.731   5.831   9.574 -0.5139 -0.0407 -0.2637
 8571SOL    HW130651   7.788   5.758   9.599 -0.8850 -0.0459  0.6069
 8571SOL    HW230652   7.663   5.832   9.642 -1.1776  0.3729 -0.9299
 8572SOL     OW30653   0.152   6.625   4.939 -0.4298  0.4078 -0.5287
 8572SOL    HW130654   0.182   6.711   4.910 -0.8104  0.9035  0.4856
 8572SOL    HW230655   0.220   6.595   5.000  1.1665 -1.3174 -2.9684
 8573SOL     OW30656   7.861   1.824   9.346  0.8205 -0.6638 -0.7033
 8573SOL    HW130657   7.795   1.788   9.286  0.7398  0.9124 -1.6199
 8573SOL    HW230658   7.816   1.896   9.391  2.1542  1.1371 -2.1148
 8574SOL     OW30659   0.026   0.946   2.401  0.3401  0.1614  0.0805
 8574SOL    HW130660   0.035   0.972   2.493 -4.2742  0.2081  0.7403
 8574SOL    HW230661   0.082   0.868   2.393  0.9335  0.1698  2.8921
 8575SOL     OW30662   4.858   4.982   7.310 -0.1879  0.5323 -0.0556
 8575SOL    HW130663   4.796   5.053   7.292  1.0847  2.3578  2.1741
 8575SOL    HW230664   4.855   4.972   7.405 -0.0975 -2.2729 -0.2837
 8576SOL     OW30665   5.055   1.932  11.490  0.6506 -0.2486  0.7049
 8576SOL    HW130666   4.969   1.921  11.450  0.2549  0.3175  1.3904
 8576SOL    HW230667   5.055   1.870  11.564  1.0306 -0.6241  0.3952
 8577SOL     OW30668  10.164   9.817  10.957 -0.2309 -0.5259 -0.5496
 8577SOL    HW130669  10.098   9.751  10.977 -0.6493 -0.0829 -0.4670
 8577SOL    HW230670  10.215   9.778  10.885  1.0093 -1.9357  0.9955
 8578SOL     OW30671   3.710   4.895   7.858  0.0730 -0.0642 -0.0101
 8578SOL    HW130672   3.772   4.853   7.918 -0.9047  0.9482  1.7912
 8578SOL    HW230673   3.763   4.958   7.809  0.5399  0.7752  1.4980
 8579SOL     OW30674   2.423   7.153   7.489 -0.2954 -0.5608  0.1337
 8579SOL    HW130675   2.362   7.215   7.529 -1.5349 -0.7325 -1.3964
 8579SOL    HW230676   2.477   7.207   7.432  1.3378 -0.3461  1.7956
 8580SOL     OW30677   3.403   3.557   7.401 -0.9723 -0.3937  0.2061
 8580SOL    HW130678   3.339   3.588   7.337 -0.2103  0.6592 -0.0788
 8580SOL    HW230679   3.370   3.472   7.429 -1.8891 -0.3789 -0.7742
 8581SOL     OW30680   5.894   3.397   7.884 -0.4993  0.9303  0.1371
 8581SOL    HW130681   5.982   3.431   7.898 -0.1092  0.0996 -0.2109
 8581SOL    HW230682   5.906   3.319   7.829 -1.5527  1.4492 -0.8888
 8582SOL     OW30683   1.249   6.866   4.369  0.1763 -0.0598 -0.6491
 8582SOL    HW130684   1.293   6.882   4.452 -2.7733 -0.6786  1.1583
 8582SOL    HW230685   1.252   6.951   4.324  2.1517  0.1885 -0.1495
 8583SOL     OW30686   8.192   2.148   1.794 -0.1793 -0.1049 -0.1332
 8583SOL    HW130687   8.194   2.197   1.877 -0.4116  1.3663 -0.9686
 8583SOL    HW230688   8.272   2.173   1.749 -0.2410 -0.6097 -0.5324
 8584SOL     OW30689   3.411   2.972  11.055 -0.2251 -0.1959  0.0330
 8584SOL    HW130690   3.498   3.003  11.028  0.7702 -3.0343 -0.2963
 8584SOL    HW230691   3.415   2.972  11.151  0.5454 -1.2495  0.0227
 8585SOL     OW30692   1.903   0.749   4.081 -0.1062  0.0559 -0.6237
 8585SOL    HW130693   1.872   0.812   4.016  0.0157 -0.0142 -0.7500
 8585SOL    HW230694   1.966   0.798   4.134 -0.9325  0.3949  0.0637
 8586SOL     OW30695   9.805   4.742  11.283 -0.1696  0.0444 -0.1634
 8586SOL    HW130696   9.869   4.686  11.327 -0.0375  1.9003  2.2154
 8586SOL    HW230697   9.735   4.753  11.348 -0.7244  1.6600 -0.9888
 8587SOL     OW30698   7.799   6.915   4.187 -0.0334  0.0555  0.3723
 8587SOL    HW130699   7.738   6.956   4.248 -1.5749  0.5659 -1.3884
 8587SOL    HW230700   7.849   6.853   4.240 -0.2164  1.5527  2.4010
 8588SOL     OW30701   2.612  11.304   7.730 -0.3537 -0.4204  0.4540
 8588SOL    HW130702   2.646  11.220   7.699  0.1770 -0.0377 -0.0238
 8588SOL    HW230703   2.556  11.335   7.659  0.3467  0.1518  0.1338
 8589SOL     OW30704   6.742   4.883  11.412  0.2315  0.1830  0.2477
 8589SOL    HW130705   6.759   4.969  11.374  0.5973  0.2619  0.5789
 8589SOL    HW230706   6.743   4.899  11.506 -0.2331 -0.0888  0.2993
 8590SOL     OW30707   8.267   6.824   0.150 -0.4668  0.2406 -0.2266
 8590SOL    HW130708   8.338   6.796   0.208 -1.1976 -0.7366  0.2255
 8590SOL    HW230709   8.187   6.793   0.192 -1.0081 -0.7626 -1.8791
 8591SOL     OW30710   1.953   4.797   5.211 -0.1945  0.6478  0.5776
 8591SOL    HW130711   1.992   4.720   5.254  0.9279  0.5167 -0.6008
 8591SOL    HW230712   2.027   4.857   5.198 -0.2163  0.2300 -2.0826
 8592SOL     OW30713   9.619   5.196   9.932 -0.3435  0.4443 -0.0183
 8592SOL    HW130714   9.549   5.253   9.965  1.0593  1.2883  1.6452
 8592SOL    HW230715   9.587   5.167   9.846 -2.0910  1.9491  0.0503
 8593SOL     OW30716   6.283   2.023   9.687 -0.3334  0.4037  0.4125
 8593SOL    HW130717   6.236   2.013   9.770  0.7785 -1.3883  0.9019
 8593SOL    HW230718   6.231   1.975   9.623  0.4904 -1.1194  0.8388
 8594SOL     OW30719   3.300   0.268   9.648  0.6432  0.4038  0.4510
 8594SOL    HW130720   3.305   0.212   9.571 -0.6207  0.1320  0.5321
 8594SOL    HW230721   3.304   0.207   9.722 -0.5590  0.4078  0.5412
 8595SOL     OW30722   1.231   5.115   5.015 -0.2913 -0.0413  0.7853
 8595SOL    HW130723   1.165   5.184   5.022  0.2660  0.4543  1.2288
 8595SOL    HW230724   1.232   5.075   5.102 -0.0879 -0.1241  0.7433
 8596SOL     OW30725   5.245   9.302   4.991  0.1232  0.1515 -0.0773
 8596SOL    HW130726   5.238   9.341   5.078  0.3876 -1.3925  0.6858
 8596SOL    HW230727   5.328   9.335   4.956 -0.6846  1.9585 -0.4017
 8597SOL     OW30728   5.059   9.820  11.409 -0.1534  0.1760 -0.0930
 8597SOL    HW130729   5.030   9.902  11.449 -0.0172  0.2799 -0.2058
 8597SOL    HW230730   5.004   9.812  11.331 -0.1134  0.2012 -0.1243
 8598SOL     OW30731   7.900   6.287  11.414 -0.0730 -0.2903 -0.3969
 8598SOL    HW130732   7.855   6.358  11.369  0.0421  0.1185  0.1230
 8598SOL    HW230733   7.939   6.328  11.491  0.1171 -0.8878 -0.1669
 8599SOL     OW30734   2.865   3.074   0.533  0.6816  0.3480  0.0640
 8599SOL    HW130735   2.910   2.990   0.531 -1.6004 -0.9832 -3.1819
 8599SOL    HW230736   2.878   3.110   0.445 -2.5465  0.9360 -0.2824
 8600SOL     OW30737   0.521   4.347   0.807  0.2486  0.4330 -0.4354
 8600SOL    HW130738   0.433   4.385   0.809  0.9640  2.1933  0.2028
 8600SOL    HW230739   0.578   4.418   0.838  1.7024 -1.2006  0.8319
 8601SOL     OW30740   9.517   3.946   0.499  0.2317  0.2438  0.0104
 8601SOL    HW130741   9.430   3.909   0.515 -0.1543  0.8358 -0.6649
 8601SOL    HW230742   9.545   3.979   0.585  0.4015 -1.1709  0.5374
 8602SOL     OW30743   5.407   8.164   0.237 -0.3652 -0.1277 -0.2462
 8602SOL    HW130744   5.427   8.076   0.269 -0.0676 -1.3172 -3.3281
 8602SOL    HW230745   5.490   8.212   0.244  0.1554 -0.9147 -0.8599
 8603SOL     OW30746   0.689   9.998   0.620  0.0068 -0.0023 -0.0377
 8603SOL    HW130747   0.639  10.072   0.587  0.4155 -0.3727 -1.5557
 8603SOL    HW230748   0.681  10.004   0.715 -1.6322  0.8113 -0.2048
 8604SOL     OW30749  11.537  10.125   7.903 -0.2961 -0.0662  0.6258
 8604SOL    HW130750  11.473  10.185   7.866 -0.0217 -0.3480 -0.3422
 8604SOL    HW230751  11.489  10.075   7.969 -1.1380 -0.4278 -0.2391
 8605SOL     OW30752   4.667   8.248   9.755 -0.5162 -0.2869  0.3493
 8605SOL    HW130753   4.621   8.326   9.724 -0.4246 -0.4611 -0.2466
 8605SOL    HW230754   4.598   8.182   9.763 -0.4098 -0.4855 -0.3283
 8606SOL     OW30755   2.108   2.251  10.165 -0.3922 -0.3272  0.3433
 8606SOL    HW130756   2.180   2.304  10.200  0.0522 -0.1897 -0.7502
 8606SOL    HW230757   2.058   2.312  10.111  0.2595 -1.0486 -1.1307
 8607SOL     OW30758   2.491   8.461   2.061 -0.0864 -0.5941 -0.0101
 8607SOL    HW130759   2.569   8.514   2.069 -0.9002  0.6947 -0.3064
 8607SOL    HW230760   2.502   8.413   1.979 -0.0556  0.3789 -0.5895
 8608SOL     OW30761   7.012  10.899  10.829 -0.5014  0.9151  0.5741
 8608SOL    HW130762   7.017  10.917  10.735  1.5921 -0.0305  0.4553
 8608SOL    HW230763   7.001  10.986  10.869  0.0204  1.4868 -0.4624
 8609SOL     OW30764   8.385   1.353   2.159 -0.0630  0.3742 -0.4735
 8609SOL    HW130765   8.338   1.365   2.076  1.3845  0.6559 -1.2740
 8609SOL    HW230766   8.317   1.327   2.221 -1.3399  1.1031 -1.5163
 8610SOL     OW30767   0.595   5.980   6.075  0.1904  0.6615 -0.1090
 8610SOL    HW130768   0.651   5.929   6.133 -2.0907  0.0941  1.7075
 8610SOL    HW230769   0.515   5.928   6.066 -0.3920  1.7863 -1.9916
 8611SOL     OW30770   5.405   0.736   0.760 -0.2137  0.4262 -0.0642
 8611SOL    HW130771   5.387   0.742   0.666  0.2340  0.9767 -0.1233
 8611SOL    HW230772   5.493   0.699   0.765  0.2560  1.5164  0.0929
 8612SOL     OW30773   0.933   8.258   5.283 -0.0738 -0.0892  0.1193
 8612SOL    HW130774   0.981   8.336   5.310  0.5514 -0.0596 -1.0189
 8612SOL    HW230775   0.867   8.291   5.222  0.1297 -0.4425 -0.2897
 8613SOL     OW30776   8.656   5.344   5.408 -0.1852  0.0705 -0.5387
 8613SOL    HW130777   8.669   5.392   5.489  0.9793 -0.3915 -0.4361
 8613SOL    HW230778   8.626   5.411   5.345  0.8454  0.8306 -0.2490
 8614SOL     OW30779   1.433  10.601   4.625  0.2842 -0.2006  0.3173
 8614SOL    HW130780   1.454  10.690   4.652  1.2261 -0.1625 -0.5080
 8614SOL    HW230781   1.507  10.548   4.655 -0.1720 -0.6824  0.6241
 8615SOL     OW30782   5.165  11.370  10.621 -0.0229  0.4741 -0.7694
 8615SOL    HW130783   5.179  11.335  10.710 -1.1269 -1.0843 -1.1548
 8615SOL    HW230784   5.249  11.358  10.577 -0.3178 -1.8492 -0.8720
 8616SOL     OW30785   7.723   4.466   4.674  0.1005  0.0255 -0.0236
 8616SOL    HW130786   7.656   4.434   4.614 -0.3836 -0.9362  0.9835
 8616SOL    HW230787   7.806   4.432   4.639  0.1269  1.4351 -1.4138
 8617SOL     OW30788   7.094   2.742   0.362 -0.1242 -0.3387  0.2180
 8617SOL    HW130789   7.065   2.671   0.304  1.7654  1.4485 -3.2419
 8617SOL    HW230790   7.171   2.707   0.406  0.7318 -0.5473 -1.3717
 8618SOL     OW30791   4.908   0.132   0.544  0.1859 -0.3057 -0.1564
 8618SOL    HW130792   4.836   0.150   0.484  1.4163  2.0913 -1.0316
 8618SOL    HW230793   4.952   0.055   0.507 -0.2418 -0.0551 -1.2101
 8619SOL     OW30794   8.467   7.274   5.606  0.0505  0.4829 -0.0021
 8619SOL    HW130795   8.459   7.294   5.513 -2.3010 -1.2548 -0.2509
 8619SOL    HW230796   8.424   7.348   5.650 -0.1810  0.5821 -0.3883
 8620SOL     OW30797   5.108   9.655   2.653 -0.1183 -0.5501  0.4565
 8620SOL    HW130798   5.087   9.678   2.743 -1.2086 -1.2926  0.4055
 8620SOL    HW230799   5.091   9.561   2.648  0.9401 -0.7211 -0.2498
 8621SOL     OW30800   9.460   1.514   3.263  0.2253  0.1704 -0.5608
 8621SOL    HW130801   9.403   1.585   3.233  0.0370  0.1698 -0.2090
 8621SOL    HW230802   9.479   1.463   3.184  2.3995  2.0274 -1.3462
 8622SOL     OW30803   9.102  11.604   3.243 -0.7143 -0.4320  0.2865
 8622SOL    HW130804   9.082  11.572   3.331  0.9466  0.9262  1.2274
 8622SOL    HW230805   9.028  11.576   3.190 -1.3960 -1.9790  1.9414
 8623SOL     OW30806   3.259   5.238   1.239 -0.0438  0.7773 -0.4395
 8623SOL    HW130807   3.336   5.274   1.283 -0.3601  1.0095 -0.0646
 8623SOL    HW230808   3.294   5.176   1.175  0.4558  0.9475 -0.3331
 8624SOL     OW30809   4.458   2.498   1.208 -0.1753 -0.7176 -0.2652
 8624SOL    HW130810   4.526   2.449   1.253 -0.3369 -0.8350 -0.1478
 8624SOL    HW230811   4.390   2.433   1.189  0.4709 -0.9764 -1.8868
 8625SOL     OW30812   6.024   9.615   0.691 -0.2104 -0.0422  0.1414
 8625SOL    HW130813   5.951   9.660   0.650 -0.2681  0.0524  0.3433
 8625SOL    HW230814   5.983   9.559   0.757 -0.0573  0.5441  0.7505
 8626SOL     OW30815   2.983   5.164   9.913  0.3200  0.1122  0.3986
 8626SOL    HW130816   3.041   5.235   9.941  1.1694 -0.3272 -0.1928
 8626SOL    HW230817   2.895   5.201   9.919  0.7887  1.4890 -0.6461
 8627SOL     OW30818   3.336   4.827  11.425 -0.5084  0.5333 -0.3704
 8627SOL    HW130819   3.256   4.861  11.464 -0.9638 -0.9200  0.0346
 8627SOL    HW230820   3.319   4.827  11.331 -1.1211 -0.0737 -0.2641
 8628SOL     OW30821   2.362   6.012   7.694 -0.2884  0.1842 -0.3611
 8628SOL    HW130822   2.379   5.967   7.611 -0.6889 -1.4589  0.4149
 8628SOL    HW230823   2.323   6.095   7.667 -1.5523 -0.8168 -1.8227
 8629SOL     OW30824   7.938   0.991   9.128 -0.3417 -0.2076 -0.2957
 8629SOL    HW130825   7.850   0.957   9.142 -0.5521  0.9175  1.3515
 8629SOL    HW230826   7.983   0.977   9.211  0.6402  0.3940 -0.6982
 8630SOL     OW30827   3.306   8.189   3.874  1.0186  0.0521 -0.0407
 8630SOL    HW130828   3.362   8.224   3.944 -0.0455 -0.5229  1.1231
 8630SOL    HW230829   3.250   8.125   3.917 -1.0950  1.1445 -0.9832
 8631SOL     OW30830   5.211   0.766   5.905  0.2744 -0.1408  0.5460
 8631SOL    HW130831   5.304   0.746   5.897  0.4504  0.6457  0.5007
 8631SOL    HW230832   5.167   0.684   5.885  0.9604 -0.5377  0.6274
 8632SOL     OW30833   3.003  11.217   1.430  0.7948 -0.5197  0.4558
 8632SOL    HW130834   2.942  11.156   1.389  1.1880 -0.2667 -0.5392
 8632SOL    HW230835   2.972  11.225   1.520 -0.0931 -1.0941  0.2149
 8633SOL     OW30836   0.007   3.543   4.233 -0.7062  0.4629  0.4166
 8633SOL    HW130837   0.056   3.623   4.214 -0.5134  0.4529  0.8673
 8633SOL    HW230838   0.045   3.511   4.315 -0.3934 -0.4057 -0.0641
 8634SOL     OW30839   8.948   6.407   2.656 -0.1567 -0.1968 -0.0110
 8634SOL    HW130840   8.901   6.341   2.605 -1.1332 -0.9834  1.8188
 8634SOL    HW230841   8.920   6.392   2.747  3.5696 -0.6473  1.2271
 8635SOL     OW30842   1.675  10.530   1.091  0.1409 -0.3434 -0.0350
 8635SOL    HW130843   1.599  10.474   1.106 -1.1522  1.7683  2.0303
 8635SOL    HW230844   1.711  10.546   1.178  1.9654  0.0648 -0.8107
 8636SOL     OW30845   5.829   6.243   6.847 -0.5028  0.5329 -0.1537
 8636SOL    HW130846   5.757   6.184   6.826 -0.3014 -0.3309  1.4185
 8636SOL    HW230847   5.825   6.310   6.779  0.8175 -2.5283 -3.5991
 8637SOL     OW30848   0.768   0.624   9.149 -0.6286 -0.1315 -0.1307
 8637SOL    HW130849   0.723   0.540   9.155  0.6602 -0.8259  0.3987
 8637SOL    HW230850   0.699   0.690   9.157 -1.5323 -1.1435  0.6636
 8638SOL     OW30851   4.791   3.107  11.422 -0.2981  0.0305  0.8045
 8638SOL    HW130852   4.787   3.199  11.450  1.3727  0.1732  0.6802
 8638SOL    HW230853   4.834   3.062  11.495 -1.2418 -0.7033  0.9282
 8639SOL     OW30854   9.419   8.403   6.702 -0.8331  0.1838  0.7914
 8639SOL    HW130855   9.502   8.450   6.688 -0.5325 -1.0428 -2.1509
 8639SOL    HW230856   9.353   8.459   6.661 -0.8205 -0.7340 -0.5365
 8640SOL     OW30857   9.859   1.658   2.324 -0.0865  0.4111 -0.1927
 8640SOL    HW130858   9.894   1.652   2.235 -0.1788  0.2584 -0.2199
 8640SOL    HW230859   9.766   1.637   2.315 -0.1018  0.4227 -0.0653
 8641SOL     OW30860   9.995   7.827   0.300  0.0724  0.0244  0.5321
 8641SOL    HW130861   9.954   7.855   0.382 -0.0608 -0.0952  0.5051
 8641SOL    HW230862  10.027   7.908   0.262 -0.9280  0.2362  0.1165
 8642SOL     OW30863   0.724   4.919   5.941 -0.5176  0.0680  0.6447
 8642SOL    HW130864   0.756   4.992   5.889  1.0502 -1.3942 -0.5694
 8642SOL    HW230865   0.631   4.937   5.953  0.1500  3.1935  2.0780
 8643SOL     OW30866   6.608   0.381   8.072 -0.5968 -0.4423 -0.4385
 8643SOL    HW130867   6.691   0.401   8.030  1.2486 -2.2521  2.0342
 8643SOL    HW230868   6.573   0.307   8.022 -0.3177 -0.2005 -1.0003
 8644SOL     OW30869   4.538   8.676   2.239 -0.2808 -0.2546  0.3501
 8644SOL    HW130870   4.463   8.663   2.298 -0.9041 -1.8676 -0.7139
 8644SOL    HW230871   4.522   8.760   2.198  0.1667  0.9201  2.4258
 8645SOL     OW30872  11.652   1.315  11.163  0.2463  0.6787  1.0605
 8645SOL    HW130873  11.679   1.393  11.210  2.0593  0.1617  0.9461
 8645SOL    HW230874  11.574   1.284  11.211 -1.0019  2.9422  0.6151
 8646SOL     OW30875   3.301   5.622   4.950  0.4817  0.1310  0.2742
 8646SOL    HW130876   3.239   5.651   5.017  0.7789 -1.2810  1.2084
 8646SOL    HW230877   3.345   5.547   4.990  1.6268  0.0947 -1.0053
 8647SOL     OW30878   9.569   3.389   5.527  0.1810 -0.3316  0.0987
 8647SOL    HW130879   9.541   3.395   5.436 -1.1780  0.8187  0.5508
 8647SOL    HW230880   9.648   3.336   5.525  0.7859  0.5705 -1.8937
 8648SOL     OW30881  10.005   7.181  10.701 -0.9212 -0.1597 -0.3930
 8648SOL    HW130882  10.083   7.170  10.647 -1.9187 -0.9276 -1.7314
 8648SOL    HW230883  10.021   7.263  10.749  1.6251 -1.3876  1.0604
 8649SOL     OW30884   6.497   8.537   5.598 -0.3300  0.4125 -0.0656
 8649SOL    HW130885   6.491   8.548   5.503 -1.0454  2.9365  0.2052
 8649SOL    HW230886   6.591   8.526   5.615 -0.0481  1.2562 -0.9716
 8650SOL     OW30887   2.835  10.935   3.154  0.5346 -0.1448 -0.3750
 8650SOL    HW130888   2.799  11.023   3.157 -2.5948 -1.2885 -0.8998
 8650SOL    HW230889   2.875  10.927   3.068  2.8588  1.4045  0.4910
 8651SOL     OW30890   0.360   3.785   1.127 -0.1598  0.3355  0.2964
 8651SOL    HW130891   0.358   3.735   1.208 -1.9972 -0.6948 -0.3216
 8651SOL    HW230892   0.428   3.743   1.074 -0.4562 -0.3816  0.4727
 8652SOL     OW30893   1.235  10.489   6.993 -0.1870  0.5154  0.2347
 8652SOL    HW130894   1.264  10.459   7.079  0.3022 -0.9494 -0.4040
 8652SOL    HW230895   1.201  10.410   6.950  2.1876  0.5249 -1.9496
 8653SOL     OW30896   1.530   2.968   1.399 -0.5691 -0.2061  0.3136
 8653SOL    HW130897   1.522   2.894   1.339 -0.8679  1.0393 -1.2512
 8653SOL    HW230898   1.440   2.984   1.429 -0.8233  0.6602 -0.8289
 8654SOL     OW30899   1.172   5.588   7.011 -0.1278 -0.4699  0.3941
 8654SOL    HW130900   1.139   5.677   6.995  1.1627  0.1141  0.7529
 8654SOL    HW230901   1.108   5.548   7.069 -0.5181  0.3941  0.5765
 8655SOL     OW30902   8.941   5.957  10.210 -0.0580  0.2153  0.7661
 8655SOL    HW130903   8.878   6.004  10.265  0.4479  0.4404  1.1681
 8655SOL    HW230904   8.939   6.004  10.126 -2.0975 -1.1742 -0.0284
 8656SOL     OW30905  10.098   7.637   3.890 -0.3279  0.2716 -0.0169
 8656SOL    HW130906  10.088   7.729   3.866  1.0631  1.0301  2.1040
 8656SOL    HW230907  10.050   7.628   3.972  1.5522 -0.2840  1.0623
 8657SOL     OW30908   0.617  10.505   6.073  0.4107  0.1879  0.1647
 8657SOL    HW130909   0.569  10.587   6.064 -0.0269 -0.1553 -0.8392
 8657SOL    HW230910   0.588  10.452   5.998  2.9766  0.2657 -0.9961
 8658SOL     OW30911   0.725  10.902   4.014 -0.2365 -0.1041 -0.0828
 8658SOL    HW130912   0.777  10.831   4.052 -1.9781 -0.8108  1.1075
 8658SOL    HW230913   0.769  10.923   3.932  1.2513 -1.4404  0.3236
 8659SOL     OW30914   3.131   2.830   4.210 -0.5450 -0.2055  0.1578
 8659SOL    HW130915   3.125   2.926   4.205  1.0976 -0.1473 -1.8441
 8659SOL    HW230916   3.214   2.809   4.168 -0.7695 -2.5268  0.7551
 8660SOL     OW30917  11.351  10.962  11.094  0.0850 -0.0455  0.1717
 8660SOL    HW130918  11.382  10.995  11.010 -0.5793  1.1013  0.3576
 8660SOL    HW230919  11.301  11.034  11.132 -0.4751 -0.8854  1.1084
 8661SOL     OW30920   6.384   9.312   8.105  0.4605 -0.2952 -0.6389
 8661SOL    HW130921   6.304   9.351   8.140  1.1423  0.1934  0.4540
 8661SOL    HW230922   6.388   9.342   8.014 -0.6738 -0.4712 -0.7517
 8662SOL     OW30923   7.239   6.838   8.419  0.3702 -0.3105 -0.5541
 8662SOL    HW130924   7.334   6.853   8.423  0.0678  1.6210  0.1901
 8662SOL    HW230925   7.208   6.896   8.350 -0.3758 -0.3886 -0.2931
 8663SOL     OW30926   6.762   8.188  11.594 -0.3215  0.3958  0.1804
 8663SOL    HW130927   6.789   8.244  11.666 -0.3144  0.9439 -0.2403
 8663SOL    HW230928   6.678   8.151  11.621  0.5379 -0.8491  1.2451
 8664SOL     OW30929   7.099   7.527   8.497 -0.6521 -0.4179  0.2579
 8664SOL    HW130930   7.168   7.568   8.550 -0.9799 -1.7086  1.7367
 8664SOL    HW230931   7.039   7.489   8.561 -2.1106 -0.3616 -1.0337
 8665SOL     OW30932   8.578  11.325   5.161 -0.1000  0.3489  0.6057
 8665SOL    HW130933   8.575  11.242   5.209 -0.5249  0.1926  0.3125
 8665SOL    HW230934   8.492  11.333   5.121  0.0797  0.7308  0.2898
 8666SOL     OW30935  11.266   9.944   1.491  0.0056 -0.7402  0.6080
 8666SOL    HW130936  11.308   9.863   1.464  1.6717 -0.4415  2.1001
 8666SOL    HW230937  11.211   9.919   1.565 -0.9229 -0.7957 -0.0899
 8667SOL     OW30938   6.677   2.906   1.436  0.5985  0.4100 -0.1257
 8667SOL    HW130939   6.741   2.835   1.442  0.8701  0.7211  0.8451
 8667SOL    HW230940   6.702   2.953   1.356  1.6436  0.5740  0.2773
 8668SOL     OW30941   5.679   2.575   4.260 -0.0772 -0.1886 -0.1905
 8668SOL    HW130942   5.597   2.527   4.245  0.0308 -1.3385  2.4848
 8668SOL    HW230943   5.652   2.653   4.308  0.3721 -0.5161  0.6003
 8669SOL     OW30944   9.462   3.831   7.324 -0.0342 -0.7535 -0.4301
 8669SOL    HW130945   9.388   3.780   7.356 -0.5266  0.8424  1.0786
 8669SOL    HW230946   9.527   3.825   7.393 -0.7305  1.9200  0.5628
 8670SOL     OW30947   1.739  11.443   9.408  0.1056 -0.1118 -0.4534
 8670SOL    HW130948   1.828  11.443   9.443  1.2988 -1.4280 -3.1364
 8670SOL    HW230949   1.712  11.534   9.410  1.7094  0.3857 -0.0042
 8671SOL     OW30950   7.809   1.517   9.497  0.2035  0.5970  0.5327
 8671SOL    HW130951   7.852   1.513   9.582  1.2001  0.7681  0.0538
 8671SOL    HW230952   7.819   1.608   9.469 -2.8014  1.3456  1.5531
 8672SOL     OW30953   1.118   8.121   5.801 -0.2238  0.5262 -0.1721
 8672SOL    HW130954   1.125   8.164   5.715  1.5883  1.9614  0.6292
 8672SOL    HW230955   1.149   8.187   5.863  2.6214 -1.8563  1.1608
 8673SOL     OW30956   8.948   4.109   0.808 -0.2504 -0.0721 -0.3203
 8673SOL    HW130957   8.998   4.118   0.727  0.8946 -0.5993  0.3038
 8673SOL    HW230958   8.922   4.017   0.810 -2.9378  0.5674 -1.5595
 8674SOL     OW30959   2.228   0.773   5.094 -0.0935  0.0909 -0.1587
 8674SOL    HW130960   2.266   0.755   5.181 -1.8185 -0.2859  0.5487
 8674SOL    HW230961   2.192   0.861   5.102 -1.9537 -0.6512  0.1758
 8675SOL     OW30962  11.615   9.812   7.940  0.4414 -0.2468  0.1640
 8675SOL    HW130963  11.583   9.893   7.980 -0.2844  0.0446 -0.9583
 8675SOL    HW230964  11.585   9.743   7.999  0.5886  0.2634  0.8454
 8676SOL     OW30965   4.667   9.032   4.215 -0.0893 -0.0198 -0.4691
 8676SOL    HW130966   4.725   9.010   4.288  0.7009  0.5738 -0.8924
 8676SOL    HW230967   4.603   9.092   4.253 -0.4222 -0.6709  0.0045
 8677SOL     OW30968   5.985   1.569   2.205 -0.2784 -0.0132  0.3567
 8677SOL    HW130969   5.942   1.588   2.121  0.5475 -1.3029 -0.3827
 8677SOL    HW230970   6.034   1.649   2.225 -2.4942  1.2925  0.9407
 8678SOL     OW30971   3.828  11.135   4.170 -0.4072  0.5009 -0.8455
 8678SOL    HW130972   3.908  11.104   4.127  0.2433  0.8720  0.0430
 8678SOL    HW230973   3.859  11.170   4.254 -1.6624 -0.5224  0.0842
 8679SOL     OW30974   4.393   1.996   6.674 -0.0113 -0.1674 -0.2776
 8679SOL    HW130975   4.312   1.961   6.637  1.1541 -3.9209  0.3879
 8679SOL    HW230976   4.369   2.024   6.762 -1.0503  1.2269 -0.9557
 8680SOL     OW30977   8.164   1.779  10.433  0.6550  0.3561 -0.0424
 8680SOL    HW130978   8.079   1.822  10.422  0.4191  0.1898  1.0369
 8680SOL    HW230979   8.143   1.689  10.456  1.0708  0.7182  1.9244
 8681SOL     OW30980   2.141   5.785  11.603 -0.0373  0.6245 -0.5398
 8681SOL    HW130981   2.199   5.714  11.630  0.7850  1.6980  0.6658
 8681SOL    HW230982   2.112   5.825  11.685  1.6290  3.2972 -1.0984
 8682SOL     OW30983   3.865   2.042   8.501 -0.1538 -0.5657  0.3401
 8682SOL    HW130984   3.840   1.960   8.459 -0.0048  1.1695 -3.5836
 8682SOL    HW230985   3.784   2.093   8.506 -0.0256 -0.4602  1.5958
 8683SOL     OW30986   4.349   6.955   9.761  0.3128  0.1926  0.5887
 8683SOL    HW130987   4.308   6.929   9.678 -0.5348  0.0329  1.0432
 8683SOL    HW230988   4.438   6.921   9.755  0.7929  1.5923 -0.9372
 8684SOL     OW30989   7.606   0.511   2.275 -0.0900 -0.1622 -0.4775
 8684SOL    HW130990   7.648   0.440   2.227  2.5251  1.7822 -1.2712
 8684SOL    HW230991   7.596   0.581   2.210 -2.0003  0.5028  0.4443
 8685SOL     OW30992   5.242   4.792   4.427 -0.2684  0.1626  0.0076
 8685SOL    HW130993   5.166   4.814   4.373 -0.7029  0.5817  0.7691
 8685SOL    HW230994   5.304   4.863   4.410 -1.0595  1.2202  1.2849
 8686SOL     OW30995   4.311  11.597   8.080  0.0202  1.0781 -0.2957
 8686SOL    HW130996   4.305  11.527   8.014 -0.9114 -0.9113  1.7637
 8686SOL    HW230997   4.222  11.629   8.090  0.3168  2.0605 -0.6370
 8687SOL     OW30998   9.218   6.801   7.609  0.0386  0.2425  0.6791
 8687SOL    HW130999   9.224   6.848   7.692  0.2194  0.1610  0.7129
 8687SOL    HW231000   9.236   6.867   7.542 -0.4082  0.3749  0.6867
 8688SOL     OW31001   5.326   1.748   3.779  0.4531 -0.1701  0.4896
 8688SOL    HW131002   5.342   1.789   3.864 -1.1534 -0.0369  0.7651
 8688SOL    HW231003   5.250   1.794   3.744  0.6353 -0.7262 -0.6912
 8689SOL     OW31004   9.472   3.506  10.342 -0.3302 -0.0581  0.5708
 8689SOL    HW131005   9.465   3.600  10.326  0.6259 -0.1688 -0.5992
 8689SOL    HW231006   9.538   3.498  10.411  0.3986  0.0746 -0.1075
 8690SOL     OW31007   4.225   7.095   5.931 -0.2566 -0.1926 -0.0774
 8690SOL    HW131008   4.158   7.112   5.865 -0.5701 -0.5880  0.1359
 8690SOL    HW231009   4.232   7.176   5.981 -1.3916 -0.5122  0.6260
 8691SOL     OW31010   5.825   0.408   6.835  0.4466 -0.3019  0.1756
 8691SOL    HW131011   5.825   0.392   6.741  0.0464 -2.8823  0.5559
 8691SOL    HW231012   5.912   0.444   6.854  0.7549 -0.3709 -1.0676
 8692SOL     OW31013   3.665   3.366   1.037  0.0956  0.4489 -0.5558
 8692SOL    HW131014   3.691   3.286   0.991 -0.0691  1.1320 -1.8940
 8692SOL    HW231015   3.594   3.402   0.983 -0.7469  0.8127  0.7533
 8693SOL     OW31016   4.140  11.156  10.792  0.1579  0.6622 -0.3444
 8693SOL    HW131017   4.152  11.218  10.863 -2.4652 -0.7902  1.5378
 8693SOL    HW231018   4.143  11.070  10.834 -2.2581 -0.2339 -1.8167
 8694SOL     OW31019   1.453   3.551   7.980  0.3831  0.1766  0.4015
 8694SOL    HW131020   1.436   3.526   7.890 -1.4081 -0.8984  0.9832
 8694SOL    HW231021   1.548   3.561   7.985  0.6453 -1.1140 -1.2507
 8695SOL     OW31022   4.929   2.432  10.887 -0.8201  0.1835  0.6203
 8695SOL    HW131023   4.939   2.524  10.862 -2.0634  0.0488 -0.5063
 8695SOL    HW231024   5.002   2.388  10.844  0.3621  0.7475  1.9693
 8696SOL     OW31025   4.903   4.298   9.941 -0.5730  0.2290 -0.4698
 8696SOL    HW131026   4.907   4.302  10.036 -1.0241  1.9542 -0.4857
 8696SOL    HW231027   4.818   4.258   9.923 -0.5476  0.0228 -0.1359
 8697SOL     OW31028   3.577   4.337   8.081 -0.1872 -0.3113  0.2159
 8697SOL    HW131029   3.637   4.263   8.085 -0.0586 -0.4130 -2.1028
 8697SOL    HW231030   3.509   4.309   8.020  0.1560  1.6353 -1.1569
 8698SOL     OW31031   7.641  10.989   5.573  0.2359 -0.3194  0.9368
 8698SOL    HW131032   7.609  10.918   5.518 -0.6659  0.8225 -0.0669
 8698SOL    HW231033   7.612  11.069   5.529  3.8711  0.8427  0.3294
 8699SOL     OW31034   6.909   2.129   8.557  1.0175 -0.3422 -0.2657
 8699SOL    HW131035   6.867   2.168   8.480  0.0929 -0.2736  0.2626
 8699SOL    HW231036   7.001   2.151   8.547  0.7560  0.5537 -0.8342
 8700SOL     OW31037  10.862   9.458  11.305 -0.3868  0.2097  0.4423
 8700SOL    HW131038  10.925   9.529  11.301  1.0068 -1.0083 -0.0384
 8700SOL    HW231039  10.802   9.483  11.376 -0.6236  2.3651 -0.4508
 8701SOL     OW31040   4.347   7.697  10.756 -0.1136 -0.0027  0.0964
 8701SOL    HW131041   4.302   7.758  10.814 -1.2003 -0.5647 -0.1381
 8701SOL    HW231042   4.434   7.686  10.796 -0.2318  0.9544  0.6508
 8702SOL     OW31043   8.439   7.758   7.915 -0.2218 -0.4015  0.1265
 8702SOL    HW131044   8.495   7.832   7.938  1.0548 -1.5964  0.9820
 8702SOL    HW231045   8.369   7.797   7.862  0.0737  1.5011  1.0526
 8703SOL     OW31046   8.387   1.317   5.784 -0.7992 -0.3504  0.1123
 8703SOL    HW131047   8.310   1.283   5.737 -0.7309  0.0165 -0.2700
 8703SOL    HW231048   8.375   1.412   5.784  1.3269  0.0795 -3.0404
 8704SOL     OW31049  11.270   2.901  10.767 -0.4572  0.0719  0.5428
 8704SOL    HW131050  11.342   2.948  10.808 -0.2585 -0.5201  0.8904
 8704SOL    HW231051  11.306   2.865  10.686 -0.0219 -1.1496  1.2434
 8705SOL     OW31052  11.368   7.253   5.340  0.5325  0.3075 -0.1908
 8705SOL    HW131053  11.363   7.164   5.305 -0.7092  0.4753 -0.4820
 8705SOL    HW231054  11.379   7.309   5.263 -1.0372  0.5781 -0.2611
 8706SOL     OW31055   2.800   6.410  11.014 -0.1576 -0.4796  0.4222
 8706SOL    HW131056   2.752   6.456  10.945  0.3608 -0.6982 -0.0946
 8706SOL    HW231057   2.843   6.480  11.063  0.3669 -0.3788 -0.1652
 8707SOL     OW31058   5.374   8.734  10.841 -0.1156 -0.3153  0.0270
 8707SOL    HW131059   5.438   8.758  10.908 -0.6652 -1.0916  0.8630
 8707SOL    HW231060   5.397   8.644  10.818 -0.1250 -0.1602 -0.5948
 8708SOL     OW31061   7.459   4.405   9.164  0.5095  0.3115 -0.2481
 8708SOL    HW131062   7.421   4.380   9.079 -1.8082  0.8437  0.5582
 8708SOL    HW231063   7.453   4.325   9.216  0.3855  0.4217 -0.0911
 8709SOL     OW31064   8.462   8.813   3.115  0.3356  0.2338  0.6355
 8709SOL    HW131065   8.434   8.856   3.034  1.2157  0.9799  0.7085
 8709SOL    HW231066   8.473   8.884   3.177 -0.4799 -0.3487  1.4794
 8710SOL     OW31067   2.749  10.636   1.267  0.1378 -0.8854  0.0400
 8710SOL    HW131068   2.748  10.712   1.209  0.5175 -0.1895  0.9251
 8710SOL    HW231069   2.797  10.569   1.218 -1.2340 -0.9866 -1.2384
 8711SOL     OW31070   0.641   6.835   0.820  0.0602  0.6415 -0.2993
 8711SOL    HW131071   0.580   6.909   0.816  0.9292  1.4074  0.2275
 8711SOL    HW231072   0.714   6.867   0.873 -0.4652 -1.2986  1.7229
 8712SOL     OW31073  10.707   7.775  10.046  0.1007 -0.3818 -0.5359
 8712SOL    HW131074  10.771   7.846  10.054  0.5136 -0.8549  0.5476
 8712SOL    HW231075  10.760   7.696  10.031 -0.0085 -1.1225  2.3731
 8713SOL     OW31076   0.512   0.122   7.281 -0.5592 -0.2501  0.4037
 8713SOL    HW131077   0.513   0.186   7.210  0.3621  0.7128  1.2588
 8713SOL    HW231078   0.589   0.068   7.266  0.9036  1.3226  1.8332
 8714SOL     OW31079  11.510   3.558   9.444  0.5476  0.2238 -0.2378
 8714SOL    HW131080  11.594   3.537   9.403  1.3269 -1.7850  2.1055
 8714SOL    HW231081  11.524   3.643   9.486  1.1525  0.2659 -0.5248
 8715SOL     OW31082   6.546  10.963   0.244  0.5994 -0.2093 -0.1429
 8715SOL    HW131083   6.555  11.010   0.327 -0.9105  1.2277 -0.7493
 8715SOL    HW231084   6.512  10.877   0.269  1.9148 -0.4893  0.8483
 8716SOL     OW31085   5.367   4.621   6.764  0.0645 -0.3228 -0.2236
 8716SOL    HW131086   5.371   4.702   6.816  0.9860 -0.8845  0.6278
 8716SOL    HW231087   5.397   4.646   6.677 -1.3541  0.6118 -0.4641
 8717SOL     OW31088   5.255   3.194   4.901 -0.0086 -0.2650 -0.3004
 8717SOL    HW131089   5.194   3.234   4.839  1.2870 -0.4536 -1.7243
 8717SOL    HW231090   5.259   3.257   4.973 -2.2178 -0.4631  0.0692
 8718SOL     OW31091   9.619   6.730   6.691  0.4871  0.4955 -0.1102
 8718SOL    HW131092   9.614   6.722   6.786  2.1638  0.3788 -0.0176
 8718SOL    HW231093   9.528   6.744   6.664 -0.5824 -2.8293  1.2000
 8719SOL     OW31094   4.859   9.748   9.895 -0.0058  0.0365 -0.2164
 8719SOL    HW131095   4.944   9.787   9.877  0.7226 -1.2248  0.3434
 8719SOL    HW231096   4.864   9.720   9.986 -0.5073 -1.2670 -0.5628
 8720SOL     OW31097   5.279   2.646   5.137 -0.3705 -0.6700 -0.1142
 8720SOL    HW131098   5.358   2.619   5.090 -0.5337 -3.3479  1.0053
 8720SOL    HW231099   5.307   2.658   5.227 -1.2752 -2.1799  0.4083
 8721SOL     OW31100  10.163   4.007   4.989  0.2076 -0.4546  0.1344
 8721SOL    HW131101  10.252   3.996   4.956 -0.3714 -1.1751 -1.2644
 8721SOL    HW231102  10.140   3.922   5.026  0.2952 -0.0927  1.0623
 8722SOL     OW31103   4.693   5.073   9.807  0.6592  0.0262 -0.0647
 8722SOL    HW131104   4.620   5.019   9.778 -2.0573  3.2702  0.0693
 8722SOL    HW231105   4.678   5.087   9.900  1.9222  0.1339  0.1472
 8723SOL     OW31106   6.702   3.898   7.941 -0.0450 -0.2758  0.0695
 8723SOL    HW131107   6.666   3.986   7.954 -0.3366 -0.1938 -1.2016
 8723SOL    HW231108   6.796   3.912   7.934 -0.2052  0.1278 -1.5456
 8724SOL     OW31109   6.263  10.232   0.627  0.0338 -0.3211  0.4318
 8724SOL    HW131110   6.222  10.318   0.616  0.9542 -0.0663 -1.4359
 8724SOL    HW231111   6.305  10.236   0.713 -0.5203  0.8476  0.6689
 8725SOL     OW31112   9.769   4.697   0.654  0.2201  0.0702  0.0877
 8725SOL    HW131113   9.680   4.717   0.626 -0.6242 -0.1865  2.4281
 8725SOL    HW231114   9.804   4.780   0.686  0.6270  0.0506 -0.2928
 8726SOL     OW31115   8.852   9.969   6.239 -0.0603 -0.2766 -0.0963
 8726SOL    HW131116   8.890  10.054   6.259 -1.5591  0.0336  1.7172
 8726SOL    HW231117   8.897   9.940   6.160  1.5458  1.5088  0.1067
 8727SOL     OW31118   8.766   9.561   5.933  0.0480  0.8313 -0.1624
 8727SOL    HW131119   8.860   9.576   5.923 -0.0053  2.4783  1.2638
 8727SOL    HW231120   8.743   9.504   5.860  1.8329  1.7914 -1.5747
 8728SOL     OW31121   1.367   8.075   3.600 -0.0493  0.0695  0.0927
 8728SOL    HW131122   1.408   8.107   3.680  1.3182  0.2874 -0.6674
 8728SOL    HW231123   1.439   8.068   3.537 -0.9566 -0.8925 -0.8753
 8729SOL     OW31124   4.191   3.806   0.169  0.5301 -0.2748  0.2299
 8729SOL    HW131125   4.240   3.805   0.252 -0.1863  0.9539  0.6935
 8729SOL    HW231126   4.205   3.894   0.134 -2.6198  0.7670  1.2210
 8730SOL     OW31127   9.955   4.961   4.548 -0.2340  0.1811  0.4480
 8730SOL    HW131128  10.048   4.952   4.569 -0.3199  1.9249  1.7825
 8730SOL    HW231129   9.952   4.959   4.452  1.0393 -0.8800  0.3969
 8731SOL     OW31130   9.493   4.172   8.894  0.0879 -0.0420  0.9990
 8731SOL    HW131131   9.523   4.262   8.877  0.2895 -0.1518  0.7805
 8731SOL    HW231132   9.457   4.142   8.811  0.9775 -0.5379  0.7786
 8732SOL     OW31133   6.594   8.275   0.792 -0.4917 -0.1263 -0.2728
 8732SOL    HW131134   6.622   8.330   0.719 -2.7911 -1.1771 -2.0781
 8732SOL    HW231135   6.640   8.193   0.779  0.5518  0.2868  0.6248
 8733SOL     OW31136   6.006  10.434   1.968  0.4975 -0.0061 -0.0522
 8733SOL    HW131137   6.090  10.466   1.935  0.5468  0.1887  0.2608
 8733SOL    HW231138   5.957  10.514   1.989  0.3472 -0.1258  0.0511
 8734SOL     OW31139   4.889   6.416   4.810 -0.1639 -0.5745  0.1446
 8734SOL    HW131140   4.832   6.479   4.853  0.4517  0.0324  0.0815
 8734SOL    HW231141   4.848   6.331   4.827 -1.0718 -0.1517  0.1166
 8735SOL     OW31142   5.246   2.128   6.299  0.3482  0.7022 -0.2112
 8735SOL    HW131143   5.191   2.116   6.377  1.1896 -1.8324  0.0947
 8735SOL    HW231144   5.321   2.178   6.330  0.5587 -0.0787  0.5864
 8736SOL     OW31145   6.877   2.036   5.023 -0.1359  0.4723  0.6306
 8736SOL    HW131146   6.950   2.097   5.011  2.2389 -2.0172  1.4270
 8736SOL    HW231147   6.838   2.061   5.106 -0.2353  1.8150  0.2095
 8737SOL     OW31148   5.643   4.756   1.729  0.1361  0.3848 -1.0292
 8737SOL    HW131149   5.616   4.726   1.643  0.0679  0.1268 -0.9189
 8737SOL    HW231150   5.603   4.694   1.790 -0.1373  0.7944 -0.7902
 8738SOL     OW31151   1.065   1.708   2.584  0.0790  0.1488  0.0605
 8738SOL    HW131152   1.034   1.633   2.534 -0.8826 -0.6685  1.8054
 8738SOL    HW231153   1.060   1.681   2.675  0.4254  2.0780  0.7148
 8739SOL     OW31154  10.175   8.255   9.222  0.2920  0.1383  0.2707
 8739SOL    HW131155  10.253   8.219   9.179  1.0433  0.3646  1.3850
 8739SOL    HW231156  10.136   8.180   9.267 -0.6038 -0.1382 -0.9469
 8740SOL     OW31157   7.544   1.310  10.390 -0.3578 -0.5117 -0.1588
 8740SOL    HW131158   7.541   1.235  10.450 -1.1486 -1.3428 -1.1910
 8740SOL    HW231159   7.453   1.339  10.384 -0.1137  0.2717 -0.0886
 8741SOL     OW31160  11.545   0.073   2.998 -0.0288  0.2751 -0.1363
 8741SOL    HW131161  11.570  -0.002   2.944  1.3306  2.2734 -2.4961
 8741SOL    HW231162  11.605   0.069   3.072  0.3791 -0.6620 -0.4920
 8742SOL     OW31163   2.494   9.133   2.162 -0.0405  0.2802 -0.1115
 8742SOL    HW131164   2.516   9.051   2.118 -0.3330  0.0178  0.2198
 8742SOL    HW231165   2.428   9.174   2.106 -1.9540 -1.0203  1.0379
 8743SOL     OW31166   8.717   4.494   0.366  0.0793 -1.2118  0.0467
 8743SOL    HW131167   8.731   4.472   0.458  0.6376  0.1029  0.2874
 8743SOL    HW231168   8.698   4.409   0.325 -1.9484 -1.6187  1.6558
 8744SOL     OW31169  10.789   7.430   2.694  0.0416  0.0566 -0.0194
 8744SOL    HW131170  10.763   7.467   2.610  0.3806  0.5062  0.0707
 8744SOL    HW231171  10.870   7.475   2.716 -0.8699  1.1193  1.3081
 8745SOL     OW31172   4.597   9.682   9.430  0.1041 -0.0899  0.1263
 8745SOL    HW131173   4.563   9.768   9.454 -0.1919 -0.0917 -0.2720
 8745SOL    HW231174   4.598   9.633   9.513 -1.8512 -0.4219  0.0151
 8746SOL     OW31175   2.699   1.477   2.485  0.4949 -0.3410 -0.2655
 8746SOL    HW131176   2.681   1.471   2.579  1.1567 -0.3884 -0.1354
 8746SOL    HW231177   2.674   1.566   2.461 -1.5811 -0.9378 -0.4730
 8747SOL     OW31178   2.254   7.210  11.112 -0.5844 -0.8442 -0.3713
 8747SOL    HW131179   2.252   7.306  11.109 -0.7933 -0.8646 -1.5133
 8747SOL    HW231180   2.193   7.188  11.183  1.4190 -0.1095  1.6961
 8748SOL     OW31181   4.593   7.950   0.333  0.7748  0.2385  0.6072
 8748SOL    HW131182   4.637   7.869   0.359  0.8900 -0.2923 -1.1398
 8748SOL    HW231183   4.657   8.019   0.352  0.9666 -0.1483  1.3986
 8749SOL     OW31184   4.570   2.278   0.081  0.2385 -0.3212 -0.0721
 8749SOL    HW131185   4.575   2.260   0.175 -1.1024  1.1654  0.3383
 8749SOL    HW231186   4.480   2.254   0.056  1.1183 -2.4498 -1.4239
 8750SOL     OW31187   2.868  11.452   0.759 -0.2092  0.4133  1.1841
 8750SOL    HW131188   2.779  11.425   0.784 -0.8288  2.5481  1.4905
 8750SOL    HW231189   2.923  11.426   0.833 -0.5898 -0.7565  1.0765
 8751SOL     OW31190   4.257   4.828   9.335  0.2778 -0.8069 -0.2044
 8751SOL    HW131191   4.347   4.794   9.341 -0.1877 -2.1983 -0.7942
 8751SOL    HW231192   4.202   4.753   9.353 -0.7902  0.1721  0.7688
 8752SOL     OW31193   3.387   9.902  11.543  0.0985 -0.6349 -0.1825
 8752SOL    HW131194   3.336   9.852  11.607  1.0419 -1.0306  0.2947
 8752SOL    HW231195   3.381   9.852  11.462  0.5542 -1.2160  0.1387
 8753SOL     OW31196   2.708   2.828   9.252  0.7805 -0.1393  0.2683
 8753SOL    HW131197   2.690   2.769   9.325 -0.6957  0.1439  0.1674
 8753SOL    HW231198   2.689   2.915   9.287  0.7547  0.0618 -0.2404
 8754SOL     OW31199   1.958   6.709   2.049  0.2318  0.3044  0.2655
 8754SOL    HW131200   1.872   6.689   2.014 -0.4186  1.3716  1.1760
 8754SOL    HW231201   2.014   6.718   1.971 -0.6990  0.5780 -0.3946
 8755SOL     OW31202   7.634   5.003   6.017  0.0368 -0.1989  0.0427
 8755SOL    HW131203   7.658   4.927   6.071 -2.7706 -1.0869  0.2275
 8755SOL    HW231204   7.553   5.036   6.057 -0.5930  0.8645 -1.9545
 8756SOL     OW31205   5.359   3.720   9.002  0.2006 -0.0013  0.1030
 8756SOL    HW131206   5.298   3.721   8.929 -0.6564 -2.9567  0.6910
 8756SOL    HW231207   5.335   3.644   9.055  3.6099 -0.6304  1.0286
 8757SOL     OW31208   1.460   3.893   9.574  0.1784  0.2790  0.1628
 8757SOL    HW131209   1.554   3.875   9.570  0.1764  0.3819 -0.4710
 8757SOL    HW231210   1.436   3.913   9.483 -0.4987  0.0306  0.2829
 8758SOL     OW31211  11.278   8.552   4.697 -0.0521  0.0065 -0.0557
 8758SOL    HW131212  11.313   8.500   4.625  0.8730  0.6673 -0.1070
 8758SOL    HW231213  11.319   8.515   4.775 -0.0646  0.1012 -0.0049
 8759SOL     OW31214  10.368   4.921   1.137 -0.3726  0.0763  0.0024
 8759SOL    HW131215  10.457   4.885   1.143 -0.1430  0.6744  0.3010
 8759SOL    HW231216  10.313   4.856   1.180  0.4930  1.5809  3.8238
 8760SOL     OW31217   6.430   1.819   3.083  0.4410  0.0226 -0.3656
 8760SOL    HW131218   6.459   1.817   3.174  1.2294 -1.4109 -0.6111
 8760SOL    HW231219   6.440   1.728   3.053  1.0527  0.6224 -2.1309
 8761SOL     OW31220   5.843   9.343   0.668  0.1885 -0.0784  0.0083
 8761SOL    HW131221   5.930   9.306   0.687  0.0623 -0.2125  0.3207
 8761SOL    HW231222   5.787   9.266   0.658 -0.2453  0.0340  1.4427
 8762SOL     OW31223   4.237   8.859  11.064  0.1500 -0.4917 -0.1136
 8762SOL    HW131224   4.182   8.878  10.988  1.2871 -0.1612 -0.8928
 8762SOL    HW231225   4.247   8.944  11.108  1.0742 -0.2753 -0.7122
 8763SOL     OW31226  10.741  11.615   6.778 -0.3231 -0.0330 -0.2264
 8763SOL    HW131227  10.707  11.535   6.816  0.8568 -0.1142  0.7275
 8763SOL    HW231228  10.813  11.640   6.835  1.7160 -0.2831 -2.5093
 8764SOL     OW31229   3.706   6.416   7.894 -0.0776  0.4071 -0.5735
 8764SOL    HW131230   3.625   6.428   7.844  0.1827  0.1304 -1.0692
 8764SOL    HW231231   3.750   6.501   7.890  0.0055  0.3487 -0.9339
 8765SOL     OW31232   4.977  10.464   2.144 -0.1284 -1.0023  0.0440
 8765SOL    HW131233   4.898  10.512   2.120 -0.1859 -1.2393 -0.2557
 8765SOL    HW231234   4.979  10.466   2.239 -1.0114 -1.8069  0.0977
 8766SOL     OW31235   9.611   2.662   6.680  0.2608 -0.8015  0.1596
 8766SOL    HW131236   9.620   2.581   6.629 -1.2319 -0.6427 -0.4102
 8766SOL    HW231237   9.608   2.632   6.771 -1.3208 -1.5295 -0.0959
 8767SOL     OW31238  10.084   5.038   3.533 -0.1664  0.0420  0.6467
 8767SOL    HW131239  10.133   5.117   3.555 -0.9525  0.8586 -0.4413
 8767SOL    HW231240   9.998   5.051   3.575 -0.1809 -0.3992  0.7574
 8768SOL     OW31241   7.893   4.274   1.801  0.0356 -0.1877  0.4677
 8768SOL    HW131242   7.839   4.315   1.734  1.2242 -0.1363 -0.4856
 8768SOL    HW231243   7.833   4.214   1.846 -0.1452 -2.7515 -2.7811
 8769SOL     OW31244   1.190   7.353   2.365  0.4305 -0.1914  0.3826
 8769SOL    HW131245   1.262   7.292   2.377 -0.4640 -1.5758 -0.9298
 8769SOL    HW231246   1.113   7.306   2.395 -0.0430  1.0281  1.1607
 8770SOL     OW31247   6.427   5.252   8.256  0.2072 -0.4370 -0.4028
 8770SOL    HW131248   6.453   5.342   8.276 -0.9556 -0.3606  0.8523
 8770SOL    HW231249   6.397   5.255   8.165 -1.6416  0.8864  0.2017
 8771SOL     OW31250  10.335   6.725   2.627  0.1072  0.2981 -0.2056
 8771SOL    HW131251  10.319   6.819   2.619 -1.0143  0.3447  1.8961
 8771SOL    HW231252  10.416   6.719   2.677  0.7525  0.1180 -1.2511
 8772SOL     OW31253   1.123   4.005   3.852  0.1791 -0.2743  0.3338
 8772SOL    HW131254   1.175   4.063   3.797  1.8889 -1.7330  0.3123
 8772SOL    HW231255   1.084   4.062   3.918  1.1061  0.9933 -0.1808
 8773SOL     OW31256   7.445   7.512   4.529  0.2508  0.4201  0.5622
 8773SOL    HW131257   7.437   7.517   4.434 -0.8695 -0.9568  0.5508
 8773SOL    HW231258   7.473   7.600   4.555 -0.9447  1.2833 -0.8944
 8774SOL     OW31259   0.989   6.243   5.114  0.3794 -0.3785  0.5830
 8774SOL    HW131260   1.063   6.191   5.144 -0.3775 -3.0389 -1.7066
 8774SOL    HW231261   0.912   6.202   5.154 -0.1463 -0.2497 -0.2661
 8775SOL     OW31262  11.379   8.341   7.861 -0.1554 -0.0955 -0.6280
 8775SOL    HW131263  11.358   8.431   7.885  0.6861 -0.5730  2.3378
 8775SOL    HW231264  11.433   8.349   7.782 -0.4367  1.9473 -0.6644
 8776SOL     OW31265   4.045   5.619  10.768  0.7614 -0.4216  0.1893
 8776SOL    HW131266   4.135   5.597  10.792  0.0590 -2.2717  1.3074
 8776SOL    HW231267   3.996   5.615  10.850 -0.5002 -0.3193 -0.5306
 8777SOL     OW31268   0.597   0.112   1.287  0.2997 -0.6591  0.2122
 8777SOL    HW131269   0.630   0.195   1.324 -0.2336  0.1320 -1.0283
 8777SOL    HW231270   0.623   0.115   1.195  2.1278 -2.8741  0.5915
 8778SOL     OW31271   6.840   0.784   7.524  0.1729 -0.4750  0.2417
 8778SOL    HW131272   6.866   0.860   7.472  0.9451 -1.2683 -0.5762
 8778SOL    HW231273   6.867   0.806   7.613 -1.1283  0.8936  0.3374
 8779SOL     OW31274   0.971   7.712   5.014 -0.0525  0.7290  0.5631
 8779SOL    HW131275   0.940   7.718   4.924  2.4189  0.9351 -0.3338
 8779SOL    HW231276   0.963   7.801   5.048 -2.7758  0.3204  1.2820
 8780SOL     OW31277   1.310   4.322   9.901 -0.0511 -0.0646  0.1703
 8780SOL    HW131278   1.235   4.264   9.890  0.1845 -0.3183 -0.1411
 8780SOL    HW231279   1.383   4.263   9.923  0.7112 -0.1838 -2.3741
 8781SOL     OW31280   1.070   0.535   5.254 -0.3184 -0.4372  0.1646
 8781SOL    HW131281   1.111   0.453   5.226 -0.4499 -1.3128  2.3658
 8781SOL    HW231282   1.000   0.549   5.190  1.6781 -0.2911 -2.1347
 8782SOL     OW31283   5.024   1.331   1.853  0.1521 -0.2102 -0.1085
 8782SOL    HW131284   4.985   1.244   1.870  2.6156 -1.4042 -0.1482
 8782SOL    HW231285   5.112   1.312   1.821  0.8036  2.3390 -0.0307
 8783SOL     OW31286  11.580   4.037   5.855  0.4976 -0.0656 -0.2227
 8783SOL    HW131287  11.549   4.120   5.820  0.0554  0.4745  1.3530
 8783SOL    HW231288  11.671   4.054   5.881  0.4575 -0.1267 -0.0444
 8784SOL     OW31289   4.942   2.635  10.245 -0.2128 -0.1875  0.8468
 8784SOL    HW131290   4.940   2.700  10.315  1.0043 -0.8056  1.4827
 8784SOL    HW231291   4.935   2.551  10.290  0.3740 -0.5866  0.2173
 8785SOL     OW31292  10.174   5.783   4.924 -0.0318 -0.1782  0.2170
 8785SOL    HW131293  10.129   5.856   4.881 -1.2568 -1.3038 -0.4826
 8785SOL    HW231294  10.263   5.786   4.888 -0.3517  0.3702 -0.5793
 8786SOL     OW31295   4.721  10.687   7.448  0.3556  0.6326  0.0315
 8786SOL    HW131296   4.771  10.624   7.397 -0.5913  0.1699 -0.3527
 8786SOL    HW231297   4.704  10.643   7.532  0.4649  0.7337  0.1070
 8787SOL     OW31298   6.572   1.633   1.717 -0.2013 -0.0323  0.1332
 8787SOL    HW131299   6.603   1.561   1.663  1.0885 -0.2725  1.1614
 8787SOL    HW231300   6.549   1.593   1.800 -0.7039  0.5718  0.2989
 8788SOL     OW31301   6.619   6.762   2.044  0.2578  0.7678 -0.5513
 8788SOL    HW131302   6.661   6.723   2.120  2.7061  0.0479 -2.1495
 8788SOL    HW231303   6.670   6.842   2.027  1.2817 -0.2613 -2.7067
 8789SOL     OW31304   6.396   8.570  11.127 -0.5226 -0.1056 -0.2213
 8789SOL    HW131305   6.490   8.560  11.146 -0.0027  3.0489 -0.5769
 8789SOL    HW231306   6.391   8.576  11.032 -0.8788  0.9003 -0.1556
 8790SOL     OW31307   5.392   1.699   4.414 -0.3678 -0.1237  0.5967
 8790SOL    HW131308   5.370   1.614   4.452  1.0502 -0.3357  1.0046
 8790SOL    HW231309   5.368   1.692   4.322  0.5838 -1.2906  0.4269
 8791SOL     OW31310  11.348  10.896   4.259 -0.0723  0.2551  0.2566
 8791SOL    HW131311  11.405  10.970   4.238  2.2285 -0.8286  2.2698
 8791SOL    HW231312  11.282  10.898   4.190 -0.0215  4.0103  0.0864
 8792SOL     OW31313   6.567   4.476   2.653 -0.0975  0.2044  0.1032
 8792SOL    HW131314   6.479   4.485   2.617 -1.1941  1.0021  2.7616
 8792SOL    HW231315   6.592   4.564   2.680  0.9800 -0.2197  0.5759
 8793SOL     OW31316   1.433   9.196   1.142 -0.1227  0.0340 -0.1136
 8793SOL    HW131317   1.372   9.142   1.193 -0.4082  0.1366 -0.3383
 8793SOL    HW231318   1.395   9.198   1.054 -0.0681  0.5163 -0.1313
 8794SOL     OW31319   8.451   3.993   2.111  0.1758 -0.0125 -0.3264
 8794SOL    HW131320   8.390   3.996   2.038 -0.6539  0.8980  0.3790
 8794SOL    HW231321   8.494   3.908   2.104 -0.1601 -0.0875 -1.6433
 8795SOL     OW31322   9.215   2.047   7.172 -0.2473 -0.2158 -0.4807
 8795SOL    HW131323   9.227   2.139   7.149  1.2623 -1.0145 -3.2998
 8795SOL    HW231324   9.282   2.032   7.240  0.6880  0.3672 -1.2443
 8796SOL     OW31325   7.345   3.790   2.621 -0.5119  0.0004  0.1117
 8796SOL    HW131326   7.304   3.742   2.548  0.7626  0.5454 -1.0117
 8796SOL    HW231327   7.347   3.727   2.693  0.8537 -1.6091 -1.2384
 8797SOL     OW31328   6.155   1.633  10.569 -0.8215  0.1854 -0.7456
 8797SOL    HW131329   6.142   1.725  10.547  1.2992  0.7579  0.1943
 8797SOL    HW231330   6.233   1.607  10.519  0.6205 -0.1019  1.5270
 8798SOL     OW31331   1.944   7.306   6.083 -0.3004 -0.2330 -0.0622
 8798SOL    HW131332   2.027   7.350   6.101 -0.7538  0.5806  0.0898
 8798SOL    HW231333   1.889   7.326   6.159 -0.8167 -0.3134 -0.4059
 8799SOL     OW31334   4.632  11.504   1.334 -0.7695  0.1822 -0.4241
 8799SOL    HW131335   4.685  11.425   1.333 -1.6948 -0.4549  0.1392
 8799SOL    HW231336   4.629  11.531   1.242 -1.5342 -1.1840 -0.8242
 8800SOL     OW31337   7.485   1.955   4.761  0.4432  0.9318 -0.1574
 8800SOL    HW131338   7.530   1.909   4.691  1.0866  0.1367  0.7508
 8800SOL    HW231339   7.392   1.934   4.749  0.7941 -1.6158  0.8852
 8801SOL     OW31340   7.764   2.431   3.565  0.0896 -0.2185  0.1185
 8801SOL    HW131341   7.721   2.500   3.514  0.6939 -1.0397 -1.5676
 8801SOL    HW231342   7.738   2.449   3.656 -0.6645  1.5503 -0.4034
 8802SOL     OW31343  10.682   0.157   3.173 -0.0552 -0.0984  0.5743
 8802SOL    HW131344  10.729   0.181   3.253  0.7772  0.3528 -0.0348
 8802SOL    HW231345  10.590   0.151   3.200  0.2351 -0.1532  1.6003
 8803SOL     OW31346   6.153   9.138  10.574  0.0654 -0.5824  0.1446
 8803SOL    HW131347   6.234   9.181  10.547 -0.6347  0.3668 -0.4784
 8803SOL    HW231348   6.180   9.080  10.645  1.4899 -1.1485 -0.8009
 8804SOL     OW31349   5.529   1.683  10.166  0.5008  0.5667 -0.2951
 8804SOL    HW131350   5.449   1.707  10.120  0.9416  0.9446 -0.8810
 8804SOL    HW231351   5.506   1.690  10.259  0.3216  2.3646 -0.4224
 8805SOL     OW31352   3.649   8.992   0.817 -0.0344  0.0821  0.0957
 8805SOL    HW131353   3.651   9.088   0.823  0.5670  0.1797 -1.3226
 8805SOL    HW231354   3.695   8.962   0.895 -0.3519  0.9294  0.6331
 8806SOL     OW31355   2.588  11.029   0.976 -0.4520 -0.0916 -0.6981
 8806SOL    HW131356   2.527  11.095   1.009 -0.0996  0.4390 -1.0845
 8806SOL    HW231357   2.534  10.973   0.920 -0.8449 -0.4050 -0.0195
 8807SOL     OW31358   5.285  11.393   5.855  0.0449  0.4424  0.0743
 8807SOL    HW131359   5.273  11.319   5.914 -0.4022  0.2910 -0.1949
 8807SOL    HW231360   5.356  11.366   5.797  0.1990  0.4170  0.2749
 8808SOL     OW31361   6.570  11.609   5.777  0.4009  0.4174  0.0489
 8808SOL    HW131362   6.537  11.536   5.724 -0.0341 -0.4025  1.4008
 8808SOL    HW231363   6.654  11.631   5.738  0.5802 -0.8766 -0.3248
 8809SOL     OW31364   0.953   7.604   6.981  0.0527  0.0458 -0.1730
 8809SOL    HW131365   0.959   7.511   6.959  2.3637  0.4350 -1.5866
 8809SOL    HW231366   0.905   7.644   6.909 -1.3134 -0.0738  0.6424
 8810SOL     OW31367   2.528   9.139   7.231  0.2731  0.0185  0.1562
 8810SOL    HW131368   2.608   9.111   7.185  0.0653  2.6702 -2.1179
 8810SOL    HW231369   2.457   9.115   7.172 -0.2501  1.1630  0.2959
 8811SOL     OW31370   2.346  10.586   3.759  0.5261  0.9235 -0.3504
 8811SOL    HW131371   2.317  10.520   3.822 -0.6437  1.1522 -0.6138
 8811SOL    HW231372   2.440  10.595   3.775  0.6674 -0.6025 -0.1353
 8812SOL     OW31373   0.010  10.828  10.089  0.0569  0.4698  0.4894
 8812SOL    HW131374   0.079  10.885  10.055  2.5953 -1.8698  1.3317
 8812SOL    HW231375  -0.055  10.826  10.020  1.9261  1.0069 -1.4035
 8813SOL     OW31376   5.308   5.059   4.127  0.2910  0.0263  0.5309
 8813SOL    HW131377   5.341   4.972   4.151  0.4395  0.4500  1.9411
 8813SOL    HW231378   5.235   5.074   4.188  0.0363  0.7432  0.0613
 8814SOL     OW31379   2.739   3.762   8.927  0.0498  0.0753 -0.2570
 8814SOL    HW131380   2.667   3.718   8.882  0.5451 -0.6718 -0.3416
 8814SOL    HW231381   2.777   3.694   8.983  0.8572  0.3795 -0.4245
 8815SOL     OW31382   2.635   1.309  10.754 -0.0922  0.1575  0.2484
 8815SOL    HW131383   2.652   1.322  10.847 -0.2380  1.0887  0.1575
 8815SOL    HW231384   2.545   1.339  10.742 -0.6011 -1.3656  0.0726
 8816SOL     OW31385  11.657  11.056   1.610  0.3086 -0.2419 -0.0471
 8816SOL    HW131386  11.630  11.025   1.696 -0.5941  0.5882 -0.0098
 8816SOL    HW231387  11.613  10.997   1.548  0.2482 -0.3071  0.0582
 8817SOL     OW31388   7.561   8.370  11.405 -0.6635 -0.0932  0.2618
 8817SOL    HW131389   7.517   8.453  11.384 -1.0712 -0.0632  1.1723
 8817SOL    HW231390   7.588   8.335  11.320 -1.8196  0.2486 -0.2787
 8818SOL     OW31391   3.436   5.751   6.073 -0.1539  0.2927  0.4977
 8818SOL    HW131392   3.407   5.839   6.100  1.3783  0.6546  1.0294
 8818SOL    HW231393   3.373   5.726   6.005 -1.1686  1.4143  0.9723
 8819SOL     OW31394   5.882   2.783   9.863 -0.3765  1.0032  0.3621
 8819SOL    HW131395   5.805   2.764   9.809 -1.3457 -1.1170  2.3115
 8819SOL    HW231396   5.955   2.742   9.816 -0.9759  0.3590 -0.0362
 8820SOL     OW31397   1.727   4.483   1.757  0.3131  0.2850 -0.8613
 8820SOL    HW131398   1.729   4.499   1.663  2.1757  0.7623 -0.7731
 8820SOL    HW231399   1.800   4.534   1.792  0.1746 -0.5474  0.7413
 8821SOL     OW31400   1.446   3.122   3.448 -0.5291  0.0304 -0.4109
 8821SOL    HW131401   1.425   3.079   3.365 -1.9743 -0.9290  0.4082
 8821SOL    HW231402   1.421   3.214   3.434  0.7493  0.2305 -1.5338
 8822SOL     OW31403   0.997   6.301   3.557 -0.1144 -0.0725  0.1558
 8822SOL    HW131404   1.040   6.234   3.608 -1.7768 -0.5917  0.9593
 8822SOL    HW231405   0.963   6.254   3.480  0.8033  0.3496 -0.5264
 8823SOL     OW31406   0.357   7.747  11.572 -0.0779  0.6118 -0.7211
 8823SOL    HW131407   0.264   7.763  11.588 -0.5406 -1.1061 -1.4405
 8823SOL    HW231408   0.374   7.788  11.487 -0.1693  0.9195 -0.5933
 8824SOL     OW31409   9.362   6.775  10.991 -0.3776 -0.3825 -0.0316
 8824SOL    HW131410   9.418   6.837  11.039  0.5074 -1.5122  0.4379
 8824SOL    HW231411   9.413   6.753  10.913  0.0079 -1.6884  0.5730
 8825SOL     OW31412   9.874  10.312   4.597  0.0364  0.4735 -0.0677
 8825SOL    HW131413   9.844  10.239   4.543  1.3420  0.4440 -0.7872
 8825SOL    HW231414   9.837  10.390   4.556 -2.5462  0.1930  1.5042
 8826SOL     OW31415   4.578   6.077   2.600  0.2578 -0.3690  0.7923
 8826SOL    HW131416   4.590   6.162   2.558  1.9188 -1.1593 -0.4403
 8826SOL    HW231417   4.494   6.046   2.566 -0.2020  0.6185  0.9964
 8827SOL     OW31418   4.773   9.368  11.158  0.3827 -0.1172 -0.2815
 8827SOL    HW131419   4.834   9.377  11.085  1.4744  1.4294  0.7416
 8827SOL    HW231420   4.821   9.405  11.233 -0.8143 -1.3320  1.1441
 8828SOL     OW31421   7.255   2.300   1.580 -0.3205  0.0712  0.0023
 8828SOL    HW131422   7.333   2.298   1.634 -0.5033 -0.8741  0.2654
 8828SOL    HW231423   7.257   2.384   1.535  1.6014 -0.5031 -1.0990
 8829SOL     OW31424   8.295   8.381   7.088 -0.0750  0.4639 -0.2747
 8829SOL    HW131425   8.232   8.436   7.041  0.0971  0.8694 -0.0392
 8829SOL    HW231426   8.301   8.422   7.175 -0.4455 -0.3121  0.1329
 8830SOL     OW31427   6.924  11.646   7.835  0.3250  0.2411  0.3038
 8830SOL    HW131428   6.921  11.557   7.870 -0.5373  0.6953  1.4470
 8830SOL    HW231429   6.996  11.644   7.772  0.0637 -1.3706 -0.0142
 8831SOL     OW31430   9.481  10.450   8.720  0.1067  0.0531  0.0664
 8831SOL    HW131431   9.534  10.413   8.649 -1.3190  0.7415 -1.4390
 8831SOL    HW231432   9.467  10.378   8.781  0.0002 -1.0240 -1.2019
 8832SOL     OW31433   3.140   3.674  10.310  0.0940 -0.2047 -0.0023
 8832SOL    HW131434   3.233   3.663  10.331  0.5118  2.3305 -0.2441
 8832SOL    HW231435   3.134   3.651  10.217  0.2870 -1.1750  0.2123
 8833SOL     OW31436   0.867   5.405   7.720 -0.3442 -0.0087 -0.1510
 8833SOL    HW131437   0.902   5.486   7.683  1.6781 -0.2582  1.0507
 8833SOL    HW231438   0.910   5.336   7.670  0.7796 -0.3253  1.2025
 8834SOL     OW31439   6.860   2.095   6.006 -0.1334  0.3749 -0.4706
 8834SOL    HW131440   6.927   2.145   6.054  0.2583  0.7618 -1.3829
 8834SOL    HW231441   6.873   2.005   6.033 -1.3627  0.8174  1.8192
 8835SOL     OW31442   3.846   2.606   7.773 -0.1318  0.0457  0.3362
 8835SOL    HW131443   3.859   2.577   7.683 -1.5850 -0.8704  0.3936
 8835SOL    HW231444   3.767   2.660   7.770 -0.0044  0.2797  1.0156
 8836SOL     OW31445   2.685   6.863   9.867 -0.0151 -0.1953 -0.1806
 8836SOL    HW131446   2.763   6.914   9.846  1.2336 -2.3838 -1.2543
 8836SOL    HW231447   2.612   6.922   9.846  1.3091  1.4058 -0.5519
 8837SOL     OW31448   2.991  10.033  10.238 -0.1845 -0.3327 -0.2652
 8837SOL    HW131449   3.075   9.991  10.217  0.1039  0.6286 -1.1679
 8837SOL    HW231450   2.931  10.000  10.171 -0.4781 -0.8420  0.2416
 8838SOL     OW31451   6.238   7.469   0.352  0.1030 -0.3043  0.0070
 8838SOL    HW131452   6.219   7.554   0.313 -0.1202 -0.2569  0.2135
 8838SOL    HW231453   6.154   7.441   0.390  0.0533 -0.8353 -0.4794
 8839SOL     OW31454   6.532   1.430   0.490 -0.1762 -0.7364 -0.1506
 8839SOL    HW131455   6.599   1.375   0.532  0.8657  0.6877  0.1190
 8839SOL    HW231456   6.449   1.387   0.511  0.5176 -1.5243  1.1016
 8840SOL     OW31457   2.073   8.692   9.915 -0.6431 -0.1062  0.1157
 8840SOL    HW131458   2.013   8.767   9.912  0.8202  1.0933 -0.5107
 8840SOL    HW231459   2.158   8.730   9.937  0.4641 -1.3565 -1.7108
 8841SOL     OW31460   3.431  10.294   9.469  0.2246  0.2975  0.1420
 8841SOL    HW131461   3.482  10.369   9.499  0.0785  1.5609 -2.4359
 8841SOL    HW231462   3.494  10.240   9.420  0.0765 -0.6940  1.0089
 8842SOL     OW31463   8.626   8.747   2.742 -0.5414  0.0419  0.0918
 8842SOL    HW131464   8.677   8.691   2.802  0.7404 -1.2928 -2.0738
 8842SOL    HW231465   8.670   8.831   2.745 -0.3625 -0.0674  0.8386
 8843SOL     OW31466   3.183   7.895   6.354 -0.0121 -0.4767 -1.0739
 8843SOL    HW131467   3.159   7.809   6.318 -0.0171 -1.4527  1.1091
 8843SOL    HW231468   3.216   7.876   6.441  1.8355  1.5753 -1.2270
 8844SOL     OW31469  11.318   7.997   8.733 -0.8531 -0.3159  0.1689
 8844SOL    HW131470  11.229   7.962   8.725 -0.2774 -1.4846 -2.1545
 8844SOL    HW231471  11.360   7.942   8.800 -2.0358  0.7341  1.8386
 8845SOL     OW31472   1.063   0.763   5.462  0.4394 -0.3376 -0.2012
 8845SOL    HW131473   1.020   0.838   5.421 -1.9114 -1.8055 -0.6217
 8845SOL    HW231474   1.044   0.690   5.403 -0.6962 -1.9983  2.0864
 8846SOL     OW31475   6.062   1.879   0.067  0.0445 -0.2388 -0.1490
 8846SOL    HW131476   6.008   1.957   0.063 -0.0767 -0.1788 -5.8822
 8846SOL    HW231477   6.150   1.911   0.088 -0.4705  1.0134  0.1446
 8847SOL     OW31478   5.120  11.003   5.694 -0.1973  0.4562 -0.0648
 8847SOL    HW131479   5.091  10.912   5.699 -1.9986  1.0689  2.0293
 8847SOL    HW231480   5.042  11.055   5.712  0.5297  2.5262 -2.2609
 8848SOL     OW31481   6.698   2.728  10.430 -0.2997 -0.3176 -0.3228
 8848SOL    HW131482   6.692   2.750  10.523 -0.1522  1.6377 -0.7246
 8848SOL    HW231483   6.791   2.732  10.410 -0.4747  1.3377 -0.9621
 8849SOL     OW31484   5.091   3.206   8.032  0.0425  0.3482  0.7007
 8849SOL    HW131485   5.043   3.137   7.987  0.0639  1.3503 -0.9454
 8849SOL    HW231486   5.142   3.249   7.964 -0.5303  2.4499  1.4845
 8850SOL     OW31487   0.994   2.364   3.003  0.1139  0.0312 -0.3121
 8850SOL    HW131488   1.049   2.412   2.942 -0.1642  0.6364 -0.0995
 8850SOL    HW231489   1.030   2.275   3.004  1.3283  0.5130  0.1216
 8851SOL     OW31490   5.220   7.961   4.166 -0.2778 -0.4488  0.3713
 8851SOL    HW131491   5.140   8.011   4.151 -0.5783 -1.0156  0.0470
 8851SOL    HW231492   5.233   7.911   4.085 -0.1714 -1.1543  0.8166
 8852SOL     OW31493   3.092   1.955   1.068  0.2265  0.1805  0.1867
 8852SOL    HW131494   3.084   2.001   0.984 -1.8378 -3.2854 -1.7667
 8852SOL    HW231495   3.172   1.903   1.059 -0.0151 -0.2217  0.3464
 8853SOL     OW31496   5.777   3.864   1.593 -0.4081  0.1201 -0.1576
 8853SOL    HW131497   5.690   3.905   1.594  0.1014  1.3491  2.9737
 8853SOL    HW231498   5.830   3.922   1.539 -1.1785  0.1017 -0.9644
 8854SOL     OW31499   4.796   5.927   2.290  0.0124  0.3023  0.1507
 8854SOL    HW131500   4.844   6.008   2.311 -0.8594  0.7816  0.3156
 8854SOL    HW231501   4.772   5.891   2.375  0.1936 -0.0156  0.0698
 8855SOL     OW31502   1.892   1.890   0.806 -0.2179  0.5355 -0.1245
 8855SOL    HW131503   1.958   1.919   0.869 -0.4842 -0.8937  0.8809
 8855SOL    HW231504   1.810   1.894   0.855 -0.9069  2.2514 -1.3434
 8856SOL     OW31505  10.542  10.038   6.921  0.0643  0.5449 -0.1360
 8856SOL    HW131506  10.612  10.099   6.944  1.1112 -0.0650 -1.4604
 8856SOL    HW231507  10.534  10.046   6.826 -0.3475 -0.7483 -0.2345
 8857SOL     OW31508  11.580   1.800   1.225 -0.2048  0.7291  0.4690
 8857SOL    HW131509  11.646   1.855   1.267 -0.3612  2.4165 -1.3531
 8857SOL    HW231510  11.604   1.800   1.132 -0.4438 -2.0094  0.3350
 8858SOL     OW31511   4.284   4.931   3.549 -0.5149 -0.3206 -0.2017
 8858SOL    HW131512   4.304   5.007   3.495  0.7586 -0.1858  0.4266
 8858SOL    HW231513   4.362   4.876   3.543 -0.5315 -0.5168  1.1083
 8859SOL     OW31514   8.556   2.080   1.067  0.0843 -0.4069  0.0473
 8859SOL    HW131515   8.594   2.095   0.981 -0.1358 -2.0364 -0.3789
 8859SOL    HW231516   8.596   1.998   1.097 -0.6324 -0.4262  1.0182
 8860SOL     OW31517   9.948  10.318   5.825 -1.0153  0.2053 -0.1455
 8860SOL    HW131518   9.989  10.234   5.847 -2.8387 -0.4604  0.9324
 8860SOL    HW231519  10.015  10.383   5.845 -0.2364 -0.8707  0.9071
 8861SOL     OW31520   5.765   1.777  10.030  0.4949 -0.0864  0.1175
 8861SOL    HW131521   5.756   1.780   9.935  0.5182 -2.4250 -0.0140
 8861SOL    HW231522   5.687   1.732  10.061  1.4585 -1.2342  0.9847
 8862SOL     OW31523  10.988   8.325   7.720  0.8771 -0.2453 -0.2085
 8862SOL    HW131524  11.060   8.277   7.761  0.5448 -0.4986  0.0885
 8862SOL    HW231525  10.912   8.266   7.728  0.7344 -0.1686 -0.9175
 8863SOL     OW31526   5.241   5.333   4.519  0.2895  0.5085 -0.1911
 8863SOL    HW131527   5.170   5.346   4.583  0.3344 -1.9724  0.4792
 8863SOL    HW231528   5.321   5.352   4.569  0.3279 -1.4624  0.5771
 8864SOL     OW31529   1.151   2.934  11.257 -0.0093  0.5204  0.8236
 8864SOL    HW131530   1.186   2.980  11.181  3.1223 -2.6117  0.0950
 8864SOL    HW231531   1.064   2.903  11.229  0.4272  0.7702 -0.8909
 8865SOL     OW31532   5.227   6.727   8.190  0.8975 -0.0300  0.3658
 8865SOL    HW131533   5.242   6.687   8.275 -1.0675  1.2383  1.3843
 8865SOL    HW231534   5.183   6.810   8.209  1.4159  0.8297 -1.8341
 8866SOL     OW31535   1.808   4.755   3.177 -0.1274 -0.7319 -0.0883
 8866SOL    HW131536   1.764   4.819   3.234 -0.3621  0.0057 -1.0641
 8866SOL    HW231537   1.796   4.790   3.089  2.0904 -0.7091 -0.4272
 8867SOL     OW31538   9.441   4.688   6.773  0.8822  0.2811  0.2788
 8867SOL    HW131539   9.505   4.700   6.703  1.1298 -1.7942  0.1085
 8867SOL    HW231540   9.487   4.641   6.842  0.2601  1.1045  1.2923
 8868SOL     OW31541   8.851   3.242   7.954  0.1568  0.4708  0.1746
 8868SOL    HW131542   8.809   3.324   7.927 -1.7259 -0.7290 -0.7431
 8868SOL    HW231543   8.788   3.174   7.929  1.2546 -1.1982  1.7680
 8869SOL     OW31544   9.040   3.901   5.125  1.1000  0.0738 -0.1606
 8869SOL    HW131545   9.082   3.825   5.165  0.2721 -0.6225 -0.5939
 8869SOL    HW231546   9.089   3.917   5.045  0.7334 -0.5601 -0.5191
 8870SOL     OW31547   7.039  10.347  11.466  0.3040  0.0408 -0.0673
 8870SOL    HW131548   7.019  10.263  11.509  1.0356 -0.3257 -0.4277
 8870SOL    HW231549   7.009  10.336  11.376 -0.2450  0.4231  0.0676
 8871SOL     OW31550   5.263   3.211   6.264  0.0425  0.0558  0.7626
 8871SOL    HW131551   5.170   3.222   6.285  0.1963  1.9315  0.6254
 8871SOL    HW231552   5.305   3.201   6.349 -0.2571 -0.6266  0.8357
 8872SOL     OW31553   6.924   7.567  11.140 -0.7484  0.0729 -0.0308
 8872SOL    HW131554   6.836   7.579  11.104 -0.3577 -0.3349 -1.1986
 8872SOL    HW231555   6.925   7.477  11.172 -1.1241  0.4651  1.1069
 8873SOL     OW31556   5.885  10.399   8.785  0.1822  0.0792 -0.1315
 8873SOL    HW131557   5.871  10.438   8.698  0.4197 -1.1943 -0.7582
 8873SOL    HW231558   5.972  10.361   8.781 -0.4693 -1.4960  0.0625
 8874SOL     OW31559   8.788   2.145   6.551 -0.1407  0.1261  0.0175
 8874SOL    HW131560   8.704   2.110   6.581 -0.8602  2.2795  0.6922
 8874SOL    HW231561   8.767   2.192   6.470  0.3144  1.0869  0.4456
 8875SOL     OW31562  11.298   7.782   3.665  0.0879  0.1023  0.1287
 8875SOL    HW131563  11.308   7.802   3.758  3.2393 -0.7555  0.0916
 8875SOL    HW231564  11.284   7.687   3.662 -1.2583  0.2988 -0.2425
 8876SOL     OW31565  10.956   5.365  10.800 -0.3630 -0.0060  0.6894
 8876SOL    HW131566  10.905   5.420  10.860  0.1362  0.8810  0.3131
 8876SOL    HW231567  10.954   5.278  10.840  0.4202  0.6788  2.3061
 8877SOL     OW31568   6.362  10.915   1.521  0.3586 -0.3066  0.1531
 8877SOL    HW131569   6.311  10.894   1.599  1.4403  0.5582  1.1142
 8877SOL    HW231570   6.438  10.963   1.553  0.4844  0.6806 -1.4959
 8878SOL     OW31571   1.331   9.504   1.244 -0.7354  0.7689 -0.2957
 8878SOL    HW131572   1.346   9.568   1.314 -2.0475  0.2597  0.4873
 8878SOL    HW231573   1.373   9.424   1.276  0.6012  1.1122 -1.1191
 8879SOL     OW31574   0.512   8.210   5.240  0.0227  0.4347  0.4912
 8879SOL    HW131575   0.452   8.181   5.171 -0.6050  0.4938  1.0069
 8879SOL    HW231576   0.487   8.158   5.317  0.5056  0.5964  0.7609
 8880SOL     OW31577   3.187   9.346   4.013  0.1430  0.3378  0.2408
 8880SOL    HW131578   3.108   9.360   4.064  0.0275  1.5559 -0.2470
 8880SOL    HW231579   3.157   9.310   3.930  0.0958  0.7473  0.0771
 8881SOL     OW31580  10.559   2.322   7.749  0.0178  0.0182  0.3514
 8881SOL    HW131581  10.646   2.306   7.710 -0.1823 -0.8678  0.2415
 8881SOL    HW231582  10.526   2.234   7.770 -1.2491  0.2726 -0.4801
 8882SOL     OW31583   9.169   7.663   9.963 -0.3250 -0.1082  0.0638
 8882SOL    HW131584   9.167   7.569   9.943 -0.1902  0.1133 -1.0850
 8882SOL    HW231585   9.112   7.673  10.039 -0.0095 -1.1747  0.4563
 8883SOL     OW31586   8.048  10.522  10.482  0.2285 -0.1885  0.3481
 8883SOL    HW131587   8.050  10.432  10.515  1.6084 -0.7684 -1.1660
 8883SOL    HW231588   7.977  10.521  10.417  0.3127 -0.2339  0.2549
 8884SOL     OW31589   2.085   7.898   1.102 -0.3792 -0.5629 -0.3898
 8884SOL    HW131590   2.174   7.915   1.132 -1.2519  1.7838  1.2042
 8884SOL    HW231591   2.080   7.803   1.092  2.0504 -0.8171  0.2267
 8885SOL     OW31592  10.759   4.146  10.821 -0.1872  0.1654 -0.0643
 8885SOL    HW131593  10.853   4.130  10.816 -0.2879 -0.3471 -0.4616
 8885SOL    HW231594  10.722   4.093  10.750 -0.8661 -0.3783  0.6825
 8886SOL     OW31595   1.803  11.095   1.347  0.1577  0.7583  0.0905
 8886SOL    HW131596   1.780  11.083   1.255 -0.4910 -1.4552  0.4885
 8886SOL    HW231597   1.870  11.029   1.364  1.1494  1.9449  0.9285
 8887SOL     OW31598  11.007   3.815  10.050 -0.0460  0.2988  0.4298
 8887SOL    HW131599  11.058   3.896  10.053 -0.2907  0.4403  0.7329
 8887SOL    HW231600  10.921   3.841  10.018 -0.0589  0.1262  0.3225
 8888SOL     OW31601   1.775   2.773  10.179  0.6071 -0.3503  0.0724
 8888SOL    HW131602   1.784   2.700  10.241 -0.1792 -0.0382  0.5665
 8888SOL    HW231603   1.807   2.849  10.227 -0.0413 -0.0983  0.1057
 8889SOL     OW31604   7.237   9.034   7.883  0.1030 -0.3305  0.1187
 8889SOL    HW131605   7.307   9.099   7.894  0.7954 -0.8872 -0.9055
 8889SOL    HW231606   7.201   9.023   7.971 -0.6452  2.1008  0.1958
 8890SOL     OW31607   0.339   9.254   5.284  0.1185 -0.3554 -0.4250
 8890SOL    HW131608   0.371   9.223   5.200  1.5670  3.0913 -1.3234
 8890SOL    HW231609   0.269   9.316   5.262  0.2272  0.2996  0.9326
 8891SOL     OW31610   8.238   2.867   2.448 -0.1370  0.4956 -0.6343
 8891SOL    HW131611   8.234   2.797   2.514  0.6629  1.6573  0.7094
 8891SOL    HW231612   8.254   2.821   2.366  1.8123 -0.8452  0.3992
 8892SOL     OW31613  11.002   8.624   8.232 -0.5814  0.1265 -0.3958
 8892SOL    HW131614  10.941   8.698   8.231  1.3788  1.8455 -0.0896
 8892SOL    HW231615  11.013   8.600   8.140 -1.2753  0.1522 -0.4903
 8893SOL     OW31616   6.383   3.830  11.675 -0.4588 -0.1947  0.2090
 8893SOL    HW131617   6.328   3.839  11.598  1.8596 -0.0333 -1.5241
 8893SOL    HW231618   6.445   3.760  11.653 -0.0858 -0.5387  2.1561
 8894SOL     OW31619   8.855   8.581   7.372  0.2816 -0.1814  0.0765
 8894SOL    HW131620   8.945   8.550   7.377 -0.0365 -1.6514 -1.8855
 8894SOL    HW231621   8.849   8.651   7.437  2.2299 -1.4661  1.7231
 8895SOL     OW31622   3.841   7.978   2.461 -1.0540  0.2961 -0.3537
 8895SOL    HW131623   3.799   7.985   2.375 -3.7054  0.8191  0.8932
 8895SOL    HW231624   3.792   7.909   2.506  0.6484 -0.3621  0.5860
 8896SOL     OW31625   6.799   3.507   5.754  0.2017 -0.3093 -0.0295
 8896SOL    HW131626   6.840   3.594   5.755  3.1643 -1.5981  1.8468
 8896SOL    HW231627   6.707   3.525   5.772  0.8899  2.3959  1.3963
 8897SOL     OW31628   1.873   6.959   7.057  0.1142 -0.0995  0.0041
 8897SOL    HW131629   1.832   6.880   7.091 -0.7005  1.0940  1.9711
 8897SOL    HW231630   1.831   7.031   7.105  0.2428  1.6193 -2.2677
 8898SOL     OW31631   7.267   9.693   7.497  0.2188  0.0597 -0.2350
 8898SOL    HW131632   7.297   9.691   7.407 -0.3445 -1.6655 -0.4235
 8898SOL    HW231633   7.173   9.712   7.491  0.4883  1.6055  0.1124
 8899SOL     OW31634   9.230   5.114   7.277  0.0215 -0.0434  0.0174
 8899SOL    HW131635   9.197   5.029   7.307 -0.1890  0.1430  0.3228
 8899SOL    HW231636   9.261   5.157   7.357  0.5139 -0.0020 -0.1974
 8900SOL     OW31637   0.489   8.927   9.208 -0.0437  0.2380  0.0390
 8900SOL    HW131638   0.472   8.907   9.300  0.7767 -0.3077  0.0878
 8900SOL    HW231639   0.404   8.921   9.166 -0.0084 -2.7231  0.1899
 8901SOL     OW31640  11.434  10.572   5.406  0.7614  0.2442 -0.3193
 8901SOL    HW131641  11.411  10.553   5.314  0.2566 -2.1961  0.2303
 8901SOL    HW231642  11.357  10.616   5.441 -0.5155 -1.8573 -0.2657
 8902SOL     OW31643   0.214   5.477   3.480  0.1091  0.4726 -0.0336
 8902SOL    HW131644   0.168   5.517   3.554  0.1783  1.0436 -0.2927
 8902SOL    HW231645   0.274   5.545   3.449  0.0393  0.2607 -0.6521
 8903SOL     OW31646  11.685   8.805   1.524  0.0396 -0.2965  0.0891
 8903SOL    HW131647  11.702   8.719   1.563 -1.5235 -0.0969  1.2956
 8903SOL    HW231648  11.636   8.785   1.444 -0.6687 -0.5328  0.5712
 8904SOL     OW31649   0.069   8.814   3.462  0.1628 -0.4447 -0.5229
 8904SOL    HW131650  -0.010   8.865   3.478  0.2891  0.0696 -1.4495
 8904SOL    HW231651   0.040   8.723   3.469 -0.1109 -0.2607  0.9123
 8905SOL     OW31652   4.895  10.811   6.683 -0.1890  0.1692  1.0475
 8905SOL    HW131653   4.841  10.770   6.615  0.9940 -1.2743  0.9228
 8905SOL    HW231654   4.974  10.757   6.687  0.3503  0.9980  2.6732
 8906SOL     OW31655   6.248   1.468   3.956  0.4330  0.2020 -0.5065
 8906SOL    HW131656   6.289   1.385   3.934 -2.8911 -1.3823 -1.2690
 8906SOL    HW231657   6.245   1.468   4.052  1.8029  0.2186 -0.4418
 8907SOL     OW31658   7.246  10.801   5.945  0.1355 -0.0167 -0.4888
 8907SOL    HW131659   7.307  10.834   6.010  0.3641 -1.1672 -0.0861
 8907SOL    HW231660   7.159  10.811   5.985  0.3431 -1.6987  0.5027
 8908SOL     OW31661   7.133   8.662   2.041  0.1272 -0.2719  0.7505
 8908SOL    HW131662   7.216   8.693   2.075 -0.7757  1.0152  1.9013
 8908SOL    HW231663   7.102   8.731   1.983  0.9427 -1.7985 -1.6323
 8909SOL     OW31664   9.260   8.532   2.417  0.6574  0.4714  0.1567
 8909SOL    HW131665   9.189   8.557   2.478  2.4428  3.3702  1.2753
 8909SOL    HW231666   9.215   8.514   2.335 -1.5011  0.9577  1.1384
 8910SOL     OW31667   8.950   3.094   0.241 -0.3525  0.1689  0.0538
 8910SOL    HW131668   9.005   3.163   0.202 -1.4905  1.4821  0.6715
 8910SOL    HW231669   9.013   3.034   0.281  0.6829  0.8659 -0.4657
 8911SOL     OW31670   5.374   2.584   0.267  0.1931  0.2225  0.1873
 8911SOL    HW131671   5.452   2.572   0.214 -0.4146 -1.2813 -0.4135
 8911SOL    HW231672   5.393   2.539   0.349 -0.9924 -2.5671 -0.9679
 8912SOL     OW31673   0.919  11.370   6.445  0.0583 -0.0665 -0.2259
 8912SOL    HW131674   0.884  11.409   6.525 -0.4711  0.1158 -0.5391
 8912SOL    HW231675   0.906  11.438   6.378  2.4871  0.6824 -0.0587
 8913SOL     OW31676   4.569   1.707   2.969 -0.1363 -0.1253  0.3134
 8913SOL    HW131677   4.516   1.658   2.905 -1.9237  0.9546  0.8980
 8913SOL    HW231678   4.508   1.771   3.005  1.0221 -0.2480  2.6033
 8914SOL     OW31679  11.078   5.875   0.469  0.5154  0.6517  0.2533
 8914SOL    HW131680  11.153   5.894   0.525 -0.5831  1.8254  1.3902
 8914SOL    HW231681  11.059   5.957   0.424  0.7147  0.0088 -1.0840
 8915SOL     OW31682   2.103   2.743   7.871 -0.2170  0.3716  0.8444
 8915SOL    HW131683   2.131   2.761   7.781 -0.3105 -0.3568  0.6633
 8915SOL    HW231684   2.153   2.805   7.925  1.0025 -0.2195  0.4393
 8916SOL     OW31685   9.659   2.346   3.969 -0.6654  0.3953  0.7566
 8916SOL    HW131686   9.639   2.253   3.957 -2.0069  0.6269  1.0286
 8916SOL    HW231687   9.704   2.371   3.888 -2.3887  0.0392 -0.3712
 8917SOL     OW31688   6.346   1.097   0.987 -0.4192  0.1633 -0.1669
 8917SOL    HW131689   6.260   1.120   1.023 -0.3572  1.1309 -0.6036
 8917SOL    HW231690   6.408   1.137   1.047 -0.2111 -1.4303  0.7563
 8918SOL     OW31691   8.381   1.880  10.321  0.5051 -0.4028 -0.0985
 8918SOL    HW131692   8.299   1.843  10.355 -0.9100  1.2157 -1.5782
 8918SOL    HW231693   8.397   1.832  10.240  0.1199  0.3871 -0.6479
 8919SOL     OW31694   7.059   2.292  10.894 -0.1522  0.3018  0.7385
 8919SOL    HW131695   7.002   2.291  10.817 -0.3389  0.7735  0.8669
 8919SOL    HW231696   7.023   2.224  10.951 -0.1783  0.1353  0.5251
 8920SOL     OW31697  10.396  11.451   2.476  0.0506  0.1587 -0.4003
 8920SOL    HW131698  10.304  11.444   2.498  0.1766 -0.8828 -0.1380
 8920SOL    HW231699  10.442  11.439   2.560  0.4702 -1.6903 -0.8500
 8921SOL     OW31700   8.540   9.303  10.082  0.4074 -0.3014 -0.7474
 8921SOL    HW131701   8.476   9.273  10.146  0.3732  0.6686 -0.3062
 8921SOL    HW231702   8.613   9.336  10.135 -0.1812  1.7510 -1.1211
 8922SOL     OW31703   3.447   2.586   6.761 -0.5869  0.2789 -1.1410
 8922SOL    HW131704   3.405   2.654   6.708  0.6088  1.9766 -0.0166
 8922SOL    HW231705   3.541   2.603   6.752 -0.3471  0.5991  1.4354
 8923SOL     OW31706   8.377   6.609   1.095 -0.2548  0.2223 -0.5087
 8923SOL    HW131707   8.372   6.703   1.115  0.8819 -0.1578  1.9231
 8923SOL    HW231708   8.449   6.577   1.149 -0.2962 -1.9944 -1.6610
 8924SOL     OW31709   7.544   2.939   7.872  0.0126 -0.0563 -0.3772
 8924SOL    HW131710   7.511   2.977   7.791 -0.2066  0.5946  0.0053
 8924SOL    HW231711   7.480   2.872   7.895 -1.0536  1.1498  0.3187
 8925SOL     OW31712   6.130   6.148   9.410 -0.2918  0.0681  0.0305
 8925SOL    HW131713   6.049   6.164   9.361  0.2541 -0.1839 -0.9963
 8925SOL    HW231714   6.200   6.176   9.350  0.3993 -0.1600  0.7154
 8926SOL     OW31715   3.038   5.504   0.735  0.1747  0.1365  0.4279
 8926SOL    HW131716   2.945   5.523   0.728 -0.1401 -1.0175  1.2474
 8926SOL    HW231717   3.057   5.512   0.829  0.7550 -0.2476  0.3481
 8927SOL     OW31718   7.294   2.155  10.964  0.2045  0.5609 -0.2207
 8927SOL    HW131719   7.231   2.222  10.937 -1.0232 -0.6069 -0.3826
 8927SOL    HW231720   7.262   2.074  10.923  0.6619 -0.4529  1.3094
 8928SOL     OW31721   7.873   6.528   4.691 -0.2580  0.3247  0.0504
 8928SOL    HW131722   7.875   6.501   4.599  4.4229 -0.9663  0.2812
 8928SOL    HW231723   7.902   6.619   4.690 -3.5362  1.5159  0.2031
 8929SOL     OW31724   7.732   8.020  11.403  0.5187 -0.1567  0.1578
 8929SOL    HW131725   7.721   8.088  11.469  0.1400 -1.2732  1.3073
 8929SOL    HW231726   7.647   7.975  11.401  0.6938 -0.4693 -0.7216
 8930SOL     OW31727   0.502  10.011   6.643 -0.0763  0.1491  0.0109
 8930SOL    HW131728   0.562  10.044   6.576  0.0582 -0.4824 -0.1812
 8930SOL    HW231729   0.439  10.082   6.654  0.3999  0.6136 -0.1569
 8931SOL     OW31730   6.404   5.616   8.261 -0.3476 -0.2357  0.3124
 8931SOL    HW131731   6.468   5.545   8.259  0.5846  0.5888 -0.8979
 8931SOL    HW231732   6.416   5.657   8.347 -0.7031 -1.3622  0.9060
 8932SOL     OW31733   7.803   3.795   3.918 -0.4439  0.0364 -0.0884
 8932SOL    HW131734   7.749   3.750   3.983  0.0439 -0.4971 -0.0450
 8932SOL    HW231735   7.890   3.757   3.929  0.4421  2.2848  1.2053
 8933SOL     OW31736   8.919   7.520   9.910 -0.0053  0.5937  0.1815
 8933SOL    HW131737   9.005   7.481   9.897  0.6341  1.7921  0.6680
 8933SOL    HW231738   8.862   7.446   9.933  0.5667 -0.4114 -1.4423
 8934SOL     OW31739   4.672   9.222   8.456  0.1564  0.2444  0.4898
 8934SOL    HW131740   4.680   9.128   8.440  0.9945  0.2724  0.6733
 8934SOL    HW231741   4.710   9.234   8.543 -1.4304  0.5311  1.1768
 8935SOL     OW31742   3.148   9.348   7.720  0.2120 -0.1020 -0.7112
 8935SOL    HW131743   3.128   9.412   7.651 -0.8371  0.0652 -0.2687
 8935SOL    HW231744   3.097   9.271   7.696 -1.5854  0.5426  0.7718
 8936SOL     OW31745   5.806   4.065   3.171  0.3766  0.0551 -0.0347
 8936SOL    HW131746   5.822   4.045   3.079  2.9528 -1.0840  0.5601
 8936SOL    HW231747   5.730   4.012   3.194 -0.5835  0.7043 -1.5873
 8937SOL     OW31748   0.590   6.066  11.240  0.6894 -0.6353 -0.4296
 8937SOL    HW131749   0.547   5.991  11.199  1.5329 -0.9924 -0.6820
 8937SOL    HW231750   0.564   6.060  11.332  0.7351 -1.2283 -0.4517
 8938SOL     OW31751   1.969   2.282   1.184  0.2322 -0.0026  0.2306
 8938SOL    HW131752   1.920   2.214   1.137  1.4905 -0.0505 -1.0875
 8938SOL    HW231753   2.054   2.284   1.141  0.7520  1.3601  1.2519
 8939SOL     OW31754   5.763  10.917   1.482 -0.5562  0.3456 -0.5982
 8939SOL    HW131755   5.757  10.924   1.577  2.8903 -0.3007 -0.1854
 8939SOL    HW231756   5.714  10.838   1.460 -1.8625  0.8016  0.5195
 8940SOL     OW31757  10.102   1.311   0.060 -0.4341 -0.5748 -0.3550
 8940SOL    HW131758  10.014   1.293   0.028  0.0415 -4.7757  0.1601
 8940SOL    HW231759  10.158   1.300  -0.017 -0.1411 -0.6175 -0.1370
 8941SOL     OW31760   1.745   5.451   5.416 -0.1144  0.0399  0.1968
 8941SOL    HW131761   1.690   5.469   5.340 -0.4924  0.7427  0.6345
 8941SOL    HW231762   1.685   5.456   5.490  0.2254 -0.7863  0.5343
 8942SOL     OW31763   6.235   2.819   3.991 -0.3217 -0.0910 -0.0476
 8942SOL    HW131764   6.292   2.742   3.982  0.6306  0.7327 -1.5379
 8942SOL    HW231765   6.184   2.803   4.070  0.7077 -1.7016  0.3210
 8943SOL     OW31766   3.788   8.193  10.317  0.0812  0.0032 -0.0747
 8943SOL    HW131767   3.730   8.168  10.389 -0.8052 -2.5326 -1.5442
 8943SOL    HW231768   3.863   8.134  10.326 -0.2540 -0.6734 -1.4338
 8944SOL     OW31769   3.744   4.564   1.389  0.5812 -0.2880  0.3962
 8944SOL    HW131770   3.673   4.602   1.337  0.4852 -0.9873  0.0136
 8944SOL    HW231771   3.808   4.635   1.397 -0.1937  0.3863  0.8315
 8945SOL     OW31772   6.620   9.415   1.833  0.3961 -0.0178  0.5064
 8945SOL    HW131773   6.606   9.420   1.738  0.4174 -2.4975  0.3090
 8945SOL    HW231774   6.695   9.472   1.849  0.8308 -0.0876 -1.0758
 8946SOL     OW31775  11.489  10.694   8.617 -0.2167  0.2842  0.4297
 8946SOL    HW131776  11.394  10.685   8.604 -0.3026  1.3485  0.2170
 8946SOL    HW231777  11.522  10.719   8.531  0.0987  0.9873  0.7462
 8947SOL     OW31778   8.004  10.927   8.594  0.2499 -0.2096 -0.5791
 8947SOL    HW131779   8.095  10.894   8.595  0.7045  0.8880  2.1217
 8947SOL    HW231780   7.960  10.877   8.663 -0.6278  0.7605 -0.4234
 8948SOL     OW31781  10.851   0.853   1.877  0.3129  0.3347 -0.3462
 8948SOL    HW131782  10.805   0.926   1.835 -0.1573  0.1557 -0.1383
 8948SOL    HW231783  10.881   0.799   1.803  0.7307  0.7702 -0.5050
 8949SOL     OW31784   8.327   5.704   1.799  0.2116 -0.4604 -0.4705
 8949SOL    HW131785   8.252   5.717   1.857  0.4239  0.8467 -0.4379
 8949SOL    HW231786   8.300   5.636   1.738 -0.9592 -0.1105 -0.3648
 8950SOL     OW31787  11.563   7.747   1.723  0.2189  0.3924  0.0485
 8950SOL    HW131788  11.565   7.657   1.691 -0.6347 -0.9093  3.2647
 8950SOL    HW231789  11.504   7.744   1.799  1.2692  3.3571  1.1231
 8951SOL     OW31790   5.916   0.476   6.049 -0.5400  0.3365 -0.1280
 8951SOL    HW131791   6.010   0.466   6.033 -0.2967  0.4182  1.1240
 8951SOL    HW231792   5.900   0.569   6.035 -0.2649  0.4682  0.3746
 8952SOL     OW31793  11.368   0.779   9.058  0.1630 -0.6126  0.1908
 8952SOL    HW131794  11.339   0.857   9.105  0.5669 -0.3888  0.0669
 8952SOL    HW231795  11.321   0.707   9.100 -0.1379 -0.3132  0.3652
 8953SOL     OW31796   5.521   8.863   5.200 -0.2194  0.8067  0.1317
 8953SOL    HW131797   5.452   8.928   5.214 -1.5611 -0.6259  0.3936
 8953SOL    HW231798   5.479   8.779   5.217  2.0456 -0.0416  1.9993
 8954SOL     OW31799   5.553   6.449   3.569 -0.3297  0.1284  0.6523
 8954SOL    HW131800   5.592   6.362   3.578 -0.7588 -0.0391  0.8760
 8954SOL    HW231801   5.530   6.474   3.658 -0.0728  0.5348  0.6055
 8955SOL     OW31802   8.338  10.611   8.573 -0.0426 -0.1461 -0.3504
 8955SOL    HW131803   8.386  10.651   8.501  2.7113 -2.4868  0.0415
 8955SOL    HW231804   8.375  10.524   8.583 -1.8619 -0.7621  2.4776
 8956SOL     OW31805   9.830   1.575   7.714  0.0215  0.0926  0.1170
 8956SOL    HW131806   9.764   1.532   7.768 -1.5535  1.0929 -0.9563
 8956SOL    HW231807   9.819   1.536   7.627 -0.3522  1.5215 -0.4884
 8957SOL     OW31808   0.183   8.760  10.842 -0.1394 -0.6727  0.0823
 8957SOL    HW131809   0.235   8.778  10.764  0.4951 -0.1352  0.6209
 8957SOL    HW231810   0.237   8.703  10.895  0.5612  1.0580  1.3174
 8958SOL     OW31811   0.178  10.778   8.872 -0.1853  0.2586 -0.3699
 8958SOL    HW131812   0.252  10.731   8.834  0.0867 -0.3864  0.9051
 8958SOL    HW231813   0.217  10.858   8.908 -0.1665  0.1058 -0.0454
 8959SOL     OW31814   3.436   7.955   5.922  0.1824 -0.0072  0.0918
 8959SOL    HW131815   3.503   8.011   5.962  2.4259 -2.0157 -0.6384
 8959SOL    HW231816   3.483   7.906   5.855 -2.1363 -1.2993 -0.6798
 8960SOL     OW31817   9.999   0.069   3.743  0.1563  0.1740  0.3684
 8960SOL    HW131818   9.924   0.079   3.684  0.5871  1.2085 -0.0240
 8960SOL    HW231819  10.073   0.051   3.685  0.4234  0.3093  0.6638
 8961SOL     OW31820  11.603   4.341   9.023  0.1294 -0.3624 -0.4367
 8961SOL    HW131821  11.568   4.274   8.963 -2.0935  0.1422  0.2090
 8961SOL    HW231822  11.563   4.321   9.107  2.4921 -0.4928  0.7256
 8962SOL     OW31823   9.163   8.073   5.813  0.0038 -0.3486  0.3761
 8962SOL    HW131824   9.154   8.070   5.718  0.3232 -0.5884  0.3497
 8962SOL    HW231825   9.074   8.062   5.846  0.1297 -2.5728  0.1436
 8963SOL     OW31826   1.977   2.688   0.504  0.0248 -0.6492 -0.2046
 8963SOL    HW131827   1.948   2.661   0.591  1.2989 -0.4285  0.3052
 8963SOL    HW231828   2.071   2.699   0.512  0.4089 -2.0184 -1.9742
 8964SOL     OW31829   8.840   8.859   7.447 -0.0155 -0.1134 -0.3741
 8964SOL    HW131830   8.826   8.901   7.532  0.3128  0.6312 -0.6796
 8964SOL    HW231831   8.927   8.887   7.421  0.7646 -2.0767  0.0126
 8965SOL     OW31832   4.118  10.436   5.190  0.7832  0.0263  0.2704
 8965SOL    HW131833   4.074  10.461   5.109  0.6200 -0.1678  0.2978
 8965SOL    HW231834   4.199  10.486   5.190  0.5494  0.4092  0.2324
 8966SOL     OW31835   1.936   6.143   5.446 -0.2333 -0.1940  0.4600
 8966SOL    HW131836   1.891   6.166   5.365 -1.1221 -1.7601  0.4918
 8966SOL    HW231837   1.867   6.127   5.509  0.1692 -3.8311  0.1990
 8967SOL     OW31838  11.045   2.144  10.143  0.3348  0.4226 -0.7630
 8967SOL    HW131839  11.008   2.230  10.124 -1.8421 -0.2832 -0.0030
 8967SOL    HW231840  11.094   2.156  10.224 -0.8927  0.7441 -0.0438
 8968SOL     OW31841   7.410   2.878   0.227  0.1757  0.2864 -0.4649
 8968SOL    HW131842   7.447   2.895   0.140  1.9003 -0.6532  0.0231
 8968SOL    HW231843   7.464   2.930   0.286 -0.4186  0.2411  0.1244
 8969SOL     OW31844   6.995   5.621  11.373 -0.1148  0.0232 -0.2025
 8969SOL    HW131845   7.067   5.558  11.379  1.3150  1.6949  1.0148
 8969SOL    HW231846   6.940   5.602  11.448 -0.3430 -0.5366 -0.5079
 8970SOL     OW31847   0.186   1.358   0.227  0.3150 -0.3205  0.4598
 8970SOL    HW131848   0.271   1.318   0.213 -0.2942 -1.0182 -1.5872
 8970SOL    HW231849   0.176   1.361   0.322  2.2998 -0.8616  0.7274
 8971SOL     OW31850   1.208   2.893  10.404 -0.2720  0.1033 -0.2815
 8971SOL    HW131851   1.225   2.809  10.446 -0.7606 -0.5032 -1.2749
 8971SOL    HW231852   1.273   2.952  10.442 -0.4488 -0.5153  1.0264
 8972SOL     OW31853   8.923   6.838  10.343  0.1378  0.0681  0.7086
 8972SOL    HW131854   8.944   6.931  10.350 -1.0430  0.3532  0.7726
 8972SOL    HW231855   8.998   6.793  10.380  2.4501  0.7921 -2.6427
 8973SOL     OW31856   5.518   6.651   8.142  0.3017 -0.1347 -0.3569
 8973SOL    HW131857   5.431   6.687   8.155  1.1255  1.1665  2.2001
 8973SOL    HW231858   5.578   6.724   8.159  1.9380 -1.6439  0.7523
 8974SOL     OW31859   4.915   3.238   6.094  0.3995  0.4730  0.2722
 8974SOL    HW131860   4.881   3.149   6.098 -0.6272  0.7864 -0.9511
 8974SOL    HW231861   4.898   3.274   6.181 -2.0567  0.4694 -0.1586
 8975SOL     OW31862   2.050   2.687   3.874 -0.3436  0.0867 -0.2491
 8975SOL    HW131863   2.106   2.765   3.871 -1.2517  0.8061  0.6254
 8975SOL    HW231864   2.105   2.618   3.911  0.8333 -0.0305 -2.1286
 8976SOL     OW31865   9.953   8.087   7.485  0.4681 -0.3629 -0.0192
 8976SOL    HW131866   9.941   8.020   7.417  0.6717  1.0157 -1.4515
 8976SOL    HW231867  10.035   8.131   7.462 -0.1244  0.9852  0.3611
 8977SOL     OW31868   6.405   9.057   3.094  0.4025 -0.0745  0.0031
 8977SOL    HW131869   6.470   9.101   3.039  0.7321 -1.1124 -0.4710
 8977SOL    HW231870   6.325   9.059   3.041  0.7175 -1.0665 -0.5423
 8978SOL     OW31871   9.869   9.109   1.191 -0.1120 -0.4576  0.7788
 8978SOL    HW131872   9.910   9.028   1.161  1.0224 -0.6887  2.7968
 8978SOL    HW231873   9.923   9.179   1.154 -0.4274 -0.6296 -0.0316
 8979SOL     OW31874   9.269   7.601   6.292 -0.0657  0.1124  0.8586
 8979SOL    HW131875   9.192   7.639   6.250  0.2073  1.0092  1.1414
 8979SOL    HW231876   9.342   7.626   6.235  0.0454 -0.5273  0.7187
 8980SOL     OW31877  10.619   9.679   8.158 -0.6315 -0.0158 -0.1653
 8980SOL    HW131878  10.639   9.636   8.241 -3.0945 -1.3622 -0.1782
 8980SOL    HW231879  10.602   9.608   8.097  1.4695  0.9431 -2.0081
 8981SOL     OW31880   7.409   9.191   3.618  0.2642 -0.0887 -0.0661
 8981SOL    HW131881   7.451   9.245   3.551 -0.7138 -1.0656 -1.5161
 8981SOL    HW231882   7.372   9.254   3.680 -1.5619  1.0012 -2.1466
 8982SOL     OW31883   2.994   0.137   4.431 -0.4089  0.2818 -0.6648
 8982SOL    HW131884   3.087   0.120   4.447 -0.6354  1.2726  2.1945
 8982SOL    HW231885   2.953   0.050   4.433  0.2250 -0.0050 -0.2153
 8983SOL     OW31886   2.709   4.004   2.434  0.5159 -0.1490 -0.2555
 8983SOL    HW131887   2.668   4.068   2.376 -2.0169 -1.1258  0.3269
 8983SOL    HW231888   2.803   4.018   2.423  0.1082  0.9361 -3.1742
 8984SOL     OW31889   4.474   3.864   8.911 -0.0888  0.1720  0.5444
 8984SOL    HW131890   4.461   3.770   8.916 -0.1453  0.1866  0.6655
 8984SOL    HW231891   4.492   3.881   8.818 -1.1820  0.1761  0.3225
 8985SOL     OW31892   7.794  10.793   8.165 -0.1844  0.8387  0.2390
 8985SOL    HW131893   7.773  10.836   8.248 -0.0946 -3.0241  2.5061
 8985SOL    HW231894   7.890  10.789   8.164 -0.2096 -0.0304  0.5151
 8986SOL     OW31895   4.377   7.161  10.155  0.1526 -0.0208  0.1697
 8986SOL    HW131896   4.310   7.121  10.211 -0.5660  0.8637 -0.0310
 8986SOL    HW231897   4.414   7.231  10.208 -0.4722  0.7673 -0.4058
 8987SOL     OW31898   3.823   5.037   2.266 -0.4263 -0.3027  0.4223
 8987SOL    HW131899   3.895   5.070   2.320 -0.6263  0.7541  0.0828
 8987SOL    HW231900   3.784   4.967   2.318 -0.8122  0.8937  1.8156
 8988SOL     OW31901   8.471  10.600   2.945  0.1779  0.2344 -0.3206
 8988SOL    HW131902   8.497  10.509   2.955 -0.3421  0.1063 -0.1243
 8988SOL    HW231903   8.398  10.598   2.883 -0.0150  0.4843 -0.1062
 8989SOL     OW31904   2.020   4.592   5.409 -0.5057  0.1243  0.1429
 8989SOL    HW131905   2.013   4.502   5.439 -0.5080  0.0216 -0.1667
 8989SOL    HW231906   2.100   4.594   5.357 -0.8528  0.1451 -0.3957
 8990SOL     OW31907   0.556  11.645   6.645  0.1717 -0.0616 -0.1965
 8990SOL    HW131908   0.522  11.571   6.696 -1.0823 -0.0923 -1.0261
 8990SOL    HW231909   0.524  11.629   6.556 -0.3871  1.6506 -0.3257
 8991SOL     OW31910   4.822   0.887   7.962  0.5368 -0.5864 -0.0159
 8991SOL    HW131911   4.894   0.946   7.940 -0.5516  0.3538 -1.2866
 8991SOL    HW231912   4.792   0.854   7.877 -1.0088 -0.3385  0.4026
 8992SOL     OW31913   3.731   6.720   1.185 -0.1646  0.1152  0.6449
 8992SOL    HW131914   3.732   6.626   1.198 -0.1409 -0.1710 -1.1374
 8992SOL    HW231915   3.815   6.740   1.143 -0.3806  0.8457  0.5328
 8993SOL     OW31916   5.204   2.413   1.010  0.4039 -0.0677  0.2926
 8993SOL    HW131917   5.204   2.461   0.927 -2.1422 -0.6497 -0.1425
 8993SOL    HW231918   5.227   2.478   1.076  3.4766  0.2025 -0.8792
 8994SOL     OW31919   8.967   8.060   3.987  0.0551  0.0917 -0.0027
 8994SOL    HW131920   8.967   7.973   4.027 -0.2236 -0.3165 -0.8734
 8994SOL    HW231921   8.982   8.044   3.894  0.5630  1.0174 -0.0921
 8995SOL     OW31922   6.528   1.211   6.076  0.0309 -0.4367  0.5372
 8995SOL    HW131923   6.440   1.211   6.114 -0.3825 -0.6381 -0.4029
 8995SOL    HW231924   6.520   1.265   5.997  1.4234  1.9755  1.9189
 8996SOL     OW31925   3.487   5.994   0.035  0.3718 -0.1091  0.2006
 8996SOL    HW131926   3.544   6.071   0.044  0.6544 -0.4999  2.8279
 8996SOL    HW231927   3.403   6.029   0.008  0.9548  0.9118 -0.3624
 8997SOL     OW31928   3.028   4.669   9.005  0.1322 -0.6311  0.4512
 8997SOL    HW131929   2.951   4.720   8.983  0.3242 -0.4347  0.2310
 8997SOL    HW231930   3.077   4.725   9.066 -0.5876 -1.3232  1.7042
 8998SOL     OW31931  10.630  10.707  11.368  0.4421  0.8641 -0.1879
 8998SOL    HW131932  10.541  10.713  11.334 -0.2971 -2.8393  0.7640
 8998SOL    HW231933  10.620  10.685  11.460  2.3382  0.5159 -0.0232
 8999SOL     OW31934   1.455   2.984   4.996 -0.4967  0.2453  0.2301
 8999SOL    HW131935   1.519   2.940   5.053 -0.0405 -1.2335 -1.3398
 8999SOL    HW231936   1.447   2.927   4.920 -2.0872  1.4952 -0.6114
 9000SOL     OW31937  10.599   4.847   6.101 -0.3918  0.1433 -0.4026
 9000SOL    HW131938  10.678   4.824   6.051 -0.8291 -0.4095 -0.8475
 9000SOL    HW231939  10.620   4.821   6.191  0.6606  1.7714 -0.1362
 9001SOL     OW31940   1.249   3.986  11.123  0.0162  0.0406  0.1556
 9001SOL    HW131941   1.276   4.048  11.191  1.4460  0.6184 -0.8764
 9001SOL    HW231942   1.328   3.937  11.101 -1.1877 -2.6112  1.2998
 9002SOL     OW31943   2.447   0.674   6.982 -0.1241 -0.2266  0.1718
 9002SOL    HW131944   2.504   0.682   6.906  0.4771  1.0431  0.7341
 9002SOL    HW231945   2.491   0.610   7.039  0.7275  0.6646  0.5542
 9003SOL     OW31946   8.413   1.140   1.716  0.9276  0.4509 -0.6177
 9003SOL    HW131947   8.484   1.108   1.771  1.7839  1.5297 -1.0549
 9003SOL    HW231948   8.443   1.124   1.627 -0.4281 -1.2414 -0.8267
 9004SOL     OW31949   5.984   1.430   6.358 -0.2410  0.1418 -0.2604
 9004SOL    HW131950   5.987   1.373   6.281 -0.5686  1.0972 -1.0096
 9004SOL    HW231951   5.902   1.479   6.348  0.2760  1.1094  0.0781
 9005SOL     OW31952   0.470   9.849   8.612 -0.5421 -0.0795 -0.5394
 9005SOL    HW131953   0.425   9.766   8.594  2.2422 -1.9113  0.2431
 9005SOL    HW231954   0.530   9.860   8.539 -0.1211  0.6598 -0.0961
 9006SOL     OW31955   0.047   7.195   5.508 -0.0811 -0.6542  0.1235
 9006SOL    HW131956   0.007   7.214   5.593  0.6065  1.3039  0.0547
 9006SOL    HW231957   0.025   7.103   5.491 -3.2486 -0.1241  0.7686
 9007SOL     OW31958  10.937   4.786   9.555 -0.1776 -0.0162 -0.0663
 9007SOL    HW131959  11.011   4.831   9.513  1.0999 -1.4149  0.6117
 9007SOL    HW231960  10.931   4.702   9.509  0.0542 -0.7932  1.2750
 9008SOL     OW31961   0.642   9.806   2.177 -0.4368 -0.1419  0.6841
 9008SOL    HW131962   0.655   9.809   2.272 -0.7684  1.6482  0.6997
 9008SOL    HW231963   0.556   9.764   2.166 -0.3729 -0.4027  1.1538
 9009SOL     OW31964   1.531   5.499   5.621  0.2581 -0.4374  0.1651
 9009SOL    HW131965   1.453   5.446   5.635  0.5346 -0.8760  0.0927
 9009SOL    HW231966   1.526   5.569   5.686 -0.8034  0.2608 -0.6367
 9010SOL     OW31967   2.277   4.103   3.000  0.4000  0.2452 -0.0808
 9010SOL    HW131968   2.298   4.079   3.090 -0.2244 -0.0518 -0.0102
 9010SOL    HW231969   2.227   4.184   3.007 -0.3444 -0.2032 -0.0998
 9011SOL     OW31970   3.538   7.945  11.527 -0.0854 -0.1230  0.4465
 9011SOL    HW131971   3.575   7.984  11.607  0.7521  1.5332 -0.6924
 9011SOL    HW231972   3.444   7.939  11.546 -0.3233  2.7582  0.6613
 9012SOL     OW31973   8.633   8.924   6.821  0.0809  0.4443  0.0362
 9012SOL    HW131974   8.606   8.929   6.913 -0.3584 -0.8636 -0.0083
 9012SOL    HW231975   8.669   9.011   6.802  0.6247  0.5844  1.5747
 9013SOL     OW31976  11.638   8.765  11.067 -0.0197 -0.6977  0.3625
 9013SOL    HW131977  11.690   8.741  10.991  1.3259  0.5102  0.8619
 9013SOL    HW231978  11.695   8.749  11.142 -0.2100  0.9255  0.9040
 9014SOL     OW31979   2.027   8.568   0.293  0.2985  0.6057  0.0161
 9014SOL    HW131980   2.036   8.479   0.325 -1.7645  0.6286  0.7817
 9014SOL    HW231981   2.044   8.623   0.371  0.9718  0.8801 -0.3134
 9015SOL     OW31982   9.393   9.169   7.677  0.6951 -0.0873 -0.0992
 9015SOL    HW131983   9.438   9.156   7.594 -1.4792 -2.5466 -1.0320
 9015SOL    HW231984   9.315   9.114   7.672 -0.3604  0.8598  2.9811
 9016SOL     OW31985   1.045   2.773   4.625 -0.2765 -0.7092  0.6178
 9016SOL    HW131986   1.049   2.757   4.719 -2.2783 -2.9284  0.4386
 9016SOL    HW231987   0.954   2.798   4.609 -0.1553 -1.0600 -0.7898
 9017SOL     OW31988   4.701   5.563   5.539 -0.1794  0.2480 -0.2390
 9017SOL    HW131989   4.690   5.600   5.452 -0.6702 -0.6379 -0.5676
 9017SOL    HW231990   4.663   5.627   5.598 -0.9669  0.2958 -0.7915
 9018SOL     OW31991   6.730  11.487   9.411 -0.7287 -0.7822  0.5120
 9018SOL    HW131992   6.689  11.555   9.464 -1.0620  0.3467 -1.1137
 9018SOL    HW231993   6.660  11.453   9.356  0.1642  0.2862 -1.3957
 9019SOL     OW31994  11.027   3.434   6.430 -0.4609 -0.0451  0.3635
 9019SOL    HW131995  11.012   3.394   6.515  1.7287 -1.0792  0.3009
 9019SOL    HW231996  11.122   3.442   6.422 -0.5485 -0.5019 -2.2072
 9020SOL     OW31997   5.271   1.345   9.391  0.5364  0.1141 -0.0978
 9020SOL    HW131998   5.221   1.375   9.467  1.0680  1.9147 -0.4107
 9020SOL    HW231999   5.300   1.257   9.415  2.0874  1.2110  2.5559
 9021SOL     OW32000   1.438   3.739  10.002 -0.0049 -0.5438 -0.8192
 9021SOL    HW132001   1.386   3.818   9.988 -1.7084 -1.0853  1.6498
 9021SOL    HW232002   1.414   3.681   9.930 -1.3868 -0.0566 -0.7796
 9022SOL     OW32003   3.809  10.342   4.878 -0.2531  0.0805 -0.0165
 9022SOL    HW132004   3.902  10.333   4.898 -0.3838  1.1373  1.1818
 9022SOL    HW232005   3.780  10.414   4.933 -2.3081 -1.7495  1.4934
 9023SOL     OW32006   3.532   2.347   4.687 -0.1565  0.1642  0.0908
 9023SOL    HW132007   3.516   2.310   4.601  0.4801  1.3628 -0.5631
 9023SOL    HW232008   3.450   2.331   4.736 -0.7639  0.0610 -0.9360
 9024SOL     OW32009   0.449   8.347   8.403  0.5494  0.3445  0.1168
 9024SOL    HW132010   0.529   8.333   8.453  0.2175  0.3425  0.6624
 9024SOL    HW232011   0.439   8.269   8.349  0.5025 -0.0112  0.6312
 9025SOL     OW32012   3.677   9.863   8.606  0.1822  0.2413 -0.1748
 9025SOL    HW132013   3.672   9.916   8.685 -0.8081  0.6598 -0.5090
 9025SOL    HW232014   3.673   9.773   8.638  0.2291  0.3946  0.2728
 9026SOL     OW32015   3.475  10.061   7.200  0.3785  0.3933 -0.8139
 9026SOL    HW132016   3.496  10.011   7.279  0.5230  0.2979 -0.9130
 9026SOL    HW232017   3.420  10.001   7.149  0.5141  0.3527 -0.9119
 9027SOL     OW32018   7.933   4.632   1.554 -0.0396 -0.3797  0.3603
 9027SOL    HW132019   7.882   4.679   1.488 -0.7986 -0.0803  1.1478
 9027SOL    HW232020   7.869   4.577   1.599  0.3939 -0.2797  1.1130
 9028SOL     OW32021   0.065   9.798   7.139  0.1136 -0.3708 -0.2112
 9028SOL    HW132022   0.076   9.712   7.179  2.0676 -1.3220 -2.5447
 9028SOL    HW232023   0.116   9.857   7.195  0.7381 -1.1884  0.1085
 9029SOL     OW32024   8.655   7.293   4.887 -0.0165 -0.2678  0.7717
 9029SOL    HW132025   8.587   7.334   4.834 -0.0790 -0.4815  0.6859
 9029SOL    HW232026   8.690   7.222   4.832  0.0645 -0.3547  0.9319
 9030SOL     OW32027   4.780   4.115   5.973  0.4954  0.1727  0.0840
 9030SOL    HW132028   4.714   4.102   6.041  0.9162 -0.7863  0.3324
 9030SOL    HW232029   4.790   4.029   5.932  1.4305  0.3503 -0.0881
 9031SOL     OW32030   4.881   5.366   9.421  0.1102 -0.4841  0.0437
 9031SOL    HW132031   4.943   5.315   9.472 -0.1671 -1.1354 -0.2572
 9031SOL    HW232032   4.813   5.391   9.484 -0.1439 -1.1410  0.0409
 9032SOL     OW32033   0.464   3.917  10.531 -0.3239  0.1525  0.3266
 9032SOL    HW132034   0.407   3.841  10.520 -0.2611  0.0683  0.5653
 9032SOL    HW232035   0.458   3.964  10.448  0.2479 -0.5327 -0.1108
 9033SOL     OW32036   2.731   4.331   4.601  0.2049 -0.1078 -0.2316
 9033SOL    HW132037   2.721   4.426   4.596  0.3276 -0.0322  0.7865
 9033SOL    HW232038   2.730   4.302   4.510  0.0783  0.8598 -0.5476
 9034SOL     OW32039  11.525   9.000   7.711  0.2912  0.9470 -0.2380
 9034SOL    HW132040  11.551   9.092   7.716  0.7418  0.8086 -0.0132
 9034SOL    HW232041  11.548   8.964   7.796  0.6409  0.4953 -0.5175
 9035SOL     OW32042   7.170   5.224   6.643 -0.2298 -0.0696 -0.4903
 9035SOL    HW132043   7.087   5.255   6.608  0.4126  1.9120 -0.3555
 9035SOL    HW232044   7.148   5.191   6.731 -1.1103 -1.0889 -1.0666
 9036SOL     OW32045   3.544   4.875   6.997 -0.6436  0.1239  0.0189
 9036SOL    HW132046   3.552   4.799   7.054 -0.4916  1.5152  1.9387
 9036SOL    HW232047   3.450   4.890   6.989 -0.6616  0.0129  0.0240
 9037SOL     OW32048   4.221   4.301   5.514  0.2467 -0.3771  0.2467
 9037SOL    HW132049   4.272   4.221   5.497 -1.6686 -1.7539  0.5938
 9037SOL    HW232050   4.131   4.275   5.495 -0.2807  2.2200 -1.2212
 9038SOL     OW32051   5.845  10.252   7.368  0.5010  0.4196 -1.0391
 9038SOL    HW132052   5.925  10.200   7.368 -1.0521 -2.1389 -1.3694
 9038SOL    HW232053   5.779  10.195   7.407 -0.8362  3.1021  0.9530
 9039SOL     OW32054   3.407   0.475   6.335 -0.3813 -0.2329 -0.7121
 9039SOL    HW132055   3.480   0.483   6.396 -1.3291 -1.9915  0.7570
 9039SOL    HW232056   3.359   0.558   6.344  1.0449  0.6839 -1.2379
 9040SOL     OW32057   5.819  10.431   9.130  0.1877 -0.5470  0.2517
 9040SOL    HW132058   5.840  10.442   9.037 -1.9024  0.3994 -0.1846
 9040SOL    HW232059   5.895  10.464   9.177  1.0706 -0.5660 -1.1317
 9041SOL     OW32060  11.245   3.343   1.199 -1.0593 -0.2844  0.6758
 9041SOL    HW132061  11.174   3.408   1.198 -1.3032 -0.5362  1.0576
 9041SOL    HW232062  11.275   3.338   1.108 -2.7117 -1.4478  0.1455
 9042SOL     OW32063   4.493   2.992   9.769 -0.4275  0.4004 -0.1719
 9042SOL    HW132064   4.576   2.959   9.804  0.6397  0.2082 -2.6569
 9042SOL    HW232065   4.456   2.918   9.722 -2.9216 -0.0174  2.2383
 9043SOL     OW32066   1.439  10.233   6.730 -0.4678 -0.0073  0.0984
 9043SOL    HW132067   1.346  10.257   6.734 -0.1434  2.2613 -2.8274
 9043SOL    HW232068   1.485  10.313   6.759  0.6048 -0.5162 -0.1570
 9044SOL     OW32069   4.727   6.685   3.439  0.2145  0.6147 -0.1924
 9044SOL    HW132070   4.688   6.635   3.367 -0.0647  1.2444 -0.4787
 9044SOL    HW232071   4.681   6.653   3.517 -1.5449  1.9682 -0.6079
 9045SOL     OW32072   0.849   9.702   7.790 -0.1906 -0.4370  0.1013
 9045SOL    HW132073   0.939   9.734   7.798 -0.4898 -0.0387  2.8947
 9045SOL    HW232074   0.858   9.609   7.772  0.7469 -0.1021 -1.2535
 9046SOL     OW32075   2.244   4.024   9.339  0.0166 -0.0786 -0.0449
 9046SOL    HW132076   2.278   3.946   9.383  0.4036 -0.3231 -0.7689
 9046SOL    HW232077   2.301   4.096   9.369 -1.4041  0.2989  2.0296
 9047SOL     OW32078   4.475   1.024  11.149  0.2376  0.4137  0.0149
 9047SOL    HW132079   4.480   0.950  11.088  0.6185  1.4470 -1.2635
 9047SOL    HW232080   4.495   0.986  11.235 -1.1457 -1.2483 -0.3447
 9048SOL     OW32081   1.926   6.239   2.493  0.6916 -0.0968 -0.6382
 9048SOL    HW132082   2.017   6.238   2.463  0.9319  1.3667 -0.0148
 9048SOL    HW232083   1.931   6.232   2.588  0.0358 -1.9787 -0.6893
 9049SOL     OW32084   2.390   8.282  11.448  0.5330 -0.6226  0.4936
 9049SOL    HW132085   2.421   8.288  11.358  1.0216  2.1205  0.7509
 9049SOL    HW232086   2.355   8.193  11.456 -0.2558 -0.7024 -2.6072
 9050SOL     OW32087   4.646   3.243   4.528  0.7483 -0.6954  0.7073
 9050SOL    HW132088   4.626   3.291   4.608  1.5682 -1.4730  1.4028
 9050SOL    HW232089   4.606   3.157   4.540 -2.7456  0.4309 -1.5088
 9051SOL     OW32090   3.673   5.572  10.284  0.0067  0.3192 -0.2428
 9051SOL    HW132091   3.756   5.524  10.282  0.8625  1.7484 -0.7910
 9051SOL    HW232092   3.632   5.552  10.199 -0.6560 -1.0722  0.3705
 9052SOL     OW32093   1.314   6.586   4.547 -0.5272 -0.6316 -0.3496
 9052SOL    HW132094   1.403   6.553   4.548 -0.2687  0.0548  0.6024
 9052SOL    HW232095   1.309   6.641   4.469 -0.5829 -1.8352 -1.2345
 9053SOL     OW32096   6.764   2.043   5.739 -0.4811  0.1365  0.2017
 9053SOL    HW132097   6.798   2.074   5.823 -0.5769  1.2390 -0.1505
 9053SOL    HW232098   6.727   1.957   5.759  0.8796 -0.3041  0.9559
 9054SOL     OW32099   0.902   7.969  10.596  0.4788  0.2701 -0.2030
 9054SOL    HW132100   0.921   8.024  10.672 -1.1709  0.4123  0.1512
 9054SOL    HW232101   0.826   7.917  10.622  0.0612  0.1068 -1.6458
 9055SOL     OW32102   4.469  11.373   5.108  0.5054  0.3631 -0.0013
 9055SOL    HW132103   4.516  11.289   5.103 -3.6088 -2.3504  1.8455
 9055SOL    HW232104   4.464  11.392   5.202 -1.7781  0.6353 -0.1335
 9056SOL     OW32105  11.579   6.665   2.797 -0.6814 -0.0206 -0.3853
 9056SOL    HW132106  11.667   6.701   2.783 -1.3139  1.7617 -0.0855
 9056SOL    HW232107  11.578   6.640   2.890 -0.0898 -1.2920 -0.7051
 9057SOL     OW32108   8.124   2.694  10.849 -0.0414  0.0486 -0.6460
 9057SOL    HW132109   8.091   2.663  10.934  0.2926  2.4699  0.4375
 9057SOL    HW232110   8.072   2.772  10.830  1.8877  1.2657 -1.1768
 9058SOL     OW32111   8.106   3.513   7.127  0.1031  0.1565 -0.1952
 9058SOL    HW132112   8.071   3.454   7.193 -1.6393 -1.5154 -2.4554
 9058SOL    HW232113   8.200   3.493   7.124 -0.2674 -1.6982 -0.1071
 9059SOL     OW32114  11.010  10.403   9.732  0.3508  0.0175 -0.5532
 9059SOL    HW132115  11.094  10.388   9.777  0.0171  1.1134  0.5076
 9059SOL    HW232116  10.996  10.497   9.740 -1.7741 -0.3455  0.7591
 9060SOL     OW32117   2.907   8.280   5.673 -0.5618  0.1736  0.2284
 9060SOL    HW132118   2.930   8.189   5.694  0.3822  0.3126 -0.1855
 9060SOL    HW232119   2.886   8.278   5.580 -0.2821  0.4301  0.1603
 9061SOL     OW32120   2.630  11.375   9.861 -0.2320  0.5606 -1.5244
 9061SOL    HW132121   2.691  11.338   9.924  0.5830  0.5581 -2.3001
 9061SOL    HW232122   2.565  11.421   9.915 -0.1215 -0.2717 -0.6499
 9062SOL     OW32123   5.903   4.751   5.640 -0.0944 -0.3272 -0.1315
 9062SOL    HW132124   5.981   4.725   5.590 -0.5477 -0.7281 -0.6417
 9062SOL    HW232125   5.892   4.682   5.705 -0.2892 -0.5130 -0.3600
 9063SOL     OW32126   2.373   3.808   7.361  0.1984 -0.3909  0.5791
 9063SOL    HW132127   2.439   3.859   7.407  0.7100  0.9275 -1.4977
 9063SOL    HW232128   2.302   3.870   7.345 -1.1650 -1.5410  1.9286
 9064SOL     OW32129   4.819   8.046   7.792  0.4014  0.0974 -0.1585
 9064SOL    HW132130   4.807   7.960   7.832  0.7258  0.9110  1.7682
 9064SOL    HW232131   4.843   8.027   7.701  1.0527 -1.8574  0.3820
 9065SOL     OW32132   2.367   9.816   2.736  0.3808  0.0335  0.4480
 9065SOL    HW132133   2.455   9.798   2.702  0.7631  0.6292  1.0892
 9065SOL    HW232134   2.362   9.766   2.816 -0.2119 -0.7165 -0.0531
 9066SOL     OW32135   1.723   3.200  11.605 -0.9422 -0.3478  0.3338
 9066SOL    HW132136   1.813   3.229  11.621 -1.1074 -0.0385  0.7351
 9066SOL    HW232137   1.710   3.214  11.512 -1.3845  2.0490  0.6688
 9067SOL     OW32138   1.031   1.452   5.292  0.6791 -0.2644  0.2658
 9067SOL    HW132139   1.061   1.405   5.215  0.5974 -0.8239  0.5729
 9067SOL    HW232140   0.982   1.387   5.343 -0.4107  0.4399  0.1428
 9068SOL     OW32141   5.566   4.316   7.287 -0.0997 -0.3347 -0.3139
 9068SOL    HW132142   5.476   4.332   7.258 -0.2078  3.3464  1.4818
 9068SOL    HW232143   5.557   4.255   7.360 -0.7953 -1.8816 -1.6209
 9069SOL     OW32144   2.766   5.356  10.261  0.2108 -0.1997  0.6259
 9069SOL    HW132145   2.677   5.362  10.295  0.2227 -2.0512  1.0697
 9069SOL    HW232146   2.786   5.263  10.261  1.2880 -0.0475 -1.7511
 9070SOL     OW32147   0.962   7.072   3.737 -0.0693 -0.1530  0.0112
 9070SOL    HW132148   0.918   7.156   3.749  1.5232  0.6310  0.6795
 9070SOL    HW232149   0.998   7.051   3.824  0.0730 -1.2287 -0.2888
 9071SOL     OW32150   7.300   8.670   8.975 -0.1821 -0.0277 -0.0666
 9071SOL    HW132151   7.323   8.609   8.905 -0.0249  1.4610 -1.3450
 9071SOL    HW232152   7.362   8.649   9.045  0.9179 -0.2899 -1.0805
 9072SOL     OW32153  10.470   9.758  10.315  0.1886 -0.3423 -0.1039
 9072SOL    HW132154  10.452   9.802  10.398 -0.7711 -1.4188  0.2766
 9072SOL    HW232155  10.441   9.667  10.328 -2.1674 -0.0372 -2.3411
 9073SOL     OW32156   6.904   2.050   8.238 -0.1464  0.2813 -0.3862
 9073SOL    HW132157   6.824   2.095   8.265  0.0723  1.3492 -1.4338
 9073SOL    HW232158   6.899   2.048   8.142  0.3781 -0.9727 -0.4057
 9074SOL     OW32159   9.585   3.390   9.970 -0.5373 -0.5155 -0.1349
 9074SOL    HW132160   9.551   3.311  10.011 -1.8577  0.2810  0.3592
 9074SOL    HW232161   9.654   3.420  10.030 -0.4343 -0.9524 -0.0272
 9075SOL     OW32162   9.123   1.133  11.532  0.2775 -0.2523  0.5185
 9075SOL    HW132163   9.076   1.201  11.582  1.4705 -1.4157  3.4928
 9075SOL    HW232164   9.083   1.051  11.560  0.9363 -0.9673 -0.5824
 9076SOL     OW32165   2.025   2.082   5.025 -0.1115 -0.7936 -0.1323
 9076SOL    HW132166   2.046   2.142   4.953  1.0417 -1.1690 -0.1292
 9076SOL    HW232167   2.079   2.112   5.098 -0.8294 -0.7840  0.4046
 9077SOL     OW32168   4.749   1.529   7.771 -0.0087 -0.2610 -0.2687
 9077SOL    HW132169   4.785   1.450   7.731 -1.1793 -0.1921 -1.5208
 9077SOL    HW232170   4.795   1.536   7.855  0.4616 -2.0024 -0.3367
 9078SOL     OW32171   0.023  10.904   1.840 -0.5703  0.4673 -0.2285
 9078SOL    HW132172   0.115  10.915   1.865 -0.2304 -0.5749 -0.9407
 9078SOL    HW232173  -0.012  10.841   1.904 -1.1996  1.9371  0.9195
 9079SOL     OW32174   1.629   5.085   1.852  0.3033  0.1994  0.3872
 9079SOL    HW132175   1.542   5.091   1.813  0.9680 -1.2183 -1.4703
 9079SOL    HW232176   1.672   5.167   1.829 -0.0675  0.3021  0.0596
 9080SOL     OW32177   1.624   2.428   6.973 -0.3126 -0.6627  0.2489
 9080SOL    HW132178   1.704   2.408   6.924  0.0227 -0.1877  0.5899
 9080SOL    HW232179   1.572   2.348   6.969 -0.2988 -0.6278 -0.9090
 9081SOL     OW32180   8.994   8.588   8.668 -0.0860 -0.3367 -0.7864
 9081SOL    HW132181   8.931   8.534   8.620 -0.1282 -0.8307 -0.1950
 9081SOL    HW232182   9.073   8.534   8.674 -0.6819 -1.0605  1.2843
 9082SOL     OW32183   7.906   1.828  11.235 -0.1081  0.4636  0.7357
 9082SOL    HW132184   7.944   1.830  11.323 -5.0012  1.3163  3.1706
 9082SOL    HW232185   7.872   1.916  11.222 -1.1846 -0.1805 -1.1866
 9083SOL     OW32186  10.829   3.080   8.550 -0.6604 -0.3496  0.1584
 9083SOL    HW132187  10.891   3.133   8.601 -1.6260  0.1696  0.8378
 9083SOL    HW232188  10.873   3.066   8.466 -0.7130  2.3551 -0.4277
 9084SOL     OW32189   2.053   6.709   1.766 -0.2065 -0.1791 -0.5674
 9084SOL    HW132190   2.105   6.775   1.720 -1.1201 -0.0418 -1.4398
 9084SOL    HW232191   2.116   6.642   1.792  0.5723  0.5274 -0.5818
 9085SOL     OW32192   6.963   9.073   2.372  0.0175  0.2703  0.3929
 9085SOL    HW132193   7.042   9.031   2.339 -1.0435  0.0715 -2.1095
 9085SOL    HW232194   6.952   9.038   2.460  2.3314 -0.1717  0.5587
 9086SOL     OW32195   9.811   4.490   5.299 -0.3085  0.0175  0.1485
 9086SOL    HW132196   9.900   4.518   5.318 -0.4857 -0.1848  1.3455
 9086SOL    HW232197   9.806   4.400   5.330 -1.3871  0.5565  1.6312
 9087SOL     OW32198   7.638  10.971   3.197 -0.2324  0.8431  0.3641
 9087SOL    HW132199   7.733  10.966   3.181 -0.4156 -0.4913 -0.4843
 9087SOL    HW232200   7.612  11.055   3.158  0.0487 -0.4192 -2.8190
 9088SOL     OW32201   3.817   0.028   1.751 -0.6264 -0.3712  0.2290
 9088SOL    HW132202   3.864   0.111   1.746 -2.8779  0.8928 -1.5469
 9088SOL    HW232203   3.886  -0.038   1.741  0.9628  1.3306 -0.8260
 9089SOL     OW32204   2.347   6.704   2.846 -0.2829  0.0643  0.0272
 9089SOL    HW132205   2.347   6.620   2.892  3.2671 -0.7891 -1.1901
 9089SOL    HW232206   2.309   6.684   2.760  1.1023 -0.5006 -0.4785
 9090SOL     OW32207   7.519   1.541  11.548  0.4775  0.1922 -0.1602
 9090SOL    HW132208   7.554   1.629  11.538 -0.0643  0.5781  1.1661
 9090SOL    HW232209   7.573   1.500  11.616 -0.4082  0.1394  0.5322
 9091SOL     OW32210   0.582  11.198   4.773  0.1349 -0.4491  0.1252
 9091SOL    HW132211   0.658  11.245   4.808 -0.8573 -0.2037  2.1037
 9091SOL    HW232212   0.573  11.121   4.830 -2.7238  0.9813  1.8540
 9092SOL     OW32213   1.905   2.478   5.546 -0.2022  0.4510  0.0327
 9092SOL    HW132214   1.853   2.404   5.517 -2.3839  1.6733  0.6249
 9092SOL    HW232215   1.955   2.445   5.620 -0.2027 -0.7191 -0.4652
 9093SOL     OW32216   6.468  11.323   7.539  0.2031 -0.0823  0.8889
 9093SOL    HW132217   6.531  11.269   7.489 -0.4012  0.3354 -0.3624
 9093SOL    HW232218   6.441  11.391   7.477 -0.4634  0.5423  1.8536
 9094SOL     OW32219   6.029   7.193   0.620  0.3707 -0.0974 -0.1849
 9094SOL    HW132220   5.948   7.185   0.569  0.4867  0.7479 -0.5245
 9094SOL    HW232221   6.099   7.188   0.555  0.5338  0.5736 -0.0758
 9095SOL     OW32222   1.684   1.822  10.820 -0.6348  0.0720  0.0131
 9095SOL    HW132223   1.730   1.906  10.812 -0.2853 -0.1298 -0.0876
 9095SOL    HW232224   1.740   1.759  10.776 -0.7227 -0.2814  0.3981
 9096SOL     OW32225   3.790   6.110   1.378 -0.4024 -0.0008  0.2781
 9096SOL    HW132226   3.743   6.187   1.347 -1.4453 -0.3978  0.8165
 9096SOL    HW232227   3.779   6.112   1.473 -1.0004 -1.1590  0.2524
 9097SOL     OW32228   8.643   3.902   9.251 -0.5765  0.0651 -0.0019
 9097SOL    HW132229   8.549   3.887   9.252 -0.7861  1.0607 -1.7304
 9097SOL    HW232230   8.653   3.996   9.238  0.6564 -0.1020 -0.4142
 9098SOL     OW32231   0.491   3.867  11.364 -0.2472  0.2170  0.0236
 9098SOL    HW132232   0.431   3.793  11.365  2.2139 -1.8912  0.0946
 9098SOL    HW232233   0.491   3.900  11.454 -2.2719  1.1972 -0.2687
 9099SOL     OW32234  11.578   5.943   5.253  0.0820 -0.4502 -0.1917
 9099SOL    HW132235  11.504   5.891   5.285  0.1994 -0.9647 -0.7461
 9099SOL    HW232236  11.555   6.033   5.275 -0.4733 -0.6623  0.1083
 9100SOL     OW32237   8.408   8.630   0.698 -0.5305 -0.8449  0.2362
 9100SOL    HW132238   8.356   8.553   0.677  1.0097 -2.3487  1.6089
 9100SOL    HW232239   8.364   8.669   0.774 -1.0595 -0.5888 -0.1895
 9101SOL     OW32240   5.355   1.392  10.635 -0.0569 -0.1581  0.8394
 9101SOL    HW132241   5.365   1.324  10.702  1.1290  1.4677  2.4306
 9101SOL    HW232242   5.276   1.439  10.659 -0.3139 -0.3331  0.3487
 9102SOL     OW32243   4.425   4.477   4.360  0.3943  0.6572  0.6362
 9102SOL    HW132244   4.408   4.404   4.300 -1.9211  0.2448  1.6890
 9102SOL    HW232245   4.433   4.436   4.446  1.1604  1.4802  0.9786
 9103SOL     OW32246   2.330   5.789   8.573  0.2590  0.1261 -0.0200
 9103SOL    HW132247   2.287   5.766   8.656  2.3538  1.5087  1.5620
 9103SOL    HW232248   2.311   5.882   8.562 -0.1985 -0.0998 -1.2584
 9104SOL     OW32249   8.670   4.546   8.121 -0.1472 -0.4446 -0.0978
 9104SOL    HW132250   8.751   4.583   8.156  0.9433 -1.7664 -1.1211
 9104SOL    HW232251   8.603   4.612   8.141  1.1007  0.5170  1.0815
 9105SOL     OW32252   4.251   8.273   7.116  0.4531  0.0710  0.3281
 9105SOL    HW132253   4.294   8.190   7.097  0.0740  0.4361 -2.6730
 9105SOL    HW232254   4.321   8.338   7.111  0.0971  0.3717 -2.0035
 9106SOL     OW32255   7.858   2.455   1.326 -0.2018 -0.4368  0.0699
 9106SOL    HW132256   7.813   2.538   1.343  0.4670  0.1583 -0.9915
 9106SOL    HW232257   7.947   2.480   1.303  0.2270 -1.5072  0.5225
 9107SOL     OW32258   6.434  10.577   3.797 -0.0386  0.4649 -0.2322
 9107SOL    HW132259   6.504  10.605   3.738  1.2018  0.1564  1.0245
 9107SOL    HW232260   6.463  10.606   3.883 -2.0721  1.4074  0.1805
 9108SOL     OW32261   3.014   4.191   8.991 -0.3197  0.0012  0.2377
 9108SOL    HW132262   3.077   4.137   9.040  0.2748 -0.4613 -0.9841
 9108SOL    HW232263   2.978   4.131   8.926 -0.1028  0.9156 -0.7523
 9109SOL     OW32264   3.151  10.806   1.327 -0.2595  0.1958 -0.3046
 9109SOL    HW132265   3.164  10.804   1.232  0.8669 -2.2845 -0.1692
 9109SOL    HW232266   3.237  10.787   1.364 -0.5025  1.8641  1.2983
 9110SOL     OW32267   9.298   1.599   1.351 -0.2882 -0.0153  0.0066
 9110SOL    HW132268   9.337   1.654   1.283 -0.1898  1.8426  1.4624
 9110SOL    HW232269   9.215   1.570   1.314 -0.4696  1.3671 -0.7427
 9111SOL     OW32270   5.132   6.984   9.417 -0.5303 -0.1902  0.0377
 9111SOL    HW132271   5.048   7.023   9.440 -0.9176 -0.0548 -1.4926
 9111SOL    HW232272   5.145   6.915   9.482 -2.2873 -0.8329 -0.2389
 9112SOL     OW32273  11.475  11.019   5.881  0.2168  0.3776 -0.2512
 9112SOL    HW132274  11.537  11.049   5.948  0.1834  1.0731 -0.5275
 9112SOL    HW232275  11.438  10.939   5.918 -1.8646  2.1437  1.8765
 9113SOL     OW32276   7.160   0.764   6.508  0.4890 -0.3394  0.5964
 9113SOL    HW132277   7.155   0.779   6.602 -0.2377 -1.5231  0.7701
 9113SOL    HW232278   7.102   0.690   6.492 -0.6399  0.8240 -1.0356
 9114SOL     OW32279   8.419   8.770   8.274 -0.6571  0.4111  0.1201
 9114SOL    HW132280   8.346   8.817   8.234  1.5843  1.3319 -3.2418
 9114SOL    HW232281   8.465   8.729   8.201  0.6672 -2.5302  2.3700
 9115SOL     OW32282   6.727   5.134   1.811 -0.1829  0.1245  0.3156
 9115SOL    HW132283   6.742   5.227   1.797  0.2734 -0.0332 -0.2847
 9115SOL    HW232284   6.703   5.127   1.903 -0.9727  0.9261  0.1926
 9116SOL     OW32285  11.600   8.299   9.881 -0.0677 -0.2398 -0.3129
 9116SOL    HW132286  11.652   8.344   9.948  0.9470  0.5901 -1.6003
 9116SOL    HW232287  11.614   8.206   9.899  0.9248 -0.0300  0.0935
 9117SOL     OW32288   4.239   3.115  11.044 -0.1171 -0.4724  0.0978
 9117SOL    HW132289   4.217   3.194  10.994  0.8102 -1.3432 -1.7867
 9117SOL    HW232290   4.251   3.146  11.133  1.2678  1.7592 -0.7588
 9118SOL     OW32291   0.820   3.654   9.594 -0.3511 -0.0991  0.0177
 9118SOL    HW132292   0.767   3.714   9.646 -0.5912  0.9520 -1.3674
 9118SOL    HW232293   0.910   3.683   9.608 -0.5257  1.2642 -1.3768
 9119SOL     OW32294  10.387   8.128   2.813 -0.6008 -0.1505 -0.1807
 9119SOL    HW132295  10.418   8.167   2.731 -1.0632  0.5026 -0.0552
 9119SOL    HW232296  10.294   8.110   2.797 -0.4835 -0.8550 -0.1013
 9120SOL     OW32297   8.306   6.006   2.391 -0.0850 -0.0945 -0.3140
 9120SOL    HW132298   8.383   5.985   2.442 -1.0464 -0.6579  0.9622
 9120SOL    HW232299   8.303   5.940   2.322  0.2142 -0.4803  0.0401
 9121SOL     OW32300   1.115   0.100   3.921 -0.3038  0.6956  0.4933
 9121SOL    HW132301   1.123   0.006   3.907  1.4697  0.8567  0.1732
 9121SOL    HW232302   1.039   0.125   3.868 -0.8897 -0.5574  0.6923
 9122SOL     OW32303   6.111   2.592   9.209  0.3386  0.3842 -0.2590
 9122SOL    HW132304   6.050   2.592   9.136  0.7632 -0.1349 -0.6292
 9122SOL    HW232305   6.163   2.671   9.198 -0.1296  0.7244 -0.0530
 9123SOL     OW32306   4.240   7.622   0.069  0.0437  0.7074  0.1708
 9123SOL    HW132307   4.267   7.683   0.137  2.4328 -3.1527  3.1207
 9123SOL    HW232308   4.314   7.620   0.008  0.2310  0.3986  0.4024
 9124SOL     OW32309   2.498   0.410   4.698  1.0135  0.5292  0.1624
 9124SOL    HW132310   2.483   0.318   4.717 -1.5066  0.3154 -2.2686
 9124SOL    HW232311   2.455   0.457   4.770  1.6805 -0.1435  1.0245
 9125SOL     OW32312   4.715   7.704   9.628 -0.2579 -0.1600  0.1194
 9125SOL    HW132313   4.730   7.612   9.606 -0.7963 -0.0333 -0.8842
 9125SOL    HW232314   4.625   7.721   9.598 -0.6154  0.3712  1.4251
 9126SOL     OW32315   2.140   9.198   3.927 -0.2321  0.3366  0.1827
 9126SOL    HW132316   2.103   9.117   3.891  0.5426  0.9376 -2.1373
 9126SOL    HW232317   2.076   9.265   3.905 -0.9843  0.4062  2.3091
 9127SOL     OW32318   5.309   5.337   6.832 -0.1113  0.1430 -0.3269
 9127SOL    HW132319   5.217   5.312   6.823 -0.3615  1.1655 -0.7331
 9127SOL    HW232320   5.311   5.431   6.811  0.9963  0.1750 -0.1520
 9128SOL     OW32321   8.444   9.754   3.118  0.2908  0.0418 -0.7381
 9128SOL    HW132322   8.357   9.722   3.095 -0.8637  0.4727  2.5392
 9128SOL    HW232323   8.503   9.683   3.092 -1.0998 -0.6864 -2.0932
 9129SOL     OW32324   1.027   6.976   1.518  0.5170  0.6125 -0.5242
 9129SOL    HW132325   1.003   7.059   1.477  0.9239  2.0908  1.9939
 9129SOL    HW232326   1.122   6.972   1.510  0.4300 -0.0751 -1.3795
 9130SOL     OW32327   0.762   3.724  10.420 -0.3791  0.4420 -0.0280
 9130SOL    HW132328   0.738   3.632  10.427 -0.1680  0.3357 -0.6845
 9130SOL    HW232329   0.759   3.756  10.511 -0.9002 -0.0890  0.1503
 9131SOL     OW32330   9.707   6.298   8.213  1.1100  0.5395 -0.0275
 9131SOL    HW132331   9.660   6.370   8.255 -0.6301  0.0151 -0.9923
 9131SOL    HW232332   9.670   6.219   8.252  1.3290  0.1044 -0.6918
 9132SOL     OW32333   7.545  11.310   4.528 -0.3889 -0.1816  0.4337
 9132SOL    HW132334   7.477  11.362   4.487 -0.6366 -1.8374 -1.4114
 9132SOL    HW232335   7.627  11.353   4.503 -0.5437 -1.0545 -1.7595
 9133SOL     OW32336  11.543   3.163  11.435  0.0547 -0.2693  0.1560
 9133SOL    HW132337  11.453   3.176  11.405  0.2160 -0.6546 -0.5362
 9133SOL    HW232338  11.539   3.171  11.530 -0.5089  0.8400  0.0437
 9134SOL     OW32339   7.394   5.813   5.874 -0.2857 -0.1416 -0.2656
 9134SOL    HW132340   7.410   5.755   5.800 -0.0985  0.4043 -0.6566
 9134SOL    HW232341   7.482   5.841   5.902 -0.2814 -1.2705  0.9148
 9135SOL     OW32342   2.403   3.450   0.672  0.0774  0.7143 -0.0546
 9135SOL    HW132343   2.388   3.364   0.711 -0.0714  0.5913 -0.3793
 9135SOL    HW232344   2.374   3.441   0.581  2.7816  0.2404 -0.9705
 9136SOL     OW32345  10.908   4.320   4.604 -0.2319  0.3090 -0.2440
 9136SOL    HW132346  10.984   4.303   4.660  0.6243 -0.7158 -1.6560
 9136SOL    HW232347  10.843   4.356   4.664  0.5953 -0.8396  1.4598
 9137SOL     OW32348   3.021   8.827   8.932  0.2192 -0.5431  0.3371
 9137SOL    HW132349   3.024   8.812   9.027 -0.9269 -0.3819  0.4227
 9137SOL    HW232350   2.936   8.792   8.906  0.3706 -0.2467 -0.5694
 9138SOL     OW32351   7.585   2.683   5.617  0.2573  0.3214  0.2040
 9138SOL    HW132352   7.584   2.731   5.700 -0.0980  0.5570  0.0653
 9138SOL    HW232353   7.659   2.720   5.569  0.0857  0.6201  0.1648
 9139SOL     OW32354   2.894   4.822   7.778  0.0706 -0.4787  0.0353
 9139SOL    HW132355   2.855   4.747   7.734 -0.1316 -1.6340  2.0661
 9139SOL    HW232356   2.824   4.887   7.783 -0.5603 -1.1818  0.5472
 9140SOL     OW32357   0.258   3.120  11.374 -0.2950 -0.0851  0.7452
 9140SOL    HW132358   0.232   3.098  11.284 -0.5470 -1.5446  1.1392
 9140SOL    HW232359   0.200   3.067  11.429 -0.3414  1.0095  1.7911
 9141SOL     OW32360   2.604   5.814   2.505  0.1960  0.5251  0.1933
 9141SOL    HW132361   2.516   5.844   2.487 -0.2531 -1.0766 -0.5224
 9141SOL    HW232362   2.660   5.865   2.447 -0.4799  0.2981 -0.6732
 9142SOL     OW32363   5.085   3.084  11.315 -0.3351  0.3396  0.3090
 9142SOL    HW132364   5.006   3.073  11.369 -0.1293  0.5727  0.6652
 9142SOL    HW232365   5.112   2.995  11.294  0.2646  0.1812  1.6138
 9143SOL     OW32366   1.906   1.602   0.057  0.8471  0.3860 -0.0015
 9143SOL    HW132367   1.899   1.695   0.038  1.5517  0.4790  0.1670
 9143SOL    HW232368   1.910   1.560  -0.029  1.4830  0.5974 -0.0838
 9144SOL     OW32369   8.539   4.744   9.048 -0.3868 -0.7694  0.1287
 9144SOL    HW132370   8.539   4.824   8.995 -0.5378 -0.9186 -0.0991
 9144SOL    HW232371   8.452   4.742   9.088  0.3130  0.2599  1.7927
 9145SOL     OW32372  10.206   6.777   4.340 -0.7835  0.0959 -0.6797
 9145SOL    HW132373  10.275   6.738   4.287 -1.0900 -0.2651 -0.8194
 9145SOL    HW232374  10.198   6.867   4.306 -1.0164 -0.1484 -1.2873
 9146SOL     OW32375   3.723   6.274   7.122  0.3906  0.0688 -0.5021
 9146SOL    HW132376   3.712   6.345   7.185  0.1555  0.6328 -1.1569
 9146SOL    HW232377   3.813   6.283   7.092  0.5820 -0.3576 -0.0690
 9147SOL     OW32378  10.369   9.580  11.636  0.3322 -0.0014 -0.4813
 9147SOL    HW132379  10.446   9.565  11.692  0.7332  0.7799 -0.8133
 9147SOL    HW232380  10.325   9.655  11.675  0.1299 -0.0010 -0.7065
 9148SOL     OW32381  10.978   9.976  11.660  0.1806 -0.6218  0.0027
 9148SOL    HW132382  10.932  10.059  11.668  2.8847  1.1241 -1.3069
 9148SOL    HW232383  10.933   9.930  11.589  0.9386  1.4745 -1.9489
 9149SOL     OW32384   1.877  10.755   9.692  0.3247  0.1081 -0.7306
 9149SOL    HW132385   1.951  10.786   9.743  0.4013  1.0793 -1.4051
 9149SOL    HW232386   1.816  10.828   9.690 -1.3851 -1.1676  1.0990
 9150SOL     OW32387  10.012   5.998   6.859 -0.0340  0.0322 -0.6748
 9150SOL    HW132388   9.979   6.026   6.774  1.7878  0.1536 -1.3851
 9150SOL    HW232389  10.104   6.024   6.859 -0.2195  0.9841  1.7553
 9151SOL     OW32390   9.774   5.969   1.487 -0.0883 -0.1708  0.1457
 9151SOL    HW132391   9.720   6.041   1.454  0.0517 -0.7741 -1.5163
 9151SOL    HW232392   9.850   5.967   1.429  1.2819  0.0334  1.8477
 9152SOL     OW32393   3.116   1.118  10.572 -0.3988  0.4993 -0.1352
 9152SOL    HW132394   3.069   1.174  10.635 -0.8628  0.2611 -0.2676
 9152SOL    HW232395   3.047   1.067  10.530  0.1587 -1.7344  1.4816
 9153SOL     OW32396   9.397   1.224   4.030  0.6202 -0.9566 -0.3922
 9153SOL    HW132397   9.360   1.282   3.964 -0.7660  1.0160  1.9276
 9153SOL    HW232398   9.322   1.175   4.063  0.6175  0.4629  1.8944
 9154SOL     OW32399   4.384   2.866   7.581 -0.6720 -0.2890  0.3639
 9154SOL    HW132400   4.434   2.819   7.649  1.5442  0.3625 -0.7354
 9154SOL    HW232401   4.440   2.863   7.504 -2.4812  0.3150 -1.0312
 9155SOL     OW32402   7.365   1.585  10.606 -0.8344  0.1812 -0.4433
 9155SOL    HW132403   7.429   1.601  10.536  0.1310  0.3827  0.4496
 9155SOL    HW232404   7.415   1.596  10.687 -1.6008 -1.3036  0.2852
 9156SOL     OW32405   6.269   2.902  11.181  0.2238 -0.3071 -0.4329
 9156SOL    HW132406   6.259   2.834  11.248 -0.0015 -1.4846 -1.6149
 9156SOL    HW232407   6.347   2.876  11.132  1.4784  1.5549  0.4756
 9157SOL     OW32408   8.046   2.278   0.075  0.3089 -0.2634  0.0346
 9157SOL    HW132409   8.080   2.317  -0.006 -0.7576 -1.0430 -0.8189
 9157SOL    HW232410   8.068   2.342   0.143 -2.1337  2.3602 -1.4125
 9158SOL     OW32411   8.750   9.844   0.350  0.2489 -0.5517 -0.6171
 9158SOL    HW132412   8.828   9.822   0.401  0.9433  0.8744 -1.0324
 9158SOL    HW232413   8.683   9.860   0.416  0.6431 -0.5222 -0.2197
 9159SOL     OW32414   5.263   6.586   5.062  0.5242 -0.2211  0.1391
 9159SOL    HW132415   5.281   6.555   5.150 -0.5085 -1.4757 -0.0522
 9159SOL    HW232416   5.328   6.655   5.046  3.0444 -2.3168  0.5833
 9160SOL     OW32417  10.078   9.006   9.695  0.3262  0.7887 -0.3210
 9160SOL    HW132418  10.041   8.924   9.730 -0.8164  1.7070  0.7074
 9160SOL    HW232419  10.096   8.986   9.603 -0.3008 -0.4999 -0.1960
 9161SOL     OW32420   5.965   4.581   6.345  0.1826 -0.3373 -0.0333
 9161SOL    HW132421   5.917   4.498   6.342  0.5337 -0.5669  0.4469
 9161SOL    HW232422   5.948   4.622   6.260 -0.6270 -0.5373  0.0256
 9162SOL     OW32423   5.615   1.920  10.787 -0.2469  0.2478 -0.3165
 9162SOL    HW132424   5.568   1.839  10.770  0.6426 -0.2550 -0.4355
 9162SOL    HW232425   5.688   1.919  10.725 -0.8071  1.6394 -1.0349
 9163SOL     OW32426   0.042  11.420   2.104 -0.2885  0.2181 -0.4640
 9163SOL    HW132427   0.035  11.374   2.020  0.9882 -0.0239 -0.4557
 9163SOL    HW232428  -0.016  11.371   2.162  0.9581 -1.3814 -0.4861
 9164SOL     OW32429   9.179   3.131   6.006 -0.1840  0.7270 -0.0468
 9164SOL    HW132430   9.172   3.196   6.076  0.2969  1.4698 -0.6678
 9164SOL    HW232431   9.093   3.131   5.965 -0.7401 -0.3435  1.0721
 9165SOL     OW32432   2.446   8.250   0.027  0.0940 -0.1930  0.4519
 9165SOL    HW132433   2.537   8.247  -0.003  0.4195  0.0913  1.3921
 9165SOL    HW232434   2.397   8.275  -0.051  0.9631  0.8903  0.2272
 9166SOL     OW32435   0.170   6.033   1.222 -0.0950 -0.2205 -0.2900
 9166SOL    HW132436   0.228   6.108   1.207  1.1930 -1.2278 -0.5145
 9166SOL    HW232437   0.156   6.033   1.317  3.3788 -2.0925  0.3642
 9167SOL     OW32438   7.700   7.035   4.413 -0.3482  0.1980  0.0065
 9167SOL    HW132439   7.776   7.082   4.448 -0.8723 -0.6268  2.4409
 9167SOL    HW232440   7.681   6.967   4.478 -4.4573  1.6878  0.6672
 9168SOL     OW32441   9.597   8.208   4.293 -0.6409  0.0942  0.3424
 9168SOL    HW132442   9.633   8.127   4.255 -0.2034  0.3262  0.2534
 9168SOL    HW232443   9.599   8.193   4.388  1.0794  0.6609  0.4241
 9169SOL     OW32444  10.555  10.347   2.323  0.0769 -0.5943 -0.3193
 9169SOL    HW132445  10.477  10.382   2.366  0.6963  0.3014  0.1104
 9169SOL    HW232446  10.626  10.404   2.353  0.7982 -1.0191 -1.1834
 9170SOL     OW32447  10.701   5.379   1.477  0.5333  0.3676  0.3654
 9170SOL    HW132448  10.679   5.430   1.399  2.4615 -1.3269 -1.3657
 9170SOL    HW232449  10.781   5.420   1.511  1.4030 -0.7186 -0.3309
 9171SOL     OW32450   9.890   6.865   1.219  0.3875 -0.4000  0.7626
 9171SOL    HW132451   9.847   6.872   1.304  1.3408 -0.4760  1.2610
 9171SOL    HW232452   9.911   6.956   1.196 -1.2237 -0.2166 -0.1257
 9172SOL     OW32453   4.772  11.221   1.156 -0.1379  0.0661  0.1602
 9172SOL    HW132454   4.715  11.235   1.232  0.4590 -1.7828  0.9996
 9172SOL    HW232455   4.723  11.158   1.102  0.0885  0.2588 -0.2693
 9173SOL     OW32456   3.873   2.327   1.309 -0.2143  0.7203  0.6104
 9173SOL    HW132457   3.918   2.274   1.374 -0.9142 -1.0748 -0.2966
 9173SOL    HW232458   3.902   2.292   1.225 -2.1213  0.4865 -0.0047
 9174SOL     OW32459  11.352   5.149   0.697 -0.2543  0.8980  0.3887
 9174SOL    HW132460  11.299   5.215   0.742 -0.9566 -0.3001  1.3880
 9174SOL    HW232461  11.442   5.170   0.722 -0.6676 -0.3694  3.4266
 9175SOL     OW32462  10.170   7.182   4.813  0.2115  0.6503 -0.5561
 9175SOL    HW132463  10.112   7.106   4.821  0.5605  0.4713  0.3995
 9175SOL    HW232464  10.216   7.168   4.730  0.4683 -0.3317 -0.2681
 9176SOL     OW32465   0.834   4.812   4.029  0.1806 -0.0250 -0.1108
 9176SOL    HW132466   0.918   4.856   4.032  0.9260 -1.4344  0.7900
 9176SOL    HW232467   0.798   4.833   3.942  1.4706  0.5617 -0.5170
 9177SOL     OW32468   7.902   7.218   5.188  0.7093 -0.9301 -0.0640
 9177SOL    HW132469   7.924   7.254   5.274 -0.8162 -1.9768  0.8148
 9177SOL    HW232470   7.871   7.294   5.138  3.5410  0.0823 -0.4662
 9178SOL     OW32471   7.356   7.988   5.106  0.0022  0.0881  0.1638
 9178SOL    HW132472   7.382   7.991   5.014 -0.3002  0.5618  0.0919
 9178SOL    HW232473   7.356   8.080   5.134 -0.2756 -0.0212  0.5308
 9179SOL     OW32474   4.158   4.892   2.429 -0.7189  0.0539 -0.1595
 9179SOL    HW132475   4.218   4.896   2.503  0.7666  1.9147 -1.3636
 9179SOL    HW232476   4.088   4.954   2.451 -1.2404 -0.7284  0.4330
 9180SOL     OW32477  10.793   0.245   3.595 -0.2982  0.0966  0.3468
 9180SOL    HW132478  10.726   0.314   3.597  0.2065  0.5703  2.0011
 9180SOL    HW232479  10.749   0.167   3.626 -1.0900 -0.6132 -2.2782
 9181SOL     OW32480   5.009   1.622   6.763  0.3456  0.1731  0.1742
 9181SOL    HW132481   4.955   1.689   6.721  0.0923 -1.2777 -1.9348
 9181SOL    HW232482   4.966   1.539   6.742  1.9080 -0.8296  0.7551
 9182SOL     OW32483   8.593   8.351   4.655 -0.0993  0.6095 -0.3691
 9182SOL    HW132484   8.612   8.286   4.723 -1.2186  1.2522  0.5925
 9182SOL    HW232485   8.649   8.425   4.677  0.8580  0.1675 -1.2165
 9183SOL     OW32486   6.042  10.248   2.952  0.3255 -0.6957  0.4080
 9183SOL    HW132487   6.082  10.172   2.995  0.6650 -0.4256  0.5706
 9183SOL    HW232488   5.963  10.213   2.911  0.4079 -1.1118  0.5978
 9184SOL     OW32489   3.236   2.087   0.355 -0.1741  0.3521 -0.3134
 9184SOL    HW132490   3.254   2.161   0.297 -0.6818 -0.8159 -2.0632
 9184SOL    HW232491   3.151   2.054   0.326 -0.1930 -0.6048  0.7605
 9185SOL     OW32492   8.163   1.039   3.507  0.1301 -0.5642  0.9728
 9185SOL    HW132493   8.077   1.021   3.545  0.3062 -1.0450  1.1502
 9185SOL    HW232494   8.220   1.057   3.582 -0.0877  1.0147  0.7953
 9186SOL     OW32495   0.503  10.103   9.303  0.0038 -0.2380 -0.5333
 9186SOL    HW132496   0.534  10.086   9.214 -0.8904  0.5739 -1.0170
 9186SOL    HW232497   0.407  10.103   9.296 -0.1792 -2.4176  0.8675
 9187SOL     OW32498   1.250   8.035   4.412  0.0431  0.1253  0.3849
 9187SOL    HW132499   1.159   8.036   4.382 -0.6218 -0.3008  2.2298
 9187SOL    HW232500   1.280   7.946   4.392  0.6721  0.7577 -1.7812
 9188SOL     OW32501   0.685   3.721   7.792 -0.0405 -0.0668 -0.8117
 9188SOL    HW132502   0.593   3.735   7.814  0.2571 -0.9945  1.2799
 9188SOL    HW232503   0.726   3.806   7.805 -0.2787 -0.0978  0.2622
 9189SOL     OW32504  11.191   6.177   7.879  0.1803 -0.2123  0.0008
 9189SOL    HW132505  11.199   6.157   7.786 -0.2065 -0.5687  0.0391
 9189SOL    HW232506  11.214   6.095   7.923 -0.2741 -0.2390  0.1957
 9190SOL     OW32507   5.108   4.192   2.628 -0.6305  0.5209  0.1667
 9190SOL    HW132508   5.156   4.241   2.695 -1.4630  1.5741  0.0220
 9190SOL    HW232509   5.017   4.195   2.656 -0.5707 -2.2804  0.9353
 9191SOL     OW32510   6.752   9.913   9.331  0.0959 -0.4034  0.0783
 9191SOL    HW132511   6.702   9.874   9.402  0.1905  1.8639  1.5100
 9191SOL    HW232512   6.717  10.002   9.323  0.3185 -0.4793 -2.5313
 9192SOL     OW32513   9.143   8.959   8.917  0.1659 -0.2378  0.0243
 9192SOL    HW132514   9.128   8.976   8.824 -1.7450 -0.3682  0.2609
 9192SOL    HW232515   9.150   9.046   8.957  1.0429 -0.1822 -0.2310
 9193SOL     OW32516   8.436  11.577   8.669 -0.2560 -0.5467 -0.2077
 9193SOL    HW132517   8.436  11.607   8.578 -1.2155  1.6940  0.4750
 9193SOL    HW232518   8.517  11.612   8.706  0.3092 -1.7554 -0.2701
 9194SOL     OW32519   0.781   6.892   8.803 -0.2023 -0.3328 -0.0718
 9194SOL    HW132520   0.806   6.888   8.895 -0.4244 -0.6542 -0.0251
 9194SOL    HW232521   0.775   6.986   8.784  2.4660 -0.1606 -0.4727
 9195SOL     OW32522  10.190  10.966   2.611  0.2227  0.4861 -0.0368
 9195SOL    HW132523  10.281  10.995   2.609  0.3664  0.1888  1.1590
 9195SOL    HW232524  10.159  10.977   2.521  1.5688  0.1353 -0.5691
 9196SOL     OW32525   0.001   9.625   1.331 -0.3067  0.4625  0.1573
 9196SOL    HW132526   0.030   9.538   1.356 -0.3262 -0.0022 -1.3579
 9196SOL    HW232527  -0.050   9.612   1.251  2.2271  2.1396 -1.8994
 9197SOL     OW32528   0.224  10.581   6.228  0.5872  0.5680 -0.2577
 9197SOL    HW132529   0.237  10.583   6.133  0.8576  0.1888 -0.2313
 9197SOL    HW232530   0.312  10.595   6.264  0.9268 -1.7111 -0.0696
 9198SOL     OW32531   1.922   6.465   5.543 -0.0978  0.1959 -0.3721
 9198SOL    HW132532   1.881   6.523   5.608  1.3231  0.4986  0.3063
 9198SOL    HW232533   1.917   6.514   5.461  1.3425  1.4580  0.2485
 9199SOL     OW32534  10.860  10.702   6.935  0.2803 -0.6077  0.4597
 9199SOL    HW132535  10.874  10.792   6.965 -1.1010  0.3388 -1.4760
 9199SOL    HW232536  10.770  10.682   6.960 -0.5913 -0.1278 -1.9712
 9200SOL     OW32537   8.378   2.435   0.920  0.7436  0.1203 -0.2969
 9200SOL    HW132538   8.369   2.467   1.010 -1.8255 -0.1702 -0.3541
 9200SOL    HW232539   8.337   2.348   0.922  1.1290 -0.1133 -1.6303
 9201SOL     OW32540   1.234   2.945   1.009  0.1276  0.3000 -0.2138
 9201SOL    HW132541   1.297   2.888   0.964 -1.4270 -0.7327 -1.2197
 9201SOL    HW232542   1.215   3.014   0.945  1.0404  1.2386  0.5096
 9202SOL     OW32543   8.349   2.424   1.437 -0.0060  0.0177 -0.0376
 9202SOL    HW132544   8.307   2.340   1.420 -1.4560  0.4906  0.9844
 9202SOL    HW232545   8.443   2.406   1.433 -0.2809 -1.7901  0.8340
 9203SOL     OW32546  11.671   4.940   1.661  0.1489 -0.1653  0.4599
 9203SOL    HW132547  11.690   4.850   1.689  0.1407 -0.1518  0.5092
 9203SOL    HW232548  11.656   4.933   1.567  1.0945 -0.0618  0.2914
 9204SOL     OW32549   3.252   2.756   5.301 -0.6318  0.4783 -0.3090
 9204SOL    HW132550   3.223   2.794   5.218  1.1636  0.2415 -1.0854
 9204SOL    HW232551   3.346   2.773   5.303 -0.2898 -1.3695  0.6793
 9205SOL     OW32552   4.903   2.030  10.894  0.0268  0.5370 -0.2873
 9205SOL    HW132553   4.824   2.044  10.843 -0.2843 -0.2626 -0.0483
 9205SOL    HW232554   4.974   2.035  10.830 -0.3332 -0.1466 -0.7531
 9206SOL     OW32555   4.761   4.880   4.436  0.6345  0.4454 -0.3502
 9206SOL    HW132556   4.724   4.967   4.418  0.1626  0.1336 -0.9171
 9206SOL    HW232557   4.708   4.820   4.384 -0.3866 -0.4361  1.5902
 9207SOL     OW32558   5.849   5.625   0.022  0.2205 -0.0612  0.1366
 9207SOL    HW132559   5.896   5.702  -0.011  0.2647  0.5901  1.6367
 9207SOL    HW232560   5.840   5.568  -0.054 -1.0393  2.0265 -1.4154
 9208SOL     OW32561   8.427   8.867   6.652 -0.4929 -0.0002  0.3646
 9208SOL    HW132562   8.377   8.792   6.686 -1.4232  0.4878  0.1222
 9208SOL    HW232563   8.488   8.889   6.722 -1.1846 -0.1032  1.0200
 9209SOL     OW32564   8.610   1.051   4.535  0.1250 -0.5008 -0.1000
 9209SOL    HW132565   8.652   0.994   4.471 -1.9410 -0.6945 -1.3838
 9209SOL    HW232566   8.549   1.104   4.484 -3.0029 -1.9344  1.7758
 9210SOL     OW32567   7.942   7.421   7.374 -0.2227  0.5710 -0.7144
 9210SOL    HW132568   7.960   7.508   7.410 -0.6369  1.3318 -2.2381
 9210SOL    HW232569   7.933   7.436   7.280 -0.4385 -1.1124 -0.9908
 9211SOL     OW32570   7.185   9.806   0.131 -0.3178  0.5443  0.0867
 9211SOL    HW132571   7.152   9.887   0.093  1.5618  1.8801  1.1706
 9211SOL    HW232572   7.254   9.833   0.192 -0.2993 -1.8006  1.2396
 9212SOL     OW32573   6.395   0.349   4.049 -0.0128 -0.1259  0.0290
 9212SOL    HW132574   6.453   0.416   4.084  0.1181 -0.0919 -0.2538
 9212SOL    HW232575   6.308   0.389   4.052 -0.4047 -0.9513  2.5449
 9213SOL     OW32576   6.347   6.682   1.476  0.1912 -0.2029  0.1794
 9213SOL    HW132577   6.335   6.699   1.383 -0.0106  1.8064  0.5336
 9213SOL    HW232578   6.269   6.632   1.501 -0.3907  0.3425 -0.4828
 9214SOL     OW32579   6.331   0.827   2.091 -0.0425 -0.5258 -0.0858
 9214SOL    HW132580   6.416   0.843   2.051 -0.6085 -0.2455 -1.2071
 9214SOL    HW232581   6.316   0.904   2.146 -0.5956  0.5800 -1.7093
 9215SOL     OW32582  10.011   9.527   1.952 -0.1599 -0.0001 -0.1570
 9215SOL    HW132583   9.960   9.483   1.884 -1.3551  0.2650  0.5371
 9215SOL    HW232584  10.102   9.514   1.927 -0.5379 -1.4457 -0.8344
 9216SOL     OW32585   2.044   1.386  11.202  0.2926 -0.1254 -0.1033
 9216SOL    HW132586   2.009   1.468  11.238  0.2581 -0.1634 -0.0511
 9216SOL    HW232587   2.112   1.414  11.140  0.0057 -0.0418 -0.3844
 9217SOL     OW32588   4.386   9.242   4.061  0.6659  0.0641  0.4700
 9217SOL    HW132589   4.423   9.312   4.115 -2.1072  1.5183  0.7197
 9217SOL    HW232590   4.448   9.230   3.990  2.0771  1.5545  1.3930
 9218SOL     OW32591   3.957   6.240   1.130  0.1318  0.8208 -0.1409
 9218SOL    HW132592   3.918   6.199   1.053 -0.9065  1.0110  0.2786
 9218SOL    HW232593   3.959   6.170   1.196  0.8729  0.7031 -0.2774
 9219SOL     OW32594   5.298   8.756   5.411  0.3994 -0.7625 -0.0447
 9219SOL    HW132595   5.313   8.722   5.499 -0.7379  0.1216  0.5196
 9219SOL    HW232596   5.325   8.684   5.353  1.8222 -1.0982  0.9790
 9220SOL     OW32597  10.535   4.142   3.240 -0.2545 -0.6032  0.7764
 9220SOL    HW132598  10.622   4.103   3.250  0.2099  0.7004  2.1844
 9220SOL    HW232599  10.479   4.069   3.213  1.1627 -1.5776  0.3490
 9221SOL     OW32600  10.449   6.682   4.977  0.1866 -0.1245 -0.2317
 9221SOL    HW132601  10.476   6.591   4.988 -0.5065 -0.0988  2.1775
 9221SOL    HW232602  10.521   6.723   4.930  0.5052 -1.8913 -1.3849
 9222SOL     OW32603   1.589   5.735   0.303  0.1833 -0.3474 -0.5073
 9222SOL    HW132604   1.635   5.754   0.385 -0.2827  2.3462 -0.7779
 9222SOL    HW232605   1.658   5.722   0.239  0.5492 -2.0566  0.1747
 9223SOL     OW32606   4.094   9.366   0.861 -0.1261  0.4025  1.3243
 9223SOL    HW132607   4.049   9.383   0.778  0.5221  1.2626  1.1412
 9223SOL    HW232608   4.166   9.308   0.838 -0.7930 -0.5469  1.5361
 9224SOL     OW32609   0.525   3.591  11.193 -0.5025 -0.2198  0.7177
 9224SOL    HW132610   0.465   3.625  11.127 -0.4076 -0.7864  0.3399
 9224SOL    HW232611   0.475   3.594  11.275 -0.9423 -0.4097  0.4577
 9225SOL     OW32612   0.475   3.683   1.536 -0.0056  0.7548 -0.0475
 9225SOL    HW132613   0.555   3.686   1.484 -0.6352 -1.8648 -1.3545
 9225SOL    HW232614   0.433   3.600   1.511 -1.3752  0.2977  3.1832
 9226SOL     OW32615   9.230   5.955   8.290  0.1751  1.0829  0.1684
 9226SOL    HW132616   9.302   6.018   8.295  1.8889 -0.7189 -0.4202
 9226SOL    HW232617   9.223   5.919   8.379  0.8846  0.3766 -0.0468
 9227SOL     OW32618   6.848  10.407   9.345  0.3922 -0.1197 -0.4761
 9227SOL    HW132619   6.759  10.440   9.335  1.3546  2.4660 -1.2061
 9227SOL    HW232620   6.867  10.416   9.438  0.4426  0.8948 -0.5787
 9228SOL     OW32621   1.445   8.959   3.573  0.3859 -0.2191 -0.4585
 9228SOL    HW132622   1.494   8.917   3.503 -1.6303 -0.8000 -1.5879
 9228SOL    HW232623   1.512   9.002   3.626  2.2490 -2.2783 -0.9864
 9229SOL     OW32624   6.219   7.393   8.328 -0.1304 -0.0249  0.4462
 9229SOL    HW132625   6.311   7.417   8.336 -0.0605 -0.1105 -0.0966
 9229SOL    HW232626   6.194   7.365   8.416 -0.1500  1.7630  1.0471
 9230SOL     OW32627   9.342   7.114   6.792  0.0906 -0.5985  0.2669
 9230SOL    HW132628   9.295   7.134   6.873  1.1322 -0.1761  0.7723
 9230SOL    HW232629   9.424   7.162   6.798 -0.4617  0.7338 -1.7367
 9231SOL     OW32630   2.728   0.648   8.529 -0.1774  0.0244 -0.1731
 9231SOL    HW132631   2.674   0.569   8.520 -0.3744  0.2466 -1.0512
 9231SOL    HW232632   2.672   0.711   8.573 -0.5892  0.1896 -0.9100
 9232SOL     OW32633   2.420   3.698   0.358 -0.5020  0.3525  0.0927
 9232SOL    HW132634   2.385   3.609   0.361 -2.0155  0.8220 -1.6318
 9232SOL    HW232635   2.348   3.753   0.390 -0.4273  1.1198 -0.9887
 9233SOL     OW32636   8.595   6.826   1.535 -0.1716 -0.3823 -0.2212
 9233SOL    HW132637   8.582   6.920   1.530 -1.7491 -0.5635 -0.1253
 9233SOL    HW232638   8.650   6.813   1.612  0.0341  0.4441 -0.2183
 9234SOL     OW32639   2.367   2.276   7.303  0.0554  0.6358 -0.1209
 9234SOL    HW132640   2.351   2.182   7.301  0.6959  0.5326 -1.4781
 9234SOL    HW232641   2.290   2.315   7.263  1.1171  0.4379 -2.5145
 9235SOL     OW32642   0.190   6.112  10.931 -1.1070 -0.3798  0.3089
 9235SOL    HW132643   0.158   6.041  10.875  0.7107 -0.8908 -0.1509
 9235SOL    HW232644   0.115   6.135  10.985 -1.8428 -2.4614  0.2681
 9236SOL     OW32645   1.420   1.738   5.808 -0.5537  0.2389 -0.1972
 9236SOL    HW132646   1.367   1.658   5.815  1.0233 -1.3024 -3.6202
 9236SOL    HW232647   1.505   1.713   5.845 -0.5204  0.8816  0.1694
 9237SOL     OW32648   7.149   9.545   9.705  0.0458 -0.1508  0.0913
 9237SOL    HW132649   7.233   9.551   9.749 -0.2782  0.5904  0.6293
 9237SOL    HW232650   7.085   9.570   9.772 -0.5883 -0.5847 -0.3422
 9238SOL     OW32651   3.771   2.659   6.666  0.2502 -0.4294  0.2120
 9238SOL    HW132652   3.774   2.695   6.755  1.3687 -0.0803  0.0438
 9238SOL    HW232653   3.861   2.632   6.648  0.9164  2.7710 -2.1459
 9239SOL     OW32654   5.266   2.799  11.668  0.4090 -0.0434 -0.4313
 9239SOL    HW132655   5.246   2.887  11.700 -0.3282  0.6767 -2.6709
 9239SOL    HW232656   5.341   2.811  11.609  0.7513 -1.0390 -0.2206
 9240SOL     OW32657   6.538   4.653   7.270 -0.3101 -0.2968 -0.3563
 9240SOL    HW132658   6.568   4.587   7.333 -0.8798  1.1488  1.5622
 9240SOL    HW232659   6.618   4.691   7.235  0.1728  0.8270  1.7464
 9241SOL     OW32660   1.362   0.559   9.384 -0.0714  0.0068  0.0616
 9241SOL    HW132661   1.293   0.621   9.357 -1.1199 -0.5994  1.2469
 9241SOL    HW232662   1.356   0.488   9.321 -0.5874 -0.0654  0.1825
 9242SOL     OW32663  10.226   9.673   0.275  0.3651  0.6492  0.6203
 9242SOL    HW132664  10.157   9.711   0.330  1.3290  0.4050  2.0341
 9242SOL    HW232665  10.231   9.732   0.200 -1.2534  0.7693  0.5739
 9243SOL     OW32666   2.804   9.895   8.494  0.2298 -0.0665 -0.3390
 9243SOL    HW132667   2.733   9.943   8.450 -0.9868 -1.9793 -0.5571
 9243SOL    HW232668   2.824   9.822   8.436  1.9288  0.0450  0.0624
 9244SOL     OW32669   0.981   7.063   4.044  0.3903 -0.3309 -0.0590
 9244SOL    HW132670   0.908   7.001   4.052  0.7691 -0.6319  1.4186
 9244SOL    HW232671   1.015   7.071   4.133  0.7113  1.5942 -0.3256
 9245SOL     OW32672   7.276   8.198   0.111 -0.6256 -0.1357 -0.1666
 9245SOL    HW132673   7.274   8.126   0.174 -1.8577 -0.3606 -0.4374
 9245SOL    HW232674   7.280   8.155   0.025  1.4188  0.1710 -0.2740
 9246SOL     OW32675   0.765   5.349   3.043 -0.7554 -0.1932  0.2151
 9246SOL    HW132676   0.794   5.303   2.964 -2.3249 -1.6811  0.4519
 9246SOL    HW232677   0.716   5.425   3.010 -0.6409 -0.3078 -0.2235
 9247SOL     OW32678  11.422   0.387   6.974 -0.6146 -0.4437  0.2450
 9247SOL    HW132679  11.458   0.473   6.992  2.6370 -1.7858  0.7879
 9247SOL    HW232680  11.423   0.379   6.879 -0.8872  0.0526  0.1949
 9248SOL     OW32681   1.861   0.245   7.250 -0.1799 -0.2502 -0.1228
 9248SOL    HW132682   1.801   0.292   7.308 -2.0307 -1.8426 -0.6567
 9248SOL    HW232683   1.823   0.256   7.162 -1.6182 -3.8510 -0.1303
 9249SOL     OW32684  10.676   6.126   2.569 -0.2912  0.8445 -0.0516
 9249SOL    HW132685  10.647   6.093   2.654 -0.8669 -0.2581 -0.6620
 9249SOL    HW232686  10.647   6.060   2.506  1.5261  0.8281 -0.9518
 9250SOL     OW32687   9.910   3.955   4.691 -0.2687 -0.2626 -0.0876
 9250SOL    HW132688   9.950   4.037   4.720  0.0224 -0.7206  0.8542
 9250SOL    HW232689   9.920   3.896   4.766  0.0879 -1.3523 -0.9727
 9251SOL     OW32690   2.758   0.474  11.290  0.3108 -0.2346 -0.4124
 9251SOL    HW132691   2.850   0.474  11.265  0.1575  0.6301 -0.9931
 9251SOL    HW232692   2.713   0.427  11.219  0.1116  0.7062 -0.9353
 9252SOL     OW32693   9.562  10.215   0.775 -0.2160 -0.6551 -0.4274
 9252SOL    HW132694   9.492  10.248   0.831  0.5080 -0.4227  0.3730
 9252SOL    HW232695   9.634  10.278   0.787  0.8045 -1.8982  0.2848
 9253SOL     OW32696   8.186   0.222   3.817  0.2491  0.2608 -0.5075
 9253SOL    HW132697   8.217   0.294   3.872  1.2365 -0.1153 -0.5435
 9253SOL    HW232698   8.098   0.204   3.848  0.9566 -0.2912  1.3217
 9254SOL     OW32699  11.212   4.580  11.455  0.2148 -0.0517 -0.4372
 9254SOL    HW132700  11.130   4.618  11.423 -0.1527 -1.0221 -0.6900
 9254SOL    HW232701  11.214   4.493  11.415  1.9248  0.3773 -1.3639
 9255SOL     OW32702   3.155   6.205  11.416 -0.4153 -0.0007 -0.1447
 9255SOL    HW132703   3.186   6.121  11.383  0.6210  0.3198 -0.0231
 9255SOL    HW232704   3.214   6.270  11.376 -0.6630  0.5903  0.4349
 9256SOL     OW32705   7.812   1.077  10.239 -0.5609  0.0406 -0.2298
 9256SOL    HW132706   7.775   1.013  10.300 -0.4132 -1.4438 -1.6279
 9256SOL    HW232707   7.767   1.061  10.157  1.4887 -0.2288 -1.3614
 9257SOL     OW32708   1.882   5.249   8.449 -0.7872  0.1847  0.3490
 9257SOL    HW132709   1.937   5.303   8.393  0.8351  0.3373  2.0012
 9257SOL    HW232710   1.900   5.159   8.421 -3.2261  0.3424 -2.1638
 9258SOL     OW32711   7.019   2.649   5.953  0.0144 -0.5029  0.2037
 9258SOL    HW132712   7.042   2.696   6.033  1.3896 -0.0197 -0.4504
 9258SOL    HW232713   7.022   2.556   5.978 -1.9765 -0.3373  1.3034
 9259SOL     OW32714   7.437   2.423   4.280 -0.4463  0.2123  0.0070
 9259SOL    HW132715   7.531   2.424   4.301 -0.8525  2.1830  2.2861
 9259SOL    HW232716   7.401   2.353   4.335 -0.4326  0.1422 -0.0745
 9260SOL     OW32717   2.113   2.601   3.257 -0.1065 -0.0644 -0.2054
 9260SOL    HW132718   2.058   2.526   3.236  0.4480 -0.3872 -0.5273
 9260SOL    HW232719   2.202   2.572   3.237  0.1202  0.6558 -0.2702
 9261SOL     OW32720   0.961   1.189   0.912 -0.3381  0.0200 -0.5359
 9261SOL    HW132721   0.980   1.275   0.948  0.1892  0.4307 -1.7359
 9261SOL    HW232722   0.969   1.129   0.986  3.5045  0.4299 -0.4592
 9262SOL     OW32723   2.853   2.868   9.805 -0.0388 -0.1476  0.4279
 9262SOL    HW132724   2.855   2.947   9.859 -1.0884  0.5568 -0.4989
 9262SOL    HW232725   2.859   2.901   9.715  0.6944 -1.2225  0.0612
 9263SOL     OW32726   3.747   3.104   5.503  0.5116  0.3516 -0.4854
 9263SOL    HW132727   3.823   3.161   5.513  1.4472 -1.0614  1.0197
 9263SOL    HW232728   3.738   3.092   5.409  0.3281  2.8618 -0.8444
 9264SOL     OW32729   4.317   5.321   3.682  0.1289 -0.3714 -0.0396
 9264SOL    HW132730   4.355   5.306   3.769  0.1322  0.5377  0.1337
 9264SOL    HW232731   4.333   5.414   3.666 -2.0594  0.0669  0.0657
 9265SOL     OW32732   3.703   2.079   2.043  0.1311 -0.0492 -0.0554
 9265SOL    HW132733   3.716   1.988   2.016  2.6345  0.6352 -1.4901
 9265SOL    HW232734   3.655   2.074   2.125 -0.1183 -2.6474 -0.3034
 9266SOL     OW32735  10.457   0.242  11.236  0.4402 -0.0341 -0.1560
 9266SOL    HW132736  10.509   0.188  11.176  0.3035 -1.1361  0.6966
 9266SOL    HW232737  10.512   0.253  11.313 -0.4061 -0.8637  0.5884
 9267SOL     OW32738   2.917   2.699   8.007 -0.1130 -0.2587 -0.1569
 9267SOL    HW132739   3.006   2.682   8.039 -0.2217 -1.3612 -0.4171
 9267SOL    HW232740   2.926   2.778   7.954  0.7958 -0.5703 -0.4962
 9268SOL     OW32741   5.071   6.745   2.052  0.1602  0.7459 -0.4332
 9268SOL    HW132742   5.048   6.745   2.145  1.6189  0.3245 -0.0380
 9268SOL    HW232743   5.159   6.784   2.049  0.3568  0.2624 -1.5718
 9269SOL     OW32744   0.699  10.692   4.374 -0.0737 -0.3098 -0.7178
 9269SOL    HW132745   0.624  10.634   4.377  0.1218 -0.5297  0.8339
 9269SOL    HW232746   0.714  10.717   4.465  0.5532  1.2641 -1.2158
 9270SOL     OW32747   7.411   7.457   6.677 -0.0937 -0.0035 -0.5387
 9270SOL    HW132748   7.421   7.368   6.712  0.5691 -0.0180 -0.7388
 9270SOL    HW232749   7.465   7.512   6.733  0.9185 -0.0170 -1.4584
 9271SOL     OW32750   0.010   9.384   8.039 -0.2049 -0.3059 -0.1347
 9271SOL    HW132751   0.054   9.456   8.085  0.0319 -0.9972  0.7318
 9271SOL    HW232752   0.077   9.351   7.979  0.3965 -1.1556  0.9635
 9272SOL     OW32753   1.901   0.004   7.513 -0.0204 -0.4498 -0.8391
 9272SOL    HW132754   1.929  -0.087   7.498  1.3573 -0.1349 -0.3681
 9272SOL    HW232755   1.896   0.011   7.609  1.6155  0.4265 -0.7821
 9273SOL     OW32756   2.397   5.956   0.938 -0.0809  0.7673 -0.1014
 9273SOL    HW132757   2.439   6.042   0.941  0.6965  0.3654  0.8325
 9273SOL    HW232758   2.371   5.938   1.028  0.2157 -0.1942 -0.1929
 9274SOL     OW32759   8.583   0.129   9.896 -0.6993  0.0152 -0.0180
 9274SOL    HW132760   8.627   0.089   9.971 -1.8439  2.9170  2.3726
 9274SOL    HW232761   8.642   0.199   9.868 -2.0662  1.5825  0.8719
 9275SOL     OW32762   5.848   9.426  10.025  0.7659 -0.3982 -0.3659
 9275SOL    HW132763   5.845   9.344  10.075 -0.8682 -1.7644 -2.5135
 9275SOL    HW232764   5.812   9.403   9.939  2.0941  2.1457 -1.7206
 9276SOL     OW32765   8.818   1.356   1.022 -0.2046 -0.2827  0.1658
 9276SOL    HW132766   8.851   1.441   0.992 -2.2016  0.1841 -0.9521
 9276SOL    HW232767   8.783   1.374   1.109 -4.0149  1.1556 -1.4125
 9277SOL     OW32768   3.144   4.188   5.407 -0.3024 -0.0979  0.3851
 9277SOL    HW132769   3.080   4.132   5.363  1.0442  0.3418 -2.3281
 9277SOL    HW232770   3.091   4.243   5.465 -2.1714 -0.9477 -0.4183
 9278SOL     OW32771   9.743  11.688   2.933 -0.0764  0.1727 -0.2795
 9278SOL    HW132772   9.825  11.656   2.895 -0.5700 -1.0634 -0.3541
 9278SOL    HW232773   9.675  11.638   2.888 -0.7743 -0.0492  0.9629
 9279SOL     OW32774   2.404  11.487   8.565  0.2278  0.0337 -0.2865
 9279SOL    HW132775   2.456  11.421   8.610 -0.1353  0.3561  0.6289
 9279SOL    HW232776   2.324  11.441   8.540  0.4531 -0.1620 -0.6411
 9280SOL     OW32777  11.553   3.997   3.715 -0.1792  0.3682 -0.7424
 9280SOL    HW132778  11.562   3.977   3.622  0.9725  1.4194 -0.8775
 9280SOL    HW232779  11.566   4.091   3.721 -1.5816  0.5213  0.3368
 9281SOL     OW32780   1.557   0.943  10.271  0.2125  0.2107 -0.3896
 9281SOL    HW132781   1.517   0.861  10.301  1.8581  0.5058  3.0611
 9281SOL    HW232782   1.504   1.012  10.311  0.4282  0.7661 -1.0358
 9282SOL     OW32783   4.287   6.221   1.302  0.6107 -0.4493 -0.1799
 9282SOL    HW132784   4.271   6.282   1.230  0.3574  1.1127  1.1370
 9282SOL    HW232785   4.207   6.169   1.307  0.8178 -0.8990 -1.3127
 9283SOL     OW32786   8.927   7.739   9.561  0.0535 -0.6107 -0.3205
 9283SOL    HW132787   8.892   7.671   9.503 -1.9064 -2.1426  2.3974
 9283SOL    HW232788   8.912   7.821   9.514  0.9425 -1.8695 -3.0084
 9284SOL     OW32789   6.619   6.825   3.724  0.2921  0.1440  0.8101
 9284SOL    HW132790   6.530   6.806   3.694 -0.3788  2.3938  1.2114
 9284SOL    HW232791   6.610   6.851   3.815  1.5613 -0.7634  1.2379
 9285SOL     OW32792  11.166   2.543   3.096 -0.1061 -0.6422  0.2372
 9285SOL    HW132793  11.160   2.578   3.008  0.0862 -1.6256 -0.1857
 9285SOL    HW232794  11.229   2.598   3.141 -0.2174 -0.1284 -0.2339
 9286SOL     OW32795   3.892   3.238   0.112 -0.1175  0.4162  0.2973
 9286SOL    HW132796   3.836   3.169   0.147  0.2233 -0.1381 -0.2279
 9286SOL    HW232797   3.844   3.273   0.037  0.8590 -1.0924 -1.1014
 9287SOL     OW32798   7.329   0.250   5.163 -0.1024 -0.1812 -0.0537
 9287SOL    HW132799   7.277   0.322   5.129 -2.5274 -0.8901  1.8281
 9287SOL    HW232800   7.291   0.172   5.123  1.7420 -0.5775 -1.1718
 9288SOL     OW32801   3.657   6.574   9.009  0.3334  0.2283 -0.5302
 9288SOL    HW132802   3.578   6.573   9.062  0.8887 -1.2471  0.3206
 9288SOL    HW232803   3.677   6.482   8.994  2.4347  0.5387  0.1020
 9289SOL     OW32804   6.369  10.990   9.634  0.1199  0.0671  0.6307
 9289SOL    HW132805   6.297  11.005   9.696  1.7661  3.6181  1.9593
 9289SOL    HW232806   6.367  11.067   9.578  0.6609 -1.5859 -1.7845
 9290SOL     OW32807   6.593   2.687   3.249  0.7477 -0.7460  0.7917
 9290SOL    HW132808   6.661   2.704   3.183  0.4666  0.9641  0.8870
 9290SOL    HW232809   6.621   2.737   3.326 -0.3689 -0.3786  0.9812
 9291SOL     OW32810   4.745  10.805   6.284 -0.7804 -0.0935 -0.1687
 9291SOL    HW132811   4.704  10.878   6.239 -0.8925  1.2551  1.9705
 9291SOL    HW232812   4.679  10.735   6.281 -1.5117  0.5903 -0.4629
 9292SOL     OW32813   3.659   4.339   7.328 -0.4540 -0.2651 -0.0800
 9292SOL    HW132814   3.618   4.269   7.277 -2.1050  0.1730  0.5860
 9292SOL    HW232815   3.728   4.295   7.378 -1.0496 -1.3033 -0.1520
 9293SOL     OW32816  11.355   7.527   2.166  0.1830 -0.1480  0.4692
 9293SOL    HW132817  11.437   7.484   2.192 -0.5548 -1.5417  0.6061
 9293SOL    HW232818  11.368   7.619   2.188  0.8474 -0.6968  2.6454
 9294SOL     OW32819   7.508   6.894   5.295  0.1995 -0.0394 -0.2515
 9294SOL    HW132820   7.468   6.970   5.337  0.8827  0.5359 -0.6101
 9294SOL    HW232821   7.449   6.874   5.222 -0.1131 -0.0089 -0.0118
 9295SOL     OW32822   1.285   2.805   6.156  0.3908 -0.2686 -0.4807
 9295SOL    HW132823   1.328   2.775   6.076 -0.3505 -0.1777 -0.9258
 9295SOL    HW232824   1.284   2.900   6.148 -1.3254 -0.3219 -1.2658
 9296SOL     OW32825   1.153   5.571   6.357  0.3276 -0.4373 -0.7239
 9296SOL    HW132826   1.102   5.493   6.382  0.5644 -0.7804 -1.2741
 9296SOL    HW232827   1.155   5.567   6.261 -0.8009  0.9881 -0.8350
 9297SOL     OW32828   8.507  10.772   9.198  0.0039 -0.0339  0.0021
 9297SOL    HW132829   8.492  10.842   9.262  2.3331  0.1775  0.4001
 9297SOL    HW232830   8.566  10.812   9.133 -0.2683 -1.0353 -0.8811
 9298SOL     OW32831   6.410   6.058   7.304  0.2605  0.7712  0.0700
 9298SOL    HW132832   6.430   6.150   7.284 -1.0192  0.8565 -0.9464
 9298SOL    HW232833   6.338   6.036   7.245  1.5824 -1.3742 -0.8382
 9299SOL     OW32834  11.631   8.946   5.027  0.0036  0.3242 -0.4319
 9299SOL    HW132835  11.632   8.862   4.982  0.0445 -0.0107  0.1803
 9299SOL    HW232836  11.574   8.931   5.103 -0.5328  1.0401 -0.6793
 9300SOL     OW32837   9.679   0.250   9.796  0.2073  0.4563 -0.4186
 9300SOL    HW132838   9.738   0.275   9.726 -0.0776  0.5825 -0.6181
 9300SOL    HW232839   9.711   0.165   9.826  0.5609  0.5825 -0.4364
 9301SOL     OW32840   1.457  10.075   0.029  0.9720 -0.3401  0.7704
 9301SOL    HW132841   1.551  10.057   0.017  0.4414 -1.8193 -1.7763
 9301SOL    HW232842   1.421   9.991   0.058  0.0458 -0.6588 -1.1421
 9302SOL     OW32843   8.474  10.037   4.323 -0.0346  0.1190 -0.3643
 9302SOL    HW132844   8.419  10.074   4.392 -0.0149 -0.4083 -0.0561
 9302SOL    HW232845   8.524   9.968   4.367  0.7092  0.4412 -0.6916
 9303SOL     OW32846   7.938   2.557   3.103  0.4931 -0.2989 -0.9396
 9303SOL    HW132847   7.922   2.521   3.190  1.2683 -0.7145 -0.9564
 9303SOL    HW232848   8.033   2.552   3.092  0.4004 -0.3762 -1.8573
 9304SOL     OW32849   8.622   5.487   6.421 -0.0081 -0.9980  0.0733
 9304SOL    HW132850   8.592   5.504   6.510 -1.8632 -1.0088 -0.5158
 9304SOL    HW232851   8.616   5.571   6.376  3.3911 -0.3409  0.5332
 9305SOL     OW32852  11.205   9.047   5.293 -0.0138  0.9678 -0.3154
 9305SOL    HW132853  11.225   8.954   5.284 -0.3825  1.0428 -2.3591
 9305SOL    HW232854  11.172   9.073   5.207  2.9337  3.6840 -0.7965
 9306SOL     OW32855   9.105   7.770   1.676  0.4694 -0.3040  0.5591
 9306SOL    HW132856   9.010   7.776   1.675  0.4578  0.4168 -2.5344
 9306SOL    HW232857   9.125   7.684   1.639  0.9086  1.2629 -3.3135
 9307SOL     OW32858   9.406   5.563   2.019 -0.0227  0.3497 -0.3877
 9307SOL    HW132859   9.344   5.548   1.948  0.4844 -1.4744 -0.5003
 9307SOL    HW232860   9.354   5.553   2.099 -0.3406  1.1977 -0.4765
 9308SOL     OW32861   7.278  10.181   3.068  0.3443 -0.1752 -0.6197
 9308SOL    HW132862   7.341  10.245   3.035  0.3541  0.7866  1.1396
 9308SOL    HW232863   7.291  10.181   3.163 -1.3157 -1.0076 -0.3480
 9309SOL     OW32864   2.035   3.626  11.052 -0.3048  0.0049  0.5381
 9309SOL    HW132865   2.029   3.550  10.994 -0.5873  0.8027 -0.4844
 9309SOL    HW232866   1.946   3.659  11.058 -0.0102  0.8927  0.1163
 9310SOL     OW32867   0.054   2.166   3.539  0.1227  0.7661 -0.1702
 9310SOL    HW132868   0.093   2.096   3.591 -2.3385 -0.3563  0.3288
 9310SOL    HW232869   0.063   2.136   3.448  0.5486  0.6053 -0.0753
 9311SOL     OW32870   2.936   0.753   1.313 -0.6315 -0.0906  0.1643
 9311SOL    HW132871   2.880   0.829   1.295 -1.7544 -0.5712  1.4480
 9311SOL    HW232872   2.916   0.691   1.243  0.8512  1.0486 -1.3294
 9312SOL     OW32873   6.328  10.002   6.614 -0.4432  0.6293  0.1052
 9312SOL    HW132874   6.325  10.009   6.710 -0.0186 -1.9417  0.3821
 9312SOL    HW232875   6.357  10.088   6.585  2.3135  0.6600  2.5081
 9313SOL     OW32876   1.953   7.304   2.329  0.7057  0.2496 -0.0372
 9313SOL    HW132877   1.966   7.237   2.261 -0.9695  0.8888 -1.0458
 9313SOL    HW232878   2.041   7.320   2.363  1.7657  0.4925 -2.6233
 9314SOL     OW32879   3.667   3.067   0.228  0.2014 -0.5071 -0.4831
 9314SOL    HW132880   3.724   3.068   0.305 -1.8835  0.8625  1.1947
 9314SOL    HW232881   3.645   2.975   0.215  1.6577 -0.8937 -0.3021
 9315SOL     OW32882   1.102  11.378   8.775  0.2700  0.5261 -0.3714
 9315SOL    HW132883   1.154  11.310   8.817  0.1340  0.8910  0.4034
 9315SOL    HW232884   1.057  11.334   8.704  0.1298 -0.2079  0.1687
 9316SOL     OW32885   3.083   5.010   7.760  0.0612 -0.1922  0.3116
 9316SOL    HW132886   3.023   5.084   7.753  0.7893  0.2329 -2.7724
 9316SOL    HW232887   3.026   4.937   7.786 -1.9259  0.2070 -2.4157
 9317SOL     OW32888   0.541   4.868   6.323 -0.0231  0.6391 -0.2382
 9317SOL    HW132889   0.572   4.863   6.414  0.9164 -1.1240 -0.6118
 9317SOL    HW232890   0.534   4.777   6.295  0.8002  1.1574 -2.3008
 9318SOL     OW32891   7.226  10.662   8.141  0.2449  0.3728 -0.5079
 9318SOL    HW132892   7.154  10.627   8.087  0.4914 -0.7209 -0.1487
 9318SOL    HW232893   7.294  10.594   8.137  0.3059  0.3076  1.0868
 9319SOL     OW32894   0.528   3.068   9.771 -0.2732  0.3020 -0.4974
 9319SOL    HW132895   0.581   3.141   9.739 -0.8789  1.3299  0.7458
 9319SOL    HW232896   0.509   3.090   9.862 -1.0942 -1.0543 -0.3080
 9320SOL     OW32897   9.061  10.827   9.166 -0.6111 -0.3965  0.6838
 9320SOL    HW132898   9.114  10.756   9.128  0.2770 -0.1197  1.3665
 9320SOL    HW232899   9.049  10.801   9.257 -0.1472  0.4110  0.9771
 9321SOL     OW32900   2.557   5.730   7.453 -0.1084 -0.1060 -0.1320
 9321SOL    HW132901   2.489   5.796   7.437  0.9848  0.4985 -2.7319
 9321SOL    HW232902   2.529   5.654   7.403  0.6820 -0.1757 -0.4669
 9322SOL     OW32903   0.688   7.293   9.975  0.5194 -0.2446  0.6434
 9322SOL    HW132904   0.655   7.216   9.929  0.9555 -0.2528  0.3356
 9322SOL    HW232905   0.671   7.366   9.915  0.2987 -0.1272  0.8449
 9323SOL     OW32906   0.989   7.555   1.423  0.2874  0.0862 -0.0166
 9323SOL    HW132907   0.960   7.565   1.513  0.6763 -0.3809  0.1673
 9323SOL    HW232908   0.908   7.545   1.372  0.1111 -2.2863  0.6214
 9324SOL     OW32909   7.874  10.392   7.410  0.5616  0.3011  0.0290
 9324SOL    HW132910   7.914  10.348   7.485  2.0119 -0.2304 -1.0041
 9324SOL    HW232911   7.829  10.323   7.363  0.8552  0.3553 -0.3380
 9325SOL     OW32912   5.114   7.090   1.260  0.1374  0.2740  0.2692
 9325SOL    HW132913   5.169   7.109   1.184 -0.4459  2.7001  0.3747
 9325SOL    HW232914   5.166   7.030   1.312  0.9887 -0.6315 -1.5323
 9326SOL     OW32915   3.795   3.055   1.083 -0.1407 -0.2875 -0.3709
 9326SOL    HW132916   3.874   3.105   1.104 -0.6291  0.1788  0.4127
 9326SOL    HW232917   3.820   2.964   1.093  0.1025 -0.1171  0.6230
 9327SOL     OW32918   4.431   9.140   6.488  0.5698  0.2045  0.4476
 9327SOL    HW132919   4.474   9.078   6.429 -0.1824  1.3142 -1.3587
 9327SOL    HW232920   4.337   9.127   6.472  0.3393  0.4377  1.5260
 9328SOL     OW32921   0.115   6.053   5.885  0.0156 -0.3721  0.0089
 9328SOL    HW132922   0.088   6.064   5.977 -0.4588  0.1496 -0.1890
 9328SOL    HW232923   0.205   6.085   5.883  0.2986 -1.1082  0.4482
 9329SOL     OW32924   4.510   3.846  11.546  0.2255  0.0869 -0.4597
 9329SOL    HW132925   4.415   3.851  11.548  0.1431 -1.0293  1.1784
 9329SOL    HW232926   4.530   3.753  11.562  1.5964  0.0068 -2.2603
 9330SOL     OW32927   9.867   2.917  11.330  0.7013 -0.7013 -0.1435
 9330SOL    HW132928   9.798   2.974  11.363  0.2683 -0.1386 -1.9107
 9330SOL    HW232929   9.892   2.862  11.405 -1.8818 -1.1580  0.4550
 9331SOL     OW32930   1.218   4.718   6.815  0.1660  0.2568 -0.3296
 9331SOL    HW132931   1.183   4.710   6.727  0.9050  0.4208 -0.6528
 9331SOL    HW232932   1.212   4.630   6.852 -1.3495  0.4549 -0.0579
 9332SOL     OW32933   9.050  10.198  10.245  0.2391 -0.3035 -0.4154
 9332SOL    HW132934   9.098  10.210  10.327 -0.9693  0.3327  0.2256
 9332SOL    HW232935   8.978  10.260  10.250 -1.1206 -1.7549 -0.9889
 9333SOL     OW32936   7.309   9.462   4.442  0.0614  0.1211  0.0983
 9333SOL    HW132937   7.246   9.410   4.491  2.7512  0.8404  4.8723
 9333SOL    HW232938   7.384   9.404   4.431  1.1373  1.3168  0.8308
 9334SOL     OW32939   4.012   8.582   9.398  0.2958  0.2575  0.5633
 9334SOL    HW132940   3.971   8.656   9.443 -3.6032 -1.1715 -0.2572
 9334SOL    HW232941   3.967   8.505   9.431  0.0629 -1.2185 -2.7857
 9335SOL     OW32942   3.081   9.825   6.339 -0.1431  0.0459 -0.5795
 9335SOL    HW132943   3.101   9.784   6.254  0.4556 -0.0726 -0.3908
 9335SOL    HW232944   3.151   9.794   6.397  1.5926  2.9754 -0.9431
 9336SOL     OW32945  11.344   7.077   5.592 -0.6315  0.3233  0.0776
 9336SOL    HW132946  11.405   7.148   5.609  1.4592 -1.1025 -1.0273
 9336SOL    HW232947  11.345   7.067   5.497  1.1819 -2.7427  0.2809
 9337SOL     OW32948   2.978   2.586   4.123 -0.1666  0.3864  0.5609
 9337SOL    HW132949   2.914   2.527   4.161 -0.8738  0.8886  0.1810
 9337SOL    HW232950   2.993   2.652   4.190 -0.7372  0.7701  0.3212
 9338SOL     OW32951   2.100   5.717   3.225 -0.5600 -0.3560 -0.4894
 9338SOL    HW132952   2.125   5.786   3.163 -1.3194 -0.0609 -0.4713
 9338SOL    HW232953   2.026   5.753   3.273  0.1040 -0.5332  0.6925
 9339SOL     OW32954   7.800   0.021   9.440 -0.6525  0.1647  0.1028
 9339SOL    HW132955   7.886   0.022   9.397 -1.5732  2.4688 -1.9725
 9339SOL    HW232956   7.761  -0.062   9.413  0.5207 -0.4612  0.2629
 9340SOL     OW32957   6.684   3.585   9.930 -0.1286  0.7447  0.0955
 9340SOL    HW132958   6.727   3.575   9.844  1.9886  0.9124  1.0573
 9340SOL    HW232959   6.632   3.506   9.940 -1.5449  1.3506 -1.9121
 9341SOL     OW32960   5.016   2.424  10.002  0.1988 -0.5733  0.0171
 9341SOL    HW132961   4.925   2.452   9.994  0.6555  0.4924 -2.3317
 9341SOL    HW232962   5.022   2.345   9.948  0.4536 -1.3257  1.0991
 9342SOL     OW32963  10.301   5.126   0.454  0.8241  0.1209  0.2265
 9342SOL    HW132964  10.255   5.127   0.370 -1.3239  1.3734  1.3225
 9342SOL    HW232965  10.342   5.212   0.461 -1.7731  1.3548  1.7724
 9343SOL     OW32966   2.991   3.176   8.674  0.5707  0.3895 -0.1057
 9343SOL    HW132967   2.962   3.220   8.754  0.8711  1.2259 -0.4386
 9343SOL    HW232968   3.012   3.087   8.702  1.5904  0.9291  0.9472
 9344SOL     OW32969   3.049   0.340   5.702  0.9399  0.8115  0.3139
 9344SOL    HW132970   3.087   0.256   5.730  0.0762  0.4076  0.2951
 9344SOL    HW232971   3.124   0.400   5.700  2.0404 -0.4866 -1.9213
 9345SOL     OW32972   6.026   2.598   9.702 -0.5500 -0.0079 -0.1559
 9345SOL    HW132973   6.028   2.548   9.620  0.2461  0.4162 -0.4152
 9345SOL    HW232974   6.100   2.564   9.752 -2.1639 -1.6238  1.2572
 9346SOL     OW32975   4.316  11.301   1.213  0.7968  0.4497 -0.1256
 9346SOL    HW132976   4.283  11.248   1.141  2.8012  0.9012 -1.4514
 9346SOL    HW232977   4.377  11.243   1.260  1.7936  1.0410 -0.6429
 9347SOL     OW32978   6.472   2.598   0.965 -0.5282 -0.2710 -0.4120
 9347SOL    HW132979   6.564   2.623   0.960  0.0487 -1.5500  2.1260
 9347SOL    HW232980   6.432   2.638   0.888  1.6881  2.1969 -0.4313
 9348SOL     OW32981   1.915   3.119   3.677 -0.0705  0.5763  0.3731
 9348SOL    HW132982   1.955   3.171   3.607 -0.4873  0.0775 -0.2505
 9348SOL    HW232983   1.921   3.174   3.755  3.2745 -0.0494  0.7392
 9349SOL     OW32984   6.667  11.636   4.136 -0.5334  0.3656  0.2515
 9349SOL    HW132985   6.620  11.714   4.165  0.3732  1.8807 -2.0377
 9349SOL    HW232986   6.643  11.627   4.044 -0.1014 -1.7011  0.3058
 9350SOL     OW32987   6.312  10.095   3.057  0.1134 -0.0924 -0.0161
 9350SOL    HW132988   6.280  10.153   3.126 -0.2214 -0.0906 -0.1719
 9350SOL    HW232989   6.257  10.017   3.063  2.5608 -1.8466  2.2998
 9351SOL     OW32990   6.828   4.235   7.808 -0.6355  0.3015 -0.2305
 9351SOL    HW132991   6.877   4.180   7.746  0.2366  0.9723 -0.1599
 9351SOL    HW232992   6.895   4.290   7.849 -1.1679 -0.2625  1.4711
 9352SOL     OW32993  10.273   4.746  10.817 -0.4005  0.0898 -0.1352
 9352SOL    HW132994  10.341   4.745  10.750  0.5836 -0.9688  0.8373
 9352SOL    HW232995  10.209   4.681  10.787 -0.6555  0.6024 -0.7163
 9353SOL     OW32996   6.353   9.031   9.073 -0.0281 -0.2998  0.2623
 9353SOL    HW132997   6.315   9.113   9.102  0.9839  0.1346  0.4263
 9353SOL    HW232998   6.428   9.057   9.018 -0.8193 -1.1033 -1.2663
 9354SOL     OW32999   8.380   5.322   6.987 -0.5907  0.5531 -0.3506
 9354SOL    HW133000   8.407   5.314   6.896 -1.4254  0.1171 -0.5742
 9354SOL    HW233001   8.462   5.327   7.036 -0.1068 -0.4090 -1.0295
 9355SOL     OW33002   5.767   2.671   6.973  0.2154 -0.4623 -0.5229
 9355SOL    HW133003   5.772   2.610   7.046 -0.8475  1.0555  0.8928
 9355SOL    HW233004   5.703   2.632   6.913 -1.9781  0.1335  1.3091
 9356SOL     OW33005   1.486   6.304   2.736 -0.0616  0.2641 -0.2697
 9356SOL    HW133006   1.515   6.363   2.667 -1.6887  1.5282  0.0690
 9356SOL    HW233007   1.481   6.359   2.814 -3.2036  0.1838 -0.2984
 9357SOL     OW33008   9.505   0.233   6.742  0.7470  0.1390 -0.0514
 9357SOL    HW133009   9.451   0.307   6.716  0.9022 -0.3695 -1.9298
 9357SOL    HW233010   9.444   0.160   6.751  0.8678 -0.0045 -0.3631
 9358SOL     OW33011   6.735   7.185   8.701  0.2425 -0.4013 -0.3708
 9358SOL    HW133012   6.742   7.095   8.733  1.9455  0.1849  1.0725
 9358SOL    HW233013   6.758   7.179   8.608 -1.8815 -1.7118 -0.8973
 9359SOL     OW33014   2.025   0.600   3.362  0.4071  0.0348  0.4013
 9359SOL    HW133015   2.103   0.589   3.308  0.1130  0.4666 -0.1216
 9359SOL    HW233016   2.036   0.685   3.404  0.0077  0.3175 -0.0469
 9360SOL     OW33017   8.084   7.307  10.368  0.4499 -0.5401  0.2434
 9360SOL    HW133018   8.141   7.328  10.294 -0.9532  3.0192 -0.0297
 9360SOL    HW233019   8.009   7.261  10.329 -0.1396  1.0549 -0.6068
 9361SOL     OW33020   4.088   6.731   4.111  0.4404  0.1631  0.5365
 9361SOL    HW133021   4.072   6.692   4.025 -1.6642 -1.0613  1.3901
 9361SOL    HW233022   4.183   6.734   4.120  0.6811 -0.8994 -1.2861
 9362SOL     OW33023   5.488   6.226   7.656 -0.3057 -0.1624 -0.2298
 9362SOL    HW133024   5.542   6.272   7.720  3.2170 -4.0929  0.0276
 9362SOL    HW233025   5.538   6.229   7.575 -2.7121  1.1159 -1.7946
 9363SOL     OW33026   9.081   5.775   9.211 -0.2884  0.5691 -0.2664
 9363SOL    HW133027   9.172   5.747   9.205 -0.2131  0.8128 -0.2506
 9363SOL    HW233028   9.074   5.819   9.296 -0.4317  0.5118 -0.2466
 9364SOL     OW33029   2.496   8.279  11.194 -0.1971  0.1294  0.7159
 9364SOL    HW133030   2.492   8.194  11.151 -0.5130  0.3690  0.2518
 9364SOL    HW233031   2.578   8.318  11.163 -0.0160 -0.0354  0.9868
 9365SOL     OW33032   4.509   3.681  10.203 -0.0076 -0.2616  0.2105
 9365SOL    HW133033   4.596   3.641  10.205  0.2322  0.2674  1.1262
 9365SOL    HW233034   4.504   3.731  10.285 -0.4787  1.2176 -0.6994
 9366SOL     OW33035   6.807   5.189  10.970 -0.3705 -0.2561 -0.1243
 9366SOL    HW133036   6.841   5.268  11.012 -0.2462  0.1116 -0.9026
 9366SOL    HW233037   6.864   5.176  10.894  0.1178 -1.5559  0.4357
 9367SOL     OW33038   6.923   5.328   6.539  0.3195  0.1944 -0.4525
 9367SOL    HW133039   6.856   5.289   6.482  0.3617 -0.6988  0.0907
 9367SOL    HW233040   6.909   5.422   6.531  0.0071  0.0722 -1.5565
 9368SOL     OW33041   8.019   4.035   2.187  0.3701 -0.4336  1.0566
 9368SOL    HW133042   8.096   3.978   2.187  2.1185  1.7567  2.6609
 9368SOL    HW233043   7.991   4.039   2.278 -1.2954 -0.6861  0.5847
 9369SOL     OW33044   7.557   2.590   3.453 -0.3131 -0.0626  0.2628
 9369SOL    HW133045   7.589   2.642   3.527  0.1178 -1.8575  1.3975
 9369SOL    HW233046   7.520   2.655   3.393  0.6643  1.5948  1.3511
 9370SOL     OW33047   5.771   6.532  10.345 -0.3096 -0.2219  0.2076
 9370SOL    HW133048   5.775   6.626  10.331  1.7253 -0.2676  0.2008
 9370SOL    HW233049   5.848   6.498  10.301  0.7075 -1.5264  2.7823
 9371SOL     OW33050  10.045   8.065   5.977  0.8618  0.1650 -0.0753
 9371SOL    HW133051   9.966   8.110   6.008  0.6686 -0.0822 -0.2049
 9371SOL    HW233052  10.012   7.987   5.933  1.2425 -0.5357  0.8808
 9372SOL     OW33053   1.842   5.175   6.014  0.4661 -0.5976 -0.6577
 9372SOL    HW133054   1.759   5.215   6.040  1.4129  0.5941  0.6522
 9372SOL    HW233055   1.908   5.217   6.069  1.8105 -2.3577 -0.8200
 9373SOL     OW33056   4.722   7.952   2.382 -0.7475 -0.0002  0.7555
 9373SOL    HW133057   4.646   7.994   2.423  0.2853  0.6813  2.0579
 9373SOL    HW233058   4.785   8.022   2.370  0.9700 -1.0457  2.8398
 9374SOL     OW33059   0.730   9.870   0.118 -0.1799 -0.0477  0.3257
 9374SOL    HW133060   0.721   9.884   0.024  3.0265  0.4124 -0.0113
 9374SOL    HW233061   0.764   9.781   0.126 -0.5898 -0.1456  1.0855
 9375SOL     OW33062   6.081   1.996   7.457  0.4970 -0.1391  0.2697
 9375SOL    HW133063   6.112   2.051   7.529  0.2183  1.4999 -0.7975
 9375SOL    HW233064   6.157   1.986   7.399  0.0388  0.8418 -0.5362
 9376SOL     OW33065   1.513  10.341   0.451  0.3479 -0.5093  0.8411
 9376SOL    HW133066   1.514  10.426   0.408  2.2246  0.2232  2.2546
 9376SOL    HW233067   1.499  10.279   0.379  2.0296  0.7566 -0.6569
 9377SOL     OW33068   0.447   0.532   0.646  0.1035 -0.1992 -0.4902
 9377SOL    HW133069   0.470   0.618   0.613  0.5787 -0.0696  0.1808
 9377SOL    HW233070   0.527   0.499   0.686 -0.1891 -0.7848 -0.3816
 9378SOL     OW33071   5.458   4.909   8.761 -0.4134 -0.2890 -0.4753
 9378SOL    HW133072   5.409   4.828   8.760 -0.8646 -0.0803  1.5045
 9378SOL    HW233073   5.392   4.978   8.771  0.0362  0.2774 -1.2112
 9379SOL     OW33074   6.369  11.377   5.108  0.1669 -0.3425 -0.0410
 9379SOL    HW133075   6.292  11.327   5.082 -0.0868 -0.0442  0.1373
 9379SOL    HW233076   6.441  11.314   5.102  0.2094 -0.1437 -1.9970
 9380SOL     OW33077   9.167   0.094   2.685  0.3063  0.0539  0.3929
 9380SOL    HW133078   9.118   0.012   2.688 -0.3263  0.2163 -2.6389
 9380SOL    HW233079   9.244   0.075   2.631  0.9603  1.1003  0.9088
 9381SOL     OW33080   0.851   0.654   0.017 -0.5481  0.1103  0.1952
 9381SOL    HW133081   0.914   0.589  -0.014  1.3117  0.7242  2.3958
 9381SOL    HW233082   0.795   0.605   0.079  0.3908  0.3929  1.3006
 9382SOL     OW33083  11.106   7.650   5.585 -0.4996  0.7783  0.1798
 9382SOL    HW133084  11.054   7.723   5.617 -3.1907 -0.2605 -1.4417
 9382SOL    HW233085  11.058   7.572   5.612  1.7511 -0.4247  0.9993
 9383SOL     OW33086   1.051   9.986   8.045  0.4182 -0.1089  0.0552
 9383SOL    HW133087   1.138   9.988   8.086  0.8970 -0.5912 -0.9026
 9383SOL    HW233088   1.063   9.933   7.967 -0.6850  0.0639 -0.2448
 9384SOL     OW33089   4.819   9.016   0.276  0.2495  0.2828  0.4854
 9384SOL    HW133090   4.771   9.095   0.300 -1.7933  0.1820 -2.6776
 9384SOL    HW233091   4.813   9.012   0.181  2.5596 -2.3403  0.3105
 9385SOL     OW33092   4.442   0.759   0.783 -0.5392 -0.3242  0.4617
 9385SOL    HW133093   4.451   0.815   0.706 -2.5688  1.0527  1.1272
 9385SOL    HW233094   4.522   0.773   0.833  0.6753 -1.0200 -1.2191
 9386SOL     OW33095   2.439   0.356   8.187 -0.4001 -0.1326 -0.7631
 9386SOL    HW133096   2.377   0.283   8.177 -0.4210 -0.7580  2.4926
 9386SOL    HW233097   2.384   0.430   8.212 -0.0561 -0.2839  0.5544
 9387SOL     OW33098  11.348   0.015   5.363  0.7171 -0.1391 -0.3476
 9387SOL    HW133099  11.424   0.022   5.306 -1.3081  0.3774 -3.2034
 9387SOL    HW233100  11.310   0.102   5.363 -1.1936 -0.9209 -1.0170
 9388SOL     OW33101   7.810   1.845  10.116 -0.9214  0.1872  0.2531
 9388SOL    HW133102   7.822   1.751  10.102  0.0032  0.3519 -0.0796
 9388SOL    HW233103   7.730   1.866  10.067 -0.3928 -0.1719 -0.8033
 9389SOL     OW33104   9.725   1.728   0.243  0.4332 -0.1761 -0.2158
 9389SOL    HW133105   9.670   1.798   0.281  2.2566  1.2146 -0.0063
 9389SOL    HW233106   9.793   1.775   0.195  0.8353 -1.8731 -1.3659
 9390SOL     OW33107   7.461   9.198   8.537 -0.5155 -0.1747 -0.0571
 9390SOL    HW133108   7.502   9.120   8.574  1.2358  1.3719  1.4487
 9390SOL    HW233109   7.446   9.176   8.445 -2.0226 -3.0028  0.7294
 9391SOL     OW33110   7.856   5.798   0.438  0.5988 -0.0506  0.3962
 9391SOL    HW133111   7.941   5.830   0.468  0.6596 -0.3680  0.5623
 9391SOL    HW233112   7.792   5.857   0.478  0.7994  0.9386 -0.6987
 9392SOL     OW33113   2.006   0.083   0.098  0.3306  0.6049 -0.5051
 9392SOL    HW133114   2.040   0.165   0.062  0.2488  0.2098 -1.5298
 9392SOL    HW233115   2.007   0.023   0.024  0.8955 -0.4799  0.3533
 9393SOL     OW33116   2.425   4.578  10.750  0.3340  0.0667  0.5580
 9393SOL    HW133117   2.407   4.491  10.785  1.5470 -0.2387  0.4630
 9393SOL    HW233118   2.374   4.583  10.669  0.6288 -0.7499  0.3136
 9394SOL     OW33119   0.028   0.030   7.798 -0.4087 -0.4521  0.0150
 9394SOL    HW133120   0.028  -0.005   7.708  0.6918 -0.3996 -0.0100
 9394SOL    HW233121   0.118   0.059   7.813 -0.7928  0.3624  0.8252
 9395SOL     OW33122   6.455  11.140  11.153  0.5818  0.5815 -0.1201
 9395SOL    HW133123   6.461  11.066  11.092  0.9144 -1.0065  1.7607
 9395SOL    HW233124   6.364  11.169  11.145  0.5370  0.2312 -1.1411
 9396SOL     OW33125  10.189  10.746   0.959  0.8060  0.4921  0.1576
 9396SOL    HW133126  10.241  10.727   1.037  0.8146  0.8774  0.2454
 9396SOL    HW233127  10.174  10.841   0.962 -2.0773  0.0899  1.5071
 9397SOL     OW33128   5.197   0.714  11.638 -0.1583  0.2075  0.1285
 9397SOL    HW133129   5.196   0.695  11.732 -0.5674  0.4876  0.1866
 9397SOL    HW233130   5.289   0.721  11.615 -0.0658  0.4650  0.5799
 9398SOL     OW33131   5.457   8.896   0.624 -0.1602 -0.0900  0.3903
 9398SOL    HW133132   5.407   8.829   0.671 -0.6921 -2.5966 -3.2753
 9398SOL    HW233133   5.545   8.859   0.616  0.0241  0.4455 -0.1638
 9399SOL     OW33134   3.927   2.552   1.490 -0.0738  0.2400  0.0260
 9399SOL    HW133135   3.912   2.508   1.406 -0.8937  1.5582 -0.5486
 9399SOL    HW233136   3.873   2.504   1.552  1.3856 -1.4588  0.0895
 9400SOL     OW33137   0.726   3.491   7.326 -0.2592 -0.1300 -0.2347
 9400SOL    HW133138   0.818   3.519   7.324 -0.5870  0.9688 -1.2983
 9400SOL    HW233139   0.718   3.430   7.253 -0.5346  0.3499 -0.6099
 9401SOL     OW33140   3.735   8.660   0.298 -0.0289 -0.1973 -0.0734
 9401SOL    HW133141   3.689   8.744   0.306  0.3468 -0.1093  1.5062
 9401SOL    HW233142   3.778   8.649   0.383 -0.5942 -2.2994 -0.0186
 9402SOL     OW33143   8.587   9.446   5.445  0.4154 -0.2341 -0.6561
 9402SOL    HW133144   8.597   9.484   5.358 -1.1497 -0.3846 -0.9257
 9402SOL    HW233145   8.538   9.511   5.495 -1.4487 -1.4285 -0.8431
 9403SOL     OW33146   7.252   8.257   8.941  0.8108 -0.2924  0.3672
 9403SOL    HW133147   7.293   8.333   8.901 -2.2226  0.3240 -2.0030
 9403SOL    HW233148   7.279   8.183   8.887 -0.2407 -0.0444 -0.5383
 9404SOL     OW33149   8.868  10.480   6.859  0.2611  0.1694 -0.0409
 9404SOL    HW133150   8.928  10.490   6.785  1.6515 -2.0807  0.6794
 9404SOL    HW233151   8.817  10.401   6.838 -3.3485  2.5414 -1.1248
 9405SOL     OW33152   7.744   9.744   4.857 -0.3839 -0.0450 -0.3964
 9405SOL    HW133153   7.687   9.667   4.850 -1.2090  0.4770  0.3714
 9405SOL    HW233154   7.700   9.801   4.920  0.5395  0.7806 -0.4712
 9406SOL     OW33155  10.725  10.596  10.381 -0.7518 -0.2167  0.5054
 9406SOL    HW133156  10.678  10.599  10.297 -2.3718  1.4779  1.4115
 9406SOL    HW233157  10.703  10.510  10.418 -2.2885  0.1115  0.4128
 9407SOL     OW33158  11.201   9.227   1.066 -0.3587 -0.5219  0.5237
 9407SOL    HW133159  11.156   9.166   1.124 -1.1084 -0.9189 -0.4527
 9407SOL    HW233160  11.133   9.261   1.009  0.1601  0.7558  0.6217
 9408SOL     OW33161   6.799   9.983   5.907  0.3238 -0.0920 -0.1762
 9408SOL    HW133162   6.721  10.037   5.913 -0.7329 -1.5859  0.3218
 9408SOL    HW233163   6.870  10.044   5.886 -1.0329  1.2495 -1.0573
 9409SOL     OW33164   3.204   3.839   3.531  0.2826 -0.0723  0.4200
 9409SOL    HW133165   3.236   3.907   3.589  1.2615 -0.2842  0.1559
 9409SOL    HW233166   3.280   3.814   3.479 -0.6108  0.2624 -1.1112
 9410SOL     OW33167   5.305   8.319   1.034  0.2859  0.1280  0.5005
 9410SOL    HW133168   5.299   8.396   1.090 -0.4627  0.8295 -0.5023
 9410SOL    HW233169   5.238   8.259   1.068 -0.2243  0.5835  0.3095
 9411SOL     OW33170   4.160   8.091   4.064  0.3869  0.0387  1.1754
 9411SOL    HW133171   4.108   8.063   4.139 -1.5647 -0.6014 -0.3166
 9411SOL    HW233172   4.243   8.045   4.074 -0.2654 -0.9507  2.3183
 9412SOL     OW33173   6.980   5.260   8.896  0.3004  0.6115  0.2911
 9412SOL    HW133174   6.985   5.172   8.934  0.3897  0.4722 -0.0351
 9412SOL    HW233175   7.070   5.280   8.871  0.4660  1.2434  1.3472
 9413SOL     OW33176   0.387   7.000   5.470 -0.1738 -0.0289  0.6344
 9413SOL    HW133177   0.364   7.090   5.493  0.4054  0.3436 -0.2018
 9413SOL    HW233178   0.407   6.958   5.554 -0.6650  0.5572  1.0511
 9414SOL     OW33179  10.060   1.945  11.379  0.2524  0.6281  0.3540
 9414SOL    HW133180  10.102   1.957  11.293  2.1080 -0.6154  1.0300
 9414SOL    HW233181  10.081   2.025  11.427 -0.8476  1.3591 -0.3131
 9415SOL     OW33182   1.108   3.815   3.477  0.7900 -0.0066 -0.3931
 9415SOL    HW133183   1.061   3.732   3.485 -1.1536  1.1237  1.0596
 9415SOL    HW233184   1.200   3.793   3.494  0.2914 -1.8254  0.1699
 9416SOL     OW33185   5.722  10.543   1.658 -0.3672  0.5169 -0.7272
 9416SOL    HW133186   5.676  10.604   1.600 -1.1094  1.0064  0.3608
 9416SOL    HW233187   5.769  10.599   1.719 -1.3488  0.0205  0.5155
 9417SOL     OW33188   2.537  11.228   8.194  0.2478 -0.4577 -0.2137
 9417SOL    HW133189   2.606  11.259   8.135  1.8287 -0.6253  1.4488
 9417SOL    HW233190   2.544  11.133   8.191  0.0282 -0.4780 -0.1001
 9418SOL     OW33191  11.314   8.046   3.300 -0.3125 -0.5581  0.5183
 9418SOL    HW133192  11.231   7.998   3.301 -1.2084  0.8789 -0.9215
 9418SOL    HW233193  11.293   8.131   3.263  2.2533 -1.0257 -2.4384
 9419SOL     OW33194   0.146   7.727   6.258 -0.0200 -0.4961  0.8495
 9419SOL    HW133195   0.241   7.722   6.272  0.3613  4.0160  1.5421
 9419SOL    HW233196   0.108   7.713   6.345  0.3066  0.5916  1.1883
 9420SOL     OW33197   1.826   8.110   6.280 -0.4794 -0.1706 -0.0553
 9420SOL    HW133198   1.758   8.073   6.336 -0.6301  0.4284  0.1718
 9420SOL    HW233199   1.904   8.113   6.336 -0.1839 -1.1162 -0.4017
 9421SOL     OW33200   9.689   7.590  10.393 -0.4989 -0.3075  0.1980
 9421SOL    HW133201   9.728   7.667  10.350 -0.9976  0.1244  0.5131
 9421SOL    HW233202   9.763   7.548  10.438 -0.1770 -0.1583 -0.1832
 9422SOL     OW33203   9.310   8.993   2.957  0.2364 -0.1386  1.0024
 9422SOL    HW133204   9.337   8.902   2.969 -2.7083 -1.1664  0.9183
 9422SOL    HW233205   9.305   9.004   2.862  1.6254  0.5127  0.9821
 9423SOL     OW33206   4.468   3.486   2.507 -0.0407 -0.3149  0.6348
 9423SOL    HW133207   4.437   3.409   2.460 -1.5921  0.1851  0.7963
 9423SOL    HW233208   4.537   3.522   2.452 -1.0815 -0.3585 -0.7448
 9424SOL     OW33209   0.647   1.907   6.315  0.2616 -0.0079 -0.1793
 9424SOL    HW133210   0.563   1.950   6.297  0.0160 -0.8715 -1.1480
 9424SOL    HW233211   0.704   1.934   6.243  1.0103  1.0077  0.7553
 9425SOL     OW33212   0.467   8.593   5.796 -0.0395  0.2917 -0.0498
 9425SOL    HW133213   0.482   8.678   5.836  0.5540  0.1905 -0.0596
 9425SOL    HW233214   0.553   8.562   5.769 -0.1116 -0.7237  0.7823
 9426SOL     OW33215   7.389  10.898   4.485  0.5965  0.6047  0.0936
 9426SOL    HW133216   7.420  10.916   4.574  1.1751 -2.7069  0.6753
 9426SOL    HW233217   7.465  10.859   4.441 -0.7161 -1.2066 -0.6590
 9427SOL     OW33218   6.309   7.506  11.052  0.6724  0.0251  0.2457
 9427SOL    HW133219   6.249   7.455  11.106  0.8288 -0.3120  0.0999
 9427SOL    HW233220   6.383   7.525  11.110 -0.2354  1.7608  0.9232
 9428SOL     OW33221   2.460   4.842  10.800  0.0723  0.6396 -0.1578
 9428SOL    HW133222   2.442   4.757  10.760 -1.8603  1.8900 -2.2102
 9428SOL    HW233223   2.502   4.822  10.883  0.4173 -2.2739 -0.9387
 9429SOL     OW33224  11.493   2.849   1.025  0.2261  0.4758  0.0280
 9429SOL    HW133225  11.588   2.839   1.017 -0.0300 -2.5228 -0.6884
 9429SOL    HW233226  11.476   2.846   1.119  0.7733 -0.6480  0.1127
 9430SOL     OW33227   2.642   9.503   7.319  0.1279 -0.1490 -0.2760
 9430SOL    HW133228   2.729   9.494   7.358  0.1304  0.7184 -0.0486
 9430SOL    HW233229   2.652   9.467   7.231  0.3650 -1.2659  0.1948
 9431SOL     OW33230  10.213   4.748   5.834 -0.8442  0.6280  0.7967
 9431SOL    HW133231  10.136   4.803   5.821  1.4991  3.5648 -2.7723
 9431SOL    HW233232  10.201   4.675   5.774 -0.8610  1.1033  0.2107
 9432SOL     OW33233  11.654   8.148   6.843 -0.3153  0.0139 -0.3237
 9432SOL    HW133234  11.688   8.110   6.762  0.0244 -0.2640 -0.0530
 9432SOL    HW233235  11.588   8.210   6.814  0.7460  0.9100 -0.8892
 9433SOL     OW33236   9.895  10.569   7.774  0.2749  0.4488  0.3774
 9433SOL    HW133237   9.899  10.479   7.807 -1.5549  0.6542  1.2856
 9433SOL    HW233238   9.845  10.563   7.693 -0.4178  0.7290  0.7808
 9434SOL     OW33239   3.673  11.526   9.400 -0.0037  0.4654  0.4059
 9434SOL    HW133240   3.615  11.600   9.382 -1.2825 -0.7169 -0.4952
 9434SOL    HW233241   3.614  11.454   9.424  0.9665 -1.0739 -1.5331
 9435SOL     OW33242   5.000   0.334   9.403 -0.1725  0.1296 -0.4790
 9435SOL    HW133243   5.010   0.423   9.436 -0.2909 -0.0725  0.1227
 9435SOL    HW233244   4.905   0.323   9.393 -0.0989  0.4901 -1.7681
 9436SOL     OW33245   9.832   7.490  10.644 -0.3326 -0.4750 -0.0214
 9436SOL    HW133246   9.739   7.503  10.662 -0.3064  2.0997 -1.2155
 9436SOL    HW233247   9.871   7.475  10.730 -1.8202 -1.6016  0.4967
 9437SOL     OW33248   9.828   4.822   6.631 -0.5000  0.2612 -0.1815
 9437SOL    HW133249   9.867   4.819   6.718 -1.5926 -1.2329  0.2988
 9437SOL    HW233250   9.767   4.749   6.630 -2.4118  1.7818 -1.3112
 9438SOL     OW33251   5.561   9.375   1.094  0.1940 -0.0614 -0.3012
 9438SOL    HW133252   5.628   9.413   1.151 -2.5284  2.3280  1.6391
 9438SOL    HW233253   5.547   9.287   1.128  0.2776  0.5068  1.2832
 9439SOL     OW33254   8.738   7.746   4.283  0.1005 -1.1301 -0.0841
 9439SOL    HW133255   8.673   7.687   4.322  1.4140 -1.7294  1.3262
 9439SOL    HW233256   8.735   7.824   4.339 -1.3668  0.0602 -1.7214
 9440SOL     OW33257   9.439   3.202   2.898  0.3031 -0.1451  0.4925
 9440SOL    HW133258   9.489   3.283   2.892  1.1490 -0.7307 -1.1025
 9440SOL    HW233259   9.354   3.222   2.858  0.7137 -0.1643 -0.4229
 9441SOL     OW33260   5.138  10.656   6.577 -0.0737  0.0526 -0.5744
 9441SOL    HW133261   5.181  10.574   6.599 -0.7241 -0.6516 -1.7895
 9441SOL    HW233262   5.070  10.631   6.513 -1.8773  1.1812  0.8008
 9442SOL     OW33263   6.948   0.886   4.912  0.1799  0.3366 -0.0014
 9442SOL    HW133264   6.916   0.829   4.981  0.4651  0.6611  0.4001
 9442SOL    HW233265   6.923   0.974   4.940 -1.7149  0.3118 -1.3929
 9443SOL     OW33266   4.664   9.385   1.790 -0.5941 -0.0342 -0.0980
 9443SOL    HW133267   4.752   9.396   1.753 -0.7745  0.2714 -0.4415
 9443SOL    HW233268   4.605   9.404   1.717 -0.9461 -0.1699  0.1519
 9444SOL     OW33269   4.813   8.225   0.936  0.4057  1.0551  0.4707
 9444SOL    HW133270   4.898   8.264   0.956  0.3523  0.9281  0.9596
 9444SOL    HW233271   4.832   8.132   0.921  0.5060  1.2235 -0.5044
 9445SOL     OW33272   5.321   0.560   1.669 -0.1026  0.3816  0.1617
 9445SOL    HW133273   5.237   0.603   1.653 -0.3637 -0.6170 -1.2719
 9445SOL    HW233274   5.299   0.479   1.713  0.2719  0.9252  1.3918
 9446SOL     OW33275   9.358   1.872   2.015  0.2244 -0.2784  0.0626
 9446SOL    HW133276   9.405   1.810   2.071  2.0466  2.7965  2.2454
 9446SOL    HW233277   9.415   1.883   1.939  1.8610  1.4401  1.4577
 9447SOL     OW33278   2.234   1.852   9.535 -0.8244  0.3325  0.3719
 9447SOL    HW133279   2.236   1.767   9.578  2.6839  0.5510  0.9374
 9447SOL    HW233280   2.253   1.833   9.443  0.2171  0.4738  0.5438
 9448SOL     OW33281   0.923   2.338  10.121  0.2613  0.2822  0.1932
 9448SOL    HW133282   0.962   2.309  10.204 -0.5132  1.7858  1.1291
 9448SOL    HW233283   0.916   2.434  10.130 -0.7788  0.3658 -1.1930
 9449SOL     OW33284   7.208   2.009   2.915 -0.2335 -0.0749  0.1785
 9449SOL    HW133285   7.135   2.027   2.856 -0.4938 -1.2743  0.0924
 9449SOL    HW233286   7.218   2.088   2.967 -2.0281 -0.1202  0.6393
 9450SOL     OW33287   6.259   0.473   2.529  0.1194  0.3642 -0.0332
 9450SOL    HW133288   6.268   0.568   2.523  0.6822  0.3522  0.5038
 9450SOL    HW233289   6.341   0.439   2.491 -0.7625  0.0320 -1.7558
 9451SOL     OW33290   0.696   9.883   3.506  0.6774 -0.0581  0.2052
 9451SOL    HW133291   0.648   9.956   3.545  0.8098  0.3292 -0.3353
 9451SOL    HW233292   0.644   9.806   3.527  1.0799  0.0550  1.6709
 9452SOL     OW33293   6.836   5.958   2.733  0.0533 -0.1664  0.2440
 9452SOL    HW133294   6.826   5.886   2.796 -2.3800  0.8961  1.2201
 9452SOL    HW233295   6.892   6.021   2.778 -0.3768 -0.1096  0.7194
 9453SOL     OW33296   2.573   9.905   0.200  0.1167 -0.2653  0.3666
 9453SOL    HW133297   2.654   9.894   0.250  0.2606  1.8061  0.6756
 9453SOL    HW233298   2.557   9.819   0.161  0.3810 -1.8469  3.3821
 9454SOL     OW33299   0.301   6.772   6.755  0.3503  0.1188 -0.1520
 9454SOL    HW133300   0.208   6.763   6.736  0.2389  2.0417 -0.8051
 9454SOL    HW233301   0.323   6.697   6.810 -1.8618  0.2919  1.0541
 9455SOL     OW33302   6.741   1.767   6.343 -0.1457 -0.4173 -0.1204
 9455SOL    HW133303   6.662   1.712   6.347 -0.6242  0.0348 -1.9987
 9455SOL    HW233304   6.720   1.843   6.397  0.1796 -1.6297  1.7871
 9456SOL     OW33305   8.959  10.075   6.771  0.1186  0.3381  0.6061
 9456SOL    HW133306   8.936  10.044   6.684 -1.6171  1.0663  0.7559
 9456SOL    HW233307   9.031  10.019   6.799 -0.4023 -0.9995 -0.6208
 9457SOL     OW33308   0.141   6.187   5.153 -0.4865  0.1414  0.5863
 9457SOL    HW133309   0.150   6.248   5.227  1.6388  1.4462 -0.6576
 9457SOL    HW233310   0.065   6.219   5.104  0.5247  1.7951  0.0182
 9458SOL     OW33311   6.375   8.136   9.954  0.4966 -0.2707  0.0515
 9458SOL    HW133312   6.335   8.068  10.008  0.1141 -0.5797 -0.5955
 9458SOL    HW233313   6.339   8.218   9.987 -1.5095 -0.5962 -1.1410
 9459SOL     OW33314  10.507   4.513  10.228 -0.7595 -0.6445 -0.1523
 9459SOL    HW133315  10.488   4.443  10.166  1.5756 -1.4221 -0.0702
 9459SOL    HW233316  10.592   4.547  10.201  0.3556 -1.0065  2.5749
 9460SOL     OW33317   9.967   6.785   7.906 -0.4030  0.3485 -1.0584
 9460SOL    HW133318   9.953   6.731   7.984  1.1766  0.3577 -0.7196
 9460SOL    HW233319   9.886   6.778   7.856 -2.6957  2.6919  1.9302
 9461SOL     OW33320   8.670  11.518   2.640  0.4845 -0.1746  0.0443
 9461SOL    HW133321   8.735  11.448   2.645  1.0783  0.3436 -0.2777
 9461SOL    HW233322   8.703  11.577   2.572  0.3224  0.7396  0.7287
 9462SOL     OW33323  10.884   9.008   0.179 -0.0542 -0.0811 -0.8592
 9462SOL    HW133324  10.946   9.079   0.195  1.2383 -1.3079 -0.1122
 9462SOL    HW233325  10.820   9.015   0.250  1.0827 -0.6660  0.2901
 9463SOL     OW33326   3.331   3.645   9.430  0.3012  0.3369  0.1308
 9463SOL    HW133327   3.260   3.694   9.387  1.7805  0.8492 -1.8965
 9463SOL    HW233328   3.349   3.694   9.510 -1.3493  0.4065  0.4938
 9464SOL     OW33329   7.842   5.780  11.271 -0.3432  0.2233 -0.1177
 9464SOL    HW133330   7.877   5.867  11.290 -0.9800  0.6746 -0.9375
 9464SOL    HW233331   7.917   5.722  11.281 -0.3748  0.5321  2.6384
 9465SOL     OW33332   9.666   7.913   2.475 -0.5236 -0.1870  0.2042
 9465SOL    HW133333   9.648   7.829   2.517 -2.0451 -0.2785 -0.5604
 9465SOL    HW233334   9.699   7.969   2.546 -0.5163 -1.0986  0.9409
 9466SOL     OW33335   1.837   4.735   0.927 -0.3952  0.4239 -0.1950
 9466SOL    HW133336   1.815   4.705   0.839  0.4134 -2.1356  0.4022
 9466SOL    HW233337   1.753   4.741   0.973 -0.5492 -2.0918 -0.0432
 9467SOL     OW33338   3.545   1.866  10.693  0.0531  0.1269  0.1566
 9467SOL    HW133339   3.501   1.939  10.649 -0.3804 -0.4757 -0.4269
 9467SOL    HW233340   3.637   1.893  10.699 -0.3974  1.4999  1.5733
 9468SOL     OW33341  11.430   6.558   7.639  0.4551 -0.4062 -0.0761
 9468SOL    HW133342  11.393   6.494   7.701  0.0732 -0.4328 -0.3290
 9468SOL    HW233343  11.484   6.506   7.580  0.8098 -0.3831  0.2290
 9469SOL     OW33344   0.942   7.259   9.661 -0.0521  0.1292 -0.1301
 9469SOL    HW133345   0.871   7.204   9.693  0.0854 -0.0584 -0.1508
 9469SOL    HW233346   0.907   7.299   9.581 -0.4067  0.6191  0.2586
 9470SOL     OW33347   2.099   3.671   6.561  0.2035 -0.1918  0.3731
 9470SOL    HW133348   2.192   3.689   6.573  0.4831 -0.8170 -0.7386
 9470SOL    HW233349   2.078   3.705   6.474 -1.1357  1.8350  1.4141
 9471SOL     OW33350   8.102   4.747   4.951  0.2938 -0.1994  0.5321
 9471SOL    HW133351   8.153   4.768   5.029 -0.0857 -0.2564  0.7965
 9471SOL    HW233352   8.060   4.830   4.927 -1.3852 -0.6540  1.7072
 9472SOL     OW33353   2.175   8.893   3.552 -0.1746  0.1914 -0.5034
 9472SOL    HW133354   2.256   8.870   3.506 -0.3284  0.6993 -1.0353
 9472SOL    HW233355   2.112   8.826   3.523  0.0993 -0.3283  0.0718
 9473SOL     OW33356  10.743   8.911   1.783  0.5145  0.3211  0.6814
 9473SOL    HW133357  10.808   8.930   1.850 -0.7636  0.9897  1.7913
 9473SOL    HW233358  10.689   8.841   1.821  0.2227  0.1793  0.0323
 9474SOL     OW33359   3.964   2.933   7.621  0.0579  0.0285  0.1151
 9474SOL    HW133360   3.956   2.989   7.699 -2.9750  1.3796 -1.0205
 9474SOL    HW233361   3.991   2.993   7.551  0.1640 -0.6460 -0.4264
 9475SOL     OW33362   8.816   3.632   3.640  0.2219 -0.4093  0.3529
 9475SOL    HW133363   8.828   3.726   3.625 -1.6301 -0.3346 -1.1425
 9475SOL    HW233364   8.730   3.626   3.681 -0.0714 -1.4957 -0.3920
 9476SOL     OW33365   7.063   7.869   6.433 -0.2063 -0.0981 -0.0245
 9476SOL    HW133366   6.992   7.840   6.375 -1.9073  0.1665  1.8096
 9476SOL    HW233367   7.091   7.953   6.397 -0.5051 -0.4244 -1.0511
 9477SOL     OW33368   3.992   9.158   0.620 -0.0938  0.4575  0.0627
 9477SOL    HW133369   4.065   9.210   0.655 -0.9579  0.7954  1.4329
 9477SOL    HW233370   3.997   9.075   0.666 -0.3896  0.3625 -0.0746
 9478SOL     OW33371   3.848  11.566   4.553 -0.5405  0.2948 -0.4255
 9478SOL    HW133372   3.869  11.566   4.646  0.2808  1.2983 -0.5984
 9478SOL    HW233373   3.812  11.479   4.537  0.7983 -0.4691  0.5089
 9479SOL     OW33374   6.952   1.990   0.653  0.4886  0.0734  0.1342
 9479SOL    HW133375   7.042   2.023   0.644  0.5428  0.1768  1.0331
 9479SOL    HW233376   6.906   2.059   0.700  0.2364 -0.4969  0.7243
 9480SOL     OW33377   6.972  10.063  11.480 -0.1256 -0.4485 -0.9661
 9480SOL    HW133378   6.930  10.015  11.409 -1.1413  0.6980 -1.1826
 9480SOL    HW233379   6.912  10.053  11.555  0.9424 -1.6605 -0.2387
 9481SOL     OW33380   7.891   4.332   5.075 -0.3879 -0.3239 -0.0225
 9481SOL    HW133381   7.814   4.276   5.066 -0.3622 -0.5162  0.8060
 9481SOL    HW233382   7.858   4.412   5.115 -0.0683 -0.6762  0.9912
 9482SOL     OW33383   7.687   3.191   4.086  0.8483 -0.1305  0.3254
 9482SOL    HW133384   7.700   3.216   3.995 -0.5408  1.3131  0.4931
 9482SOL    HW233385   7.776   3.180   4.120  1.3889 -0.9575 -1.2319
 9483SOL     OW33386  10.133   4.403   2.697  0.2324  0.0111 -0.1888
 9483SOL    HW133387  10.079   4.469   2.741 -0.3011 -0.2569 -0.4264
 9483SOL    HW233388  10.082   4.322   2.705 -0.2350  0.1079 -1.9539
 9484SOL     OW33389   5.010   6.107   8.679  0.2845  0.2358 -0.1493
 9484SOL    HW133390   4.944   6.086   8.613  0.0527 -0.2097  0.2212
 9484SOL    HW233391   5.061   6.027   8.688  0.1833  0.2299  0.3626
 9485SOL     OW33392   9.399   4.602   4.615  0.1905  0.3070 -0.4884
 9485SOL    HW133393   9.357   4.683   4.588 -0.1791  0.0491 -0.6916
 9485SOL    HW233394   9.481   4.600   4.567  0.4130  0.7807 -0.1385
 9486SOL     OW33395   2.222  11.324   9.601  0.2048  0.5389 -0.5237
 9486SOL    HW133396   2.315  11.311   9.614  0.5917  2.5087 -0.9177
 9486SOL    HW233397   2.180  11.277   9.672  1.5231  0.0334 -0.0576
 9487SOL     OW33398   0.816   0.036   0.263  0.0903  0.2219  0.3497
 9487SOL    HW133399   0.878   0.064   0.196 -0.9210  1.2974 -0.1912
 9487SOL    HW233400   0.825  -0.059   0.267  1.2232  0.2914 -0.2476
 9488SOL     OW33401  11.532   6.406   3.361 -0.4280 -1.0365  0.1857
 9488SOL    HW133402  11.483   6.475   3.314 -1.5655 -1.4940  0.6528
 9488SOL    HW233403  11.513   6.326   3.312 -0.3998 -1.2732  0.5618
 9489SOL     OW33404   5.064   4.063  10.099 -0.5142  0.0649  0.3047
 9489SOL    HW133405   4.997   4.091  10.037 -1.4570  1.7849  1.9822
 9489SOL    HW233406   5.064   3.968  10.093 -0.3878  0.1659 -2.4369
 9490SOL     OW33407  10.170   7.230   1.052 -0.2885  0.3420  0.1475
 9490SOL    HW133408  10.163   7.320   1.021  1.4986  1.5161  2.7530
 9490SOL    HW233409  10.265   7.215   1.059 -0.5545 -1.7623 -0.2080
 9491SOL     OW33410   6.658   7.115   3.871 -0.3004 -0.2959  0.1309
 9491SOL    HW133411   6.572   7.131   3.832 -0.6336 -0.8485  0.6354
 9491SOL    HW233412   6.720   7.140   3.802 -0.8742 -0.5679 -0.4883
 9492SOL     OW33413  11.593   4.155   1.301 -0.0569  0.0943 -0.6316
 9492SOL    HW133414  11.518   4.196   1.258 -0.0951  0.2851 -0.3834
 9492SOL    HW233415  11.557   4.079   1.345 -0.1829  0.4311 -0.1469
 9493SOL     OW33416   2.683   2.998   5.793  1.0929 -0.2218  0.0080
 9493SOL    HW133417   2.587   2.997   5.800  1.1057 -1.0351  0.1803
 9493SOL    HW233418   2.710   3.071   5.848  0.5731 -0.0178 -0.0016
 9494SOL     OW33419   3.376   9.077   5.603  0.0532 -0.4479  0.0435
 9494SOL    HW133420   3.399   9.074   5.696 -1.0232  0.8265  0.3797
 9494SOL    HW233421   3.292   9.033   5.598  0.2608 -0.8011 -0.3912
 9495SOL     OW33422  10.892   5.086   1.078  0.4036 -0.9874 -0.6011
 9495SOL    HW133423  10.956   5.020   1.051 -0.6475 -0.8343 -3.9954
 9495SOL    HW233424  10.930   5.169   1.049  0.7162 -0.2859  1.6469
 9496SOL     OW33425   3.291   5.052   5.277  0.7480 -0.2909 -1.2791
 9496SOL    HW133426   3.311   4.967   5.238  0.0989 -1.1468  0.1746
 9496SOL    HW233427   3.196   5.060   5.269  0.4025 -1.0890  1.1718
 9497SOL     OW33428   9.679   7.854   8.765 -0.4811 -0.3415 -0.1999
 9497SOL    HW133429   9.624   7.809   8.830 -0.2311 -0.2129  0.1025
 9497SOL    HW233430   9.631   7.845   8.683 -1.0127 -0.1248  0.0874
 9498SOL     OW33431   0.925   5.440   9.222 -0.6182 -0.2024 -0.0374
 9498SOL    HW133432   0.988   5.509   9.199 -1.7727  0.5322 -1.1244
 9498SOL    HW233433   0.963   5.361   9.183 -0.8687  0.4280 -1.6822
 9499SOL     OW33434   8.472   3.185  10.363  0.0542 -0.1098  0.1027
 9499SOL    HW133435   8.381   3.158  10.348  0.2806 -1.0635  0.3770
 9499SOL    HW233436   8.501   3.219  10.279 -0.9717  1.4769  0.3568
 9500SOL     OW33437   9.148  10.419   6.988  0.0320  0.0829 -0.3871
 9500SOL    HW133438   9.057  10.440   6.965  0.7443  1.3197 -2.2570
 9500SOL    HW233439   9.146  10.325   7.008 -1.5868 -0.0049 -0.8151
 9501SOL     OW33440  11.074  10.787   8.153  0.1414  0.3527  0.3126
 9501SOL    HW133441  11.143  10.779   8.218  0.2823  1.3664  0.2950
 9501SOL    HW233442  11.065  10.881   8.138  1.9506  0.1322 -3.0594
 9502SOL     OW33443   8.190   6.309   2.895  0.0840  0.7184 -0.0297
 9502SOL    HW133444   8.252   6.365   2.848  1.3597 -1.1017 -0.6483
 9502SOL    HW233445   8.186   6.229   2.842 -2.8299  0.7506  0.0022
 9503SOL     OW33446   3.229   8.555  10.247  0.1463 -0.0972 -0.2926
 9503SOL    HW133447   3.247   8.483  10.307 -1.4307  0.3602  0.7826
 9503SOL    HW233448   3.257   8.633  10.293  1.3360  0.0664 -1.2346
 9504SOL     OW33449   6.620   5.459   8.272 -0.1097 -0.3776 -0.1016
 9504SOL    HW133450   6.659   5.397   8.210 -0.1550 -1.1807  0.6465
 9504SOL    HW233451   6.685   5.468   8.341 -1.7392 -2.9317  1.9543
 9505SOL     OW33452   6.602   2.013   2.265  0.4945  0.4369 -0.0589
 9505SOL    HW133453   6.639   2.001   2.352 -1.2558 -1.0798  0.5645
 9505SOL    HW233454   6.530   2.076   2.278  0.8541  0.9796 -0.6245
 9506SOL     OW33455   4.090   7.149   4.330 -0.1973  0.2086 -0.2723
 9506SOL    HW133456   4.182   7.123   4.323 -0.2227 -0.0399  0.2310
 9506SOL    HW233457   4.046   7.103   4.259 -0.0195 -0.0967 -0.1877
 9507SOL     OW33458   0.692   4.587   0.880  0.0056  0.7224  0.1304
 9507SOL    HW133459   0.711   4.679   0.862  1.7178  0.8315  2.1145
 9507SOL    HW233460   0.768   4.555   0.928 -1.5191 -1.1094  1.5291
 9508SOL     OW33461   1.743   9.118   3.987  0.4379  0.3627 -1.0231
 9508SOL    HW133462   1.664   9.123   4.040  1.8740  1.1702  1.1825
 9508SOL    HW233463   1.751   9.025   3.964 -0.7536  0.1613 -0.6606
 9509SOL     OW33464   8.560  11.528  10.502 -0.2756  0.7451 -0.6047
 9509SOL    HW133465   8.535  11.515  10.593 -0.7699  1.4824 -0.6190
 9509SOL    HW233466   8.643  11.482  10.492 -0.8491 -0.4257 -0.1278
 9510SOL     OW33467   7.161   0.215   2.398 -0.1674 -0.4152  0.0742
 9510SOL    HW133468   7.171   0.143   2.461 -2.0461 -0.8600 -0.0535
 9510SOL    HW233469   7.114   0.282   2.447  1.9319  0.9562  0.3131
 9511SOL     OW33470   9.695   6.886   4.866  0.2425  0.1943  0.1848
 9511SOL    HW133471   9.660   6.963   4.911  0.0416  0.0524  0.2718
 9511SOL    HW233472   9.667   6.897   4.775  2.9909  1.9201 -0.5694
 9512SOL     OW33473   5.849   3.260   0.528  0.1149  0.3311  0.0229
 9512SOL    HW133474   5.848   3.340   0.475  0.0326 -0.0238 -0.5143
 9512SOL    HW233475   5.805   3.285   0.609  0.0252  0.8132 -0.1691
 9513SOL     OW33476  10.983   5.260   4.205 -0.4076  0.3715  0.1449
 9513SOL    HW133477  11.012   5.243   4.115  0.4195 -0.2608  0.5205
 9513SOL    HW233478  10.983   5.174   4.247 -1.6386  0.5359  0.5203
 9514SOL     OW33479   4.972   8.956   8.113 -0.1076  0.1265  0.0928
 9514SOL    HW133480   4.956   8.931   8.204 -0.0357 -2.8769 -0.5985
 9514SOL    HW233481   4.985   8.873   8.068 -0.5342  1.4834 -2.7558
 9515SOL     OW33482   9.880   4.012   8.696  0.0020  0.3835 -0.2010
 9515SOL    HW133483   9.874   4.094   8.744  0.1963 -0.4082  1.2353
 9515SOL    HW233484   9.947   4.028   8.629  1.9895  0.6370  1.7254
 9516SOL     OW33485   5.842   7.291  10.656  0.0435  0.0544 -0.1556
 9516SOL    HW133486   5.783   7.364  10.636 -0.6704 -0.1133  1.2319
 9516SOL    HW233487   5.848   7.290  10.752  0.5959 -1.2785 -0.1788
 9517SOL     OW33488   6.217  11.066   1.320  0.2962  0.3971 -0.5359
 9517SOL    HW133489   6.139  11.011   1.329 -0.8484  1.8067 -1.2716
 9517SOL    HW233490   6.275  11.037   1.390 -1.5855  0.3836  1.1342
 9518SOL     OW33491   9.794   9.777   9.553 -0.5528  0.0448 -0.2279
 9518SOL    HW133492   9.780   9.687   9.525 -0.3674 -0.0153 -0.1280
 9518SOL    HW233493   9.788   9.775   9.648 -0.8262  0.1881 -0.2392
 9519SOL     OW33494   2.183   3.836   4.416  0.3266 -0.1073 -0.0947
 9519SOL    HW133495   2.242   3.860   4.345  0.8728  0.1855  0.4558
 9519SOL    HW233496   2.116   3.904   4.416  0.7219  0.2859  0.1260
 9520SOL     OW33497   5.002   9.004  10.626  0.1848  0.0462  0.3369
 9520SOL    HW133498   5.062   9.024  10.697 -1.1287 -0.8637  1.7632
 9520SOL    HW233499   4.915   9.025  10.661 -0.5939 -1.4618 -0.5827
 9521SOL     OW33500   2.066   9.365   1.950  0.8686  0.2915  0.2612
 9521SOL    HW133501   1.981   9.321   1.953  0.0875  1.7373  0.1605
 9521SOL    HW233502   2.086   9.384   2.041  0.6626  0.7320  0.2143
 9522SOL     OW33503   3.648   2.262   6.554 -0.2644  1.4033  0.1411
 9522SOL    HW133504   3.696   2.188   6.518  0.2505  1.6435  0.3314
 9522SOL    HW233505   3.556   2.237   6.545 -0.0980  0.7527  0.1785
 9523SOL     OW33506   1.704   2.096   0.686 -0.0214  0.3347 -0.3193
 9523SOL    HW133507   1.654   2.174   0.661  0.6264  0.5422 -0.9901
 9523SOL    HW233508   1.773   2.089   0.620 -0.3044 -1.0363 -0.5038
 9524SOL     OW33509  11.167   7.593  10.422 -0.1604 -0.0096  0.1013
 9524SOL    HW133510  11.158   7.544  10.340 -0.7702  0.2471  0.0131
 9524SOL    HW233511  11.262   7.608  10.430 -0.0924 -0.0489 -0.5446
 9525SOL     OW33512   4.421   5.769   8.981  0.3722  0.1642 -0.4287
 9525SOL    HW133513   4.358   5.697   8.993  2.7610 -2.2036 -1.1454
 9525SOL    HW233514   4.461   5.780   9.068  0.2791  0.3829 -0.4124
 9526SOL     OW33515   6.052   3.008   3.379  0.1704 -0.0272  0.1321
 9526SOL    HW133516   5.977   2.995   3.438 -0.3326  2.7838  0.2551
 9526SOL    HW233517   6.068   3.102   3.382  2.1843 -0.2430 -1.7954
 9527SOL     OW33518   1.228   1.459  10.942 -0.4834 -0.8222 -0.0281
 9527SOL    HW133519   1.229   1.378  10.993  2.5522 -0.4314  0.6893
 9527SOL    HW233520   1.261   1.434  10.856  2.8828 -0.0737  0.9090
 9528SOL     OW33521   7.926   1.025  11.174 -0.0043 -0.3164  0.3079
 9528SOL    HW133522   7.867   1.014  11.100  1.0700  1.7102 -0.9510
 9528SOL    HW233523   7.869   1.025  11.251 -1.3131 -1.0332 -0.6269
 9529SOL     OW33524   5.252   1.001   9.309 -0.1594 -0.0930  0.7283
 9529SOL    HW133525   5.253   0.922   9.255  0.6395  0.0411  0.5353
 9529SOL    HW233526   5.173   1.047   9.282  0.4279  0.1659 -0.6215
 9530SOL     OW33527   1.613   9.655   9.298  0.2242  0.4356  0.0393
 9530SOL    HW133528   1.536   9.644   9.243  1.7643  0.6616 -2.2993
 9530SOL    HW233529   1.616   9.576   9.352 -1.3902  0.2604 -0.0896
 9531SOL     OW33530   3.622   1.238   4.835  0.0763 -0.3892  0.2726
 9531SOL    HW133531   3.665   1.279   4.910 -0.7297  0.5266  0.2465
 9531SOL    HW233532   3.533   1.272   4.836 -0.7352 -2.4047  0.4249
 9532SOL     OW33533   7.189  10.829   6.568 -0.3736 -0.0265 -0.1238
 9532SOL    HW133534   7.194  10.740   6.534 -0.8571 -0.6753  1.4323
 9532SOL    HW233535   7.213  10.821   6.660  1.2481  1.7304 -0.3301
 9533SOL     OW33536   7.787   7.824   1.462  0.6597  0.2775 -0.2135
 9533SOL    HW133537   7.728   7.775   1.519  1.5321 -0.2845  0.2151
 9533SOL    HW233538   7.788   7.776   1.380 -0.3696  0.9279 -0.6302
 9534SOL     OW33539   5.192  10.997   1.766 -0.6554  0.3356 -0.2865
 9534SOL    HW133540   5.208  10.930   1.833 -0.4954  0.1851 -0.4710
 9534SOL    HW233541   5.280  11.021   1.736 -0.6073  1.8464  0.9476
 9535SOL     OW33542   4.707   0.279   9.359  0.5889  0.2719  0.3695
 9535SOL    HW133543   4.680   0.321   9.441 -1.9637 -1.0050  0.3019
 9535SOL    HW233544   4.634   0.221   9.338  0.6094  1.3932 -3.4508
 9536SOL     OW33545  11.576   4.732   2.131  0.3672 -0.0286 -0.1733
 9536SOL    HW133546  11.562   4.658   2.072  1.2586 -0.9404  0.7104
 9536SOL    HW233547  11.491   4.749   2.170  0.3031 -1.0837  0.1630
 9537SOL     OW33548   8.207   4.586  10.939 -0.1407  0.5366  0.1468
 9537SOL    HW133549   8.134   4.630  10.896  0.1902  1.9192  0.9228
 9537SOL    HW233550   8.278   4.589  10.875 -0.6105 -0.3916 -0.4324
 9538SOL     OW33551   3.472   4.692   7.507 -0.0323  0.1264  0.3971
 9538SOL    HW133552   3.563   4.671   7.485 -0.2443  0.7510 -1.2311
 9538SOL    HW233553   3.467   4.787   7.500  0.0300  0.5773  4.0856
 9539SOL     OW33554  10.039   2.624   2.322 -0.3730  0.1125  0.1840
 9539SOL    HW133555  10.023   2.709   2.279 -1.0347  0.4906  1.1294
 9539SOL    HW233556  10.032   2.643   2.416  0.2477 -0.8475  0.4408
 9540SOL     OW33557   3.948   3.122   7.838 -0.2539  0.7733  0.0843
 9540SOL    HW133558   3.952   3.133   7.933 -0.6422  1.6971  0.0010
 9540SOL    HW233559   3.888   3.190   7.808 -1.1843 -0.3539 -0.6988
 9541SOL     OW33560   8.498  11.049   7.016 -0.3121  0.4317 -0.4928
 9541SOL    HW133561   8.566  11.032   7.082  0.4975 -0.5888 -1.5481
 9541SOL    HW233562   8.514  11.139   6.988 -0.6283  0.8600  0.6332
 9542SOL     OW33563   7.210   3.191   4.903  0.3423  0.1533  0.2370
 9542SOL    HW133564   7.227   3.282   4.880 -0.8785  0.0357 -1.2729
 9542SOL    HW233565   7.209   3.190   4.999 -3.1136  2.4730  0.3875
 9543SOL     OW33566   7.457   3.758   6.141 -0.1948  0.1994 -0.6400
 9543SOL    HW133567   7.539   3.802   6.162 -1.3549  1.5134  1.5014
 9543SOL    HW233568   7.449   3.765   6.046  1.5315  1.1792 -0.7382
 9544SOL     OW33569   6.314   6.136   4.103  0.1152  0.3076  0.0780
 9544SOL    HW133570   6.278   6.071   4.163  0.7240  0.8430  1.0426
 9544SOL    HW233571   6.238   6.189   4.077  0.2654  2.0422  2.8490
 9545SOL     OW33572   7.313   7.617   3.207  0.4936 -0.3110  0.0122
 9545SOL    HW133573   7.407   7.603   3.216  0.6350  0.5485 -0.0018
 9545SOL    HW233574   7.289   7.670   3.283  0.0313 -0.4942 -0.0017
 9546SOL     OW33575   9.930   4.179   2.736 -0.1055 -0.1548  0.1771
 9546SOL    HW133576   9.957   4.129   2.659 -0.8956 -0.5618  0.1542
 9546SOL    HW233577   9.910   4.113   2.802  0.9798  0.2023  0.8881
 9547SOL     OW33578   7.910   8.935   8.582  0.0637 -0.3064 -0.8571
 9547SOL    HW133579   7.996   8.909   8.547  0.6200 -1.4948  1.2362
 9547SOL    HW233580   7.913   9.030   8.584  2.1431 -0.3226  0.9410
 9548SOL     OW33581  11.443   9.088   7.446 -0.3722 -0.1425  0.7336
 9548SOL    HW133582  11.502   9.101   7.520  2.3709 -0.0266 -1.3568
 9548SOL    HW233583  11.439   9.173   7.402 -1.1161 -0.4741  0.1275
 9549SOL     OW33584   9.963   5.300   3.018 -0.0291  0.2326 -0.3699
 9549SOL    HW133585   9.969   5.367   2.950  1.1518  1.9704  1.3380
 9549SOL    HW233586  10.007   5.224   2.980 -0.0538  0.8930 -1.8023
 9550SOL     OW33587   1.582   7.264   0.478  0.1878  0.0934  0.2039
 9550SOL    HW133588   1.551   7.223   0.397 -0.5334 -0.6437  0.8411
 9550SOL    HW233589   1.662   7.217   0.500 -1.4569 -2.1414  1.7854
 9551SOL     OW33590   1.412   7.853   9.520  0.6801 -0.6726 -0.0647
 9551SOL    HW133591   1.462   7.912   9.576 -0.2434 -2.0740  2.3569
 9551SOL    HW233592   1.333   7.831   9.570 -1.2102 -0.4878 -2.7302
 9552SOL     OW33593   9.236   4.191  10.818  0.1525  0.1599 -0.2511
 9552SOL    HW133594   9.271   4.104  10.838 -0.6044 -0.1003 -0.0276
 9552SOL    HW233595   9.231   4.235  10.902 -0.4795  0.0273 -0.2114
 9553SOL     OW33596   2.395   5.421   0.213  0.1800 -0.0050 -0.2482
 9553SOL    HW133597   2.388   5.326   0.203  1.6651 -0.1951  0.2082
 9553SOL    HW233598   2.388   5.436   0.307  0.3023  0.2954 -0.2865
 9554SOL     OW33599   6.614  10.119   6.630  0.4273 -0.1985  0.1598
 9554SOL    HW133600   6.536  10.175   6.638  0.0256 -0.6641 -0.4271
 9554SOL    HW233601   6.613  10.066   6.709 -0.4429 -0.9278 -0.3205
 9555SOL     OW33602   9.194   5.585   2.872  0.0553  0.0335 -0.0740
 9555SOL    HW133603   9.212   5.526   2.799 -0.0628  2.2111 -1.9770
 9555SOL    HW233604   9.263   5.568   2.936  0.4104 -1.6193 -0.8732
 9556SOL     OW33605  11.251  11.218   1.504  0.0906 -0.1014 -0.2990
 9556SOL    HW133606  11.177  11.270   1.471  0.5582  0.8872  0.1753
 9556SOL    HW233607  11.296  11.188   1.426  0.4100  1.0826 -0.5813
 9557SOL     OW33608   5.552   0.963   8.896  0.3812 -0.8800 -0.5457
 9557SOL    HW133609   5.535   0.876   8.931  0.0377 -0.1117  1.3056
 9557SOL    HW233610   5.645   0.977   8.909  0.1283 -0.3120  0.8311
 9558SOL     OW33611   8.844   9.343  10.459 -0.0844  0.2315  0.0252
 9558SOL    HW133612   8.926   9.391  10.465 -0.5157  1.3102 -1.9570
 9558SOL    HW233613   8.785   9.388  10.520 -0.0230  1.2523 -0.6614
 9559SOL     OW33614   2.359   6.230   7.340 -0.2008 -0.0550 -0.2143
 9559SOL    HW133615   2.402   6.204   7.422  0.7104  2.5615  0.2343
 9559SOL    HW233616   2.267   6.208   7.353  0.0495 -0.3721  1.2083
 9560SOL     OW33617  10.823   7.029   3.490 -0.3783 -0.2667 -0.7256
 9560SOL    HW133618  10.841   7.083   3.567 -1.8568 -0.8396  0.0711
 9560SOL    HW233619  10.873   7.070   3.419 -0.7861  1.6528  0.0288
 9561SOL     OW33620  10.612   0.160   2.202 -0.4397  0.1762 -0.5317
 9561SOL    HW133621  10.540   0.114   2.243 -1.0826  0.7175 -1.0266
 9561SOL    HW233622  10.650   0.095   2.142  0.4125 -0.5660  0.7585
 9562SOL     OW33623   6.845  11.100   1.901  0.0170  0.7589 -0.6759
 9562SOL    HW133624   6.861  11.034   1.833  1.0904  1.3557 -1.0168
 9562SOL    HW233625   6.931  11.139   1.918 -0.2858  0.8176  0.8310
 9563SOL     OW33626   4.962   6.896   1.845 -0.0027 -0.3688 -0.2620
 9563SOL    HW133627   4.988   6.837   1.916  1.4877  1.5237  0.8453
 9563SOL    HW233628   4.999   6.856   1.766 -1.1824 -2.1979  0.0488
 9564SOL     OW33629   7.633   4.425   2.686  0.0558  0.1354  0.4154
 9564SOL    HW133630   7.717   4.386   2.710  0.9777  0.9416 -1.3239
 9564SOL    HW233631   7.634   4.511   2.728  0.1311  0.1710  0.3411
 9565SOL     OW33632   5.460   1.370   0.044  0.4614 -0.3874 -0.2981
 9565SOL    HW133633   5.548   1.373   0.006  1.0236  0.7400  1.0231
 9565SOL    HW233634   5.469   1.312   0.120  0.5919  1.2816  1.0215
 9566SOL     OW33635   7.779   9.202   9.153  0.6465  0.9720  0.5904
 9566SOL    HW133636   7.868   9.185   9.125  1.0385  3.1053  0.3510
 9566SOL    HW233637   7.783   9.287   9.198 -1.3862  1.6052 -0.2651
 9567SOL     OW33638   8.239  10.146   8.740  0.2430  0.4616 -0.3906
 9567SOL    HW133639   8.243  10.066   8.688  2.1189  0.8299 -0.8903
 9567SOL    HW233640   8.304  10.133   8.809 -0.9166  0.7256  0.7769
 9568SOL     OW33641   7.928  10.516   1.804  0.4302 -0.2457 -0.5130
 9568SOL    HW133642   7.854  10.493   1.748  0.8839 -1.1629 -0.7554
 9568SOL    HW233643   8.005  10.497   1.750  0.8750  2.2325 -0.8906
 9569SOL     OW33644   1.740   7.184   7.204  0.3262  0.0951 -0.3847
 9569SOL    HW133645   1.704   7.159   7.289  0.1794 -0.1840 -0.5260
 9569SOL    HW233646   1.664   7.208   7.151  0.3621 -0.2659 -0.6081
 9570SOL     OW33647  10.982   4.261   2.846 -0.2654 -0.3693  0.4606
 9570SOL    HW133648  10.917   4.305   2.900  0.5227 -0.9580  1.9591
 9570SOL    HW233649  11.024   4.332   2.797 -2.3434 -0.0321 -0.9757
 9571SOL     OW33650   6.880   3.344  11.546 -0.9895 -0.0324 -0.2438
 9571SOL    HW133651   6.834   3.302  11.619 -1.8711 -1.1084 -1.3610
 9571SOL    HW233652   6.810   3.381  11.492 -0.3420  0.9070 -0.4774
 9572SOL     OW33653   2.124   4.411   5.929 -0.0593  0.2994 -0.7609
 9572SOL    HW133654   2.086   4.485   5.881 -2.0095  0.6513  1.1702
 9572SOL    HW233655   2.214   4.406   5.897  0.7529  4.6229  0.1810
 9573SOL     OW33656   7.608   9.619  10.442 -0.4847 -0.2166 -0.5411
 9573SOL    HW133657   7.673   9.681  10.474  0.1499  1.2001 -4.1073
 9573SOL    HW233658   7.524   9.657  10.468 -0.0640  1.7797 -1.8540
 9574SOL     OW33659   5.364   7.931   9.369  0.2959  0.4153 -0.0480
 9574SOL    HW133660   5.342   7.937   9.276 -0.2221 -0.8149 -0.0250
 9574SOL    HW233661   5.436   7.867   9.372  1.1464  1.3731  0.2830
 9575SOL     OW33662   3.480   3.468  11.473  0.3003  0.5142 -0.1645
 9575SOL    HW133663   3.526   3.384  11.482  1.5976  1.1861 -0.2767
 9575SOL    HW233664   3.422   3.472  11.549  0.0618 -0.5704 -0.2699
 9576SOL     OW33665   4.788   4.926   3.055 -0.5969  0.1643  0.6463
 9576SOL    HW133666   4.780   4.973   2.972  0.1577  0.3220  0.6619
 9576SOL    HW233667   4.860   4.969   3.100  0.6218 -1.4706  0.3329
 9577SOL     OW33668   5.010   9.755   0.143  0.1178  0.0265  1.0024
 9577SOL    HW133669   4.952   9.806   0.201 -0.4546  0.1890  0.3052
 9577SOL    HW233670   5.064   9.821   0.099 -0.1547 -0.0107  0.6037
 9578SOL     OW33671   7.829   9.733   4.228 -0.0799 -0.4515 -0.7084
 9578SOL    HW133672   7.880   9.690   4.160  0.8546  1.4999 -1.3190
 9578SOL    HW233673   7.740   9.737   4.193 -0.2158 -1.8955 -0.5916
 9579SOL     OW33674   5.069   9.081   2.848  0.2218  0.3076  0.1330
 9579SOL    HW133675   5.090   9.059   2.939  0.3648  2.0310  0.5579
 9579SOL    HW233676   5.030   9.168   2.853  0.9842  0.7958 -1.5454
 9580SOL     OW33677   4.863   0.958   5.484  0.4185 -0.3967 -0.3318
 9580SOL    HW133678   4.789   0.974   5.425 -2.6358 -0.6470  3.0444
 9580SOL    HW233679   4.844   1.011   5.561  3.3696 -1.1581  1.0683
 9581SOL     OW33680   9.848   1.519   6.149  0.6433 -0.1928  0.4117
 9581SOL    HW133681   9.805   1.582   6.090  1.1614  1.1327  1.3866
 9581SOL    HW233682   9.857   1.440   6.096 -2.1693 -0.2756 -0.1215
 9582SOL     OW33683   1.385  10.012   2.553  0.0258 -0.3037 -0.2661
 9582SOL    HW133684   1.346   9.933   2.515 -1.1398 -0.4311  1.1338
 9582SOL    HW233685   1.459   9.980   2.604 -0.6198 -0.5480  0.5383
 9583SOL     OW33686   6.250   0.352   5.659  0.0799  0.2268  0.1749
 9583SOL    HW133687   6.163   0.311   5.665  0.1074  0.3675  2.3014
 9583SOL    HW233688   6.299   0.312   5.731  0.5267  2.9648  1.5305
 9584SOL     OW33689   2.758   0.712  10.211 -0.1114  0.2884 -0.4375
 9584SOL    HW133690   2.837   0.659  10.200  0.8311  1.3696  0.8827
 9584SOL    HW233691   2.741   0.712  10.305 -0.8043  1.3093 -0.5398
 9585SOL     OW33692   3.911   3.427   7.886 -0.1816  0.5315  0.0102
 9585SOL    HW133693   3.872   3.514   7.897  2.4153  1.8841 -0.6179
 9585SOL    HW233694   3.916   3.392   7.975 -0.6151  1.3502  0.3746
 9586SOL     OW33695  10.413   7.663   0.192  0.3997  0.1744  0.8383
 9586SOL    HW133696  10.497   7.678   0.236  1.1836  2.4043 -1.2017
 9586SOL    HW233697  10.353   7.725   0.235 -0.0185 -0.8194  1.7232
 9587SOL     OW33698   8.730   0.802   2.550  0.0375 -0.3260 -0.3882
 9587SOL    HW133699   8.637   0.784   2.560 -0.1655 -0.0000 -1.5493
 9587SOL    HW233700   8.747   0.789   2.457  0.4491  2.6016 -0.8351
 9588SOL     OW33701   3.585  10.895   5.092  0.3135 -0.1301 -0.4161
 9588SOL    HW133702   3.645  10.862   5.024  0.3677 -0.3632 -0.2555
 9588SOL    HW233703   3.498  10.892   5.051  0.2687 -0.8304 -0.2756
 9589SOL     OW33704   7.186   0.313  10.310  0.3686 -0.2170 -0.3888
 9589SOL    HW133705   7.155   0.223  10.319 -0.6495 -0.1979 -2.8549
 9589SOL    HW233706   7.281   0.306  10.319  0.2730 -1.4749 -0.1193
 9590SOL     OW33707   3.168   3.995   9.147 -0.1268 -0.0431 -0.7260
 9590SOL    HW133708   3.162   3.901   9.162  2.4924 -0.0799  0.7691
 9590SOL    HW233709   3.228   4.004   9.073 -0.5955  0.4668 -1.0529
 9591SOL     OW33710   6.443   3.159   8.531  1.0668  0.6242 -0.7873
 9591SOL    HW133711   6.524   3.207   8.514  1.9777 -1.3265 -2.3326
 9591SOL    HW233712   6.396   3.161   8.448 -0.7120  2.0162  0.1769
 9592SOL     OW33713   3.163   7.104   0.465 -0.1360  0.1785 -0.0106
 9592SOL    HW133714   3.161   7.055   0.547  0.3013 -1.2912 -0.8439
 9592SOL    HW233715   3.245   7.077   0.423 -0.9749 -0.1279 -1.5217
 9593SOL     OW33716   5.288   2.659   1.912 -0.4645 -0.2570 -1.3377
 9593SOL    HW133717   5.279   2.613   1.828  0.3711  0.6071 -1.9087
 9593SOL    HW233718   5.349   2.730   1.895  0.1633 -0.4028  0.1568
 9594SOL     OW33719   9.697   1.201   3.465  0.1025  0.5406  0.0901
 9594SOL    HW133720   9.623   1.156   3.424  0.5493  1.2390 -1.5724
 9594SOL    HW233721   9.700   1.166   3.554  0.0523 -2.2800 -0.8911
 9595SOL     OW33722  10.017   1.847   1.576 -0.2011  0.2501  0.0284
 9595SOL    HW133723   9.997   1.772   1.631 -1.7459  0.6005 -0.0228
 9595SOL    HW233724  10.043   1.809   1.492 -0.8206 -0.2361  0.0511
 9596SOL     OW33725  10.105   0.572  11.255  0.1961  0.1195 -0.3223
 9596SOL    HW133726  10.048   0.641  11.286 -1.1891 -1.4625  0.8417
 9596SOL    HW233727  10.073   0.492  11.298 -0.4290 -1.8842 -4.0522
 9597SOL     OW33728   9.154  11.099   4.762  0.3045 -1.0362 -0.0023
 9597SOL    HW133729   9.131  11.137   4.677 -0.0591 -0.8783  0.1640
 9597SOL    HW233730   9.101  11.019   4.767 -0.1167 -0.7393  0.3275
 9598SOL     OW33731   0.256   1.241  10.367 -0.0539  0.1435 -0.4617
 9598SOL    HW133732   0.162   1.223  10.365  0.3648 -2.5080 -0.2091
 9598SOL    HW233733   0.266   1.309  10.434 -1.6698 -0.4896  0.4800
 9599SOL     OW33734   4.027   0.613   9.698 -0.4842  0.2937  0.2528
 9599SOL    HW133735   4.049   0.606   9.605 -2.3440 -0.7733 -0.1702
 9599SOL    HW233736   3.975   0.534   9.715 -0.4250  0.6325  2.1290
 9600SOL     OW33737   0.130   6.603   6.938  0.3092 -0.0967 -0.3174
 9600SOL    HW133738   0.188   6.568   7.006 -0.0867 -0.9092 -0.3784
 9600SOL    HW233739   0.088   6.525   6.901 -0.4662  0.4388 -0.5858
 9601SOL     OW33740   3.687   9.197   5.317  0.2110  0.3181 -0.0848
 9601SOL    HW133741   3.757   9.139   5.286  0.4545  0.9986 -0.8470
 9601SOL    HW233742   3.657   9.157   5.399  1.0137 -0.3627 -0.1094
 9602SOL     OW33743  10.322   3.330  11.418  0.0287 -0.3897  0.1265
 9602SOL    HW133744  10.346   3.392  11.488 -0.3446 -0.8076  0.6308
 9602SOL    HW233745  10.246   3.284  11.453 -0.8024  0.1067 -0.9750
 9603SOL     OW33746   5.110   5.284   7.153 -0.0634  0.5886  0.2388
 9603SOL    HW133747   5.094   5.198   7.113  0.9514  0.8442 -0.7638
 9603SOL    HW233748   5.138   5.263   7.243 -0.2132 -0.1125  0.1271
 9604SOL     OW33749  11.485   4.144   8.869 -0.5396 -0.0242  0.0215
 9604SOL    HW133750  11.397   4.136   8.907  0.0555  0.0691  1.4967
 9604SOL    HW233751  11.523   4.056   8.876 -0.6944 -0.1954 -1.1205
 9605SOL     OW33752  10.164   4.799  11.469  0.4881 -0.1571  0.2380
 9605SOL    HW133753  10.109   4.876  11.486  0.8012 -0.1986  1.5206
 9605SOL    HW233754  10.146   4.777  11.377 -2.5864 -0.9285  0.8971
 9606SOL     OW33755   0.419   0.016   8.400 -0.4638  0.1096 -0.2390
 9606SOL    HW133756   0.372   0.004   8.482 -2.2006 -0.8050 -1.3076
 9606SOL    HW233757   0.511   0.003   8.423 -1.0340 -1.5690  1.2894
 9607SOL     OW33758   8.451   4.519   9.541  0.2393  0.0277 -0.7521
 9607SOL    HW133759   8.404   4.583   9.594  0.7239  0.7114 -1.1268
 9607SOL    HW233760   8.514   4.571   9.490  3.1005 -1.0106  1.4129
 9608SOL     OW33761  11.646   3.242   3.158 -0.4986  0.3193 -0.1445
 9608SOL    HW133762  11.740   3.238   3.142 -0.4813  1.3723 -0.4373
 9608SOL    HW233763  11.617   3.151   3.157  0.7281 -0.1366  1.3300
 9609SOL     OW33764   7.781   0.443   5.459  0.0804 -0.2967 -0.7373
 9609SOL    HW133765   7.686   0.439   5.456  0.0199  1.0840 -1.0280
 9609SOL    HW233766   7.806   0.502   5.388  1.2111 -1.2886 -1.2019
 9610SOL     OW33767   2.352  10.793   5.199  0.3681  0.8221 -0.0232
 9610SOL    HW133768   2.398  10.712   5.178  1.1216  1.0443  0.7410
 9610SOL    HW233769   2.291  10.805   5.126 -0.4480 -0.9383  0.3251
 9611SOL     OW33770   9.551  11.112   7.478 -0.2133  0.1294 -0.3428
 9611SOL    HW133771   9.515  11.132   7.392  0.5090 -0.0965 -0.7073
 9611SOL    HW233772   9.535  11.191   7.530 -0.2985  0.4148 -0.7993
 9612SOL     OW33773   7.366   8.029   9.421 -0.5777 -0.6389 -0.1991
 9612SOL    HW133774   7.427   7.970   9.377 -0.0310 -0.2608  0.0400
 9612SOL    HW233775   7.360   8.104   9.363 -0.3948 -0.4417  0.0356
 9613SOL     OW33776   6.668   5.742  10.245  0.1819  0.5225 -0.6055
 9613SOL    HW133777   6.608   5.668  10.246  0.0994  0.5877  0.3969
 9613SOL    HW233778   6.643   5.794  10.321 -0.6214  2.2726 -1.9888
 9614SOL     OW33779  10.215   3.114   9.006  0.4465 -0.0014  0.5973
 9614SOL    HW133780  10.243   3.150   9.090  1.7802  0.8003 -0.1628
 9614SOL    HW233781  10.296   3.093   8.960 -0.2655 -1.6665  0.0017
 9615SOL     OW33782   8.368   3.459   7.099 -0.1529  0.4708 -0.4637
 9615SOL    HW133783   8.391   3.535   7.046 -1.2392  1.3371  0.2816
 9615SOL    HW233784   8.424   3.464   7.176  0.8878 -0.3743 -1.1329
 9616SOL     OW33785  10.475   4.991   4.197 -0.8958 -0.2378 -0.2476
 9616SOL    HW133786  10.448   5.065   4.142 -2.9885 -0.3564  0.5264
 9616SOL    HW233787  10.437   4.915   4.154  0.3911 -0.7673 -0.4825
 9617SOL     OW33788  11.358   4.319   6.609  0.4765 -0.4795 -0.2639
 9617SOL    HW133789  11.288   4.264   6.646  0.6450 -0.3553  0.2471
 9617SOL    HW233790  11.406   4.352   6.685 -0.8677  2.0689 -0.4113
 9618SOL     OW33791   7.043  10.691   9.602 -0.0644 -0.0620 -0.3392
 9618SOL    HW133792   7.042  10.727   9.513  1.3138 -1.0654 -0.7829
 9618SOL    HW233793   7.088  10.607   9.594 -0.5380 -0.4957  1.1984
 9619SOL     OW33794   4.759   7.262   3.106 -0.3800  0.1642 -0.2668
 9619SOL    HW133795   4.709   7.310   3.171  1.6087 -0.0818  1.5375
 9619SOL    HW233796   4.815   7.203   3.156  0.7633 -0.5385 -2.2254
 9620SOL     OW33797   6.225   7.166   7.364 -0.4448 -0.2605  0.1550
 9620SOL    HW133798   6.186   7.104   7.303 -0.0854 -0.0571 -0.2869
 9620SOL    HW233799   6.181   7.249   7.345  0.8069  0.1741 -0.9565
 9621SOL     OW33800   7.769   4.474   8.060 -0.0362 -0.0637  0.1249
 9621SOL    HW133801   7.698   4.416   8.033 -1.2474  0.7715  1.3526
 9621SOL    HW233802   7.819   4.422   8.123  0.1651 -0.4811 -0.3678
 9622SOL     OW33803   2.446   5.153   7.696  0.7381  0.0884  0.3395
 9622SOL    HW133804   2.504   5.090   7.653 -1.1086 -0.5349 -1.3746
 9622SOL    HW233805   2.395   5.100   7.757 -1.2627 -0.3023 -1.5562
 9623SOL     OW33806   7.564   6.307   8.413  0.7516  0.0761  0.5225
 9623SOL    HW133807   7.600   6.300   8.325  1.2142  1.1254  0.6136
 9623SOL    HW233808   7.565   6.218   8.448  0.2755 -0.3993 -0.6379
 9624SOL     OW33809   6.805   7.469   4.973  0.2375 -0.0297  0.0542
 9624SOL    HW133810   6.833   7.386   5.013 -0.7883 -0.2500  0.3423
 9624SOL    HW233811   6.863   7.534   5.011  0.5919 -0.5192  0.3719
 9625SOL     OW33812   2.314   5.123   5.419 -0.0952  0.5124  0.7324
 9625SOL    HW133813   2.270   5.069   5.353  0.7778 -0.4383  0.8955
 9625SOL    HW233814   2.244   5.153   5.476 -0.7507  0.5735 -0.0787
 9626SOL     OW33815   6.841   8.895   4.248  0.4626 -0.2291  0.2686
 9626SOL    HW133816   6.793   8.829   4.298  0.8966 -2.6453 -2.2490
 9626SOL    HW233817   6.781   8.920   4.178  0.4230  1.9734  1.0018
 9627SOL     OW33818   2.545   2.001   1.281  0.0169  0.2962 -0.1251
 9627SOL    HW133819   2.512   2.043   1.361 -0.1823  1.2270 -0.6824
 9627SOL    HW233820   2.634   2.034   1.272  0.2315 -0.2402  0.0055
 9628SOL     OW33821   7.335   1.598   3.244  0.7694 -0.2732  0.0632
 9628SOL    HW133822   7.256   1.649   3.261 -0.8922 -2.3345 -1.0103
 9628SOL    HW233823   7.350   1.607   3.150  1.3554 -0.5282  0.1294
 9629SOL     OW33824   5.105   3.813   4.908  0.3852 -0.3809  0.1836
 9629SOL    HW133825   5.140   3.888   4.957  1.6719 -0.6996 -0.2221
 9629SOL    HW233826   5.150   3.737   4.944 -0.4595 -0.9059  0.1636
 9630SOL     OW33827   0.859   4.707   9.395  0.0412 -0.0018  0.3447
 9630SOL    HW133828   0.945   4.704   9.353 -0.4125 -1.1728 -0.5818
 9630SOL    HW233829   0.848   4.619   9.432 -1.2694 -0.3183 -0.6993
 9631SOL     OW33830   6.784   2.249  10.899 -0.0290  0.3759 -0.7169
 9631SOL    HW133831   6.702   2.297  10.913  0.3368  0.8294 -0.0671
 9631SOL    HW233832   6.758   2.157  10.896 -0.6312  0.5521 -1.0982
 9632SOL     OW33833   6.891   8.164   1.760 -0.1707  0.2838  0.4200
 9632SOL    HW133834   6.900   8.143   1.667 -0.5573 -0.3943  0.5262
 9632SOL    HW233835   6.838   8.244   1.761  0.8896  1.0297  0.0254
 9633SOL     OW33836   6.838   9.652  11.586  0.0587  0.4519 -0.4983
 9633SOL    HW133837   6.791   9.703  11.520 -0.4686  0.0955 -0.4054
 9633SOL    HW233838   6.770   9.624  11.648  0.2630 -0.7415 -0.7901
 9634SOL     OW33839   2.430  10.378   6.330  0.1091 -0.4385 -0.0612
 9634SOL    HW133840   2.386  10.459   6.354  1.7624  0.4747  0.0759
 9634SOL    HW233841   2.437  10.381   6.235  0.6301 -0.1540 -0.0174
 9635SOL     OW33842   7.024   6.740   5.458 -0.3253 -0.0507 -0.4063
 9635SOL    HW133843   6.973   6.659   5.454 -1.1138  0.4516 -1.0129
 9635SOL    HW233844   6.958   6.809   5.463  0.3186  0.4763  3.0077
 9636SOL     OW33845   1.811   6.223   5.141 -0.0812 -0.1185 -0.4944
 9636SOL    HW133846   1.768   6.270   5.070  1.6405 -1.0906 -2.2989
 9636SOL    HW233847   1.895   6.268   5.152  0.8624 -1.6440 -1.0768
 9637SOL     OW33848  10.461   1.067   0.479  0.4526  0.7621 -0.1169
 9637SOL    HW133849  10.521   1.042   0.409 -1.5119  0.5481 -1.8128
 9637SOL    HW233850  10.494   1.021   0.557  1.7510 -0.3085 -1.2512
 9638SOL     OW33851   5.897   2.097  11.390  0.1275 -0.1511  0.1652
 9638SOL    HW133852   5.907   2.088  11.295  0.1399 -0.3988  0.1892
 9638SOL    HW233853   5.964   2.160  11.416 -1.4534  1.8702 -0.3411
 9639SOL     OW33854   8.556   7.842   0.027 -0.4674  0.3204 -0.1707
 9639SOL    HW133855   8.471   7.813   0.060  0.3137 -1.5525  0.3529
 9639SOL    HW233856   8.619   7.792   0.079  0.9964  2.3096  0.0527
 9640SOL     OW33857  11.322   7.773   3.140  0.0346 -0.5633  0.7757
 9640SOL    HW133858  11.368   7.775   3.224  3.7389 -0.8085 -1.0215
 9640SOL    HW233859  11.347   7.689   3.102 -2.2955 -0.8522 -0.2446
 9641SOL     OW33860   8.572  10.213   8.214  0.3073 -0.0722  0.4615
 9641SOL    HW133861   8.505  10.217   8.283  0.2388  0.0479  0.3888
 9641SOL    HW233862   8.651  10.249   8.256  0.1464  0.4332  0.3401
 9642SOL     OW33863   4.771   8.070   6.055  1.0830  0.0959 -0.5681
 9642SOL    HW133864   4.750   8.161   6.075 -0.7919 -0.0215 -1.7638
 9642SOL    HW233865   4.804   8.034   6.137 -0.6907  1.1578  0.6669
 9643SOL     OW33866   5.077   7.676   4.622 -0.5226 -0.7473 -0.2872
 9643SOL    HW133867   5.104   7.588   4.598 -0.4667 -0.7972 -0.0375
 9643SOL    HW233868   5.094   7.728   4.543  0.3847 -0.7572 -0.1082
 9644SOL     OW33869   4.190   4.972  10.687  0.0666  0.2196 -0.1443
 9644SOL    HW133870   4.226   5.057  10.662  2.0589 -0.2881  0.7709
 9644SOL    HW233871   4.253   4.908  10.653 -0.8292 -0.8318  0.1123
 9645SOL     OW33872   7.684   7.652   7.317 -0.2215 -0.1424 -0.3410
 9645SOL    HW133873   7.755   7.592   7.294  0.1358 -0.3442  1.1731
 9645SOL    HW233874   7.611   7.625   7.261  0.4599 -0.8586 -0.9129
 9646SOL     OW33875  10.663   6.367  10.697  0.2633 -0.7164  0.2553
 9646SOL    HW133876  10.644   6.331  10.784  0.9583 -0.3982  0.5436
 9646SOL    HW233877  10.593   6.431  10.682  1.2456  0.6859  1.4439
 9647SOL     OW33878   6.103   0.206   1.726 -0.2682  0.5988  0.7555
 9647SOL    HW133879   6.189   0.181   1.692 -0.1444  1.6784  0.2343
 9647SOL    HW233880   6.058   0.123   1.741  0.2500  0.0464 -0.5788
 9648SOL     OW33881  11.400   0.788   6.065 -0.4743  0.0865  0.3160
 9648SOL    HW133882  11.387   0.694   6.056 -0.1727  0.1206 -0.5656
 9648SOL    HW233883  11.312   0.824   6.074 -0.7201 -0.1190 -1.1078
 9649SOL     OW33884   3.024   3.361   2.803  0.1972  0.3284  0.1274
 9649SOL    HW133885   3.057   3.450   2.793 -0.7668  0.8333  1.2449
 9649SOL    HW233886   3.055   3.334   2.890 -2.0758  0.7599  1.1550
 9650SOL     OW33887   0.695   7.396   3.226  0.2765 -0.7844  0.0359
 9650SOL    HW133888   0.658   7.477   3.189 -1.0563 -1.0440  0.7175
 9650SOL    HW233889   0.749   7.360   3.156  1.8384  1.2534  0.0987
 9651SOL     OW33890   3.607   0.562   1.169 -0.5544  0.1341  0.2561
 9651SOL    HW133891   3.553   0.483   1.172  1.3453 -1.2719 -0.4533
 9651SOL    HW233892   3.583   0.605   1.087 -0.6964 -0.4059  0.0110
 9652SOL     OW33893   2.481  11.524   1.212  0.2886 -0.3849  0.3286
 9652SOL    HW133894   2.434  11.511   1.130  0.0433  1.1677  0.2016
 9652SOL    HW233895   2.416  11.506   1.280  0.2445 -0.7916  0.1806
 9653SOL     OW33896   0.626   8.965   0.816  0.0135  0.3425 -0.0607
 9653SOL    HW133897   0.690   8.943   0.883 -1.0126 -1.4676  0.3760
 9653SOL    HW233898   0.654   8.916   0.739 -0.7553 -0.3708  0.0983
 9654SOL     OW33899   1.885   9.222   0.936  0.1657  0.4517  0.0293
 9654SOL    HW133900   1.965   9.245   0.888  0.2058 -1.0764 -0.6908
 9654SOL    HW233901   1.827   9.184   0.870  0.3588 -2.0418  1.1705
 9655SOL     OW33902   1.690   1.261   6.127 -0.1453  0.0425  0.1739
 9655SOL    HW133903   1.635   1.272   6.050 -1.4439 -0.0260  1.0496
 9655SOL    HW233904   1.665   1.176   6.163  2.0851 -1.0056 -0.5638
 9656SOL     OW33905   2.282   4.956   4.969  0.4838 -0.3826  0.3129
 9656SOL    HW133906   2.283   5.051   4.963  0.5360 -0.4032 -0.0555
 9656SOL    HW233907   2.372   4.929   4.949  0.0570 -0.5985 -1.5055
 9657SOL     OW33908   2.552   3.596   6.925 -0.1391  0.1884  0.1485
 9657SOL    HW133909   2.604   3.590   7.006  1.7053 -0.2052 -0.9925
 9657SOL    HW233910   2.466   3.564   6.949 -0.5605  2.7922  2.6686
 9658SOL     OW33911   5.663   7.313   8.137 -0.2259  0.2099 -0.1741
 9658SOL    HW133912   5.751   7.293   8.106 -0.7541 -1.7993 -0.4920
 9658SOL    HW233913   5.632   7.381   8.077  2.2195  3.4968  1.9170
 9659SOL     OW33914   0.985   5.168  10.397 -0.0027 -0.4339  0.0062
 9659SOL    HW133915   0.932   5.113  10.454 -0.8842  0.3608 -0.0172
 9659SOL    HW233916   1.040   5.107  10.348 -1.8623 -1.4176 -0.9653
 9660SOL     OW33917   9.270   8.633   6.056 -0.4690 -0.4769  0.2245
 9660SOL    HW133918   9.204   8.594   5.999  0.0634 -0.6548 -0.2844
 9660SOL    HW233919   9.349   8.638   6.002  0.0924 -0.7819  0.9907
 9661SOL     OW33920   6.076   1.288   9.773  0.2784  0.3833  0.2782
 9661SOL    HW133921   5.990   1.283   9.814  0.0177  1.5037 -0.0756
 9661SOL    HW233922   6.104   1.197   9.764 -0.8891 -0.0070  0.3577
 9662SOL     OW33923  10.097   8.140  10.196  0.0366 -0.4419 -0.7920
 9662SOL    HW133924  10.190   8.149  10.175  0.4011 -3.0908 -0.6647
 9662SOL    HW233925  10.053   8.135  10.111 -0.1924  2.0127 -0.8657
 9663SOL     OW33926   9.490  10.852   8.379 -0.2475  0.2641  0.4611
 9663SOL    HW133927   9.555  10.834   8.311  0.1641  2.5063  0.1826
 9663SOL    HW233928   9.494  10.776   8.437  2.8654  0.4353  0.6206
 9664SOL     OW33929   7.209   7.980   9.932 -0.3667  0.0489 -0.6445
 9664SOL    HW133930   7.156   7.949   9.859  0.3771 -0.5429 -0.9422
 9664SOL    HW233931   7.283   8.025   9.891 -0.7656  1.1095 -0.2306
 9665SOL     OW33932   6.462   0.580   0.446  0.3544 -0.1632 -0.1758
 9665SOL    HW133933   6.507   0.664   0.438 -2.4287  1.5070  0.5431
 9665SOL    HW233934   6.371   0.599   0.424 -0.4291 -2.9673  0.2217
 9666SOL     OW33935   3.082   0.458   0.258  0.1056 -0.1532 -0.1900
 9666SOL    HW133936   3.145   0.389   0.239  0.2106 -0.1467  0.1250
 9666SOL    HW233937   3.113   0.496   0.340 -0.7328 -0.6609  0.3759
 9667SOL     OW33938  11.341  10.926   5.304  0.1857 -0.2578  0.1676
 9667SOL    HW133939  11.247  10.941   5.303  0.4184  1.5507  0.8673
 9667SOL    HW233940  11.368  10.949   5.393  1.2995 -0.6896 -0.0367
 9668SOL     OW33941   2.567   6.921   9.604  0.4689  0.0244 -0.3380
 9668SOL    HW133942   2.578   6.827   9.588 -3.4842 -0.3599 -2.0529
 9668SOL    HW233943   2.520   6.953   9.527 -1.4441  2.6422  1.7268
 9669SOL     OW33944   5.163  11.176   1.000  0.2293  0.5695  0.6548
 9669SOL    HW133945   5.086  11.144   0.954 -1.0115  1.5499  1.9734
 9669SOL    HW233946   5.218  11.214   0.931 -0.2630 -0.4634 -0.3470
 9670SOL     OW33947  11.557   7.056   6.838  0.0535  0.0771 -0.2703
 9670SOL    HW133948  11.537   7.137   6.791  1.0933  2.4797  3.0350
 9670SOL    HW233949  11.652   7.044   6.827 -0.0214 -0.4727 -0.3664
 9671SOL     OW33950  11.623   4.926   9.873 -0.1016 -0.2742  0.7181
 9671SOL    HW133951  11.635   5.019   9.853  0.1096 -0.0149  1.9600
 9671SOL    HW233952  11.701   4.883   9.837 -1.1833 -0.2990 -1.7217
 9672SOL     OW33953   1.961   5.574   8.076  0.5600 -0.0096  0.2831
 9672SOL    HW133954   1.947   5.531   7.991  0.2055  0.9154 -0.1361
 9672SOL    HW233955   1.989   5.503   8.134  2.0419 -0.4460 -0.9051
 9673SOL     OW33956  10.569   8.568   2.851  0.7510  0.0149 -0.0305
 9673SOL    HW133957  10.632   8.514   2.898  0.0281 -0.6872  0.1671
 9673SOL    HW233958  10.554   8.521   2.769  1.5205  0.8962 -0.6842
 9674SOL     OW33959   4.427   7.785   7.182  0.7094  0.1373  0.2453
 9674SOL    HW133960   4.453   7.734   7.259 -1.1127 -1.5967 -0.2096
 9674SOL    HW233961   4.389   7.720   7.122 -1.0409  1.9331 -0.6846
 9675SOL     OW33962   4.271   9.547   7.353 -0.0083 -0.2493 -0.2780
 9675SOL    HW133963   4.293   9.613   7.288  1.0547 -1.0658 -0.7756
 9675SOL    HW233964   4.177   9.532   7.341 -0.3972  1.5574  0.2466
 9676SOL     OW33965   6.611   8.508   7.902  0.3663 -0.1489 -0.1889
 9676SOL    HW133966   6.652   8.425   7.876 -1.2652 -1.4173  1.0741
 9676SOL    HW233967   6.572   8.489   7.988 -0.6392  1.7439 -0.1932
 9677SOL     OW33968   1.274   5.424   7.632  0.0435  0.2712 -0.4103
 9677SOL    HW133969   1.223   5.425   7.713 -0.4236  0.0870 -0.6949
 9677SOL    HW233970   1.365   5.429   7.661 -0.0633 -0.8065  0.1800
 9678SOL     OW33971   0.838   1.127  11.594  0.3735 -0.4939 -0.5842
 9678SOL    HW133972   0.817   1.062  11.661 -0.4131 -0.6879 -1.0094
 9678SOL    HW233973   0.866   1.076  11.518  3.2515 -0.2281  0.2037
 9679SOL     OW33974   0.300   3.694  10.542  0.0376 -0.6920  0.0235
 9679SOL    HW133975   0.222   3.741  10.511  0.9195  1.4110  0.7890
 9679SOL    HW233976   0.335   3.652  10.463 -0.9242 -0.2579 -0.6642
 9680SOL     OW33977   0.934   5.467   9.870 -0.0531 -0.3219  0.5779
 9680SOL    HW133978   0.865   5.411   9.835  0.1566  0.4693 -1.1823
 9680SOL    HW233979   0.946   5.436   9.960 -1.3009 -1.7777  0.2887
 9681SOL     OW33980   9.693   3.071   6.113 -0.1188  0.3414 -0.1213
 9681SOL    HW133981   9.646   3.039   6.190  0.9556 -0.8985  0.0478
 9681SOL    HW233982   9.637   3.047   6.039 -1.3533  1.9026  0.2594
 9682SOL     OW33983   7.836   4.455   6.033 -0.0166  0.2794 -0.6210
 9682SOL    HW133984   7.795   4.540   6.012 -2.4052 -0.7139 -0.3277
 9682SOL    HW233985   7.839   4.409   5.949 -1.0195 -0.2431 -0.3824
 9683SOL     OW33986   1.115   9.598   8.744  0.4007 -0.5046  0.4294
 9683SOL    HW133987   1.163   9.550   8.676  0.5698  1.5654 -0.9874
 9683SOL    HW233988   1.023   9.586   8.721  0.4667  0.4506 -0.3929
 9684SOL     OW33989   0.215  10.053   3.828 -0.7985  0.0085  0.1462
 9684SOL    HW133990   0.120  10.045   3.825 -0.7884 -0.3912  0.6969
 9684SOL    HW233991   0.231  10.113   3.901 -0.6681  0.9447 -0.6400
 9685SOL     OW33992   0.310  10.982  10.909 -0.3204  0.9267 -0.4916
 9685SOL    HW133993   0.363  10.903  10.912 -0.6494  0.7161 -0.0637
 9685SOL    HW233994   0.231  10.957  10.861 -0.3346  1.0489 -0.5333
 9686SOL     OW33995   4.487  10.320  11.315  0.3959 -0.6207  0.1330
 9686SOL    HW133996   4.430  10.362  11.250  0.5528  0.0061  0.3902
 9686SOL    HW233997   4.433  10.315  11.394  1.1135  1.2501  0.7949
 9687SOL     OW33998   1.749   1.998   5.877  0.0934 -0.2473  0.2393
 9687SOL    HW133999   1.686   1.999   5.949 -0.8311  0.2859 -0.5524
 9687SOL    HW234000   1.696   2.008   5.798  1.2496  1.5216 -0.3909
 9688SOL     OW34001   6.873   3.448  10.924 -0.3282 -0.5602  0.3813
 9688SOL    HW134002   6.848   3.428  11.014  1.5176 -1.3525  0.7760
 9688SOL    HW234003   6.858   3.542  10.915 -1.2835 -0.6156  1.2517
 9689SOL     OW34004  11.324   0.555   9.469  0.0882  0.3602  0.7338
 9689SOL    HW134005  11.272   0.474   9.468  1.5428 -0.6559  2.4285
 9689SOL    HW234006  11.321   0.586   9.378 -0.5749 -1.5465  0.0570
 9690SOL     OW34007   0.027   6.967   8.347  0.0851  0.0782 -0.1723
 9690SOL    HW134008  -0.045   6.904   8.340  0.4533 -0.6191  1.8535
 9690SOL    HW234009  -0.005   7.033   8.408 -0.0293  1.5475 -1.7396
 9691SOL     OW34010   1.284   8.401   2.323 -0.2247  0.4623  0.4927
 9691SOL    HW134011   1.202   8.373   2.364 -0.6722  0.5053 -0.3535
 9691SOL    HW234012   1.270   8.387   2.229  2.3261 -3.9208  0.4897
 9692SOL     OW34013   1.505   1.423   3.886  0.0791  0.0888 -0.5710
 9692SOL    HW134014   1.585   1.474   3.898  0.1568  0.5843 -2.7381
 9692SOL    HW234015   1.504   1.362   3.960  1.9652  0.6886  0.0112
 9693SOL     OW34016   5.471   3.204   5.719  0.1362 -0.3348  0.2915
 9693SOL    HW134017   5.463   3.163   5.633  0.0679  2.2636 -1.0111
 9693SOL    HW234018   5.565   3.217   5.730  0.2140 -1.3576  1.0045
 9694SOL     OW34019  10.889   8.073   1.558 -0.3696  0.3573  0.3087
 9694SOL    HW134020  10.821   8.087   1.493  1.5725 -0.0557 -1.9646
 9694SOL    HW234021  10.936   8.157   1.563 -0.5681  0.4298  1.3311
 9695SOL     OW34022   6.820   8.495  10.097 -0.0311  0.2574 -0.0221
 9695SOL    HW134023   6.874   8.416  10.096 -1.9330 -1.1322 -0.0661
 9695SOL    HW234024   6.882   8.567  10.102  1.8140 -1.2125 -0.5543
 9696SOL     OW34025   2.871   1.446   4.451 -0.8944 -0.1079  0.3138
 9696SOL    HW134026   2.938   1.515   4.460 -1.2020  0.1106  0.9713
 9696SOL    HW234027   2.864   1.432   4.356 -0.3420  0.2846  0.2087
 9697SOL     OW34028   5.631   9.317   6.700 -0.4723  0.3411  0.5067
 9697SOL    HW134029   5.604   9.225   6.707  1.8373 -0.7866 -2.8812
 9697SOL    HW234030   5.561   9.358   6.648  0.9409 -1.0419 -2.8214
 9698SOL     OW34031   3.022   8.165   8.944 -0.3229 -0.5775  0.2348
 9698SOL    HW134032   3.036   8.230   9.013  0.7216 -0.9322  0.3762
 9698SOL    HW234033   3.080   8.193   8.873 -2.3284  0.5261 -1.0560
 9699SOL     OW34034   6.408   3.155   3.434 -0.2495  0.3251  0.2060
 9699SOL    HW134035   6.340   3.201   3.482 -1.5840 -0.9741 -0.3711
 9699SOL    HW234036   6.485   3.212   3.441 -0.3768  0.3138  3.6853
 9700SOL     OW34037   7.224  10.548   6.975 -0.2476  0.5976 -0.0177
 9700SOL    HW134038   7.207  10.637   7.007 -0.0910  0.0500  1.7211
 9700SOL    HW234039   7.314  10.552   6.942 -0.3557  1.1607 -0.2606
 9701SOL     OW34040   6.822   4.094   4.994  0.4288  0.8059 -0.0785
 9701SOL    HW134041   6.749   4.059   5.045  1.0600  0.3880  0.5668
 9701SOL    HW234042   6.897   4.090   5.054  1.2005  0.2929 -1.0428
 9702SOL     OW34043   1.832   5.028   0.526 -0.2643 -0.4604 -0.1584
 9702SOL    HW134044   1.751   4.979   0.536  0.2120 -1.0986  0.6560
 9702SOL    HW234045   1.852   5.059   0.614  1.3707 -1.9407  0.0398
 9703SOL     OW34046   2.702   5.336   2.444 -0.3117 -0.2027 -0.2211
 9703SOL    HW134047   2.637   5.282   2.400 -0.9426 -0.3676  0.8747
 9703SOL    HW234048   2.670   5.426   2.436 -0.0912 -0.1607 -0.6506
 9704SOL     OW34049   7.610   6.453   5.234  0.2884 -0.3830  0.3538
 9704SOL    HW134050   7.534   6.395   5.229 -0.3630  0.5684 -1.7172
 9704SOL    HW234051   7.685   6.396   5.213 -0.2342 -0.6903 -0.7511
 9705SOL     OW34052  11.513  11.678  11.503  0.2341 -0.0745  0.2940
 9705SOL    HW134053  11.598  11.635  11.515 -0.5348 -1.6261  0.4902
 9705SOL    HW234054  11.454  11.607  11.477 -1.0697  0.9201  0.4248
 9706SOL     OW34055   9.751   3.752   3.185 -0.2739  0.2503  0.0646
 9706SOL    HW134056   9.693   3.818   3.149  0.2733  0.0703 -1.2243
 9706SOL    HW234057   9.783   3.789   3.267 -0.2347  1.4290 -0.4722
 9707SOL     OW34058  11.667   2.300   1.655  0.2568 -0.0177 -0.1846
 9707SOL    HW134059  11.613   2.366   1.698  0.5251  0.8450 -1.1133
 9707SOL    HW234060  11.609   2.262   1.588  0.1071 -0.7255  0.3393
 9708SOL     OW34061  10.770   4.115   6.631  0.0601 -0.1129  0.2381
 9708SOL    HW134062  10.679   4.089   6.613  0.3622 -0.1514 -1.3791
 9708SOL    HW234063  10.814   4.033   6.654 -0.1151 -0.2296  0.1612
 9709SOL     OW34064   6.168   0.358   9.501 -0.5157  0.1171  0.0370
 9709SOL    HW134065   6.082   0.399   9.512 -1.8105 -2.5442  0.3965
 9709SOL    HW234066   6.207   0.360   9.588 -0.4275  0.8130 -0.0108
 9710SOL     OW34067   9.869  10.048   6.749  0.4356  0.2649 -0.4815
 9710SOL    HW134068   9.861  10.071   6.842  0.4841 -1.9984  0.1393
 9710SOL    HW234069   9.952  10.089   6.722 -0.0484  1.7615  0.1704
 9711SOL     OW34070   5.146  10.608   0.683 -0.1697 -0.0619 -0.1943
 9711SOL    HW134071   5.176  10.531   0.635 -0.8942  0.6187 -1.7876
 9711SOL    HW234072   5.055  10.588   0.706 -0.5645  0.5411 -1.1643
 9712SOL     OW34073   2.209  11.077   4.881 -0.8585 -0.1590  0.2270
 9712SOL    HW134074   2.124  11.117   4.862 -1.2843 -1.3233 -0.4277
 9712SOL    HW234075   2.262  11.098   4.804 -1.2481 -1.2514 -0.3651
 9713SOL     OW34076   8.553   9.365   1.601 -0.2161  0.2086  0.3760
 9713SOL    HW134077   8.546   9.289   1.544  0.0808 -0.6232  1.4210
 9713SOL    HW234078   8.642   9.397   1.588 -0.2305  0.1706  0.1879
 9714SOL     OW34079   3.727   6.416   1.178  0.2339 -0.2090  0.3591
 9714SOL    HW134080   3.671   6.355   1.132 -0.1922  1.7946 -2.0244
 9714SOL    HW234081   3.816   6.387   1.157  0.0611  0.8690 -2.2473
 9715SOL     OW34082   5.644   6.504   4.918  0.3690  0.1711 -0.1232
 9715SOL    HW134083   5.602   6.444   4.857  0.4565  2.3748 -2.5587
 9715SOL    HW234084   5.676   6.449   4.989 -1.4583 -2.3042 -1.1010
 9716SOL     OW34085   5.224   8.946   0.986  0.3074  0.0524  0.1886
 9716SOL    HW134086   5.222   8.851   0.973  2.8267  0.1875 -2.0905
 9716SOL    HW234087   5.286   8.958   1.058  0.0363 -0.0261  0.4357
 9717SOL     OW34088   1.366   9.554   0.111 -0.1093 -0.2822  0.0728
 9717SOL    HW134089   1.311   9.586   0.039  1.4051  0.0051 -1.0196
 9717SOL    HW234090   1.455   9.557   0.075  0.6715 -0.3102  1.9181
 9718SOL     OW34091   9.726   9.755   5.992  0.1018 -0.9025 -0.6943
 9718SOL    HW134092   9.755   9.725   6.078  1.6173  1.0756 -0.4241
 9718SOL    HW234093   9.799   9.733   5.934  0.6258  0.8128 -0.7520
 9719SOL     OW34094   2.991   0.996   0.174 -0.0775 -0.2740 -0.1821
 9719SOL    HW134095   2.909   1.029   0.140  1.3925  0.6470 -3.1624
 9719SOL    HW234096   2.967   0.919   0.227 -2.7915  0.0346 -0.8778
 9720SOL     OW34097   8.328   8.950   6.933  0.5302 -0.2199 -0.1451
 9720SOL    HW134098   8.330   8.896   7.012  0.7988 -1.5319 -1.0193
 9720SOL    HW234099   8.299   8.891   6.864 -1.6888  1.3720 -0.7032
 9721SOL     OW34100   8.330   6.558   9.980  0.3635 -0.0940  0.0202
 9721SOL    HW134101   8.333   6.651   9.959  0.1287 -0.3987 -1.5027
 9721SOL    HW234102   8.237   6.539   9.993  0.3828 -0.1832  0.0332
 9722SOL     OW34103   3.052   7.576   9.142 -0.0668 -0.1656 -0.1673
 9722SOL    HW134104   3.063   7.559   9.236  0.3486  2.1796  0.2654
 9722SOL    HW234105   2.974   7.631   9.136 -0.0497 -0.2282 -1.2019
 9723SOL     OW34106   9.386   7.595   7.093 -0.4483  0.0546  0.5340
 9723SOL    HW134107   9.299   7.631   7.075  0.2376  1.5395  0.0320
 9723SOL    HW234108   9.405   7.622   7.183 -0.2634  0.2473  0.4382
 9724SOL     OW34109   3.326  11.433   4.798 -0.4892  0.0366  0.0078
 9724SOL    HW134110   3.413  11.460   4.769 -0.5682 -0.5730 -0.8413
 9724SOL    HW234111   3.328  11.337   4.795 -1.5666  0.0147 -1.2364
 9725SOL     OW34112   4.565   4.442   0.488  0.0468 -0.4488 -0.0807
 9725SOL    HW134113   4.650   4.468   0.524 -0.3298 -0.5297  0.9053
 9725SOL    HW234114   4.516   4.410   0.564 -0.9025 -0.2984 -0.6160
 9726SOL     OW34115   3.373   1.173   3.345 -0.0903 -0.2036  0.3176
 9726SOL    HW134116   3.398   1.154   3.255 -0.0598 -0.2009  0.3255
 9726SOL    HW234117   3.277   1.168   3.345 -0.0961 -0.0940  0.2600
 9727SOL     OW34118   1.407   7.652   8.595  0.3087  1.3150  0.1052
 9727SOL    HW134119   1.501   7.653   8.574  0.1856 -1.7658 -1.1504
 9727SOL    HW234120   1.364   7.648   8.509 -0.9061  1.3199  0.6991
 9728SOL     OW34121  10.307   7.129  11.231  0.3449 -0.0404  0.1658
 9728SOL    HW134122  10.387   7.182  11.223 -0.2832  1.1504  1.3985
 9728SOL    HW234123  10.257   7.148  11.152  1.7487 -1.7316 -1.2366
 9729SOL     OW34124   8.492   8.728   0.461 -0.3994 -0.2892  0.0446
 9729SOL    HW134125   8.451   8.666   0.522  0.5558 -1.6538 -0.6332
 9729SOL    HW234126   8.456   8.704   0.376  0.0245  0.0531 -0.2318
 9730SOL     OW34127   7.933   9.266  10.952  0.3871 -0.7470 -0.0225
 9730SOL    HW134128   7.870   9.194  10.947  0.1943 -0.5420 -0.7375
 9730SOL    HW234129   7.899   9.323  11.021 -0.9588  0.0319 -1.2603
 9731SOL     OW34130  11.425   5.316   1.820  0.0822  0.0836 -0.0063
 9731SOL    HW134131  11.383   5.262   1.753 -2.2168  1.2344  0.4312
 9731SOL    HW234132  11.406   5.272   1.902  1.4340 -0.4003  0.0746
 9732SOL     OW34133   3.353  10.295   6.036 -0.3404 -0.5623 -0.0983
 9732SOL    HW134134   3.332  10.268   6.126 -0.7715  0.6812  0.2100
 9732SOL    HW234135   3.418  10.365   6.047  0.1998 -0.9436 -0.8025
 9733SOL     OW34136   6.619   7.067  10.224 -0.0646 -0.1452 -0.4745
 9733SOL    HW134137   6.670   7.096  10.299  0.6866 -1.4564 -0.4451
 9733SOL    HW234138   6.649   7.121  10.151  2.9949 -2.2451 -0.9419
 9734SOL     OW34139   0.053   8.300  10.827 -0.5611  0.2489 -0.5427
 9734SOL    HW134140   0.103   8.297  10.746  0.3494 -0.1346  0.0107
 9734SOL    HW234141  -0.001   8.221  10.825  0.9008 -0.8095  0.0939
 9735SOL     OW34142   8.349  10.839   7.596 -0.1426  0.3620  0.3654
 9735SOL    HW134143   8.319  10.749   7.607 -0.2221  0.1975 -0.9751
 9735SOL    HW234144   8.441  10.830   7.568  0.5279  0.7862  2.2895
 9736SOL     OW34145   0.717   8.924   4.600 -0.2709 -0.1328  0.0927
 9736SOL    HW134146   0.717   9.014   4.631 -1.0778 -0.0523 -0.1227
 9736SOL    HW234147   0.661   8.877   4.662  0.5545 -0.5960  0.4991
 9737SOL     OW34148   1.772   7.847   1.396  0.4078  0.6630 -0.2067
 9737SOL    HW134149   1.774   7.824   1.489  0.2502  1.3427 -0.0317
 9737SOL    HW234150   1.794   7.765   1.351  1.2497  0.5214  0.4495
 9738SOL     OW34151   8.722   5.170   4.893  0.0770 -0.2362 -0.4263
 9738SOL    HW134152   8.656   5.210   4.949 -0.0861 -0.4659 -0.4556
 9738SOL    HW234153   8.792   5.143   4.953  1.2247  2.0965 -0.6212
 9739SOL     OW34154   5.756   0.092   6.378  0.2723 -0.3613 -0.9291
 9739SOL    HW134155   5.759   0.176   6.333  0.2866 -1.5820 -3.4143
 9739SOL    HW234156   5.663   0.079   6.396 -0.0398 -0.7278 -2.5744
 9740SOL     OW34157  10.306   7.406   0.210  0.8896  0.0111 -0.6537
 9740SOL    HW134158  10.215   7.431   0.219  0.9362  0.5187 -1.5588
 9740SOL    HW234159  10.351   7.486   0.184  1.6300 -0.1884 -0.0327
 9741SOL     OW34160   1.380   3.349   0.718  0.6502  0.3782  0.2407
 9741SOL    HW134161   1.446   3.323   0.782  0.9409  0.8532  0.1368
 9741SOL    HW234162   1.397   3.442   0.702  0.3376  0.3578 -0.2353
 9742SOL     OW34163   0.189  10.903   0.163 -0.7478 -0.0259  0.1787
 9742SOL    HW134164   0.260  10.890   0.226 -0.2383 -0.1014 -0.4089
 9742SOL    HW234165   0.145  10.818   0.159  0.7048 -0.7538 -1.3654
 9743SOL     OW34166   7.188   7.768   0.865  0.6266  0.1520  0.5632
 9743SOL    HW134167   7.154   7.795   0.780  1.8164  0.2379  0.0856
 9743SOL    HW234168   7.163   7.838   0.925  0.8031  0.6855  0.0250
 9744SOL     OW34169   9.532   3.564   7.569 -0.2289 -0.1280 -0.1619
 9744SOL    HW134170   9.482   3.550   7.489 -0.1200 -1.4983 -0.0090
 9744SOL    HW234171   9.467   3.592   7.633 -0.3658  0.6764 -0.6371
 9745SOL     OW34172   4.181   9.193  11.294  0.0560 -0.6154 -0.0785
 9745SOL    HW134173   4.216   9.281  11.285  0.5665 -0.7332  0.6358
 9745SOL    HW234174   4.091   9.199  11.263  0.2228  0.0557 -0.4406
 9746SOL     OW34175   9.873   2.785   7.782 -0.2948 -0.3988  0.1278
 9746SOL    HW134176   9.937   2.804   7.714 -0.9681 -0.0161 -0.4108
 9746SOL    HW234177   9.823   2.710   7.748 -0.0042 -0.8407  0.6433
 9747SOL     OW34178   3.477  11.267  11.553  0.4379 -0.5773 -0.1189
 9747SOL    HW134179   3.452  11.332  11.486  0.3775 -0.2756  0.1931
 9747SOL    HW234180   3.423  11.191  11.534 -1.9815  0.5918  1.5037
 9748SOL     OW34181   4.652   3.360   9.066 -0.1552  0.1415 -0.0075
 9748SOL    HW134182   4.724   3.400   9.114 -0.7687 -0.4979  1.5303
 9748SOL    HW234183   4.663   3.390   8.976  1.7450  0.4275  0.2794
 9749SOL     OW34184   5.040   2.008   5.543 -0.0348 -0.1915  0.0410
 9749SOL    HW134185   5.002   1.951   5.476  3.2591  0.6133 -2.7859
 9749SOL    HW234186   5.119   1.962   5.571  0.5926  1.2117  0.6390
 9750SOL     OW34187   0.033  11.139   5.465  0.1296 -0.0319 -0.3268
 9750SOL    HW134188   0.034  11.215   5.407  0.9151 -0.5043 -0.9377
 9750SOL    HW234189  -0.041  11.156   5.524  0.1270  1.0752 -0.6178
 9751SOL     OW34190   7.281   5.997   5.523  0.3700 -0.1170 -0.2527
 9751SOL    HW134191   7.234   5.916   5.503 -0.6567  0.9657 -2.6240
 9751SOL    HW234192   7.361   5.991   5.471  0.7063  0.0298  0.2419
 9752SOL     OW34193   5.835   0.817   6.756 -0.5627 -0.5389  0.2694
 9752SOL    HW134194   5.869   0.744   6.705  0.1943 -1.1272  1.5715
 9752SOL    HW234195   5.755   0.843   6.710 -0.3233 -1.5530 -0.7560
 9753SOL     OW34196  10.115   3.734   6.085  0.4730 -0.0207  0.0282
 9753SOL    HW134197  10.025   3.762   6.099  0.7051 -0.1421  2.0124
 9753SOL    HW234198  10.122   3.722   5.990 -0.7696  2.7541 -0.5269
 9754SOL     OW34199  10.799   8.576   7.642  0.0421 -0.2006 -0.9683
 9754SOL    HW134200  10.730   8.519   7.608 -1.3306  1.5229 -1.1997
 9754SOL    HW234201  10.880   8.528   7.625 -1.1097 -2.6017 -0.0357
 9755SOL     OW34202   4.880  11.328   1.683 -0.3053  0.5368 -0.0664
 9755SOL    HW134203   4.882  11.289   1.770  0.4849 -0.1059 -0.3541
 9755SOL    HW234204   4.910  11.258   1.625  0.2711  1.2928 -0.7089
 9756SOL     OW34205   2.364   2.579   3.004  0.3360 -0.3381  0.2838
 9756SOL    HW134206   2.318   2.582   2.920  0.1002 -0.4108  0.4092
 9756SOL    HW234207   2.406   2.664   3.011 -1.2248  0.4327  0.9697
 9757SOL     OW34208   4.352   4.255   9.961 -0.5998  0.0635 -0.0973
 9757SOL    HW134209   4.277   4.238   9.904  0.1596  0.9879 -1.4304
 9757SOL    HW234210   4.349   4.350   9.978  0.2920  0.1273 -0.2261
 9758SOL     OW34211   0.737   4.827   4.524 -0.2990  0.0348 -0.2545
 9758SOL    HW134212   0.742   4.795   4.434 -0.2932  1.3175 -0.7339
 9758SOL    HW234213   0.711   4.919   4.515  1.9042  0.8428  0.9060
 9759SOL     OW34214  10.753  10.044  10.136  0.0085  0.0404  0.0218
 9759SOL    HW134215  10.781  10.124  10.181 -0.1068 -0.4120  0.9186
 9759SOL    HW234216  10.657  10.045  10.143  0.0665 -0.9745  1.4983
 9760SOL     OW34217   0.695   8.143   8.151 -0.2735  0.2583 -0.2142
 9760SOL    HW134218   0.742   8.165   8.071  0.4164  0.8198  0.3332
 9760SOL    HW234219   0.629   8.079   8.123  1.2179 -1.0678 -0.8980
 9761SOL     OW34220   9.406   9.525  10.044  0.3216  0.3810 -0.4630
 9761SOL    HW134221   9.497   9.531  10.013  1.1486  0.6114  1.8088
 9761SOL    HW234222   9.400   9.437  10.080  0.1108  0.8525  0.6847
 9762SOL     OW34223   4.028   2.058   1.700 -0.3623 -0.2836  0.1473
 9762SOL    HW134224   3.963   2.053   1.630  0.3602 -0.3178 -0.5451
 9762SOL    HW234225   4.104   2.099   1.659 -0.2104  0.4864  1.1455
 9763SOL     OW34226   8.395   7.085   8.001 -0.5138  0.2025  0.1359
 9763SOL    HW134227   8.414   7.082   8.095 -0.1568 -0.5297  0.0522
 9763SOL    HW234228   8.467   7.135   7.963 -1.4642  1.8410  0.4227
 9764SOL     OW34229   3.540   8.651   9.787  0.1368  0.4250  0.2339
 9764SOL    HW134230   3.520   8.560   9.805 -3.2250  0.9328 -0.4078
 9764SOL    HW234231   3.535   8.659   9.692 -0.4075  1.4406  0.3357
 9765SOL     OW34232   4.739   5.686  10.282 -0.3539  0.0114 -0.2015
 9765SOL    HW134233   4.689   5.639  10.349 -0.2003  0.2177  0.0570
 9765SOL    HW234234   4.677   5.697  10.210 -0.1826 -1.2289 -0.5610
 9766SOL     OW34235   7.691  11.368   9.666 -0.4193  0.5737  0.2737
 9766SOL    HW134236   7.627  11.308   9.705  0.9895  0.2459  2.2950
 9766SOL    HW234237   7.775  11.338   9.702  0.5443  2.5669 -0.2093
 9767SOL     OW34238  10.508   8.844   8.131 -0.4216 -0.2271  0.4235
 9767SOL    HW134239  10.589   8.826   8.084  0.0246  0.0118  1.1003
 9767SOL    HW234240  10.518   8.933   8.165 -1.0152 -0.1516  0.4171
 9768SOL     OW34241   6.271   8.242   8.273 -0.1944 -0.2579  0.4868
 9768SOL    HW134242   6.231   8.209   8.193  0.4408 -0.0321  0.0681
 9768SOL    HW234243   6.365   8.227   8.261 -0.0980 -0.2936  1.2220
 9769SOL     OW34244   8.609   6.767   8.508  0.4238 -0.1162  0.6721
 9769SOL    HW134245   8.648   6.839   8.558  1.0879  0.6077 -0.8521
 9769SOL    HW234246   8.515   6.774   8.526  0.2143  2.3299 -0.8582
 9770SOL     OW34247   0.662   2.681   9.915 -0.1594  0.0316 -0.0838
 9770SOL    HW134248   0.741   2.648   9.874 -0.2233  0.7980 -0.8457
 9770SOL    HW234249   0.691   2.711  10.002  0.2869 -0.1013 -0.1850
 9771SOL     OW34250   0.579   5.682  11.041 -0.0713  0.5913  0.1051
 9771SOL    HW134251   0.520   5.738  11.091  1.4590  0.3338  2.3314
 9771SOL    HW234252   0.664   5.689  11.085  0.2007 -3.5936  0.7145
 9772SOL     OW34253   1.694   5.991   5.090 -0.2042 -0.1428  0.4078
 9772SOL    HW134254   1.724   6.080   5.106  0.5910  0.0275 -1.7014
 9772SOL    HW234255   1.681   5.954   5.177 -1.9178  2.4309  1.3469
 9773SOL     OW34256   4.992   3.313   2.728  0.1676 -0.2160  0.1815
 9773SOL    HW134257   4.914   3.259   2.743 -0.1818 -0.3210 -1.7913
 9773SOL    HW234258   4.960   3.387   2.676  1.1476  0.4527  0.5177
 9774SOL     OW34259  10.906   7.402   7.501 -0.1606  0.5226 -0.1655
 9774SOL    HW134260  10.940   7.465   7.437 -0.0992  0.3294 -0.3237
 9774SOL    HW234261  10.819   7.379   7.468 -0.2632  0.6669 -0.0051
 9775SOL     OW34262   0.332   7.991   3.603  0.6019  0.0804 -1.2613
 9775SOL    HW134263   0.254   8.021   3.555 -0.1149  0.8088  0.2976
 9775SOL    HW234264   0.353   7.907   3.563 -0.6067  0.1538 -2.1325
 9776SOL     OW34265   1.243   4.496  10.520  0.0975 -0.2385  0.0709
 9776SOL    HW134266   1.176   4.564  10.513  1.0300  0.7594  0.4812
 9776SOL    HW234267   1.275   4.504  10.610  1.1167 -0.3350 -0.2715
 9777SOL     OW34268   1.880  10.542  11.528 -0.4351 -0.0475 -0.4790
 9777SOL    HW134269   1.847  10.455  11.505  0.1659  0.1321 -2.1238
 9777SOL    HW234270   1.819  10.603  11.486  0.1653  0.3036 -0.8503
 9778SOL     OW34271  10.823   4.756   8.738 -0.1514  0.2427  0.6261
 9778SOL    HW134272  10.768   4.787   8.809 -1.2747 -0.4158  0.0754
 9778SOL    HW234273  10.903   4.807   8.745 -0.8906  1.3334  1.3622
 9779SOL     OW34274   5.842   9.557   0.959 -0.2138  0.0758  0.3468
 9779SOL    HW134275   5.797   9.551   0.875  0.4237  0.0238 -0.0009
 9779SOL    HW234276   5.894   9.637   0.954  1.1266 -0.7739  0.0190
 9780SOL     OW34277   0.040   3.750   1.887  0.1422  0.3310 -0.1220
 9780SOL    HW134278  -0.040   3.789   1.852  0.4973  0.6398 -0.5928
 9780SOL    HW234279   0.009   3.676   1.940 -0.4710  0.6110 -0.0759
 9781SOL     OW34280   3.128  11.652   1.920 -0.2335 -0.0256  0.2426
 9781SOL    HW134281   3.092  11.639   1.833  0.5670 -0.5753 -0.0150
 9781SOL    HW234282   3.063  11.707   1.965 -1.2393 -0.7568 -0.2867
 9782SOL     OW34283   4.967   6.858   3.721  0.1778  0.2786 -0.0864
 9782SOL    HW134284   4.964   6.901   3.806 -2.5353 -0.5532  0.3442
 9782SOL    HW234285   4.938   6.925   3.659 -2.0726 -0.2457  0.3101
 9783SOL     OW34286  11.523   9.881   2.357  0.2760  0.3999  0.1724
 9783SOL    HW134287  11.456   9.850   2.418  1.4030 -1.0946  0.7028
 9783SOL    HW234288  11.540   9.807   2.300 -0.3265  1.5924 -1.6429
 9784SOL     OW34289   8.206   6.737   0.725 -0.1015 -0.4707 -0.0798
 9784SOL    HW134290   8.209   6.764   0.633 -1.2708 -0.5441 -0.1632
 9784SOL    HW234291   8.115   6.710   0.738 -0.0511 -0.0840  1.2037
 9785SOL     OW34292   2.493  11.614   9.734 -0.4233 -0.2132 -0.3812
 9785SOL    HW134293   2.410  11.653   9.760  0.2381  0.9194  0.1340
 9785SOL    HW234294   2.499  11.534   9.787 -0.5748  0.4093  0.6176
 9786SOL     OW34295   4.249   8.037  11.581 -0.0595 -1.1693  0.5308
 9786SOL    HW134296   4.244   8.007  11.672 -1.5795 -0.2840  0.7827
 9786SOL    HW234297   4.319   7.985  11.542 -0.1092 -2.3458  1.9210
 9787SOL     OW34298   0.185   5.344   5.724  0.8092 -0.6118 -0.4062
 9787SOL    HW134299   0.176   5.252   5.699  0.7635 -0.4903 -0.8417
 9787SOL    HW234300   0.125   5.355   5.798  2.2190 -1.3966  0.9129
 9788SOL     OW34301   1.640   0.030   5.532 -0.0274 -0.4179 -0.5026
 9788SOL    HW134302   1.664  -0.062   5.542  0.8178 -0.2108 -0.5338
 9788SOL    HW234303   1.717   0.078   5.563 -1.2649  0.3094  1.6267
 9789SOL     OW34304   8.516   2.949   3.452  0.3880 -0.3330 -0.5884
 9789SOL    HW134305   8.431   2.907   3.440 -1.1574  2.0956  0.9771
 9789SOL    HW234306   8.510   3.031   3.403  2.7609 -1.1111 -2.3728
 9790SOL     OW34307   5.499   3.154   9.103 -0.0467  0.4894  0.4684
 9790SOL    HW134308   5.415   3.177   9.063  0.2924 -0.8822 -1.1492
 9790SOL    HW234309   5.480   3.078   9.156  0.1816  0.0804 -0.0254
 9791SOL     OW34310  11.578   9.883   3.107 -0.3072 -0.5794  0.6584
 9791SOL    HW134311  11.595   9.881   3.013 -1.1031  0.1713  0.4788
 9791SOL    HW234312  11.502   9.826   3.119 -0.0932 -0.8216  0.8743
 9792SOL     OW34313   7.444   4.635   9.809 -0.5798 -0.2139  0.2668
 9792SOL    HW134314   7.519   4.588   9.846 -0.6204 -1.4021 -1.0639
 9792SOL    HW234315   7.375   4.570   9.805 -1.2814  0.5165  0.2300
 9793SOL     OW34316   1.258   7.684   7.597 -0.3859 -0.1646 -0.5846
 9793SOL    HW134317   1.342   7.715   7.564 -0.2530  0.3266  0.1844
 9793SOL    HW234318   1.193   7.737   7.551 -0.1166  2.6764  1.9892
 9794SOL     OW34319   0.267   7.720   0.992 -0.3328  0.0461 -0.2547
 9794SOL    HW134320   0.274   7.761   1.078  1.1549 -1.9146  0.6451
 9794SOL    HW234321   0.261   7.627   1.010 -0.8426 -0.3719 -2.2757
 9795SOL     OW34322   4.338   1.201   4.274 -0.2935  0.1675 -0.6594
 9795SOL    HW134323   4.421   1.157   4.257 -0.4745 -1.0115  1.2691
 9795SOL    HW234324   4.283   1.178   4.199  0.4735 -0.7452 -0.9600
 9796SOL     OW34325   1.012   5.770   2.474  0.2483 -0.2734  0.3770
 9796SOL    HW134326   1.024   5.726   2.558  0.1590  0.0662  0.5705
 9796SOL    HW234327   1.094   5.819   2.462  0.2705 -0.3413  0.2538
 9797SOL     OW34328   0.326   5.429   4.899 -0.0447  0.0024  0.3512
 9797SOL    HW134329   0.310   5.522   4.913  1.4600 -0.0935  3.3004
 9797SOL    HW234330   0.269   5.385   4.961  0.1876 -0.9848 -0.1162
 9798SOL     OW34331  10.983   8.943   0.740 -0.2149 -0.1074  0.2379
 9798SOL    HW134332  10.914   8.919   0.678  1.8644 -1.1160 -1.8132
 9798SOL    HW234333  11.058   8.964   0.686  2.7583 -4.1476  2.2890
 9799SOL     OW34334   3.634   4.315   2.509 -0.2940 -0.1499  0.2560
 9799SOL    HW134335   3.705   4.360   2.464 -0.2010  0.3810  0.9222
 9799SOL    HW234336   3.571   4.385   2.530 -1.6484 -0.7697 -1.4606
 9800SOL     OW34337   6.057   6.876  10.443 -0.1160  0.5660 -0.4009
 9800SOL    HW134338   6.148   6.852  10.459 -0.5991  0.2997  2.5701
 9800SOL    HW234339   6.054   6.970  10.460 -0.3950  0.5876 -0.5705
 9801SOL     OW34340   6.473   2.999  10.283  0.3956 -0.2994  0.3358
 9801SOL    HW134341   6.531   3.000  10.206 -0.8673 -0.4217 -0.6483
 9801SOL    HW234342   6.386   2.982  10.247 -0.4795  1.2172  1.6493
 9802SOL     OW34343  11.656   2.959   2.642 -0.0085 -1.0540 -0.6997
 9802SOL    HW134344  11.743   2.987   2.615 -0.9109  3.8722  0.4969
 9802SOL    HW234345  11.600   2.974   2.566 -0.3292 -1.1702 -0.4930
 9803SOL     OW34346   4.957   9.974   2.915  0.5740 -0.0497 -0.0144
 9803SOL    HW134347   4.977   9.881   2.914 -0.3212 -0.2590 -1.1520
 9803SOL    HW234348   5.041  10.017   2.900  1.0724 -0.6465  1.0119
 9804SOL     OW34349   3.673   7.844   7.927  0.7002  0.4344 -0.3319
 9804SOL    HW134350   3.686   7.924   7.978 -1.3506  0.9093 -0.4736
 9804SOL    HW234351   3.718   7.776   7.977 -0.7419  0.9882  1.8558
 9805SOL     OW34352   7.966   1.937  10.289  0.1420 -1.0453 -0.5911
 9805SOL    HW134353   8.007   2.009  10.241 -0.8792  0.1989  0.3456
 9805SOL    HW234354   7.917   1.889  10.222 -1.1638  0.5957 -0.8797
 9806SOL     OW34355   8.652   9.440   9.753 -0.0945 -0.4926 -0.4117
 9806SOL    HW134356   8.611   9.354   9.760 -0.3408 -0.5767 -2.2571
 9806SOL    HW234357   8.599   9.496   9.809 -1.2402 -1.1231 -0.8178
 9807SOL     OW34358   0.764   6.836   6.332 -0.3828  0.6534  0.0137
 9807SOL    HW134359   0.676   6.830   6.296 -0.4689 -0.3709  0.3428
 9807SOL    HW234360   0.821   6.840   6.255 -0.6658  0.3706 -0.2141
 9808SOL     OW34361   0.351   6.479   7.890 -0.1921  0.0300  0.1974
 9808SOL    HW134362   0.295   6.429   7.949  0.4785 -1.0059 -0.0092
 9808SOL    HW234363   0.380   6.416   7.824 -1.2152  1.2242 -1.4985
 9809SOL     OW34364   3.291   8.241   8.317  0.1096  0.0684 -0.0739
 9809SOL    HW134365   3.211   8.268   8.362 -0.7878 -1.9428 -0.3656
 9809SOL    HW234366   3.333   8.324   8.291 -0.5898  1.2420  2.2299
 9810SOL     OW34367   0.089   3.699   3.506  0.2478 -0.9025 -0.1348
 9810SOL    HW134368   0.066   3.671   3.418 -0.5466  0.6424 -0.4611
 9810SOL    HW234369   0.071   3.793   3.506 -0.5649 -1.0119  1.9180
 9811SOL     OW34370   0.961   5.712   2.979  0.1972  0.1144  0.2739
 9811SOL    HW134371   0.869   5.692   2.993  0.3544 -0.4670  0.5071
 9811SOL    HW234372   0.966   5.807   2.982 -0.3201  0.1290  0.7064
 9812SOL     OW34373   1.316   8.026   3.191  0.2529  0.0609  0.0539
 9812SOL    HW134374   1.358   8.088   3.132  1.6858 -1.1473 -0.2604
 9812SOL    HW234375   1.280   8.080   3.261  1.5571  1.2512 -0.1456
 9813SOL     OW34376   0.721   2.924   4.192  0.2376 -0.0955  0.0481
 9813SOL    HW134377   0.680   2.931   4.105 -0.7377  0.5766  0.5524
 9813SOL    HW234378   0.656   2.878   4.245  0.6013 -0.0015  0.5769
 9814SOL     OW34379   4.980   8.884   9.716  0.1980  0.2724 -0.3848
 9814SOL    HW134380   5.019   8.955   9.665 -1.5039  0.9749 -0.7664
 9814SOL    HW234381   5.051   8.821   9.728  1.3153  1.3020 -1.3994
 9815SOL     OW34382   1.767   4.633   8.418  0.1849  0.0373 -0.3488
 9815SOL    HW134383   1.762   4.728   8.430  0.6232  0.0321 -0.0969
 9815SOL    HW234384   1.780   4.598   8.506  2.2499 -0.0864 -0.6440
 9816SOL     OW34385   9.529   5.626   2.626 -0.1540 -0.4786  0.0043
 9816SOL    HW134386   9.476   5.649   2.550 -0.4620  0.0151  0.3656
 9816SOL    HW234387   9.534   5.706   2.678 -1.3459 -1.2231  1.3499
 9817SOL     OW34388   1.894   7.206   0.303 -0.8306 -0.7628  0.0922
 9817SOL    HW134389   1.960   7.250   0.357 -1.3012 -1.1611  1.0162
 9817SOL    HW234390   1.919   7.114   0.305 -0.3826 -0.6860 -1.0691
 9818SOL     OW34391   0.457   9.069   4.397  0.3795  0.1594  0.6035
 9818SOL    HW134392   0.467   9.125   4.474 -1.5912 -0.4905  1.3942
 9818SOL    HW234393   0.391   9.113   4.344  1.0910  0.1531 -0.3096
 9819SOL     OW34394   6.803   9.576  10.163  0.2555 -0.8737  0.1483
 9819SOL    HW134395   6.766   9.533  10.240  1.6951  0.3032  1.5673
 9819SOL    HW234396   6.750   9.655  10.151  0.1258 -0.9794  0.0210
 9820SOL     OW34397   2.654   5.817   0.022  0.3954  0.5018  0.2858
 9820SOL    HW134398   2.603   5.818  -0.059  0.0843  1.3413  0.4760
 9820SOL    HW234399   2.593   5.784   0.088  0.4251  0.5053  0.3151
 9821SOL     OW34400   0.351   7.173   6.267  0.4018  0.7557 -0.0777
 9821SOL    HW134401   0.327   7.261   6.298  0.3113  0.2894  1.2411
 9821SOL    HW234402   0.437   7.157   6.307  0.4860  0.3030 -0.4439
 9822SOL     OW34403   3.152   9.384  10.979 -0.0582 -0.5159  0.1291
 9822SOL    HW134404   3.119   9.331  10.907  0.1497  1.2311 -1.3515
 9822SOL    HW234405   3.244   9.399  10.957 -0.4842  1.7503 -0.4443
 9823SOL     OW34406   7.042   0.116   1.121  0.5665  0.2538  0.0633
 9823SOL    HW134407   7.063   0.027   1.093 -0.0485 -0.4948  1.8167
 9823SOL    HW234408   6.955   0.133   1.085 -0.0018 -0.4985  1.0352
 9824SOL     OW34409  10.724  10.547   2.418 -0.1368 -0.1330  0.3903
 9824SOL    HW134410  10.806  10.570   2.462 -1.0537 -0.6220  2.4152
 9824SOL    HW234411  10.731  10.591   2.332  1.8056  0.6339  0.8838
 9825SOL     OW34412  10.874   4.637   4.246 -0.1485  0.6818  0.2575
 9825SOL    HW134413  10.891   4.545   4.269  0.1016  0.9895  1.3435
 9825SOL    HW234414  10.802   4.633   4.183 -1.1364 -0.1807  1.3987
 9826SOL     OW34415  11.643   6.015   9.811 -0.0077 -0.0584 -0.1291
 9826SOL    HW134416  11.701   6.091   9.802 -1.8383  1.4202 -0.0729
 9826SOL    HW234417  11.590   6.016   9.731 -0.8037 -0.6122  0.3720
 9827SOL     OW34418   3.332   6.321   0.817  0.1985 -0.0666 -0.3461
 9827SOL    HW134419   3.371   6.235   0.804 -1.8568 -1.1921  0.4422
 9827SOL    HW234420   3.293   6.317   0.905 -0.4032  1.4709 -0.5023
 9828SOL     OW34421   0.408   4.104   3.349 -0.4358  0.1420 -0.5865
 9828SOL    HW134422   0.501   4.097   3.328 -0.4394 -0.3419 -0.4436
 9828SOL    HW234423   0.403   4.178   3.411 -0.2926  0.8933 -1.4488
 9829SOL     OW34424   2.151   5.941   0.211  0.0674 -0.6250  0.5487
 9829SOL    HW134425   2.153   6.007   0.142  0.5498 -1.1952  0.0134
 9829SOL    HW234426   2.163   5.991   0.292  3.2033 -0.2650  0.0029
 9830SOL     OW34427   7.132  11.420   0.161  0.1746 -0.3472  1.0141
 9830SOL    HW134428   7.212  11.472   0.151  1.1513 -1.9124  0.2567
 9830SOL    HW234429   7.073  11.453   0.093  1.3925 -1.2340 -0.5694
 9831SOL     OW34430   8.115   8.222  10.616  0.2377 -0.0108 -0.6788
 9831SOL    HW134431   8.124   8.276  10.695 -0.8292  0.0569 -0.5972
 9831SOL    HW234432   8.026   8.238  10.586 -0.6463 -2.8092  0.1577
 9832SOL     OW34433  11.470  10.303   6.845 -0.3433 -0.4330 -0.1319
 9832SOL    HW134434  11.523  10.229   6.875  0.7242  0.7819  1.1515
 9832SOL    HW234435  11.512  10.379   6.884 -1.8960  0.7832 -0.7307
 9833SOL     OW34436   3.553   2.274   7.032 -0.0363  0.2620 -0.1412
 9833SOL    HW134437   3.556   2.208   7.102  1.7342  1.6638  1.2054
 9833SOL    HW234438   3.632   2.258   6.981  0.2790  1.1507  0.0514
 9834SOL     OW34439   8.913   7.727   2.824  0.3607 -0.3227  0.4879
 9834SOL    HW134440   8.977   7.699   2.889  1.9192  1.1563 -0.3090
 9834SOL    HW234441   8.966   7.749   2.747 -1.1942  0.2203 -0.4760
 9835SOL     OW34442   5.971   1.560   7.683 -0.0715  0.1749 -0.5779
 9835SOL    HW134443   5.972   1.624   7.612 -2.7658  1.7108  0.6160
 9835SOL    HW234444   5.878   1.546   7.702  0.4971  0.5195  3.1835
 9836SOL     OW34445   3.272   1.167   6.361 -0.0740 -0.2716  0.0369
 9836SOL    HW134446   3.325   1.239   6.397  0.9738 -0.3934 -1.2015
 9836SOL    HW234447   3.190   1.209   6.334  0.4513  0.4415 -0.4927
 9837SOL     OW34448   2.068   6.253   4.554 -0.7396 -0.4342 -0.1682
 9837SOL    HW134449   2.016   6.218   4.483 -1.0499  0.6793 -0.5155
 9837SOL    HW234450   2.087   6.178   4.610  2.3199 -2.1063 -3.0440
 9838SOL     OW34451   8.595   1.173   2.129 -0.0171 -0.2889  0.5515
 9838SOL    HW134452   8.524   1.231   2.156 -0.8675 -0.0532 -1.9693
 9838SOL    HW234453   8.675   1.223   2.144 -0.7361  1.7563 -1.7910
 9839SOL     OW34454   2.841  10.731   4.097 -0.5009 -0.4871  0.1904
 9839SOL    HW134455   2.859  10.793   4.169 -1.4257  0.5756 -0.4606
 9839SOL    HW234456   2.755  10.695   4.117 -0.7191 -0.2609 -0.3254
 9840SOL     OW34457   4.035   7.511   0.231 -0.5594 -0.2023  0.4886
 9840SOL    HW134458   3.970   7.576   0.206  0.4068  0.3429 -0.7383
 9840SOL    HW234459   4.114   7.537   0.184  0.4968 -0.9623  1.7665
 9841SOL     OW34460   9.992   2.775   8.038 -0.2526  0.5864  0.4687
 9841SOL    HW134461   9.939   2.760   7.960 -0.6631 -1.4416  1.0683
 9841SOL    HW234462  10.072   2.816   8.005 -0.5749  0.1225 -0.9862
 9842SOL     OW34463   3.886   6.188   4.163 -0.6570  0.3180 -0.3098
 9842SOL    HW134464   3.815   6.124   4.167 -1.3984  1.1560  0.7609
 9842SOL    HW234465   3.907   6.206   4.255 -0.5732  1.6868 -0.5671
 9843SOL     OW34466   4.718   7.843   7.199  0.9715  0.0276  0.2068
 9843SOL    HW134467   4.625   7.820   7.206  0.2847  2.6455  0.6979
 9843SOL    HW234468   4.742   7.817   7.110 -0.5693  0.3850 -0.3456
 9844SOL     OW34469   1.718   0.627   1.116  0.1521  0.3121  0.1927
 9844SOL    HW134470   1.729   0.583   1.201 -0.3256  1.6185  0.9558
 9844SOL    HW234471   1.659   0.570   1.067 -0.8580  0.3167  1.3511
 9845SOL     OW34472   5.702   4.626   0.869  0.1808  0.4382 -0.5396
 9845SOL    HW134473   5.707   4.698   0.932 -0.3707  0.1117 -0.1191
 9845SOL    HW234474   5.622   4.579   0.892  0.7013 -0.5051 -0.6075
 9846SOL     OW34475   8.559   2.254   1.276  0.1278  0.2178  0.6566
 9846SOL    HW134476   8.635   2.292   1.231 -0.5682  1.8740  0.8007
 9846SOL    HW234477   8.536   2.177   1.225  1.0300  0.5067 -0.2088
 9847SOL     OW34478   0.884   4.640   8.483 -0.1899  0.7290 -0.0235
 9847SOL    HW134479   0.977   4.653   8.499  0.4729 -2.1164 -0.8973
 9847SOL    HW234480   0.867   4.681   8.398  1.2523 -1.8116 -1.6778
 9848SOL     OW34481   8.667   8.790  11.489  0.0468 -0.0345  0.2716
 9848SOL    HW134482   8.715   8.756  11.414  1.1251  0.7579  0.5883
 9848SOL    HW234483   8.650   8.882  11.469 -0.7346 -0.1212  0.4749
 9849SOL     OW34484   5.415   7.144   2.014 -0.5425  0.1816  0.5693
 9849SOL    HW134485   5.446   7.069   1.964 -0.6876 -0.4847  1.4470
 9849SOL    HW234486   5.374   7.105   2.092 -0.2624  1.1817  1.2317
 9850SOL     OW34487   0.080   8.383   1.785 -0.4339 -0.4156  0.1428
 9850SOL    HW134488   0.132   8.322   1.837  0.8082  0.4411 -0.0449
 9850SOL    HW234489  -0.008   8.346   1.784  0.1290 -1.8070  0.6437
 9851SOL     OW34490   7.068   4.310  11.293 -0.4136 -0.0091 -0.6738
 9851SOL    HW134491   7.002   4.355  11.346 -0.7706 -2.1382  0.8452
 9851SOL    HW234492   7.133   4.377  11.272 -1.8015  1.5825 -0.0874
 9852SOL     OW34493   8.798  10.141   6.460 -0.5633 -0.5369 -0.0507
 9852SOL    HW134494   8.770  10.091   6.537 -0.7531 -1.2511 -0.5665
 9852SOL    HW234495   8.737  10.114   6.391 -1.4829  1.3767 -0.0416
 9853SOL     OW34496   8.404   5.764   0.239  0.7002 -0.1475  0.1234
 9853SOL    HW134497   8.412   5.783   0.332  1.5789 -0.1403  0.0486
 9853SOL    HW234498   8.492   5.776   0.204  0.5653 -1.0216 -0.5454
 9854SOL     OW34499   9.932   9.175   6.798 -0.1193  0.2633  0.1840
 9854SOL    HW134500   9.898   9.144   6.882 -1.8632  0.6131 -0.3493
 9854SOL    HW234501  10.026   9.157   6.802 -0.5489 -2.1510  1.1500
 9855SOL     OW34502  11.580   9.580  11.206  0.4024 -0.3094 -0.2963
 9855SOL    HW134503  11.548   9.547  11.290 -0.9855 -1.1061 -1.0991
 9855SOL    HW234504  11.549   9.516  11.142  0.8998  0.6157 -1.4974
 9856SOL     OW34505   3.535   1.854   1.240  0.5266 -0.0087  0.7576
 9856SOL    HW134506   3.563   1.798   1.312 -0.9980 -0.9435  0.6739
 9856SOL    HW234507   3.483   1.923   1.282  0.4026 -0.0313  0.6428
 9857SOL     OW34508   8.589   9.338   4.121 -0.4069 -0.2617 -0.0941
 9857SOL    HW134509   8.581   9.295   4.036 -0.2295  0.9234 -0.7320
 9857SOL    HW234510   8.617   9.268   4.181  0.8143 -0.8389 -1.2798
 9858SOL     OW34511   6.590   7.130   1.712 -0.2682  0.2449  0.1037
 9858SOL    HW134512   6.538   7.185   1.770 -1.5121  0.0797 -0.8172
 9858SOL    HW234513   6.526   7.082   1.660  0.7331 -2.7121  1.4036
 9859SOL     OW34514   0.842   8.247   6.874 -0.1962 -0.4599 -0.2705
 9859SOL    HW134515   0.879   8.328   6.837 -0.5362  0.6789  1.7312
 9859SOL    HW234516   0.859   8.181   6.807 -0.4308  1.3689 -2.2765
 9860SOL     OW34517   2.031   0.287   3.826  0.0119  0.0216  0.2702
 9860SOL    HW134518   2.011   0.371   3.786  0.9664 -1.0064 -2.6527
 9860SOL    HW234519   2.126   0.285   3.835  0.2135 -1.4262 -1.5638
 9861SOL     OW34520   7.222   5.792  11.380 -0.2261  0.2576 -0.3538
 9861SOL    HW134521   7.291   5.728  11.362  0.8926  1.3540 -0.0921
 9861SOL    HW234522   7.144   5.739  11.393  0.6838 -1.0672 -0.0415
 9862SOL     OW34523  10.674   6.540   8.582  0.0538 -0.5265 -0.5603
 9862SOL    HW134524  10.769   6.527   8.574  0.3798  0.6809  0.7634
 9862SOL    HW234525  10.648   6.480   8.652  0.1404  0.1647  0.0887
 9863SOL     OW34526  11.395   9.713   1.423 -0.4613  0.2636 -0.1766
 9863SOL    HW134527  11.447   9.732   1.345  0.1641  0.8109  0.3690
 9863SOL    HW234528  11.458   9.703   1.494 -1.0389  0.0443  0.3217
 9864SOL     OW34529   5.667  10.113   4.326 -0.9012  0.4084 -0.1378
 9864SOL    HW134530   5.702  10.178   4.387 -0.3074 -0.3641  0.3855
 9864SOL    HW234531   5.606  10.161   4.270 -1.3230  1.1808  0.9511
 9865SOL     OW34532   8.201   0.666   2.353  0.1048 -0.0643 -0.0688
 9865SOL    HW134533   8.194   0.601   2.423  0.8532 -0.7148 -0.5965
 9865SOL    HW234534   8.283   0.712   2.371 -0.1050  0.3148 -0.0668
 9866SOL     OW34535   9.971   6.981  11.431 -0.3683  0.4842  0.0327
 9866SOL    HW134536   9.923   7.064  11.432 -0.9731  0.1583 -0.6770
 9866SOL    HW234537  10.059   7.003  11.461 -0.9402  1.1134  1.2921
 9867SOL     OW34538   6.520   8.338   0.445  0.5859  0.2324  0.4792
 9867SOL    HW134539   6.542   8.398   0.517  2.1468 -1.0433  1.1304
 9867SOL    HW234540   6.585   8.268   0.452 -0.3477 -0.8450 -1.0938
 9868SOL     OW34541   1.817  11.160   5.433 -0.1409  0.1401 -0.7622
 9868SOL    HW134542   1.840  11.231   5.494  2.5535  1.0009 -2.5557
 9868SOL    HW234543   1.781  11.091   5.488 -0.4132  1.9120  1.4117
 9869SOL     OW34544   8.753   1.621   1.541  0.8837  0.1579 -0.2038
 9869SOL    HW134545   8.822   1.603   1.606  1.0750  1.5574  0.0108
 9869SOL    HW234546   8.672   1.599   1.587  1.0925  0.0412  0.1178
 9870SOL     OW34547   4.604   4.893   2.390 -0.2912  0.2184  0.1864
 9870SOL    HW134548   4.697   4.916   2.379 -0.1639  0.2805  1.2486
 9870SOL    HW234549   4.591   4.895   2.485 -0.6558 -2.6140  0.2766
 9871SOL     OW34550   1.324   8.577   8.973  0.4312 -0.5103  0.0962
 9871SOL    HW134551   1.268   8.654   8.964 -0.6903 -1.0566  1.8768
 9871SOL    HW234552   1.413   8.611   8.965 -0.0659  0.7696 -0.2932
 9872SOL     OW34553  10.218   5.141   9.996  0.2757  0.1736 -0.0758
 9872SOL    HW134554  10.154   5.212   9.996 -0.1940 -0.2180 -1.0187
 9872SOL    HW234555  10.169   5.066  10.031  0.1823 -0.1488 -0.8815
 9873SOL     OW34556   2.013   9.623   7.696 -0.1163  0.3700 -0.8532
 9873SOL    HW134557   2.099   9.583   7.707 -0.1774  0.6125  0.6223
 9873SOL    HW234558   2.027   9.694   7.634  0.8732  0.7903 -0.1664
 9874SOL     OW34559   5.852   8.357   2.967  0.1139  0.4347  0.0362
 9874SOL    HW134560   5.913   8.284   2.956  1.1198  1.2380  0.0320
 9874SOL    HW234561   5.776   8.319   3.011  0.6850 -0.5701  0.1954
 9875SOL     OW34562   7.915  11.513   2.006 -0.5485  0.5128  0.7454
 9875SOL    HW134563   7.982  11.444   1.996 -0.8091  0.4479 -0.9082
 9875SOL    HW234564   7.866  11.487   2.084  1.1079  0.3651  1.8033
 9876SOL     OW34565   7.263   7.090   9.922  0.4777  0.2542 -0.0557
 9876SOL    HW134566   7.204   7.016   9.904  0.2964  0.3981 -0.0555
 9876SOL    HW234567   7.351   7.051   9.920  0.3459 -0.0932  0.6232
 9877SOL     OW34568  10.673   7.045   6.481 -0.6876 -0.0432  0.5196
 9877SOL    HW134569  10.585   7.073   6.507 -0.2679  2.4867 -0.5705
 9877SOL    HW234570  10.705   7.114   6.424  1.3421 -1.7910 -0.5984
 9878SOL     OW34571  10.138  11.088   9.231  0.2261  0.6122  0.1236
 9878SOL    HW134572  10.168  11.103   9.320  1.5694  1.2897 -0.4104
 9878SOL    HW234573  10.077  11.160   9.213 -0.1167  0.4200  0.5210
 9879SOL     OW34574   7.993   4.897   4.518  0.1178 -0.3301 -0.0557
 9879SOL    HW134575   8.064   4.925   4.576  0.5263 -1.5030  0.0522
 9879SOL    HW234576   7.913   4.908   4.569 -0.0147  2.5645 -0.7350
 9880SOL     OW34577  11.093   4.342   0.857 -0.0699 -0.0722 -0.2325
 9880SOL    HW134578  11.117   4.408   0.922 -1.5107  1.5920 -1.3050
 9880SOL    HW234579  11.129   4.376   0.775 -0.5538 -0.7785 -0.7449
 9881SOL     OW34580   1.836   9.193   3.223 -0.3130  0.0592  0.5074
 9881SOL    HW134581   1.884   9.256   3.169 -0.9708  0.3628  0.2578
 9881SOL    HW234582   1.824   9.117   3.167 -1.4600  0.5745  0.0043
 9882SOL     OW34583   9.468   6.967   2.638 -0.1809  0.2222 -0.3071
 9882SOL    HW134584   9.483   7.015   2.719 -0.6398  0.6167 -0.4483
 9882SOL    HW234585   9.527   6.892   2.643 -1.3804 -0.6703  1.1448
 9883SOL     OW34586   8.585   4.104   8.675 -0.4228 -0.3600 -0.2202
 9883SOL    HW134587   8.501   4.059   8.670 -0.5076 -0.1280 -1.0229
 9883SOL    HW234588   8.584   4.165   8.601  0.2690 -0.0390  0.0251
 9884SOL     OW34589   4.621   1.348   2.704  0.4876  0.1402  0.6877
 9884SOL    HW134590   4.587   1.322   2.790  3.0689  2.3750  2.5909
 9884SOL    HW234591   4.587   1.437   2.691  0.2904 -0.1032 -0.4935
 9885SOL     OW34592   9.932   5.938   3.541  0.1524 -0.1776  0.0550
 9885SOL    HW134593   9.967   5.866   3.488 -1.5022 -1.4163  0.5575
 9885SOL    HW234594   9.892   5.997   3.478  0.9360 -0.0200 -0.3091
 9886SOL     OW34595   8.970   6.500  10.780  0.3974  0.5503 -0.2178
 9886SOL    HW134596   8.916   6.548  10.842 -0.3577 -0.6276  0.0674
 9886SOL    HW234597   9.060   6.521  10.805  0.1395 -0.5124  1.8170
 9887SOL     OW34598   8.581   7.048  10.637 -0.1822 -0.5745 -0.2649
 9887SOL    HW134599   8.498   7.001  10.645 -2.4403  2.9899 -0.5085
 9887SOL    HW234600   8.600   7.049  10.544 -0.4499 -0.4963 -0.3189
 9888SOL     OW34601   4.709   3.777   1.966  0.1228 -0.2817  0.2064
 9888SOL    HW134602   4.729   3.761   1.874 -0.5057  0.8537 -0.1493
 9888SOL    HW234603   4.629   3.727   1.982 -0.9972  1.1845 -0.4938
 9889SOL     OW34604   8.394   5.675   5.012 -0.1874 -0.5503 -0.0296
 9889SOL    HW134605   8.476   5.661   4.966 -1.4778 -0.2934 -2.5995
 9889SOL    HW234606   8.410   5.750   5.069  1.2680 -0.3656 -0.6594
 9890SOL     OW34607   1.963   2.587   8.083  0.2631 -0.5737 -1.1409
 9890SOL    HW134608   2.058   2.595   8.090  0.3286 -1.2593 -1.1440
 9890SOL    HW234609   1.941   2.511   8.138 -0.6159  1.2183  1.1307
 9891SOL     OW34610   1.947   6.793   3.478  0.7650 -0.3719 -0.3355
 9891SOL    HW134611   1.918   6.881   3.454  1.5380 -0.6027 -2.2643
 9891SOL    HW234612   1.887   6.767   3.548 -0.2061  1.2265 -0.5081
 9892SOL     OW34613   6.727  10.101   4.283  0.2838  0.2854  0.0338
 9892SOL    HW134614   6.730  10.017   4.239  0.7975  0.3982 -0.1437
 9892SOL    HW234615   6.641  10.102   4.326  0.5683 -0.6384  0.6510
 9893SOL     OW34616   9.072   1.023   1.754  0.1090 -0.0564 -0.2939
 9893SOL    HW134617   9.026   1.006   1.672  1.4414 -0.4895 -0.9921
 9893SOL    HW234618   9.070   0.939   1.800 -0.8689  0.2565  0.2519
 9894SOL     OW34619   1.064   8.286   6.298  0.1060  0.4553 -0.4673
 9894SOL    HW134620   1.155   8.314   6.285  0.1065  3.3864  3.8408
 9894SOL    HW234621   1.057   8.270   6.392 -3.5125 -1.1966 -0.8833
 9895SOL     OW34622   7.761   1.992   1.545  0.4440 -0.2285 -0.1773
 9895SOL    HW134623   7.686   1.999   1.486 -0.9679 -1.8386  1.3011
 9895SOL    HW234624   7.757   1.902   1.578  1.9300  0.2132  1.3743
 9896SOL     OW34625   6.584   2.106   9.802  0.8868 -0.1123  0.6731
 9896SOL    HW134626   6.535   2.043   9.855  1.5742  0.4816  2.0898
 9896SOL    HW234627   6.662   2.126   9.855  0.4169  2.3246  0.5681
 9897SOL     OW34628  11.401   6.786   1.378  0.5038  0.4964  0.4411
 9897SOL    HW134629  11.432   6.711   1.327  1.6655  0.7132  0.7842
 9897SOL    HW234630  11.337   6.829   1.322 -1.4111 -1.6235  0.8577
 9898SOL     OW34631  11.007   8.777   7.740 -0.1244  0.1687  0.0201
 9898SOL    HW134632  11.051   8.783   7.655 -0.0792  1.1999  0.0947
 9898SOL    HW234633  10.922   8.738   7.720 -0.3673  0.9856 -0.6208
 9899SOL     OW34634  11.060   6.566   8.011  0.7902 -0.5995  0.1004
 9899SOL    HW134635  11.148   6.528   8.016  1.4917  0.9124 -0.1369
 9899SOL    HW234636  11.075   6.656   7.982 -0.9050 -0.5277 -0.6431
 9900SOL     OW34637   8.016   5.247  11.293 -0.1022 -0.1917 -0.6436
 9900SOL    HW134638   7.959   5.323  11.302 -0.8245 -0.5284 -2.0952
 9900SOL    HW234639   7.974   5.180  11.348 -0.7707 -0.2395 -1.1919
 9901SOL     OW34640   8.242   6.891   6.484 -0.2630 -0.6652  0.2530
 9901SOL    HW134641   8.192   6.844   6.550 -0.0902 -0.2368  0.6914
 9901SOL    HW234642   8.328   6.905   6.523  0.4726 -2.0636 -0.7795
 9902SOL     OW34643   0.799   3.476   1.319  0.0998  0.0836 -0.3740
 9902SOL    HW134644   0.852   3.405   1.354 -1.2084 -1.5000 -1.4207
 9902SOL    HW234645   0.800   3.462   1.224 -2.7750 -0.5767 -0.4122
 9903SOL     OW34646   0.959   1.231   3.587 -0.4040 -0.1466  0.4288
 9903SOL    HW134647   1.020   1.225   3.514 -0.4941  0.6617  0.2825
 9903SOL    HW234648   0.872   1.227   3.547 -0.4699 -1.6756  0.6676
 9904SOL     OW34649   5.904   3.570   0.996  0.4880  0.2146  0.0028
 9904SOL    HW134650   5.870   3.496   1.045 -1.4535 -0.4115 -2.0967
 9904SOL    HW234651   5.991   3.543   0.967  0.6682 -0.3420  1.0276
 9905SOL     OW34652  11.255   7.632   2.812 -0.4051 -0.4096  0.0269
 9905SOL    HW134653  11.341   7.636   2.855 -0.0759  0.9932 -0.6975
 9905SOL    HW234654  11.234   7.723   2.793 -1.5889 -0.8236 -0.7459
 9906SOL     OW34655   1.026   4.863   0.448  0.3861 -0.0857  0.0808
 9906SOL    HW134656   0.951   4.841   0.504  0.1583  1.7774  0.5615
 9906SOL    HW234657   1.014   4.955   0.425  1.7561 -0.1463 -1.0768
 9907SOL     OW34658   5.972   9.423   4.415  0.4131  0.0226  0.5757
 9907SOL    HW134659   6.005   9.342   4.374 -2.6122 -2.2253  2.1523
 9907SOL    HW234660   5.943   9.476   4.341  0.7922 -1.1411 -0.4628
 9908SOL     OW34661   0.358   1.057   2.483  0.1520  0.1068 -0.0483
 9908SOL    HW134662   0.376   0.986   2.422  1.3811  1.2337 -1.0619
 9908SOL    HW234663   0.264   1.054   2.497 -0.0468 -0.6424 -1.4226
 9909SOL     OW34664   6.002   0.456   3.887 -0.3560  0.1547 -0.2704
 9909SOL    HW134665   6.091   0.473   3.853 -1.4338  1.7505 -2.6333
 9909SOL    HW234666   5.960   0.405   3.818 -1.8323  1.1151 -0.1318
 9910SOL     OW34667   1.155   2.740   6.615  1.0822  0.1080  0.0723
 9910SOL    HW134668   1.129   2.765   6.526  1.8143 -0.5951 -0.3543
 9910SOL    HW234669   1.251   2.732   6.610  0.9389 -2.5287  0.2135
 9911SOL     OW34670   3.107   4.759   9.848 -0.1572 -0.3220  0.1417
 9911SOL    HW134671   3.156   4.684   9.881  0.6226 -0.9103 -2.1190
 9911SOL    HW234672   3.043   4.721   9.788  0.3209  0.7768 -1.1304
 9912SOL     OW34673   6.271   5.838   9.465  0.6994  0.3276  0.3952
 9912SOL    HW134674   6.272   5.929   9.436 -0.0398  0.3467  0.3976
 9912SOL    HW234675   6.216   5.793   9.401  0.0441  0.1397  1.0670
 9913SOL     OW34676  10.013   4.864   9.323 -0.2169 -0.7276  0.7681
 9913SOL    HW134677  10.014   4.960   9.334  1.3332 -0.4436 -1.3329
 9913SOL    HW234678   9.970   4.850   9.239 -0.5887 -1.9195  1.1427
 9914SOL     OW34679   7.978   8.467   2.096 -0.2634 -0.1486 -0.0162
 9914SOL    HW134680   7.962   8.445   2.188 -0.7004 -0.9780 -0.2822
 9914SOL    HW234681   7.892   8.457   2.054  0.2492 -1.3273 -0.8194
 9915SOL     OW34682   9.162   1.599   2.023  0.6169 -0.0094 -0.0076
 9915SOL    HW134683   9.172   1.678   2.076  0.4170  1.6620 -2.3063
 9915SOL    HW234684   9.151   1.631   1.933  1.7367 -2.6825 -1.2226
 9916SOL     OW34685   0.490   3.372   4.175 -0.0316  0.0794 -0.5145
 9916SOL    HW134686   0.535   3.328   4.103  0.5298  0.4386 -0.3903
 9916SOL    HW234687   0.399   3.344   4.167  0.0726 -0.0823 -1.2150
 9917SOL     OW34688   5.849   3.459   0.346  0.0188  0.3878 -0.2331
 9917SOL    HW134689   5.848   3.550   0.318 -0.0294  0.3926 -0.2173
 9917SOL    HW234690   5.934   3.425   0.318 -0.1693  0.2916 -0.7072
 9918SOL     OW34691   0.223   2.708   4.468  0.2738 -0.7701 -0.0157
 9918SOL    HW134692   0.222   2.774   4.537 -0.4837 -1.5779  0.7725
 9918SOL    HW234693   0.239   2.758   4.388 -2.1595  0.6656  0.2771
 9919SOL     OW34694   4.888   6.067   4.982  0.4523  0.1618  0.5526
 9919SOL    HW134695   4.867   5.976   5.005  1.1731  0.0519  0.7919
 9919SOL    HW234696   4.814   6.117   5.017 -0.2249 -0.3782 -0.0622
 9920SOL     OW34697  11.172  11.487   3.115  0.0058 -0.1789 -0.5128
 9920SOL    HW134698  11.138  11.559   3.062  1.7818  1.1442  0.0341
 9920SOL    HW234699  11.252  11.460   3.069  0.8415  0.0810  0.7445
 9921SOL     OW34700  11.058   7.714   6.713  0.0283  0.0330  0.7273
 9921SOL    HW134701  11.001   7.669   6.776  0.6265 -1.1308  0.4730
 9921SOL    HW234702  11.141   7.666   6.719  0.1820  0.0833 -0.7382
 9922SOL     OW34703   3.317   0.570   3.833  0.4415 -0.4108  0.2280
 9922SOL    HW134704   3.263   0.493   3.849  1.2192 -1.3146 -1.3460
 9922SOL    HW234705   3.361   0.586   3.916 -0.6609 -0.8988  0.9315
 9923SOL     OW34706   5.243   2.861   1.646 -0.2894 -0.0879 -0.2689
 9923SOL    HW134707   5.196   2.780   1.630 -2.7290  1.4933 -1.7731
 9923SOL    HW234708   5.206   2.923   1.583 -0.2394  2.8289  2.3337
 9924SOL     OW34709   1.646   8.488   4.415  0.5516  0.0361  0.4475
 9924SOL    HW134710   1.587   8.476   4.341  0.5487 -0.6521  0.5516
 9924SOL    HW234711   1.726   8.524   4.376  1.3189 -2.2258 -0.2566
 9925SOL     OW34712   2.112   2.929   3.467 -0.4991 -0.2617  0.2887
 9925SOL    HW134713   2.083   2.905   3.379 -0.0786  0.8131 -0.1593
 9925SOL    HW234714   2.060   3.006   3.489 -0.6467 -0.5609  1.0169
 9926SOL     OW34715   9.853  10.975   9.563 -0.5406 -0.1102 -0.1359
 9926SOL    HW134716   9.883  10.915   9.631 -2.8571  0.7735  1.8097
 9926SOL    HW234717   9.762  10.950   9.548 -1.1202  1.9535 -0.3384
 9927SOL     OW34718   5.693   0.477   5.363 -0.1582  0.1943 -0.8068
 9927SOL    HW134719   5.605   0.457   5.393  0.2180 -0.9652 -0.3972
 9927SOL    HW234720   5.720   0.553   5.415 -0.0051 -0.9762  0.9288
 9928SOL     OW34721   8.543  10.847   7.389 -0.1486  0.5168  0.3496
 9928SOL    HW134722   8.539  10.751   7.391 -0.6872  0.4312 -2.0554
 9928SOL    HW234723   8.479  10.872   7.323  0.5189  2.5129  0.4101
 9929SOL     OW34724   1.105   2.251  10.698 -0.1486  0.6781  0.0038
 9929SOL    HW134725   1.036   2.312  10.723 -0.3769  0.5816 -0.3767
 9929SOL    HW234726   1.080   2.167  10.737  0.4303  0.9303  0.9640
 9930SOL     OW34727   4.641   3.030   3.188 -0.5523  0.4185  0.1741
 9930SOL    HW134728   4.551   3.048   3.215 -0.0756  3.4867  0.0193
 9930SOL    HW234729   4.692   3.032   3.269 -0.3388  0.8801  0.0328
 9931SOL     OW34730   6.053   2.726   6.181  0.1948 -0.1640  0.2130
 9931SOL    HW134731   5.978   2.697   6.129  0.4764  0.4819 -0.5791
 9931SOL    HW234732   6.052   2.670   6.259 -0.8261 -0.4782 -0.0133
 9932SOL     OW34733   2.877  10.295  10.305  0.1792  0.3951 -0.1181
 9932SOL    HW134734   2.924  10.216  10.276  1.4375  1.0156  0.1445
 9932SOL    HW234735   2.788  10.265  10.321  1.3187 -1.8122  3.3027
 9933SOL     OW34736   3.694   7.127   1.375  0.0648  0.3689  0.0188
 9933SOL    HW134737   3.764   7.119   1.310 -0.8689 -1.1497 -0.8482
 9933SOL    HW234738   3.715   7.060   1.440 -0.0653  0.5668  0.2630
 9934SOL     OW34739   7.860   9.835   8.752 -0.8430 -0.4368 -0.3456
 9934SOL    HW134740   7.934   9.784   8.719 -0.4335 -0.7593  1.0073
 9934SOL    HW234741   7.845   9.901   8.684  2.6262  1.5469  0.5591
 9935SOL     OW34742   2.545   5.414   5.246 -0.4798  0.4233 -0.3599
 9935SOL    HW134743   2.508   5.466   5.317 -0.8495 -0.3944  0.0716
 9935SOL    HW234744   2.639   5.428   5.252 -0.5015  0.2921  0.3618
 9936SOL     OW34745  10.181  11.326   2.218 -0.3100  0.1072  0.4871
 9936SOL    HW134746  10.149  11.401   2.168  0.3296  0.6695  0.8933
 9936SOL    HW234747  10.139  11.250   2.178 -0.5875  0.6367 -0.2483
 9937SOL     OW34748   2.004  11.631   4.383  0.4415 -0.1220 -0.1083
 9937SOL    HW134749   2.066  11.635   4.456  0.8194 -1.2577 -0.3529
 9937SOL    HW234750   1.931  11.579   4.416  0.6266 -0.6615 -0.5381
 9938SOL     OW34751   0.366   4.301   7.298  0.1240 -0.5876  0.6301
 9938SOL    HW134752   0.338   4.280   7.209  0.2351 -2.0465  0.9175
 9938SOL    HW234753   0.413   4.223   7.328 -0.2542 -0.2863  2.1097
 9939SOL     OW34754   6.161   1.776   2.345  0.1008 -0.2223  0.1418
 9939SOL    HW134755   6.182   1.762   2.437 -0.6106 -0.1880  0.3208
 9939SOL    HW234756   6.172   1.870   2.331  2.0367 -0.4731 -0.3067
 9940SOL     OW34757   6.028  11.269  11.403  0.0190  0.0627  0.0061
 9940SOL    HW134758   6.060  11.343  11.352  1.1839  0.1170  0.7781
 9940SOL    HW234759   6.019  11.303  11.492  1.2853 -0.8895  0.5256
 9941SOL     OW34760   8.140   0.458   2.101  0.1785  0.5701 -0.3960
 9941SOL    HW134761   8.185   0.504   2.172  0.0841  0.5821 -0.3422
 9941SOL    HW234762   8.202   0.456   2.029 -0.2243  1.7871 -0.7977
 9942SOL     OW34763   8.178   7.291   3.634  0.0360 -0.2347  0.6855
 9942SOL    HW134764   8.168   7.356   3.564 -2.5795 -0.4830  0.7201
 9942SOL    HW234765   8.207   7.212   3.589  1.3025  0.4009  0.3510
 9943SOL     OW34766   0.988   6.230   9.084 -0.2137  0.3149 -0.6467
 9943SOL    HW134767   0.973   6.181   9.003  0.5686 -0.5576 -0.2811
 9943SOL    HW234768   1.072   6.198   9.116 -0.2746  1.0169  0.2518
 9944SOL     OW34769  10.818  10.330   1.262  0.2738  0.4636  0.5283
 9944SOL    HW134770  10.727  10.312   1.286  0.7548 -0.2729  1.8957
 9944SOL    HW234771  10.867  10.318   1.343  1.6540  0.4305 -0.2824
 9945SOL     OW34772   0.299   7.066   7.940  0.6153 -0.1580 -0.4209
 9945SOL    HW134773   0.204   7.075   7.951  0.5199  0.2208 -1.4353
 9945SOL    HW234774   0.318   7.109   7.856  1.7832  0.3975  0.1051
 9946SOL     OW34775   9.813   7.441   7.546 -0.1074  0.1961 -0.4163
 9946SOL    HW134776   9.812   7.408   7.456 -0.6300  0.4871 -0.5222
 9946SOL    HW234777   9.866   7.520   7.542 -1.0092  0.7942 -0.6850
 9947SOL     OW34778   2.526   0.619   8.332  0.2044 -0.1599  0.2942
 9947SOL    HW134779   2.536   0.575   8.416  0.3090 -1.1054 -0.2023
 9947SOL    HW234780   2.437   0.597   8.304  0.1406  0.2186  0.1858
 9948SOL     OW34781   7.016  10.262   8.853 -0.1152  0.5838 -0.3209
 9948SOL    HW134782   7.025  10.167   8.864 -0.8806  0.3622 -1.4125
 9948SOL    HW234783   6.995  10.294   8.941  1.0113 -0.1378  0.2270
 9949SOL     OW34784   6.914   3.209   0.915 -0.6669 -0.1139 -0.0143
 9949SOL    HW134785   6.870   3.239   0.835 -0.9249 -1.5865 -0.4538
 9949SOL    HW234786   6.859   3.241   0.986 -1.6163 -0.5914 -0.5145
 9950SOL     OW34787   8.783   6.604   7.812 -0.5751 -0.2019 -0.6483
 9950SOL    HW134788   8.702   6.656   7.818  0.1681  0.9224  0.1544
 9950SOL    HW234789   8.841   6.656   7.757 -0.5998 -1.3129 -1.7617
 9951SOL     OW34790   5.105   8.964   3.105 -0.2005 -0.0958 -0.0951
 9951SOL    HW134791   5.073   9.007   3.184  0.6338  1.5960 -0.6343
 9951SOL    HW234792   5.190   8.926   3.131 -0.0952  0.1453 -0.0876
 9952SOL     OW34793   6.879   9.297   0.510  0.7834 -0.1031 -0.3018
 9952SOL    HW134794   6.810   9.314   0.446  1.7046 -1.4086 -1.6940
 9952SOL    HW234795   6.880   9.202   0.519  1.2142  0.0082  1.0817
 9953SOL     OW34796   2.350   3.799   3.087  0.6204 -0.1129  0.2349
 9953SOL    HW134797   2.256   3.786   3.084  0.9230 -2.6692 -0.7065
 9953SOL    HW234798   2.364   3.864   3.156 -1.6818 -0.9857  1.6162
 9954SOL     OW34799   9.168   6.939   2.502  0.5404 -0.6506  0.4580
 9954SOL    HW134800   9.220   6.873   2.548  1.2622 -0.5936 -0.2598
 9954SOL    HW234801   9.229   6.978   2.439  0.0911  0.6279  0.8001
 9955SOL     OW34802   0.938   1.323   2.873 -0.3211  0.1527  0.4263
 9955SOL    HW134803   0.885   1.321   2.793 -0.1946 -0.5252  0.3506
 9955SOL    HW234804   0.915   1.242   2.919 -0.9190  0.8814  1.4295
 9956SOL     OW34805   9.636   5.026  11.475 -0.4114 -0.8616  0.0682
 9956SOL    HW134806   9.552   5.072  11.467  0.7322  1.2371 -0.5948
 9956SOL    HW234807   9.682   5.046  11.394  0.4366 -2.7097  0.0355
 9957SOL     OW34808   2.948   2.234   9.327  0.1480 -0.5554 -0.1317
 9957SOL    HW134809   2.991   2.149   9.328 -0.7321 -1.0209 -0.8989
 9957SOL    HW234810   2.953   2.263   9.236  2.9044  1.5393  0.5264
 9958SOL     OW34811   7.211   4.131   2.156  0.4239 -0.4666 -0.1007
 9958SOL    HW134812   7.238   4.222   2.141 -0.7810 -0.2630 -1.2270
 9958SOL    HW234813   7.232   4.114   2.248 -0.5602  1.3977  0.5084
 9959SOL     OW34814   1.064   2.099   5.457 -0.4864 -0.3805 -0.2012
 9959SOL    HW134815   0.986   2.047   5.441  0.0432 -0.5638 -2.5479
 9959SOL    HW234816   1.032   2.188   5.467 -1.1477 -0.7315  1.0872
 9960SOL     OW34817   2.857   3.493   5.254  0.1737 -0.5001  0.7236
 9960SOL    HW134818   2.801   3.480   5.331 -0.4030  0.1928  0.4335
 9960SOL    HW234819   2.806   3.461   5.180  0.1571  0.1218  0.4569
 9961SOL     OW34820  10.336   9.032   1.445 -0.0685 -0.1677  0.2426
 9961SOL    HW134821  10.325   9.028   1.540 -1.5468 -0.9082  0.0666
 9961SOL    HW234822  10.259   9.080   1.414 -1.0785 -2.2923 -0.7762
 9962SOL     OW34823   8.465   8.732   3.542  0.2025 -0.3217  0.1999
 9962SOL    HW134824   8.512   8.674   3.482  1.7089  0.5041  0.5179
 9962SOL    HW234825   8.470   8.818   3.501 -1.3982 -0.2721  0.0697
 9963SOL     OW34826   4.254   7.190   4.877 -0.0237 -0.2032  0.0983
 9963SOL    HW134827   4.244   7.172   4.783  0.3248 -0.3919  0.0970
 9963SOL    HW234828   4.310   7.267   4.881 -0.8329  0.3995  0.1291
 9964SOL     OW34829   1.272  11.313   2.939  0.3831  0.0070 -0.8746
 9964SOL    HW134830   1.298  11.334   3.028 -1.2597  0.6250 -0.5130
 9964SOL    HW234831   1.341  11.351   2.884 -0.1581  2.3832 -0.0122
 9965SOL     OW34832  11.011   6.299   9.989 -0.5689  0.2020 -0.4247
 9965SOL    HW134833  11.091   6.253   9.967 -0.8393 -1.0322  1.0560
 9965SOL    HW234834  10.944   6.260   9.932 -0.4970 -0.1057 -0.2954
 9966SOL     OW34835   5.335   7.742   5.643 -0.4294 -0.3883 -0.1004
 9966SOL    HW134836   5.353   7.820   5.696  0.5889  0.3635 -1.4805
 9966SOL    HW234837   5.249   7.759   5.604  0.3018  0.6298 -1.3362
 9967SOL     OW34838   4.119   4.209   4.490 -0.3246  0.1029  0.1770
 9967SOL    HW134839   4.170   4.241   4.564 -1.3066  1.0436  0.4831
 9967SOL    HW234840   4.032   4.191   4.528 -0.8995  0.7933 -0.7742
 9968SOL     OW34841   4.158   9.779   1.723 -0.5515 -0.6930 -0.6416
 9968SOL    HW134842   4.113   9.780   1.638 -1.3430 -0.7085 -0.2349
 9968SOL    HW234843   4.213   9.700   1.721 -0.3069 -0.5099 -1.2648
 9969SOL     OW34844  10.391  10.732   6.362 -0.3960 -0.0569 -0.0385
 9969SOL    HW134845  10.459  10.698   6.304 -0.2143 -0.7101  0.5328
 9969SOL    HW234846  10.352  10.806   6.315  1.8189  1.4097  0.3040
 9970SOL     OW34847   0.605   6.868   2.842  0.4617  0.4562 -0.5615
 9970SOL    HW134848   0.649   6.823   2.914  1.4748  2.6678  0.2995
 9970SOL    HW234849   0.515   6.878   2.871  0.6814  0.6513  0.0546
 9971SOL     OW34850   7.748   4.646   8.384  0.1319 -0.0872 -0.0892
 9971SOL    HW134851   7.737   4.680   8.295 -0.1678 -1.1613 -0.4698
 9971SOL    HW234852   7.815   4.579   8.376 -0.1200 -0.4081  0.4345
 9972SOL     OW34853   3.140  10.141   3.759  0.0791 -0.4002 -1.0065
 9972SOL    HW134854   3.198  10.072   3.790  0.9493 -0.3100 -2.3736
 9972SOL    HW234855   3.184  10.177   3.682 -0.5209  1.4472 -0.5333
 9973SOL     OW34856   9.871   7.534   1.032  0.5353 -0.2882 -0.6760
 9973SOL    HW134857   9.855   7.624   1.007 -0.7296 -0.1787  0.4082
 9973SOL    HW234858   9.887   7.537   1.126 -1.4923 -1.3513 -0.2176
 9974SOL     OW34859   4.752  10.559  11.077 -0.1457 -0.5060  0.1123
 9974SOL    HW134860   4.817  10.498  11.113 -0.0375  0.1671  1.0844
 9974SOL    HW234861   4.801  10.611  11.014  0.1452 -0.3568  0.4548
 9975SOL     OW34862   7.644   4.586   5.826 -0.2733  0.2163  0.3561
 9975SOL    HW134863   7.631   4.516   5.762 -1.0258  0.1709  0.5473
 9975SOL    HW234864   7.660   4.664   5.773  1.0493 -0.1725  0.1469
 9976SOL     OW34865   7.893   3.681   1.337 -0.3732 -0.0985  0.3208
 9976SOL    HW134866   7.943   3.759   1.363 -2.0206  1.2409 -0.2709
 9976SOL    HW234867   7.806   3.695   1.375 -0.8755 -1.3764 -0.2918
 9977SOL     OW34868   6.142   7.625  11.686 -0.1796  0.1872  0.4274
 9977SOL    HW134869   6.202   7.560  11.722 -0.2697  0.6343  1.4195
 9977SOL    HW234870   6.199   7.685  11.638 -0.0135 -0.2284  0.1033
 9978SOL     OW34871   3.872  11.682   3.975  0.1883 -0.2415 -0.4187
 9978SOL    HW134872   3.788  11.725   3.960 -1.3820 -2.1225  2.2039
 9978SOL    HW234873   3.913  11.734   4.044  0.4846 -0.1973 -0.6280
 9979SOL     OW34874   1.423   2.580   2.026  0.1526 -0.2639  0.1092
 9979SOL    HW134875   1.468   2.621   1.952 -1.3230  0.7193 -0.2884
 9979SOL    HW234876   1.469   2.497   2.039  0.2491 -0.6276 -2.1375
 9980SOL     OW34877   2.831   6.614   1.550  0.4386 -0.7658  0.3648
 9980SOL    HW134878   2.820   6.641   1.641 -1.9320  0.2571 -0.1323
 9980SOL    HW234879   2.911   6.658   1.521  1.5315 -1.5387  2.0497
 9981SOL     OW34880   7.194  11.338   8.178  0.3538 -0.0780 -0.2479
 9981SOL    HW134881   7.149  11.268   8.131 -1.4079  0.7731  0.1057
 9981SOL    HW234882   7.124  11.391   8.216  1.6506  1.6662 -0.1799
 9982SOL     OW34883  10.617   9.349   2.990  0.1674 -0.2729 -0.6624
 9982SOL    HW134884  10.702   9.351   2.946 -0.7194  2.7479 -2.6079
 9982SOL    HW234885  10.565   9.288   2.939  1.1883 -2.4557  0.7831
 9983SOL     OW34886   2.157  11.284   7.201  0.5573 -0.1019 -0.5385
 9983SOL    HW134887   2.169  11.357   7.261  1.2235 -0.0718 -0.7052
 9983SOL    HW234888   2.137  11.210   7.258  0.4441  0.0854 -0.3329
 9984SOL     OW34889   8.242   6.202   8.409  0.0746  0.8999  0.5797
 9984SOL    HW134890   8.181   6.268   8.375 -1.8926 -0.3467  1.4724
 9984SOL    HW234891   8.230   6.206   8.504 -0.3824 -0.9449  0.6385
 9985SOL     OW34892  11.563   7.409   9.813 -0.5001 -0.0043  0.3404
 9985SOL    HW134893  11.542   7.322   9.780 -1.1294 -0.3353  1.5541
 9985SOL    HW234894  11.488   7.463   9.790  0.4401  0.5770 -1.5634
 9986SOL     OW34895   3.009   6.081   6.551 -0.1348  0.5061  0.1121
 9986SOL    HW134896   3.020   6.080   6.646  0.6213  0.8953  0.0381
 9986SOL    HW234897   2.917   6.060   6.537  0.1174 -1.3598  0.8692
 9987SOL     OW34898   0.742   2.942   2.393 -0.0635  0.1645 -0.1512
 9987SOL    HW134899   0.739   3.035   2.368 -0.5766 -0.2158 -1.6295
 9987SOL    HW234900   0.668   2.902   2.347 -0.4700 -0.8143  1.2869
 9988SOL     OW34901   3.229   3.198  10.577 -0.4827  0.1360 -0.4105
 9988SOL    HW134902   3.232   3.218  10.671 -0.1976 -0.1092 -0.3645
 9988SOL    HW234903   3.138   3.214  10.552 -0.3834  0.9560 -0.2601
 9989SOL     OW34904   6.746   5.166   9.986 -0.8141 -0.5419  0.0863
 9989SOL    HW134905   6.736   5.245  10.039  0.6268 -0.1653 -0.1357
 9989SOL    HW234906   6.828   5.127  10.017 -0.0444 -0.4317 -1.6735
 9990SOL     OW34907   0.442   9.213   8.952 -0.0361  0.0699  0.1796
 9990SOL    HW134908   0.444   9.148   8.882 -2.6315  0.2440 -0.1569
 9990SOL    HW234909   0.513   9.187   9.011  0.1881 -1.9626 -0.8867
 9991SOL     OW34910   4.151   5.036   9.477  0.2861 -0.5336 -0.0114
 9991SOL    HW134911   4.166   4.958   9.423  1.2202  0.3883 -1.1261
 9991SOL    HW234912   4.130   5.105   9.414 -2.3908 -0.2391  1.0657
 9992SOL     OW34913   2.300   6.177   3.089  0.2355 -0.0041 -0.3997
 9992SOL    HW134914   2.334   6.172   3.178  0.0889 -3.0491 -0.3920
 9992SOL    HW234915   2.207   6.197   3.100  0.5925  1.6144 -0.0453
 9993SOL     OW34916   3.536   2.117   2.971  0.0427  0.2226  0.3026
 9993SOL    HW134917   3.601   2.140   3.037 -0.3464  2.2553  0.0199
 9993SOL    HW234918   3.556   2.026   2.950  1.5447  0.1920  1.6300
 9994SOL     OW34919   3.316   7.182   5.829  0.5620 -0.0715 -0.3284
 9994SOL    HW134920   3.405   7.215   5.843  0.8606 -0.5264 -1.0664
 9994SOL    HW234921   3.259   7.246   5.871  1.2799 -0.2795  1.0354
 9995SOL     OW34922   9.887   8.758   7.660 -0.4737  0.6909 -0.6114
 9995SOL    HW134923   9.952   8.758   7.730  0.2030  3.4115 -1.1349
 9995SOL    HW234924   9.808   8.794   7.701 -1.3195 -1.3035 -0.3421
 9996SOL     OW34925   4.439  10.237   1.762 -0.3562 -0.3127 -0.1355
 9996SOL    HW134926   4.413  10.324   1.792 -1.8976 -0.7463 -0.1329
 9996SOL    HW234927   4.534  10.242   1.755 -0.4735  1.7144 -1.1858
 9997SOL     OW34928  10.941  10.252   2.445 -0.0807  0.5416 -0.2550
 9997SOL    HW134929  10.908  10.233   2.358 -0.4560 -0.0767  0.0145
 9997SOL    HW234930  11.034  10.229   2.441 -0.1351  0.3524 -0.4421
 9998SOL     OW34931   0.232   3.391   0.338 -0.0164  0.0768  0.0754
 9998SOL    HW134932   0.234   3.393   0.433 -0.2212  2.8773  0.1043
 9998SOL    HW234933   0.294   3.459   0.311 -0.7306  0.0767 -1.7620
 9999SOL     OW34934   8.498  10.725   6.975  0.4808  0.5820  0.1892
 9999SOL    HW134935   8.577  10.694   7.019  0.5462  0.0044 -0.3108
 9999SOL    HW234936   8.427  10.680   7.020  0.4501  0.9468  0.5083
10000SOL     OW34937   7.013  10.241   1.206  0.0523 -0.1993 -0.0822
10000SOL    HW134938   7.093  10.275   1.244  0.6705 -2.1020  0.4143
10000SOL    HW234939   7.038  10.213   1.117  0.3133 -1.9661  0.5034
10001SOL     OW34940   8.772   2.355   1.167 -0.0305 -0.0056 -0.0930
10001SOL    HW134941   8.763   2.407   1.086 -0.4781 -0.7315 -0.5201
10001SOL    HW234942   8.866   2.354   1.183  0.1221 -0.3381 -0.9363
10002SOL     OW34943   4.246   8.347   4.446 -0.5445 -0.0296 -0.1122
10002SOL    HW134944   4.190   8.280   4.484 -0.9492 -0.2303 -1.0349
10002SOL    HW234945   4.231   8.424   4.500  1.4072 -1.1448  2.1970
10003SOL     OW34946   4.549   7.217   0.294 -0.6937 -0.4771  0.1048
10003SOL    HW134947   4.529   7.260   0.211  0.4841 -1.5466 -0.7746
10003SOL    HW234948   4.479   7.152   0.304 -1.3129  0.2134  0.4047
10004SOL     OW34949   7.653   5.885   5.951  0.1796 -0.9954 -0.2763
10004SOL    HW134950   7.684   5.805   5.994 -0.4875 -1.4774 -0.6626
10004SOL    HW234951   7.647   5.950   6.020  0.0445 -1.4892  0.1805
10005SOL     OW34952   2.383  11.645   1.859 -0.2105  0.4616  0.4925
10005SOL    HW134953   2.420  11.581   1.799 -1.6575  2.0048 -2.2577
10005SOL    HW234954   2.445  11.718   1.857 -0.2857  0.5390  0.8572
10006SOL     OW34955   8.925  10.130   0.738  0.3793 -0.3377 -0.4037
10006SOL    HW134956   8.960  10.041   0.725 -0.4901 -0.9138  1.0065
10006SOL    HW234957   8.933  10.171   0.652  2.8933 -1.0051 -0.5781
10007SOL     OW34958   1.814   5.285   0.893  1.0158  0.1759 -0.3206
10007SOL    HW134959   1.891   5.313   0.842  0.4562 -0.6272 -1.6310
10007SOL    HW234960   1.784   5.206   0.850 -1.5585  1.3567 -0.8858
10008SOL     OW34961  11.658   9.686   9.491  0.1580 -0.4487  0.1899
10008SOL    HW134962  11.741   9.669   9.535 -0.3307  0.3642  1.4697
10008SOL    HW234963  11.599   9.617   9.522  0.3159 -0.9588 -0.6272
10009SOL     OW34964   2.556  11.680  10.968 -0.6402 -0.0539 -0.3437
10009SOL    HW134965   2.471  11.676  11.014 -0.3349  1.4558  0.4222
10009SOL    HW234966   2.579  11.588  10.953 -0.4755 -0.7206  3.1259
10010SOL     OW34967   6.153   7.600   8.715 -0.5103 -0.3533 -0.0823
10010SOL    HW134968   6.136   7.603   8.810 -1.8916 -3.8887 -0.0526
10010SOL    HW234969   6.224   7.537   8.705  0.5730  1.0024 -1.3919
10011SOL     OW34970   8.204   6.716   6.038  0.1138  0.8908 -0.1903
10011SOL    HW134971   8.257   6.714   6.118 -0.6068 -0.7105  0.2868
10011SOL    HW234972   8.120   6.751   6.065 -0.0374  0.6163 -0.2934
10012SOL     OW34973   6.170   5.207   6.366 -0.1482  0.1225  0.2012
10012SOL    HW134974   6.102   5.170   6.422 -0.2181 -1.7184 -1.0028
10012SOL    HW234975   6.123   5.240   6.289  0.3301 -2.6271 -1.4004
10013SOL     OW34976   6.725   6.541  11.615  0.3155 -0.2862  0.7283
10013SOL    HW134977   6.633   6.537  11.641 -0.6314  0.4031 -2.1921
10013SOL    HW234978   6.743   6.635  11.606  1.0830 -0.4434  0.5098
10014SOL     OW34979   8.824   6.571  11.001  0.1309 -0.3988 -0.7815
10014SOL    HW134980   8.896   6.590  11.061  0.9193 -0.5127 -1.6847
10014SOL    HW234981   8.746   6.571  11.057  0.7605  0.2221  0.1192
10015SOL     OW34982  10.608  10.680   7.320  0.1770  0.2311 -0.2926
10015SOL    HW134983  10.559  10.756   7.350  0.5534  1.2078 -2.0478
10015SOL    HW234984  10.598  10.616   7.391 -0.8871  1.5702  0.8250
10016SOL     OW34985  10.779   8.642  10.467 -0.4147 -0.1545 -0.2167
10016SOL    HW134986  10.849   8.610  10.411 -1.0512 -0.8818 -0.6069
10016SOL    HW234987  10.717   8.570  10.473 -1.4393  0.6873 -0.3775
10017SOL     OW34988   3.835   7.193   6.965 -0.2263 -0.5796 -0.0356
10017SOL    HW134989   3.899   7.263   6.950  0.1486 -0.3548  2.2607
10017SOL    HW234990   3.886   7.121   7.003 -0.7954 -1.7437 -1.3910
10018SOL     OW34991   0.012   4.675   3.259  0.5679  0.1056 -0.2190
10018SOL    HW134992   0.050   4.744   3.205 -0.2339 -0.8428 -2.0549
10018SOL    HW234993   0.059   4.596   3.234  0.2787 -0.3399  0.5938
10019SOL     OW34994  11.269   4.603   7.727  0.3784 -0.1755  0.3034
10019SOL    HW134995  11.257   4.686   7.774 -0.3161 -0.6960  1.0660
10019SOL    HW234996  11.206   4.607   7.655  1.2661  0.5131 -0.4637
10020SOL     OW34997   3.059   0.201   2.873 -0.1776  0.5664 -0.2751
10020SOL    HW134998   3.098   0.287   2.856  0.0054  0.8921  1.5849
10020SOL    HW234999   3.116   0.162   2.940  1.2956 -2.1623 -2.9050
10021SOL     OW35000   3.717   8.944  10.878  0.0144 -0.0617 -0.1778
10021SOL    HW135001   3.747   8.947  10.788 -1.3554 -0.6798 -0.6747
10021SOL    HW235002   3.666   8.864  10.885  0.1561 -0.0703  1.1745
10022SOL     OW35003   0.304   4.370   4.221  1.0287  0.1763 -0.3089
10022SOL    HW135004   0.349   4.314   4.158 -0.2450  0.3943 -1.4742
10022SOL    HW235005   0.216   4.380   4.185  0.5763  1.1642  0.9922
10023SOL     OW35006  10.569   9.948   1.924  0.1920 -0.4363 -0.0779
10023SOL    HW135007  10.521  10.013   1.975 -1.6251 -1.5747 -0.2423
10023SOL    HW235008  10.660   9.979   1.926 -0.2972  1.1058  1.3575
10024SOL     OW35009   8.003   1.315   3.057  0.0396  0.7635  0.1650
10024SOL    HW135010   8.064   1.363   3.000  0.6502  0.7139  0.7586
10024SOL    HW235011   7.967   1.382   3.115  0.1267  0.6616  0.3351
10025SOL     OW35012   2.846   2.363   5.460  0.2602  0.5459 -0.0500
10025SOL    HW135013   2.821   2.379   5.369  1.0625  0.1539 -0.3539
10025SOL    HW235014   2.907   2.435   5.480 -0.1125  0.7757  0.2621
10026SOL     OW35015   1.316   4.480   5.017 -0.4894  0.9323 -0.0602
10026SOL    HW135016   1.298   4.537   5.091 -1.2293  0.8102 -0.1386
10026SOL    HW235017   1.262   4.402   5.032  0.7017  0.1288  0.1782
10027SOL     OW35018   2.080   2.357   5.727 -0.9072 -0.2742 -0.2714
10027SOL    HW135019   2.067   2.430   5.788  2.1222 -0.4273  0.7196
10027SOL    HW235020   2.054   2.280   5.777  1.7700 -0.4273  1.1011
10028SOL     OW35021  10.940  10.073   7.351 -0.0610 -0.0626 -0.0920
10028SOL    HW135022  10.878  10.116   7.410 -1.2700 -1.3437 -0.3690
10028SOL    HW235023  10.997  10.022   7.408  0.2727  0.5235  0.1093
10029SOL     OW35024   9.683   9.818   0.759  0.3702 -0.1788  0.0821
10029SOL    HW135025   9.657   9.727   0.742  0.7277 -0.1955 -0.4040
10029SOL    HW235026   9.601   9.866   0.762 -0.0564 -0.9207  3.0424
10030SOL     OW35027   4.711   7.198   8.575  0.1108 -0.1468  0.2922
10030SOL    HW135028   4.671   7.230   8.655  2.6925 -0.7572  1.9270
10030SOL    HW235029   4.697   7.104   8.576  1.5168 -0.3815  0.9231
10031SOL     OW35030   4.548   9.223   5.810 -0.0121 -0.3938  0.5316
10031SOL    HW135031   4.618   9.254   5.753 -0.0878 -0.8836  0.1729
10031SOL    HW235032   4.479   9.289   5.800 -0.2903 -0.8215 -0.4609
10032SOL     OW35033   9.169   2.899   1.658 -0.4624 -0.1730 -0.0599
10032SOL    HW135034   9.145   2.817   1.702  0.3548 -0.2802  0.2040
10032SOL    HW235035   9.088   2.949   1.655 -0.6831 -0.4500  0.9646
10033SOL     OW35036  11.481   8.080   3.888  0.3934  0.2120 -0.4029
10033SOL    HW135037  11.429   8.153   3.921 -0.0326  0.7281 -2.1279
10033SOL    HW235038  11.490   8.097   3.794  0.2207 -1.9713 -0.8796
10034SOL     OW35039   9.045   2.823   4.048 -0.0017  0.3863 -0.6824
10034SOL    HW135040   9.106   2.870   4.105 -0.7269  0.3741  0.1232
10034SOL    HW235041   8.966   2.877   4.046 -0.9526 -0.8868  0.4871
10035SOL     OW35042   4.061   3.063   0.784 -0.0273  0.2511 -0.5330
10035SOL    HW135043   4.039   2.971   0.775 -0.0292  0.2616 -0.6457
10035SOL    HW235044   4.156   3.065   0.794 -0.2103  0.0982  1.5603
10036SOL     OW35045  11.428   8.623   5.333  0.6431 -0.1730 -0.1389
10036SOL    HW135046  11.451   8.673   5.411  2.6615  0.5021 -1.0998
10036SOL    HW235047  11.348   8.665   5.301 -0.0979 -0.3256  1.3935
10037SOL     OW35048   3.417   3.496   4.005  0.1051 -0.1143 -0.5613
10037SOL    HW135049   3.371   3.474   3.924  0.1619 -0.0508 -0.6107
10037SOL    HW235050   3.468   3.418   4.026 -1.1778 -0.7441  0.2997
10038SOL     OW35051   8.621   4.700  10.854 -0.1127 -0.2061 -0.2646
10038SOL    HW135052   8.691   4.725  10.793 -1.1244 -1.6490 -2.1132
10038SOL    HW235053   8.634   4.607  10.868 -1.0301 -0.2637  0.2448
10039SOL     OW35054   3.342  11.584   3.600  0.3921  0.0232  0.1893
10039SOL    HW135055   3.267  11.632   3.564  0.1344  0.4506  1.2568
10039SOL    HW235056   3.341  11.604   3.693  0.9019 -1.2507  0.4887
10040SOL     OW35057   2.465   2.187   3.581  0.3729 -0.2090  0.3605
10040SOL    HW135058   2.465   2.091   3.580  3.2059 -0.3101 -0.1215
10040SOL    HW235059   2.395   2.212   3.521 -2.1941 -1.8460  2.4429
10041SOL     OW35060   8.467   7.070   1.900 -0.1727  0.1926 -0.2836
10041SOL    HW135061   8.411   7.032   1.833  0.9349 -0.4734 -0.8663
10041SOL    HW235062   8.554   7.035   1.881  0.2858  0.5085  1.1133
10042SOL     OW35063   1.772   2.837   0.628  0.6333 -0.1784  0.0619
10042SOL    HW135064   1.818   2.799   0.703  0.5489 -1.3958 -0.4678
10042SOL    HW235065   1.824   2.809   0.552  0.2020  0.2433 -0.3963
10043SOL     OW35066  11.118   5.498   2.288  0.4926  0.4268 -0.0890
10043SOL    HW135067  11.056   5.571   2.290  0.4492  0.3852  0.0580
10043SOL    HW235068  11.167   5.511   2.206  0.0167  0.2390 -0.4110
10044SOL     OW35069   0.490   3.077   8.164 -0.2338 -0.4089 -0.0618
10044SOL    HW135070   0.452   3.090   8.077 -0.3235 -0.8815 -0.0979
10044SOL    HW235071   0.564   3.018   8.149 -0.9457 -1.4367  0.3265
10045SOL     OW35072  10.778   8.692  10.776 -0.5655  0.3086 -0.1370
10045SOL    HW135073  10.865   8.710  10.741  0.8943 -2.7192  1.4591
10045SOL    HW235074  10.735   8.638  10.709  1.2933 -3.3952  1.3403
10046SOL     OW35075   1.549   4.584   7.917  0.0262 -0.2626  0.0055
10046SOL    HW135076   1.595   4.597   8.000 -1.0076  1.2137  0.3852
10046SOL    HW235077   1.501   4.502   7.929  1.5708 -1.2037  0.0357
10047SOL     OW35078   4.125  11.466   1.978 -0.1412  0.3547  0.0835
10047SOL    HW135079   4.168  11.488   1.896 -2.6083  0.3984 -1.2966
10047SOL    HW235080   4.101  11.550   2.017  0.3001  0.3159  0.4450
10048SOL     OW35081   3.222   8.335   2.655  0.3338  0.2898 -0.1153
10048SOL    HW135082   3.173   8.388   2.593  0.9528 -1.0827 -1.8748
10048SOL    HW235083   3.290   8.394   2.689 -0.0722  1.0927 -0.6788
10049SOL     OW35084   9.986   6.829   2.478 -0.2798 -0.0197 -0.3642
10049SOL    HW135085   9.930   6.757   2.449 -0.1513 -0.0041 -0.6606
10049SOL    HW235086  10.035   6.793   2.552 -0.2584 -0.2172 -0.4740
10050SOL     OW35087   4.454   4.562   8.260  0.3334 -1.0299 -0.3781
10050SOL    HW135088   4.532   4.516   8.228  0.8363 -1.2643  1.1222
10050SOL    HW235089   4.435   4.627   8.191  3.7228  1.2020  0.5269
10051SOL     OW35090   0.759   3.916   4.617 -0.8650  0.5387  0.0991
10051SOL    HW135091   0.802   3.973   4.553  1.4214 -1.0801  0.0719
10051SOL    HW235092   0.751   3.832   4.573 -0.6255 -0.2021  1.4149
10052SOL     OW35093   5.829   4.736   0.506  0.5227  0.0841  0.2108
10052SOL    HW135094   5.911   4.786   0.507  1.2111 -1.0255  1.3203
10052SOL    HW235095   5.766   4.794   0.548  0.8653  0.7213 -0.1341
10053SOL     OW35096   5.134   9.918   2.527 -0.3774 -0.2832  0.1887
10053SOL    HW135097   5.136   9.884   2.616  0.3413 -2.0518 -0.4527
10053SOL    HW235098   5.151   9.841   2.472 -4.0480 -0.0153 -1.6839
10054SOL     OW35099  10.045   7.848   3.152  0.0091 -0.7728  0.1710
10054SOL    HW135100  10.139   7.841   3.172 -0.1244 -0.5760  0.8835
10054SOL    HW235101  10.033   7.939   3.126 -0.2707 -0.3586  1.6654
10055SOL     OW35102   4.663   7.943   3.397 -0.3283 -0.5000 -0.3728
10055SOL    HW135103   4.659   8.034   3.368 -0.8759 -0.1136  0.8228
10055SOL    HW235104   4.689   7.893   3.319  1.5605  0.8467 -0.6751
10056SOL     OW35105   1.410   9.506   5.522  0.0661  0.1980 -0.2098
10056SOL    HW135106   1.337   9.478   5.467  0.2438 -0.2984 -0.1988
10056SOL    HW235107   1.376   9.504   5.611 -0.3109  1.2868 -0.3156
10057SOL     OW35108   7.648   0.086   2.002 -0.4680  0.2351  0.0087
10057SOL    HW135109   7.666   0.176   1.975 -0.8128 -0.2014 -1.8476
10057SOL    HW235110   7.670   0.084   2.095  3.1025  1.2789 -0.6655
10058SOL     OW35111   7.601   2.865   1.869 -0.0665 -0.0904  0.2152
10058SOL    HW135112   7.531   2.826   1.921  1.2071 -2.4483  0.3101
10058SOL    HW235113   7.652   2.916   1.932 -0.6552  0.1388  0.5118
10059SOL     OW35114   4.205  10.863   1.473  0.1019  0.6366 -0.1782
10059SOL    HW135115   4.288  10.834   1.437  0.7712 -0.2430  1.9120
10059SOL    HW235116   4.139  10.812   1.427  0.6315  1.5926 -2.1083
10060SOL     OW35117  11.212   4.669   2.961 -0.3723 -0.0927 -0.5434
10060SOL    HW135118  11.302   4.701   2.958 -0.5493  0.4251 -0.4075
10060SOL    HW235119  11.168   4.725   3.024 -0.6205 -0.8031 -0.0700
10061SOL     OW35120   7.617   3.462  10.213 -0.6069  0.9553  0.2896
10061SOL    HW135121   7.646   3.461  10.122 -1.8052 -1.0869 -0.1334
10061SOL    HW235122   7.697   3.480  10.263  0.5201 -0.0151 -1.0604
10062SOL     OW35123   5.620   4.043   5.164  0.0072  0.1949 -0.0971
10062SOL    HW135124   5.691   4.106   5.152  0.1769 -0.0915 -0.6633
10062SOL    HW235125   5.573   4.073   5.242  0.6487  0.4787  0.1808
10063SOL     OW35126   4.463   7.999   0.688 -0.5723  0.0368  0.4322
10063SOL    HW135127   4.493   7.986   0.778  1.4873 -0.0917 -0.2220
10063SOL    HW235128   4.436   7.912   0.659 -0.9323  0.0187  0.8068
10064SOL     OW35129   6.795   8.110   4.142  0.1457 -0.1685  0.0394
10064SOL    HW135130   6.729   8.164   4.100 -0.1665  0.6767  1.5245
10064SOL    HW235131   6.810   8.152   4.227  0.5990 -1.8685  0.8563
10065SOL     OW35132   2.677   3.446   1.999  0.2609  0.0852  0.1589
10065SOL    HW135133   2.610   3.400   1.949  1.1624 -0.3390 -0.6827
10065SOL    HW235134   2.723   3.377   2.046  0.4936  0.3152  0.2715
10066SOL     OW35135  11.483   3.586   0.399  0.2851 -0.2153  0.0247
10066SOL    HW135136  11.398   3.567   0.359  1.6635 -0.5432 -3.0860
10066SOL    HW235137  11.475   3.555   0.489 -2.7450 -0.5270 -0.2515
10067SOL     OW35138   2.846  10.256   6.575  0.3549 -0.1915 -0.1998
10067SOL    HW135139   2.781  10.208   6.522  0.0467 -1.2728  1.0856
10067SOL    HW235140   2.872  10.193   6.642  3.6954 -0.2375 -1.3741
10068SOL     OW35141   1.633  10.274   1.645 -1.0524 -0.3661  0.4370
10068SOL    HW135142   1.582  10.298   1.568 -0.0541 -1.9555 -0.7828
10068SOL    HW235143   1.587  10.198   1.682 -0.9931 -0.2054  0.8448
10069SOL     OW35144  10.735   6.478   2.030  0.2186  0.3460  0.3534
10069SOL    HW135145  10.656   6.524   2.002  0.1435 -0.0837 -0.1693
10069SOL    HW235146  10.742   6.497   2.123 -0.3384  0.6302  0.3426
10070SOL     OW35147   8.185   4.432   3.081  0.0003 -0.4813 -0.9157
10070SOL    HW135148   8.165   4.472   2.996 -0.4226 -0.6084 -0.8771
10070SOL    HW235149   8.176   4.504   3.144 -0.0654 -0.4752 -0.9322
10071SOL     OW35150   7.670   0.104   2.295  0.5722 -0.3653 -0.5578
10071SOL    HW135151   7.589   0.155   2.293  0.2400 -0.8929 -0.7203
10071SOL    HW235152   7.729   0.154   2.351  0.3404  0.3281 -0.9234
10072SOL     OW35153  11.150   3.434   8.267  0.2616 -0.6080 -0.3716
10072SOL    HW135154  11.059   3.405   8.269 -0.0103  0.1544 -0.9586
10072SOL    HW235155  11.150   3.515   8.317  0.5239 -0.3657 -0.7593
10073SOL     OW35156  10.693   1.158   3.339  0.0140 -0.4586 -0.3451
10073SOL    HW135157  10.618   1.109   3.307 -0.5372  0.5640 -0.6479
10073SOL    HW235158  10.657   1.222   3.399  0.6113  0.1836 -0.6493
10074SOL     OW35159   5.258  11.002   4.149 -0.1068  0.3403  0.0397
10074SOL    HW135160   5.267  11.079   4.204  1.6037  1.1068 -1.2038
10074SOL    HW235161   5.198  11.029   4.079 -1.4810 -0.3074  0.9258
10075SOL     OW35162   8.888   1.520   3.307 -0.1321 -0.6134 -0.1101
10075SOL    HW135163   8.959   1.529   3.243  0.0968 -0.0571  0.2211
10075SOL    HW235164   8.897   1.595   3.365 -1.6179  0.0324 -0.6697
10076SOL     OW35165   6.522   2.906   5.823  0.2307 -0.3402 -0.4399
10076SOL    HW135166   6.528   2.903   5.727  0.4127 -0.1020 -0.4361
10076SOL    HW235167   6.593   2.850   5.854 -1.0172 -2.0171 -0.4591
10077SOL     OW35168   0.865   9.449   1.456 -0.0092 -0.1000 -0.6202
10077SOL    HW135169   0.825   9.496   1.383 -0.0418 -0.7438 -1.0239
10077SOL    HW235170   0.800   9.383   1.480  0.8212 -1.2093 -1.3285
10078SOL     OW35171  11.015   6.866   8.568  0.2663 -0.3206  0.3152
10078SOL    HW135172  10.926   6.833   8.584  0.5186 -0.8804  0.6164
10078SOL    HW235173  11.072   6.800   8.608  0.7890  0.6358  1.1730
10079SOL     OW35174   4.404   8.052   7.100 -0.0225  0.1237  0.4160
10079SOL    HW135175   4.423   7.977   7.155 -1.2148  0.0217  0.7150
10079SOL    HW235176   4.372   8.014   7.018 -2.0633  0.2481  1.0820
10080SOL     OW35177   6.036   7.489   3.330 -0.0893 -0.0090  0.3307
10080SOL    HW135178   6.124   7.472   3.364 -0.2289 -0.1148  0.6414
10080SOL    HW235179   6.031   7.436   3.250  0.1822  0.1128  0.2320
10081SOL     OW35180   0.655   3.009   4.864  0.7372  0.1044  0.0353
10081SOL    HW135181   0.736   3.058   4.875  1.3626 -0.8677 -0.0268
10081SOL    HW235182   0.609   3.018   4.947  1.1517  0.2445  0.2504
10082SOL     OW35183   9.984   5.529   4.936 -0.5658 -0.9197  0.1197
10082SOL    HW135184  10.023   5.457   4.887 -1.0333 -0.6749 -0.6429
10082SOL    HW235185  10.041   5.604   4.917 -0.5208 -0.9161  0.2728
10083SOL     OW35186  11.578   7.750   9.136 -0.5315  0.6666  0.5337
10083SOL    HW135187  11.614   7.664   9.161 -2.4938 -0.1317  0.7614
10083SOL    HW235188  11.655   7.802   9.114  0.6982 -1.3467 -0.2245
10084SOL     OW35189   1.530   3.084   2.989  0.0067  0.5536  0.0646
10084SOL    HW135190   1.544   3.023   2.917 -1.8599 -1.5441  1.3619
10084SOL    HW235191   1.435   3.091   2.998  0.1865  1.7767  1.5030
10085SOL     OW35192   5.204   6.334   1.931  0.1475  0.4370 -0.2728
10085SOL    HW135193   5.140   6.278   1.975  1.0626  0.0987  0.6831
10085SOL    HW235194   5.288   6.308   1.969  0.5678  2.7703  0.5426
10086SOL     OW35195   2.899  10.654   0.562 -0.3674 -0.1479  0.5975
10086SOL    HW135196   2.938  10.702   0.489 -0.5447 -1.2189 -0.2288
10086SOL    HW235197   2.966  10.591   0.588 -1.5154 -2.1020 -0.9290
10087SOL     OW35198   5.128   2.654   2.694  0.2274  0.2416  0.2123
10087SOL    HW135199   5.103   2.700   2.774  1.1084  2.1509 -0.5540
10087SOL    HW235200   5.221   2.674   2.682  1.0367 -2.7956  0.4716
10088SOL     OW35201   8.825   6.082   5.762  0.0312  0.3200 -0.1734
10088SOL    HW135202   8.781   6.165   5.743  0.3610  0.5944  0.2487
10088SOL    HW235203   8.788   6.020   5.698 -0.6430  0.6494 -0.1078
10089SOL     OW35204   1.426   2.411   5.119  0.2586  0.0723  0.1144
10089SOL    HW135205   1.332   2.416   5.135  0.5335 -0.8673  2.5541
10089SOL    HW235206   1.441   2.319   5.095  0.6483 -0.0850  0.8987
10090SOL     OW35207   8.646   6.806  10.932 -0.0137  0.0005  0.5023
10090SOL    HW135208   8.694   6.748  10.991  0.3789 -0.1052  0.0907
10090SOL    HW235209   8.707   6.877  10.914 -0.8876  1.1251  1.8628
10091SOL     OW35210  10.957   9.122   6.359  0.0386  0.5533  0.0789
10091SOL    HW135211  10.888   9.086   6.304  1.4320  0.4740 -1.6951
10091SOL    HW235212  10.931   9.097   6.448 -2.0970  0.3844 -0.5341
10092SOL     OW35213  11.062   5.541   8.537 -0.0627  0.2919 -0.3007
10092SOL    HW135214  11.133   5.480   8.556  0.1325  0.6271  0.0512
10092SOL    HW235215  11.034   5.573   8.622 -0.0179  0.8603 -0.4964
10093SOL     OW35216   6.681  11.365   2.493 -0.3400  0.8059 -0.3911
10093SOL    HW135217   6.748  11.419   2.450  0.8729 -0.9970 -0.8760
10093SOL    HW235218   6.625  11.428   2.538  1.0810  2.4540 -0.8130
10094SOL     OW35219   6.838   8.462   8.502 -0.1740 -0.1827 -0.7701
10094SOL    HW135220   6.934   8.455   8.506 -0.2384 -0.6436  0.1768
10094SOL    HW235221   6.821   8.557   8.502  0.2456 -0.0926  0.4213
10095SOL     OW35222   5.271   8.011   3.473  0.3940 -0.3421 -0.3183
10095SOL    HW135223   5.292   8.104   3.487  0.4324 -0.4566  0.4248
10095SOL    HW235224   5.356   7.967   3.476  0.5751 -0.2391 -2.2841
10096SOL     OW35225   9.482   1.595   2.114  0.7501 -0.5602  0.4330
10096SOL    HW135226   9.451   1.601   2.023  1.7914  2.5667  0.1630
10096SOL    HW235227   9.554   1.533   2.111  1.4779  0.2944 -1.1510
10097SOL     OW35228   3.275   0.716   6.236  0.2001  0.2000 -0.6103
10097SOL    HW135229   3.230   0.786   6.284 -0.3784 -1.3040  1.1698
10097SOL    HW235230   3.223   0.704   6.157 -0.0460  1.3358 -0.6417
10098SOL     OW35231   0.155   9.992  11.555 -0.1672  0.2274  0.0943
10098SOL    HW135232   0.124  10.059  11.494 -2.8942  0.2247  1.3698
10098SOL    HW235233   0.155   9.911  11.505  1.0431  0.7828 -0.8449
10099SOL     OW35234   5.258   4.455  11.253  0.1876 -0.2581 -0.5298
10099SOL    HW135235   5.238   4.521  11.186  1.6522 -1.1531 -1.9170
10099SOL    HW235236   5.353   4.446  11.251  0.1446 -1.3280  0.7095
10100SOL     OW35237   2.061  10.161   9.533 -0.2113 -0.6538 -0.4333
10100SOL    HW135238   1.973  10.172   9.495 -0.7151 -2.0340  0.2701
10100SOL    HW235239   2.114  10.228   9.489 -1.6019  0.2186 -0.8723
10101SOL     OW35240   4.578   5.189   9.363  0.0049  0.4693 -0.4838
10101SOL    HW135241   4.491   5.209   9.328 -0.6543  1.1869  1.3904
10101SOL    HW235242   4.619   5.275   9.374  0.2078  0.2682  0.3708
10102SOL     OW35243   0.360   9.366   7.659 -0.1390  0.7607 -0.3352
10102SOL    HW135244   0.294   9.415   7.610 -1.5646 -1.3111 -0.6380
10102SOL    HW235245   0.443   9.409   7.638 -1.0961  1.9526 -1.9343
10103SOL     OW35246   3.571   1.659   0.691 -0.5427  0.1253  0.0990
10103SOL    HW135247   3.555   1.649   0.785 -2.7876  1.5117 -0.0538
10103SOL    HW235248   3.595   1.751   0.680  1.7043 -0.4688 -0.5244
10104SOL     OW35249   4.313   3.087   0.411 -0.2278  0.5026 -0.1084
10104SOL    HW135250   4.395   3.113   0.454 -0.3826  0.0615  0.4815
10104SOL    HW235251   4.252   3.159   0.428 -0.2292  0.4188  0.2560
10105SOL     OW35252   0.491  10.468   9.609 -0.1006  0.0373  0.1640
10105SOL    HW135253   0.557  10.404   9.580  0.8603  1.0822 -0.0162
10105SOL    HW235254   0.429  10.416   9.659  1.2220 -0.8871  0.9270
10106SOL     OW35255   7.014   2.270   8.026  0.2273  0.5330  0.2510
10106SOL    HW135256   6.936   2.266   7.971  0.2941 -1.5274  0.2370
10106SOL    HW235257   7.001   2.347   8.081 -1.5512  0.5307 -0.1218
10107SOL     OW35258   3.574   9.941   9.489  0.7737  0.0165  0.2025
10107SOL    HW135259   3.524   9.962   9.410  1.2471 -1.6427 -0.5655
10107SOL    HW235260   3.520   9.877   9.535 -0.8673  2.9344  2.7642
10108SOL     OW35261   9.021  10.225   7.544  0.4640 -0.1514  0.3669
10108SOL    HW135262   9.109  10.208   7.511  0.4657 -0.5407  0.5643
10108SOL    HW235263   8.966  10.163   7.496  0.2881  0.1423  0.1907
10109SOL     OW35264  11.165   1.272   1.727  0.3783 -0.3915 -0.3982
10109SOL    HW135265  11.226   1.321   1.783  2.7113  0.1552 -3.1481
10109SOL    HW235266  11.078   1.300   1.755  1.4610  5.2654 -1.4690
10110SOL     OW35267   5.002   6.901   6.942 -0.2968 -0.6192  0.4281
10110SOL    HW135268   5.091   6.902   6.906 -0.9211  0.4455 -1.1933
10110SOL    HW235269   4.985   6.809   6.960  0.8759 -0.9232  0.1044
10111SOL     OW35270   7.468   2.653   1.511 -0.2944 -0.5005 -0.4259
10111SOL    HW135271   7.434   2.718   1.572 -1.2876 -1.1624 -0.2546
10111SOL    HW235272   7.399   2.643   1.446 -0.6722 -2.2234  0.1915
10112SOL     OW35273   9.572   6.798   6.393 -0.0157  0.0656 -0.3700
10112SOL    HW135274   9.515   6.792   6.469  2.0969 -0.0808  1.3078
10112SOL    HW235275   9.585   6.708   6.365 -0.6114  0.1009 -0.7644
10113SOL     OW35276   0.560   3.680   8.153 -0.1021 -0.0780 -0.5786
10113SOL    HW135277   0.627   3.653   8.216 -0.8684  0.5419  0.5373
10113SOL    HW235278   0.608   3.728   8.086  0.6742 -0.3830 -0.2592
10114SOL     OW35279   1.340   4.555   9.735  0.5744  0.0344  0.0802
10114SOL    HW135280   1.306   4.486   9.792 -0.4083 -0.5976 -1.2072
10114SOL    HW235281   1.435   4.548   9.742  0.5189 -1.9678 -0.5678
10115SOL     OW35282   8.880   2.887   6.121 -0.0281 -0.3300 -0.3289
10115SOL    HW135283   8.863   2.950   6.052 -0.8851 -1.4712 -1.2015
10115SOL    HW235284   8.796   2.844   6.136  0.4298 -0.9552  0.5523
10116SOL     OW35285  10.650   8.976  11.486 -0.1157 -0.2742 -0.1989
10116SOL    HW135286  10.557   8.986  11.508 -0.6332 -3.0503 -0.7889
10116SOL    HW235287  10.651   8.967  11.391  0.5795 -1.5748 -0.0928
10117SOL     OW35288   7.453   3.145   7.662 -0.7231  0.1322 -0.0058
10117SOL    HW135289   7.389   3.193   7.611 -1.1696 -1.3719 -0.9304
10117SOL    HW235290   7.534   3.195   7.653 -0.9974  0.3305 -1.5223
10118SOL     OW35291   6.161  11.507   5.806  1.1076 -0.3081 -0.8423
10118SOL    HW135292   6.208  11.425   5.791  0.2556 -1.0972  0.5784
10118SOL    HW235293   6.219  11.556   5.865  0.8887 -0.5952 -0.3825
10119SOL     OW35294   0.070   8.569   0.025  0.0496  0.3604  0.0902
10119SOL    HW135295   0.069   8.664   0.018  0.9698  0.3633  0.0019
10119SOL    HW235296  -0.000   8.540  -0.034  0.4256  0.9281 -0.6483
10120SOL     OW35297   7.774   5.658   1.566 -0.4372 -0.0837  0.7914
10120SOL    HW135298   7.831   5.584   1.544 -0.4971 -0.5668  2.1932
10120SOL    HW235299   7.725   5.676   1.485 -0.5218 -1.6527  0.4751
10121SOL     OW35300  10.466   9.170   0.116  0.3356 -0.4598 -0.4421
10121SOL    HW135301  10.494   9.079   0.130 -1.2951 -1.2009 -1.6494
10121SOL    HW235302  10.372   9.168   0.132 -0.1904  0.4054 -2.9609
10122SOL     OW35303  10.140  10.533  11.041  0.5543 -0.4565 -0.1760
10122SOL    HW135304  10.086  10.515  11.118  0.7206 -0.2028  0.0008
10122SOL    HW235305  10.207  10.464  11.042 -0.3178 -1.3483 -0.9274
10123SOL     OW35306   8.670   3.356   6.173  0.3849  0.1056  0.4210
10123SOL    HW135307   8.610   3.402   6.115  0.4155 -0.1770  0.1634
10123SOL    HW235308   8.757   3.385   6.144  0.5005 -1.4166 -0.8956
10124SOL     OW35309   6.164   2.062   9.975 -0.3308 -0.4577 -0.1259
10124SOL    HW135310   6.165   2.058  10.071 -1.2528 -0.2284 -0.0923
10124SOL    HW235311   6.091   2.122   9.955  0.7762  0.6673 -0.9379
10125SOL     OW35312   8.828  10.649   9.700 -0.0935  0.5652 -0.0112
10125SOL    HW135313   8.860  10.710   9.767 -2.0217  0.0656  1.4897
10125SOL    HW235314   8.740  10.625   9.731  0.0797 -1.9467 -1.2340
10126SOL     OW35315   2.962   1.329   1.643  0.1141  0.0960  0.5969
10126SOL    HW135316   2.912   1.269   1.697 -0.8247 -0.1562 -0.5120
10126SOL    HW235317   2.899   1.395   1.615  0.4502 -0.0406 -0.5536
10127SOL     OW35318   0.603  11.462   5.964  0.4382  0.0212  0.2846
10127SOL    HW135319   0.541  11.397   5.997  0.5030  0.0092  0.3835
10127SOL    HW235320   0.622  11.518   6.040 -1.9664  2.0725 -0.4738
10128SOL     OW35321   7.902   7.296   5.576 -0.0418 -0.1284  0.5190
10128SOL    HW135322   7.825   7.279   5.522  0.0651  0.0887  0.2962
10128SOL    HW235323   7.921   7.212   5.617  0.0545 -0.3667 -0.0072
10129SOL     OW35324  11.109  10.611   2.379  0.2502  0.7414  0.3719
10129SOL    HW135325  11.067  10.688   2.342  0.4345  1.3423  1.3803
10129SOL    HW235326  11.052  10.585   2.451 -0.4370 -0.7843 -0.6512
10130SOL     OW35327   2.983   9.779   5.283  0.7045 -0.3266 -0.0666
10130SOL    HW135328   3.021   9.759   5.368  0.0508  0.6345  0.4701
10130SOL    HW235329   3.056   9.812   5.231  1.2199 -1.4261 -0.0746
10131SOL     OW35330   5.676   5.474   6.667 -0.2338  0.3872 -0.3021
10131SOL    HW135331   5.596   5.430   6.697  0.7915 -0.8775  0.7192
10131SOL    HW235332   5.735   5.402   6.643  1.1758  1.2268  0.5206
10132SOL     OW35333  11.561  10.990   8.277  0.3769  0.2909  0.3143
10132SOL    HW135334  11.501  11.040   8.332 -0.9942 -1.0105  0.0770
10132SOL    HW235335  11.610  11.056   8.229 -2.3262  1.4591 -1.0402
10133SOL     OW35336   0.674   3.465   3.475 -0.0708  0.0753  0.1054
10133SOL    HW135337   0.677   3.450   3.381  0.3416  0.8199 -0.0158
10133SOL    HW235338   0.698   3.381   3.514 -1.5859 -0.6151 -0.4044
10134SOL     OW35339   3.582   7.060  10.573  0.0965 -0.3416 -0.2455
10134SOL    HW135340   3.653   7.090  10.516  0.4439 -3.0696 -1.4152
10134SOL    HW235341   3.625   7.043  10.657  0.9395 -2.0566 -0.9677
10135SOL     OW35342   0.191   1.934   2.730  0.5894  0.1188 -0.0319
10135SOL    HW135343   0.273   1.931   2.779  1.3182  1.3781 -1.0981
10135SOL    HW235344   0.214   1.978   2.647 -0.9721 -0.3010 -0.7251
10136SOL     OW35345   4.594   4.056  10.814  0.3268 -0.0710  0.6834
10136SOL    HW135346   4.669   4.111  10.838 -0.1993  1.8594 -1.6721
10136SOL    HW235347   4.520   4.094  10.863  0.0619  1.1056 -0.5571
10137SOL     OW35348   9.971   8.291   4.102 -0.3164  0.3323 -0.3138
10137SOL    HW135349   9.977   8.343   4.021  2.4147  0.5020 -0.1064
10137SOL    HW235350   9.950   8.202   4.072 -1.4751  0.8170 -0.9880
10138SOL     OW35351   1.371  10.470   6.476  0.7244  0.1065 -0.0061
10138SOL    HW135352   1.430  10.510   6.539  1.3657 -0.7553 -0.0453
10138SOL    HW235353   1.286  10.468   6.520  0.9999  0.1911  0.5289
10139SOL     OW35354   8.482   0.826   9.398 -0.1458 -0.2403  0.3600
10139SOL    HW135355   8.429   0.904   9.383  0.6765  0.4509  0.9713
10139SOL    HW235356   8.436   0.756   9.351 -0.7566  0.6574 -0.4122
10140SOL     OW35357   3.670   3.705   8.232  0.2522  0.2696  0.0488
10140SOL    HW135358   3.722   3.742   8.303  0.6050  0.4805 -0.3222
10140SOL    HW235359   3.626   3.629   8.272  3.1675 -1.7969 -0.3470
10141SOL     OW35360   2.238   5.508  11.691 -0.2044  0.0101  0.1961
10141SOL    HW135361   2.157   5.507  11.742 -0.2230  0.7170  0.2007
10141SOL    HW235362   2.304   5.471  11.750 -0.2440  0.7365  0.7166
10142SOL     OW35363   0.931   5.944  11.151  0.3753  0.2905  0.0283
10142SOL    HW135364   0.899   6.013  11.092  0.4077 -0.4201 -0.8383
10142SOL    HW235365   0.996   5.896  11.099 -1.2192 -1.7658 -0.1871
10143SOL     OW35366   5.135   8.068   0.167 -0.1907 -0.1880  0.0890
10143SOL    HW135367   5.226   8.082   0.195 -0.6043  0.2617  1.2646
10143SOL    HW235368   5.121   7.974   0.177 -0.1227 -0.1302  0.8102
10144SOL     OW35369   7.514   5.720   4.124 -0.1686 -0.3652  0.2023
10144SOL    HW135370   7.509   5.699   4.031 -3.6235 -2.4600  0.6807
10144SOL    HW235371   7.486   5.640   4.168 -0.3033  1.0809  2.9875
10145SOL     OW35372   4.876   7.124  10.378  0.0247 -0.3443  0.1697
10145SOL    HW135373   4.818   7.172  10.438 -1.8318 -2.0890 -0.1041
10145SOL    HW235374   4.964   7.141  10.412 -0.8230  0.1858  2.3230
10146SOL     OW35375   4.352   9.670   2.960  0.0657  0.1223 -0.0293
10146SOL    HW135376   4.372   9.739   3.024  0.6184  0.2931 -0.3794
10146SOL    HW235377   4.437   9.640   2.930 -0.1770  1.1329 -1.8353
10147SOL     OW35378   0.937   7.658   3.301 -0.2217 -0.2570  0.0097
10147SOL    HW135379   1.007   7.713   3.267 -0.2795 -0.6798 -0.8124
10147SOL    HW235380   0.859   7.713   3.295 -0.0425  0.0816  0.5833
10148SOL     OW35381  11.235   4.080   3.316  0.0828 -0.1202 -0.1890
10148SOL    HW135382  11.226   4.068   3.221  0.8298  0.4122 -0.3251
10148SOL    HW235383  11.234   3.991   3.351 -0.2585 -0.3167 -0.6838
10149SOL     OW35384   9.907   3.667   5.688 -0.0712  0.1017 -0.0352
10149SOL    HW135385   9.812   3.660   5.680  0.0260  0.7433 -2.5933
10149SOL    HW235386   9.940   3.585   5.652  0.3660 -0.2034  1.0355
10150SOL     OW35387  10.649   2.175   2.064  0.1551  0.1936  0.0996
10150SOL    HW135388  10.575   2.224   2.028 -1.9570 -1.0118  2.4751
10150SOL    HW235389  10.708   2.243   2.098 -1.1417  1.1804  0.4518
10151SOL     OW35390   0.080   0.511  10.591  0.4297  0.8074 -0.1046
10151SOL    HW135391   0.134   0.553  10.524  0.9271  0.1063 -0.1548
10151SOL    HW235392   0.070   0.578  10.659 -0.8713  1.8642 -1.2689
10152SOL     OW35393   1.550   5.402   0.678 -0.4614 -0.2197 -0.1846
10152SOL    HW135394   1.645   5.402   0.667 -0.1389 -1.5647  1.9183
10152SOL    HW235395   1.521   5.321   0.635 -0.5678 -0.1222 -0.2965
10153SOL     OW35396   6.004   4.100   0.218 -0.4937  0.0703  0.7255
10153SOL    HW135397   6.080   4.154   0.241  2.4344 -3.6369  0.9251
10153SOL    HW235398   6.018   4.078   0.126 -2.9187  1.4064 -0.0405
10154SOL     OW35399  10.241  10.665  10.799 -0.0457  0.1840  0.2011
10154SOL    HW135400  10.228  10.636  10.889 -1.3757  0.1053  0.0023
10154SOL    HW235401  10.154  10.695  10.771  0.0796 -0.8304 -1.4082
10155SOL     OW35402   1.632  10.683   2.880  0.4609  0.4233  0.0772
10155SOL    HW135403   1.682  10.762   2.857 -1.3069  1.1709 -1.5570
10155SOL    HW235404   1.698  10.614   2.884  1.6999  1.3630 -1.8852
10156SOL     OW35405   1.944   0.816   6.936 -0.4717 -0.0954  0.3416
10156SOL    HW135406   1.937   0.911   6.950  1.3915 -0.0242  1.1231
10156SOL    HW235407   1.862   0.781   6.969 -0.2674  1.0586  2.2477
10157SOL     OW35408   3.688  10.495   6.525  0.5658 -0.7757 -0.3799
10157SOL    HW135409   3.779  10.504   6.498  0.4200 -0.6663 -0.8418
10157SOL    HW235410   3.645  10.575   6.493 -0.1922 -1.8483 -2.2351
10158SOL     OW35411  10.447   3.849   1.201 -0.1946  0.0714  0.3417
10158SOL    HW135412  10.365   3.883   1.165 -0.4283  1.5602  2.1504
10158SOL    HW235413  10.515   3.905   1.164  0.2026 -1.7198 -1.8775
10159SOL     OW35414   4.030   3.801   4.527  0.8283  0.0815 -0.3420
10159SOL    HW135415   4.093   3.735   4.554  0.9268  0.4821  0.4401
10159SOL    HW235416   4.076   3.854   4.462  0.0323 -1.9349 -2.6829
10160SOL     OW35417   8.484   0.526   8.170  0.0119  0.3402 -0.2738
10160SOL    HW135418   8.394   0.531   8.138  0.7501 -1.7068 -2.9922
10160SOL    HW235419   8.519   0.614   8.157 -1.3574  0.9801  0.1692
10161SOL     OW35420   1.620   0.058   7.455 -0.2116  0.1818 -0.0637
10161SOL    HW135421   1.713   0.060   7.432 -0.3176  1.4483 -0.4886
10161SOL    HW235422   1.619   0.038   7.549  0.4367 -0.7848 -0.2530
10162SOL     OW35423  10.226  10.972   6.554 -0.8600  0.5374 -0.3139
10162SOL    HW135424  10.155  10.957   6.492 -2.3573  0.3045  1.3574
10162SOL    HW235425  10.274  10.889   6.558 -1.6871  0.0606 -0.0588
10163SOL     OW35426   2.737   9.286   2.291 -0.0453 -0.4062 -0.0335
10163SOL    HW135427   2.691   9.229   2.230 -0.8329  1.3851 -1.1845
10163SOL    HW235428   2.828   9.285   2.261 -0.0624 -1.0018 -0.0682
10164SOL     OW35429  11.162   1.751   9.078  0.0663 -0.0882 -0.7770
10164SOL    HW135430  11.175   1.660   9.102  1.1990  0.0270 -0.9212
10164SOL    HW235431  11.071   1.770   9.104 -0.1118 -1.1868 -0.5677
10165SOL     OW35432   3.435  10.918  10.369  0.3129 -0.1547 -0.3530
10165SOL    HW135433   3.412  10.991  10.427 -1.6687 -0.2700 -0.9304
10165SOL    HW235434   3.511  10.950  10.321  0.4287  0.9239  0.5024
10166SOL     OW35435   5.913   5.936   3.219 -0.2339 -0.0299 -0.2617
10166SOL    HW135436   5.932   5.976   3.304  1.6855 -3.4931  1.1416
10166SOL    HW235437   5.819   5.923   3.219 -0.4403  1.2464  0.7008
10167SOL     OW35438  10.306   1.087  11.604 -0.3090  0.2070  0.1697
10167SOL    HW135439  10.230   1.031  11.618 -0.4632  0.9433  2.8621
10167SOL    HW235440  10.380   1.027  11.598 -1.0636 -0.5721 -3.2240
10168SOL     OW35441   7.581  10.783  11.552  0.0584 -0.0872  0.1219
10168SOL    HW135442   7.647  10.765  11.486  1.3212 -0.0647  1.3388
10168SOL    HW235443   7.520  10.710  11.545  0.1088 -0.0340 -1.1178
10169SOL     OW35444  11.006  10.865   2.352  0.1681 -0.3254  0.0467
10169SOL    HW135445  10.914  10.890   2.362  0.9779  2.7399  1.1035
10169SOL    HW235446  11.041  10.927   2.288  1.5234 -1.4982 -0.4062
10170SOL     OW35447   7.363   6.197   6.751  0.2850 -0.6150 -1.1550
10170SOL    HW135448   7.278   6.239   6.761  0.4797 -0.5632  0.6088
10170SOL    HW235449   7.409   6.251   6.686 -0.1026  0.8686 -0.2242
10171SOL     OW35450   9.484   3.507   8.879  0.3807 -0.0005 -0.2307
10171SOL    HW135451   9.533   3.587   8.897  0.9389 -0.0394 -1.5000
10171SOL    HW235452   9.392   3.531   8.892  0.3501  1.4660 -2.5677
10172SOL     OW35453   8.837  11.455   5.149  0.2353  0.3181 -0.0114
10172SOL    HW135454   8.805  11.536   5.188  1.3026  0.2165  1.1127
10172SOL    HW235455   8.757  11.408   5.123 -0.7167 -0.4921  3.7875
10173SOL     OW35456   5.624   1.068   9.291  0.1288  1.0559  0.6375
10173SOL    HW135457   5.667   1.042   9.373 -3.4360 -2.0550  1.7829
10173SOL    HW235458   5.612   1.163   9.301  3.0141  1.4205  1.9141
10174SOL     OW35459   2.410   6.200  11.315  0.2763  0.0035 -0.6302
10174SOL    HW135460   2.406   6.288  11.278  1.3122 -0.4527 -1.9031
10174SOL    HW235461   2.497   6.196  11.356 -0.3046  0.0215  0.6528
10175SOL     OW35462   0.603   4.797   3.556 -0.1422 -0.1374  0.4062
10175SOL    HW135463   0.571   4.876   3.513 -2.1110 -1.6293 -1.0342
10175SOL    HW235464   0.543   4.783   3.629 -0.0414 -0.4980  0.4243
10176SOL     OW35465  10.371   2.373   7.268 -0.0300  0.1938  0.4778
10176SOL    HW135466  10.299   2.315   7.293 -0.7424  1.1330  0.6814
10176SOL    HW235467  10.400   2.412   7.351 -0.6442  1.3418  0.1711
10177SOL     OW35468   3.051   2.846   7.566 -0.3937  0.0868  0.2872
10177SOL    HW135469   2.985   2.845   7.497  1.0271  1.7964 -1.2022
10177SOL    HW235470   3.116   2.782   7.538  0.4069  1.1021 -0.2502
10178SOL     OW35471   3.589   1.040   2.185 -0.0309  0.1570 -0.2602
10178SOL    HW135472   3.549   0.963   2.226 -1.1400  0.5922 -0.5027
10178SOL    HW235473   3.534   1.113   2.213  0.8975  0.8446 -0.1964
10179SOL     OW35474   9.123  10.734   0.480 -0.0593  0.1652 -0.2286
10179SOL    HW135475   9.087  10.785   0.552 -0.9581  0.2949 -0.7495
10179SOL    HW235476   9.120  10.794   0.405 -1.1953 -0.6438 -0.8663
10180SOL     OW35477   6.015   8.671   3.649  0.4212  0.8276 -0.4001
10180SOL    HW135478   5.973   8.725   3.715 -2.6097  0.1873 -1.6626
10180SOL    HW235479   6.000   8.581   3.678  1.3910  0.5615 -0.6578
10181SOL     OW35480   7.037   8.675  10.147  0.2183 -0.1547 -0.3163
10181SOL    HW135481   7.117   8.622  10.144  1.1956  1.1374  1.2619
10181SOL    HW235482   7.059   8.755  10.098  0.3066  0.6937  1.0635
10182SOL     OW35483   6.137   1.317  11.165 -0.1276 -1.0390 -0.2872
10182SOL    HW135484   6.202   1.279  11.106  1.6454  1.6772 -0.2781
10182SOL    HW235485   6.183   1.330  11.247 -1.2435 -0.7422  0.3136
10183SOL     OW35486  11.511   9.570   8.015 -0.5077 -0.0441 -0.0049
10183SOL    HW135487  11.576   9.500   8.024 -1.7826 -1.1030  1.4077
10183SOL    HW235488  11.501   9.605   8.103  0.0209  1.9087 -0.6625
10184SOL     OW35489   9.389   8.580   5.411  0.3559 -0.1665 -0.1376
10184SOL    HW135490   9.304   8.623   5.415  0.9428  1.2109 -1.2979
10184SOL    HW235491   9.377   8.508   5.349  0.3234  0.8622 -1.3815
10185SOL     OW35492   6.352   2.371   4.329  0.7236  0.1873 -0.0908
10185SOL    HW135493   6.364   2.300   4.266 -0.0164  0.4768 -0.5691
10185SOL    HW235494   6.293   2.432   4.286 -1.1173 -0.3734  1.4680
10186SOL     OW35495   5.836   0.190   1.287  0.0358 -0.6531 -0.4833
10186SOL    HW135496   5.844   0.170   1.193 -0.9839 -1.2903 -0.4583
10186SOL    HW235497   5.747   0.162   1.309  0.5995 -1.4498  0.9002
10187SOL     OW35498   2.000   5.251   9.784 -0.3918  0.1986  0.4318
10187SOL    HW135499   1.908   5.229   9.799 -0.6815  0.4214 -0.8806
10187SOL    HW235500   1.998   5.341   9.752  0.1849 -0.1241 -0.5680
10188SOL     OW35501   1.632   2.083   1.868 -0.1066  0.3251  0.5605
10188SOL    HW135502   1.686   2.108   1.793  0.9808 -0.5465  1.0141
10188SOL    HW235503   1.543   2.079   1.834  0.3502  0.0809 -0.6569
10189SOL     OW35504   4.252  10.349  11.444  0.3966 -0.0556  0.0589
10189SOL    HW135505   4.205  10.306  11.372 -0.7733 -0.2442  0.9028
10189SOL    HW235506   4.253  10.283  11.514 -1.0453  1.0793  1.2243
10190SOL     OW35507   3.947   2.616   4.808 -0.4041  0.1241 -0.0914
10190SOL    HW135508   4.022   2.592   4.863 -1.0701 -0.5143  0.5652
10190SOL    HW235509   3.887   2.542   4.816 -1.1414  0.6621 -0.5374
10191SOL     OW35510   5.856   3.715   0.217 -0.0092 -0.3240 -0.2544
10191SOL    HW135511   5.942   3.750   0.197  0.2867  0.5750  2.2330
10191SOL    HW235512   5.820   3.774   0.283 -2.4408 -0.8283 -1.0141
10192SOL     OW35513   8.859  10.459   3.631 -0.1585  0.2884  0.2507
10192SOL    HW135514   8.792  10.412   3.679 -0.0674 -0.4148 -0.2937
10192SOL    HW235515   8.830  10.550   3.631 -0.0278  0.3569  1.8411
10193SOL     OW35516   7.655   7.272   9.496 -0.1332  0.4217 -0.2221
10193SOL    HW135517   7.725   7.339   9.493  0.7869 -0.5169 -0.2508
10193SOL    HW235518   7.602   7.290   9.419 -0.2350  1.4813  0.0812
10194SOL     OW35519   4.916   6.395   1.218  0.3743 -0.3305 -0.4651
10194SOL    HW135520   4.871   6.446   1.285  1.8098  1.4425 -0.7758
10194SOL    HW235521   4.872   6.418   1.136  0.5601 -0.1430 -0.5131
10195SOL     OW35522   0.342   9.432   8.361  0.4887 -0.2193 -0.1648
10195SOL    HW135523   0.343   9.338   8.344  0.4409 -0.3917  0.7616
10195SOL    HW235524   0.399   9.469   8.293 -0.6526 -0.7321 -1.4707
10196SOL     OW35525   4.311   5.773   1.678  0.4987 -0.1054  0.1367
10196SOL    HW135526   4.370   5.747   1.607 -0.7370 -2.2203 -0.2209
10196SOL    HW235527   4.368   5.792   1.751  1.6942 -1.9586 -0.2338
10197SOL     OW35528  10.599   5.326   0.701  0.0249  0.0467  0.0546
10197SOL    HW135529  10.503   5.323   0.706  0.0716 -0.4509  0.8498
10197SOL    HW235530  10.625   5.238   0.676  0.3367 -0.2000  1.2043
10198SOL     OW35531   7.747   2.484   7.015  0.1004  0.4387 -0.1046
10198SOL    HW135532   7.774   2.423   7.084  1.3962  1.5749  0.4135
10198SOL    HW235533   7.800   2.562   7.029 -0.4039  1.1083 -1.7333
10199SOL     OW35534  11.541   6.420   0.080  0.3174  0.5380 -0.5009
10199SOL    HW135535  11.603   6.483   0.044  0.3879 -0.0281 -1.4048
10199SOL    HW235536  11.585   6.383   0.157  0.8633  0.5704 -0.7931
10200SOL     OW35537   2.967   7.351  10.035 -0.1271  0.1224 -0.1187
10200SOL    HW135538   2.880   7.350   9.994 -0.0482  0.7560 -0.3246
10200SOL    HW235539   2.952   7.320  10.124 -0.2934 -1.3113 -0.6240
10201SOL     OW35540   2.849   6.146   7.779  0.2425 -0.0608 -0.6510
10201SOL    HW135541   2.802   6.106   7.852 -1.4314 -0.3293 -1.8145
10201SOL    HW235542   2.790   6.138   7.704  1.7446  0.5220 -1.9786
10202SOL     OW35543   0.182   9.376   4.842 -0.2790 -0.4444  0.1470
10202SOL    HW135544   0.154   9.423   4.764  1.4548 -2.0343 -1.5243
10202SOL    HW235545   0.104   9.327   4.870 -1.1381  0.7672 -0.0767
10203SOL     OW35546   3.630   6.452   1.445 -0.1334  0.1585  0.4183
10203SOL    HW135547   3.696   6.402   1.493 -0.5152 -0.1291  0.6552
10203SOL    HW235548   3.663   6.456   1.355 -0.1164 -0.5527  0.3906
10204SOL     OW35549   9.752   7.545   0.406  0.3824 -0.2830  0.0965
10204SOL    HW135550   9.785   7.480   0.469  2.0583  0.9225  0.5307
10204SOL    HW235551   9.760   7.500   0.321  1.6029 -0.6430  0.3765
10205SOL     OW35552  10.014  10.257   9.866  0.0417 -0.1218  0.0548
10205SOL    HW135553  10.019  10.283   9.958 -0.1281 -0.5677  0.1940
10205SOL    HW235554  10.084  10.193   9.855  1.1862  1.2210 -0.5717
10206SOL     OW35555   3.571   8.546   1.833  0.1708  0.1923  0.3022
10206SOL    HW135556   3.493   8.527   1.885 -0.4711 -0.3970 -0.8464
10206SOL    HW235557   3.543   8.535   1.742  2.4154 -3.4703 -0.1235
10207SOL     OW35558   6.981  10.823   6.023 -0.7765 -0.5665  0.6659
10207SOL    HW135559   6.928  10.748   5.998 -2.7549  1.1694 -0.6355
10207SOL    HW235560   6.989  10.816   6.118 -0.3319 -2.7346  0.5230
10208SOL     OW35561   8.936   4.545   7.850  0.7256 -0.0625  0.0636
10208SOL    HW135562   8.889   4.628   7.839 -0.1011 -0.4317  0.6887
10208SOL    HW235563   8.908   4.514   7.936  1.4451 -0.7357  0.0627
10209SOL     OW35564   3.408   2.078   0.813  0.7880  0.2869  0.1041
10209SOL    HW135565   3.447   2.063   0.899 -0.8928  0.3785  0.9229
10209SOL    HW235566   3.346   2.006   0.801  1.3423  0.0100 -1.2595
10210SOL     OW35567   9.500   5.050   3.288  0.2173  0.7970  0.2252
10210SOL    HW135568   9.576   5.050   3.347 -0.2957  1.8879  0.9346
10210SOL    HW235569   9.431   5.093   3.339 -0.5198  0.9228 -0.8474
10211SOL     OW35570   8.769   4.182  11.115  0.2314  0.1518 -0.5348
10211SOL    HW135571   8.819   4.240  11.172 -0.8859 -2.4960  3.5472
10211SOL    HW235572   8.834   4.134  11.065  1.2958  1.8419 -0.8736
10212SOL     OW35573   6.510   5.052   8.761 -0.1757  0.4479 -0.7630
10212SOL    HW135574   6.565   5.120   8.800 -0.7888  0.9508 -0.7580
10212SOL    HW235575   6.423   5.067   8.797 -0.5054  0.1954 -1.4256
10213SOL     OW35576   9.605   8.177   6.565 -0.8450 -0.3081 -0.5904
10213SOL    HW135577   9.513   8.178   6.590 -0.8681 -1.6917 -0.5404
10213SOL    HW235578   9.606   8.135   6.479 -0.1309 -1.6766  0.0618
10214SOL     OW35579   6.704   5.438  10.446  0.0138 -0.7121  0.1302
10214SOL    HW135580   6.648   5.418  10.521  0.2757 -0.5746  0.3647
10214SOL    HW235581   6.792   5.443  10.483  0.1331 -0.5688 -0.1747
10215SOL     OW35582   5.486   9.394   8.230  0.2891 -0.0562 -0.1859
10215SOL    HW135583   5.514   9.472   8.181  1.7179 -0.4988 -0.1317
10215SOL    HW235584   5.391   9.393   8.221  0.2013  1.9112  0.1511
10216SOL     OW35585   1.662   6.422   8.996  0.8013  0.7789 -0.1040
10216SOL    HW135586   1.585   6.476   9.011  0.3897  0.0456  0.4876
10216SOL    HW235587   1.728   6.483   8.963 -0.1319  1.3518 -0.9565
10217SOL     OW35588   9.225   5.198   4.763  0.1808 -0.4969 -0.3991
10217SOL    HW135589   9.150   5.175   4.708  0.8310  0.2458 -1.6157
10217SOL    HW235590   9.270   5.268   4.716  0.9003  0.0025  0.9598
10218SOL     OW35591   4.810   4.379   5.926  0.0484  0.3988 -0.4013
10218SOL    HW135592   4.721   4.380   5.962 -0.1149  0.9120 -0.8078
10218SOL    HW235593   4.844   4.292   5.948  0.4673  1.1560  2.2102
10219SOL     OW35594   1.914   2.031   8.044  0.2222 -0.0518  0.1497
10219SOL    HW135595   1.990   2.086   8.066  0.1678 -0.0662  0.3738
10219SOL    HW235596   1.950   1.964   7.986  0.4476 -0.2388  0.4957
10220SOL     OW35597   4.666  11.609   6.688  0.1476  0.0562  0.4592
10220SOL    HW135598   4.690  11.550   6.616 -1.3206  1.0039 -0.8751
10220SOL    HW235599   4.623  11.683   6.645 -0.5087  0.8046  2.3062
10221SOL     OW35600  10.971   6.939   3.169 -0.5560  0.3949 -0.1858
10221SOL    HW135601  10.938   7.014   3.118 -0.1053  0.5747 -0.2184
10221SOL    HW235602  11.041   6.976   3.222 -2.0306  0.5790  1.7793
10222SOL     OW35603  10.842   5.824  10.698 -0.3863 -0.3136  0.5736
10222SOL    HW135604  10.781   5.898  10.702 -0.4603 -0.4238  2.1560
10222SOL    HW235605  10.791   5.750  10.729  0.1054 -0.7323  0.3862
10223SOL     OW35606   5.121   7.155   3.656  0.5370 -0.3020  0.2649
10223SOL    HW135607   5.035   7.141   3.616  0.3028 -0.8627  0.9234
10223SOL    HW235608   5.178   7.092   3.613  0.7195  0.3541 -0.4635
10224SOL     OW35609   6.791   6.649   7.395  0.7982  0.2654 -0.2486
10224SOL    HW135610   6.698   6.641   7.415  0.7041  1.4263 -0.1571
10224SOL    HW235611   6.826   6.561   7.408 -0.2500 -0.1390 -0.0981
10225SOL     OW35612   8.464   6.645   0.837 -0.0312 -0.5138  0.3585
10225SOL    HW135613   8.431   6.623   0.924  1.4261  0.9067  1.3268
10225SOL    HW235614   8.387   6.676   0.789 -0.6188 -0.0478  1.5794
10226SOL     OW35615   5.562   3.765  10.153  0.0676  0.1454  0.0042
10226SOL    HW135616   5.564   3.709  10.075  0.2451 -1.3208  1.0305
10226SOL    HW235617   5.654   3.787  10.170  0.1516 -0.6064  0.5419
10227SOL     OW35618   5.724   3.150   7.107  0.0026 -0.4792  0.0950
10227SOL    HW135619   5.793   3.166   7.172 -0.3754  2.1123 -0.0160
10227SOL    HW235620   5.757   3.192   7.027 -1.1747 -0.2501 -0.2834
10228SOL     OW35621   8.647  10.182   5.029  0.4485 -0.1446 -0.6600
10228SOL    HW135622   8.697  10.118   5.080  0.9562  0.6754 -0.0813
10228SOL    HW235623   8.562  10.141   5.013  0.6631 -0.8350 -0.0442
10229SOL     OW35624  10.549   3.560   2.199  0.0886 -0.4706 -0.0810
10229SOL    HW135625  10.506   3.491   2.248  0.2026 -1.2852 -1.0894
10229SOL    HW235626  10.634   3.523   2.174 -0.2332 -0.3440 -1.4452
10230SOL     OW35627   0.220   8.850   1.253  0.0708 -0.1507 -0.6288
10230SOL    HW135628   0.210   8.822   1.163  0.0818  0.6797 -0.8974
10230SOL    HW235629   0.212   8.770   1.305 -2.2647 -0.3484 -1.1922
10231SOL     OW35630   3.928   3.055   3.172 -0.0197  0.3201  0.4408
10231SOL    HW135631   3.977   2.989   3.222 -0.4103 -0.1640  0.1881
10231SOL    HW235632   3.840   3.019   3.165  0.0280  0.3812 -0.5985
10232SOL     OW35633   1.191  11.522   0.834 -0.4564  0.4976  0.4994
10232SOL    HW135634   1.135  11.482   0.901  1.2726  1.0961  2.4040
10232SOL    HW235635   1.133  11.535   0.759 -1.8195 -2.7066  0.8586
10233SOL     OW35636   4.191   9.923   8.915 -0.3876 -0.8420 -0.2117
10233SOL    HW135637   4.176   9.876   8.996 -0.7285  1.1910  0.9798
10233SOL    HW235638   4.105   9.926   8.872 -0.3364 -1.3843 -0.3585
10234SOL     OW35639   5.567   8.599   3.927  0.4229  0.3369 -0.1819
10234SOL    HW135640   5.625   8.661   3.970  1.7688 -0.3453 -0.9563
10234SOL    HW235641   5.546   8.535   3.995 -1.0317  1.6165  0.6434
10235SOL     OW35642   4.067   4.393   3.092  0.4882  0.4210  0.1248
10235SOL    HW135643   4.162   4.397   3.085  0.4417  2.8351 -0.0788
10235SOL    HW235644   4.035   4.426   3.008 -0.5031  0.5998  0.5491
10236SOL     OW35645   8.618   4.033   3.045 -0.2155  0.2777 -0.1141
10236SOL    HW135646   8.599   3.966   2.980 -0.0240  0.7780 -0.6983
10236SOL    HW235647   8.713   4.030   3.055 -0.2954 -0.2079  0.6034
10237SOL     OW35648   6.030  10.662   9.338 -0.8355 -0.0155  0.1598
10237SOL    HW135649   6.100  10.718   9.371 -1.6344  0.9085  0.3219
10237SOL    HW235650   6.012  10.697   9.250 -1.1592 -0.1853  0.1596
10238SOL     OW35651   3.390  10.759   5.260  0.7380 -1.2095  0.0773
10238SOL    HW135652   3.418  10.834   5.208 -0.6610 -0.6588  0.0853
10238SOL    HW235653   3.431  10.773   5.346 -1.1081  0.6824  0.7400
10239SOL     OW35654   9.588  10.012   8.682  0.2835 -0.1129  0.0681
10239SOL    HW135655   9.614   9.942   8.621 -2.0352 -0.9653 -0.0429
10239SOL    HW235656   9.560  10.084   8.625 -1.5069 -0.7679  0.0283
10240SOL     OW35657   7.007   4.326   6.080  0.4541 -0.0096 -0.2348
10240SOL    HW135658   7.036   4.239   6.107 -1.3097 -0.0910  1.6121
10240SOL    HW235659   7.087   4.378   6.075  1.5018 -1.6239 -1.0693
10241SOL     OW35660   0.414   9.418   3.928 -0.2285  0.1337 -0.3124
10241SOL    HW135661   0.429   9.499   3.977 -1.7198  0.2393  0.0044
10241SOL    HW235662   0.414   9.350   3.995  0.4023 -0.0763 -0.5100
10242SOL     OW35663   0.055   3.478  10.495 -0.2673  0.4261  0.8535
10242SOL    HW135664   0.120   3.545  10.475  0.7236 -0.5768  0.6260
10242SOL    HW235665   0.038   3.434  10.412 -0.3628 -0.0789  1.1355
10243SOL     OW35666   5.530   0.437   2.919  0.2171 -0.8041  0.1825
10243SOL    HW135667   5.601   0.481   2.872  0.3291 -0.7697  0.3811
10243SOL    HW235668   5.451   0.483   2.891  0.4647  0.4188  1.4077
10244SOL     OW35669   1.608   1.521   2.448  0.3996 -0.2004 -0.5345
10244SOL    HW135670   1.553   1.595   2.472  0.8396  0.2458 -0.8868
10244SOL    HW235671   1.694   1.542   2.485  0.0433 -1.5291  1.2183
10245SOL     OW35672   1.711   6.242   7.133 -0.0727 -0.2341 -0.1411
10245SOL    HW135673   1.725   6.173   7.068  3.2278  1.5620 -1.5940
10245SOL    HW235674   1.687   6.194   7.213 -1.6909 -2.7095 -1.9544
10246SOL     OW35675   1.454   0.492   8.484 -0.3874 -0.4229  0.2056
10246SOL    HW135676   1.459   0.407   8.527  1.4093 -0.2293  0.4553
10246SOL    HW235677   1.368   0.493   8.442 -0.0944 -2.7189 -0.5664
10247SOL     OW35678   4.126   7.082   8.666  0.3414 -0.3137  0.0887
10247SOL    HW135679   4.098   7.121   8.750  0.7989  0.4366 -0.0988
10247SOL    HW235680   4.136   6.989   8.685  0.5800 -0.1294  0.9117
10248SOL     OW35681  11.680   0.846  10.230  0.1080  0.1818 -0.1152
10248SOL    HW135682  11.749   0.782  10.246 -0.0654  0.0501  0.1029
10248SOL    HW235683  11.698   0.879  10.141  0.6047  0.3391  0.0415
10249SOL     OW35684   0.468   5.960   6.825  0.3192 -0.7040  0.3670
10249SOL    HW135685   0.559   5.942   6.802  0.2582 -0.2408 -0.2855
10249SOL    HW235686   0.449   6.044   6.782  0.6081  0.9472  3.2587
10250SOL     OW35687   1.422   9.810   7.117 -0.2589 -0.3024  0.3759
10250SOL    HW135688   1.448   9.902   7.125 -0.6774  0.0777 -2.0160
10250SOL    HW235689   1.498   9.767   7.077 -0.9194 -0.4773 -0.7353
10251SOL     OW35690   6.391   5.348   8.727  0.4272 -0.0816  0.3664
10251SOL    HW135691   6.472   5.366   8.681  0.2043  2.4738  0.8400
10251SOL    HW235692   6.343   5.289   8.669  2.6898 -1.9264  0.2237
10252SOL     OW35693   9.196   3.683  11.496 -0.2530 -0.3298  0.1572
10252SOL    HW135694   9.161   3.667  11.583 -0.7333  0.7611  0.1814
10252SOL    HW235695   9.138   3.750  11.459  0.5190 -0.0838 -0.6363
10253SOL     OW35696  10.652   3.612   2.621 -0.3255 -0.0243 -0.0614
10253SOL    HW135697  10.697   3.554   2.560  1.2827  0.1846  0.8567
10253SOL    HW235698  10.675   3.700   2.593  0.0359  0.0825  0.5574
10254SOL     OW35699   5.316   1.263   5.042  0.1141  0.3253  0.2264
10254SOL    HW135700   5.323   1.295   4.952 -1.2691 -1.1333 -0.4403
10254SOL    HW235701   5.383   1.195   5.048 -0.4893 -0.3093 -0.0614
10255SOL     OW35702   3.635   7.892   8.828  0.0881 -0.4302  0.0518
10255SOL    HW135703   3.573   7.844   8.883 -0.0604 -0.8001 -0.4256
10255SOL    HW235704   3.683   7.949   8.888 -0.2130 -0.6777  0.5272
10256SOL     OW35705   5.068   7.831   2.913 -0.0425 -0.4219  0.0333
10256SOL    HW135706   5.088   7.877   2.994 -0.5976  0.9075 -0.5610
10256SOL    HW235707   5.141   7.770   2.901  0.8511  0.4921  0.7018
10257SOL     OW35708   5.816   1.594   7.307 -0.4045 -0.4348  0.2200
10257SOL    HW135709   5.722   1.608   7.300 -0.5031 -0.5411  1.1837
10257SOL    HW235710   5.843   1.652   7.379 -0.0265 -1.6343  1.0761
10258SOL     OW35711   9.773   5.867   5.990  0.0422  0.2490 -0.7470
10258SOL    HW135712   9.716   5.805   5.944 -0.3612  0.7714 -0.9688
10258SOL    HW235713   9.741   5.953   5.962 -1.1519  0.6460  1.5576
10259SOL     OW35714   4.448   9.654   8.065  0.2927 -0.0989  0.0091
10259SOL    HW135715   4.423   9.743   8.041 -3.0058 -1.1103 -0.8428
10259SOL    HW235716   4.523   9.665   8.124 -0.5961  3.2680  0.7392
10260SOL     OW35717   7.639   4.401   3.715  0.4129 -0.3139 -0.2320
10260SOL    HW135718   7.600   4.349   3.786  2.9708 -1.5029  0.4208
10260SOL    HW235719   7.733   4.399   3.733  0.8515  2.2567 -1.7959
10261SOL     OW35720   0.083   4.211   9.908  0.3675 -0.1696  0.3566
10261SOL    HW135721   0.047   4.123   9.916 -0.7073  0.4273  2.9577
10261SOL    HW235722   0.006   4.268   9.899  0.9342  0.6647  0.6738
10262SOL     OW35723  10.038  11.491   2.633 -0.1943  0.5388 -0.1336
10262SOL    HW135724  10.097  11.424   2.669 -0.1969  0.6324  0.0429
10262SOL    HW235725  10.068  11.503   2.543 -1.4365 -1.1737 -0.8536
10263SOL     OW35726   1.262   7.969   1.055  0.3367 -0.1527 -0.2106
10263SOL    HW135727   1.357   7.969   1.046  0.3267 -0.4070 -0.3038
10263SOL    HW235728   1.245   8.033   1.124  0.6001 -0.4019  0.0852
10264SOL     OW35729   0.111   4.691   6.785  0.4297 -0.3055 -0.1639
10264SOL    HW135730   0.057   4.764   6.818 -0.5018 -0.8734 -0.4000
10264SOL    HW235731   0.190   4.695   6.838 -1.6660 -2.2532  3.5139
10265SOL     OW35732   1.002  11.325   2.958 -0.0791  0.4554  0.0359
10265SOL    HW135733   1.007  11.395   3.022  0.9224 -1.9267  2.7988
10265SOL    HW235734   1.093  11.298   2.944 -0.4098 -0.1334 -1.1484
10266SOL     OW35735   1.911  10.032   1.251  0.3314  0.1567 -0.2761
10266SOL    HW135736   1.882  10.121   1.273  0.5379 -0.0099  0.7147
10266SOL    HW235737   2.007  10.036   1.255  0.3291 -0.6663  2.2176
10267SOL     OW35738   4.555   7.802   2.180 -0.3128  0.1759 -0.1445
10267SOL    HW135739   4.585   7.869   2.241  1.7173 -2.2079  1.7051
10267SOL    HW235740   4.575   7.838   2.093  2.6987  1.1614  0.8323
10268SOL     OW35741   8.977   2.130  10.992 -0.3858 -0.0822 -0.3870
10268SOL    HW135742   9.007   2.049  10.952 -1.8531 -0.7162 -0.2514
10268SOL    HW235743   9.053   2.162  11.042  0.2090 -1.3509 -0.4469
10269SOL     OW35744   1.422   9.386   7.176  0.1760 -0.3507  0.0965
10269SOL    HW135745   1.436   9.292   7.176 -0.1668 -0.4066 -0.5300
10269SOL    HW235746   1.337   9.399   7.216  0.9516 -0.1715  1.7639
10270SOL     OW35747   8.334   8.952   2.921  0.0072  0.1835 -0.3634
10270SOL    HW135748   8.388   9.028   2.902 -1.6769  1.2261 -1.1753
10270SOL    HW235749   8.298   8.926   2.836 -1.4008  0.0245  0.2612
10271SOL     OW35750  10.641   5.073  11.613  0.2879  0.0289 -0.2840
10271SOL    HW135751  10.678   5.026  11.688 -0.3705 -1.9830 -1.1547
10271SOL    HW235752  10.639   5.165  11.641  1.8676 -0.3891  1.3979
10272SOL     OW35753   5.066  11.525   7.912  0.0311  0.3617 -0.3931
10272SOL    HW135754   5.123  11.593   7.947  0.5036  0.1287 -0.6934
10272SOL    HW235755   5.125  11.468   7.863 -0.3170 -0.4013  0.0624
10273SOL     OW35756   5.799   9.878   8.309  0.3539  0.5342  0.4394
10273SOL    HW135757   5.851   9.818   8.255  1.2266  2.0166 -0.4441
10273SOL    HW235758   5.820   9.854   8.399 -1.3495 -2.2030  0.2522
10274SOL     OW35759   8.484   1.645   5.556  0.3272  0.2227  0.4693
10274SOL    HW135760   8.489   1.733   5.518  0.1766 -0.0129 -0.1117
10274SOL    HW235761   8.454   1.590   5.484  0.7963 -0.3719  0.7220
10275SOL     OW35762   2.178   8.663   8.651  0.4728  0.2565  0.0387
10275SOL    HW135763   2.177   8.646   8.556  2.0467  1.4304 -0.2417
10275SOL    HW235764   2.202   8.579   8.690  0.5613 -0.0623 -0.6811
10276SOL     OW35765   4.936   7.339   6.614  0.4230  0.9148 -0.1713
10276SOL    HW135766   5.012   7.356   6.560  0.1261  0.4796 -0.7292
10276SOL    HW235767   4.936   7.244   6.628 -1.2733  0.5456 -2.1178
10277SOL     OW35768   4.570   5.287   5.334  0.5831  0.0490  0.2353
10277SOL    HW135769   4.586   5.292   5.428 -0.8929  0.9865  0.4642
10277SOL    HW235770   4.655   5.308   5.294  0.6815  2.0095  1.3577
10278SOL     OW35771   5.297   5.842   6.823  0.3581 -0.0577 -0.0683
10278SOL    HW135772   5.363   5.807   6.884 -0.1089 -2.6389 -0.9101
10278SOL    HW235773   5.343   5.853   6.741  0.5382  1.5956  0.2298
10279SOL     OW35774   0.415   0.571   2.337  0.0543 -0.8270 -0.4268
10279SOL    HW135775   0.441   0.552   2.246 -3.5079  0.1235 -1.8175
10279SOL    HW235776   0.384   0.487   2.371  2.3828 -1.4239  0.3863
10280SOL     OW35777   9.918   7.901   7.286 -0.2821 -0.0071  0.0755
10280SOL    HW135778   9.921   7.807   7.269 -0.4916  0.0296 -0.1634
10280SOL    HW235779   9.887   7.940   7.204  1.1035  0.3955 -0.2905
10281SOL     OW35780   0.941   1.708  10.710 -0.4032 -0.4979 -0.8047
10281SOL    HW135781   0.917   1.671  10.624 -0.0527 -1.1285 -0.6392
10281SOL    HW235782   1.033   1.684  10.722 -0.3710 -0.1722 -0.3717
10282SOL     OW35783   7.992   6.817   9.958 -0.1486 -0.1857 -0.0009
10282SOL    HW135784   7.964   6.903   9.926 -0.6923 -1.5054 -3.5591
10282SOL    HW235785   7.929   6.794  10.026  0.2804  2.3203  1.3871
10283SOL     OW35786   4.629   3.691   1.700 -0.0217 -0.1470 -0.2675
10283SOL    HW135787   4.710   3.729   1.664  0.3593 -0.8801 -0.1981
10283SOL    HW235788   4.600   3.629   1.633  0.0159 -0.6125  0.1427
10284SOL     OW35789   8.744   1.325   4.145  0.2855 -0.0038 -0.5888
10284SOL    HW135790   8.788   1.243   4.165 -0.3552  0.2874  2.5685
10284SOL    HW235791   8.657   1.300   4.116 -1.8498 -0.7165  5.2328
10285SOL     OW35792   0.524   5.148   9.122 -0.0132 -0.3063 -0.4351
10285SOL    HW135793   0.604   5.163   9.172  0.4323 -0.3313 -1.1358
10285SOL    HW235794   0.513   5.053   9.122 -0.4274 -0.2707  0.2371
10286SOL     OW35795   7.976   6.442   4.439 -0.8149 -0.1257 -0.2795
10286SOL    HW135796   8.001   6.351   4.423 -0.3894 -0.1210  0.3309
10286SOL    HW235797   8.027   6.492   4.375 -0.4104 -0.2494 -0.0610
10287SOL     OW35798   3.150   7.314   2.078 -0.1066 -0.0032 -0.0221
10287SOL    HW135799   3.141   7.246   2.011  0.8610 -0.9352  0.7628
10287SOL    HW235800   3.227   7.288   2.129 -0.1461  1.2966  0.7540
10288SOL     OW35801   2.725  10.242   9.456 -0.1128 -0.5337  0.0858
10288SOL    HW135802   2.754  10.263   9.367 -2.4600 -0.5503 -0.7494
10288SOL    HW235803   2.639  10.283   9.464 -2.2190 -4.4739  0.5347
10289SOL     OW35804   8.090  11.105  10.076 -0.1913 -0.0377  0.3237
10289SOL    HW135805   8.022  11.160  10.116 -0.3089  1.5593 -1.9065
10289SOL    HW235806   8.159  11.102  10.142 -0.7285  1.7296  1.0536
10290SOL     OW35807  10.009   9.346   1.182 -0.2976  0.2153  0.0073
10290SOL    HW135808  10.056   9.420   1.144 -0.6190 -0.1575 -1.1521
10290SOL    HW235809   9.969   9.381   1.262  0.4488  0.9972  0.0523
10291SOL     OW35810  11.302   5.291   9.985  0.3721  0.3062 -0.2465
10291SOL    HW135811  11.346   5.371  10.010 -2.4605  1.3677  1.7642
10291SOL    HW235812  11.326   5.227  10.053 -1.7324  1.1485  1.3829
10292SOL     OW35813   1.591   1.903   2.057 -0.5929  0.0051 -0.0506
10292SOL    HW135814   1.615   1.961   1.985  2.5953 -0.4464  0.5257
10292SOL    HW235815   1.619   1.816   2.029 -0.5982 -0.4177  1.1706
10293SOL     OW35816   3.492   0.580  10.627 -0.1633 -0.0341  0.1386
10293SOL    HW135817   3.534   0.500  10.595  0.5674  0.0051  0.9706
10293SOL    HW235818   3.461   0.624  10.548 -1.5324 -1.6471 -0.2766
10294SOL     OW35819  10.183   9.792   1.984  0.1279 -0.3628  0.4154
10294SOL    HW135820  10.172   9.887   1.992  0.1365 -0.4371  1.5585
10294SOL    HW235821  10.155   9.772   1.895 -1.0158  0.5640  0.5324
10295SOL     OW35822   0.568   6.060   7.305 -0.4296 -0.4248 -0.8160
10295SOL    HW135823   0.478   6.031   7.320 -0.5599 -1.5546 -3.4332
10295SOL    HW235824   0.618   6.021   7.377 -2.0025  0.5124  0.8915
10296SOL     OW35825   6.533  11.021   1.946  0.2645 -0.3681 -0.2977
10296SOL    HW135826   6.568  11.010   2.034 -1.3374  2.0335  0.7526
10296SOL    HW235827   6.550  11.113   1.924 -0.9515 -0.4390 -1.7546
10297SOL     OW35828   4.223   6.313   6.414  0.2459 -0.2136 -0.3146
10297SOL    HW135829   4.197   6.228   6.448  1.6613  0.1307  1.7633
10297SOL    HW235830   4.143   6.366   6.418  0.0318 -0.6140  1.1829
10298SOL     OW35831  11.322   4.966   9.846  0.2633  0.1138 -0.3219
10298SOL    HW135832  11.339   4.945   9.754  1.6404 -0.1563 -0.0345
10298SOL    HW235833  11.388   5.031   9.869  0.0420  0.0592  0.5190
10299SOL     OW35834   4.823   6.240   7.306 -0.4742  0.5886 -0.0368
10299SOL    HW135835   4.801   6.326   7.343  1.5462  1.0936  0.1409
10299SOL    HW235836   4.907   6.218   7.346 -0.3415 -0.9008 -1.0530
10300SOL     OW35837   4.280   3.852   3.163 -0.0284 -0.3086  0.5248
10300SOL    HW135838   4.210   3.846   3.098  1.5721 -1.9848 -1.1369
10300SOL    HW235839   4.256   3.786   3.229  0.1337 -1.1078 -0.2016
10301SOL     OW35840   1.456   6.663   0.818  0.1759  0.0432 -0.3133
10301SOL    HW135841   1.408   6.741   0.786 -2.1177 -0.6048  1.2951
10301SOL    HW235842   1.492   6.690   0.902 -0.6549 -0.6001  0.2660
10302SOL     OW35843   0.658   8.307   6.018 -0.5046  0.4064  0.4565
10302SOL    HW135844   0.655   8.268   5.930 -1.8622 -0.0520  0.6869
10302SOL    HW235845   0.734   8.365   6.015  1.2529 -1.7563 -0.1080
10303SOL     OW35846   3.357   9.832   4.357 -0.3055 -0.0337 -0.6055
10303SOL    HW135847   3.364   9.767   4.287 -1.0869 -0.2995 -0.4429
10303SOL    HW235848   3.302   9.790   4.423  1.1336 -0.1386  0.5787
10304SOL     OW35849   4.901  11.640   6.534 -0.2606  0.3570 -0.4974
10304SOL    HW135850   4.846  11.714   6.509  0.4935  0.5550 -1.6471
10304SOL    HW235851   4.871  11.567   6.479 -0.6858 -0.0823  0.2924
10305SOL     OW35852   4.835  11.409   9.817  0.2602 -0.2677  0.8350
10305SOL    HW135853   4.767  11.341   9.822 -0.5323  0.5846  2.0960
10305SOL    HW235854   4.846  11.424   9.723 -0.2407 -1.4544  0.5668
10306SOL     OW35855   7.222   4.787   2.189 -0.0106  0.1696  0.3643
10306SOL    HW135856   7.268   4.843   2.126 -1.2732  0.8069 -0.0365
10306SOL    HW235857   7.178   4.848   2.248  2.2353 -0.4062  2.7810
10307SOL     OW35858   3.311   2.745   9.931 -0.1197  0.4783  0.3840
10307SOL    HW135859   3.345   2.662   9.896 -1.8853 -0.4553  0.7701
10307SOL    HW235860   3.251   2.776   9.863 -2.1681 -0.4129  1.6807
10308SOL     OW35861   0.692  11.072   4.318  0.0095  0.2345 -0.3415
10308SOL    HW135862   0.771  11.071   4.372 -1.5104  1.4038  2.1006
10308SOL    HW235863   0.664  10.981   4.314  0.1891  0.1021  0.8775
10309SOL     OW35864   3.298  10.821   7.034 -0.4697  0.1307 -0.0364
10309SOL    HW135865   3.212  10.858   7.011  0.0060  1.2276 -0.1150
10309SOL    HW235866   3.358  10.858   6.969 -0.2395 -2.2955 -1.3089
10310SOL     OW35867   7.842   4.697   6.448  0.1085 -0.5600 -0.5993
10310SOL    HW135868   7.885   4.638   6.387  1.0214  1.2333 -1.7743
10310SOL    HW235869   7.751   4.700   6.419 -0.2027 -2.1204  0.1083
10311SOL     OW35870   9.373   4.681   2.534  0.1805  0.1781  0.6547
10311SOL    HW135871   9.445   4.733   2.499  0.6315  0.2051  1.5866
10311SOL    HW235872   9.294   4.727   2.506  0.5091  0.0492 -0.5323
10312SOL     OW35873   5.610   4.152   8.400  0.3604  1.6570 -0.3239
10312SOL    HW135874   5.666   4.082   8.366 -0.7240  1.3951 -1.6451
10312SOL    HW235875   5.669   4.205   8.454  1.5001  0.4772 -0.3428
10313SOL     OW35876   9.444   0.976   8.567  0.3545  0.1476 -0.1564
10313SOL    HW135877   9.482   0.993   8.481  0.5626 -1.2058 -0.3631
10313SOL    HW235878   9.472   1.049   8.621 -0.0255  1.1729 -1.3081
10314SOL     OW35879   5.741   5.419  10.648  0.1735 -0.1365  0.3686
10314SOL    HW135880   5.754   5.377  10.733 -1.1725 -1.8888 -0.2157
10314SOL    HW235881   5.825   5.461  10.629  1.0978 -1.2456  1.7360
10315SOL     OW35882   9.675   2.804   1.990 -0.5132  0.0363  0.2507
10315SOL    HW135883   9.678   2.790   1.895 -0.9321 -0.3401  0.2902
10315SOL    HW235884   9.723   2.886   2.004 -1.9575  1.0490 -0.4668
10316SOL     OW35885   3.656   9.176   3.539  0.3771  0.0097 -0.3349
10316SOL    HW135886   3.680   9.085   3.556  0.4371  0.3287  1.3843
10316SOL    HW235887   3.737   9.218   3.512  0.3828 -0.3906 -0.9669
10317SOL     OW35888  10.082  10.368  10.121 -0.0628 -0.8208 -0.3343
10317SOL    HW135889  10.176  10.349  10.123  0.1112  0.0022 -0.3253
10317SOL    HW235890  10.061  10.395  10.211 -0.0921 -0.0242 -0.5759
10318SOL     OW35891   2.578   4.596   4.239 -0.2148 -0.1962 -0.5476
10318SOL    HW135892   2.488   4.566   4.241  0.4383 -2.4176 -1.5412
10318SOL    HW235893   2.616   4.553   4.163  1.3580  1.7737 -0.9828
10319SOL     OW35894  11.105   6.714   4.854  0.1241  0.4464  0.2292
10319SOL    HW135895  11.045   6.784   4.829  1.1371  0.6976 -1.6979
10319SOL    HW235896  11.181   6.760   4.889 -0.7227  0.1320  2.6307
10320SOL     OW35897   7.005   9.470   5.108 -0.1548 -0.2776 -0.0473
10320SOL    HW135898   6.928   9.447   5.160 -0.1544 -1.4143 -0.5116
10320SOL    HW235899   6.973   9.475   5.018  0.2208 -0.3127 -0.1875
10321SOL     OW35900   0.750   6.301   7.563  0.0081 -0.0358  0.4179
10321SOL    HW135901   0.737   6.208   7.579  0.6662 -0.3327 -0.6967
10321SOL    HW235902   0.809   6.330   7.633  1.2070 -0.8514 -0.2380
10322SOL     OW35903   6.699  10.287   6.869  0.4798  0.7038 -0.5435
10322SOL    HW135904   6.668  10.201   6.898  2.8185  0.2235  0.7218
10322SOL    HW235905   6.727  10.274   6.779 -0.7074  0.5906 -0.9194
10323SOL     OW35906   8.883   2.069   4.485  0.0579 -0.2879  0.0992
10323SOL    HW135907   8.954   2.026   4.532  2.1018  2.3125 -0.3510
10323SOL    HW235908   8.806   2.056   4.540  1.1463 -2.0444  1.3166
10324SOL     OW35909   6.385  10.419  10.728 -0.4101 -0.2229  0.3512
10324SOL    HW135910   6.421  10.466  10.653 -0.3439 -0.3369  0.3105
10324SOL    HW235911   6.364  10.486  10.792 -0.5452 -0.1176  0.1968
10325SOL     OW35912  11.022  11.482   2.391  0.6698 -0.2371  0.4216
10325SOL    HW135913  11.074  11.403   2.374 -1.3032 -1.0081 -2.8968
10325SOL    HW235914  11.055  11.545   2.327  0.1839  0.6302  1.0121
10326SOL     OW35915  10.789   7.870   3.124  0.1494  0.4353 -0.2210
10326SOL    HW135916  10.741   7.870   3.041  0.7013 -1.8002 -0.5873
10326SOL    HW235917  10.840   7.951   3.122 -1.1553  1.2727 -1.2510
10327SOL     OW35918   8.808   9.001   5.524  0.2041  0.0879 -0.4128
10327SOL    HW135919   8.743   8.960   5.467  0.7618  0.4765 -1.3571
10327SOL    HW235920   8.826   9.085   5.482 -0.1523  0.8574  0.9251
10328SOL     OW35921   0.677  11.281  11.546 -0.3865  0.1205  0.1489
10328SOL    HW135922   0.712  11.218  11.608 -2.2463 -2.0808 -0.9037
10328SOL    HW235923   0.597  11.314  11.587 -1.1761 -0.7141 -0.6944
10329SOL     OW35924  10.034   1.741  10.679  0.5856 -0.1701 -0.2217
10329SOL    HW135925   9.963   1.696  10.634 -0.3155  0.1113  0.8668
10329SOL    HW235926  10.020   1.833  10.659 -0.5632  0.0926  1.5516
10330SOL     OW35927   2.425   4.451   5.310 -0.9076 -0.5080  0.1769
10330SOL    HW135928   2.390   4.381   5.255 -0.5408 -0.6954  0.1789
10330SOL    HW235929   2.371   4.527   5.289  0.0896 -0.2171 -1.4515
10331SOL     OW35930   9.947   7.642   6.743  0.0744  0.1067 -0.4821
10331SOL    HW135931   9.896   7.723   6.739  1.1704  0.9663  1.3769
10331SOL    HW235932  10.036   7.669   6.721  0.1966 -0.8852 -1.2518
10332SOL     OW35933   8.360   4.772   4.725 -0.2119 -0.1664 -0.6967
10332SOL    HW135934   8.423   4.828   4.771  0.5363 -1.2782 -0.3302
10332SOL    HW235935   8.275   4.810   4.746  0.2839  1.0082 -0.7033
10333SOL     OW35936   4.653   2.763   8.204 -0.2473  0.0259 -0.6139
10333SOL    HW135937   4.581   2.737   8.148 -0.3760 -0.0370 -0.4217
10333SOL    HW235938   4.705   2.683   8.215  0.0951  0.1736 -1.1051
10334SOL     OW35939   4.449   0.413   1.947 -0.0754  0.3821  0.5310
10334SOL    HW135940   4.533   0.378   1.977  0.1229  0.7520  0.4149
10334SOL    HW235941   4.470   0.460   1.866 -0.5850 -0.5128 -0.1381
10335SOL     OW35942   4.782   1.464   5.718  0.6377  0.3240 -0.3556
10335SOL    HW135943   4.860   1.498   5.763  0.9985  0.2936 -0.9419
10335SOL    HW235944   4.751   1.393   5.774 -0.0556  1.5193  0.8224
10336SOL     OW35945   8.996   3.740   6.047  0.4991 -0.4899 -0.1179
10336SOL    HW135946   8.982   3.666   6.106  0.9313 -0.5582 -0.0923
10336SOL    HW235947   9.085   3.770   6.068 -0.2618  1.0956  1.0297
10337SOL     OW35948   1.529   1.110   4.651 -0.2202 -0.2002  0.7154
10337SOL    HW135949   1.461   1.136   4.713  0.9514 -0.4091  2.1463
10337SOL    HW235950   1.553   1.191   4.606 -0.9159  0.0005  0.6972
10338SOL     OW35951   5.880   5.848   1.697  0.4569  0.1537 -0.3362
10338SOL    HW135952   5.951   5.809   1.748  1.9137  0.4909 -2.0102
10338SOL    HW235953   5.839   5.773   1.652  0.5987  0.1097 -0.3907
10339SOL     OW35954   2.461  11.583  10.685  0.3566  0.3165 -0.0881
10339SOL    HW135955   2.555  11.570  10.696  0.2239 -0.1169  0.5546
10339SOL    HW235956   2.421  11.529  10.752 -0.3310  1.0758  0.1294
10340SOL     OW35957   7.858   3.454   2.271 -0.1407 -0.3414 -0.4353
10340SOL    HW135958   7.934   3.511   2.260 -0.7942  1.0363  1.6036
10340SOL    HW235959   7.793   3.509   2.315 -1.9815 -1.7583 -1.2480
10341SOL     OW35960   7.826  11.026   5.027  0.1315 -0.3174 -0.0335
10341SOL    HW135961   7.835  10.945   4.977  1.9885 -0.1490 -0.0416
10341SOL    HW235962   7.879  11.012   5.106 -0.7797  0.3309  0.7214
10342SOL     OW35963   8.893   8.801   2.365 -0.2171  0.0487  0.6224
10342SOL    HW135964   8.806   8.815   2.401 -0.5836 -0.5369 -0.0025
10342SOL    HW235965   8.945   8.769   2.439 -0.8785 -0.8487  0.7160
10343SOL     OW35966   4.873   7.083   2.097 -0.2206 -0.5662 -0.7200
10343SOL    HW135967   4.915   7.130   2.170 -0.9506  1.3638 -1.4808
10343SOL    HW235968   4.921   7.112   2.020 -0.0884 -1.8433 -1.1421
10344SOL     OW35969   5.638   5.814   5.848  0.0964 -0.2826  0.2747
10344SOL    HW135970   5.701   5.779   5.912  2.2997 -0.6896 -1.9602
10344SOL    HW235971   5.606   5.738   5.801 -0.7318  0.0957  0.2090
10345SOL     OW35972   2.749   7.218   0.534  0.0692 -0.2086 -0.2686
10345SOL    HW135973   2.830   7.215   0.483 -0.3784 -2.6839 -0.9353
10345SOL    HW235974   2.760   7.148   0.599 -0.7942  0.6607  0.8421
10346SOL     OW35975   1.194   2.359  11.051  0.7400  0.4057 -0.4516
10346SOL    HW135976   1.209   2.392  11.139  0.2984 -0.5968  0.0188
10346SOL    HW235977   1.107   2.391  11.028  0.6832  0.3176 -0.3595
10347SOL     OW35978   9.788   4.400   9.293  0.4639  0.5425  0.1496
10347SOL    HW135979   9.783   4.406   9.388 -0.1308  3.1084  0.0372
10347SOL    HW235980   9.771   4.308   9.273 -0.6252  0.1903  2.4573
10348SOL     OW35981   2.304   7.263   0.750  0.8975 -0.6598  0.3806
10348SOL    HW135982   2.212   7.287   0.751  0.4421 -2.0362 -1.6319
10348SOL    HW235983   2.350   7.344   0.727 -0.1841 -0.6566 -2.0979
10349SOL     OW35984   4.067   6.208   7.385  0.2509 -0.6886 -0.6557
10349SOL    HW135985   3.999   6.173   7.328 -1.5240  0.7455  0.4617
10349SOL    HW235986   4.019   6.250   7.457  2.3069  0.8504 -0.0766
10350SOL     OW35987   8.274  10.999   9.903 -0.0860  0.5524  0.0338
10350SOL    HW135988   8.199  11.037   9.947 -0.2825  1.9527 -1.3923
10350SOL    HW235989   8.324  11.075   9.872  1.9682 -0.3325  1.0059
10351SOL     OW35990   7.257  11.168   4.969 -0.1390 -0.2307  0.0957
10351SOL    HW135991   7.233  11.249   5.014 -0.5005  0.1029 -0.6738
10351SOL    HW235992   7.331  11.192   4.913 -1.1136 -0.0780 -1.1685
10352SOL     OW35993   1.850  11.421  11.386 -0.5056  0.3186 -0.3247
10352SOL    HW135994   1.888  11.393  11.302 -0.6496 -1.8742  0.2828
10352SOL    HW235995   1.767  11.463  11.361 -0.3548  0.0730 -1.3089
10353SOL     OW35996   5.627   7.579   2.561 -0.1056 -0.5213  0.3221
10353SOL    HW135997   5.563   7.512   2.588  0.6509 -1.1086  0.6942
10353SOL    HW235998   5.590   7.616   2.481 -1.2643 -0.3519  0.9016
10354SOL     OW35999  10.283   1.193   1.081  0.3442 -0.2236 -0.7474
10354SOL    HW136000  10.251   1.280   1.055  1.4621  0.5142  0.2190
10354SOL    HW236001  10.374   1.192   1.054  0.6411 -0.6622  0.2159
10355SOL     OW36002   1.957   9.823   7.987 -0.0941 -0.0662 -0.4430
10355SOL    HW136003   2.043   9.796   8.019 -0.4169 -0.3304  0.2202
10355SOL    HW236004   1.970   9.838   7.893  0.6816 -0.0603 -0.3429
10356SOL     OW36005   0.677   0.390  11.184  0.5915 -0.5535 -0.4009
10356SOL    HW136006   0.659   0.449  11.111  1.0744  0.2715  0.1378
10356SOL    HW236007   0.602   0.330  11.185  0.2748 -0.1899 -1.1763
10357SOL     OW36008   5.227   4.905   7.737 -0.3775 -0.5812 -0.0724
10357SOL    HW136009   5.234   4.875   7.827 -0.3784 -1.0875 -0.2362
10357SOL    HW236010   5.316   4.900   7.702 -0.2422  0.3406  0.1204
10358SOL     OW36011   8.199  10.104  10.436 -0.6165 -0.4895 -0.2936
10358SOL    HW136012   8.175  10.178  10.492  0.1626 -0.1784 -0.3632
10358SOL    HW236013   8.185  10.136  10.347  1.6539  0.3167 -0.4229
10359SOL     OW36014  10.839   6.263   5.807 -0.1581 -0.3060  0.0466
10359SOL    HW136015  10.871   6.254   5.896 -1.3505  0.0410  0.5342
10359SOL    HW236016  10.824   6.357   5.795 -2.0551 -0.5361  0.2670
10360SOL     OW36017   0.011   9.143  10.317 -0.1256 -0.1772 -0.3900
10360SOL    HW136018   0.023   9.198  10.240  1.0887 -0.7925 -0.6622
10360SOL    HW236019   0.006   9.206  10.390  0.1876  0.3479 -0.8117
10361SOL     OW36020   4.414   2.336   6.631  0.2763 -0.5212  0.0621
10361SOL    HW136021   4.476   2.280   6.584  1.8541 -0.7071  2.2445
10361SOL    HW236022   4.357   2.274   6.677  0.8741 -0.3613  1.0343
10362SOL     OW36023   3.478   5.794  10.827 -0.1123  0.0365 -0.1334
10362SOL    HW136024   3.433   5.854  10.767  1.0461  2.8845  1.6732
10362SOL    HW236025   3.539   5.745  10.770 -0.6263  1.0093 -1.5837
10363SOL     OW36026   8.845   9.469   9.106 -0.0209 -0.5809 -0.3684
10363SOL    HW136027   8.779   9.470   9.176  0.1980 -1.2529 -0.1428
10363SOL    HW236028   8.915   9.414   9.141  0.0655 -0.9704 -1.1430
10364SOL     OW36029  10.295   3.436   8.530 -0.0624  0.3364  0.2317
10364SOL    HW136030  10.246   3.443   8.448 -0.4021  2.2409  0.5639
10364SOL    HW236031  10.317   3.343   8.536 -0.5258  0.0498 -1.7233
10365SOL     OW36032   3.206   2.222   4.181 -0.0319 -0.4634 -0.3614
10365SOL    HW136033   3.233   2.312   4.164  1.7845 -0.9078  0.0307
10365SOL    HW236034   3.158   2.196   4.102 -1.2773  1.0776 -0.1536
10366SOL     OW36035   1.485  10.627   8.419  0.2820  0.1657  0.4277
10366SOL    HW136036   1.543  10.602   8.491  1.3668 -0.6851 -0.6845
10366SOL    HW236037   1.525  10.705   8.382  1.0855 -0.7509 -0.7022
10367SOL     OW36038   7.357   6.704  10.238 -0.2231 -0.0066 -0.5593
10367SOL    HW136039   7.292   6.684  10.171 -0.9471  3.2719 -1.0151
10367SOL    HW236040   7.307   6.745  10.309  0.8676 -1.0996  0.8976
10368SOL     OW36041  10.978   2.905   3.804 -0.3357  0.3969 -0.1115
10368SOL    HW136042  11.056   2.874   3.757 -0.6398 -0.3655 -0.1339
10368SOL    HW236043  10.925   2.946   3.736  0.1592  1.1467 -0.0499
10369SOL     OW36044   1.793   4.168   6.056 -0.2751 -0.3816  0.7038
10369SOL    HW136045   1.797   4.248   6.003 -0.9058 -0.9919 -0.2747
10369SOL    HW236046   1.846   4.189   6.133  2.4188 -0.2003 -1.0805
10370SOL     OW36047   0.424   6.087   5.327 -0.4572  0.9575  0.0778
10370SOL    HW136048   0.451   6.019   5.266  0.8751  0.3910  1.2329
10370SOL    HW236049   0.402   6.041   5.408  0.3082  1.8451  0.8305
10371SOL     OW36050   3.351   1.008   8.112  0.2551  0.5838  0.2039
10371SOL    HW136051   3.273   1.063   8.110 -0.1284  0.0522  0.1366
10371SOL    HW236052   3.423   1.068   8.128 -0.2568  0.9807  1.0598
10372SOL     OW36053   2.132   1.781   1.797  0.1704  0.4570  0.5320
10372SOL    HW136054   2.227   1.775   1.809  0.3245  2.7432  0.7935
10372SOL    HW236055   2.117   1.869   1.764 -1.6970 -0.6105 -1.7877
10373SOL     OW36056   2.942  11.562   3.036 -0.2165 -0.5904  0.1765
10373SOL    HW136057   3.005  11.568   3.109 -0.4950 -0.1827  0.3911
10373SOL    HW236058   2.997  11.550   2.958  0.1014 -0.7437  0.4211
10374SOL     OW36059   3.409   6.792   9.740  0.5417 -0.1187 -0.3094
10374SOL    HW136060   3.382   6.715   9.690  0.8079  0.3029 -1.1232
10374SOL    HW236061   3.474   6.758   9.803  1.8882 -0.3235 -1.7444
10375SOL     OW36062   1.312   1.743   7.999  0.3768  0.1099 -0.0678
10375SOL    HW136063   1.272   1.810   8.054  0.4860 -1.1179  1.5793
10375SOL    HW236064   1.270   1.754   7.913 -0.4978  1.4624  0.5023
10376SOL     OW36065   4.264   7.947   6.902  0.6687  0.0088  0.2846
10376SOL    HW136066   4.257   7.861   6.945 -0.2835  0.9349  2.0894
10376SOL    HW236067   4.174   7.980   6.900  0.9539  0.7826 -0.8422
10377SOL     OW36068   0.749  11.177  10.102 -0.3887 -0.4757  0.4405
10377SOL    HW136069   0.812  11.105  10.112  0.9971  0.7777  1.0306
10377SOL    HW236070   0.703  11.180  10.186  1.1258  0.7331  1.2668
10378SOL     OW36071   1.981   2.417   0.839 -0.4828 -0.0286  0.4234
10378SOL    HW136072   1.960   2.329   0.808 -0.6889  0.2914 -0.3684
10378SOL    HW236073   1.930   2.427   0.920 -0.1602 -0.7726  0.7283
10379SOL     OW36074   0.415   3.347   5.262  0.0401  0.2763 -0.6069
10379SOL    HW136075   0.463   3.272   5.225  2.3812  0.8591  1.0034
10379SOL    HW236076   0.416   3.331   5.356 -1.6778  1.1183 -0.4150
10380SOL     OW36077   4.967   5.235   6.293 -0.0857 -0.2598  0.4244
10380SOL    HW136078   4.894   5.192   6.248 -2.2438  2.2917  1.2442
10380SOL    HW236079   5.022   5.269   6.221  1.2051 -3.3433 -0.2203
10381SOL     OW36080   0.792   6.438   5.014 -0.1547  0.3241 -0.1805
10381SOL    HW136081   0.866   6.377   5.016 -0.3054  0.1274 -0.4982
10381SOL    HW236082   0.824   6.516   5.058  0.2397  0.2366 -0.3070
10382SOL     OW36083  11.048   3.914  10.583 -0.0379 -0.3889 -0.4260
10382SOL    HW136084  11.133   3.958  10.577 -1.2277  1.9647 -1.6222
10382SOL    HW236085  11.064   3.825  10.552  2.3951 -0.7464  1.5457
10383SOL     OW36086   1.940  10.367   2.031  0.5225 -0.1133 -0.5224
10383SOL    HW136087   2.019  10.367   1.976  0.7758 -0.6006 -0.1669
10383SOL    HW236088   1.876  10.319   1.979  1.0649 -1.4713  0.0059
10384SOL     OW36089   6.216  10.771   3.088 -0.3837  0.0680  0.0351
10384SOL    HW136090   6.215  10.801   3.179 -0.1622  0.8685 -0.2235
10384SOL    HW236091   6.124  10.754   3.068 -0.4301 -0.1485  0.4143
10385SOL     OW36092   4.593   5.293   2.829 -0.3377  0.5172 -0.1466
10385SOL    HW136093   4.595   5.384   2.799  0.9278  0.6649  0.3010
10385SOL    HW236094   4.538   5.295   2.907  0.2615  1.0526  0.2788
10386SOL     OW36095   0.037  11.668  10.622 -0.0220  0.3671  0.4019
10386SOL    HW136096   0.033  11.658  10.717 -1.4748  0.8710  0.4306
10386SOL    HW236097   0.097  11.741  10.608 -0.0494  0.5020  0.9678
10387SOL     OW36098   8.112   9.188   7.822 -0.4036  0.3050  0.6125
10387SOL    HW136099   8.071   9.150   7.899 -0.7257  0.1344  0.3569
10387SOL    HW236100   8.042   9.237   7.778 -0.5071 -0.5227 -0.1734
10388SOL     OW36101   9.645   0.330  11.051 -0.6609  0.0403  0.6782
10388SOL    HW136102   9.584   0.263  11.022 -1.1855 -0.0275  1.8884
10388SOL    HW236103   9.632   0.335  11.145  1.0761  0.1557  0.9432
10389SOL     OW36104   5.549   2.007   6.973 -0.1560 -0.0824  0.1034
10389SOL    HW136105   5.613   1.938   6.992 -0.7417 -0.4947  0.6583
10389SOL    HW236106   5.466   1.971   7.005 -1.0197 -0.3339 -2.2688
10390SOL     OW36107   1.749   1.324   9.068 -0.6075 -0.3772 -0.2684
10390SOL    HW136108   1.731   1.417   9.073  0.0824 -0.2483 -0.1171
10390SOL    HW236109   1.751   1.305   8.974 -0.6780 -0.2282 -0.2999
10391SOL     OW36110   6.524   2.181  10.282  0.1989 -0.2387 -0.6147
10391SOL    HW136111   6.520   2.223  10.368  0.0293  0.6572 -1.0490
10391SOL    HW236112   6.433   2.181  10.251 -0.0566 -2.2093 -0.0527
10392SOL     OW36113   8.862   3.261   4.075 -0.2784 -0.2391  0.1520
10392SOL    HW136114   8.796   3.221   4.131 -0.6919  0.4071  0.1324
10392SOL    HW236115   8.816   3.282   3.994 -1.0472  3.5724  1.4214
10393SOL     OW36116   6.090  10.608   5.884 -0.3825 -0.7305 -0.0016
10393SOL    HW136117   6.010  10.571   5.922  0.2125 -1.4141  0.6375
10393SOL    HW236118   6.160  10.572   5.939  0.4062 -0.6355 -0.9242
10394SOL     OW36119   7.787   6.097   3.124  0.4709  0.2926  0.4618
10394SOL    HW136120   7.797   6.112   3.030  1.2694  0.7338  0.6121
10394SOL    HW236121   7.759   6.182   3.159  2.1997  0.7165  0.9045
10395SOL     OW36122   8.730   3.573   8.523  0.0983  0.5934 -0.6899
10395SOL    HW136123   8.685   3.646   8.565  0.3022 -0.6196  1.8672
10395SOL    HW236124   8.821   3.581   8.552  0.2021 -0.4382 -0.6782
10396SOL     OW36125   4.936   0.356   6.245 -0.0520  0.5593  0.3160
10396SOL    HW136126   5.027   0.332   6.229  0.2181  0.7092  1.5640
10396SOL    HW236127   4.888   0.274   6.236  0.6506 -0.2218  2.8603
10397SOL     OW36128   2.591   1.762   5.941 -0.2186 -0.3386 -0.2489
10397SOL    HW136129   2.590   1.673   5.977  0.6208 -0.0495  0.5109
10397SOL    HW236130   2.605   1.818   6.017  2.8123  0.2309 -1.1234
10398SOL     OW36131   6.812   9.524   1.293  0.6144  0.1933  0.0577
10398SOL    HW136132   6.824   9.618   1.277 -1.5528  0.3928 -0.7069
10398SOL    HW236133   6.806   9.517   1.388 -0.3177  1.0167  0.0827
10399SOL     OW36134   7.347   5.139   4.382  0.7010  0.2611  0.1533
10399SOL    HW136135   7.293   5.097   4.449  0.8122  0.0469  0.1123
10399SOL    HW236136   7.363   5.227   4.414  0.9442  0.0856  0.5178
10400SOL     OW36137  10.474   4.561   1.430 -0.3668  0.6043 -0.0991
10400SOL    HW136138  10.396   4.617   1.431 -0.1635  0.8839  0.1565
10400SOL    HW236139  10.508   4.570   1.341  0.0973  1.5002  0.1521
10401SOL     OW36140   5.999  11.629   6.040 -0.4575  0.4706  0.3241
10401SOL    HW136141   6.021  11.718   6.012  0.2387 -0.1291 -1.1229
10401SOL    HW236142   5.999  11.634   6.135  0.7116  1.7573  0.2931
10402SOL     OW36143   1.791   6.362   3.885  0.9411  0.6898 -0.6516
10402SOL    HW136144   1.712   6.324   3.849  1.8537 -0.3723 -1.6061
10402SOL    HW236145   1.848   6.375   3.809  1.4314  2.0941 -0.0787
10403SOL     OW36146   6.872  11.171  11.104  0.5475 -0.0252 -0.4970
10403SOL    HW136147   6.824  11.192  11.184  2.2040 -1.3598  0.9256
10403SOL    HW236148   6.805  11.139  11.044 -0.6173  0.0770  0.6915
10404SOL     OW36149   9.442   4.919   4.202 -0.0739 -0.0609 -0.1578
10404SOL    HW136150   9.424   4.842   4.256 -0.5710  0.9336  1.1623
10404SOL    HW236151   9.538   4.929   4.206 -0.0043 -0.6358 -0.3766
10405SOL     OW36152   9.017   4.076   3.266  0.2167  0.1461 -0.8841
10405SOL    HW136153   9.043   4.148   3.324 -1.6798  0.6118 -0.5079
10405SOL    HW236154   9.098   4.034   3.240  1.1968  0.6575  1.1961
10406SOL     OW36155  10.480   2.769  11.382  0.1402 -0.1939 -0.4543
10406SOL    HW136156  10.451   2.856  11.353 -0.2592 -0.3314 -0.4735
10406SOL    HW236157  10.405   2.733  11.429  0.3555 -0.4727 -0.3188
10407SOL     OW36158   0.836   4.520   8.741 -0.5314  0.3746 -0.2057
10407SOL    HW136159   0.843   4.565   8.657  0.8095  0.7000  0.0559
10407SOL    HW236160   0.801   4.586   8.801  1.5677  1.1973  0.2125
10408SOL     OW36161  10.104   5.695   6.617  0.1188 -0.1426  0.4562
10408SOL    HW136162  10.017   5.708   6.578  1.4712  2.7679 -1.9258
10408SOL    HW236163  10.085   5.664   6.706 -3.5169  3.2622  1.1503
10409SOL     OW36164   9.832   9.465   0.481 -0.5924 -0.3030  1.0841
10409SOL    HW136165   9.769   9.518   0.531 -1.4539 -0.1787 -0.0819
10409SOL    HW236166   9.787   9.446   0.398  1.7425  1.7964 -0.8297
10410SOL     OW36167   0.860   8.993   4.300  0.3217  0.2184  0.1308
10410SOL    HW136168   0.892   8.915   4.345 -1.0884  0.1108  1.0075
10410SOL    HW236169   0.782   8.964   4.253  0.0755  0.9871  0.0448
10411SOL     OW36170   3.829   2.925   1.843 -0.1838 -0.1621  0.6348
10411SOL    HW136171   3.857   3.016   1.855 -2.9411  0.6268  1.6269
10411SOL    HW236172   3.859   2.880   1.922 -0.1843  0.2237  0.8544
10412SOL     OW36173   3.062   0.522   2.118  0.0025  0.1562 -0.0533
10412SOL    HW136174   3.128   0.572   2.070  0.7388  0.4053  1.1721
10412SOL    HW236175   2.980   0.541   2.073  0.5507  1.0041 -0.7229
10413SOL     OW36176   6.157  10.976   8.333 -0.0245  0.2882 -0.4914
10413SOL    HW136177   6.104  11.003   8.408  0.5291 -0.8641  0.3377
10413SOL    HW236178   6.246  11.003   8.357 -0.0488  1.2729 -1.4189
10414SOL     OW36179   5.289   6.694   5.643  0.1329 -0.7545 -0.0177
10414SOL    HW136180   5.193   6.687   5.649  0.2033 -0.4821  1.9784
10414SOL    HW236181   5.304   6.774   5.592 -0.7290  0.1314  1.0711
10415SOL     OW36182   6.205   2.541   3.428  0.1378 -0.2240 -0.3159
10415SOL    HW136183   6.296   2.524   3.404 -0.2107 -2.5560 -0.1827
10415SOL    HW236184   6.188   2.630   3.397  2.0758 -0.2204 -1.4925
10416SOL     OW36185   4.680   1.641   6.054  0.1222 -0.3997  0.0343
10416SOL    HW136186   4.726   1.707   6.002  1.4213  0.0841  1.7362
10416SOL    HW236187   4.589   1.649   6.026  0.5902  0.5918 -1.3543
10417SOL     OW36188   5.117   4.419   7.688  0.4125 -0.1465 -0.2540
10417SOL    HW136189   5.072   4.490   7.641  0.9928  0.2776 -0.1736
10417SOL    HW236190   5.062   4.342   7.672  0.4831  0.0290 -1.4614
10418SOL     OW36191   4.502   5.407   0.476  0.2210  0.3424 -0.1948
10418SOL    HW136192   4.490   5.381   0.568 -0.8100  2.1316  0.2054
10418SOL    HW236193   4.595   5.431   0.471  0.2042  0.5917  0.4848
10419SOL     OW36194   6.691   1.158  10.657 -0.0260 -0.1174  0.1999
10419SOL    HW136195   6.691   1.080  10.602  2.3191  0.4702 -0.7344
10419SOL    HW236196   6.782   1.167  10.686 -0.3908  1.8545  0.8740
10420SOL     OW36197  11.227   0.205   8.137 -0.0642  0.1929  0.5066
10420SOL    HW136198  11.139   0.213   8.101 -1.2911  0.5005  3.3548
10420SOL    HW236199  11.248   0.293   8.169  1.7387  0.3632 -0.9176
10421SOL     OW36200   3.747  11.176   2.793  0.0201 -0.3721 -0.2991
10421SOL    HW136201   3.783  11.152   2.708 -1.0952 -2.3674 -0.2629
10421SOL    HW236202   3.714  11.094   2.830  0.4648  0.4314  2.0787
10422SOL     OW36203   0.801   5.267   6.863  0.0647 -0.4775 -0.2172
10422SOL    HW136204   0.777   5.263   6.770 -0.2619 -3.3543 -0.0928
10422SOL    HW236205   0.733   5.321   6.903 -0.7580 -0.5962 -1.3972
10423SOL     OW36206   6.761  10.137  10.923 -0.1225  0.0507 -0.1384
10423SOL    HW136207   6.666  10.148  10.920  0.1468  3.1395 -1.6041
10423SOL    HW236208   6.789  10.189  10.998  0.4680 -0.0552 -0.2778
10424SOL     OW36209  11.500   3.824  10.484  0.2570 -0.1070  0.3693
10424SOL    HW136210  11.588   3.836  10.450  0.5252 -1.1404  0.6621
10424SOL    HW236211  11.495   3.884  10.559  0.5858  0.2020  0.1469
10425SOL     OW36212   8.921   6.118   7.549  0.2963 -0.2876  0.1326
10425SOL    HW136213   8.986   6.171   7.593  0.4270 -1.1875  1.0582
10425SOL    HW236214   8.956   6.105   7.461  1.3615 -0.7277  0.6072
10426SOL     OW36215  11.570   3.102   1.478 -0.1085  0.8199 -0.3611
10426SOL    HW136216  11.560   3.198   1.476 -2.2977  0.6546  0.0489
10426SOL    HW236217  11.578   3.078   1.386  0.9287  1.4207 -0.4430
10427SOL     OW36218  10.967   7.868   4.921 -0.2729 -0.1667  0.6132
10427SOL    HW136219  10.918   7.786   4.925 -2.1625  0.8783 -0.1350
10427SOL    HW236220  11.026   7.857   4.847 -1.9426 -0.1485 -0.7792
10428SOL     OW36221   3.727   4.132   8.197  0.1471  0.2686  0.4272
10428SOL    HW136222   3.810   4.174   8.219  0.5536  0.1610 -0.8189
10428SOL    HW236223   3.701   4.087   8.278  0.6410  1.3449  1.2144
10429SOL     OW36224   7.455  11.289   4.112  0.1908  0.2968  0.1126
10429SOL    HW136225   7.373  11.314   4.070 -0.4286 -2.6748 -0.6279
10429SOL    HW236226   7.434  11.212   4.164  2.8199 -1.8857 -1.7315
10430SOL     OW36227   6.325   8.450   2.624  0.6204 -0.2709  0.8576
10430SOL    HW136228   6.281   8.370   2.651 -0.7846  0.5365  1.0303
10430SOL    HW236229   6.272   8.521   2.660 -0.2459  0.8302 -2.2662
10431SOL     OW36230   4.351  11.444   0.161 -0.0563 -0.1545 -0.2879
10431SOL    HW136231   4.289  11.406   0.223 -0.3187 -1.0531 -1.0829
10431SOL    HW236232   4.329  11.537   0.160  0.7396  0.1323  1.8416
10432SOL     OW36233   7.502   7.767   3.025  0.5266 -0.1848  0.2362
10432SOL    HW136234   7.490   7.820   3.105  1.4948 -0.8498  0.8375
10432SOL    HW236235   7.594   7.742   3.027  0.0671 -1.9916  0.0289
10433SOL     OW36236   9.306   4.863   3.337  0.3759 -0.1277 -0.0674
10433SOL    HW136237   9.390   4.896   3.307 -0.5126  0.8816 -1.5225
10433SOL    HW236238   9.249   4.939   3.339 -0.3576 -0.6628  1.5843
10434SOL     OW36239   5.837   6.485   4.392 -0.1556 -0.3894 -0.2994
10434SOL    HW136240   5.826   6.520   4.481 -0.8996  2.3277 -1.3677
10434SOL    HW236241   5.763   6.425   4.381 -0.7345  0.1460  0.5338
10435SOL     OW36242   2.743   6.712  11.322  0.0933 -0.3908 -0.0131
10435SOL    HW136243   2.803   6.702  11.248 -1.1861 -1.0152 -0.9944
10435SOL    HW236244   2.718   6.804  11.319 -0.5421 -0.5789 -0.8414
10436SOL     OW36245   9.222  11.142   3.564 -0.6869 -0.0554  0.0701
10436SOL    HW136246   9.260  11.122   3.478 -1.2655 -0.8275 -0.0191
10436SOL    HW236247   9.294  11.132   3.625 -0.7120 -1.5409 -0.0943
10437SOL     OW36248   0.660   8.040  11.623 -0.8081  0.0255 -0.7170
10437SOL    HW136249   0.729   8.008  11.680  1.5857  1.5545 -2.5666
10437SOL    HW236250   0.612   8.104  11.676  1.8873  2.0645 -0.5331
10438SOL     OW36251   2.653   1.728   2.492 -0.4299  0.2205 -0.0047
10438SOL    HW136252   2.641   1.803   2.550  1.6394 -0.2457  1.1496
10438SOL    HW236253   2.655   1.765   2.404  2.2246  1.8633  0.6310
10439SOL     OW36254  11.573   3.376   4.081  0.3996 -0.8262 -0.2117
10439SOL    HW136255  11.638   3.386   4.011 -0.1386 -0.7987 -0.7093
10439SOL    HW236256  11.604   3.434   4.150 -1.1237  2.2898 -1.9382
10440SOL     OW36257   7.430   7.908  11.243  0.3284 -0.4599 -0.6153
10440SOL    HW136258   7.504   7.892  11.184 -0.5241  0.1424 -1.8864
10440SOL    HW236259   7.354   7.909  11.186 -0.6063 -0.4615  0.5988
10441SOL     OW36260   2.493   9.542   2.789 -0.6009  0.5843 -0.4484
10441SOL    HW136261   2.454   9.457   2.811 -1.6994  0.8752 -1.1573
10441SOL    HW236262   2.571   9.549   2.844  0.0415 -1.2936 -1.0730
10442SOL     OW36263  11.441  10.140   6.316  0.2572 -0.3940 -0.1269
10442SOL    HW136264  11.437  10.226   6.275 -1.6715  0.5127  1.7904
10442SOL    HW236265  11.489  10.154   6.398  0.1627 -1.2013  0.0810
10443SOL     OW36266   8.124   4.139   0.001 -0.3165  0.7317 -0.2845
10443SOL    HW136267   8.123   4.045  -0.019 -1.4080  0.6404  0.1292
10443SOL    HW236268   8.038   4.170  -0.027 -0.8322  1.1656  1.6332
10444SOL     OW36269   2.139  11.184   5.867 -0.2315  0.3859  0.5242
10444SOL    HW136270   2.106  11.134   5.793  0.8462 -0.0393  0.3159
10444SOL    HW236271   2.193  11.123   5.916  4.2956  2.0628 -1.7592
10445SOL     OW36272   0.441   8.758   0.841  0.3430  0.0017 -0.5861
10445SOL    HW136273   0.509   8.692   0.829  0.4372 -0.1584  0.6810
10445SOL    HW236274   0.490   8.840   0.854  0.4785 -0.4754  2.7461
10446SOL     OW36275   9.190   1.430   9.929 -0.0706  0.4551  0.1020
10446SOL    HW136276   9.213   1.367   9.861  1.9406  0.0217  1.1027
10446SOL    HW236277   9.104   1.402   9.960 -0.0764 -0.5887 -0.8127
10447SOL     OW36278   4.051   4.537   0.134 -0.4613  0.0254  0.0085
10447SOL    HW136279   4.135   4.536   0.181 -1.0001 -0.1036  1.0152
10447SOL    HW236280   3.991   4.491   0.193 -0.6864 -2.1587 -1.8217
10448SOL     OW36281   2.368  10.922  10.867  0.0423  0.0256  0.1458
10448SOL    HW136282   2.346  10.876  10.786  0.5092  2.8846 -1.7339
10448SOL    HW236283   2.455  10.890  10.890  0.1746 -0.3567 -0.8452
10449SOL     OW36284   7.367   5.486   8.237  0.8883  0.3531 -0.0192
10449SOL    HW136285   7.427   5.456   8.169  0.2510  0.3918 -0.6093
10449SOL    HW236286   7.378   5.581   8.239  0.6053  0.3932 -0.3580
10450SOL     OW36287   6.387  11.287  10.473  0.1608 -0.1891  0.6225
10450SOL    HW136288   6.445  11.221  10.435  0.1660 -0.9807  1.9661
10450SOL    HW236289   6.411  11.368  10.427  1.5558 -0.7083  0.3672
10451SOL     OW36290  10.958   6.692   5.587  0.2725  0.3569  0.6444
10451SOL    HW136291  10.914   6.722   5.508 -0.6640 -0.0284  1.0028
10451SOL    HW236292  11.030   6.754   5.600 -0.7892  1.6405  0.6066
10452SOL     OW36293   0.854   6.630   9.023 -0.3957 -0.3579  0.0924
10452SOL    HW136294   0.888   6.720   9.021 -0.7957 -0.2159 -0.8382
10452SOL    HW236295   0.762   6.640   9.046 -0.8295 -0.3845 -1.5152
10453SOL     OW36296   4.898   7.849   9.450 -0.0374  0.0337  0.2495
10453SOL    HW136297   4.833   7.845   9.520  0.1144  1.5635  0.5220
10453SOL    HW236298   4.934   7.761   9.446 -0.9684 -0.4224  1.2082
10454SOL     OW36299   5.747   4.153   6.781  0.2047  0.0283 -0.3360
10454SOL    HW136300   5.757   4.061   6.807 -0.1974 -0.3813 -1.5686
10454SOL    HW236301   5.794   4.202   6.849 -1.3693 -0.9184  1.5425
10455SOL     OW36302   2.473   5.871   6.197 -0.0091 -0.1477  0.6066
10455SOL    HW136303   2.381   5.848   6.207 -0.7906  1.8703 -1.0920
10455SOL    HW236304   2.511   5.860   6.284 -1.0508 -3.8897  0.7871
10456SOL     OW36305   4.345   9.941   4.011 -0.6526 -0.1998 -0.3096
10456SOL    HW136306   4.268   9.932   3.955 -0.1434 -1.1965 -0.8720
10456SOL    HW236307   4.309   9.971   4.095 -1.7631 -1.3482 -0.3294
10457SOL     OW36308   7.458  10.441   4.105 -0.3342  0.3416  0.6103
10457SOL    HW136309   7.424  10.385   4.036  0.9273  0.0037  0.2211
10457SOL    HW236310   7.552  10.422   4.106 -0.1159  1.3750  1.4678
10458SOL     OW36311  10.386   0.337   3.475  0.5164 -0.5504  0.0890
10458SOL    HW136312  10.352   0.321   3.563  1.4366 -0.4084  0.4844
10458SOL    HW236313  10.408   0.431   3.476 -0.7222 -0.2286 -0.7445
10459SOL     OW36314   6.583   2.759  11.464 -0.4357 -0.3486  0.7424
10459SOL    HW136315   6.488   2.755  11.455 -0.4105 -1.5698  0.8259
10459SOL    HW236316   6.616   2.703  11.393  0.2040 -0.2477  0.9500
10460SOL     OW36317   1.600   9.309   1.833  0.0270 -0.5831 -0.7210
10460SOL    HW136318   1.626   9.401   1.823  0.2680 -0.7482 -1.7019
10460SOL    HW236319   1.683   9.261   1.836 -0.1085 -0.8751 -1.4102
10461SOL     OW36320   7.483   5.280   0.293 -0.5801  0.1770  0.6095
10461SOL    HW136321   7.541   5.290   0.217 -0.7575 -0.9582  0.3032
10461SOL    HW236322   7.539   5.292   0.369 -0.4029  1.3606  0.3180
10462SOL     OW36323   5.836   7.554   1.772 -0.2542 -0.5520 -0.1764
10462SOL    HW136324   5.832   7.621   1.704  1.3583 -1.5103 -1.2835
10462SOL    HW236325   5.920   7.570   1.816 -0.7715 -0.6320  0.8733
10463SOL     OW36326  10.510   9.267   8.365  0.0486 -0.1643 -0.4674
10463SOL    HW136327  10.452   9.298   8.435 -1.3160 -1.5046 -0.9354
10463SOL    HW236328  10.454   9.209   8.312  1.1252  0.5325 -2.4728
10464SOL     OW36329   2.855  10.507   4.960 -0.0754 -0.8735  0.1891
10464SOL    HW136330   2.848  10.504   5.055 -0.8098  2.4468  0.3865
10464SOL    HW236331   2.764  10.506   4.930 -0.0348  1.1495 -0.1775
10465SOL     OW36332   9.322   0.405  10.184  0.4715 -0.3391 -0.2945
10465SOL    HW136333   9.265   0.439  10.115  0.3842 -0.9202 -0.5178
10465SOL    HW236334   9.337   0.313  10.160 -0.0376 -0.7234  0.7566
10466SOL     OW36335   2.451   3.745  10.947 -1.2473 -0.8307  0.5379
10466SOL    HW136336   2.418   3.777  10.863 -0.7009 -0.3131  0.5050
10466SOL    HW236337   2.382   3.765  11.010 -0.6860  1.0653  0.6338
10467SOL     OW36338   6.275   8.481   8.463  0.6539  0.0191 -0.3778
10467SOL    HW136339   6.277   8.416   8.393 -0.7642 -0.8843  0.3944
10467SOL    HW236340   6.296   8.432   8.542  0.1831  0.6286  0.1315
10468SOL     OW36341   1.436  10.456   2.923  0.1559  0.0991 -0.3075
10468SOL    HW136342   1.500  10.421   2.986 -0.3731  2.3201  1.6218
10468SOL    HW236343   1.379  10.382   2.904  1.9779 -1.3656 -0.3762
10469SOL     OW36344   7.222   9.736   9.908  0.1253  0.1053 -0.7829
10469SOL    HW136345   7.291   9.712   9.969 -0.6857  0.3590  0.2656
10469SOL    HW236346   7.142   9.698   9.945 -0.8374  2.4400 -0.2491
10470SOL     OW36347   0.948   9.187   7.659  0.5166 -0.6238 -0.3702
10470SOL    HW136348   1.036   9.180   7.621  1.0459 -1.9277  1.0306
10470SOL    HW236349   0.918   9.097   7.667 -0.3645 -0.2651  0.5025
10471SOL     OW36350   7.434   1.213   8.943  0.1245 -0.2522 -0.4265
10471SOL    HW136351   7.352   1.249   8.908  0.0155  1.1634  1.1258
10471SOL    HW236352   7.406   1.158   9.016  0.5300  0.3448  0.1939
10472SOL     OW36353   0.540   3.306  11.009  0.9511  0.2386  0.0686
10472SOL    HW136354   0.626   3.309  10.967  1.2771  0.9349  0.7771
10472SOL    HW236355   0.523   3.396  11.036  0.4999 -0.0987  0.9446
10473SOL     OW36356  10.959   7.371   6.956  0.1423 -0.0963  0.0570
10473SOL    HW136357  10.896   7.309   6.921 -1.2448  0.5665  1.3026
10473SOL    HW236358  10.923   7.457   6.933  0.7864  0.2868  0.4566
10474SOL     OW36359   3.067  10.153   0.019  0.4070  0.1821 -0.2331
10474SOL    HW136360   3.149  10.169  -0.027  1.1232 -0.3496  0.8340
10474SOL    HW236361   3.085  10.175   0.110 -0.5418 -0.2585  0.0780
10475SOL     OW36362   8.939   9.697  10.677  0.4855 -0.3097 -0.0143
10475SOL    HW136363   8.924   9.776  10.624  1.7190 -0.3971 -0.5123
10475SOL    HW236364   8.999   9.725  10.746  0.3626 -0.6530  0.2384
10476SOL     OW36365  11.353   6.558   1.598  0.0631  0.3328  0.7411
10476SOL    HW136366  11.351   6.609   1.517  0.1459  0.3495  0.7492
10476SOL    HW236367  11.343   6.467   1.570 -0.9719  0.4272  0.7962
10477SOL     OW36368   1.646   9.057   9.737 -0.1006  0.1387  0.2049
10477SOL    HW136369   1.585   9.064   9.811  0.5613  0.5996  0.7274
10477SOL    HW236370   1.652   9.147   9.704  0.8954  0.2549  0.6679
10478SOL     OW36371   3.008   7.206   7.370  0.0327 -0.1291 -0.0788
10478SOL    HW136372   3.064   7.128   7.370 -0.5753 -0.5771  0.3342
10478SOL    HW236373   3.062   7.275   7.407  0.6358 -0.3155 -0.6080
10479SOL     OW36374   9.528   5.547  11.448 -0.6843 -0.4272 -0.3567
10479SOL    HW136375   9.546   5.459  11.416  0.2370 -0.5316  0.4179
10479SOL    HW236376   9.555   5.546  11.540  0.6538  1.0150 -0.6742
10480SOL     OW36377   1.364   2.468   4.759 -0.0287  0.0095 -0.5011
10480SOL    HW136378   1.354   2.539   4.695 -0.5951  0.6674  0.2988
10480SOL    HW236379   1.283   2.417   4.752  0.8430 -1.2768 -1.8861
10481SOL     OW36380   1.765   0.489   1.340 -0.3221 -0.4502 -0.5052
10481SOL    HW136381   1.701   0.419   1.324 -0.9895 -0.0560  0.3375
10481SOL    HW236382   1.732   0.533   1.418  0.2462  0.6288 -0.8591
10482SOL     OW36383   1.188   7.576  10.582 -0.0956 -0.0510 -0.0436
10482SOL    HW136384   1.148   7.663  10.576  1.6366  0.9180  1.5516
10482SOL    HW236385   1.129   7.526  10.639 -1.4992 -0.2315 -1.5652
10483SOL     OW36386   2.897   9.114   0.349 -0.1888 -0.0744 -0.3993
10483SOL    HW136387   2.916   9.115   0.443  1.4884  0.3282 -0.6980
10483SOL    HW236388   2.867   9.025   0.331 -1.6869  0.1802  0.7022
10484SOL     OW36389   4.365   5.502   8.756 -0.5458 -0.0077 -0.5883
10484SOL    HW136390   4.313   5.524   8.833 -3.5930 -1.6457 -1.9406
10484SOL    HW236391   4.357   5.407   8.748  2.1386 -0.2516 -1.3597
10485SOL     OW36392  10.584   5.310  10.588 -0.1342  0.2459  0.0353
10485SOL    HW136393  10.516   5.299  10.654 -0.3316  2.5791  0.3073
10485SOL    HW236394  10.537   5.323  10.506  0.0730 -0.6361 -0.2391
10486SOL     OW36395   3.336   5.784   8.587 -0.0016  0.0823  0.0700
10486SOL    HW136396   3.399   5.760   8.519 -0.4688 -0.3098 -0.2374
10486SOL    HW236397   3.274   5.841   8.542  0.4329  0.9016  0.5064
10487SOL     OW36398   7.582   7.776   4.972  0.1117 -0.0137 -0.1185
10487SOL    HW136399   7.545   7.842   4.914  0.5716 -1.1738 -1.8015
10487SOL    HW236400   7.662   7.816   5.006 -0.3509  0.8140  0.0199
10488SOL     OW36401   5.399  10.818   0.538  0.0124 -0.5059  0.7267
10488SOL    HW136402   5.434  10.747   0.483 -2.0487 -1.3745  0.4386
10488SOL    HW236403   5.313  10.786   0.565  0.0145  0.9272  2.5473
10489SOL     OW36404   0.578   4.110   4.774 -0.1940 -0.3936 -0.5203
10489SOL    HW136405   0.508   4.167   4.804 -1.2152 -1.7818 -0.1381
10489SOL    HW236406   0.643   4.111   4.844 -1.9642 -2.6085  1.3201
10490SOL     OW36407   9.520   4.960   3.038 -0.5026 -0.5304 -0.2290
10490SOL    HW136408   9.498   5.010   3.116 -0.5564  0.0867 -0.6337
10490SOL    HW236409   9.580   4.892   3.069 -0.5211 -0.2931  0.3434
10491SOL     OW36410   9.302  10.763   9.719 -0.4409 -0.1650 -0.4007
10491SOL    HW136411   9.284  10.834   9.782 -0.0670  1.1042 -1.6722
10491SOL    HW236412   9.325  10.688   9.774 -0.8373  0.6865  0.9956
10492SOL     OW36413  10.133   3.196  10.261 -0.2861 -0.1291  0.0911
10492SOL    HW136414  10.110   3.288  10.255 -2.8240 -0.6926  0.2233
10492SOL    HW236415  10.052   3.149  10.242  0.7714 -2.3304  0.6513
10493SOL     OW36416   5.413   2.136   0.357 -0.4016 -0.3822  0.2720
10493SOL    HW136417   5.353   2.078   0.313 -1.2839  0.8352 -0.1888
10493SOL    HW236418   5.484   2.150   0.295 -1.0501  0.3833 -0.3164
10494SOL     OW36419   5.853   7.840   4.444  0.2958  0.3898 -0.2393
10494SOL    HW136420   5.901   7.818   4.523 -0.7553 -1.0209  0.0448
10494SOL    HW236421   5.761   7.840   4.470 -0.1694 -1.2266 -1.6567
10495SOL     OW36422   1.194   5.873   4.491 -0.3533 -0.2275 -0.0356
10495SOL    HW136423   1.145   5.828   4.423  0.7695  0.0097 -1.0353
10495SOL    HW236424   1.237   5.803   4.541  0.4231 -0.3322 -0.8332
10496SOL     OW36425   7.748   9.443  10.256  0.3487 -0.1510  0.3489
10496SOL    HW136426   7.724   9.518  10.311  2.2333  0.2140  0.7477
10496SOL    HW236427   7.769   9.373  10.319  1.3181 -0.1153  0.0843
10497SOL     OW36428   0.342  10.686   0.797 -0.5384 -0.7402 -0.3376
10497SOL    HW136429   0.255  10.715   0.770 -0.3805  0.4963  0.4110
10497SOL    HW236430   0.402  10.722   0.732 -0.4655 -0.5090 -0.1436
10498SOL     OW36431   5.951   5.785   9.902  0.0789 -0.5093 -0.3259
10498SOL    HW136432   5.949   5.695   9.932  0.9351 -0.2562  0.5430
10498SOL    HW236433   5.992   5.781   9.815  0.9530 -0.8699  0.0901
10499SOL     OW36434   3.515   6.395   2.434  1.8395 -0.6480 -0.2142
10499SOL    HW136435   3.462   6.382   2.512 -0.0337  3.9183 -0.4585
10499SOL    HW236436   3.457   6.372   2.361  2.1083 -0.7811 -0.3894
10500SOL     OW36437   0.504   9.505   7.333  0.3787 -0.3418  0.5894
10500SOL    HW136438   0.512   9.480   7.425  0.6414  1.2665  1.0379
10500SOL    HW236439   0.588   9.544   7.311  0.5119 -1.2071 -0.5232
10501SOL     OW36440   2.552   4.218  11.655 -0.8033 -0.1704  0.0253
10501SOL    HW136441   2.617   4.185  11.594 -1.4969 -1.6370  0.0379
10501SOL    HW236442   2.582   4.189  11.741  0.2879  2.0749  0.4754
10502SOL     OW36443  11.448   9.684   3.893 -0.0693 -0.2491  0.3948
10502SOL    HW136444  11.352   9.682   3.888 -0.0547  0.4941 -0.5374
10502SOL    HW236445  11.477   9.667   3.803  0.7033 -1.4020  0.8380
10503SOL     OW36446   6.245   4.396  10.056 -0.0453  0.6934 -0.1790
10503SOL    HW136447   6.288   4.383  10.141  0.3564 -1.5047 -0.6433
10503SOL    HW236448   6.291   4.470  10.016  2.9431 -1.1107 -0.3707
10504SOL     OW36449   1.530   0.390   4.508 -0.6990  0.3977  0.3383
10504SOL    HW136450   1.602   0.454   4.507  0.2260 -0.6072  0.7050
10504SOL    HW236451   1.506   0.379   4.416 -0.7963  1.1752  0.2608
10505SOL     OW36452   0.490   3.971   4.143 -0.4821  0.5512  0.3413
10505SOL    HW136453   0.470   3.970   4.049 -1.6001 -0.3628  0.5786
10505SOL    HW236454   0.585   3.958   4.147 -0.4877  0.1091 -0.6511
10506SOL     OW36455   2.029   0.744   6.482  0.1934 -0.1331 -0.5108
10506SOL    HW136456   1.966   0.808   6.449 -1.2414 -1.1191  0.2048
10506SOL    HW236457   2.024   0.754   6.578 -0.3210 -1.5308 -0.3752
10507SOL     OW36458   4.227  11.469   0.664 -0.2996 -0.5479 -0.0143
10507SOL    HW136459   4.186  11.555   0.674 -0.8114 -0.8376  0.4180
10507SOL    HW236460   4.318  11.482   0.691 -0.1207  0.0747 -0.8753
10508SOL     OW36461   3.471   8.236   5.309 -0.1600  0.0422 -0.1646
10508SOL    HW136462   3.533   8.163   5.309 -0.2275 -0.0933 -2.4398
10508SOL    HW236463   3.386   8.195   5.288 -0.6122  0.5052  0.7328
10509SOL     OW36464   3.341   8.810   8.083  0.0425  0.1022 -0.2871
10509SOL    HW136465   3.412   8.752   8.058  1.1997  1.0078  0.7940
10509SOL    HW236466   3.381   8.874   8.142 -1.7422  0.3787  0.7126
10510SOL     OW36467   0.279   2.718   1.393 -0.4108 -0.0475  0.0377
10510SOL    HW136468   0.242   2.750   1.311  0.0855  1.9690  0.5277
10510SOL    HW236469   0.211   2.735   1.459 -0.2737 -0.3409  0.2594
10511SOL     OW36470  10.884   8.415   0.489  0.1418 -0.2671  0.2143
10511SOL    HW136471  10.928   8.484   0.538 -0.1251 -1.3286  2.0654
10511SOL    HW236472  10.823   8.376   0.552 -1.0154 -1.0210 -1.3036
10512SOL     OW36473   0.871   8.609   4.882 -0.2405 -0.0193  0.3618
10512SOL    HW136474   0.883   8.514   4.887 -0.8954 -0.1741 -0.5804
10512SOL    HW236475   0.922   8.636   4.806 -1.0927  0.1696 -0.1650
10513SOL     OW36476   7.141  10.089  10.059 -0.5718  0.1286  0.6057
10513SOL    HW136477   7.212  10.027  10.047  0.4968  1.2623  0.8265
10513SOL    HW236478   7.128  10.093  10.154  0.2695  1.2034  0.6867
10514SOL     OW36479   1.693   4.280   4.245  0.2625 -0.4493  0.0058
10514SOL    HW136480   1.686   4.214   4.176 -3.0723 -1.1459  0.8217
10514SOL    HW236481   1.673   4.233   4.326  0.9224  0.9766  1.0427
10515SOL     OW36482   5.556   6.805   6.428 -0.3637 -0.6969  0.1356
10515SOL    HW136483   5.545   6.796   6.334 -2.2927 -0.6168  0.3233
10515SOL    HW236484   5.512   6.729   6.465 -2.1839  0.7424  1.0589
10516SOL     OW36485   7.034   8.253   6.805  0.4290  0.1693  0.2378
10516SOL    HW136486   7.095   8.310   6.852  0.2894 -1.1236  2.0898
10516SOL    HW236487   6.948   8.293   6.820  0.3949 -0.1932  1.0327
10517SOL     OW36488   0.554   0.871   3.515  0.1168 -0.2578  0.0823
10517SOL    HW136489   0.594   0.929   3.451  0.8201  1.3608  1.8814
10517SOL    HW236490   0.620   0.802   3.529  1.1124  0.8133  0.9119
10518SOL     OW36491   5.317   6.682   6.896 -0.3618 -0.1102 -0.1933
10518SOL    HW136492   5.298   6.591   6.875  1.8577 -0.3340 -1.4748
10518SOL    HW236493   5.354   6.679   6.984 -2.2430 -0.1256  0.6569
10519SOL     OW36494   4.730   1.100   8.365 -0.1129 -0.2641  0.3496
10519SOL    HW136495   4.812   1.139   8.398 -0.2115  0.2022  0.0511
10519SOL    HW236496   4.745   1.006   8.371  0.9267 -0.1983 -0.8636
10520SOL     OW36497   1.389   4.422   4.498 -0.4648  0.0137 -0.2244
10520SOL    HW136498   1.362   4.465   4.579  1.1966 -0.1979  0.4716
10520SOL    HW236499   1.431   4.490   4.447 -0.9757  0.0079 -0.6552
10521SOL     OW36500  11.347   4.545   3.629  0.5941 -0.0222  0.4415
10521SOL    HW136501  11.415   4.548   3.561  0.6689 -1.1083  0.4550
10521SOL    HW236502  11.392   4.509   3.705 -0.0850 -1.1348  0.3302
10522SOL     OW36503   9.613  11.412   1.496 -0.1981  0.2357 -0.2961
10522SOL    HW136504   9.701  11.449   1.502  0.4828 -1.1649 -1.2636
10522SOL    HW236505   9.612  11.364   1.414 -2.0914  0.7371 -0.6217
10523SOL     OW36506   1.268   0.186   6.966  0.1963 -0.2053 -0.7097
10523SOL    HW136507   1.268   0.168   7.060 -0.2312 -0.1000 -0.6895
10523SOL    HW236508   1.194   0.135   6.932  0.3953 -0.3035 -0.9994
10524SOL     OW36509  10.119   4.651   1.653  0.0787  0.1131 -0.5419
10524SOL    HW136510  10.157   4.646   1.741 -0.5512  0.9734 -0.1964
10524SOL    HW236511  10.044   4.592   1.656 -0.9225  1.3436  0.0578
10525SOL     OW36512   2.594  10.164   5.835  0.4481  0.4353  0.5643
10525SOL    HW136513   2.627  10.095   5.892  1.0138  0.0428 -0.2319
10525SOL    HW236514   2.539  10.119   5.771 -1.6463  1.0532  1.8072
10526SOL     OW36515   9.219   4.094   9.732 -0.0300  0.0924  0.2301
10526SOL    HW136516   9.163   4.152   9.680  1.4024  1.2011 -0.1558
10526SOL    HW236517   9.191   4.006   9.708 -3.0554  0.5359  1.6912
10527SOL     OW36518  11.182   7.883  10.462  0.2649  0.2883 -0.2755
10527SOL    HW136519  11.098   7.921  10.487  0.5792  0.0313  1.2699
10527SOL    HW236520  11.167   7.788  10.465 -0.2782  0.1712 -3.2808
10528SOL     OW36521   5.706   8.423   9.558 -0.0482 -0.3918  0.5144
10528SOL    HW136522   5.661   8.402   9.640 -1.0008  1.2010  0.4223
10528SOL    HW236523   5.663   8.502   9.525  0.5546 -0.7749 -1.3462
10529SOL     OW36524   2.208  10.980   6.341 -0.7072 -0.5478  0.2735
10529SOL    HW136525   2.300  11.003   6.326 -0.4774 -0.5170  1.6294
10529SOL    HW236526   2.169  10.978   6.253  0.5241 -0.3125 -0.2955
10530SOL     OW36527   9.208   1.434   3.444 -0.3775  0.1524 -0.4229
10530SOL    HW136528   9.285   1.473   3.485 -0.1125  1.9227 -2.4234
10530SOL    HW236529   9.134   1.472   3.491 -0.1066 -1.6123  1.5554
10531SOL     OW36530   5.795   7.839   9.855  0.1388 -0.1933 -0.6020
10531SOL    HW136531   5.785   7.872   9.766 -0.8421 -0.7345 -0.7077
10531SOL    HW236532   5.711   7.857   9.897  0.3785 -0.5045  0.0297
10532SOL     OW36533   8.647   3.158   7.168  0.1555  0.2827 -0.6152
10532SOL    HW136534   8.666   3.250   7.151 -1.3507  0.6426 -0.5675
10532SOL    HW236535   8.592   3.132   7.094 -0.0701 -0.3478 -0.2269
10533SOL     OW36536   3.227   7.349   4.836 -0.3654  0.3003  0.1026
10533SOL    HW136537   3.217   7.398   4.755  1.7583 -2.2639 -1.8929
10533SOL    HW236538   3.292   7.399   4.886 -0.2987  0.9677 -0.6341
10534SOL     OW36539   5.158  10.496   6.152  0.1753 -0.1092 -0.0062
10534SOL    HW136540   5.184  10.437   6.081 -0.5565  0.9648 -1.2311
10534SOL    HW236541   5.149  10.440   6.229  1.9393 -1.1647 -0.5112
10535SOL     OW36542   2.157   8.214   2.536  0.0436  0.1666 -0.2071
10535SOL    HW136543   2.248   8.226   2.508 -0.1939  0.9038 -0.7002
10535SOL    HW236544   2.144   8.281   2.603 -0.9447  2.0676 -2.1411
10536SOL     OW36545   4.352   1.159   3.403 -0.5224 -0.4718 -0.1263
10536SOL    HW136546   4.368   1.245   3.444 -1.7974 -0.8612  1.2731
10536SOL    HW236547   4.395   1.097   3.461  0.2438 -0.8257 -1.0470
10537SOL     OW36548   7.487   9.431   0.866  0.2741 -0.0375  0.5351
10537SOL    HW136549   7.472   9.517   0.903  0.2600  0.1340  0.1304
10537SOL    HW236550   7.408   9.410   0.817  1.2137  0.7841 -1.4247
10538SOL     OW36551   4.643   4.408   4.692 -0.0392 -0.0635 -0.1936
10538SOL    HW136552   4.665   4.381   4.603  1.7802 -1.1073  0.5237
10538SOL    HW236553   4.696   4.351   4.748 -1.9671 -0.1792  1.6053
10539SOL     OW36554   7.962   3.477   7.442  0.1738  0.2633  0.5058
10539SOL    HW136555   7.872   3.467   7.410  0.1202  1.7637  0.1265
10539SOL    HW236556   7.971   3.570   7.462  1.8693  0.2783 -0.1370
10540SOL     OW36557   9.040   6.832   4.008  0.4571 -0.3269 -0.4231
10540SOL    HW136558   9.009   6.920   3.986 -0.8405  0.0202  2.4183
10540SOL    HW236559   8.961   6.779   4.011  1.0276 -1.1734 -0.2536
10541SOL     OW36560   2.589  10.510   7.919  0.2782  0.6319 -0.4925
10541SOL    HW136561   2.521  10.505   7.851 -1.5440 -0.8441  1.3268
10541SOL    HW236562   2.620  10.420   7.929 -0.4811  0.5495  1.5468
10542SOL     OW36563   2.788   0.230   9.267 -0.4691 -0.3456 -0.1856
10542SOL    HW136564   2.800   0.192   9.354 -0.1722 -1.7977 -0.8328
10542SOL    HW236565   2.840   0.176   9.209 -0.2366  0.9254 -1.2174
10543SOL     OW36566   7.702   1.153   0.730 -0.5289 -0.0682 -0.4208
10543SOL    HW136567   7.759   1.154   0.654 -1.0877  0.4022 -0.8427
10543SOL    HW236568   7.757   1.119   0.801 -0.3543 -1.7769 -1.3121
10544SOL     OW36569   8.111   5.255   7.246  0.5112 -0.1077 -0.5565
10544SOL    HW136570   8.095   5.226   7.156  0.6864  1.9162 -1.2986
10544SOL    HW236571   8.177   5.324   7.237 -0.1350  0.7600  1.0268
10545SOL     OW36572   3.378   1.572   0.909 -0.2715 -0.2933  0.1603
10545SOL    HW136573   3.315   1.522   0.856  0.7491 -0.4949 -0.9013
10545SOL    HW236574   3.406   1.511   0.977 -0.9450 -0.3177  0.4277
10546SOL     OW36575   3.035   5.860   2.118  0.5792  0.9173 -0.6572
10546SOL    HW136576   2.957   5.871   2.173  0.0265 -2.4879 -0.5825
10546SOL    HW236577   3.103   5.831   2.179  0.6543 -0.4683 -1.3857
10547SOL     OW36578   2.827   7.483   0.868  0.0701  0.3703  0.4208
10547SOL    HW136579   2.799   7.557   0.815 -1.3498 -1.1290 -1.0797
10547SOL    HW236580   2.900   7.445   0.820  0.6213  0.6275  1.0413
10548SOL     OW36581   4.728   0.903   8.827  0.1547 -0.2139  0.5683
10548SOL    HW136582   4.815   0.889   8.790 -0.4053 -0.5213 -0.6586
10548SOL    HW236583   4.713   0.997   8.817 -0.3173 -0.4129 -0.7572
10549SOL     OW36584   4.308   1.472   7.289 -0.0481  0.2493  0.1672
10549SOL    HW136585   4.389   1.476   7.340 -0.1292 -0.1441  0.3350
10549SOL    HW236586   4.247   1.527   7.337  0.2614  0.9597 -0.2344
10550SOL     OW36587   3.763   1.719   9.008 -0.0363  0.2358  0.1864
10550SOL    HW136588   3.769   1.680   8.921  0.4652 -0.2777  0.4444
10550SOL    HW236589   3.679   1.688   9.042  0.1297 -0.2229  0.1913
10551SOL     OW36590   2.087   0.530   7.134 -0.0204  0.3613  0.3169
10551SOL    HW136591   2.127   0.448   7.164 -1.4047  0.1190  1.6453
10551SOL    HW236592   2.002   0.504   7.099 -0.6417  1.2450  1.1175
10552SOL     OW36593   6.382   1.704  10.213 -0.3822  0.2147  0.4761
10552SOL    HW136594   6.325   1.729  10.286 -0.3995 -0.3507  0.6625
10552SOL    HW236595   6.374   1.609  10.208 -1.1850  0.3331 -0.9254
10553SOL     OW36596  11.466   9.079  11.253  0.0168  0.6962  0.4574
10553SOL    HW136597  11.374   9.097  11.237 -0.0768  0.3580  0.6063
10553SOL    HW236598  11.498   9.042  11.171  0.1258  1.2015  0.2657
10554SOL     OW36599   6.588   8.236   5.166 -0.2190  0.1983  0.0665
10554SOL    HW136600   6.496   8.259   5.154 -0.8085 -1.3226  1.3387
10554SOL    HW236601   6.596   8.218   5.260  1.3140  0.0580 -0.0687
10555SOL     OW36602   4.510  10.148   8.874  0.0682 -0.0925  0.3378
10555SOL    HW136603   4.603  10.172   8.872 -0.4325  2.1729  0.7358
10555SOL    HW236604   4.490  10.138   8.967 -0.2818  0.3385  0.3117
10556SOL     OW36605  10.787   8.823   0.007  0.0178 -0.8279  0.0707
10556SOL    HW136606  10.842   8.891   0.045 -0.1289 -0.5090 -0.2819
10556SOL    HW236607  10.754   8.861  -0.075  0.6827 -1.6607 -0.6033
10557SOL     OW36608   3.395  11.081   5.390 -0.1892  0.0588  1.3098
10557SOL    HW136609   3.399  11.112   5.300 -2.7226  0.4608  1.2619
10557SOL    HW236610   3.406  11.160   5.443  0.4568 -0.0506  1.3416
10558SOL     OW36611   1.413   5.603   0.505  0.0619 -0.1133 -0.0235
10558SOL    HW136612   1.456   5.523   0.536 -1.6579 -1.8974 -1.9608
10558SOL    HW236613   1.475   5.641   0.443  0.3090 -0.7258 -0.1564
10559SOL     OW36614   2.811   3.117   1.576  0.7776 -0.4468  0.0497
10559SOL    HW136615   2.737   3.145   1.523  1.1398 -0.0520 -0.2576
10559SOL    HW236616   2.888   3.151   1.530  1.1677 -1.0351  0.2421
10560SOL     OW36617  11.533   6.920   6.417 -0.5163 -0.0672 -0.1322
10560SOL    HW136618  11.626   6.940   6.415 -0.1843 -0.8803  2.4393
10560SOL    HW236619  11.529   6.827   6.441 -1.9094  0.4463  1.9964
10561SOL     OW36620   0.721   5.354   8.535 -0.5684 -0.0383  0.8786
10561SOL    HW136621   0.671   5.432   8.509 -0.8558 -0.7331 -0.8389
10561SOL    HW236622   0.809   5.370   8.502 -1.2013 -1.4172 -1.8680
10562SOL     OW36623   0.426   8.253   7.498 -0.0161  0.6705  0.2786
10562SOL    HW136624   0.348   8.202   7.473  0.2648 -0.2435  1.1971
10562SOL    HW236625   0.399   8.344   7.487 -0.7051  0.3534 -0.9138
10563SOL     OW36626   6.037   1.655   0.280  0.0353  0.5099 -0.2845
10563SOL    HW136627   6.048   1.729   0.220  1.7205 -0.9067 -1.8403
10563SOL    HW236628   5.952   1.617   0.257  0.4796  0.2361 -1.4927
10564SOL     OW36629   9.086   4.955  10.867  0.1984  0.4441  0.1970
10564SOL    HW136630   9.150   5.022  10.845 -0.9391  1.6238  0.3341
10564SOL    HW236631   9.023   5.000  10.924 -0.2144 -0.9268  0.8692
10565SOL     OW36632   6.657   0.022   7.822  0.5402  0.0299  0.5708
10565SOL    HW136633   6.631  -0.028   7.744 -0.1810 -1.3176  1.6301
10565SOL    HW236634   6.752   0.013   7.826  0.6041  0.2819 -0.2576
10566SOL     OW36635   2.548   2.940   0.090  0.0690  0.0073 -0.8214
10566SOL    HW136636   2.594   2.973   0.013  1.7471  1.9988  0.9018
10566SOL    HW236637   2.493   3.013   0.118  1.7587  0.4728  1.5159
10567SOL     OW36638   5.286   9.436   6.114  0.1340 -0.5522 -0.4945
10567SOL    HW136639   5.238   9.491   6.176 -1.0336 -2.1334  0.0662
10567SOL    HW236640   5.378   9.447   6.139 -0.1069  0.7903 -0.1245
10568SOL     OW36641   5.328   0.044   7.691 -0.1066  0.4124 -0.5232
10568SOL    HW136642   5.283  -0.000   7.619  0.7161 -0.5651 -0.4552
10568SOL    HW236643   5.315   0.137   7.674 -1.5613  0.1776 -0.8770
10569SOL     OW36644   0.029   7.310   2.105 -0.0682 -0.6181 -0.5024
10569SOL    HW136645   0.052   7.217   2.097  1.6902 -0.1801 -0.8981
10569SOL    HW236646  -0.012   7.317   2.191 -0.0434 -1.7359 -0.3839
10570SOL     OW36647   6.019   9.964   7.091  0.2261 -0.4688 -0.1461
10570SOL    HW136648   6.013  10.009   7.176  2.1994 -0.0196 -0.2153
10570SOL    HW236649   5.928   9.942   7.070 -0.4878  0.9007  1.2837
10571SOL     OW36650   9.255   9.502   6.882  0.0823 -0.4618  0.2028
10571SOL    HW136651   9.220   9.446   6.813 -2.9014  0.3516  0.9305
10571SOL    HW236652   9.254   9.446   6.960 -0.9482 -0.0310  0.5081
10572SOL     OW36653   0.555   8.545   6.709 -0.3615  0.1883  0.0125
10572SOL    HW136654   0.546   8.517   6.618 -2.9009  2.5680 -0.6070
10572SOL    HW236655   0.481   8.505   6.754 -0.1783  0.4895  0.5962
10573SOL     OW36656   9.137   2.196   2.278  0.1620  0.1244 -0.1448
10573SOL    HW136657   9.163   2.105   2.295 -0.7564  0.1239  1.5287
10573SOL    HW236658   9.200   2.227   2.213  1.0647 -1.4236 -0.0732
10574SOL     OW36659   6.181   6.979   2.536  0.5827  0.0032 -0.1561
10574SOL    HW136660   6.107   6.931   2.497 -0.4126  0.7599  0.7626
10574SOL    HW236661   6.236   6.911   2.575 -0.2064 -0.4936  0.1078
10575SOL     OW36662   6.960   4.189   5.581 -0.0744 -0.1040  0.0475
10575SOL    HW136663   6.866   4.169   5.584  0.0703 -0.7305  0.3439
10575SOL    HW236664   7.003   4.104   5.589  0.5087 -0.1062 -2.3101
10576SOL     OW36665   7.590   6.636   0.032 -0.0307 -0.2233  0.0320
10576SOL    HW136666   7.566   6.728   0.020 -1.1178 -0.3237  1.2593
10576SOL    HW236667   7.507   6.592   0.051  0.7023 -1.1618  1.1454
10577SOL     OW36668   7.257   7.667   8.904  0.6261  0.0952  0.1203
10577SOL    HW136669   7.232   7.596   8.964  0.1967 -1.5276 -1.8568
10577SOL    HW236670   7.318   7.721   8.955 -0.3699 -0.6818  2.2734
10578SOL     OW36671   5.884   4.333   6.236  0.5374  0.2418 -0.1721
10578SOL    HW136672   5.796   4.337   6.199 -0.9289 -0.1793  2.9381
10578SOL    HW236673   5.909   4.241   6.229 -0.4084 -0.1443  1.2249
10579SOL     OW36674   1.954   7.876   4.893 -0.1896  0.3225 -0.6373
10579SOL    HW136675   2.003   7.844   4.817 -0.4042 -0.0896 -0.6068
10579SOL    HW236676   1.862   7.863   4.869 -0.2949  1.2556 -0.7673
10580SOL     OW36677   1.295   0.378   3.857 -0.1487 -0.1086  0.2445
10580SOL    HW136678   1.348   0.454   3.831 -1.0196  0.3203 -0.3119
10580SOL    HW236679   1.298   0.320   3.782  0.2256 -0.4838  0.5401
10581SOL     OW36680   1.614  10.187   6.966  0.0360  0.6895 -0.5795
10581SOL    HW136681   1.530  10.233   6.963 -0.1652  0.6894  2.1231
10581SOL    HW236682   1.594  10.099   6.934 -0.5801  1.1545 -1.5449
10582SOL     OW36683   2.105   9.239   2.734  0.0785 -0.1720 -0.1082
10582SOL    HW136684   2.170   9.170   2.718  0.2649  0.3878 -2.0932
10582SOL    HW236685   2.025   9.205   2.695 -0.2245  0.0862  0.2930
10583SOL     OW36686   8.833   8.446  10.553  0.1694  0.1096 -0.4045
10583SOL    HW136687   8.807   8.385  10.621  0.0026  1.2188  0.5643
10583SOL    HW236688   8.851   8.528  10.600  0.3502  0.8172 -1.6548
10584SOL     OW36689   2.807   2.085   1.437 -0.3071 -0.2966 -0.8974
10584SOL    HW136690   2.825   2.094   1.343  1.9411  0.7103 -0.4426
10584SOL    HW236691   2.795   2.175   1.468  0.5265 -0.4820  0.0233
10585SOL     OW36692   4.978   9.374   9.643 -0.5544  0.1030  0.5328
10585SOL    HW136693   4.961   9.413   9.557 -0.2991  1.6423  1.1453
10585SOL    HW236694   5.044   9.431   9.682 -1.9880  0.4891  2.4787
10586SOL     OW36695   8.500   1.264   8.113  0.2743 -0.1721  0.1021
10586SOL    HW136696   8.485   1.280   8.206  0.5737 -0.8708  0.2800
10586SOL    HW236697   8.568   1.326   8.088  1.1416 -0.8674  0.6716
10587SOL     OW36698  11.589   3.424   9.761 -0.0540  0.2626  0.2734
10587SOL    HW136699  11.506   3.432   9.714  0.1627  0.2416 -0.1200
10587SOL    HW236700  11.634   3.506   9.744 -0.1455  0.4257  0.7922
10588SOL     OW36701   0.858   9.939   3.298 -0.3033 -0.6170 -0.0795
10588SOL    HW136702   0.812   9.918   3.379 -0.3756  1.4232  0.4572
10588SOL    HW236703   0.950   9.939   3.321 -0.3791  1.3310  0.4161
10589SOL     OW36704   6.982   3.224   6.074 -0.4476  0.0734  0.5673
10589SOL    HW136705   7.034   3.166   6.130  1.8920  2.2472  0.8147
10589SOL    HW236706   6.956   3.296   6.131 -1.4629  0.3518 -0.2248
10590SOL     OW36707   2.090   9.100   6.949 -0.0636 -0.1688 -0.1187
10590SOL    HW136708   2.025   9.057   6.892 -1.1981 -0.9105  1.6302
10590SOL    HW236709   2.044   9.111   7.032  2.1063 -0.8513  1.2502
10591SOL     OW36710  10.672  11.652   0.757 -0.0316 -0.4743 -0.4161
10591SOL    HW136711  10.628  11.574   0.723 -1.5252 -0.0421  0.4499
10591SOL    HW236712  10.743  11.668   0.695 -0.9827 -1.3162 -1.7806
10592SOL     OW36713   4.211   2.404  10.368 -0.2372  0.4146  0.3337
10592SOL    HW136714   4.206   2.496  10.396 -1.6027  0.3618  0.3662
10592SOL    HW236715   4.212   2.355  10.451 -0.7975  0.3733  0.3229
10593SOL     OW36716  10.522   2.105   0.747 -0.0561  0.5996  0.2105
10593SOL    HW136717  10.606   2.060   0.760  0.8971  2.0553 -0.6869
10593SOL    HW236718  10.458   2.034   0.745  1.4306 -0.8171 -1.5112
10594SOL     OW36719   1.673   4.529  10.519  0.0293  0.0564 -0.2034
10594SOL    HW136720   1.636   4.588  10.584  0.9591  2.9271 -2.0464
10594SOL    HW236721   1.732   4.472  10.568  0.6502  2.0508  1.5015
10595SOL     OW36722   4.247   1.066   7.376 -0.0767  0.2525 -0.1859
10595SOL    HW136723   4.173   1.121   7.401  0.0212  0.4330 -0.2934
10595SOL    HW236724   4.208   0.982   7.352 -0.2441  0.3391 -0.2148
10596SOL     OW36725   6.956   8.200   3.376 -0.4123  0.4512 -0.5744
10596SOL    HW136726   6.952   8.285   3.332 -1.0687 -0.7182 -2.8932
10596SOL    HW236727   6.871   8.191   3.418 -0.9721  0.2555 -1.7160
10597SOL     OW36728   4.776   2.696   4.662 -0.1616 -0.4810  0.1685
10597SOL    HW136729   4.767   2.778   4.710 -0.2045 -0.0262 -0.5913
10597SOL    HW236730   4.744   2.629   4.722 -2.8161  0.3757 -0.1558
10598SOL     OW36731   9.728  11.238   0.877 -0.2692 -0.4713  0.6983
10598SOL    HW136732   9.739  11.331   0.859 -2.0815 -0.1072  1.2280
10598SOL    HW236733   9.753  11.228   0.969 -0.1579 -0.4843  0.6661
10599SOL     OW36734   3.725   8.020   7.137  0.6366  0.1448  0.0778
10599SOL    HW136735   3.800   8.064   7.096 -0.0112  1.3344  0.1077
10599SOL    HW236736   3.676   8.091   7.178 -0.9373 -0.5015 -0.6256
10600SOL     OW36737   7.211   9.699   2.235 -0.0428  1.0012  0.3571
10600SOL    HW136738   7.123   9.720   2.266  0.1096  0.0446  1.5328
10600SOL    HW236739   7.199   9.620   2.182  0.2741 -0.1507  1.9109
10601SOL     OW36740   3.971   6.296  10.916 -0.0304  0.3941 -0.0961
10601SOL    HW136741   3.933   6.376  10.878 -0.7197 -0.7050 -1.8419
10601SOL    HW236742   3.895   6.241  10.936  0.3553  0.6531  2.3441
10602SOL     OW36743   8.782   0.357  10.204  0.1180 -0.2043 -0.2901
10602SOL    HW136744   8.769   0.437  10.154  1.0786  1.5340  2.0385
10602SOL    HW236745   8.849   0.308  10.155  0.8682  1.3014 -0.8125
10603SOL     OW36746   3.722   5.534   0.752 -0.3848 -0.2826  0.2304
10603SOL    HW136747   3.726   5.456   0.697  1.8971 -1.3010  1.6964
10603SOL    HW236748   3.791   5.591   0.719 -1.4111  0.7267 -0.2206
10604SOL     OW36749   4.263   1.943   9.945  0.2103  0.0694 -0.1375
10604SOL    HW136750   4.201   1.933  10.017  0.5268  0.3029  0.1729
10604SOL    HW236751   4.341   1.896   9.974 -0.1399 -1.0267 -0.9210
10605SOL     OW36752   6.072   4.037   3.529  0.0966 -0.5146  0.7247
10605SOL    HW136753   6.073   4.072   3.439 -0.8761 -2.1533  0.0388
10605SOL    HW236754   6.092   3.944   3.519 -1.0794 -0.9485  2.0924
10606SOL     OW36755   8.941   5.440  10.419 -0.1941 -0.8035 -0.1406
10606SOL    HW136756   8.894   5.357  10.430 -0.8837 -0.4200 -0.1424
10606SOL    HW236757   8.902   5.479  10.341  1.0424 -1.0786 -0.9128
10607SOL     OW36758   6.715   6.022   4.298 -0.1430 -0.7827 -1.2980
10607SOL    HW136759   6.695   5.945   4.245  0.8796  0.7340 -4.0849
10607SOL    HW236760   6.793   6.060   4.257 -0.0486  1.1985  0.5613
10608SOL     OW36761   0.806   5.215   4.148  0.0358 -0.1372  0.2128
10608SOL    HW136762   0.891   5.254   4.128  0.6490 -2.3023 -1.9740
10608SOL    HW236763   0.743   5.270   4.102  0.4481  0.4083  0.2855
10609SOL     OW36764   5.904  10.529   4.795 -0.7568  0.0778  0.2835
10609SOL    HW136765   5.887  10.494   4.707 -0.0259 -0.3037  0.2811
10609SOL    HW236766   5.896  10.453   4.853 -1.2553  0.3329  0.5565
10610SOL     OW36767   4.768   9.905  10.996 -0.3704 -0.2230  0.3598
10610SOL    HW136768   4.688   9.944  11.033 -0.5745 -1.2596  1.0420
10610SOL    HW236769   4.809   9.977  10.947 -1.6806  0.3402  0.0487
10611SOL     OW36770   0.098   3.859  10.421  0.1790  0.1863  0.5409
10611SOL    HW136771   0.118   3.952  10.431 -0.6742  0.2380  2.0736
10611SOL    HW236772   0.037   3.856  10.347 -1.4738  1.1415  1.7963
10612SOL     OW36773   6.357   7.025   2.226  0.5788  0.1065  0.4006
10612SOL    HW136774   6.375   7.039   2.134  0.5023 -0.1888  0.3392
10612SOL    HW236775   6.272   7.066   2.241 -1.4325 -3.2850 -0.6081
10613SOL     OW36776   6.811   3.601   7.880  0.1281  0.1757 -0.2025
10613SOL    HW136777   6.829   3.670   7.816  1.2674 -0.2039 -0.3042
10613SOL    HW236778   6.836   3.520   7.836  1.0542 -0.0825  0.7637
10614SOL     OW36779   6.031   9.629   7.164 -0.3314  0.1962 -0.0046
10614SOL    HW136780   5.972   9.696   7.131 -2.2993 -2.1108 -1.4753
10614SOL    HW236781   6.047   9.654   7.255 -1.4561  2.3020 -0.3290
10615SOL     OW36782   1.546   5.694   0.793  0.0003 -0.1367  0.0356
10615SOL    HW136783   1.575   5.649   0.714  0.1780 -0.0007  0.0222
10615SOL    HW236784   1.623   5.695   0.850 -0.2000 -0.4602  0.3130
10616SOL     OW36785   5.047   8.154   5.871  0.3211  0.2306 -0.3348
10616SOL    HW136786   5.100   8.208   5.813  0.1376 -0.2511 -0.9682
10616SOL    HW236787   4.971   8.209   5.891  1.3632  1.2133  1.1758
10617SOL     OW36788   4.297   5.828   5.749  0.4814 -0.4538  0.5796
10617SOL    HW136789   4.386   5.862   5.751  0.0578  0.6749  0.6115
10617SOL    HW236790   4.248   5.883   5.810  0.1508 -2.2638  2.0611
10618SOL     OW36791   6.027  10.852  11.583  0.3009  0.4053  0.0830
10618SOL    HW136792   6.091  10.922  11.573  0.5664  0.2717  0.8006
10618SOL    HW236793   5.970  10.881  11.654  0.5625 -0.2142  0.5490
10619SOL     OW36794   8.794   5.100   6.722  0.1013  0.1585  0.5603
10619SOL    HW136795   8.758   5.131   6.639 -0.8797  0.9770  1.2724
10619SOL    HW236796   8.868   5.045   6.696 -0.0850  0.5206 -0.8500
10620SOL     OW36797   2.095   4.639   8.400  0.2679 -0.1899  0.2518
10620SOL    HW136798   2.182   4.621   8.436  0.6351  1.0420  0.0441
10620SOL    HW236799   2.043   4.666   8.476  0.7929  1.5265  0.0509
10621SOL     OW36800   7.637   7.179   0.816 -0.2971  0.4964  0.0821
10621SOL    HW136801   7.556   7.172   0.867 -0.4133  0.8820 -0.0500
10621SOL    HW236802   7.685   7.250   0.857 -1.7379  2.9611 -2.1581
10622SOL     OW36803   2.983   0.658   6.179  0.4234 -0.0182  0.3292
10622SOL    HW136804   3.046   0.670   6.108 -0.3457  1.3078 -0.1629
10622SOL    HW236805   2.898   0.647   6.135 -0.6674  4.1848  0.9112
10623SOL     OW36806   7.178   8.904   1.169 -0.4337 -0.2904 -0.2677
10623SOL    HW136807   7.140   8.816   1.167 -3.3427  0.8353 -2.5837
10623SOL    HW236808   7.105   8.962   1.147  1.5596  2.6634  0.2613
10624SOL     OW36809   8.689  11.528   1.192 -0.6912  1.2290  0.2996
10624SOL    HW136810   8.781  11.502   1.181 -0.0304  3.6342 -0.5484
10624SOL    HW236811   8.639  11.448   1.173  1.1863  0.0700 -0.0343
10625SOL     OW36812   1.334   6.225   3.746  0.6410 -0.0347  0.7153
10625SOL    HW136813   1.260   6.179   3.784  1.9176 -1.1985  1.8547
10625SOL    HW236814   1.294   6.293   3.692 -1.2465 -0.3979  1.5828
10626SOL     OW36815   5.139   6.627  10.824 -0.4763  0.1476  0.0952
10626SOL    HW136816   5.118   6.594  10.911  0.0323  0.6027  0.3950
10626SOL    HW236817   5.073   6.588  10.767 -1.3167  0.4956  0.8119
10627SOL     OW36818   6.130   9.234   2.101  0.0158 -0.0475 -0.1140
10627SOL    HW136819   6.180   9.302   2.055  1.4331 -1.4743 -0.7634
10627SOL    HW236820   6.052   9.222   2.048 -0.5298  1.4316  0.3053
10628SOL     OW36821   3.622   0.799   9.858 -0.4556 -0.0983  0.1818
10628SOL    HW136822   3.579   0.855   9.922  0.9486  0.3053  0.8232
10628SOL    HW236823   3.704   0.845   9.838  0.5324 -1.7127  0.3867
10629SOL     OW36824   3.675   2.357   8.036 -0.0035 -0.2018  0.2684
10629SOL    HW136825   3.730   2.330   7.963 -1.1454  1.6707 -1.3844
10629SOL    HW236826   3.728   2.420   8.084 -1.3996  3.9430 -3.0136
10630SOL     OW36827  10.938   6.221   1.401  0.5132  0.2966  0.5610
10630SOL    HW136828  10.984   6.302   1.379 -1.7177  1.6864  0.7588
10630SOL    HW236829  10.983   6.154   1.351  1.0292  2.0028 -1.3921
10631SOL     OW36830   0.870   8.086   3.380  0.5710  0.5173  0.0413
10631SOL    HW136831   0.963   8.092   3.400  0.9209  1.2508 -1.6853
10631SOL    HW236832   0.857   8.143   3.305 -0.7647 -1.5771 -1.4409
10632SOL     OW36833   0.378   1.979   3.796  0.0261 -0.7004 -0.2982
10632SOL    HW136834   0.304   1.919   3.783  0.8607 -1.9451  0.4245
10632SOL    HW236835   0.451   1.938   3.748  0.8909 -0.8682  1.0956
10633SOL     OW36836   3.126   3.242   3.043  0.1701 -0.9892  0.2550
10633SOL    HW136837   3.097   3.323   3.084 -0.9466 -0.3271 -1.7264
10633SOL    HW236838   3.221   3.253   3.033  0.0852 -0.1091  0.3754
10634SOL     OW36839   2.688   2.468  10.547 -0.5790  0.0251 -0.3336
10634SOL    HW136840   2.766   2.438  10.595  0.7544  1.0236 -1.7775
10634SOL    HW236841   2.616   2.417  10.585  0.5337  0.0518  2.0135
10635SOL     OW36842   4.894  10.021   2.064  0.2931 -0.2378 -0.0310
10635SOL    HW136843   4.913   9.938   2.020 -0.0138  0.2906 -1.1901
10635SOL    HW236844   4.815  10.054   2.022 -0.3276  0.0454  1.2955
10636SOL     OW36845   4.515   0.386   6.395  0.1592  0.4419 -0.2228
10636SOL    HW136846   4.561   0.467   6.376  0.3035  0.3632 -0.2058
10636SOL    HW236847   4.437   0.414   6.444 -0.1386  0.6315 -0.7914
10637SOL     OW36848   1.172   4.105   6.348  0.0405  0.5313 -0.1025
10637SOL    HW136849   1.220   4.040   6.297 -0.6076  0.3613 -0.5068
10637SOL    HW236850   1.211   4.101   6.436 -0.9296 -1.4238  0.2805
10638SOL     OW36851   7.201   0.352   2.957 -0.1904  0.9839  0.0111
10638SOL    HW136852   7.196   0.387   3.046 -0.5850  2.2724 -0.5052
10638SOL    HW236853   7.235   0.424   2.904  2.4950 -0.5231 -0.4993
10639SOL     OW36854   8.616   3.891   6.761  0.0051  0.3873  0.0269
10639SOL    HW136855   8.670   3.943   6.702  0.4580  0.5796  0.6025
10639SOL    HW236856   8.535   3.876   6.712  0.3899  0.5007 -0.6574
10640SOL     OW36857   1.191   7.258   3.885 -0.6109  0.2944  0.1645
10640SOL    HW136858   1.237   7.292   3.962 -1.4156  3.8173 -0.7374
10640SOL    HW236859   1.099   7.257   3.910 -0.6457 -1.1838  0.0750
10641SOL     OW36860   2.426   2.349   3.143  0.0434 -0.0703 -0.3945
10641SOL    HW136861   2.398   2.420   3.085 -0.0425  0.5565  0.3989
10641SOL    HW236862   2.376   2.363   3.224  0.2787 -0.8343 -0.1108
10642SOL     OW36863  10.325   9.756   2.556  0.2284  0.3445  0.0076
10642SOL    HW136864  10.297   9.819   2.490  1.7867  1.0741  0.0158
10642SOL    HW236865  10.243   9.715   2.585 -0.7900  1.9882 -0.3656
10643SOL     OW36866   3.198   6.387   7.705 -0.3215  0.4750 -0.1384
10643SOL    HW136867   3.175   6.479   7.689  2.5490  1.4557  0.7898
10643SOL    HW236868   3.135   6.359   7.772 -0.1611  2.3396  0.8538
10644SOL     OW36869   3.842   9.117   4.994  0.0077 -0.3520  0.0503
10644SOL    HW136870   3.855   9.045   5.056 -1.4579 -1.0511 -0.4064
10644SOL    HW236871   3.879   9.193   5.038  0.1222 -1.0740  1.2477
10645SOL     OW36872   0.948   3.844   9.223 -0.0463 -0.0485  0.7235
10645SOL    HW136873   1.009   3.790   9.273  1.0716  0.8115  0.3163
10645SOL    HW236874   0.923   3.914   9.284 -2.2682 -1.4734  1.5989
10646SOL     OW36875   1.331   4.565   2.272  0.4015  0.6518  0.6088
10646SOL    HW136876   1.252   4.526   2.309  1.7502 -1.6569  1.2536
10646SOL    HW236877   1.402   4.536   2.330  2.0512  0.4327 -1.3830
10647SOL     OW36878   8.701   9.291   7.585 -0.0754  0.3960 -0.6551
10647SOL    HW136879   8.782   9.334   7.557  0.6427  0.8049  1.7783
10647SOL    HW236880   8.701   9.300   7.681 -2.1704 -1.0855 -0.4405
10648SOL     OW36881   8.665   4.554   5.828 -0.2327  0.0934  0.1155
10648SOL    HW136882   8.610   4.486   5.867  0.2195  0.2601  1.0696
10648SOL    HW236883   8.753   4.516   5.825  0.7327  1.6161  3.5669
10649SOL     OW36884   2.071   1.903  10.592 -0.0185  0.4208  0.2983
10649SOL    HW136885   2.051   1.939  10.679 -2.1822  0.2731 -0.0833
10649SOL    HW236886   2.025   1.960  10.531 -1.2897 -1.3831 -0.5106
10650SOL     OW36887   3.076  11.051   8.147  0.3889 -0.2838 -0.3948
10650SOL    HW136888   3.130  11.129   8.134 -0.5229  0.7825  1.6833
10650SOL    HW236889   2.989  11.077   8.116  0.2568 -0.7615 -0.4362
10651SOL     OW36890   4.470   0.538  10.747  0.2603  0.2137 -0.3619
10651SOL    HW136891   4.447   0.483  10.822 -0.8054  0.7029 -0.3106
10651SOL    HW236892   4.534   0.487  10.698  0.1774 -0.5622  0.3216
10652SOL     OW36893   1.032   2.652  10.019 -0.3916 -0.4619  0.0712
10652SOL    HW136894   1.089   2.729  10.016 -0.5876 -0.2880  0.6518
10652SOL    HW236895   1.052   2.604   9.939  1.4121 -0.9948  0.7982
10653SOL     OW36896   1.734   5.900  10.073 -0.3424 -0.0590  0.3197
10653SOL    HW136897   1.645   5.927  10.094 -0.0545 -0.0100  1.5173
10653SOL    HW236898   1.739   5.908   9.978 -1.2883  0.9308  0.3341
10654SOL     OW36899   8.774   9.505   4.292 -0.5120 -0.7392  0.0979
10654SOL    HW136900   8.703   9.473   4.236 -0.2365 -0.2894 -0.5089
10654SOL    HW236901   8.785   9.597   4.268 -1.1308 -0.2154  1.6506
10655SOL     OW36902   1.419   9.895  11.226  0.0281 -0.1040  0.0823
10655SOL    HW136903   1.506   9.862  11.208 -0.6032 -1.3295 -0.8511
10655SOL    HW236904   1.394   9.944  11.147  0.1088  0.8121  0.6041
10656SOL     OW36905   7.878   3.234   8.234 -0.2378 -0.7407  0.2113
10656SOL    HW136906   7.822   3.159   8.215  0.6794 -0.8257 -2.6547
10656SOL    HW236907   7.957   3.196   8.271 -0.1970 -1.1162 -0.2497
10657SOL     OW36908   7.401   1.268   2.598  0.1063  0.0461  0.1706
10657SOL    HW136909   7.377   1.290   2.688  0.7597  0.4227  0.2512
10657SOL    HW236910   7.451   1.186   2.606  2.6318  1.5244  0.4707
10658SOL     OW36911   5.939   9.050   0.045 -0.6963 -0.0299 -0.1844
10658SOL    HW136912   5.892   8.992   0.105 -0.4190 -1.5771 -1.3991
10658SOL    HW236913   6.015   8.999   0.018  0.8465  1.7925  0.4653
10659SOL     OW36914   4.931   6.854   6.611  0.6314 -0.0128 -0.0699
10659SOL    HW136915   5.015   6.812   6.597  0.2396 -0.4538 -1.2669
10659SOL    HW236916   4.871   6.782   6.631 -0.0596 -0.1116 -2.1984
10660SOL     OW36917  10.148  11.399   1.641 -0.3917 -0.2577 -0.2217
10660SOL    HW136918  10.145  11.495   1.633  0.2369 -0.2916 -0.9981
10660SOL    HW236919  10.228  11.382   1.690  0.2290 -0.4255 -1.2504
10661SOL     OW36920   2.914   9.177   7.700 -0.0204 -0.1491 -0.5840
10661SOL    HW136921   2.851   9.174   7.628 -1.2372 -0.3896  0.4505
10661SOL    HW236922   2.868   9.136   7.773  1.1168  0.2652  0.3890
10662SOL     OW36923   0.176   0.293   3.096 -0.2538 -0.0839 -0.4294
10662SOL    HW136924   0.268   0.297   3.125 -0.3486 -0.2339 -0.1057
10662SOL    HW236925   0.177   0.333   3.009 -0.1506  1.3408  0.2104
10663SOL     OW36926   2.932   9.877   0.110  0.1505 -0.0421 -0.1884
10663SOL    HW136927   3.018   9.917   0.126  0.3405  0.5496 -2.3792
10663SOL    HW236928   2.945   9.821   0.034 -1.4465  0.1641 -0.6480
10664SOL     OW36929   7.492   1.780  10.854  0.8141 -0.3138 -0.3232
10664SOL    HW136930   7.452   1.762  10.939  0.6515 -0.2789 -0.3934
10664SOL    HW236931   7.579   1.739  10.860  0.8633 -0.1815 -0.0857
10665SOL     OW36932   1.336   7.223  10.672  0.1216 -0.4389 -0.0103
10665SOL    HW136933   1.375   7.305  10.701 -1.1491  0.1874 -0.0337
10665SOL    HW236934   1.370   7.158  10.734 -0.5414  0.4610  1.3503
10666SOL     OW36935   4.962   5.730   8.462 -0.1231  0.1620  0.2483
10666SOL    HW136936   5.021   5.774   8.401  0.1387 -0.0303  0.3595
10666SOL    HW236937   4.876   5.770   8.446 -0.0327  0.2024 -0.1577
10667SOL     OW36938   7.681   3.507   3.365  0.2623 -0.0319  0.6109
10667SOL    HW136939   7.673   3.451   3.288  0.9474 -0.4984  0.8633
10667SOL    HW236940   7.754   3.565   3.344  0.9709 -0.6754  1.1938
10668SOL     OW36941   5.302  10.057   4.787 -0.2715  0.2498  0.1270
10668SOL    HW136942   5.323  10.092   4.700  0.4968 -1.2696 -0.3424
10668SOL    HW236943   5.207  10.065   4.793 -0.3177  0.5557 -0.7734
10669SOL     OW36944   0.930  11.375  10.648 -0.1258 -0.5751  0.0836
10669SOL    HW136945   0.845  11.371  10.604 -0.4301 -0.5582  0.6625
10669SOL    HW236946   0.935  11.293  10.697  0.0877 -0.4670  0.2433
10670SOL     OW36947  11.600   9.100   8.882  0.4691  0.1276  0.0780
10670SOL    HW136948  11.538   9.032   8.856  0.8879  0.5763 -2.3613
10670SOL    HW236949  11.572   9.178   8.832  0.8335  1.3724  1.7382
10671SOL     OW36950   5.740   2.425   5.515 -0.2972  0.3052 -0.2389
10671SOL    HW136951   5.747   2.518   5.495 -1.5082  0.4225 -0.2233
10671SOL    HW236952   5.708   2.385   5.434 -0.6261  0.0451  0.0155
10672SOL     OW36953   5.689   1.436   0.731  0.3572  0.4114  0.5662
10672SOL    HW136954   5.647   1.519   0.757 -0.7262  0.3947 -0.9892
10672SOL    HW236955   5.705   1.446   0.638  1.6499 -0.5618  0.6618
10673SOL     OW36956   7.142   7.997   2.707 -0.0820 -0.4816 -0.3342
10673SOL    HW136957   7.217   7.995   2.647  0.5435  2.1765  0.2627
10673SOL    HW236958   7.129   7.905   2.731  3.8292 -1.0062  0.5438
10674SOL     OW36959   7.306   0.606  11.557  0.2001  0.2403 -0.7812
10674SOL    HW136960   7.343   0.545  11.493  0.7962 -0.4464  0.2048
10674SOL    HW236961   7.212   0.586  11.556  0.6323 -2.4268  1.2305
10675SOL     OW36962   2.704   2.210   7.439 -0.3229 -0.0956  0.2946
10675SOL    HW136963   2.800   2.201   7.441 -0.1484  1.2707 -0.7959
10675SOL    HW236964   2.686   2.287   7.493 -0.6111  0.8250 -1.0744
10676SOL     OW36965  10.963   9.202   8.482  0.7547  0.3799 -0.3641
10676SOL    HW136966  10.893   9.137   8.477  0.0214  1.1135  0.0974
10676SOL    HW236967  11.040   9.152   8.509 -0.1398 -0.0782  1.4664
10677SOL     OW36968   5.678   8.359   6.981 -0.2097 -0.1932  0.0817
10677SOL    HW136969   5.640   8.302   7.047 -0.2913  1.4154  1.4936
10677SOL    HW236970   5.658   8.317   6.897 -1.5701 -1.4222  0.9923
10678SOL     OW36971   8.996   7.285   3.622 -1.0480  0.1637  0.2410
10678SOL    HW136972   9.051   7.361   3.639 -1.8300  0.7952  0.0070
10678SOL    HW236973   9.026   7.218   3.684 -0.4361  0.7018  0.5284
10679SOL     OW36974   2.200   9.774  11.285  0.4407  0.2391  0.1907
10679SOL    HW136975   2.124   9.723  11.314  0.4895 -0.4864 -0.9080
10679SOL    HW236976   2.265   9.708  11.261  0.5263  0.8064 -1.2097
10680SOL     OW36977   9.066   3.249   0.038  0.2360  0.0318 -0.2268
10680SOL    HW136978   9.012   3.256  -0.041 -2.1403 -0.1091  1.2887
10680SOL    HW236979   9.071   3.339   0.071 -0.8526 -0.2184  0.7007
10681SOL     OW36980   3.690  10.434   8.393  0.4488  0.4608 -0.4787
10681SOL    HW136981   3.616  10.489   8.421  1.5382  1.3179  0.8212
10681SOL    HW236982   3.674  10.350   8.436  0.5462  0.8496  0.3525
10682SOL     OW36983   6.299   8.650   4.569 -0.5911 -0.1586 -0.3891
10682SOL    HW136984   6.250   8.730   4.587 -0.0438  0.0715  0.1196
10682SOL    HW236985   6.276   8.591   4.641 -0.0149  0.0038 -0.0680
10683SOL     OW36986   7.035   5.794   9.811  0.3786 -0.7643  0.1905
10683SOL    HW136987   6.963   5.753   9.763  1.0286 -1.9262  0.1926
10683SOL    HW236988   7.012   5.780   9.903 -0.1978  0.3043  0.2291
10684SOL     OW36989   0.543   0.540   9.956 -0.0077  0.0522 -0.2219
10684SOL    HW136990   0.449   0.523   9.952 -0.2690  1.4868 -0.5338
10684SOL    HW236991   0.551   0.624  10.000  1.2100 -0.5830  0.8744
10685SOL     OW36992   4.188   3.005   2.098  0.6881  0.1299 -0.9896
10685SOL    HW136993   4.261   2.961   2.142  0.5088  1.2936  0.5805
10685SOL    HW236994   4.219   3.094   2.085 -0.8035  0.9990  0.8059
10686SOL     OW36995  10.089   3.951   7.881 -0.2289  0.1701  0.1131
10686SOL    HW136996  10.119   4.033   7.843  0.8733  0.3264  1.2647
10686SOL    HW236997  10.117   3.884   7.819  0.2176  0.5315 -0.0792
10687SOL     OW36998   4.257   2.253   0.303 -0.3551 -0.2081  0.3411
10687SOL    HW136999   4.324   2.190   0.328 -0.3485 -0.0099  0.8351
10687SOL    HW237000   4.302   2.338   0.305  0.5162 -0.3842 -3.3026
10688SOL     OW37001   5.945   0.993   5.318  0.8394  0.2056  0.2656
10688SOL    HW137002   5.853   0.968   5.316  0.7223  0.5504  1.0748
10688SOL    HW237003   5.945   1.086   5.341  1.3287  0.6477 -1.4218
10689SOL     OW37004   7.572   3.049   0.366  0.8608  0.2128 -0.1036
10689SOL    HW137005   7.664   3.031   0.347  0.1889 -0.7368 -2.9347
10689SOL    HW237006   7.557   3.137   0.331  0.3609 -0.2369 -1.0400
10690SOL     OW37007   0.517  11.270   6.297  0.1075  0.2664 -0.4245
10690SOL    HW137008   0.488  11.240   6.210  0.1734 -1.6749  0.1811
10690SOL    HW237009   0.606  11.236   6.305  1.0669  2.5834 -0.5566
10691SOL     OW37010   2.690  10.551  10.045 -0.1198  0.0207  0.1505
10691SOL    HW137011   2.706  10.644  10.027  0.3263  0.1083  0.9502
10691SOL    HW237012   2.777  10.514  10.058 -0.1999 -0.7809 -1.3231
10692SOL     OW37013   6.982   5.006   9.030 -0.3215 -0.1709  0.4484
10692SOL    HW137014   6.904   4.969   9.071 -0.8342  1.5465  1.1267
10692SOL    HW237015   7.047   5.007   9.100  0.1873 -1.1803  0.0085
10693SOL     OW37016   4.163  10.137   3.765  0.0474  0.5778  0.0516
10693SOL    HW137017   4.190  10.110   3.677  0.8312  0.7181  0.2445
10693SOL    HW237018   4.148  10.055   3.812  0.5927  0.4915  0.0788
10694SOL     OW37019   0.892   3.584   0.191 -0.5932 -0.6046  0.6141
10694SOL    HW137020   0.959   3.585   0.122 -0.9697  1.8363  0.2169
10694SOL    HW237021   0.826   3.522   0.159 -0.0384 -0.6533 -0.5027
10695SOL     OW37022   1.420  11.562   9.597 -0.2450 -0.2089  0.2890
10695SOL    HW137023   1.358  11.607   9.654  0.7001  0.3712  0.8842
10695SOL    HW237024   1.392  11.584   9.508  0.3815  1.8617  0.5611
10696SOL     OW37025   7.106   7.664   4.539  0.0213  0.6687 -0.3437
10696SOL    HW137026   7.130   7.755   4.521 -0.5859  1.3978  2.1287
10696SOL    HW237027   7.139   7.648   4.627 -2.9503 -0.3018  0.7069
10697SOL     OW37028   4.974   9.776   3.231 -0.3695  0.0419 -0.2588
10697SOL    HW137029   5.008   9.807   3.315 -3.5832  0.8881  0.8551
10697SOL    HW237030   4.954   9.856   3.182 -0.5193 -0.4276 -0.9918
10698SOL     OW37031  10.760   8.089   4.151  0.3437 -0.4308 -0.2886
10698SOL    HW137032  10.669   8.076   4.179  0.2984 -0.7661 -0.5831
10698SOL    HW237033  10.762   8.058   4.061  1.0889 -1.8570  0.1838
10699SOL     OW37034   9.407   2.622   5.951 -0.7080 -0.3116  0.2017
10699SOL    HW137035   9.375   2.533   5.967 -1.4040  0.3461  3.1237
10699SOL    HW237036   9.473   2.636   6.018 -0.8687  1.4966  0.0221
10700SOL     OW37037   1.632   9.172   0.795  0.6351  0.2931  0.1966
10700SOL    HW137038   1.643   9.262   0.828 -1.1231  0.8458 -0.5686
10700SOL    HW237039   1.554   9.177   0.739  2.1377 -1.0995 -2.1963
10701SOL     OW37040   5.654   7.778   6.277  0.3329  0.4411  0.6635
10701SOL    HW137041   5.603   7.799   6.198  0.1406  0.6163  0.8339
10701SOL    HW237042   5.694   7.693   6.257 -2.6734 -1.3955  1.7540
10702SOL     OW37043   1.083   6.749   0.230 -0.1114  0.2205 -0.3088
10702SOL    HW137044   1.121   6.679   0.283 -0.0350  0.5092  0.0254
10702SOL    HW237045   1.014   6.707   0.179  0.5326 -0.2723 -0.7833
10703SOL     OW37046   3.163   9.243   0.912  0.3723 -0.2876  0.4500
10703SOL    HW137047   3.211   9.171   0.953 -1.1881 -1.8650 -0.3642
10703SOL    HW237048   3.222   9.275   0.844  1.4202 -0.2044  1.3571
10704SOL     OW37049  10.234  11.335   2.666 -0.0984 -0.0824  1.0198
10704SOL    HW137050  10.271  11.362   2.750  1.0830  0.6824  0.2908
10704SOL    HW237051  10.280  11.254   2.644  3.0245  1.9829 -0.9341
10705SOL     OW37052   8.455  10.082   8.912  0.5326 -0.0733 -0.0324
10705SOL    HW137053   8.512  10.019   8.868  1.8358  1.1512 -0.1682
10705SOL    HW237054   8.511  10.159   8.926 -1.2849  1.4458 -0.7830
10706SOL     OW37055   8.570   3.510   9.151 -0.6266  0.1986 -0.0372
10706SOL    HW137056   8.552   3.446   9.220 -0.8596  0.6834  0.3596
10706SOL    HW237057   8.503   3.577   9.162  0.4954  1.2756  0.5127
10707SOL     OW37058  11.605   1.082   1.446 -0.1518 -0.4586  0.3306
10707SOL    HW137059  11.607   1.092   1.351 -0.5158 -2.6631  0.0210
10707SOL    HW237060  11.518   1.046   1.464 -0.8242  1.7276  1.7587
10708SOL     OW37061   7.130   4.209  10.503  0.1361 -0.7453 -0.3306
10708SOL    HW137062   7.083   4.199  10.586 -0.9015 -0.9232 -0.9244
10708SOL    HW237063   7.194   4.278  10.521  0.9441 -1.8061  1.0376
10709SOL     OW37064   8.414  10.683   0.184  0.9794 -0.1370  0.2050
10709SOL    HW137065   8.415  10.771   0.221  1.8566  0.2102 -0.6005
10709SOL    HW237066   8.333  10.680   0.131  1.3006  0.4333 -0.3279
10710SOL     OW37067   8.461  11.133   1.967  0.3440 -0.0919 -0.0552
10710SOL    HW137068   8.466  11.179   1.883 -0.1921 -1.8896 -1.1241
10710SOL    HW237069   8.510  11.189   2.027  3.4462 -0.2111 -2.2291
10711SOL     OW37070   8.827   7.057   5.468  0.5977 -0.0153  0.0126
10711SOL    HW137071   8.745   7.023   5.506  1.0840  0.8055  1.8950
10711SOL    HW237072   8.825   7.151   5.486  1.9492  0.0195  0.0930
10712SOL     OW37073   8.335   9.009   9.999 -0.3580 -0.3039  0.1426
10712SOL    HW137074   8.351   9.004   9.905  0.6610  1.8491  0.1304
10712SOL    HW237075   8.261   9.069  10.007  0.2369  0.3642  0.7383
10713SOL     OW37076   4.398   6.391   4.215 -0.2567  0.1247  0.4552
10713SOL    HW137077   4.320   6.360   4.169  0.6187 -0.9427 -0.3413
10713SOL    HW237078   4.471   6.365   4.160  0.6113  3.0321  0.0927
10714SOL     OW37079   5.400   7.902   0.597 -0.1845 -0.0924 -0.1052
10714SOL    HW137080   5.410   7.835   0.529  0.8738 -0.4458  0.3798
10714SOL    HW237081   5.464   7.969   0.574  1.1267 -0.8339  1.2403
10715SOL     OW37082  10.085   0.113   2.004 -0.9785  0.5681  0.3866
10715SOL    HW137083  10.002   0.155   1.981 -1.0163 -0.8876 -2.7019
10715SOL    HW237084  10.147   0.145   1.939 -0.5508 -2.5052 -0.8595
10716SOL     OW37085   4.646   4.168   7.588  0.6193  0.1445  0.1257
10716SOL    HW137086   4.658   4.254   7.630  1.6522 -0.6934  1.6597
10716SOL    HW237087   4.661   4.185   7.495 -2.2034  2.1718 -0.0784
10717SOL     OW37088   1.504   7.984   7.683 -0.5182  0.6424  0.0297
10717SOL    HW137089   1.594   8.009   7.704 -0.4927  0.8640 -0.3281
10717SOL    HW237090   1.450   8.054   7.720 -0.5809  0.2340  0.7120
10718SOL     OW37091   0.669   8.976   5.196 -0.6372  0.3946  0.0894
10718SOL    HW137092   0.693   8.929   5.116  0.7143  2.1449 -0.6077
10718SOL    HW237093   0.667   9.068   5.169 -1.2530  0.9141  1.8342
10719SOL     OW37094   7.055   5.262   7.730 -0.7956 -0.1143 -0.1291
10719SOL    HW137095   6.985   5.250   7.666 -0.6864  0.7097 -0.4176
10719SOL    HW237096   7.112   5.186   7.719 -3.2030 -2.4912  2.2104
10720SOL     OW37097   0.782   2.937   8.377 -0.0199  0.0977 -0.0271
10720SOL    HW137098   0.822   2.911   8.460  0.7802 -1.1397 -0.7735
10720SOL    HW237099   0.845   2.911   8.310 -0.8946  0.5548 -1.0694
10721SOL     OW37100   9.888   0.730  11.312  0.4208 -0.0257 -0.0534
10721SOL    HW137101   9.845   0.768  11.389  0.2670 -0.0967 -0.1037
10721SOL    HW237102   9.911   0.806  11.258  0.5773  0.0281  0.0867
10722SOL     OW37103   3.378  10.781   4.484 -0.1266 -0.1743  0.4525
10722SOL    HW137104   3.285  10.799   4.495 -0.1770 -0.3108  0.2602
10722SOL    HW237105   3.392  10.785   4.389  0.4562  1.8407  0.5647
10723SOL     OW37106   6.417   2.104   1.350 -0.5440  0.2433 -0.0214
10723SOL    HW137107   6.419   2.015   1.384 -1.6685  0.8703  1.8025
10723SOL    HW237108   6.417   2.093   1.255  0.1499 -1.6587  0.1556
10724SOL     OW37109   4.155   2.016   7.770  0.0036  0.2083  0.4734
10724SOL    HW137110   4.190   1.932   7.739  1.4854  1.2299 -0.7918
10724SOL    HW237111   4.186   2.023   7.860 -0.5041 -0.7785  0.7383
10725SOL     OW37112   3.924  10.441  10.930 -0.0946 -0.1310  0.0841
10725SOL    HW137113   3.908  10.354  10.966  0.7295  0.5910  2.3560
10725SOL    HW237114   3.852  10.454  10.867 -1.8517 -1.3573  1.7269
10726SOL     OW37115   0.022  10.420   3.884  0.3714 -0.1529 -0.2928
10726SOL    HW137116  -0.022  10.378   3.959  0.1149  0.6500  0.0135
10726SOL    HW237117  -0.043  10.417   3.814 -0.0778  0.7745  0.0750
10727SOL     OW37118   0.893   7.393   1.871 -0.2045  0.1932  0.0858
10727SOL    HW137119   0.860   7.343   1.797 -0.8532  2.2873 -1.1453
10727SOL    HW237120   0.945   7.331   1.922 -0.8797 -1.6421 -1.3733
10728SOL     OW37121  10.544   5.761   9.091  0.0354 -0.5912  0.0356
10728SOL    HW137122  10.542   5.748   9.186  1.3885 -0.9827  0.0288
10728SOL    HW237123  10.615   5.823   9.076  0.5632 -1.3649 -0.7961
10729SOL     OW37124   3.054   0.874   9.708 -0.5396  0.6709 -0.5998
10729SOL    HW137125   3.042   0.829   9.792  0.4476  0.9905 -0.2683
10729SOL    HW237126   2.966   0.905   9.685 -0.7646  0.9515  0.5419
10730SOL     OW37127   3.809   4.717  10.781  0.6835 -0.3371  0.5246
10730SOL    HW137128   3.824   4.777  10.708 -1.5812  0.8466  0.9410
10730SOL    HW237129   3.795   4.774  10.857  1.3785 -1.5019  1.5657
10731SOL     OW37130  10.504   8.672   4.769  0.3936 -0.2017  0.1448
10731SOL    HW137131  10.569   8.718   4.717  1.8475 -1.4222  0.8168
10731SOL    HW237132  10.552   8.641   4.847 -1.5415  1.0142  1.9364
10732SOL     OW37133   2.382   9.978   4.473  0.7142 -0.2058  0.2452
10732SOL    HW137134   2.409   9.993   4.563 -1.1264  0.4860  0.7240
10732SOL    HW237135   2.291  10.009   4.469  0.6865 -0.3886 -1.7970
10733SOL     OW37136  11.512   1.280   9.711 -0.4316 -0.2856 -0.3890
10733SOL    HW137137  11.607   1.288   9.713 -0.4003 -0.6304 -0.4273
10733SOL    HW237138  11.480   1.369   9.698 -0.1398 -0.0419  0.5169
10734SOL     OW37139   4.131   5.806   9.332  0.2899  0.2485  0.4738
10734SOL    HW137140   4.152   5.717   9.305  4.3376  1.4342 -0.9991
10734SOL    HW237141   4.119   5.854   9.250  0.2662  1.4634  1.1628
10735SOL     OW37142   4.659   7.291   4.284 -0.0630 -0.2657 -0.0839
10735SOL    HW137143   4.717   7.362   4.257  0.0691 -0.0534  0.7339
10735SOL    HW237144   4.663   7.292   4.380 -0.6382 -0.8973 -0.0483
10736SOL     OW37145   5.652  10.457   1.261 -0.1479 -0.2038  0.0782
10736SOL    HW137146   5.707  10.382   1.282  1.4420  0.9645  0.2064
10736SOL    HW237147   5.680  10.483   1.173 -0.4583  0.4448  0.1681
10737SOL     OW37148   5.351   3.860   2.417  0.2885  0.2675  0.5722
10737SOL    HW137149   5.359   3.926   2.348  1.6478 -0.1727  0.2748
10737SOL    HW237150   5.311   3.907   2.490 -0.4532  0.9383 -0.2394
10738SOL     OW37151   9.510   4.673   3.442 -0.1069  0.1298 -0.0212
10738SOL    HW137152   9.416   4.685   3.456 -0.2740 -1.0897 -0.0121
10738SOL    HW237153   9.517   4.624   3.360  0.6020  1.4870 -0.8153
10739SOL     OW37154   3.741   6.369   9.854  0.1424 -0.0251 -0.3214
10739SOL    HW137155   3.806   6.300   9.871  0.3031  0.0714 -0.5430
10739SOL    HW237156   3.712   6.353   9.764 -1.5353 -1.2214  0.3744
10740SOL     OW37157  11.463   1.567   0.158 -0.5298 -0.7601 -0.5334
10740SOL    HW137158  11.370   1.589   0.148 -0.0825  0.6020 -2.1331
10740SOL    HW237159  11.465   1.507   0.233 -2.5788 -0.0657  0.1593
10741SOL     OW37160   8.143   4.967   4.749  0.2398  0.2074 -0.1064
10741SOL    HW137161   8.085   4.983   4.823 -0.5963  0.9201 -0.8836
10741SOL    HW237162   8.183   5.053   4.731  0.5799  0.0008 -0.3611
10742SOL     OW37163   3.965   5.786   4.935 -0.1774  0.2500  0.3810
10742SOL    HW137164   3.955   5.717   5.000 -1.1678  0.1801  0.1697
10742SOL    HW237165   4.003   5.742   4.859  0.5606  0.2426  0.7505
10743SOL     OW37166   5.303   9.953   7.881  0.8768 -0.1659 -0.1583
10743SOL    HW137167   5.233   9.909   7.929 -1.0450  0.9696 -1.7721
10743SOL    HW237168   5.340  10.015   7.944  0.1915 -0.5288  0.6144
10744SOL     OW37169   3.148   8.312   8.748 -0.2506  0.0276  0.0977
10744SOL    HW137170   3.150   8.251   8.674 -1.5914  1.0678 -0.8479
10744SOL    HW237171   3.224   8.369   8.734  0.7167 -1.0676  0.7104
10745SOL     OW37172   8.521  10.195   3.855 -0.4219  0.1614  0.6120
10745SOL    HW137173   8.472  10.255   3.799  0.0431 -1.0306 -1.1597
10745SOL    HW237174   8.478  10.201   3.940 -1.7286  1.3881 -0.0942
10746SOL     OW37175   0.299   7.456   3.184  0.3831 -0.3661 -0.3432
10746SOL    HW137176   0.384   7.494   3.168  0.0071  0.0899 -1.3153
10746SOL    HW237177   0.267   7.429   3.097 -0.5393 -0.3512 -0.0267
10747SOL     OW37178   6.289  11.527   3.330  0.4219  0.1080  0.2084
10747SOL    HW137179   6.342  11.556   3.256 -0.9164 -1.6677 -1.5588
10747SOL    HW237180   6.200  11.558   3.311  0.0378 -0.4264  1.0445
10748SOL     OW37181   0.762   3.817  10.680 -0.7667  0.0176  0.8767
10748SOL    HW137182   0.711   3.833  10.759 -0.9521  1.1547  0.5422
10748SOL    HW237183   0.809   3.899  10.665 -0.4969 -0.2920 -0.0165
10749SOL     OW37184   1.345   1.042  10.395  0.0626 -0.0483  0.1914
10749SOL    HW137185   1.349   1.136  10.409  0.6964 -0.2789  1.8390
10749SOL    HW237186   1.271   1.029  10.336 -1.3726  1.3183  1.6102
10750SOL     OW37187   6.042   6.893   4.854 -0.2655  0.0452 -0.0035
10750SOL    HW137188   6.107   6.900   4.924  0.9341  0.5819 -1.1418
10750SOL    HW237189   5.989   6.817   4.878  1.4146 -1.0343  0.4260
10751SOL     OW37190   5.356  10.443   6.918  0.2791  0.5266  0.0547
10751SOL    HW137191   5.429  10.381   6.925  1.0251  1.2785 -0.8460
10751SOL    HW237192   5.386  10.509   6.856 -1.5360  0.3542 -1.0785
10752SOL     OW37193   2.792   2.663   1.167 -0.1767 -0.4979  0.4229
10752SOL    HW137194   2.860   2.720   1.129 -0.5337 -0.1404  0.3083
10752SOL    HW237195   2.839   2.605   1.226  0.2320 -0.2559  0.3375
10753SOL     OW37196   3.961   5.972   8.212  0.5487 -0.5100 -0.4295
10753SOL    HW137197   4.001   5.995   8.128  1.0959 -1.5855 -0.4838
10753SOL    HW237198   3.890   5.912   8.188  0.3216 -0.3461 -0.1676
10754SOL     OW37199   3.312   4.505   5.497  0.2605  0.2702  0.1341
10754SOL    HW137200   3.354   4.462   5.423 -2.7576 -1.8987 -0.5006
10754SOL    HW237201   3.280   4.434   5.552 -0.4967  1.7971  1.7898
10755SOL     OW37202   7.611   4.916   0.107  0.3300  0.2337 -0.2251
10755SOL    HW137203   7.671   4.966   0.052  2.3692 -0.0793  1.5896
10755SOL    HW237204   7.653   4.831   0.118  0.0915  0.3483  1.9379
10756SOL     OW37205   6.161   3.110   3.008  0.1433  0.1598 -0.0669
10756SOL    HW137206   6.227   3.129   3.074  0.9133  1.9427 -1.2592
10756SOL    HW237207   6.211   3.095   2.928 -0.8608  1.2065 -0.9237
10757SOL     OW37208  10.653   5.872   7.413 -0.0030 -0.1898 -0.2594
10757SOL    HW137209  10.691   5.938   7.355  0.4418  0.7554  1.0755
10757SOL    HW237210  10.588   5.827   7.359 -0.0989  1.1355 -1.2875
10758SOL     OW37211   8.008   9.074   8.874 -0.3824 -0.2035 -0.6674
10758SOL    HW137212   8.096   9.039   8.858 -0.0892  0.3113 -0.2249
10758SOL    HW237213   7.994   9.060   8.968 -0.2728  0.8043 -0.4882
10759SOL     OW37214  11.054   5.711  11.097 -0.3454  0.3330 -0.1361
10759SOL    HW137215  11.025   5.627  11.061  0.5961 -0.3961  0.7635
10759SOL    HW237216  11.099   5.754  11.024 -3.4659  1.4865 -1.5847
10760SOL     OW37217   9.519   6.060   7.432 -0.2659  0.0546 -0.2917
10760SOL    HW137218   9.547   5.981   7.479 -0.5760 -0.2111 -0.5527
10760SOL    HW237219   9.424   6.061   7.441 -0.2236  0.7471  0.2557
10761SOL     OW37220   9.239  10.473   0.198 -0.0158 -0.4773 -0.0366
10761SOL    HW137221   9.178  10.477   0.124 -1.1547 -0.7203  0.8532
10761SOL    HW237222   9.189  10.429   0.267  0.4346  1.1590  1.3986
10762SOL     OW37223  11.024   3.192   9.760  0.4367 -0.0716  0.1497
10762SOL    HW137224  10.990   3.273   9.797  1.7460  0.9229 -0.7431
10762SOL    HW237225  11.068   3.219   9.679 -0.9034 -1.9350 -1.2981
10763SOL     OW37226   7.702   1.573   7.559  0.2814 -0.8489 -0.5665
10763SOL    HW137227   7.767   1.587   7.490  0.8541  0.3769  0.1787
10763SOL    HW237228   7.626   1.624   7.532  0.6854  0.0371 -0.0816
10764SOL     OW37229   6.533  10.764   9.548  0.2340 -0.0916 -0.7641
10764SOL    HW137230   6.487  10.844   9.575 -0.2812 -0.1738 -1.3726
10764SOL    HW237231   6.622  10.793   9.530  0.1368  0.2873 -0.6559
10765SOL     OW37232   8.967   6.887   7.337 -0.5934 -0.1069 -0.4637
10765SOL    HW137233   9.049   6.936   7.344 -0.8337  0.2341  0.0507
10765SOL    HW237234   8.901   6.944   7.378 -1.0446 -0.4697 -0.6727
10766SOL     OW37235   7.410   3.455   1.405  0.5544 -0.0968  0.1890
10766SOL    HW137236   7.459   3.493   1.332  0.8890 -0.6768  0.1024
10766SOL    HW237237   7.475   3.441   1.473  0.6222 -1.3215 -0.1032
10767SOL     OW37238   8.039  11.331   4.164  0.1461  0.2155  0.2483
10767SOL    HW137239   8.110  11.385   4.130 -0.3301 -0.3360 -1.7785
10767SOL    HW237240   8.083  11.255   4.201  0.6887 -0.9292 -2.4515
10768SOL     OW37241   5.374   6.406  10.411  0.2001  0.0170  0.6079
10768SOL    HW137242   5.310   6.401  10.482 -0.4576  2.1496  0.2577
10768SOL    HW237243   5.334   6.359  10.338  0.4607 -1.3644  1.3254
10769SOL     OW37244   3.067   0.691   1.665 -0.1881  0.1182  0.0886
10769SOL    HW137245   3.153   0.661   1.693 -0.8610 -0.6461  1.4575
10769SOL    HW237246   3.072   0.694   1.569  0.6066 -2.3075 -0.0074
10770SOL     OW37247   1.134   0.942   3.802 -0.0269  0.1088 -0.5678
10770SOL    HW137248   1.167   0.992   3.877  0.1130  0.6558 -0.9873
10770SOL    HW237249   1.184   0.975   3.728  0.3623 -0.9597 -0.7862
10771SOL     OW37250   6.225   1.395   1.881 -0.2734  0.0291 -0.2125
10771SOL    HW137251   6.290   1.338   1.840 -0.1183  0.6952 -0.9140
10771SOL    HW237252   6.237   1.480   1.838 -2.7179 -0.2215 -1.5744
10772SOL     OW37253   0.695   8.436  11.561  0.4544  0.0237 -0.0580
10772SOL    HW137254   0.789   8.451  11.570  0.4389  1.0179 -1.2071
10772SOL    HW237255   0.682   8.346  11.590  1.6771  0.0325  0.5849
10773SOL     OW37256   0.556   6.016   1.189  0.4408 -0.0882  0.1980
10773SOL    HW137257   0.486   6.034   1.252  0.2532 -1.1811  0.3243
10773SOL    HW237258   0.526   5.938   1.141  0.5755  0.7351 -1.2629
10774SOL     OW37259  10.518   0.410   2.839  0.2445 -0.0124  0.2315
10774SOL    HW137260  10.473   0.473   2.783 -0.2210 -0.3706  0.1877
10774SOL    HW237261  10.604   0.399   2.800 -0.5464 -1.3204 -1.2683
10775SOL     OW37262   0.895   2.526   3.959  0.2312 -0.4760  0.6262
10775SOL    HW137263   0.855   2.479   4.032 -1.4811 -0.4936 -0.2609
10775SOL    HW237264   0.976   2.563   3.995 -1.3886  1.0046  3.0241
10776SOL     OW37265   3.673  10.250   7.994  0.4138  0.0842  0.4527
10776SOL    HW137266   3.753  10.211   8.030 -0.0876 -0.9887  0.4489
10776SOL    HW237267   3.691  10.257   7.900  1.8218  3.1241  0.8259
10777SOL     OW37268   6.775   6.635   6.516 -0.2337  0.1236  0.2630
10777SOL    HW137269   6.689   6.598   6.533 -0.1693 -0.3547 -0.4013
10777SOL    HW237270   6.826   6.617   6.595 -0.4423 -0.5071  0.2575
10778SOL     OW37271   8.538   3.948   1.395 -0.4785 -0.1931 -0.3946
10778SOL    HW137272   8.606   4.012   1.375 -3.0032  2.4150 -1.3499
10778SOL    HW237273   8.527   3.953   1.489 -1.3919  1.7149 -0.5599
10779SOL     OW37274   7.894   8.230   0.408  0.5893 -0.3951 -0.0893
10779SOL    HW137275   7.801   8.243   0.423  1.0101  1.2455  1.5729
10779SOL    HW237276   7.905   8.136   0.397 -1.1363 -0.7136  0.7080
10780SOL     OW37277   3.381   1.693   4.867  0.6078 -0.0025 -0.8551
10780SOL    HW137278   3.358   1.600   4.863  3.3511 -0.7591 -1.5349
10780SOL    HW237279   3.441   1.700   4.942  3.0814  0.4448 -2.7384
10781SOL     OW37280   1.196   4.047   4.845  0.0582 -0.3135 -0.2032
10781SOL    HW137281   1.174   4.113   4.780  1.1556  0.6224  0.3291
10781SOL    HW237282   1.289   4.061   4.862  0.0460 -1.2649  0.7483
10782SOL     OW37283   6.087   7.843   6.723 -0.1774  0.1951 -0.5279
10782SOL    HW137284   6.062   7.845   6.815  1.8252  0.9355  0.0367
10782SOL    HW237285   6.173   7.883   6.720  0.5408 -1.3118 -2.4899
10783SOL     OW37286   2.270   3.380   5.681 -0.2472  0.6754  0.0909
10783SOL    HW137287   2.219   3.334   5.748  1.1632 -0.5666  0.3382
10783SOL    HW237288   2.284   3.467   5.718  0.9660 -0.1538  1.7086
10784SOL     OW37289   4.739   7.419   9.545 -0.2129  0.2674 -0.3798
10784SOL    HW137290   4.813   7.475   9.524 -1.2054  1.8805  0.1937
10784SOL    HW237291   4.771   7.361   9.614  0.9409 -0.1388 -1.2258
10785SOL     OW37292   4.818   1.043  11.471 -0.3765  0.3962  0.6404
10785SOL    HW137293   4.897   1.025  11.522 -0.3041  1.9214  1.0916
10785SOL    HW237294   4.851   1.061  11.383 -0.1412  1.5966  0.9540
10786SOL     OW37295   7.147   5.989   6.880  0.1003 -0.0917  0.1822
10786SOL    HW137296   7.228   6.041   6.879  0.6605 -0.8447  2.2625
10786SOL    HW237297   7.129   5.973   6.787  0.9514  2.1664 -0.4431
10787SOL     OW37298   1.353   5.216  10.170  0.5332 -0.2977  0.2138
10787SOL    HW137299   1.299   5.279  10.217  1.1971 -0.5788  1.3882
10787SOL    HW237300   1.442   5.233  10.201  0.7995 -1.3961  0.0862
10788SOL     OW37301   5.618   5.729   8.505  0.3301  0.5905  0.3816
10788SOL    HW137302   5.689   5.790   8.525  1.5407  0.8710 -3.7196
10788SOL    HW237303   5.648   5.645   8.540  2.3466  0.8929 -0.4697
10789SOL     OW37304   2.906   2.516   2.776  0.0890  0.1182 -0.0999
10789SOL    HW137305   2.837   2.496   2.838 -0.6081  0.2256 -0.8201
10789SOL    HW237306   2.893   2.608   2.753  0.5031  0.1572 -0.1985
10790SOL     OW37307   4.194   1.033   0.014 -0.1577 -0.3850  0.1879
10790SOL    HW137308   4.137   1.022   0.090  0.2798 -0.4458  0.5116
10790SOL    HW237309   4.139   1.011  -0.061 -0.5278 -0.5450  0.5051
10791SOL     OW37310  11.674   1.460   4.227 -0.4154 -0.7171  0.3632
10791SOL    HW137311  11.622   1.407   4.166  1.0180 -0.6601 -0.9654
10791SOL    HW237312  11.668   1.549   4.192  0.3887 -0.6733  0.3300
10792SOL     OW37313  11.515   3.659   0.959  0.1916  0.1320 -0.3972
10792SOL    HW137314  11.550   3.742   0.928 -0.3099  0.6606  0.4005
10792SOL    HW237315  11.568   3.638   1.036 -0.7923  0.6156  0.4393
10793SOL     OW37316   5.024   7.159   5.811  0.2305  0.3347  0.0532
10793SOL    HW137317   4.993   7.099   5.879  1.6989  0.9210  1.3025
10793SOL    HW237318   4.949   7.218   5.795 -0.0753  0.3113  1.3169
10794SOL     OW37319   6.868   5.972   5.512  0.3621 -0.1610  0.4164
10794SOL    HW137320   6.841   5.991   5.422 -0.9217  0.3703  0.8996
10794SOL    HW237321   6.901   5.882   5.508 -1.2437 -0.7536 -0.2672
10795SOL     OW37322   2.967   5.128   4.372  0.1851 -0.0213 -0.1625
10795SOL    HW137323   2.989   5.035   4.372 -0.6394 -0.2304  0.2039
10795SOL    HW237324   3.025   5.167   4.307 -0.0141 -0.9265 -0.9035
10796SOL     OW37325   3.646   0.979   8.960 -0.1695 -0.0753  1.0377
10796SOL    HW137326   3.706   0.923   8.911 -1.3651 -0.3132 -0.2019
10796SOL    HW237327   3.626   1.051   8.900 -1.9227 -0.5387  1.0173
10797SOL     OW37328   6.809  11.326   7.558 -0.4679 -0.0972  0.3140
10797SOL    HW137329   6.898  11.293   7.546 -0.1868  0.1012  1.6514
10797SOL    HW237330   6.785  11.297   7.646 -1.7214 -0.1137 -0.0154
10798SOL     OW37331  11.132   1.856  11.602  0.3254  0.3721  0.0124
10798SOL    HW137332  11.098   1.945  11.604 -1.5621 -0.2494 -1.4904
10798SOL    HW237333  11.198   1.854  11.672 -1.5476  2.1561  1.9847
10799SOL     OW37334   6.302   3.387   8.581  0.7855 -0.1126 -0.2353
10799SOL    HW137335   6.275   3.362   8.493 -1.1550  1.5404 -0.1965
10799SOL    HW237336   6.363   3.319   8.609  1.5546 -0.6066 -2.8859
10800SOL     OW37337   9.569   6.252   9.537  0.1327  0.2051 -0.0481
10800SOL    HW137338   9.515   6.330   9.524  0.4413  0.2404 -1.2221
10800SOL    HW237339   9.507   6.180   9.543 -0.1268  0.4677  0.5236
10801SOL     OW37340  10.923   7.943   8.762 -0.7116 -0.1653 -0.3352
10801SOL    HW137341  10.942   7.938   8.668  1.1672  0.8535 -0.0691
10801SOL    HW237342  10.860   8.014   8.771  0.1695  0.6990 -0.7381
10802SOL     OW37343   1.242   4.206   5.124 -0.1239  0.0547 -0.4177
10802SOL    HW137344   1.318   4.163   5.086  1.1949 -1.0031  3.0246
10802SOL    HW237345   1.185   4.135   5.153 -0.6196  0.7412  0.3679
10803SOL     OW37346   5.697   5.445   8.550 -0.5240  0.4761 -0.4338
10803SOL    HW137347   5.724   5.358   8.578  1.8179  1.4180  0.4843
10803SOL    HW237348   5.677   5.436   8.457 -1.2661 -1.2165 -0.1296
10804SOL     OW37349   9.733   1.428   9.401 -0.3503 -0.0015  0.0591
10804SOL    HW137350   9.709   1.501   9.343 -0.6773  0.3198  0.5824
10804SOL    HW237351   9.817   1.397   9.367 -0.2871  0.5108 -0.2750
10805SOL     OW37352   1.153  11.315  10.524 -0.3473  0.1128  0.4366
10805SOL    HW137353   1.104  11.385  10.568 -0.8312  0.7843 -1.0989
10805SOL    HW237354   1.085  11.260  10.485  0.0552  0.8551 -1.4178
10806SOL     OW37355   3.545   1.780   3.665 -0.2746 -0.3367  0.0110
10806SOL    HW137356   3.496   1.842   3.610 -2.2631 -0.4923  1.4944
10806SOL    HW237357   3.497   1.698   3.656  0.2613 -0.7429  0.7988
10807SOL     OW37358   2.686   1.052   2.224  0.2475 -0.6719  0.1624
10807SOL    HW137359   2.624   1.025   2.292 -3.3101 -0.2444 -2.5827
10807SOL    HW237360   2.716   1.139   2.252 -0.6847 -0.7335  1.4504
10808SOL     OW37361   1.853   7.816   2.163 -0.1981 -0.1053  0.3879
10808SOL    HW137362   1.863   7.726   2.193 -1.0890 -0.4524 -0.3032
10808SOL    HW237363   1.788   7.854   2.223  0.2620  0.1205  0.7504
10809SOL     OW37364   0.943   6.061   8.857 -0.2611 -0.5393  0.1222
10809SOL    HW137365   0.965   5.968   8.857 -2.1699 -1.0480 -1.3231
10809SOL    HW237366   0.983   6.095   8.776 -0.9714 -0.4900 -0.2140
10810SOL     OW37367   2.385  11.473   5.528  0.3530 -0.1026  0.0534
10810SOL    HW137368   2.371  11.547   5.468 -1.5132  0.4671  1.1120
10810SOL    HW237369   2.372  11.396   5.474  1.5455  0.3263 -0.8942
10811SOL     OW37370   3.151  10.038   5.192  0.0885  0.0944  0.3857
10811SOL    HW137371   3.184  10.092   5.120 -0.6909 -1.0955 -0.8983
10811SOL    HW237372   3.220  10.043   5.258  0.7439  1.3641 -0.3453
10812SOL     OW37373  10.412  10.125   5.219  0.6947 -0.5918 -0.1747
10812SOL    HW137374  10.478  10.170   5.167  0.5408  0.4817  0.5438
10812SOL    HW237375  10.460  10.089   5.294  0.4748  0.3069  0.4219
10813SOL     OW37376   1.485   8.122   3.843 -0.5978 -0.3098  0.5460
10813SOL    HW137377   1.517   8.198   3.891 -0.2256 -0.8869  1.2293
10813SOL    HW237378   1.472   8.055   3.909  0.6318 -1.3589 -0.2375
10814SOL     OW37379   5.241   0.235   5.376 -0.0651  0.2124 -0.0688
10814SOL    HW137380   5.324   0.235   5.328 -0.8270  0.5951 -1.4351
10814SOL    HW237381   5.197   0.316   5.349 -0.7820  0.1347  0.8144
10815SOL     OW37382   6.846   8.130   6.075  0.0975  0.5053  0.1181
10815SOL    HW137383   6.893   8.213   6.085 -1.0427  1.0384  1.3775
10815SOL    HW237384   6.803   8.117   6.159 -0.4589 -0.9317 -0.3647
10816SOL     OW37385  10.565   7.564   3.415 -0.1854 -0.0006  0.1291
10816SOL    HW137386  10.571   7.482   3.366 -1.8608  1.3462 -2.5470
10816SOL    HW237387  10.497   7.548   3.481  0.4215 -1.1056  0.5135
10817SOL     OW37388   6.644   5.478   3.933 -0.0388  0.0153  0.1494
10817SOL    HW137389   6.678   5.399   3.890 -0.9003 -0.2116 -0.1328
10817SOL    HW237390   6.715   5.542   3.924  0.9200 -0.9004  0.9361
10818SOL     OW37391   5.315   3.480   6.245 -0.4453  0.2748 -0.3822
10818SOL    HW137392   5.308   3.502   6.338  1.9766  1.1947 -0.3353
10818SOL    HW237393   5.312   3.384   6.243 -1.6602  0.2746  0.4930
10819SOL     OW37394   6.406   8.033   2.378  0.1691  0.1896 -0.3092
10819SOL    HW137395   6.358   8.112   2.403  0.1624 -0.3069  1.3186
10819SOL    HW237396   6.425   8.046   2.285 -2.2344  0.8476 -0.7715
10820SOL     OW37397  11.660   1.471  10.214  0.0305  0.9540  0.0275
10820SOL    HW137398  11.679   1.380  10.239 -1.6633  0.2911 -0.8816
10820SOL    HW237399  11.734   1.521  10.247  0.9296 -0.7346  0.7183
10821SOL     OW37400   9.404   3.760  10.335 -0.1095 -0.0937  0.1661
10821SOL    HW137401   9.380   3.812  10.411  1.0878  1.5790 -0.5239
10821SOL    HW237402   9.343   3.787  10.267 -1.8036 -2.2969  0.7379
10822SOL     OW37403   9.413   7.963   5.927  0.1285 -0.0541  0.4732
10822SOL    HW137404   9.490   7.978   5.871  0.8346 -2.0797  0.8154
10822SOL    HW237405   9.345   8.019   5.890  1.4072  0.8497 -0.6099
10823SOL     OW37406   0.810   4.172   2.918 -0.4565  0.1904  0.8688
10823SOL    HW137407   0.776   4.261   2.904  0.7514  0.4696 -0.5078
10823SOL    HW237408   0.735   4.115   2.903 -0.7913  0.8798 -0.2220
10824SOL     OW37409   4.436   4.488  10.793 -0.1573 -0.3647  0.5820
10824SOL    HW137410   4.344   4.487  10.767  0.1846 -2.5045 -0.7212
10824SOL    HW237411   4.455   4.581  10.807 -2.0315  0.3113 -0.8947
10825SOL     OW37412   2.897   0.782   9.083  0.4060 -0.0328  0.1584
10825SOL    HW137413   2.975   0.745   9.125  1.5679  1.8429 -0.2022
10825SOL    HW237414   2.921   0.789   8.991  0.1330  1.2556  0.1627
10826SOL     OW37415   5.023   9.373  11.043  0.2106  0.4640  0.1400
10826SOL    HW137416   5.061   9.459  11.060  1.0694 -0.5173  4.1658
10826SOL    HW237417   5.093   9.311  11.061 -1.6337 -1.2006  2.1055
10827SOL     OW37418   7.399   8.441   1.048  0.1450 -0.3213 -0.1784
10827SOL    HW137419   7.449   8.414   1.125  1.3927  1.9627 -0.0907
10827SOL    HW237420   7.465   8.452   0.980 -0.5177  0.7675 -0.6641
10828SOL     OW37421   3.419  11.691   8.820 -0.1507  0.2990 -0.0491
10828SOL    HW137422   3.506  11.683   8.781 -0.5601 -1.4637 -0.7198
10828SOL    HW237423   3.428  11.656   8.909  0.1000  1.3684  0.3554
10829SOL     OW37424  10.787   8.075   6.174  0.2498  0.3585 -0.0074
10829SOL    HW137425  10.693   8.077   6.155 -0.1248  0.7039  1.6870
10829SOL    HW237426  10.809   7.982   6.178 -0.3208  0.2495  0.8726
10830SOL     OW37427  10.687   2.508   8.408  0.0117 -0.1179  0.4494
10830SOL    HW137428  10.637   2.451   8.466 -1.4577  1.0063  0.3465
10830SOL    HW237429  10.757   2.544   8.463  0.8799 -1.8773  0.5397
10831SOL     OW37430   8.437   6.530   6.498 -0.5341 -0.2145  0.3545
10831SOL    HW137431   8.388   6.464   6.548  0.6071 -0.7937  0.7493
10831SOL    HW237432   8.437   6.607   6.555 -0.7083 -0.3121  0.4899
10832SOL     OW37433   4.984   0.790   6.525  0.0026 -0.2405  0.8093
10832SOL    HW137434   4.889   0.803   6.520 -0.1711 -1.5561  0.1772
10832SOL    HW237435   5.008   0.826   6.610 -0.8722  1.1152  0.5185
10833SOL     OW37436   2.661   1.137  10.560 -0.1762 -0.5763  0.0430
10833SOL    HW137437   2.643   1.196  10.634 -0.6277 -1.0905  0.3486
10833SOL    HW237438   2.626   1.184  10.484  0.4906  0.0565  0.1083
10834SOL     OW37439   3.041   9.127   1.228  0.4569  0.0103  0.1068
10834SOL    HW137440   3.077   9.101   1.313 -0.5338  0.4341  0.6657
10834SOL    HW237441   3.103   9.091   1.164  0.8985 -0.8284  0.9778
10835SOL     OW37442  10.620   6.020   7.003  0.0615  0.1271  0.7090
10835SOL    HW137443  10.650   5.934   6.972  1.1121  0.5226  0.6063
10835SOL    HW237444  10.692   6.054   7.055 -0.3273  0.9704  0.7191
10836SOL     OW37445  10.600   8.753   3.328 -0.5616 -0.0756 -0.0396
10836SOL    HW137446  10.542   8.727   3.257  1.3188 -1.8412 -1.0657
10836SOL    HW237447  10.653   8.824   3.292 -2.0304  1.5661  0.9083
10837SOL     OW37448   1.399   5.950   1.181 -0.2424  0.4378 -0.2215
10837SOL    HW137449   1.349   5.885   1.231  0.4668 -1.0464 -1.3502
10837SOL    HW237450   1.361   5.947   1.094  0.1650  1.1570 -0.4309
10838SOL     OW37451   2.378   6.645   0.815 -0.0100  0.4229  0.7628
10838SOL    HW137452   2.384   6.593   0.895 -0.2879  1.1390  1.2633
10838SOL    HW237453   2.464   6.686   0.806  0.1888 -0.0678  0.4032
10839SOL     OW37454   6.598   0.825   4.104 -0.2591  0.0766  0.0903
10839SOL    HW137455   6.568   0.781   4.183  0.1437  0.3327  0.3900
10839SOL    HW237456   6.592   0.759   4.035  0.1851 -0.3959  0.5026
10840SOL     OW37457  10.794   0.938  10.488  0.1992  0.1965  0.1889
10840SOL    HW137458  10.727   0.974  10.429  1.0978 -0.9297 -1.6302
10840SOL    HW237459  10.749   0.925  10.571 -1.6872  0.0363 -0.7993
10841SOL     OW37460   4.702   5.255  11.168 -0.1912  0.4520  0.1133
10841SOL    HW137461   4.646   5.233  11.094 -0.7006  0.1798  0.5733
10841SOL    HW237462   4.771   5.189  11.166  0.7152  1.3920 -1.0632
10842SOL     OW37463   3.331   0.911   5.830  0.0832 -0.0246 -0.2004
10842SOL    HW137464   3.293   0.948   5.909 -0.1433  0.2072 -0.4150
10842SOL    HW237465   3.424   0.932   5.836 -0.2235  1.7228 -0.9231
10843SOL     OW37466   7.832   5.011   8.223  0.4556  0.3804 -0.2112
10843SOL    HW137467   7.858   5.082   8.281 -0.9354  1.2654 -0.6142
10843SOL    HW237468   7.913   4.983   8.180  1.2212  0.8572  0.8766
10844SOL     OW37469   3.568   4.754   4.661 -0.0288 -0.1180 -0.2982
10844SOL    HW137470   3.627   4.791   4.595 -0.0216 -0.8487 -0.7150
10844SOL    HW237471   3.519   4.828   4.694  1.0169  0.4888 -0.0573
10845SOL     OW37472  11.026   7.245   4.113 -0.5761  0.0266 -0.0843
10845SOL    HW137473  10.942   7.291   4.117 -0.9471 -0.5282 -1.1347
10845SOL    HW237474  11.067   7.278   4.033  0.1987  0.2795  0.4165
10846SOL     OW37475   0.893   5.141  11.154 -0.5179  0.1386  0.4767
10846SOL    HW137476   0.903   5.180  11.068  2.6887 -0.6008  0.3756
10846SOL    HW237477   0.910   5.212  11.216 -1.4812  0.3623  0.5038
10847SOL     OW37478   7.897   0.855   0.842 -0.0283  0.3432 -0.1686
10847SOL    HW137479   7.927   0.941   0.868 -1.4885  1.4497 -1.8565
10847SOL    HW237480   7.821   0.838   0.897  0.3323  0.0674  0.2483
10848SOL     OW37481   7.891   0.787   5.996 -0.3140 -0.4355  0.0819
10848SOL    HW137482   7.882   0.713   5.936  1.1961 -0.8852  0.3542
10848SOL    HW237483   7.903   0.746   6.082  0.5368  0.1104  0.2331
10849SOL     OW37484  10.166   2.267   3.184  0.1867 -0.2169  0.1290
10849SOL    HW137485  10.195   2.308   3.102 -0.8836 -1.6552 -1.0220
10849SOL    HW237486  10.170   2.338   3.248 -2.1588  1.9463 -1.8501
10850SOL     OW37487  10.192   5.477   8.853  0.5494 -0.3064  0.2742
10850SOL    HW137488  10.196   5.537   8.778 -1.8910 -1.8980 -1.3190
10850SOL    HW237489  10.209   5.391   8.815 -1.3405 -1.2324  1.3806
10851SOL     OW37490   3.497   7.670   6.664  0.5317  0.8039  0.1577
10851SOL    HW137491   3.444   7.630   6.595 -1.1544  1.2614  1.1460
10851SOL    HW237492   3.588   7.656   6.635 -0.0147 -1.9858 -0.4767
10852SOL     OW37493   9.891   1.967   8.771 -0.2791  0.3601 -0.0913
10852SOL    HW137494   9.878   2.061   8.760 -0.6857  0.2065 -1.0411
10852SOL    HW237495   9.972   1.949   8.723  0.9904  0.5507  1.8795
10853SOL     OW37496  11.463   0.402   9.095 -0.2242 -0.0310 -0.1933
10853SOL    HW137497  11.392   0.448   9.139  0.9485  0.5738  1.1544
10853SOL    HW237498  11.464   0.438   9.006 -2.5864 -1.2159 -0.7753
10854SOL     OW37499  10.083   7.271   5.400 -0.0419 -0.0138 -0.2567
10854SOL    HW137500  10.049   7.338   5.460  1.3461  1.2403 -0.8036
10854SOL    HW237501  10.169   7.249   5.436  0.3020 -0.1113 -1.1315
10855SOL     OW37502   6.055   9.968   2.302  0.1961 -0.2432  0.0451
10855SOL    HW137503   5.986  10.013   2.351  1.2106 -0.0813  1.4030
10855SOL    HW237504   6.056  10.011   2.217 -0.6733  0.4440  0.3630
10856SOL     OW37505   3.731   0.182   2.943 -0.4287 -0.3219  0.2071
10856SOL    HW137506   3.820   0.175   2.977 -0.5749  2.1772  1.3193
10856SOL    HW237507   3.677   0.195   3.020 -1.6270 -0.6485 -0.5506
10857SOL     OW37508   8.471   1.115   9.659  0.4968  0.0781  0.1350
10857SOL    HW137509   8.414   1.190   9.670  1.4642  0.9893 -0.8057
10857SOL    HW237510   8.412   1.040   9.657 -0.8843  1.0981 -2.4756
10858SOL     OW37511   8.423  10.115  10.009 -0.5077  0.3745  0.0639
10858SOL    HW137512   8.412  10.122   9.915 -1.0454 -0.7451  0.0193
10858SOL    HW237513   8.517  10.119  10.023 -0.3881  0.0020 -0.5834
10859SOL     OW37514   2.999   1.515  11.496 -0.2556 -0.4713 -0.2327
10859SOL    HW137515   3.059   1.560  11.436 -0.4100 -1.3043 -1.0405
10859SOL    HW237516   2.957   1.585  11.546 -0.2565  0.2675 -1.2435
10860SOL     OW37517   1.143  10.092  11.491  0.1531  0.0037  0.1239
10860SOL    HW137518   1.101  10.146  11.558  1.5618  0.9330  0.2875
10860SOL    HW237519   1.094  10.112  11.411 -0.9625 -0.4383  0.6727
10861SOL     OW37520   1.334   8.213   9.098  0.1226  0.3440 -0.3365
10861SOL    HW137521   1.323   8.147   9.166 -1.6063  1.8820  0.9617
10861SOL    HW237522   1.311   8.168   9.017  1.7978 -1.4002  0.0741
10862SOL     OW37523   9.008   9.693   5.815  0.0681  0.3374  0.0945
10862SOL    HW137524   8.968   9.687   5.728  1.9846 -0.4047 -0.8031
10862SOL    HW237525   9.096   9.658   5.803  1.1344  2.1683  1.8657
10863SOL     OW37526   1.985  11.571   9.007 -0.3865 -0.1415 -0.2873
10863SOL    HW137527   1.965  11.617   9.088 -0.9589 -0.1416 -0.4248
10863SOL    HW237528   2.011  11.640   8.946 -0.8789 -0.0362 -0.3821
10864SOL     OW37529   1.427   4.575   7.314 -0.3543 -0.1854 -0.5739
10864SOL    HW137530   1.373   4.525   7.253  0.8984 -1.5096 -0.6456
10864SOL    HW237531   1.397   4.549   7.401  2.2911 -3.6376 -0.4760
10865SOL     OW37532   2.500   5.418   1.084 -0.0528  0.5201  0.1200
10865SOL    HW137533   2.517   5.373   1.001 -0.0796 -1.8540  1.3022
10865SOL    HW237534   2.556   5.374   1.148 -1.1113  1.2569  1.6366
10866SOL     OW37535   2.635  11.100   5.368  0.4030 -0.3119  0.0761
10866SOL    HW137536   2.647  11.088   5.274 -2.0764  2.0451 -0.6454
10866SOL    HW237537   2.546  11.070   5.385  0.2788  0.7171  1.3705
10867SOL     OW37538   8.082   7.666   6.785 -0.0137 -0.3211 -0.1279
10867SOL    HW137539   8.114   7.733   6.846 -2.0164  1.2290 -0.6615
10867SOL    HW237540   8.153   7.654   6.722 -0.5873  3.7393 -1.8933
10868SOL     OW37541   3.287   3.862   5.529 -0.1317  1.1624 -0.0234
10868SOL    HW137542   3.271   3.934   5.468 -0.3965  0.7226 -0.4835
10868SOL    HW237543   3.300   3.785   5.473 -2.5134  0.3109  0.4650
10869SOL     OW37544  11.263  10.325   4.606  0.1272  0.5626 -0.3782
10869SOL    HW137545  11.275  10.397   4.545 -2.0010  1.6869  0.4451
10869SOL    HW237546  11.197  10.356   4.668  1.6584 -0.7867  2.1129
10870SOL     OW37547   6.584   0.788   9.097  0.0566  0.0535 -0.6916
10870SOL    HW137548   6.606   0.832   9.178 -1.3251  0.6982 -0.6392
10870SOL    HW237549   6.583   0.695   9.119  1.1386  0.1086 -0.3521
10871SOL     OW37550  11.314   3.031   0.865  0.1458  0.2686  0.2760
10871SOL    HW137551  11.379   2.969   0.899 -1.4503 -0.8112  1.5025
10871SOL    HW237552  11.240   3.023   0.925 -0.3565  2.9898  0.1352
10872SOL     OW37553   1.102   1.606   4.619  0.7812  0.2698  0.3198
10872SOL    HW137554   1.117   1.581   4.711  1.0499 -0.7428  0.0166
10872SOL    HW237555   1.162   1.550   4.570 -0.9772 -0.8541 -0.6440
10873SOL     OW37556   1.136   5.649   5.473  0.7015 -0.6385  0.1239
10873SOL    HW137557   1.046   5.619   5.464  0.0616  1.4965 -1.3965
10873SOL    HW237558   1.186   5.594   5.412 -0.4164  1.0668 -2.5114
10874SOL     OW37559   0.289   0.978   8.783  0.5467 -0.0132  0.1944
10874SOL    HW137560   0.364   1.036   8.796  0.9022 -0.0249 -1.6323
10874SOL    HW237561   0.233   0.995   8.859  1.4265  1.4847  0.5540
10875SOL     OW37562   9.019   0.673   7.957 -0.1266 -0.0483  0.1568
10875SOL    HW137563   9.111   0.658   7.933 -0.0432  1.1528 -0.3206
10875SOL    HW237564   8.980   0.586   7.955  0.5995 -0.3690 -1.3378
10876SOL     OW37565   8.270   0.497   3.669  0.1558  0.2601  0.5540
10876SOL    HW137566   8.274   0.467   3.579 -2.6600 -3.4222  1.3992
10876SOL    HW237567   8.359   0.487   3.702  0.9551  0.3981 -1.4478
10877SOL     OW37568   2.475   4.928   9.707  0.2143  0.6179  0.2806
10877SOL    HW137569   2.400   4.975   9.671 -1.1933 -1.3701  0.4549
10877SOL    HW237570   2.444   4.896   9.792  1.5238  0.3974  0.6921
10878SOL     OW37571   1.550   0.188   0.474 -0.1855  0.3740 -0.9810
10878SOL    HW137572   1.573   0.105   0.515 -0.9896  0.4352 -0.4016
10878SOL    HW237573   1.632   0.218   0.434  0.1226 -0.6649 -1.1510
10879SOL     OW37574   4.367   9.113   9.493  0.4562 -0.6464 -0.6820
10879SOL    HW137575   4.413   9.091   9.574 -1.8316  0.4235  1.0253
10879SOL    HW237576   4.422   9.180   9.452  1.2121 -0.5290  0.4788
10880SOL     OW37577   1.114   0.281   2.170 -0.1457 -0.0756  0.2894
10880SOL    HW137578   1.041   0.289   2.109  0.2156 -0.2181 -0.1641
10880SOL    HW237579   1.137   0.189   2.169 -2.5973 -0.9161  3.5456
10881SOL     OW37580   1.163  10.205   4.031 -0.0601 -0.6423 -0.0757
10881SOL    HW137581   1.116  10.276   3.988  1.9399  0.2435 -0.9270
10881SOL    HW237582   1.139  10.212   4.124 -0.2173  0.8671 -0.2165
10882SOL     OW37583   4.245   0.779   3.206  0.1368 -0.3551 -0.0183
10882SOL    HW137584   4.196   0.771   3.288  1.9847 -1.9582  1.0215
10882SOL    HW237585   4.180   0.764   3.138 -1.0357 -1.2826  1.2476
10883SOL     OW37586   2.499  10.896   3.669 -0.2540 -0.4253  0.1930
10883SOL    HW137587   2.461  10.868   3.586  1.5677 -0.0563 -0.8363
10883SOL    HW237588   2.465  10.984   3.682 -0.8003 -0.6023  0.0108
10884SOL     OW37589   8.935   6.119   2.203  0.4975 -0.5821 -0.3153
10884SOL    HW137590   8.856   6.113   2.149 -0.4520 -1.3072  1.0933
10884SOL    HW237591   8.918   6.192   2.262  1.8123  0.6451 -1.3791
10885SOL     OW37592  10.254   9.019   4.366  0.2091 -0.0846  0.1895
10885SOL    HW137593  10.204   9.057   4.438 -1.3243 -0.9767 -0.3475
10885SOL    HW237594  10.320   8.965   4.409 -1.2078 -1.2655  0.9783
10886SOL     OW37595   7.897   6.452  10.852 -0.1172 -0.1378 -0.2551
10886SOL    HW137596   7.907   6.459  10.947  2.3754 -0.4426 -0.4213
10886SOL    HW237597   7.828   6.387  10.840 -0.2897 -0.2956  1.3607
10887SOL     OW37598   5.283   6.863   3.852  0.1939  0.1113 -0.1304
10887SOL    HW137599   5.313   6.952   3.833 -1.2931  0.6909  0.1387
10887SOL    HW237600   5.266   6.824   3.767  0.1616  0.3228 -0.2196
10888SOL     OW37601   9.423   1.557   1.853 -0.0239  0.6341  0.0312
10888SOL    HW137602   9.373   1.478   1.834  1.4562 -0.5216  0.7733
10888SOL    HW237603   9.446   1.592   1.767 -1.1634  0.5867 -0.3055
10889SOL     OW37604   6.756   1.602   8.459  0.1580 -0.8093  0.5609
10889SOL    HW137605   6.703   1.662   8.406  0.0214 -1.1471  0.3164
10889SOL    HW237606   6.835   1.652   8.480  0.6777 -1.0096 -0.8104
10890SOL     OW37607   6.705   2.197   8.343 -0.0551  0.0628 -0.5393
10890SOL    HW137608   6.621   2.162   8.374 -0.2872 -1.0123 -2.2524
10890SOL    HW237609   6.681   2.258   8.273  0.5441  0.9809  0.0293
10891SOL     OW37610   8.808  11.376   6.566 -0.4891  0.1667 -0.4182
10891SOL    HW137611   8.850  11.316   6.504 -0.8810 -0.0330 -0.4978
10891SOL    HW237612   8.752  11.431   6.511 -2.9934 -1.8008 -0.0381
10892SOL     OW37613   5.798   3.509   9.154 -0.5254  0.0122 -0.0812
10892SOL    HW137614   5.814   3.455   9.077  0.2313  1.3583 -0.9094
10892SOL    HW237615   5.866   3.577   9.150 -1.3891  0.9734  0.9486
10893SOL     OW37616   5.345   7.593   7.379 -0.6554 -0.4207 -0.6473
10893SOL    HW137617   5.285   7.659   7.414 -0.8614 -1.8470  1.9912
10893SOL    HW237618   5.419   7.643   7.345 -1.6233  1.2163 -0.4417
10894SOL     OW37619  10.052   5.440  11.078 -0.3371  0.2683  0.4007
10894SOL    HW137620  10.119   5.375  11.056 -2.2023 -1.7587  0.3599
10894SOL    HW237621  10.093   5.495  11.145  1.4535 -0.6954  0.1649
10895SOL     OW37622   3.576   8.930   3.028 -0.0972 -0.5962  0.1707
10895SOL    HW137623   3.634   8.963   3.096 -0.4947  1.2298 -0.3231
10895SOL    HW237624   3.529   8.858   3.070 -1.2960  1.3042  2.3077
10896SOL     OW37625   4.339   0.784   4.393 -0.2266 -0.0304  0.2519
10896SOL    HW137626   4.373   0.725   4.460 -2.9661  2.6747  4.4454
10896SOL    HW237627   4.258   0.742   4.363 -0.2435 -0.1056  0.4053
10897SOL     OW37628   7.046  11.220   3.051 -0.8591  0.2587  0.3260
10897SOL    HW137629   7.104  11.145   3.065 -1.6617 -0.1059  2.0127
10897SOL    HW237630   6.958  11.184   3.061 -1.3562  1.0439 -0.9567
10898SOL     OW37631   9.152   0.289   0.234 -0.5968 -0.5615  0.4091
10898SOL    HW137632   9.107   0.238   0.166 -0.7540 -0.2757  0.2978
10898SOL    HW237633   9.112   0.261   0.316 -0.7380 -0.5606  0.3406
10899SOL     OW37634   7.185   6.188   2.732 -0.4209 -0.1616 -0.5395
10899SOL    HW137635   7.133   6.154   2.805  1.8206 -0.4655  1.0235
10899SOL    HW237636   7.203   6.111   2.678  2.2531 -1.1429  1.4864
10900SOL     OW37637   8.888   4.973  10.657 -0.4042  0.3956  0.1455
10900SOL    HW137638   8.828   4.899  10.665 -0.2712  0.3609  0.9824
10900SOL    HW237639   8.957   4.956  10.722 -0.9014  1.7216  1.0935
10901SOL     OW37640   4.731   1.637   5.178 -0.3960 -0.3122  0.0235
10901SOL    HW137641   4.650   1.687   5.170  0.5179  1.4489  1.1307
10901SOL    HW237642   4.754   1.643   5.271  1.7745  0.5562 -0.5022
10902SOL     OW37643  10.126   0.391   0.552  0.2907 -0.1078  0.2468
10902SOL    HW137644  10.041   0.416   0.589 -0.7176 -1.7899 -0.7561
10902SOL    HW237645  10.131   0.297   0.567 -0.3037 -0.9811 -3.8275
10903SOL     OW37646   9.054   9.863   2.149  1.0650  0.3279 -0.3538
10903SOL    HW137647   8.976   9.812   2.169  2.3469 -2.3060 -1.4648
10903SOL    HW237648   9.022   9.952   2.134 -1.6163 -0.5401 -0.2999
10904SOL     OW37649   6.465   1.435   0.144 -0.3255  0.3737 -0.4330
10904SOL    HW137650   6.474   1.404   0.234  1.4607 -0.4125 -0.8401
10904SOL    HW237651   6.396   1.501   0.148 -0.0182  0.6283  1.5800
10905SOL     OW37652   7.355   1.563   2.958 -0.4102 -0.2606 -0.1971
10905SOL    HW137653   7.324   1.480   2.923  1.7077 -1.5426  0.7824
10905SOL    HW237654   7.420   1.594   2.895  1.1205 -1.0012  0.9553
10906SOL     OW37655   7.406   7.166   0.965  0.1801 -0.0660  0.2320
10906SOL    HW137656   7.359   7.247   0.985  0.4961  0.1466  0.1239
10906SOL    HW237657   7.352   7.097   1.002 -1.0181  0.0395 -1.2309
10907SOL     OW37658   8.736   0.730  10.609 -0.7439  0.7344 -1.0013
10907SOL    HW137659   8.818   0.757  10.651 -1.4851  0.0953  0.9694
10907SOL    HW237660   8.714   0.648  10.653 -2.2999  0.7572 -1.7079
10908SOL     OW37661   7.897   2.264   2.930  0.3636 -0.1043 -0.3172
10908SOL    HW137662   7.885   2.318   3.009  0.7744  0.2731 -0.5097
10908SOL    HW237663   7.882   2.175   2.961 -3.9479  0.2715 -0.6906
10909SOL     OW37664   5.107  11.396   9.509 -0.1737  0.1639 -0.1734
10909SOL    HW137665   5.016  11.423   9.495 -0.3145 -0.4863 -0.5289
10909SOL    HW237666   5.145  11.467   9.562 -1.1434 -0.0365  0.8129
10910SOL     OW37667   0.881   2.116   6.633  0.0835 -0.0353  0.4517
10910SOL    HW137668   0.833   2.116   6.550  2.0106  0.0714 -0.7091
10910SOL    HW237669   0.839   2.185   6.684  0.0863  1.2703 -1.2044
10911SOL     OW37670   1.599   7.636   6.805  0.2272 -0.5829 -0.4209
10911SOL    HW137671   1.520   7.655   6.856 -0.2285 -0.0752 -1.2869
10911SOL    HW237672   1.654   7.584   6.863 -1.5331 -2.5526 -0.3997
10912SOL     OW37673   7.363   8.249   4.251 -0.1404  1.1811  0.3339
10912SOL    HW137674   7.353   8.286   4.338 -0.6152  0.6071  0.5251
10912SOL    HW237675   7.293   8.290   4.200 -0.2579  1.0359  0.3798
10913SOL     OW37676   1.190   1.969   9.014 -0.6686  0.4144 -0.7465
10913SOL    HW137677   1.157   1.914   8.944 -0.5521 -2.8266  1.5332
10913SOL    HW237678   1.282   1.946   9.022 -1.0409 -0.6797  1.4790
10914SOL     OW37679  10.484   9.597   9.254 -0.0497  0.0843 -0.6054
10914SOL    HW137680  10.510   9.652   9.180  0.4095  2.2248  1.0686
10914SOL    HW237681  10.422   9.651   9.304  1.1798 -0.4818  1.6478
10915SOL     OW37682   4.700   6.165   3.625  0.0786  0.2048 -0.3483
10915SOL    HW137683   4.651   6.161   3.542  0.2815  0.1380 -0.4653
10915SOL    HW237684   4.758   6.088   3.622  1.7644  1.4407 -1.1964
10916SOL     OW37685  10.617   8.338   8.584 -0.1570 -0.7540 -0.2051
10916SOL    HW137686  10.612   8.248   8.552  0.9910 -0.3106 -1.7269
10916SOL    HW237687  10.709   8.362   8.574 -0.5467  0.7719 -0.3212
10917SOL     OW37688   8.791   6.496   7.501 -0.3047 -0.3635 -0.1862
10917SOL    HW137689   8.827   6.581   7.527 -0.3236 -0.0143 -1.2567
10917SOL    HW237690   8.740   6.467   7.577 -0.5982  0.7455  0.0585
10918SOL     OW37691   6.650  11.444   0.251  0.3123 -0.6102  0.2348
10918SOL    HW137692   6.604  11.520   0.286 -1.4441 -2.6995  2.8058
10918SOL    HW237693   6.600  11.369   0.281  2.1821 -2.8762 -1.8479
10919SOL     OW37694   7.326   8.908   7.404  0.8068  0.3878 -0.3290
10919SOL    HW137695   7.266   8.982   7.409  0.4912  0.0845  0.9040
10919SOL    HW237696   7.408   8.946   7.371  0.2327  0.9897 -1.1004
10920SOL     OW37697   8.905   2.456  11.427  0.1483 -0.1416 -0.7119
10920SOL    HW137698   8.894   2.534  11.480 -0.5423  0.0396 -1.1100
10920SOL    HW237699   8.995   2.428  11.443 -0.2455 -0.4731  1.0515
10921SOL     OW37700   0.223   0.199   9.803 -0.2160 -0.5736 -0.0767
10921SOL    HW137701   0.273   0.130   9.846 -0.3734 -1.3200 -1.0516
10921SOL    HW237702   0.175   0.154   9.734 -1.1189  0.3578 -0.0780
10922SOL     OW37703   9.021   6.469   9.859 -0.0720 -0.0491 -0.5141
10922SOL    HW137704   9.056   6.549   9.819  1.4817 -0.6674 -0.4539
10922SOL    HW237705   8.993   6.415   9.786 -0.6963  0.3550 -0.5768
10923SOL     OW37706   2.800   5.066   5.137  0.0896  0.2423 -0.1176
10923SOL    HW137707   2.819   5.103   5.050 -0.0793  0.0740 -0.2261
10923SOL    HW237708   2.886   5.045   5.173  0.1899  0.7739 -0.0410
10924SOL     OW37709   5.306   9.207   8.743 -0.3021  0.4204  0.0685
10924SOL    HW137710   5.388   9.225   8.788 -0.4212  1.1546 -0.0008
10924SOL    HW237711   5.285   9.288   8.697  0.8475 -0.8829 -3.0334
10925SOL     OW37712   9.113   0.920   1.302  0.3020 -0.0122  0.0390
10925SOL    HW137713   9.067   0.971   1.236 -0.6669  1.5734  1.8368
10925SOL    HW237714   9.074   0.832   1.296  0.0488  0.1637 -1.2643
10926SOL     OW37715   9.425  10.380   1.464  0.4007  1.1383  0.4039
10926SOL    HW137716   9.492  10.343   1.406 -0.9113 -0.3091 -0.2545
10926SOL    HW237717   9.473  10.401   1.545  1.7407  0.6177 -0.2177
10927SOL     OW37718   9.164   0.549   0.009  0.5850 -0.1857  0.1474
10927SOL    HW137719   9.076   0.585   0.009  1.1103  1.2443 -1.2977
10927SOL    HW237720   9.181   0.528  -0.083  2.1506  0.6208  0.2253
10928SOL     OW37721   5.656   8.191   6.157 -0.0953  0.5244  0.3155
10928SOL    HW137722   5.740   8.146   6.150 -0.9979 -1.2773  0.2490
10928SOL    HW237723   5.639   8.224   6.069  0.2993  0.4164  0.1972
10929SOL     OW37724  11.624   3.474   0.004 -0.9681 -0.2998  0.4837
10929SOL    HW137725  11.658   3.497  -0.083  0.8176  1.0431  1.4514
10929SOL    HW237726  11.552   3.535   0.019 -0.3755  0.4209  0.4715
10930SOL     OW37727   2.177  11.322   4.177 -0.4174  0.1958  0.0504
10930SOL    HW137728   2.184  11.300   4.270  0.5941 -1.2553 -0.3377
10930SOL    HW237729   2.130  11.249   4.138  0.1963  0.2279 -0.7751
10931SOL     OW37730   8.956   3.965   1.843  0.4730 -0.5000  0.1847
10931SOL    HW137731   8.868   3.969   1.808  0.9592 -0.9515 -1.1471
10931SOL    HW237732   8.944   3.959   1.938 -0.8932  0.0322  0.0660
10932SOL     OW37733   2.093   9.155   8.534 -0.0089 -0.0530  0.3983
10932SOL    HW137734   2.180   9.174   8.499 -0.3660 -0.2508 -0.6439
10932SOL    HW237735   2.107   9.080   8.593  0.4843 -0.2881 -0.0035
10933SOL     OW37736   2.325   8.498   0.661 -0.6016 -0.0437 -0.5991
10933SOL    HW137737   2.325   8.568   0.728  1.0218  1.3889 -2.0022
10933SOL    HW237738   2.330   8.417   0.711  1.3728  1.0082  1.0587
10934SOL     OW37739   2.883   3.173   5.942  0.1016 -0.3193  0.2520
10934SOL    HW137740   2.847   3.155   6.029 -1.1611  0.2865 -0.1202
10934SOL    HW237741   2.977   3.166   5.954  0.1106  1.7240  2.1598
10935SOL     OW37742   9.276   1.800   9.420  0.6961 -0.0800  0.2983
10935SOL    HW137743   9.326   1.881   9.410  0.8471 -0.0383  1.3052
10935SOL    HW237744   9.309   1.743   9.351 -0.4172  1.1832 -1.3764
10936SOL     OW37745   1.693   9.939   0.515  0.1346  0.0893 -0.0568
10936SOL    HW137746   1.650   9.896   0.441  1.2050  1.6222 -1.6238
10936SOL    HW237747   1.628  10.002   0.547 -0.6354 -1.1336  0.8860
10937SOL     OW37748   7.217   7.042   7.896 -0.0859 -0.6858 -0.1590
10937SOL    HW137749   7.164   7.048   7.816 -1.1723 -0.1230  0.5805
10937SOL    HW237750   7.215   6.949   7.918  0.6402 -0.9267 -1.0465
10938SOL     OW37751   7.418   3.434   3.423  0.9241 -0.4007 -0.8544
10938SOL    HW137752   7.502   3.458   3.385  1.3640  0.4447  0.5893
10938SOL    HW237753   7.382   3.516   3.457  1.1631 -1.2569  1.7017
10939SOL     OW37754  10.840  10.767  10.537 -0.6097 -0.3720  0.5893
10939SOL    HW137755  10.786  10.713  10.479 -1.6901  0.1786  1.0440
10939SOL    HW237756  10.910  10.709  10.567  1.0499 -0.2351 -2.5975
10940SOL     OW37757   2.314   3.619   2.680 -0.2904 -0.0021 -0.0838
10940SOL    HW137758   2.314   3.573   2.596 -1.3731 -1.1082  0.4938
10940SOL    HW237759   2.395   3.591   2.722  0.5053  0.9391 -0.9303
10941SOL     OW37760   7.312   7.648   4.939  0.3063 -0.6124  0.7133
10941SOL    HW137761   7.374   7.698   4.992  1.9242 -0.5862 -1.1028
10941SOL    HW237762   7.279   7.711   4.874  0.9064 -1.3977 -0.3875
10942SOL     OW37763   0.121   0.723   4.135 -0.6345  0.1014  0.3551
10942SOL    HW137764   0.122   0.629   4.116  0.3430  0.4915 -1.8465
10942SOL    HW237765   0.038   0.738   4.180 -1.2772 -1.6716 -0.1666
10943SOL     OW37766   6.543  10.722   8.782  0.2606  0.5327  0.2005
10943SOL    HW137767   6.616  10.683   8.831 -1.4313 -0.2720  2.2375
10943SOL    HW237768   6.529  10.662   8.708  0.0227 -0.8164  1.2840
10944SOL     OW37769  10.060  10.806   8.597 -0.4112 -0.3981  0.3842
10944SOL    HW137770   9.981  10.791   8.648 -0.1727 -0.2606  0.7976
10944SOL    HW237771  10.111  10.868   8.649  0.2288 -0.9324  0.4045
10945SOL     OW37772   5.941   1.014  10.658  0.1645  0.0401  0.0460
10945SOL    HW137773   5.923   1.107  10.671 -1.4198 -0.0803 -0.9643
10945SOL    HW237774   6.003   0.991  10.727  0.0760  1.6875  0.7139
10946SOL     OW37775   3.068   8.089   0.388 -0.5809 -0.3359  0.0069
10946SOL    HW137776   3.030   8.006   0.414 -1.1970 -1.0127 -2.7555
10946SOL    HW237777   2.999   8.154   0.404 -0.5249 -0.5213  1.0438
10947SOL     OW37778   1.159  10.084   0.186  0.2544  0.4709 -0.2740
10947SOL    HW137779   1.139  10.156   0.125  1.3109  0.1745 -0.9981
10947SOL    HW237780   1.073  10.053   0.215 -0.2244  1.9005 -0.0901
10948SOL     OW37781   5.010   2.775   2.005 -0.2070 -0.1420 -0.2291
10948SOL    HW137782   5.021   2.689   1.964  1.2003 -0.6325  1.1053
10948SOL    HW237783   4.993   2.757   2.097  0.4689  1.0166  0.1472
10949SOL     OW37784   3.291  10.216   6.890 -0.0049  0.1005  0.2041
10949SOL    HW137785   3.249  10.194   6.973 -1.2476 -0.7800 -0.6336
10949SOL    HW237786   3.360  10.279   6.914 -0.3047 -0.1734  1.8921
10950SOL     OW37787  10.684   5.722   2.656 -0.0989 -1.1205  0.1743
10950SOL    HW137788  10.748   5.664   2.615  1.8601  1.1431 -0.1948
10950SOL    HW237789  10.737   5.788   2.702 -1.9942  2.1812 -1.9273
10951SOL     OW37790   4.314   3.516   4.422  0.2107  0.1049 -0.1694
10951SOL    HW137791   4.405   3.488   4.416  0.2162  0.2806 -0.9567
10951SOL    HW237792   4.315   3.590   4.483  0.9110  1.3934 -1.6842
10952SOL     OW37793   1.056   6.234   9.390  0.0748 -0.0517  0.7670
10952SOL    HW137794   1.143   6.246   9.352 -0.7425 -1.6399 -1.8401
10952SOL    HW237795   1.040   6.140   9.386 -1.4563  0.1203  1.9551
10953SOL     OW37796   1.475   0.913   8.544 -0.2717 -0.2202 -0.2226
10953SOL    HW137797   1.473   0.874   8.456 -1.0864  1.8774 -1.2064
10953SOL    HW237798   1.523   0.995   8.532  0.1925 -0.2141  1.4677
10954SOL     OW37799   4.416   5.108   2.701 -0.1112  0.0421 -0.6232
10954SOL    HW137800   4.459   5.165   2.765  1.1010 -0.2278 -1.1672
10954SOL    HW237801   4.486   5.049   2.671 -1.5813 -2.7508  0.9960
10955SOL     OW37802   3.772  10.566   8.858  0.1797  0.6457  0.5433
10955SOL    HW137803   3.702  10.598   8.801  1.6160  0.6934 -1.3185
10955SOL    HW237804   3.752  10.602   8.944 -3.0329 -0.8273  0.5478
10956SOL     OW37805   7.888   4.342   1.056 -0.7559  0.0832 -0.2521
10956SOL    HW137806   7.882   4.350   1.152 -0.1023  2.0664 -0.3187
10956SOL    HW237807   7.810   4.293   1.032 -2.2774  1.6424  1.1358
10957SOL     OW37808   2.849   5.498   5.557 -0.3346  0.0490  0.4353
10957SOL    HW137809   2.808   5.574   5.516  0.6194  1.1949  1.5258
10957SOL    HW237810   2.786   5.471   5.624  0.9334  2.4151  2.7825
10958SOL     OW37811   8.806   7.917   9.081  0.0759 -0.6463  0.4298
10958SOL    HW137812   8.731   7.859   9.071  0.4134 -0.9248 -0.5866
10958SOL    HW237813   8.791   7.986   9.017  0.1031 -0.0644  1.0458
10959SOL     OW37814   0.081   9.367   1.902  0.5174  0.4986  0.1365
10959SOL    HW137815   0.154   9.336   1.849 -0.3537  0.4263 -1.0535
10959SOL    HW237816   0.036   9.287   1.930 -0.3426  0.5842 -0.9418
10960SOL     OW37817   0.381   9.000   9.802  0.1778  0.3773  0.2794
10960SOL    HW137818   0.457   9.057   9.795  0.3138  0.3450  1.3516
10960SOL    HW237819   0.323   9.045   9.865  0.6281 -0.9998  1.7475
10961SOL     OW37820   8.666   3.146   8.892  0.2927 -0.0578  0.0607
10961SOL    HW137821   8.657   3.054   8.867 -0.3591  0.0487 -0.1062
10961SOL    HW237822   8.580   3.185   8.875 -0.0539  0.1457  2.0114
10962SOL     OW37823   6.323   7.958   5.401  0.1123 -0.0029  0.6195
10962SOL    HW137824   6.413   7.985   5.423  0.1639  0.0587  0.3450
10962SOL    HW237825   6.333   7.871   5.362  0.2010  0.5270 -0.5897
10963SOL     OW37826   1.866   6.583   2.519 -0.0162  0.0877  0.0631
10963SOL    HW137827   1.832   6.494   2.511  0.2077  0.1989 -3.3156
10963SOL    HW237828   1.789   6.638   2.527 -0.1636 -0.2946  1.8796
10964SOL     OW37829   7.151   6.593   9.332 -0.3567  0.2773  0.1375
10964SOL    HW137830   7.176   6.680   9.363 -2.1990  0.8427  0.1599
10964SOL    HW237831   7.163   6.597   9.237 -0.9254  0.7433  0.0795
10965SOL     OW37832  10.960   4.544   8.307 -0.0799 -0.2481 -0.4375
10965SOL    HW137833  10.980   4.516   8.218  1.5475 -0.4955 -0.0405
10965SOL    HW237834  10.973   4.639   8.305 -1.2073 -0.0953 -0.7344
10966SOL     OW37835   5.049  10.202   2.188 -1.0578  0.0420 -0.1267
10966SOL    HW137836   4.981  10.148   2.148 -0.0536  0.2754 -2.3545
10966SOL    HW237837   5.033  10.290   2.153  1.1845 -0.1776 -1.9573
10967SOL     OW37838   0.672   6.519   4.474 -0.0742 -0.1969 -0.5645
10967SOL    HW137839   0.646   6.574   4.548 -0.9540  0.3141 -1.2307
10967SOL    HW237840   0.663   6.430   4.507  1.6494  0.0062  0.6254
10968SOL     OW37841   5.168   7.423   8.948  1.0308 -0.0004 -0.3427
10968SOL    HW137842   5.202   7.449   8.862  1.7379  1.0421  0.2219
10968SOL    HW237843   5.234   7.456   9.010  0.6773 -0.9859  0.5829
10969SOL     OW37844   3.350  10.917   4.973  0.5779  0.1762 -0.0153
10969SOL    HW137845   3.289  10.987   4.948  0.3732  0.6626  1.7144
10969SOL    HW237846   3.296  10.854   5.021  0.9227 -0.7997 -0.8588
10970SOL     OW37847   1.993   8.395   0.760 -0.1692  0.4495 -0.2315
10970SOL    HW137848   2.086   8.413   0.769 -0.0489 -0.2548 -0.0487
10970SOL    HW237849   1.965   8.370   0.848 -0.6034  0.9652 -0.2135
10971SOL     OW37850   7.843   8.756   2.395  0.6588 -0.1527  0.4632
10971SOL    HW137851   7.900   8.773   2.320 -0.8605 -0.7471 -0.8955
10971SOL    HW237852   7.872   8.671   2.429 -1.2156 -2.0324 -2.1478
10972SOL     OW37853   1.169   7.691   0.267 -0.2670  0.2678  0.0136
10972SOL    HW137854   1.183   7.596   0.264 -2.2515 -0.0650 -1.0612
10972SOL    HW237855   1.219   7.721   0.343  0.5857 -1.5972  0.2464
10973SOL     OW37856   4.870   7.309  11.349 -0.6602  0.7318 -0.6273
10973SOL    HW137857   4.894   7.397  11.321 -1.5984  1.2946  0.2878
10973SOL    HW237858   4.840   7.319  11.439  2.0893 -0.9973  0.6201
10974SOL     OW37859   1.419   2.466   5.768  0.3284  0.3563  0.0858
10974SOL    HW137860   1.506   2.427   5.760  0.1956 -0.3975  1.8342
10974SOL    HW237861   1.360   2.403   5.726  0.4935  0.3249 -0.1001
10975SOL     OW37862  10.310   4.771   1.430  0.0513  0.3062  0.1557
10975SOL    HW137863  10.249   4.773   1.357 -0.9706 -0.2393  0.9557
10975SOL    HW237864  10.255   4.755   1.507  1.3390 -2.0815  0.7013
10976SOL     OW37865  10.541   5.767   9.364 -0.1330 -0.0688 -0.1069
10976SOL    HW137866  10.452   5.736   9.348 -0.1102  0.5331 -1.4979
10976SOL    HW237867  10.530   5.861   9.382  0.2371  0.0585 -0.5348
10977SOL     OW37868   0.568   0.540   8.904  0.5913  0.1123  0.5966
10977SOL    HW137869   0.538   0.620   8.946 -0.7100 -0.1813  0.2726
10977SOL    HW237870   0.493   0.509   8.854  1.6161 -0.3664 -0.7146
10978SOL     OW37871   9.143   4.304   2.543  0.4804  0.0208 -0.3848
10978SOL    HW137872   9.103   4.351   2.616  3.2018  0.3926  1.0105
10978SOL    HW237873   9.092   4.223   2.535 -0.8352  0.6897  0.8513
10979SOL     OW37874   5.995   9.120   2.560 -0.0116  0.0942 -0.3972
10979SOL    HW137875   5.919   9.146   2.610  1.5144 -0.1598  2.2312
10979SOL    HW237876   5.999   9.182   2.487 -1.2481  1.7185  0.8637
10980SOL     OW37877   8.829   7.723   3.601 -0.1345 -1.1423  0.2767
10980SOL    HW137878   8.823   7.644   3.546 -0.8905 -1.1567  0.3736
10980SOL    HW237879   8.744   7.728   3.645 -0.1477 -0.1881  0.1583
10981SOL     OW37880   6.917  10.766   6.828  0.1364  0.2520  0.4438
10981SOL    HW137881   6.824  10.754   6.807 -0.0579 -0.9191  1.8151
10981SOL    HW237882   6.960  10.691   6.785  0.2094 -0.1441  1.1947
10982SOL     OW37883  11.086   8.777   4.692 -0.7421 -0.1605 -0.1772
10982SOL    HW137884  11.142   8.846   4.726 -0.2313 -0.3958 -0.5372
10982SOL    HW237885  11.146   8.705   4.670 -1.4505 -1.8563  2.8022
10983SOL     OW37886   1.048   2.138   3.979  0.2254 -0.1708 -0.3829
10983SOL    HW137887   1.044   2.046   4.004 -0.9080  0.5007  2.3536
10983SOL    HW237888   1.117   2.174   4.035 -2.0370  1.3240  1.6700
10984SOL     OW37889   4.679   8.009   3.705 -0.2091  0.0983  0.7583
10984SOL    HW137890   4.771   7.982   3.709 -0.0193 -0.0004 -2.1538
10984SOL    HW237891   4.647   7.973   3.623 -2.3421  1.7448  0.7861
10985SOL     OW37892   6.645   8.313   4.300 -0.4202  0.3775 -0.0110
10985SOL    HW137893   6.567   8.258   4.309 -0.7400  0.8608  0.2623
10985SOL    HW237894   6.660   8.346   4.389  0.1716  0.1912 -0.0401
10986SOL     OW37895   5.166  10.582   4.557  0.1713 -0.0352  0.7737
10986SOL    HW137896   5.248  10.577   4.606  0.6795  1.7238  0.1817
10986SOL    HW237897   5.109  10.636   4.612  0.5804  1.5327 -0.2723
10987SOL     OW37898   0.898   1.230  11.060  0.3631  0.3834  0.2110
10987SOL    HW137899   0.944   1.219  10.977  1.5699  1.2157  0.7349
10987SOL    HW237900   0.966   1.260  11.121 -0.3259 -0.9472  1.6952
10988SOL     OW37901   1.474   9.728   3.489  0.0744  0.2532  0.0611
10988SOL    HW137902   1.389   9.689   3.466 -0.3377  1.1513  0.0240
10988SOL    HW237903   1.534   9.695   3.423 -0.5097  0.5675 -0.6413
10989SOL     OW37904  10.576   9.713   7.324  0.1755 -0.3235  0.0605
10989SOL    HW137905  10.500   9.772   7.330 -0.2739 -0.4140 -3.0538
10989SOL    HW237906  10.542   9.627   7.348 -0.2142 -0.0416  0.5398
10990SOL     OW37907   2.234   8.597   7.238 -0.1316 -0.3215 -0.2493
10990SOL    HW137908   2.232   8.525   7.175  0.3330  0.2050 -0.8854
10990SOL    HW237909   2.308   8.578   7.296 -0.1019 -0.4328 -0.3240
10991SOL     OW37910   7.880   3.813   4.636 -0.2518 -0.0241 -0.4486
10991SOL    HW137911   7.839   3.873   4.574 -2.7885 -1.5519 -0.4012
10991SOL    HW237912   7.869   3.854   4.721 -1.1620 -0.1040 -0.5165
10992SOL     OW37913   5.896   7.986  10.943  0.4343 -0.0663 -0.3154
10992SOL    HW137914   5.968   8.037  10.983  0.1660  0.3128 -0.3073
10992SOL    HW237915   5.918   7.895  10.962  0.9743  0.0392 -0.4054
10993SOL     OW37916   5.661  11.684   3.802 -0.0933  0.0020  0.2478
10993SOL    HW137917   5.702  11.770   3.810  2.2179 -0.8759 -1.1333
10993SOL    HW237918   5.670  11.661   3.709 -1.4197 -1.3983  0.4085
10994SOL     OW37919  11.050   8.685   5.934  0.2533 -0.2265 -0.0216
10994SOL    HW137920  11.068   8.749   6.002 -1.6763  0.4403 -0.0682
10994SOL    HW237921  11.055   8.733   5.852  1.7352 -0.8358 -0.3080
10995SOL     OW37922  10.533   9.506   6.910 -0.3123 -0.1390  0.6716
10995SOL    HW137923  10.510   9.599   6.910 -1.2178 -0.3285  1.9113
10995SOL    HW237924  10.592   9.496   6.836 -2.6599  0.8094 -1.4807
10996SOL     OW37925   7.960   5.997   4.494  0.0202  0.1796  0.7557
10996SOL    HW137926   7.873   6.025   4.524  0.7179  0.4181  2.6505
10996SOL    HW237927   7.999   5.952   4.569  0.5314 -2.3824 -0.9205
10997SOL     OW37928   7.171   5.513   4.455  0.5042  0.0037  0.3389
10997SOL    HW137929   7.247   5.466   4.487 -0.0392  0.2563  2.1092
10997SOL    HW237930   7.100   5.485   4.513 -1.0219 -1.0175 -1.8847
10998SOL     OW37931   5.706  10.438   7.528  0.1423  0.2488 -0.1376
10998SOL    HW137932   5.765  10.399   7.464 -0.3129 -0.5609 -0.0737
10998SOL    HW237933   5.619  10.406   7.503  0.0562 -0.8235  1.4327
10999SOL     OW37934   7.572   8.234   6.597  0.4780  0.2485  0.2026
10999SOL    HW137935   7.595   8.270   6.683  3.3629 -2.4713  0.7409
10999SOL    HW237936   7.504   8.170   6.615  1.0984 -0.3377  0.5008
11000SOL     OW37937   5.033   5.751   2.276  0.5567  0.4673 -0.1343
11000SOL    HW137938   4.952   5.800   2.262  0.1456 -0.4349 -1.0045
11000SOL    HW237939   5.088   5.775   2.201  0.1517 -0.7928 -0.8464
11001SOL     OW37940   1.253   5.054   9.616 -0.9458 -0.1438  0.1700
11001SOL    HW137941   1.247   5.125   9.680 -0.0837  0.7579 -0.7114
11001SOL    HW237942   1.259   4.975   9.669 -2.2941  0.3784  1.1820
11002SOL     OW37943  10.064   2.988   4.691 -0.0443  0.2308  0.0812
11002SOL    HW137944  10.077   3.075   4.728  1.3498  1.0641 -2.1393
11002SOL    HW237945  10.130   2.934   4.733 -1.2383  0.0310  1.8467
11003SOL     OW37946   0.071  10.112   0.097 -0.1595 -0.3650 -0.1380
11003SOL    HW137947   0.144  10.147   0.150 -0.9452 -1.0527  1.4715
11003SOL    HW237948   0.110  10.038   0.049  0.8442  0.9741 -1.4608
11004SOL     OW37949   8.498   5.514   9.072  0.5194 -0.3251 -0.4004
11004SOL    HW137950   8.583   5.496   9.113  0.3101 -1.6680 -0.4941
11004SOL    HW237951   8.439   5.529   9.145  1.1176  2.2208 -0.3570
11005SOL     OW37952   0.613   2.500   3.454  0.6928 -0.2995  0.4803
11005SOL    HW137953   0.587   2.458   3.535 -0.1259 -1.4140 -0.3241
11005SOL    HW237954   0.550   2.468   3.389  2.0547 -0.4084 -0.8537
11006SOL     OW37955   6.234   9.931   9.944  0.0054  0.6401  0.0834
11006SOL    HW137956   6.206  10.023   9.948 -0.6126  0.4326  1.2580
11006SOL    HW237957   6.270   9.913  10.031  1.5749  0.1835 -0.6191
11007SOL     OW37958   0.170   3.564   9.636 -0.5993  0.1592  0.0505
11007SOL    HW137959   0.258   3.543   9.603 -0.5599 -1.6621  1.1945
11007SOL    HW237960   0.112   3.501   9.592 -0.5810 -2.1402  3.0091
11008SOL     OW37961   9.206   9.537   9.805  0.0499  0.3486  0.4803
11008SOL    HW137962   9.237   9.517   9.894  2.5769 -0.5750 -0.5140
11008SOL    HW237963   9.279   9.582   9.764  0.1677 -1.8533 -2.0172
11009SOL     OW37964   1.609   8.505  11.146 -0.2748 -0.2714 -0.3321
11009SOL    HW137965   1.704   8.506  11.138  0.1758  2.1646  3.1594
11009SOL    HW237966   1.592   8.438  11.213 -0.6996  1.1702  1.0424
11010SOL     OW37967   2.080  10.229   9.136 -0.0854 -0.1456 -0.4223
11010SOL    HW137968   2.123  10.315   9.135 -1.1055  0.3770 -1.2448
11010SOL    HW237969   2.128  10.180   9.202 -1.6943  2.2035  2.7674
11011SOL     OW37970   8.532   7.433  10.074 -0.3584  0.2269 -0.2198
11011SOL    HW137971   8.507   7.431   9.982 -1.1464  0.1326 -0.0189
11011SOL    HW237972   8.503   7.348  10.108  0.1758  0.1530  0.0507
11012SOL     OW37973   1.164   9.154   8.555  0.0346 -0.1480 -0.0969
11012SOL    HW137974   1.219   9.233   8.548  1.0442 -0.5574  2.0933
11012SOL    HW237975   1.101   9.176   8.624  0.0898 -1.1082  0.2678
11013SOL     OW37976   8.290   9.389   7.389 -0.0986  0.5354 -0.6865
11013SOL    HW137977   8.227   9.330   7.348 -0.0277 -1.6971  2.0967
11013SOL    HW237978   8.241   9.469   7.406 -1.2615  0.0054 -1.4260
11014SOL     OW37979   9.281   8.095   0.515 -0.5845  0.3728 -0.0724
11014SOL    HW137980   9.307   8.184   0.538  0.7776  0.1420 -0.6370
11014SOL    HW237981   9.297   8.089   0.420 -1.6498 -0.1512 -0.2337
11015SOL     OW37982   7.836   0.493   2.093  0.0371 -0.2034 -0.1799
11015SOL    HW137983   7.864   0.564   2.036 -1.3244  0.0034 -0.6210
11015SOL    HW237984   7.912   0.476   2.150  1.4411 -0.4089 -2.0095
11016SOL     OW37985   3.112   1.916   8.549  0.2352 -0.4661  0.2377
11016SOL    HW137986   3.059   1.983   8.506 -1.1024 -0.8220  1.2734
11016SOL    HW237987   3.187   1.904   8.491  0.6633  2.0955  0.1245
11017SOL     OW37988   7.251   1.739   4.403 -0.1748 -1.3213 -0.7550
11017SOL    HW137989   7.324   1.684   4.376 -0.1302 -1.5832 -0.1242
11017SOL    HW237990   7.196   1.682   4.457  0.1883 -0.6120  0.4158
11018SOL     OW37991  10.637  10.112   3.582 -0.1949 -0.0772  0.1027
11018SOL    HW137992  10.572  10.156   3.528 -0.9740  0.6592  1.5881
11018SOL    HW237993  10.668  10.179   3.643  2.3152 -0.2772 -0.8204
11019SOL     OW37994   2.929   2.925   7.835  0.2519 -0.0924  0.3152
11019SOL    HW137995   2.992   2.884   7.776 -0.3827  1.9132 -1.9345
11019SOL    HW237996   2.844   2.911   7.793 -0.6510 -1.1649  2.3539
11020SOL     OW37997  11.132  10.258   6.566  0.6680  0.5589 -0.1784
11020SOL    HW137998  11.146  10.280   6.658  1.0349 -0.2035 -0.0491
11020SOL    HW237999  11.204  10.301   6.519  2.9960 -2.4359  0.3596
11021SOL     OW38000  10.215  11.592  11.241 -0.8892 -0.0836 -0.2376
11021SOL    HW138001  10.128  11.555  11.226 -0.7194 -0.9504  0.8608
11021SOL    HW238002  10.201  11.687  11.234 -1.5269 -0.2701 -2.0249
11022SOL     OW38003   8.880  10.332   5.011 -0.0122 -0.6250 -0.5003
11022SOL    HW138004   8.789  10.304   5.026 -0.0314 -0.1273  0.3862
11022SOL    HW238005   8.876  10.428   5.013  0.6469 -0.6020  0.3232
11023SOL     OW38006   1.237   0.048   2.432 -0.1825 -0.9634  0.4712
11023SOL    HW138007   1.193   0.133   2.435 -1.5038 -1.6256  1.6401
11023SOL    HW238008   1.302   0.056   2.363 -0.2043  1.0258  0.6315
11024SOL     OW38009   2.975   4.384   2.224 -0.1900  0.0720 -0.1977
11024SOL    HW138010   2.942   4.350   2.141  0.7273 -0.0236 -0.5357
11024SOL    HW238011   2.967   4.479   2.215  1.8881  0.1882 -1.2842
11025SOL     OW38012   8.289   4.097   1.647  0.7245 -0.2891 -0.4839
11025SOL    HW138013   8.326   4.049   1.573 -2.6735 -0.5219 -2.1939
11025SOL    HW238014   8.297   4.189   1.622 -1.0476 -0.3853 -1.5882
11026SOL     OW38015  10.956   9.794  11.433  0.6642  0.0034 -0.1245
11026SOL    HW138016  11.011   9.726  11.395 -0.3990 -1.6689  1.1781
11026SOL    HW238017  10.870   9.753  11.443 -0.3871  1.9703 -0.4979
11027SOL     OW38018   4.789   8.404   2.877 -0.0681 -0.0486  0.1959
11027SOL    HW138019   4.843   8.441   2.807 -0.5977  0.5077  0.0667
11027SOL    HW238020   4.759   8.480   2.927  1.9988 -0.5232  2.3578
11028SOL     OW38021  11.498   4.472   2.372 -0.2889  0.2247  0.6239
11028SOL    HW138022  11.473   4.564   2.360  0.1698  0.2116 -0.6305
11028SOL    HW238023  11.424   4.433   2.419 -0.7542  1.1050  0.6457
11029SOL     OW38024   0.171   4.802   9.844  0.2567  0.1657  0.3906
11029SOL    HW138025   0.250   4.789   9.792  1.2256  1.5282  1.4163
11029SOL    HW238026   0.204   4.817   9.933 -1.2494 -0.5433  1.1002
11030SOL     OW38027   4.683  11.624   5.129 -0.1012  0.0039 -0.4559
11030SOL    HW138028   4.615  11.557   5.136 -0.1814  0.1723  0.5477
11030SOL    HW238029   4.751  11.595   5.191 -0.0574  0.7517 -0.1498
11031SOL     OW38030   3.662   8.566   4.227  0.4969 -0.1579 -0.1316
11031SOL    HW138031   3.679   8.563   4.132  0.0463  2.0587 -0.3273
11031SOL    HW238032   3.620   8.651   4.241  1.1168 -0.1834  2.1673
11032SOL     OW38033   5.197  10.918   5.154 -0.4990 -0.3914  0.2363
11032SOL    HW138034   5.244  10.835   5.149 -2.2568 -1.3778 -1.3420
11032SOL    HW238035   5.206  10.946   5.245 -1.0934 -3.0608  1.1771
11033SOL     OW38036   1.511   6.902  10.668 -0.6331 -0.2247  0.1926
11033SOL    HW138037   1.540   6.936  10.753  0.2216 -2.1995  0.7515
11033SOL    HW238038   1.565   6.949  10.604 -1.1566  1.1477  0.7150
11034SOL     OW38039   5.364   0.594   4.589  0.1890 -0.7123  0.3684
11034SOL    HW138040   5.271   0.573   4.582  0.0003 -0.0983  0.9262
11034SOL    HW238041   5.365   0.686   4.615  0.9634 -0.5583 -0.1735
11035SOL     OW38042  10.478   8.316   3.966 -0.2525  0.0525 -0.3324
11035SOL    HW138043  10.435   8.232   3.953  0.4967 -0.5560  0.8969
11035SOL    HW238044  10.443   8.372   3.897 -0.8957 -1.2077 -1.0674
11036SOL     OW38045  11.414   4.032  11.525 -0.2764  0.3131  0.0687
11036SOL    HW138046  11.471   3.968  11.568 -1.9237 -0.5856  1.0479
11036SOL    HW238047  11.398   3.996  11.438  1.5939  1.2103 -0.7020
11037SOL     OW38048   7.284   3.132   7.850 -0.4299  0.0636  0.0878
11037SOL    HW138049   7.352   3.093   7.795  0.1558  1.0861  0.0798
11037SOL    HW238050   7.310   3.109   7.939 -0.0526  0.4914  0.0872
11038SOL     OW38051   3.517   4.645   9.800  0.3443 -0.3304  0.0485
11038SOL    HW138052   3.609   4.641   9.771  0.5554  2.8517 -0.0832
11038SOL    HW238053   3.466   4.642   9.719  0.1834 -2.7489  0.1488
11039SOL     OW38054   3.097   1.547  10.069 -0.3628  0.4508 -0.3136
11039SOL    HW138055   3.005   1.549  10.094 -0.0262  2.4038  1.0335
11039SOL    HW238056   3.099   1.588   9.982 -1.0753 -2.7546 -2.0058
11040SOL     OW38057  11.311   2.493   5.270 -0.9740  0.6757 -0.1536
11040SOL    HW138058  11.251   2.467   5.201  0.6514 -0.6874 -1.1347
11040SOL    HW238059  11.333   2.412   5.316  1.7637  0.6748 -1.2467
11041SOL     OW38060   4.139   4.701   1.813 -0.3903  0.2215 -0.0155
11041SOL    HW138061   4.184   4.773   1.858  0.8390 -1.5126  1.7190
11041SOL    HW238062   4.052   4.698   1.854 -0.3792  0.5671  0.0409
11042SOL     OW38063   2.814   6.425   4.485  0.2069 -0.0326  0.6975
11042SOL    HW138064   2.749   6.427   4.415  0.0014 -1.3707  0.8369
11042SOL    HW238065   2.766   6.394   4.562  0.6459  0.5222  1.2151
11043SOL     OW38066   6.890   5.592   6.549  0.4882  0.1393  0.7472
11043SOL    HW138067   6.889   5.628   6.460 -1.2201  0.1911  0.7424
11043SOL    HW238068   6.982   5.593   6.574  1.3450 -1.9425 -1.8310
11044SOL     OW38069   7.622   5.452   6.626  0.3092 -0.3974  0.2536
11044SOL    HW138070   7.565   5.377   6.610 -0.7874  0.2775  0.8515
11044SOL    HW238071   7.607   5.475   6.718 -0.9986  1.8506 -0.4431
11045SOL     OW38072   2.695   1.478  11.464 -0.0500 -0.1679 -0.3213
11045SOL    HW138073   2.679   1.535  11.539 -1.6392 -1.3411  0.2898
11045SOL    HW238074   2.790   1.479  11.453  0.4046 -1.0353  2.6326
11046SOL     OW38075   3.732  10.865  10.441  0.6633 -0.0259  0.0695
11046SOL    HW138076   3.821  10.897  10.455  0.0175  1.1564  1.9151
11046SOL    HW238077   3.689  10.936  10.393  0.1320  0.5051  1.2574
11047SOL     OW38078   4.086   8.289   2.510  0.3627 -0.0638  0.3601
11047SOL    HW138079   4.048   8.369   2.547 -1.0496 -0.4913 -0.0812
11047SOL    HW238080   4.172   8.316   2.479  0.1010  1.1848  0.6452
11048SOL     OW38081   3.696   4.557   8.384  0.1917 -0.8576  0.0532
11048SOL    HW138082   3.615   4.506   8.388  0.2969 -0.9462  2.4433
11048SOL    HW238083   3.755   4.514   8.445  1.7717 -0.2838 -0.9959
11049SOL     OW38084   9.207   9.262   4.569  0.2751 -0.3990 -0.5080
11049SOL    HW138085   9.160   9.324   4.513  0.3150 -0.5525 -0.7126
11049SOL    HW238086   9.141   9.233   4.632  0.8864  1.8820  1.3369
11050SOL     OW38087   9.569   8.334   9.309 -0.2220  0.1250 -0.3462
11050SOL    HW138088   9.514   8.271   9.355  0.1678 -0.7048 -0.9877
11050SOL    HW238089   9.561   8.414   9.360 -1.6418 -0.1059 -0.1702
11051SOL     OW38090   9.732   6.784  10.986 -0.7986 -0.1341 -0.2948
11051SOL    HW138091   9.671   6.752  10.921 -1.7208  3.3119 -1.3670
11051SOL    HW238092   9.805   6.821  10.934  0.0348 -0.2249  0.7713
11052SOL     OW38093   7.253   4.784   0.800  0.1322 -0.1059 -0.0817
11052SOL    HW138094   7.316   4.805   0.731  0.4640 -1.8505 -0.3483
11052SOL    HW238095   7.176   4.751   0.752 -0.4235  0.5701  0.3158
11053SOL     OW38096   6.796   5.595   9.230 -0.0636 -0.0861 -0.0341
11053SOL    HW138097   6.735   5.576   9.159  0.1463 -2.6398  0.3575
11053SOL    HW238098   6.743   5.641   9.295 -0.5559  1.2032 -1.3160
11054SOL     OW38099   7.785  10.968   5.985  0.3036 -0.1031 -0.0178
11054SOL    HW138100   7.816  11.027   6.054 -0.3542 -0.6599  0.7650
11054SOL    HW238101   7.866  10.933   5.946  0.7122  1.5004 -0.6917
11055SOL     OW38102  11.540  10.985   4.599 -0.2747 -0.3406 -0.3529
11055SOL    HW138103  11.605  11.054   4.607  0.3182 -0.8100 -1.0220
11055SOL    HW238104  11.462  11.020   4.643  1.0679 -0.6367  2.4163
11056SOL     OW38105   0.329   0.041   3.084  0.2477 -0.2826  0.2087
11056SOL    HW138106   0.332   0.108   3.152  1.4035 -1.2357  1.1358
11056SOL    HW238107   0.379   0.077   3.012  0.2290  0.1538  0.4099
11057SOL     OW38108   0.490   0.862   5.162  0.8781 -0.1359  0.5367
11057SOL    HW138109   0.481   0.783   5.215  2.0987 -0.8510 -0.2800
11057SOL    HW238110   0.467   0.835   5.074  0.4972  0.6346  0.3910
11058SOL     OW38111   5.479   5.693   1.033  0.3924 -0.1054  0.3355
11058SOL    HW138112   5.428   5.774   1.036  0.9157  0.2038  1.3369
11058SOL    HW238113   5.557   5.715   0.982  0.2947 -0.1195  0.1801
11059SOL     OW38114   7.230   8.700   0.872 -0.5735 -0.0153  0.0378
11059SOL    HW138115   7.318   8.695   0.911 -0.6044  0.6999  0.2035
11059SOL    HW238116   7.245   8.734   0.784 -0.8772  2.3904  0.8527
11060SOL     OW38117  10.521   7.748   3.635 -0.1040 -0.0611  0.6340
11060SOL    HW138118  10.526   7.808   3.560  0.0398 -1.0517 -0.1623
11060SOL    HW238119  10.446   7.692   3.616  0.7031 -1.1463  0.5998
11061SOL     OW38120  10.556   8.642   6.072 -0.4403  0.0135  0.2702
11061SOL    HW138121  10.573   8.565   6.019 -0.0884  0.0843  0.2758
11061SOL    HW238122  10.640   8.687   6.076 -0.6208  0.3491  0.3435
11062SOL     OW38123   2.086  11.691   0.748  0.5785  0.2297  0.7550
11062SOL    HW138124   2.031  11.755   0.703 -0.9834 -1.5493 -0.0032
11062SOL    HW238125   2.161  11.678   0.689 -0.7885 -1.1018 -0.7586
11063SOL     OW38126   8.089   7.312   8.202 -0.2940 -0.0781  0.3559
11063SOL    HW138127   7.997   7.302   8.178 -0.2941  0.4729  0.1296
11063SOL    HW238128   8.134   7.329   8.119  0.0763 -0.7491  0.4069
11064SOL     OW38129   1.691   4.475   7.024  0.2355  0.1551 -0.0224
11064SOL    HW138130   1.729   4.431   6.948  0.5345 -0.5746  0.5311
11064SOL    HW238131   1.662   4.559   6.991 -0.6720 -0.5889 -1.2025
11065SOL     OW38132   6.232   6.768   9.105 -0.6169  1.0217 -0.5417
11065SOL    HW138133   6.246   6.816   9.024  1.4422 -0.1085 -0.9101
11065SOL    HW238134   6.223   6.677   9.078 -1.1114  0.7662  0.4259
11066SOL     OW38135   2.334   9.015   7.043 -0.2019 -0.0060 -0.8335
11066SOL    HW138136   2.350   8.928   7.006 -0.4612 -0.3512 -0.1541
11066SOL    HW238137   2.245   9.037   7.017 -1.3480 -1.3532  1.6481
11067SOL     OW38138  10.065   0.201   1.423  0.0487 -0.0468 -0.1306
11067SOL    HW138139   9.977   0.214   1.459  0.5344  0.2469  0.9632
11067SOL    HW238140  10.094   0.289   1.397  1.0204  0.2698  1.8878
11068SOL     OW38141  10.034   5.276  11.369 -0.1074  0.0111 -0.5003
11068SOL    HW138142  10.060   5.362  11.335 -0.8351 -0.4279 -2.2770
11068SOL    HW238143  10.110   5.220  11.354 -0.0072  0.0888 -0.2949
11069SOL     OW38144   1.014   6.458   8.859 -0.2997 -0.0604 -0.0053
11069SOL    HW138145   1.035   6.547   8.832  0.6563 -0.6714 -1.4338
11069SOL    HW238146   1.033   6.405   8.781 -2.9478 -1.2580  0.0483
11070SOL     OW38147   6.621   1.646   8.980  0.2947 -0.0002 -0.9001
11070SOL    HW138148   6.633   1.656   8.885 -1.1779  0.9366 -1.0190
11070SOL    HW238149   6.530   1.616   8.990  0.1617  0.7127  0.2426
11071SOL     OW38150   3.911   6.582   6.169 -0.3953  0.4159  0.1894
11071SOL    HW138151   3.831   6.540   6.201 -0.3221 -0.6750 -0.9444
11071SOL    HW238152   3.890   6.675   6.168 -0.7654  0.4069  2.2676
11072SOL     OW38153  11.667   3.964   7.552 -0.0926  0.0046  0.3506
11072SOL    HW138154  11.700   4.012   7.628 -0.0747 -0.7026  0.7914
11072SOL    HW238155  11.617   3.891   7.589 -1.2863  0.4618 -0.3070
11073SOL     OW38156   5.752   7.234   4.038  0.0544 -0.3091 -1.1332
11073SOL    HW138157   5.687   7.256   4.104 -0.7445  1.0270 -2.2975
11073SOL    HW238158   5.822   7.298   4.052 -0.2639  0.1879 -1.7540
11074SOL     OW38159   9.696  10.004   7.222  0.2924 -0.5241 -0.2212
11074SOL    HW138160   9.714  10.055   7.300 -0.0782 -1.4842  0.5085
11074SOL    HW238161   9.749  10.045   7.153 -0.3979  1.1371  0.2137
11075SOL     OW38162   3.250   1.213   1.898  0.0729 -0.2908 -0.2276
11075SOL    HW138163   3.159   1.233   1.919 -0.0794 -0.8432 -0.3440
11075SOL    HW238164   3.288   1.298   1.873 -0.7566 -0.2461 -1.4595
11076SOL     OW38165   4.607   8.002   9.489 -0.0952 -0.4725 -0.5292
11076SOL    HW138166   4.591   7.911   9.514  0.0936 -0.3888 -0.1087
11076SOL    HW238167   4.583   8.005   9.396  1.9472 -1.4768 -1.1592
11077SOL     OW38168   5.033   8.648   8.806  0.1586 -0.4621  0.3351
11077SOL    HW138169   5.033   8.553   8.811 -1.0743 -0.4649  0.7617
11077SOL    HW238170   5.015   8.677   8.896 -3.2436  0.0405 -0.3748
11078SOL     OW38171   8.701   3.313   9.576  0.5229  0.1850 -0.7610
11078SOL    HW138172   8.610   3.339   9.562  0.7000  0.3482 -1.6635
11078SOL    HW238173   8.728   3.360   9.655 -0.2802 -0.1577 -0.2699
11079SOL     OW38174   4.217   3.527   0.018 -0.2070  0.2820 -0.4672
11079SOL    HW138175   4.253   3.527   0.107 -0.8637  2.6576 -0.1430
11079SOL    HW238176   4.293   3.536  -0.039  0.1335 -0.2316 -0.1035
11080SOL     OW38177   3.626  10.989   9.068  0.3374  0.1067 -0.0551
11080SOL    HW138178   3.606  11.074   9.030  0.8660  0.3470  0.1898
11080SOL    HW238179   3.720  10.977   9.052 -0.2130 -1.7070 -2.6121
11081SOL     OW38180  10.303   2.371   7.924  0.0857 -0.0285 -0.0401
11081SOL    HW138181  10.321   2.458   7.959 -1.1681  0.4393 -0.4724
11081SOL    HW238182  10.368   2.359   7.855 -0.5466  1.1749 -0.9011
11082SOL     OW38183   9.877   6.911   9.105  0.0829 -0.0826  0.2128
11082SOL    HW138184   9.814   6.930   9.175 -1.4304  1.4482 -1.4852
11082SOL    HW238185   9.938   6.849   9.145 -1.4170 -0.2093  2.5072
11083SOL     OW38186   0.307   2.376   5.527 -0.1910 -0.4838  0.0190
11083SOL    HW138187   0.312   2.285   5.501 -0.7389 -0.8864  1.2449
11083SOL    HW238188   0.335   2.377   5.619 -2.0097  0.2699  0.6187
11084SOL     OW38189   5.624   7.877   5.476  0.3975 -0.2940  0.0213
11084SOL    HW138190   5.646   7.841   5.562  2.5794  0.3162 -0.2125
11084SOL    HW238191   5.646   7.808   5.414  1.2816  0.1645 -0.1941
11085SOL     OW38192   7.448   7.976   6.610 -0.3660  0.0846  0.5297
11085SOL    HW138193   7.490   7.961   6.694 -0.4450  1.5930  0.8762
11085SOL    HW238194   7.504   7.932   6.546  0.2432 -0.2166  1.2600
11086SOL     OW38195  10.089   8.613   3.214 -0.5574 -0.0386  0.5453
11086SOL    HW138196  10.153   8.543   3.225 -0.4418  0.1403  1.0426
11086SOL    HW238197  10.103   8.670   3.289 -1.3308 -0.0219  0.6886
11087SOL     OW38198   5.901   1.302   2.248 -0.0154 -0.4652 -0.0976
11087SOL    HW138199   5.893   1.396   2.232 -1.4351 -0.8465 -1.9376
11087SOL    HW238200   5.968   1.273   2.187 -1.0760 -0.9484 -1.0737
11088SOL     OW38201   9.185   8.076   5.534 -0.4889 -0.2536 -0.5550
11088SOL    HW138202   9.096   8.087   5.502  0.0888  0.7423 -1.8865
11088SOL    HW238203   9.203   7.982   5.524 -1.3670 -0.4654 -0.2596
11089SOL     OW38204   8.453   0.397   8.427  0.0905 -0.2613  0.6338
11089SOL    HW138205   8.474   0.447   8.348 -0.6231 -1.1073 -0.1025
11089SOL    HW238206   8.427   0.464   8.491  0.7335  0.4328  0.1833
11090SOL     OW38207   1.603   2.377   3.047 -0.3817 -0.8877  0.6873
11090SOL    HW138208   1.545   2.399   2.974 -1.5864  0.0763  1.8947
11090SOL    HW238209   1.635   2.462   3.078 -0.9110 -1.1949  2.1048
11091SOL     OW38210   0.269   7.907   2.824 -0.8306 -0.2739 -0.0508
11091SOL    HW138211   0.310   7.982   2.781 -0.0493 -0.7437 -0.1414
11091SOL    HW238212   0.194   7.944   2.871 -1.4181  0.3308 -1.3975
11092SOL     OW38213   9.325   4.201   5.464 -0.0839  0.3011 -0.0017
11092SOL    HW138214   9.278   4.121   5.487 -0.5593  1.1073  1.9926
11092SOL    HW238215   9.315   4.259   5.540  2.7133  1.1640 -0.1474
11093SOL     OW38216   4.681   0.326   2.038  0.1351  0.1412 -0.2267
11093SOL    HW138217   4.732   0.338   1.958  1.3759  1.2426  0.6698
11093SOL    HW238218   4.717   0.247   2.078  0.7985  0.6260  0.1465
11094SOL     OW38219   2.972   6.346   3.800 -0.2150  0.6920 -0.1175
11094SOL    HW138220   2.915   6.290   3.853 -2.2904  2.3097 -0.4842
11094SOL    HW238221   3.021   6.398   3.864 -0.3430  0.4241  0.2018
11095SOL     OW38222   6.953   9.383   3.825  0.7750  0.3737  0.1380
11095SOL    HW138223   6.886   9.354   3.764  0.2080  0.9744  0.4553
11095SOL    HW238224   7.018   9.428   3.771 -1.2017  3.6149  0.2014
11096SOL     OW38225   7.221  11.219   4.503  0.0615  0.2818 -0.1872
11096SOL    HW138226   7.179  11.253   4.581 -3.0995 -0.4644 -1.4119
11096SOL    HW238227   7.275  11.291   4.471 -0.5558  1.4523  1.3122
11097SOL     OW38228   0.683   7.600   6.818 -0.3251 -0.0155  0.4117
11097SOL    HW138229   0.601   7.640   6.790 -0.3287  1.4206  2.3315
11097SOL    HW238230   0.658   7.516   6.857 -1.0470  0.8981  1.9816
11098SOL     OW38231   3.554  10.038   1.494 -0.7033  0.2100  0.0981
11098SOL    HW138232   3.506   9.956   1.501  0.0855 -0.2589  0.1720
11098SOL    HW238233   3.487  10.105   1.484 -1.3218 -0.7006 -2.8178
11099SOL     OW38234   2.573   2.271   4.340 -0.4828  0.1309 -0.1399
11099SOL    HW138235   2.516   2.284   4.415  0.3931  4.1172  0.0616
11099SOL    HW238236   2.514   2.263   4.266 -1.3679  0.9608  0.4479
11100SOL     OW38237   2.680   4.014   5.013 -0.4407  0.2725  0.2325
11100SOL    HW138238   2.642   4.074   5.077 -2.6513  1.0208 -1.6275
11100SOL    HW238239   2.608   3.994   4.953  1.7259  0.5151 -2.6903
11101SOL     OW38240   1.349   9.977   5.805  0.5406 -0.1066  0.6495
11101SOL    HW138241   1.434   9.970   5.761  0.9935 -0.2705  1.5311
11101SOL    HW238242   1.370  10.009   5.892 -0.3271  0.0182  0.8167
11102SOL     OW38243   8.684   1.249   3.840 -0.1275 -0.5318  0.4604
11102SOL    HW138244   8.761   1.192   3.842  0.6624  0.4909  0.1518
11102SOL    HW238245   8.623   1.209   3.901  0.4500 -1.6397  0.3422
11103SOL     OW38246   7.283   6.383  10.801 -0.1613 -0.0175  0.1007
11103SOL    HW138247   7.200   6.423  10.826 -0.2694  0.6761 -1.2480
11103SOL    HW238248   7.344   6.456  10.794  0.1329 -0.3152 -0.5369
11104SOL     OW38249   4.331   8.960   5.220  0.0583  0.2096  0.0171
11104SOL    HW138250   4.314   9.001   5.305  0.7178  0.6118 -0.0373
11104SOL    HW238251   4.397   8.894   5.238  1.3760  1.3536 -0.4266
11105SOL     OW38252  10.504  11.073  11.509 -0.1148  0.5529  0.0783
11105SOL    HW138253  10.503  11.020  11.430 -1.0046  0.6685  0.0070
11105SOL    HW238254  10.420  11.117  11.510 -0.7946 -0.6667  1.9023
11106SOL     OW38255   7.150  10.218   4.304  0.4924  0.5081 -0.7510
11106SOL    HW138256   7.106  10.254   4.228  1.3343  2.0857 -0.5378
11106SOL    HW238257   7.214  10.285   4.329  1.3266 -0.6520  0.3903
11107SOL     OW38258   4.376   6.152   6.216 -0.2319 -0.0970  0.0822
11107SOL    HW138259   4.341   6.241   6.217 -1.4697 -0.5674  0.0801
11107SOL    HW238260   4.351   6.116   6.301  1.7604  0.0948  0.7910
11108SOL     OW38261  11.389   3.488   7.572 -0.5616 -0.3621  0.0216
11108SOL    HW138262  11.354   3.506   7.659 -0.1888  1.0506 -0.1043
11108SOL    HW238263  11.484   3.494   7.583 -0.5317  0.4183 -0.6004
11109SOL     OW38264   5.848   5.388   0.413  0.4496 -0.0541  0.5669
11109SOL    HW138265   5.810   5.450   0.351 -0.8434  0.7297  2.0728
11109SOL    HW238266   5.927   5.432   0.446  1.0114 -0.3763 -0.3007
11110SOL     OW38267  10.145   6.789   6.030 -0.0132  0.8985 -0.7946
11110SOL    HW138268  10.153   6.864   6.089  0.2370  0.3818 -0.1557
11110SOL    HW238269  10.144   6.713   6.088 -1.8286  0.4665 -1.3218
11111SOL     OW38270   8.378   9.048   9.458 -0.3498  0.6423  0.2203
11111SOL    HW138271   8.313   9.105   9.417  0.0471  0.5030 -0.6221
11111SOL    HW238272   8.455   9.054   9.401  0.1607  0.3021  0.8487
11112SOL     OW38273   5.446  10.134   8.015 -0.3949  0.1282 -0.2126
11112SOL    HW138274   5.506  10.072   8.056 -0.9886 -0.7307 -0.6128
11112SOL    HW238275   5.497  10.174   7.945  0.0690  0.2821  0.2053
11113SOL     OW38276   5.739   1.924   5.825  0.0162 -0.1807 -0.1235
11113SOL    HW138277   5.803   1.875   5.876 -0.7866 -1.2868 -0.1462
11113SOL    HW238278   5.769   2.015   5.830  0.8832 -0.5014  0.9107
11114SOL     OW38279   8.935   0.858   9.912 -0.0626  0.5919  0.3453
11114SOL    HW138280   8.864   0.921   9.902  0.5866  1.1205 -1.2140
11114SOL    HW238281   8.991   0.872   9.836  1.4334 -0.1838  1.2541
11115SOL     OW38282  11.460   8.416   4.208  0.3602  0.3267  0.1381
11115SOL    HW138283  11.536   8.436   4.153 -0.1930  0.9544 -0.4068
11115SOL    HW238284  11.400   8.369   4.150  0.3052 -0.1332  0.5598
11116SOL     OW38285   1.589   5.381   0.392 -0.2154  0.1136  0.3970
11116SOL    HW138286   1.502   5.344   0.384 -0.1779  0.1746 -0.3417
11116SOL    HW238287   1.625   5.378   0.303  1.9305 -3.3084  1.1837
11117SOL     OW38288   9.147   3.529   8.622  0.2696 -0.8150 -0.6744
11117SOL    HW138289   9.148   3.434   8.623 -1.0067 -0.8543 -1.0789
11117SOL    HW238290   9.220   3.554   8.566  0.5796 -1.5587 -0.6032
11118SOL     OW38291   2.728  10.923   7.918  0.3060  0.8097 -0.3205
11118SOL    HW138292   2.794  10.864   7.954  2.1311  1.9281 -1.6504
11118SOL    HW238293   2.649  10.905   7.968  0.8709 -2.4945 -0.4421
11119SOL     OW38294   9.049   8.633   6.560 -0.2616 -0.1370 -0.1763
11119SOL    HW138295   9.065   8.631   6.654  0.1529 -0.0941 -0.2436
11119SOL    HW238296   9.133   8.608   6.521 -0.2318  0.5420 -0.5545
11120SOL     OW38297   0.189   4.791   0.257 -0.4030 -0.1337 -0.0904
11120SOL    HW138298   0.182   4.700   0.228 -0.3699  0.4148 -1.9509
11120SOL    HW238299   0.243   4.834   0.191 -2.2542  1.7402 -0.5270
11121SOL     OW38300   1.031   8.803   4.432 -0.0310  0.0930 -0.2629
11121SOL    HW138301   1.084   8.881   4.422 -0.0895  0.4150  1.6623
11121SOL    HW238302   1.072   8.738   4.374 -0.4294  1.7141 -2.4682
11122SOL     OW38303  10.981   5.776   7.255  0.1369  0.1651 -0.3964
11122SOL    HW138304  10.976   5.815   7.168  0.8913 -1.7290 -1.3629
11122SOL    HW238305  10.982   5.681   7.239  1.4629 -0.2358  1.5843
11123SOL     OW38306   3.408   4.947   4.720 -0.0766 -0.5683 -0.0638
11123SOL    HW138307   3.368   5.001   4.652  2.4820  1.5559 -0.0675
11123SOL    HW238308   3.346   4.952   4.794 -0.9296  0.5829 -0.8208
11124SOL     OW38309  10.356   0.526   0.710  0.0111  0.0649 -0.6245
11124SOL    HW138310  10.347   0.596   0.645 -0.5074 -0.6876 -1.3890
11124SOL    HW238311  10.300   0.456   0.677  1.0710 -0.9872 -0.2479
11125SOL     OW38312   4.927   7.117   3.285 -0.6900  0.4492 -0.0176
11125SOL    HW138313   5.008   7.166   3.276 -0.9155  0.8336  0.0080
11125SOL    HW238314   4.954   7.031   3.318 -0.5686  1.7477  3.7190
11126SOL     OW38315   8.455  11.025  10.535  0.2388 -0.4401  0.3848
11126SOL    HW138316   8.393  11.033  10.608 -1.6439  0.8157 -1.2437
11126SOL    HW238317   8.482  10.933  10.536  1.0541 -0.2577  3.1994
11127SOL     OW38318   1.880   0.367   8.536  0.3234 -0.4643 -0.1050
11127SOL    HW138319   1.921   0.426   8.600  1.8520 -0.3218 -1.1428
11127SOL    HW238320   1.879   0.282   8.579 -0.6208  0.0213  0.8868
11128SOL     OW38321   3.966   2.424   8.277  0.1250 -0.3456 -0.4134
11128SOL    HW138322   4.056   2.390   8.274  0.2337 -0.0564 -0.4586
11128SOL    HW238323   3.927   2.381   8.353  0.1039 -0.9562 -0.7644
11129SOL     OW38324   5.451   7.192   4.460 -0.4140  0.6429 -0.1425
11129SOL    HW138325   5.466   7.104   4.493 -1.2835  1.2811  2.1745
11129SOL    HW238326   5.379   7.182   4.398 -0.8890 -0.2413  0.5176
11130SOL     OW38327   5.326   3.627   4.242 -0.0983 -0.0508 -0.2596
11130SOL    HW138328   5.392   3.696   4.244  0.5694 -0.5950 -1.7932
11130SOL    HW238329   5.280   3.640   4.159 -1.1791 -0.3593  0.2750
11131SOL     OW38330   2.184   5.144   7.560 -0.2500  0.0872 -0.4557
11131SOL    HW138331   2.271   5.142   7.600  0.0619  2.4643 -0.8730
11131SOL    HW238332   2.199   5.175   7.471 -1.5247  0.4655 -0.5558
11132SOL     OW38333   8.579   1.828   4.829 -0.3618  0.0456  0.2034
11132SOL    HW138334   8.667   1.837   4.865 -0.2292 -0.5380  0.0281
11132SOL    HW238335   8.534   1.770   4.891 -0.9569  1.1677  0.8717
11133SOL     OW38336   8.561   4.978   2.477 -0.2771 -0.5029 -0.2949
11133SOL    HW138337   8.547   4.937   2.563  0.2102  0.8503  0.4575
11133SOL    HW238338   8.517   5.063   2.483  2.7094  1.1685 -0.0570
11134SOL     OW38339   6.834   3.476   1.884 -0.4242  0.0939  0.4018
11134SOL    HW138340   6.917   3.432   1.904 -0.6120 -1.1497 -1.3194
11134SOL    HW238341   6.859   3.567   1.867  1.0467 -0.7145 -2.4701
11135SOL     OW38342   2.968  10.807   6.366  0.0431 -0.2746 -0.0259
11135SOL    HW138343   2.878  10.830   6.342 -0.4081 -0.5296  1.3481
11135SOL    HW238344   2.965  10.713   6.384  0.6465 -0.3342 -0.2281
11136SOL     OW38345   3.278   3.597   8.652 -0.4335 -0.2314 -0.3872
11136SOL    HW138346   3.294   3.660   8.582 -0.9220 -0.0337 -0.3266
11136SOL    HW238347   3.364   3.558   8.669  0.2113  1.5211  0.6576
11137SOL     OW38348   8.627   9.563   6.875 -0.0328 -0.1531  0.2910
11137SOL    HW138349   8.619   9.573   6.780 -0.6436  1.4462  0.4679
11137SOL    HW238350   8.593   9.646   6.910 -0.0290 -0.8024  1.9124
11138SOL     OW38351   7.942   9.334   2.352 -0.0891 -0.0055  0.3184
11138SOL    HW138352   8.011   9.399   2.345 -1.3468  1.2625 -0.9607
11138SOL    HW238353   7.919   9.314   2.261 -1.0798 -0.7417  0.7104
11139SOL     OW38354   1.694   3.996   1.081  0.9401  0.4390  0.1539
11139SOL    HW138355   1.681   4.082   1.120 -0.5858  1.5714 -2.5442
11139SOL    HW238356   1.765   4.009   1.018  2.2853 -0.9285  1.3160
11140SOL     OW38357   1.913  11.380   6.501  0.2680  0.2342 -0.1928
11140SOL    HW138358   2.003  11.367   6.471  0.1425 -1.0991 -0.0461
11140SOL    HW238359   1.904  11.321   6.576 -0.6695  0.4914 -0.0915
11141SOL     OW38360   6.488   5.057   5.436 -0.0473  0.1833 -0.5140
11141SOL    HW138361   6.554   4.996   5.402 -0.1597 -0.1873 -0.0749
11141SOL    HW238362   6.521   5.144   5.412  1.6163  0.1418  1.4172
11142SOL     OW38363   9.791  10.415   2.669  0.2017 -0.2484 -0.0596
11142SOL    HW138364   9.820  10.391   2.757  0.2507 -1.5945 -0.4132
11142SOL    HW238365   9.698  10.435   2.680 -0.2100 -2.0606  0.0460
11143SOL     OW38366   2.902   5.856   0.641 -0.0515 -0.1140  0.0353
11143SOL    HW138367   2.983   5.906   0.630  0.4811 -0.1942  2.9037
11143SOL    HW238368   2.919   5.772   0.597  1.5204 -0.1845  0.7262
11144SOL     OW38369   4.594  11.267   7.967 -0.4551 -0.2898  0.0622
11144SOL    HW138370   4.683  11.284   7.937 -0.0970 -1.9675  0.0783
11144SOL    HW238371   4.603  11.248   8.060 -0.6032 -1.8937 -0.2253
11145SOL     OW38372   3.111   7.323  10.379 -0.0171  0.0729  0.3570
11145SOL    HW138373   3.150   7.247  10.335  0.5420 -0.6467  1.9977
11145SOL    HW238374   3.024   7.293  10.406 -0.3284  0.4798 -0.2047
11146SOL     OW38375  11.338   8.245   1.098 -0.1426 -0.3001  0.5756
11146SOL    HW138376  11.243   8.255   1.094 -0.1876 -0.5392  0.9785
11146SOL    HW238377  11.367   8.255   1.007 -0.2883  2.1946  0.7369
11147SOL     OW38378   6.451  11.034   1.112  0.6196 -0.1113  0.1418
11147SOL    HW138379   6.401  11.044   1.032 -0.2866 -0.1895  0.6848
11147SOL    HW238380   6.386  11.011   1.178  1.3386  0.0253  0.9135
11148SOL     OW38381   5.541  10.137  10.512 -0.2227 -0.1925  0.3274
11148SOL    HW138382   5.470  10.179  10.463  0.9222  2.3809  0.6611
11148SOL    HW238383   5.532  10.171  10.601 -0.6850 -2.7291  1.3344
11149SOL     OW38384   0.126   5.892   5.382  0.2235  0.0534 -0.3963
11149SOL    HW138385   0.156   5.966   5.435  1.1987 -0.2905 -0.4466
11149SOL    HW238386   0.058   5.929   5.326  0.9358  1.0044 -0.6700
11150SOL     OW38387   1.158  10.764   6.846 -0.8750  1.0283  0.1276
11150SOL    HW138388   1.192  10.840   6.799 -0.3121  0.2689 -0.7290
11150SOL    HW238389   1.232  10.731   6.896 -0.2955 -0.5957 -1.6951
11151SOL     OW38390   9.956   8.203   7.946  0.1929 -0.2486  0.4498
11151SOL    HW138391   9.969   8.200   8.041 -1.5591 -1.8140  0.6969
11151SOL    HW238392   9.884   8.264   7.933  1.1442  0.8088 -0.0023
11152SOL     OW38393   0.416   5.468   5.831 -0.7721 -0.0140 -0.0591
11152SOL    HW138394   0.453   5.380   5.837  0.1881  0.3283 -0.8032
11152SOL    HW238395   0.343   5.459   5.769  0.9605  0.1997 -2.2474
11153SOL     OW38396   6.208   1.469   4.235 -0.5486 -0.0034  0.4384
11153SOL    HW138397   6.137   1.420   4.277 -1.2624 -0.3279 -1.0883
11153SOL    HW238398   6.215   1.550   4.286 -1.5910 -0.2432  0.9952
11154SOL     OW38399   4.919   5.630   7.918  0.2392 -0.1793  0.6116
11154SOL    HW138400   4.894   5.652   8.008 -1.4498  2.6981 -0.3979
11154SOL    HW238401   4.984   5.561   7.926  0.1320 -0.0194  4.0271
11155SOL     OW38402   6.035   8.839   1.187  0.6389 -0.0280 -0.6993
11155SOL    HW138403   6.072   8.922   1.216  0.1111 -0.2408  0.6598
11155SOL    HW238404   5.942   8.858   1.170  0.7773 -0.0776 -1.5925
11156SOL     OW38405   2.988  11.622  10.021 -0.2410  0.4486  0.2691
11156SOL    HW138406   2.940  11.660  10.094  0.4403  0.8267  0.5365
11156SOL    HW238407   3.058  11.571  10.062 -0.6038 -0.3718 -0.1041
11157SOL     OW38408   2.043   7.377   1.979  0.7341  0.0078 -0.0890
11157SOL    HW138409   2.063   7.292   2.019  1.3861 -0.6108 -1.6521
11157SOL    HW238410   1.956   7.399   2.012 -0.5329 -2.4467 -1.5046
11158SOL     OW38411   3.342   2.117   9.880 -0.7480  0.0028  0.0348
11158SOL    HW138412   3.417   2.177   9.879 -0.1125 -0.7231  1.1911
11158SOL    HW238413   3.310   2.121   9.970  0.7460 -3.0553  0.8416
11159SOL     OW38414   8.574   2.965  11.688  0.0910  0.2188  0.0852
11159SOL    HW138415   8.668   2.966  11.704  0.1427 -1.7895  0.2313
11159SOL    HW238416   8.566   2.956  11.593  0.1080 -0.7353  0.1585
11160SOL     OW38417  10.610   1.875  11.529  0.2141  0.3526  0.0527
11160SOL    HW138418  10.535   1.919  11.569  2.0902  2.1848  1.8240
11160SOL    HW238419  10.679   1.942  11.529  2.2395 -1.6351 -0.3240
11161SOL     OW38420  10.905   9.808   3.287  0.3267  0.2357  0.0669
11161SOL    HW138421  10.840   9.754   3.331 -0.7026  0.9553 -0.5423
11161SOL    HW238422  10.988   9.761   3.300 -0.4130 -1.0799  0.2072
11162SOL     OW38423  10.299   7.594   8.671 -0.2258  0.1514  0.0936
11162SOL    HW138424  10.310   7.648   8.592 -0.3284  0.2931  0.1773
11162SOL    HW238425  10.388   7.562   8.690 -0.0824  0.6943  0.3354
11163SOL     OW38426   0.374   4.079   3.740 -0.4889  0.4417  0.2599
11163SOL    HW138427   0.339   3.989   3.742 -1.7319  0.8871 -0.3336
11163SOL    HW238428   0.468   4.068   3.751 -0.2725 -1.1641 -2.2855
11164SOL     OW38429   8.898  11.533   3.101  0.4471  0.2159 -0.2549
11164SOL    HW138430   8.904  11.546   3.006  1.9546 -3.9473 -0.9549
11164SOL    HW238431   8.814  11.488   3.113 -0.7463  2.5843  0.7841
11165SOL     OW38432  10.417  11.071   7.899  0.0156 -0.7691 -0.0964
11165SOL    HW138433  10.322  11.065   7.911 -0.1694  2.2392  0.6709
11165SOL    HW238434  10.429  11.095   7.808  0.0597 -1.0623 -0.1703
11166SOL     OW38435   1.420   2.941   8.515  0.2256  0.2396  0.0672
11166SOL    HW138436   1.389   2.874   8.453  1.1450  0.1040 -0.2625
11166SOL    HW238437   1.369   3.019   8.493  1.0504  0.4089 -1.3785
11167SOL     OW38438   2.059   0.095   5.672  0.9346  0.1337 -0.0758
11167SOL    HW138439   2.070   0.001   5.683 -2.0488 -0.3369 -0.4568
11167SOL    HW238440   2.144   0.125   5.639  1.5715 -2.6177 -1.2123
11168SOL     OW38441   6.943   1.430   4.132 -0.6631  0.7447  0.5839
11168SOL    HW138442   6.907   1.408   4.218  1.7422  2.1642  2.0682
11168SOL    HW238443   6.900   1.370   4.071 -0.8023 -1.8518  3.0762
11169SOL     OW38444   8.158   8.978   8.456  0.0564 -0.1101  0.0003
11169SOL    HW138445   8.156   9.053   8.516  1.7417 -2.1681  2.8632
11169SOL    HW238446   8.224   9.002   8.391  1.0884  0.6929  1.2743
11170SOL     OW38447   9.231  10.294   2.017  0.2826 -0.5119  0.0942
11170SOL    HW138448   9.309  10.305   2.072  0.9168  1.2343 -1.0556
11170SOL    HW238449   9.195  10.383   2.010 -1.2087 -1.1224 -0.2739
11171SOL     OW38450  10.231   6.305   9.382 -0.1840 -0.1162 -0.0829
11171SOL    HW138451  10.142   6.288   9.351 -1.2413  0.7274  2.2293
11171SOL    HW238452  10.235   6.261   9.467  1.4023  0.3914  0.1371
11172SOL     OW38453   7.720   8.758   3.281 -0.0271  0.3741 -0.4490
11172SOL    HW138454   7.763   8.825   3.228  0.6005  0.6562  0.3784
11172SOL    HW238455   7.634   8.796   3.302 -0.0298  0.5267 -0.7358
11173SOL     OW38456   5.859   3.856   1.175  0.5130 -0.5348  0.0645
11173SOL    HW138457   5.863   3.829   1.084  1.1683 -0.5758  0.1025
11173SOL    HW238458   5.766   3.847   1.199  0.4730 -1.2635 -0.3619
11174SOL     OW38459   6.433   7.077   5.662 -0.3239  0.0962  0.2372
11174SOL    HW138460   6.380   7.007   5.624  0.9929 -0.0937 -1.3548
11174SOL    HW238461   6.491   7.032   5.724  0.5931 -0.2908 -0.8599
11175SOL     OW38462   9.548  10.179   4.538 -0.1994  0.6879  0.1985
11175SOL    HW138463   9.506  10.098   4.568 -0.2336  0.5412 -0.2370
11175SOL    HW238464   9.625  10.149   4.490 -0.7276  0.8704 -0.7932
11176SOL     OW38465   4.128   1.961  11.062 -0.4770  0.7329 -0.6981
11176SOL    HW138466   4.134   1.882  11.008 -0.4816  1.2453 -1.4623
11176SOL    HW238467   4.211   1.964  11.108 -1.2709 -0.8450  0.9547
11177SOL     OW38468   0.322   4.381   1.269 -0.2796  0.0265  0.1130
11177SOL    HW138469   0.249   4.329   1.301 -0.4818  1.0098  1.2945
11177SOL    HW238470   0.294   4.411   1.182 -0.5234 -1.0481 -0.2038
11178SOL     OW38471   9.882   4.996  11.255 -0.2435  0.4370  0.3176
11178SOL    HW138472   9.939   4.999  11.178 -0.2841  0.2507  0.2808
11178SOL    HW238473   9.852   4.906  11.260 -1.1718  0.7178 -0.1138
11179SOL     OW38474   7.592   8.283   9.365  0.0685  0.1381  0.0107
11179SOL    HW138475   7.524   8.257   9.302 -0.3099  1.3733 -0.1311
11179SOL    HW238476   7.621   8.369   9.334  0.4579  0.4013  1.0651
11180SOL     OW38477   8.633   6.766   6.646 -0.5682  0.6551  0.1599
11180SOL    HW138478   8.557   6.740   6.698  0.1122  1.9014  1.8947
11180SOL    HW238479   8.675   6.835   6.698  1.3592  0.4861 -1.0678
11181SOL     OW38480   5.219  11.294   1.652 -0.1167  0.3837  0.1641
11181SOL    HW138481   5.186  11.367   1.599  0.9136  0.0142 -1.0169
11181SOL    HW238482   5.171  11.218   1.619 -0.5182  0.3707  0.7654
11182SOL     OW38483   3.444   3.899  11.203 -0.2478 -0.5951  0.4346
11182SOL    HW138484   3.481   3.966  11.146 -1.3014  0.0541  0.4838
11182SOL    HW238485   3.410   3.947  11.278 -2.5975 -0.9340 -0.3282
11183SOL     OW38486   0.282   7.752   8.210  0.5655 -0.0922  0.3215
11183SOL    HW138487   0.283   7.664   8.247  0.0176 -0.0744  0.3877
11183SOL    HW238488   0.245   7.741   8.123 -0.1199  0.1557  0.5720
11184SOL     OW38489   0.562   7.865   8.757 -0.3935 -0.5798 -0.0973
11184SOL    HW138490   0.588   7.795   8.818  0.6231 -0.1533 -0.0168
11184SOL    HW238491   0.645   7.903   8.728 -0.8902 -0.3210 -1.2283
11185SOL     OW38492   0.329   2.211  10.403 -0.1791 -0.7390  0.6048
11185SOL    HW138493   0.343   2.152  10.328 -1.7956  0.3038 -0.5672
11185SOL    HW238494   0.417   2.231  10.434  0.5210 -1.4570 -0.8232
11186SOL     OW38495   5.343   7.557   1.250  0.0333 -0.4017 -0.4621
11186SOL    HW138496   5.430   7.527   1.222  0.7710  1.3274 -0.1685
11186SOL    HW238497   5.349   7.561   1.346 -0.8605 -1.6257 -0.3384
11187SOL     OW38498  10.151   8.935   9.437 -0.3421 -0.0624 -0.3547
11187SOL    HW138499  10.146   8.972   9.349  0.2822  0.2428 -0.2682
11187SOL    HW238500  10.241   8.903   9.444 -0.9771 -2.0406 -0.5906
11188SOL     OW38501   6.085   7.995   1.293  0.3678 -0.0651  0.0976
11188SOL    HW138502   6.068   8.087   1.316 -0.6641 -0.4845  1.1110
11188SOL    HW238503   6.088   7.995   1.197  1.4907  1.1945  0.0983
11189SOL     OW38504  10.639   8.970   9.858  0.5406  0.1724 -0.2384
11189SOL    HW138505  10.591   8.978   9.940  0.5701  2.4957 -0.3760
11189SOL    HW238506  10.673   9.058   9.841 -0.2445  0.0226 -3.2246
11190SOL     OW38507  10.201   3.079   7.655 -0.1579  0.4942  0.3167
11190SOL    HW138508  10.223   3.044   7.741  0.5768  0.5352  0.1490
11190SOL    HW238509  10.123   3.133   7.670 -1.1317 -0.9336  0.6345
11191SOL     OW38510   3.356   8.206   1.148 -0.1022  0.3874  0.0215
11191SOL    HW138511   3.352   8.286   1.201  1.5805  0.8001 -0.4041
11191SOL    HW238512   3.300   8.226   1.072 -1.0775  0.4823  0.7527
11192SOL     OW38513   8.061   3.681   3.976  0.7121 -0.0756  0.8633
11192SOL    HW138514   8.061   3.770   4.011  2.8661  0.0954  0.5566
11192SOL    HW238515   8.064   3.625   4.054 -0.5547  0.0821  1.0530
11193SOL     OW38516   8.457   8.828   3.801 -0.2529 -0.2516  0.6117
11193SOL    HW138517   8.453   8.756   3.738  0.8761  0.4896 -0.3448
11193SOL    HW238518   8.389   8.889   3.773  2.0148  1.4128 -1.6702
11194SOL     OW38519   0.513   5.586  10.015  0.0240 -0.0013  0.1253
11194SOL    HW138520   0.486   5.505   9.972 -1.2136 -0.1781  1.1709
11194SOL    HW238521   0.533   5.560  10.105  0.4330  0.7216  0.2533
11195SOL     OW38522   4.617   5.802   9.777 -0.0535  0.3771  0.1249
11195SOL    HW138523   4.673   5.767   9.708 -0.2413 -0.5984  0.4586
11195SOL    HW238524   4.574   5.726   9.814 -1.4092  1.0850  0.0529
11196SOL     OW38525   1.829   7.602   7.669 -0.1835  0.2952 -0.1545
11196SOL    HW138526   1.847   7.662   7.596 -1.1915  0.1434 -0.5440
11196SOL    HW238527   1.884   7.526   7.651  0.7328  0.8885  0.0799
11197SOL     OW38528   7.371   4.897   8.719 -0.0977  0.2959 -0.8425
11197SOL    HW138529   7.329   4.973   8.679 -0.4163  0.4374 -0.2556
11197SOL    HW238530   7.371   4.830   8.650  0.7231  1.0093 -1.5564
11198SOL     OW38531   9.363   0.436   2.777 -0.5023 -0.6262 -0.4697
11198SOL    HW138532   9.434   0.455   2.838 -3.1127  0.7615  2.4060
11198SOL    HW238533   9.309   0.372   2.822 -1.2386 -1.4933 -2.4880
11199SOL     OW38534   8.545   2.275   1.643  0.5032 -0.2271  0.1214
11199SOL    HW138535   8.518   2.360   1.679  0.7270  0.4034 -1.1292
11199SOL    HW238536   8.634   2.290   1.611 -0.7667  0.2608 -3.6400
11200SOL     OW38537   2.190   9.057   4.830 -0.0107 -0.1000 -0.4620
11200SOL    HW138538   2.098   9.082   4.833  0.2596  0.7901  1.4967
11200SOL    HW238539   2.206   9.009   4.911  1.8996  2.3683  0.7548
11201SOL     OW38540   8.751   0.052  10.843 -0.0293 -0.4987  0.4822
11201SOL    HW138541   8.726   0.138  10.810 -2.3802 -1.0022  0.8096
11201SOL    HW238542   8.847   0.055  10.846  0.2428  0.6169 -3.5270
11202SOL     OW38543   8.689  10.519   0.293 -0.0735 -0.4934 -0.1010
11202SOL    HW138544   8.723  10.585   0.354 -2.8649  0.6005  0.4294
11202SOL    HW238545   8.670  10.568   0.213  1.6249 -1.5337 -1.2155
11203SOL     OW38546  10.677   0.400   0.200 -0.1704 -0.4057  0.3908
11203SOL    HW138547  10.765   0.436   0.207  0.4307 -1.8019  0.3263
11203SOL    HW238548  10.678   0.321   0.255 -0.0793 -2.7265 -2.6334
11204SOL     OW38549  10.279   4.147   3.042 -0.3013 -0.4254 -0.1597
11204SOL    HW138550  10.188   4.128   3.066 -0.4530  1.6255  1.1547
11204SOL    HW238551  10.328   4.071   3.072 -1.4332 -1.0145  0.2616
11205SOL     OW38552   7.846   0.400   2.512 -0.1173  0.4981  0.1435
11205SOL    HW138553   7.933   0.362   2.495 -0.1666  0.5521 -0.2306
11205SOL    HW238554   7.860   0.495   2.503  0.2877  0.6979  2.2772
11206SOL     OW38555   1.360   1.540   0.704 -0.0708  0.5304 -0.0200
11206SOL    HW138556   1.409   1.552   0.623  1.0245  1.3714  0.7387
11206SOL    HW238557   1.348   1.629   0.738 -0.2413  0.1717  0.8865
11207SOL     OW38558   6.563   3.894   2.795  0.2767 -0.2688 -0.3419
11207SOL    HW138559   6.620   3.836   2.845  0.0488  0.2049  0.4850
11207SOL    HW238560   6.620   3.931   2.727  0.6289 -0.7938 -0.3371
11208SOL     OW38561   4.444   7.225   0.042  0.3943  0.1093 -0.2781
11208SOL    HW138562   4.423   7.284  -0.031 -2.8483  0.6552  0.9369
11208SOL    HW238563   4.359   7.200   0.077  1.8129 -1.7839  2.0587
11209SOL     OW38564   2.927   6.841   0.563  0.1561  0.3581  0.2686
11209SOL    HW138565   2.960   6.903   0.628  3.6812 -1.8655  0.9094
11209SOL    HW238566   2.929   6.889   0.480  2.2794  1.3462  0.8145
11210SOL     OW38567   7.720   1.198   3.063 -0.3826 -0.2812 -0.5314
11210SOL    HW138568   7.688   1.213   2.974 -0.0712 -0.6113 -0.7045
11210SOL    HW238569   7.795   1.257   3.072 -0.2600 -0.4286 -0.5784
11211SOL     OW38570   7.903   7.612   9.859 -0.3560 -0.2242  0.3677
11211SOL    HW138571   7.947   7.689   9.893 -2.8005  0.3570  2.5481
11211SOL    HW238572   7.815   7.642   9.836 -1.1443 -2.1903  0.5534
11212SOL     OW38573  11.613   0.488   2.891 -0.7390  0.0788  0.1651
11212SOL    HW138574  11.601   0.403   2.847 -2.0977  1.3713 -2.1223
11212SOL    HW238575  11.707   0.490   2.913 -0.6757 -1.9945  0.3043
11213SOL     OW38576   9.743   5.865   3.724 -0.6209  0.0566 -0.1309
11213SOL    HW138577   9.803   5.901   3.659 -0.6431  2.2785  0.9902
11213SOL    HW238578   9.748   5.770   3.712  0.9612  0.3216 -1.9300
11214SOL     OW38579   6.439   9.212   5.903 -0.5380 -0.0535  0.1442
11214SOL    HW138580   6.397   9.249   5.826  0.5219  0.4480 -0.2194
11214SOL    HW238581   6.436   9.118   5.889 -0.1496  0.0441 -0.6299
11215SOL     OW38582  10.398   6.643   6.856  0.1760  0.5511  0.8586
11215SOL    HW138583  10.335   6.573   6.872 -0.3589  0.9410  0.4842
11215SOL    HW238584  10.436   6.661   6.942 -0.4733  0.5470  1.1535
11216SOL     OW38585  10.107  10.730  10.307  0.1015 -0.0855 -0.2796
11216SOL    HW138586  10.062  10.812  10.325 -1.2155 -0.5446 -1.2757
11216SOL    HW238587  10.082  10.708  10.217  2.3689 -0.3691 -0.8831
11217SOL     OW38588   0.252   7.831   4.214  0.4056  0.3321 -0.5761
11217SOL    HW138589   0.168   7.873   4.193  0.1461  1.0325  1.5972
11217SOL    HW238590   0.231   7.738   4.220 -0.5278  0.6106  1.0838
11218SOL     OW38591   6.619   9.871   4.178 -0.1017 -0.5727  1.0670
11218SOL    HW138592   6.599   9.863   4.085 -0.2939 -1.9050  1.2021
11218SOL    HW238593   6.533   9.872   4.220 -0.0205  0.2529  1.2231
11219SOL     OW38594   8.413   7.761   5.869  0.3472 -0.5486  0.4995
11219SOL    HW138595   8.460   7.732   5.791 -0.2047  0.5773 -0.2895
11219SOL    HW238596   8.326   7.721   5.860  0.9217 -2.1224  1.6360
11220SOL     OW38597   9.007   7.746   5.487 -0.2126  0.2213  0.0682
11220SOL    HW138598   8.962   7.790   5.416 -0.7762  0.1790  0.3938
11220SOL    HW238599   9.097   7.737   5.457 -0.5463 -0.2124 -0.8296
11221SOL     OW38600   6.842   3.690   0.399 -0.0213 -0.4598 -0.2390
11221SOL    HW138601   6.778   3.747   0.357  0.0198 -0.0948  0.1824
11221SOL    HW238602   6.853   3.617   0.338 -1.5227 -0.9969  0.0782
11222SOL     OW38603   1.031  10.621   5.613 -0.3526 -0.0495 -0.2985
11222SOL    HW138604   1.038  10.527   5.630  1.0799 -0.0165 -0.5805
11222SOL    HW238605   1.082  10.635   5.533  0.0845  1.0761  0.1587
11223SOL     OW38606   4.952   5.759   1.124  0.4505  0.5453 -0.6668
11223SOL    HW138607   4.920   5.737   1.037 -1.9927  0.8375  0.0781
11223SOL    HW238608   4.916   5.690   1.181 -1.4910  2.5343  0.6677
11224SOL     OW38609  11.486   1.543   9.653  0.0450 -0.6514  0.0245
11224SOL    HW138610  11.564   1.597   9.660 -1.5398  1.6166  2.0459
11224SOL    HW238611  11.439   1.577   9.577  0.4339 -1.2176 -0.4779
11225SOL     OW38612   3.530   0.334   1.315 -0.5218  0.1056 -0.1471
11225SOL    HW138613   3.488   0.270   1.372 -0.4068  0.3309  0.1952
11225SOL    HW238614   3.624   0.313   1.320 -0.5962 -0.4472 -0.9719
11226SOL     OW38615  10.140   8.048   6.519 -0.0138 -0.2387  0.1003
11226SOL    HW138616  10.227   8.078   6.491  0.7291 -2.1640  0.2183
11226SOL    HW238617  10.090   8.043   6.438  0.4283 -0.4512 -0.1671
11227SOL     OW38618   6.366   4.912  11.163  0.3237  0.1627  0.3459
11227SOL    HW138619   6.275   4.899  11.188  0.8489 -1.3913  1.6151
11227SOL    HW238620   6.410   4.936  11.244  1.7676 -3.2928  0.7472
11228SOL     OW38621  11.095   8.491  10.896  0.3465  0.7093 -0.2387
11228SOL    HW138622  11.084   8.405  10.937  1.2905  0.4886 -0.4350
11228SOL    HW238623  11.036   8.548  10.946 -2.5247 -0.5614 -1.9065
11229SOL     OW38624   1.109   4.593   1.343  0.0089 -0.2236  0.2254
11229SOL    HW138625   1.133   4.548   1.425 -0.7293  2.6315  2.1742
11229SOL    HW238626   1.014   4.581   1.337  0.2485 -1.7658 -1.1728
11230SOL     OW38627   7.636   9.230   1.930  0.2306 -0.8071  0.1559
11230SOL    HW138628   7.609   9.231   1.839  0.8773 -0.4635 -0.0427
11230SOL    HW238629   7.556   9.215   1.980  0.2104 -3.5250 -0.5741
11231SOL     OW38630   6.297   8.542   5.302 -0.0711 -0.2674 -0.1223
11231SOL    HW138631   6.289   8.626   5.257 -1.8282 -0.2956  0.0398
11231SOL    HW238632   6.208   8.522   5.331  0.7428 -0.9668  2.1093
11232SOL     OW38633   4.784   1.258   9.226  0.1466  0.0753  0.2517
11232SOL    HW138634   4.866   1.308   9.235  0.2819 -0.2113  0.6414
11232SOL    HW238635   4.725   1.300   9.288 -0.5690  1.3869 -1.2351
11233SOL     OW38636   4.928   5.398   7.549 -0.2227  0.3187  0.4773
11233SOL    HW138637   4.897   5.429   7.464 -0.4362 -0.3469  0.3094
11233SOL    HW238638   4.935   5.477   7.602 -0.0321  0.7462 -0.1770
11234SOL     OW38639   2.145   7.472   8.683  0.0132  0.4135  0.2711
11234SOL    HW138640   2.139   7.390   8.633 -1.1827  0.9586 -0.5222
11234SOL    HW238641   2.219   7.458   8.742  0.1788 -1.0327 -0.2263
11235SOL     OW38642  10.366   5.700   5.511  0.0320  0.1704  0.2781
11235SOL    HW138643  10.363   5.672   5.420  1.0433 -0.9527  0.5565
11235SOL    HW238644  10.292   5.656   5.553  2.4094 -3.6867  1.0448
11236SOL     OW38645   2.131  10.885   0.400 -0.4995  0.1086 -0.0085
11236SOL    HW138646   2.210  10.842   0.369 -0.5376 -0.5920  0.8111
11236SOL    HW238647   2.066  10.815   0.406 -1.4791  0.8422 -1.5843
11237SOL     OW38648   5.451   1.627  10.494  0.3461 -0.1012 -0.0485
11237SOL    HW138649   5.460   1.534  10.516 -1.0487 -0.4247 -0.7138
11237SOL    HW238650   5.536   1.665  10.514  1.5107 -1.8721 -1.3792
11238SOL     OW38651   4.091   3.746   8.630 -0.3759 -0.0255 -0.4949
11238SOL    HW138652   4.146   3.692   8.686 -0.8669  0.4374  0.4467
11238SOL    HW238653   4.141   3.825   8.614 -1.1861  0.9001  1.3062
11239SOL     OW38654   0.800   8.637   2.006  0.1217  0.4962 -0.2108
11239SOL    HW138655   0.773   8.645   2.098 -0.2341  0.3827 -0.3047
11239SOL    HW238656   0.890   8.669   2.005 -0.2684  1.6238 -0.0400
11240SOL     OW38657   4.573   1.327   5.442 -0.4132 -0.5245  0.4620
11240SOL    HW138658   4.544   1.364   5.526  0.8023 -1.0789  1.1596
11240SOL    HW238659   4.666   1.348   5.437 -0.9930  1.9308 -2.1043
11241SOL     OW38660   3.884  10.609   2.748 -0.0437 -0.0488 -1.0398
11241SOL    HW138661   3.963  10.585   2.700  0.5743  1.2736 -0.7294
11241SOL    HW238662   3.912  10.615   2.840 -1.0478 -1.8355 -0.5695
11242SOL     OW38663   6.320   1.761   6.059 -0.6295  0.0290  0.4577
11242SOL    HW138664   6.271   1.705   6.119 -1.4881 -0.2787 -0.5062
11242SOL    HW238665   6.300   1.726   5.972 -1.1889  1.8201 -0.1667
11243SOL     OW38666   9.844   5.961   1.783  0.2131 -0.0340  0.1082
11243SOL    HW138667   9.815   5.940   1.694 -2.0368 -1.3573  1.0463
11243SOL    HW238668   9.763   5.961   1.834  1.2488  2.2179  1.9206
11244SOL     OW38669   8.821   9.807  11.656  0.2130 -0.1292 -0.4157
11244SOL    HW138670   8.838   9.882  11.713 -1.0987 -0.0225 -0.1393
11244SOL    HW238671   8.816   9.844  11.568  1.4214 -0.1728 -0.5112
11245SOL     OW38672   4.195   7.605   3.985 -0.1059 -0.0675 -0.5292
11245SOL    HW138673   4.238   7.540   4.041 -0.9899 -0.0070  0.2379
11245SOL    HW238674   4.110   7.620   4.026 -0.7439  0.0443 -1.8581
11246SOL     OW38675   2.185   2.548   6.245  0.2728  0.2890  0.0831
11246SOL    HW138676   2.238   2.551   6.324 -1.4215  0.8504  1.2604
11246SOL    HW238677   2.125   2.623   6.253 -0.0556  0.2676 -1.6546
11247SOL     OW38678   5.742   9.244  11.301  0.2193 -0.4122 -0.2156
11247SOL    HW138679   5.671   9.293  11.260  2.4089  2.5555 -0.8611
11247SOL    HW238680   5.787   9.201  11.228  1.5338  1.2819 -0.4724
11248SOL     OW38681   1.917  11.653   2.250 -0.1608 -0.1934  0.0181
11248SOL    HW138682   1.975  11.729   2.248 -0.3979 -0.0211 -0.4333
11248SOL    HW238683   1.970  11.581   2.216  0.3873 -0.4696  1.3906
11249SOL     OW38684   6.624   9.714   6.308  0.3370  0.6211  0.6453
11249SOL    HW138685   6.670   9.753   6.382  2.2534 -1.0935  0.4638
11249SOL    HW238686   6.643   9.620   6.315  0.0508  0.3349 -1.6682
11250SOL     OW38687  10.201   4.131   7.175  0.1959  0.1943 -0.0318
11250SOL    HW138688  10.283   4.085   7.193 -0.0700 -0.9145 -1.4866
11250SOL    HW238689  10.153   4.073   7.116 -1.4377  1.0407  0.3906
11251SOL     OW38690   6.853   7.504   9.473 -0.4071  0.6395 -0.2196
11251SOL    HW138691   6.938   7.547   9.459  0.3389 -0.2778  1.2480
11251SOL    HW238692   6.806   7.562   9.532 -0.8665  1.2112 -1.1361
11252SOL     OW38693  11.185   7.898   4.215  0.7864  0.0606 -0.2097
11252SOL    HW138694  11.107   7.936   4.257  0.8239 -0.2267  0.1219
11252SOL    HW238695  11.181   7.805   4.236  0.3530 -0.2452 -1.5614
11253SOL     OW38696   0.948   6.827   6.116 -0.3865  0.4273  0.3574
11253SOL    HW138697   1.043   6.838   6.118 -0.5993  2.3400  1.9710
11253SOL    HW238698   0.919   6.883   6.044 -0.3756  0.3959  0.3281
11254SOL     OW38699   1.216   1.577  10.040  0.1850  0.0533 -0.6150
11254SOL    HW138700   1.272   1.505  10.070  3.6359  1.5792 -2.8539
11254SOL    HW238701   1.262   1.656  10.067 -2.1467  1.4766 -0.5582
11255SOL     OW38702   3.492   0.097   3.288 -0.0045  0.0650  0.2953
11255SOL    HW138703   3.560   0.156   3.321 -1.7562  1.9280  0.7526
11255SOL    HW238704   3.415   0.118   3.339 -1.0267 -1.8100 -0.3886
11256SOL     OW38705   2.633   8.653   4.142 -0.8595 -0.5328 -0.1231
11256SOL    HW138706   2.630   8.655   4.238 -0.5604  2.9923 -0.0480
11256SOL    HW238707   2.596   8.737   4.116  2.5934  0.3341 -2.9205
11257SOL     OW38708   7.863   1.500   5.877  0.6966 -0.2622 -0.4065
11257SOL    HW138709   7.908   1.435   5.932  2.3397  1.1512  0.0066
11257SOL    HW238710   7.772   1.499   5.907  0.5446 -2.6756 -0.7375
11258SOL     OW38711   7.947   6.189   8.679 -0.3725 -0.4350  0.4823
11258SOL    HW138712   8.037   6.200   8.648 -1.0547 -1.3315 -2.0027
11258SOL    HW238713   7.898   6.259   8.635 -1.1394 -0.8538  0.6666
11259SOL     OW38714   4.658   6.901   2.386 -0.0580 -0.3392 -0.2696
11259SOL    HW138715   4.694   6.889   2.474  0.4548  0.0510 -0.4177
11259SOL    HW238716   4.568   6.869   2.391 -0.4244  0.7687  0.7094
11260SOL     OW38717  11.039  10.693   3.250 -0.3080  0.6614 -0.2598
11260SOL    HW138718  10.960  10.652   3.216  0.1784  1.1066 -2.0155
11260SOL    HW238719  11.047  10.775   3.202  1.1715  0.6760 -0.0450
11261SOL     OW38720   8.370   8.651  10.661  0.5809  0.3402  0.7744
11261SOL    HW138721   8.320   8.575  10.690  0.9800  0.2059  1.1277
11261SOL    HW238722   8.306   8.722  10.656  0.3126  0.1157  0.9975
11262SOL     OW38723   5.414   7.474  10.977 -0.6005 -0.4665  0.3622
11262SOL    HW138724   5.422   7.532  10.902 -0.6138  1.3575  1.7228
11262SOL    HW238725   5.345   7.512  11.031 -0.0455 -1.2554  1.6970
11263SOL     OW38726   5.404  10.187   0.918  0.7999  0.6197 -0.3689
11263SOL    HW138727   5.447  10.271   0.938  0.3458  0.2346  2.7296
11263SOL    HW238728   5.476  10.126   0.905  1.2060  0.7382  1.1683
11264SOL     OW38729   4.040   5.213   0.583 -0.3240  0.1340  0.4674
11264SOL    HW138730   4.126   5.175   0.569 -0.2145  0.5458  0.0144
11264SOL    HW238731   3.980   5.138   0.580  0.0881 -0.2809  1.6872
11265SOL     OW38732   4.689   8.979   8.288  0.5530  0.0436 -0.2394
11265SOL    HW138733   4.600   8.982   8.253  0.4039 -0.0743  0.1224
11265SOL    HW238734   4.742   8.946   8.216 -0.1289 -2.5470  0.3613
11266SOL     OW38735   4.591   7.353   2.352 -0.3528 -0.1314 -0.2929
11266SOL    HW138736   4.580   7.447   2.338  0.7817  0.0375 -0.1347
11266SOL    HW238737   4.644   7.346   2.432 -2.7381 -0.9920  1.2986
11267SOL     OW38738   8.745   3.467  11.032  0.2296 -0.5006 -0.1434
11267SOL    HW138739   8.796   3.385  11.029  0.7767 -0.2010  0.6706
11267SOL    HW238740   8.655   3.439  11.015  0.5524 -1.1416 -0.8524
11268SOL     OW38741  11.399  11.391   7.375 -0.1750  0.0339  0.5835
11268SOL    HW138742  11.427  11.431   7.292  0.1831  1.0692  1.1897
11268SOL    HW238743  11.395  11.463   7.437 -1.4410 -0.5605  1.2336
11269SOL     OW38744   2.406   4.814   3.240  0.6155 -0.5070  0.0674
11269SOL    HW138745   2.361   4.826   3.324 -1.6044 -0.9091 -1.0005
11269SOL    HW238746   2.489   4.861   3.250 -1.1826  2.6597  1.2185
11270SOL     OW38747   7.858   0.420   8.323  0.1630  0.2400 -0.2208
11270SOL    HW138748   7.953   0.409   8.314  0.0122 -1.2764 -0.3427
11270SOL    HW238749   7.822   0.351   8.267 -1.0417  1.6094 -1.2023
11271SOL     OW38750   5.051   3.094   5.171 -0.1534 -0.2395  0.4141
11271SOL    HW138751   5.121   3.033   5.149  1.5899  0.9865  2.1523
11271SOL    HW238752   4.984   3.040   5.214  0.4038 -1.2029  0.0941
11272SOL     OW38753   6.943   7.214   1.470  0.3647  0.4542 -0.3130
11272SOL    HW138754   7.000   7.230   1.545  1.0384 -3.1094  0.0678
11272SOL    HW238755   6.991   7.153   1.415 -0.9464  1.4614 -2.7305
11273SOL     OW38756   3.988  10.935   7.153 -0.2821  0.2475  0.3385
11273SOL    HW138757   4.072  10.907   7.116 -0.3387 -0.2987  0.6215
11273SOL    HW238758   4.003  10.939   7.247  0.5801  3.9511  0.2193
11274SOL     OW38759   7.156   6.674   5.213  0.5009  0.3547  0.2054
11274SOL    HW138760   7.118   6.653   5.298  0.3363 -1.7876 -0.3451
11274SOL    HW238761   7.153   6.770   5.208  1.1596  0.5894  2.8729
11275SOL     OW38762   6.802  11.202  11.678  0.5468  0.2679  0.2162
11275SOL    HW138763   6.834  11.175  11.764  0.9017  2.2091  0.7448
11275SOL    HW238764   6.716  11.239  11.695  0.4369  0.2650 -0.3344
11276SOL     OW38765   4.587   4.137   2.646  0.2576 -0.0278  0.4849
11276SOL    HW138766   4.537   4.061   2.675 -1.8386  1.1306  0.1328
11276SOL    HW238767   4.576   4.140   2.551  0.6207  0.5155  0.4516
11277SOL     OW38768  10.677   7.991   8.249  0.2438 -0.1599  0.0342
11277SOL    HW138769  10.680   8.046   8.170  2.8633 -1.0521 -0.5946
11277SOL    HW238770  10.640   7.908   8.220  0.3300 -0.1658 -0.0616
11278SOL     OW38771  10.320   9.840   3.388  0.3042 -0.2238  0.4478
11278SOL    HW138772  10.279   9.766   3.343  0.9152 -0.9356  1.0410
11278SOL    HW238773  10.409   9.810   3.407  0.2294  0.2676  1.6242
11279SOL     OW38774   0.672   3.953   8.079  0.6536 -0.6842 -0.2786
11279SOL    HW138775   0.662   3.993   7.993 -0.4374  0.5657  0.3890
11279SOL    HW238776   0.763   3.924   8.082  1.2345  0.9183 -1.1549
11280SOL     OW38777   3.481   0.417   8.938  0.2491  0.2259 -0.3424
11280SOL    HW138778   3.576   0.418   8.951  0.2128  0.2124 -0.0610
11280SOL    HW238779   3.446   0.463   9.014  0.0413  0.4240 -0.5596
11281SOL     OW38780  11.099   5.522   1.725 -0.5524  0.3010  0.1798
11281SOL    HW138781  11.046   5.489   1.652 -1.6046  3.5676 -0.7109
11281SOL    HW238782  11.150   5.593   1.686  0.5608  0.6723  2.2019
11282SOL     OW38783   2.942   5.587  10.717 -0.0809 -0.3771  0.0702
11282SOL    HW138784   2.875   5.567  10.652 -0.3529 -0.3191  0.3259
11282SOL    HW238785   2.892   5.602  10.798  0.2268 -0.1323  0.2164
11283SOL     OW38786   9.283   8.739   6.303  0.0147 -0.3264 -0.3469
11283SOL    HW138787   9.209   8.799   6.314 -0.1919 -0.6285 -0.0750
11283SOL    HW238788   9.261   8.688   6.225 -0.1604 -0.5534 -0.1501
11284SOL     OW38789   7.397   7.628   0.596  0.1459 -0.4730 -0.7284
11284SOL    HW138790   7.445   7.572   0.657 -1.5728  0.6388  1.7980
11284SOL    HW238791   7.461   7.695   0.570  0.6118 -0.2889  0.8017
11285SOL     OW38792   3.876   3.192   4.320 -0.1581  0.1741 -0.2023
11285SOL    HW138793   3.961   3.229   4.340 -0.1365 -0.0327  0.1014
11285SOL    HW238794   3.859   3.130   4.392 -0.9931  0.9280  0.2699
11286SOL     OW38795   1.128   8.728   8.436  0.4086 -0.3316  0.1213
11286SOL    HW138796   1.167   8.750   8.521 -0.7738  1.1377  0.3378
11286SOL    HW238797   1.122   8.812   8.390  0.0048 -0.9412 -0.9737
11287SOL     OW38798   1.650   7.700   8.489  0.6352  0.1398 -0.1164
11287SOL    HW138799   1.691   7.648   8.420  1.9331  0.1049  0.6318
11287SOL    HW238800   1.707   7.776   8.499 -0.4231  0.9660 -0.1755
11288SOL     OW38801   7.442   0.714   0.823 -0.7925 -0.0422 -0.2028
11288SOL    HW138802   7.406   0.665   0.750 -0.3933  0.1914 -0.5670
11288SOL    HW238803   7.446   0.805   0.791  2.0891 -0.3540 -1.0041
11289SOL     OW38804  10.862   8.574   2.812 -0.2567  0.3448  0.4282
11289SOL    HW138805  10.932   8.639   2.827  0.4169 -0.1493 -0.5257
11289SOL    HW238806  10.857   8.526   2.895  1.2951 -0.3158  0.1822
11290SOL     OW38807   0.763   1.459   9.279 -0.1357 -0.2958  0.0138
11290SOL    HW138808   0.680   1.482   9.237 -0.5872  0.7936  1.4323
11290SOL    HW238809   0.828   1.465   9.209 -1.2945 -1.5670 -1.2086
11291SOL     OW38810   6.413   3.828   5.532  0.0944 -0.4101  0.1566
11291SOL    HW138811   6.497   3.797   5.498 -0.6004 -0.2888 -1.7768
11291SOL    HW238812   6.359   3.750   5.538  0.3546 -0.5128  1.5491
11292SOL     OW38813   6.936   4.042   3.630 -0.0417 -0.3340 -0.0472
11292SOL    HW138814   7.008   4.014   3.574 -0.0066 -0.1234 -0.1101
11292SOL    HW238815   6.857   4.020   3.581 -0.0079  1.1253 -0.8407
11293SOL     OW38816   3.383   2.902   2.852 -0.0942  0.5375  0.1769
11293SOL    HW138817   3.294   2.884   2.822  0.5087 -2.2698 -0.2642
11293SOL    HW238818   3.393   2.845   2.928  0.6850  2.3832  1.5042
11294SOL     OW38819  10.628  10.834   3.967 -0.6816  0.0282 -0.0779
11294SOL    HW138820  10.693  10.887   3.921 -0.9713 -1.0295 -1.8251
11294SOL    HW238821  10.654  10.837   4.058  1.0865  0.6582 -0.5697
11295SOL     OW38822   0.551   0.997  10.296  0.3080 -0.1533  0.3486
11295SOL    HW138823   0.468   0.957  10.270  0.2727  0.7137 -0.9585
11295SOL    HW238824   0.607   0.922  10.320 -0.5231 -0.8058  0.3028
11296SOL     OW38825   4.032   5.240   9.365  0.4906 -0.1433  0.4558
11296SOL    HW138826   3.944   5.204   9.358  0.6303 -0.2776 -0.7714
11296SOL    HW238827   4.056   5.265   9.276  0.4801  2.8380  1.1841
11297SOL     OW38828   9.563   9.403  10.626 -0.3926 -0.4578  0.0301
11297SOL    HW138829   9.584   9.426  10.717  0.6425  1.7439 -0.7093
11297SOL    HW238830   9.469   9.389  10.626 -0.4750 -0.0540  1.3674
11298SOL     OW38831   1.922  10.492   3.323 -0.1596 -0.4313  0.1593
11298SOL    HW138832   1.927  10.413   3.376  0.2726  0.0841  0.8950
11298SOL    HW238833   2.009  10.501   3.285  0.2000  0.4339  1.1672
11299SOL     OW38834   5.382   8.022   5.940 -0.0533  0.1432  0.6201
11299SOL    HW138835   5.348   8.106   5.970  2.5258  1.0337  1.3391
11299SOL    HW238836   5.359   8.019   5.847 -1.7700  0.7619  0.9897
11300SOL     OW38837  10.347   3.480  11.650 -0.0201  0.0575 -0.3697
11300SOL    HW138838  10.289   3.461  11.724 -0.1309 -0.2858 -0.5428
11300SOL    HW238839  10.363   3.574  11.656 -0.1178  0.0521  0.0249
11301SOL     OW38840   9.665   5.273   1.562 -0.1008  0.1045 -0.2101
11301SOL    HW138841   9.599   5.286   1.630  0.4346 -1.0105  0.5491
11301SOL    HW238842   9.734   5.335   1.584  0.1370 -0.3575  0.3591
11302SOL     OW38843   0.295   0.554   3.502  0.0741 -0.1294 -0.1151
11302SOL    HW138844   0.270   0.507   3.581  0.1207  1.7582  1.1030
11302SOL    HW238845   0.275   0.646   3.522  1.5479  0.5913 -1.6891
11303SOL     OW38846   5.036   2.103   5.213  0.2033  0.0101  0.2201
11303SOL    HW138847   5.048   2.115   5.119  1.3062 -2.3198  0.0049
11303SOL    HW238848   5.002   2.014   5.221  1.7866 -0.4819  2.1033
11304SOL     OW38849   7.787   6.299   5.119  0.6332  0.4109 -0.1252
11304SOL    HW138850   7.763   6.344   5.038  2.0898  0.7139 -0.4152
11304SOL    HW238851   7.882   6.306   5.123  0.8662 -2.1043  0.1544
11305SOL     OW38852   8.492   9.315  10.595  0.1155 -0.2470  0.2016
11305SOL    HW138853   8.552   9.251  10.633 -0.4187 -0.5078  0.6166
11305SOL    HW238854   8.406   9.274  10.600 -0.1641  0.3070  0.0327
11306SOL     OW38855   4.029   7.543  10.598  0.1591 -0.7764  0.0153
11306SOL    HW138856   4.029   7.449  10.579  0.2912 -0.7555 -0.0942
11306SOL    HW238857   3.937   7.569  10.593 -0.0283 -1.1257  1.1899
11307SOL     OW38858   5.263   3.093   2.980 -0.2350 -0.5440 -0.1227
11307SOL    HW138859   5.221   3.178   2.989  1.9407  0.6172 -0.1400
11307SOL    HW238860   5.239   3.062   2.893  1.2174  1.4493 -1.3156
11308SOL     OW38861   3.171   3.144   5.980  0.4273 -0.6973 -0.4324
11308SOL    HW138862   3.194   3.224   5.933  0.4473 -0.8493 -0.6819
11308SOL    HW238863   3.245   3.085   5.964 -0.1453 -1.2063 -1.2791
11309SOL     OW38864  10.889   6.272   2.475 -0.4016 -0.4141 -0.1305
11309SOL    HW138865  10.823   6.218   2.518 -3.0437  1.4271 -1.5415
11309SOL    HW238866  10.861   6.275   2.383  0.6241  1.8646 -0.4399
11310SOL     OW38867   0.184   1.139   4.169  0.0018 -0.3733  0.1439
11310SOL    HW138868   0.214   1.187   4.092 -0.1850 -1.5577 -0.6942
11310SOL    HW238869   0.220   1.051   4.158 -3.1343 -1.7171 -0.5941
11311SOL     OW38870   5.508  11.104   7.171 -0.6281  0.2180  0.2852
11311SOL    HW138871   5.417  11.108   7.141 -0.2755  0.7830 -0.7510
11311SOL    HW238872   5.547  11.032   7.121  1.1682  3.8805 -4.2843
11312SOL     OW38873   4.429   6.493   0.819  0.4550  0.2820  0.2507
11312SOL    HW138874   4.518   6.467   0.798  1.0172  1.5229  1.0113
11312SOL    HW238875   4.435   6.530   0.907 -0.7154  0.8413  0.1135
11313SOL     OW38876  11.556   1.977   2.832 -0.0561 -0.2695 -0.4348
11313SOL    HW138877  11.646   1.946   2.824 -0.2697 -0.7197 -1.1606
11313SOL    HW238878  11.530   1.999   2.743 -1.1427 -1.5277 -0.4615
11314SOL     OW38879   0.326  11.382   2.052 -0.7290  0.7899  0.1401
11314SOL    HW138880   0.353  11.373   2.143 -1.4042 -2.9771  0.1271
11314SOL    HW238881   0.232  11.395   2.056 -0.5714  2.0860 -0.0320
11315SOL     OW38882  11.229   9.547  10.754  0.4592  0.3657 -0.1500
11315SOL    HW138883  11.314   9.559  10.711  1.1206 -2.1306  0.2924
11315SOL    HW238884  11.249   9.556  10.847  0.1240  0.3765 -0.0801
11316SOL     OW38885   4.797   0.033  11.517  0.1365  0.0771  0.0452
11316SOL    HW138886   4.849   0.113  11.516  0.4831 -0.1372  0.4520
11316SOL    HW238887   4.851  -0.030  11.565 -0.7442  0.0273  1.0144
11317SOL     OW38888   1.446   6.850   3.714 -0.2707  0.6132 -0.6909
11317SOL    HW138889   1.422   6.942   3.701 -2.0746  0.2830  0.0508
11317SOL    HW238890   1.519   6.853   3.777  0.3855  1.5562 -1.4551
11318SOL     OW38891   5.056   7.246  11.154 -0.2830  0.1996 -0.1292
11318SOL    HW138892   5.100   7.178  11.205  0.1490  1.3173  1.0325
11318SOL    HW238893   4.988   7.280  11.213 -1.3275 -0.0601 -1.1468
11319SOL     OW38894   7.531   3.548   6.333 -0.1093  0.2422  0.3505
11319SOL    HW138895   7.436   3.557   6.340 -0.0667 -0.3391  1.9447
11319SOL    HW238896   7.562   3.639   6.328 -0.7574  0.4280 -0.7726
11320SOL     OW38897   3.384   6.603   0.757  0.2575 -0.5152  0.5060
11320SOL    HW138898   3.415   6.527   0.707 -1.5815 -0.6676 -0.4624
11320SOL    HW238899   3.366   6.569   0.844  0.6045 -0.9171  0.4226
11321SOL     OW38900   8.441   2.567   1.993  0.2063  0.0751  0.0133
11321SOL    HW138901   8.498   2.514   1.937  0.2031 -1.8884  1.7505
11321SOL    HW238902   8.499   2.632   2.033  0.5305  0.3601 -0.9012
11322SOL     OW38903   1.521  10.881   3.531  0.3122 -0.1509  0.1274
11322SOL    HW138904   1.600  10.895   3.584 -2.2645  0.3776  4.3259
11322SOL    HW238905   1.474  10.963   3.537 -1.2732 -0.9542 -0.8867
11323SOL     OW38906   0.013   6.343   9.324 -0.3522 -0.4300 -0.6216
11323SOL    HW138907   0.081   6.384   9.270 -0.7753 -0.0809 -0.8917
11323SOL    HW238908  -0.065   6.345   9.270 -0.3826 -1.6170 -0.6402
11324SOL     OW38909   1.899   2.111   7.020  0.2220 -0.2227 -0.0626
11324SOL    HW138910   1.823   2.079   6.971 -0.6794  0.9719  0.4814
11324SOL    HW238911   1.943   2.170   6.959 -0.6289  0.8909  0.3612
11325SOL     OW38912   3.316   6.952   2.328  0.4477 -0.4311  0.5243
11325SOL    HW138913   3.396   6.907   2.301  1.8547  1.5551  1.1634
11325SOL    HW238914   3.264   6.960   2.247  1.7830 -0.0551 -0.3256
11326SOL     OW38915   2.444   8.820   3.788 -0.0544  0.0550 -0.7046
11326SOL    HW138916   2.521   8.863   3.751  1.0674 -2.1586 -1.1101
11326SOL    HW238917   2.425   8.748   3.728 -1.6362 -0.2358  0.0964
11327SOL     OW38918   7.102   1.146   6.000  0.3093  0.1435  0.0956
11327SOL    HW138919   7.023   1.195   6.024  0.0893 -0.2819  0.2577
11327SOL    HW238920   7.158   1.210   5.956 -1.0441 -0.0290 -2.0174
11328SOL     OW38921   1.169   5.939   7.409 -0.6465  0.0162 -0.1044
11328SOL    HW138922   1.125   5.867   7.454  1.3058 -0.9219  0.4232
11328SOL    HW238923   1.222   5.981   7.477 -0.9435  1.2795 -0.6406
11329SOL     OW38924   4.085   5.675   2.456  0.0524 -0.0171 -0.1691
11329SOL    HW138925   4.001   5.629   2.449  0.7770 -1.3324 -0.4678
11329SOL    HW238926   4.110   5.664   2.548 -0.4082  0.9793  0.0959
11330SOL     OW38927   3.902   5.181   8.412  0.2238  0.6844  0.6522
11330SOL    HW138928   3.936   5.221   8.492 -1.9473 -0.1692  2.0895
11330SOL    HW238929   3.947   5.097   8.406  0.8092  0.9921  0.6358
11331SOL     OW38930   4.574   5.632  10.772 -0.6151  0.8927  0.0572
11331SOL    HW138931   4.661   5.655  10.805 -0.0627  0.5952 -1.1293
11331SOL    HW238932   4.513   5.675  10.831  0.3448  1.1087  0.9057
11332SOL     OW38933   3.254   3.072   2.546  0.9347  0.0047 -0.0234
11332SOL    HW138934   3.274   3.161   2.517 -0.1778  1.1217  2.3484
11332SOL    HW238935   3.206   3.083   2.628  1.5571 -2.8085  0.8538
11333SOL     OW38936  10.762  10.206   9.184 -0.3843 -0.0230 -0.2454
11333SOL    HW138937  10.829  10.138   9.179  0.9517  1.3499 -2.6273
11333SOL    HW238938  10.679  10.158   9.182  0.5170 -1.6307 -0.7240
11334SOL     OW38939   0.371   7.914   8.408  0.3949  0.4025  0.0345
11334SOL    HW138940   0.337   7.850   8.346  1.9408  0.0094 -0.4482
11334SOL    HW238941   0.367   7.997   8.362 -0.5040  0.4720  0.2254
11335SOL     OW38942   8.232   7.578  10.530  0.5168 -0.1105 -0.1522
11335SOL    HW138943   8.205   7.610  10.616  0.6954  1.1929 -0.5525
11335SOL    HW238944   8.309   7.525  10.547  0.9981  0.7453  0.4269
11336SOL     OW38945  11.671   7.696   6.769 -0.0515  0.2337  1.4851
11336SOL    HW138946  11.730   7.761   6.806  0.4766 -0.8225  2.5766
11336SOL    HW238947  11.583   7.729   6.787  0.0707  2.4718 -1.2874
11337SOL     OW38948   4.381   2.195   7.978  0.0518 -0.0052  0.2290
11337SOL    HW138949   4.365   2.114   8.026 -1.7987 -1.3709 -2.5060
11337SOL    HW238950   4.329   2.261   8.024 -0.2668 -0.8573  1.1180
11338SOL     OW38951   5.721   9.220   3.497 -0.2947 -0.2153  0.1801
11338SOL    HW138952   5.785   9.166   3.451  1.6671  0.5528  1.8831
11338SOL    HW238953   5.657   9.243   3.430  1.6649 -0.3035 -1.8273
11339SOL     OW38954   0.021   1.676   9.745  0.6534  0.3770 -0.7077
11339SOL    HW138955   0.006   1.761   9.787  0.4595 -0.3062  0.6695
11339SOL    HW238956   0.048   1.618   9.817  3.1128 -0.1835 -1.9721
11340SOL     OW38957   2.928   2.968   1.296 -0.1439  0.1403 -0.1578
11340SOL    HW138958   2.959   2.909   1.228 -0.1204  1.5428 -1.4076
11340SOL    HW238959   2.994   2.963   1.365 -1.3868 -3.2089  1.0027
11341SOL     OW38960   8.590   7.639   3.167  0.3110 -0.2652 -0.8102
11341SOL    HW138961   8.609   7.724   3.128 -1.4504 -0.8843 -3.2684
11341SOL    HW238962   8.567   7.583   3.092 -1.6515 -2.0147  0.9701
11342SOL     OW38963   2.660   1.658   1.809  0.0809  0.0983  0.3890
11342SOL    HW138964   2.690   1.624   1.893  2.5062 -0.5027 -0.6219
11342SOL    HW238965   2.688   1.592   1.745  0.2615  1.5667 -1.1138
11343SOL     OW38966   1.748   1.153   2.731  0.0829  0.0363  0.3515
11343SOL    HW138967   1.695   1.203   2.670  1.0520 -0.0826 -0.6285
11343SOL    HW238968   1.766   1.070   2.686  0.5422 -0.1922  0.9283
11344SOL     OW38969  10.363  11.477   9.304 -0.1219 -0.5406  0.3046
11344SOL    HW138970  10.297  11.459   9.371  0.4147  1.2405  1.3866
11344SOL    HW238971  10.434  11.521   9.351  0.6753 -0.0240 -1.2883
11345SOL     OW38972   9.227   1.363   5.528 -0.1664 -0.5976  0.5603
11345SOL    HW138973   9.283   1.435   5.498 -2.8030  1.3684 -0.0580
11345SOL    HW238974   9.180   1.399   5.604  0.5847 -2.7829  2.1785
11346SOL     OW38975   1.965   0.874  11.680  0.1181 -0.1954 -0.1137
11346SOL    HW138976   1.888   0.837  11.638 -0.2962 -0.5755  0.9441
11346SOL    HW238977   1.964   0.966  11.655 -1.4394  0.1115  0.9336
11347SOL     OW38978   9.692   4.220  10.149  0.5777  0.2564 -0.0066
11347SOL    HW138979   9.641   4.261  10.218  0.5810  0.1243  0.0741
11347SOL    HW238980   9.634   4.219  10.073  1.1496  1.9723 -0.5146
11348SOL     OW38981   9.425   2.902   0.486  0.3138 -0.1104  0.2110
11348SOL    HW138982   9.494   2.862   0.432 -1.0218 -1.2983 -0.7057
11348SOL    HW238983   9.444   2.996   0.484  1.1227 -0.2741 -1.1551
11349SOL     OW38984   5.903   1.196   2.773 -0.2044 -0.0481  1.1570
11349SOL    HW138985   5.817   1.189   2.815  0.1943 -1.5378  1.7790
11349SOL    HW238986   5.891   1.263   2.705 -1.5972  0.4338  1.8363
11350SOL     OW38987   8.654   2.166   2.757 -0.0067  0.4326 -0.3017
11350SOL    HW138988   8.704   2.116   2.821  0.4910  0.2091 -0.8541
11350SOL    HW238989   8.616   2.099   2.699 -1.2155  0.5775  0.2990
11351SOL     OW38990   4.616   8.493   5.615  0.3572 -0.3828 -0.4302
11351SOL    HW138991   4.670   8.558   5.660 -0.4220 -0.5422  0.8010
11351SOL    HW238992   4.560   8.544   5.556  1.6792 -0.2031 -1.5776
11352SOL     OW38993   1.292  11.102   1.265 -0.2179  0.0278  0.1604
11352SOL    HW138994   1.382  11.115   1.295  0.2193 -0.8280 -0.7368
11352SOL    HW238995   1.284  11.159   1.189 -0.8421  1.0257  0.9383
11353SOL     OW38996  10.060   9.797   6.767  0.4908  0.0145  0.6305
11353SOL    HW138997  10.003   9.850   6.710 -0.0616 -2.7467 -1.6080
11353SOL    HW238998  10.002   9.767   6.837  0.1396  0.1958  0.4224
11354SOL     OW38999   8.022   3.332   4.461  0.9110  0.4425 -0.0741
11354SOL    HW139000   8.023   3.363   4.551 -0.3325  1.7216 -0.4705
11354SOL    HW239001   7.952   3.267   4.458 -0.5289  1.9637 -0.5708
11355SOL     OW39002   4.557   4.010   5.367  0.0319 -0.1830 -0.2482
11355SOL    HW139003   4.605   3.963   5.435  1.3720  1.3140 -0.0988
11355SOL    HW239004   4.486   4.055   5.413  0.5531  0.3184  0.0729
11356SOL     OW39005   4.342   3.924  11.173  0.4007  0.5004 -0.3673
11356SOL    HW139006   4.266   3.983  11.171 -0.5622 -0.5546  1.8516
11356SOL    HW239007   4.399   3.960  11.240 -0.2458 -1.0618  1.0888
11357SOL     OW39008   3.877   4.487   7.240  0.5038 -0.1750 -0.2665
11357SOL    HW139009   3.891   4.478   7.146 -3.9490  3.0254 -1.5331
11357SOL    HW239010   3.798   4.436   7.258 -0.8936  2.1844  0.7913
11358SOL     OW39011   1.301   9.688   2.799  0.1816  0.8079 -0.2877
11358SOL    HW139012   1.281   9.720   2.888 -1.5808  1.0967 -0.7423
11358SOL    HW239013   1.377   9.739   2.773  0.0251  1.5637  0.6357
11359SOL     OW39014   8.659   6.769   8.815 -0.3422 -0.2126  0.2115
11359SOL    HW139015   8.672   6.682   8.778 -0.8463 -0.5648  0.8413
11359SOL    HW239016   8.574   6.764   8.859 -1.4947  1.2402 -1.6446
11360SOL     OW39017   3.257  10.121   3.492  0.4397  0.3687  0.2212
11360SOL    HW139018   3.314  10.065   3.546 -0.0543  0.0341  0.3976
11360SOL    HW239019   3.190  10.062   3.458 -0.3456  0.9342  0.7605
11361SOL     OW39020   6.952   2.260   0.983 -0.5256  0.2037  0.4826
11361SOL    HW139021   6.919   2.336   0.935  1.3862  0.8857  0.1664
11361SOL    HW239022   6.901   2.186   0.949 -0.5787  0.9600 -1.1639
11362SOL     OW39023   0.606   4.884  10.872  0.3431 -0.1277  0.0779
11362SOL    HW139024   0.532   4.824  10.863  1.2469 -1.3699  0.6051
11362SOL    HW239025   0.640   4.893  10.783  0.5322 -0.8531  0.0705
11363SOL     OW39026  10.716   7.053   8.699  0.3225  0.1447 -0.2100
11363SOL    HW139027  10.620   7.058   8.696  0.1930 -0.9967  0.7846
11363SOL    HW239028  10.734   6.959   8.708  1.5704  0.2903 -1.0060
11364SOL     OW39029   7.157  10.046   6.359  0.1574  0.2882 -0.3843
11364SOL    HW139030   7.157  10.025   6.266  2.5146 -2.3321  0.0584
11364SOL    HW239031   7.246  10.075   6.377 -0.2228  0.6432  1.0816
11365SOL     OW39032   1.453   7.182   7.076 -0.0997  0.1187  0.0335
11365SOL    HW139033   1.375   7.128   7.069  0.5673 -0.8971  0.3197
11365SOL    HW239034   1.424   7.269   7.049 -1.2428 -0.3183 -0.1931
11366SOL     OW39035   0.802   8.090   6.452 -0.0624  0.1163  0.3890
11366SOL    HW139036   0.845   8.175   6.465 -2.9333  1.8582 -0.4280
11366SOL    HW239037   0.754   8.075   6.534 -1.8843  0.8219 -0.4982
11367SOL     OW39038   8.598   7.047   3.794 -0.0905 -0.0631  0.3061
11367SOL    HW139039   8.586   7.120   3.733  1.3516  0.0055  0.0689
11367SOL    HW239040   8.519   7.048   3.848 -1.1174  0.2746 -1.1291
11368SOL     OW39041   0.533   6.776   3.916 -0.0419  0.6354  0.3565
11368SOL    HW139042   0.618   6.819   3.930 -0.0178  0.6981  0.0205
11368SOL    HW239043   0.506   6.803   3.829  0.1995 -0.4036 -0.0637
11369SOL     OW39044   9.334   4.758   6.391 -0.3677 -0.3293 -0.0157
11369SOL    HW139045   9.399   4.806   6.340 -0.7270  1.0887  0.8292
11369SOL    HW239046   9.383   4.687   6.432  0.6056  0.5840  0.4238
11370SOL     OW39047   0.788   9.529   3.579 -0.1458  0.4165 -0.3705
11370SOL    HW139048   0.717   9.491   3.631 -0.1802  0.7316 -0.1847
11370SOL    HW239049   0.744   9.573   3.507 -0.0555 -0.8921 -1.2650
11371SOL     OW39050   7.862   6.509  11.669 -0.6447 -0.5227 -0.5609
11371SOL    HW139051   7.850   6.420  11.704  2.1334 -0.2296  1.4939
11371SOL    HW239052   7.782   6.555  11.695 -0.2325 -1.3007  2.4845
11372SOL     OW39053   9.378   6.475   1.144  0.1534 -0.4714 -0.1134
11372SOL    HW139054   9.463   6.508   1.173 -0.2990 -0.5847  1.4312
11372SOL    HW239055   9.392   6.451   1.053  1.3888  0.8441 -0.3041
11373SOL     OW39056  10.681   3.465   7.688  0.0569  0.3926 -0.0802
11373SOL    HW139057  10.730   3.521   7.748  1.2852 -1.6637  0.9281
11373SOL    HW239058  10.656   3.389   7.740 -0.0770 -0.7978 -1.7848
11374SOL     OW39059  11.686   5.318   9.507  0.2794  0.0925 -0.1071
11374SOL    HW139060  11.757   5.301   9.569  0.7529 -0.8599 -0.8777
11374SOL    HW239061  11.723   5.384   9.447 -0.1523  0.9593  0.5578
11375SOL     OW39062   7.114   5.368   7.273 -0.2044 -0.2193  0.2179
11375SOL    HW139063   7.096   5.274   7.260  0.3489 -0.2983 -0.0230
11375SOL    HW239064   7.081   5.410   7.193 -2.2297  0.0542  1.1352
11376SOL     OW39065   3.677   1.644   0.935  0.1625  0.3561 -0.2266
11376SOL    HW139066   3.769   1.634   0.960  0.5219  1.7281 -0.8518
11376SOL    HW239067   3.629   1.590   0.997  1.3752 -0.2324  0.2413
11377SOL     OW39068   9.644   8.746  11.025 -0.6876 -0.4632  0.1960
11377SOL    HW139069   9.626   8.670  11.081  1.6919 -0.3086  1.2750
11377SOL    HW239070   9.661   8.708  10.938 -1.4459 -0.9705  0.2583
11378SOL     OW39071   9.151   2.844   0.653  0.2317  0.1304  0.1741
11378SOL    HW139072   9.060   2.864   0.677  0.1753 -0.0750  0.1384
11378SOL    HW239073   9.189   2.809   0.734  0.5270  1.0156  0.4249
11379SOL     OW39074   6.293   8.708   5.709 -0.3916 -0.1489 -0.1271
11379SOL    HW139075   6.292   8.791   5.660  1.6617  0.8181  1.3406
11379SOL    HW239076   6.371   8.663   5.677 -0.4326 -0.6420  0.4742
11380SOL     OW39077  10.428   1.730  10.003  0.3045  0.2388  0.4444
11380SOL    HW139078  10.411   1.707  10.094  3.5491 -4.3451  0.2863
11380SOL    HW239079  10.398   1.654   9.953 -0.6801  2.2746 -2.3270
11381SOL     OW39080   1.675   8.592   6.550  0.1715 -0.6647  0.2219
11381SOL    HW139081   1.589   8.578   6.590  0.2639  0.3020  0.7944
11381SOL    HW239082   1.726   8.515   6.574  0.7281  0.5359  3.4043
11382SOL     OW39083   4.856   5.997   1.597  0.1342 -0.5240  0.6255
11382SOL    HW139084   4.878   6.058   1.527 -2.5668  1.1662  1.1072
11382SOL    HW239085   4.898   6.035   1.675 -0.8136  0.2776  0.7622
11383SOL     OW39086  11.649  10.933  11.625  0.2316  0.2467 -0.3576
11383SOL    HW139087  11.690  10.992  11.688  0.8183  0.1273 -0.6177
11383SOL    HW239088  11.708  10.857  11.621 -1.4217 -1.2396  1.3574
11384SOL     OW39089   1.071  11.199   1.831  0.2142  0.9879 -0.2487
11384SOL    HW139090   1.120  11.252   1.893 -0.1721  1.2063 -0.1273
11384SOL    HW239091   1.089  11.109   1.857 -0.7754  1.0776  0.8536
11385SOL     OW39092   6.406  10.563   5.316  0.8072  0.4992 -0.5982
11385SOL    HW139093   6.479  10.562   5.254  0.8682 -1.0000 -0.5289
11385SOL    HW239094   6.373  10.473   5.317  0.5277  0.5748  1.2054
11386SOL     OW39095   6.347   0.763   0.796 -0.1794 -0.1617  0.2822
11386SOL    HW139096   6.293   0.684   0.790  0.2122 -0.3999 -0.1148
11386SOL    HW239097   6.365   0.772   0.890  0.8095 -1.2600  0.2186
11387SOL     OW39098  10.357  10.309  10.436 -0.9065  0.1569  0.1189
11387SOL    HW139099  10.363  10.402  10.462  0.8257 -0.3241  1.7200
11387SOL    HW239100  10.289  10.273  10.493 -0.2836  0.0774  0.8302
11388SOL     OW39101   1.962   4.657   4.953  0.6183  0.1213  0.4949
11388SOL    HW139102   1.875   4.648   4.993  0.9744 -0.1094  1.2445
11388SOL    HW239103   2.001   4.733   4.997  0.9382 -0.0045  0.4333
11389SOL     OW39104   5.055   2.802   5.096 -0.1019  0.1550 -0.4312
11389SOL    HW139105   5.144   2.768   5.087 -0.2326 -0.4963  0.5670
11389SOL    HW239106   5.007   2.763   5.023 -0.0685 -1.2308  0.2623
11390SOL     OW39107   9.829   3.970   2.929  0.7235  0.1183 -0.0412
11390SOL    HW139108   9.753   4.016   2.966 -1.8450 -3.8326  0.1878
11390SOL    HW239109   9.902   3.994   2.987 -1.2332  0.9649  2.2358
11391SOL     OW39110   6.083   3.507   4.207 -0.0441 -0.2478 -0.4012
11391SOL    HW139111   6.029   3.585   4.189 -1.4055 -1.1549 -0.3889
11391SOL    HW239112   6.143   3.502   4.132 -0.1728  0.6099 -0.5737
11392SOL     OW39113  11.401   2.554  10.936 -0.0413  0.2795 -0.1854
11392SOL    HW139114  11.324   2.572  10.990 -1.6607  0.2541 -2.3601
11392SOL    HW239115  11.372   2.569  10.846  2.0531 -1.2133 -1.2056
11393SOL     OW39116   2.798   4.560   7.429  0.5513  0.2957 -0.6105
11393SOL    HW139117   2.860   4.556   7.356  0.8866  1.0401 -0.3705
11393SOL    HW239118   2.712   4.544   7.388  0.8488 -0.4102 -0.9909
11394SOL     OW39119   2.789   7.256   3.391  0.0132 -0.5188 -0.2635
11394SOL    HW139120   2.731   7.199   3.442  1.3146 -0.7964  1.0074
11394SOL    HW239121   2.845   7.196   3.342 -0.1188 -0.2876 -0.6963
11395SOL     OW39122   0.145   9.052   8.343  0.0469  0.0767  0.0531
11395SOL    HW139123   0.064   9.018   8.381  0.3549 -0.0567  0.5884
11395SOL    HW239124   0.206   9.059   8.416  0.6693 -0.2565 -0.4195
11396SOL     OW39125   7.211   3.990   4.939 -0.4684 -0.4191  0.3273
11396SOL    HW139126   7.179   3.900   4.944  0.6997 -0.8214  0.8892
11396SOL    HW239127   7.151   4.040   4.994 -0.1064 -1.1673  1.4298
11397SOL     OW39128   4.145  10.029   2.762 -0.4167 -0.5124  0.5975
11397SOL    HW139129   4.227  10.076   2.753 -0.0406 -1.3096 -0.3538
11397SOL    HW239130   4.081  10.082   2.715 -0.0075 -0.8819 -0.4197
11398SOL     OW39131   6.566   1.372   6.501 -0.1020  1.0197  0.1743
11398SOL    HW139132   6.527   1.450   6.461 -2.4088  1.1447  2.3978
11398SOL    HW239133   6.512   1.300   6.470 -0.1865  0.7772  0.8783
11399SOL     OW39134   1.243  11.164   1.535  0.0836  0.2187 -0.2468
11399SOL    HW139135   1.171  11.114   1.573 -0.0441  1.0823  0.6756
11399SOL    HW239136   1.247  11.134   1.444 -0.5685 -0.8003  0.0368
11400SOL     OW39137   7.839   6.497   9.006 -0.1311  0.2723 -0.2531
11400SOL    HW139138   7.750   6.480   9.035  0.1000  0.1745  0.4013
11400SOL    HW239139   7.840   6.590   8.983 -0.0531  0.5889  0.9972
11401SOL     OW39140   4.098   1.538   9.751 -0.2833 -0.3854  0.3388
11401SOL    HW139141   4.042   1.613   9.728 -0.0613 -0.1381  0.6036
11401SOL    HW239142   4.156   1.571   9.819 -0.2104 -0.8128  0.4877
11402SOL     OW39143   5.468   9.005   3.331  0.3125 -0.6070 -0.6669
11402SOL    HW139144   5.455   9.090   3.288 -1.6797 -1.5845 -2.1609
11402SOL    HW239145   5.445   9.021   3.422 -2.3226  0.0266 -1.3500
11403SOL     OW39146   5.278   8.064   6.760 -0.1825  0.2928  0.6806
11403SOL    HW139147   5.194   8.100   6.786  0.3090 -0.5585  3.7930
11403SOL    HW239148   5.287   7.984   6.812  0.8703 -1.7994 -2.4337
11404SOL     OW39149  10.712  11.489   4.869 -0.2361 -0.1106  0.2900
11404SOL    HW139150  10.777  11.419   4.869 -0.0517  0.0587  0.0174
11404SOL    HW239151  10.663  11.477   4.788  1.6549  1.7670 -1.2514
11405SOL     OW39152   6.094   1.044   6.580 -0.0263 -0.1539 -0.5881
11405SOL    HW139153   6.138   1.119   6.541  0.7879  0.8673  2.0669
11405SOL    HW239154   6.001   1.065   6.578  0.1732  0.7955 -0.1522
11406SOL     OW39155   4.219   0.309   0.087 -0.6148 -0.1262  0.2022
11406SOL    HW139156   4.263   0.246   0.143  1.9905  1.6531  0.3530
11406SOL    HW239157   4.277   0.318   0.011  0.2017  3.3882  1.0641
11407SOL     OW39158   6.344   8.978   2.717  0.1900 -0.5503  0.1654
11407SOL    HW139159   6.326   8.921   2.643 -2.7885 -0.0768  0.4063
11407SOL    HW239160   6.401   8.926   2.775  0.6482 -1.7883 -1.3370
11408SOL     OW39161   1.510   0.617   2.098 -0.5613  0.4598 -0.4731
11408SOL    HW139162   1.509   0.663   2.014  0.8267  1.0584 -0.1897
11408SOL    HW239163   1.419   0.622   2.129 -0.7797  1.5500 -1.2379
11409SOL     OW39164   7.923   0.797   4.352  0.1633 -0.0609  0.1834
11409SOL    HW139165   7.987   0.825   4.287 -0.1100 -0.5206 -0.2855
11409SOL    HW239166   7.969   0.732   4.404  0.7116  1.0234  1.1039
11410SOL     OW39167   4.583  10.968   9.033 -0.4924  0.4347 -0.6928
11410SOL    HW139168   4.583  10.896   8.970  0.5364 -0.1926  0.0067
11410SOL    HW239169   4.633  10.936   9.108 -1.4496  1.2655  0.3473
11411SOL     OW39170  10.175   3.095  10.573  0.1896 -0.3846 -0.0475
11411SOL    HW139171  10.158   3.108  10.480  0.6470  0.5837 -0.0102
11411SOL    HW239172  10.267   3.116  10.584  0.1513 -0.5526  0.6156
11412SOL     OW39173   2.379   4.952   3.997  0.9500  0.7626  0.1154
11412SOL    HW139174   2.447   4.885   4.003 -0.3382 -0.4811  1.5318
11412SOL    HW239175   2.398   5.013   4.068  0.6140  0.4127  0.5141
11413SOL     OW39176  11.008   3.844   6.311 -0.0684  0.3955  0.3787
11413SOL    HW139177  11.019   3.933   6.278  2.8402  0.1611  0.5100
11413SOL    HW239178  11.019   3.851   6.406 -2.5075  0.2043  0.7468
11414SOL     OW39179   1.287   6.954  10.273 -0.1073  0.2442 -0.4625
11414SOL    HW139180   1.319   7.034  10.232  1.3056  0.2512  0.5597
11414SOL    HW239181   1.258   6.981  10.360 -1.8932  0.0191 -0.9413
11415SOL     OW39182   0.358   7.285   3.940  0.0078 -0.4428 -0.5570
11415SOL    HW139183   0.392   7.216   3.882 -2.1456 -1.7125 -0.4169
11415SOL    HW239184   0.274   7.251   3.970 -0.6050  1.7937  0.4270
11416SOL     OW39185  10.242   5.394   9.789  0.0893 -0.3638  0.1064
11416SOL    HW139186  10.317   5.334   9.791  0.7310  0.4128 -0.1815
11416SOL    HW239187  10.202   5.378   9.703  1.5105  1.0793 -0.8865
11417SOL     OW39188   3.605   0.572   3.909  0.4114 -0.5257  0.2152
11417SOL    HW139189   3.662   0.496   3.905  0.4829 -0.4914  0.5910
11417SOL    HW239190   3.587   0.585   4.002  0.3933 -0.0890  0.1555
11418SOL     OW39191   7.572   8.919   7.683  0.0469 -0.0881 -0.0639
11418SOL    HW139192   7.646   8.861   7.699 -0.3644 -0.3819  0.8933
11418SOL    HW239193   7.547   8.904   7.592  0.6072 -0.6291 -0.1293
11419SOL     OW39194   9.158   1.174   3.423 -0.2327 -0.1992 -0.1254
11419SOL    HW139195   9.186   1.263   3.401  0.6976 -0.5808 -0.5679
11419SOL    HW239196   9.084   1.156   3.364 -0.1866  0.1490 -0.2875
11420SOL     OW39197   8.440   3.712   7.300  0.3430  0.0738 -0.0138
11420SOL    HW139198   8.463   3.798   7.335  0.0291  0.1613 -0.0191
11420SOL    HW239199   8.432   3.726   7.205  2.4073 -0.4239 -0.3064
11421SOL     OW39200   4.382   7.360   2.713 -0.0545 -0.7350 -0.2513
11421SOL    HW139201   4.477   7.367   2.719 -0.0695 -0.3128 -0.4127
11421SOL    HW239202   4.352   7.355   2.804  0.0653  0.0757 -0.1556
11422SOL     OW39203   6.037   6.862   7.356 -0.2919  0.3396 -0.1377
11422SOL    HW139204   6.083   6.877   7.438  1.7200  0.2808 -1.1743
11422SOL    HW239205   6.060   6.938   7.302 -1.2877  0.2067 -0.7612
11423SOL     OW39206   5.839   0.798  10.271 -0.2744 -0.0415  0.9216
11423SOL    HW139207   5.905   0.777  10.205 -0.0648  1.0867  0.7554
11423SOL    HW239208   5.769   0.735  10.255  1.1208 -1.8787  1.6943
11424SOL     OW39209   2.803   8.498   2.879  0.0848  0.5069  0.0176
11424SOL    HW139210   2.850   8.568   2.924 -0.7578  1.3054 -0.3206
11424SOL    HW239211   2.846   8.417   2.909 -0.0017  1.0465  1.6815
11425SOL     OW39212   7.828   4.412   2.983  0.6893  0.6611 -0.1047
11425SOL    HW139213   7.856   4.469   2.911  0.8655 -0.4948 -0.9874
11425SOL    HW239214   7.807   4.329   2.940 -3.0051  1.0429  0.6027
11426SOL     OW39215   6.214  10.813   9.467 -0.4059 -0.2687  1.0188
11426SOL    HW139216   6.278  10.826   9.397 -1.9911 -0.5018 -0.5360
11426SOL    HW239217   6.192  10.902   9.495  0.1337 -0.1749  1.1781
11427SOL     OW39218   5.628  11.274   4.665  0.0670  0.4423 -0.0325
11427SOL    HW139219   5.536  11.287   4.643  0.3377 -0.7162 -2.0920
11427SOL    HW239220   5.654  11.195   4.618  2.6136  1.7809 -1.1066
11428SOL     OW39221   5.950   2.612   8.849  0.2088  0.4535 -0.0340
11428SOL    HW139222   5.856   2.610   8.862 -0.2950  1.6739 -2.8260
11428SOL    HW239223   5.979   2.522   8.867 -1.2345  0.3291  2.0029
11429SOL     OW39224   4.523   9.985   6.313  0.3069 -0.1240 -0.1352
11429SOL    HW139225   4.583  10.059   6.313  0.9094 -0.6115 -0.2325
11429SOL    HW239226   4.556   9.926   6.381 -1.5564  0.7813  1.6637
11430SOL     OW39227   5.846   0.925   8.831  0.1715 -0.8007 -0.4128
11430SOL    HW139228   5.825   0.976   8.909 -0.2601  0.2552 -1.2032
11430SOL    HW239229   5.939   0.943   8.815 -0.0898  0.1424 -0.9570
11431SOL     OW39230  10.030  11.250  11.211 -0.4232  0.0353  0.0942
11431SOL    HW139231  10.038  11.180  11.146 -0.2282  0.3442 -0.2165
11431SOL    HW239232  10.080  11.218  11.286 -0.6822 -0.3398  0.1045
11432SOL     OW39233   5.745   7.420   1.984  0.1942  0.0986 -0.0216
11432SOL    HW139234   5.670   7.368   1.954 -1.1148  1.5851  0.5389
11432SOL    HW239235   5.779   7.460   1.904  1.0310 -1.3051 -0.4168
11433SOL     OW39236   5.250   1.884   0.378 -0.1253  0.6245 -0.3760
11433SOL    HW139237   5.343   1.862   0.387 -0.0934  1.1338  0.7470
11433SOL    HW239238   5.235   1.887   0.283  0.0777 -3.1969 -0.6706
11434SOL     OW39239   0.143   8.160   0.598  0.4217 -0.5182 -0.1342
11434SOL    HW139240   0.113   8.154   0.508  2.4407 -1.4394 -0.8086
11434SOL    HW239241   0.071   8.123   0.650 -0.8819  0.3037 -1.3075
11435SOL     OW39242   2.898   9.444   4.307 -0.0380 -0.5343 -0.5397
11435SOL    HW139243   2.836   9.461   4.378  1.2231  0.4573  0.4075
11435SOL    HW239244   2.951   9.370   4.339  1.3669  0.7204  0.2193
11436SOL     OW39245   1.074   2.437  11.582  0.1448  0.1367  0.1297
11436SOL    HW139246   1.097   2.420  11.673 -0.3181 -0.4480  0.1413
11436SOL    HW239247   1.065   2.532  11.576  0.7345  0.2216  0.5581
11437SOL     OW39248   5.662   9.638   7.377  0.8155  0.0357 -0.1933
11437SOL    HW139249   5.662   9.718   7.324  1.0525 -0.2809 -0.6804
11437SOL    HW239250   5.732   9.584   7.338  2.7496  0.8063  1.9524
11438SOL     OW39251   2.040   8.763   7.916  0.0955 -0.1616 -0.1501
11438SOL    HW139252   2.002   8.849   7.898  0.9252  0.3347  0.4116
11438SOL    HW239253   2.005   8.707   7.847 -2.4642  0.0133  0.9003
11439SOL     OW39254  11.201   7.204   7.056  0.0908  0.0736  0.2790
11439SOL    HW139255  11.232   7.187   6.967 -0.1085  0.2037  0.1841
11439SOL    HW239256  11.111   7.234   7.045 -0.4217 -1.2649  0.6226
11440SOL     OW39257  11.647   8.015  11.396 -0.5957 -0.3706 -0.8625
11440SOL    HW139258  11.574   8.006  11.457  0.3226  1.0486  0.5326
11440SOL    HW239259  11.636   8.102  11.358  0.8731  0.2849  0.1266
11441SOL     OW39260   6.491   6.576   3.510 -0.4467 -0.3643 -0.1431
11441SOL    HW139261   6.454   6.662   3.488 -0.1412  0.2644  1.6378
11441SOL    HW239262   6.415   6.525   3.539 -0.2816  0.2459  1.4801
11442SOL     OW39263   7.784  11.245  11.349 -0.3442 -0.3912  0.3146
11442SOL    HW139264   7.814  11.189  11.421  2.4328 -1.7760 -1.7589
11442SOL    HW239265   7.694  11.216  11.333 -1.2196  0.2542  3.3668
11443SOL     OW39266   0.152  11.665   2.152  0.1832 -0.3517  0.0894
11443SOL    HW139267   0.075  11.610   2.137  0.9949 -1.1878 -1.2664
11443SOL    HW239268   0.193  11.672   2.066 -0.1079  2.7765  0.0948
11444SOL     OW39269   5.616   8.872   2.051 -0.1998 -0.0766 -0.2103
11444SOL    HW139270   5.618   8.885   1.956  0.7326 -0.5006 -0.2580
11444SOL    HW239271   5.707   8.857   2.075 -0.2045  1.5278  0.9837
11445SOL     OW39272   1.480   4.958   8.508  0.5036 -0.3511  0.5467
11445SOL    HW139273   1.387   4.965   8.528  0.6938  0.4495  1.2438
11445SOL    HW239274   1.524   4.987   8.588  1.3702 -1.4678  0.5034
11446SOL     OW39275   4.324   3.113  11.573 -0.1377 -0.5116  0.2006
11446SOL    HW139276   4.365   3.127  11.658  0.5877  1.9296 -0.4577
11446SOL    HW239277   4.243   3.164  11.577 -1.1861 -2.0900  0.1058
11447SOL     OW39278   7.964   3.349   4.724 -0.7080 -0.1546  0.0367
11447SOL    HW139279   8.015   3.417   4.768 -0.8163 -0.7477  1.1422
11447SOL    HW239280   8.009   3.268   4.747 -0.3324 -0.4414 -1.6180
11448SOL     OW39281   0.061   6.386   1.437  0.3882  0.2696  0.0875
11448SOL    HW139282   0.006   6.375   1.359 -0.0778 -1.5098  0.6165
11448SOL    HW239283   0.004   6.361   1.510  1.1054  1.0052  0.9183
11449SOL     OW39284   5.765   1.583   0.189 -0.0891 -0.5488  0.0064
11449SOL    HW139285   5.741   1.500   0.232 -0.7690 -2.0317 -2.9731
11449SOL    HW239286   5.788   1.558   0.100  0.3265  2.4424 -0.8276
11450SOL     OW39287   1.223   8.513   2.974  0.2861 -0.3057 -0.7992
11450SOL    HW139288   1.211   8.480   2.885 -0.5867  0.9115 -1.1622
11450SOL    HW239289   1.241   8.606   2.963  1.8175 -0.4468  0.2388
11451SOL     OW39290   9.290   5.540   8.694  0.4876 -0.2870  0.1830
11451SOL    HW139291   9.279   5.506   8.783 -0.1333  0.6431  0.4729
11451SOL    HW239292   9.224   5.609   8.686  0.2119 -0.6817 -1.1681
11452SOL     OW39293   4.060   5.195   3.301  0.5339  0.2135  0.4349
11452SOL    HW139294   4.033   5.285   3.282  0.6361  0.4148  1.2071
11452SOL    HW239295   4.150   5.204   3.333  0.3782 -0.1150  0.9673
11453SOL     OW39296   1.006   9.156   2.833  0.0250 -0.1960 -0.9439
11453SOL    HW139297   1.049   9.225   2.883 -0.4268  0.4987 -1.5101
11453SOL    HW239298   0.912   9.174   2.842 -0.0796 -0.3897 -1.5725
11454SOL     OW39299   6.509  10.961   5.902 -0.1793  0.5857  0.3591
11454SOL    HW139300   6.416  10.938   5.912  0.1269  0.1529  2.8685
11454SOL    HW239301   6.550  10.929   5.983  2.3663 -0.1340 -1.1170
11455SOL     OW39302  10.999   0.075   4.227  0.1251  0.2115 -0.3539
11455SOL    HW139303  11.078   0.128   4.229  0.1670  0.1455  1.0670
11455SOL    HW239304  10.927   0.138   4.231  0.1671  0.2064  0.8534
11456SOL     OW39305   7.691   4.215  11.276 -0.2443  0.1245  0.2474
11456SOL    HW139306   7.623   4.148  11.273 -1.6375  1.5167 -1.3177
11456SOL    HW239307   7.764   4.177  11.228 -0.4412 -0.8351  0.6806
11457SOL     OW39308   1.601   2.521   5.494  0.2133 -0.2668  0.0409
11457SOL    HW139309   1.686   2.540   5.534  0.1717  0.3947 -0.1681
11457SOL    HW239310   1.539   2.572   5.546 -0.0327 -0.5895  0.0674
11458SOL     OW39311   2.465   1.427   9.102 -0.4888  0.3548 -0.0036
11458SOL    HW139312   2.482   1.429   9.196  1.1418 -0.6765 -0.2439
11458SOL    HW239313   2.443   1.335   9.084  0.6965  0.2121 -0.8398
11459SOL     OW39314   4.091   9.803   4.986 -0.6266  0.2762  0.0823
11459SOL    HW139315   4.150   9.879   4.987 -1.2808  0.8012 -0.2854
11459SOL    HW239316   4.149   9.727   4.991  0.1202  0.7726 -0.7149
11460SOL     OW39317   1.674   2.017   8.502  0.0043  0.8296 -0.0559
11460SOL    HW139318   1.720   1.972   8.431 -0.7946  1.6971 -1.1693
11460SOL    HW239319   1.738   2.078   8.539  0.9968 -0.9291  1.2509
11461SOL     OW39320   9.250   3.475   1.547 -0.1210  0.7059 -0.3416
11461SOL    HW139321   9.255   3.424   1.628  1.3969  1.3945  0.0322
11461SOL    HW239322   9.341   3.500   1.529 -0.4594  0.7401 -2.1606
11462SOL     OW39323   5.597   2.054   1.852  0.2312 -0.5348  0.0744
11462SOL    HW139324   5.672   1.999   1.827 -0.1015 -1.3598  0.8460
11462SOL    HW239325   5.565   2.015   1.933 -0.1307  0.7013  0.5450
11463SOL     OW39326   1.998   4.534   2.109 -0.3758 -0.0946  0.2167
11463SOL    HW139327   2.042   4.504   2.029 -1.6072 -0.8757 -0.1859
11463SOL    HW239328   1.909   4.501   2.101 -1.2055  1.8751  0.7840
11464SOL     OW39329   7.988   9.069   9.420 -0.0397  0.0282 -0.3826
11464SOL    HW139330   7.937   8.988   9.419  2.2150 -1.5345  1.2383
11464SOL    HW239331   7.923   9.139   9.421 -2.0926 -1.7980 -0.1610
11465SOL     OW39332   6.289   0.772   3.338  0.1464 -0.6892 -0.1400
11465SOL    HW139333   6.383   0.791   3.340  0.0899 -0.1478 -1.6817
11465SOL    HW239334   6.247   0.857   3.328 -0.5435 -0.8888  0.9391
11466SOL     OW39335   6.720   9.842   1.906 -0.4508 -0.1468 -0.6031
11466SOL    HW139336   6.732   9.936   1.921 -0.1677 -0.6151  2.8292
11466SOL    HW239337   6.741   9.801   1.989 -1.3221 -3.2395 -1.7574
11467SOL     OW39338   1.207   9.027   4.420 -0.8091  0.3567 -0.3886
11467SOL    HW139339   1.273   9.020   4.351  0.1410  0.3191  0.5096
11467SOL    HW239340   1.242   9.093   4.480 -0.2199 -1.6403  1.5741
11468SOL     OW39341   5.224   0.128   0.151  0.7333 -0.0353 -0.0996
11468SOL    HW139342   5.271   0.093   0.075  1.1295  0.5563 -0.1374
11468SOL    HW239343   5.256   0.075   0.224  0.2582 -0.6881 -0.3574
11469SOL     OW39344   8.555   3.972   7.266 -0.3648 -0.3378 -0.3761
11469SOL    HW139345   8.533   4.061   7.239 -0.6593  0.4762  2.2573
11469SOL    HW239346   8.642   3.957   7.229 -1.0522  0.3151 -2.3661
11470SOL     OW39347   5.758   0.688   9.735  0.2789  0.2628  0.4139
11470SOL    HW139348   5.773   0.783   9.736  0.3247  0.2544  1.6393
11470SOL    HW239349   5.666   0.680   9.709  0.9355  0.5086 -2.2204
11471SOL     OW39350   2.161  11.623  11.245  0.2512  0.8469  0.1456
11471SOL    HW139351   2.192  11.532  11.244  0.1852  0.8263 -0.1426
11471SOL    HW239352   2.223  11.669  11.188  0.7983  1.1540  0.9692
11472SOL     OW39353   9.626   5.322   0.008  0.3022  0.5851  0.0913
11472SOL    HW139354   9.590   5.403   0.043 -1.3112  0.8230 -1.9836
11472SOL    HW239355   9.688   5.349  -0.060 -1.1244  0.1371 -1.4492
11473SOL     OW39356   1.662   5.675  10.301  0.2724  0.3714  0.5952
11473SOL    HW139357   1.659   5.756  10.251  0.7603  1.1022  1.7186
11473SOL    HW239358   1.578   5.632  10.282 -0.3708  1.5599  0.6799
11474SOL     OW39359   2.895  10.841   7.667  0.1258 -0.8029  0.0696
11474SOL    HW139360   2.853  10.769   7.713  0.5366 -1.1191 -0.0378
11474SOL    HW239361   2.962  10.873   7.727 -1.0637  0.5041  0.7354
11475SOL     OW39362   5.244   7.898  10.821  0.8066  0.1376 -0.3267
11475SOL    HW139363   5.189   7.976  10.812  0.1657 -0.3703 -0.9069
11475SOL    HW239364   5.317   7.927  10.875 -0.5111  0.5746  1.3161
11476SOL     OW39365   6.264   3.689   2.642 -0.3014 -0.1403 -0.0999
11476SOL    HW139366   6.216   3.630   2.584  0.4666 -0.8323 -0.0422
11476SOL    HW239367   6.353   3.653   2.646 -0.2956 -0.0348  1.3922
11477SOL     OW39368   8.586   2.096   9.393 -0.5371  0.5248  0.2402
11477SOL    HW139369   8.577   2.093   9.489 -0.4058  1.8576  0.3146
11477SOL    HW239370   8.501   2.127   9.362 -0.3178  0.8770 -0.0122
11478SOL     OW39371   6.216   8.307   6.959 -0.3224  0.5745 -0.1367
11478SOL    HW139372   6.170   8.223   6.950  0.7249  0.1126 -1.6210
11478SOL    HW239373   6.169   8.366   6.900 -0.2919  0.6910 -0.0447
11479SOL     OW39374   8.153   1.588   1.206  0.6439  0.3971  0.5111
11479SOL    HW139375   8.174   1.663   1.263 -0.8339 -0.0429  1.7298
11479SOL    HW239376   8.121   1.521   1.266  0.1284 -0.5251 -0.7467
11480SOL     OW39377   6.481   0.761   9.651 -0.1999 -0.4481  0.3577
11480SOL    HW139378   6.559   0.719   9.615 -0.0863  0.6853 -0.7925
11480SOL    HW239379   6.516   0.827   9.712 -0.3092 -0.7935  0.7953
11481SOL     OW39380   6.088   7.160   4.276 -0.0441 -0.1508  0.4984
11481SOL    HW139381   6.143   7.083   4.263 -0.0089 -0.1072  0.3855
11481SOL    HW239382   6.139   7.232   4.242 -0.9864 -0.3784 -1.5558
11482SOL     OW39383   3.366   1.664   6.340  0.1167  0.3540  1.0230
11482SOL    HW139384   3.296   1.647   6.277 -0.1651  0.6027  1.2680
11482SOL    HW239385   3.409   1.743   6.308 -0.1048  0.5514  1.2048
11483SOL     OW39386   3.609   0.103  11.526  0.2922 -0.1019 -0.4289
11483SOL    HW139387   3.648   0.022  11.559  0.6333  0.0110 -0.5440
11483SOL    HW239388   3.608   0.163  11.601  1.0137  0.1358 -0.5991
11484SOL     OW39389   5.776   4.304   9.130  0.0251 -0.0103  0.1837
11484SOL    HW139390   5.754   4.366   9.200  1.0561  0.5201  0.0484
11484SOL    HW239391   5.844   4.248   9.168 -0.6501 -0.8569  0.1856
11485SOL     OW39392   9.761   7.312   5.564  0.7283 -0.1268  0.0551
11485SOL    HW139393   9.760   7.248   5.636 -0.6610  1.2101  1.2918
11485SOL    HW239394   9.696   7.280   5.502  0.2890 -0.0889  0.4969
11486SOL     OW39395   8.856   3.607  11.520 -0.3709  0.6114  0.3700
11486SOL    HW139396   8.831   3.597  11.612 -2.9864  0.0323 -0.3250
11486SOL    HW239397   8.885   3.519  11.494  0.7966  0.8758  0.7171
11487SOL     OW39398   7.573   0.803   0.483 -0.3953  0.7223 -0.3706
11487SOL    HW139399   7.666   0.788   0.467 -0.6050 -0.6755 -0.3419
11487SOL    HW239400   7.571   0.874   0.548  0.6821  0.0573  0.4180
11488SOL     OW39401   5.080  10.992   9.311  0.0756  0.4066 -0.0572
11488SOL    HW139402   5.053  11.074   9.353 -0.1523 -0.0400  0.6916
11488SOL    HW239403   5.062  10.925   9.376  0.2229 -0.2492 -0.6803
11489SOL     OW39404   0.128   6.410   5.609 -0.1368  0.4088  0.2813
11489SOL    HW139405   0.109   6.469   5.682 -1.2840 -0.4085  0.6744
11489SOL    HW239406   0.217   6.378   5.627 -0.8225 -0.6719  1.9796
11490SOL     OW39407   4.178   8.667   2.651  0.1606  0.4689 -0.4939
11490SOL    HW139408   4.182   8.669   2.747 -0.4947  1.0130 -0.4653
11490SOL    HW239409   4.109   8.603   2.631  1.8779 -1.4128 -0.6867
11491SOL     OW39410   5.377  10.283   4.892  0.3609 -0.1491  0.1872
11491SOL    HW139411   5.284  10.304   4.903  0.3032 -1.2744  2.5783
11491SOL    HW239412   5.378  10.190   4.868  0.8240 -0.7597  2.2876
11492SOL     OW39413   2.503   5.835   8.224 -0.1452  0.2353 -0.1069
11492SOL    HW139414   2.463   5.861   8.142 -1.1571  0.2952  0.3958
11492SOL    HW239415   2.522   5.917   8.269  1.7756  0.2705 -0.8829
11493SOL     OW39416   8.312   1.964   2.662 -0.4211  0.3054 -0.2819
11493SOL    HW139417   8.359   1.889   2.627 -0.4138 -0.0135  0.4009
11493SOL    HW239418   8.292   2.018   2.585 -0.2379 -0.2838 -0.7464
11494SOL     OW39419  10.262   5.944   5.502 -0.1584 -0.1670  0.2391
11494SOL    HW139420  10.194   5.886   5.533  0.3879 -1.6089 -1.1216
11494SOL    HW239421  10.327   5.886   5.462 -0.2888  1.4276 -2.5229
11495SOL     OW39422   5.636   8.248   1.387 -0.8814 -0.6181  0.0005
11495SOL    HW139423   5.585   8.203   1.319  0.2617 -1.2195 -0.4852
11495SOL    HW239424   5.694   8.306   1.338 -1.0336 -0.0038  0.5422
11496SOL     OW39425   5.498   6.993   1.127  0.5735 -0.5839 -0.0038
11496SOL    HW139426   5.501   6.909   1.172 -1.7684 -0.2709  0.8738
11496SOL    HW239427   5.492   7.057   1.197 -0.6898  0.0894 -0.6956
11497SOL     OW39428   7.571   1.400   8.285 -0.4760  0.0565 -0.0742
11497SOL    HW139429   7.519   1.471   8.249 -0.8959 -0.4718 -0.5344
11497SOL    HW239430   7.590   1.344   8.210  1.9313  0.9175 -0.2064
11498SOL     OW39431   3.445   0.205   7.523  0.1729 -0.1743  0.4980
11498SOL    HW139432   3.513   0.150   7.485 -0.9248 -2.3923  1.5600
11498SOL    HW239433   3.473   0.219   7.614 -0.4739 -0.5843  0.7646
11499SOL     OW39434  10.318   8.060   7.779  0.0397  0.5705 -0.5098
11499SOL    HW139435  10.256   8.132   7.764  0.0195  0.9443  1.1536
11499SOL    HW239436  10.392   8.080   7.722  0.0856  1.9998  0.0031
11500SOL     OW39437   6.762  11.499   7.073 -0.4980  0.5214 -0.2179
11500SOL    HW139438   6.686  11.453   7.037 -0.0291  0.6985 -1.4544
11500SOL    HW239439   6.791  11.557   7.003  0.9789  0.2117  0.1097
11501SOL     OW39440  10.550  10.737   2.517  0.0215  0.4131  0.4555
11501SOL    HW139441  10.526  10.801   2.451 -0.3880  0.4531  0.6363
11501SOL    HW239442  10.632  10.699   2.486 -1.1426 -0.9918 -1.1010
11502SOL     OW39443   4.398   2.138   1.755 -0.3527  0.2046 -0.0098
11502SOL    HW139444   4.445   2.219   1.774  0.0524 -0.1210  0.3755
11502SOL    HW239445   4.335   2.128   1.826 -0.4129  0.1829 -0.0646
11503SOL     OW39446   0.521   8.166   9.655  0.0408 -0.2506 -0.3172
11503SOL    HW139447   0.603   8.214   9.641  0.0975 -0.3826 -0.4337
11503SOL    HW239448   0.457   8.211   9.601 -0.1258  0.2902  0.3135
11504SOL     OW39449   4.903   1.926   9.946  0.3656 -0.3721 -0.1703
11504SOL    HW139450   4.834   1.877   9.901  0.5091 -1.2018  0.4973
11504SOL    HW239451   4.962   1.859   9.980  0.4434  0.2573  0.9604
11505SOL     OW39452   7.173   1.884   9.635  0.1280 -0.6415 -0.0218
11505SOL    HW139453   7.167   1.894   9.540  0.3291 -0.6269 -0.0339
11505SOL    HW239454   7.167   1.790   9.650  0.1678 -0.6492 -0.0548
11506SOL     OW39455   7.895   4.545   2.739 -0.1560 -0.2647 -0.4129
11506SOL    HW139456   7.877   4.585   2.654  0.5590 -0.0324 -0.4564
11506SOL    HW239457   7.964   4.598   2.777  0.3462 -1.0603 -0.1857
11507SOL     OW39458   3.856   0.018   7.190  0.0334 -0.1146  0.0105
11507SOL    HW139459   3.795   0.047   7.122  1.1574  0.8468 -0.6166
11507SOL    HW239460   3.845  -0.077   7.194 -0.7082 -0.0695 -0.8570
11508SOL     OW39461   7.675   4.081   0.211 -0.7643  0.1913 -0.1592
11508SOL    HW139462   7.727   4.145   0.162 -2.1314  1.6937  0.2436
11508SOL    HW239463   7.678   4.111   0.302 -1.3713 -0.3565  0.0539
11509SOL     OW39464   5.494  10.905   4.017 -0.0087  0.2525 -0.0969
11509SOL    HW139465   5.578  10.896   4.061  0.2194  0.7364 -0.4290
11509SOL    HW239466   5.440  10.955   4.078 -0.0441 -0.0133  0.0929
11510SOL     OW39467   3.694  10.646  10.824 -0.2593 -0.1510  0.3051
11510SOL    HW139468   3.704  10.639  10.919 -1.7619  0.5086  0.5529
11510SOL    HW239469   3.698  10.555  10.793  1.0703 -0.3068  0.8894
11511SOL     OW39470   7.172   0.577   1.171 -0.2346  0.7839  0.0096
11511SOL    HW139471   7.152   0.662   1.210  2.0312  0.8600  1.1752
11511SOL    HW239472   7.262   0.559   1.198 -0.2791 -1.4887 -1.1358
11512SOL     OW39473   6.860   3.233   7.313 -0.7751  0.2420 -0.4709
11512SOL    HW139474   6.856   3.329   7.316  0.6710  0.4775 -3.0074
11512SOL    HW239475   6.841   3.211   7.222 -0.5934 -1.8684 -0.0529
11513SOL     OW39476   7.890   7.613   0.245  0.0343  0.4636  0.0810
11513SOL    HW139477   7.796   7.630   0.250 -0.0377  0.3150 -0.5925
11513SOL    HW239478   7.927   7.693   0.208 -0.2525 -0.5408 -2.6951
11514SOL     OW39479  10.189   5.351   7.894 -0.1724  0.0899 -0.7838
11514SOL    HW139480  10.202   5.445   7.879  1.0491  0.1497  0.4425
11514SOL    HW239481  10.260   5.309   7.846  0.9847  0.0095  0.9055
11515SOL     OW39482   0.513  10.476   0.921  0.4918  0.8302  0.6270
11515SOL    HW139483   0.437  10.510   0.874 -0.1546 -1.6759 -0.3312
11515SOL    HW239484   0.588  10.513   0.874 -0.1504  0.6290 -0.6197
11516SOL     OW39485   1.921   5.892   1.440  0.4416 -0.6526  0.2100
11516SOL    HW139486   1.880   5.976   1.419  0.2935 -0.5044  1.0549
11516SOL    HW239487   2.002   5.891   1.389  0.0254 -0.3719 -0.4652
11517SOL     OW39488   8.423   3.962   0.633  0.3219  0.6839 -0.1319
11517SOL    HW139489   8.433   4.045   0.585  2.3859  0.9242  0.5949
11517SOL    HW239490   8.455   3.982   0.721 -0.7260 -0.4875  0.5319
11518SOL     OW39491  10.606   3.571   0.518 -0.4797 -0.1954 -0.1463
11518SOL    HW139492  10.660   3.495   0.539 -2.2707 -1.0704  1.7421
11518SOL    HW239493  10.535   3.536   0.464  0.2623  0.7519 -1.8066
11519SOL     OW39494  10.511  10.345   3.379 -0.1421  0.5307  0.4860
11519SOL    HW139495  10.589  10.384   3.419  0.8399 -1.9952  1.2279
11519SOL    HW239496  10.438  10.387   3.424  0.8607  0.8560  1.9006
11520SOL     OW39497   0.679   8.591   0.827  0.2941 -0.4433 -0.1804
11520SOL    HW139498   0.772   8.593   0.802  0.7877  2.1139  1.4086
11520SOL    HW239499   0.680   8.561   0.918 -0.1548  1.4069  0.4869
11521SOL     OW39500   9.077   7.329   5.284  0.7626  0.0903 -0.1830
11521SOL    HW139501   9.023   7.256   5.253  1.0259 -0.0704 -0.2748
11521SOL    HW239502   9.129   7.354   5.208 -0.5039  1.4853 -0.6255
11522SOL     OW39503   9.374   5.092   9.067 -0.0779  0.3897  0.1934
11522SOL    HW139504   9.292   5.049   9.040  1.2526 -1.5052 -1.1252
11522SOL    HW239505   9.381   5.072   9.160 -0.8707  0.1526  0.2170
11523SOL     OW39506   8.963   9.382   6.752 -0.1149 -0.7619  0.0374
11523SOL    HW139507   8.967   9.478   6.751 -1.8126 -0.6627 -1.0282
11523SOL    HW239508   8.930   9.359   6.665 -2.3989 -2.1558  1.1882
11524SOL     OW39509   7.216   8.489   3.305  0.2712 -0.4035  0.3815
11524SOL    HW139510   7.306   8.512   3.280 -0.3303 -0.4940 -2.1581
11524SOL    HW239511   7.202   8.403   3.267 -0.4857 -0.9858  1.9231
11525SOL     OW39512   4.455  11.100   4.545  0.1664 -0.4628 -0.2309
11525SOL    HW139513   4.386  11.088   4.610  0.4937 -1.0163  0.0200
11525SOL    HW239514   4.506  11.019   4.549  0.5234 -0.2691 -0.7786
11526SOL     OW39515   5.711   3.216  11.239  0.1807  0.0408  0.2257
11526SOL    HW139516   5.732   3.152  11.172 -1.5121  0.0149 -0.3329
11526SOL    HW239517   5.782   3.210  11.303  1.3711 -0.5405 -1.1255
11527SOL     OW39518   8.134   9.952   2.060  0.5469 -0.2802 -0.0794
11527SOL    HW139519   8.158   9.861   2.078 -0.1792 -0.2984  0.8883
11527SOL    HW239520   8.043   9.948   2.031  1.2048 -0.0742 -2.3449
11528SOL     OW39521  11.035   0.308   3.504  0.1868  0.3232 -0.6186
11528SOL    HW139522  10.960   0.280   3.557  0.9230 -1.0197 -0.2357
11528SOL    HW239523  11.075   0.226   3.474  0.9297  1.0367 -1.6255
11529SOL     OW39524   3.969   8.185   7.111 -0.2069  0.1682 -0.4960
11529SOL    HW139525   4.046   8.238   7.132 -0.4557  0.9545 -1.4856
11529SOL    HW239526   3.902   8.249   7.087 -1.0876 -0.5234  0.0580
11530SOL     OW39527   3.376   9.105  10.958  0.0734 -0.6695 -0.0747
11530SOL    HW139528   3.407   9.137  11.043 -1.3213  0.1255  0.1659
11530SOL    HW239529   3.432   9.150  10.894 -1.4687  1.9781  0.2805
11531SOL     OW39530   8.948   0.825   3.148 -0.2717 -0.2486 -0.0993
11531SOL    HW139531   8.886   0.868   3.089  0.7376  0.1887 -0.8838
11531SOL    HW239532   8.987   0.756   3.094  2.2832  1.5491 -0.7384
11532SOL     OW39533   7.426   3.270   8.794  0.2720  0.0630  0.4832
11532SOL    HW139534   7.343   3.285   8.749  0.1117 -1.6336  0.1517
11532SOL    HW239535   7.492   3.273   8.725  0.1542 -1.3834  0.2859
11533SOL     OW39536   6.340   3.786   6.550  0.0802  0.7454  0.6236
11533SOL    HW139537   6.332   3.751   6.462  1.9275  1.2137  0.2287
11533SOL    HW239538   6.253   3.775   6.589 -0.5925 -0.0191 -1.0349
11534SOL     OW39539   7.724   6.185   2.075 -0.0953  0.1551  0.1333
11534SOL    HW139540   7.670   6.152   2.003  0.2984  1.2161 -0.6730
11534SOL    HW239541   7.661   6.216   2.139 -0.4511 -0.7596  0.2527
11535SOL     OW39542   3.644   5.429   8.089 -0.1908  0.4464  0.4684
11535SOL    HW139543   3.723   5.428   8.036 -0.0985 -0.4995  0.6217
11535SOL    HW239544   3.593   5.355   8.058 -0.6344  0.5444  0.9554
11536SOL     OW39545   7.621   0.605   1.818  0.3312  0.7797  0.4689
11536SOL    HW139546   7.630   0.658   1.897 -1.7886 -1.0291  2.0589
11536SOL    HW239547   7.649   0.518   1.844 -2.9385 -0.5275  0.1663
11537SOL     OW39548   2.745   0.736   1.507  0.2142  0.2223  0.0091
11537SOL    HW139549   2.704   0.654   1.478 -0.5198 -0.1441  1.9440
11537SOL    HW239550   2.835   0.731   1.476  0.5197 -1.8761  1.0839
11538SOL     OW39551   8.711   0.651   8.044  0.0887 -0.5361  0.0900
11538SOL    HW139552   8.685   0.559   8.046  2.0135 -1.1259  0.8711
11538SOL    HW239553   8.739   0.666   7.953  0.7392 -1.0327  0.2023
11539SOL     OW39554   6.758   2.447   6.171  0.1757 -0.3330  0.3402
11539SOL    HW139555   6.755   2.525   6.226  1.1713 -0.2914  0.3531
11539SOL    HW239556   6.791   2.378   6.229 -0.3801 -0.6974  0.2383
11540SOL     OW39557   0.909   7.954  10.053 -0.2396 -0.3693 -0.0043
11540SOL    HW139558   0.901   7.972  10.147  1.2467 -0.6240  0.1982
11540SOL    HW239559   0.864   7.870  10.041 -1.8280  0.4195  0.1634
11541SOL     OW39560  10.829   9.894   2.564  0.1737  0.0937  0.0869
11541SOL    HW139561  10.760   9.847   2.610 -0.9108 -0.4570 -1.9813
11541SOL    HW239562  10.787   9.973   2.531  1.3945  1.4171  1.5088
11542SOL     OW39563   6.454   6.457   0.545  0.3119 -0.1004  0.1211
11542SOL    HW139564   6.379   6.450   0.486  0.6780 -1.1187 -0.2380
11542SOL    HW239565   6.527   6.480   0.488  0.7264 -1.3723  0.1162
11543SOL     OW39566   5.626   7.362   8.644 -0.1474  0.4210 -0.3538
11543SOL    HW139567   5.720   7.376   8.658 -0.0895 -0.7564  0.5288
11543SOL    HW239568   5.619   7.338   8.551  0.8211 -2.4356  0.2368
11544SOL     OW39569  11.467   3.365   0.567  0.0528  0.0107 -0.4722
11544SOL    HW139570  11.413   3.293   0.600  2.2065 -0.2740  2.9008
11544SOL    HW239571  11.516   3.326   0.494  1.0224 -2.0029  1.1293
11545SOL     OW39572   4.796   5.402   5.254 -1.2572 -0.1012 -0.5450
11545SOL    HW139573   4.862   5.400   5.323 -2.1798 -1.6144  0.3293
11545SOL    HW239574   4.784   5.496   5.236  0.7473  0.2261 -0.3994
11546SOL     OW39575   5.062   7.228   7.371 -0.6046 -0.1369  0.3830
11546SOL    HW139576   4.969   7.251   7.376 -0.1094  1.8194  3.3158
11546SOL    HW239577   5.093   7.270   7.291 -2.0667 -0.2707 -0.3003
11547SOL     OW39578   9.515   1.978  11.353  0.5685 -0.2211  0.6219
11547SOL    HW139579   9.498   1.887  11.332  0.5188 -0.0429 -0.1373
11547SOL    HW239580   9.609   1.981  11.373  0.2140 -0.7918  2.6468
11548SOL     OW39581   1.460   0.872   0.265  0.1150  0.1861 -0.5919
11548SOL    HW139582   1.507   0.867   0.182  0.4238  0.8977 -0.4711
11548SOL    HW239583   1.478   0.961   0.297 -0.6314  0.1806 -0.1373
11549SOL     OW39584   5.473   6.455   8.314  0.4228 -0.0266  0.2997
11549SOL    HW139585   5.477   6.505   8.233  0.2514 -1.6172 -0.7317
11549SOL    HW239586   5.524   6.506   8.377  1.0164  0.9670 -0.9577
11550SOL     OW39587   2.031   6.053   7.146 -0.2196 -0.4103  0.2376
11550SOL    HW139588   2.038   6.148   7.139  0.8561 -0.4643  0.3531
11550SOL    HW239589   2.060   6.034   7.235 -0.4469 -0.8476  0.2200
11551SOL     OW39590   8.988   5.468   9.772  0.2097  0.2854  0.3540
11551SOL    HW139591   8.950   5.471   9.860 -0.2772 -1.6601  0.2464
11551SOL    HW239592   9.015   5.377   9.760  1.6472  0.8374 -0.9589
11552SOL     OW39593   4.856   3.111   7.792 -0.4222 -0.2064  0.8735
11552SOL    HW139594   4.838   3.041   7.855 -0.5126 -0.0285  1.0502
11552SOL    HW239595   4.936   3.084   7.748 -0.7897 -0.7150  0.5082
11553SOL     OW39596   4.515   0.696   3.242  0.3221 -0.3757  0.2070
11553SOL    HW139597   4.423   0.722   3.250  1.0907  1.9653  3.9784
11553SOL    HW239598   4.553   0.758   3.181  0.1413  1.3503  1.7711
11554SOL     OW39599   1.818  10.549   0.642 -0.1729 -0.5379 -0.0528
11554SOL    HW139600   1.857  10.532   0.727  1.2431  0.6563 -0.4213
11554SOL    HW239601   1.841  10.474   0.589  1.2035 -0.1153 -0.0978
11555SOL     OW39602  10.013   9.348   7.370  0.2620 -0.2897  0.4793
11555SOL    HW139603   9.989   9.434   7.404  0.9764  0.6039 -1.1692
11555SOL    HW239604  10.011   9.358   7.275  1.2164 -1.8548  0.2565
11556SOL     OW39605   5.081   9.393   2.588  0.1266 -0.6019  0.0423
11556SOL    HW139606   5.166   9.361   2.618  0.1078 -0.7437 -0.0540
11556SOL    HW239607   5.072   9.358   2.499  0.6563  0.6959 -0.5427
11557SOL     OW39608   6.298   2.827   9.872  0.4961  0.0228  0.2430
11557SOL    HW139609   6.327   2.793   9.787  0.1864  0.1149  0.0977
11557SOL    HW239610   6.218   2.876   9.852  1.1436  1.1648  0.3908
11558SOL     OW39611   4.745   9.119   4.745  0.4462  0.4279 -0.3439
11558SOL    HW139612   4.697   9.143   4.824 -0.1987 -1.2130 -0.1914
11558SOL    HW239613   4.835   9.145   4.762  0.3966 -0.2606  1.1079
11559SOL     OW39614   2.685   4.174  10.378  0.0822  0.3351 -0.6200
11559SOL    HW139615   2.667   4.259  10.337  0.1604  0.0184 -1.3301
11559SOL    HW239616   2.760   4.140  10.329 -0.4672 -0.5139 -0.8969
11560SOL     OW39617   9.737   2.350  10.351  1.1614 -0.5118 -0.4470
11560SOL    HW139618   9.662   2.379  10.300  0.5860 -0.8630  0.1894
11560SOL    HW239619   9.736   2.254  10.344  2.6339 -0.4644 -1.9524
11561SOL     OW39620   1.289   3.088   6.110 -0.4965 -0.1395 -0.0552
11561SOL    HW139621   1.281   3.184   6.105  0.9782  0.1947  2.4988
11561SOL    HW239622   1.338   3.065   6.031  1.4692  1.6149  0.5319
11562SOL     OW39623   5.184   6.384   9.912  0.1195  0.1216 -0.1202
11562SOL    HW139624   5.229   6.362   9.993  2.9035  3.7906 -0.3860
11562SOL    HW239625   5.244   6.356   9.843 -0.5456  0.2534 -0.7636
11563SOL     OW39626   7.108   3.481   5.272 -0.2115  0.7358 -0.4227
11563SOL    HW139627   7.171   3.553   5.266 -1.0183  1.8206  2.3567
11563SOL    HW239628   7.044   3.510   5.337 -1.6459 -1.7564 -0.5763
11564SOL     OW39629   9.278   1.447   2.456 -1.0103 -0.3768 -0.1428
11564SOL    HW139630   9.260   1.492   2.539 -1.0326  1.1754 -0.9474
11564SOL    HW239631   9.364   1.406   2.469 -0.8019  0.2427  0.4948
11565SOL     OW39632  10.257   9.526   8.791 -0.6374  0.1289  0.3733
11565SOL    HW139633  10.224   9.452   8.841 -0.8572  0.8983  1.3812
11565SOL    HW239634  10.185   9.589   8.789 -0.4488  0.3397 -0.4617
11566SOL     OW39635   7.438   1.809   1.760  0.7704  0.2129  0.2355
11566SOL    HW139636   7.467   1.740   1.701  0.9686  0.2677  0.2681
11566SOL    HW239637   7.446   1.771   1.848 -2.6891 -1.0975  0.1294
11567SOL     OW39638   0.749   3.059   8.912 -0.4521 -0.3903  0.1960
11567SOL    HW139639   0.813   3.092   8.975 -0.8461 -0.0472  0.4170
11567SOL    HW239640   0.785   2.974   8.884  1.5446  0.9960 -1.8049
11568SOL     OW39641   1.236   7.656   6.413  0.1728  0.0102  0.7267
11568SOL    HW139642   1.190   7.672   6.495 -0.7193  0.8669  0.0831
11568SOL    HW239643   1.314   7.607   6.438 -0.4775 -0.4157  1.9916
11569SOL     OW39644   7.180   2.600   9.621  0.0007  0.7538 -0.0535
11569SOL    HW139645   7.195   2.672   9.559 -0.8334  0.8417 -0.1611
11569SOL    HW239646   7.109   2.630   9.677 -0.1434  0.1379  0.1039
11570SOL     OW39647   2.409   8.724   8.204 -0.4019 -0.0684 -0.2587
11570SOL    HW139648   2.325   8.716   8.159  0.7766  1.0336 -2.8763
11570SOL    HW239649   2.445   8.806   8.172  1.3852 -0.1813  1.3270
11571SOL     OW39650   5.191   8.210  11.099  0.5174  0.1520 -0.5173
11571SOL    HW139651   5.156   8.297  11.078 -1.9514 -0.3379  1.0834
11571SOL    HW239652   5.281   8.226  11.125 -0.9290  3.0377  4.0028
11572SOL     OW39653   5.089   3.364   7.165  0.2030 -0.2210  0.3160
11572SOL    HW139654   5.131   3.413   7.235  0.6648  2.1934 -1.5122
11572SOL    HW239655   5.027   3.426   7.126  0.6712 -1.0979 -1.9981
11573SOL     OW39656  11.308   9.812   7.153  0.1424  0.0371 -0.1963
11573SOL    HW139657  11.383   9.844   7.204 -0.7171  1.4614  0.2496
11573SOL    HW239658  11.292   9.881   7.089 -0.7074 -0.3112 -0.3672
11574SOL     OW39659   5.591   1.691   0.798 -0.2010  0.1469 -0.7048
11574SOL    HW139660   5.658   1.713   0.863  0.2604 -0.6056 -0.9118
11574SOL    HW239661   5.513   1.738   0.827 -0.3362 -1.0824  1.0675
11575SOL     OW39662   5.728   0.941   7.397 -0.0408 -0.2944  0.4246
11575SOL    HW139663   5.679   0.936   7.315 -1.7343  0.9069  1.2996
11575SOL    HW239664   5.742   0.850   7.422  1.1662 -0.6873 -1.5451
11576SOL     OW39665   9.743  10.407   5.665 -0.2057 -0.8269 -0.4871
11576SOL    HW139666   9.810  10.362   5.715  1.0668  0.1910 -1.2112
11576SOL    HW239667   9.700  10.464   5.728 -0.1630 -1.2306 -0.0902
11577SOL     OW39668   5.709  10.495   2.829 -0.0605  0.2848  0.4004
11577SOL    HW139669   5.775  10.537   2.774  0.1344  1.2896  1.3426
11577SOL    HW239670   5.717  10.541   2.914 -2.2559  0.7452  0.4231
11578SOL     OW39671   8.185   3.798   3.441  0.0665  0.2182 -0.6946
11578SOL    HW139672   8.145   3.885   3.437  0.0693  0.2051 -1.0835
11578SOL    HW239673   8.135   3.746   3.378  0.5345  0.1344 -0.9997
11579SOL     OW39674   7.729   6.519   4.291  0.2942  0.2726  0.0396
11579SOL    HW139675   7.791   6.481   4.353 -1.2917 -0.3592  1.3113
11579SOL    HW239676   7.673   6.576   4.345 -0.9935 -0.1281 -0.8122
11580SOL     OW39677   4.179   5.997   8.390  0.1661 -0.0082 -0.2577
11580SOL    HW139678   4.187   6.075   8.446  0.1269 -0.1594 -0.0420
11580SOL    HW239679   4.096   6.009   8.344  0.8494  0.7922 -1.3213
11581SOL     OW39680   5.577   5.269   3.907  0.6170 -0.4457  0.2340
11581SOL    HW139681   5.667   5.238   3.921  0.0915 -1.4486  1.7125
11581SOL    HW239682   5.549   5.225   3.827  0.8646 -1.5616  0.7360
11582SOL     OW39683  11.019  11.013   9.857 -0.2501  0.2194 -0.2670
11582SOL    HW139684  11.075  11.091   9.855  0.0068  0.0860  1.0575
11582SOL    HW239685  10.932  11.047   9.835  0.1804  0.5456 -1.5933
11583SOL     OW39686   0.797  11.676   2.518  0.2363 -0.2044 -0.9021
11583SOL    HW139687   0.859  11.603   2.523 -0.5233 -0.8232 -0.2744
11583SOL    HW239688   0.831  11.731   2.448  1.7673 -0.2719 -0.2488
11584SOL     OW39689  11.325   4.713   4.274  0.3624 -0.1674  0.3247
11584SOL    HW139690  11.307   4.653   4.345  0.6038 -0.2215  0.3407
11584SOL    HW239691  11.318   4.800   4.313 -1.7037 -0.1051 -0.0778
11585SOL     OW39692   6.517   3.755   2.344  0.1319  0.6537 -0.0095
11585SOL    HW139693   6.570   3.741   2.265 -1.2094  2.0606 -1.2249
11585SOL    HW239694   6.528   3.848   2.365  0.7240  0.2428  1.7112
11586SOL     OW39695   6.226   0.133  10.333 -0.0457 -0.1439  0.0493
11586SOL    HW139696   6.217   0.201  10.267  0.2098 -0.4561 -0.3040
11586SOL    HW239697   6.216   0.051  10.286 -1.7413 -0.3515  0.6736
11587SOL     OW39698   0.062   0.323   8.800  0.9204 -0.1929 -0.3830
11587SOL    HW139699  -0.030   0.351   8.795  1.3878  1.3191 -0.7658
11587SOL    HW239700   0.089   0.313   8.708  2.0193  2.4257 -0.4068
11588SOL     OW39701  10.841   4.162   0.267  0.5468 -0.5464 -0.1737
11588SOL    HW139702  10.806   4.158   0.177 -0.4161  0.2693  0.1408
11588SOL    HW239703  10.785   4.226   0.311 -0.3596 -2.4804  1.6108
11589SOL     OW39704   3.745   4.074   9.260 -0.7143  0.3313 -0.0881
11589SOL    HW139705   3.818   4.058   9.320  0.5083  0.3891 -1.4827
11589SOL    HW239706   3.689   3.997   9.269  0.4008 -0.5215 -0.1953
11590SOL     OW39707   9.564   7.587   2.312 -0.8249  0.4600 -0.2364
11590SOL    HW139708   9.575   7.497   2.342 -1.6447  0.6018  0.5492
11590SOL    HW239709   9.558   7.638   2.393 -1.1777  1.1124 -0.6662
11591SOL     OW39710   3.050   1.126   8.738 -0.0641  0.3132 -0.3150
11591SOL    HW139711   3.059   1.206   8.686 -0.8634  0.1567 -0.7041
11591SOL    HW239712   2.994   1.069   8.686  0.4948 -0.5104 -0.0390
11592SOL     OW39713   6.863   3.933   1.775  0.3832  0.2021 -0.4712
11592SOL    HW139714   6.895   4.004   1.831  2.4706 -2.0028  1.3059
11592SOL    HW239715   6.924   3.931   1.701  0.6806 -0.1073 -0.2187
11593SOL     OW39716   5.162   7.767   3.617  0.3497  0.4532  0.0004
11593SOL    HW139717   5.196   7.843   3.571 -0.0093  0.7533  0.2227
11593SOL    HW239718   5.157   7.698   3.550 -0.1997  0.8919 -0.4201
11594SOL     OW39719   2.622   4.226   3.909 -0.4079  0.1230 -0.7050
11594SOL    HW139720   2.702   4.187   3.944  0.8503  1.3061 -2.1452
11594SOL    HW239721   2.612   4.309   3.955  0.3966  0.9614 -1.9945
11595SOL     OW39722   0.390   7.923   9.416  0.0958 -0.5009  0.0843
11595SOL    HW139723   0.376   7.984   9.489  2.2403 -0.9914  0.9915
11595SOL    HW239724   0.320   7.858   9.425 -2.1797  1.6405 -0.8333
11596SOL     OW39725   5.480   0.102   9.917 -0.1786  0.1752 -0.0305
11596SOL    HW139726   5.446   0.187   9.947 -1.5644 -0.2593 -0.3024
11596SOL    HW239727   5.434   0.086   9.834  0.9904 -0.2788 -0.6144
11597SOL     OW39728   8.331   4.894   7.693 -0.7936  0.1486  0.7837
11597SOL    HW139729   8.272   4.961   7.726 -1.3754 -1.4098  3.2331
11597SOL    HW239730   8.387   4.873   7.768 -1.2673 -2.6910  0.4702
11598SOL     OW39731   1.472  11.314   2.229 -0.2728 -0.2601 -0.4003
11598SOL    HW139732   1.427  11.397   2.239 -1.5674 -0.7758 -1.6218
11598SOL    HW239733   1.490  11.285   2.319  1.6507  2.0333  0.0604
11599SOL     OW39734   3.250   4.093  10.420 -0.3820  0.3903 -0.6469
11599SOL    HW139735   3.174   4.130  10.463  1.2754  2.6954  0.5172
11599SOL    HW239736   3.257   4.004  10.455 -1.4092  0.8291  0.7392
11600SOL     OW39737   8.052  10.969   0.854 -0.3741  0.1524  0.2364
11600SOL    HW139738   8.133  10.928   0.886 -0.5260  0.6352  1.2889
11600SOL    HW239739   7.982  10.910   0.883 -0.5524  0.8511  1.2941
11601SOL     OW39740   5.617   3.377   9.556 -0.2499 -0.4169  0.1890
11601SOL    HW139741   5.671   3.321   9.612 -0.8257  0.1796  1.3761
11601SOL    HW239742   5.661   3.463   9.560 -1.1046  0.0072  0.9643
11602SOL     OW39743   0.679   7.033  10.732  0.2750 -0.0147 -0.1922
11602SOL    HW139744   0.692   7.075  10.817 -2.4132  0.6847 -0.0351
11602SOL    HW239745   0.685   7.103  10.668  0.4902 -0.2181 -0.3979
11603SOL     OW39746   5.821   3.307  10.896 -0.1847  0.2197 -0.5267
11603SOL    HW139747   5.764   3.265  10.960 -0.1608 -0.3048 -0.8408
11603SOL    HW239748   5.788   3.277  10.812  0.0082  0.6193 -0.7471
11604SOL     OW39749   3.502  11.660   0.087  0.0778  0.0056  0.3662
11604SOL    HW139750   3.433  11.613   0.039  0.1597  0.4299 -0.1740
11604SOL    HW239751   3.582  11.641   0.039  0.3775 -0.6100  1.0826
11605SOL     OW39752   4.310   5.027   9.716  0.3557 -0.1555 -0.4303
11605SOL    HW139753   4.243   5.060   9.776  1.1701  0.7105  0.0342
11605SOL    HW239754   4.280   5.053   9.629  0.4127  0.8370 -0.1664
11606SOL     OW39755   8.227   4.490   8.829 -0.4900 -0.3605  0.1869
11606SOL    HW139756   8.203   4.581   8.849 -1.3690 -0.4700 -0.3107
11606SOL    HW239757   8.300   4.471   8.888  1.0381  1.3031 -1.0804
11607SOL     OW39758   5.861  10.082   7.763 -0.6618  0.0339  0.2744
11607SOL    HW139759   5.886  10.160   7.714 -1.4664  0.1380  0.0105
11607SOL    HW239760   5.935  10.066   7.822  0.9004 -0.8233 -1.8046
11608SOL     OW39761   9.720   9.755   8.577  0.5526  0.1026  0.2987
11608SOL    HW139762   9.687   9.665   8.575  1.5058 -0.2469  0.0020
11608SOL    HW239763   9.814   9.747   8.561  0.7591  1.1001  0.9156
11609SOL     OW39764   2.344   5.504   9.399  0.5405 -0.1508 -0.1237
11609SOL    HW139765   2.361   5.563   9.472  2.6816 -0.6325 -0.1601
11609SOL    HW239766   2.315   5.423   9.440  1.7005 -0.4088  0.2305
11610SOL     OW39767   4.004   7.277  10.612  0.5993  0.2508  0.5919
11610SOL    HW139768   3.911   7.298  10.613  0.8308  1.5069 -0.4113
11610SOL    HW239769   4.008   7.182  10.609 -0.7398  0.1934 -1.3918
11611SOL     OW39770   9.488   1.805   6.215  0.3831  0.2960  0.4658
11611SOL    HW139771   9.538   1.772   6.140 -1.3754 -1.0732 -0.1759
11611SOL    HW239772   9.493   1.900   6.208 -0.0552  0.2087 -1.6269
11612SOL     OW39773   2.374   3.390   0.028 -0.2885 -0.4970 -0.3376
11612SOL    HW139774   2.352   3.467   0.080 -0.4434 -0.4249 -0.5077
11612SOL    HW239775   2.299   3.332   0.038 -0.0049 -0.7907  0.1011
11613SOL     OW39776   5.874   8.034   4.859  0.2076 -0.2058  0.5356
11613SOL    HW139777   5.842   7.955   4.905 -2.2377 -0.4529 -1.3881
11613SOL    HW239778   5.802   8.096   4.867  0.2134  0.1806 -1.8072
11614SOL     OW39779  10.474  11.589  10.142 -0.3406  0.2353  0.2676
11614SOL    HW139780  10.500  11.681  10.138 -1.8828  0.6694 -0.7882
11614SOL    HW239781  10.476  11.561  10.050 -2.7029  0.0973  0.1993
11615SOL     OW39782   5.878   9.843   8.563  0.3095 -0.1076  0.0596
11615SOL    HW139783   5.913   9.754   8.561 -0.3982 -0.3780 -0.8854
11615SOL    HW239784   5.898   9.875   8.651  2.3464 -0.4642 -0.2195
11616SOL     OW39785   0.543   8.064  11.218 -0.7457  0.6570  0.0530
11616SOL    HW139786   0.550   8.045  11.311 -0.8557 -2.2218 -0.4293
11616SOL    HW239787   0.510   8.154  11.214  1.7982  1.8783  2.6971
11617SOL     OW39788   7.450   2.026   7.799 -0.0626 -0.7299  0.0715
11617SOL    HW139789   7.365   2.019   7.842 -0.7526 -1.2561 -1.3128
11617SOL    HW239790   7.472   2.119   7.804 -1.5804 -0.2761 -1.1247
11618SOL     OW39791   8.793   7.590   5.614 -0.0155  0.0575  0.7594
11618SOL    HW139792   8.708   7.618   5.579 -0.4265 -3.2023 -1.2797
11618SOL    HW239793   8.853   7.661   5.591 -1.2869  0.2995 -2.2838
11619SOL     OW39794   0.355  10.815   5.791  0.8760  0.2730  0.1474
11619SOL    HW139795   0.328  10.886   5.848 -0.1152  0.3664 -0.4104
11619SOL    HW239796   0.303  10.827   5.711  1.5341 -0.4031 -0.4034
11620SOL     OW39797   7.635   2.571   0.165 -0.8575  0.0066  0.1893
11620SOL    HW139798   7.646   2.635   0.236  1.2248 -1.3613  1.2316
11620SOL    HW239799   7.719   2.571   0.120 -1.1055 -1.3436 -0.3205
11621SOL     OW39800  11.625  10.737   8.360 -0.4470  0.8001  0.6485
11621SOL    HW139801  11.604  10.824   8.324  0.6084  0.2594 -1.4633
11621SOL    HW239802  11.670  10.692   8.288 -0.2517 -1.2270  1.9631
11622SOL     OW39803   2.197   9.290  10.542  0.4095  0.4846  0.0426
11622SOL    HW139804   2.189   9.269  10.635  0.3563  1.4516  0.2681
11622SOL    HW239805   2.287   9.322  10.533  0.5198  0.0756 -0.3031
11623SOL     OW39806  10.975   5.818   6.482 -0.6228 -0.2745  0.1426
11623SOL    HW139807  10.994   5.884   6.416 -0.9350 -1.2085 -0.9220
11623SOL    HW239808  10.961   5.867   6.563 -1.7360  1.0303 -0.8064
11624SOL     OW39809   3.968   1.063   9.078  0.5069  0.8817  0.0476
11624SOL    HW139810   4.018   1.144   9.065  0.3552  0.7996 -1.2623
11624SOL    HW239811   3.962   1.025   8.990  1.6447 -1.2179  0.8215
11625SOL     OW39812   8.133   3.108   6.410  0.0999 -0.2189 -0.0228
11625SOL    HW139813   8.182   3.175   6.457 -1.9297  0.8663  0.6499
11625SOL    HW239814   8.154   3.026   6.456  1.3039  0.1915  0.1870
11626SOL     OW39815   5.110   6.564  10.493 -0.8389 -0.3218 -0.0966
11626SOL    HW139816   5.030   6.543  10.541 -0.6533  0.6507  0.6738
11626SOL    HW239817   5.080   6.595  10.407 -1.1618 -2.3240 -0.7667
11627SOL     OW39818  10.995   4.258   7.212  0.1141  0.3586 -0.2211
11627SOL    HW139819  11.061   4.267   7.281  0.0183 -2.8012  0.4339
11627SOL    HW239820  11.044   4.273   7.130  1.0016  0.7532  0.3604
11628SOL     OW39821   8.750   4.067   6.605 -0.0887  0.3360  0.5141
11628SOL    HW139822   8.813   4.121   6.652 -1.2803  0.0630  2.5893
11628SOL    HW239823   8.685   4.129   6.572  0.6251  0.5061 -0.6179
11629SOL     OW39824   7.565   5.496   8.900 -0.2213  0.1668 -0.3500
11629SOL    HW139825   7.600   5.533   8.981 -0.2467  2.1200 -1.1942
11629SOL    HW239826   7.621   5.531   8.831  0.2206 -2.0018 -1.1714
11630SOL     OW39827   9.919   9.866   8.268 -0.3311 -0.0662 -0.0682
11630SOL    HW139828   9.943   9.794   8.209 -1.6121 -1.6297  1.2170
11630SOL    HW239829  10.001   9.891   8.310  0.8451  1.7639 -3.0622
11631SOL     OW39830   0.392   9.683   2.173 -0.2641  0.1203  0.2292
11631SOL    HW139831   0.357   9.636   2.098 -0.9844 -0.3515  0.8377
11631SOL    HW239832   0.387   9.621   2.245  1.7778  0.0656  0.3879
11632SOL     OW39833   4.912   3.070   3.690 -0.3602  0.1925 -0.0251
11632SOL    HW139834   4.918   2.989   3.741  1.3462  0.4474  0.2522
11632SOL    HW239835   5.003   3.094   3.673 -0.8513  1.6272 -0.8030
11633SOL     OW39836   3.892   0.558  10.925 -0.2387  0.3157  0.2784
11633SOL    HW139837   3.879   0.572  10.831 -1.2882  3.2742  0.7529
11633SOL    HW239838   3.986   0.570  10.939  0.0734 -1.0662 -0.4683
11634SOL     OW39839   0.234   0.449   9.605  0.2403 -0.7203  0.1226
11634SOL    HW139840   0.318   0.478   9.571  0.0542  1.4947  1.3778
11634SOL    HW239841   0.246   0.356   9.625  1.9664 -0.7440 -0.8811
11635SOL     OW39842   6.205   5.531   7.828 -0.6314  0.3254 -0.5185
11635SOL    HW139843   6.276   5.595   7.817 -0.6507  0.3676 -0.3951
11635SOL    HW239844   6.206   5.510   7.921 -2.4594  2.3048  0.0295
11636SOL     OW39845   6.410   0.184   3.104  0.3163 -0.1820  0.1906
11636SOL    HW139846   6.370   0.222   3.025  1.2910  1.0214  0.2573
11636SOL    HW239847   6.504   0.185   3.086  0.6553  1.1362  1.7850
11637SOL     OW39848   3.733  10.364   6.159  0.1278  0.4542  0.1232
11637SOL    HW139849   3.722  10.272   6.133 -0.2908  0.0663  1.5720
11637SOL    HW239850   3.800  10.362   6.227 -0.4277  1.1232  0.7021
11638SOL     OW39851   9.863  10.704   6.949 -0.0177 -0.2005 -0.0253
11638SOL    HW139852   9.881  10.753   6.869 -1.1739 -0.0392 -0.2123
11638SOL    HW239853   9.882  10.765   7.020  0.5115 -0.1691 -0.1968
11639SOL     OW39854   9.898   8.401   3.398 -0.2518  0.2625  0.0394
11639SOL    HW139855   9.849   8.342   3.456 -1.7621 -0.3726 -1.8033
11639SOL    HW239856   9.908   8.482   3.449 -0.3774 -0.6888  1.6447
11640SOL     OW39857   9.956   1.960   8.412  0.1162  0.2782 -0.5864
11640SOL    HW139858   9.977   2.052   8.432  0.2384  0.1211  0.0128
11640SOL    HW239859   9.872   1.964   8.367 -0.7517  0.5365  1.0192
11641SOL     OW39860   9.535   2.920   3.754 -0.8892  0.9932  0.3550
11641SOL    HW139861   9.483   2.840   3.750  0.5078 -0.0471  1.7752
11641SOL    HW239862   9.470   2.990   3.768 -1.9539 -0.3835  3.2663
11642SOL     OW39863   7.421   0.553   9.741 -0.6460 -0.1783  0.5217
11642SOL    HW139864   7.466   0.638   9.745 -0.1010 -0.4151 -0.3389
11642SOL    HW239865   7.479   0.493   9.788  0.0924 -0.5371 -0.8017
11643SOL     OW39866  10.155   7.588   5.681 -0.1223 -0.2109  0.0029
11643SOL    HW139867  10.104   7.508   5.670 -0.9113  0.1600  0.8802
11643SOL    HW239868  10.214   7.570   5.753  0.5411 -0.4087 -0.5806
11644SOL     OW39869   5.358   0.868  10.297 -0.1445 -0.4195  0.2911
11644SOL    HW139870   5.328   0.783  10.265 -2.0599  0.6535 -0.9095
11644SOL    HW239871   5.289   0.929  10.274  2.0067  1.8591 -0.5915
11645SOL     OW39872   2.127   3.396   8.076 -0.1861 -0.2126 -0.6288
11645SOL    HW139873   2.107   3.303   8.066  0.3615 -0.1407 -3.0091
11645SOL    HW239874   2.190   3.399   8.147 -1.6693 -1.4121  0.8195
11646SOL     OW39875   2.716  11.023  10.372 -0.5023  0.3669 -0.3623
11646SOL    HW139876   2.688  11.012  10.463  1.1624 -0.4799  0.0981
11646SOL    HW239877   2.643  10.988  10.320 -0.7623 -0.7900  0.7243
11647SOL     OW39878   1.143   7.649   7.850  0.1276  0.5982 -0.1996
11647SOL    HW139879   1.197   7.699   7.789 -0.2929  1.2967 -0.0087
11647SOL    HW239880   1.130   7.707   7.925 -2.1917  1.1030 -0.9115
11648SOL     OW39881   1.195   1.507   1.018  0.2291 -0.3141  0.4783
11648SOL    HW139882   1.265   1.452   1.054  0.9350 -0.5568 -1.1599
11648SOL    HW239883   1.223   1.597   1.034 -0.7068 -0.3516  2.7540
11649SOL     OW39884   8.692   5.835   9.127  0.4685 -0.0744  0.1040
11649SOL    HW139885   8.710   5.804   9.216 -0.6851 -1.0926  0.0163
11649SOL    HW239886   8.766   5.801   9.075  0.3046 -0.9173  0.3954
11650SOL     OW39887   2.745   3.256   2.712 -0.7483  0.5768  0.0822
11650SOL    HW139888   2.832   3.296   2.719 -1.0028  1.1234  0.1100
11650SOL    HW239889   2.714   3.251   2.803 -0.8209  0.5406  0.0554
11651SOL     OW39890   6.330   4.244   8.619 -0.0400  0.2010 -0.1080
11651SOL    HW139891   6.367   4.241   8.530  0.3599 -1.5439  0.0783
11651SOL    HW239892   6.385   4.185   8.670 -0.1157  1.3669  1.3898
11652SOL     OW39893   8.037   6.421   5.211 -0.2191 -0.4892  0.2561
11652SOL    HW139894   7.988   6.500   5.191  1.9210  1.1127  0.9957
11652SOL    HW239895   7.998   6.389   5.292 -1.8241 -0.8859 -0.6226
11653SOL     OW39896  10.131   4.770   6.531  0.2137  0.0404 -0.2692
11653SOL    HW139897  10.167   4.846   6.577  2.4825 -0.4342 -1.1223
11653SOL    HW239898  10.043   4.759   6.567  0.3485  2.1982  0.8845
11654SOL     OW39899   4.773   3.128   6.924  0.3580 -0.2221  0.1170
11654SOL    HW139900   4.826   3.203   6.952 -0.3771 -0.3203  1.8440
11654SOL    HW239901   4.836   3.061   6.900  1.1124  1.3966 -3.0741
11655SOL     OW39902   7.400   6.413   2.022 -0.3822 -0.0103 -0.2388
11655SOL    HW139903   7.338   6.433   1.952 -0.4928 -1.5585 -0.6318
11655SOL    HW239904   7.352   6.430   2.103 -0.8090  0.2336 -0.5416
11656SOL     OW39905   4.137   2.065  10.685  0.0517  0.5111 -0.5278
11656SOL    HW139906   4.128   1.981  10.638  4.1236  0.2258 -1.1580
11656SOL    HW239907   4.168   2.040  10.772  2.2303  1.3074 -1.0289
11657SOL     OW39908   4.046   5.053  10.324 -0.1601 -0.7607  0.1143
11657SOL    HW139909   4.075   5.006  10.246 -1.4551 -0.9619 -0.2616
11657SOL    HW239910   4.065   4.992  10.396  0.1591 -0.9682 -0.1413
11658SOL     OW39911   6.940   7.419   3.732 -0.2235 -0.3580  0.1953
11658SOL    HW139912   6.910   7.504   3.700 -1.5517 -0.7487  0.3382
11658SOL    HW239913   7.035   7.428   3.739 -0.4882  1.8785  2.3989
11659SOL     OW39914   8.998   6.993   1.680 -0.5274 -0.1841  0.0624
11659SOL    HW139915   8.922   6.938   1.699 -0.1415 -1.2318 -1.2522
11659SOL    HW239916   9.001   6.998   1.584 -0.8391  2.5890  0.1117
11660SOL     OW39917   9.727   8.374   0.374  0.0537 -0.1810  0.0646
11660SOL    HW139918   9.652   8.349   0.428 -2.2895  0.4889 -2.6621
11660SOL    HW239919   9.783   8.425   0.433 -2.0126 -0.0328  2.0284
11661SOL     OW39920   1.394   0.171   7.706 -0.4535 -0.1599 -0.4592
11661SOL    HW139921   1.393   0.079   7.680 -1.1972  0.3305 -2.2843
11661SOL    HW239922   1.431   0.170   7.795  0.9582 -2.0542 -0.9928
11662SOL     OW39923   1.118   4.358   6.640  0.2311 -0.5313 -0.4373
11662SOL    HW139924   1.068   4.278   6.657  1.3045 -1.0510  0.4179
11662SOL    HW239925   1.201   4.327   6.605  1.2842  0.0948  1.4036
11663SOL     OW39926   4.902  11.365   2.819  0.0559  0.2263  0.0950
11663SOL    HW139927   4.919  11.455   2.793  0.4381 -0.4215 -2.0656
11663SOL    HW239928   4.817  11.368   2.863 -0.7409  1.3840 -1.4719
11664SOL     OW39929   9.509   8.684   5.893 -0.1296 -0.4259 -0.8947
11664SOL    HW139930   9.519   8.776   5.868 -2.5743  0.0408 -0.3925
11664SOL    HW239931   9.468   8.643   5.818 -0.5928 -0.7178 -0.4885
11665SOL     OW39932   4.352   0.182   4.671  0.1349  0.7831  0.0007
11665SOL    HW139933   4.369   0.137   4.589 -0.1244  0.4770  0.1118
11665SOL    HW239934   4.281   0.132   4.712  1.5635 -0.2790  1.3310
11666SOL     OW39935   5.668   5.015   6.048 -1.0487 -0.5915  0.1708
11666SOL    HW139936   5.596   5.028   6.110 -0.0725  0.2029  1.1797
11666SOL    HW239937   5.684   5.102   6.012 -0.0002 -0.5808  0.6448
11667SOL     OW39938   7.350   9.995   5.615 -0.0006  0.1704 -0.7390
11667SOL    HW139939   7.393  10.074   5.582  1.7340 -0.2179  0.4491
11667SOL    HW239940   7.293   9.968   5.543  3.3061 -0.4459 -3.4472
11668SOL     OW39941   5.962   6.826   2.437 -0.0338  0.3651 -0.4619
11668SOL    HW139942   5.904   6.766   2.484  1.7138 -0.2737  0.9912
11668SOL    HW239943   5.922   6.836   2.351 -1.7375 -0.8422  0.1443
11669SOL     OW39944   8.991   8.797   1.012 -0.6277  0.4852 -0.2888
11669SOL    HW139945   9.042   8.867   1.054 -1.7147  1.1455 -0.0345
11669SOL    HW239946   8.981   8.731   1.081  2.4656 -1.1403 -1.1916
11670SOL     OW39947   7.392   5.415  10.151 -0.3029  0.0319 -0.2100
11670SOL    HW139948   7.455   5.485  10.161  0.8247 -0.6962 -1.8425
11670SOL    HW239949   7.359   5.424  10.061  0.0480 -1.6265 -0.5520
11671SOL     OW39950   4.502   1.318   6.830  0.2985  0.4478  0.0855
11671SOL    HW139951   4.557   1.240   6.829  0.5508  0.6292 -0.3972
11671SOL    HW239952   4.541   1.376   6.765 -0.4185  0.6093 -0.2190
11672SOL     OW39953   4.209   8.548   8.328 -0.2204 -0.0894 -0.5746
11672SOL    HW139954   4.199   8.623   8.269 -0.7570 -1.3518 -2.1657
11672SOL    HW239955   4.245   8.479   8.272 -1.7005 -1.6561  0.3357
11673SOL     OW39956   4.794   1.109   4.158  0.6051 -0.7082 -0.8465
11673SOL    HW139957   4.815   1.141   4.071  0.8491  0.8004 -0.2634
11673SOL    HW239958   4.699   1.099   4.158  0.3582  1.3527 -0.6426
11674SOL     OW39959   4.441   6.440   3.840 -0.4935  0.7388 -0.6847
11674SOL    HW139960   4.405   6.528   3.847  0.1789  1.0245 -0.7609
11674SOL    HW239961   4.457   6.428   3.746 -1.4949  0.1594 -0.7941
11675SOL     OW39962   9.881   5.420   9.712 -0.5114 -0.2167 -0.5350
11675SOL    HW139963   9.785   5.427   9.715 -0.4212  1.6351 -0.4811
11675SOL    HW239964   9.906   5.391   9.800 -0.9853  0.0098 -0.3223
11676SOL     OW39965   5.921   7.234   8.279  0.6735  0.4594  0.4535
11676SOL    HW139966   5.962   7.283   8.208  0.6668 -0.4390 -0.1905
11676SOL    HW239967   5.969   7.152   8.282  1.1353  0.7610  1.9699
11677SOL     OW39968   0.284   6.374   1.718 -0.1978 -0.0383  0.1366
11677SOL    HW139969   0.196   6.399   1.689  0.6508  0.8488 -1.8887
11677SOL    HW239970   0.320   6.453   1.757  0.1575 -0.0065 -0.2463
11678SOL     OW39971  11.363   4.735   6.706 -0.0946  0.0424  0.4306
11678SOL    HW139972  11.403   4.741   6.792 -1.7557  0.6024  1.2185
11678SOL    HW239973  11.269   4.741   6.723 -0.4586  0.3779 -1.4457
11679SOL     OW39974  10.537   7.250  10.757  0.3779 -0.6050  0.0983
11679SOL    HW139975  10.488   7.170  10.778  0.5128 -1.2056 -1.6811
11679SOL    HW239976  10.615   7.219  10.711  0.4337  0.5534 -0.6307
11680SOL     OW39977   4.914   5.002   6.765 -0.7952  0.6332 -0.0087
11680SOL    HW139978   4.835   5.030   6.811 -1.8395 -0.1419 -1.2445
11680SOL    HW239979   4.886   4.991   6.674  0.7890  0.5007 -0.5162
11681SOL     OW39980  10.344   1.987   2.294 -0.0529 -0.3542 -0.1247
11681SOL    HW139981  10.435   1.976   2.323 -0.2656 -1.3041  0.2438
11681SOL    HW239982  10.339   2.076   2.261  0.5764  0.2865  1.4484
11682SOL     OW39983   1.582   0.370  11.413  0.1739  0.4185 -0.4768
11682SOL    HW139984   1.567   0.375  11.508 -0.1148  0.8376 -0.5405
11682SOL    HW239985   1.607   0.279  11.398  1.5365  0.6476  0.1890
11683SOL     OW39986   9.901   8.193   8.524  0.2463 -0.1409 -0.0045
11683SOL    HW139987   9.816   8.229   8.550 -0.1237 -0.7249 -0.3765
11683SOL    HW239988   9.899   8.102   8.551  0.3832 -0.4057 -0.8368
11684SOL     OW39989   3.444  11.373   8.527 -0.8564 -0.1990 -0.7183
11684SOL    HW139990   3.518  11.313   8.518 -1.2264 -0.9590  0.9719
11684SOL    HW239991   3.398  11.343   8.604 -2.0465  1.2393 -0.8229
11685SOL     OW39992   4.266   7.779   8.911 -0.3523  0.1150  0.3366
11685SOL    HW139993   4.258   7.683   8.909 -0.7816  0.1559  0.0733
11685SOL    HW239994   4.211   7.806   8.984  1.3303  0.0231  1.7275
11686SOL     OW39995   8.976   9.549   5.531 -0.1761 -0.0390  0.1454
11686SOL    HW139996   8.987   9.454   5.545  1.4620  0.1277  0.2394
11686SOL    HW239997   9.038   9.569   5.460 -1.2370  0.8022 -0.5593
11687SOL     OW39998   5.709  10.250   2.097  0.3645 -0.1070 -0.0021
11687SOL    HW139999   5.624  10.215   2.071 -0.6946  1.6616  0.9343
11687SOL    HW240000   5.714  10.336   2.055  2.5147 -0.8916 -1.5166
11688SOL     OW40001  11.213   8.465   9.053 -0.2351 -0.1509  0.1653
11688SOL    HW140002  11.270   8.503   9.120 -0.5879 -0.7605  0.8250
11688SOL    HW240003  11.146   8.418   9.102 -0.8705 -0.0824 -0.6153
11689SOL     OW40004   6.372   0.119   9.359 -0.6475  0.3035 -0.2954
11689SOL    HW140005   6.324   0.198   9.383 -1.6141 -0.6550  1.0859
11689SOL    HW240006   6.415   0.141   9.277 -0.1902  2.5395  0.4848
11690SOL     OW40007   8.388   6.233   9.826  0.1297  0.1118  0.3123
11690SOL    HW140008   8.307   6.264   9.867  0.8720  0.7721  1.3465
11690SOL    HW240009   8.456   6.288   9.865  1.0752 -0.4319 -0.5424
11691SOL     OW40010   2.991   0.367   4.597 -0.2197 -0.1721 -0.0801
11691SOL    HW140011   2.975   0.284   4.553  1.2354  0.0493 -1.0844
11691SOL    HW240012   2.935   0.430   4.551 -0.1560 -0.3042 -0.3391
11692SOL     OW40013  11.373   6.986   8.241 -0.5607  0.0059  0.2112
11692SOL    HW140014  11.388   7.006   8.148 -2.7651  0.5646 -0.0828
11692SOL    HW240015  11.427   6.908   8.257  1.0977  0.7994 -1.0767
11693SOL     OW40016   9.144   5.784   7.684  0.2827 -0.0856  0.3454
11693SOL    HW140017   9.233   5.766   7.714  0.3776  0.9943  0.7556
11693SOL    HW240018   9.123   5.711   7.625  1.7024  0.0302 -0.3403
11694SOL     OW40019   8.482   4.372  11.424  0.0608 -0.1339 -0.3217
11694SOL    HW140020   8.501   4.464  11.441 -0.2082 -0.1763  0.2039
11694SOL    HW240021   8.390   4.370  11.398  0.7954  0.1321 -3.3298
11695SOL     OW40022   0.879   7.566   1.664 -0.1626 -0.1708  0.6558
11695SOL    HW140023   0.889   7.500   1.734 -0.4496 -0.0638  0.7989
11695SOL    HW240024   0.823   7.633   1.702  0.0526  0.1146  0.4755
11696SOL     OW40025  10.835   8.476  11.050  0.1673  0.1417  0.2004
11696SOL    HW140026  10.839   8.445  11.141 -0.7636  1.1693  0.6273
11696SOL    HW240027  10.773   8.417  11.007 -1.4810  1.2253  0.9643
11697SOL     OW40028   5.735   2.009  10.211 -0.2355  0.2079  0.0853
11697SOL    HW140029   5.733   1.928  10.159  1.1216  0.4594 -0.3915
11697SOL    HW240030   5.738   1.979  10.302 -0.3107 -0.2636 -0.0628
11698SOL     OW40031   5.093   9.544   6.583 -0.3102 -0.3215  1.0966
11698SOL    HW140032   5.079   9.638   6.591  1.9490  0.1122  0.6692
11698SOL    HW240033   5.117   9.515   6.671  2.9197  0.3504  0.5973
11699SOL     OW40034   9.555  10.065   1.510 -0.2742 -0.1374 -0.1801
11699SOL    HW140035   9.588  10.142   1.463  0.3820 -0.0441  0.4198
11699SOL    HW240036   9.609  10.060   1.589 -1.6583  0.0029  0.8200
11700SOL     OW40037   7.431   6.531  11.437 -0.2614  0.1443  0.2871
11700SOL    HW140038   7.375   6.476  11.381  1.2838 -0.7945 -0.3908
11700SOL    HW240039   7.419   6.496  11.525  0.2151 -0.8995 -0.0469
11701SOL     OW40040   4.157   4.237   3.844 -0.2666 -0.2445 -0.0898
11701SOL    HW140041   4.121   4.246   3.932 -0.9371 -0.3256 -0.3533
11701SOL    HW240042   4.189   4.325   3.822 -1.1363  0.0427 -0.2137
11702SOL     OW40043   3.414   0.569   4.149  0.1579  0.0044 -0.0308
11702SOL    HW140044   3.403   0.665   4.148 -0.6029 -0.0349 -2.3920
11702SOL    HW240045   3.394   0.544   4.239 -1.7539  1.8829  0.1720
11703SOL     OW40046   0.723  11.090   9.071 -0.5776 -0.1056  0.1167
11703SOL    HW140047   0.653  11.054   9.016 -1.2234 -0.0202  0.8690
11703SOL    HW240048   0.801  11.040   9.047 -0.6979  0.3356 -1.3194
11704SOL     OW40049   3.821   7.763   6.094  0.2970  0.4887  0.2712
11704SOL    HW140050   3.737   7.720   6.082  0.2797  0.8565 -1.0950
11704SOL    HW240051   3.875   7.697   6.138 -0.5730  0.1085  0.7957
11705SOL     OW40052   4.463   6.414   5.340 -0.4462  0.4516  0.2068
11705SOL    HW140053   4.442   6.324   5.318  1.1956  0.2792 -0.7761
11705SOL    HW240054   4.504   6.409   5.426 -0.3701  0.2752  0.1603
11706SOL     OW40055   2.095   5.524   2.395  0.5244  0.5646  0.5262
11706SOL    HW140056   2.093   5.576   2.315 -0.7887 -0.0365  0.1546
11706SOL    HW240057   2.005   5.525   2.427  0.5932 -0.9554  0.8454
11707SOL     OW40058  10.523   1.743   1.377  0.0373  0.3024  0.1871
11707SOL    HW140059  10.478   1.679   1.433  0.9319  0.2891  0.9083
11707SOL    HW240060  10.609   1.704   1.362  0.8101  1.5996  1.1216
11708SOL     OW40061   7.018   4.377   0.760  0.0035  0.1246 -0.4201
11708SOL    HW140062   7.067   4.352   0.838  0.7086  2.0226 -0.2015
11708SOL    HW240063   6.937   4.415   0.794  1.0107  2.4756 -0.4548
11709SOL     OW40064   5.435   6.801   2.653 -0.5725 -0.2221 -0.5010
11709SOL    HW140065   5.341   6.816   2.656 -0.7334 -0.2503 -3.0650
11709SOL    HW240066   5.446   6.725   2.596  0.9730 -0.9089  0.6309
11710SOL     OW40067   1.832   8.388   3.644  0.6241  0.3544 -0.4688
11710SOL    HW140068   1.754   8.440   3.664  1.3147  1.1896  0.1002
11710SOL    HW240069   1.895   8.450   3.608  2.1711  0.3853  2.0436
11711SOL     OW40070   4.281  11.627   1.765  0.5218  0.9337 -0.0156
11711SOL    HW140071   4.372  11.604   1.783  0.3479  1.1301  1.2222
11711SOL    HW240072   4.264  11.703   1.820 -0.6826  0.2741  0.5668
11712SOL     OW40073  11.107   9.624   2.242 -0.6050  0.2013 -0.2619
11712SOL    HW140074  11.053   9.549   2.219 -1.6579  1.4058 -1.9181
11712SOL    HW240075  11.085   9.641   2.334 -0.6441 -1.2405  0.0226
11713SOL     OW40076   4.364   9.673   7.756 -0.1475  0.0670 -0.0753
11713SOL    HW140077   4.384   9.580   7.744 -0.2040  0.0864 -0.3413
11713SOL    HW240078   4.314   9.676   7.837 -1.1817 -0.2882 -0.6834
11714SOL     OW40079   7.173   6.404   6.791 -0.1039 -0.2125 -0.5779
11714SOL    HW140080   7.156   6.483   6.842  0.4059 -0.1444 -0.5181
11714SOL    HW240081   7.103   6.403   6.725 -0.3481  0.0696 -0.3222
11715SOL     OW40082   9.627   2.866   5.141 -0.5632  0.3220 -0.0175
11715SOL    HW140083   9.614   2.796   5.205 -0.8789 -0.0341 -0.4662
11715SOL    HW240084   9.548   2.864   5.087  0.1865 -0.1427 -1.1435
11716SOL     OW40085  10.578   6.086   4.288 -0.2969 -0.2339  0.1880
11716SOL    HW140086  10.565   6.005   4.337  0.5876  0.3654  1.4713
11716SOL    HW240087  10.575   6.059   4.196 -0.4089 -1.6496  0.5781
11717SOL     OW40088   4.992   5.349   4.649  0.1429  0.5345 -0.3747
11717SOL    HW140089   4.907   5.307   4.638  0.0356  0.2477  1.3091
11717SOL    HW240090   4.980   5.437   4.615 -1.1641  0.8577  0.8253
11718SOL     OW40091   1.614   7.942  10.629  0.4257 -0.5922  0.3455
11718SOL    HW140092   1.708   7.930  10.621  0.5320  0.0659  0.5047
11718SOL    HW240093   1.599   7.956  10.723  0.3197  0.3943  0.1972
11719SOL     OW40094   2.544   9.559   1.171  0.4404 -0.3388 -0.0089
11719SOL    HW140095   2.562   9.479   1.122 -1.8366 -0.2145 -1.1683
11719SOL    HW240096   2.469   9.537   1.226 -0.8034  1.2060 -1.0013
11720SOL     OW40097   3.484   6.679   6.892 -0.0997 -0.2351  0.1580
11720SOL    HW140098   3.447   6.744   6.833  0.8211 -0.2203 -0.4191
11720SOL    HW240099   3.545   6.729   6.947 -0.0906 -0.4504  0.3460
11721SOL     OW40100   2.190   6.624   0.437  0.3280 -0.1041 -0.0086
11721SOL    HW140101   2.157   6.638   0.526 -0.8685  1.0522 -0.6136
11721SOL    HW240102   2.231   6.537   0.441 -0.1944 -0.3191  1.5158
11722SOL     OW40103   9.234  10.293  10.468 -0.2869 -0.1779  0.2552
11722SOL    HW140104   9.249  10.353  10.541  0.8033 -0.9577  0.6962
11722SOL    HW240105   9.265  10.341  10.391 -0.2878  0.1764  0.4717
11723SOL     OW40106   8.553   1.981   0.702  0.0072  0.5254 -0.2004
11723SOL    HW140107   8.643   2.014   0.710  0.2001  0.0232 -0.2971
11723SOL    HW240108   8.512   2.039   0.638  0.7118 -0.1899 -1.3271
11724SOL     OW40109   3.321  11.017   2.083  0.1447 -0.4485  0.4941
11724SOL    HW140110   3.281  11.032   2.168 -0.2970 -2.2801  0.6431
11724SOL    HW240111   3.411  10.992   2.103  0.0435 -0.8703  0.4209
11725SOL     OW40112   1.548   5.467  11.617 -0.0189  0.3722  0.1754
11725SOL    HW140113   1.604   5.534  11.578  1.4055 -0.1244  1.2931
11725SOL    HW240114   1.467   5.471  11.565  0.9757  1.1974 -1.4007
11726SOL     OW40115   7.143   5.018   8.034 -0.4503  0.2203  0.1616
11726SOL    HW140116   7.205   5.034   8.105  0.7667  0.2736 -0.8763
11726SOL    HW240117   7.114   5.105   8.008 -0.0540  0.2733 -0.1170
11727SOL     OW40118   3.149   7.149   0.075 -0.0366  0.0210 -0.6593
11727SOL    HW140119   3.078   7.209   0.099  0.0187  0.2569 -1.0788
11727SOL    HW240120   3.145   7.143  -0.020  0.8348  0.4613 -0.7353
11728SOL     OW40121   9.901   2.730  11.512  0.0932 -0.0812  0.5706
11728SOL    HW140122   9.897   2.657  11.450  0.8054 -0.7312  1.2577
11728SOL    HW240123   9.815   2.732  11.553 -0.5199  0.6052 -0.6875
11729SOL     OW40124   7.894   6.723   0.726  0.1678  0.5465  0.0141
11729SOL    HW140125   7.879   6.713   0.820 -2.2625 -0.8552 -0.4201
11729SOL    HW240126   7.845   6.801   0.702 -2.9262 -1.4001 -0.6410
11730SOL     OW40127   1.311   3.776   7.991  0.0748 -0.4909  0.0558
11730SOL    HW140128   1.351   3.691   7.975 -0.5179 -1.0470  1.3912
11730SOL    HW240129   1.330   3.795   8.083 -0.9445  0.1767  0.1480
11731SOL     OW40130   2.989   5.710   0.301 -0.3027 -0.2564 -0.3779
11731SOL    HW140131   3.001   5.617   0.320  0.9136 -0.7422 -3.0495
11731SOL    HW240132   2.894   5.724   0.307 -0.3231 -1.0472  2.2962
11732SOL     OW40133   3.265   7.031   4.858 -0.5248 -0.3017  0.4728
11732SOL    HW140134   3.276   7.126   4.850  0.1854 -0.3640  0.6646
11732SOL    HW240135   3.279   7.013   4.951  1.8762 -0.9015  0.0584
11733SOL     OW40136   9.760   8.767   8.846 -0.1492 -0.0751 -0.2927
11733SOL    HW140137   9.815   8.706   8.797  1.7306  1.1595  0.1543
11733SOL    HW240138   9.781   8.751   8.938 -4.4575 -3.1281  0.4085
11734SOL     OW40139  10.720   3.114   4.086  0.3042  0.1733 -0.0439
11734SOL    HW140140  10.648   3.120   4.023  0.0609  0.9888  0.2964
11734SOL    HW240141  10.699   3.037   4.140 -1.8801  1.9832  1.9172
11735SOL     OW40142  10.519   3.599   5.928  0.6560  0.2342  0.4495
11735SOL    HW140143  10.587   3.642   5.980  1.1337  0.5547 -0.4020
11735SOL    HW240144  10.482   3.669   5.874  0.4025 -0.1403  0.1308
11736SOL     OW40145   7.415   8.274   8.427  0.0993 -0.0018 -0.3504
11736SOL    HW140146   7.475   8.347   8.414  0.0082  0.0136 -0.7130
11736SOL    HW240147   7.329   8.314   8.431  0.1116 -0.0234  0.1750
11737SOL     OW40148   7.421  11.597   2.697  0.1328 -0.5087 -0.3036
11737SOL    HW140149   7.503  11.570   2.740 -0.0840 -1.7807 -0.6528
11737SOL    HW240150   7.427  11.692   2.693  1.5086 -0.5639 -0.1370
11738SOL     OW40151   8.197   3.674   9.457 -0.1408 -0.0829 -0.0954
11738SOL    HW140152   8.110   3.705   9.433  0.3246  1.3234 -0.0785
11738SOL    HW240153   8.188   3.579   9.467 -1.1977 -0.2433 -2.1224
11739SOL     OW40154   1.794   4.944   5.831 -0.1155  0.2857 -0.3633
11739SOL    HW140155   1.865   4.959   5.768 -0.0354 -0.1919 -0.3894
11739SOL    HW240156   1.805   5.014   5.896 -0.3189  0.9030 -0.9831
11740SOL     OW40157  10.322   7.762   2.959  0.1202 -0.0853 -0.6582
11740SOL    HW140158  10.353   7.726   2.876  2.5000  0.5362 -0.1072
11740SOL    HW240159  10.359   7.703   3.025 -1.8032 -0.6097  0.0072
11741SOL     OW40160   2.469   5.210  10.169 -0.2833  0.1631 -0.0967
11741SOL    HW140161   2.374   5.216  10.180 -0.3964 -1.2347 -0.1026
11741SOL    HW240162   2.481   5.193  10.075 -0.0742 -0.3390  0.0180
11742SOL     OW40163   2.630   9.981   2.412 -0.5759  0.0185  0.2088
11742SOL    HW140164   2.587  10.057   2.452  0.6953  0.3114  1.1063
11742SOL    HW240165   2.598   9.906   2.462  0.6041  0.3304  1.5158
11743SOL     OW40166   8.870   8.580   8.362 -0.1154 -0.0709 -0.0807
11743SOL    HW140167   8.927   8.656   8.370 -1.8270  1.0953  3.2062
11743SOL    HW240168   8.879   8.551   8.272  2.4334  2.5483 -0.7906
11744SOL     OW40169   8.519  11.507  11.218  0.7677 -0.4909 -0.5200
11744SOL    HW140170   8.576  11.561  11.164  0.1313  0.4070 -0.3130
11744SOL    HW240171   8.501  11.560  11.295  1.3384 -1.5955  0.4057
11745SOL     OW40172  11.403  10.483   5.142  0.8528 -0.6860  0.0881
11745SOL    HW140173  11.432  10.446   5.059  1.1630  1.8308 -1.0096
11745SOL    HW240174  11.309  10.465   5.144  0.6924 -0.0967 -1.2097
11746SOL     OW40175   6.557   7.414   1.215  0.2661 -0.0734  0.1304
11746SOL    HW140176   6.495   7.359   1.168 -0.4128  0.4428  0.3959
11746SOL    HW240177   6.507   7.494   1.235  1.4437  1.0016 -0.9806
11747SOL     OW40178   0.267   6.515   3.494 -0.1422  0.4169 -0.2271
11747SOL    HW140179   0.251   6.587   3.433  0.1414  1.5549  0.9855
11747SOL    HW240180   0.283   6.439   3.438  1.0072  1.5978 -1.5914
11748SOL     OW40181   6.347   0.437  11.129  0.0398 -0.4501  0.7064
11748SOL    HW140182   6.406   0.512  11.140  1.6671 -1.5301 -0.1664
11748SOL    HW240183   6.303   0.428  11.214 -0.1672  1.4310  0.8453
11749SOL     OW40184   1.472   7.286   5.751  0.1997 -0.6945  0.3678
11749SOL    HW140185   1.531   7.232   5.697 -0.2933 -1.5071  0.6198
11749SOL    HW240186   1.384   7.256   5.727 -0.1523  0.7822 -0.3004
11750SOL     OW40187   3.674   2.046   0.430 -0.4874  0.7493  0.3742
11750SOL    HW140188   3.726   1.982   0.382 -1.6669  0.7977 -1.0545
11750SOL    HW240189   3.654   2.003   0.514 -1.5528 -0.9552 -0.6853
11751SOL     OW40190   6.373  11.143   0.463  0.0185 -0.1208  0.5929
11751SOL    HW140191   6.297  11.090   0.486 -1.2774  1.0248 -0.7747
11751SOL    HW240192   6.448  11.093   0.493 -0.9326 -3.7022 -2.2226
11752SOL     OW40193   5.034   0.827  10.386  0.0453 -0.0251 -0.6082
11752SOL    HW140194   5.048   0.798  10.476 -3.3109  1.5374  0.5620
11752SOL    HW240195   5.009   0.748  10.338 -1.1654 -0.3823  0.5878
11753SOL     OW40196   9.506   5.944  11.183  0.2881  0.2347  0.0919
11753SOL    HW140197   9.481   5.958  11.274 -1.2613 -1.4322 -0.0350
11753SOL    HW240198   9.447   6.000  11.132 -0.3044 -0.4441  0.0185
11754SOL     OW40199   2.333   1.062   6.212 -0.3963 -0.0114  0.2980
11754SOL    HW140200   2.339   0.984   6.157 -0.3550  1.4159 -1.8727
11754SOL    HW240201   2.243   1.062   6.244 -1.0531  0.1451 -1.4638
11755SOL     OW40202   4.593   3.669   7.613 -0.4946 -0.4239  0.3527
11755SOL    HW140203   4.637   3.631   7.537 -2.2465 -0.8005 -0.5286
11755SOL    HW240204   4.525   3.606   7.637 -0.9173  0.3494  1.3364
11756SOL     OW40205   8.760   8.395   7.920 -0.2867  0.2928 -0.4393
11756SOL    HW140206   8.827   8.405   7.988  0.8791  0.0107 -1.5138
11756SOL    HW240207   8.803   8.424   7.840 -1.8103  1.1058 -0.9802
11757SOL     OW40208   5.279   5.186   3.349 -0.4724 -0.0987  0.1628
11757SOL    HW140209   5.341   5.119   3.319  0.2526  0.8456 -0.4867
11757SOL    HW240210   5.259   5.160   3.439  1.9966  0.3219  0.9186
11758SOL     OW40211   6.468  11.512   9.306 -0.1997  0.6513  0.2909
11758SOL    HW140212   6.445  11.598   9.342 -2.9743  0.6316 -1.0953
11758SOL    HW240213   6.471  11.526   9.212 -1.1524 -0.8135  0.0056
11759SOL     OW40214   1.744  11.524   6.778  0.1539  0.5107 -0.5476
11759SOL    HW140215   1.772  11.538   6.868 -0.3631 -1.4021 -0.0378
11759SOL    HW240216   1.683  11.595   6.761 -0.3908  0.4284  0.9084
11760SOL     OW40217   8.138   7.144   4.127  0.3738  0.3374 -0.1390
11760SOL    HW140218   8.045   7.122   4.119  0.4731 -0.8821  1.5516
11760SOL    HW240219   8.173   7.134   4.038 -0.9039 -0.2221 -0.5957
11761SOL     OW40220  10.361   2.889   5.682  0.1160  0.4209  0.1842
11761SOL    HW140221  10.287   2.872   5.741 -0.1445  3.6806  0.9523
11761SOL    HW240222  10.356   2.818   5.618 -2.5224 -0.5510  1.2978
11762SOL     OW40223   7.104   5.292   8.006  0.2569 -0.3995 -0.6339
11762SOL    HW140224   7.133   5.352   7.937  1.0894  0.1962  0.2165
11762SOL    HW240225   7.110   5.343   8.087  2.2868 -1.9822  0.3078
11763SOL     OW40226   2.313   9.184   6.616  0.3262  0.4579 -0.4675
11763SOL    HW140227   2.269   9.264   6.645 -0.2999  0.0396 -0.2502
11763SOL    HW240228   2.359   9.152   6.694  2.1414  1.5850 -0.9932
11764SOL     OW40229  10.034   0.662   3.700 -0.3051 -0.1252 -0.3033
11764SOL    HW140230  10.126   0.685   3.692 -0.0593 -1.4513 -1.7145
11764SOL    HW240231  10.033   0.566   3.706 -1.6458 -0.2500 -1.7852
11765SOL     OW40232   0.214   5.494   9.408 -0.7613  0.2973  0.3909
11765SOL    HW140233   0.194   5.542   9.328  1.8873  0.0713 -0.4987
11765SOL    HW240234   0.241   5.562   9.470 -0.1509  0.2420  0.1885
11766SOL     OW40235   8.987  10.479   0.403 -0.2359 -0.2569 -0.5120
11766SOL    HW140236   8.918  10.545   0.395 -0.3121 -0.4194 -1.3258
11766SOL    HW240237   9.067  10.530   0.417 -0.4958 -0.0634  0.3071
11767SOL     OW40238  10.781  10.401   2.824  0.2461 -0.4810 -0.4634
11767SOL    HW140239  10.703  10.355   2.793  0.7285 -1.3943 -0.3573
11767SOL    HW240240  10.807  10.353   2.903  0.3982  0.3698  0.0136
11768SOL     OW40241  10.445   7.870   5.803  0.1731  0.5142  0.1064
11768SOL    HW140242  10.465   7.963   5.816 -0.1985  0.7054 -0.6436
11768SOL    HW240243  10.351   7.863   5.815  0.4379 -0.1704  2.3462
11769SOL     OW40244  10.380   8.124   9.079 -0.2985  0.0322 -0.3989
11769SOL    HW140245  10.318   8.132   9.006 -1.4679 -0.3652  0.5247
11769SOL    HW240246  10.434   8.049   9.055 -0.6217 -0.0481 -0.9046
11770SOL     OW40247   5.372   9.800   0.629  0.1659  0.7720 -0.0738
11770SOL    HW140248   5.362   9.845   0.713 -1.6877  1.9911 -0.8863
11770SOL    HW240249   5.441   9.849   0.584  0.3655  0.8243  0.2824
11771SOL     OW40250   3.092  10.381   3.914 -0.3902  0.4254  0.0999
11771SOL    HW140251   3.132  10.305   3.872 -2.5392 -0.9014  0.2853
11771SOL    HW240252   3.163  10.445   3.920  1.0888 -0.9415 -1.5494
11772SOL     OW40253   8.051   6.942   3.227  0.7637 -0.0504 -0.1735
11772SOL    HW140254   8.111   7.015   3.209  0.0881  2.0253  4.5154
11772SOL    HW240255   7.964   6.983   3.226 -0.1194 -1.8228 -1.4673
11773SOL     OW40256   2.503   8.252   9.071  0.4247  0.2882 -0.5156
11773SOL    HW140257   2.467   8.227   8.986 -0.1131 -0.0108 -0.2012
11773SOL    HW240258   2.447   8.324   9.100 -1.0251 -1.2852  0.7563
11774SOL     OW40259   7.999   6.821  11.131 -0.0831 -0.3632  0.1147
11774SOL    HW140260   7.945   6.894  11.159  1.9257  1.0344  0.4896
11774SOL    HW240261   7.996   6.759  11.204  1.2940  1.1213  1.5136
11775SOL     OW40262   3.852  10.519   9.426 -0.1010 -0.8218 -0.3493
11775SOL    HW140263   3.920  10.581   9.399 -0.2119 -0.5317  0.0252
11775SOL    HW240264   3.866  10.442   9.371  0.5419 -0.7724 -0.2627
11776SOL     OW40265   1.647   8.657   7.025  0.2329 -0.2852  0.3502
11776SOL    HW140266   1.736   8.693   7.029  0.2174 -0.2781  0.6953
11776SOL    HW240267   1.599   8.705   7.093  0.1422 -0.7616  0.6320
11777SOL     OW40268   9.249   8.759   0.794  0.4795 -0.1870 -0.6018
11777SOL    HW140269   9.160   8.789   0.775  0.4395 -0.0309 -0.1627
11777SOL    HW240270   9.238   8.693   0.862  0.6770 -0.3721 -0.7474
11778SOL     OW40271   6.184   6.441   9.758  0.2076 -0.1165  0.4451
11778SOL    HW140272   6.147   6.502   9.822 -1.9323 -1.8006  0.9363
11778SOL    HW240273   6.178   6.488   9.674 -2.0302  0.1883  0.6979
11779SOL     OW40274  11.465   9.341   5.865  0.2434 -0.0457 -0.1098
11779SOL    HW140275  11.470   9.347   5.770  0.7475  1.8563 -0.0003
11779SOL    HW240276  11.378   9.306   5.883 -0.7597  1.7221 -1.2403
11780SOL     OW40277   7.471   8.348  10.277 -0.3090  0.1870 -0.1274
11780SOL    HW140278   7.523   8.286  10.328  0.3001 -0.9823 -2.0538
11780SOL    HW240279   7.511   8.347  10.190 -1.3662  2.0086 -0.6977
11781SOL     OW40280   2.652   4.239   7.654 -0.1882 -0.1671  0.4614
11781SOL    HW140281   2.586   4.250   7.722  0.0119  1.0208  0.4916
11781SOL    HW240282   2.668   4.328   7.622  0.7645 -0.5397 -0.1448
11782SOL     OW40283   5.774   0.275   9.933 -0.6449  0.1782 -0.0085
11782SOL    HW140284   5.786   0.220  10.011 -0.3918 -1.5747 -1.2105
11782SOL    HW240285   5.775   0.364   9.966  1.5849 -0.3979  1.7591
11783SOL     OW40286   9.261  10.221   3.337  0.1405 -0.4759 -0.0772
11783SOL    HW140287   9.222  10.295   3.290 -0.2952 -0.8926 -0.3704
11783SOL    HW240288   9.192  10.156   3.343  0.1004 -0.3446  1.3685
11784SOL     OW40289   2.052   1.833   6.745  0.0196 -0.6074 -0.6043
11784SOL    HW140290   2.146   1.838   6.758  0.0149 -0.5195 -0.6046
11784SOL    HW240291   2.016   1.820   6.833  0.0010 -0.1987 -0.5508
11785SOL     OW40292   0.881   6.274   5.465  0.2482  0.6075 -0.2472
11785SOL    HW140293   0.832   6.302   5.543  1.1637  0.3936  0.4144
11785SOL    HW240294   0.956   6.333   5.461  0.3751  0.4109 -0.7914
11786SOL     OW40295   8.972   3.800   7.814 -0.4916  0.4914  0.0024
11786SOL    HW140296   8.982   3.800   7.909 -1.6269  1.1508  0.1427
11786SOL    HW240297   9.026   3.874   7.784 -0.5209  0.5850  0.1800
11787SOL     OW40298   6.010  11.668   9.700  0.1831  0.2463 -0.8562
11787SOL    HW140299   5.997  11.615   9.779 -0.0856  2.4692  0.6868
11787SOL    HW240300   6.024  11.757   9.733  1.6880  0.9926 -3.2735
11788SOL     OW40301   9.390   9.060   9.507  0.0194 -0.6905 -0.0009
11788SOL    HW140302   9.426   8.974   9.487 -0.7052 -0.9999  0.0078
11788SOL    HW240303   9.311   9.066   9.453  0.4774  0.2823 -0.5910
11789SOL     OW40304   2.477   1.677   8.465  0.1457 -0.1920  0.1188
11789SOL    HW140305   2.532   1.671   8.543  0.8940  0.3583 -0.3471
11789SOL    HW240306   2.400   1.624   8.485 -0.1632  0.7506  1.6367
11790SOL     OW40307   1.862   6.101   8.817  0.4661  0.6418  1.0073
11790SOL    HW140308   1.903   6.176   8.860  1.4494  0.3382  0.6220
11790SOL    HW240309   1.932   6.060   8.767 -0.2057 -0.1642  0.6926
11791SOL     OW40310   7.733   3.269   1.117  1.2019 -0.3924 -0.0290
11791SOL    HW140311   7.738   3.317   1.035 -1.0291 -0.3540 -0.1952
11791SOL    HW240312   7.694   3.185   1.094 -1.1421  0.2756  1.1748
11792SOL     OW40313   0.409   6.087   1.425 -0.1933 -0.1654  0.1803
11792SOL    HW140314   0.444   6.139   1.498  1.2890  0.1416 -0.7195
11792SOL    HW240315   0.325   6.055   1.458 -1.4458  3.1711  0.5978
11793SOL     OW40316   0.504   7.965   6.892 -0.0666 -0.1428 -0.3313
11793SOL    HW140317   0.524   8.046   6.939  1.1552  0.5828 -1.9964
11793SOL    HW240318   0.557   7.898   6.937 -0.8118  0.0158  0.8342
11794SOL     OW40319   0.670  10.085  11.094  0.2223 -0.1404  0.5904
11794SOL    HW140320   0.729  10.154  11.064  0.8998 -0.3051  1.5022
11794SOL    HW240321   0.614  10.066  11.019  2.4921 -1.2464 -0.9168
11795SOL     OW40322  11.635   5.923   1.992 -0.7097  0.1975  0.1565
11795SOL    HW140323  11.589   6.006   1.983 -1.3509 -0.1867 -0.1533
11795SOL    HW240324  11.634   5.906   2.087  0.4493  1.1008  0.3545
11796SOL     OW40325   1.815   4.450   1.240  0.1719  0.2164  0.5208
11796SOL    HW140326   1.733   4.399   1.233 -2.0093  3.5802 -1.7426
11796SOL    HW240327   1.861   4.431   1.158  0.8112 -0.2674  0.9802
11797SOL     OW40328   8.876   3.890   4.536  0.3234  0.3817  0.2027
11797SOL    HW140329   8.958   3.903   4.489 -0.7354  1.8885 -1.3980
11797SOL    HW240330   8.834   3.976   4.534 -1.1842 -0.2933  1.1744
11798SOL     OW40331  10.432   6.492  10.649 -0.4492  0.0482 -0.4716
11798SOL    HW140332  10.453   6.567  10.593  0.5434  0.5615  0.5617
11798SOL    HW240333  10.375   6.437  10.595 -1.7732  1.8635 -1.0457
11799SOL     OW40334   7.384  10.532   9.766 -0.3932 -0.7213  0.0458
11799SOL    HW140335   7.347  10.482   9.838  1.9328 -1.0768  1.0908
11799SOL    HW240336   7.403  10.618   9.803  0.2097 -0.6942 -0.2986
11800SOL     OW40337   6.452   5.579   2.022  0.0274  0.3295 -0.3299
11800SOL    HW140338   6.374   5.527   2.008  0.8339 -0.7520 -0.9454
11800SOL    HW240339   6.449   5.601   2.115 -1.2354  0.7132 -0.4419
11801SOL     OW40340   7.400   0.908   4.225 -0.0932  0.3170  0.1770
11801SOL    HW140341   7.372   0.978   4.167 -1.2642 -1.6838 -1.8568
11801SOL    HW240342   7.486   0.882   4.192  0.9410  1.5766  1.7475
11802SOL     OW40343   7.536   6.176   4.533  0.1113 -0.2319  0.5353
11802SOL    HW140344   7.486   6.115   4.588  1.1976 -2.0830 -0.4086
11802SOL    HW240345   7.524   6.143   4.444  0.0101  1.5092 -0.1179
11803SOL     OW40346   6.347   7.867   2.085 -0.6124  0.2863 -0.0579
11803SOL    HW140347   6.283   7.830   2.146  0.4066  0.6474  1.2713
11803SOL    HW240348   6.387   7.792   2.042 -1.7463  0.0493 -0.7391
11804SOL     OW40349   3.764   2.144   7.579 -0.5077  0.3474  0.7741
11804SOL    HW140350   3.675   2.125   7.548 -0.1237  0.5735 -0.5255
11804SOL    HW240351   3.812   2.171   7.500  0.3737  1.5095  1.6648
11805SOL     OW40352   8.312   4.272   2.370  0.2327 -0.0986 -0.1091
11805SOL    HW140353   8.253   4.296   2.298  0.3795  3.1350  0.7036
11805SOL    HW240354   8.396   4.255   2.327 -0.1855 -0.2596 -0.8838
11806SOL     OW40355   5.125   9.071   1.444  0.7509 -0.5604 -0.2143
11806SOL    HW140356   5.176   8.990   1.451 -0.7192 -1.4323  0.9936
11806SOL    HW240357   5.047   9.045   1.393 -0.8195 -0.5326  2.0514
11807SOL     OW40358   9.184   6.589   0.307 -0.2522 -0.0330 -0.0345
11807SOL    HW140359   9.097   6.552   0.294  0.1380 -0.3758 -1.9252
11807SOL    HW240360   9.168   6.674   0.349 -1.4068 -0.5579  0.6319
11808SOL     OW40361   8.547   6.618   7.401 -0.1906 -0.0578 -0.5311
11808SOL    HW140362   8.505   6.639   7.318 -2.6280 -1.1748  0.3367
11808SOL    HW240363   8.619   6.560   7.377 -1.2621 -0.9068 -1.8443
11809SOL     OW40364   8.772   7.177   9.154 -0.0444 -0.0385 -0.8664
11809SOL    HW140365   8.752   7.090   9.118 -1.2239 -1.2358  2.3532
11809SOL    HW240366   8.690   7.225   9.145 -0.3518 -0.3510  0.1233
11810SOL     OW40367   6.722   1.830  11.517 -0.4491 -0.1713 -0.3185
11810SOL    HW140368   6.698   1.738  11.502 -0.8953  0.0179 -0.7960
11810SOL    HW240369   6.804   1.826  11.566 -0.6107 -0.8266 -0.0883
11811SOL     OW40370  10.858   5.750   8.696  0.0797  0.0495  0.6079
11811SOL    HW140371  10.862   5.831   8.748 -2.2735 -0.6655  2.0777
11811SOL    HW240372  10.788   5.766   8.633 -0.4286 -0.8153  0.9344
11812SOL     OW40373  10.503   8.879   0.043  0.3226 -0.2050 -0.0333
11812SOL    HW140374  10.454   8.858   0.123 -1.5848  2.0232 -0.4761
11812SOL    HW240375  10.594   8.864   0.066 -0.2957 -1.4071  1.9401
11813SOL     OW40376   8.789   3.561   2.810  0.3814  0.4286  0.0327
11813SOL    HW140377   8.863   3.549   2.750 -0.1554  0.0762 -0.5732
11813SOL    HW240378   8.811   3.507   2.885  1.7600  2.0163  0.8375
11814SOL     OW40379   6.285   2.386   7.672 -0.0570 -0.4078  0.1633
11814SOL    HW140380   6.364   2.407   7.723  1.2288 -0.0903 -1.8578
11814SOL    HW240381   6.316   2.381   7.582 -2.1996 -1.2849 -0.5715
11815SOL     OW40382   4.548   5.211   1.042  0.1421  0.4153  0.0873
11815SOL    HW140383   4.541   5.116   1.046 -2.0179  0.5766  1.5777
11815SOL    HW240384   4.458   5.242   1.040  0.7932  2.4529 -0.8858
11816SOL     OW40385  11.097   0.587   2.787  0.3112  0.2873 -0.0820
11816SOL    HW140386  11.115   0.553   2.699  0.9236 -1.2444  0.6027
11816SOL    HW240387  11.016   0.637   2.777 -1.7587 -2.9088 -0.8743
11817SOL     OW40388   7.842   2.530  10.974  0.0717 -0.1375  0.0229
11817SOL    HW140389   7.922   2.572  11.006 -0.0497  0.5147 -0.5196
11817SOL    HW240390   7.856   2.437  10.991  2.6055 -0.5895 -3.4166
11818SOL     OW40391   1.255   6.712  10.413 -0.3552  0.0123  0.0482
11818SOL    HW140392   1.242   6.806  10.396 -0.1304  0.0171 -0.1031
11818SOL    HW240393   1.280   6.676  10.328 -0.9119 -0.2721  0.0052
11819SOL     OW40394   6.371   9.683   8.375 -0.1834  0.2526  0.0498
11819SOL    HW140395   6.336   9.687   8.464 -1.1156  0.4410 -0.3131
11819SOL    HW240396   6.458   9.723   8.381 -0.5266  0.9213  0.7402
11820SOL     OW40397   8.501   1.191   2.897  0.3458 -0.2117  0.4668
11820SOL    HW140398   8.537   1.190   2.986 -0.6943 -1.1380  0.8922
11820SOL    HW240399   8.474   1.282   2.884  0.3765 -0.0948  1.1639
11821SOL     OW40400   0.129   4.601  10.925  0.5345  0.3578 -0.3685
11821SOL    HW140401   0.094   4.689  10.914 -0.2006  0.1473  0.1854
11821SOL    HW240402   0.052   4.544  10.923  0.6101  0.0034  2.2899
11822SOL     OW40403   2.419   6.548   1.086 -0.2298 -0.6419  0.0076
11822SOL    HW140404   2.459   6.617   1.140  0.6288 -0.1811 -1.1736
11822SOL    HW240405   2.459   6.467   1.117  1.2099 -0.2497 -0.7426
11823SOL     OW40406   3.165   9.920   7.826  0.0143 -0.1294 -0.2424
11823SOL    HW140407   3.238   9.870   7.862 -0.3395  0.4112  1.3034
11823SOL    HW240408   3.096   9.913   7.892 -0.1786  2.0749 -0.1343
11824SOL     OW40409   2.076   3.784   9.013  0.0732  0.2600  0.2789
11824SOL    HW140410   2.007   3.812   9.073  0.0796 -1.2169  1.0175
11824SOL    HW240411   2.032   3.777   8.928 -0.4345  0.3845  0.5264
11825SOL     OW40412  10.694   9.251   2.058  0.1300  0.0450  0.3067
11825SOL    HW140413  10.758   9.183   2.078  1.7368  0.4228 -2.9628
11825SOL    HW240414  10.639   9.214   1.989  0.6586  1.7588 -1.1229
11826SOL     OW40415   6.572  10.364   5.605 -0.2941  0.1706  0.1247
11826SOL    HW140416   6.621  10.354   5.523 -0.0049  2.4355 -0.0281
11826SOL    HW240417   6.496  10.306   5.594 -0.3375  0.5177 -1.8238
11827SOL     OW40418   1.156   6.042   9.756  0.3759 -0.3289  0.2678
11827SOL    HW140419   1.182   5.950   9.749  2.0588 -0.0718  2.3002
11827SOL    HW240420   1.080   6.041   9.814 -0.6420 -0.5372 -1.0155
11828SOL     OW40421  10.881  10.513   3.138 -0.6446  0.0459 -0.6997
11828SOL    HW140422  10.941  10.501   3.064  0.8380  1.2128  0.2321
11828SOL    HW240423  10.879  10.428   3.181  1.7458  0.3471  0.1895
11829SOL     OW40424  10.836   3.365  10.617 -0.6096  0.1056  0.1825
11829SOL    HW140425  10.754   3.320  10.595 -0.5977  0.1329  0.0817
11829SOL    HW240426  10.901   3.325  10.560 -0.7602  0.8399 -0.5314
11830SOL     OW40427   4.413   4.100   4.471 -0.1811 -0.0584 -0.2132
11830SOL    HW140428   4.375   4.034   4.413 -0.9976  0.5525 -0.3964
11830SOL    HW240429   4.341   4.162   4.487  0.0374 -0.1747  1.4007
11831SOL     OW40430  11.572   3.260   9.102  0.7873 -0.5254  0.7453
11831SOL    HW140431  11.539   3.348   9.081  1.0436  0.0289  2.5069
11831SOL    HW240432  11.614   3.231   9.021 -1.4358 -0.0738 -0.6786
11832SOL     OW40433   0.389   8.014   6.264 -0.4974  0.7238 -0.2250
11832SOL    HW140434   0.471   8.061   6.249  1.2595 -1.5963  1.4517
11832SOL    HW240435   0.366   7.977   6.179 -0.3374  2.0822 -0.8932
11833SOL     OW40436   1.225   4.441  10.780  0.4156 -0.0851  0.0033
11833SOL    HW140437   1.179   4.482  10.853 -1.6046 -0.6950 -0.8579
11833SOL    HW240438   1.275   4.370  10.820 -0.1665 -0.0247  0.8653
11834SOL     OW40439   9.895   4.442   2.342 -0.1452 -0.4252  0.1921
11834SOL    HW140440   9.970   4.384   2.354 -0.4965 -0.9158  0.0499
11834SOL    HW240441   9.863   4.459   2.431 -0.5115 -1.0860  0.1976
11835SOL     OW40442   6.250   1.079  10.253  0.7640  0.5087 -0.0041
11835SOL    HW140443   6.245   0.988  10.282  1.5952  0.4668  0.0142
11835SOL    HW240444   6.182   1.087  10.186 -1.3114  0.6231  1.9697
11836SOL     OW40445  10.303   8.460   3.226  0.5055  0.4157 -0.3832
11836SOL    HW140446  10.350   8.407   3.290  1.0131  0.1307 -0.9834
11836SOL    HW240447  10.312   8.411   3.144  0.4277  1.1106 -0.8079
11837SOL     OW40448  11.262   2.115  10.736 -0.0736 -0.0243 -0.3967
11837SOL    HW140449  11.307   2.158  10.809  0.6263  1.0357 -1.4304
11837SOL    HW240450  11.186   2.170  10.719 -0.0555 -0.0875 -0.6832
11838SOL     OW40451   7.104  10.242   3.378 -0.1381 -0.3777  0.1233
11838SOL    HW140452   7.026  10.188   3.380 -0.2955 -0.1586  0.0088
11838SOL    HW240453   7.107  10.284   3.464 -0.9282  0.6965 -0.3553
11839SOL     OW40454   5.389  11.067   2.356 -0.0121  0.2880 -0.2457
11839SOL    HW140455   5.481  11.061   2.330 -0.0447 -1.2030 -0.1422
11839SOL    HW240456   5.341  11.069   2.273  0.0077 -1.8735 -0.3658
11840SOL     OW40457  11.402   7.309   8.845 -0.3229  0.1710 -0.0747
11840SOL    HW140458  11.492   7.294   8.817 -0.2540  0.5637 -0.0653
11840SOL    HW240459  11.370   7.379   8.788 -0.5726  0.1423  0.0276
11841SOL     OW40460   2.709   7.544   8.050  0.1939 -0.9688 -0.1502
11841SOL    HW140461   2.727   7.451   8.035  2.3492 -0.8339  1.1650
11841SOL    HW240462   2.696   7.551   8.144 -1.7712 -0.1416 -0.4263
11842SOL     OW40463   0.561   2.330   9.866 -0.2165 -0.4548 -0.1722
11842SOL    HW140464   0.596   2.304   9.951 -0.4080 -0.5897 -0.1353
11842SOL    HW240465   0.593   2.263   9.805  0.9368  0.2857 -0.4296
11843SOL     OW40466   3.026  11.344  11.137  0.2850  0.1462 -0.1666
11843SOL    HW140467   3.106  11.358  11.187 -0.1454 -4.2763  2.3208
11843SOL    HW240468   2.956  11.373  11.195 -0.0463  0.9539 -0.9545
11844SOL     OW40469   8.500   6.864  11.483 -0.3988 -0.3738  0.3366
11844SOL    HW140470   8.530   6.860  11.392 -1.1712 -0.1442  0.0630
11844SOL    HW240471   8.564   6.920  11.527  0.7254 -1.5503  0.2500
11845SOL     OW40472   4.734   4.353  11.154  0.1408 -0.2015 -0.3398
11845SOL    HW140473   4.695   4.335  11.068  0.1008 -2.8667  0.1582
11845SOL    HW240474   4.820   4.313  11.150  0.1419 -0.3485  0.8767
11846SOL     OW40475   3.149   7.005  10.516 -0.0033 -0.1114 -0.1380
11846SOL    HW140476   3.208   7.077  10.496 -0.1874  0.3569  0.9192
11846SOL    HW240477   3.106   6.985  10.433 -0.3537  1.3744 -0.3385
11847SOL     OW40478   3.535   8.539   9.151  0.0462  0.4104 -0.4818
11847SOL    HW140479   3.492   8.572   9.230 -0.4356 -0.2355 -0.4698
11847SOL    HW240480   3.611   8.597   9.140  1.0383 -0.4277  1.3451
11848SOL     OW40481  11.222   0.281   2.348  0.0832 -0.3029 -0.0065
11848SOL    HW140482  11.145   0.283   2.291 -1.2379 -1.6184  1.6306
11848SOL    HW240483  11.267   0.200   2.324  0.0757 -0.3485  0.1343
11849SOL     OW40484   3.293   3.313   7.461 -0.9903  0.1235 -0.1660
11849SOL    HW140485   3.198   3.307   7.464 -0.8933 -1.8865  0.9356
11849SOL    HW240486   3.321   3.230   7.422  0.2983  1.3976 -2.1555
11850SOL     OW40487   2.826   5.524   4.390 -0.1751 -0.3283 -0.7168
11850SOL    HW140488   2.831   5.505   4.484  0.4640  1.7053 -0.3013
11850SOL    HW240489   2.746   5.576   4.381  1.0707  1.6676 -0.8310
11851SOL     OW40490  10.112   5.260   2.471 -0.2408  0.2658  0.2564
11851SOL    HW140491  10.185   5.211   2.434 -0.0143 -0.2316  1.3240
11851SOL    HW240492  10.148   5.346   2.490 -0.4663  0.6605 -1.0244
11852SOL     OW40493   8.523  10.504   9.471 -0.4497 -0.4709 -0.1995
11852SOL    HW140494   8.542  10.595   9.447 -0.6567 -0.4208 -0.1785
11852SOL    HW240495   8.603  10.456   9.451 -0.4101 -0.3179 -0.4012
11853SOL     OW40496  10.212   5.514   7.125 -0.1101  0.1675  0.0558
11853SOL    HW140497  10.296   5.554   7.102 -0.3289  1.2346  1.0230
11853SOL    HW240498  10.166   5.582   7.174 -1.7259 -0.2522 -0.8088
11854SOL     OW40499   9.227  11.612   0.298 -0.7972  0.3051  0.0016
11854SOL    HW140500   9.220  11.581   0.388  1.8985 -3.7025 -0.8867
11854SOL    HW240501   9.155  11.569   0.252 -0.8693  0.5543 -0.1177
11855SOL     OW40502   1.062   5.034   4.363  0.4282 -0.0915  0.0873
11855SOL    HW140503   0.995   5.013   4.429  0.3201 -2.0599 -0.5953
11855SOL    HW240504   1.140   4.988   4.393  0.6082 -0.3164 -0.7090
11856SOL     OW40505   8.185  11.532   0.545 -0.3857 -0.5207  0.0863
11856SOL    HW140506   8.105  11.579   0.569 -0.4222  0.5913 -1.9919
11856SOL    HW240507   8.155  11.464   0.484  0.1014 -0.8993  0.2681
11857SOL     OW40508   5.665   2.091  10.972 -0.1486 -0.6818 -0.5446
11857SOL    HW140509   5.595   2.075  11.035 -1.3185  0.1614 -1.5831
11857SOL    HW240510   5.651   2.026  10.903 -3.2873  2.5291 -3.4254
11858SOL     OW40511   8.519  10.812   4.372 -0.0595  0.2523  0.4727
11858SOL    HW140512   8.494  10.880   4.309 -1.0888 -0.5813 -0.0387
11858SOL    HW240513   8.563  10.745   4.320  0.0163  0.0296  0.8181
11859SOL     OW40514   3.039   2.302   2.873  0.5694 -0.2811  0.4102
11859SOL    HW140515   3.101   2.298   2.800  0.0992  0.4334 -0.0395
11859SOL    HW240516   2.966   2.355   2.840 -0.5931 -1.6537  0.7009
11860SOL     OW40517   6.346   7.752   5.212  0.4216  0.7233  0.1236
11860SOL    HW140518   6.439   7.752   5.236  0.5781 -0.9014 -0.3779
11860SOL    HW240519   6.339   7.687   5.143 -1.1398  0.6998  0.2689
11861SOL     OW40520   4.544   0.493   8.863 -0.1119  0.4656  0.2613
11861SOL    HW140521   4.638   0.476   8.859  0.0948  1.5227  0.5213
11861SOL    HW240522   4.536   0.581   8.900 -1.2003  0.4233  0.1703
11862SOL     OW40523   0.524   0.362  10.583 -0.0817  0.1047 -0.6013
11862SOL    HW140524   0.494   0.445  10.622 -0.6726  0.3504 -1.5294
11862SOL    HW240525   0.548   0.386  10.493  1.0238 -0.4886 -0.4763
11863SOL     OW40526   5.274   5.993   9.896  0.1278  0.3788  0.3817
11863SOL    HW140527   5.360   6.035   9.896  0.5579 -0.3185 -2.3784
11863SOL    HW240528   5.232   6.026   9.976  2.8301  0.8942  1.7371
11864SOL     OW40529   7.409   1.569   4.279 -0.1498 -0.2055  0.7038
11864SOL    HW140530   7.350   1.503   4.244  0.1379  0.9946 -2.3167
11864SOL    HW240531   7.485   1.519   4.310 -1.7190 -1.5639  2.5738
11865SOL     OW40532   7.696   7.102   8.611 -0.1011  0.5866  0.4846
11865SOL    HW140533   7.774   7.081   8.560  0.9514  2.5883  1.1756
11865SOL    HW240534   7.718   7.077   8.701 -1.6859 -2.2699  0.1848
11866SOL     OW40535   9.310   3.570   2.131  0.0959 -0.5338 -0.0816
11866SOL    HW140536   9.389   3.586   2.078 -0.0950 -0.9870 -0.5020
11866SOL    HW240537   9.341   3.579   2.222  0.6173 -0.6426 -0.2426
11867SOL     OW40538  10.916   8.779   5.542  0.3878  0.1847 -0.0918
11867SOL    HW140539  10.875   8.702   5.580 -0.6781  0.7097 -0.1397
11867SOL    HW240540  10.865   8.853   5.575  1.7946  0.9462  0.5045
11868SOL     OW40541   9.930   3.849  10.379 -0.3409 -0.3021 -0.1860
11868SOL    HW140542   9.856   3.868  10.322 -0.1242  2.2965  0.2471
11868SOL    HW240543   9.891   3.824  10.463 -0.8478  1.7632  0.2694
11869SOL     OW40544   2.956  10.437   1.907  0.0716 -0.2245 -0.3384
11869SOL    HW140545   3.035  10.396   1.874 -0.6825 -0.7715 -1.5400
11869SOL    HW240546   2.899  10.364   1.932 -0.4803  0.1276 -0.5423
11870SOL     OW40547   4.118   9.124   4.103  0.1829 -0.1104 -0.7261
11870SOL    HW140548   4.213   9.122   4.091  0.2750 -4.0501 -0.4875
11870SOL    HW240549   4.082   9.117   4.014  0.3117 -2.5092 -0.6650
11871SOL     OW40550   3.422   7.654   3.392 -0.2240 -0.1226  0.3587
11871SOL    HW140551   3.454   7.587   3.452 -1.1184 -1.6109 -0.7520
11871SOL    HW240552   3.332   7.671   3.420 -0.2909 -0.0407  0.1023
11872SOL     OW40553   0.609   9.683   1.455  0.6873  0.1438  0.2149
11872SOL    HW140554   0.683   9.665   1.398  0.9622 -0.1291  0.6485
11872SOL    HW240555   0.631   9.766   1.498  0.9382 -0.1439  0.6513
11873SOL     OW40556   2.059   6.331   0.814  0.7159 -0.5774 -0.1358
11873SOL    HW140557   1.998   6.401   0.839  2.4103  1.6053 -1.7707
11873SOL    HW240558   2.105   6.309   0.894 -0.4348 -0.4748  0.5779
11874SOL     OW40559   3.364   4.620   9.579 -0.1113 -0.3217  0.0842
11874SOL    HW140560   3.272   4.645   9.570 -0.1381 -0.6196 -0.5660
11874SOL    HW240561   3.394   4.609   9.489  0.7520  0.4444  0.2702
11875SOL     OW40562   0.581   8.335   4.110  0.4995  0.7687 -0.0461
11875SOL    HW140563   0.630   8.277   4.051  0.1340  0.6805 -0.2663
11875SOL    HW240564   0.601   8.423   4.078 -1.3746  0.6722 -1.6856
11876SOL     OW40565   7.432   8.567   6.766 -0.0262 -0.8058 -0.3995
11876SOL    HW140566   7.453   8.614   6.685 -0.2591  0.4133  0.2329
11876SOL    HW240567   7.508   8.512   6.782  1.7928  1.8320  0.6184
11877SOL     OW40568  11.562  10.608   5.954 -0.2148  0.2140  0.1515
11877SOL    HW140569  11.471  10.579   5.967  0.3118 -1.7868 -0.3293
11877SOL    HW240570  11.563  10.645   5.865 -0.2383 -1.2371 -0.4747
11878SOL     OW40571   5.580   9.618   0.080  0.4284  0.2167 -1.0721
11878SOL    HW140572   5.491   9.602   0.049 -0.9074  1.6468  1.6802
11878SOL    HW240573   5.593   9.712   0.069 -0.5066  1.0306  3.1858
11879SOL     OW40574   3.091  10.493   8.083 -0.1441  0.2436 -0.7041
11879SOL    HW140575   3.073  10.571   8.135  1.6608  2.5146 -3.2445
11879SOL    HW240576   3.079  10.420   8.145  1.5123  2.6601  2.8165
11880SOL     OW40577  11.327   7.227   0.338 -0.0860  0.4549 -0.3544
11880SOL    HW140578  11.373   7.164   0.282 -2.1341 -2.0787  0.6366
11880SOL    HW240579  11.260   7.264   0.281  0.3640  0.9037 -0.6087
11881SOL     OW40580   4.931  10.360   4.198  0.2423 -0.6322 -0.1559
11881SOL    HW140581   4.844  10.319   4.197  0.6140 -1.4584  0.5121
11881SOL    HW240582   4.924  10.429   4.263  0.4193 -1.4933  0.8122
11882SOL     OW40583   6.407   9.372   4.964  0.2118 -0.0234 -0.5714
11882SOL    HW140584   6.342   9.344   5.029 -1.3077 -1.1378 -2.4825
11882SOL    HW240585   6.485   9.321   4.986 -0.1034 -0.0078  0.6601
11883SOL     OW40586   4.803   4.142   2.054 -0.4192  0.3405  0.0586
11883SOL    HW140587   4.879   4.200   2.066 -0.1779  0.0091  0.1541
11883SOL    HW240588   4.833   4.057   2.085 -1.4592  0.6269  1.9892
11884SOL     OW40589   5.687   8.743   2.962  0.0517  0.4099  0.0136
11884SOL    HW140590   5.739   8.690   3.022 -0.6710 -0.6130 -0.2282
11884SOL    HW240591   5.598   8.709   2.971  0.0016 -0.1409 -2.0139
11885SOL     OW40592  10.015  11.184   8.944  0.5036  0.3888  0.2042
11885SOL    HW140593   9.968  11.237   9.008  1.9183  2.8919 -0.7168
11885SOL    HW240594  10.086  11.240   8.912  0.9964 -1.4068 -2.1951
11886SOL     OW40595   7.781   6.563   3.952  0.6499 -0.0515 -0.0838
11886SOL    HW140596   7.855   6.543   3.894 -0.0480  0.0121 -1.0016
11886SOL    HW240597   7.817   6.551   4.040  1.9898  0.7517 -0.4877
11887SOL     OW40598   4.573   6.135   4.330 -0.4731 -0.0066  0.3491
11887SOL    HW140599   4.625   6.196   4.380 -0.2826 -0.3717  0.6010
11887SOL    HW240600   4.637   6.084   4.280 -0.6925  0.8988 -0.9111
11888SOL     OW40601   4.745  10.298   1.916  0.0740 -0.6780  0.0905
11888SOL    HW140602   4.770  10.260   1.832 -0.1361 -1.4283  0.3578
11888SOL    HW240603   4.693  10.230   1.959 -1.6429  0.4969 -0.0480
11889SOL     OW40604   4.502   3.421   6.985 -0.1303 -0.1244  0.4324
11889SOL    HW140605   4.520   3.401   6.893  0.2122 -0.5364  0.5801
11889SOL    HW240606   4.498   3.335   7.027  0.1192  0.0748  0.8739
11890SOL     OW40607   0.329   4.875   7.662 -0.0799  0.2467 -0.3240
11890SOL    HW140608   0.327   4.838   7.574  1.3841  0.5347 -0.5186
11890SOL    HW240609   0.410   4.840   7.700 -0.1967  0.8929  0.5463
11891SOL     OW40610   0.540   9.064   2.193  0.4213 -0.5290 -0.3526
11891SOL    HW140611   0.582   9.150   2.203  0.0545 -0.2184 -1.3828
11891SOL    HW240612   0.579   9.011   2.262  2.1932 -0.1303 -0.9981
11892SOL     OW40613   3.034   0.139  10.746 -0.3308 -0.1547 -0.2565
11892SOL    HW140614   2.948   0.180  10.760  0.9118  2.5714 -0.0061
11892SOL    HW240615   3.089   0.175  10.815  1.1685 -1.4481 -0.7404
11893SOL     OW40616   1.859   8.461   7.057 -0.5378  0.7540  0.1022
11893SOL    HW140617   1.830   8.499   7.140 -2.1817  0.4730 -0.2992
11893SOL    HW240618   1.795   8.392   7.039  0.5229 -0.0286 -0.7868
11894SOL     OW40619   4.436  11.620   3.493  0.1444  0.2195  0.0242
11894SOL    HW140620   4.484  11.699   3.518 -0.9788  0.8138  0.3490
11894SOL    HW240621   4.406  11.583   3.576  1.4118 -1.0665 -0.0480
11895SOL     OW40622   0.059   0.863   3.561 -0.7338  0.0900 -0.0950
11895SOL    HW140623   0.077   0.922   3.488  0.1141  3.2061  2.4082
11895SOL    HW240624   0.132   0.875   3.621 -1.3986 -2.2992  1.3332
11896SOL     OW40625  10.152   1.092  10.753  0.0006 -0.1180 -0.1849
11896SOL    HW140626  10.153   1.172  10.806  3.9465  1.0077 -1.6225
11896SOL    HW240627  10.086   1.108  10.686  0.2790  1.7055 -0.0715
11897SOL     OW40628   9.025   4.121   0.025 -0.3483 -0.6071 -0.8366
11897SOL    HW140629   9.055   4.104  -0.065  0.1901 -2.3101 -0.3634
11897SOL    HW240630   9.106   4.124   0.076 -0.7323 -0.8563 -0.2155
11898SOL     OW40631   4.995   7.509   2.573 -0.2813 -0.2490 -0.3449
11898SOL    HW140632   5.017   7.525   2.481 -0.1216  3.0991  0.1538
11898SOL    HW240633   5.048   7.433   2.598 -0.2450 -1.1784 -2.9208
11899SOL     OW40634   3.905   0.320   5.590 -0.5618  0.0169 -0.3089
11899SOL    HW140635   3.885   0.394   5.647 -1.3846 -0.5003  0.1129
11899SOL    HW240636   3.820   0.278   5.575 -0.1368 -0.7471 -0.6685
11900SOL     OW40637   0.120   8.800   3.810 -0.2275  0.5455 -0.6429
11900SOL    HW140638   0.213   8.779   3.819  0.4013  2.9666 -0.6450
11900SOL    HW240639   0.080   8.768   3.891  0.6806 -0.1278 -0.4418
11901SOL     OW40640   1.372   3.048   6.864  0.0784  0.2032 -0.2834
11901SOL    HW140641   1.415   2.992   6.928  0.6947  0.6474 -0.3049
11901SOL    HW240642   1.326   3.113   6.916  1.1089  0.9576 -0.2857
11902SOL     OW40643   4.593   8.906   5.379 -0.1383 -0.2822 -0.0145
11902SOL    HW140644   4.561   8.973   5.319 -1.0535 -0.6378  0.0569
11902SOL    HW240645   4.621   8.954   5.457  0.2337  0.1070 -0.3855
11903SOL     OW40646   9.529   2.321   2.384 -0.4573 -0.0545 -0.0862
11903SOL    HW140647   9.443   2.362   2.378  0.3998  2.2091  1.6277
11903SOL    HW240648   9.523   2.263   2.461 -0.1863  0.9328  0.7018
11904SOL     OW40649   8.328   3.458  10.186 -0.5078  0.6131 -0.3563
11904SOL    HW140650   8.400   3.412  10.228  0.1047  0.3365 -1.6557
11904SOL    HW240651   8.301   3.524  10.249 -2.0439 -2.0374  1.9974
11905SOL     OW40652   7.689   4.296   9.580  0.4022  0.1599 -0.0281
11905SOL    HW140653   7.742   4.306   9.501 -0.0842  2.6870 -0.1398
11905SOL    HW240654   7.599   4.304   9.549 -0.0066 -2.0358  0.4304
11906SOL     OW40655   3.958   8.037   6.016  0.4031  0.1742 -0.1653
11906SOL    HW140656   3.909   7.960   6.047 -0.0730 -0.1264 -1.5755
11906SOL    HW240657   4.001   8.071   6.094 -0.3776 -0.7999  0.7250
11907SOL     OW40658   3.886  10.201   2.905  0.0560  0.3556  0.0985
11907SOL    HW140659   3.869  10.285   2.948  1.5773  0.4498  0.5461
11907SOL    HW240660   3.967  10.169   2.945 -0.0700 -0.9484 -0.6420
11908SOL     OW40661   0.987   3.736   4.064  0.0167  0.0418  0.2411
11908SOL    HW140662   0.976   3.646   4.032  0.3936  0.3760 -0.8692
11908SOL    HW240663   1.081   3.751   4.060 -0.0745  0.5908  0.1625
11909SOL     OW40664   2.934   2.694  10.396  0.4768 -0.0815  0.2575
11909SOL    HW140665   2.998   2.632  10.431 -0.0752  0.4439  2.3859
11909SOL    HW240666   2.983   2.776  10.388  0.5213 -0.1243  0.0795
11910SOL     OW40667  11.416   4.291   1.671 -0.2421  0.1653  0.1309
11910SOL    HW140668  11.415   4.381   1.638  0.7990 -0.2109 -1.0302
11910SOL    HW240669  11.390   4.238   1.596  2.2139 -0.7259 -0.2005
11911SOL     OW40670   5.556   1.216   4.089 -0.0506  0.1263  0.1394
11911SOL    HW140671   5.537   1.213   4.183  1.4411  0.1863  0.4730
11911SOL    HW240672   5.538   1.128   4.058 -0.4787  0.0832  0.4933
11912SOL     OW40673   0.546   9.249   4.594  0.2294 -0.3814 -0.4817
11912SOL    HW140674   0.541   9.342   4.570  0.5523 -0.3630 -0.4807
11912SOL    HW240675   0.490   9.241   4.672 -0.4872 -0.3610 -0.9925
11913SOL     OW40676  11.624   5.679   8.335  0.3382 -0.2892 -0.2042
11913SOL    HW140677  11.557   5.614   8.356  1.4095 -0.8276  1.7962
11913SOL    HW240678  11.666   5.698   8.419  1.1780  1.7528 -1.0249
11914SOL     OW40679   9.949   6.302   4.858 -0.4117 -0.3721 -0.1759
11914SOL    HW140680   9.956   6.364   4.785  0.5113 -2.0049 -1.5447
11914SOL    HW240681   9.877   6.245   4.834  0.7091 -1.7200 -0.5042
11915SOL     OW40682   2.353   2.275   1.136 -0.3821  0.2007  0.0158
11915SOL    HW140683   2.441   2.265   1.102 -0.6922  1.8117 -1.4000
11915SOL    HW240684   2.295   2.256   1.062 -1.1183  2.0570  0.0469
11916SOL     OW40685   4.001   6.744   4.774 -0.1542 -0.0301  0.4509
11916SOL    HW140686   3.912   6.775   4.758 -0.6937 -0.9846  1.4460
11916SOL    HW240687   4.030   6.710   4.689 -0.3643  1.1515 -0.1080
11917SOL     OW40688   9.541   4.000   9.325  0.2102  0.1351  0.2817
11917SOL    HW140689   9.484   4.011   9.401 -0.0597  0.3746  0.0470
11917SOL    HW240690   9.565   3.908   9.326 -1.5526 -0.3858 -0.5619
11918SOL     OW40691  10.981   6.655   4.153 -0.0324 -0.1771  0.2686
11918SOL    HW140692  11.018   6.567   4.140  0.4459 -0.1472  1.3532
11918SOL    HW240693  11.015   6.706   4.079 -1.0298 -1.1077 -0.8740
11919SOL     OW40694   2.966   7.215   5.653 -0.9826 -0.3015 -0.3423
11919SOL    HW140695   2.897   7.218   5.719 -1.0510 -2.2553 -0.2707
11919SOL    HW240696   2.990   7.123   5.648 -0.7982 -0.1781 -2.8736
11920SOL     OW40697   7.278   1.551   0.739 -0.6185 -0.1253  0.3441
11920SOL    HW140698   7.298   1.608   0.813 -0.9486  2.6492 -1.5686
11920SOL    HW240699   7.183   1.557   0.730 -0.4592  0.5870 -1.0352
11921SOL     OW40700   9.382  10.219   9.108 -0.1187  0.3065  0.7038
11921SOL    HW140701   9.308  10.262   9.151  0.3457  0.0161  1.8394
11921SOL    HW240702   9.459  10.254   9.153  0.3119 -1.1248  1.1459
11922SOL     OW40703   0.994   9.134   2.403  0.2194  0.2773  0.1179
11922SOL    HW140704   0.957   9.121   2.316 -1.0119  1.0561  0.4861
11922SOL    HW240705   1.060   9.201   2.392  1.5505 -1.0845 -0.5479
11923SOL     OW40706  11.356   0.823   3.078  0.0158  0.2429 -0.4864
11923SOL    HW140707  11.441   0.847   3.043  0.9286 -2.6580 -0.5454
11923SOL    HW240708  11.373   0.795   3.168 -1.2106  1.3327  0.1201
11924SOL     OW40709  10.880   4.914   7.205  0.6792 -0.1283  0.3856
11924SOL    HW140710  10.957   4.937   7.153 -0.1450  2.0226  0.0292
11924SOL    HW240711  10.853   4.829   7.172  0.0064  1.2672 -3.0398
11925SOL     OW40712   0.904   7.860  11.483  0.0661  0.2808  0.3248
11925SOL    HW140713   0.975   7.831  11.425 -1.4746  0.2326 -1.6294
11925SOL    HW240714   0.931   7.831  11.570  1.8128 -0.8921 -0.5530
11926SOL     OW40715   4.951   7.095   6.688 -0.0361 -0.0372 -0.3628
11926SOL    HW140716   4.998   7.088   6.771 -1.7868  0.0191  0.6868
11926SOL    HW240717   4.948   7.005   6.655 -2.8767 -0.8807  1.7667
11927SOL     OW40718   3.624   3.655   7.498  0.2394 -0.2797  0.2225
11927SOL    HW140719   3.543   3.616   7.465 -0.0589  0.4757  0.0385
11927SOL    HW240720   3.685   3.581   7.506 -0.2699 -0.7585 -0.2337
11928SOL     OW40721  11.034   9.329   0.699  0.1877 -0.2827  0.2667
11928SOL    HW140722  11.093   9.402   0.717  0.2741 -0.4142  0.5144
11928SOL    HW240723  10.991   9.312   0.783  0.2337 -0.5739  0.2327
11929SOL     OW40724   6.368   8.695  10.899 -0.8752  0.3854 -0.0064
11929SOL    HW140725   6.415   8.765  10.945 -0.1960 -0.8245  1.2062
11929SOL    HW240726   6.288   8.737  10.867 -0.5260  1.6966  0.7661
11930SOL     OW40727   3.297   1.803   8.863 -0.1930  0.5064  0.5554
11930SOL    HW140728   3.284   1.856   8.942  1.0730  0.1644  1.0174
11930SOL    HW240729   3.213   1.808   8.817 -0.3142  2.3654  0.9029
11931SOL     OW40730   1.640   2.269  11.022  0.5817 -0.0838  0.0695
11931SOL    HW140731   1.658   2.352  11.066  0.9322 -0.3986  0.5290
11931SOL    HW240732   1.555   2.282  10.980 -0.1726 -0.0658  1.5650
11932SOL     OW40733   1.729   8.122   7.171 -0.7386 -0.0128  0.1568
11932SOL    HW140734   1.658   8.185   7.167 -0.6826  0.0470  0.1022
11932SOL    HW240735   1.766   8.121   7.083 -0.4354  0.2314  0.2797
11933SOL     OW40736   9.792   1.216   0.015 -0.2550 -0.3735 -0.2376
11933SOL    HW140737   9.714   1.232  -0.038 -0.3770 -0.8675 -0.2135
11933SOL    HW240738   9.765   1.235   0.105 -0.9280 -2.3549  0.0301
11934SOL     OW40739   7.355   8.693   4.063 -0.1735  0.0429  0.2019
11934SOL    HW140740   7.404   8.701   3.981  1.0398 -1.2181  0.7599
11934SOL    HW240741   7.422   8.677   4.129 -1.1598  0.7625  1.4086
11935SOL     OW40742   9.608   0.929  10.052 -0.4070  0.1117  0.0221
11935SOL    HW140743   9.697   0.948  10.023 -0.3741 -0.6596 -0.4260
11935SOL    HW240744   9.619   0.894  10.141 -0.1845 -0.6033 -0.2742
11936SOL     OW40745   3.944   7.082   3.477  0.2080 -0.0131  0.2397
11936SOL    HW140746   3.928   7.093   3.383 -2.1854  3.7692  0.8674
11936SOL    HW240747   3.869   7.031   3.507  0.1829  0.0521  0.2873
11937SOL     OW40748   5.523   2.536   3.840 -0.5014  0.3532 -0.6274
11937SOL    HW140749   5.569   2.506   3.761 -1.2542 -1.0574 -0.5558
11937SOL    HW240750   5.516   2.458   3.895  0.3693  1.3915  1.0418
11938SOL     OW40751   6.487   7.475   6.037  0.4651  0.2378 -0.4028
11938SOL    HW140752   6.510   7.504   6.125  0.3730  0.5036 -0.4644
11938SOL    HW240753   6.504   7.381   6.037 -2.7450 -0.4528  0.9707
11939SOL     OW40754   4.920   2.852   6.928 -0.5447  0.5565 -0.0526
11939SOL    HW140755   4.921   2.769   6.880  0.0096  0.4225  0.1804
11939SOL    HW240756   4.982   2.839   7.000 -1.3406  0.7620  0.6958
11940SOL     OW40757   8.291   1.237   2.561  0.0211  0.0339 -0.1572
11940SOL    HW140758   8.277   1.319   2.512  1.2836  0.6358  0.4334
11940SOL    HW240759   8.356   1.190   2.509  0.6187  0.2209  0.4076
11941SOL     OW40760  10.809   3.473   2.445  0.0213 -0.2592  0.3135
11941SOL    HW140761  10.897   3.443   2.468  0.4073  0.4940 -0.1285
11941SOL    HW240762  10.811   3.486   2.351 -0.4104  0.2448  0.3664
11942SOL     OW40763   7.622   3.797   9.230  0.3064 -0.1090  0.1836
11942SOL    HW140764   7.578   3.877   9.260  1.7475  0.6754  0.2860
11942SOL    HW240765   7.559   3.757   9.170 -0.0514  1.6466 -0.6991
11943SOL     OW40766   4.181   7.537   8.893  0.4365  0.3029 -0.1660
11943SOL    HW140767   4.096   7.567   8.924 -0.2976 -1.0068 -0.8249
11943SOL    HW240768   4.200   7.460   8.947  0.6361 -0.1054 -0.8055
11944SOL     OW40769   0.899   5.576   5.723 -0.6141 -0.2785  0.0573
11944SOL    HW140770   0.885   5.559   5.816 -0.5352 -3.0131 -0.3454
11944SOL    HW240771   0.938   5.495   5.689 -0.9245  0.5123 -2.4212
11945SOL     OW40772   0.601   5.248   9.520  0.0036  0.3204 -0.2705
11945SOL    HW140773   0.541   5.285   9.455  0.3058  0.4123 -0.5038
11945SOL    HW240774   0.545   5.201   9.581 -0.4227  1.4982  0.2604
11946SOL     OW40775   1.432   8.069   9.705  0.0003  0.4359  0.3633
11946SOL    HW140776   1.350   8.099   9.744  0.3008  1.2716  0.3690
11946SOL    HW240777   1.461   8.142   9.651  0.9636  0.3217  0.7046
11947SOL     OW40778   2.591   1.971   2.629  0.4564 -0.0115  0.8305
11947SOL    HW140779   2.585   2.028   2.553  2.2739 -1.5201 -0.5708
11947SOL    HW240780   2.681   1.982   2.660  0.3913 -1.0115  1.4203
11948SOL     OW40781   2.191   9.576   5.586  0.0665 -0.3070  0.0700
11948SOL    HW140782   2.219   9.504   5.528 -0.0056  0.5502 -1.0635
11948SOL    HW240783   2.123   9.537   5.641 -0.5213 -0.9094 -1.0514
11949SOL     OW40784   2.468   0.551  10.445 -0.2001  0.2769  0.2910
11949SOL    HW140785   2.440   0.633  10.405 -0.7685 -0.0796 -0.0520
11949SOL    HW240786   2.564   0.556  10.445 -0.2092  0.5687 -0.4963
11950SOL     OW40787  10.774   5.496   7.605 -0.2290  0.1189  0.2093
11950SOL    HW140788  10.827   5.425   7.640  0.3041  0.4302  0.0365
11950SOL    HW240789  10.836   5.551   7.557 -0.8803 -0.1127 -0.9353
11951SOL     OW40790   3.616   9.417   5.052  0.0875 -0.0640  0.6279
11951SOL    HW140791   3.618   9.342   4.992  0.8156 -0.5172  1.1894
11951SOL    HW240792   3.663   9.486   5.005 -1.4987  0.4070 -0.3289
11952SOL     OW40793   7.749   9.806   6.776 -0.1891  0.2989  0.3611
11952SOL    HW140794   7.662   9.829   6.810 -0.5763 -1.6126  0.7616
11952SOL    HW240795   7.756   9.712   6.789  1.3306  0.1531 -1.1144
11953SOL     OW40796  11.369   4.978   1.332  0.7242  0.4417  0.0812
11953SOL    HW140797  11.343   4.886   1.331  1.0401  0.3382  0.9196
11953SOL    HW240798  11.315   5.019   1.264  0.5711 -0.3543 -0.2889
11954SOL     OW40799   6.307   2.180   4.012 -0.1758  0.0221  0.0047
11954SOL    HW140800   6.402   2.193   4.001 -0.3919  1.2591 -0.5628
11954SOL    HW240801   6.268   2.233   3.943 -1.3120  0.0815  0.6743
11955SOL     OW40802   5.081   6.518   2.882 -0.0242  0.1652 -0.3322
11955SOL    HW140803   5.057   6.474   2.963 -0.8057  0.6610 -0.2810
11955SOL    HW240804   5.008   6.502   2.823  0.4657 -0.0570 -0.8939
11956SOL     OW40805   7.056   8.588   9.049 -0.2954 -0.5141  0.1462
11956SOL    HW140806   7.135   8.627   9.011  0.1029 -2.1075 -0.7624
11956SOL    HW240807   7.005   8.662   9.081  0.6747  0.6947 -1.0126
11957SOL     OW40808   8.870   2.954   9.378 -0.4436  0.2496 -0.5234
11957SOL    HW140809   8.845   2.873   9.422  1.9814 -0.3036 -0.0214
11957SOL    HW240810   8.900   2.925   9.291  1.6336  0.3547  0.0938
11958SOL     OW40811   7.522   2.622   9.609 -0.6136  0.4125 -0.1983
11958SOL    HW140812   7.483   2.634   9.522 -0.4332 -1.0944 -0.5189
11958SOL    HW240813   7.461   2.565   9.655  0.2760 -0.4608 -0.0634
11959SOL     OW40814   2.021   8.788  11.586 -0.7469 -0.2716 -0.6417
11959SOL    HW140815   2.097   8.746  11.624 -0.2200 -0.6659 -2.0785
11959SOL    HW240816   1.952   8.777  11.652  0.1125 -0.9228  0.1743
11960SOL     OW40817   7.073   1.301   1.586  0.0386 -0.1974  0.4263
11960SOL    HW140818   7.042   1.371   1.642  2.3821  0.2446  1.2671
11960SOL    HW240819   7.071   1.338   1.497  1.6097  1.1024  0.8987
11961SOL     OW40820   6.509   6.133  10.818 -0.3400  0.4550  0.7489
11961SOL    HW140821   6.480   6.060  10.872 -0.7076 -1.4826 -1.8441
11961SOL    HW240822   6.578   6.176  10.869  1.1027 -2.7609  1.7433
11962SOL     OW40823   0.531   5.410   3.448  0.2277  0.2497  0.4384
11962SOL    HW140824   0.460   5.364   3.403  0.9296  0.0001 -0.4389
11962SOL    HW240825   0.515   5.502   3.429  0.4105  0.1603 -0.1926
11963SOL     OW40826  11.241   4.120   8.971 -0.0152  0.2404  0.2028
11963SOL    HW140827  11.168   4.059   8.959  0.1122  0.3164 -0.9801
11963SOL    HW240828  11.198   4.205   8.982 -0.1071  0.5609 -2.1526
11964SOL     OW40829   5.961   6.706  11.584 -0.1114  0.3797  0.6371
11964SOL    HW140830   6.016   6.731  11.658 -0.9737  1.8334  0.8257
11964SOL    HW240831   5.875   6.689  11.623 -0.6685  1.5193 -0.0424
11965SOL     OW40832   9.131   1.036   0.403 -0.4614  0.0885  0.3338
11965SOL    HW140833   9.220   1.042   0.370 -0.3915  0.4901  0.5846
11965SOL    HW240834   9.087   1.114   0.367  0.4104  2.2681  3.5652
11966SOL     OW40835   3.350   5.060   1.064 -0.5347  0.0635  0.1016
11966SOL    HW140836   3.426   5.117   1.054 -0.3121  0.0310  1.3965
11966SOL    HW240837   3.343   5.014   0.980  1.2225 -0.3457  0.1376
11967SOL     OW40838   4.989   0.056   8.571 -0.3500  0.4886 -0.0781
11967SOL    HW140839   5.054  -0.013   8.586  1.1072  1.6669 -0.7594
11967SOL    HW240840   5.035   0.122   8.519 -2.1908  1.2388 -0.8418
11968SOL     OW40841   3.221   8.677   5.012 -0.0822 -0.8217 -0.0944
11968SOL    HW140842   3.218   8.617   5.087  0.1959 -1.1700 -0.3570
11968SOL    HW240843   3.275   8.750   5.041  0.0311 -0.9598  0.0443
11969SOL     OW40844   2.336   3.173   3.115 -0.2288 -0.5038  0.8369
11969SOL    HW140845   2.353   3.154   3.023 -1.7561  1.5497  0.0692
11969SOL    HW240846   2.338   3.269   3.121 -1.2432 -0.5486  2.7097
11970SOL     OW40847   0.725   5.731   2.004 -0.1597  0.3879 -0.2441
11970SOL    HW140848   0.697   5.671   1.935 -0.7665  0.4082 -0.0289
11970SOL    HW240849   0.771   5.676   2.068 -0.6778  0.1517 -0.0675
11971SOL     OW40850  10.581   1.567  10.170 -0.4575 -0.3980 -0.0839
11971SOL    HW140851  10.580   1.601  10.080  1.2374 -0.1185 -0.0255
11971SOL    HW240852  10.599   1.644  10.224 -2.3216 -0.4022  0.6173
11972SOL     OW40853  11.602   5.198   0.770  0.8683 -0.5880  0.3061
11972SOL    HW140854  11.635   5.124   0.718  0.1294 -0.4356 -0.4049
11972SOL    HW240855  11.670   5.214   0.835  0.9205 -2.0588  0.6344
11973SOL     OW40856   0.671   9.724   8.085  0.4566 -0.6952  0.1568
11973SOL    HW140857   0.718   9.807   8.083 -1.2234  0.2821 -1.4956
11973SOL    HW240858   0.684   9.687   7.998  1.1751 -2.1975  0.8666
11974SOL     OW40859  11.192   8.997   0.578  0.6372 -0.3053  0.0929
11974SOL    HW140860  11.191   9.065   0.511 -0.5740 -0.0245  0.3811
11974SOL    HW240861  11.268   8.943   0.555  1.0887  0.6068 -0.6611
11975SOL     OW40862   0.904   6.653   7.483  0.2960 -0.0592 -0.0601
11975SOL    HW140863   0.824   6.672   7.531 -0.5545 -0.1302 -1.3980
11975SOL    HW240864   0.884   6.574   7.432  1.0165  0.2333 -0.8331
11976SOL     OW40865   6.890   9.076   5.220  0.0692 -0.0803  0.7190
11976SOL    HW140866   6.969   9.049   5.173 -0.0606 -1.9458  1.4919
11976SOL    HW240867   6.915   9.072   5.313 -0.7961 -0.2414  0.9534
11977SOL     OW40868   4.763  11.130   4.786 -0.1175  0.2678  0.3586
11977SOL    HW140869   4.780  11.054   4.841 -1.8420 -0.1024  0.4296
11977SOL    HW240870   4.669  11.146   4.795 -0.0970  1.3453 -1.0106
11978SOL     OW40871   1.910   8.684   2.001  0.1407 -0.5172  0.6778
11978SOL    HW140872   1.934   8.619   2.067 -0.6996 -1.7473 -0.1960
11978SOL    HW240873   1.852   8.638   1.941  0.2781  0.7798 -0.5111
11979SOL     OW40874   0.455  10.001   3.646  0.3175  0.1444  0.3365
11979SOL    HW140875   0.417   9.922   3.608  1.6290 -0.1023 -0.5372
11979SOL    HW240876   0.404  10.017   3.726  0.9883 -2.4960  1.4044
11980SOL     OW40877   4.238   7.124  10.407  0.4606 -0.5892 -0.3871
11980SOL    HW140878   4.231   7.219  10.401  3.3292 -0.3411 -1.2827
11980SOL    HW240879   4.258   7.107  10.500 -2.6954 -0.6650  0.3956
11981SOL     OW40880   1.301   0.699   0.952  0.0727  0.3806 -0.1441
11981SOL    HW140881   1.337   0.702   0.863 -0.2572 -2.0062 -0.4286
11981SOL    HW240882   1.370   0.735   1.008  1.3561 -0.5109 -1.0994
11982SOL     OW40883   8.512  11.025   9.357 -0.1274  0.0237 -0.5626
11982SOL    HW140884   8.490  11.118   9.350 -1.3957 -0.1335  0.7600
11982SOL    HW240885   8.500  11.005   9.450  3.1957 -0.7581 -0.1759
11983SOL     OW40886   9.308   8.621   9.398 -0.1249 -0.2152  0.5234
11983SOL    HW140887   9.378   8.595   9.458  0.9612  1.0055 -0.1576
11983SOL    HW240888   9.275   8.539   9.362  1.4781 -0.7830  0.2853
11984SOL     OW40889   9.477   4.503   2.728  0.4030  0.1180 -0.3946
11984SOL    HW140890   9.437   4.564   2.667  0.1624 -1.1233 -1.5375
11984SOL    HW240891   9.542   4.456   2.675  0.3341 -0.8409  0.3487
11985SOL     OW40892  10.577   8.688   8.841 -0.4035  0.6987  0.2077
11985SOL    HW140893  10.574   8.620   8.908 -0.0869  0.9760  0.5087
11985SOL    HW240894  10.546   8.645   8.762  1.9344 -0.4508 -0.1622
11986SOL     OW40895   1.358   8.044  10.631 -0.4976 -0.1467 -0.1833
11986SOL    HW140896   1.449   8.015  10.638 -0.6177 -1.0950 -1.8697
11986SOL    HW240897   1.363   8.125  10.581 -0.6393 -0.8521 -1.3788
11987SOL     OW40898   4.331  11.344   5.651  0.0577 -0.4644  0.1176
11987SOL    HW140899   4.295  11.423   5.691  1.5503 -1.4736  3.8589
11987SOL    HW240900   4.268  11.320   5.583 -0.8275  3.4259 -0.6519
11988SOL     OW40901   9.451   9.127   6.775 -0.6767 -0.6387  0.1887
11988SOL    HW140902   9.384   9.097   6.714  0.2252 -0.9282 -0.6890
11988SOL    HW240903   9.529   9.138   6.721  0.0572 -0.5597  1.2366
11989SOL     OW40904   4.623   8.652   7.738 -0.3041 -0.1069  0.9642
11989SOL    HW140905   4.638   8.739   7.773 -0.4648  0.6407 -0.7248
11989SOL    HW240906   4.706   8.627   7.697  0.1889 -1.3726  2.6272
11990SOL     OW40907   4.865   5.694   9.056 -0.1774  0.0477  0.0791
11990SOL    HW140908   4.851   5.632   9.128  1.1385 -3.0800 -2.1197
11990SOL    HW240909   4.781   5.697   9.011 -0.5680  0.7979  0.8411
11991SOL     OW40910   1.538   3.299   9.608 -0.6204 -0.2980  0.2061
11991SOL    HW140911   1.555   3.280   9.516 -0.1550 -0.6817  0.3685
11991SOL    HW240912   1.624   3.297   9.650 -0.3297  3.1989  0.0879
11992SOL     OW40913   6.851  11.587   7.441  0.7626  0.4818  0.0510
11992SOL    HW140914   6.834  11.494   7.430  1.0708  0.5746 -1.4363
11992SOL    HW240915   6.770  11.623   7.477 -0.4683  0.1160 -2.2058
11993SOL     OW40916   4.441   7.588   0.498  0.1943  0.4692 -0.4547
11993SOL    HW140917   4.479   7.590   0.586  0.4840  0.8298 -0.5911
11993SOL    HW240918   4.366   7.647   0.503  1.2412  1.8718 -0.9318
11994SOL     OW40919   0.991   5.377  10.131  0.1841  0.2950  0.3198
11994SOL    HW140920   0.972   5.294  10.175  0.7633 -0.0277 -0.0171
11994SOL    HW240921   1.076   5.404  10.166  0.8052 -0.1222 -0.7985
11995SOL     OW40922   0.555   3.695   4.712 -0.0549  0.3782  0.0474
11995SOL    HW140923   0.594   3.628   4.657  0.7138  0.7047  0.1809
11995SOL    HW240924   0.549   3.655   4.799  1.0782  0.7146  0.2944
11996SOL     OW40925   7.077   8.310  10.064  0.3444 -0.4111 -0.7689
11996SOL    HW140926   7.098   8.298  10.157 -0.2190  0.6141 -0.4934
11996SOL    HW240927   7.160   8.332  10.023  0.4240  0.1456 -0.3183
11997SOL     OW40928   1.369   6.107   3.325 -0.0946 -0.3410  0.2414
11997SOL    HW140929   1.383   6.022   3.284 -1.2374 -0.3267 -0.2240
11997SOL    HW240930   1.313   6.088   3.401 -1.1694  0.0879 -0.4141
11998SOL     OW40931   2.484  11.538   9.085 -0.2201  0.4059 -0.3629
11998SOL    HW140932   2.498  11.633   9.092 -0.9949  0.3985  2.8340
11998SOL    HW240933   2.565  11.505   9.048  0.4709  2.2274 -0.6047
11999SOL     OW40934   5.957  10.708   3.179  0.6735 -0.4509 -0.5843
11999SOL    HW140935   6.011  10.687   3.255  0.6819 -0.4231 -0.5823
11999SOL    HW240936   5.938  10.802   3.188  2.2723  0.0053 -1.6193
12000SOL     OW40937   5.843   8.791   8.015 -0.0664 -0.5744 -0.2409
12000SOL    HW140938   5.907   8.826   8.076  0.5409 -0.3756 -0.9806
12000SOL    HW240939   5.785   8.865   7.995  0.2403 -0.4180 -0.5526
12001SOL     OW40940   5.212   2.225   4.464 -0.3819  0.0553 -0.2095
12001SOL    HW140941   5.174   2.276   4.392 -0.6533  0.6494  0.3463
12001SOL    HW240942   5.155   2.149   4.471 -0.1469 -0.1910 -0.8549
12002SOL     OW40943   4.422  10.824  11.430  0.1016  0.3863 -0.3075
12002SOL    HW140944   4.398  10.898  11.373 -0.4073 -1.1257 -2.1457
12002SOL    HW240945   4.518  10.822  11.426  0.0744 -0.9851 -3.0116
12003SOL     OW40946   3.857   0.478   1.439 -0.3666  0.6068  0.7031
12003SOL    HW140947   3.902   0.511   1.517  0.0787  0.2850  0.5927
12003SOL    HW240948   3.830   0.556   1.392  1.7731  0.8863 -0.1963
12004SOL     OW40949   4.359   1.205   0.431  0.4166 -0.4770 -0.0423
12004SOL    HW140950   4.416   1.282   0.426  1.7384 -1.3808  0.3734
12004SOL    HW240951   4.270   1.240   0.424  0.9435  1.1725  0.9271
12005SOL     OW40952   3.105   7.634   6.339  0.1679  0.1131 -0.3903
12005SOL    HW140953   3.034   7.643   6.275 -0.4602  0.3393  0.3302
12005SOL    HW240954   3.073   7.570   6.403  1.2587 -1.0022 -0.9116
12006SOL     OW40955   6.476   8.053   9.037 -0.2476  0.1087  0.2111
12006SOL    HW140956   6.428   8.040   9.119  0.5130 -0.9393  0.4995
12006SOL    HW240957   6.448   7.980   8.982 -0.8788  0.8973 -0.5416
12007SOL     OW40958  10.970   6.947   6.270  0.1072  0.3551 -0.1834
12007SOL    HW140959  10.937   7.007   6.336  0.6469  1.8740 -1.2428
12007SOL    HW240960  11.007   6.874   6.320  0.5566  1.4831  1.1806
12008SOL     OW40961  10.024   3.555   4.243 -0.0206  0.4615  0.5728
12008SOL    HW140962  10.102   3.526   4.290  0.5426  0.0086 -0.6114
12008SOL    HW240963  10.056   3.582   4.157 -1.0517  1.1271  0.3748
12009SOL     OW40964   2.881   7.294   2.596 -0.0178 -0.0405 -0.2378
12009SOL    HW140965   2.948   7.362   2.604  0.9591 -1.1477  2.6017
12009SOL    HW240966   2.841   7.309   2.511  3.0832  1.3749 -1.6251
12010SOL     OW40967   1.493   8.320  10.580  0.2505  0.2977 -1.0113
12010SOL    HW140968   1.559   8.378  10.543  0.5788  0.9813  0.5471
12010SOL    HW240969   1.409   8.355  10.550  0.4335  1.7424  0.0520
12011SOL     OW40970   4.867   0.921   4.340  0.1987  0.4948 -0.4452
12011SOL    HW140971   4.824   0.962   4.265 -0.7161 -1.3129 -0.9831
12011SOL    HW240972   4.926   0.988   4.374 -1.9190  2.5865 -0.6264
12012SOL     OW40973   5.380   4.349   5.058  0.4459 -0.1953  0.1762
12012SOL    HW140974   5.354   4.263   5.092 -2.7927  1.0372  1.1793
12012SOL    HW240975   5.439   4.384   5.124  2.7010 -2.0005 -0.7704
12013SOL     OW40976   6.946   1.660   6.958  0.5700 -0.0592  0.2469
12013SOL    HW140977   6.930   1.739   7.009  0.9251  0.6651 -0.7211
12013SOL    HW240978   6.948   1.589   7.022 -1.3596  0.4736  0.9819
12014SOL     OW40979  11.046   6.106   4.502  0.3879  0.7956 -0.4840
12014SOL    HW140980  10.955   6.135   4.509  0.5533  1.0815  0.5808
12014SOL    HW240981  11.042   6.026   4.449 -0.4090  1.1377 -0.9479
12015SOL     OW40982   6.198   2.814   0.879  0.1388 -0.7403  0.5537
12015SOL    HW140983   6.146   2.865   0.818 -0.6812  0.3783  2.1089
12015SOL    HW240984   6.281   2.861   0.885  0.4524 -1.1885 -0.1189
12016SOL     OW40985   6.014   0.835   2.182 -0.1616 -0.5197  0.3674
12016SOL    HW140986   5.933   0.804   2.224 -0.6685 -1.2595 -1.0560
12016SOL    HW240987   5.989   0.850   2.091  0.8926  1.0200  0.2969
12017SOL     OW40988   8.482  10.291   1.984  0.4611 -0.0523  0.1082
12017SOL    HW140989   8.391  10.286   1.953  0.7160 -0.5113 -0.5868
12017SOL    HW240990   8.535  10.272   1.907  1.1586  0.3106  0.4854
12018SOL     OW40991   3.924   4.177   7.614  0.0635 -0.3918 -0.1447
12018SOL    HW140992   3.859   4.245   7.633 -0.2327 -0.5567 -0.5468
12018SOL    HW240993   3.956   4.150   7.700 -0.3994 -0.3066  0.0602
12019SOL     OW40994   9.859   5.129   0.635  0.5511 -0.3706  0.4634
12019SOL    HW140995   9.771   5.102   0.659  0.2979  0.6364  0.7339
12019SOL    HW240996   9.866   5.113   0.541  0.7482 -2.2070  0.7596
12020SOL     OW40997   2.493   1.598   5.520  0.2317 -0.2090  0.3295
12020SOL    HW140998   2.556   1.568   5.586  0.7364 -0.0529 -0.0759
12020SOL    HW240999   2.547   1.618   5.443 -0.5076 -2.0652 -0.7478
12021SOL     OW41000   5.677   5.812   0.226  0.1937 -0.2107  0.5816
12021SOL    HW141001   5.741   5.845   0.163 -2.3967  1.4730 -1.3762
12021SOL    HW241002   5.669   5.882   0.290 -0.1069 -0.1760  0.5045
12022SOL     OW41003   3.850   8.501   1.802  0.1390 -0.2508  0.1482
12022SOL    HW141004   3.917   8.523   1.867  0.9507  1.8785 -1.2856
12022SOL    HW241005   3.767   8.510   1.849  0.7669 -1.0033  1.4495
12023SOL     OW41006   0.418   1.410   0.440  0.7285 -0.7759 -0.1242
12023SOL    HW141007   0.484   1.376   0.500 -1.1631 -1.7081  1.5113
12023SOL    HW241008   0.336   1.409   0.489 -0.8095 -0.9417 -2.4880
12024SOL     OW41009  11.381   7.113   1.964 -0.5717 -0.3029 -0.6190
12024SOL    HW141010  11.421   7.094   2.049  0.7499  0.9929 -0.9137
12024SOL    HW241011  11.340   7.199   1.975 -1.4713 -0.6812 -0.9485
12025SOL     OW41012   0.148   6.407  10.186 -0.3977  0.1576 -0.3024
12025SOL    HW141013   0.200   6.485  10.207  1.1699 -0.5820 -1.2497
12025SOL    HW241014   0.064   6.442  10.156  0.5232  1.5346 -1.4145
12026SOL     OW41015   0.750   4.113   0.398 -0.3619 -0.3242 -0.1484
12026SOL    HW141016   0.794   4.166   0.332  1.4258 -1.0244  0.4160
12026SOL    HW241017   0.682   4.171   0.434 -0.1226  0.6918 -1.2690
12027SOL     OW41018   3.529   5.220   4.750  0.3784 -0.0198 -0.1779
12027SOL    HW141019   3.594   5.290   4.749 -1.5150  1.9415  2.0319
12027SOL    HW241020   3.543   5.176   4.834  0.2481 -1.0370 -0.6731
12028SOL     OW41021   4.745   1.313   2.437 -0.4718 -0.3202  0.1356
12028SOL    HW141022   4.754   1.372   2.511  1.3457 -0.0860 -0.2415
12028SOL    HW241023   4.809   1.244   2.452  0.7860  0.3461 -1.7344
12029SOL     OW41024   2.109  11.680   9.576  0.5520  0.3476 -0.1190
12029SOL    HW141025   2.088  11.765   9.614 -1.6775  0.3260 -1.1190
12029SOL    HW241026   2.178  11.699   9.512  0.0546  1.4191 -0.3628
12030SOL     OW41027   7.907   5.964   8.997  0.2993  0.4329 -0.5721
12030SOL    HW141028   7.893   6.058   8.991  0.1443  0.4671  0.2289
12030SOL    HW241029   8.000   5.951   8.979  0.5617  0.8582  0.3990
12031SOL     OW41030   8.555   7.588   0.911  0.3886 -0.4644  0.1460
12031SOL    HW141031   8.588   7.631   0.991 -1.5974  0.3307  0.6179
12031SOL    HW241032   8.491   7.650   0.876  2.5819  0.1630 -3.2670
12032SOL     OW41033   7.617   2.014   2.299 -0.2827 -0.3307 -0.6127
12032SOL    HW141034   7.608   2.021   2.204 -0.0711 -0.3680 -0.6357
12032SOL    HW241035   7.698   2.061   2.319  0.3433 -1.3977 -0.5974
12033SOL     OW41036   9.965   3.564   5.361  0.2525  0.1920  0.2648
12033SOL    HW141037  10.027   3.535   5.429  1.8741  1.4406 -0.6055
12033SOL    HW241038   9.919   3.485   5.336  1.2676 -0.7368  1.1948
12034SOL     OW41039   7.595  10.113   1.270 -0.6091 -0.0047  0.4757
12034SOL    HW141040   7.683  10.074   1.270 -1.4540 -2.2308  3.2814
12034SOL    HW241041   7.610  10.205   1.290  1.1274 -0.0096 -0.5259
12035SOL     OW41042   9.598   5.277   4.600 -0.0040 -0.0343 -0.2398
12035SOL    HW141043   9.694   5.279   4.600 -0.0030  1.4986  0.5199
12035SOL    HW241044   9.576   5.196   4.553  1.6762 -1.5591  1.3934
12036SOL     OW41045   7.723  10.392   0.498  0.2463  0.2598  0.4471
12036SOL    HW141046   7.798  10.399   0.439 -0.1995  2.6019  0.0742
12036SOL    HW241047   7.651  10.363   0.442  0.5547 -0.7848  0.5616
12037SOL     OW41048   5.701   4.660  10.392  0.0807  0.3860  0.0570
12037SOL    HW141049   5.639   4.699  10.453 -1.1277  1.1577 -1.5921
12037SOL    HW241050   5.769   4.622  10.448 -1.1794  0.6801  1.8716
12038SOL     OW41051   5.254   1.471   4.510 -0.0807  0.3695  0.4184
12038SOL    HW141052   5.194   1.507   4.575  0.7338  0.1770  1.2967
12038SOL    HW241053   5.197   1.429   4.446 -1.0226  2.3826 -0.1548
12039SOL     OW41054   5.216   3.133   7.077 -0.2345  0.0374 -0.3075
12039SOL    HW141055   5.311   3.133   7.091 -0.4153  0.8955  1.1576
12039SOL    HW241056   5.188   3.218   7.110 -1.7698 -1.0137  1.2499
12040SOL     OW41057   7.264   3.444   4.815 -0.2943  0.8328  0.3779
12040SOL    HW141058   7.340   3.457   4.758 -0.4988  1.5217  0.2524
12040SOL    HW241059   7.189   3.445   4.755 -0.4666  0.9572  0.5947
12041SOL     OW41060   9.742   8.046   2.780 -0.0263  0.2606  0.3976
12041SOL    HW141061   9.681   8.063   2.852  0.8179  1.0768  0.9356
12041SOL    HW241062   9.759   7.952   2.786  0.0832  0.3220  1.3253
12042SOL     OW41063  10.588   9.934   6.496 -0.1490 -0.4103  0.1677
12042SOL    HW141064  10.638  10.000   6.545  0.1326  1.0542 -1.9452
12042SOL    HW241065  10.516   9.984   6.457  0.1367 -1.3135 -1.5837
12043SOL     OW41066   6.375   6.736   2.303 -0.1652 -0.2889  0.1542
12043SOL    HW141067   6.468   6.743   2.326 -0.7453  2.6711  2.2641
12043SOL    HW241068   6.350   6.825   2.279 -2.8308 -0.6059  1.4123
12044SOL     OW41069   2.589   3.732   3.934 -0.0890 -0.3544 -0.1742
12044SOL    HW141070   2.589   3.793   4.008 -0.6510 -0.3325 -0.1891
12044SOL    HW241071   2.642   3.776   3.867 -0.5903  0.1751 -0.2293
12045SOL     OW41072   7.236   6.103   4.544 -0.4050  0.0895  0.3507
12045SOL    HW141073   7.278   6.147   4.470  0.4648 -0.3159  0.5937
12045SOL    HW241074   7.198   6.024   4.506 -0.5613  0.2323  0.2093
12046SOL     OW41075   1.513   5.978   5.587 -0.1993  0.1866 -0.2131
12046SOL    HW141076   1.557   6.061   5.602  0.9331 -0.3804 -0.3037
12046SOL    HW241077   1.561   5.915   5.640 -1.1951 -0.3721  0.0467
12047SOL     OW41078   4.490   6.644   7.236 -0.3931  0.4250  0.4481
12047SOL    HW141079   4.479   6.564   7.287 -3.5928  2.1942  2.9280
12047SOL    HW241080   4.401   6.673   7.216  0.6734  2.1896 -2.4882
12048SOL     OW41081   6.901   3.581  10.459  0.1862 -0.0782  0.0942
12048SOL    HW141082   6.931   3.663  10.419  0.7356 -0.1945  0.2660
12048SOL    HW241083   6.805   3.588  10.457  0.2209  1.0457  1.0768
12049SOL     OW41084   3.368   5.505   1.578  0.2202  0.5792  0.1742
12049SOL    HW141085   3.276   5.477   1.576  0.5476 -0.4713 -1.3861
12049SOL    HW241086   3.392   5.517   1.486  1.5218  1.3069  0.5798
12050SOL     OW41087   2.020   3.520   4.055  0.2799  0.1289 -0.5080
12050SOL    HW141088   2.005   3.503   4.148 -0.9284  0.5712 -0.6020
12050SOL    HW241089   2.115   3.527   4.047  0.4214 -0.2472  0.6273
12051SOL     OW41090   5.343  10.779   3.802  0.1276  0.2158  0.2804
12051SOL    HW141091   5.379  10.833   3.873 -0.5286  0.7981  0.1818
12051SOL    HW241092   5.354  10.832   3.724  0.0891 -0.0740  0.0775
12052SOL     OW41093   2.544   6.927   5.114 -0.3356 -0.1412 -0.1458
12052SOL    HW141094   2.613   6.993   5.112 -0.6098  0.1646  0.1882
12052SOL    HW241095   2.589   6.844   5.098 -0.2098  0.2810 -2.1997
12053SOL     OW41096   2.959   6.433   0.047 -0.8242  0.3099 -0.2876
12053SOL    HW141097   2.891   6.375   0.012 -1.2255  0.1981  0.6414
12053SOL    HW241098   2.948   6.515  -0.002 -1.5581  0.2514 -0.2396
12054SOL     OW41099   2.647   0.621   4.673  0.1030  0.5240 -0.4125
12054SOL    HW141100   2.614   0.531   4.677  0.8457  0.2729  2.2282
12054SOL    HW241101   2.742   0.612   4.677  0.2374  1.4160 -1.2524
12055SOL     OW41102   4.504   5.093   0.698 -0.1745  0.0746  0.0183
12055SOL    HW141103   4.484   5.174   0.745 -2.1829  0.6465 -1.6445
12055SOL    HW241104   4.591   5.107   0.661 -1.2792  2.5161 -2.0412
12056SOL     OW41105   6.978   4.163  11.600 -0.0156  0.1697 -0.5308
12056SOL    HW141106   6.962   4.238  11.657 -1.9954  0.1820 -1.0012
12056SOL    HW241107   6.910   4.170  11.533 -0.2283 -2.0136 -0.6047
12057SOL     OW41108   8.418   0.438  11.662 -0.0909  0.3213 -0.3407
12057SOL    HW141109   8.464   0.391  11.732 -0.8811  0.7495  0.4825
12057SOL    HW241110   8.454   0.400  11.581 -0.9022 -1.9460  0.2769
12058SOL     OW41111   9.905   7.272  11.374 -0.3758  0.5104  0.0723
12058SOL    HW141112   9.840   7.340  11.356 -0.6132  0.5411  0.9986
12058SOL    HW241113   9.956   7.305  11.448  0.7041  0.4774 -0.6347
12059SOL     OW41114   7.386   6.526   1.696 -0.7727 -0.5650 -0.0706
12059SOL    HW141115   7.473   6.559   1.717 -0.7150  0.2712 -1.5090
12059SOL    HW241116   7.333   6.548   1.773 -0.2330  1.0511 -0.1177
12060SOL     OW41117  11.597   7.616  11.580 -0.0507 -0.4612  0.5856
12060SOL    HW141118  11.538   7.556  11.624 -0.5980  0.2813  0.8941
12060SOL    HW241119  11.680   7.569  11.573 -0.3288 -1.0570  1.2542
12061SOL     OW41120   2.359   3.997   1.079  0.3336  0.1383  0.2546
12061SOL    HW141121   2.326   3.959   1.160  1.8381  2.8079  2.2729
12061SOL    HW241122   2.450   4.020   1.098  0.9388  0.3622 -2.4252
12062SOL     OW41123   2.182   7.536   9.974 -0.4969 -0.2048  0.4581
12062SOL    HW141124   2.187   7.478   9.897  2.9937  0.7000 -0.1458
12062SOL    HW241125   2.108   7.593   9.956 -1.7222 -2.0351 -0.6798
12063SOL     OW41126   4.518   1.823   3.535 -0.3137  0.1423  0.2277
12063SOL    HW141127   4.463   1.757   3.491 -0.0267  0.0101  0.0653
12063SOL    HW241128   4.457   1.870   3.592 -0.5668 -0.1098  0.1698
12064SOL     OW41129  10.727  11.347  10.920  0.0375 -0.7337 -0.5343
12064SOL    HW141130  10.741  11.411  10.851  0.8663  0.9760  1.1400
12064SOL    HW241131  10.657  11.291  10.886  0.0742  0.3353 -2.5279
12065SOL     OW41132   8.921   0.874  10.187  0.2613 -0.1797  0.1353
12065SOL    HW141133   8.955   0.964  10.188 -1.8951  0.7164  1.4575
12065SOL    HW241134   8.929   0.846  10.096  2.4715  0.7030 -0.0151
12066SOL     OW41135   5.743   4.869   0.999 -0.7047  0.0847 -0.4958
12066SOL    HW141136   5.815   4.931   1.003  1.3518 -2.1648  2.2372
12066SOL    HW241137   5.698   4.879   1.083 -1.3305 -0.9715 -0.6749
12067SOL     OW41138  11.195   8.268   8.451 -0.0040 -0.4138 -0.3137
12067SOL    HW141139  11.236   8.202   8.395  0.8763  0.2859 -0.5161
12067SOL    HW241140  11.143   8.321   8.391  1.7422  0.9653 -0.6850
12068SOL     OW41141   9.752   2.207   2.984  0.2820 -0.8361  0.1888
12068SOL    HW141142   9.799   2.192   2.902  0.7845 -0.7375  0.4568
12068SOL    HW241143   9.778   2.296   3.010 -1.5615  0.0208 -0.6643
12069SOL     OW41144   5.340   9.098  10.862 -0.3196 -0.2203  0.2580
12069SOL    HW141145   5.320   9.133  10.775 -0.4727  0.3510  0.5149
12069SOL    HW241146   5.288   9.018  10.868 -2.4457  1.1227  0.8257
12070SOL     OW41147   0.255   3.620   1.331 -0.4778  0.2914  0.5450
12070SOL    HW141148   0.225   3.552   1.271 -3.2533  0.2016  1.8659
12070SOL    HW241149   0.175   3.664   1.358  0.9008  1.7491  2.4922
12071SOL     OW41150   3.185   0.183   6.981  0.0036  0.1076 -0.2828
12071SOL    HW141151   3.129   0.106   6.980  0.7092 -0.5001  1.6444
12071SOL    HW241152   3.145   0.241   7.046  0.9749  0.1533  0.2930
12072SOL     OW41153   2.085   8.993  11.257  0.5269 -0.1727 -0.8806
12072SOL    HW141154   2.176   8.974  11.278  0.3032 -1.4566 -1.0154
12072SOL    HW241155   2.076   9.087  11.274  1.7507 -0.1144 -0.4476
12073SOL     OW41156   3.848   1.869   9.600 -0.8586  0.4560  0.6475
12073SOL    HW141157   3.831   1.958   9.631  0.6922  0.3418  1.9261
12073SOL    HW241158   3.931   1.845   9.641  0.4207 -0.4054 -2.1770
12074SOL     OW41159   2.054   1.153   2.255  0.0693  0.4908  0.4418
12074SOL    HW141160   2.057   1.199   2.171 -1.0567  0.9851  0.6519
12074SOL    HW241161   1.961   1.153   2.279  0.2832 -0.2963  1.3318
12075SOL     OW41162   5.053   3.395   4.818 -0.2215 -0.0286  0.1565
12075SOL    HW141163   5.101   3.442   4.886 -1.8350 -0.3703  1.5874
12075SOL    HW241164   5.043   3.459   4.747 -0.7128  1.1795  1.2778
12076SOL     OW41165   4.950   6.403   8.162  0.9020 -0.2792 -0.4791
12076SOL    HW141166   4.979   6.368   8.246  0.7412  1.3871  0.3121
12076SOL    HW241167   4.860   6.373   8.153  1.2577 -1.3601 -0.5964
12077SOL     OW41168  10.404   8.244  11.572 -0.1130  0.2931 -0.2289
12077SOL    HW141169  10.310   8.258  11.562 -0.2099 -0.1181  0.0991
12077SOL    HW241170  10.421   8.257  11.665  0.4032  1.7927 -0.5058
12078SOL     OW41171   0.119   7.849   6.968  0.0087  0.1641 -0.3298
12078SOL    HW141172   0.186   7.780   6.970  1.3127  1.3883  0.3820
12078SOL    HW241173   0.170   7.930   6.961 -1.5015  1.0364 -1.9612
12079SOL     OW41174   9.267   6.396   1.390 -0.2077 -0.1605 -0.0086
12079SOL    HW141175   9.324   6.390   1.314  0.9098  1.6559  0.6282
12079SOL    HW241176   9.205   6.324   1.380  1.3669 -1.3630 -1.4059
12080SOL     OW41177   5.386   0.420   4.802 -0.1906 -0.2694 -0.5889
12080SOL    HW141178   5.296   0.389   4.791  0.2798 -1.0779 -2.6332
12080SOL    HW241179   5.388   0.502   4.752  0.1427 -0.1145 -0.3198
12081SOL     OW41180   9.480  11.316   7.952  0.1134  0.2324  0.1482
12081SOL    HW141181   9.569  11.288   7.974  0.3946  0.0954 -1.1176
12081SOL    HW241182   9.489  11.407   7.922 -0.1448  0.1645 -0.1461
12082SOL     OW41183   3.172   7.343   7.519 -0.4195 -0.2219 -0.0493
12082SOL    HW141184   3.267   7.350   7.524 -0.1739 -0.7783 -2.5874
12082SOL    HW241185   3.140   7.420   7.566  1.2789  0.0261  0.7764
12083SOL     OW41186   4.313   9.906   9.954 -0.1452  0.4319  0.2503
12083SOL    HW141187   4.348   9.985   9.912  0.6483  0.5919  1.1987
12083SOL    HW241188   4.218   9.921   9.958 -0.2087  0.5427 -1.1963
12084SOL     OW41189   7.990   7.949  11.363 -0.1038  0.1509 -0.2582
12084SOL    HW141190   7.995   7.986  11.275  1.7347  2.9992  0.8663
12084SOL    HW241191   7.896   7.951  11.385 -0.3870  1.3035 -1.4492
12085SOL     OW41192   5.025   0.586   9.526 -0.1419  0.3522 -0.1963
12085SOL    HW141193   4.985   0.637   9.595  1.9359 -0.5037  1.7637
12085SOL    HW241194   5.059   0.651   9.464  1.4871  1.3983  1.6821
12086SOL     OW41195   5.942   9.395   8.941 -0.0549 -0.1437  0.4658
12086SOL    HW141196   5.862   9.345   8.926 -1.0872  1.3724  0.7678
12086SOL    HW241197   5.977   9.359   9.022  1.0942 -2.6716 -1.0128
12087SOL     OW41198   9.893  10.964   2.029  0.3500  0.1939  0.1265
12087SOL    HW141199   9.871  10.914   1.950  1.5931 -2.1282  1.1288
12087SOL    HW241200   9.826  10.941   2.092  1.9121 -1.8240  1.1752
12088SOL     OW41201   7.109  10.763   3.644 -0.6113  0.9508  0.8297
12088SOL    HW141202   7.170  10.708   3.693 -0.3672  0.4623  0.0047
12088SOL    HW241203   7.142  10.852   3.655  0.0160  0.7330  0.7233
12089SOL     OW41204   6.491   1.781   5.304  0.1298 -0.2643  0.0427
12089SOL    HW141205   6.564   1.733   5.344 -1.1157 -0.3604  2.4037
12089SOL    HW241206   6.494   1.868   5.345 -1.2157 -0.3593  0.3887
12090SOL     OW41207  10.029   1.107   2.085  0.0752  0.1524 -0.6802
12090SOL    HW141208  10.038   1.035   2.022  0.1321  1.2283 -1.9586
12090SOL    HW241209   9.939   1.138   2.073 -0.8558 -1.3440  1.7583
12091SOL     OW41210   7.400   0.447  10.625  0.9308 -0.1239  0.2548
12091SOL    HW141211   7.495   0.461  10.619  1.5366 -2.5341  2.4601
12091SOL    HW241212   7.377   0.476  10.713  0.1812 -1.9961  0.7202
12092SOL     OW41213   2.685   7.023   8.261  0.1483  0.1786  0.3916
12092SOL    HW141214   2.662   7.102   8.212 -1.1418  1.6463  3.1208
12092SOL    HW241215   2.778   7.034   8.281 -0.3425  1.8984  2.0493
12093SOL     OW41216   5.259   1.538  10.993 -0.2586  0.3138 -0.0218
12093SOL    HW141217   5.228   1.525  11.082  1.5287 -0.2278  0.5428
12093SOL    HW241218   5.296   1.626  10.993  1.3978 -0.3573  0.2972
12094SOL     OW41219   1.304   2.723   0.621 -0.3029  0.2168  0.9192
12094SOL    HW141220   1.334   2.668   0.548  0.5825  0.8386  0.8055
12094SOL    HW241221   1.208   2.722   0.614 -0.2642 -0.6126  0.4078
12095SOL     OW41222   6.168   2.209   8.422  0.4607 -0.1508  0.2637
12095SOL    HW141223   6.108   2.189   8.351  1.1051  1.1719 -0.6894
12095SOL    HW241224   6.134   2.160   8.497 -0.7258 -0.8798 -0.7221
12096SOL     OW41225   8.036   7.505   5.066  0.7075 -0.0448  0.6858
12096SOL    HW141226   8.094   7.451   5.012  1.6812  0.5659  1.1023
12096SOL    HW241227   7.949   7.467   5.053  0.5973  1.0245 -2.5615
12097SOL     OW41228   3.627  11.428   7.486  0.0922  0.1261  0.2994
12097SOL    HW141229   3.576  11.466   7.414  1.3117 -0.5446 -0.9813
12097SOL    HW241230   3.611  11.485   7.560 -2.1985  0.1552 -0.1436
12098SOL     OW41231   9.335   3.276   0.718 -0.1680  0.9221 -0.1454
12098SOL    HW141232   9.356   3.226   0.639 -1.6184  1.0664 -0.6375
12098SOL    HW241233   9.408   3.337   0.727  0.3639  0.4285 -0.9552
12099SOL     OW41234   0.938   3.266   3.845 -0.0100  0.5082  0.2166
12099SOL    HW141235   0.896   3.195   3.894  0.6604  0.3383  0.5576
12099SOL    HW241236   0.920   3.344   3.897  0.1392  0.4271  0.3924
12100SOL     OW41237   9.051  10.177   3.652 -0.1225  0.2259 -0.4637
12100SOL    HW141238   9.014  10.199   3.567 -2.0771 -1.5898 -0.1673
12100SOL    HW241239   8.983  10.199   3.715  0.1911 -1.0213  0.3541
12101SOL     OW41240   6.100  10.337   1.641  0.3903 -0.0137  0.8466
12101SOL    HW141241   6.060  10.250   1.644 -1.3073  0.7075  0.1930
12101SOL    HW241242   6.145  10.339   1.557 -1.7114  0.5847 -0.3368
12102SOL     OW41243   0.638   5.767   8.694  0.0927  0.1287  0.1839
12102SOL    HW141244   0.548   5.797   8.708 -1.0583 -3.1375  0.6870
12102SOL    HW241245   0.663   5.726   8.777  2.0796  0.9275  0.0358
12103SOL     OW41246   2.351  11.026   0.495 -0.1266  0.3597  0.1106
12103SOL    HW141247   2.380  11.110   0.459  1.5531 -0.5579 -0.8097
12103SOL    HW241248   2.281  10.998   0.436  2.4690 -1.0423 -2.5599
12104SOL     OW41249   6.448   6.670   6.146 -0.2080  0.0266  0.1445
12104SOL    HW141250   6.480   6.738   6.206 -0.8463 -0.5064  1.1163
12104SOL    HW241251   6.461   6.707   6.059  1.1657  0.6454  0.5781
12105SOL     OW41252   4.238  10.492   0.328 -0.3566 -0.4699 -0.8171
12105SOL    HW141253   4.264  10.551   0.399 -0.4948 -1.3277 -0.0334
12105SOL    HW241254   4.155  10.455   0.357  0.2278 -1.8279 -0.8071
12106SOL     OW41255   7.596   4.314  10.637  0.5517 -0.1512  0.1333
12106SOL    HW141256   7.555   4.227  10.639 -2.1760  1.0125 -1.0448
12106SOL    HW241257   7.534   4.371  10.681  1.0887  1.6436 -1.3195
12107SOL     OW41258   0.336  11.429  11.300  0.1985  0.4313 -0.2397
12107SOL    HW141259   0.292  11.500  11.254 -0.7280 -0.4529 -0.7522
12107SOL    HW241260   0.325  11.353  11.243  0.1911 -0.3843  0.8235
12108SOL     OW41261   7.242   2.099   1.376  0.0582  0.1099 -0.0189
12108SOL    HW141262   7.214   2.169   1.434 -1.5740 -0.1796 -0.4294
12108SOL    HW241263   7.217   2.129   1.288 -2.4347 -1.7514 -0.0386
12109SOL     OW41264   4.124   0.068   4.158  0.0161  0.1608  0.8205
12109SOL    HW141265   4.131   0.061   4.253  0.0524  1.4038  0.9227
12109SOL    HW241266   4.214   0.056   4.127  0.2228  1.0801  1.0460
12110SOL     OW41267   6.286   8.520   6.145  0.2478 -0.3000  0.3751
12110SOL    HW141268   6.283   8.598   6.089  0.5927 -0.7450 -0.2689
12110SOL    HW241269   6.225   8.459   6.104  0.6900 -0.7227  0.3413
12111SOL     OW41270   0.630   0.847  10.875 -0.2137 -0.0614  0.7115
12111SOL    HW141271   0.609   0.902  10.951  1.8113  1.6750  0.1287
12111SOL    HW241272   0.716   0.811  10.896 -0.0395 -0.2949 -0.3742
12112SOL     OW41273   1.192   1.226   2.298  0.5762  0.0585  0.3696
12112SOL    HW141274   1.159   1.227   2.388 -0.0774 -0.9067  0.1481
12112SOL    HW241275   1.127   1.274   2.248  0.0249 -0.9208  0.1204
12113SOL     OW41276   4.234   2.583   2.081 -0.3106  0.5648  0.2325
12113SOL    HW141277   4.250   2.602   1.988  0.8365 -0.1335  0.2622
12113SOL    HW241278   4.162   2.520   2.081  0.4032 -0.2773 -0.2658
12114SOL     OW41279   5.914  10.427  10.346  0.2900  0.9596  0.2301
12114SOL    HW141280   5.946  10.438  10.257 -0.4251 -1.8379 -0.4585
12114SOL    HW241281   5.993  10.424  10.400  0.8751  0.2826 -0.6387
12115SOL     OW41282   9.068   8.584   0.241 -0.0165 -0.3759  0.1547
12115SOL    HW141283   9.033   8.643   0.307  0.6868 -1.2914  1.3731
12115SOL    HW241284   9.040   8.497   0.269 -0.3473 -0.7227 -1.1784
12116SOL     OW41285   7.755   3.721   3.072  0.1673  0.0015 -0.6708
12116SOL    HW141286   7.784   3.708   2.981  1.9486  1.7265 -0.4297
12116SOL    HW241287   7.775   3.813   3.090  0.2087 -0.4044  1.5881
12117SOL     OW41288   4.572  10.108   3.751 -0.5445 -0.3031 -0.4821
12117SOL    HW141289   4.498  10.149   3.795  0.5396  1.9481 -0.6332
12117SOL    HW241290   4.647  10.124   3.808  0.2770 -0.3247 -1.5218
12118SOL     OW41291  11.335   8.091   8.309 -0.0089  0.0886 -0.0745
12118SOL    HW141292  11.388   8.121   8.235 -0.2385  1.3750  0.2592
12118SOL    HW241293  11.375   8.008   8.335 -0.1381 -0.5839 -1.8521
12119SOL     OW41294   0.767   5.339   7.232 -0.0731  0.0799 -0.1030
12119SOL    HW141295   0.697   5.361   7.170  0.3607  1.3143 -0.1728
12119SOL    HW241296   0.727   5.275   7.291 -1.4233  1.0937  0.1393
12120SOL     OW41297   4.654  10.609   4.661  0.7013 -0.3232 -0.7090
12120SOL    HW141298   4.650  10.677   4.728  2.0332  0.9677 -1.8628
12120SOL    HW241299   4.729  10.555   4.686  1.5829  0.5283 -1.4589
12121SOL     OW41300   5.945   2.622   1.710  0.4634  0.0338 -0.1836
12121SOL    HW141301   5.860   2.586   1.686  1.0488 -2.0179  0.6621
12121SOL    HW241302   5.984   2.648   1.626 -0.8362  0.7435 -0.6053
12122SOL     OW41303   2.333   2.948  10.374 -0.4536 -0.3231 -0.0954
12122SOL    HW141304   2.422   2.979  10.361 -0.7575  0.4704 -0.3464
12122SOL    HW241305   2.278   3.026  10.361 -1.2067 -0.8836 -0.3585
12123SOL     OW41306   4.523   5.824   1.894  0.1555  0.5676  1.0581
12123SOL    HW141307   4.541   5.906   1.846 -1.0779 -0.7318 -1.8659
12123SOL    HW241308   4.590   5.763   1.863 -1.0900 -0.5117  0.3897
12124SOL     OW41309   1.729   8.441   1.080 -0.0571  0.4835  0.1057
12124SOL    HW141310   1.810   8.403   1.048 -0.6361  0.7547 -1.7777
12124SOL    HW241311   1.754   8.488   1.160  1.4285 -0.2659  0.1014
12125SOL     OW41312   7.211   0.484   5.083  0.2961 -0.1926  0.1279
12125SOL    HW141313   7.175   0.562   5.124  1.1813  0.6529 -0.6589
12125SOL    HW241314   7.280   0.516   5.025  1.8220 -1.6846  1.0042
12126SOL     OW41315   3.293   8.123   4.847 -0.4281 -0.9141 -0.5653
12126SOL    HW141316   3.234   8.198   4.854  0.5112 -0.2566  1.0228
12126SOL    HW241317   3.378   8.161   4.822 -0.0205 -1.4596 -0.0596
12127SOL     OW41318   7.382   5.029   9.477 -0.5164 -0.1234 -0.4675
12127SOL    HW141319   7.288   5.025   9.498 -0.0873  0.4662  1.9166
12127SOL    HW241320   7.415   4.942   9.498 -0.5420 -0.3606 -1.4019
12128SOL     OW41321   1.211   7.276   6.437 -0.1338  0.1805  0.0197
12128SOL    HW141322   1.268   7.201   6.419 -0.3947 -0.0194  0.0169
12128SOL    HW241323   1.130   7.257   6.389 -1.1857 -0.7705  2.0285
12129SOL     OW41324   9.023   0.678   1.262 -0.2757  0.0887 -0.4982
12129SOL    HW141325   9.076   0.628   1.324  0.3608 -0.5447 -1.5399
12129SOL    HW241326   8.961   0.615   1.226 -0.2091  0.3022 -0.9902
12130SOL     OW41327   9.624   8.113   7.711 -0.1208 -0.0878 -0.0830
12130SOL    HW141328   9.634   8.203   7.742 -1.2174 -0.3592  1.1193
12130SOL    HW241329   9.707   8.072   7.732 -0.4842  0.0016  1.6842
12131SOL     OW41330   0.418   0.467   8.015 -0.5676 -0.0605  0.7969
12131SOL    HW141331   0.463   0.548   8.040 -1.8469 -0.1396  3.7880
12131SOL    HW241332   0.488   0.407   7.989  0.4660  1.6709 -0.6650
12132SOL     OW41333   4.123   0.694  11.683  0.0419  0.6005  0.1720
12132SOL    HW141334   4.216   0.693  11.703  0.1686  1.3500 -0.3701
12132SOL    HW241335   4.108   0.776  11.636 -1.0555  0.9262  1.0230
12133SOL     OW41336   2.672   6.114   6.810 -0.3190  0.3797  0.1093
12133SOL    HW141337   2.663   6.019   6.805  1.7547  0.1817 -0.5094
12133SOL    HW241338   2.639   6.146   6.726 -0.7011  0.1938  0.1867
12134SOL     OW41339   1.656   9.939   7.941  0.8003 -0.4372  0.1391
12134SOL    HW141340   1.637  10.018   7.992 -1.1440 -1.0165  0.3822
12134SOL    HW241341   1.734   9.961   7.891  1.2071  1.0837  1.3720
12135SOL     OW41342   6.372   6.999   4.496 -0.4624  0.3932  0.1049
12135SOL    HW141343   6.462   7.019   4.523  0.7946 -2.8007 -1.2356
12135SOL    HW241344   6.378   6.989   4.401 -2.2259 -0.0575  0.0234
12136SOL     OW41345   8.330   4.567   3.646  0.0533 -0.5156 -0.1969
12136SOL    HW141346   8.327   4.474   3.623 -1.3358 -0.4256 -0.4558
12136SOL    HW241347   8.360   4.568   3.736  1.6349 -1.1083 -0.6853
12137SOL     OW41348   5.979   2.579   6.414  0.1257  0.4640 -0.3361
12137SOL    HW141349   5.979   2.503   6.471  0.8112  1.2164  0.6990
12137SOL    HW241350   5.905   2.632   6.444 -0.6075  0.0447 -1.3209
12138SOL     OW41351   9.571   8.763   3.578  0.2666  0.2558 -0.1809
12138SOL    HW141352   9.578   8.759   3.674 -0.0869  1.4922 -0.0894
12138SOL    HW241353   9.610   8.847   3.555 -0.5632  0.4208 -1.0289
12139SOL     OW41354   8.422   5.165   5.000  0.7561 -0.1931  0.4885
12139SOL    HW141355   8.386   5.098   4.943 -2.3890  1.1179  0.7620
12139SOL    HW241356   8.466   5.117   5.070  0.3393 -1.8865 -0.3714
12140SOL     OW41357   3.189   0.737   4.724 -0.1745  0.0396 -0.4848
12140SOL    HW141358   3.248   0.795   4.773 -0.4052 -0.5866  0.5574
12140SOL    HW241359   3.233   0.652   4.724 -1.7686 -0.8943  1.7933
12141SOL     OW41360  10.506   3.957   0.322  0.2379 -0.2548 -0.2128
12141SOL    HW141361  10.577   3.931   0.381 -0.0538  0.6986  0.5815
12141SOL    HW241362  10.542   3.946   0.234  0.6854 -1.6980  0.1151
12142SOL     OW41363   7.317   6.427   1.200 -0.5532 -0.1852  0.2267
12142SOL    HW141364   7.325   6.422   1.295  0.1342  0.3423  0.2077
12142SOL    HW241365   7.223   6.435   1.183 -0.5647  1.7229  0.9826
12143SOL     OW41366   7.517   4.471   0.378 -0.4409 -0.1386  0.0355
12143SOL    HW141367   7.582   4.488   0.445 -0.1637 -1.0203  0.0083
12143SOL    HW241368   7.510   4.375   0.375  0.9806 -0.2602 -2.5141
12144SOL     OW41369   2.190  11.432   0.183 -0.1074 -0.2592 -0.1255
12144SOL    HW141370   2.132  11.449   0.257 -1.5496 -1.3422 -0.9541
12144SOL    HW241371   2.270  11.480   0.204 -1.3268  1.4204  1.0061
12145SOL     OW41372   8.328   4.802   6.877  0.3053 -0.3292 -0.8671
12145SOL    HW141373   8.373   4.849   6.948 -0.5461 -0.1324 -0.4416
12145SOL    HW241374   8.310   4.870   6.812 -0.8719 -0.0392 -0.2787
12146SOL     OW41375  10.672   2.117   4.607  0.0787  0.1796 -0.1089
12146SOL    HW141376  10.578   2.115   4.626  0.0602  0.1533 -0.2036
12146SOL    HW241377  10.679   2.095   4.514  0.3093 -1.8955  0.3627
12147SOL     OW41378   5.188   3.217   0.026  0.4301 -0.3332  0.1914
12147SOL    HW141379   5.274   3.175   0.018  0.5272 -0.7814  2.7870
12147SOL    HW241380   5.126   3.144   0.030  0.1397 -0.0797  0.3525
12148SOL     OW41381   8.077   2.355   5.885  0.0942 -0.4214  0.1823
12148SOL    HW141382   8.163   2.315   5.891 -0.5490 -1.6607  2.1355
12148SOL    HW241383   8.088   2.442   5.923  0.5437 -0.4515  0.1233
12149SOL     OW41384   7.452   0.393   3.321 -0.2107 -0.0262  0.0661
12149SOL    HW141385   7.499   0.469   3.353  1.5595 -1.0771  0.0883
12149SOL    HW241386   7.421   0.348   3.400  1.5480 -1.0067  0.2526
12150SOL     OW41387   2.020   4.062   9.886  0.4135 -0.6640 -0.2312
12150SOL    HW141388   1.990   3.978   9.919  0.5286 -0.8260 -0.5308
12150SOL    HW241389   2.116   4.057   9.893  0.4698 -0.8872 -1.0148
12151SOL     OW41390   9.734   3.379   6.938 -0.0422 -0.3334  0.4533
12151SOL    HW141391   9.808   3.435   6.957  1.3256 -1.4698 -1.2070
12151SOL    HW241392   9.765   3.319   6.870 -2.0580 -1.7479  0.6587
12152SOL     OW41393   6.955  11.644  10.312  0.0350 -0.7326 -0.6198
12152SOL    HW141394   7.043  11.666  10.282  0.3049  0.5867  0.9566
12152SOL    HW241395   6.969  11.583  10.385 -0.3311 -0.4685 -0.3213
12153SOL     OW41396   6.652   8.441   3.519 -0.0315 -0.0525  0.0052
12153SOL    HW141397   6.674   8.456   3.427 -0.3163  0.6961  0.0515
12153SOL    HW241398   6.564   8.479   3.529  1.0701  2.3600  1.2294
12154SOL     OW41399   8.773   2.518   9.164  0.3002  0.2524  0.4883
12154SOL    HW141400   8.715   2.554   9.096  0.6316  0.9746  0.5708
12154SOL    HW241401   8.745   2.427   9.174 -0.8845  0.6120  0.6078
12155SOL     OW41402   7.740  10.349  10.597  0.2819 -0.3248  0.1985
12155SOL    HW141403   7.646  10.333  10.600  0.2657 -1.0295 -2.1341
12155SOL    HW241404   7.780  10.263  10.606  0.6295 -0.2227 -0.2612
12156SOL     OW41405   6.530   3.695   4.087 -0.1013  0.1214  0.2294
12156SOL    HW141406   6.502   3.619   4.036  1.6266 -1.7579  1.9144
12156SOL    HW241407   6.548   3.763   4.022 -3.1854 -0.2826 -1.2362
12157SOL     OW41408   9.404  10.409   3.009  0.0758 -0.2563 -0.0919
12157SOL    HW141409   9.373  10.321   2.987 -1.0562  0.1941 -0.3260
12157SOL    HW241410   9.333  10.467   2.983  1.3481  0.8618 -1.2297
12158SOL     OW41411   0.708   7.269   5.324 -0.5667  0.1167 -0.4952
12158SOL    HW141412   0.634   7.239   5.270  0.9355 -0.7836 -2.1480
12158SOL    HW241413   0.708   7.364   5.313 -1.2621  0.0946 -0.7645
12159SOL     OW41414   5.234   1.383   5.598 -0.4132  0.2942 -0.2202
12159SOL    HW141415   5.181   1.368   5.676 -1.1476  2.3284 -0.2750
12159SOL    HW241416   5.179   1.353   5.526 -0.9565  1.1404 -0.1681
12160SOL     OW41417   8.013  10.826   6.788  0.0335  0.1167  0.3540
12160SOL    HW141418   7.995  10.776   6.869 -1.1745  0.2775  0.2069
12160SOL    HW241419   7.966  10.777   6.720  0.4872  0.3643 -0.1391
12161SOL     OW41420   1.156   7.056   9.513 -0.4824 -0.2930 -0.4650
12161SOL    HW141421   1.128   6.985   9.456 -2.5101 -1.4264  1.7207
12161SOL    HW241422   1.096   7.128   9.494 -0.7197 -0.4340 -0.2598
12162SOL     OW41423   7.521   2.649   7.090  0.0734 -0.1391  0.2476
12162SOL    HW141424   7.560   2.566   7.062 -1.0594 -0.9559  0.9863
12162SOL    HW241425   7.538   2.652   7.184 -0.0500  0.3724  0.2519
12163SOL     OW41426   5.362   5.381   3.648 -0.1984 -0.2731 -0.4048
12163SOL    HW141427   5.423   5.373   3.721 -0.7939  1.6409  0.3776
12163SOL    HW241428   5.283   5.336   3.678  0.1478 -1.0184 -0.5997
12164SOL     OW41429   0.007   9.974   3.526 -0.3939  0.3640  0.2826
12164SOL    HW141430  -0.003  10.051   3.583 -1.0318  2.3920 -2.3705
12164SOL    HW241431  -0.078   9.964   3.485 -0.0896 -1.3643  0.0253
12165SOL     OW41432   4.910  11.234  10.669 -0.7841 -0.5473 -0.9953
12165SOL    HW141433   4.867  11.272  10.746  0.1725 -2.2184  0.4386
12165SOL    HW241434   5.000  11.268  10.672 -0.7351 -0.6366 -1.3733
12166SOL     OW41435   8.153  10.133   2.928  0.3242 -0.1223 -0.5250
12166SOL    HW141436   8.127  10.224   2.940  1.5163  0.1117  0.5400
12166SOL    HW241437   8.098  10.084   2.990 -0.2994 -0.1281 -1.0802
12167SOL     OW41438   3.069   6.459   5.155 -0.3607  0.1096 -0.5356
12167SOL    HW141439   3.148   6.428   5.109 -1.9778 -2.1271 -2.0289
12167SOL    HW241440   3.087   6.441   5.247  1.5484  1.3391 -0.6151
12168SOL     OW41441   2.442   0.493   6.231 -0.2617  0.2949 -0.3681
12168SOL    HW141442   2.362   0.542   6.246  0.4471  1.2260  0.5816
12168SOL    HW241443   2.431   0.412   6.282 -0.4435  0.6013  0.0904
12169SOL     OW41444   8.353   9.277   9.103  0.2914 -0.4932  0.3686
12169SOL    HW141445   8.287   9.334   9.142  2.2163  1.7654  0.5206
12169SOL    HW241446   8.338   9.192   9.145 -1.3222  0.4028  1.7692
12170SOL     OW41447   6.863   0.584   7.346  0.1141  0.0081 -0.3560
12170SOL    HW141448   6.830   0.624   7.266  0.2313  0.9494  0.0555
12170SOL    HW241449   6.856   0.652   7.413  1.4452 -0.2410  0.0877
12171SOL     OW41450   7.771   9.551   1.473  0.0321 -0.4235 -0.3340
12171SOL    HW141451   7.694   9.535   1.419  0.7335 -2.5361 -0.7967
12171SOL    HW241452   7.821   9.470   1.468  1.3094  0.1816  1.5734
12172SOL     OW41453  11.176   5.517   1.984  0.3580  0.8717  0.2355
12172SOL    HW141454  11.159   5.533   1.891  0.0207  3.2577  0.6403
12172SOL    HW241455  11.254   5.569   2.003  1.5187 -1.0111  0.9464
12173SOL     OW41456  11.100   8.170   9.985  0.6523 -0.2320 -0.4588
12173SOL    HW141457  11.118   8.183  10.079 -1.2342  0.9044 -0.1989
12173SOL    HW241458  11.187   8.161   9.945  1.6205  1.2995  1.1256
12174SOL     OW41459  10.770   5.352   5.551 -0.0883 -0.6547 -0.5732
12174SOL    HW141460  10.753   5.420   5.617 -1.1074 -0.6894 -0.7954
12174SOL    HW241461  10.691   5.349   5.498  0.5901 -0.8794 -1.5935
12175SOL     OW41462   9.575   8.155   4.624  0.4440 -0.1469  0.1051
12175SOL    HW141463   9.569   8.106   4.706 -1.5071 -0.2466 -0.0424
12175SOL    HW241464   9.636   8.104   4.571  1.4919 -0.2569  1.3598
12176SOL     OW41465   3.451   5.058   8.230  0.1001  0.0003 -0.1741
12176SOL    HW141466   3.540   5.088   8.211 -0.2642 -0.2422 -2.5855
12176SOL    HW241467   3.456   4.963   8.223  0.0145 -0.1598  1.5917
12177SOL     OW41468   3.718   3.239   2.795  0.1951 -0.1875  0.3057
12177SOL    HW141469   3.707   3.188   2.715  1.2440 -0.0806  0.0800
12177SOL    HW241470   3.638   3.223   2.845  0.0119 -1.1403 -0.2714
12178SOL     OW41471   3.521   3.137   8.434 -0.2491  0.1038 -0.3754
12178SOL    HW141472   3.501   3.189   8.512 -0.1599  0.8583 -0.8437
12178SOL    HW241473   3.436   3.102   8.407 -0.1048 -1.2354  0.7824
12179SOL     OW41474  11.108   2.456   9.529 -0.6755  0.7988 -0.7825
12179SOL    HW141475  11.147   2.512   9.596 -1.0934  1.5554 -1.1591
12179SOL    HW241476  11.138   2.368   9.551 -0.4483  1.0958  0.1333
12180SOL     OW41477   5.909   5.447  10.359 -0.3092  0.0828 -0.3484
12180SOL    HW141478   5.949   5.409  10.438 -0.4123 -1.0149 -0.8087
12180SOL    HW241479   5.922   5.541  10.369  0.7199 -0.1205  0.4170
12181SOL     OW41480   6.217   2.705   7.463 -0.1111 -0.0708  0.0277
12181SOL    HW141481   6.251   2.736   7.547 -1.3703  2.8668 -0.4216
12181SOL    HW241482   6.211   2.784   7.409 -0.1327 -1.7374 -2.5845
12182SOL     OW41483   4.136   6.443   3.253 -0.5683 -0.0950 -0.0825
12182SOL    HW141484   4.182   6.394   3.185 -0.9147 -0.4289 -0.0832
12182SOL    HW241485   4.146   6.389   3.332  0.2075  0.5029  0.2441
12183SOL     OW41486   8.609   9.588   5.214  0.0202 -0.3826  0.0789
12183SOL    HW141487   8.573   9.656   5.157 -2.5249 -1.6294  0.0508
12183SOL    HW241488   8.613   9.510   5.158 -1.5303 -1.3591  1.2469
12184SOL     OW41489   7.174   2.971   3.835 -0.2711  0.1599  0.3671
12184SOL    HW141490   7.081   2.953   3.849 -0.2067 -0.6913 -0.2107
12184SOL    HW241491   7.214   2.953   3.920 -0.3603 -1.5608  0.0942
12185SOL     OW41492   7.559   0.656   1.391 -0.7212 -0.3043 -0.3395
12185SOL    HW141493   7.557   0.747   1.417  0.2020 -0.2035 -0.6116
12185SOL    HW241494   7.626   0.651   1.323 -1.8235 -0.8887 -1.4378
12186SOL     OW41495   7.635  10.787   6.581 -0.2270 -0.0744  0.2511
12186SOL    HW141496   7.606  10.840   6.656 -0.1509  0.4044 -0.0592
12186SOL    HW241497   7.559  10.732   6.560 -1.1288  1.5300 -0.8800
12187SOL     OW41498   9.126   6.202   1.507 -0.5264 -0.5823 -0.4413
12187SOL    HW141499   9.088   6.218   1.594  0.4047 -1.4697  0.1550
12187SOL    HW241500   9.187   6.129   1.521 -1.0586 -1.3762 -2.0392
12188SOL     OW41501   3.813  11.504   8.588 -0.3999  0.2266  0.0167
12188SOL    HW141502   3.766  11.499   8.504 -0.8678  0.4668  0.2584
12188SOL    HW241503   3.865  11.423   8.591  0.5368  0.7590 -1.0340
12189SOL     OW41504   1.775   0.182   3.830 -0.0262 -0.0854  0.0457
12189SOL    HW141505   1.863   0.219   3.830 -0.8727  2.0910 -0.7922
12189SOL    HW241506   1.758   0.160   3.739 -1.2581  2.0257 -0.3064
12190SOL     OW41507   0.555   3.127   0.811  0.2053  0.5976 -0.3670
12190SOL    HW141508   0.513   3.177   0.742 -0.1131  1.8824  0.7188
12190SOL    HW241509   0.498   3.138   0.887  0.8085 -0.3670  0.2453
12191SOL     OW41510   6.734   3.593   7.162 -0.4741  0.0413  0.0086
12191SOL    HW141511   6.826   3.584   7.187  0.1282  0.3156 -1.9055
12191SOL    HW241512   6.716   3.687   7.170 -0.7366 -0.0692  0.8007
12192SOL     OW41513   8.739   9.807   5.846  0.0674 -0.3493  0.1093
12192SOL    HW141514   8.740   9.716   5.877  0.8198 -0.2339  0.4610
12192SOL    HW241515   8.821   9.844   5.879  0.2880  0.1441 -0.9519
12193SOL     OW41516   9.863   5.918   5.041  0.1050 -0.1787 -0.5687
12193SOL    HW141517   9.957   5.936   5.044 -0.1247  1.2756 -0.8526
12193SOL    HW241518   9.827   5.994   4.994 -1.1815 -0.8092 -0.6273
12194SOL     OW41519   8.827   3.286   9.349  0.3816  0.1571 -0.0385
12194SOL    HW141520   8.858   3.196   9.340  0.2698  0.2007 -0.9702
12194SOL    HW241521   8.788   3.290   9.436  0.0222 -0.8139 -0.1454
12195SOL     OW41522   8.987   4.208   9.579  1.0003 -0.4516  0.5881
12195SOL    HW141523   8.893   4.194   9.572  1.0101 -0.5978  0.7374
12195SOL    HW241524   9.026   4.124   9.554  1.2113  0.4902 -2.5931
12196SOL     OW41525   1.449   6.625   8.160  0.1828  0.2067  0.2715
12196SOL    HW141526   1.371   6.648   8.109 -0.0314 -1.0240  0.0308
12196SOL    HW241527   1.454   6.530   8.156  2.7707  0.3283 -1.2823
12197SOL     OW41528   1.096  11.186   2.635 -0.4143 -0.0039  0.2565
12197SOL    HW141529   1.097  11.134   2.554 -0.5631 -1.0032  0.8867
12197SOL    HW241530   1.182  11.172   2.673  0.4292  2.0971 -0.7127
12198SOL     OW41531  10.194   6.539  10.270 -0.1874 -0.7892  0.0330
12198SOL    HW141532  10.257   6.564  10.337  1.2261 -0.6660 -1.2641
12198SOL    HW241533  10.242   6.476  10.215 -1.6093 -1.6186 -0.3252
12199SOL     OW41534   8.323   3.865  11.397 -0.0723  0.1815  0.1616
12199SOL    HW141535   8.400   3.811  11.379  0.0997  0.8626 -1.3345
12199SOL    HW241536   8.346   3.914  11.476  1.0605  0.4129 -0.2938
12200SOL     OW41537   2.328   7.960   5.479 -0.4324  0.3347 -0.3414
12200SOL    HW141538   2.374   8.035   5.440 -1.6630  0.3159 -1.9223
12200SOL    HW241539   2.244   7.957   5.433 -0.8869 -1.3004  0.5419
12201SOL     OW41540   3.858   1.866  10.784  0.3598  0.4473 -0.0900
12201SOL    HW141541   3.866   1.795  10.848  0.3027  0.1104 -0.4505
12201SOL    HW241542   3.908   1.836  10.708 -0.7837  0.1824 -0.7606
12202SOL     OW41543  11.589   4.083   5.126  0.3105  0.5342 -1.0297
12202SOL    HW141544  11.510   4.031   5.108  0.1431 -0.0949  1.2573
12202SOL    HW241545  11.557   4.161   5.170  0.9448  0.3809 -0.2852
12203SOL     OW41546   5.619   1.089   9.993 -0.5733  0.3960 -0.2015
12203SOL    HW141547   5.656   1.174   9.968 -1.1983  0.6526 -0.2700
12203SOL    HW241548   5.570   1.108  10.073 -1.8946  0.3986 -0.9872
12204SOL     OW41549   3.349   4.861   9.247  0.0041  0.2755 -0.1754
12204SOL    HW141550   3.378   4.940   9.292 -0.8024  0.3791  0.1755
12204SOL    HW241551   3.276   4.889   9.192  1.7348  0.4032 -2.5533
12205SOL     OW41552   3.280  11.499  10.440  0.0968 -0.1876 -0.1346
12205SOL    HW141553   3.240  11.577  10.478  1.4112  1.0070 -1.0877
12205SOL    HW241554   3.340  11.468  10.507 -1.1399 -1.0096  0.6400
12206SOL     OW41555  10.397   1.452  11.041 -0.4515 -0.1587 -0.9966
12206SOL    HW141556  10.381   1.537  11.082  0.5542  0.4829 -1.8995
12206SOL    HW241557  10.328   1.395  11.076 -0.7898  0.8712  0.0571
12207SOL     OW41558   2.108   5.916  11.365  0.0044  0.0794 -0.0158
12207SOL    HW141559   2.076   5.866  11.440  1.6367  0.2801  0.8471
12207SOL    HW241560   2.121   6.005  11.400 -1.1286  0.6841 -1.0649
12208SOL     OW41561   4.800   8.734  10.568  0.0522  0.3423 -0.4235
12208SOL    HW141562   4.815   8.728  10.474 -0.0968  1.7153 -0.5507
12208SOL    HW241563   4.775   8.825  10.583 -3.3415 -0.5768  0.4555
12209SOL     OW41564   4.074  10.358   4.917  0.5570  0.3575 -0.0334
12209SOL    HW141565   4.057  10.303   4.840 -1.1625 -0.0185  0.5676
12209SOL    HW241566   4.168  10.377   4.913  1.0851 -2.0306 -0.6486
12210SOL     OW41567   9.963   0.298  10.121  0.4080  0.2693 -0.3428
12210SOL    HW141568   9.950   0.208  10.151  1.0779  0.3048  0.0503
12210SOL    HW241569   9.880   0.342  10.140  0.8461  0.3220  1.5504
12211SOL     OW41570   1.076   0.800   4.731  0.3609  0.4615  0.4318
12211SOL    HW141571   1.008   0.749   4.775 -1.0367  1.1321 -0.8475
12211SOL    HW241572   1.158   0.755   4.753 -0.7694 -2.4168 -0.6884
12212SOL     OW41573   4.011   3.343   1.259  0.6428  0.6416  0.4524
12212SOL    HW141574   4.027   3.266   1.205  0.9306  0.3058  1.0085
12212SOL    HW241575   3.960   3.402   1.203 -0.5867 -0.4277  0.4075
12213SOL     OW41576   3.210   9.748   2.913  0.1324 -0.0404 -0.5977
12213SOL    HW141577   3.306   9.747   2.912  0.1660 -2.4314 -1.0402
12213SOL    HW241578   3.185   9.680   2.851 -1.8436 -0.1168  0.2197
12214SOL     OW41579   0.753   4.419   2.860  0.1253 -0.1283  0.5951
12214SOL    HW141580   0.689   4.397   2.792 -2.5962  0.1103  2.9278
12214SOL    HW241581   0.812   4.481   2.817 -0.6686 -0.9565 -1.8971
12215SOL     OW41582   3.199   7.106   1.548  0.3214 -0.0851 -0.2745
12215SOL    HW141583   3.191   7.035   1.484  0.1946 -0.5868  0.2792
12215SOL    HW241584   3.229   7.062   1.627  0.2069  0.4805  0.0864
12216SOL     OW41585   4.711   8.524   0.458  0.3535 -0.2472  0.0180
12216SOL    HW141586   4.688   8.448   0.405  2.0192 -0.9135  0.2255
12216SOL    HW241587   4.626   8.565   0.477 -0.5481 -1.8340 -0.3776
12217SOL     OW41588   6.101   5.051   3.496  0.4122 -0.1047 -0.0426
12217SOL    HW141589   6.175   5.031   3.553 -0.5218 -0.9787  0.9034
12217SOL    HW241590   6.054   5.121   3.541 -1.1509 -1.8000  1.0631
12218SOL     OW41591   4.428   9.106  10.088 -0.0443 -0.3893  0.3441
12218SOL    HW141592   4.422   9.201  10.080 -0.5047 -0.5108 -1.1054
12218SOL    HW241593   4.430   9.075   9.997  0.6505 -1.7318  0.7944
12219SOL     OW41594  10.472   4.861   6.460 -0.1468 -0.3122  0.3604
12219SOL    HW141595  10.539   4.801   6.427  0.1207 -0.4312  1.0923
12219SOL    HW241596  10.505   4.888   6.546  1.4062  3.5412 -1.2366
12220SOL     OW41597   5.944   4.132   7.818 -0.1507 -0.6930 -0.0371
12220SOL    HW141598   6.008   4.133   7.889  0.4094 -3.9224 -0.3346
12220SOL    HW241599   5.860   4.122   7.862 -0.1984  0.7545  0.2460
12221SOL     OW41600   6.187   0.095   7.628  0.1346  0.2070 -0.1549
12221SOL    HW141601   6.228   0.023   7.676  0.3520  0.2821 -0.2250
12221SOL    HW241602   6.139   0.145   7.694  0.0676  0.0547 -0.0891
12222SOL     OW41603   1.083   3.980   5.176 -0.1628 -0.1386 -0.0556
12222SOL    HW141604   1.110   3.909   5.234 -0.0393 -0.4499 -0.4925
12222SOL    HW241605   1.004   4.016   5.217 -0.8526 -1.2234 -0.3819
12223SOL     OW41606  10.438   9.390   1.696 -0.0540 -0.1177  0.5383
12223SOL    HW141607  10.514   9.357   1.743 -1.2483 -2.3636  1.0361
12223SOL    HW241608  10.378   9.419   1.765 -0.5804 -0.5589  0.2740
12224SOL     OW41609   8.462   8.068  10.481  0.3798 -1.1557 -0.0129
12224SOL    HW141610   8.391   8.016  10.520  0.1373 -1.2273 -0.5401
12224SOL    HW241611   8.443   8.157  10.508  0.8545 -1.3478  0.9812
12225SOL     OW41612   8.921   8.750   6.334 -0.2019 -0.2127  0.6812
12225SOL    HW141613   8.921   8.667   6.287 -0.5355  0.7048 -1.0128
12225SOL    HW241614   8.948   8.728   6.423  3.0458 -1.6684 -0.5418
12226SOL     OW41615   9.802  11.278  10.743  0.2839 -0.2113 -0.6704
12226SOL    HW141616   9.870  11.311  10.802  0.1479  0.3417 -0.8118
12226SOL    HW241617   9.783  11.190  10.775  1.8795 -0.8428 -1.3377
12227SOL     OW41618   9.047   4.077   2.461 -0.4906  0.4727  0.2838
12227SOL    HW141619   8.965   4.054   2.504  0.0732  0.8727  1.6142
12227SOL    HW241620   9.041   4.035   2.375 -2.5362  1.4132 -0.0770
12228SOL     OW41621   0.257   5.678  11.189 -0.1832  0.0561  0.2457
12228SOL    HW141622   0.260   5.592  11.148 -1.9905 -0.9953  2.1594
12228SOL    HW241623   0.178   5.719  11.154 -0.9354 -0.2681  1.5171
12229SOL     OW41624   8.982   8.473   1.982  0.7434  0.8343  0.4104
12229SOL    HW141625   9.008   8.487   2.073  0.4731  0.9500  0.4709
12229SOL    HW241626   8.897   8.516   1.975  1.2181  1.6931 -0.1581
12230SOL     OW41627   6.714  11.459   9.868 -0.2171 -0.4876 -0.4078
12230SOL    HW141628   6.677  11.399   9.803  1.4450  0.1118 -2.0221
12230SOL    HW241629   6.798  11.487   9.829  0.9896 -0.3069  2.1492
12231SOL     OW41630   6.766   7.504   0.731  0.3085 -0.0570  0.1422
12231SOL    HW141631   6.706   7.534   0.799 -2.3659  0.6954 -2.3364
12231SOL    HW241632   6.738   7.415   0.711 -1.2408  0.8401 -2.1379
12232SOL     OW41633   4.144   7.545   6.557  0.4000  0.0633 -0.2526
12232SOL    HW141634   4.158   7.603   6.482 -0.6845  0.5358 -0.1003
12232SOL    HW241635   4.159   7.600   6.634  0.0068 -0.0241 -0.1129
12233SOL     OW41636   6.224  11.470  11.605 -0.4049  0.1670  0.3131
12233SOL    HW141637   6.168  11.531  11.654 -1.8860 -0.6294 -0.3130
12233SOL    HW241638   6.239  11.397  11.666 -1.0277 -0.1451  0.1059
12234SOL     OW41639  11.478  11.690   4.332 -0.1487 -0.3853  0.1380
12234SOL    HW141640  11.404  11.736   4.291 -0.7169 -0.2408  1.2791
12234SOL    HW241641  11.530  11.760   4.370  1.3017 -0.3757 -1.7236
12235SOL     OW41642   9.739   3.592   0.962  0.8344 -0.3393  0.0884
12235SOL    HW141643   9.746   3.500   0.937  1.5036 -0.6763  1.4456
12235SOL    HW241644   9.773   3.595   1.051  3.5729  1.7111 -0.9012
12236SOL     OW41645   9.731  10.207   0.542 -0.3046  0.1977  0.1949
12236SOL    HW141646   9.664  10.236   0.604 -2.0008  1.6831 -2.1791
12236SOL    HW241647   9.692  10.132   0.497  0.5700 -0.3605  0.3481
12237SOL     OW41648   4.885   9.374   1.609  0.2296  0.0993 -0.3666
12237SOL    HW141649   4.963   9.426   1.588  0.9113 -0.6135  0.3494
12237SOL    HW241650   4.853   9.344   1.524  0.9140  0.1432 -0.6498
12238SOL     OW41651   6.280   1.429   8.609 -0.0829  0.1968  0.1429
12238SOL    HW141652   6.238   1.494   8.553 -0.7269 -0.8151 -0.5834
12238SOL    HW241653   6.215   1.359   8.617 -0.7026  0.9576  3.4769
12239SOL     OW41654   8.099   0.424   8.571  0.1268 -0.4172 -0.1362
12239SOL    HW141655   8.074   0.479   8.645  0.2575  1.7069 -1.5760
12239SOL    HW241656   8.195   0.423   8.573  0.1268 -1.2843  0.3105
12240SOL     OW41657   4.584   9.510   4.787  0.2322  0.1665 -0.0265
12240SOL    HW141658   4.525   9.585   4.783 -1.4549 -1.0216  1.0197
12240SOL    HW241659   4.671   9.547   4.773 -0.0338  2.9243  4.0583
12241SOL     OW41660   4.210  10.126   6.025  0.2526  0.1557  0.2499
12241SOL    HW141661   4.270  10.183   6.074 -1.0282  1.0638  0.8363
12241SOL    HW241662   4.124  10.166   6.037 -0.6799 -1.7727  0.4607
12242SOL     OW41663   6.646  11.274   1.938  0.2793 -0.3987  0.4196
12242SOL    HW141664   6.711  11.343   1.924  0.7841 -0.8802  0.3465
12242SOL    HW241665   6.698  11.194   1.947 -0.3909 -1.1853 -1.9582
12243SOL     OW41666   9.845  10.402   2.930  0.0903  0.3024 -0.0933
12243SOL    HW141667   9.894  10.360   3.001 -0.5651  0.4229  0.4440
12243SOL    HW241668   9.854  10.496   2.948 -1.6714  0.3160  0.9761
12244SOL     OW41669   5.317  11.549   6.986 -0.2283  0.5374 -0.3104
12244SOL    HW141670   5.267  11.495   7.047  0.2230 -0.2510 -0.6239
12244SOL    HW241671   5.369  11.607   7.041  0.0838 -0.0841  0.0552
12245SOL     OW41672  10.473   0.830   2.886  0.2778 -0.0814  0.2547
12245SOL    HW141673  10.476   0.909   2.940  0.1031  0.2305 -0.1832
12245SOL    HW241674  10.541   0.844   2.820  1.0856 -0.8454  0.9089
12246SOL     OW41675   3.980   4.118   2.935  0.0066  0.6616  0.2852
12246SOL    HW141676   3.961   4.104   3.028  0.9408  0.8210  0.5036
12246SOL    HW241677   3.893   4.124   2.895 -0.4547 -1.3614  0.8251
12247SOL     OW41678   8.660   6.297   5.690 -0.2357  0.7611  0.1750
12247SOL    HW141679   8.627   6.303   5.601 -0.2771  0.3086  0.1547
12247SOL    HW241680   8.617   6.369   5.737  0.0096  1.1781 -0.2351
12248SOL     OW41681   5.255   4.288   1.211 -0.5134  0.0928 -0.1869
12248SOL    HW141682   5.317   4.360   1.204  0.0042 -0.3091  0.1601
12248SOL    HW241683   5.212   4.285   1.125 -0.3004  0.5986 -0.3129
12249SOL     OW41684   8.822   9.187   9.251 -0.5836  0.4998 -0.6382
12249SOL    HW141685   8.789   9.270   9.283  1.3215  1.7015 -1.6012
12249SOL    HW241686   8.911   9.181   9.287  0.3615  0.3022 -2.8439
12250SOL     OW41687  10.107   8.762   0.550 -0.1857 -0.2267  0.2496
12250SOL    HW141688  10.171   8.819   0.508 -0.7335 -0.4723 -0.9814
12250SOL    HW241689  10.027   8.816   0.554 -0.4363 -0.5672 -0.0471
12251SOL     OW41690   8.663   1.062   9.910  0.1724 -0.6983  0.8520
12251SOL    HW141691   8.634   1.152   9.922  1.5709 -0.2358  0.9458
12251SOL    HW241692   8.690   1.058   9.818  2.9571 -0.1036  1.5492
12252SOL     OW41693   8.781   8.639   0.188 -0.7863  0.1728  0.3315
12252SOL    HW141694   8.846   8.613   0.123  1.0773 -0.7354  2.4128
12252SOL    HW241695   8.705   8.669   0.137  1.2538  1.3596 -2.2208
12253SOL     OW41696   7.173   9.681   9.440  0.2205  0.7534  0.4845
12253SOL    HW141697   7.218   9.629   9.507 -0.2776  0.5612  0.6755
12253SOL    HW241698   7.095   9.715   9.484 -1.0639 -0.8317 -0.4399
12254SOL     OW41699  10.344   6.099   0.840 -0.0229  0.0646 -0.5349
12254SOL    HW141700  10.410   6.158   0.803  0.0214 -0.9506 -2.1886
12254SOL    HW241701  10.346   6.023   0.782 -1.2428 -0.8424  0.5810
12255SOL     OW41702   2.157   0.637   1.278 -0.3728  0.1304 -0.2665
12255SOL    HW141703   2.198   0.690   1.346  1.7215  0.4507 -1.6982
12255SOL    HW241704   2.138   0.698   1.207 -2.3800 -0.2258 -0.1099
12256SOL     OW41705  11.452   8.491   8.326  0.0824 -0.4341  0.0704
12256SOL    HW141706  11.420   8.510   8.414  1.0159  0.9137  0.1592
12256SOL    HW241707  11.543   8.522   8.327 -0.2301  0.6915 -1.6853
12257SOL     OW41708   6.115   9.238   8.765  0.0185  0.1061  0.1173
12257SOL    HW141709   6.056   9.273   8.831 -1.4792 -0.6698 -0.7309
12257SOL    HW241710   6.124   9.308   8.700  0.6713  0.5014  0.6251
12258SOL     OW41711   8.403   6.782   2.802  0.5911 -0.0227  0.7905
12258SOL    HW141712   8.495   6.793   2.777  0.9366  1.1321  2.4282
12258SOL    HW241713   8.403   6.705   2.859  0.4710 -0.2642  0.4655
12259SOL     OW41714   5.746   2.400   4.723  0.3425  0.5501  0.0420
12259SOL    HW141715   5.691   2.387   4.645  0.8522  0.4257 -0.2961
12259SOL    HW241716   5.756   2.495   4.729  0.4378  0.5528 -0.1417
12260SOL     OW41717   3.987   6.318   4.734  0.3187  0.6199 -0.5736
12260SOL    HW141718   4.053   6.259   4.771 -0.8969 -0.9982 -0.8959
12260SOL    HW241719   3.962   6.374   4.808  0.7254  0.0183  0.0348
12261SOL     OW41720   4.027   9.414   3.700  0.6068  0.0974  0.0735
12261SOL    HW141721   4.057   9.444   3.614 -0.1286 -1.0535 -0.6240
12261SOL    HW241722   4.093   9.350   3.727  0.3475 -0.2390 -0.0808
12262SOL     OW41723  11.040   9.386   2.003 -0.0628 -0.0895  0.3706
12262SOL    HW141724  11.049   9.402   2.097  0.2666  0.5808  0.2306
12262SOL    HW241725  11.090   9.457   1.962 -0.6180 -0.0905 -0.3179
12263SOL     OW41726   2.392   1.378   1.329  0.5081  0.5511  0.5955
12263SOL    HW141727   2.371   1.424   1.411 -0.8664 -1.0089  1.1964
12263SOL    HW241728   2.397   1.286   1.355  0.2104  0.0413 -1.0480
12264SOL     OW41729   4.964   7.778   1.948 -0.0823 -0.4115  0.0526
12264SOL    HW141730   5.058   7.776   1.927  0.0851  2.8518 -0.0280
12264SOL    HW241731   4.961   7.780   2.043  0.0508  1.0365  0.0421
12265SOL     OW41732   7.141   6.392   4.246  0.7811 -0.6639  0.4413
12265SOL    HW141733   7.214   6.430   4.295  0.9135 -0.3636  0.0099
12265SOL    HW241734   7.121   6.456   4.178 -0.0998 -0.5827  0.7519
12266SOL     OW41735   3.587   0.283   0.045 -0.8335  0.6099 -0.2013
12266SOL    HW141736   3.659   0.339   0.074 -1.5475  1.8155 -0.6977
12266SOL    HW241737   3.526   0.282   0.119 -1.2486  1.2465 -0.5277
12267SOL     OW41738   4.195   4.459  10.310  0.1228  0.3206 -0.4808
12267SOL    HW141739   4.192   4.474  10.216 -0.6850 -0.9738 -0.6750
12267SOL    HW241740   4.189   4.364  10.320  1.1410  0.3714  0.8450
12268SOL     OW41741   5.772   1.598   8.125 -0.0085 -0.4471 -0.1773
12268SOL    HW141742   5.838   1.528   8.127  0.6621  0.1307 -1.1101
12268SOL    HW241743   5.709   1.569   8.059 -0.8984 -1.1452  0.9294
12269SOL     OW41744   0.363   7.416   1.319  0.3182  0.2540  0.2064
12269SOL    HW141745   0.363   7.462   1.236 -0.9508  1.1227  0.6600
12269SOL    HW241746   0.440   7.449   1.365  0.3722  0.6453 -0.1591
12270SOL     OW41747   8.287   5.881   9.275 -0.0170  0.0626 -0.4054
12270SOL    HW141748   8.212   5.938   9.292  0.0782  0.3837 -1.0349
12270SOL    HW241749   8.358   5.941   9.250  0.8008 -0.1284  1.3014
12271SOL     OW41750   5.000  11.110   9.050 -0.3276 -0.7461 -0.0752
12271SOL    HW141751   4.908  11.114   9.076 -0.2350  0.5920  0.0992
12271SOL    HW241752   5.042  11.060   9.121 -0.6803 -0.1395  0.5770
12272SOL     OW41753   3.226  10.638   6.707  0.4419  0.0010 -0.4257
12272SOL    HW141754   3.220  10.605   6.796  0.4877 -0.6491 -0.6621
12272SOL    HW241755   3.301  10.698   6.708  0.9615 -0.6491 -0.2343
12273SOL     OW41756   6.986   7.912   1.312 -0.3739 -0.1197 -0.7188
12273SOL    HW141757   7.024   7.825   1.301 -1.3069 -0.9295  1.8684
12273SOL    HW241758   6.893   7.901   1.292 -1.1028 -0.5051  2.4589
12274SOL     OW41759   4.106   5.058   3.052  0.0939  0.3571 -0.0924
12274SOL    HW141760   4.196   5.028   3.060  0.2687  0.7423 -0.5748
12274SOL    HW241761   4.091   5.109   3.131  0.3657  0.4513 -0.0993
12275SOL     OW41762   1.127   6.641   6.418 -0.3724  0.0436 -0.3262
12275SOL    HW141763   1.136   6.608   6.329  0.5501  0.3892 -0.3750
12275SOL    HW241764   1.042   6.609   6.448 -1.0300  0.5611 -1.5937
12276SOL     OW41765   1.168   9.047  10.158  0.1166 -0.2796  0.0517
12276SOL    HW141766   1.136   9.034  10.068  1.4482  0.6112 -0.5848
12276SOL    HW241767   1.210   8.964  10.181  0.5038 -0.2379 -0.4804
12277SOL     OW41768   2.532   3.748   4.965  0.0378  0.5962  0.4755
12277SOL    HW141769   2.560   3.724   5.054  1.0312 -0.6839 -0.1460
12277SOL    HW241770   2.601   3.714   4.909 -1.4915 -0.3126 -0.9331
12278SOL     OW41771   9.691   2.391   9.257 -0.2189  0.0849  0.3766
12278SOL    HW141772   9.746   2.340   9.316  0.6661  0.6638  0.0618
12278SOL    HW241773   9.639   2.446   9.316 -2.2112 -2.1008  0.8115
12279SOL     OW41774   2.117   0.308   7.340 -0.1988 -0.0593  0.1813
12279SOL    HW141775   2.034   0.275   7.306  0.6135 -0.9523 -1.0432
12279SOL    HW241776   2.132   0.258   7.421 -0.2662 -0.7853 -0.2531
12280SOL     OW41777   1.627  11.652   4.361 -0.3601 -0.3774 -0.2189
12280SOL    HW141778   1.666  11.706   4.293 -0.7453  0.5469  0.2749
12280SOL    HW241779   1.560  11.708   4.401  0.0599 -0.7782  1.1217
12281SOL     OW41780   6.023   5.734   7.284  0.1306  0.1383 -0.4003
12281SOL    HW141781   6.055   5.671   7.348  0.0959 -0.3265 -0.8391
12281SOL    HW241782   6.085   5.730   7.212  0.1154  0.5886 -0.4442
12282SOL     OW41783  10.027   2.278   0.653  0.5714  0.7990 -0.6337
12282SOL    HW141784  10.101   2.278   0.592 -0.1857  1.3721 -1.5790
12282SOL    HW241785   9.992   2.189   0.648  0.4219  0.8844 -1.1532
12283SOL     OW41786   3.913  11.313   0.142  0.1147 -0.6879  0.9539
12283SOL    HW141787   3.946  11.395   0.177 -1.1563 -0.0334  0.6894
12283SOL    HW241788   3.829  11.299   0.187 -1.2060 -0.2132 -1.1852
12284SOL     OW41789   7.170   6.649   8.639 -0.3944 -0.0131  0.2457
12284SOL    HW141790   7.176   6.728   8.585  0.2505  0.0427  0.3896
12284SOL    HW241791   7.080   6.618   8.625 -1.2556  1.7008  1.5162
12285SOL     OW41792   4.275  11.429  10.019 -0.1516 -0.1528  0.0710
12285SOL    HW141793   4.265  11.523  10.035  2.0027  0.3569 -1.1979
12285SOL    HW241794   4.366  11.410  10.043 -0.2059 -1.6689 -0.7736
12286SOL     OW41795   4.386   3.451   9.110  0.6169 -0.0799 -0.2381
12286SOL    HW141796   4.475   3.428   9.137  1.6990  3.7834  0.1472
12286SOL    HW241797   4.386   3.439   9.015  0.5708 -2.7509  0.0464
12287SOL     OW41798   8.559  10.610  10.269 -0.1878  0.4565 -0.0806
12287SOL    HW141799   8.630  10.653  10.317  0.1729  1.0967 -1.1698
12287SOL    HW241800   8.551  10.524  10.311  1.5811  0.1645 -0.2822
12288SOL     OW41801   8.522   7.270   3.650 -0.1967 -0.0342  0.2771
12288SOL    HW141802   8.519   7.236   3.561 -0.7261 -0.0388  0.2959
12288SOL    HW241803   8.488   7.359   3.643  1.2045  0.5267  0.2245
12289SOL     OW41804   7.401   1.153   8.265 -0.1467  0.5881  0.1343
12289SOL    HW141805   7.479   1.160   8.320 -0.1709 -0.5218  0.3379
12289SOL    HW241806   7.354   1.236   8.278  0.3105  0.7090  1.0656
12290SOL     OW41807   3.006   3.307   7.456  0.4008  0.0527 -0.5768
12290SOL    HW141808   2.948   3.279   7.527  1.0985 -1.3842 -0.5442
12290SOL    HW241809   2.956   3.292   7.376  0.6805 -1.1170 -0.5450
12291SOL     OW41810   0.877   8.933   7.723  0.2050 -0.5499  0.0176
12291SOL    HW141811   0.788   8.919   7.755 -0.4384  1.0589 -0.9287
12291SOL    HW241812   0.928   8.861   7.761 -1.0070 -0.2397  2.4196
12292SOL     OW41813  10.903  10.444   8.462  0.1844 -0.0839 -0.2104
12292SOL    HW141814  10.891  10.416   8.553 -3.3105  1.0097 -0.1502
12292SOL    HW241815  10.945  10.530   8.469  0.5596 -0.3066  0.3327
12293SOL     OW41816   3.867   0.195  11.297 -0.2981 -0.2807 -0.4544
12293SOL    HW141817   3.959   0.224  11.295 -0.4956  1.7202  4.4554
12293SOL    HW241818   3.824   0.248  11.231  1.3863  2.4294  0.4497
12294SOL     OW41819   4.626   8.352   0.779 -0.3770 -0.0636  0.5501
12294SOL    HW141820   4.636   8.423   0.843 -0.8467  1.3164 -0.8637
12294SOL    HW241821   4.676   8.280   0.817  0.1674  1.0183  2.0183
12295SOL     OW41822   4.436   6.011   5.991  0.3331 -0.0394  0.2670
12295SOL    HW141823   4.434   6.038   6.083 -0.3568 -1.0138  0.5601
12295SOL    HW241824   4.344   5.998   5.968  0.4559  0.6875 -0.7329
12296SOL     OW41825   9.903   1.491   0.877 -0.3128 -0.0086 -0.3648
12296SOL    HW141826   9.861   1.480   0.791  1.9289  0.5513 -1.6111
12296SOL    HW241827   9.981   1.435   0.873 -0.5803 -0.6099  1.6520
12297SOL     OW41828   4.718  10.557   5.697  0.5193  0.3297 -0.6933
12297SOL    HW141829   4.738  10.599   5.781 -2.7399 -0.7459  0.7867
12297SOL    HW241830   4.652  10.490   5.719 -0.3400 -0.0958 -4.0832
12298SOL     OW41831   3.546   2.948   4.248 -0.3230  0.2624 -0.3883
12298SOL    HW141832   3.489   2.876   4.222 -2.2609  0.2232  3.2489
12298SOL    HW241833   3.497   3.027   4.226 -0.8005  0.2758  0.6472
12299SOL     OW41834   5.586   0.314   6.634  0.0135  0.2476  0.2238
12299SOL    HW141835   5.542   0.253   6.575  1.9944 -2.3728  1.2693
12299SOL    HW241836   5.659   0.349   6.582 -1.2604  2.0173 -0.4527
12300SOL     OW41837   7.920   1.134   3.804  0.2464  0.2636  0.0095
12300SOL    HW141838   7.832   1.170   3.794 -0.9209 -2.5228 -0.5053
12300SOL    HW241839   7.921   1.055   3.751  3.6242  0.9913 -1.2978
12301SOL     OW41840  10.094   7.839   7.928  0.3787 -0.0565 -0.2587
12301SOL    HW141841  10.121   7.875   7.843  0.8685 -0.0678 -0.1129
12301SOL    HW241842  10.138   7.894   7.992  1.1643 -0.9287 -0.0368
12302SOL     OW41843  10.588   5.143   3.072  0.3087  0.2848 -0.2725
12302SOL    HW141844  10.572   5.056   3.110  1.0780  0.0013 -0.5854
12302SOL    HW241845  10.567   5.204   3.143  1.8667 -0.2452  0.6942
12303SOL     OW41846   3.532   2.798   5.365 -0.1221  0.3165 -0.2701
12303SOL    HW141847   3.584   2.799   5.285 -0.8361  0.2853 -0.7452
12303SOL    HW241848   3.596   2.807   5.436  0.4937  0.6394 -0.8554
12304SOL     OW41849   2.345   5.667   9.607  0.4424 -0.4138  0.7464
12304SOL    HW141850   2.428   5.709   9.628 -0.4899  1.9284  0.0578
12304SOL    HW241851   2.319   5.624   9.689  2.5137 -1.6104  0.8310
12305SOL     OW41852   3.998  10.272   2.434  0.2301 -0.0580  0.1513
12305SOL    HW141853   3.918  10.248   2.481  0.1838  0.0353  0.1203
12305SOL    HW241854   4.059  10.200   2.450  0.3052  0.0989  0.5732
12306SOL     OW41855   5.464   6.936   8.307 -0.2759  0.0584 -0.6426
12306SOL    HW141856   5.424   7.007   8.257 -0.1694  0.2993 -0.3862
12306SOL    HW241857   5.542   6.911   8.256 -0.2888  0.1556 -0.7090
12307SOL     OW41858   8.833  10.055   4.567  0.0302  0.2024  0.1251
12307SOL    HW141859   8.828  10.111   4.645  1.3481 -0.4672  0.7459
12307SOL    HW241860   8.762   9.992   4.578  0.4330 -0.1245  1.0254
12308SOL     OW41861   2.895   7.764   1.724  0.3455 -0.4467 -0.5412
12308SOL    HW141862   2.843   7.693   1.686  1.1598 -0.8919 -0.8590
12308SOL    HW241863   2.831   7.820   1.768 -0.2610 -1.6986  0.2361
12309SOL     OW41864   7.906   4.958   2.421 -0.2802 -0.0453 -0.3668
12309SOL    HW141865   7.832   4.993   2.371 -1.0178 -0.6493  0.2776
12309SOL    HW241866   7.914   4.867   2.391  0.4723  0.1385 -0.7340
12310SOL     OW41867   0.302   4.053   9.839  0.1729 -0.2490 -0.1496
12310SOL    HW141868   0.240   4.125   9.850 -1.5626 -1.2117 -2.7942
12310SOL    HW241869   0.252   3.975   9.863  1.5181 -0.7899  1.0627
12311SOL     OW41870   9.714   5.078  10.967 -0.9390  0.6106  0.1082
12311SOL    HW141871   9.738   5.141  11.035  1.0317 -0.4111  0.4182
12311SOL    HW241872   9.676   5.004  11.014 -1.5848  0.8072 -0.0983
12312SOL     OW41873   2.982   7.421   2.929  0.2656  0.4001  0.1043
12312SOL    HW141874   3.058   7.467   2.893  0.5400 -0.1797 -0.0674
12312SOL    HW241875   3.019   7.354   2.986 -0.0777 -0.5820 -0.8019
12313SOL     OW41876   8.492   1.772   6.029  0.2533  0.6006 -0.5171
12313SOL    HW141877   8.492   1.728   5.944 -1.4520  1.1199 -0.8261
12313SOL    HW241878   8.425   1.840   6.021 -0.2800  0.3660  1.3939
12314SOL     OW41879   6.877   2.360   3.270 -0.5567 -0.3367  0.2464
12314SOL    HW141880   6.876   2.378   3.176 -0.8383  0.5832  0.4117
12314SOL    HW241881   6.939   2.423   3.306  0.1890 -1.2409  0.5890
12315SOL     OW41882   2.837   3.126   6.217 -0.7146  0.1927 -0.3029
12315SOL    HW141883   2.891   3.047   6.219  1.2152  1.4050 -0.9646
12315SOL    HW241884   2.809   3.139   6.307 -2.8263 -2.3134 -0.4912
12316SOL     OW41885   3.498   0.393  10.919  0.0123 -0.4567 -0.1014
12316SOL    HW141886   3.472   0.440  10.840 -2.7337  0.2600  1.0842
12316SOL    HW241887   3.524   0.461  10.981 -1.0759 -0.6772  0.6396
12317SOL     OW41888  10.033  10.144   6.093 -0.2740 -0.7460  0.1422
12317SOL    HW141889   9.991  10.083   6.153 -1.2458 -0.7043 -0.4530
12317SOL    HW241890   9.969  10.215   6.084  1.2826  0.9190  1.6597
12318SOL     OW41891   1.918   3.581   1.394  0.3738 -0.1959 -0.3764
12318SOL    HW141892   1.882   3.637   1.325 -1.4299 -0.3494  0.3754
12318SOL    HW241893   1.854   3.511   1.404  0.1939  0.2158  1.9441
12319SOL     OW41894   7.889   9.555   5.688  0.0740  0.0624  0.2337
12319SOL    HW141895   7.796   9.538   5.673 -0.0170  0.3802  0.4140
12319SOL    HW241896   7.935   9.490   5.636 -0.2523 -0.1348  0.1918
12320SOL     OW41897  11.101   4.903   2.186 -0.2158 -0.3755 -0.0602
12320SOL    HW141898  11.092   4.985   2.235 -0.9903  0.8304 -2.1279
12320SOL    HW241899  11.184   4.866   2.218 -0.5166  0.4788  1.8927
12321SOL     OW41900   0.830   6.247   6.661  0.6447 -0.6832  0.2968
12321SOL    HW141901   0.756   6.277   6.608  1.3831  1.1046  0.2077
12321SOL    HW241902   0.791   6.218   6.743 -0.2382 -0.7274 -0.1258
12322SOL     OW41903   7.503   2.963   2.701 -0.1297 -0.1264  0.1966
12322SOL    HW141904   7.423   2.997   2.740 -0.0156  1.1691 -0.6392
12322SOL    HW241905   7.475   2.926   2.617 -0.0968 -1.2569  0.6611
12323SOL     OW41906   5.279   4.963   9.203  0.0941 -0.0199  0.0579
12323SOL    HW141907   5.369   4.976   9.172 -0.6429  1.2090 -1.7103
12323SOL    HW241908   5.268   4.868   9.202  1.3873 -0.2009  0.3802
12324SOL     OW41909   1.959   2.807   1.672  0.0748 -0.0692 -0.7509
12324SOL    HW141910   1.966   2.824   1.766  0.0674  2.8718 -1.1694
12324SOL    HW241911   1.865   2.812   1.654  0.1293  0.0633 -1.0026
12325SOL     OW41912   6.705   1.086   4.651  0.2259 -0.0430  0.0446
12325SOL    HW141913   6.683   1.025   4.721  0.8195 -0.6032 -0.2526
12325SOL    HW241914   6.639   1.155   4.658 -0.6930 -0.9079  0.1355
12326SOL     OW41915  10.983   1.795   2.037  0.0102  0.2940 -0.0198
12326SOL    HW141916  11.002   1.879   1.995 -2.2250  1.2074  0.6498
12326SOL    HW241917  10.940   1.744   1.968  1.1256 -0.2334 -0.3465
12327SOL     OW41918   2.854   7.148  10.273 -0.0664  0.3372  0.1880
12327SOL    HW141919   2.772   7.098  10.273 -1.0155  1.7495 -2.2085
12327SOL    HW241920   2.834   7.225  10.327 -0.3021  0.6236 -0.3002
12328SOL     OW41921   8.123   2.232   2.314 -0.0780 -0.0539 -0.5552
12328SOL    HW141922   8.061   2.284   2.263 -0.5338  0.4242  0.4694
12328SOL    HW241923   8.179   2.296   2.357  1.7681 -0.4728 -2.1660
12329SOL     OW41924  11.610   7.631   2.785 -0.5981  0.0661  0.2025
12329SOL    HW141925  11.703   7.630   2.808 -0.7616  0.0018  0.8940
12329SOL    HW241926  11.566   7.594   2.862 -1.2840  1.0905  0.3136
12330SOL     OW41927   5.063   6.213  10.972  0.4649 -0.4467  0.0177
12330SOL    HW141928   4.984   6.175  10.933  1.1424 -1.6106 -0.2468
12330SOL    HW241929   5.116   6.240  10.897 -0.4607  2.0727  0.1923
12331SOL     OW41930   1.223   1.271   2.569 -0.2817  0.5205 -0.2942
12331SOL    HW141931   1.277   1.337   2.613 -0.2920  0.2159  0.1962
12331SOL    HW241932   1.215   1.201   2.634  0.1926 -0.2073 -1.0044
12332SOL     OW41933  10.577   8.067   3.747 -0.6461 -0.1185  0.1620
12332SOL    HW141934  10.500   8.109   3.710 -0.5477  0.8122  0.9759
12332SOL    HW241935  10.578   8.095   3.839  1.0795  0.5349 -0.0242
12333SOL     OW41936   1.751   9.673   7.435  0.4681  0.3169 -0.1149
12333SOL    HW141937   1.726   9.600   7.379  1.8916 -1.1939  1.1282
12333SOL    HW241938   1.845   9.684   7.421  0.2911  1.9435 -0.2672
12334SOL     OW41939   2.973   3.168   0.296 -0.1699 -0.1386 -0.4315
12334SOL    HW141940   3.029   3.234   0.256  0.7738 -1.2514 -1.0437
12334SOL    HW241941   2.967   3.098   0.230 -1.6511 -0.4034 -0.0638
12335SOL     OW41942  10.520   1.649  10.554 -0.4165  0.8220  0.7895
12335SOL    HW141943  10.515   1.718  10.488  0.5479 -0.6403 -0.8943
12335SOL    HW241944  10.433   1.646  10.594 -0.9668  1.8586 -0.2925
12336SOL     OW41945   9.031  11.141   6.715 -1.0441 -0.3005  0.2229
12336SOL    HW141946   9.101  11.169   6.657 -0.2931  2.0008  2.0518
12336SOL    HW241947   9.044  11.047   6.725 -0.3506 -0.5219 -2.1290
12337SOL     OW41948   5.703   8.893   5.935 -0.4673  0.0153  0.7448
12337SOL    HW141949   5.646   8.959   5.975 -2.1498  0.4337 -2.0860
12337SOL    HW241950   5.679   8.811   5.979 -1.8496  0.5116  0.9810
12338SOL     OW41951   5.304   8.582   0.089  0.5342 -0.1469 -0.0750
12338SOL    HW141952   5.296   8.528   0.168  0.3940 -0.5694 -0.3798
12338SOL    HW241953   5.214   8.606   0.067  0.6977  1.6736  1.0614
12339SOL     OW41954   4.686   2.714   7.081  0.3269  0.4819  0.1119
12339SOL    HW141955   4.777   2.737   7.061  0.3517  1.2014  1.0020
12339SOL    HW241956   4.634   2.778   7.033  0.3794  1.9913  1.9640
12340SOL     OW41957   1.410  10.037   2.981  0.3086  0.0935 -0.0797
12340SOL    HW141958   1.332  10.091   2.970  0.1199  0.2741  1.8614
12340SOL    HW241959   1.383   9.969   3.043  1.6181 -0.0315  0.3736
12341SOL     OW41960  10.129  10.356  11.459  0.6313  0.2800 -0.2248
12341SOL    HW141961  10.113  10.351  11.553 -2.0971  0.8970 -0.5557
12341SOL    HW241962  10.110  10.267  11.427 -1.7977  0.8392 -0.5267
12342SOL     OW41963   6.077   0.553  10.105 -0.0722 -0.0133 -0.1812
12342SOL    HW141964   5.996   0.536  10.056 -0.5654  1.3215  0.1448
12342SOL    HW241965   6.105   0.639  10.076  1.3539 -0.5267 -0.4071
12343SOL     OW41966  10.077   3.727   6.368 -0.2583 -0.1594  0.6622
12343SOL    HW141967  10.068   3.725   6.272 -1.5449 -0.4539  0.7609
12343SOL    HW241968  10.098   3.637   6.392  1.8630  0.2580  0.5475
12344SOL     OW41969  10.117   6.098   6.353 -0.2975 -0.1957  0.3676
12344SOL    HW141970  10.172   6.027   6.318  0.5461 -0.6342  2.3936
12344SOL    HW241971  10.028   6.071   6.332  0.0809 -1.2109 -0.0380
12345SOL     OW41972   0.131   0.823   1.022  0.1735 -0.3700  0.7557
12345SOL    HW141973   0.079   0.785   0.952 -1.4556  2.1218  0.4957
12345SOL    HW241974   0.218   0.835   0.983 -0.6737  0.8801 -0.9042
12346SOL     OW41975   7.208   7.910   4.323 -0.3275 -0.1539 -0.1110
12346SOL    HW141976   7.156   7.949   4.394 -0.0089  0.6314 -0.2979
12346SOL    HW241977   7.212   7.979   4.256  0.1197 -0.5708 -0.5189
12347SOL     OW41978   6.177   3.054   7.006 -0.2334  0.1102 -0.3661
12347SOL    HW141979   6.114   3.098   6.948 -0.5239  1.0224  0.6074
12347SOL    HW241980   6.130   3.045   7.089  0.7372  0.3294  0.2151
12348SOL     OW41981   1.822   5.481  11.339  0.3249 -0.3809  0.0746
12348SOL    HW141982   1.883   5.536  11.289 -1.3829  0.5342 -1.1199
12348SOL    HW241983   1.827   5.395  11.297  0.3540 -0.1493 -0.4011
12349SOL     OW41984   0.231   6.438   2.934 -0.0709 -0.1280 -0.1000
12349SOL    HW141985   0.201   6.424   2.844 -2.6841  1.3918  0.4407
12349SOL    HW241986   0.184   6.372   2.985  1.3787 -0.9628  0.1938
12350SOL     OW41987   8.016   3.235   0.650 -0.1122  0.2544 -0.5760
12350SOL    HW141988   7.926   3.247   0.617  0.0606  0.3892 -1.0097
12350SOL    HW241989   8.068   3.223   0.571  0.0723 -1.1097 -0.2646
12351SOL     OW41990   4.921   5.213   4.309  0.6408 -0.2629  0.0253
12351SOL    HW141991   4.903   5.146   4.242 -2.3409  1.1126 -0.7069
12351SOL    HW241992   4.862   5.191   4.381  1.2884  0.3150  0.7525
12352SOL     OW41993   6.996   1.085   4.557 -0.0127 -0.1191 -0.2247
12352SOL    HW141994   6.909   1.108   4.592  0.1380  0.4200 -0.1936
12352SOL    HW241995   7.013   0.997   4.590 -0.9471 -0.6047 -0.9770
12353SOL     OW41996   1.897   1.291   4.956 -0.4405  0.5604  0.2067
12353SOL    HW141997   1.879   1.378   4.994  0.0020 -0.2920  2.5708
12353SOL    HW241998   1.811   1.250   4.952 -0.5001  0.6717  0.3035
12354SOL     OW41999  11.204   3.656   3.027 -0.0450  0.3967  0.2543
12354SOL    HW142000  11.256   3.717   2.975  1.1199 -0.5907  0.2149
12354SOL    HW242001  11.220   3.571   2.987 -1.3490  0.0065  0.5360
12355SOL     OW42002   7.491   9.540   6.254  0.3139 -0.2503  0.0675
12355SOL    HW142003   7.569   9.570   6.207 -0.2040  0.3840 -0.4115
12355SOL    HW242004   7.426   9.609   6.239 -0.3531 -0.7912  0.4130
12356SOL     OW42005   2.136   4.189   7.563 -0.8240  0.1983  0.2208
12356SOL    HW142006   2.068   4.231   7.510 -1.1515  0.0505  0.5170
12356SOL    HW242007   2.106   4.202   7.653 -0.5876 -0.0930  0.3406
12357SOL     OW42008  10.866   6.343   4.669  0.3634 -0.1671 -0.1123
12357SOL    HW142009  10.806   6.360   4.742  0.0300  0.1523 -0.4531
12357SOL    HW242010  10.817   6.283   4.612 -0.0597  0.9314 -0.9226
12358SOL     OW42011   6.236  11.647   7.151 -0.1706 -0.0789  0.0592
12358SOL    HW142012   6.222  11.742   7.147 -0.5855 -0.0827  1.1964
12358SOL    HW242013   6.217  11.617   7.062 -0.4338  0.8478 -0.2138
12359SOL     OW42014   1.312   9.923   8.685 -0.2750  0.0416  0.0805
12359SOL    HW142015   1.377   9.854   8.678 -0.5910 -0.3167  0.6173
12359SOL    HW242016   1.352   9.988   8.742 -0.9588 -0.8775  1.6728
12360SOL     OW42017  10.278   4.625   4.838 -0.3450 -0.5798 -0.0909
12360SOL    HW142018  10.182   4.623   4.844 -0.3620 -1.5141 -0.5514
12360SOL    HW242019  10.306   4.671   4.917 -1.1309 -1.1323  0.5172
12361SOL     OW42020   5.640   0.702   4.151 -0.1990 -0.0473 -0.1923
12361SOL    HW142021   5.713   0.689   4.090 -0.1184 -0.5439  0.0097
12361SOL    HW242022   5.661   0.648   4.226 -1.8698 -2.0796 -1.0766
12362SOL     OW42023   3.880   0.832   9.565 -0.1893 -0.4919  0.4005
12362SOL    HW142024   3.966   0.799   9.591 -0.6069 -0.7866  1.4478
12362SOL    HW242025   3.891   0.927   9.562  0.4781 -0.5864 -0.6547
12363SOL     OW42026   8.755   6.010   7.909 -0.4450  0.3024 -0.4844
12363SOL    HW142027   8.686   5.944   7.903 -0.7643  0.7823 -3.9347
12363SOL    HW242028   8.836   5.960   7.915 -0.7371 -0.4695 -2.3737
12364SOL     OW42029   8.599   7.437   3.365  0.3945 -0.3960  0.6944
12364SOL    HW142030   8.572   7.498   3.297 -0.2354 -0.9579  0.4325
12364SOL    HW242031   8.687   7.466   3.390 -0.2613  1.1732  1.2409
12365SOL     OW42032   6.449   7.491   3.739 -0.2567  0.4776 -0.5048
12365SOL    HW142033   6.539   7.483   3.771 -0.1102 -0.8821 -1.1868
12365SOL    HW242034   6.436   7.585   3.730  0.9715  0.7163 -0.0388
12366SOL     OW42035   6.304  11.049   3.967  0.6526  0.3688 -0.3282
12366SOL    HW142036   6.212  11.068   3.950  0.8212  0.9680 -0.6103
12366SOL    HW242037   6.326  10.977   3.908 -0.2262 -1.3655  1.3506
12367SOL     OW42038   2.239   2.849   7.615  0.3994  0.5211  0.4964
12367SOL    HW142039   2.320   2.827   7.569 -0.4698  0.1588 -0.9261
12367SOL    HW242040   2.176   2.868   7.545 -1.6251 -2.1982  1.3798
12368SOL     OW42041   1.138   0.708   1.227 -0.1944 -0.1637  0.4602
12368SOL    HW142042   1.162   0.718   1.135 -1.4946  0.9392  0.1998
12368SOL    HW242043   1.173   0.787   1.269 -0.6480 -0.0623  0.6600
12369SOL     OW42044   7.193   6.730   3.142 -0.0490 -0.4491 -0.2682
12369SOL    HW142045   7.126   6.699   3.203 -0.3611 -0.8376 -0.7975
12369SOL    HW242046   7.241   6.652   3.117  0.2975 -0.2406 -0.2579
12370SOL     OW42047   4.811   0.401   9.139 -0.6181 -0.0328  0.1170
12370SOL    HW142048   4.773   0.484   9.167  1.3253  0.9188  0.1368
12370SOL    HW242049   4.758   0.334   9.181 -4.2969  1.0012 -2.3975
12371SOL     OW42050   2.329  11.159  10.991 -0.3573  0.2095  0.2229
12371SOL    HW142051   2.348  11.076  10.949 -0.7731  0.3767 -0.3033
12371SOL    HW242052   2.256  11.140  11.050  0.7659 -0.2148  1.5318
12372SOL     OW42053   9.424   5.539   6.870 -0.3510 -0.5780 -0.0421
12372SOL    HW142054   9.419   5.476   6.798  1.4095 -0.8346  0.0212
12372SOL    HW242055   9.347   5.594   6.858 -1.0500 -1.7120 -1.0734
12373SOL     OW42056   8.686  10.814   0.782 -0.2444  0.0666  0.4417
12373SOL    HW142057   8.779  10.831   0.769 -0.3217 -0.3760 -0.7424
12373SOL    HW242058   8.684  10.731   0.830 -0.0472 -0.6082 -0.6904
12374SOL     OW42059   2.576   4.631   2.613 -0.7876 -0.1796  0.0481
12374SOL    HW142060   2.566   4.586   2.697 -0.2698 -0.2849  0.0537
12374SOL    HW242061   2.495   4.682   2.604 -1.3635 -1.0731  0.0609
12375SOL     OW42062   2.818   3.723   3.706 -1.3114  0.5028 -0.8984
12375SOL    HW142063   2.861   3.694   3.786  2.0771  1.2173 -2.3150
12375SOL    HW242064   2.817   3.819   3.712  0.6823  0.6750 -2.4347
12376SOL     OW42065   4.156   2.166   0.630  0.2138 -0.2981 -0.3766
12376SOL    HW142066   4.148   2.085   0.579 -0.4170 -1.3287  1.2804
12376SOL    HW242067   4.245   2.197   0.612  0.1798 -0.8774 -1.6950
12377SOL     OW42068   6.203   1.022   0.505 -0.1406  0.1063  0.0526
12377SOL    HW142069   6.193   1.005   0.599 -3.2071 -0.8549 -0.3090
12377SOL    HW242070   6.261   0.953   0.474  0.0841 -0.1870  1.0864
12378SOL     OW42071   8.451   3.162   8.566 -0.3343 -0.0531 -0.0260
12378SOL    HW142072   8.488   3.074   8.553  0.5633  0.5237 -1.7940
12378SOL    HW242073   8.400   3.178   8.486 -0.8131  0.8854  0.4558
12379SOL     OW42074   9.787   1.906   6.190  0.1048  0.1298  0.1527
12379SOL    HW142075   9.791   1.989   6.143  1.4488  0.0039  0.0266
12379SOL    HW242076   9.762   1.842   6.123 -0.6982  0.3794  0.2027
12380SOL     OW42077   0.301   2.958   1.014 -0.9715 -0.1170  0.4362
12380SOL    HW142078   0.244   2.982   1.087  1.6585  1.7497  2.0482
12380SOL    HW242079   0.277   3.018   0.944 -0.1651  1.6351  1.5793
12381SOL     OW42080   0.019  10.619   1.429  0.4142 -1.1103  0.1807
12381SOL    HW142081   0.096  10.676   1.429  0.8024 -1.6256 -0.1066
12381SOL    HW242082   0.024  10.573   1.513  0.4554 -1.1827  0.1393
12382SOL     OW42083   7.587   1.438   0.098  0.2564  0.2026  0.3941
12382SOL    HW142084   7.494   1.451   0.114 -0.0719  0.3076 -1.4333
12382SOL    HW242085   7.624   1.421   0.185 -1.4026  0.4395  1.1824
12383SOL     OW42086  10.247   5.779   9.298  0.2468  0.2218  0.7532
12383SOL    HW142087  10.204   5.836   9.361 -1.2347 -0.1905  0.1634
12383SOL    HW242088  10.219   5.813   9.212  0.6719 -0.3890  0.3664
12384SOL     OW42089   0.309   6.255  10.685  0.0536  0.1945 -0.4397
12384SOL    HW142090   0.362   6.272  10.607 -1.9349 -1.7979 -2.3532
12384SOL    HW242091   0.230   6.211  10.652 -0.6067 -1.3226  2.7640
12385SOL     OW42092  11.582   8.773   9.403 -0.4793  0.5555  0.8907
12385SOL    HW142093  11.665   8.814   9.378 -0.1123 -0.6919 -0.0041
12385SOL    HW242094  11.606   8.711   9.472 -0.8944  1.1612  1.5947
12386SOL     OW42095   1.112   9.033   9.185 -0.0639 -1.0340 -0.3093
12386SOL    HW142096   1.100   9.127   9.172 -1.2859 -1.4958 -3.3014
12386SOL    HW242097   1.198   9.026   9.228 -0.6345  1.4473  1.4589
12387SOL     OW42098   5.966   6.610   8.750  0.0304  0.3339  0.2619
12387SOL    HW142099   5.984   6.559   8.828 -1.1003 -1.5558 -0.6224
12387SOL    HW242100   5.870   6.615   8.746  0.0939  1.5502 -0.3052
12388SOL     OW42101   4.727  11.486   2.447  0.0749 -0.0894 -0.1434
12388SOL    HW142102   4.802  11.533   2.483 -0.2173 -1.1256  1.9392
12388SOL    HW242103   4.754  11.462   2.358  2.1144 -0.2141  0.4617
12389SOL     OW42104   6.977   0.177   4.469 -0.1527  0.2588  0.5628
12389SOL    HW142105   6.908   0.230   4.508 -0.8478  0.5361 -0.9423
12389SOL    HW242106   6.932   0.127   4.400  0.9911 -0.1948  0.1214
12390SOL     OW42107   7.069   8.919   8.468  0.4000  0.0083 -0.0753
12390SOL    HW142108   7.131   8.941   8.398  2.8010  0.6848  2.1149
12390SOL    HW242109   7.124   8.905   8.545 -2.1685  0.0713  1.8893
12391SOL     OW42110  10.521   7.043   9.505  0.0953 -0.1431 -0.0176
12391SOL    HW142111  10.438   7.072   9.542  0.2682  0.4573 -0.0964
12391SOL    HW242112  10.571   7.123   9.492  0.8043 -0.5198  0.3095
12392SOL     OW42113   0.544   3.380   2.684  0.6585  0.0683 -0.5637
12392SOL    HW142114   0.504   3.293   2.675 -2.3938  0.9646  2.3737
12392SOL    HW242115   0.574   3.384   2.775 -0.5040  2.4726 -0.2033
12393SOL     OW42116   8.152  10.716   8.731  0.3726  0.4271 -0.5082
12393SOL    HW142117   8.208  10.677   8.664  0.4237  0.5831 -0.5556
12393SOL    HW242118   8.081  10.653   8.742  1.1136 -0.2918  0.3249
12394SOL     OW42119   8.392   7.162   0.997  0.5110  0.0038  0.1828
12394SOL    HW142120   8.399   7.074   1.033 -0.9692 -0.0612  0.3533
12394SOL    HW242121   8.373   7.149   0.905 -1.8395  0.0774  0.6041
12395SOL     OW42122  10.383   4.986   8.937  0.2207 -0.1988 -0.4633
12395SOL    HW142123  10.353   5.045   9.006  2.4464 -1.2424  1.5337
12395SOL    HW242124  10.331   4.906   8.949 -1.0683  0.4311 -1.5975
12396SOL     OW42125  10.126   1.040  10.290  0.4948 -0.6246 -0.5862
12396SOL    HW142126  10.034   1.043  10.261  0.4015 -1.2108 -0.3706
12396SOL    HW242127  10.141   1.124  10.332 -0.7001 -1.4447  1.6350
12397SOL     OW42128   9.792  10.338   6.047 -0.2637 -0.2345  0.3621
12397SOL    HW142129   9.846  10.414   6.068  0.3354 -0.4004 -0.5533
12397SOL    HW242130   9.784  10.339   5.952 -2.5072  0.2067  0.5119
12398SOL     OW42131  10.654   4.694   6.327  0.0761 -0.1741  0.8104
12398SOL    HW142132  10.658   4.609   6.283  0.5327 -0.2368  0.9720
12398SOL    HW242133  10.737   4.702   6.374 -0.0929  0.2232  1.0558
12399SOL     OW42134  10.641   7.460   0.063  0.0307 -0.3774  0.2151
12399SOL    HW142135  10.665   7.463   0.156 -1.1683 -0.4532  0.5417
12399SOL    HW242136  10.627   7.552   0.040  0.2400 -0.3670  0.1205
12400SOL     OW42137  10.985  10.393   7.542 -0.4810 -0.7407  0.6047
12400SOL    HW142138  11.063  10.353   7.503  0.9376  1.5106  0.9725
12400SOL    HW242139  10.982  10.358   7.632 -0.8176 -2.0052  0.1204
12401SOL     OW42140   6.721   0.704   9.555  0.0268 -0.6959 -0.5417
12401SOL    HW142141   6.738   0.644   9.482 -0.3704 -2.3605  0.6686
12401SOL    HW242142   6.785   0.679   9.622 -0.0979  0.3067 -0.0292
12402SOL     OW42143   5.457   3.696   0.421  0.2620 -0.3090 -0.1505
12402SOL    HW142144   5.419   3.624   0.372  0.7580  0.3945 -1.6131
12402SOL    HW242145   5.391   3.719   0.487 -1.2780  0.0013 -1.7458
12403SOL     OW42146   9.852   8.145   6.703  0.9220 -0.1853  0.1595
12403SOL    HW142147   9.776   8.172   6.652  1.5973  1.2658 -0.1150
12403SOL    HW242148   9.919   8.122   6.639  0.9321 -0.8650  0.4009
12404SOL     OW42149   6.422  11.098   4.472  0.5401 -0.1735  0.1161
12404SOL    HW142150   6.402  11.011   4.507 -3.7414  1.3799  2.1638
12404SOL    HW242151   6.402  11.092   4.379  0.1786 -1.3385  0.2530
12405SOL     OW42152   6.411   4.579   5.137 -0.3435  0.7916 -0.3836
12405SOL    HW142153   6.328   4.562   5.092  0.2982 -1.7561 -0.7459
12405SOL    HW242154   6.407   4.524   5.215  1.3784 -0.1128 -0.9031
12406SOL     OW42155   2.167   0.241  11.155  0.6082 -0.0149  0.0143
12406SOL    HW142156   2.138   0.267  11.068 -0.0389  1.9519  0.7818
12406SOL    HW242157   2.204   0.153  11.142  1.1154  0.4753 -2.3457
12407SOL     OW42158   5.466   3.310   7.142  0.6737  0.0647  0.0133
12407SOL    HW142159   5.476   3.299   7.236 -0.3346 -2.0269 -0.0613
12407SOL    HW242160   5.533   3.254   7.104 -0.8159 -1.4868 -0.4609
12408SOL     OW42161   8.374  10.778   8.283  0.6546 -0.0097 -0.2745
12408SOL    HW142162   8.374  10.802   8.191  0.2220  0.6212 -0.1160
12408SOL    HW242163   8.299  10.823   8.320  0.7556 -0.3518  0.3653
12409SOL     OW42164   8.039   4.105   4.959  0.3291 -0.2049 -0.1433
12409SOL    HW142165   8.021   4.198   4.973 -0.7982 -0.4595  0.1478
12409SOL    HW242166   8.029   4.092   4.864  0.2486 -0.0840 -0.1509
12410SOL     OW42167  11.014   9.440  10.045 -0.2267  0.1465  0.6362
12410SOL    HW142168  11.042   9.487  10.123 -0.8360 -1.1380  1.6557
12410SOL    HW242169  11.090   9.388  10.019  0.4314  1.5586 -0.4652
12411SOL     OW42170   9.744   6.019   5.746  0.4619  0.3385 -0.3440
12411SOL    HW142171   9.831   6.044   5.716 -0.2188  1.5982 -1.3334
12411SOL    HW242172   9.713   5.957   5.681  1.2076 -1.3802  0.8554
12412SOL     OW42173   0.232   8.891   5.140  0.1758  0.0903  0.4320
12412SOL    HW142174   0.240   8.888   5.045  0.0203  1.1893  0.3726
12412SOL    HW242175   0.168   8.961   5.156 -0.0482 -0.3110  1.3308
12413SOL     OW42176   9.034   5.923   6.739  0.4889 -0.0106 -0.2264
12413SOL    HW142177   9.044   5.986   6.668 -0.4031  1.2544  0.7160
12413SOL    HW242178   8.954   5.874   6.717  1.4846 -1.2760 -1.2472
12414SOL     OW42179   2.260   0.450   6.519  0.2547  0.3539 -0.7578
12414SOL    HW142180   2.249   0.371   6.466  1.3024  0.0969 -0.6129
12414SOL    HW242181   2.313   0.422   6.594 -1.2388  0.6985  0.4753
12415SOL     OW42182   1.433  10.087   7.362  0.6688  0.8478  0.7039
12415SOL    HW142183   1.526  10.073   7.377  0.7361  0.3663 -0.1366
12415SOL    HW242184   1.389  10.018   7.411  0.8333  0.0416 -0.2657
12416SOL     OW42185   5.318  10.690  10.133 -0.3736  0.2227  0.6642
12416SOL    HW142186   5.334  10.725  10.046  0.4826 -0.5195  0.5011
12416SOL    HW242187   5.233  10.725  10.159 -1.0486 -0.2621 -0.8228
12417SOL     OW42188  10.321  10.252   9.244 -0.4856 -0.6810  0.1908
12417SOL    HW142189  10.259  10.216   9.179 -1.0262  0.4809  0.0281
12417SOL    HW242190  10.325  10.346   9.223 -1.4682 -0.0663  2.4636
12418SOL     OW42191   4.927   6.375   2.282 -0.3339 -0.2260  0.5440
12418SOL    HW142192   4.883   6.309   2.336 -0.1153 -1.8485 -1.1456
12418SOL    HW242193   4.949   6.329   2.201  0.5380  1.7419 -0.4151
12419SOL     OW42194   8.464   0.916   2.867  0.0305 -0.2723  0.2180
12419SOL    HW142195   8.462   0.922   2.772 -1.0103 -1.8887  0.1100
12419SOL    HW242196   8.464   1.007   2.897 -1.5104  0.2637 -1.2989
12420SOL     OW42197  11.358   9.619   4.664 -0.0415 -0.7128 -0.0458
12420SOL    HW142198  11.401   9.534   4.661  1.3500 -0.0159 -0.8902
12420SOL    HW242199  11.418   9.674   4.715  0.4136  0.4406 -1.7589
12421SOL     OW42200   2.702   9.810   9.885 -0.0994 -0.7151  0.4496
12421SOL    HW142201   2.654   9.808   9.802  0.1307  2.1972  0.1529
12421SOL    HW242202   2.754   9.890   9.881  1.5239 -1.5569  2.5787
12422SOL     OW42203  11.640   5.599   3.561 -0.7618  0.3178  0.5721
12422SOL    HW142204  11.636   5.644   3.476 -3.6351 -0.9886 -0.1193
12422SOL    HW242205  11.653   5.669   3.625 -0.2292  1.5303 -0.8058
12423SOL     OW42206  11.157   8.733   8.440  0.4472 -0.2075 -0.1748
12423SOL    HW142207  11.134   8.679   8.365  0.1930  0.2252 -0.4120
12423SOL    HW242208  11.074   8.751   8.484  0.2295  1.5932 -1.1945
12424SOL     OW42209   6.285   7.224  10.672  0.2994 -0.1430  0.1401
12424SOL    HW142210   6.291   7.283  10.597  1.2748 -0.7947 -0.3121
12424SOL    HW242211   6.333   7.269  10.742  1.0309 -0.3839 -0.1988
12425SOL     OW42212   9.358   1.584  11.074  0.0940  0.0050 -0.1452
12425SOL    HW142213   9.290   1.534  11.119 -0.7989  1.8885  0.7118
12425SOL    HW242214   9.390   1.525  11.007 -0.1017 -2.1194  1.5144
12426SOL     OW42215   4.688  11.634   7.386  0.3440  0.7924  0.2498
12426SOL    HW142216   4.689  11.550   7.339 -0.1531  0.3296  1.0597
12426SOL    HW242217   4.730  11.615   7.470  1.1582  1.6031  0.0383
12427SOL     OW42218  10.961   2.562   9.900 -0.3327 -0.2974 -0.1384
12427SOL    HW142219  10.900   2.560   9.826  0.6868 -1.6318 -0.9897
12427SOL    HW242220  11.047   2.562   9.859  0.2432 -0.9110  1.0549
12428SOL     OW42221   2.173   6.952   1.690 -0.7198 -0.5133  0.2654
12428SOL    HW142222   2.264   6.942   1.662 -0.7105 -1.7841  0.7032
12428SOL    HW242223   2.166   7.044   1.717  0.1839 -0.1706 -0.5870
12429SOL     OW42224   7.086   3.017   0.223 -0.7307  0.0291 -0.1920
12429SOL    HW142225   7.072   2.968   0.142  0.8657 -1.7848  0.5445
12429SOL    HW242226   7.087   2.950   0.291 -0.7189  1.3720  1.1772
12430SOL     OW42227   9.773   6.381  10.632 -0.3620 -0.1263  0.6869
12430SOL    HW142228   9.797   6.432  10.709 -0.2307  1.9618 -0.6494
12430SOL    HW242229   9.705   6.433  10.589 -0.9148 -1.5666 -0.2717
12431SOL     OW42230   0.166   5.320   9.719  0.3045 -0.7358 -0.3561
12431SOL    HW142231   0.130   5.269   9.792  1.8036 -0.5006  0.5849
12431SOL    HW242232   0.154   5.411   9.746  1.1902 -0.6522 -0.2219
12432SOL     OW42233   0.768   4.918   8.711  0.2821  0.1203  0.0567
12432SOL    HW142234   0.856   4.903   8.677 -0.5536 -0.2869 -2.1062
12432SOL    HW242235   0.720   4.955   8.636 -1.5129 -0.1521  1.0213
12433SOL     OW42236  10.866   3.276   8.963  0.4623 -0.1341 -0.5179
12433SOL    HW142237  10.803   3.346   8.945  0.4750  0.4335  1.4740
12433SOL    HW242238  10.951   3.316   8.946  0.4077 -0.2409 -1.0918
12434SOL     OW42239  10.878   2.777   7.005 -0.2286 -0.5704 -0.0417
12434SOL    HW142240  10.883   2.871   6.984 -1.2251 -0.0101  1.9244
12434SOL    HW242241  10.956   2.762   7.059 -0.1591 -0.8402 -0.2183
12435SOL     OW42242   3.987   9.669   3.733 -0.7316 -0.2935 -0.1056
12435SOL    HW142243   4.036   9.693   3.654  1.2168  1.7587  1.5737
12435SOL    HW242244   4.002   9.575   3.743  0.0930 -0.3296 -1.4493
12436SOL     OW42245   2.981   0.407   9.136 -0.0510 -0.3470  0.6864
12436SOL    HW142246   3.022   0.340   9.082 -0.7031 -0.2414  0.0482
12436SOL    HW242247   2.897   0.369   9.162 -1.1947  0.8146 -1.0704
12437SOL     OW42248   8.960   8.515   9.744  0.5444  0.1350 -0.0550
12437SOL    HW142249   8.962   8.565   9.663 -1.3531  0.6474  0.1669
12437SOL    HW242250   9.049   8.483   9.755  1.6004  2.5993 -0.7447
12438SOL     OW42251   2.507  10.906  10.248  0.0767  0.7474 -0.0412
12438SOL    HW142252   2.481  10.971  10.183 -0.9553  1.6206  1.1712
12438SOL    HW242253   2.453  10.829  10.228 -0.3002  1.0427 -0.1815
12439SOL     OW42254   5.830   7.643   4.029 -0.2340  0.1980 -0.2280
12439SOL    HW142255   5.851   7.549   4.033 -0.8165  0.0963  0.9679
12439SOL    HW242256   5.892   7.679   3.966  0.7052 -0.8197  0.0754
12440SOL     OW42257  11.612   9.278  11.374  0.3897  0.0067 -1.0057
12440SOL    HW142258  11.565   9.207  11.332  0.3762 -0.8962  0.4869
12440SOL    HW242259  11.552   9.311  11.441  0.8244  0.6794 -0.9305
12441SOL     OW42260   9.335   2.681   1.924  1.3110 -0.2600  0.1732
12441SOL    HW142261   9.366   2.762   1.884  0.4453 -0.1463 -0.2986
12441SOL    HW242262   9.271   2.710   1.989  1.6343 -0.5220  0.6088
12442SOL     OW42263   5.552   3.985   4.011  0.1088  0.0176  0.2190
12442SOL    HW142264   5.536   3.917   4.078 -1.7869  0.7257  0.5639
12442SOL    HW242265   5.468   4.030   4.003  0.6155  0.6962 -1.8503
12443SOL     OW42266   6.529   5.049   5.712 -0.1675  0.4167  0.0514
12443SOL    HW142267   6.452   5.090   5.752 -0.4924  0.7348 -0.8671
12443SOL    HW242268   6.522   5.071   5.619  0.8585  0.1574 -0.0977
12444SOL     OW42269  11.535   6.191   1.667  0.3466  0.3895  0.3933
12444SOL    HW142270  11.512   6.138   1.743  1.2573 -1.1255 -0.3410
12444SOL    HW242271  11.466   6.174   1.603  1.7097 -1.6756 -0.6344
12445SOL     OW42272  10.497  11.223   6.816 -0.2280 -0.2691 -0.2105
12445SOL    HW142273  10.530  11.171   6.743 -1.2273  0.4491 -1.1917
12445SOL    HW242274  10.410  11.187   6.834 -0.7098  0.6912 -0.5497
12446SOL     OW42275   2.894  11.147   7.083 -0.3945  0.2023  0.1710
12446SOL    HW142276   2.983  11.153   7.047  0.4666 -1.1263  1.8773
12446SOL    HW242277   2.842  11.208   7.031  1.6165  1.3493 -0.5976
12447SOL     OW42278   0.801  11.655   5.377 -0.4207  0.3516  0.8200
12447SOL    HW142279   0.737  11.596   5.416 -0.2516 -0.2589  0.1937
12447SOL    HW242280   0.882  11.605   5.373 -0.4488  0.3580 -0.3639
12448SOL     OW42281   6.554  10.784   6.574 -0.1919  0.0489 -0.0883
12448SOL    HW142282   6.639  10.745   6.554 -0.6989 -0.2623 -1.7326
12448SOL    HW242283   6.537  10.758   6.665  1.7049  0.5975  0.4599
12449SOL     OW42284   1.022   1.324   1.692  0.1154  0.0827 -0.3530
12449SOL    HW142285   1.028   1.403   1.638  0.5669  1.2142  1.2608
12449SOL    HW242286   0.962   1.348   1.762 -0.1752 -1.2199 -0.1307
12450SOL     OW42287   2.226   1.543   7.897 -0.2922  0.4676  0.4953
12450SOL    HW142288   2.304   1.595   7.878  0.9212 -1.1478  0.8052
12450SOL    HW242289   2.192   1.518   7.811 -1.2645  2.2190  0.3218
12451SOL     OW42290   5.797   2.939   9.606 -0.0973 -0.1553 -0.1439
12451SOL    HW142291   5.748   2.892   9.674 -0.5903 -0.6706 -0.8244
12451SOL    HW242292   5.760   2.905   9.524  1.9898 -1.2182 -0.7157
12452SOL     OW42293  10.417   9.540   6.061 -0.0132  0.4792  0.3526
12452SOL    HW142294  10.471   9.618   6.047 -1.3702  1.6482  1.3369
12452SOL    HW242295  10.347   9.570   6.119 -2.1466 -0.7729 -1.4318
12453SOL     OW42296   9.022  10.170   4.838 -0.1860  0.0379 -0.6812
12453SOL    HW142297   9.085  10.221   4.787  0.1822  1.0271  0.7024
12453SOL    HW242298   8.968  10.235   4.882  1.1207 -0.6422  2.1646
12454SOL     OW42299  10.480  10.931   1.886 -0.1693  0.1430  0.2022
12454SOL    HW142300  10.499  10.901   1.798 -1.0339  0.7570 -0.2044
12454SOL    HW242301  10.410  10.996   1.876 -2.3900 -1.8748  1.6020
12455SOL     OW42302   2.630   5.150   6.763  0.5526  0.4515 -0.3046
12455SOL    HW142303   2.718   5.187   6.751  1.5948 -1.3276  1.3066
12455SOL    HW242304   2.642   5.055   6.750 -1.2420  0.2204 -0.5165
12456SOL     OW42305   1.486   1.498   7.478 -0.2686 -0.5615  0.0010
12456SOL    HW142306   1.546   1.424   7.470  0.8304  0.3808 -0.8687
12456SOL    HW242307   1.529   1.569   7.428 -1.3812  0.5879  0.6268
12457SOL     OW42308   2.305   7.382   7.232 -0.3902  0.6088 -0.0352
12457SOL    HW142309   2.348   7.458   7.271  1.8407 -0.1641 -0.8149
12457SOL    HW242310   2.367   7.310   7.246 -0.7027 -0.2480 -2.5976
12458SOL     OW42311  11.662   4.879   7.371 -0.6791 -0.2792  0.4841
12458SOL    HW142312  11.683   4.866   7.279  0.4462 -0.6244  0.7730
12458SOL    HW242313  11.590   4.818   7.389 -0.7774 -0.3409 -0.1086
12459SOL     OW42314   2.437   9.022   7.457  0.3690  0.2433 -0.4333
12459SOL    HW142315   2.465   9.053   7.371 -0.4408 -0.4577 -0.9713
12459SOL    HW242316   2.370   8.957   7.438  1.3045 -1.1015  0.6911
12460SOL     OW42317   2.750   8.528   1.966  0.4283 -0.5486  0.9322
12460SOL    HW142318   2.736   8.441   1.929 -0.3356 -1.5977  3.4446
12460SOL    HW242319   2.835   8.521   2.010  0.7390  0.2424  0.4616
12461SOL     OW42320   3.232   6.383   0.127  0.0600 -0.2323  0.2614
12461SOL    HW142321   3.201   6.448   0.190 -0.6415  1.2532 -1.5374
12461SOL    HW242322   3.156   6.364   0.072  0.8400 -0.9108 -0.6126
12462SOL     OW42323   8.208   7.432   0.473  0.4651 -0.1594 -0.2506
12462SOL    HW142324   8.187   7.344   0.440 -0.9356 -0.9423  2.4871
12462SOL    HW242325   8.294   7.423   0.512  1.3431  0.3349 -1.9513
12463SOL     OW42326   8.121  11.245   8.889  0.9384  0.1066  0.0037
12463SOL    HW142327   8.031  11.262   8.861  1.4602  0.4774 -1.5157
12463SOL    HW242328   8.175  11.274   8.816  2.2972 -0.2897  0.8174
12464SOL     OW42329   1.039   2.653   1.891 -0.4270 -0.5739 -0.4389
12464SOL    HW142330   0.976   2.585   1.917  0.4505 -1.7652 -1.2906
12464SOL    HW242331   1.110   2.646   1.955  0.6814 -1.9884 -1.7395
12465SOL     OW42332  10.611   6.272   3.331 -0.3452 -0.0604 -0.7036
12465SOL    HW142333  10.608   6.213   3.255 -4.0398 -0.4507 -0.4735
12465SOL    HW242334  10.614   6.214   3.406  2.1776  0.3064 -0.4456
12466SOL     OW42335   0.342   1.261  11.330  0.2598  0.0365 -0.0782
12466SOL    HW142336   0.298   1.257  11.415  0.1680 -1.1483 -0.1659
12466SOL    HW242337   0.286   1.211  11.271  0.9921 -0.2722 -0.5281
12467SOL     OW42338   2.332   6.896   6.586 -0.3964 -0.0584  0.7660
12467SOL    HW142339   2.280   6.823   6.552 -0.4057 -0.3117  1.3059
12467SOL    HW242340   2.282   6.929   6.661 -1.4081  1.8145 -0.6521
12468SOL     OW42341   7.350   2.970   4.824 -0.3156  0.1339 -0.3059
12468SOL    HW142342   7.412   3.036   4.792  1.9041  0.1436  3.4045
12468SOL    HW242343   7.280   3.021   4.865 -1.2732  0.1075 -1.8398
12469SOL     OW42344   8.310   9.839   2.314  0.1077 -0.1275 -0.5461
12469SOL    HW142345   8.286   9.810   2.402 -1.0571  2.6292  0.1386
12469SOL    HW242346   8.325   9.758   2.266 -0.7049 -1.7665  1.7757
12470SOL     OW42347   5.500   4.318   9.588 -0.0297 -0.6106  0.3001
12470SOL    HW142348   5.503   4.233   9.632  2.2818 -0.8579 -0.2081
12470SOL    HW242349   5.561   4.373   9.637 -1.7458  0.9276  0.8391
12471SOL     OW42350   9.904   4.993   3.767 -0.2748  0.2366  0.5119
12471SOL    HW142351   9.869   4.927   3.708 -1.8238  0.4688  1.1402
12471SOL    HW242352   9.894   4.954   3.854  0.2790  0.6554  0.7649
12472SOL     OW42353  11.278  11.605   5.736  0.3815  0.1715 -0.1257
12472SOL    HW142354  11.237  11.599   5.650  2.3217  1.3076 -1.1824
12472SOL    HW242355  11.267  11.696   5.761  2.3764  0.5635 -0.5416
12473SOL     OW42356   1.513   5.847   3.605  0.4259  0.5097 -0.1941
12473SOL    HW142357   1.572   5.907   3.560  0.1042 -0.0082 -1.3484
12473SOL    HW242358   1.496   5.889   3.689  0.9725  1.5620 -0.5852
12474SOL     OW42359   0.285   1.782   2.435  0.7131 -0.6205 -0.3202
12474SOL    HW142360   0.373   1.804   2.404  0.9032 -0.3303  0.4098
12474SOL    HW242361   0.235   1.863   2.426  0.0933 -1.1487 -2.1160
12475SOL     OW42362   5.821  10.165   9.030 -0.1151 -0.2806 -0.5734
12475SOL    HW142363   5.824  10.250   9.074 -1.2181  0.8838 -2.5839
12475SOL    HW242364   5.729  10.139   9.035  0.3739 -1.8905  0.8849
12476SOL     OW42365   1.277   4.142  10.284 -0.3475  0.0575  0.2875
12476SOL    HW142366   1.325   4.105  10.358  0.5330 -0.3491 -0.4758
12476SOL    HW242367   1.213   4.074  10.261 -1.5251  0.7017  1.4632
12477SOL     OW42368   1.968   3.813   9.997 -0.4061  0.1663  0.1432
12477SOL    HW142369   2.028   3.778  10.064 -0.1089 -1.4388 -0.9090
12477SOL    HW242370   1.894   3.754   9.998 -0.4669  0.2091 -0.8387
12478SOL     OW42371   6.448   5.992   3.903  0.4375 -0.0140  0.0038
12478SOL    HW142372   6.391   6.023   3.973  0.6786  2.7616 -0.8742
12478SOL    HW242373   6.536   6.013   3.933  0.5962  0.4837 -0.7755
12479SOL     OW42374   8.982   9.347   3.785 -0.1385 -0.4104 -0.6016
12479SOL    HW142375   8.952   9.257   3.779  0.2017 -0.5904  0.1619
12479SOL    HW242376   8.941   9.392   3.711 -0.7212 -1.0715 -0.6896
12480SOL     OW42377   5.545  10.190   8.848 -0.1756 -0.2445  0.3089
12480SOL    HW142378   5.489  10.211   8.773  1.2368 -1.4016 -1.1217
12480SOL    HW242379   5.571  10.276   8.882 -1.5607  0.3050  0.0635
12481SOL     OW42380   1.355   8.396   0.043  0.3465  0.6256  0.3512
12481SOL    HW142381   1.432   8.420   0.093  1.3575  0.1364 -0.9308
12481SOL    HW242382   1.341   8.304   0.063 -0.8086  1.0423  1.6961
12482SOL     OW42383   8.581   4.154   7.868  0.5800  0.3829  0.4497
12482SOL    HW142384   8.574   4.127   7.960 -0.0479  0.3987  0.4160
12482SOL    HW242385   8.674   4.168   7.853  0.5990  1.3422  1.3689
12483SOL     OW42386  11.609   1.678   0.965  0.1094  0.2216 -0.5033
12483SOL    HW142387  11.691   1.701   0.921 -0.4255  0.4341 -1.4039
12483SOL    HW242388  11.590   1.589   0.937  0.6325 -0.2632  0.6379
12484SOL     OW42389   6.116   4.177   4.722 -0.4325 -0.0603 -0.7610
12484SOL    HW142390   6.043   4.123   4.750 -0.4060  0.0735 -0.4309
12484SOL    HW242391   6.177   4.116   4.681 -2.1515  0.2079 -4.0484
12485SOL     OW42392   5.900   6.736   5.710 -0.3681 -0.1036  0.6601
12485SOL    HW142393   5.939   6.803   5.765  0.4734  0.7793 -0.9554
12485SOL    HW242394   5.827   6.780   5.666 -1.8383 -1.1325  1.9087
12486SOL     OW42395   7.243   3.783   3.769  0.0827  0.1558 -0.2288
12486SOL    HW142396   7.187   3.754   3.698 -1.9417  0.4986  1.1316
12486SOL    HW242397   7.309   3.714   3.779  0.0091 -0.1903 -1.9720
12487SOL     OW42398   2.727  10.224   4.913  0.7858 -0.4512  0.4595
12487SOL    HW142399   2.805  10.215   4.967  2.1180 -1.7805 -1.5340
12487SOL    HW242400   2.760  10.257   4.829 -0.4324 -2.8819 -1.0866
12488SOL     OW42401   9.898   9.738  10.781  0.1586  0.0882  0.3050
12488SOL    HW142402   9.907   9.740  10.876 -0.9958  0.2162  0.4257
12488SOL    HW242403   9.871   9.827  10.758  0.6209  0.1090 -0.1649
12489SOL     OW42404   1.926   9.442   7.888 -0.1957 -0.5756 -0.1696
12489SOL    HW142405   1.959   9.369   7.836 -0.9758 -0.2608 -1.1323
12489SOL    HW242406   1.926   9.516   7.828 -1.1077 -0.2044  0.2738
12490SOL     OW42407   8.821   8.989   9.943 -0.2263 -0.2620 -0.0714
12490SOL    HW142408   8.881   9.058   9.970  2.7416 -3.3481  2.2497
12490SOL    HW242409   8.753   8.988  10.011 -0.6273  0.6784 -0.4470
12491SOL     OW42410   4.556   8.930   6.247  0.4276  0.6484  0.3372
12491SOL    HW142411   4.625   8.909   6.311  0.3781 -0.9205 -0.0736
12491SOL    HW242412   4.597   8.992   6.187  2.2266 -1.7157 -1.0716
12492SOL     OW42413   7.596   0.745  11.272 -0.0903  0.1744  0.3370
12492SOL    HW142414   7.507   0.712  11.257 -0.1046 -1.2762  2.9028
12492SOL    HW242415   7.583   0.818  11.333  0.4470 -0.2992  1.0404
12493SOL     OW42416   5.784  10.403  11.556 -0.1804  0.1481 -0.6993
12493SOL    HW142417   5.783  10.313  11.589 -0.2568  0.6102  0.6588
12493SOL    HW242418   5.876  10.419  11.534 -0.0239 -0.0226 -0.1951
12494SOL     OW42419   0.126   3.920  11.121  0.0692  0.3183 -0.2879
12494SOL    HW142420   0.033   3.934  11.104  0.0150 -0.3596 -0.5572
12494SOL    HW242421   0.149   3.988  11.184 -0.6753  0.3031  0.0073
12495SOL     OW42422   6.792  10.008  11.272  0.1293  0.3866 -0.4128
12495SOL    HW142423   6.718   9.982  11.217  1.1813 -1.7926 -0.8721
12495SOL    HW242424   6.806  10.100  11.251 -0.8550  0.1713 -2.1962
12496SOL     OW42425   5.866   8.673   0.018 -0.0517 -0.3748  0.1990
12496SOL    HW142426   5.807   8.599   0.005 -0.5607 -0.2623  1.6716
12496SOL    HW242427   5.947   8.633   0.052  0.7610 -0.5237 -1.7607
12497SOL     OW42428   4.298   0.253   5.960  0.2364 -0.0269  0.1740
12497SOL    HW142429   4.350   0.245   6.040  1.3391  0.1986 -0.4960
12497SOL    HW242430   4.212   0.282   5.989  0.6947  0.2690  1.2501
12498SOL     OW42431  10.005  10.592   1.747  0.5511 -0.8571  0.0472
12498SOL    HW142432   9.984  10.498   1.744 -0.3828 -0.6508  0.0066
12498SOL    HW242433   9.995  10.622   1.657  0.6635 -0.6758  0.0946
12499SOL     OW42434   9.622   9.875  11.206  0.3078 -0.2275  0.3730
12499SOL    HW142435   9.561   9.921  11.148  2.5300  1.3050 -0.9233
12499SOL    HW242436   9.613   9.783  11.182  0.9588  0.3104 -2.3783
12500SOL     OW42437   5.911   0.397   2.761 -0.5661 -0.0728  0.0961
12500SOL    HW142438   5.986   0.379   2.816  0.3946  1.5993 -0.5897
12500SOL    HW242439   5.915   0.331   2.691  0.3294  0.0673  0.0079
12501SOL     OW42440   1.389   6.760   5.895 -0.4440  0.2900 -1.3270
12501SOL    HW142441   1.342   6.831   5.851 -0.7835  1.9353  1.4112
12501SOL    HW242442   1.473   6.799   5.920 -0.8413 -0.0117  0.6783
12502SOL     OW42443   1.492   5.717   9.541 -0.1409 -0.5895  0.4027
12502SOL    HW142444   1.584   5.741   9.552 -0.1482 -0.2999 -0.1177
12502SOL    HW242445   1.491   5.622   9.548  0.3169 -0.6607 -0.3319
12503SOL     OW42446   5.274   7.798  10.346 -0.1049 -0.3098  0.1868
12503SOL    HW142447   5.206   7.797  10.279  0.3271  1.8526 -0.3898
12503SOL    HW242448   5.227   7.795  10.429 -0.6087 -4.2084 -0.0794
12504SOL     OW42449   9.084   9.468   0.054  0.5876  0.3801 -0.0654
12504SOL    HW142450   9.113   9.441  -0.033 -2.2489  1.9263 -1.6322
12504SOL    HW242451   9.113   9.397   0.111  1.6071 -1.2443 -2.4166
12505SOL     OW42452   9.263   9.926   6.299  0.3441 -0.4433 -0.1888
12505SOL    HW142453   9.317   9.847   6.294  1.7140  0.5411 -1.8294
12505SOL    HW242454   9.267   9.964   6.211 -3.5004 -0.5795 -0.5810
12506SOL     OW42455   2.089  11.596   6.258 -0.1627 -0.1285 -0.0419
12506SOL    HW142456   2.059  11.635   6.340  0.7684 -0.3842  0.4366
12506SOL    HW242457   2.160  11.537   6.284 -0.0987 -0.4866 -0.9922
12507SOL     OW42458   9.224   1.321   1.882 -0.0563 -0.0140 -0.4913
12507SOL    HW142459   9.192   1.386   1.945 -2.9306 -2.2886  0.6580
12507SOL    HW242460   9.241   1.243   1.935  0.0579 -1.2019 -2.2011
12508SOL     OW42461   8.431   7.895  10.912  0.2320 -0.6892 -0.1527
12508SOL    HW142462   8.342   7.890  10.947  0.6854 -0.5739  1.0487
12508SOL    HW242463   8.425   7.852  10.826 -1.1778  0.1825 -0.5299
12509SOL     OW42464  11.007  10.968  10.947  0.3324  0.2485  0.1115
12509SOL    HW142465  10.917  11.000  10.954  0.7841  1.3081  1.7621
12509SOL    HW242466  11.012  10.930  10.859 -2.0266 -0.8590  0.3647
12510SOL     OW42467   3.053  10.294   1.183  0.0522  0.3171 -0.0822
12510SOL    HW142468   3.077  10.294   1.276  2.4103 -0.5854 -0.6204
12510SOL    HW242469   2.969  10.340   1.180  0.7572  1.9733  2.2775
12511SOL     OW42470   2.871  10.424   7.139  0.5449 -0.2876  0.3527
12511SOL    HW142471   2.885  10.511   7.102 -1.6101  0.1928  0.5400
12511SOL    HW242472   2.859  10.440   7.233 -0.4851 -0.7094  0.2973
12512SOL     OW42473  10.808  11.636   9.899 -0.5699 -0.1396  0.1520
12512SOL    HW142474  10.822  11.677   9.984 -0.8155  1.4613 -0.5399
12512SOL    HW242475  10.745  11.693   9.855 -0.3732 -0.8778 -1.1397
12513SOL     OW42476  10.640   2.716   0.764  0.1745 -0.4476 -0.5558
12513SOL    HW142477  10.602   2.802   0.745 -0.6144 -0.9650 -1.3946
12513SOL    HW242478  10.592   2.656   0.708 -0.0128 -1.6065  0.8108
12514SOL     OW42479   0.873   8.033   5.893  0.4789 -0.2225  0.2536
12514SOL    HW142480   0.902   7.997   5.976  3.4340 -2.0051 -1.3933
12514SOL    HW242481   0.953   8.047   5.843 -1.2068 -0.0908 -2.6570
12515SOL     OW42482   8.282   1.540  10.522 -0.0895  0.8909 -0.3308
12515SOL    HW142483   8.319   1.490  10.594 -0.5148  1.3326  0.1992
12515SOL    HW242484   8.220   1.481  10.480 -0.2667  0.8284  0.0204
12516SOL     OW42485   2.037  10.562   9.534  0.0257 -0.1791  0.0463
12516SOL    HW142486   2.099  10.509   9.482  0.6168  0.3104  0.2446
12516SOL    HW242487   2.093  10.622   9.583 -0.6499  0.8257 -0.3850
12517SOL     OW42488  10.137  10.773   2.961 -0.0603 -0.2653  0.1234
12517SOL    HW142489  10.149  10.730   2.876 -0.4707 -0.1812  0.0197
12517SOL    HW242490  10.210  10.834   2.968  0.0308 -0.3464 -0.1284
12518SOL     OW42491   0.405   8.086   0.830  0.2198  0.3554 -0.5356
12518SOL    HW142492   0.494   8.056   0.847  0.0828  0.5363  0.6043
12518SOL    HW242493   0.350   8.017   0.867 -0.1069  1.8543  2.0133
12519SOL     OW42494   9.873   4.973   6.091 -0.0099  0.2389  0.0821
12519SOL    HW142495   9.948   5.005   6.141 -1.6487  1.4809  1.8594
12519SOL    HW242496   9.848   4.891   6.134  0.6477 -0.5065 -0.8946
12520SOL     OW42497  10.319   3.813  10.835 -0.8726  0.3961 -0.0084
12520SOL    HW142498  10.353   3.893  10.795  1.8411 -0.1965  0.9082
12520SOL    HW242499  10.285   3.841  10.920  0.1612  0.6017  0.3507
12521SOL     OW42500   7.789   7.982   9.820 -0.0193  0.1586 -0.0939
12521SOL    HW142501   7.864   7.961   9.875  0.2612 -0.5882 -0.7538
12521SOL    HW242502   7.713   7.969   9.878  0.2291 -1.3757 -0.0921
12522SOL     OW42503   0.362   9.185   4.096 -0.2335 -0.1774  0.2226
12522SOL    HW142504   0.328   9.137   4.021 -0.6574 -3.6427  2.4522
12522SOL    HW242505   0.292   9.182   4.162  0.4114  2.0799  1.1367
12523SOL     OW42506   9.910   5.018   8.590 -0.4249  0.1903  0.4806
12523SOL    HW142507   9.930   5.099   8.637  1.0284 -0.1862  0.5607
12523SOL    HW242508   9.992   4.969   8.590 -0.6480 -0.2841 -1.5607
12524SOL     OW42509   9.265   1.992  11.178 -0.3133 -0.1950  0.7566
12524SOL    HW142510   9.354   1.980  11.210  0.5977  0.4061 -1.3797
12524SOL    HW242511   9.256   1.927  11.107 -1.9306 -0.9028  1.5498
12525SOL     OW42512   3.969   0.437   4.664 -0.9274 -0.1514  0.4910
12525SOL    HW142513   3.959   0.493   4.741 -1.3583 -0.2167  0.4856
12525SOL    HW242514   4.011   0.358   4.698 -0.3259  0.1679  0.4990
12526SOL     OW42515   6.172   5.938   8.997 -0.2933  0.2764  0.4139
12526SOL    HW142516   6.136   5.902   9.078 -0.3544  0.0262  0.2797
12526SOL    HW242517   6.265   5.948   9.013  0.1397 -1.9857 -0.2362
12527SOL     OW42518  10.942   1.733  10.197  0.0006  0.0063 -0.3929
12527SOL    HW142519  10.927   1.816  10.242 -0.4119 -0.3339  0.1047
12527SOL    HW242520  11.038   1.729  10.188  0.0443  0.3938 -0.1510
12528SOL     OW42521   4.750   4.801   6.007  0.3981  0.0084  0.0364
12528SOL    HW142522   4.715   4.888   6.023  2.6835  0.6807  1.8225
12528SOL    HW242523   4.811   4.785   6.079  0.7765 -2.6943 -0.7461
12529SOL     OW42524   4.018  11.595   9.706 -0.2830  0.0241  0.7219
12529SOL    HW142525   3.962  11.641   9.769  0.3900  1.5967  0.2187
12529SOL    HW242526   4.075  11.664   9.670 -0.2832 -0.9267 -1.2056
12530SOL     OW42527   6.921   9.782   1.237 -0.2237 -0.0916 -0.2936
12530SOL    HW142528   7.011   9.807   1.257 -0.2555 -0.1732 -0.0475
12530SOL    HW242529   6.868   9.851   1.277 -0.3813 -1.1963  1.5489
12531SOL     OW42530   2.418   1.477  10.750 -0.2608  0.5260  0.2392
12531SOL    HW142531   2.494   1.531  10.773 -0.0088  0.5010 -0.5043
12531SOL    HW242532   2.349   1.540  10.731 -0.7178  0.5434  1.7900
12532SOL     OW42533   7.930   7.448   4.428  0.2259  0.3586  0.3995
12532SOL    HW142534   7.877   7.526   4.444 -0.5796 -0.1985  0.5098
12532SOL    HW242535   7.871   7.387   4.383  0.8502 -0.1797  0.2863
12533SOL     OW42536   9.264   9.523   2.423 -0.5881  0.3803 -0.4061
12533SOL    HW142537   9.279   9.614   2.446 -2.2677  0.7017 -0.4411
12533SOL    HW242538   9.180   9.502   2.463 -0.3364 -1.0908 -0.5915
12534SOL     OW42539   1.966   5.364  10.947  0.2885  0.2497 -0.0922
12534SOL    HW142540   2.031   5.383  11.015  0.7263 -0.0448 -0.4255
12534SOL    HW242541   1.917   5.445  10.938  0.2959  0.3271  0.4990
12535SOL     OW42542   8.287   8.092   7.938 -0.1627 -0.5795  0.0498
12535SOL    HW142543   8.363   8.124   7.889 -0.2491  0.8632  0.8069
12535SOL    HW242544   8.215   8.148   7.909 -1.5159 -3.2224 -2.2259
12536SOL     OW42545   5.168   1.501   7.644 -0.0215 -0.6833 -0.4262
12536SOL    HW142546   5.244   1.553   7.617 -0.0976  0.0672  0.7373
12536SOL    HW242547   5.146   1.535   7.731 -0.1132 -2.6374  0.3555
12537SOL     OW42548   6.710   8.009   5.100  0.4908 -0.0582  0.4518
12537SOL    HW142549   6.731   8.003   5.007  1.9429  1.5237  0.6145
12537SOL    HW242550   6.677   8.098   5.111  2.0230  0.4030  1.6999
12538SOL     OW42551   9.751   0.016   1.730  0.0348  0.7455  0.1813
12538SOL    HW142552   9.675   0.074   1.731  0.8148  1.8241 -0.8435
12538SOL    HW242553   9.802   0.044   1.654  1.0773 -0.4655  0.3975
12539SOL     OW42554   5.302   5.898   5.368  0.1469 -0.0504  0.2845
12539SOL    HW142555   5.264   5.977   5.330 -3.3762 -1.3723  0.7239
12539SOL    HW242556   5.240   5.872   5.436  1.3672 -2.9786  0.4237
12540SOL     OW42557   8.013  10.551   8.476  0.0694  0.6547  0.0921
12540SOL    HW142558   8.058  10.467   8.462 -1.6287 -0.3685  0.4093
12540SOL    HW242559   7.997  10.554   8.570  0.6554  1.6521  0.1716
12541SOL     OW42560  11.315   0.428   2.859  0.0446 -0.2237  0.2494
12541SOL    HW142561  11.255   0.502   2.849  0.4317  0.3221  1.7644
12541SOL    HW242562  11.397   0.467   2.891  0.4879 -1.2221  0.3711
12542SOL     OW42563   3.062   0.538  10.386  0.7664 -0.4750  0.3873
12542SOL    HW142564   3.067   0.506  10.476  1.2158  1.8844  1.2495
12542SOL    HW242565   3.104   0.624  10.388  1.8390 -0.8303 -2.3275
12543SOL     OW42566   2.693   1.378   0.887  0.0326  0.0840  0.4135
12543SOL    HW142567   2.674   1.286   0.869 -0.5947  0.2289  0.3040
12543SOL    HW242568   2.694   1.384   0.982 -1.4167  0.2401  0.4471
12544SOL     OW42569   8.110  11.468  10.807  0.5798 -0.7342 -0.6747
12544SOL    HW142570   8.119  11.424  10.891 -0.1105  0.0349 -0.1842
12544SOL    HW242571   8.188  11.442  10.758  1.8009  0.0172  0.7759
12545SOL     OW42572   5.767  10.851  10.192 -0.1871 -0.5045  0.0580
12545SOL    HW142573   5.711  10.774  10.191  0.1561 -0.7720  0.7231
12545SOL    HW242574   5.725  10.913  10.132 -0.1239 -1.4352 -0.9779
12546SOL     OW42575   1.990   6.896   2.260  0.4783 -0.2602 -0.2404
12546SOL    HW142576   2.075   6.857   2.278 -0.4972 -2.3117  0.2941
12546SOL    HW242577   1.947   6.834   2.200 -0.3719  1.0792 -1.0528
12547SOL     OW42578   8.159  11.564   8.998  0.3526  0.4518  0.1695
12547SOL    HW142579   8.133  11.548   9.088 -0.4431 -0.5696 -0.2204
12547SOL    HW242580   8.077  11.584   8.953  0.5212 -0.5838 -0.6352
12548SOL     OW42581   1.207   7.324   4.502  0.0484 -0.9432 -0.2383
12548SOL    HW142582   1.134   7.385   4.491  0.6691  0.1962  1.5384
12548SOL    HW242583   1.260   7.336   4.424 -0.5380 -0.1770 -0.5317
12549SOL     OW42584   6.213  10.591   1.765  0.2556  0.5020  0.2691
12549SOL    HW142585   6.161  10.513   1.746 -0.0424  0.5684  0.8068
12549SOL    HW242586   6.187  10.655   1.699  0.2510  0.2599  0.0374
12550SOL     OW42587   7.089   7.179   3.270  0.5632 -0.1518  0.5060
12550SOL    HW142588   7.134   7.225   3.341 -2.0118  1.9984  0.8875
12550SOL    HW242589   7.025   7.124   3.314 -0.4990  0.5868 -0.0804
12551SOL     OW42590   5.372   6.222   5.439 -0.4115  0.4463  0.0698
12551SOL    HW142591   5.442   6.268   5.486 -0.9603  1.0430  0.3292
12551SOL    HW242592   5.295   6.278   5.452 -0.5833  0.6287 -1.5401
12552SOL     OW42593  10.688   0.497   1.302  0.2199 -0.1063  0.0024
12552SOL    HW142594  10.703   0.564   1.368  0.9098 -0.1276 -0.1247
12552SOL    HW242595  10.721   0.416   1.341 -2.0073 -0.7037  0.7687
12553SOL     OW42596   6.371   1.976   6.519  0.5537  0.0949 -0.1594
12553SOL    HW142597   6.317   2.046   6.481  2.1391  1.3159 -0.3070
12553SOL    HW242598   6.387   1.916   6.446  0.3126  0.3195 -0.4017
12554SOL     OW42599   2.160   5.076   3.573  0.3275 -0.5633 -0.3463
12554SOL    HW142600   2.111   5.071   3.491 -0.9588  0.5452  0.3141
12554SOL    HW242601   2.152   5.168   3.600 -1.2975 -1.3608  2.2087
12555SOL     OW42602   7.070  10.324   2.879 -0.0204  0.1092  0.3103
12555SOL    HW142603   7.026  10.264   2.940  0.8211 -0.8589 -0.0049
12555SOL    HW242604   7.126  10.377   2.935  0.0230 -0.1143  0.4806
12556SOL     OW42605   3.223   2.429   8.637 -0.2226 -0.2698 -0.0554
12556SOL    HW142606   3.204   2.401   8.548  0.6646  0.3884 -0.4718
12556SOL    HW242607   3.184   2.362   8.693 -0.9907 -0.5662 -0.9285
12557SOL     OW42608   7.279   9.022   7.065  0.2899  0.3111 -0.4899
12557SOL    HW142609   7.354   9.041   7.121  0.6370 -0.0159 -0.8380
12557SOL    HW242610   7.280   8.927   7.056 -1.5278  0.0365  1.3821
12558SOL     OW42611   1.925   2.377   8.720 -0.5672 -0.3602 -0.1092
12558SOL    HW142612   1.935   2.319   8.645  1.3534  0.5604 -0.6211
12558SOL    HW242613   1.853   2.435   8.697 -0.2749 -0.3624 -1.0408
12559SOL     OW42614   5.736   2.700   0.034 -0.3330  0.2651 -0.3798
12559SOL    HW142615   5.727   2.605   0.037  0.5867  0.2011  0.8216
12559SOL    HW242616   5.664   2.729  -0.023  0.3819 -1.2515 -2.1483
12560SOL     OW42617   2.617   8.181   4.888  0.2607 -0.7917  0.8785
12560SOL    HW142618   2.607   8.260   4.942  0.2440  0.7566 -1.2685
12560SOL    HW242619   2.530   8.164   4.854  0.5416 -0.8569  0.1781
12561SOL     OW42620   5.620  10.858   0.215 -0.2127  0.3945  0.3848
12561SOL    HW142621   5.561  10.783   0.229  0.5495 -0.3873 -0.4106
12561SOL    HW242622   5.579  10.907   0.144  0.0179 -0.0863 -0.0912
12562SOL     OW42623   9.697   1.698   2.725  0.2316  0.3496  0.0932
12562SOL    HW142624   9.603   1.693   2.706  0.0082 -1.4103  1.3956
12562SOL    HW242625   9.737   1.638   2.662  0.2988 -0.0841  0.5473
12563SOL     OW42626   3.893   1.194   8.391  0.0062  0.6310 -0.2999
12563SOL    HW142627   3.858   1.155   8.310  0.5597 -0.2514 -0.1198
12563SOL    HW242628   3.987   1.182   8.385 -0.0602 -0.8574  1.1951
12564SOL     OW42629   1.840   1.508  11.502  0.7625  0.3511  0.3731
12564SOL    HW142630   1.751   1.530  11.532  0.1939 -0.5810 -0.5560
12564SOL    HW242631   1.849   1.552  11.418  0.2295 -1.4596 -0.7015
12565SOL     OW42632   2.574  10.399   2.991 -0.0279  0.5879 -0.6058
12565SOL    HW142633   2.584  10.304   2.983 -1.1182  0.4557 -0.5062
12565SOL    HW242634   2.558  10.414   3.084 -1.2404  0.7128 -0.8147
12566SOL     OW42635   6.394  11.073   8.488 -0.6330 -0.3651  0.5357
12566SOL    HW142636   6.475  11.032   8.521 -1.5291 -1.1846  1.8041
12566SOL    HW242637   6.354  11.111   8.566 -1.8448 -0.6069  0.0384
12567SOL     OW42638   1.017   2.161   7.497 -0.4757 -0.6115 -0.6298
12567SOL    HW142639   0.928   2.157   7.531 -0.4852  0.4946 -0.4704
12567SOL    HW242640   1.014   2.229   7.430  0.2351 -0.5740 -0.6318
12568SOL     OW42641   0.558   4.485  10.857  0.6465 -0.2924 -0.4045
12568SOL    HW142642   0.577   4.450  10.943 -2.1105 -0.0371  0.4020
12568SOL    HW242643   0.497   4.557  10.873  0.4962  0.1330 -2.5386
12569SOL     OW42644  11.489   0.530   2.146 -0.5960 -0.3105 -0.3120
12569SOL    HW142645  11.557   0.593   2.127 -0.6050 -0.4141 -0.6942
12569SOL    HW242646  11.462   0.549   2.236  1.1509 -1.3881  0.4938
12570SOL     OW42647   5.842   1.248   7.828 -0.5110  0.5112  0.2051
12570SOL    HW142648   5.775   1.241   7.896 -0.4559 -1.6014  0.1071
12570SOL    HW242649   5.925   1.253   7.875 -0.5697  0.5114  0.3069
12571SOL     OW42650   5.967   6.490   5.843  0.4696  0.0148 -0.6446
12571SOL    HW142651   5.938   6.555   5.778  2.4398  1.1666 -0.4652
12571SOL    HW242652   6.061   6.481   5.827  0.8365 -0.3803  1.4329
12572SOL     OW42653   7.812   9.890   0.897 -0.9406 -0.5613 -0.1546
12572SOL    HW142654   7.907   9.886   0.902 -0.8878 -1.0136 -1.2156
12572SOL    HW242655   7.783   9.806   0.932 -0.9965 -0.1099  0.9094
12573SOL     OW42656   1.687  10.653  11.397  0.3414 -0.6406  0.4707
12573SOL    HW142657   1.661  10.728  11.344 -0.0540 -1.1589 -0.0771
12573SOL    HW242658   1.624  10.585  11.375  2.3481 -2.0611 -1.1572
12574SOL     OW42659  10.305   7.527   5.896 -0.3164  0.0084 -0.2685
12574SOL    HW142660  10.326   7.482   5.977 -0.6400 -2.4392 -1.4299
12574SOL    HW242661  10.383   7.518   5.842 -0.4341  0.7738 -0.5848
12575SOL     OW42662   8.166   8.937   6.560  0.0515 -0.3219 -0.2745
12575SOL    HW142663   8.260   8.948   6.573  0.4956  1.0571 -3.7260
12575SOL    HW242664   8.127   8.976   6.638  2.3076  0.8600  0.3422
12576SOL     OW42665   4.774   1.242   7.673  0.0906  0.1073  0.8063
12576SOL    HW142666   4.715   1.253   7.598 -0.2408  1.3395  1.2249
12576SOL    HW242667   4.814   1.156   7.659  0.1146  0.3484 -0.8363
12577SOL     OW42668   1.727  10.838   4.539 -0.6286  0.9742  0.1148
12577SOL    HW142669   1.766  10.845   4.452 -1.3350  1.5343 -0.1547
12577SOL    HW242670   1.766  10.758   4.575 -1.2423  0.0554 -1.1768
12578SOL     OW42671   1.413   8.067   2.375  0.3050  0.0033  0.0625
12578SOL    HW142672   1.393   8.111   2.292  1.4145 -0.2779 -0.3745
12578SOL    HW242673   1.381   7.977   2.363  1.0687 -0.2273 -0.3353
12579SOL     OW42674   2.752   3.606  11.416 -0.1006 -0.2170  0.4520
12579SOL    HW142675   2.680   3.572  11.468 -0.3035  0.5326  0.6690
12579SOL    HW242676   2.739   3.568  11.329 -1.8906  1.4075 -0.0591
12580SOL     OW42677   6.241   1.634   5.811 -0.2586  0.1289  0.3734
12580SOL    HW142678   6.161   1.644   5.759  0.0478 -0.0934 -0.1437
12580SOL    HW242679   6.308   1.680   5.761  0.5582 -2.0386 -0.6396
12581SOL     OW42680   0.782   9.996   8.040 -0.1605 -0.8180 -0.6212
12581SOL    HW142681   0.764  10.075   8.090 -0.3672 -1.2106 -0.0627
12581SOL    HW242682   0.877   9.992   8.034 -0.0532 -1.5712  1.0902
12582SOL     OW42683   5.058  10.652   3.539  0.0191 -0.0780  0.3133
12582SOL    HW142684   4.976  10.607   3.516 -0.9286  1.2101  1.0547
12582SOL    HW242685   5.083  10.615   3.623 -0.5920  0.5367  0.7741
12583SOL     OW42686   3.978   6.445   6.423  0.9525 -0.3829  0.4617
12583SOL    HW142687   3.950   6.491   6.344 -0.5743 -2.2085 -0.1255
12583SOL    HW242688   3.967   6.510   6.493 -0.9938  0.2400 -0.3468
12584SOL     OW42689   1.042   9.174  11.263 -0.0299  0.1126 -0.2851
12584SOL    HW142690   1.064   9.152  11.172  1.6649  0.5865 -0.0285
12584SOL    HW242691   0.994   9.097  11.295 -2.5620  0.7852 -2.1626
12585SOL     OW42692   4.751  10.375   3.260 -0.4474  0.2767  0.1988
12585SOL    HW142693   4.786  10.331   3.183  0.4283  2.6591 -0.8642
12585SOL    HW242694   4.709  10.454   3.226 -0.3418  1.2259  2.1089
12586SOL     OW42695   7.268  11.286   1.168  0.4637 -0.1163 -0.0745
12586SOL    HW142696   7.181  11.252   1.187 -0.2834  2.2537  1.1734
12586SOL    HW242697   7.274  11.287   1.073 -0.4484 -1.2645 -0.1559
12587SOL     OW42698   9.871   3.639   0.329 -0.5902 -0.1447 -0.0638
12587SOL    HW142699   9.963   3.654   0.306 -1.0483 -1.1196 -2.9089
12587SOL    HW242700   9.856   3.695   0.405  2.4306 -0.2217  0.7036
12588SOL     OW42701  10.336  10.005   2.652  0.6153 -0.3678 -0.3057
12588SOL    HW142702  10.300  10.037   2.569  0.5043  0.1459 -0.0634
12588SOL    HW242703  10.333   9.910   2.643 -0.2311 -0.3356 -0.5458
12589SOL     OW42704   0.105   8.431   3.421  0.3183 -0.3606 -0.4649
12589SOL    HW142705   0.034   8.387   3.469 -1.7699  0.8848 -2.2261
12589SOL    HW242706   0.143   8.491   3.485  0.4159 -1.6411  0.7560
12590SOL     OW42707   5.481   7.857   8.633 -0.0906  0.4394  0.4074
12590SOL    HW142708   5.490   7.944   8.593 -0.2973  0.7500  1.0173
12590SOL    HW242709   5.531   7.799   8.576 -2.5473  0.3639 -1.8460
12591SOL     OW42710   5.440   7.114   9.417  0.7335  1.1358 -0.1057
12591SOL    HW142711   5.391   7.111   9.335  2.4352 -0.8559 -1.1478
12591SOL    HW242712   5.496   7.192   9.409  2.0204  0.1254 -1.6023
12592SOL     OW42713   4.895   9.060   6.061  0.2638  0.4565 -0.2220
12592SOL    HW142714   4.936   9.146   6.057  0.0222  0.5878  0.1219
12592SOL    HW242715   4.801   9.078   6.054  0.2996  0.0641 -2.4817
12593SOL     OW42716   4.978  10.346   8.509  0.1961  0.0336 -0.1196
12593SOL    HW142717   4.885  10.364   8.521 -0.6719 -2.9269 -1.2628
12593SOL    HW242718   5.013  10.335   8.597 -1.1465 -1.1947  0.2934
12594SOL     OW42719  10.597   8.083   8.502 -0.3670 -0.5211 -0.0820
12594SOL    HW142720  10.627   8.074   8.412 -1.0176 -1.3020 -0.2385
12594SOL    HW242721  10.620   7.999   8.543 -1.2377 -0.6779  0.1077
12595SOL     OW42722   0.718  11.013   1.536  0.0299  0.0497 -0.1237
12595SOL    HW142723   0.691  11.049   1.452 -0.4113  1.3377  0.5294
12595SOL    HW242724   0.794  11.066   1.562  2.3058 -2.4759 -1.1893
12596SOL     OW42725  11.583   9.966  10.940  0.1319  0.1083  0.1145
12596SOL    HW142726  11.637   9.911  10.995 -2.0961  0.1443  2.5113
12596SOL    HW242727  11.513   9.909  10.910  0.2706  0.5721 -1.1728
12597SOL     OW42728   8.224   7.925   8.132  0.0302 -0.4502 -0.0245
12597SOL    HW142729   8.182   7.852   8.087  0.3245 -1.1109  0.7435
12597SOL    HW242730   8.257   7.981   8.062 -1.6261 -0.1880 -0.6535
12598SOL     OW42731   3.349   6.970   8.084  0.3217  0.1177  0.2149
12598SOL    HW142732   3.326   7.026   8.159  0.9633  1.9308 -0.8697
12598SOL    HW242733   3.346   7.029   8.009  2.3740 -0.9737 -0.8143
12599SOL     OW42734  10.254  11.177  11.505 -0.5230  0.3033  0.0380
12599SOL    HW142735  10.248  11.270  11.524 -1.4886  0.3648 -0.4904
12599SOL    HW242736  10.174  11.140  11.543 -0.4965 -0.1934 -0.3749
12600SOL     OW42737   3.757  11.349   4.007 -0.4142  0.3134 -0.0504
12600SOL    HW142738   3.776  11.291   4.081  0.1009  1.9376  1.1292
12600SOL    HW242739   3.820  11.322   3.939  0.6314  0.2746  0.9072
12601SOL     OW42740   8.187   4.882   7.193 -0.4775 -0.1113  0.1478
12601SOL    HW142741   8.147   4.959   7.233 -2.4196 -0.0925 -1.7020
12601SOL    HW242742   8.271   4.914   7.158 -1.1393  1.1112 -0.3645
12602SOL     OW42743   3.173   6.141   9.463  0.2241 -0.0234  0.2454
12602SOL    HW142744   3.212   6.224   9.491 -0.8788  1.1705 -1.5203
12602SOL    HW242745   3.200   6.131   9.372  0.5590 -1.7778  0.5138
12603SOL     OW42746   8.717   9.506   1.077 -0.6117  0.0749 -0.2131
12603SOL    HW142747   8.800   9.546   1.103 -0.5749  1.2246 -1.9276
12603SOL    HW242748   8.738   9.414   1.064  0.7120  0.5206 -1.6469
12604SOL     OW42749   4.759   9.890   2.681  0.4871 -0.0357 -0.0400
12604SOL    HW142750   4.769   9.904   2.587 -0.9111 -0.2545 -0.2489
12604SOL    HW242751   4.842   9.918   2.719  1.3555 -0.6726 -1.4122
12605SOL     OW42752   5.903   6.204  10.932  0.8476 -0.0011  0.7222
12605SOL    HW142753   5.836   6.230  10.869  1.1173  0.4629  0.6294
12605SOL    HW242754   5.954   6.283  10.948  0.6753 -0.0722  1.6537
12606SOL     OW42755  10.521   1.391   1.184  0.0372 -0.7646 -0.1130
12606SOL    HW142756  10.587   1.451   1.218 -0.9338  1.0390 -1.2294
12606SOL    HW242757  10.565   1.342   1.116 -0.2192  2.1621 -2.6162
12607SOL     OW42758   6.606   4.499   4.103  0.4496  0.2097  0.5653
12607SOL    HW142759   6.668   4.459   4.042  0.0681  0.0627  0.2748
12607SOL    HW242760   6.575   4.427   4.158  2.5908  0.6750  2.5687
12608SOL     OW42761   6.427  10.346   7.457  0.5651  0.1947  0.1612
12608SOL    HW142762   6.489  10.273   7.465 -0.4779 -0.7586 -0.2086
12608SOL    HW242763   6.364  10.332   7.527  0.7126  1.1212  0.4918
12609SOL     OW42764  11.657   6.484   4.817  0.2805  0.0346  0.2345
12609SOL    HW142765  11.616   6.548   4.759 -0.5383 -0.0270  0.7370
12609SOL    HW242766  11.725   6.534   4.863 -0.5958  0.6485  0.8913
12610SOL     OW42767   9.500   9.629   9.719  0.1875 -0.0018 -0.1447
12610SOL    HW142768   9.571   9.588   9.768  0.3025 -0.7005 -0.8750
12610SOL    HW242769   9.516   9.723   9.726  0.5754 -0.1222  0.5850
12611SOL     OW42770   3.969  11.258  10.374 -0.1994  0.0926 -0.1552
12611SOL    HW142771   3.921  11.251  10.291 -0.7594  3.4138 -0.2199
12611SOL    HW242772   3.962  11.350  10.399  1.1969 -0.4952  2.8817
12612SOL     OW42773   0.570  10.074   2.311 -0.3868 -0.3102 -0.2702
12612SOL    HW142774   0.497  10.135   2.318 -0.1374 -0.1241  1.0764
12612SOL    HW242775   0.637  10.109   2.370  1.1220 -0.0586 -2.0350
12613SOL     OW42776   4.441   6.842   1.859 -0.0962 -0.1889  0.1685
12613SOL    HW142777   4.521   6.860   1.809 -0.3645  0.7368  0.0502
12613SOL    HW242778   4.423   6.749   1.843  1.6767 -0.7620  1.2415
12614SOL     OW42779   0.904   7.503   6.714 -0.4709 -0.0709  0.1027
12614SOL    HW142780   0.830   7.538   6.765 -0.2671 -0.7376  0.8825
12614SOL    HW242781   0.886   7.529   6.624 -0.9099  1.0370  0.4970
12615SOL     OW42782   1.875   6.374  10.813  0.6128  0.0936 -0.3827
12615SOL    HW142783   1.899   6.292  10.769 -0.6286 -0.5393  0.0590
12615SOL    HW242784   1.780   6.377  10.807  0.4948  0.5387  1.2819
12616SOL     OW42785   1.704  10.497   7.126 -0.1309 -0.0975  0.0773
12616SOL    HW142786   1.679  10.436   7.196 -0.6461  0.4261  0.3567
12616SOL    HW242787   1.781  10.457   7.086 -0.1730 -0.6911  0.5733
12617SOL     OW42788   2.954   8.660   7.858  0.7879  0.0671 -0.2664
12617SOL    HW142789   3.019   8.730   7.859  0.0335  0.7899 -0.9625
12617SOL    HW242790   2.957   8.624   7.947  1.0126  1.1464  0.1847
12618SOL     OW42791   1.987   8.636   3.670 -0.3219  0.3292  0.9127
12618SOL    HW142792   1.921   8.704   3.663 -1.1534 -0.4288  1.1013
12618SOL    HW242793   2.012   8.637   3.763  1.9861  2.4418  0.3686
12619SOL     OW42794  11.511   5.661   3.104  0.3852  0.7096  0.2343
12619SOL    HW142795  11.454   5.613   3.044  0.0204 -0.2900  1.3485
12619SOL    HW242796  11.474   5.646   3.191  0.6862  2.4292  0.7086
12620SOL     OW42797   7.024   8.875   1.921 -0.1793  0.0092 -0.2446
12620SOL    HW142798   7.004   8.873   1.827 -0.9847  1.8258 -0.1422
12620SOL    HW242799   7.098   8.935   1.929  0.5123 -0.8767  0.2100
12621SOL     OW42800   8.196   7.373   4.266  0.0930  0.3190  0.4220
12621SOL    HW142801   8.112   7.413   4.243 -1.1166 -1.2996  1.7271
12621SOL    HW242802   8.203   7.296   4.209  0.6744  0.4329  0.3373
12622SOL     OW42803   1.390   0.481   3.153  0.9278 -0.6777  0.1256
12622SOL    HW142804   1.326   0.410   3.153 -0.1424  0.2329 -0.8864
12622SOL    HW242805   1.458   0.453   3.214  1.9880 -3.8132 -2.2708
12623SOL     OW42806   7.197   9.114   6.836 -0.2833  0.5349 -0.1403
12623SOL    HW142807   7.231   9.065   6.911 -0.3570  0.6294 -0.0453
12623SOL    HW242808   7.135   9.054   6.795  0.0541  0.3352 -0.3590
12624SOL     OW42809   4.496   7.425   5.909  0.6982  0.2829 -0.4059
12624SOL    HW142810   4.562   7.382   5.964  1.0304 -0.3529 -1.2915
12624SOL    HW242811   4.514   7.519   5.919  2.4427  0.1043 -1.4644
12625SOL     OW42812   3.057   4.536   6.196 -0.5604 -0.5512 -0.1390
12625SOL    HW142813   2.999   4.593   6.146  0.2542  0.8215  0.4451
12625SOL    HW242814   3.142   4.581   6.196  0.0724 -1.6960  0.4454
12626SOL     OW42815   0.824  10.318  10.281  0.5928 -0.6509 -0.1004
12626SOL    HW142816   0.758  10.371  10.237  1.1502 -0.8975 -1.2695
12626SOL    HW242817   0.901  10.323  10.224  0.7994 -2.3655 -0.0442
12627SOL     OW42818   5.053   8.485   1.457  0.3604  0.2019 -0.7462
12627SOL    HW142819   5.079   8.536   1.380 -1.3954  0.8358 -0.9674
12627SOL    HW242820   4.978   8.434   1.428 -0.6101  0.7685  0.6293
12628SOL     OW42821   8.291   9.833   7.038 -0.0978  0.5755  0.5326
12628SOL    HW142822   8.251   9.917   7.060  0.4287  1.1725 -0.7148
12628SOL    HW242823   8.217   9.773   7.032 -0.3570  0.5330  3.0072
12629SOL     OW42824   1.919   9.031   4.845  0.4906 -0.5213 -0.0219
12629SOL    HW142825   1.889   9.019   4.936 -0.6049  1.6375 -0.0375
12629SOL    HW242826   1.851   8.991   4.792  0.5502 -0.7444  0.0664
12630SOL     OW42827   0.284  10.168  10.614 -0.2784  0.5077  0.1951
12630SOL    HW142828   0.276  10.263  10.608  0.5961  0.7115  1.7632
12630SOL    HW242829   0.195  10.137  10.631 -0.3884  1.1694  0.8727
12631SOL     OW42830  11.630   4.211   3.949 -0.3122 -0.1167 -0.1419
12631SOL    HW142831  11.605   4.122   3.971  0.3570 -0.3237 -0.1905
12631SOL    HW242832  11.640   4.254   4.034 -0.9656  0.0103 -0.1257
12632SOL     OW42833  11.377   3.877  11.284  0.5705  0.2602  0.1212
12632SOL    HW142834  11.379   3.851  11.192 -0.8296 -0.2259  0.1988
12632SOL    HW242835  11.400   3.797  11.332  0.2824  0.2348  0.2197
12633SOL     OW42836  11.546   9.397   6.848  0.6407 -0.0573 -0.3626
12633SOL    HW142837  11.501   9.314   6.862  1.6444 -0.2922  1.9087
12633SOL    HW242838  11.512   9.454   6.917  0.4822  1.2286 -1.4596
12634SOL     OW42839   9.290   9.334   5.650 -0.0141 -0.7888 -0.3645
12634SOL    HW142840   9.323   9.319   5.561  1.0055 -1.0440  0.0448
12634SOL    HW242841   9.359   9.301   5.707 -2.1287 -4.0458  0.5749
12635SOL     OW42842   1.938   4.250   7.960  0.4767 -0.3697 -0.1581
12635SOL    HW142843   1.944   4.168   7.910  1.3332 -1.0601  1.0179
12635SOL    HW242844   1.882   4.229   8.034  0.4704  0.1989  0.0023
12636SOL     OW42845   2.697   0.771   5.816  0.0823  0.2666  0.0949
12636SOL    HW142846   2.731   0.684   5.794 -0.7371  0.0377 -0.2980
12636SOL    HW242847   2.711   0.778   5.910  1.2329  0.1970 -0.0487
12637SOL     OW42848   9.731   2.214   6.854 -0.2515 -0.1002  0.9486
12637SOL    HW142849   9.821   2.182   6.851 -1.0590 -2.5386  0.2451
12637SOL    HW242850   9.705   2.222   6.762 -0.6895  0.8263  1.1417
12638SOL     OW42851  11.403   6.764  10.153 -0.2915 -0.1417  0.1690
12638SOL    HW142852  11.350   6.802  10.224 -0.4433 -0.0137 -0.0083
12638SOL    HW242853  11.359   6.682  10.131 -1.1543  0.5515 -0.8176
12639SOL     OW42854   6.259   2.223   5.167 -0.7207  0.3921 -0.6398
12639SOL    HW142855   6.250   2.163   5.093 -0.1544  0.4475 -0.7577
12639SOL    HW242856   6.262   2.310   5.127  0.3673  0.3763 -0.6215
12640SOL     OW42857  11.470   8.466   1.611 -0.1497 -0.5150 -0.6513
12640SOL    HW142858  11.513   8.515   1.541  1.9586 -0.3991  0.6345
12640SOL    HW242859  11.539   8.411   1.648 -1.1840 -0.6153  1.2701
12641SOL     OW42860   1.235   3.912   2.036 -0.2388  0.1993 -0.0484
12641SOL    HW142861   1.210   3.860   1.960  0.1591  1.6066 -1.1982
12641SOL    HW242862   1.232   4.003   2.004 -0.5250  0.8566  1.7552
12642SOL     OW42863   6.831   3.890   2.410  0.3297  0.3835 -0.5846
12642SOL    HW142864   6.774   3.930   2.475  1.3712  0.6741  0.1753
12642SOL    HW242865   6.786   3.905   2.326 -0.6020  0.7661 -0.0340
12643SOL     OW42866  10.947   4.044   7.661 -0.1747 -0.5711  0.1948
12643SOL    HW142867  10.887   3.969   7.658 -0.2448 -0.5060 -0.0515
12643SOL    HW242868  11.013   4.019   7.726 -1.2378 -0.0738  1.5211
12644SOL     OW42869   2.488   8.204   8.323  0.2401 -0.7802  0.5793
12644SOL    HW142870   2.530   8.141   8.265  0.0291 -0.8112  0.4611
12644SOL    HW242871   2.457   8.273   8.265  1.3077 -0.0857  0.7932
12645SOL     OW42872   5.819   6.935   3.778 -0.0922 -0.2826  0.0867
12645SOL    HW142873   5.854   6.894   3.699 -2.0988 -1.9080 -0.0561
12645SOL    HW242874   5.754   6.997   3.746 -2.4633 -2.4530  0.3748
12646SOL     OW42875   8.613   9.169   0.614 -0.3251 -0.9362  0.1603
12646SOL    HW142876   8.700   9.134   0.635  0.4296 -0.2851 -1.7142
12646SOL    HW242877   8.582   9.114   0.542 -0.3361  0.4368 -0.9252
12647SOL     OW42878   1.331   9.518   3.117  0.4866  0.0761  0.1668
12647SOL    HW142879   1.328   9.456   3.045 -0.5342  1.1441 -0.7526
12647SOL    HW242880   1.325   9.464   3.196 -3.0307 -0.9445 -0.6217
12648SOL     OW42881   7.723   8.518   0.075 -0.1085 -0.6451 -0.2163
12648SOL    HW142882   7.695   8.562  -0.005  1.3122 -1.7574 -1.3849
12648SOL    HW242883   7.664   8.443   0.083 -0.0636 -0.7006 -0.3982
12649SOL     OW42884   2.627   9.774   3.716 -0.2269 -0.0531  0.3768
12649SOL    HW142885   2.595   9.783   3.627  0.7109 -0.6981 -0.0351
12649SOL    HW242886   2.557   9.811   3.770 -0.3844  1.2454 -0.6707
12650SOL     OW42887   9.813   0.671  10.026 -0.2816  0.1945 -0.3039
12650SOL    HW142888   9.878   0.730  10.063 -0.9335  0.3895  0.5555
12650SOL    HW242889   9.737   0.727  10.007 -0.2272 -0.0319 -1.2649
12651SOL     OW42890   2.821   8.155  10.170  0.1547 -0.3104 -0.8367
12651SOL    HW142891   2.812   8.060  10.169 -0.5154 -0.3062  1.0976
12651SOL    HW242892   2.894   8.172  10.230 -1.3109  0.4327  0.8163
12652SOL     OW42893   3.196   9.556  11.395  0.2994  0.1374 -0.1971
12652SOL    HW142894   3.134   9.487  11.371 -1.1847  1.5376 -0.5756
12652SOL    HW242895   3.268   9.509  11.438 -0.1113 -1.7472 -1.4183
12653SOL     OW42896   4.984   9.549   4.300 -0.0054 -0.2015 -0.9391
12653SOL    HW142897   4.912   9.511   4.350  0.9704 -0.0737  0.6255
12653SOL    HW242898   5.002   9.632   4.344  2.9195 -1.4782  0.5307
12654SOL     OW42899  10.356   7.445   8.323 -0.5433 -0.5012 -0.1880
12654SOL    HW142900  10.312   7.392   8.389  0.1369 -2.1233 -0.9804
12654SOL    HW242901  10.301   7.434   8.244 -1.6189  1.7964  0.1606
12655SOL     OW42902   9.817   5.295   5.930 -0.7635 -0.1120  0.2687
12655SOL    HW142903   9.796   5.281   5.838 -1.9993 -1.7487  0.7586
12655SOL    HW242904   9.911   5.280   5.936 -0.5359  0.7459 -0.8349
12656SOL     OW42905  10.316   8.168   4.523 -0.2287 -0.0949 -0.1385
12656SOL    HW142906  10.364   8.160   4.605  0.1033  0.3983 -0.2799
12656SOL    HW242907  10.379   8.205   4.462 -0.6524  0.1305 -0.4451
12657SOL     OW42908   3.371   4.405   6.454  0.3529 -0.2140 -0.0802
12657SOL    HW142909   3.315   4.372   6.383  0.9954 -1.3725 -0.0701
12657SOL    HW242910   3.460   4.396   6.421  0.6647 -0.8254  0.8793
12658SOL     OW42911  10.166   1.889   5.711  0.1269  0.2190 -0.2072
12658SOL    HW142912  10.220   1.828   5.761  1.2050  0.6151 -0.8663
12658SOL    HW242913  10.225   1.960   5.686 -1.6499  3.0641  2.8485
12659SOL     OW42914   3.485   6.749   0.131 -0.0697 -0.5545 -0.3034
12659SOL    HW142915   3.449   6.822   0.080 -0.4953 -1.0979 -0.7900
12659SOL    HW242916   3.412   6.718   0.183 -0.1234 -1.1822 -0.7402
12660SOL     OW42917   3.991   0.902   8.837  0.4817  0.2915 -0.0490
12660SOL    HW142918   4.036   0.985   8.822 -0.3956  0.9889  1.0324
12660SOL    HW242919   4.046   0.836   8.793  0.5373  1.5648 -2.0115
12661SOL     OW42920   5.234   1.616   8.645  0.7099 -0.1800  0.0936
12661SOL    HW142921   5.178   1.685   8.608 -0.1742 -1.5229 -1.1980
12661SOL    HW242922   5.296   1.663   8.700 -0.8555  1.4961  0.5283
12662SOL     OW42923   0.358   0.163   3.369  0.1795  0.2132 -0.1324
12662SOL    HW142924   0.309   0.178   3.450  0.4567  0.6695 -0.0484
12662SOL    HW242925   0.412   0.241   3.358 -0.0019  0.2476 -0.8600
12663SOL     OW42926   4.407   6.597   1.077  0.2789 -0.4531  0.7268
12663SOL    HW142927   4.355   6.626   1.152 -3.4251 -0.9831 -1.4193
12663SOL    HW242928   4.371   6.644   1.002  2.0762 -1.8504 -1.1312
12664SOL     OW42929   7.517   0.776   9.528 -0.3319  0.4088 -0.4691
12664SOL    HW142930   7.450   0.715   9.495  0.2664 -1.5999  1.6831
12664SOL    HW242931   7.476   0.816   9.605  0.6104 -0.3237  0.4578
12665SOL     OW42932   9.477   9.300   6.245 -0.1593 -0.1093  0.0939
12665SOL    HW142933   9.397   9.338   6.282 -0.3660 -1.8347  1.5785
12665SOL    HW242934   9.509   9.366   6.184 -0.6116  2.3300  2.3200
12666SOL     OW42935   1.784   3.297   6.982  0.0903 -0.3571 -0.1111
12666SOL    HW142936   1.863   3.337   7.018  1.3280 -0.9311 -2.0008
12666SOL    HW242937   1.762   3.353   6.908  0.1303 -1.4937 -1.0125
12667SOL     OW42938   2.030   6.307   6.846 -0.0040 -0.0598 -0.5474
12667SOL    HW142939   2.035   6.249   6.770 -1.8077 -2.0378  0.7486
12667SOL    HW242940   1.979   6.382   6.815  0.5477 -0.1270 -1.6687
12668SOL     OW42941   5.649   2.140   2.313  0.0047  0.3334  0.1056
12668SOL    HW142942   5.745   2.140   2.315  0.0125 -0.6126  0.1230
12668SOL    HW242943   5.627   2.205   2.246  0.6923 -0.3409 -0.8173
12669SOL     OW42944   8.542   1.769   1.988  0.2284 -0.1860  0.3006
12669SOL    HW142945   8.524   1.828   1.914  0.4873  0.3632  0.6679
12669SOL    HW242946   8.627   1.798   2.021 -0.0660 -0.1797  1.0580
12670SOL     OW42947   6.210   5.928   4.241 -0.4009 -0.2667  0.0946
12670SOL    HW142948   6.301   5.901   4.254  0.5502  1.1765 -2.5708
12670SOL    HW242949   6.173   5.860   4.185  0.3213  1.0186 -2.0635
12671SOL     OW42950   0.936   2.965   5.642 -0.7161  0.3394 -0.0176
12671SOL    HW142951   1.028   2.956   5.666 -1.3096 -1.4488  1.9234
12671SOL    HW242952   0.937   2.977   5.547  1.5028  0.2420 -0.0536
12672SOL     OW42953   2.940   1.570   6.297  0.4547 -0.3227 -0.2252
12672SOL    HW142954   2.893   1.652   6.284 -0.0698 -0.7313 -1.0308
12672SOL    HW242955   3.031   1.591   6.275  0.1435 -0.1908 -1.4611
12673SOL     OW42956   8.952   9.347   7.497  0.1559  0.2096 -0.0690
12673SOL    HW142957   9.042   9.368   7.524  0.1319 -0.1566  0.3078
12673SOL    HW242958   8.954   9.350   7.402  0.9887 -1.4745 -0.1465
12674SOL     OW42959   2.920   7.457   5.963 -0.1582 -0.0707 -0.2343
12674SOL    HW142960   2.874   7.442   6.046  0.5344  0.0114  0.1753
12674SOL    HW242961   2.852   7.483   5.902 -1.0163 -2.1563 -0.2453
12675SOL     OW42962   8.630   0.997   5.922 -0.8755 -0.2436  0.1368
12675SOL    HW142963   8.721   1.005   5.949 -1.4259  2.1591  1.6241
12675SOL    HW242964   8.628   1.029   5.832  0.0935 -2.8820 -0.9169
12676SOL     OW42965   2.471   8.108   6.164 -0.0713  0.4651  0.3845
12676SOL    HW142966   2.434   8.142   6.083  0.3969 -0.8163 -0.3867
12676SOL    HW242967   2.562   8.087   6.143  1.1556  3.3166  2.1643
12677SOL     OW42968   8.954   8.404   3.200 -0.2383 -0.3340 -0.2663
12677SOL    HW142969   9.033   8.396   3.254  1.0990 -0.9956 -2.1981
12677SOL    HW242970   8.898   8.465   3.248  0.8209 -0.9477  1.8656
12678SOL     OW42971   9.270   3.527   8.015  0.6010 -0.3405  1.0449
12678SOL    HW142972   9.189   3.479   8.031  0.3483 -0.3844 -0.2980
12678SOL    HW242973   9.273   3.592   8.086 -1.1675  0.3744  0.5265
12679SOL     OW42974   4.983   4.264  11.185  0.0454 -0.0159  0.4485
12679SOL    HW142975   5.033   4.337  11.149  0.7458 -0.7023  0.0093
12679SOL    HW242976   5.020   4.250  11.272 -0.4688  0.5008  0.7628
12680SOL     OW42977  10.027   8.948   3.962  0.7736 -0.0390 -0.5943
12680SOL    HW142978  10.054   8.976   3.875  0.2747  1.2238 -0.3698
12680SOL    HW242979  10.044   9.023   4.018 -0.8675 -0.0611  0.0002
12681SOL     OW42980   1.057   9.864   4.005  0.1131 -0.4443  0.0272
12681SOL    HW142981   1.075   9.776   3.975  3.2445  0.7934 -2.2585
12681SOL    HW242982   1.134   9.889   4.056 -1.7573  0.2398  2.7571
12682SOL     OW42983   8.484   6.496   9.372  0.2108 -0.3978 -0.6843
12682SOL    HW142984   8.535   6.495   9.453 -0.2601  0.1403 -0.3698
12682SOL    HW242985   8.394   6.478   9.401 -0.3916  2.1414 -0.7492
12683SOL     OW42986  10.351   6.082   0.252 -0.2155 -0.0170  0.3381
12683SOL    HW142987  10.386   6.003   0.294 -1.0178 -0.7923 -0.3965
12683SOL    HW242988  10.332   6.054   0.162 -1.5394  0.7194  0.3741
12684SOL     OW42989   6.346   4.591   0.333 -0.1877 -0.9091 -0.1783
12684SOL    HW142990   6.313   4.655   0.271  0.0146 -2.5352 -2.0438
12684SOL    HW242991   6.283   4.519   0.330  0.4048 -1.4902  0.7012
12685SOL     OW42992   2.003   4.160   4.724 -0.3790  0.1360 -0.4661
12685SOL    HW142993   2.003   4.087   4.785  0.5672 -0.0436 -0.6647
12685SOL    HW242994   2.090   4.199   4.733 -0.2707  0.1881 -1.5894
12686SOL     OW42995   9.070   3.592   7.141  0.6530 -0.0822 -0.0634
12686SOL    HW142996   9.109   3.585   7.054 -1.2491  1.8174 -1.1637
12686SOL    HW242997   9.063   3.501   7.171  0.1810 -0.9079 -2.4585
12687SOL     OW42998   6.758   0.292  11.067  0.3177 -0.2582  0.5210
12687SOL    HW142999   6.796   0.285  11.155  1.8153  0.7404  0.0005
12687SOL    HW243000   6.666   0.272  11.079  0.6018 -0.7273  2.2250
12688SOL     OW43001   9.206   5.822   4.643  0.3572  0.0417  0.4748
12688SOL    HW143002   9.124   5.777   4.627  0.7938 -0.4854 -0.3551
12688SOL    HW243003   9.207   5.839   4.738 -0.1195 -1.1015  0.6996
12689SOL     OW43004   1.234  11.226   0.401  0.2456  0.0165 -0.0087
12689SOL    HW143005   1.258  11.298   0.342  0.7245 -0.4411 -0.3762
12689SOL    HW243006   1.317  11.184   0.423 -0.1625 -1.5567 -1.2531
12690SOL     OW43007   3.212   6.627   8.178  0.3223 -0.2658 -0.7295
12690SOL    HW143008   3.266   6.629   8.099 -1.8233  1.4333 -2.2919
12690SOL    HW243009   3.237   6.705   8.226 -1.1256  0.9562 -1.8406
12691SOL     OW43010  10.071  10.075   3.349  0.0961  0.0279  0.2169
12691SOL    HW143011  10.014  10.151   3.358 -0.5384 -0.4804  0.5470
12691SOL    HW243012  10.139  10.103   3.288 -0.2798  0.7713  0.1338
12692SOL     OW43013   6.967   1.771   8.328  0.6870 -0.2132  0.3060
12692SOL    HW143014   7.000   1.733   8.246 -0.6209  0.0004 -0.3519
12692SOL    HW243015   6.936   1.857   8.302 -2.1917 -1.1172  0.4056
12693SOL     OW43016   4.499   3.157   8.651 -0.2784 -0.5155  0.6407
12693SOL    HW143017   4.455   3.152   8.566 -0.7733  1.0174  0.7920
12693SOL    HW243018   4.591   3.168   8.629 -0.6456  2.5698  0.1843
12694SOL     OW43019   9.803   2.845   7.110  0.8153 -0.3259  0.1840
12694SOL    HW143020   9.896   2.823   7.102  0.6018 -1.3996  0.4398
12694SOL    HW243021   9.791   2.864   7.203  0.6209 -1.0432  0.3157
12695SOL     OW43022   9.655   5.147   6.058  0.3476 -0.1046 -0.7845
12695SOL    HW143023   9.717   5.083   6.092  1.0299 -0.9771 -3.4345
12695SOL    HW243024   9.709   5.208   6.008 -0.7629  0.0751 -1.7924
12696SOL     OW43025   2.899   0.436   6.375  0.0362 -0.0943 -0.6628
12696SOL    HW143026   2.920   0.403   6.463 -0.1186  3.2376  0.7697
12696SOL    HW243027   2.974   0.490   6.351 -1.6159  2.3825 -0.6695
12697SOL     OW43028   5.930   9.772  10.209 -0.3147  0.1653  0.3494
12697SOL    HW143029   5.850   9.745  10.164 -1.0397  1.2958  0.9083
12697SOL    HW243030   5.934   9.866  10.195  1.1061  0.0762  0.0539
12698SOL     OW43031   3.165   3.219  10.054 -0.1572  0.8700  0.7105
12698SOL    HW143032   3.261   3.215  10.060 -0.2725 -1.0451  2.9427
12698SOL    HW243033   3.142   3.306  10.088  0.7817  1.3621  0.1144
12699SOL     OW43034   8.621   3.710   5.842 -0.2117 -0.3276  0.1346
12699SOL    HW143035   8.588   3.631   5.885 -0.1624 -1.0794 -1.1537
12699SOL    HW243036   8.546   3.743   5.793 -0.0456  0.0392  0.1273
12700SOL     OW43037   5.238   1.154   2.885  0.0403  0.2720  0.4061
12700SOL    HW143038   5.314   1.097   2.870 -0.0817 -0.0184  0.8669
12700SOL    HW243039   5.254   1.231   2.830  0.8263  0.3551  0.7407
12701SOL     OW43040   6.482   1.886   4.455 -0.3540  0.1584 -0.0240
12701SOL    HW143041   6.514   1.969   4.490 -0.6224  1.0940 -1.8437
12701SOL    HW243042   6.396   1.876   4.495 -0.3589  0.8207  0.1558
12702SOL     OW43043   7.464   4.717   5.623  0.0547 -0.2793  0.0247
12702SOL    HW143044   7.516   4.779   5.673  1.4717 -1.7582  0.4634
12702SOL    HW243045   7.493   4.729   5.532  0.6048 -0.5609  0.1614
12703SOL     OW43046   4.260   7.498   6.287  0.1400 -0.2327 -0.0886
12703SOL    HW143047   4.231   7.442   6.359 -1.1801  0.2687 -0.1967
12703SOL    HW243048   4.351   7.518   6.307  0.6894 -2.5185 -0.1235
12704SOL     OW43049   1.845   9.113   7.962  0.0784 -0.0924 -0.3004
12704SOL    HW143050   1.764   9.064   7.977 -0.3087  0.9311  1.1841
12704SOL    HW243051   1.900   9.092   8.038  0.2634  1.0410 -0.1075
12705SOL     OW43052   6.710   7.459   4.711  0.5181 -0.2236  0.0371
12705SOL    HW143053   6.762   7.506   4.646 -1.2445  0.5380 -0.9077
12705SOL    HW243054   6.732   7.501   4.795 -0.7489  2.2078 -0.7245
12706SOL     OW43055  10.939  10.968   7.018  0.1677  0.1372  0.2698
12706SOL    HW143056  10.927  11.027   7.092 -1.0719  0.4460 -0.1560
12706SOL    HW243057  10.959  11.025   6.944 -2.2862  0.2057 -0.4258
12707SOL     OW43058   2.743   6.984  10.677 -0.0194  0.2318  0.2141
12707SOL    HW143059   2.655   6.946  10.682 -0.3071  0.6420 -1.2990
12707SOL    HW243060   2.735   7.066  10.726 -0.2801 -0.0849  0.7109
12708SOL     OW43061   5.391   4.040   0.039 -0.4800  0.2860  0.9292
12708SOL    HW143062   5.465   3.980   0.029  0.4301  1.6075 -1.0778
12708SOL    HW243063   5.431   4.125   0.059 -0.7664  2.1320 -4.5101
12709SOL     OW43064   8.825   7.187   9.449  0.0931 -0.1077 -0.5332
12709SOL    HW143065   8.817   7.168   9.356  1.1846  0.3769 -0.7391
12709SOL    HW243066   8.909   7.150   9.474  0.0342  0.1998  0.1428
12710SOL     OW43067   4.422   5.326   3.027  0.2142  0.2737 -1.1798
12710SOL    HW143068   4.476   5.345   3.104 -1.8792  1.6836  0.0584
12710SOL    HW243069   4.336   5.362   3.049 -0.4225  1.0145 -4.3224
12711SOL     OW43070   9.348   0.166   9.702 -0.0434 -0.1797 -0.4222
12711SOL    HW143071   9.422   0.170   9.642  0.2825  1.8214  0.0573
12711SOL    HW243072   9.340   0.254   9.738 -2.3172 -0.4731 -0.0250
12712SOL     OW43073   8.286   6.369   6.666 -0.2199 -0.7048 -0.1182
12712SOL    HW143074   8.204   6.414   6.683  0.4097  1.1605 -1.6388
12712SOL    HW243075   8.262   6.295   6.609 -1.0911 -1.5644  1.3135
12713SOL     OW43076   5.525   3.602   7.460  0.3966 -0.1199  0.2033
12713SOL    HW143077   5.610   3.577   7.425  1.2388 -0.1297  2.1335
12713SOL    HW243078   5.545   3.664   7.530 -1.1502 -0.4023  0.9424
12714SOL     OW43079   6.172  10.164   2.657  0.7340 -0.0425  0.6941
12714SOL    HW143080   6.215  10.102   2.598  3.1329  0.2053  2.0319
12714SOL    HW243081   6.106  10.112   2.703 -1.9097 -0.0328 -2.7112
12715SOL     OW43082   7.113   1.202  10.278  0.2888 -0.7667 -0.0725
12715SOL    HW143083   7.115   1.120  10.327 -0.3029 -0.3762  0.6118
12715SOL    HW243084   7.020   1.219  10.262  0.3834 -0.0898  0.0391
12716SOL     OW43085   4.549   3.050   1.919 -0.1498 -0.3689  0.2474
12716SOL    HW143086   4.472   2.998   1.894  1.3892 -2.3076 -0.7408
12716SOL    HW243087   4.618   3.022   1.859  1.2047  1.7619  0.6946
12717SOL     OW43088   5.758  11.329   0.237  0.9797 -0.8550  0.5894
12717SOL    HW143089   5.833  11.273   0.221 -0.2051 -2.3437 -0.0093
12717SOL    HW243090   5.692  11.272   0.276 -0.0019  0.2913  0.6931
12718SOL     OW43091   6.442   3.232   7.967  0.0364  0.2122 -0.1779
12718SOL    HW143092   6.505   3.201   7.902 -0.1757 -1.1195  0.2153
12718SOL    HW243093   6.360   3.239   7.919  0.2571  0.9763 -0.4576
12719SOL     OW43094   5.888   1.375   6.843 -0.5960 -0.4786 -0.0436
12719SOL    HW143095   5.839   1.406   6.919  0.4145 -1.1867  0.9338
12719SOL    HW243096   5.891   1.280   6.853 -0.3974 -0.5775 -0.9377
12720SOL     OW43097   6.704   9.431   0.330 -0.1832 -0.2184  0.1826
12720SOL    HW143098   6.734   9.447   0.241  0.1649  0.5144  0.4182
12720SOL    HW243099   6.749   9.498   0.383  0.9993 -1.7250  1.1771
12721SOL     OW43100   4.884   1.544  10.849  0.0990 -0.1691  0.6420
12721SOL    HW143101   4.873   1.493  10.769  1.1720  0.2158  0.2445
12721SOL    HW243102   4.835   1.625  10.834 -0.6713 -0.5814  0.8442
12722SOL     OW43103   6.219   2.989   1.953  0.3593  0.8490  0.0596
12722SOL    HW143104   6.173   2.968   1.872 -0.8847 -0.7521  1.1151
12722SOL    HW243105   6.174   2.937   2.020  4.0128 -1.3085  1.1258
12723SOL     OW43106   5.573   2.786   2.905  0.1227 -0.4744 -0.3935
12723SOL    HW143107   5.649   2.733   2.882 -0.5924 -1.1114 -1.4262
12723SOL    HW243108   5.606   2.875   2.911  1.1946 -0.9058  0.5332
12724SOL     OW43109   9.726   6.882   2.762  0.1820  0.3204  0.1336
12724SOL    HW143110   9.781   6.805   2.743  1.0112  1.2578 -1.4694
12724SOL    HW243111   9.741   6.900   2.855  0.4522 -1.0719  0.3824
12725SOL     OW43112   6.466   0.857   7.318 -0.1118 -0.2163  0.3939
12725SOL    HW143113   6.376   0.875   7.345  0.0803 -0.4548  1.2173
12725SOL    HW243114   6.505   0.812   7.393  1.3907  1.9624  0.9974
12726SOL     OW43115  10.278   5.996   3.892 -0.5203 -0.3254  0.8304
12726SOL    HW143116  10.283   5.983   3.986  1.2183 -0.2051  0.7833
12726SOL    HW243117  10.328   5.924   3.854 -1.1805 -0.3664 -0.0215
12727SOL     OW43118   0.734   4.016   6.471 -0.3329  0.2946 -0.0444
12727SOL    HW143119   0.684   4.037   6.392  0.9852  2.7375 -0.3299
12727SOL    HW243120   0.670   4.025   6.543 -0.6612  2.1005 -0.5060
12728SOL     OW43121   7.049   0.559   8.822  0.2827 -0.1994  0.5865
12728SOL    HW143122   6.998   0.526   8.748  0.1057  2.5699 -0.6346
12728SOL    HW243123   6.986   0.609   8.874  1.4544  2.6325 -0.5288
12729SOL     OW43124   5.484  11.316  11.244 -0.2159 -0.5387 -0.2307
12729SOL    HW143125   5.570  11.297  11.282  0.7952  1.0459 -1.5383
12729SOL    HW243126   5.467  11.407  11.269 -1.2211 -0.6308 -0.5284
12730SOL     OW43127   0.770   9.621   4.713  0.1801 -0.2923 -0.1827
12730SOL    HW143128   0.776   9.560   4.787 -0.0626 -1.3487 -1.0057
12730SOL    HW243129   0.850   9.604   4.662 -0.0757 -0.1959 -0.6173
12731SOL     OW43130   6.314   6.651   4.559  0.1100 -0.2842  0.0416
12731SOL    HW143131   6.256   6.578   4.540 -0.4348  0.3413 -0.7770
12731SOL    HW243132   6.257   6.728   4.557  0.7535  0.2170  0.4532
12732SOL     OW43133   4.570   9.549   9.893 -0.1625 -0.2157 -0.0412
12732SOL    HW143134   4.650   9.505   9.920  0.5508  1.1951  0.2482
12732SOL    HW243135   4.550   9.609   9.966 -0.6764  0.4729 -0.7314
12733SOL     OW43136  10.036   3.989   0.864  0.2074 -0.4783 -0.3180
12733SOL    HW143137   9.991   4.073   0.863  1.1209  0.0406  0.2786
12733SOL    HW243138  10.087   3.987   0.783  0.7094 -0.1527 -0.0143
12734SOL     OW43139   3.699   0.017   3.609 -0.6084 -0.4994 -0.5857
12734SOL    HW143140   3.623   0.044   3.559 -0.1654 -0.9366 -1.5116
12734SOL    HW243141   3.728  -0.064   3.568 -0.4644 -1.0855  0.6245
12735SOL     OW43142   3.549   5.084   9.170  0.6776  0.1552  0.0250
12735SOL    HW143143   3.577   5.141   9.099 -0.5185  0.9201  0.1404
12735SOL    HW243144   3.608   5.105   9.242  1.5798 -0.2709 -0.5785
12736SOL     OW43145   1.169   9.002   0.065 -0.5239 -0.5225  0.0540
12736SOL    HW143146   1.137   8.935   0.126 -2.1337  1.0522  1.0327
12736SOL    HW243147   1.089   9.037   0.024  0.3069  0.6139 -0.6441
12737SOL     OW43148  10.603   1.574   1.813 -0.0722  0.4518  0.0447
12737SOL    HW143149  10.590   1.646   1.751 -0.8581  0.0244 -0.3066
12737SOL    HW243150  10.543   1.593   1.885 -0.5037  0.0090 -0.1883
12738SOL     OW43151   5.613   8.627   5.387  0.0124  0.5681 -0.1872
12738SOL    HW143152   5.549   8.608   5.318 -0.9250 -0.2882  0.8688
12738SOL    HW243153   5.662   8.546   5.398  1.0600  1.1105 -0.7400
12739SOL     OW43154   5.302   9.236   6.747 -0.6384 -0.7278 -0.0091
12739SOL    HW143155   5.322   9.162   6.690 -0.3698 -1.5857  1.1754
12739SOL    HW243156   5.343   9.311   6.703 -0.5837 -1.3220 -1.0232
12740SOL     OW43157   6.521   0.059   6.989 -0.2953 -0.4942 -0.8792
12740SOL    HW143158   6.545   0.081   7.079  1.4820 -2.2871 -0.8541
12740SOL    HW243159   6.584   0.108   6.936  1.1086 -2.2640 -0.9512
12741SOL     OW43160   0.531   2.620   0.641 -0.0438 -0.7827  0.3591
12741SOL    HW143161   0.439   2.623   0.666 -0.0483  0.3388  0.2462
12741SOL    HW243162   0.579   2.654   0.717  0.0506  1.2011 -0.5238
12742SOL     OW43163  11.199   1.462   4.533 -0.1040 -0.1093 -0.2919
12742SOL    HW143164  11.110   1.432   4.515  0.3665 -1.4042 -0.5568
12742SOL    HW243165  11.238   1.474   4.447 -0.0292  0.4942 -0.1772
12743SOL     OW43166   7.736   1.648   0.216 -0.0706  0.3634  1.0884
12743SOL    HW143167   7.701   1.576   0.164  2.4430 -1.3962  1.6353
12743SOL    HW243168   7.810   1.610   0.263  0.5035  2.9827  2.5128
12744SOL     OW43169   9.274   5.932   8.675  0.6946 -0.5807  1.3385
12744SOL    HW143170   9.271   5.859   8.613  0.2455 -0.5041  1.2643
12744SOL    HW243171   9.257   6.010   8.621  3.7793 -0.0797  0.9312
12745SOL     OW43172   8.991   8.012   1.051  0.5858  0.3562 -0.3188
12745SOL    HW143173   8.926   8.082   1.063 -0.7486 -1.0945  1.5142
12745SOL    HW243174   8.942   7.941   1.010  1.5018 -0.1213 -0.6115
12746SOL     OW43175  11.690   8.648   6.178  0.3648 -0.0903  0.0299
12746SOL    HW143176  11.688   8.743   6.164  0.0543 -0.1924 -0.6779
12746SOL    HW243177  11.644   8.635   6.261 -0.0473  0.3392 -0.1255
12747SOL     OW43178   7.338   5.915   2.889 -0.2905  0.3676  0.4938
12747SOL    HW143179   7.396   5.991   2.893  1.6301 -1.0430  0.7019
12747SOL    HW243180   7.344   5.885   2.798 -0.9536  0.3965  0.4381
12748SOL     OW43181  10.178   9.116   5.538  0.3145 -0.4760 -0.1492
12748SOL    HW143182  10.181   9.076   5.451  0.4213  0.9256 -0.8099
12748SOL    HW243183  10.086   9.108   5.565  0.5036 -2.0108  0.1792
12749SOL     OW43184   6.823   5.431   7.218  0.1292  0.3885 -0.6303
12749SOL    HW143185   6.826   5.356   7.277  2.1527  1.5550  0.8834
12749SOL    HW243186   6.793   5.503   7.274 -0.2770  1.0547 -1.6716
12750SOL     OW43187   8.173  11.551   4.853  0.5877 -0.5900  0.3814
12750SOL    HW143188   8.082  11.554   4.884  1.1365  0.5082  2.0357
12750SOL    HW243189   8.207  11.639   4.870  1.5342 -0.4730 -1.7003
12751SOL     OW43190   3.793   2.518   0.143 -0.1678  0.4630 -0.3426
12751SOL    HW143191   3.760   2.479   0.062  0.8919  0.2008 -0.6659
12751SOL    HW243192   3.874   2.562   0.118 -0.5607  1.6043  0.3165
12752SOL     OW43193  10.492   2.278  11.323 -0.3226  0.0316  0.4836
12752SOL    HW143194  10.485   2.311  11.233  1.3578 -1.2465 -0.1727
12752SOL    HW243195  10.569   2.322  11.358  0.4864 -1.2980  0.4251
12753SOL     OW43196   1.517   9.120   2.714  0.2438  0.0595  0.1459
12753SOL    HW143197   1.574   9.044   2.728 -0.5179 -0.6395 -0.3867
12753SOL    HW243198   1.450   9.112   2.783 -0.7041 -0.6348 -0.8114
12754SOL     OW43199   1.815   0.995   3.196  0.8542 -0.9282  0.0256
12754SOL    HW143200   1.803   0.900   3.190  0.3546 -0.8463 -0.2799
12754SOL    HW243201   1.893   1.005   3.251  1.0017 -1.5177 -0.0662
12755SOL     OW43202   8.784   2.462   0.869  0.2048  0.3104  0.1809
12755SOL    HW143203   8.695   2.457   0.833 -0.4655  4.1918  0.8553
12755SOL    HW243204   8.839   2.483   0.794  0.6552 -1.9548 -0.2105
12756SOL     OW43205   8.729   9.482  10.666  0.1034  0.7911  0.0188
12756SOL    HW143206   8.799   9.547  10.671  0.9810 -0.0724 -0.5772
12756SOL    HW243207   8.665   9.510  10.732  1.9518  0.4736  2.0337
12757SOL     OW43208   7.487  10.698   5.785 -0.3511 -0.8937 -0.1479
12757SOL    HW143209   7.518  10.785   5.807 -1.5333 -0.4580 -0.1549
12757SOL    HW243210   7.537  10.673   5.707 -1.9076  0.9273 -1.8294
12758SOL     OW43211   8.253  11.144   3.640  0.9173  0.8174 -0.1988
12758SOL    HW143212   8.333  11.188   3.610  2.1275 -2.2464 -1.8518
12758SOL    HW243213   8.279  11.053   3.654 -1.7536  0.2225  1.6925
12759SOL     OW43214  11.297   5.166  10.916  0.7702 -0.0042  0.6449
12759SOL    HW143215  11.300   5.167  10.820 -0.4160 -0.2545  0.5950
12759SOL    HW243216  11.374   5.218  10.942 -0.3621  2.4261 -0.4824
12760SOL     OW43217   9.161   1.596   2.661 -0.0141  0.0550  0.3210
12760SOL    HW143218   9.099   1.662   2.628 -0.0589 -0.0175  0.2592
12760SOL    HW243219   9.107   1.532   2.706 -0.3818 -1.6795 -2.3546
12761SOL     OW43220   7.072   2.314   9.807  0.3995 -0.3325 -0.2007
12761SOL    HW143221   7.033   2.239   9.761 -1.1290  0.7991 -0.8413
12761SOL    HW243222   7.048   2.390   9.754  5.0282  0.4245 -1.6609
12762SOL     OW43223   9.167   4.040  11.501 -0.0754  0.1145 -0.3486
12762SOL    HW143224   9.091   3.984  11.515  0.0495 -0.3345 -1.3343
12762SOL    HW243225   9.199   4.016  11.414  1.2136  0.2731  0.0535
12763SOL     OW43226  10.662   7.699   9.656  0.4791  0.6636  0.5272
12763SOL    HW143227  10.750   7.668   9.634 -0.9442 -2.6303 -1.1955
12763SOL    HW243228  10.638   7.756   9.583  0.2616 -0.5699 -0.3999
12764SOL     OW43229   8.408   1.855   9.800  0.2884  0.0820  0.1397
12764SOL    HW143230   8.358   1.777   9.776 -1.4624  0.8829  0.9877
12764SOL    HW243231   8.456   1.830   9.879 -0.5481 -0.0422  0.6166
12765SOL     OW43232   5.090   0.951   0.850  0.1586 -0.0267  0.4636
12765SOL    HW143233   5.181   0.981   0.850  0.0939  0.2143 -0.8070
12765SOL    HW243234   5.038   1.031   0.849 -0.1016 -0.1533  1.7322
12766SOL     OW43235   0.704   7.729   0.359  0.3440 -0.4990 -0.2597
12766SOL    HW143236   0.731   7.641   0.331  0.1183 -0.5905 -0.1857
12766SOL    HW243237   0.645   7.759   0.290  0.4930 -0.3691 -0.3309
12767SOL     OW43238   1.144   5.324  10.737 -0.0735  0.2162 -0.1155
12767SOL    HW143239   1.144   5.232  10.712  1.0715  0.0110  0.5477
12767SOL    HW243240   1.204   5.366  10.676 -2.2360  0.9954 -1.8439
12768SOL     OW43241  10.167   9.836  10.317 -0.2970 -0.1713 -0.0473
12768SOL    HW143242  10.151   9.835  10.412 -0.3315  0.6292 -0.0424
12768SOL    HW243243  10.262   9.830  10.309 -0.3812 -2.2886 -0.0229
12769SOL     OW43244   2.925   8.565  10.770  0.0861 -0.6080 -0.1599
12769SOL    HW143245   2.965   8.611  10.696  1.4166 -0.6884  0.4782
12769SOL    HW243246   2.971   8.598  10.847 -0.0998 -1.7506  0.4688
12770SOL     OW43247   8.020   7.580   6.403  0.0721  0.8767  0.6847
12770SOL    HW143248   8.089   7.541   6.458  1.9500  1.3993 -1.1973
12770SOL    HW243249   8.045   7.557   6.314 -2.6465  0.4589 -0.0608
12771SOL     OW43250   5.655   3.537   1.577 -0.1752 -0.1382  0.0187
12771SOL    HW143251   5.631   3.469   1.513 -0.2334 -1.5875  1.5248
12771SOL    HW243252   5.751   3.539   1.575 -0.1406 -0.9375  0.6341
12772SOL     OW43253   4.068   8.135   8.503  0.4586  0.5427  0.1932
12772SOL    HW143254   4.164   8.136   8.504  0.4903  2.7713  0.3080
12772SOL    HW243255   4.045   8.137   8.410  0.6047  2.5407  0.1604
12773SOL     OW43256   5.099  11.196  10.332 -0.1024 -0.2476 -0.0620
12773SOL    HW143257   5.192  11.173  10.343  0.0491  0.8144  1.1739
12773SOL    HW243258   5.096  11.291  10.344 -1.3210 -0.2293 -0.3678
12774SOL     OW43259   7.029   3.148   4.121 -0.2011 -0.0386 -0.6417
12774SOL    HW143260   7.015   3.175   4.212  1.1286  0.5289 -0.5851
12774SOL    HW243261   7.124   3.153   4.109 -0.2759 -1.0072 -1.7889
12775SOL     OW43262   4.382   8.259   0.705  0.2653 -0.1833  0.2785
12775SOL    HW143263   4.465   8.303   0.723  0.7524 -0.3893 -1.3239
12775SOL    HW243264   4.395   8.169   0.735  0.8512 -0.3722 -0.5057
12776SOL     OW43265  11.272   7.126   6.818 -0.2081  0.2925  0.3743
12776SOL    HW143266  11.266   7.094   6.728  1.4687 -0.7000  0.5751
12776SOL    HW243267  11.356   7.093   6.850 -0.4372  1.2324  2.0762
12777SOL     OW43268   5.706   9.086   6.508  0.4217 -0.0681  0.1142
12777SOL    HW143269   5.756   9.066   6.587  0.3640  1.7389  0.6582
12777SOL    HW243270   5.635   9.021   6.507  0.0225  0.2995  1.9454
12778SOL     OW43271  10.299   4.670   5.430  0.3140  0.4853  0.2223
12778SOL    HW143272  10.375   4.621   5.399 -0.3680 -0.2315 -0.3326
12778SOL    HW243273  10.315   4.760   5.400 -0.2523 -0.1419 -2.1725
12779SOL     OW43274   7.191   5.143   2.112 -0.4487  0.4728  0.2267
12779SOL    HW143275   7.190   5.229   2.155 -0.0557 -0.1701  1.5867
12779SOL    HW243276   7.104   5.107   2.129 -0.2154  0.1230  0.7008
12780SOL     OW43277   0.218   2.969   4.239  0.7671 -0.2314  0.5170
12780SOL    HW143278   0.189   3.027   4.309  1.4087  0.6665  0.0686
12780SOL    HW243279   0.308   2.947   4.261  0.8608 -0.2198  0.1588
12781SOL     OW43280   7.878   9.306  10.046 -0.0863 -0.1939 -0.4533
12781SOL    HW143281   7.819   9.367  10.090  0.2461 -0.0411 -0.2172
12781SOL    HW243282   7.820   9.245  10.000 -0.4197  0.7162 -1.2620
12782SOL     OW43283   3.700   5.139  10.066  0.0446 -0.0261  0.4484
12782SOL    HW143284   3.635   5.080  10.028 -0.3531 -0.0106  1.0974
12782SOL    HW243285   3.733   5.188   9.991 -0.8745  0.1363  0.1260
12783SOL     OW43286   3.872  10.868   0.667  0.1416 -0.4156 -0.0471
12783SOL    HW143287   3.782  10.891   0.647  0.4677 -0.4330 -1.6137
12783SOL    HW243288   3.868  10.778   0.698 -0.5076  0.0021  1.1778
12784SOL     OW43289   0.757   8.248   4.404  0.1280  0.2353 -0.0010
12784SOL    HW143290   0.726   8.338   4.400  2.1544  0.9840  0.3885
12784SOL    HW243291   0.780   8.226   4.314  1.0447  0.6414  0.1276
12785SOL     OW43292   3.522   4.519   6.889 -0.2276 -0.5585 -0.2780
12785SOL    HW143293   3.446   4.461   6.888 -0.4553 -0.2727  0.1118
12785SOL    HW243294   3.596   4.462   6.869 -0.3350 -1.1576  0.9249
12786SOL     OW43295   8.489   7.847   6.100 -1.0559 -0.1941 -0.5529
12786SOL    HW143296   8.455   7.785   6.035 -0.3367 -1.6375  0.4229
12786SOL    HW243297   8.531   7.793   6.166 -0.0456  1.3636  0.1325
12787SOL     OW43298   4.034   9.969   6.639 -0.0554  0.0137  0.3426
12787SOL    HW143299   3.950   9.962   6.685 -1.3732 -0.1907 -1.9524
12787SOL    HW243300   4.081   9.889   6.665 -0.4808  0.1914  1.7686
12788SOL     OW43301   6.196   9.072   2.921  0.2148  0.4266 -0.0340
12788SOL    HW143302   6.255   9.041   2.852  1.9708  0.1533  1.5047
12788SOL    HW243303   6.150   8.994   2.951 -1.2034  0.6811 -1.4113
12789SOL     OW43304   8.022   4.298   0.500  0.0444  0.0635  0.0890
12789SOL    HW143305   8.037   4.230   0.434 -0.1653 -0.3124  0.4231
12789SOL    HW243306   8.106   4.306   0.545  1.0458  2.1989 -1.9086
12790SOL     OW43307   6.043   4.109   6.994 -0.5116 -0.1001 -0.2555
12790SOL    HW143308   5.956   4.151   6.996 -1.3280 -1.3529 -3.4733
12790SOL    HW243309   6.067   4.110   6.901  1.9362 -1.8003  0.2887
12791SOL     OW43310   6.388   0.969   1.313 -0.2452 -0.4454  0.6914
12791SOL    HW143311   6.418   0.917   1.387  0.2677  0.8998  1.4692
12791SOL    HW243312   6.459   1.031   1.297  0.2007 -1.4567 -1.7466
12792SOL     OW43313   5.599   8.321   8.403  0.3313 -0.5930  0.1859
12792SOL    HW143314   5.628   8.335   8.313 -0.1088  1.1656  0.2771
12792SOL    HW243315   5.654   8.380   8.455  1.4352 -2.4869  1.2584
12793SOL     OW43316   0.798   5.932   6.987  0.1488 -0.4517 -0.4594
12793SOL    HW143317   0.803   6.012   7.039 -0.3213 -0.7836  0.1092
12793SOL    HW243318   0.707   5.902   6.997  0.3012 -1.0191 -0.7227
12794SOL     OW43319   3.584   0.835   8.155 -0.0930  0.4238 -0.5058
12794SOL    HW143320   3.649   0.836   8.085 -1.1155  0.5773 -1.4651
12794SOL    HW243321   3.513   0.890   8.124 -0.7681  0.1261  0.4578
12795SOL     OW43322   9.564   0.090  10.481  0.2135  0.5152  0.5651
12795SOL    HW143323   9.584   0.126  10.394  0.9434 -1.2865 -0.0570
12795SOL    HW243324   9.493   0.028  10.465  1.6208 -1.2582  0.8707
12796SOL     OW43325   0.278  11.626   0.246 -0.1113 -0.4967 -0.3570
12796SOL    HW143326   0.288  11.680   0.324 -0.6616 -1.7798  0.6359
12796SOL    HW243327   0.268  11.689   0.175  0.6622  0.7084  0.5538
12797SOL     OW43328   8.184   7.907   0.276  0.6061 -0.2867 -0.5056
12797SOL    HW143329   8.205   7.994   0.242  1.0732 -0.7803 -1.5155
12797SOL    HW243330   8.094   7.915   0.307 -0.0260  0.0929 -2.3035
12798SOL     OW43331   9.357  10.786   9.455  0.5364  0.2945 -0.3670
12798SOL    HW143332   9.298  10.775   9.530 -0.1376  0.3478 -0.8744
12798SOL    HW243333   9.360  10.700   9.414  1.7304 -0.0008  0.2982
12799SOL     OW43334   7.623  11.412  11.031 -0.1532 -0.0818  0.2451
12799SOL    HW143335   7.702  11.463  11.011  0.2319 -1.0731 -0.9004
12799SOL    HW243336   7.634  11.385  11.122  0.9278 -0.3419  0.0527
12800SOL     OW43337   2.962  10.768   8.010 -0.6100 -0.2157 -0.4506
12800SOL    HW143338   2.931  10.706   7.943  0.8824  0.0971 -1.4651
12800SOL    HW243339   3.013  10.832   7.962  1.6696 -0.7330  1.1273
12801SOL     OW43340   0.878   5.230   1.294 -0.3305  0.2770  0.1074
12801SOL    HW143341   0.946   5.288   1.327  2.1799 -1.0542 -2.3007
12801SOL    HW243342   0.913   5.142   1.308 -1.6621 -0.4661 -1.0088
12802SOL     OW43343  10.346   3.145   1.047 -0.0041  0.3965  0.2313
12802SOL    HW143344  10.349   3.192   0.963 -2.4406 -2.2542 -1.5249
12802SOL    HW243345  10.311   3.209   1.109  0.3814  1.9797 -1.1052
12803SOL     OW43346  10.433   7.488   0.886  0.2461  0.6970 -0.4590
12803SOL    HW143347  10.421   7.478   0.981 -0.4938  0.8769 -0.5249
12803SOL    HW243348  10.463   7.578   0.875  0.7973  0.5259 -0.3584
12804SOL     OW43349   2.002   8.349   1.038 -0.4584  0.4905  0.1439
12804SOL    HW143350   2.014   8.276   1.099 -1.3982  0.4224  0.2564
12804SOL    HW243351   2.002   8.427   1.094 -3.7107  0.2882  0.6060
12805SOL     OW43352   1.522   0.075   2.591  0.1319 -0.0114 -0.5208
12805SOL    HW143353   1.450   0.138   2.601 -0.8225 -0.7709 -2.2406
12805SOL    HW243354   1.581   0.116   2.528  0.3526 -0.1395 -0.3994
12806SOL     OW43355   3.659   9.879   4.939 -0.2941 -0.4848 -0.5728
12806SOL    HW143356   3.695   9.967   4.951  1.5290 -1.3120  0.4371
12806SOL    HW243357   3.700   9.847   4.860  0.0824 -0.9158 -0.2040
12807SOL     OW43358   9.709  11.541   1.938 -0.1965 -0.2437  0.1852
12807SOL    HW143359   9.725  11.605   1.868  0.3145  0.1980  0.6887
12807SOL    HW243360   9.625  11.567   1.976  0.0324  0.1806  0.4211
12808SOL     OW43361   6.481   9.188   0.775 -0.1298  0.2167 -0.0706
12808SOL    HW143362   6.527   9.177   0.692  0.3425  0.9976  0.0812
12808SOL    HW243363   6.489   9.281   0.796 -0.0845  0.0009  0.9388
12809SOL     OW43364   8.222   9.001   5.171 -0.2050 -0.2833  0.2578
12809SOL    HW143365   8.169   9.081   5.177  0.1533 -0.0602  0.5551
12809SOL    HW243366   8.187   8.944   5.239  1.7860  1.0001  2.5191
12810SOL     OW43367   5.756   6.925   1.161  0.1590  0.0613 -0.2212
12810SOL    HW143368   5.679   6.952   1.111 -0.5555 -0.8494  0.3667
12810SOL    HW243369   5.772   6.835   1.134  1.6798  0.5770 -1.1310
12811SOL     OW43370   4.316   5.625   7.298  0.8597 -0.0931  0.7736
12811SOL    HW143371   4.314   5.530   7.292  0.3686 -0.1206  1.3043
12811SOL    HW243372   4.406   5.649   7.273  0.6769 -0.6068 -0.4407
12812SOL     OW43373   1.232   0.118   0.896  0.5358  0.0763 -0.0628
12812SOL    HW143374   1.199   0.117   0.806  0.5727  0.2645 -0.0786
12812SOL    HW243375   1.313   0.066   0.893 -0.8278 -2.2281  0.3945
12813SOL     OW43376   7.096  10.775   4.236  0.5198  0.0966  0.3134
12813SOL    HW143377   7.126  10.866   4.245  0.3096  0.2477 -0.4192
12813SOL    HW243378   7.174  10.726   4.210  0.7111 -0.0006  1.0582
12814SOL     OW43379   2.000   6.343   7.211  0.0003  0.0014  0.3407
12814SOL    HW143380   2.007   6.435   7.236 -1.0879  0.9520 -2.5151
12814SOL    HW243381   1.906   6.326   7.205  0.1993 -0.7924 -0.7987
12815SOL     OW43382   4.299   2.209   0.001 -0.1917 -0.5656 -0.1092
12815SOL    HW143383   4.307   2.236   0.092  2.6249  2.8311 -1.1528
12815SOL    HW243384   4.227   2.263  -0.034  0.0232 -0.4294 -0.3429
12816SOL     OW43385  11.260   3.212   1.447 -0.3671 -0.0706 -0.2195
12816SOL    HW143386  11.258   3.118   1.432  2.2480 -0.5447  1.6800
12816SOL    HW243387  11.246   3.251   1.361 -1.4377 -2.1473 -1.0518
12817SOL     OW43388   9.938   8.951   7.444  0.4953 -0.5300 -0.2683
12817SOL    HW143389   9.926   8.912   7.357 -1.2981 -0.8574  0.0709
12817SOL    HW243390   9.912   8.882   7.505  0.5476  0.0982  0.4771
12818SOL     OW43391   3.094   9.780   3.971  0.0253  0.0317  0.0123
12818SOL    HW143392   3.146   9.804   3.894  1.9698 -2.0734  0.5366
12818SOL    HW243393   3.104   9.854   4.031  0.7301  0.5628 -0.7423
12819SOL     OW43394   2.870   0.796   8.188 -0.0771 -0.9460 -0.1531
12819SOL    HW143395   2.819   0.715   8.184 -1.2620 -0.2059 -0.5472
12819SOL    HW243396   2.843   0.837   8.270 -0.0568 -0.5888 -0.3221
12820SOL     OW43397   8.835   2.166   5.376  0.2691  0.3318  0.3660
12820SOL    HW143398   8.754   2.138   5.332  1.4995 -1.4222 -0.9749
12820SOL    HW243399   8.902   2.108   5.339  2.0331  1.3189  1.8917
12821SOL     OW43400   7.907   2.058   3.909 -0.4633 -0.1934 -0.1163
12821SOL    HW143401   7.834   2.013   3.867 -0.2984 -0.6423  0.0707
12821SOL    HW243402   7.970   1.989   3.928 -0.3293  0.0768  0.4386
12822SOL     OW43403   8.106  10.612   7.741  0.1844 -0.4931  0.4788
12822SOL    HW143404   8.043  10.581   7.805  0.6633  0.2569  1.3292
12822SOL    HW243405   8.156  10.533   7.716 -0.9895 -1.0765 -0.1426
12823SOL     OW43406   3.339   3.371   1.848 -0.0556  0.2718  0.0734
12823SOL    HW143407   3.402   3.300   1.847  1.4354  1.5427 -0.5893
12823SOL    HW243408   3.302   3.370   1.936  3.1603  1.3718  1.5769
12824SOL     OW43409   4.613   3.619   3.721 -0.1978  0.5834  0.1935
12824SOL    HW143410   4.581   3.706   3.698 -0.7774  0.7978  1.7324
12824SOL    HW243411   4.548   3.583   3.782 -0.0655 -1.0139 -0.5413
12825SOL     OW43412   7.831   2.276   8.346 -0.0505  0.1442 -0.3514
12825SOL    HW143413   7.801   2.254   8.434 -1.8039 -0.4974 -1.0594
12825SOL    HW243414   7.798   2.205   8.291 -0.4611  1.3822 -1.7813
12826SOL     OW43415   5.590   2.957  10.806 -0.5376 -0.2617  0.2170
12826SOL    HW143416   5.564   2.890  10.744 -0.2153 -0.3136  0.1374
12826SOL    HW243417   5.681   2.976  10.785 -0.4293 -0.2732  0.6676
12827SOL     OW43418   1.215   6.209   2.017  0.1957  0.1335 -0.3991
12827SOL    HW143419   1.140   6.150   2.019  0.7766 -1.0124 -4.4463
12827SOL    HW243420   1.178   6.296   2.033 -1.4976 -0.6905  0.4260
12828SOL     OW43421   7.385   9.884   5.856  0.9532  0.3294 -0.1618
12828SOL    HW143422   7.467   9.924   5.885  0.9552  0.6041 -0.5392
12828SOL    HW243423   7.376   9.911   5.765  1.5612 -1.5016 -0.8170
12829SOL     OW43424   8.229  10.909   9.455 -1.1203 -0.1306 -0.4557
12829SOL    HW143425   8.308  10.868   9.491  0.8491  4.2314  0.8789
12829SOL    HW243426   8.213  10.863   9.373  1.9754 -2.1119 -0.1208
12830SOL     OW43427   7.333   0.626   9.373  0.3286 -0.2884 -0.1741
12830SOL    HW143428   7.311   0.535   9.393  1.2758 -0.7709 -1.1561
12830SOL    HW243429   7.306   0.637   9.282  1.8418 -0.1755 -0.6437
12831SOL     OW43430   0.372   1.764   5.427  0.2248 -0.2443  0.0136
12831SOL    HW143431   0.355   1.765   5.521  1.3302  0.5363  0.2364
12831SOL    HW243432   0.384   1.856   5.404 -0.2753 -0.4025 -0.9483
12832SOL     OW43433  10.192   8.446   8.127 -0.0379  0.3984 -0.4152
12832SOL    HW143434  10.253   8.373   8.128 -0.2957  0.1719  1.1485
12832SOL    HW243435  10.245   8.522   8.101  0.5164 -0.0940 -0.7308
12833SOL     OW43436   0.518  11.050   9.886 -0.0829  0.2759 -0.3446
12833SOL    HW143437   0.509  10.964   9.927 -0.3914  0.4762  0.0190
12833SOL    HW243438   0.437  11.061   9.837 -0.1706  0.4762 -0.1579
12834SOL     OW43439   3.208  10.770  11.226 -0.6186 -0.3294 -0.1463
12834SOL    HW143440   3.205  10.795  11.318 -1.7603 -1.3075  0.1056
12834SOL    HW243441   3.216  10.853  11.179  1.3836  0.0943  0.8576
12835SOL     OW43442  11.076   6.641   1.330 -0.3242  0.1891 -0.6218
12835SOL    HW143443  11.109   6.693   1.257  0.1199 -1.7152 -1.8497
12835SOL    HW243444  10.980   6.645   1.320 -0.2928  0.6224 -0.8002
12836SOL     OW43445   6.904   7.382   6.952 -0.3850 -0.1232  0.3748
12836SOL    HW143446   6.859   7.445   7.008  0.1180  0.5795  0.0045
12836SOL    HW243447   6.891   7.298   6.996 -0.2325  0.3713  1.4011
12837SOL     OW43448   7.012   0.227   5.956 -0.0697  0.0873  0.2870
12837SOL    HW143449   6.938   0.271   5.914 -1.0487 -1.0448  0.7377
12837SOL    HW243450   7.073   0.208   5.885 -0.8015 -0.0851 -0.3086
12838SOL     OW43451   1.744   2.763   9.457 -0.2846 -0.2619 -0.3821
12838SOL    HW143452   1.817   2.702   9.457  1.0223  1.2375 -0.5175
12838SOL    HW243453   1.718   2.769   9.549 -0.3108 -0.8997 -0.3497
12839SOL     OW43454   9.290   7.369  10.929  0.1758  0.5380  0.1424
12839SOL    HW143455   9.262   7.283  10.959  1.1176 -0.0070 -0.4670
12839SOL    HW243456   9.384   7.371  10.948 -0.0626  1.9634  1.3500
12840SOL     OW43457   5.539   0.025   8.878 -0.0553  0.3760 -0.6181
12840SOL    HW143458   5.489   0.083   8.821 -0.3184  2.3866  1.5191
12840SOL    HW243459   5.590   0.083   8.934 -2.8589 -1.0422  4.0219
12841SOL     OW43460  11.417   7.349   4.147  0.6328  0.7470  0.1317
12841SOL    HW143461  11.477   7.388   4.211 -1.0880  3.5821  0.2126
12841SOL    HW243462  11.336   7.334   4.196  0.3118 -0.1204 -0.6412
12842SOL     OW43463   2.475   4.509  11.085 -0.2449  0.2488  0.1370
12842SOL    HW143464   2.433   4.490  11.001 -1.9458 -0.5459  1.1043
12842SOL    HW243465   2.557   4.459  11.083 -0.2657  0.2417 -1.0350
12843SOL     OW43466   7.285   0.940   6.952 -0.0103  0.0892  0.0676
12843SOL    HW143467   7.321   1.020   6.991 -2.0107  1.2723 -0.3445
12843SOL    HW243468   7.212   0.915   7.010 -0.5212 -0.4022 -0.7584
12844SOL     OW43469  11.097   7.615   3.950  0.4824 -0.1869  0.4005
12844SOL    HW143470  11.135   7.531   3.923 -0.7400 -1.4545  2.3702
12844SOL    HW243471  11.170   7.663   3.989  0.8794 -0.9691  0.6387
12845SOL     OW43472   1.949   7.793   3.681  0.0023  0.2577  0.8076
12845SOL    HW143473   1.952   7.888   3.676  0.8903  0.2049 -0.0132
12845SOL    HW243474   1.857   7.770   3.667 -0.2893  0.9994  1.4429
12846SOL     OW43475   0.003   6.357   6.829  0.4515  0.3205  0.5662
12846SOL    HW143476  -0.046   6.354   6.746  0.7845  0.9230  0.3418
12846SOL    HW243477  -0.063   6.339   6.896  0.1688 -0.1284  0.1772
12847SOL     OW43478   0.818   5.498   0.398 -0.0936 -0.3049 -0.1400
12847SOL    HW143479   0.765   5.425   0.430  1.1141 -0.4907  1.5789
12847SOL    HW243480   0.755   5.556   0.355 -1.6665 -0.6803  1.5056
12848SOL     OW43481   3.835   7.187   0.688  0.1898 -0.4762  0.2274
12848SOL    HW143482   3.902   7.119   0.691  1.4619  0.6387 -1.1083
12848SOL    HW243483   3.884   7.268   0.674 -1.3765  0.5091  0.2068
12849SOL     OW43484  11.558   4.585   5.333  1.1190 -0.5151  0.0798
12849SOL    HW143485  11.481   4.569   5.387  1.1950  4.1390  2.0305
12849SOL    HW243486  11.632   4.578   5.393  1.7150 -0.0903 -0.5830
12850SOL     OW43487   5.068   8.429   8.038 -0.1925 -0.4867 -0.2627
12850SOL    HW143488   4.999   8.390   7.985 -1.7604 -0.1762  1.4734
12850SOL    HW243489   5.115   8.355   8.076 -0.5919 -0.6862 -0.1614
12851SOL     OW43490   7.964   9.063   5.569 -0.1457  0.1468 -0.0536
12851SOL    HW143491   8.041   9.109   5.536 -1.7391  2.2004 -1.1675
12851SOL    HW243492   7.891   9.099   5.518 -1.6634 -3.0811 -0.4134
12852SOL     OW43493   6.933   3.373   8.537  0.4111 -0.2446  0.4339
12852SOL    HW143494   6.993   3.437   8.501 -1.1662  0.2058 -1.6352
12852SOL    HW243495   6.951   3.292   8.488  0.5810 -0.6398  1.1286
12853SOL     OW43496   5.614   7.200   0.678 -0.1500  0.4120 -0.6647
12853SOL    HW143497   5.533   7.204   0.627 -0.6010  1.4850  0.0993
12853SOL    HW243498   5.602   7.124   0.734 -0.3209  0.1465 -1.0517
12854SOL     OW43499   6.504   9.617   4.906 -0.0890 -0.5700 -0.7338
12854SOL    HW143500   6.584   9.613   4.957  0.1213  0.9190 -0.9226
12854SOL    HW243501   6.482   9.525   4.889  1.7118 -0.9936 -0.9251
12855SOL     OW43502   9.742   0.235   2.283 -0.0902  0.1674 -0.3998
12855SOL    HW143503   9.730   0.141   2.272  0.8222  0.1368 -1.3420
12855SOL    HW243504   9.655   0.273   2.270 -0.1473 -0.4142 -1.8733
12856SOL     OW43505   0.977  11.666   5.712 -0.1421  0.1907 -0.4527
12856SOL    HW143506   0.927  11.585   5.719  1.8140 -0.9769  1.5405
12856SOL    HW243507   1.067  11.637   5.696  1.0645  1.7206  2.7079
12857SOL     OW43508   8.919   3.715   8.090 -0.0699 -0.1518  0.1193
12857SOL    HW143509   8.922   3.631   8.134 -0.5823 -0.6417 -0.7425
12857SOL    HW243510   8.825   3.735   8.084 -0.2361 -1.3391 -2.9588
12858SOL     OW43511   1.502   2.207   2.274 -0.2204 -0.0380  0.1241
12858SOL    HW143512   1.423   2.253   2.304  0.2094 -1.0135  3.0543
12858SOL    HW243513   1.480   2.114   2.282  0.6573 -0.3285 -0.6733
12859SOL     OW43514   0.435   3.693   8.841 -0.3033  0.4370 -0.0135
12859SOL    HW143515   0.527   3.706   8.863 -0.2439  0.2202 -0.1325
12859SOL    HW243516   0.436   3.638   8.763 -0.4980  1.7988 -1.0231
12860SOL     OW43517   9.910  11.014  10.039 -0.2532 -0.0978 -0.2171
12860SOL    HW143518   9.913  11.056   9.953  0.8981 -1.4210 -0.8612
12860SOL    HW243519   9.851  10.939  10.026  0.7772 -0.9291 -0.1641
12861SOL     OW43520  11.653   4.964   7.622  0.1141  0.2150  0.2363
12861SOL    HW143521  11.737   5.001   7.650  0.3638  1.1703 -1.6513
12861SOL    HW243522  11.673   4.918   7.541 -1.3814  1.4997 -0.9159
12862SOL     OW43523   0.642   0.997   7.692  0.1450 -0.5081 -0.2491
12862SOL    HW143524   0.708   0.935   7.663  0.5818  0.1867 -0.7702
12862SOL    HW243525   0.684   1.046   7.763 -0.0733 -0.5550 -0.0831
12863SOL     OW43526   5.125   2.601   7.974  0.0773  0.0665 -0.1804
12863SOL    HW143527   5.190   2.670   7.965  1.2610 -0.9680  0.2006
12863SOL    HW243528   5.147   2.539   7.905  2.8541 -2.8831  3.0081
12864SOL     OW43529   4.429   0.016   4.462  0.4389  0.5304  0.3918
12864SOL    HW143530   4.334   0.018   4.448  0.4820 -0.2488 -0.0681
12864SOL    HW243531   4.465   0.063   4.387  0.4578 -0.1087 -0.0153
12865SOL     OW43532   0.055   5.817   7.154 -0.1599 -0.4218 -0.3072
12865SOL    HW143533   0.063   5.886   7.088 -0.5301  1.0808  1.1482
12865SOL    HW243534   0.042   5.864   7.237 -0.1076 -2.2421  0.7956
12866SOL     OW43535   5.731   1.298   5.165 -0.0174  0.0449  0.0128
12866SOL    HW143536   5.688   1.377   5.197 -1.9165 -0.9588  0.0596
12866SOL    HW243537   5.684   1.226   5.207  2.1007 -1.1265  0.5098
12867SOL     OW43538  10.333   5.820   8.838  0.4000 -0.3806  0.0000
12867SOL    HW143539  10.298   5.755   8.778 -2.0888 -0.9865  1.9325
12867SOL    HW243540  10.391   5.770   8.897  0.8448 -0.2631 -0.3333
12868SOL     OW43541   6.342   9.464   6.868 -0.2906  0.5173 -0.2082
12868SOL    HW143542   6.423   9.432   6.907 -0.8241  0.3612  0.7978
12868SOL    HW243543   6.308   9.528   6.930 -0.5028  1.2307 -1.0364
12869SOL     OW43544   1.718  10.211   7.212  0.0299 -0.7480 -0.1733
12869SOL    HW143545   1.715  10.120   7.241 -0.2225 -1.3356 -1.9545
12869SOL    HW243546   1.695  10.208   7.119 -1.4207  1.2983  0.0530
12870SOL     OW43547   8.843   7.962   4.451  0.6060 -0.0282 -0.0117
12870SOL    HW143548   8.798   8.045   4.461 -2.7267 -1.4066 -1.9575
12870SOL    HW243549   8.913   7.980   4.388 -1.3827  0.9979 -2.0827
12871SOL     OW43550   9.226   7.127  10.098  0.0088  0.7363 -0.7295
12871SOL    HW143551   9.155   7.180  10.133 -1.3811  0.2891 -2.6938
12871SOL    HW243552   9.291   7.191  10.068  0.0860  1.1740  0.3109
12872SOL     OW43553  11.062  10.903  11.427  0.1135 -0.1342 -0.1734
12872SOL    HW143554  10.969  10.925  11.433  0.3268  1.2828 -1.4068
12872SOL    HW243555  11.084  10.919  11.335  1.5699 -0.4794  0.0945
12873SOL     OW43556  11.364   4.251   6.132  0.2880  0.0539  0.2892
12873SOL    HW143557  11.371   4.231   6.039  0.4900 -1.1464  0.5349
12873SOL    HW243558  11.300   4.187   6.165  1.0441 -0.2677  1.1658
12874SOL     OW43559   7.683   8.297   0.610 -0.5376 -0.1410  0.2436
12874SOL    HW143560   7.595   8.320   0.638  0.3511  2.6650  1.1596
12874SOL    HW243561   7.699   8.354   0.534  1.0219  0.6529  1.1210
12875SOL     OW43562   7.105   0.821   9.927  0.5705  0.0470  0.0250
12875SOL    HW143563   7.046   0.894   9.944  1.9608  0.9822  1.0339
12875SOL    HW243564   7.151   0.846   9.847  0.8646  0.1779  0.2304
12876SOL     OW43565   4.877   2.357   5.263  0.8006 -0.2980  0.3610
12876SOL    HW143566   4.868   2.265   5.240  1.2271 -0.0797 -0.7700
12876SOL    HW243567   4.932   2.393   5.194  0.5002  0.8397  0.6942
12877SOL     OW43568   1.606   3.121   7.096 -0.4519 -0.5989  0.0745
12877SOL    HW143569   1.527   3.171   7.081 -1.3833 -2.2539 -0.7762
12877SOL    HW243570   1.673   3.165   7.044 -0.5623  1.2841  1.4242
12878SOL     OW43571   6.796   6.255   5.936  0.4840 -0.5399 -0.1719
12878SOL    HW143572   6.767   6.344   5.915  2.7650  0.0738 -1.0011
12878SOL    HW243573   6.841   6.225   5.857  3.0648 -0.9050  1.3070
12879SOL     OW43574   0.894   1.716   0.357 -0.2745  0.4583 -0.0759
12879SOL    HW143575   0.929   1.718   0.446 -1.2255  2.4165  0.3109
12879SOL    HW243576   0.806   1.681   0.366  0.7024 -2.4748 -0.7673
12880SOL     OW43577   4.877   3.298  10.644  0.1036  0.2483 -0.2751
12880SOL    HW143578   4.852   3.214  10.605  1.4305 -0.5013  0.4040
12880SOL    HW243579   4.809   3.359  10.615 -2.1472 -1.4931  1.0146
12881SOL     OW43580   7.171   6.589  10.078  0.2836  0.5410  0.2346
12881SOL    HW143581   7.166   6.495  10.095  0.9028  0.0509 -1.9318
12881SOL    HW243582   7.081   6.616  10.062  0.2664 -0.0505 -0.7320
12882SOL     OW43583  11.002   2.948   7.209  0.3342 -0.5512  0.1070
12882SOL    HW143584  10.954   3.030   7.196 -1.0799 -1.7177 -3.2509
12882SOL    HW243585  10.986   2.925   7.301 -1.3803  1.6168  0.4417
12883SOL     OW43586  10.404   3.167  10.213  0.2832  0.0234  0.9354
12883SOL    HW143587  10.316   3.182  10.246 -0.7631 -0.9148 -1.2234
12883SOL    HW243588  10.405   3.207  10.127  1.4748 -1.2517  0.3107
12884SOL     OW43589   9.090   9.080   9.796 -0.4390  0.4287  0.3480
12884SOL    HW143590   9.134   9.129   9.727  1.3536 -1.1325  0.3165
12884SOL    HW243591   9.097   9.136   9.873 -1.9684  1.9373 -0.5249
12885SOL     OW43592   1.556   5.598   2.230  0.0564  0.1824  0.1345
12885SOL    HW143593   1.609   5.667   2.189  0.1946  0.1307  0.2247
12885SOL    HW243594   1.467   5.617   2.203  0.3285 -0.8306 -1.6310
12886SOL     OW43595  10.062   6.673   7.573 -0.0230 -0.6302 -0.5797
12886SOL    HW143596  10.125   6.621   7.621  2.8097  0.5081 -2.7824
12886SOL    HW243597   9.988   6.613   7.559  1.5415 -2.8467  0.0651
12887SOL     OW43598   4.622   1.772   4.432 -0.0901  0.1937 -0.5162
12887SOL    HW143599   4.566   1.695   4.418  0.1758  0.1303 -1.2653
12887SOL    HW243600   4.627   1.781   4.527 -1.9434  0.6049 -0.4050
12888SOL     OW43601   3.409   9.024   4.595 -0.0432  0.2722  0.1556
12888SOL    HW143602   3.417   9.044   4.502 -0.7452 -0.2693 -0.0238
12888SOL    HW243603   3.332   8.968   4.602 -0.3450  0.7874  1.1367
12889SOL     OW43604   3.974   5.916   6.998  0.0456  0.2321 -0.1652
12889SOL    HW143605   4.004   5.828   7.021 -1.6564 -1.2692 -3.0972
12889SOL    HW243606   3.976   5.965   7.080  1.6308 -2.3466  1.4526
12890SOL     OW43607  10.810   7.713   3.353  0.7330  0.3241  0.5765
12890SOL    HW143608  10.727   7.665   3.358  0.9353 -0.6250 -2.7896
12890SOL    HW243609  10.806   7.760   3.270  3.0116  1.3974  0.9944
12891SOL     OW43610   8.802   7.518   4.830 -0.5906 -0.0815  0.3863
12891SOL    HW143611   8.816   7.432   4.868 -0.3480 -0.0958  0.2714
12891SOL    HW243612   8.788   7.501   4.737  0.5103  0.0761  0.1734
12892SOL     OW43613   7.990  11.144   0.281  0.1416 -0.0364 -0.3443
12892SOL    HW143614   7.908  11.139   0.330  0.7676 -1.6822  0.6411
12892SOL    HW243615   7.978  11.083   0.208 -0.2973  1.4064 -1.5122
12893SOL     OW43616   5.035   4.619   1.970  0.3636  0.5396  0.7610
12893SOL    HW143617   5.077   4.676   1.906 -4.4053  1.9889 -1.6062
12893SOL    HW243618   5.021   4.537   1.923  0.9237 -0.1084  1.6854
12894SOL     OW43619   2.397   5.196   6.648  0.4272  0.5853  0.1438
12894SOL    HW143620   2.409   5.288   6.622 -0.6000  0.5376 -0.5974
12894SOL    HW243621   2.481   5.169   6.683  1.2106  1.3599 -1.0757
12895SOL     OW43622   5.547  11.552   9.520  0.1134  0.0845  0.0596
12895SOL    HW143623   5.520  11.544   9.611 -0.0553 -1.2781 -0.0871
12895SOL    HW243624   5.468  11.581   9.474  0.4426  1.7019  0.4634
12896SOL     OW43625   1.463   1.927   2.307  0.0679 -0.5133  0.3608
12896SOL    HW143626   1.390   1.866   2.317  1.7011 -2.3876  1.5766
12896SOL    HW243627   1.492   1.916   2.217 -1.4088  0.6515 -0.3097
12897SOL     OW43628   1.225   5.217   0.740  0.0947  0.2068  0.3085
12897SOL    HW143629   1.165   5.205   0.666  1.8083  0.9452 -1.2955
12897SOL    HW243630   1.304   5.170   0.714  0.4553 -0.2341  2.0945
12898SOL     OW43631  11.005   3.289   3.031 -0.9585 -0.0257 -0.1280
12898SOL    HW143632  10.994   3.292   2.936  0.9971 -0.7197 -0.4171
12898SOL    HW243633  11.090   3.330   3.046 -0.4093 -1.5370  1.1374
12899SOL     OW43634   9.287   5.426   8.015 -0.1324 -0.6084 -0.4124
12899SOL    HW143635   9.330   5.375   8.083  1.1960 -0.5916 -1.1924
12899SOL    HW243636   9.325   5.393   7.933  0.6582  1.5132 -0.9537
12900SOL     OW43637   7.407   4.675  10.746  0.2807 -0.0540 -0.5362
12900SOL    HW143638   7.346   4.636  10.683 -1.0089 -0.9613  1.1678
12900SOL    HW243639   7.450   4.600  10.787  0.1134  0.4323  0.5643
12901SOL     OW43640   7.435   3.850   6.582 -0.0877 -0.2567  0.3666
12901SOL    HW143641   7.530   3.847   6.578 -0.0751  0.4504 -0.0017
12901SOL    HW243642   7.410   3.763   6.615  0.5539 -1.3581 -1.8440
12902SOL     OW43643   0.527   1.819   2.326  0.0296 -0.3138 -0.4438
12902SOL    HW143644   0.536   1.724   2.316  0.5492 -0.1932 -1.1944
12902SOL    HW243645   0.610   1.846   2.365 -0.7128 -0.3490  1.2421
12903SOL     OW43646   9.164   9.190   8.038 -0.0241  0.2921 -0.0327
12903SOL    HW143647   9.133   9.263   8.091 -2.8774 -0.7921 -0.0765
12903SOL    HW243648   9.125   9.205   7.952 -2.0454 -2.0633  0.3906
12904SOL     OW43649   8.649   1.112   6.400 -0.3430  0.0999  0.2034
12904SOL    HW143650   8.650   1.140   6.492  1.2528  2.5309 -0.4652
12904SOL    HW243651   8.557   1.113   6.375 -0.6693  0.8885  1.3690
12905SOL     OW43652  10.964   0.213  10.377 -0.1197 -0.1122  0.1690
12905SOL    HW143653  11.044   0.252  10.411 -0.9504  1.4172  0.4507
12905SOL    HW243654  10.933   0.157  10.448 -0.2527  0.7266  0.7927
12906SOL     OW43655   6.728   5.158   2.258  0.0304  0.2856  0.3422
12906SOL    HW143656   6.812   5.124   2.228  0.7318  1.3225  1.0909
12906SOL    HW243657   6.677   5.080   2.279  0.1199 -0.4343 -1.8331
12907SOL     OW43658   9.940   2.928  10.345  0.2694  0.1967 -0.7901
12907SOL    HW143659   9.980   2.938  10.258  1.3582 -1.7909 -0.5754
12907SOL    HW243660   9.960   2.838  10.370  1.1544  1.1176  2.1209
12908SOL     OW43661   0.580   9.161   6.819 -0.0775  0.3781  0.3911
12908SOL    HW143662   0.512   9.118   6.872 -0.3333  0.5562  0.2108
12908SOL    HW243663   0.540   9.171   6.733  0.2085  0.4185  0.2635
12909SOL     OW43664   0.134   7.039   0.198  0.4352  0.2639  0.1064
12909SOL    HW143665   0.117   7.016   0.107  0.0858  1.0311 -0.0272
12909SOL    HW243666   0.051   7.021   0.243 -0.6795  3.4503 -0.4368
12910SOL     OW43667   4.866   9.996   5.071  0.3150 -0.8483  0.4805
12910SOL    HW143668   4.879   9.935   4.999  0.3191 -0.4425  0.1403
12910SOL    HW243669   4.795  10.054   5.042  0.0675 -0.9090  0.9435
12911SOL     OW43670   5.225  10.166   9.787 -0.3394  0.2309  0.2838
12911SOL    HW143671   5.144  10.177   9.738 -1.0655 -1.7848  0.9138
12911SOL    HW243672   5.294  10.177   9.721 -1.1673  0.8558 -0.4981
12912SOL     OW43673  10.793   9.946   3.988  0.2458 -0.3592 -0.1634
12912SOL    HW143674  10.794  10.013   3.921 -1.6367 -0.8521 -0.7545
12912SOL    HW243675  10.759   9.868   3.944 -1.2218 -0.6405  1.3725
12913SOL     OW43676  10.156   9.505   3.428 -0.1833 -0.6250 -0.5093
12913SOL    HW143677  10.086   9.446   3.398 -0.8898  1.3916 -3.1552
12913SOL    HW243678  10.111   9.569   3.482  0.3483 -1.5337  1.0927
12914SOL     OW43679   8.799   1.121   5.002 -0.3575  0.5196  0.4616
12914SOL    HW143680   8.878   1.173   5.016 -0.1019 -0.3323  2.4938
12914SOL    HW243681   8.770   1.097   5.090 -2.0595 -0.4230 -0.3067
12915SOL     OW43682   9.149   9.394   4.887  0.2219 -0.3578 -0.5774
12915SOL    HW143683   9.133   9.305   4.855 -1.2331 -0.1100 -0.6081
12915SOL    HW243684   9.125   9.450   4.813  3.0589  0.0406 -1.2864
12916SOL     OW43685   5.418   6.764   2.976 -0.9088 -0.1953  0.1611
12916SOL    HW143686   5.405   6.819   3.053  0.8020 -0.7175  0.8721
12916SOL    HW243687   5.477   6.814   2.920 -2.2119  0.2189 -0.8934
12917SOL     OW43688   5.676   7.127   3.592 -0.2112 -0.2679  0.1211
12917SOL    HW143689   5.586   7.129   3.559  0.5464  0.9073 -2.1355
12917SOL    HW243690   5.730   7.120   3.513  1.6988 -0.2244  1.3636
12918SOL     OW43691   6.471   0.886   0.587  0.2473  0.6483 -0.1888
12918SOL    HW143692   6.422   0.822   0.639  0.3773 -0.0744 -0.9441
12918SOL    HW243693   6.474   0.964   0.643  2.0563 -0.6949  1.7684
12919SOL     OW43694   7.757   8.360   3.604 -0.1653 -0.0163 -0.4807
12919SOL    HW143695   7.783   8.441   3.560 -0.2542 -0.1489 -0.7755
12919SOL    HW243696   7.784   8.290   3.545 -1.3158 -0.1498 -0.8732
12920SOL     OW43697   2.293  11.075   3.805 -0.2710 -0.0052  0.4971
12920SOL    HW143698   2.270  11.161   3.840 -1.1312 -0.2790  0.6348
12920SOL    HW243699   2.249  11.071   3.720 -0.5793 -0.4502  0.6674
12921SOL     OW43700   9.473  10.142   4.895 -0.6075 -0.1984  0.4733
12921SOL    HW143701   9.554  10.193   4.891 -0.1989 -0.8601  0.2212
12921SOL    HW243702   9.441  10.156   4.985  0.2318 -0.6094  0.8442
12922SOL     OW43703   9.271   7.674   8.975  0.7191 -0.8835 -0.0691
12922SOL    HW143704   9.262   7.686   9.069  0.8814 -0.2490 -0.1297
12922SOL    HW243705   9.196   7.719   8.937 -0.3411 -2.6529 -0.1758
12923SOL     OW43706   3.598   0.576   6.494  0.0755  0.4341 -0.0052
12923SOL    HW143707   3.657   0.522   6.547 -2.6211 -2.4229  0.4053
12923SOL    HW243708   3.641   0.580   6.408  2.6072  1.7780  1.1985
12924SOL     OW43709   4.526   7.995  10.637  0.1387  0.0713  0.0778
12924SOL    HW143710   4.608   8.042  10.650  0.0740  0.6693 -1.4601
12924SOL    HW243711   4.533   7.918  10.693  0.1750  1.9388  2.8090
12925SOL     OW43712   1.575   3.316   5.821  0.3187 -0.3440  0.0591
12925SOL    HW143713   1.496   3.362   5.793  0.8942  0.2070 -0.6953
12925SOL    HW243714   1.645   3.354   5.768  0.8675 -1.8479 -0.3538
12926SOL     OW43715   7.170   0.424   0.936  0.5855 -0.9941 -0.1340
12926SOL    HW143716   7.252   0.375   0.935  2.2193  1.4636 -2.3358
12926SOL    HW243717   7.175   0.478   1.014  0.6092 -1.5225  0.2340
12927SOL     OW43718   8.589   9.821   4.448  0.1735 -0.2793 -0.0379
12927SOL    HW143719   8.533   9.744   4.441  0.2545 -0.4209  0.7679
12927SOL    HW243720   8.606   9.830   4.542 -0.5497  1.2230 -0.0158
12928SOL     OW43721   7.492   9.213  10.282  0.3611 -0.2179  0.5128
12928SOL    HW143722   7.492   9.227  10.187 -2.7712 -0.9714  0.2593
12928SOL    HW243723   7.455   9.294  10.318  2.7096  0.5724  1.2830
12929SOL     OW43724   2.805   2.217   4.680  0.0193  0.1193 -0.1391
12929SOL    HW143725   2.858   2.169   4.744  0.9677 -0.2057 -1.1488
12929SOL    HW243726   2.764   2.148   4.627  2.2464  0.3153 -2.3038
12930SOL     OW43727   1.141   8.868   5.752 -0.1854 -0.7946  0.5064
12930SOL    HW143728   1.165   8.958   5.729  0.2869 -0.7115  1.3129
12930SOL    HW243729   1.106   8.832   5.670 -0.2869  0.0852  0.1479
12931SOL     OW43730   5.582   7.361   7.426 -0.0635 -0.4080  0.6175
12931SOL    HW143731   5.652   7.399   7.373 -0.4794 -0.3608  0.0857
12931SOL    HW243732   5.513   7.427   7.426 -2.1930 -2.2691 -3.1043
12932SOL     OW43733   2.472  10.710   9.386  0.2054 -0.1344 -0.2429
12932SOL    HW143734   2.517  10.787   9.350  1.5393 -0.2726  1.0367
12932SOL    HW243735   2.379  10.733   9.382  0.4795  0.9134 -1.2835
12933SOL     OW43736   6.536   1.593   2.362  0.1056 -0.5641  0.2968
12933SOL    HW143737   6.599   1.590   2.290 -0.0412 -0.7177  0.1728
12933SOL    HW243738   6.451   1.574   2.320 -0.5335  2.7110 -0.0985
12934SOL     OW43739   7.077   5.956  10.483 -0.3103 -0.3565  0.6099
12934SOL    HW143740   7.114   6.041  10.509 -1.1022 -0.3102  1.6478
12934SOL    HW243741   6.982   5.969  10.488 -0.4511 -0.9833 -0.3187
12935SOL     OW43742  11.283   2.194  11.685  0.3353  0.8953 -0.2227
12935SOL    HW143743  11.188   2.195  11.692  0.3666  0.1511  0.4565
12935SOL    HW243744  11.303   2.261  11.620 -0.5739  1.8890  0.4865
12936SOL     OW43745   0.332   9.168   4.986  0.2287  0.1173  0.4746
12936SOL    HW143746   0.288   9.234   4.933 -0.5114 -0.4441  0.3750
12936SOL    HW243747   0.299   9.084   4.953  1.7749 -0.3592  0.0291
12937SOL     OW43748   3.470   3.276   9.037  0.5709 -0.7947 -0.3697
12937SOL    HW143749   3.379   3.251   9.019  0.0187  0.3259  0.7344
12937SOL    HW243750   3.511   3.195   9.068 -0.3595 -1.0773  0.1780
12938SOL     OW43751  10.682   6.168   6.768  0.0399 -0.3824 -0.5732
12938SOL    HW143752  10.713   6.229   6.835 -3.1274  1.1390 -0.2652
12938SOL    HW243753  10.636   6.100   6.817 -0.0654 -0.6768 -1.0751
12939SOL     OW43754   5.287  10.940   6.164  0.0743 -0.4350  0.8297
12939SOL    HW143755   5.199  10.930   6.130  0.1743  0.4665  0.2907
12939SOL    HW243756   5.275  10.963   6.256 -0.2303 -0.7721  0.8779
12940SOL     OW43757   1.967   3.667  10.755 -0.1854  0.2807 -0.6728
12940SOL    HW143758   1.919   3.597  10.799 -2.3988 -0.3282 -3.6997
12940SOL    HW243759   2.017   3.621  10.687  0.3987  1.4342 -1.0446
12941SOL     OW43760   2.382   1.084  10.479 -0.5814  0.0633 -0.3066
12941SOL    HW143761   2.397   1.005  10.426 -0.6475  0.4165 -0.8654
12941SOL    HW243762   2.426   1.154  10.430 -0.7742  0.4236  0.0343
12942SOL     OW43763   9.982   1.688   2.079  0.1213  0.3091 -0.0629
12942SOL    HW143764   9.931   1.717   2.004  0.7040 -0.7890 -0.9010
12942SOL    HW243765  10.070   1.722   2.062  0.7464 -1.6076 -0.9133
12943SOL     OW43766  10.348  10.468   3.555  0.3543  0.4177  0.1874
12943SOL    HW143767  10.346  10.446   3.648 -0.6002 -1.2935 -0.1944
12943SOL    HW243768  10.281  10.536   3.545  1.4368  1.6373  0.9510
12944SOL     OW43769  11.574   0.223   2.764 -0.0754 -0.0765  0.3931
12944SOL    HW143770  11.567   0.188   2.853  0.6296  0.4438  0.6594
12944SOL    HW243771  11.483   0.239   2.737 -0.2942 -0.3107  0.9846
12945SOL     OW43772   3.426   7.566  10.855  0.3200 -0.2541  0.1597
12945SOL    HW143773   3.518   7.558  10.831  0.1084  2.6873 -2.3156
12945SOL    HW243774   3.383   7.496  10.805  0.9170  0.4155 -1.3737
12946SOL     OW43775   2.012   9.973   5.733  0.1339 -0.3515 -0.1323
12946SOL    HW143776   2.019  10.004   5.823 -0.7290  1.4271 -0.6391
12946SOL    HW243777   2.058   9.888   5.734  1.8749  0.5172  1.5165
12947SOL     OW43778   0.507   7.968   8.046  0.6602 -0.2809 -0.1887
12947SOL    HW143779   0.463   7.971   7.961 -1.2154 -1.9509  0.6381
12947SOL    HW243780   0.514   7.875   8.066  1.2235  0.0745  1.4026
12948SOL     OW43781   0.392   1.993   4.810 -0.1870 -0.6051 -0.6926
12948SOL    HW143782   0.321   2.055   4.794 -0.0972 -0.2697  0.1284
12948SOL    HW243783   0.471   2.047   4.808 -0.1138 -0.6686  0.0923
12949SOL     OW43784   4.451   2.096   3.300 -0.1905  0.0149 -0.1280
12949SOL    HW143785   4.459   2.050   3.383  2.7804 -0.3064 -0.4553
12949SOL    HW243786   4.412   2.180   3.322  2.5689  0.8732  2.0827
12950SOL     OW43787   4.954   5.384   2.839  0.5246  0.0549  0.0494
12950SOL    HW143788   4.960   5.331   2.760  1.1016 -0.8409  0.6667
12950SOL    HW243789   5.011   5.459   2.822 -1.2937  1.1897 -1.3302
12951SOL     OW43790   5.170   2.025   0.769 -0.1050 -0.3584 -0.3301
12951SOL    HW143791   5.130   2.082   0.835 -2.7576 -0.6376 -1.5526
12951SOL    HW243792   5.168   2.076   0.688 -1.7153 -1.7763 -1.2519
12952SOL     OW43793   4.220  10.699  11.604  0.4858  0.4440 -0.0703
12952SOL    HW143794   4.161  10.733  11.537  0.0107  2.1119  1.1497
12952SOL    HW243795   4.306  10.736  11.581  0.6761 -0.3023 -0.6400
12953SOL     OW43796   6.959   7.076   4.085 -0.7767 -0.2678 -0.2056
12953SOL    HW143797   7.023   7.044   4.149  0.5103  1.7713 -0.3899
12953SOL    HW243798   6.952   7.005   4.021 -0.1357 -1.2925  0.8170
12954SOL     OW43799   3.458   5.809   4.838 -0.1879 -0.1803  0.0637
12954SOL    HW143800   3.411   5.744   4.891  1.2296 -0.1055  1.5032
12954SOL    HW243801   3.447   5.891   4.886  0.0876  0.1557 -0.4378
12955SOL     OW43802   0.199   5.663   4.908  0.1254 -0.3579 -0.3745
12955SOL    HW143803   0.148   5.702   4.979 -0.1930 -2.1198  0.4041
12955SOL    HW243804   0.134   5.637   4.842  0.0959 -1.6164  0.1328
12956SOL     OW43805   6.491  11.245   3.064  0.4538  0.2013  0.7163
12956SOL    HW143806   6.574  11.212   3.099  1.7304  0.2106 -2.0189
12956SOL    HW243807   6.495  11.225   2.970 -2.0297  1.4944  0.2446
12957SOL     OW43808  11.172   5.793   0.886 -0.2319 -0.2278 -0.5907
12957SOL    HW143809  11.230   5.773   0.960 -1.4335 -3.0152 -0.2829
12957SOL    HW243810  11.108   5.855   0.922  2.2830  2.7746 -0.9010
12958SOL     OW43811   1.865  11.007   8.844  0.4726  0.3285 -0.8076
12958SOL    HW143812   1.894  11.019   8.935 -0.8366 -1.3847 -0.0998
12958SOL    HW243813   1.888  11.089   8.800  2.9317  0.4833  0.5511
12959SOL     OW43814  10.093   7.824   5.778  0.0579 -0.4718 -0.4755
12959SOL    HW143815  10.071   7.860   5.692 -2.0086  0.8734  0.5281
12959SOL    HW243816  10.105   7.731   5.763 -2.6912 -0.7027 -1.9075
12960SOL     OW43817  11.167   5.563   4.002  0.3634 -0.1345  0.0883
12960SOL    HW143818  11.170   5.556   4.097  0.1347 -0.1904  0.0928
12960SOL    HW243819  11.255   5.541   3.973  1.1288  2.1436  0.4333
12961SOL     OW43820   7.131   6.808  10.740  0.4859 -0.0606  0.5220
12961SOL    HW143821   7.135   6.860  10.821  0.2600  0.9189 -0.0734
12961SOL    HW243822   7.095   6.724  10.767  0.6815  0.1586  1.4907
12962SOL     OW43823   8.899   5.623   1.206  0.3084  0.3511 -0.1242
12962SOL    HW143824   8.939   5.699   1.248 -0.7153  0.8356  0.0131
12962SOL    HW243825   8.897   5.646   1.113  0.0008  0.4979 -0.0830
12963SOL     OW43826   9.954   7.426   1.587 -0.1259  0.5237  0.4689
12963SOL    HW143827  10.018   7.404   1.519 -0.4569  0.9506  0.0072
12963SOL    HW243828   9.914   7.507   1.556 -0.9442  0.2232  0.7106
12964SOL     OW43829   0.229   5.069  11.113 -0.0546 -0.8272  0.5539
12964SOL    HW143830   0.223   5.141  11.174 -0.7760  0.0493 -0.5179
12964SOL    HW243831   0.249   4.993  11.167 -1.5130 -0.2478  1.9773
12965SOL     OW43832   4.567   8.498   8.777  0.0897 -0.2165  0.1273
12965SOL    HW143833   4.504   8.431   8.750 -0.2104 -0.6717  1.8343
12965SOL    HW243834   4.518   8.554   8.837  0.1870  1.8970 -1.6313
12966SOL     OW43835   1.228   5.039   2.489 -0.1353 -0.0353 -0.2044
12966SOL    HW143836   1.243   5.028   2.395  2.2228  0.0436  0.0905
12966SOL    HW243837   1.190   4.955   2.517 -1.4905  0.1811 -1.2975
12967SOL     OW43838  10.631   5.748   7.682 -0.1647 -0.3470  0.5463
12967SOL    HW143839  10.665   5.660   7.667  1.3527 -0.0235  1.8385
12967SOL    HW243840  10.621   5.785   7.594 -0.1685 -1.5601  0.0191
12968SOL     OW43841   7.250   5.528   7.652 -0.1662 -0.3351 -0.5454
12968SOL    HW143842   7.188   5.457   7.634 -0.5171  0.3740 -2.3324
12968SOL    HW243843   7.294   5.543   7.569 -0.7742  2.1866 -0.4777
12969SOL     OW43844   4.335   4.069   5.505  0.5660  0.5098 -0.3271
12969SOL    HW143845   4.276   4.015   5.452 -2.0380  1.8623  1.0046
12969SOL    HW243846   4.364   4.010   5.574 -0.9864  0.3222  0.2142
12970SOL     OW43847   8.803   0.368   4.870 -0.5178  0.1606  0.1807
12970SOL    HW143848   8.848   0.445   4.905 -2.7002  0.7843  1.9009
12970SOL    HW243849   8.853   0.294   4.904  0.6590  0.7924 -0.1160
12971SOL     OW43850   5.304   1.193   6.354 -0.4347 -0.2689  0.2531
12971SOL    HW143851   5.384   1.140   6.359 -0.0934  0.1226 -0.7239
12971SOL    HW243852   5.235   1.134   6.385  0.1148 -0.8773  0.3653
12972SOL     OW43853   1.003   0.890   4.235  0.1371 -0.0032 -0.4009
12972SOL    HW143854   1.063   0.948   4.187  0.3315 -1.1093 -1.5287
12972SOL    HW243855   1.054   0.860   4.310 -0.0117  1.3663  0.2878
12973SOL     OW43856   7.977   7.489   3.932  0.0564 -0.8215  0.2957
12973SOL    HW143857   7.955   7.412   3.880 -2.8281  0.0419  0.0327
12973SOL    HW243858   7.995   7.557   3.868  1.5679 -0.9889  0.5172
12974SOL     OW43859   6.938   4.483   6.527 -0.0384 -0.0711 -0.3914
12974SOL    HW143860   6.965   4.499   6.437 -1.9901  0.0607 -0.9903
12974SOL    HW243861   6.872   4.414   6.521  1.1300 -1.4466  1.1633
12975SOL     OW43862   3.127   4.150   1.458 -0.8223  0.3307  0.3770
12975SOL    HW143863   3.178   4.083   1.412  0.7837 -0.7498  3.4508
12975SOL    HW243864   3.036   4.129   1.437 -0.2474 -0.7607 -1.3136
12976SOL     OW43865   9.173  10.127   1.000 -0.4469  0.2175 -0.0061
12976SOL    HW143866   9.160  10.038   1.034 -1.7100 -0.4276 -2.0033
12976SOL    HW243867   9.097  10.176   1.032  0.5956  0.8205  1.6704
12977SOL     OW43868   1.592   6.209   8.861 -0.2827  0.0554  0.2365
12977SOL    HW143869   1.503   6.229   8.834 -0.1784 -1.5808 -1.5388
12977SOL    HW243870   1.619   6.284   8.914 -2.8610  0.3588  1.2421
12978SOL     OW43871   1.597   8.430   0.812 -0.0198  0.0313  0.2084
12978SOL    HW143872   1.668   8.423   0.876 -2.1689  1.3103  2.9699
12978SOL    HW243873   1.595   8.523   0.790 -1.2672  0.1621  0.7861
12979SOL     OW43874   4.881   1.131   0.796 -0.1917 -0.2566 -0.1501
12979SOL    HW143875   4.919   1.212   0.762 -2.3194  1.2892  0.8746
12979SOL    HW243876   4.835   1.093   0.721  0.4074 -0.2670 -0.5182
12980SOL     OW43877   0.432   6.535   6.283 -0.1837 -0.3710  0.3205
12980SOL    HW143878   0.395   6.605   6.337  0.7106 -0.7493  1.4750
12980SOL    HW243879   0.488   6.581   6.220  0.9892 -0.0622  1.5496
12981SOL     OW43880   2.950   2.288   8.027 -0.0890 -0.5619 -0.4780
12981SOL    HW143881   2.890   2.318   8.095  0.8800 -1.1547  0.6776
12981SOL    HW243882   3.029   2.341   8.039  0.5074 -1.4471 -0.3784
12982SOL     OW43883   6.296   1.203   4.228 -0.5636  0.5123 -0.1586
12982SOL    HW143884   6.252   1.287   4.211 -0.7515  0.1909 -1.3232
12982SOL    HW243885   6.259   1.143   4.163 -0.1470 -0.3797  0.4175
12983SOL     OW43886   1.456   0.534  10.542 -0.1885 -0.4449  0.5324
12983SOL    HW143887   1.374   0.486  10.533 -0.6022  0.5778 -1.7969
12983SOL    HW243888   1.447   0.580  10.626 -1.2607 -1.6405  1.1063
12984SOL     OW43889   5.358   2.012   4.207  0.6505  0.4202  0.1964
12984SOL    HW143890   5.284   1.980   4.259  1.2218  0.4038  1.0281
12984SOL    HW243891   5.426   2.031   4.272  0.3433  3.4196 -0.1956
12985SOL     OW43892   2.332   5.477   2.184  0.1514  0.6399  0.3243
12985SOL    HW143893   2.247   5.434   2.184  0.0287  0.8779 -0.1910
12985SOL    HW243894   2.343   5.508   2.274 -1.5369  3.0417 -0.2090
12986SOL     OW43895   6.041   1.541   5.382 -0.6575  0.0601  0.2384
12986SOL    HW143896   6.124   1.588   5.389 -0.6626  0.6074 -2.5636
12986SOL    HW243897   6.050   1.467   5.443  1.4627  0.6670  0.7265
12987SOL     OW43898  10.765   5.935  11.495  0.0315  0.0351 -0.4734
12987SOL    HW143899  10.757   5.884  11.575 -0.5170  0.8977  0.0345
12987SOL    HW243900  10.850   5.978  11.502  1.1149 -1.7796 -1.5140
12988SOL     OW43901   8.266  10.273   1.253  0.2924  0.1027 -0.5583
12988SOL    HW143902   8.355  10.265   1.219  1.2550 -0.1180  1.8370
12988SOL    HW243903   8.274  10.251   1.346 -2.3907 -0.5730 -0.4172
12989SOL     OW43904   3.529   1.380   7.797 -0.1568 -1.2429 -0.3646
12989SOL    HW143905   3.520   1.469   7.832 -0.6186 -2.1500  2.0262
12989SOL    HW243906   3.620   1.375   7.768  0.4162 -0.5129  1.1779
12990SOL     OW43907   3.371  10.212   8.673  0.0699  0.2933  0.0679
12990SOL    HW143908   3.342  10.130   8.714 -0.4034 -0.2412 -1.2798
12990SOL    HW243909   3.331  10.280   8.727  0.4848 -0.3477  1.2267
12991SOL     OW43910   3.199   1.229   1.585  0.3362  0.3075 -0.1006
12991SOL    HW143911   3.244   1.257   1.664  0.2985  0.1110 -0.0093
12991SOL    HW243912   3.108   1.257   1.597  0.9292  3.0838 -1.4196
12992SOL     OW43913   5.349   9.534   3.223 -0.6233 -0.6387  0.1870
12992SOL    HW143914   5.270   9.501   3.180  0.1761 -1.6445 -0.5548
12992SOL    HW243915   5.409   9.553   3.151  0.3760 -1.3906  0.7979
12993SOL     OW43916   8.454  10.099   7.115  0.0263  0.3287  0.0993
12993SOL    HW143917   8.363  10.122   7.134  0.3195  2.0268 -0.3789
12993SOL    HW243918   8.492  10.081   7.201 -1.1478 -2.1933  0.1832
12994SOL     OW43919  10.859   5.720  11.309  0.8522  0.1747 -0.1241
12994SOL    HW143920  10.927   5.740  11.245 -1.0844  0.6373 -2.1254
12994SOL    HW243921  10.853   5.800  11.362  2.3319 -0.1430  0.5814
12995SOL     OW43922   9.439  10.131   2.898 -0.2912  0.3777 -0.0486
12995SOL    HW143923   9.447  10.077   2.819  1.1465  1.0474 -0.4013
12995SOL    HW243924   9.417  10.069   2.968  1.1860 -0.6692 -0.4628
12996SOL     OW43925   1.808   7.694   9.508  0.5982 -0.5139  0.3939
12996SOL    HW143926   1.752   7.657   9.576  2.6992  1.8085  3.6857
12996SOL    HW243927   1.765   7.776   9.483 -0.0298 -1.2294 -1.0385
12997SOL     OW43928   1.451  10.542  11.417  0.1819 -0.2863  0.1182
12997SOL    HW143929   1.439  10.504  11.503  0.6711 -0.9275 -0.0826
12997SOL    HW243930   1.368  10.527  11.371  0.5015 -1.5047 -0.0954
12998SOL     OW43931  10.067   4.232   7.402 -0.2017  0.7449 -0.4170
12998SOL    HW143932  10.100   4.169   7.338 -1.1487 -0.2688  0.0638
12998SOL    HW243933  10.138   4.296   7.412  0.6253 -0.0299 -1.2055
12999SOL     OW43934   8.449   3.276  11.285  0.0925 -0.4538 -0.1230
12999SOL    HW143935   8.420   3.210  11.348 -2.7408  0.6845 -0.0960
12999SOL    HW243936   8.431   3.360  11.327  1.6870  0.3557 -0.9768
13000SOL     OW43937   4.837   3.974   8.239  0.2644 -0.0560 -0.1864
13000SOL    HW143938   4.916   3.976   8.292  1.0196 -0.0744 -1.2680
13000SOL    HW243939   4.795   3.891   8.261  1.1574 -0.5853 -0.4381
13001SOL     OW43940   3.062  10.258  10.831 -0.2755 -0.5676 -0.4752
13001SOL    HW143941   3.110  10.265  10.914  0.3742  1.5035 -0.9863
13001SOL    HW243942   3.047  10.164  10.821 -1.3301 -0.8262  2.4981
13002SOL     OW43943   4.117   4.106   7.282 -0.1484 -0.2458  0.4168
13002SOL    HW143944   4.180   4.162   7.327  0.8905 -1.1467  0.1208
13002SOL    HW243945   4.119   4.136   7.191  0.4485 -0.7845  0.2473
13003SOL     OW43946   3.136  11.095   4.181  0.0668  0.5137 -0.1576
13003SOL    HW143947   3.169  11.178   4.146  1.2031  0.9239  1.7581
13003SOL    HW243948   3.153  11.031   4.111  1.3440  1.4564 -0.7557
13004SOL     OW43949   3.652   4.247   5.192 -0.4994  0.0617  0.2743
13004SOL    HW143950   3.617   4.163   5.222 -1.0340 -0.4410 -1.6470
13004SOL    HW243951   3.742   4.248   5.224 -0.3544 -1.4478 -0.0037
13005SOL     OW43952   0.924   9.647   0.774 -0.1297 -0.4085 -0.1816
13005SOL    HW143953   0.888   9.571   0.728 -1.6523 -0.3358  0.8254
13005SOL    HW243954   1.003   9.614   0.817  1.2086 -0.5361 -2.5563
13006SOL     OW43955   4.607   9.088   2.434  0.2783 -0.9242 -0.2134
13006SOL    HW143956   4.674   9.047   2.488  0.8732 -1.4622 -1.3256
13006SOL    HW243957   4.577   9.017   2.377 -0.4088 -0.3928 -0.5221
13007SOL     OW43958   3.850   9.371   3.069  0.4257  0.5227 -0.2470
13007SOL    HW143959   3.764   9.407   3.049  1.3901  1.8971 -2.2114
13007SOL    HW243960   3.892   9.437   3.123  0.2400 -0.1980  0.8077
13008SOL     OW43961   6.171   7.587  10.477  0.1102  0.4613 -0.3650
13008SOL    HW143962   6.261   7.554  10.483  0.8295  2.0879 -1.4859
13008SOL    HW243963   6.132   7.538  10.404  0.3340  0.2686 -0.3564
13009SOL     OW43964   0.355   4.472   7.867 -0.2922 -0.2763 -0.4920
13009SOL    HW143965   0.280   4.423   7.833  1.2300 -2.4398 -0.9813
13009SOL    HW243966   0.397   4.510   7.790 -1.1186  1.3448 -0.1708
13010SOL     OW43967   3.984   6.690   0.392  0.3761  0.2863  0.0941
13010SOL    HW143968   3.974   6.595   0.398 -2.0125  0.4976  0.7088
13010SOL    HW243969   3.897   6.724   0.413  0.9018  2.5850 -1.1177
13011SOL     OW43970   7.655   4.474  11.285 -0.5661  0.4915 -0.0999
13011SOL    HW143971   7.738   4.520  11.294 -0.0997  0.1145 -2.0167
13011SOL    HW243972   7.679   4.384  11.266 -1.4792 -0.4426  2.6265
13012SOL     OW43973  10.099  10.475   1.096 -0.3015 -0.0045  0.0172
13012SOL    HW143974  10.149  10.472   1.014 -0.4161 -0.2945 -0.0459
13012SOL    HW243975  10.101  10.384   1.128  0.5241  0.2886  0.8132
13013SOL     OW43976   7.396   0.671   3.556 -0.0021  0.0747 -0.6175
13013SOL    HW143977   7.435   0.618   3.626  0.6798  0.4523 -0.7060
13013SOL    HW243978   7.374   0.754   3.598 -0.6498 -0.1045 -0.5881
13014SOL     OW43979   1.021   4.403   4.275 -0.2655 -0.3032 -0.6652
13014SOL    HW143980   1.049   4.485   4.234 -2.0167  0.2787 -0.7675
13014SOL    HW243981   0.926   4.402   4.265 -0.7059 -0.5357  2.6352
13015SOL     OW43982   8.446   8.213   2.855  0.3896  0.4513  0.5755
13015SOL    HW143983   8.541   8.203   2.851  0.4353  0.7599  0.8731
13015SOL    HW243984   8.415   8.128   2.885  0.7139  0.9012  2.2539
13016SOL     OW43985   7.126   8.704   0.274  0.1652 -0.4460  0.4596
13016SOL    HW143986   7.101   8.766   0.206  0.3967 -0.9322 -0.0755
13016SOL    HW243987   7.107   8.750   0.356 -1.1498 -0.2727  0.0771
13017SOL     OW43988   9.519   8.885   8.813 -0.0830  0.6201 -0.0516
13017SOL    HW143989   9.474   8.878   8.729  1.3695  1.6958 -0.9692
13017SOL    HW243990   9.591   8.823   8.807  0.8505  1.6991 -0.1670
13018SOL     OW43991   2.651   2.238   1.070  0.5468 -0.1035 -0.0943
13018SOL    HW143992   2.685   2.262   1.156  0.6710  1.9181 -0.6542
13018SOL    HW243993   2.707   2.165   1.041  1.1971 -0.0847  1.0577
13019SOL     OW43994   2.095   0.808  10.187  0.5242  0.2346 -0.2353
13019SOL    HW143995   2.078   0.747  10.115  0.9795  1.0044 -1.0259
13019SOL    HW243996   2.011   0.851  10.202  0.6092  0.6353 -0.8628
13020SOL     OW43997   4.464  11.148  10.272  0.1508 -0.0676 -0.1126
13020SOL    HW143998   4.472  11.060  10.308 -0.2093 -0.2580 -0.4921
13020SOL    HW243999   4.471  11.206  10.348  1.6428 -0.3572 -0.0044
13021SOL     OW44000   9.021   4.134   7.722 -0.0477 -0.5142 -0.1572
13021SOL    HW144001   9.077   4.212   7.719 -0.3416 -0.2937  0.0140
13021SOL    HW244002   8.932   4.169   7.728 -0.1286 -0.8544  0.8937
13022SOL     OW44003   1.176  10.526   5.113  0.2472  0.0301  0.6694
13022SOL    HW144004   1.186  10.453   5.051 -1.4314  1.3374 -1.2772
13022SOL    HW244005   1.214  10.601   5.068  0.1002  0.7728  1.7647
13023SOL     OW44006   1.800   4.869   7.769 -0.1590 -0.9292  0.0345
13023SOL    HW144007   1.806   4.832   7.857  0.9390  1.6469  1.1454
13023SOL    HW244008   1.862   4.942   7.769 -0.1046 -0.8510 -2.9171
13024SOL     OW44009   5.812   1.904   0.800  0.6194  0.0793 -0.5116
13024SOL    HW144010   5.837   1.975   0.860 -0.1576 -0.5624  0.6028
13024SOL    HW244011   5.783   1.949   0.721  0.5354  0.9976  0.0229
13025SOL     OW44012  11.540   7.031  10.516  0.7120  0.3689  0.1115
13025SOL    HW144013  11.626   6.991  10.501 -0.6695 -2.0142 -2.2662
13025SOL    HW244014  11.483   6.958  10.540 -1.1669  1.4412 -0.8536
13026SOL     OW44015   0.077   6.794   3.512  0.6901 -0.2482 -0.2946
13026SOL    HW144016  -0.003   6.756   3.476  0.6307  0.6369 -1.1382
13026SOL    HW244017   0.123   6.720   3.551 -1.1900 -0.5881  1.5092
13027SOL     OW44018   9.668  11.072   2.607 -0.2952  0.2754 -0.5665
13027SOL    HW144019   9.758  11.089   2.636  0.0273 -1.0202 -0.7157
13027SOL    HW244020   9.673  10.985   2.567 -1.8286 -0.2489  0.3241
13028SOL     OW44021   7.842   8.581   0.687 -0.1361  0.0127 -0.5019
13028SOL    HW144022   7.896   8.543   0.618 -1.4203 -1.7763 -0.5987
13028SOL    HW244023   7.809   8.663   0.650  1.9209  0.8331 -0.6674
13029SOL     OW44024   6.149   6.164   4.362  0.2741  0.2450  0.6268
13029SOL    HW144025   6.194   6.171   4.446 -0.1104  2.5435  0.7013
13029SOL    HW244026   6.167   6.075   4.332 -0.1203 -0.8470  3.4207
13030SOL     OW44027   3.156   0.346   3.898  0.0255  0.3283  0.0122
13030SOL    HW144028   3.179   0.296   3.976  0.6672  0.8181  0.1395
13030SOL    HW244029   3.064   0.325   3.883  0.2795 -0.8957  0.0604
13031SOL     OW44030   4.216   5.135   8.240  0.1897 -0.9483  0.1189
13031SOL    HW144031   4.256   5.070   8.298 -0.2824 -2.1642 -0.8571
13031SOL    HW244032   4.135   5.159   8.284  0.4489 -0.8989  0.5736
13032SOL     OW44033   5.851  10.278   3.883  0.5002  0.5502  0.3019
13032SOL    HW144034   5.940  10.253   3.859  1.4465  3.4951  0.3382
13032SOL    HW244035   5.796  10.220   3.830  2.4636  0.5485 -1.9472
13033SOL     OW44036  11.045   5.101  10.496 -0.3592  0.7669  0.6227
13033SOL    HW144037  10.959   5.067  10.520 -0.1458 -0.5006 -0.2859
13033SOL    HW244038  11.039   5.118  10.403  0.1930  1.2557  0.6714
13034SOL     OW44039  11.574   6.870   1.620 -0.0279  0.2457  0.1881
13034SOL    HW144040  11.529   6.856   1.537 -0.1968  2.6335 -0.1893
13034SOL    HW244041  11.580   6.782   1.659 -0.3203 -0.8716 -2.1105
13035SOL     OW44042   8.153   8.683   3.250 -0.0519 -0.5656  0.0361
13035SOL    HW144043   8.243   8.707   3.228  0.2275 -1.9002 -0.3374
13035SOL    HW244044   8.110   8.767   3.266  1.3728  0.0769  0.7122
13036SOL     OW44045   6.185   5.716   2.140  0.9960 -0.4206 -0.4434
13036SOL    HW144046   6.178   5.807   2.170  0.3947 -0.4535 -0.4826
13036SOL    HW244047   6.261   5.681   2.188 -0.3694 -0.6832  1.6535
13037SOL     OW44048   4.733   5.936   7.248 -0.2644 -0.4207 -0.1176
13037SOL    HW144049   4.706   5.994   7.320 -0.6169  1.5432 -1.7535
13037SOL    HW244050   4.656   5.930   7.192  0.0766 -1.7432 -0.4766
13038SOL     OW44051   1.318   2.878   7.268 -0.0728  0.5843  0.0160
13038SOL    HW144052   1.402   2.892   7.225 -0.6587  1.7059 -0.8017
13038SOL    HW244053   1.320   2.786   7.295  1.4780  0.6386  0.1803
13039SOL     OW44054   1.473   4.442   8.806  0.0558 -0.0839 -0.3993
13039SOL    HW144055   1.387   4.466   8.773 -0.3998 -0.8935  0.1426
13039SOL    HW244056   1.477   4.480   8.894  0.7923  1.0699 -0.9066
13040SOL     OW44057   6.335   6.856   3.683 -0.1707 -1.0798  0.3360
13040SOL    HW144058   6.333   6.858   3.588 -1.0299  0.1868  0.3501
13040SOL    HW244059   6.243   6.847   3.709 -0.1069  0.0196  1.0312
13041SOL     OW44060   7.129   1.285   8.936  0.0445  0.1711 -0.2959
13041SOL    HW144061   7.148   1.259   9.026 -1.6395  0.7264  0.2688
13041SOL    HW244062   7.143   1.379   8.934 -1.0740  0.3569 -0.2589
13042SOL     OW44063   8.133  10.798  11.583  0.5325  0.6061 -0.4640
13042SOL    HW144064   8.078  10.762  11.513  0.5032  0.4010 -0.3379
13042SOL    HW244065   8.173  10.720  11.623 -0.0555  0.6659  0.2531
13043SOL     OW44066   6.819   9.410   5.294  0.3884 -0.7060  0.4865
13043SOL    HW144067   6.839   9.398   5.387 -0.4180  0.2350  0.8105
13043SOL    HW244068   6.748   9.475   5.294  1.8772  1.0459 -0.8766
13044SOL     OW44069   1.981   2.986   6.321 -0.2392 -0.2183 -0.3367
13044SOL    HW144070   2.036   2.978   6.399  0.0996  0.0374 -0.5480
13044SOL    HW244071   1.902   3.029   6.353  0.1560  0.4562 -0.2534
13045SOL     OW44072   8.418   1.488   9.421  0.0148  0.5203 -0.7820
13045SOL    HW144073   8.467   1.423   9.472 -0.4097 -1.3492 -2.6171
13045SOL    HW244074   8.399   1.444   9.338  0.3356  3.2770 -2.4484
13046SOL     OW44075   1.171   5.535   9.597 -0.4277 -0.4084 -0.8155
13046SOL    HW144076   1.110   5.462   9.589  0.0923 -1.0973  0.9829
13046SOL    HW244077   1.255   5.500   9.567 -0.2149 -0.5180 -0.1157
13047SOL     OW44078   4.172   4.483  11.335 -0.0724  0.1270 -0.2780
13047SOL    HW144079   4.176   4.452  11.426  1.6095 -0.0694 -0.3948
13047SOL    HW244080   4.114   4.560  11.339  0.0997  0.2196  0.9960
13048SOL     OW44081   0.433   2.288   4.357  0.0561 -0.4317 -0.0881
13048SOL    HW144082   0.429   2.355   4.424  0.5772 -0.0348 -0.4438
13048SOL    HW244083   0.422   2.205   4.404 -0.2984 -0.1111  0.3851
13049SOL     OW44084  11.380   8.061  10.536  0.1797 -0.3697  0.7539
13049SOL    HW144085  11.459   8.013  10.515 -0.4068 -0.1778 -2.2999
13049SOL    HW244086  11.309   7.997  10.528 -0.1891 -0.0388  1.2721
13050SOL     OW44087   7.207   9.914   5.410 -0.7186 -0.2310 -0.5335
13050SOL    HW144088   7.228   9.992   5.359  0.2939  0.4649  0.8699
13050SOL    HW244089   7.137   9.871   5.361 -1.0280  1.3398 -1.5353
13051SOL     OW44090  10.858  11.062  10.545 -0.1300  0.5360 -0.1161
13051SOL    HW144091  10.892  11.093  10.460  0.7750 -0.4532 -0.1295
13051SOL    HW244092  10.826  10.974  10.527  0.7248  0.0372  0.7142
13052SOL     OW44093  10.538   2.892   4.223  0.5104  0.4627 -0.2398
13052SOL    HW144094  10.464   2.901   4.163  0.7155  0.1494 -0.5421
13052SOL    HW244095  10.557   2.798   4.224 -0.3212  0.2919  1.3326
13053SOL     OW44096   0.074   1.377   9.726  0.1456 -0.4670  0.3765
13053SOL    HW144097   0.103   1.445   9.787  0.9822 -0.1759 -0.3370
13053SOL    HW244098   0.105   1.295   9.765  1.0158 -0.2494  0.1513
13054SOL     OW44099   4.199   2.568   3.327  0.2939  0.5586  0.0368
13054SOL    HW144100   4.176   2.586   3.419  0.2587  1.0914 -0.0697
13054SOL    HW244101   4.211   2.655   3.289  1.4866  0.3104 -0.1643
13055SOL     OW44102  11.393   2.282   9.478  0.4255 -0.0569 -0.1968
13055SOL    HW144103  11.348   2.242   9.552  0.4292  0.4793  0.1019
13055SOL    HW244104  11.419   2.368   9.510  0.9101 -0.0335 -0.6489
13056SOL     OW44105   6.440  10.218  10.382  0.0694  0.6518 -0.2090
13056SOL    HW144106   6.379  10.282  10.344  0.5982  0.4889 -1.3677
13056SOL    HW244107   6.386  10.169  10.445 -0.4293  1.9760  0.4405
13057SOL     OW44108   0.038   9.270   9.788  0.5996 -0.1746  0.0078
13057SOL    HW144109   0.093   9.295   9.861 -0.8492  0.0026  1.0879
13057SOL    HW244110   0.027   9.175   9.797 -0.8176  0.0390  0.9870
13058SOL     OW44111   5.887   6.514   9.611 -0.2914  0.1397 -0.3959
13058SOL    HW144112   5.972   6.553   9.591  0.5754 -0.8011  1.2439
13058SOL    HW244113   5.835   6.587   9.644  0.3222  0.4890 -0.1678
13059SOL     OW44114   4.395   4.232   8.776  0.1735  0.1793 -0.3329
13059SOL    HW144115   4.437   4.315   8.753 -0.4296  0.3968 -0.6519
13059SOL    HW244116   4.386   4.186   8.693  0.2672 -0.0993 -0.1903
13060SOL     OW44117  10.288   7.375   0.650 -0.0012 -0.4205  0.0083
13060SOL    HW144118  10.295   7.440   0.719 -0.9108 -0.7189  0.3870
13060SOL    HW244119  10.236   7.305   0.688  1.1687 -1.4895 -0.3150
13061SOL     OW44120   1.857   2.197   7.280 -0.0797 -0.3697 -0.0255
13061SOL    HW144121   1.879   2.131   7.213 -0.1648 -1.1712  0.7153
13061SOL    HW244122   1.791   2.154   7.334 -0.4672  0.5057  0.2018
13062SOL     OW44123   6.827   5.323   9.495 -0.6589 -0.5281 -0.4123
13062SOL    HW144124   6.852   5.289   9.409 -1.0644 -2.2483  0.0987
13062SOL    HW244125   6.785   5.248   9.538 -1.6597  0.6834  0.7915
13063SOL     OW44126   3.084   2.503  10.497 -0.4740  0.0796 -0.6853
13063SOL    HW144127   3.143   2.436  10.463  0.7345  1.2268 -0.9135
13063SOL    HW244128   3.057   2.470  10.583 -0.3450 -0.9428 -1.0244
13064SOL     OW44129   2.820   8.907   8.234 -0.1000  0.4640 -0.1118
13064SOL    HW144130   2.889   8.848   8.265 -1.9589 -1.6010  0.3297
13064SOL    HW244131   2.811   8.886   8.141 -1.1551 -0.4270  0.1707
13065SOL     OW44132   4.684   1.209   9.994  0.1078 -0.1946  0.1609
13065SOL    HW144133   4.696   1.139  10.058  1.1967 -0.4598 -0.3160
13065SOL    HW244134   4.590   1.224   9.993 -0.0379 -0.9597  1.0088
13066SOL     OW44135   3.771   1.005   6.305  0.4063  0.4051 -0.1405
13066SOL    HW144136   3.677   1.019   6.292  0.1618  0.0815  1.1904
13066SOL    HW244137   3.809   1.092   6.296 -0.0921  0.6342 -0.0970
13067SOL     OW44138   8.137   6.260   9.899 -0.2244  0.0888  0.2362
13067SOL    HW144139   8.111   6.347   9.931 -1.1339  0.9083 -2.4561
13067SOL    HW244140   8.056   6.211   9.894  0.2003 -0.7356  1.1073
13068SOL     OW44141   0.078   2.404   3.690 -0.3437 -0.3004 -0.3341
13068SOL    HW144142   0.011   2.358   3.742 -0.2505  0.1135  0.1552
13068SOL    HW244143   0.085   2.352   3.610 -0.9993 -0.5481 -0.2398
13069SOL     OW44144   9.272  11.529   1.270 -0.7010 -0.2810 -0.3483
13069SOL    HW144145   9.340  11.515   1.204 -1.4065  0.6964 -1.3289
13069SOL    HW244146   9.241  11.441   1.292  0.4702 -0.7007 -0.3138
13070SOL     OW44147   1.984   5.067   7.765 -0.4950  0.0169 -0.4844
13070SOL    HW144148   2.063   5.087   7.714 -0.1809  1.2884  0.4575
13070SOL    HW244149   1.984   5.131   7.836 -2.1559 -0.2390 -0.2124
13071SOL     OW44150   0.891   3.531  10.744  0.7972  0.0358  0.1869
13071SOL    HW144151   0.876   3.605  10.685  1.2234 -0.2671 -0.3162
13071SOL    HW244152   0.920   3.460  10.686  0.0700 -0.6245  0.6188
13072SOL     OW44153   0.456   1.957  10.279  0.5500 -0.2186 -0.3608
13072SOL    HW144154   0.438   2.027  10.217  1.2677  0.0183 -0.3011
13072SOL    HW244155   0.407   1.882  10.245  1.3380 -0.2371 -1.4984
13073SOL     OW44156   8.310   2.357  10.389  0.3036 -0.3858  0.3592
13073SOL    HW144157   8.364   2.303  10.331  2.9308  0.2598  2.0454
13073SOL    HW244158   8.289   2.299  10.463 -0.7608 -0.4036  0.0636
13074SOL     OW44159   2.909  10.793   9.146  0.1223 -0.3842 -0.4246
13074SOL    HW144160   2.944  10.843   9.072 -0.6584  0.8080 -0.0135
13074SOL    HW244161   2.868  10.859   9.202 -0.6824 -1.4624  0.2857
13075SOL     OW44162   2.553   3.885   8.705 -0.5517 -0.5171 -0.0002
13075SOL    HW144163   2.545   3.796   8.739  1.1992 -0.1030  1.7237
13075SOL    HW244164   2.497   3.937   8.762  0.8651 -0.1086  1.0889
13076SOL     OW44165  10.221   1.073   9.776  0.5538 -0.2213  0.2614
13076SOL    HW144166  10.315   1.063   9.763  0.8494  1.2112  1.1102
13076SOL    HW244167  10.201   1.019   9.853  0.7815 -0.1031  0.4045
13077SOL     OW44168   6.253   0.431   6.529 -0.0314  0.0182 -0.2666
13077SOL    HW144169   6.224   0.428   6.620 -0.4990 -1.2105 -0.4407
13077SOL    HW244170   6.315   0.358   6.521  0.2397  0.3057 -0.8630
13078SOL     OW44171   7.865   7.277  10.551  0.1165 -0.4731 -0.2187
13078SOL    HW144172   7.850   7.364  10.513  0.1683 -0.8655 -1.1556
13078SOL    HW244173   7.894   7.223  10.477  1.8091 -0.8583  0.6736
13079SOL     OW44174   5.854   7.643   9.276 -0.2736 -0.3473 -0.0117
13079SOL    HW144175   5.831   7.692   9.197 -0.4945 -0.1775  0.1559
13079SOL    HW244176   5.865   7.553   9.245  1.4192  0.0095 -0.5485
13080SOL     OW44177   9.684   3.105  11.364 -0.6707  0.2810 -0.1935
13080SOL    HW144178   9.711   3.188  11.326  2.0386 -1.2363 -1.8964
13080SOL    HW244179   9.694   3.117  11.458 -0.5697  1.9324 -0.3924
13081SOL     OW44180   9.708   6.937   9.325 -0.1715 -0.4975 -0.5895
13081SOL    HW144181   9.676   7.000   9.390 -0.0478  1.8266 -2.6306
13081SOL    HW244182   9.643   6.867   9.327 -1.5246  0.7107  0.3255
13082SOL     OW44183   9.006  11.045   2.805 -0.1616 -0.1711 -0.6358
13082SOL    HW144184   8.934  10.988   2.775 -0.6499  0.4441 -0.6521
13082SOL    HW244185   9.077  11.028   2.742 -0.8473  0.4002 -1.5994
13083SOL     OW44186  11.041  11.284   8.585 -1.0118  0.5420 -0.6194
13083SOL    HW144187  10.979  11.317   8.650 -1.3097  0.9497 -1.1030
13083SOL    HW244188  11.127  11.292   8.627 -1.3195 -0.5416  0.2663
13084SOL     OW44189   8.303   4.336   4.229  0.0603  0.1431 -0.1179
13084SOL    HW144190   8.220   4.336   4.276  0.9567 -0.2992  1.5321
13084SOL    HW244191   8.352   4.263   4.267  1.6541  1.0963 -0.2549
13085SOL     OW44192   7.137   6.220   7.707  0.2088 -0.3277  0.1111
13085SOL    HW144193   7.125   6.182   7.794 -0.5520  1.1207  0.6717
13085SOL    HW244194   7.086   6.301   7.709  0.5033 -0.0665 -1.5596
13086SOL     OW44195   2.953   7.887   4.494 -0.2100 -0.3155 -0.0259
13086SOL    HW144196   2.909   7.806   4.467  0.5777 -1.2085  1.2767
13086SOL    HW244197   2.998   7.864   4.576  0.3114  1.3504  0.1897
13087SOL     OW44198  11.590   9.311   1.610  0.2548 -0.5715  0.0245
13087SOL    HW144199  11.510   9.358   1.631  0.2520  0.2336 -1.6424
13087SOL    HW244200  11.563   9.219   1.603 -1.1225 -0.0586 -2.9643
13088SOL     OW44201   6.526   8.723   6.307  0.1994 -0.1381  1.0924
13088SOL    HW144202   6.603   8.760   6.351 -0.0256  1.3107  0.3331
13088SOL    HW244203   6.479   8.799   6.274 -0.3486 -1.1038 -0.4470
13089SOL     OW44204   4.171   8.371   1.163  0.2881  0.5505 -0.2641
13089SOL    HW144205   4.081   8.374   1.133  0.8463  0.8114 -2.0305
13089SOL    HW244206   4.217   8.436   1.110  1.6960 -0.2393 -0.0711
13090SOL     OW44207   3.938  11.432   7.034  0.0189  0.2045 -0.3846
13090SOL    HW144208   4.030  11.409   7.019 -0.0501 -0.6107  0.3336
13090SOL    HW244209   3.916  11.391   7.118 -0.6102  1.5673  0.1492
13091SOL     OW44210   4.396   9.994   1.453  0.1995 -0.1672  0.8097
13091SOL    HW144211   4.434   9.950   1.530  0.4146  1.5411  1.7247
13091SOL    HW244212   4.435  10.081   1.453 -1.9093  0.8356  0.4017
13092SOL     OW44213   8.345   6.006  10.772 -0.1733  0.3077  0.6552
13092SOL    HW144214   8.335   5.916  10.742 -2.7424  0.6272  0.3646
13092SOL    HW244215   8.415   6.001  10.838  2.2789 -1.2079 -1.8282
13093SOL     OW44216   9.665  10.588   0.478 -0.1738 -0.3020  0.3530
13093SOL    HW144217   9.695  10.616   0.564  0.1532 -1.1044  0.5053
13093SOL    HW244218   9.569  10.586   0.486 -0.1732  0.1596  0.5227
13094SOL     OW44219   7.085   3.386   0.480  0.1166 -0.2289  0.4420
13094SOL    HW144220   7.157   3.356   0.425 -0.7867  0.0661 -0.9414
13094SOL    HW244221   7.006   3.355   0.435 -0.6310 -1.1475  2.2774
13095SOL     OW44222   3.602   6.073   8.823  0.2350  0.1411  0.8370
13095SOL    HW144223   3.630   6.070   8.732 -0.7000 -0.1153  0.5429
13095SOL    HW244224   3.524   6.016   8.827 -0.4736  1.1102  1.5102
13096SOL     OW44225  11.239  11.535   9.431  0.3859  0.0412 -0.2563
13096SOL    HW144226  11.317  11.562   9.480 -0.1971  1.8340 -0.2289
13096SOL    HW244227  11.206  11.617   9.393 -0.6076 -0.9288 -1.5501
13097SOL     OW44228   2.740   0.207   4.878  0.3285 -0.1296 -0.0066
13097SOL    HW144229   2.731   0.166   4.792  0.0380  2.2720 -1.2054
13097SOL    HW244230   2.823   0.255   4.873 -1.9807  4.3506 -1.0738
13098SOL     OW44231  10.353   7.018   0.850 -0.5289 -0.1075  0.5969
13098SOL    HW144232  10.403   7.043   0.772 -1.5681  0.5422  0.1174
13098SOL    HW244233  10.383   7.077   0.918  0.5815 -0.8554  0.7876
13099SOL     OW44234   3.254   0.975   1.638  0.5645 -0.0306 -0.0656
13099SOL    HW144235   3.224   1.064   1.620  1.4473  0.0515 -1.2368
13099SOL    HW244236   3.195   0.942   1.705  0.1116  1.3751  0.2367
13100SOL     OW44237   9.279   7.798   5.408  0.0802 -0.2895  0.3341
13100SOL    HW144238   9.275   7.793   5.504 -0.5987 -1.4903  0.2667
13100SOL    HW244239   9.353   7.741   5.385  1.6307  1.6672  0.2206
13101SOL     OW44240   3.001  11.480   6.693 -0.2635  0.0834  0.1037
13101SOL    HW144241   3.032  11.420   6.626 -1.2203 -1.1240  0.7046
13101SOL    HW244242   3.080  11.510   6.737  0.1886 -1.4756  0.3933
13102SOL     OW44243   0.366  10.847   5.096 -0.1346  0.0139 -0.4555
13102SOL    HW144244   0.428  10.838   5.168 -0.7312 -1.0279 -0.0591
13102SOL    HW244245   0.301  10.779   5.111 -1.7040  1.4145 -0.5541
13103SOL     OW44246   9.532   1.332   4.394  0.0558 -0.4727  0.4147
13103SOL    HW144247   9.611   1.316   4.342 -0.2446  0.6155 -0.3982
13103SOL    HW244248   9.511   1.246   4.431  1.1348 -0.9567 -0.0289
13104SOL     OW44249   9.927   4.602   4.311  0.0570  0.1680  0.0983
13104SOL    HW144250  10.010   4.562   4.335 -0.2778 -0.1960  0.7082
13104SOL    HW244251   9.950   4.688   4.276  0.8350 -0.7524 -1.7693
13105SOL     OW44252   3.096   0.465   8.451 -0.1623  0.4678 -0.2341
13105SOL    HW144253   3.034   0.445   8.381 -2.7088  1.2977  1.6275
13105SOL    HW244254   3.157   0.392   8.451 -0.4446  0.1168 -2.8332
13106SOL     OW44255   7.350   1.018  10.938 -0.0337  0.0956  0.1933
13106SOL    HW144256   7.318   0.931  10.915  2.2271 -0.7045 -0.1751
13106SOL    HW244257   7.335   1.070  10.859 -1.1312  0.0034  0.3144
13107SOL     OW44258   9.060   8.887   5.620 -0.1282 -0.6809  0.1859
13107SOL    HW144259   9.076   8.848   5.534 -0.6183  1.5477 -0.9939
13107SOL    HW244260   8.977   8.935   5.609  0.6276  0.9917  1.3938
13108SOL     OW44261   2.614   5.716  10.590  0.3121  0.2193 -0.2538
13108SOL    HW144262   2.638   5.771  10.664  1.4017 -0.6279  0.0514
13108SOL    HW244263   2.525   5.743  10.567  0.9193  2.3155 -0.3338
13109SOL     OW44264   5.838  11.007   4.746 -0.2220  0.1932 -0.4496
13109SOL    HW144265   5.831  10.941   4.816  1.0726 -1.7306 -2.0037
13109SOL    HW244266   5.922  11.050   4.763 -0.6956  0.9075  0.1141
13110SOL     OW44267   0.335   6.115   8.640 -0.5763  0.7871 -0.9659
13110SOL    HW144268   0.260   6.061   8.614  0.5738 -1.6761  0.4661
13110SOL    HW244269   0.296   6.192   8.681 -2.4350 -0.9006  0.6947
13111SOL     OW44270   8.255   9.851   4.484 -0.3207  0.5102  0.2948
13111SOL    HW144271   8.219   9.939   4.470 -1.5367  0.0099  0.1759
13111SOL    HW244272   8.306   9.834   4.404  1.6774  1.8953  1.1815
13112SOL     OW44273   0.120   2.507   9.580 -0.4624 -0.6753 -0.6859
13112SOL    HW144274   0.073   2.588   9.562 -1.6787 -0.7939  1.5384
13112SOL    HW244275   0.192   2.505   9.517 -0.7271  1.8425 -1.1412
13113SOL     OW44276   2.135   8.847   4.258  0.3176 -0.4226 -0.2108
13113SOL    HW144277   2.128   8.776   4.322 -0.3647 -0.0831  0.0949
13113SOL    HW244278   2.176   8.919   4.307 -1.2728  0.2443  0.2078
13114SOL     OW44279   5.526   2.392   8.551  0.2405  0.3013  0.3545
13114SOL    HW144280   5.434   2.382   8.574  0.5291  0.2206  1.5128
13114SOL    HW244281   5.545   2.485   8.565  0.1179  0.5131 -0.7682
13115SOL     OW44282   6.025  11.508  11.288 -0.2335  0.3408 -0.1859
13115SOL    HW144283   6.002  11.505  11.196 -1.4099  2.2816  0.0086
13115SOL    HW244284   5.989  11.590  11.320 -2.0602 -1.3917  2.6050
13116SOL     OW44285   6.069   4.615   9.361  0.1814  0.1124  0.5042
13116SOL    HW144286   6.009   4.601   9.287  0.1505  0.2167  0.5086
13116SOL    HW244287   6.117   4.695   9.339  1.4768 -0.8430 -0.2607
13117SOL     OW44288   7.740   2.617   2.430  0.0495 -0.4886 -0.0284
13117SOL    HW144289   7.704   2.612   2.519  0.2170  0.0035  0.0705
13117SOL    HW244290   7.800   2.691   2.433  0.6704 -0.9681 -0.3342
13118SOL     OW44291   9.729   9.781   1.598 -0.5773 -0.3298  0.3907
13118SOL    HW144292   9.664   9.750   1.661  0.1292 -0.8143  0.8854
13118SOL    HW244293   9.720   9.877   1.599 -0.1267 -0.2871  1.7094
13119SOL     OW44294  11.420   5.800   3.512  0.4286 -0.1139  0.2374
13119SOL    HW144295  11.460   5.787   3.599  0.4844  0.7958  0.3560
13119SOL    HW244296  11.332   5.763   3.521 -0.0473  1.1593  1.1078
13120SOL     OW44297   9.589   3.789  10.783  0.6461 -0.2694 -0.1541
13120SOL    HW144298   9.506   3.760  10.745  1.5814 -1.1425 -1.6212
13120SOL    HW244299   9.572   3.878  10.813 -1.3382 -1.0571  1.3165
13121SOL     OW44300   9.598   8.494   4.205 -0.8317 -0.2386  0.0418
13121SOL    HW144301   9.506   8.505   4.179 -0.4305  0.8890 -1.0169
13121SOL    HW244302   9.607   8.401   4.222 -1.7599 -0.6611 -1.5174
13122SOL     OW44303   6.014   6.445  11.257  0.3753  0.6937 -0.4685
13122SOL    HW144304   5.978   6.534  11.249 -0.4670  0.6213  1.7073
13122SOL    HW244305   6.108   6.455  11.241  0.3292  2.0495 -0.0296
13123SOL     OW44306   4.888   5.910  10.089 -0.2776 -0.1270 -0.3818
13123SOL    HW144307   4.826   5.966  10.135  0.9920 -0.0940  1.4006
13123SOL    HW244308   4.884   5.826  10.136  0.4980 -0.3413 -0.6753
13124SOL     OW44309   4.903  11.170   7.285 -0.1105 -0.6739  0.1444
13124SOL    HW144310   4.868  11.082   7.273  0.4756 -0.8141 -0.6294
13124SOL    HW244311   4.975  11.159   7.348  1.4007 -1.1531 -1.5803
13125SOL     OW44312   9.849   4.695   2.245 -0.9306  0.1432  0.5331
13125SOL    HW144313   9.758   4.680   2.271 -1.2177  2.1050  0.7830
13125SOL    HW244314   9.895   4.615   2.272 -2.2614 -0.1993  1.9348
13126SOL     OW44315   0.307   1.752   9.689  0.0388  0.5200 -0.2746
13126SOL    HW144316   0.363   1.734   9.765 -1.7082 -1.0239  0.7291
13126SOL    HW244317   0.218   1.753   9.724 -0.8358 -0.2756 -2.2988
13127SOL     OW44318   7.519  11.559   3.058  0.0022  0.0334  0.1927
13127SOL    HW144319   7.577  11.570   2.982  0.5992 -0.6101  0.5436
13127SOL    HW244320   7.437  11.524   3.020 -0.4406  1.6172 -0.3910
13128SOL     OW44321   7.831   5.168   4.450  0.5723  0.1931  0.1011
13128SOL    HW144322   7.902   5.202   4.396  0.5477 -0.5177 -0.3965
13128SOL    HW244323   7.753   5.181   4.396  0.5357 -0.4498  0.0008
13129SOL     OW44324   5.267  11.478   4.846 -0.8243  0.6339 -0.2387
13129SOL    HW144325   5.212  11.400   4.849 -0.9889  0.7582  0.1459
13129SOL    HW244326   5.240  11.524   4.767  0.4708 -0.5540 -1.4085
13130SOL     OW44327  10.040   2.049   3.281 -0.3285 -0.3198  0.5596
13130SOL    HW144328  10.100   2.072   3.352  1.1693 -2.2137 -0.0286
13130SOL    HW244329  10.033   2.129   3.229  0.5428  0.3505  1.4464
13131SOL     OW44330   7.354   1.849   7.527  0.1248  0.4424  0.2102
13131SOL    HW144331   7.382   1.837   7.618  2.6390  1.2630 -0.3544
13131SOL    HW244332   7.407   1.787   7.478 -1.6984 -0.4814 -0.6824
13132SOL     OW44333  10.635   1.485  10.767  0.8123 -0.4930  0.7575
13132SOL    HW144334  10.576   1.536  10.711  3.0890  0.1669 -1.1795
13132SOL    HW244335  10.633   1.397  10.729  1.2518 -0.4089  0.5371
13133SOL     OW44336   1.341  11.495   2.688 -0.2294  0.2721  0.0373
13133SOL    HW144337   1.266  11.525   2.739  0.8273  1.1017  1.1897
13133SOL    HW244338   1.403  11.568   2.692  0.3490 -0.0962 -1.5211
13134SOL     OW44339   6.000   3.486  11.309 -0.1639 -0.1087 -0.4453
13134SOL    HW144340   5.911   3.517  11.294 -0.1303  0.0236 -0.3736
13134SOL    HW244341   6.004   3.467  11.403  0.3144  1.2990 -0.1483
13135SOL     OW44342   7.817   8.985   3.170  0.2127 -0.3277  0.2085
13135SOL    HW144343   7.776   9.060   3.127  1.4314  0.3585  0.1907
13135SOL    HW244344   7.910   8.993   3.149  0.8967  0.0751  2.9267
13136SOL     OW44345   9.386   0.358   7.729  0.0241 -0.0861  0.0703
13136SOL    HW144346   9.339   0.400   7.658  0.6409  0.6373  0.0711
13136SOL    HW244347   9.474   0.343   7.694 -0.0016 -0.7899  0.2943
13137SOL     OW44348   5.508  11.234   8.393 -0.3377  0.1958 -1.4339
13137SOL    HW144349   5.442  11.191   8.338  0.3720 -3.3717  0.2322
13137SOL    HW244350   5.460  11.304   8.437 -1.6558  1.1114 -4.0769
13138SOL     OW44351   4.068   4.172   7.007  0.2272  0.2550 -0.0769
13138SOL    HW144352   4.050   4.229   6.933  0.3958 -0.4992 -0.7126
13138SOL    HW244353   4.071   4.084   6.969  0.3483 -0.1342  0.8196
13139SOL     OW44354   9.551  10.423  10.199  0.2007  0.1381  0.2334
13139SOL    HW144355   9.542  10.331  10.224 -0.2440 -0.1265 -0.8688
13139SOL    HW244356   9.643  10.431  10.173  0.4375  0.2037  1.0478
13140SOL     OW44357   3.766   1.471  10.440  0.6174 -0.2499  0.2415
13140SOL    HW144358   3.835   1.512  10.388 -1.2566  0.9554 -1.4383
13140SOL    HW244359   3.799   1.383  10.458  1.7732 -0.3882 -2.1962
13141SOL     OW44360   3.248   7.819   4.540  0.4668 -0.0690 -0.1872
13141SOL    HW144361   3.300   7.896   4.565  0.7202 -0.2796 -0.0615
13141SOL    HW244362   3.253   7.818   4.444  0.5027  0.0425 -0.1876
13142SOL     OW44363   4.175   4.130   8.884 -0.1571 -0.6107 -0.3881
13142SOL    HW144364   4.084   4.150   8.860  0.3674  3.5456  0.2854
13142SOL    HW244365   4.227   4.173   8.816  1.3309 -1.7178  0.0166
13143SOL     OW44366   0.271   7.515  11.426 -0.1749  0.3647  0.1135
13143SOL    HW144367   0.319   7.589  11.465 -1.0775  0.6658  0.6941
13143SOL    HW244368   0.289   7.441  11.484 -2.8965  1.1910  2.2700
13144SOL     OW44369   8.034   2.918   7.943  0.3040  0.7267 -0.0877
13144SOL    HW144370   8.008   2.862   8.016  1.4152 -0.7406 -0.7652
13144SOL    HW244371   7.960   2.978   7.931 -1.0921 -0.8113  0.4727
13145SOL     OW44372   9.455   6.035  10.590 -0.0988 -0.0207 -0.2367
13145SOL    HW144373   9.518   5.982  10.639 -0.4848 -0.3073 -0.0377
13145SOL    HW244374   9.472   6.015  10.498 -0.3495 -0.6248 -0.1581
13146SOL     OW44375   6.095   2.709  10.078  0.0795 -0.0623 -0.3826
13146SOL    HW144376   6.034   2.721  10.005 -0.5688  0.8069  0.2676
13146SOL    HW244377   6.045   2.659  10.143  0.4996 -0.4431 -0.3464
13147SOL     OW44378  10.596   4.501   4.384 -0.5152  0.2907 -0.2957
13147SOL    HW144379  10.667   4.498   4.321 -0.1255  0.7434  0.1227
13147SOL    HW244380  10.543   4.423   4.363 -0.4400  0.4784 -1.2213
13148SOL     OW44381   6.477   1.915   5.781  0.6323  0.0682  0.0681
13148SOL    HW144382   6.542   1.870   5.834  1.8289  0.9617 -0.5849
13148SOL    HW244383   6.453   1.851   5.713 -2.1950 -1.7315  2.5198
13149SOL     OW44384   5.174   8.093   1.116 -0.3805  0.3643 -0.3177
13149SOL    HW144385   5.183   8.013   1.066  2.8000 -1.0543  2.1449
13149SOL    HW244386   5.106   8.074   1.181  0.2618 -0.3242  0.1648
13150SOL     OW44387   0.926   4.923   4.970  0.3309  0.7116 -0.0212
13150SOL    HW144388   0.951   5.003   5.016 -1.1589 -0.0897  2.3624
13150SOL    HW244389   0.962   4.852   5.024 -2.8635 -0.3309  0.9670
13151SOL     OW44390  10.960  11.205   1.093  0.2429 -0.3514 -0.1489
13151SOL    HW144391  11.029  11.180   1.031 -0.1136  2.0672 -1.6372
13151SOL    HW244392  10.881  11.211   1.039 -0.3400  0.6041  0.7879
13152SOL     OW44393   4.521  11.037   6.295 -0.5152  0.4171  0.0108
13152SOL    HW144394   4.557  11.117   6.333 -0.7466  1.1826 -1.2782
13152SOL    HW244395   4.505  10.979   6.369  1.8612  0.6301  0.7757
13153SOL     OW44396   2.243   3.411   2.443  0.4534  0.2962  0.0612
13153SOL    HW144397   2.254   3.339   2.380 -1.1281 -0.7210  0.8893
13153SOL    HW244398   2.167   3.460   2.411 -1.3401 -1.1119  1.8809
13154SOL     OW44399   1.664   2.499   9.236 -0.3388  0.3314 -0.2747
13154SOL    HW144400   1.691   2.565   9.299 -1.9632 -0.1051  0.9525
13154SOL    HW244401   1.742   2.481   9.184  0.6367  1.8007  0.6293
13155SOL     OW44402  10.723   9.265   6.630 -0.1817 -0.1688 -0.3603
13155SOL    HW144403  10.729   9.357   6.657  0.6626 -0.7102  1.3869
13155SOL    HW244404  10.635   9.258   6.592 -0.2778  1.3489 -0.4887
13156SOL     OW44405   4.966   5.287   0.240 -0.6873  0.0896  0.4515
13156SOL    HW144406   4.937   5.329   0.321 -0.6598  1.0544 -0.0155
13156SOL    HW244407   4.928   5.341   0.170 -1.3154 -1.1496 -0.1888
13157SOL     OW44408   9.670   6.495   4.620 -0.0985 -0.6133  0.6126
13157SOL    HW144409   9.760   6.474   4.645  0.2000  0.4571  0.4609
13157SOL    HW244410   9.667   6.484   4.525  0.2057  0.5213  0.4619
13158SOL     OW44411   4.926   1.405   8.816  0.1939 -0.0428  0.3476
13158SOL    HW144412   4.905   1.453   8.736  1.3484 -0.8636 -0.4834
13158SOL    HW244413   4.935   1.472   8.883  1.0194  0.8348 -0.6212
13159SOL     OW44414   3.395   8.089   2.567 -0.3110  0.0053 -0.3318
13159SOL    HW144415   3.325   8.145   2.601  0.7737  0.8119  0.6459
13159SOL    HW244416   3.459   8.151   2.530  1.0801 -0.5330  1.0672
13160SOL     OW44417   6.397   1.395   2.589 -0.5480  0.6018 -0.5575
13160SOL    HW144418   6.315   1.444   2.591 -1.0019 -0.1570  0.1292
13160SOL    HW244419   6.382   1.324   2.526 -1.3215 -1.0012  1.3329
13161SOL     OW44420   6.860   4.166   8.843 -0.1472 -0.1332 -0.5986
13161SOL    HW144421   6.799   4.221   8.892  0.1637 -0.9880  0.8060
13161SOL    HW244422   6.946   4.185   8.881  0.2557 -0.0321 -1.5493
13162SOL     OW44423   5.454   7.467  11.295 -0.2802  0.3165  0.4585
13162SOL    HW144424   5.530   7.482  11.238 -0.0231 -0.2278  0.6550
13162SOL    HW244425   5.401   7.403  11.247  0.0528 -0.3225  0.9263
13163SOL     OW44426   0.727   1.473   1.183  0.3585  0.0546  0.5136
13163SOL    HW144427   0.752   1.547   1.238  1.4157 -0.8643  1.3310
13163SOL    HW244428   0.803   1.458   1.127 -0.1978  0.1397 -0.2757
13164SOL     OW44429   1.635   9.277   7.869  0.2010  0.2390  0.4824
13164SOL    HW144430   1.720   9.253   7.906 -0.2605  2.4527  3.4105
13164SOL    HW244431   1.571   9.239   7.929 -0.8017  0.5388 -0.3675
13165SOL     OW44432   0.837   2.044   5.015 -0.2341  0.5205 -0.3664
13165SOL    HW144433   0.823   1.981   5.086 -1.6547  3.4504  2.2164
13165SOL    HW244434   0.932   2.057   5.013 -0.1736  0.4798  1.1340
13166SOL     OW44435   6.550   8.970   3.605  0.0067 -0.5121 -0.1228
13166SOL    HW144436   6.511   9.028   3.540  1.8350  0.3760 -0.4779
13166SOL    HW244437   6.481   8.957   3.670 -0.7428  1.3639 -0.4803
13167SOL     OW44438   2.222  10.509   4.252  0.4573 -0.0927 -0.8832
13167SOL    HW144439   2.296  10.448   4.255  1.3053  0.8858  2.0563
13167SOL    HW244440   2.150  10.458   4.215  1.3925 -2.5644  0.4769
13168SOL     OW44441   6.672  10.348   5.341 -0.2537 -0.3987  0.0393
13168SOL    HW144442   6.754  10.302   5.322  0.3874  0.9910 -0.7010
13168SOL    HW244443   6.661  10.408   5.268 -3.0263 -1.9624 -0.9360
13169SOL     OW44444   6.243   3.768   2.067  0.4229  0.0420  1.2018
13169SOL    HW144445   6.159   3.751   2.025  1.1981 -0.8808 -0.0734
13169SOL    HW244446   6.306   3.717   2.015  1.7101  0.3941  2.3572
13170SOL     OW44447   4.365   8.776   8.448  0.1663 -0.2129 -0.3706
13170SOL    HW144448   4.317   8.819   8.377 -1.4712  0.1187  0.8556
13170SOL    HW244449   4.358   8.682   8.429 -0.8260 -0.1591 -0.3414
13171SOL     OW44450   1.923   1.669   7.731 -0.7086 -0.1268 -0.1215
13171SOL    HW144451   1.850   1.608   7.733 -0.8954  0.0064 -1.6404
13171SOL    HW244452   1.888   1.747   7.687  0.3310 -0.0679 -0.8917
13172SOL     OW44453   5.851   8.871   9.113  0.0179 -0.3372  0.2569
13172SOL    HW144454   5.785   8.832   9.170 -0.5517 -0.8111 -0.7061
13172SOL    HW244455   5.932   8.868   9.164 -0.5381 -0.4541  1.1578
13173SOL     OW44456   2.686   6.714   6.203 -0.2384 -0.5875 -0.0995
13173SOL    HW144457   2.686   6.768   6.124  0.5900  1.2983  1.1109
13173SOL    HW244458   2.758   6.749   6.256 -1.8545 -0.5535  2.2626
13174SOL     OW44459   6.953  11.191   2.425 -0.0639  0.2985  0.7020
13174SOL    HW144460   7.002  11.261   2.469  0.6626  1.3387 -1.5883
13174SOL    HW244461   6.905  11.236   2.356  0.9081 -1.4888 -1.2468
13175SOL     OW44462  11.630   7.409   8.694  0.2379  0.0953  0.2383
13175SOL    HW144463  11.616   7.503   8.682  0.3406  0.3465  1.9018
13175SOL    HW244464  11.724   7.401   8.709 -0.0943  0.0675  2.6064
13176SOL     OW44465   9.416   8.761  10.683  0.0003 -0.1638 -0.1902
13176SOL    HW144466   9.326   8.728  10.685  1.0669 -3.3401  1.3450
13176SOL    HW244467   9.437   8.780  10.775  1.5909 -1.6762 -0.2012
13177SOL     OW44468   7.893   0.117   3.480 -0.6269  0.1862 -0.1087
13177SOL    HW144469   7.873   0.184   3.414 -1.7798  1.6225  1.5896
13177SOL    HW244470   7.982   0.138   3.509 -0.4039  0.0131 -0.6568
13178SOL     OW44471   4.485   6.366   5.802  0.2573  0.8724  0.3609
13178SOL    HW144472   4.530   6.347   5.885 -0.2246 -2.4613  0.0074
13178SOL    HW244473   4.397   6.331   5.814  0.8850 -1.9496 -2.2637
13179SOL     OW44474   3.422   1.081  10.352 -0.1910  0.0761 -0.5557
13179SOL    HW144475   3.445   1.046  10.438  0.4070  1.8922  0.0859
13179SOL    HW244476   3.379   1.165  10.371  1.4746  1.3471 -2.0283
13180SOL     OW44477   7.864   5.595   3.929 -0.2733  0.1504  0.4195
13180SOL    HW144478   7.852   5.596   4.024  0.0728 -0.1718  0.4653
13180SOL    HW244479   7.953   5.628   3.915 -0.5154  0.7172  0.1768
13181SOL     OW44480   9.074   5.952  10.761  0.8373  0.4170  0.3530
13181SOL    HW144481   9.047   5.972  10.850 -0.9164 -1.6121  0.3506
13181SOL    HW244482   8.993   5.933  10.714  1.7969  0.3961 -1.4099
13182SOL     OW44483   8.960   5.425   2.335  0.1793 -0.1387  0.1897
13182SOL    HW144484   8.873   5.463   2.322  0.0896 -0.4418 -0.1221
13182SOL    HW244485   8.949   5.362   2.405  0.3368  0.4331  0.7369
13183SOL     OW44486  10.246  10.796   7.793 -0.0147  0.2245  0.4138
13183SOL    HW144487  10.159  10.797   7.832  0.2231 -2.9989  1.3308
13183SOL    HW244488  10.305  10.784   7.868  0.9810  0.0453 -0.3822
13184SOL     OW44489   2.722   5.768   0.343  0.3050 -0.3273  0.1535
13184SOL    HW144490   2.698   5.857   0.370  0.6643 -0.2953  0.3838
13184SOL    HW244491   2.639   5.727   0.320  0.2434  0.4100 -1.0244
13185SOL     OW44492   3.303  10.560  11.670 -0.0198  0.1975  0.2339
13185SOL    HW144493   3.211  10.578  11.652 -0.7713  0.0136  3.3700
13185SOL    HW244494   3.341  10.644  11.693  0.0514 -0.0314  0.9850
13186SOL     OW44495   6.485   3.704   4.561 -0.1710  0.4454 -0.1911
13186SOL    HW144496   6.415   3.638   4.552 -0.2790  0.6504 -0.8980
13186SOL    HW244497   6.498   3.737   4.472  0.4592  0.7916  0.0287
13187SOL     OW44498   7.360   0.031   2.034  0.1245 -0.5307 -0.4988
13187SOL    HW144499   7.299   0.006   1.964  0.5719 -1.7593 -0.4768
13187SOL    HW244500   7.441   0.054   1.988  0.0154 -0.0611 -0.4583
13188SOL     OW44501   6.983   4.564   4.065  0.1457  0.4151 -0.4480
13188SOL    HW144502   7.028   4.642   4.034 -0.5982  0.0765 -2.5592
13188SOL    HW244503   7.054   4.503   4.088  0.7604  2.1253  2.6510
13189SOL     OW44504   8.379   3.598  11.655 -0.5705 -0.2719  0.2082
13189SOL    HW144505   8.436   3.560  11.722 -1.3517 -2.4011 -0.2639
13189SOL    HW244506   8.300   3.624  11.703 -0.0538  0.7985  0.5227
13190SOL     OW44507   6.595   0.531  10.113 -0.6692  0.3587 -0.0592
13190SOL    HW144508   6.675   0.579  10.090 -1.0020  1.5017  1.1151
13190SOL    HW244509   6.602   0.515  10.207 -1.8028  0.4341  0.0496
13191SOL     OW44510   5.340   4.037   4.393 -0.0112 -0.4092 -0.2150
13191SOL    HW144511   5.332   4.069   4.303  0.0538 -0.7477 -0.3399
13191SOL    HW244512   5.269   4.081   4.440  1.3683  1.6398  0.1052
13192SOL     OW44513   9.493   6.775   7.039  0.3347 -0.8681 -0.0398
13192SOL    HW144514   9.583   6.747   7.022  1.1216  0.8366  1.0402
13192SOL    HW244515   9.455   6.704   7.091  1.6045 -0.8813  0.9053
13193SOL     OW44516   7.731   9.909   0.633  0.4533  0.1559 -0.3735
13193SOL    HW144517   7.764   9.918   0.723 -1.1790  1.1415  0.1795
13193SOL    HW244518   7.806   9.928   0.578  1.4003 -0.0968  0.7848
13194SOL     OW44519   1.269  10.603   8.652  0.1659 -0.5293 -0.3190
13194SOL    HW144520   1.315  10.659   8.713 -1.6973  0.3217  0.3835
13194SOL    HW244521   1.324  10.603   8.573  0.8158  1.2919  0.0916
13195SOL     OW44522   5.727  10.112   9.401  0.1396 -0.3615 -0.4256
13195SOL    HW144523   5.706  10.180   9.337 -0.1553  0.7748  0.8275
13195SOL    HW244524   5.782  10.157   9.466 -2.4815 -0.4418  2.0528
13196SOL     OW44525   5.724   6.476   1.998  0.3149 -0.2876 -0.6697
13196SOL    HW144526   5.739   6.447   2.088 -0.3286 -1.0803 -0.8055
13196SOL    HW244527   5.805   6.454   1.951  0.3383 -0.6342 -0.4675
13197SOL     OW44528   4.775   0.437   4.622  0.1028 -0.2193 -0.1505
13197SOL    HW144529   4.696   0.489   4.634  0.5409  0.7852 -1.3906
13197SOL    HW244530   4.744   0.348   4.605 -0.7914  0.3364 -1.4712
13198SOL     OW44531  11.666  10.375  11.680  0.2200  1.1141  0.0019
13198SOL    HW144532  11.683  10.366  11.586  0.6885  0.3319  0.1480
13198SOL    HW244533  11.694  10.291  11.717  2.1853  2.1901  1.1410
13199SOL     OW44534  10.523   6.557   6.458 -0.0970 -0.0922 -0.3891
13199SOL    HW144535  10.459   6.535   6.390  0.2373  0.0096 -0.7416
13199SOL    HW244536  10.608   6.547   6.415  0.1267 -0.2904  0.0965
13200SOL     OW44537   1.115   4.772   2.546  0.2367  0.0439 -0.4212
13200SOL    HW144538   1.091   4.706   2.611  0.3900 -0.1597 -0.5708
13200SOL    HW244539   1.157   4.723   2.476  1.3068  0.4190 -0.0692
13201SOL     OW44540   9.012   2.986   5.423  0.5049  0.2548  0.4935
13201SOL    HW144541   8.976   2.903   5.390 -0.9187  0.9777  0.1199
13201SOL    HW244542   9.041   3.032   5.344  0.5403  0.4419  0.6159
13202SOL     OW44543   2.769   6.869  11.657  0.0238  0.4751 -0.4061
13202SOL    HW144544   2.714   6.944  11.675  0.1468  0.5539 -0.3559
13202SOL    HW244545   2.713   6.809  11.608 -0.2356  0.3674  0.0227
13203SOL     OW44546   9.571  11.121   6.952 -0.3032 -0.4816  0.2691
13203SOL    HW144547   9.519  11.202   6.950  0.9260  0.3264 -1.3432
13203SOL    HW244548   9.657  11.149   6.985  0.2914 -1.0083 -0.8027
13204SOL     OW44549   3.421   1.718   5.175 -0.2429  0.1991  0.3165
13204SOL    HW144550   3.486   1.652   5.200  1.2147  1.7652  0.7893
13204SOL    HW244551   3.386   1.751   5.258  0.8787  1.7700  0.2043
13205SOL     OW44552  11.450   0.620   3.674 -0.1334 -0.4572  0.0436
13205SOL    HW144553  11.365   0.590   3.641  0.2373 -0.7532 -0.6618
13205SOL    HW244554  11.504   0.630   3.595  1.4781 -3.2590  0.6755
13206SOL     OW44555   4.634   2.239   7.961 -0.2716 -0.4479 -0.6931
13206SOL    HW144556   4.635   2.326   7.922  0.0603  1.1588  2.5393
13206SOL    HW244557   4.545   2.229   7.996  0.5307  0.0648  1.7003
13207SOL     OW44558   7.410   3.705   4.486 -0.0413  0.0278 -0.4615
13207SOL    HW144559   7.328   3.742   4.518  1.1749  0.1853  2.8687
13207SOL    HW244560   7.431   3.757   4.408 -4.8063 -2.4350 -3.8711
13208SOL     OW44561   3.080   9.667   4.794  0.5493 -0.5164  0.2802
13208SOL    HW144562   3.109   9.755   4.817  2.6186 -0.8774 -0.6883
13208SOL    HW244563   3.047   9.675   4.704 -0.5905 -0.4920  0.6830
13209SOL     OW44564   3.852   4.023   3.162 -0.0362 -0.3032  0.2753
13209SOL    HW144565   3.876   3.931   3.152  3.4094  0.4437  0.3598
13209SOL    HW244566   3.867   4.042   3.255 -0.2492  0.4644  0.1614
13210SOL     OW44567  11.674   0.255   1.059 -0.2879  0.4526  0.1497
13210SOL    HW144568  11.622   0.177   1.077  1.5305 -1.1029 -0.9396
13210SOL    HW244569  11.622   0.306   0.998 -1.4016 -0.0042  0.6961
13211SOL     OW44570   8.894   7.570   1.447  0.4963 -0.1286 -0.1464
13211SOL    HW144571   8.915   7.517   1.371  0.1347 -0.3400 -0.1025
13211SOL    HW244572   8.886   7.507   1.519  0.9488  0.0810  0.0894
13212SOL     OW44573   3.510   1.943  11.561  0.1884  0.3908 -0.0808
13212SOL    HW144574   3.485   1.884  11.491  1.1304 -1.0594  0.7550
13212SOL    HW244575   3.563   2.010  11.518 -2.6868  1.9753 -1.4059
13213SOL     OW44576   2.593  11.309   8.669 -0.4918  0.1668  0.3001
13213SOL    HW144577   2.581  11.214   8.668 -1.2385  0.2036  2.1187
13213SOL    HW244578   2.687  11.322   8.680 -0.1978 -0.3060 -1.3392
13214SOL     OW44579  10.625   2.528   6.362  0.0143 -0.3876  0.1652
13214SOL    HW144580  10.616   2.552   6.270  1.8336 -1.0571 -0.2454
13214SOL    HW244581  10.681   2.596   6.399 -0.0298 -0.5642  0.5592
13215SOL     OW44582   1.058   4.558   5.386  0.2840  0.5033 -0.1627
13215SOL    HW144583   0.990   4.557   5.318  0.3824 -1.3878 -0.3004
13215SOL    HW244584   1.021   4.506   5.457  1.0949  0.5186  0.2740
13216SOL     OW44585   1.794   0.792   0.713 -0.1345  0.2987  0.0940
13216SOL    HW144586   1.705   0.776   0.744 -0.5281  0.5358 -0.8780
13216SOL    HW244587   1.806   0.887   0.725 -0.0449  0.2841  0.1204
13217SOL     OW44588   4.367   5.920   3.076  0.1194  0.2541 -0.4197
13217SOL    HW144589   4.432   5.971   3.028 -1.9957  1.0279 -2.6608
13217SOL    HW244590   4.340   5.977   3.148  1.7758 -0.0515  0.5005
13218SOL     OW44591   0.175   3.015   6.721  0.3850 -0.2037 -0.3765
13218SOL    HW144592   0.186   2.936   6.668  2.6855  0.2048 -0.6011
13218SOL    HW244593   0.259   3.061   6.714 -0.8233  2.1919 -0.1096
13219SOL     OW44594   6.348   8.030   1.373  0.2007 -0.2562 -0.3083
13219SOL    HW144595   6.376   7.965   1.308 -0.3828  0.7109 -1.5587
13219SOL    HW244596   6.254   8.039   1.360  0.1146  0.1332  0.5120
13220SOL     OW44597  10.315   2.769   3.960  0.3000 -0.3592  0.2256
13220SOL    HW144598  10.380   2.746   3.893  0.2551 -0.8091  0.3300
13220SOL    HW244599  10.348   2.727   4.040  0.5332  0.4576  0.5701
13221SOL     OW44600  10.557   1.957   2.896  0.2241  0.2049  0.1952
13221SOL    HW144601  10.466   1.930   2.911  0.6361  0.0363  2.8898
13221SOL    HW244602  10.550   2.028   2.832 -1.8734  0.4712  0.6300
13222SOL     OW44603   8.561  10.522  10.907  0.5121 -0.0160  0.2162
13222SOL    HW144604   8.528  10.611  10.898 -1.2653 -0.6206  0.2995
13222SOL    HW244605   8.572  10.492  10.817 -3.4721 -1.2323 -0.0530
13223SOL     OW44606   8.993   3.061   4.246  0.5387 -0.7054 -0.3529
13223SOL    HW144607   8.940   3.118   4.190 -0.9745 -0.8933  0.8244
13223SOL    HW244608   8.929   3.006   4.292  1.6456 -0.0634  2.1034
13224SOL     OW44609   7.827   9.628   9.658  0.2387 -0.5164  0.8687
13224SOL    HW144610   7.921   9.614   9.664  1.1274  3.2215 -0.9663
13224SOL    HW244611   7.808   9.692   9.727 -0.7442 -0.4922  0.5916
13225SOL     OW44612   6.160  10.991   2.549 -0.0803  0.0366 -0.1290
13225SOL    HW144613   6.110  10.936   2.489  1.9620 -0.5772 -1.3499
13225SOL    HW244614   6.193  11.062   2.494  2.7971 -1.1587 -0.0917
13226SOL     OW44615   8.710   3.739   3.229 -0.1408 -0.0675  0.7562
13226SOL    HW144616   8.715   3.823   3.273  0.4258  0.3515 -0.0866
13226SOL    HW244617   8.652   3.754   3.155  2.0986  0.3732 -1.0243
13227SOL     OW44618   1.550   0.625   7.736  0.0296 -0.1320  0.2704
13227SOL    HW144619   1.498   0.669   7.804  1.0953  0.5860  0.6481
13227SOL    HW244620   1.613   0.691   7.708 -0.9964 -0.0922 -2.1518
13228SOL     OW44621  10.751  10.290  10.769 -0.4254 -0.1763 -0.1894
13228SOL    HW144622  10.710  10.320  10.850  0.5793  0.0550  0.2528
13228SOL    HW244623  10.839  10.329  10.771  0.9177 -2.9892  0.3413
13229SOL     OW44624   6.841   4.364   9.538 -0.7994 -0.2332  0.1696
13229SOL    HW144625   6.774   4.389   9.475 -0.5062 -0.3014 -0.1714
13229SOL    HW244626   6.841   4.268   9.537 -0.8562 -0.2359  0.3410
13230SOL     OW44627   0.984   7.532   0.772  0.3242 -0.7436  0.3832
13230SOL    HW144628   1.067   7.578   0.786  0.3847 -0.5678 -0.5062
13230SOL    HW244629   0.927   7.563   0.842  0.3403  0.7599 -0.2262
13231SOL     OW44630   6.388   5.204   1.784  0.0905  0.2076  0.0651
13231SOL    HW144631   6.302   5.245   1.799  1.8651  3.8955  1.2421
13231SOL    HW244632   6.423   5.188   1.871  1.2918  0.3811 -0.3676
13232SOL     OW44633   0.609   3.493   6.929 -1.2651  0.5688  0.0810
13232SOL    HW144634   0.596   3.456   6.841  0.4898 -2.7322  1.0276
13232SOL    HW244635   0.525   3.478   6.973 -0.8664 -1.7725  0.1743
13233SOL     OW44636   8.999  10.330   1.599 -0.0420  0.1031 -0.8806
13233SOL    HW144637   9.085  10.319   1.639 -0.4847  0.3487  0.1725
13233SOL    HW244638   8.947  10.376   1.665 -0.2754  2.2479 -2.4714
13234SOL     OW44639   1.097  10.078   6.375 -0.0411  0.3638  0.0021
13234SOL    HW144640   1.171  10.133   6.350 -0.8570  0.8458 -1.4465
13234SOL    HW244641   1.088  10.016   6.303  0.3291 -1.1754  1.2137
13235SOL     OW44642   3.172   4.052   8.140 -0.2056 -0.1578 -0.2644
13235SOL    HW144643   3.215   4.127   8.182  1.3030 -0.1140 -1.7593
13235SOL    HW244644   3.097   4.089   8.095  0.9250  0.6475 -1.5858
13236SOL     OW44645   9.203   7.805  10.639  0.7387 -0.4005  0.8696
13236SOL    HW144646   9.142   7.734  10.620 -0.4666  0.4996  1.2887
13236SOL    HW244647   9.228   7.791  10.730 -2.3007  1.6637  2.1727
13237SOL     OW44648   5.816   6.787  10.011  0.4748 -0.1559  0.8279
13237SOL    HW144649   5.905   6.821  10.018  0.9115 -1.4655  2.5327
13237SOL    HW244650   5.793   6.763  10.101 -0.9150 -1.4679  0.1667
13238SOL     OW44651   6.360   8.107   8.690  0.3174  0.4522 -0.1758
13238SOL    HW144652   6.450   8.129   8.713  0.1018  1.2151 -0.0282
13238SOL    HW244653   6.339   8.030   8.743  0.4118  1.1301  0.8813
13239SOL     OW44654   6.522   4.725   6.036 -0.1921 -0.4399  0.6102
13239SOL    HW144655   6.583   4.657   6.008  1.6364  1.5281 -0.4613
13239SOL    HW244656   6.571   4.777   6.098 -0.8432  1.0589 -0.0907
13240SOL     OW44657   3.014   1.305   2.060 -0.8927  0.2365  0.1990
13240SOL    HW144658   2.974   1.266   1.982  0.1416  0.2634 -0.3626
13240SOL    HW244659   2.948   1.294   2.129 -2.0328  0.6847 -0.7971
13241SOL     OW44660   2.039   7.212  10.609 -0.5371 -0.2398 -0.0032
13241SOL    HW144661   1.944   7.202  10.602 -0.3261 -1.2795 -2.2112
13241SOL    HW244662   2.075   7.147  10.549  1.6524 -0.8990  1.8796
13242SOL     OW44663   2.522   3.195   0.448 -0.2175  0.1847 -0.2395
13242SOL    HW144664   2.528   3.105   0.480  1.0710  0.5884  0.6898
13242SOL    HW244665   2.472   3.187   0.366  1.3660 -1.6273 -1.1249
13243SOL     OW44666   7.333   5.446   0.781  0.0823 -0.0460 -0.2754
13243SOL    HW144667   7.402   5.429   0.844  1.3038  1.3062 -1.1763
13243SOL    HW244668   7.377   5.448   0.696 -1.2571 -0.2706 -1.0178
13244SOL     OW44669  11.116  11.110   8.801 -0.0427 -0.4758 -0.0396
13244SOL    HW144670  11.066  11.066   8.732 -0.0190 -1.4407  0.5382
13244SOL    HW244671  11.188  11.050   8.820 -1.1473 -1.2193  2.2093
13245SOL     OW44672   8.538   2.870   7.766 -0.6462 -0.2313  0.0528
13245SOL    HW144673   8.574   2.830   7.687 -1.2680 -0.7164  0.0109
13245SOL    HW244674   8.533   2.799   7.829  0.0468  0.1997  0.6067
13246SOL     OW44675   8.700   7.189  11.344 -0.2476 -0.5668 -0.9863
13246SOL    HW144676   8.699   7.273  11.300 -1.8873 -1.0105 -1.8689
13246SOL    HW244677   8.645   7.202  11.422 -1.4744 -1.0809 -1.7291
13247SOL     OW44678   9.580   0.048   0.578  0.5040  0.1049 -0.0553
13247SOL    HW144679   9.669   0.074   0.602  0.4042  1.5175 -1.1053
13247SOL    HW244680   9.572   0.073   0.486 -1.3557  1.1079  0.3338
13248SOL     OW44681   0.429   5.035   8.721  0.5548 -0.6578 -0.3621
13248SOL    HW144682   0.444   4.960   8.778 -1.3512 -0.2366  0.7724
13248SOL    HW244683   0.508   5.088   8.729  0.0216 -0.1646  2.6195
13249SOL     OW44684   3.415   2.488   7.996 -0.3364  0.2065  0.1026
13249SOL    HW144685   3.498   2.443   8.013  0.8420  1.3357 -2.1043
13249SOL    HW244686   3.368   2.429   7.936 -1.4672 -0.7119  1.8198
13250SOL     OW44687   6.232   1.108   4.854 -0.0714 -0.1149 -0.2086
13250SOL    HW144688   6.298   1.049   4.818  1.2904  2.1283 -1.6160
13250SOL    HW244689   6.194   1.059   4.927  0.0656 -3.1927 -2.0157
13251SOL     OW44690   8.221   1.652   8.893 -0.7676  0.0365  0.9426
13251SOL    HW144691   8.242   1.608   8.975  0.2686 -1.5397 -0.1090
13251SOL    HW244692   8.283   1.725   8.888  0.1572 -0.7337  0.9032
13252SOL     OW44693   4.069   0.163   2.945  0.3068 -0.6409  0.5088
13252SOL    HW144694   4.115   0.188   2.865 -1.1194 -0.6964 -0.3518
13252SOL    HW244695   4.116   0.086   2.976  1.1715 -0.3313  0.0076
13253SOL     OW44696   0.090   2.648  10.676 -0.8762  0.1423  0.6044
13253SOL    HW144697   0.052   2.612  10.757  0.1805 -0.1550  0.9813
13253SOL    HW244698   0.110   2.571  10.623  2.5065 -0.0409  1.9023
13254SOL     OW44699   6.643   9.421  10.323 -0.2612  0.1794  0.4845
13254SOL    HW144700   6.573   9.384  10.269  0.1540 -0.8368  0.6213
13254SOL    HW244701   6.597   9.471  10.391 -0.7908  1.9167 -1.0474
13255SOL     OW44702   6.003   9.487   5.163 -0.5082 -0.1536  0.3515
13255SOL    HW144703   5.924   9.454   5.205 -0.3892  0.6819  1.2682
13255SOL    HW244704   6.003   9.581   5.183  0.4494 -0.0573 -0.0638
13256SOL     OW44705   3.748   9.978   4.328  0.2933  0.4415  0.1113
13256SOL    HW144706   3.819  10.039   4.305 -1.6000  2.1154 -1.7151
13256SOL    HW244707   3.731   9.930   4.247 -0.4140 -0.2300  0.6446
13257SOL     OW44708   4.655   5.063   6.846 -0.0193  0.6394  0.1505
13257SOL    HW144709   4.625   4.993   6.787  2.0573  0.3427 -0.6233
13257SOL    HW244710   4.679   5.018   6.927  1.9196  0.2981 -0.5626
13258SOL     OW44711   9.618   8.093   1.633  0.2736 -0.0269  0.4391
13258SOL    HW144712   9.575   8.070   1.551 -2.4674 -0.4428  1.8817
13258SOL    HW244713   9.638   8.186   1.625 -1.3435  0.2932 -0.1324
13259SOL     OW44714   9.054   6.076  10.511  0.0281  0.0667 -0.1367
13259SOL    HW144715   9.077   6.050  10.600 -1.5793  2.0294  0.9201
13259SOL    HW244716   8.992   6.147  10.521  1.9760  2.3864 -2.8114
13260SOL     OW44717   7.257   2.888   5.905 -0.4213  0.5438 -0.2986
13260SOL    HW144718   7.213   2.947   5.844 -0.9649 -0.8398 -1.3042
13260SOL    HW244719   7.186   2.844   5.952 -0.2672 -1.9186 -2.1336
13261SOL     OW44720   6.125  10.544   7.414 -0.2089  0.0141  0.6994
13261SOL    HW144721   6.140  10.474   7.350  0.1250 -0.4112  1.2442
13261SOL    HW244722   6.040  10.581   7.388  0.0526  0.0397 -0.1690
13262SOL     OW44723  11.135   2.454   4.900  0.0072 -0.0541 -0.0835
13262SOL    HW144724  11.199   2.391   4.933  0.3310  0.5344  0.4506
13262SOL    HW244725  11.128   2.435   4.806  1.2106  0.0614 -0.2231
13263SOL     OW44726   9.858   2.804   4.987 -0.0797  0.3430  0.7017
13263SOL    HW144727   9.790   2.832   5.049  0.2071  0.1507  1.1056
13263SOL    HW244728   9.812   2.797   4.903 -0.3890  0.9945  0.8029
13264SOL     OW44729   3.418   5.976   0.504  0.2519 -0.1307  0.1805
13264SOL    HW144730   3.469   5.918   0.447  1.8050 -0.2000  1.5252
13264SOL    HW244731   3.435   6.064   0.471 -1.2645 -0.3205 -1.2248
13265SOL     OW44732   7.620   0.540  11.051 -0.9192 -0.1206 -0.0946
13265SOL    HW144733   7.559   0.582  10.991  0.6295  1.0536 -0.9174
13265SOL    HW244734   7.647   0.610  11.110  2.3541  0.4423 -2.0154
13266SOL     OW44735   5.052   3.185   7.370  0.2197  0.3796 -0.3269
13266SOL    HW144736   5.146   3.195   7.383  0.8885 -2.3352 -2.1231
13266SOL    HW244737   5.038   3.209   7.278 -1.0275  1.5889  0.1568
13267SOL     OW44738   4.063   7.759   8.017  0.7257 -0.0126 -0.4790
13267SOL    HW144739   3.992   7.695   8.009 -0.4118  1.2852 -0.9503
13267SOL    HW244740   4.067   7.778   8.111  0.1395  0.2687 -0.5121
13268SOL     OW44741   2.870   7.481   1.460 -0.3010  0.4781  0.2022
13268SOL    HW144742   2.919   7.492   1.541  1.3428  0.1000 -0.7063
13268SOL    HW244743   2.896   7.395   1.428  0.9176  1.5620 -1.8956
13269SOL     OW44744   3.100   1.509   4.890 -0.0605 -0.2271 -0.0641
13269SOL    HW144745   3.045   1.493   4.966  0.0564  1.0471  0.3084
13269SOL    HW244746   3.053   1.574   4.839  0.0834 -0.7323 -0.8514
13270SOL     OW44747  10.746   0.705   6.446  0.3912  0.1417 -0.3703
13270SOL    HW144748  10.808   0.690   6.517  0.2184  1.1124  0.0027
13270SOL    HW244749  10.726   0.798   6.451 -0.9596 -0.1142 -0.6049
13271SOL     OW44750   8.900   3.582   4.351  0.1777  0.4934  0.0319
13271SOL    HW144751   8.896   3.630   4.268 -0.0178 -0.5537 -0.5675
13271SOL    HW244752   8.935   3.496   4.328  0.8050  0.4254  1.1492
13272SOL     OW44753   8.754   2.384   4.961  0.2537  0.2203 -0.6934
13272SOL    HW144754   8.814   2.457   4.976 -0.5318  0.7276  0.0507
13272SOL    HW244755   8.743   2.382   4.866  0.5900  0.8248 -0.7535
13273SOL     OW44756   3.014   7.284   3.604  0.3817 -0.0825 -0.4630
13273SOL    HW144757   2.920   7.292   3.623  0.7157  0.0979  1.2527
13273SOL    HW244758   3.029   7.189   3.598 -0.0847 -0.0994 -1.8935
13274SOL     OW44759  11.055   9.028   5.724 -0.2152  0.1146  0.6152
13274SOL    HW144760  11.061   9.087   5.649 -1.1989  0.7638  1.0297
13274SOL    HW244761  11.116   9.064   5.788  1.9593 -1.4252 -0.4730
13275SOL     OW44762   6.716   0.219   9.699 -0.5721  0.1302 -0.2603
13275SOL    HW144763   6.727   0.254   9.788  1.5814  0.4856 -0.6171
13275SOL    HW244764   6.769   0.277   9.644 -1.0004 -0.7344 -1.6292
13276SOL     OW44765   2.201   8.498  11.450 -0.0147 -0.7462 -0.0748
13276SOL    HW144766   2.278   8.480  11.505 -0.1798  1.8558  1.1531
13276SOL    HW244767   2.128   8.458  11.499  0.1367 -0.3912  0.4536
13277SOL     OW44768   6.706   3.182   3.432 -0.1061 -0.0339  0.0825
13277SOL    HW144769   6.720   3.123   3.505 -0.5579 -2.7358 -1.8872
13277SOL    HW244770   6.785   3.237   3.430  1.3067 -1.9393  0.8092
13278SOL     OW44771   5.183  11.555  11.433  0.3920  0.0253  0.1288
13278SOL    HW144772   5.185  11.651  11.430 -1.0663  0.0452 -0.5392
13278SOL    HW244773   5.113  11.530  11.374 -0.4357 -1.3946  1.6340
13279SOL     OW44774   1.510   6.249   7.724 -0.1728  0.3130 -0.1466
13279SOL    HW144775   1.418   6.224   7.731 -0.2678  1.0678  2.1448
13279SOL    HW244776   1.520   6.279   7.634 -2.3538  0.9105 -0.2393
13280SOL     OW44777   4.510   9.910   7.890  0.2919 -0.0709 -0.5038
13280SOL    HW144778   4.524   9.996   7.850  1.3714 -0.2763 -0.6065
13280SOL    HW244779   4.560   9.850   7.835 -0.2844 -0.7419 -0.3099
13281SOL     OW44780  10.148   4.751   3.553 -0.2765 -0.3240  0.1889
13281SOL    HW144781  10.074   4.711   3.506 -0.2729  0.0276 -0.1162
13281SOL    HW244782  10.133   4.845   3.545 -0.2417 -0.2612  0.8451
13282SOL     OW44783   7.727   5.382   8.340  0.3114  0.0385 -0.5241
13282SOL    HW144784   7.757   5.388   8.249 -0.6459 -0.5645 -0.8962
13282SOL    HW244785   7.775   5.308   8.376 -0.5738 -0.8351 -1.0776
13283SOL     OW44786   0.844   3.819   5.439 -0.0615  0.2709  0.1101
13283SOL    HW144787   0.844   3.734   5.483 -0.1060  0.5520  0.6610
13283SOL    HW244788   0.805   3.801   5.353 -0.3685 -0.2024  0.3393
13284SOL     OW44789   1.095   9.154  10.405 -0.2426  0.4481 -0.0757
13284SOL    HW144790   1.020   9.111  10.445 -0.5481  0.4133 -0.6756
13284SOL    HW244791   1.092   9.128  10.313  2.1619 -1.9166  0.3916
13285SOL     OW44792   9.191   6.664   1.447 -0.1024 -0.2443 -0.5875
13285SOL    HW144793   9.228   6.584   1.410 -1.7436 -0.3078 -2.3169
13285SOL    HW244794   9.212   6.732   1.382 -0.4774  0.2845 -0.1637
13286SOL     OW44795   4.929   0.157   5.151 -0.4940 -0.2328 -0.3577
13286SOL    HW144796   5.005   0.147   5.092  1.5190  1.1079  1.8227
13286SOL    HW244797   4.858   0.183   5.093  0.6946 -1.4975 -2.5203
13287SOL     OW44798   2.474   5.310   3.752 -0.2254  0.2411  0.0415
13287SOL    HW144799   2.489   5.327   3.845 -0.2135 -0.1941  0.1221
13287SOL    HW244800   2.457   5.215   3.747 -1.2035  0.4165 -0.2740
13288SOL     OW44801   3.122   3.880   7.305 -0.1914  0.4532  0.3739
13288SOL    HW144802   3.050   3.940   7.284  0.0488  0.4398 -0.5308
13288SOL    HW244803   3.150   3.906   7.393 -0.1148  1.6647  0.0144
13289SOL     OW44804   3.475  10.007   4.686 -0.4892 -0.5722  0.1921
13289SOL    HW144805   3.477  10.092   4.730  0.3005 -0.0968 -0.7187
13289SOL    HW244806   3.558  10.003   4.638 -1.4741 -0.8833 -1.5681
13290SOL     OW44807  10.765   7.488   1.280 -0.5243 -0.0508  0.3289
13290SOL    HW144808  10.706   7.561   1.261 -1.0383 -0.6211 -0.3402
13290SOL    HW244809  10.822   7.520   1.349 -0.9722  0.8627  0.2873
13291SOL     OW44810   4.307   4.986   9.095 -0.0527  0.3458  0.5547
13291SOL    HW144811   4.374   4.924   9.064 -0.3163 -0.9044  2.3301
13291SOL    HW244812   4.277   4.949   9.178 -0.6983  2.5441  1.3679
13292SOL     OW44813   4.532   7.106   2.239 -0.6491  0.1872 -0.4466
13292SOL    HW144814   4.566   7.190   2.272 -0.5303 -0.6165  1.6159
13292SOL    HW244815   4.567   7.041   2.300 -0.9674 -1.3547 -1.8506
13293SOL     OW44816  11.063  11.575   7.404  0.3663 -0.0789  0.0035
13293SOL    HW144817  11.101  11.556   7.319  0.8906 -1.6171  0.5533
13293SOL    HW244818  11.007  11.500   7.423  0.3594  0.1800  1.0651
13294SOL     OW44819   2.848   7.267   3.952 -0.0849  0.2031  0.1137
13294SOL    HW144820   2.892   7.347   3.923 -0.6568  0.7337  0.6746
13294SOL    HW244821   2.760   7.273   3.915  0.2157 -0.7441 -0.8186
13295SOL     OW44822   5.962   2.547   8.545 -0.3443  0.5605  0.2028
13295SOL    HW144823   5.885   2.499   8.513  0.1112  1.3135 -2.2028
13295SOL    HW244824   5.944   2.561   8.638 -2.4482 -0.5372  0.0251
13296SOL     OW44825  10.859   2.361   2.101 -0.5780 -0.0660  0.2593
13296SOL    HW144826  10.838   2.453   2.112  0.6580  0.2179  0.4591
13296SOL    HW244827  10.955   2.359   2.092 -0.5617 -1.3388  0.4460
13297SOL     OW44828   4.822   7.748  10.173 -0.3178  0.0422 -0.2689
13297SOL    HW144829   4.872   7.757  10.093  1.7071 -2.6916  0.5183
13297SOL    HW244830   4.876   7.787  10.241 -2.5675  3.5006 -0.2090
13298SOL     OW44831   2.052  10.987   5.691 -0.5149  0.1576 -0.1258
13298SOL    HW144832   2.086  10.898   5.693  0.5740  0.5503  1.7887
13298SOL    HW244833   1.963  10.978   5.657 -0.3783 -1.6383 -0.1131
13299SOL     OW44834   2.346   7.103   3.945 -0.5199  0.3982  0.1331
13299SOL    HW144835   2.345   7.017   3.987 -2.6860 -0.7996 -2.0538
13299SOL    HW244836   2.317   7.164   4.013 -1.4847 -1.0533  1.0691
13300SOL     OW44837   3.525  11.604   7.679 -0.0800 -0.6270 -0.5701
13300SOL    HW144838   3.451  11.555   7.716 -0.1626 -0.0957 -0.0078
13300SOL    HW244839   3.505  11.695   7.698  0.1277 -0.3726 -1.5050
13301SOL     OW44840   8.964   9.856   6.029 -0.2046 -0.1623 -0.1051
13301SOL    HW144841   8.968   9.781   6.087  1.0633 -0.0001  0.0473
13301SOL    HW244842   9.017   9.831   5.953 -0.0745  0.4249 -0.2185
13302SOL     OW44843   5.195  11.492  10.131  0.3992  0.1771 -0.5760
13302SOL    HW144844   5.132  11.486  10.202  1.1221 -2.1806 -0.0550
13302SOL    HW244845   5.163  11.431  10.065  0.6818  1.0325 -1.5351
13303SOL     OW44846   2.856   2.849  10.166  0.0100  0.6298 -0.0708
13303SOL    HW144847   2.856   2.787  10.239 -0.1132  1.8585  1.0170
13303SOL    HW244848   2.947   2.881  10.162 -0.1362  1.0560 -0.0210
13304SOL     OW44849   2.550   9.937   6.833 -0.2023  0.6635 -1.0812
13304SOL    HW144850   2.545   9.984   6.916 -0.5010  0.3707 -0.9284
13304SOL    HW244851   2.505   9.994   6.771 -1.2764  0.2350 -0.7277
13305SOL     OW44852   3.801   1.439   3.643  0.0350  0.0620  0.2127
13305SOL    HW144853   3.846   1.354   3.638  0.9834  0.4910  1.1241
13305SOL    HW244854   3.723   1.422   3.696 -0.2891 -0.4315 -0.4011
13306SOL     OW44855   6.072   6.346   6.973 -0.1502  0.3805  0.1231
13306SOL    HW144856   6.041   6.420   6.920 -0.0153  0.3580  0.0123
13306SOL    HW244857   6.028   6.270   6.935  0.0490  0.3470 -0.0434
13307SOL     OW44858   3.154   4.713   5.771 -0.0037  0.0160  0.8454
13307SOL    HW144859   3.151   4.679   5.682  0.0238  1.3520  0.3171
13307SOL    HW244860   3.074   4.678   5.813 -1.1450  1.1019 -0.3493
13308SOL     OW44861   1.550   2.824   7.147  0.3119 -0.3423  0.6434
13308SOL    HW144862   1.572   2.917   7.139 -2.0494  0.4550  2.3949
13308SOL    HW244863   1.630   2.784   7.180  1.3473  1.0466 -0.0444
13309SOL     OW44864   6.653   6.987   6.182 -0.8132 -0.6647 -0.7377
13309SOL    HW144865   6.735   6.944   6.158  0.5724  1.6482 -0.4180
13309SOL    HW244866   6.622   6.938   6.258  0.9517 -0.8467 -0.0915
13310SOL     OW44867   7.710  10.780   3.497 -0.2653 -0.0664  0.2044
13310SOL    HW144868   7.750  10.865   3.477  2.9320 -1.6881 -0.9292
13310SOL    HW244869   7.701  10.737   3.412 -1.4347 -1.0594  0.7971
13311SOL     OW44870   5.692  11.194   6.802 -0.6877 -0.1125 -0.3231
13311SOL    HW144871   5.784  11.172   6.794 -0.6078  0.3439 -0.7924
13311SOL    HW244872   5.690  11.290   6.801 -0.9232 -0.0024  2.7091
13312SOL     OW44873   0.749   4.173   2.068  0.2399  0.4741 -0.4819
13312SOL    HW144874   0.797   4.206   1.992 -1.4967  4.9116  0.0927
13312SOL    HW244875   0.754   4.078   2.059  1.8827  0.7321 -4.9585
13313SOL     OW44876   7.516   9.524   1.711 -0.3571 -0.0512  0.1681
13313SOL    HW144877   7.480   9.612   1.705 -0.2955  0.0977  1.6366
13313SOL    HW244878   7.442   9.471   1.742 -0.1114 -0.3224  0.2878
13314SOL     OW44879   3.404   1.012  11.166  0.0145  0.3109 -0.0474
13314SOL    HW144880   3.335   1.076  11.148  0.9955  0.7344 -2.7618
13314SOL    HW244881   3.469   1.061  11.216 -0.0913  0.9041 -0.4809
13315SOL     OW44882  10.401   5.468   6.209  0.1708  0.0621  0.1154
13315SOL    HW144883  10.346   5.489   6.285  0.8483 -1.9905  1.2336
13315SOL    HW244884  10.437   5.553   6.183 -0.8694  0.9672  1.4346
13316SOL     OW44885   6.464   0.687   5.658 -0.8993  0.3418 -0.6344
13316SOL    HW144886   6.467   0.592   5.644  0.2337 -0.1700  2.5033
13316SOL    HW244887   6.480   0.724   5.571  1.9270 -2.3645 -1.4353
13317SOL     OW44888  11.053   9.324   9.472  0.0754 -0.1007 -0.5826
13317SOL    HW144889  11.089   9.241   9.440 -0.7126 -0.6506 -0.0879
13317SOL    HW244890  10.959   9.317   9.455  0.1711  1.3813 -2.0083
13318SOL     OW44891   5.374   5.545   8.453  0.2256 -0.4346  0.1638
13318SOL    HW144892   5.343   5.547   8.543 -0.4739  0.8757 -0.0761
13318SOL    HW244893   5.464   5.579   8.458 -0.0576  0.3094  0.2915
13319SOL     OW44894   7.887   4.281  10.083 -0.2373  0.6903 -0.0098
13319SOL    HW144895   7.892   4.368  10.044 -1.4174  0.4302 -0.7703
13319SOL    HW244896   7.854   4.296  10.172  3.7520  1.4242  1.5625
13320SOL     OW44897   1.886   1.502   1.663  0.3401 -0.1115 -0.2764
13320SOL    HW144898   1.885   1.579   1.720  1.0010 -0.4431  0.1899
13320SOL    HW244899   1.794   1.486   1.642  0.1682  0.5630 -0.0535
13321SOL     OW44900   7.208   8.592   1.213 -0.1011 -0.1573 -0.0183
13321SOL    HW144901   7.199   8.518   1.272  1.0570 -0.1177  0.2345
13321SOL    HW244902   7.286   8.572   1.161 -0.3257  0.4418 -0.6074
13322SOL     OW44903  10.997   3.728   2.680  0.1283  0.1173  0.0338
13322SOL    HW144904  11.070   3.700   2.626  1.0226  0.2414  1.1389
13322SOL    HW244905  11.019   3.817   2.708  0.2958 -0.3655  1.5645
13323SOL     OW44906   8.614   8.673   5.450  0.6811 -0.0348  0.7052
13323SOL    HW144907   8.561   8.737   5.404 -0.0151 -0.7751  0.4529
13323SOL    HW244908   8.638   8.715   5.532 -0.6031  0.1843  0.9775
13324SOL     OW44909   1.308   1.792   0.692 -0.0215 -0.5341 -0.1589
13324SOL    HW144910   1.299   1.852   0.765  0.7528 -1.7069  0.9504
13324SOL    HW244911   1.393   1.813   0.653  0.2202 -0.8493  0.1895
13325SOL     OW44912   9.846  10.334   8.713 -0.0872 -0.7463 -0.1446
13325SOL    HW144913   9.792  10.320   8.790  0.2339 -0.0572  0.2118
13325SOL    HW244914   9.936  10.339   8.747  0.0225 -0.0855 -0.5166
13326SOL     OW44915   0.690   7.280   2.282 -0.3749  0.1986 -0.7843
13326SOL    HW144916   0.705   7.347   2.215  0.3417 -0.6234 -1.4521
13326SOL    HW244917   0.731   7.201   2.248 -1.3992 -0.6603 -0.1044
13327SOL     OW44918   5.879   4.052   4.851  0.2441 -0.0198 -0.3972
13327SOL    HW144919   5.810   4.022   4.792  0.5971 -0.4704 -0.5936
13327SOL    HW244920   5.938   3.977   4.858  0.7637  0.3910 -0.3154
13328SOL     OW44921   0.619   3.952   9.440 -0.1757 -0.3135  0.0465
13328SOL    HW144922   0.697   3.975   9.491  0.4551 -0.8116 -0.6589
13328SOL    HW244923   0.642   3.868   9.400 -0.8628 -0.1845 -0.6221
13329SOL     OW44924   9.206   6.149   0.248 -0.2753 -0.5373 -1.0204
13329SOL    HW144925   9.166   6.156   0.162 -0.6156 -1.3581 -0.9342
13329SOL    HW244926   9.256   6.067   0.244  0.7694  0.0775 -0.8695
13330SOL     OW44927   8.675   7.240   4.021  0.2086  0.0710 -0.1532
13330SOL    HW144928   8.599   7.292   4.046 -0.6611 -1.0261 -0.4569
13330SOL    HW244929   8.701   7.275   3.936 -0.0546  0.3307 -0.1298
13331SOL     OW44930   3.477   0.454   0.775  0.1344  0.2910 -0.3538
13331SOL    HW144931   3.564   0.425   0.748  0.8397  1.7892  0.1760
13331SOL    HW244932   3.494   0.532   0.827 -1.5075  0.2372  0.2902
13332SOL     OW44933   5.760   3.010   2.915 -0.1883 -0.0823 -0.4393
13332SOL    HW144934   5.827   2.978   2.976  2.1832  1.8638 -1.8419
13332SOL    HW244935   5.700   3.060   2.970  0.4629 -0.4343  0.6327
13333SOL     OW44936   1.718   8.763   6.357  0.3163 -0.5313  0.3245
13333SOL    HW144937   1.808   8.740   6.335  0.2552  0.7168 -1.4473
13333SOL    HW244938   1.694   8.701   6.427  2.1078 -1.7046 -0.0211
13334SOL     OW44939   2.237   8.852  10.049 -0.0436  0.2444  0.0128
13334SOL    HW144940   2.171   8.887  10.108  0.2363 -0.5140  0.7816
13334SOL    HW244941   2.283   8.930  10.016  1.4565  0.6007  2.7107
13335SOL     OW44942  10.084   7.671  10.572  0.2393  0.5070 -0.6704
13335SOL    HW144943  10.057   7.762  10.575 -0.3121  0.3291  0.2103
13335SOL    HW244944  10.003   7.621  10.585  0.8569 -0.0385  1.5915
13336SOL     OW44945   6.043   2.983   2.477  0.0795 -0.1197 -0.3884
13336SOL    HW144946   5.973   2.930   2.516  0.4242 -0.6634 -0.4874
13336SOL    HW244947   6.124   2.945   2.512  0.2970  1.7368  1.2890
13337SOL     OW44948   4.534   6.340   9.279 -0.3459  0.1073 -0.3617
13337SOL    HW144949   4.610   6.315   9.227 -1.4404  0.0169 -1.9907
13337SOL    HW244950   4.512   6.428   9.248 -1.3201 -0.1501 -0.4323
13338SOL     OW44951  11.631   8.465   4.005 -0.3155  0.3313 -0.2208
13338SOL    HW144952  11.682   8.436   3.930  0.1529 -1.2159  0.6452
13338SOL    HW244953  11.623   8.560   3.994  1.1605  0.3590 -1.3425
13339SOL     OW44954  11.077   7.251  11.230  0.2899 -0.2912 -0.6966
13339SOL    HW144955  11.139   7.185  11.199  0.8791 -0.5511  0.9229
13339SOL    HW244956  11.123   7.297  11.300 -1.2131 -0.3053  0.3689
13340SOL     OW44957   5.075   5.506   5.455  0.2847 -0.3007  0.1712
13340SOL    HW144958   5.027   5.511   5.538  0.7876 -1.1810  0.5311
13340SOL    HW244959   5.125   5.425   5.461  0.2845 -0.4170 -1.0244
13341SOL     OW44960   9.552   6.996  11.070  0.3346 -0.8481 -0.1418
13341SOL    HW144961   9.601   7.078  11.080 -0.8694  0.9751 -5.7383
13341SOL    HW244962   9.619   6.931  11.048  1.0217 -0.7809  1.6068
13342SOL     OW44963   2.699  10.358  11.057 -0.0230 -0.4557  0.1548
13342SOL    HW144964   2.632  10.313  11.006 -0.7857  0.5426  0.2439
13342SOL    HW244965   2.754  10.401  10.992  0.7175 -1.5092  0.0683
13343SOL     OW44966   3.779   9.181   7.100  0.0966  0.1216  0.6894
13343SOL    HW144967   3.718   9.254   7.093 -1.6379 -1.4180 -2.2498
13343SOL    HW244968   3.737   9.120   7.160 -0.4624 -0.1753  0.0150
13344SOL     OW44969   8.977   6.199   0.931  0.0370 -0.4491  0.9007
13344SOL    HW144970   9.035   6.223   0.859  0.0156 -2.0050  0.3355
13344SOL    HW244971   9.024   6.229   1.009 -0.1466  1.6570  0.2694
13345SOL     OW44972   2.220   6.001   2.658  0.1598  0.0753  0.0606
13345SOL    HW144973   2.183   6.079   2.701 -0.8176 -0.8812  1.0400
13345SOL    HW244974   2.286   5.969   2.720  2.5779  1.6222 -1.5650
13346SOL     OW44975  11.588   0.699   9.389  0.0173 -0.4881  0.5645
13346SOL    HW144976  11.602   0.610   9.421 -0.3951 -0.2475  1.4803
13346SOL    HW244977  11.551   0.745   9.465  0.0681  0.4153  0.0532
13347SOL     OW44978   6.620   5.506   5.098  0.1146 -0.0753  0.2772
13347SOL    HW144979   6.658   5.545   5.177  0.1696 -0.7246  0.5793
13347SOL    HW244980   6.537   5.552   5.085  0.5232  0.6549  0.1938
13348SOL     OW44981   8.549   4.834   7.890 -0.4504 -0.5200  0.3894
13348SOL    HW144982   8.524   4.807   7.978  0.9085 -1.2168  0.5891
13348SOL    HW244983   8.631   4.787   7.873 -1.1713 -1.1433 -1.6199
13349SOL     OW44984   7.088   8.422   9.712  0.3252 -0.3230 -0.7881
13349SOL    HW144985   7.145   8.442   9.638  0.4068  2.7120 -0.0337
13349SOL    HW244986   7.033   8.500   9.722 -0.8289 -1.3127  1.3257
13350SOL     OW44987   6.908   6.538   9.472  0.9081  0.4428 -0.2352
13350SOL    HW144988   6.988   6.524   9.420  0.9817  1.6135 -0.4625
13350SOL    HW244989   6.841   6.560   9.407  0.4716 -0.2013 -0.0136
13351SOL     OW44990   2.201   3.832   8.695  0.5866 -0.1599  0.6615
13351SOL    HW144991   2.220   3.813   8.603  0.8616  1.7019  0.3058
13351SOL    HW244992   2.121   3.783   8.713  0.8968 -1.0886 -0.3620
13352SOL     OW44993   1.077  11.067   4.251 -0.6115 -0.1767 -0.2776
13352SOL    HW144994   1.163  11.026   4.242 -1.3437 -1.5876 -1.1649
13352SOL    HW244995   1.035  11.020   4.324 -0.6720  0.4397  0.0908
13353SOL     OW44996  11.436   5.591   1.532 -0.2462  0.1706  0.1140
13353SOL    HW144997  11.359   5.633   1.494 -0.5765 -0.4715  0.0645
13353SOL    HW244998  11.509   5.619   1.477 -0.2921  1.5455  0.7141
13354SOL     OW44999   8.798   6.005  11.673  0.5080 -0.1153  0.1474
13354SOL    HW145000   8.757   5.931  11.628 -1.4180 -0.4350  2.2420
13354SOL    HW245001   8.892   5.985  11.673  0.2860 -1.3128 -1.4363
13355SOL     OW45002   4.242   9.832   1.045 -0.0771 -0.0367  0.1182
13355SOL    HW145003   4.187   9.837   0.967  0.2777  0.2741 -0.1152
13355SOL    HW245004   4.331   9.817   1.011 -0.1926 -1.9342  0.5371
13356SOL     OW45005   5.235   6.986   0.199 -0.5137 -0.9848 -0.1572
13356SOL    HW145006   5.273   6.990   0.112 -0.0816 -3.2307 -0.1355
13356SOL    HW245007   5.148   7.025   0.190  0.4796  1.1504 -0.9634
13357SOL     OW45008   8.863   1.978   2.301  0.6735 -0.0935  0.2687
13357SOL    HW145009   8.786   1.989   2.245 -0.1920 -1.4894  1.1274
13357SOL    HW245010   8.873   2.062   2.345 -0.3880  0.0932  0.1797
13358SOL     OW45011   5.046   0.609   1.096  0.2417  0.1850 -0.5056
13358SOL    HW145012   5.103   0.562   1.035 -0.6907 -0.1777 -1.1346
13358SOL    HW245013   5.027   0.545   1.164 -0.0714  0.0315 -0.7341
13359SOL     OW45014   2.677   8.563   0.652 -0.4157  0.6253  0.6304
13359SOL    HW145015   2.612   8.626   0.622 -1.2642  0.3475  1.7845
13359SOL    HW245016   2.630   8.511   0.718  0.5173 -0.6314  0.3358
13360SOL     OW45017   5.182   0.080   9.201  0.1645  0.4744 -0.2667
13360SOL    HW145018   5.153   0.111   9.115  2.6269  1.8456 -0.7110
13360SOL    HW245019   5.111   0.024   9.232 -0.8368 -0.0068 -3.1417
13361SOL     OW45020   3.156   5.321   6.768  0.5973 -0.3084 -0.3085
13361SOL    HW145021   3.203   5.395   6.730 -0.4919 -0.8871 -2.9958
13361SOL    HW245022   3.223   5.253   6.779  1.1431  0.2478 -0.1321
13362SOL     OW45023   9.091   6.321   6.051  0.1927  0.6558  0.0393
13362SOL    HW145024   9.021   6.299   5.990  0.2095 -1.0380  0.5667
13362SOL    HW245025   9.144   6.386   6.005  0.6902 -1.1517 -2.1357
13363SOL     OW45026   8.732   5.576   4.591 -0.8785 -0.1502  0.4958
13363SOL    HW145027   8.685   5.555   4.511 -0.5865  0.0106  0.2818
13363SOL    HW245028   8.664   5.608   4.651 -1.1150 -0.3975  0.3612
13364SOL     OW45029   0.862   3.564   7.001 -0.0603 -0.2755  0.1480
13364SOL    HW145030   0.906   3.623   6.939 -0.6401  1.5835  1.4237
13364SOL    HW245031   0.778   3.544   6.959  0.0149  0.0509 -0.1692
13365SOL     OW45032  11.082   4.207   4.276  0.5035  0.3007 -0.1957
13365SOL    HW145033  11.142   4.215   4.350  0.8398 -3.4699  0.1403
13365SOL    HW245034  11.138   4.193   4.200  0.0929  1.4380 -0.7283
13366SOL     OW45035   9.625   2.771   3.138 -0.1213 -0.4289 -0.0251
13366SOL    HW145036   9.629   2.683   3.100 -2.6988 -0.0585 -1.3588
13366SOL    HW245037   9.591   2.826   3.068  1.3930  1.6829  0.8098
13367SOL     OW45038   1.269   0.327  10.520  0.4570 -0.4376  0.1810
13367SOL    HW145039   1.335   0.261  10.544  0.2292 -1.1419 -1.0448
13367SOL    HW245040   1.186   0.281  10.524  0.0983  0.2547  0.9933
13368SOL     OW45041   0.160   9.965   2.860  0.2476 -0.2347  0.1912
13368SOL    HW145042   0.068   9.969   2.885 -0.2993 -0.9105 -1.5375
13368SOL    HW245043   0.198  10.045   2.895 -1.5399  1.2180 -0.9977
13369SOL     OW45044   0.066   9.850   2.495 -0.1859  0.7200 -0.4258
13369SOL    HW145045   0.138   9.868   2.434 -0.2217 -1.4560 -1.1796
13369SOL    HW245046  -0.013   9.874   2.446 -0.1330  0.4128 -0.6615
13370SOL     OW45047   7.449  11.338   2.619  0.8972 -0.0914  0.1981
13370SOL    HW145048   7.466  11.419   2.667  2.0004 -0.3010  0.1900
13370SOL    HW245049   7.357  11.345   2.592  0.9910  1.1851  0.1364
13371SOL     OW45050   6.390   8.476   4.127  0.1478  0.3015 -0.0412
13371SOL    HW145051   6.446   8.455   4.052  1.2019  1.3523  0.4111
13371SOL    HW245052   6.314   8.521   4.089 -0.6250 -1.4875 -0.7041
13372SOL     OW45053   4.858   2.915   5.827 -0.0479 -0.6243 -0.9535
13372SOL    HW145054   4.833   2.822   5.832 -0.9448 -0.3979 -1.0422
13372SOL    HW245055   4.953   2.914   5.817  0.0412 -1.5149 -0.1123
13373SOL     OW45056   9.285   7.125  11.071 -0.1707 -0.3541 -0.1708
13373SOL    HW145057   9.261   7.048  11.123 -1.0361 -1.0982 -1.6027
13373SOL    HW245058   9.364   7.098  11.024  1.9183  1.0538  2.2513
13374SOL     OW45059   0.352   5.545   4.082 -0.1049  0.0155 -0.3414
13374SOL    HW145060   0.315   5.548   4.170  1.7585  0.1672  0.4884
13374SOL    HW245061   0.300   5.607   4.031 -1.2319 -0.1083  0.6260
13375SOL     OW45062   7.733   2.354   2.358  0.7489  0.4509 -0.2407
13375SOL    HW145063   7.744   2.304   2.439 -0.0648  0.4189 -0.1395
13375SOL    HW245064   7.743   2.445   2.385 -0.6871  0.5242  0.1363
13376SOL     OW45065   8.305  11.384  11.094  0.3899 -0.3260 -0.3186
13376SOL    HW145066   8.257  11.391  11.176  0.1037 -1.0638 -0.4088
13376SOL    HW245067   8.397  11.393  11.118  0.1990  1.8662 -0.2373
13377SOL     OW45068   6.495   0.491   8.287  0.0272 -0.6293 -0.0823
13377SOL    HW145069   6.538   0.455   8.210 -1.5338 -1.6048 -0.5255
13377SOL    HW245070   6.427   0.428   8.310 -1.3091  0.9268  0.4874
13378SOL     OW45071   0.908   6.388   4.429 -0.2126  0.1487 -0.1857
13378SOL    HW145072   0.828   6.439   4.418 -0.2108 -0.1715 -1.8984
13378SOL    HW245073   0.977   6.454   4.441 -0.7251  0.4203  1.5931
13379SOL     OW45074   4.117   0.058   0.641  0.1248 -0.5279  0.1396
13379SOL    HW145075   4.122   0.089   0.550 -1.0182  0.4360  0.3846
13379SOL    HW245076   4.138   0.136   0.694  1.0003 -1.1347  0.7132
13380SOL     OW45077   2.619  11.324   6.172 -0.2216  0.3398 -0.0957
13380SOL    HW145078   2.684  11.341   6.240 -1.7119  0.7771  1.2697
13380SOL    HW245079   2.657  11.361   6.092  1.8133 -0.6801  0.3367
13381SOL     OW45080   0.583   3.225   5.662  0.2078 -0.0369 -0.0959
13381SOL    HW145081   0.620   3.170   5.592 -0.5000  0.8227 -1.1818
13381SOL    HW245082   0.654   3.283   5.688 -0.2580  1.5320 -2.0900
13382SOL     OW45083   8.588   9.144  10.837  0.5982  0.0583  0.1225
13382SOL    HW145084   8.555   9.176  10.921 -0.1267 -1.6045  0.4998
13382SOL    HW245085   8.680   9.125  10.853 -0.0078 -2.3000  1.2193
13383SOL     OW45086  10.904  11.169   0.722 -0.3663 -0.3006 -0.1454
13383SOL    HW145087  10.975  11.115   0.759 -1.8100 -2.1697  0.0493
13383SOL    HW245088  10.937  11.196   0.636 -0.0931 -2.6920 -0.8570
13384SOL     OW45089   8.366   0.757  11.658 -0.3393  0.3336  0.2987
13384SOL    HW145090   8.324   0.679  11.694 -0.6286  0.8632  1.1444
13384SOL    HW245091   8.456   0.730  11.641 -0.6618 -0.4276 -0.2491
13385SOL     OW45092   0.479   5.418   7.493  0.1581  0.3221  0.2307
13385SOL    HW145093   0.509   5.501   7.531  5.7165 -1.1036 -0.3172
13385SOL    HW245094   0.483   5.355   7.565  0.8240 -0.4176 -0.4396
13386SOL     OW45095   2.355   0.095   9.958 -0.0221  0.1190  0.3492
13386SOL    HW145096   2.334   0.181   9.994 -0.8764 -0.0537  0.2869
13386SOL    HW245097   2.395   0.114   9.873  0.1839  0.4654  0.5223
13387SOL     OW45098   1.830   6.958  10.800 -0.2415  0.3265 -0.5847
13387SOL    HW145099   1.829   7.035  10.743 -2.0651 -0.2624 -1.3881
13387SOL    HW245100   1.757   6.971  10.860  0.7866  0.2478  0.7362
13388SOL     OW45101   5.176   8.255   4.318 -0.1408  0.3321 -0.3133
13388SOL    HW145102   5.202   8.344   4.294 -0.4868  0.3887 -0.4736
13388SOL    HW245103   5.112   8.230   4.252 -0.6521  0.2612  0.2007
13389SOL     OW45104   7.492   6.095   0.258  0.1201  0.2134 -0.1875
13389SOL    HW145105   7.587   6.102   0.264  0.0543  2.3213 -0.9068
13389SOL    HW245106   7.459   6.142   0.335 -0.3774 -1.7415  0.8639
13390SOL     OW45107   7.902   8.508   2.922  0.5842 -0.0549  0.2129
13390SOL    HW145108   7.843   8.486   2.849  1.1446 -1.9644  0.2914
13390SOL    HW245109   7.892   8.603   2.932  1.2954  0.5087 -3.0720
13391SOL     OW45110   6.646   6.366   2.040  0.3229 -0.6577  0.5258
13391SOL    HW145111   6.608   6.284   2.071  0.3197 -1.0719 -0.5521
13391SOL    HW245112   6.589   6.394   1.969  0.4853  0.1394  0.6971
13392SOL     OW45113   6.357   4.538   1.929 -0.7700  0.5285 -0.2946
13392SOL    HW145114   6.266   4.559   1.912 -1.2706 -2.3607 -1.8295
13392SOL    HW245115   6.395   4.520   1.843  0.8302  0.1989  0.4318
13393SOL     OW45116   0.256   7.155   2.422 -0.5826  0.4451  0.3843
13393SOL    HW145117   0.189   7.087   2.421 -1.4269  1.2568 -0.9937
13393SOL    HW245118   0.214   7.230   2.463  0.4933  0.0502  2.3206
13394SOL     OW45119   3.988   8.752   0.430 -0.3182 -0.0606  0.1191
13394SOL    HW145120   4.021   8.841   0.417  0.8890 -0.4889  0.1348
13394SOL    HW245121   4.014   8.705   0.351  1.3316 -1.0414  1.1947
13395SOL     OW45122   6.481   5.464   6.563  0.4936  0.0164 -0.1394
13395SOL    HW145123   6.397   5.423   6.586  1.3920 -1.4789  0.5774
13395SOL    HW245124   6.457   5.533   6.500 -1.3815  0.2945  0.7953
13396SOL     OW45125   1.915   3.883   5.759 -0.1373  0.2874  0.4092
13396SOL    HW145126   1.862   3.885   5.839 -0.3487  0.5143  0.2671
13396SOL    HW245127   1.869   3.942   5.699  0.6750  1.0689  0.5371
13397SOL     OW45128   9.856   3.980   0.062 -0.1976  0.4137 -0.1714
13397SOL    HW145129   9.858   3.897   0.108  0.1784  0.9857  0.8906
13397SOL    HW245130   9.885   4.044   0.127 -2.6524  1.7093 -0.2409
13398SOL     OW45131   8.814  11.293   2.741 -0.1379  0.5421  0.2317
13398SOL    HW145132   8.756  11.245   2.800  0.1800  1.6692  1.5174
13398SOL    HW245133   8.897  11.245   2.744  0.2488  1.2384  1.6925
13399SOL     OW45134   9.133   9.562   8.356  0.1413  0.6716  0.0238
13399SOL    HW145135   9.168   9.647   8.380 -1.8777  1.4841  0.2799
13399SOL    HW245136   9.055   9.551   8.410  1.3888 -2.2791  1.4959
13400SOL     OW45137   4.474   6.639   9.997  0.1135 -0.4104  0.5027
13400SOL    HW145138   4.473   6.734   9.986 -0.9203 -0.4173  0.4778
13400SOL    HW245139   4.467   6.605   9.908 -2.8457 -0.4768  0.6772
13401SOL     OW45140   3.700   4.919   7.293  0.1186 -0.7586 -0.6684
13401SOL    HW145141   3.749   4.933   7.211 -0.7611 -0.5790 -1.1767
13401SOL    HW245142   3.615   4.961   7.277  0.2851  0.1458  0.7007
13402SOL     OW45143   8.493   8.269   1.987 -0.1594  0.6593 -0.0055
13402SOL    HW145144   8.406   8.251   2.022 -0.2488  0.0734 -0.5090
13402SOL    HW245145   8.553   8.246   2.058 -0.3975  0.7559  0.2277
13403SOL     OW45146  10.237   9.049   8.628 -0.0471  0.0383  0.6285
13403SOL    HW145147  10.201   9.035   8.540 -0.2232  0.6363  0.6019
13403SOL    HW245148  10.231   9.144   8.642  1.1213  0.1045  0.7961
13404SOL     OW45149   1.164  11.079   2.398  0.1426 -0.5602 -0.3378
13404SOL    HW145150   1.249  11.075   2.355 -0.5673 -0.3183 -1.8043
13404SOL    HW245151   1.123  11.159   2.364 -0.2546 -0.0717  1.1756
13405SOL     OW45152   6.031   4.360   5.799 -0.2216 -0.5102  0.0776
13405SOL    HW145153   6.039   4.354   5.704 -0.5256 -0.2598  0.0322
13405SOL    HW245154   6.023   4.270   5.828  0.7394 -0.6439 -0.0497
13406SOL     OW45155   3.185   3.418   9.806 -0.0554  0.5588 -0.6168
13406SOL    HW145156   3.158   3.398   9.716  0.6213 -0.9941 -0.5254
13406SOL    HW245157   3.276   3.387   9.810 -0.7216 -1.3940  1.1743
13407SOL     OW45158   7.594   9.012   1.717 -0.5086 -0.1069  0.3671
13407SOL    HW145159   7.526   8.964   1.669  0.4986 -0.4693 -0.7557
13407SOL    HW245160   7.592   9.100   1.680 -0.2440 -0.1757  0.1817
13408SOL     OW45161   2.802   0.174  10.047  0.0276  0.0088  0.3911
13408SOL    HW145162   2.757   0.258  10.051  0.1252  0.0688  0.2433
13408SOL    HW245163   2.782   0.132  10.131 -2.8062 -1.2806 -0.7812
13409SOL     OW45164  11.502   8.015  11.607 -0.3018  0.5682  0.2408
13409SOL    HW145165  11.408   7.994  11.605 -0.5933  1.6901  1.3218
13409SOL    HW245166  11.507   8.097  11.655  1.1502  1.0969 -0.7583
13410SOL     OW45167   0.455   2.517   6.876 -0.3007 -0.0687  0.0347
13410SOL    HW145168   0.494   2.589   6.927 -1.7659  0.5266  0.4018
13410SOL    HW245169   0.360   2.533   6.883 -0.6627  1.5756 -4.9842
13411SOL     OW45170   0.974   1.584   0.612 -0.3999 -0.8792 -0.1935
13411SOL    HW145171   0.936   1.498   0.633  2.1430 -1.9288  0.5180
13411SOL    HW245172   1.067   1.575   0.635  0.1373  1.7817 -1.0135
13412SOL     OW45173   0.866   3.847   0.608 -0.2257  0.1242 -0.1710
13412SOL    HW145174   0.902   3.924   0.564  1.3015  0.0119  0.8167
13412SOL    HW245175   0.785   3.879   0.649 -0.2918  0.8631 -0.8621
13413SOL     OW45176  11.648   5.422   5.838  0.0442  0.2416 -0.3155
13413SOL    HW145177  11.616   5.374   5.761  0.1702 -2.6486  1.3266
13413SOL    HW245178  11.584   5.403   5.907  0.3821  2.0902  0.5705
13414SOL     OW45179   2.535   9.643   7.531  0.0984  0.1386  0.2688
13414SOL    HW145180   2.540   9.588   7.453 -1.6243  0.9018 -0.4277
13414SOL    HW245181   2.535   9.733   7.497  0.3501  0.5125  1.2262
13415SOL     OW45182   3.425   6.901  10.971 -0.1613 -0.1828  0.7085
13415SOL    HW145183   3.409   6.891  10.877 -0.9677  0.5779  0.7406
13415SOL    HW245184   3.352   6.956  11.001  1.5226  1.8783  1.2814
13416SOL     OW45185   0.306   2.701   5.702 -0.0933 -0.3329 -0.0484
13416SOL    HW145186   0.255   2.780   5.720  1.1823  0.7440 -0.9714
13416SOL    HW245187   0.392   2.733   5.676  0.8348 -2.0840  0.7126
13417SOL     OW45188   5.847   3.895   7.049 -0.9783 -0.0063 -0.1905
13417SOL    HW145189   5.929   3.944   7.051 -0.4001 -0.9729  0.4620
13417SOL    HW245190   5.782   3.955   7.087 -0.1567  0.0694  1.1654
13418SOL     OW45191   2.901   1.947   2.225 -0.0170 -0.9033 -0.2096
13418SOL    HW145192   2.904   1.994   2.142  0.0412  0.5928  0.5857
13418SOL    HW245193   2.816   1.903   2.225 -0.2323 -0.5096 -0.8509
13419SOL     OW45194   3.572   4.674   3.464 -0.3078 -0.0150  0.1299
13419SOL    HW145195   3.661   4.700   3.486 -0.0778 -1.3482  0.9463
13419SOL    HW245196   3.579   4.580   3.445 -1.2812  0.1882 -1.3321
13420SOL     OW45197   1.518   9.118  10.990  0.2599 -0.1864  0.2031
13420SOL    HW145198   1.475   9.162  11.063  1.3369  1.4668 -0.0968
13420SOL    HW245199   1.611   9.119  11.014  0.4607 -1.0104 -0.5003
13421SOL     OW45200   2.305  10.707  10.251 -0.4869 -0.0135  0.4475
13421SOL    HW145201   2.234  10.661  10.207 -0.1176  0.7989 -1.0575
13421SOL    HW245202   2.361  10.637  10.286 -1.9359 -0.6639  1.5925
13422SOL     OW45203   1.269   0.974   2.008  0.7072 -0.1186  0.1682
13422SOL    HW145204   1.179   1.005   2.022 -0.3846 -1.3137 -3.0879
13422SOL    HW245205   1.275   0.893   2.058  0.7992  1.0326  2.1367
13423SOL     OW45206   7.597   1.331   8.557  0.1686 -0.1222  0.0762
13423SOL    HW145207   7.676   1.373   8.590 -0.3237  1.0074 -0.1336
13423SOL    HW245208   7.594   1.355   8.465  0.9180 -2.2900 -0.5744
13424SOL     OW45209   3.423   4.928   8.665 -0.1846  0.1531 -0.6179
13424SOL    HW145210   3.463   4.947   8.750  0.6228 -0.6816 -0.7878
13424SOL    HW245211   3.436   5.008   8.614  3.6613 -0.8581 -1.5256
13425SOL     OW45212  11.187  10.060   3.446  0.6762 -0.2050  0.8738
13425SOL    HW145213  11.220   9.974   3.472  0.5730 -0.4990  0.0510
13425SOL    HW245214  11.093  10.057   3.466  1.1901  0.9427  4.0479
13426SOL     OW45215  10.969  10.731   8.497 -0.2878 -0.1589  0.7528
13426SOL    HW145216  10.979  10.820   8.464  0.0693 -1.0574 -1.8107
13426SOL    HW245217  10.972  10.740   8.592  3.6442  2.1785  0.6294
13427SOL     OW45218   7.673   0.577   4.040 -0.1284  0.1634  0.1557
13427SOL    HW145219   7.661   0.573   4.135 -2.2414 -0.9828 -0.1017
13427SOL    HW245220   7.584   0.586   4.005  0.3169 -2.0765 -1.7937
13428SOL     OW45221   1.840   5.646  10.011  0.5623  0.4985  0.1313
13428SOL    HW145222   1.798   5.731  10.027  1.7600  0.7727  2.1453
13428SOL    HW245223   1.878   5.622  10.095 -0.2058 -2.3247 -0.2262
13429SOL     OW45224   4.597   3.387   2.997 -0.1959  0.0050 -0.3557
13429SOL    HW145225   4.525   3.375   3.059  0.4104 -0.3555  0.2818
13429SOL    HW245226   4.553   3.414   2.916 -1.0360 -0.0336  0.0698
13430SOL     OW45227   7.204   5.949   1.369 -0.3418 -0.0937 -0.0288
13430SOL    HW145228   7.198   5.856   1.391 -1.8521 -0.1954 -0.7215
13430SOL    HW245229   7.163   5.994   1.442  0.2447  0.0282  0.2309
13431SOL     OW45230   0.412  11.478   8.172  0.0015 -0.0718 -0.0655
13431SOL    HW145231   0.428  11.559   8.220 -1.8626  1.1739 -1.4371
13431SOL    HW245232   0.379  11.417   8.238  1.4523  0.2178  0.9861
13432SOL     OW45233  10.340   1.369  10.614 -0.2977  0.4639  0.4409
13432SOL    HW145234  10.393   1.309  10.666  0.4187 -0.0762 -0.8602
13432SOL    HW245235  10.400   1.401  10.546 -0.9195  1.9408  0.5554
13433SOL     OW45236   6.057   3.221   6.837 -0.2109  0.0828  0.3722
13433SOL    HW145237   6.058   3.304   6.886 -1.6673  0.7588 -0.6506
13433SOL    HW245238   6.127   3.230   6.773  1.7856 -0.8532  2.2985
13434SOL     OW45239  10.043  10.503   5.304 -0.1104  0.7112 -0.1538
13434SOL    HW145240  10.039  10.573   5.369  0.7567  1.1640 -0.5666
13434SOL    HW245241  10.070  10.547   5.223 -2.6808  0.4427 -1.2596
13435SOL     OW45242   3.780   2.313   5.505  0.0500  0.0660  0.4936
13435SOL    HW145243   3.707   2.262   5.470  0.3563 -0.1008  0.0930
13435SOL    HW245244   3.794   2.278   5.593  0.3154 -0.5982  0.1913
13436SOL     OW45245   1.811   9.903   2.774 -0.1323 -0.0612  0.0925
13436SOL    HW145246   1.906   9.904   2.766  0.5020 -1.2062  4.7622
13436SOL    HW245247   1.784   9.817   2.743  0.1995  0.4794 -1.7868
13437SOL     OW45248   8.912   4.904   6.142  0.4063  0.2705 -0.2552
13437SOL    HW145249   9.000   4.889   6.175 -0.6418 -0.3752  2.4921
13437SOL    HW245250   8.886   4.988   6.180 -0.9246 -0.5924  0.8490
13438SOL     OW45251   0.246   6.950   5.246  0.2887 -0.0437 -0.1719
13438SOL    HW145252   0.305   6.939   5.171 -1.5021 -1.3115 -1.4693
13438SOL    HW245253   0.302   6.988   5.314  2.1135  0.6942 -1.9510
13439SOL     OW45254  11.132   8.501   6.307  0.9826 -0.4272 -0.0105
13439SOL    HW145255  11.225   8.503   6.285  0.6547  1.1351 -1.4871
13439SOL    HW245256  11.119   8.574   6.367  0.1558  1.8225 -2.7002
13440SOL     OW45257   0.927   6.406   1.243 -0.1508  0.3468  0.0578
13440SOL    HW145258   0.931   6.398   1.148 -0.5654 -1.9188  0.1811
13440SOL    HW245259   0.854   6.351   1.269  0.0029  0.8622  1.7194
13441SOL     OW45260   4.859   7.448   7.207  0.2952  0.1084  0.1120
13441SOL    HW145261   4.955   7.444   7.202  0.3750  1.3371  0.3258
13441SOL    HW245262   4.829   7.386   7.140  1.2382 -0.2829  0.0390
13442SOL     OW45263   0.961   0.111  10.008 -0.1278  0.0954 -0.1625
13442SOL    HW145264   0.928   0.095   9.919 -0.6009 -1.9291  0.3083
13442SOL    HW245265   1.008   0.194  10.002 -1.0768  0.5554 -2.0408
13443SOL     OW45266   8.915  10.856   8.415  0.0859  0.5229 -0.0848
13443SOL    HW145267   8.877  10.771   8.434  1.1174  0.2143  0.6836
13443SOL    HW245268   8.913  10.862   8.319  0.0110 -0.3720 -0.1481
13444SOL     OW45269   1.129   3.528   1.401 -0.2353  0.0511  0.7124
13444SOL    HW145270   1.059   3.474   1.438 -1.8744  0.1441 -1.9897
13444SOL    HW245271   1.140   3.495   1.312  3.2118  0.0829  0.9972
13445SOL     OW45272   8.950   3.705   8.654 -0.0172  0.0404  0.3022
13445SOL    HW145273   9.010   3.631   8.658  2.0766  1.5346 -1.1642
13445SOL    HW245274   8.909   3.708   8.740  0.6101 -2.1541  0.7311
13446SOL     OW45275   1.126   7.695   7.191  0.0391 -0.1508 -0.1446
13446SOL    HW145276   1.059   7.756   7.224 -0.5460 -1.1273  0.5116
13446SOL    HW245277   1.080   7.642   7.126  0.4257 -0.1961 -0.3818
13447SOL     OW45278   1.117   2.504   2.785  0.3357  0.4292  0.2668
13447SOL    HW145279   1.190   2.561   2.763  0.2570  0.3776 -0.1446
13447SOL    HW245280   1.041   2.545   2.744  0.0129  0.8245  1.2250
13448SOL     OW45281   5.511   7.803   6.024 -0.1171  0.2726  0.1312
13448SOL    HW145282   5.524   7.765   5.937 -0.8001 -0.6340  0.4164
13448SOL    HW245283   5.473   7.889   6.006  1.0646  0.6964 -0.5035
13449SOL     OW45284  10.591   3.479   8.573  0.1473 -0.3141  0.0079
13449SOL    HW145285  10.502   3.444   8.574 -0.1307  0.3597 -0.2438
13449SOL    HW245286  10.611   3.491   8.480  0.5204 -0.5051  0.0604
13450SOL     OW45287  11.110  10.939   1.408  0.4068 -0.5484  0.2379
13450SOL    HW145288  11.078  10.893   1.330  1.4299  0.5326 -0.8496
13450SOL    HW245289  11.170  10.878   1.450  0.5439 -0.8047 -0.3274
13451SOL     OW45290   4.513   4.949   1.092  0.6961 -0.4957 -0.2731
13451SOL    HW145291   4.435   4.903   1.061  0.3798 -0.0117 -0.2125
13451SOL    HW245292   4.485   4.989   1.175  0.6614  0.6216 -0.8082
13452SOL     OW45293   2.564  11.538   0.385  0.6881 -0.0630  0.5129
13452SOL    HW145294   2.525  11.564   0.302  3.9155  0.7582 -0.9272
13452SOL    HW245295   2.610  11.617   0.415  1.0922 -0.8727  2.1396
13453SOL     OW45296   8.429   8.638   9.109 -0.1602  0.3753  0.0546
13453SOL    HW145297   8.439   8.552   9.069  0.3152 -0.4538  1.8702
13453SOL    HW245298   8.483   8.696   9.055 -0.4699 -0.4445 -1.1753
13454SOL     OW45299   1.845   6.005  10.754 -0.4592  0.5908  0.4011
13454SOL    HW145300   1.918   6.051  10.712 -0.6610  1.4356  0.9552
13454SOL    HW245301   1.851   5.915  10.720  0.2565  0.8858 -0.2965
13455SOL     OW45302   7.774   6.157   6.951 -0.2984  0.4598 -0.9346
13455SOL    HW145303   7.774   6.175   6.857 -0.7226  2.0172 -0.6658
13455SOL    HW245304   7.756   6.242   6.991 -1.7946 -0.4917  0.4954
13456SOL     OW45305   6.905   6.184  10.651 -0.7636  0.9913 -0.2485
13456SOL    HW145306   6.995   6.209  10.630  0.1060 -0.9585  0.8102
13456SOL    HW245307   6.895   6.207  10.743 -0.5055 -0.7699  0.2746
13457SOL     OW45308   6.851  10.569   2.419 -0.1425 -0.0509 -0.7208
13457SOL    HW145309   6.940  10.588   2.389 -0.3607  1.9068 -0.2508
13457SOL    HW245310   6.859  10.558   2.514 -0.1874 -1.4897 -0.8564
13458SOL     OW45311   5.323   6.281  10.145 -0.9136 -0.0254  0.1060
13458SOL    HW145312   5.322   6.202  10.199  0.4999  0.7752  1.3666
13458SOL    HW245313   5.416   6.303  10.136 -1.1288  0.2663 -2.1150
13459SOL     OW45314   9.124   6.085   6.506  0.9180  0.0503 -0.2226
13459SOL    HW145315   9.129   6.149   6.436  0.4073  0.7141  0.3256
13459SOL    HW245316   9.119   6.137   6.586  0.5843 -0.6729  0.2415
13460SOL     OW45317   4.226  10.905   3.605 -0.3317  0.4414 -0.5447
13460SOL    HW145318   4.248  10.997   3.611  1.4111 -0.0219  1.5975
13460SOL    HW245319   4.214  10.888   3.511 -0.8995  2.8406 -0.9508
13461SOL     OW45320   0.190   5.663   6.055 -0.1229  0.1894  0.2802
13461SOL    HW145321   0.158   5.667   5.965  1.6453  0.5791 -0.3749
13461SOL    HW245322   0.111   5.666   6.109 -1.1742  0.9362 -1.2356
13462SOL     OW45323   8.271   3.568   1.586 -0.1184 -0.2551  0.5709
13462SOL    HW145324   8.335   3.503   1.558  0.4008  0.4085  0.1919
13462SOL    HW245325   8.188   3.537   1.550 -0.4575 -2.2473  2.7901
13463SOL     OW45326   2.191   9.779   0.934  0.3654 -0.2094 -0.0291
13463SOL    HW145327   2.201   9.819   0.848 -0.3196 -0.5540 -0.2751
13463SOL    HW245328   2.123   9.713   0.922 -1.6937  1.4979  1.3448
13464SOL     OW45329   3.740   9.068   7.331 -0.2351  0.5366  0.0750
13464SOL    HW145330   3.804   9.007   7.367  1.5237  2.2894  0.0488
13464SOL    HW245331   3.662   9.056   7.385  0.8287 -0.0994  1.5271
13465SOL     OW45332   5.266   4.402   3.481  0.2905 -0.0015 -0.0994
13465SOL    HW145333   5.227   4.429   3.564  0.6640 -0.9081  0.3792
13465SOL    HW245334   5.212   4.445   3.414  0.5465  1.4827  0.6135
13466SOL     OW45335   0.614  11.298   7.858 -0.3760  0.1423 -0.0229
13466SOL    HW145336   0.594  11.386   7.889 -0.6998  0.0771 -0.0525
13466SOL    HW245337   0.530  11.260   7.834 -0.0603  0.5051 -1.8729
13467SOL     OW45338  11.669  11.675   5.825  0.3423  0.8054 -0.1211
13467SOL    HW145339  11.663  11.702   5.917  2.2262  0.1610  0.2293
13467SOL    HW245340  11.679  11.758   5.777  1.1925  1.0418  0.4478
13468SOL     OW45341   1.618   8.389  11.418  0.4397  0.3247 -0.6198
13468SOL    HW145342   1.677   8.429  11.482 -0.8725 -0.6243  1.2693
13468SOL    HW245343   1.632   8.295  11.428 -1.0976  0.0927 -0.3858
13469SOL     OW45344   1.470   5.487   6.290 -0.3279  0.4506  0.5319
13469SOL    HW145345   1.472   5.553   6.360  0.0842 -0.7004  1.6408
13469SOL    HW245346   1.411   5.420   6.323 -1.7978  0.8546 -1.1755
13470SOL     OW45347   2.914   9.018   4.911 -0.7324 -0.6654 -0.3925
13470SOL    HW145348   2.875   9.027   4.824 -0.4825 -0.1478 -0.4492
13470SOL    HW245349   3.007   9.033   4.898 -0.4058 -2.3801 -0.3383
13471SOL     OW45350   6.805   2.929   0.192 -0.0338 -0.1657  0.2331
13471SOL    HW145351   6.883   2.966   0.151 -0.4448  1.6025  0.9370
13471SOL    HW245352   6.763   2.878   0.123  0.9268  0.1619 -0.6109
13472SOL     OW45353   5.721   7.995  10.249  0.5759  0.1934 -0.4201
13472SOL    HW145354   5.666   7.951  10.184 -2.6496  2.4471  0.5271
13472SOL    HW245355   5.703   8.088  10.237  1.9105  0.8636  1.9965
13473SOL     OW45356   3.898   1.802   4.332  0.2501 -0.1764  0.7467
13473SOL    HW145357   3.993   1.815   4.331  0.1677  0.4864  0.8958
13473SOL    HW245358   3.887   1.708   4.342  0.9008 -0.6702 -2.3037
13474SOL     OW45359   1.501   3.586   0.659 -0.0916 -0.4820 -0.8443
13474SOL    HW145360   1.595   3.603   0.658 -0.1982  0.1139 -1.2580
13474SOL    HW245361   1.471   3.617   0.574 -0.9746  1.0657  0.0032
13475SOL     OW45362   8.549   7.561   8.348  0.0610 -0.2691 -0.5229
13475SOL    HW145363   8.626   7.601   8.308 -0.2966 -1.0260 -2.0796
13475SOL    HW245364   8.479   7.625   8.335  0.3700  0.3384  0.7231
13476SOL     OW45365   4.851   9.236   3.534  0.5354  0.2836  0.1422
13476SOL    HW145366   4.832   9.329   3.549  2.0098  0.5855  0.2490
13476SOL    HW245367   4.866   9.201   3.621 -3.3435 -0.9047  0.5120
13477SOL     OW45368   9.388   4.917  10.694  0.1151 -0.0982 -0.3254
13477SOL    HW145369   9.469   4.881  10.660  0.0047 -0.3462 -0.3249
13477SOL    HW245370   9.327   4.913  10.621  0.7179  2.1631 -1.0390
13478SOL     OW45371   3.145   1.502   7.277 -0.2692  0.0071  0.0380
13478SOL    HW145372   3.085   1.538   7.342 -0.3869  1.1724 -0.7014
13478SOL    HW245373   3.108   1.416   7.255 -0.2067 -0.4225  1.5138
13479SOL     OW45374   2.597   0.281   5.556  0.1542  0.1728 -0.3597
13479SOL    HW145375   2.575   0.366   5.518 -0.4049 -0.4011 -1.3669
13479SOL    HW245376   2.516   0.251   5.597  0.2764  0.0134 -0.2325
13480SOL     OW45377   5.867   1.550   2.913 -0.3163 -0.2908  0.1474
13480SOL    HW145378   5.846   1.596   2.831  0.4002 -1.7976 -0.9280
13480SOL    HW245379   5.961   1.532   2.906 -0.0245  0.4444  1.7975
13481SOL     OW45380   4.896   1.379   6.681 -0.1570  0.2842  0.2999
13481SOL    HW145381   4.810   1.401   6.644 -1.3701 -0.7341  2.3183
13481SOL    HW245382   4.903   1.284   6.669  0.7637  0.3749  0.0510
13482SOL     OW45383   3.699   0.491   2.826 -0.1683  0.2493 -0.6385
13482SOL    HW145384   3.702   0.399   2.854  1.6618  0.0221 -1.4137
13482SOL    HW245385   3.789   0.510   2.799 -0.8430  1.8352 -1.9117
13483SOL     OW45386   9.467   2.468   5.393 -0.1014 -0.0453 -0.6478
13483SOL    HW145387   9.496   2.420   5.470  0.8309  1.2416 -0.1753
13483SOL    HW245388   9.373   2.451   5.388  0.1299 -1.5396 -0.2500
13484SOL     OW45389   5.161   0.771   9.967 -0.3615  0.0467 -0.3115
13484SOL    HW145390   5.120   0.755   9.882 -1.7220  0.8728  0.1718
13484SOL    HW245391   5.255   0.765   9.949 -0.6417 -1.2725 -1.5563
13485SOL     OW45392   8.169   0.768   7.744  0.8176  0.0144  0.8978
13485SOL    HW145393   8.120   0.769   7.661  0.4294  3.5886  1.0294
13485SOL    HW245394   8.108   0.728   7.806  0.3933 -1.0145 -0.1229
13486SOL     OW45395  11.399   5.831   0.572  0.3058 -0.2294  0.0802
13486SOL    HW145396  11.358   5.771   0.510 -0.4575  0.4886 -0.1218
13486SOL    HW245397  11.412   5.779   0.652  1.2738 -1.1524 -0.6524
13487SOL     OW45398   5.508   6.910   1.901 -0.3183  0.4935  0.4942
13487SOL    HW145399   5.595   6.889   1.936 -0.1671  1.4279  0.7166
13487SOL    HW245400   5.453   6.837   1.928  0.6204 -0.6584 -0.5729
13488SOL     OW45401   7.718   7.257   7.326  0.6454  0.3879  0.2919
13488SOL    HW145402   7.761   7.340   7.307  0.8498  0.3003  0.3683
13488SOL    HW245403   7.684   7.266   7.415  0.4060  0.4975  0.1911
13489SOL     OW45404   3.419   8.505   7.826  0.3834 -0.4124 -0.5544
13489SOL    HW145405   3.402   8.579   7.767  0.8035  1.0781  1.1103
13489SOL    HW245406   3.334   8.465   7.840 -0.0639  0.4907 -0.5814
13490SOL     OW45407   4.915   0.634  11.062 -0.6437 -0.1463 -0.7999
13490SOL    HW145408   4.873   0.557  11.101 -2.0282  0.6080 -0.7202
13490SOL    HW245409   4.846   0.673  11.008 -0.0241  1.1337 -0.7000
13491SOL     OW45410   9.961   6.358  11.637 -0.0236  0.0515  0.0933
13491SOL    HW145411   9.901   6.291  11.670  0.2622  0.3782  1.3580
13491SOL    HW245412  10.043   6.342  11.683  0.6548  0.0505 -1.0888
13492SOL     OW45413   8.627   3.118   2.684  0.5808  0.4818  0.0456
13492SOL    HW145414   8.704   3.063   2.665  0.5988  0.1482  1.0376
13492SOL    HW245415   8.553   3.062   2.661  0.5708 -0.3782  2.0139
13493SOL     OW45416   4.280   3.672   9.850  0.3182 -0.2578 -0.5298
13493SOL    HW145417   4.329   3.683   9.768 -1.4343  0.4266 -1.5455
13493SOL    HW245418   4.310   3.744   9.906  0.1849  0.4023 -1.2886
13494SOL     OW45419   3.946   3.879   9.200 -0.4231  0.2771  0.3058
13494SOL    HW145420   4.020   3.839   9.245  0.0827  0.5229 -0.2957
13494SOL    HW245421   3.878   3.811   9.200 -0.2361  0.0853  0.9378
13495SOL     OW45422   4.155   4.727   8.208  0.1071 -0.0172  0.1938
13495SOL    HW145423   4.191   4.756   8.292  1.3941 -1.1663  0.0767
13495SOL    HW245424   4.104   4.649   8.229  0.7300 -0.5189 -0.1194
13496SOL     OW45425   7.601  10.509   4.849  0.0970 -0.2468 -0.0080
13496SOL    HW145426   7.557  10.593   4.840  0.4843 -0.1808 -1.6080
13496SOL    HW245427   7.594  10.468   4.763 -0.9026 -2.2934  0.9712
13497SOL     OW45428   3.899  11.050  11.078  0.7786  0.0635  0.2127
13497SOL    HW145429   3.897  11.102  10.998  1.4609  0.6215  0.5544
13497SOL    HW245430   3.932  11.109  11.145  0.7272 -0.5574  0.7975
13498SOL     OW45431   1.554   0.687   0.771 -0.0641  0.2854 -0.0981
13498SOL    HW145432   1.566   0.594   0.788  1.0282  0.7035  1.7766
13498SOL    HW245433   1.525   0.692   0.680  0.7127 -1.8197 -0.5153
13499SOL     OW45434   5.288   0.460   3.842  0.4551 -0.3605 -0.7193
13499SOL    HW145435   5.218   0.492   3.786  0.2325  0.1445 -0.1617
13499SOL    HW245436   5.296   0.368   3.820 -0.8097 -0.5771 -0.3487
13500SOL     OW45437   4.596   5.453   7.182 -0.0959  0.0114 -0.0572
13500SOL    HW145438   4.649   5.399   7.123 -0.9957  0.3615 -1.2207
13500SOL    HW245439   4.656   5.521   7.213  0.3087  0.0179 -0.8356
13501SOL     OW45440   5.361   7.039   9.675 -0.7396  0.3988  0.6181
13501SOL    HW145441   5.394   7.083   9.597 -1.9147  0.5345  0.1810
13501SOL    HW245442   5.266   7.047   9.670 -0.9572 -1.3517  1.0139
13502SOL     OW45443   4.741   7.831   3.970 -1.0397  0.4013  0.4130
13502SOL    HW145444   4.799   7.855   3.898 -1.6530  0.8983  0.0793
13502SOL    HW245445   4.741   7.735   3.971  0.8222  0.3675  1.2584
13503SOL     OW45446   3.336  10.393   3.479 -0.3048  0.1503 -0.2137
13503SOL    HW145447   3.320  10.299   3.476  0.6270 -0.0046 -1.4235
13503SOL    HW245448   3.263  10.429   3.530 -0.2124 -1.3044  1.0115
13504SOL     OW45449   8.948   9.990  10.573  0.4307 -0.2182  0.0891
13504SOL    HW145450   9.030  10.025  10.608  1.0199 -1.0758 -0.3961
13504SOL    HW245451   8.886   9.996  10.646  0.8407  0.7068  0.3710
13505SOL     OW45452   4.929   9.151   7.108  0.5573 -0.0212 -0.7061
13505SOL    HW145453   4.996   9.134   7.041  1.3088 -1.3975  0.3565
13505SOL    HW245454   4.978   9.180   7.184 -0.1146 -0.3886 -0.1209
13506SOL     OW45455   7.412   8.778   3.764  0.4479 -0.1594  0.4514
13506SOL    HW145456   7.322   8.811   3.755  0.4370  0.3079  2.1012
13506SOL    HW245457   7.424   8.722   3.687 -1.3708 -0.4952  0.3629
13507SOL     OW45458   0.053   7.842   2.157  0.0688  0.1081  0.1349
13507SOL    HW145459   0.130   7.896   2.137  1.3836 -1.6681  0.1596
13507SOL    HW245460   0.085   7.778   2.221 -1.1883 -1.2524 -0.5492
13508SOL     OW45461   7.474   3.832   5.399 -0.1563  0.2138 -0.3014
13508SOL    HW145462   7.469   3.740   5.428 -0.1383  0.7944  1.6676
13508SOL    HW245463   7.394   3.845   5.347 -1.2182 -0.3727  1.1188
13509SOL     OW45464   8.418   7.536   2.111  0.0761  0.0574 -0.2431
13509SOL    HW145465   8.507   7.570   2.103 -0.1783  0.5217 -1.3346
13509SOL    HW245466   8.411   7.471   2.041 -0.5840  0.3826 -0.4925
13510SOL     OW45467  11.252  10.867   4.009  0.0960 -0.5889  0.6221
13510SOL    HW145468  11.231  10.959   3.992  2.4714 -0.0277  0.3692
13510SOL    HW245469  11.291  10.836   3.928 -2.6888 -2.5664 -0.1000
13511SOL     OW45470   0.863   9.565   8.677  0.0890  0.7208 -0.3362
13511SOL    HW145471   0.840   9.658   8.674 -0.5072  0.5963  0.1285
13511SOL    HW245472   0.862   9.537   8.586  0.7493  1.2804 -0.5201
13512SOL     OW45473   3.026  11.605   8.639 -0.6546  0.1652  0.0558
13512SOL    HW145474   2.943  11.574   8.603 -0.3321 -1.2972  0.4929
13512SOL    HW245475   3.079  11.627   8.562 -0.5319 -1.4203 -0.3525
13513SOL     OW45476   2.774   8.962   2.070 -0.1850  0.2554 -0.3519
13513SOL    HW145477   2.725   8.934   2.147  1.7465 -0.9329  0.5272
13513SOL    HW245478   2.853   8.908   2.071  0.8853  1.6764 -1.9947
13514SOL     OW45479   4.855   6.173   2.672 -0.3560 -0.5780  0.0804
13514SOL    HW145480   4.918   6.101   2.684  0.7494  0.6117  1.8359
13514SOL    HW245481   4.787   6.135   2.616  0.0867 -3.0727  1.0626
13515SOL     OW45482   3.198   9.397   8.931  0.2366 -0.2713  1.0248
13515SOL    HW145483   3.204   9.491   8.919  1.8894 -0.5002 -0.2485
13515SOL    HW245484   3.209   9.384   9.025  0.0856  0.7981  1.1981
13516SOL     OW45485   4.899   7.340   5.987  0.0254 -0.3635  0.2518
13516SOL    HW145486   4.843   7.401   6.034  1.3322  1.3451 -0.2986
13516SOL    HW245487   4.855   7.328   5.903  0.1958  0.5612  0.0164
13517SOL     OW45488   6.819  11.557   0.693  0.0650 -0.4160  0.3843
13517SOL    HW145489   6.887  11.490   0.698  0.6076  0.2216  2.0781
13517SOL    HW245490   6.867  11.640   0.698 -0.6997  0.0963 -0.4112
13518SOL     OW45491   5.778   2.376   8.467 -0.3081  0.6981 -0.1729
13518SOL    HW145492   5.687   2.391   8.490  0.1560  0.1192  2.3798
13518SOL    HW245493   5.781   2.284   8.440 -0.3458  0.4657  0.5997
13519SOL     OW45494   6.453  10.589  11.222  0.6152  0.5417 -0.8265
13519SOL    HW145495   6.538  10.595  11.266 -0.1557  0.8974  0.7167
13519SOL    HW245496   6.435  10.678  11.192  0.2204  0.7700  0.0395
13520SOL     OW45497   0.548   8.663   9.719 -0.3018 -0.0526  0.1783
13520SOL    HW145498   0.463   8.684   9.680 -0.1246  1.4502  0.5242
13520SOL    HW245499   0.610   8.719   9.673  0.3772 -0.4957  0.5338
13521SOL     OW45500   3.604   8.815   1.830  0.3050 -0.6284  0.0556
13521SOL    HW145501   3.623   8.721   1.829  2.1760 -0.2992 -0.1109
13521SOL    HW245502   3.511   8.821   1.850 -0.1332 -2.5405 -1.2088
13522SOL     OW45503   7.512   5.477   5.371  0.1866  0.6291 -0.3094
13522SOL    HW145504   7.522   5.389   5.409 -0.1438  1.0187  0.6992
13522SOL    HW245505   7.602   5.504   5.351  0.4401  0.6766  0.8167
13523SOL     OW45506   1.149   7.483   9.041  0.2426 -0.8492 -0.5347
13523SOL    HW145507   1.121   7.420   8.975  0.5734 -1.6060  0.0292
13523SOL    HW245508   1.206   7.433   9.099 -1.0494 -0.5729  1.0724
13524SOL     OW45509   5.640  11.667  10.531 -0.0318  0.7067 -0.0582
13524SOL    HW145510   5.595  11.749  10.512 -0.5702  0.2474 -0.8546
13524SOL    HW245511   5.671  11.676  10.621 -0.1663  1.7383 -0.1119
13525SOL     OW45512   7.831  10.581   2.723 -0.4399 -0.8598 -0.1052
13525SOL    HW145513   7.744  10.542   2.732 -0.6044 -0.5209 -0.1737
13525SOL    HW245514   7.886  10.512   2.688 -1.1925 -0.4741 -2.1776
13526SOL     OW45515   7.167   2.187   6.600 -0.0600  0.4488  0.4878
13526SOL    HW145516   7.190   2.277   6.576  0.7066  0.0959 -0.1543
13526SOL    HW245517   7.230   2.164   6.669  1.1036 -0.2725 -0.7651
13527SOL     OW45518   4.488   9.679   6.349  0.1013 -0.1240  0.2738
13527SOL    HW145519   4.439   9.740   6.294  0.1207  0.7453  1.1958
13527SOL    HW245520   4.429   9.659   6.421 -0.0382 -1.4998 -0.2060
13528SOL     OW45521   0.460   8.256   1.047 -0.6954  0.4594  0.1843
13528SOL    HW145522   0.396   8.226   0.983  1.0705 -0.1962 -1.3781
13528SOL    HW245523   0.507   8.177   1.073  0.6939  1.1391 -0.1504
13529SOL     OW45524   2.393   9.717   3.331 -0.0968  0.1963  0.4039
13529SOL    HW145525   2.387   9.642   3.272  0.5098  1.7034 -1.6546
13529SOL    HW245526   2.334   9.695   3.403 -1.1460 -1.5635 -0.9140
13530SOL     OW45527   5.265   4.847  10.827 -0.7690 -0.5655 -0.2263
13530SOL    HW145528   5.234   4.825  10.740 -1.8757 -0.3732  0.1003
13530SOL    HW245529   5.247   4.940  10.837 -0.9912 -0.6592  0.3322
13531SOL     OW45530  11.088   6.149  10.894  0.3127 -0.2732  0.3147
13531SOL    HW145531  11.131   6.233  10.904  0.2172 -0.3491  1.4859
13531SOL    HW245532  11.157   6.089  10.867  0.5454  0.0036  0.2967
13532SOL     OW45533   1.980  10.573   7.297  0.0567  0.2199  0.5418
13532SOL    HW145534   1.949  10.658   7.266 -1.0082 -1.0128 -2.0608
13532SOL    HW245535   2.031  10.594   7.375 -0.2569  3.2263  0.0856
13533SOL     OW45536   9.373   8.798  11.057  0.0110 -0.1697 -0.6970
13533SOL    HW145537   9.464   8.823  11.038  0.0065  0.0459 -0.4423
13533SOL    HW245538   9.379   8.712  11.097  0.2287  0.4691  0.7025
13534SOL     OW45539  10.226  10.791   1.616  0.2003  0.3070  0.5164
13534SOL    HW145540  10.131  10.806   1.616  0.1409  0.1316 -0.9941
13534SOL    HW245541  10.238  10.710   1.566  1.1291  0.1509  0.9703
13535SOL     OW45542   5.457   3.850   6.392  0.4390  0.4228  0.1508
13535SOL    HW145543   5.444   3.845   6.297  1.2065  0.7901  0.0241
13535SOL    HW245544   5.490   3.938   6.408  1.2833  0.0340  0.6398
13536SOL     OW45545   4.500   2.412   5.741 -0.0748  0.0088  0.3839
13536SOL    HW145546   4.444   2.356   5.795 -0.3343 -0.3965 -0.2942
13536SOL    HW245547   4.563   2.351   5.702  2.0258  0.6455  2.5026
13537SOL     OW45548   0.950   6.970   2.603  0.5664 -0.3228 -0.3958
13537SOL    HW145549   0.896   7.044   2.629 -1.5499 -1.2922 -1.7399
13537SOL    HW245550   1.039   6.997   2.623 -0.3173  1.6508  1.2565
13538SOL     OW45551  10.392   4.723   2.401 -0.2094  0.4156 -0.1293
13538SOL    HW145552  10.441   4.754   2.325  1.7097 -0.4355  0.6855
13538SOL    HW245553  10.431   4.768   2.476 -1.0545  0.1288  0.5083
13539SOL     OW45554   9.228   1.741   9.683 -0.0381  0.3646 -0.3330
13539SOL    HW145555   9.226   1.828   9.720  1.5447  0.4795 -0.4406
13539SOL    HW245556   9.243   1.755   9.589 -1.0280 -0.0061 -0.5647
13540SOL     OW45557   3.267   0.952   0.748  0.6241  0.0427  0.4704
13540SOL    HW145558   3.360   0.958   0.728  0.8232 -1.5744  0.7696
13540SOL    HW245559   3.261   0.885   0.817 -0.8199 -0.4442 -0.0765
13541SOL     OW45560   0.862   1.271   3.191  0.4063  0.2449  0.2992
13541SOL    HW145561   0.942   1.289   3.142  1.2316 -0.8315  1.2107
13541SOL    HW245562   0.891   1.260   3.282 -0.9163  0.8785  0.8198
13542SOL     OW45563   0.447   7.260   3.598  0.4893 -0.2540  0.5288
13542SOL    HW145564   0.374   7.205   3.628  0.4953 -0.7509 -0.3387
13542SOL    HW245565   0.463   7.232   3.508  0.5181  1.1409  0.0646
13543SOL     OW45566   1.688   6.923   5.215  0.0147  0.1647 -0.4406
13543SOL    HW145567   1.664   6.830   5.223  0.3643  0.1675  0.8082
13543SOL    HW245568   1.777   6.922   5.180  0.7584 -0.0620  1.3340
13544SOL     OW45569   4.870   6.391   0.551 -0.7240 -0.1944 -0.0361
13544SOL    HW145570   4.811   6.398   0.476 -0.5364 -0.7751 -0.2463
13544SOL    HW245571   4.939   6.455   0.533 -0.9778  0.0663 -0.0818
13545SOL     OW45572   6.693   8.458   5.832 -0.5666 -0.3487  0.1871
13545SOL    HW145573   6.704   8.552   5.822  0.5163 -0.5454 -0.7100
13545SOL    HW245574   6.628   8.448   5.901 -2.7683  1.0912 -1.5566
13546SOL     OW45575   8.779  10.539   7.999  0.4712  0.2087  0.0248
13546SOL    HW145576   8.749  10.602   8.064  1.7935 -1.0674  1.9396
13546SOL    HW245577   8.716  10.549   7.927 -1.1300  1.5669  1.5058
13547SOL     OW45578   8.213   6.722  11.000  0.0964  0.2112 -0.7089
13547SOL    HW145579   8.150   6.770  11.054  0.4922 -1.2664  1.1829
13547SOL    HW245580   8.298   6.748  11.035  0.5348  1.2071 -2.4004
13548SOL     OW45581   0.791   0.310   9.504  0.6355 -0.6092 -0.0258
13548SOL    HW145582   0.744   0.322   9.587  1.0622 -1.6388  0.3885
13548SOL    HW245583   0.836   0.393   9.489 -0.9149  0.2241 -0.1838
13549SOL     OW45584   6.062   2.573   4.520  0.3949  0.0182  0.1241
13549SOL    HW145585   6.056   2.514   4.444  1.7619 -0.8051  0.6174
13549SOL    HW245586   6.086   2.515   4.592 -1.8047  0.6298  1.4325
13550SOL     OW45587   4.931  11.667   2.516 -0.2426  0.4600 -0.2943
13550SOL    HW145588   4.948  11.744   2.462 -0.7398 -0.6108 -2.0860
13550SOL    HW245589   5.011  11.615   2.508 -0.5020  0.0748 -0.4174
13551SOL     OW45590   5.812  11.214   3.121  0.0611 -0.3825 -0.0476
13551SOL    HW145591   5.768  11.290   3.084 -2.0071 -1.9529 -1.0191
13551SOL    HW245592   5.895  11.209   3.074 -0.4865  0.3657 -1.1335
13552SOL     OW45593   6.607   8.824  10.222  0.5118  0.5318 -0.1435
13552SOL    HW145594   6.699   8.807  10.203  0.6270  1.0233 -0.0381
13552SOL    HW245595   6.564   8.740  10.206  1.1859 -0.1059  1.1700
13553SOL     OW45596   1.541   2.600   8.906  0.2459  0.1689 -0.3243
13553SOL    HW145597   1.497   2.603   8.821  0.1947 -0.5762 -0.3337
13553SOL    HW245598   1.575   2.511   8.913 -0.2060  0.0512  0.6604
13554SOL     OW45599   1.300   8.694   2.232 -0.4561  0.2740 -0.4051
13554SOL    HW145600   1.380   8.643   2.221 -0.6285  0.0612 -0.6859
13554SOL    HW245601   1.232   8.629   2.246 -0.8775  0.3582 -1.9345
13555SOL     OW45602   2.427   7.153   6.718  0.1329  0.5744  0.4112
13555SOL    HW145603   2.459   7.110   6.798 -0.3250 -0.4089  0.0884
13555SOL    HW245604   2.353   7.098   6.690  0.9937  0.2332 -1.3219
13556SOL     OW45605   7.490   3.127   4.417 -0.0666 -0.2625  0.3139
13556SOL    HW145606   7.514   3.085   4.334  0.1537 -1.2035  0.8393
13556SOL    HW245607   7.462   3.215   4.392  0.5413 -0.3399 -0.6969
13557SOL     OW45608   3.529   8.155   7.497 -0.3856  0.4135 -0.2931
13557SOL    HW145609   3.435   8.160   7.476 -1.1467 -1.3971  2.1493
13557SOL    HW245610   3.555   8.246   7.511 -1.5198  1.0355 -1.9450
13558SOL     OW45611   3.644   4.820   6.510  0.2650 -0.2722  0.1602
13558SOL    HW145612   3.611   4.768   6.584  1.2532 -2.7056 -0.9830
13558SOL    HW245613   3.732   4.847   6.536  0.4296 -0.7264  0.0925
13559SOL     OW45614   1.958   1.451   1.215 -0.3997 -0.6503 -0.4501
13559SOL    HW145615   2.028   1.500   1.172  0.7868 -2.6201 -0.8741
13559SOL    HW245616   1.879   1.504   1.200  0.7384  0.9603 -1.1043
13560SOL     OW45617  11.192   5.757   8.206  0.4594  0.1267  0.8348
13560SOL    HW145618  11.247   5.693   8.251 -0.0520 -0.0960  1.1505
13560SOL    HW245619  11.107   5.713   8.197  0.1447  0.7066  0.9334
13561SOL     OW45620   5.322   9.695   3.784 -0.3923  1.0429  0.4793
13561SOL    HW145621   5.341   9.656   3.698  0.4058  2.0582  0.1669
13561SOL    HW245622   5.322   9.621   3.844 -0.3120  0.3875 -0.3037
13562SOL     OW45623   3.052  11.521   0.277  0.5652  0.3924  0.2641
13562SOL    HW145624   2.963  11.498   0.251  0.8066  0.5781 -0.7998
13562SOL    HW245625   3.059  11.493   0.368 -1.5861  3.1517  1.4138
13563SOL     OW45626  10.699   6.457   7.625 -0.4689 -0.3873 -0.0694
13563SOL    HW145627  10.702   6.503   7.709 -0.9516 -0.3362 -0.0757
13563SOL    HW245628  10.691   6.365   7.648 -0.1207 -0.4154 -0.0585
13564SOL     OW45629   1.982   0.424   1.955  0.1417 -0.0340  0.0819
13564SOL    HW145630   1.925   0.445   2.029 -0.1583 -0.3867 -0.0445
13564SOL    HW245631   1.948   0.341   1.922  1.2642 -0.6934  0.5363
13565SOL     OW45632   6.526   4.313   5.651 -0.0418  0.6937  0.4311
13565SOL    HW145633   6.442   4.330   5.695 -0.3493 -0.5292  0.3838
13565SOL    HW245634   6.552   4.397   5.615 -1.7859  0.9057 -0.4573
13566SOL     OW45635   2.965   4.535   4.213 -0.5927 -0.2195  0.0327
13566SOL    HW145636   2.905   4.597   4.254  0.5072  1.6009 -0.9861
13566SOL    HW245637   2.962   4.557   4.120 -0.4983 -2.0146 -0.4249
13567SOL     OW45638   9.109   6.913   9.626 -0.0189 -0.1582  0.4219
13567SOL    HW145639   9.039   6.961   9.669  1.1578  2.1642 -0.0939
13567SOL    HW245640   9.121   6.958   9.542  0.7462 -1.7630 -0.3778
13568SOL     OW45641   8.157   7.439   3.397  0.4607  0.6975  0.6886
13568SOL    HW145642   8.138   7.516   3.451 -2.5672  1.5034 -1.2706
13568SOL    HW245643   8.182   7.475   3.312  1.5364 -0.5264  0.4615
13569SOL     OW45644   3.070   8.771   8.194  0.4422 -0.2360 -0.5118
13569SOL    HW145645   3.148   8.774   8.138 -1.5979 -0.0383 -3.5629
13569SOL    HW245646   3.032   8.685   8.178  0.1460 -0.4687  1.2244
13570SOL     OW45647  11.455   0.686  11.302  0.3869  0.0156  0.2276
13570SOL    HW145648  11.452   0.751  11.371  0.7915 -0.4306  0.6722
13570SOL    HW245649  11.535   0.636  11.319  0.1333 -0.5341 -0.1542
13571SOL     OW45650   2.757   9.262   5.991  0.4253  1.0261 -0.5020
13571SOL    HW145651   2.765   9.215   5.908 -1.4023  0.0259 -0.1628
13571SOL    HW245652   2.817   9.217   6.050 -0.6033 -0.3245 -0.4401
13572SOL     OW45653   2.254   2.369   3.377  0.5316 -0.4637 -0.4377
13572SOL    HW145654   2.168   2.331   3.389 -0.1426  0.5933 -1.6686
13572SOL    HW245655   2.265   2.428   3.452 -0.1291 -0.0552 -0.6587
13573SOL     OW45656   5.762   2.855   7.812 -0.4151 -1.0968 -0.6828
13573SOL    HW145657   5.798   2.885   7.728 -1.1643 -1.3632 -1.1082
13573SOL    HW245658   5.837   2.852   7.871 -0.2448  1.4013 -0.6730
13574SOL     OW45659   6.899   2.879   0.811 -0.0804 -0.3160 -0.0153
13574SOL    HW145660   6.954   2.885   0.889 -0.6369 -0.6018  0.4127
13574SOL    HW245661   6.955   2.906   0.739 -0.2046  2.3318  0.7671
13575SOL     OW45662   6.254   4.316   0.055 -0.0968  0.1610 -0.2522
13575SOL    HW145663   6.245   4.325  -0.040  7.7975  0.6381 -1.6958
13575SOL    HW245664   6.284   4.226   0.067  2.3391  1.0404  1.0132
13576SOL     OW45665   3.778   9.403  10.936  0.7166  0.0507 -0.0403
13576SOL    HW145666   3.730   9.409  10.853  2.0328  0.7083 -0.7849
13576SOL    HW245667   3.806   9.311  10.940 -2.5144 -1.0102  1.5771
13577SOL     OW45668   7.993   9.979   9.858 -0.0999  0.0131 -0.1325
13577SOL    HW145669   8.008  10.032   9.780  0.2363  0.6252  0.3439
13577SOL    HW245670   7.907   9.938   9.843  0.9368 -1.7120 -1.8395
13578SOL     OW45671   4.717   2.854   9.806  0.9479 -0.8483  0.1206
13578SOL    HW145672   4.799   2.894   9.837  1.4258 -0.1630 -1.8995
13578SOL    HW245673   4.713   2.770   9.852  2.5164 -0.6719  0.6430
13579SOL     OW45674   2.883   7.814   7.249 -0.4976 -0.5291 -0.2554
13579SOL    HW145675   2.975   7.832   7.264 -0.1637 -2.4603  0.2903
13579SOL    HW245676   2.876   7.718   7.250 -2.1913 -0.5192 -2.1753
13580SOL     OW45677   3.753  10.914   2.978 -0.0038  0.2257  0.2608
13580SOL    HW145678   3.751  10.818   2.985 -0.1042  0.1972 -0.1208
13580SOL    HW245679   3.826  10.932   2.919  0.4991  0.4261  0.9379
13581SOL     OW45680   6.288   1.798   5.144 -0.0467  0.3442  0.2621
13581SOL    HW145681   6.328   1.872   5.100  1.9214 -0.9118 -0.1680
13581SOL    HW245682   6.346   1.780   5.218  0.2090 -1.5020 -0.3446
13582SOL     OW45683   9.044   8.442   5.994  0.3258  0.4605  0.6225
13582SOL    HW145684   8.969   8.480   5.948  1.1435  1.1791 -0.1763
13582SOL    HW245685   9.007   8.399   6.071 -0.8180  1.4339  0.6363
13583SOL     OW45686   7.124   3.829   2.134 -0.5043 -0.0042 -0.3540
13583SOL    HW145687   7.116   3.909   2.081  1.0782 -0.2257 -0.9724
13583SOL    HW245688   7.153   3.861   2.220  1.3596  0.0440 -0.9521
13584SOL     OW45689  10.766   8.467   0.727 -0.2855 -0.2594  0.7745
13584SOL    HW145690  10.834   8.517   0.682 -0.4252  1.3153  2.2205
13584SOL    HW245691  10.697   8.532   0.745 -0.7252 -1.0861  2.1977
13585SOL     OW45692   1.058   3.903   2.273  0.0812  0.3451  0.4212
13585SOL    HW145693   0.982   3.862   2.233 -0.5565  1.8276  0.0500
13585SOL    HW245694   1.125   3.902   2.204 -0.6756  1.9337 -0.3935
13586SOL     OW45695   1.371   9.066  10.501 -0.2340 -0.2281 -0.3947
13586SOL    HW145696   1.369   9.036  10.592 -0.5921  0.5518 -0.1373
13586SOL    HW245697   1.280   9.088  10.481  0.0314  0.7974 -0.5266
13587SOL     OW45698   2.149   6.235   3.373 -0.2396 -0.3984  0.5470
13587SOL    HW145699   2.070   6.288   3.359  0.4728  1.1726  2.0676
13587SOL    HW245700   2.122   6.166   3.433 -0.6901 -0.5254  0.2064
13588SOL     OW45701   4.307   5.095   5.689  0.6908 -0.0108 -0.2722
13588SOL    HW145702   4.393   5.059   5.714  0.3276 -0.1273  0.8482
13588SOL    HW245703   4.244   5.041   5.736  0.0590  0.9871  0.0401
13589SOL     OW45704   6.144   5.844   8.240 -0.7610 -0.1030 -0.6692
13589SOL    HW145705   6.182   5.817   8.324 -1.7550 -0.2484 -0.2515
13589SOL    HW245706   6.216   5.885   8.193 -0.6865  2.1414  1.2183
13590SOL     OW45707   8.514   0.982   4.914 -0.0555  0.1696  0.4536
13590SOL    HW145708   8.420   0.968   4.902  0.0819  0.5333 -1.3601
13590SOL    HW245709   8.551   0.967   4.827  1.2451  2.4614  0.5320
13591SOL     OW45710   1.247   7.131   4.725  0.2747  0.7992 -0.4635
13591SOL    HW145711   1.225   7.187   4.800 -0.8971  0.5950 -0.6421
13591SOL    HW245712   1.201   7.171   4.651  1.7530  1.2470 -1.1992
13592SOL     OW45713   5.809   6.935   5.418  0.0677 -0.4650  0.2166
13592SOL    HW145714   5.751   6.927   5.494 -2.2284  1.1283 -1.2405
13592SOL    HW245715   5.750   6.949   5.344  2.1554 -2.5974 -2.0493
13593SOL     OW45716   4.762   2.473  10.072  0.4221  0.1365 -0.2336
13593SOL    HW145717   4.751   2.505  10.162 -1.8872  0.4254 -0.5588
13593SOL    HW245718   4.720   2.386  10.073  1.2430 -0.2757 -0.8208
13594SOL     OW45719  11.589  10.670   4.045  0.0076  0.8733  0.3698
13594SOL    HW145720  11.641  10.656   4.124  0.5790  2.3996  0.2984
13594SOL    HW245721  11.639  10.733   3.994 -1.1262  1.1364 -0.4720
13595SOL     OW45722   7.061   5.731   8.801  0.6339  0.0669 -0.4617
13595SOL    HW145723   7.024   5.817   8.824  0.7672 -0.0103  0.0690
13595SOL    HW245724   7.111   5.706   8.879  1.6814  0.0998 -1.1148
13596SOL     OW45725   2.097   5.855   4.182 -0.4704  0.6290  0.8179
13596SOL    HW145726   2.117   5.761   4.181 -0.6212  0.5879 -0.3148
13596SOL    HW245727   2.128   5.887   4.097  0.4351  1.8079  1.5553
13597SOL     OW45728   6.491   1.954   9.461  0.2400 -0.2002  0.1541
13597SOL    HW145729   6.451   1.941   9.375 -0.0962 -0.9826  0.4174
13597SOL    HW245730   6.416   1.972   9.519  0.5122  0.9332  0.1884
13598SOL     OW45731   6.412   9.601   5.206  0.1026 -0.0473  0.1295
13598SOL    HW145732   6.429   9.555   5.124  0.8409  0.3803  0.0318
13598SOL    HW245733   6.397   9.531   5.270  0.0056 -0.3935 -0.2640
13599SOL     OW45734   1.110   0.464   0.909 -0.0563 -1.2220  1.1349
13599SOL    HW145735   1.093   0.555   0.935  3.4911 -0.4708  1.3523
13599SOL    HW245736   1.043   0.445   0.843 -0.7623  1.6539  0.8803
13600SOL     OW45737   1.944   2.438   4.984 -0.5623  0.3230  0.0598
13600SOL    HW145738   1.856   2.469   4.962  0.0745  1.3288 -1.2340
13600SOL    HW245739   1.969   2.382   4.911  0.2092  0.7791 -0.0434
13601SOL     OW45740   2.224  10.609   7.011  0.4827  0.2656  0.2861
13601SOL    HW145741   2.142  10.647   6.980  1.3746  1.1818 -0.9952
13601SOL    HW245742   2.209  10.514   7.008 -0.2183  0.4000 -0.8081
13602SOL     OW45743   8.366   4.577   1.988  0.4422  0.6863  0.0025
13602SOL    HW145744   8.335   4.667   1.987 -0.4958  0.3864  0.6075
13602SOL    HW245745   8.288   4.524   1.975  0.6506 -0.0918  1.6298
13603SOL     OW45746   1.982   5.694   8.720 -0.6609  0.1472  0.4725
13603SOL    HW145747   1.972   5.659   8.632 -1.4627  0.5726  0.3834
13603SOL    HW245748   1.913   5.652   8.771  0.8795 -1.4600  1.3618
13604SOL     OW45749   6.600   8.939   8.418  0.0223 -0.0462 -0.2550
13604SOL    HW145750   6.532   8.994   8.381  0.4799  0.0837 -0.9234
13604SOL    HW245751   6.682   8.985   8.400  0.2448  0.2919  1.3961
13605SOL     OW45752   0.299   2.945   0.072  0.2947  0.0768  0.3675
13605SOL    HW145753   0.370   2.946   0.008  0.4641 -1.4094  0.5089
13605SOL    HW245754   0.222   2.976   0.024  0.6353 -0.0879 -0.2815
13606SOL     OW45755   4.267   8.490   9.670 -0.2354 -0.0275 -0.0375
13606SOL    HW145756   4.234   8.573   9.637 -0.5464 -0.3208 -0.4779
13606SOL    HW245757   4.192   8.452   9.717 -1.2499 -1.6233 -2.7328
13607SOL     OW45758   8.578   2.318   0.728  0.0333  0.3178 -0.8030
13607SOL    HW145759   8.525   2.347   0.803  0.6824 -0.3657 -0.0688
13607SOL    HW245760   8.518   2.267   0.674 -0.3670  0.5731 -0.6024
13608SOL     OW45761   0.146   8.830   7.427 -0.0684 -0.2115 -0.1811
13608SOL    HW145762   0.138   8.868   7.514  1.4118  0.8811 -0.4804
13608SOL    HW245763   0.225   8.776   7.432  1.0360  1.2328 -1.2807
13609SOL     OW45764   7.226   2.163   3.265  0.5180  0.1255 -0.0645
13609SOL    HW145765   7.211   2.200   3.178  0.7868 -0.8637 -0.5483
13609SOL    HW245766   7.153   2.104   3.279 -0.7259  1.8780  1.3435
13610SOL     OW45767   2.024   2.154   1.617  0.1590 -0.2715  0.6426
13610SOL    HW145768   2.052   2.160   1.709  1.0075  2.5299  0.3013
13610SOL    HW245769   2.088   2.096   1.576  0.9025 -0.0559  1.4610
13611SOL     OW45770   5.935  11.408   2.812 -0.4589  0.0759  0.0108
13611SOL    HW145771   5.964  11.338   2.871  2.4675  1.7652  0.7499
13611SOL    HW245772   5.959  11.377   2.725  0.0753 -0.1661  0.2427
13612SOL     OW45773   7.555   9.193   1.202  0.0134 -0.0152 -0.5202
13612SOL    HW145774   7.479   9.228   1.156 -0.0957 -1.5355 -1.5525
13612SOL    HW245775   7.544   9.098   1.198  0.4911 -0.2363  1.8424
13613SOL     OW45776   3.655   9.526  10.048 -0.3977  0.0055  0.2364
13613SOL    HW145777   3.708   9.580   9.989  0.6206 -2.0627 -0.8304
13613SOL    HW245778   3.565   9.544  10.023 -0.0535  0.7533 -0.4912
13614SOL     OW45779   4.437   6.382   7.122  0.1507 -0.3524  0.3004
13614SOL    HW145780   4.478   6.390   7.209  0.3483  0.3610  0.1451
13614SOL    HW245781   4.508   6.399   7.061 -0.2543  0.3055  0.0161
13615SOL     OW45782   3.748   9.305   7.761  0.0495  0.3579  0.0399
13615SOL    HW145783   3.733   9.338   7.849  1.5929  1.4317 -0.0624
13615SOL    HW245784   3.663   9.315   7.717 -0.9998 -1.0514  1.6126
13616SOL     OW45785   7.008   6.199   2.047 -0.3019 -0.3539  0.3193
13616SOL    HW145786   6.957   6.122   2.021 -0.7885  0.7153 -2.0740
13616SOL    HW245787   6.962   6.273   2.009  1.4556  0.9276  0.5743
13617SOL     OW45788   0.407   2.962   0.479 -0.5687 -0.3195 -0.1805
13617SOL    HW145789   0.415   2.938   0.387  0.0453 -1.4112  0.1362
13617SOL    HW245790   0.475   2.910   0.523  0.4046  1.5685  0.6545
13618SOL     OW45791   4.983   8.165   6.906 -0.4173 -0.4879  0.3884
13618SOL    HW145792   4.923   8.122   6.844  0.1468  0.2135 -0.6908
13618SOL    HW245793   4.977   8.113   6.986 -0.6777 -1.8237 -0.4680
13619SOL     OW45794   6.111  11.216   6.413  0.1589  0.8332 -0.6869
13619SOL    HW145795   6.130  11.140   6.359 -0.2874  1.3112 -1.5397
13619SOL    HW245796   6.026  11.197   6.453  0.8762  0.1062  0.5609
13620SOL     OW45797  11.399   0.754   3.332 -0.6205  0.1139  0.6026
13620SOL    HW145798  11.331   0.800   3.382 -0.7056  2.1916 -1.2411
13620SOL    HW245799  11.477   0.762   3.386 -0.8366  1.7788  0.7199
13621SOL     OW45800  10.679   6.937  10.670  0.3923  0.1378  0.9986
13621SOL    HW145801  10.595   6.957  10.713  0.0711 -2.0358  1.4804
13621SOL    HW245802  10.732   6.898  10.739  1.3712  0.3441  0.3785
13622SOL     OW45803   3.988   5.270   3.969 -0.0889 -0.6754  0.0719
13622SOL    HW145804   3.915   5.271   4.031  1.7208 -0.6286  2.3636
13622SOL    HW245805   4.065   5.254   4.023  1.5872 -1.1681 -2.2867
13623SOL     OW45806   6.243   0.263  10.073  0.1810 -0.0468 -0.1417
13623SOL    HW145807   6.294   0.311  10.009  1.0080  0.1566  0.6440
13623SOL    HW245808   6.152   0.282  10.051  0.4775  1.3547 -0.2419
13624SOL     OW45809   3.191   4.518   3.547  0.7901 -0.3600  0.1668
13624SOL    HW145810   3.195   4.595   3.489  2.4824  0.1729  0.9195
13624SOL    HW245811   3.208   4.444   3.489 -0.7359 -0.1765 -0.5508
13625SOL     OW45812  11.331   5.240   3.491 -0.8513  0.4211  0.3951
13625SOL    HW145813  11.395   5.254   3.420 -1.0146  0.2248  0.2076
13625SOL    HW245814  11.349   5.310   3.554 -1.4809  1.3087 -0.3894
13626SOL     OW45815   3.243   2.442   1.035  0.0744  0.2985  0.3942
13626SOL    HW145816   3.331   2.405   1.025  0.1336  0.4285  0.4210
13626SOL    HW245817   3.259   2.536   1.050 -0.0856  0.3836  0.0312
13627SOL     OW45818   3.988   7.738   4.113 -0.0801  0.3424 -0.1892
13627SOL    HW145819   3.924   7.795   4.155 -0.7398 -0.7627  0.3479
13627SOL    HW245820   3.958   7.731   4.022  0.4534  1.4508 -0.4775
13628SOL     OW45821   2.256   5.078   9.281  0.0478  0.0832  0.6215
13628SOL    HW145822   2.218   5.036   9.204  2.1456 -0.2034 -0.3074
13628SOL    HW245823   2.289   5.162   9.248 -0.1310  0.5005  1.4858
13629SOL     OW45824   0.123  10.541   9.005  0.2762  0.1026  0.0099
13629SOL    HW145825   0.147  10.610   8.942  0.5874  0.4008  0.4484
13629SOL    HW245826   0.130  10.583   9.090  3.9277 -1.3415  0.6016
13630SOL     OW45827   3.210   5.684   7.356 -0.2703  0.2052 -0.6617
13630SOL    HW145828   3.292   5.723   7.387  0.3772 -1.3324 -0.3524
13630SOL    HW245829   3.148   5.700   7.426 -0.0310  0.6906 -0.5520
13631SOL     OW45830   6.054  11.681   1.456 -0.8588  0.5120  0.2977
13631SOL    HW145831   6.047  11.626   1.378 -0.2788  0.5338  0.2284
13631SOL    HW245832   6.109  11.632   1.516 -1.1294  0.5910  0.6134
13632SOL     OW45833   2.622   6.081   7.633  0.1453 -0.2009 -0.8633
13632SOL    HW145834   2.661   5.994   7.626  0.4120 -0.0495 -1.3311
13632SOL    HW245835   2.551   6.071   7.695 -0.7955 -1.1090 -2.0346
13633SOL     OW45836   8.324   7.421   1.490  0.0678 -0.1836 -0.1690
13633SOL    HW145837   8.313   7.408   1.395 -1.3151 -0.5525  0.0201
13633SOL    HW245838   8.401   7.478   1.497  0.5198 -0.5863 -1.4843
13634SOL     OW45839   9.418   1.539   6.198 -0.1557  0.0460  0.3742
13634SOL    HW145840   9.490   1.500   6.148 -0.3706 -0.5110  0.4884
13634SOL    HW245841   9.438   1.632   6.200  0.7298 -0.1427  0.6806
13635SOL     OW45842  11.331   7.754   9.264  0.0706  0.7365  0.1166
13635SOL    HW145843  11.418   7.751   9.224  0.3096  0.1721  0.6484
13635SOL    HW245844  11.303   7.662   9.268 -0.0669  0.8066  0.9625
13636SOL     OW45845   3.867   5.536   7.196  0.1008  0.4073 -0.8023
13636SOL    HW145846   3.894   5.566   7.109  0.2049  3.4891  0.1788
13636SOL    HW245847   3.783   5.579   7.211 -0.3872 -0.8624  0.2753
13637SOL     OW45848   4.299   1.632   3.900 -0.0224  0.1020 -0.1498
13637SOL    HW145849   4.312   1.718   3.940  0.7375  0.0622 -0.2843
13637SOL    HW245850   4.221   1.597   3.942 -0.7676  1.1581 -0.6224
13638SOL     OW45851   2.387   3.717   0.971 -0.2926  0.0917  0.0295
13638SOL    HW145852   2.366   3.805   1.002 -0.1426  0.7449 -1.6048
13638SOL    HW245853   2.480   3.707   0.990  0.1315  1.0335 -1.3617
13639SOL     OW45854   3.399   5.356   0.952  0.0703 -0.0681 -0.7520
13639SOL    HW145855   3.422   5.310   0.871 -0.0428 -0.0579 -0.7899
13639SOL    HW245856   3.432   5.445   0.940  2.3402 -0.6783  0.2135
13640SOL     OW45857  11.062   4.079   0.394  0.3677 -0.5295  0.4196
13640SOL    HW145858  11.011   4.079   0.475 -1.9169 -1.5078 -0.9256
13640SOL    HW245859  11.002   4.115   0.329  1.8890 -0.4828 -1.0046
13641SOL     OW45860   6.150   7.717   2.983  0.3622 -0.0707  0.2678
13641SOL    HW145861   6.222   7.676   2.936  0.2766  1.3694 -1.1945
13641SOL    HW245862   6.193   7.771   3.049  0.5392 -0.6561  0.6430
13642SOL     OW45863   4.155  10.269   9.408 -0.5899  0.7603  0.0406
13642SOL    HW145864   4.129  10.299   9.321 -0.8282  1.2916  0.2964
13642SOL    HW245865   4.073  10.256   9.455 -0.4464  0.9973  0.3596
13643SOL     OW45866   8.717   3.890  11.194 -0.1576  0.1606  1.0365
13643SOL    HW145867   8.813   3.886  11.189 -0.2327 -1.4226 -0.3242
13643SOL    HW245868   8.694   3.972  11.150  0.5532  0.5971  1.4515
13644SOL     OW45869   4.761  10.538   9.955 -0.0261 -0.1205 -0.1140
13644SOL    HW145870   4.841  10.536  10.007 -0.7066  0.3549  0.9733
13644SOL    HW245871   4.697  10.489  10.006 -0.6900  0.3034 -0.5166
13645SOL     OW45872   0.507   0.668   8.520 -0.2111 -0.0322  0.1059
13645SOL    HW145873   0.483   0.616   8.597  0.2265  0.3156  0.4774
13645SOL    HW245874   0.507   0.759   8.551  0.6132  0.0577 -0.1338
13646SOL     OW45875   6.923   1.756   4.063 -0.3856 -0.4975 -0.2816
13646SOL    HW145876   6.955   1.666   4.062  0.4031 -0.2262 -1.7663
13646SOL    HW245877   6.877   1.764   4.146  3.2997 -0.9533  2.0171
13647SOL     OW45878   0.980   4.366  10.625 -0.0047  0.5844  0.0395
13647SOL    HW145879   1.068   4.377  10.662  0.4182 -1.8860 -0.0448
13647SOL    HW245880   0.996   4.342  10.534 -0.7171 -0.4075  0.1613
13648SOL     OW45881   9.749   3.416   7.680 -0.3070  0.2773 -0.2937
13648SOL    HW145882   9.719   3.358   7.750 -0.2423  1.0803  0.4137
13648SOL    HW245883   9.668   3.454   7.644 -0.2492  1.7754  1.0356
13649SOL     OW45884   3.016   5.495  11.268 -0.2229 -0.3880  0.5956
13649SOL    HW145885   2.959   5.431  11.226  0.6106  0.3324 -1.8416
13649SOL    HW245886   3.086   5.510  11.204  2.0611 -0.3464  2.9455
13650SOL     OW45887   7.019   9.474   7.576 -0.6372 -0.3051  0.3511
13650SOL    HW145888   6.983   9.557   7.605  1.4711  0.6419  0.4607
13650SOL    HW245889   6.951   9.437   7.519 -2.1920  0.7989  1.4173
13651SOL     OW45890  10.571   7.544   7.877 -0.3652 -0.1783  0.1382
13651SOL    HW145891  10.494   7.522   7.826 -0.3519 -1.1678  0.5188
13651SOL    HW245892  10.571   7.481   7.949  1.6453 -1.2493 -0.7153
13652SOL     OW45893   2.397   8.585   5.853 -0.2301 -0.0529  0.1410
13652SOL    HW145894   2.425   8.557   5.766  1.2314  0.2109  0.5106
13652SOL    HW245895   2.307   8.552   5.861  0.4083 -2.1076 -0.5696
13653SOL     OW45896   8.697   2.680   6.100  0.2157 -0.1166 -0.0508
13653SOL    HW145897   8.640   2.608   6.075  0.9844 -0.4992 -0.7565
13653SOL    HW245898   8.782   2.639   6.115  0.4279  0.5118  0.4921
13654SOL     OW45899   6.752  10.727   6.243 -0.1043 -0.0803 -0.0877
13654SOL    HW145900   6.792  10.810   6.215  2.2419 -1.6606 -1.7880
13654SOL    HW245901   6.782  10.715   6.333  0.1661  0.5669 -0.0861
13655SOL     OW45902   6.545   6.371   9.278  0.4835 -0.4811  0.0970
13655SOL    HW145903   6.590   6.430   9.338  0.1430  1.2162 -1.2081
13655SOL    HW245904   6.575   6.398   9.191 -1.9681 -0.1616 -0.7367
13656SOL     OW45905   3.911  11.055   9.137 -0.3948 -0.0334  0.6115
13656SOL    HW145906   3.984  11.000   9.167 -0.7665 -1.1902 -0.5137
13656SOL    HW245907   3.914  11.131   9.194  0.9690 -0.6035  1.3601
13657SOL     OW45908   4.340   2.089   6.957  0.2307 -0.1098  0.3315
13657SOL    HW145909   4.431   2.070   6.976  0.2686 -1.3696 -0.9204
13657SOL    HW245910   4.291   2.036   7.021  0.3790 -2.7927 -1.5939
13658SOL     OW45911  10.486   1.003   2.473  0.0691  0.2561 -0.1294
13658SOL    HW145912  10.417   1.012   2.407 -1.3359 -1.1362  1.0778
13658SOL    HW245913  10.532   0.922   2.450  0.3764  0.4142 -0.0853
13659SOL     OW45914   4.486   6.786  11.600  0.3915 -0.6096 -0.3917
13659SOL    HW145915   4.419   6.727  11.633  0.2097 -0.1153  0.1460
13659SOL    HW245916   4.452   6.818  11.517 -1.1059  1.3509  0.8838
13660SOL     OW45917   3.135   5.972   6.308 -0.1493 -0.4522 -0.2251
13660SOL    HW145918   3.075   5.997   6.237  0.3474  1.1424 -0.1369
13660SOL    HW245919   3.102   6.018   6.385  0.8901  0.0555 -0.0663
13661SOL     OW45920   9.795   7.772   3.298 -0.1141 -0.2677 -0.2332
13661SOL    HW145921   9.882   7.796   3.266  0.0702 -0.9925 -0.3082
13661SOL    HW245922   9.760   7.851   3.338  0.4396  0.1228 -0.5206
13662SOL     OW45923   0.144   8.852   5.809 -0.2722  0.3219  0.4433
13662SOL    HW145924   0.097   8.789   5.755  1.0954 -2.2380  2.0111
13662SOL    HW245925   0.223   8.872   5.759 -0.5418  0.5133  0.0931
13663SOL     OW45926   9.396  10.313   1.003 -0.0131 -0.2313 -0.1267
13663SOL    HW145927   9.349  10.233   0.978 -2.1333  0.8054  0.2796
13663SOL    HW245928   9.365  10.331   1.092  2.7903 -0.5769  1.0111
13664SOL     OW45929   6.499   7.581   5.414  0.0448 -0.1204  0.3342
13664SOL    HW145930   6.568   7.638   5.380 -0.9355  0.5728 -0.5699
13664SOL    HW245931   6.544   7.499   5.435  0.8457 -0.4331 -2.1868
13665SOL     OW45932   6.619   3.355   7.066  0.4932  0.2251  0.0962
13665SOL    HW145933   6.583   3.323   7.148 -0.9571 -0.4377 -0.7433
13665SOL    HW245934   6.642   3.446   7.083 -1.0035  0.4874  0.8904
13666SOL     OW45935   6.467  10.860   6.193  0.3488  0.1915  0.0137
13666SOL    HW145936   6.549  10.814   6.214  0.4709  0.0264 -0.8066
13666SOL    HW245937   6.400  10.791   6.194  0.3805  0.1571 -0.3023
13667SOL     OW45938   0.160   9.588   8.154  0.3033  0.0068  0.2911
13667SOL    HW145939   0.191   9.520   8.213  0.3005 -1.0384 -0.8713
13667SOL    HW245940   0.106   9.645   8.209 -0.6104 -1.5550  1.0621
13668SOL     OW45941   8.532  11.405   4.668 -0.3235  0.4621  0.1555
13668SOL    HW145942   8.482  11.432   4.591 -0.7834 -1.2579 -0.1768
13668SOL    HW245943   8.615  11.373   4.633 -1.2527 -2.1049  0.1344
13669SOL     OW45944   5.768   2.428   2.613  0.4575 -0.4936 -0.4948
13669SOL    HW145945   5.848   2.420   2.561  0.9232  0.7640 -0.0098
13669SOL    HW245946   5.707   2.475   2.557 -0.6850 -3.0672 -1.6075
13670SOL     OW45947   4.283   7.494   3.319  0.2195 -0.1995 -0.0068
13670SOL    HW145948   4.321   7.531   3.399  0.1138  1.2064 -0.5949
13670SOL    HW245949   4.197   7.461   3.347  0.3221 -0.0281  0.5274
13671SOL     OW45950   8.421   6.278   4.998 -0.2582 -0.3744 -0.8074
13671SOL    HW145951   8.416   6.366   4.960  0.5663  0.1719  0.2895
13671SOL    HW245952   8.331   6.257   5.022 -0.3207  0.6810 -0.0256
13672SOL     OW45953   2.101   9.952   3.312  0.0245  0.4689 -0.0924
13672SOL    HW145954   2.089   9.950   3.217 -0.2191  1.2910 -0.0927
13672SOL    HW245955   2.195   9.961   3.324  0.3255 -1.9548 -0.1845
13673SOL     OW45956   7.611   0.006   3.947 -0.4622 -0.0215  0.5449
13673SOL    HW145957   7.587  -0.080   3.912 -2.2114  0.4125  0.5908
13673SOL    HW245958   7.638   0.056   3.870 -0.2759 -0.3355  0.4028
13674SOL     OW45959  10.495   3.598   1.848 -0.2865 -0.8470 -0.1060
13674SOL    HW145960  10.410   3.598   1.892 -2.0846  0.0401 -3.2426
13674SOL    HW245961  10.496   3.680   1.798  2.2423 -1.0637 -0.5481
13675SOL     OW45962   2.469   1.592   3.409 -0.2093  0.1613  0.1977
13675SOL    HW145963   2.470   1.567   3.316 -1.5262  2.2140 -0.4411
13675SOL    HW245964   2.558   1.621   3.427 -0.0615  0.2124 -0.5790
13676SOL     OW45965   3.375   5.992   7.556 -0.5477 -0.0481  0.2680
13676SOL    HW145966   3.432   5.990   7.634 -0.9813 -0.2100  0.5852
13676SOL    HW245967   3.384   6.082   7.523  1.5368 -0.6339 -0.9329
13677SOL     OW45968   2.145   2.972   0.426 -0.1343  0.1978 -0.0940
13677SOL    HW145969   2.134   2.988   0.519 -0.6955 -1.2753  0.1209
13677SOL    HW245970   2.058   2.986   0.389 -0.0943  0.0149 -0.2618
13678SOL     OW45971   3.542   9.168  10.420 -0.0181 -0.4029  0.3210
13678SOL    HW145972   3.590   9.239  10.377 -0.2327  0.5492  1.6052
13678SOL    HW245973   3.554   9.093  10.362  1.1446  0.3855 -0.5055
13679SOL     OW45974   1.618   4.676  10.765  0.3391  1.0426 -0.2080
13679SOL    HW145975   1.562   4.673  10.843  2.1986  0.8544  1.1833
13679SOL    HW245976   1.624   4.769  10.744 -1.9181  0.9779 -1.5371
13680SOL     OW45977   9.499   9.199   5.765  0.0977  0.4917  0.0072
13680SOL    HW145978   9.488   9.166   5.854  0.2979  1.4238  0.3900
13680SOL    HW245979   9.594   9.210   5.755  0.0566  0.6368 -0.2376
13681SOL     OW45980   4.796   2.056  10.144  0.1144  0.1995 -0.2517
13681SOL    HW145981   4.837   2.007  10.073  1.4749 -0.0039  0.6349
13681SOL    HW245982   4.725   2.104  10.102  0.0172 -0.9636 -1.4974
13682SOL     OW45983   1.928   1.022   3.940 -0.6241  0.1830  0.4566
13682SOL    HW145984   1.925   1.063   4.027  0.0978  0.8653  0.1744
13682SOL    HW245985   1.855   1.063   3.892 -0.3298  0.6463  0.3940
13683SOL     OW45986   7.208  10.459   7.452 -0.5093  0.2294 -0.6931
13683SOL    HW145987   7.223  10.373   7.411  1.3066 -0.4089  1.1334
13683SOL    HW245988   7.143  10.501   7.396 -2.3906 -2.7845 -1.0156
13684SOL     OW45989   7.708   2.430   9.541  1.2036  0.2469  0.0349
13684SOL    HW145990   7.645   2.501   9.529 -0.1261 -1.1555 -2.0109
13684SOL    HW245991   7.693   2.399   9.630  0.4212  1.2354  0.2650
13685SOL     OW45992   1.769   1.009   4.624 -0.2909 -0.1135  0.4305
13685SOL    HW145993   1.678   1.038   4.632 -0.3497  0.0605 -0.7550
13685SOL    HW245994   1.765   0.931   4.568  0.6048  1.9129 -2.6762
13686SOL     OW45995   7.004   5.654   9.077  0.4033  0.1636 -0.2808
13686SOL    HW145996   7.069   5.603   9.125 -0.4302 -0.7655 -0.1183
13686SOL    HW245997   6.925   5.648   9.130 -0.6470 -1.2034 -1.9264
13687SOL     OW45998   2.377  11.247   7.860 -0.1678 -0.6198  0.5548
13687SOL    HW145999   2.354  11.259   7.952 -1.1270 -1.4310  0.4333
13687SOL    HW246000   2.470  11.271   7.856 -0.5103  1.0653  1.3951
13688SOL     OW46001   0.857   9.101   1.652 -0.2225 -0.5254 -0.2744
13688SOL    HW146002   0.900   9.121   1.569 -0.4288 -0.8543 -0.4601
13688SOL    HW246003   0.770   9.071   1.627 -0.4321 -0.2199  0.0832
13689SOL     OW46004   0.264   9.599   7.494 -0.1706 -0.5501 -0.3687
13689SOL    HW146005   0.316   9.657   7.549 -1.9986 -0.4306  1.3391
13689SOL    HW246006   0.326   9.566   7.428  1.2279  2.1934 -0.5412
13690SOL     OW46007  10.336   4.199   9.335 -0.1422  0.1711  0.2067
13690SOL    HW146008  10.333   4.294   9.348 -0.6039  0.5146 -2.0880
13690SOL    HW246009  10.319   4.163   9.423 -2.4554  2.2094  0.7162
13691SOL     OW46010   9.461   5.348  10.343 -0.6547  0.0838 -0.6605
13691SOL    HW146011   9.376   5.337  10.385 -1.3148 -0.4647 -2.0925
13691SOL    HW246012   9.525   5.332  10.413 -1.7108 -0.5136  0.1876
13692SOL     OW46013   4.503   4.059   4.719  0.1159 -0.0962 -0.1583
13692SOL    HW146014   4.592   4.027   4.729  0.7902  1.7093  0.0002
13692SOL    HW246015   4.490   4.067   4.624 -0.6720 -2.3179 -0.3040
13693SOL     OW46016   2.889   2.530   7.001  0.1096 -0.3304  0.0181
13693SOL    HW146017   2.813   2.574   6.962 -0.0489 -0.2350  0.4352
13693SOL    HW246018   2.901   2.451   6.948  0.4524  0.2463 -0.7996
13694SOL     OW46019   3.527   3.737   1.545  0.0390  0.5888 -0.1539
13694SOL    HW146020   3.525   3.824   1.584  1.6439  1.4873 -1.8783
13694SOL    HW246021   3.522   3.677   1.619 -0.5411  2.1490  1.1280
13695SOL     OW46022   4.488   9.372   2.188 -0.0868 -0.1039 -0.2989
13695SOL    HW146023   4.558   9.365   2.253 -0.4759 -0.0999  0.1304
13695SOL    HW246024   4.410   9.343   2.235 -0.6418  1.2969 -0.3186
13696SOL     OW46025   4.275   1.608   9.004  0.1875  0.6817 -0.2185
13696SOL    HW146026   4.222   1.637   8.930 -1.3618 -1.1596  0.0866
13696SOL    HW246027   4.248   1.666   9.076 -1.0261  0.1520 -0.2168
13697SOL     OW46028   1.552   3.234   9.311 -0.0071  0.5151  0.0549
13697SOL    HW146029   1.558   3.139   9.295 -0.0822  0.3264  1.0823
13697SOL    HW246030   1.620   3.271   9.255 -1.5727  0.1107 -2.2398
13698SOL     OW46031  11.492   6.811   9.663 -0.3569 -0.5105  0.3798
13698SOL    HW146032  11.447   6.853   9.736 -0.4172  0.2281 -0.0750
13698SOL    HW246033  11.422   6.783   9.605 -0.2442  1.2558 -0.6651
13699SOL     OW46034   8.224   2.068   4.725 -0.2855 -0.3385 -0.2481
13699SOL    HW146035   8.288   2.088   4.657 -0.4513 -0.3520 -0.4084
13699SOL    HW246036   8.152   2.026   4.678  0.5507 -2.4296  0.2196
13700SOL     OW46037   3.873   4.780   0.396 -0.1084  0.1682  0.0547
13700SOL    HW146038   3.954   4.735   0.419  0.5448  1.2586  0.0014
13700SOL    HW246039   3.809   4.711   0.382  0.2590 -0.6509  2.1657
13701SOL     OW46040   0.446   5.155   3.694  0.5618 -0.5077  0.3680
13701SOL    HW146041   0.488   5.187   3.775  1.4293  0.7972 -0.5473
13701SOL    HW246042   0.425   5.064   3.712 -0.2094  0.0250  2.4400
13702SOL     OW46043   2.467   6.242   0.976  0.7632 -0.1685 -0.3989
13702SOL    HW146044   2.542   6.249   0.918  1.1853  2.7289  0.3469
13702SOL    HW246045   2.502   6.256   1.064 -0.0882 -2.9696  0.5066
13703SOL     OW46046   4.516   0.642   8.388  0.2022 -0.0867 -0.1000
13703SOL    HW146047   4.501   0.551   8.363 -0.5601  0.0195 -0.0420
13703SOL    HW246048   4.477   0.650   8.475 -0.3139  0.4634 -0.3769
13704SOL     OW46049   4.812   7.504  10.343 -0.3403  0.0403 -0.2867
13704SOL    HW146050   4.897   7.547  10.358 -0.9335  1.2262 -0.1971
13704SOL    HW246051   4.819   7.421  10.390  0.6085  0.3257  0.1136
13705SOL     OW46052   1.995   5.519   5.971  0.7635  0.0968 -0.6441
13705SOL    HW146053   1.925   5.472   5.927  0.4006 -1.1498  1.1534
13705SOL    HW246054   1.958   5.606   5.987 -0.3797 -0.5055  0.1746
13706SOL     OW46055   3.784   0.245   0.561 -0.0547  0.1566  0.0737
13706SOL    HW146056   3.766   0.177   0.626 -2.3187  0.5142 -0.1154
13706SOL    HW246057   3.783   0.327   0.611  0.9966  0.2178  0.0200
13707SOL     OW46058   7.009   3.199   5.207  0.2488 -0.3672  0.1903
13707SOL    HW146059   6.988   3.161   5.122 -1.4811 -0.6938  0.7322
13707SOL    HW246060   7.079   3.262   5.188 -1.3834  0.9993 -1.8159
13708SOL     OW46061  10.816   0.710  10.929 -0.2237 -0.4335  0.1455
13708SOL    HW146062  10.833   0.803  10.915 -0.1980 -0.4487  0.0756
13708SOL    HW246063  10.889   0.680  10.984 -0.2956 -0.3864  0.2682
13709SOL     OW46064   1.188   4.848   0.729  0.5970 -0.2551 -0.3406
13709SOL    HW146065   1.240   4.916   0.770  0.9138 -0.4080 -0.4828
13709SOL    HW246066   1.208   4.769   0.780  1.0195 -0.4530 -0.8010
13710SOL     OW46067   9.672   7.147   3.309 -0.0194  0.1460 -0.4035
13710SOL    HW146068   9.594   7.189   3.346 -0.1592 -1.2613  1.0144
13710SOL    HW246069   9.729   7.220   3.283 -0.6892  1.2024  0.9752
13711SOL     OW46070   2.073   3.008   2.064 -0.5865  0.1726 -0.0272
13711SOL    HW146071   2.145   3.008   2.001  1.1617  1.2417  1.8434
13711SOL    HW246072   2.012   3.074   2.031 -0.6928 -0.6419 -1.5678
13712SOL     OW46073  10.877   6.525   0.537  0.6675  0.2273 -0.1575
13712SOL    HW146074  10.785   6.501   0.525  0.7326  0.2670 -0.7810
13712SOL    HW246075  10.876   6.620   0.549  0.4430 -0.0013  1.9614
13713SOL     OW46076   5.622   3.413   6.335  0.2216 -0.2313  0.1885
13713SOL    HW146077   5.647   3.359   6.411  2.8417 -0.9573 -1.0478
13713SOL    HW246078   5.659   3.366   6.260  0.5541  2.1227 -1.2064
13714SOL     OW46079   9.263   9.601   5.737  0.4289 -0.3296  0.1172
13714SOL    HW146080   9.260   9.604   5.833 -1.0870 -1.0211  0.1194
13714SOL    HW246081   9.283   9.510   5.716  0.3517 -0.2665 -0.2338
13715SOL     OW46082   0.779  11.180   6.265  0.2295 -0.3418 -0.1352
13715SOL    HW146083   0.812  11.168   6.354 -0.5463  0.9204  0.3509
13715SOL    HW246084   0.826  11.257   6.232 -1.5538  1.0267  0.3019
13716SOL     OW46085   8.860   8.163   5.182  0.3680  0.1480 -0.0097
13716SOL    HW146086   8.793   8.108   5.141 -3.1499  0.7925  4.1858
13716SOL    HW246087   8.832   8.253   5.163  0.5884  0.4326  0.9942
13717SOL     OW46088  10.896   4.758   2.031  0.3710  0.1798 -0.0595
13717SOL    HW146089  10.952   4.801   2.096  0.6284  0.1791 -0.2798
13717SOL    HW246090  10.818   4.813   2.027  0.4830  0.3482  0.0333
13718SOL     OW46091   8.840   3.237  11.134  0.1521 -0.4328  0.2154
13718SOL    HW146092   8.904   3.168  11.118  0.6107  0.0254  0.0508
13718SOL    HW246093   8.857   3.265  11.225 -0.2727 -0.7822  0.4047
13719SOL     OW46094   8.113   8.608   8.425  0.7523 -0.0939 -0.2645
13719SOL    HW146095   8.038   8.550   8.434  0.7797  0.0009  0.6704
13719SOL    HW246096   8.126   8.617   8.331 -0.1836 -0.3928 -0.4242
13720SOL     OW46097   9.929   6.422   8.102  0.5373 -0.1281  0.0329
13720SOL    HW146098   9.871   6.369   8.156 -0.1281  0.7370  0.1898
13720SOL    HW246099   9.871   6.483   8.057  1.2296  0.1127 -0.5586
13721SOL     OW46100   6.234   9.773   1.903  0.2690  0.2882 -0.1192
13721SOL    HW146101   6.221   9.848   1.846 -3.4440  0.0718  0.2240
13721SOL    HW246102   6.219   9.806   1.991 -0.5661 -0.6792  0.1174
13722SOL     OW46103   4.573   2.012   2.190  0.2099  0.2378  0.4316
13722SOL    HW146104   4.602   2.050   2.107 -1.4738 -0.8364 -0.7213
13722SOL    HW246105   4.506   2.072   2.222  0.8433  0.6404  1.0280
13723SOL     OW46106  10.666   9.601   0.473 -0.0913  0.1260 -0.3609
13723SOL    HW146107  10.725   9.526   0.481  0.9699  0.9221 -0.4749
13723SOL    HW246108  10.668   9.622   0.379 -0.8701 -0.0727 -0.4281
13724SOL     OW46109  11.594   6.410   4.038 -0.2488 -0.3205 -0.2548
13724SOL    HW146110  11.677   6.389   3.994  0.4348 -0.7236  1.1825
13724SOL    HW246111  11.599   6.365   4.122 -1.4423  0.6079  0.3470
13725SOL     OW46112   1.477   1.235   6.692  0.0651 -0.0689  0.3708
13725SOL    HW146113   1.565   1.261   6.716 -0.1486  0.6999  0.3430
13725SOL    HW246114   1.474   1.245   6.597 -0.1550  0.2296  0.4082
13726SOL     OW46115   5.367   7.246   6.292 -0.1722  0.2614 -0.4081
13726SOL    HW146116   5.434   7.314   6.298 -0.9779  0.9633  2.9373
13726SOL    HW246117   5.294   7.288   6.246  0.5927  0.4640 -1.4636
13727SOL     OW46118   5.903   0.035   0.787  0.0553  0.0507  0.5107
13727SOL    HW146119   5.879   0.025   0.879 -1.6416  0.0033  0.0949
13727SOL    HW246120   5.854   0.111   0.758  0.1903 -0.2350 -0.4923
13728SOL     OW46121   7.964   0.763  10.350  0.1326 -0.2240  0.3079
13728SOL    HW146122   7.875   0.744  10.378 -0.8015  0.2876 -2.0684
13728SOL    HW246123   7.987   0.843  10.397 -1.0733  0.2093  0.2016
13729SOL     OW46124   8.925   4.467   5.861  0.3171 -0.1177 -0.4158
13729SOL    HW146125   8.987   4.407   5.902 -0.8885 -0.2609  1.3471
13729SOL    HW246126   8.951   4.471   5.769  1.9209 -1.4016 -0.0596
13730SOL     OW46127  10.756   3.713  10.220 -0.2020 -0.1219  0.1182
13730SOL    HW146128  10.832   3.666  10.185 -0.2636 -0.3255  0.2582
13730SOL    HW246129  10.793   3.789  10.265 -0.2088  1.2704 -2.0938
13731SOL     OW46130   8.952   6.906   8.053  0.2351 -0.3134  0.1908
13731SOL    HW146131   8.964   6.956   8.134 -0.0497 -1.2504  0.8328
13731SOL    HW246132   8.870   6.859   8.066  0.6706 -1.2254 -0.2318
13732SOL     OW46133   9.247   2.956   4.679 -0.0890  0.6793  0.4285
13732SOL    HW146134   9.296   2.966   4.597 -0.4295  1.7039  0.3382
13732SOL    HW246135   9.244   3.044   4.716 -1.0950  0.4699  0.8728
13733SOL     OW46136   3.896   0.152   8.137 -0.5956 -0.0347  0.1974
13733SOL    HW146137   3.822   0.205   8.168 -1.5658 -1.7583  0.9967
13733SOL    HW246138   3.855   0.075   8.099  0.7597  0.0638 -1.5921
13734SOL     OW46139   3.336   5.201   3.598 -0.6166 -0.0573 -0.1673
13734SOL    HW146140   3.368   5.113   3.582 -1.8605 -1.0615  2.3714
13734SOL    HW246141   3.243   5.197   3.575 -0.9571  0.2089  1.0714
13735SOL     OW46142  10.728   1.329   9.935  0.1202 -0.5079 -0.0778
13735SOL    HW146143  10.745   1.423   9.929  0.8474 -0.6891 -1.2982
13735SOL    HW246144  10.720   1.311  10.028  0.8559  0.6157  0.2120
13736SOL     OW46145   3.298   6.388   9.494 -0.3842  0.6177 -0.4683
13736SOL    HW146146   3.375   6.351   9.451 -0.6490 -0.3358 -0.1283
13736SOL    HW246147   3.333   6.439   9.567 -0.0879  0.0413 -0.2082
13737SOL     OW46148   2.547   9.376  11.621 -0.3334 -0.4056  0.1502
13737SOL    HW146149   2.624   9.425  11.593 -1.7288  1.2893 -0.9465
13737SOL    HW246150   2.505   9.433  11.686  0.2865 -2.1574  2.1885
13738SOL     OW46151   5.032   6.123   2.950  0.0524 -0.2392 -0.3117
13738SOL    HW146152   5.073   6.209   2.955  0.0028 -0.2217 -0.2180
13738SOL    HW246153   4.940   6.138   2.969  0.0435 -0.3127 -0.2955
13739SOL     OW46154  10.439   5.076   6.854 -0.3154 -0.6128 -0.5692
13739SOL    HW146155  10.417   5.074   6.947 -1.4346 -0.0367 -0.8046
13739SOL    HW246156  10.483   4.992   6.838  2.1210  0.2682  0.9819
13740SOL     OW46157   3.508   7.131   2.078  0.1150  0.2642 -0.0352
13740SOL    HW146158   3.501   7.193   2.006  0.1056  0.8221  0.4400
13740SOL    HW246159   3.518   7.046   2.036 -1.4445  0.3939 -0.6958
13741SOL     OW46160   1.356   1.784   4.679  0.4218  0.5831  0.3711
13741SOL    HW146161   1.295   1.846   4.640  0.7698  0.4353 -0.4271
13741SOL    HW246162   1.303   1.707   4.699  0.2509  0.6357  0.1272
13742SOL     OW46163   1.044   5.804  10.398  0.6322  0.2364 -0.1905
13742SOL    HW146164   1.044   5.896  10.370  1.8169  0.2813 -0.1164
13742SOL    HW246165   1.018   5.756  10.320 -2.0448  0.7265  0.3071
13743SOL     OW46166   2.206   7.054   9.214  0.0246  0.4344  0.1778
13743SOL    HW146167   2.216   6.974   9.265 -1.0441  0.2779  0.1698
13743SOL    HW246168   2.176   7.119   9.278 -1.2345  0.2596 -0.1994
13744SOL     OW46169   0.584   9.331  10.763 -0.5284  0.0234  0.2876
13744SOL    HW146170   0.565   9.304  10.853 -0.7601 -0.7778  0.0090
13744SOL    HW246171   0.510   9.388  10.739 -0.8616 -0.3802  0.3466
13745SOL     OW46172   5.730   7.132   2.927  0.4517 -0.3072 -0.3544
13745SOL    HW146173   5.732   7.166   2.838 -0.8438  1.7267  0.3186
13745SOL    HW246174   5.804   7.174   2.971  0.0736  0.0472 -0.0461
13746SOL     OW46175   9.936  11.525   2.197 -0.2973  0.8799 -0.3485
13746SOL    HW146176   9.855  11.577   2.200 -1.1928 -0.4393 -0.3640
13746SOL    HW246177   9.917  11.456   2.133  0.6701  0.2667  0.0084
13747SOL     OW46178  11.025   4.300   8.943  0.8828  0.4768  0.4157
13747SOL    HW146179  10.938   4.271   8.973 -0.1299  1.5619 -1.3196
13747SOL    HW246180  11.008   4.382   8.896  2.8039  0.5115 -0.2889
13748SOL     OW46181   5.362   2.821   2.702 -0.1832  0.3660 -0.4985
13748SOL    HW146182   5.408   2.816   2.786  0.8325  1.1023 -0.9900
13748SOL    HW246183   5.328   2.911   2.699  0.9511  0.7856 -1.4472
13749SOL     OW46184   9.696   1.828  11.562 -0.3894  0.0095  0.2897
13749SOL    HW146185   9.709   1.921  11.578  0.7482  0.2519 -1.6932
13749SOL    HW246186   9.758   1.784  11.620 -0.1746  0.5499  0.4720
13750SOL     OW46187   7.480   3.193   9.322 -0.3764  0.0736  0.5439
13750SOL    HW146188   7.501   3.160   9.410  1.1429 -1.9480 -0.4986
13750SOL    HW246189   7.520   3.280   9.320  1.8792 -0.8761  1.0547
13751SOL     OW46190   2.838   7.092   2.756 -0.0277  0.1922 -0.2815
13751SOL    HW146191   2.912   7.085   2.816 -0.3679  0.5517  0.1942
13751SOL    HW246192   2.859   7.168   2.701  0.2392 -0.0793 -0.5588
13752SOL     OW46193  10.544   5.573   1.342 -0.4355  0.0598 -0.5509
13752SOL    HW146194  10.473   5.604   1.397  0.2056  0.7146 -0.0716
13752SOL    HW246195  10.612   5.640   1.350  1.2217 -1.6823  0.9509
13753SOL     OW46196   9.183  11.172   9.624 -0.0917  0.0322  0.5104
13753SOL    HW146197   9.262  11.126   9.594  0.8847  0.7798  1.8476
13753SOL    HW246198   9.209  11.213   9.707 -2.1966 -0.5441  1.4994
13754SOL     OW46199   6.486   9.251   4.275  0.3173 -0.0287 -0.0326
13754SOL    HW146200   6.456   9.172   4.231 -0.8707 -1.3290  2.8257
13754SOL    HW246201   6.581   9.246   4.273  0.2620 -0.8768 -0.9918
13755SOL     OW46202   0.813   5.823   9.221  0.2484 -0.0534  0.3137
13755SOL    HW146203   0.733   5.814   9.169 -0.2296 -2.7526  1.3406
13755SOL    HW246204   0.850   5.735   9.222  1.8885  0.6043  1.9903
13756SOL     OW46205   5.759   8.532   8.517  0.0687  0.3781 -0.2980
13756SOL    HW146206   5.795   8.621   8.518 -0.5488  0.6309  0.9517
13756SOL    HW246207   5.833   8.475   8.535  0.1909  0.7601  0.4244
13757SOL     OW46208  11.289   3.119   7.475  0.3332 -0.1081 -0.5231
13757SOL    HW146209  11.377   3.152   7.491 -0.6499  3.4729 -1.5323
13757SOL    HW246210  11.240   3.141   7.554 -0.1328 -0.0531 -0.8215
13758SOL     OW46211   9.614   6.061   4.367 -0.1414 -0.0169  0.5164
13758SOL    HW146212   9.691   6.055   4.310 -1.7494  1.2744 -1.9784
13758SOL    HW246213   9.633   6.134   4.426  1.2020 -0.8135  1.1189
13759SOL     OW46214   4.837   2.204   0.763  0.0803 -0.0249 -0.0788
13759SOL    HW146215   4.803   2.293   0.758 -1.0245 -0.4117  0.2683
13759SOL    HW246216   4.769   2.151   0.722  1.7306 -0.4773 -2.4432
13760SOL     OW46217   5.387   2.734   0.802  0.3574 -0.5534  0.2348
13760SOL    HW146218   5.427   2.764   0.720 -0.4044  0.0779  0.0817
13760SOL    HW246219   5.460   2.702   0.854  1.1736  1.2365  0.2595
13761SOL     OW46220   7.321   2.520   4.649  0.3244  0.0463  1.0581
13761SOL    HW146221   7.271   2.477   4.580  0.7099 -0.3106  0.9987
13761SOL    HW246222   7.283   2.608   4.655 -0.9251 -0.4987  1.6288
13762SOL     OW46223   2.928   7.798  11.416 -0.2374 -0.5754 -0.8259
13762SOL    HW146224   2.899   7.714  11.380 -0.3716 -0.1750 -1.6621
13762SOL    HW246225   3.013   7.814  11.376  0.4970 -1.0116  0.4726
13763SOL     OW46226   2.521   7.445   3.142 -0.4404  0.4778 -0.5157
13763SOL    HW146227   2.535   7.532   3.181 -1.1288 -0.2359  1.4256
13763SOL    HW246228   2.607   7.419   3.110  0.0083  1.4259 -0.1260
13764SOL     OW46229   2.504  11.556  10.033  0.7251  0.0650 -0.3218
13764SOL    HW146230   2.565  11.541  10.106  0.1374  0.4045  0.2467
13764SOL    HW246231   2.501  11.651  10.023  2.2999 -0.0053 -2.0921
13765SOL     OW46232   0.077   7.038   2.181  0.0909  0.1656  0.5080
13765SOL    HW146233   0.097   6.980   2.254  0.5061  1.4091  1.4328
13765SOL    HW246234   0.114   6.995   2.104  0.9367 -0.4898  1.2571
13766SOL     OW46235   2.310   8.905  10.602 -0.0868  0.2217  0.0026
13766SOL    HW146236   2.376   8.876  10.539  1.7363  2.0490  0.9635
13766SOL    HW246237   2.251   8.830  10.611  0.7461 -0.7918 -2.3277
13767SOL     OW46238  11.690   4.978   6.264 -0.0202  0.6712 -0.2433
13767SOL    HW146239  11.747   5.041   6.308  1.8718 -0.7382 -0.5510
13767SOL    HW246240  11.713   4.986   6.171 -0.8374  0.5552 -0.4637
13768SOL     OW46241   1.790  10.271   0.560 -0.0891  0.0723 -0.3857
13768SOL    HW146242   1.756  10.211   0.627 -0.3051  1.4897  0.8430
13768SOL    HW246243   1.712  10.300   0.513 -0.3793  1.6183  0.9735
13769SOL     OW46244   7.804   3.799   6.844 -0.2897 -0.6153  0.0291
13769SOL    HW146245   7.863   3.729   6.814  0.6420  0.1987 -0.1008
13769SOL    HW246246   7.856   3.848   6.907 -1.3801 -0.8000  1.1134
13770SOL     OW46247   2.328   8.793   7.829  0.0342 -0.1819  0.5825
13770SOL    HW146248   2.239   8.761   7.842 -0.1143 -0.3750 -0.7603
13770SOL    HW246249   2.325   8.884   7.858 -0.4115 -0.3961  1.2206
13771SOL     OW46250   1.026   6.214   2.620  0.5741 -0.0212 -0.0711
13771SOL    HW146251   1.049   6.170   2.539 -0.5886 -0.3803 -0.2301
13771SOL    HW246252   1.037   6.307   2.601  0.5290 -0.1159 -0.5614
13772SOL     OW46253   7.060   8.197  10.673  0.0354  0.3669 -0.3149
13772SOL    HW146254   6.973   8.176  10.638 -0.0276  1.0828 -0.5820
13772SOL    HW246255   7.057   8.165  10.764 -1.1125  1.9351  0.2378
13773SOL     OW46256   4.676   7.294   4.570  0.0293  0.3317  0.2108
13773SOL    HW146257   4.595   7.342   4.554 -0.1033  0.0498  0.0361
13773SOL    HW246258   4.732   7.357   4.615 -0.3185  0.5005  0.4131
13774SOL     OW46259   3.880   9.727   1.249  0.4054 -0.0089 -0.0758
13774SOL    HW146260   3.830   9.775   1.315 -1.4621 -2.0030  0.0695
13774SOL    HW246261   3.930   9.662   1.299 -0.0002 -0.6645 -0.5032
13775SOL     OW46262   2.067  11.427   2.798 -0.8487  0.0033  0.1738
13775SOL    HW146263   1.998  11.382   2.846  0.8296 -2.5737  0.3900
13775SOL    HW246264   2.038  11.425   2.707 -1.0601 -1.1719  0.2431
13776SOL     OW46265   3.495  11.162   2.278  0.1148 -0.3876 -0.0106
13776SOL    HW146266   3.461  11.130   2.362  2.2907  1.0926  1.5423
13776SOL    HW246267   3.589  11.148   2.283  0.4342  0.7960 -1.7314
13777SOL     OW46268   0.767   5.589   1.208  0.3365 -0.5198  0.7362
13777SOL    HW146269   0.837   5.541   1.251  0.7848 -0.2244  0.3532
13777SOL    HW246270   0.753   5.667   1.262  0.7635 -0.2480  0.4643
13778SOL     OW46271   1.014   0.865   0.042  0.5549  0.1454 -0.5944
13778SOL    HW146272   0.931   0.821   0.025  0.1474  1.4005 -2.1795
13778SOL    HW246273   1.081   0.798   0.025 -0.0906 -0.9775  1.0570
13779SOL     OW46274   7.604   5.957   9.099  0.2228 -0.7805  0.8546
13779SOL    HW146275   7.664   5.886   9.124 -0.4952 -1.6007  0.3271
13779SOL    HW246276   7.518   5.914   9.093  0.0549 -0.2393 -1.2184
13780SOL     OW46277   2.860   9.704  10.674 -0.0990 -0.2900  0.0182
13780SOL    HW146278   2.940   9.666  10.711 -0.3623 -0.0546  0.8629
13780SOL    HW246279   2.799   9.705  10.748  0.7323  4.3282  0.9088
13781SOL     OW46280   5.844  10.586   5.366  0.0676  0.0845  0.3713
13781SOL    HW146281   5.921  10.531   5.384  0.3710  0.2005 -0.5044
13781SOL    HW246282   5.806  10.603   5.452  0.9337 -0.1084  0.8059
13782SOL     OW46283   1.418   6.226   6.739 -0.0378 -0.3620  0.1554
13782SOL    HW146284   1.512   6.239   6.745  0.2501 -2.5424  1.2904
13782SOL    HW246285   1.407   6.160   6.670 -0.7890  0.1590 -0.2446
13783SOL     OW46286   6.365   7.125   8.493 -0.0982 -0.2842  0.3111
13783SOL    HW146287   6.361   7.109   8.398  0.6369  1.2547  0.0017
13783SOL    HW246288   6.428   7.060   8.525  0.1519 -0.3813 -0.3527
13784SOL     OW46289   1.062   3.950  10.059 -0.5221  0.4071  0.5184
13784SOL    HW146290   0.979   3.911  10.084  0.1889 -0.5339  1.4828
13784SOL    HW246291   1.040   4.040  10.035 -2.0727 -0.3312 -1.0069
13785SOL     OW46292   1.413   2.607   6.311 -0.4251 -0.0035 -0.0749
13785SOL    HW146293   1.373   2.672   6.252 -1.2247 -2.4635 -2.4313
13785SOL    HW246294   1.340   2.550   6.337  0.4700 -0.7362  0.9012
13786SOL     OW46295   1.859   8.426   6.662 -0.1524 -0.1913 -0.2030
13786SOL    HW146296   1.890   8.485   6.731 -2.0408  1.3536 -0.6040
13786SOL    HW246297   1.914   8.447   6.587  0.0952  0.0728  0.0457
13787SOL     OW46298   4.104   1.270   7.958 -0.5481  0.1549 -0.5635
13787SOL    HW146299   4.187   1.286   8.004 -1.4506  1.3158  0.7633
13787SOL    HW246300   4.091   1.176   7.962  0.3491  0.0446 -0.1417
13788SOL     OW46301   6.725   1.325   3.674 -0.0231 -0.0548  0.3734
13788SOL    HW146302   6.654   1.263   3.683  1.0026 -1.0951  1.8453
13788SOL    HW246303   6.782   1.307   3.749  1.2769  1.3915 -0.2093
13789SOL     OW46304   7.795   5.754   6.504  0.3696 -0.1463 -0.3975
13789SOL    HW146305   7.842   5.754   6.421  0.4319 -2.0461 -0.4058
13789SOL    HW246306   7.747   5.671   6.505 -0.5179  0.3305  0.9854
13790SOL     OW46307   0.296   8.378   4.034  0.5256 -0.6161 -0.2913
13790SOL    HW146308   0.259   8.356   3.949  1.3755  1.4459 -1.2766
13790SOL    HW246309   0.368   8.317   4.046 -0.4922 -1.8674 -0.3288
13791SOL     OW46310  10.197   2.923   1.369  0.2626  0.1297 -0.0599
13791SOL    HW146311  10.177   2.916   1.462 -1.0730 -1.2334 -0.4134
13791SOL    HW246312  10.290   2.899   1.362  0.8330  1.8030  1.0576
13792SOL     OW46313   6.703  10.910   3.024  0.4998  0.0901  0.0762
13792SOL    HW146314   6.609  10.902   3.011  0.7225 -1.0865 -1.0046
13792SOL    HW246315   6.726  10.837   3.080  0.7484  0.4892  0.5008
13793SOL     OW46316   6.166   3.389   1.640 -0.5217 -0.0300  0.6626
13793SOL    HW146317   6.136   3.362   1.727 -1.3065 -0.5368  0.2515
13793SOL    HW246318   6.107   3.343   1.579 -0.0743  0.4235 -0.1324
13794SOL     OW46319   9.959   9.396   9.879  0.1252  0.0477 -0.2689
13794SOL    HW146320  10.001   9.313   9.900  0.9932  0.6908  0.6441
13794SOL    HW246321   9.952   9.395   9.784  2.2490 -0.1102 -0.4837
13795SOL     OW46322   9.871   9.658   0.142 -0.3963  0.4336  0.3301
13795SOL    HW146323   9.910   9.740   0.171  0.2810  1.4733 -3.1302
13795SOL    HW246324   9.916   9.591   0.195  0.8288  2.0852  1.4959
13796SOL     OW46325  10.002   1.285   3.373  0.0518 -0.2863  0.3861
13796SOL    HW146326  10.004   1.374   3.336 -2.1913 -0.0007  0.7926
13796SOL    HW246327   9.937   1.290   3.443  0.9919 -1.9128  1.4182
13797SOL     OW46328   8.308   7.872   7.318  0.2265 -0.1804  0.2450
13797SOL    HW146329   8.221   7.912   7.315 -0.3876 -1.4969  0.2436
13797SOL    HW246330   8.351   7.916   7.391 -0.9666 -0.5462  1.2036
13798SOL     OW46331   5.754   4.642   4.719  0.6511  0.0596  0.2369
13798SOL    HW146332   5.738   4.736   4.709  2.4478  0.3466 -0.2262
13798SOL    HW246333   5.734   4.605   4.633 -1.6648 -0.2934  0.8487
13799SOL     OW46334   3.314   0.175   4.737 -0.3121  0.4798  0.1667
13799SOL    HW146335   3.375   0.174   4.811  1.7944  2.5294 -1.4333
13799SOL    HW246336   3.276   0.087   4.737  2.7421 -0.9848  1.1778
13800SOL     OW46337   8.558   0.924  10.663 -0.1478  0.1775 -0.1494
13800SOL    HW146338   8.622   0.857  10.640  0.7801  0.2829  1.9086
13800SOL    HW246339   8.594   1.005  10.627 -1.0945 -0.3168 -2.3337
13801SOL     OW46340   4.039   9.238   0.286  0.9436 -0.1158 -0.1439
13801SOL    HW146341   4.054   9.241   0.192 -0.0112 -0.6066 -0.3338
13801SOL    HW246342   4.070   9.322   0.319  1.8368 -0.1756 -0.8040
13802SOL     OW46343   4.546   9.264   8.118  0.2027  0.1601 -0.6796
13802SOL    HW146344   4.582   9.287   8.032  0.8966  1.2229 -0.1231
13802SOL    HW246345   4.615   9.287   8.180 -1.4741  2.5857  0.4628
13803SOL     OW46346   6.248   3.581   5.396 -0.5298  0.7644  0.2542
13803SOL    HW146347   6.267   3.650   5.331  2.1516  1.5105  1.6727
13803SOL    HW246348   6.286   3.502   5.358 -0.3220  0.8702  0.2400
13804SOL     OW46349  11.336   4.312   2.049 -0.6820  0.5859  0.6842
13804SOL    HW146350  11.270   4.276   1.989 -1.6605  2.0149  0.8446
13804SOL    HW246351  11.288   4.375   2.102  0.5770  0.7425  1.6821
13805SOL     OW46352   2.825   2.835   0.400 -0.0332  0.2019 -0.4538
13805SOL    HW146353   2.871   2.856   0.318  0.6047 -0.2998 -0.2315
13805SOL    HW246354   2.758   2.772   0.374  0.7156 -0.6097 -0.4679
13806SOL     OW46355   2.776   0.264  10.388 -0.1578 -0.2192  0.2303
13806SOL    HW146356   2.774   0.215  10.470 -0.1216  2.9904  2.2996
13806SOL    HW246357   2.686   0.295  10.376  0.4207  1.6938  0.6348
13807SOL     OW46358   0.771   5.045   1.951  0.3029  0.2397 -0.4890
13807SOL    HW146359   0.785   4.960   1.909 -0.1755  0.2540 -0.6777
13807SOL    HW246360   0.798   5.031   2.042 -0.7442 -0.4128 -0.2589
13808SOL     OW46361   5.938   8.008  10.039 -0.1706 -0.1394 -0.0417
13808SOL    HW146362   5.886   7.946   9.988 -2.1727  0.5949  0.9797
13808SOL    HW246363   5.890   8.017  10.122  1.0280  1.3882  0.5407
13809SOL     OW46364   6.974  10.476   7.647 -0.7138  0.2742 -0.2330
13809SOL    HW146365   6.995  10.569   7.643 -1.9747  0.5506 -0.7803
13809SOL    HW246366   6.889  10.471   7.691 -0.3317 -0.6801  0.4403
13810SOL     OW46367   3.874   3.660   6.410  0.0009 -0.2477 -0.4505
13810SOL    HW146368   3.917   3.689   6.330  0.0935 -0.8230 -0.6123
13810SOL    HW246369   3.836   3.575   6.388  1.0977 -1.0123  0.4509
13811SOL     OW46370   2.056   9.341   4.454  0.2502 -0.3151 -0.3352
13811SOL    HW146371   2.085   9.417   4.404  1.4874  0.1996  1.0888
13811SOL    HW246372   2.083   9.266   4.403 -0.4413  0.1824 -1.4679
13812SOL     OW46373  10.880   4.436   0.540  0.3806 -0.0373  0.0047
13812SOL    HW146374  10.969   4.465   0.557  1.2198 -1.3998 -1.7027
13812SOL    HW246375  10.830   4.517   0.528  1.5263  0.7415  0.3644
13813SOL     OW46376   9.698   5.765   8.017 -0.4844 -0.5631 -0.1769
13813SOL    HW146377   9.633   5.807   7.960 -0.7288 -1.2997 -0.4547
13813SOL    HW246378   9.756   5.718   7.957 -0.4555 -0.9545  0.1508
13814SOL     OW46379   8.608   9.105  10.398  0.2821 -0.0829 -1.1779
13814SOL    HW146380   8.551   9.083  10.472  2.7493 -0.3398  0.7483
13814SOL    HW246381   8.607   9.201  10.394 -0.4411 -0.0896 -1.3351
13815SOL     OW46382   3.800  10.480   1.293 -0.5154  0.5741 -0.0966
13815SOL    HW146383   3.863  10.517   1.230 -0.2008  0.9452  0.4301
13815SOL    HW246384   3.714  10.497   1.253 -0.3942  2.0377  0.2045
13816SOL     OW46385   7.303   8.830  10.573  0.1650 -0.0732 -0.5625
13816SOL    HW146386   7.327   8.794  10.659  0.9560 -0.6607 -1.0112
13816SOL    HW246387   7.355   8.910  10.565 -1.0902  0.8394  0.1535
13817SOL     OW46388  11.332   2.707   1.701  0.0358  0.4958  0.4096
13817SOL    HW146389  11.422   2.731   1.679  0.1880 -0.5723 -0.2141
13817SOL    HW246390  11.279   2.757   1.639  0.4329 -1.9575 -2.1582
13818SOL     OW46391   3.255  10.772   9.671 -0.4552 -0.0083 -0.2178
13818SOL    HW146392   3.170  10.783   9.628  0.2768  2.1032 -1.2904
13818SOL    HW246393   3.242  10.701   9.733 -2.9476  0.1246 -0.4915
13819SOL     OW46394   8.534   9.427   7.896  0.0663 -0.4815 -0.2408
13819SOL    HW146395   8.454   9.467   7.862 -0.4800  1.0038  2.5278
13819SOL    HW246396   8.590   9.501   7.920  0.9880 -1.4388  0.6663
13820SOL     OW46397   9.790  10.008   4.097 -0.0897 -0.0121 -0.8803
13820SOL    HW146398   9.740   9.960   4.032 -1.6198  0.5712 -0.1880
13820SOL    HW246399   9.768   9.966   4.181  1.2580 -0.2794 -0.6340
13821SOL     OW46400   7.802   1.955   7.546 -0.5321  0.1641  0.3920
13821SOL    HW146401   7.894   1.948   7.572  0.2420  1.0144 -1.8540
13821SOL    HW246402   7.771   1.865   7.540 -0.3709 -0.1077  2.6795
13822SOL     OW46403   0.350  10.420   0.678  0.8632  0.4337 -0.3494
13822SOL    HW146404   0.391  10.483   0.618 -0.5512  1.3407 -0.4026
13822SOL    HW246405   0.279  10.469   0.719 -0.3182 -1.1494 -0.4134
13823SOL     OW46406   9.529  11.484   2.265 -0.1651 -0.3470 -0.3464
13823SOL    HW146407   9.445  11.468   2.307  0.3171 -4.6627 -0.6277
13823SOL    HW246408   9.513  11.470   2.172  0.8385 -1.3653 -0.3911
13824SOL     OW46409   5.085   9.526   0.283  0.0988 -0.1788 -0.6263
13824SOL    HW146410   5.034   9.597   0.241  1.0234  1.2271  0.5308
13824SOL    HW246411   5.149   9.572   0.337 -0.7271 -1.8969  1.9768
13825SOL     OW46412   9.274   1.244   4.619 -0.1920 -0.2186 -0.2757
13825SOL    HW146413   9.236   1.188   4.687 -0.1241 -0.7566 -0.6762
13825SOL    HW246414   9.313   1.184   4.557 -0.5200  0.2507 -0.9553
13826SOL     OW46415   7.577   9.964   8.474  0.3167 -0.3751  0.5087
13826SOL    HW146416   7.551   9.934   8.387 -0.9756  0.6827  0.5013
13826SOL    HW246417   7.672   9.976   8.467  0.4927 -1.9829 -0.2094
13827SOL     OW46418  10.180   5.428   7.519 -0.1802  0.4043  0.1489
13827SOL    HW146419  10.249   5.492   7.539  0.0023  0.5511 -0.9013
13827SOL    HW246420  10.110   5.450   7.580  0.0561  1.3357  0.1103
13828SOL     OW46421   3.022   1.919   2.761 -0.3926 -0.1300  0.0280
13828SOL    HW146422   2.961   1.966   2.705 -1.5475 -2.9353 -1.2329
13828SOL    HW246423   2.971   1.895   2.838 -0.3881 -0.9650 -0.2225
13829SOL     OW46424   4.191   7.371  10.321 -0.1931 -0.0011 -0.0579
13829SOL    HW146425   4.273   7.406  10.356 -0.9932  0.2591  1.7254
13829SOL    HW246426   4.138   7.449  10.303 -0.8390 -0.1722  0.9646
13830SOL     OW46427   4.129   3.670   5.419 -0.8967  0.1111 -0.5019
13830SOL    HW146428   4.201   3.615   5.450  1.1947  1.1565 -3.1645
13830SOL    HW246429   4.140   3.753   5.466 -0.9694 -0.0546 -0.1892
13831SOL     OW46430   8.968   4.055   2.779  0.6659  0.9339 -0.4558
13831SOL    HW146431   8.970   4.151   2.775  1.3681  0.9807  0.5693
13831SOL    HW246432   9.060   4.030   2.793  0.5086  0.1068 -0.8766
13832SOL     OW46433   4.388   5.562   3.556  0.1287  0.4591 -0.6997
13832SOL    HW146434   4.418   5.574   3.466 -0.8961  0.5575 -1.0399
13832SOL    HW246435   4.311   5.619   3.563 -0.4348 -0.3656 -0.0926
13833SOL     OW46436   1.889   9.590   2.057 -0.3889 -0.5306 -0.4779
13833SOL    HW146437   1.886   9.663   2.120  0.0922 -0.9462  0.0376
13833SOL    HW246438   1.979   9.592   2.023  0.5002 -2.4632  1.4772
13834SOL     OW46439   0.194   8.714   1.020 -0.1994  0.2872  0.1237
13834SOL    HW146440   0.176   8.620   1.020  0.9342 -0.0835  3.6915
13834SOL    HW246441   0.267   8.725   0.960 -0.6946 -1.0076 -0.7491
13835SOL     OW46442   6.035   6.634   1.647 -0.8441 -0.2564  0.3181
13835SOL    HW146443   6.012   6.685   1.569 -0.0820  0.9227  0.8451
13835SOL    HW246444   6.093   6.566   1.614 -0.5781  0.1930 -0.1637
13836SOL     OW46445   5.273   3.762   0.629  0.1783 -0.6773  0.4055
13836SOL    HW146446   5.243   3.742   0.718 -1.0858 -0.5164  0.0413
13836SOL    HW246447   5.333   3.835   0.639  1.0092 -1.4600  1.2489
13837SOL     OW46448   9.322   9.734   7.005  0.3836 -0.9569 -0.3110
13837SOL    HW146449   9.391   9.701   7.062  0.3770 -0.3773  0.0461
13837SOL    HW246450   9.314   9.669   6.935  2.2277 -0.3828 -1.1244
13838SOL     OW46451  11.512   3.009   2.059 -0.3496 -0.1513 -0.2403
13838SOL    HW146452  11.445   3.070   2.092 -0.5789 -1.4960  2.0134
13838SOL    HW246453  11.594   3.057   2.067 -0.8455  0.9944 -1.6446
13839SOL     OW46454   8.192   0.784   9.026 -0.3140 -0.3075  0.0064
13839SOL    HW146455   8.102   0.772   8.996  0.0320 -2.2329 -0.4078
13839SOL    HW246456   8.209   0.877   9.014 -2.6664  0.3799  1.3346
13840SOL     OW46457  10.682   6.582  11.081 -0.4050  0.0593 -0.1673
13840SOL    HW146458  10.614   6.516  11.088 -0.8853  0.4736 -0.8395
13840SOL    HW246459  10.710   6.597  11.172 -0.2290 -1.1123 -0.0147
13841SOL     OW46460   7.275   6.074  11.458 -0.7060  0.1475  0.3630
13841SOL    HW146461   7.277   5.990  11.411 -0.6459 -0.0141  0.6507
13841SOL    HW246462   7.185   6.105  11.447 -1.0313 -0.4718  1.1411
13842SOL     OW46463   7.080  10.137   2.173  0.6146  0.6402 -0.0314
13842SOL    HW146464   7.005  10.181   2.134 -0.3771 -0.1277  0.9292
13842SOL    HW246465   7.055  10.126   2.265  1.5469 -0.3899  0.1148
13843SOL     OW46466   0.173   3.818   9.719  0.5289 -0.7146 -0.2773
13843SOL    HW146467   0.172   3.726   9.694  1.9315 -1.2357  1.3562
13843SOL    HW246468   0.257   3.851   9.687  0.2209 -0.1087 -0.4824
13844SOL     OW46469  10.851   5.703  10.086 -0.0377  0.3597 -0.1600
13844SOL    HW146470  10.827   5.667  10.171 -1.5101  1.2488 -0.1616
13844SOL    HW246471  10.831   5.633  10.024 -1.2960  0.5549  0.0011
13845SOL     OW46472   2.237   2.375   0.281 -0.0757  0.0244  0.1897
13845SOL    HW146473   2.142   2.367   0.291 -0.0247 -0.5563  0.2111
13845SOL    HW246474   2.257   2.327   0.201  0.1107  0.7749 -0.2234
13846SOL     OW46475   5.542   0.293   0.893  0.7524 -0.0442  0.7943
13846SOL    HW146476   5.610   0.344   0.937 -0.3455  1.6200  0.6717
13846SOL    HW246477   5.557   0.308   0.799  0.6408 -0.2242  0.7476
13847SOL     OW46478   7.893   5.397   1.555 -0.3861  0.5593 -0.1836
13847SOL    HW146479   7.810   5.354   1.536  0.1039 -0.2192 -0.5912
13847SOL    HW246480   7.914   5.370   1.644  0.3345 -0.7570 -0.7283
13848SOL     OW46481   1.728   3.712   6.803  0.1222  0.2203  0.0137
13848SOL    HW146482   1.697   3.622   6.794  0.0570  0.4334 -2.7515
13848SOL    HW246483   1.823   3.704   6.805  0.1995  0.1133 -1.9304
13849SOL     OW46484   4.701   7.016   6.538 -0.6278 -0.2111 -0.2139
13849SOL    HW146485   4.788   6.978   6.545 -0.9191 -0.8344  0.0666
13849SOL    HW246486   4.716   7.111   6.532  0.1496 -0.3886 -1.6025
13850SOL     OW46487   6.725   8.762   5.775  0.1113  0.0003 -0.0143
13850SOL    HW146488   6.669   8.837   5.756 -0.7286 -0.3545  0.9736
13850SOL    HW246489   6.770   8.786   5.857  1.0449  0.0772 -0.5367
13851SOL     OW46490   1.523   2.514   7.504 -0.5344  0.2905 -0.3342
13851SOL    HW146491   1.537   2.467   7.421 -0.6478 -0.2288 -0.0585
13851SOL    HW246492   1.554   2.454   7.571 -0.9134  0.5095  0.0409
13852SOL     OW46493   5.473   2.627   3.101  0.5431  0.0584  0.1511
13852SOL    HW146494   5.524   2.677   3.038 -0.1483  0.0598 -0.4175
13852SOL    HW246495   5.455   2.689   3.172  2.2498 -0.2444  0.9010
13853SOL     OW46496   3.481   4.399  10.118  0.2676 -0.8660 -0.2718
13853SOL    HW146497   3.455   4.311  10.143  2.7987 -0.7754  3.4679
13853SOL    HW246498   3.554   4.387  10.058  1.2146 -1.3730  0.9594
13854SOL     OW46499   3.107   6.209   1.335 -0.0057 -0.5293 -0.0323
13854SOL    HW146500   3.059   6.178   1.258  0.7736 -0.7202 -0.4483
13854SOL    HW246501   3.085   6.147   1.404 -0.7837 -0.3046 -0.0625
13855SOL     OW46502   8.532   4.635   4.363 -0.3061 -0.4728 -0.2731
13855SOL    HW146503   8.604   4.686   4.398 -1.2216  0.3370  0.4966
13855SOL    HW246504   8.542   4.548   4.403  1.3800 -1.0262 -1.7576
13856SOL     OW46505   5.311  10.499  11.077  1.0370 -0.4565 -0.4013
13856SOL    HW146506   5.403  10.487  11.055  0.9562 -0.3217 -0.8421
13856SOL    HW246507   5.285  10.578  11.030  1.0540  0.3180  0.8539
13857SOL     OW46508  11.030   8.046   2.088 -0.4510  0.8583 -0.3115
13857SOL    HW146509  11.001   8.015   2.003 -0.8312  1.7980 -0.5310
13857SOL    HW246510  10.953   8.086   2.127 -0.0249  1.3254  0.0628
13858SOL     OW46511   0.626   8.683  11.684  0.1590 -0.0170 -0.0904
13858SOL    HW146512   0.550   8.687  11.742 -1.0753  0.6401 -1.6631
13858SOL    HW246513   0.631   8.592  11.657  0.4015 -0.2136  0.6098
13859SOL     OW46514   1.461  10.833   3.283  0.1566 -0.4117 -0.1571
13859SOL    HW146515   1.474  10.832   3.377  0.0272 -0.4524 -0.1393
13859SOL    HW246516   1.524  10.770   3.249  0.5500 -0.0279 -0.1435
13860SOL     OW46517   4.584   9.273   3.041  0.6362  0.1795 -0.7110
13860SOL    HW146518   4.574   9.308   3.130 -2.7903  1.1607 -1.3204
13860SOL    HW246519   4.591   9.178   3.053 -0.1867  0.2615  0.6289
13861SOL     OW46520   0.149   4.232   5.122 -0.1912 -0.0127 -0.3009
13861SOL    HW146521   0.075   4.171   5.120 -1.4759  1.3764  1.4051
13861SOL    HW246522   0.126   4.298   5.056 -0.7164  0.6399  0.5153
13862SOL     OW46523   5.662   3.214  11.663 -0.2128  0.3398 -0.2374
13862SOL    HW146524   5.581   3.183  11.702  1.3289  0.0216  3.0212
13862SOL    HW246525   5.720   3.138  11.664  1.3897  1.4817  1.4104
13863SOL     OW46526   6.857   2.456   5.774  0.3133 -0.1609  0.1266
13863SOL    HW146527   6.939   2.499   5.752 -0.0404  0.5993  0.2776
13863SOL    HW246528   6.809   2.451   5.691  0.6868 -1.0171 -0.0536
13864SOL     OW46529   9.630   9.897   9.755  0.4121 -0.3645  0.4368
13864SOL    HW146530   9.693   9.964   9.727 -1.0511  1.3327  1.0361
13864SOL    HW246531   9.661   9.870   9.842  1.3422 -0.9479 -0.0530
13865SOL     OW46532  11.301   8.921   1.774 -0.5764  0.1705  0.1492
13865SOL    HW146533  11.277   8.829   1.763  1.0233 -0.2403 -0.1341
13865SOL    HW246534  11.247   8.968   1.710 -2.0209 -0.4521  0.8888
13866SOL     OW46535   8.243   9.734   5.449  0.3013  0.3460  0.1218
13866SOL    HW146536   8.218   9.735   5.357 -2.0517 -3.4781  0.5009
13866SOL    HW246537   8.167   9.770   5.495  0.7526  0.6388  0.6443
13867SOL     OW46538  10.898   7.696   2.229 -0.7185 -0.8582  0.4401
13867SOL    HW146539  10.882   7.644   2.151  2.3716 -1.4042  0.0478
13867SOL    HW246540  10.891   7.787   2.200 -3.8619 -0.9278  0.6190
13868SOL     OW46541   8.132   9.241   5.765 -0.2763 -0.4951  0.2203
13868SOL    HW146542   8.201   9.188   5.807 -1.8469 -0.5733  2.9806
13868SOL    HW246543   8.154   9.331   5.789 -0.9020 -0.4849  0.7615
13869SOL     OW46544  10.366   6.054   3.397  0.5661  0.2598 -0.6854
13869SOL    HW146545  10.443   6.060   3.454 -0.0629 -0.0764  0.2254
13869SOL    HW246546  10.295   6.028   3.455 -0.4129  1.3071 -1.3792
13870SOL     OW46547   6.670   3.328   8.725  0.1570 -0.5806 -0.4030
13870SOL    HW146548   6.671   3.331   8.630 -1.6480 -0.4631 -0.4501
13870SOL    HW246549   6.731   3.397   8.752  1.1992 -1.0619 -1.4471
13871SOL     OW46550   6.288   7.025   9.480  0.0769 -0.2838  0.0322
13871SOL    HW146551   6.223   7.002   9.414  1.4951 -1.7393 -0.9265
13871SOL    HW246552   6.348   7.085   9.435  1.7161 -2.1796 -0.4813
13872SOL     OW46553   1.715   3.195  11.314 -0.2672  0.0785 -0.1109
13872SOL    HW146554   1.771   3.124  11.282  0.4482  1.2267 -1.5561
13872SOL    HW246555   1.755   3.274  11.278  0.0969  1.4467  3.0071
13873SOL     OW46556   5.971   1.399   4.402 -0.3011 -0.7662 -0.2145
13873SOL    HW146557   5.891   1.451   4.406 -1.0014 -1.6530 -1.6821
13873SOL    HW246558   5.989   1.374   4.493 -0.8392  0.6624  0.3090
13874SOL     OW46559   2.695   3.366   6.800 -0.3702 -0.4959 -0.6781
13874SOL    HW146560   2.625   3.431   6.790 -0.8057 -1.0107 -1.0484
13874SOL    HW246561   2.707   3.358   6.894 -2.2035 -1.8395 -0.4972
13875SOL     OW46562  10.038   8.841   3.525 -0.1442 -0.1454 -0.5195
13875SOL    HW146563   9.996   8.919   3.488  0.1628 -0.8382 -2.4594
13875SOL    HW246564  10.113   8.825   3.468  0.2251 -1.4252  0.2887
13876SOL     OW46565   1.655   6.921   0.165 -0.1828  0.0015 -0.6706
13876SOL    HW146566   1.568   6.926   0.204 -0.4327  1.3738 -1.3640
13876SOL    HW246567   1.715   6.921   0.240 -0.7564 -0.9430 -0.1912
13877SOL     OW46568   5.776   4.574   0.275  0.1379 -0.2862 -0.1475
13877SOL    HW146569   5.771   4.614   0.362  0.3130  1.8469 -1.0802
13877SOL    HW246570   5.835   4.500   0.287 -0.4573 -0.5214  1.7062
13878SOL     OW46571   5.737   0.067   1.047 -0.2498  0.0929  0.8377
13878SOL    HW146572   5.696  -0.004   1.096 -1.5774  0.8915  0.9252
13878SOL    HW246573   5.666   0.105   0.996  1.0554 -0.7420 -1.8057
13879SOL     OW46574   9.722   7.520   6.496 -0.5228 -0.6974 -0.3550
13879SOL    HW146575   9.717   7.605   6.540 -1.0468 -0.8088 -0.1906
13879SOL    HW246576   9.665   7.463   6.548  2.7873 -2.2458  1.9414
13880SOL     OW46577  10.322   5.680  10.526 -0.5581 -1.1859  0.3448
13880SOL    HW146578  10.331   5.641  10.613  0.3357  0.1717  0.8924
13880SOL    HW246579  10.411   5.688  10.493 -0.7054  0.3144  0.2364
13881SOL     OW46580   3.223  11.470  11.269 -0.4240  0.5359 -0.3440
13881SOL    HW146581   3.289  11.531  11.235  2.4979 -1.0857  1.9319
13881SOL    HW246582   3.179  11.518  11.339  1.2918  0.3994  0.8879
13882SOL     OW46583   0.319   2.903   7.075 -0.1305 -0.2868  0.5257
13882SOL    HW146584   0.355   2.921   7.162 -1.9933 -3.0185  2.0233
13882SOL    HW246585   0.241   2.958   7.070 -0.0969 -0.2296  0.6329
13883SOL     OW46586   3.315  10.401  10.350 -0.3477  0.1476 -0.0708
13883SOL    HW146587   3.283  10.374  10.264  2.4952  2.5152 -2.0980
13883SOL    HW246588   3.245  10.378  10.410 -2.1728 -2.3515 -2.8689
13884SOL     OW46589   0.920   9.485   7.434  0.9047  0.0733  0.4133
13884SOL    HW146590   0.853   9.459   7.497 -0.9193  0.0403 -1.4337
13884SOL    HW246591   0.951   9.570   7.466 -1.5764  1.1243  0.2587
13885SOL     OW46592  10.963  11.011   8.446 -0.1757 -0.4049  0.3824
13885SOL    HW146593  10.967  11.105   8.464  1.3922 -0.8234  2.6336
13885SOL    HW246594  10.998  11.002   8.358 -0.7531  1.1286 -0.0457
13886SOL     OW46595   0.768   9.636   6.506  0.6879 -0.0392  0.1291
13886SOL    HW146596   0.702   9.700   6.479  0.3832 -0.6665 -0.6532
13886SOL    HW246597   0.718   9.564   6.544  0.9757 -0.1277  0.3419
13887SOL     OW46598   5.835   1.774   6.373 -0.2632  0.3132  0.0183
13887SOL    HW146599   5.797   1.755   6.287 -1.7372  2.5648  0.0940
13887SOL    HW246600   5.799   1.707   6.431 -0.4894 -0.2996 -0.8193
13888SOL     OW46601   0.396   0.852  10.559  0.1116 -0.2103 -0.2890
13888SOL    HW146602   0.336   0.893  10.621  0.7724 -0.7406  0.7399
13888SOL    HW246603   0.340   0.800  10.502 -0.3244 -3.0768  2.4526
13889SOL     OW46604   9.998   8.369   5.393 -0.5142 -0.4891  0.3306
13889SOL    HW146605   9.993   8.397   5.302 -0.8883  0.6234  0.6717
13889SOL    HW246606   9.949   8.436   5.441  0.2289 -0.7068  1.4236
13890SOL     OW46607   9.214   9.507   3.958 -0.2919 -0.2921  0.4475
13890SOL    HW146608   9.123   9.536   3.968 -0.7113 -1.1760 -0.7146
13890SOL    HW246609   9.256   9.534   4.040 -1.8423 -0.7941  1.4433
13891SOL     OW46610   8.354   8.480   9.914 -0.9848  0.2867 -0.0746
13891SOL    HW146611   8.334   8.406   9.857  0.8420 -0.1150 -0.2599
13891SOL    HW246612   8.293   8.549   9.887 -1.0675 -0.3450 -1.5580
13892SOL     OW46613  11.244   5.939   7.985 -0.4333 -0.4105  0.1496
13892SOL    HW146614  11.200   5.882   8.048  1.9036 -0.8735  1.5086
13892SOL    HW246615  11.316   5.886   7.951 -1.0087  0.2005 -2.1703
13893SOL     OW46616   0.649   9.699  10.748  0.2803 -0.2465 -0.7128
13893SOL    HW146617   0.649   9.724  10.656 -0.5554 -3.3876 -1.6669
13893SOL    HW246618   0.718   9.633  10.755 -0.3439 -0.7851  0.7007
13894SOL     OW46619   3.880   5.855  11.381 -0.0783 -0.3486  0.4853
13894SOL    HW146620   3.858   5.787  11.318  0.4768  0.5915 -0.7561
13894SOL    HW246621   3.796   5.879  11.421 -0.7777  0.4758 -1.3829
13895SOL     OW46622   1.010  10.589   8.069  0.2905 -0.2641  0.2246
13895SOL    HW146623   0.975  10.508   8.104  0.5832 -0.8607 -0.8382
13895SOL    HW246624   1.061  10.626   8.141 -0.9456 -0.3239  1.1590
13896SOL     OW46625   1.465   4.017   3.510 -0.7936 -0.1192 -0.2239
13896SOL    HW146626   1.500   4.076   3.443  1.3121 -0.6582  0.3028
13896SOL    HW246627   1.408   3.957   3.461 -0.0081  0.0573 -1.4201
13897SOL     OW46628   1.927   0.522   2.744  0.4913 -0.0867  0.7876
13897SOL    HW146629   1.837   0.539   2.772  0.4487  0.9731  0.0562
13897SOL    HW246630   1.917   0.474   2.661  0.5683  1.0562  0.0945
13898SOL     OW46631   0.981   2.378   6.926 -0.2576 -0.0189 -0.5011
13898SOL    HW146632   1.020   2.293   6.945 -2.5019 -0.7804  1.0815
13898SOL    HW246633   1.004   2.432   7.002  0.3736  0.5552 -1.0741
13899SOL     OW46634   5.012   1.600   8.250 -0.2172  0.3706 -0.2395
13899SOL    HW146635   5.105   1.581   8.264  0.1960  1.6557 -1.1088
13899SOL    HW246636   4.982   1.632   8.335 -0.6002 -2.6261  0.8720
13900SOL     OW46637   8.010   1.137  11.672  0.1859 -0.0545  0.3601
13900SOL    HW146638   7.972   1.157  11.587 -2.3391 -1.2803  1.1134
13900SOL    HW246639   7.941   1.156  11.735  2.1772  1.4039  2.2717
13901SOL     OW46640  10.362   5.807   4.103  0.1434  0.9601 -0.5779
13901SOL    HW146641  10.280   5.793   4.152  0.1354  2.8330  0.0229
13901SOL    HW246642  10.430   5.778   4.164  0.1056  2.8778  0.4550
13902SOL     OW46643   6.522   8.202   1.543 -0.2132  0.5803  0.4416
13902SOL    HW146644   6.501   8.292   1.518  1.9648  0.7388 -1.1530
13902SOL    HW246645   6.460   8.149   1.493 -0.1975  1.1563 -0.2199
13903SOL     OW46646   6.900   6.318   9.613 -0.4886  0.2607 -0.1319
13903SOL    HW146647   6.920   6.345   9.702  2.4017  2.7305 -1.3287
13903SOL    HW246648   6.893   6.400   9.564 -0.8588 -1.0211 -2.3680
13904SOL     OW46649  10.416   6.879  11.577 -0.1335 -0.6687 -0.1865
13904SOL    HW146650  10.471   6.945  11.533  0.6100  0.3034  2.0607
13904SOL    HW246651  10.327   6.901  11.550  0.2732 -0.0451 -1.1066
13905SOL     OW46652   9.036   1.861   3.830 -0.0460 -0.3688 -0.0579
13905SOL    HW146653   9.002   1.815   3.754  0.3617 -0.4330 -0.2076
13905SOL    HW246654   8.980   1.937   3.840  0.3764  0.0645 -0.9085
13906SOL     OW46655   6.761   2.507   7.220 -0.0327 -0.3607 -0.2556
13906SOL    HW146656   6.748   2.551   7.304  0.4215  1.4979 -1.0909
13906SOL    HW246657   6.741   2.416   7.237  2.1000 -0.4737  2.4236
13907SOL     OW46658   4.670   0.370   9.627 -0.2460  0.1461 -0.8392
13907SOL    HW146659   4.751   0.347   9.672  1.0267  1.0288 -2.5634
13907SOL    HW246660   4.644   0.453   9.667 -0.3871 -0.2032 -0.1905
13908SOL     OW46661   5.193  11.258  10.883  0.1645 -0.3800 -0.4248
13908SOL    HW146662   5.235  11.343  10.899 -1.0329  0.1320  0.1658
13908SOL    HW246663   5.166  11.229  10.970 -0.9052 -0.5662 -0.8080
13909SOL     OW46664  11.269   1.626  11.385  0.2472  0.1046 -0.5392
13909SOL    HW146665  11.202   1.640  11.452  0.5782  0.1345 -0.2074
13909SOL    HW246666  11.308   1.713  11.371  0.3115  0.0625 -0.6242
13910SOL     OW46667   5.160  10.461   4.085 -0.2999  0.3322 -0.4386
13910SOL    HW146668   5.105  10.387   4.110  0.8690 -0.1617  0.7558
13910SOL    HW246669   5.128  10.534   4.138 -0.4512  0.3041 -0.4902
13911SOL     OW46670  11.434   6.979   5.330  0.4276  0.5376 -0.1911
13911SOL    HW146671  11.415   6.920   5.257 -1.3366 -0.0786  0.7225
13911SOL    HW246672  11.521   6.952   5.360  0.7093  0.0815 -1.3686
13912SOL     OW46673   0.039   0.306   8.238  0.5234  0.8492 -0.4420
13912SOL    HW146674   0.020   0.363   8.163 -0.3195  1.0137 -0.1131
13912SOL    HW246675   0.133   0.289   8.232  0.5585  1.2799 -1.2425
13913SOL     OW46676   0.244  10.550   2.509  0.3373  0.1512  0.7286
13913SOL    HW146677   0.213  10.469   2.549 -0.8150  0.1253 -0.1644
13913SOL    HW246678   0.327  10.526   2.468 -1.3644 -1.4507 -2.1412
13914SOL     OW46679   3.376   3.336   3.039  0.7622  0.3871  0.1397
13914SOL    HW146680   3.449   3.283   3.007  1.2593 -0.6749  2.7871
13914SOL    HW246681   3.405   3.368   3.124 -1.1757  1.4717  0.4521
13915SOL     OW46682   8.069   7.062  10.207  0.4985  0.0753 -0.6949
13915SOL    HW146683   8.122   6.984  10.191  0.4693 -0.4277  1.3084
13915SOL    HW246684   8.029   7.046  10.293  1.0251  2.5657  0.1062
13916SOL     OW46685   4.863   9.528  10.757 -0.2864 -0.2852  0.7993
13916SOL    HW146686   4.957   9.508  10.766 -0.2226 -1.7524 -2.1218
13916SOL    HW246687   4.829   9.460  10.698 -2.2998  2.4833 -1.5123
13917SOL     OW46688   4.112  10.448   0.710  0.4288 -0.0938 -0.0172
13917SOL    HW146689   4.163  10.510   0.658  0.9022 -1.5252 -1.2984
13917SOL    HW246690   4.174  10.413   0.774  0.0813  0.9533  0.9231
13918SOL     OW46691   0.480   8.385  10.090  0.6963  0.0474 -0.2316
13918SOL    HW146692   0.498   8.460  10.147  0.4421 -0.3255  0.3455
13918SOL    HW246693   0.428   8.422  10.018 -1.4704  0.0629  1.2222
13919SOL     OW46694   0.937   9.977   7.653 -0.0067  0.2646 -0.6982
13919SOL    HW146695   0.863   9.926   7.686  0.3647  0.1813  0.0168
13919SOL    HW246696   0.898  10.034   7.586 -0.9238  0.9912  0.4229
13920SOL     OW46697   2.347   1.468   4.856  0.0482  0.2383  0.5396
13920SOL    HW146698   2.259   1.461   4.894 -1.4820 -0.0625 -2.6918
13920SOL    HW246699   2.336   1.529   4.783  2.3094 -0.5276 -0.5113
13921SOL     OW46700   9.026   4.615  10.900 -0.0840  0.3484  0.2060
13921SOL    HW146701   9.080   4.686  10.934  0.0083 -0.2442  1.3363
13921SOL    HW246702   8.992   4.570  10.977 -1.6218  0.2562 -0.4803
13922SOL     OW46703  11.310   9.609   6.483 -0.2966 -0.5948  0.0759
13922SOL    HW146704  11.221   9.575   6.483 -1.2210  1.6156  0.4569
13922SOL    HW246705  11.327   9.629   6.391 -0.5763 -0.1537  0.1155
13923SOL     OW46706   7.851  10.263   8.387  0.0916  0.3744  0.7326
13923SOL    HW146707   7.829  10.312   8.308  1.0095 -0.3381  0.0094
13923SOL    HW246708   7.846  10.327   8.458 -0.4869  1.0843  0.0561
13924SOL     OW46709   1.097  11.182   0.010  0.7399  0.1055 -0.3361
13924SOL    HW146710   1.176  11.155   0.056  2.0709  2.0134 -1.3629
13924SOL    HW246711   1.097  11.132  -0.071  0.8526  0.0456 -0.3000
13925SOL     OW46712   9.859   8.748   2.335  0.3902  0.4401 -0.9573
13925SOL    HW146713   9.862   8.842   2.316  0.5053  0.5726 -0.3090
13925SOL    HW246714   9.917   8.737   2.410 -0.9459  0.1129  0.0621
13926SOL     OW46715   9.502  11.106  11.593 -0.0426  0.5600  0.0825
13926SOL    HW146716   9.424  11.115  11.648 -0.7733 -0.0413 -0.8028
13926SOL    HW246717   9.498  11.016  11.562  2.4336 -0.3227  2.0426
13927SOL     OW46718   3.051   7.706   0.476  0.3226 -0.4500 -0.8600
13927SOL    HW146719   3.071   7.648   0.402 -0.5481 -0.9626 -0.7018
13927SOL    HW246720   2.956   7.717   0.473  0.3215 -0.2064 -0.0155
13928SOL     OW46721  11.532   1.174  10.712 -0.1768  0.3193  0.3800
13928SOL    HW146722  11.489   1.260  10.705  0.8807  0.9319  1.1008
13928SOL    HW246723  11.461   1.113  10.727 -1.2580  0.6694 -2.7089
13929SOL     OW46724   0.684   8.732   9.947  0.1236  0.6692  0.3225
13929SOL    HW146725   0.622   8.693   9.885  1.0039 -0.0497 -0.1307
13929SOL    HW246726   0.712   8.813   9.906  0.2984  0.4556  0.0140
13930SOL     OW46727  10.129   1.263  10.440 -0.1963 -0.2962  0.2870
13930SOL    HW146728  10.192   1.299  10.503 -0.3562 -0.8462  0.7734
13930SOL    HW246729  10.085   1.340  10.404 -1.5834  0.0075  2.3890
13931SOL     OW46730   9.968  10.304   1.678  0.7114  0.2699  0.5093
13931SOL    HW146731  10.013  10.221   1.662 -1.1487 -0.9258  1.1648
13931SOL    HW246732   9.951  10.305   1.772  1.6221  1.9191  0.6974
13932SOL     OW46733  10.800   1.761   5.631  0.0148  0.0754 -0.7962
13932SOL    HW146734  10.894   1.766   5.647 -0.0910 -0.2462  0.0150
13932SOL    HW246735  10.771   1.684   5.680 -1.0499  1.5833  1.0980
13933SOL     OW46736  10.045   9.877   1.499  0.1108 -0.9753  0.1644
13933SOL    HW146737  10.105   9.803   1.511  0.5408 -0.8034 -0.8257
13933SOL    HW246738   9.964   9.837   1.466  0.0296 -1.0923  0.4979
13934SOL     OW46739  10.701   1.119   4.456 -0.6349  0.4690  0.0004
13934SOL    HW146740  10.654   1.043   4.491 -0.2243 -0.3691 -1.2110
13934SOL    HW246741  10.758   1.147   4.528  0.1668 -1.1855  0.0584
13935SOL     OW46742   6.695  10.628   0.282  0.0269 -0.1354  0.2244
13935SOL    HW146743   6.709  10.685   0.207  0.5743 -0.7983 -0.1846
13935SOL    HW246744   6.618  10.665   0.326  0.0711  0.6136 -0.3109
13936SOL     OW46745  10.005   9.721   3.839  0.1687 -0.3054 -0.5497
13936SOL    HW146746  10.010   9.734   3.745  1.6088  1.5822 -0.2608
13936SOL    HW246747   9.933   9.658   3.850  1.1894 -2.0691 -2.9883
13937SOL     OW46748  10.926   6.802   2.301  0.0064  0.2958  0.3626
13937SOL    HW146749  10.948   6.889   2.335 -1.2940  0.0806  1.8319
13937SOL    HW246750  11.001   6.748   2.325  0.9482  1.0352 -0.7977
13938SOL     OW46751  10.669   3.973   7.891  0.1498 -0.2843  0.1700
13938SOL    HW146752  10.696   3.901   7.947 -0.2418 -0.1922  0.4789
13938SOL    HW246753  10.728   4.044   7.913 -0.9096  0.2165  1.5149
13939SOL     OW46754   8.652   6.843   2.693 -0.0466 -0.1321 -0.1331
13939SOL    HW146755   8.739   6.810   2.668  0.3136  1.1329 -0.6098
13939SOL    HW246756   8.663   6.872   2.784 -0.3240 -1.1340  0.2364
13940SOL     OW46757   2.448   4.617   9.849  0.7261  0.9003 -0.0971
13940SOL    HW146758   2.448   4.525   9.875 -2.3803  0.2319 -1.9338
13940SOL    HW246759   2.400   4.661   9.919  0.2772  0.7242 -0.2933
13941SOL     OW46760   4.143   7.215   5.397  0.2588  0.2339  0.3815
13941SOL    HW146761   4.112   7.132   5.433  0.3933 -0.3808 -0.8719
13941SOL    HW246762   4.196   7.190   5.321  1.2176  1.4198  0.6223
13942SOL     OW46763   4.893   5.480   3.821  0.5377  0.3889  0.0178
13942SOL    HW146764   4.819   5.522   3.777 -0.1379  0.7726  1.4552
13942SOL    HW246765   4.955   5.551   3.837  0.5135  0.3609  0.2331
13943SOL     OW46766   0.559   4.653   5.360 -0.3845  0.3245  0.7776
13943SOL    HW146767   0.506   4.719   5.403 -0.5349  1.0180 -0.4195
13943SOL    HW246768   0.501   4.613   5.295  0.0962 -0.0289  0.5524
13944SOL     OW46769   0.517   0.580   1.275  0.0424 -0.1965 -0.3721
13944SOL    HW146770   0.428   0.551   1.295 -0.2837 -0.0217 -1.4743
13944SOL    HW246771   0.572   0.504   1.291 -0.5213 -0.7873 -1.1760
13945SOL     OW46772   4.381   9.372   9.402 -0.4148 -0.0561 -0.1403
13945SOL    HW146773   4.387   9.437   9.332  0.8156 -1.0766 -1.0192
13945SOL    HW246774   4.416   9.417   9.479 -1.5231  0.9863 -0.2077
13946SOL     OW46775  10.425   7.433   1.170  0.3217 -0.2064  0.5142
13946SOL    HW146776  10.421   7.526   1.189 -0.9665 -0.1165 -0.0861
13946SOL    HW246777  10.435   7.391   1.255 -0.4131  0.4193  0.9217
13947SOL     OW46778  10.435   2.446   7.540  0.4127  0.3782  0.2759
13947SOL    HW146779  10.402   2.530   7.574  2.4078  1.3986 -0.1772
13947SOL    HW246780  10.498   2.417   7.606  1.3149  0.3385 -0.5874
13948SOL     OW46781  11.061   8.325   1.025 -0.4267 -0.1421 -0.1139
13948SOL    HW146782  11.104   8.395   0.975  0.6454 -0.7345 -0.0398
13948SOL    HW246783  11.054   8.360   1.114  0.1630 -0.1434 -0.0634
13949SOL     OW46784   0.163   6.059   1.505 -0.2969 -0.1744  0.8255
13949SOL    HW146785   0.130   6.147   1.525 -0.4357  0.5217 -1.9649
13949SOL    HW246786   0.109   6.000   1.559 -1.8196  1.3297  1.0417
13950SOL     OW46787   5.592   8.885   9.278  0.7542  0.0422 -0.1516
13950SOL    HW146788   5.597   8.793   9.303  1.9536  0.0276 -0.3901
13950SOL    HW246789   5.611   8.933   9.359 -1.6191  0.1499  0.4023
13951SOL     OW46790   4.282   0.781   1.731  0.4222 -0.1809  0.1638
13951SOL    HW146791   4.281   0.807   1.639  0.6999  1.7486  0.6464
13951SOL    HW246792   4.194   0.802   1.763  0.4120 -0.5778  0.4012
13952SOL     OW46793   7.656   1.081   2.287  0.4732 -0.1461 -0.4267
13952SOL    HW146794   7.568   1.108   2.313 -0.3183 -3.8812  1.4667
13952SOL    HW246795   7.675   1.131   2.208 -2.6964  1.9064 -0.0303
13953SOL     OW46796  11.308  10.984   4.946  0.6403 -0.1119 -0.4855
13953SOL    HW146797  11.244  11.040   4.992  0.6083  0.2273 -0.9364
13953SOL    HW246798  11.392  11.008   4.985  0.4851 -0.6729  0.2226
13954SOL     OW46799   9.698   3.866   5.048 -0.4537 -0.0018 -0.6841
13954SOL    HW146800   9.701   3.842   5.141  0.9703  1.0205 -0.4515
13954SOL    HW246801   9.617   3.916   5.039  0.9730  2.7706  0.7666
13955SOL     OW46802  11.469   0.436   6.425 -0.1865  0.3348  0.1063
13955SOL    HW146803  11.537   0.415   6.490 -0.3753 -0.9478 -0.0894
13955SOL    HW246804  11.513   0.496   6.364  0.8618 -0.6134 -0.1222
13956SOL     OW46805   7.484   7.837   9.251  0.7629  0.7275 -0.2694
13956SOL    HW146806   7.579   7.847   9.258  0.7355  0.6747  0.2041
13956SOL    HW246807   7.472   7.759   9.197  0.9864  1.0940 -0.8511
13957SOL     OW46808   7.004   1.394   8.115  0.2180 -0.2070  0.7664
13957SOL    HW146809   7.009   1.420   8.023 -2.4627  0.1841  0.6380
13957SOL    HW246810   7.095   1.382   8.142  1.0808 -0.7796 -2.0376
13958SOL     OW46811   8.555   8.808   4.174 -0.1028 -0.1741  0.5396
13958SOL    HW146812   8.525   8.757   4.249  0.4290 -0.5152  0.5223
13958SOL    HW246813   8.529   8.757   4.098  0.0398 -0.2056  0.5116
13959SOL     OW46814   0.894   6.092   4.286 -0.4915  0.6648 -0.7485
13959SOL    HW146815   0.864   6.087   4.195 -0.0310  2.0776 -1.0035
13959SOL    HW246816   0.823   6.054   4.337 -2.3843  3.0051 -1.4149
13960SOL     OW46817   8.418  10.367   3.648 -0.2377 -0.3551 -0.1415
13960SOL    HW146818   8.447  10.457   3.661 -0.2314 -0.4513  0.5501
13960SOL    HW246819   8.349  10.374   3.582 -0.3085  0.1721 -0.0220
13961SOL     OW46820   4.754   6.659   8.703  0.3331 -0.5666 -1.2825
13961SOL    HW146821   4.762   6.584   8.762  0.2785 -0.7716 -1.5342
13961SOL    HW246822   4.742   6.734   8.761  1.7810 -0.5503 -0.9623
13962SOL     OW46823   2.365   0.633   0.421 -0.5679 -0.2479  0.4405
13962SOL    HW146824   2.286   0.589   0.391 -0.8486 -0.6314  1.6880
13962SOL    HW246825   2.334   0.701   0.481 -0.0149  0.2772  0.1372
13963SOL     OW46826   2.631   8.596   9.549  0.0712  0.5356 -0.4827
13963SOL    HW146827   2.724   8.591   9.524 -0.0976 -0.6979 -0.9120
13963SOL    HW246828   2.623   8.538   9.624 -0.1541  1.4865  0.2474
13964SOL     OW46829   8.277   9.316   2.792 -0.1092  0.4720  0.1256
13964SOL    HW146830   8.300   9.248   2.729 -3.9462 -1.1535  0.2013
13964SOL    HW246831   8.208   9.367   2.748 -1.4221  0.6002  2.1857
13965SOL     OW46832   7.676   9.177   3.768  0.0443 -0.5036 -0.2282
13965SOL    HW146833   7.713   9.189   3.680  0.3174  0.0741 -0.0388
13965SOL    HW246834   7.594   9.129   3.753  0.3047 -0.7934 -0.7557
13966SOL     OW46835   3.937   8.356   5.773  0.6311 -0.2067  0.5078
13966SOL    HW146836   3.936   8.341   5.868 -0.8378 -1.1183  0.3890
13966SOL    HW246837   3.899   8.277   5.736 -1.8800  1.3963 -0.6166
13967SOL     OW46838   0.538  10.190   3.886  0.4326  0.2475 -0.1059
13967SOL    HW146839   0.508  10.241   3.811 -0.0968  0.8461  0.4896
13967SOL    HW246840   0.465  10.195   3.948 -0.4250 -2.7591 -0.7095
13968SOL     OW46841   4.576  11.058   1.680  0.1313 -0.2880 -0.0735
13968SOL    HW146842   4.495  11.080   1.634 -0.9792 -0.1707  1.8082
13968SOL    HW246843   4.573  11.110   1.760  1.4214 -1.2918  0.6707
13969SOL     OW46844   2.646   8.847  11.625  0.5324  0.0700  0.2843
13969SOL    HW146845   2.718   8.793  11.658  0.7011  0.8220  1.1902
13969SOL    HW246846   2.637   8.822  11.534  0.5694 -1.5371  0.6943
13970SOL     OW46847   2.371   8.199   5.046  0.2883 -0.0656  0.1886
13970SOL    HW146848   2.297   8.244   5.003  0.1057  0.6235  1.1967
13970SOL    HW246849   2.365   8.109   5.014  0.1050  0.3936 -1.1547
13971SOL     OW46850   6.886   0.631   5.097  0.4711 -0.2517 -0.1206
13971SOL    HW146851   6.970   0.661   5.130  0.4902 -0.2308 -0.1867
13971SOL    HW246852   6.825   0.703   5.115  0.7059  0.2090 -1.0845
13972SOL     OW46853  10.043   6.321  10.429  0.0499  0.7583 -0.0750
13972SOL    HW146854   9.994   6.353  10.353 -2.0127  0.6301  1.1135
13972SOL    HW246855   9.989   6.346  10.504 -0.3127 -2.9601  1.0903
13973SOL     OW46856   0.947   0.353   4.201 -0.5130  0.3050  0.4148
13973SOL    HW146857   1.037   0.331   4.177 -0.9851 -0.5962 -0.6436
13973SOL    HW246858   0.943   0.449   4.196  0.8424  0.5096  2.2775
13974SOL     OW46859   0.214   0.764   1.283  0.1709  0.4775 -0.0196
13974SOL    HW146860   0.170   0.759   1.198 -0.6829 -0.2980  0.4564
13974SOL    HW246861   0.188   0.849   1.318  0.6051  0.8469 -0.5533
13975SOL     OW46862   3.692   9.455   6.726  0.0436  0.4458 -0.2976
13975SOL    HW146863   3.611   9.417   6.692 -0.4180  2.1241 -1.1305
13975SOL    HW246864   3.678   9.459   6.821 -0.7794  0.5512 -0.4162
13976SOL     OW46865   1.064   0.370   4.608  0.3787 -0.1307  0.7139
13976SOL    HW146866   1.094   0.297   4.553  0.5096  1.6915 -1.7752
13976SOL    HW246867   1.139   0.430   4.612 -1.1206  2.0557 -1.3058
13977SOL     OW46868   5.714   3.778   1.849 -0.4238  0.1360  0.1434
13977SOL    HW146869   5.642   3.714   1.841 -2.3098  2.1201  0.4343
13977SOL    HW246870   5.741   3.793   1.758 -1.4680  0.5181 -0.1232
13978SOL     OW46871   6.020   4.740   8.027 -0.6456 -0.0672 -0.6320
13978SOL    HW146872   5.984   4.662   8.069 -0.3803 -0.3856 -0.9764
13978SOL    HW246873   6.091   4.706   7.972  0.7548  0.6135  0.6577
13979SOL     OW46874   4.354   3.513   8.017  0.1927  0.0045 -0.2663
13979SOL    HW146875   4.363   3.440   7.956  0.0328 -0.2421  0.0016
13979SOL    HW246876   4.331   3.472   8.101 -0.6759  0.4149 -0.2912
13980SOL     OW46877   4.459   2.797   5.117 -0.0058  0.0208  0.1783
13980SOL    HW146878   4.512   2.760   5.188  2.5166 -0.3411 -1.7709
13980SOL    HW246879   4.491   2.887   5.107 -1.7241  0.7468  0.7187
13981SOL     OW46880  10.179  10.631   8.819  0.0127 -0.1750 -0.5973
13981SOL    HW146881  10.242  10.701   8.839  1.5326 -1.1341 -1.7759
13981SOL    HW246882  10.097  10.660   8.859  0.9616  1.5787  0.1860
13982SOL     OW46883   3.730   9.163   2.886 -0.2271 -0.2318  0.7390
13982SOL    HW146884   3.749   9.140   2.977 -0.3476 -0.9843  0.5847
13982SOL    HW246885   3.656   9.107   2.862 -0.9011  0.7330  0.5057
13983SOL     OW46886   0.587  10.084   3.285 -0.0738 -0.2750  0.3278
13983SOL    HW146887   0.625   9.997   3.277  1.9264  0.6116 -0.7531
13983SOL    HW246888   0.531  10.093   3.207  0.7599 -0.1579 -0.2768
13984SOL     OW46889   3.064   9.019  11.214  0.0722 -0.0548 -1.1316
13984SOL    HW146890   3.132   9.047  11.276 -0.5044 -0.7193 -0.1842
13984SOL    HW246891   3.094   9.053  11.129  0.8939  0.8421 -0.5093
13985SOL     OW46892   5.205   7.586   4.002 -0.1414 -0.5669  0.1336
13985SOL    HW146893   5.154   7.565   3.924 -0.0471 -0.3349  0.0081
13985SOL    HW246894   5.270   7.515   4.008 -0.7112 -1.0647  0.5073
13986SOL     OW46895   8.284   4.952   1.681 -0.2567  0.3482 -0.5061
13986SOL    HW146896   8.248   5.038   1.661 -1.0168  0.1824  0.0978
13986SOL    HW246897   8.315   4.918   1.597  1.0403  1.6495 -0.5752
13987SOL     OW46898   9.348   6.043   1.564  0.1604 -0.0250  0.3647
13987SOL    HW146899   9.368   5.973   1.626  0.2805 -0.2722  0.0525
13987SOL    HW246900   9.378   6.009   1.480 -1.7359 -0.4859 -0.1629
13988SOL     OW46901   7.784   6.377   7.585 -0.1197 -0.2547 -0.2218
13988SOL    HW146902   7.760   6.307   7.646  1.7730 -1.0518 -0.3187
13988SOL    HW246903   7.794   6.333   7.501  0.0914  0.3261 -0.5041
13989SOL     OW46904   0.259   9.238   2.664 -0.0702 -0.1769  0.1353
13989SOL    HW146905   0.210   9.312   2.698  0.9021  0.8667 -0.6705
13989SOL    HW246906   0.344   9.274   2.638 -0.2769 -1.1532 -2.1168
13990SOL     OW46907   8.436   2.879  10.162  0.0591 -0.0710 -0.0697
13990SOL    HW146908   8.529   2.862  10.148  0.3081  1.4858 -0.5103
13990SOL    HW246909   8.429   2.897  10.256 -0.1183 -1.9081  0.2966
13991SOL     OW46910   4.411   2.097   8.726 -0.4629 -0.3796  0.1519
13991SOL    HW146911   4.446   2.186   8.725 -3.2346  0.8028  0.0108
13991SOL    HW246912   4.337   2.100   8.786 -0.3365 -2.7494  0.5489
13992SOL     OW46913   3.328   2.051   7.253  0.5050  0.1556 -0.2080
13992SOL    HW146914   3.297   2.017   7.169 -0.2799  1.1763 -0.3518
13992SOL    HW246915   3.286   1.995   7.318  0.9761 -0.5264 -0.4777
13993SOL     OW46916   8.489   4.609  11.550 -0.5913  0.5569 -0.1790
13993SOL    HW146917   8.502   4.703  11.545 -1.4923  0.8533  2.1187
13993SOL    HW246918   8.394   4.598  11.555 -0.4490 -0.3968  0.6236
13994SOL     OW46919   5.509   4.270   0.274  0.3170 -0.0536  0.2267
13994SOL    HW146920   5.575   4.320   0.322 -0.4731  1.1818  0.0582
13994SOL    HW246921   5.558   4.196   0.237  1.3629  0.1718  1.0899
13995SOL     OW46922   2.990   7.782   8.253  0.1655  0.0845 -0.0424
13995SOL    HW146923   3.013   7.697   8.289 -4.0480 -1.8454 -1.3792
13995SOL    HW246924   2.951   7.830   8.326 -3.3865 -1.7577 -0.5549
13996SOL     OW46925   4.945   8.301  10.412  0.1862  0.1440  0.4929
13996SOL    HW146926   4.991   8.385  10.420 -0.6823  0.6222  0.5200
13996SOL    HW246927   5.008   8.237  10.445  0.3709  0.9277  1.7232
13997SOL     OW46928   5.447   2.461   0.536 -0.8249 -0.3097 -0.0708
13997SOL    HW146929   5.522   2.493   0.585  0.2998 -1.0480 -1.2513
13997SOL    HW246930   5.440   2.368   0.561 -0.4637 -0.5995 -1.0012
13998SOL     OW46931   7.092   2.843   5.007 -0.4010  0.3235  0.5991
13998SOL    HW146932   7.131   2.775   4.953 -0.8252  1.8920 -1.8352
13998SOL    HW246933   7.166   2.891   5.044 -0.1068 -1.1286  1.9731
13999SOL     OW46934   3.598   6.481   4.704  0.2123  0.8370 -0.2172
13999SOL    HW146935   3.622   6.417   4.637  0.5286  1.2043 -0.4592
13999SOL    HW246936   3.676   6.489   4.759 -0.9060 -1.5823  1.9719
14000SOL     OW46937   0.342   9.448   5.886  0.0639  0.4991  0.1188
14000SOL    HW146938   0.419   9.499   5.912 -0.6526  1.0620  1.2298
14000SOL    HW246939   0.321   9.395   5.963  0.9999 -1.8338 -1.1076
14001SOL     OW46940   2.167   2.312   2.085 -0.0975 -0.4339 -0.0149
14001SOL    HW146941   2.256   2.280   2.071 -0.4215 -1.6731  0.6571
14001SOL    HW246942   2.120   2.238   2.122 -1.7582 -0.2049 -1.5176
14002SOL     OW46943   2.630  10.862   4.938  0.2404 -0.1527  0.0160
14002SOL    HW146944   2.700  10.902   4.886  0.4300 -1.1864 -0.5472
14002SOL    HW246945   2.561  10.842   4.875 -0.5645  0.8286  0.5641
14003SOL     OW46946   5.873   4.118   9.946 -0.3377  0.1759 -0.0944
14003SOL    HW146947   5.915   4.156   9.869 -0.6950 -0.9329 -0.8722
14003SOL    HW246948   5.786   4.156   9.947  0.0219  1.0012  0.3901
14004SOL     OW46949   7.757   7.557   1.268 -0.3460 -0.5590  0.1607
14004SOL    HW146950   7.759   7.517   1.356 -0.3372 -2.2198 -0.5567
14004SOL    HW246951   7.845   7.543   1.234 -0.7981 -1.3557 -0.7087
14005SOL     OW46952   0.409   9.789   3.069 -0.4320 -0.0005  0.0335
14005SOL    HW146953   0.382   9.878   3.093 -1.3520 -0.5849  1.2855
14005SOL    HW246954   0.504   9.789   3.084 -0.4499  0.7145  0.2148
14006SOL     OW46955   2.911   3.936   9.830  0.3242  0.8154 -0.4365
14006SOL    HW146956   2.933   4.024   9.863 -0.9905  1.1416 -0.3901
14006SOL    HW246957   2.890   3.950   9.738  1.8581  0.2380 -0.9187
14007SOL     OW46958  10.707   7.241   9.894 -0.0927 -0.0574  0.4111
14007SOL    HW146959  10.667   7.327   9.908 -4.3477 -1.4493 -1.6543
14007SOL    HW246960  10.784   7.259   9.840  0.5368  2.5979  2.0439
14008SOL     OW46961   5.643  11.461   6.842 -0.1882 -1.2908  0.3698
14008SOL    HW146962   5.580  11.501   6.783 -0.0629 -3.5555 -1.4401
14008SOL    HW246963   5.723  11.514   6.833 -0.8749 -0.2274  0.3575
14009SOL     OW46964   0.478   7.186   1.886 -0.6722  0.0089 -0.2954
14009SOL    HW146965   0.564   7.146   1.902  0.4194  2.5523  0.8702
14009SOL    HW246966   0.432   7.177   1.969  0.0392  2.0304  0.3793
14010SOL     OW46967   1.103   3.011   5.028 -0.1906 -0.3131 -0.6556
14010SOL    HW146968   1.090   2.916   5.018 -0.4592 -0.6188  1.8593
14010SOL    HW246969   1.019   3.042   5.061  1.1121 -0.0196  2.8095
14011SOL     OW46970  11.612   1.131   3.377 -0.5663  0.0155  0.4011
14011SOL    HW146971  11.643   1.158   3.291 -0.4200 -0.6834  0.2289
14011SOL    HW246972  11.517   1.144   3.374 -0.8410 -1.8624 -0.5809
14012SOL     OW46973   7.193   1.281   3.303  0.6821  0.2284 -0.0738
14012SOL    HW146974   7.103   1.247   3.302  0.5674  0.5266 -0.6096
14012SOL    HW246975   7.217   1.285   3.395  1.4041 -3.1222 -0.0048
14013SOL     OW46976   2.827  10.931   4.310 -0.2161 -0.2060 -0.3569
14013SOL    HW146977   2.837  11.001   4.375  1.7428  0.1062 -0.9168
14013SOL    HW246978   2.766  10.967   4.246 -1.2639 -0.0613  0.6797
14014SOL     OW46979   8.909   7.387   8.413 -0.6732  0.0059 -0.2639
14014SOL    HW146980   8.823   7.404   8.450  0.3409  0.8669  1.8319
14014SOL    HW246981   8.971   7.419   8.479  1.2792  1.9177 -2.8137
14015SOL     OW46982   7.710   1.700   2.009 -0.0766 -0.5264 -0.1540
14015SOL    HW146983   7.616   1.699   1.990  0.1080 -0.8777 -1.0600
14015SOL    HW246984   7.715   1.678   2.102 -0.9052 -0.2855 -0.0426
14016SOL     OW46985   9.106  10.032   6.502 -0.2944 -0.1856  0.6024
14016SOL    HW146986   9.029  10.041   6.445 -1.3146 -1.1064  1.7927
14016SOL    HW246987   9.178  10.016   6.441 -1.5543 -2.5050 -0.4123
14017SOL     OW46988   1.741  11.481   0.709 -0.3442  0.0401  0.5624
14017SOL    HW146989   1.648  11.466   0.723 -0.3205  1.7764  3.3155
14017SOL    HW246990   1.745  11.531   0.627 -1.6840 -0.9481 -0.1519
14018SOL     OW46991   3.896   4.230   5.269 -0.5177 -0.2326  0.4489
14018SOL    HW146992   3.903   4.219   5.364 -0.5114 -1.2114  0.3496
14018SOL    HW246993   3.985   4.217   5.236 -0.5623 -0.1348  0.2881
14019SOL     OW46994   1.280   7.806  11.032  0.3195 -0.2272 -0.2841
14019SOL    HW146995   1.277   7.898  11.008  0.9110 -0.0082  0.4678
14019SOL    HW246996   1.197   7.770  10.999 -0.2877  0.7460  0.1534
14020SOL     OW46997   7.428   7.924   5.372 -0.7673 -0.7027  0.0905
14020SOL    HW146998   7.454   8.015   5.359 -1.2398 -0.5391  0.2776
14020SOL    HW246999   7.384   7.900   5.291  1.8012 -1.6635 -1.1455
14021SOL     OW47000   3.380   1.432   7.528  0.0213 -0.2659  0.5667
14021SOL    HW147001   3.461   1.434   7.579  0.8722 -0.1267 -0.7515
14021SOL    HW247002   3.330   1.506   7.561  1.0747  0.5473  0.3870
14022SOL     OW47003   8.386   7.660   4.065  0.7830 -0.1484 -0.1289
14022SOL    HW147004   8.376   7.708   4.147  1.3667 -2.5145  1.4491
14022SOL    HW247005   8.479   7.667   4.043  0.8892 -0.6336  0.1621
14023SOL     OW47006   6.504   9.212   9.396  0.7951  0.3884  0.4647
14023SOL    HW147007   6.581   9.164   9.427  1.0434 -0.0249 -0.7414
14023SOL    HW247008   6.514   9.215   9.300 -1.8428 -1.6939 -0.0013
14024SOL     OW47009   4.616   7.775   2.585 -0.0212 -0.1885  0.0931
14024SOL    HW147010   4.679   7.730   2.640 -0.9442 -3.0355 -0.9871
14024SOL    HW247011   4.668   7.833   2.530  1.2977 -0.2761  1.2152
14025SOL     OW47012   4.845   5.640   6.986 -0.3269 -0.4174  0.2512
14025SOL    HW147013   4.762   5.687   6.989  0.8683  1.8114  2.8136
14025SOL    HW247014   4.901   5.693   6.930 -0.1130 -0.9501 -0.0417
14026SOL     OW47015  11.316   2.957   1.322  0.5257  0.5266  0.6574
14026SOL    HW147016  11.294   2.929   1.411 -0.1653  0.3533  0.4408
14026SOL    HW247017  11.380   2.892   1.292 -1.6650 -1.4295 -0.1349
14027SOL     OW47018   0.340   0.254   4.012 -0.2318  0.2559  0.0309
14027SOL    HW147019   0.334   0.201   4.092 -1.2485  1.4229  0.7575
14027SOL    HW247020   0.249   0.270   3.986  0.0636  1.0553 -0.5643
14028SOL     OW47021   8.813   5.945   6.520 -0.4773 -0.0318  0.7791
14028SOL    HW147022   8.721   5.935   6.542 -1.0382  1.8224 -0.5340
14028SOL    HW247023   8.823   5.901   6.436 -0.1819 -0.1226  0.8589
14029SOL     OW47024   4.974   8.474   4.943 -0.2370 -0.6295 -0.2935
14029SOL    HW147025   4.977   8.553   4.889 -0.2677 -0.0136  0.5705
14029SOL    HW247026   5.022   8.498   5.023 -2.1095 -0.7221  0.9193
14030SOL     OW47027   6.036   4.603   4.739  0.1677 -0.3245 -0.3629
14030SOL    HW147028   5.940   4.598   4.737  0.1869 -0.9354 -0.0058
14030SOL    HW247029   6.056   4.666   4.808  0.0164  0.1355 -0.7355
14031SOL     OW47030  11.350  10.890   2.250  0.0465  0.2679  0.1842
14031SOL    HW147031  11.389  10.966   2.208  0.0868  0.8438  1.2374
14031SOL    HW247032  11.270  10.873   2.200 -0.5665  1.7036  0.6238
14032SOL     OW47033   5.432   6.988   3.153 -0.4229 -0.0191 -0.2149
14032SOL    HW147034   5.490   7.064   3.142  2.8343 -2.2195  0.2720
14032SOL    HW247035   5.464   6.945   3.232 -2.7264 -1.4886  0.0063
14033SOL     OW47036   3.543   5.915  10.487  0.2411  0.3108 -0.5939
14033SOL    HW147037   3.477   5.963  10.536 -0.2265  0.0664 -0.9682
14033SOL    HW247038   3.625   5.961  10.505 -0.0672  0.7590 -0.3095
14034SOL     OW47039   4.066   6.675   7.668 -0.2322 -0.7786  0.2316
14034SOL    HW147040   4.070   6.635   7.755 -0.3212 -1.6005 -0.1296
14034SOL    HW247041   4.137   6.739   7.668 -0.4716 -0.4999  1.0350
14035SOL     OW47042   0.145   7.963   6.007  0.2178 -0.1985  0.4566
14035SOL    HW147043   0.181   7.924   6.087  3.7818  2.1110  0.2228
14035SOL    HW247044   0.221   7.974   5.950 -1.7462  0.7722 -2.1622
14036SOL     OW47045   3.784   2.995   6.744 -0.0242 -0.2942 -0.2002
14036SOL    HW147046   3.690   3.002   6.758  0.1318 -0.1803  0.8546
14036SOL    HW247047   3.823   3.031   6.824  0.9170  0.0194 -0.7907
14037SOL     OW47048   9.693   0.860   9.600  0.6817  0.1175 -0.0735
14037SOL    HW147049   9.625   0.841   9.665  1.5551  0.8647  1.1132
14037SOL    HW247050   9.663   0.817   9.521 -0.3341 -0.9998  0.8754
14038SOL     OW47051   3.372  10.086   5.864 -0.3426 -0.3479 -0.5032
14038SOL    HW147052   3.378  10.154   5.932  2.2531 -0.2001 -0.7935
14038SOL    HW247053   3.343  10.008   5.911  0.1013  0.0823  0.5129
14039SOL     OW47054   3.931   8.049  10.048  0.0357 -0.1844  0.5218
14039SOL    HW147055   3.995   7.977  10.051  1.5370  1.0116 -0.8800
14039SOL    HW247056   3.977   8.124  10.085 -0.4210  0.7744 -0.7754
14040SOL     OW47057   9.988   4.431   9.968  0.5661  0.0199  0.0225
14040SOL    HW147058  10.039   4.505  10.000 -0.0077 -0.4759  2.2415
14040SOL    HW247059   9.902   4.468   9.948  0.5894  0.1366  0.1358
14041SOL     OW47060   1.662   2.939   4.593 -0.2304  0.5723 -0.4602
14041SOL    HW147061   1.689   2.919   4.503  2.7291 -1.1012  0.6545
14041SOL    HW247062   1.727   3.002   4.624 -1.1813  1.0785  0.5406
14042SOL     OW47063   4.026   0.916   4.270  0.2579 -0.2811  0.1331
14042SOL    HW147064   4.054   0.841   4.217  1.9579  0.7133 -0.4445
14042SOL    HW247065   4.032   0.991   4.211 -2.8473  0.2092  0.2502
14043SOL     OW47066   8.904  10.961   6.384  0.0149  0.1445  0.6514
14043SOL    HW147067   8.996  10.941   6.399 -0.5509 -0.8435  3.4755
14043SOL    HW247068   8.897  11.055   6.401  0.6770  0.5325 -0.9892
14044SOL     OW47069  11.608   6.682   5.474  0.0790 -0.0761  0.2789
14044SOL    HW147070  11.539   6.629   5.516 -0.5548  0.0765 -0.5350
14044SOL    HW247071  11.609   6.651   5.383  1.1664 -0.1406  0.2998
14045SOL     OW47072   3.432  10.827   8.292 -0.4366 -0.1935  0.0702
14045SOL    HW147073   3.349  10.872   8.301  0.0417  1.2209 -1.8923
14045SOL    HW247074   3.415  10.757   8.229 -0.0531  0.3914 -0.6948
14046SOL     OW47075   2.613   4.418   9.033 -0.2105 -0.1846 -0.0375
14046SOL    HW147076   2.698   4.396   9.073  0.9344  2.4626 -0.7788
14046SOL    HW247077   2.549   4.368   9.084  1.7494 -2.2250  0.6057
14047SOL     OW47078   8.702   7.513   2.780  0.5520 -0.0230 -0.3021
14047SOL    HW147079   8.762   7.582   2.806  0.2714  0.1915 -0.2129
14047SOL    HW247080   8.708   7.511   2.685 -2.1213  2.6838 -0.7079
14048SOL     OW47081   8.793  10.667   2.389 -0.3070  0.1260  0.0755
14048SOL    HW147082   8.817  10.755   2.362  1.6457  0.0302  1.2915
14048SOL    HW247083   8.861  10.610   2.353  0.5128 -0.3878  2.2345
14049SOL     OW47084   8.218   3.496   2.648  0.4161 -0.0656 -0.4827
14049SOL    HW147085   8.187   3.475   2.560  3.8700 -1.1128 -1.6070
14049SOL    HW247086   8.222   3.411   2.692  0.2192  0.2632  0.1802
14050SOL     OW47087   2.893  10.497   9.244 -0.6799  0.0095  0.2074
14050SOL    HW147088   2.918  10.489   9.335  0.0001 -0.6653 -0.0332
14050SOL    HW247089   2.902  10.591   9.224  0.9023 -0.0925  0.3468
14051SOL     OW47090   9.775  10.214   3.568  0.2178 -0.6445 -0.2503
14051SOL    HW147091   9.826  10.284   3.526 -2.3786  0.7705 -1.3662
14051SOL    HW247092   9.743  10.254   3.649 -0.2021 -0.9989 -0.2420
14052SOL     OW47093   1.621   2.170   9.506 -0.4124  0.1800 -0.0037
14052SOL    HW147094   1.649   2.133   9.422 -0.1984 -0.2288  0.2421
14052SOL    HW247095   1.652   2.260   9.504  0.3609 -0.0784 -0.0063
14053SOL     OW47096   6.545   3.365   4.090  0.2619  0.1498  0.0748
14053SOL    HW147097   6.629   3.324   4.069 -1.4195 -3.4654 -0.3738
14053SOL    HW247098   6.544   3.370   4.186  0.4083 -1.2289  0.1600
14054SOL     OW47099  10.716   3.867   0.541  0.3750  0.5272  0.2752
14054SOL    HW147100  10.750   3.813   0.469  0.3728 -1.0225  1.3627
14054SOL    HW247101  10.678   3.803   0.602  0.0785  1.8077  1.4829
14055SOL     OW47102   0.761   0.666   7.406  0.0004  0.4664 -0.5942
14055SOL    HW147103   0.822   0.666   7.333 -0.1553  1.7041 -0.7593
14055SOL    HW247104   0.790   0.739   7.461  0.8391 -1.1770  1.2395
14056SOL     OW47105   9.578   9.868   2.448  0.0484  0.1756 -0.0378
14056SOL    HW147106   9.554   9.902   2.362 -0.5183 -0.0847  0.0074
14056SOL    HW247107   9.646   9.927   2.480  0.3047  0.2375 -0.6910
14057SOL     OW47108   6.693   6.421  11.331 -0.0201 -1.0289  0.1879
14057SOL    HW147109   6.715   6.460  11.415  2.1632 -0.5271 -0.5513
14057SOL    HW247110   6.736   6.477  11.266  0.5131 -2.8000 -1.0951
14058SOL     OW47111  10.407   7.280   1.400  0.2087 -0.1574 -0.2020
14058SOL    HW147112  10.424   7.194   1.361 -1.3205 -0.9182  0.7087
14058SOL    HW247113  10.403   7.264   1.494 -1.0809  0.7081 -0.0767
14059SOL     OW47114   2.099   3.052  11.244  0.4308  0.2245  0.0760
14059SOL    HW147115   2.008   3.024  11.230 -0.2426  2.8349 -1.4864
14059SOL    HW247116   2.106   3.061  11.339 -0.5717 -1.0728  0.3110
14060SOL     OW47117  10.006   7.572   1.294 -0.0001 -0.7033 -0.6271
14060SOL    HW147118  10.060   7.497   1.318  0.4077 -0.2843 -0.2054
14060SOL    HW247119   9.998   7.623   1.375 -2.3347 -1.5468 -0.2521
14061SOL     OW47120   0.254   4.863   7.359  0.0993  0.0839 -0.5403
14061SOL    HW147121   0.235   4.771   7.338  0.3702 -0.4302  1.2257
14061SOL    HW247122   0.176   4.894   7.405 -0.0972  0.8352 -1.3626
14062SOL     OW47123   6.426   6.936   2.932 -0.1618  0.2854  0.0837
14062SOL    HW147124   6.503   6.916   2.879  1.5049  1.7777  1.7795
14062SOL    HW247125   6.379   7.003   2.882  0.4503  0.4288 -0.3040
14063SOL     OW47126   2.941  11.180   5.015  0.0805  0.1514  0.9386
14063SOL    HW147127   2.954  11.266   4.973 -0.9579  0.2240  0.7353
14063SOL    HW247128   2.942  11.199   5.109  0.6588  0.2573  0.9153
14064SOL     OW47129   7.964   7.460   3.080 -0.4765  0.6278 -0.1728
14064SOL    HW147130   7.894   7.423   3.134  0.4654  0.7576  1.1792
14064SOL    HW247131   7.971   7.400   3.006 -0.2424 -0.8638  1.0121
14065SOL     OW47132   6.287   3.865   4.155  0.0906 -0.1755  0.1402
14065SOL    HW147133   6.328   3.804   4.093  0.6373 -0.8093  1.0938
14065SOL    HW247134   6.194   3.865   4.131  0.3477 -0.1314 -0.8952
14066SOL     OW47135   1.513   4.756   4.405 -0.5454 -0.3384  0.4649
14066SOL    HW147136   1.554   4.676   4.372 -0.1754  0.2910 -0.6510
14066SOL    HW247137   1.515   4.747   4.500  2.9433 -0.0317  0.5644
14067SOL     OW47138   1.554   1.569  11.146  0.1849 -0.3319  0.3772
14067SOL    HW147139   1.463   1.598  11.154  0.1669 -0.3068  0.1109
14067SOL    HW247140   1.604   1.651  11.138  0.0678 -0.3656 -1.0311
14068SOL     OW47141   7.397   6.047  11.085 -0.1969 -0.4853 -0.3770
14068SOL    HW147142   7.332   6.113  11.061 -1.0270 -0.9049  0.6139
14068SOL    HW247143   7.440   6.084  11.163 -0.7396 -1.1321  0.2449
14069SOL     OW47144   8.119   8.242   3.525  0.4429 -0.2958 -0.3594
14069SOL    HW147145   8.214   8.237   3.537  0.9313 -0.8003 -3.6114
14069SOL    HW247146   8.103   8.328   3.487 -0.4675 -0.1091  0.3967
14070SOL     OW47147   3.154   5.445  10.403  0.0865 -0.6636 -0.3833
14070SOL    HW147148   3.083   5.459  10.341  0.5694  0.9197 -0.6334
14070SOL    HW247149   3.157   5.350  10.415 -1.9674 -0.7928 -0.4587
14071SOL     OW47150  10.349   9.503   9.551 -0.5349  0.1061  0.1069
14071SOL    HW147151  10.301   9.582   9.527 -0.6864  0.2964  0.9989
14071SOL    HW247152  10.309   9.475   9.633  0.1190 -0.3783  0.2647
14072SOL     OW47153   3.939   4.802   5.720 -0.6950 -0.2271 -0.0998
14072SOL    HW147154   3.845   4.799   5.740 -0.3496 -1.1013  1.6344
14072SOL    HW247155   3.961   4.711   5.698 -0.1288 -0.1635  0.1884
14073SOL     OW47156  11.530   0.901   2.191 -0.1902 -0.4279 -0.2422
14073SOL    HW147157  11.541   0.810   2.219 -1.6796 -0.8701 -1.0159
14073SOL    HW247158  11.505   0.895   2.099 -0.5379  0.7572 -0.2416
14074SOL     OW47159   8.003   4.157   4.238  0.2500 -0.3934 -0.0825
14074SOL    HW147160   7.915   4.189   4.257  0.6925  0.7662  0.0701
14074SOL    HW247161   8.054   4.179   4.315  0.8235 -0.5150 -0.4258
14075SOL     OW47162   2.673   4.494   4.006 -0.0543 -0.4550 -0.0357
14075SOL    HW147163   2.625   4.538   3.936 -0.0823  1.0788  0.8891
14075SOL    HW247164   2.762   4.482   3.971  0.2574  1.3664  0.0506
14076SOL     OW47165   8.585   8.550   1.533  0.3829  0.2213  0.7254
14076SOL    HW147166   8.533   8.518   1.459  0.0031  0.3168  0.9473
14076SOL    HW247167   8.531   8.619   1.572  1.0135  0.8594  0.4931
14077SOL     OW47168   5.657   2.661   6.341 -0.7656 -0.4914 -0.1087
14077SOL    HW147169   5.581   2.646   6.285 -0.9281  0.8139 -0.2711
14077SOL    HW247170   5.620   2.702   6.420 -0.1720  0.8932 -0.5184
14078SOL     OW47171   8.051   3.110  11.008 -0.0135 -0.7276  0.1366
14078SOL    HW147172   8.039   3.144  11.097  1.4991 -0.8775  0.4206
14078SOL    HW247173   7.977   3.146  10.959 -0.6990 -0.3812  1.3720
14079SOL     OW47174   3.593   8.142   0.011  0.2593  0.5044  0.4470
14079SOL    HW147175   3.553   8.223   0.042  0.6662  0.9387 -0.1520
14079SOL    HW247176   3.648   8.113   0.084  0.6859  1.1643  0.3935
14080SOL     OW47177   2.853   1.597   8.308 -0.3437 -0.0195  0.5519
14080SOL    HW147178   2.941   1.624   8.334 -0.5389 -0.0097  1.2230
14080SOL    HW247179   2.830   1.657   8.237  0.1841 -0.0121  0.3811
14081SOL     OW47180   7.317  10.314   8.669 -0.2029 -0.4761 -0.1116
14081SOL    HW147181   7.271  10.398   8.673 -0.1600 -0.4972  1.9219
14081SOL    HW247182   7.394  10.332   8.614  0.1990  1.0410  0.8769
14082SOL     OW47183   5.365   5.267   9.597  0.0445 -0.0361 -0.1689
14082SOL    HW147184   5.286   5.240   9.549 -0.1407 -0.5199  0.4029
14082SOL    HW247185   5.433   5.272   9.530 -0.4529  0.3322 -0.6622
14083SOL     OW47186   4.261   7.661   3.729  0.4603 -0.2536  0.5046
14083SOL    HW147187   4.244   7.667   3.823  0.5493 -1.4233  0.6077
14083SOL    HW247188   4.344   7.613   3.723  0.5410 -0.0438 -0.1701
14084SOL     OW47189  11.065   7.059   5.225 -0.8025  0.3795 -0.2391
14084SOL    HW147190  11.071   7.136   5.282 -0.1682 -0.1438  0.4111
14084SOL    HW247191  10.982   7.018   5.248 -1.2211  0.9501 -0.7021
14085SOL     OW47192   3.053   9.864   5.913  0.1524 -0.2005  0.4511
14085SOL    HW147193   2.973   9.830   5.871  1.0389  1.7515 -3.2849
14085SOL    HW247194   3.021   9.923   5.981 -1.7821  1.8331 -2.0459
14086SOL     OW47195   4.592   4.207   5.747  0.4436 -0.3459  0.2634
14086SOL    HW147196   4.603   4.115   5.721 -0.0195 -0.3306 -0.0046
14086SOL    HW247197   4.612   4.256   5.668 -2.3914 -0.3506 -0.5989
14087SOL     OW47198   2.082   5.801   2.547  0.0163  0.4068  0.3090
14087SOL    HW147199   2.145   5.857   2.593  0.7513 -0.4885  0.4115
14087SOL    HW247200   2.114   5.799   2.456 -0.8892  1.3884 -0.0595
14088SOL     OW47201   2.437   5.317  11.412 -0.3587  0.7952  0.0862
14088SOL    HW147202   2.530   5.320  11.435 -0.5306  1.9705  0.6905
14088SOL    HW247203   2.436   5.320  11.317  0.3348 -3.0197 -0.1892
14089SOL     OW47204   8.941   9.044  10.331  0.3683  0.1968 -0.2297
14089SOL    HW147205   8.968   9.034  10.240  1.8415  2.1667 -0.0871
14089SOL    HW247206   8.878   9.115  10.330 -0.5063 -0.5544  0.1722
14090SOL     OW47207   2.508   2.370   1.942 -0.6270  0.0894  0.2027
14090SOL    HW147208   2.497   2.284   1.983 -1.1182  0.9644  2.0047
14090SOL    HW247209   2.454   2.365   1.863 -2.3441 -0.6116  1.3401
14091SOL     OW47210   3.773   3.796   4.329  0.0739  0.0239 -0.6596
14091SOL    HW147211   3.680   3.810   4.311 -0.1701 -1.7787 -0.9878
14091SOL    HW247212   3.781   3.803   4.424 -0.4672 -0.1541 -0.5989
14092SOL     OW47213  11.099  11.571   6.701  0.0783 -0.1319  0.0445
14092SOL    HW147214  11.037  11.631   6.742 -0.2042 -0.4964  0.1603
14092SOL    HW247215  11.112  11.606   6.613  3.2126  2.5448  1.3648
14093SOL     OW47216   4.006   4.841   4.656  0.0015  0.1022 -0.6327
14093SOL    HW147217   4.005   4.847   4.560  1.8925  0.3863 -0.6740
14093SOL    HW247218   3.948   4.768   4.676  1.5773 -1.6968 -2.1932
14094SOL     OW47219   2.430   9.334   8.896 -0.2640  0.2586  0.5377
14094SOL    HW147220   2.430   9.263   8.960  1.2134 -1.3049 -1.0952
14094SOL    HW247221   2.489   9.400   8.934 -0.7597  0.1385  1.5570
14095SOL     OW47222   6.445   4.818   4.650  0.0348  0.3526 -0.9148
14095SOL    HW147223   6.493   4.872   4.587 -1.4634 -0.9533 -3.3255
14095SOL    HW247224   6.376   4.776   4.598 -1.8311 -0.1619  1.8056
14096SOL     OW47225   8.385   6.417   7.219 -0.0018 -0.0617  0.4140
14096SOL    HW147226   8.345   6.394   7.303 -1.4750  1.9181  0.3270
14096SOL    HW247227   8.463   6.362   7.214  0.0294 -0.3670  2.9772
14097SOL     OW47228   0.049   4.209   7.098 -0.3227 -0.1616 -0.0869
14097SOL    HW147229   0.071   4.302   7.095  1.0274 -0.4752 -1.0487
14097SOL    HW247230   0.125   4.165   7.061 -1.3527 -1.5841 -0.6258
14098SOL     OW47231   0.604   5.051  11.639 -0.0108  0.3327  0.4767
14098SOL    HW147232   0.570   5.076  11.553 -0.9307 -1.5982  0.2312
14098SOL    HW247233   0.529   5.012  11.684  0.6874  0.4833  1.8198
14099SOL     OW47234   7.959   2.146   2.074  0.4499  0.4050  0.4217
14099SOL    HW147235   7.927   2.061   2.104  0.7570  0.4657  0.9328
14099SOL    HW247236   7.922   2.156   1.986 -2.7574  1.4069  1.7363
14100SOL     OW47237   6.797   8.630  10.638 -0.0808  0.9151  0.0136
14100SOL    HW147238   6.847   8.709  10.660  2.3756 -0.7747  1.0050
14100SOL    HW247239   6.846   8.590  10.566  0.5222 -1.1888  1.5065
14101SOL     OW47240   3.166   3.446   6.512 -0.2182  0.0451 -0.2078
14101SOL    HW147241   3.162   3.489   6.598  1.4434  0.5884 -0.3669
14101SOL    HW247242   3.074   3.436   6.486 -0.8783 -2.1169  2.5680
14102SOL     OW47243   3.383  11.587   2.871  0.0403  0.2665 -0.0354
14102SOL    HW147244   3.444  11.539   2.927 -2.3102 -1.9747  0.7858
14102SOL    HW247245   3.329  11.636   2.932 -1.0398 -0.3347 -0.4904
14103SOL     OW47246   6.899  10.272   4.707  0.7249 -0.0102 -0.0078
14103SOL    HW147247   6.915  10.198   4.649  1.0931  0.3877 -0.4177
14103SOL    HW247248   6.840  10.329   4.657  2.2506  1.0783 -0.6261
14104SOL     OW47249   9.663   4.533   6.968 -0.1346 -0.4476 -0.3334
14104SOL    HW147250   9.711   4.522   7.050 -2.1387 -2.5000  0.6733
14104SOL    HW247251   9.667   4.447   6.927 -0.3244  0.1958 -1.7459
14105SOL     OW47252   8.890   4.937   0.634 -0.1125 -0.0795  0.0402
14105SOL    HW147253   8.811   4.939   0.689 -0.5898  0.2998 -0.6479
14105SOL    HW247254   8.860   4.966   0.548  0.0852 -3.1438 -1.1580
14106SOL     OW47255   0.530   1.626   1.020  0.0055 -0.0079  0.0172
14106SOL    HW147256   0.554   1.550   1.072 -1.7613 -0.4727  0.1946
14106SOL    HW247257   0.609   1.645   0.968  1.0079 -0.9485  1.1377
14107SOL     OW47258   3.300   2.987   2.239 -0.1915  0.4534 -0.4795
14107SOL    HW147259   3.343   3.069   2.263  0.0940  0.1971 -0.0987
14107SOL    HW247260   3.212   2.994   2.278  0.3745 -0.0952  0.9803
14108SOL     OW47261   2.266  11.044   1.881 -0.2102 -0.4478  0.6424
14108SOL    HW147262   2.189  11.030   1.936  0.5999 -1.1694  1.6335
14108SOL    HW247263   2.335  10.993   1.924  0.4898 -0.8993 -0.9703
14109SOL     OW47264   3.040   7.009   3.541 -0.1707 -0.4151  0.0990
14109SOL    HW147265   3.116   6.952   3.535 -1.3592 -1.9354 -1.7137
14109SOL    HW247266   2.990   6.976   3.615 -0.0157 -0.6628  0.0921
14110SOL     OW47267  11.569   9.842  11.437 -0.1634 -0.1552  0.3452
14110SOL    HW147268  11.595   9.910  11.374 -0.2698  2.3815  2.8562
14110SOL    HW247269  11.473   9.841  11.433 -0.2782  1.3683  1.6854
14111SOL     OW47270   2.178   8.657   0.069  0.1873  0.8093 -0.0699
14111SOL    HW147271   2.119   8.621   0.135 -2.3430  0.0558 -2.5358
14111SOL    HW247272   2.261   8.612   0.083 -0.9320 -0.9872  1.1729
14112SOL     OW47273   3.684   0.853  10.690 -0.2349  0.1596 -0.3752
14112SOL    HW147274   3.599   0.877  10.652 -0.6324  0.4609  0.6697
14112SOL    HW247275   3.667   0.845  10.784  0.9332  0.3965 -0.1271
14113SOL     OW47276  11.308   6.864  11.016 -0.0940 -0.0566  0.4661
14113SOL    HW147277  11.386   6.892  10.969  0.3033 -0.9681  0.5602
14113SOL    HW247278  11.292   6.775  10.984 -0.5997 -0.1881  1.0720
14114SOL     OW47279   2.900  11.436  10.447  0.5149 -0.4953 -0.3201
14114SOL    HW147280   2.930  11.499  10.381  0.3040 -0.3027 -0.2331
14114SOL    HW247281   2.898  11.353  10.400  0.5243 -0.3881 -0.5140
14115SOL     OW47282   8.461   6.119   7.576 -0.3900 -0.1944  0.2847
14115SOL    HW147283   8.537   6.111   7.633 -0.3372 -2.0945  0.0162
14115SOL    HW247284   8.390   6.077   7.624 -0.9150  0.2641 -0.0725
14116SOL     OW47285   9.463   5.391   7.390 -0.0353 -0.3339  0.2159
14116SOL    HW147286   9.380   5.365   7.430  0.0518 -0.7448  0.1335
14116SOL    HW247287   9.452   5.370   7.297  0.4954 -1.2541  0.3513
14117SOL     OW47288   1.942   2.399   9.320 -0.5589 -0.0549 -0.3851
14117SOL    HW147289   1.919   2.394   9.227  1.0511 -0.0761 -0.8226
14117SOL    HW247290   1.994   2.479   9.327  0.7204 -0.8965  0.1380
14118SOL     OW47291   7.485   1.897   6.826 -0.1069  0.0876  0.1349
14118SOL    HW147292   7.399   1.892   6.785 -0.2755  0.0472  0.4869
14118SOL    HW247293   7.518   1.808   6.823 -0.4836 -0.0845  0.8506
14119SOL     OW47294   7.533   4.467  10.909 -0.6158  0.1367 -0.5475
14119SOL    HW147295   7.447   4.451  10.946 -0.6010  0.5977 -0.2957
14119SOL    HW247296   7.591   4.405  10.954 -0.3682  1.5066  1.1726
14120SOL     OW47297   1.633  11.036   0.722 -0.2883  0.0424  0.0035
14120SOL    HW147298   1.668  10.957   0.680 -2.6910 -1.6374  0.9305
14120SOL    HW247299   1.652  11.024   0.815  0.8511  1.4567 -0.0098
14121SOL     OW47300   2.480   4.060  10.053 -0.1338  0.2846  0.4504
14121SOL    HW147301   2.495   3.973  10.016  1.8438  0.2146  1.3258
14121SOL    HW247302   2.447   4.043  10.141 -1.8890  0.4627 -0.1293
14122SOL     OW47303   7.998   9.127   3.625  0.2362 -0.4948  0.2228
14122SOL    HW147304   7.960   9.213   3.641  1.3849  0.1165 -0.1941
14122SOL    HW247305   7.928   9.065   3.646 -0.9945  0.5669 -0.5698
14123SOL     OW47306   2.316   7.077   4.661  0.4906  0.2057 -0.5795
14123SOL    HW147307   2.249   7.130   4.619 -0.3628  1.0842  1.7133
14123SOL    HW247308   2.302   6.988   4.627 -1.8202  0.3797 -0.2488
14124SOL     OW47309   3.707   3.194   6.260 -0.3318  0.4516 -0.4991
14124SOL    HW147310   3.701   3.116   6.315  1.5283  0.6241  0.0390
14124SOL    HW247311   3.658   3.172   6.181 -2.8072  0.0644  1.0292
14125SOL     OW47312   0.112   1.595   3.095 -0.4335 -0.0649  0.1590
14125SOL    HW147313   0.107   1.503   3.120 -0.5590 -0.5691 -1.5545
14125SOL    HW247314   0.153   1.594   3.008  0.0848  1.5435  0.3453
14126SOL     OW47315   1.782   2.173   4.731  0.1030  0.0298 -0.0519
14126SOL    HW147316   1.691   2.165   4.701  0.3406  0.0532 -0.7904
14126SOL    HW247317   1.774   2.195   4.824 -0.6307 -1.3758  0.2440
14127SOL     OW47318   5.614   2.238   8.086 -0.3444  0.2636  0.4628
14127SOL    HW147319   5.656   2.288   8.156  1.7838 -1.7486  0.7513
14127SOL    HW247320   5.569   2.166   8.132 -0.7284  0.1270 -0.1154
14128SOL     OW47321   8.253   6.784   4.332  0.1549  0.0913 -0.9312
14128SOL    HW147322   8.303   6.733   4.396 -0.0390  0.8737 -0.1410
14128SOL    HW247323   8.301   6.773   4.250  0.8233 -0.3162 -0.4963
14129SOL     OW47324   8.727  10.978   8.576 -0.2732  0.0380  0.0086
14129SOL    HW147325   8.668  10.986   8.501  0.4367  2.1911 -0.3811
14129SOL    HW247326   8.803  10.930   8.542 -0.1305  0.6533 -0.5544
14130SOL     OW47327   1.006   9.902   0.831  0.1539  0.5099 -0.6192
14130SOL    HW147328   0.971   9.821   0.795  0.9813  0.5201 -1.4929
14130SOL    HW247329   0.954   9.971   0.791 -0.1118  0.4458 -0.3888
14131SOL     OW47330  10.841   8.077   6.692 -0.6189 -0.1548 -0.0267
14131SOL    HW147331  10.763   8.066   6.746 -0.4271  1.5640  0.6618
14131SOL    HW247332  10.834   8.166   6.657  1.7390  0.6756  1.3380
14132SOL     OW47333   0.361   7.826  11.228 -0.3474  0.3627 -0.2183
14132SOL    HW147334   0.267   7.843  11.231 -0.3259  1.3512 -2.5873
14132SOL    HW247335   0.401   7.912  11.242  0.1877  0.0897 -0.0326
14133SOL     OW47336   7.214   6.852   9.430  0.6134 -0.3661  0.6368
14133SOL    HW147337   7.274   6.918   9.396  0.2936  0.4312  1.5980
14133SOL    HW247338   7.127   6.889   9.418  0.4134 -0.7161  0.9691
14134SOL     OW47339   7.626   0.041   7.986  0.0030  0.4322 -0.4617
14134SOL    HW147340   7.683  -0.006   7.925 -0.9885  0.5519 -1.4972
14134SOL    HW247341   7.542   0.047   7.942 -0.5859  1.0356  0.6814
14135SOL     OW47342   7.254   1.171  10.713 -0.8442  0.3738 -1.0997
14135SOL    HW147343   7.331   1.171  10.657 -0.0523 -0.5952 -0.0625
14135SOL    HW247344   7.216   1.258  10.703  0.9668  1.2217 -0.8610
14136SOL     OW47345   1.089   2.804   4.040 -0.3201 -0.1114 -0.3346
14136SOL    HW147346   1.035   2.813   4.119 -0.9779  1.3032 -0.9153
14136SOL    HW247347   1.177   2.826   4.070 -0.2615 -1.1669  0.3397
14137SOL     OW47348   8.926   5.575   5.210  0.3526 -0.0167  0.1019
14137SOL    HW147349   9.016   5.607   5.219  0.5700 -0.2237 -1.1527
14137SOL    HW247350   8.873   5.642   5.253  1.0299  0.5532  0.0668
14138SOL     OW47351  10.963  10.027   9.120 -0.4671  0.0016  0.6486
14138SOL    HW147352  11.050  10.061   9.099 -0.1186 -0.6798  0.9633
14138SOL    HW247353  10.977   9.933   9.135 -1.2330 -0.0865  0.8410
14139SOL     OW47354   1.551   6.652   8.640 -0.0110  0.1946  0.0630
14139SOL    HW147355   1.559   6.688   8.552  0.9144  0.1674  0.1245
14139SOL    HW247356   1.633   6.675   8.683 -0.0816 -0.5636  0.6365
14140SOL     OW47357   7.202   3.107  11.239  0.2034  0.3897 -0.0830
14140SOL    HW147358   7.199   3.024  11.288  1.8871  0.7499  0.6829
14140SOL    HW247359   7.135   3.161  11.281 -0.3326 -0.2722 -0.0474
14141SOL     OW47360  10.226   8.268   1.933  0.3572 -0.0075  0.4007
14141SOL    HW147361  10.300   8.208   1.948  1.0065  0.5734 -0.3653
14141SOL    HW247362  10.178   8.269   2.016  1.0185 -0.6609  0.8016
14142SOL     OW47363   1.289   8.185   7.750  0.1905 -0.2557 -0.0718
14142SOL    HW147364   1.283   8.249   7.821  0.5384 -0.5715  0.2445
14142SOL    HW247365   1.250   8.229   7.675 -0.0588  0.1317  0.2811
14143SOL     OW47366   6.552   1.463  10.728  0.2233  0.4432 -0.2243
14143SOL    HW147367   6.483   1.528  10.713  0.9364  1.0552 -0.9358
14143SOL    HW247368   6.623   1.489  10.669  1.1810 -0.0072  0.6894
14144SOL     OW47369   4.131   2.832  10.175 -0.4000  0.5002 -0.5632
14144SOL    HW147370   4.082   2.753  10.152  0.5098  0.1113 -1.2401
14144SOL    HW247371   4.177   2.856  10.095 -0.2036  1.3835 -0.1984
14145SOL     OW47372   8.548   9.107   3.916  0.2673 -0.2238  1.1812
14145SOL    HW147373   8.457   9.095   3.944 -0.0636 -2.6380 -0.5415
14145SOL    HW247374   8.579   9.018   3.897  3.7357  0.2731  3.6680
14146SOL     OW47375   2.241   6.461   5.317 -0.1135 -0.2263  0.5483
14146SOL    HW147376   2.278   6.471   5.405  0.7445 -0.6711  0.2577
14146SOL    HW247377   2.264   6.542   5.271 -1.4501  0.4528  1.0145
14147SOL     OW47378   1.284   9.420   5.188  0.1330 -0.2323 -0.0816
14147SOL    HW147379   1.220   9.359   5.153  0.7369 -0.7573 -0.2907
14147SOL    HW247380   1.301   9.389   5.277  1.3706 -1.1532 -0.6005
14148SOL     OW47381  10.087   4.102   1.936 -0.7016 -0.3105  0.3882
14148SOL    HW147382  10.183   4.099   1.936 -0.5894  1.4705  1.8918
14148SOL    HW247383  10.060   4.011   1.928  1.1258 -0.9342  0.8474
14149SOL     OW47384   7.059  11.277   1.984 -0.1756 -0.3008  0.7014
14149SOL    HW147385   7.118  11.305   1.914 -1.4925  2.9761  0.7271
14149SOL    HW247386   7.116  11.258   2.058  0.9993  1.2066  0.2400
14150SOL     OW47387   0.813   1.476   0.041 -0.4045  0.0419  0.6022
14150SOL    HW147388   0.761   1.460  -0.038  3.2580  1.2853 -2.3820
14150SOL    HW247389   0.831   1.570   0.039  1.5132 -0.2537  1.6903
14151SOL     OW47390   1.948   0.584   3.806  0.5024  0.0331 -0.4833
14151SOL    HW147391   1.942   0.634   3.887  0.3496 -0.5964 -0.0962
14151SOL    HW247392   1.860   0.584   3.770  0.7149  0.9086 -1.0216
14152SOL     OW47393   9.497   7.079   2.895 -0.0137  0.1345 -0.3030
14152SOL    HW147394   9.581   7.116   2.920 -0.0001 -0.7026  0.9513
14152SOL    HW247395   9.433   7.123   2.952 -0.0287 -1.5023  1.0129
14153SOL     OW47396   5.589  10.448  11.060  0.0265  0.6671  0.4057
14153SOL    HW147397   5.642  10.372  11.084 -2.6354 -1.5901 -0.3878
14153SOL    HW247398   5.632  10.522  11.104  3.3402 -1.0536  0.3438
14154SOL     OW47399   1.804   2.392   2.405  0.9451 -0.0389 -0.3964
14154SOL    HW147400   1.761   2.450   2.342 -1.7057 -1.4621 -0.0988
14154SOL    HW247401   1.867   2.447   2.451 -0.4376  2.2337 -1.0554
14155SOL     OW47402  11.483   0.530   9.757 -0.6347 -0.6255 -0.1317
14155SOL    HW147403  11.575   0.555   9.750 -0.8051 -0.0893 -0.5012
14155SOL    HW247404  11.484   0.451   9.812 -0.0132 -0.3174  0.3126
14156SOL     OW47405  11.572   7.441   2.309  0.3128  0.5908  0.0577
14156SOL    HW147406  11.542   7.447   2.400  0.0206  2.2194 -0.1170
14156SOL    HW247407  11.653   7.492   2.306 -0.1354  1.2990 -0.7494
14157SOL     OW47408  10.242   9.737  11.325 -0.1547 -0.2336 -0.0717
14157SOL    HW147409  10.212   9.651  11.353  1.6479 -1.0216 -0.4066
14157SOL    HW247410  10.264   9.726  11.232  1.9168  0.0262  0.3510
14158SOL     OW47411   9.492   0.859   1.644 -0.3958  0.3202 -0.0280
14158SOL    HW147412   9.426   0.889   1.707 -0.5913 -0.4020  0.1198
14158SOL    HW247413   9.443   0.846   1.563 -0.1471  1.2312 -0.3328
14159SOL     OW47414   9.239   4.451   7.261  0.4152  0.2758 -0.0778
14159SOL    HW147415   9.321   4.453   7.311  0.7709  0.8024 -0.6684
14159SOL    HW247416   9.175   4.416   7.323  0.6747  1.6304  1.0324
14160SOL     OW47417   3.846   0.163   6.867  0.1385 -0.0728 -0.1820
14160SOL    HW147418   3.898   0.124   6.796  0.3096 -0.8159  0.3393
14160SOL    HW247419   3.897   0.239   6.895 -0.0875  0.4218 -1.0635
14161SOL     OW47420  10.648   0.511   3.885  0.0023  0.1146 -0.0293
14161SOL    HW147421  10.670   0.598   3.854 -0.8457  0.1644 -0.5186
14161SOL    HW247422  10.553   0.504   3.873 -0.4048  0.1679  2.6115
14162SOL     OW47423  10.494   3.903  11.467 -0.2488  0.7001  0.1383
14162SOL    HW147424  10.408   3.911  11.508 -0.4304  2.2738 -0.4560
14162SOL    HW247425  10.556   3.929  11.536 -0.2156 -0.6419  0.6312
14163SOL     OW47426   7.967   6.360   2.408 -0.4925 -0.3624 -0.0487
14163SOL    HW147427   7.995   6.275   2.373 -0.0897 -0.0089 -0.5946
14163SOL    HW247428   7.916   6.399   2.338  1.0933  0.7531 -0.6363
14164SOL     OW47429   0.772   8.719   1.684 -0.0348  0.2086  0.2360
14164SOL    HW147430   0.745   8.759   1.766 -0.5856  0.1631  0.0855
14164SOL    HW247431   0.689   8.699   1.639  0.2276  2.2022 -1.2876
14165SOL     OW47432   9.689   3.978   7.957 -0.7958  0.0754  0.2014
14165SOL    HW147433   9.741   3.915   8.007 -0.6478 -1.3826 -1.6432
14165SOL    HW247434   9.651   3.926   7.887 -2.0210  1.7727 -0.4556
14166SOL     OW47435   2.383   7.088   5.265  0.6858 -0.6008  0.5257
14166SOL    HW147436   2.436   7.012   5.243  0.1634 -0.6420 -0.6195
14166SOL    HW247437   2.340   7.113   5.183  2.4720  2.2351  0.3153
14167SOL     OW47438  10.531  10.191   9.464 -0.2840 -0.1594  0.0743
14167SOL    HW147439  10.589  10.257   9.425  1.2235 -1.8775 -0.7559
14167SOL    HW247440  10.465  10.175   9.396  1.2184 -1.7429 -1.1148
14168SOL     OW47441   7.019  10.181   9.489 -0.6101 -0.3062  0.6118
14168SOL    HW147442   7.067  10.098   9.491  0.0602  0.0564  0.0731
14168SOL    HW247443   7.072  10.238   9.433 -2.4623 -0.3850 -1.3586
14169SOL     OW47444   7.386   6.853   9.042 -0.5451 -0.0605  0.2894
14169SOL    HW147445   7.360   6.822   9.129  1.1128  1.0347  1.2285
14169SOL    HW247446   7.326   6.925   9.023 -0.7831 -0.1651  0.6283
14170SOL     OW47447   3.329  11.376   0.108  0.2408 -0.1084 -0.1070
14170SOL    HW147448   3.297  11.288   0.127 -2.2620  0.3127 -1.9504
14170SOL    HW247449   3.380  11.367   0.028 -0.9794  0.2491 -0.9495
14171SOL     OW47450   4.442   5.327   9.701  0.8980  0.0969 -0.0096
14171SOL    HW147451   4.348   5.336   9.687  1.0909 -0.3589 -1.8137
14171SOL    HW247452   4.454   5.238   9.733  0.6708  0.3909  0.9336
14172SOL     OW47453   8.889  11.593   0.585  0.2079 -0.0972  0.5734
14172SOL    HW147454   8.827  11.529   0.551 -0.7115  0.8653  0.3726
14172SOL    HW247455   8.885  11.583   0.680 -0.0405 -0.2391  0.5476
14173SOL     OW47456   2.445  10.529   8.364 -0.1445  0.2598 -0.5391
14173SOL    HW147457   2.510  10.587   8.404  0.3437 -0.4663 -0.2650
14173SOL    HW247458   2.417  10.472   8.435 -0.1157 -0.2937 -0.9640
14174SOL     OW47459   0.957  11.551   8.888  0.2274 -0.0871  0.2269
14174SOL    HW147460   1.013  11.486   8.846 -0.7983 -1.9899  1.6463
14174SOL    HW247461   1.016  11.625   8.906  1.6335 -0.9360 -0.6999
14175SOL     OW47462   5.345   0.690   1.116  0.0503  0.4239  0.1577
14175SOL    HW147463   5.293   0.635   1.057  1.1994 -0.4733 -0.0630
14175SOL    HW247464   5.286   0.760   1.142 -2.1021 -1.8090  1.7845
14176SOL     OW47465   1.149   7.808   3.181  0.3825 -0.1438  0.4750
14176SOL    HW147466   1.100   7.809   3.099 -2.3654 -1.2405  1.9467
14176SOL    HW247467   1.208   7.883   3.175 -0.4738  0.4299 -2.0400
14177SOL     OW47468   3.018   5.732   2.896 -0.0438 -0.3747 -0.0880
14177SOL    HW147469   3.091   5.703   2.950  0.1667  0.3652  0.0268
14177SOL    HW247470   3.051   5.809   2.849 -1.2882  1.0751  1.3121
14178SOL     OW47471   5.451   0.047   6.202 -0.3167 -0.6413 -0.2974
14178SOL    HW147472   5.485  -0.028   6.252  2.2765 -0.1603 -1.1988
14178SOL    HW247473   5.523   0.073   6.146 -1.7285  1.5238 -1.2321
14179SOL     OW47474   4.564   6.206   1.980 -0.0761 -0.1111 -0.6739
14179SOL    HW147475   4.513   6.282   2.008 -0.9468 -1.3016  1.1477
14179SOL    HW247476   4.521   6.176   1.900  1.3898  2.3301 -2.4934
14180SOL     OW47477   4.376   6.733   7.842 -0.2252 -0.8261  0.0370
14180SOL    HW147478   4.443   6.723   7.909  2.2972  0.2322 -2.1086
14180SOL    HW247479   4.378   6.651   7.793 -1.6650 -1.3834  0.8431
14181SOL     OW47480   6.373   8.497   9.850 -0.1252 -0.5757  0.4231
14181SOL    HW147481   6.320   8.440   9.794  0.2661  0.0317 -0.6158
14181SOL    HW247482   6.463   8.467   9.836  0.0450  0.0403  0.1598
14182SOL     OW47483   4.874   6.824  10.967 -0.2797 -0.0439  0.5373
14182SOL    HW147484   4.831   6.806  10.883  0.6147 -1.5260  0.3723
14182SOL    HW247485   4.848   6.751  11.024  0.9295 -0.2633  0.8407
14183SOL     OW47486   5.911   8.011   6.169 -0.3356  0.1643 -0.4594
14183SOL    HW147487   5.992   8.059   6.153 -1.0649  1.4044 -0.5918
14183SOL    HW247488   5.919   7.981   6.260 -0.2473  1.3570 -0.0528
14184SOL     OW47489   0.424  10.729   7.300 -0.1379  0.0865 -0.0147
14184SOL    HW147490   0.437  10.636   7.319  1.0512  0.2464  0.0232
14184SOL    HW247491   0.363  10.759   7.367 -1.0628 -0.8014 -0.4261
14185SOL     OW47492   6.217   6.472   7.171 -0.3937 -0.1865 -0.5398
14185SOL    HW147493   6.222   6.564   7.147  1.6900 -0.1810 -0.2374
14185SOL    HW247494   6.195   6.427   7.090 -0.2003  0.4620 -0.9545
14186SOL     OW47495   7.047   1.720   2.160 -0.0482  0.6871 -0.2030
14186SOL    HW147496   7.059   1.663   2.236 -2.0357  0.0144 -0.3473
14186SOL    HW247497   7.012   1.801   2.197 -2.5194 -0.1847 -0.4778
14187SOL     OW47498   7.863   5.324   7.000 -0.1193 -0.4426 -0.1301
14187SOL    HW147499   7.838   5.380   6.926  2.3133  1.3118  0.2547
14187SOL    HW247500   7.944   5.282   6.972  1.0101  0.4767  1.5851
14188SOL     OW47501   1.418   0.108  10.663  0.1370 -0.4403  0.4393
14188SOL    HW147502   1.372   0.140  10.741 -1.7663 -0.9033 -0.4407
14188SOL    HW247503   1.374   0.026  10.641  0.7153 -0.3783 -1.0617
14189SOL     OW47504   5.523   7.521   8.026  0.0980 -0.0455 -0.1934
14189SOL    HW147505   5.464   7.540   7.952  0.4949 -1.4441 -0.9145
14189SOL    HW247506   5.603   7.568   8.005 -0.1779  0.4979 -0.0568
14190SOL     OW47507  11.486   0.411   0.896 -0.5168 -0.3456 -0.4703
14190SOL    HW147508  11.405   0.364   0.915  0.5396 -1.9981  0.1983
14190SOL    HW247509  11.474   0.497   0.936 -1.9467 -0.5345 -0.4389
14191SOL     OW47510   9.137   4.547   1.513 -0.6047  0.5190 -0.1602
14191SOL    HW147511   9.101   4.504   1.591 -0.3086 -2.0702 -1.3317
14191SOL    HW247512   9.094   4.632   1.510  0.0856  1.1339  3.3084
14192SOL     OW47513  10.199   7.499   8.110  0.0535  0.5547 -0.8894
14192SOL    HW147514  10.161   7.424   8.065  0.0775 -1.8589  2.7645
14192SOL    HW247515  10.126   7.537   8.159  0.8059  0.4029  0.4058
14193SOL     OW47516   1.116   6.912   6.698  0.1306 -0.7153  0.0039
14193SOL    HW147517   1.027   6.945   6.682  0.7535  1.0523 -0.1208
14193SOL    HW247518   1.108   6.855   6.774 -0.9763  0.1001  0.5257
14194SOL     OW47519  11.061   8.670  11.328  0.2490 -0.4384  0.2390
14194SOL    HW147520  11.075   8.663  11.233  0.8515  0.7328  0.2261
14194SOL    HW247521  10.969   8.693  11.337  0.8243  2.4510 -0.2658
14195SOL     OW47522   3.180   9.265   1.981  0.1819  0.7884 -0.5380
14195SOL    HW147523   3.195   9.175   2.012 -0.1244  1.1514  0.7192
14195SOL    HW247524   3.086   9.270   1.964  0.1831  0.8951 -0.5152
14196SOL     OW47525   3.988   2.150   7.087  0.0159 -0.1813  0.1498
14196SOL    HW147526   4.003   2.057   7.073  1.3492  0.0909 -0.3990
14196SOL    HW247527   3.944   2.180   7.007  0.6536 -0.1216 -0.1841
14197SOL     OW47528   5.178   9.989   2.007 -0.4556  0.5678 -0.0867
14197SOL    HW147529   5.130  10.047   2.066 -0.3156  0.7838 -0.1850
14197SOL    HW247530   5.122   9.912   1.998  0.8304 -0.8598  2.7664
14198SOL     OW47531   2.050   1.753   8.937  0.2056  0.1779  0.8191
14198SOL    HW147532   2.122   1.708   8.982  0.8637  1.1826  0.7783
14198SOL    HW247533   2.009   1.684   8.884  0.6824 -0.5619  1.3885
14199SOL     OW47534   3.426   4.287   8.832  0.5099 -0.2806  0.1658
14199SOL    HW147535   3.476   4.233   8.770  0.0595  0.1939 -0.6180
14199SOL    HW247536   3.353   4.322   8.781  0.0292 -0.0250  1.0122
14200SOL     OW47537   9.571   2.947   6.331  0.0322 -0.0834 -0.7141
14200SOL    HW147538   9.577   2.962   6.426  3.1903  0.4741 -0.8968
14200SOL    HW247539   9.478   2.927   6.316 -0.7350  0.6239  2.3464
14201SOL     OW47540  11.032   4.392   6.829 -0.5883  0.3536  0.5308
14201SOL    HW147541  10.952   4.382   6.879 -0.5694  0.5471  0.5972
14201SOL    HW247542  11.094   4.434   6.889 -0.1710 -0.5596  0.7582
14202SOL     OW47543   8.429   5.805   9.007  0.1607 -0.3175 -0.5584
14202SOL    HW147544   8.504   5.841   9.055 -0.0683 -2.2249  1.3931
14202SOL    HW247545   8.435   5.710   9.021 -1.7911 -0.6477 -1.6141
14203SOL     OW47546   3.137  10.328   7.113 -0.3892 -0.2163 -0.3113
14203SOL    HW147547   3.190  10.405   7.095 -0.9139  0.4911  1.0623
14203SOL    HW247548   3.049  10.362   7.126 -1.1484 -1.3245 -2.1180
14204SOL     OW47549  11.676   2.533  10.883 -0.3902 -0.7719  0.2343
14204SOL    HW147550  11.701   2.448  10.921 -1.1323 -0.2767  1.9505
14204SOL    HW247551  11.581   2.534  10.889 -0.3954  0.1268  0.0772
14205SOL     OW47552   4.477   8.626  10.712 -0.3824  0.0364 -0.1926
14205SOL    HW147553   4.572   8.635  10.722 -0.2791  0.3910 -1.3704
14205SOL    HW247554   4.460   8.533  10.728  0.1989 -0.0869 -0.2474
14206SOL     OW47555  11.405   9.773   9.900 -0.0092 -0.0747  0.0959
14206SOL    HW147556  11.367   9.707   9.957 -1.1845 -0.2493 -0.8500
14206SOL    HW247557  11.475   9.812   9.952 -2.4096  1.3012  2.5459
14207SOL     OW47558  11.555   8.997   3.545 -0.2065  0.1244 -0.1250
14207SOL    HW147559  11.507   8.930   3.592 -1.5037  1.9330  1.3015
14207SOL    HW247560  11.487   9.057   3.514  0.8824  0.7087 -1.4857
14208SOL     OW47561   6.691  11.092  10.589 -0.0694  0.3951 -0.0744
14208SOL    HW147562   6.633  11.056  10.523  0.9766  1.4121 -1.6364
14208SOL    HW247563   6.689  11.187  10.574 -0.7346  0.8135  2.1884
14209SOL     OW47564   5.223  10.054  10.639  0.2820  0.7324 -0.3070
14209SOL    HW147565   5.172  10.069  10.559 -0.9350  1.4841  0.5795
14209SOL    HW247566   5.275   9.976  10.620 -0.5087  0.4913 -1.5847
14210SOL     OW47567   4.848   8.711   4.443 -0.0530  0.7002 -0.2756
14210SOL    HW147568   4.898   8.773   4.496  0.6105 -0.5766  0.6462
14210SOL    HW247569   4.839   8.753   4.358  0.0999  2.1833  0.4128
14211SOL     OW47570   2.921   4.005   0.191  0.2011 -0.2289 -0.1854
14211SOL    HW147571   2.937   3.922   0.238  1.8083 -0.2906 -0.7825
14211SOL    HW247572   2.941   4.073   0.255 -1.2030 -0.2692  0.3332
14212SOL     OW47573   5.406   1.878  10.383 -0.4984  0.0161  0.3010
14212SOL    HW147574   5.374   1.955  10.336  2.0584  1.1970  0.3534
14212SOL    HW247575   5.328   1.823  10.393 -1.9239  1.4481 -1.9007
14213SOL     OW47576   7.528   2.665   2.036 -1.0639 -0.1719  0.0426
14213SOL    HW147577   7.447   2.620   2.011 -0.8678 -0.9096  0.7123
14213SOL    HW247578   7.598   2.610   2.001 -0.7881 -1.0378  1.8400
14214SOL     OW47579   6.977   4.942  11.101 -0.3264 -0.1206 -0.2073
14214SOL    HW147580   6.885   4.930  11.081 -0.0088 -0.7362 -1.4102
14214SOL    HW247581   6.979   4.966  11.193 -1.5922 -1.5086  0.2071
14215SOL     OW47582   7.958  11.122  11.027 -0.2989 -0.0494  0.6196
14215SOL    HW147583   7.883  11.150  10.975 -0.0686 -2.0209 -0.9048
14215SOL    HW247584   7.982  11.199  11.078 -2.2516  1.1517 -0.1476
14216SOL     OW47585  10.245   8.676   1.264 -0.3387  0.1110  0.2070
14216SOL    HW147586  10.271   8.640   1.349 -1.0957  1.9115  1.2717
14216SOL    HW247587  10.160   8.717   1.281 -0.1195  1.2433 -1.2058
14217SOL     OW47588   4.944   0.476   1.619 -0.5469 -0.4935 -0.3068
14217SOL    HW147589   4.989   0.395   1.597  1.5351  0.4007  0.3935
14217SOL    HW247590   4.890   0.454   1.695 -0.4806 -1.3497 -0.4949
14218SOL     OW47591   0.922   8.586   6.454 -0.2069 -0.3672 -0.1109
14218SOL    HW147592   1.017   8.592   6.442 -0.1778  1.5758  0.7580
14218SOL    HW247593   0.899   8.498   6.423  1.8836 -0.9142 -0.2220
14219SOL     OW47594   8.298   8.023   0.922 -0.2444  0.5294  0.4731
14219SOL    HW147595   8.220   8.078   0.920 -1.0906 -0.6437 -1.4068
14219SOL    HW247596   8.357   8.064   0.859  0.2956  0.8611  1.1776
14220SOL     OW47597   0.416   0.845   4.907 -0.6418  0.0750  0.2726
14220SOL    HW147598   0.477   0.786   4.864  0.6293  0.6007  1.2991
14220SOL    HW247599   0.354   0.870   4.838 -0.1113 -0.9877 -0.6232
14221SOL     OW47600   4.759  11.620  10.950  0.9626 -0.0415 -0.3054
14221SOL    HW147601   4.747  11.626  11.045  0.9884  0.8873 -0.3530
14221SOL    HW247602   4.773  11.526  10.934 -0.9282 -0.4915  0.3828
14222SOL     OW47603   7.194   8.461   0.544 -0.2428 -0.0481 -0.3896
14222SOL    HW147604   7.178   8.420   0.459 -1.9726 -0.8206  0.2638
14222SOL    HW247605   7.116   8.514   0.560  0.9347  1.6549 -0.1414
14223SOL     OW47606   9.247   3.814   7.047  0.3818  0.5053  0.1058
14223SOL    HW147607   9.228   3.758   7.122  3.2899  0.5587  0.9912
14223SOL    HW247608   9.273   3.752   6.978  1.4461  0.6381  0.3816
14224SOL     OW47609   5.171   5.837   1.947  0.2179  0.3730  0.4579
14224SOL    HW147610   5.080   5.810   1.936  0.3968  0.0842 -0.3815
14224SOL    HW247611   5.219   5.756   1.966  0.0639  0.7351  2.6731
14225SOL     OW47612   9.230   6.114   5.953 -0.1087 -0.1544 -0.3599
14225SOL    HW147613   9.169   6.166   6.005 -0.2630  0.7248 -1.3837
14225SOL    HW247614   9.317   6.145   5.978 -0.1218 -0.6825  0.3481
14226SOL     OW47615   0.956   9.864  10.838  0.2965 -0.5875  0.1874
14226SOL    HW147616   0.873   9.894  10.801  0.3252 -0.8770 -0.1120
14226SOL    HW247617   1.014   9.939  10.829  0.1996 -0.5359 -0.0302
14227SOL     OW47618   1.349   4.216   5.894  0.2660  0.1136 -0.2507
14227SOL    HW147619   1.361   4.309   5.913 -1.0274 -0.0354  1.4934
14227SOL    HW247620   1.367   4.171   5.977  0.3450 -1.1439 -0.9175
14228SOL     OW47621   9.239   0.784   8.465 -0.5962 -0.3950 -0.1142
14228SOL    HW147622   9.262   0.696   8.493  0.3828 -0.6500 -1.5890
14228SOL    HW247623   9.322   0.832   8.468 -1.2025  0.6424  1.1523
14229SOL     OW47624  10.905   5.944   9.980  0.7363  0.2992 -0.4453
14229SOL    HW147625  10.987   5.962  10.026  0.2774  2.1412 -0.2714
14229SOL    HW247626  10.864   5.874  10.031  0.7517  1.5251  1.3423
14230SOL     OW47627   5.333   9.607   3.488  0.0078 -0.3601 -0.2142
14230SOL    HW147628   5.344   9.515   3.513 -0.6675 -0.4981 -0.4172
14230SOL    HW247629   5.346   9.608   3.394  1.8726  0.0570  0.0055
14231SOL     OW47630   9.536   4.785   0.248 -0.1903  0.0257  0.3186
14231SOL    HW147631   9.560   4.816   0.161  0.9381 -1.2247  0.1543
14231SOL    HW247632   9.510   4.864   0.296  0.2125  0.8655 -0.8127
14232SOL     OW47633   8.610   8.365   0.987 -0.4096  0.3638 -0.5142
14232SOL    HW147634   8.626   8.439   0.929  0.8960 -1.3318 -2.4600
14232SOL    HW247635   8.693   8.351   1.033 -0.8517  0.4984  0.3567
14233SOL     OW47636   0.891   2.790  10.909  0.4344  0.3305 -0.7291
14233SOL    HW147637   0.884   2.699  10.939 -1.3940  0.7005  0.1021
14233SOL    HW247638   0.965   2.789  10.847  2.2279 -1.1482  1.2656
14234SOL     OW47639   7.133   5.135   8.278  0.2748  0.1944 -0.5032
14234SOL    HW147640   7.126   5.230   8.278  0.2615  0.1996  0.2720
14234SOL    HW247641   7.107   5.109   8.367  3.0912 -0.2926  0.2804
14235SOL     OW47642   5.855   7.542  11.051  0.3001 -0.1587  0.0728
14235SOL    HW147643   5.791   7.476  11.026  0.6481 -0.8946  1.0440
14235SOL    HW247644   5.808   7.599  11.113  0.1418  0.2214 -0.3936
14236SOL     OW47645   4.396   6.911   1.523  0.1187  0.3161  0.2325
14236SOL    HW147646   4.435   6.984   1.571  0.1701  0.2391  0.3096
14236SOL    HW247647   4.355   6.857   1.591  0.9496 -0.2598  0.2986
14237SOL     OW47648   2.438   8.842   5.549  0.5598 -0.7553 -0.1236
14237SOL    HW147649   2.428   8.855   5.643  2.2402  2.9578 -0.2650
14237SOL    HW247650   2.512   8.782   5.540  1.5109  0.2049  0.9843
14238SOL     OW47651   1.907   1.967   6.504 -0.0220  0.0683  0.2778
14238SOL    HW147652   1.951   1.931   6.582  0.0941  1.1604  0.7289
14238SOL    HW247653   1.964   2.038   6.474 -0.4559  0.1619 -0.3530
14239SOL     OW47654   8.653  10.628   1.430  0.1835  0.4229 -0.2207
14239SOL    HW147655   8.714  10.672   1.489 -0.7272  0.3954  0.7807
14239SOL    HW247656   8.567  10.660   1.457 -0.3382 -0.4754 -0.7764
14240SOL     OW47657  10.498   7.357  10.414  0.5811 -0.6644 -0.6078
14240SOL    HW147658  10.540   7.277  10.446  0.8590 -0.9961 -1.7552
14240SOL    HW247659  10.459   7.332  10.330  0.6312  0.3966 -0.9650
14241SOL     OW47660   4.609   3.287   9.316  0.3212  0.1226 -0.4852
14241SOL    HW147661   4.699   3.272   9.345  0.9634  1.6523 -1.5379
14241SOL    HW247662   4.618   3.320   9.227 -1.3467 -0.4707 -0.9070
14242SOL     OW47663   6.434   3.455   0.020 -0.2336 -0.8862 -0.3398
14242SOL    HW147664   6.389   3.521   0.073 -0.0119 -0.4331 -0.7043
14242SOL    HW247665   6.366   3.392  -0.003 -0.5685 -0.4910 -0.4408
14243SOL     OW47666   9.901   5.846  10.016 -0.3383 -0.2253  0.3528
14243SOL    HW147667   9.945   5.786  10.076 -0.0353  0.9670  1.3571
14243SOL    HW247668   9.967   5.868   9.951  0.0176  0.1441  0.8250
14244SOL     OW47669   8.169  11.227   2.256  0.2582  0.2124  0.0948
14244SOL    HW147670   8.150  11.222   2.163  0.6633 -2.5818  0.0799
14244SOL    HW247671   8.085  11.249   2.297 -0.0337  0.9395 -0.8535
14245SOL     OW47672   8.968   7.801   4.019 -0.0468  0.0259 -0.3425
14245SOL    HW147673   8.902   7.737   3.993  0.7402 -0.7128 -0.5639
14245SOL    HW247674   8.996   7.773   4.106 -0.5466  0.7726  0.0723
14246SOL     OW47675  10.075   2.574   7.723  0.4734  0.7314 -0.1286
14246SOL    HW147676  10.136   2.619   7.781 -0.3987  1.0746  0.5448
14246SOL    HW247677   9.993   2.569   7.773 -0.4339  1.4260 -1.4719
14247SOL     OW47678   9.295   5.819   7.431  0.0595 -0.0443  0.2315
14247SOL    HW147679   9.219   5.760   7.436  0.3468 -0.4197  0.2489
14247SOL    HW247680   9.265   5.901   7.471  0.0975 -0.6512  1.5844
14248SOL     OW47681   4.013  11.483  10.718  0.2036  0.2300  0.7924
14248SOL    HW147682   3.982  11.465  10.807  1.0428 -0.3079  0.9828
14248SOL    HW247683   3.944  11.538  10.680 -1.1892 -1.2394  1.0669
14249SOL     OW47684  10.160   4.051  11.008  0.2427 -0.4743 -0.1333
14249SOL    HW147685  10.072   4.082  11.033 -0.6556 -2.1639 -1.0014
14249SOL    HW247686  10.170   3.969  11.056  0.3297 -1.5056 -1.8485
14250SOL     OW47687  10.732   5.799  11.049  0.9591  0.2833 -0.4264
14250SOL    HW147688  10.725   5.820  11.142  0.8383  3.3069 -1.0364
14250SOL    HW247689  10.793   5.864  11.014  2.1314 -1.6600 -2.2662
14251SOL     OW47690   5.209  10.132   4.065 -0.7482 -0.7125 -0.1086
14251SOL    HW147691   5.268  10.184   4.119 -0.1727 -1.1339 -0.3245
14251SOL    HW247692   5.262  10.103   3.991 -1.5233 -0.1749 -0.8911
14252SOL     OW47693   4.462   4.609   9.111  1.3316  0.3727 -0.3928
14252SOL    HW147694   4.516   4.533   9.129  1.3702  0.6578  0.7859
14252SOL    HW247695   4.488   4.673   9.178 -0.3127  0.5817  0.0840
14253SOL     OW47696   4.123  10.204  10.391 -0.2551  0.5984 -0.2144
14253SOL    HW147697   4.090  10.115  10.391  1.3348 -0.0176 -0.4602
14253SOL    HW247698   4.118  10.232  10.299 -4.1177  2.1482  0.2719
14254SOL     OW47699  11.335   5.441   4.616  0.4259  0.3289 -0.1179
14254SOL    HW147700  11.406   5.488   4.572  0.7107  0.2387  0.2469
14254SOL    HW247701  11.284   5.403   4.544 -0.1482  1.6686 -0.4626
14255SOL     OW47702   2.610   7.009  10.232 -0.0751 -0.1194  0.0754
14255SOL    HW147703   2.571   7.096  10.244  0.9421  0.3980 -0.2679
14255SOL    HW247704   2.573   6.977  10.150  1.0477  0.8578 -0.8582
14256SOL     OW47705  10.662   2.827   2.708  0.1212 -0.1834 -0.7428
14256SOL    HW147706  10.715   2.901   2.739  0.2620 -0.6802  0.2389
14256SOL    HW247707  10.724   2.772   2.660 -0.0946  0.5824 -1.9413
14257SOL     OW47708   4.685   2.659   1.718  0.1188 -0.6502 -0.3466
14257SOL    HW147709   4.636   2.738   1.695  3.3451  1.9378  0.8293
14257SOL    HW247710   4.655   2.636   1.805 -0.1764 -0.0749 -0.2911
14258SOL     OW47711   1.917  11.571   3.588  0.3467 -0.3992 -0.2059
14258SOL    HW147712   1.858  11.646   3.588  1.1196  0.2465  1.2016
14258SOL    HW247713   1.864  11.498   3.621  0.2461  0.1280  0.8365
14259SOL     OW47714   7.611   0.029   8.272  0.2954 -0.7775  0.0310
14259SOL    HW147715   7.633   0.031   8.179  2.8062  0.0994  0.5659
14259SOL    HW247716   7.582  -0.061   8.288 -0.8945 -0.7476 -1.7001
14260SOL     OW47717   2.086   8.418   9.953 -0.5504 -0.0369  0.7881
14260SOL    HW147718   2.054   8.508   9.957  0.7330  0.5362 -0.9546
14260SOL    HW247719   2.150   8.412  10.024 -1.6985 -0.0583  1.8560
14261SOL     OW47720   5.182   5.610   0.866 -0.1694  0.7828 -0.6149
14261SOL    HW147721   5.277   5.604   0.851 -0.2317  1.2987 -1.2753
14261SOL    HW247722   5.146   5.628   0.779 -0.9104  0.2354 -0.4237
14262SOL     OW47723   4.417  10.066   5.065  0.4200  0.4631 -0.4569
14262SOL    HW147724   4.432  10.070   5.159 -1.7507  0.8866 -0.0811
14262SOL    HW247725   4.322  10.072   5.055  0.5938  0.4504 -2.6814
14263SOL     OW47726   9.190   4.037  11.212  0.3949 -0.2571  0.0517
14263SOL    HW147727   9.270   4.035  11.160  0.4455 -0.6681  0.1413
14263SOL    HW247728   9.146   3.955  11.192  1.2570 -1.2499  1.9384
14264SOL     OW47729   4.378   7.730   8.123  0.6922  0.0408 -0.3158
14264SOL    HW147730   4.390   7.745   8.217 -0.1857  2.0384 -0.4572
14264SOL    HW247731   4.290   7.693   8.115  0.6251  0.2116 -0.3728
14265SOL     OW47732   2.888  10.474  10.519  0.5610  0.3302 -0.0945
14265SOL    HW147733   2.961  10.470  10.581  1.0275  1.1884 -0.5769
14265SOL    HW247734   2.912  10.411  10.451  1.0411  0.8843 -0.4460
14266SOL     OW47735   7.822   0.751   2.728  0.0708 -0.1212  0.7061
14266SOL    HW147736   7.815   0.732   2.634  0.9950  0.9353  0.3971
14266SOL    HW247737   7.881   0.682   2.761  1.1356  0.4875  0.1501
14267SOL     OW47738  10.606   3.289   0.285  0.4927  0.2795 -0.3559
14267SOL    HW147739  10.571   3.378   0.279 -1.9128 -0.6532 -1.1581
14267SOL    HW247740  10.559   3.250   0.358 -1.5600 -1.5367 -2.5027
14268SOL     OW47741   9.211   2.135   6.525 -0.1753 -0.0801  0.1998
14268SOL    HW147742   9.189   2.057   6.473 -1.1331  0.8867 -0.8961
14268SOL    HW247743   9.243   2.100   6.608  0.5323 -1.6662 -0.6930
14269SOL     OW47744   5.850   5.595   8.061  0.0999 -0.2557 -0.2549
14269SOL    HW147745   5.799   5.525   8.102 -1.2526  1.4162  1.1239
14269SOL    HW247746   5.786   5.646   8.012  1.1440 -0.2452 -1.6615
14270SOL     OW47747   6.427   9.117   3.364  0.5939 -0.3433  0.5857
14270SOL    HW147748   6.441   9.055   3.292  2.3797  2.1819 -1.4244
14270SOL    HW247749   6.335   9.144   3.354  0.4836 -0.8945  0.0106
14271SOL     OW47750  11.582   5.935   7.346  0.0154  0.1042  0.4346
14271SOL    HW147751  11.623   5.897   7.424 -1.4046  1.2178  1.7996
14271SOL    HW247752  11.488   5.926   7.361 -0.3301  1.9239 -0.2911
14272SOL     OW47753   0.657   7.917   4.763 -0.2114  0.3783 -0.0455
14272SOL    HW147754   0.566   7.927   4.735  0.1015 -0.7811 -1.6117
14272SOL    HW247755   0.682   8.004   4.794 -1.7245  0.8112  0.0464
14273SOL     OW47756   3.721   5.808   5.885  0.6129  0.2018  0.6796
14273SOL    HW147757   3.656   5.753   5.842  0.0459  2.3973 -1.5282
14273SOL    HW247758   3.804   5.761   5.872  0.0331 -0.6157 -0.2435
14274SOL     OW47759   8.383  10.122   3.278 -0.2138  0.1756 -0.1023
14274SOL    HW147760   8.325  10.109   3.353 -1.6181 -0.4025 -1.2246
14274SOL    HW247761   8.457  10.173   3.312 -0.3001 -0.9416  1.8763
14275SOL     OW47762   2.242   7.500   2.220 -0.3679  0.4146  0.3119
14275SOL    HW147763   2.235   7.420   2.167  1.8061  0.9191 -0.8381
14275SOL    HW247764   2.234   7.469   2.310  1.3417 -1.2715 -0.0538
14276SOL     OW47765   4.996   2.293   8.792 -0.5340  0.1806 -0.0593
14276SOL    HW147766   4.960   2.206   8.775  1.3421 -1.2991  2.6839
14276SOL    HW247767   4.929   2.336   8.845 -0.0064 -1.1265  1.8031
14277SOL     OW47768  11.004   3.431   6.728 -0.0581 -0.4564  0.8306
14277SOL    HW147769  11.074   3.486   6.764  0.9830  0.7792 -2.7008
14277SOL    HW247770  10.923   3.477   6.752  0.7502  2.4531 -1.4262
14278SOL     OW47771   1.448  10.113   0.328 -0.5454 -0.9485 -0.1805
14278SOL    HW147772   1.505  10.061   0.271 -0.6101  1.3674 -2.4805
14278SOL    HW247773   1.359  10.089   0.302 -0.5773  0.4434 -1.4630
14279SOL     OW47774   4.443   5.268   5.069 -0.1783  0.9285  0.3546
14279SOL    HW147775   4.530   5.292   5.102  0.3483  0.5461 -0.7082
14279SOL    HW247776   4.419   5.190   5.119  1.4431 -0.7889 -1.3873
14280SOL     OW47777   8.041   3.602   6.883 -0.2365  0.0555  0.0753
14280SOL    HW147778   8.112   3.663   6.864 -0.8866  0.5492 -0.8902
14280SOL    HW247779   8.067   3.559   6.964  0.0585  1.8971  1.0095
14281SOL     OW47780   0.258   5.703   3.889  0.5452 -0.4465  0.3041
14281SOL    HW147781   0.286   5.791   3.915 -3.0431  1.1982 -0.6823
14281SOL    HW247782   0.261   5.705   3.793  0.7007 -1.5132  0.2811
14282SOL     OW47783   9.892  10.820  11.565  0.5362  0.0012 -0.3654
14282SOL    HW147784   9.893  10.759  11.638  0.3064 -0.3373 -0.6412
14282SOL    HW247785   9.837  10.778  11.499 -1.5368  1.4863  0.2928
14283SOL     OW47786  10.203  11.356   9.950  0.2486 -0.4896  0.0134
14283SOL    HW147787  10.127  11.412   9.963 -0.3809 -1.1050 -0.8519
14283SOL    HW247788  10.273  11.415   9.924 -0.1924 -0.0154 -0.1117
14284SOL     OW47789   2.624  10.340   3.405  0.1146 -0.2002  0.3975
14284SOL    HW147790   2.577  10.418   3.374  0.3462 -0.9091 -1.9380
14284SOL    HW247791   2.713  10.372   3.424  0.2451  0.1148 -0.6656
14285SOL     OW47792  10.747   2.405   2.891  0.6835  0.5918  0.2224
14285SOL    HW147793  10.677   2.468   2.908  0.8634  1.0864 -0.7738
14285SOL    HW247794  10.803   2.409   2.967  1.1522  2.2642 -0.1754
14286SOL     OW47795   8.357  11.255   1.373 -0.1046 -0.0813  0.1919
14286SOL    HW147796   8.342  11.324   1.437 -1.6018  1.5801 -1.8308
14286SOL    HW247797   8.344  11.174   1.422  0.3995  1.0602  2.3302
14287SOL     OW47798   1.950   5.215   1.980 -0.0039  0.2483 -0.5496
14287SOL    HW147799   1.919   5.169   1.902  0.5390  1.3681 -1.4548
14287SOL    HW247800   2.042   5.233   1.963  0.6415 -1.1660  1.2002
14288SOL     OW47801   3.976  10.645   8.283 -0.1948  0.5888 -0.1591
14288SOL    HW147802   4.066  10.678   8.280 -0.0831  0.7088  2.2996
14288SOL    HW247803   3.924  10.721   8.308 -1.1580  0.7076 -2.3013
14289SOL     OW47804  11.179   8.663   0.480  0.4618  0.1427 -0.7033
14289SOL    HW147805  11.166   8.680   0.387 -1.7818  2.0083 -0.1327
14289SOL    HW247806  11.256   8.715   0.504  0.0855  0.9560 -1.2206
14290SOL     OW47807   7.358   2.545   4.004 -0.8869 -0.1791 -0.2941
14290SOL    HW147808   7.426   2.481   4.024  0.1550  1.3444  1.2947
14290SOL    HW247809   7.356   2.603   4.081 -1.9533  1.5507 -1.5629
14291SOL     OW47810   5.235   5.785   7.792 -0.3445 -0.0965  0.2048
14291SOL    HW147811   5.318   5.786   7.744 -0.5008  1.3305 -0.0705
14291SOL    HW247812   5.256   5.742   7.875  0.9340  1.1309  0.5615
14292SOL     OW47813   7.916   8.044   8.695  0.1233  0.3547  0.2566
14292SOL    HW147814   7.832   8.016   8.732  0.3278 -0.0890  0.3887
14292SOL    HW247815   7.893   8.084   8.611 -0.4184  1.8367  1.0500
14293SOL     OW47816   0.741   6.572   6.958 -0.4009 -0.3472 -0.2576
14293SOL    HW147817   0.807   6.585   7.026 -1.2060  0.1048  0.4544
14293SOL    HW247818   0.791   6.574   6.876  0.3170  1.3086  0.1738
14294SOL     OW47819   0.433   9.641   2.591  0.1374 -0.4734  0.3771
14294SOL    HW147820   0.374   9.665   2.662  1.1302  1.0692  0.7250
14294SOL    HW247821   0.378   9.592   2.529 -1.0839 -0.5489  1.4841
14295SOL     OW47822   7.620  11.169   6.325 -0.3339 -0.0647 -0.1663
14295SOL    HW147823   7.525  11.177   6.325 -0.4797 -0.5652 -3.1953
14295SOL    HW247824   7.636  11.074   6.332 -0.1398 -0.1141 -1.1727
14296SOL     OW47825  10.155   8.179   8.624  0.2375 -0.2086  0.4484
14296SOL    HW147826  10.066   8.174   8.591  0.0251 -0.4922  1.0547
14296SOL    HW247827  10.194   8.094   8.602 -0.5167 -1.1919  2.6161
14297SOL     OW47828   4.746   8.338   6.102  0.1619  0.0908  0.2335
14297SOL    HW147829   4.701   8.352   6.019 -1.5259 -0.3862  1.0225
14297SOL    HW247830   4.691   8.382   6.167  0.9280 -0.3788  1.2229
14298SOL     OW47831   7.697   0.858  10.391 -0.2338 -0.0575  0.4673
14298SOL    HW147832   7.706   0.898  10.478 -1.2339 -1.8335  1.4578
14298SOL    HW247833   7.633   0.788  10.404 -0.2132 -0.5342 -1.6717
14299SOL     OW47834  11.543   7.671   8.637  0.0281  0.2750 -0.0465
14299SOL    HW147835  11.639   7.675   8.635  0.0575 -0.3981 -1.8810
14299SOL    HW247836  11.519   7.711   8.721  1.9266 -0.1127  0.7334
14300SOL     OW47837   4.346   4.360   4.606  0.5119 -0.0716 -0.2659
14300SOL    HW147838   4.288   4.422   4.650 -1.3954 -2.9158  1.5765
14300SOL    HW247839   4.429   4.367   4.653  1.1329  2.5818 -1.5891
14301SOL     OW47840  10.346   5.409   9.183  0.4020 -0.1805 -0.2202
14301SOL    HW147841  10.407   5.375   9.116  0.2009  0.7439 -0.8919
14301SOL    HW247842  10.301   5.481   9.140  0.2364  0.4165  0.9182
14302SOL     OW47843   1.215   9.850  10.202  0.2299  0.0426 -0.1649
14302SOL    HW147844   1.210   9.802  10.119  2.7095 -1.4241  0.4031
14302SOL    HW247845   1.205   9.782  10.269  3.3210  0.2281  0.6642
14303SOL     OW47846   2.553   7.614   8.985  0.4660 -0.0549 -0.3774
14303SOL    HW147847   2.490   7.617   9.057 -1.4013 -0.2715 -1.9220
14303SOL    HW247848   2.581   7.704   8.972  0.5992  0.0223  0.4022
14304SOL     OW47849   2.305   5.130   2.075  0.1841 -0.3138 -0.1286
14304SOL    HW147850   2.243   5.172   2.134  2.5842  3.2573  0.2313
14304SOL    HW247851   2.288   5.170   1.990  0.6233 -0.8791 -0.4913
14305SOL     OW47852   9.722   9.908   7.603 -0.0527 -0.3884 -0.1190
14305SOL    HW147853   9.795   9.954   7.645  0.2373 -1.6584  0.8278
14305SOL    HW247854   9.752   9.891   7.514 -0.0147  0.8739 -0.3682
14306SOL     OW47855   5.037   2.592   3.327  0.5865  0.4438 -0.1150
14306SOL    HW147856   5.108   2.562   3.269  0.2698  2.1659 -1.4756
14306SOL    HW247857   5.081   2.651   3.389  0.3078  1.9157 -1.2792
14307SOL     OW47858   7.391  10.060   2.691  0.0374  0.7424  0.0074
14307SOL    HW147859   7.371  10.047   2.599 -0.0179 -0.2797  0.1570
14307SOL    HW247860   7.341  10.138   2.716  0.1633  1.1049 -0.8531
14308SOL     OW47861   6.775  10.397   4.226 -0.1036 -0.0704 -0.1511
14308SOL    HW147862   6.858  10.444   4.231  0.9591 -2.0035  2.2817
14308SOL    HW247863   6.799  10.304   4.221 -2.1274 -0.6494 -0.3446
14309SOL     OW47864   2.361   4.155   8.883 -0.2799  0.0857  0.1150
14309SOL    HW147865   2.427   4.149   8.952 -0.2249  2.6328  0.3855
14309SOL    HW247866   2.282   4.186   8.928  0.4191  4.3202 -1.1062
14310SOL     OW47867   1.131  11.662   2.784  0.3003  0.1986 -0.8083
14310SOL    HW147868   1.067  11.595   2.762  0.3253 -0.3238  0.6138
14310SOL    HW247869   1.108  11.737   2.729 -0.0156 -0.7978 -2.0792
14311SOL     OW47870   6.012  10.947   7.926 -0.2232 -0.0142  0.2904
14311SOL    HW147871   6.006  10.905   8.011  1.5941 -1.5055 -0.2496
14311SOL    HW247872   6.050  11.033   7.944  0.9588 -0.6459  0.9230
14312SOL     OW47873   0.829  11.181  11.086 -0.2526 -0.0983  0.2975
14312SOL    HW147874   0.810  11.216  10.999  0.3042 -0.1645  0.1446
14312SOL    HW247875   0.750  11.134  11.111 -0.2670 -0.4297 -0.3500
14313SOL     OW47876   8.521   4.576   2.231 -0.1770  0.0289  0.8443
14313SOL    HW147877   8.553   4.538   2.149 -0.4473 -0.7548  1.0862
14313SOL    HW247878   8.441   4.623   2.206  1.2155  2.1658  0.2104
14314SOL     OW47879   4.015   0.898   3.628 -0.1504  0.1559 -0.4289
14314SOL    HW147880   4.029   0.900   3.723 -1.1575  0.0158 -0.2705
14314SOL    HW247881   4.021   0.990   3.601  0.5099  0.1598 -0.2996
14315SOL     OW47882   9.697   6.584   2.314 -0.2167 -0.1896 -0.3161
14315SOL    HW147883   9.756   6.513   2.341 -1.1705 -1.2523 -0.9151
14315SOL    HW247884   9.732   6.614   2.230  0.4490  0.3734  0.1543
14316SOL     OW47885   8.720  10.083   1.264 -0.5655 -0.0220  0.1056
14316SOL    HW147886   8.768  10.002   1.245  1.2868  1.3893 -1.6194
14316SOL    HW247887   8.733  10.097   1.357 -1.7065 -2.1452  0.6550
14317SOL     OW47888   3.817   7.889   8.333 -0.2505 -0.3624 -0.1379
14317SOL    HW147889   3.810   7.904   8.427  0.6546  1.7367 -0.3423
14317SOL    HW247890   3.847   7.799   8.325  1.3885 -0.0427  1.6831
14318SOL     OW47891  11.021   2.921   9.457  0.0416  0.2910  0.2740
14318SOL    HW147892  11.012   2.842   9.404  1.2451  0.6991 -0.5858
14318SOL    HW247893  11.110   2.951   9.441  0.8901 -0.1675  3.4435
14319SOL     OW47894   3.228   4.616   6.559 -0.4083 -0.6271  0.3617
14319SOL    HW147895   3.273   4.540   6.522 -0.8006 -0.5130 -0.3875
14319SOL    HW247896   3.291   4.654   6.620  0.3893 -0.6665 -0.4136
14320SOL     OW47897   5.507   4.849   4.395 -0.3654 -0.0002  0.0734
14320SOL    HW147898   5.497   4.896   4.478  0.4096 -0.2441  0.3075
14320SOL    HW247899   5.564   4.775   4.416  1.5365  1.0535 -1.0926
14321SOL     OW47900   1.644   4.972   3.722 -0.3408 -0.4718  0.1195
14321SOL    HW147901   1.554   4.947   3.747  0.4362 -0.8130  2.8637
14321SOL    HW247902   1.633   5.048   3.665 -2.3847 -0.8178 -0.0274
14322SOL     OW47903   5.305   8.518   1.217 -0.5773 -0.0693  0.0910
14322SOL    HW147904   5.248   8.591   1.190  1.5048  1.5379 -0.1747
14322SOL    HW247905   5.391   8.541   1.183  0.2370 -2.5451  0.2974
14323SOL     OW47906   1.844   0.475   0.741  0.9007  1.2889 -0.1776
14323SOL    HW147907   1.888   0.540   0.797 -0.0906  2.9138 -1.2131
14323SOL    HW247908   1.813   0.525   0.666 -1.5055 -0.0318 -0.1603
14324SOL     OW47909   7.424   6.160  10.677 -0.2682  0.6630 -0.4083
14324SOL    HW147910   7.491   6.211  10.632  0.9269 -0.0718  0.4800
14324SOL    HW247911   7.377   6.224  10.732  0.3448  1.0223 -0.3020
14325SOL     OW47912   6.399  11.192   6.727  0.0833 -0.3940  0.7096
14325SOL    HW147913   6.386  11.142   6.647  1.5207  0.1747  0.0874
14325SOL    HW247914   6.311  11.217   6.754 -0.3848  0.0019 -1.0739
14326SOL     OW47915   3.940   4.789   0.811 -0.0545  0.0824  0.3065
14326SOL    HW147916   4.025   4.827   0.830 -0.0212  0.1728 -0.0197
14326SOL    HW247917   3.947   4.699   0.842  0.4739 -0.1839 -0.5432
14327SOL     OW47918   2.715   5.263  11.413 -0.9163  0.0467  0.2928
14327SOL    HW147919   2.705   5.255  11.318  0.4740 -4.0927  0.2905
14327SOL    HW247920   2.810   5.267  11.427 -1.0526 -0.5001  1.5036
14328SOL     OW47921   8.482   9.030   1.257  0.1537 -0.2923  0.0639
14328SOL    HW147922   8.550   8.966   1.236  0.5866  0.4551 -0.8592
14328SOL    HW247923   8.400   8.980   1.249  0.5548 -1.0996  0.8198
14329SOL     OW47924   8.497   1.902  11.585  0.4808 -0.7298  0.0428
14329SOL    HW147925   8.569   1.965  11.582  0.8231 -1.1407 -2.6076
14329SOL    HW247926   8.539   1.816  11.580 -0.0775 -1.1453  1.7552
14330SOL     OW47927   7.734  11.142   7.932  0.0249 -0.0407  0.4277
14330SOL    HW147928   7.754  11.074   7.867 -1.1175 -0.9724  1.0169
14330SOL    HW247929   7.819  11.179   7.955  0.5499 -0.4097 -0.8269
14331SOL     OW47930  10.406   9.614   4.812 -0.2636  0.2293  0.1028
14331SOL    HW147931  10.442   9.684   4.866  1.2522 -1.0374  0.8320
14331SOL    HW247932  10.483   9.566   4.781 -1.2640 -1.8213  0.6338
14332SOL     OW47933   7.320  10.184   5.900  0.3335  0.3915  0.0530
14332SOL    HW147934   7.279  10.136   5.828 -2.2760  0.9907  1.0204
14332SOL    HW247935   7.401  10.136   5.918  0.3558 -0.5784 -2.3221
14333SOL     OW47936   2.470   8.527  11.591  0.2244 -0.6004 -0.7749
14333SOL    HW147937   2.508   8.441  11.575  0.4746 -0.5171 -0.6535
14333SOL    HW247938   2.497   8.580  11.516 -0.4028 -0.7781 -1.1251
14334SOL     OW47939   7.640  11.616   8.829 -0.3359  0.0274 -0.0412
14334SOL    HW147940   7.697  11.566   8.888 -0.8764  0.0309  0.4940
14334SOL    HW247941   7.678  11.704   8.827  0.4568 -0.3071 -0.7665
14335SOL     OW47942  10.843   3.653  10.555  0.2127 -0.1943 -0.2379
14335SOL    HW147943  10.751   3.670  10.538  0.4035  1.4375  0.1515
14335SOL    HW247944  10.848   3.560  10.575 -1.1477 -0.5575 -1.4931
14336SOL     OW47945   6.050   8.039   9.035  0.4073 -0.1149  0.9936
14336SOL    HW147946   6.023   8.009   9.122  1.0032 -0.1506  1.1727
14336SOL    HW247947   6.118   8.104   9.053 -0.1194  0.5509  0.5786
14337SOL     OW47948   0.563   7.580   7.121  0.1954  0.0774 -0.1444
14337SOL    HW147949   0.594   7.664   7.088  0.6141  0.3844  0.9812
14337SOL    HW247950   0.546   7.596   7.214 -0.0051 -1.0059  0.0174
14338SOL     OW47951   4.435   2.190   3.608 -0.1839 -0.1957  0.1288
14338SOL    HW147952   4.527   2.200   3.632  0.5100 -0.3828 -2.2024
14338SOL    HW247953   4.416   2.268   3.555 -1.4704  0.0058  0.8582
14339SOL     OW47954   6.654   4.746   2.000  0.0109 -0.0724 -0.2297
14339SOL    HW147955   6.628   4.667   2.047  0.5063  0.2753  0.6490
14339SOL    HW247956   6.577   4.803   2.006  0.9515  1.0656  2.6080
14340SOL     OW47957   0.480   6.955   5.099 -0.0922  0.0042  0.0754
14340SOL    HW147958   0.494   7.038   5.145 -1.6632  0.3807 -0.0430
14340SOL    HW247959   0.553   6.900   5.125  1.2264  1.5597 -0.1636
14341SOL     OW47960   9.311   6.151   3.471 -0.5000  0.6173  0.2073
14341SOL    HW147961   9.333   6.159   3.564 -0.6119 -0.3466  0.3227
14341SOL    HW247962   9.221   6.117   3.470  0.8194 -3.4056 -0.1622
14342SOL     OW47963   8.380   3.282   6.333 -0.8130 -0.6201 -0.5772
14342SOL    HW147964   8.437   3.218   6.290 -1.1687 -1.2243 -0.1520
14342SOL    HW247965   8.313   3.302   6.267 -1.7659 -2.0726 -0.0896
14343SOL     OW47966  11.132   9.543   5.924 -0.1347 -0.1639  0.3686
14343SOL    HW147967  11.083   9.618   5.959 -0.5063 -0.4639  0.4998
14343SOL    HW247968  11.067   9.473   5.917  0.3665 -0.7205  0.9986
14344SOL     OW47969   7.144   3.524   8.980  0.0261 -0.1675  0.4132
14344SOL    HW147970   7.215   3.547   8.920 -0.6518 -0.2607 -0.4488
14344SOL    HW247971   7.186   3.513   9.065  1.1622 -0.9531 -0.2312
14345SOL     OW47972   1.594   8.032   9.043  0.0640 -0.5725 -0.0535
14345SOL    HW147973   1.574   8.023   9.136  3.2985 -0.6412  0.7283
14345SOL    HW247974   1.544   7.961   9.001 -1.7626 -0.2943  1.4909
14346SOL     OW47975   7.508   3.787   3.581  0.4612 -0.4653 -0.2714
14346SOL    HW147976   7.542   3.801   3.493 -0.0542  2.3925 -0.1060
14346SOL    HW247977   7.444   3.857   3.594  1.7679  0.3373  2.9741
14347SOL     OW47978   8.076   2.839   5.439  0.2422 -0.4271 -0.1972
14347SOL    HW147979   8.011   2.807   5.378 -1.3385  0.8798  0.7222
14347SOL    HW247980   8.154   2.854   5.385 -0.0072 -2.4577 -1.2315
14348SOL     OW47981   2.266   3.467   0.443 -0.2628  0.4432 -0.1832
14348SOL    HW147982   2.235   3.400   0.381  0.4498 -0.4505  0.3975
14348SOL    HW247983   2.187   3.515   0.466 -0.9483 -0.7116 -0.0210
14349SOL     OW47984   6.941   3.779   6.083  0.2537 -0.5010  0.2327
14349SOL    HW147985   7.021   3.728   6.075 -0.4202 -1.7266  1.0458
14349SOL    HW247986   6.930   3.820   5.998  2.0195  0.1278  0.2574
14350SOL     OW47987   3.856   8.724   4.803  0.1962 -0.1061 -0.4340
14350SOL    HW147988   3.884   8.664   4.734 -0.4956 -0.1168 -0.7187
14350SOL    HW247989   3.805   8.791   4.756  1.8140  1.3103 -0.2845
14351SOL     OW47990   8.375   7.352   6.102  0.6439 -0.2798 -0.1571
14351SOL    HW147991   8.398   7.325   6.191  0.8556  3.2833  1.0405
14351SOL    HW247992   8.283   7.377   6.108  0.8863  0.7898 -0.7060
14352SOL     OW47993   2.884  10.055   3.797 -0.1773  0.0100  0.2831
14352SOL    HW147994   2.973  10.089   3.785 -0.0546  0.0140  1.1105
14352SOL    HW247995   2.828  10.121   3.757  0.2133 -0.2406 -0.7087
14353SOL     OW47996   8.317  10.316   7.323 -0.5492 -0.0752  0.0616
14353SOL    HW147997   8.385  10.250   7.340 -0.2377  0.1927 -0.1414
14353SOL    HW247998   8.365  10.395   7.298 -0.9520 -0.5456 -2.4987
14354SOL     OW47999   2.822   4.916   8.621 -0.5430  0.0773 -0.5601
14354SOL    HW148000   2.880   4.844   8.597  0.8217 -0.3733  3.2986
14354SOL    HW248001   2.748   4.874   8.665 -0.8388  0.9011 -0.2470
14355SOL     OW48002   6.465  11.583  10.754 -0.3820 -0.5888  0.3400
14355SOL    HW148003   6.550  11.558  10.791  0.4177 -0.9560 -1.5938
14355SOL    HW248004   6.465  11.678  10.757 -0.9701 -0.6097  2.5177
14356SOL     OW48005  10.077  10.249   8.125 -0.1520  0.2822 -0.2854
14356SOL    HW148006  10.097  10.213   8.212 -1.4568 -2.9910 -1.2004
14356SOL    HW248007  10.133  10.200   8.065 -1.2502  0.5325 -1.5601
14357SOL     OW48008   9.341   5.345   3.080  0.2010  0.1772 -0.4893
14357SOL    HW148009   9.373   5.435   3.073  0.3129  0.2532  0.7725
14357SOL    HW248010   9.420   5.291   3.070  0.3856  0.2846  0.3291
14358SOL     OW48011   4.145   0.832  10.563 -0.6594 -0.8906  0.0975
14358SOL    HW148012   4.102   0.916  10.548  1.1429 -0.0645 -0.7777
14358SOL    HW248013   4.169   0.802  10.475  0.3496 -1.4048  0.5387
14359SOL     OW48014   2.783   0.104   3.023  0.0254 -0.0493  0.0868
14359SOL    HW148015   2.716   0.075   2.961 -0.5138 -0.0931  0.6823
14359SOL    HW248016   2.826   0.023   3.052 -0.0156 -0.0648  0.1037
14360SOL     OW48017   2.005   6.875   4.383  0.2909 -0.1142 -0.5500
14360SOL    HW148018   2.001   6.809   4.315  2.2591  0.4789 -1.3009
14360SOL    HW248019   1.915   6.905   4.393 -0.1343 -0.6862 -2.4092
14361SOL     OW48020   7.910   8.671   6.245 -0.0857  0.0832  0.7637
14361SOL    HW148021   7.943   8.650   6.333  1.0350 -0.8398  0.1462
14361SOL    HW248022   7.830   8.620   6.237 -0.5258  0.6455  1.4688
14362SOL     OW48023   3.707   3.953   6.089  0.1526 -0.1139 -0.6950
14362SOL    HW148024   3.746   4.039   6.074  0.1286  0.2372  1.0473
14362SOL    HW248025   3.618   3.973   6.118  0.8571 -0.5483  2.0400
14363SOL     OW48026   2.390   1.896  10.096  0.4172 -0.0412  0.1884
14363SOL    HW148027   2.413   1.988  10.082  1.2726 -0.0148  1.6354
14363SOL    HW248028   2.376   1.861  10.008  2.0083  0.9773 -0.5007
14364SOL     OW48029   9.429   6.225   4.810 -0.3646 -0.7863 -0.6864
14364SOL    HW148030   9.399   6.213   4.720  0.1718  1.0982 -1.1530
14364SOL    HW248031   9.350   6.241   4.861 -0.4295  2.5644 -1.6339
14365SOL     OW48032   5.508   0.545   5.131 -0.1178 -0.9017  0.1711
14365SOL    HW148033   5.588   0.493   5.142  0.1108 -0.5058  0.4107
14365SOL    HW248034   5.437   0.482   5.141  0.1710 -1.5540 -1.5894
14366SOL     OW48035   0.926   8.086   2.371 -0.3871 -0.0413 -0.0111
14366SOL    HW148036   0.945   8.123   2.285  1.5894  0.7648  0.7001
14366SOL    HW248037   0.943   7.993   2.361 -0.6014 -0.0191 -0.6089
14367SOL     OW48038   8.311   8.144   0.176  0.5331 -0.2009  0.4436
14367SOL    HW148039   8.378   8.201   0.214 -0.4161  0.2553  1.4702
14367SOL    HW248040   8.346   8.120   0.090  1.9208  0.1863  0.8784
14368SOL     OW48041   7.438   4.088   7.444  0.3237  0.6612  0.3741
14368SOL    HW148042   7.387   4.108   7.522 -2.3463 -0.3039 -0.9958
14368SOL    HW248043   7.425   3.995   7.429  1.9266  0.5374 -0.4769
14369SOL     OW48044   4.826  11.100   4.088  0.2602  0.0272  0.4718
14369SOL    HW148045   4.881  11.174   4.113 -0.2648  1.9450 -3.3332
14369SOL    HW248046   4.885  11.041   4.042 -0.0370  0.0076  0.1085
14370SOL     OW48047   6.404   9.915   1.062  0.0176  0.0625 -0.0695
14370SOL    HW148048   6.468   9.982   1.086  1.5636 -1.3942  0.0246
14370SOL    HW248049   6.321   9.948   1.098  1.0103  1.1875  1.3277
14371SOL     OW48050   0.467   4.969   7.015 -0.0712 -0.4554 -0.6134
14371SOL    HW148051   0.554   4.948   7.051 -0.9354 -1.7251  0.9025
14371SOL    HW248052   0.424   5.019   7.084 -1.1327 -1.3346 -0.6049
14372SOL     OW48053   1.024   0.770  10.277  0.3738 -0.5750 -0.0110
14372SOL    HW148054   1.012   0.728  10.362  0.4662  1.3522  1.0145
14372SOL    HW248055   0.936   0.776  10.240 -0.1841  1.5020  1.4724
14373SOL     OW48056   9.165   1.583   5.757  0.1094 -0.3388  0.1391
14373SOL    HW148057   9.205   1.565   5.842  0.3196  1.9633  0.5917
14373SOL    HW248058   9.071   1.588   5.775  0.1408 -0.0127  0.2243
14374SOL     OW48059   4.546   2.324   8.735 -0.4703 -0.1178 -0.2736
14374SOL    HW148060   4.625   2.336   8.682 -0.7465  0.5135 -0.5542
14374SOL    HW248061   4.554   2.389   8.805 -0.8389  0.0849 -0.4189
14375SOL     OW48062   1.807  10.874   2.217  0.6602  0.0185 -0.1960
14375SOL    HW148063   1.785  10.802   2.157  0.7183 -1.0643  1.0333
14375SOL    HW248064   1.894  10.851   2.250  1.4990  1.6299 -1.1515
14376SOL     OW48065   9.610   8.399   7.453 -0.4525  0.4534  0.7362
14376SOL    HW148066   9.608   8.425   7.545 -2.6710  0.4185  0.7518
14376SOL    HW248067   9.701   8.374   7.437 -0.1186 -0.0469  3.0555
14377SOL     OW48068   6.104   0.176  11.114 -1.1159 -0.4112 -0.1521
14377SOL    HW148069   6.120   0.126  11.034 -0.1843 -1.0299  0.3985
14377SOL    HW248070   6.179   0.156  11.170 -1.0651  1.0715  0.3580
14378SOL     OW48071  11.084  10.503   5.197 -0.0867 -0.5944 -0.5266
14378SOL    HW148072  11.091  10.442   5.123  2.3033 -1.2030  0.0934
14378SOL    HW248073  10.999  10.483   5.236 -0.7966 -1.2228 -2.2540
14379SOL     OW48074   7.961   0.346   1.370 -0.1238 -0.0247  0.2672
14379SOL    HW148075   7.955   0.286   1.296 -1.2855 -2.0472  1.8682
14379SOL    HW248076   8.042   0.395   1.356  0.9842 -2.1049 -1.0868
14380SOL     OW48077   0.773   9.055  10.078 -0.2735 -0.6516  0.2234
14380SOL    HW148078   0.799   9.001  10.153  3.7390  0.2197 -0.2985
14380SOL    HW248079   0.810   9.009  10.002 -1.7898 -0.0667 -0.9182
14381SOL     OW48080   8.084   5.992   4.785 -0.7105  0.1030  0.1621
14381SOL    HW148081   8.114   5.971   4.873  0.3750 -1.7581 -0.5936
14381SOL    HW248082   8.112   6.083   4.771  0.9842 -0.2481  0.9893
14382SOL     OW48083   0.325   0.981  11.558  0.4837 -0.0651  0.5427
14382SOL    HW148084   0.368   0.970  11.473 -0.2213  0.6676  0.0793
14382SOL    HW248085   0.265   0.906  11.564 -0.3183  0.5087 -0.1401
14383SOL     OW48086   4.433   5.521   3.299  0.5096 -0.4077  0.2002
14383SOL    HW148087   4.493   5.447   3.300  0.0326 -0.8593 -1.1878
14383SOL    HW248088   4.464   5.576   3.227  2.5718  2.3169  2.9296
14384SOL     OW48089   2.258   9.501   7.657  0.0313 -0.1443 -0.3412
14384SOL    HW148090   2.247   9.406   7.665  0.7307 -0.2205 -0.2052
14384SOL    HW248091   2.322   9.511   7.587  0.7811  0.1836  0.3812
14385SOL     OW48092   6.691  10.831   5.117  0.2570  0.4593 -0.9379
14385SOL    HW148093   6.672  10.903   5.057  0.6836  0.0497 -1.5732
14385SOL    HW248094   6.774  10.856   5.158  0.9842 -0.1823 -1.9820
14386SOL     OW48095   6.478   8.477  10.432 -0.6760  0.0454 -0.1633
14386SOL    HW148096   6.492   8.487  10.526  1.8543  0.4276 -0.5185
14386SOL    HW248097   6.439   8.560  10.405  1.8813  1.3820  0.0301
14387SOL     OW48098   9.284   3.287   0.363 -0.1670  0.5518  0.3994
14387SOL    HW148099   9.323   3.354   0.419  3.2809 -0.6618 -0.2949
14387SOL    HW248100   9.314   3.309   0.274 -1.5946 -0.1736 -0.2993
14388SOL     OW48101   0.289  11.551   7.356 -0.2088 -0.1385 -0.5150
14388SOL    HW148102   0.309  11.605   7.433 -2.0158 -0.2349  0.0806
14388SOL    HW248103   0.339  11.471   7.368 -1.5255 -0.7408  1.3309
14389SOL     OW48104   3.411   0.731   9.389 -0.2053  0.2117  0.9161
14389SOL    HW148105   3.477   0.745   9.321 -1.5146 -0.9233 -0.6941
14389SOL    HW248106   3.355   0.808   9.385  0.5224  0.8013  1.7260
14390SOL     OW48107   1.586  11.062   2.856 -0.0474 -0.0356  0.0769
14390SOL    HW148108   1.635  11.013   2.923  0.6798  0.6799  0.0889
14390SOL    HW248109   1.654  11.092   2.795 -0.7264 -0.8961 -1.1360
14391SOL     OW48110   8.103   1.876   1.918 -0.0284  0.3903 -0.0318
14391SOL    HW148111   8.015   1.854   1.887  0.1781 -0.7612  0.1826
14391SOL    HW248112   8.126   1.954   1.867 -0.0974 -0.8571 -2.1141
14392SOL     OW48113   8.393   9.133   7.975 -0.3313 -0.8407 -0.6982
14392SOL    HW148114   8.338   9.084   7.913 -0.9844  0.2127 -0.9665
14392SOL    HW248115   8.423   9.209   7.926 -0.8659  0.0211  0.2729
14393SOL     OW48116  11.341   6.348   6.742  0.0166 -0.1249  0.5749
14393SOL    HW148117  11.314   6.391   6.660 -0.2538 -2.8757 -0.9025
14393SOL    HW248118  11.403   6.409   6.782  1.4409  0.6508 -2.5342
14394SOL     OW48119   3.697  11.470   6.148  0.2600  0.2701  0.2238
14394SOL    HW148120   3.724  11.508   6.064 -1.3708 -2.9468 -1.9826
14394SOL    HW248121   3.614  11.514   6.169  0.1857  0.4095 -0.3527
14395SOL     OW48122  10.819  11.446   5.118 -0.5489  0.3752  0.3986
14395SOL    HW148123  10.768  11.492   5.185  0.5556  0.1568  1.4103
14395SOL    HW248124  10.795  11.490   5.036 -1.9961  0.5833  0.8987
14396SOL     OW48125   4.622   3.002   1.450  0.5185  0.1815 -0.2359
14396SOL    HW148126   4.555   2.961   1.505  0.0914  1.3260  0.1332
14396SOL    HW248127   4.704   2.964   1.480  0.2893  0.7595  1.1812
14397SOL     OW48128   2.747   6.513   4.841  0.1383 -0.4507  0.0554
14397SOL    HW148129   2.828   6.532   4.794 -0.5103  1.3589 -0.4256
14397SOL    HW248130   2.677   6.537   4.780 -0.7254  1.7978  1.7772
14398SOL     OW48131   8.889   0.524   1.670  0.1777  0.0076 -0.5772
14398SOL    HW148132   8.850   0.440   1.694  1.6412 -0.3184  0.8725
14398SOL    HW248133   8.841   0.552   1.592 -1.6198 -1.2396  0.0276
14399SOL     OW48134  10.494   4.595   1.777 -0.0034  0.0467  0.0518
14399SOL    HW148135  10.545   4.650   1.718 -0.3245  0.5406  0.2345
14399SOL    HW248136  10.559   4.561   1.840  0.2070  0.1308 -0.1171
14400SOL     OW48137   7.118   4.720   5.862 -0.3532 -0.0757  0.0318
14400SOL    HW148138   7.055   4.660   5.899 -1.4787  0.5750 -0.7474
14400SOL    HW248139   7.200   4.671   5.860 -1.1975 -1.5394 -0.4626
14401SOL     OW48140   9.905   0.245   2.608  0.2465 -0.0923  0.3809
14401SOL    HW148141   9.978   0.248   2.670  1.2477 -0.0749 -0.7654
14401SOL    HW248142   9.934   0.298   2.534 -0.8690 -0.2312 -0.1735
14402SOL     OW48143   0.454   8.243   0.331  0.9278 -0.3968  0.3352
14402SOL    HW148144   0.491   8.182   0.395  1.0626  1.7450  2.4344
14402SOL    HW248145   0.363   8.216   0.322  0.6725 -0.2703  2.1407
14403SOL     OW48146   2.076  10.309  10.251 -0.1077  0.4546  0.0561
14403SOL    HW148147   2.039  10.335  10.336  0.3798 -2.5542  1.3131
14403SOL    HW248148   2.058  10.215  10.245  1.8527  0.1308 -2.1718
14404SOL     OW48149   7.400   1.266   3.135 -0.1526 -0.4314  0.1721
14404SOL    HW148150   7.442   1.205   3.196  0.3281  0.9942  1.3084
14404SOL    HW248151   7.321   1.296   3.180  1.2365  2.1889  1.0810
14405SOL     OW48152   9.716   7.223  11.084  0.1628 -0.3554 -0.5183
14405SOL    HW148153   9.788   7.182  11.036  0.6090  0.2127 -0.3466
14405SOL    HW248154   9.755   7.301  11.124 -0.2661 -0.6780  0.5546
14406SOL     OW48155   1.282   3.323   1.830 -0.4070  0.3129 -0.3347
14406SOL    HW148156   1.192   3.338   1.860 -0.1245  1.2765  0.0830
14406SOL    HW248157   1.336   3.361   1.899  0.3346 -0.5810 -0.4107
14407SOL     OW48158   6.663   2.841   4.321  0.5098  0.0845 -0.0310
14407SOL    HW148159   6.687   2.859   4.230  1.5490  0.0732  0.2319
14407SOL    HW248160   6.703   2.913   4.370 -0.2013  0.1881  0.4041
14408SOL     OW48161  11.525   2.041   0.717 -0.4268 -0.3118 -0.0731
14408SOL    HW148162  11.525   2.120   0.770 -1.1669  0.8804 -1.7592
14408SOL    HW248163  11.459   1.985   0.757 -2.5454  1.4511 -0.8923
14409SOL     OW48164   7.847   7.323   6.276  0.0279  0.0483  0.5178
14409SOL    HW148165   7.854   7.414   6.306 -0.6799  0.6485 -1.0350
14409SOL    HW248166   7.755   7.312   6.252  0.6994  0.0017 -2.4414
14410SOL     OW48167  10.482   4.384   4.038 -0.3365  0.4363 -0.2024
14410SOL    HW148168  10.543   4.312   4.053 -2.9493 -1.6716  1.1988
14410SOL    HW248169  10.498   4.411   3.948  2.2843 -0.2891 -0.0312
14411SOL     OW48170   1.560  10.828   1.445  0.2619 -0.3615 -0.1690
14411SOL    HW148171   1.564  10.825   1.350 -0.3588 -4.5465 -0.2364
14411SOL    HW248172   1.471  10.801   1.466  1.1570 -2.2236  1.5411
14412SOL     OW48173   4.966   1.753   6.998  0.0804 -0.1611  0.1306
14412SOL    HW148174   4.955   1.672   6.949 -0.5793 -0.7666  1.2521
14412SOL    HW248175   4.945   1.822   6.935 -0.4137 -0.9115 -0.5425
14413SOL     OW48176   3.429   9.758  11.311 -0.0348 -0.2451 -0.1225
14413SOL    HW148177   3.436   9.664  11.331  3.1218  0.0504  0.7462
14413SOL    HW248178   3.433   9.762  11.215  0.4520 -0.9888 -0.1445
14414SOL     OW48179   2.388   4.383   0.098 -0.0454 -0.4134  0.1410
14414SOL    HW148180   2.462   4.339   0.056  0.0761 -1.1501  1.0883
14414SOL    HW248181   2.337   4.419   0.026 -0.3829 -2.4943 -0.7397
14415SOL     OW48182   5.969   8.424   1.650 -0.0712  0.1738 -0.4471
14415SOL    HW148183   5.899   8.359   1.664  1.0843 -1.0072  0.0724
14415SOL    HW248184   5.934   8.482   1.583 -1.1727 -0.9775 -0.9216
14416SOL     OW48185  11.172   9.062   0.240 -0.0938 -0.6377  0.3800
14416SOL    HW148186  11.210   9.103   0.162 -0.6645  0.8131  0.8446
14416SOL    HW248187  11.209   9.111   0.314 -2.8059  0.8682  0.8608
14417SOL     OW48188   1.619   2.907   8.701 -0.3705  0.7674  0.0453
14417SOL    HW148189   1.649   2.822   8.668 -0.2150  0.2748  1.3911
14417SOL    HW248190   1.555   2.936   8.636  1.0948  0.6316 -1.5436
14418SOL     OW48191   8.944   4.144   8.227 -0.0008 -0.2094 -0.3385
14418SOL    HW148192   8.967   4.172   8.315  0.8317 -0.3648 -0.4953
14418SOL    HW248193   8.980   4.055   8.220 -0.8238 -0.5351 -0.5368
14419SOL     OW48194  10.059  10.440   4.024 -0.4956 -0.1093  0.1674
14419SOL    HW148195  10.147  10.433   4.059  0.2759  0.0255 -1.6320
14419SOL    HW248196  10.008  10.375   4.072 -0.2247  1.8534  3.4163
14420SOL     OW48197   3.318   7.156   5.330  0.0431  0.6688  0.2759
14420SOL    HW148198   3.323   7.078   5.385 -1.1277  0.0103 -0.5012
14420SOL    HW248199   3.409   7.178   5.311  0.3759 -1.0299 -0.2007
14421SOL     OW48200   7.315   3.075  10.259 -0.0757  0.0284 -0.2488
14421SOL    HW148201   7.384   3.133  10.289  1.0994 -0.8991 -1.0540
14421SOL    HW248202   7.240   3.133  10.242  0.5784  1.0835  0.3775
14422SOL     OW48203   6.747   7.280   9.567 -0.2530  0.3114  0.1829
14422SOL    HW148204   6.787   7.365   9.547 -0.0162  0.2681  0.4688
14422SOL    HW248205   6.726   7.243   9.481 -1.2325  1.0696  0.0708
14423SOL     OW48206   5.127   5.943   6.109  0.4380 -0.5914  0.7447
14423SOL    HW148207   5.187   5.887   6.060  0.0693  0.0465 -0.4729
14423SOL    HW248208   5.039   5.909   6.088  0.1059  1.3211 -1.2367
14424SOL     OW48209   3.120   4.635   9.491 -0.1519 -0.2660 -0.5267
14424SOL    HW148210   3.120   4.726   9.462  0.6763 -0.4953 -1.2773
14424SOL    HW248211   3.035   4.623   9.534 -0.5246  0.6752 -0.9885
14425SOL     OW48212   7.764   4.000   3.084 -0.4006 -0.3321  0.3157
14425SOL    HW148213   7.736   4.038   3.001 -0.6348  0.1027  0.5929
14425SOL    HW248214   7.759   4.072   3.147 -0.4066 -0.7036  0.7465
14426SOL     OW48215  11.132   1.696   2.234 -0.2928 -0.1975 -0.4181
14426SOL    HW148216  11.115   1.607   2.203  0.1786  0.0165 -1.3229
14426SOL    HW248217  11.090   1.752   2.169 -1.4402  0.2511  0.6621
14427SOL     OW48218   3.375   9.869   9.694 -0.7213  0.0302 -0.1067
14427SOL    HW148219   3.364   9.962   9.673 -0.0989 -0.1092 -1.1504
14427SOL    HW248220   3.286   9.835   9.697 -0.9369  0.5706 -0.2055
14428SOL     OW48221   0.332  11.149   7.818 -0.0676  0.4820  0.1653
14428SOL    HW148222   0.351  11.125   7.909 -1.2525  0.5512  0.4421
14428SOL    HW248223   0.254  11.204   7.824  0.2740  1.0815 -0.8324
14429SOL     OW48224   9.057   2.201   4.025  0.2676  0.1928  0.4548
14429SOL    HW148225   9.148   2.201   4.054  0.0300 -0.7053  1.2627
14429SOL    HW248226   9.014   2.138   4.083 -0.5780 -0.4076 -0.7857
14430SOL     OW48227   5.595   6.808   6.955 -0.2127  0.0620  0.1908
14430SOL    HW148228   5.505   6.810   6.988 -0.2623  2.1892  0.0458
14430SOL    HW248229   5.587   6.796   6.861 -0.2980 -0.3836  0.2507
14431SOL     OW48230   4.198   1.385   7.639 -0.4302 -0.4629  0.3888
14431SOL    HW148231   4.280   1.414   7.677  1.2985 -4.0065 -0.1748
14431SOL    HW248232   4.136   1.385   7.712  0.7951 -0.2039  1.4640
14432SOL     OW48233   3.457   3.714   1.026 -0.0894  0.2003 -0.5291
14432SOL    HW148234   3.439   3.700   1.119  1.7120  0.2629 -0.1440
14432SOL    HW248235   3.437   3.629   0.985  1.3957 -0.5876  0.2984
14433SOL     OW48236   4.164   6.811   9.553 -0.5692 -0.0569  0.0248
14433SOL    HW148237   4.223   6.759   9.498 -0.0694  1.2521 -0.7225
14433SOL    HW248238   4.149   6.756   9.630  2.0288 -0.2905  0.4645
14434SOL     OW48239   5.217   3.741   5.747 -1.2098 -0.4133  0.1625
14434SOL    HW148240   5.254   3.827   5.768 -2.3548 -0.0960  0.9415
14434SOL    HW248241   5.294   3.685   5.734 -0.4469  0.6479 -0.0643
14435SOL     OW48242   4.464   4.996  11.372  0.0852 -0.0662 -0.2757
14435SOL    HW148243   4.479   5.061  11.440 -0.6899  1.3370 -1.3871
14435SOL    HW248244   4.430   4.920  11.419 -0.0332  0.7075  0.9476
14436SOL     OW48245   7.190  10.839   6.837 -0.0480 -0.3749  0.3669
14436SOL    HW148246   7.098  10.856   6.856  0.0520 -0.0506  0.5764
14436SOL    HW248247   7.235  10.857   6.920  0.7219  3.4854 -0.6905
14437SOL     OW48248   3.803   2.799  11.249 -0.4247 -0.0916 -0.3556
14437SOL    HW148249   3.890   2.833  11.268 -1.3661  2.6383 -0.4063
14437SOL    HW248250   3.754   2.876  11.218 -2.8785 -1.4864 -0.1877
14438SOL     OW48251   6.197  10.090   4.122 -0.0054  0.7643  0.0263
14438SOL    HW148252   6.122  10.076   4.180 -0.0161 -0.1861 -0.2009
14438SOL    HW248253   6.257  10.019   4.143  0.0094  0.4280 -1.0849
14439SOL     OW48254   3.057   6.658   8.587 -0.1601 -0.4857 -0.2534
14439SOL    HW148255   3.032   6.748   8.608  0.7646 -0.5610  1.3662
14439SOL    HW248256   3.027   6.644   8.497  0.1377  1.5963 -0.7098
14440SOL     OW48257   4.087   1.003   1.575  0.3224 -0.1571  0.0581
14440SOL    HW148258   4.029   0.947   1.627 -0.3225 -0.9742 -1.4597
14440SOL    HW248259   4.084   0.965   1.487  1.2522  1.2602 -0.6242
14441SOL     OW48260   7.572  10.956   5.836 -0.2696  0.2471 -0.2938
14441SOL    HW148261   7.612  10.976   5.752  0.2023  0.9972  0.0987
14441SOL    HW248262   7.644  10.959   5.899 -0.6986  0.1918  0.2093
14442SOL     OW48263   8.205   9.658   3.020  0.0934 -0.0956 -0.0133
14442SOL    HW148264   8.160   9.660   3.105  1.0847 -2.8215  0.7080
14442SOL    HW248265   8.173   9.577   2.979  2.3225 -0.7311 -0.6009
14443SOL     OW48266   5.472   2.980   9.829 -0.2019 -0.0482  0.0995
14443SOL    HW148267   5.461   2.885   9.836  0.2593 -0.0604  0.7211
14443SOL    HW248268   5.560   2.997   9.863 -0.2655  0.6009 -0.0440
14444SOL     OW48269   2.888   0.184   6.255 -0.3381 -0.4398 -0.7086
14444SOL    HW148270   2.907   0.127   6.329 -0.7488 -0.1280 -0.3542
14444SOL    HW248271   2.884   0.272   6.294 -0.0075 -0.2077 -1.1933
14445SOL     OW48272  11.310   5.524  11.046  0.4836  0.0771 -0.5113
14445SOL    HW148273  11.265   5.451  11.088  0.0508 -0.6855 -2.2281
14445SOL    HW248274  11.402   5.513  11.071 -0.1103  1.6274  2.9927
14446SOL     OW48275   6.597   1.297   7.431  0.1972 -0.3280  0.4527
14446SOL    HW148276   6.510   1.329   7.452 -0.0216  1.0352 -2.1771
14446SOL    HW248277   6.582   1.220   7.377  0.4742  1.1915 -1.9335
14447SOL     OW48278   2.642   9.748   8.704  0.1111 -0.3632  0.4549
14447SOL    HW148279   2.659   9.837   8.736 -3.2066  0.5798 -0.0251
14447SOL    HW248280   2.608   9.761   8.616  0.7613 -2.2355 -0.0955
14448SOL     OW48281   8.012   4.545   7.941 -0.1059 -0.3047 -0.0473
14448SOL    HW148282   7.929   4.538   7.988 -0.6944 -1.8235 -1.2152
14448SOL    HW248283   7.990   4.522   7.851  1.6660 -1.3545 -0.2648
14449SOL     OW48284   8.347   9.242  10.274 -0.8648 -0.3128  0.3006
14449SOL    HW148285   8.262   9.260  10.233  0.7510 -0.6786 -3.6721
14449SOL    HW248286   8.375   9.327  10.308 -1.3518  0.6429 -1.5484
14450SOL     OW48287   3.846   4.072   8.990 -0.3545 -0.5523  0.6859
14450SOL    HW148288   3.798   4.100   9.068  0.8884  0.4759  1.1228
14450SOL    HW248289   3.916   4.015   9.024  0.7693  0.6461  0.4797
14451SOL     OW48290   3.096   0.236   1.737  0.3717 -0.3300 -0.0370
14451SOL    HW148291   3.177   0.288   1.736  0.3421 -0.2792  0.1568
14451SOL    HW248292   3.101   0.182   1.658  1.1610 -1.2030  0.5936
14452SOL     OW48293  10.907   6.170   6.581  0.2939  0.3495  0.1330
14452SOL    HW148294  10.937   6.089   6.623  2.3235  1.4366  0.9123
14452SOL    HW248295  10.848   6.210   6.644  1.6184  0.8900  1.0760
14453SOL     OW48296  10.354   2.635   5.508 -0.3336  0.4600 -0.1762
14453SOL    HW148297  10.276   2.609   5.458  0.0116 -0.9300 -0.0343
14453SOL    HW248298  10.365   2.566   5.573 -0.0223  1.5755  1.0075
14454SOL     OW48299  11.233   5.113   6.048  0.4796  0.2788 -0.6334
14454SOL    HW148300  11.164   5.148   6.104  0.5239 -0.4053 -0.1418
14454SOL    HW248301  11.230   5.168   5.970 -1.1340 -0.2271 -0.9631
14455SOL     OW48302   3.260   9.037   1.078 -0.7235  0.1583  0.1612
14455SOL    HW148303   3.294   8.992   1.155 -0.1359  0.3822  0.0386
14455SOL    HW248304   3.268   8.974   1.007  0.1437  0.4647 -0.0204
14456SOL     OW48305   2.250   2.670   2.473 -0.3396 -0.3993 -0.0318
14456SOL    HW148306   2.316   2.607   2.444  0.3369  0.4637 -0.4297
14456SOL    HW248307   2.243   2.732   2.400 -0.2621  0.5320  0.7326
14457SOL     OW48308   1.651   8.904   4.773 -0.1263  0.9341 -0.2008
14457SOL    HW148309   1.669   8.838   4.705 -0.4821  0.8153 -0.1841
14457SOL    HW248310   1.624   8.981   4.723 -1.1132  0.6178 -0.1774
14458SOL     OW48311   1.955   0.924   5.378  0.2000  0.2684 -0.0081
14458SOL    HW148312   1.950   0.883   5.465  0.1315  1.0536  0.3676
14458SOL    HW248313   1.992   0.856   5.322 -0.2720 -0.4377  0.5129
14459SOL     OW48314   9.634   3.897   1.621  0.3831 -0.2516  0.0378
14459SOL    HW148315   9.646   3.811   1.581  2.0706  0.4182 -1.0194
14459SOL    HW248316   9.565   3.939   1.570 -0.8086 -1.1116  0.8716
14460SOL     OW48317   3.940   0.742   2.280  0.0522 -0.0496 -0.3919
14460SOL    HW148318   3.897   0.810   2.227 -0.1793 -1.3929 -2.0103
14460SOL    HW248319   3.995   0.694   2.218  0.2468 -1.3240  0.7137
14461SOL     OW48320   2.621   5.370   0.712  0.4180 -0.2162 -0.0016
14461SOL    HW148321   2.657   5.458   0.722 -0.7678  0.3978 -0.8969
14461SOL    HW248322   2.674   5.329   0.644  0.4911  0.0727 -0.1182
14462SOL     OW48323  10.103   5.931   9.452 -0.2365 -0.2646 -0.1282
14462SOL    HW148324  10.063   6.010   9.414 -1.0269 -0.7125 -0.2485
14462SOL    HW248325  10.028   5.876   9.476  0.3091 -1.1305 -0.3669
14463SOL     OW48326  10.373   0.666  10.561 -0.4584 -0.2033 -0.1177
14463SOL    HW148327  10.321   0.604  10.509 -1.6092 -0.3674  1.1721
14463SOL    HW248328  10.462   0.656  10.528 -0.7932 -1.8260 -0.6227
14464SOL     OW48329   3.856   7.357   8.553  0.2289  0.0054  0.0397
14464SOL    HW148330   3.843   7.272   8.595 -2.2810 -0.8570 -2.1838
14464SOL    HW248331   3.835   7.421   8.621  0.1829 -1.2133  1.1940
14465SOL     OW48332   3.264   8.638   9.051  0.2561 -0.6168 -0.2682
14465SOL    HW148333   3.195   8.588   9.007 -0.1449  0.8720 -1.3967
14465SOL    HW248334   3.339   8.579   9.053  0.0803 -0.9621 -2.3535
14466SOL     OW48335   0.212  11.229   7.152  0.2483 -0.1890 -0.2425
14466SOL    HW148336   0.225  11.172   7.227  0.3334  0.2722  0.0938
14466SOL    HW248337   0.137  11.284   7.175  2.3378  2.3648  1.0146
14467SOL     OW48338   8.499   2.514   2.604 -0.3075 -0.3557 -0.1816
14467SOL    HW148339   8.418   2.466   2.588 -0.8476  0.1884  0.8120
14467SOL    HW248340   8.484   2.559   2.687  1.5463 -1.3536  0.7533
14468SOL     OW48341   2.497   5.093   1.394 -0.4171 -0.9484 -0.0123
14468SOL    HW148342   2.430   5.153   1.428 -0.9219 -1.1123 -0.6893
14468SOL    HW248343   2.562   5.087   1.464 -0.8514 -0.3751  0.4492
14469SOL     OW48344   0.137   7.206   5.844  0.0328 -0.1534  0.3476
14469SOL    HW148345   0.232   7.211   5.855  0.7751 -1.5146 -3.8602
14469SOL    HW248346   0.110   7.297   5.831  1.3704  0.0110 -1.7152
14470SOL     OW48347  10.854   8.389   2.623 -0.0429 -0.0373 -0.1404
14470SOL    HW148348  10.916   8.420   2.556 -1.1363 -2.1311 -2.2601
14470SOL    HW248349  10.845   8.464   2.682  1.7124  1.6200 -1.7881
14471SOL     OW48350   1.171   7.361   5.221  0.4090 -0.4057 -0.1704
14471SOL    HW148351   1.088   7.314   5.223  0.6004 -0.7208  1.4654
14471SOL    HW248352   1.237   7.293   5.209  0.4745 -0.1819 -1.1968
14472SOL     OW48353   6.731   8.645   2.314  0.0862 -0.2665 -0.1281
14472SOL    HW148354   6.675   8.721   2.332  1.6322  0.9764 -0.3298
14472SOL    HW248355   6.803   8.680   2.261  0.4137 -2.0601 -0.9560
14473SOL     OW48356   8.585   7.112   9.551  0.1787 -0.2946  0.2827
14473SOL    HW148357   8.606   7.097   9.644 -1.4011  0.3352  0.7722
14473SOL    HW248358   8.665   7.149   9.514  0.3341  0.9871  1.7969
14474SOL     OW48359   6.604   4.670   8.198  0.1143 -0.0051 -0.4134
14474SOL    HW148360   6.623   4.762   8.217  0.3169  0.0311 -0.7855
14474SOL    HW248361   6.595   4.629   8.284  0.3367  0.2991 -0.2438
14475SOL     OW48362   1.005   4.605   6.669  0.5082  0.0013  0.1093
14475SOL    HW148363   1.039   4.516   6.678  0.2207 -0.0750  0.4617
14475SOL    HW248364   1.010   4.623   6.575  0.8662 -0.2675  0.0747
14476SOL     OW48365   8.784   5.239   2.064 -0.6868 -0.3393  0.1723
14476SOL    HW148366   8.825   5.314   2.022  0.4682 -1.7280 -1.3566
14476SOL    HW248367   8.700   5.270   2.094 -0.2989  1.5137 -0.5580
14477SOL     OW48368   1.236   0.829   8.358  0.0762  0.3727  0.1724
14477SOL    HW148369   1.207   0.768   8.426  2.5687  0.5242  1.4822
14477SOL    HW248370   1.255   0.911   8.405 -0.4055  1.2314 -1.0889
14478SOL     OW48371  10.125   2.419   8.727  0.3941  0.0065 -0.2908
14478SOL    HW148372  10.156   2.357   8.661 -0.8146  0.0053 -0.8882
14478SOL    HW248373  10.047   2.377   8.764  0.3431  0.5772  0.2668
14479SOL     OW48374   0.132   7.641   4.891  0.0014  0.1913 -0.6994
14479SOL    HW148375   0.064   7.670   4.952  1.4755 -0.8333  1.5693
14479SOL    HW248376   0.083   7.600   4.820 -1.8308  1.9800 -0.5750
14480SOL     OW48377   3.574   5.636   2.904  0.5246 -0.0672  0.4493
14480SOL    HW148378   3.643   5.593   2.953  0.9404  2.0264  1.8734
14480SOL    HW248379   3.619   5.705   2.855 -0.4575  1.1238  1.1554
14481SOL     OW48380   0.239   9.325   3.008  0.4050  0.4387  0.1223
14481SOL    HW148381   0.213   9.233   3.010  1.2962  0.1945  1.6563
14481SOL    HW248382   0.196   9.360   2.929 -1.7365 -0.7381  0.6782
14482SOL     OW48383   7.479  10.316  10.309 -0.1906  0.7720  0.2200
14482SOL    HW148384   7.485  10.408  10.281 -0.7037  0.1959 -1.9774
14482SOL    HW248385   7.390  10.306  10.340 -0.3438  0.8534 -0.1892
14483SOL     OW48386   9.812   9.264   6.329  0.0469 -0.5340 -0.2319
14483SOL    HW148387   9.825   9.356   6.353  0.0586 -0.6690  0.3100
14483SOL    HW248388   9.718   9.249   6.338 -0.6216  0.4023 -4.0133
14484SOL     OW48389  11.413   5.641   7.329  0.4278 -0.2381  0.2446
14484SOL    HW148390  11.352   5.569   7.314 -0.8412  0.9542 -0.5274
14484SOL    HW248391  11.491   5.599   7.365 -1.5483 -1.6225  3.3598
14485SOL     OW48392   4.779   1.055   7.141 -0.1211  0.5614  0.9884
14485SOL    HW148393   4.811   0.966   7.157 -0.5825  0.1198 -0.4102
14485SOL    HW248394   4.820   1.108   7.209  2.4313 -0.2156  0.1428
14486SOL     OW48395   0.777   1.582   8.882  0.1780 -0.4851 -0.2157
14486SOL    HW148396   0.751   1.661   8.929  1.9326 -0.1390  0.2354
14486SOL    HW248397   0.766   1.605   8.790 -1.3043 -0.4633 -0.0679
14487SOL     OW48398   0.181  10.361   0.413  0.0299  0.2210 -0.1122
14487SOL    HW148399   0.221  10.286   0.369 -0.0729 -0.5066  0.9904
14487SOL    HW248400   0.251  10.425   0.419  0.8045 -0.6916  0.9894
14488SOL     OW48401   1.162   7.167   1.097  0.2326  0.4208  0.5464
14488SOL    HW148402   1.199   7.256   1.089 -0.0736  0.4310 -0.9685
14488SOL    HW248403   1.069   7.179   1.081  0.1521 -0.1396  0.6104
14489SOL     OW48404   1.790   0.138   1.109  0.5473 -0.0961 -0.3796
14489SOL    HW148405   1.813   0.145   1.017  0.8914  0.9935 -0.2204
14489SOL    HW248406   1.870   0.108   1.152  1.1188  1.6515 -0.1286
14490SOL     OW48407   9.964   5.075   2.668  0.2593 -0.0832 -0.6684
14490SOL    HW148408   9.981   5.103   2.759 -0.7075 -0.6895 -0.2949
14490SOL    HW248409  10.025   5.128   2.616  2.0616 -0.9365  0.4682
14491SOL     OW48410   0.550   5.923  10.408 -0.4183 -0.2021  0.0244
14491SOL    HW148411   0.456   5.932  10.425 -0.4756 -1.7768  0.6572
14491SOL    HW248412   0.562   5.832  10.381  1.0799 -0.3495  1.0690
14492SOL     OW48413  10.109   3.667   2.866 -0.2850  0.3562 -0.3404
14492SOL    HW148414  10.191   3.638   2.907  0.7380  1.7143 -1.3372
14492SOL    HW248415  10.057   3.700   2.939 -0.4071 -1.4770  0.4475
14493SOL     OW48416   7.311  11.058   5.828  0.2690 -0.3366 -0.7045
14493SOL    HW148417   7.263  11.032   5.907  0.3696  3.9078  1.0192
14493SOL    HW248418   7.398  11.020   5.839  0.5193  0.7652  1.7448
14494SOL     OW48419   5.781   0.332   2.038  0.4044  0.2301  0.7271
14494SOL    HW148420   5.711   0.338   2.104  0.1488 -0.2639  0.5044
14494SOL    HW248421   5.741   0.365   1.958 -0.0624 -1.4557  0.2310
14495SOL     OW48422   6.736   7.293   3.409 -0.7145  0.0766  0.0113
14495SOL    HW148423   6.720   7.350   3.333 -0.5643 -1.8116 -1.5089
14495SOL    HW248424   6.661   7.308   3.466  0.3206  3.3399  0.7465
14496SOL     OW48425   1.232   3.410   1.106 -0.0582 -0.4015  0.5241
14496SOL    HW148426   1.197   3.467   1.038 -1.4544 -2.0227 -0.2246
14496SOL    HW248427   1.326   3.405   1.088 -0.2444  0.0323 -0.6520
14497SOL     OW48428   8.935   6.718   7.595  0.5301 -0.4317  0.2847
14497SOL    HW148429   8.909   6.810   7.589 -1.6624 -0.8882  1.7595
14497SOL    HW248430   9.030   6.719   7.581  0.6239  2.0855  0.6947
14498SOL     OW48431   6.504   8.709   6.690  0.3385 -0.4170  0.1454
14498SOL    HW148432   6.455   8.682   6.768 -0.4738 -0.7583 -0.4628
14498SOL    HW248433   6.476   8.647   6.622 -0.0546  0.7333 -0.7781
14499SOL     OW48434   7.152   2.945  10.482 -0.8669 -0.0139  0.2407
14499SOL    HW148435   7.223   2.964  10.420 -0.1866 -0.1729  0.9649
14499SOL    HW248436   7.106   3.028  10.491 -1.2755 -0.0994 -0.8405
14500SOL     OW48437   2.598   9.745   0.943  0.4841 -0.4079 -0.1201
14500SOL    HW148438   2.506   9.727   0.922  0.1819  1.5093 -0.6167
14500SOL    HW248439   2.608   9.714   1.033 -0.8129 -0.1590  0.1398
14501SOL     OW48440   0.298   0.761   0.207  0.1766  0.1493 -0.5839
14501SOL    HW148441   0.382   0.726   0.177 -1.0308 -3.1405 -0.5254
14501SOL    HW248442   0.321   0.844   0.249  3.5983 -1.1824  0.5577
14502SOL     OW48443   4.977  11.219   0.063  0.3295 -0.0661 -0.0779
14502SOL    HW148444   5.029  11.255   0.135  2.1731 -2.0410 -0.3276
14502SOL    HW248445   5.022  11.248  -0.016 -0.5177  0.4081 -0.3964
14503SOL     OW48446   7.748   3.539   6.996  0.0731 -0.3509  0.4283
14503SOL    HW148447   7.733   3.552   7.089  0.8188  1.1184  0.3760
14503SOL    HW248448   7.798   3.617   6.968 -0.7349 -0.4011 -1.3277
14504SOL     OW48449   8.060   3.609   8.351  0.1058  0.0384  0.0210
14504SOL    HW148450   8.090   3.551   8.281 -0.5052 -1.2068  0.7429
14504SOL    HW248451   7.968   3.587   8.363 -0.9597  3.1429 -1.5138
14505SOL     OW48452   3.875   9.656   8.007  0.3551 -0.0673  0.4330
14505SOL    HW148453   3.813   9.623   8.072 -1.2287  0.3613 -0.7996
14505SOL    HW248454   3.838   9.740   7.980  0.9840 -0.2353 -1.0136
14506SOL     OW48455   4.418   1.469   0.457 -0.2955  0.0319 -0.4515
14506SOL    HW148456   4.334   1.501   0.425  0.0911 -0.0771 -1.6295
14506SOL    HW248457   4.451   1.539   0.513 -1.7663 -0.4874  1.1529
14507SOL     OW48458   9.908   9.695   9.810 -0.2187 -0.1411 -0.2233
14507SOL    HW148459   9.988   9.740   9.835 -0.3391  0.5731 -1.0695
14507SOL    HW248460   9.927   9.602   9.822  0.6991  0.0280 -0.3445
14508SOL     OW48461   7.333   1.062   7.731 -0.0664 -0.5071  0.6793
14508SOL    HW148462   7.345   1.036   7.823  1.9232 -1.0164  0.3245
14508SOL    HW248463   7.393   1.006   7.682 -0.4837  0.3203 -0.8523
14509SOL     OW48464   3.224   0.149   7.387  0.3508  0.0962 -0.2228
14509SOL    HW148465   3.305   0.171   7.432  0.1814 -0.9744  0.6524
14509SOL    HW248466   3.212   0.055   7.404 -0.4642 -0.0175 -1.3158
14510SOL     OW48467   0.012   8.219   0.948 -0.1998  0.1574  0.7673
14510SOL    HW148468   0.059   8.159   0.891 -0.8262  0.4504 -0.0903
14510SOL    HW248469  -0.078   8.219   0.914  0.2449  3.3603 -0.8690
14511SOL     OW48470   7.635  11.221   8.630  0.1092  0.4729 -0.4630
14511SOL    HW148471   7.560  11.161   8.636  1.1049 -0.9918 -1.8320
14511SOL    HW248472   7.598  11.302   8.595 -1.3601  0.9071  1.8733
14512SOL     OW48473   0.302   4.396  10.366 -0.0344  0.1313 -0.1121
14512SOL    HW148474   0.365   4.447  10.417 -0.0440  1.0428 -0.9781
14512SOL    HW248475   0.356   4.340  10.310 -0.0195 -0.4097  0.4354
14513SOL     OW48476   4.657   6.442  10.096 -0.4222 -0.0984 -0.2009
14513SOL    HW148477   4.597   6.516  10.085 -0.7840 -0.1758  1.1839
14513SOL    HW248478   4.728   6.461  10.034 -0.5556  1.3687  0.0502
14514SOL     OW48479  11.439  11.426  11.482  0.1398  0.7172  0.2381
14514SOL    HW148480  11.491  11.346  11.474 -3.1172 -1.7850  1.6524
14514SOL    HW248481  11.406  11.425  11.572 -1.5399  2.6229 -0.2655
14515SOL     OW48482   2.802   3.254  10.859  0.3415 -0.7001  0.0768
14515SOL    HW148483   2.870   3.298  10.808 -0.2162  1.3206  0.9846
14515SOL    HW248484   2.839   3.167  10.877  2.3636  0.0687 -0.0752
14516SOL     OW48485   0.734   3.289   8.065  0.0322 -0.1958 -0.2331
14516SOL    HW148486   0.791   3.287   7.988  0.6104 -1.1329  0.2096
14516SOL    HW248487   0.648   3.263   8.031  0.7076 -2.6123 -0.2534
14517SOL     OW48488   2.183   4.930  10.676 -0.4327 -0.1294 -0.5060
14517SOL    HW148489   2.169   5.023  10.693 -3.5579 -1.0021  3.0659
14517SOL    HW248490   2.277   4.917  10.691 -0.3101  2.1094  1.1726
14518SOL     OW48491   3.099  10.800   3.953 -0.7020  0.6540 -0.1647
14518SOL    HW148492   3.123  10.766   4.040 -2.8821 -0.0533  0.2359
14518SOL    HW248493   3.008  10.829   3.964 -0.3890  2.3864 -1.7361
14519SOL     OW48494   6.649   0.724   0.835 -0.2958  0.0566 -0.1451
14519SOL    HW148495   6.658   0.817   0.815 -0.0052  0.2474  0.8018
14519SOL    HW248496   6.559   0.716   0.867 -0.1035  0.1636  0.4513
14520SOL     OW48497   5.246   8.391   0.285 -0.2776  0.1274 -0.1288
14520SOL    HW148498   5.299   8.312   0.281  1.1752  0.9655  1.3846
14520SOL    HW248499   5.155   8.359   0.284  0.1495 -1.3356 -2.8699
14521SOL     OW48500   9.488   2.276   8.706  0.1893  0.6506  0.1841
14521SOL    HW148501   9.527   2.349   8.657  0.4456  1.0935  1.0346
14521SOL    HW248502   9.394   2.293   8.703  0.2640  1.1693  0.5965
14522SOL     OW48503  10.435   5.331   8.428  0.1014 -0.5506  0.4084
14522SOL    HW148504  10.473   5.383   8.357 -0.5798 -1.2522 -0.5016
14522SOL    HW248505  10.502   5.329   8.496  1.0625 -0.4591 -0.5160
14523SOL     OW48506  11.232  10.604   2.914  0.4628 -0.7337 -0.2074
14523SOL    HW148507  11.295  10.643   2.975  1.0088 -0.4471 -0.9252
14523SOL    HW248508  11.189  10.535   2.964  0.4890 -0.1372  0.6626
14524SOL     OW48509   2.125   8.284   9.237  0.0576  0.0567  0.2041
14524SOL    HW148510   2.141   8.312   9.327  1.0877  0.4832 -0.1043
14524SOL    HW248511   2.186   8.335   9.184 -1.5097  0.8792 -0.9062
14525SOL     OW48512   5.313   4.054   2.188  0.2177 -0.1908 -0.0867
14525SOL    HW148513   5.219   4.057   2.208  0.1457 -2.7194  0.3778
14525SOL    HW248514   5.316   4.050   2.092 -0.1442  0.1457 -0.1143
14526SOL     OW48515   6.692   0.717   8.316  0.5116  0.2118  0.0899
14526SOL    HW148516   6.630   0.644   8.316  0.5341  0.1709  1.5414
14526SOL    HW248517   6.639   0.794   8.340  0.7244  0.4497 -0.1955
14527SOL     OW48518   0.288   9.992   4.979  0.1090 -0.3966  0.5641
14527SOL    HW148519   0.364   9.936   4.970  0.9528  0.6929  0.6656
14527SOL    HW248520   0.322  10.073   5.018 -0.7065  0.8959 -1.2504
14528SOL     OW48521   1.175  10.565   7.815 -0.4338  0.3595  0.7213
14528SOL    HW148522   1.163  10.653   7.780 -3.9040 -0.6886 -1.2177
14528SOL    HW248523   1.123  10.564   7.896 -1.4508 -0.2217  0.0725
14529SOL     OW48524  10.780   5.844   5.267 -0.3274 -0.5876 -0.6615
14529SOL    HW148525  10.803   5.778   5.201 -2.2935 -1.1924 -0.8107
14529SOL    HW248526  10.763   5.793   5.346  2.0554  0.1362  0.4158
14530SOL     OW48527  10.295   2.659   2.747 -0.3177 -0.6564  0.0133
14530SOL    HW148528  10.299   2.712   2.826 -0.0394  0.6222 -0.8272
14530SOL    HW248529  10.365   2.693   2.691 -2.2145  0.3641 -1.9033
14531SOL     OW48530   1.321   6.510  11.035 -0.4910  0.1863  0.1461
14531SOL    HW148531   1.260   6.581  11.054  1.3821  1.6971  0.9456
14531SOL    HW248532   1.387   6.551  10.978  1.4142 -0.4723  1.7971
14532SOL     OW48533   6.240   0.841   6.773 -0.2184  0.3196  0.9270
14532SOL    HW148534   6.305   0.892   6.725 -0.2685  0.8234  1.3899
14532SOL    HW248535   6.160   0.847   6.720  0.0321 -0.0711  0.5000
14533SOL     OW48536   7.069   7.050   8.311  0.7226 -0.2820  0.0832
14533SOL    HW148537   6.994   7.072   8.256 -0.2447 -0.4593  1.2882
14533SOL    HW248538   7.101   7.134   8.344  0.4234 -0.2736  0.3569
14534SOL     OW48539   5.300  10.933   0.007 -0.0475 -0.4163  0.0988
14534SOL    HW148540   5.346  10.865  -0.043 -0.1370  0.0957 -0.6987
14534SOL    HW248541   5.211  10.900   0.017 -0.2053 -0.2385 -0.6569
14535SOL     OW48542   8.098  10.824   5.545  0.0070 -0.3917  0.8227
14535SOL    HW148543   8.123  10.875   5.468  0.1691 -0.6252  0.7172
14535SOL    HW248544   8.040  10.882   5.595 -0.6524 -0.4756  0.1824
14536SOL     OW48545   7.088  11.466   6.878 -0.5741  0.1291 -0.2564
14536SOL    HW148546   7.004  11.512   6.875 -1.7849 -1.5734  2.8913
14536SOL    HW248547   7.123  11.486   6.965  1.0672 -1.1995 -0.5578
14537SOL     OW48548   6.510  11.616   9.919 -0.4113  0.4283 -0.6006
14537SOL    HW148549   6.537  11.699   9.958  1.4362  0.8156 -2.5281
14537SOL    HW248550   6.590  11.564   9.916 -0.9989 -0.4399 -1.7493
14538SOL     OW48551   1.752   2.587   4.603  0.1055 -0.2390  0.2367
14538SOL    HW148552   1.684   2.521   4.588 -2.7649  1.9316  2.5790
14538SOL    HW248553   1.742   2.650   4.532 -0.6808  0.3176  0.8325
14539SOL     OW48554   9.096   2.644   1.459  0.2277 -0.3203 -0.3267
14539SOL    HW148555   9.049   2.724   1.436  0.1756 -0.8646 -2.3039
14539SOL    HW248556   9.040   2.600   1.522 -0.3139  0.6289 -0.1339
14540SOL     OW48557   4.565   5.279   1.341 -0.1111  0.3043  0.0802
14540SOL    HW148558   4.625   5.279   1.266 -0.0468  0.3249  0.1327
14540SOL    HW248559   4.589   5.356   1.392  1.6105 -1.1121  1.5439
14541SOL     OW48560  11.165   9.362   6.772 -0.1570 -1.0294 -0.2763
14541SOL    HW148561  11.168   9.351   6.677 -1.5114 -0.1277 -0.4484
14541SOL    HW248562  11.232   9.303   6.805  1.4596 -0.1749 -1.8804
14542SOL     OW48563   5.820   9.179   9.060 -0.4966 -0.4738  0.0232
14542SOL    HW148564   5.831   9.084   9.058 -0.5734 -0.6111  2.6187
14542SOL    HW248565   5.745   9.193   9.117 -1.3760  1.1422 -1.4264
14543SOL     OW48566   4.997   2.305   1.289 -0.3494  0.3597  0.1368
14543SOL    HW148567   4.970   2.260   1.209 -3.0901  1.2438  0.4532
14543SOL    HW248568   4.956   2.256   1.359  2.5022 -0.7575  1.1723
14544SOL     OW48569   9.500   7.645   6.694  0.0020 -0.0551  0.0932
14544SOL    HW148570   9.512   7.702   6.617  0.2893  1.5513  1.2751
14544SOL    HW248571   9.429   7.686   6.743  1.1914  0.1378  1.7170
14545SOL     OW48572   1.423   8.432   3.599 -0.4355  0.1818  0.0065
14545SOL    HW148573   1.383   8.492   3.535 -1.4036  0.3447  0.7458
14545SOL    HW248574   1.349   8.387   3.640  0.1928 -0.2157  0.7339
14546SOL     OW48575   7.344   2.580   3.108  0.2265 -0.0723  0.4682
14546SOL    HW148576   7.421   2.547   3.063  0.1887 -0.3500  0.6038
14546SOL    HW248577   7.304   2.502   3.148  2.6760  0.5637  4.7868
14547SOL     OW48578  11.071   9.650   1.677 -0.2578 -0.0590  0.2771
14547SOL    HW148579  11.057   9.742   1.699 -2.1473  0.3345 -2.1153
14547SOL    HW248580  10.984   9.618   1.651  0.8587 -1.6609 -1.8122
14548SOL     OW48581   0.505   8.851   7.422  0.3585 -0.6610  0.1531
14548SOL    HW148582   0.480   8.850   7.330  1.8108 -0.2632 -0.2730
14548SOL    HW248583   0.438   8.798   7.466 -1.0747  0.1914 -0.9196
14549SOL     OW48584   0.226   1.959  10.533  1.0373  0.1417 -0.6520
14549SOL    HW148585   0.275   1.976  10.453 -0.2001  0.4352 -1.3635
14549SOL    HW248586   0.154   2.022  10.532 -1.9515 -2.9423 -1.8574
14550SOL     OW48587   1.752  10.917   3.784  0.4609 -0.2588  0.1485
14550SOL    HW148588   1.771  10.915   3.877 -0.3628  1.0113  0.3619
14550SOL    HW248589   1.827  10.961   3.745  0.0342  0.7519  0.4400
14551SOL     OW48590   0.026   9.725   8.344  0.3394 -0.4497 -0.5976
14551SOL    HW148591   0.080   9.801   8.362 -1.1004  0.5686 -0.4467
14551SOL    HW248592   0.008   9.687   8.430 -0.5187  0.1744 -0.4889
14552SOL     OW48593   9.420   2.001   2.792  0.2652 -0.6770 -0.0051
14552SOL    HW148594   9.443   2.048   2.872 -3.1813 -0.5594  1.0775
14552SOL    HW248595   9.446   1.911   2.809  1.9970 -0.1978  0.0908
14553SOL     OW48596   1.843   4.166   9.582  0.1222  0.2611  0.2015
14553SOL    HW148597   1.757   4.179   9.622  0.3235  0.8309  0.4612
14553SOL    HW248598   1.901   4.226   9.630  0.9126 -0.9727  0.8316
14554SOL     OW48599   9.423   6.616   1.802  0.3356  0.0081 -0.0582
14554SOL    HW148600   9.404   6.559   1.727 -0.5627 -1.7663  1.4215
14554SOL    HW248601   9.487   6.679   1.769  0.8405 -1.4141 -1.9962
14555SOL     OW48602   9.833  11.318   3.675 -0.0630 -0.4303  0.1068
14555SOL    HW148603   9.869  11.369   3.747 -0.2215 -2.7632  1.9500
14555SOL    HW248604   9.908  11.301   3.618  0.8598 -1.4168  1.5401
14556SOL     OW48605   3.558   8.187   0.553 -0.2133  0.2348  0.0521
14556SOL    HW148606   3.546   8.218   0.463 -0.3294 -1.1645 -0.4367
14556SOL    HW248607   3.506   8.107   0.559  1.1945 -0.6782  0.8101
14557SOL     OW48608   1.817   9.331   8.294 -0.4656  0.3001 -0.0449
14557SOL    HW148609   1.873   9.383   8.237 -0.4035  0.2331 -0.0449
14557SOL    HW248610   1.733   9.377   8.293 -0.6961 -0.1117 -0.7948
14558SOL     OW48611   5.600   4.446   6.384  0.1903  0.1360  0.8258
14558SOL    HW148612   5.654   4.394   6.443  0.6840 -0.7772 -0.3827
14558SOL    HW248613   5.621   4.413   6.297 -0.4882  1.4655  0.1237
14559SOL     OW48614  11.564   0.833   8.510  0.1192 -0.0083  0.2382
14559SOL    HW148615  11.549   0.745   8.475  0.5872  0.0925 -0.2174
14559SOL    HW248616  11.501   0.841   8.582  0.6780 -1.0517  0.8663
14560SOL     OW48617   8.041   4.610   1.974 -0.5932 -0.2179 -0.0071
14560SOL    HW148618   8.044   4.687   1.917 -3.2533 -0.0924 -0.0665
14560SOL    HW248619   8.053   4.646   2.063 -0.9122  0.1573 -0.1110
14561SOL     OW48620   7.152   0.375   4.367 -0.0744 -0.3658  0.0261
14561SOL    HW148621   7.211   0.326   4.309 -2.1366 -2.4300 -0.4762
14561SOL    HW248622   7.098   0.307   4.408  0.1027  1.1578  3.0667
14562SOL     OW48623   2.813   6.801   2.734  0.2717  0.2698 -0.0928
14562SOL    HW148624   2.817   6.891   2.767 -0.5033  0.2583  0.0752
14562SOL    HW248625   2.803   6.748   2.813 -0.6749  0.1640 -0.2646
14563SOL     OW48626   8.253  10.486  10.816  0.0703 -0.0524  0.4275
14563SOL    HW148627   8.159  10.494  10.829 -0.2146  0.2854 -1.5517
14563SOL    HW248628   8.284  10.576  10.813  0.2036 -0.1233 -0.4822
14564SOL     OW48629  10.443   4.199   9.079 -0.5829  0.0851  0.3177
14564SOL    HW148630  10.427   4.166   9.167  0.0717  0.2779  0.5153
14564SOL    HW248631  10.390   4.143   9.022 -1.0139 -0.0373  0.8311
14565SOL     OW48632   1.610   8.272   7.624 -0.1342 -0.1630  0.9125
14565SOL    HW148633   1.662   8.221   7.687  1.1168  1.6129  1.3973
14565SOL    HW248634   1.561   8.206   7.575 -0.5567 -1.6746  3.2027
14566SOL     OW48635   2.125   0.393   7.983  0.3732  0.2646  0.0993
14566SOL    HW148636   2.205   0.340   7.982  0.2948  0.1338 -1.2831
14566SOL    HW248637   2.156   0.484   7.983  0.5131  0.2185  0.8191
14567SOL     OW48638   7.150   9.870   1.357 -0.7150 -0.3717  0.1198
14567SOL    HW148639   7.178   9.793   1.407 -1.7698  1.4114  3.7954
14567SOL    HW248640   7.225   9.929   1.362 -0.7863 -0.2274 -0.5520
14568SOL     OW48641   9.654   8.910   6.582  1.3114  0.2697 -0.4680
14568SOL    HW148642   9.648   8.819   6.612 -0.9277  0.7350  0.6800
14568SOL    HW248643   9.603   8.912   6.501  0.3924  0.7042  0.1037
14569SOL     OW48644  10.004   8.236   2.451  0.2981  0.0983 -0.1900
14569SOL    HW148645   9.917   8.223   2.488  0.0204 -0.5977 -1.0502
14569SOL    HW248646  10.052   8.157   2.474 -0.9115 -2.0564 -4.0810
14570SOL     OW48647   6.744   5.804   9.415 -0.2844  0.0734  0.3813
14570SOL    HW148648   6.747   5.888   9.371 -1.3320  0.2547  0.6331
14570SOL    HW248649   6.666   5.808   9.471  0.0924 -0.7595  1.0053
14571SOL     OW48650   5.943   2.537  11.263 -0.2190  0.0956 -1.0125
14571SOL    HW148651   6.005   2.481  11.311 -0.0518  1.1583  0.0488
14571SOL    HW248652   5.858   2.520  11.303  0.1401  2.0575  0.7371
14572SOL     OW48653   9.434   2.604   2.189  0.0163  0.4455 -0.8075
14572SOL    HW148654   9.387   2.649   2.119 -0.0640  1.8745  0.1206
14572SOL    HW248655   9.386   2.627   2.269  1.1535  0.3580 -0.0721
14573SOL     OW48656   0.600  11.593  11.665  0.1373  0.5256  0.7777
14573SOL    HW148657   0.569  11.546  11.743  1.9313 -0.3017  1.0402
14573SOL    HW248658   0.675  11.542  11.634 -0.5527  0.7992 -1.5565
14574SOL     OW48659   8.670   0.908   0.512 -0.3601 -0.1491 -0.0042
14574SOL    HW148660   8.731   0.980   0.527  1.1122 -1.5049  0.7920
14574SOL    HW248661   8.628   0.894   0.597  1.0327 -1.6733  0.4749
14575SOL     OW48662   8.087  10.402   2.942  0.0610 -0.2103 -0.3596
14575SOL    HW148663   8.116  10.450   2.864 -1.2464 -0.6187 -1.1417
14575SOL    HW248664   7.993  10.388   2.928 -0.3904  0.4023  1.6736
14576SOL     OW48665  11.363  11.109   1.279  0.6395 -0.0399  0.2856
14576SOL    HW148666  11.313  11.044   1.230  0.2289  1.2838 -1.1348
14576SOL    HW248667  11.454  11.091   1.256  0.4350  0.7339 -1.2636
14577SOL     OW48668   8.296   4.263   4.775 -0.0672 -0.0481 -0.4373
14577SOL    HW148669   8.304   4.343   4.724 -0.8058 -0.9986 -2.1281
14577SOL    HW248670   8.261   4.292   4.860 -1.3467  1.3016 -1.3734
14578SOL     OW48671   5.571   8.330   8.736  0.2256  0.4313  0.0702
14578SOL    HW148672   5.616   8.257   8.694  1.2702  1.5548 -0.8454
14578SOL    HW248673   5.506   8.359   8.672  0.1217  0.5783  0.2420
14579SOL     OW48674   7.340   4.859   5.188  0.7161 -0.4739 -0.0967
14579SOL    HW148675   7.407   4.793   5.209  0.8679 -0.2469  0.1309
14579SOL    HW248676   7.380   4.942   5.212  0.6655 -0.2603 -0.7290
14580SOL     OW48677   8.329   7.985   2.840  0.1868 -0.6421 -0.1533
14580SOL    HW148678   8.240   7.951   2.847  0.6507 -1.8164  0.5297
14580SOL    HW248679   8.346   7.989   2.746 -0.3912 -0.9848 -0.2799
14581SOL     OW48680  11.187   7.784   5.364 -0.3880  0.0972 -0.4369
14581SOL    HW148681  11.152   7.728   5.433  1.3741 -1.3428 -0.6136
14581SOL    HW248682  11.216   7.863   5.409  0.7606 -0.8339  0.5397
14582SOL     OW48683   0.388   9.520   8.995  0.0110 -0.1072 -0.1627
14582SOL    HW148684   0.463   9.473   9.033  0.9533  0.2189 -1.5615
14582SOL    HW248685   0.427   9.580   8.932 -1.4807 -0.3409 -1.3422
14583SOL     OW48686   6.715   8.998   9.475 -0.5597 -0.1190  0.0434
14583SOL    HW148687   6.680   8.959   9.556  1.1346  0.5656  1.1670
14583SOL    HW248688   6.786   9.055   9.505  0.6102 -0.4138 -1.9953
14584SOL     OW48689   7.415  10.405   3.009 -0.2680  0.0976  0.0760
14584SOL    HW148690   7.489  10.464   2.998  0.3397 -0.5339  0.6831
14584SOL    HW248691   7.338  10.462   3.005  0.3386  1.0875  1.6731
14585SOL     OW48692   4.797   4.423   6.331  0.7555 -0.1812  0.5164
14585SOL    HW148693   4.722   4.376   6.295 -0.1329  2.5491 -1.5625
14585SOL    HW248694   4.775   4.435   6.423  0.2890 -2.3412  0.7409
14586SOL     OW48695   1.586   8.049   1.101 -0.0783 -0.0463  0.7247
14586SOL    HW148696   1.575   8.016   1.191 -0.5979  1.6636  1.3386
14586SOL    HW248697   1.679   8.071   1.095  0.2178 -1.3323  0.3959
14587SOL     OW48698   2.124  11.341   9.092 -0.2674  0.3449 -0.3563
14587SOL    HW148699   2.131  11.334   9.187 -1.8679  0.8098 -0.1840
14587SOL    HW248700   2.057  11.408   9.077 -1.3849 -1.0187 -1.7802
14588SOL     OW48701   9.824   3.187  10.512  0.2677 -0.1514 -0.3927
14588SOL    HW148702   9.880   3.151  10.443  0.1004 -0.2035 -0.5043
14588SOL    HW248703   9.877   3.254  10.554  0.2505  0.1271 -0.8049
14589SOL     OW48704   2.755   0.246   7.993  0.1117 -0.2287  0.0352
14589SOL    HW148705   2.680   0.304   8.006 -0.4222 -0.6642 -0.9976
14589SOL    HW248706   2.819   0.300   7.947  0.3813  0.0901  0.7614
14590SOL     OW48707  10.388  10.462   0.165 -0.7884  0.3213  0.5428
14590SOL    HW148708  10.482  10.445   0.167 -0.8496 -0.4359 -1.1452
14590SOL    HW248709  10.362  10.463   0.257  0.8922  0.7712  1.0627
14591SOL     OW48710   3.883   5.469   7.461 -0.1006 -0.0739  0.4863
14591SOL    HW148711   3.860   5.393   7.407 -2.0054  1.6848 -1.3427
14591SOL    HW248712   3.922   5.531   7.400 -1.8113  1.7736  1.1788
14592SOL     OW48713   3.029   4.235   3.194 -0.3795 -0.2505  0.0282
14592SOL    HW148714   3.046   4.171   3.263 -0.1479 -1.8384 -1.4275
14592SOL    HW248715   2.944   4.274   3.217 -0.6265 -1.2287  0.8348
14593SOL     OW48716  11.013   7.221  10.256  0.3987  0.1882  0.3512
14593SOL    HW148717  11.066   7.279  10.310 -0.4517  0.9301  0.4104
14593SOL    HW248718  10.983   7.153  10.315 -0.8104  1.1803  0.9340
14594SOL     OW48719   4.075   0.872   1.867  0.1330 -0.4636 -0.3841
14594SOL    HW148720   4.061   0.953   1.916  0.2377 -0.7117  0.0592
14594SOL    HW248721   4.081   0.804   1.934  0.0450 -0.8387 -0.7543
14595SOL     OW48722   1.811   9.888   9.270 -0.0341  0.0308 -0.5036
14595SOL    HW148723   1.723   9.850   9.262 -0.1039  0.3680 -1.4666
14595SOL    HW248724   1.795   9.981   9.287  0.1084  0.3583 -2.0082
14596SOL     OW48725   1.733   6.870   4.169  0.2304  0.2338  0.8623
14596SOL    HW148726   1.720   6.789   4.219 -1.3270  0.5692  1.0579
14596SOL    HW248727   1.645   6.906   4.159  0.8589  1.7401  0.4897
14597SOL     OW48728   8.329   5.818   0.998 -0.9476 -0.2736 -0.0978
14597SOL    HW148729   8.364   5.730   0.985  0.4906  0.1996  0.4141
14597SOL    HW248730   8.300   5.819   1.089  2.6302  0.8799  1.2174
14598SOL     OW48731   3.727   2.585   8.219 -0.3807  0.1167 -0.1195
14598SOL    HW148732   3.650   2.534   8.245  0.0969  0.4773  2.2360
14598SOL    HW248733   3.800   2.525   8.229 -0.2587 -0.1218 -2.0304
14599SOL     OW48734   8.405   8.404   2.247  0.0272  0.5954  0.0903
14599SOL    HW148735   8.334   8.354   2.208 -0.2162  0.6821  0.4212
14599SOL    HW248736   8.428   8.356   2.326  0.9606  0.0601 -0.4802
14600SOL     OW48737  10.801   8.148   7.734  0.1484  0.5965  0.3723
14600SOL    HW148738  10.708   8.133   7.750 -0.0390 -0.3797 -1.2994
14600SOL    HW248739  10.839   8.060   7.733  0.5735  0.7556 -1.5582
14601SOL     OW48740   7.955   9.809  11.596 -0.3286  0.0380  0.4185
14601SOL    HW148741   7.984   9.718  11.605 -0.2200  0.0978  0.6829
14601SOL    HW248742   7.863   9.802  11.568 -0.1261 -0.1485 -0.2141
14602SOL     OW48743   2.461  10.703   6.907 -0.1183 -0.0844  0.1845
14602SOL    HW148744   2.373  10.692   6.943 -0.6809 -0.0863 -1.1347
14602SOL    HW248745   2.519  10.699   6.983 -1.5039  4.8416  1.8909
14603SOL     OW48746   7.556   7.623   8.546 -0.5756  0.5779 -0.4810
14603SOL    HW148747   7.510   7.564   8.605 -2.0479  2.6645  0.6105
14603SOL    HW248748   7.492   7.691   8.525  1.4698  2.7106 -0.2863
14604SOL     OW48749   3.177   7.811   5.519 -0.0394  0.1387  0.1081
14604SOL    HW148750   3.130   7.824   5.437 -0.2650 -0.0982  0.1982
14604SOL    HW248751   3.269   7.826   5.497 -0.0187 -0.6265 -0.3449
14605SOL     OW48752   4.892   3.577   3.426  0.1392  0.2165  0.2078
14605SOL    HW148753   4.867   3.606   3.338 -1.5512 -2.3617 -0.2834
14605SOL    HW248754   4.973   3.529   3.412  0.2645  0.4345  0.1810
14606SOL     OW48755   5.225   9.571   7.087  0.4950  0.2464  0.4537
14606SOL    HW148756   5.265   9.509   7.148  0.1307 -0.1818  0.2612
14606SOL    HW248757   5.224   9.654   7.135  1.0923  0.1337  0.6677
14607SOL     OW48758   7.729   0.545   8.705 -0.6121 -0.4657 -0.4323
14607SOL    HW148759   7.670   0.602   8.656 -0.0585 -0.1425 -0.7237
14607SOL    HW248760   7.673   0.505   8.772 -1.0325  0.3025 -0.3187
14608SOL     OW48761   2.603   5.288   9.662 -0.0496  0.0447 -0.2378
14608SOL    HW148762   2.588   5.241   9.580 -0.1122 -0.0561 -0.1678
14608SOL    HW248763   2.630   5.376   9.634  0.6467 -0.2084 -0.3708
14609SOL     OW48764   7.773  10.109   8.173 -0.3881 -0.1648  0.3558
14609SOL    HW148765   7.851  10.112   8.118 -0.7961  2.2202 -0.1864
14609SOL    HW248766   7.801  10.143   8.258 -0.1222 -2.4266  1.2592
14610SOL     OW48767   2.058   1.067   6.038 -0.1819  0.3776  0.7230
14610SOL    HW148768   2.058   1.101   5.948 -0.4842  0.1071  0.6211
14610SOL    HW248769   2.012   0.984   6.033 -1.0160  0.7904  1.2871
14611SOL     OW48770   1.561   6.743  11.500 -0.3377  0.4568 -0.2881
14611SOL    HW148771   1.612   6.682  11.554 -1.8201 -1.5567 -1.0730
14611SOL    HW248772   1.607   6.827  11.511  1.5504 -0.6598  1.1484
14612SOL     OW48773   3.400   2.882  10.790 -0.2824  0.6434  0.0803
14612SOL    HW148774   3.487   2.886  10.750  0.2604  0.2104  1.1847
14612SOL    HW248775   3.414   2.904  10.882 -1.5471  1.9172  0.0048
14613SOL     OW48776   8.880   8.432   2.686  0.0739 -0.8542 -0.2552
14613SOL    HW148777   8.851   8.480   2.763 -1.3167 -1.3013 -0.4849
14613SOL    HW248778   8.900   8.344   2.719  4.1099  0.1304  0.4763
14614SOL     OW48779   5.845  10.566   6.722  0.6173  0.4638  0.7442
14614SOL    HW148780   5.812  10.476   6.727 -0.2540  0.8323  3.4515
14614SOL    HW248781   5.907  10.565   6.650 -1.1532 -1.6798 -0.8752
14615SOL     OW48782   5.549   4.877   3.908  0.3419 -0.3972  0.1676
14615SOL    HW148783   5.614   4.937   3.945  0.2205 -0.1199 -0.0646
14615SOL    HW248784   5.491   4.856   3.981 -0.4540  0.8804 -0.0679
14616SOL     OW48785   0.270   2.259   4.949 -0.3051 -0.1225 -0.3449
14616SOL    HW148786   0.329   2.262   5.025 -0.5580 -1.7536 -0.0576
14616SOL    HW248787   0.295   2.336   4.897  2.6348 -1.1372 -0.6137
14617SOL     OW48788   4.135  10.320   5.730 -0.0923 -0.5698 -0.0934
14617SOL    HW148789   4.128  10.237   5.778 -0.1497 -0.4647  0.0814
14617SOL    HW248790   4.046  10.340   5.703  0.1548 -1.5012 -1.7390
14618SOL     OW48791  10.625   9.148   3.831  0.1150  0.4090  0.2460
14618SOL    HW148792  10.573   9.089   3.887 -1.8638  0.1611 -1.7105
14618SOL    HW248793  10.561   9.207   3.793  1.6348  1.6584 -0.4599
14619SOL     OW48794   9.790   3.041   2.069  0.1792 -0.0961  0.3451
14619SOL    HW148795   9.857   3.106   2.048  1.9443 -1.6641  0.8622
14619SOL    HW248796   9.715   3.093   2.097  1.9331  1.7354  2.0006
14620SOL     OW48797   0.315   4.693   4.031  0.3986  0.1838 -0.5642
14620SOL    HW148798   0.397   4.651   4.005  0.4804 -0.4741  0.6816
14620SOL    HW248799   0.246   4.636   3.998  0.4963 -0.4610  0.3059
14621SOL     OW48800   3.028   3.436   3.424  0.0408  0.1147 -0.8870
14621SOL    HW148801   3.042   3.341   3.421  2.5084  0.4015 -0.3358
14621SOL    HW248802   2.950   3.447   3.478 -2.2886 -1.6890 -3.6028
14622SOL     OW48803   3.285  11.222   9.464  0.4271  0.1454  0.5043
14622SOL    HW148804   3.228  11.284   9.509  0.2307  0.0186  0.4327
14622SOL    HW248805   3.290  11.147   9.523  1.4961  0.6374  1.0653
14623SOL     OW48806   2.809   1.056   5.842  0.7504 -0.0365  0.5491
14623SOL    HW148807   2.841   1.004   5.769 -0.9719 -1.3311  0.6524
14623SOL    HW248808   2.727   1.014   5.868  0.3573  1.4971  2.0203
14624SOL     OW48809   8.490   9.533   9.931 -0.0839  0.4897  0.3031
14624SOL    HW148810   8.523   9.610   9.978 -1.2189  0.9093  0.4461
14624SOL    HW248811   8.508   9.460   9.990  1.0482  0.6305  0.1465
14625SOL     OW48812   5.544   7.504   4.325  0.8544  0.0284 -0.2752
14625SOL    HW148813   5.628   7.458   4.332  0.5979 -0.3544  0.3666
14625SOL    HW248814   5.480   7.443   4.361  0.2285  0.1453 -1.1505
14626SOL     OW48815  11.408   2.587   7.953 -0.3002 -0.0076 -0.2659
14626SOL    HW148816  11.325   2.599   7.907 -0.9224 -2.0639  0.1979
14626SOL    HW248817  11.402   2.646   8.028 -0.7230  0.8877 -0.9848
14627SOL     OW48818   2.240   2.533   8.154  0.3155 -0.1087  0.4890
14627SOL    HW148819   2.281   2.449   8.132  0.7696 -0.1906  1.5831
14627SOL    HW248820   2.311   2.597   8.147 -0.5276  0.6705 -2.7755
14628SOL     OW48821  11.240   0.568   2.307  0.5780  0.3452  0.2936
14628SOL    HW148822  11.264   0.475   2.301  0.6289  0.4522 -1.9742
14628SOL    HW248823  11.163   0.577   2.251  0.6740  1.6852  0.3372
14629SOL     OW48824  10.239  10.276   4.930  0.1688 -0.2670 -0.4070
14629SOL    HW148825  10.291  10.204   4.895  0.6431 -0.2862  0.3186
14629SOL    HW248826  10.191  10.238   5.003  0.4284  0.1402 -0.0131
14630SOL     OW48827   1.380   2.939  10.835  0.0534 -0.1393 -1.1403
14630SOL    HW148828   1.293   2.971  10.858  0.7118 -0.0116  1.4552
14630SOL    HW248829   1.381   2.847  10.862  0.9335  0.0589 -0.4421
14631SOL     OW48830   7.882   4.452   6.299  0.0921  0.3742  0.4586
14631SOL    HW148831   7.868   4.447   6.205  0.7937 -1.0353  0.4051
14631SOL    HW248832   7.848   4.369   6.333  0.4781  0.5688  1.3542
14632SOL     OW48833   4.876   3.609   3.752 -0.1542 -0.4138  0.0948
14632SOL    HW148834   4.917   3.688   3.716 -1.2070  0.2922  0.3824
14632SOL    HW248835   4.787   3.610   3.716 -0.2646 -1.3388  0.3123
14633SOL     OW48836   6.660   2.362   1.444 -0.1087  0.2114 -0.0833
14633SOL    HW148837   6.720   2.377   1.372  0.4504 -4.2926 -0.8571
14633SOL    HW248838   6.578   2.334   1.402 -1.1160  1.3286  1.0386
14634SOL     OW48839   9.249   4.251   3.091  0.2401  0.0454  0.2068
14634SOL    HW148840   9.260   4.157   3.108  1.0649 -0.1521 -1.2799
14634SOL    HW248841   9.290   4.265   3.006  0.0310  1.7493  0.3565
14635SOL     OW48842   7.449   8.579  11.247 -0.0752 -0.0568 -0.2483
14635SOL    HW148843   7.479   8.618  11.166 -1.0033  0.1774 -0.4961
14635SOL    HW248844   7.356   8.562  11.232 -1.1548  3.0789  1.8817
14636SOL     OW48845   9.501   9.025   2.096 -0.1738 -0.1134 -0.4398
14636SOL    HW148846   9.427   9.080   2.072  0.3920  1.0130  0.3329
14636SOL    HW248847   9.534   9.062   2.178  1.0535 -0.7683 -0.6081
14637SOL     OW48848  10.905   0.042   1.780 -0.4111  0.0418  0.8568
14637SOL    HW148849  10.950  -0.033   1.741  1.2323  1.8780 -1.0771
14637SOL    HW248850  10.813   0.029   1.759 -0.0796 -1.1412  0.0415
14638SOL     OW48851  10.623   2.966   9.223  0.7828  0.4548  0.0426
14638SOL    HW148852  10.707   2.976   9.177  0.4392 -0.4695 -0.8216
14638SOL    HW248853  10.595   3.056   9.241  1.9104  0.7832  0.2772
14639SOL     OW48854   9.658   6.034   4.892  0.6691 -0.0824  0.1086
14639SOL    HW148855   9.573   6.076   4.879 -0.8502 -2.3857  1.7775
14639SOL    HW248856   9.666   5.973   4.819  0.3410 -0.6690  0.5585
14640SOL     OW48857   2.484   2.361   7.545 -0.2710  0.1623  0.2739
14640SOL    HW148858   2.463   2.328   7.457 -0.1072 -0.4119  0.4415
14640SOL    HW248859   2.518   2.284   7.591  0.2748  0.6099  0.6338
14641SOL     OW48860   5.459   2.688   6.067 -0.0778  0.3655 -0.6686
14641SOL    HW148861   5.405   2.622   6.109  1.0741  0.7143  1.4781
14641SOL    HW248862   5.519   2.638   6.011  0.5888 -0.4319  0.7022
14642SOL     OW48863   0.523   2.389  10.768  0.2486 -0.7079 -0.9923
14642SOL    HW148864   0.518   2.375  10.673 -0.6172 -0.6106 -0.9728
14642SOL    HW248865   0.449   2.447  10.787  0.9148 -0.0446 -0.3752
14643SOL     OW48866   7.004   7.179   0.627  0.1768 -0.5496 -0.1049
14643SOL    HW148867   7.050   7.153   0.548  0.7283 -0.3705  0.1542
14643SOL    HW248868   6.938   7.241   0.596 -0.0701 -1.0028 -0.5090
14644SOL     OW48869   1.911   6.420   6.423  0.3618  0.1991  0.1263
14644SOL    HW148870   1.944   6.373   6.347 -0.7738  0.9466 -0.8860
14644SOL    HW248871   1.853   6.487   6.386 -0.2262  0.5847  1.6548
14645SOL     OW48872  10.955   8.546   1.197  0.3241 -0.4821  0.0629
14645SOL    HW148873  10.959   8.527   1.291  0.2511  0.4102  0.2559
14645SOL    HW248874  11.017   8.618   1.185  0.5987 -0.8273 -0.6432
14646SOL     OW48875  10.458   8.132   1.994  0.0683 -0.0558 -0.0495
14646SOL    HW148876  10.521   8.150   1.925  0.1963 -1.0592 -0.1989
14646SOL    HW248877  10.437   8.039   1.985 -1.4133  0.2491  0.0175
14647SOL     OW48878   9.229   5.665   3.991 -0.0611  0.7559  0.0384
14647SOL    HW148879   9.225   5.622   3.906 -1.2007  1.6789 -0.3927
14647SOL    HW248880   9.321   5.657   4.017  0.4570  1.0367 -1.5738
14648SOL     OW48881   8.237   2.372   3.428  0.2859  0.0005  0.4801
14648SOL    HW148882   8.195   2.290   3.402 -0.0023 -0.2411  1.6731
14648SOL    HW248883   8.165   2.434   3.439  0.2100 -0.3820  2.4111
14649SOL     OW48884   5.131  10.700   7.426 -0.2146  0.3096  0.2062
14649SOL    HW148885   5.199  10.653   7.377 -0.5502 -0.0506  0.0836
14649SOL    HW248886   5.071  10.731   7.359 -0.5559  0.0086  0.3719
14650SOL     OW48887   8.474   4.475   0.530 -0.3815 -0.0196 -0.1246
14650SOL    HW148888   8.501   4.504   0.443 -0.6359 -0.6172 -0.4087
14650SOL    HW248889   8.535   4.518   0.589 -0.4247  0.6779 -0.5684
14651SOL     OW48890  11.232   0.613   6.338  0.3705 -0.4777  0.0357
14651SOL    HW148891  11.299   0.576   6.396  0.3329 -3.2339 -1.5156
14651SOL    HW248892  11.258   0.586   6.250 -2.1392 -0.6555 -0.7304
14652SOL     OW48893   2.179   6.265   1.040  0.7682  0.3740 -0.0374
14652SOL    HW148894   2.173   6.213   1.121 -0.1807  0.4385 -0.0471
14652SOL    HW248895   2.262   6.239   1.001  0.6391 -0.6310  0.3117
14653SOL     OW48896   0.783   8.821   6.590 -0.1036 -0.4225 -0.3940
14653SOL    HW148897   0.690   8.818   6.570 -0.2693  0.4303  0.1881
14653SOL    HW248898   0.824   8.768   6.521 -1.0332 -1.0679 -0.4763
14654SOL     OW48899   3.628   8.402   3.386 -0.0848 -0.1610 -0.1392
14654SOL    HW148900   3.683   8.342   3.435  0.3922  1.0373  0.8277
14654SOL    HW248901   3.539   8.369   3.399  0.0663 -0.0815  1.2570
14655SOL     OW48902   3.463   4.393   5.315 -0.1784  0.0238 -0.2676
14655SOL    HW148903   3.546   4.358   5.284 -0.8414 -0.2252 -1.8876
14655SOL    HW248904   3.397   4.343   5.267 -1.2463  0.8399  0.2958
14656SOL     OW48905   0.330   3.278   2.063  0.2811  0.4053 -0.0836
14656SOL    HW148906   0.396   3.347   2.072 -0.1099  0.7016  0.5668
14656SOL    HW248907   0.372   3.200   2.101  0.8656  0.1707 -1.1600
14657SOL     OW48908   1.989  10.430   6.355 -0.7405  0.2162 -0.1570
14657SOL    HW148909   2.050  10.485   6.306 -1.8159  1.2709 -0.3503
14657SOL    HW248910   2.004  10.453   6.446  1.0718 -1.5529  0.0651
14658SOL     OW48911   2.738   8.812   5.276  0.2223  0.2309  0.2700
14658SOL    HW148912   2.768   8.737   5.327 -1.4403 -0.0271  0.9462
14658SOL    HW248913   2.778   8.801   5.190  0.7075 -0.9379  0.6328
14659SOL     OW48914   9.849   6.588   0.044  0.4688 -0.1474  0.0439
14659SOL    HW148915   9.764   6.606   0.004  0.6043 -0.4978 -0.4078
14659SOL    HW248916   9.877   6.505   0.006  0.6811 -0.4002  0.7461
14660SOL     OW48917   7.141  11.669   5.461 -0.2335 -0.1235 -0.7925
14660SOL    HW148918   7.120  11.624   5.379  0.7822  0.0688 -1.1677
14660SOL    HW248919   7.139  11.599   5.527  1.8589 -0.8750 -1.4495
14661SOL     OW48920  11.546   8.235   7.214  0.9088  0.3549 -0.3914
14661SOL    HW148921  11.456   8.221   7.245  1.2518  1.3605  1.1745
14661SOL    HW248922  11.583   8.148   7.206  0.1926 -0.0148  0.2126
14662SOL     OW48923  10.623   4.414   8.874  0.0201 -0.3816 -0.6379
14662SOL    HW148924  10.686   4.366   8.927 -0.7470  0.1812  0.8253
14662SOL    HW248925  10.623   4.368   8.790  0.7143 -1.7610  0.0811
14663SOL     OW48926  11.252   4.190  10.574 -0.2712 -0.0039  0.3767
14663SOL    HW148927  11.243   4.205  10.668  0.2484 -0.3394  0.4895
14663SOL    HW248928  11.227   4.272  10.534 -0.0829  0.2831  0.8333
14664SOL     OW48929  11.196  10.244  10.705 -0.7094  0.5274 -0.0021
14664SOL    HW148930  11.149  10.210  10.629 -2.2884  0.8064  0.8142
14664SOL    HW248931  11.278  10.195  10.706 -1.4238 -0.7414 -0.8535
14665SOL     OW48932   7.632  10.834   1.957  0.3321 -0.2489 -0.3050
14665SOL    HW148933   7.561  10.771   1.949  0.0715  0.0224 -0.1369
14665SOL    HW248934   7.704  10.785   1.997  0.9170 -1.0535 -2.2060
14666SOL     OW48935   1.859   0.653   0.488 -0.7624 -0.5062  0.1196
14666SOL    HW148936   1.837   0.714   0.558  0.4664 -0.1648  0.2310
14666SOL    HW248937   1.854   0.705   0.407  0.2439 -0.2326  0.2107
14667SOL     OW48938   6.043  10.255  11.269  0.1033  0.5847 -0.3523
14667SOL    HW148939   6.007  10.339  11.240  0.2674 -0.2972 -3.5323
14667SOL    HW248940   5.967  10.204  11.297 -0.1340  1.3715  0.4713
14668SOL     OW48941   3.717   8.520   5.965 -0.0721 -0.1080 -0.2008
14668SOL    HW148942   3.806   8.554   5.972  0.7921 -2.0935 -0.9195
14668SOL    HW248943   3.664   8.597   5.941  1.0408  1.5302  2.1860
14669SOL     OW48944   4.361   8.078   9.981 -0.1129 -0.0957 -0.0129
14669SOL    HW148945   4.437   8.056   9.927  1.2453  3.1043  0.3442
14669SOL    HW248946   4.290   8.090   9.918  0.0081 -1.6903 -0.5014
14670SOL     OW48947  10.901   8.761   8.537 -0.1811  0.2501  0.1053
14670SOL    HW148948  10.866   8.798   8.618 -1.4734 -0.3302 -0.1517
14670SOL    HW248949  10.847   8.800   8.468  1.7009  1.7103 -0.6429
14671SOL     OW48950   3.334   9.018   4.922  0.2001  0.3739 -0.3484
14671SOL    HW148951   3.289   9.101   4.934 -0.4708 -0.1196  0.6449
14671SOL    HW248952   3.289   8.977   4.848  0.9395  1.1440 -1.2534
14672SOL     OW48953  11.486   4.976   4.610 -0.1796 -0.8362 -0.0400
14672SOL    HW148954  11.484   5.060   4.654 -0.4391 -2.1257  2.5598
14672SOL    HW248955  11.578   4.966   4.582  0.7760 -1.1896  2.8884
14673SOL     OW48956   2.785   5.243   7.069 -0.0214  0.6623  0.4226
14673SOL    HW148957   2.880   5.246   7.083  0.1598 -0.0312 -0.5715
14673SOL    HW248958   2.774   5.267   6.977 -0.5112 -2.6342 -0.4853
14674SOL     OW48959   3.190   1.031   2.946 -0.3832  0.3885 -0.4159
14674SOL    HW148960   3.201   0.936   2.938 -2.4327  0.0097  0.4596
14674SOL    HW248961   3.107   1.041   2.994  0.2636  2.6110  0.3536
14675SOL     OW48962  10.485   8.635   3.513 -0.1115 -0.4296 -0.2484
14675SOL    HW148963  10.516   8.692   3.583  0.7114 -0.5968 -0.4663
14675SOL    HW248964  10.535   8.662   3.436 -1.0835 -0.1812 -0.8026
14676SOL     OW48965   1.592  11.235   9.303  0.3686 -0.2122  0.4608
14676SOL    HW148966   1.621  11.150   9.337  1.4268  0.3237  0.9101
14676SOL    HW248967   1.647  11.299   9.347 -1.3686  0.8369  1.1984
14677SOL     OW48968   0.731   0.638   8.356 -0.3635 -0.2877  0.2173
14677SOL    HW148969   0.732   0.734   8.366 -1.8439 -0.1868 -0.2936
14677SOL    HW248970   0.693   0.606   8.437 -1.3352 -0.3126 -0.2324
14678SOL     OW48971  10.776   3.530   3.479  0.1575 -0.3912  0.3262
14678SOL    HW148972  10.796   3.487   3.395 -1.2715 -0.5233  0.0106
14678SOL    HW248973  10.852   3.513   3.534  1.3329  0.0756 -1.0823
14679SOL     OW48974   4.121   2.436   0.517 -0.1552 -0.4868  0.1710
14679SOL    HW148975   4.149   2.368   0.579 -2.5432 -0.2312  1.6391
14679SOL    HW248976   4.171   2.513   0.543 -1.5002 -0.2318  2.2396
14680SOL     OW48977   1.249   7.117   1.705  0.2239  0.0113  0.7014
14680SOL    HW148978   1.207   7.133   1.621 -1.5343 -0.3926  1.4494
14680SOL    HW248979   1.335   7.158   1.698 -1.0377  2.7188 -0.2236
14681SOL     OW48980   6.015  11.355   1.765  0.2650  0.0703 -0.3421
14681SOL    HW148981   5.942  11.334   1.825  1.8493 -0.2276  1.6053
14681SOL    HW248982   5.995  11.306   1.686 -1.7212  0.1122  0.0716
14682SOL     OW48983   4.297   6.551   4.625 -0.1985  0.2112  0.2521
14682SOL    HW148984   4.354   6.499   4.570 -0.0129  0.9910 -0.2957
14682SOL    HW248985   4.209   6.536   4.590 -0.1776  0.0521  0.2687
14683SOL     OW48986  10.335   9.586   5.378  0.2934  0.7799  0.5291
14683SOL    HW148987  10.397   9.572   5.449  1.1560 -0.4918 -0.4246
14683SOL    HW248988  10.295   9.500   5.365  0.9948  0.6901 -1.2678
14684SOL     OW48989   5.251   2.989   3.896 -0.0575 -0.3145 -0.7004
14684SOL    HW148990   5.273   2.897   3.886  1.5487 -0.0262 -0.1505
14684SOL    HW248991   5.335   3.033   3.905 -0.7011  1.4100 -2.3967
14685SOL     OW48992   3.542   8.453   6.765 -0.1452 -0.0394 -0.1649
14685SOL    HW148993   3.545   8.534   6.715 -0.7875 -0.8072 -1.5004
14685SOL    HW248994   3.621   8.405   6.738  0.4874  0.3216  0.9784
14686SOL     OW48995   3.238  11.174   1.586 -0.5537 -0.0783 -0.2665
14686SOL    HW148996   3.163  11.185   1.528 -1.1943 -1.6887  0.1968
14686SOL    HW248997   3.297  11.116   1.539  1.0027  2.0560 -1.1149
14687SOL     OW48998  11.127   7.377  10.951 -0.3826  0.4498  0.0231
14687SOL    HW148999  11.055   7.377  11.014 -2.3800  0.7923 -2.1304
14687SOL    HW249000  11.167   7.464  10.959  0.3961 -0.0276  1.8058
14688SOL     OW49001   3.764   3.897   5.480  0.0415  0.2089  0.7940
14688SOL    HW149002   3.721   3.878   5.563  0.0169  0.2066  0.7807
14688SOL    HW249003   3.746   3.820   5.425 -1.7621  1.1067  0.0546
14689SOL     OW49004   8.734   8.549   2.106  0.3080 -0.2686 -0.6492
14689SOL    HW149005   8.716   8.641   2.126 -1.7095 -0.8978  0.6608
14689SOL    HW249006   8.750   8.508   2.191 -1.4986 -1.6218 -0.8929
14690SOL     OW49007   4.317   4.770   1.586  0.8473  0.3184  0.0782
14690SOL    HW149008   4.389   4.814   1.630  0.0804  1.6090  0.0914
14690SOL    HW249009   4.249   4.761   1.653  0.5899  0.0802 -0.2075
14691SOL     OW49010   1.424   7.528   7.256  0.5990 -0.1225  0.0165
14691SOL    HW149011   1.366   7.510   7.330 -3.0653 -1.1956 -2.8058
14691SOL    HW249012   1.409   7.620   7.236 -2.0117 -0.8413 -1.9284
14692SOL     OW49013   6.471  10.358   1.457 -0.2839 -0.3266  0.9734
14692SOL    HW149014   6.548  10.415   1.466 -0.8982  0.5545  0.7773
14692SOL    HW249015   6.505  10.270   1.471  0.3835  0.2156  3.1144
14693SOL     OW49016   7.589   9.976   4.351  0.5574 -0.2898  0.1842
14693SOL    HW149017   7.658   9.989   4.286 -0.5148  0.8542 -0.7754
14693SOL    HW249018   7.557   9.887   4.334  0.8492 -0.3096 -0.2881
14694SOL     OW49019  11.306   8.229   7.330 -0.2049  0.3730  0.0097
14694SOL    HW149020  11.251   8.185   7.395  0.3081  0.0416  0.2255
14694SOL    HW249021  11.296   8.322   7.349 -1.2763  0.3623 -0.4319
14695SOL     OW49022   0.914   0.473  11.026 -0.3372 -0.2929  0.2520
14695SOL    HW149023   0.905   0.410  10.955 -0.1737  1.0414 -0.9824
14695SOL    HW249024   0.826   0.478  11.064 -0.9314  0.4535 -1.1561
14696SOL     OW49025  11.302   6.243   5.204 -0.4582 -0.3526  0.2338
14696SOL    HW149026  11.219   6.200   5.185 -0.9629  1.0211 -0.8208
14696SOL    HW249027  11.330   6.280   5.120  0.2651  0.8328  0.9619
14697SOL     OW49028   0.541   8.948   3.423  0.1060 -0.1499 -0.6776
14697SOL    HW149029   0.580   8.892   3.355  1.8394 -1.0008  0.9152
14697SOL    HW249030   0.587   9.031   3.415  1.0908 -0.5956  0.0848
14698SOL     OW49031   2.064   7.660   1.642  0.7642 -0.1039 -0.5511
14698SOL    HW149032   2.112   7.710   1.576  2.3222  1.6904  1.7780
14698SOL    HW249033   2.133   7.618   1.695 -0.4568 -2.4765 -0.6998
14699SOL     OW49034   0.624   9.815   4.283  0.1187 -0.0127 -0.1610
14699SOL    HW149035   0.579   9.898   4.266 -0.5972 -0.0290  1.4725
14699SOL    HW249036   0.712   9.840   4.311 -0.2954  0.2606  0.9543
14700SOL     OW49037   2.694   8.264   6.717 -0.3660 -0.6805 -0.2487
14700SOL    HW149038   2.706   8.329   6.785 -0.7154  0.3983 -1.1877
14700SOL    HW249039   2.778   8.219   6.711 -1.1906 -3.0136  3.0243
14701SOL     OW49040   7.341   4.735   6.782 -0.1827 -0.7128 -0.2953
14701SOL    HW149041   7.422   4.684   6.783 -0.7019 -1.5548  0.2032
14701SOL    HW249042   7.287   4.693   6.716  0.1933  0.5497 -1.4636
14702SOL     OW49043   4.119   2.765   5.285 -0.4962  0.3317  0.1339
14702SOL    HW149044   4.051   2.721   5.234 -3.2252  1.2060  2.7307
14702SOL    HW249045   4.200   2.744   5.240 -2.2368 -2.4922 -2.0142
14703SOL     OW49046  10.550   6.298   0.823  0.1029 -0.3370 -0.3505
14703SOL    HW149047  10.512   6.348   0.896  0.8362  0.2966 -0.3949
14703SOL    HW249048  10.634   6.267   0.856  0.1817 -0.5387 -0.7316
14704SOL     OW49049  11.388   2.366   7.083 -0.0834  0.4432  0.0283
14704SOL    HW149050  11.311   2.379   7.027 -0.1767 -0.6047 -0.1012
14704SOL    HW249051  11.445   2.308   7.032  0.1885  0.1284  0.6784
14705SOL     OW49052   9.603  10.247   9.284 -0.0670 -0.0493  0.1650
14705SOL    HW149053   9.647  10.164   9.303 -1.3582 -0.5270  1.2042
14705SOL    HW249054   9.593  10.289   9.369 -1.0126  0.3616 -0.1415
14706SOL     OW49055   0.377   5.450   6.125  0.4397  0.0250  0.6790
14706SOL    HW149056   0.393   5.467   6.032  0.9547 -2.5470  0.2357
14706SOL    HW249057   0.288   5.482   6.140  0.3318  0.4360 -0.6908
14707SOL     OW49058   2.581   3.705   5.405  0.4416 -0.0727 -0.1723
14707SOL    HW149059   2.603   3.612   5.409  1.1442  0.0851 -0.2666
14707SOL    HW249060   2.638   3.741   5.337  0.4500  0.4976  0.1288
14708SOL     OW49061   1.278   6.079   5.705  0.4156  0.7038 -0.6491
14708SOL    HW149062   1.285   6.054   5.797  1.2975  2.2451 -0.2628
14708SOL    HW249063   1.358   6.046   5.664 -0.7092 -1.4499 -1.2994
14709SOL     OW49064   0.633   3.152   1.544 -0.9794 -0.3800 -0.3262
14709SOL    HW149065   0.714   3.101   1.554 -0.5573  0.4581  0.8197
14709SOL    HW249066   0.598   3.159   1.633 -1.1521  1.1098 -0.4830
14710SOL     OW49067   0.800   1.043   2.492  0.2500  0.1779 -0.3656
14710SOL    HW149068   0.863   1.013   2.558  0.2445  1.9372  0.4807
14710SOL    HW249069   0.744   0.966   2.477  0.3211 -0.3327  1.5974
14711SOL     OW49070   3.270   4.264   5.161  0.3742 -0.2149  0.1950
14711SOL    HW149071   3.302   4.187   5.115  0.5397 -0.6861  1.0923
14711SOL    HW249072   3.193   4.233   5.210  0.1154  0.3106  0.1306
14712SOL     OW49073   0.173   0.900   6.352  0.9523  0.2360 -0.5086
14712SOL    HW149074   0.184   0.833   6.285 -0.5236  0.5602 -1.1125
14712SOL    HW249075   0.262   0.929   6.372  1.6351 -1.8767 -0.2204
14713SOL     OW49076   4.615  11.443  11.545 -0.2767 -0.0118 -0.1474
14713SOL    HW149077   4.629  11.445  11.639  0.9172 -0.1488 -0.3028
14713SOL    HW249078   4.639  11.531  11.516 -0.4183 -0.0393 -0.3511
14714SOL     OW49079   3.789   1.177  10.945  0.3633 -0.0826  0.0599
14714SOL    HW149080   3.831   1.127  10.876  1.1373  1.0394 -0.3179
14714SOL    HW249081   3.763   1.112  11.010  3.4206 -0.8219  0.6963
14715SOL     OW49082   0.811   0.215   9.256 -0.5255 -0.1761  0.1144
14715SOL    HW149083   0.770   0.284   9.204  0.9422  0.2813 -0.4904
14715SOL    HW249084   0.813   0.251   9.345 -0.4278  0.2608 -0.0587
14716SOL     OW49085   5.817   1.792   8.419 -0.0921  0.7164 -0.0234
14716SOL    HW149086   5.722   1.789   8.424 -0.1951  2.5132 -0.1694
14716SOL    HW249087   5.846   1.739   8.494 -1.1431 -1.1379 -0.8643
14717SOL     OW49088   9.257   5.227   1.717  0.0085  0.3675  0.2574
14717SOL    HW149089   9.163   5.246   1.717  0.2345  1.6136 -0.5129
14717SOL    HW249090   9.282   5.228   1.625  0.8238  0.2645  0.4635
14718SOL     OW49091  10.324   4.412   6.078  0.1766 -0.3534  1.0794
14718SOL    HW149092  10.353   4.494   6.039  1.6613 -1.9762 -1.5307
14718SOL    HW249093  10.400   4.380   6.127  0.9979 -1.8320 -0.9880
14719SOL     OW49094   4.433   5.948   9.936  0.0996 -0.6198  0.0835
14719SOL    HW149095   4.516   5.923   9.894 -0.2325  0.2566 -1.1556
14719SOL    HW249096   4.448   6.038   9.966 -0.7039 -0.0743 -1.0731
14720SOL     OW49097   6.465   2.982   7.218 -0.0242 -0.5123 -0.0540
14720SOL    HW149098   6.426   3.046   7.159 -0.4694  0.8706  1.6633
14720SOL    HW249099   6.408   2.905   7.210  1.0032 -1.1286 -2.7753
14721SOL     OW49100   9.908   1.739   9.591  0.1269  0.2507  0.8172
14721SOL    HW149101   9.913   1.690   9.673  0.1194  0.3406  0.8725
14721SOL    HW249102   9.999   1.748   9.563  0.0934 -0.2151  0.5526
14722SOL     OW49103   7.560   9.760   4.166  0.4478  1.1637 -0.1567
14722SOL    HW149104   7.538   9.814   4.090  0.8733  0.0149 -1.1372
14722SOL    HW249105   7.485   9.703   4.177  0.8044  0.6382 -0.3736
14723SOL     OW49106   3.952   6.058   2.874  0.0372  0.3749  0.3525
14723SOL    HW149107   3.886   6.097   2.817  1.0543 -1.6766 -2.4673
14723SOL    HW249108   4.029   6.112   2.861  0.6366 -0.7827 -1.3861
14724SOL     OW49109  10.294   6.194   4.343 -0.2220  0.5208 -0.0923
14724SOL    HW149110  10.380   6.168   4.310 -1.0683  0.0687 -2.0326
14724SOL    HW249111  10.267   6.123   4.401 -0.1575 -0.3010 -1.0644
14725SOL     OW49112   1.451   9.000   4.292  0.2051  0.1007 -0.3305
14725SOL    HW149113   1.435   8.976   4.201  0.2811  0.2592 -0.3855
14725SOL    HW249114   1.527   8.946   4.317 -0.1556 -0.3473 -0.1930
14726SOL     OW49115   4.275   4.083   0.680 -0.1114 -0.0929 -0.1618
14726SOL    HW149116   4.299   3.997   0.715  1.3742 -0.0865 -1.0866
14726SOL    HW249117   4.181   4.076   0.662  0.2526 -2.0766 -1.6503
14727SOL     OW49118   1.098  10.379   6.377 -0.4189 -0.0118  0.2523
14727SOL    HW149119   1.034  10.335   6.320 -1.0152 -0.7619  1.4465
14727SOL    HW249120   1.057  10.462   6.400 -0.3599  0.1089 -0.0735
14728SOL     OW49121  11.311   9.770   2.544  0.0828 -0.2677 -0.3010
14728SOL    HW149122  11.325   9.771   2.639  1.7920 -1.0227 -0.5143
14728SOL    HW249123  11.216   9.759   2.535 -0.1276 -0.1479  1.3108
14729SOL     OW49124   3.462  10.923   3.295  0.1058 -0.3293  0.9385
14729SOL    HW149125   3.412  10.956   3.220  0.1552 -1.7083  0.2551
14729SOL    HW249126   3.407  10.941   3.371 -1.5215 -1.8251  0.2058
14730SOL     OW49127   1.020   4.196   5.705  0.0379 -0.0260 -0.3019
14730SOL    HW149128   1.045   4.278   5.748  0.2843 -0.7635  0.9963
14730SOL    HW249129   1.031   4.129   5.772 -0.9466 -1.0223 -1.0987
14731SOL     OW49130   2.246   7.286   7.689  0.6445 -0.0655  0.0639
14731SOL    HW149131   2.256   7.202   7.735  0.8924 -0.7317 -1.1448
14731SOL    HW249132   2.331   7.329   7.701  0.6258 -0.1299  0.4337
14732SOL     OW49133   2.339   1.216   9.466 -0.1733  0.3073  0.7212
14732SOL    HW149134   2.309   1.164   9.541 -0.7669 -0.7883 -0.2641
14732SOL    HW249135   2.399   1.158   9.419 -0.4361  0.7044 -0.1076
14733SOL     OW49136   7.013   3.792   8.638 -0.2693  0.2880  0.1235
14733SOL    HW149137   7.010   3.832   8.725  0.3824  1.2876 -0.2974
14733SOL    HW249138   7.062   3.854   8.584 -0.2062 -0.5610 -0.8374
14734SOL     OW49139   4.839   4.835   3.895 -0.0373  0.2635 -0.0105
14734SOL    HW149140   4.793   4.831   3.811  0.4728  1.7625 -0.4077
14734SOL    HW249141   4.931   4.822   3.872 -0.1913 -2.7982  0.7865
14735SOL     OW49142   1.795  10.155   9.423  0.5464 -0.0486 -0.3227
14735SOL    HW149143   1.716  10.178   9.472  1.3512  1.6793  0.2455
14735SOL    HW249144   1.790  10.206   9.343  0.5579 -0.8071 -0.8221
14736SOL     OW49145   8.535   3.036  10.589 -0.3154  0.0686  0.2653
14736SOL    HW149146   8.531   3.113  10.533 -1.2748 -0.8320 -0.9622
14736SOL    HW249147   8.482   2.971  10.544 -2.5698 -0.1978  3.0639
14737SOL     OW49148   5.709   5.980   6.454  0.0352  0.5136 -0.1347
14737SOL    HW149149   5.714   6.070   6.487 -0.5752  0.0062  1.4609
14737SOL    HW249150   5.798   5.961   6.424  0.0690  1.7771 -0.8753
14738SOL     OW49151   4.533   7.784   0.948  0.5849  0.3284  0.1742
14738SOL    HW149152   4.504   7.699   0.982 -0.7685  0.5124 -0.4682
14738SOL    HW249153   4.468   7.847   0.979  0.6475  0.8689 -0.7364
14739SOL     OW49154  11.179   0.032   1.517  0.9476 -0.3377 -0.5427
14739SOL    HW149155  11.193   0.088   1.593 -2.5569 -1.1874  0.8961
14739SOL    HW249156  11.234  -0.045   1.533 -0.7918 -1.1620  1.9697
14740SOL     OW49157   3.775   5.700   9.404  0.1843  0.4320 -0.6987
14740SOL    HW149158   3.770   5.751   9.323  0.5379  0.4263 -0.7268
14740SOL    HW249159   3.786   5.765   9.473  1.6414  0.3649 -0.8317
14741SOL     OW49160   7.795   1.794   7.233  0.6485 -0.2534 -0.6301
14741SOL    HW149161   7.843   1.877   7.236 -0.3214  0.3169  2.2873
14741SOL    HW249162   7.703   1.819   7.238  0.3184 -1.4738 -0.3074
14742SOL     OW49163   4.830  11.594   4.472 -0.0764  0.2895  0.0202
14742SOL    HW149164   4.831  11.684   4.506 -0.8723  0.7034 -0.9998
14742SOL    HW249165   4.754  11.553   4.512  2.1357 -1.1265  3.2629
14743SOL     OW49166   3.214   1.444   3.149  0.5320 -0.2817 -0.4119
14743SOL    HW149167   3.306   1.451   3.124  0.6461  2.0444  0.4187
14743SOL    HW249168   3.204   1.504   3.223 -1.8613  0.3396 -1.1275
14744SOL     OW49169   4.093   0.587   6.273 -0.3661 -0.6142 -0.1693
14744SOL    HW149170   4.127   0.652   6.334  0.8482 -1.3895  0.0151
14744SOL    HW249171   4.000   0.610   6.263 -0.4567 -0.0966  1.4826
14745SOL     OW49172   2.696   1.622   4.070  0.5348  0.0352 -0.1950
14745SOL    HW149173   2.689   1.558   3.999 -0.6665 -0.6529  0.5135
14745SOL    HW249174   2.681   1.707   4.028  2.1040 -0.1042 -1.1420
14746SOL     OW49175   0.934   9.756   5.464 -0.5715  0.0920  0.0262
14746SOL    HW149176   0.981   9.835   5.490  0.0566 -0.5454  0.8849
14746SOL    HW249177   0.841   9.780   5.469 -0.4471  0.3503  1.7684
14747SOL     OW49178   4.094  10.033  10.982  0.2638 -0.1561  0.2807
14747SOL    HW149179   4.151  10.011  11.056 -0.4988  1.1574  1.3143
14747SOL    HW249180   4.036   9.957  10.972  0.7792 -0.5984  0.6326
14748SOL     OW49181   9.955   1.193  11.469  0.2678 -0.1468 -0.6734
14748SOL    HW149182   9.886   1.176  11.533 -0.6452 -2.7654 -2.2259
14748SOL    HW249183   9.910   1.194  11.385  1.7970  0.7495 -1.5293
14749SOL     OW49184  11.414   9.078   0.991  0.2671  0.5223 -0.4936
14749SOL    HW149185  11.349   9.147   1.003  0.8012  0.8484  0.6562
14749SOL    HW249186  11.467   9.107   0.917 -0.5144  0.5396 -1.0631
14750SOL     OW49187   0.204   9.896   8.440  0.3959 -0.1721  0.2787
14750SOL    HW149188   0.199   9.948   8.520 -2.0343  2.7806 -1.5843
14750SOL    HW249189   0.262   9.947   8.383  0.3287 -1.0660 -0.6033
14751SOL     OW49190   5.402   0.611  10.468  0.0881  0.4417  0.4087
14751SOL    HW149191   5.352   0.581  10.544 -0.4256  0.7039  0.1791
14751SOL    HW249192   5.349   0.584  10.393  1.0492 -0.6611  0.1044
14752SOL     OW49193  10.943  10.656   7.515 -0.1939  0.4402 -0.4013
14752SOL    HW149194  10.956  10.566   7.484 -3.1211  0.2290 -1.2998
14752SOL    HW249195  10.858  10.655   7.559 -0.6939  2.9056 -1.1206
14753SOL     OW49196   3.184   3.321   4.966 -0.4067  0.0982 -0.2310
14753SOL    HW149197   3.184   3.415   4.952  1.0214  0.2205  0.3565
14753SOL    HW249198   3.139   3.309   5.050  3.1882  0.7874  2.0499
14754SOL     OW49199   1.781   5.962   1.907  0.2536  0.1732  0.2657
14754SOL    HW149200   1.696   5.992   1.876 -0.0423  0.3459  1.2123
14754SOL    HW249201   1.809   5.896   1.843 -1.2661 -0.9834  0.7456
14755SOL     OW49202   8.619   6.609   9.155  0.4967 -0.3697  0.5958
14755SOL    HW149203   8.622   6.705   9.157 -0.8658 -0.2784 -0.2044
14755SOL    HW249204   8.561   6.585   9.226 -1.3696 -0.4010 -0.8533
14756SOL     OW49205  10.948   5.193   5.020  0.0464 -1.0501  0.5589
14756SOL    HW149206  11.026   5.248   5.028 -0.4178 -0.1246 -0.9800
14756SOL    HW249207  10.967   5.135   4.947 -1.1930  0.1007 -0.7389
14757SOL     OW49208   1.115   4.153  10.889  0.2990  0.6858  0.3341
14757SOL    HW149209   1.027   4.172  10.921 -0.0930  0.8074 -0.7901
14757SOL    HW249210   1.153   4.095  10.956 -0.7698  0.3236  0.6397
14758SOL     OW49211   7.181   4.095   7.920 -0.2245 -0.3365 -0.7134
14758SOL    HW149212   7.223   4.111   7.835 -2.7876 -0.4194 -2.1045
14758SOL    HW249213   7.135   4.177   7.940 -0.1499 -0.5300  0.3172
14759SOL     OW49214  11.398   7.785   4.882 -0.2911  0.8845 -0.3003
14759SOL    HW149215  11.423   7.870   4.920  0.0771  0.4986  0.3351
14759SOL    HW249216  11.396   7.726   4.957 -0.6107  0.3427 -0.7363
14760SOL     OW49217   4.090   0.708   6.686  0.0696 -0.2565  0.7474
14760SOL    HW149218   4.042   0.631   6.719 -2.1632  0.4049 -0.7329
14760SOL    HW249219   4.029   0.780   6.698  0.4980  0.5700 -1.6621
14761SOL     OW49220   8.591   2.473  10.352 -0.8097 -0.2069  0.1404
14761SOL    HW149221   8.568   2.479  10.445 -1.1038  0.2763  0.0391
14761SOL    HW249222   8.636   2.389  10.344 -1.3325 -0.5436  0.6059
14762SOL     OW49223   2.322  11.605   6.000  0.4054  0.0393 -0.0294
14762SOL    HW149224   2.290  11.547   6.068 -2.6509  1.4684 -0.1085
14762SOL    HW249225   2.327  11.550   5.922 -0.8113 -0.5283  0.2769
14763SOL     OW49226   1.967   8.637   6.335 -0.6542  0.3605  0.3530
14763SOL    HW149227   2.062   8.651   6.333 -0.8707  2.0519  0.3057
14763SOL    HW249228   1.950   8.582   6.259  0.1678  1.0219 -0.3414
14764SOL     OW49229  11.044   7.748  11.093 -0.1689 -0.0872  0.9647
14764SOL    HW149230  11.027   7.842  11.087  0.0486 -0.0577  0.8268
14764SOL    HW249231  10.957   7.708  11.091 -0.2612  0.1107  1.0355
14765SOL     OW49232   4.268   6.841   8.235 -0.4265 -0.1705 -0.5240
14765SOL    HW149233   4.356   6.878   8.223 -1.5180  2.5513 -0.8528
14765SOL    HW249234   4.225   6.854   8.151 -0.8892 -2.3893 -0.6853
14766SOL     OW49235   8.899   1.135   4.313 -0.2403  0.6194  0.1477
14766SOL    HW149236   8.985   1.176   4.300 -0.0780  0.5306  0.9193
14766SOL    HW249237   8.895   1.116   4.406 -1.3447  1.1358  0.2159
14767SOL     OW49238   3.988   6.051   7.774 -0.0318  0.4408 -0.3893
14767SOL    HW149239   3.968   6.142   7.754 -1.5641  0.2963  0.3499
14767SOL    HW249240   4.041   6.055   7.854 -0.8857  0.6571  0.1781
14768SOL     OW49241   8.844   1.155   5.522  0.0549 -0.5095  0.0969
14768SOL    HW149242   8.886   1.228   5.568 -0.8938 -0.3757  0.7622
14768SOL    HW249243   8.766   1.135   5.573 -0.3328 -1.2192 -0.7403
14769SOL     OW49244   3.933   1.599   8.659  1.0882 -0.4965 -0.1513
14769SOL    HW149245   3.841   1.615   8.636  0.9069  0.0800  0.8919
14769SOL    HW249246   3.928   1.538   8.733  1.5788 -1.0843 -0.6016
14770SOL     OW49247   2.837   9.409   8.252 -0.3054  0.6408 -0.3833
14770SOL    HW149248   2.901   9.416   8.181 -0.2567  1.8438 -0.2321
14770SOL    HW249249   2.789   9.328   8.232  1.2693 -0.3255 -0.4619
14771SOL     OW49250  11.576   0.301   7.761  0.3065 -0.3398 -0.1692
14771SOL    HW149251  11.558   0.334   7.673  1.2185 -0.1244 -0.2898
14771SOL    HW249252  11.645   0.235   7.748 -1.0941 -1.9347  0.1301
14772SOL     OW49253   9.946   6.330   3.195 -0.6278 -0.5061  0.1623
14772SOL    HW149254  10.028   6.346   3.148 -1.7852  0.9812 -1.5222
14772SOL    HW249255   9.932   6.409   3.246 -0.2851 -1.3895  1.6844
14773SOL     OW49256   5.349   5.002   2.808 -0.1903 -0.3144  0.3355
14773SOL    HW149257   5.416   5.024   2.874  0.6588 -1.8638  0.0339
14773SOL    HW249258   5.335   4.908   2.819 -1.2469 -0.2762 -0.6100
14774SOL     OW49259   1.908   7.365  10.089 -0.2339  0.1666 -0.5755
14774SOL    HW149260   1.910   7.442  10.031  0.8525  0.0770 -0.6804
14774SOL    HW249261   1.821   7.328  10.075  0.2980 -0.4026 -2.9251
14775SOL     OW49262   7.365   5.761   7.801 -0.0688  0.7725  0.0161
14775SOL    HW149263   7.441   5.792   7.751 -1.4170  1.3514 -1.7802
14775SOL    HW249264   7.326   5.694   7.745 -1.1254  0.7917  0.7113
14776SOL     OW49265   2.388   1.059   7.098  0.1301  0.1139 -0.0694
14776SOL    HW149266   2.301   1.058   7.058  0.8871  0.2788 -1.8081
14776SOL    HW249267   2.428   0.976   7.069  0.5108 -0.0253  0.8265
14777SOL     OW49268   6.033   4.250   7.599 -0.7261 -0.3014  0.2063
14777SOL    HW149269   5.991   4.228   7.683  1.3688  0.8333  1.6357
14777SOL    HW249270   6.079   4.170   7.574 -0.5340 -0.3384  0.6700
14778SOL     OW49271   6.527   0.761   5.399 -0.2370 -0.2218  0.2995
14778SOL    HW149272   6.450   0.812   5.372  0.2842  0.0286 -0.7949
14778SOL    HW249273   6.574   0.744   5.317 -0.2834 -2.3174  0.6595
14779SOL     OW49274  10.744   3.359   1.860  0.1458  0.1796 -0.5953
14779SOL    HW149275  10.713   3.445   1.890 -1.4192 -0.3110 -0.7399
14779SOL    HW249276  10.836   3.375   1.835  0.0128  1.7086 -0.2395
14780SOL     OW49277   2.003  10.254  10.896 -0.3192  1.0941  0.5759
14780SOL    HW149278   2.092  10.253  10.932 -0.5344 -0.7763  1.1738
14780SOL    HW249279   1.960  10.326  10.943  0.2846  0.6504  1.8670
14781SOL     OW49280   8.865   5.800   5.320  0.5990 -0.1634  0.2797
14781SOL    HW149281   8.803   5.777   5.390  1.2813 -1.6964  0.4166
14781SOL    HW249282   8.900   5.885   5.346 -0.1896 -0.0583  1.0677
14782SOL     OW49283   3.894   2.499   9.857  0.3398  0.0752  0.3296
14782SOL    HW149284   3.988   2.486   9.853  0.8606  3.1533 -3.3483
14782SOL    HW249285   3.858   2.425   9.808  1.0657  0.1997 -0.4081
14783SOL     OW49286   6.968   7.701   3.616 -0.1596 -0.1871 -0.7871
14783SOL    HW149287   6.971   7.640   3.542  1.4469 -0.3224 -0.6551
14783SOL    HW249288   7.058   7.734   3.622 -0.9967  2.2854 -0.9186
14784SOL     OW49289   7.440   8.063   7.812  0.3510  0.5079 -0.4334
14784SOL    HW149290   7.417   8.031   7.724 -0.7611 -2.2356  0.7294
14784SOL    HW249291   7.367   8.121   7.836 -1.1822 -1.4147 -0.1077
14785SOL     OW49292   6.094   9.311   7.674  0.2956  0.1465  0.2867
14785SOL    HW149293   6.172   9.269   7.637 -0.3311 -0.5244 -0.2988
14785SOL    HW249294   6.103   9.299   7.769  0.6633 -0.3575  0.1933
14786SOL     OW49295   4.089   9.822   2.068 -1.1211 -0.6586 -0.5837
14786SOL    HW149296   4.131   9.845   2.150 -1.8106 -2.5687  0.3741
14786SOL    HW249297   4.054   9.734   2.083 -0.1972 -1.5915 -3.3241
14787SOL     OW49298   4.015   8.169   8.754  0.2028  0.5340  0.2646
14787SOL    HW149299   4.041   8.135   8.669 -0.8627 -0.0555  0.1555
14787SOL    HW249300   4.049   8.259   8.756 -1.5065  1.3019 -1.6448
14788SOL     OW49301   1.483  10.358   8.754  0.6972  0.4543 -0.2804
14788SOL    HW149302   1.503  10.305   8.677  1.0799 -1.1272  0.8525
14788SOL    HW249303   1.524  10.443   8.737  1.8075 -0.2609 -1.2837
14789SOL     OW49304   1.718  10.386   5.657  0.3450 -0.0810 -0.1124
14789SOL    HW149305   1.645  10.324   5.661 -1.6266  2.1372  1.4410
14789SOL    HW249306   1.702  10.437   5.578  1.9745 -1.4640 -1.4024
14790SOL     OW49307   2.476   8.521   5.606 -0.1035  0.0924  0.4231
14790SOL    HW149308   2.544   8.589   5.607  0.2838 -0.2529 -0.7549
14790SOL    HW249309   2.525   8.439   5.621 -0.1043 -0.2546 -1.2715
14791SOL     OW49310   2.887   0.779   3.544 -0.2876  0.7846  0.0475
14791SOL    HW149311   2.848   0.704   3.589  2.3669 -1.7101 -1.4639
14791SOL    HW249312   2.841   0.784   3.460  0.3908 -0.0574 -0.3912
14792SOL     OW49313   4.752   2.291   7.193  0.3072  0.0048 -0.0951
14792SOL    HW149314   4.748   2.347   7.115  0.1287  1.7073  1.0924
14792SOL    HW249315   4.672   2.310   7.241  0.4446 -0.9920  0.5559
14793SOL     OW49316   4.222   0.202   6.845  0.4163 -0.7348 -0.3246
14793SOL    HW149317   4.143   0.237   6.886  1.5344  0.5010  0.8563
14793SOL    HW249318   4.256   0.139   6.908  1.3314  0.0587 -0.0118
14794SOL     OW49319   9.417   5.190   4.342  0.2478  0.0419  0.3990
14794SOL    HW149320   9.421   5.098   4.317 -0.4484  0.3619 -1.0106
14794SOL    HW249321   9.346   5.194   4.406  0.3992 -0.4353  0.5978
14795SOL     OW49322   6.355   6.782   1.910  0.2479 -0.2493  0.3190
14795SOL    HW149323   6.321   6.692   1.910 -1.5913  0.3833 -0.6531
14795SOL    HW249324   6.446   6.774   1.938  0.4937 -2.5614 -0.8787
14796SOL     OW49325   9.237   9.511   5.112 -0.2459 -0.0842  0.4490
14796SOL    HW149326   9.220   9.472   5.026 -0.6043  0.2713  0.3573
14796SOL    HW249327   9.291   9.588   5.094  1.6081 -1.2536  0.7454
14797SOL     OW49328   6.051   1.331   0.244 -0.1650 -0.0027  0.3265
14797SOL    HW149329   5.958   1.309   0.239 -0.2470  0.5157 -0.5547
14797SOL    HW249330   6.053   1.424   0.268  0.0565  0.6356 -1.9247
14798SOL     OW49331   4.135   5.626   3.967  0.4191 -0.6001 -0.3618
14798SOL    HW149332   4.065   5.627   3.902  1.3402  0.1437 -1.3875
14798SOL    HW249333   4.126   5.709   4.014  0.5618 -0.5420 -0.4374
14799SOL     OW49334   9.218   9.165   3.674 -0.0157 -0.0629 -0.2242
14799SOL    HW149335   9.234   9.259   3.683 -1.8509  0.1239  2.5245
14799SOL    HW249336   9.143   9.159   3.615 -0.4238  0.2853  0.2517
14800SOL     OW49337   0.763   3.014   3.764  0.1379 -0.0065  0.0452
14800SOL    HW149338   0.678   2.994   3.804  0.1826  0.5738  0.4410
14800SOL    HW249339   0.813   2.933   3.773  0.6849  0.5177  2.5873
14801SOL     OW49340   5.338   9.097   0.466 -0.2976  0.3080 -0.2031
14801SOL    HW149341   5.384   9.030   0.517 -1.8420  1.3378  2.8054
14801SOL    HW249342   5.401   9.169   0.460  0.6038 -0.5624 -1.5677
14802SOL     OW49343   4.874   4.824   1.622 -0.1865 -1.1368  0.0047
14802SOL    HW149344   4.846   4.898   1.675 -1.8281 -2.5195  1.1653
14802SOL    HW249345   4.968   4.816   1.640 -0.3800 -0.5471  1.4170
14803SOL     OW49346   1.971   6.299   9.332 -0.2105 -0.1203 -0.0661
14803SOL    HW149347   1.933   6.252   9.258 -0.9366 -3.2587  2.1232
14803SOL    HW249348   2.064   6.279   9.329 -0.3478 -0.8395  0.2169
14804SOL     OW49349   0.785  10.074  10.716  0.2035  0.3633  0.1023
14804SOL    HW149350   0.811  10.053  10.626  2.3076 -0.2625  0.8172
14804SOL    HW249351   0.832  10.155  10.736  0.0999  0.2564  0.7873
14805SOL     OW49352  10.210  10.522   6.439  0.0715  0.0043  0.0217
14805SOL    HW149353  10.116  10.533   6.426  0.0633  1.4985  1.0876
14805SOL    HW249354  10.250  10.593   6.388  0.6081 -0.4518 -0.2020
14806SOL     OW49355   6.640   0.935   1.686 -0.2235  0.2507 -0.1173
14806SOL    HW149356   6.550   0.957   1.661 -0.5732 -0.5227  0.4540
14806SOL    HW249357   6.682   1.020   1.700 -0.2095  0.7236 -2.5978
14807SOL     OW49358   4.599   8.327  11.469 -0.6514 -0.1982 -0.7484
14807SOL    HW149359   4.684   8.285  11.453 -1.1751 -1.4812 -0.3274
14807SOL    HW249360   4.610   8.417  11.437  1.4228  0.2283  0.9427
14808SOL     OW49361   4.436   0.124   7.461  0.2176 -0.1878 -0.0197
14808SOL    HW149362   4.525   0.092   7.445 -0.5938 -2.4153 -0.4486
14808SOL    HW249363   4.411   0.084   7.544 -0.4552  0.2445 -0.0110
14809SOL     OW49364   2.545  10.703  10.564 -0.3982  0.6184  0.1335
14809SOL    HW149365   2.563  10.612  10.584 -2.8849 -0.7926 -3.0530
14809SOL    HW249366   2.616  10.730  10.506 -0.6996  0.0054 -0.5337
14810SOL     OW49367   5.679   1.719  11.122  0.2477  0.0607  0.1778
14810SOL    HW149368   5.693   1.781  11.193  0.4509 -0.1009  0.2806
14810SOL    HW249369   5.743   1.745  11.055  0.9827 -0.6083  0.6008
14811SOL     OW49370   3.356   9.942   8.784 -0.1043 -0.4976 -0.0531
14811SOL    HW149371   3.372   9.903   8.870 -0.1883  0.0219  0.1999
14811SOL    HW249372   3.305   9.875   8.737 -2.6134  0.3442  1.2966
14812SOL     OW49373   4.083  10.646  10.958  0.1030  0.0972  0.0735
14812SOL    HW149374   4.173  10.614  10.948  0.4738  0.5934  1.4754
14812SOL    HW249375   4.029  10.568  10.947  0.4862  0.1564 -3.0722
14813SOL     OW49376   5.733   9.094   1.473  0.9428  0.7358 -0.6437
14813SOL    HW149377   5.677   9.090   1.550  1.7604  0.7715 -0.0273
14813SOL    HW249378   5.673   9.092   1.398  0.1521  0.5049 -0.0086
14814SOL     OW49379  10.260   5.330   5.318 -0.3291 -0.6240  0.8602
14814SOL    HW149380  10.287   5.238   5.319 -1.1095 -0.8708  0.4677
14814SOL    HW249381  10.177   5.330   5.270  0.3898  0.4945 -0.4434
14815SOL     OW49382   3.175   2.445   2.655 -0.8140 -0.3050  0.3488
14815SOL    HW149383   3.121   2.458   2.577 -3.0788 -3.2109  1.2180
14815SOL    HW249384   3.142   2.508   2.719 -1.3320 -0.2200  0.0012
14816SOL     OW49385   3.268   8.727   3.732  0.3563  0.0948 -0.9385
14816SOL    HW149386   3.175   8.744   3.719  0.0877  0.0951  0.7394
14816SOL    HW249387   3.272   8.638   3.768  1.0566 -0.1193 -1.5184
14817SOL     OW49388   5.976   3.518  10.723 -0.3129  0.0096  0.0677
14817SOL    HW149389   5.903   3.563  10.680 -0.1469 -0.0616 -0.2864
14817SOL    HW249390   5.946   3.506  10.814 -0.7965 -0.1400 -0.1081
14818SOL     OW49391   8.196   2.641   7.547 -0.7887  0.3349 -0.2779
14818SOL    HW149392   8.170   2.703   7.616  1.3193  0.2432  0.6671
14818SOL    HW249393   8.175   2.555   7.583  1.7350  0.1701  1.0419
14819SOL     OW49394   0.697   2.345   1.016 -0.2854  0.3385 -0.2974
14819SOL    HW149395   0.698   2.437   1.045  4.2433 -0.5072  3.5005
14819SOL    HW249396   0.651   2.298   1.086 -0.4985 -0.5294 -1.0077
14820SOL     OW49397   7.713   8.925   5.716  0.0338  0.7027 -0.7832
14820SOL    HW149398   7.797   8.965   5.736  1.1797 -0.2978 -3.1825
14820SOL    HW249399   7.735   8.844   5.670 -2.2448 -0.7204  0.4669
14821SOL     OW49400   1.405   4.553   0.722 -0.3759 -0.3590 -0.3229
14821SOL    HW149401   1.422   4.461   0.702 -0.0007 -0.0972 -1.2963
14821SOL    HW249402   1.422   4.599   0.639 -1.8080  0.4336 -0.2050
14822SOL     OW49403   8.609   3.672   8.091 -0.0201  0.4898 -0.4933
14822SOL    HW149404   8.564   3.721   8.022  0.0313  0.1939 -0.7410
14822SOL    HW249405   8.580   3.713   8.172 -0.2061  0.7404 -0.6824
14823SOL     OW49406   1.780   0.197   4.257  0.3510  0.0869  0.1410
14823SOL    HW149407   1.810   0.275   4.304  0.4170  0.6328 -0.7820
14823SOL    HW249408   1.725   0.231   4.187 -0.6119 -0.7737  0.4448
14824SOL     OW49409   6.257   8.377   5.644  0.3953 -0.1319  0.1091
14824SOL    HW149410   6.331   8.436   5.629 -1.7156  2.8555  0.6220
14824SOL    HW249411   6.278   8.334   5.727  2.6826 -1.3367 -1.0055
14825SOL     OW49412   3.309   4.248   3.414  0.0708  0.4048 -0.1281
14825SOL    HW149413   3.344   4.196   3.342  0.1378  0.5024 -0.1653
14825SOL    HW249414   3.376   4.245   3.481 -0.0053  0.2865 -0.0560
14826SOL     OW49415  10.065   8.642   3.963 -0.6468 -0.1333 -0.1778
14826SOL    HW149416  10.063   8.546   3.966  2.2407 -0.2716  1.4719
14826SOL    HW249417  10.112   8.661   3.881 -1.4784 -0.0844 -0.6537
14827SOL     OW49418   4.982   1.862   4.766 -0.3270  0.3002  0.0749
14827SOL    HW149419   4.933   1.922   4.710  0.3566  0.7025 -0.1038
14827SOL    HW249420   5.067   1.852   4.722  0.7121  1.6136  1.6482
14828SOL     OW49421   7.431   8.073  10.855  0.1102  0.6963  0.1364
14828SOL    HW149422   7.461   8.073  10.764 -0.1583 -0.9382  0.0243
14828SOL    HW249423   7.364   8.004  10.858  0.1276  0.7238  1.5795
14829SOL     OW49424   6.573   7.267   6.367  0.7138 -0.0023  0.0840
14829SOL    HW149425   6.615   7.285   6.283  0.4140  0.0485 -0.0537
14829SOL    HW249426   6.532   7.349   6.392 -0.4679 -0.4195 -0.4411
14830SOL     OW49427  10.651   5.130   9.728 -0.4877  0.1616 -0.0523
14830SOL    HW149428  10.698   5.205   9.691  1.0603  0.0688  1.5533
14830SOL    HW249429  10.587   5.168   9.788 -1.1052  0.2409 -0.7584
14831SOL     OW49430   5.247   9.885   3.530  0.1334  0.2558  0.4933
14831SOL    HW149431   5.284   9.797   3.521 -1.2622 -0.4730  1.5249
14831SOL    HW249432   5.319   9.937   3.566  1.2118 -0.2569 -0.8663
14832SOL     OW49433  10.137   7.667   2.311  0.3089  0.0132  0.7256
14832SOL    HW149434  10.052   7.645   2.272  0.1751  0.2174  0.8996
14832SOL    HW249435  10.123   7.657   2.405  0.1991  0.9836  0.8228
14833SOL     OW49436   7.803   1.161   3.396 -0.2482 -0.4090  0.0449
14833SOL    HW149437   7.790   1.179   3.303  0.2292 -1.8728 -0.3404
14833SOL    HW249438   7.772   1.071   3.407  1.7856 -1.0940  0.7914
14834SOL     OW49439   2.362   6.342  10.044  0.4798 -0.2005 -0.2610
14834SOL    HW149440   2.387   6.399  10.117 -0.6262 -0.2461  0.1757
14834SOL    HW249441   2.335   6.260  10.085  2.0049 -1.0541 -0.8817
14835SOL     OW49442  11.334   8.677  10.885 -0.4485  0.2322  0.2268
14835SOL    HW149443  11.408   8.636  10.840 -0.3192  0.7420 -0.0376
14835SOL    HW249444  11.273   8.605  10.901  0.7030 -0.4869  1.7373
14836SOL     OW49445   7.375  10.209   1.759 -0.2230 -0.1257 -0.2083
14836SOL    HW149446   7.309  10.241   1.697 -1.1630 -0.7453  0.4402
14836SOL    HW249447   7.325  10.160   1.824  0.7928  0.1282  0.8008
14837SOL     OW49448   8.639   2.933   1.836  0.7000 -0.1007  0.2257
14837SOL    HW149449   8.607   2.871   1.770  0.3101 -0.0197  0.3325
14837SOL    HW249450   8.563   2.988   1.855  1.4329  1.4094 -0.9865
14838SOL     OW49451   3.497   8.548   1.565 -0.1920  0.4080 -0.3553
14838SOL    HW149452   3.439   8.535   1.491 -1.2407 -0.5762  0.5934
14838SOL    HW249453   3.581   8.572   1.526 -0.3545 -1.3562 -1.9333
14839SOL     OW49454   9.570   1.964   2.233  0.1538  0.2926 -0.3155
14839SOL    HW149455   9.661   1.972   2.262 -0.3251  1.3870  1.0549
14839SOL    HW249456   9.555   2.044   2.182 -0.7311  1.4794  1.6743
14840SOL     OW49457   0.794   2.967   9.894  0.3942  0.0151 -0.1167
14840SOL    HW149458   0.877   2.966   9.847 -0.0290  2.9738 -1.1104
14840SOL    HW249459   0.729   2.939   9.829  0.2181  1.0310 -0.3996
14841SOL     OW49460   4.725   7.635   1.314  0.3518  0.2112  0.2657
14841SOL    HW149461   4.664   7.708   1.319  0.1754  0.1287 -0.5540
14841SOL    HW249462   4.806   7.673   1.280 -0.1696 -0.1926 -1.5688
14842SOL     OW49463   1.920   8.997   7.559 -0.2516 -0.5774 -0.2257
14842SOL    HW149464   1.850   9.054   7.526  0.6643  0.3387 -0.6322
14842SOL    HW249465   1.956   8.956   7.481 -1.8658 -2.9330  0.1687
14843SOL     OW49466   4.123   2.080   2.587 -0.1064 -0.0221  0.4052
14843SOL    HW149467   4.184   2.153   2.597 -1.4788  1.1928  0.2392
14843SOL    HW249468   4.125   2.060   2.494  0.4012 -0.3452  0.4767
14844SOL     OW49469   3.088   8.470   5.587 -0.3243 -0.1057 -0.2836
14844SOL    HW149470   3.027   8.409   5.628  1.8796 -0.8016  2.1740
14844SOL    HW249471   3.143   8.416   5.531  0.6733 -0.1837  0.7442
14845SOL     OW49472  10.361  11.342   1.830  0.0002 -0.2816 -0.5031
14845SOL    HW149473  10.362  11.249   1.810  0.4755 -0.1558 -1.1076
14845SOL    HW249474  10.453  11.363   1.850  0.0620  0.2346 -1.2692
14846SOL     OW49475   7.299   5.858  10.581  0.3788 -0.1903  0.1803
14846SOL    HW149476   7.332   5.926  10.522  1.3072 -0.6576  0.1489
14846SOL    HW249477   7.205   5.855  10.563  0.7668 -0.9254 -1.9224
14847SOL     OW49478   1.603   1.855   7.033 -0.1343  0.3420  0.2395
14847SOL    HW149479   1.640   1.903   6.959  1.3311  0.1530  0.8252
14847SOL    HW249480   1.664   1.870   7.104 -1.1376 -0.0958  1.2172
14848SOL     OW49481   8.929   4.704   9.943 -0.2937 -0.6517 -0.0357
14848SOL    HW149482   8.987   4.772   9.975  0.4282 -0.7785 -1.0290
14848SOL    HW249483   8.988   4.634   9.913 -0.8965 -0.4256 -1.8677
14849SOL     OW49484   1.516   7.444   5.222  0.4527 -0.5036 -0.2646
14849SOL    HW149485   1.477   7.402   5.299  2.8502  0.0482  1.3823
14849SOL    HW249486   1.468   7.526   5.212 -0.5413 -1.0416  0.0275
14850SOL     OW49487   7.361   9.146   6.128 -0.3130 -0.1369  0.0948
14850SOL    HW149488   7.420   9.119   6.057  0.4011  0.2456  0.5290
14850SOL    HW249489   7.288   9.188   6.083 -0.3779 -0.8324 -0.4710
14851SOL     OW49490   9.701   4.446   0.653 -0.2558 -0.2661  0.2703
14851SOL    HW149491   9.735   4.535   0.659  2.8337 -1.2962 -0.1252
14851SOL    HW249492   9.712   4.422   0.561 -2.9705 -0.4433 -0.0789
14852SOL     OW49493   4.372   0.652  10.076 -0.5663  0.5133  0.2477
14852SOL    HW149494   4.452   0.643  10.025 -0.3499 -0.2866  0.7046
14852SOL    HW249495   4.343   0.741  10.061  0.1481  0.6568 -0.3110
14853SOL     OW49496   6.245   0.679   9.274  0.6406  0.0702 -0.1614
14853SOL    HW149497   6.189   0.709   9.202 -0.3620 -0.1709  0.4942
14853SOL    HW249498   6.287   0.758   9.307 -0.4908  0.4939  0.3119
14854SOL     OW49499   2.712   3.253   4.621  0.0990  0.4482 -0.1173
14854SOL    HW149500   2.754   3.167   4.621 -3.3173 -1.4248 -0.7973
14854SOL    HW249501   2.729   3.288   4.534  1.9846  0.7937  0.3475
14855SOL     OW49502   2.699   4.937   2.902 -0.0539 -0.3757 -0.4036
14855SOL    HW149503   2.729   4.959   2.990 -1.0338  0.6425 -0.3123
14855SOL    HW249504   2.778   4.943   2.847  0.1973  0.8404  0.0770
14856SOL     OW49505   8.085   0.109   0.085 -0.7990 -0.2333 -0.2293
14856SOL    HW149506   8.178   0.087   0.092 -0.5442  0.8933  0.1131
14856SOL    HW249507   8.080   0.165   0.008 -1.4053 -1.2752 -0.9713
14857SOL     OW49508   6.725   9.830   7.299 -0.0710 -0.5169  0.4850
14857SOL    HW149509   6.678   9.752   7.269  0.7888 -0.8026 -0.1484
14857SOL    HW249510   6.701   9.898   7.237  1.4516 -1.0273 -0.7258
14858SOL     OW49511   6.201   3.834  10.341 -0.4520  0.2756  0.5753
14858SOL    HW149512   6.278   3.876  10.380 -0.9684  1.0088  0.8414
14858SOL    HW249513   6.178   3.890  10.267 -1.3904  0.6981  1.1760
14859SOL     OW49514   1.025   5.201   6.975 -0.9927  0.6511  0.0611
14859SOL    HW149515   1.052   5.119   6.933 -1.6136 -0.0541  0.9894
14859SOL    HW249516   0.938   5.219   6.940 -0.9238  0.8242 -0.0212
14860SOL     OW49517   0.644   5.784   9.879  0.5718 -0.3080 -0.5183
14860SOL    HW149518   0.621   5.708   9.931 -0.9221  0.0674 -0.5817
14860SOL    HW249519   0.715   5.754   9.822  0.8574 -1.2742  0.3202
14861SOL     OW49520   5.450   8.348   2.440 -0.2488 -0.3609  0.5232
14861SOL    HW149521   5.501   8.269   2.459 -1.0457  0.0601  5.9624
14861SOL    HW249522   5.515   8.416   2.424  0.8173 -0.8793  2.3300
14862SOL     OW49523   3.920   3.095   6.029  0.3528 -0.0053  0.1440
14862SOL    HW149524   3.841   3.049   6.057  1.7059 -2.5897 -0.0046
14862SOL    HW249525   3.988   3.064   6.088  1.3331  2.0592  0.1784
14863SOL     OW49526   9.363   1.305   5.989  0.1712  0.1289 -0.4140
14863SOL    HW149527   9.432   1.339   5.931 -1.6731  0.6101 -2.4386
14863SOL    HW249528   9.310   1.382   6.011  1.0549  0.0550  2.4016
14864SOL     OW49529   8.782   9.949   5.163  0.2692 -0.3125  0.4282
14864SOL    HW149530   8.765   9.896   5.241  0.0905 -0.6230  0.1799
14864SOL    HW249531   8.696   9.958   5.121  0.4460 -0.5557  0.0093
14865SOL     OW49532   8.162   2.601  10.292  0.1257 -0.2114 -0.4237
14865SOL    HW149533   8.224   2.536  10.325 -0.0060 -0.2840 -0.3199
14865SOL    HW249534   8.207   2.641  10.218  0.9165  0.7693  0.5501
14866SOL     OW49535   4.283   7.758   5.475  0.1594  0.1003 -0.3140
14866SOL    HW149536   4.347   7.710   5.423 -0.2313  0.5148 -1.2011
14866SOL    HW249537   4.203   7.704   5.470  0.0097  0.3355 -0.4748
14867SOL     OW49538  11.636   2.775   9.579  0.0092 -0.0952 -0.0222
14867SOL    HW149539  11.715   2.826   9.597  1.2573 -1.9994  0.1404
14867SOL    HW249540  11.591   2.825   9.510  0.8700  1.4816  0.5098
14868SOL     OW49541   7.771   1.304   7.585 -0.1148 -0.3316  0.1650
14868SOL    HW149542   7.736   1.282   7.672 -0.7040  0.4006  0.1224
14868SOL    HW249543   7.763   1.399   7.580  1.8527 -0.1357  0.1236
14869SOL     OW49544   2.531   4.621  10.414 -0.4211 -0.0368  0.1265
14869SOL    HW149545   2.585   4.627  10.493  1.5116 -0.8115 -1.0953
14869SOL    HW249546   2.441   4.619  10.448  0.3824 -2.9756  2.5190
14870SOL     OW49547   6.993   6.495  10.484  0.2296 -0.1636  0.3087
14870SOL    HW149548   6.988   6.497  10.580 -0.9817 -0.7002  0.2754
14870SOL    HW249549   7.085   6.478  10.465  0.3029 -1.0609  1.3952
14871SOL     OW49550   6.392   8.267   5.867  0.7909 -0.2456  0.6722
14871SOL    HW149551   6.463   8.266   5.931 -0.4541 -0.6226  2.0854
14871SOL    HW249552   6.380   8.175   5.842  0.7672 -0.1858  0.4582
14872SOL     OW49553  10.575   9.117  10.354  0.2426  0.3971 -0.3126
14872SOL    HW149554  10.495   9.166  10.372  0.3185 -0.0254  1.3654
14872SOL    HW249555  10.644   9.184  10.358  0.0323  0.6819 -1.2878
14873SOL     OW49556   7.824   7.470   5.999 -0.1153  0.3512  0.3597
14873SOL    HW149557   7.819   7.388   6.048 -2.7939  0.7178  0.8492
14873SOL    HW249558   7.787   7.536   6.057 -0.3998  1.4090 -0.9557
14874SOL     OW49559   9.462   6.892   8.341  0.4884 -0.7820 -0.0620
14874SOL    HW149560   9.502   6.972   8.376  2.4701 -0.8811 -1.9007
14874SOL    HW249561   9.534   6.845   8.300 -0.9345 -2.7537 -0.4369
14875SOL     OW49562   9.592   8.682   0.341 -0.5765 -0.4124 -0.1058
14875SOL    HW149563   9.574   8.633   0.260 -0.8539  1.0236 -0.9504
14875SOL    HW249564   9.644   8.621   0.394 -1.5551 -1.8859 -0.7725
14876SOL     OW49565   0.574   2.453   6.636  0.0621  0.5576 -0.1982
14876SOL    HW149566   0.668   2.462   6.648  0.3511  1.3674 -2.6192
14876SOL    HW249567   0.537   2.467   6.723  2.0221  2.6095  0.3767
14877SOL     OW49568   4.481   9.335  11.001  0.1796  0.0316 -0.2483
14877SOL    HW149569   4.574   9.348  11.022  0.1575  0.8475 -0.5968
14877SOL    HW249570   4.434   9.384  11.069 -0.0081 -0.5542  0.0498
14878SOL     OW49571   7.582   8.265  10.013 -0.0181  0.2974 -0.2294
14878SOL    HW149572   7.588   8.189  10.071 -1.5697  0.3417  0.0431
14878SOL    HW249573   7.488   8.272   9.993  0.2108  1.6303 -0.9490
14879SOL     OW49574   6.500   8.680   3.510  0.6142 -0.0896 -0.0977
14879SOL    HW149575   6.466   8.711   3.426 -2.6104 -1.5907  0.4837
14879SOL    HW249576   6.451   8.730   3.576  1.0214 -0.8972  0.8470
14880SOL     OW49577   1.403   6.804  11.155 -0.1484 -0.0179 -0.0454
14880SOL    HW149578   1.393   6.848  11.240 -0.1183 -1.4256  0.7238
14880SOL    HW249579   1.313   6.781  11.130 -0.0927 -0.2531 -0.0282
14881SOL     OW49580   4.905   3.873   3.117  0.1970 -0.4244 -0.1627
14881SOL    HW149581   4.971   3.938   3.093 -1.6106  1.7046  0.2146
14881SOL    HW249582   4.954   3.793   3.133  2.4853  0.6427 -1.3374
14882SOL     OW49583   1.397   2.470   9.186  0.2936 -0.3447  0.0762
14882SOL    HW149584   1.493   2.472   9.193  0.2372 -0.9528  1.3872
14882SOL    HW249585   1.373   2.379   9.204 -0.4663 -0.4908 -1.5490
14883SOL     OW49586   1.444   2.963   0.496  0.3967 -0.0180  0.3669
14883SOL    HW149587   1.368   2.915   0.527  0.9625 -0.4643  1.0899
14883SOL    HW249588   1.435   3.050   0.536 -2.1985  1.6128 -3.2616
14884SOL     OW49589   9.505   1.487  10.090  0.0255  0.4242  0.4674
14884SOL    HW149590   9.560   1.425  10.042  0.5610 -1.3646  3.2045
14884SOL    HW249591   9.480   1.552  10.024  0.7792 -1.7766 -2.1623
14885SOL     OW49592   6.347   1.724   3.916  0.0944 -0.1692 -0.0678
14885SOL    HW149593   6.349   1.754   4.006  1.0896  0.1170 -0.1801
14885SOL    HW249594   6.298   1.641   3.920 -1.6470  0.8296  0.4044
14886SOL     OW49595   7.425   0.234   9.165  0.2727  0.3315  0.5651
14886SOL    HW149596   7.373   0.303   9.207  0.8718  0.7498  0.6386
14886SOL    HW249597   7.458   0.182   9.238 -0.1542 -0.0212  0.5106
14887SOL     OW49598   5.885  10.613   2.638 -0.2276  0.1163 -0.6762
14887SOL    HW149599   5.859  10.672   2.568  1.2947  1.1494 -0.4142
14887SOL    HW249600   5.973  10.584   2.614 -0.5055 -1.1694 -0.2284
14888SOL     OW49601   5.767   6.282  10.715  0.0311 -0.5989 -0.2767
14888SOL    HW149602   5.824   6.335  10.659 -0.9792  0.4550 -0.3514
14888SOL    HW249603   5.678   6.301  10.683 -0.4013 -1.8159  0.1583
14889SOL     OW49604   5.367   4.047   8.994 -0.5833 -0.3755 -0.3441
14889SOL    HW149605   5.362   4.092   8.910 -0.1888 -1.9666 -1.2683
14889SOL    HW249606   5.448   3.997   8.989  0.8667  1.4807  2.0655
14890SOL     OW49607   3.848   6.492   2.024 -0.5260  0.0512  1.0040
14890SOL    HW149608   3.859   6.468   2.116 -1.3547 -2.0154  0.6257
14890SOL    HW249609   3.759   6.528   2.019 -0.2012  0.8996  1.1200
14891SOL     OW49610   2.111  11.534   4.014  0.3611 -0.3056 -0.2611
14891SOL    HW149611   2.153  11.516   4.099 -0.7135  0.3936  0.4440
14891SOL    HW249612   2.026  11.571   4.037 -0.3575 -1.0013 -1.6488
14892SOL     OW49613   3.972   1.934  11.329  0.0380 -0.7222 -0.6305
14892SOL    HW149614   4.037   1.886  11.277 -2.1479 -1.6937 -2.6736
14892SOL    HW249615   3.889   1.918  11.283 -1.4139  1.7605  0.9306
14893SOL     OW49616   5.099   8.456   0.668  0.3107  0.3136  0.3262
14893SOL    HW149617   5.021   8.510   0.682  0.0189 -0.2768  1.0609
14893SOL    HW249618   5.065   8.370   0.644  0.7833  0.6391 -1.6724
14894SOL     OW49619   3.503   4.360   2.956  0.1567 -0.0073  0.7126
14894SOL    HW149620   3.470   4.314   2.879  0.1330  1.0512  0.0613
14894SOL    HW249621   3.435   4.347   3.023 -1.2666  1.4537 -0.3542
14895SOL     OW49622  10.222  10.489   5.718 -0.1095  0.1241 -0.0594
14895SOL    HW149623  10.199  10.435   5.642 -1.8975  0.3627  0.2705
14895SOL    HW249624  10.299  10.445   5.755  0.5008 -0.2818 -1.6817
14896SOL     OW49625   9.570   5.616   4.393  0.0541 -0.2257 -0.3154
14896SOL    HW149626   9.491   5.570   4.365 -0.7422  1.4105 -0.9155
14896SOL    HW249627   9.538   5.695   4.437  1.3574 -0.6647  1.5287
14897SOL     OW49628   1.622   7.509   6.136 -0.1455  0.2023 -0.3822
14897SOL    HW149629   1.688   7.454   6.179 -1.2475 -0.3318  0.6641
14897SOL    HW249630   1.640   7.597   6.168 -0.0885  0.0232  0.0859
14898SOL     OW49631   6.787   1.071   3.097  0.4245 -0.1256  0.0048
14898SOL    HW149632   6.762   1.138   3.033 -0.5300  0.8239  1.3455
14898SOL    HW249633   6.709   1.018   3.108 -0.1183  1.0077  1.9403
14899SOL     OW49634   2.008   8.175  10.632 -0.4665 -0.7390  0.4130
14899SOL    HW149635   2.088   8.186  10.580  0.0909 -3.6543  0.4531
14899SOL    HW249636   2.018   8.235  10.705 -0.0937  1.6460 -1.4892
14900SOL     OW49637  10.581   6.135   2.846  0.2905  0.3611  0.2248
14900SOL    HW149638  10.519   6.207   2.833  0.8473  0.9001  0.5268
14900SOL    HW249639  10.536   6.059   2.811 -0.7734  0.6425  0.9377
14901SOL     OW49640   8.108  10.157   6.883 -0.7731  0.1674  0.1289
14901SOL    HW149641   8.100  10.250   6.863 -0.9532  0.1923  0.3216
14901SOL    HW249642   8.056  10.113   6.815  0.1010  0.1466 -0.5572
14902SOL     OW49643   9.987   0.125   6.571  0.7167 -0.1789 -0.2600
14902SOL    HW149644   9.969   0.082   6.487 -0.2441 -0.3098 -0.0057
14902SOL    HW249645   9.905   0.170   6.592  0.7856 -0.5439  0.8408
14903SOL     OW49646  10.461  11.663   1.833 -0.0729  0.0339  0.0158
14903SOL    HW149647  10.417  11.582   1.859  2.1698 -0.5721  2.4161
14903SOL    HW249648  10.534  11.634   1.779 -0.8607  0.7768 -1.5157
14904SOL     OW49649   3.719   7.111  11.142  0.0903  0.8037  0.0494
14904SOL    HW149650   3.682   7.199  11.133 -1.4852  0.3084  1.2388
14904SOL    HW249651   3.675   7.074  11.219  1.6162 -0.5952  0.3211
14905SOL     OW49652   7.431   8.445   5.660 -0.2625  0.2708 -0.2172
14905SOL    HW149653   7.438   8.454   5.565 -3.2346  0.9458 -0.4729
14905SOL    HW249654   7.398   8.356   5.673 -1.0355  0.5940  0.0771
14906SOL     OW49655   4.964   7.295   8.597  0.2931 -0.3656  0.9312
14906SOL    HW149656   4.993   7.304   8.506 -0.4284 -0.9912  0.6267
14906SOL    HW249657   4.875   7.259   8.590 -0.3115  0.8581  1.8519
14907SOL     OW49658   1.782   2.587  10.661 -0.0764 -0.3872  0.7279
14907SOL    HW149659   1.838   2.618  10.732  1.0253  0.0266 -0.2915
14907SOL    HW249660   1.833   2.602  10.581 -1.4836 -0.3507 -0.2111
14908SOL     OW49661   0.297  11.562   9.650 -0.0797  0.0838  0.9492
14908SOL    HW149662   0.228  11.496   9.637  0.3683 -0.3081  0.4921
14908SOL    HW249663   0.337  11.571   9.563  0.8161 -0.1103  1.3405
14909SOL     OW49664  11.082  11.231   9.125  0.4931  0.0233 -0.2070
14909SOL    HW149665  11.147  11.297   9.148  0.9090 -0.6538  0.6125
14909SOL    HW249666  11.025  11.225   9.202 -0.0927  0.0830 -0.6324
14910SOL     OW49667   9.166   4.018   6.601 -0.5870  0.2757 -0.8427
14910SOL    HW149668   9.209   4.015   6.686 -0.6529 -0.2442 -0.8243
14910SOL    HW249669   9.238   4.029   6.538 -0.4205 -0.5382 -0.8073
14911SOL     OW49670   5.550   3.076   7.772  0.4562  0.1011 -0.2702
14911SOL    HW149671   5.627   3.026   7.742  0.3464 -1.0298  1.2001
14911SOL    HW249672   5.576   3.112   7.856 -0.5339 -0.0713  0.1227
14912SOL     OW49673   5.898   5.871   2.557 -0.4230 -0.1022 -0.0951
14912SOL    HW149674   5.970   5.929   2.533  0.0178 -0.7032 -0.2589
14912SOL    HW249675   5.830   5.929   2.591 -0.6868  0.6820 -1.8815
14913SOL     OW49676   9.951  10.755   1.516 -0.1444  0.3890  0.1366
14913SOL    HW149677   9.931  10.675   1.468 -0.5657  0.5030  0.1180
14913SOL    HW249678   9.978  10.817   1.449 -2.1057  0.9923 -0.1547
14914SOL     OW49679   3.837   0.295   1.671 -0.0251 -0.0879 -0.6187
14914SOL    HW149680   3.815   0.288   1.763  0.5035 -0.2819 -0.5061
14914SOL    HW249681   3.763   0.343   1.632  0.4693  1.3665  0.1777
14915SOL     OW49682   7.612   9.734   7.474  0.5290  0.7662 -0.2758
14915SOL    HW149683   7.575   9.751   7.561  0.9430 -0.4222  0.1492
14915SOL    HW249684   7.575   9.650   7.448  1.3167  0.5475 -0.7304
14916SOL     OW49685   8.518  11.539   4.399 -0.7252  0.2320  0.2284
14916SOL    HW149686   8.487  11.456   4.362 -0.0013  0.5789 -1.2276
14916SOL    HW249687   8.452  11.603   4.373 -0.3092  0.4446 -0.3235
14917SOL     OW49688   2.651   4.598   7.919 -0.0060 -0.1347  0.1897
14917SOL    HW149689   2.621   4.682   7.955  0.3851 -0.0219  0.2591
14917SOL    HW249690   2.641   4.608   7.824 -0.8579 -0.3626  0.2413
14918SOL     OW49691  10.811   7.232   5.078 -0.0378 -0.3669  0.2820
14918SOL    HW149692  10.756   7.263   5.007 -0.4948  0.8951  1.1399
14918SOL    HW249693  10.762   7.161   5.118 -0.7699  0.3320  0.6484
14919SOL     OW49694   4.027   1.830   2.334  0.6423 -0.0859 -0.2404
14919SOL    HW149695   4.088   1.795   2.399 -1.8298 -0.1311  2.2583
14919SOL    HW249696   4.039   1.925   2.339  1.3833 -0.1549 -0.6953
14920SOL     OW49697   9.380   2.690   3.603 -0.1952 -0.2276  0.7034
14920SOL    HW149698   9.425   2.729   3.529  3.3854  2.7761  3.9936
14920SOL    HW249699   9.293   2.730   3.603 -1.1952 -2.0514 -2.8938
14921SOL     OW49700   1.265   3.738   1.804  0.3957  0.3796 -0.7810
14921SOL    HW149701   1.241   3.764   1.715  0.2029  1.3530 -0.4482
14921SOL    HW249702   1.360   3.745   1.807  0.2743  2.1567 -0.3682
14922SOL     OW49703   4.761   1.643   4.753  0.3563 -0.3205 -0.1248
14922SOL    HW149704   4.826   1.709   4.727 -0.3231 -0.5464 -2.6598
14922SOL    HW249705   4.677   1.687   4.742 -0.0394 -0.5629  1.5565
14923SOL     OW49706   2.529   2.132  10.924 -0.4211  0.2687  0.1712
14923SOL    HW149707   2.464   2.064  10.908 -0.3447 -0.1124  1.4564
14923SOL    HW249708   2.507   2.168  11.010  1.6622 -0.5672  1.1257
14924SOL     OW49709   8.385   1.117   6.321 -0.9062 -0.2677  0.7079
14924SOL    HW149710   8.320   1.179   6.287  0.8155  1.8196  0.9588
14924SOL    HW249711   8.401   1.057   6.248 -2.4755 -0.3084  0.3677
14925SOL     OW49712   9.995   4.622   2.816 -0.3699 -0.0267  0.2315
14925SOL    HW149713   9.975   4.663   2.732 -1.8623  0.2339  0.6845
14925SOL    HW249714   9.911   4.618   2.861  0.0878 -1.7304  1.0342
14926SOL     OW49715   7.157   9.160   7.452  0.2782  0.1709  0.6313
14926SOL    HW149716   7.095   9.140   7.522 -1.2176  0.4967 -0.5578
14926SOL    HW249717   7.124   9.113   7.376  0.6479  1.5309 -0.4125
14927SOL     OW49718   9.504   7.830   3.995 -0.4371 -0.0768 -0.2566
14927SOL    HW149719   9.452   7.910   3.997 -0.6645 -0.1597 -1.6356
14927SOL    HW249720   9.444   7.762   3.966  0.0578 -0.4943 -0.3288
14928SOL     OW49721   8.437   4.821   9.991  0.3778 -0.3696  0.3656
14928SOL    HW149722   8.463   4.893  10.049  0.6880 -1.5659  1.7807
14928SOL    HW249723   8.508   4.816   9.926  0.2069  0.7689  0.0781
14929SOL     OW49724   6.414   3.118   2.200 -0.1774 -0.2789  0.2920
14929SOL    HW149725   6.430   3.212   2.212 -3.1384  0.3721 -0.0206
14929SOL    HW249726   6.417   3.106   2.105 -1.0210 -0.2123  0.2499
14930SOL     OW49727   3.169   3.463   6.149 -0.2153  0.1550 -0.2317
14930SOL    HW149728   3.189   3.533   6.212 -1.1230  2.1405 -2.0433
14930SOL    HW249729   3.077   3.443   6.165 -0.1545 -0.1190 -0.2197
14931SOL     OW49730   9.698   7.533   3.120 -0.3241 -0.5417  0.6301
14931SOL    HW149731   9.785   7.493   3.115  1.3085  2.7628 -0.7009
14931SOL    HW249732   9.710   7.610   3.176 -1.5001  1.6985 -1.9396
14932SOL     OW49733   5.747   5.489   2.034 -0.4266 -0.2114 -0.7067
14932SOL    HW149734   5.697   5.529   2.105 -0.9573 -2.2312  0.1247
14932SOL    HW249735   5.763   5.400   2.063  1.7863 -0.2822 -1.9420
14933SOL     OW49736   3.920   1.670  11.009 -0.2268 -0.2050  0.5202
14933SOL    HW149737   3.929   1.593  11.065  0.8032  0.3128  1.1027
14933SOL    HW249738   3.831   1.664  10.974 -0.2313 -1.5480  0.7024
14934SOL     OW49739  10.457   5.146   7.361 -0.1168 -0.3747  0.3012
14934SOL    HW149740  10.489   5.202   7.431 -0.3398 -0.3776  0.4075
14934SOL    HW249741  10.364   5.169   7.352 -0.1877 -0.6591  0.2836
14935SOL     OW49742   2.128   2.906   8.285  0.0890 -0.3837  0.1447
14935SOL    HW149743   2.149   2.952   8.204  0.7314  0.0646  0.5574
14935SOL    HW249744   2.058   2.958   8.324 -0.8243 -1.0808 -0.5339
14936SOL     OW49745   0.410   3.145  10.565  0.2021  0.2971  0.4878
14936SOL    HW149746   0.395   3.175  10.476  0.4566 -0.8784  0.0345
14936SOL    HW249747   0.452   3.220  10.608  0.3676  0.7690 -0.4603
14937SOL     OW49748   5.584   4.921   2.426  0.2282  0.0539  0.0790
14937SOL    HW149749   5.654   4.856   2.420  1.5505  1.3888  0.4109
14937SOL    HW249750   5.594   4.960   2.512 -1.1145  0.0997  0.2397
14938SOL     OW49751  11.433   5.463   0.583  0.6496 -0.5457  0.2123
14938SOL    HW149752  11.447   5.499   0.670 -0.1632  1.5157 -0.4628
14938SOL    HW249753  11.490   5.386   0.580  0.8280 -0.5647  2.4779
14939SOL     OW49754   3.838   0.117  10.476 -0.1781  0.0584  0.0112
14939SOL    HW149755   3.825   0.085  10.565 -1.5906  0.6429  0.0394
14939SOL    HW249756   3.825   0.039  10.421 -2.6322  0.2878  0.1396
14940SOL     OW49757   5.069   6.956  10.850  0.1986 -0.0811 -0.0134
14940SOL    HW149758   5.088   6.905  10.771 -1.3001  0.1979 -0.5847
14940SOL    HW249759   5.000   6.906  10.895  0.8719 -0.1146  1.0030
14941SOL     OW49760  10.775   1.984  11.227  0.4369  0.0823  0.0320
14941SOL    HW149761  10.700   1.927  11.213  0.1186  0.4567  0.1872
14941SOL    HW249762  10.850   1.934  11.195  0.4326 -1.1566  1.7893
14942SOL     OW49763   1.132   7.186   0.003  0.1311  0.3720  0.6266
14942SOL    HW149764   1.222   7.161   0.023  0.0907  0.3928  0.8392
14942SOL    HW249765   1.103   7.122  -0.063  0.5586  0.8498 -0.0364
14943SOL     OW49766   5.731   4.650   2.511 -0.4162 -0.8972  0.3700
14943SOL    HW149767   5.757   4.696   2.591  0.1440 -2.1167  0.8994
14943SOL    HW249768   5.656   4.596   2.538 -0.1124 -1.4477  0.1160
14944SOL     OW49769   4.103   6.009   4.485 -0.0044  0.0044  0.3782
14944SOL    HW149770   4.112   5.915   4.470 -0.9839  0.0567 -0.6219
14944SOL    HW249771   4.189   6.037   4.517  0.1987 -1.2800  0.9927
14945SOL     OW49772   4.637   2.456   6.990 -0.5111 -0.4550  0.0575
14945SOL    HW149773   4.633   2.552   6.993  0.8105 -0.4078  2.0396
14945SOL    HW249774   4.564   2.428   7.045  0.2551 -0.5037  1.0863
14946SOL     OW49775   8.854   2.212   3.290 -0.1336 -0.0220 -0.0707
14946SOL    HW149776   8.800   2.183   3.363  1.1923  0.1262  1.0042
14946SOL    HW249777   8.894   2.294   3.320 -0.4458  0.6433 -1.4003
14947SOL     OW49778   3.859   2.593   3.047  0.2713 -0.6025 -0.1954
14947SOL    HW149779   3.885   2.536   3.119  1.9761 -1.2365 -1.2800
14947SOL    HW249780   3.821   2.534   2.982  1.8274 -0.5185 -1.2202
14948SOL     OW49781   1.268   6.133   7.679 -0.5264 -0.1516 -0.0775
14948SOL    HW149782   1.269   6.077   7.756 -0.4510  0.7263  0.5769
14948SOL    HW249783   1.178   6.163   7.672 -0.8939 -1.4377 -1.2505
14949SOL     OW49784  11.574   9.144  10.872  0.3441  0.0929  0.7094
14949SOL    HW149785  11.647   9.121  10.815  0.1645  0.9911  0.1061
14949SOL    HW249786  11.601   9.113  10.959  1.5761  0.6977  0.5635
14950SOL     OW49787   6.181   3.154  10.393 -0.4981  0.4812  0.2838
14950SOL    HW149788   6.204   3.188  10.306 -3.1888 -1.6899 -1.4666
14950SOL    HW249789   6.224   3.068  10.397 -1.7838 -0.1794  0.3092
14951SOL     OW49790   3.061   4.375   4.803  0.0087  0.3553 -0.1100
14951SOL    HW149791   3.053   4.280   4.797 -0.0683  0.1821  1.9900
14951SOL    HW249792   3.113   4.400   4.726 -0.0738 -1.3434 -0.7610
14952SOL     OW49793   6.308   1.319   0.567  0.4096  0.4500 -0.2905
14952SOL    HW149794   6.299   1.226   0.543  0.7507  0.3460 -0.0363
14952SOL    HW249795   6.223   1.343   0.604  0.4185  0.1508 -0.0727
14953SOL     OW49796   5.001   5.016   8.594  0.4060 -0.3217  0.0477
14953SOL    HW149797   4.988   5.092   8.651  3.0254 -0.8708  1.5236
14953SOL    HW249798   4.923   4.962   8.609 -0.2320  0.7947  1.0267
14954SOL     OW49799   4.011   3.393   8.176  0.4351 -0.5369  0.0939
14954SOL    HW149800   4.005   3.436   8.261 -0.9970  0.4945 -0.4927
14954SOL    HW249801   4.102   3.403   8.150  0.4833  0.7694  0.6924
14955SOL     OW49802   8.234   7.974  10.643  0.5874  0.2570 -0.0934
14955SOL    HW149803   8.194   7.923  10.714  0.4724 -1.6174 -1.4433
14955SOL    HW249804   8.181   8.054  10.638 -1.6645 -1.1798 -0.3876
14956SOL     OW49805   2.696   0.145   7.092 -0.5661  0.2955  0.0632
14956SOL    HW149806   2.659   0.062   7.062  0.1730 -0.1944  0.4640
14956SOL    HW249807   2.697   0.138   7.187  0.2878  0.4079  0.0718
14957SOL     OW49808   0.712   4.409   8.358 -0.1312 -0.2169  0.8176
14957SOL    HW149809   0.656   4.437   8.286  1.8531 -0.2455 -0.8252
14957SOL    HW249810   0.771   4.482   8.372 -0.9520  0.0997  3.0000
14958SOL     OW49811  11.416   1.522   1.168  0.1021  0.0779  0.1658
14958SOL    HW149812  11.484   1.556   1.226  0.2417  2.5230 -1.2955
14958SOL    HW249813  11.336   1.568   1.195  0.2925  1.7689 -1.8610
14959SOL     OW49814   6.391   5.160  11.011  0.3356  0.8406 -0.2038
14959SOL    HW149815   6.470   5.168  10.957 -0.8410 -0.4687 -2.2318
14959SOL    HW249816   6.400   5.075  11.053 -0.1187  0.5534 -0.6781
14960SOL     OW49817   2.802  11.288   1.056 -0.2922 -0.3465  0.2806
14960SOL    HW149818   2.780  11.243   0.974  0.1738  0.6877 -0.4293
14960SOL    HW249819   2.897  11.286   1.059  0.0424  3.6569 -1.6383
14961SOL     OW49820   5.094   6.777   0.755 -0.0593 -0.2761  0.0673
14961SOL    HW149821   5.060   6.866   0.745  0.6595 -0.0241 -0.2742
14961SOL    HW249822   5.038   6.723   0.700  1.6158  0.5287 -2.6587
14962SOL     OW49823  10.049   7.631   1.890  0.3693  0.6287  0.8351
14962SOL    HW149824  10.101   7.574   1.946 -1.3150 -0.7395  1.0917
14962SOL    HW249825   9.961   7.628   1.928  0.0500  2.8610  0.4246
14963SOL     OW49826   8.406   0.767   7.950  0.1411 -0.5993 -0.3413
14963SOL    HW149827   8.452   0.851   7.949  0.6770 -0.8223 -2.9794
14963SOL    HW249828   8.317   0.788   7.922 -0.2200 -0.7107  0.6941
14964SOL     OW49829   8.358   7.291   2.957  0.0491  0.3657 -0.2362
14964SOL    HW149830   8.373   7.199   2.936 -1.8540  0.1668 -0.9184
14964SOL    HW249831   8.390   7.339   2.880 -0.0060  0.1932 -0.3669
14965SOL     OW49832   5.650   7.895   1.449 -0.1329  0.2947 -0.1701
14965SOL    HW149833   5.584   7.852   1.504  0.7959 -0.0255  0.7335
14965SOL    HW249834   5.625   7.988   1.450 -0.8002  0.1214 -0.1794
14966SOL     OW49835   3.620   1.254   6.722  0.3602 -0.0146  0.8135
14966SOL    HW149836   3.662   1.299   6.649 -0.4661  0.9767  0.9207
14966SOL    HW249837   3.643   1.162   6.710  0.8746  0.2362 -0.2516
14967SOL     OW49838   8.854   7.539   3.396 -0.0530  0.1210 -0.0485
14967SOL    HW149839   8.865   7.549   3.302 -2.1653  0.8370 -0.2803
14967SOL    HW249840   8.940   7.511   3.428  0.8813  0.4946 -2.0810
14968SOL     OW49841   5.959  10.556   6.123 -0.1993 -0.3814  0.2849
14968SOL    HW149842   5.898  10.630   6.130 -0.2940 -0.4684  0.3641
14968SOL    HW249843   5.916  10.494   6.065 -0.6790 -0.9382  1.2191
14969SOL     OW49844   4.812   5.269   8.023  0.0825 -0.2186  0.1837
14969SOL    HW149845   4.866   5.199   7.987 -0.1930 -0.8767  1.0031
14969SOL    HW249846   4.863   5.349   8.010  1.7357 -0.9316  1.8012
14970SOL     OW49847   4.832   2.875   1.587  0.3782  0.1725 -0.5514
14970SOL    HW149848   4.927   2.859   1.585  0.1774 -1.5549  0.8442
14970SOL    HW249849   4.795   2.792   1.619 -1.5440  1.0500 -0.3972
14971SOL     OW49850  10.699   7.934   9.438  0.4792  0.0452  0.4774
14971SOL    HW149851  10.684   7.891   9.354  0.8879 -0.2182  0.5353
14971SOL    HW249852  10.754   8.010   9.417  1.3575 -0.5401  0.6219
14972SOL     OW49853   9.926   0.594   9.771 -0.5499  0.5162  0.0073
14972SOL    HW149854   9.904   0.670   9.717  0.4947  1.2343  0.5735
14972SOL    HW249855   9.870   0.602   9.848 -1.6587 -0.2256 -0.6865
14973SOL     OW49856   4.692   6.222   5.079  0.3158 -0.3349 -0.6748
14973SOL    HW149857   4.711   6.287   5.147 -0.4408 -0.2098 -0.5724
14973SOL    HW249858   4.608   6.249   5.043  0.5242 -0.6269 -1.4024
14974SOL     OW49859   4.487   3.242   0.849  0.5369 -0.0228  0.3738
14974SOL    HW149860   4.435   3.284   0.917  0.0131  1.4646 -0.8732
14974SOL    HW249861   4.445   3.157   0.835 -0.9257  0.7185  0.1296
14975SOL     OW49862   7.263   7.360   1.358  0.3529 -0.2427 -0.3040
14975SOL    HW149863   7.187   7.405   1.321 -0.3892 -0.0405  1.3461
14975SOL    HW249864   7.319   7.431   1.392 -0.1948 -0.4623  1.1431
14976SOL     OW49865   6.302   9.700   6.503 -0.1707  0.3545  0.1925
14976SOL    HW149866   6.343   9.728   6.421  1.1783  0.1925  0.7836
14976SOL    HW249867   6.358   9.736   6.572  0.4365 -1.9323  1.0129
14977SOL     OW49868   9.246  11.263   9.877 -0.6766  0.4118 -0.7488
14977SOL    HW149869   9.177  11.258   9.943  1.4856 -1.2253  1.5291
14977SOL    HW249870   9.327  11.267   9.927  0.9614  2.3604 -3.3229
14978SOL     OW49871  11.633   5.184   7.285 -0.0664  0.2865  0.3441
14978SOL    HW149872  11.570   5.219   7.222  1.1778  2.1143  0.0418
14978SOL    HW249873  11.625   5.089   7.276 -0.9214  0.4901 -1.5531
14979SOL     OW49874   8.940   3.470   6.167  0.0440 -0.3322  0.0505
14979SOL    HW149875   8.995   3.404   6.209  3.4475  1.2276 -1.5148
14979SOL    HW249876   8.920   3.534   6.236  1.8508 -0.0152  0.3303
14980SOL     OW49877   4.903   5.022   4.104  0.1126 -0.4272  0.0881
14980SOL    HW149878   4.873   4.960   4.038 -1.1761 -1.8246  1.8845
14980SOL    HW249879   4.921   5.103   4.055 -0.5592 -1.4602 -1.9721
14981SOL     OW49880  11.257   6.732   5.852  0.1340 -0.5493  0.4209
14981SOL    HW149881  11.257   6.792   5.777  1.7961  0.7245  1.3899
14981SOL    HW249882  11.338   6.682   5.843 -0.2875 -1.2996  0.6983
14982SOL     OW49883   6.851   3.250   9.960 -0.2363  0.1871 -0.5308
14982SOL    HW149884   6.773   3.296   9.991  0.7389  1.2007  0.5508
14982SOL    HW249885   6.924   3.293  10.005  0.9541 -0.7668 -1.4484
14983SOL     OW49886  11.455   3.718   7.910 -0.1060  0.7369  0.2473
14983SOL    HW149887  11.428   3.653   7.975  0.7037  0.4202  0.2719
14983SOL    HW249888  11.376   3.771   7.895 -0.4542  0.4632  1.0676
14984SOL     OW49889  11.599   4.624   6.581 -0.0697 -0.3334 -0.0991
14984SOL    HW149890  11.671   4.639   6.643 -0.8070 -2.5171  1.4155
14984SOL    HW249891  11.523   4.662   6.624 -0.2207  0.0650 -0.7046
14985SOL     OW49892   7.111   5.828   4.480  0.1741 -0.2001  0.4986
14985SOL    HW149893   7.130   5.756   4.419  0.6457  0.5602 -0.2798
14985SOL    HW249894   7.016   5.825   4.491 -0.3327  1.2628 -2.4359
14986SOL     OW49895   7.653   9.892   9.256 -0.5299 -1.0343 -0.0408
14986SOL    HW149896   7.559   9.886   9.239 -0.2417 -1.3714 -1.6462
14986SOL    HW249897   7.684   9.964   9.202  0.2630 -1.4349 -0.1476
14987SOL     OW49898   6.710   5.614   6.239 -0.1263 -0.0946 -0.2527
14987SOL    HW149899   6.697   5.537   6.183  0.1329 -1.1247  1.0567
14987SOL    HW249900   6.633   5.615   6.297 -0.4495  1.0188 -0.6724
14988SOL     OW49901   8.166   6.649   4.566 -0.1823 -0.4787  0.0667
14988SOL    HW149902   8.238   6.596   4.531 -0.5011 -1.5872  1.0347
14988SOL    HW249903   8.133   6.599   4.640 -1.3796  0.4489  0.1925
14989SOL     OW49904   4.827   8.980   0.009 -0.0013  0.5663 -0.0815
14989SOL    HW149905   4.817   8.925  -0.069  0.7298  0.9040 -0.4262
14989SOL    HW249906   4.906   9.032  -0.009  0.1587  0.6619  0.8785
14990SOL     OW49907   5.887   1.970   9.350  0.1450  0.4777 -0.1849
14990SOL    HW149908   5.834   2.018   9.414  0.5068  0.3649  0.2041
14990SOL    HW249909   5.879   1.879   9.376  0.0112  0.3925 -0.5146
14991SOL     OW49910   9.508   4.132   2.285  0.0019  0.6572  0.0321
14991SOL    HW149911   9.490   4.038   2.277  0.5029  0.6164 -0.6393
14991SOL    HW249912   9.571   4.139   2.357  1.7690  0.2346 -1.3971
14992SOL     OW49913  11.068   9.073   9.344 -0.3614  0.2065  0.3057
14992SOL    HW149914  11.001   9.073   9.276 -0.0778  0.1513  0.0253
14992SOL    HW249915  11.085   8.980   9.361 -1.3910  0.2041  1.4046
14993SOL     OW49916   0.501  10.778  10.000 -0.0404  0.2947  0.1741
14993SOL    HW149917   0.538  10.727   9.929  1.1542  0.4486  0.6673
14993SOL    HW249918   0.407  10.760   9.996  0.1436 -0.5316 -0.7601
14994SOL     OW49919   3.137   9.391   6.074  0.4093  0.1760  0.0750
14994SOL    HW149920   3.178   9.311   6.107  0.6515  0.0083 -0.6151
14994SOL    HW249921   3.057   9.400   6.126 -0.2207 -1.1542 -0.6171
14995SOL     OW49922   0.887   9.731   6.997 -0.3430  0.0124 -0.2316
14995SOL    HW149923   0.916   9.811   7.042  0.1107 -0.3997  0.2362
14995SOL    HW249924   0.969   9.689   6.968 -0.3887 -1.3792  1.4602
14996SOL     OW49925   4.536   4.010  11.335  0.7125 -0.4092 -0.6774
14996SOL    HW149926   4.618   4.010  11.285  1.0193 -2.2293 -0.2412
14996SOL    HW249927   4.555   3.957  11.412 -0.3624  0.6648  0.3679
14997SOL     OW49928   8.339   5.312   1.323 -0.3652  0.9226 -0.1008
14997SOL    HW149929   8.279   5.358   1.383 -1.5216 -0.4105 -0.1750
14997SOL    HW249930   8.321   5.220   1.339  0.6681  0.5198 -1.1838
14998SOL     OW49931   2.210   5.374   7.054  0.3767  0.3424 -0.0613
14998SOL    HW149932   2.148   5.371   6.981 -1.1716  2.3595  1.0454
14998SOL    HW249933   2.292   5.340   7.018 -0.6701  0.0403 -2.3369
14999SOL     OW49934   1.121   3.760   1.137 -0.2588  0.3294 -0.1421
14999SOL    HW149935   1.202   3.733   1.179 -1.0118 -1.5216  0.2025
14999SOL    HW249936   1.117   3.710   1.056 -0.4670  1.3627 -0.7971
15000SOL     OW49937   8.483  10.149   1.113 -0.2232 -0.5572 -0.1714
15000SOL    HW149938   8.568  10.135   1.155 -0.6060  0.8309  1.1503
15000SOL    HW249939   8.448  10.061   1.101  0.6763 -1.0776  0.8134
15001SOL     OW49940   6.864   5.540   4.933 -0.4808  0.4341  0.3090
15001SOL    HW149941   6.812   5.556   5.011 -0.5372 -0.8285  0.5428
15001SOL    HW249942   6.891   5.449   4.939  1.8348  1.0260  0.2277
15002SOL     OW49943   6.716   8.758   7.165  0.3465  0.5160 -0.1874
15002SOL    HW149944   6.734   8.840   7.120  2.9097  0.1856  0.1084
15002SOL    HW249945   6.750   8.690   7.107 -0.8375 -0.2940  0.0274
15003SOL     OW49946   8.575   1.338   9.963 -0.1461  0.3318  0.2711
15003SOL    HW149947   8.553   1.378   9.879  0.9626  0.4846  0.0413
15003SOL    HW249948   8.519   1.383  10.026  1.9597  3.2775  0.2329
15004SOL     OW49949   7.577   4.622   3.891  0.4160 -0.0405 -0.0270
15004SOL    HW149950   7.656   4.624   3.945 -0.7362 -2.0461  1.8692
15004SOL    HW249951   7.601   4.567   3.816  0.6755 -1.2226  0.8851
15005SOL     OW49952   3.034   7.440   5.542 -0.2927  0.0973  0.3395
15005SOL    HW149953   3.020   7.365   5.599  4.0372 -0.4226  1.0546
15005SOL    HW249954   3.012   7.516   5.596  1.2097 -0.5043  1.9017
15006SOL     OW49955   9.756   5.282   9.370 -0.2877 -0.0837 -0.1743
15006SOL    HW149956   9.689   5.257   9.306 -0.1694  0.3403 -0.4643
15006SOL    HW249957   9.811   5.346   9.324  0.9152 -1.1438 -0.2738
15007SOL     OW49958   0.286   4.441   7.517  0.1036  0.2403 -0.4935
15007SOL    HW149959   0.324   4.394   7.443  2.3902 -1.3151  1.5027
15007SOL    HW249960   0.194   4.451   7.495  0.3354 -1.7845 -2.7368
15008SOL     OW49961   7.852  10.048   9.055  0.7106  0.3089 -0.0028
15008SOL    HW149962   7.856  10.092   8.970 -0.0599 -0.5385 -0.5015
15008SOL    HW249963   7.923   9.984   9.051  0.9958  0.6128  0.1952
15009SOL     OW49964   6.337  10.428   7.817 -0.2082  0.1751 -0.2629
15009SOL    HW149965   6.407  10.453   7.876  0.9140 -0.3475 -1.3310
15009SOL    HW249966   6.334  10.497   7.751 -1.0602  0.4574  0.0496
15010SOL     OW49967  10.376  10.675   3.956  0.3846  0.2081  0.1482
15010SOL    HW149968  10.398  10.768   3.945 -1.6755  0.8662  1.1022
15010SOL    HW249969  10.419  10.650   4.038  0.3555  0.5176  0.2584
15011SOL     OW49970   3.004   0.736   9.953 -0.5895  0.3534 -0.6124
15011SOL    HW149971   3.022   0.813  10.006 -2.5244 -0.0124  0.6927
15011SOL    HW249972   2.977   0.669  10.016 -2.2130 -0.3420 -1.9429
15012SOL     OW49973   0.231   7.810   1.275 -0.2087  0.6270 -0.1739
15012SOL    HW149974   0.153   7.768   1.311 -1.1091  0.6431 -2.0012
15012SOL    HW249975   0.204   7.899   1.254  0.3010  0.6525 -0.7693
15013SOL     OW49976   6.562   0.992   2.023 -0.0508 -0.5849 -0.7282
15013SOL    HW149977   6.602   0.938   1.955  1.3200  0.1798 -0.5517
15013SOL    HW249978   6.621   0.986   2.097  0.3482  1.4440 -0.8277
15014SOL     OW49979   6.816   0.036   5.956  0.0919 -0.1265 -0.4381
15014SOL    HW149980   6.831   0.065   6.047 -0.0115 -0.6168 -0.2632
15014SOL    HW249981   6.888   0.076   5.907  1.0612 -1.1256  0.1277
15015SOL     OW49982   6.015   4.252   1.682  0.5875  0.2083  0.3451
15015SOL    HW149983   5.999   4.320   1.747  0.5061 -0.9736  1.6049
15015SOL    HW249984   6.110   4.248   1.673  0.5838  0.6928  0.0105
15016SOL     OW49985   7.517   5.916  10.820 -0.9520 -0.9658  0.0991
15016SOL    HW149986   7.477   5.997  10.789 -0.6591 -0.9205 -0.1576
15016SOL    HW249987   7.551   5.874  10.741  1.0639 -0.1641  0.4879
15017SOL     OW49988   8.193   9.604   1.189  0.1702 -0.1920 -0.0736
15017SOL    HW149989   8.258   9.558   1.136  2.3304 -0.0577  2.2636
15017SOL    HW249990   8.217   9.696   1.183 -0.9535  0.0889 -0.5820
15018SOL     OW49991   8.803   9.828   3.440  0.0121  0.3541  0.4244
15018SOL    HW149992   8.721   9.820   3.392 -0.7362 -0.9086  1.8222
15018SOL    HW249993   8.803   9.918   3.473 -0.8028  0.3691  0.4005
15019SOL     OW49994   4.420  10.813   0.790  0.1968  0.1283 -0.2004
15019SOL    HW149995   4.382  10.897   0.763 -0.4108  0.0018  0.2574
15019SOL    HW249996   4.365  10.783   0.862  0.2650 -0.7859 -0.5131
15020SOL     OW49997   0.338   0.874   4.107  0.4639 -0.3164 -0.4326
15020SOL    HW149998   0.253   0.831   4.106 -0.5691  1.5696  0.4495
15020SOL    HW249999   0.378   0.848   4.190 -0.1803  0.4366  0.1264
15021SOL     OW50000   0.598   0.460   3.657  0.4267 -0.4016  0.3865
15021SOL    HW150001   0.504   0.474   3.649  0.6736  1.0812 -0.3281
15021SOL    HW250002   0.613   0.449   3.751 -0.2772  0.9922  0.6790
15022SOL     OW50003   3.407   4.331   7.575  0.3276  0.1931 -0.1315
15022SOL    HW150004   3.446   4.418   7.573  0.0764  0.2945 -1.0378
15022SOL    HW250005   3.333   4.337   7.515  0.6569 -0.8099 -0.6503
15023SOL     OW50006   0.090   0.473   4.034 -0.7680  0.1824 -0.0008
15023SOL    HW150007   0.007   0.488   3.990 -0.7776 -0.4380 -0.2107
15023SOL    HW250008   0.080   0.387   4.075  0.6302 -1.0717 -2.1111
15024SOL     OW50009  11.065   4.740   2.494 -0.3449 -0.1209  0.0578
15024SOL    HW150010  11.046   4.827   2.530  0.4289 -0.5824  1.6940
15024SOL    HW250011  11.146   4.751   2.445 -0.3063  0.1098  0.1741
15025SOL     OW50012   5.680   9.564   0.731 -0.2320 -0.3269  0.1006
15025SOL    HW150013   5.589   9.534   0.729  0.3672 -2.5042  1.4389
15025SOL    HW250014   5.731   9.484   0.721  1.5624  0.9370 -1.2287
15026SOL     OW50015  11.110  10.157   3.191  0.5718 -0.0246  0.1525
15026SOL    HW150016  11.037  10.206   3.228  0.7885 -0.8589  1.7864
15026SOL    HW250017  11.144  10.106   3.264  0.4232 -2.5584 -1.4430
15027SOL     OW50018   0.569   6.894  10.288 -0.5916  0.0538 -0.2485
15027SOL    HW150019   0.522   6.916  10.208 -1.3555  1.7688  0.6135
15027SOL    HW250020   0.655   6.865  10.258 -1.4715 -1.1269 -1.7617
15028SOL     OW50021   8.346   9.498   9.707  0.2097 -0.3096  0.0146
15028SOL    HW150022   8.406   9.508   9.781 -0.1356 -0.3224  0.3054
15028SOL    HW250023   8.397   9.454   9.639  0.9859  1.0834 -0.3226
15029SOL     OW50024   1.597  10.870   8.383  0.3524 -0.1998  0.0784
15029SOL    HW150025   1.542  10.919   8.322  0.4943 -0.1424 -0.0023
15029SOL    HW250026   1.588  10.917   8.466 -0.3066 -0.6127  0.2543
15030SOL     OW50027   1.519   7.204   4.645  0.1712  0.1354  1.0030
15030SOL    HW150028   1.430   7.237   4.652 -0.6784 -1.7404 -0.2216
15030SOL    HW250029   1.574   7.281   4.657 -1.6516  1.8250 -0.7397
15031SOL     OW50030   5.990   3.690   9.073 -0.0932  0.0011  0.5586
15031SOL    HW150031   5.958   3.755   9.136  1.9966  0.8856  0.7976
15031SOL    HW250032   6.072   3.659   9.111  1.3689  0.7461 -1.8283
15032SOL     OW50033   5.463   0.044  10.953  0.4251 -0.3700  0.1893
15032SOL    HW150034   5.391   0.107  10.952  0.7586  0.0225  0.7283
15032SOL    HW250035   5.515   0.067  11.030  0.0806 -1.8413  0.9063
15033SOL     OW50036   6.909   3.498   0.207 -0.1623  0.0893  0.8580
15033SOL    HW150037   6.895   3.405   0.225  0.4653  0.1945  2.0411
15033SOL    HW250038   7.003   3.506   0.194 -0.4649  0.2190 -1.5979
15034SOL     OW50039   3.844   0.032   5.671  0.1563  0.2491  0.4689
15034SOL    HW150040   3.886   0.084   5.739  0.0453  2.2437 -0.8920
15034SOL    HW250041   3.782   0.092   5.630  0.4963 -0.7454 -1.6329
15035SOL     OW50042   0.948   6.838   9.932  0.1221 -0.3243  0.4842
15035SOL    HW150043   0.974   6.756   9.891 -2.1528 -0.7174 -0.3323
15035SOL    HW250044   1.014   6.853  10.001  0.1359 -3.2638  1.2385
15036SOL     OW50045   6.444   2.958   1.209 -0.2258 -0.2834 -0.0230
15036SOL    HW150046   6.461   3.012   1.287  0.9606 -1.1569  0.3509
15036SOL    HW250047   6.359   2.917   1.227  0.5774 -1.4110  1.3993
15037SOL     OW50048   2.228   9.480   1.115  0.0813 -0.1831 -0.3563
15037SOL    HW150049   2.167   9.421   1.160  1.0109 -0.7863  0.1636
15037SOL    HW250050   2.184   9.564   1.112 -0.2660 -0.3017  1.1171
15038SOL     OW50051   2.914   2.283   1.641  0.7317  0.1571 -0.0397
15038SOL    HW150052   2.871   2.202   1.668  0.2007  0.1539 -0.8503
15038SOL    HW250053   2.998   2.254   1.604  0.5803 -0.0241 -0.2489
15039SOL     OW50054   3.683  10.072  10.468 -0.0404  0.2430  0.5587
15039SOL    HW150055   3.762  10.050  10.516  0.2724 -1.6201 -0.6795
15039SOL    HW250056   3.701  10.157  10.429  0.7237  0.5447  1.5406
15040SOL     OW50057  11.467   5.796   6.245  0.6725 -0.2499  0.9731
15040SOL    HW150058  11.554   5.831   6.260  0.6967  0.1581 -0.0047
15040SOL    HW250059  11.408   5.856   6.291  0.6371  1.7283 -1.4011
15041SOL     OW50060   3.146   2.849   1.745 -0.0670  0.4209  0.4065
15041SOL    HW150061   3.191   2.857   1.829 -2.7825 -0.7568  2.1193
15041SOL    HW250062   3.100   2.933   1.735  0.9491  0.8987 -0.3832
15042SOL     OW50063   5.892   4.709   2.724  0.1116  0.3007  0.1441
15042SOL    HW150064   5.945   4.636   2.755 -2.4455 -2.1811 -0.8507
15042SOL    HW250065   5.859   4.750   2.804 -0.1865 -1.1039  0.7800
15043SOL     OW50066   7.758   4.152   7.121 -0.0544  0.0931 -0.1717
15043SOL    HW150067   7.783   4.174   7.211 -0.7160 -1.5040  0.4328
15043SOL    HW250068   7.685   4.091   7.131 -0.4274  0.2400 -1.8102
15044SOL     OW50069   8.023   9.185   7.390 -0.1089 -0.3251  0.1090
15044SOL    HW150070   7.951   9.245   7.410  0.2780  1.0343 -2.1806
15044SOL    HW250071   7.982   9.113   7.342 -0.1038 -0.0330 -0.3449
15045SOL     OW50072   1.361   2.330   7.818 -0.1035  0.0697  0.8723
15045SOL    HW150073   1.316   2.414   7.811 -2.4069 -0.9473  2.4208
15045SOL    HW250074   1.358   2.295   7.729 -0.9334  0.7521  0.6104
15046SOL     OW50075   4.852   2.749  11.571  0.2236 -0.3446 -0.8630
15046SOL    HW150076   4.899   2.673  11.608  0.5068  0.3872  0.3260
15046SOL    HW250077   4.760   2.725  11.577  0.2321 -0.0467  0.8320
15047SOL     OW50078   1.425   8.353   6.534  0.1531 -0.3382 -0.4147
15047SOL    HW150079   1.365   8.331   6.462 -0.1252 -0.4940 -0.1410
15047SOL    HW250080   1.503   8.301   6.517 -0.3997 -1.3722  0.0796
15048SOL     OW50081   0.706   7.758   7.612  0.4310 -0.2663 -0.0835
15048SOL    HW150082   0.785   7.708   7.631  1.3063  0.2986 -1.9423
15048SOL    HW250083   0.724   7.801   7.528 -1.3730  0.8911  0.0502
15049SOL     OW50084   2.242   6.189   7.921  0.0026  0.8265  0.0919
15049SOL    HW150085   2.302   6.209   7.992  0.9410  0.1345 -0.4705
15049SOL    HW250086   2.282   6.228   7.843 -0.7078  1.0805 -0.1518
15050SOL     OW50087  11.426  11.347   3.338  0.3783 -0.4496 -0.3914
15050SOL    HW150088  11.349  11.291   3.348  0.9762 -1.7890 -2.5230
15050SOL    HW250089  11.431  11.363   3.244  1.8269  0.9319 -0.1207
15051SOL     OW50090   0.052   4.318   6.495 -0.0271  0.5347  0.0875
15051SOL    HW150091   0.006   4.399   6.517 -0.2079  0.3484  0.3907
15051SOL    HW250092  -0.004   4.275   6.430 -0.1752  0.4132  0.2948
15052SOL     OW50093   3.667   7.262   3.993  0.3792  0.0613 -0.4702
15052SOL    HW150094   3.738   7.252   3.929  0.9897 -1.0561  0.3453
15052SOL    HW250095   3.588   7.238   3.945  0.9348 -1.6294 -0.6002
15053SOL     OW50096   2.683   8.478  10.261  0.0875  0.1319  0.7274
15053SOL    HW150097   2.670   8.524  10.344 -1.1784  1.4446 -0.1558
15053SOL    HW250098   2.776   8.491  10.241 -0.5031  3.9567 -0.3301
15054SOL     OW50099   9.989   0.439   6.687 -0.1650 -0.2883 -0.4788
15054SOL    HW150100   9.954   0.391   6.611  1.2692  0.2937 -1.5617
15054SOL    HW250101   9.911   0.472   6.732 -1.1011 -1.7104 -0.9707
15055SOL     OW50102   2.052   2.253   4.753  0.2939 -0.0113 -0.1367
15055SOL    HW150103   1.998   2.183   4.718 -1.9867  1.6696 -0.2379
15055SOL    HW250104   2.049   2.322   4.686  0.4967  1.0931  0.9415
15056SOL     OW50105   2.749   5.965   4.432  0.3668  0.1555 -0.4472
15056SOL    HW150106   2.708   5.880   4.445 -0.8898  0.5953 -1.3082
15056SOL    HW250107   2.803   5.979   4.510  0.5007 -1.3670 -0.2531
15057SOL     OW50108   4.448   4.477   3.414  0.0221 -0.1229  0.7182
15057SOL    HW150109   4.506   4.416   3.368 -1.2574  0.1091 -1.3411
15057SOL    HW250110   4.362   4.436   3.410 -0.6572  1.2795  0.3272
15058SOL     OW50111   1.889   1.575   0.774 -0.2563  0.3277  0.3420
15058SOL    HW150112   1.885   1.668   0.750 -1.1299 -0.1224 -1.3440
15058SOL    HW250113   1.870   1.528   0.694  2.3126 -1.4127  0.6517
15059SOL     OW50114   0.013   9.731   3.680 -0.7759  0.3908 -0.1490
15059SOL    HW150115   0.029   9.781   3.600  0.9544 -0.1793 -0.1877
15059SOL    HW250116   0.089   9.748   3.735 -0.2783 -1.9082 -0.0220
15060SOL     OW50117  11.359   1.156   3.834  0.0265  0.3744  0.0034
15060SOL    HW150118  11.436   1.159   3.778  0.5921  0.6783  0.7719
15060SOL    HW250119  11.312   1.078   3.806 -0.2726  1.0881 -1.5995
15061SOL     OW50120   1.154   4.992   6.831 -0.3426  0.1516  0.1929
15061SOL    HW150121   1.140   4.995   6.737 -0.9032  2.2481  0.2882
15061SOL    HW250122   1.188   4.904   6.848  1.5448  0.3078 -2.2058
15062SOL     OW50123   3.953   4.586   6.632 -0.3124  0.0080 -0.0609
15062SOL    HW150124   3.868   4.628   6.621  0.2374  0.8595 -1.2790
15062SOL    HW250125   3.994   4.591   6.546  1.2132  0.1458  0.6356
15063SOL     OW50126   2.202   7.574   5.434 -0.2286  0.0564  0.3785
15063SOL    HW150127   2.220   7.488   5.471 -0.3868 -0.7729 -1.3641
15063SOL    HW250128   2.288   7.617   5.430 -0.2011  0.1252  1.5728
15064SOL     OW50129   5.927   2.677   3.204 -0.1970  0.6538  0.2775
15064SOL    HW150130   5.976   2.643   3.129  1.3180  0.1516  1.4354
15064SOL    HW250131   5.926   2.772   3.190  0.0122  0.5621 -0.4049
15065SOL     OW50132   6.353   4.721   4.882  0.1186 -0.4696  0.1763
15065SOL    HW150133   6.372   4.758   4.796  0.0862 -1.7447 -0.4040
15065SOL    HW250134   6.272   4.763   4.909  0.4564  0.4012 -0.1213
15066SOL     OW50135  10.340   8.870   7.607  0.3901 -0.1019 -0.8867
15066SOL    HW150136  10.347   8.885   7.701  1.8631 -0.6433 -0.8838
15066SOL    HW250137  10.270   8.929   7.578  0.1767  0.3418  0.4742
15067SOL     OW50138   7.418   5.889   9.520 -0.1282  0.0637 -0.8708
15067SOL    HW150139   7.437   5.922   9.608 -0.4446  1.6968 -1.3747
15067SOL    HW250140   7.503   5.890   9.475 -0.3341  1.6808 -1.3158
15068SOL     OW50141   2.750  10.288   3.723  0.1094 -0.4304  0.2283
15068SOL    HW150142   2.665  10.294   3.679 -0.4777  2.0086  1.4585
15068SOL    HW250143   2.801  10.361   3.687 -0.1834  1.2608  2.9311
15069SOL     OW50144   4.386  10.376   5.595 -0.4769  0.2380 -0.7413
15069SOL    HW150145   4.297  10.359   5.627  0.0889 -0.2760  0.6618
15069SOL    HW250146   4.391  10.471   5.586 -1.1139  0.2810 -0.6785
15070SOL     OW50147   7.507   6.925   5.847  0.2692  0.1809 -0.2905
15070SOL    HW150148   7.564   6.851   5.870  0.5408 -0.5255 -2.9095
15070SOL    HW250149   7.566   7.001   5.850  1.1623 -0.3884 -1.8914
15071SOL     OW50150   8.295   7.598   2.366  0.1441 -0.5171  0.2176
15071SOL    HW150151   8.343   7.596   2.284 -1.0269  0.9151 -0.5645
15071SOL    HW250152   8.280   7.506   2.388  0.7597 -0.9270 -0.9921
15072SOL     OW50153  10.218   9.253  11.134 -0.6350  0.2506 -0.3135
15072SOL    HW150154  10.191   9.165  11.159 -1.7092  0.3014 -1.1939
15072SOL    HW250155  10.306   9.263  11.170 -1.2011 -0.5070  1.3642
15073SOL     OW50156   3.680   0.272   1.033 -0.4083 -0.0886 -0.2131
15073SOL    HW150157   3.718   0.270   1.121 -1.1265 -0.5112  0.0966
15073SOL    HW250158   3.753   0.297   0.976 -0.2912  1.6996  0.6745
15074SOL     OW50159  11.148  10.702   0.681  0.4138  0.0181  0.0781
15074SOL    HW150160  11.229  10.687   0.731  1.2485  1.5029 -0.7677
15074SOL    HW250161  11.158  10.647   0.603  1.3534  1.3309 -0.7723
15075SOL     OW50162  10.894   5.545   4.345  0.4508 -0.0340 -0.7545
15075SOL    HW150163  10.984   5.562   4.320  0.4060 -0.1936 -1.0283
15075SOL    HW250164  10.843   5.558   4.265  0.4086 -1.3476 -0.9658
15076SOL     OW50165   8.447   3.007   1.515  0.6895 -0.7160 -0.0654
15076SOL    HW150166   8.485   3.067   1.450  0.5362 -0.6755 -0.1175
15076SOL    HW250167   8.479   3.039   1.599  0.9255 -0.7960 -0.1235
15077SOL     OW50168   3.567   6.462   8.133  0.0192 -0.0099 -0.1863
15077SOL    HW150169   3.548   6.554   8.112 -1.3871 -0.3383 -0.4856
15077SOL    HW250170   3.610   6.428   8.054 -0.7500  0.0397 -0.6376
15078SOL     OW50171   1.207   6.852   3.961 -0.3401 -0.4710  0.3922
15078SOL    HW150172   1.190   6.795   3.886 -0.9282 -0.0333  0.1837
15078SOL    HW250173   1.146   6.925   3.950 -0.3056 -0.3063  1.1951
15079SOL     OW50174   8.798   9.213   0.329  0.0121  0.1530 -0.6058
15079SOL    HW150175   8.808   9.123   0.299  1.2734  0.8735 -2.5412
15079SOL    HW250176   8.887   9.247   0.333 -0.4996  1.5976 -0.8620
15080SOL     OW50177   1.235   3.065   5.645 -0.0963  0.0357  0.0498
15080SOL    HW150178   1.219   3.070   5.551  0.5351  1.0893 -0.0202
15080SOL    HW250179   1.330   3.061   5.653 -0.1182  0.5268  0.6566
15081SOL     OW50180   0.040   5.134   3.895 -0.0976 -1.2000 -0.3842
15081SOL    HW150181   0.095   5.197   3.943 -0.0786 -0.2685 -1.5710
15081SOL    HW250182   0.076   5.048   3.918  1.1124 -0.6685 -0.2047
15082SOL     OW50183   2.837   4.324   9.145 -0.2278 -0.2279  0.1367
15082SOL    HW150184   2.878   4.387   9.204  1.0120 -0.3452 -0.5832
15082SOL    HW250185   2.905   4.301   9.082 -1.4413 -0.2957 -1.1995
15083SOL     OW50186   0.193   3.434   3.869  0.3740  0.6043  0.2311
15083SOL    HW150187   0.240   3.379   3.807  1.8648  0.1394  1.6844
15083SOL    HW250188   0.126   3.477   3.817 -0.6616 -2.2913 -1.0645
15084SOL     OW50189   2.986   4.475   3.713 -1.2283 -0.1555 -0.6238
15084SOL    HW150190   2.909   4.483   3.656 -1.3020 -0.2999 -0.5461
15084SOL    HW250191   3.060   4.499   3.657 -1.3843  0.5179 -0.5511
15085SOL     OW50192   0.162   9.342   7.151  0.1440 -0.0270  0.2367
15085SOL    HW150193   0.092   9.279   7.136  0.2935 -0.4621  1.2608
15085SOL    HW250194   0.118   9.416   7.193 -0.1753  0.9340 -1.7105
15086SOL     OW50195   0.742   3.414   1.799 -0.0196 -0.3460 -0.0206
15086SOL    HW150196   0.682   3.486   1.822 -0.6311 -0.7693 -0.2865
15086SOL    HW250197   0.685   3.337   1.791  0.6437 -0.8811  0.3351
15087SOL     OW50198   7.978   0.910   1.515  0.2928 -0.0663  0.1293
15087SOL    HW150199   7.890   0.912   1.554  0.4315 -2.5640  0.7051
15087SOL    HW250200   8.031   0.966   1.572 -0.8431  1.3038 -0.1037
15088SOL     OW50201   6.666   2.847   3.500 -0.2504  0.2472  0.7836
15088SOL    HW150202   6.717   2.895   3.565 -0.2566  0.7093  0.4525
15088SOL    HW250203   6.579   2.887   3.504  0.2237  1.5429 -0.7887
15089SOL     OW50204  11.575  11.064   3.261  0.3081  0.3956  0.3211
15089SOL    HW150205  11.616  11.142   3.298  0.5460  0.5430 -0.2374
15089SOL    HW250206  11.642  10.996   3.264  0.2391  0.3303  0.4107
15090SOL     OW50207   0.749   0.729  10.153  0.4449  0.1180  0.1729
15090SOL    HW150208   0.713   0.729  10.241 -0.2575  0.7898 -0.0955
15090SOL    HW250209   0.674   0.750  10.097  0.7159 -1.0230 -0.6584
15091SOL     OW50210   5.815  11.125   6.153  0.0857 -0.4622  0.3336
15091SOL    HW150211   5.785  11.053   6.209 -1.8804 -0.3133 -0.4730
15091SOL    HW250212   5.736  11.161   6.114  1.0885  1.7167  0.1455
15092SOL     OW50213   7.943   0.993   5.156 -0.4370 -0.4796 -0.1958
15092SOL    HW150214   7.917   1.058   5.092 -2.3684 -1.1936 -0.1903
15092SOL    HW250215   8.038   0.985   5.145 -0.3802  1.2321 -1.1946
15093SOL     OW50216   5.384   4.822   5.504 -0.1197 -0.0805 -0.4820
15093SOL    HW150217   5.388   4.764   5.580  1.0051  0.9588  0.2938
15093SOL    HW250218   5.470   4.863   5.500 -0.5798  0.8584 -1.5522
15094SOL     OW50219   3.334   7.822   8.051 -0.9523  0.2691  0.5742
15094SOL    HW150220   3.423   7.855   8.041 -1.3685  1.5658  0.9989
15094SOL    HW250221   3.340   7.753   8.117 -0.2572  0.2691  0.5103
15095SOL     OW50222   0.694  10.915   6.325 -0.4101  0.3681 -0.2522
15095SOL    HW150223   0.741  10.998   6.314  1.8134 -0.6369  0.9251
15095SOL    HW250224   0.613  10.939   6.370 -1.8739  2.3629 -3.5782
15096SOL     OW50225   6.433   1.909   1.900  0.2260  0.4289 -0.0893
15096SOL    HW150226   6.493   1.857   1.955  0.0454  0.6207  0.2965
15096SOL    HW250227   6.491   1.960   1.844  0.4306 -1.8875 -2.1634
15097SOL     OW50228  11.670   1.709   2.149 -0.3499 -0.2307  0.3284
15097SOL    HW150229  11.670   1.723   2.054 -2.0897 -0.0088  0.3316
15097SOL    HW250230  11.599   1.647   2.164  0.3923 -0.8480  1.4311
15098SOL     OW50231   8.810   9.117   3.656  0.2246 -0.1371 -0.8178
15098SOL    HW150232   8.739   9.179   3.673  1.6550  1.6336 -0.9381
15098SOL    HW250233   8.780   9.065   3.581 -0.8930  0.6613 -0.9450
15099SOL     OW50234   5.912  10.349   5.954 -0.0912 -0.0019  0.4318
15099SOL    HW150235   5.912  10.354   5.859 -0.2986 -0.1365  0.4248
15099SOL    HW250236   5.980  10.286   5.976  0.9397  1.0779  0.4286
15100SOL     OW50237   5.995   1.655   5.678  0.4946  0.5796  0.0278
15100SOL    HW150238   5.967   1.736   5.635  0.0137  0.1125 -0.5691
15100SOL    HW250239   5.922   1.594   5.663  1.0054 -0.0738  0.1449
15101SOL     OW50240  11.566   6.852   4.320 -0.0904 -0.2755  0.4837
15101SOL    HW150241  11.536   6.787   4.257  0.3423 -0.2788  0.2817
15101SOL    HW250242  11.549   6.936   4.277 -0.8756 -0.2353  0.8427
15102SOL     OW50243   0.835   0.137   5.171  0.1002  0.1375  0.2926
15102SOL    HW150244   0.872   0.070   5.113  3.4010  1.1639  1.0107
15102SOL    HW250245   0.813   0.090   5.251  3.8477 -0.0799  1.3879
15103SOL     OW50246   5.665   7.096   5.989  0.0034 -0.2101  0.0650
15103SOL    HW150247   5.584   7.070   5.945 -0.9738 -1.4063  2.3965
15103SOL    HW250248   5.684   7.184   5.955 -0.8287 -0.8952 -2.4016
15104SOL     OW50249   9.827  10.057   4.778 -0.1793  1.0084 -0.0645
15104SOL    HW150250   9.882  10.110   4.836  0.1747  1.0342 -0.4190
15104SOL    HW250251   9.824  10.107   4.696  1.9644 -0.5409 -1.1590
15105SOL     OW50252  10.152   2.301   6.240  0.7266  0.0450  0.1068
15105SOL    HW150253  10.192   2.387   6.252  0.4374  0.2970 -0.6919
15105SOL    HW250254  10.159   2.259   6.326  2.8435  0.0076 -0.0305
15106SOL     OW50255   5.220   0.959   0.194  0.4563  0.0272  0.2321
15106SOL    HW150256   5.125   0.956   0.201  0.4843  1.2862  1.5796
15106SOL    HW250257   5.251   0.947   0.283  1.5519  0.1140 -0.1200
15107SOL     OW50258  10.734   8.563   5.666 -0.0983 -0.5840  0.4521
15107SOL    HW150259  10.782   8.493   5.709 -0.6045 -0.5463  1.0827
15107SOL    HW250260  10.660   8.581   5.723  1.0907  1.8580  1.4006
15108SOL     OW50261   9.978   5.956   7.454  0.6984 -0.1888 -0.5433
15108SOL    HW150262   9.897   5.907   7.442 -0.1978  1.1219 -0.0701
15108SOL    HW250263   9.969   6.033   7.397  0.8808  0.8019  0.7295
15109SOL     OW50264   8.183  11.689   4.292  0.4340  0.5121  0.0952
15109SOL    HW150265   8.136  11.642   4.361  1.2585 -0.1685  0.2108
15109SOL    HW250266   8.162  11.641   4.212  1.2988 -0.0788  0.2174
15110SOL     OW50267   0.028   7.797   0.364 -0.2286  0.1947 -0.6496
15110SOL    HW150268  -0.030   7.817   0.291 -0.8695  0.1276 -0.1625
15110SOL    HW250269   0.048   7.704   0.354  0.8963  0.5184 -1.5907
15111SOL     OW50270  10.045   7.665   3.583  0.0843  0.2202 -0.1773
15111SOL    HW150271  10.113   7.616   3.629 -0.7080 -0.1616  0.6244
15111SOL    HW250272  10.093   7.730   3.531  1.1549 -1.4431 -1.3580
15112SOL     OW50273   6.038   2.635   0.153 -0.3765 -0.4324  0.1821
15112SOL    HW150274   6.021   2.707   0.214 -0.3940 -0.5631  0.3325
15112SOL    HW250275   5.952   2.610   0.120 -0.3354 -0.1479 -0.1413
15113SOL     OW50276   7.392   0.777   2.515  0.1758 -0.2591 -0.0009
15113SOL    HW150277   7.329   0.782   2.587 -0.2511 -1.2315 -0.2824
15113SOL    HW250278   7.343   0.736   2.443  0.6438  0.5172 -0.7863
15114SOL     OW50279   9.044   5.469   3.274 -0.3917 -0.4817 -0.1268
15114SOL    HW150280   9.138   5.489   3.273 -0.3375 -0.6602 -1.7712
15114SOL    HW250281   9.037   5.385   3.228 -1.3896 -0.2631 -0.3914
15115SOL     OW50282   6.348  11.489   9.762 -0.0969  0.4082 -0.3565
15115SOL    HW150283   6.413  11.527   9.822 -0.0881  0.6033 -0.4891
15115SOL    HW250284   6.326  11.561   9.702 -2.3620  1.1344  1.2419
15116SOL     OW50285   2.170   3.110   7.801  0.4213 -0.0775 -0.1570
15116SOL    HW150286   2.221   3.036   7.832 -0.9753 -1.4126 -0.8928
15116SOL    HW250287   2.150   3.161   7.880  2.2871  0.1310  0.2084
15117SOL     OW50288   2.687   7.005   7.153  0.1667 -0.1058  0.2494
15117SOL    HW150289   2.683   6.933   7.216 -1.0924 -1.0339 -0.8441
15117SOL    HW250290   2.778   7.009   7.127  0.2359 -1.3986  0.2302
15118SOL     OW50291   4.247   4.862   1.049  0.1140  0.4879 -0.2714
15118SOL    HW150292   4.241   4.834   0.958  0.5735 -0.5928  0.0089
15118SOL    HW250293   4.229   4.782   1.100 -2.7729  1.5967  0.6434
15119SOL     OW50294   1.226   6.746   8.068 -0.2762  0.4493 -0.1485
15119SOL    HW150295   1.133   6.759   8.051 -0.3615  0.5246  0.3721
15119SOL    HW250296   1.250   6.818   8.125 -0.1315 -0.1374  0.5465
15120SOL     OW50297   4.284   1.544   8.020 -0.0443  0.5573  0.0620
15120SOL    HW150298   4.344   1.471   8.002 -0.1446  0.6339 -0.6327
15120SOL    HW250299   4.335   1.605   8.073 -0.2216 -0.3876  1.3695
15121SOL     OW50300   2.864   0.194   5.535 -0.5861 -0.1110 -0.0933
15121SOL    HW150301   2.904   0.265   5.587 -0.3240 -0.6583  0.4620
15121SOL    HW250302   2.770   0.211   5.540 -0.5066  0.4666 -0.3651
15122SOL     OW50303   0.741   9.534   9.285 -0.0857  0.4974  0.1901
15122SOL    HW150304   0.704   9.620   9.265  2.5907  1.5309 -0.8259
15122SOL    HW250305   0.727   9.482   9.206 -0.2473  0.5435  0.1883
15123SOL     OW50306   4.623   5.705   5.272  0.0560 -0.8804  0.1598
15123SOL    HW150307   4.649   5.793   5.301  1.7979 -1.5565  0.8012
15123SOL    HW250308   4.581   5.719   5.187 -1.5149  0.7566  1.1386
15124SOL     OW50309   7.373   7.190   4.203 -0.0425  0.5227 -0.8639
15124SOL    HW150310   7.365   7.280   4.171 -0.3436  0.1695 -1.8024
15124SOL    HW250311   7.387   7.138   4.125  0.1206 -0.2566 -0.3248
15125SOL     OW50312   5.056  11.335   3.809 -0.1189  0.5756 -0.0057
15125SOL    HW150313   5.115  11.385   3.865  0.6236  1.1794 -1.3001
15125SOL    HW250314   5.113  11.272   3.764 -0.4959  0.9359 -1.0103
15126SOL     OW50315   8.730   3.224   0.364  0.0896 -0.5370 -0.0143
15126SOL    HW150316   8.817   3.190   0.341 -0.0625 -0.9874  0.0837
15126SOL    HW250317   8.670   3.184   0.302 -0.2660 -1.4601  0.8973
15127SOL     OW50318   1.770   0.124  10.294  0.1906  0.0370 -0.4567
15127SOL    HW150319   1.738   0.042  10.257 -0.2525 -0.1827  0.3700
15127SOL    HW250320   1.743   0.120  10.386  0.0346  1.1715 -0.4407
15128SOL     OW50321   8.821  10.177   9.109 -0.1025 -0.2732  0.1803
15128SOL    HW150322   8.846  10.252   9.055  2.1744 -1.0880 -0.0360
15128SOL    HW250323   8.796  10.110   9.046  0.7685 -0.6303  0.1998
15129SOL     OW50324   1.743  10.194   3.831 -0.1942 -0.1255  0.7164
15129SOL    HW150325   1.821  10.225   3.785 -0.3250 -1.3466 -0.3988
15129SOL    HW250326   1.776  10.154   3.911  0.0828  1.5970  1.5020
15130SOL     OW50327  11.372   3.625  10.811 -0.5066  0.3517  0.0579
15130SOL    HW150328  11.462   3.635  10.782 -1.0468  0.9954 -1.5429
15130SOL    HW250329  11.373   3.551  10.871  1.1283  0.5687  0.3266
15131SOL     OW50330   2.594   0.371   1.078  0.0540  0.0341 -0.8242
15131SOL    HW150331   2.522   0.341   1.022 -1.2377  0.7974  0.3521
15131SOL    HW250332   2.671   0.369   1.022 -0.8292 -1.0738 -2.0548
15132SOL     OW50333   9.031   1.358   8.446  0.4000  0.0672 -0.6203
15132SOL    HW150334   9.036   1.432   8.507 -1.1905  0.3044 -0.7402
15132SOL    HW250335   9.041   1.281   8.501 -2.0836  0.2249  0.1915
15133SOL     OW50336   5.673  10.396   4.039  0.3732 -0.0575 -0.4644
15133SOL    HW150337   5.591  10.391   3.990 -1.0454 -1.3292  1.8410
15133SOL    HW250338   5.737  10.349   3.985 -0.9340 -0.7972 -1.4039
15134SOL     OW50339   5.765   5.571   5.933 -0.4956  0.1542 -0.2969
15134SOL    HW150340   5.780   5.573   6.028  0.5136 -1.0116 -0.3987
15134SOL    HW250341   5.774   5.478   5.910  0.5276  0.5730 -1.7176
15135SOL     OW50342   4.559   7.574   6.646 -0.1074 -0.0408 -0.4151
15135SOL    HW150343   4.648   7.563   6.613 -0.1416  1.9375 -1.2798
15135SOL    HW250344   4.568   7.566   6.741  0.9956  0.1473 -0.4919
15136SOL     OW50345   8.156   3.860   8.954 -0.1856  0.8613 -0.7306
15136SOL    HW150346   8.251   3.855   8.954  0.0870  3.9686 -0.0670
15136SOL    HW250347   8.132   3.874   8.862 -0.0462  0.0832 -0.8957
15137SOL     OW50348   8.144   3.812  10.387 -0.1140 -0.4214 -0.1829
15137SOL    HW150349   8.169   3.870  10.315  0.6213 -0.7130 -0.1756
15137SOL    HW250350   8.060   3.846  10.418 -0.3926 -0.2281 -1.1090
15138SOL     OW50351   3.268   4.865   3.973 -0.4938 -0.7269 -0.8158
15138SOL    HW150352   3.290   4.790   4.029  0.0119  0.6344  0.8990
15138SOL    HW250353   3.306   4.940   4.018 -2.7260  0.8453 -1.4175
15139SOL     OW50354   4.051   5.354  10.949 -1.0402  0.0039  0.4177
15139SOL    HW150355   4.074   5.262  10.964 -2.1308 -0.3897 -0.1697
15139SOL    HW250356   4.123   5.404  10.988  1.0546 -1.1068 -1.7921
15140SOL     OW50357   5.385   0.335  10.254  0.5291  0.5137  0.2067
15140SOL    HW150358   5.451   0.343  10.323  1.7977  0.3749 -0.9455
15140SOL    HW250359   5.416   0.393  10.185 -1.1155  1.2194  0.0184
15141SOL     OW50360   0.485  10.695   0.150 -0.4885 -0.1615 -0.0067
15141SOL    HW150361   0.468  10.735   0.235 -2.2288 -1.0442  0.1012
15141SOL    HW250362   0.519  10.608   0.170  0.5882  0.1925 -0.2355
15142SOL     OW50363  10.262   2.699   6.687 -0.1786  0.2608 -0.1790
15142SOL    HW150364  10.295   2.645   6.759 -1.1627  0.0975  0.1571
15142SOL    HW250365  10.271   2.789   6.718 -0.2659  0.2080 -0.0020
15143SOL     OW50366   9.994   8.133   2.833 -0.2231  0.2896 -0.6086
15143SOL    HW150367  10.006   8.223   2.802 -2.1436  0.3271 -1.3949
15143SOL    HW250368   9.900   8.127   2.852 -0.5092 -2.0694 -2.3782
15144SOL     OW50369   2.190   5.076   9.679 -0.1898  0.3728 -0.7460
15144SOL    HW150370   2.139   5.143   9.723  0.5441  0.0004  0.7566
15144SOL    HW250371   2.138   4.996   9.687  0.4267  0.0734  0.4512
15145SOL     OW50372  11.001   4.157   1.938 -0.1409 -0.0055 -0.1677
15145SOL    HW150373  11.021   4.168   1.845 -2.3256 -0.1076 -0.7051
15145SOL    HW250374  11.026   4.066   1.958 -0.4254 -0.2465 -0.8892
15146SOL     OW50375   9.982   0.602   9.463 -0.0147 -0.1362  0.0120
15146SOL    HW150376  10.057   0.620   9.405  1.1593 -0.1261  1.4837
15146SOL    HW250377   9.975   0.680   9.517 -0.7768 -0.3570  0.2333
15147SOL     OW50378   5.157   5.630   6.968 -0.4239  0.0253 -0.3497
15147SOL    HW150379   5.076   5.602   7.011 -0.6047 -0.2616 -0.8745
15147SOL    HW250380   5.132   5.705   6.915 -0.5537 -0.6256 -1.2431
15148SOL     OW50381   0.678   6.281   0.834 -0.2903  0.2991 -0.0244
15148SOL    HW150382   0.726   6.281   0.750 -0.1335 -1.2352  0.0364
15148SOL    HW250383   0.693   6.194   0.870 -0.2091  0.9880  1.7118
15149SOL     OW50384  11.147   7.028   4.432 -0.2328  0.1017  0.4619
15149SOL    HW150385  11.059   7.013   4.400 -0.1739 -0.7870  0.6871
15149SOL    HW250386  11.139   7.023   4.528  0.2817 -1.3262  0.4443
15150SOL     OW50387   8.151  11.652  11.099 -0.1285 -0.0570 -0.0908
15150SOL    HW150388   8.155  11.730  11.044 -0.1513 -1.0871 -1.6195
15150SOL    HW250389   8.229  11.602  11.075  0.1855 -0.2761  1.2724
15151SOL     OW50390   9.879   3.888  11.252 -0.3340 -0.5758 -0.0333
15151SOL    HW150391   9.931   3.884  11.332 -0.6130 -2.2239  0.1134
15151SOL    HW250392   9.872   3.981  11.231 -0.1403 -0.1281  1.7795
15152SOL     OW50393  11.197   2.659   5.045  0.4485 -0.3902  0.6145
15152SOL    HW150394  11.232   2.718   4.979  1.6307 -1.2916  0.4009
15152SOL    HW250395  11.166   2.583   4.996 -0.0935 -0.4141  0.9760
15153SOL     OW50396   1.628   0.382   9.051  0.1498  0.2763  0.7035
15153SOL    HW150397   1.599   0.406   8.963  0.5623  0.1206  0.5198
15153SOL    HW250398   1.616   0.462   9.102 -0.3001  0.3041  0.5600
15154SOL     OW50399   5.036   1.075   9.125  0.4296  0.0442 -0.1778
15154SOL    HW150400   4.959   1.031   9.162 -0.0533 -0.4348 -1.6939
15154SOL    HW250401   5.014   1.089   9.033  1.7849  0.7697 -0.4152
15155SOL     OW50402   3.078   5.954   1.537 -0.4690  0.0837  0.3085
15155SOL    HW150403   3.070   5.868   1.496 -1.8287  1.3395 -2.3723
15155SOL    HW250404   3.163   5.953   1.580  0.2560 -2.0617 -1.0254
15156SOL     OW50405   5.435   3.452   6.581 -0.0012  0.4009 -0.3062
15156SOL    HW150406   5.523   3.478   6.555 -0.2290  0.9947 -0.5134
15156SOL    HW250407   5.378   3.518   6.541 -0.5067  0.2621  0.1666
15157SOL     OW50408   2.850   7.491   1.944 -0.1699 -0.1021 -0.0709
15157SOL    HW150409   2.772   7.541   1.967  0.6295  1.6544 -0.9919
15157SOL    HW250410   2.918   7.524   2.004  0.4701  0.2314 -0.9607
15158SOL     OW50411   6.766  10.740   1.658 -0.1063  0.0245  0.0655
15158SOL    HW150412   6.785  10.750   1.751  0.9558 -0.5392 -0.0738
15158SOL    HW250413   6.845  10.773   1.614 -1.0170  1.3140 -0.6818
15159SOL     OW50414  11.488   9.325   8.271  0.0042 -0.3413 -0.3426
15159SOL    HW150415  11.517   9.244   8.229 -0.9664 -1.6599  1.3769
15159SOL    HW250416  11.569   9.371   8.294  0.5637 -0.5769 -1.7670
15160SOL     OW50417   3.924   4.031  11.037 -0.4837  0.1070 -0.0447
15160SOL    HW150418   3.905   3.954  10.983 -0.8703  0.4832 -0.4621
15160SOL    HW250419   3.938   4.102  10.973 -0.9839  0.5662  0.3475
15161SOL     OW50420   2.699   2.843   7.167 -0.1659 -0.1934 -0.6168
15161SOL    HW150421   2.615   2.887   7.183 -0.3716 -0.9385  0.3959
15161SOL    HW250422   2.702   2.773   7.231  0.2622 -1.5496 -2.0643
15162SOL     OW50423  10.926   7.060  10.523  0.3608 -0.3842 -0.1659
15162SOL    HW150424  10.918   7.124  10.594  0.8081  0.2209 -0.6515
15162SOL    HW250425  10.908   6.976  10.565 -1.0823  0.1324  0.3036
15163SOL     OW50426   5.120   8.884   6.742 -0.2514 -0.1661  0.1963
15163SOL    HW150427   5.119   8.940   6.664  0.5605  0.7521  0.8092
15163SOL    HW250428   5.156   8.801   6.712 -2.2407 -0.6862 -0.9117
15164SOL     OW50429   4.833   5.811   5.047  0.0728 -0.5695 -0.0296
15164SOL    HW150430   4.826   5.750   4.974  0.2099  0.0652 -0.5885
15164SOL    HW250431   4.871   5.759   5.118  0.1794 -1.1331 -0.4870
15165SOL     OW50432   4.403   3.179   8.008 -0.2616  0.1794 -0.0104
15165SOL    HW150433   4.371   3.128   7.934  0.6847 -0.0927 -0.2458
15165SOL    HW250434   4.487   3.214   7.978 -0.0469  0.3717  0.8026
15166SOL     OW50435   2.918   7.633   3.142 -0.0279 -0.7513  0.0278
15166SOL    HW150436   2.916   7.570   3.069  0.6991 -0.9175  0.1399
15166SOL    HW250437   2.929   7.579   3.220 -1.1657 -0.6013  0.3187
15167SOL     OW50438   7.487  11.185   1.242  0.7034  0.0183 -0.1209
15167SOL    HW150439   7.521  11.225   1.322  0.4648 -0.4660  0.2252
15167SOL    HW250440   7.414  11.241   1.216  0.9387  0.3207 -0.1475
15168SOL     OW50441   6.726   2.406   3.483  0.2571  0.0874 -0.7910
15168SOL    HW150442   6.746   2.336   3.545 -0.2498 -0.4968 -1.2793
15168SOL    HW250443   6.784   2.391   3.409  2.0735  1.7593  0.1928
15169SOL     OW50444   1.276  10.570   0.126  0.3755 -0.1321 -0.7447
15169SOL    HW150445   1.350  10.589   0.183 -0.1260 -0.1038 -0.0945
15169SOL    HW250446   1.312  10.515   0.057  1.2060  0.6849 -0.9774
15170SOL     OW50447   3.345   2.325   3.137  0.3652  0.2487 -0.1785
15170SOL    HW150448   3.322   2.344   3.228 -0.4407 -0.6497 -0.1690
15170SOL    HW250449   3.440   2.325   3.135  0.4254 -0.9786  0.9723
15171SOL     OW50450  11.361   0.933   1.520  0.2797  0.2389  0.3409
15171SOL    HW150451  11.306   0.948   1.596  1.8202 -1.1468  1.8241
15171SOL    HW250452  11.307   0.959   1.445 -2.1648 -0.5577  1.7172
15172SOL     OW50453   3.125   3.115   4.250 -0.2482  0.5753 -0.1344
15172SOL    HW150454   3.128   3.127   4.345 -0.6363 -0.7028  0.0474
15172SOL    HW250455   3.037   3.144   4.225 -0.4847 -0.0026  0.0278
15173SOL     OW50456   5.009   6.792   6.173  0.6618 -0.1173 -0.1019
15173SOL    HW150457   5.003   6.887   6.170  0.9349 -0.1135 -0.6436
15173SOL    HW250458   5.012   6.765   6.081 -1.5782 -0.8102 -0.0112
15174SOL     OW50459   8.196   1.655   2.051 -0.2283  0.1722 -0.4436
15174SOL    HW150460   8.181   1.743   2.017  2.0391  0.0286 -2.0433
15174SOL    HW250461   8.270   1.665   2.111 -0.3865 -0.5487 -0.1177
15175SOL     OW50462   0.523   4.402   3.376 -0.1416 -0.0881 -0.1345
15175SOL    HW150463   0.568   4.485   3.391 -0.7488  0.0524  0.9772
15175SOL    HW250464   0.594   4.340   3.357  0.3382  0.6092 -0.6368
15176SOL     OW50465  10.346   0.640   2.737  0.5362 -0.0334  0.4525
15176SOL    HW150466  10.311   0.694   2.666 -0.0461 -1.0301 -0.0475
15176SOL    HW250467  10.398   0.700   2.790 -1.2296  1.3350  0.7208
15177SOL     OW50468   5.900  11.007   2.671 -0.6270 -0.1036  0.1068
15177SOL    HW150469   5.990  10.992   2.644 -0.4635  2.0111 -0.6809
15177SOL    HW250470   5.899  10.983   2.764  0.0468 -2.6305 -0.4652
15178SOL     OW50471   1.459   8.335   5.297  0.0719 -0.3291 -0.2593
15178SOL    HW150472   1.412   8.418   5.286 -1.3453 -1.1198 -0.5264
15178SOL    HW250473   1.436   8.306   5.385  2.0739  0.4283  0.5553
15179SOL     OW50474   1.934  10.251  11.266 -0.7655 -0.3450 -0.0147
15179SOL    HW150475   1.984  10.170  11.251  0.2831  0.1926  0.4766
15179SOL    HW250476   1.858  10.223  11.316 -0.1018 -0.9521  0.6854
15180SOL     OW50477   7.159   0.504   9.721  0.3245 -0.5127  0.2888
15180SOL    HW150478   7.157   0.454   9.639  0.5481  0.1001 -0.0985
15180SOL    HW250479   7.249   0.536   9.727  0.1814 -0.1479  0.5242
15181SOL     OW50480   7.315   3.709  11.343 -0.7444  0.2106 -0.4873
15181SOL    HW150481   7.248   3.648  11.374 -0.2137 -0.3166 -0.3471
15181SOL    HW250482   7.267   3.775  11.294 -1.4671  0.3542  0.3818
15182SOL     OW50483   9.737  10.501   5.372 -0.1775 -0.3347  0.3555
15182SOL    HW150484   9.691  10.452   5.304  0.0627 -0.2674  0.1405
15182SOL    HW250485   9.711  10.459   5.454  1.0905 -1.7150  0.0909
15183SOL     OW50486   3.745   8.693   9.061 -0.3957 -0.5220  0.2509
15183SOL    HW150487   3.837   8.665   9.061 -0.1141  0.3686  0.7581
15183SOL    HW250488   3.749   8.787   9.079 -1.5012 -0.7889  2.1596
15184SOL     OW50489   4.530   8.388   7.687 -0.0781 -0.5476 -0.4254
15184SOL    HW150490   4.500   8.406   7.598 -0.6221  0.9775  0.0436
15184SOL    HW250491   4.555   8.473   7.722 -2.4102 -0.6282  1.7734
15185SOL     OW50492   8.773   7.327   3.777  0.2197 -0.4538  0.0451
15185SOL    HW150493   8.824   7.330   3.696  0.1811  0.1076  0.0368
15185SOL    HW250494   8.685   7.304   3.749 -0.2374  1.5521 -0.3124
15186SOL     OW50495   8.707   5.163  10.763 -0.1218  0.2814 -0.4831
15186SOL    HW150496   8.771   5.212  10.815  0.0162 -0.2530 -0.1392
15186SOL    HW250497   8.757   5.090  10.726 -0.1319  0.8800 -1.7074
15187SOL     OW50498   1.171  10.393   0.879 -0.0270 -0.1339 -0.5274
15187SOL    HW150499   1.193  10.465   0.819  1.5221 -0.0517  0.1172
15187SOL    HW250500   1.247  10.336   0.878 -0.0066 -0.1898  1.2853
15188SOL     OW50501  11.457   2.855   8.709  0.5316 -0.2173  1.1881
15188SOL    HW150502  11.552   2.841   8.705  0.3240 -1.5895  0.4473
15188SOL    HW250503  11.427   2.798   8.779  0.0265 -1.3990  0.0576
15189SOL     OW50504   3.392   5.302   8.436  0.2165 -0.4390 -0.6270
15189SOL    HW150505   3.477   5.344   8.422 -0.4362  2.0303  1.7951
15189SOL    HW250506   3.407   5.240   8.507  0.2299 -0.8432 -0.9820
15190SOL     OW50507   4.221   4.369   9.040 -0.5926  0.2396 -0.3842
15190SOL    HW150508   4.292   4.354   9.103  0.8340  2.4598 -1.3725
15190SOL    HW250509   4.215   4.287   8.991  1.0339 -0.1157 -0.0344
15191SOL     OW50510   3.991  10.216   0.662 -0.1668 -0.2944  0.0924
15191SOL    HW150511   4.029  10.301   0.684 -1.2158  0.4425 -0.8393
15191SOL    HW250512   3.929  10.199   0.733  0.2584 -0.4354  0.4362
15192SOL     OW50513   1.580   0.149   0.770 -0.7503 -0.2027  0.4566
15192SOL    HW150514   1.528   0.070   0.761 -0.4121 -0.4153  0.3482
15192SOL    HW250515   1.537   0.214   0.715 -1.1472 -0.2495  0.7105
15193SOL     OW50516   4.779   2.921   5.224  0.5655 -0.7880 -0.3027
15193SOL    HW150517   4.790   2.878   5.139  1.2667 -0.5765 -0.3251
15193SOL    HW250518   4.698   2.972   5.215 -1.1051 -3.1852  0.1810
15194SOL     OW50519   7.172   5.077   4.637  0.0437 -0.5050  0.3011
15194SOL    HW150520   7.176   5.021   4.714 -1.4596  1.0973  1.6098
15194SOL    HW250521   7.152   5.164   4.671  0.0718  0.3975 -1.8430
15195SOL     OW50522   2.837  10.993   8.442 -0.0700  0.2184 -0.2282
15195SOL    HW150523   2.877  10.919   8.397  0.8715  0.2390  0.5279
15195SOL    HW250524   2.870  11.070   8.397  0.3386  0.2182  0.0616
15196SOL     OW50525   6.918   2.653   1.132 -0.1083  0.4807  0.5586
15196SOL    HW150526   7.005   2.629   1.103  0.5382  3.2635 -0.1093
15196SOL    HW250527   6.932   2.719   1.200 -1.7051 -0.1832  1.6129
15197SOL     OW50528   3.326   8.876   8.880  0.3137 -0.2271  0.5244
15197SOL    HW150529   3.326   8.796   8.933 -0.2961 -0.1933  0.5919
15197SOL    HW250530   3.233   8.896   8.869  0.4419 -0.0784 -0.3260
15198SOL     OW50531   9.617   3.588   7.184  0.5380  0.4901  0.5156
15198SOL    HW150532   9.536   3.625   7.219  0.6211  0.3834  0.8172
15198SOL    HW250533   9.591   3.503   7.150  0.5424  0.4176  0.6948
15199SOL     OW50534   4.118   7.571  10.155  0.5307 -0.4864 -0.0093
15199SOL    HW150535   4.197   7.617  10.181  1.4324 -2.1180  0.2800
15199SOL    HW250536   4.149   7.500  10.099 -0.7160 -1.2074  0.1776
15200SOL     OW50537   1.653   6.028  10.921  0.2840  0.3257 -0.2228
15200SOL    HW150538   1.721   6.028  10.854  1.5889  0.2253  1.0451
15200SOL    HW250539   1.573   6.050  10.874  1.3388  1.3990 -1.6228
15201SOL     OW50540   3.492   4.653  10.215 -0.2996 -0.4427  0.2541
15201SOL    HW150541   3.493   4.567  10.171  0.2885 -0.1895 -0.2443
15201SOL    HW250542   3.439   4.639  10.293 -0.5261 -1.1695 -0.0167
15202SOL     OW50543   2.057   6.611   7.177  0.1341 -0.3271 -0.2092
15202SOL    HW150544   1.967   6.609   7.144  0.1285  0.9811 -0.3188
15202SOL    HW250545   2.102   6.673   7.120  0.7910 -0.0355  0.6119
15203SOL     OW50546   3.696   1.827   1.974 -0.3489 -0.3334  0.2709
15203SOL    HW150547   3.613   1.788   1.948  0.7547 -0.9628 -2.6870
15203SOL    HW250548   3.730   1.769   2.042 -1.0856 -1.6065 -0.4237
15204SOL     OW50549   7.261   1.874   5.821 -0.5117  0.5055 -0.4564
15204SOL    HW150550   7.193   1.807   5.807  1.3904 -1.6485 -0.0419
15204SOL    HW250551   7.266   1.920   5.737 -1.9062  0.1423 -0.7632
15205SOL     OW50552   5.282   1.911   2.779 -0.4292 -0.4013  0.4844
15205SOL    HW150553   5.319   1.886   2.864  1.4860 -0.4082 -0.3056
15205SOL    HW250554   5.267   2.005   2.786  1.5898 -0.0104  0.2209
15206SOL     OW50555   6.508   4.745   5.756  0.7595  0.3333 -0.1259
15206SOL    HW150556   6.479   4.727   5.845  1.4332  3.2037  0.7674
15206SOL    HW250557   6.498   4.839   5.746 -0.0362  0.0233 -3.4008
15207SOL     OW50558   2.178   8.306   5.569 -0.1849 -0.2960  0.0922
15207SOL    HW150559   2.153   8.385   5.618  1.2276 -0.6520  1.4382
15207SOL    HW250560   2.218   8.248   5.634  1.2826 -1.0115 -1.3726
15208SOL     OW50561   0.390   8.636   0.125 -0.4674  0.1941 -0.1330
15208SOL    HW150562   0.339   8.705   0.168  0.2074 -0.7564  2.3775
15208SOL    HW250563   0.410   8.574   0.195  0.8212 -1.4495 -1.8549
15209SOL     OW50564   2.022   7.189   7.342 -0.1521 -0.8527  0.0266
15209SOL    HW150565   2.014   7.258   7.276  1.9613  0.6980  1.2386
15209SOL    HW250566   2.076   7.122   7.300 -0.1953 -0.6456 -0.3618
15210SOL     OW50567   7.464   9.880   3.908  0.3061  0.5681 -0.4809
15210SOL    HW150568   7.518   9.864   3.831  1.3975  0.5097  0.2806
15210SOL    HW250569   7.374   9.880   3.875  0.7517  0.4176 -1.7239
15211SOL     OW50570   1.621   5.351   7.538  0.1083  0.3468 -0.3401
15211SOL    HW150571   1.673   5.271   7.527 -2.1658 -1.0584 -1.8616
15211SOL    HW250572   1.685   5.421   7.549  2.2190 -1.5037 -0.1908
15212SOL     OW50573   3.415   9.770   9.000 -0.0314  0.1256 -0.4345
15212SOL    HW150574   3.400   9.708   8.928  0.9313  2.5059 -2.8647
15212SOL    HW250575   3.482   9.728   9.054 -0.1801 -1.3961 -1.3745
15213SOL     OW50576   7.221   1.709   7.775 -0.5843  0.1565  0.3175
15213SOL    HW150577   7.302   1.726   7.824 -0.9517  1.8867  0.4170
15213SOL    HW250578   7.200   1.618   7.793  0.7431 -0.0061  1.1987
15214SOL     OW50579   0.401   2.802   9.845  0.0955  0.6246 -0.5134
15214SOL    HW150580   0.325   2.843   9.802 -0.4410 -1.7721 -2.0612
15214SOL    HW250581   0.458   2.875   9.867 -2.7024  2.5666  0.9043
15215SOL     OW50582   7.825   9.193   2.769  0.2604  0.7690  0.6687
15215SOL    HW150583   7.777   9.227   2.694 -0.2216  0.4951  0.8458
15215SOL    HW250584   7.892   9.136   2.732 -0.7105 -0.2809  0.4916
15216SOL     OW50585   4.909   4.155   5.031 -0.1373  0.3362 -0.1665
15216SOL    HW150586   4.991   4.105   5.035  0.3835  1.0983 -0.9546
15216SOL    HW250587   4.854   4.117   5.100  0.3958 -1.0336 -0.4587
15217SOL     OW50588   2.165   7.235   3.435 -0.0060 -0.1434  0.2184
15217SOL    HW150589   2.181   7.276   3.350  0.0707 -0.3026  0.1559
15217SOL    HW250590   2.115   7.300   3.484  0.4959  0.1993  0.2778
15218SOL     OW50591   0.542   5.658   8.194  0.0418  0.0178 -0.1535
15218SOL    HW150592   0.476   5.716   8.231  0.1601 -0.9294  1.6509
15218SOL    HW250593   0.542   5.678   8.100  0.3770  3.1587  0.4126
15219SOL     OW50594   6.465   1.526   6.306 -0.2418 -0.2698  0.3329
15219SOL    HW150595   6.384   1.480   6.284 -0.9700  0.5603  1.2047
15219SOL    HW250596   6.524   1.508   6.233 -1.0757 -1.2085 -0.1255
15220SOL     OW50597   0.037   6.418   6.255 -0.0682 -0.8236 -0.7799
15220SOL    HW150598   0.039   6.458   6.169  0.3345  0.3814 -0.2256
15220SOL    HW250599   0.052   6.490   6.316  1.0364 -1.8615  0.2352
15221SOL     OW50600   7.083   4.602   2.045  0.3611 -0.1832  0.2426
15221SOL    HW150601   7.147   4.635   2.108 -0.8626  0.5201  1.1693
15221SOL    HW250602   7.039   4.680   2.012 -0.1457 -0.6628 -0.2300
15222SOL     OW50603   4.304   7.134   8.068  0.3072 -0.2123 -0.4226
15222SOL    HW150604   4.276   7.166   8.154  1.7034 -1.4533  0.5552
15222SOL    HW250605   4.393   7.167   8.058  0.5681 -1.0284 -0.8827
15223SOL     OW50606   2.548   6.171   3.637  0.3988 -0.0058 -0.2996
15223SOL    HW150607   2.565   6.213   3.721 -0.8954  2.2664 -1.0870
15223SOL    HW250608   2.518   6.242   3.580  0.1957 -1.6575 -2.3758
15224SOL     OW50609   2.536   0.244   6.062  0.3294 -0.8066  0.5349
15224SOL    HW150610   2.550   0.152   6.087  0.9615 -0.6298  0.8477
15224SOL    HW250611   2.524   0.289   6.145 -1.6289 -0.8552  0.3145
15225SOL     OW50612   0.580  11.056   7.388 -0.1426 -0.0228 -0.0020
15225SOL    HW150613   0.563  10.989   7.455  1.5810 -0.5587 -0.0484
15225SOL    HW250614   0.665  11.031   7.350  0.0262  1.5913 -0.7692
15226SOL     OW50615   9.577   4.302   3.803  0.1770 -0.0172  0.3756
15226SOL    HW150616   9.566   4.321   3.897  0.8671 -0.4581  0.5521
15226SOL    HW250617   9.643   4.364   3.773  3.3220 -2.6329  1.2131
15227SOL     OW50618   9.055   8.569  10.219 -0.0637 -0.2013 -0.3199
15227SOL    HW150619   9.096   8.612  10.295  0.9917  1.3426 -1.6832
15227SOL    HW250620   8.977   8.622  10.202  1.0831  1.1208 -1.8240
15228SOL     OW50621   1.559   4.350   0.377 -0.2306 -0.2888  0.0789
15228SOL    HW150622   1.531   4.274   0.326 -1.2510  0.1661 -0.0464
15228SOL    HW250623   1.542   4.425   0.320  3.1741 -0.0661 -0.8827
15229SOL     OW50624  11.029   0.351   1.516  0.4811  0.4220 -0.5048
15229SOL    HW150625  11.100   0.311   1.566 -1.1461 -2.1046 -0.0118
15229SOL    HW250626  10.964   0.375   1.581 -0.6331 -0.6735 -1.1794
15230SOL     OW50627   4.954  11.674   8.263  0.3883  0.8746 -0.5137
15230SOL    HW150628   4.987  11.748   8.212 -0.6271 -0.4203 -3.2363
15230SOL    HW250629   4.859  11.673   8.245  0.1585 -0.2373  0.6323
15231SOL     OW50630   6.168   8.415   7.220  0.3013 -0.0583  0.0619
15231SOL    HW150631   6.190   8.388   7.131  3.9008 -1.4017  1.1660
15231SOL    HW250632   6.201   8.343   7.275 -0.5615  1.3423  2.5541
15232SOL     OW50633  10.336   0.007   6.622 -0.6046 -0.5085  0.0644
15232SOL    HW150634  10.431   0.017   6.629 -0.3196 -2.5001 -0.2476
15232SOL    HW250635  10.301   0.091   6.650  1.2094 -0.1841  1.5677
15233SOL     OW50636   6.136   6.605   2.396 -0.3084  0.3898  0.2466
15233SOL    HW150637   6.080   6.679   2.418 -1.3389 -0.8421  1.9119
15233SOL    HW250638   6.224   6.643   2.387 -0.7898  1.7762  1.2173
15234SOL     OW50639   6.741   0.017  11.408  0.3557 -0.2430  0.1205
15234SOL    HW150640   6.700  -0.035  11.477  1.0175 -0.7325  0.1575
15234SOL    HW250641   6.788  -0.047  11.355 -0.7842  0.0078 -1.2636
15235SOL     OW50642   1.196   1.419   6.374 -0.5419 -0.3339 -0.3350
15235SOL    HW150643   1.127   1.485   6.384  1.4041  1.8962 -0.7351
15235SOL    HW250644   1.226   1.431   6.284  0.5803 -1.0367 -0.0618
15236SOL     OW50645   3.113   7.759   2.653 -0.1296 -0.5483 -0.0807
15236SOL    HW150646   3.135   7.686   2.710 -0.5644 -2.0541 -1.7225
15236SOL    HW250647   3.146   7.733   2.567 -0.4343  1.1281 -0.7427
15237SOL     OW50648   0.429   4.253   1.506 -0.1477  0.3852 -0.1686
15237SOL    HW150649   0.354   4.210   1.549  1.1262 -2.7733 -0.8656
15237SOL    HW250650   0.402   4.263   1.415 -0.2183  0.4777 -0.1375
15238SOL     OW50651   8.123  10.625   2.460 -0.6479  0.4506  0.8261
15238SOL    HW150652   8.053  10.589   2.406  0.7710 -2.4736  0.7579
15238SOL    HW250653   8.078  10.670   2.531 -2.5447  1.1063 -0.7072
15239SOL     OW50654   0.962  10.345   6.855  0.1296  0.3391 -0.5500
15239SOL    HW150655   0.945  10.430   6.815  0.1525 -0.1095 -1.5219
15239SOL    HW250656   0.887  10.329   6.912 -0.3655  0.5516 -1.1395
15240SOL     OW50657   2.104   7.848   2.627  0.0927  0.4386 -0.2432
15240SOL    HW150658   2.023   7.893   2.605 -0.1502 -0.1275 -0.5220
15240SOL    HW250659   2.162   7.917   2.659 -0.3239  0.9232 -0.5249
15241SOL     OW50660   5.262   5.094   6.010 -0.8351 -0.0258  0.7002
15241SOL    HW150661   5.298   5.101   5.922 -0.3619  1.9778  1.0038
15241SOL    HW250662   5.247   5.001   6.023 -0.8299 -0.3688 -1.4553
15242SOL     OW50663   7.371   2.188  11.439  0.5917 -0.7025  0.1303
15242SOL    HW150664   7.301   2.219  11.382  1.2810  0.1883 -0.2605
15242SOL    HW250665   7.451   2.199  11.387  1.2005 -0.1278  1.1591
15243SOL     OW50666   6.353   6.053   2.761 -0.3241  0.2073  0.3098
15243SOL    HW150667   6.272   6.105   2.764  0.0791  0.9081 -0.6571
15243SOL    HW250668   6.326   5.969   2.725 -0.1969  1.3582 -2.7247
15244SOL     OW50669   7.060  11.298   4.122  0.2393 -0.4454  0.6368
15244SOL    HW150670   7.089  11.366   4.182 -2.0282  0.0312  1.2739
15244SOL    HW250671   6.997  11.342   4.064 -1.1850 -1.9435  0.9849
15245SOL     OW50672   1.077   3.188   1.165 -0.0714 -0.4669 -0.3095
15245SOL    HW150673   1.127   3.255   1.120 -0.6333  0.0375 -0.1940
15245SOL    HW250674   1.143   3.132   1.206  0.4093 -0.2376 -0.7671
15246SOL     OW50675   0.146   9.115  11.448 -0.1494  0.4087  0.3490
15246SOL    HW150676   0.112   9.028  11.471  0.0979 -0.8512 -3.3513
15246SOL    HW250677   0.071   9.160  11.409  0.3487  0.8142 -0.1532
15247SOL     OW50678   6.768   9.155   2.204  0.0146 -0.0338 -0.3574
15247SOL    HW150679   6.775   9.126   2.113  1.0578 -0.1275 -0.2542
15247SOL    HW250680   6.846   9.120   2.247 -1.0397 -0.9849  0.8615
15248SOL     OW50681   1.426  10.827  10.653  0.2651 -0.0672 -0.0857
15248SOL    HW150682   1.370  10.892  10.696 -0.2787 -0.2349 -0.5311
15248SOL    HW250683   1.444  10.761  10.720 -0.1846 -0.0858  0.0143
15249SOL     OW50684   1.659   9.156   4.941 -0.0191 -0.0319  0.7783
15249SOL    HW150685   1.655   9.064   4.914  1.0521  0.1984 -0.2672
15249SOL    HW250686   1.576   9.171   4.987 -1.1857 -0.9604 -0.8807
15250SOL     OW50687   0.583   1.669   6.960 -0.3330 -0.2384  0.3340
15250SOL    HW150688   0.632   1.651   6.880 -0.7180  0.8135 -0.1578
15250SOL    HW250689   0.606   1.598   7.020  0.3982 -0.7205 -0.5138
15251SOL     OW50690   5.564   2.460  11.190  0.4252  0.2081  0.0530
15251SOL    HW150691   5.614   2.449  11.271  0.8823  0.3467 -0.2048
15251SOL    HW250692   5.510   2.538  11.206 -0.9200 -0.8647  0.9295
15252SOL     OW50693   4.405   3.378   5.123  0.6027 -0.3695  0.4440
15252SOL    HW150694   4.489   3.355   5.162  0.2749 -0.4879  1.1166
15252SOL    HW250695   4.419   3.463   5.082  1.1297 -0.5359  0.2676
15253SOL     OW50696   7.665   2.348   9.278  0.3130 -0.1030  0.1594
15253SOL    HW150697   7.688   2.388   9.362 -1.1892  0.6998  0.2181
15253SOL    HW250698   7.738   2.370   9.220 -0.2211  2.3941  0.3168
15254SOL     OW50699   5.783   4.132  11.584 -0.0359 -0.4592  0.3458
15254SOL    HW150700   5.714   4.190  11.616 -2.6012 -2.3941 -1.2612
15254SOL    HW250701   5.802   4.164  11.496  0.8231 -0.2109  0.6144
15255SOL     OW50702   8.839   7.930   9.351 -0.1516 -0.2573 -0.0826
15255SOL    HW150703   8.823   8.017   9.386  1.7019 -0.2408  0.8982
15255SOL    HW250704   8.820   7.937   9.258 -0.1374  1.1742  0.0001
15256SOL     OW50705   9.772   4.781   7.531 -0.1307 -0.0855 -0.7310
15256SOL    HW150706   9.840   4.792   7.598  0.1096 -0.4270 -0.9145
15256SOL    HW250707   9.771   4.687   7.513 -1.5686 -0.2717  0.2147
15257SOL     OW50708   1.541   1.715   4.940 -0.1856 -0.9649 -0.4201
15257SOL    HW150709   1.528   1.806   4.915  1.7879 -0.5448 -0.0890
15257SOL    HW250710   1.611   1.684   4.882  0.6899 -1.5797  0.8951
15258SOL     OW50711   1.985   1.335   4.435 -0.3499  0.0607  0.0255
15258SOL    HW150712   2.076   1.363   4.432 -0.6854  1.1276 -0.6341
15258SOL    HW250713   1.954   1.361   4.522 -0.7548  2.1459 -0.6900
15259SOL     OW50714   2.687   3.261   9.151 -0.3952  0.2528  0.0307
15259SOL    HW150715   2.649   3.181   9.189 -2.2073  1.6438  1.2985
15259SOL    HW250716   2.611   3.314   9.127  0.7674  1.4322 -1.2256
15260SOL     OW50717   4.449   4.941   4.156  0.0388 -0.0983  0.4131
15260SOL    HW150718   4.383   4.891   4.204 -1.1696 -0.2390 -1.3129
15260SOL    HW250719   4.445   5.029   4.194 -1.9770  0.2075 -0.3851
15261SOL     OW50720  11.020   1.507   0.255  0.0775  0.6623  0.2693
15261SOL    HW150721  11.051   1.532   0.342  0.8949 -0.9079  0.4639
15261SOL    HW250722  10.929   1.480   0.268  0.5905 -0.8794  0.9430
15262SOL     OW50723   9.363   6.719  10.365  0.1494 -0.4836  0.3638
15262SOL    HW150724   9.400   6.805  10.343 -1.5091  0.0103 -0.7578
15262SOL    HW250725   9.436   6.669  10.399  1.7229  0.5970 -1.2353
15263SOL     OW50726   6.668   7.675   2.956  0.2152  0.2929 -0.2661
15263SOL    HW150727   6.699   7.755   2.999  0.7352  0.6760 -1.3097
15263SOL    HW250728   6.740   7.612   2.968 -0.7217 -0.4781  1.6868
15264SOL     OW50729   2.308   8.926   2.916  0.1561 -0.3202  0.2486
15264SOL    HW150730   2.250   8.948   2.844 -1.2731  1.8036  1.9109
15264SOL    HW250731   2.268   8.850   2.958 -0.9958  0.5829  0.8407
15265SOL     OW50732  10.439   1.119   3.948 -0.0777  0.3287  0.3553
15265SOL    HW150733  10.514   1.096   4.002  0.5020 -0.7678 -0.8497
15265SOL    HW250734  10.439   1.215   3.947  0.5834  0.3508  1.3432
15266SOL     OW50735  10.794   9.124   7.967  0.2761  0.2419 -0.0250
15266SOL    HW150736  10.764   9.093   7.881 -0.8125  1.7199 -0.2229
15266SOL    HW250737  10.878   9.165   7.949  0.7605 -0.7638 -0.1088
15267SOL     OW50738  10.270   5.456   3.244 -0.3874  0.8511  0.0011
15267SOL    HW150739  10.314   5.371   3.247 -0.8303  0.6417  1.9622
15267SOL    HW250740  10.337   5.519   3.272 -0.7009  0.8190  0.8497
15268SOL     OW50741   3.591   0.106   1.865  0.0593  0.2623  0.2027
15268SOL    HW150742   3.573   0.037   1.929 -2.8922  1.2180  0.5526
15268SOL    HW250743   3.668   0.075   1.817 -0.2953 -2.5681  1.2772
15269SOL     OW50744   2.486  10.816   3.078 -0.2317 -0.4994  0.1660
15269SOL    HW150745   2.438  10.760   3.016  2.5845 -2.3876 -0.4675
15269SOL    HW250746   2.493  10.764   3.157 -0.7628  0.5229  0.9200
15270SOL     OW50747   1.413  11.392   9.800  0.0795 -0.7857 -0.2320
15270SOL    HW150748   1.502  11.392   9.836  0.8782  0.1674 -2.0983
15270SOL    HW250749   1.420  11.440   9.717 -2.9510  3.0160  1.4013
15271SOL     OW50750   7.688   7.756   3.286  0.1916  0.4359 -0.3565
15271SOL    HW150751   7.647   7.670   3.288  0.0642  0.4621 -1.3248
15271SOL    HW250752   7.735   7.759   3.203 -1.2696  1.9403 -1.2043
15272SOL     OW50753   8.133   6.551  10.805  0.2129  0.0820 -0.3987
15272SOL    HW150754   8.038   6.544  10.818 -0.0469  2.1419 -0.8776
15272SOL    HW250755   8.161   6.617  10.869  1.4997 -1.1118  0.3324
15273SOL     OW50756  10.733   9.059   8.479 -0.0253 -0.0520  0.5864
15273SOL    HW150757  10.664   9.045   8.544 -2.3490  1.4627 -1.3709
15273SOL    HW250758  10.691   9.040   8.395  1.6501  1.8807 -0.7828
15274SOL     OW50759   4.206   6.095   7.150  0.0760  0.3152 -0.5386
15274SOL    HW150760   4.165   6.182   7.158 -1.0513 -0.2257 -0.1833
15274SOL    HW250761   4.182   6.050   7.231  1.3946 -0.0390 -0.3250
15275SOL     OW50762   8.540   8.811   5.696  0.1301  0.3357 -0.2832
15275SOL    HW150763   8.514   8.901   5.715  0.4511  0.0543  1.6810
15275SOL    HW250764   8.484   8.757   5.752  1.1893 -0.5836 -0.0733
15276SOL     OW50765   2.464  10.417   9.352 -0.1404 -0.0831 -0.0713
15276SOL    HW150766   2.413  10.422   9.272  1.3465  0.3634 -1.0223
15276SOL    HW250767   2.486  10.508   9.373 -3.2654  0.2302  2.7560
15277SOL     OW50768   0.600   4.618   2.465 -0.0429 -0.1689 -0.3104
15277SOL    HW150769   0.626   4.554   2.399  1.5235 -1.1426  1.1489
15277SOL    HW250770   0.505   4.623   2.459 -0.0259 -1.1412 -1.7878
15278SOL     OW50771   6.700   3.045   1.204  0.2336  0.1485  0.2701
15278SOL    HW150772   6.608   3.030   1.183  0.7362 -1.5322 -0.9360
15278SOL    HW250773   6.713   3.138   1.189 -1.1404  0.3075 -0.0641
15279SOL     OW50774   0.718   0.136   1.023  0.5850  0.4711  0.4690
15279SOL    HW150775   0.694   0.135   0.930  0.0857 -2.4963  0.5539
15279SOL    HW250776   0.814   0.134   1.023  0.5756  0.0023  0.0218
15280SOL     OW50777   3.698   2.909  10.866  0.4606  0.2167  0.2854
15280SOL    HW150778   3.685   2.817  10.890  0.6031  0.3863  1.0300
15280SOL    HW250779   3.778   2.909  10.814 -2.0497 -0.7966 -4.0611
15281SOL     OW50780   7.046   8.463  10.720 -0.1308 -0.0581  0.4790
15281SOL    HW150781   7.054   8.368  10.717  1.5468  0.0809 -0.8797
15281SOL    HW250782   6.999   8.480  10.802 -0.8224 -2.0502  0.5579
15282SOL     OW50783   6.775  11.528   2.060  0.1105 -0.4333  0.2045
15282SOL    HW150784   6.818  11.614   2.066  1.7491 -1.2688  1.1161
15282SOL    HW250785   6.682  11.548   2.072  0.4949  1.1736  0.8784
15283SOL     OW50786   7.043   6.048   1.601 -0.1552  0.2379  0.1568
15283SOL    HW150787   6.953   6.028   1.628  0.9639 -2.2852  2.3895
15283SOL    HW250788   7.040   6.141   1.577 -3.6364 -0.0833 -1.3069
15284SOL     OW50789   5.168   8.883  10.862 -0.0225  0.5445 -0.1313
15284SOL    HW150790   5.232   8.817  10.837 -0.7689  0.0203 -0.7183
15284SOL    HW250791   5.113   8.840  10.928 -1.7232 -0.1665 -1.8868
15285SOL     OW50792   5.970   7.944   9.283  0.7122  0.0090 -0.2928
15285SOL    HW150793   5.908   8.012   9.308  1.7688  0.5850  0.8276
15285SOL    HW250794   5.928   7.862   9.313  0.8825  0.4722  1.2975
15286SOL     OW50795   8.285   7.007   2.901 -0.0207  0.1582 -0.5284
15286SOL    HW150796   8.326   6.931   2.859 -0.9054 -0.2774 -0.6353
15286SOL    HW250797   8.192   6.999   2.878 -0.3800  0.4173  0.7607
15287SOL     OW50798  10.786   9.540   0.763  0.3803  0.4705  0.0589
15287SOL    HW150799  10.833   9.500   0.836  0.2481  2.2227  1.1579
15287SOL    HW250800  10.805   9.483   0.688  2.2852 -0.1740  0.9732
15288SOL     OW50801   1.855  10.610   4.016 -0.5944  0.0393 -0.3682
15288SOL    HW150802   1.769  10.576   3.991 -1.1530 -0.3138  1.7757
15288SOL    HW250803   1.899  10.535   4.057  0.7916  0.2103 -1.4566
15289SOL     OW50804   5.912   8.280   3.676 -0.3633 -0.0263  0.3211
15289SOL    HW150805   5.832   8.324   3.703 -0.3318  0.4954 -0.4328
15289SOL    HW250806   5.983   8.336   3.708 -0.3266  0.8692 -1.2433
15290SOL     OW50807  11.421   8.533   8.828 -0.4225  0.1895  0.3816
15290SOL    HW150808  11.420   8.623   8.863  1.0332  0.0724  0.8158
15290SOL    HW250809  11.462   8.542   8.742 -1.4845  0.1065 -0.1376
15291SOL     OW50810   9.366   2.261   0.021 -0.4479 -0.6939  0.3146
15291SOL    HW150811   9.297   2.214   0.068  0.4318 -0.9954  1.3414
15291SOL    HW250812   9.447   2.231   0.061  0.2007  0.8649  0.2252
15292SOL     OW50813   6.585   5.002   3.861 -0.2851  0.5614 -0.2412
15292SOL    HW150814   6.582   5.062   3.787 -0.0005  2.2247  1.0363
15292SOL    HW250815   6.645   5.043   3.923 -1.4269 -0.1484  1.4241
15293SOL     OW50816   0.590  11.202   5.560 -0.4382 -0.9407  0.0524
15293SOL    HW150817   0.627  11.129   5.610 -0.8294 -1.3399 -0.2280
15293SOL    HW250818   0.500  11.209   5.591 -0.2332 -0.2078  0.4798
15294SOL     OW50819  10.343   5.540   2.989  0.8232 -0.1987  0.1778
15294SOL    HW150820  10.292   5.514   3.065 -1.0921 -1.1796 -1.3556
15294SOL    HW250821  10.284   5.527   2.914  2.1702  1.9273 -1.3882
15295SOL     OW50822   6.733   8.251   5.631 -0.1885 -0.2751  0.2610
15295SOL    HW150823   6.719   8.318   5.699  0.4259  1.7948 -1.5465
15295SOL    HW250824   6.817   8.274   5.592 -0.2054 -1.8490 -0.7700
15296SOL     OW50825   9.290   6.669   2.479  0.0335 -0.1842 -0.0359
15296SOL    HW150826   9.385   6.662   2.494  0.0287 -1.1703 -0.3590
15296SOL    HW250827   9.253   6.603   2.538 -0.3611 -0.5532 -0.6850
15297SOL     OW50828   3.193   8.907  11.582 -0.0749 -0.2144  0.1102
15297SOL    HW150829   3.237   8.832  11.543  1.0641 -0.5355  1.8796
15297SOL    HW250830   3.231   8.983  11.536  1.5946 -0.5474  0.8594
15298SOL     OW50831  10.151   6.599   0.438  0.8593 -0.3078 -0.0961
15298SOL    HW150832  10.217   6.635   0.497 -0.0041  0.0939  0.6404
15298SOL    HW250833  10.152   6.505   0.455 -0.6229 -0.0409  1.9296
15299SOL     OW50834  11.578  10.731  11.312  0.0440  0.8307  0.4000
15299SOL    HW150835  11.517  10.789  11.359 -0.9610  0.0149  0.1399
15299SOL    HW250836  11.642  10.705  11.378 -2.1962 -1.5168  1.8466
15300SOL     OW50837   0.242   4.024   4.278 -0.0325 -0.5565 -0.6996
15300SOL    HW150838   0.187   3.952   4.307 -0.0982 -0.7709 -1.3402
15300SOL    HW250839   0.306   3.984   4.220  0.3597 -0.2014 -0.5164
15301SOL     OW50840   2.189   7.701  11.644 -0.5468 -0.1474  0.1562
15301SOL    HW150841   2.132   7.648  11.699  0.7516  0.8278  2.6294
15301SOL    HW250842   2.269   7.649  11.633 -0.2760  0.2161  0.3629
15302SOL     OW50843   9.600   6.585  11.505  0.1761 -0.6908 -0.1182
15302SOL    HW150844   9.549   6.618  11.432 -2.8585 -0.1696  2.0476
15302SOL    HW250845   9.646   6.661  11.540 -1.8444  0.0677  1.0592
15303SOL     OW50846   1.094   5.659   9.170  0.1580 -0.0927 -0.5329
15303SOL    HW150847   1.168   5.613   9.210 -0.4427 -1.8965 -1.3811
15303SOL    HW250848   1.090   5.742   9.217  1.8028 -0.5531  0.5355
15304SOL     OW50849  11.530   9.052   1.589  0.3152  0.1891  0.3324
15304SOL    HW150850  11.484   9.026   1.669 -1.7937 -0.4937 -1.0236
15304SOL    HW250851  11.590   8.980   1.571 -0.7349 -0.6815  0.1986
15305SOL     OW50852   8.201   8.589   1.267  0.5188 -0.7571 -0.1377
15305SOL    HW150853   8.118   8.565   1.226  0.0537 -0.2071  0.4397
15305SOL    HW250854   8.175   8.634   1.348  1.3976 -1.4340  0.5453
15306SOL     OW50855   2.131   5.388  11.464  0.0212 -0.2045  0.2323
15306SOL    HW150856   2.038   5.410  11.476  0.2773  0.4923  1.0448
15306SOL    HW250857   2.175   5.428  11.539  1.2965  1.2910 -1.2360
15307SOL     OW50858  10.607   8.559   9.647 -0.1061 -0.1959 -0.0149
15307SOL    HW150859  10.516   8.532   9.655 -0.0820 -0.2806 -0.0295
15307SOL    HW250860  10.636   8.572   9.738  0.3846 -1.8626  0.0955
15308SOL     OW50861   9.996   5.358  10.227 -0.2515 -0.0013 -0.6689
15308SOL    HW150862  10.085   5.373  10.259  0.3972  0.5184 -2.5731
15308SOL    HW250863   9.952   5.315  10.300  2.0660 -1.9345 -0.2517
15309SOL     OW50864   1.848   8.154   1.324 -0.1062  0.1786  0.1623
15309SOL    HW150865   1.878   8.065   1.343 -0.0946  0.2699  0.5891
15309SOL    HW250866   1.929   8.206   1.323 -0.0873  0.1466 -0.3271
15310SOL     OW50867   5.796   5.124   2.880  1.1671 -0.1370 -0.0853
15310SOL    HW150868   5.824   5.203   2.833  2.1946 -1.1865 -1.3186
15310SOL    HW250869   5.791   5.151   2.971 -1.4656  2.1476 -0.7473
15311SOL     OW50870   9.754   6.684  10.237  0.3937 -0.2888 -0.5429
15311SOL    HW150871   9.834   6.687  10.290 -1.4085  0.2120  2.3583
15311SOL    HW250872   9.720   6.596  10.251  0.0962 -0.2931 -1.2668
15312SOL     OW50873   7.617   9.265   1.611  0.1375  0.3302 -0.0986
15312SOL    HW150874   7.695   9.241   1.561 -0.3735 -0.1943 -0.6484
15312SOL    HW250875   7.617   9.361   1.610  1.5131  0.3907  1.0765
15313SOL     OW50876   6.619   1.366   1.552  0.9664 -0.3778 -0.3968
15313SOL    HW150877   6.644   1.417   1.474 -2.4618  1.6155 -0.3750
15313SOL    HW250878   6.544   1.314   1.524  0.5931 -0.7600  1.2016
15314SOL     OW50879   6.520   7.617   8.921  0.3286 -0.4171  0.1389
15314SOL    HW150880   6.522   7.695   8.865 -0.4299  0.6301  1.5089
15314SOL    HW250881   6.591   7.562   8.887  0.4408  0.5518 -1.2980
15315SOL     OW50882   6.249   8.228   7.643  0.7357 -0.7341  0.8760
15315SOL    HW150883   6.204   8.302   7.684 -0.7493 -2.0219  1.6804
15315SOL    HW250884   6.340   8.238   7.671  0.2306 -0.1895  2.4812
15316SOL     OW50885   3.869   5.612  11.053 -0.0827  0.8831  0.3401
15316SOL    HW150886   3.917   5.547  11.104 -0.0075  2.2752  2.1970
15316SOL    HW250887   3.825   5.563  10.985 -1.2413 -1.3498  2.5400
15317SOL     OW50888   5.197   9.343   1.108  0.3532  0.4139  0.3908
15317SOL    HW150889   5.242   9.338   1.192 -2.0052  0.9350  1.7868
15317SOL    HW250890   5.202   9.255   1.072  0.2027 -0.1893  1.7820
15318SOL     OW50891   9.714   6.654   8.565 -0.3537  0.0324  0.1680
15318SOL    HW150892   9.803   6.689   8.573 -0.3205  0.1238 -0.5334
15318SOL    HW250893   9.700   6.604   8.646  0.8681 -1.1743 -0.3388
15319SOL     OW50894   7.163  11.166   7.312 -0.3276 -0.1706  0.4151
15319SOL    HW150895   7.107  11.209   7.377  0.9319  0.9704  0.7978
15319SOL    HW250896   7.102  11.129   7.248 -1.5275  1.8267  0.3172
15320SOL     OW50897   3.497  10.422   6.860 -0.2997  0.6336 -0.0268
15320SOL    HW150898   3.544  10.361   6.917 -1.1594 -1.0561 -1.0279
15320SOL    HW250899   3.447  10.477   6.920 -1.4114 -1.2888  0.9323
15321SOL     OW50900   1.748   0.130   6.045  0.3051 -0.5153 -0.6090
15321SOL    HW150901   1.795   0.213   6.055  2.3261 -1.6243 -0.4162
15321SOL    HW250902   1.656   0.153   6.056  0.8168  1.6887 -0.5401
15322SOL     OW50903   4.242  11.634   5.305 -0.3435  0.0414 -0.0090
15322SOL    HW150904   4.176  11.565   5.305  0.2780 -0.6503 -2.4803
15322SOL    HW250905   4.324  11.588   5.324  0.2967 -0.2648 -3.0717
15323SOL     OW50906   1.840   0.585   7.541 -0.0606 -0.2329  0.5130
15323SOL    HW150907   1.818   0.630   7.459 -3.4176  0.0718  1.4114
15323SOL    HW250908   1.821   0.649   7.610  0.7338 -1.1344  1.6072
15324SOL     OW50909   6.856   7.374   7.899  0.2604 -0.2818 -0.6866
15324SOL    HW150910   6.941   7.335   7.877  0.7178 -0.0728  0.6320
15324SOL    HW250911   6.879   7.457   7.941 -0.5798 -0.4454  0.1084
15325SOL     OW50912   3.731   3.653  10.421 -0.5185 -0.0761  0.1837
15325SOL    HW150913   3.815   3.696  10.437 -0.4156 -0.2524  0.1218
15325SOL    HW250914   3.695   3.697  10.345  0.2268 -1.0097 -0.7561
15326SOL     OW50915   4.065   7.897   7.295  0.3364 -0.8055  0.9601
15326SOL    HW150916   4.068   7.853   7.210  2.2100  0.9488  0.0372
15326SOL    HW250917   4.135   7.856   7.346  2.0739  0.9465  0.1044
15327SOL     OW50918   8.137   3.407   5.478  0.0654 -0.2995 -0.0509
15327SOL    HW150919   8.122   3.479   5.416 -0.6181 -1.2051 -0.9846
15327SOL    HW250920   8.227   3.418   5.507 -0.0233  0.9120 -0.1972
15328SOL     OW50921   8.127   7.446   9.945 -0.0355  0.4390  0.0060
15328SOL    HW150922   8.155   7.375  10.003 -1.3165 -1.3595 -1.4460
15328SOL    HW250923   8.117   7.404   9.859 -1.5019  2.2371 -0.7705
15329SOL     OW50924   6.130   3.187   4.877 -0.2432  0.0799 -0.1637
15329SOL    HW150925   6.150   3.264   4.823 -1.7323  0.6742  0.0812
15329SOL    HW250926   6.123   3.115   4.815 -0.0211  0.3775 -0.5390
15330SOL     OW50927   0.513   1.538   0.229 -0.2670 -0.1086  0.3973
15330SOL    HW150928   0.433   1.508   0.273 -1.0617  2.2109  0.6539
15330SOL    HW250929   0.578   1.543   0.299 -1.1945  2.3890  1.1565
15331SOL     OW50930   8.600   1.474   9.734  0.2561 -0.2611 -0.2429
15331SOL    HW150931   8.620   1.399   9.677  1.8023 -1.2792  1.5313
15331SOL    HW250932   8.671   1.536   9.718 -1.0301  0.9403 -1.7257
15332SOL     OW50933  11.342   8.309  10.666  0.2241  0.2581 -0.7147
15332SOL    HW150934  11.354   8.232  10.610 -0.2730 -1.4030  1.3407
15332SOL    HW250935  11.253   8.338  10.648  0.4022  0.3617 -1.4775
15333SOL     OW50936   8.793   3.647   0.481  0.9506 -0.5096 -0.1058
15333SOL    HW150937   8.851   3.713   0.441  0.0659 -0.4140 -1.3052
15333SOL    HW250938   8.709   3.691   0.487  0.5179 -1.3092 -0.2553
15334SOL     OW50939  11.221   1.406  11.211 -0.0398  0.0409 -0.0456
15334SOL    HW150940  11.252   1.484  11.258 -0.1779  0.7348 -1.0806
15334SOL    HW250941  11.287   1.340  11.230 -0.3488  0.1434  1.5280
15335SOL     OW50942   9.815   3.824  10.637 -0.2275  0.1808  0.8881
15335SOL    HW150943   9.870   3.837  10.714  0.2520 -1.8406  0.9287
15335SOL    HW250944   9.732   3.790  10.673 -0.6534  0.9052  0.6233
15336SOL     OW50945  10.459   6.396   4.104  0.2182  0.1366 -0.3996
15336SOL    HW150946  10.514   6.474   4.113 -0.6627  0.9627 -1.7901
15336SOL    HW250947  10.397   6.402   4.176 -0.1284  0.9859 -0.7494
15337SOL     OW50948   3.822   5.360   1.397  0.1090 -0.0740  0.2315
15337SOL    HW150949   3.796   5.281   1.349  0.9105  0.1136 -0.5470
15337SOL    HW250950   3.822   5.429   1.330 -2.6287  1.0902  1.2611
15338SOL     OW50951   7.942   7.744   0.862 -0.5150  0.1221  0.1911
15338SOL    HW150952   7.923   7.692   0.940 -0.9447  0.8408  0.5726
15338SOL    HW250953   7.878   7.815   0.864  0.7577  1.3122  0.2887
15339SOL     OW50954   0.288   7.126  11.363  0.5279  0.0211  0.4440
15339SOL    HW150955   0.226   7.108  11.433 -0.6893  0.8078 -0.3846
15339SOL    HW250956   0.287   7.047  11.309 -1.0866  0.6174 -0.4894
15340SOL     OW50957   2.197   8.180   1.963 -0.1154 -0.0723 -0.0999
15340SOL    HW150958   2.135   8.122   1.917 -1.3704 -0.3084  1.7955
15340SOL    HW250959   2.263   8.121   1.999  1.1911  0.1608 -1.9262
15341SOL     OW50960  11.034   3.067  10.736 -0.0236 -0.3832  0.4064
15341SOL    HW150961  11.044   3.112  10.652  0.5910 -1.0669  0.1015
15341SOL    HW250962  11.103   3.001  10.736 -0.9780 -1.4073  0.7990
15342SOL     OW50963   2.560   0.266   3.740  0.4617 -0.6684  0.6501
15342SOL    HW150964   2.495   0.282   3.672 -0.8887 -1.4931  1.6938
15342SOL    HW250965   2.641   0.302   3.704 -0.8950  2.0883  0.0461
15343SOL     OW50966   8.345   7.963   5.255  0.2217  0.0635  0.2248
15343SOL    HW150967   8.411   8.018   5.212  0.6126 -0.0296  0.6960
15343SOL    HW250968   8.365   7.874   5.225 -0.6513  0.2026 -0.8459
15344SOL     OW50969   5.401  11.105   0.539 -0.2353 -0.2782 -0.0004
15344SOL    HW150970   5.314  11.137   0.515  0.2203 -0.0708 -1.4640
15344SOL    HW250971   5.395  11.010   0.528 -0.2161 -0.2420 -0.3414
15345SOL     OW50972   8.037   2.789   3.732 -0.1950  0.0016  0.1241
15345SOL    HW150973   8.002   2.877   3.724 -1.0822 -0.3266  0.2463
15345SOL    HW250974   8.029   2.767   3.825  0.3519 -0.0801  0.1572
15346SOL     OW50975   3.043  11.372   3.851 -0.2705 -0.3068  0.5601
15346SOL    HW150976   3.086  11.320   3.783  1.8698  1.2352  0.6531
15346SOL    HW250977   3.097  11.359   3.929  0.8918  2.6922  0.3630
15347SOL     OW50978   7.503   9.681  11.514 -0.3545  0.1043 -0.3002
15347SOL    HW150979   7.472   9.731  11.439 -0.1275 -2.4081 -2.2445
15347SOL    HW250980   7.574   9.733  11.551 -0.2611  1.3040 -2.0657
15348SOL     OW50981   4.794   1.901  11.360 -0.1881 -0.4595 -0.0465
15348SOL    HW150982   4.737   1.831  11.330  0.8762 -0.8772 -1.1510
15348SOL    HW250983   4.737   1.977  11.367 -1.3669 -1.4031  1.1863
15349SOL     OW50984   9.310   6.624  11.333  0.3375  0.2603  0.1111
15349SOL    HW150985   9.339   6.540  11.369  3.3854  1.5361  0.9679
15349SOL    HW250986   9.389   6.664  11.297 -0.9188  2.9368  0.0421
15350SOL     OW50987   1.594   4.440   2.092 -0.3187  0.3724 -0.2434
15350SOL    HW150988   1.541   4.402   2.022 -1.7955  1.4195  0.2434
15350SOL    HW250989   1.540   4.511   2.127  0.3152 -0.1653  2.0092
15351SOL     OW50990  10.052   0.455  10.992 -0.0654 -0.6173 -0.0737
15351SOL    HW150991  10.100   0.497  11.063 -0.5312 -0.4508  0.1456
15351SOL    HW250992  10.096   0.486  10.912 -0.2742  0.1356  0.0917
15352SOL     OW50993   4.806   8.279   5.080  0.0508  0.6083 -0.4104
15352SOL    HW150994   4.857   8.344   5.032 -0.0151  1.6789  0.9081
15352SOL    HW250995   4.860   8.200   5.079  0.0667  0.5885 -2.1727
15353SOL     OW50996   4.170   9.141   8.357  0.0743 -0.5757  0.1532
15353SOL    HW150997   4.185   9.221   8.307  1.2995 -0.3916  0.7703
15353SOL    HW250998   4.092   9.102   8.318 -0.5874  0.9508 -0.1031
15354SOL     OW50999   4.082  10.624   6.848 -0.4878  0.0821  0.1434
15354SOL    HW151000   4.079  10.631   6.753 -0.8366  0.5681  0.1882
15354SOL    HW251001   4.107  10.533   6.865 -1.0801 -0.1844 -0.3990
15355SOL     OW51002   8.642   0.805   4.338 -0.0807 -0.0422  0.1379
15355SOL    HW151003   8.576   0.858   4.294 -1.3398 -1.5186  0.1716
15355SOL    HW251004   8.655   0.730   4.281  2.3239  0.6578 -0.3476
15356SOL     OW51005   7.482   7.511  10.439  0.3074 -0.0956  0.2110
15356SOL    HW151006   7.396   7.484  10.408  0.6151 -1.0658  0.1730
15356SOL    HW251007   7.474   7.510  10.535 -0.2350  1.5625  0.2134
15357SOL     OW51008   9.104   6.634   1.708  0.3511 -0.2503 -0.3787
15357SOL    HW151009   9.185   6.639   1.757 -1.0641  2.5747  1.9434
15357SOL    HW251010   9.131   6.640   1.616  2.7322  0.5593  0.3046
15358SOL     OW51011   6.732   4.747   0.935  0.6565  0.4343 -0.2826
15358SOL    HW151012   6.729   4.760   1.030  2.4643  1.6678 -0.3432
15358SOL    HW251013   6.784   4.667   0.923  1.2016  0.7885 -0.2644
15359SOL     OW51014   4.706   3.660   4.398 -0.2188  0.1945  0.2207
15359SOL    HW151015   4.699   3.665   4.493  1.9966 -0.0410  0.4550
15359SOL    HW251016   4.797   3.634   4.382 -1.1893 -2.3197 -1.9093
15360SOL     OW51017   0.536   1.765   3.695 -0.1316  0.4421 -0.5886
15360SOL    HW151018   0.621   1.759   3.652 -0.9753 -2.0637 -2.1025
15360SOL    HW251019   0.544   1.707   3.771 -0.9229 -1.2468 -1.7116
15361SOL     OW51020   3.619   3.617   0.327 -0.3756  0.2224 -0.0076
15361SOL    HW151021   3.684   3.668   0.278  0.4682 -0.7729  0.0508
15361SOL    HW251022   3.627   3.528   0.293 -2.2898  0.2247 -0.5652
15362SOL     OW51023   0.057   5.853   7.552 -0.1806  0.3303  0.7655
15362SOL    HW151024   0.031   5.787   7.617  0.8756  0.6201  1.4953
15362SOL    HW251025   0.152   5.844   7.544 -0.3088  0.0407 -1.0514
15363SOL     OW51026   9.560   7.375   6.632  0.0717 -0.0422 -0.1568
15363SOL    HW151027   9.572   7.329   6.715 -0.6189 -1.1771 -0.6608
15363SOL    HW251028   9.480   7.427   6.645  0.0356 -0.1188 -0.0759
15364SOL     OW51029   4.769   5.420  10.525 -0.9353  0.8445 -0.0533
15364SOL    HW151030   4.749   5.396  10.616 -1.6451  2.0443  0.1292
15364SOL    HW251031   4.839   5.484  10.532  0.5351 -0.6288 -0.5082
15365SOL     OW51032   7.034   9.780   2.548  0.4255 -0.1448 -0.5198
15365SOL    HW151033   7.085   9.849   2.504 -0.8223 -0.7673 -3.1534
15365SOL    HW251034   6.963   9.828   2.591  0.5498  0.3539 -0.8541
15366SOL     OW51035   9.889  10.947   9.072 -0.1217 -0.2202 -0.2612
15366SOL    HW151036   9.931  10.917   9.152  0.0957 -0.2148 -0.3719
15366SOL    HW251037   9.957  10.997   9.026 -0.0861 -0.6598 -0.6936
15367SOL     OW51038  10.975   8.092   9.758 -0.2765  0.6443 -0.9489
15367SOL    HW151039  10.885   8.116   9.778 -0.2733  0.1894 -0.3721
15367SOL    HW251040  11.029   8.156   9.804 -0.2892  0.2459 -0.3732
15368SOL     OW51041   8.394  11.350   4.893 -0.1991 -0.3324 -0.1568
15368SOL    HW151042   8.455  11.373   4.823 -1.3596  0.9832 -0.7948
15368SOL    HW251043   8.341  11.429   4.906 -0.5495 -0.8183  1.6539
15369SOL     OW51044   3.023   6.941   5.626 -0.2901 -0.5324 -0.0976
15369SOL    HW151045   3.069   6.912   5.705 -0.2105 -1.4658 -0.4791
15369SOL    HW251046   3.036   6.871   5.563 -0.3815  0.1946 -0.9464
15370SOL     OW51047   2.871   6.513  10.026  0.0805 -0.1099 -0.0334
15370SOL    HW151048   2.795   6.562  10.056 -0.5880 -0.2973 -1.3519
15370SOL    HW251049   2.875   6.530   9.932  1.8317  0.1059  0.0458
15371SOL     OW51050   8.357   6.519   5.272  0.8618  0.4343  0.4814
15371SOL    HW151051   8.284   6.458   5.264  1.1307  0.0958  0.6014
15371SOL    HW251052   8.327   6.583   5.336  0.0964  1.1366 -0.5465
15372SOL     OW51053   3.514  11.229   8.945  0.2215 -0.6372 -0.0973
15372SOL    HW151054   3.520  11.256   9.037 -1.1189  0.3811 -0.2744
15372SOL    HW251055   3.594  11.263   8.905  0.0488  0.3598  0.3658
15373SOL     OW51056   4.376  10.688   4.342  0.2527 -0.5400 -0.0233
15373SOL    HW151057   4.282  10.687   4.324  0.0068 -0.9985  1.1658
15373SOL    HW251058   4.411  10.757   4.285 -0.8093 -0.3316 -0.4442
15374SOL     OW51059   6.374   7.982   4.014  0.1853  0.1550  0.7178
15374SOL    HW151060   6.311   7.924   4.057 -0.2401  0.8988  1.1071
15374SOL    HW251061   6.364   8.066   4.058  0.3211  0.7169 -0.2860
15375SOL     OW51062   1.086   8.050   5.356  0.5042  0.3228  0.2793
15375SOL    HW151063   1.126   7.991   5.292 -0.8748 -1.8682  1.3081
15375SOL    HW251064   1.032   8.109   5.304  1.2947  0.1769 -0.7369
15376SOL     OW51065   5.771   9.116   2.761 -0.6818 -0.4721 -0.6598
15376SOL    HW151066   5.705   9.059   2.801 -1.2534  0.9214  0.4556
15376SOL    HW251067   5.845   9.058   2.744 -1.3704 -1.6210  0.1276
15377SOL     OW51068   0.681   0.388   7.910 -0.0517  0.1467 -0.2612
15377SOL    HW151069   0.748   0.410   7.975 -1.0015  1.6428  0.2430
15377SOL    HW251070   0.675   0.466   7.854 -0.4077 -0.5029 -1.1534
15378SOL     OW51071  10.166   7.216   6.179 -0.0184 -0.0244 -0.3441
15378SOL    HW151072  10.214   7.134   6.195  0.1645  0.1354 -0.0543
15378SOL    HW251073  10.075   7.190   6.171  0.0051 -0.2225  0.0358
15379SOL     OW51074  10.136  10.312   0.289 -0.6617 -0.5041 -0.5981
15379SOL    HW151075  10.081  10.238   0.315 -1.7465  0.6739  0.6083
15379SOL    HW251076  10.222  10.293   0.329 -0.9818 -1.0113 -0.1301
15380SOL     OW51077   3.222   6.176   6.741  0.3495 -0.0811 -0.4884
15380SOL    HW151078   3.309   6.214   6.729  0.1167  0.1755 -1.4250
15380SOL    HW251079   3.162   6.251   6.732 -0.0188 -0.4076 -0.7737
15381SOL     OW51080   3.853   8.768   4.417 -0.0242  0.0713 -0.4991
15381SOL    HW151081   3.777   8.767   4.360  0.1554  0.8298 -0.7719
15381SOL    HW251082   3.852   8.856   4.456 -0.3176 -0.5123  0.9047
15382SOL     OW51083   1.100   8.546   8.072  0.1823 -0.0532  0.0586
15382SOL    HW151084   1.101   8.497   8.155 -0.7638  0.4572  0.3881
15382SOL    HW251085   1.007   8.558   8.053  0.3929  1.3248 -0.1922
15383SOL     OW51086  10.189   1.477   9.433  0.6897  0.2071  0.1051
15383SOL    HW151087  10.259   1.450   9.494  0.4232 -1.5622 -0.3147
15383SOL    HW251088  10.173   1.568   9.455  2.3014  0.3189  1.0353
15384SOL     OW51089   9.159   9.024   7.653  0.1416 -0.0364 -0.3166
15384SOL    HW151090   9.124   9.077   7.724  1.4760  0.6426 -0.1299
15384SOL    HW251091   9.093   9.030   7.584 -0.0945  1.2414 -0.0075
15385SOL     OW51092   6.232   8.783  11.395  0.0105 -0.3622  0.1874
15385SOL    HW151093   6.231   8.813  11.486  0.4398 -1.2102  0.4813
15385SOL    HW251094   6.318   8.808  11.362  0.7075 -1.9392  0.6903
15386SOL     OW51095   6.810   4.955  10.242 -0.0331 -0.0085  0.1130
15386SOL    HW151096   6.884   4.991  10.291 -0.3878  1.8150 -0.5826
15386SOL    HW251097   6.776   5.030  10.193 -1.5714 -1.0865 -0.5451
15387SOL     OW51098   0.118   2.494   2.956 -0.1960 -0.5757  0.3274
15387SOL    HW151099   0.182   2.445   3.006  0.1187  0.3125  0.7988
15387SOL    HW251100   0.072   2.427   2.904  3.0808 -1.0061 -2.3778
15388SOL     OW51101   6.664   3.843   7.104 -0.4016  0.0854  0.0833
15388SOL    HW151102   6.683   3.937   7.109 -0.7393  0.1149  0.9005
15388SOL    HW251103   6.597   3.836   7.036  0.1572  0.3472 -0.5063
15389SOL     OW51104   2.182  10.728   9.688  0.3500 -0.1173 -0.0425
15389SOL    HW151105   2.192  10.822   9.697  3.9054 -0.4111  0.5175
15389SOL    HW251106   2.229  10.691   9.763 -1.8439 -2.3807  0.3604
15390SOL     OW51107   5.037   6.428   6.628  0.5667  0.5479  0.4467
15390SOL    HW151108   4.990   6.473   6.558  0.8633  2.4431  1.3774
15390SOL    HW251109   4.969   6.393   6.685  0.3254  0.0984 -0.1077
15391SOL     OW51110   8.074   3.149   5.028 -0.4045  0.2880  0.1085
15391SOL    HW151111   8.011   3.119   4.962  0.0446  1.1101 -0.7284
15391SOL    HW251112   8.048   3.105   5.108  0.0199 -2.0551 -0.9466
15392SOL     OW51113   9.331   9.890   3.250  0.2001  0.1836 -0.1923
15392SOL    HW151114   9.277   9.962   3.282 -1.0117 -0.8813  0.2381
15392SOL    HW251115   9.417   9.905   3.291 -0.8461 -0.2332  2.3391
15393SOL     OW51116   7.709   5.869  10.217  0.4624  0.3671  0.0777
15393SOL    HW151117   7.769   5.944  10.213 -0.9145  1.5907  1.0842
15393SOL    HW251118   7.762   5.797  10.250  1.2380  1.6362  1.7696
15394SOL     OW51119   0.686   1.312  10.697 -0.1778 -0.2636  0.3101
15394SOL    HW151120   0.764   1.320  10.643 -0.9111 -1.0480 -0.9291
15394SOL    HW251121   0.650   1.226  10.675 -1.6408  0.2655  0.5016
15395SOL     OW51122   9.834   7.813   3.695 -0.7646  0.0204  0.2749
15395SOL    HW151123   9.856   7.720   3.688 -1.3247 -0.1505  0.7223
15395SOL    HW251124   9.900   7.857   3.641  0.4064 -0.5165  1.2152
15396SOL     OW51125   0.268   8.073   1.709  0.2760 -0.5374 -0.3705
15396SOL    HW151126   0.196   8.010   1.700 -0.0486 -0.1941 -0.2145
15396SOL    HW251127   0.252   8.116   1.793  0.3882 -0.1155 -0.5634
15397SOL     OW51128   1.139   8.770  10.527  0.1306 -0.1831  0.3684
15397SOL    HW151129   1.229   8.802  10.526 -0.0582  0.4380 -1.6594
15397SOL    HW251130   1.118   8.759  10.620  1.4497  2.0369  0.9891
15398SOL     OW51131   1.999   8.012   9.548 -0.0918 -0.7505  0.4692
15398SOL    HW151132   2.034   8.058   9.624 -1.0135  1.3610 -0.3290
15398SOL    HW251133   2.076   7.995   9.494  0.1121  1.3594  0.0273
15399SOL     OW51134   2.431   9.792   4.276 -0.2844 -0.3453 -0.6418
15399SOL    HW151135   2.428   9.871   4.330 -0.4040 -0.3295 -0.6716
15399SOL    HW251136   2.421   9.720   4.339  2.1515 -0.4723 -0.2997
15400SOL     OW51137   4.632   6.824   7.419 -1.0378  0.3600  0.0482
15400SOL    HW151138   4.570   6.778   7.362  0.0306  0.1206 -0.9628
15400SOL    HW251139   4.716   6.816   7.374 -0.2404  0.5708  1.4454
15401SOL     OW51140   8.600   1.142   5.673  0.0879  0.2007 -0.1953
15401SOL    HW151141   8.535   1.090   5.626  1.4320 -1.6391 -0.1152
15401SOL    HW251142   8.551   1.216   5.708 -0.9833  1.8579 -4.6108
15402SOL     OW51143   9.144   9.620   6.423 -0.1921  0.0320  1.1567
15402SOL    HW151144   9.202   9.695   6.437  1.1889 -0.7829  0.1508
15402SOL    HW251145   9.200   9.544   6.440 -0.6534 -0.8067 -0.7619
15403SOL     OW51146   2.316   3.905   1.319  0.2255 -0.5039  0.1788
15403SOL    HW151147   2.328   3.976   1.382 -0.0844 -1.2911  1.1492
15403SOL    HW251148   2.396   3.853   1.326  0.4774 -0.2248 -0.5726
15404SOL     OW51149  11.004   0.186   3.168 -0.0526  0.1324  0.3680
15404SOL    HW151150  11.044   0.251   3.110 -0.2877 -0.4593 -0.4700
15404SOL    HW251151  11.068   0.174   3.239  0.5134  0.4049 -0.0900
15405SOL     OW51152   5.689  10.618  10.433 -0.3599 -0.2454  0.2213
15405SOL    HW151153   5.658  10.620  10.342 -1.0350  0.1164  0.4553
15405SOL    HW251154   5.751  10.546  10.435 -1.4328 -1.2046 -0.1837
15406SOL     OW51155   6.748   4.913   2.399  0.2448  0.3484 -0.4788
15406SOL    HW151156   6.826   4.876   2.357 -0.3913  0.0143 -1.4039
15406SOL    HW251157   6.682   4.844   2.391  0.4915 -0.3492  2.4437
15407SOL     OW51158   6.736   0.541   7.700 -0.1626  0.8887 -0.5499
15407SOL    HW151159   6.747   0.635   7.692 -1.7906  1.3444  1.6351
15407SOL    HW251160   6.740   0.524   7.795  2.0020 -1.5408 -0.9294
15408SOL     OW51161   0.302   5.040   5.844  0.4484  0.6456  0.3301
15408SOL    HW151162   0.350   4.994   5.914 -0.3717 -0.6304  0.0880
15408SOL    HW251163   0.364   5.105   5.811  0.7904  1.4452  2.3836
15409SOL     OW51164   9.073   5.201   5.529 -0.0336  0.1117  0.5979
15409SOL    HW151165   9.106   5.262   5.463  2.5330 -1.5590  0.2135
15409SOL    HW251166   9.005   5.151   5.483 -0.2343  0.8441  0.0827
15410SOL     OW51167   5.161   6.639   8.471  0.0676  0.3427  0.1579
15410SOL    HW151168   5.140   6.556   8.428  0.3501  0.7195 -0.7367
15410SOL    HW251169   5.080   6.664   8.515  0.6226 -1.5743  2.5009
15411SOL     OW51170   3.721   4.782   6.757 -0.1426  0.2809 -0.2391
15411SOL    HW151171   3.808   4.788   6.796 -0.7765 -0.5921  1.3937
15411SOL    HW251172   3.661   4.796   6.830 -1.3864 -2.0407 -0.7110
15412SOL     OW51173   0.761   6.288   6.127 -0.1730 -0.0205  0.0772
15412SOL    HW151174   0.704   6.363   6.110 -0.1294  0.3346  1.3793
15412SOL    HW251175   0.759   6.237   6.046  0.3923  1.7576 -1.1199
15413SOL     OW51176   3.348   0.242   8.759  0.2842  0.4750  0.1742
15413SOL    HW151177   3.368   0.154   8.791 -2.0291 -0.2829 -0.2768
15413SOL    HW251178   3.387   0.300   8.824  1.9452 -0.8438  0.4468
15414SOL     OW51179   3.080   2.846   7.138  0.1882 -0.3250  0.1270
15414SOL    HW151180   3.017   2.832   7.067  0.2177  1.5807 -0.3309
15414SOL    HW251181   3.079   2.940   7.152  1.0628 -0.5442  1.8791
15415SOL     OW51182   6.481  11.570   2.555  0.5755  0.0484 -0.3595
15415SOL    HW151183   6.507  11.576   2.647  1.8408 -1.7286 -0.5348
15415SOL    HW251184   6.543  11.627   2.510 -0.7153  1.7533 -0.0370
15416SOL     OW51185   7.461   8.203   0.806 -0.5259 -0.2727 -0.3126
15416SOL    HW151186   7.482   8.171   0.893  1.8745 -0.0290 -0.7383
15416SOL    HW251187   7.460   8.125   0.751 -1.0146 -0.3112 -0.2520
15417SOL     OW51188   1.242   5.424  10.293  0.8165 -0.1832  0.1639
15417SOL    HW151189   1.309   5.483  10.258  0.5397  1.0069  1.5017
15417SOL    HW251190   1.201   5.475  10.363 -0.5386 -1.4095  0.3007
15418SOL     OW51191   0.530   6.433   5.815  0.8930  0.0838 -0.2404
15418SOL    HW151192   0.523   6.493   5.742 -0.1608  1.3227  0.8361
15418SOL    HW251193   0.478   6.357   5.789  1.4834  0.0054 -1.2309
15419SOL     OW51194   9.897   1.940   3.802 -0.0902 -0.3843 -0.4673
15419SOL    HW151195   9.900   1.887   3.722  0.2754 -0.2532 -0.5432
15419SOL    HW251196   9.919   2.028   3.774  0.3683 -0.4013 -0.1730
15420SOL     OW51197   3.665   9.029   1.635 -0.1008 -0.0907 -0.7358
15420SOL    HW151198   3.690   8.945   1.675  0.7809  0.0373 -1.0036
15420SOL    HW251199   3.629   9.080   1.708 -1.0610 -0.8629 -0.6609
15421SOL     OW51200   7.501   8.924  10.055 -0.8693 -0.1885  0.7663
15421SOL    HW151201   7.474   8.895  10.142  1.8803  0.4678  1.9474
15421SOL    HW251202   7.529   8.844  10.010 -0.2631 -0.3012  1.3206
15422SOL     OW51203   8.150   3.989  11.213  0.8636  0.4384 -0.3597
15422SOL    HW151204   8.141   3.934  11.135  1.7782  0.2985 -0.3796
15422SOL    HW251205   8.225   3.952  11.260  0.3743  0.5695  0.5466
15423SOL     OW51206   9.676  10.196   5.463 -0.0040 -0.2191 -0.6388
15423SOL    HW151207   9.587  10.214   5.433  0.1132 -0.0683 -0.8943
15423SOL    HW251208   9.701  10.274   5.512  0.6613  0.5129 -2.1002
15424SOL     OW51209   6.541   5.446   0.786  0.3355  0.1174 -0.1433
15424SOL    HW151210   6.537   5.402   0.870  0.0696 -0.1871 -0.3134
15424SOL    HW251211   6.530   5.376   0.721 -0.5546  0.4767 -0.4058
15425SOL     OW51212   6.787   9.355   2.910 -0.0262  0.2365  0.1553
15425SOL    HW151213   6.832   9.297   2.971  0.9039  1.7398  0.9679
15425SOL    HW251214   6.833   9.343   2.827 -0.2863 -0.6772  0.1406
15426SOL     OW51215   5.123   7.129   7.795  0.4514 -0.0647  0.1454
15426SOL    HW151216   5.204   7.079   7.790 -0.1097 -1.0215  0.3699
15426SOL    HW251217   5.103   7.132   7.888  0.7049  0.9763  0.1798
15427SOL     OW51218   1.377   8.733  11.647 -0.3016  0.0016  0.1660
15427SOL    HW151219   1.318   8.658  11.647 -0.3574  0.0416  0.6762
15427SOL    HW251220   1.455   8.702  11.600  0.1900 -0.8037  1.4429
15428SOL     OW51221   9.682   1.340   9.897 -0.2617 -0.2278  0.2643
15428SOL    HW151222   9.680   1.259   9.847  2.0264 -0.0167 -0.2485
15428SOL    HW251223   9.669   1.409   9.831 -1.8696 -0.1059  0.6547
15429SOL     OW51224  10.386   6.833  10.204 -0.2270  0.1892 -1.4281
15429SOL    HW151225  10.329   6.882  10.146 -1.3402  1.1483  0.4167
15429SOL    HW251226  10.468   6.882  10.205 -0.7224  1.0204 -1.0216
15430SOL     OW51227   4.568   4.750   0.393 -0.3995  0.2595  0.8009
15430SOL    HW151228   4.598   4.669   0.351  0.0532  1.3884 -1.1449
15430SOL    HW251229   4.473   4.748   0.382 -0.2310  0.9158 -1.0884
15431SOL     OW51230   3.593   7.445   9.080  0.0673 -0.4225  0.2076
15431SOL    HW151231   3.503   7.418   9.101 -0.0866  0.0395  0.1648
15431SOL    HW251232   3.631   7.369   9.035  0.2071 -1.2002  1.5852
15432SOL     OW51233   1.625   0.375   7.094  0.8271  0.1251  0.0208
15432SOL    HW151234   1.640   0.453   7.147  0.0340  0.1733  0.1874
15432SOL    HW251235   1.578   0.315   7.151  0.5271 -0.0710 -0.4203
15433SOL     OW51236   5.097   6.906  11.196 -0.3721  0.3688  0.2432
15433SOL    HW151237   5.055   6.830  11.236  1.9254 -0.2953  1.6338
15433SOL    HW251238   5.066   6.907  11.106 -1.8138 -1.1621  0.6869
15434SOL     OW51239  10.603   7.992   6.819 -0.0157 -0.5348 -0.3534
15434SOL    HW151240  10.525   8.039   6.847 -0.1102 -0.3704 -0.8889
15434SOL    HW251241  10.592   7.904   6.855  0.3582 -0.0545  1.0011
15435SOL     OW51242   7.315   1.458   5.661 -0.1594 -0.4530  0.2783
15435SOL    HW151243   7.350   1.369   5.656  1.5528  0.1837  0.1315
15435SOL    HW251244   7.297   1.473   5.754 -0.7960 -1.0594  0.2580
15436SOL     OW51245  11.133   4.654   1.571  0.7485  0.1140 -0.0398
15436SOL    HW151246  11.168   4.724   1.515  0.6452  0.1705 -0.0339
15436SOL    HW251247  11.049   4.632   1.531  0.7771 -0.0007 -0.0358
15437SOL     OW51248   5.704   8.307  10.229  0.3438  0.3957  0.2215
15437SOL    HW151249   5.651   8.305  10.149  2.9190 -0.1153 -1.6499
15437SOL    HW251250   5.747   8.393  10.228  0.4423  0.3652  1.0267
15438SOL     OW51251   2.107   3.951   3.498 -1.0954  0.0518 -0.0759
15438SOL    HW151252   2.199   3.976   3.493 -1.0814 -0.1732 -1.2500
15438SOL    HW251253   2.087   3.953   3.591 -0.4430  1.9964  0.0745
15439SOL     OW51254   6.886   0.192   5.070  0.0323 -0.2251 -0.3407
15439SOL    HW151255   6.852   0.137   4.999 -1.1705  1.2069 -0.9169
15439SOL    HW251256   6.809   0.213   5.123  0.4276  1.0875 -0.2713
15440SOL     OW51257   5.448   3.223   5.266 -0.8837  0.8526  0.5073
15440SOL    HW151258   5.373   3.272   5.302 -0.4319  1.3795  0.7383
15440SOL    HW251259   5.412   3.137   5.245 -1.7265  1.3192 -0.0304
15441SOL     OW51260   3.395   0.046   2.621 -0.2701 -0.2757  0.0918
15441SOL    HW151261   3.410  -0.006   2.700  1.3496 -0.6055 -0.3904
15441SOL    HW251262   3.462   0.114   2.623 -1.7358  1.2599  0.2042
15442SOL     OW51263   4.588   2.106   7.727 -0.0145  0.3265 -0.0356
15442SOL    HW151264   4.575   2.143   7.814 -1.0366  0.7928 -0.3680
15442SOL    HW251265   4.626   2.177   7.675  1.3377 -0.1874  0.2111
15443SOL     OW51266   2.096   1.321  10.686  0.4261  0.1674  0.2236
15443SOL    HW151267   2.012   1.343  10.726  0.7287  2.4595 -0.2792
15443SOL    HW251268   2.077   1.317  10.592  0.9292  1.0699  0.0754
15444SOL     OW51269   7.999   9.493  11.293 -0.4995 -0.4074  0.3269
15444SOL    HW151270   7.920   9.451  11.260 -0.5641  0.3710 -0.5401
15444SOL    HW251271   7.987   9.586  11.274  1.7029 -0.5157 -2.1878
15445SOL     OW51272   0.254   1.326   2.260 -0.1183  0.2527 -0.8030
15445SOL    HW151273   0.217   1.415   2.255 -0.6960  0.1185  0.6077
15445SOL    HW251274   0.248   1.293   2.171 -1.7730  0.9048 -0.9678
15446SOL     OW51275   6.068   2.559  10.675 -0.1680 -0.1816  0.5088
15446SOL    HW151276   6.092   2.603  10.594  1.4142  0.5695  1.3251
15446SOL    HW251277   6.144   2.504  10.696 -0.9045 -1.0234  1.0416
15447SOL     OW51278   5.222   2.170   2.788  0.3163  0.4232  0.2974
15447SOL    HW151279   5.193   2.239   2.848  1.2792 -0.9709  2.5021
15447SOL    HW251280   5.197   2.201   2.701 -1.6188  2.3255  1.4400
15448SOL     OW51281   6.839  10.380   3.817  0.4117  0.1746  0.1165
15448SOL    HW151282   6.770  10.446   3.807  1.3371  0.8783 -2.4808
15448SOL    HW251283   6.920  10.430   3.815  1.0610 -0.8265  0.9260
15449SOL     OW51284   4.741   8.571   3.424 -0.8092 -0.4068 -0.3165
15449SOL    HW151285   4.796   8.497   3.397 -1.2491 -1.5325  1.6814
15449SOL    HW251286   4.652   8.541   3.410 -0.9770  0.0187 -0.1587
15450SOL     OW51287   9.819   3.634  11.672 -0.1185 -0.4048 -0.0093
15450SOL    HW151288   9.730   3.616  11.704  0.1128 -2.0225 -0.1673
15450SOL    HW251289   9.806   3.690  11.596 -0.8896  0.7087  0.9220
15451SOL     OW51290   2.668   6.580   5.730 -0.2267  0.1908  0.0777
15451SOL    HW151291   2.608   6.645   5.694  0.7896  0.8679 -0.4569
15451SOL    HW251292   2.750   6.628   5.743 -0.1175 -0.4152  1.9005
15452SOL     OW51293   6.880   0.638   8.498 -0.0100 -0.0557 -0.1808
15452SOL    HW151294   6.896   0.548   8.526  0.4878 -0.1113 -0.6460
15452SOL    HW251295   6.817   0.630   8.426  2.1714 -0.2767 -2.1730
15453SOL     OW51296   0.647   6.661   4.926 -0.2830  0.6463 -0.1970
15453SOL    HW151297   0.688   6.580   4.955  1.2702  0.3753 -2.8970
15453SOL    HW251298   0.652   6.719   5.003  0.6259 -1.0323  1.0712
15454SOL     OW51299  10.903   2.019   9.583 -0.0653 -0.3021 -0.3043
15454SOL    HW151300  10.835   2.019   9.516  0.4885  0.8195 -0.8911
15454SOL    HW251301  10.856   2.038   9.665 -0.6600 -1.1108 -0.4512
15455SOL     OW51302   9.550   5.128   3.706  0.4358 -0.2803 -0.2088
15455SOL    HW151303   9.548   5.052   3.648 -0.6673 -0.6903  0.3402
15455SOL    HW251304   9.461   5.135   3.740  0.9021  0.3078  0.9606
15456SOL     OW51305   0.587   6.020  10.031  0.3468  0.3041  0.2124
15456SOL    HW151306   0.656   6.028  10.097 -1.1783 -0.0998  1.9456
15456SOL    HW251307   0.610   5.940   9.982  0.8490 -0.1032  1.0892
15457SOL     OW51308   4.176   1.462   1.062  0.6767  0.0948 -0.4108
15457SOL    HW151309   4.185   1.392   0.998 -0.8600  0.3468 -0.9406
15457SOL    HW251310   4.203   1.422   1.145 -2.6253 -1.9874 -0.1913
15458SOL     OW51311  10.450   9.649   0.609  0.2531  0.4327 -0.2245
15458SOL    HW151312  10.375   9.608   0.565  0.3436  0.1235 -0.0916
15458SOL    HW251313  10.526   9.606   0.571  0.3463  0.4353 -0.0405
15459SOL     OW51314   5.056   1.335   7.456 -0.1467 -0.7331 -0.3936
15459SOL    HW151315   5.049   1.401   7.387 -0.1419 -2.1551 -1.8038
15459SOL    HW251316   5.081   1.385   7.534 -0.2905  0.9387 -1.3644
15460SOL     OW51317   7.104   2.752   2.233  0.0064 -0.1638  0.3276
15460SOL    HW151318   7.047   2.695   2.284  1.3310 -1.5016  0.3904
15460SOL    HW251319   7.105   2.714   2.145 -1.9511  1.9020 -0.6745
15461SOL     OW51320   8.806   1.475   0.238  0.1187 -0.5299 -0.1760
15461SOL    HW151321   8.751   1.531   0.294  1.6035  0.7849  0.0625
15461SOL    HW251322   8.746   1.439   0.173 -1.0936  0.4938  0.3310
15462SOL     OW51323   3.558   3.277   4.012 -0.2527 -0.3754  0.5428
15462SOL    HW151324   3.609   3.231   3.946 -0.5766 -0.2160  0.1772
15462SOL    HW251325   3.499   3.210   4.047 -1.3133 -0.0662 -0.5837
15463SOL     OW51326   2.009   9.824   4.308 -0.2591 -0.1270 -0.1531
15463SOL    HW151327   2.060   9.857   4.382 -0.3315 -1.4999  0.5436
15463SOL    HW251328   1.949   9.896   4.287  3.0701  2.3156 -2.2168
15464SOL     OW51329   1.334   9.953  10.438  0.0564 -0.1262  0.2560
15464SOL    HW151330   1.299   9.909  10.361  1.1097  0.5179 -0.6197
15464SOL    HW251331   1.397  10.016  10.403 -0.6555  1.3550  1.5395
15465SOL     OW51332  10.552   3.679   6.994 -0.0631 -0.3322 -0.0461
15465SOL    HW151333  10.477   3.730   6.964 -0.4388 -0.4882  0.6087
15465SOL    HW251334  10.546   3.597   6.946  0.6262  0.2739 -1.2096
15466SOL     OW51335   7.194   4.195   8.577 -0.4138  0.0988 -0.1982
15466SOL    HW151336   7.286   4.185   8.604 -0.3130 -1.9614 -1.1444
15466SOL    HW251337   7.182   4.130   8.509 -2.8144 -0.2140  0.4428
15467SOL     OW51338   9.102   9.156   7.101  0.7620  0.1553  0.4948
15467SOL    HW151339   9.192   9.180   7.123  1.2700 -2.5624  1.7824
15467SOL    HW251340   9.051   9.179   7.178  0.8044 -0.4973  0.7238
15468SOL     OW51341   2.183   6.904   3.300  0.1672  0.1671  0.1084
15468SOL    HW151342   2.181   6.884   3.206  0.8684  1.6537 -0.2438
15468SOL    HW251343   2.092   6.896   3.328 -0.0314 -0.4083 -0.6588
15469SOL     OW51344   7.705   1.157   7.848 -0.0052 -0.0310  0.1840
15469SOL    HW151345   7.642   1.105   7.798  0.0900 -0.6823  0.7207
15469SOL    HW251346   7.784   1.102   7.850 -0.7431 -1.1552  3.0696
15470SOL     OW51347  11.580   8.875   1.854  0.0450 -0.0294 -0.4370
15470SOL    HW151348  11.504   8.864   1.798 -0.4439  0.5368  0.1105
15470SOL    HW251349  11.608   8.785   1.874 -2.1169 -0.3280  1.5695
15471SOL     OW51350   7.954   7.194   1.769 -0.0902  0.0731  0.3277
15471SOL    HW151351   8.050   7.190   1.778 -0.1507 -0.2170  0.8872
15471SOL    HW251352   7.925   7.106   1.793 -0.5799  0.4775  1.2539
15472SOL     OW51353  11.639   4.146   5.491 -0.4615  0.2324  0.3442
15472SOL    HW151354  11.636   4.202   5.569 -0.6862  0.8696 -0.1086
15472SOL    HW251355  11.637   4.208   5.418 -0.4605 -0.3660 -0.1671
15473SOL     OW51356   0.202   4.156   1.019 -0.4012 -0.3692  0.0795
15473SOL    HW151357   0.232   4.156   1.110 -1.3430  0.2952  0.4007
15473SOL    HW251358   0.192   4.249   0.997  0.2610 -0.5061 -0.8587
15474SOL     OW51359   2.703   0.534   9.707  0.0238 -0.5184  0.4358
15474SOL    HW151360   2.713   0.474   9.633  0.8850  0.2209 -0.0738
15474SOL    HW251361   2.678   0.617   9.668  0.7336 -0.0496  0.9380
15475SOL     OW51362   4.375  10.576   7.458 -0.2810  0.8728  0.1340
15475SOL    HW151363   4.467  10.581   7.483 -0.4690  0.8796  0.8561
15475SOL    HW251364   4.340  10.664   7.474 -0.7061  0.5412  1.0845
15476SOL     OW51365   7.428   7.838   1.810 -0.2268 -0.0895 -0.0381
15476SOL    HW151366   7.336   7.811   1.812  0.5430 -3.5970 -2.3499
15476SOL    HW251367   7.435   7.891   1.731 -0.0489 -1.0608 -0.6928
15477SOL     OW51368   0.856   0.949  10.528 -0.1662  0.4192 -0.1902
15477SOL    HW151369   0.803   0.886  10.480 -1.0331  0.7432  0.3223
15477SOL    HW251370   0.794   0.994  10.585  0.7944  0.0913  1.1872
15478SOL     OW51371   7.704  11.644   9.701 -0.3345 -0.0802 -0.5991
15478SOL    HW151372   7.703  11.549   9.690  1.4269 -0.1081 -0.8152
15478SOL    HW251373   7.770  11.675   9.639 -1.2170  1.3426 -0.8606
15479SOL     OW51374   8.293   1.032   0.018 -0.5107  0.8664  0.0720
15479SOL    HW151375   8.294   0.950  -0.032  0.2534  1.0529 -0.2184
15479SOL    HW251376   8.201   1.060   0.015 -0.6760  0.3023 -0.2845
15480SOL     OW51377   2.925   2.355   3.792  0.2124 -0.0790 -0.1420
15480SOL    HW151378   3.013   2.334   3.761  1.7542  2.8108  1.8565
15480SOL    HW251379   2.899   2.279   3.845  1.9539 -0.5674  0.0666
15481SOL     OW51380   9.643   4.591  10.659  0.0825 -0.3492 -0.3090
15481SOL    HW151381   9.590   4.519  10.695 -1.1828  0.0210 -1.3356
15481SOL    HW251382   9.614   4.598  10.568  0.8168  0.8971 -0.4634
15482SOL     OW51383   2.961   4.099   0.855  0.2098 -0.5733 -0.4701
15482SOL    HW151384   2.919   4.182   0.832  1.6110 -0.0156 -1.0974
15482SOL    HW251385   3.043   4.125   0.897  0.5964 -1.6510 -0.5394
15483SOL     OW51386   5.526   6.618   9.614  0.0164  0.1258 -0.0285
15483SOL    HW151387   5.558   6.567   9.539 -0.3852 -0.0436 -0.0851
15483SOL    HW251388   5.605   6.659   9.650  0.0793  1.0438 -1.1593
15484SOL     OW51389   5.128   4.288   5.495 -1.0072  0.0348  0.4488
15484SOL    HW151390   5.117   4.377   5.461 -1.0632  0.5403  1.7115
15484SOL    HW251391   5.046   4.271   5.541 -1.2441 -0.9274 -0.3072
15485SOL     OW51392   0.693   6.297  10.715 -0.4222 -0.0335 -0.2291
15485SOL    HW151393   0.658   6.207  10.714 -0.5992 -0.0058  1.0876
15485SOL    HW251394   0.708   6.318  10.623  0.0582 -1.5788 -0.5384
15486SOL     OW51395   8.069   9.927   7.747  0.2038  0.2415 -0.1398
15486SOL    HW151396   8.007   9.998   7.731  1.2994  1.3251  0.2369
15486SOL    HW251397   8.042   9.890   7.831 -0.2745  0.3371 -0.2527
15487SOL     OW51398  10.768   8.187   9.354  0.7608  0.3468 -0.6517
15487SOL    HW151399  10.676   8.198   9.329  1.0901 -0.1051 -2.1175
15487SOL    HW251400  10.778   8.244   9.431 -0.8259  0.1178 -0.2293
15488SOL     OW51401   0.889   9.961  10.138  0.1143  0.3302 -0.7123
15488SOL    HW151402   0.874   9.869  10.159  1.1952  0.8256  2.7926
15488SOL    HW251403   0.804  10.003  10.150 -0.4120 -0.1334 -2.4444
15489SOL     OW51404   1.431   6.638   4.284 -0.0037 -0.1401 -0.3703
15489SOL    HW151405   1.377   6.572   4.240 -0.3281  0.1570 -0.4256
15489SOL    HW251406   1.411   6.719   4.238 -2.5254  0.7591  2.0511
15490SOL     OW51407   1.063   6.840  10.174 -0.2756  0.6783 -0.3666
15490SOL    HW151408   1.140   6.879  10.216  0.4477  1.6353 -2.4252
15490SOL    HW251409   1.091   6.753  10.147 -0.3258  0.5391  0.0388
15491SOL     OW51410   1.530   8.737   8.139 -0.4492  0.0404 -0.0322
15491SOL    HW151411   1.598   8.705   8.079  0.6819  0.6829  0.8490
15491SOL    HW251412   1.455   8.754   8.083  1.2282  2.6875 -1.7273
15492SOL     OW51413   1.340   3.934   1.377 -0.2269  0.1811  0.2538
15492SOL    HW151414   1.253   3.907   1.406  0.1237 -0.4265  0.7632
15492SOL    HW251415   1.377   3.857   1.335  0.1515  0.3681  0.2342
15493SOL     OW51416   0.370   8.287   6.076  0.3440 -0.6646 -0.1546
15493SOL    HW151417   0.360   8.218   6.011 -0.5322 -1.0027  0.3248
15493SOL    HW251418   0.434   8.347   6.037 -1.6194  0.2094 -2.2665
15494SOL     OW51419   1.310   2.288   0.147  0.0310  0.2542  0.0843
15494SOL    HW151420   1.335   2.256   0.234  1.2221 -0.3047 -0.4423
15494SOL    HW251421   1.369   2.362   0.131  1.4776 -1.1060 -1.1984
15495SOL     OW51422   1.845   6.535   4.098  0.3176 -0.0981 -0.4101
15495SOL    HW151423   1.812   6.479   4.168 -1.3582  2.4844  1.0182
15495SOL    HW251424   1.812   6.495   4.018 -0.9014 -1.0788  0.5466
15496SOL     OW51425   1.139   5.292   8.154 -0.6092 -0.7485 -0.4176
15496SOL    HW151426   1.131   5.227   8.224 -0.6842 -1.2583 -0.8931
15496SOL    HW251427   1.060   5.345   8.162  0.1472  0.2422  0.9140
15497SOL     OW51428   2.557   7.825   9.496 -0.1366 -0.4686  0.3341
15497SOL    HW151429   2.461   7.829   9.494 -0.1332  0.6851  1.3381
15497SOL    HW251430   2.585   7.899   9.442  0.1927 -0.5528  0.3901
15498SOL     OW51431   4.345   6.146   6.859 -0.3215  0.1066 -0.1727
15498SOL    HW151432   4.283   6.208   6.898  0.1787  0.7473 -0.3856
15498SOL    HW251433   4.309   6.060   6.880 -0.8567  0.4640  0.3983
15499SOL     OW51434   4.272   2.713   8.351 -0.1179  0.5193 -0.3392
15499SOL    HW151435   4.358   2.748   8.375 -0.1594  0.7319 -0.4960
15499SOL    HW251436   4.280   2.619   8.363  0.2131  0.5155 -0.5930
15500SOL     OW51437   9.492   0.482   5.501 -0.1399  0.1114  0.3662
15500SOL    HW151438   9.558   0.492   5.570 -0.5127  0.3975  0.6871
15500SOL    HW251439   9.428   0.422   5.538 -0.5573  0.5941  0.4405
15501SOL     OW51440   2.621   1.484   8.271  0.1122  0.3861  0.0407
15501SOL    HW151441   2.566   1.557   8.300  0.3054 -0.2010  2.0545
15501SOL    HW251442   2.709   1.521   8.266 -0.1339  0.8359 -1.2218
15502SOL     OW51443   6.290   3.341  11.448  0.1926  0.0554 -0.4955
15502SOL    HW151444   6.251   3.292  11.375  0.5764 -1.4564  0.2753
15502SOL    HW251445   6.381   3.314  11.449  0.7329  1.7322 -0.7697
15503SOL     OW51446   2.780   5.865   1.100  1.0454 -0.3560 -0.3040
15503SOL    HW151447   2.757   5.772   1.100 -0.7505  0.0555 -0.8017
15503SOL    HW251448   2.762   5.895   1.011 -1.3355  1.1014  0.5762
15504SOL     OW51449  11.534   3.973   4.067  0.2098  1.2216 -0.4755
15504SOL    HW151450  11.477   3.965   3.990 -0.8316 -2.1465  0.4739
15504SOL    HW251451  11.556   3.883   4.090  1.9975  2.2039  2.1298
15505SOL     OW51452  10.767   0.570   1.054  0.5618  0.4107 -0.2031
15505SOL    HW151453  10.807   0.655   1.071  0.9752  0.2929 -0.5497
15505SOL    HW251454  10.733   0.542   1.139  2.2416  0.0025  0.3814
15506SOL     OW51455   5.708  11.044   3.616 -0.2701  0.5278 -0.5281
15506SOL    HW151456   5.719  10.955   3.582 -1.4217 -0.4334  1.4097
15506SOL    HW251457   5.777  11.095   3.574  0.9526 -1.4773 -1.0814
15507SOL     OW51458   3.313   0.530   3.555 -0.5815 -0.1081  0.2852
15507SOL    HW151459   3.340   0.540   3.646 -1.4895 -1.0466  0.6833
15507SOL    HW251460   3.337   0.613   3.513  1.5786 -0.3506  0.9041
15508SOL     OW51461   2.161   9.052   8.192  0.1239 -0.0065 -0.4970
15508SOL    HW151462   2.070   9.034   8.216 -0.0747  2.5258  1.0965
15508SOL    HW251463   2.212   8.989   8.243 -0.7003 -1.2123 -1.1279
15509SOL     OW51464  10.704   1.477   2.606  0.0387  0.5604 -0.4925
15509SOL    HW151465  10.700   1.565   2.568  0.2189  0.6331 -0.3453
15509SOL    HW251466  10.745   1.490   2.691 -0.4469  0.4122 -0.2309
15510SOL     OW51467   0.790   5.141   5.771  0.0979  0.1172 -0.0300
15510SOL    HW151468   0.847   5.209   5.806  1.2223 -0.2007 -1.1541
15510SOL    HW251469   0.844   5.094   5.707 -1.0010 -1.0950 -0.1326
15511SOL     OW51470   9.232   1.476   3.804  0.4513  0.3391  0.0309
15511SOL    HW151471   9.192   1.529   3.735  0.8950  1.8356  0.8693
15511SOL    HW251472   9.238   1.388   3.767 -3.2513  0.0762 -0.2992
15512SOL     OW51473   6.777   0.173   1.056  0.2298 -0.2122  0.2946
15512SOL    HW151474   6.827   0.252   1.078  0.4431 -0.1216 -0.4683
15512SOL    HW251475   6.719   0.201   0.985 -0.7499 -0.3786  1.0214
15513SOL     OW51476  10.427   6.520  11.301  0.2364  0.2270  0.1694
15513SOL    HW151477  10.340   6.532  11.340 -0.2082 -2.1797  0.0247
15513SOL    HW251478  10.432   6.589  11.235 -1.0827  1.1494  0.9704
15514SOL     OW51479   9.061  11.569   1.944  0.1296 -0.1098 -0.1133
15514SOL    HW151480   9.007  11.496   1.972  1.6893 -1.0426  0.5517
15514SOL    HW251481   9.049  11.572   1.849  0.0724 -1.2519 -0.1546
15515SOL     OW51482   3.957   1.937   3.120  0.1664 -0.2185 -0.2575
15515SOL    HW151483   3.957   1.842   3.116  0.2566 -0.2232 -0.1541
15515SOL    HW251484   3.954   1.958   3.214  5.0916 -0.1772  0.1704
15516SOL     OW51485  11.152   6.316   3.391 -0.0950  0.2658 -0.2323
15516SOL    HW151486  11.181   6.405   3.413  0.9959  0.2136 -1.3598
15516SOL    HW251487  11.057   6.321   3.393 -0.0617  1.0158  1.3936
15517SOL     OW51488   7.585   5.837   3.672 -0.5931 -0.6507 -0.2224
15517SOL    HW151489   7.561   5.759   3.723 -0.7819  0.4527  1.4324
15517SOL    HW251490   7.513   5.849   3.611 -1.4177 -0.7872  0.6982
15518SOL     OW51491   5.480   5.700   0.068  0.1745  0.7625 -0.0872
15518SOL    HW151492   5.543   5.730   0.133 -0.4025  2.5502 -0.3138
15518SOL    HW251493   5.421   5.774   0.056 -1.6127 -0.6366 -0.3420
15519SOL     OW51494   1.460   5.971  10.090 -0.0426  0.2619 -0.2014
15519SOL    HW151495   1.423   6.054  10.059 -0.2215  0.4388  0.4675
15519SOL    HW251496   1.386   5.911  10.095 -0.2704  0.6180  1.1419
15520SOL     OW51497   7.451   1.014   0.289 -0.4625 -0.1919  0.0807
15520SOL    HW151498   7.535   1.048   0.261  0.5849 -2.6814 -0.0962
15520SOL    HW251499   7.448   0.925   0.254 -1.5557 -1.4858  3.0940
15521SOL     OW51500   3.361   1.574   8.362  0.1120 -0.7117  0.3861
15521SOL    HW151501   3.353   1.665   8.392  0.1924 -0.2856 -0.8111
15521SOL    HW251502   3.371   1.523   8.442 -0.0205  0.3270  1.0873
15522SOL     OW51503  10.679   1.470   8.681  0.5443 -0.0628  0.0635
15522SOL    HW151504  10.687   1.541   8.618 -2.3137  1.7394  1.5364
15522SOL    HW251505  10.724   1.502   8.759 -1.3879  0.5629  0.9858
15523SOL     OW51506  10.731   3.876   8.834 -0.2996 -0.0320 -0.1695
15523SOL    HW151507  10.688   3.901   8.916  0.8443 -0.4770  0.5870
15523SOL    HW251508  10.681   3.800   8.802  1.1639 -1.9362  1.8299
15524SOL     OW51509   5.663   5.151   8.504 -0.3480 -0.3906 -0.4192
15524SOL    HW151510   5.714   5.167   8.425 -0.1541  0.2270 -0.1681
15524SOL    HW251511   5.574   5.178   8.481 -0.0199  1.1489  0.0136
15525SOL     OW51512   7.565   2.108   5.944 -0.0979  0.1726  0.0804
15525SOL    HW151513   7.512   2.048   5.891  0.3701  0.3693 -0.6067
15525SOL    HW251514   7.543   2.195   5.912 -2.2641  0.6081  2.3540
15526SOL     OW51515   8.370   4.876   5.568 -0.3066 -0.0168 -0.0784
15526SOL    HW151516   8.293   4.822   5.548  0.4498 -1.4787  0.8003
15526SOL    HW251517   8.335   4.949   5.620 -1.2207 -0.1669 -0.4606
15527SOL     OW51518   2.277  11.087   7.661  0.1378 -0.0060  0.2047
15527SOL    HW151519   2.302  11.130   7.743  0.1532 -0.9341  0.7023
15527SOL    HW251520   2.299  10.995   7.675 -2.1657 -0.6168  0.1071
15528SOL     OW51521   8.965   6.033   8.820 -0.2856  0.3120 -0.3137
15528SOL    HW151522   8.943   5.977   8.894  0.3370 -0.4158 -0.6711
15528SOL    HW251523   8.956   5.977   8.744  0.4332  0.6645 -0.6684
15529SOL     OW51524   1.076   0.208   0.093 -0.0925  0.2633 -0.0434
15529SOL    HW151525   0.992   0.232   0.053  0.3682  0.8164 -0.6860
15529SOL    HW251526   1.140   0.267   0.054  0.4166  0.6784  1.3462
15530SOL     OW51527   8.891   3.339   6.458 -0.0869  0.0993 -0.1594
15530SOL    HW151528   8.882   3.431   6.436 -1.1650  0.3629  1.2412
15530SOL    HW251529   8.802   3.304   6.456  0.3188 -0.9523 -0.7886
15531SOL     OW51530   9.009  11.605   2.540 -0.4105  0.3938  0.3244
15531SOL    HW151531   9.056  11.642   2.465  0.4790 -0.7275  0.2944
15531SOL    HW251532   8.916  11.612   2.516 -0.1325 -1.6406 -1.7773
15532SOL     OW51533   7.076  11.039   1.352 -0.1798  0.0918  0.2299
15532SOL    HW151534   7.056  11.130   1.332  0.7860  0.5165  1.1204
15532SOL    HW251535   7.125  11.007   1.276 -0.7024  0.2412 -0.1754
15533SOL     OW51536   7.467  11.139   2.831 -0.2144 -0.8006  0.1879
15533SOL    HW151537   7.484  11.206   2.764  0.5507  0.5678  1.6721
15533SOL    HW251538   7.376  11.112   2.815 -0.9692  1.4741  0.2516
15534SOL     OW51539  10.654   6.175   9.277  0.4391 -0.0998 -0.3419
15534SOL    HW151540  10.666   6.270   9.279  0.0752 -0.0683  0.6510
15534SOL    HW251541  10.734   6.140   9.317 -0.4426 -0.0933  1.5285
15535SOL     OW51542   5.350   4.224  10.811  0.1972  0.6357  0.2157
15535SOL    HW151543   5.407   4.149  10.789 -0.1524  0.6754 -0.8490
15535SOL    HW251544   5.402   4.275  10.873  1.1318  0.4162 -0.3699
15536SOL     OW51545  10.550  10.519  11.593  0.1213  0.6400  0.7241
15536SOL    HW151546  10.591  10.487  11.673 -0.6429  0.5125  1.0747
15536SOL    HW251547  10.468  10.470  11.586  0.2307  0.5711 -0.2008
15537SOL     OW51548  11.276   3.345   3.309 -0.0983 -0.3220  0.3963
15537SOL    HW151549  11.268   3.262   3.356 -0.4232  0.1078  1.1223
15537SOL    HW251550  11.360   3.381   3.337 -0.3151 -0.0420  0.7171
15538SOL     OW51551   6.055   7.711   4.588  0.0002  0.5690  0.2728
15538SOL    HW151552   6.056   7.677   4.678  0.1692 -3.0985 -0.9423
15538SOL    HW251553   6.145   7.738   4.572  0.9653 -2.3145  0.1558
15539SOL     OW51554   3.427   0.761   3.492  0.1985  0.2751  0.2780
15539SOL    HW151555   3.400   0.839   3.542 -0.0826 -0.4621  1.3151
15539SOL    HW251556   3.484   0.795   3.424 -1.4295  1.6337 -0.5001
15540SOL     OW51557  10.593   4.190   0.841 -0.0726  0.2437 -0.0732
15540SOL    HW151558  10.644   4.111   0.828 -0.3235 -0.1878  1.3891
15540SOL    HW251559  10.658   4.261   0.840  0.7411 -0.3534  2.4558
15541SOL     OW51560   4.166   0.702   3.453  0.3142  0.2875 -0.3364
15541SOL    HW151561   4.129   0.759   3.520 -0.5796 -0.1383 -0.4555
15541SOL    HW251562   4.096   0.640   3.431  0.8716 -0.1232 -1.0469
15542SOL     OW51563   1.384   6.252  11.031 -0.6305  0.1142 -0.8011
15542SOL    HW151564   1.323   6.206  10.974 -1.7500  0.8092 -0.1914
15542SOL    HW251565   1.350   6.341  11.036 -0.4256  0.1314  0.7444
15543SOL     OW51566   0.453   7.246   3.320  0.5303  0.3246 -0.3206
15543SOL    HW151567   0.516   7.295   3.267  0.2750 -1.0262 -1.9571
15543SOL    HW251568   0.368   7.270   3.285  0.1999  0.9536  0.8546
15544SOL     OW51569   5.685   2.416   9.253  0.8426  0.4592 -0.3740
15544SOL    HW151570   5.622   2.344   9.258  1.8986 -0.5491 -0.9127
15544SOL    HW251571   5.766   2.374   9.221  1.5429  1.8531 -0.4968
15545SOL     OW51572   3.029   7.401   8.012  0.4709 -0.6610  0.4733
15545SOL    HW151573   3.069   7.366   7.933 -0.2360  0.1550 -0.2858
15545SOL    HW251574   2.948   7.351   8.022  0.9515 -1.3048  1.1444
15546SOL     OW51575  10.408   1.186   8.511 -0.6429 -0.0464 -0.4639
15546SOL    HW151576  10.428   1.218   8.599  1.0416 -2.4815  0.1532
15546SOL    HW251577  10.326   1.137   8.521 -0.2060 -0.7299 -0.0895
15547SOL     OW51578   4.987   2.412   5.519  0.3548 -0.1869  0.2166
15547SOL    HW151579   4.917   2.445   5.575  2.1561  2.4221  1.1223
15547SOL    HW251580   4.942   2.380   5.441 -1.8460  1.7404  0.5714
15548SOL     OW51581   7.909   2.692   7.094  0.0062 -0.2380 -0.0432
15548SOL    HW151582   7.935   2.713   7.004 -0.4935 -2.5868 -0.8115
15548SOL    HW251583   7.989   2.656   7.134  0.1520  0.5386  0.3856
15549SOL     OW51584   8.985   8.379   4.407 -0.3142  0.0168 -0.0639
15549SOL    HW151585   9.019   8.317   4.471  0.1733  0.9526  0.5999
15549SOL    HW251586   8.919   8.329   4.358  0.3432 -1.1255  0.1936
15550SOL     OW51587  10.081   6.768   0.081  1.0856  0.2054 -0.0362
15550SOL    HW151588  10.102   6.734  -0.006  0.6352 -0.3724  0.0776
15550SOL    HW251589   9.998   6.728   0.104  1.8852 -0.8179  1.2642
15551SOL     OW51590   6.104   2.874   3.663 -0.4455 -0.6479  0.7193
15551SOL    HW151591   6.072   2.881   3.573  1.6724  0.4300 -0.0217
15551SOL    HW251592   6.043   2.927   3.715 -1.1925 -0.5704 -0.2115
15552SOL     OW51593  11.187   4.679   6.422 -0.1258  0.1604 -0.4142
15552SOL    HW151594  11.250   4.684   6.494 -0.1351  0.4941 -0.4284
15552SOL    HW251595  11.213   4.750   6.363 -1.3933  1.2384  0.2845
15553SOL     OW51596   7.402   2.514   0.854  0.1925 -0.3266 -0.4814
15553SOL    HW151597   7.462   2.586   0.833  0.7806 -0.4350  0.7444
15553SOL    HW251598   7.457   2.450   0.900 -0.6745 -0.8348 -0.1282
15554SOL     OW51599   2.411   3.293   7.699  0.1781  0.0674  0.4629
15554SOL    HW151600   2.475   3.238   7.653  0.8805  0.2967  1.1344
15554SOL    HW251601   2.405   3.254   7.786 -1.0751 -0.3144  0.2136
15555SOL     OW51602   5.128   9.707  11.012 -0.3433 -0.3437  0.2115
15555SOL    HW151603   5.137   9.640  10.944 -2.4982  0.1841 -0.6822
15555SOL    HW251604   5.160   9.787  10.971  2.1379 -0.7076  1.2463
15556SOL     OW51605   0.482   2.453   2.761 -0.0836 -0.3542 -0.4337
15556SOL    HW151606   0.420   2.384   2.786 -0.9829  0.4968 -0.2764
15556SOL    HW251607   0.568   2.414   2.779 -0.6100 -0.9084  1.1004
15557SOL     OW51608   2.844   6.568   7.125  0.0755  0.3973 -0.3420
15557SOL    HW151609   2.791   6.619   7.064  0.5933  0.5379 -0.6899
15557SOL    HW251610   2.807   6.480   7.123 -1.7674  1.0658  1.3833
15558SOL     OW51611   8.285   0.048   1.843 -0.5260  0.0815  0.4231
15558SOL    HW151612   8.357   0.090   1.796 -0.3921 -1.0231 -0.3984
15558SOL    HW251613   8.321  -0.037   1.870 -1.2783 -0.1615  0.6823
15559SOL     OW51614   8.853   5.003   7.591  0.0446  0.1443  0.2488
15559SOL    HW151615   8.935   4.975   7.630 -0.2340 -2.0191 -0.5715
15559SOL    HW251616   8.874   5.085   7.547  2.1052 -0.9481 -0.9606
15560SOL     OW51617   2.787   0.088   9.792  0.4121 -0.1041  0.3601
15560SOL    HW151618   2.783   0.114   9.884 -0.8017 -2.1020  0.9482
15560SOL    HW251619   2.841   0.009   9.792 -0.4346 -0.7107 -0.4532
15561SOL     OW51620  10.799   6.568   3.674 -0.4407  0.4389  0.2800
15561SOL    HW151621  10.824   6.481   3.708 -1.6646 -0.0367  0.0201
15561SOL    HW251622  10.752   6.549   3.593  1.3262  1.5020 -1.0612
15562SOL     OW51623   3.364   6.844   7.648  0.0129  0.0691 -0.0674
15562SOL    HW151624   3.414   6.911   7.602 -0.5928  0.5635 -0.0122
15562SOL    HW251625   3.373   6.766   7.594  1.3682 -0.0296  0.2659
15563SOL     OW51626   0.166   2.426  11.650  0.3668  0.0307 -0.4859
15563SOL    HW151627   0.136   2.505  11.695  0.8046  0.8619 -1.6116
15563SOL    HW251628   0.261   2.429  11.656  0.4255  0.0613 -1.2877
15564SOL     OW51629  11.514   4.926  10.140 -0.5731  0.3701 -0.2360
15564SOL    HW151630  11.564   4.868  10.198  0.4755  1.1862 -0.2949
15564SOL    HW251631  11.556   4.917  10.055 -1.4766 -0.0535 -0.6549
15565SOL     OW51632   3.890   0.202   5.878 -0.0392 -0.5490 -0.3678
15565SOL    HW151633   3.932   0.268   5.822 -0.7595 -2.4295 -3.3480
15565SOL    HW251634   3.880   0.246   5.963  2.8199  1.8536 -1.0885
15566SOL     OW51635   0.057   2.649   3.834 -0.0433 -0.5392  0.3905
15566SOL    HW151636   0.024   2.576   3.783  1.0201 -0.0635 -1.0647
15566SOL    HW251637   0.017   2.726   3.794 -1.2334 -0.3015  1.9663
15567SOL     OW51638   5.133   4.828   1.372  0.1745  0.4105 -0.2381
15567SOL    HW151639   5.206   4.890   1.368  0.1947  0.3392 -1.2441
15567SOL    HW251640   5.057   4.879   1.346  0.0599  0.1906 -0.3336
15568SOL     OW51641   9.188   1.595  11.642  0.6188 -0.8384  0.1203
15568SOL    HW151642   9.279   1.621  11.655  0.2677 -0.3364  1.9989
15568SOL    HW251643   9.193   1.511  11.596  2.0912 -1.3595  1.1359
15569SOL     OW51644  10.288   6.100   8.405  0.2701 -0.4189 -0.3539
15569SOL    HW151645  10.302   6.095   8.310  2.2441  0.1405 -0.1452
15569SOL    HW251646  10.309   6.013   8.437  0.5812 -0.3352 -0.3295
15570SOL     OW51647  11.039   4.095   1.317 -0.1764  0.0555 -0.6916
15570SOL    HW151648  10.971   4.055   1.262 -1.2576  0.9222 -0.0244
15570SOL    HW251649  11.078   4.162   1.261  0.9094 -1.1725 -1.4506
15571SOL     OW51650   6.906   4.160  10.330 -0.3490 -0.1595 -0.0315
15571SOL    HW151651   6.861   4.245  10.334  0.3395  0.2093 -0.0648
15571SOL    HW251652   6.980   4.169  10.390  0.4742 -0.2897 -1.0089
15572SOL     OW51653   3.174   1.991   0.632 -0.1493  0.7514  0.1513
15572SOL    HW151654   3.195   2.039   0.552  1.1197  1.2014  0.7325
15572SOL    HW251655   3.225   1.910   0.626 -0.0020  0.8128  0.5226
15573SOL     OW51656   3.500   4.588   1.235  0.0323  0.5892  0.3142
15573SOL    HW151657   3.448   4.614   1.311 -0.3992 -1.7080  0.8913
15573SOL    HW251658   3.437   4.584   1.163  0.3948  2.5324 -0.1420
15574SOL     OW51659  11.004   9.561   6.432  0.0246 -0.4354 -0.2409
15574SOL    HW151660  11.022   9.469   6.451  0.7184 -0.3638 -0.5148
15574SOL    HW251661  10.914   9.574   6.461 -0.6485 -1.6167 -1.6637
15575SOL     OW51662   2.216  10.923   2.832 -0.0550 -0.4458 -0.2131
15575SOL    HW151663   2.277  10.850   2.839  0.8373  0.3135  0.1480
15575SOL    HW251664   2.266  10.992   2.787 -0.3469  0.4806  0.8377
15576SOL     OW51665   8.795   0.717   9.010 -0.5109 -0.1978  0.1117
15576SOL    HW151666   8.890   0.720   8.998 -0.7022 -0.1359 -1.8350
15576SOL    HW251667   8.781   0.740   9.102  1.4202 -1.7681  0.8724
15577SOL     OW51668   8.092  10.410   6.787 -0.3194  0.1056  0.0956
15577SOL    HW151669   8.177  10.456   6.787 -0.3682  0.2993 -1.8916
15577SOL    HW251670   8.039  10.458   6.851  1.0444 -0.0304  1.3923
15578SOL     OW51671  10.115   8.154  11.477 -0.1891 -0.4267 -0.3212
15578SOL    HW151672  10.068   8.134  11.396  0.2344 -1.5973 -0.2923
15578SOL    HW251673  10.173   8.079  11.491  0.2923  0.1048  0.6700
15579SOL     OW51674  10.942   3.108   1.293 -0.2228  0.6371  0.0217
15579SOL    HW151675  10.990   3.029   1.268 -1.5190 -0.3668  0.6070
15579SOL    HW251676  10.936   3.159   1.212 -0.0407 -0.2186 -0.5349
15580SOL     OW51677   8.859  10.447   1.793 -0.7785  0.5768 -0.8304
15580SOL    HW151678   8.782  10.490   1.757 -1.2292 -0.3619 -1.0231
15580SOL    HW251679   8.825  10.387   1.859 -0.1670  0.5382 -0.5418
15581SOL     OW51680   0.968   1.445   2.493  0.5202  0.0344  0.3097
15581SOL    HW151681   1.039   1.406   2.545 -0.1911 -1.9044 -0.0907
15581SOL    HW251682   0.888   1.420   2.540 -0.0330 -0.2074 -0.7231
15582SOL     OW51683   6.450   8.911   7.422  0.6829  0.0404 -0.0823
15582SOL    HW151684   6.371   8.964   7.438  0.0221 -0.7289 -0.6962
15582SOL    HW251685   6.523   8.972   7.435  0.0372  0.5253  1.4886
15583SOL     OW51686   0.145   3.806   6.870 -0.7180 -0.3368  0.0773
15583SOL    HW151687   0.173   3.782   6.781 -0.6369 -1.8641  0.4819
15583SOL    HW251688   0.072   3.748   6.889  0.1182 -0.9887  1.4961
15584SOL     OW51689  10.057   2.396  10.916 -0.1876 -0.3368  0.1736
15584SOL    HW151690  10.072   2.309  10.878  0.7720 -0.8795  1.6661
15584SOL    HW251691   9.966   2.416  10.895 -0.4991 -1.8074 -0.0271
15585SOL     OW51692   3.523   5.220   0.770 -0.1871  0.0349  0.4589
15585SOL    HW151693   3.581   5.262   0.707 -2.9090  2.0384 -0.8764
15585SOL    HW251694   3.541   5.126   0.759  2.9134  0.5201  0.3687
15586SOL     OW51695   9.614   4.597   3.669 -0.5364 -0.0610 -0.0107
15586SOL    HW151696   9.579   4.661   3.730 -0.2523  1.9052 -1.7816
15586SOL    HW251697   9.567   4.614   3.587  1.4737 -0.2589 -1.2655
15587SOL     OW51698   4.634   2.711   9.508 -0.2652 -0.2363  0.1358
15587SOL    HW151699   4.673   2.705   9.595 -0.0016  1.1315  0.1332
15587SOL    HW251700   4.589   2.796   9.508 -2.1565 -1.1803 -0.3163
15588SOL     OW51701   8.271   4.555   0.006  0.2294 -0.0254 -0.2741
15588SOL    HW151702   8.181   4.525  -0.006 -0.5818  0.9707  2.5472
15588SOL    HW251703   8.306   4.498   0.073  0.9451  0.9673  0.2191
15589SOL     OW51704   0.169   0.550   0.655  0.2497  0.2346  0.2301
15589SOL    HW151705   0.257   0.517   0.638 -0.7910 -3.0338  0.4439
15589SOL    HW251706   0.117   0.517   0.582 -1.2561 -0.2301  1.4536
15590SOL     OW51707  11.612   5.250   9.947  0.5486 -0.2295 -0.1921
15590SOL    HW151708  11.584   5.256  10.038 -0.5352 -0.7761 -0.4657
15590SOL    HW251709  11.707   5.258   9.950  0.4493  0.8951  0.8704
15591SOL     OW51710   8.856   9.994  10.260  0.2117 -0.7336 -0.3984
15591SOL    HW151711   8.923  10.061  10.247  0.3437 -0.7179  0.3204
15591SOL    HW251712   8.885   9.945  10.338 -0.3995 -0.9779 -0.3154
15592SOL     OW51713  11.322   1.622  11.027  0.4916  0.0795  0.2818
15592SOL    HW151714  11.257   1.572  11.077 -0.9443  1.1080 -0.4914
15592SOL    HW251715  11.279   1.641  10.944  1.8951  0.5856 -0.3661
15593SOL     OW51716  11.171   8.447   5.886 -0.2759 -0.7703 -0.0931
15593SOL    HW151717  11.140   8.431   5.797 -0.5992  1.4252 -0.4391
15593SOL    HW251718  11.117   8.519   5.918  2.0578  0.8085  0.5925
15594SOL     OW51719   7.772  10.549  11.660  0.0322 -0.2310 -0.8821
15594SOL    HW151720   7.828  10.553  11.582  0.1244 -0.2278 -0.8154
15594SOL    HW251721   7.817  10.603  11.724 -0.4783  0.4834 -1.1081
15595SOL     OW51722   3.507   8.639   4.568  0.4045 -0.2919 -0.4471
15595SOL    HW151723   3.451   8.596   4.503 -0.0610  0.3444 -0.4810
15595SOL    HW251724   3.513   8.575   4.640 -0.7795 -0.1849 -0.2330
15596SOL     OW51725   3.434   5.470   8.749  0.2031  0.1786 -0.0221
15596SOL    HW151726   3.403   5.496   8.835  1.9154 -0.4282  0.8096
15596SOL    HW251727   3.372   5.511   8.688 -0.7961  0.9503  1.4548
15597SOL     OW51728   2.629   6.220  11.476  0.4118  0.0262 -0.1923
15597SOL    HW151729   2.606   6.311  11.497  0.8564 -0.2491  1.6403
15597SOL    HW251730   2.724   6.216  11.489  0.3377 -0.7975  0.1500
15598SOL     OW51731   4.162   0.639   9.017 -0.6862 -0.1714 -0.1369
15598SOL    HW151732   4.124   0.582   8.950 -1.2008 -0.0520  0.0510
15598SOL    HW251733   4.160   0.587   9.097  0.3641 -0.4887 -0.3040
15599SOL     OW51734   9.076   5.272   9.095  0.0015  0.0152 -0.6362
15599SOL    HW151735   9.063   5.315   9.180  0.0897 -0.0742 -0.5772
15599SOL    HW251736   9.118   5.188   9.116  3.0392  1.3329 -0.9907
15600SOL     OW51737   7.370   7.479   4.240  0.0627  0.5002  0.8904
15600SOL    HW151738   7.306   7.429   4.291 -1.3549  1.2859 -0.0478
15600SOL    HW251739   7.325   7.561   4.218  0.3764  0.0209 -1.9852
15601SOL     OW51740   8.283   0.833   3.153 -0.0932 -0.2096 -0.9037
15601SOL    HW151741   8.193   0.830   3.186 -0.4404 -1.3475 -1.9087
15601SOL    HW251742   8.291   0.920   3.114 -1.1930 -0.5615 -1.9641
15602SOL     OW51743   2.639   7.809   7.357  0.0194  0.3910  0.3307
15602SOL    HW151744   2.719   7.819   7.306  1.4236 -2.3701  1.7443
15602SOL    HW251745   2.611   7.719   7.340 -2.0624  0.8735  0.9204
15603SOL     OW51746  10.710   2.096   0.411  0.3999 -0.5902  0.6030
15603SOL    HW151747  10.767   2.055   0.346 -0.2362 -1.9243  0.8652
15603SOL    HW251748  10.684   2.025   0.469 -0.8752  0.1383  0.9630
15604SOL     OW51749   5.197  11.575  11.025  0.4226 -0.2749 -0.7522
15604SOL    HW151750   5.173  11.651  10.974 -1.1194  0.7984  1.4141
15604SOL    HW251751   5.286  11.594  11.057  1.0765 -0.6112 -2.2895
15605SOL     OW51752   1.802   7.203   4.443  0.7367 -0.0192  0.2347
15605SOL    HW151753   1.821   7.172   4.532 -0.3008  1.2668  0.9463
15605SOL    HW251754   1.772   7.293   4.455  1.3891  0.4783 -1.5219
15606SOL     OW51755   8.442   1.773   4.298  0.0768  0.4995 -0.0302
15606SOL    HW151756   8.435   1.826   4.378 -1.6177  0.9336 -0.4228
15606SOL    HW251757   8.515   1.812   4.249 -0.1695  1.5099  0.3848
15607SOL     OW51758   6.210   2.443  10.228 -0.2906 -0.4121 -0.4968
15607SOL    HW151759   6.242   2.488  10.149  0.0310  0.7276  0.2470
15607SOL    HW251760   6.125   2.483  10.246  0.5571  0.8663  0.8935
15608SOL     OW51761  11.047   3.552   0.072 -0.3697  0.4307  0.0319
15608SOL    HW151762  10.980   3.606   0.029  1.3147  1.6994 -1.1184
15608SOL    HW251763  11.108   3.529   0.002  1.6727  1.3120  1.4502
15609SOL     OW51764   7.850   3.852   9.119 -0.0772 -0.5766 -0.2905
15609SOL    HW151765   7.776   3.815   9.166  0.4081 -1.2832 -0.0689
15609SOL    HW251766   7.819   3.865   9.029 -1.0092  0.7731  0.1963
15610SOL     OW51767   3.442   2.218  10.157 -0.3363 -0.0252  0.1200
15610SOL    HW151768   3.536   2.236  10.146 -0.4040 -0.8578 -2.2652
15610SOL    HW251769   3.438   2.128  10.188 -0.3439 -0.4601 -1.0866
15611SOL     OW51770   8.320   4.848   8.564  0.2585 -0.0608 -0.0979
15611SOL    HW151771   8.395   4.809   8.520 -0.4118  0.3675 -1.7106
15611SOL    HW251772   8.247   4.834   8.503 -0.7412  0.4817  0.9409
15612SOL     OW51773   1.596   6.196   6.100  0.2552 -0.3488  0.4432
15612SOL    HW151774   1.625   6.285   6.081  0.3967 -0.6672 -0.9344
15612SOL    HW251775   1.548   6.203   6.182  1.1256  0.8136  0.8712
15613SOL     OW51776   8.241   8.418   0.634 -0.4657  0.5401 -0.1386
15613SOL    HW151777   8.194   8.391   0.713  0.4644 -0.2559  0.1675
15613SOL    HW251778   8.173   8.425   0.567 -1.1233  0.1814  0.4718
15614SOL     OW51779   0.160   9.554  10.157 -0.0017  0.1536 -0.3203
15614SOL    HW151780   0.194   9.550  10.068  1.1547 -1.5704  0.1556
15614SOL    HW251781   0.226   9.602  10.207  0.6192 -1.0791  0.0957
15615SOL     OW51782   0.315  10.111   0.303 -0.2440 -0.5365  0.2325
15615SOL    HW151783   0.383  10.074   0.360  0.3512 -1.4193 -1.0041
15615SOL    HW251784   0.346  10.094   0.214 -1.9549 -0.7057 -0.3721
15616SOL     OW51785   6.088   0.855   8.505  0.0291  0.0180 -0.1438
15616SOL    HW151786   6.001   0.852   8.465  0.2417  1.4621 -0.7765
15616SOL    HW251787   6.146   0.881   8.434  0.7795  0.3398  0.5801
15617SOL     OW51788   2.112   5.908   7.770  0.2943 -0.0975 -0.0959
15617SOL    HW151789   2.118   5.882   7.862 -0.2263  0.4998  0.1130
15617SOL    HW251790   2.192   5.958   7.754  1.3716 -1.8680 -0.5370
15618SOL     OW51791  10.359   5.080   5.357  1.0312  0.1368 -0.6658
15618SOL    HW151792  10.403   5.018   5.299 -0.2527  0.3358 -1.9281
15618SOL    HW251793  10.349   5.034   5.440  2.1610 -0.4719 -0.8510
15619SOL     OW51794   5.695   6.833   8.187 -0.1649  0.0074  0.7793
15619SOL    HW151795   5.747   6.753   8.179 -0.6425 -0.3562  1.1979
15619SOL    HW251796   5.738   6.896   8.130  2.0142  0.3858  2.6749
15620SOL     OW51797   9.671   0.850   1.026  0.2023 -0.1001  0.5269
15620SOL    HW151798   9.659   0.883   0.937 -2.5573  0.0284  0.8431
15620SOL    HW251799   9.669   0.928   1.081 -0.7604 -0.3524  0.8663
15621SOL     OW51800   7.993   0.531   8.796  0.3601  0.4918  0.8005
15621SOL    HW151801   7.912   0.508   8.751  1.1869 -1.0481 -0.0170
15621SOL    HW251802   7.972   0.609   8.846 -1.6845  0.0070  0.7910
15622SOL     OW51803   2.899   4.635   5.895  0.4078 -0.6204  0.0432
15622SOL    HW151804   2.915   4.668   5.983 -1.8912 -1.3844  0.8196
15622SOL    HW251805   2.826   4.688   5.862  2.2086  0.7199 -2.0910
15623SOL     OW51806   4.726   0.775   7.727 -0.6356  0.0610  0.1174
15623SOL    HW151807   4.785   0.738   7.662  0.8398  1.5521  0.5294
15623SOL    HW251808   4.638   0.751   7.697  0.1323 -3.5408  0.2989
15624SOL     OW51809   2.875   0.921   7.931  0.3183 -0.2342 -0.1038
15624SOL    HW151810   2.878   0.869   8.012  2.0080  3.4165  2.4944
15624SOL    HW251811   2.966   0.922   7.901 -0.1425 -0.7661 -1.5679
15625SOL     OW51812   4.935   6.546   6.373 -0.0620 -0.4175 -0.0696
15625SOL    HW151813   4.991   6.620   6.348  0.0044  0.5775  2.6519
15625SOL    HW251814   4.855   6.558   6.321  0.5762  0.6591 -0.8442
15626SOL     OW51815   5.728   6.619   6.064 -0.0561  1.2463  0.5089
15626SOL    HW151816   5.681   6.625   6.147 -0.1368 -0.9164  0.6631
15626SOL    HW251817   5.752   6.710   6.044 -0.1169  1.8322  2.8283
15627SOL     OW51818   8.136  11.586   7.475  0.0861  0.2928 -0.7137
15627SOL    HW151819   8.206  11.523   7.492  1.4530  1.5898 -1.3339
15627SOL    HW251820   8.075  11.574   7.547  2.2797  0.9358  1.3735
15628SOL     OW51821   8.317   4.200   9.302  0.1148 -0.4413  0.2188
15628SOL    HW151822   8.259   4.157   9.365  0.9058 -2.6221 -0.4495
15628SOL    HW251823   8.283   4.173   9.217 -0.2504  1.5483 -0.3183
15629SOL     OW51824   3.865   5.048   0.746 -0.1670 -0.2246  0.1131
15629SOL    HW151825   3.839   5.041   0.838  0.8940 -0.6157  0.3985
15629SOL    HW251826   3.897   4.961   0.724 -0.4025 -0.1264 -0.6321
15630SOL     OW51827   5.663   5.560  11.150  0.0877 -0.6203  0.0681
15630SOL    HW151828   5.580   5.605  11.141  0.1653 -0.5619 -0.4043
15630SOL    HW251829   5.724   5.627  11.181 -0.2263 -0.8676  1.2844
15631SOL     OW51830   9.522   7.083   9.729 -0.3117  0.1416 -0.8528
15631SOL    HW151831   9.613   7.111   9.743 -0.5385 -0.0352  1.2591
15631SOL    HW251832   9.510   7.010   9.789 -2.1734  0.8472 -0.3048
15632SOL     OW51833   3.672   0.861   7.129  0.2354 -0.3173 -0.4020
15632SOL    HW151834   3.708   0.897   7.211 -0.2929  0.1325 -0.3642
15632SOL    HW251835   3.733   0.889   7.062 -0.6381  1.4556 -0.5020
15633SOL     OW51836   1.145   3.050   4.196  0.2624  0.5460  0.5755
15633SOL    HW151837   1.162   3.069   4.104  2.5906  0.6912  0.9872
15633SOL    HW251838   1.151   3.134   4.240  1.7713  0.1490  1.1910
15634SOL     OW51839   4.015   3.556  10.254 -0.2489 -0.5665  0.3511
15634SOL    HW151840   4.053   3.625  10.201 -1.1295 -0.6519 -0.4146
15634SOL    HW251841   4.030   3.583  10.345  0.7632 -0.1408  0.0625
15635SOL     OW51842   7.558   8.078   1.057 -0.4616 -0.4078  0.5867
15635SOL    HW151843   7.595   8.162   1.083  2.0618 -1.6150  1.1592
15635SOL    HW251844   7.522   8.041   1.138 -1.2467 -0.0711  0.4042
15636SOL     OW51845   0.215   8.274   9.850 -0.3850 -0.3459  0.1011
15636SOL    HW151846   0.143   8.327   9.885  0.1431  1.3881 -1.2640
15636SOL    HW251847   0.289   8.335   9.846  0.9342 -1.8548  0.6568
15637SOL     OW51848   2.178   3.273   0.138  0.2027 -0.4543 -0.1181
15637SOL    HW151849   2.099   3.271   0.085 -0.1462  0.1727  0.3770
15637SOL    HW251850   2.148   3.295   0.226  0.8930 -0.5035  0.1366
15638SOL     OW51851   8.337   7.311   2.230 -0.1530  0.3061  0.8454
15638SOL    HW151852   8.364   7.399   2.207 -2.1254  1.1733  1.6576
15638SOL    HW251853   8.290   7.321   2.313 -0.6286 -1.4587  0.8325
15639SOL     OW51854   3.412   1.239   8.499 -0.4244 -0.9155 -0.3269
15639SOL    HW151855   3.426   1.158   8.451  0.3625  0.5767 -2.8065
15639SOL    HW251856   3.452   1.307   8.445 -1.4691  1.2175  1.3877
15640SOL     OW51857   4.175   4.118   5.225 -0.2045 -0.1720  0.2587
15640SOL    HW151858   4.169   4.143   5.317  1.5929 -0.5702  0.5159
15640SOL    HW251859   4.142   4.029   5.222 -0.0677 -0.2348  0.5685
15641SOL     OW51860   8.701   5.787   0.458  0.3190  0.0520  0.2578
15641SOL    HW151861   8.608   5.795   0.480  0.2834 -1.6914  0.8767
15641SOL    HW251862   8.742   5.863   0.499 -1.1208  2.4091 -2.2445
15642SOL     OW51863   8.830   9.957   2.362  0.1666  0.0264  0.1275
15642SOL    HW151864   8.747   9.995   2.332  1.3764  1.6880 -1.3029
15642SOL    HW251865   8.840   9.877   2.310  0.1322  0.5821 -0.7502
15643SOL     OW51866  11.602   8.061   2.398  0.6136 -0.4145 -0.6056
15643SOL    HW151867  11.671   8.052   2.463 -0.2167 -2.5022  0.0672
15643SOL    HW251868  11.640   8.028   2.316  0.6890 -0.7256 -0.4449
15644SOL     OW51869   1.032   4.923   9.148  0.0245  0.4368 -0.0750
15644SOL    HW151870   0.937   4.921   9.135  0.2927 -1.3224 -2.4829
15644SOL    HW251871   1.054   4.835   9.177  0.8766  1.0751  1.3159
15645SOL     OW51872   8.882   8.735   0.491  0.4197 -0.6088  0.1021
15645SOL    HW151873   8.797   8.690   0.483 -0.0698  0.5151 -1.8137
15645SOL    HW251874   8.898   8.739   0.585 -2.1324 -0.0342  0.6005
15646SOL     OW51875   2.914  10.987   0.614 -0.5642 -0.3263 -0.2912
15646SOL    HW151876   2.889  10.989   0.706 -0.6565  0.0608 -0.3190
15646SOL    HW251877   2.984  11.053   0.606 -0.4832 -0.4322 -0.4744
15647SOL     OW51878   7.298  10.124   8.839 -0.0141  1.2641  0.1222
15647SOL    HW151879   7.305  10.194   8.773 -2.1657  0.2376 -1.3228
15647SOL    HW251880   7.285  10.171   8.921  2.2372  2.5826 -0.1747
15648SOL     OW51881   9.228   4.556   3.438  0.9063  0.3021  0.0549
15648SOL    HW151882   9.265   4.474   3.471  0.2327 -1.0770 -2.3382
15648SOL    HW251883   9.177   4.530   3.361 -0.5257  2.8150  0.0333
15649SOL     OW51884   7.707   6.664   8.285  0.2373 -0.7348 -0.6678
15649SOL    HW151885   7.624   6.650   8.241 -0.8060 -1.3257  1.3505
15649SOL    HW251886   7.741   6.576   8.303  1.4912 -0.5017 -1.7643
15650SOL     OW51887   1.195   2.582   3.560 -0.3873  0.2245 -0.1562
15650SOL    HW151888   1.199   2.627   3.476  0.4179  1.5418  0.5618
15650SOL    HW251889   1.102   2.561   3.572 -0.6142  0.7255 -1.0073
15651SOL     OW51890   4.058   5.426   1.528  0.1868  0.2514 -0.7862
15651SOL    HW151891   3.976   5.404   1.485 -1.3284  1.3245  1.3944
15651SOL    HW251892   4.123   5.423   1.458 -2.0740  1.7463 -3.1407
15652SOL     OW51893   1.511   3.776   4.024 -0.0747  0.4354  0.1445
15652SOL    HW151894   1.508   3.807   3.933 -1.0002  1.6911  0.5793
15652SOL    HW251895   1.586   3.718   4.026 -0.9065 -0.8253 -1.7978
15653SOL     OW51896  10.642   0.653  11.178 -0.0449  0.0162  0.2926
15653SOL    HW151897  10.711   0.622  11.120  0.6870  0.0839  1.1026
15653SOL    HW251898  10.576   0.584  11.177  0.2406 -0.2543 -0.1355
15654SOL     OW51899   8.659   7.719   6.288  0.6752  0.0438 -0.6235
15654SOL    HW151900   8.717   7.790   6.259  0.8043  0.0668 -0.3125
15654SOL    HW251901   8.690   7.642   6.241 -0.1584  0.4083 -1.8058
15655SOL     OW51902   9.558   3.406   5.240 -0.2686 -0.7088  0.5536
15655SOL    HW151903   9.622   3.360   5.186  2.5028  0.0802  2.9064
15655SOL    HW251904   9.555   3.494   5.204  2.7374  0.2700  2.3812
15656SOL     OW51905   6.760   7.052   4.963 -0.2274  0.4436  0.5124
15656SOL    HW151906   6.719   7.116   4.904 -1.1413 -0.4098  0.2051
15656SOL    HW251907   6.844   7.032   4.920 -0.0331  1.2541  0.4952
15657SOL     OW51908  10.616   6.930  10.168 -0.3227  0.4406  0.1803
15657SOL    HW151909  10.658   7.011  10.142 -1.7216  1.3180  0.5512
15657SOL    HW251910  10.658   6.863  10.114 -0.1456  1.5962 -1.1867
15658SOL     OW51911   3.883   3.672   4.884  0.0125  0.3480 -0.0523
15658SOL    HW151912   3.972   3.688   4.915 -0.2766 -0.7115  1.4261
15658SOL    HW251913   3.870   3.578   4.895 -1.6917  0.6638  0.9588
15659SOL     OW51914   5.722   3.402   0.729  0.2380  0.3691  0.2401
15659SOL    HW151915   5.636   3.422   0.691  0.1616 -2.3539 -1.2215
15659SOL    HW251916   5.703   3.340   0.799  0.8990  1.2592  1.2421
15660SOL     OW51917  10.513   8.071   7.602  0.6091 -0.1151  0.0223
15660SOL    HW151918  10.558   7.989   7.584 -0.5920 -0.9089  0.5423
15660SOL    HW251919  10.461   8.088   7.524 -0.3805 -0.7088  0.5309
15661SOL     OW51920   2.012   3.440   4.312  0.5631  0.0004 -0.8302
15661SOL    HW151921   2.039   3.354   4.279  0.7771  0.8421 -2.9727
15661SOL    HW251922   2.085   3.468   4.367 -0.1760 -1.8085  1.2416
15662SOL     OW51923   9.533   3.559   6.801  0.1549  0.0590 -0.2978
15662SOL    HW151924   9.567   3.475   6.830  0.7124  0.3462 -0.1090
15662SOL    HW251925   9.452   3.571   6.851  1.0610  0.5194  1.0910
15663SOL     OW51926   5.424   5.326   8.277  0.0130 -0.2973  0.1389
15663SOL    HW151927   5.406   5.238   8.312  1.6245 -0.3370  0.9909
15663SOL    HW251928   5.358   5.382   8.316 -1.3079 -1.1905 -0.7532
15664SOL     OW51929  11.324   8.711   7.055 -0.3885 -0.3983 -0.1592
15664SOL    HW151930  11.367   8.702   6.971  0.0954 -4.3901  0.3241
15664SOL    HW251931  11.394   8.701   7.120 -1.3160 -2.2765  0.6333
15665SOL     OW51932   0.852   1.600   2.310  0.3874  0.3282  0.3655
15665SOL    HW151933   0.889   1.615   2.223 -1.4726  0.9591 -0.3722
15665SOL    HW251934   0.912   1.537   2.351  1.7302  0.6070 -1.0619
15666SOL     OW51935   9.903   5.357   1.715  0.3763  0.1862  0.5108
15666SOL    HW151936   9.945   5.396   1.791  2.0269 -0.8640  0.1865
15666SOL    HW251937   9.864   5.276   1.748  2.0307 -0.8226  0.0618
15667SOL     OW51938   5.241   0.234  10.863 -0.3908  0.0840  0.3978
15667SOL    HW151939   5.173   0.298  10.887 -0.7195  0.4200 -1.2870
15667SOL    HW251940   5.192   0.163  10.822  0.1729 -0.3143  0.4128
15668SOL     OW51941   1.620   8.981   6.957 -0.7667 -0.4902 -0.1486
15668SOL    HW151942   1.581   8.915   6.900  0.6547 -2.3302  0.8810
15668SOL    HW251943   1.704   8.943   6.983  1.3189  2.8145 -1.4671
15669SOL     OW51944   5.925   4.401  10.866  0.7026  0.3926 -0.1862
15669SOL    HW151945   5.896   4.400  10.958  1.1846  3.1865  0.0745
15669SOL    HW251946   5.928   4.309  10.841 -2.7528 -0.3630  1.5285
15670SOL     OW51947  11.297   9.099  10.213 -0.0830 -0.0582 -0.0999
15670SOL    HW151948  11.268   9.160  10.281 -0.0198  0.3280 -0.4224
15670SOL    HW251949  11.296   9.013  10.257  0.1334  0.2101  0.4463
15671SOL     OW51950  10.365   2.274   1.377 -0.0909 -0.5822  0.3005
15671SOL    HW151951  10.283   2.229   1.355 -0.1351 -0.5373  0.3718
15671SOL    HW251952  10.427   2.204   1.397 -0.3962 -0.5953  1.2437
15672SOL     OW51953   1.288   1.946   5.708  0.4560  0.0212  0.2571
15672SOL    HW151954   1.268   1.931   5.616 -0.7564  0.9028  0.3438
15672SOL    HW251955   1.318   1.862   5.741 -1.3166 -0.9158 -0.4061
15673SOL     OW51956   5.387   1.318   7.524 -0.4173 -0.0245 -0.0893
15673SOL    HW151957   5.468   1.300   7.572  1.7606  1.7846 -2.7895
15673SOL    HW251958   5.337   1.375   7.583  0.3012 -1.0105  1.5654
15674SOL     OW51959   3.660   4.806   0.954 -0.1346  0.0341  0.3489
15674SOL    HW151960   3.601   4.839   0.886  0.6878  0.7861 -0.0109
15674SOL    HW251961   3.715   4.743   0.909 -1.3361 -1.4776  0.9179
15675SOL     OW51962   5.350   2.055   8.857  0.0778  0.2690  0.0620
15675SOL    HW151963   5.408   2.083   8.786  0.9996 -1.0608  0.2611
15675SOL    HW251964   5.318   2.137   8.896  0.4347  1.0153 -1.1630
15676SOL     OW51965  10.190   0.506  10.438  0.3591 -0.0982  0.1704
15676SOL    HW151966  10.098   0.531  10.449 -0.2361 -2.0877  0.0712
15676SOL    HW251967  10.188   0.436  10.373  2.1124  0.6887 -0.8016
15677SOL     OW51968   0.444   1.625   4.739  0.3110  0.1337  0.6334
15677SOL    HW151969   0.366   1.571   4.726 -0.0566  0.4147  1.5702
15677SOL    HW251970   0.509   1.588   4.680  0.0457 -1.2743  1.1764
15678SOL     OW51971   5.573   3.782   9.244  0.3910  0.0641  0.0513
15678SOL    HW151972   5.539   3.739   9.166 -0.4412 -0.1985  0.5400
15678SOL    HW251973   5.627   3.854   9.211  0.2766 -0.2156 -0.7593
15679SOL     OW51974   5.208   5.670   7.406  0.1489 -0.4938  0.7521
15679SOL    HW151975   5.224   5.761   7.378  1.0196 -0.4058  1.4677
15679SOL    HW251976   5.294   5.628   7.400 -0.2911 -1.3320  0.2305
15680SOL     OW51977   8.828   5.352   9.982  0.3884  0.4212 -0.5645
15680SOL    HW151978   8.787   5.403  10.052  2.0730 -1.0496  1.6117
15680SOL    HW251979   8.759   5.345   9.915 -1.2027  2.1343  0.7764
15681SOL     OW51980   3.996   7.471   0.741 -0.2197  0.0058  0.7149
15681SOL    HW151981   3.967   7.502   0.655  2.0316 -0.3585 -0.2579
15681SOL    HW251982   4.047   7.545   0.776 -0.7847 -0.0039  1.5606
15682SOL     OW51983   9.120   0.719   9.561 -0.1711 -0.1788  0.2150
15682SOL    HW151984   9.078   0.794   9.602  0.2872  1.2715 -1.7747
15682SOL    HW251985   9.213   0.742   9.560 -0.1042 -0.4356 -1.0124
15683SOL     OW51986   6.342   1.219   6.746  0.4234 -0.1111  0.1153
15683SOL    HW151987   6.280   1.254   6.683  0.1745 -1.0009 -0.1414
15683SOL    HW251988   6.288   1.174   6.812  0.5789  1.8875  1.7051
15684SOL     OW51989   1.710   3.628   4.969 -0.0570 -0.5207 -0.6534
15684SOL    HW151990   1.742   3.599   5.054 -1.7180 -1.6748 -0.3672
15684SOL    HW251991   1.769   3.588   4.906  0.7234 -0.2982 -0.0726
15685SOL     OW51992   5.771   3.560  11.595 -0.4526  0.1796 -0.0285
15685SOL    HW151993   5.695   3.545  11.652 -1.3954 -1.6411 -1.6381
15685SOL    HW251994   5.733   3.592  11.513  0.7727  1.6199 -0.0671
15686SOL     OW51995   2.697   8.258   3.373  0.5985 -0.1133  0.3574
15686SOL    HW151996   2.793   8.266   3.369  0.6060 -0.6066 -1.1462
15686SOL    HW251997   2.681   8.164   3.376  0.1449 -0.0983 -1.0507
15687SOL     OW51998   3.866   1.373  11.689 -0.8819  0.8618  0.5382
15687SOL    HW151999   3.852   1.358  11.596  1.3972 -0.2886  0.3192
15687SOL    HW252000   3.795   1.325  11.733 -1.5553  0.8251 -0.5671
15688SOL     OW52001   2.505   6.795   1.229  0.3452 -0.2276  0.2926
15688SOL    HW152002   2.596   6.824   1.239 -0.0708  1.2693 -0.0016
15688SOL    HW252003   2.455   6.876   1.221 -0.8273 -1.0515 -1.2277
15689SOL     OW52004   7.080  10.528   7.225  0.0336  0.5752 -0.3766
15689SOL    HW152005   7.042  10.453   7.181  0.8053 -0.2204  0.2714
15689SOL    HW252006   7.135  10.570   7.159  0.1272  0.1785 -0.5515
15690SOL     OW52007   2.120   8.813   7.124 -0.1072  0.1867 -0.1862
15690SOL    HW152008   2.139   8.873   7.196 -0.4413  0.1060 -0.0260
15690SOL    HW252009   2.153   8.728   7.152  4.4027  1.0170 -2.1620
15691SOL     OW52010   4.095   4.370   6.771 -0.0595 -0.1189 -0.0759
15691SOL    HW152011   4.080   4.456   6.731 -0.1729 -0.1382 -0.0750
15691SOL    HW252012   4.071   4.307   6.704  0.5728 -0.1493 -0.2761
15692SOL     OW52013  10.655  11.035   3.054 -0.7108  0.3419  0.4426
15692SOL    HW152014  10.639  11.023   3.148  0.8006  0.1393  0.6892
15692SOL    HW252015  10.675  10.947   3.022  0.4676  0.6539  0.2804
15693SOL     OW52016   7.113   3.721   5.012  0.7696 -0.0514  0.3019
15693SOL    HW152017   7.051   3.653   5.040 -0.4306  1.3823  1.3154
15693SOL    HW252018   7.114   3.715   4.916 -0.8968 -0.2069  0.2543
15694SOL     OW52019  11.468   6.571   3.672 -0.4115  0.2012  0.1454
15694SOL    HW152020  11.546   6.598   3.719 -0.9733  0.3390  1.0133
15694SOL    HW252021  11.423   6.512   3.732 -0.7136 -0.2940 -0.5555
15695SOL     OW52022   3.712  11.226   0.327 -0.2630  0.1632 -0.0728
15695SOL    HW152023   3.750  11.219   0.415 -0.9712 -0.5177  0.1830
15695SOL    HW252024   3.618  11.234   0.341 -0.4146 -0.2740 -0.7773
15696SOL     OW52025   1.689  10.624   5.985 -1.2094  0.4533  0.1145
15696SOL    HW152026   1.692  10.653   6.077  0.9047 -0.8866  0.5504
15696SOL    HW252027   1.639  10.543   5.987 -1.7177  0.7620 -0.0339
15697SOL     OW52028   8.481   3.628   8.873 -0.1109 -0.1323 -0.1429
15697SOL    HW152029   8.553   3.690   8.863 -1.5294  1.3988 -1.5707
15697SOL    HW252030   8.442   3.648   8.958  0.4795 -0.2359  0.1529
15698SOL     OW52031   2.229   1.616   9.120  0.0842  0.3139 -0.1159
15698SOL    HW152032   2.314   1.581   9.092  0.8055  1.6766  0.3171
15698SOL    HW252033   2.181   1.539   9.151  0.5590 -0.7129 -1.7910
15699SOL     OW52034   7.058   1.623  10.333  0.4373  0.2188 -0.0205
15699SOL    HW152035   6.989   1.598  10.271  0.8119  2.2109 -1.3099
15699SOL    HW252036   7.104   1.696  10.291  1.9149  0.4145  1.7952
15700SOL     OW52037   1.878  10.841   4.308 -0.6387  0.2894  0.4933
15700SOL    HW152038   1.960  10.868   4.267 -0.9872  0.3032 -0.2225
15700SOL    HW252039   1.826  10.805   4.236 -1.2490  0.2523  0.9403
15701SOL     OW52040   0.120   5.072   2.309 -0.1875  0.2243  0.0356
15701SOL    HW152041   0.049   5.099   2.252 -0.5804  1.2314  0.9537
15701SOL    HW252042   0.077   5.026   2.381  0.1232  0.4670  0.3816
15702SOL     OW52043   5.929   1.919   1.506  0.4279 -0.3265 -0.1097
15702SOL    HW152044   5.876   1.987   1.464 -0.4172  0.0188  1.4092
15702SOL    HW252045   6.005   1.908   1.449 -0.0190  1.0252 -1.0132
15703SOL     OW52046   8.003   2.805  11.270 -0.1702  0.1567  0.0545
15703SOL    HW152047   8.044   2.852  11.342  0.5881  1.1405 -0.9745
15703SOL    HW252048   7.912   2.836  11.269  0.0708  0.8772 -0.0028
15704SOL     OW52049   3.792   3.048   5.243  0.2292 -0.2153  0.3220
15704SOL    HW152050   3.758   2.974   5.192  1.2570  0.9388 -2.2340
15704SOL    HW252051   3.882   3.059   5.212  0.7266  0.9448  2.0365
15705SOL     OW52052   8.297   0.964   1.263 -0.0133 -0.3030  0.4308
15705SOL    HW152053   8.303   0.935   1.172 -1.0028 -0.1472  0.3043
15705SOL    HW252054   8.218   0.920   1.297  0.3795 -0.4130  1.2361
15706SOL     OW52055   0.562   7.661   8.139  0.3332  0.9647  0.6017
15706SOL    HW152056   0.592   7.570   8.133  0.1829  1.0288 -2.4873
15706SOL    HW252057   0.467   7.655   8.150 -0.0219  0.6317 -1.9987
15707SOL     OW52058   2.610   2.890   8.906  0.1152  0.0272  0.3756
15707SOL    HW152059   2.515   2.896   8.894 -0.0142 -1.1275  0.6757
15707SOL    HW252060   2.623   2.807   8.954  1.2141  0.5445  1.0151
15708SOL     OW52061   3.958   4.115   3.411 -0.5081 -0.5219 -0.1873
15708SOL    HW152062   4.042   4.102   3.367 -0.7044  0.0660 -0.7759
15708SOL    HW252063   3.977   4.110   3.504 -0.3142 -3.2651 -0.3058
15709SOL     OW52064   8.729   8.890   1.596  0.8276  0.4206 -0.2675
15709SOL    HW152065   8.687   8.825   1.652 -1.4158  2.0772  0.1106
15709SOL    HW252066   8.761   8.957   1.656  1.3634  0.6239 -0.7726
15710SOL     OW52067   1.786   1.278   3.172 -0.0817 -0.1446  0.1222
15710SOL    HW152068   1.692   1.260   3.173  0.0136 -0.7674 -0.8188
15710SOL    HW252069   1.827   1.193   3.188  0.3341  0.2127  1.0578
15711SOL     OW52070   5.327  10.072   9.056  0.1221  0.0171 -0.0859
15711SOL    HW152071   5.280  10.149   9.023  0.6843  1.3012  1.8522
15711SOL    HW252072   5.267  10.032   9.118  0.4821 -0.0252  0.2459
15712SOL     OW52073  11.110  10.426   8.089 -0.0936  0.0523  0.5092
15712SOL    HW152074  11.173  10.476   8.142 -2.0850  1.7872  1.3790
15712SOL    HW252075  11.069  10.366   8.151 -0.5324  0.1616  0.3244
15713SOL     OW52076   7.292   2.516   1.954  0.1557  0.4557 -0.6412
15713SOL    HW152077   7.350   2.492   1.881  1.2092 -0.7693  0.5532
15713SOL    HW252078   7.210   2.542   1.911  0.5589 -0.7433 -2.2464
15714SOL     OW52079   5.089   1.218   1.178 -0.2539 -0.4542 -0.0647
15714SOL    HW152080   5.045   1.239   1.096  0.2862  0.7289 -0.0655
15714SOL    HW252081   5.094   1.301   1.225 -0.3019 -1.0573  1.0513
15715SOL     OW52082   0.372   3.216   2.370  0.7823 -0.1030 -0.1964
15715SOL    HW152083   0.392   3.193   2.460  0.9921  1.8818  0.3155
15715SOL    HW252084   0.450   3.191   2.321  1.9325  1.5109  0.7076
15716SOL     OW52085  10.125   2.573   5.344 -0.3959 -0.1568  0.0695
15716SOL    HW152086  10.061   2.611   5.283 -2.0159 -1.5546  0.8015
15716SOL    HW252087  10.089   2.592   5.431 -0.3918 -1.8334  0.4826
15717SOL     OW52088   4.399   1.483  11.392 -0.2255  0.4698  0.3003
15717SOL    HW152089   4.372   1.478  11.301 -0.2203  2.3031  0.1662
15717SOL    HW252090   4.489   1.514  11.390 -0.3389  0.8732  0.9261
15718SOL     OW52091   0.242   9.696   3.289 -0.1742 -0.2823  0.0309
15718SOL    HW152092   0.293   9.718   3.211  1.3918 -0.7890  0.8665
15718SOL    HW252093   0.204   9.610   3.269 -2.9779  1.1856 -1.6308
15719SOL     OW52094   3.158   8.346   7.959 -0.2427 -0.2651 -0.0725
15719SOL    HW152095   3.115   8.269   7.995  0.0003 -0.7224 -0.7559
15719SOL    HW252096   3.184   8.321   7.871 -1.7865  1.2044 -0.9947
15720SOL     OW52097   0.175   8.615  10.243  0.0613 -0.0336  0.6725
15720SOL    HW152098   0.102   8.677  10.242 -0.5738 -0.7448 -0.6213
15720SOL    HW252099   0.253   8.670  10.232 -0.4646  0.5691 -0.1633
15721SOL     OW52100   2.831   1.826   8.521  0.5016 -0.1440  0.1091
15721SOL    HW152101   2.780   1.745   8.514  0.2623  0.0570 -0.5208
15721SOL    HW252102   2.792   1.873   8.595  0.3624 -0.4033  0.2021
15722SOL     OW52103  10.405   0.151  10.595  0.7793  0.0809  0.2065
15722SOL    HW152104  10.320   0.126  10.559  1.0891 -0.9536  0.1899
15722SOL    HW252105  10.391   0.241  10.628 -0.6158 -0.4479  1.1600
15723SOL     OW52106   3.988   4.508   8.247  0.0031  0.4514 -0.6795
15723SOL    HW152107   3.955   4.453   8.318 -1.9005  1.7313 -0.4874
15723SOL    HW252108   4.010   4.447   8.177  1.0336 -0.7607  0.6293
15724SOL     OW52109   2.318   8.937   0.016 -0.4325  0.2837 -0.1255
15724SOL    HW152110   2.290   8.852  -0.016 -0.5974 -0.9933  2.9894
15724SOL    HW252111   2.408   8.924   0.046 -0.1017  1.4927 -0.5144
15725SOL     OW52112   4.155   4.190  10.312  0.3636 -0.3115  0.1936
15725SOL    HW152113   4.060   4.186  10.322  0.2694  0.4427 -0.2847
15725SOL    HW252114   4.174   4.135  10.236  0.3368 -0.6329  0.4177
15726SOL     OW52115   7.787   4.977   1.062  0.4124 -0.0337 -0.2015
15726SOL    HW152116   7.766   5.021   1.144 -0.4594 -0.9773  0.1148
15726SOL    HW252117   7.803   5.047   1.000 -1.1305  0.7488  0.2279
15727SOL     OW52118   8.028   2.101   9.455  0.0889  0.3594 -0.6709
15727SOL    HW152119   8.018   2.195   9.472 -0.8834 -0.3914  4.3242
15727SOL    HW252120   7.941   2.065   9.474  0.8750 -1.7384 -0.9018
15728SOL     OW52121   0.520   0.428   2.117  0.0528  0.0202 -0.0679
15728SOL    HW152122   0.471   0.347   2.136 -0.5010  0.6723  1.4879
15728SOL    HW252123   0.516   0.437   2.022  0.3685 -1.9246 -0.3058
15729SOL     OW52124   9.371   1.493  10.721 -0.0764  0.3721  0.1231
15729SOL    HW152125   9.280   1.468  10.735  0.2483 -0.4839  0.7194
15729SOL    HW252126   9.391   1.463  10.632  0.2766 -1.4779  0.7803
15730SOL     OW52127  10.614   3.487  10.829  0.7123 -0.0764 -0.2571
15730SOL    HW152128  10.597   3.536  10.748 -0.5194  0.0620  0.0653
15730SOL    HW252129  10.708   3.468  10.826  0.4020 -1.7019 -2.6110
15731SOL     OW52130   4.372  10.088   0.222  0.6412  0.6844 -0.5477
15731SOL    HW152131   4.307  10.030   0.261 -1.6945  3.2623 -0.2625
15731SOL    HW252132   4.455  10.063   0.263 -0.2101 -2.2992 -0.4221
15732SOL     OW52133   6.363   0.531   7.803 -0.1106  0.1703  0.3226
15732SOL    HW152134   6.424   0.586   7.851  0.3162 -0.3373  0.3736
15732SOL    HW252135   6.415   0.456   7.775 -1.2577 -1.6520  2.6765
15733SOL     OW52136   9.789   0.732   3.193 -0.0663  0.2532 -0.0332
15733SOL    HW152137   9.884   0.738   3.202  0.0625  1.3232 -1.6644
15733SOL    HW252138   9.759   0.822   3.180 -0.9388 -0.2856 -2.3033
15734SOL     OW52139   3.650   4.744   5.707  0.6799 -0.0999 -0.1422
15734SOL    HW152140   3.601   4.826   5.705  1.4430  0.4843  2.1133
15734SOL    HW252141   3.626   4.700   5.625 -0.1085  2.1363 -1.2027
15735SOL     OW52142   2.118   5.563   1.857  0.1384 -0.0244  0.5165
15735SOL    HW152143   2.166   5.636   1.818 -0.1050 -0.1551 -0.0286
15735SOL    HW252144   2.057   5.604   1.918  2.3178  0.0654  2.7979
15736SOL     OW52145   3.556   3.578   5.625 -0.0941  0.1433 -0.2684
15736SOL    HW152146   3.603   3.582   5.709 -0.7929  0.3084  0.1226
15736SOL    HW252147   3.530   3.486   5.617 -1.6262  0.4694  0.6080
15737SOL     OW52148  11.404   0.131   3.216 -0.9399  0.7824 -0.1796
15737SOL    HW152149  11.427   0.106   3.127 -1.0034 -3.6527  0.7776
15737SOL    HW252150  11.479   0.182   3.246  1.7392 -2.1108 -1.2815
15738SOL     OW52151   1.041   7.609   4.525 -0.2750 -0.1513  0.0892
15738SOL    HW152152   1.045   7.545   4.595  0.0622  0.2016  0.3965
15738SOL    HW252153   0.960   7.658   4.542 -0.3066 -0.2073  0.1013
15739SOL     OW52154   9.595   0.768   7.884  0.1674  0.1068  0.0051
15739SOL    HW152155   9.655   0.842   7.877 -0.0777  0.5168  1.8647
15739SOL    HW252156   9.538   0.777   7.808  1.1857  0.8506 -0.7008
15740SOL     OW52157   9.695   5.285   3.151  0.5420 -0.4748  0.3952
15740SOL    HW152158   9.773   5.315   3.103  0.7809 -1.6928 -0.0159
15740SOL    HW252159   9.705   5.190   3.155 -0.8278 -0.6240  0.5327
15741SOL     OW52160   7.335   9.518  11.060 -0.0524  0.3111 -0.0953
15741SOL    HW152161   7.365   9.608  11.054 -0.3309  0.4054 -0.0713
15741SOL    HW252162   7.415   9.466  11.054  0.0690  0.5420 -0.5695
15742SOL     OW52163   4.013   9.988   0.203 -0.0010 -0.2180 -0.2826
15742SOL    HW152164   3.962   9.919   0.161  0.7032  0.1541 -1.8360
15742SOL    HW252165   3.995  10.066   0.151  0.8812  0.2825  0.1292
15743SOL     OW52166   6.893   2.353  11.268 -0.0174 -0.0372 -0.3926
15743SOL    HW152167   6.897   2.435  11.220  1.4019 -0.4818 -1.0621
15743SOL    HW252168   6.841   2.374  11.346  0.2831  1.4660 -0.5687
15744SOL     OW52169   0.116   2.734   2.009 -0.0481  0.7439  0.3258
15744SOL    HW152170   0.181   2.737   2.079 -0.0352 -0.1383  0.3637
15744SOL    HW252171   0.158   2.685   1.938 -1.0748 -0.9065  0.8072
15745SOL     OW52172   6.160   3.275   0.016  0.3838  0.4472 -0.1328
15745SOL    HW152173   6.177   3.182  -0.001 -0.3234  0.4096 -0.6824
15745SOL    HW252174   6.188   3.319  -0.064 -1.5718  0.4284 -0.8996
15746SOL     OW52175   6.681   9.316   8.114 -0.2992  0.0464 -0.4708
15746SOL    HW152176   6.706   9.397   8.071  0.7046  0.4137  0.7538
15746SOL    HW252177   6.585   9.314   8.106 -0.3099  1.1450 -0.8514
15747SOL     OW52178   4.283   9.024   5.479 -0.6998 -0.2534 -0.1408
15747SOL    HW152179   4.341   9.005   5.553 -0.4751 -0.0374 -0.2594
15747SOL    HW252180   4.302   9.115   5.457  0.2907 -0.7422 -1.3917
15748SOL     OW52181   4.879   2.703   0.997 -0.4557  0.7034  0.4350
15748SOL    HW152182   4.790   2.668   1.002 -0.4367  0.5506 -0.2127
15748SOL    HW252183   4.908   2.683   0.908  1.3115 -1.8678  1.4820
15749SOL     OW52184   3.293   1.688   4.086  0.0642 -0.5193 -0.3671
15749SOL    HW152185   3.354   1.761   4.095 -0.3938 -0.1668 -0.0041
15749SOL    HW252186   3.285   1.653   4.175 -0.8948 -0.0218 -0.2350
15750SOL     OW52187   2.322   5.514   0.508 -0.0607 -0.2403 -0.0967
15750SOL    HW152188   2.299   5.602   0.478 -1.3253 -0.7030 -0.5196
15750SOL    HW252189   2.328   5.522   0.603 -0.3315  0.2579 -0.1181
15751SOL     OW52190   5.172   9.453   8.239 -0.6327 -0.3000  0.5595
15751SOL    HW152191   5.153   9.359   8.232 -1.5326  0.0193 -2.7914
15751SOL    HW252192   5.087   9.496   8.229  0.1893  0.8825 -2.2598
15752SOL     OW52193   5.788   4.898   8.468 -0.1160  0.0485 -0.2781
15752SOL    HW152194   5.869   4.945   8.451 -0.5155  1.0283  0.4899
15752SOL    HW252195   5.726   4.965   8.495 -1.1596 -0.7004 -0.7370
15753SOL     OW52196   4.485   3.014   4.508  0.5163  0.3992 -0.8535
15753SOL    HW152197   4.468   3.025   4.415 -2.1527  0.5141 -0.4239
15753SOL    HW252198   4.514   2.923   4.516  3.9823  1.2280 -2.0822
15754SOL     OW52199   0.571   0.456   3.971  0.0490  0.4032 -0.2450
15754SOL    HW152200   0.483   0.420   3.980  0.2109 -0.5088 -1.8099
15754SOL    HW252201   0.628   0.379   3.971  0.6942  0.8706 -0.6967
15755SOL     OW52202   7.010   5.499   7.496  0.2369 -0.2202  0.1371
15755SOL    HW152203   7.056   5.473   7.416  1.0360 -2.9871  1.3800
15755SOL    HW252204   6.918   5.480   7.477  0.5971 -2.3828  0.3418
15756SOL     OW52205   0.872   8.563   4.253 -0.1913 -0.3166  0.2927
15756SOL    HW152206   0.926   8.488   4.228 -0.1134  0.1382 -0.9528
15756SOL    HW252207   0.837   8.597   4.171 -0.7144  0.6546  0.8915
15757SOL     OW52208   3.839  11.471   7.717 -0.6297  0.4079 -0.7170
15757SOL    HW152209   3.811  11.394   7.668 -1.8233 -0.7307  1.6211
15757SOL    HW252210   3.915  11.442   7.767 -0.5147  1.0197 -0.5300
15758SOL     OW52211   4.263  10.530   1.235  0.3282 -0.3523 -0.3162
15758SOL    HW152212   4.296  10.547   1.323  0.4991 -0.4049 -0.3710
15758SOL    HW252213   4.209  10.451   1.244  1.2441 -1.0116 -0.4730
15759SOL     OW52214   2.345   3.533   8.547 -0.3667  0.5031 -0.6277
15759SOL    HW152215   2.321   3.620   8.515  1.4847  0.9164 -0.9940
15759SOL    HW252216   2.435   3.521   8.518 -0.4180 -1.3297 -0.1181
15760SOL     OW52217   6.933   6.841   4.816 -0.4252 -0.4794 -0.2464
15760SOL    HW152218   7.021   6.877   4.819 -0.8561  0.5998 -0.1761
15760SOL    HW252219   6.944   6.748   4.836  0.6372 -0.2681  0.2028
15761SOL     OW52220   2.796   2.230  11.088 -0.0004  0.0061  0.1686
15761SOL    HW152221   2.731   2.174  11.131  0.1106  0.3500  0.7964
15761SOL    HW252222   2.812   2.187  11.004  1.5300 -2.0220  1.3987
15762SOL     OW52223  11.413   5.024   8.464 -0.2441  0.6759  0.4404
15762SOL    HW152224  11.381   4.935   8.446  1.3342  0.2883 -0.5733
15762SOL    HW252225  11.356   5.055   8.535  0.1016 -1.6915  1.8738
15763SOL     OW52226   7.777   6.452   1.399 -0.0520 -0.5571 -0.4382
15763SOL    HW152227   7.729   6.443   1.316 -2.3236 -0.6367  0.7919
15763SOL    HW252228   7.758   6.371   1.446  1.5111 -0.6705  0.0487
15764SOL     OW52229   5.634   4.064   0.179 -0.1373  0.2497 -0.0841
15764SOL    HW152230   5.726   4.054   0.154 -0.0047 -0.3627  0.6030
15764SOL    HW252231   5.610   3.979   0.216 -1.6489 -0.3611 -2.2725
15765SOL     OW52232   6.823   0.340   0.645 -0.2198 -0.5834 -0.2720
15765SOL    HW152233   6.832   0.433   0.667  0.6981 -0.1253 -2.2963
15765SOL    HW252234   6.734   0.331   0.613 -0.4975 -0.5439  0.4712
15766SOL     OW52235   9.231   1.531   4.497 -0.4017  0.1121  0.4686
15766SOL    HW152236   9.261   1.613   4.534  1.6091 -1.0708  1.6317
15766SOL    HW252237   9.238   1.468   4.568 -0.1473 -1.4385 -0.8622
15767SOL     OW52238   2.515   5.656   9.850  0.0551  0.1983  0.3576
15767SOL    HW152239   2.584   5.605   9.892  2.1685  1.4277 -1.4224
15767SOL    HW252240   2.522   5.743   9.889  0.1645  0.5901 -0.5277
15768SOL     OW52241   6.480   0.547   2.773 -0.2361 -0.1561  0.3797
15768SOL    HW152242   6.521   0.632   2.791 -0.1513 -0.0065 -0.4805
15768SOL    HW252243   6.460   0.549   2.680  0.8311 -1.5460  0.0947
15769SOL     OW52244   4.789   8.898   2.159  0.5390  0.1687 -0.6223
15769SOL    HW152245   4.721   8.914   2.093 -0.5885  0.1161  0.4733
15769SOL    HW252246   4.842   8.828   2.122 -0.3191 -0.1465 -1.3071
15770SOL     OW52247   0.545  11.681   5.736  0.7740 -0.6032  0.0293
15770SOL    HW152248   0.516  11.711   5.822  0.2158 -0.4082 -0.2211
15770SOL    HW252249   0.611  11.614   5.755  1.0014 -0.2259  0.6026
15771SOL     OW52250  11.580   3.389   6.942 -0.5242 -0.2226  0.0855
15771SOL    HW152251  11.564   3.463   7.001 -1.0799  0.6036 -1.0514
15771SOL    HW252252  11.674   3.392   6.926 -0.7132  1.1512 -1.0404
15772SOL     OW52253  11.564   7.821   0.158  0.3573 -0.7103  0.4940
15772SOL    HW152254  11.536   7.905   0.121 -0.9118 -1.1681  0.3641
15772SOL    HW252255  11.597   7.772   0.082  2.8764  0.3176  0.8477
15773SOL     OW52256   5.065   3.259   3.030  0.7106 -0.5976  0.1204
15773SOL    HW152257   4.991   3.262   3.090 -0.3860  1.1715 -1.2307
15773SOL    HW252258   5.025   3.247   2.944  2.0708 -0.6127 -0.5378
15774SOL     OW52259   8.142  10.217   5.261  0.7479 -0.0850  0.2616
15774SOL    HW152260   8.189  10.282   5.208 -0.2458 -0.1937 -0.7990
15774SOL    HW252261   8.189  10.135   5.244 -0.0993 -0.3102 -1.2686
15775SOL     OW52262   7.215  10.050   9.091 -0.5253 -0.5829  0.2785
15775SOL    HW152263   7.192  10.131   9.135 -0.5826 -0.0060 -0.7666
15775SOL    HW252264   7.149   9.987   9.120  0.0700 -0.5343  1.8276
15776SOL     OW52265  11.542  11.374   9.463  0.1124  0.0698  0.2563
15776SOL    HW152266  11.535  11.442   9.529  0.4026  0.5759 -0.2210
15776SOL    HW252267  11.533  11.292   9.511 -1.1302  0.4543  0.7209
15777SOL     OW52268   3.830   5.358   2.633 -0.2245 -0.2480 -0.1076
15777SOL    HW152269   3.899   5.302   2.668 -0.2208 -0.0235  0.2542
15777SOL    HW252270   3.810   5.418   2.705 -0.5247 -0.0622 -0.3454
15778SOL     OW52271  11.410   5.811   7.559  0.5240 -0.3629  0.1624
15778SOL    HW152272  11.344   5.796   7.627  0.1458 -1.0738 -0.3417
15778SOL    HW252273  11.388   5.747   7.491  0.0064  1.2451 -1.2698
15779SOL     OW52274   9.485   5.731   1.696  0.3561 -0.4135  0.2278
15779SOL    HW152275   9.552   5.694   1.755  0.8983 -1.8774 -1.2212
15779SOL    HW252276   9.449   5.655   1.650 -0.1722  0.6481 -1.1940
15780SOL     OW52277   9.430  11.082   8.971 -0.0980 -0.4789  0.0804
15780SOL    HW152278   9.511  11.073   9.022 -0.0385 -0.7230 -0.0557
15780SOL    HW252279   9.451  11.044   8.886 -0.1754 -0.0130 -0.1511
15781SOL     OW52280   5.569   8.955   2.833 -0.2162 -0.0136 -0.1234
15781SOL    HW152281   5.479   8.929   2.811 -0.8586  1.3967  0.7481
15781SOL    HW252282   5.606   8.878   2.875 -0.8392 -0.7788 -0.9234
15782SOL     OW52283   2.392   0.185   6.886  0.0215 -0.3204  0.2341
15782SOL    HW152284   2.444   0.262   6.862  2.8158 -1.6068  1.6813
15782SOL    HW252285   2.367   0.146   6.802  1.0098  0.6108 -0.5187
15783SOL     OW52286   8.346   3.072   2.586  0.3801  0.2752  0.2461
15783SOL    HW152287   8.313   2.994   2.540  0.2869  0.3561  0.1751
15783SOL    HW252288   8.267   3.120   2.611  0.4471  0.5224 -0.0160
15784SOL     OW52289   4.539   6.152   3.405 -0.0006 -0.3134  0.2062
15784SOL    HW152290   4.449   6.142   3.374  0.6854  1.4230 -2.8002
15784SOL    HW252291   4.588   6.086   3.356  0.7666  0.7442 -0.4868
15785SOL     OW52292   8.566   7.078   7.035  0.0794  0.2872 -0.8437
15785SOL    HW152293   8.659   7.098   7.024 -0.1420  0.8294 -1.9093
15785SOL    HW252294   8.543   7.116   7.120  0.9898 -0.5315 -0.1999
15786SOL     OW52295   2.223   7.704   5.803  0.5409  0.4198  0.2418
15786SOL    HW152296   2.277   7.629   5.778  0.6315  0.8685 -0.9538
15786SOL    HW252297   2.150   7.665   5.852  0.7229 -0.4199 -0.1338
15787SOL     OW52298   0.877   5.208   2.844  0.0915  0.0884 -0.1028
15787SOL    HW152299   0.938   5.134   2.838  0.8572  0.5962  1.0187
15787SOL    HW252300   0.906   5.269   2.776  1.3503  0.6597  0.8958
15788SOL     OW52301   3.832   7.152   6.050  0.1376 -0.0286 -0.0534
15788SOL    HW152302   3.888   7.081   6.080  1.7791  0.8006 -1.0030
15788SOL    HW252303   3.849   7.158   5.956 -1.0793  0.6641 -0.2468
15789SOL     OW52304   6.389   2.727   8.081  0.3975 -0.4428  1.0227
15789SOL    HW152305   6.366   2.776   8.160 -0.6649 -0.3775  0.6917
15789SOL    HW252306   6.315   2.668   8.067  1.0865 -1.2617  0.7019
15790SOL     OW52307   7.995   7.217   2.264 -0.2136  0.4029 -0.4817
15790SOL    HW152308   7.944   7.272   2.205 -3.4621 -1.9182 -0.1422
15790SOL    HW252309   7.992   7.262   2.348 -2.7223 -0.0468 -0.2319
15791SOL     OW52310   8.209   4.455   9.380 -0.0830 -0.6084  0.4157
15791SOL    HW152311   8.257   4.373   9.370  0.3565 -0.4560  1.1817
15791SOL    HW252312   8.266   4.510   9.434 -1.0325 -0.3536  1.1915
15792SOL     OW52313   3.029   0.840   8.800  0.4652 -0.3305 -0.5559
15792SOL    HW152314   3.087   0.783   8.750 -1.4320 -1.3430 -1.7402
15792SOL    HW252315   2.967   0.873   8.736  0.1397  1.2667  0.5397
15793SOL     OW52316   9.611   7.950   3.607  0.2334  0.5582  0.4617
15793SOL    HW152317   9.669   7.879   3.636 -0.3483 -0.5240 -0.8775
15793SOL    HW252318   9.532   7.938   3.658 -1.1720 -1.9624 -2.0224
15794SOL     OW52319   9.142  10.587   1.621 -0.5274 -0.1943  0.1346
15794SOL    HW152320   9.142  10.506   1.672  0.6487 -0.1112  0.3043
15794SOL    HW252321   9.173  10.654   1.682  0.2197  0.0393 -0.4750
15795SOL     OW52322  10.737   9.775   4.414  0.1453 -0.1195  0.3179
15795SOL    HW152323  10.717   9.681   4.420 -0.9999 -0.0129 -1.1525
15795SOL    HW252324  10.831   9.780   4.429  0.0652 -1.3784  1.4935
15796SOL     OW52325   4.232   7.233  10.880 -0.2001 -0.1656 -0.5183
15796SOL    HW152326   4.209   7.315  10.836  1.4723 -0.4787 -2.1320
15796SOL    HW252327   4.148   7.191  10.899 -1.0734  1.6563 -0.1435
15797SOL     OW52328   2.405   0.330  10.133 -0.1934  0.5091 -0.1399
15797SOL    HW152329   2.396   0.416  10.092  0.4069  0.9626  0.6585
15797SOL    HW252330   2.498   0.311  10.130 -0.3293 -0.1618 -0.3765
15798SOL     OW52331   7.674   4.113   8.204 -0.4796  0.0603  0.0819
15798SOL    HW152332   7.763   4.084   8.182 -0.3129 -0.1560  1.0205
15798SOL    HW252333   7.649   4.169   8.130 -0.5511 -1.8848 -1.4387
15799SOL     OW52334   3.680   8.372  10.148 -1.1913 -0.1763  0.0940
15799SOL    HW152335   3.687   8.451  10.202  1.9486  0.8803 -1.6407
15799SOL    HW252336   3.730   8.306  10.195 -1.5958 -0.3779  0.2493
15800SOL     OW52337   0.869  10.659   5.175  0.7453  0.3329  0.1361
15800SOL    HW152338   0.875  10.586   5.236  2.6769  1.0962  0.9479
15800SOL    HW252339   0.872  10.737   5.230 -1.8059  1.1133 -0.6593
15801SOL     OW52340   1.183  10.129   1.458 -0.0033  0.0772 -0.0336
15801SOL    HW152341   1.230  10.199   1.503  0.2853 -0.2909  0.2471
15801SOL    HW252342   1.101  10.169   1.429  0.2967  0.6102 -0.1497
15802SOL     OW52343  10.354   4.379  11.037 -0.0049  0.2380  0.9458
15802SOL    HW152344  10.403   4.457  11.013  0.8841 -0.1320  1.5139
15802SOL    HW252345  10.413   4.306  11.016 -0.4335 -0.2305  1.3345
15803SOL     OW52346   9.218   5.926   4.912 -0.0129 -0.4305 -0.0168
15803SOL    HW152347   9.193   6.016   4.890  0.7231 -0.7812 -2.5333
15803SOL    HW252348   9.148   5.895   4.969 -1.2075  1.1482 -0.5612
15804SOL     OW52349   6.578   0.731   4.640  0.4393  0.0991 -0.5319
15804SOL    HW152350   6.485   0.711   4.651  0.1662  1.3982 -0.3389
15804SOL    HW252351   6.605   0.766   4.725  1.1554 -0.3859 -0.5469
15805SOL     OW52352   3.156   1.942   4.696 -0.2961  0.1927 -0.0665
15805SOL    HW152353   3.160   1.993   4.615  1.0317 -1.4862 -1.1179
15805SOL    HW252354   3.247   1.927   4.719 -0.6481  0.9727  2.0114
15806SOL     OW52355   4.501   7.862   7.924 -0.3244 -0.0661 -0.4614
15806SOL    HW152356   4.561   7.915   7.977 -0.4210  0.8914 -1.2817
15806SOL    HW252357   4.443   7.820   7.988  0.5491 -0.1732  0.2757
15807SOL     OW52358   9.640   1.680   0.546 -0.0457 -0.2090  0.1800
15807SOL    HW152359   9.547   1.658   0.549  0.5494 -2.9835  1.2174
15807SOL    HW252360   9.658   1.697   0.454 -1.3621 -0.8476 -0.2153
15808SOL     OW52361   9.588   9.496   5.339  0.1472 -0.1146  0.2038
15808SOL    HW152362   9.646   9.562   5.378  1.1045 -0.7358 -0.1255
15808SOL    HW252363   9.501   9.535   5.344  0.7341  1.3372 -0.3244
15809SOL     OW52364   6.044   8.574   9.806  0.3167  0.3399  0.2624
15809SOL    HW152365   6.018   8.651   9.856  0.1804 -0.2133  1.0688
15809SOL    HW252366   6.086   8.516   9.871 -0.4044 -0.6485 -0.1254
15810SOL     OW52367   0.920  11.649   4.555 -0.1369  0.6211  0.1559
15810SOL    HW152368   0.978  11.573   4.550  0.0533  0.8023 -0.5955
15810SOL    HW252369   0.841  11.616   4.598  0.3560  0.2708  0.8058
15811SOL     OW52370   4.362   6.540   5.068  0.6656 -0.5030 -0.1150
15811SOL    HW152371   4.345   6.628   5.100 -3.3718 -0.9275 -0.6080
15811SOL    HW252372   4.404   6.495   5.142 -0.8894  0.7634  1.6116
15812SOL     OW52373   8.774   3.032   9.740  0.1897 -0.1936 -0.1188
15812SOL    HW152374   8.764   3.127   9.742 -0.5323 -0.2575  2.2046
15812SOL    HW252375   8.738   3.006   9.656  0.5751  1.5895 -0.8817
15813SOL     OW52376  10.277  10.882   4.258  0.2443 -0.4873  0.9250
15813SOL    HW152377  10.300  10.951   4.321  1.5966  0.0489 -0.0981
15813SOL    HW252378  10.190  10.853   4.285 -0.0842  1.1589  1.7932
15814SOL     OW52379  10.405   4.487   9.076  0.0970 -0.6518  0.1937
15814SOL    HW152380  10.324   4.463   9.122  0.7349 -2.2468  0.5422
15814SOL    HW252381  10.439   4.404   9.042  1.8334 -0.0856  0.4437
15815SOL     OW52382   5.828   6.891   6.033 -0.1167  0.8251  0.2822
15815SOL    HW152383   5.764   6.953   6.066  0.8506  1.6288  0.7070
15815SOL    HW252384   5.879   6.941   5.969  0.8720  0.5685  0.8571
15816SOL     OW52385   0.721  10.683   1.791 -0.0865 -0.3111  0.1790
15816SOL    HW152386   0.798  10.719   1.834  0.8505  0.3659 -1.9351
15816SOL    HW252387   0.663  10.758   1.780 -2.3093 -1.2251  4.0119
15817SOL     OW52388   8.518   1.200   4.058  0.1410  0.4214 -0.0826
15817SOL    HW152389   8.440   1.226   4.009  0.0131 -1.1293 -0.7472
15817SOL    HW252390   8.484   1.155   4.136  0.3363 -1.0007 -0.7855
15818SOL     OW52391   6.559   1.171   5.013 -0.0745 -0.1154 -0.4375
15818SOL    HW152392   6.533   1.126   5.094 -0.5966  0.2204 -0.4087
15818SOL    HW252393   6.633   1.225   5.038  0.2301 -0.5662 -0.3541
15819SOL     OW52394   2.446   1.053   4.655 -0.1510  0.1995 -0.2904
15819SOL    HW152395   2.530   1.095   4.635 -0.6137  0.6002 -1.5353
15819SOL    HW252396   2.414   1.097   4.733 -0.5025  2.0544 -1.4153
15820SOL     OW52397   1.926   6.948   6.750  0.0489  0.4346 -0.3624
15820SOL    HW152398   1.870   6.976   6.823  0.2015 -1.5742  0.5910
15820SOL    HW252399   1.867   6.947   6.674 -0.5486  0.8853  0.0821
15821SOL     OW52400   6.729   8.667   8.215 -0.2528  0.0813 -0.5221
15821SOL    HW152401   6.750   8.674   8.308 -2.1615  0.0104 -0.0378
15821SOL    HW252402   6.633   8.670   8.212 -0.2577 -0.6386 -2.4267
15822SOL     OW52403  10.410  10.017   4.833  0.3967  0.0459 -0.0660
15822SOL    HW152404  10.375  10.012   4.744  1.8274 -2.5706 -0.5768
15822SOL    HW252405  10.344   9.976   4.888  1.4171 -2.6635 -0.6888
15823SOL     OW52406   7.933   4.496  11.237  0.5778 -0.3425  0.3747
15823SOL    HW152407   7.959   4.489  11.328 -0.0737 -0.3441  0.5658
15823SOL    HW252408   8.009   4.464  11.188  2.0176  2.2338  0.7690
15824SOL     OW52409   2.516   2.763   0.334  0.3156  0.2215 -0.2010
15824SOL    HW152410   2.492   2.675   0.304  1.7049  0.1326 -1.1352
15824SOL    HW252411   2.520   2.816   0.254 -0.8631  1.2559  0.3846
15825SOL     OW52412   8.016   6.902   8.827 -0.5420 -0.0742  0.0972
15825SOL    HW152413   8.093   6.878   8.878 -0.3010 -0.7001 -0.5358
15825SOL    HW252414   8.036   6.989   8.793 -0.6128  0.2493  0.8849
15826SOL     OW52415   9.182   0.492   1.387  0.0694 -0.7563  0.6887
15826SOL    HW152416   9.273   0.519   1.378  0.4341 -2.5436 -2.4373
15826SOL    HW252417   9.182   0.428   1.459  1.0646 -0.0734  1.3153
15827SOL     OW52418   0.615   6.548   3.349 -0.5499 -0.5597  0.0553
15827SOL    HW152419   0.710   6.555   3.344 -0.6493  0.6477 -0.6545
15827SOL    HW252420   0.595   6.464   3.309  0.2365 -1.0037  0.5647
15828SOL     OW52421  11.140   3.083   0.074  0.2803 -0.3602  0.3787
15828SOL    HW152422  11.202   3.043   0.013 -0.6964 -1.2149 -0.0736
15828SOL    HW252423  11.156   3.039   0.158 -0.8240 -1.7953 -0.1267
15829SOL     OW52424   3.662  11.004   6.874 -0.1621 -0.0882  0.3116
15829SOL    HW152425   3.679  11.079   6.930  1.4288  0.5637 -0.9691
15829SOL    HW252426   3.693  10.929   6.924  2.0686  0.5702  0.0428
15830SOL     OW52427   8.562  10.385   1.499  0.5383 -0.3118 -0.2888
15830SOL    HW152428   8.633  10.322   1.506  0.9817  0.1572 -0.5002
15830SOL    HW252429   8.593  10.450   1.436 -0.5678 -0.7461 -1.3222
15831SOL     OW52430   8.379   4.133   6.223 -0.2177 -0.2972 -0.0837
15831SOL    HW152431   8.431   4.167   6.295 -0.5063  0.2766 -0.1383
15831SOL    HW252432   8.301   4.188   6.222 -0.6504 -0.9050 -0.2427
15832SOL     OW52433   5.357   0.990   0.867  0.5777 -0.4904  0.0718
15832SOL    HW152434   5.381   0.900   0.848  1.6058 -0.0745 -0.7420
15832SOL    HW252435   5.390   1.040   0.792  0.2606  0.5947  0.6256
15833SOL     OW52436   7.499  10.318   7.368 -0.0700 -0.1054 -0.4139
15833SOL    HW152437   7.416  10.316   7.320 -0.6096  2.0221  0.3499
15833SOL    HW252438   7.479  10.278   7.453 -0.0062 -0.6061 -0.6269
15834SOL     OW52439   1.431   8.012   6.644 -0.3810 -0.5871  0.6742
15834SOL    HW152440   1.468   7.924   6.646 -0.6259 -0.7394 -0.7008
15834SOL    HW252441   1.437   8.039   6.553 -0.3968  0.7947  1.0605
15835SOL     OW52442   2.736   5.448   6.517 -0.1708  0.4066 -0.7123
15835SOL    HW152443   2.704   5.491   6.596 -0.6313  2.2621 -1.8625
15835SOL    HW252444   2.768   5.363   6.548 -0.7593  0.8846  1.3795
15836SOL     OW52445   6.671   6.958   5.831  0.2370  0.2742 -0.4816
15836SOL    HW152446   6.738   7.019   5.797  1.0549 -0.7991 -0.8487
15836SOL    HW252447   6.712   6.919   5.908 -0.4971  0.5691  0.0678
15837SOL     OW52448   0.058   6.333   5.366  0.0727 -0.6741  0.1398
15837SOL    HW152449   0.066   6.383   5.447 -0.5035  0.2530 -0.3525
15837SOL    HW252450  -0.009   6.267   5.384 -1.1703  0.5073 -0.0315
15838SOL     OW52451   6.438   3.602   8.233 -0.1641  0.0647 -0.6511
15838SOL    HW152452   6.489   3.678   8.205 -1.6661  0.8773 -1.3303
15838SOL    HW252453   6.377   3.586   8.161 -0.7570 -0.9677  0.0473
15839SOL     OW52454   1.614   0.212   6.795 -0.1857 -0.6870  0.2797
15839SOL    HW152455   1.693   0.243   6.751 -2.0858  0.3733 -2.6962
15839SOL    HW252456   1.618   0.252   6.882  1.9982  0.1794 -0.1488
15840SOL     OW52457   3.328   1.992   9.081  0.2998 -0.4772 -0.0443
15840SOL    HW152458   3.380   2.050   9.025 -0.9108  0.1059 -0.5839
15840SOL    HW252459   3.359   2.012   9.170  0.4802  0.4001 -0.2894
15841SOL     OW52460   3.344   0.311   0.233  0.0209 -0.0889  0.4507
15841SOL    HW152461   3.406   0.348   0.296 -0.2765  1.5883 -0.1684
15841SOL    HW252462   3.319   0.227   0.270  0.2496  0.6129  2.3198
15842SOL     OW52463   9.553   7.998   0.568  0.0631  0.2728 -0.2568
15842SOL    HW152464   9.473   7.966   0.609  1.2772 -1.1449  1.1162
15842SOL    HW252465   9.577   7.930   0.505  0.8694  0.0583  0.2680
15843SOL     OW52466   0.725  11.624   7.284 -0.0228  0.7105 -0.6755
15843SOL    HW152467   0.819  11.609   7.288 -0.2152 -0.3541  2.2659
15843SOL    HW252468   0.687  11.545   7.322 -2.0396  1.6994 -0.5119
15844SOL     OW52469  10.922   6.305   9.263  0.1243 -0.0938 -0.4432
15844SOL    HW152470  10.996   6.245   9.263 -0.0671 -0.3858 -2.1628
15844SOL    HW252471  10.908   6.326   9.355  1.0337 -1.6401  0.0889
15845SOL     OW52472   0.796   6.364  10.214  0.2678 -0.1413  0.0138
15845SOL    HW152473   0.759   6.276  10.215  2.6146 -1.2210 -0.1358
15845SOL    HW252474   0.781   6.398  10.302 -0.5119 -0.7635  0.1262
15846SOL     OW52475   2.714   0.394   8.952 -0.4188  0.4491 -0.5423
15846SOL    HW152476   2.770   0.450   8.899 -1.5212  0.9543 -1.2079
15846SOL    HW252477   2.674   0.333   8.889  0.8318 -1.1848  0.1767
15847SOL     OW52478   5.570  10.467   8.841  0.3091  0.3614  0.0217
15847SOL    HW152479   5.648  10.420   8.812  0.9495  1.4461 -0.0716
15847SOL    HW252480   5.601  10.555   8.859 -1.3996  1.7163 -2.8987
15848SOL     OW52481  10.981   3.746   5.219  0.2749  0.8969  0.0314
15848SOL    HW152482  11.035   3.709   5.289  0.0798 -1.7483 -1.1095
15848SOL    HW252483  10.915   3.798   5.265  0.8902  0.2340  1.7482
15849SOL     OW52484   7.954  10.378   2.339  0.4449  0.4486  0.7053
15849SOL    HW152485   7.931  10.410   2.251  0.8032 -1.2769 -0.0585
15849SOL    HW252486   7.897  10.303   2.352  3.1410 -1.8636  0.1850
15850SOL     OW52487   7.185   0.619   4.072  0.2488  0.3443 -0.2666
15850SOL    HW152488   7.130   0.544   4.051  1.4162  0.0785 -2.6456
15850SOL    HW252489   7.128   0.695   4.063 -0.5800 -0.1295  0.7861
15851SOL     OW52490   6.706   0.263   2.571  0.4832  0.4887 -0.3569
15851SOL    HW152491   6.755   0.231   2.646  0.4093  1.5283  0.1466
15851SOL    HW252492   6.738   0.210   2.497  0.0867 -0.9989  0.4918
15852SOL     OW52493   9.467   7.987  11.351 -0.2526 -0.5243 -0.1339
15852SOL    HW152494   9.397   8.052  11.360  0.3351  0.0144  0.6329
15852SOL    HW252495   9.449   7.923  11.419  0.9057  0.4808  1.1614
15853SOL     OW52496  11.296   9.247   4.021 -0.1471 -0.1079 -0.2107
15853SOL    HW152497  11.339   9.332   4.028  0.6201 -0.3228 -1.9202
15853SOL    HW252498  11.359   9.191   3.977 -1.3520 -1.0416 -0.8117
15854SOL     OW52499   6.164   1.873  11.367  0.3391 -0.2518 -0.0660
15854SOL    HW152500   6.085   1.836  11.328  0.6206 -2.6967  1.4360
15854SOL    HW252501   6.136   1.909  11.451  0.7680 -1.2833  0.5539
15855SOL     OW52502   5.274  11.189   5.100 -0.8161  0.0289  0.2788
15855SOL    HW152503   5.335  11.205   5.028 -1.5410  0.5446 -0.2384
15855SOL    HW252504   5.254  11.096   5.093  0.5263 -0.3309  0.9654
15856SOL     OW52505   1.076   5.791   6.717  0.6583 -0.3803  0.3342
15856SOL    HW152506   1.069   5.792   6.813  1.6493 -0.5524  0.4199
15856SOL    HW252507   1.023   5.865   6.688 -1.6428 -1.7215  0.8477
15857SOL     OW52508   1.185   4.949   8.535  0.9573  0.0904 -0.1973
15857SOL    HW152509   1.169   4.938   8.629  0.8546  0.2043 -0.2010
15857SOL    HW252510   1.181   4.860   8.499  1.6044 -0.0206  0.0009
15858SOL     OW52511  11.672   3.637  10.091 -0.9033  0.4536 -0.3925
15858SOL    HW152512  11.742   3.622  10.028  0.0774 -0.7987  0.9258
15858SOL    HW252513  11.630   3.552  10.102 -1.1194  0.6711  0.5657
15859SOL     OW52514  10.215   5.605   7.800 -0.5040  0.1365 -0.6464
15859SOL    HW152515  10.178   5.685   7.762  0.1179  0.4467 -0.6127
15859SOL    HW252516  10.282   5.636   7.860 -0.8641 -0.3821  0.0420
15860SOL     OW52517   8.864   3.411   0.527  0.2536  0.3658  0.0594
15860SOL    HW152518   8.814   3.369   0.457  1.7507  0.5903 -1.2084
15860SOL    HW252519   8.835   3.502   0.526 -0.2956  0.1978  0.2770
15861SOL     OW52520   3.694  10.873  11.173  0.0385 -0.6442  0.4888
15861SOL    HW152521   3.786  10.898  11.164 -0.4165  0.6926 -1.0101
15861SOL    HW252522   3.646  10.954  11.160 -1.3596 -1.2225  1.7902
15862SOL     OW52523   5.064   7.504  10.412 -0.0077 -0.4432  0.2799
15862SOL    HW152524   5.098   7.574  10.468 -3.4877  0.8937  0.9974
15862SOL    HW252525   5.132   7.437  10.413  2.3076  1.7299  1.8374
15863SOL     OW52526   7.922  11.301   9.765  0.2572  0.1989  0.0074
15863SOL    HW152527   7.921  11.323   9.858  2.4607  0.1520  0.0863
15863SOL    HW252528   8.011  11.270   9.748 -0.3955 -0.8045 -1.8989
15864SOL     OW52529   7.988  10.352   0.060  0.0778 -0.2332 -0.0427
15864SOL    HW152530   8.022  10.268   0.089 -0.6500  0.1545  2.1007
15864SOL    HW252531   7.922  10.330  -0.006 -0.2687 -1.3831  0.6594
15865SOL     OW52532   7.796   5.933   3.335 -0.2085  0.3481 -0.0646
15865SOL    HW152533   7.785   5.992   3.262 -0.2971 -0.7967 -1.0081
15865SOL    HW252534   7.853   5.980   3.396 -0.5388  1.5075 -0.6371
15866SOL     OW52535  10.069   3.954  10.656 -0.1113 -1.0104 -0.0617
15866SOL    HW152536   9.991   3.910  10.621  0.3134 -1.5521 -0.3409
15866SOL    HW252537  10.087   3.910  10.738  0.3855 -1.4462 -0.3995
15867SOL     OW52538   9.290   2.436   9.614  1.3716 -0.2311  0.5736
15867SOL    HW152539   9.196   2.417   9.611  0.9446  1.7334 -0.7655
15867SOL    HW252540   9.314   2.423   9.706 -0.0365 -1.4819  0.7976
15868SOL     OW52541   2.025   9.150   5.777  0.8860 -0.3612 -0.3161
15868SOL    HW152542   2.105   9.197   5.798  0.1746  0.4766  0.5581
15868SOL    HW252543   1.970   9.159   5.854  0.0765 -1.2297 -0.7680
15869SOL     OW52544   9.754   5.645   1.775  0.2630 -0.4455  0.0027
15869SOL    HW152545   9.793   5.724   1.738 -0.4998 -0.5203 -1.0014
15869SOL    HW252546   9.811   5.574   1.746 -0.7058 -0.5812 -1.6590
15870SOL     OW52547   3.389   9.582   9.325  0.5148 -0.2793  0.0765
15870SOL    HW152548   3.404   9.515   9.392 -1.0822  0.0654  0.8113
15870SOL    HW252549   3.351   9.534   9.251 -2.3324 -0.0205  1.2543
15871SOL     OW52550   8.627   3.559   4.953 -0.1020 -0.3362 -0.0549
15871SOL    HW152551   8.662   3.556   4.864  0.2586  0.1034  0.0698
15871SOL    HW252552   8.687   3.617   5.001 -1.3623  0.9989 -0.0087
15872SOL     OW52553   2.573   4.322   8.554  0.0596 -0.1819 -0.0187
15872SOL    HW152554   2.487   4.355   8.580  0.9787  1.0184  1.7266
15872SOL    HW252555   2.570   4.228   8.574 -0.3437  0.1405  1.5784
15873SOL     OW52556   1.435   5.479   4.659  0.1677 -0.0199  0.0154
15873SOL    HW152557   1.377   5.404   4.647  0.8346 -0.6499  0.6689
15873SOL    HW252558   1.376   5.552   4.678 -0.6053 -0.0008 -2.1710
15874SOL     OW52559   7.123  10.750   8.400 -0.6642  0.7362 -0.3593
15874SOL    HW152560   7.030  10.771   8.401 -0.9580 -0.4013 -1.6215
15874SOL    HW252561   7.148  10.750   8.307  0.2564 -0.3538 -0.1398
15875SOL     OW52562   6.025   1.412  10.123 -0.0678 -0.0653  0.1309
15875SOL    HW152563   6.028   1.453  10.037 -0.9181 -0.6954 -0.2057
15875SOL    HW252564   6.104   1.444  10.167  0.5484  0.0062 -0.9948
15876SOL     OW52565   1.178   6.971   0.429  0.3113 -0.7577  0.4631
15876SOL    HW152566   1.183   7.066   0.445 -0.7493 -0.7051  0.5848
15876SOL    HW252567   1.112   6.963   0.359 -1.1937 -1.5309  1.9126
15877SOL     OW52568   5.718   5.222   5.874 -0.6529  0.1623  0.1245
15877SOL    HW152569   5.643   5.259   5.828  0.5283  1.5199 -0.8334
15877SOL    HW252570   5.755   5.159   5.812 -0.9826 -0.4806  0.5791
15878SOL     OW52571   2.539   9.042  10.400  0.3116  0.2263 -0.2686
15878SOL    HW152572   2.562   9.093  10.478 -0.6303 -0.4373  0.4667
15878SOL    HW252573   2.521   8.954  10.434 -0.0264 -0.0902 -1.2518
15879SOL     OW52574   3.566   9.181  10.750 -0.1187  0.3765 -0.7396
15879SOL    HW152575   3.547   9.129  10.672  0.8155 -1.1078 -0.0315
15879SOL    HW252576   3.616   9.122  10.806  0.0214  1.7072  0.5977
15880SOL     OW52577   9.824   6.089   3.348  0.3493  0.8208  0.2292
15880SOL    HW152578   9.737   6.127   3.353  0.5178  1.3591 -0.6544
15880SOL    HW252579   9.875   6.153   3.298  0.7891 -0.2984 -0.7900
15881SOL     OW52580   7.622   9.359   5.942 -0.2628  0.5099  0.3883
15881SOL    HW152581   7.608   9.266   5.961 -1.2158  0.0034 -2.3052
15881SOL    HW252582   7.538   9.400   5.965 -0.4972  0.3523 -0.1585
15882SOL     OW52583   4.472   0.075   8.557 -0.2293 -0.1069 -0.1654
15882SOL    HW152584   4.512   0.083   8.470  0.9281  0.0981  0.3659
15882SOL    HW252585   4.401   0.012   8.545 -0.0476 -0.1255 -1.2456
15883SOL     OW52586  10.102   2.618   8.918  0.4239  0.2276 -0.0438
15883SOL    HW152587  10.118   2.554   8.849  0.1473 -0.4051  0.4754
15883SOL    HW252588  10.015   2.596   8.951 -0.2174  1.6383 -0.6872
15884SOL     OW52589   6.262   8.441   0.630 -0.5627 -0.0477 -0.6672
15884SOL    HW152590   6.279   8.375   0.698 -1.4420  0.1048 -0.2811
15884SOL    HW252591   6.266   8.392   0.548  0.9044 -0.1614 -0.5586
15885SOL     OW52592   4.170   5.915   7.603 -0.3838 -0.4681 -0.1331
15885SOL    HW152593   4.103   5.973   7.638 -2.5629 -2.2319 -1.0763
15885SOL    HW252594   4.218   5.883   7.680 -1.6455 -0.3264  0.7332
15886SOL     OW52595   4.998   1.564   2.761 -0.8834  0.0450  0.0713
15886SOL    HW152596   5.034   1.578   2.848  2.5200 -2.5854 -0.6758
15886SOL    HW252597   5.069   1.589   2.701 -2.6552  0.5831 -1.9088
15887SOL     OW52598   0.867   3.720   6.493 -0.3742  0.0127 -0.4424
15887SOL    HW152599   0.781   3.733   6.452 -0.8371 -1.9924 -0.2276
15887SOL    HW252600   0.918   3.796   6.465 -1.5779  0.2198 -2.3116
15888SOL     OW52601   4.390   0.797   0.119 -0.3276 -0.0355 -0.6335
15888SOL    HW152602   4.346   0.881   0.133  0.3617  0.6740 -2.4104
15888SOL    HW252603   4.433   0.778   0.203 -1.4582  0.7863  0.1550
15889SOL     OW52604   0.088  10.992  11.158  0.2777 -0.3162 -0.9883
15889SOL    HW152605   0.038  10.949  11.089 -1.5096  0.9506 -0.5717
15889SOL    HW252606   0.023  11.045  11.205  1.8572  0.6420  0.2344
15890SOL     OW52607   0.522   7.065   0.801  0.1761 -1.1349 -0.0283
15890SOL    HW152608   0.520   7.130   0.731 -0.5793 -2.1420 -0.9733
15890SOL    HW252609   0.503   7.114   0.881  1.9223  0.1885 -0.3811
15891SOL     OW52610  10.705   8.009   0.337 -0.2246  0.0823 -0.4403
15891SOL    HW152611  10.654   8.076   0.381  0.7237  0.7264 -0.2897
15891SOL    HW252612  10.758   8.056   0.272 -0.3604 -0.6519 -1.1001
15892SOL     OW52613   2.420  10.809   2.014  0.1494 -0.3337  0.4528
15892SOL    HW152614   2.397  10.731   2.064  1.2030 -1.0242 -0.1000
15892SOL    HW252615   2.515  10.817   2.025  0.6537 -1.2315 -2.3773
15893SOL     OW52616   2.111   6.118   5.074  0.2773 -0.0576 -0.3020
15893SOL    HW152617   2.070   6.035   5.047  1.3285 -0.4965 -0.6220
15893SOL    HW252618   2.143   6.101   5.163  0.2149  0.1073 -0.2485
15894SOL     OW52619   7.247   5.415   0.333  0.3080  0.1150 -0.4097
15894SOL    HW152620   7.335   5.378   0.325 -0.2392 -0.8966 -2.3931
15894SOL    HW252621   7.229   5.453   0.248 -0.6511  1.5908  0.4179
15895SOL     OW52622   0.781  10.871   4.607  0.7379  0.5205  0.1614
15895SOL    HW152623   0.769  10.835   4.695  2.2328 -1.2321 -0.2920
15895SOL    HW252624   0.692  10.872   4.570  0.5391 -3.1201  0.1391
15896SOL     OW52625   5.098   7.920   6.021  0.3231  0.1394 -0.6966
15896SOL    HW152626   5.061   7.995   5.975 -0.1281 -0.3724 -1.1785
15896SOL    HW252627   5.178   7.898   5.973  0.6212  0.4905 -0.3736
15897SOL     OW52628   0.627   9.798   8.383 -0.4628  0.1792 -0.2829
15897SOL    HW152629   0.654   9.783   8.293 -0.5981  1.6535 -0.6036
15897SOL    HW252630   0.689   9.749   8.436 -0.5963 -0.9847 -1.1834
15898SOL     OW52631   3.944  11.004   1.915  0.1346 -0.0198 -0.3784
15898SOL    HW152632   3.928  10.982   2.007  0.2056 -0.9574 -0.5796
15898SOL    HW252633   4.024  10.955   1.892  0.6264  0.9108 -0.6920
15899SOL     OW52634   6.687   3.899   0.246  0.6675 -0.0543 -0.1719
15899SOL    HW152635   6.596   3.923   0.263  1.2525  3.4868 -1.3541
15899SOL    HW252636   6.691   3.883   0.152  1.5452  1.4574 -0.4198
15900SOL     OW52637   5.324   8.960   3.997  0.0577  0.3195  0.1759
15900SOL    HW152638   5.257   8.924   4.055 -0.5364  1.4483  0.2151
15900SOL    HW252639   5.388   9.000   4.056  0.3779 -0.0693  0.1031
15901SOL     OW52640   8.326   5.460   1.099  0.0270 -0.1245  0.0079
15901SOL    HW152641   8.323   5.536   1.156  1.8301 -0.6483  0.8848
15901SOL    HW252642   8.315   5.385   1.158 -0.1171 -0.6083 -0.6183
15902SOL     OW52643   8.786  11.349  10.537  0.5186  0.2204  0.4285
15902SOL    HW152644   8.802  11.372  10.629  0.1510 -1.8728  1.0679
15902SOL    HW252645   8.723  11.277  10.541  0.7822 -0.1528 -1.4511
15903SOL     OW52646   8.099  11.076   5.357 -0.3837  0.4801  0.1939
15903SOL    HW152647   8.075  11.140   5.423  1.0810 -0.4466  1.7119
15903SOL    HW252648   8.178  11.111   5.316 -0.7183  0.5822 -0.3732
15904SOL     OW52649   4.281   3.182  11.312  0.2833  0.0449 -0.2888
15904SOL    HW152650   4.292   3.272  11.343 -0.5219 -0.4758  1.6048
15904SOL    HW252651   4.326   3.128  11.376 -2.8763 -1.1865  1.1214
15905SOL     OW52652   3.877   8.004   6.428  0.3063 -0.0224 -0.1366
15905SOL    HW152653   3.940   8.029   6.360  2.1343 -0.2090  1.4043
15905SOL    HW252654   3.881   7.908   6.430  0.5530 -0.0050  0.4581
15906SOL     OW52655   5.154   5.979   3.137  0.2908  0.6408 -0.0463
15906SOL    HW152656   5.139   6.028   3.056 -0.7097 -1.0052 -0.9103
15906SOL    HW252657   5.113   5.894   3.121  0.7111  0.0261  1.9362
15907SOL     OW52658   6.420   3.255   3.723  0.0299  0.1223  0.4584
15907SOL    HW152659   6.376   3.219   3.800  0.3649 -0.0590  0.5625
15907SOL    HW252660   6.512   3.260   3.747 -0.0893  1.7484  0.7303
15908SOL     OW52661   7.727   0.032   2.585 -0.7782 -0.3909 -0.0003
15908SOL    HW152662   7.685   0.118   2.578  0.6294  0.2440 -1.0128
15908SOL    HW252663   7.770   0.034   2.671 -0.1525  0.1964 -0.3232
15909SOL     OW52664   7.823   9.558   5.194 -0.3070 -0.4593 -0.0627
15909SOL    HW152665   7.823   9.529   5.103  0.5789 -0.4536 -0.0811
15909SOL    HW252666   7.774   9.640   5.194  1.3198  0.5910 -0.9184
15910SOL     OW52667   8.075   0.547   5.419  0.0369  0.0941 -0.0950
15910SOL    HW152668   8.008   0.615   5.424 -0.1449 -0.1802  2.0074
15910SOL    HW252669   8.123   0.554   5.502 -0.7246 -3.0223  0.7617
15911SOL     OW52670   1.093   5.747   1.832  0.5728 -0.3322 -0.1195
15911SOL    HW152671   1.000   5.768   1.817  0.3234 -0.8413  0.6585
15911SOL    HW252672   1.140   5.801   1.769 -0.1750  0.9013  0.3540
15912SOL     OW52673   4.848   5.821   1.975 -0.2363 -0.4474 -0.8545
15912SOL    HW152674   4.827   5.796   1.885 -0.3431 -1.2155 -0.6254
15912SOL    HW252675   4.810   5.751   2.028 -0.0473 -0.0739 -0.2221
15913SOL     OW52676   6.565   6.399   9.014 -0.1636 -0.4828  0.2182
15913SOL    HW152677   6.627   6.439   8.953  1.5434 -1.3335  1.3100
15913SOL    HW252678   6.484   6.388   8.964  1.5063 -2.2155 -2.2826
15914SOL     OW52679  10.417  10.339   6.498 -0.8814 -0.5125 -0.3898
15914SOL    HW152680  10.344  10.381   6.452  0.1206  0.9711 -0.6874
15914SOL    HW252681  10.430  10.392   6.576 -2.5811 -3.0264  1.7746
15915SOL     OW52682  11.130   8.887   6.109 -0.2241 -0.1698 -0.2109
15915SOL    HW152683  11.103   8.950   6.176 -0.5290  0.6403 -1.0842
15915SOL    HW252684  11.224   8.876   6.123 -0.3098 -0.1343  0.4414
15916SOL     OW52685   9.802   2.841   5.454 -0.0717 -0.6570 -0.5830
15916SOL    HW152686   9.821   2.923   5.409  1.2250 -1.6852 -2.0132
15916SOL    HW252687   9.844   2.774   5.400 -0.5236 -2.2018  0.9021
15917SOL     OW52688   8.314   5.292   6.690  0.1933  0.5189 -0.7108
15917SOL    HW152689   8.305   5.197   6.688  1.7761  0.0663  3.4340
15917SOL    HW252690   8.236   5.325   6.644 -2.5096 -2.7938  1.0656
15918SOL     OW52691   2.547   7.339   5.024  0.2127  0.0157  0.5018
15918SOL    HW152692   2.638   7.369   5.027  0.2558  0.0299 -0.5434
15918SOL    HW252693   2.550   7.256   4.976 -0.4572  0.6603 -0.7375
15919SOL     OW52694  10.270   7.692  10.026 -0.4368 -0.7915  0.1518
15919SOL    HW152695  10.322   7.657   9.954 -1.3237 -2.1189  0.1184
15919SOL    HW252696  10.328   7.753  10.070  0.6330 -1.1120 -0.7741
15920SOL     OW52697   9.192   6.388   9.630  0.1740  0.5657 -0.4155
15920SOL    HW152698   9.264   6.411   9.572 -0.3554 -1.1923 -1.8507
15920SOL    HW252699   9.176   6.468   9.680  0.9026  2.0710 -2.4317
15921SOL     OW52700   0.848   1.882   2.312  0.2286 -0.0386  0.0828
15921SOL    HW152701   0.844   1.790   2.338  3.6272  0.1155  1.7213
15921SOL    HW252702   0.804   1.929   2.382  1.0385 -0.2824  0.7766
15922SOL     OW52703   3.259   1.181   7.522 -0.2890 -0.6174  0.1934
15922SOL    HW152704   3.281   1.128   7.445  2.2954 -2.4143  1.9848
15922SOL    HW252705   3.314   1.259   7.514 -0.9127 -0.2318 -0.3573
15923SOL     OW52706   3.817   2.354   8.496  0.3621  0.3653  0.2748
15923SOL    HW152707   3.845   2.407   8.571  2.1619  1.3309 -0.9835
15923SOL    HW252708   3.741   2.305   8.527 -0.0226  2.0479  2.1770
15924SOL     OW52709   2.803   8.616   8.980  0.1027  0.4166  0.3179
15924SOL    HW152710   2.710   8.637   8.976  0.4179  1.7435 -2.8391
15924SOL    HW252711   2.806   8.520   8.981 -1.2973  0.3608  0.2724
15925SOL     OW52712   0.451   8.191   0.045  0.6495  0.4785  0.4529
15925SOL    HW152713   0.385   8.250   0.009 -0.2043  1.4385  3.3337
15925SOL    HW252714   0.476   8.230   0.129  1.5013 -2.2226  1.5724
15926SOL     OW52715   4.041   7.397   3.387 -0.7153 -0.0436  0.5788
15926SOL    HW152716   3.999   7.360   3.310  0.4036 -1.2873  0.5238
15926SOL    HW252717   3.985   7.470   3.412  0.7663  2.8564 -3.5555
15927SOL     OW52718   9.542   9.100  11.606  0.0649 -0.2491 -0.1946
15927SOL    HW152719   9.506   9.187  11.594  1.9506  0.4069 -1.4103
15927SOL    HW252720   9.605   9.110  11.677  2.8443  0.2818 -2.5624
15928SOL     OW52721  11.563   8.052   5.958 -0.4571  0.4328  0.2476
15928SOL    HW152722  11.618   8.070   6.034 -0.2648 -0.7211  0.3974
15928SOL    HW252723  11.607   8.097   5.885  0.4253 -0.0657  0.4583
15929SOL     OW52724  10.801   7.388   4.151 -0.0029 -1.1885 -0.2630
15929SOL    HW152725  10.841   7.457   4.203 -1.0205 -0.6782 -0.1396
15929SOL    HW252726  10.716   7.423   4.125 -0.5722 -2.4084 -0.1393
15930SOL     OW52727   4.868   9.855  10.643 -0.8624  0.0100  0.2609
15930SOL    HW152728   4.795   9.795  10.630 -1.0714  0.2923  0.1212
15930SOL    HW252729   4.946   9.804  10.620 -1.0729 -0.0747 -0.2716
15931SOL     OW52730   3.554   3.514   3.342  0.6435  0.5639  0.1327
15931SOL    HW152731   3.579   3.443   3.283 -0.9883  1.6617 -2.0490
15931SOL    HW252732   3.470   3.485   3.379  0.7952  0.6483  0.5442
15932SOL     OW52733   5.137   1.670   7.900  0.4822 -0.0642  0.4291
15932SOL    HW152734   5.129   1.758   7.864  1.3864  0.4182  1.3702
15932SOL    HW252735   5.053   1.654   7.944 -0.1379 -0.1615 -0.7356
15933SOL     OW52736   8.594   2.023   1.455 -0.7265 -0.5004 -0.0077
15933SOL    HW152737   8.595   2.100   1.398  1.8725 -0.0687  0.5154
15933SOL    HW252738   8.575   2.058   1.542 -1.1756 -0.6963 -0.0210
15934SOL     OW52739   9.472  10.384   3.766  0.7798  0.1574 -0.4882
15934SOL    HW152740   9.431  10.383   3.852  2.7317  2.2854  0.5613
15934SOL    HW252741   9.410  10.338   3.709 -0.5593 -1.3175  2.0089
15935SOL     OW52742   2.856   6.182  10.548  0.6008 -0.6046 -0.5273
15935SOL    HW152743   2.945   6.162  10.575  0.1687 -1.4722  0.2882
15935SOL    HW252744   2.839   6.270  10.583  1.1466 -0.4099 -0.7428
15936SOL     OW52745   8.868   9.358  10.863 -0.1754  0.1425  0.9473
15936SOL    HW152746   8.809   9.371  10.789  1.2047  1.2345 -0.0315
15936SOL    HW252747   8.825   9.403  10.936 -1.5514 -0.9461  0.8491
15937SOL     OW52748   5.314   9.939   5.864 -0.4180  0.0978  0.1832
15937SOL    HW152749   5.396   9.908   5.904 -1.0178 -1.6417  0.1112
15937SOL    HW252750   5.263   9.972   5.938 -0.5334 -0.8602  0.5445
15938SOL     OW52751   5.933   1.878   3.433  0.4474  0.2298 -0.4593
15938SOL    HW152752   5.991   1.922   3.495 -1.6161  0.1436  1.6737
15938SOL    HW252753   5.897   1.805   3.482 -1.5405  0.3433 -1.6512
15939SOL     OW52754   7.200   3.458   7.925 -0.1649 -0.2480  0.0599
15939SOL    HW152755   7.181   3.438   8.016 -0.3744 -0.3849 -0.0125
15939SOL    HW252756   7.284   3.416   7.908 -0.3774 -0.6797  0.0422
15940SOL     OW52757   8.606   4.464  10.508  0.5385 -0.0959  0.2239
15940SOL    HW152758   8.665   4.399  10.546  2.2849  1.6479  0.6452
15940SOL    HW252759   8.520   4.442  10.544  1.0034 -2.3050  0.1287
15941SOL     OW52760   7.614   5.645   6.167 -0.3265  0.4687 -0.6842
15941SOL    HW152761   7.617   5.576   6.100 -1.3722 -0.4661  0.1910
15941SOL    HW252762   7.649   5.602   6.245 -1.9670  0.5830  0.1458
15942SOL     OW52763   1.539   8.400   8.237  0.4006 -0.5471  0.3294
15942SOL    HW152764   1.618   8.447   8.264  0.0404 -0.7617  1.8678
15942SOL    HW252765   1.550   8.386   8.143  1.4064  0.8934  0.2053
15943SOL     OW52766   9.087   5.310  11.476  0.5095 -0.0804 -0.2873
15943SOL    HW152767   9.105   5.370  11.404 -1.3320  0.2024 -0.5677
15943SOL    HW252768   9.084   5.367  11.553  0.7347 -0.1089 -0.2589
15944SOL     OW52769   3.668   8.029   5.287 -0.3528  0.0475  0.0631
15944SOL    HW152770   3.762   8.017   5.296 -0.4326  0.7798  2.8656
15944SOL    HW252771   3.652   8.027   5.192  2.6617  1.3770 -0.5838
15945SOL     OW52772   7.886   2.976  11.515 -0.1481 -0.0004 -0.1075
15945SOL    HW152773   7.802   2.981  11.468  0.5872 -0.7932 -1.5920
15945SOL    HW252774   7.941   3.041  11.471  0.6986 -1.0804 -0.6804
15946SOL     OW52775   1.136   4.590   4.115 -0.3803 -0.1076 -0.2062
15946SOL    HW152776   1.160   4.683   4.117 -0.8300  0.0071 -0.0529
15946SOL    HW252777   1.211   4.547   4.074  0.3289  0.1728  0.7592
15947SOL     OW52778   7.728   8.329   9.797  0.0335  0.0424 -0.3233
15947SOL    HW152779   7.678   8.310   9.877  0.2718  1.8565  0.2988
15947SOL    HW252780   7.721   8.249   9.745 -1.0894 -0.7736  1.0125
15948SOL     OW52781   3.434   0.652  11.640  0.3927  0.1741 -0.6257
15948SOL    HW152782   3.345   0.687  11.644  0.4604  0.3485 -0.6466
15948SOL    HW252783   3.422   0.559  11.619  0.1862  0.0622 -0.0379
15949SOL     OW52784   6.876   8.445   3.258  0.3927 -0.3492  0.3856
15949SOL    HW152785   6.939   8.515   3.242  0.3257 -0.4975 -0.5304
15949SOL    HW252786   6.817   8.448   3.183 -1.1615  0.2650  1.5596
15950SOL     OW52787  11.310   8.519   8.095 -0.0099  0.2986  0.7651
15950SOL    HW152788  11.391   8.533   8.047  0.3048 -2.5744  0.3365
15950SOL    HW252789  11.337   8.505   8.186  0.0739 -1.4280  0.4886
15951SOL     OW52790   9.132   0.143  10.303  0.1234 -0.1208 -0.4235
15951SOL    HW152791   9.162   0.230  10.329 -0.2359 -0.3191  0.7270
15951SOL    HW252792   9.056   0.127  10.358  0.9929 -1.7124  0.3868
15952SOL     OW52793  11.182   5.386   5.059  0.4613  0.0137  0.7182
15952SOL    HW152794  11.136   5.374   5.142  0.5277  0.1883  0.7803
15952SOL    HW252795  11.274   5.396   5.083  0.3929  0.7685  0.6788
15953SOL     OW52796  11.433   4.350   7.152 -0.0826 -0.1498  0.1859
15953SOL    HW152797  11.470   4.274   7.197 -1.3656  0.2356  1.9918
15953SOL    HW252798  11.349   4.318   7.118  0.8822 -0.4581 -2.1481
15954SOL     OW52799  10.429   5.418   1.754 -0.3030  0.1378 -0.1025
15954SOL    HW152800  10.396   5.433   1.843 -0.1385  1.5123 -0.2456
15954SOL    HW252801  10.484   5.340   1.762 -2.9088 -1.7806  0.2855
15955SOL     OW52802   4.990   7.240   3.880 -0.1178 -0.2743 -0.0630
15955SOL    HW152803   5.038   7.227   3.798 -0.1180  0.0798 -0.1184
15955SOL    HW252804   5.056   7.228   3.948 -0.4403 -2.2348 -0.0349
15956SOL     OW52805   7.058   0.497  11.224 -0.4403  0.4127  0.1429
15956SOL    HW152806   7.042   0.521  11.315  0.0723  0.7265  0.1577
15956SOL    HW252807   7.029   0.406  11.217 -0.4398  0.3734  0.6289
15957SOL     OW52808   4.708  10.025   8.452  0.4118 -0.1614 -0.4613
15957SOL    HW152809   4.621   9.985   8.449  0.4535 -0.1869 -1.5696
15957SOL    HW252810   4.693  10.109   8.495  0.1158 -0.8164  0.7507
15958SOL     OW52811   6.170  10.193   9.988  0.3759  0.2652 -0.1463
15958SOL    HW152812   6.225  10.246  10.046  0.9590 -2.2828  1.8112
15958SOL    HW252813   6.167  10.243   9.906  1.6878  2.7667  1.1959
15959SOL     OW52814   0.937  11.312  11.475 -0.7016 -0.4096 -0.5121
15959SOL    HW152815   0.843  11.328  11.467 -1.1511 -0.4211  3.0891
15959SOL    HW252816   0.944  11.230  11.526  1.1061  0.9388  1.6343
15960SOL     OW52817   4.268   5.140   5.445  0.1775  0.2127 -0.3543
15960SOL    HW152818   4.264   5.120   5.539 -1.2498 -0.0491 -0.4380
15960SOL    HW252819   4.357   5.118   5.419  1.4566  2.7996  1.4692
15961SOL     OW52820   6.067   4.731   4.013  0.4283  0.1322 -0.3259
15961SOL    HW152821   6.100   4.685   4.090 -0.0553 -0.6977 -0.5958
15961SOL    HW252822   5.976   4.752   4.035  0.4724  0.4320 -0.4325
15962SOL     OW52823   5.436   3.432   7.757 -0.2103 -0.0889  0.0069
15962SOL    HW152824   5.438   3.480   7.675  2.1324 -1.5257 -0.8770
15962SOL    HW252825   5.455   3.498   7.824  0.2894  0.6752 -0.8700
15963SOL     OW52826   3.911   9.556  10.688 -0.4859  0.4827 -0.0107
15963SOL    HW152827   3.851   9.601  10.748  0.7182  0.8071  0.9960
15963SOL    HW252828   3.986   9.615  10.680 -0.2065  0.0030 -1.0949
15964SOL     OW52829  10.108  11.066   6.100  0.4108  0.0933 -0.5952
15964SOL    HW152830  10.115  11.023   6.015 -0.4575  0.6908 -0.9755
15964SOL    HW252831  10.079  11.155   6.080 -0.8682 -0.0742  0.3928
15965SOL     OW52832   7.091   2.949   2.543  0.6415 -0.5884  0.3891
15965SOL    HW152833   7.172   2.905   2.569  0.6330 -0.3431  0.8369
15965SOL    HW252834   7.100   2.963   2.448  0.7330 -1.3629  0.2774
15966SOL     OW52835   0.583   3.686   0.991 -0.1580  0.0517 -0.1547
15966SOL    HW152836   0.530   3.655   0.918  0.1772  1.3309 -0.9833
15966SOL    HW252837   0.669   3.645   0.977 -0.0199  0.4933 -0.6446
15967SOL     OW52838   8.724   8.983   3.441 -0.2325 -0.1371 -0.1086
15967SOL    HW152839   8.656   9.032   3.395  0.3356  0.8778  0.1192
15967SOL    HW252840   8.696   8.891   3.434 -1.2081  0.1936 -0.6952
15968SOL     OW52841  10.847   9.628   8.696  0.3859 -0.3249 -0.1222
15968SOL    HW152842  10.899   9.614   8.775 -0.2858 -2.3762  0.0201
15968SOL    HW252843  10.877   9.560   8.636 -1.7572 -1.2495 -0.2055
15969SOL     OW52844   5.750   7.150   7.531 -0.8622  0.0432  0.6969
15969SOL    HW152845   5.752   7.127   7.438  1.9969 -0.1392  0.7193
15969SOL    HW252846   5.717   7.239   7.534 -2.1442 -0.3769 -0.3546
15970SOL     OW52847   5.414   4.625   0.524 -0.0834 -0.4695 -0.2323
15970SOL    HW152848   5.424   4.676   0.605 -1.0665  1.1985 -1.0893
15970SOL    HW252849   5.480   4.556   0.530  1.5136  1.0566  0.9290
15971SOL     OW52850   2.790   6.197   2.870  0.5245 -0.0671  0.4112
15971SOL    HW152851   2.807   6.281   2.829 -0.9504 -0.6397 -1.5007
15971SOL    HW252852   2.718   6.214   2.931 -0.4230 -0.1051 -0.6747
15972SOL     OW52853   1.839   9.346   2.165 -0.3634  0.4652 -0.0614
15972SOL    HW152854   1.750   9.326   2.135  0.0873 -2.3305  0.2791
15972SOL    HW252855   1.857   9.432   2.126 -2.9578  0.8659 -0.6297
15973SOL     OW52856   4.001   2.806   8.706  0.5414 -0.6166 -0.0056
15973SOL    HW152857   3.972   2.812   8.615 -0.4337  1.4323  0.3847
15973SOL    HW252858   4.038   2.892   8.726 -0.8028 -0.4138  1.9924
15974SOL     OW52859   7.909   7.371   2.488  0.4530 -0.3428 -0.0697
15974SOL    HW152860   7.826   7.416   2.474  1.4031  1.1002 -1.4180
15974SOL    HW252861   7.914   7.357   2.582 -1.8291 -1.5297 -0.0693
15975SOL     OW52862   6.612   4.415   9.372 -0.0139  0.6967 -0.3190
15975SOL    HW152863   6.529   4.462   9.365 -0.4930 -0.0560  0.1730
15975SOL    HW252864   6.591   4.325   9.349  0.4867  0.3270  0.6077
15976SOL     OW52865  11.184   5.845   5.005 -0.4948  0.2748  0.2952
15976SOL    HW152866  11.104   5.799   4.981 -0.0039 -1.0298  1.0459
15976SOL    HW252867  11.154   5.932   5.034 -1.6712 -0.2783  0.8058
15977SOL     OW52868   4.725   1.202   4.847 -0.7959 -0.0611 -0.5171
15977SOL    HW152869   4.637   1.174   4.824 -0.9902 -0.5429  0.7066
15977SOL    HW252870   4.712   1.270   4.913 -0.2548 -0.2590 -0.1981
15978SOL     OW52871   9.713   6.936  10.259 -0.6549  0.0859 -0.2442
15978SOL    HW152872   9.727   6.842  10.243 -1.0566  0.3444 -2.3955
15978SOL    HW252873   9.622   6.942  10.289 -1.1403 -0.1057 -1.5981
15979SOL     OW52874   0.249   4.760   3.111  0.1800 -0.3557  0.3676
15979SOL    HW152875   0.311   4.691   3.135 -0.5765 -0.8914  0.8365
15979SOL    HW252876   0.263   4.828   3.177 -0.0619 -0.6924  0.7756
15980SOL     OW52877   8.897   9.051  11.431  0.0130 -0.2278 -0.3417
15980SOL    HW152878   8.952   8.973  11.441 -1.3976 -1.3487 -0.8036
15980SOL    HW252879   8.864   9.069  11.519  2.2938  1.4128  0.2317
15981SOL     OW52880  10.089   7.278   2.422  0.2725  0.5313  0.9267
15981SOL    HW152881  10.034   7.335   2.368  1.1127 -0.1902 -0.7605
15981SOL    HW252882  10.165   7.332   2.445  1.2585  0.0608 -0.9976
15982SOL     OW52883   6.102  11.166   5.458  0.2483 -0.0947  0.3968
15982SOL    HW152884   6.122  11.154   5.366 -0.4597 -0.3373  0.2711
15982SOL    HW252885   6.174  11.123   5.504  0.4235 -0.2697 -0.0387
15983SOL     OW52886  10.137  11.144  10.110 -0.2450 -0.0777 -0.1196
15983SOL    HW152887  10.062  11.113  10.060 -0.2190  0.1466 -0.2972
15983SOL    HW252888  10.175  11.213  10.056 -0.4071  0.3881  0.3537
15984SOL     OW52889   3.788  10.296   3.543 -0.1248 -0.0001 -0.0693
15984SOL    HW152890   3.707  10.347   3.554 -0.7637 -0.9977  0.0874
15984SOL    HW252891   3.827  10.295   3.630 -0.1572  0.1588 -0.0530
15985SOL     OW52892   9.921   4.639   8.286 -0.2249  0.2766 -0.5367
15985SOL    HW152893   9.994   4.653   8.347 -1.2890  0.3917  0.7595
15985SOL    HW252894   9.955   4.576   8.222  1.2224  0.8486 -0.3659
15986SOL     OW52895   9.371   3.144   4.070  0.2744  0.2414  0.8315
15986SOL    HW152896   9.438   3.085   4.105 -1.1244 -1.8272  0.2044
15986SOL    HW252897   9.353   3.205   4.141  1.2855 -0.5098  1.7622
15987SOL     OW52898   5.935   8.825   3.856 -0.0245  0.1258 -0.2669
15987SOL    HW152899   5.866   8.795   3.915 -0.7132 -1.6833 -1.8780
15987SOL    HW252900   5.895   8.895   3.806  0.1217  0.7402  0.4653
15988SOL     OW52901   6.984  11.525   9.943  0.2844  0.4904 -0.0019
15988SOL    HW152902   7.074  11.493   9.953 -0.3458 -1.1050  1.0096
15988SOL    HW252903   6.976  11.594  10.008  0.9810  1.1661 -0.6109
15989SOL     OW52904   2.682   9.021   7.781  0.0819  0.1589  0.0365
15989SOL    HW152905   2.634   9.097   7.749 -1.1103 -1.2381 -1.6728
15989SOL    HW252906   2.664   8.952   7.717  1.1441 -1.5708  1.4966
15990SOL     OW52907   6.324  11.266   1.556 -0.0234 -0.4736  0.1897
15990SOL    HW152908   6.391  11.272   1.624  0.7316  0.4104 -0.6052
15990SOL    HW252909   6.249  11.226   1.600  0.4879 -0.0375  1.5137
15991SOL     OW52910  11.596  11.147  11.304  0.0661  0.3383  0.3525
15991SOL    HW152911  11.624  11.180  11.389 -0.4504  2.3593 -0.1944
15991SOL    HW252912  11.591  11.225  11.248  0.0936 -0.8820 -1.4572
15992SOL     OW52913   5.046  10.150   5.176  0.3226  0.2053 -0.7704
15992SOL    HW152914   4.990  10.100   5.116  0.0483 -1.3969  0.7537
15992SOL    HW252915   5.135  10.138   5.142  0.1097 -0.1321 -1.2118
15993SOL     OW52916   9.540   0.834   9.804  0.2532  0.5799  0.0108
15993SOL    HW152917   9.511   0.925   9.813  2.3226  1.3708 -0.8050
15993SOL    HW252918   9.542   0.800   9.893 -0.2356  1.4326  0.3555
15994SOL     OW52919   0.694   4.094   1.117  0.0216 -0.5772  0.1358
15994SOL    HW152920   0.726   4.129   1.033  1.0873  1.8943  1.4605
15994SOL    HW252921   0.712   4.000   1.113 -0.7961 -0.7029 -2.7260
15995SOL     OW52922   0.297  11.495   7.922  0.0645 -0.4480  0.3884
15995SOL    HW152923   0.346  11.486   8.004  0.9926 -0.6348 -0.1733
15995SOL    HW252924   0.287  11.590   7.910 -1.5638 -0.4257  1.5566
15996SOL     OW52925  10.854   4.700   0.128 -0.0770  0.4240  0.5287
15996SOL    HW152926  10.849   4.728   0.219  0.9238 -0.1002  0.7604
15996SOL    HW252927  10.935   4.739   0.095 -0.8688  1.3510 -0.4154
15997SOL     OW52928   6.999   5.813   7.672 -0.3631  1.2874  0.2081
15997SOL    HW152929   7.050   5.798   7.593 -1.7751 -2.0080 -0.2419
15997SOL    HW252930   6.930   5.873   7.645 -1.4143 -0.5448 -1.4568
15998SOL     OW52931   6.663   5.604   6.731  0.5603  0.0760  0.0908
15998SOL    HW152932   6.627   5.525   6.690  0.1349 -0.0240  0.6471
15998SOL    HW252933   6.749   5.614   6.691 -0.5463  1.0370 -2.2592
15999SOL     OW52934   8.211   3.267   0.455 -0.3014  0.5680  0.3310
15999SOL    HW152935   8.206   3.228   0.368  1.0466  0.6169  0.2031
15999SOL    HW252936   8.302   3.254   0.481 -0.2915  1.9571  1.0681
16000SOL     OW52937  10.675  11.270   0.952  0.0893  0.2947  0.4015
16000SOL    HW152938  10.723  11.349   0.925 -1.1567  0.2794 -2.2304
16000SOL    HW252939  10.648  11.230   0.869 -0.5613 -2.1357  1.7086
16001SOL     OW52940   6.054  10.038   3.506 -0.3913 -0.6517 -0.2601
16001SOL    HW152941   5.966  10.075   3.497 -0.5089 -0.9809 -0.4869
16001SOL    HW252942   6.044   9.947   3.479 -0.6600 -1.5731  2.5662
16002SOL     OW52943   6.344  10.788   8.955  0.0516 -0.0284 -0.7480
16002SOL    HW152944   6.427  10.761   8.914 -0.7720 -1.5855 -1.4634
16002SOL    HW252945   6.277  10.758   8.894 -1.0405  1.9133 -0.5589
16003SOL     OW52946   9.570   8.900   5.717  0.3951 -0.6131 -0.7562
16003SOL    HW152947   9.637   8.857   5.664 -0.6519  0.0587 -2.7327
16003SOL    HW252948   9.505   8.929   5.654 -1.7463 -1.1733  1.0595
16004SOL     OW52949   2.170   1.144   3.186 -0.0527  0.4248  0.1452
16004SOL    HW152950   2.121   1.088   3.125 -1.5737 -0.0304  1.6765
16004SOL    HW252951   2.261   1.117   3.176 -0.2667  0.2578 -1.7696
16005SOL     OW52952   4.812   4.184  10.881 -0.3037 -0.1934  0.0399
16005SOL    HW152953   4.823   4.094  10.911 -1.9620 -0.3309  0.3384
16005SOL    HW252954   4.900   4.214  10.860  0.4598 -1.3260  1.5307
16006SOL     OW52955  10.184   3.130   2.977 -0.0440 -0.1912  0.0838
16006SOL    HW152956  10.232   3.169   3.050 -1.4698  1.6354  0.1376
16006SOL    HW252957  10.198   3.191   2.904  1.6344 -2.1565 -1.3436
16007SOL     OW52958   2.897   3.431   6.165  0.7431  0.0812 -0.5208
16007SOL    HW152959   2.878   3.445   6.072  0.7305 -1.1293 -0.7132
16007SOL    HW252960   2.857   3.347   6.186  1.0886  0.1486  0.4892
16008SOL     OW52961   3.957  10.585   7.408  0.0817 -0.6953  0.2340
16008SOL    HW152962   3.880  10.581   7.463 -1.8903  2.1540 -2.0095
16008SOL    HW252963   4.003  10.665   7.436  1.2312 -1.3526  0.2991
16009SOL     OW52964   8.177   1.717   4.732 -0.2570 -0.3504  0.1174
16009SOL    HW152965   8.266   1.691   4.708  0.4708  2.4692 -0.6757
16009SOL    HW252966   8.187   1.759   4.818 -0.6644  0.6641 -0.3175
16010SOL     OW52967   7.379   7.245  11.311 -0.4256  0.1998 -0.1659
16010SOL    HW152968   7.351   7.329  11.347 -0.6558  0.5690 -1.1634
16010SOL    HW252969   7.411   7.266  11.223 -1.4963 -0.8839 -0.8582
16011SOL     OW52970   3.342   6.356   1.721 -0.1382 -0.7478  0.0164
16011SOL    HW152971   3.318   6.303   1.644  0.3251 -1.0391  0.0661
16011SOL    HW252972   3.299   6.313   1.794 -0.5370 -0.5014 -0.0735
16012SOL     OW52973   9.512   7.307   7.280  0.3134 -0.2001 -0.1970
16012SOL    HW152974   9.562   7.226   7.291  0.4813 -0.2073 -0.9599
16012SOL    HW252975   9.577   7.377   7.289  0.3065 -0.1771 -0.3274
16013SOL     OW52976   1.565   6.282   3.293 -0.1764 -0.3962 -0.0600
16013SOL    HW152977   1.607   6.209   3.247 -0.9989 -1.5084  0.8937
16013SOL    HW252978   1.485   6.244   3.329 -0.6325  0.9988  0.4419
16014SOL     OW52979  11.305  10.432   8.984  0.2230 -0.0345 -0.1797
16014SOL    HW152980  11.309  10.359   8.922  1.6617 -0.4464  0.3574
16014SOL    HW252981  11.236  10.408   9.045  0.7386 -1.0086  0.0359
16015SOL     OW52982   2.720  11.412   3.033  0.0594 -0.2063  0.3753
16015SOL    HW152983   2.653  11.461   3.079  1.1061  0.0303  1.7235
16015SOL    HW252984   2.801  11.462   3.049  1.3610 -2.8027  2.6701
16016SOL     OW52985   6.572   8.356   9.538 -0.0574  0.2097 -0.3655
16016SOL    HW152986   6.543   8.290   9.475  1.3973 -1.1662  0.3281
16016SOL    HW252987   6.630   8.308   9.597 -0.7481  1.6386  1.5397
16017SOL     OW52988   5.493   0.794   0.145  0.2919  0.3442  0.0698
16017SOL    HW152989   5.426   0.830   0.204  0.2012  0.6799 -0.2343
16017SOL    HW252990   5.567   0.853   0.156  0.9160 -0.6120  1.1776
16018SOL     OW52991  10.982   7.277   3.324 -0.6009  0.0152  0.1738
16018SOL    HW152992  10.915   7.327   3.371 -1.0771 -0.3664 -0.0862
16018SOL    HW252993  10.941   7.255   3.241 -0.3780 -0.7439  0.2579
16019SOL     OW52994   6.596   0.296   1.974 -0.1541 -0.5363  0.7416
16019SOL    HW152995   6.584   0.274   1.881  2.9187  2.6137 -0.6141
16019SOL    HW252996   6.518   0.347   1.996 -0.1403  0.1257 -0.6434
16020SOL     OW52997   9.219  11.581   9.569 -0.3759  0.2978  0.3745
16020SOL    HW152998   9.169  11.539   9.639 -0.8853 -0.1879 -0.2632
16020SOL    HW252999   9.268  11.650   9.613 -2.0004  1.1529  0.9671
16021SOL     OW53000   8.878   9.203   5.779 -0.5339 -0.8805  0.1016
16021SOL    HW153001   8.864   9.108   5.784 -0.7318 -0.8315  0.5708
16021SOL    HW253002   8.794   9.238   5.752 -0.8345 -0.7380  1.1673
16022SOL     OW53003   7.634   2.945   6.663 -0.0371 -0.3549 -0.1950
16022SOL    HW153004   7.576   3.006   6.617 -1.1901 -1.3185 -0.0384
16022SOL    HW253005   7.668   2.888   6.594 -0.9811 -1.1637  0.0011
16023SOL     OW53006   8.746   4.277  11.566 -0.1052  0.0795 -0.0695
16023SOL    HW153007   8.691   4.299  11.491 -0.7635  0.4188  0.4994
16023SOL    HW253008   8.833   4.309  11.542 -0.7778  2.3409  0.2335
16024SOL     OW53009   2.016   9.478   5.760  0.3502 -0.1028 -0.2449
16024SOL    HW153010   1.963   9.485   5.839 -3.0410 -1.8976 -2.1149
16024SOL    HW253011   2.030   9.384   5.749  1.5596  0.1669 -1.2917
16025SOL     OW53012   8.510   9.185   9.828 -0.1880 -0.6332  0.0503
16025SOL    HW153013   8.419   9.215   9.828  0.7228  2.5093 -1.0598
16025SOL    HW253014   8.543   9.208   9.915  0.3030  1.1169 -0.5530
16026SOL     OW53015   8.383   5.745   3.514 -0.6205  0.0185  0.5873
16026SOL    HW153016   8.294   5.779   3.516 -1.4631 -1.8580 -0.8506
16026SOL    HW253017   8.379   5.663   3.564 -0.2280 -1.0778 -1.0912
16027SOL     OW53018   2.601  10.312   5.347 -0.4199  0.2648  0.3762
16027SOL    HW153019   2.554  10.328   5.266 -0.7771  0.0144  0.5299
16027SOL    HW253020   2.541  10.260   5.400  0.3438 -0.8018  0.2413
16028SOL     OW53021   6.592   0.070   0.716 -0.1929  0.1786 -0.2091
16028SOL    HW153022   6.671   0.016   0.718 -0.6769 -0.5924 -1.1581
16028SOL    HW253023   6.547   0.045   0.635 -1.9101 -0.1067  0.7777
16029SOL     OW53024   1.983   5.842   6.725 -0.5418  0.0515  0.4276
16029SOL    HW153025   1.897   5.883   6.723 -0.9534 -0.8150 -0.6065
16029SOL    HW253026   1.976   5.774   6.793 -0.5747  0.2028  0.5741
16030SOL     OW53027   1.900   5.270   6.446  0.0323 -0.0338 -0.5251
16030SOL    HW153028   1.881   5.274   6.352 -0.7333  0.0081 -0.3738
16030SOL    HW253029   1.869   5.183   6.473 -0.0186  0.0700 -0.2519
16031SOL     OW53030   2.059   2.638   9.379 -0.0669  0.0343  0.5993
16031SOL    HW153031   2.066   2.682   9.463 -0.7189 -0.8251  1.1155
16031SOL    HW253032   2.041   2.709   9.317  0.8025  0.7205  1.1076
16032SOL     OW53033   6.518   9.927  11.171  0.1167 -0.4681 -0.3296
16032SOL    HW153034   6.523   9.901  11.079 -2.3890 -2.9482  0.0961
16032SOL    HW253035   6.440   9.982  11.176  0.9994  0.7839  0.1401
16033SOL     OW53036   2.793   3.515   9.090 -0.5794 -0.4006  0.4741
16033SOL    HW153037   2.749   3.434   9.115  1.9868 -1.9847  0.2592
16033SOL    HW253038   2.802   3.563   9.172 -0.2051 -1.3592  1.0134
16034SOL     OW53039   8.858   4.672   3.798  0.4811 -0.3081  0.1842
16034SOL    HW153040   8.879   4.672   3.892  1.3133 -0.7346  0.0167
16034SOL    HW253041   8.788   4.736   3.788 -0.9149 -1.5748  1.3717
16035SOL     OW53042  10.656   7.115   4.346 -0.4724  0.5850 -0.2971
16035SOL    HW153043  10.740   7.069   4.355  0.4685  1.6051 -2.8518
16035SOL    HW253044  10.675   7.188   4.288 -3.3155  0.3751 -1.6838
16036SOL     OW53045   6.832   5.967  10.499  0.1649 -0.3227 -0.3498
16036SOL    HW153046   6.840   6.043  10.557  0.9614 -0.5488 -0.1609
16036SOL    HW253047   6.737   5.953  10.492 -0.0241  1.0057 -0.8111
16037SOL     OW53048   8.687   4.395   1.253 -0.3487 -0.0440  0.3408
16037SOL    HW153049   8.615   4.332   1.251 -1.7658  1.3992  2.2522
16037SOL    HW253050   8.735   4.379   1.172 -0.3927 -3.8111  0.8811
16038SOL     OW53051   4.867   0.707  11.319  0.2121 -0.3960 -0.4397
16038SOL    HW153052   4.801   0.771  11.291  0.4196 -0.2387 -0.5697
16038SOL    HW253053   4.897   0.667  11.238  1.3833  0.6108 -0.5403
16039SOL     OW53054   2.458   1.947   6.468  0.1859 -0.4538  0.1046
16039SOL    HW153055   2.370   1.982   6.480 -1.3841 -3.1024 -2.4701
16039SOL    HW253056   2.512   2.023   6.446 -0.7068  1.6351  4.1552
16040SOL     OW53057   0.351   3.408   0.929 -0.4732  0.2620  0.1659
16040SOL    HW153058   0.265   3.415   0.971 -0.7646  0.4493 -0.4595
16040SOL    HW253059   0.347   3.468   0.855  0.2230  0.3196  0.1701
16041SOL     OW53060   3.630   0.518   3.255 -0.5859  0.6079  0.5930
16041SOL    HW153061   3.673   0.435   3.276  0.4519  0.8057 -0.6181
16041SOL    HW253062   3.538   0.504   3.277 -0.4631 -0.9406  0.1959
16042SOL     OW53063   2.406   3.230   4.114  0.1244  0.2802 -0.1923
16042SOL    HW153064   2.478   3.207   4.055 -0.0325  2.6843 -1.4176
16042SOL    HW253065   2.357   3.148   4.125  1.8155 -0.8984 -1.0445
16043SOL     OW53066   6.174   2.837   4.852  0.4503  0.2755  0.2846
16043SOL    HW153067   6.182   2.744   4.830  1.3255  0.2668  0.5798
16043SOL    HW253068   6.187   2.882   4.769  0.0540  0.1352  0.1453
16044SOL     OW53069   9.748   6.780   8.883 -0.2901 -0.5640 -0.1209
16044SOL    HW153070   9.797   6.820   8.955 -0.5482 -1.9201  0.8449
16044SOL    HW253071   9.669   6.745   8.925  0.0938 -2.3875 -0.8461
16045SOL     OW53072   0.821   4.407  11.471 -0.3268 -1.0875  0.6465
16045SOL    HW153073   0.743   4.456  11.445 -0.3252 -1.9451 -1.1408
16045SOL    HW253074   0.889   4.474  11.480 -0.4648 -0.6444 -1.2025
16046SOL     OW53075   5.780   2.079   8.956 -0.3590  0.1488  0.0833
16046SOL    HW153076   5.862   2.077   9.005 -0.4784  1.1887  0.3567
16046SOL    HW253077   5.804   2.049   8.868  0.8097  2.4235 -0.4723
16047SOL     OW53078   1.289   4.946   7.129  0.0385  0.3903 -0.2127
16047SOL    HW153079   1.207   4.920   7.172 -0.8257  1.9936 -0.8125
16047SOL    HW253080   1.278   4.919   7.038 -0.1871  1.3254 -0.4753
16048SOL     OW53081   8.259   3.096   0.259 -0.1146 -0.9499  0.0435
16048SOL    HW153082   8.199   3.023   0.271 -0.5410 -0.3568  1.8659
16048SOL    HW253083   8.254   3.117   0.166 -0.4964 -2.7728 -0.3878
16049SOL     OW53084  10.348  10.008   9.565 -1.1192  0.0315 -0.8702
16049SOL    HW153085  10.424  10.048   9.523 -1.4013  1.5088 -0.0834
16049SOL    HW253086  10.276  10.024   9.505 -0.6146 -2.6904 -2.3282
16050SOL     OW53087   2.907   6.335   3.266  0.2741  0.6697 -0.0745
16050SOL    HW153088   2.892   6.304   3.355 -1.9279 -0.3104 -0.7238
16050SOL    HW253089   2.820   6.348   3.230  1.0424 -0.4635 -2.5792
16051SOL     OW53090   8.005   2.717   2.643 -0.6220  0.0709  0.4754
16051SOL    HW153091   7.961   2.782   2.589 -0.0449  1.1379  1.2472
16051SOL    HW253092   8.091   2.756   2.661  0.9063 -2.1355 -1.4107
16052SOL     OW53093   3.392   2.323   6.838 -0.0238  0.2659  0.3316
16052SOL    HW153094   3.465   2.307   6.898  0.1188  1.4273  0.4835
16052SOL    HW253095   3.407   2.410   6.803 -0.5099 -0.0923 -0.8425
16053SOL     OW53096   1.337   4.549  10.047 -0.0229  0.1107 -0.4475
16053SOL    HW153097   1.367   4.476   9.993  0.6676 -0.1634  0.2904
16053SOL    HW253098   1.342   4.517  10.137 -2.0900  0.2280 -0.2364
16054SOL     OW53099   3.849  11.612   2.858 -0.2739 -0.0510 -0.2348
16054SOL    HW153100   3.821  11.693   2.900  0.6607 -0.3170  0.9496
16054SOL    HW253101   3.789  11.546   2.891 -0.1594 -0.0874 -0.0999
16055SOL     OW53102   2.558   1.976   4.540  0.4716  0.2294 -0.2698
16055SOL    HW153103   2.500   1.980   4.464  0.6600  1.4618 -0.3705
16055SOL    HW253104   2.646   1.985   4.503  0.6454 -0.2664  0.0066
16056SOL     OW53105   9.362   6.408   0.387  0.4840 -0.4900  0.0836
16056SOL    HW153106   9.301   6.480   0.369  1.5399  0.5118  0.3818
16056SOL    HW253107   9.348   6.346   0.316 -0.9337 -0.3315  0.1908
16057SOL     OW53108   3.984   0.508   2.726 -0.4155  0.1599 -0.4209
16057SOL    HW153109   4.068   0.523   2.770 -0.0993 -1.6383 -0.3169
16057SOL    HW253110   3.974   0.583   2.667  1.1382  0.5369 -0.2574
16058SOL     OW53111   7.596  10.462   2.756  0.2784 -0.1524  0.3870
16058SOL    HW153112   7.514  10.420   2.783  1.6593 -2.6916  0.9055
16058SOL    HW253113   7.568  10.531   2.696 -2.3190  0.0420  1.6752
16059SOL     OW53114   3.836   4.448   2.363 -0.6156  0.3187 -0.0198
16059SOL    HW153115   3.895   4.499   2.419 -2.2472  3.3877 -0.8206
16059SOL    HW253116   3.890   4.424   2.287  0.4972 -0.0979  0.8847
16060SOL     OW53117   3.492   8.193   7.229  0.6678  0.0662 -0.0120
16060SOL    HW153118   3.517   8.156   7.314 -0.7241 -0.9673 -0.0115
16060SOL    HW253119   3.532   8.279   7.227  0.6601  0.1316  1.7342
16061SOL     OW53120  11.577   5.098   1.423 -0.1078 -0.1781 -0.7423
16061SOL    HW153121  11.639   5.029   1.401 -0.1794 -0.4288 -0.1845
16061SOL    HW253122  11.493   5.067   1.390 -0.2136 -0.5477 -0.1412
16062SOL     OW53123   4.520   9.465   4.171  0.2829 -0.3289 -0.2933
16062SOL    HW153124   4.522   9.498   4.261 -1.2760  1.2688 -0.7784
16062SOL    HW253125   4.471   9.531   4.122  0.1881 -1.6565 -2.1207
16063SOL     OW53126   3.651   9.981   1.226  0.3886  0.4307 -0.0177
16063SOL    HW153127   3.596   9.975   1.304  2.3378 -0.3363  1.3434
16063SOL    HW253128   3.684  10.071   1.226  2.6490 -0.3311  1.6962
16064SOL     OW53129   1.833   9.594   5.045  0.3427  0.5490  0.2694
16064SOL    HW153130   1.755   9.619   5.094  0.6399  0.8765  0.5777
16064SOL    HW253131   1.888   9.672   5.046  1.1212  0.0119  0.9280
16065SOL     OW53132   3.999  10.314   9.656  0.9588 -0.4309  0.3017
16065SOL    HW153133   3.909  10.347   9.655  1.7354  1.9020 -0.5297
16065SOL    HW253134   4.052  10.390   9.681  2.8918 -1.0435 -1.5730
16066SOL     OW53135   2.218  10.080   1.412 -0.0348 -0.3277 -0.2603
16066SOL    HW153136   2.250  10.031   1.487 -1.4988 -0.7952  0.0937
16066SOL    HW253137   2.275  10.157   1.406 -0.4073  0.1529  1.8458
16067SOL     OW53138   3.787  10.515   5.925 -0.1365  0.0231 -0.4875
16067SOL    HW153139   3.764  10.490   6.015  0.0427  1.2828 -0.0785
16067SOL    HW253140   3.703  10.541   5.886 -0.1734 -0.2634 -0.6000
16068SOL     OW53141   2.779   7.770  11.657 -0.3784 -0.4886 -0.0660
16068SOL    HW153142   2.697   7.817  11.646  0.1911  0.8306  0.9736
16068SOL    HW253143   2.824   7.779  11.573 -1.0253 -0.6999 -0.4410
16069SOL     OW53144   5.384  10.314   5.459  0.3155 -0.1067 -0.2890
16069SOL    HW153145   5.428  10.398   5.472  0.8804 -0.3652 -0.4909
16069SOL    HW253146   5.363  10.283   5.547 -0.7176  0.6691 -0.2502
16070SOL     OW53147   9.553   6.282   0.522 -0.4241  0.3402  0.4958
16070SOL    HW153148   9.475   6.322   0.482 -1.1305  0.3991  1.8549
16070SOL    HW253149   9.599   6.356   0.562  0.6033  0.3721 -0.7136
16071SOL     OW53150   3.460   2.997   3.450  0.3388  0.6380 -0.2839
16071SOL    HW153151   3.459   2.910   3.490  0.4666  1.3032  1.2144
16071SOL    HW253152   3.517   2.987   3.374 -0.3374 -0.7876 -0.6369
16072SOL     OW53153   3.233  10.197   7.566 -0.8138  0.5252  0.5450
16072SOL    HW153154   3.270  10.226   7.483 -0.2077 -0.0027  0.6214
16072SOL    HW253155   3.231  10.276   7.620  1.6089  0.3190  1.0457
16073SOL     OW53156   8.952   5.967   7.078  0.7992 -0.1089 -0.2674
16073SOL    HW153157   8.915   5.882   7.101  0.7430 -0.3376 -1.1740
16073SOL    HW253158   9.028   5.947   7.023  0.5329  0.4180 -0.8461
16074SOL     OW53159  10.206   4.451  11.415 -0.3243  0.1481 -0.0849
16074SOL    HW153160  10.219   4.360  11.387 -1.5110  0.4938 -1.8793
16074SOL    HW253161  10.224   4.449  11.509  0.8414 -1.6936 -0.2960
16075SOL     OW53162  11.485   4.409   9.306  0.4727 -0.0854 -0.1005
16075SOL    HW153163  11.514   4.414   9.398  0.8861  3.2753 -0.2844
16075SOL    HW253164  11.406   4.355   9.309 -0.5928  1.3801  2.5994
16076SOL     OW53165   6.894  11.016   8.720 -0.0718  0.5091  0.1377
16076SOL    HW153166   6.953  11.047   8.651  0.5439  3.4959  1.8294
16076SOL    HW253167   6.907  11.077   8.792 -1.9941 -1.4052  2.2858
16077SOL     OW53168   7.473   8.744   2.374 -0.1646  0.1676  0.3585
16077SOL    HW153169   7.561   8.780   2.369 -0.5342  1.0074 -0.4289
16077SOL    HW253170   7.434   8.786   2.450  0.3938 -0.8950  1.2611
16078SOL     OW53171   8.660   4.247   3.375  0.1509 -0.2349 -0.2533
16078SOL    HW153172   8.668   4.218   3.466 -0.4357 -0.7327 -0.3593
16078SOL    HW253173   8.719   4.323   3.369 -0.8670  0.6797  0.9134
16079SOL     OW53174   1.659   9.385   5.517 -0.2452 -0.4647 -0.4337
16079SOL    HW153175   1.567   9.409   5.524  0.2078  1.0622  0.7544
16079SOL    HW253176   1.698   9.453   5.461  0.6155  0.3672  1.1044
16080SOL     OW53177   7.318   7.678   2.828 -0.2278  0.3655 -0.0689
16080SOL    HW153178   7.299   7.589   2.860 -0.1721  0.3356 -0.1190
16080SOL    HW253179   7.394   7.706   2.879 -0.1214  0.3068 -0.1957
16081SOL     OW53180   3.297  10.604   4.860 -0.2974 -0.1483  0.3526
16081SOL    HW153181   3.358  10.571   4.794 -0.6155  0.4610 -0.2664
16081SOL    HW253182   3.230  10.535   4.868  1.0636 -1.3625  1.9145
16082SOL     OW53183   2.644   8.636   4.447 -0.4276 -0.1830 -0.2601
16082SOL    HW153184   2.654   8.669   4.537  0.6500  0.1543 -0.4937
16082SOL    HW253185   2.659   8.542   4.455  0.9125  0.0127 -0.2585
16083SOL     OW53186   4.507   2.546   9.299  0.2817  0.6866 -0.0019
16083SOL    HW153187   4.582   2.492   9.275  0.0205  0.6713 -0.8223
16083SOL    HW253188   4.528   2.580   9.385  0.8116 -0.0762  0.1763
16084SOL     OW53189   7.130   8.099   1.873  0.1628  0.2153 -0.3597
16084SOL    HW153190   7.043   8.125   1.843  0.1467  0.5202 -0.0499
16084SOL    HW253191   7.184   8.177   1.859  0.3945  0.0219 -0.5692
16085SOL     OW53192   7.832   0.836   0.084 -0.4214 -0.2022  0.0395
16085SOL    HW153193   7.914   0.819   0.131 -0.0612  2.6049  0.6206
16085SOL    HW253194   7.851   0.811  -0.006  1.1791  0.5531  0.1197
16086SOL     OW53195   4.569   0.404   3.619 -0.2978 -0.0729 -0.3112
16086SOL    HW153196   4.647   0.428   3.569 -1.3958  0.8251 -1.6544
16086SOL    HW253197   4.504   0.471   3.598 -2.3725 -2.2875 -1.4720
16087SOL     OW53198  10.566   6.140  10.464  0.5706  0.4801 -0.1871
16087SOL    HW153199  10.623   6.217  10.455 -0.1471  0.8762 -1.7325
16087SOL    HW253200  10.477   6.176  10.467  0.2035 -0.2657 -1.2136
16088SOL     OW53201   7.264   9.480   5.003 -0.5972  0.3572  0.3000
16088SOL    HW153202   7.181   9.450   5.039 -1.2168  1.3567 -0.2558
16088SOL    HW253203   7.240   9.541   4.934  0.5595  2.8237  1.9163
16089SOL     OW53204   7.829   3.234  10.916  0.1693  0.5525 -0.4896
16089SOL    HW153205   7.886   3.309  10.900 -0.7180  1.2299 -0.5849
16089SOL    HW253206   7.781   3.223  10.833 -0.2170  0.3364 -0.2395
16090SOL     OW53207   3.121   0.735   8.066 -0.1989 -0.1030 -0.2153
16090SOL    HW153208   3.183   0.753   8.136 -0.1456  0.0563 -0.3022
16090SOL    HW253209   3.035   0.747   8.107 -0.2261 -1.8715  0.3348
16091SOL     OW53210   4.288   6.419  10.290  0.1071 -0.1505 -0.1671
16091SOL    HW153211   4.318   6.389  10.204 -0.2264  0.9492 -0.6824
16091SOL    HW253212   4.200   6.454  10.275  0.2683  0.5786  0.5009
16092SOL     OW53213   3.439   5.420  10.157  0.6243  0.4488  0.0504
16092SOL    HW153214   3.361   5.429  10.212 -1.1355 -0.9235 -2.0554
16092SOL    HW253215   3.463   5.328  10.165  0.6720  0.3547 -0.9957
16093SOL     OW53216   4.934   9.823   6.631  0.2284  0.2149 -0.5642
16093SOL    HW153217   4.867   9.755   6.629  1.0996 -0.7079  0.3722
16093SOL    HW253218   4.913   9.880   6.557 -0.6648 -0.9313 -1.2216
16094SOL     OW53219   4.929   5.812   0.120 -0.2927  0.5910 -0.2475
16094SOL    HW153220   4.866   5.741   0.131  1.3645 -1.2659 -1.9656
16094SOL    HW253221   4.878   5.883   0.081 -1.6828 -0.2054  0.0616
16095SOL     OW53222  10.928   3.245   2.108  0.3535  0.1754  0.3399
16095SOL    HW153223  10.934   3.150   2.099 -0.5769  0.0868  0.5115
16095SOL    HW253224  11.013   3.278   2.079  0.0297 -0.5695 -1.5633
16096SOL     OW53225   7.879   6.808   1.269  0.0896 -0.1439  0.6247
16096SOL    HW153226   7.947   6.859   1.225  1.6590 -1.3909  1.4642
16096SOL    HW253227   7.807   6.804   1.206  1.4796 -0.2369 -1.0363
16097SOL     OW53228   3.579  11.491   3.893  0.0240 -0.3062  0.0655
16097SOL    HW153229   3.636  11.435   3.946  0.8095  0.6021  0.1861
16097SOL    HW253230   3.638  11.541   3.838 -0.7862 -1.7755 -2.3125
16098SOL     OW53231  10.010   3.494   4.825  0.5816 -0.1095 -0.1486
16098SOL    HW153232   9.975   3.571   4.779  0.0195 -0.5418 -0.4615
16098SOL    HW253233  10.073   3.456   4.764  2.9015  1.5904  1.0483
16099SOL     OW53234  10.415   0.476   4.382  0.5979 -0.7109  0.3112
16099SOL    HW153235  10.396   0.569   4.391  0.1936 -0.8701  1.1118
16099SOL    HW253236  10.385   0.436   4.463 -0.3280 -1.7220 -0.4864
16100SOL     OW53237   4.660   1.574  11.533  0.6943 -0.0440  0.4323
16100SOL    HW153238   4.651   1.509  11.603  1.2675  0.1577  0.6960
16100SOL    HW253239   4.609   1.649  11.562  0.5754 -0.1244  0.4320
16101SOL     OW53240   1.638  10.204   5.160 -0.4692  0.3085 -0.5758
16101SOL    HW153241   1.604  10.282   5.115  0.8376  1.7309  0.7853
16101SOL    HW253242   1.560  10.156   5.188 -1.3098  1.2331 -1.2618
16102SOL     OW53243   8.116   2.236   5.525 -0.2635 -0.5197  0.1767
16102SOL    HW153244   8.067   2.319   5.523  0.0490 -0.3401 -0.0475
16102SOL    HW253245   8.060   2.177   5.576 -0.2290 -0.0080  0.8270
16103SOL     OW53246   7.665   3.343   3.155 -0.0323  0.1827 -0.0869
16103SOL    HW153247   7.609   3.402   3.106 -0.4592  0.1074  0.3069
16103SOL    HW253248   7.686   3.273   3.093  2.1321  1.7164 -1.2306
16104SOL     OW53249   5.249   0.323   9.294 -0.3277 -0.0018  0.1261
16104SOL    HW153250   5.247   0.238   9.251 -3.1627 -0.0659  0.1875
16104SOL    HW253251   5.164   0.330   9.337  0.5614  2.0757  1.7524
16105SOL     OW53252   3.616   2.610   0.355 -0.2186 -0.3486  0.3269
16105SOL    HW153253   3.667   2.570   0.285  0.3532  1.9167 -0.6370
16105SOL    HW253254   3.662   2.586   0.436  2.6950  1.8977 -0.5153
16106SOL     OW53255   3.730   9.656   0.987  0.1737 -0.0939  0.0538
16106SOL    HW153256   3.741   9.706   1.068  2.6460  0.2368 -0.4291
16106SOL    HW253257   3.746   9.565   1.012 -2.2396 -0.4687  0.5039
16107SOL     OW53258   4.116   6.464   2.029  0.3567 -0.1586  0.4322
16107SOL    HW153259   4.023   6.462   2.006  0.2135  3.6363  0.0477
16107SOL    HW253260   4.117   6.477   2.124  0.1694  3.5587  0.0924
16108SOL     OW53261   2.667   1.615   5.277  0.3665  0.0085 -0.4322
16108SOL    HW153262   2.748   1.665   5.290  0.9003 -1.0924  0.6992
16108SOL    HW253263   2.693   1.540   5.224 -0.0105 -0.1043 -0.4588
16109SOL     OW53264   2.642   6.046   7.919  0.0058  0.3328 -0.1603
16109SOL    HW153265   2.552   6.018   7.938 -0.0740  0.3038 -0.5665
16109SOL    HW253266   2.683   5.968   7.880  0.0317  0.5232 -0.5159
16110SOL     OW53267   9.013   7.228   2.920 -0.3096  0.5733  0.1368
16110SOL    HW153268   9.006   7.268   2.834 -0.0192 -0.3309 -0.3208
16110SOL    HW253269   8.947   7.159   2.920  2.1838 -1.9795 -0.8287
16111SOL     OW53270   6.990   2.227   7.132 -0.6457  0.4324 -0.3879
16111SOL    HW153271   7.027   2.306   7.092 -0.6888 -0.0903 -1.4813
16111SOL    HW253272   7.031   2.154   7.086 -0.2580 -0.2169  0.9290
16112SOL     OW53273   7.469   8.522   5.390 -0.1215  0.1526  0.3246
16112SOL    HW153274   7.523   8.562   5.322 -1.5230 -0.2291 -1.0699
16112SOL    HW253275   7.385   8.503   5.346 -1.0078 -0.2622  2.1165
16113SOL     OW53276   4.649  11.660   4.169 -0.3883 -0.1285 -0.7664
16113SOL    HW153277   4.659  11.569   4.140 -0.5414 -1.1501  2.0867
16113SOL    HW253278   4.695  11.664   4.252 -1.8131  1.9582 -0.0055
16114SOL     OW53279   0.583  11.602   7.893 -0.2825 -0.1042  0.1594
16114SOL    HW153280   0.565  11.677   7.950 -0.8592  0.4275 -0.6995
16114SOL    HW253281   0.543  11.625   7.810  0.3146 -0.9876 -0.3909
16115SOL     OW53282  10.815   3.352   4.380 -0.0717  0.3334 -0.8173
16115SOL    HW153283  10.866   3.429   4.355  0.0528  0.2525 -0.8138
16115SOL    HW253284  10.877   3.280   4.376 -0.4061  0.0863 -1.7133
16116SOL     OW53285   9.548   1.222   9.372 -0.1064  0.1633  0.4074
16116SOL    HW153286   9.464   1.267   9.379  0.0274  0.4163  0.3725
16116SOL    HW253287   9.613   1.291   9.379  0.0850  0.2128 -1.3882
16117SOL     OW53288   9.825   1.368   2.623  0.2739 -0.0582 -0.4543
16117SOL    HW153289   9.733   1.363   2.597 -0.3032 -0.1508  1.4157
16117SOL    HW253290   9.851   1.277   2.637  0.0306  0.0572  0.8935
16118SOL     OW53291   6.571  10.925   8.144  0.2359 -0.3133 -0.4428
16118SOL    HW153292   6.663  10.923   8.170  0.6056 -2.5521 -1.6452
16118SOL    HW253293   6.532  10.850   8.187 -0.3118 -1.0961 -2.2007
16119SOL     OW53294   0.694  11.652   8.454  0.1896  0.4653  0.0207
16119SOL    HW153295   0.775  11.704   8.450 -0.6698  1.8408 -0.4754
16119SOL    HW253296   0.651  11.680   8.535 -0.3986  0.7358 -0.3731
16120SOL     OW53297   8.954   5.555   9.494 -0.5473 -0.6196  0.5995
16120SOL    HW153298   8.906   5.638   9.491 -1.5544 -1.2036  0.3241
16120SOL    HW253299   8.978   5.545   9.586 -0.7085 -0.1890  0.6933
16121SOL     OW53300   4.714   7.194   5.534 -0.1103  0.2032  0.2799
16121SOL    HW153301   4.804   7.190   5.502 -0.2782  0.5339 -0.2293
16121SOL    HW253302   4.668   7.124   5.488 -0.2406  0.3743  0.1503
16122SOL     OW53303   2.815   8.085   0.223  0.0730 -0.1813 -0.3943
16122SOL    HW153304   2.753   8.037   0.168  0.6334  0.5862 -1.7546
16122SOL    HW253305   2.891   8.099   0.166  0.2400  1.5867  0.2086
16123SOL     OW53306   5.793   9.942   9.935 -0.5243  0.2039  0.3971
16123SOL    HW153307   5.820  10.010   9.996 -0.6817  0.9437 -0.3318
16123SOL    HW253308   5.813   9.860   9.980 -1.7206  0.6991  1.9274
16124SOL     OW53309   9.037   1.622   5.491 -0.5869 -0.2970  0.8343
16124SOL    HW153310   9.080   1.570   5.559 -0.3875 -2.3866 -0.8040
16124SOL    HW253311   8.984   1.685   5.540  1.1140 -0.3525  2.9032
16125SOL     OW53312   7.231   1.421   0.488 -0.5385 -0.5663  0.0858
16125SOL    HW153313   7.235   1.329   0.463  0.2204 -0.2164 -1.2285
16125SOL    HW253314   7.246   1.422   0.582  0.2028 -1.7313 -0.0056
16126SOL     OW53315   8.667   7.844   0.726  0.4631  0.0442 -0.2323
16126SOL    HW153316   8.693   7.809   0.641  1.0219  0.6898 -0.3353
16126SOL    HW253317   8.573   7.826   0.732 -0.0309  1.7582 -1.8693
16127SOL     OW53318   0.025   3.242   5.053  0.5932  0.0516 -0.9164
16127SOL    HW153319  -0.005   3.324   5.013  1.8134  0.2597 -1.4490
16127SOL    HW253320   0.103   3.219   5.003  1.7721 -0.0588  0.9266
16128SOL     OW53321   0.512   7.811   0.176 -0.6653  0.4336 -0.0477
16128SOL    HW153322   0.541   7.895   0.140 -1.9495  0.6448 -0.6160
16128SOL    HW253323   0.488   7.759   0.099  1.6579 -1.1112  0.1339
16129SOL     OW53324   5.048   1.299   5.443  0.0788  0.7606 -0.1448
16129SOL    HW153325   5.065   1.234   5.374 -1.7452 -0.6505  0.6685
16129SOL    HW253326   5.002   1.251   5.511  0.7009  2.4161  1.5369
16130SOL     OW53327   6.659   1.130   5.744  0.3013 -0.2614  0.6129
16130SOL    HW153328   6.689   1.065   5.681  0.8197 -1.0693  1.6630
16130SOL    HW253329   6.675   1.090   5.829 -3.2492 -0.5409  1.3011
16131SOL     OW53330   7.038   1.690   0.711  0.7408 -0.1923  0.0156
16131SOL    HW153331   7.006   1.779   0.695 -1.0115 -0.7048  0.4393
16131SOL    HW253332   7.036   1.680   0.806  3.7696  0.2516  0.2303
16132SOL     OW53333   4.852   5.692   2.800 -0.1527  0.2047 -0.1700
16132SOL    HW153334   4.772   5.656   2.762 -0.8346 -0.4822  1.7643
16132SOL    HW253335   4.841   5.680   2.895  1.9679  0.6845  0.1947
16133SOL     OW53336   9.607   9.183   1.175 -0.5067  0.2802  0.6601
16133SOL    HW153337   9.697   9.154   1.188 -0.6559  0.4606  2.3023
16133SOL    HW253338   9.604   9.214   1.084  1.1609  0.5751  0.6881
16134SOL     OW53339   3.913   2.588   0.605 -0.1345  0.3388 -0.1419
16134SOL    HW153340   3.975   2.517   0.587 -1.5587 -0.7534 -0.9889
16134SOL    HW253341   3.902   2.633   0.521 -0.6534  0.3634 -0.0683
16135SOL     OW53342   6.307  11.387  10.883  0.0918  0.2588 -0.1432
16135SOL    HW153343   6.354  11.460  10.842 -0.4160  0.0312 -1.1512
16135SOL    HW253344   6.214  11.407  10.869 -0.1392  0.5059  1.4865
16136SOL     OW53345   7.094   0.239   7.485  0.1467  0.3769  0.0051
16136SOL    HW153346   7.029   0.184   7.442  1.1538 -0.9937  0.1626
16136SOL    HW253347   7.091   0.322   7.436 -0.4322 -0.2959 -1.1460
16137SOL     OW53348   3.141  10.482   4.594 -0.1086  0.1246  0.1107
16137SOL    HW153349   3.054  10.520   4.605 -0.0810  0.1737  0.1615
16137SOL    HW253350   3.161  10.442   4.678 -0.5456 -0.8674 -0.2513
16138SOL     OW53351   5.944   0.380   7.225  0.4200 -0.7067  0.1264
16138SOL    HW153352   5.953   0.393   7.320  0.6382  1.6365 -0.1723
16138SOL    HW253353   5.850   0.365   7.213  0.0022  1.3320  0.5108
16139SOL     OW53354   7.275   1.595   3.846  0.2682 -0.2529 -0.5672
16139SOL    HW153355   7.180   1.605   3.841  0.4123  2.5302  0.5117
16139SOL    HW253356   7.305   1.605   3.755 -0.3559  0.5721 -0.6914
16140SOL     OW53357   3.717   6.969   5.001  0.1502  0.3761  0.1362
16140SOL    HW153358   3.736   6.879   4.977  2.1002  0.4422  1.1969
16140SOL    HW253359   3.642   6.993   4.948  0.2666 -1.5195 -0.9650
16141SOL     OW53360   7.094   5.138   2.569  0.0726  1.0499 -0.2612
16141SOL    HW153361   7.007   5.170   2.544 -0.8145 -0.2962  0.9989
16141SOL    HW253362   7.154   5.205   2.536 -1.4588  2.2198 -0.7810
16142SOL     OW53363   3.147   7.703   1.789 -0.4674  0.0400 -0.0495
16142SOL    HW153364   3.152   7.702   1.885 -1.7770 -0.7827  0.0365
16142SOL    HW253365   3.062   7.744   1.770  0.4197  1.5778 -0.9288
16143SOL     OW53366  10.724   3.060  10.021 -0.0134  0.1664 -0.0712
16143SOL    HW153367  10.669   3.044  10.099  0.4991 -1.5491 -0.0157
16143SOL    HW253368  10.761   2.975  10.001 -0.1476  0.5726 -2.2438
16144SOL     OW53369   6.973   5.597   2.816  0.5415  0.8239 -0.6405
16144SOL    HW153370   6.975   5.508   2.849 -1.0331 -0.7655 -4.3137
16144SOL    HW253371   6.915   5.644   2.876  0.1251 -1.0424  0.4751
16145SOL     OW53372   1.075   5.722   5.994 -0.4551  0.8999 -0.2047
16145SOL    HW153373   0.979   5.718   5.993 -0.4507  0.7323 -1.1834
16145SOL    HW253374   1.102   5.635   6.023 -0.5947 -0.0168 -2.5964
16146SOL     OW53375   6.967   6.290   2.567 -0.2004 -0.0677  0.4052
16146SOL    HW153376   7.044   6.258   2.613 -0.5686 -1.1148  0.3056
16146SOL    HW253377   6.930   6.213   2.524 -1.3133  0.4102  0.4629
16147SOL     OW53378   7.331   3.467   5.767  0.6209 -0.6381 -0.4200
16147SOL    HW153379   7.388   3.393   5.788  0.2473 -0.9488 -0.4690
16147SOL    HW253380   7.243   3.429   5.768  0.2904  0.1123  0.9881
16148SOL     OW53381   4.243   3.599   7.142 -0.1969  0.1203  0.5205
16148SOL    HW153382   4.339   3.596   7.147 -0.2393 -0.6319  1.1466
16148SOL    HW253383   4.222   3.693   7.143  0.5227  0.2908  0.6414
16149SOL     OW53384   2.976   5.790  11.338  0.5121  0.3202  0.1422
16149SOL    HW153385   2.909   5.820  11.276  1.8596  1.4375 -0.8304
16149SOL    HW253386   2.996   5.700  11.310 -0.6083 -0.0567  0.4991
16150SOL     OW53387   5.824   2.691   4.688  0.1108 -0.6337  0.2184
16150SOL    HW153388   5.818   2.786   4.698  0.4433 -0.5305 -0.5042
16150SOL    HW253389   5.889   2.678   4.619  0.5433 -1.4060  0.7549
16151SOL     OW53390  11.571   5.964   0.086  0.1101  0.1277  0.2357
16151SOL    HW153391  11.551   5.871   0.094 -0.8635  0.4679  2.2847
16151SOL    HW253392  11.497   6.000   0.037 -0.1868  0.0276  0.6049
16152SOL     OW53393  10.041   1.556   1.204  0.0339 -0.1816  0.3198
16152SOL    HW153394  10.012   1.640   1.241 -1.6789 -0.1673 -0.9228
16152SOL    HW253395  10.099   1.580   1.132 -0.1560 -0.0627  0.2049
16153SOL     OW53396   4.022   7.343  11.252  0.4165 -0.5853  0.0261
16153SOL    HW153397   4.077   7.279  11.297 -0.0912 -0.2135  1.2248
16153SOL    HW253398   4.083   7.396  11.201  0.8932 -1.7102 -0.6176
16154SOL     OW53399   4.294   1.364   5.849 -0.0486 -0.0131 -0.6236
16154SOL    HW153400   4.232   1.329   5.786 -1.3724  0.0157  0.6161
16154SOL    HW253401   4.241   1.416   5.909  0.9618 -1.0011  1.2232
16155SOL     OW53402   5.193   1.233   0.184  0.3603  0.3265  0.5135
16155SOL    HW153403   5.207   1.307   0.125  0.3657  0.0452  0.1603
16155SOL    HW253404   5.155   1.165   0.129  1.5184 -0.3704  0.5573
16156SOL     OW53405   1.122  11.138   3.638  0.1333 -0.4479 -0.2208
16156SOL    HW153406   1.141  11.047   3.615  2.8412 -0.9186  3.1605
16156SOL    HW253407   1.192  11.188   3.596  0.7300 -0.4020  0.8090
16157SOL     OW53408   0.128   7.006   3.342  0.0073  0.3016 -0.6521
16157SOL    HW153409   0.146   7.081   3.398  2.3450  0.8679 -1.9916
16157SOL    HW253410   0.115   6.933   3.402 -0.1523  1.3682  0.6450
16158SOL     OW53411   8.728   7.085   2.176 -0.4408 -0.5466  0.0372
16158SOL    HW153412   8.646   7.036   2.180  0.1048 -1.6607 -1.5067
16158SOL    HW253413   8.792   7.022   2.141  0.3849  1.1200 -1.6298
16159SOL     OW53414   2.879   6.894   5.223 -0.1857 -0.5204 -0.2074
16159SOL    HW153415   2.933   6.866   5.150 -0.4244 -4.0003  0.7652
16159SOL    HW253416   2.918   6.852   5.300  0.2153  3.1936  1.8413
16160SOL     OW53417  10.952   1.854   5.364  0.4793  0.2559 -0.0138
16160SOL    HW153418  10.904   1.913   5.421  0.4206 -1.2399  1.5695
16160SOL    HW253419  10.917   1.872   5.276  0.3169  2.3525  0.4422
16161SOL     OW53420   1.703  11.437   9.878 -0.3414  0.2636 -0.1938
16161SOL    HW153421   1.782  11.491   9.888  0.1623  0.0992 -2.5761
16161SOL    HW253422   1.682  11.408   9.967  1.7270  1.0709  0.6236
16162SOL     OW53423   6.885  11.573   4.950 -0.2054  0.1960 -0.0949
16162SOL    HW153424   6.793  11.547   4.949 -0.4190  0.9253  0.0910
16162SOL    HW253425   6.904  11.600   4.860  0.6119 -2.5479 -0.8431
16163SOL     OW53426   1.561   7.382   9.837 -0.7642 -0.2634 -0.4576
16163SOL    HW153427   1.646   7.339   9.826 -1.2608 -1.2675 -0.4955
16163SOL    HW253428   1.557   7.401   9.931 -0.9556 -1.2266 -0.2577
16164SOL     OW53429   6.060   3.049   4.015 -0.2877 -0.0771 -0.7145
16164SOL    HW153430   6.115   2.971   4.018 -2.4684 -1.6709  1.0322
16164SOL    HW253431   6.002   3.035   3.941  0.3226  0.6777 -1.3570
16165SOL     OW53432   4.408   5.446   4.029 -0.0638  0.3461 -0.0285
16165SOL    HW153433   4.321   5.473   3.998 -0.6726 -0.5559  0.8561
16165SOL    HW253434   4.412   5.352   4.009  0.6621  0.3580  0.0615
16166SOL     OW53435   4.583   0.960   5.703  0.6676 -0.1713  0.2159
16166SOL    HW153436   4.586   0.904   5.625 -1.8130  2.2858 -1.8961
16166SOL    HW253437   4.545   0.905   5.771  2.1401 -2.1768 -0.5014
16167SOL     OW53438   7.516   7.325   4.756  0.4608 -0.1953 -0.0902
16167SOL    HW153439   7.570   7.404   4.753  1.3073 -0.7657 -0.3553
16167SOL    HW253440   7.579   7.253   4.759 -0.2978 -0.8516  0.6376
16168SOL     OW53441   8.803   9.680  10.206 -0.2572 -0.1954  0.4095
16168SOL    HW153442   8.812   9.712  10.116 -0.7954 -2.9599 -0.7295
16168SOL    HW253443   8.710   9.686  10.225 -0.4731 -1.6178 -0.0845
16169SOL     OW53444   7.880   1.280  11.443  0.1541 -0.1012 -0.2558
16169SOL    HW153445   7.870   1.187  11.425  1.4553 -0.5001  0.9186
16169SOL    HW253446   7.936   1.313  11.372  0.9689 -0.5593  0.1580
16170SOL     OW53447   7.529   2.473   8.944  0.2134 -0.1332  0.0273
16170SOL    HW153448   7.619   2.496   8.923  0.1751  0.6035  0.6348
16170SOL    HW253449   7.535   2.389   8.989  0.4464 -0.8601 -1.3125
16171SOL     OW53450  10.930  11.281   4.495 -0.1528 -0.2395 -0.2060
16171SOL    HW153451  10.958  11.373   4.488 -0.0357 -0.3732 -2.4282
16171SOL    HW253452  11.002  11.231   4.456 -0.6923 -1.1651 -0.0399
16172SOL     OW53453   2.741   8.074   7.482  0.1996  0.0312  0.9261
16172SOL    HW153454   2.697   7.991   7.467  1.4688 -0.7767  1.4686
16172SOL    HW253455   2.798   8.085   7.407  0.3532  0.1942  1.0653
16173SOL     OW53456   4.533  10.537   2.911 -0.4862 -0.4534 -0.3116
16173SOL    HW153457   4.462  10.600   2.901 -1.1522 -1.1163  0.0592
16173SOL    HW253458   4.604  10.571   2.858 -0.1484  1.5825  1.3175
16174SOL     OW53459  11.605   4.100   3.258  0.0556 -0.0928  0.1333
16174SOL    HW153460  11.511   4.118   3.252 -0.2733 -1.5258  0.6014
16174SOL    HW253461  11.647   4.186   3.253 -1.3828  0.7546  1.8362
16175SOL     OW53462   2.366   2.573   6.468  0.5717 -0.2328  0.6430
16175SOL    HW153463   2.442   2.620   6.434 -0.8949  2.5598  0.8999
16175SOL    HW253464   2.401   2.519   6.539  2.2194  1.9825  1.6491
16176SOL     OW53465   9.094   1.473   3.157 -0.5779 -0.5200 -0.0628
16176SOL    HW153466   9.129   1.467   3.246 -3.3480 -0.7244  1.1137
16176SOL    HW253467   9.154   1.532   3.111  0.1428  0.7533  2.3650
16177SOL     OW53468   9.910   4.178  11.133  0.8744  0.1676  0.1483
16177SOL    HW153469   9.918   4.262  11.089  0.7909  0.1071  0.0182
16177SOL    HW253470   9.933   4.197  11.224  1.3762  0.2240  0.0134
16178SOL     OW53471   8.971   3.525   3.933  0.0859  0.6819 -0.3771
16178SOL    HW153472   8.900   3.508   3.994  0.2228 -2.1995 -0.8968
16178SOL    HW253473   8.928   3.549   3.851 -0.2907 -0.4070 -0.5105
16179SOL     OW53474   5.967   3.780   5.782  0.4279  0.0055  0.2855
16179SOL    HW153475   6.060   3.797   5.795  0.7224 -0.1801 -1.4604
16179SOL    HW253476   5.938   3.847   5.721 -0.4442 -0.3332  0.3102
16180SOL     OW53477   5.385   7.386   8.215  0.3451 -0.3329 -0.0787
16180SOL    HW153478   5.392   7.291   8.201  1.4803 -0.1555 -0.8288
16180SOL    HW253479   5.459   7.423   8.167 -0.4828  1.0024 -0.3764
16181SOL     OW53480   5.427   1.112   1.811  0.3358  0.3682 -0.3263
16181SOL    HW153481   5.385   1.076   1.732 -1.2602 -0.0312  0.6543
16181SOL    HW253482   5.433   1.206   1.793  0.9023  0.1637 -1.3086
16182SOL     OW53483  10.090   8.402   9.452 -0.0994  0.6199 -0.0606
16182SOL    HW153484  10.052   8.346   9.385 -1.7077  1.2599  0.2669
16182SOL    HW253485  10.138   8.469   9.404 -1.4632  1.2365 -0.6145
16183SOL     OW53486  11.238   0.165  10.688 -0.3506 -1.0384 -0.3683
16183SOL    HW153487  11.266   0.163  10.597 -0.7871 -0.6566 -0.5111
16183SOL    HW253488  11.161   0.109  10.691 -1.0409 -0.1178 -0.4799
16184SOL     OW53489   8.722   4.253   2.505 -0.0699 -0.0024 -0.2461
16184SOL    HW153490   8.770   4.170   2.506  1.0408  0.6062  1.0835
16184SOL    HW253491   8.633   4.229   2.530  0.4258 -0.7358  0.9638
16185SOL     OW53492   0.630   1.621   5.429  0.3239 -0.4550 -0.2582
16185SOL    HW153493   0.582   1.596   5.507  2.4535 -2.5967  0.4910
16185SOL    HW253494   0.685   1.545   5.409  2.4093  1.3161 -1.7729
16186SOL     OW53495  10.826   4.771   5.961 -0.2089  0.6285 -0.2843
16186SOL    HW153496  10.895   4.756   6.025 -1.6216 -0.3365  1.0992
16186SOL    HW253497  10.828   4.694   5.904 -1.2633 -0.3227  0.8920
16187SOL     OW53498   9.416   8.998   4.370  0.1393  0.0217 -0.0186
16187SOL    HW153499   9.322   8.997   4.385  0.0583 -0.5040 -0.5062
16187SOL    HW253500   9.434   8.915   4.325  0.7215  0.4320 -0.5636
16188SOL     OW53501   4.022   9.962  10.425  0.3507 -0.6180  0.1823
16188SOL    HW153502   4.076   9.888  10.456  1.2172  0.2267  0.7662
16188SOL    HW253503   3.979   9.929  10.347  1.3303 -1.5046 -0.0135
16189SOL     OW53504   8.455   6.604  10.522  0.4673  0.6179  0.0843
16189SOL    HW153505   8.523   6.662  10.487 -0.5370  1.1347 -1.0652
16189SOL    HW253506   8.405   6.660  10.581  1.4239  0.0571  1.4837
16190SOL     OW53507   8.626  11.375  11.556  0.5420 -0.3690  0.6080
16190SOL    HW153508   8.645  11.371  11.649 -1.3353  1.1818  1.1117
16190SOL    HW253509   8.572  11.297  11.539  0.9693 -0.7045  0.7896
16191SOL     OW53510  10.735   0.227  11.287 -0.2166 -0.4960 -0.0030
16191SOL    HW153511  10.763   0.289  11.354 -0.1954  0.3397 -0.7667
16191SOL    HW253512  10.751   0.273  11.204  2.2031 -2.4399 -0.7326
16192SOL     OW53513  10.899   6.536  10.721  0.3447 -0.1796  0.3945
16192SOL    HW153514  10.807   6.509  10.727  0.6719 -2.1334 -1.7437
16192SOL    HW253515  10.929   6.538  10.812 -1.7933  0.5541  1.1547
16193SOL     OW53516  10.984  11.341   5.330  0.0889  0.4221  0.3790
16193SOL    HW153517  10.941  11.385   5.403  1.0671 -0.1967  1.3588
16193SOL    HW253518  11.076  11.337   5.356  0.7505  1.5329 -1.5580
16194SOL     OW53519  10.327   9.864   0.018 -0.0967  0.4422  0.2717
16194SOL    HW153520  10.279   9.946   0.003 -1.6097 -0.2706  0.9407
16194SOL    HW253521  10.405   9.872  -0.036 -1.1756  1.4964 -1.2274
16195SOL     OW53522   9.930   9.145   4.961 -0.1328  0.5797 -0.4209
16195SOL    HW153523   9.908   9.237   4.978 -1.2508  0.1659  0.4499
16195SOL    HW253524   9.847   9.104   4.938  0.3621 -0.2179 -0.8166
16196SOL     OW53525   2.550   6.466  10.327 -0.0864 -0.0634  0.0048
16196SOL    HW153526   2.592   6.538  10.280  3.3239 -0.1884  2.4831
16196SOL    HW253527   2.508   6.508  10.403 -2.3937 -0.2616 -1.0762
16197SOL     OW53528   9.751   8.644   4.494  0.4961 -0.8081  0.0026
16197SOL    HW153529   9.812   8.619   4.563  0.4118 -1.5932 -0.2046
16197SOL    HW253530   9.796   8.622   4.413  0.3900 -0.3509 -0.1844
16198SOL     OW53531   1.248   4.042   2.415 -0.2446 -0.6284 -0.1628
16198SOL    HW153532   1.173   4.002   2.371  0.2962 -1.1304 -0.6444
16198SOL    HW253533   1.274   4.114   2.357  0.1443 -0.9636 -0.4093
16199SOL     OW53534   1.030   1.066   2.053  0.4061 -0.3169  0.6284
16199SOL    HW153535   0.997   1.106   2.133 -0.5201 -0.9978  0.6038
16199SOL    HW253536   0.977   1.104   1.983  0.4172 -0.5984  0.4647
16200SOL     OW53537   1.587   0.829   6.693 -0.3709  0.4219 -0.6459
16200SOL    HW153538   1.514   0.838   6.754  0.0223 -1.0204  0.0624
16200SOL    HW253539   1.557   0.765   6.628 -0.0790  0.5238 -0.8866
16201SOL     OW53540   3.992   2.390  10.182 -0.1622  0.1483  0.0765
16201SOL    HW153541   4.063   2.436  10.138  0.6600 -0.0603  1.1587
16201SOL    HW253542   4.028   2.363  10.266 -2.4274  2.9382  2.1672
16202SOL     OW53543   1.469   0.691  10.329  0.1528 -0.2856 -0.1809
16202SOL    HW153544   1.471   0.639  10.409  0.3558  0.1331  0.0923
16202SOL    HW253545   1.392   0.661  10.281  0.3477 -0.9312 -0.0922
16203SOL     OW53546   1.768   1.573   1.042 -0.0816 -0.0320  0.6200
16203SOL    HW153547   1.842   1.569   0.981 -0.0035  1.2954  0.5998
16203SOL    HW253548   1.692   1.552   0.988  0.1551 -0.3187  0.3929
16204SOL     OW53549   0.660   5.859   7.928 -0.2597  0.3401  0.1404
16204SOL    HW153550   0.591   5.913   7.965 -0.2855  1.0846 -0.9301
16204SOL    HW253551   0.614   5.784   7.889 -0.4138  0.5533 -0.0891
16205SOL     OW53552   5.122   4.631   6.466  0.6241 -0.0434  0.3769
16205SOL    HW153553   5.161   4.719   6.463 -0.2472  0.3404 -1.2792
16205SOL    HW253554   5.197   4.572   6.471  1.4810  0.7059 -1.8564
16206SOL     OW53555   5.148  10.745   0.321 -0.3517  0.6040  0.1925
16206SOL    HW153556   5.122  10.659   0.355  1.4728  0.9554  2.7865
16206SOL    HW253557   5.239  10.732   0.293  0.8706  2.1579  3.0345
16207SOL     OW53558   2.477   9.018   6.449 -0.0770 -0.0292 -0.3300
16207SOL    HW153559   2.406   9.060   6.498 -0.1667  0.7232 -1.0790
16207SOL    HW253560   2.460   9.042   6.358  1.1960  0.2406 -0.5066
16208SOL     OW53561   5.266  11.121   7.067  0.2084  0.0412 -0.1735
16208SOL    HW153562   5.287  11.075   6.986 -1.4003 -0.9651 -0.0523
16208SOL    HW253563   5.174  11.100   7.084  0.4909  0.2542  1.8819
16209SOL     OW53564   1.984   5.070  11.407 -0.3817 -0.4125 -0.1187
16209SOL    HW153565   2.073   5.098  11.427 -0.8453  0.4722  0.8220
16209SOL    HW253566   1.979   4.980  11.438 -0.3670  0.1613  1.6650
16210SOL     OW53567   8.087   8.539   3.458 -0.2193 -0.5976  0.0628
16210SOL    HW153568   8.116   8.591   3.383  1.6065  0.1655  1.2129
16210SOL    HW253569   7.996   8.519   3.440 -0.4389  1.4030 -1.3534
16211SOL     OW53570   7.171   8.937   8.128  0.4644 -0.4167 -0.1049
16211SOL    HW153571   7.223   8.953   8.206  0.9437  1.3986 -0.7514
16211SOL    HW253572   7.114   9.014   8.120  0.1956 -0.7134 -1.3591
16212SOL     OW53573  10.687   5.185   8.144 -0.0921 -0.2197 -0.1023
16212SOL    HW153574  10.598   5.175   8.177  0.4886 -1.7657  1.1582
16212SOL    HW253575  10.742   5.192   8.222  0.8947  0.8074 -0.8512
16213SOL     OW53576   1.631  10.966   8.638  0.1261 -0.0512  0.6038
16213SOL    HW153577   1.659  11.057   8.627  0.1776 -0.1860 -0.4771
16213SOL    HW253578   1.704  10.924   8.682  1.1479 -0.1109 -1.0593
16214SOL     OW53579   9.299   1.115   2.090  0.7906 -0.0253 -0.3011
16214SOL    HW153580   9.261   1.175   2.154 -0.1632 -2.3490  1.4824
16214SOL    HW253581   9.330   1.041   2.143  1.3226 -1.4007 -2.4227
16215SOL     OW53582  10.762   0.193   9.218  0.4550  0.0250  0.2089
16215SOL    HW153583  10.698   0.188   9.288  1.2664  1.7525  1.1483
16215SOL    HW253584  10.763   0.106   9.179 -2.9919  0.1189 -0.3569
16216SOL     OW53585   3.388   7.566   1.751 -0.1481  0.5055 -0.0291
16216SOL    HW153586   3.373   7.491   1.694  0.8850 -1.0065  1.5899
16216SOL    HW253587   3.319   7.628   1.728  0.0673 -0.1409 -2.6825
16217SOL     OW53588  11.508  10.507  10.330 -0.2422 -0.0227  0.3695
16217SOL    HW153589  11.471  10.577  10.275 -0.6283  0.8595  1.7132
16217SOL    HW253590  11.602  10.524  10.331 -0.2932  0.2593  0.3950
16218SOL     OW53591   7.424   7.001   9.335 -0.4716 -0.1191  0.2135
16218SOL    HW153592   7.505   6.980   9.381 -0.8281 -1.7251  0.1464
16218SOL    HW253593   7.450   7.008   9.243 -0.4924 -1.2569  0.1084
16219SOL     OW53594   6.646   0.719   3.437 -0.3781 -0.9571  0.0644
16219SOL    HW153595   6.689   0.756   3.513  1.0620  1.7696 -1.8997
16219SOL    HW253596   6.690   0.635   3.422  0.8552 -0.4863  0.9601
16220SOL     OW53597   8.887   6.071   8.517 -0.5653  0.1133  0.2427
16220SOL    HW153598   8.848   6.112   8.593  2.0115  1.3593  1.0167
16220SOL    HW253599   8.867   6.130   8.444 -0.9425  0.2149  0.4286
16221SOL     OW53600   1.619   7.696  10.214  0.4169 -0.2427 -0.7874
16221SOL    HW153601   1.602   7.779  10.259  1.2046 -0.2804 -0.3901
16221SOL    HW253602   1.640   7.721  10.124  2.6796  0.2275 -0.2113
16222SOL     OW53603  10.310   9.731   6.631 -0.2050 -0.1399  0.4653
16222SOL    HW153604  10.376   9.769   6.689 -0.1654  1.1239 -0.3737
16222SOL    HW253605  10.229   9.733   6.683  0.0077  0.1598  0.7916
16223SOL     OW53606   6.790   8.349   6.888 -0.4233  0.6588 -0.5706
16223SOL    HW153607   6.779   8.258   6.914  0.0410  0.4474 -1.0754
16223SOL    HW253608   6.704   8.377   6.858 -0.4240  0.1830 -1.0138
16224SOL     OW53609   0.297   5.214   3.479 -0.0035  0.2317 -0.1268
16224SOL    HW153610   0.356   5.180   3.546 -0.7055  0.4574  0.6072
16224SOL    HW253611   0.280   5.304   3.504  3.7059  2.0921 -3.3058
16225SOL     OW53612   9.561   3.600   4.198 -0.3585  0.0540  0.1763
16225SOL    HW153613   9.506   3.678   4.194  0.1747  0.4596  0.6029
16225SOL    HW253614   9.651   3.634   4.204  0.0319 -0.5951 -1.5357
16226SOL     OW53615   7.621   6.285  10.532  0.0466  0.5383 -0.1190
16226SOL    HW153616   7.604   6.366  10.483 -0.0291  0.9719  0.6156
16226SOL    HW253617   7.716   6.285  10.546  0.7945 -1.6615 -3.8303
16227SOL     OW53618  11.530   4.241   0.082 -0.0728  0.1558 -0.0125
16227SOL    HW153619  11.438   4.221   0.066  0.1510  0.0294 -1.2902
16227SOL    HW253620  11.545   4.323   0.034  0.8229 -0.5924 -1.0529
16228SOL     OW53621   8.464   9.785   1.174  0.5731 -0.1654  0.1170
16228SOL    HW153622   8.493   9.701   1.208  1.1430  0.0896  0.2788
16228SOL    HW253623   8.493   9.786   1.083 -0.6760 -0.7183 -0.3083
16229SOL     OW53624   6.062   2.849   2.146 -0.0624 -0.0470 -0.4558
16229SOL    HW153625   6.022   2.774   2.101 -0.8246  0.4549 -0.6342
16229SOL    HW253626   5.989   2.908   2.164  0.4459  0.3944  0.2012
16230SOL     OW53627  11.250   2.452  11.554 -0.5544  0.5506 -0.2535
16230SOL    HW153628  11.222   2.540  11.530 -1.6749 -0.3776 -2.8437
16230SOL    HW253629  11.345   2.457  11.559 -0.7043  2.3898  2.2147
16231SOL     OW53630   6.665   4.397   6.384 -0.1366 -0.0299  0.8883
16231SOL    HW153631   6.606   4.471   6.397 -0.8950 -0.1685 -1.2682
16231SOL    HW253632   6.607   4.324   6.362  0.6678 -1.0133  1.9040
16232SOL     OW53633  11.340  10.549   7.056 -0.3340  0.3208  0.1820
16232SOL    HW153634  11.303  10.461   7.052 -0.8421  0.4483  1.5097
16232SOL    HW253635  11.267  10.607   7.037 -0.2203  0.4846  0.2395
16233SOL     OW53636   0.829  10.067   7.003  0.2905 -0.5212 -0.7857
16233SOL    HW153637   0.783  10.149   6.984  1.1816 -0.0897 -1.1018
16233SOL    HW253638   0.760  10.009   7.037 -0.2817  0.4663 -0.2051
16234SOL     OW53639   0.927   6.638  10.386  0.2101  0.3808  0.1172
16234SOL    HW153640   0.962   6.725  10.404  1.5310 -0.0560 -0.1780
16234SOL    HW253641   1.004   6.581  10.386 -0.2688 -0.3738 -2.2753
16235SOL     OW53642   5.117   3.613   9.256  0.4035 -0.4768  0.7333
16235SOL    HW153643   5.182   3.641   9.320 -0.2711  0.9538  0.8465
16235SOL    HW253644   5.092   3.694   9.211  0.0492 -1.2882 -0.5606
16236SOL     OW53645  10.679   7.276   6.281  0.2018 -0.4037  0.3120
16236SOL    HW153646  10.749   7.304   6.340  0.3445  1.7042 -0.7384
16236SOL    HW253647  10.599   7.307   6.323  0.3183  1.2684 -0.6122
16237SOL     OW53648  10.936   3.215   3.924  0.3374  0.1209  0.6697
16237SOL    HW153649  10.956   3.151   3.856  1.5117  1.2426 -0.0875
16237SOL    HW253650  10.854   3.185   3.962  1.4605 -2.5593  1.2340
16238SOL     OW53651   0.683   8.599   1.225  0.0043  0.4076  0.3398
16238SOL    HW153652   0.700   8.528   1.162  0.3224  0.7318  0.0508
16238SOL    HW253653   0.758   8.596   1.284 -1.0846 -0.9446  1.7182
16239SOL     OW53654   0.255   7.639  10.587  0.0899  0.2428  0.3621
16239SOL    HW153655   0.338   7.666  10.626  0.3456  0.4343 -0.3045
16239SOL    HW253656   0.268   7.546  10.565  0.5124  0.5480 -0.7215
16240SOL     OW53657   5.645   0.353   7.261  0.3266  0.0668 -0.1287
16240SOL    HW153658   5.635   0.309   7.176  2.2975 -2.0575  0.6280
16240SOL    HW253659   5.581   0.310   7.318 -0.1151  0.6050 -0.2124
16241SOL     OW53660   8.481   7.944   9.047  0.0237  0.1299  0.2918
16241SOL    HW153661   8.497   7.865   9.099 -0.2806  0.5855  1.1002
16241SOL    HW253662   8.553   7.947   8.984 -0.1545 -0.9768  0.0155
16242SOL     OW53663   3.889   7.268   0.178 -0.0308  0.4301 -0.7595
16242SOL    HW153664   3.882   7.293   0.085 -0.2827  1.9906 -0.3449
16242SOL    HW253665   3.918   7.348   0.222  0.6261 -0.4388  0.4480
16243SOL     OW53666   0.887   6.908   9.079  0.0055  0.0424 -0.2351
16243SOL    HW153667   0.900   6.999   9.056  0.9855 -0.4604 -1.8486
16243SOL    HW253668   0.802   6.906   9.123 -0.8106  1.4887 -1.6536
16244SOL     OW53669   5.308   2.953   4.595 -0.2652 -0.5543 -0.5576
16244SOL    HW153670   5.279   2.917   4.678 -0.2943 -0.9122 -0.7164
16244SOL    HW253671   5.253   3.029   4.580 -0.6835 -0.8520 -0.5479
16245SOL     OW53672   7.354   3.268  11.365  0.1250  0.6853 -0.4608
16245SOL    HW153673   7.275   3.281  11.417  0.2310 -0.4769  0.0272
16245SOL    HW253674   7.328   3.204  11.298  0.7500 -0.0450 -0.0229
16246SOL     OW53675   6.264   1.330  11.419  0.3230 -0.2818 -0.1946
16246SOL    HW153676   6.341   1.350  11.472 -0.1300  2.0187 -0.3192
16246SOL    HW253677   6.196   1.306  11.482  0.6240 -0.5133  0.0409
16247SOL     OW53678   0.044   9.269   5.474 -0.1621 -0.1887  0.0806
16247SOL    HW153679   0.107   9.287   5.544  0.2716  0.1721 -0.4026
16247SOL    HW253680  -0.040   9.261   5.520 -0.3694  2.7659  0.3996
16248SOL     OW53681   7.214   3.213   8.557 -0.1101 -0.0813 -0.1989
16248SOL    HW153682   7.199   3.127   8.595 -2.3103  0.9993  1.5741
16248SOL    HW253683   7.144   3.224   8.493  0.8181 -0.0295 -1.2238
16249SOL     OW53684  10.839  10.057   4.242  0.0929 -0.4448  0.0199
16249SOL    HW153685  10.820  10.017   4.157  0.2766 -0.3129 -0.0838
16249SOL    HW253686  10.867  10.146   4.221 -1.2172  0.0601  0.3001
16250SOL     OW53687   9.206   6.061   7.507  0.3210 -0.4245  0.2214
16250SOL    HW153688   9.192   6.123   7.578  1.8089 -0.5136  0.6207
16250SOL    HW253689   9.147   6.090   7.438  1.7144  2.1260 -0.0120
16251SOL     OW53690   6.703   4.936   9.786  0.0289 -0.2588 -0.4673
16251SOL    HW153691   6.715   5.001   9.856 -0.1053  0.3181 -0.9716
16251SOL    HW253692   6.611   4.945   9.761  0.2579  0.0744 -1.2291
16252SOL     OW53693   9.986   4.833   1.842  0.1263 -0.0587  0.1477
16252SOL    HW153694   9.965   4.926   1.838 -0.9074 -0.1680  1.8908
16252SOL    HW253695  10.011   4.810   1.753 -0.5474  1.6662 -0.5252
16253SOL     OW53696   3.881   0.628   3.740 -0.2795 -0.7576  0.3559
16253SOL    HW153697   3.795   0.595   3.713  0.1298 -0.3012 -1.6847
16253SOL    HW253698   3.899   0.700   3.680  1.0241 -0.0652  1.5200
16254SOL     OW53699   5.459   6.007   5.996  0.7779 -0.0101  0.3916
16254SOL    HW153700   5.517   5.955   5.941  1.6943  0.5878  0.7625
16254SOL    HW253701   5.371   5.992   5.960  1.1017 -1.2716  0.0892
16255SOL     OW53702  10.154   3.298   7.219 -0.2480 -0.3086  0.2046
16255SOL    HW153703  10.084   3.354   7.251 -1.0011 -0.4443 -1.1315
16255SOL    HW253704  10.201   3.270   7.298 -2.4389 -1.2037  1.2638
16256SOL     OW53705   5.479   3.286  11.446 -0.0860  0.2243 -0.1684
16256SOL    HW153706   5.526   3.233  11.382 -2.3355 -0.3254 -1.4671
16256SOL    HW253707   5.536   3.288  11.523  1.1898 -1.9415 -0.9888
16257SOL     OW53708   0.312   2.930   1.768 -0.5636 -0.4158 -0.8196
16257SOL    HW153709   0.383   2.879   1.808 -0.9692 -1.3843 -1.3047
16257SOL    HW253710   0.267   2.969   1.843  0.2563 -0.0770 -0.4847
16258SOL     OW53711   9.469   0.627  10.028 -0.0827  0.3494  0.1603
16258SOL    HW153712   9.507   0.549  10.068 -0.0677  0.3230  0.0963
16258SOL    HW253713   9.427   0.594   9.948  0.2806  0.4699 -0.0805
16259SOL     OW53714   4.669  10.759  11.326  0.4448 -0.1151 -0.1698
16259SOL    HW153715   4.748  10.705  11.327 -1.1146 -2.5797  1.8770
16259SOL    HW253716   4.632  10.744  11.239  0.9836 -0.9248 -0.2792
16260SOL     OW53717   2.910   8.159   7.677  0.0943  1.1816  0.0641
16260SOL    HW153718   2.843   8.125   7.618  0.0244 -0.2858  0.9469
16260SOL    HW253719   2.869   8.237   7.716 -1.6154 -0.3267  1.4466
16261SOL     OW53720   7.033   1.899   7.818  0.5582 -0.1000  0.1051
16261SOL    HW153721   7.099   1.833   7.798  0.2527  0.1244 -1.8920
16261SOL    HW253722   6.950   1.853   7.806  0.3479  0.5121 -0.9907
16262SOL     OW53723   6.601   8.172   3.518  0.1103  0.5414 -0.2518
16262SOL    HW153724   6.635   8.123   3.593  0.5624  1.3745  0.1062
16262SOL    HW253725   6.631   8.262   3.532 -2.1490  1.3320  0.0398
16263SOL     OW53726   6.233   5.171  10.370  0.1946 -0.0094 -0.1676
16263SOL    HW153727   6.166   5.230  10.405  0.6113 -0.5405  1.6525
16263SOL    HW253728   6.236   5.099  10.433  0.1916 -1.6545 -1.9645
16264SOL     OW53729   9.191   4.793   8.660  0.1949  0.0819  0.1677
16264SOL    HW153730   9.218   4.706   8.629  0.1291  0.5205 -1.2260
16264SOL    HW253731   9.156   4.835   8.582  2.5207  2.2654  0.1619
16265SOL     OW53732   4.980   5.667   5.254 -0.7389 -0.5667 -0.3192
16265SOL    HW153733   4.955   5.745   5.304 -0.6846 -0.3566 -0.6182
16265SOL    HW253734   5.018   5.608   5.319  2.5824  1.0309 -0.5840
16266SOL     OW53735  10.119   9.504  11.415  0.1334  0.0765 -0.4113
16266SOL    HW153736  10.149   9.419  11.383  0.2256 -0.6802  1.5280
16266SOL    HW253737  10.114   9.493  11.510 -0.7821  1.9580 -0.1972
16267SOL     OW53738   1.691   3.236   0.246  0.4701 -0.0099 -0.0630
16267SOL    HW153739   1.733   3.265   0.164  0.8428  0.2462  0.2151
16267SOL    HW253740   1.656   3.150   0.225  0.1346  0.2614 -0.6408
16268SOL     OW53741   0.801   9.735   6.195 -0.2451  0.1094 -0.0253
16268SOL    HW153742   0.788   9.765   6.285 -0.5704 -0.1176  0.0056
16268SOL    HW253743   0.762   9.648   6.193 -0.4438  0.2037 -0.4469
16269SOL     OW53744   6.036   6.176   6.584  0.1150 -0.0750 -0.2775
16269SOL    HW153745   5.944   6.186   6.558 -0.0501  1.3186  0.7130
16269SOL    HW253746   6.040   6.090   6.626 -1.0456  0.3785  0.8216
16270SOL     OW53747   8.373   5.868   1.540 -0.0108 -0.3468 -0.2246
16270SOL    HW153748   8.291   5.834   1.504 -1.1831  1.7318  0.3023
16270SOL    HW253749   8.349   5.900   1.627  1.1822  0.9583 -0.3444
16271SOL     OW53750   0.378   4.407   9.252 -0.1822  0.6782 -0.1184
16271SOL    HW153751   0.415   4.344   9.314 -0.5019  0.1004 -0.4989
16271SOL    HW253752   0.297   4.437   9.294 -1.3625 -1.0715 -0.9908
16272SOL     OW53753   2.578   8.566  10.957 -0.4154 -0.5737 -0.3320
16272SOL    HW153754   2.646   8.534  11.016 -0.3321 -0.3756 -0.3190
16272SOL    HW253755   2.532   8.633  11.007  1.0748  1.2075 -1.2191
16273SOL     OW53756   9.790   7.011   6.113 -0.5692 -0.4487  0.2840
16273SOL    HW153757   9.725   6.941   6.109  1.9514 -2.9535 -1.1946
16273SOL    HW253758   9.847   6.987   6.186  1.7879 -1.5595 -1.7419
16274SOL     OW53759   5.184   5.029   9.441 -0.0042 -0.2452 -0.0547
16274SOL    HW153760   5.153   4.941   9.462 -1.7642  0.1357 -0.8295
16274SOL    HW253761   5.202   5.027   9.347  0.0768  0.1891 -0.0495
16275SOL     OW53762   8.686   1.720   8.997 -0.2570  0.1699 -0.0502
16275SOL    HW153763   8.690   1.747   9.089  1.5497 -0.5173  0.1132
16275SOL    HW253764   8.639   1.790   8.953 -0.2906  0.9833  1.2476
16276SOL     OW53765   8.644   8.073   0.375  0.0314  0.0503 -0.2545
16276SOL    HW153766   8.636   8.069   0.280 -1.7719 -1.9487 -0.1008
16276SOL    HW253767   8.569   8.023   0.407  0.3756  0.9874  2.2418
16277SOL     OW53768   4.266   8.627  10.909  0.0057 -0.6146 -0.8301
16277SOL    HW153769   4.341   8.645  10.853  0.1197 -1.6087 -1.0155
16277SOL    HW253770   4.274   8.691  10.981  1.4529 -1.1846 -0.4514
16278SOL     OW53771   1.362   4.826   5.935 -0.2401  0.3674  0.0460
16278SOL    HW153772   1.335   4.759   5.871  0.6149  0.8454 -0.8470
16278SOL    HW253773   1.280   4.869   5.960 -1.0246 -1.8501  1.6923
16279SOL     OW53774   9.456   2.005   3.707 -0.2013  0.9823 -0.5663
16279SOL    HW153775   9.404   1.955   3.770  1.0350  0.6168  0.1899
16279SOL    HW253776   9.409   1.995   3.624  0.3343 -2.0507 -0.6191
16280SOL     OW53777   6.229   4.667   4.546 -0.0147 -0.1265 -0.0216
16280SOL    HW153778   6.277   4.584   4.537 -1.3483 -0.8021 -1.3183
16280SOL    HW253779   6.158   4.647   4.607 -0.8684 -0.2044 -1.0243
16281SOL     OW53780   1.502   2.750   1.206  0.6983  0.0731  0.0251
16281SOL    HW153781   1.428   2.721   1.152 -0.6614  1.8452  0.8612
16281SOL    HW253782   1.571   2.768   1.143  0.1316 -0.7197 -0.8614
16282SOL     OW53783  11.468   6.107   8.067  0.0379  0.1685  0.3793
16282SOL    HW153784  11.385   6.065   8.046  0.8717 -0.4643 -2.0048
16282SOL    HW253785  11.495   6.066   8.149 -1.3936 -0.5497  0.5261
16283SOL     OW53786   0.089   3.329   5.299 -0.4926  0.4674 -0.5482
16283SOL    HW153787   0.173   3.362   5.266 -0.0912 -0.9197 -0.9570
16283SOL    HW253788   0.043   3.298   5.220 -1.4883  1.3696 -0.3569
16284SOL     OW53789  11.579   5.494  11.034  0.0195  0.0664 -0.3599
16284SOL    HW153790  11.657   5.513  10.982  0.3990  0.7670  0.4387
16284SOL    HW253791  11.609   5.498  11.125 -0.6849 -0.8775 -0.0714
16285SOL     OW53792   2.404  10.803   6.201 -0.4434  0.0814 -0.2923
16285SOL    HW153793   2.473  10.746   6.167  1.5249 -1.6487  5.4333
16285SOL    HW253794   2.450  10.881   6.230 -1.5381  0.5037  0.3383
16286SOL     OW53795   2.441   1.916   3.552  0.4568 -0.6230  0.2420
16286SOL    HW153796   2.416   1.952   3.467  1.4156 -0.7468 -0.1111
16286SOL    HW253797   2.381   1.843   3.565  0.6038 -0.9102 -0.5710
16287SOL     OW53798   0.389   9.660   9.344 -0.3175 -0.5478  0.0054
16287SOL    HW153799   0.468   9.606   9.347  0.3607  0.4504  0.8131
16287SOL    HW253800   0.399   9.711   9.263  0.8786  1.0128  1.0847
16288SOL     OW53801   2.921   1.162  11.515 -0.0114 -0.3973  0.1124
16288SOL    HW153802   2.856   1.091  11.516  0.3756 -0.8433 -1.8195
16288SOL    HW253803   3.003   1.119  11.541 -0.1794 -0.1609  1.0702
16289SOL     OW53804   8.625   9.307   8.731 -0.4653  0.0536  0.2437
16289SOL    HW153805   8.614   9.245   8.803 -0.1971 -0.1492  0.1151
16289SOL    HW253806   8.648   9.390   8.773  0.8465 -0.3448  0.3516
16290SOL     OW53807   4.688   7.946   8.364 -0.4316  0.0101 -0.4001
16290SOL    HW153808   4.654   7.966   8.451  0.1328  2.1992 -0.6144
16290SOL    HW253809   4.736   7.864   8.374  0.5536  0.7744  1.6333
16291SOL     OW53810   0.407  10.605   1.141 -0.1643  0.0696 -0.0908
16291SOL    HW153811   0.314  10.584   1.134 -0.5342  1.1420  1.1369
16291SOL    HW253812   0.449  10.554   1.072 -1.3311 -2.3402  0.8654
16292SOL     OW53813   0.341   2.478   4.510 -0.0151 -0.6662  0.4056
16292SOL    HW153814   0.326   2.483   4.605 -1.4974 -2.2562  0.2993
16292SOL    HW253815   0.301   2.557   4.475 -1.0296 -0.9180  0.9596
16293SOL     OW53816   8.821   0.136   7.728  0.2331  0.0190 -0.3183
16293SOL    HW153817   8.894   0.102   7.676 -0.6138  0.2461 -1.7036
16293SOL    HW253818   8.774   0.193   7.668 -0.7630  0.3341  0.7332
16294SOL     OW53819   8.466  10.152   6.297  0.4785 -0.0916  0.0519
16294SOL    HW153820   8.442  10.101   6.374 -0.6210  0.9717  0.4276
16294SOL    HW253821   8.436  10.098   6.223  0.0863 -0.3841  0.4178
16295SOL     OW53822   8.151   8.660   1.529 -0.5527 -0.6442 -0.2359
16295SOL    HW153823   8.114   8.746   1.550 -3.2344 -1.8863  0.6868
16295SOL    HW253824   8.200   8.635   1.608 -0.3949 -0.2744 -0.2158
16296SOL     OW53825   7.411   9.431   3.775 -0.3962  0.3972  0.4097
16296SOL    HW153826   7.483   9.451   3.715  0.2473 -0.9228  0.7024
16296SOL    HW253827   7.453   9.419   3.860 -0.7630 -1.5928  0.3589
16297SOL     OW53828   9.915   2.923   2.612  0.3129  0.3005 -0.1833
16297SOL    HW153829   9.918   2.829   2.592 -0.3901  0.1168  0.4800
16297SOL    HW253830   9.858   2.928   2.689  3.1667  0.8899  2.0559
16298SOL     OW53831   3.285  11.012   1.778 -0.1587 -0.3844  0.4481
16298SOL    HW153832   3.262  11.069   1.705 -0.6432 -0.8401  0.2389
16298SOL    HW253833   3.301  11.072   1.851  4.7856  0.5496 -1.0309
16299SOL     OW53834   6.634  11.084   4.846  0.4721  0.3934 -0.2004
16299SOL    HW153835   6.709  11.082   4.786  1.3975  0.5359  0.9247
16299SOL    HW253836   6.592  10.999   4.833  1.2283  0.0272 -0.3451
16300SOL     OW53837   1.263   5.858  10.581  0.1750 -0.1006  0.0934
16300SOL    HW153838   1.187   5.854  10.523  0.2017 -0.5178  0.0840
16300SOL    HW253839   1.332   5.897  10.527 -0.2004  0.8353  0.2902
16301SOL     OW53840   5.892   0.503   7.974  0.9061  0.6493 -0.7663
16301SOL    HW153841   5.868   0.422   8.018  0.7953  0.2489 -1.5431
16301SOL    HW253842   5.835   0.570   8.013  0.5013  0.2217 -0.6206
16302SOL     OW53843   1.743   4.946   9.313 -0.4688  0.2250 -0.4806
16302SOL    HW153844   1.838   4.938   9.321 -0.5407  0.2317  0.4541
16302SOL    HW253845   1.731   5.004   9.237  0.3023  1.2319  0.1303
16303SOL     OW53846   9.916   4.463   1.627  0.4968 -0.3627 -0.0709
16303SOL    HW153847   9.884   4.483   1.539  0.8486 -0.1664 -0.1559
16303SOL    HW253848   9.899   4.369   1.637  0.7955 -0.4672 -0.4951
16304SOL     OW53849   0.299   5.489   8.038 -0.7951  0.4214  0.2006
16304SOL    HW153850   0.314   5.395   8.041  1.7688  0.7794  0.9551
16304SOL    HW253851   0.246   5.507   8.116  0.4786 -0.1905  1.2552
16305SOL     OW53852  10.502   7.550  11.427 -0.1219  0.0102 -0.0184
16305SOL    HW153853  10.516   7.592  11.512  0.6818 -1.4883  0.6244
16305SOL    HW253854  10.582   7.499  11.411 -0.1525  0.4365 -1.7939
16306SOL     OW53855   6.703   7.421   3.834 -0.0524  0.2846 -0.3169
16306SOL    HW153856   6.700   7.418   3.930  0.4339  1.1002 -0.2735
16306SOL    HW253857   6.796   7.417   3.813 -0.2001 -2.6984 -0.8818
16307SOL     OW53858   8.849   7.714   2.220 -0.0862 -0.2695  0.4832
16307SOL    HW153859   8.901   7.750   2.148 -0.4150 -2.3481 -0.8587
16307SOL    HW253860   8.911   7.662   2.271 -0.2958 -0.4941  0.5093
16308SOL     OW53861   0.317   5.689   0.600 -0.2772  0.2105 -0.8226
16308SOL    HW153862   0.339   5.782   0.590 -1.6379  1.3606  4.1034
16308SOL    HW253863   0.229   5.681   0.563 -0.2357  0.9450 -1.1050
16309SOL     OW53864   5.887  10.836   7.717  0.8715 -0.1602  0.0419
16309SOL    HW153865   5.937  10.866   7.792 -2.1152  0.8115  1.8322
16309SOL    HW253866   5.849  10.916   7.680 -1.0260 -0.9695  0.1103
16310SOL     OW53867   6.944   1.692  10.598  0.0575  0.1507 -0.3836
16310SOL    HW153868   6.999   1.695  10.520  1.2822 -1.5831  0.3690
16310SOL    HW253869   6.906   1.604  10.598 -1.7148  0.8638 -0.1625
16311SOL     OW53870   0.414   7.499   8.876  0.2726 -0.5754  0.3818
16311SOL    HW153871   0.453   7.482   8.962  0.0738 -4.3479 -0.1063
16311SOL    HW253872   0.481   7.546   8.828 -0.1226  2.9712  2.8887
16312SOL     OW53873   2.834   5.983  11.000  0.0986  0.2130  0.3304
16312SOL    HW153874   2.774   6.013  11.068 -0.8564  0.4575 -0.5927
16312SOL    HW253875   2.905   6.048  10.999 -0.4317  0.8023  0.3702
16313SOL     OW53876   2.888   7.573   2.377 -0.0553 -0.0858 -0.0717
16313SOL    HW153877   2.922   7.556   2.289 -0.6617  0.2640 -0.3781
16313SOL    HW253878   2.966   7.579   2.432  0.5173  2.1704 -1.0137
16314SOL     OW53879  10.327   1.033   2.000  0.5872 -0.3331 -0.2279
16314SOL    HW153880  10.268   1.072   1.935 -0.1777  0.0797  0.7027
16314SOL    HW253881  10.414   1.038   1.959  0.6508  2.9541  0.1030
16315SOL     OW53882   2.363   3.896   2.497 -0.0887  0.2485 -0.7940
16315SOL    HW153883   2.282   3.928   2.457  0.2743  0.8753 -1.0275
16315SOL    HW253884   2.350   3.911   2.591 -0.3322  0.1380 -0.8078
16316SOL     OW53885   6.065   3.168  10.908  0.1421  0.2353  0.3370
16316SOL    HW153886   6.050   3.074  10.917 -0.0733  0.3081  0.7943
16316SOL    HW253887   5.977   3.206  10.911  0.2515  0.4767  0.4816
16317SOL     OW53888  11.370   1.220   4.387 -0.1988  0.8380  0.3852
16317SOL    HW153889  11.422   1.240   4.464  1.5892  0.5017 -0.6913
16317SOL    HW253890  11.369   1.124   4.383 -0.3726  0.8525  0.0343
16318SOL     OW53891   6.413   5.686   0.775 -0.1358  0.0239 -0.0986
16318SOL    HW153892   6.443   5.722   0.859  2.3798  0.8310 -1.2525
16318SOL    HW253893   6.460   5.603   0.767  0.6647  0.5718 -1.2650
16319SOL     OW53894  10.839   4.625  11.514  0.1409  0.1692 -0.0454
16319SOL    HW153895  10.897   4.685  11.467 -0.3535  1.5476  1.0344
16319SOL    HW253896  10.887   4.603  11.594  0.3724 -1.0008 -0.4967
16320SOL     OW53897   2.175   6.316  10.801  0.9050  0.3152  0.0302
16320SOL    HW153898   2.244   6.380  10.780  0.4786  0.5855 -0.5946
16320SOL    HW253899   2.137   6.349  10.882  0.1302  1.3547 -0.7190
16321SOL     OW53900   6.977   3.866  11.456  0.0094 -0.2655  0.7012
16321SOL    HW153901   7.027   3.895  11.380  1.1298 -1.4730  0.9350
16321SOL    HW253902   6.885   3.869  11.426  0.2159  1.6680  0.1638
16322SOL     OW53903   2.433   4.323   6.981  0.1689 -0.2565  0.4192
16322SOL    HW153904   2.373   4.376   6.929 -0.6511 -1.6033 -0.0814
16322SOL    HW253905   2.512   4.376   6.990 -1.3004  1.8460  1.6463
16323SOL     OW53906   5.468   5.460   1.551  0.4971  0.1054 -0.8151
16323SOL    HW153907   5.516   5.469   1.634  1.3770  1.1078 -1.4189
16323SOL    HW253908   5.525   5.498   1.485 -0.6418  0.2702 -1.7468
16324SOL     OW53909   5.344   7.301   6.620 -0.3164  0.4435 -0.8543
16324SOL    HW153910   5.294   7.366   6.571 -1.7281  1.1655  1.3978
16324SOL    HW253911   5.420   7.349   6.652 -1.6718  1.2667  1.3314
16325SOL     OW53912  11.268   9.716   0.607 -0.1616 -0.0311  0.0639
16325SOL    HW153913  11.240   9.801   0.639 -0.8990  0.6044 -2.0466
16325SOL    HW253914  11.355   9.702   0.645  0.9639  2.7033 -1.2520
16326SOL     OW53915   0.189   3.853   2.320 -0.2012 -0.0636  0.3540
16326SOL    HW153916   0.144   3.936   2.300 -0.1950 -0.4828 -1.6197
16326SOL    HW253917   0.119   3.789   2.329 -0.1309 -0.3535 -0.8979
16327SOL     OW53918   1.237   1.484   4.406 -0.0262  0.4100 -0.2065
16327SOL    HW153919   1.303   1.425   4.371 -1.2846 -1.4210  0.3173
16327SOL    HW253920   1.154   1.444   4.380 -1.0382 -0.5059  3.7496
16328SOL     OW53921   5.672   8.173   2.148  0.2366 -0.1132  0.1716
16328SOL    HW153922   5.581   8.201   2.158 -0.7216 -2.1520 -1.8931
16328SOL    HW253923   5.672   8.083   2.178  1.1543 -0.6767 -1.4184
16329SOL     OW53924   5.737  11.639  10.779  0.1363  0.8035 -0.0586
16329SOL    HW153925   5.824  11.599  10.784 -0.1126  0.1783 -0.6777
16329SOL    HW253926   5.677  11.569  10.803 -0.1215  1.6775  2.0474
16330SOL     OW53927   3.533   1.884   2.612 -0.1339 -1.0760 -0.3040
16330SOL    HW153928   3.440   1.905   2.622 -0.2754 -1.9273  0.3031
16330SOL    HW253929   3.543   1.857   2.521 -0.3877 -0.5566 -0.4890
16331SOL     OW53930   8.204   2.560   3.024  0.4025  0.4252 -0.0720
16331SOL    HW153931   8.149   2.520   2.957 -1.3854  1.5924  0.6271
16331SOL    HW253932   8.290   2.518   3.013 -0.8933 -2.3380 -0.4410
16332SOL     OW53933   4.223  11.246   5.045  0.2900  0.0951  0.3443
16332SOL    HW153934   4.309  11.285   5.057  0.2596  0.8045 -1.3696
16332SOL    HW253935   4.229  11.200   4.961 -1.1333  0.6393 -0.0930
16333SOL     OW53936  10.378   1.424   3.591 -0.0233 -0.4951  0.1055
16333SOL    HW153937  10.293   1.466   3.606 -0.6102 -1.5492 -0.1109
16333SOL    HW253938  10.358   1.352   3.531  0.7717 -1.6414  1.1816
16334SOL     OW53939   2.847   3.959   9.556 -1.0283 -0.4560 -0.2651
16334SOL    HW153940   2.921   3.965   9.495  0.3654  0.4912  1.4181
16334SOL    HW253941   2.784   4.023   9.524 -0.8081 -0.7262 -1.2834
16335SOL     OW53942   2.847   6.921   1.552  0.3288 -0.4171  0.2222
16335SOL    HW153943   2.753   6.935   1.542  0.4266  0.2188  0.1334
16335SOL    HW253944   2.875   6.989   1.614  0.8645 -0.0678 -0.3919
16336SOL     OW53945   7.837   7.405  11.250  0.1486 -0.7591 -0.3722
16336SOL    HW153946   7.755   7.409  11.300 -0.4462  1.1479 -1.4136
16336SOL    HW253947   7.882   7.487  11.272  1.0092 -1.0253 -1.1047
16337SOL     OW53948   3.511   8.274   9.402 -0.1933  0.0944  0.2416
16337SOL    HW153949   3.494   8.349   9.459  0.0704  0.2844  0.0746
16337SOL    HW253950   3.576   8.306   9.339 -2.2991  0.6823 -1.7695
16338SOL     OW53951   1.324   4.947   4.812 -0.3735  0.6205 -0.0757
16338SOL    HW153952   1.294   5.009   4.879 -2.3942  0.2206 -0.5426
16338SOL    HW253953   1.246   4.896   4.790  0.2997  0.5437 -2.5358
16339SOL     OW53954  10.287   5.847   3.224 -0.3459 -0.4703 -0.4493
16339SOL    HW153955  10.310   5.859   3.132  1.1979 -2.3313 -0.3554
16339SOL    HW253956  10.320   5.926   3.267 -1.3693  0.5706 -1.4850
16340SOL     OW53957  11.451   0.361  11.689 -0.7757 -0.0158  0.0477
16340SOL    HW153958  11.481   0.279  11.728  1.4939  0.8762  0.3232
16340SOL    HW253959  11.405   0.405  11.760  1.1787  0.5099  1.0390
16341SOL     OW53960   2.118   4.900   1.337 -0.0389 -0.7394 -0.3105
16341SOL    HW153961   2.082   4.841   1.272 -1.4025 -0.3096  0.0332
16341SOL    HW253962   2.186   4.849   1.381  0.8800 -1.0605 -1.9861
16342SOL     OW53963   3.617  11.192  11.198  0.0487 -0.2583 -0.7379
16342SOL    HW153964   3.657  11.169  11.282 -0.0634  1.5373 -0.1583
16342SOL    HW253965   3.662  11.272  11.170 -1.1191  0.1654 -1.5083
16343SOL     OW53966   8.229   6.396   1.211  0.1580  0.4082  0.0690
16343SOL    HW153967   8.154   6.451   1.233 -1.5096 -0.9148 -2.0050
16343SOL    HW253968   8.283   6.450   1.154 -1.2916  0.0872 -1.6726
16344SOL     OW53969   8.048   8.427   8.722  0.0665 -0.3911  0.0491
16344SOL    HW153970   8.090   8.490   8.781 -0.7166  1.5578 -1.3434
16344SOL    HW253971   8.108   8.353   8.719  1.0843  0.3114  1.7208
16345SOL     OW53972   2.583  10.620   5.069  0.1933 -0.3483  0.3277
16345SOL    HW153973   2.620  10.696   5.023 -0.0723 -1.5679 -2.0025
16345SOL    HW253974   2.618  10.628   5.158  1.1767  1.8236 -0.1799
16346SOL     OW53975   8.082   7.714   4.755  0.9190 -0.0037 -0.4555
16346SOL    HW153976   8.124   7.665   4.684  0.5450 -0.2055 -0.5420
16346SOL    HW253977   7.992   7.729   4.724 -0.3126 -2.9615  1.3000
16347SOL     OW53978   6.827   7.985   8.668 -0.6929  0.0232  0.1668
16347SOL    HW153979   6.905   7.944   8.706 -1.3626 -0.2761  1.2644
16347SOL    HW253980   6.857   8.073   8.643  0.1560 -0.3120 -0.0365
16348SOL     OW53981   2.488   6.941   2.863 -0.2782 -0.1172 -0.3764
16348SOL    HW153982   2.426   6.873   2.837 -0.7735  0.4586 -0.7543
16348SOL    HW253983   2.518   6.978   2.780 -1.8660  1.7352 -0.2057
16349SOL     OW53984   6.519  10.899   2.621  0.4710 -0.1513  0.3181
16349SOL    HW153985   6.439  10.912   2.672  0.8247  0.9178  0.6270
16349SOL    HW253986   6.574  10.974   2.644  1.9713 -1.3754  0.8727
16350SOL     OW53987   6.115   7.160  10.256  0.3312 -0.0360 -0.2479
16350SOL    HW153988   6.110   7.171  10.351  1.3048  0.5595 -0.2532
16350SOL    HW253989   6.208   7.149  10.238  0.5658  2.9852 -1.4199
16351SOL     OW53990   2.266   8.248   3.502 -0.4563  0.1055 -0.0375
16351SOL    HW153991   2.194   8.307   3.481 -0.9332 -0.6341 -0.5089
16351SOL    HW253992   2.290   8.271   3.592 -2.0172 -0.3698  0.5295
16352SOL     OW53993   4.337   6.776   1.295  0.0072 -0.3112  0.0319
16352SOL    HW153994   4.354   6.806   1.385  0.1256 -0.0400 -0.0819
16352SOL    HW253995   4.278   6.841   1.259  0.2692 -0.2099 -0.2165
16353SOL     OW53996   4.614   3.012  10.252 -0.7086 -0.2303 -0.1275
16353SOL    HW153997   4.571   2.927  10.257 -1.2250 -0.0743 -1.5354
16353SOL    HW253998   4.551   3.069  10.208  0.1994  0.4990 -0.5287
16354SOL     OW53999   2.670   5.167   0.906  0.1246 -0.3244  0.0299
16354SOL    HW154000   2.594   5.109   0.909  0.3036 -0.5116  1.2350
16354SOL    HW254001   2.649   5.231   0.838 -0.7376 -0.8821 -0.2373
16355SOL     OW54002   5.080   2.824   5.379 -0.1365 -0.2418  0.6858
16355SOL    HW154003   5.057   2.837   5.287 -0.6674 -0.5225  0.7688
16355SOL    HW254004   4.996   2.824   5.425  0.2194  1.4215  1.3852
16356SOL     OW54005   6.507   6.451   1.818 -0.9174  0.4498  0.1874
16356SOL    HW154006   6.428   6.504   1.820 -0.2409  1.4750  0.7847
16356SOL    HW254007   6.577   6.513   1.800  0.1238  0.0986  2.6162
16357SOL     OW54008   0.053   5.974   0.984  0.5751 -0.3794 -0.0990
16357SOL    HW154009   0.046   5.880   0.965 -0.6496 -0.5401  0.9837
16357SOL    HW254010   0.094   5.978   1.070  1.1176  0.1094 -0.3743
16358SOL     OW54011   0.063  10.786   4.595 -0.0994  0.1562 -0.2756
16358SOL    HW154012  -0.006  10.851   4.610 -0.3830 -0.2159  0.0609
16358SOL    HW254013   0.102  10.811   4.511 -2.4319 -1.1894 -1.8801
16359SOL     OW54014   4.674   3.226  10.857 -0.0112  0.3385  1.1101
16359SOL    HW154015   4.755   3.243  10.809  0.8107 -0.7982  2.0252
16359SOL    HW254016   4.699   3.160  10.922 -2.3304 -2.2784 -0.4507
16360SOL     OW54017   7.401   2.547  11.283  0.0928 -0.0551  0.2228
16360SOL    HW154018   7.338   2.531  11.213  0.7560  1.0631 -0.6764
16360SOL    HW254019   7.434   2.461  11.306 -1.9358 -0.7109  0.9149
16361SOL     OW54020   5.140   5.861   8.288 -0.2501 -0.2410  0.1026
16361SOL    HW154021   5.107   5.864   8.198 -0.6566  0.0360  0.2554
16361SOL    HW254022   5.206   5.930   8.291  0.4690 -0.8981 -0.2469
16362SOL     OW54023   6.517   1.350  11.584 -0.1414  0.5241 -0.6561
16362SOL    HW154024   6.482   1.357  11.672 -0.4152  0.7378 -0.7794
16362SOL    HW254025   6.595   1.296  11.593 -1.2442 -1.1139 -0.5894
16363SOL     OW54026   1.693   7.507   2.698  0.3783  0.3837 -0.2837
16363SOL    HW154027   1.725   7.437   2.640  0.5175 -0.4752  0.7796
16363SOL    HW254028   1.738   7.586   2.667  3.7654 -0.7574  1.1780
16364SOL     OW54029   0.484   0.628  11.467 -0.3579  0.0490  0.4896
16364SOL    HW154030   0.577   0.639  11.487  0.2684 -2.0967 -0.7988
16364SOL    HW254031   0.460   0.707  11.420  1.4804 -0.3029 -1.1866
16365SOL     OW54032  11.447   0.808  10.627 -0.3575 -0.5375 -0.3976
16365SOL    HW154033  11.366   0.830  10.581 -1.6124 -0.2081  1.7816
16365SOL    HW254034  11.515   0.858  10.583 -1.5728  0.2193 -1.4770
16366SOL     OW54035   6.829   5.754   4.448  0.2096 -0.3510 -0.1894
16366SOL    HW154036   6.821   5.751   4.353 -0.6020 -1.7074 -0.1027
16366SOL    HW254037   6.739   5.764   4.479  0.4150 -0.4153  0.4418
16367SOL     OW54038   9.151   1.860   2.991 -0.0176 -0.9654 -0.0750
16367SOL    HW154039   9.163   1.952   2.969  2.3463 -0.8103  1.5854
16367SOL    HW254040   9.225   1.815   2.951  0.7925 -1.6004  2.0112
16368SOL     OW54041  10.840   1.041  10.109 -0.2235 -0.6595  0.3272
16368SOL    HW154042  10.778   1.038  10.036  0.3926  2.9003 -0.5277
16368SOL    HW254043  10.816   1.121  10.157  3.1776  0.4734  0.3660
16369SOL     OW54044   2.904   8.867   9.216 -0.2364 -0.0216  0.0606
16369SOL    HW154045   2.891   8.951   9.171  0.2043  0.0981  0.1496
16369SOL    HW254046   2.818   8.826   9.215 -0.3696  0.2595 -0.3364
16370SOL     OW54047   6.338   0.270   8.302 -0.8967  0.7288 -0.2316
16370SOL    HW154048   6.282   0.232   8.369 -0.7154  2.9088  1.2677
16370SOL    HW254049   6.323   0.216   8.224 -2.7235 -0.5954  0.9604
16371SOL     OW54050   4.104   9.559   3.465 -0.5216 -0.5052  0.6602
16371SOL    HW154051   4.167   9.609   3.516  0.1430 -2.3960  1.8008
16371SOL    HW254052   4.157   9.501   3.410 -1.2332  1.0507 -1.8478
16372SOL     OW54053   5.835   1.073  10.957 -0.0994 -0.3678  0.5875
16372SOL    HW154054   5.776   1.016  11.007  0.7086 -0.9880  0.8512
16372SOL    HW254055   5.911   1.018  10.938 -0.0733  0.0687 -0.7110
16373SOL     OW54056   3.593  11.077   6.146  0.6780 -0.2043  0.2040
16373SOL    HW154057   3.532  11.026   6.199  0.8049 -1.1687 -0.5479
16373SOL    HW254058   3.554  11.164   6.140 -0.0096 -0.4759  0.7381
16374SOL     OW54059   0.735  11.679   4.351  0.0392 -0.3334  0.4760
16374SOL    HW154060   0.813  11.689   4.405  1.4359  0.1253 -1.5029
16374SOL    HW254061   0.704  11.768   4.338  0.4581 -0.3090 -0.4555
16375SOL     OW54062   3.794   2.781   1.208  0.3084 -0.2930  0.3061
16375SOL    HW154063   3.766   2.844   1.275 -0.6163  0.1893 -0.5011
16375SOL    HW254064   3.885   2.762   1.229  1.0622  2.3513 -0.1596
16376SOL     OW54065  10.349  10.101   6.400 -0.1215 -0.1455  0.1266
16376SOL    HW154066  10.386  10.182   6.436  0.3688 -0.6910  0.8817
16376SOL    HW254067  10.265  10.092   6.447  0.3087 -0.6174  0.8250
16377SOL     OW54068   3.012   7.341   0.445 -0.6757  0.4471  0.3835
16377SOL    HW154069   2.990   7.377   0.531 -1.7964  0.8469 -0.0416
16377SOL    HW254070   3.062   7.262   0.463  1.1391  1.7654  1.3631
16378SOL     OW54071   2.773   8.037   7.119 -0.4739  0.2284  0.0063
16378SOL    HW154072   2.793   7.946   7.141 -0.5501 -0.2007 -1.6039
16378SOL    HW254073   2.682   8.035   7.089  0.0257  0.5240 -1.6199
16379SOL     OW54074   9.471   6.362   7.411 -0.2765  0.0506  0.1322
16379SOL    HW154075   9.431   6.328   7.330  0.5219  0.6217 -0.5163
16379SOL    HW254076   9.513   6.285   7.450 -0.9952 -0.3113  0.2130
16380SOL     OW54077   7.654   9.035   2.249  0.2285  0.3312  0.0109
16380SOL    HW154078   7.673   9.064   2.338  1.3128  0.8090 -0.3537
16380SOL    HW254079   7.726   9.071   2.197  1.5511 -2.8110 -0.5206
16381SOL     OW54080   1.552  10.542   0.726 -0.1113  0.1406 -0.0448
16381SOL    HW154081   1.632  10.532   0.675 -0.5665 -1.0043 -0.5838
16381SOL    HW254082   1.573  10.607   0.792  2.0442 -1.7572  1.2998
16382SOL     OW54083   6.627   2.520   5.941  0.0722  0.3133 -0.1303
16382SOL    HW154084   6.675   2.504   6.022  1.5114  3.2454 -0.2802
16382SOL    HW254085   6.692   2.506   5.871 -0.7799 -0.8017 -0.7468
16383SOL     OW54086   6.243   9.370   2.446 -0.4427  0.0903 -0.2790
16383SOL    HW154087   6.162   9.329   2.414 -0.7512  0.8760 -0.5266
16383SOL    HW254088   6.232   9.372   2.541 -0.5047 -0.2247 -0.2761
16384SOL     OW54089   3.575   5.118   3.969  0.1849  0.2453 -0.2196
16384SOL    HW154090   3.575   5.064   3.890 -0.6949  0.0306 -0.0920
16384SOL    HW254091   3.551   5.205   3.940  2.6297  0.8656 -0.5803
16385SOL     OW54092   9.919   3.129  10.779 -0.3955 -0.2441 -0.4141
16385SOL    HW154093  10.008   3.142  10.813 -0.2986 -0.1555 -0.6945
16385SOL    HW254094   9.933   3.103  10.688 -0.6516 -0.4362 -0.3962
16386SOL     OW54095   6.928   4.730   5.319  0.0842 -0.4496 -0.1730
16386SOL    HW154096   6.997   4.794   5.305  1.5302 -1.3498  2.0981
16386SOL    HW254097   6.937   4.668   5.247  2.9754 -1.5509  0.9711
16387SOL     OW54098   8.220   8.685   0.911 -0.2398  0.0028  0.0482
16387SOL    HW154099   8.249   8.602   0.948 -0.1429 -0.5347 -1.1882
16387SOL    HW254100   8.127   8.691   0.937  0.2141  0.4538  1.7365
16388SOL     OW54101   6.200   6.528   8.071 -0.2954 -0.0573 -0.0311
16388SOL    HW154102   6.229   6.446   8.114 -1.4706  0.0215  0.9665
16388SOL    HW254103   6.180   6.502   7.981 -0.5804 -0.8640  0.2524
16389SOL     OW54104   9.802   6.116  10.333  0.7042 -0.1766 -0.1382
16389SOL    HW154105   9.799   6.046  10.268 -0.1950  0.1699 -0.4935
16389SOL    HW254106   9.721   6.164  10.319  0.4605 -0.1290  1.2817
16390SOL     OW54107  10.929   6.223   4.939 -0.0450 -0.2063 -0.1939
16390SOL    HW154108  10.848   6.273   4.954  1.0874  1.4032  0.8665
16390SOL    HW254109  10.956   6.247   4.851 -0.0234  0.3016 -0.0508
16391SOL     OW54110   1.595   0.876   2.213 -0.0650 -0.8395  0.6997
16391SOL    HW154111   1.569   0.784   2.209 -0.5074 -0.6702 -1.0997
16391SOL    HW254112   1.662   0.879   2.282  1.1182 -2.8002 -0.2920
16392SOL     OW54113   0.028   8.848   6.720 -0.1609  0.4520 -0.3438
16392SOL    HW154114   0.047   8.866   6.812 -0.6526  0.6136 -0.2712
16392SOL    HW254115  -0.067   8.841   6.715 -0.1385  0.4070 -0.8327
16393SOL     OW54116  10.442   9.959   7.375 -0.2568 -0.1295  0.5041
16393SOL    HW154117  10.419  10.015   7.300 -1.1674 -0.6235  0.4047
16393SOL    HW254118  10.500  10.013   7.428 -1.8983  1.2971  0.9281
16394SOL     OW54119   6.895  10.614   3.555 -0.2600  0.2638  0.2706
16394SOL    HW154120   6.952  10.677   3.600  0.5898 -1.1228  1.2225
16394SOL    HW254121   6.950  10.537   3.543 -1.5198 -0.6017 -0.1071
16395SOL     OW54122   0.583   6.993   8.528 -0.1846  0.5572  0.4295
16395SOL    HW154123   0.634   6.926   8.482  0.3003  2.2774 -1.7183
16395SOL    HW254124   0.493   6.963   8.521 -0.0106  0.2548 -0.8453
16396SOL     OW54125   3.392  11.688   2.056  0.3118 -0.2249  0.0366
16396SOL    HW154126   3.330  11.758   2.036  1.7848  0.8070 -1.1945
16396SOL    HW254127   3.450  11.725   2.123 -0.0918 -1.0094  0.8435
16397SOL     OW54128   1.066   8.406  10.591 -0.1155 -0.6686 -0.4692
16397SOL    HW154129   1.084   8.471  10.659 -0.8219  0.9777 -1.7730
16397SOL    HW254130   0.994   8.353  10.626  1.2235 -1.5512  1.0872
16398SOL     OW54131   2.892   5.769  10.453 -0.0043  0.3941 -0.0375
16398SOL    HW154132   2.863   5.700  10.513  0.2083  0.1045 -0.2654
16398SOL    HW254133   2.921   5.722  10.375  3.2452  0.4327  0.9959
16399SOL     OW54134  10.109   5.055   6.944  0.3016 -0.0013  0.1950
16399SOL    HW154135  10.184   5.039   7.001 -0.1749 -1.7158  0.3866
16399SOL    HW254136  10.053   5.115   6.994  0.9023  0.2097  0.6243
16400SOL     OW54137   3.191  10.730   3.000 -0.8634  0.0015 -0.5119
16400SOL    HW154138   3.240  10.790   2.943  2.0352 -1.8299 -0.0852
16400SOL    HW254139   3.166  10.658   2.942 -1.2922 -0.0632 -0.2524
16401SOL     OW54140   8.510   0.542   7.493 -0.0821 -0.0901 -0.3340
16401SOL    HW154141   8.421   0.506   7.488  0.5971 -2.2239  1.2219
16401SOL    HW254142   8.514   0.586   7.578 -0.1142  1.4838 -1.1211
16402SOL     OW54143   6.351   8.135   0.476 -0.0904  0.0420 -0.0138
16402SOL    HW154144   6.351   8.085   0.394  1.3051  0.1770 -0.1188
16402SOL    HW254145   6.390   8.219   0.454 -0.9911  0.6165  0.5054
16403SOL     OW54146   7.310   1.692  11.666 -0.1821 -0.5535  0.4619
16403SOL    HW154147   7.231   1.669  11.617 -0.2522 -0.0041  0.3042
16403SOL    HW254148   7.376   1.629  11.638 -0.4329 -0.7134  0.2312
16404SOL     OW54149   3.863   9.050   3.112 -0.0051  0.0218  0.6414
16404SOL    HW154150   3.906   8.967   3.092 -0.4654 -0.7949  2.7907
16404SOL    HW254151   3.930   9.116   3.095  0.7046 -0.8537 -0.0968
16405SOL     OW54152   2.572  11.658   9.481 -0.1824 -0.0690  0.3416
16405SOL    HW154153   2.546  11.622   9.566 -1.4484 -0.2970 -0.1206
16405SOL    HW254154   2.638  11.723   9.502  0.8809 -1.4091  1.3474
16406SOL     OW54155  10.931   5.560   9.485  0.3755 -0.5494 -0.2130
16406SOL    HW154156  10.969   5.495   9.427 -0.1874 -0.9837 -0.1064
16406SOL    HW254157  10.887   5.509   9.553  2.4499 -0.0543  1.5825
16407SOL     OW54158   1.498  10.404   5.998 -0.0899  0.3170 -0.0514
16407SOL    HW154159   1.451  10.432   5.920  0.2941  0.1331 -0.3548
16407SOL    HW254160   1.448  10.439   6.071 -2.4311 -2.3503 -0.2146
16408SOL     OW54161   2.111   2.126   5.301  0.0796 -0.1054 -0.8981
16408SOL    HW154162   2.080   2.209   5.266  0.2039  0.3256  0.0016
16408SOL    HW254163   2.188   2.148   5.352  1.2074 -1.0226 -2.1207
16409SOL     OW54164   7.132  11.529   7.181  0.4606 -0.1682 -0.4877
16409SOL    HW154165   7.117  11.617   7.216  0.0008  0.3019 -1.8155
16409SOL    HW254166   7.093  11.471   7.247  0.9398  0.6000  0.4925
16410SOL     OW54167   2.293   5.219   5.840  0.0038 -0.1167 -0.2960
16410SOL    HW154168   2.338   5.268   5.772 -0.0463  1.5521  0.8137
16410SOL    HW254169   2.202   5.213   5.810  0.0538  0.3091 -0.5361
16411SOL     OW54170   0.200   1.036   1.746 -0.4351 -0.3368  0.1953
16411SOL    HW154171   0.215   1.044   1.652 -0.4118 -1.1709  0.1161
16411SOL    HW254172   0.282   1.000   1.781  0.4007  2.0633  0.9023
16412SOL     OW54173   2.260   6.370   6.562  0.0933 -0.4793  0.3653
16412SOL    HW154174   2.182   6.315   6.564  0.4006 -0.9174  1.6167
16412SOL    HW254175   2.297   6.357   6.475  0.0373 -2.1142  0.5520
16413SOL     OW54176   1.944  10.945   4.724  0.5389 -0.1992 -0.3412
16413SOL    HW154177   1.982  11.016   4.776  1.7630  0.1115 -1.5870
16413SOL    HW254178   1.902  10.990   4.650  0.1258 -0.7050 -0.4176
16414SOL     OW54179   3.040   3.996   2.116 -0.4085 -0.5651 -0.9552
16414SOL    HW154180   3.026   4.086   2.085  2.1374 -0.2480 -1.3997
16414SOL    HW254181   2.953   3.957   2.113 -1.3618  1.4254 -2.2251
16415SOL     OW54182   4.943   8.479   2.121  0.4861 -0.1095 -0.0490
16415SOL    HW154183   4.923   8.537   2.048 -1.3476 -1.4893 -0.7141
16415SOL    HW254184   4.861   8.473   2.170  1.7275  1.0281  2.3811
16416SOL     OW54185   5.479   8.111   7.345  0.1256  0.5526  0.2651
16416SOL    HW154186   5.509   8.198   7.368  1.1782 -0.2124  1.9797
16416SOL    HW254187   5.460   8.069   7.429  2.9856 -2.0053 -0.1892
16417SOL     OW54188   3.214   2.599   8.348 -0.2199  0.4447  0.2702
16417SOL    HW154189   3.146   2.532   8.342 -1.8555  1.9586  1.1708
16417SOL    HW254190   3.201   2.654   8.271  0.8738 -0.0101 -0.2636
16418SOL     OW54191   7.227   6.448  10.373  0.0067 -0.1492 -0.3157
16418SOL    HW154192   7.301   6.501  10.345  0.3453  0.3552  1.3784
16418SOL    HW254193   7.208   6.390  10.299  2.3915 -0.6298 -0.6122
16419SOL     OW54194   2.965   3.401   5.822 -0.2171 -0.2373  0.2616
16419SOL    HW154195   2.928   3.322   5.861 -1.0616  0.3250  0.6547
16419SOL    HW254196   3.034   3.370   5.764  0.0485 -1.2010  1.0559
16420SOL     OW54197   2.778   4.538   5.653  0.0162 -0.8402 -0.4502
16420SOL    HW154198   2.818   4.553   5.739 -2.3812  1.5893  0.3927
16420SOL    HW254199   2.720   4.613   5.640 -1.1745 -2.0963 -3.3688
16421SOL     OW54200   2.229   1.310   2.827 -0.0204 -0.0114 -0.2158
16421SOL    HW154201   2.141   1.288   2.857 -0.4269  0.8680 -0.7239
16421SOL    HW254202   2.248   1.245   2.760 -1.2423  1.1613 -1.7702
16422SOL     OW54203   2.387   3.185  11.496  0.2370 -0.8154  0.7197
16422SOL    HW154204   2.403   3.260  11.554 -2.1280  2.7514 -2.6841
16422SOL    HW254205   2.449   3.197  11.424  0.1000 -2.4327  0.2956
16423SOL     OW54206  10.768   8.868  10.981  0.3561  0.0198 -0.0307
16423SOL    HW154207  10.739   8.800  10.919  0.9661  0.5830 -0.9495
16423SOL    HW254208  10.760   8.950  10.932 -1.2374  0.7453  1.3649
16424SOL     OW54209   3.006  11.648   8.236  0.4602 -0.1412  0.2525
16424SOL    HW154210   3.037  11.618   8.321  0.1114  1.6581  1.0543
16424SOL    HW254211   2.923  11.693   8.255  0.0775 -0.2085 -1.1240
16425SOL     OW54212   9.044  10.402   1.323 -0.3183  0.1745  0.5142
16425SOL    HW154213   9.080  10.491   1.324  2.6582 -0.9261  1.9895
16425SOL    HW254214   9.022  10.384   1.414 -1.3500 -0.4651  0.1519
16426SOL     OW54215   3.467   1.537   9.426  0.1569  0.0913  0.1377
16426SOL    HW154216   3.549   1.520   9.380  0.7337 -0.7532  1.4358
16426SOL    HW254217   3.404   1.477   9.387  0.8240 -1.1429  0.9122
16427SOL     OW54218   7.194   0.834   1.716 -0.1090 -0.5407 -0.3092
16427SOL    HW154219   7.271   0.790   1.680 -0.1213  0.6709 -1.9353
16427SOL    HW254220   7.124   0.770   1.709  0.5165 -1.3016  0.2274
16428SOL     OW54221   9.084  10.585  10.777 -0.4237  0.2936 -0.5523
16428SOL    HW154222   9.061  10.664  10.727 -2.8399 -1.4486 -2.4425
16428SOL    HW254223   9.116  10.524  10.710 -2.7622 -1.7757  0.0770
16429SOL     OW54224   8.401  10.696   4.936 -0.3987 -0.3950  0.3252
16429SOL    HW154225   8.437  10.778   4.903 -2.5582 -0.0670 -1.4389
16429SOL    HW254226   8.403  10.706   5.031 -0.5855  1.7000  0.1524
16430SOL     OW54227   6.560   8.235   6.456 -0.4090  0.1506  0.2164
16430SOL    HW154228   6.633   8.199   6.407  1.3896  2.3903  1.1117
16430SOL    HW254229   6.558   8.184   6.537 -0.1670 -0.2326 -0.0162
16431SOL     OW54230   6.671   4.939   7.039  0.4098 -0.0043 -0.2974
16431SOL    HW154231   6.716   4.919   7.121 -0.1527  0.3230  0.0981
16431SOL    HW254232   6.582   4.908   7.052 -0.1082  1.4472 -0.1821
16432SOL     OW54233   1.097   9.315   1.424  0.1649  0.1065  0.6306
16432SOL    HW154234   1.110   9.327   1.330  1.9614  0.1178  0.8420
16432SOL    HW254235   1.014   9.359   1.442  0.0356  0.5494 -0.8555
16433SOL     OW54236  10.274   6.912   6.454 -0.5478 -0.1455 -0.5308
16433SOL    HW154237  10.283   6.836   6.512 -1.0640  0.1353 -0.0871
16433SOL    HW254238  10.333   6.978   6.492 -0.2692 -0.2390 -0.7916
16434SOL     OW54239   1.420   4.811   5.355  0.3288  0.0041  0.4024
16434SOL    HW154240   1.467   4.861   5.422  0.1525  2.6098 -1.2563
16434SOL    HW254241   1.448   4.850   5.272 -1.6401 -1.1443 -0.8834
16435SOL     OW54242   7.201  10.573   2.576  0.3076 -0.1864 -0.2205
16435SOL    HW154243   7.166  10.576   2.487 -0.1114 -2.1766 -0.1553
16435SOL    HW254244   7.151  10.639   2.623  0.1794  0.5378 -1.3249
16436SOL     OW54245   5.281  11.183   6.021 -0.4028 -0.0909 -0.1057
16436SOL    HW154246   5.278  11.089   6.036  0.5138 -0.0675  0.3119
16436SOL    HW254247   5.299  11.221   6.107  3.8029  0.1271 -0.8481
16437SOL     OW54248   4.853  11.223   6.520 -0.5393 -0.1914 -0.0572
16437SOL    HW154249   4.764  11.258   6.516 -1.1949 -1.6740  0.6620
16437SOL    HW254250   4.858  11.160   6.448  0.6432  1.3363 -1.3817
16438SOL     OW54251   7.196   2.644   5.338 -0.0648 -0.4277  0.9537
16438SOL    HW154252   7.185   2.738   5.355  0.1494  0.2247 -1.9436
16438SOL    HW254253   7.290   2.628   5.348  0.3853  0.4089 -1.3671
16439SOL     OW54254   7.658   2.723   8.108 -0.0622 -0.3707 -0.0337
16439SOL    HW154255   7.564   2.718   8.090 -0.5231 -0.9250  2.2304
16439SOL    HW254256   7.688   2.632   8.104  0.5332 -0.1368 -1.3302
16440SOL     OW54257   1.338   2.406  11.468 -0.1310 -0.4823 -0.5387
16440SOL    HW154258   1.254   2.419  11.512  0.0580 -0.3772 -0.2072
16440SOL    HW254259   1.327   2.448  11.382 -0.0084  0.6430 -0.0253
16441SOL     OW54260   7.587   7.343   0.241  0.5145  0.1767 -0.5462
16441SOL    HW154261   7.531   7.418   0.260 -2.3679 -1.8091 -0.4969
16441SOL    HW254262   7.613   7.310   0.327 -0.0500 -0.1310 -0.4892
16442SOL     OW54263   5.464   8.398   6.177 -0.0387 -0.0209  0.0436
16442SOL    HW154264   5.532   8.332   6.163  0.1099 -0.0904  0.9809
16442SOL    HW254265   5.511   8.474   6.212 -0.2269  0.5448 -0.9050
16443SOL     OW54266   2.859   2.784   2.715 -0.4183  0.6509  0.3208
16443SOL    HW154267   2.805   2.786   2.636 -0.2111  1.5705  0.1903
16443SOL    HW254268   2.862   2.875   2.744  0.7090  0.5506  0.5692
16444SOL     OW54269   3.853   1.187   1.765  0.1932 -0.6757  0.1518
16444SOL    HW154270   3.824   1.197   1.674  2.1325 -0.9332 -0.5383
16444SOL    HW254271   3.838   1.094   1.784 -1.2379 -0.3995  0.5068
16445SOL     OW54272   8.022   4.614   1.281 -0.5911  0.1673 -0.3849
16445SOL    HW154273   8.106   4.568   1.271 -0.5046  0.4400 -0.8988
16445SOL    HW254274   8.027   4.652   1.369  1.1429  2.7925 -1.5119
16446SOL     OW54275  11.505   8.746   5.762 -0.0392 -0.0672 -0.3077
16446SOL    HW154276  11.428   8.765   5.708 -0.9591  0.1018  1.0064
16446SOL    HW254277  11.568   8.707   5.701  0.2647  3.0260 -2.2291
16447SOL     OW54278   8.100   7.863   4.405 -0.3234 -0.1380 -0.0396
16447SOL    HW154279   8.061   7.923   4.468  1.3285 -0.1163  1.0310
16447SOL    HW254280   8.047   7.873   4.326 -0.7833  1.8800  0.4636
16448SOL     OW54281   9.147   2.405   6.493 -0.0351 -0.0546 -0.5705
16448SOL    HW154282   9.100   2.422   6.411 -0.7467 -0.5934 -0.2890
16448SOL    HW254283   9.154   2.309   6.496 -0.1258 -0.0448  0.0519
16449SOL     OW54284   3.254   0.269   4.159  0.4984  0.0777  0.0777
16449SOL    HW154285   3.326   0.332   4.163  0.1570  0.4425  3.0392
16449SOL    HW254286   3.250   0.232   4.248 -1.8435 -1.2308 -0.4859
16450SOL     OW54287   8.608   1.285   9.491  0.5184  0.4437  0.0780
16450SOL    HW154288   8.686   1.257   9.443 -0.3862 -0.4708 -0.8983
16450SOL    HW254289   8.565   1.204   9.518 -1.9504  0.7593 -2.4576
16451SOL     OW54290   4.379  10.820   9.345 -0.1338  0.4081  0.0513
16451SOL    HW154291   4.355  10.728   9.335  0.4041  0.2593  0.0560
16451SOL    HW254292   4.475  10.819   9.347 -0.1216  0.9789 -0.0430
16452SOL     OW54293   1.383  10.448   7.710  0.1936  0.2525  0.3400
16452SOL    HW154294   1.353  10.393   7.638  2.1906  1.4909 -1.5741
16452SOL    HW254295   1.308  10.502   7.733 -0.5043 -0.1990 -0.7955
16453SOL     OW54296   4.322  10.233   2.708  0.1099  0.2513  0.6397
16453SOL    HW154297   4.351  10.324   2.715 -0.8092  0.5818  0.2873
16453SOL    HW254298   4.382  10.193   2.645 -0.2484  0.9539 -0.1645
16454SOL     OW54299   4.389   2.585  10.652  0.4290  0.2642 -0.0972
16454SOL    HW154300   4.453   2.565  10.720  2.0765 -0.3417 -1.7479
16454SOL    HW254301   4.332   2.508  10.649 -0.2117  0.6528  1.1255
16455SOL     OW54302   6.533   2.298   7.570  0.2794 -0.4220  0.1402
16455SOL    HW154303   6.549   2.364   7.637  0.8320 -1.4508  1.0487
16455SOL    HW254304   6.616   2.288   7.525 -0.0946  0.2747 -0.7251
16456SOL     OW54305   9.531   8.686   7.580 -1.0261 -0.2569 -0.0068
16456SOL    HW154306   9.607   8.712   7.632 -0.0400  0.4271 -1.7002
16456SOL    HW254307   9.455   8.714   7.632 -0.1245 -0.2970  1.3841
16457SOL     OW54308   0.826   8.943   9.817  0.9294 -0.0487 -0.1502
16457SOL    HW154309   0.754   8.964   9.758  0.3188 -0.4686  0.4419
16457SOL    HW254310   0.904   8.975   9.771  0.2894  1.2294 -0.3989
16458SOL     OW54311   4.107   2.638  10.483 -0.0539  0.5402  0.2861
16458SOL    HW154312   4.067   2.703  10.426 -5.0169 -1.2349  1.2729
16458SOL    HW254313   4.105   2.676  10.570  3.8340  1.6540  0.1040
16459SOL     OW54314   0.886   7.054   8.277  0.3792  0.3998 -0.3141
16459SOL    HW154315   0.885   6.969   8.320 -4.4591 -0.4278 -1.5130
16459SOL    HW254316   0.892   7.118   8.348  1.4846 -0.8889  0.7965
16460SOL     OW54317   0.103   7.751   8.011  0.1072 -0.1388  0.0266
16460SOL    HW154318   0.141   7.733   7.925 -0.1594 -0.1246 -0.0942
16460SOL    HW254319   0.025   7.696   8.015  0.4214 -0.5544  0.4826
16461SOL     OW54320   4.139  11.316   1.617 -0.0252 -0.1862  0.6021
16461SOL    HW154321   4.229  11.285   1.611  0.2507  0.7795 -0.7227
16461SOL    HW254322   4.087  11.249   1.572  0.0796 -0.5085  0.9545
16462SOL     OW54323   6.130  11.440   6.610  0.2942  0.1069  0.1462
16462SOL    HW154324   6.120  11.389   6.529 -0.4857 -0.0477  0.3322
16462SOL    HW254325   6.125  11.375   6.680  0.0885  0.3495  0.3552
16463SOL     OW54326   2.509  10.590   0.603  0.5051  0.0154  0.0432
16463SOL    HW154327   2.500  10.562   0.694 -1.0245 -0.0778 -0.1091
16463SOL    HW254328   2.601  10.571   0.581  0.8323 -0.1976  1.4700
16464SOL     OW54329   4.875  10.883   8.822  0.2306 -0.1758  0.1810
16464SOL    HW154330   4.953  10.829   8.836  1.1438  0.7767 -1.0486
16464SOL    HW254331   4.909  10.968   8.795 -1.2336  0.4803  0.3257
16465SOL     OW54332   2.699  11.213  11.433 -0.2415  0.1125 -0.0289
16465SOL    HW154333   2.718  11.202  11.526 -1.2314 -1.1578  0.0430
16465SOL    HW254334   2.612  11.175  11.421 -0.8738  1.7570 -1.1711
16466SOL     OW54335   8.503   2.007  10.532  0.3602 -0.5853  0.1429
16466SOL    HW154336   8.435   2.050  10.584  1.2629 -1.4494  2.1670
16466SOL    HW254337   8.458   1.976  10.454 -0.6698  2.5168 -0.6498
16467SOL     OW54338  11.011   4.045   5.151  0.3103 -0.8715  0.3792
16467SOL    HW154339  10.929   4.009   5.183 -1.3391  2.2389  0.0387
16467SOL    HW254340  11.023   4.006   5.065 -0.3081 -2.0757  0.8248
16468SOL     OW54341   3.646   6.912   7.800  0.3812 -0.1360  0.4260
16468SOL    HW154342   3.657   7.003   7.827  3.3644  0.0836 -1.1750
16468SOL    HW254343   3.579   6.916   7.732 -1.4792  0.3942  2.1888
16469SOL     OW54344   1.446   9.846   2.293  0.1258  0.3562 -0.2497
16469SOL    HW154345   1.371   9.903   2.277  1.5776  2.4950  0.1876
16469SOL    HW254346   1.514   9.877   2.233  0.5136 -1.9700 -1.1288
16470SOL     OW54347   2.682   1.332   6.160  0.3678  0.3656 -0.4219
16470SOL    HW154348   2.611   1.384   6.124  0.4757 -0.3270 -1.6776
16470SOL    HW254349   2.686   1.358   6.252  1.2657  3.5570 -1.2132
16471SOL     OW54350   6.349   5.461  10.929  0.2905 -0.2165 -0.3095
16471SOL    HW154351   6.324   5.381  10.975 -0.5027  0.6964  0.9106
16471SOL    HW254352   6.415   5.501  10.986  0.6841  0.0161 -0.9171
16472SOL     OW54353   2.983   0.403   6.737 -0.0396 -0.3243 -0.2436
16472SOL    HW154354   2.967   0.461   6.812  1.2570  1.2298 -1.1174
16472SOL    HW254355   3.040   0.454   6.680 -1.4387 -1.2486 -2.5698
16473SOL     OW54356   0.005  10.811   2.620  0.1592  0.1578 -0.2287
16473SOL    HW154357  -0.045  10.787   2.698  0.1977 -1.3202 -0.6264
16473SOL    HW254358  -0.054  10.791   2.547  0.8446 -0.3888 -0.6485
16474SOL     OW54359   5.961   1.672   4.770  0.3499  0.1267  0.1023
16474SOL    HW154360   5.921   1.706   4.850  0.6057  0.0660  0.2566
16474SOL    HW254361   6.054   1.696   4.778  0.6079 -0.9097  0.3789
16475SOL     OW54362   7.377   4.001  10.917  0.1248  0.2176 -0.1709
16475SOL    HW154363   7.328   4.009  10.999  0.5577  0.6290  0.0570
16475SOL    HW254364   7.424   3.918  10.924 -0.3589 -0.0654 -0.2907
16476SOL     OW54365   0.482  11.529   6.384  0.0561  0.0016 -0.5627
16476SOL    HW154366   0.386  11.530   6.386  0.0475 -0.6120 -0.5057
16476SOL    HW254367   0.504  11.438   6.364  0.6599 -0.2040  0.9864
16477SOL     OW54368   9.960   6.494   5.611  0.1321 -0.3594 -0.0308
16477SOL    HW154369   9.892   6.561   5.619  1.0189  0.5761 -0.1511
16477SOL    HW254370  10.019   6.511   5.684  1.1436 -0.0740 -0.8799
16478SOL     OW54371   0.493  10.539   4.248  0.2987 -0.0797  0.4468
16478SOL    HW154372   0.493  10.526   4.153  2.7706  1.0472  0.2017
16478SOL    HW254373   0.525  10.457   4.283  1.0423  0.0729  0.1457
16479SOL     OW54374   2.325   8.000   2.739 -0.0038 -0.5786  0.4440
16479SOL    HW154375   2.400   8.045   2.701  0.1298  1.9355  3.3297
16479SOL    HW254376   2.363   7.936   2.798 -0.1733 -1.0766  0.0190
16480SOL     OW54377   6.385  10.355  11.113  0.0366 -0.3256 -0.6938
16480SOL    HW154378   6.310  10.394  11.069  0.6982  0.4221 -1.1817
16480SOL    HW254379   6.422  10.426  11.166  1.3136 -0.2131 -1.6701
16481SOL     OW54380   5.487   7.111   7.314  0.3333  0.0399 -0.0562
16481SOL    HW154381   5.579   7.091   7.301  0.8554  2.4555 -0.6895
16481SOL    HW254382   5.487   7.199   7.353 -1.6664 -0.7990  2.0858
16482SOL     OW54383  10.916  10.030   3.486  0.0497 -0.0627 -0.2368
16482SOL    HW154384  10.898   9.943   3.450 -0.1288 -0.7926  1.5135
16482SOL    HW254385  10.839  10.050   3.539  0.8686  0.3871  0.8027
16483SOL     OW54386   0.808   1.571   4.884  0.3074 -0.0367 -0.0715
16483SOL    HW154387   0.828   1.651   4.835 -1.4900  0.4120 -0.1232
16483SOL    HW254388   0.718   1.582   4.913  0.1089 -1.9245  0.1699
16484SOL     OW54389   1.532   8.088   8.745 -0.1996 -0.0268  0.3105
16484SOL    HW154390   1.552   7.997   8.769 -0.2251  0.4226  2.2169
16484SOL    HW254391   1.599   8.140   8.788 -1.4415  0.9929  1.1119
16485SOL     OW54392   0.665   5.799   5.623 -0.5752  0.0223  0.1069
16485SOL    HW154393   0.627   5.747   5.694  0.7222 -1.5490 -0.2882
16485SOL    HW254394   0.726   5.859   5.666 -2.0508  1.2453  0.5651
16486SOL     OW54395   0.481   2.863   2.338 -0.2422  0.4052  0.4627
16486SOL    HW154396   0.427   2.905   2.270  0.2754  1.5581  0.7398
16486SOL    HW254397   0.426   2.793   2.372 -1.1282  0.8336 -0.0451
16487SOL     OW54398  10.190   2.314   9.520 -0.0017  0.1875 -0.3554
16487SOL    HW154399  10.110   2.319   9.573  0.1249  1.6771 -0.2598
16487SOL    HW254400  10.222   2.404   9.517  0.4785 -0.0024 -2.2198
16488SOL     OW54401   2.615   5.196   9.038  0.0472  0.3003  0.0607
16488SOL    HW154402   2.613   5.107   9.072 -1.1956  0.9354  1.7826
16488SOL    HW254403   2.566   5.248   9.102 -1.5724  1.7848 -2.2145
16489SOL     OW54404   0.878   3.009   9.581  0.0899  0.0774 -0.2311
16489SOL    HW154405   0.822   2.953   9.526  0.1035 -0.0031 -0.1631
16489SOL    HW254406   0.954   2.955   9.601  0.3956  0.3362 -0.6793
16490SOL     OW54407   2.560   3.071   4.418  0.4199 -0.7367 -0.3791
16490SOL    HW154408   2.524   2.984   4.402  1.0344 -1.0047 -0.3129
16490SOL    HW254409   2.602   3.066   4.503  1.1154 -0.5939 -0.7034
16491SOL     OW54410   6.998   1.392   5.756 -0.0953  0.0385 -0.1302
16491SOL    HW154411   7.022   1.391   5.663  0.9667 -0.7826  0.1304
16491SOL    HW254412   6.984   1.300   5.779  2.1309 -0.0879  1.0783
16492SOL     OW54413   6.719   1.980   4.020 -0.3101 -0.1967  0.3885
16492SOL    HW154414   6.691   1.894   3.989 -0.8633  0.6718 -1.7186
16492SOL    HW254415   6.789   1.962   4.082 -1.0929 -2.1887  0.7620
16493SOL     OW54416   4.068   5.290   9.091 -0.5972 -0.1431 -0.5651
16493SOL    HW154417   4.003   5.349   9.054 -1.4034 -1.6451 -1.6670
16493SOL    HW254418   4.082   5.223   9.023  2.1174  0.1099 -0.3713
16494SOL     OW54419   5.976   5.654   0.841  0.7505  0.1006 -0.4683
16494SOL    HW154420   6.052   5.688   0.888  1.1873 -0.1504 -0.9732
16494SOL    HW254421   6.000   5.663   0.749 -0.2377  0.9145 -0.6577
16495SOL     OW54422   3.339  10.138   9.664 -0.4289 -0.0167  0.1025
16495SOL    HW154423   3.366  10.201   9.597 -1.1466 -0.7238 -0.8975
16495SOL    HW254424   3.365  10.178   9.747 -0.0018  1.1397 -0.5612
16496SOL     OW54425   9.710  10.319   8.980 -0.5014  0.5045  0.6331
16496SOL    HW154426   9.637  10.278   8.933  0.1306 -0.7451  0.7067
16496SOL    HW254427   9.689  10.306   9.072 -0.2782  0.2971  0.6552
16497SOL     OW54428   1.796   4.411   2.470  0.0807  0.4243 -0.0483
16497SOL    HW154429   1.703   4.396   2.485 -0.0633  0.2886 -1.0344
16497SOL    HW254430   1.818   4.355   2.396  0.6323  1.4497 -0.6794
16498SOL     OW54431   0.847   8.318   4.708 -0.5786  0.1485 -0.5190
16498SOL    HW154432   0.845   8.394   4.651 -1.3164  0.4160 -0.1521
16498SOL    HW254433   0.832   8.243   4.650 -0.4694  0.3372 -0.7905
16499SOL     OW54434   2.430   0.772   4.682 -0.2379 -0.0148  0.2895
16499SOL    HW154435   2.506   0.716   4.672  0.0573  0.2325  1.0393
16499SOL    HW254436   2.465   0.861   4.680 -0.5288  0.1060  0.4378
16500SOL     OW54437   0.744   2.368   5.956 -0.3681 -0.3952  0.3139
16500SOL    HW154438   0.679   2.305   5.986 -0.9144 -0.7449 -1.4754
16500SOL    HW254439   0.755   2.348   5.863  2.3674 -0.4034  0.5500
16501SOL     OW54440   7.949   6.984   7.003 -0.1123  0.5104 -0.1831
16501SOL    HW154441   7.900   7.011   7.080 -1.5681 -1.0121 -0.5226
16501SOL    HW254442   7.999   7.062   6.978 -0.7975  1.4950  1.3628
16502SOL     OW54443   4.915   4.194   5.616  0.1368  0.0935 -0.0153
16502SOL    HW154444   4.826   4.181   5.651 -0.1054  0.2073 -0.5832
16502SOL    HW254445   4.918   4.142   5.536  0.2752  0.8140 -0.4899
16503SOL     OW54446   2.076   5.255  10.726  0.5076  0.6001  0.3498
16503SOL    HW154447   2.166   5.288  10.722  0.4482  0.7171 -0.0580
16503SOL    HW254448   2.042   5.287  10.809  1.0406  0.0494  0.7886
16504SOL     OW54449  10.623   8.942   5.493  0.1286 -0.3127  0.0208
16504SOL    HW154450  10.566   8.956   5.418 -0.7124  0.0033  0.7124
16504SOL    HW254451  10.698   8.999   5.477  0.2318 -0.6699 -0.8494
16505SOL     OW54452   0.419   7.904   8.992 -0.0790  0.2638  0.2151
16505SOL    HW154453   0.463   7.929   8.910 -0.3516 -0.2488 -0.0945
16505SOL    HW254454   0.340   7.957   8.994  0.5726  1.2520  0.8154
16506SOL     OW54455   1.587  10.633   0.038  0.6276 -0.9729 -0.0241
16506SOL    HW154456   1.621  10.587  -0.039  1.1495 -0.2031 -0.2682
16506SOL    HW254457   1.664  10.671   0.079  0.2960 -0.9885  0.6322
16507SOL     OW54458   3.237   8.485  10.824 -0.3687  0.2766  0.4797
16507SOL    HW154459   3.207   8.570  10.791  1.6206  1.2757  1.1258
16507SOL    HW254460   3.204   8.481  10.913  0.9363  1.1727  1.0338
16508SOL     OW54461   1.959  11.056  10.774 -0.5890  0.5161 -0.5176
16508SOL    HW154462   2.006  11.137  10.793  0.4012 -0.1211 -0.1570
16508SOL    HW254463   1.961  11.006  10.856  0.8590 -0.8474 -1.3186
16509SOL     OW54464   1.546   5.015   7.810  0.0297 -0.4487  0.6066
16509SOL    HW154465   1.624   4.968   7.781  0.1747 -0.6944  1.3608
16509SOL    HW254466   1.484   4.946   7.834  0.0166 -0.2549  1.1355
16510SOL     OW54467   1.029   4.637   3.103  0.1008  0.0977  0.1376
16510SOL    HW154468   1.022   4.689   3.022  0.9912  0.8569  0.5341
16510SOL    HW254469   0.997   4.550   3.078 -1.3329  0.7876 -0.5718
16511SOL     OW54470   5.308   5.015   1.358  0.2540  0.7181 -0.2570
16511SOL    HW154471   5.268   5.041   1.275  0.5661  1.1078 -0.2845
16511SOL    HW254472   5.381   5.075   1.370 -0.3247  1.2444  0.7375
16512SOL     OW54473   6.469   6.442   9.725  0.9899  0.1257  0.0406
16512SOL    HW154474   6.487   6.362   9.675 -0.6644 -1.0190  1.1967
16512SOL    HW254475   6.381   6.430   9.760  1.2744  1.8149  1.5022
16513SOL     OW54476   2.171   8.964   6.563 -1.1969 -0.6676  0.0023
16513SOL    HW154477   2.101   8.996   6.506 -0.9928  0.2792  0.2730
16513SOL    HW254478   2.218   9.042   6.591  0.8020 -1.3539 -1.2025
16514SOL     OW54479   9.705   0.575   9.460 -0.1939 -0.4949 -0.2532
16514SOL    HW154480   9.717   0.546   9.370 -0.4323  1.4906 -0.9771
16514SOL    HW254481   9.790   0.611   9.486  0.1409 -1.8768  0.6685
16515SOL     OW54482   7.823   8.112   2.705  0.2411  0.3306  0.1182
16515SOL    HW154483   7.752   8.052   2.726 -0.3614  1.0851  0.2892
16515SOL    HW254484   7.779   8.187   2.664  0.6811  1.7152  2.0356
16516SOL     OW54485   4.340   1.901   4.019 -0.1631 -0.1799  0.2285
16516SOL    HW154486   4.410   1.967   4.020  0.4660 -0.6811 -2.4917
16516SOL    HW254487   4.264   1.949   3.987  0.4656 -0.8251 -2.4139
16517SOL     OW54488   7.240   4.456   4.469  0.5547 -0.1896 -0.0249
16517SOL    HW154489   7.273   4.367   4.481  0.4730 -0.2534 -0.2645
16517SOL    HW254490   7.193   4.453   4.385  0.4905  0.0606  0.0007
16518SOL     OW54491  10.202  11.217   6.714 -0.3082 -0.0312 -0.0922
16518SOL    HW154492  10.201  11.123   6.699  1.1630  0.4276 -4.5990
16518SOL    HW254493  10.127  11.250   6.663  0.0108  1.3322  0.2876
16519SOL     OW54494   4.574   0.047   6.095 -0.1611  0.0495 -0.2686
16519SOL    HW154495   4.523   0.024   6.017  0.5777 -1.9568 -0.2072
16519SOL    HW254496   4.562  -0.026   6.155  0.3096  0.9792  1.0077
16520SOL     OW54497   7.817   9.266   6.685  0.0764 -0.4412  0.1552
16520SOL    HW154498   7.755   9.232   6.621  1.2999 -1.4882 -0.5366
16520SOL    HW254499   7.896   9.284   6.634  0.4953  0.4524  1.0805
16521SOL     OW54500   1.581   2.306   0.562 -0.1892 -0.0794 -0.3864
16521SOL    HW154501   1.534   2.373   0.611 -0.2526 -1.2215  1.2132
16521SOL    HW254502   1.652   2.353   0.519 -0.1497  1.0071  0.8040
16522SOL     OW54503   7.174   3.713   7.858  0.7420 -0.2956  0.6670
16522SOL    HW154504   7.195   3.623   7.883  0.5378  0.0398  2.1776
16522SOL    HW254505   7.119   3.745   7.930  2.0317  1.5164  0.9139
16523SOL     OW54506   4.216   7.198   2.019  0.4519 -0.3652 -0.3123
16523SOL    HW154507   4.243   7.232   1.934 -2.3679  0.4784 -0.9888
16523SOL    HW254508   4.258   7.256   2.083 -1.6586  2.5482 -1.3562
16524SOL     OW54509   7.662   8.356   5.472 -0.2880 -0.1299  0.1494
16524SOL    HW154510   7.605   8.432   5.465 -1.8302 -1.2462  0.1559
16524SOL    HW254511   7.751   8.392   5.472 -0.9749  1.6309 -0.1119
16525SOL     OW54512   2.277   1.537   5.895  0.0271 -0.4221  0.2628
16525SOL    HW154513   2.207   1.562   5.834  0.4193 -0.4552 -0.2128
16525SOL    HW254514   2.233   1.521   5.978 -0.4728 -0.0113  0.0791
16526SOL     OW54515   6.751   8.239   4.758  0.5763  0.6444  0.4290
16526SOL    HW154516   6.754   8.257   4.852 -1.8496 -1.0336  0.9034
16526SOL    HW254517   6.715   8.151   4.751  0.4138  0.8333 -2.1069
16527SOL     OW54518   7.830   9.661   3.006  0.4967  0.2153  0.3000
16527SOL    HW154519   7.742   9.631   3.030  0.0825  1.4543  0.3709
16527SOL    HW254520   7.844   9.740   3.058  1.4466  0.3204 -0.0953
16528SOL     OW54521   8.912   4.323   2.704  0.1735 -0.0760 -0.3992
16528SOL    HW154522   8.835   4.314   2.648 -0.3563  1.2203  0.0685
16528SOL    HW254523   8.879   4.370   2.781  1.2443 -0.3144  0.2115
16529SOL     OW54524   8.187   4.200  10.518  0.4318 -0.0117 -0.4317
16529SOL    HW154525   8.141   4.177  10.599  1.5698  2.2958  0.9675
16529SOL    HW254526   8.117   4.208  10.453 -0.5119 -1.9236  0.2575
16530SOL     OW54527   9.807   5.473   6.170  0.7993  0.9877  0.2189
16530SOL    HW154528   9.734   5.526   6.202  1.8237  2.5153  0.1582
16530SOL    HW254529   9.766   5.396   6.131 -0.8898  2.4267 -1.0059
16531SOL     OW54530   5.818   5.302   5.221  0.8311 -0.3153 -0.7567
16531SOL    HW154531   5.861   5.224   5.186 -0.1653 -1.9840  1.5132
16531SOL    HW254532   5.743   5.315   5.163  0.7809 -1.2849 -0.9319
16532SOL     OW54533  11.425  11.165   0.135 -0.9332  0.3813 -0.3742
16532SOL    HW154534  11.423  11.123   0.221 -3.0977  2.1968  0.5582
16532SOL    HW254535  11.397  11.097   0.074 -2.5534 -0.0914  0.8374
16533SOL     OW54536   1.542   3.853   7.141  0.0961  0.5353 -0.1163
16533SOL    HW154537   1.448   3.839   7.155  0.1762 -0.6690 -0.6600
16533SOL    HW254538   1.547   3.930   7.085 -0.5423  0.9162  0.3386
16534SOL     OW54539   0.728   7.517  10.867  0.4178 -0.2127  0.2162
16534SOL    HW154540   0.796   7.472  10.817 -0.5376  0.6530 -2.0243
16534SOL    HW254541   0.754   7.609  10.865 -0.9477  0.1918 -1.0248
16535SOL     OW54542   9.434   8.759   2.976  0.2286  0.1189  0.1969
16535SOL    HW154543   9.376   8.684   2.990  0.2725  0.1173  0.3639
16535SOL    HW254544   9.518   8.732   3.014 -0.0626  0.6835  1.2741
16536SOL     OW54545   8.977   3.589   7.447  0.8447 -0.1545  1.1049
16536SOL    HW154546   8.922   3.589   7.369  2.5006  0.6110 -0.1180
16536SOL    HW254547   8.977   3.498   7.477  0.9483 -0.6528 -0.3619
16537SOL     OW54548   3.001  11.389   2.579  0.2746 -0.1585 -0.3414
16537SOL    HW154549   3.058  11.420   2.509 -1.2591  0.1601 -1.4915
16537SOL    HW254550   3.032  11.435   2.657  0.0777  1.9012 -1.4030
16538SOL     OW54551   3.205   5.576   2.642 -0.2256  0.0175 -0.7148
16538SOL    HW154552   3.231   5.666   2.663 -1.1472  0.3150 -0.7962
16538SOL    HW254553   3.249   5.522   2.708 -0.4466  0.6254 -0.0610
16539SOL     OW54554   7.782   0.804   5.249  1.0289  0.3534 -0.4583
16539SOL    HW154555   7.827   0.744   5.190 -0.5165 -1.0982 -0.2530
16539SOL    HW254556   7.816   0.891   5.226  2.4381 -0.4543 -1.6021
16540SOL     OW54557   1.990   3.207   3.126 -0.0311  0.1727 -0.5634
16540SOL    HW154558   2.042   3.128   3.133  1.2923  0.8673 -2.0433
16540SOL    HW254559   1.920   3.184   3.064 -1.9805 -0.9530  1.8945
16541SOL     OW54560   3.879   3.940  10.346 -0.4335 -0.4349 -0.0363
16541SOL    HW154561   3.869   4.033  10.365  1.1762  0.3606 -2.5613
16541SOL    HW254562   3.821   3.924  10.272  0.8200 -0.9103 -0.9435
16542SOL     OW54563   5.617   4.588   1.959 -0.0318 -0.2360  0.0733
16542SOL    HW154564   5.621   4.611   2.052  1.2977 -0.4651  0.0924
16542SOL    HW254565   5.629   4.493   1.957 -1.0750 -0.3737 -0.2822
16543SOL     OW54566   2.421   2.868  10.076 -0.4149  0.1480  0.3851
16543SOL    HW154567   2.449   2.874  10.167  1.8490 -0.3488 -0.1970
16543SOL    HW254568   2.483   2.807  10.036 -1.0783  0.6694 -1.5899
16544SOL     OW54569   6.442   0.900   3.668  0.1316  0.4044  0.0078
16544SOL    HW154570   6.355   0.908   3.628  0.6144 -0.3609 -1.2627
16544SOL    HW254571   6.471   0.812   3.645  1.1261  0.5448  0.6583
16545SOL     OW54572   8.353   2.256   5.842  0.1583 -0.0581  0.7129
16545SOL    HW154573   8.304   2.179   5.816  2.1367 -0.8427 -0.9941
16545SOL    HW254574   8.445   2.227   5.843  1.2590  2.7161 -2.3003
16546SOL     OW54575  10.317   3.414   4.287  0.2661  0.6851  0.2664
16546SOL    HW154576  10.269   3.342   4.245  0.2443  0.6612  0.3322
16546SOL    HW254577  10.401   3.375   4.312 -0.5778  0.0607  2.3176
16547SOL     OW54578  10.664  11.644   1.624  0.4425 -0.4860 -0.4584
16547SOL    HW154579  10.669  11.549   1.633  2.6347 -0.3191  1.0077
16547SOL    HW254580  10.742  11.667   1.573  0.1832  0.5558 -0.4099
16548SOL     OW54581  10.275  10.262   1.400  0.6159  0.7225 -0.1128
16548SOL    HW154582  10.223  10.262   1.320  1.3541 -0.1215 -0.6226
16548SOL    HW254583  10.225  10.209   1.462  0.8038  0.0236 -0.5552
16549SOL     OW54584  10.211   7.372   3.383 -0.5149 -0.5135 -0.1530
16549SOL    HW154585  10.264   7.304   3.425 -0.9044 -0.2590  0.7917
16549SOL    HW254586  10.157   7.325   3.320 -1.0451 -1.1560  0.7496
16550SOL     OW54587   5.717   2.845   1.296 -0.3611 -0.2419 -0.4044
16550SOL    HW154588   5.622   2.838   1.282 -0.2701  0.4305 -1.4906
16550SOL    HW254589   5.754   2.771   1.248 -0.2149  0.7107 -1.8383
16551SOL     OW54590   7.036   4.206   6.694 -0.6575 -0.0998 -0.0705
16551SOL    HW154591   7.118   4.159   6.677 -0.3631  0.2112  0.4762
16551SOL    HW254592   7.031   4.271   6.624 -0.0434  0.3855  0.3152
16552SOL     OW54593   6.615   9.673   7.815 -0.2371 -0.4630 -0.1948
16552SOL    HW154594   6.613   9.741   7.883 -0.8233 -0.1687 -0.4944
16552SOL    HW254595   6.662   9.714   7.742  1.7737 -1.3158  0.5730
16553SOL     OW54596   1.220   6.169  11.262  0.2466 -0.1896 -0.0507
16553SOL    HW154597   1.204   6.179  11.168 -0.7836 -0.2766  0.0993
16553SOL    HW254598   1.256   6.254  11.288 -1.1528  0.5034 -0.2196
16554SOL     OW54599   1.839   9.453   8.956  0.0919  0.2278 -0.5321
16554SOL    HW154600   1.766   9.414   9.005 -0.0799 -0.3517 -1.2343
16554SOL    HW254601   1.861   9.533   9.005  0.1163 -0.4798  0.6520
16555SOL     OW54602   8.504  10.309   0.279  0.5461  0.6243  0.4404
16555SOL    HW154603   8.512  10.283   0.370  1.7625 -0.9243 -0.0743
16555SOL    HW254604   8.571  10.376   0.267  1.8129 -0.6553  0.1942
16556SOL     OW54605   2.382  11.408   4.730  0.2900  0.0325 -0.4555
16556SOL    HW154606   2.408  11.496   4.704 -1.8306  0.5867 -0.8399
16556SOL    HW254607   2.402  11.404   4.824 -1.0608  1.5106 -0.0703
16557SOL     OW54608   0.690   8.084   8.435 -0.0190 -0.6015  0.4828
16557SOL    HW154609   0.675   7.992   8.454  1.1401 -1.3345 -1.7621
16557SOL    HW254610   0.691   8.089   8.339  1.1501  1.4977  0.5395
16558SOL     OW54611   2.337   8.455   5.381  0.2106  0.3192  0.1330
16558SOL    HW154612   2.266   8.403   5.419  1.6797 -0.8617  1.3899
16558SOL    HW254613   2.388   8.483   5.456  0.7585  1.6539 -0.7146
16559SOL     OW54614   6.951  11.357   7.876  0.8243 -0.9416  0.9367
16559SOL    HW154615   6.961  11.330   7.967 -2.3728  0.3676  1.7892
16559SOL    HW254616   6.880  11.301   7.842  1.4817 -0.9227 -0.5676
16560SOL     OW54617   4.717   5.630   2.149 -0.6269 -0.5677 -0.1842
16560SOL    HW154618   4.768   5.552   2.168  0.9685  0.2049 -1.0462
16560SOL    HW254619   4.693   5.665   2.235 -2.1715 -2.4389  0.2148
16561SOL     OW54620   2.230   5.522   9.972 -0.4334 -0.3236  0.5177
16561SOL    HW154621   2.289   5.507   9.899  0.5839 -0.4911  1.3533
16561SOL    HW254622   2.181   5.601   9.948  1.7074  1.1560  0.7505
16562SOL     OW54623   5.617  11.303   2.214 -0.1606 -0.0346 -0.4147
16562SOL    HW154624   5.599  11.235   2.150 -0.1282 -0.0814 -0.3747
16562SOL    HW254625   5.676  11.261   2.277 -0.0673  0.0583 -0.4403
16563SOL     OW54626   2.559   0.762   4.275 -0.0007  0.3291 -0.2268
16563SOL    HW154627   2.498   0.817   4.324 -0.4543 -0.3153 -0.0614
16563SOL    HW254628   2.641   0.768   4.325 -0.5969 -0.7337  0.9277
16564SOL     OW54629   2.863   8.047   9.727 -0.4369  0.7501 -0.0626
16564SOL    HW154630   2.886   8.119   9.786 -0.6796  0.8289 -0.0627
16564SOL    HW254631   2.947   8.010   9.700 -0.2797  1.6954 -0.8925
16565SOL     OW54632   3.155   7.942   9.406 -0.1700 -0.0294 -0.0166
16565SOL    HW154633   3.145   7.959   9.500  0.3948  0.6543 -0.0680
16565SOL    HW254634   3.193   7.855   9.401  1.2178  0.5090  0.4739
16566SOL     OW54635   5.790   0.810   5.045  0.1662  0.2633  0.2834
16566SOL    HW154636   5.808   0.897   5.009  0.1559 -0.2065 -0.8761
16566SOL    HW254637   5.756   0.760   4.972 -0.7548 -0.4511  1.1776
16567SOL     OW54638   3.520  11.687   4.098 -0.2654  0.2181 -0.4284
16567SOL    HW154639   3.546  11.597   4.077  1.5944  0.2401  1.4269
16567SOL    HW254640   3.543  11.738   4.020  1.0612 -0.5423 -0.5654
16568SOL     OW54641   8.287   8.586   7.770 -0.6062 -0.1256  0.4629
16568SOL    HW154642   8.237   8.665   7.790  1.3941  0.6574  3.0052
16568SOL    HW254643   8.309   8.594   7.678 -0.6542  2.2138  0.5939
16569SOL     OW54644  10.634   2.553   2.039  0.3367  0.1555  0.3577
16569SOL    HW154645  10.636   2.623   1.974  1.4072 -0.3233 -0.1583
16569SOL    HW254646  10.584   2.483   1.997 -0.7073  0.5836  0.8615
16570SOL     OW54647   8.197   7.285   0.745 -1.2600 -0.0612 -0.4986
16570SOL    HW154648   8.217   7.194   0.766  0.7871  0.5894  0.7252
16570SOL    HW254649   8.276   7.317   0.701 -1.3864  1.4725  0.3273
16571SOL     OW54650   5.500   2.526  10.646  0.6224 -0.2168 -0.6277
16571SOL    HW154651   5.524   2.503  10.735 -2.2672 -0.5036  0.1825
16571SOL    HW254652   5.494   2.622  10.647  0.8554 -0.2014 -0.6045
16572SOL     OW54653   5.611   7.806   0.818 -0.1973 -0.3629 -0.1841
16572SOL    HW154654   5.590   7.715   0.838 -0.8845 -0.2396 -0.3088
16572SOL    HW254655   5.578   7.856   0.893 -0.0889 -0.1872 -0.2514
16573SOL     OW54656   4.312   8.251   0.443 -0.1154 -0.3391  0.9847
16573SOL    HW154657   4.357   8.260   0.527  1.1421 -1.5755  0.4792
16573SOL    HW254658   4.228   8.296   0.456  0.2622 -0.0637  2.7226
16574SOL     OW54659   0.608   6.012   8.211  0.1480  0.3344 -0.7548
16574SOL    HW154660   0.592   6.038   8.302 -0.3749 -1.6076 -0.2357
16574SOL    HW254661   0.702   5.994   8.208  0.5496  2.2925 -1.1667
16575SOL     OW54662   7.519   7.063  10.952 -0.0300 -0.2924  0.0520
16575SOL    HW154663   7.478   6.990  10.906 -1.8647  2.2059 -2.6899
16575SOL    HW254664   7.592   7.089  10.895 -1.3579  1.8747 -0.8059
16576SOL     OW54665   9.459   1.037   9.126 -0.2035 -0.1130 -0.0237
16576SOL    HW154666   9.496   1.113   9.171 -1.0539 -0.0560  0.6056
16576SOL    HW254667   9.422   0.983   9.196 -0.9338 -0.3704 -0.5892
16577SOL     OW54668   5.424   1.080   9.795 -0.6107  0.1125 -0.3347
16577SOL    HW154669   5.499   1.077   9.854 -0.0342  2.5916 -0.8049
16577SOL    HW254670   5.362   1.139   9.838 -1.4567 -0.3672 -0.8599
16578SOL     OW54671   2.754   8.010  11.409 -0.5470  0.2830  0.1020
16578SOL    HW154672   2.833   7.956  11.418 -0.6719 -0.0027 -0.4457
16578SOL    HW254673   2.768   8.058  11.327 -0.7881  0.4951  0.1856
16579SOL     OW54674   9.224   8.061   7.197  0.0744  0.4889  0.7313
16579SOL    HW154675   9.263   8.012   7.269  0.2421  1.7686  1.5307
16579SOL    HW254676   9.253   8.014   7.118 -1.0055 -1.5788  1.4960
16580SOL     OW54677   3.595   5.670   7.052 -0.0150 -0.1817  0.0288
16580SOL    HW154678   3.561   5.736   7.113  1.2497  0.7282 -0.2088
16580SOL    HW254679   3.554   5.589   7.080 -3.7547  1.0457 -1.3091
16581SOL     OW54680  11.286   6.146   3.193 -0.7417  0.1505  0.4697
16581SOL    HW154681  11.231   6.181   3.123 -0.1862  1.7947  0.8051
16581SOL    HW254682  11.281   6.212   3.263 -1.2791 -1.4443  1.9915
16582SOL     OW54683  11.415   8.481   0.685 -0.4861  0.1622 -0.7413
16582SOL    HW154684  11.414   8.469   0.590 -0.8081  0.7241 -0.8122
16582SOL    HW254685  11.504   8.510   0.705 -1.1526  2.8001 -1.2434
16583SOL     OW54686   3.758   3.431   6.348 -0.2995  0.6398  0.2374
16583SOL    HW154687   3.730   3.356   6.296  2.0810  0.1934 -0.5531
16583SOL    HW254688   3.729   3.411   6.437 -0.4846 -0.8071 -0.1209
16584SOL     OW54689   8.684   7.728  10.944 -0.3109  0.7180 -0.0937
16584SOL    HW154690   8.597   7.739  10.982 -0.6281  0.1216 -0.6270
16584SOL    HW254691   8.697   7.806  10.891 -0.2666  1.0921  0.4542
16585SOL     OW54692  10.966   0.919   0.818  0.1850  0.0085  0.2290
16585SOL    HW154693  10.965   0.923   0.723 -3.2451 -0.1109  0.1632
16585SOL    HW254694  10.982   1.009   0.845 -0.5235  0.3682 -0.5040
16586SOL     OW54695   2.579  10.146   4.404  0.4716  0.5070  0.4034
16586SOL    HW154696   2.651  10.082   4.400  0.4612  0.4442  1.1119
16586SOL    HW254697   2.500  10.092   4.410  0.2649  0.5544 -1.2902
16587SOL     OW54698   7.956   7.896   2.979 -1.0122 -0.0371  0.4409
16587SOL    HW154699   8.032   7.888   3.037  0.4935  0.0291 -1.4281
16587SOL    HW254700   7.968   7.980   2.935 -2.6065  0.3341  0.6669
16588SOL     OW54701   6.183  11.200  11.073 -0.5736  0.3389  0.3978
16588SOL    HW154702   6.098  11.242  11.084 -1.6899 -1.4778 -0.7168
16588SOL    HW254703   6.227  11.252  11.005 -1.6146  0.1604 -0.4385
16589SOL     OW54704   1.677   7.907   4.825  0.1396  0.3586 -0.0046
16589SOL    HW154705   1.589   7.874   4.841 -0.7024  0.7064 -3.1624
16589SOL    HW254706   1.676   7.997   4.858 -1.1423  0.7705 -1.0687
16590SOL     OW54707  10.297   5.324   1.982 -0.4577 -0.1729 -0.5024
16590SOL    HW154708  10.260   5.381   2.049 -0.5408  0.1799 -0.8424
16590SOL    HW254709  10.327   5.247   2.030  1.5949  1.0436  0.2867
16591SOL     OW54710   6.597   5.008   1.459  0.3170 -0.1181 -0.6537
16591SOL    HW154711   6.674   5.007   1.516  0.0950  0.1087 -0.3443
16591SOL    HW254712   6.533   4.954   1.506  0.6528 -1.2425 -1.4385
16592SOL     OW54713   8.245   7.712   1.256 -0.9130 -0.2850 -0.9259
16592SOL    HW154714   8.211   7.786   1.206  0.4486  0.6581 -0.5071
16592SOL    HW254715   8.298   7.663   1.193  1.2659  1.2138 -0.3622
16593SOL     OW54716  10.248   3.174   2.136 -0.2674  0.0004 -0.3660
16593SOL    HW154717  10.300   3.225   2.198  0.5226 -2.4538  1.1221
16593SOL    HW254718  10.157   3.193   2.160  0.0224 -0.1604  0.9112
16594SOL     OW54719   1.439   9.258   4.385  0.0744  0.0309  0.0543
16594SOL    HW154720   1.391   9.258   4.468  1.0264  1.4052  0.6385
16594SOL    HW254721   1.445   9.166   4.360 -0.1579 -0.4056  1.5617
16595SOL     OW54722  10.660  10.150   7.511 -0.4170  0.6379  0.1214
16595SOL    HW154723  10.697  10.186   7.591  2.0434  0.1266 -0.7051
16595SOL    HW254724  10.672  10.218   7.445  2.7562 -0.8762 -1.0525
16596SOL     OW54725   0.540   3.421   6.657 -0.3154  0.0487 -0.8327
16596SOL    HW154726   0.499   3.502   6.627  1.6248  0.5155 -2.3744
16596SOL    HW254727   0.562   3.374   6.577  0.5188 -1.0231 -0.0006
16597SOL     OW54728  10.557   3.790   6.456 -0.3547  0.6696  0.1861
16597SOL    HW154729  10.541   3.865   6.398 -2.0033 -0.0871 -0.4194
16597SOL    HW254730  10.473   3.744   6.458  0.7340 -1.4145  0.1893
16598SOL     OW54731   1.812   8.213  10.416 -0.0767  0.5386 -0.4207
16598SOL    HW154732   1.772   8.298  10.430 -1.9982 -0.4749  0.8082
16598SOL    HW254733   1.870   8.201  10.492  0.2661  0.7702 -0.6416
16599SOL     OW54734   1.486   2.146   9.049  0.5841  0.6724 -0.3225
16599SOL    HW154735   1.406   2.170   9.096  0.5348  0.6634 -0.4007
16599SOL    HW254736   1.475   2.053   9.029  0.2515  0.8555 -1.0357
16600SOL     OW54737   4.471   8.163   6.758  0.1526  0.3269 -0.1924
16600SOL    HW154738   4.489   8.083   6.807 -1.7231 -0.6002 -0.9291
16600SOL    HW254739   4.497   8.142   6.668 -0.1532  0.6203 -0.3505
16601SOL     OW54740   1.484  11.430   0.655 -0.1006  0.1026 -0.3705
16601SOL    HW154741   1.434  11.348   0.650  1.0307 -0.7127  0.9404
16601SOL    HW254742   1.425  11.492   0.697  0.0646 -0.9540  1.5328
16602SOL     OW54743   0.794   9.372   2.773  0.1924 -0.4852 -0.2306
16602SOL    HW154744   0.758   9.321   2.700 -1.6953  1.7457 -1.0153
16602SOL    HW254745   0.877   9.407   2.739  0.5018 -1.3615 -0.4020
16603SOL     OW54746   7.107   9.992   3.568 -0.7764 -0.3425  0.9357
16603SOL    HW154747   7.026  10.039   3.589 -1.0342  0.5041 -1.6561
16603SOL    HW254748   7.093   9.957   3.480  1.2767 -1.1464  0.8739
16604SOL     OW54749   4.246  11.543   1.038 -0.6648  0.0589  0.7162
16604SOL    HW154750   4.177  11.494   0.992  0.1268 -1.1055  0.7186
16604SOL    HW254751   4.238  11.515   1.129  0.0152 -0.3360  0.6592
16605SOL     OW54752   0.144   9.969   0.464  0.0033  0.0711 -0.1850
16605SOL    HW154753   0.163  10.023   0.387 -0.8230  0.6273 -0.0076
16605SOL    HW254754   0.177   9.882   0.441 -0.3558  0.1995 -1.2288
16606SOL     OW54755  10.833   2.866   0.060 -0.2540  0.0099  0.7123
16606SOL    HW154756  10.889   2.934   0.024 -0.6610 -0.0825 -0.1360
16606SOL    HW254757  10.880   2.832   0.136 -0.6035  2.0806  1.9328
16607SOL     OW54758  10.587   7.040  11.417 -0.3534 -0.9763  0.4843
16607SOL    HW154759  10.681   7.024  11.419 -0.1463  0.1487  0.4404
16607SOL    HW254760  10.577   7.117  11.360 -1.4808 -2.2012 -1.0343
16608SOL     OW54761   7.022   5.956   9.578 -0.0700 -0.2843  0.2160
16608SOL    HW154762   7.071   5.906   9.513 -0.2722 -0.0171 -0.1433
16608SOL    HW254763   7.063   5.934   9.662  1.8575  1.3227 -0.2454
16609SOL     OW54764   1.730   3.393   8.283 -0.2644  0.0922 -0.4083
16609SOL    HW154765   1.783   3.329   8.236  0.8302  2.2668 -2.3295
16609SOL    HW254766   1.794   3.446   8.332 -0.9723  0.7188 -0.1459
16610SOL     OW54767   9.569   8.561  10.808  0.0059  0.6991  0.2670
16610SOL    HW154768   9.490   8.588  10.761  0.2728 -1.8557 -1.9252
16610SOL    HW254769   9.635   8.551  10.740  1.5553  0.4856  1.7359
16611SOL     OW54770   9.475  10.142  10.309  0.2573 -0.7153  0.0281
16611SOL    HW154771   9.495  10.050  10.328  0.4788 -0.1090  3.1993
16611SOL    HW254772   9.394  10.160  10.357  0.5657  0.9159  0.0018
16612SOL     OW54773   2.609   0.415   5.013  0.1704 -0.0404 -0.3632
16612SOL    HW154774   2.686   0.457   5.053  0.3918 -1.0528  0.3149
16612SOL    HW254775   2.643   0.371   4.936 -0.0192  0.7853 -0.9348
16613SOL     OW54776   7.740   8.958   2.534 -0.1613 -0.2330  0.1349
16613SOL    HW154777   7.814   9.018   2.519 -0.7414  0.0794 -1.6815
16613SOL    HW254778   7.774   8.873   2.508  0.0914 -0.4148  1.0086
16614SOL     OW54779  10.922   4.838   8.360 -0.1870 -0.3018  0.0777
16614SOL    HW154780  10.985   4.871   8.297 -0.1493 -0.1414  0.2001
16614SOL    HW254781  10.854   4.905   8.365  0.0293 -0.1106  0.5339
16615SOL     OW54782   2.988   3.133   1.794 -0.6888 -0.1936 -0.2641
16615SOL    HW154783   3.039   3.169   1.722 -1.2456  1.6314  0.1838
16615SOL    HW254784   2.902   3.113   1.756  0.0907 -2.6972 -0.8803
16616SOL     OW54785   0.377   6.257  11.137  0.0935  0.1984 -0.4515
16616SOL    HW154786   0.316   6.282  11.205  1.2451  0.9732  0.3329
16616SOL    HW254787   0.413   6.173  11.167  0.4028  0.4086 -0.2223
16617SOL     OW54788  10.772   6.793   8.709 -0.5055 -0.3785  0.2534
16617SOL    HW154789  10.735   6.713   8.672  0.0349 -1.6554  2.3135
16617SOL    HW254790  10.763   6.782   8.803 -0.7421  2.1894  0.6055
16618SOL     OW54791   6.065   5.781   1.886 -0.1050 -0.1205  0.0949
16618SOL    HW154792   6.087   5.769   1.978 -0.9366 -0.6490  0.2365
16618SOL    HW254793   6.148   5.770   1.840 -0.0429 -2.1366  0.6021
16619SOL     OW54794   4.268   0.559   2.842 -0.2817 -0.2909 -0.6219
16619SOL    HW154795   4.344   0.564   2.784 -0.0508  0.1993 -0.2829
16619SOL    HW254796   4.293   0.498   2.911  0.2072  0.6578  0.0623
16620SOL     OW54797   1.757  10.981   3.072  0.4725  0.3839  0.2092
16620SOL    HW154798   1.718  10.934   3.146  0.9857 -0.2295  0.0990
16620SOL    HW254799   1.824  11.036   3.111  1.2471 -0.4856  0.1399
16621SOL     OW54800   5.860  10.153   2.283  0.4353  0.0613  0.0643
16621SOL    HW154801   5.777  10.186   2.250 -0.1124 -0.1870  1.1410
16621SOL    HW254802   5.926  10.205   2.238 -0.3711  2.0848  1.0712
16622SOL     OW54803   3.849   2.777   9.864  0.1201  0.8631 -0.6994
16622SOL    HW154804   3.861   2.775   9.769  2.0446  0.2075 -0.5046
16622SOL    HW254805   3.873   2.688   9.893 -0.6835  0.9731  0.3753
16623SOL     OW54806   2.923   5.416   2.932 -0.3094 -0.1094  0.3758
16623SOL    HW154807   2.975   5.378   2.861  1.4733  0.5283  1.2954
16623SOL    HW254808   2.937   5.511   2.924  0.3518 -0.0529  1.8803
16624SOL     OW54809   8.512   7.798   9.525 -0.0748  0.1997  0.5722
16624SOL    HW154810   8.502   7.796   9.430 -0.6667 -0.4534  0.6417
16624SOL    HW254811   8.552   7.883   9.543 -0.2049  0.4399 -0.2325
16625SOL     OW54812   6.727   4.218  11.572 -0.2095 -0.0634  0.2422
16625SOL    HW154813   6.697   4.250  11.658 -0.2720 -1.6840  0.8751
16625SOL    HW254814   6.657   4.159  11.544  0.4824 -0.6641 -0.2410
16626SOL     OW54815   6.188   3.307   8.351 -0.4941 -0.2484  0.3130
16626SOL    HW154816   6.165   3.388   8.305  0.9853  1.3850  2.2883
16626SOL    HW254817   6.113   3.289   8.408 -0.0600  0.8666  1.2753
16627SOL     OW54818  10.177   0.018   1.589 -0.0626 -0.3354  0.1416
16627SOL    HW154819  10.230  -0.005   1.512  0.4196 -0.3144  0.4680
16627SOL    HW254820  10.107   0.074   1.554  0.2876 -0.1373 -0.2490
16628SOL     OW54821   6.166   9.880   9.496 -0.5144  0.1513 -0.1078
16628SOL    HW154822   6.090   9.917   9.540  0.5516  2.1378  0.1832
16628SOL    HW254823   6.223   9.851   9.568 -0.2839  0.2076 -0.2676
16629SOL     OW54824   2.403   7.632   4.244  0.1095 -0.0360  0.2451
16629SOL    HW154825   2.423   7.634   4.337 -0.0919  0.3725  0.2805
16629SOL    HW254826   2.488   7.615   4.202 -0.1591 -2.7890  0.6133
16630SOL     OW54827   0.079   9.375   1.409 -0.5703  0.3041 -0.3385
16630SOL    HW154828   0.048   9.376   1.500  0.7648 -0.3804  0.1670
16630SOL    HW254829   0.069   9.284   1.382 -1.8209  0.6876 -1.2132
16631SOL     OW54830   0.381   5.596   6.773 -0.4527  0.3556  0.1526
16631SOL    HW154831   0.361   5.524   6.834  0.5993 -0.7956 -0.7982
16631SOL    HW254832   0.426   5.553   6.700  0.1268  1.9866 -0.4849
16632SOL     OW54833   8.848  11.022   3.677 -0.9050  0.2922  0.0607
16632SOL    HW154834   8.904  11.012   3.754 -1.0530 -1.8783 -0.0551
16632SOL    HW254835   8.813  11.110   3.685  0.0846  0.5848  1.7922
16633SOL     OW54836   8.365   6.243   3.101 -0.8466 -0.4891 -0.2251
16633SOL    HW154837   8.418   6.323   3.104 -1.2822 -0.2004 -0.1338
16633SOL    HW254838   8.301   6.259   3.032  0.2809 -1.5416 -1.5990
16634SOL     OW54839   1.026   6.968   5.886 -0.4425 -0.1172 -0.7351
16634SOL    HW154840   1.001   7.046   5.936  0.3537 -1.8571  2.6468
16634SOL    HW254841   1.115   6.987   5.856  0.2709 -0.1614  1.2211
16635SOL     OW54842  11.177   7.884   9.435 -0.5976 -0.0039  0.2976
16635SOL    HW154843  11.234   7.816   9.399  0.3429  1.5512 -1.2942
16635SOL    HW254844  11.096   7.876   9.384 -0.8009 -0.4531  0.6848
16636SOL     OW54845   2.619   0.209   0.778  0.0927  0.2128  0.0785
16636SOL    HW154846   2.661   0.129   0.747 -0.0657  0.2473 -0.2292
16636SOL    HW254847   2.625   0.269   0.704  1.9088  1.1411  0.9234
16637SOL     OW54848   5.852   1.040   2.481  0.1389  0.1554  0.3010
16637SOL    HW154849   5.803   1.003   2.407 -1.6691  0.6862  1.1805
16637SOL    HW254850   5.858   0.969   2.544  1.4559 -0.2187 -0.2154
16638SOL     OW54851   6.620   7.963   4.780 -0.1010 -0.3484 -0.4290
16638SOL    HW154852   6.589   7.880   4.817  0.2996  0.2975  1.4550
16638SOL    HW254853   6.540   8.014   4.767 -0.1461  0.0703  1.2743
16639SOL     OW54854  11.585   9.664   0.599 -0.3113  0.3100 -0.0102
16639SOL    HW154855  11.633   9.629   0.525 -0.0733  1.3994 -0.3896
16639SOL    HW254856  11.624   9.622   0.676  1.3916  1.2976 -0.2887
16640SOL     OW54857   3.765  11.213   2.131 -0.0075 -0.4175 -0.5676
16640SOL    HW154858   3.812  11.268   2.194 -1.7950  1.2298 -0.5934
16640SOL    HW254859   3.795  11.243   2.045  1.0223 -1.3796 -0.5688
16641SOL     OW54860   5.932   4.667   8.434  0.5252  0.1164  0.0502
16641SOL    HW154861   5.892   4.754   8.427  1.6651  0.5424 -1.8971
16641SOL    HW254862   5.860   4.606   8.417 -0.2484  0.6609  1.2752
16642SOL     OW54863   4.739  10.221   8.185 -0.2654  0.1307 -0.2225
16642SOL    HW154864   4.668  10.157   8.180 -1.1277  0.9847  0.7243
16642SOL    HW254865   4.795  10.189   8.255  0.4723 -0.6934 -1.1543
16643SOL     OW54866   4.855   6.328   6.759  0.0344  0.1682 -0.1176
16643SOL    HW154867   4.788   6.395   6.749 -0.6040 -0.2761  1.0051
16643SOL    HW254868   4.844   6.296   6.849  3.1738  1.6068  0.9160
16644SOL     OW54869   5.671   5.953   8.149  0.4067 -0.0350  0.0081
16644SOL    HW154870   5.759   5.952   8.186 -0.5271  1.0639  2.4261
16644SOL    HW254871   5.666   6.038   8.103  0.8850 -0.5231 -0.9898
16645SOL     OW54872  10.744   1.206   3.854 -0.2690 -0.3498 -0.1839
16645SOL    HW154873  10.702   1.276   3.804 -2.1116 -1.6490 -0.5555
16645SOL    HW254874  10.775   1.144   3.788 -0.2290 -0.7297  0.1853
16646SOL     OW54875   0.872   9.833   1.792 -0.6774 -0.1656 -0.1191
16646SOL    HW154876   0.886   9.909   1.735 -2.1930 -0.5027 -1.0218
16646SOL    HW254877   0.915   9.761   1.747  0.5693  0.0955  0.6253
16647SOL     OW54878  10.775   3.676   6.554  0.8962 -0.1442 -0.0600
16647SOL    HW154879  10.791   3.609   6.487  2.4901 -1.7341  1.7595
16647SOL    HW254880  10.715   3.738   6.513  2.1381 -0.7881 -3.0717
16648SOL     OW54881   4.328   7.744  10.242  0.0940  0.5017  0.2733
16648SOL    HW154882   4.420   7.732  10.268  0.5868  1.6771 -0.7865
16648SOL    HW254883   4.289   7.794  10.313 -0.5108 -2.2811  2.0484
16649SOL     OW54884   8.710   6.213   7.721 -0.5211  0.5918 -0.3218
16649SOL    HW154885   8.731   6.172   7.805 -1.3335 -0.0501 -0.4137
16649SOL    HW254886   8.771   6.174   7.658 -2.9267 -2.5799 -0.9329
16650SOL     OW54887   3.212   4.427   4.581 -0.4055  0.5262 -0.5349
16650SOL    HW154888   3.158   4.489   4.531  0.4018 -1.3184 -3.9164
16650SOL    HW254889   3.300   4.464   4.576 -0.3679  0.4853 -0.1699
16651SOL     OW54890   6.162   7.347  11.224  0.6355  0.4253  0.3081
16651SOL    HW154891   6.156   7.253  11.236  3.3644  0.3899  2.0633
16651SOL    HW254892   6.115   7.384  11.299  3.1973  0.3447  2.0488
16652SOL     OW54893   7.456   7.975   9.005 -0.4720  0.6053  0.5689
16652SOL    HW154894   7.377   7.921   8.997 -1.5053  2.1846 -0.2310
16652SOL    HW254895   7.482   7.964   9.097 -0.8862 -0.9009  0.5406
16653SOL     OW54896   2.141  10.673   7.512  0.6053  0.0302 -0.2030
16653SOL    HW154897   2.106  10.595   7.553  0.3964 -0.1849 -0.7801
16653SOL    HW254898   2.209  10.704   7.572 -1.1592  0.9605  1.3760
16654SOL     OW54899   1.454   4.290   9.140 -0.0123 -0.1544  0.4785
16654SOL    HW154900   1.419   4.280   9.229  1.5328  1.2340  1.2811
16654SOL    HW254901   1.543   4.256   9.145 -0.2172 -0.9626 -0.8142
16655SOL     OW54902   9.788  10.539   4.461  0.1195  0.2490  0.2795
16655SOL    HW154903   9.772  10.620   4.508  0.1113  0.7056 -0.4979
16655SOL    HW254904   9.806  10.566   4.371  0.2078 -0.6002  0.0311
16656SOL     OW54905  11.503   9.411   2.206 -0.0045 -0.4385 -0.3161
16656SOL    HW154906  11.465   9.468   2.272  1.6106  0.9459 -0.5005
16656SOL    HW254907  11.531   9.333   2.254  0.8946  0.4295  0.6146
16657SOL     OW54908   8.817   0.441   7.407 -0.1033  0.1801 -0.5713
16657SOL    HW154909   8.856   0.442   7.494  2.2786 -0.8400 -1.5596
16657SOL    HW254910   8.754   0.514   7.408  1.6961  1.8389  1.1952
16658SOL     OW54911   0.174   4.491   5.778  0.0835  0.3405  0.6820
16658SOL    HW154912   0.181   4.560   5.844 -1.8020 -0.5665  1.9101
16658SOL    HW254913   0.163   4.410   5.829  2.3848 -0.9588 -0.7115
16659SOL     OW54914   6.288   7.659   8.149  0.2457  0.2028 -0.1404
16659SOL    HW154915   6.194   7.667   8.163  0.3652  1.5729  0.0940
16659SOL    HW254916   6.310   7.732   8.091  1.2770  0.3837  0.4477
16660SOL     OW54917   3.634   2.129   4.918 -0.1569  0.0570 -0.7358
16660SOL    HW154918   3.647   2.056   4.979  0.3068 -0.2410 -1.1876
16660SOL    HW254919   3.612   2.203   4.974 -2.2120 -0.7722 -0.3574
16661SOL     OW54920   1.415   1.978   6.812  0.0443  0.3049  0.1813
16661SOL    HW154921   1.412   1.964   6.717 -0.0188 -0.8301  0.3422
16661SOL    HW254922   1.332   1.941   6.844  1.1052 -1.5407  0.9364
16662SOL     OW54923   0.779   2.325   7.545 -0.3130  0.0641 -0.1105
16662SOL    HW154924   0.709   2.373   7.500  0.1571  0.6000 -0.2727
16662SOL    HW254925   0.824   2.391   7.598 -1.0742 -0.6070  1.4596
16663SOL     OW54926   0.738   4.724   8.875  0.0484  0.5053  0.0071
16663SOL    HW154927   0.750   4.813   8.842 -0.4437  1.1298  1.4366
16663SOL    HW254928   0.753   4.731   8.970  1.8743 -1.2951 -0.0591
16664SOL     OW54929  10.907   8.472   3.258 -0.1871 -0.1774 -0.0640
16664SOL    HW154930  10.983   8.423   3.288 -0.3735 -1.6027 -1.7530
16664SOL    HW254931  10.858   8.493   3.338  0.5847 -1.6140  0.8186
16665SOL     OW54932   9.335  10.953  11.323  0.4211 -0.2589 -0.4349
16665SOL    HW154933   9.414  10.914  11.286 -0.9902 -1.9282 -1.8858
16665SOL    HW254934   9.265  10.894  11.297 -1.2518  0.8415  1.3127
16666SOL     OW54935   2.223   8.035   0.217  0.5205 -0.3113  0.8026
16666SOL    HW154936   2.244   7.999   0.131  1.3855 -0.5350  1.0939
16666SOL    HW254937   2.174   7.966   0.261  0.4782 -0.3748  0.6554
16667SOL     OW54938  11.681  11.118   7.706  0.2773  0.7091 -0.5100
16667SOL    HW154939  11.604  11.167   7.676  0.1647  0.2540 -0.9671
16667SOL    HW254940  11.734  11.183   7.753  0.5382  1.4737 -1.8179
16668SOL     OW54941   2.820  11.152   8.075 -0.0621 -0.1050 -0.8221
16668SOL    HW154942   2.791  11.227   8.024 -0.7626 -0.2998 -0.7263
16668SOL    HW254943   2.822  11.080   8.011 -1.7065 -0.5263 -0.4400
16669SOL     OW54944   2.750   5.826   7.259 -0.8667  0.1598  0.4295
16669SOL    HW154945   2.706   5.781   7.331  0.7568 -1.1835  0.6315
16669SOL    HW254946   2.844   5.818   7.279 -0.3942  0.1601 -1.5860
16670SOL     OW54947   6.092   8.959   0.866  0.4299 -0.3159 -0.0409
16670SOL    HW154948   6.059   9.024   0.927 -0.3126  0.8212 -1.5973
16670SOL    HW254949   6.026   8.889   0.867  0.0469  0.0434 -0.1044
16671SOL     OW54950   5.376  10.803   1.487 -0.4333  0.0001 -0.2006
16671SOL    HW154951   5.368  10.866   1.416  0.2540 -3.4666 -3.7032
16671SOL    HW254952   5.285  10.782   1.511 -0.6875  0.8017 -0.4530
16672SOL     OW54953   5.132   2.806   4.455  0.1462  0.2626 -0.1919
16672SOL    HW154954   5.115   2.776   4.544  0.1710 -1.3501 -0.6979
16672SOL    HW254955   5.215   2.855   4.462 -1.2607  2.6551  1.1254
16673SOL     OW54956   7.580   3.387   2.729  0.4317 -0.0219 -0.0782
16673SOL    HW154957   7.525   3.381   2.807 -0.3068 -2.2168 -0.7106
16673SOL    HW254958   7.519   3.409   2.659  1.0388  1.5963 -0.1474
16674SOL     OW54959   3.564   6.872   3.340 -0.4358 -0.1991 -0.1396
16674SOL    HW154960   3.565   6.929   3.264 -0.1346 -0.3433 -0.2423
16674SOL    HW254961   3.590   6.786   3.307 -4.6315 -1.4293 -0.8239
16675SOL     OW54962   0.253  10.244   7.938  0.4802 -0.4792  0.6862
16675SOL    HW154963   0.291  10.157   7.949 -0.1206 -1.1993 -2.1479
16675SOL    HW254964   0.328  10.304   7.942  1.0131 -1.1921  1.6964
16676SOL     OW54965   0.582   3.297   8.998  0.2534  0.5620  0.3059
16676SOL    HW154966   0.535   3.306   8.916  0.0071  0.0762  0.3922
16676SOL    HW254967   0.623   3.211   8.993  0.8820  0.8530  0.3603
16677SOL     OW54968   6.243   4.455   8.940  0.2963 -0.0143 -0.2769
16677SOL    HW154969   6.238   4.544   8.906  2.4286 -0.8841 -3.2737
16677SOL    HW254970   6.196   4.402   8.876  3.6683 -1.6384 -1.6357
16678SOL     OW54971   7.127   9.640   7.022  0.1185  0.2125 -0.5887
16678SOL    HW154972   7.045   9.641   7.071  0.6542 -0.2059  0.3503
16678SOL    HW254973   7.135   9.550   6.990  0.3104  0.1977 -0.5034
16679SOL     OW54974  10.812   0.434  11.527  0.1742  0.2263  0.3040
16679SOL    HW154975  10.721   0.408  11.544 -0.4741  0.7219 -2.0275
16679SOL    HW254976  10.812   0.529  11.532  0.0804  0.3625 -1.5382
16680SOL     OW54977   6.880   7.655   8.786 -0.1303 -0.4732  0.1773
16680SOL    HW154978   6.810   7.656   8.720 -0.5157  0.2487  0.5950
16680SOL    HW254979   6.913   7.565   8.782 -0.3736 -0.5425 -0.7610
16681SOL     OW54980   8.625   8.799   9.872  0.1414 -0.3894  0.1276
16681SOL    HW154981   8.701   8.854   9.888  1.7356 -2.4635  0.1411
16681SOL    HW254982   8.584   8.788   9.957  0.7724 -0.5516  0.4143
16682SOL     OW54983   9.667   8.879  11.272 -0.1218 -0.3811  0.4919
16682SOL    HW154984   9.686   8.845  11.185  1.1154 -1.3303  1.1026
16682SOL    HW254985   9.636   8.969  11.257  2.5766  0.4347 -0.7969
16683SOL     OW54986   8.707   6.784   9.875 -0.7962  0.5216 -0.0970
16683SOL    HW154987   8.800   6.783   9.896 -0.6829 -1.1214 -0.4772
16683SOL    HW254988   8.663   6.766   9.958 -0.5645 -1.7757 -0.3844
16684SOL     OW54989   5.995   4.382  10.195  0.3799  0.0647  0.4852
16684SOL    HW154990   6.053   4.434  10.139 -0.3107  2.2893  1.6919
16684SOL    HW254991   5.910   4.385  10.152  0.4356 -0.4336  0.3419
16685SOL     OW54992   6.475   4.487   0.828 -0.8533  0.6207  0.1129
16685SOL    HW154993   6.491   4.581   0.820 -0.9325  0.5594 -0.9180
16685SOL    HW254994   6.558   4.447   0.803 -1.2829  0.3900 -0.9699
16686SOL     OW54995   5.559  10.793  10.595 -0.2239  0.0104 -0.2946
16686SOL    HW154996   5.522  10.734  10.661 -0.1509 -0.8100 -0.9625
16686SOL    HW254997   5.598  10.734  10.530  0.5557  0.8175 -0.5849
16687SOL     OW54998   8.034   3.041   1.408  0.1808 -0.0980  0.5678
16687SOL    HW154999   8.051   3.127   1.445  0.8435  0.0848 -0.1391
16687SOL    HW255000   8.108   2.987   1.436 -0.8756 -0.8175  2.1090
16688SOL     OW55001   0.460   7.405   4.181  0.0842  0.0864  0.1630
16688SOL    HW155002   0.436   7.389   4.089  2.0234 -0.5061 -0.2917
16688SOL    HW255003   0.417   7.335   4.229  1.0457 -1.1213 -0.6575
16689SOL     OW55004   1.545   6.711   2.238 -0.3132  0.1860  0.2998
16689SOL    HW155005   1.579   6.771   2.172  0.6338 -1.2151 -0.5394
16689SOL    HW255006   1.516   6.634   2.189  0.7319 -1.0328  1.4944
16690SOL     OW55007   1.388   4.937   3.836 -0.0920 -0.2088  0.7487
16690SOL    HW155008   1.366   4.846   3.814  0.8331 -0.2944  0.1120
16690SOL    HW255009   1.423   4.932   3.925 -1.1323 -0.2937  1.1641
16691SOL     OW55010  10.889  11.368   2.609  0.5802  0.2826 -0.0201
16691SOL    HW155011  10.920  11.428   2.540 -1.6893  0.9582 -0.5373
16691SOL    HW255012  10.950  11.383   2.681  1.8427  1.0292 -1.1719
16692SOL     OW55013   4.116   0.412   1.770 -0.2283  0.8560  0.0519
16692SOL    HW155014   4.036   0.370   1.737  0.3722  1.4704 -2.3502
16692SOL    HW255015   4.117   0.498   1.729  0.6528  1.6749  1.6902
16693SOL     OW55016   0.430   9.833   7.580 -0.2610  0.1637 -0.4837
16693SOL    HW155017   0.385   9.892   7.519 -0.6260 -0.5923 -0.9667
16693SOL    HW255018   0.424   9.877   7.664  0.5160  1.3718 -1.0389
16694SOL     OW55019   5.366  11.609   9.273 -0.0995 -0.1562  0.4566
16694SOL    HW155020   5.323  11.683   9.232  0.4238  1.1110  2.0998
16694SOL    HW255021   5.304  11.536   9.262 -1.9656  1.2076  1.3401
16695SOL     OW55022   1.962   5.960   2.128 -0.6613  0.0837 -0.4847
16695SOL    HW155023   1.976   6.052   2.149  1.0037 -0.7524  2.6902
16695SOL    HW255024   1.887   5.960   2.068 -2.4407  3.3407  1.4457
16696SOL     OW55025   2.079   4.550   4.388 -0.5853 -0.0431  0.2184
16696SOL    HW155026   2.022   4.560   4.465  0.3116 -0.9177  1.0357
16696SOL    HW255027   2.133   4.629   4.388 -2.1671  1.0850 -0.9187
16697SOL     OW55028   0.892   7.872   2.733  0.0135 -0.0301 -0.8960
16697SOL    HW155029   0.848   7.953   2.707 -1.8245 -0.7351 -0.1217
16697SOL    HW255030   0.844   7.803   2.688 -0.8946 -0.9670  1.3514
16698SOL     OW55031   9.403   1.724   0.852  0.3321  0.0081 -0.4487
16698SOL    HW155032   9.436   1.659   0.913 -0.4486  0.2469  0.2532
16698SOL    HW255033   9.480   1.756   0.806  1.0424  0.3435  0.9247
16699SOL     OW55034   5.733   5.576   7.593  0.1823 -0.0243  0.5897
16699SOL    HW155035   5.728   5.672   7.596  0.2838 -0.0334  1.2435
16699SOL    HW255036   5.801   5.554   7.657 -1.8064 -0.6791  2.5706
16700SOL     OW55037  10.613   3.277   2.645 -0.6586  0.6105 -0.2786
16700SOL    HW155038  10.593   3.206   2.584 -0.0268  1.4337 -1.4838
16700SOL    HW255039  10.613   3.356   2.591  1.6853  1.1690  0.4191
16701SOL     OW55040   0.155   4.853   7.890  0.1396 -0.3125  0.8033
16701SOL    HW155041   0.216   4.866   7.818  0.5681 -1.8112  0.8654
16701SOL    HW255042   0.188   4.776   7.937 -2.4737 -2.0071  0.0979
16702SOL     OW55043   7.742   3.095   5.572  0.1490 -0.5448  0.2837
16702SOL    HW155044   7.785   3.122   5.653  1.4508  0.7941 -0.7892
16702SOL    HW255045   7.805   3.117   5.503 -1.9324  0.7478 -1.3121
16703SOL     OW55046   0.849   6.308   8.225  0.0538  0.5351 -0.0881
16703SOL    HW155047   0.923   6.262   8.263  0.5588  1.7514  0.4528
16703SOL    HW255048   0.886   6.388   8.187 -0.8491  0.7347 -0.6081
16704SOL     OW55049   8.202   5.982   3.835 -0.0526 -0.1266 -0.0926
16704SOL    HW155050   8.121   5.957   3.791 -0.4813  0.3712  0.3881
16704SOL    HW255051   8.179   6.063   3.882  1.2651  1.1928 -1.6208
16705SOL     OW55052   0.798   1.108   7.902 -0.5013  0.1180 -0.8513
16705SOL    HW155053   0.786   1.180   7.839  0.8252  0.9134 -0.2489
16705SOL    HW255054   0.893   1.092   7.902 -0.4614  0.1360  0.9085
16706SOL     OW55055   2.453   9.225   3.268 -0.2613  0.3285 -0.0170
16706SOL    HW155056   2.547   9.231   3.251 -0.0569 -0.4436  0.7534
16706SOL    HW255057   2.446   9.234   3.363 -1.1715  2.5770 -0.2366
16707SOL     OW55058   1.840  10.403  11.052 -0.3090 -0.2201 -0.3443
16707SOL    HW155059   1.875  10.360  11.130 -1.5753 -0.2655  0.2131
16707SOL    HW255060   1.779  10.469  11.085 -0.6268 -0.0185 -1.2848
16708SOL     OW55061  11.106  10.738   9.829  0.0274 -0.5183  0.1910
16708SOL    HW155062  11.098  10.833   9.826 -0.3034 -0.4523  1.8871
16708SOL    HW255063  11.016  10.706   9.819  0.3179 -0.7678 -2.0957
16709SOL     OW55064   0.978   3.998   1.160 -0.1386 -0.1922 -0.4206
16709SOL    HW155065   0.889   3.965   1.167 -0.2766  0.4751  1.5205
16709SOL    HW255066   1.033   3.920   1.168 -0.5240 -0.6206 -1.7628
16710SOL     OW55067   1.341   8.493   9.803  0.2539  0.4508  0.5954
16710SOL    HW155068   1.401   8.535   9.741 -0.6315  1.5941  0.4821
16710SOL    HW255069   1.299   8.424   9.752  0.4864  0.5267  0.2911
16711SOL     OW55070   9.237   5.769   5.441  0.0548 -0.1379 -0.2953
16711SOL    HW155071   9.163   5.826   5.459  0.8544  1.0514 -0.6757
16711SOL    HW255072   9.304   5.827   5.405  0.7623 -1.3773 -1.0462
16712SOL     OW55073   6.714   5.087   0.756 -0.4064 -0.8160 -0.1794
16712SOL    HW155074   6.730   5.133   0.673 -1.1873  2.0524  1.1538
16712SOL    HW255075   6.765   5.006   0.748 -0.1609 -0.5021 -3.2810
16713SOL     OW55076  11.119   7.101   8.551  0.2426  0.0019  0.6061
16713SOL    HW155077  11.070   7.020   8.568 -1.2334 -0.0375 -3.0411
16713SOL    HW255078  11.205   7.071   8.520  0.1145 -0.1039  0.3599
16714SOL     OW55079   7.376   2.358   6.491  0.2804  0.6143 -0.0318
16714SOL    HW155080   7.444   2.342   6.556  1.7566  0.8904 -1.4398
16714SOL    HW255081   7.378   2.280   6.435 -2.1997 -0.4539  1.1950
16715SOL     OW55082   6.160   4.266   6.320  0.1133 -0.1088 -0.0920
16715SOL    HW155083   6.076   4.305   6.297 -0.1552 -1.3066 -1.3393
16715SOL    HW255084   6.188   4.222   6.239  1.9990  0.3644  0.2638
16716SOL     OW55085   7.830   7.866   3.793  0.3148 -0.3724  0.1394
16716SOL    HW155086   7.881   7.915   3.728 -1.8360 -0.0183 -1.4021
16716SOL    HW255087   7.858   7.775   3.782 -1.7277 -0.7668 -3.2193
16717SOL     OW55088   3.797   3.945   1.748  0.4173  0.0220 -0.1837
16717SOL    HW155089   3.829   4.025   1.788 -0.3452  1.5737 -2.4251
16717SOL    HW255090   3.805   3.961   1.653 -0.0363 -2.4337 -0.7011
16718SOL     OW55091   7.262   7.571   2.092 -0.3999  0.5031 -0.7662
16718SOL    HW155092   7.264   7.518   2.012 -0.1033  1.2911 -1.2943
16718SOL    HW255093   7.170   7.596   2.101 -0.6409 -0.5529 -0.2008
16719SOL     OW55094  10.621   8.221   8.034  0.1356  0.3176 -0.4628
16719SOL    HW155095  10.600   8.159   7.965  1.7699 -1.3372  0.4443
16719SOL    HW255096  10.709   8.252   8.012  0.3343  0.3959  0.4176
16720SOL     OW55097   7.864  10.854   9.084  0.5119  0.3273 -0.2257
16720SOL    HW155098   7.873  10.929   9.141 -2.5256 -0.9532  2.1895
16720SOL    HW255099   7.933  10.793   9.112  0.6639  0.7437  0.2982
16721SOL     OW55100   5.043  10.987   4.953  0.3131 -0.0151 -0.6254
16721SOL    HW155101   5.091  10.967   5.033  0.3184  0.3914 -0.5239
16721SOL    HW255102   5.102  10.961   4.882  0.1048 -0.8524 -0.5062
16722SOL     OW55103   9.686  10.761   4.562  0.0281 -0.4389 -0.2816
16722SOL    HW155104   9.627  10.778   4.635  1.0032  0.3962  0.3325
16722SOL    HW255105   9.773  10.779   4.596  0.5577 -0.6284 -1.4747
16723SOL     OW55106  11.020   5.128   3.187  0.1822  0.3266 -0.2906
16723SOL    HW155107  11.113   5.146   3.177 -0.0418  1.5465 -0.2729
16723SOL    HW255108  11.002   5.144   3.279  0.1148 -0.7377 -0.1065
16724SOL     OW55109   8.063   6.739   6.303  0.2958  0.1160  0.1772
16724SOL    HW155110   8.077   6.790   6.383  0.6762  1.9349 -1.0019
16724SOL    HW255111   7.980   6.770   6.268 -0.3699 -1.3937  0.3652
16725SOL     OW55112   3.566  10.707   6.411  0.2263  0.5107 -0.8675
16725SOL    HW155113   3.507  10.635   6.389  1.3143 -0.3798 -1.0053
16725SOL    HW255114   3.534  10.781   6.360 -1.2091  0.2787 -0.3582
16726SOL     OW55115   0.639  10.454   6.360 -0.0797 -0.3617 -0.3145
16726SOL    HW155116   0.617  10.481   6.271  1.7982 -0.7425 -0.9460
16726SOL    HW255117   0.694  10.524   6.394  0.3752 -0.8613  0.0094
16727SOL     OW55118   3.623   9.631   7.803 -0.2597 -0.4068 -0.2484
16727SOL    HW155119   3.602   9.708   7.857  0.0851 -1.7343  1.8755
16727SOL    HW255120   3.697   9.590   7.847  0.0061 -1.5978 -1.7334
16728SOL     OW55121   7.003   5.166   5.311 -0.6122 -0.2146  0.2403
16728SOL    HW155122   6.942   5.228   5.271  1.6082  0.8054 -1.8006
16728SOL    HW255123   7.015   5.098   5.244  1.1082  0.0740  0.2136
16729SOL     OW55124   5.672   6.138   1.228 -0.1117 -0.1373  0.3722
16729SOL    HW155125   5.740   6.096   1.176  0.2723  0.4850  0.3642
16729SOL    HW255126   5.595   6.082   1.217 -0.2014  0.2392 -1.2935
16730SOL     OW55127  10.207   2.892   6.395  0.5601  0.3964 -0.5256
16730SOL    HW155128  10.204   2.924   6.485 -0.2415  0.8599 -0.7004
16730SOL    HW255129  10.291   2.847   6.387  1.5911  2.1654 -0.1512
16731SOL     OW55130   8.764   7.672   8.231  0.1177 -0.0672  0.7187
16731SOL    HW155131   8.820   7.603   8.196  0.0007  0.2388 -0.0881
16731SOL    HW255132   8.824   7.742   8.257  0.1830 -0.1889  0.8977
16732SOL     OW55133   5.957   7.071   9.848 -0.0091 -0.3214  0.2626
16732SOL    HW155134   5.994   7.005   9.906  0.4171  0.2008  0.6044
16732SOL    HW255135   5.946   7.148   9.904 -1.6419 -0.4518  0.1685
16733SOL     OW55136   6.765   2.032   2.015 -0.8518 -0.1340  0.3801
16733SOL    HW155137   6.702   2.047   2.086 -0.7088  0.4422  0.3855
16733SOL    HW255138   6.713   2.045   1.935 -1.2143 -1.5731  0.3536
16734SOL     OW55139   2.555   3.790   1.359  0.1727  0.5349 -0.5965
16734SOL    HW155140   2.582   3.853   1.425  0.1632  0.6784 -0.7290
16734SOL    HW255141   2.634   3.739   1.341 -0.2509 -0.6871  0.8174
16735SOL     OW55142  10.859   0.443  10.629  0.1502  0.2632 -0.1606
16735SOL    HW155143  10.891   0.354  10.620  1.5767  0.6958  0.3379
16735SOL    HW255144  10.907   0.479  10.704 -0.3704  1.4527 -0.3676
16736SOL     OW55145  10.529   8.699   1.777  0.0898 -0.0050  0.0296
16736SOL    HW155146  10.552   8.607   1.762  1.4563  0.1255  1.1515
16736SOL    HW255147  10.529   8.738   1.689  0.8792 -0.7817 -0.3316
16737SOL     OW55148   7.628   4.905   4.120 -0.4186  0.0486  0.2173
16737SOL    HW155149   7.623   4.879   4.212  1.0922  0.1516  0.3443
16737SOL    HW255150   7.720   4.893   4.096 -1.0825 -1.6586 -1.7814
16738SOL     OW55151   3.392   2.909   8.119 -0.0186 -0.3217  0.1691
16738SOL    HW155152   3.363   2.969   8.188 -2.1596 -0.3828 -0.5991
16738SOL    HW255153   3.487   2.904   8.130 -0.2744 -0.3493  3.0986
16739SOL     OW55154   6.727   2.505   3.829 -0.4561  0.1289  0.2578
16739SOL    HW155155   6.649   2.518   3.776  0.6425 -1.1980 -1.7883
16739SOL    HW255156   6.743   2.411   3.826  1.1408  0.3591  0.7713
16740SOL     OW55157   5.149   0.232   8.443  0.5928  0.3202 -0.0913
16740SOL    HW155158   5.153   0.271   8.356  1.2904  1.4962  0.4546
16740SOL    HW255159   5.233   0.187   8.452 -0.3659 -1.7651 -0.8842
16741SOL     OW55160   8.213   0.442   1.354 -0.3147 -0.1787 -1.0713
16741SOL    HW155161   8.279   0.390   1.400 -0.5817  0.9710  0.7119
16741SOL    HW255162   8.254   0.464   1.271  1.0040 -0.6349 -0.5771
16742SOL     OW55163   4.118   8.991   0.374 -0.1311  0.3145 -0.2516
16742SOL    HW155164   4.087   9.081   0.363  0.9242  0.9218  1.3458
16742SOL    HW255165   4.213   8.997   0.360 -0.1943 -0.8056 -1.3249
16743SOL     OW55166   8.146   4.805  10.013  0.2783  0.5514 -0.5921
16743SOL    HW155167   8.138   4.710  10.004  0.1130  0.5422 -0.3585
16743SOL    HW255168   8.240   4.821  10.022  0.3938  0.4966 -1.5779
16744SOL     OW55169   4.913   8.624   0.306 -0.3089 -0.2738  0.0627
16744SOL    HW155170   4.970   8.547   0.303  1.4152  0.8337  1.7414
16744SOL    HW255171   4.827   8.590   0.329  0.2782 -1.7585  0.1563
16745SOL     OW55172   6.979   6.588   4.860  0.1155 -0.0505 -0.1281
16745SOL    HW155173   6.909   6.533   4.826  0.0518  0.8706 -1.6032
16745SOL    HW255174   7.059   6.538   4.843 -0.0350 -0.2306 -0.3156
16746SOL     OW55175   6.219   2.690   2.353  0.2244  0.1410  0.5241
16746SOL    HW155176   6.182   2.725   2.272 -0.8492  1.5475  1.5684
16746SOL    HW255177   6.313   2.703   2.344  0.2321 -0.6703 -0.9074
16747SOL     OW55178   6.145   4.355  11.501  0.0265 -0.3970  0.5890
16747SOL    HW155179   6.101   4.292  11.444  1.4699 -0.0933 -0.9473
16747SOL    HW255180   6.185   4.418  11.441  0.5683  0.6587  1.9997
16748SOL     OW55181   4.771  11.368   5.714  0.2527  0.1602  0.0899
16748SOL    HW155182   4.756  11.451   5.759 -0.5656  0.0399  0.0606
16748SOL    HW255183   4.816  11.393   5.633  2.4658  0.2989  1.2881
16749SOL     OW55184  10.430   2.967   3.223 -0.6461 -0.3305 -0.2160
16749SOL    HW155185  10.420   2.872   3.217 -0.7867 -0.3211 -0.1285
16749SOL    HW255186  10.372   2.993   3.294 -0.3894 -0.2117 -0.0486
16750SOL     OW55187   5.122   2.885   4.094 -0.0083  0.3139 -1.1992
16750SOL    HW155188   5.211   2.864   4.121 -0.0091 -1.7040 -2.5279
16750SOL    HW255189   5.130   2.907   4.001 -0.8683  0.1607 -1.3170
16751SOL     OW55190   4.893   0.413  10.402 -0.4046  0.3814 -0.1860
16751SOL    HW155191   4.985   0.398  10.426 -0.6139  0.1817  0.5014
16751SOL    HW255192   4.864   0.330  10.365  0.1061  0.8783 -1.8157
16752SOL     OW55193   5.831  10.515   8.233 -0.3957 -0.0160 -0.2419
16752SOL    HW155194   5.923  10.495   8.216 -0.6608 -0.8385 -0.7984
16752SOL    HW255195   5.831  10.607   8.260  0.6265 -0.1146  0.1383
16753SOL     OW55196  10.788   8.485   1.561  0.3582  0.0163 -0.1509
16753SOL    HW155197  10.751   8.548   1.498  1.5779  0.3829 -0.5231
16753SOL    HW255198  10.836   8.539   1.624 -0.5475 -0.3785  0.9131
16754SOL     OW55199   0.448  11.250   9.650 -0.4940  0.5071  0.1317
16754SOL    HW155200   0.497  11.328   9.624 -0.2526  0.4723  0.4744
16754SOL    HW255201   0.442  11.197   9.570  0.1199  0.4653  0.1080
16755SOL     OW55202   8.949  10.753   9.460  0.7585  0.0961 -0.0714
16755SOL    HW155203   8.912  10.711   9.538 -0.5838 -0.6886 -1.0894
16755SOL    HW255204   8.895  10.832   9.449 -0.6649 -1.0148 -1.5212
16756SOL     OW55205   0.917   7.836   6.071  0.2177 -0.0169  0.4696
16756SOL    HW155206   0.941   7.822   6.163 -1.5277 -0.7907  0.8535
16756SOL    HW255207   0.835   7.787   6.060 -0.7628  1.8319 -0.9262
16757SOL     OW55208   0.824   4.574   1.450 -0.1684  0.6511  0.1726
16757SOL    HW155209   0.742   4.600   1.492  0.4193  1.7812  0.6816
16757SOL    HW255210   0.810   4.483   1.424 -1.1245  0.4163  1.4041
16758SOL     OW55211   8.687   5.521   2.337  0.4379  0.0454  0.5573
16758SOL    HW155212   8.650   5.484   2.417 -0.0404 -2.0312 -0.5537
16758SOL    HW255213   8.633   5.486   2.267  0.5871  2.1468 -0.7044
16759SOL     OW55214   9.895   2.242   2.757  0.1751 -0.2900 -0.6647
16759SOL    HW155215   9.897   2.173   2.690 -0.3282  0.1459 -1.1463
16759SOL    HW255216   9.894   2.324   2.707 -3.2100  0.0523 -0.2962
16760SOL     OW55217   3.893   3.883   3.927  0.0118 -0.3500  0.2110
16760SOL    HW155218   3.836   3.848   3.858 -0.1650  0.5656 -0.1260
16760SOL    HW255219   3.981   3.874   3.892  0.1688 -2.3959  1.0117
16761SOL     OW55220  11.120   9.633   3.256  0.0199  0.1507 -0.1186
16761SOL    HW155221  11.119   9.573   3.181 -1.2577 -0.0503  0.0302
16761SOL    HW255222  11.195   9.605   3.308 -1.1306 -2.0757  0.5118
16762SOL     OW55223   2.003   8.047   1.808  0.1364 -0.0743  0.6409
16762SOL    HW155224   1.997   8.108   1.734 -0.4002  0.8745  1.4487
16762SOL    HW255225   1.919   8.002   1.809  0.1332 -0.0668  0.6935
16763SOL     OW55226   4.482   9.840   3.151  0.4771  0.9470 -0.3876
16763SOL    HW155227   4.566   9.867   3.114  1.6285  0.1275  1.4235
16763SOL    HW255228   4.505   9.807   3.238 -1.6005 -0.2949 -0.2475
16764SOL     OW55229  10.642   8.669   8.297 -0.1301  0.2375 -0.3494
16764SOL    HW155230  10.636   8.584   8.253 -1.8155 -0.2474  0.7131
16764SOL    HW255231  10.585   8.727   8.245 -1.4908 -0.1330  0.6706
16765SOL     OW55232   9.579   4.682   8.645 -0.3175  0.3934  0.2523
16765SOL    HW155233   9.616   4.626   8.576 -2.2312 -1.6790  0.7674
16765SOL    HW255234   9.655   4.724   8.685  1.1163 -0.7976 -1.0814
16766SOL     OW55235   2.441   6.810   8.281 -0.3757 -0.3491  0.1389
16766SOL    HW155236   2.422   6.808   8.375 -0.9965  0.2238  0.0427
16766SOL    HW255237   2.519   6.866   8.273 -1.4067  1.1736  0.1860
16767SOL     OW55238  11.566   8.291   1.305  0.0711  0.8713 -0.2133
16767SOL    HW155239  11.655   8.258   1.311 -0.2885  0.0128  0.8040
16767SOL    HW255240  11.533   8.259   1.221  0.0033 -0.7039  0.3837
16768SOL     OW55241   4.226   5.452  11.169  0.2447 -0.3891 -0.7192
16768SOL    HW155242   4.306   5.472  11.217  0.3383 -1.3999 -0.4499
16768SOL    HW255243   4.164   5.425  11.236 -0.2648  0.1514 -0.9530
16769SOL     OW55244   5.896   7.760   0.088  0.3696  0.3230 -0.1582
16769SOL    HW155245   5.964   7.697   0.111  0.7374 -0.1302 -2.3109
16769SOL    HW255246   5.923   7.841   0.132  2.1450  0.0503 -0.6582
16770SOL     OW55247  10.555   9.620   8.667 -0.2028 -0.3811  0.4662
16770SOL    HW155248  10.540   9.566   8.744  0.8715 -2.1604 -0.5070
16770SOL    HW255249  10.650   9.622   8.656 -0.3007  0.4176 -0.4224
16771SOL     OW55250   9.393   2.002   4.715 -0.7555 -0.3314 -0.3185
16771SOL    HW155251   9.315   2.023   4.766 -0.3760  0.6666 -0.1183
16771SOL    HW255252   9.458   1.976   4.781 -1.2368 -2.3131 -0.5668
16772SOL     OW55253   0.345   3.398   4.656  0.1002 -0.2214 -0.6583
16772SOL    HW155254   0.370   3.375   4.745 -0.2243  2.4228  0.1926
16772SOL    HW255255   0.428   3.400   4.608  0.5337  0.3480  0.0959
16773SOL     OW55256   7.015   7.089  11.682  0.9256  0.2501 -0.3072
16773SOL    HW155257   6.937   7.142  11.662  2.1572  1.3055 -2.7937
16773SOL    HW255258   7.088   7.149  11.669  2.2570 -1.3428 -0.4813
16774SOL     OW55259   6.297   8.753   0.648  0.0439  0.6136  0.3056
16774SOL    HW155260   6.275   8.661   0.665 -0.7605  0.2482 -2.2035
16774SOL    HW255261   6.253   8.802   0.717 -0.8174 -0.7964  0.7930
16775SOL     OW55262   9.549   1.768   8.993  0.1320 -0.1998 -0.0444
16775SOL    HW155263   9.595   1.772   8.910  1.5009 -0.1579  0.6847
16775SOL    HW255264   9.541   1.860   9.021  1.1212 -0.2930  0.6066
16776SOL     OW55265   0.227   8.654   0.555  0.1259  0.1427  0.4884
16776SOL    HW155266   0.207   8.561   0.560  0.1167  0.0922 -0.3760
16776SOL    HW255267   0.307   8.664   0.607 -0.3150 -0.2049  1.2452
16777SOL     OW55268   2.360   8.759  11.058  0.0783  0.0087 -0.3778
16777SOL    HW155269   2.357   8.714  11.142 -1.1051  0.3960 -0.1915
16777SOL    HW255270   2.271   8.754  11.024  0.4400  0.2420 -1.4050
16778SOL     OW55271   6.604   8.525   0.627 -0.3035 -0.5109  0.4962
16778SOL    HW155272   6.566   8.613   0.622 -0.6601 -0.6289  1.0865
16778SOL    HW255273   6.697   8.540   0.643 -0.0089 -0.2120 -1.2388
16779SOL     OW55274   6.450   0.370   9.646 -0.0761  0.3606  0.6454
16779SOL    HW155275   6.512   0.298   9.632 -0.2858  0.6034 -1.9106
16779SOL    HW255276   6.425   0.398   9.558 -1.7737  2.0586  1.5987
16780SOL     OW55277   7.500   6.814   8.403 -0.6255 -0.0923 -0.5102
16780SOL    HW155278   7.506   6.897   8.357 -1.8845 -0.1832 -0.8680
16780SOL    HW255279   7.565   6.758   8.360  0.0929  0.6364 -0.3925
16781SOL     OW55280   9.679   4.537   8.446 -0.4497  0.3820 -0.1927
16781SOL    HW155281   9.766   4.539   8.407 -0.5210 -2.1528 -0.6838
16781SOL    HW255282   9.620   4.522   8.372 -0.8089 -2.2357  0.5347
16782SOL     OW55283   7.807   2.314   6.173  0.0567 -0.8082  0.2217
16782SOL    HW155284   7.839   2.367   6.245 -0.0325 -0.3413 -0.0811
16782SOL    HW255285   7.742   2.256   6.213  0.0400 -0.5825  0.5237
16783SOL     OW55286  11.114   0.541  10.752  0.3534  0.4393  0.1282
16783SOL    HW155287  11.202   0.538  10.713 -0.1942  0.3222 -1.1641
16783SOL    HW255288  11.082   0.629  10.730  0.2085  0.5519  0.7677
16784SOL     OW55289   7.526  11.446   3.850  0.1760 -0.0489 -0.3764
16784SOL    HW155290   7.444  11.408   3.883  0.2911 -0.2683 -0.3428
16784SOL    HW255291   7.556  11.386   3.783  0.6889 -0.3544  0.1172
16785SOL     OW55292   7.654   8.969   7.001  0.6910 -1.1813  0.5659
16785SOL    HW155293   7.732   8.919   7.024  1.1870 -1.1918 -1.0238
16785SOL    HW255294   7.631   8.940   6.913 -0.5777 -0.5089  0.6406
16786SOL     OW55295   1.529   9.437   6.716 -0.3303 -0.4448  0.4530
16786SOL    HW155296   1.467   9.442   6.789 -0.4830 -0.9604  0.3629
16786SOL    HW255297   1.475   9.444   6.637 -0.6307 -3.3420  0.2857
16787SOL     OW55298   9.407  11.065  10.527  0.3487 -0.3299  0.0800
16787SOL    HW155299   9.381  11.110  10.607  0.6362  0.5114 -0.2960
16787SOL    HW255300   9.470  10.999  10.556  1.0163  0.4656  0.4508
16788SOL     OW55301  10.103   5.014   3.243 -0.5233  0.0613 -0.1807
16788SOL    HW155302  10.087   5.014   3.337 -0.9203  0.6962 -0.2480
16788SOL    HW255303  10.171   4.947   3.230 -0.2440  0.1939  0.5893
16789SOL     OW55304   9.329   0.568   7.936  0.3763  0.3367 -0.3273
16789SOL    HW155305   9.342   0.520   7.855 -0.6967  1.5033 -1.2318
16789SOL    HW255306   9.410   0.555   7.985  0.4189 -1.7049 -0.8705
16790SOL     OW55307   8.889   0.962   4.794 -0.0018 -0.0897 -0.0868
16790SOL    HW155308   8.864   1.027   4.859  0.4341 -0.2166  0.2089
16790SOL    HW255309   8.821   0.895   4.799 -0.6617  0.5148 -0.6560
16791SOL     OW55310   6.674  11.352   4.283  0.7883  0.4401 -0.2970
16791SOL    HW155311   6.592  11.359   4.234  0.3147 -0.7075  0.2960
16791SOL    HW255312   6.674  11.428   4.341 -1.0068 -0.6884  1.3225
16792SOL     OW55313   3.976   8.016   4.271  0.1849  0.3457 -0.0995
16792SOL    HW155314   3.911   8.085   4.266 -1.1280 -0.7932  0.5861
16792SOL    HW255315   4.003   8.014   4.363  0.2309 -0.0342 -0.1169
16793SOL     OW55316   3.816  10.158   3.998 -0.1836 -0.2484  0.2167
16793SOL    HW155317   3.862  10.197   3.924  0.3664 -1.1424  0.0735
16793SOL    HW255318   3.723  10.165   3.975 -0.0763  0.4861 -0.0351
16794SOL     OW55319   6.921   7.844   1.638 -0.2016 -0.2845 -0.6998
16794SOL    HW155320   6.993   7.865   1.579  0.1951  0.0682 -0.1005
16794SOL    HW255321   6.869   7.780   1.590  1.0703 -1.3344 -0.7566
16795SOL     OW55322   0.908  11.030   3.882  0.3280 -0.4167  1.0078
16795SOL    HW155323   0.920  10.968   3.810 -0.9013 -1.9674  2.0742
16795SOL    HW255324   0.867  11.107   3.841 -0.6368 -1.3910  0.0876
16796SOL     OW55325   5.522   4.607   5.727 -0.7760  0.2192  0.5115
16796SOL    HW155326   5.590   4.601   5.660 -0.3289  0.4994  0.9326
16796SOL    HW255327   5.551   4.678   5.784 -2.1064  1.2662 -0.0618
16797SOL     OW55328   6.865   0.319  10.812 -0.1969  0.4340 -0.8057
16797SOL    HW155329   6.814   0.319  10.893 -0.0234 -0.1961 -0.6921
16797SOL    HW255330   6.938   0.259  10.829  0.0465  0.5840 -1.3001
16798SOL     OW55331   7.748   3.421  11.417 -0.6151 -0.2179  0.1081
16798SOL    HW155332   7.758   3.373  11.335 -0.2686 -1.0155  0.6071
16798SOL    HW255333   7.699   3.362  11.474  1.4397 -0.8113  1.3765
16799SOL     OW55334   4.628   5.326   6.502  0.3380  0.5287 -0.6622
16799SOL    HW155335   4.581   5.243   6.494  0.5106  0.5224 -1.8652
16799SOL    HW255336   4.560   5.393   6.494  0.4380  0.5126 -1.8071
16800SOL     OW55337  11.370   1.266   2.235 -0.3230  0.5000  0.2974
16800SOL    HW155338  11.458   1.234   2.220 -0.5623 -0.2478  0.4573
16800SOL    HW255339  11.350   1.241   2.325 -0.4314  1.3155  0.5133
16801SOL     OW55340   0.852   3.188  10.281  0.2340 -0.2230 -0.4776
16801SOL    HW155341   0.929   3.240  10.256  0.0832  0.9242  1.2685
16801SOL    HW255342   0.877   3.098  10.263  1.3433  0.2695 -1.5473
16802SOL     OW55343   4.914   1.323  10.006 -0.4453  0.1518 -0.2736
16802SOL    HW155344   4.825   1.286  10.010 -0.7685  0.8533 -0.7074
16802SOL    HW255345   4.953   1.302  10.091 -1.4034  0.7535  0.3369
16803SOL     OW55346   5.687   6.077   6.157  0.0052 -0.1462  0.2122
16803SOL    HW155347   5.606   6.048   6.116  0.0555 -0.3266  0.2399
16803SOL    HW255348   5.681   6.045   6.248  1.5662 -3.1205 -0.6053
16804SOL     OW55349   8.395   6.127   8.981  0.1592  0.8456 -0.1078
16804SOL    HW155350   8.323   6.190   8.990 -0.3474  0.2057  0.3055
16804SOL    HW255351   8.412   6.097   9.070 -0.1751 -0.2411 -0.4019
16805SOL     OW55352   7.374  10.684   4.847 -0.1735  0.2541 -0.9641
16805SOL    HW155353   7.445  10.744   4.823 -0.1726  1.0347  0.8656
16805SOL    HW255354   7.308  10.740   4.888 -1.3757 -0.6325 -1.6173
16806SOL     OW55355   8.095   7.242   9.769  0.2613  0.4651 -0.0352
16806SOL    HW155356   8.183   7.205   9.773  0.6103  1.3382  0.9598
16806SOL    HW255357   8.038   7.167   9.750  0.9672 -0.5619  1.6369
16807SOL     OW55358   9.995   8.892  10.044 -0.3104  0.8004 -0.5608
16807SOL    HW155359   9.922   8.849  10.087 -0.7328  2.2497  0.2610
16807SOL    HW255360  10.073   8.848  10.077 -0.7721 -0.2727 -0.8815
16808SOL     OW55361   6.923   2.903   6.343  0.0055  0.7878 -0.0331
16808SOL    HW155362   6.904   2.996   6.327  0.1905  0.8376  0.0321
16808SOL    HW255363   6.917   2.894   6.438 -0.4728  0.6299 -0.0726
16809SOL     OW55364   3.640   1.559   1.842 -0.5160  0.1891  0.7648
16809SOL    HW155365   3.732   1.559   1.814 -0.7574  0.4775 -0.0532
16809SOL    HW255366   3.631   1.479   1.893 -0.1483 -0.5720 -0.3194
16810SOL     OW55367  11.005  10.950   3.128  0.4536  0.1675 -0.0742
16810SOL    HW155368  11.081  11.007   3.143  0.5377  0.0023  0.1362
16810SOL    HW255369  10.995  10.948   3.033 -0.1860  1.3604 -0.0505
16811SOL     OW55370  10.120  11.346   6.127 -0.3560 -0.4286 -0.0773
16811SOL    HW155371  10.155  11.393   6.202  0.8331 -0.5662 -0.5325
16811SOL    HW255372  10.197  11.318   6.078 -1.0866  1.3254 -2.3942
16812SOL     OW55373   7.330  11.369   2.982 -0.1053  0.1036 -0.2315
16812SOL    HW155374   7.242  11.406   2.975  0.1640  0.6754 -0.7031
16812SOL    HW255375   7.338  11.313   2.905 -0.4371 -0.8147  0.3748
16813SOL     OW55376   3.078   6.610   7.560  0.5204  0.1634 -0.2845
16813SOL    HW155377   3.010   6.641   7.500  0.1338 -0.0029  0.0709
16813SOL    HW255378   3.046   6.633   7.647 -0.5255 -2.5834  0.1410
16814SOL     OW55379  10.667   5.277   2.432 -0.0041  0.1195  0.1877
16814SOL    HW155380  10.762   5.291   2.435  0.7132 -3.6330 -0.2910
16814SOL    HW255381  10.645   5.243   2.519 -0.6230 -0.3927 -0.1619
16815SOL     OW55382   3.793   0.702   1.293  0.0432 -0.1250  0.5199
16815SOL    HW155383   3.756   0.779   1.337  0.3851  0.4676 -0.2158
16815SOL    HW255384   3.716   0.649   1.270 -0.2253  0.1996  0.6544
16816SOL     OW55385   1.003   4.060   0.515 -0.5164  0.2375  0.0641
16816SOL    HW155386   1.025   4.144   0.557  0.2240  1.0732 -1.8906
16816SOL    HW255387   0.943   4.084   0.444  0.3961 -0.7559 -1.0777
16817SOL     OW55388   5.525   4.576  11.191  0.3965  0.1561 -0.1673
16817SOL    HW155389   5.603   4.613  11.232 -0.5034  1.5018  0.4261
16817SOL    HW255390   5.482   4.651  11.150 -0.0357 -0.7513 -1.4194
16818SOL     OW55391   7.210   8.572  10.518 -0.5308  0.1390 -0.1661
16818SOL    HW155392   7.200   8.667  10.517  0.9663  0.3467  0.6385
16818SOL    HW255393   7.147   8.541  10.583 -0.2718  0.7168  0.3712
16819SOL     OW55394  10.881  10.550   6.362 -0.8132 -0.3405  0.4118
16819SOL    HW155395  10.964  10.511   6.335  0.2692  1.7241  0.5542
16819SOL    HW255396  10.874  10.530   6.455  1.6551  2.7938  1.4627
16820SOL     OW55397   7.304   6.227   9.912 -0.0649 -0.0711  0.2769
16820SOL    HW155398   7.214   6.257   9.921  0.0815  0.5250 -0.1804
16820SOL    HW255399   7.306   6.183   9.827 -0.2287 -1.2237  0.8505
16821SOL     OW55400   1.356   8.671   1.068 -0.4362  0.0294 -0.0503
16821SOL    HW155401   1.397   8.592   1.033 -1.2802 -0.4079 -0.0903
16821SOL    HW255402   1.396   8.683   1.154  0.8025  0.4450 -0.6507
16822SOL     OW55403   8.539   0.083   1.299 -0.2468  0.0985 -0.1167
16822SOL    HW155404   8.571   0.008   1.250 -0.7840 -0.1484 -0.0883
16822SOL    HW255405   8.512   0.146   1.232 -1.8025 -0.5848 -0.1525
16823SOL     OW55406  11.674   9.947   5.313  0.0163  0.3825 -0.2635
16823SOL    HW155407  11.589   9.977   5.282 -0.5533 -1.6362 -0.7687
16823SOL    HW255408  11.657   9.914   5.401  0.5389  1.1073  0.1151
16824SOL     OW55409   2.662   7.390   8.535 -0.3506 -0.1838 -0.0657
16824SOL    HW155410   2.618   7.427   8.611 -3.4971 -0.2484 -1.7031
16824SOL    HW255411   2.738   7.344   8.571  1.3406  3.9946  2.4915
16825SOL     OW55412   3.824   5.663   6.889  0.5543  0.5339 -0.0577
16825SOL    HW155413   3.744   5.693   6.932  0.3547 -0.9648  0.7058
16825SOL    HW255414   3.836   5.723   6.816 -0.7113  1.4016  0.4092
16826SOL     OW55415   4.564  10.026   5.972 -0.4586  0.1943  0.1562
16826SOL    HW155416   4.482  10.032   5.925  0.4173  1.7694 -1.2419
16826SOL    HW255417   4.629  10.001   5.906  0.4016  0.1197  0.9950
16827SOL     OW55418  10.153   5.554   4.684 -0.1989  0.1824  0.0542
16827SOL    HW155419  10.116   5.473   4.719 -0.3228 -0.2046 -0.9456
16827SOL    HW255420  10.078   5.614   4.678 -1.1583 -1.1835 -3.6995
16828SOL     OW55421   8.219   5.878   4.108  0.2230  0.4650 -0.1862
16828SOL    HW155422   8.235   5.844   4.196 -0.3997  3.0906  1.0478
16828SOL    HW255423   8.274   5.957   4.102  0.6123  0.0999 -2.3615
16829SOL     OW55424   1.568   0.106   1.517  0.0476  0.8280 -0.2633
16829SOL    HW155425   1.647   0.076   1.563 -0.6402 -0.1966  0.2857
16829SOL    HW255426   1.524   0.163   1.580 -0.7104 -0.2861  0.2402
16830SOL     OW55427   2.205   4.655  11.058 -0.2424 -0.1818 -0.0317
16830SOL    HW155428   2.300   4.644  11.065 -0.4178 -0.8658  2.6829
16830SOL    HW255429   2.169   4.587  11.115 -2.2136  1.9095  1.4256
16831SOL     OW55430   6.590  10.118   7.450  0.1784  0.4546  0.4891
16831SOL    HW155431   6.541  10.038   7.468  1.1751 -0.2883 -0.0254
16831SOL    HW255432   6.666  10.114   7.508  0.1044  1.1571  0.6434
16832SOL     OW55433   2.048   3.647   0.460  0.4288  0.1210  0.2656
16832SOL    HW155434   1.961   3.639   0.498  0.0224  1.6610 -0.2575
16832SOL    HW255435   2.037   3.626   0.368  0.2931  1.6434 -0.0986
16833SOL     OW55436   5.469   7.810   4.471 -0.2802  0.7946  0.1193
16833SOL    HW155437   5.460   7.743   4.404 -1.9648 -1.0750  2.0639
16833SOL    HW255438   5.457   7.893   4.424  0.0129 -0.3345 -2.0580
16834SOL     OW55439  10.898  10.285   6.116 -0.0234 -0.2049 -0.2103
16834SOL    HW155440  10.832  10.226   6.081 -1.1243  1.7120 -1.5803
16834SOL    HW255441  10.883  10.286   6.210 -2.3758  0.5762 -0.5204
16835SOL     OW55442   2.749   0.854   6.449 -0.0779 -0.4707 -0.2952
16835SOL    HW155443   2.710   0.911   6.383 -0.2310 -0.5384 -0.2631
16835SOL    HW255444   2.750   0.767   6.409 -1.1179 -0.7141  0.1720
16836SOL     OW55445   7.111   2.633   8.430 -0.1516  0.3619 -0.5571
16836SOL    HW155446   7.149   2.654   8.344 -1.3580 -0.5239 -1.3503
16836SOL    HW255447   7.184   2.639   8.491  0.8743  0.4224 -1.7497
16837SOL     OW55448   2.145   4.916   7.288 -0.4913  0.1510 -0.1391
16837SOL    HW155449   2.189   5.002   7.291 -0.2053 -0.0052  1.9237
16837SOL    HW255450   2.052   4.937   7.300 -0.3959  0.1817  0.6108
16838SOL     OW55451   1.274   2.411   0.714 -0.6063 -0.4159 -0.6074
16838SOL    HW155452   1.240   2.380   0.630 -0.0707 -0.1577 -0.9216
16838SOL    HW255453   1.224   2.491   0.732 -1.1219 -0.7852 -0.3998
16839SOL     OW55454   1.447   8.513   1.726  0.4035  0.1019  0.0600
16839SOL    HW155455   1.482   8.451   1.662  0.6175  1.1055 -0.8314
16839SOL    HW255456   1.381   8.563   1.678  2.4594  2.7435 -0.2737
16840SOL     OW55457   3.251  10.135   6.630  0.3277  0.5767  0.1670
16840SOL    HW155458   3.323  10.176   6.581 -0.0603  0.6371 -0.3625
16840SOL    HW255459   3.249  10.182   6.713 -0.1379  1.7058 -0.4482
16841SOL     OW55460   5.997   9.864   6.452  0.2686  0.4686  1.0360
16841SOL    HW155461   6.016   9.776   6.422  1.7886  1.1813 -0.2271
16841SOL    HW255462   6.055   9.877   6.527  1.7478  1.1686 -0.1991
16842SOL     OW55463   7.606   3.436   1.963 -0.2582 -0.6518  0.0210
16842SOL    HW155464   7.690   3.440   1.918  0.4185 -0.6025  1.2420
16842SOL    HW255465   7.577   3.527   1.969 -0.6236 -0.7022 -0.7632
16843SOL     OW55466   6.763   1.775   7.732  0.0605  0.4454 -0.5765
16843SOL    HW155467   6.697   1.716   7.769  3.0369 -2.0624  1.0931
16843SOL    HW255468   6.796   1.729   7.655  0.1686  1.5261 -1.2041
16844SOL     OW55469   3.829   6.778   4.180 -0.1821 -0.7332 -0.2817
16844SOL    HW155470   3.923   6.768   4.165  0.2690 -0.8085  2.1869
16844SOL    HW255471   3.805   6.857   4.132  1.1844 -0.5964 -0.7860
16845SOL     OW55472   8.183   2.575   3.984  0.0777  0.6972  0.1971
16845SOL    HW155473   8.204   2.513   4.054  1.7693  2.9083  1.7651
16845SOL    HW255474   8.188   2.522   3.904 -1.5592 -1.8199  1.6158
16846SOL     OW55475   3.926   7.259  10.247 -0.0819  0.6847 -0.0787
16846SOL    HW155476   4.013   7.286  10.273 -0.4649  1.9013  0.0121
16846SOL    HW255477   3.904   7.316  10.172  0.5138 -1.8682 -2.3660
16847SOL     OW55478   2.945   2.139   1.992 -0.6318 -0.3221  0.0011
16847SOL    HW155479   2.919   2.098   1.909 -0.2563  1.5283 -1.0722
16847SOL    HW255480   2.862   2.159   2.035 -0.8916  0.4362 -0.8167
16848SOL     OW55481   3.995   3.580   0.675  0.0154 -0.1292 -0.8177
16848SOL    HW155482   3.915   3.632   0.674  0.1113  0.0171 -0.8188
16848SOL    HW255483   4.034   3.594   0.589 -0.0694 -0.3735 -0.8970
16849SOL     OW55484   0.158  10.876   8.519 -0.2334  0.0595  0.0876
16849SOL    HW155485   0.099  10.950   8.532  0.3043  0.2010  2.0940
16849SOL    HW255486   0.105  10.810   8.474 -2.3472 -0.2445  2.7995
16850SOL     OW55487   1.518   5.859   4.919  0.0463  0.3027 -0.3782
16850SOL    HW155488   1.573   5.923   4.965  0.1519  1.2411 -1.7577
16850SOL    HW255489   1.566   5.839   4.839 -1.2129  0.4914 -1.2070
16851SOL     OW55490  10.050   6.695   5.124 -0.3463  0.3403 -0.5053
16851SOL    HW155491  10.059   6.637   5.048 -0.1946 -1.1402  0.6050
16851SOL    HW255492   9.987   6.652   5.181 -0.0107  1.1168  0.4927
16852SOL     OW55493   6.666   4.899   6.197  0.6040  0.3659 -0.3870
16852SOL    HW155494   6.728   4.939   6.136  1.0988  3.1441  1.7347
16852SOL    HW255495   6.715   4.891   6.279 -0.9609 -0.1913  0.5426
16853SOL     OW55496  11.123   7.773   8.827 -0.0807  0.3732 -0.8756
16853SOL    HW155497  11.157   7.818   8.904 -0.0563 -1.5792  0.3196
16853SOL    HW255498  11.044   7.821   8.803 -0.3055  0.7733  0.6116
16854SOL     OW55499   8.435   3.334   7.973 -0.2934  0.7987  0.2696
16854SOL    HW155500   8.426   3.356   8.066  1.0455 -1.7128  1.0807
16854SOL    HW255501   8.515   3.380   7.946 -0.7141  1.5794  0.3182
16855SOL     OW55502   4.923   8.799  11.009  0.1999  0.2186  0.0378
16855SOL    HW155503   4.932   8.894  11.006  0.8521  0.2155  1.3471
16855SOL    HW255504   4.957   8.774  11.095 -0.4478 -1.1481 -0.0770
16856SOL     OW55505   2.402   6.994   0.749  0.0659 -0.0739  0.5737
16856SOL    HW155506   2.350   6.955   0.819 -2.5239  0.6376 -0.8135
16856SOL    HW255507   2.405   7.087   0.770  0.5836 -0.0802  0.5262
16857SOL     OW55508   6.299   8.661  10.298 -1.0495  0.2283  0.9346
16857SOL    HW155509   6.371   8.631  10.243 -1.3672  1.6917 -0.3474
16857SOL    HW255510   6.221   8.650  10.245 -1.6072  0.0163  1.7708
16858SOL     OW55511  11.538   0.462   8.364 -0.0096  0.4754  0.4116
16858SOL    HW155512  11.597   0.397   8.325  0.7222  0.9954  0.6258
16858SOL    HW255513  11.463   0.465   8.305 -0.5552 -1.3243  0.9455
16859SOL     OW55514   1.162   8.219   5.554  0.2824 -0.0267 -0.0991
16859SOL    HW155515   1.212   8.276   5.496  0.8711 -0.5472 -0.1181
16859SOL    HW255516   1.109   8.166   5.495  0.1136  0.1579 -0.1107
16860SOL     OW55517   8.412   6.939   9.351 -0.1264  0.5104  0.1187
16860SOL    HW155518   8.476   6.971   9.415  0.0218 -1.8427  1.2426
16860SOL    HW255519   8.360   6.874   9.398 -1.8205  0.6381 -1.4356
16861SOL     OW55520   2.231   4.454  11.569 -0.9761 -0.9032 -0.7568
16861SOL    HW155521   2.212   4.361  11.579  0.4413 -1.3063 -1.5044
16861SOL    HW255522   2.262   4.462  11.478  1.5589 -0.2044  0.1046
16862SOL     OW55523   8.840   3.501   8.235 -0.3946  0.2964 -0.6292
16862SOL    HW155524   8.761   3.523   8.285 -0.6414  0.4051 -1.0668
16862SOL    HW255525   8.869   3.419   8.273 -1.1220 -0.1122 -0.9361
16863SOL     OW55526  11.625   5.631   6.966  0.3224  0.2934  0.1121
16863SOL    HW155527  11.652   5.710   7.013 -3.3333  1.3328  0.8441
16863SOL    HW255528  11.632   5.656   6.873  0.1748  1.1446  0.3150
16864SOL     OW55529  10.137   2.810   5.839  0.1516  0.4174 -0.0885
16864SOL    HW155530  10.054   2.808   5.888 -0.7754  0.4139 -1.6040
16864SOL    HW255531  10.196   2.755   5.891 -1.5448 -1.6900 -0.2360
16865SOL     OW55532   7.789   9.923   9.502  0.3404  0.0313 -0.9755
16865SOL    HW155533   7.805   9.843   9.552 -0.2910 -0.5077 -1.6094
16865SOL    HW255534   7.733   9.894   9.429 -0.2176  1.1212 -0.9918
16866SOL     OW55535   0.563   2.869   1.056 -0.1257  0.6056 -0.8683
16866SOL    HW155536   0.471   2.894   1.044 -0.1029  0.3783 -1.5432
16866SOL    HW255537   0.577   2.876   1.151 -1.3246 -1.0470 -0.5111
16867SOL     OW55538  11.636   9.137   8.139 -0.5872  0.1409 -0.2844
16867SOL    HW155539  11.707   9.120   8.201 -0.2466  0.5359 -0.5602
16867SOL    HW255540  11.655   9.224   8.104 -2.4072  1.2614  1.2711
16868SOL     OW55541   5.297   3.821   6.830  0.0130  0.1278 -0.7321
16868SOL    HW155542   5.342   3.746   6.793 -0.5125 -0.3308 -0.4628
16868SOL    HW255543   5.247   3.858   6.757  0.9951  0.7773 -1.0859
16869SOL     OW55544   7.809   8.288   0.939 -0.2581  0.0077  0.0357
16869SOL    HW155545   7.809   8.350   1.012  0.4157  1.4462 -1.1373
16869SOL    HW255546   7.726   8.304   0.893 -0.6359 -0.8226  0.4106
16870SOL     OW55547   5.414   0.931   6.848  0.5649  0.4549 -0.4589
16870SOL    HW155548   5.349   0.967   6.788 -0.1164  0.3099  0.1798
16870SOL    HW255549   5.421   0.995   6.918  1.2564  0.5604 -0.6164
16871SOL     OW55550   7.087   9.574  11.658 -0.2901 -0.3945 -0.1728
16871SOL    HW155551   7.134   9.645  11.701 -0.4498 -0.5090  0.1978
16871SOL    HW255552   7.001   9.610  11.639  0.3876  0.2784 -2.1357
16872SOL     OW55553  10.233   0.784   2.524  0.0350 -0.4547  0.5931
16872SOL    HW155554  10.279   0.854   2.479  0.6706 -0.1586  1.6746
16872SOL    HW255555  10.147   0.820   2.544  0.3657  0.0336  1.1585
16873SOL     OW55556   8.527   4.467  11.098 -0.1904 -0.2969 -0.2070
16873SOL    HW155557   8.474   4.527  11.151 -0.7983 -0.6474 -0.4040
16873SOL    HW255558   8.522   4.383  11.144 -2.3327 -1.1134 -1.7733
16874SOL     OW55559   2.287   4.862   1.570 -0.5054 -0.3607 -0.1775
16874SOL    HW155560   2.316   4.953   1.577  2.0581 -1.0671 -0.5636
16874SOL    HW255561   2.207   4.858   1.622  0.1107  1.7930  1.0529
16875SOL     OW55562  11.633   2.619   0.068  0.0386 -0.0356  0.2386
16875SOL    HW155563  11.724   2.647   0.072  0.1720 -0.1953 -1.2190
16875SOL    HW255564  11.584   2.687   0.114  1.0586 -0.9272  2.8511
16876SOL     OW55565   3.144   8.751   2.726 -0.5500 -0.3630 -0.3047
16876SOL    HW155566   3.194   8.670   2.735 -0.0677 -0.1404 -0.8887
16876SOL    HW255567   3.097   8.741   2.643  0.5081  0.4664 -1.0339
16877SOL     OW55568   2.918   1.556   8.032  0.5935  0.0129 -0.3144
16877SOL    HW155569   2.957   1.566   7.945 -0.6398 -1.8395 -1.1501
16877SOL    HW255570   2.857   1.629   8.039  0.5768  0.0887 -1.0915
16878SOL     OW55571   3.163   5.476   7.720  0.2294 -0.3027  0.2616
16878SOL    HW155572   3.253   5.476   7.687  0.3924  1.1403  0.6045
16878SOL    HW255573   3.148   5.567   7.746 -0.5337 -0.9793  2.3829
16879SOL     OW55574   8.297   0.509   1.119 -0.6141  0.0470 -0.5099
16879SOL    HW155575   8.380   0.555   1.117 -0.5812  0.0302  0.3463
16879SOL    HW255576   8.234   0.571   1.082  0.0151 -0.4700 -2.5575
16880SOL     OW55577   4.820   1.529   7.132 -0.0235  0.0618 -0.2925
16880SOL    HW155578   4.845   1.457   7.074  1.4165  0.8298 -0.6521
16880SOL    HW255579   4.767   1.587   7.077  0.3713  0.2015 -0.5330
16881SOL     OW55580   0.734   1.486   6.531 -0.2621  0.4160  0.6473
16881SOL    HW155581   0.640   1.466   6.530  0.1639 -1.7863  0.1084
16881SOL    HW255582   0.776   1.404   6.556  1.6554  0.7335 -1.2456
16882SOL     OW55583   2.121   2.249   9.477  0.0019 -0.5016 -0.0778
16882SOL    HW155584   2.085   2.165   9.506 -1.3090 -0.0053 -0.1886
16882SOL    HW255585   2.052   2.287   9.423  1.0358  0.1410 -0.9886
16883SOL     OW55586   2.196   4.862   8.273  0.0569 -0.7289 -0.2406
16883SOL    HW155587   2.284   4.894   8.296  0.2321 -0.1825 -1.5797
16883SOL    HW255588   2.193   4.774   8.310  1.0363 -0.6202  0.1467
16884SOL     OW55589   0.830   2.646   2.959  0.2133 -0.5080 -0.7199
16884SOL    HW155590   0.788   2.580   3.015 -0.5987 -0.3377 -1.1238
16884SOL    HW255591   0.811   2.729   3.002  0.0088 -0.4165 -0.9915
16885SOL     OW55592   3.096   2.134  10.970  0.0745  0.1028  0.0718
16885SOL    HW155593   3.098   2.228  10.955 -0.7445 -0.0131 -0.9617
16885SOL    HW255594   3.057   2.098  10.889  2.2970 -1.3097 -0.4616
16886SOL     OW55595   0.889  11.620   6.255 -0.4763  0.1474 -0.2104
16886SOL    HW155596   0.930  11.640   6.171  0.1072  1.9453  0.4445
16886SOL    HW255597   0.909  11.696   6.310 -2.1973 -0.2525  1.0586
16887SOL     OW55598  10.615   3.930   1.451 -0.0852  0.2685  0.7586
16887SOL    HW155599  10.549   3.920   1.383 -2.6596  1.8519  2.8018
16887SOL    HW255600  10.624   4.025   1.463  0.7993  0.0464  2.1584
16888SOL     OW55601   0.849  11.079   1.991  0.0409  0.1848 -0.5610
16888SOL    HW155602   0.807  11.115   1.913  1.2418  0.5464 -1.0708
16888SOL    HW255603   0.937  11.055   1.962 -0.0630 -1.3163  0.2619
16889SOL     OW55604  10.856   2.497   1.368  0.6005 -0.6013 -0.3632
16889SOL    HW155605  10.765   2.520   1.383  0.8753 -0.5681  1.3590
16889SOL    HW255606  10.872   2.521   1.276  0.1100  3.4838  0.4635
16890SOL     OW55607   6.010   6.422  10.222 -0.0200 -0.5188  0.2387
16890SOL    HW155608   6.096   6.390  10.250  0.5733 -0.7116 -1.6931
16890SOL    HW255609   5.980   6.357  10.158 -0.9732  0.3084 -0.1743
16891SOL     OW55610  10.676   8.227  10.660  0.6687  0.0358 -0.1538
16891SOL    HW155611  10.657   8.157  10.722  0.2603 -1.0045 -1.3929
16891SOL    HW255612  10.593   8.273  10.649  0.7975  0.3678  0.2295
16892SOL     OW55613   6.773   0.495   3.361 -0.1290 -0.4068 -0.5071
16892SOL    HW155614   6.832   0.429   3.398  1.2757  0.2741 -1.4125
16892SOL    HW255615   6.702   0.444   3.321  0.7839 -1.3773 -0.9522
16893SOL     OW55616   4.667   1.555   8.307 -0.2033  0.3951 -0.1908
16893SOL    HW155617   4.693   1.465   8.289  0.4980  0.8578 -1.5562
16893SOL    HW255618   4.571   1.552   8.309 -0.1788 -0.4848  0.4526
16894SOL     OW55619   5.937   8.115   0.956 -0.2101  0.2936 -0.0005
16894SOL    HW155620   6.019   8.069   0.976 -1.1994 -1.4795  0.1856
16894SOL    HW255621   5.941   8.132   0.862 -0.1510 -0.9431 -0.2447
16895SOL     OW55622   3.276   7.882  11.555 -0.2245  0.6845  0.4152
16895SOL    HW155623   3.244   7.809  11.502 -1.1227  1.0434  0.4333
16895SOL    HW255624   3.202   7.943  11.557  0.0450  0.9856  1.5133
16896SOL     OW55625   7.756  11.304   5.254 -0.4837  0.0108  0.3983
16896SOL    HW155626   7.723  11.391   5.232  1.1252  0.5107 -0.1953
16896SOL    HW255627   7.684  11.244   5.233 -1.4957  1.1615  0.5144
16897SOL     OW55628   0.611   0.413   2.787 -0.5782  0.6475  0.1287
16897SOL    HW155629   0.621   0.475   2.860 -0.3549  1.4152 -0.5368
16897SOL    HW255630   0.701   0.399   2.755 -0.6442  0.0975  0.1682
16898SOL     OW55631   3.900   5.079  11.511  0.3058 -0.3150 -0.4303
16898SOL    HW155632   3.919   5.007  11.451 -1.6744 -0.7841 -0.5843
16898SOL    HW255633   3.981   5.094  11.559  1.0940 -1.8464 -1.2388
16899SOL     OW55634   5.951   3.735  10.011  0.6888  0.2601 -0.0272
16899SOL    HW155635   5.960   3.650   9.968  0.7449 -0.1815  0.8368
16899SOL    HW255636   5.959   3.798   9.940 -1.2634 -0.4928 -0.9923
16900SOL     OW55637   3.606   6.268   7.529  0.0502  0.1239 -0.5015
16900SOL    HW155638   3.624   6.191   7.476  0.5052  0.3126 -0.6261
16900SOL    HW255639   3.511   6.272   7.535  0.0298 -0.6106 -0.2456
16901SOL     OW55640   4.666   5.803   4.258 -0.0940  0.5296  0.1140
16901SOL    HW155641   4.590   5.793   4.200 -0.8928  0.0826  1.2154
16901SOL    HW255642   4.698   5.891   4.239 -2.8574  2.0550  1.8960
16902SOL     OW55643   8.136  11.088   2.532  0.0995 -0.2813 -0.4828
16902SOL    HW155644   8.120  10.997   2.510 -0.9239 -0.3152  0.3449
16902SOL    HW255645   8.178  11.084   2.618 -0.8289  0.0657 -0.0108
16903SOL     OW55646   8.190   1.824   5.580  0.2400 -0.0459  0.0105
16903SOL    HW155647   8.114   1.806   5.525 -0.6308  0.5875  0.9560
16903SOL    HW255648   8.262   1.837   5.519 -0.2072 -1.4841 -0.8862
16904SOL     OW55649   8.524   7.596   1.489 -0.8727  0.2022 -0.2009
16904SOL    HW155650   8.542   7.614   1.581  1.0616 -0.6192 -0.3788
16904SOL    HW255651   8.518   7.682   1.448  1.3651  0.5742  0.1623
16905SOL     OW55652   9.638   5.343   3.403 -0.1863 -0.2462 -0.6836
16905SOL    HW155653   9.545   5.361   3.416 -0.2820 -0.8579 -0.4651
16905SOL    HW255654   9.649   5.338   3.308 -0.3273  0.0780 -0.7167
16906SOL     OW55655   3.137   0.972  11.629  0.5413 -0.5788 -0.3474
16906SOL    HW155656   3.133   1.001  11.721  1.6535 -2.4375  0.3360
16906SOL    HW255657   3.129   0.877  11.633 -3.2731 -0.5354 -2.5311
16907SOL     OW55658   1.794   3.081   8.808  0.2921 -0.2216 -0.5827
16907SOL    HW155659   1.789   3.175   8.787 -0.4719 -0.0817  0.1892
16907SOL    HW255660   1.715   3.044   8.769  0.5082 -0.5154 -0.7401
16908SOL     OW55661   2.627   1.647   7.492  0.0323  0.1568 -0.9199
16908SOL    HW155662   2.566   1.662   7.565  0.9300  1.1242 -0.3400
16908SOL    HW255663   2.636   1.552   7.488 -1.1808  0.0145 -0.7458
16909SOL     OW55664   7.241   6.568   5.880 -0.0186 -0.1450 -0.2755
16909SOL    HW155665   7.188   6.565   5.960 -2.0700  0.0847 -1.5574
16909SOL    HW255666   7.252   6.662   5.862  0.1247 -0.1980 -0.4705
16910SOL     OW55667   1.895   0.301   6.191 -0.5420  0.4189  0.4734
16910SOL    HW155668   1.899   0.249   6.272 -2.6059  0.8609  0.9211
16910SOL    HW255669   1.907   0.391   6.220  0.0144  0.4705  0.0980
16911SOL     OW55670   7.304   9.258   1.636  0.9393 -0.7814  0.3817
16911SOL    HW155671   7.300   9.287   1.727  0.0817  1.5779 -0.3323
16911SOL    HW255672   7.328   9.336   1.586 -0.6307 -1.4612 -1.6177
16912SOL     OW55673   2.242   1.896   5.159 -0.0021  0.4022  0.3910
16912SOL    HW155674   2.292   1.862   5.233 -0.9757  0.8342  1.2735
16912SOL    HW255675   2.222   1.986   5.184  2.3549  1.6882 -1.7956
16913SOL     OW55676   2.610  10.649   8.149  0.0610 -0.0585  0.2624
16913SOL    HW155677   2.583  10.610   8.066 -2.0865  2.4744 -0.3801
16913SOL    HW255678   2.560  10.602   8.215 -0.7366  0.0649 -0.2401
16914SOL     OW55679   1.806   0.165   9.622 -0.5305 -0.4730 -0.1463
16914SOL    HW155680   1.778   0.087   9.671 -1.2987 -0.3680 -0.4089
16914SOL    HW255681   1.781   0.238   9.678 -4.4046 -0.1507 -1.9824
16915SOL     OW55682   2.354   6.737   1.993  0.5342 -0.4721 -0.0645
16915SOL    HW155683   2.308   6.672   1.940  1.3906 -1.9836  0.9610
16915SOL    HW255684   2.399   6.793   1.929 -1.5178  0.1716 -1.0216
16916SOL     OW55685   6.291  11.363   6.224  0.2720 -0.5536 -0.2552
16916SOL    HW155686   6.216  11.345   6.280  1.5821 -1.6726  1.2376
16916SOL    HW255687   6.303  11.458   6.229 -0.8988 -0.3895 -0.3576
16917SOL     OW55688  11.584   0.377   1.711  0.4400  0.3518  0.5385
16917SOL    HW155689  11.669   0.404   1.745  0.6238 -0.3865  0.6829
16917SOL    HW255690  11.564   0.297   1.759  0.0213  0.0979 -0.0563
16918SOL     OW55691   9.675   8.755   1.423 -0.1184 -0.1969 -1.2580
16918SOL    HW155692   9.591   8.756   1.469 -0.0216 -0.2609 -1.0777
16918SOL    HW255693   9.723   8.683   1.463  0.1977  0.1286 -1.0441
16919SOL     OW55694  10.867   3.804   0.032  0.0051 -0.4484 -0.2512
16919SOL    HW155695  10.945   3.857   0.015 -0.0353 -0.4299 -0.3780
16919SOL    HW255696  10.846   3.764  -0.052  1.3548 -2.4677  0.3079
16920SOL     OW55697   3.885   0.036   6.410  0.3143  0.0563 -0.1218
16920SOL    HW155698   3.823   0.106   6.390 -0.5254 -0.5574  0.2640
16920SOL    HW255699   3.830  -0.036   6.441  1.2221 -0.5280  0.1611
16921SOL     OW55700   5.618  10.689   1.436 -0.0215 -0.4734  0.6090
16921SOL    HW155701   5.609  10.628   1.362 -0.2989  0.6024 -0.2647
16921SOL    HW255702   5.530  10.724   1.449  0.2280  0.0993  0.7858
16922SOL     OW55703   0.564  11.305   4.392  0.2565  0.7619 -0.3941
16922SOL    HW155704   0.520  11.247   4.454  0.7107  1.0755  0.2293
16922SOL    HW255705   0.638  11.253   4.359  1.0438  1.1845  0.6451
16923SOL     OW55706   0.030   0.101   7.349 -0.3097 -0.1866 -0.4473
16923SOL    HW155707   0.039   0.189   7.387  0.8500 -0.2842 -0.4667
16923SOL    HW255708  -0.029   0.114   7.274  1.2940  0.9499 -1.5839
16924SOL     OW55709   1.251   2.525   1.706  0.3677 -0.1668  0.4374
16924SOL    HW155710   1.253   2.521   1.610 -0.2711  0.6861  0.3823
16924SOL    HW255711   1.191   2.596   1.726  0.3195 -0.4891  1.4828
16925SOL     OW55712   3.579   3.529   6.806  0.7942 -0.0094 -0.6031
16925SOL    HW155713   3.559   3.575   6.887 -0.7589  0.4585 -1.2204
16925SOL    HW255714   3.651   3.578   6.768  0.1824  1.0076 -0.4902
16926SOL     OW55715   3.212   0.566   5.477  0.0236  0.1048  0.0742
16926SOL    HW155716   3.254   0.553   5.392  1.9545  0.7259  0.8629
16926SOL    HW255717   3.134   0.617   5.458 -0.6213 -1.3578 -1.5123
16927SOL     OW55718   5.443   4.908   0.472 -0.3356  0.4466 -0.5329
16927SOL    HW155719   5.467   4.818   0.448  0.5312  0.4520  0.2316
16927SOL    HW255720   5.514   4.936   0.530 -0.6471  1.5992 -0.6967
16928SOL     OW55721   7.975  10.787   3.649 -0.0122 -1.2473  0.3494
16928SOL    HW155722   8.036  10.723   3.610 -0.8457 -1.8722  0.0467
16928SOL    HW255723   7.900  10.788   3.589 -0.0394 -0.0084  0.3811
16929SOL     OW55724   1.509   0.478  10.925 -1.0197 -0.7109 -0.2695
16929SOL    HW155725   1.604   0.476  10.920 -1.0520 -0.0883 -1.8308
16929SOL    HW255726   1.489   0.472  11.018  0.6463  2.4251  0.4030
16930SOL     OW55727  11.564   7.967   4.685 -0.1837  1.0155 -0.5320
16930SOL    HW155728  11.524   7.883   4.710 -0.5504  1.5836  0.8544
16930SOL    HW255729  11.498   8.008   4.629 -0.7405  1.1032  0.1708
16931SOL     OW55730   2.913   3.645   4.681  0.1391  0.0536  0.1121
16931SOL    HW155731   2.950   3.728   4.710 -0.2418  0.9543 -1.8191
16931SOL    HW255732   2.983   3.604   4.629  0.4163 -0.9778  1.2616
16932SOL     OW55733   2.318   6.552  10.709 -0.1552 -0.2485 -0.0811
16932SOL    HW155734   2.282   6.550  10.621 -0.3444  1.8994 -0.0983
16932SOL    HW255735   2.402   6.596  10.700 -0.0551 -0.2378  0.7801
16933SOL     OW55736   1.006   5.381   2.639  0.4270  0.0777  0.1302
16933SOL    HW155737   1.002   5.386   2.544 -0.1682 -0.0995  0.1431
16933SOL    HW255738   1.033   5.468   2.667 -1.2116  0.6969 -0.1106
16934SOL     OW55739   6.695   1.122   6.257 -0.4482  0.0083  0.1215
16934SOL    HW155740   6.638   1.146   6.184 -0.0636 -0.7838 -0.4478
16934SOL    HW255741   6.783   1.145   6.227 -0.0752 -1.9545 -0.4011
16935SOL     OW55742   3.494   5.609   0.844  0.9261  0.2252  0.2959
16935SOL    HW155743   3.484   5.696   0.884  0.1971 -0.2808  1.2759
16935SOL    HW255744   3.582   5.610   0.807  1.2069  1.1298  0.9298
16936SOL     OW55745   6.537   7.361   4.288  0.1629  0.2342  0.1638
16936SOL    HW155746   6.455   7.325   4.255  0.1276  1.0670 -0.6925
16936SOL    HW255747   6.605   7.322   4.232  0.2826  0.2103  0.3222
16937SOL     OW55748   2.898   3.209  10.550  0.4106  0.0539  0.1092
16937SOL    HW155749   2.918   3.271  10.621  0.9419 -0.9430  0.8543
16937SOL    HW255750   2.883   3.126  10.595 -2.3134  0.0336 -0.6926
16938SOL     OW55751   5.387   3.450  11.241  0.1185 -0.4934 -0.0324
16938SOL    HW155752   5.343   3.389  11.183 -3.1117  1.8730 -0.3308
16938SOL    HW255753   5.417   3.397  11.314  1.5864 -3.0700 -2.3124
16939SOL     OW55754   0.666   1.220   4.687 -0.4236 -0.0306  0.0986
16939SOL    HW155755   0.733   1.151   4.682 -0.6731 -0.2069 -0.9605
16939SOL    HW255756   0.677   1.257   4.775  1.1557  0.0300 -0.0812
16940SOL     OW55757   7.558   6.750   0.635  0.5301 -0.5841 -0.1051
16940SOL    HW155758   7.635   6.716   0.590  0.7892 -0.5163  0.2890
16940SOL    HW255759   7.590   6.823   0.687  0.8951 -2.6453  2.8010
16941SOL     OW55760   0.936   7.778   2.404 -0.4230 -0.5033 -0.1700
16941SOL    HW155761   0.971   7.734   2.326  1.1432  1.2877 -0.5724
16941SOL    HW255762   0.945   7.714   2.474 -0.1426 -1.5282 -1.1145
16942SOL     OW55763   3.157   2.227   4.606 -0.0298  0.2109  0.0996
16942SOL    HW155764   3.134   2.260   4.520 -1.4711 -2.1520 -0.5338
16942SOL    HW255765   3.140   2.301   4.665  0.9160  1.8478 -1.5791
16943SOL     OW55766   8.148   9.714   0.886 -0.1777 -0.0539 -0.0888
16943SOL    HW155767   8.236   9.708   0.924 -1.0744  2.1465  2.6901
16943SOL    HW255768   8.156   9.780   0.817  0.4547 -0.3868 -0.3477
16944SOL     OW55769  10.000   6.967   4.913  0.6496 -0.6439  0.4069
16944SOL    HW155770  10.049   6.900   4.866  0.3193 -0.9774  0.5359
16944SOL    HW255771   9.917   6.925   4.934  0.3435 -0.1164  0.2693
16945SOL     OW55772   6.547   7.797   3.600 -0.2250 -0.1504  0.0666
16945SOL    HW155773   6.612   7.800   3.670 -0.3683  3.9155  0.2285
16945SOL    HW255774   6.594   7.825   3.522 -1.3253  0.9555 -0.2290
16946SOL     OW55775   1.226   8.427   7.876 -0.8683 -0.1657  0.7278
16946SOL    HW155776   1.166   8.475   7.933 -2.4181  0.4115 -1.2658
16946SOL    HW255777   1.295   8.491   7.855 -1.2948  0.2168  0.4827
16947SOL     OW55778   5.263   9.086   5.376  0.6998  0.0738 -0.2833
16947SOL    HW155779   5.269   8.996   5.408  1.1246  0.0465 -0.4389
16947SOL    HW255780   5.213   9.132   5.443  1.7643  0.0687  0.5337
16948SOL     OW55781   1.068   3.488  11.662  0.5047  0.2677  0.1295
16948SOL    HW155782   1.029   3.438  11.591  0.9180 -0.6504  0.5205
16948SOL    HW255783   1.140   3.432  11.693 -0.3506  0.1218  1.9777
16949SOL     OW55784   4.283  11.275   9.635  0.3008  0.4401  0.7670
16949SOL    HW155785   4.306  11.183   9.628  2.3574  0.9943 -1.0061
16949SOL    HW255786   4.196  11.276   9.675  0.1837 -2.2371  0.7203
16950SOL     OW55787   2.047   6.179   9.949 -0.1584 -0.3805  0.2348
16950SOL    HW155788   2.083   6.151  10.033 -0.8370 -1.8481  0.0831
16950SOL    HW255789   1.953   6.185   9.965 -0.0205  2.3642  0.3589
16951SOL     OW55790   4.307   6.936   9.307 -0.1420 -0.1162 -0.0538
16951SOL    HW155791   4.313   6.900   9.218  0.9987 -3.6858  1.3086
16951SOL    HW255792   4.230   6.894   9.344  0.7826 -0.5809  1.3934
16952SOL     OW55793   5.467   2.766   5.649  0.2219 -0.4491  0.2540
16952SOL    HW155794   5.476   2.678   5.684 -1.2160 -1.2239 -1.2169
16952SOL    HW255795   5.442   2.819   5.725  2.5037 -0.9489  1.4516
16953SOL     OW55796   3.475   8.814   9.545  0.6076  0.3484 -0.2246
16953SOL    HW155797   3.392   8.847   9.581 -0.0261 -0.8750 -0.4961
16953SOL    HW255798   3.508   8.886   9.492  0.6421  1.5282  1.3163
16954SOL     OW55799   9.707   1.523  10.970 -0.5729  0.1026  0.8668
16954SOL    HW155800   9.779   1.566  11.015 -0.0777  0.3366 -0.1228
16954SOL    HW255801   9.730   1.430  10.971  1.0232  0.3819 -1.5617
16955SOL     OW55802  10.008   7.783  11.166 -0.2321 -1.0585 -0.0617
16955SOL    HW155803   9.941   7.744  11.111 -0.9206 -0.8211  0.5941
16955SOL    HW255804   9.971   7.781  11.254 -0.9377  2.2890 -0.1245
16956SOL     OW55805   8.228   9.183   5.473 -0.2799  0.0133  0.0008
16956SOL    HW155806   8.268   9.216   5.553 -1.7634  1.2919  0.2650
16956SOL    HW255807   8.293   9.200   5.405  0.1448  0.9041  0.6055
16957SOL     OW55808   4.149   4.621   7.958 -0.2842  0.1541 -0.0511
16957SOL    HW155809   4.145   4.642   8.051  3.8331  0.1740  0.2802
16957SOL    HW255810   4.208   4.686   7.921 -0.0476 -1.1886 -2.2337
16958SOL     OW55811   7.376   8.774  10.316 -0.1079 -0.1537  0.1855
16958SOL    HW155812   7.361   8.783  10.410  0.3746 -0.4131  0.2933
16958SOL    HW255813   7.354   8.683  10.297 -0.9452  0.1018 -0.1029
16959SOL     OW55814   2.682   2.551   8.784  0.1894  0.1479 -0.5228
16959SOL    HW155815   2.611   2.591   8.835  0.0411  0.3278 -0.8707
16959SOL    HW255816   2.729   2.497   8.848  0.9320  1.5610  0.1819
16960SOL     OW55817   9.376   7.655   0.375 -0.6481  0.6996 -0.1270
16960SOL    HW155818   9.419   7.570   0.384  0.4799  1.3389  0.8428
16960SOL    HW255819   9.354   7.661   0.282  0.0935 -0.2630 -0.3807
16961SOL     OW55820  11.555  10.411   3.654  0.2733 -0.4690  0.8016
16961SOL    HW155821  11.500  10.482   3.687 -0.3976 -0.7356  0.2648
16961SOL    HW255822  11.494  10.347   3.617  1.0241  0.2831 -1.9491
16962SOL     OW55823   1.001   3.345   2.753 -0.2034  0.3648  0.4098
16962SOL    HW155824   0.983   3.260   2.715 -1.0728  0.0581  1.4639
16962SOL    HW255825   1.096   3.355   2.746 -0.4084  1.1473 -3.4721
16963SOL     OW55826   4.253   5.187   6.082  0.1887  0.1170  0.3090
16963SOL    HW155827   4.227   5.240   6.007 -1.7243  1.6733  1.9666
16963SOL    HW255828   4.190   5.115   6.084  0.0004  0.2923  0.6481
16964SOL     OW55829   2.660  11.535   6.532  0.4308  0.0619 -0.3779
16964SOL    HW155830   2.601  11.586   6.477 -1.0401 -1.2677 -0.1029
16964SOL    HW255831   2.625  11.544   6.620  1.5671  0.4998  0.0430
16965SOL     OW55832   1.695   5.217  11.524  0.0752 -0.2232  0.2035
16965SOL    HW155833   1.769   5.271  11.549  1.0372 -0.7161 -1.3970
16965SOL    HW255834   1.625   5.280  11.502  0.0080  0.2412  1.6678
16966SOL     OW55835   5.740   7.879   0.581 -0.5116  0.1305  0.0526
16966SOL    HW155836   5.680   7.861   0.653 -0.0317  3.0893  1.3457
16966SOL    HW255837   5.688   7.926   0.517  0.0352  1.4881  0.5613
16967SOL     OW55838   0.672   6.573   2.012  0.5807 -0.1793  0.0461
16967SOL    HW155839   0.581   6.591   2.035 -0.1780 -0.3597 -2.5580
16967SOL    HW255840   0.712   6.544   2.094 -1.8566 -0.7188  1.1287
16968SOL     OW55841   7.714   3.284   4.823 -0.6397  0.1856 -0.3229
16968SOL    HW155842   7.650   3.216   4.803 -0.7783 -0.8151  2.9465
16968SOL    HW255843   7.790   3.262   4.769 -0.7787 -2.4561  0.4276
16969SOL     OW55844   3.004   1.474   8.649 -0.2969 -0.1951  0.7166
16969SOL    HW155845   2.919   1.445   8.615 -1.4386  3.0370  0.4686
16969SOL    HW255846   3.008   1.436   8.737 -0.5863 -2.7767 -0.2948
16970SOL     OW55847   8.185  10.563   5.572 -0.4642 -0.4493  0.0447
16970SOL    HW155848   8.269  10.543   5.615 -0.0214 -0.4610 -0.7941
16970SOL    HW255849   8.178  10.658   5.576  0.6611 -0.2319 -1.7445
16971SOL     OW55850   4.284   9.967   5.549 -0.2419  0.0770  0.4126
16971SOL    HW155851   4.227   9.932   5.480 -1.6318 -0.3551  1.7269
16971SOL    HW255852   4.231   9.963   5.629  1.2801  0.6589  1.5098
16972SOL     OW55853   1.651   2.336   5.714  0.2763 -0.3817  0.1170
16972SOL    HW155854   1.705   2.329   5.635 -0.3506 -1.0554 -0.2639
16972SOL    HW255855   1.608   2.251   5.721 -1.1347  0.3031  0.1289
16973SOL     OW55856   2.083   5.490   2.952  0.0934  0.4867 -0.0646
16973SOL    HW155857   2.049   5.545   3.023  2.2907  3.1171 -0.8965
16973SOL    HW255858   2.050   5.531   2.872  2.2808  1.0399 -0.7342
16974SOL     OW55859   6.808   4.743   6.585 -0.3811 -0.7341  0.0730
16974SOL    HW155860   6.718   4.716   6.604 -0.0561 -3.0157 -1.2235
16974SOL    HW255861   6.846   4.668   6.539  2.0642  0.3403  0.1908
16975SOL     OW55862   5.362   5.742   9.124  0.3387 -0.1406  0.6133
16975SOL    HW155863   5.288   5.691   9.092  1.5527 -0.9818 -1.0009
16975SOL    HW255864   5.415   5.759   9.046  0.2205  3.2901  1.0851
16976SOL     OW55865  10.081   9.348   4.132  0.0065 -0.4976 -0.0877
16976SOL    HW155866  10.130   9.390   4.203  0.7339 -0.2383 -0.7155
16976SOL    HW255867  10.000   9.398   4.125  0.2516 -0.0688  0.0963
16977SOL     OW55868   0.355   8.118   9.205 -0.0710 -0.2402 -0.3042
16977SOL    HW155869   0.432   8.147   9.157  0.4555  0.4097  0.9269
16977SOL    HW255870   0.387   8.049   9.263 -0.1383  0.8881  1.1224
16978SOL     OW55871   7.971   7.158   0.897 -0.2995  0.3216  0.0444
16978SOL    HW155872   8.019   7.196   0.823  1.0910 -0.9295  0.2496
16978SOL    HW255873   7.884   7.198   0.893 -0.6709 -0.5499 -2.9492
16979SOL     OW55874   4.307   6.250   7.499  0.2936 -0.0700 -0.1309
16979SOL    HW155875   4.217   6.244   7.466 -0.1115  1.1276  0.7029
16979SOL    HW255876   4.335   6.159   7.509 -0.9084 -0.4563 -0.1672
16980SOL     OW55877   6.382   3.808   1.768 -0.0582 -0.4779  0.2452
16980SOL    HW155878   6.291   3.781   1.758  0.3199 -0.8889 -4.6804
16980SOL    HW255879   6.425   3.736   1.814 -2.0391 -0.4557  2.2772
16981SOL     OW55880   3.832  11.491   3.488 -0.1168  0.6896 -0.2357
16981SOL    HW155881   3.789  11.454   3.411  0.1623 -0.8146  0.2837
16981SOL    HW255882   3.883  11.564   3.455 -0.7409  0.6543 -1.3278
16982SOL     OW55883   7.938   4.932   3.927  0.0678 -0.1330 -0.6419
16982SOL    HW155884   7.973   4.847   3.955 -0.9617  0.1235  1.6444
16982SOL    HW255885   8.015   4.988   3.917  0.5835 -0.5154  0.8784
16983SOL     OW55886   9.573   8.306  11.575  0.0073 -0.5553  0.1308
16983SOL    HW155887   9.626   8.372  11.620  0.8830 -1.2422  0.1241
16983SOL    HW255888   9.628   8.228  11.572 -1.4485 -1.6972  1.2447
16984SOL     OW55889   8.871   4.759  11.277  0.1771 -0.7117  0.1341
16984SOL    HW155890   8.822   4.777  11.197 -0.5737  1.5076  1.0159
16984SOL    HW255891   8.805   4.753  11.345  0.9739  0.8925  1.1153
16985SOL     OW55892  10.071   5.641   2.800 -0.1242 -0.0296 -0.2118
16985SOL    HW155893   9.975   5.645   2.805 -0.2106 -0.7635 -1.0680
16985SOL    HW255894  10.089   5.552   2.769  0.8746 -0.1653  0.7176
16986SOL     OW55895   6.290   5.662   9.237 -0.1892 -0.2900  0.7606
16986SOL    HW155896   6.204   5.690   9.206 -0.2012  0.0943  1.1256
16986SOL    HW255897   6.275   5.574   9.273 -0.1614 -0.7658 -0.3455
16987SOL     OW55898   2.336  11.631   0.616 -0.2451  0.3795  0.4543
16987SOL    HW155899   2.363  11.629   0.708  1.4786 -0.8909 -0.0215
16987SOL    HW255900   2.383  11.705   0.578  2.5756 -1.5999 -0.2835
16988SOL     OW55901   6.401   1.281   2.844 -0.2001  0.1255  0.1953
16988SOL    HW155902   6.414   1.351   2.781 -1.1971  1.5914  1.5331
16988SOL    HW255903   6.345   1.218   2.799  0.6549  0.1915 -1.0030
16989SOL     OW55904   0.412   6.988   7.377  0.1108 -0.2940 -0.4192
16989SOL    HW155905   0.469   6.934   7.323 -0.1647  0.1411 -1.1626
16989SOL    HW255906   0.444   6.975   7.466  3.2394  2.1239 -1.0151
16990SOL     OW55907   3.444  11.001  10.790 -0.2693  0.0342  0.2435
16990SOL    HW155908   3.461  11.073  10.852 -0.0430 -0.9300  1.3455
16990SOL    HW255909   3.531  10.966  10.770 -0.1818  1.2557 -1.8395
16991SOL     OW55910  10.384  10.025   5.589  0.2395  0.3086  0.2275
16991SOL    HW155911  10.293  10.050   5.607  0.3747  0.8069  0.2186
16991SOL    HW255912  10.435  10.073   5.653  0.4389 -0.6410  0.8122
16992SOL     OW55913   4.571  10.325   8.507 -0.4007  0.4852  0.0771
16992SOL    HW155914   4.527  10.380   8.572 -0.9341  0.3509 -0.1711
16992SOL    HW255915   4.640  10.382   8.471  0.7505  0.1615  1.6539
16993SOL     OW55916   1.860   6.580   4.543 -0.1798 -0.3033  0.0318
16993SOL    HW155917   1.835   6.670   4.523  1.0919  0.3608  1.2250
16993SOL    HW255918   1.833   6.567   4.633  0.5236 -0.7796  0.1800
16994SOL     OW55919   6.319  11.471   7.359 -0.6158  0.2134  0.4885
16994SOL    HW155920   6.227  11.450   7.376 -0.4369 -1.7965 -0.6846
16994SOL    HW255921   6.317  11.534   7.287 -1.0898  1.3362  1.4605
16995SOL     OW55922   9.118   1.041   3.130  0.2574  0.2166  0.3332
16995SOL    HW155923   9.062   0.963   3.129  1.2972 -0.6106 -1.9723
16995SOL    HW255924   9.059   1.113   3.150 -1.7310 -0.6046 -2.0637
16996SOL     OW55925   9.301   8.563   5.070  0.1663  0.5079  0.3800
16996SOL    HW155926   9.303   8.557   4.975 -0.4047 -0.6326  0.4174
16996SOL    HW255927   9.376   8.618   5.092 -0.5780  2.0739 -0.7883
16997SOL     OW55928   4.642   2.556  10.374  0.1018 -0.4952 -0.1883
16997SOL    HW155929   4.598   2.476  10.401  0.2964 -0.8738 -0.9531
16997SOL    HW255930   4.725   2.557  10.423  0.4886 -1.2085 -0.8081
16998SOL     OW55931   4.472   4.368   2.044  0.3973 -0.5480 -0.6569
16998SOL    HW155932   4.465   4.398   1.953 -3.1980  0.5827 -0.1556
16998SOL    HW255933   4.545   4.418   2.080 -0.9064  2.4005 -1.8027
16999SOL     OW55934   2.718   5.689   5.110  0.2917  0.1227 -0.5168
16999SOL    HW155935   2.645   5.750   5.121  0.6675  0.7207 -1.2717
16999SOL    HW255936   2.772   5.702   5.188 -0.7309 -0.7953  0.3722
17000SOL     OW55937   3.808   0.579   4.289  0.4552 -0.6445 -0.4159
17000SOL    HW155938   3.839   0.647   4.229  0.0030  0.1276  0.1886
17000SOL    HW255939   3.867   0.585   4.364  0.7234 -1.2764 -0.5735
17001SOL     OW55940   3.826   4.168  11.661 -0.0007 -0.3420  0.0318
17001SOL    HW155941   3.856   4.220  11.736 -0.4583 -2.5893  1.8827
17001SOL    HW255942   3.747   4.124  11.693 -1.7923  0.6302 -2.6953
17002SOL     OW55943   4.797   2.263   2.167 -0.3026 -0.4391 -0.3929
17002SOL    HW155944   4.730   2.272   2.100 -1.4897 -1.6018  0.5931
17002SOL    HW255945   4.754   2.288   2.249  1.0221  0.6340  0.0284
17003SOL     OW55946   0.286  10.266   2.129  0.5698 -0.5011 -0.2048
17003SOL    HW155947   0.339  10.336   2.167 -0.1917  0.2247 -0.4457
17003SOL    HW255948   0.246  10.307   2.052 -1.2137 -0.6954  0.5938
17004SOL     OW55949   2.245   3.148   4.617 -0.5874  0.2324  0.5936
17004SOL    HW155950   2.292   3.066   4.637  0.5300  0.4536 -0.9550
17004SOL    HW255951   2.304   3.195   4.558 -0.7587  2.6507  2.2558
17005SOL     OW55952   2.987   0.759   5.388  0.3179 -0.3571  0.1945
17005SOL    HW155953   2.946   0.690   5.439  1.3821 -0.6967  0.6160
17005SOL    HW255954   2.971   0.839   5.439 -1.8344 -0.0620 -0.8129
17006SOL     OW55955  10.153   4.510   4.075  0.3911 -0.8032 -0.3482
17006SOL    HW155956  10.084   4.490   4.012  0.2680  1.6276 -1.1064
17006SOL    HW255957  10.229   4.530   4.022  0.6356  0.0639  0.3106
17007SOL     OW55958   9.976  10.274   2.514  0.0365 -0.4335 -0.3382
17007SOL    HW155959   9.907  10.326   2.557  0.5685  0.8639 -1.0114
17007SOL    HW255960  10.052  10.283   2.572  0.8408  1.5483 -1.5934
17008SOL     OW55961   8.997  10.144   9.615 -0.2807 -0.5337 -0.1584
17008SOL    HW155962   8.976  10.156   9.523  1.5359  0.5282 -0.4717
17008SOL    HW255963   8.982  10.230   9.654  0.3242 -0.6072  0.2471
17009SOL     OW55964   8.384   3.442   5.279 -0.4045 -0.0349  0.0362
17009SOL    HW155965   8.396   3.448   5.374 -2.9974  2.2945  0.3335
17009SOL    HW255966   8.423   3.523   5.245 -0.0323 -0.5726 -0.8464
17010SOL     OW55967   6.844   0.671   5.461 -0.2838 -0.8801 -0.1731
17010SOL    HW155968   6.775   0.615   5.426 -2.7068  0.3726  2.2023
17010SOL    HW255969   6.866   0.633   5.546  2.0936 -1.2707 -0.8946
17011SOL     OW55970  11.629   7.945   9.716 -0.1368  0.3492  0.5628
17011SOL    HW155971  11.645   8.016   9.654 -0.3420 -0.3331 -0.3047
17011SOL    HW255972  11.702   7.885   9.703  1.0597  1.2678  2.6334
17012SOL     OW55973   7.291   4.779   2.633 -0.2796 -0.2886  0.2931
17012SOL    HW155974   7.296   4.684   2.626 -1.7020 -0.2315 -3.3948
17012SOL    HW255975   7.203   4.796   2.665 -0.8929 -0.2363 -1.3431
17013SOL     OW55976   5.861   7.464   0.252  0.0445 -0.2073  0.1645
17013SOL    HW155977   5.800   7.534   0.229 -0.1869 -0.5924 -0.4060
17013SOL    HW255978   5.883   7.481   0.344 -0.6001  0.1742  0.2528
17014SOL     OW55979   6.518   8.378   6.838  0.2354 -0.2616  0.3559
17014SOL    HW155980   6.448   8.436   6.868  1.1616  0.9089  0.3489
17014SOL    HW255981   6.483   8.290   6.849 -0.1412  0.1582  3.1477
17015SOL     OW55982   8.489   4.615   4.981  0.1087  0.7635 -0.0496
17015SOL    HW155983   8.577   4.615   4.943  1.2465  0.8307  2.3704
17015SOL    HW255984   8.445   4.541   4.940  1.7528 -0.0719 -0.3876
17016SOL     OW55985   0.962   6.230  10.781  0.3491  0.5998 -0.8033
17016SOL    HW155986   0.999   6.312  10.814 -2.5599  2.6201 -2.2289
17016SOL    HW255987   0.868   6.246  10.774  0.0552 -1.5685 -4.6281
17017SOL     OW55988   0.342   6.778   0.953  0.8163 -0.1041  0.3142
17017SOL    HW155989   0.405   6.719   0.995  1.1885  0.0699  0.0049
17017SOL    HW255990   0.354   6.862   0.998  0.6982 -0.1136  0.3616
17018SOL     OW55991   9.034   5.006   7.785  0.2269  0.1919 -0.3166
17018SOL    HW155992   9.072   5.053   7.859 -0.2872 -1.8131  1.3373
17018SOL    HW255993   9.080   4.922   7.784  0.1933  0.1418 -2.2990
17019SOL     OW55994   5.651   5.976   7.777 -0.1624 -0.5437  0.5345
17019SOL    HW155995   5.614   5.964   7.865 -1.6204  0.1696  0.0559
17019SOL    HW255996   5.634   6.068   7.757  0.2206 -0.6899 -0.4620
17020SOL     OW55997   9.533   9.435   1.910  0.3902  0.5632 -0.7291
17020SOL    HW155998   9.483   9.370   1.961 -0.3689  1.6574 -0.0386
17020SOL    HW255999   9.602   9.465   1.970 -1.0168  2.4732  0.0286
17021SOL     OW56000   1.996   8.411   1.478 -0.0574 -0.3957 -0.3775
17021SOL    HW156001   1.918   8.462   1.456 -0.1947 -0.6363 -0.4503
17021SOL    HW256002   2.043   8.403   1.396  0.4572  0.4404 -0.1759
17022SOL     OW56003   7.929   5.492  10.565  0.1416  0.0375  0.0320
17022SOL    HW156004   7.981   5.490  10.645 -0.8301 -0.6489  0.6689
17022SOL    HW256005   7.966   5.565  10.514  1.9425 -0.6364  0.2860
17023SOL     OW56006   7.123   7.642   9.482 -0.0111 -0.1214 -0.5473
17023SOL    HW156007   7.194   7.578   9.493  0.1891 -0.0844 -1.4979
17023SOL    HW256008   7.132   7.700   9.557  1.1417  0.0311 -0.7777
17024SOL     OW56009   6.978   7.412   8.706  0.1806 -0.2069 -0.2278
17024SOL    HW156010   6.902   7.356   8.688 -0.5799  0.4610  0.7579
17024SOL    HW256011   7.026   7.366   8.775 -0.9643  0.7404  1.2805
17025SOL     OW56012   9.627  10.826   3.915  0.2867  0.3273 -0.3943
17025SOL    HW156013   9.694  10.775   3.870 -0.8566 -1.0439 -0.6050
17025SOL    HW256014   9.546  10.807   3.867 -0.3713  1.4807  0.2113
17026SOL     OW56015   3.021   7.208   5.274 -0.1248 -0.4754  0.7698
17026SOL    HW156016   3.112   7.184   5.257 -0.4612 -0.9941 -0.3579
17026SOL    HW256017   3.010   7.191   5.368  1.1646  0.4086  1.1270
17027SOL     OW56018   9.221   5.428   8.945 -0.0467 -0.1455  0.3556
17027SOL    HW156019   9.168   5.363   8.991  0.5023 -0.7084  0.2112
17027SOL    HW256020   9.268   5.474   9.015 -0.1185 -0.1879  0.4316
17028SOL     OW56021   3.446  11.212   1.185 -0.0137  0.1594 -0.5721
17028SOL    HW156022   3.420  11.122   1.208 -0.1009  0.5887  1.1094
17028SOL    HW256023   3.460  11.208   1.090 -0.5728 -1.4905 -0.6369
17029SOL     OW56024  10.638   1.874   0.522 -0.3534  0.1981  0.4001
17029SOL    HW156025  10.715   1.816   0.523 -0.8335 -0.4642  0.2426
17029SOL    HW256026  10.566   1.818   0.552 -0.8168  0.7346  0.3001
17030SOL     OW56027  11.594   2.548  11.188  0.2799 -0.3259  0.5779
17030SOL    HW156028  11.628   2.548  11.099  2.4409 -2.3910  1.2972
17030SOL    HW256029  11.499   2.549  11.178  0.4343 -2.0390 -1.7880
17031SOL     OW56030   1.110   7.068   2.175  0.5047  0.3469 -0.0242
17031SOL    HW156031   1.074   6.980   2.190  0.8740  0.4186  1.4195
17031SOL    HW256032   1.060   7.125   2.234 -0.0139  1.1925 -1.2426
17032SOL     OW56033  10.988   0.936  11.589  0.1571  0.4326 -0.0588
17032SOL    HW156034  11.033   0.870  11.536  1.1096  0.6918  0.3920
17032SOL    HW256035  10.997   0.904  11.679  0.7978  1.2495  0.1815
17033SOL     OW56036   9.256   3.904   4.849  0.0097  0.3695 -0.0199
17033SOL    HW156037   9.345   3.941   4.845  0.5174 -0.8146 -0.1540
17033SOL    HW256038   9.200   3.980   4.864  1.0926  1.0800  0.6399
17034SOL     OW56039   0.490   7.566   5.902  0.2970  0.5323  0.2044
17034SOL    HW156040   0.444   7.561   5.818 -0.8860  0.7772  0.8121
17034SOL    HW256041   0.421   7.555   5.967  1.3037 -0.4492  1.1457
17035SOL     OW56042  10.614  10.299   0.634  0.2819  0.5226 -0.2523
17035SOL    HW156043  10.629  10.376   0.689  1.1271  0.1948 -0.0231
17035SOL    HW256044  10.627  10.224   0.692 -1.6209  0.1779 -0.1823
17036SOL     OW56045   7.616   7.299   1.454  0.0827  0.0164 -0.4678
17036SOL    HW156046   7.619   7.204   1.465 -1.7839  0.0961  1.4015
17036SOL    HW256047   7.674   7.333   1.522 -0.2102  0.2265 -0.3191
17037SOL     OW56048   9.381   3.650   5.469 -0.3783 -0.2387 -0.2107
17037SOL    HW156049   9.304   3.705   5.482  0.0698  0.1869  0.7215
17037SOL    HW256050   9.362   3.601   5.389 -1.4880  0.0728 -0.1565
17038SOL     OW56051   3.509   5.483   5.794 -0.0986 -0.2933 -0.3542
17038SOL    HW156052   3.421   5.478   5.831  0.3229 -1.8179  0.5415
17038SOL    HW256053   3.508   5.421   5.721  0.2573 -0.4000 -0.2723
17039SOL     OW56054   4.334   7.930   3.793  0.7131 -0.4184 -0.4292
17039SOL    HW156055   4.260   7.982   3.763  0.2458 -0.9516 -0.2096
17039SOL    HW256056   4.342   7.859   3.730  1.1183 -0.2992 -0.5195
17040SOL     OW56057   7.971   6.881  11.566 -0.0346  0.1481 -0.5424
17040SOL    HW156058   7.940   6.801  11.524 -0.5295 -0.2546  0.5317
17040SOL    HW256059   8.049   6.906  11.517 -0.6010 -0.2819 -1.6760
17041SOL     OW56060   5.649  10.527   9.665  0.0095  0.0923  0.1054
17041SOL    HW156061   5.597  10.603   9.640 -0.8881 -0.8726 -1.1674
17041SOL    HW256062   5.722  10.562   9.716  0.1432  1.8837 -1.2412
17042SOL     OW56063   3.620   7.237   0.867  0.2016  0.0198 -0.1924
17042SOL    HW156064   3.652   7.185   0.793 -0.5801 -1.4216  0.4333
17042SOL    HW256065   3.526   7.242   0.854  0.0441 -0.2996  0.7052
17043SOL     OW56066   2.974   9.881   8.831  0.3538  0.2422 -0.6726
17043SOL    HW156067   2.995   9.947   8.765 -0.6168  0.4164 -0.8179
17043SOL    HW256068   2.893   9.913   8.872  0.3836 -0.3871 -0.1048
17044SOL     OW56069   0.506   5.346   5.510 -0.0673  0.0112  0.5631
17044SOL    HW156070   0.439   5.278   5.501  0.3257 -0.1604 -1.6278
17044SOL    HW256071   0.460   5.428   5.489  0.1095  0.0500  0.3218
17045SOL     OW56072   0.414   3.603  10.334  0.0739 -0.3801  0.0360
17045SOL    HW156073   0.442   3.670  10.271  1.6719 -0.1631  0.9137
17045SOL    HW256074   0.362   3.542  10.282 -1.9344  1.8048 -0.6875
17046SOL     OW56075  10.774   3.915   9.348  0.4511  0.4317  0.3598
17046SOL    HW156076  10.763   3.917   9.443  0.7272  0.4600  0.3920
17046SOL    HW256077  10.768   4.006   9.321 -0.8335  0.3216  0.2059
17047SOL     OW56078   0.436   5.161   6.730  0.1160  0.1123 -0.7425
17047SOL    HW156079   0.466   5.193   6.815  1.1540  0.5343 -1.2473
17047SOL    HW256080   0.491   5.085   6.712 -0.2600 -0.1188 -0.9418
17048SOL     OW56081   6.024   4.110   3.926  0.3354  0.3163 -0.1607
17048SOL    HW156082   6.051   4.113   4.017 -1.6947  1.5240  0.4759
17048SOL    HW256083   6.023   4.017   3.903  0.7426 -0.0051  1.0780
17049SOL     OW56084   9.957   0.867   9.589 -0.3494 -0.4973  0.3475
17049SOL    HW156085   9.997   0.952   9.571 -1.2666 -0.1442 -0.0564
17049SOL    HW256086   9.863   0.884   9.588 -0.5219 -1.2858  1.4357
17050SOL     OW56087   1.438   0.148   2.926  0.3175  0.4373 -0.6057
17050SOL    HW156088   1.380   0.222   2.908  0.1741  1.1421  2.2583
17050SOL    HW256089   1.383   0.085   2.972  1.4104  0.5020  0.8805
17051SOL     OW56090   2.133   4.845   3.920 -0.0144 -0.0774  0.0881
17051SOL    HW156091   2.101   4.807   4.003 -0.2280  0.0500  0.0663
17051SOL    HW256092   2.223   4.872   3.939 -0.2943  0.6014  0.4953
17052SOL     OW56093   2.239   9.846   3.765  0.1370 -0.7921  0.2624
17052SOL    HW156094   2.214   9.938   3.764  1.2539 -0.4686  0.2494
17052SOL    HW256095   2.187   9.808   3.835 -0.9409 -0.3437 -0.2702
17053SOL     OW56096  10.874   8.072   3.851 -0.0957 -0.6577 -0.6967
17053SOL    HW156097  10.901   8.109   3.767 -0.0006  1.6998  0.2884
17053SOL    HW256098  10.799   8.016   3.829 -1.0587  1.0842 -2.2238
17054SOL     OW56099   8.215   6.346   7.013  0.0866 -0.4012 -0.0456
17054SOL    HW156100   8.241   6.382   7.098 -1.6938  0.2819  0.2676
17054SOL    HW256101   8.223   6.251   7.023  0.1373 -0.3165  0.8029
17055SOL     OW56102   7.408   6.408   6.994  0.1520 -0.4697  0.2984
17055SOL    HW156103   7.490   6.444   6.961  0.2299 -1.3873 -0.5338
17055SOL    HW256104   7.349   6.409   6.919 -1.0672  1.4589  1.2127
17056SOL     OW56105   8.910   5.081   2.231 -0.4083  0.3671 -0.0413
17056SOL    HW156106   8.990   5.060   2.184 -0.3441 -1.3525  0.7727
17056SOL    HW256107   8.867   5.147   2.176  1.8419  1.8577 -0.1648
17057SOL     OW56108   3.591   3.157   9.604  0.0721  0.0786 -0.3065
17057SOL    HW156109   3.680   3.133   9.629 -0.6254 -2.4463  0.0638
17057SOL    HW256110   3.594   3.162   9.508  0.6024 -0.0340 -0.2982
17058SOL     OW56111  10.843   8.290   9.115 -0.0037 -0.3809 -0.3898
17058SOL    HW156112  10.913   8.343   9.153  0.5728 -0.8819 -0.7446
17058SOL    HW256113  10.807   8.241   9.189 -1.4496  1.4591  0.2241
17059SOL     OW56114   9.429   6.060   2.865  0.0405 -0.0552  0.0773
17059SOL    HW156115   9.426   6.146   2.906 -0.0759 -0.3423  0.6821
17059SOL    HW256116   9.350   6.056   2.810  1.8609  1.6717 -2.9832
17060SOL     OW56117   4.648   4.949   2.631  0.9863 -0.1910 -0.0494
17060SOL    HW156118   4.676   4.859   2.648  1.4180  0.0728  0.6979
17060SOL    HW256119   4.693   5.001   2.698  1.1204  0.6459 -0.7825
17061SOL     OW56120   1.403  11.288   4.235 -0.3973 -0.4263 -0.0247
17061SOL    HW156121   1.439  11.325   4.154 -0.3120 -0.6379 -0.0836
17061SOL    HW256122   1.311  11.314   4.234 -0.4612 -0.6589 -0.3241
17062SOL     OW56123   0.883   6.353   1.958 -0.1143  0.2225 -0.5227
17062SOL    HW156124   0.929   6.383   2.037 -1.2219  0.6509 -0.0126
17062SOL    HW256125   0.931   6.393   1.886  0.8898 -0.1291 -0.0759
17063SOL     OW56126   4.768  10.313   0.250 -0.4520  0.4345 -0.0816
17063SOL    HW156127   4.677  10.332   0.231 -0.1780 -0.5305 -2.7278
17063SOL    HW256128   4.803  10.395   0.285 -2.9592 -0.0191  4.2926
17064SOL     OW56129  11.557   4.457  11.615  0.8709 -0.1482  0.5717
17064SOL    HW156130  11.607   4.539  11.619 -0.6819  0.9406 -1.1834
17064SOL    HW256131  11.466   4.483  11.625  0.0127 -1.1942 -3.0748
17065SOL     OW56132   1.476  10.444  10.518 -0.8469  0.2217 -0.2573
17065SOL    HW156133   1.513  10.470  10.434  0.4439  3.0205  1.0283
17065SOL    HW256134   1.488  10.349  10.522 -1.0707 -0.0064 -3.2204
17066SOL     OW56135   7.465   0.118  11.304 -0.6087 -0.0530 -0.1548
17066SOL    HW156136   7.441   0.049  11.242  0.1508  0.6609 -1.2814
17066SOL    HW256137   7.560   0.110  11.314 -0.3260  1.4793 -1.1766
17067SOL     OW56138   8.315   2.586   5.343 -0.5284 -0.0936  0.6153
17067SOL    HW156139   8.389   2.547   5.296 -1.7439 -0.3446 -1.1585
17067SOL    HW256140   8.337   2.679   5.349 -0.5596  0.0404 -0.9283
17068SOL     OW56141   1.425   4.278   5.352  0.8048 -0.3221 -0.3899
17068SOL    HW156142   1.432   4.372   5.370 -0.8138 -0.4069  0.8883
17068SOL    HW256143   1.347   4.270   5.297 -0.4048 -1.0745  1.3423
17069SOL     OW56144   3.975   5.564   3.783 -0.2274 -0.0357  0.4122
17069SOL    HW156145   4.004   5.473   3.781  2.3800  0.7395 -0.0060
17069SOL    HW256146   3.887   5.560   3.822 -1.0842 -2.9018 -1.5139
17070SOL     OW56147   0.414   6.205  10.108 -0.3485  0.0871 -0.8927
17070SOL    HW156148   0.472   6.138  10.072  0.0740  0.8478 -1.6794
17070SOL    HW256149   0.335   6.157  10.134  0.9773 -1.1558  1.1884
17071SOL     OW56150   5.174   8.207   1.868 -0.0094 -0.2293 -0.2106
17071SOL    HW156151   5.159   8.252   1.785  0.4708  0.6404  0.1572
17071SOL    HW256152   5.200   8.276   1.929 -4.9198  0.0385  2.0302
17072SOL     OW56153   3.752   9.867   1.465 -0.3923  0.3839 -0.6896
17072SOL    HW156154   3.703   9.947   1.480  2.0583  1.8320  0.0874
17072SOL    HW256155   3.746   9.818   1.547  0.0475  0.9061 -0.3423
17073SOL     OW56156   1.670   7.969   9.758 -0.0750 -0.1519 -0.0422
17073SOL    HW156157   1.579   7.996   9.748 -0.0319  0.1191  0.2778
17073SOL    HW256158   1.699   7.949   9.669 -0.4377 -0.2105 -0.1467
17074SOL     OW56159   2.981   5.506  10.176  0.2694 -0.8554 -0.1769
17074SOL    HW156160   2.943   5.564  10.110  1.4679 -0.9627 -0.9838
17074SOL    HW256161   2.906   5.458  10.211 -0.8027  1.2820  0.6707
17075SOL     OW56162   5.198  11.511   3.954  0.5297 -0.2199 -0.4479
17075SOL    HW156163   5.240  11.556   4.027 -0.8149  0.1267  0.1569
17075SOL    HW256164   5.228  11.557   3.876 -0.1995  1.2456  0.1073
17076SOL     OW56165   8.399   6.890   5.383 -0.5201 -0.1725 -0.1121
17076SOL    HW156166   8.481   6.841   5.388 -1.1637 -1.1869  1.5786
17076SOL    HW256167   8.424   6.976   5.351  1.0995 -0.6716 -0.2825
17077SOL     OW56168   4.402   8.256   8.720 -0.2619  0.3198 -0.3504
17077SOL    HW156169   4.324   8.312   8.723  1.0690  2.6839 -3.7158
17077SOL    HW256170   4.367   8.167   8.723 -2.8798  1.2619  0.4959
17078SOL     OW56171   7.538  11.154   5.263 -0.0154 -0.6123 -0.2360
17078SOL    HW156172   7.503  11.074   5.224 -2.2562  0.1667  0.0503
17078SOL    HW256173   7.473  11.179   5.329  0.7375  1.3266 -0.1678
17079SOL     OW56174   5.620   4.205   9.898  0.2002  0.6525 -0.5056
17079SOL    HW156175   5.606   4.172   9.809 -0.5135  1.6654 -0.7892
17079SOL    HW256176   5.549   4.166   9.949  2.0299 -1.9984  0.2601
17080SOL     OW56177   0.348   6.667   5.908 -0.0072 -0.4359  0.0538
17080SOL    HW156178   0.394   6.735   5.958 -0.4055 -0.2884  0.2201
17080SOL    HW256179   0.410   6.594   5.905  0.6243  0.1136 -0.5679
17081SOL     OW56180   2.091   5.008   8.765 -0.2401  0.8196  0.0086
17081SOL    HW156181   2.037   5.057   8.827 -0.9049  1.2104 -0.8551
17081SOL    HW256182   2.069   5.046   8.680  2.2722  1.8106 -0.2817
17082SOL     OW56183   9.235   7.320   7.399  0.2919 -0.2038  0.3900
17082SOL    HW156184   9.215   7.342   7.490  0.3239  3.8185 -0.3696
17082SOL    HW256185   9.330   7.334   7.392  0.4195 -1.2604 -0.0856
17083SOL     OW56186   0.632   6.564  11.438  0.5157  0.4741 -0.4298
17083SOL    HW156187   0.546   6.596  11.466  1.1758  1.5581  0.4329
17083SOL    HW256188   0.633   6.472  11.467 -0.1487  0.6050  0.0504
17084SOL     OW56189   4.139  11.336  10.992  0.3027 -0.4517  0.4187
17084SOL    HW156190   4.112  11.294  11.073 -1.4738  0.4088  0.3099
17084SOL    HW256191   4.138  11.430  11.012  0.9415 -0.2809 -0.2909
17085SOL     OW56192   9.168   0.155  11.172 -0.0681 -0.1684  0.5686
17085SOL    HW156193   9.198   0.204  11.249 -1.3060 -0.4927  1.2955
17085SOL    HW256194   9.211   0.070  11.181  2.0943  0.7143 -0.7023
17086SOL     OW56195   4.710  10.730   3.586  0.0831  0.5423 -0.6024
17086SOL    HW156196   4.649  10.672   3.633 -0.5662  1.3599 -0.4282
17086SOL    HW256197   4.780  10.671   3.557  1.1936  0.1587  2.4629
17087SOL     OW56198   2.343  11.072   4.624  0.2811  0.3726  0.2097
17087SOL    HW156199   2.365  11.043   4.536  0.3865 -1.7370  0.8691
17087SOL    HW256200   2.417  11.127   4.650 -0.5475  2.4906 -1.5799
17088SOL     OW56201   3.109   2.049   4.361  0.0436  0.0700  0.0626
17088SOL    HW156202   3.180   1.985   4.362 -0.6845 -0.7489 -0.4141
17088SOL    HW256203   3.136   2.114   4.297  0.2730 -0.3443 -0.2621
17089SOL     OW56204   1.571   6.915   1.877 -0.0391 -0.0783  0.2945
17089SOL    HW156205   1.492   6.968   1.873  1.5547  2.5884  0.9073
17089SOL    HW256206   1.589   6.891   1.786 -0.5352  0.9800 -0.1052
17090SOL     OW56207   3.892  10.592   4.535 -0.2082 -0.5208  0.4979
17090SOL    HW156208   3.843  10.560   4.610  0.6637 -0.2091  1.2311
17090SOL    HW256209   3.901  10.517   4.477 -2.2915 -0.3605 -0.0811
17091SOL     OW56210   8.320   3.074   9.335  0.3440  0.2783  0.8626
17091SOL    HW156211   8.282   3.004   9.283 -0.7694  1.6457 -0.2313
17091SOL    HW256212   8.413   3.072   9.312  0.0031  0.3874 -0.6563
17092SOL     OW56213   0.470   3.528   9.786 -0.2758  0.0702 -0.2054
17092SOL    HW156214   0.426   3.446   9.807 -3.0993  0.9531 -2.1027
17092SOL    HW256215   0.502   3.516   9.697  2.6539 -0.1794  0.7707
17093SOL     OW56216   7.850   2.816   8.606  0.9555  0.4605 -0.3178
17093SOL    HW156217   7.881   2.742   8.553 -1.1768 -0.6308 -0.1410
17093SOL    HW256218   7.847   2.890   8.546  0.9360 -0.1568 -1.0867
17094SOL     OW56219   0.524  10.456   2.427  0.3279  0.0857  0.0704
17094SOL    HW156220   0.585  10.382   2.435 -0.4971 -0.8856 -1.8861
17094SOL    HW256221   0.573  10.531   2.460  2.1269 -0.8869 -0.2408
17095SOL     OW56222   6.066   7.283   6.267 -0.2485  0.6979  0.2915
17095SOL    HW156223   5.978   7.244   6.265 -0.4574  1.1624  0.3516
17095SOL    HW256224   6.125   7.208   6.278 -0.6853  0.4563  1.0697
17096SOL     OW56225   2.430   3.877   2.197 -0.3491 -0.1407  0.5553
17096SOL    HW156226   2.469   3.791   2.207  1.2440  0.4822 -0.0090
17096SOL    HW256227   2.428   3.914   2.285 -2.1908 -1.1713  1.0143
17097SOL     OW56228   8.538   2.459  11.656  0.4235 -0.6018 -0.5078
17097SOL    HW156229   8.617   2.491  11.700  0.5436 -1.9092  0.2746
17097SOL    HW256230   8.570   2.419  11.575  0.4188 -0.0522 -0.7888
17098SOL     OW56231   7.860   8.754   0.131  0.4813  0.3210  0.0759
17098SOL    HW156232   7.768   8.773   0.149  0.5507 -0.5083  1.4109
17098SOL    HW256233   7.859   8.707   0.047 -0.3343  0.0460  0.2373
17099SOL     OW56234   0.788   9.601  11.243 -0.3420 -0.6905 -0.5456
17099SOL    HW156235   0.854   9.620  11.177  1.1897  1.6388  1.4627
17099SOL    HW256236   0.831   9.543  11.305 -1.1437 -1.3533 -0.5850
17100SOL     OW56237  10.824   1.524   2.844 -0.1737 -0.5590  0.2443
17100SOL    HW156238  10.843   1.459   2.912  0.6415 -1.4336 -0.7814
17100SOL    HW256239  10.758   1.581   2.883  0.2001 -1.0900  1.7331
17101SOL     OW56240  11.413   9.601   5.997  0.0152  0.5166  0.7478
17101SOL    HW156241  11.324   9.582   6.024  0.8660 -2.3352  1.9172
17101SOL    HW256242  11.429   9.542   5.923  0.4591  2.2134 -0.5914
17102SOL     OW56243   8.030   7.879  10.470 -0.2742  0.2532 -0.3356
17102SOL    HW156244   8.096   7.915  10.528  0.2995 -1.0884 -0.1191
17102SOL    HW256245   7.989   7.808  10.520  0.3061 -1.0009 -1.5567
17103SOL     OW56246   6.119  11.321  10.336  0.0997  0.2107  0.1728
17103SOL    HW156247   6.203  11.285  10.367 -0.3013 -0.9273 -0.0377
17103SOL    HW256248   6.107  11.401  10.388  0.0047 -1.0366  2.1719
17104SOL     OW56249   1.649   2.662  10.935  0.4498 -0.1298  0.2940
17104SOL    HW156250   1.647   2.719  11.012  1.4072  1.3639 -0.7427
17104SOL    HW256251   1.578   2.694  10.879  1.9523  1.0946 -0.9774
17105SOL     OW56252   3.968   9.074   3.408  0.1658 -0.2551  0.0909
17105SOL    HW156253   3.901   9.045   3.346 -0.2777  0.6933  0.1074
17105SOL    HW256254   3.941   9.163   3.432  0.0010 -0.8037  2.0973
17106SOL     OW56255   1.012   3.721   4.496  0.2255 -0.3803 -0.7047
17106SOL    HW156256   0.924   3.714   4.458 -0.0593  1.3511 -0.4295
17106SOL    HW256257   1.062   3.772   4.432  0.5854 -0.0135 -0.1429
17107SOL     OW56258  10.304   0.253   2.965 -0.2855  0.3973  0.0292
17107SOL    HW156259  10.387   0.271   2.921  0.1296 -1.5117 -0.0747
17107SOL    HW256260  10.330   0.213   3.048 -1.0796 -0.9207 -0.3309
17108SOL     OW56261   2.392   8.144   0.427  0.3961  0.0840  0.0863
17108SOL    HW156262   2.336   8.217   0.455  2.2539  1.9744 -0.8295
17108SOL    HW256263   2.343   8.103   0.355 -1.0768 -0.1996  1.1877
17109SOL     OW56264   6.237   6.534   1.976  0.4902 -0.0137  0.4870
17109SOL    HW156265   6.295   6.549   2.051 -0.6300  1.6890  1.0475
17109SOL    HW256266   6.229   6.438   1.971  0.3564 -0.1639  2.7263
17110SOL     OW56267   4.228   6.047   6.528  0.0836 -0.4134  0.2821
17110SOL    HW156268   4.179   6.054   6.610  1.4625  3.4525  0.9604
17110SOL    HW256269   4.320   6.046   6.554  0.5381 -0.6554 -1.2160
17111SOL     OW56270   6.896   0.969   9.226 -0.3531 -0.2419 -0.3261
17111SOL    HW156271   6.950   1.032   9.274  0.2803 -2.0430  1.4200
17111SOL    HW256272   6.814   0.965   9.276 -0.2001 -1.1435 -0.1386
17112SOL     OW56273   9.622   8.394   7.829  0.8707 -0.1647 -0.0105
17112SOL    HW156274   9.648   8.357   7.914  2.1762  0.1687 -0.2458
17112SOL    HW256275   9.541   8.443   7.848  1.0324 -0.2636  0.9971
17113SOL     OW56276   6.504  10.284   4.122  0.0527 -0.8150 -0.3967
17113SOL    HW156277   6.490  10.219   4.053  0.9133  0.1591 -1.5264
17113SOL    HW256278   6.587  10.258   4.164  1.4795  0.5972 -2.1641
17114SOL     OW56279   9.278   9.055  11.565 -0.0589  0.1487 -0.0608
17114SOL    HW156280   9.372   9.051  11.578 -0.1862  0.0584  0.8430
17114SOL    HW256281   9.264   9.013  11.480  0.9389  2.1840 -1.3206
17115SOL     OW56282   4.545   5.720   1.451  0.1680  0.0163  0.5607
17115SOL    HW156283   4.587   5.646   1.406 -0.4897 -0.5762  0.8968
17115SOL    HW256284   4.586   5.797   1.412  1.3666 -0.5221  0.6811
17116SOL     OW56285   1.038   6.633   1.301 -0.6668 -0.1808 -0.0267
17116SOL    HW156286   0.990   6.551   1.287 -0.1104 -0.5284  0.0617
17116SOL    HW256287   0.993   6.675   1.374 -1.0222 -0.3554 -0.1426
17117SOL     OW56288   1.635   5.449   2.440 -0.2405 -0.3781 -0.2541
17117SOL    HW156289   1.631   5.505   2.362  2.9392 -0.3551 -0.5257
17117SOL    HW256290   1.603   5.364   2.410 -0.6682  0.0756 -1.1127
17118SOL     OW56291   3.545  10.342   4.245 -0.0555  0.1304 -0.3839
17118SOL    HW156292   3.487  10.377   4.313 -0.7184 -1.5040 -0.0647
17118SOL    HW256293   3.515  10.252   4.232 -0.1235  0.4635 -3.0689
17119SOL     OW56294   2.049   9.445  10.012  0.0793  0.3986  0.2405
17119SOL    HW156295   2.079   9.365   9.968 -1.0696  0.5832 -0.9184
17119SOL    HW256296   2.103   9.449  10.092 -0.7163 -2.2468  1.0350
17120SOL     OW56297  10.482   9.984   5.901  0.2441  0.5858 -0.0015
17120SOL    HW156298  10.436   9.901   5.887  3.2154 -1.6457  2.0465
17120SOL    HW256299  10.417  10.040   5.944 -1.4190 -1.2516  0.0349
17121SOL     OW56300   4.969  10.409  10.167 -0.0877  0.0657  0.3477
17121SOL    HW156301   4.959  10.502  10.189  0.5460  0.1294  0.3955
17121SOL    HW256302   5.064  10.396  10.164 -0.1726 -0.6498  0.6394
17122SOL     OW56303   1.092   6.203   8.301 -0.2139 -0.0725 -0.1105
17122SOL    HW156304   1.163   6.241   8.248 -0.2325 -0.9754 -0.8230
17122SOL    HW256305   1.138   6.151   8.367 -0.2005  0.5128  0.3472
17123SOL     OW56306   8.954   2.661   4.301  0.5187 -0.0626 -0.2453
17123SOL    HW156307   8.918   2.665   4.389  1.3857 -0.7927  0.1622
17123SOL    HW256308   8.902   2.723   4.250 -1.3377 -1.0978  0.2854
17124SOL     OW56309   1.113  10.697   9.905  0.5144 -0.2593  0.2043
17124SOL    HW156310   1.144  10.783   9.934 -3.7520  0.3874  3.9072
17124SOL    HW256311   1.165  10.634   9.956  0.9239  0.3178  0.5114
17125SOL     OW56312   1.796  11.091   1.636  0.0656 -0.3665  0.3752
17125SOL    HW156313   1.798  11.062   1.545  3.4019 -2.7973  1.0361
17125SOL    HW256314   1.751  11.021   1.683 -0.6354  0.3333  0.7724
17126SOL     OW56315   7.238   1.889   5.541 -0.4527 -0.1928 -0.0543
17126SOL    HW156316   7.302   1.828   5.504 -0.3672 -1.6334  2.2581
17126SOL    HW256317   7.164   1.833   5.567 -0.8099  0.8087  1.1778
17127SOL     OW56318   4.177  11.583   9.373  0.3589 -0.0125  0.2227
17127SOL    HW156319   4.082  11.591   9.363  0.4644 -0.3556 -1.3634
17127SOL    HW256320   4.192  11.490   9.387  0.4083  0.1637  1.4298
17128SOL     OW56321   6.896   7.796   0.120 -0.2353 -0.0564 -0.0756
17128SOL    HW156322   6.917   7.788   0.027  0.5845  0.7185  0.0172
17128SOL    HW256323   6.965   7.747   0.164 -0.1374  0.2814  0.1502
17129SOL     OW56324  11.353   1.926   0.053 -0.1362  0.0218 -0.2583
17129SOL    HW156325  11.329   2.019   0.049 -0.0822  0.0430 -0.1030
17129SOL    HW256326  11.433   1.924   0.105 -1.0212 -0.2637  1.1462
17130SOL     OW56327   5.438   9.228   6.279 -0.3287 -0.0319  0.8692
17130SOL    HW156328   5.344   9.237   6.288 -0.0434  1.3942  2.8325
17130SOL    HW256329   5.467   9.312   6.243  0.2544 -0.3012  0.6947
17131SOL     OW56330   5.630  10.096   1.889 -0.0908  0.3451 -0.3219
17131SOL    HW156331   5.675  10.156   1.830  1.4745 -0.9122 -0.4634
17131SOL    HW256332   5.694  10.075   1.956 -0.4198 -1.5230 -0.5291
17132SOL     OW56333   1.453   2.163   3.907  0.0353 -0.6381  0.0308
17132SOL    HW156334   1.513   2.089   3.900  0.1413 -0.4586 -1.2548
17132SOL    HW256335   1.393   2.152   3.834  0.3299  0.7689 -0.4656
17133SOL     OW56336   9.179   0.098   1.375  0.4517 -0.4856  0.0262
17133SOL    HW156337   9.246   0.157   1.340  1.1199 -0.5996  1.0639
17133SOL    HW256338   9.207   0.011   1.347  1.6951 -0.7268  1.8018
17134SOL     OW56339   6.036  10.255   1.293 -0.3693 -0.3427  0.3274
17134SOL    HW156340   5.960  10.269   1.349  0.3948 -0.9738  1.5621
17134SOL    HW256341   6.106  10.305   1.334 -0.3374  1.0875 -1.3712
17135SOL     OW56342   8.393   6.691   6.764 -0.3224  0.3416 -0.1366
17135SOL    HW156343   8.309   6.645   6.768 -1.2271  1.9397 -0.0601
17135SOL    HW256344   8.392   6.750   6.839  0.0869  1.6539 -1.1265
17136SOL     OW56345   2.061  11.519   5.788  0.5263 -0.3255  0.1161
17136SOL    HW156346   2.048  11.588   5.853 -0.6393 -0.5958  0.1811
17136SOL    HW256347   2.010  11.445   5.820  0.4065 -0.6529 -0.8062
17137SOL     OW56348   2.964   1.292   7.229 -0.2354  0.0966 -0.3091
17137SOL    HW156349   2.927   1.237   7.298  1.0214  0.9645  1.1268
17137SOL    HW256350   2.895   1.297   7.163 -0.2516 -3.5390 -0.7739
17138SOL     OW56351   9.844   5.590   1.329 -0.3760  0.5469 -0.5288
17138SOL    HW156352   9.872   5.502   1.357 -0.3914  0.5100 -0.6317
17138SOL    HW256353   9.749   5.588   1.335 -0.3444  0.8227  0.2844
17139SOL     OW56354   0.440   5.396   7.199 -0.2578 -0.3570  0.3096
17139SOL    HW156355   0.363   5.340   7.191  0.8137 -2.1391  1.8692
17139SOL    HW256356   0.445   5.416   7.293 -0.2672  1.9479 -0.1130
17140SOL     OW56357   1.166   5.950  11.581  0.0881  0.2026  0.2737
17140SOL    HW156358   1.087   5.969  11.532 -0.0290  0.7256  0.6593
17140SOL    HW256359   1.135   5.915  11.665  0.2349  1.4242  0.8512
17141SOL     OW56360   1.468   6.877   5.561  0.5236 -0.5154  0.8079
17141SOL    HW156361   1.549   6.825   5.565  1.5961  0.8587 -1.4083
17141SOL    HW256362   1.416   6.835   5.493  0.4373  0.0239  0.5378
17142SOL     OW56363   5.259   4.770  10.331 -0.3549  0.2941  0.2711
17142SOL    HW156364   5.206   4.777  10.252 -1.7494  0.4721  1.1901
17142SOL    HW256365   5.320   4.699  10.313 -0.8726  0.1174 -0.8391
17143SOL     OW56366   9.729   5.542  10.013  0.1828 -0.1917 -0.0202
17143SOL    HW156367   9.810   5.552  10.062 -0.0060  0.8940  0.1057
17143SOL    HW256368   9.660   5.549  10.080 -0.0296 -0.1935 -0.2381
17144SOL     OW56369   7.921   9.716   1.236  0.8883  0.7859 -0.0477
17144SOL    HW156370   7.984   9.648   1.212  1.2306 -0.3501  3.5668
17144SOL    HW256371   7.835   9.673   1.226  0.8781  1.0201 -1.1023
17145SOL     OW56372   6.970   8.436   2.835 -0.1091 -0.1876 -0.2088
17145SOL    HW156373   6.877   8.446   2.815 -0.2758 -0.3065  0.4784
17145SOL    HW256374   6.972   8.372   2.907  0.2711  1.8668  1.7445
17146SOL     OW56375   1.716   5.716   2.559 -0.1768  0.1044  0.4161
17146SOL    HW156376   1.760   5.779   2.502  2.0895 -0.7270  1.1466
17146SOL    HW256377   1.684   5.648   2.500  0.8966 -0.0441 -0.0100
17147SOL     OW56378   9.013   7.218   7.853 -0.1051 -0.4219 -0.5101
17147SOL    HW156379   8.919   7.204   7.863 -1.2166  2.7234 -4.0356
17147SOL    HW256380   9.032   7.292   7.910  0.1164 -0.7147 -0.2017
17148SOL     OW56381   5.013   3.198   1.386 -0.2644 -0.3067  0.3398
17148SOL    HW156382   4.955   3.180   1.460 -0.4702  0.2128  0.3082
17148SOL    HW256383   4.963   3.256   1.329  0.0149 -0.4384 -0.0499
17149SOL     OW56384   2.798   0.991   0.551 -0.5181 -0.3675 -1.1731
17149SOL    HW156385   2.846   0.961   0.474 -0.8277 -0.9921 -1.1285
17149SOL    HW256386   2.758   0.912   0.586 -1.5201  0.1380 -1.1614
17150SOL     OW56387   2.308  11.638  10.461  0.3902 -0.2609 -0.8938
17150SOL    HW156388   2.337  11.617  10.550 -1.6985 -2.5853 -0.6431
17150SOL    HW256389   2.343  11.567  10.407  1.1098  0.7847 -1.8525
17151SOL     OW56390   7.499  11.618   5.835  0.4176  0.5357  0.1463
17151SOL    HW156391   7.502  11.576   5.921 -0.1789 -0.1197 -0.1488
17151SOL    HW256392   7.408  11.643   5.822 -0.1705 -2.1428 -1.5797
17152SOL     OW56393  10.102   6.420   3.466  0.1918 -0.0989  0.1933
17152SOL    HW156394  10.183   6.405   3.418 -1.1124  0.7904 -2.4501
17152SOL    HW256395  10.071   6.332   3.487  0.0168 -0.6465 -2.1012
17153SOL     OW56396   4.855   8.019   6.719  0.5713  0.0066 -0.1466
17153SOL    HW156397   4.762   8.010   6.739  0.6604 -1.1399 -0.1672
17153SOL    HW256398   4.886   7.929   6.712  1.2620  0.3440 -2.1136
17154SOL     OW56399   7.797   2.510   1.933 -0.3160  0.1883  0.0749
17154SOL    HW156400   7.836   2.466   2.008 -0.4894  2.0164  1.3160
17154SOL    HW256401   7.789   2.442   1.867  1.8667 -1.0117  0.9258
17155SOL     OW56402   0.229   8.115   6.950 -0.3321 -0.5791 -0.4456
17155SOL    HW156403   0.291   8.146   6.885 -0.2793 -0.6077 -0.4086
17155SOL    HW256404   0.145   8.112   6.904 -0.4224  0.0416 -0.3259
17156SOL     OW56405   2.263   4.438   0.498 -0.7772 -0.2654 -0.4237
17156SOL    HW156406   2.247   4.398   0.583  0.5370  0.3312  0.1383
17156SOL    HW256407   2.177   4.445   0.457 -1.4205 -0.5756  0.8481
17157SOL     OW56408   0.952   8.406  11.641  0.0789 -0.3716 -0.0633
17157SOL    HW156409   0.964   8.312  11.658 -0.1322 -0.4147 -0.1400
17157SOL    HW256410   1.017   8.449  11.695 -3.0310 -0.2507  4.0689
17158SOL     OW56411   9.772   3.323   2.018 -0.0134 -0.5590 -0.2599
17158SOL    HW156412   9.683   3.292   2.031 -1.0947  1.5863 -1.8738
17158SOL    HW256413   9.769   3.416   2.042  2.3835 -0.8975  1.7885
17159SOL     OW56414   8.303  10.806   1.231  0.4389  0.2453  0.0550
17159SOL    HW156415   8.219  10.831   1.270  0.1668  1.9224 -1.4784
17159SOL    HW256416   8.368  10.856   1.281  0.2420  1.1127 -0.5329
17160SOL     OW56417   4.315   2.217   6.322  0.3164  0.5280 -0.3041
17160SOL    HW156418   4.257   2.286   6.354  0.0555  0.2079 -0.0731
17160SOL    HW256419   4.403   2.247   6.345  0.1268  0.2637  0.8113
17161SOL     OW56420  11.154   2.321   0.707  0.2001  0.0478  0.2851
17161SOL    HW156421  11.160   2.344   0.800 -1.9426 -0.6758  0.6636
17161SOL    HW256422  11.060   2.312   0.691  0.5232  0.1747 -1.9723
17162SOL     OW56423   9.442   8.921   0.289  0.1332 -0.2278  0.0900
17162SOL    HW156424   9.370   8.865   0.257 -0.0029 -1.4157  2.2655
17162SOL    HW256425   9.512   8.859   0.310  1.4039  0.8229 -0.9303
17163SOL     OW56426   5.189   4.779   1.756  0.0880  0.2117 -0.1325
17163SOL    HW156427   5.217   4.702   1.707  3.1568  1.2318 -0.1582
17163SOL    HW256428   5.240   4.852   1.719 -1.6164  2.0274  0.8734
17164SOL     OW56429   2.005   2.881   7.486  0.4126  0.4626 -0.6938
17164SOL    HW156430   1.958   2.800   7.465 -0.7854  0.8631  0.3583
17164SOL    HW256431   1.937   2.941   7.516  1.2041  2.0373 -1.8772
17165SOL     OW56432   6.595   5.666   7.151  0.1652 -0.1510 -0.0532
17165SOL    HW156433   6.671   5.719   7.126  0.0074  0.5817  0.9491
17165SOL    HW256434   6.618   5.577   7.126  1.2962  0.0837  0.1241
17166SOL     OW56435   0.451   9.494   9.729 -0.3191 -0.1949 -0.1878
17166SOL    HW156436   0.534   9.531   9.697 -0.6008  0.1984 -0.4815
17166SOL    HW256437   0.400   9.479   9.650 -0.7560  0.1238  0.0285
17167SOL     OW56438   7.689   3.727   9.971 -0.5838 -0.1544 -0.1971
17167SOL    HW156439   7.613   3.783   9.958  0.3293  0.7125 -2.1260
17167SOL    HW256440   7.761   3.787   9.991 -0.2435 -0.9042  0.9285
17168SOL     OW56441   8.561   5.967   7.054  0.3440  0.5825  0.4910
17168SOL    HW156442   8.522   5.879   7.054  1.4667  0.0679 -0.0651
17168SOL    HW256443   8.586   5.981   7.145  0.0452  0.3842  0.6086
17169SOL     OW56444   6.141   6.773   0.074 -0.1887 -0.3701  0.6808
17169SOL    HW156445   6.099   6.821   0.145 -0.9925  0.3907 -0.2712
17169SOL    HW256446   6.234   6.798   0.079 -0.7393  2.2147 -0.4377
17170SOL     OW56447   9.218   2.888   2.406  0.3082 -1.0090  0.2826
17170SOL    HW156448   9.302   2.847   2.429  1.2517  0.8585  0.2979
17170SOL    HW256449   9.208   2.959   2.469  0.3315  0.8206 -1.6757
17171SOL     OW56450   1.887   5.741   4.458  0.1184  0.3479  0.0177
17171SOL    HW156451   1.893   5.646   4.459  1.1873  0.4075  1.2136
17171SOL    HW256452   1.858   5.764   4.546  0.9219  1.1731  0.0828
17172SOL     OW56453   1.081   7.587   1.156  0.6884  0.4256  0.4364
17172SOL    HW156454   1.006   7.612   1.102 -1.0076 -2.9643  0.9481
17172SOL    HW256455   1.042   7.548   1.234  3.0659  0.8531  1.9234
17173SOL     OW56456   6.639  10.515   4.836 -0.2750  0.1879  0.1533
17173SOL    HW156457   6.731  10.519   4.812 -0.2489  0.8071  0.3637
17173SOL    HW256458   6.605  10.439   4.787  0.3989 -0.2065  0.2876
17174SOL     OW56459   7.359   4.608   7.123 -0.3470  0.1041 -0.5270
17174SOL    HW156460   7.264   4.596   7.122 -0.5896  1.5520  0.6788
17174SOL    HW256461   7.371   4.703   7.125  0.9706  0.0255  2.8121
17175SOL     OW56462   5.262   2.636  10.452 -0.6818 -0.7106  0.7750
17175SOL    HW156463   5.311   2.574  10.505 -0.8738 -1.1623  0.4324
17175SOL    HW256464   5.264   2.599  10.364  0.7145  0.6451  0.1820
17176SOL     OW56465   1.241   7.465   3.285  0.1124  0.4921 -0.2101
17176SOL    HW156466   1.262   7.542   3.337  0.7291 -0.3404  0.8059
17176SOL    HW256467   1.147   7.473   3.267 -0.6121 -0.2027  2.7945
17177SOL     OW56468   2.314   4.447  11.300  0.3609 -0.4638 -0.3643
17177SOL    HW156469   2.287   4.359  11.273  1.2858 -0.3076 -1.9044
17177SOL    HW256470   2.397   4.462  11.255  0.7220  0.8277  0.6608
17178SOL     OW56471   5.531   6.079   9.936 -0.3132  0.3112  0.0997
17178SOL    HW156472   5.555   6.036   9.854 -0.1185  2.2357 -0.9020
17178SOL    HW256473   5.600   6.055   9.998  0.4382  0.1869 -0.7773
17179SOL     OW56474   1.451   3.820   5.992  0.1086 -0.3944  0.2724
17179SOL    HW156475   1.533   3.779   6.022 -0.1011 -1.8969 -1.0260
17179SOL    HW256476   1.462   3.829   5.897 -0.9215  0.1398  0.1864
17180SOL     OW56477  11.605   5.581   4.153 -0.0781 -0.0733  0.1574
17180SOL    HW156478  11.676   5.644   4.146  1.2904 -1.5786 -0.1763
17180SOL    HW256479  11.640   5.513   4.212 -1.2475 -0.8370 -0.0059
17181SOL     OW56480   7.777   9.799   9.855 -0.1002 -0.8636  0.1213
17181SOL    HW156481   7.712   9.857   9.894  1.8693  2.1128 -0.6780
17181SOL    HW256482   7.806   9.744   9.928  0.0164  1.2044  1.7499
17182SOL     OW56483   6.855   6.987   5.477  0.6862 -0.0884  0.0750
17182SOL    HW156484   6.865   7.032   5.560 -0.0534 -0.9864  0.6657
17182SOL    HW256485   6.761   6.972   5.468  0.3972  2.3109 -2.2082
17183SOL     OW56486   3.674   1.332   8.463  0.3409  0.1003 -0.0181
17183SOL    HW156487   3.699   1.391   8.534  2.0283  1.6765 -1.8153
17183SOL    HW256488   3.755   1.288   8.439 -0.4884 -1.4358 -0.1024
17184SOL     OW56489   8.404  10.159   4.750  0.1728  0.0965 -0.0904
17184SOL    HW156490   8.417  10.086   4.810 -1.0387  0.8295  1.1177
17184SOL    HW256491   8.476  10.219   4.769  1.2413 -0.8068 -1.1737
17185SOL     OW56492   4.489   3.457   7.357 -0.4521  0.0325 -0.5176
17185SOL    HW156493   4.555   3.518   7.324  1.6322 -1.1842  1.1874
17185SOL    HW256494   4.492   3.383   7.296 -0.4695  0.0945 -0.5949
17186SOL     OW56495   4.393   0.261   9.671  0.0687 -0.0397 -0.4911
17186SOL    HW156496   4.372   0.348   9.705 -1.0355 -0.8331  0.9764
17186SOL    HW256497   4.487   0.265   9.652 -0.0524  1.5998 -0.9190
17187SOL     OW56498   1.085   6.468   2.119 -0.1149 -0.3429 -0.0045
17187SOL    HW156499   1.015   6.485   2.183  0.7219  0.2198  0.7900
17187SOL    HW256500   1.142   6.544   2.127  0.6351 -0.8409 -0.5824
17188SOL     OW56501   1.010   2.461   0.287  0.4483 -0.4368  0.4306
17188SOL    HW156502   1.032   2.537   0.233  1.9955 -0.5165  0.8942
17188SOL    HW256503   0.929   2.427   0.248  0.2118  0.9076 -0.3326
17189SOL     OW56504   1.918  10.580  10.316  0.4679 -0.5498 -0.0689
17189SOL    HW156505   1.858  10.649  10.289 -1.7801 -2.6084 -0.7296
17189SOL    HW256506   1.923  10.588  10.411 -1.3941 -0.6508  0.0823
17190SOL     OW56507   3.245  10.091   1.118 -0.1713  0.6389 -0.0742
17190SOL    HW156508   3.191  10.053   1.049 -0.2859 -0.5170  0.6312
17190SOL    HW256509   3.184  10.140   1.173 -0.4039 -0.1260  0.3533
17191SOL     OW56510   0.100   9.055   7.024 -0.1132 -0.3805 -0.4731
17191SOL    HW156511   0.079   9.027   7.113 -0.4221 -0.7181 -0.6500
17191SOL    HW256512   0.030   9.018   6.970  1.1245 -1.8710 -1.1279
17192SOL     OW56513   0.574   0.143  10.696  0.1123 -0.7460  0.4145
17192SOL    HW156514   0.501   0.140  10.759  0.8489 -0.0349  1.3298
17192SOL    HW256515   0.554   0.217  10.639  1.1780  0.9073  2.0651
17193SOL     OW56516   9.081   7.076   1.377  0.0099 -0.5848  0.1546
17193SOL    HW156517   9.122   7.146   1.325  0.3369 -0.0577  1.0834
17193SOL    HW256518   8.990   7.076   1.351 -0.1531  0.6997  0.6484
17194SOL     OW56519   9.402   9.661   4.876  0.3065  0.4972 -0.0997
17194SOL    HW156520   9.479   9.711   4.903  0.0007  0.4870  0.8226
17194SOL    HW256521   9.435   9.573   4.859  0.5072  0.4880  0.3133
17195SOL     OW56522   5.446  11.638  11.291 -0.2616  0.5614 -0.7409
17195SOL    HW156523   5.379  11.704  11.277 -0.0154  0.7116 -1.2326
17195SOL    HW256524   5.425  11.600  11.377 -3.1910 -1.9724 -2.3668
17196SOL     OW56525  10.514   2.998   4.913 -0.4400 -0.8294 -0.5083
17196SOL    HW156526  10.567   2.935   4.962 -1.1455  0.6704  2.4284
17196SOL    HW256527  10.568   3.077   4.909 -2.0720  0.5459  2.0514
17197SOL     OW56528   2.655   7.986   9.305 -0.0056 -0.3057 -0.8913
17197SOL    HW156529   2.662   7.935   9.225  3.5880  0.1679 -1.0348
17197SOL    HW256530   2.745   8.014   9.324 -1.2405  2.7847  1.2327
17198SOL     OW56531   0.035   2.885  10.075  0.2175  0.3929 -0.8356
17198SOL    HW156532  -0.011   2.830  10.139 -1.0826  1.3042 -0.9390
17198SOL    HW256533   0.011   2.848   9.990  1.0941 -0.1798 -0.8399
17199SOL     OW56534   6.285   3.213  10.080 -0.0401  0.2134  0.0642
17199SOL    HW156535   6.233   3.152  10.028  1.0571 -0.8351  0.1496
17199SOL    HW256536   6.230   3.291  10.088 -0.5276  0.1433 -2.0480
17200SOL     OW56537   8.166   6.515   4.803  0.2392  0.7823 -1.1151
17200SOL    HW156538   8.134   6.561   4.881 -0.9891 -1.0231 -0.4876
17200SOL    HW256539   8.262   6.514   4.814  0.1701  1.7050 -0.2994
17201SOL     OW56540   2.705   0.362   1.759 -0.6271 -0.4429 -0.5736
17201SOL    HW156541   2.678   0.400   1.843 -0.4926  0.8996 -1.1279
17201SOL    HW256542   2.639   0.393   1.697  0.1427 -0.1442 -1.2534
17202SOL     OW56543   1.621   7.839   7.124 -0.3642  0.1950  0.1799
17202SOL    HW156544   1.564   7.806   7.194 -0.3622  2.5720  1.4396
17202SOL    HW256545   1.566   7.900   7.075 -0.4067 -1.5610 -2.0996
17203SOL     OW56546   8.925   6.772   0.328 -0.1142  0.2711  0.2717
17203SOL    HW156547   8.984   6.807   0.261 -0.5964  1.1901  0.3144
17203SOL    HW256548   8.918   6.843   0.393  2.5717 -1.5220  2.8188
17204SOL     OW56549   8.126  10.415   7.128  0.0334  0.3070  0.2789
17204SOL    HW156550   8.052  10.356   7.113  0.0975 -0.0805  1.3994
17204SOL    HW256551   8.171  10.378   7.204  1.2011  0.7171 -0.1885
17205SOL     OW56552   3.128   0.214  11.026 -0.0571  0.2520  0.9450
17205SOL    HW156553   3.040   0.236  11.055  0.1157  0.1840  1.5527
17205SOL    HW256554   3.175   0.194  11.107  1.1963  2.6838  0.9093
17206SOL     OW56555   6.147   1.178   6.965 -0.1964  0.3691  0.1722
17206SOL    HW156556   6.154   1.119   7.040  0.0844 -0.9249 -0.8246
17206SOL    HW256557   6.058   1.164   6.932  0.0670  0.0358 -0.4196
17207SOL     OW56558   6.195   6.561   6.044  0.6459 -0.1557  0.3614
17207SOL    HW156559   6.207   6.573   5.950  0.9143  1.2177  0.5504
17207SOL    HW256560   6.270   6.605   6.084  1.3971 -2.0818  1.2047
17208SOL     OW56561   2.048   3.659   1.082  0.1927 -0.6569 -0.1999
17208SOL    HW156562   1.968   3.683   1.130  0.6073  0.4179 -0.0113
17208SOL    HW256563   2.069   3.737   1.030  0.2855 -1.4626 -1.4193
17209SOL     OW56564   6.368   4.119  10.458 -0.4881  0.3215  0.1022
17209SOL    HW156565   6.419   4.082  10.387  1.1746 -0.0548  1.4378
17209SOL    HW256566   6.404   4.206  10.472  1.1276 -0.5978  2.2365
17210SOL     OW56567   8.210   2.429   2.486  0.1913  0.0242  0.0093
17210SOL    HW156568   8.179   2.516   2.513 -0.2350  0.1339 -0.7969
17210SOL    HW256569   8.172   2.369   2.550 -0.1829  0.3527  0.0986
17211SOL     OW56570   2.778   6.867   1.284 -0.3153  0.2776  0.0418
17211SOL    HW156571   2.794   6.914   1.366 -0.5577  0.5834 -0.0865
17211SOL    HW256572   2.857   6.815   1.271 -0.5975 -0.3862  0.8799
17212SOL     OW56573   6.433   6.177   4.851 -0.6588 -0.5886 -0.1358
17212SOL    HW156574   6.350   6.223   4.838 -0.0310  0.2370 -1.4758
17212SOL    HW256575   6.436   6.114   4.779 -0.8030 -1.7174  0.8068
17213SOL     OW56576   3.399   9.287   8.794 -0.2115 -0.0286 -0.4113
17213SOL    HW156577   3.321   9.309   8.846 -1.1318 -2.1102 -0.8084
17213SOL    HW256578   3.450   9.230   8.851  0.1164 -0.1298 -0.8034
17214SOL     OW56579   1.065  11.000   8.737  0.4193 -0.1994 -0.2244
17214SOL    HW156580   1.148  11.025   8.779  0.6546 -0.0363 -0.7664
17214SOL    HW256581   0.998  11.040   8.791  0.6278 -1.3107  0.8960
17215SOL     OW56582   3.641  10.629   2.504  0.0540  0.0461  0.2860
17215SOL    HW156583   3.663  10.721   2.487 -1.2323  0.6676  1.6639
17215SOL    HW256584   3.715  10.595   2.554  0.8462  0.1120 -0.8069
17216SOL     OW56585  10.417   2.109   9.297 -0.7113  0.4082 -0.2618
17216SOL    HW156586  10.458   2.145   9.218  0.7679 -0.0506  0.2685
17216SOL    HW256587  10.379   2.185   9.340  1.0363  1.1538  0.0582
17217SOL     OW56588   6.083   1.425  10.421  0.1264  0.3839  0.0656
17217SOL    HW156589   6.082   1.520  10.434 -0.5461  0.0586  3.2305
17217SOL    HW256590   5.996   1.396  10.449 -0.1784 -1.0852 -2.1909
17218SOL     OW56591  11.035   3.530   3.232  0.2437  0.0274 -0.0865
17218SOL    HW156592  11.084   3.581   3.168  1.0698 -2.4017 -1.5435
17218SOL    HW256593  11.101   3.483   3.282 -0.4310 -3.1124 -1.9096
17219SOL     OW56594  11.413   8.476   4.463 -0.3476 -0.2440 -0.0675
17219SOL    HW156595  11.404   8.433   4.378  0.0707 -3.9719  1.5658
17219SOL    HW256596  11.482   8.542   4.450  0.4386 -1.4202 -2.3886
17220SOL     OW56597   9.719   8.457   5.873  0.1481  0.7728 -0.5695
17220SOL    HW156598   9.673   8.541   5.869  1.4611  1.6168  0.8810
17220SOL    HW256599   9.796   8.475   5.927 -1.2075 -2.1076  2.7500
17221SOL     OW56600  11.417   4.062   7.843 -0.2783 -0.5071 -0.4102
17221SOL    HW156601  11.359   3.986   7.846 -0.2939 -0.4732  0.3138
17221SOL    HW256602  11.419   4.095   7.933 -1.3667  1.1834 -0.9479
17222SOL     OW56603   4.836  10.968  10.599 -0.6248 -0.2577 -0.0417
17222SOL    HW156604   4.896  10.932  10.535 -2.0993  0.2255 -1.7741
17222SOL    HW256605   4.864  11.060  10.608 -1.6733  0.2661 -1.6527
17223SOL     OW56606   6.229   6.930   5.042 -0.3850  0.4260  0.0097
17223SOL    HW156607   6.245   7.020   5.069 -1.4556  0.0867  2.0082
17223SOL    HW256608   6.300   6.910   4.982  0.5826  2.2028  0.4888
17224SOL     OW56609   0.957   7.990   5.074 -1.1066 -0.4396 -0.2361
17224SOL    HW156610   0.862   7.975   5.067 -1.7639  3.1580 -0.6704
17224SOL    HW256611   0.965   8.082   5.099  2.3139 -0.6431 -0.1768
17225SOL     OW56612   6.831   4.776   4.516  0.3334 -0.1606  0.4895
17225SOL    HW156613   6.763   4.719   4.480 -0.5723  1.0644  0.2142
17225SOL    HW256614   6.855   4.735   4.600 -0.6275 -0.6893  0.5156
17226SOL     OW56615   3.677   6.269   5.624 -0.1910 -0.0436 -0.0155
17226SOL    HW156616   3.756   6.298   5.670 -0.0621 -0.5437  0.0800
17226SOL    HW256617   3.605   6.307   5.674 -0.0066  0.8302 -0.3844
17227SOL     OW56618   7.530   1.837   5.863 -0.2225  0.0392 -0.0170
17227SOL    HW156619   7.435   1.826   5.853 -0.0403 -1.7873 -0.0701
17227SOL    HW256620   7.547   1.810   5.953  0.1842  1.0122  0.2079
17228SOL     OW56621   7.911   4.038   0.926  0.3341  0.2644  0.0534
17228SOL    HW156622   7.974   4.109   0.914  1.0208 -0.4853 -0.9504
17228SOL    HW256623   7.827   4.083   0.936  0.9531  1.2681  1.0505
17229SOL     OW56624   4.312   7.282   6.461  0.0341  0.2512  0.1616
17229SOL    HW156625   4.281   7.227   6.388 -1.6643  2.6501 -1.0677
17229SOL    HW256626   4.322   7.222   6.534 -0.7985 -1.8375 -1.3457
17230SOL     OW56627  10.479   5.979   4.648  0.6637  0.4860 -0.0439
17230SOL    HW156628  10.511   5.927   4.574 -0.3602 -2.8089  1.6043
17230SOL    HW256629  10.393   6.010   4.620  1.0368  0.7883 -0.8678
17231SOL     OW56630   7.638  11.487   9.406  0.0398 -0.1343 -0.1360
17231SOL    HW156631   7.591  11.411   9.372 -2.5294  0.2032  2.2734
17231SOL    HW256632   7.667  11.459   9.493  5.0327 -0.4794 -1.5880
17232SOL     OW56633   1.368   2.431  10.669 -1.1013  0.4239 -0.3877
17232SOL    HW156634   1.364   2.489  10.593  1.0280  0.1700 -0.7585
17232SOL    HW256635   1.286   2.382  10.667 -1.5971  1.2543 -1.8247
17233SOL     OW56636  10.885   9.137   9.126  0.5862 -0.0127  0.2712
17233SOL    HW156637  10.926   9.223   9.117 -0.4914  0.3629 -1.7994
17233SOL    HW256638  10.791   9.156   9.125  0.3361 -1.2076 -0.0909
17234SOL     OW56639   8.805   9.210   1.236  0.5826 -0.2057  0.5178
17234SOL    HW156640   8.830   9.302   1.244  1.4922 -0.4772  1.0216
17234SOL    HW256641   8.873   9.163   1.284  0.5329 -1.1957 -0.3417
17235SOL     OW56642   1.883  10.945   7.431 -0.0635 -0.4875 -0.0008
17235SOL    HW156643   1.916  10.988   7.511 -3.0742  1.8164  0.1749
17235SOL    HW256644   1.809  10.893   7.461  0.3289 -1.6503 -1.0008
17236SOL     OW56645   3.371   1.215   2.231 -0.3583 -0.2431 -0.0288
17236SOL    HW156646   3.291   1.200   2.179 -1.6341  1.9738  1.1683
17236SOL    HW256647   3.349   1.180   2.318  1.0674 -2.1679 -0.3710
17237SOL     OW56648   9.940   3.782   4.885 -0.2966  0.3237 -0.8400
17237SOL    HW156649  10.000   3.737   4.945 -0.4788 -1.0171 -1.6298
17237SOL    HW256650   9.865   3.804   4.940  0.4311  1.0606 -0.0913
17238SOL     OW56651   9.599   6.406   1.450 -0.2627  0.1565  0.0746
17238SOL    HW156652   9.513   6.415   1.492 -1.4674  0.2333 -2.2372
17238SOL    HW256653   9.636   6.494   1.452 -0.5947  0.2929  0.3460
17239SOL     OW56654   9.196   7.861  11.256 -0.0887 -0.4519  0.6549
17239SOL    HW156655   9.194   7.768  11.279  0.6541 -0.1987  1.7760
17239SOL    HW256656   9.257   7.866  11.182  0.4680 -0.7564  1.0904
17240SOL     OW56657  10.400  10.310   5.839  0.2183  1.0369  0.4163
17240SOL    HW156658  10.436  10.264   5.914  0.7431  1.2975  0.3266
17240SOL    HW256659  10.316  10.268   5.823 -0.7247  2.0920  2.2282
17241SOL     OW56660   8.946   0.397   8.535  0.5337  0.3311 -0.0221
17241SOL    HW156661   8.929   0.401   8.441  1.1145  0.0456 -0.1434
17241SOL    HW256662   8.864   0.365   8.573 -0.7267  3.1696 -0.0950
17242SOL     OW56663   5.153   1.569   4.748 -0.4950  0.2980  0.1756
17242SOL    HW156664   5.070   1.533   4.779 -0.0887  1.3205  2.5970
17242SOL    HW256665   5.179   1.632   4.815  1.0582  1.7868 -1.7145
17243SOL     OW56666   0.749   5.428   4.768  0.4901 -0.0165 -0.2023
17243SOL    HW156667   0.725   5.444   4.859  0.4709  0.4082 -0.2806
17243SOL    HW256668   0.666   5.416   4.722  0.5272 -1.1956  0.0031
17244SOL     OW56669  10.474   1.380   6.199  0.5642  0.3901 -0.0644
17244SOL    HW156670  10.394   1.431   6.213 -0.6346 -1.2151 -0.7744
17244SOL    HW256671  10.523   1.430   6.134  0.6636  1.9194  1.1194
17245SOL     OW56672   1.826   1.596   3.949  0.2450 -0.1313 -0.1750
17245SOL    HW156673   1.812   1.632   3.861  1.3316 -1.9751 -1.1385
17245SOL    HW256674   1.872   1.666   3.996 -0.2890  0.8564 -1.0682
17246SOL     OW56675   2.522   1.027   3.949  0.2543  0.2260 -0.4320
17246SOL    HW156676   2.474   1.049   4.029  0.9801  1.5079 -0.3175
17246SOL    HW256677   2.558   0.940   3.967  0.4856  0.5280  0.7102
17247SOL     OW56678   1.963   8.156   8.752 -0.7898  0.0456 -0.9891
17247SOL    HW156679   2.024   8.140   8.824 -0.9351  0.3960 -0.7875
17247SOL    HW256680   1.912   8.075   8.746 -0.9005  0.0826 -0.5766
17248SOL     OW56681   4.472   9.930   4.371  0.0315 -0.0187  0.1266
17248SOL    HW156682   4.550   9.874   4.370 -0.7225 -1.1605 -1.9160
17248SOL    HW256683   4.401   9.871   4.344 -1.3962  1.1870  1.1484
17249SOL     OW56684   6.440   2.404   4.603 -0.7728  0.1268  0.0829
17249SOL    HW156685   6.516   2.459   4.585  1.4085 -1.6729  2.8855
17249SOL    HW256686   6.394   2.398   4.519  3.0230  0.0532 -2.2236
17250SOL     OW56687   7.893   1.597   4.024 -0.1338 -0.3799  0.2049
17250SOL    HW156688   7.886   1.545   4.104  0.8566 -0.4035  0.2828
17250SOL    HW256689   7.837   1.673   4.040 -2.6876 -1.9797 -0.4142
17251SOL     OW56690   7.453   8.093   9.730  0.3606  0.5161 -0.0387
17251SOL    HW156691   7.502   8.019   9.765  2.8913  2.6329  1.1814
17251SOL    HW256692   7.441   8.072   9.637  3.6792 -0.1391 -0.4378
17252SOL     OW56693   0.697   5.824   1.322  0.1203 -0.7971 -0.0599
17252SOL    HW156694   0.640   5.780   1.385  0.9232  1.0978  2.1373
17252SOL    HW256695   0.643   5.893   1.285 -0.3594 -1.9278 -1.5471
17253SOL     OW56696   8.224   9.298  11.178  0.0185  0.4012  0.5135
17253SOL    HW156697   8.143   9.338  11.211 -0.1091 -0.8181  1.7581
17253SOL    HW256698   8.196   9.214  11.141  0.6480  0.1954  0.4980
17254SOL     OW56699   4.115   2.393  11.040 -0.3835  0.0775 -0.0506
17254SOL    HW156700   4.088   2.484  11.030  0.8714  0.3048 -1.8698
17254SOL    HW256701   4.209   2.394  11.021 -0.3795 -1.6303 -0.2540
17255SOL     OW56702   7.415   2.500   0.018  0.6721  0.0153  0.4231
17255SOL    HW156703   7.469   2.514   0.095 -0.3999  1.7254  0.9139
17255SOL    HW256704   7.467   2.534  -0.055  0.8943  0.2041  0.6706
17256SOL     OW56705   6.175  11.385   1.349  0.0509 -0.4673 -0.1558
17256SOL    HW156706   6.199  11.335   1.271  1.0113  2.0487 -1.5955
17256SOL    HW256707   6.237  11.356   1.416  1.3155 -0.4374 -1.2740
17257SOL     OW56708  10.338   8.864   9.927  0.1912 -0.5761 -0.5662
17257SOL    HW156709  10.372   8.939   9.878 -0.8493 -0.0347 -0.4948
17257SOL    HW256710  10.394   8.859  10.005 -0.5505  0.9948  0.1196
17258SOL     OW56711   1.976   5.210   8.923 -0.2679  0.0269 -1.2599
17258SOL    HW156712   2.007   5.283   8.976 -0.6066 -0.3576 -0.5186
17258SOL    HW256713   1.930   5.251   8.850 -0.4655  0.5585 -0.8430
17259SOL     OW56714   4.812   5.825   6.379 -0.3708 -0.1067 -0.9552
17259SOL    HW156715   4.763   5.774   6.443  0.4806 -0.4255 -0.5310
17259SOL    HW256716   4.795   5.781   6.295 -2.3345  0.9361 -1.1622
17260SOL     OW56717   2.041   7.989   4.417 -0.0338 -1.2929 -0.0227
17260SOL    HW156718   1.980   8.063   4.414 -0.9589 -2.0413 -0.3212
17260SOL    HW256719   2.097   8.001   4.341 -0.5676 -1.2248 -0.4062
17261SOL     OW56720   9.406   3.342   4.981  0.1784  0.2028 -0.3632
17261SOL    HW156721   9.352   3.362   5.057 -0.3460 -1.5692 -0.2386
17261SOL    HW256722   9.344   3.333   4.909  0.4855 -0.0174 -0.6050
17262SOL     OW56723   1.363   6.242   4.995 -0.1314  0.1000  0.0201
17262SOL    HW156724   1.350   6.183   5.070 -0.2807 -0.8059 -0.6933
17262SOL    HW256725   1.325   6.325   5.023  2.0435  0.5512  1.8904
17263SOL     OW56726   9.162   0.106   4.557 -0.0017 -0.4871 -0.0620
17263SOL    HW156727   9.151   0.033   4.617  1.3649  0.5655  1.5601
17263SOL    HW256728   9.234   0.079   4.499  0.6030 -0.3804  0.6300
17264SOL     OW56729   8.482   8.197   7.347  0.1979 -0.2237  0.2359
17264SOL    HW156730   8.494   8.292   7.356 -2.7600  0.3311 -0.5105
17264SOL    HW256731   8.387   8.185   7.351  0.4903 -3.1783  0.2039
17265SOL     OW56732   4.232   8.564   0.927  0.6639 -0.3842 -0.1014
17265SOL    HW156733   4.178   8.554   0.849  0.2363 -1.2019  0.2898
17265SOL    HW256734   4.268   8.653   0.920 -0.5341  0.0927 -0.4840
17266SOL     OW56735   9.351  10.443   5.107 -0.0376 -0.6519  0.0064
17266SOL    HW156736   9.265  10.469   5.139  0.1535  0.2987 -0.2327
17266SOL    HW256737   9.401  10.524   5.102  0.7554 -1.1384 -0.2235
17267SOL     OW56738   3.248   7.565   2.875  0.7507  0.0144  0.2451
17267SOL    HW156739   3.323   7.507   2.870 -0.4919 -1.6440 -0.0047
17267SOL    HW256740   3.268   7.625   2.947  3.2167  1.0263 -1.1699
17268SOL     OW56741   5.822   9.685   6.211 -0.3478 -0.7091  0.7894
17268SOL    HW156742   5.902   9.644   6.243 -0.0691 -1.4868 -0.8030
17268SOL    HW256743   5.802   9.638   6.130 -0.3865  1.8263 -0.7736
17269SOL     OW56744   0.070   7.538   0.660  0.8021  0.1541 -0.2669
17269SOL    HW156745   0.149   7.514   0.611 -0.0413 -2.3730 -0.5731
17269SOL    HW256746  -0.000   7.532   0.595 -0.1649 -1.9593  0.8495
17270SOL     OW56747   4.546  10.857   7.709 -0.0443 -0.5007 -0.0850
17270SOL    HW156748   4.641  10.864   7.718 -0.0830 -0.1450  0.0566
17270SOL    HW256749   4.522  10.785   7.768  0.2993 -1.5736 -1.2036
17271SOL     OW56750  11.515  11.641   9.792 -0.2854 -0.0888 -0.2463
17271SOL    HW156751  11.496  11.550   9.811  0.6421 -0.1574  0.4054
17271SOL    HW256752  11.588  11.663   9.850  0.4051  0.6675 -1.3711
17272SOL     OW56753   7.189   3.654   6.587 -0.2465  0.4939  0.0263
17272SOL    HW156754   7.147   3.703   6.517 -0.7265 -1.0912 -0.8400
17272SOL    HW256755   7.171   3.705   6.666 -2.4246  0.7203 -0.5541
17273SOL     OW56756   6.374   4.412  11.354 -0.3919 -0.4936  0.5879
17273SOL    HW156757   6.345   4.408  11.262 -0.8710 -2.6257  0.7845
17273SOL    HW256758   6.436   4.485  11.356 -3.3108  2.2421 -0.5407
17274SOL     OW56759   2.604   9.380   4.966  0.1808  0.0526 -0.1190
17274SOL    HW156760   2.525   9.326   4.972 -0.3069  0.8999  1.5048
17274SOL    HW256761   2.666   9.338   5.026 -0.0504  1.0201  0.8180
17275SOL     OW56762   6.858   1.701   3.511 -0.4095  0.0498 -0.0127
17275SOL    HW156763   6.944   1.659   3.511 -0.5546 -0.2552 -0.4868
17275SOL    HW256764   6.816   1.671   3.430 -0.5083  1.1120 -0.3775
17276SOL     OW56765   9.893   2.693   5.235  0.3135  0.3677 -0.4900
17276SOL    HW156766   9.840   2.613   5.235 -0.5608  0.9405 -0.5467
17276SOL    HW256767   9.901   2.717   5.143 -2.3337  2.2091 -0.3526
17277SOL     OW56768   6.579  10.492   0.740 -0.0568  0.1827  0.6027
17277SOL    HW156769   6.649  10.437   0.773  0.3463  0.1914 -0.2352
17277SOL    HW256770   6.623  10.569   0.705 -0.5275  0.4731  0.6419
17278SOL     OW56771   6.582   8.965   5.688  0.2193  0.3386 -0.5388
17278SOL    HW156772   6.521   8.958   5.614 -0.7381  2.8990 -0.1217
17278SOL    HW256773   6.656   9.015   5.653  0.1055  0.9116  0.0274
17279SOL     OW56774   3.833   2.954   9.066  0.3672  0.3131 -0.2703
17279SOL    HW156775   3.857   3.009   9.141 -0.6203 -1.0728  1.1208
17279SOL    HW256776   3.895   2.881   9.070 -0.2960 -0.2524 -0.2267
17280SOL     OW56777   9.161   1.545  11.239 -0.4031  0.0677  1.0144
17280SOL    HW156778   9.068   1.523  11.232 -0.2527 -0.0084 -2.1499
17280SOL    HW256779   9.162   1.635  11.271 -1.6113  0.3655  0.2789
17281SOL     OW56780   8.844   0.326  10.810 -0.4020  0.4429 -0.3965
17281SOL    HW156781   8.887   0.305  10.728  0.3982  2.6836 -0.6378
17281SOL    HW256782   8.896   0.282  10.877  0.2765  0.4199 -0.9322
17282SOL     OW56783   9.499   5.469   9.059  0.2219  0.0497  0.2438
17282SOL    HW156784   9.520   5.408   9.129  0.9837  0.8141  0.6983
17282SOL    HW256785   9.522   5.423   8.979  0.1455 -0.5063  0.5382
17283SOL     OW56786   4.485   2.849   1.627  0.2419  0.1924  0.0008
17283SOL    HW156787   4.450   2.785   1.565  1.3713 -0.5731  0.1334
17283SOL    HW256788   4.435   2.836   1.707  1.0946 -1.2135  0.3372
17284SOL     OW56789   6.598   6.251   8.213  0.1731  0.2828  0.1573
17284SOL    HW156790   6.652   6.282   8.141  1.7964 -0.2599  1.0951
17284SOL    HW256791   6.624   6.305   8.288 -0.9097  0.3040  0.5406
17285SOL     OW56792   2.121   0.847   1.653  0.4625 -0.0373  0.2706
17285SOL    HW156793   2.029   0.843   1.628  0.0445 -1.6374  1.7994
17285SOL    HW256794   2.163   0.778   1.601  0.3468 -0.7429  1.0835
17286SOL     OW56795   0.260   4.800   3.541  0.4160 -0.1767  0.0650
17286SOL    HW156796   0.329   4.801   3.608 -0.2892  1.7323  0.7967
17286SOL    HW256797   0.226   4.711   3.545  0.8279 -0.3004  1.7939
17287SOL     OW56798   2.474   8.875   4.117 -0.0274  0.0308  0.3493
17287SOL    HW156799   2.469   8.934   4.042  1.0622  0.3999  0.5414
17287SOL    HW256800   2.456   8.930   4.193  3.0802  0.6910  0.7429
17288SOL     OW56801   1.867   1.928   5.293  0.4467 -0.0625  0.1208
17288SOL    HW156802   1.904   2.011   5.264 -0.1858 -0.0737 -0.7522
17288SOL    HW256803   1.854   1.939   5.387 -1.5753  1.6053 -0.3014
17289SOL     OW56804   4.316   7.842   1.977 -0.0222 -0.4345 -0.2225
17289SOL    HW156805   4.332   7.930   1.946 -2.5851  0.1530 -0.0428
17289SOL    HW256806   4.357   7.840   2.064  1.7007 -0.0912 -0.9854
17290SOL     OW56807   7.482  11.419   0.701 -0.5132  0.7523  0.1105
17290SOL    HW156808   7.505  11.357   0.632  0.9126  1.6236 -0.2457
17290SOL    HW256809   7.452  11.497   0.655 -2.1320  0.4315  0.5526
17291SOL     OW56810   0.271   9.718   2.785 -0.0699 -0.2355 -0.0306
17291SOL    HW156811   0.204   9.786   2.780  0.6062  0.3775 -1.5401
17291SOL    HW256812   0.327   9.745   2.858  0.3821  1.0538 -0.8104
17292SOL     OW56813   6.603   0.745   1.927 -0.1012 -0.1141 -0.1143
17292SOL    HW156814   6.606   0.696   1.845 -0.1238 -1.8946  0.9167
17292SOL    HW256815   6.655   0.694   1.988 -0.1161  1.1590  1.0178
17293SOL     OW56816   6.295   1.583  11.302 -0.4156  0.1743 -0.0792
17293SOL    HW156817   6.262   1.507  11.350  1.3580 -0.1180  0.7614
17293SOL    HW256818   6.235   1.654  11.325 -0.6984 -0.4125  1.0530
17294SOL     OW56819  10.381   4.496   0.437  0.4327  0.8266  0.1469
17294SOL    HW156820  10.455   4.453   0.479 -0.8532  0.3886  2.0860
17294SOL    HW256821  10.408   4.587   0.426  1.6744  0.4255 -0.3112
17295SOL     OW56822   5.675   9.910   7.695 -0.6197 -0.4733 -0.0550
17295SOL    HW156823   5.620   9.896   7.772 -0.9674 -2.1828 -0.5706
17295SOL    HW256824   5.734   9.981   7.720 -1.9409  0.2617  1.1185
17296SOL     OW56825   3.633   7.104   5.505  0.1186 -0.0484  0.7516
17296SOL    HW156826   3.568   7.050   5.549 -1.1099 -0.1488 -1.0628
17296SOL    HW256827   3.629   7.077   5.413  3.6353 -0.9383  0.7098
17297SOL     OW56828  11.334   0.297   6.709  0.2182 -0.0024  0.0915
17297SOL    HW156829  11.407   0.272   6.652  0.8130  0.1731  0.7695
17297SOL    HW256830  11.261   0.312   6.649  0.1972 -2.0572 -0.4722
17298SOL     OW56831   4.039   4.052   7.832  0.0453  0.2232 -0.2579
17298SOL    HW156832   4.106   4.090   7.890 -1.1836  1.2563  0.5406
17298SOL    HW256833   4.072   3.965   7.812 -0.3040 -0.9856  3.5609
17299SOL     OW56834   2.244   3.527   9.589 -0.4162 -0.2030 -0.4180
17299SOL    HW156835   2.163   3.525   9.538 -1.1877  3.4826  0.3865
17299SOL    HW256836   2.231   3.460   9.657 -2.1611 -0.6759 -1.1513
17300SOL     OW56837   9.895   8.682   3.046 -0.2438  0.2807  0.1426
17300SOL    HW156838   9.966   8.654   3.103  0.1980  1.1197  0.0225
17300SOL    HW256839   9.928   8.667   2.957 -0.7771 -0.6538  0.0920
17301SOL     OW56840   8.012   6.916   9.571  0.0963  0.0965  0.2470
17301SOL    HW156841   8.075   6.980   9.536  0.3472  0.1235  0.7428
17301SOL    HW256842   8.067   6.847   9.608 -0.1721 -0.3784 -0.2172
17302SOL     OW56843   5.165   5.227   7.415  0.1816  0.4722  0.2779
17302SOL    HW156844   5.112   5.288   7.466 -0.7732 -0.0802 -0.0481
17302SOL    HW256845   5.243   5.213   7.470 -1.1481 -0.6893  1.9790
17303SOL     OW56846   3.801   7.458  11.377  0.6587 -0.2823 -0.3050
17303SOL    HW156847   3.872   7.405  11.341  1.6689 -0.1281  1.3789
17303SOL    HW256848   3.728   7.445  11.316  1.3155 -2.4909 -0.6842
17304SOL     OW56849   8.998   8.470   9.466 -0.4283 -0.1404  0.0313
17304SOL    HW156850   9.083   8.459   9.423 -0.8236  3.0062 -1.8603
17304SOL    HW256851   8.968   8.380   9.483  2.9839 -1.3793  0.3412
17305SOL     OW56852   1.424  10.649   2.002  0.1785 -0.0887 -0.4190
17305SOL    HW156853   1.496  10.624   1.944  1.0400 -2.6079  1.5702
17305SOL    HW256854   1.348  10.602   1.968  0.2289 -0.0507 -0.5865
17306SOL     OW56855   8.246   4.925  11.241  0.2989  0.3023  0.4172
17306SOL    HW156856   8.222   5.014  11.216 -0.6353 -0.3142 -0.9904
17306SOL    HW256857   8.168   4.873  11.223  1.3559 -1.0736 -0.3623
17307SOL     OW56858   2.529   8.336   7.432  0.0824  0.4560  0.0235
17307SOL    HW156859   2.610   8.285   7.442  0.3553  0.4914 -1.6759
17307SOL    HW256860   2.459   8.270   7.433  0.2908  0.2236 -0.4133
17308SOL     OW56861   3.367   8.803   0.272 -0.1514 -0.2210  0.1943
17308SOL    HW156862   3.421   8.784   0.195 -0.2203 -0.4822  0.2088
17308SOL    HW256863   3.430   8.818   0.342 -0.0658  1.0065 -0.1322
17309SOL     OW56864   4.489  10.297   9.252 -0.3126  0.2849 -0.0595
17309SOL    HW156865   4.435  10.263   9.181  0.6684 -0.2007 -0.5805
17309SOL    HW256866   4.561  10.235   9.260  0.5421  1.2791  0.1714
17310SOL     OW56867   2.701   0.759   7.284 -0.2479  0.2035 -0.4312
17310SOL    HW156868   2.673   0.681   7.237 -0.6189  0.8338 -1.3017
17310SOL    HW256869   2.656   0.754   7.369 -2.4452  0.7726 -1.4817
17311SOL     OW56870   6.657  10.193   7.873  0.2127 -0.1502  0.2921
17311SOL    HW156871   6.691  10.209   7.961  0.4383  0.0499  0.1719
17311SOL    HW256872   6.587  10.129   7.885  0.5004 -0.4174  0.5678
17312SOL     OW56873   2.608   8.201   3.090 -0.5430  0.3682 -0.3085
17312SOL    HW156874   2.577   8.229   3.176  0.0948  2.6578 -0.7641
17312SOL    HW256875   2.620   8.106   3.099 -1.0972  0.4457  1.9145
17313SOL     OW56876   4.702   7.099  11.271  0.7766  0.2761 -0.5108
17313SOL    HW156877   4.740   7.117  11.185  0.2321  3.1181 -0.2609
17313SOL    HW256878   4.749   7.158  11.330  0.5838 -1.0438  1.0310
17314SOL     OW56879  11.671   7.892   8.249 -0.1298  0.0981  0.5029
17314SOL    HW156880  11.688   7.986   8.253  0.1343  0.0263  1.3824
17314SOL    HW256881  11.704   7.865   8.163 -0.1846  0.8019  0.2549
17315SOL     OW56882   0.566   2.059   3.421  0.7619 -0.4273 -0.5196
17315SOL    HW156883   0.622   2.013   3.359  0.0546 -3.4793  0.8893
17315SOL    HW256884   0.615   2.057   3.503  0.5568  1.1800 -0.3209
17316SOL     OW56885   5.759   3.198  10.649 -0.0587  0.1189  0.6712
17316SOL    HW156886   5.808   3.243  10.581 -0.3286  1.3465  1.2666
17316SOL    HW256887   5.718   3.124  10.605 -0.4092  1.0146 -0.5388
17317SOL     OW56888  10.248   2.999   3.417  0.6246  0.5926  0.3097
17317SOL    HW156889  10.164   3.029   3.384 -0.4040 -2.7704 -0.5561
17317SOL    HW256890  10.233   2.983   3.510 -0.6370 -2.4554 -0.3090
17318SOL     OW56891   3.490  11.373   3.033  0.0530  0.1349 -0.2614
17318SOL    HW156892   3.488  11.278   3.042  1.1443  0.1502  0.1971
17318SOL    HW256893   3.440  11.405   3.108  0.0976 -0.0571 -0.1491
17319SOL     OW56894   2.142   5.020   5.194  0.2036  0.5535  0.0378
17319SOL    HW156895   2.094   5.100   5.171  1.4920  1.5780  0.7558
17319SOL    HW256896   2.186   4.994   5.113 -0.1796  0.6099 -0.1896
17320SOL     OW56897   5.939   2.341   5.661 -0.5753 -0.1306 -0.4473
17320SOL    HW156898   5.866   2.377   5.610 -1.6638 -1.0958  0.3592
17320SOL    HW256899   6.001   2.414   5.670 -1.5869  0.8159 -0.8880
17321SOL     OW56900   2.246   7.015   7.295 -0.6256 -0.2600  0.7212
17321SOL    HW156901   2.252   6.928   7.335 -1.7182 -0.1001  1.2752
17321SOL    HW256902   2.324   7.061   7.328  0.3523 -1.2371 -0.1586
17322SOL     OW56903   9.715   3.710   6.963  0.7437  0.1004 -0.0718
17322SOL    HW156904   9.662   3.667   6.895  0.8769 -1.4314  0.7416
17322SOL    HW256905   9.686   3.669   7.044  1.6992  0.7756  0.6205
17323SOL     OW56906  11.301   0.478   1.399  0.7243 -0.4040  0.3497
17323SOL    HW156907  11.260   0.404   1.355  1.3808 -0.2577 -0.5314
17323SOL    HW256908  11.384   0.444   1.431  0.9062 -0.1231  0.1797
17324SOL     OW56909   1.808   3.441   7.639 -0.2045 -0.4245 -0.7453
17324SOL    HW156910   1.852   3.515   7.680  0.6546 -1.1728 -0.3006
17324SOL    HW256911   1.877   3.377   7.623 -1.0056 -1.3243 -0.6936
17325SOL     OW56912   4.131   8.881   6.897 -0.0828 -0.2905 -0.5482
17325SOL    HW156913   4.167   8.968   6.918  0.4010 -0.5657 -0.2138
17325SOL    HW256914   4.208   8.825   6.889 -0.4269 -0.8456 -0.0603
17326SOL     OW56915   2.174   6.422   4.144  0.5643  0.1583 -0.1253
17326SOL    HW156916   2.216   6.408   4.229  1.6354  0.6395 -0.5709
17326SOL    HW256917   2.081   6.429   4.165  0.7742 -0.1036  0.9641
17327SOL     OW56918  10.871   9.997   0.964 -0.0297 -0.4456  0.2143
17327SOL    HW156919  10.903  10.005   0.874 -0.1578 -1.8270  0.0173
17327SOL    HW256920  10.855  10.087   0.993  0.8980  0.0681 -0.8197
17328SOL     OW56921   8.722   8.460   0.384  0.7973 -0.6613 -0.3640
17328SOL    HW156922   8.800   8.404   0.385  1.9548  0.8665  1.3868
17328SOL    HW256923   8.739   8.523   0.314  3.0986  2.0552  2.3366
17329SOL     OW56924   8.439   3.203   2.880 -0.0810 -0.1381  0.4493
17329SOL    HW156925   8.513   3.177   2.825 -0.1834 -0.2250  0.3547
17329SOL    HW256926   8.432   3.133   2.945 -0.4495 -0.4242  0.1060
17330SOL     OW56927  10.105   9.014   6.633  0.4850 -0.1038  0.2140
17330SOL    HW156928  10.028   9.036   6.581  0.7624  2.4843  0.7776
17330SOL    HW256929  10.180   9.033   6.575  0.7369  0.0933  0.5990
17331SOL     OW56930   0.083   7.561   0.249  0.0526  0.1410  0.1863
17331SOL    HW156931   0.121   7.511   0.177 -0.4524  0.7811 -0.5418
17331SOL    HW256932   0.066   7.496   0.318  0.8065 -0.4289 -0.1509
17332SOL     OW56933   1.249   1.495   5.920 -0.4298  0.1975  0.1098
17332SOL    HW156934   1.214   1.578   5.952 -1.6651  0.0980 -0.9030
17332SOL    HW256935   1.174   1.435   5.921  0.3793 -0.8524  0.5920
17333SOL     OW56936   9.177  10.114   3.946  0.6967 -0.0757  0.0887
17333SOL    HW156937   9.217  10.046   3.893  1.5346 -0.8043  1.5895
17333SOL    HW256938   9.122  10.067   4.009  1.1178  0.6201  1.0024
17334SOL     OW56939   0.375   2.868  11.147 -0.0679 -0.2255  0.3891
17334SOL    HW156940   0.428   2.855  11.068 -0.3600 -0.0585  0.1635
17334SOL    HW256941   0.358   2.962  11.148  0.2884 -0.1625  0.8822
17335SOL     OW56942   2.595   3.361   5.825 -0.0329  0.1736  0.3350
17335SOL    HW156943   2.579   3.421   5.753 -0.7765  0.6282  0.8637
17335SOL    HW256944   2.680   3.388   5.860 -0.4760  1.1216  0.7367
17336SOL     OW56945   9.616   2.627   9.726  0.4174  0.1844 -0.1407
17336SOL    HW156946   9.674   2.703   9.718 -0.0819  0.4709 -1.1413
17336SOL    HW256947   9.529   2.660   9.704 -0.1295 -0.2854  1.1765
17337SOL     OW56948   1.571  11.415  11.058 -0.0847 -0.0518 -0.0618
17337SOL    HW156949   1.605  11.334  11.019 -3.3137 -1.4570 -0.2907
17337SOL    HW256950   1.585  11.482  10.992  1.9284 -0.5580 -0.2084
17338SOL     OW56951   3.941   2.596   4.451  0.3659  0.1839 -1.1943
17338SOL    HW156952   3.996   2.527   4.487 -1.1965 -0.9028 -0.7736
17338SOL    HW256953   3.960   2.673   4.505  0.0493 -0.7065  0.2319
17339SOL     OW56954   4.262   7.364   6.036  0.1037 -0.1924 -0.2398
17339SOL    HW156955   4.253   7.413   6.118  0.6448  1.3855 -1.0784
17339SOL    HW256956   4.346   7.394   5.999 -0.6239 -0.0615 -1.8704
17340SOL     OW56957   0.521   3.173   3.477  0.0864  0.1623 -0.2963
17340SOL    HW156958   0.543   3.087   3.442  1.5049  0.5707 -0.4734
17340SOL    HW256959   0.597   3.197   3.531  0.1174  1.6644 -0.9498
17341SOL     OW56960   3.406   3.144   0.638 -0.2789  0.0329 -0.4891
17341SOL    HW156961   3.446   3.067   0.598 -1.0434  0.2771 -1.8078
17341SOL    HW256962   3.335   3.168   0.578 -0.6731  1.1916  0.3898
17342SOL     OW56963   4.336   5.892   9.632 -0.2247  0.6708  0.9231
17342SOL    HW156964   4.362   5.836   9.559 -0.6228  1.6003  0.0494
17342SOL    HW256965   4.317   5.830   9.703 -0.8668 -0.3232 -0.0724
17343SOL     OW56966   8.289  11.452   1.561  0.3457 -0.5412 -0.4530
17343SOL    HW156967   8.295  11.547   1.550  0.9116 -0.6260 -0.9695
17343SOL    HW256968   8.195  11.434   1.561  0.2321 -0.1586 -2.1359
17344SOL     OW56969   7.855  11.581  11.013 -0.1148 -0.1033  0.2585
17344SOL    HW156970   7.941  11.557  11.047  0.1536  1.8823  1.1448
17344SOL    HW256971   7.871  11.609  10.923 -0.1535 -1.4178 -0.1775
17345SOL     OW56972  10.109   6.555   4.178  0.2733 -0.4507  0.6282
17345SOL    HW156973  10.126   6.480   4.235  1.6961  0.4635  1.4758
17345SOL    HW256974  10.128   6.631   4.232  2.9882  0.4745 -1.3502
17346SOL     OW56975   8.587  10.835   8.084  0.0618 -0.1785 -0.1564
17346SOL    HW156976   8.570  10.922   8.047  0.5950  0.2738  0.6215
17346SOL    HW256977   8.541  10.775   8.026  0.2834  0.5634 -1.1260
17347SOL     OW56978   7.457   3.190   8.425  0.0372 -0.2737  0.2171
17347SOL    HW156979   7.497   3.118   8.474 -0.7165 -0.9074 -0.0770
17347SOL    HW256980   7.373   3.204   8.469 -0.9305 -1.2688 -1.2606
17348SOL     OW56981   5.665   7.102   2.186 -0.0593 -0.8750 -0.4118
17348SOL    HW156982   5.601   7.108   2.258  0.1079 -1.2767 -0.2252
17348SOL    HW256983   5.619   7.139   2.110  0.7079  2.2164  0.4809
17349SOL     OW56984  11.602   3.903  10.184  0.0408 -0.3292  0.1008
17349SOL    HW156985  11.639   3.960  10.117  2.8840 -0.6418  1.2825
17349SOL    HW256986  11.607   3.815  10.147  1.8751 -0.5356  0.7778
17350SOL     OW56987   2.096   1.043   6.431 -0.1527 -0.3866 -0.8709
17350SOL    HW156988   2.159   1.007   6.493 -1.1871 -0.8582 -0.0687
17350SOL    HW256989   2.078   1.131   6.463  0.6097  0.0185 -1.5073
17351SOL     OW56990   7.954  10.914   1.204 -0.6874  0.4696 -0.1200
17351SOL    HW156991   7.884  10.979   1.200 -0.3470  0.7893 -3.1495
17351SOL    HW256992   7.947  10.866   1.121  1.3810 -0.8855  0.4197
17352SOL     OW56993   8.772   3.478   1.079  0.2910 -0.6006  0.1309
17352SOL    HW156994   8.780   3.386   1.053  0.3010 -0.5933  0.1090
17352SOL    HW256995   8.761   3.526   0.997 -0.0274 -0.6157  0.1626
17353SOL     OW56996  10.356  10.577  10.477  0.0296  0.0016  0.5966
17353SOL    HW156997  10.414  10.611  10.545  0.2279 -0.1087  0.4838
17353SOL    HW256998  10.303  10.652  10.451  1.6691  0.6982 -0.9072
17354SOL     OW56999   4.468   0.017   1.382  0.3839 -0.3646  0.2435
17354SOL    HW157000   4.539   0.053   1.435  0.3473 -0.1153  0.1285
17354SOL    HW257001   4.506  -0.059   1.339  0.0814 -1.2709  1.5201
17355SOL     OW57002   0.286   1.425   9.254 -0.3129 -0.3851  0.6116
17355SOL    HW157003   0.240   1.465   9.179 -0.3466 -0.1830  0.7412
17355SOL    HW257004   0.268   1.483   9.327 -1.1331 -1.1128  1.0159
17356SOL     OW57005   5.747   3.298   4.988  0.2843 -0.4169 -0.6731
17356SOL    HW157006   5.820   3.334   5.038  0.0424 -0.6167 -0.1707
17356SOL    HW257007   5.677   3.363   4.997  0.0666 -0.6975 -0.3120
17357SOL     OW57008   4.476   3.682  11.123 -0.1553  0.4471  0.0421
17357SOL    HW157009   4.567   3.690  11.152  0.2446 -1.0145 -0.7210
17357SOL    HW257010   4.437   3.767  11.144  1.3914  1.1202  0.3509
17358SOL     OW57011   8.442   3.919   1.143  0.0722  0.4256 -1.2404
17358SOL    HW157012   8.472   3.833   1.112  0.3407 -0.8734  2.1687
17358SOL    HW257013   8.483   3.929   1.229 -2.8399  2.2729  0.0833
17359SOL     OW57014   1.952   8.577   5.468 -0.0058 -1.0453  0.5614
17359SOL    HW157015   1.886   8.559   5.401 -0.9903 -0.9524  1.4811
17359SOL    HW257016   2.026   8.615   5.419 -1.8940  2.0530 -0.1783
17360SOL     OW57017   8.805   6.256   9.793 -0.4674  0.4834  0.2107
17360SOL    HW157018   8.763   6.340   9.773 -2.2733 -0.3892  0.1031
17360SOL    HW257019   8.770   6.232   9.879 -1.7435 -1.1590 -0.7064
17361SOL     OW57020   9.272  11.329   4.871 -0.1296  0.6582  0.3201
17361SOL    HW157021   9.273  11.343   4.965  1.3029 -0.8694  0.5644
17361SOL    HW257022   9.184  11.293   4.853 -0.9080  2.2232  0.8199
17362SOL     OW57023   7.481   2.991  11.438 -0.6394 -0.2131 -0.1017
17362SOL    HW157024   7.389   3.014  11.450 -1.0996 -1.0388 -1.8038
17362SOL    HW257025   7.486   2.954  11.350  1.1189 -1.2009  0.3576
17363SOL     OW57026   5.746   1.046   8.071  0.3622  0.1476  0.3763
17363SOL    HW157027   5.794   0.990   8.009  0.7428  0.6759  0.1908
17363SOL    HW257028   5.654   1.028   8.052  0.4669  0.4131 -0.4535
17364SOL     OW57029   7.603   3.476   6.611 -0.4265  0.0304 -0.0268
17364SOL    HW157030   7.578   3.494   6.520  0.4894  0.2372 -0.2526
17364SOL    HW257031   7.554   3.539   6.663  1.3791  2.0804 -0.6590
17365SOL     OW57032   6.942   9.790   8.022  0.1974 -0.1244 -0.4385
17365SOL    HW157033   6.929   9.877   8.062  1.2210 -0.4517  0.6809
17365SOL    HW257034   7.017   9.754   8.070  0.2600 -1.3203 -1.4217
17366SOL     OW57035   9.631   3.897   8.700  0.1922  0.2638  0.0129
17366SOL    HW157036   9.703   3.958   8.714 -0.0032  0.1740  1.4917
17366SOL    HW257037   9.671   3.821   8.657  0.8996  0.3781  0.4679
17367SOL     OW57038   7.006  10.760   1.561 -1.0293  0.9026  0.1600
17367SOL    HW157039   7.065  10.737   1.489 -0.0999  2.2481  0.4435
17367SOL    HW257040   7.064  10.766   1.637 -1.9031  0.1213  0.9065
17368SOL     OW57041   9.400   4.552   1.208 -0.1128 -0.0665 -0.1556
17368SOL    HW157042   9.478   4.606   1.198 -0.5346  0.2094 -2.2410
17368SOL    HW257043   9.404   4.522   1.299  3.1709 -1.2347 -0.5537
17369SOL     OW57044   2.348   9.205   1.958 -0.0530  0.1118 -0.2189
17369SOL    HW157045   2.284   9.275   1.944  0.8210  0.6677 -1.7824
17369SOL    HW257046   2.311   9.129   1.914  0.1007  0.2920 -0.6708
17370SOL     OW57047   4.058   1.204   0.281  0.2730 -0.1457 -0.6144
17370SOL    HW157048   3.973   1.248   0.292  0.5196  0.4068 -0.8404
17370SOL    HW257049   4.036   1.119   0.242 -0.1688  0.0747 -0.8608
17371SOL     OW57050   3.273   3.121   5.225 -0.7006  0.2689 -0.8611
17371SOL    HW157051   3.361   3.089   5.206 -0.5555 -0.6288  1.0985
17371SOL    HW257052   3.286   3.212   5.253 -0.2763 -0.0604  0.0673
17372SOL     OW57053   2.911   7.213   9.746 -0.7078  0.1530 -0.5306
17372SOL    HW157054   2.913   7.163   9.827 -1.2767  0.2540 -0.4490
17372SOL    HW257055   3.002   7.239   9.731 -0.5015 -0.4068 -0.2663
17373SOL     OW57056   2.012   6.576   8.623 -0.2216 -0.9467 -0.2146
17373SOL    HW157057   2.075   6.535   8.563  1.3083  0.8906  0.0304
17373SOL    HW257058   1.999   6.512   8.692  4.1562 -0.2506  1.5839
17374SOL     OW57059  10.871  10.258   6.404 -0.0185 -0.0547  0.1591
17374SOL    HW157060  10.950  10.301   6.437 -0.5513  1.4581 -0.4426
17374SOL    HW257061  10.835  10.213   6.480  0.7398  0.3164  0.7556
17375SOL     OW57062   7.532   3.612   9.745  0.0925  0.4495  0.2036
17375SOL    HW157063   7.602   3.648   9.690  0.2402  0.6682  0.5344
17375SOL    HW257064   7.529   3.670   9.821  0.1743 -0.1017  0.6306
17376SOL     OW57065   2.698   4.569   0.511 -0.1903 -0.9381  0.0365
17376SOL    HW157066   2.719   4.659   0.534 -0.9556 -0.7264 -0.0522
17376SOL    HW257067   2.718   4.518   0.590 -0.1591 -0.6274  0.2303
17377SOL     OW57068   6.061   0.775   5.008 -0.3473 -0.1655 -0.1784
17377SOL    HW157069   5.968   0.763   5.026 -0.3576 -0.2988 -0.3180
17377SOL    HW257070   6.081   0.863   5.039 -0.1039 -0.7778  1.5348
17378SOL     OW57071   2.191   0.599   4.824 -0.2576  0.3647  0.4895
17378SOL    HW157072   2.173   0.533   4.756 -0.5003 -0.8471  1.6856
17378SOL    HW257073   2.132   0.575   4.896  0.6954  1.0160  1.5009
17379SOL     OW57074   0.291   0.027   5.995 -0.5446 -0.2010 -0.4125
17379SOL    HW157075   0.233   0.033   6.071  0.8719 -3.2964  1.0743
17379SOL    HW257076   0.363   0.086   6.015  0.9235 -2.5579  1.8786
17380SOL     OW57077  10.500   3.139   3.882  0.1251  0.2830  0.4024
17380SOL    HW157078  10.411   3.167   3.902  0.3265  1.6515 -0.4952
17380SOL    HW257079  10.493   3.093   3.799  0.0286 -1.0415  1.1271
17381SOL     OW57080   7.290   8.750   7.117  0.0473  0.1550  0.1212
17381SOL    HW157081   7.330   8.668   7.087  0.4577  0.7170 -0.9059
17381SOL    HW257082   7.227   8.722   7.184 -1.4855 -1.2588 -1.7957
17382SOL     OW57083   9.777   8.932   4.198  0.4517  0.0999  0.2402
17382SOL    HW157084   9.777   9.028   4.188 -1.5921  0.1104 -0.0646
17382SOL    HW257085   9.848   8.915   4.260  0.7456  1.8261  0.4498
17383SOL     OW57086   4.326   7.103   3.117  0.0989  0.5410  0.5807
17383SOL    HW157087   4.344   7.097   3.211  2.0569 -2.3057  0.1479
17383SOL    HW257088   4.268   7.030   3.099  0.2534  0.6709 -0.5166
17384SOL     OW57089   7.738   3.145   3.607 -1.2258 -1.0810  0.5815
17384SOL    HW157090   7.785   3.153   3.523  0.4383 -2.5844  1.2952
17384SOL    HW257091   7.677   3.072   3.594 -0.0587 -2.1853  0.9961
17385SOL     OW57092   0.090   5.343   4.737  0.2518  0.6174  0.4611
17385SOL    HW157093   0.003   5.329   4.702 -0.2957  1.1006  1.5872
17385SOL    HW257094   0.087   5.308   4.826  1.4074  0.0227  0.2909
17386SOL     OW57095   2.598  11.150   4.771  0.0678  0.0857 -0.3887
17386SOL    HW157096   2.652  11.205   4.715  1.6178 -1.2609 -0.3083
17386SOL    HW257097   2.635  11.161   4.859 -0.4276 -0.0948 -0.1546
17387SOL     OW57098  10.850   3.640   7.864  0.0655  0.0615  0.1799
17387SOL    HW157099  10.872   3.700   7.935  2.0225  0.6867 -0.8832
17387SOL    HW257100  10.907   3.564   7.876 -0.3408 -0.3073 -0.1334
17388SOL     OW57101   8.953   0.951   2.590  0.0926 -0.8249 -0.6437
17388SOL    HW157102   8.870   0.906   2.604  0.5429 -1.8720 -1.2547
17388SOL    HW257103   8.971   0.995   2.673 -1.2647 -0.2398 -0.6343
17389SOL     OW57104   9.545   3.136   3.509  0.1228 -0.0283 -0.3625
17389SOL    HW157105   9.557   3.138   3.414 -0.2906  0.4455 -0.4122
17389SOL    HW257106   9.591   3.058   3.537  0.2932 -0.1481 -0.9500
17390SOL     OW57107   9.574   0.992   0.380 -0.2185 -0.0109  0.3220
17390SOL    HW157108   9.501   0.939   0.347 -0.4853  0.6353 -0.1427
17390SOL    HW257109   9.585   1.061   0.315  1.6585 -0.8156 -0.2934
17391SOL     OW57110  11.273   4.563   4.495 -0.2356 -0.1860 -0.2321
17391SOL    HW157111  11.288   4.476   4.533  0.9761  0.3221  0.4912
17391SOL    HW257112  11.266   4.621   4.571  1.3822  0.7183 -0.7382
17392SOL     OW57113   1.358   0.191   3.626 -0.2150 -0.6062  0.0544
17392SOL    HW157114   1.291   0.124   3.641 -0.0506 -1.0264 -0.9865
17392SOL    HW257115   1.440   0.142   3.627  0.1931  0.0322  2.1913
17393SOL     OW57116   1.154   2.836   1.309  0.0760 -0.4149  0.5056
17393SOL    HW157117   1.176   2.897   1.379  0.0797  0.2447 -0.0524
17393SOL    HW257118   1.184   2.880   1.229 -1.2305 -0.4913 -0.0492
17394SOL     OW57119   4.249   7.210   7.042  0.7273  0.2822  0.1517
17394SOL    HW157120   4.202   7.158   7.108  1.9427  0.7458  1.4403
17394SOL    HW257121   4.288   7.145   6.984  1.5111 -0.2615  1.2442
17395SOL     OW57122   3.839  10.383   4.313  0.1089 -0.1357 -0.0494
17395SOL    HW157123   3.835  10.345   4.401  2.4138 -1.8538 -0.5942
17395SOL    HW257124   3.749  10.382   4.282 -0.7109  0.2117  2.1361
17396SOL     OW57125   5.151   0.543   3.633 -0.2134 -0.5895 -0.0193
17396SOL    HW157126   5.069   0.567   3.676  0.0659  0.9531 -0.2975
17396SOL    HW257127   5.124   0.515   3.545 -0.3794  0.8220 -0.4345
17397SOL     OW57128   1.908   2.581   2.934 -0.3687 -0.5727  0.1366
17397SOL    HW157129   1.983   2.524   2.918  0.1412  0.4546 -1.3966
17397SOL    HW257130   1.868   2.547   3.015  0.5800 -2.3387 -0.0944
17398SOL     OW57131   8.101   5.839   9.874  0.6544  0.3680 -0.2184
17398SOL    HW157132   8.034   5.902   9.844 -0.2807 -0.6314 -0.2984
17398SOL    HW257133   8.108   5.855   9.968 -1.7670 -1.3015  0.3665
17399SOL     OW57134   4.093   8.341   5.216 -0.3520  0.0248  0.4262
17399SOL    HW157135   4.085   8.407   5.147  5.1150  1.3071  0.5299
17399SOL    HW257136   4.083   8.257   5.170 -1.4716  0.8629 -0.9469
17400SOL     OW57137   3.435   9.535   1.745 -0.1511 -0.7437 -0.4996
17400SOL    HW157138   3.351   9.490   1.749 -1.3570  1.4490  0.5257
17400SOL    HW257139   3.413   9.628   1.737  2.0790  0.1271  1.7931
17401SOL     OW57140   3.172   8.530   3.298 -0.8722 -0.1148  0.3292
17401SOL    HW157141   3.185   8.625   3.293 -0.5670 -0.2175 -2.1532
17401SOL    HW257142   3.079   8.520   3.317 -1.1996  0.7115 -0.7407
17402SOL     OW57143   0.107  11.150   0.073  0.2812  0.3324 -0.1609
17402SOL    HW157144   0.122  11.212   0.144  0.6027 -1.2483  1.2211
17402SOL    HW257145   0.146  11.068   0.104  2.3013  0.0781 -3.0353
17403SOL     OW57146  10.129   9.814   9.966 -0.2057  0.4885  0.0912
17403SOL    HW157147  10.219   9.783   9.954  0.1515  0.2288  2.7892
17403SOL    HW257148  10.138   9.892  10.022 -1.5751  1.2902 -0.7656
17404SOL     OW57149   2.038   6.974   0.159  0.0184  0.2729  0.2955
17404SOL    HW157150   1.994   6.898   0.119  0.3536  0.4432 -0.4073
17404SOL    HW257151   2.077   6.939   0.239  0.7693 -0.4839 -0.3737
17405SOL     OW57152   0.378   3.721   2.901  0.2266 -0.4865 -0.6719
17405SOL    HW157153   0.337   3.670   2.832  1.2079 -0.4035 -1.3338
17405SOL    HW257154   0.310   3.731   2.967 -0.6935 -0.6633 -1.5712
17406SOL     OW57155   3.956   0.106   1.495 -0.5322 -0.3575 -0.0030
17406SOL    HW157156   3.917   0.182   1.538 -1.3669  0.4470 -2.0730
17406SOL    HW257157   4.049   0.129   1.487 -0.5108 -0.1894  0.6442
17407SOL     OW57158   2.384   5.353   6.112 -0.6030  0.1785 -0.3974
17407SOL    HW157159   2.322   5.326   6.179 -0.4484 -0.3569 -0.4621
17407SOL    HW257160   2.469   5.322   6.143 -0.6194 -0.6560 -1.1385
17408SOL     OW57161   9.128   1.767  11.395  0.5572  0.4238  0.3691
17408SOL    HW157162   9.166   1.848  11.430  0.5955 -0.2083  1.8705
17408SOL    HW257163   9.103   1.717  11.473  1.7070 -1.5838 -0.4776
17409SOL     OW57164   7.306   8.309  10.582  0.1102 -0.1994 -0.1079
17409SOL    HW157165   7.282   8.387  10.533 -0.3106 -1.1397 -1.4841
17409SOL    HW257166   7.223   8.275  10.616  0.2504 -0.2065  0.2322
17410SOL     OW57167   0.818   1.692   6.347  0.1934 -0.2347 -0.3535
17410SOL    HW157168   0.771   1.644   6.414 -0.0805 -1.0984 -1.1377
17410SOL    HW257169   0.769   1.774   6.336 -1.3330 -1.2467 -1.3705
17411SOL     OW57170  10.471   1.557   7.770  0.4591  0.2653  0.4925
17411SOL    HW157171  10.557   1.518   7.753 -0.7453 -1.7915 -1.3584
17411SOL    HW257172  10.435   1.507   7.843  0.1762 -0.0103  0.1689
17412SOL     OW57173   5.491   7.530   4.615 -0.0955 -0.2850 -0.1549
17412SOL    HW157174   5.573   7.497   4.652 -1.0009 -2.7866 -0.1984
17412SOL    HW257175   5.518   7.598   4.553  1.7098  1.1148  2.0252
17413SOL     OW57176  10.283  10.033   3.628 -0.4741 -0.3125 -0.4118
17413SOL    HW157177  10.357  10.092   3.634 -0.7598  0.2421 -1.9219
17413SOL    HW257178  10.250  10.027   3.718  1.7076 -1.0377  0.4056
17414SOL     OW57179   1.748   4.497   1.494  0.0315 -0.3396  0.4739
17414SOL    HW157180   1.828   4.549   1.501 -0.7050  1.1787 -1.5742
17414SOL    HW257181   1.748   4.466   1.403 -1.3968 -0.8546  0.6340
17415SOL     OW57182   9.300   1.069  10.304 -0.7414  0.3613  0.3369
17415SOL    HW157183   9.316   0.979  10.274 -0.0914 -0.9990  4.2303
17415SOL    HW257184   9.374   1.119  10.269 -0.7324 -0.7138 -1.3222
17416SOL     OW57185   2.532   2.201   2.806 -0.0086  0.6046  0.6220
17416SOL    HW157186   2.507   2.233   2.718 -0.3060  2.0650  1.2021
17416SOL    HW257187   2.539   2.107   2.796  2.7378  0.9109 -1.6872
17417SOL     OW57188  11.010  11.433   1.786  0.2619 -0.4659  0.0608
17417SOL    HW157189  10.966  11.372   1.728  0.9088  0.5241 -1.5288
17417SOL    HW257190  11.099  11.441   1.751  0.2882  1.1207  0.3909
17418SOL     OW57191   5.980   9.742   4.934 -0.0105  0.2556 -0.0376
17418SOL    HW157192   6.059   9.796   4.928 -2.3487  3.8845 -1.3241
17418SOL    HW257193   5.965   9.732   5.028  1.6612 -0.1334  0.2236
17419SOL     OW57194   2.687   7.263   1.022  0.0426  0.1731  0.1556
17419SOL    HW157195   2.591   7.257   1.022  0.0521 -0.2493 -1.0434
17419SOL    HW257196   2.707   7.325   0.951  0.6694 -0.0564  0.1261
17420SOL     OW57197   7.598   7.080   2.670 -0.6101  0.5135 -0.5016
17420SOL    HW157198   7.640   7.023   2.606  2.0825  1.2561  0.4657
17420SOL    HW257199   7.574   7.022   2.742  2.2700  0.4785  0.5592
17421SOL     OW57200  10.768   6.945   1.361 -0.4964  0.3722 -0.1969
17421SOL    HW157201  10.738   6.859   1.390  1.6161 -0.0826  0.8657
17421SOL    HW257202  10.787   6.934   1.268  1.0649 -0.7636  0.2183
17422SOL     OW57203   0.550   8.871  10.381  0.4322 -0.0499 -0.0246
17422SOL    HW157204   0.523   8.959  10.406  0.8785 -0.3102  1.4982
17422SOL    HW257205   0.645   8.877  10.371  0.4659 -0.3508  0.0983
17423SOL     OW57206   3.000  10.983   8.962  0.3409  0.3847 -0.1962
17423SOL    HW157207   3.063  11.045   8.999  2.3310 -1.0489 -0.9924
17423SOL    HW257208   2.979  11.018   8.876  0.8430  0.3820 -0.3242
17424SOL     OW57209   9.861   9.719   6.985  0.2002  0.0029 -0.2265
17424SOL    HW157210   9.855   9.771   7.065 -1.0323  0.1182 -0.3738
17424SOL    HW257211   9.827   9.633   7.010  1.1747 -0.4098 -0.2708
17425SOL     OW57212  11.624   0.649   3.459 -0.1055  0.4600 -0.2103
17425SOL    HW157213  11.691   0.701   3.503  0.2110  0.0708 -0.2189
17425SOL    HW257214  11.656   0.641   3.369 -0.2374  0.3969 -0.2518
17426SOL     OW57215   2.850  10.329   0.033 -0.2290  0.2573 -0.0123
17426SOL    HW157216   2.916  10.261   0.045 -0.5495 -0.3763 -1.6176
17426SOL    HW257217   2.800  10.329   0.115  3.3529  2.6851  2.4911
17427SOL     OW57218   7.121   1.462   7.856 -0.1938 -0.4089  0.0204
17427SOL    HW157219   7.085   1.378   7.825  1.1449 -1.1349  0.3738
17427SOL    HW257220   7.189   1.437   7.918  0.4085  0.9485 -0.0756
17428SOL     OW57221   1.657   2.528   3.291  0.0865 -0.3189 -0.0462
17428SOL    HW157222   1.576   2.506   3.337  0.5580 -1.1721  0.4217
17428SOL    HW257223   1.658   2.623   3.286 -0.8106 -0.2948  0.1870
17429SOL     OW57224   8.025  10.555   4.480  0.1159  0.3246 -0.6346
17429SOL    HW157225   7.937  10.523   4.499  0.0824 -0.6750 -2.2385
17429SOL    HW257226   8.012  10.645   4.451 -0.1338  0.8451  0.9964
17430SOL     OW57227   1.848   9.972   5.521 -0.0584 -0.0442 -0.5180
17430SOL    HW157228   1.905  10.012   5.586 -0.0486  1.4143 -1.3804
17430SOL    HW257229   1.882   9.883   5.511  1.7341  0.5905 -0.5788
17431SOL     OW57230   1.211   7.589   5.699  0.6427  0.2873 -0.3599
17431SOL    HW157231   1.150   7.527   5.739 -0.1024  0.0491 -1.7777
17431SOL    HW257232   1.176   7.675   5.722  0.2688  0.1586 -0.4402
17432SOL     OW57233   5.539   0.752   3.023 -0.0975  0.2119  0.1251
17432SOL    HW157234   5.458   0.769   2.975 -0.3552  1.3098  0.8911
17432SOL    HW257235   5.594   0.828   3.003 -0.0551  0.4809  1.1922
17433SOL     OW57236   6.422   8.274   6.188 -0.1723  0.0662  0.6056
17433SOL    HW157237   6.337   8.288   6.230 -0.7964  0.7633 -0.8241
17433SOL    HW257238   6.454   8.363   6.170 -0.1581 -0.2040 -0.8177
17434SOL     OW57239   3.582   1.061   4.214 -0.3923 -0.2468  0.6448
17434SOL    HW157240   3.597   1.080   4.122 -0.0761  2.0004  1.0832
17434SOL    HW257241   3.667   1.033   4.247 -0.2898 -0.1938  0.4248
17435SOL     OW57242   7.203   6.194  10.969  0.2019  0.3535 -0.0604
17435SOL    HW157243   7.249   6.265  10.925 -1.5768  2.4480  1.2362
17435SOL    HW257244   7.111   6.223  10.971 -0.0822 -0.4413  3.3517
17436SOL     OW57245   1.794   4.317  11.040  0.0387 -0.3193 -0.0472
17436SOL    HW157246   1.830   4.371  10.971 -0.6831 -0.8732 -0.8878
17436SOL    HW257247   1.731   4.373  11.085 -1.2209 -0.6256 -1.3545
17437SOL     OW57248   0.869   0.745  10.975 -0.2182 -0.0829 -0.1851
17437SOL    HW157249   0.958   0.772  10.955 -0.3576 -1.3499 -3.0562
17437SOL    HW257250   0.877   0.655  11.005 -0.4696  0.1936  0.7518
17438SOL     OW57251   7.740   8.868  10.314  0.1725  0.3203  0.1575
17438SOL    HW157252   7.820   8.834  10.354 -0.6393 -0.9362  0.7870
17438SOL    HW257253   7.753   8.857  10.220  1.5426  2.0278  0.0992
17439SOL     OW57254   2.993   7.738   3.897  0.4337 -0.2089 -0.7150
17439SOL    HW157255   2.920   7.734   3.959  0.0867 -0.7689 -1.1579
17439SOL    HW257256   2.982   7.823   3.853  1.1623  0.5777  0.5577
17440SOL     OW57257   1.005   9.442  11.303 -0.3637  0.1756  0.2782
17440SOL    HW157258   1.023   9.362  11.254  1.7120  0.5832  0.3103
17440SOL    HW257259   1.030   9.421  11.393 -1.0095  0.4891  0.5438
17441SOL     OW57260  10.584   6.641   9.973  0.2855 -0.3906 -0.4583
17441SOL    HW157261  10.643   6.711   9.945 -0.3970 -0.0479 -1.1069
17441SOL    HW257262  10.632   6.560   9.955  0.2003 -0.1502 -1.9049
17442SOL     OW57263   1.374   9.003   8.459 -0.1624  0.6147  0.0342
17442SOL    HW157264   1.438   9.020   8.528  1.5314 -0.4736 -1.2061
17442SOL    HW257265   1.301   9.061   8.480  1.7779  2.9753  0.7493
17443SOL     OW57266   5.363   3.810   3.798 -0.5030 -0.2360 -1.0755
17443SOL    HW157267   5.340   3.846   3.883  0.9085 -0.0393 -0.7464
17443SOL    HW257268   5.279   3.794   3.755 -1.2329  2.3785 -0.8001
17444SOL     OW57269   2.372   2.145   8.730  0.1950 -0.4549  0.2831
17444SOL    HW157270   2.359   2.053   8.753  1.5964 -0.9899 -0.8974
17444SOL    HW257271   2.333   2.194   8.803 -4.4052 -1.8344 -0.9379
17445SOL     OW57272   1.389   6.412  11.410 -0.6329 -0.5318  0.3027
17445SOL    HW157273   1.431   6.494  11.383  0.2083 -0.5875  1.4079
17445SOL    HW257274   1.461   6.353  11.428 -1.2358 -1.6802 -0.8636
17446SOL     OW57275   6.395   4.480   9.174  0.0405  0.0576  0.5812
17446SOL    HW157276   6.472   4.504   9.122 -1.0877 -0.5209 -1.4644
17446SOL    HW257277   6.326   4.466   9.110 -1.2456 -1.5276  2.1961
17447SOL     OW57278   6.660   7.481   2.568  0.4179 -0.2615  0.0563
17447SOL    HW157279   6.626   7.568   2.587  0.6217 -0.0694 -0.4567
17447SOL    HW257280   6.749   7.496   2.536 -0.0241 -0.5341 -1.3969
17448SOL     OW57281   7.428   0.326   2.001 -0.7326  0.0574  0.5462
17448SOL    HW157282   7.345   0.343   1.957 -0.7608 -0.4196  0.4029
17448SOL    HW257283   7.410   0.250   2.056  0.0759 -1.2282 -0.8705
17449SOL     OW57284  10.687   6.263   1.477 -0.0362 -1.2353  0.0143
17449SOL    HW157285  10.642   6.315   1.411  0.4146  0.4980  1.0030
17449SOL    HW257286  10.762   6.226   1.431  0.4360  0.1789 -0.4007
17450SOL     OW57287   4.620   3.698   5.435  0.4713 -0.3209 -0.1283
17450SOL    HW157288   4.564   3.640   5.488  0.1630 -0.5217 -0.6618
17450SOL    HW257289   4.709   3.666   5.451  0.4219 -0.1300  0.5714
17451SOL     OW57290   9.955   2.997   9.813  0.1567  0.1569  0.0030
17451SOL    HW157291  10.049   2.991   9.831  0.4932 -1.6344 -1.9148
17451SOL    HW257292   9.931   3.086   9.839  2.3904  0.6905  0.4562
17452SOL     OW57293   0.870   0.068   3.373  0.3753 -0.0268 -0.0340
17452SOL    HW157294   0.826  -0.017   3.366  0.8876 -0.4193  1.0840
17452SOL    HW257295   0.805   0.125   3.414 -0.5312  0.6023 -2.2365
17453SOL     OW57296  11.519  10.073   7.553 -0.7447  0.3037  0.1186
17453SOL    HW157297  11.472   9.997   7.520 -1.5806  0.3810  1.0985
17453SOL    HW257298  11.611  10.047   7.552 -0.9420 -0.3807 -0.4210
17454SOL     OW57299   3.597   8.735   7.952 -0.0526 -0.1205  0.6475
17454SOL    HW157300   3.692   8.726   7.944  0.1462 -0.0729  2.4597
17454SOL    HW257301   3.561   8.675   7.887  1.2233 -0.5808  0.3431
17455SOL     OW57302   6.192   0.433  11.358  0.7367  0.2348  0.5214
17455SOL    HW157303   6.204   0.368  11.427 -3.1512 -1.7521 -0.4239
17455SOL    HW257304   6.141   0.503  11.399 -2.8467 -1.6026 -0.3853
17456SOL     OW57305   2.812   1.131   8.372 -0.3898  0.0797 -0.1464
17456SOL    HW157306   2.764   1.051   8.353 -1.9210  0.2431  2.5141
17456SOL    HW257307   2.815   1.178   8.289  0.9603 -2.8593 -1.9134
17457SOL     OW57308   8.772   6.586  11.477  0.0056 -0.8714 -0.4098
17457SOL    HW157309   8.729   6.544  11.403  0.0337 -0.0287 -0.9237
17457SOL    HW257310   8.701   6.610  11.536 -0.3353  1.0019 -1.5050
17458SOL     OW57311   0.958   9.524   2.292  0.0351  0.6653  0.6112
17458SOL    HW157312   0.960   9.587   2.219  1.8311  0.0302  0.0604
17458SOL    HW257313   1.030   9.464   2.274 -0.9645 -0.9445  1.6903
17459SOL     OW57314   1.894   4.665   7.307 -0.4340  0.0123  0.0855
17459SOL    HW157315   1.827   4.597   7.305 -1.4785  0.6893  3.9665
17459SOL    HW257316   1.934   4.656   7.394 -0.6314  4.3001  0.8137
17460SOL     OW57317   6.282   5.806   9.852  0.0469 -0.9613 -0.5737
17460SOL    HW157318   6.265   5.750   9.928 -1.8935 -0.6293 -0.7206
17460SOL    HW257319   6.220   5.777   9.786 -3.3944  3.2351  0.3545
17461SOL     OW57320   3.335   2.281   7.843  0.2408  0.1177  0.3606
17461SOL    HW157321   3.338   2.219   7.916 -0.5121  0.7409  0.9319
17461SOL    HW257322   3.300   2.229   7.770  3.2065 -1.1905 -0.3208
17462SOL     OW57323  10.121   7.156   0.760 -0.7151  0.7344  0.4971
17462SOL    HW157324  10.156   7.126   0.844  1.7058  1.3033 -0.2210
17462SOL    HW257325  10.040   7.107   0.749  0.7935 -2.2278  1.3947
17463SOL     OW57326   0.415   1.981  11.283 -0.0708  0.2661  0.3722
17463SOL    HW157327   0.366   2.001  11.363 -1.2600  0.7785 -0.4496
17463SOL    HW257328   0.506   1.980  11.310 -0.5250 -1.4304  2.1334
17464SOL     OW57329  10.056  10.922  10.760 -0.3280 -0.1790  0.3436
17464SOL    HW157330  10.077  11.006  10.801 -0.7706 -0.9843  2.3366
17464SOL    HW257331  10.087  10.931  10.670  0.0847  1.9304  0.6423
17465SOL     OW57332   9.215   6.822   5.016 -0.1707 -0.1776  0.1288
17465SOL    HW157333   9.245   6.911   5.032 -0.5434 -0.0237 -0.0195
17465SOL    HW257334   9.158   6.829   4.939  0.0726 -0.5992 -0.0934
17466SOL     OW57335   8.735   3.062   0.859  0.1455  0.0365  0.3453
17466SOL    HW157336   8.826   3.087   0.872  0.6750 -1.7717  0.4412
17466SOL    HW257337   8.734   3.016   0.775 -1.0189  1.4713 -0.4738
17467SOL     OW57338   7.898   9.352   3.727 -0.5973  0.5700 -0.0871
17467SOL    HW157339   7.803   9.339   3.734 -0.7902  1.7217 -0.3703
17467SOL    HW257340   7.915   9.434   3.774  0.0778  0.9827 -1.0080
17468SOL     OW57341   3.945   0.118   9.858 -0.1781  0.2264  0.3623
17468SOL    HW157342   3.995   0.169   9.794  0.1860  0.6013  0.9334
17468SOL    HW257343   3.887   0.182   9.899 -0.9097 -0.1491 -0.0795
17469SOL     OW57344  11.536  11.208   6.236 -0.2839 -0.4195 -0.1435
17469SOL    HW157345  11.534  11.229   6.330 -0.5425  0.6534 -0.3701
17469SOL    HW257346  11.452  11.164   6.220 -1.0723  1.0256 -0.2007
17470SOL     OW57347   0.964  10.099   9.175 -0.0248 -0.0820 -0.0006
17470SOL    HW157348   1.047  10.110   9.221  0.7136 -0.5011 -1.2118
17470SOL    HW257349   0.957  10.176   9.119  0.0723 -0.5682 -0.6907
17471SOL     OW57350   9.063   3.485   9.988 -0.5932  0.5355 -0.0760
17471SOL    HW157351   9.042   3.533  10.068 -0.1986 -0.2232  0.5019
17471SOL    HW257352   9.159   3.477   9.989 -0.6009  0.3292 -0.5088
17472SOL     OW57353   5.025   6.855  10.539  0.4513  0.3337 -0.0522
17472SOL    HW157354   4.944   6.849  10.487  0.5775 -0.2795 -0.1830
17472SOL    HW257355   5.087   6.799  10.493  0.4846 -0.4331  0.8995
17473SOL     OW57356  10.754   3.066   3.661  0.1478  0.6436  0.0181
17473SOL    HW157357  10.672   3.045   3.706  0.0807 -0.9638 -0.7781
17473SOL    HW257358  10.727   3.102   3.577  0.2512  0.1440 -0.2322
17474SOL     OW57359   9.880   5.242   9.050 -0.2362 -0.6515  0.3401
17474SOL    HW157360   9.922   5.296   9.117  0.5188 -1.7290  0.7673
17474SOL    HW257361   9.852   5.304   8.983  1.4739  0.2050  0.3528
17475SOL     OW57362   9.863   5.230   4.607 -0.2929 -0.1141 -0.9005
17475SOL    HW157363   9.914   5.240   4.688 -1.3847  1.2248 -0.3584
17475SOL    HW257364   9.888   5.143   4.574 -0.0338 -0.7914  1.0005
17476SOL     OW57365   7.454   2.225   8.504  0.7515  0.8604  0.7180
17476SOL    HW157366   7.529   2.258   8.554  1.2375  2.0358 -0.7094
17476SOL    HW257367   7.481   2.139   8.474  0.7178  0.4294  1.8742
17477SOL     OW57368   2.144   0.875   4.812 -0.3263  0.0617  0.4040
17477SOL    HW157369   2.140   0.959   4.858  1.2526  1.1864 -1.3919
17477SOL    HW257370   2.052   0.848   4.804 -0.9781  2.1637  0.1050
17478SOL     OW57371  10.524   7.970   4.216  0.2958  0.4256 -0.0311
17478SOL    HW157372  10.457   7.938   4.277  1.7504  0.4042  1.6049
17478SOL    HW257373  10.517   7.911   4.141 -2.7442  1.5405 -0.7675
17479SOL     OW57374   6.160   4.811   3.236  0.0856  0.6066 -0.3462
17479SOL    HW157375   6.078   4.791   3.191  0.2230 -0.4092 -0.1608
17479SOL    HW257376   6.148   4.777   3.325 -0.3287  2.9088  0.5639
17480SOL     OW57377   2.984   7.245   4.905  0.3578  0.8175  0.1334
17480SOL    HW157378   2.967   7.213   4.817 -0.3564 -2.0920  1.1973
17480SOL    HW257379   3.073   7.280   4.902 -0.1648  2.0873 -2.0241
17481SOL     OW57380   0.124   0.607   1.561  0.5067 -0.2468 -0.1490
17481SOL    HW157381   0.176   0.613   1.480  1.4944  0.1404  0.4886
17481SOL    HW257382   0.042   0.650   1.540  1.0964  0.6483 -0.6888
17482SOL     OW57383   7.935  11.510   4.963  0.7029 -0.6010  0.5010
17482SOL    HW157384   7.880  11.524   4.886  1.6005 -1.9556 -0.4227
17482SOL    HW257385   7.874  11.514   5.037 -0.1094  1.1656 -0.1938
17483SOL     OW57386   5.714   2.258   4.440 -0.2375  0.3656  0.4318
17483SOL    HW157387   5.645   2.324   4.431 -0.3355  0.1579 -0.4828
17483SOL    HW257388   5.669   2.175   4.430 -0.2271  0.0981  2.2799
17484SOL     OW57389   1.928   7.165   0.007  0.8019  0.1295  0.3852
17484SOL    HW157390   1.975   7.243   0.036 -1.2596  0.4153  3.5394
17484SOL    HW257391   1.942   7.101   0.077 -0.4101 -1.0628 -0.4017
17485SOL     OW57392   2.753   0.716  11.427 -0.6891  0.5024  0.0657
17485SOL    HW157393   2.820   0.758  11.373  1.5955  0.1354  2.4059
17485SOL    HW257394   2.746   0.627  11.390 -1.4217  1.1516 -1.4338
17486SOL     OW57395   2.423   4.699   5.008 -0.3721  0.3883 -0.6887
17486SOL    HW157396   2.455   4.768   4.950  1.4092  1.0037  0.9099
17486SOL    HW257397   2.500   4.672   5.058 -1.5711 -0.9819  0.5340
17487SOL     OW57398   5.203  10.891   6.431 -0.9807  0.1563  0.5364
17487SOL    HW157399   5.124  10.941   6.408 -0.4659  0.3723 -0.9075
17487SOL    HW257400   5.170  10.817   6.482 -2.0584  0.5513  0.4546
17488SOL     OW57401   9.768   3.634   8.996  0.1066  0.7500 -0.5699
17488SOL    HW157402   9.738   3.724   8.998  2.7584  1.6997 -0.1523
17488SOL    HW257403   9.822   3.624   9.074  0.4067 -0.9945 -0.9503
17489SOL     OW57404   6.351   5.062   9.487 -0.1823 -0.5808  0.1459
17489SOL    HW157405   6.260   5.085   9.506  0.5316  0.9897  1.9879
17489SOL    HW257406   6.375   5.118   9.413 -0.8277 -1.4302 -0.7479
17490SOL     OW57407   8.980   6.066   9.968  0.2443 -0.2323 -0.3029
17490SOL    HW157408   8.998   6.155   9.999  0.2055 -0.6371  0.8964
17490SOL    HW257409   9.044   6.053   9.898  1.9771 -0.1662  1.1945
17491SOL     OW57410   7.937   8.806   5.014 -0.2820  0.3396 -0.5061
17491SOL    HW157411   7.891   8.772   4.937 -0.7785  0.9936 -0.5068
17491SOL    HW257412   8.001   8.868   4.979  1.0357 -0.9924 -0.5528
17492SOL     OW57413   5.731  11.014   1.748  0.0632  0.2456 -0.3277
17492SOL    HW157414   5.642  10.996   1.780 -0.5531 -1.2984 -2.6597
17492SOL    HW257415   5.784  10.942   1.783  0.5567  1.3380  1.3318
17493SOL     OW57416  10.064   1.270   0.461  0.1877  0.1256  0.2213
17493SOL    HW157417  10.133   1.235   0.405  0.6341 -0.9377  1.3838
17493SOL    HW257418  10.012   1.326   0.404  0.9740 -0.4573 -1.0993
17494SOL     OW57419   7.520   0.938   3.625 -0.0542  0.1870 -0.1993
17494SOL    HW157420   7.463   0.971   3.556 -1.0403  0.4116  0.6829
17494SOL    HW257421   7.607   0.932   3.585 -0.2584  1.8983 -0.9724
17495SOL     OW57422   5.860   1.168   6.527 -0.4444  0.1598 -0.2848
17495SOL    HW157423   5.781   1.157   6.579  1.0577 -0.9778  1.9229
17495SOL    HW257424   5.870   1.263   6.518 -1.5928  0.3350  0.1563
17496SOL     OW57425  10.766   2.937   8.852 -0.9578 -0.2989 -0.7025
17496SOL    HW157426  10.797   2.992   8.924 -1.0170 -2.1168  0.8041
17496SOL    HW257427  10.830   2.949   8.782  1.1310 -1.1392  0.9633
17497SOL     OW57428   5.039   0.366  11.205 -0.8111 -0.1328  0.0106
17497SOL    HW157429   5.117   0.412  11.174  0.4956 -2.2047  0.0865
17497SOL    HW257430   5.039   0.381  11.299 -1.3362  1.0338 -0.1512
17498SOL     OW57431   1.578   7.744   5.303  0.2475  0.1127 -0.0989
17498SOL    HW157432   1.644   7.810   5.283 -0.1988  0.0898 -1.7609
17498SOL    HW257433   1.534   7.728   5.220  0.1314 -2.0607  0.3220
17499SOL     OW57434   6.967   4.302   5.331  0.1752 -0.3357 -0.7140
17499SOL    HW157435   6.877   4.270   5.323  0.5511 -2.1143  1.2441
17499SOL    HW257436   7.004   4.252   5.404  2.4193  1.1467 -0.7244
17500SOL     OW57437   6.486   9.545   3.328  0.4613  0.3099 -0.0688
17500SOL    HW157438   6.423   9.609   3.295 -1.3442 -0.8360  1.0069
17500SOL    HW257439   6.524   9.506   3.249 -0.6500  0.5795 -0.7539
17501SOL     OW57440   4.398   5.893   5.389 -0.4579 -0.4257 -0.0230
17501SOL    HW157441   4.393   5.862   5.480  1.9775 -0.4793  0.1694
17501SOL    HW257442   4.372   5.818   5.336 -0.4696 -0.8670  0.5983
17502SOL     OW57443   0.800   0.971   4.742  0.4351  0.7806  0.0984
17502SOL    HW157444   0.871   0.926   4.788 -0.3273 -0.5708 -0.0041
17502SOL    HW257445   0.736   0.992   4.810 -1.7524 -3.2054 -0.4534
17503SOL     OW57446   0.793   9.217   9.670 -0.1227  0.2890 -0.1585
17503SOL    HW157447   0.883   9.223   9.638  1.8166 -0.4638  4.3275
17503SOL    HW257448   0.760   9.134   9.636  1.5380 -0.2603 -0.5299
17504SOL     OW57449   0.696   3.700   1.404 -0.0640  0.1598 -0.0928
17504SOL    HW157450   0.762   3.734   1.463 -0.0372 -0.7155  0.4002
17504SOL    HW257451   0.733   3.618   1.371 -0.6886 -0.0942 -0.1877
17505SOL     OW57452   1.656   9.481   7.274 -0.2408 -0.1207  0.0790
17505SOL    HW157453   1.569   9.449   7.298  0.7257 -1.8029  1.5901
17505SOL    HW257454   1.683   9.425   7.201  0.1802 -0.6709  0.6440
17506SOL     OW57455   9.467   8.344   6.001 -0.0552 -0.2783 -0.2730
17506SOL    HW157456   9.477   8.369   6.093  0.1891 -0.4244 -0.2566
17506SOL    HW257457   9.552   8.363   5.962 -0.8173  1.8425 -0.9883
17507SOL     OW57458   6.376   7.101   0.161  0.0309 -0.2474 -0.2701
17507SOL    HW157459   6.464   7.130   0.141  0.5220 -0.8765  0.8716
17507SOL    HW257460   6.385   7.008   0.182 -1.0596 -0.5591 -1.0911
17508SOL     OW57461   2.069   3.805   8.258  0.1026 -0.5446 -0.5808
17508SOL    HW157462   2.082   3.777   8.167  0.4089  0.9116 -1.0267
17508SOL    HW257463   2.011   3.881   8.251  0.6626 -0.0094  0.3760
17509SOL     OW57464   2.870   0.074   1.065  0.0828 -0.2727 -0.0721
17509SOL    HW157465   2.783   0.081   1.103 -0.0756  0.5874 -0.5518
17509SOL    HW257466   2.913   0.004   1.114 -1.4422 -1.8762 -0.9380
17510SOL     OW57467   0.351   7.720   2.146 -0.1640  0.0187 -0.3375
17510SOL    HW157468   0.263   7.697   2.176 -0.1740  1.0529  0.4785
17510SOL    HW257469   0.402   7.640   2.160 -0.8374 -0.4158 -0.2838
17511SOL     OW57470   7.330   3.918   3.057  0.4042 -0.6013  0.3845
17511SOL    HW157471   7.309   3.949   2.969  0.2656  0.0840  0.6531
17511SOL    HW257472   7.251   3.873   3.085  0.3438 -0.5705  0.2670
17512SOL     OW57473   3.266   2.321   0.170  0.1575  0.5553 -0.2805
17512SOL    HW157474   3.289   2.256   0.104 -0.8448 -1.0670  0.8841
17512SOL    HW257475   3.341   2.380   0.174  1.2847 -0.7604 -1.1182
17513SOL     OW57476   7.144   5.596   6.654 -0.0561 -0.3119  0.0447
17513SOL    HW157477   7.168   5.621   6.565  0.2931 -1.7513 -0.2935
17513SOL    HW257478   7.220   5.621   6.707 -0.1667  0.3286 -0.0924
17514SOL     OW57479  10.829  11.443   2.915 -0.4796 -0.3391 -0.4154
17514SOL    HW157480  10.820  11.515   2.977 -0.5521  0.5729 -1.4729
17514SOL    HW257481  10.805  11.365   2.966  0.7205  0.2073  1.0764
17515SOL     OW57482   2.700  11.395   7.981 -0.3506  0.2727  0.0612
17515SOL    HW157483   2.663  11.373   7.895  0.5690 -1.7368  0.1236
17515SOL    HW257484   2.709  11.490   7.979 -2.0659  0.4594 -1.3380
17516SOL     OW57485  10.821   7.546   3.828 -0.9707  0.4109 -0.1854
17516SOL    HW157486  10.825   7.624   3.772  0.8250 -0.5419 -1.4962
17516SOL    HW257487  10.901   7.550   3.881 -1.6441  0.2370  0.8716
17517SOL     OW57488   5.906   5.475   1.743  0.1528  0.1334 -0.1138
17517SOL    HW157489   5.864   5.498   1.661  1.3744  0.7327 -0.6044
17517SOL    HW257490   5.855   5.521   1.810 -0.7190 -0.1858 -0.5416
17518SOL     OW57491   2.354   3.983   1.963 -0.7384  0.4094  0.1892
17518SOL    HW157492   2.281   4.040   1.988 -1.7550 -0.5153 -0.5878
17518SOL    HW257493   2.373   3.934   2.043 -0.4649  1.1621  0.6028
17519SOL     OW57494   6.878   7.831   6.158  0.1408 -0.2336 -0.4452
17519SOL    HW157495   6.871   7.917   6.115  1.8655 -0.7871 -1.9443
17519SOL    HW257496   6.802   7.827   6.215  1.0649  3.2017  1.3357
17520SOL     OW57497   3.894   5.773   6.643 -0.8741 -0.2288 -0.2375
17520SOL    HW157498   3.865   5.822   6.566  0.2200 -1.1208 -1.2688
17520SOL    HW257499   3.872   5.682   6.623  2.0104 -0.9068 -0.8808
17521SOL     OW57500   2.856   7.974   1.343  0.1144 -0.0344  0.0747
17521SOL    HW157501   2.881   7.885   1.319 -2.4111 -0.6649 -0.5892
17521SOL    HW257502   2.925   8.003   1.403  1.0233 -2.4247  0.3157
17522SOL     OW57503  10.435   5.974   5.798  0.0037 -0.5723 -0.2119
17522SOL    HW157504  10.377   5.911   5.840 -0.0209 -1.8736 -2.0743
17522SOL    HW257505  10.491   5.921   5.741  1.6143  0.8669 -0.0392
17523SOL     OW57506   1.397   1.726   7.625  0.6550  0.1246  0.1051
17523SOL    HW157507   1.310   1.703   7.656  1.2092 -0.0591  1.6190
17523SOL    HW257508   1.415   1.663   7.554 -0.8864  0.9543 -1.0656
17524SOL     OW57509   3.168   2.505   1.772 -0.1161  0.1681 -0.4789
17524SOL    HW157510   3.170   2.589   1.818 -0.9367 -0.9928  1.8216
17524SOL    HW257511   3.154   2.440   1.841  2.1268 -2.0505 -1.9642
17525SOL     OW57512  10.633   3.176   0.879  0.1393  0.2412 -0.0448
17525SOL    HW157513  10.548   3.219   0.867 -0.7929 -1.1550  1.1489
17525SOL    HW257514  10.617   3.111   0.947  1.4870 -1.8926 -1.6375
17526SOL     OW57515   9.827   2.504  10.116  0.3164 -0.2933 -0.3261
17526SOL    HW157516   9.800   2.417  10.146  2.6082 -0.9502  0.0194
17526SOL    HW257517   9.774   2.565  10.166 -0.0202 -1.4751  0.7974
17527SOL     OW57518   4.766   6.038   4.148  0.0017 -0.7482 -0.2002
17527SOL    HW157519   4.856   6.049   4.179  0.1533 -0.2578 -0.7898
17527SOL    HW257520   4.764   6.083   4.064 -0.2523 -2.4750 -1.1772
17528SOL     OW57521  10.621   9.042   2.852  0.8418  0.1794  0.1173
17528SOL    HW157522  10.688   8.980   2.825  0.4998  0.5734 -1.8062
17528SOL    HW257523  10.640   9.122   2.802 -0.5536  0.5693  0.1516
17529SOL     OW57524   3.605   3.917   8.970  0.1765 -0.8685 -0.7185
17529SOL    HW157525   3.637   3.846   9.026  0.4229 -2.2263 -2.4780
17529SOL    HW257526   3.684   3.966   8.947 -0.2369  1.5494  2.3692
17530SOL     OW57527   0.947   3.924   8.179 -0.0254 -0.2145  0.5083
17530SOL    HW157528   0.899   3.964   8.252  2.3749 -0.1070  2.1439
17530SOL    HW257529   1.035   3.961   8.185  0.4882 -0.8420 -1.9963
17531SOL     OW57530   7.202   2.300   7.612  0.1746 -0.2253 -0.8761
17531SOL    HW157531   7.265   2.277   7.681 -0.4619 -0.7246 -0.4450
17531SOL    HW257532   7.207   2.395   7.606  2.6604 -0.3567 -2.4878
17532SOL     OW57533   5.008   3.466   8.298  0.6772  0.1733 -0.1411
17532SOL    HW157534   5.060   3.397   8.340  0.5823  1.0740  1.5543
17532SOL    HW257535   4.976   3.519   8.371  2.0087  2.9394 -1.4406
17533SOL     OW57536   2.447   2.854   9.619  0.2073  0.1966  0.2717
17533SOL    HW157537   2.451   2.843   9.524 -1.3607  1.1575  0.0629
17533SOL    HW257538   2.449   2.765   9.654  3.2288 -0.1440 -0.4849
17534SOL     OW57539  11.362   9.518  11.456  0.1916  0.4165 -0.0322
17534SOL    HW157540  11.409   9.485  11.533  0.5375  0.7185 -0.1077
17534SOL    HW257541  11.337   9.607  11.480  0.1989  0.4701 -0.2213
17535SOL     OW57542   6.506   8.670   8.473 -0.3488  0.2256  0.2176
17535SOL    HW157543   6.534   8.760   8.459 -0.7072  0.0911 -1.6121
17535SOL    HW257544   6.457   8.647   8.394 -0.9026 -1.3365  0.9610
17536SOL     OW57545   0.079   3.411   7.849 -0.3864 -0.4660 -0.0224
17536SOL    HW157546   0.037   3.443   7.769 -0.7920 -1.1698 -0.1003
17536SOL    HW257547   0.057   3.318   7.852  1.8200 -1.0607 -0.4822
17537SOL     OW57548   6.270   6.345  10.247  0.3298  0.5024  0.2319
17537SOL    HW157549   6.358   6.383  10.250  0.3948  0.3634  0.0715
17537SOL    HW257550   6.259   6.317  10.156  0.1517  0.4410  0.2720
17538SOL     OW57551   5.321   4.991   1.643 -0.0553  0.2130 -0.7287
17538SOL    HW157552   5.319   4.979   1.548  0.2813  3.3121 -1.2250
17538SOL    HW257553   5.414   4.995   1.665 -0.0993 -1.7695 -0.0107
17539SOL     OW57554   1.618  11.658   8.896  0.1178 -0.3422  0.2467
17539SOL    HW157555   1.534  11.703   8.893 -0.0622 -0.7168 -1.3853
17539SOL    HW257556   1.674  11.714   8.949 -0.7742  0.5938  0.2227
17540SOL     OW57557   2.536   9.872   7.378  0.1995 -0.7019 -0.3341
17540SOL    HW157558   2.574   9.863   7.291  1.1203 -2.1295  0.1780
17540SOL    HW257559   2.570   9.956   7.411 -0.6497  0.1530 -1.5456
17541SOL     OW57560   4.715   8.904   1.894 -0.4101 -0.1898  0.4414
17541SOL    HW157561   4.653   8.976   1.904 -0.2006 -0.0312  0.6206
17541SOL    HW257562   4.710   8.880   1.802 -0.6234 -0.0749  0.4237
17542SOL     OW57563  10.719   4.753   1.646 -0.7009  0.3217  0.2001
17542SOL    HW157564  10.681   4.839   1.631  0.3560  0.6649 -0.6674
17542SOL    HW257565  10.746   4.755   1.738 -1.2594  0.6710  0.3618
17543SOL     OW57566   1.687   1.139   3.433 -0.5787  0.7057  0.1563
17543SOL    HW157567   1.781   1.147   3.417 -0.4659  0.9997  0.8956
17543SOL    HW257568   1.646   1.166   3.351 -0.0204  1.1294  0.0115
17544SOL     OW57569   6.584   7.535   3.275  1.0121  0.2743 -0.3711
17544SOL    HW157570   6.669   7.579   3.274  1.3351 -0.3333 -1.6459
17544SOL    HW257571   6.593   7.463   3.213 -0.5257  0.3920 -0.7936
17545SOL     OW57572   6.840   7.061  11.240  0.0798 -0.3083  0.2028
17545SOL    HW157573   6.882   7.017  11.315  0.4329 -0.2654  0.0331
17545SOL    HW257574   6.748   7.068  11.265  0.6841  2.7192  2.1341
17546SOL     OW57575   0.026  11.151   8.102  0.1810  0.3753  0.6318
17546SOL    HW157576  -0.052  11.205   8.092  0.1826  0.3212  0.3409
17546SOL    HW257577   0.087  11.182   8.035 -0.2413 -0.7511 -0.2939
17547SOL     OW57578   1.970  10.151   8.249  0.3220  0.0917  0.3655
17547SOL    HW157579   1.967  10.230   8.302  1.3229  1.1040 -1.0007
17547SOL    HW257580   1.910  10.091   8.292 -1.3708  1.9892  0.8009
17548SOL     OW57581  11.445   8.465   0.252  0.0103 -0.1410  0.2467
17548SOL    HW157582  11.402   8.509   0.178  0.4762  0.6883  0.4524
17548SOL    HW257583  11.373   8.428   0.303 -0.5583  1.6380  0.8439
17549SOL     OW57584   3.682   6.533   6.315  0.5042  0.3006 -0.0157
17549SOL    HW157585   3.589   6.528   6.292  0.8218  0.0773 -1.3268
17549SOL    HW257586   3.684   6.517   6.409 -0.7143 -0.5897 -0.1174
17550SOL     OW57587   3.521   0.785   9.107  0.0632 -0.0936  0.1075
17550SOL    HW157588   3.445   0.787   9.048  0.8786 -0.4114 -0.9878
17550SOL    HW257589   3.571   0.864   9.085  1.3775 -1.1852 -1.0556
17551SOL     OW57590   6.641   0.419   6.510 -0.8122 -0.0599  0.1833
17551SOL    HW157591   6.629   0.375   6.426 -1.0961 -0.5594  0.4833
17551SOL    HW257592   6.645   0.348   6.575  1.3273  0.1806  0.4005
17552SOL     OW57593   6.041   2.443   1.458 -0.1459  0.1892  0.2621
17552SOL    HW157594   6.122   2.396   1.436  0.4489  0.6585  1.3342
17552SOL    HW257595   6.071   2.529   1.486 -1.1928  1.1574 -1.4238
17553SOL     OW57596   8.521   8.502   2.642  0.2598  0.0443  0.1062
17553SOL    HW157597   8.586   8.458   2.697  0.6319 -0.1738 -0.4938
17553SOL    HW257598   8.531   8.595   2.662  0.8887  0.0276 -0.1139
17554SOL     OW57599   5.249   3.090  10.168 -0.1781  0.2258  0.3556
17554SOL    HW157600   5.300   3.009  10.166 -0.4413  0.0272 -2.1815
17554SOL    HW257601   5.160   3.063  10.146  0.1500  1.3460 -2.9027
17555SOL     OW57602   6.974   4.958   1.750  0.6420  1.0271  0.8375
17555SOL    HW157603   6.975   5.046   1.711  0.2367  1.6518  2.1743
17555SOL    HW257604   6.916   4.908   1.692  1.8966  1.2521 -0.6821
17556SOL     OW57605   5.353   8.433   8.359 -0.2223  0.2211  0.1780
17556SOL    HW157606   5.448   8.437   8.371 -0.1967 -1.5039  0.8642
17556SOL    HW257607   5.317   8.467   8.441 -0.1873  0.3324  0.1462
17557SOL     OW57608   9.896   8.775   4.772  0.5395 -0.1877 -0.0067
17557SOL    HW157609   9.844   8.847   4.808 -1.6378 -1.5805 -0.1607
17557SOL    HW257610   9.963   8.759   4.837 -1.4823 -0.6736  2.0834
17558SOL     OW57611   3.691   8.113   2.179 -0.2602  0.3174  0.5422
17558SOL    HW157612   3.683   8.177   2.108  2.4483 -0.8045 -0.9236
17558SOL    HW257613   3.644   8.036   2.148  0.1878  0.1201  0.3513
17559SOL     OW57614   1.760   3.472  10.492 -0.2016 -0.3841 -0.2342
17559SOL    HW157615   1.727   3.486  10.404  1.0815  1.4806 -0.4965
17559SOL    HW257616   1.683   3.471  10.548 -0.8786  1.8160 -1.0299
17560SOL     OW57617   9.543  10.741   7.602 -0.0068 -0.4264  0.2650
17560SOL    HW157618   9.529  10.747   7.508 -2.8996  0.7487  0.6662
17560SOL    HW257619   9.525  10.649   7.622 -1.8367 -0.2002 -0.0962
17561SOL     OW57620   4.356   9.186   2.593 -0.1311 -0.1274  0.4547
17561SOL    HW157621   4.426   9.252   2.597  0.5296 -0.7538 -0.2946
17561SOL    HW257622   4.342   9.173   2.499 -0.7167 -0.5752  0.5993
17562SOL     OW57623   8.200   0.559   5.945 -0.5620 -0.1539  0.2602
17562SOL    HW157624   8.277   0.538   5.998  0.2352  1.3072 -0.2630
17562SOL    HW257625   8.214   0.650   5.917 -3.4871  0.9440  1.8943
17563SOL     OW57626   6.909   8.618   5.289 -0.2620  0.5983  0.1197
17563SOL    HW157627   6.924   8.691   5.350  1.6704  1.0202 -0.7496
17563SOL    HW257628   6.890   8.661   5.206  0.1459  0.1186 -0.2289
17564SOL     OW57629   4.227   2.639   3.605 -0.3856 -0.2723 -0.1677
17564SOL    HW157630   4.132   2.632   3.600 -0.3465 -3.0679  1.0407
17564SOL    HW257631   4.242   2.706   3.672 -1.5045 -0.0761 -0.0869
17565SOL     OW57632   2.225   0.008   5.141 -0.0635  0.3873 -0.1314
17565SOL    HW157633   2.253   0.097   5.122  0.7976  0.0258 -0.6116
17565SOL    HW257634   2.279  -0.020   5.215 -0.9403  0.5585  0.5858
17566SOL     OW57635   8.725   0.639  11.165  0.2531 -0.6156  0.2646
17566SOL    HW157636   8.779   0.604  11.236  1.2804 -2.0134 -1.1534
17566SOL    HW257637   8.783   0.700  11.119  0.6210 -1.9552 -1.1288
17567SOL     OW57638   4.210  11.557   7.244  0.5176 -0.4780  0.0511
17567SOL    HW157639   4.191  11.567   7.337 -1.5605  3.6293 -0.5591
17567SOL    HW257640   4.302  11.580   7.235  0.5726 -0.2900  0.9934
17568SOL     OW57641  11.627   3.280   5.655 -0.6058  0.2183  0.6779
17568SOL    HW157642  11.720   3.263   5.638 -0.6594 -0.9905  1.5256
17568SOL    HW257643  11.610   3.363   5.610  0.4874 -0.3261 -0.8332
17569SOL     OW57644  10.550   3.784   4.782 -0.3711 -0.1086 -0.1674
17569SOL    HW157645  10.480   3.810   4.722 -0.6215 -0.2027  0.0768
17569SOL    HW257646  10.623   3.760   4.726 -0.7022 -0.4820 -0.4481
17570SOL     OW57647   8.899   3.272   1.883 -0.5953  0.3865 -0.3697
17570SOL    HW157648   8.888   3.238   1.972 -0.4604 -0.6280 -0.7293
17570SOL    HW257649   8.958   3.347   1.894  0.0455 -0.1919  0.3070
17571SOL     OW57650   3.132   1.141   5.643  0.0703  0.3848 -0.5631
17571SOL    HW157651   3.150   1.051   5.615 -2.0073 -0.4682  0.7187
17571SOL    HW257652   3.193   1.156   5.715 -1.1467 -0.8960  0.8022
17572SOL     OW57653  10.152   5.162  11.124 -0.3346  0.0278  0.1539
17572SOL    HW157654  10.196   5.077  11.126 -1.6439 -0.7245  3.2865
17572SOL    HW257655  10.088   5.154  11.054  0.5950 -1.0025 -0.6114
17573SOL     OW57656   2.819   7.696   9.185  0.6672  0.1329 -0.4758
17573SOL    HW157657   2.750   7.748   9.143 -0.4120 -1.8537 -1.2632
17573SOL    HW257658   2.779   7.662   9.265  1.3972  0.5452  0.0790
17574SOL     OW57659   7.881   7.051   0.058 -0.0541 -0.0874  0.4585
17574SOL    HW157660   7.965   7.090   0.085  1.0990 -2.7041  0.9611
17574SOL    HW257661   7.901   7.006  -0.024 -1.1105 -0.2952  0.3096
17575SOL     OW57662   4.256   1.088   5.034  0.1038  0.4197 -0.2283
17575SOL    HW157663   4.323   1.083   4.967  0.8948  0.7876  0.5200
17575SOL    HW257664   4.263   1.177   5.069 -0.5047  0.3347  0.1284
17576SOL     OW57665   1.305   7.145  11.362  0.5812 -0.2058  0.4200
17576SOL    HW157666   1.288   7.054  11.387 -0.1165  0.3096  1.9726
17576SOL    HW257667   1.331   7.187  11.444 -1.0144  1.4264  0.1480
17577SOL     OW57668   2.356   1.173   9.040  0.5528  0.1390 -0.3264
17577SOL    HW157669   2.270   1.172   8.999  0.7579  0.1625 -0.7590
17577SOL    HW257670   2.347   1.115   9.116  0.1100  0.2775 -0.2733
17578SOL     OW57671   9.625   6.209   1.677  0.0693 -0.6288  0.1046
17578SOL    HW157672   9.625   6.222   1.582  1.2343 -0.9551  0.0479
17578SOL    HW257673   9.570   6.280   1.711  1.5564  0.9555 -0.6323
17579SOL     OW57674   5.789   0.324  11.414  0.6367 -0.2496 -0.1906
17579SOL    HW157675   5.855   0.332  11.345  0.2897 -0.4108 -0.5435
17579SOL    HW257676   5.839   0.327  11.496  1.0431  0.0017 -0.4491
17580SOL     OW57677   0.041   2.134  10.209  0.0858  0.3513 -0.4859
17580SOL    HW157678   0.029   2.199  10.278 -1.5800 -0.9022  0.4952
17580SOL    HW257679  -0.047   2.123  10.171 -0.1006 -2.4681  0.5227
17581SOL     OW57680   3.781   1.006   0.123  0.0760 -0.3774 -0.0767
17581SOL    HW157681   3.696   0.961   0.129  0.0508 -0.1372  3.0034
17581SOL    HW257682   3.758   1.098   0.108 -0.1541 -0.4801 -0.3619
17582SOL     OW57683  10.117   7.719   6.052  0.4294 -0.0713 -0.7861
17582SOL    HW157684  10.171   7.642   6.033  0.3089 -0.1180 -0.9469
17582SOL    HW257685  10.114   7.768   5.969  0.5859  0.1559 -0.6572
17583SOL     OW57686  10.012   3.062  11.578 -0.4278 -0.3966 -0.2570
17583SOL    HW157687  10.081   3.053  11.643 -0.4095 -2.0058 -0.4616
17583SOL    HW257688  10.009   3.156  11.559  1.7103 -0.2838 -0.2650
17584SOL     OW57689   1.658   1.860   4.703 -0.1554 -0.1786  0.0530
17584SOL    HW157690   1.571   1.888   4.733 -1.3410  1.5827 -4.2490
17584SOL    HW257691   1.703   1.941   4.683  1.9853 -1.1305  0.7767
17585SOL     OW57692  11.581   3.426   0.835 -0.1210 -0.7401  0.0757
17585SOL    HW157693  11.543   3.508   0.865  3.0733  0.4238  1.4808
17585SOL    HW257694  11.578   3.430   0.740 -0.9484  0.5208  0.1417
17586SOL     OW57695   4.220  10.113   3.455 -0.6123  0.1876 -0.0379
17586SOL    HW157696   4.311  10.083   3.450 -0.4186  0.8073 -0.2991
17586SOL    HW257697   4.174  10.060   3.390  0.0819  1.6616 -1.8268
17587SOL     OW57698   3.589   7.863  10.364 -0.0320  0.2268  0.2393
17587SOL    HW157699   3.611   7.944  10.410  1.6033 -0.3727  0.5877
17587SOL    HW257700   3.653   7.856  10.294 -0.0175 -0.8486  0.3333
17588SOL     OW57701   2.525   1.918   0.445  0.2330 -0.1093  0.4072
17588SOL    HW157702   2.549   1.976   0.373  0.6209 -0.9832 -0.1893
17588SOL    HW257703   2.555   1.964   0.524 -1.8102  1.7132  0.2249
17589SOL     OW57704   5.865   8.000   3.395 -0.1765 -0.2951 -0.1251
17589SOL    HW157705   5.925   8.067   3.428  0.0962 -0.4526 -0.2996
17589SOL    HW257706   5.912   7.918   3.406 -1.0777 -0.6340  1.4474
17590SOL     OW57707   0.010   3.801   8.016 -0.5878  0.4332 -0.7840
17590SOL    HW157708  -0.077   3.775   7.985 -1.0029  1.1489 -0.2409
17590SOL    HW257709   0.011   3.896   8.007  0.8217  0.3242 -2.5236
17591SOL     OW57710   7.605   9.523   5.689 -0.0947 -0.4101  0.6686
17591SOL    HW157711   7.573   9.466   5.619  1.3130 -0.6405  0.1851
17591SOL    HW257712   7.604   9.468   5.768 -2.1206 -0.0162  0.9653
17592SOL     OW57713   6.618   2.006   0.031  0.1794  0.0224 -0.3011
17592SOL    HW157714   6.647   2.070  -0.033 -0.7560  0.0933 -0.6762
17592SOL    HW257715   6.662   1.925   0.006  1.8239  0.6302  0.5264
17593SOL     OW57716   5.938  11.584   1.098  0.4776 -0.0754 -0.0811
17593SOL    HW157717   5.881  11.659   1.116  0.6786  0.2040 -0.5911
17593SOL    HW257718   5.878  11.514   1.072  0.3889  0.3500 -1.0677
17594SOL     OW57719   8.372  10.763   9.899  0.0461 -0.1825 -0.0415
17594SOL    HW157720   8.299  10.716   9.860  0.7105 -0.7209 -0.6571
17594SOL    HW257721   8.346  10.855   9.895 -0.8235 -0.4046  0.2496
17595SOL     OW57722   9.945   6.974   7.621 -0.1700 -0.2966 -0.7310
17595SOL    HW157723   9.989   6.909   7.675  0.3162  0.8656  0.3280
17595SOL    HW257724   9.862   6.933   7.597  0.2975 -1.4510 -0.4335
17596SOL     OW57725   7.914  11.623   0.568  0.2489 -0.0933  0.3641
17596SOL    HW157726   7.901  11.631   0.662 -1.6195  1.9630  0.0038
17596SOL    HW257727   7.888  11.708   0.532 -0.1492 -1.1552 -2.1082
17597SOL     OW57728   7.622  11.438   8.234 -0.2463  0.5530 -0.3347
17597SOL    HW157729   7.582  11.380   8.299 -0.1695  0.4077 -0.4146
17597SOL    HW257730   7.570  11.424   8.154 -0.3009  0.6824 -0.3214
17598SOL     OW57731   6.793  10.663  10.080  0.2329 -0.4587 -0.0998
17598SOL    HW157732   6.772  10.629   9.993  0.7546 -1.1609  0.0371
17598SOL    HW257733   6.756  10.751  10.081  2.1512  0.4272 -1.8464
17599SOL     OW57734   9.027   8.504   2.255 -0.3614 -0.2142  0.2242
17599SOL    HW157735   9.013   8.591   2.292  1.0281 -1.4501  4.1406
17599SOL    HW257736   8.948   8.455   2.280 -1.6485  0.0121 -2.8908
17600SOL     OW57737   9.686   9.197   8.524 -0.1501 -0.0448 -0.3131
17600SOL    HW157738   9.602   9.180   8.566  1.0786 -2.4928  1.4049
17600SOL    HW257739   9.694   9.292   8.524 -2.1244  0.1921  1.1363
17601SOL     OW57740   2.010   5.808   5.350  0.7093 -0.0630 -0.2275
17601SOL    HW157741   1.999   5.756   5.430  0.7824 -0.8237 -0.6945
17601SOL    HW257742   1.961   5.888   5.366 -0.1401 -0.6457  0.1853
17602SOL     OW57743   9.253   8.747   0.099 -0.0251 -0.4342  0.0388
17602SOL    HW157744   9.223   8.743   0.008  0.3598 -0.9653 -0.0669
17602SOL    HW257745   9.210   8.673   0.142 -0.3739 -0.0591  0.3451
17603SOL     OW57746   9.165   0.598  11.159 -0.4113 -0.7272  0.2813
17603SOL    HW157747   9.127   0.600  11.247  0.7279  2.3849  0.8237
17603SOL    HW257748   9.259   0.593  11.174 -0.1357  0.9704 -0.6855
17604SOL     OW57749  11.430   8.182  10.260  0.1659  0.0014  0.0580
17604SOL    HW157750  11.441   8.145  10.347 -1.0686 -1.1115 -0.2352
17604SOL    HW257751  11.338   8.209  10.257  0.3855  0.7167 -0.6546
17605SOL     OW57752   0.528   4.266   1.861 -0.1647  0.4256 -0.5142
17605SOL    HW157753   0.572   4.240   1.780  0.4040  2.0146 -0.7419
17605SOL    HW257754   0.562   4.205   1.927 -2.0332 -2.1326 -1.7330
17606SOL     OW57755   9.933   3.831  10.913  0.0255 -0.7151  0.2511
17606SOL    HW157756   9.875   3.892  10.959 -1.8924 -1.5706 -0.8741
17606SOL    HW257757   9.936   3.754  10.970  1.0179 -0.2404  0.8509
17607SOL     OW57758   8.315   9.737   8.835  0.0703  0.1406 -0.3984
17607SOL    HW157759   8.254   9.667   8.813  0.4046 -0.1177 -0.5176
17607SOL    HW257760   8.375   9.697   8.898  2.3166 -0.7606 -2.8784
17608SOL     OW57761   9.248   6.546   6.578  0.1756  0.1365  0.3768
17608SOL    HW157762   9.200   6.556   6.660 -0.3489 -0.5589  0.1617
17608SOL    HW257763   9.317   6.611   6.583  0.5085 -0.2864  1.6312
17609SOL     OW57764   1.279  11.027   9.149  0.2103 -0.2997 -0.5049
17609SOL    HW157765   1.312  10.944   9.114 -0.0801 -0.1798 -1.0792
17609SOL    HW257766   1.207  11.001   9.207 -1.6594 -0.3521 -2.7195
17610SOL     OW57767   4.358   9.259   0.125 -0.4123 -0.3596  0.5863
17610SOL    HW157768   4.297   9.218   0.062 -0.7396 -0.7186  1.1303
17610SOL    HW257769   4.426   9.193   0.139 -0.5294 -0.4207  0.8763
17611SOL     OW57770   1.820   6.917   9.060 -0.0322  0.0858 -0.5733
17611SOL    HW157771   1.770   6.969   8.997 -1.0264 -0.0114  0.1300
17611SOL    HW257772   1.816   6.967   9.141 -3.9884 -2.5933  1.1485
17612SOL     OW57773   6.179   2.330   7.227  1.0506  0.0919  0.1579
17612SOL    HW157774   6.250   2.283   7.182  0.5948 -1.1052  0.6474
17612SOL    HW257775   6.224   2.387   7.289  1.6154  0.3175 -0.4420
17613SOL     OW57776   8.476   7.989   7.104 -0.2486 -0.0566 -0.0043
17613SOL    HW157777   8.446   7.919   7.162 -0.9426 -0.6310 -1.0259
17613SOL    HW257778   8.555   8.023   7.146  0.3611 -1.7543  0.3169
17614SOL     OW57779   1.345  10.246   1.892  0.0515 -0.8436 -0.3067
17614SOL    HW157780   1.384  10.238   1.979  0.7325  2.6957 -0.1107
17614SOL    HW257781   1.251  10.234   1.907  0.3885 -3.2130  0.3189
17615SOL     OW57782   9.919  10.932   4.024 -0.7220  0.1711  0.0811
17615SOL    HW157783   9.881  10.985   3.954 -2.4023 -1.2752 -0.1623
17615SOL    HW257784   9.915  10.842   3.992 -0.3466 -0.3906  1.5250
17616SOL     OW57785   8.776   9.933   8.951  0.0559 -0.5059  0.4941
17616SOL    HW157786   8.830   9.855   8.966 -1.1470 -0.9642  2.9196
17616SOL    HW257787   8.718   9.909   8.879 -1.1217 -2.3944  1.9692
17617SOL     OW57788   3.053   6.716   5.446 -0.3203 -0.2673  0.0228
17617SOL    HW157789   3.011   6.630   5.446 -0.0649 -0.3955 -0.0464
17617SOL    HW257790   3.134   6.703   5.496  0.0305 -0.2263 -0.5285
17618SOL     OW57791  11.085   8.324   6.547  0.4093 -0.4997 -0.0167
17618SOL    HW157792  11.096   8.316   6.452  1.3667 -3.0752  0.2485
17618SOL    HW257793  11.149   8.390   6.573  1.3837 -1.0477 -0.9668
17619SOL     OW57794  10.362   5.939   2.974 -0.5794 -0.1663 -0.0232
17619SOL    HW157795  10.413   5.916   2.897 -1.3677  0.2865 -0.7068
17619SOL    HW257796  10.272   5.945   2.941 -0.8218  0.7778  0.7672
17620SOL     OW57797  11.275   2.809   3.230 -0.1132 -0.3408 -0.0603
17620SOL    HW157798  11.220   2.886   3.212 -1.6464 -1.7142 -1.5828
17620SOL    HW257799  11.363   2.838   3.206 -0.4368  1.3165  0.5828
17621SOL     OW57800   9.136   8.165   8.335  0.1282 -0.4667 -0.3697
17621SOL    HW157801   9.043   8.177   8.320  0.1948  2.6103  0.9488
17621SOL    HW257802   9.141   8.121   8.420 -0.1418  0.2612  0.0297
17622SOL     OW57803   3.065   0.882   3.936  0.2785  0.0794  0.0699
17622SOL    HW157804   2.983   0.902   3.890  0.5019  1.8201  0.3522
17622SOL    HW257805   3.056   0.926   4.021  1.4298  0.1527  0.1694
17623SOL     OW57806   8.454   3.345   8.893  0.3073  0.7771 -0.1317
17623SOL    HW157807   8.371   3.364   8.849 -0.1050 -1.3669 -0.4099
17623SOL    HW257808   8.485   3.429   8.924 -1.1569  1.8682 -1.4710
17624SOL     OW57809   2.506  10.057   3.670  0.6110  0.0012  0.4025
17624SOL    HW157810   2.421  10.033   3.635  0.0527 -1.9041  2.8368
17624SOL    HW257811   2.566  10.049   3.595 -0.9660 -0.8025 -0.8269
17625SOL     OW57812   0.122   2.161   9.692  0.1520 -0.1287 -0.0851
17625SOL    HW157813   0.082   2.208   9.765 -0.3733 -0.1193 -0.3693
17625SOL    HW257814   0.055   2.163   9.623  1.5410  1.9469 -1.4506
17626SOL     OW57815   6.272   0.877   9.884  0.1028  0.0397 -0.2111
17626SOL    HW157816   6.227   0.953   9.845 -0.0848 -0.7888 -1.6856
17626SOL    HW257817   6.301   0.826   9.809 -0.6420 -1.8627  0.7498
17627SOL     OW57818   7.051   4.700   9.668 -0.1997  0.0148  0.7978
17627SOL    HW157819   6.972   4.694   9.721  0.1555 -0.0818  1.3229
17627SOL    HW257820   7.102   4.622   9.692 -0.4707 -0.5645 -0.4135
17628SOL     OW57821   1.226   8.708   0.793  0.2398 -0.0206 -0.0463
17628SOL    HW157822   1.240   8.692   0.887  1.7036 -0.7312 -0.3638
17628SOL    HW257823   1.314   8.717   0.757 -0.3396  1.6552 -1.1425
17629SOL     OW57824   0.303   9.546   1.945 -0.6606  0.1071  0.3447
17629SOL    HW157825   0.249   9.476   1.909 -0.5345  0.8360 -1.3701
17629SOL    HW257826   0.389   9.532   1.905 -0.6848  1.3335 -0.1599
17630SOL     OW57827   8.348   2.022   3.779 -0.0915 -0.0385 -0.1540
17630SOL    HW157828   8.288   1.953   3.805  1.5693 -1.3293  0.4674
17630SOL    HW257829   8.340   2.089   3.847 -0.9414 -0.0813 -0.2006
17631SOL     OW57830  11.219  11.394   8.896  0.0270 -0.4266 -0.2995
17631SOL    HW157831  11.197  11.305   8.870  0.0661  0.0869 -2.3284
17631SOL    HW257832  11.278  11.385   8.970 -1.8510 -1.9957  1.0915
17632SOL     OW57833   8.748   3.982   3.383  0.2126 -0.2754  0.4755
17632SOL    HW157834   8.839   3.993   3.353 -0.4049  0.9340 -1.1663
17632SOL    HW257835   8.708   4.068   3.367 -1.4271 -1.0292  0.3829
17633SOL     OW57836   9.255   5.539   0.852 -0.3926  0.4672 -0.2743
17633SOL    HW157837   9.243   5.522   0.945  2.5362 -0.5910  0.0178
17633SOL    HW257838   9.291   5.627   0.848  0.3907  0.1581 -0.2800
17634SOL     OW57839   4.570   1.700   0.274  0.2856 -0.5964  0.1687
17634SOL    HW157840   4.507   1.771   0.286  0.8939 -0.0348  0.1021
17634SOL    HW257841   4.549   1.665   0.187 -0.2798 -0.7748  0.3693
17635SOL     OW57842   8.162   0.565   1.604  0.6514  0.5324 -0.2289
17635SOL    HW157843   8.071   0.593   1.615  0.5612  0.5487 -1.0062
17635SOL    HW257844   8.160   0.506   1.529  1.2252  0.2406 -0.0214
17636SOL     OW57845   6.611   4.727   2.743 -0.0869 -0.2806  0.3067
17636SOL    HW157846   6.662   4.754   2.819  1.0799 -1.3179 -0.0659
17636SOL    HW257847   6.593   4.808   2.696  1.8897  0.0541  0.0671
17637SOL     OW57848  11.190   3.804   3.429 -0.0078 -0.4655  0.3731
17637SOL    HW157849  11.095   3.812   3.416 -0.0443  0.3099  1.0491
17637SOL    HW257850  11.199   3.744   3.502 -0.0751  1.0758  1.7080
17638SOL     OW57851   9.150   9.365   0.609  0.3189  0.1626  0.1646
17638SOL    HW157852   9.193   9.298   0.556  0.3689  1.2702 -1.2461
17638SOL    HW257853   9.078   9.319   0.652  0.3282 -0.7891 -0.7981
17639SOL     OW57854   1.849   8.136   5.385 -0.2335  0.1942  0.3424
17639SOL    HW157855   1.783   8.167   5.322 -2.4149 -0.4647  2.1545
17639SOL    HW257856   1.855   8.206   5.449 -0.6840 -0.5618  1.2384
17640SOL     OW57857   9.279   6.131   6.935  0.1183  0.3651  0.0986
17640SOL    HW157858   9.205   6.145   6.875 -0.4601 -0.1933  0.6687
17640SOL    HW257859   9.352   6.176   6.893  0.1891 -1.4444 -1.9219
17641SOL     OW57860   5.346  11.134   0.202 -0.1406 -0.1755 -0.0180
17641SOL    HW157861   5.310  11.053   0.165 -1.3565 -0.5587  1.8719
17641SOL    HW257862   5.274  11.196   0.198  0.2631  0.3065  0.1278
17642SOL     OW57863   1.505   2.885   7.826 -0.5605 -0.5296 -0.0103
17642SOL    HW157864   1.546   2.824   7.765 -0.8627 -0.2396 -0.5062
17642SOL    HW257865   1.578   2.936   7.862 -0.5205  0.4700 -1.4210
17643SOL     OW57866   8.203   9.960   2.703 -0.4460  0.0750 -0.3690
17643SOL    HW157867   8.184  10.001   2.788 -1.0025 -0.9333  0.0142
17643SOL    HW257868   8.150  10.008   2.640  1.0110  1.7459 -0.4013
17644SOL     OW57869   3.301   0.280   2.454 -0.0288 -0.2290  0.1460
17644SOL    HW157870   3.264   0.194   2.470  0.4924 -0.4143  0.3660
17644SOL    HW257871   3.253   0.339   2.512 -1.2608 -0.1535 -0.9084
17645SOL     OW57872   1.214   9.414   1.669 -0.6026 -0.3042  0.0734
17645SOL    HW157873   1.191   9.376   1.584  0.3442 -2.6674  0.7870
17645SOL    HW257874   1.263   9.493   1.647  1.3762 -1.8917 -1.7048
17646SOL     OW57875   9.152   1.092   9.944  0.1672 -0.3145  0.2605
17646SOL    HW157876   9.131   1.099  10.037  1.0215 -0.6485  0.4885
17646SOL    HW257877   9.077   1.046   9.906  0.0587 -0.6628  0.8839
17647SOL     OW57878  10.394   4.874   1.841 -0.1234  0.4280  0.1703
17647SOL    HW157879  10.385   4.784   1.809 -0.2213  0.8178 -0.9365
17647SOL    HW257880  10.327   4.923   1.793  1.9192  1.6773 -1.5303
17648SOL     OW57881   2.286   8.264   1.499  0.2236 -0.1088  0.3549
17648SOL    HW157882   2.302   8.357   1.518  2.2282 -0.5669  1.2076
17648SOL    HW257883   2.374   8.227   1.489 -0.5049 -1.2823 -3.3818
17649SOL     OW57884   4.803  11.615  10.245  0.8165 -0.6485  0.3163
17649SOL    HW157885   4.859  11.592  10.170 -0.2038 -1.3317 -0.2610
17649SOL    HW257886   4.714  11.595  10.216 -0.0172  2.4555  0.4193
17650SOL     OW57887   6.900   1.226   9.151 -0.0510  0.8523  0.5498
17650SOL    HW157888   6.821   1.273   9.124 -0.0904  0.1003 -0.7035
17650SOL    HW257889   6.877   1.133   9.141  0.7125  0.6101  0.9939
17651SOL     OW57890   7.740   1.875   2.897 -0.0052 -0.2335 -0.7682
17651SOL    HW157891   7.783   1.940   2.953 -0.2983 -1.1976  0.6280
17651SOL    HW257892   7.649   1.904   2.893  0.1402  0.1742 -1.2788
17652SOL     OW57893   2.844   0.097  11.092  0.3671 -0.3540  0.3606
17652SOL    HW157894   2.812   0.032  11.029 -0.2426  1.1197 -0.9084
17652SOL    HW257895   2.826   0.182  11.051  2.5931  0.6254  1.2447
17653SOL     OW57896   6.683   9.404   2.086 -0.2803 -0.6730  0.1491
17653SOL    HW157897   6.704   9.319   2.125 -0.3904 -1.0165 -0.5253
17653SOL    HW257898   6.680   9.387   1.992 -0.9050 -0.0563  0.0480
17654SOL     OW57899   6.741   4.535   0.686 -0.4472 -0.1384  0.7327
17654SOL    HW157900   6.683   4.552   0.611 -0.9520 -0.0819  1.1341
17654SOL    HW257901   6.829   4.535   0.648 -0.6899  0.0098  0.1569
17655SOL     OW57902   2.352   3.100   0.269  0.5358 -0.5738 -0.2603
17655SOL    HW157903   2.308   3.162   0.211  0.4185 -0.9508 -0.5740
17655SOL    HW257904   2.280   3.055   0.314  0.6143  0.5207  1.0639
17656SOL     OW57905   0.398  10.843   0.362  0.3785  0.2726  0.0789
17656SOL    HW157906   0.349  10.841   0.444  0.9157 -2.5640  0.4304
17656SOL    HW257907   0.467  10.908   0.377 -0.9201  1.5031  0.9721
17657SOL     OW57908   6.320   3.232   4.352 -0.2193  0.9040 -0.5905
17657SOL    HW157909   6.397   3.280   4.320  0.2648  1.0368  0.7131
17657SOL    HW257910   6.332   3.143   4.319  0.5923  0.8868 -0.2761
17658SOL     OW57911   4.459  10.269   7.867  0.0998  0.5083 -0.2862
17658SOL    HW157912   4.496  10.295   7.951 -0.9517  1.1528 -0.0117
17658SOL    HW257913   4.527  10.214   7.827 -0.1451 -1.5007  1.8362
17659SOL     OW57914   8.248   1.025   3.955  0.1968  0.2732 -0.0117
17659SOL    HW157915   8.309   1.056   3.888  1.3240 -2.3506 -0.3547
17659SOL    HW257916   8.227   0.935   3.928 -1.9067  0.2672  1.4406
17660SOL     OW57917  11.301   8.196   5.619 -0.4395  0.1912 -0.1263
17660SOL    HW157918  11.389   8.235   5.612 -0.0044 -0.8447 -0.6614
17660SOL    HW257919  11.249   8.243   5.553  0.6700 -1.5862 -2.4393
17661SOL     OW57920   2.906   6.761   3.441 -0.3090 -0.4177  0.5998
17661SOL    HW157921   2.825   6.746   3.489 -1.2745 -0.2465 -0.9004
17661SOL    HW257922   2.926   6.853   3.455 -0.7687 -0.2883  0.4094
17662SOL     OW57923   1.412   4.120   8.438 -0.7736  0.3719 -0.1235
17662SOL    HW157924   1.328   4.097   8.477 -1.2620  1.4308 -0.5072
17662SOL    HW257925   1.455   4.175   8.503 -0.9146  0.8476 -0.4259
17663SOL     OW57926   3.178   1.642   6.155  0.1017 -0.0194  0.0522
17663SOL    HW157927   3.147   1.573   6.096 -1.8576 -0.2288  1.2479
17663SOL    HW257928   3.139   1.722   6.120 -1.1699 -0.1602  1.0666
17664SOL     OW57929  11.432   5.216   2.291  0.0461 -0.2531  0.1383
17664SOL    HW157930  11.392   5.303   2.289  0.2041 -0.1174  1.8468
17664SOL    HW257931  11.422   5.186   2.381  1.9967 -1.0530  0.1559
17665SOL     OW57932   7.944   0.966   4.041  0.2025  0.1059 -0.6737
17665SOL    HW157933   8.010   0.985   3.975  0.5692  0.2410 -0.2773
17665SOL    HW257934   7.882   0.908   3.998 -0.3133  1.2804 -1.5558
17666SOL     OW57935   2.442  10.406  11.629  0.0356  0.4913 -0.7706
17666SOL    HW157936   2.446  10.454  11.547 -1.2411  2.0268  0.0059
17666SOL    HW257937   2.495  10.457  11.690  0.1928 -0.1043 -0.4031
17667SOL     OW57938   1.421  10.660   6.926  0.0898  0.0459  0.1974
17667SOL    HW157939   1.351  10.599   6.947  0.0300  0.4399  1.2093
17667SOL    HW257940   1.422  10.722   6.999 -1.1123  2.4088 -1.6419
17668SOL     OW57941   0.523   3.608   1.793 -0.1818  0.5792  0.3129
17668SOL    HW157942   0.498   3.629   1.703  0.1796 -0.2939  0.0008
17668SOL    HW257943   0.546   3.693   1.832 -0.5284  0.9833 -0.3524
17669SOL     OW57944  10.754   1.408   5.847 -0.0562 -0.1536  0.4748
17669SOL    HW157945  10.829   1.414   5.788 -1.4639 -0.8846 -1.4770
17669SOL    HW257946  10.745   1.315   5.867  0.2745  0.0590  1.7356
17670SOL     OW57947   7.265   7.699   4.124  0.5142  0.3459  0.1278
17670SOL    HW157948   7.319   7.741   4.058 -1.5635  0.7007 -1.4409
17670SOL    HW257949   7.242   7.769   4.186  1.6343  0.2295  0.6996
17671SOL     OW57950   3.631   6.019   8.534 -0.1616 -0.2728  0.3208
17671SOL    HW157951   3.713   6.030   8.486  0.2712 -0.1694  1.0799
17671SOL    HW257952   3.570   6.079   8.490 -0.0151 -0.7960 -0.6290
17672SOL     OW57953   9.478   8.775   9.736  0.1038 -0.3463 -0.3009
17672SOL    HW157954   9.512   8.865   9.743  1.2919 -0.8440  0.5796
17672SOL    HW257955   9.387   8.782   9.764  0.9163  0.1612  2.5447
17673SOL     OW57956   1.182   4.324   2.087  0.0868  0.1650  0.7099
17673SOL    HW157957   1.107   4.304   2.142  0.5954 -0.7623  1.0956
17673SOL    HW257958   1.196   4.418   2.097 -0.2179  0.1088  1.6720
17674SOL     OW57959   4.639   8.964   7.725 -0.5858  0.5664  0.3341
17674SOL    HW157960   4.612   9.029   7.790  0.2393  1.1298  0.1322
17674SOL    HW257961   4.735   8.970   7.724 -0.5192 -0.4111  0.0547
17675SOL     OW57962   9.033   6.923   8.720  0.1796 -0.3790 -0.0707
17675SOL    HW157963   8.957   6.950   8.668 -0.3282  0.6835  1.1527
17675SOL    HW257964   9.105   6.976   8.685  0.9324 -2.8800 -2.6509
17676SOL     OW57965   5.111   9.404  10.459 -0.3437  0.2649 -0.7643
17676SOL    HW157966   5.044   9.468  10.483  0.7292  1.4636 -0.9116
17676SOL    HW257967   5.181   9.455  10.420  1.3738 -0.7593  0.8155
17677SOL     OW57968   2.504   7.155   9.175 -0.0583 -0.3492  1.0215
17677SOL    HW157969   2.480   7.106   9.254 -1.2114 -1.2112  0.1781
17677SOL    HW257970   2.423   7.197   9.148  0.1215 -0.7235 -0.1493
17678SOL     OW57971   4.351   0.501   9.228 -0.3705 -0.1187 -0.0592
17678SOL    HW157972   4.370   0.572   9.290 -1.4815 -0.0752  0.2601
17678SOL    HW257973   4.435   0.480   9.189  0.0468  1.1175  0.1260
17679SOL     OW57974  10.058   4.963  10.121  0.3662 -0.3097  0.2311
17679SOL    HW157975  10.042   4.939  10.212  0.1156  1.6957  0.7656
17679SOL    HW257976   9.972   4.985  10.086  0.3269 -1.9527 -0.8033
17680SOL     OW57977   4.146   2.823   6.793 -0.4706  0.2450 -0.4354
17680SOL    HW157978   4.215   2.889   6.799  0.7903 -1.1160  1.1447
17680SOL    HW257979   4.177   2.761   6.727 -1.4905  1.0181 -1.6746
17681SOL     OW57980  11.558   2.245   7.372  0.4277  0.3938 -0.4332
17681SOL    HW157981  11.559   2.225   7.466  1.0368  0.1747 -0.4817
17681SOL    HW257982  11.500   2.321   7.364 -0.2136 -0.0372  0.0259
17682SOL     OW57983   6.554  10.564  10.547 -0.0214  0.3785 -0.6666
17682SOL    HW157984   6.580  10.627  10.614  0.7288  1.1402 -1.6600
17682SOL    HW257985   6.567  10.609  10.464 -0.1614 -0.8336 -1.3735
17683SOL     OW57986   2.065   2.235   7.838  0.0208 -0.0188 -0.8383
17683SOL    HW157987   1.983   2.281   7.854  0.1367 -0.6063  1.8886
17683SOL    HW257988   2.126   2.304   7.813 -0.1888  1.1964  1.6491
17684SOL     OW57989   2.878   9.235   2.985 -0.9223 -0.3515  0.0957
17684SOL    HW157990   2.962   9.278   3.002 -1.5844  1.3880 -0.7462
17684SOL    HW257991   2.901   9.153   2.942  0.3638 -0.1857  0.4291
17685SOL     OW57992  11.199   9.521   2.770  0.4478  1.0983  0.5063
17685SOL    HW157993  11.187   9.492   2.861  1.5370 -0.2099  0.2614
17685SOL    HW257994  11.187   9.616   2.774  0.5946  1.0841  2.0411
17686SOL     OW57995   2.654  10.382   4.669  0.3280 -0.7062  0.0883
17686SOL    HW157996   2.639  10.288   4.674 -1.5420 -0.5803 -1.6246
17686SOL    HW257997   2.569  10.420   4.692  0.1655  0.4380 -2.1928
17687SOL     OW57998  11.273   6.640   2.841  0.0060  0.5749  0.0266
17687SOL    HW157999  11.309   6.716   2.795  0.6267  0.4731  0.3312
17687SOL    HW258000  11.200   6.675   2.893  0.0335  0.8878 -0.1438
17688SOL     OW58001   2.299   0.487   9.020  0.7099 -0.0731  0.0981
17688SOL    HW158002   2.278   0.416   9.080 -0.4364 -0.0648 -0.2672
17688SOL    HW258003   2.265   0.566   9.063 -0.1106 -0.0652 -0.5355
17689SOL     OW58004   0.392   5.713   5.267 -0.2785 -0.2408  0.2179
17689SOL    HW158005   0.306   5.734   5.302 -0.7213 -1.1325 -0.3057
17689SOL    HW258006   0.414   5.786   5.210 -0.0620  0.6637  1.4050
17690SOL     OW58007   9.412   6.924   1.967 -0.1780  0.4030 -0.2781
17690SOL    HW158008   9.366   6.914   2.050 -1.1528 -1.7252 -1.0065
17690SOL    HW258009   9.414   7.018   1.952 -0.8071  0.7737  1.6893
17691SOL     OW58010  10.806   1.567   3.805 -0.0922 -0.3340  0.2054
17691SOL    HW158011  10.850   1.539   3.885  2.7491  0.3068 -1.0093
17691SOL    HW258012  10.722   1.521   3.806 -0.3716  0.0069  3.7126
17692SOL     OW58013   9.408  10.602   0.003  0.1912  0.1591  0.4351
17692SOL    HW158014   9.445  10.514   0.013  2.4002  1.2707  3.0761
17692SOL    HW258015   9.325  10.598   0.050  0.5489 -0.3554  1.0422
17693SOL     OW58016   0.210  11.139   2.586  0.0482  0.2042  0.3020
17693SOL    HW158017   0.293  11.143   2.634  0.2785  1.4882 -0.1529
17693SOL    HW258018   0.143  11.151   2.653  0.1435 -1.7087  0.8044
17694SOL     OW58019   3.584   2.890   6.143 -0.1221 -0.3900 -0.1267
17694SOL    HW158020   3.575   2.911   6.236 -0.5171  0.7572 -0.4071
17694SOL    HW258021   3.677   2.869   6.132 -0.0778 -0.5452  0.5207
17695SOL     OW58022   8.482   8.981   4.845  0.1795  0.5662 -0.0201
17695SOL    HW158023   8.520   9.064   4.876  2.2203  0.1252 -1.1666
17695SOL    HW258024   8.539   8.913   4.883  0.3543 -0.1453 -1.4958
17696SOL     OW58025  11.468   8.900   3.998  0.2704 -0.5619  0.1001
17696SOL    HW158026  11.374   8.883   4.008  0.1694  0.5771  1.1845
17696SOL    HW258027  11.498   8.928   4.084  1.5234 -0.4494 -0.3421
17697SOL     OW58028   2.722   1.516   9.345 -0.1112  0.2591 -0.3290
17697SOL    HW158029   2.653   1.455   9.371  0.7922 -0.0470  1.5119
17697SOL    HW258030   2.778   1.465   9.286  0.4807 -0.6566  0.9778
17698SOL     OW58031   4.129   1.847   8.294  0.5127  0.2834 -0.1056
17698SOL    HW158032   4.119   1.941   8.283 -0.9344  0.1403 -0.1403
17698SOL    HW258033   4.216   1.837   8.334  0.6869  1.6198 -0.1027
17699SOL     OW58034   9.778   6.398   2.717  0.3501  0.4971 -0.4094
17699SOL    HW158035   9.687   6.406   2.688  0.0577 -0.1344  0.3144
17699SOL    HW258036   9.829   6.400   2.635 -0.4451 -0.9905 -0.9787
17700SOL     OW58037   3.022   5.476   7.220 -0.0844  0.3805  0.4988
17700SOL    HW158038   3.105   5.496   7.177 -1.3887  1.2817 -1.8288
17700SOL    HW258039   3.008   5.383   7.202  0.2564  0.3012  0.6283
17701SOL     OW58040   1.278   2.223   7.560  0.6559  0.8164 -0.4529
17701SOL    HW158041   1.313   2.259   7.478  0.9443  0.3755 -0.5298
17701SOL    HW258042   1.193   2.187   7.536  0.0689  2.0085 -0.2384
17702SOL     OW58043  10.223   9.499   0.549  0.1302 -0.2166 -0.0417
17702SOL    HW158044  10.211   9.470   0.640  0.1904  2.0723  0.7581
17702SOL    HW258045  10.136   9.527   0.521 -0.0714 -1.7104 -1.0489
17703SOL     OW58046   5.407   2.724   9.893  0.1440 -0.1740  0.2355
17703SOL    HW158047   5.421   2.632   9.870 -0.2495 -0.5607  1.4259
17703SOL    HW258048   5.312   2.735   9.892  0.2185  0.6093 -1.2231
17704SOL     OW58049   5.904   3.020   3.786  0.0127  0.8786 -0.6527
17704SOL    HW158050   5.884   3.099   3.736 -0.3098  1.7429  0.7848
17704SOL    HW258051   5.821   2.995   3.826  0.2427  0.1479 -0.6157
17705SOL     OW58052   8.332   5.604   9.274 -0.1707 -0.0528 -0.0600
17705SOL    HW158053   8.342   5.576   9.365  0.5727 -1.5640 -0.5853
17705SOL    HW258054   8.314   5.698   9.281 -0.3115 -0.1625  1.6492
17706SOL     OW58055   9.857   6.047   2.527 -0.5179  0.0548  0.6479
17706SOL    HW158056   9.770   6.087   2.534 -0.2471  0.4922  1.5901
17706SOL    HW258057   9.913   6.116   2.492 -0.7440 -0.5406 -0.9935
17707SOL     OW58058  10.266   4.937   6.039  0.0387 -0.6477 -0.1493
17707SOL    HW158059  10.228   4.856   6.005 -0.0063 -0.7411  0.1222
17707SOL    HW258060  10.303   4.912   6.124 -1.4182 -0.0273  0.7129
17708SOL     OW58061   1.093  10.378   6.094  0.0304  0.0391 -0.3998
17708SOL    HW158062   1.033  10.304   6.101 -0.5214  0.2806 -2.0803
17708SOL    HW258063   1.039  10.449   6.058  0.9404  0.7594 -0.3825
17709SOL     OW58064   3.989   1.379   7.107  0.1992 -0.3134  0.4267
17709SOL    HW158065   3.975   1.416   7.193 -0.1763  2.7817 -0.8429
17709SOL    HW258066   4.056   1.312   7.119 -0.4119 -0.5204  3.1907
17710SOL     OW58067   7.483  11.387  11.321  0.6671 -0.3980  0.6737
17710SOL    HW158068   7.449  11.417  11.406 -0.1580 -1.2260  0.6540
17710SOL    HW258069   7.545  11.455  11.295  0.0591  0.4624  1.3872
17711SOL     OW58070   4.442   4.340   0.690 -0.3299 -0.0695 -0.0250
17711SOL    HW158071   4.446   4.369   0.781 -0.9874 -0.6396  0.1949
17711SOL    HW258072   4.382   4.265   0.691  0.5478 -0.8120 -0.7349
17712SOL     OW58073  10.681   7.017   8.999 -0.4025  0.4511  0.8551
17712SOL    HW158074  10.699   7.052   8.911 -1.2882 -1.1726 -0.0209
17712SOL    HW258075  10.691   7.092   9.057  0.8509  1.4285 -0.5479
17713SOL     OW58076   1.923  11.066   0.434  0.1212  0.1604 -0.4390
17713SOL    HW158077   1.883  11.098   0.353 -0.3446  0.5516 -0.0627
17713SOL    HW258078   2.014  11.048   0.411  0.0468  0.4740 -0.9924
17714SOL     OW58079   4.203   3.251   1.899 -0.1919  0.1009 -0.3645
17714SOL    HW158080   4.238   3.334   1.929  1.6166 -0.9826  0.7519
17714SOL    HW258081   4.266   3.219   1.835 -0.5194 -0.6836 -0.3176
17715SOL     OW58082   5.992   6.365   2.917  0.0304 -0.1164 -0.4432
17715SOL    HW158083   5.955   6.280   2.944 -0.3695  0.7957  2.2457
17715SOL    HW258084   5.921   6.408   2.869  0.2430 -1.2586 -1.8416
17716SOL     OW58085   7.001   4.183   1.164 -0.7976 -0.0094 -0.1777
17716SOL    HW158086   6.923   4.154   1.116 -2.0327 -0.4996  2.0191
17716SOL    HW258087   6.967   4.222   1.244  1.2154 -0.0189  0.7344
17717SOL     OW58088   2.344   4.698   6.120  0.5003 -0.6512 -0.4790
17717SOL    HW158089   2.370   4.776   6.169 -0.2443 -1.0592  0.5931
17717SOL    HW258090   2.386   4.625   6.166 -0.8029 -1.1095  0.0283
17718SOL     OW58091   1.090   8.348   9.062 -0.5181  0.1627 -0.0575
17718SOL    HW158092   1.185   8.350   9.074 -0.6126  0.5569  0.6768
17718SOL    HW258093   1.069   8.256   9.046 -0.0644  0.0104  0.2163
17719SOL     OW58094  11.445   5.492   3.948 -0.1732 -0.0392  0.2202
17719SOL    HW158095  11.479   5.503   4.037 -2.7824 -1.3950  1.4843
17719SOL    HW258096  11.424   5.399   3.941 -1.3673  0.3068 -1.2876
17720SOL     OW58097   7.124   5.487  10.264 -0.1680 -0.1501  0.4173
17720SOL    HW158098   7.203   5.477  10.211  0.1119  0.7203  0.6610
17720SOL    HW258099   7.073   5.554  10.219  0.7897  1.7728  2.0431
17721SOL     OW58100   3.994   4.019   8.155 -0.2032  0.3094  0.0613
17721SOL    HW158101   3.927   3.999   8.090  0.0839 -0.2084 -0.0813
17721SOL    HW258102   4.055   3.945   8.150  0.7204  1.0765 -0.2551
17722SOL     OW58103   2.971   0.548  10.154  0.1678  0.2338  0.5234
17722SOL    HW158104   3.008   0.547  10.242 -0.7315  0.5983  0.9141
17722SOL    HW258105   3.008   0.470  10.112  1.9312  0.9671  0.6430
17723SOL     OW58106   2.675   4.596   6.233 -0.7026  0.0790  0.2894
17723SOL    HW158107   2.716   4.633   6.312 -0.9020  0.4602  0.2182
17723SOL    HW258108   2.651   4.673   6.181  0.3249 -0.1937 -0.6097
17724SOL     OW58109   2.842  10.068   4.625  0.4358 -0.2352 -0.4407
17724SOL    HW158110   2.827   9.995   4.565  3.5853 -0.4529 -1.1546
17724SOL    HW258111   2.838  10.029   4.712  1.5524 -1.2211 -0.7952
17725SOL     OW58112  10.584  10.863   9.214 -0.0258 -0.7241 -0.1716
17725SOL    HW158113  10.650  10.931   9.228 -0.0487 -0.7634  0.1314
17725SOL    HW258114  10.635  10.783   9.201  0.0186 -0.5670 -1.0514
17726SOL     OW58115   6.872   0.393   8.615 -0.3190  0.2871 -0.2286
17726SOL    HW158116   6.780   0.390   8.591 -0.5653  0.7925  0.6244
17726SOL    HW258117   6.895   0.302   8.634 -0.2720 -0.0337 -1.7463
17727SOL     OW58118   5.187   4.437   6.846  0.6809 -0.2579  0.4104
17727SOL    HW158119   5.169   4.403   6.758  0.6838  1.9479 -0.5030
17727SOL    HW258120   5.251   4.507   6.832  0.5070  0.2943  2.1516
17728SOL     OW58121   7.411   6.473   0.505 -0.3840 -0.0145  0.4913
17728SOL    HW158122   7.419   6.392   0.455  0.9735  0.5322 -0.2113
17728SOL    HW258123   7.383   6.444   0.593 -0.4411 -1.1773  0.1052
17729SOL     OW58124   3.181   3.234   0.508 -0.7377  0.0024  0.1448
17729SOL    HW158125   3.149   3.324   0.510 -0.1962  0.1977  0.2211
17729SOL    HW258126   3.103   3.181   0.488 -1.1962  0.4197  0.7739
17730SOL     OW58127   3.482   1.427   3.002 -0.1978  0.4531 -0.7687
17730SOL    HW158128   3.503   1.355   3.062 -1.9185  1.0555  0.6589
17730SOL    HW258129   3.424   1.388   2.937 -1.9485  0.6842  0.5799
17731SOL     OW58130   0.281   9.046   6.254 -0.1634 -0.7392 -0.0337
17731SOL    HW158131   0.268   8.980   6.322  0.5269 -0.7031  0.1446
17731SOL    HW258132   0.230   9.014   6.180 -0.3600 -1.1366  0.2651
17732SOL     OW58133   6.182  11.182   2.365 -0.5947 -0.5188 -0.1647
17732SOL    HW158134   6.160  11.204   2.275  0.5745 -1.2424 -0.6507
17732SOL    HW258135   6.272  11.214   2.377 -0.4947 -1.0270  0.5194
17733SOL     OW58136   0.084  10.614   2.996 -0.5772  0.3351 -0.4450
17733SOL    HW158137   0.121  10.650   3.076 -1.6319  1.1240 -0.2956
17733SOL    HW258138   0.160  10.581   2.947  0.1457  0.5215  0.5302
17734SOL     OW58139   0.806   3.297   8.741  0.4675  0.0370  0.1058
17734SOL    HW158140   0.836   3.207   8.751  0.4793  0.1663  1.4396
17734SOL    HW258141   0.714   3.289   8.715  1.2672 -0.3501 -2.9619
17735SOL     OW58142   0.865  10.655   7.321  0.8465 -0.3543  0.4535
17735SOL    HW158143   0.814  10.703   7.256  1.8022  0.9344  0.6177
17735SOL    HW258144   0.809  10.654   7.399  0.6325  0.0907  0.3077
17736SOL     OW58145  10.353   1.396   9.657 -0.1608 -0.3258 -0.7684
17736SOL    HW158146  10.402   1.315   9.644 -0.9503 -0.6846 -1.5873
17736SOL    HW258147  10.384   1.429   9.741 -1.4869 -2.6643  0.7319
17737SOL     OW58148  11.252  10.214  10.231  0.4047  0.6155  0.2867
17737SOL    HW158149  11.207  10.170  10.158 -0.4716 -0.4929  1.4525
17737SOL    HW258150  11.199  10.292  10.248  0.5996  0.8667 -0.2343
17738SOL     OW58151  10.478   2.328   1.900  0.4127 -0.4411 -0.5091
17738SOL    HW158152  10.536   2.324   1.824  0.7740  1.3497 -0.3632
17738SOL    HW258153  10.392   2.346   1.862  0.6446  0.7507 -0.4983
17739SOL     OW58154   6.511   1.964   0.593  0.0521  0.0212 -0.1265
17739SOL    HW158155   6.467   1.954   0.508 -1.4509 -0.9992  0.7169
17739SOL    HW258156   6.549   2.051   0.590  0.7317 -0.2801 -2.1483
17740SOL     OW58157   6.070   6.588   3.442  0.0567  0.1023  0.2478
17740SOL    HW158158   6.012   6.516   3.466  1.0077 -0.2951  1.4651
17740SOL    HW258159   6.139   6.547   3.390 -0.1655  0.3949 -0.2895
17741SOL     OW58160   6.195   0.126   4.280 -0.0925 -0.2830 -0.4280
17741SOL    HW158161   6.143   0.102   4.357  0.1753  0.6310  0.0477
17741SOL    HW258162   6.130   0.134   4.209 -0.6197  0.8319  0.1536
17742SOL     OW58163   6.488   3.566   8.508  0.3382 -0.1130  0.1741
17742SOL    HW158164   6.424   3.502   8.538  1.3303 -1.3902 -0.3318
17742SOL    HW258165   6.463   3.583   8.417  1.9101 -2.2331 -0.7089
17743SOL     OW58166   1.789   5.540  10.521 -0.0078 -0.2978 -0.2023
17743SOL    HW158167   1.761   5.567  10.433 -2.1398 -0.8534  0.2459
17743SOL    HW258168   1.709   5.504  10.561  0.9720 -0.2565  1.8914
17744SOL     OW58169   7.415  11.116   7.385 -0.3670  0.5908 -0.7993
17744SOL    HW158170   7.446  11.094   7.296 -1.5670  0.0886 -1.1061
17744SOL    HW258171   7.321  11.132   7.374 -0.4810  0.7455  0.3542
17745SOL     OW58172   8.846   5.882  10.631 -0.1109  0.0890 -0.1964
17745SOL    HW158173   8.900   5.829  10.571  0.3315 -1.5654  1.5515
17745SOL    HW258174   8.789   5.818  10.673 -0.2735  1.1602  1.2652
17746SOL     OW58175   9.006   3.358   5.895 -0.0771 -0.2474  0.0933
17746SOL    HW158176   9.098   3.383   5.905 -0.4668  0.8417  1.2048
17746SOL    HW258177   8.960   3.407   5.964 -1.2678 -2.0663  0.6547
17747SOL     OW58178   2.960  10.190   0.902  0.1377 -0.2707  0.1360
17747SOL    HW158179   2.873  10.152   0.911  0.1789 -0.2293  0.7755
17747SOL    HW258180   2.945  10.285   0.906  0.2711 -0.2749  0.8956
17748SOL     OW58181  11.115   6.952   9.071 -0.3751  0.0767 -0.1895
17748SOL    HW158182  11.173   6.999   9.131  3.5906 -1.9804 -2.0294
17748SOL    HW258183  11.140   6.982   8.984 -2.4277 -0.6511 -1.1039
17749SOL     OW58184   7.445  11.006  11.562 -0.0735 -0.6005  0.4934
17749SOL    HW158185   7.485  11.053  11.489 -1.5227 -0.0348  0.0121
17749SOL    HW258186   7.502  10.930  11.577  0.8046 -0.1655 -0.5443
17750SOL     OW58187   0.751   0.116   8.907 -0.2767 -0.3517 -0.0848
17750SOL    HW158188   0.835   0.122   8.863 -0.8003 -2.5670 -1.5334
17750SOL    HW258189   0.773   0.092   8.997  0.6726 -0.1647 -0.2592
17751SOL     OW58190   5.433  11.109  10.043  0.5605  0.2162  0.1502
17751SOL    HW158191   5.420  11.087  10.135  1.4572  1.7520  0.6957
17751SOL    HW258192   5.519  11.152  10.041 -0.3118  2.0425 -1.0281
17752SOL     OW58193   0.575   8.035   7.585  0.1841 -0.2993 -0.6614
17752SOL    HW158194   0.525   8.112   7.557  0.3910 -0.0929 -0.4671
17752SOL    HW258195   0.594   7.988   7.504 -1.3360 -1.0121 -0.6452
17753SOL     OW58196   6.855   7.257   6.623  0.8289  0.5539  0.3584
17753SOL    HW158197   6.870   7.221   6.536  0.7739  1.8018 -0.1820
17753SOL    HW258198   6.926   7.221   6.676  0.1463 -1.2491  0.1466
17754SOL     OW58199   2.847   5.255   2.675  0.3747  0.1441  0.2883
17754SOL    HW158200   2.809   5.244   2.588  2.8122  0.2474 -0.8584
17754SOL    HW258201   2.900   5.334   2.669  0.7237  0.0754  1.8378
17755SOL     OW58202  10.010   3.181   8.636 -0.4957  0.3200 -0.3683
17755SOL    HW158203  10.057   3.223   8.708 -1.2859  2.1932 -0.8884
17755SOL    HW258204   9.934   3.140   8.677 -0.5621  0.7626 -0.0411
17756SOL     OW58205   0.643   8.574   3.985  0.1598 -0.1122 -0.0031
17756SOL    HW158206   0.623   8.666   3.999 -0.7514 -0.3772  0.5994
17756SOL    HW258207   0.654   8.566   3.891  1.2576  0.7885  0.0323
17757SOL     OW58208   6.023   2.537   7.394 -0.3122 -0.1411 -0.7515
17757SOL    HW158209   6.094   2.586   7.437 -0.5657 -0.8336  0.4977
17757SOL    HW258210   5.943   2.574   7.430 -0.5193 -1.0495 -0.2474
17758SOL     OW58211  10.400   4.476  10.488  0.5851 -0.0934 -0.1929
17758SOL    HW158212  10.310   4.443  10.483  0.2250  0.7154  0.5583
17758SOL    HW258213  10.425   4.493  10.397 -0.2701  0.3201 -0.3569
17759SOL     OW58214   4.486   3.991   0.102 -0.2713 -0.1348  0.0535
17759SOL    HW158215   4.548   4.064   0.098 -0.9800  0.4148 -1.3221
17759SOL    HW258216   4.496   3.947   0.018 -0.5912 -1.0154  0.4692
17760SOL     OW58217   8.954   1.824   6.093  0.6889  0.3203 -0.6614
17760SOL    HW158218   9.045   1.802   6.115  0.6575  0.8288 -0.0047
17760SOL    HW258219   8.910   1.832   6.178 -0.0813 -0.3503 -0.9809
17761SOL     OW58220   9.565   7.256  10.725 -1.3845 -0.3144  0.1661
17761SOL    HW158221   9.582   7.168  10.691 -0.5586 -0.1792  0.2248
17761SOL    HW258222   9.585   7.315  10.652  1.6152  0.0697  1.1710
17762SOL     OW58223   2.113   4.441   7.703  0.1515 -0.0526  0.0362
17762SOL    HW158224   2.181   4.487   7.752  0.7419  0.3595 -1.1314
17762SOL    HW258225   2.063   4.512   7.661  1.3222 -0.4207 -2.1246
17763SOL     OW58226   7.008   2.656   3.229  0.2608 -0.1153 -1.0519
17763SOL    HW158227   7.051   2.575   3.256 -1.8939 -1.1928 -0.5574
17763SOL    HW258228   6.992   2.703   3.311  1.0337  0.5702 -1.2888
17764SOL     OW58229   2.141   1.213   3.628 -0.5140  0.3975  0.2740
17764SOL    HW158230   2.117   1.269   3.702 -1.0094  1.7482 -0.8571
17764SOL    HW258231   2.227   1.245   3.601  0.9234 -1.8361  1.8531
17765SOL     OW58232   3.767   3.116   0.690 -0.6656 -0.8259 -0.7855
17765SOL    HW158233   3.758   3.021   0.690  1.7995 -1.1635  0.7969
17765SOL    HW258234   3.834   3.133   0.756 -1.1099  2.0347 -0.9694
17766SOL     OW58235   4.629  10.919   2.996 -0.3732 -0.3355 -0.3790
17766SOL    HW158236   4.712  10.880   2.970  0.9961  1.9125  0.3854
17766SOL    HW258237   4.583  10.935   2.913  1.1963  0.9470 -1.0495
17767SOL     OW58238   6.261   9.330   4.148  0.2877 -0.2034  0.0627
17767SOL    HW158239   6.348   9.310   4.182  0.6017  1.8625  0.6045
17767SOL    HW258240   6.278   9.384   4.071 -0.5283 -0.2010 -0.1231
17768SOL     OW58241  10.047   1.573  10.887  0.5269  0.1956 -0.0508
17768SOL    HW158242  10.085   1.616  10.963  0.1750 -0.8151  0.7209
17768SOL    HW258243  10.043   1.641  10.820 -0.3730  1.4804  1.2469
17769SOL     OW58244   2.346   6.192   8.179 -0.1946 -0.0103 -0.1870
17769SOL    HW158245   2.411   6.245   8.224  1.9471  0.7724 -3.7901
17769SOL    HW258246   2.263   6.212   8.223  1.3639  2.1480  1.9848
17770SOL     OW58247   2.358   8.109   7.500 -0.2441 -0.5673 -0.1046
17770SOL    HW158248   2.305   8.042   7.456 -0.0030 -1.0274  0.2943
17770SOL    HW258249   2.412   8.060   7.562  1.5041 -0.2486 -1.3058
17771SOL     OW58250   1.835   5.223  11.253 -0.3977  0.3206 -0.8395
17771SOL    HW158251   1.877   5.165  11.316 -2.0450 -1.2911 -1.1568
17771SOL    HW258252   1.844   5.178  11.169 -0.4096  1.2616 -1.3606
17772SOL     OW58253   3.804   9.594  10.423  0.6955  0.4397 -0.1890
17772SOL    HW158254   3.838   9.571  10.509  0.6377 -0.1588 -0.3209
17772SOL    HW258255   3.710   9.603  10.435  0.4424 -1.3952 -0.5354
17773SOL     OW58256  10.411   7.211   9.141  0.1395  0.6989 -0.4842
17773SOL    HW158257  10.374   7.220   9.229 -0.1408  1.1713 -0.6499
17773SOL    HW258258  10.435   7.300   9.116 -0.2687  0.6382 -1.0989
17774SOL     OW58259   9.867   3.753   1.263  0.0289 -0.4520 -0.0991
17774SOL    HW158260   9.950   3.704   1.266 -0.4151 -1.3006 -1.1155
17774SOL    HW258261   9.887   3.832   1.213  0.3875 -0.3017  0.2731
17775SOL     OW58262   7.732   8.513   9.244 -0.0087 -0.3942 -0.2151
17775SOL    HW158263   7.785   8.500   9.165  1.0719 -2.6399  0.7822
17775SOL    HW258264   7.796   8.533   9.313 -1.0251  2.7186 -0.0481
17776SOL     OW58265   9.135   6.518   9.136 -0.1437  0.4400  0.1283
17776SOL    HW158266   9.190   6.446   9.104 -0.2668  0.4101 -0.0156
17776SOL    HW258267   9.051   6.506   9.093  0.1890  1.3459 -0.8167
17777SOL     OW58268   4.369   2.460   2.304  0.3704 -0.0931  0.7152
17777SOL    HW158269   4.311   2.524   2.346 -0.8673 -0.5456 -0.2557
17777SOL    HW258270   4.347   2.465   2.211  0.1891 -1.9736  0.6266
17778SOL     OW58271  10.934   3.789   3.388  0.0639 -0.1205  0.0634
17778SOL    HW158272  10.883   3.708   3.398 -1.7730  1.0358  0.5049
17778SOL    HW258273  10.919   3.815   3.297  2.1090 -1.1519 -0.6352
17779SOL     OW58274   3.595   8.002   4.054  0.1386  0.0724  0.0698
17779SOL    HW158275   3.630   7.964   4.134  0.9440  1.4688  0.4030
17779SOL    HW258276   3.671   8.030   4.004 -0.4157  1.3247 -0.1177
17780SOL     OW58277   6.718   2.290   7.000  0.1228  0.0681 -0.3189
17780SOL    HW158278   6.804   2.306   7.038 -0.1188 -0.0352  0.2981
17780SOL    HW258279   6.727   2.206   6.955  0.8124  0.8929 -1.7623
17781SOL     OW58280   0.681  10.967   5.961 -0.2202 -0.4321 -0.1456
17781SOL    HW158281   0.690  10.930   5.873  1.3200  1.3458 -0.7990
17781SOL    HW258282   0.745  10.919   6.013 -2.0126 -2.3783  0.3891
17782SOL     OW58283   1.448   7.575   3.783  0.1868 -0.3918 -0.3007
17782SOL    HW158284   1.405   7.628   3.850 -0.3722 -1.7815  0.4909
17782SOL    HW258285   1.375   7.538   3.733  0.5130 -1.2808 -0.1360
17783SOL     OW58286   6.004   1.667   9.793 -0.3814  0.3667 -0.7218
17783SOL    HW158287   6.079   1.664   9.733  0.1763  0.6610 -0.0523
17783SOL    HW258288   6.027   1.606   9.863 -1.1206 -0.1351 -0.8961
17784SOL     OW58289   7.383   4.472   3.071 -0.1877 -0.4686  0.2175
17784SOL    HW158290   7.386   4.566   3.059  0.1004 -0.6596 -1.4808
17784SOL    HW258291   7.365   4.460   3.165 -0.6310  1.2487  0.3869
17785SOL     OW58292   2.609   0.752   0.335  0.3388  0.2255  0.0962
17785SOL    HW158293   2.529   0.700   0.335 -0.8095  1.8914  0.1714
17785SOL    HW258294   2.630   0.765   0.427 -1.5536  2.9357  0.2586
17786SOL     OW58295   6.669   5.886   4.838 -0.0880 -0.0381 -0.1706
17786SOL    HW158296   6.679   5.797   4.805  1.3044 -0.0509  0.2272
17786SOL    HW258297   6.724   5.889   4.917  0.2490  1.2930 -0.4321
17787SOL     OW58298   0.173   6.606   8.870 -0.3626  0.4800  0.4658
17787SOL    HW158299   0.242   6.667   8.896  0.7189 -0.9795  1.1907
17787SOL    HW258300   0.130   6.648   8.796 -0.1001  2.3993  1.3472
17788SOL     OW58301   3.320   5.140   6.412  0.0618 -0.2447  0.4159
17788SOL    HW158302   3.289   5.231   6.417  1.2485  0.5672 -3.4882
17788SOL    HW258303   3.408   5.144   6.450  0.1464  0.2433  0.1787
17789SOL     OW58304   4.216   0.169   1.417  0.0313  0.1366 -0.2370
17789SOL    HW158305   4.281   0.108   1.382 -0.4699 -0.1182 -0.7326
17789SOL    HW258306   4.264   0.219   1.483  0.5014 -0.6385  0.0215
17790SOL     OW58307   3.314   8.129   9.261 -0.1533 -0.3686 -0.3520
17790SOL    HW158308   3.269   8.059   9.308 -0.2789  0.4456  0.7809
17790SOL    HW258309   3.371   8.169   9.327  0.0950  0.4436 -1.0426
17791SOL     OW58310   7.058   8.745   7.314  0.0045 -0.7274 -0.3241
17791SOL    HW158311   7.131   8.723   7.371  0.2296 -0.1276 -0.3799
17791SOL    HW258312   6.980   8.727   7.367  0.1861 -1.2847 -0.2374
17792SOL     OW58313  10.042   7.901   4.720 -0.4931  0.2578 -0.0901
17792SOL    HW158314  10.049   7.988   4.680 -0.2936  0.2392 -0.0984
17792SOL    HW258315   9.953   7.897   4.754 -0.4554  0.5254  0.0450
17793SOL     OW58316   1.753   9.576   3.024  0.2960  0.1014 -0.3493
17793SOL    HW158317   1.840   9.593   2.986  1.1041 -0.9168  0.9294
17793SOL    HW258318   1.753   9.482   3.042 -0.0856  0.4785  1.9421
17794SOL     OW58319   8.383   8.568   2.038  0.6422  0.2187 -0.1003
17794SOL    HW158320   8.456   8.540   1.982  1.0495 -0.0125  0.5358
17794SOL    HW258321   8.397   8.522   2.120  1.6456  2.6297  1.1743
17795SOL     OW58322   2.126   7.964   7.385  0.1323 -0.6101  0.4852
17795SOL    HW158323   2.127   7.869   7.384  0.5293 -0.6126 -0.4961
17795SOL    HW258324   2.157   7.989   7.298 -1.7008  0.3957  0.0616
17796SOL     OW58325   1.281  11.522  11.008  0.6717  0.1319 -0.0026
17796SOL    HW158326   1.358  11.480  11.047  0.0645 -1.0056  0.0213
17796SOL    HW258327   1.220  11.450  10.992  0.3730  0.7444 -1.8373
17797SOL     OW58328   4.357  10.315   7.357  0.5034 -0.3544  0.8223
17797SOL    HW158329   4.351  10.396   7.409  3.0937  0.0454  0.6132
17797SOL    HW258330   4.391  10.343   7.272 -2.0617 -1.2359 -0.6152
17798SOL     OW58331   6.996   6.851   4.525  0.5707 -0.3631  0.0617
17798SOL    HW158332   7.091   6.864   4.515  0.3791  1.9260  0.5026
17798SOL    HW258333   6.983   6.843   4.619  0.0722  3.1814  0.4517
17799SOL     OW58334   1.239   6.687   9.613  0.6440 -0.0350  0.0789
17799SOL    HW158335   1.232   6.681   9.517 -0.9585 -0.7775  0.2043
17799SOL    HW258336   1.298   6.616   9.637  0.5900 -0.2207 -0.3197
17800SOL     OW58337   6.383   0.017   3.549 -0.5687 -0.2988  0.5411
17800SOL    HW158338   6.385  -0.034   3.468 -0.8301  0.9801 -0.2939
17800SOL    HW258339   6.469   0.005   3.587 -0.3898 -0.7865 -0.0086
17801SOL     OW58340  10.278  11.651   9.740  0.0611  0.1685  0.0166
17801SOL    HW158341  10.311  11.718   9.680  1.1566  0.1607  0.5800
17801SOL    HW258342  10.234  11.588   9.684  0.7724  0.3366 -0.7570
17802SOL     OW58343   1.521   2.174   3.279  0.2695  0.4176  0.0492
17802SOL    HW158344   1.563   2.224   3.210 -0.7720  0.5262 -0.5270
17802SOL    HW258345   1.433   2.213   3.287 -1.1511 -2.2398 -1.4765
17803SOL     OW58346   5.422   3.089  11.628 -1.0098  0.1592 -0.2996
17803SOL    HW158347   5.420   3.151  11.555  1.1399  1.0902  0.3618
17803SOL    HW258348   5.439   3.005  11.587 -0.7558  0.5203 -0.9578
17804SOL     OW58349   1.953   7.630   0.572  0.7040  0.2351 -0.4263
17804SOL    HW158350   1.902   7.588   0.504  2.2167 -0.5531 -1.1351
17804SOL    HW258351   1.980   7.558   0.629 -0.7326  0.9070  1.1851
17805SOL     OW58352   6.194   3.068   5.609 -0.1729 -0.2499 -0.2261
17805SOL    HW158353   6.266   3.122   5.642  0.9655 -2.4395  1.0399
17805SOL    HW258354   6.117   3.101   5.655  1.1417 -2.3080  3.9113
17806SOL     OW58355   7.930   8.178  10.104  0.3965  0.1233  0.3764
17806SOL    HW158356   8.021   8.152  10.113  0.4385 -0.0364 -0.4049
17806SOL    HW258357   7.930   8.241  10.031 -0.2071 -0.4085 -0.0977
17807SOL     OW58358   1.943   2.691  10.894  0.0628  0.4883 -0.2908
17807SOL    HW158359   1.851   2.718  10.892  0.0195  0.3184 -0.6697
17807SOL    HW258360   1.962   2.679  10.987 -0.2919  0.5471 -0.2078
17808SOL     OW58361   2.581  11.389  10.957  0.1143 -0.0909  0.2306
17808SOL    HW158362   2.531  11.340  10.892  0.3596  1.1149 -0.8995
17808SOL    HW258363   2.552  11.354  11.041 -0.4849 -1.4188 -0.5080
17809SOL     OW58364   1.126   8.965   4.996  0.8797 -0.6230 -0.0709
17809SOL    HW158365   1.099   8.970   4.905 -0.0432 -0.2621  0.2089
17809SOL    HW258366   1.096   8.879   5.025 -4.7908  1.4465  1.6181
17810SOL     OW58367   8.101   6.800  10.602 -0.3884  0.3101 -0.6468
17810SOL    HW158368   8.083   6.846  10.684  0.5688  1.2151 -0.9230
17810SOL    HW258369   8.056   6.716  10.611 -1.8788  1.1515  0.0225
17811SOL     OW58370  11.108   0.012   7.773 -0.9114  0.1777  0.4050
17811SOL    HW158371  11.152  -0.041   7.839 -0.5995 -0.2704 -0.1492
17811SOL    HW258372  11.066  -0.052   7.715 -0.2685  0.5138 -0.4563
17812SOL     OW58373   2.837   7.836   0.907 -0.6238 -0.0652 -0.0475
17812SOL    HW158374   2.825   7.802   0.818 -1.1457 -1.8908  0.6744
17812SOL    HW258375   2.757   7.811   0.954  0.1438 -0.2077  1.2496
17813SOL     OW58376   6.814   4.734   5.723  0.6746  0.0731  0.4025
17813SOL    HW158377   6.720   4.720   5.722  0.0148  3.4971 -0.1064
17813SOL    HW258378   6.849   4.670   5.662 -1.5143 -0.3980 -0.4376
17814SOL     OW58379   7.267   0.443  11.049 -0.4336 -0.3037  0.3287
17814SOL    HW158380   7.270   0.351  11.023 -1.8920 -0.5812  1.0329
17814SOL    HW258381   7.184   0.452  11.094  0.1843  1.1175  1.2468
17815SOL     OW58382   6.388   3.024   3.186  0.1383  0.2526 -0.3296
17815SOL    HW158383   6.407   3.080   3.261 -2.3837  0.1444  0.4528
17815SOL    HW258384   6.474   3.007   3.148  1.1359  4.0250 -0.2071
17816SOL     OW58385   3.791   8.066   3.889 -0.3774 -0.4403  0.5623
17816SOL    HW158386   3.794   8.058   3.793 -1.1427  2.3484  0.2085
17816SOL    HW258387   3.881   8.051   3.917 -0.3777 -2.5751 -0.4135
17817SOL     OW58388   9.014   5.811   5.069  0.2970  0.1955 -0.5340
17817SOL    HW158389   8.958   5.756   5.014  0.2966  0.5200 -0.8628
17817SOL    HW258390   8.979   5.800   5.158 -0.7444  0.9299 -0.8255
17818SOL     OW58391  10.439   0.013   2.350  0.1484 -0.4884 -0.1894
17818SOL    HW158392  10.354   0.056   2.364 -0.1000 -1.2185  0.5846
17818SOL    HW258393  10.427  -0.076   2.382  1.3684 -0.4540  0.4354
17819SOL     OW58394   5.798   5.842   7.604 -0.1182 -0.2157  0.2229
17819SOL    HW158395   5.732   5.891   7.652 -0.6136 -1.0058  0.3733
17819SOL    HW258396   5.855   5.909   7.565 -0.8458  0.4666  0.3120
17820SOL     OW58397   0.348   5.871   8.208  0.4014 -0.1954 -0.0066
17820SOL    HW158398   0.274   5.907   8.159  1.0627  0.2502 -0.6934
17820SOL    HW258399   0.393   5.947   8.245  0.8222 -0.4222 -0.0397
17821SOL     OW58400   9.826   4.089   4.465  0.3019  0.3123 -0.7989
17821SOL    HW158401   9.911   4.074   4.424  0.7071  1.4824 -0.4141
17821SOL    HW258402   9.829   4.039   4.547  0.7592  0.6292 -0.6192
17822SOL     OW58403   7.235   7.505  10.318 -0.0684  0.4245  0.6163
17822SOL    HW158404   7.193   7.498  10.232  1.7823  0.6356 -0.3484
17822SOL    HW258405   7.162   7.503  10.380 -1.3312 -2.9611 -0.7179
17823SOL     OW58406   7.919  11.004  11.502  0.0815 -0.3515  0.5390
17823SOL    HW158407   7.999  11.056  11.511 -1.9859  2.9050  2.3038
17823SOL    HW258408   7.914  10.953  11.583  0.2676 -0.3823  0.5309
17824SOL     OW58409   3.378   7.034   9.872  0.2628 -0.0767  0.3770
17824SOL    HW158410   3.403   6.982   9.796  1.0953  1.1971 -0.2524
17824SOL    HW258411   3.455   7.032   9.929  1.3526  2.5184 -0.8316
17825SOL     OW58412   5.291   6.123   9.458 -0.1406  0.2713  0.0528
17825SOL    HW158413   5.291   6.179   9.536 -1.3194  1.4925 -0.7915
17825SOL    HW258414   5.365   6.155   9.406 -0.5832  0.8157 -0.2529
17826SOL     OW58415   2.824   1.664   1.032 -0.3120  0.4841 -0.3886
17826SOL    HW158416   2.766   1.621   0.970 -0.8539  1.1273 -0.3429
17826SOL    HW258417   2.864   1.735   0.982  1.9609 -1.0933 -0.9825
17827SOL     OW58418   5.214   2.216   5.396  0.9902  0.1289  0.3298
17827SOL    HW158419   5.136   2.237   5.447  0.8249 -3.6354  1.9282
17827SOL    HW258420   5.183   2.158   5.327  2.3838 -2.3304  1.6448
17828SOL     OW58421   7.354  10.972   9.230  0.0672 -0.1534 -0.5635
17828SOL    HW158422   7.364  10.897   9.172 -1.3084 -0.9194  0.1504
17828SOL    HW258423   7.259  10.989   9.232 -0.0941 -0.8899  2.3136
17829SOL     OW58424   5.430   3.811   8.270  0.0548 -0.5885  0.3232
17829SOL    HW158425   5.482   3.732   8.254 -1.2320 -1.5908  0.9611
17829SOL    HW258426   5.339   3.782   8.260 -0.4341  0.8349  0.4866
17830SOL     OW58427   4.969   0.839   8.427 -0.4884 -0.3383 -0.1127
17830SOL    HW158428   4.882   0.824   8.391 -1.0767  1.1962  0.5838
17830SOL    HW258429   5.012   0.753   8.422 -2.1540 -1.2163 -0.1104
17831SOL     OW58430   1.638   5.988   1.062  0.6739  0.1729  0.1999
17831SOL    HW158431   1.601   5.991   0.974  2.6476  0.5355 -0.6740
17831SOL    HW258432   1.563   6.002   1.120 -0.5388  0.8323 -1.4472
17832SOL     OW58433   0.436   1.742   3.091  0.0223 -0.4961 -0.6067
17832SOL    HW158434   0.341   1.728   3.088  0.1518 -1.2576 -1.6055
17832SOL    HW258435   0.465   1.685   3.163 -0.5716  1.8493  1.6332
17833SOL     OW58436   4.343  10.142   8.619 -0.1801 -0.5398 -0.1204
17833SOL    HW158437   4.387  10.196   8.552 -2.9861  1.2846 -0.6634
17833SOL    HW258438   4.398  10.151   8.696  1.3450  0.1533 -1.2291
17834SOL     OW58439   1.522   6.523   2.870 -0.6952 -0.2133 -0.4674
17834SOL    HW158440   1.483   6.596   2.822 -0.1785  0.1071 -0.4129
17834SOL    HW258441   1.505   6.543   2.962  1.2647  0.9595 -0.3004
17835SOL     OW58442   1.360   1.052   2.407  0.6293  0.5466  0.2790
17835SOL    HW158443   1.297   1.112   2.366  1.0696  1.3327  0.7188
17835SOL    HW258444   1.378   0.987   2.339 -0.7851  0.1979  0.2121
17836SOL     OW58445   3.405   3.138   9.948 -0.2710  0.1685  0.3551
17836SOL    HW158446   3.404   3.190   9.867 -2.1100 -0.7931 -0.3082
17836SOL    HW258447   3.421   3.048   9.918  1.5813  0.1186  1.3584
17837SOL     OW58448  10.569   8.776   3.713  0.3455  0.3584 -0.1023
17837SOL    HW158449  10.626   8.741   3.781  0.3442 -0.9439 -0.7226
17837SOL    HW258450  10.506   8.831   3.759  0.5529 -0.2322  0.9056
17838SOL     OW58451   6.719   5.863   3.215 -0.5948 -0.2521 -0.5602
17838SOL    HW158452   6.708   5.911   3.297  3.4430 -2.7444  1.8230
17838SOL    HW258453   6.683   5.776   3.233  2.5595 -1.6367 -0.2932
17839SOL     OW58454   6.781  10.090   7.647  0.4240 -0.5313 -0.1901
17839SOL    HW158455   6.868  10.131   7.646 -0.5125  1.5808  0.5939
17839SOL    HW258456   6.730  10.143   7.707 -1.0634 -2.5780  0.4590
17840SOL     OW58457   5.730  11.643  11.472 -0.4088 -0.3900  0.3700
17840SOL    HW158458   5.743  11.582  11.545  1.2036 -0.5404 -0.0077
17840SOL    HW258459   5.690  11.590  11.403 -1.6445 -0.3232  1.0157
17841SOL     OW58460   7.508   9.834   0.744  0.0609  0.0164  0.7685
17841SOL    HW158461   7.590   9.848   0.696  0.4859 -0.7361  1.2479
17841SOL    HW258462   7.458   9.914   0.731  0.9334  0.5367  0.5672
17842SOL     OW58463   4.464   1.452  10.210  0.1820 -0.1505 -0.0934
17842SOL    HW158464   4.412   1.390  10.260 -0.0853 -0.3223 -0.5802
17842SOL    HW258465   4.463   1.532  10.263 -0.4364 -0.2011 -0.0242
17843SOL     OW58466   0.181   4.438   2.499  0.1292 -0.3982 -0.4212
17843SOL    HW158467   0.155   4.413   2.588  0.7934 -1.5936 -0.5368
17843SOL    HW258468   0.116   4.397   2.443  1.3738 -2.2129 -0.6284
17844SOL     OW58469   5.381   1.470   2.419 -0.0611 -0.3093  0.7952
17844SOL    HW158470   5.465   1.514   2.433  0.7241 -0.5228 -2.5051
17844SOL    HW258471   5.317   1.541   2.412  0.0253 -0.0895  2.0168
17845SOL     OW58472   4.564   4.845   1.767  0.0291  0.1073 -0.1970
17845SOL    HW158473   4.530   4.846   1.856  0.4220  2.1827 -0.0339
17845SOL    HW258474   4.625   4.771   1.765 -1.1116 -0.8995  0.7770
17846SOL     OW58475   8.600   8.794   8.952  0.3005  0.1025 -0.0054
17846SOL    HW158476   8.636   8.882   8.962 -0.1400  0.4281 -1.1489
17846SOL    HW258477   8.576   8.789   8.860 -1.9767 -0.3353  0.5712
17847SOL     OW58478   7.088   2.091  11.489  0.0852 -0.1312 -0.1816
17847SOL    HW158479   7.150   2.019  11.478  0.8547  0.4950 -0.0114
17847SOL    HW258480   7.122   2.143  11.562 -0.3388  0.5275 -0.4331
17848SOL     OW58481   7.773   5.947   8.560  0.2746  0.6384 -0.3415
17848SOL    HW158482   7.831   5.949   8.485 -0.1884  1.0060 -0.6985
17848SOL    HW258483   7.791   6.028   8.608 -0.1873  0.9310 -0.6499
17849SOL     OW58484   1.202   2.838   8.715  0.1652  0.6174 -0.4426
17849SOL    HW158485   1.234   2.758   8.757  0.1710  0.4857 -0.6967
17849SOL    HW258486   1.280   2.883   8.684  0.1311  0.4908 -0.7129
17850SOL     OW58487   0.986   3.111   1.897 -0.4611  0.1264  0.2953
17850SOL    HW158488   1.007   3.103   1.990  0.4149  0.2078  0.1110
17850SOL    HW258489   0.988   3.206   1.880 -0.0467  0.0789  0.0695
17851SOL     OW58490   4.860   2.908   4.076  0.2195 -0.3390  0.1812
17851SOL    HW158491   4.850   2.878   3.986  0.8927  0.3016 -0.1167
17851SOL    HW258492   4.954   2.904   4.093  0.3977  1.8881 -0.0040
17852SOL     OW58493   7.201  10.278   5.092 -0.6457  0.8639  0.5127
17852SOL    HW158494   7.265  10.313   5.030 -0.9135  2.0220  0.8636
17852SOL    HW258495   7.138  10.349   5.104 -1.8620 -0.1543  0.3790
17853SOL     OW58496   2.198   6.024   3.957 -0.1921  0.3323 -0.0668
17853SOL    HW158497   2.186   5.964   3.883 -0.6324  1.5369 -1.0167
17853SOL    HW258498   2.217   6.108   3.916  1.2444  0.6884  1.2467
17854SOL     OW58499   4.091   0.417   3.749  1.1288  0.4640 -0.3717
17854SOL    HW158500   4.032   0.492   3.755  0.7050  0.0346  1.9451
17854SOL    HW258501   4.033   0.341   3.741  1.5297  0.2944 -1.9419
17855SOL     OW58502   7.765   9.530   2.006 -0.1692 -0.8733  0.1045
17855SOL    HW158503   7.718   9.448   2.017  1.5637 -1.7032  2.1241
17855SOL    HW258504   7.789   9.556   2.095 -1.1659  2.1784 -0.4047
17856SOL     OW58505   6.747   1.977  10.320  0.4207 -0.2731 -0.5519
17856SOL    HW158506   6.673   2.037  10.309 -0.7362 -1.5379  0.0170
17856SOL    HW258507   6.803   2.019  10.385 -1.3287 -0.6045  1.2831
17857SOL     OW58508   7.069  11.646   7.586  0.3041  0.0968 -0.5418
17857SOL    HW158509   7.131  11.574   7.573 -1.7281 -1.7189 -0.7741
17857SOL    HW258510   6.994  11.623   7.531 -0.2793  2.6165 -0.8958
17858SOL     OW58511   4.821   1.410   6.032 -0.2980  0.1184 -0.3980
17858SOL    HW158512   4.774   1.487   6.062 -2.3722 -1.6101  1.0890
17858SOL    HW258513   4.889   1.444   5.974 -2.0506  2.9195 -0.9776
17859SOL     OW58514   0.016   6.335   0.707 -0.0965 -0.3051  0.1469
17859SOL    HW158515   0.008   6.258   0.764  0.6352 -0.5412 -0.0550
17859SOL    HW258516  -0.074   6.352   0.677 -0.5419  0.0257  1.6125
17860SOL     OW58517   7.420   6.470   6.257  0.4481 -0.8969  0.0631
17860SOL    HW158518   7.354   6.409   6.288 -0.3982  0.2271  0.5249
17860SOL    HW258519   7.454   6.512   6.336 -1.6077  1.8680 -0.3699
17861SOL     OW58520   5.868   8.118   7.184 -0.3242  0.8925 -0.2602
17861SOL    HW158521   5.835   8.046   7.239  1.2228  1.2098  1.1310
17861SOL    HW258522   5.843   8.197   7.231  0.5279  1.1802 -0.2814
17862SOL     OW58523   3.821   5.765  11.683 -0.5690  0.7493  0.5906
17862SOL    HW158524   3.755   5.731  11.744 -0.0981  1.0225  1.2596
17862SOL    HW258525   3.769   5.806  11.613 -1.1153  0.3164  0.7324
17863SOL     OW58526   0.930   9.340   0.181 -0.2677  0.0094 -0.0471
17863SOL    HW158527   1.014   9.343   0.136 -0.0622  2.2263  0.3742
17863SOL    HW258528   0.954   9.331   0.274 -0.5632 -0.6190 -0.0250
17864SOL     OW58529   2.978   6.654   8.310  0.1053 -0.8539  0.4613
17864SOL    HW158530   2.919   6.581   8.289  0.0602 -0.1808 -2.2006
17864SOL    HW258531   3.057   6.636   8.259 -0.2967  1.3955 -1.1133
17865SOL     OW58532   6.450   8.652  11.623  0.8325  0.0872  0.7077
17865SOL    HW158533   6.521   8.701  11.665  0.6491 -0.3773  1.5824
17865SOL    HW258534   6.405   8.608  11.695  1.6119 -2.1924 -0.1211
17866SOL     OW58535  11.360   3.958   5.014 -0.2118 -0.0036  0.3424
17866SOL    HW158536  11.403   3.887   4.965 -2.3572 -0.4640 -0.9862
17866SOL    HW258537  11.329   4.018   4.947  0.2086  1.4454  1.3886
17867SOL     OW58538   3.531   2.229   5.428  0.2831  0.9563 -0.2082
17867SOL    HW158539   3.444   2.262   5.448  0.3727  0.9934  0.1204
17867SOL    HW258540   3.543   2.155   5.488  0.1504  0.4287 -0.8140
17868SOL     OW58541   1.762   6.931   8.002 -0.4398  0.2962  0.1107
17868SOL    HW158542   1.780   7.021   7.973 -0.8415 -0.1207 -1.5402
17868SOL    HW258543   1.769   6.935   8.097  2.9732  1.3494 -0.0335
17869SOL     OW58544   6.318   1.451   7.707 -0.1460  0.3764  0.2097
17869SOL    HW158545   6.393   1.392   7.712  0.2566  0.8626 -0.0677
17869SOL    HW258546   6.307   1.469   7.614 -1.3716 -0.6473  0.1262
17870SOL     OW58547   0.979   8.580   9.050 -0.6220  0.0597 -0.7953
17870SOL    HW158548   0.958   8.609   8.962  1.8362 -1.1719 -1.8822
17870SOL    HW258549   1.028   8.499   9.038 -1.6826 -1.0715  1.8128
17871SOL     OW58550   7.022   4.110   1.933 -0.2583  0.7745  0.2517
17871SOL    HW158551   6.959   4.135   2.002 -0.5498 -1.0318  0.6848
17871SOL    HW258552   7.107   4.138   1.967 -0.3782 -0.2526  1.4635
17872SOL     OW58553  10.319   9.347   3.787  0.5579 -0.5421  0.4220
17872SOL    HW158554  10.276   9.303   3.714  0.8553 -1.2226  0.6487
17872SOL    HW258555  10.413   9.344   3.766  0.6032 -0.2786  0.5776
17873SOL     OW58556   8.088   1.431   6.370  0.5960 -0.0199 -0.4228
17873SOL    HW158557   8.163   1.384   6.333  0.5004 -0.9025  0.4755
17873SOL    HW258558   8.087   1.406   6.462 -1.0672 -0.3681 -0.5076
17874SOL     OW58559   6.334   0.492   9.889  0.0714 -0.2093 -0.1957
17874SOL    HW158560   6.394   0.510   9.961 -2.6925  0.4056  2.1254
17874SOL    HW258561   6.385   0.438   9.828  2.8261  0.0297  1.7210
17875SOL     OW58562   8.844   7.125  10.699  0.0091 -0.5465 -0.0898
17875SOL    HW158563   8.866   7.069  10.773 -0.5389  0.2071  0.6572
17875SOL    HW258564   8.750   7.110  10.684 -0.5562  1.3587  1.1872
17876SOL     OW58565   6.096   2.865   9.594 -0.6296  0.4867 -0.0979
17876SOL    HW158566   6.002   2.870   9.575 -1.1896  0.4521  2.3593
17876SOL    HW258567   6.106   2.784   9.644  0.3174  1.5736  1.5689
17877SOL     OW58568   8.995   1.319  11.320 -0.4826 -0.6952  0.0135
17877SOL    HW158569   8.932   1.337  11.390  0.4831 -0.9084  0.9680
17877SOL    HW258570   9.076   1.298  11.366 -0.1315 -2.0500 -1.1462
17878SOL     OW58571   5.023   0.222   3.072 -0.3601  0.2372 -0.0310
17878SOL    HW158572   4.993   0.169   3.146 -0.6869  0.2756 -0.1366
17878SOL    HW258573   5.106   0.183   3.046  1.0755  1.7309  1.9890
17879SOL     OW58574  11.180   9.315   8.712  0.1781 -0.2197  0.0990
17879SOL    HW158575  11.136   9.375   8.651  1.1399 -0.7328 -1.1525
17879SOL    HW258576  11.165   9.228   8.675  0.7646 -0.5425  0.6075
17880SOL     OW58577   7.794   4.201   6.392 -0.1815 -0.3508  0.0339
17880SOL    HW158578   7.744   4.154   6.326  0.8397 -1.3831 -0.0240
17880SOL    HW258579   7.730   4.259   6.433 -0.9918 -0.2082 -1.3578
17881SOL     OW58580  11.238   5.199   7.900 -0.5944 -0.5089  0.6843
17881SOL    HW158581  11.228   5.294   7.912 -0.9427 -0.3187 -0.8470
17881SOL    HW258582  11.323   5.190   7.856  0.3204 -1.0936  2.4669
17882SOL     OW58583   6.853   6.690   6.248  0.1165  0.4586 -0.8684
17882SOL    HW158584   6.835   6.617   6.188 -0.1004 -0.1823 -0.0395
17882SOL    HW258585   6.826   6.657   6.334  1.3789  0.9933 -0.2532
17883SOL     OW58586  10.212  10.555   5.018  0.7695  0.2312 -1.1312
17883SOL    HW158587  10.268  10.486   5.053 -0.4094  0.3365  1.0998
17883SOL    HW258588  10.148  10.509   4.964  0.6597 -0.2967 -0.5573
17884SOL     OW58589   6.463   3.127   9.232  0.8931  0.1945 -0.5513
17884SOL    HW158590   6.466   3.199   9.169  1.9713  1.3169  0.7173
17884SOL    HW258591   6.498   3.052   9.184  0.7383  0.7650 -1.5902
17885SOL     OW58592  11.546   0.975   4.072 -0.0116  0.4405  0.0162
17885SOL    HW158593  11.578   0.934   3.992  1.4888 -1.0981  1.3134
17885SOL    HW258594  11.469   0.923   4.096 -0.9348  1.3893 -0.7879
17886SOL     OW58595   3.054   8.429   6.927 -0.0785  0.2458 -0.0090
17886SOL    HW158596   3.146   8.445   6.949 -0.1679 -0.4838  0.9770
17886SOL    HW258597   3.043   8.334   6.935 -1.3524  0.4856  1.7966
17887SOL     OW58598   1.335  11.124   4.472  0.1333 -0.9841 -0.3966
17887SOL    HW158599   1.409  11.064   4.469  0.6503 -0.3783  0.1281
17887SOL    HW258600   1.320  11.149   4.381 -0.4192 -2.2919 -0.6940
17888SOL     OW58601   0.331   7.539   5.677 -1.1636 -0.4322  0.0114
17888SOL    HW158602   0.283   7.466   5.639 -0.4616  0.6517 -3.3547
17888SOL    HW258603   0.268   7.611   5.677 -0.4092  0.3235 -2.0452
17889SOL     OW58604   1.849   3.689   7.874  0.0027  0.1799 -0.2506
17889SOL    HW158605   1.941   3.669   7.891  0.0972  0.0817 -0.8684
17889SOL    HW258606   1.801   3.617   7.915  0.1497  0.7054  0.8727
17890SOL     OW58607   0.572   8.559   3.701 -0.1380  0.3994  0.1294
17890SOL    HW158608   0.498   8.498   3.698 -1.3421  1.8068  0.1184
17890SOL    HW258609   0.604   8.562   3.611  0.4104 -0.7239  0.2596
17891SOL     OW58610   6.231   1.662   1.430  0.0621  0.0022 -0.2232
17891SOL    HW158611   6.151   1.610   1.436  0.6243 -0.9411 -0.7844
17891SOL    HW258612   6.202   1.745   1.391 -0.4598 -0.7900 -1.6063
17892SOL     OW58613   6.599  10.449   2.655  0.9742 -0.6019  0.0269
17892SOL    HW158614   6.618  10.369   2.604  0.7323 -0.3854 -0.4097
17892SOL    HW258615   6.567  10.511   2.590 -1.5807 -1.0457  0.7258
17893SOL     OW58616   4.265  11.404   7.901 -0.1241 -0.3046 -0.3291
17893SOL    HW158617   4.302  11.319   7.923 -1.1252 -0.7860 -0.4498
17893SOL    HW258618   4.313  11.431   7.822 -0.6657 -1.3524 -1.0378
17894SOL     OW58619  11.323   0.464   3.304 -0.0567  0.4869  0.6458
17894SOL    HW158620  11.356   0.552   3.287 -0.6621  0.3139 -1.8122
17894SOL    HW258621  11.233   0.478   3.334 -0.6529  0.7324 -1.1206
17895SOL     OW58622   9.305   8.325   2.970  0.1428  0.0390 -0.1597
17895SOL    HW158623   9.349   8.359   2.892 -0.6393  1.4263 -0.0227
17895SOL    HW258624   9.302   8.399   3.030 -0.1631 -0.7382  0.8046
17896SOL     OW58625   6.050   0.907   9.233 -0.3194 -0.1475  0.1968
17896SOL    HW158626   5.988   0.838   9.255 -0.5721 -0.1279 -0.4324
17896SOL    HW258627   6.022   0.938   9.146 -0.8524  1.4364  0.8909
17897SOL     OW58628   7.779  10.240   6.376 -0.1097 -0.1574 -0.1547
17897SOL    HW158629   7.841  10.270   6.442 -0.5079 -0.1096  0.1984
17897SOL    HW258630   7.745  10.320   6.336  0.3921 -0.1918 -0.6667
17898SOL     OW58631   1.510  11.385   5.961 -0.6909 -0.2260 -0.4118
17898SOL    HW158632   1.533  11.351   5.875 -0.0149  0.5498 -0.5493
17898SOL    HW258633   1.511  11.309   6.019 -0.8246 -0.6941 -1.0248
17899SOL     OW58634   4.079  11.447   3.690 -0.1191 -0.3549 -0.2377
17899SOL    HW158635   4.104  11.528   3.734 -0.8269 -0.7427  0.9474
17899SOL    HW258636   4.006  11.472   3.633 -0.0546 -0.0804 -0.2002
17900SOL     OW58637   3.468   6.060  11.006  0.1718 -0.0712 -0.2816
17900SOL    HW158638   3.390   6.065  11.061  0.7271  0.0831  0.5203
17900SOL    HW258639   3.450   5.989  10.945 -0.2185 -0.6808  0.5164
17901SOL     OW58640   4.696   8.446   8.238  0.2388  0.1248  0.7285
17901SOL    HW158641   4.717   8.372   8.181 -0.1248  1.5036 -1.2994
17901SOL    HW258642   4.628   8.412   8.296  0.2732 -1.2020  0.0464
17902SOL     OW58643   2.047   2.847   3.211  0.1258  0.5912  0.2059
17902SOL    HW158644   2.090   2.878   3.131 -1.7641  0.5301 -0.8906
17902SOL    HW258645   2.090   2.763   3.231  0.2181  0.3068 -1.1129
17903SOL     OW58646   5.979  11.651   6.303  0.6149 -0.0003 -0.0493
17903SOL    HW158647   5.937  11.587   6.360 -0.2277 -0.3638 -1.0442
17903SOL    HW258648   5.926  11.731   6.314 -0.3538 -0.4462 -1.2713
17904SOL     OW58649   4.393   2.351   3.904 -0.0961 -0.2701 -0.2356
17904SOL    HW158650   4.400   2.441   3.936 -1.8378 -0.8259  1.8861
17904SOL    HW258651   4.351   2.359   3.819 -1.5482  0.8657  0.5487
17905SOL     OW58652  11.444   8.238   0.844 -0.3912 -0.0292 -0.1750
17905SOL    HW158653  11.416   8.322   0.808 -1.9760 -0.4986 -0.1142
17905SOL    HW258654  11.448   8.179   0.769 -0.6451 -0.2369 -0.0278
17906SOL     OW58655   3.513   5.067   0.189 -0.0739  0.1216  0.3442
17906SOL    HW158656   3.598   5.069   0.146  0.3942 -0.3328  1.2237
17906SOL    HW258657   3.522   5.126   0.264 -1.1459  1.5814 -0.6013
17907SOL     OW58658   9.220  10.353   6.253  0.1166 -0.6913 -0.0802
17907SOL    HW158659   9.225  10.263   6.223  0.1335 -0.6418 -0.2273
17907SOL    HW258660   9.126  10.372   6.258  0.1115 -0.5242 -0.6441
17908SOL     OW58661  11.136   3.659   6.593 -0.1227 -0.4176  0.2587
17908SOL    HW158662  11.199   3.609   6.542 -1.2391 -0.2325 -1.3725
17908SOL    HW258663  11.054   3.650   6.545 -0.9088  0.9163  1.2854
17909SOL     OW58664   0.549  11.129  10.836  0.3381 -0.2875 -0.8208
17909SOL    HW158665   0.590  11.142  10.921  1.6961 -1.8669 -1.1768
17909SOL    HW258666   0.463  11.092  10.857  0.4110 -0.0747 -0.1194
17910SOL     OW58667   2.338  10.455   5.245 -0.4441  0.3085 -0.4722
17910SOL    HW158668   2.252  10.419   5.265 -0.6988  1.3678  0.4698
17910SOL    HW258669   2.337  10.468   5.150 -1.6256  1.0119 -0.3859
17911SOL     OW58670   2.716  10.060   5.536 -0.2389 -0.9248  0.6039
17911SOL    HW158671   2.631  10.048   5.578 -1.0069  2.7419  0.5045
17911SOL    HW258672   2.775  10.086   5.607 -0.4717  1.1429  0.1036
17912SOL     OW58673   6.466  11.231   2.382  0.2503  0.2285  0.2373
17912SOL    HW158674   6.504  11.167   2.321  1.0499  0.8127  0.1122
17912SOL    HW258675   6.541  11.266   2.430 -0.1769  1.0783  0.3008
17913SOL     OW58676   4.671   0.497  11.018 -0.3260 -0.4460 -0.0032
17913SOL    HW158677   4.611   0.517  11.090  1.2811  0.3660  1.1806
17913SOL    HW258678   4.626   0.429  10.967 -1.5464 -0.9894  1.7128
17914SOL     OW58679   1.330   3.268   1.392 -0.1713 -0.0832  0.1747
17914SOL    HW158680   1.374   3.338   1.441  0.2918 -0.3097  0.0934
17914SOL    HW258681   1.265   3.312   1.339  1.0710  0.4583 -0.9575
17915SOL     OW58682   9.757   3.905   3.776  0.0917 -0.0479 -0.2893
17915SOL    HW158683   9.737   3.894   3.869 -0.8347  0.5546 -0.4029
17915SOL    HW258684   9.792   3.820   3.749  2.8857  0.4984  1.1830
17916SOL     OW58685   7.906  10.844   2.293  0.0797  0.9830 -0.0405
17916SOL    HW158686   7.953  10.812   2.216  0.5182  0.4366  0.4468
17916SOL    HW258687   7.876  10.932   2.268 -1.3304  0.1651 -1.5094
17917SOL     OW58688  10.293   7.318   5.034  0.5282  0.1673  0.0953
17917SOL    HW158689  10.254   7.305   4.947  0.1682 -0.6759  0.3676
17917SOL    HW258690  10.220   7.349   5.088 -0.0214 -2.1310  0.7895
17918SOL     OW58691  10.453   0.367   6.326 -0.9138  0.2427 -0.1708
17918SOL    HW158692  10.409   0.377   6.410 -1.8409 -2.4175 -0.2404
17918SOL    HW258693  10.477   0.456   6.301 -1.6563  1.2358  2.3281
17919SOL     OW58694  10.793   7.519   4.742 -0.6061  0.6413 -0.7294
17919SOL    HW158695  10.807   7.571   4.821 -0.3376 -2.4681  1.4315
17919SOL    HW258696  10.867   7.541   4.685  1.8348 -0.3082  1.8464
17920SOL     OW58697   3.053   2.293   3.204 -0.2254 -0.1682  0.1161
17920SOL    HW158698   2.999   2.238   3.260 -0.5428 -1.2742 -1.2072
17920SOL    HW258699   3.115   2.335   3.263 -2.9294  1.7518  1.8344
17921SOL     OW58700  11.355  10.312   2.562  0.4343 -0.5523  0.0352
17921SOL    HW158701  11.348  10.373   2.489 -0.0551 -2.6649 -1.8218
17921SOL    HW258702  11.429  10.256   2.540  0.0868 -1.4374  1.0010
17922SOL     OW58703  10.747   6.911   6.742  0.1097  0.2750 -0.3033
17922SOL    HW158704  10.703   6.956   6.670 -0.6951 -0.3752 -0.2366
17922SOL    HW258705  10.703   6.826   6.747 -0.0197  0.4048  1.1124
17923SOL     OW58706   1.142   9.554  10.886  0.8953 -0.6002  0.2856
17923SOL    HW158707   1.155   9.514  10.800  0.6407  0.8513 -0.4643
17923SOL    HW258708   1.231   9.572  10.917  1.0456 -2.2804  0.9348
17924SOL     OW58709   5.744   2.562   1.191 -0.4846 -0.3623  0.2164
17924SOL    HW158710   5.703   2.476   1.191 -0.6846 -0.3288 -1.9883
17924SOL    HW258711   5.831   2.548   1.155 -0.1784  0.2209  0.7094
17925SOL     OW58712   2.961   6.832   4.843 -0.0840  0.0611  0.1651
17925SOL    HW158713   3.017   6.809   4.768  1.1110 -1.2883  1.3817
17925SOL    HW258714   2.947   6.926   4.835 -0.2125 -0.0856 -1.8749
17926SOL     OW58715   6.738   7.113   8.426  0.6373  0.0515 -0.0607
17926SOL    HW158716   6.787   7.051   8.372  1.4803  0.7549 -0.1192
17926SOL    HW258717   6.677   7.155   8.365 -2.3329 -2.9791  0.5315
17927SOL     OW58718   2.027   5.692   0.343  0.0630  0.1153 -0.3838
17927SOL    HW158719   1.969   5.763   0.368 -0.4099 -0.4656  0.1707
17927SOL    HW258720   2.114   5.720   0.374 -0.6881 -1.2523  3.4828
17928SOL     OW58721   2.016   8.298   8.536 -0.7022 -0.1934  0.4588
17928SOL    HW158722   2.012   8.230   8.603  1.8225  0.7835  1.7227
17928SOL    HW258723   1.976   8.374   8.577 -0.0593  0.1267  0.5030
17929SOL     OW58724   8.510   4.197  11.135  0.1330  0.1846 -0.5238
17929SOL    HW158725   8.605   4.188  11.124 -0.1092 -2.3586 -1.1450
17929SOL    HW258726   8.494   4.168  11.225  0.1348  3.2085  0.5768
17930SOL     OW58727   2.452   3.577  10.154 -0.3426 -0.8372  0.6540
17930SOL    HW158728   2.538   3.574  10.196  0.1120  2.4364  0.2626
17930SOL    HW258729   2.393   3.538  10.219  0.8559  0.7691  2.8691
17931SOL     OW58730   4.550   2.543   6.442  0.4561  0.1686 -0.1247
17931SOL    HW158731   4.591   2.462   6.410 -1.8703 -0.5544 -1.5177
17931SOL    HW258732   4.496   2.515   6.516  0.4819  0.6544  0.0792
17932SOL     OW58733   1.294   7.199   5.570  0.5526 -0.5852  0.1741
17932SOL    HW158734   1.204   7.226   5.557  0.2781 -0.7244  1.6434
17932SOL    HW258735   1.324   7.172   5.483 -0.5521  0.2133 -0.4750
17933SOL     OW58736   6.037   2.727   2.761 -0.4167  0.1196 -0.3205
17933SOL    HW158737   6.088   2.784   2.704 -0.1274  0.5066  0.3203
17933SOL    HW258738   6.102   2.672   2.805 -0.7450 -1.4773 -1.7159
17934SOL     OW58739   5.863  10.286   5.674 -0.1679  0.1626 -0.2566
17934SOL    HW158740   5.863  10.258   5.583  3.1662 -0.4675 -0.1890
17934SOL    HW258741   5.772  10.277   5.702 -0.6078 -4.1033 -2.2250
17935SOL     OW58742   9.939   2.280   9.779 -0.1030 -0.4158 -0.1216
17935SOL    HW158743   9.902   2.358   9.738  2.4718  0.5389 -0.8400
17935SOL    HW258744   9.989   2.313   9.854  1.7227 -1.2270 -0.9257
17936SOL     OW58745   3.848   5.342   2.341  0.0782  0.5661 -0.1364
17936SOL    HW158746   3.874   5.382   2.424  1.1079 -0.3678  0.0219
17936SOL    HW258747   3.883   5.400   2.274 -2.3757  2.3606  0.0101
17937SOL     OW58748   2.819   3.400   7.706 -0.3105  0.3609 -0.7388
17937SOL    HW158749   2.764   3.345   7.651  0.5642 -1.1452 -0.1736
17937SOL    HW258750   2.763   3.422   7.781  0.3919 -3.0270  0.9763
17938SOL     OW58751   0.804   1.843   4.811 -0.4284  0.4913 -0.1574
17938SOL    HW158752   0.805   1.928   4.767 -0.0641  0.2127 -0.6937
17938SOL    HW258753   0.836   1.862   4.899  1.9569  0.5617 -0.9581
17939SOL     OW58754   3.919  11.334   6.228 -0.5757 -0.0597  0.3934
17939SOL    HW158755   3.883  11.293   6.308  0.3427  0.0934  0.8962
17939SOL    HW258756   3.846  11.384   6.192 -0.6409  1.0085  1.9065
17940SOL     OW58757   8.566   1.510   3.132  0.1050  0.2242  0.4858
17940SOL    HW158758   8.592   1.462   3.211  1.9968  1.5372  0.7407
17940SOL    HW258759   8.471   1.503   3.130  0.2229 -2.5920  1.0648
17941SOL     OW58760   9.751   9.719   7.994 -0.4149 -0.3197  0.3982
17941SOL    HW158761   9.729   9.669   7.915 -1.6773 -1.4114  1.4012
17941SOL    HW258762   9.764   9.653   8.062  1.4124  0.5564  0.9789
17942SOL     OW58763  10.569   9.023   4.948 -0.4331  0.3419 -0.0309
17942SOL    HW158764  10.483   9.023   4.989 -0.0988  0.7981  0.6884
17942SOL    HW258765  10.593   9.116   4.942 -1.2844  0.5021 -3.0493
17943SOL     OW58766   0.626   7.134   9.525  0.8030  0.0917 -0.5342
17943SOL    HW158767   0.634   7.229   9.531  1.7400 -0.0501  1.6484
17943SOL    HW258768   0.538   7.119   9.491  0.6764  1.7343 -1.0022
17944SOL     OW58769   6.822   2.866   9.618 -0.5462  0.0091  0.1935
17944SOL    HW158770   6.877   2.938   9.651  1.7030 -0.1420 -2.7367
17944SOL    HW258771   6.814   2.884   9.524 -1.3130 -2.6776 -0.3405
17945SOL     OW58772   0.565   8.025   1.807 -0.4647  0.1724  0.0612
17945SOL    HW158773   0.482   8.065   1.832  0.9571  2.1994  1.8322
17945SOL    HW258774   0.608   8.090   1.752  1.0661  0.3254  1.3710
17946SOL     OW58775  10.675  10.641   8.618  0.1080 -0.3859 -0.2260
17946SOL    HW158776  10.591  10.633   8.571 -0.1756 -0.1628  0.2360
17946SOL    HW258777  10.707  10.728   8.596 -0.5794  0.1692  0.8769
17947SOL     OW58778   2.970   0.147   0.815  0.3883 -0.4916  0.0487
17947SOL    HW158779   2.946   0.139   0.907  0.4168  0.9771  0.2100
17947SOL    HW258780   2.907   0.091   0.769 -0.0081 -0.7670  0.9028
17948SOL     OW58781   6.433   7.763   6.602  0.7533  0.3014  0.3451
17948SOL    HW158782   6.518   7.808   6.601  0.1109  1.5987  1.0717
17948SOL    HW258783   6.379   7.812   6.540  0.3977 -0.2336  0.2275
17949SOL     OW58784   3.990   0.530   3.392  0.1309  0.0151  0.2504
17949SOL    HW158785   3.998   0.511   3.298 -1.8823  1.3380 -0.2672
17949SOL    HW258786   3.921   0.471   3.422  0.4754 -0.1065  0.8028
17950SOL     OW58787   1.398  11.077   5.392 -0.4358  0.4935 -0.0799
17950SOL    HW158788   1.336  11.132   5.343 -0.0044  0.7932 -0.2904
17950SOL    HW258789   1.403  11.118   5.478 -0.6706  0.3601 -0.0002
17951SOL     OW58790   1.811   5.594   6.553  0.2370  0.2862  0.1365
17951SOL    HW158791   1.767   5.613   6.636 -0.1382  2.4098 -0.4990
17951SOL    HW258792   1.757   5.526   6.513 -0.6151  0.5179  0.8429
17952SOL     OW58793   2.473  11.442   3.893  0.8428 -0.2024 -0.0433
17952SOL    HW158794   2.429  11.359   3.914  2.0723 -0.8116  0.1677
17952SOL    HW258795   2.545  11.447   3.955  0.9084  0.9345 -0.1973
17953SOL     OW58796   5.896   8.779   8.554  0.2858 -0.5838  0.1232
17953SOL    HW158797   5.914   8.774   8.647 -1.1160 -1.1470  0.3859
17953SOL    HW258798   5.863   8.868   8.540 -1.5731 -1.1532  0.5949
17954SOL     OW58799   2.334  10.308   0.549  0.1864  0.1268  0.0159
17954SOL    HW158800   2.407  10.335   0.605 -1.2058  1.6306  1.2164
17954SOL    HW258801   2.293  10.236   0.596  0.3510 -0.1059 -0.1967
17955SOL     OW58802  10.680   2.365   0.437  0.0297  0.5440  0.2397
17955SOL    HW158803  10.702   2.398   0.349  2.0647  1.5803  1.0674
17955SOL    HW258804  10.690   2.270   0.430  1.1673  0.6914 -0.4160
17956SOL     OW58805   3.858   6.681   7.892  0.4367 -0.1598 -0.4462
17956SOL    HW158806   3.928   6.718   7.946  1.5197  0.1836 -2.0203
17956SOL    HW258807   3.793   6.751   7.886  0.6404  0.0558 -0.2023
17957SOL     OW58808   2.387   2.589   0.174 -0.2837 -0.2480 -0.3176
17957SOL    HW158809   2.432   2.538   0.106 -1.1639 -0.7768 -0.5226
17957SOL    HW258810   2.324   2.527   0.212 -1.3290  0.6514 -0.5245
17958SOL     OW58811   2.393   5.682   3.908  0.5856  0.2140 -0.1310
17958SOL    HW158812   2.468   5.654   3.855  0.5409  0.2017 -0.1882
17958SOL    HW258813   2.367   5.766   3.868 -1.0024 -0.9658 -1.7176
17959SOL     OW58814   6.678   4.817   1.190  0.4249 -0.4075  0.2734
17959SOL    HW158815   6.625   4.738   1.205 -1.3478  0.6597 -0.0910
17959SOL    HW258816   6.676   4.864   1.273  3.1894 -1.6081  1.1650
17960SOL     OW58817   8.924   9.603   0.618  0.5376  0.1263  0.2327
17960SOL    HW158818   8.851   9.543   0.603  2.3514 -2.0157 -0.7070
17960SOL    HW258819   8.952   9.628   0.530 -0.1561  2.4391  0.6018
17961SOL     OW58820  10.063   8.166   4.602  0.6453  0.1072  0.1940
17961SOL    HW158821  10.153   8.170   4.570  0.9713  1.2979  1.2046
17961SOL    HW258822  10.012   8.141   4.525  1.9427 -1.7083 -0.1359
17962SOL     OW58823   6.081   7.769   1.462 -0.7348  0.0053  0.0778
17962SOL    HW158824   6.083   7.858   1.426 -0.1012  0.1670  0.4858
17962SOL    HW258825   6.076   7.712   1.385 -0.1473  0.3685 -0.2394
17963SOL     OW58826   9.812   4.890   1.339  0.4859 -0.3540  0.2341
17963SOL    HW158827   9.854   4.869   1.255  1.0670 -0.9678  0.6641
17963SOL    HW258828   9.816   4.985   1.345  1.2112 -0.3551 -0.0597
17964SOL     OW58829   0.390   6.700   3.308 -0.2256  0.0920  0.7955
17964SOL    HW158830   0.462   6.637   3.313 -1.4181 -1.3293  0.9605
17964SOL    HW258831   0.427   6.782   3.339  1.1421 -0.7643  1.5177
17965SOL     OW58832   4.995   2.175   9.883  0.1904 -0.2304  0.0048
17965SOL    HW158833   4.946   2.191   9.802 -0.7367  2.0879  0.9286
17965SOL    HW258834   4.963   2.090   9.914 -1.2498 -0.0319 -0.8269
17966SOL     OW58835   0.905  10.560   6.008  0.5521  0.4367  0.0329
17966SOL    HW158836   0.820  10.568   6.051  1.1079  1.2535  1.0354
17966SOL    HW258837   0.885  10.524   5.922 -1.0276  2.3358 -0.4837
17967SOL     OW58838   1.591   9.727   6.688 -0.1465  0.3122 -0.0194
17967SOL    HW158839   1.561   9.642   6.658 -2.5623  0.3015  2.1000
17967SOL    HW258840   1.573   9.786   6.614  1.0906 -0.8391 -1.3146
17968SOL     OW58841   4.743  11.594   8.007  0.2540 -0.0960  0.9250
17968SOL    HW158842   4.837  11.605   7.990  0.4667  2.7880  3.1489
17968SOL    HW258843   4.737  11.517   8.062  1.3599 -0.1656  0.9709
17969SOL     OW58844   5.954   4.983   2.323  0.8564  0.1564 -0.4990
17969SOL    HW158845   5.905   4.965   2.243  2.3903 -1.9035 -1.0568
17969SOL    HW258846   5.887   4.995   2.390 -0.5049 -2.6330 -1.2162
17970SOL     OW58847   1.262   1.897   7.259  0.6504  0.4959  0.0371
17970SOL    HW158848   1.332   1.922   7.319 -0.1580 -1.6104  2.0009
17970SOL    HW258849   1.245   1.805   7.279  0.1030 -0.2752 -3.2705
17971SOL     OW58850   0.930   2.235   3.465 -0.2248  0.0274  0.4172
17971SOL    HW158851   0.968   2.158   3.423 -0.3059  0.1053  0.2011
17971SOL    HW258852   0.921   2.210   3.557  0.1586 -0.0657  0.4334
17972SOL     OW58853   6.269   6.526   6.808 -0.3314 -0.4496 -0.5073
17972SOL    HW158854   6.253   6.467   6.735  0.6253 -0.2053 -0.9167
17972SOL    HW258855   6.355   6.501   6.842 -0.2370  0.2297 -0.2219
17973SOL     OW58856  10.122   1.693   9.903 -0.0430  0.2282 -0.0909
17973SOL    HW158857  10.034   1.727   9.915 -1.1231 -1.8908 -1.5633
17973SOL    HW258858  10.167   1.759   9.850 -0.7943  1.1839  0.4375
17974SOL     OW58859   3.902   6.886   7.539  0.4041 -0.0137 -0.2037
17974SOL    HW158860   3.927   6.806   7.586 -2.2899 -1.2405 -0.6643
17974SOL    HW258861   3.878   6.947   7.609 -0.9803 -0.8922  0.1325
17975SOL     OW58862   7.250   0.645   9.103 -0.6443  0.2668  0.3643
17975SOL    HW158863   7.178   0.708   9.107 -0.2754  0.6361  2.8093
17975SOL    HW258864   7.287   0.656   9.015 -2.9294  0.7447 -0.6108
17976SOL     OW58865   4.259   3.394   4.867  0.4371 -0.5256  0.2853
17976SOL    HW158866   4.268   3.320   4.807  1.0313 -1.3290  1.3300
17976SOL    HW258867   4.261   3.354   4.954  0.1341  0.6669  0.8539
17977SOL     OW58868  10.726   8.172   8.883 -1.0553 -0.1021  0.2172
17977SOL    HW158869  10.757   8.205   8.968 -1.3208 -0.6027  0.5127
17977SOL    HW258870  10.785   8.212   8.819 -1.9781  1.7602  0.4646
17978SOL     OW58871  11.268  10.911   6.808  0.1580  0.9691 -0.6379
17978SOL    HW158872  11.351  10.866   6.822 -0.6350 -0.8567 -1.4369
17978SOL    HW258873  11.273  10.989   6.863  1.2939 -0.4840  1.4429
17979SOL     OW58874   5.339  11.345   2.672  0.0299 -0.2804 -0.5146
17979SOL    HW158875   5.304  11.256   2.675  0.8356 -0.5869  0.1329
17979SOL    HW258876   5.307  11.380   2.589 -0.7006 -1.0033 -0.5531
17980SOL     OW58877  11.662   8.285   3.152  0.1602  0.4285 -0.1705
17980SOL    HW158878  11.626   8.281   3.064 -0.0006  0.6502 -0.1148
17980SOL    HW258879  11.657   8.195   3.184  0.0469  0.3815 -0.3206
17981SOL     OW58880  10.825   4.817   4.436  0.2255 -0.4150  0.1110
17981SOL    HW158881  10.833   4.745   4.372 -0.2873  1.3611 -2.0735
17981SOL    HW258882  10.738   4.852   4.421 -0.2072 -0.4145  2.3929
17982SOL     OW58883   2.875   0.667   3.999 -0.3812 -0.1456  0.1260
17982SOL    HW158884   2.903   0.582   4.033 -0.1145 -0.4410 -0.8142
17982SOL    HW258885   2.956   0.718   3.993 -0.5716  0.2763  0.9225
17983SOL     OW58886   8.346   7.720   0.183 -0.7840 -0.4861 -0.2486
17983SOL    HW158887   8.309   7.646   0.135 -1.5753  0.0952 -0.5586
17983SOL    HW258888   8.270   7.771   0.210 -0.2810 -0.1385  0.5478
17984SOL     OW58889   5.278   4.876   5.209  0.6382  0.0736 -1.1425
17984SOL    HW158890   5.317   4.841   5.289 -0.7070 -2.4057 -1.4621
17984SOL    HW258891   5.294   4.808   5.143 -0.1611  1.0857 -2.4276
17985SOL     OW58892   4.193   3.855   7.149 -0.6991 -0.3196  0.5163
17985SOL    HW158893   4.102   3.836   7.128 -0.5731  0.5857 -1.0438
17985SOL    HW258894   4.190   3.940   7.195 -0.5553  0.6089 -1.1033
17986SOL     OW58895   7.184   4.196   7.150 -0.2027  0.8512 -0.2745
17986SOL    HW158896   7.111   4.138   7.126 -0.7719  1.4112  0.0490
17986SOL    HW258897   7.232   4.209   7.068  0.6634 -1.0327 -0.1225
17987SOL     OW58898   1.671   7.365   7.942  0.6513 -0.3573 -0.4459
17987SOL    HW158899   1.703   7.427   7.877  0.1602  1.2082  0.7405
17987SOL    HW258900   1.749   7.334   7.987  0.9336 -0.9112 -1.3177
17988SOL     OW58901   6.120   4.776   1.281  0.1453  0.0103 -0.2735
17988SOL    HW158902   6.104   4.792   1.188  1.0219 -0.2912 -0.4855
17988SOL    HW258903   6.215   4.776   1.289  0.1079 -1.1038  0.4228
17989SOL     OW58904   7.122   4.538  11.601  0.0395  0.6092  0.3332
17989SOL    HW158905   7.047   4.484  11.578 -0.3172  0.6313  1.3887
17989SOL    HW258906   7.190   4.475  11.625  0.0027  0.6124  0.4442
17990SOL     OW58907   6.007   3.909   7.391 -0.2391  0.0348 -0.4618
17990SOL    HW158908   6.046   3.918   7.478 -1.2251  0.2184 -0.0236
17990SOL    HW258909   6.067   3.851   7.343 -0.5936 -1.5524  0.9194
17991SOL     OW58910   5.940  10.915   7.135 -0.0648  0.0161  0.2211
17991SOL    HW158911   6.030  10.881   7.137 -0.3730 -0.8700 -0.1697
17991SOL    HW258912   5.948  11.007   7.158  1.1415  0.3566 -1.4195
17992SOL     OW58913   3.112   4.354  10.200  0.4255  0.5467  0.1867
17992SOL    HW158914   3.057   4.277  10.212  1.5384 -0.0547  1.7926
17992SOL    HW258915   3.190   4.321  10.155  0.0314  1.1609 -0.9929
17993SOL     OW58916   4.648   0.220  10.922  0.0685 -0.2479 -0.2497
17993SOL    HW158917   4.701   0.144  10.898 -0.7316 -0.5709 -1.0424
17993SOL    HW258918   4.564   0.205  10.879 -1.0682 -0.2786  1.8527
17994SOL     OW58919   2.308  10.150  10.173 -0.2008 -0.3237 -0.4401
17994SOL    HW158920   2.248  10.223  10.192 -1.2682 -0.8675 -1.5866
17994SOL    HW258921   2.306  10.097  10.253  0.4744  0.8050  0.3501
17995SOL     OW58922   7.003   7.665   8.279 -0.8890  0.3054  0.5282
17995SOL    HW158923   6.909   7.649   8.272 -0.8685  0.2491  0.3643
17995SOL    HW258924   7.032   7.610   8.352 -0.8262 -0.3801 -0.0062
17996SOL     OW58925  10.838  11.241   0.368 -0.3620 -0.2389  0.4341
17996SOL    HW158926  10.926  11.245   0.405 -0.0958  1.8992 -0.2942
17996SOL    HW258927  10.783  11.287   0.432 -0.3121  1.3932 -0.6376
17997SOL     OW58928   3.015   1.778   8.763 -0.5429  0.4162 -0.1727
17997SOL    HW158929   2.956   1.707   8.740 -1.8898  1.2690  0.4295
17997SOL    HW258930   3.022   1.831   8.684  0.8486 -0.6284 -0.7605
17998SOL     OW58931   9.655   5.662   5.342  0.3633 -0.1469  0.0891
17998SOL    HW158932   9.601   5.583   5.339  0.0855 -0.0160  1.2365
17998SOL    HW258933   9.722   5.648   5.276 -0.1133 -1.0226 -0.2269
17999SOL     OW58934  10.181  10.310   5.522  0.2565  0.3687 -0.5784
17999SOL    HW158935  10.150  10.226   5.556  0.5249  0.0939 -1.0109
17999SOL    HW258936  10.111  10.339   5.464  1.0141 -0.5072 -1.9711
18000SOL     OW58937   9.112   9.809   9.521 -0.3266  0.1524  0.0895
18000SOL    HW158938   9.059   9.794   9.600 -0.4604  0.8285  0.1310
18000SOL    HW258939   9.183   9.866   9.550 -0.6921  0.8713 -0.3968
18001SOL     OW58940   4.521   2.689  10.148 -0.2503 -0.4135 -0.1290
18001SOL    HW158941   4.452   2.719  10.207  0.3888  0.1585  0.3447
18001SOL    HW258942   4.564   2.618  10.195 -2.1115 -2.5756 -1.4719
18002SOL     OW58943   9.792   6.160   2.875  0.0767 -0.3243  0.1563
18002SOL    HW158944   9.732   6.186   2.945 -1.5608  0.5161 -1.4655
18002SOL    HW258945   9.795   6.236   2.817 -1.0204 -1.9546 -2.2178
18003SOL     OW58946   6.310   2.543   4.792  0.2688 -0.3822  0.4791
18003SOL    HW158947   6.371   2.504   4.729  0.4122  0.0890  0.3191
18003SOL    HW258948   6.224   2.508   4.768  0.2290  0.2478 -0.3643
18004SOL     OW58949  11.344   9.134   9.185 -0.3669 -0.1075 -0.3873
18004SOL    HW158950  11.404   9.090   9.246  2.3546  4.2347  0.5440
18004SOL    HW258951  11.261   9.139   9.232  0.8650  0.5903  1.8863
18005SOL     OW58952   7.046  11.159   7.565  0.1320  0.0089 -0.0423
18005SOL    HW158953   7.007  11.076   7.536  2.2259 -0.7180 -0.9767
18005SOL    HW258954   7.056  11.149   7.660  0.7363 -1.0123 -0.1931
18006SOL     OW58955  10.509  10.912   9.811 -0.0178  0.4055 -0.4094
18006SOL    HW158956  10.543  10.845   9.752  1.1039  0.9192 -0.3824
18006SOL    HW258957  10.418  10.889   9.825  0.7896 -2.2109  1.0918
18007SOL     OW58958   3.689  11.550   6.503  0.0058 -0.4750  0.1437
18007SOL    HW158959   3.722  11.460   6.494 -1.5494 -0.9754 -1.2212
18007SOL    HW258960   3.599  11.545   6.472 -0.5890  1.2904  1.4627
18008SOL     OW58961   7.622   0.933   4.099  0.2383 -0.4716  0.2403
18008SOL    HW158962   7.570   0.876   4.043 -0.2919  0.6631 -0.4589
18008SOL    HW258963   7.697   0.959   4.044  0.2807 -0.2042  0.4186
18009SOL     OW58964   6.497   8.409   0.151 -0.3358  0.4192 -0.3792
18009SOL    HW158965   6.541   8.335   0.192 -1.2835  0.6203  1.0561
18009SOL    HW258966   6.526   8.485   0.201  0.4949  1.0331 -1.7306
18010SOL     OW58967   3.547   1.140   8.733  0.2428  0.0974  0.6425
18010SOL    HW158968   3.640   1.156   8.718 -0.2014  0.8608 -1.7863
18010SOL    HW258969   3.505   1.163   8.650 -1.8440 -2.5263  0.8145
18011SOL     OW58970   2.969   3.913   5.061 -0.0911  0.3566 -0.0809
18011SOL    HW158971   2.933   3.997   5.089 -1.9851 -0.9456  1.6422
18011SOL    HW258972   2.935   3.901   4.972  0.2154  1.3962 -0.3529
18012SOL     OW58973   6.048   7.637   7.891 -0.1673 -0.5974 -0.4113
18012SOL    HW158974   6.144   7.631   7.891 -0.1823 -0.8579 -0.4697
18012SOL    HW258975   6.025   7.660   7.981 -0.0294 -0.2134 -0.4751
18013SOL     OW58976  10.118   7.906   3.494  0.1020 -0.0972  0.0210
18013SOL    HW158977  10.140   7.962   3.420 -1.0697  0.7344  0.2677
18013SOL    HW258978  10.122   7.965   3.570 -1.4452 -0.2569  0.2495
18014SOL     OW58979   0.545   0.169   5.519  0.3211 -0.2059  0.2666
18014SOL    HW158980   0.526   0.097   5.578  0.3008  0.6882  1.3822
18014SOL    HW258981   0.609   0.134   5.457  1.9841 -0.5887  2.1087
18015SOL     OW58982  10.567   1.940   3.312 -0.1927  0.7506  0.4337
18015SOL    HW158983  10.522   2.000   3.253  0.9929  0.4684 -0.8179
18015SOL    HW258984  10.656   1.976   3.319  0.8600 -1.3565 -1.1754
18016SOL     OW58985   0.434   7.761   3.379  0.4633 -0.1649  0.3717
18016SOL    HW158986   0.441   7.680   3.429  0.7846 -0.2340  0.2194
18016SOL    HW258987   0.516   7.807   3.396  0.0658  0.3711  0.8662
18017SOL     OW58988   6.514   4.902   7.835 -0.5983  0.0494  0.0742
18017SOL    HW158989   6.582   4.837   7.817  0.5433  1.0496  0.6594
18017SOL    HW258990   6.522   4.922   7.928 -0.3832  1.5982 -0.2438
18018SOL     OW58991   4.195   0.954   7.004  0.0808 -0.2533  0.4616
18018SOL    HW158992   4.212   1.022   6.939  1.5420  2.1259  3.1204
18018SOL    HW258993   4.252   0.881   6.979  1.4498  1.0393 -0.2785
18019SOL     OW58994   0.756   8.866   0.547  0.1745 -0.0050 -0.3800
18019SOL    HW158995   0.709   8.805   0.489 -2.5225  0.3878  1.2072
18019SOL    HW258996   0.834   8.817   0.574  0.5502 -0.8949 -2.7946
18020SOL     OW58997  11.277   8.312   8.702  0.2720  0.6009  0.5637
18020SOL    HW158998  11.260   8.328   8.609  1.6470  2.6834  0.6127
18020SOL    HW258999  11.322   8.227   8.704  0.0964  0.4611 -0.6484
18021SOL     OW59000   1.975  10.318  10.529  0.4941  0.4908  0.2126
18021SOL    HW159001   1.969  10.397  10.584  0.5663  0.6286  0.0249
18021SOL    HW259002   2.027  10.256  10.581  0.7032  0.6798  0.2340
18022SOL     OW59003   0.044   9.319   0.128 -0.6710 -0.1581  0.6099
18022SOL    HW159004   0.007   9.236   0.099  0.2128 -0.4506  0.3042
18022SOL    HW259005   0.056   9.308   0.222  0.8035 -0.9380  0.3604
18023SOL     OW59006   8.409   6.236   6.225  0.1877  0.1861  0.0707
18023SOL    HW159007   8.371   6.239   6.137  0.0308 -1.6817  0.0327
18023SOL    HW259008   8.454   6.320   6.235  1.2093 -0.0235 -2.2496
18024SOL     OW59009   1.735   5.592   6.814 -0.1301 -0.1773  0.2262
18024SOL    HW159010   1.683   5.545   6.880 -0.0187  0.6202  0.8971
18024SOL    HW259011   1.677   5.660   6.781  0.3947  0.5612  0.8015
18025SOL     OW59012   9.745   6.789   7.763  0.3570  0.1199 -0.5274
18025SOL    HW159013   9.662   6.802   7.809  0.4353  1.3460 -0.6992
18025SOL    HW259014   9.721   6.788   7.670  0.2962 -1.5916 -0.5322
18026SOL     OW59015   9.347  11.204   0.353 -0.2415  0.1795 -0.0271
18026SOL    HW159016   9.335  11.271   0.421  1.5692  1.7558 -1.1593
18026SOL    HW259017   9.441  11.183   0.358 -0.7737 -2.3290  0.2924
18027SOL     OW59018   2.644   3.004   2.610  0.0709  0.2177 -0.1191
18027SOL    HW159019   2.679   3.085   2.649 -0.0903  0.4193 -0.3835
18027SOL    HW259020   2.582   2.972   2.675 -1.0061  1.1357 -0.6564
18028SOL     OW59021   0.190   7.837   4.508  0.0985 -0.8701 -0.0320
18028SOL    HW159022   0.186   7.862   4.416 -3.0290  0.7829  0.4010
18028SOL    HW259023   0.122   7.770   4.518 -2.9234  2.1496  1.7353
18029SOL     OW59024   8.535   9.210   6.235  0.0685 -0.4323  0.9534
18029SOL    HW159025   8.545   9.135   6.294 -0.9457 -1.2747  0.0897
18029SOL    HW259026   8.563   9.177   6.149 -0.5380  0.1265  0.5299
18030SOL     OW59027   7.260   2.456   1.127 -0.7109  0.0730  0.1946
18030SOL    HW159028   7.224   2.515   1.061 -0.6182  0.3192  0.3616
18030SOL    HW259029   7.353   2.450   1.106 -0.5390  0.7204  0.7210
18031SOL     OW59030   6.376   8.152   2.104  0.1554 -0.6134  0.1549
18031SOL    HW159031   6.341   8.071   2.066 -0.0041 -0.8174  0.7206
18031SOL    HW259032   6.326   8.222   2.063  0.4799 -0.7770 -0.5440
18032SOL     OW59033   2.499   1.559   2.250  0.2457 -0.0665 -0.3524
18032SOL    HW159034   2.475   1.553   2.158 -1.3492  0.3163  0.0074
18032SOL    HW259035   2.537   1.646   2.260 -1.0381  0.5090 -0.3555
18033SOL     OW59036   0.876   6.624   6.474  0.5186 -0.1973 -0.5107
18033SOL    HW159037   0.800   6.567   6.486  0.6071 -0.2491 -0.1756
18033SOL    HW259038   0.843   6.697   6.422 -0.1775  0.5644  0.9219
18034SOL     OW59039   9.003   9.711   9.749  0.3095 -0.0966  0.1093
18034SOL    HW159040   9.077   9.662   9.784  1.4192  1.4769  0.0792
18034SOL    HW259041   8.954   9.739   9.827  0.7658  0.3855  0.2264
18035SOL     OW59042   7.828   5.095   1.928  0.6430 -0.0672  0.4258
18035SOL    HW159043   7.735   5.117   1.928  0.4341 -0.8557 -0.7936
18035SOL    HW259044   7.840   5.041   1.850  2.2758  0.6269  0.1563
18036SOL     OW59045   3.095   0.396   0.786  0.2578 -0.0953  1.0720
18036SOL    HW159046   3.085   0.302   0.801  0.4825 -0.6693 -1.8573
18036SOL    HW259047   3.034   0.416   0.716 -0.0493  2.0548  1.8836
18037SOL     OW59048   9.628   2.402   8.044  0.0124 -0.0747 -0.1418
18037SOL    HW159049   9.611   2.356   7.962  0.5535 -0.3471 -0.1058
18037SOL    HW259050   9.681   2.341   8.096 -1.7405 -0.6009  1.1255
18038SOL     OW59051   0.994   7.285  11.388 -0.0295  0.0388 -0.0629
18038SOL    HW159052   0.986   7.366  11.438 -0.5411  0.9349 -1.5270
18038SOL    HW259053   0.906   7.269  11.354  0.5009  0.1000 -1.5774
18039SOL     OW59054  11.373   9.386   3.678 -0.1330  0.2977  0.3143
18039SOL    HW159055  11.464   9.396   3.704  0.6258 -0.0214 -1.9550
18039SOL    HW259056  11.350   9.297   3.705  0.6377 -0.0520 -0.1449
18040SOL     OW59057   0.434   5.931   0.610 -0.1800 -0.2684  0.0050
18040SOL    HW159058   0.525   5.951   0.633 -0.8114  1.5196  1.1231
18040SOL    HW259059   0.410   5.997   0.546 -0.6952 -0.7613 -0.3262
18041SOL     OW59060  11.495  10.756   5.151  0.4176 -0.5294 -0.3173
18041SOL    HW159061  11.442  10.678   5.134 -0.9278  0.2542  0.1620
18041SOL    HW259062  11.440  10.812   5.205  2.3614 -0.4068  1.6836
18042SOL     OW59063  11.386  11.231   0.772  0.3114 -0.0321  0.2645
18042SOL    HW159064  11.376  11.274   0.858  1.7797  1.6713 -0.3523
18042SOL    HW259065  11.403  11.140   0.793  3.3718  0.7714  2.0311
18043SOL     OW59066   5.062   6.107   5.224  0.1106  0.0016  0.3876
18043SOL    HW159067   5.134   6.156   5.184 -0.4645  0.2802 -0.3368
18043SOL    HW259068   5.003   6.088   5.151 -1.4128  1.2767  1.2104
18044SOL     OW59069   4.032   1.275   6.392 -0.3586  0.2103 -0.3453
18044SOL    HW159070   3.976   1.307   6.322  0.9916  0.3610 -1.4035
18044SOL    HW259071   4.114   1.324   6.382  0.1959 -0.4461  0.7427
18045SOL     OW59072   6.935   4.839   8.101  0.6654 -0.4127  0.1255
18045SOL    HW159073   6.874   4.880   8.161  0.2692 -0.2334 -0.3949
18045SOL    HW259074   7.008   4.901   8.095 -0.1759  0.5130 -1.0845
18046SOL     OW59075  10.428   3.366   1.709  0.1329 -0.0730  0.0746
18046SOL    HW159076  10.492   3.300   1.681 -0.6788 -0.1498 -1.7719
18046SOL    HW259077  10.479   3.429   1.760  1.2272 -1.3032  0.5495
18047SOL     OW59078   1.128   1.849   3.913 -0.3761 -0.1359 -0.7608
18047SOL    HW159079   1.182   1.788   3.862 -0.5134 -0.9417  0.0232
18047SOL    HW259080   1.176   1.858   3.996 -1.0295 -0.2222 -0.3689
18048SOL     OW59081  11.683   7.035  11.205 -0.3098 -0.3951  0.5527
18048SOL    HW159082  11.603   7.013  11.254 -0.7209 -0.2222 -0.0222
18048SOL    HW259083  11.656   7.029  11.113  0.4647 -0.7838  0.3435
18049SOL     OW59084   7.134  10.029   2.456  0.2083 -0.3348  0.4628
18049SOL    HW159085   7.118  10.114   2.497 -1.4756 -0.4985  0.1957
18049SOL    HW259086   7.220  10.040   2.414 -0.8959  2.0254 -1.4639
18050SOL     OW59087   0.064   1.859   0.699 -0.4102  0.3269 -0.0069
18050SOL    HW159088  -0.017   1.909   0.686 -1.6771 -1.2170  1.4862
18050SOL    HW259089   0.072   1.807   0.619 -1.8206 -0.6954  0.4759
18051SOL     OW59090   3.615  11.153   7.435  0.0777 -0.3556  0.2536
18051SOL    HW159091   3.604  11.157   7.340  0.5007 -0.1817  0.2091
18051SOL    HW259092   3.591  11.241   7.465  0.6884 -0.1670  0.2206
18052SOL     OW59093   0.869   8.478   1.575  0.0645  0.1871 -0.2185
18052SOL    HW159094   0.834   8.551   1.626 -2.5169 -0.3457 -1.1291
18052SOL    HW259095   0.794   8.424   1.553  1.3357 -0.7356 -2.8246
18053SOL     OW59096   1.406   7.773   4.401 -0.3672  0.4369  0.2378
18053SOL    HW159097   1.403   7.760   4.306 -2.2385  1.6145  0.0800
18053SOL    HW259098   1.493   7.809   4.418  0.7118 -1.5215 -0.7339
18054SOL     OW59099   7.690   7.632   2.124  0.3505 -0.2735 -0.1580
18054SOL    HW159100   7.770   7.645   2.175 -0.3472  0.6962  0.7218
18054SOL    HW259101   7.620   7.629   2.189 -0.5715  1.1389 -1.0456
18055SOL     OW59102  11.186   1.996   0.736  0.1915 -0.4434  0.2652
18055SOL    HW159103  11.238   2.014   0.657  1.3680 -1.4399  0.7731
18055SOL    HW259104  11.095   1.998   0.706  0.5349  0.7564 -0.7848
18056SOL     OW59105   7.309   5.450  10.868  0.0751 -0.0975  0.7912
18056SOL    HW159106   7.366   5.476  10.941  0.6996  0.9266 -0.0241
18056SOL    HW259107   7.358   5.476  10.790 -0.6199 -1.0896 -0.0004
18057SOL     OW59108   9.195   6.717   6.253 -0.7326  0.6819 -0.3951
18057SOL    HW159109   9.143   6.775   6.308 -0.8224  1.9927 -1.7911
18057SOL    HW259110   9.134   6.686   6.186 -0.3140  0.1983 -0.5613
18058SOL     OW59111   8.023   1.955   7.742  0.5118 -0.2041 -0.0029
18058SOL    HW159112   8.008   2.050   7.739  0.9500 -0.1136  0.6235
18058SOL    HW259113   8.111   1.944   7.707  0.0069 -0.5026 -1.2304
18059SOL     OW59114   9.226   2.797   6.770  0.1662  0.2700  0.6339
18059SOL    HW159115   9.266   2.715   6.742  0.5551  1.0375 -1.2009
18059SOL    HW259116   9.166   2.820   6.699  0.6797  1.9878  0.7012
18060SOL     OW59117   9.939  11.399   1.946  0.1251  0.0577 -0.1367
18060SOL    HW159118   9.917  11.333   1.880 -1.3169  0.7478 -0.3958
18060SOL    HW259119   9.859  11.452   1.953  0.5845  0.5816  1.4658
18061SOL     OW59120   4.274   7.335   9.430  0.1271  0.8514 -0.2217
18061SOL    HW159121   4.259   7.248   9.392  1.3028  0.2877  0.5260
18061SOL    HW259122   4.189   7.361   9.464 -0.2933  0.0947 -0.6503
18062SOL     OW59123   2.806   8.219   1.818  0.0426  0.0317 -0.2596
18062SOL    HW159124   2.894   8.203   1.783  0.1189  0.4344 -0.2678
18062SOL    HW259125   2.747   8.196   1.746  0.1911  0.6973 -0.6062
18063SOL     OW59126   5.404   5.453   1.139 -0.5165 -0.5066 -0.3671
18063SOL    HW159127   5.486   5.443   1.187  0.5179 -0.8083 -2.1134
18063SOL    HW259128   5.397   5.546   1.122  0.2435 -0.6249 -1.4514
18064SOL     OW59129  11.083   8.260   4.393 -0.4924 -0.2849 -0.9516
18064SOL    HW159130  11.042   8.175   4.377 -0.1006 -0.3410 -1.6781
18064SOL    HW259131  11.090   8.300   4.307  0.8215 -0.2087 -0.8201
18065SOL     OW59132   5.305   4.547   7.231  0.8197  0.4214 -0.4566
18065SOL    HW159133   5.285   4.639   7.213 -2.7895 -0.4044 -1.4919
18065SOL    HW259134   5.307   4.542   7.327 -0.1978  1.3756 -0.3680
18066SOL     OW59135   2.527   7.835   5.962 -0.0889  0.6229  0.8127
18066SOL    HW159136   2.623   7.836   5.955 -0.1196 -0.2631  0.1295
18066SOL    HW259137   2.496   7.874   5.880 -0.3185 -0.3968  0.3979
18067SOL     OW59138   1.213   7.680   8.381  1.1056 -0.0505  0.4122
18067SOL    HW159139   1.125   7.706   8.407 -0.2062 -1.6969 -2.0313
18067SOL    HW259140   1.258   7.763   8.364  0.3152  0.8413  2.3633
18068SOL     OW59141   5.423   9.687  10.197  0.6418 -0.7370 -0.0341
18068SOL    HW159142   5.410   9.633  10.118 -1.8082  0.1548 -0.3310
18068SOL    HW259143   5.457   9.626  10.262  1.8479 -1.7011 -1.4899
18069SOL     OW59144   4.291   6.864   7.606  0.2143  0.0443  0.2887
18069SOL    HW159145   4.337   6.947   7.592  1.0324  0.0750  2.6123
18069SOL    HW259146   4.352   6.811   7.658 -1.4769 -0.7850  1.5578
18070SOL     OW59147   5.078   1.034   4.109  0.2316 -0.1776 -0.4965
18070SOL    HW159148   4.983   1.046   4.114  0.0401 -1.6979  0.0245
18070SOL    HW259149   5.111   1.116   4.073 -0.9920  1.4361  1.8561
18071SOL     OW59150   0.603   8.683   6.955 -0.3912 -0.5380  0.7162
18071SOL    HW159151   0.588   8.634   6.873 -2.1629 -0.7909  1.1497
18071SOL    HW259152   0.684   8.731   6.939 -0.9787 -0.1380 -1.4190
18072SOL     OW59153   8.475   5.868   5.870  0.0732 -0.5220 -0.2177
18072SOL    HW159154   8.527   5.795   5.905  0.0134 -0.2564  0.4310
18072SOL    HW259155   8.386   5.851   5.901  0.0131 -0.2973 -0.2656
18073SOL     OW59156   3.221   4.637   7.598 -0.3230 -0.0930  0.6532
18073SOL    HW159157   3.311   4.624   7.569 -0.8624  0.8387 -1.6714
18073SOL    HW259158   3.198   4.724   7.565 -1.3788  0.6675  3.1907
18074SOL     OW59159   0.869  10.191   4.733  0.2793 -0.0434 -0.3316
18074SOL    HW159160   0.943  10.160   4.679 -0.1108 -1.1836 -0.2418
18074SOL    HW259161   0.910  10.223   4.813  0.6319 -1.7773  0.2210
18075SOL     OW59162   3.585   3.746  11.534  0.3406  0.0687 -0.3597
18075SOL    HW159163   3.575   3.674  11.596  0.6869  2.1441  2.3167
18075SOL    HW259164   3.496   3.771  11.512  0.2083 -0.6031 -0.6035
18076SOL     OW59165   7.153  10.334   6.823 -0.7213 -0.0778  0.1402
18076SOL    HW159166   7.227  10.277   6.803 -0.1514  0.2051  1.3948
18076SOL    HW259167   7.192  10.418   6.846 -1.4915  0.4197 -0.3140
18077SOL     OW59168   6.227   4.437   8.180  0.1575 -0.0806 -0.5961
18077SOL    HW159169   6.202   4.465   8.092  0.3878  3.1439  0.2389
18077SOL    HW259170   6.268   4.514   8.219  0.4162 -1.5171  2.2443
18078SOL     OW59171   9.943   5.135   7.241  0.1712  0.1694  0.1403
18078SOL    HW159172  10.007   5.144   7.312  0.5410 -1.7538  0.1133
18078SOL    HW259173   9.862   5.107   7.284 -0.1662  0.8982 -0.0066
18079SOL     OW59174   3.613  10.203   9.273  0.0460  0.3112  0.8631
18079SOL    HW159175   3.611  10.124   9.219 -1.7420  1.6171 -1.1382
18079SOL    HW259176   3.572  10.270   9.219  0.2884  2.3159  3.0079
18080SOL     OW59177   4.198   0.112   1.075  0.1466  0.1404  0.2965
18080SOL    HW159178   4.132   0.097   1.143 -0.0610 -1.2018 -0.1838
18080SOL    HW259179   4.211   0.027   1.034 -0.8382  1.1582 -2.3671
18081SOL     OW59180   7.724   0.816   1.701  0.2749  0.1183  0.1267
18081SOL    HW159181   7.736   0.866   1.781  2.1531  1.2051 -0.7801
18081SOL    HW259182   7.694   0.730   1.731 -0.4971  0.9481  1.8738
18082SOL     OW59183   9.456   2.866  10.746  0.4799 -0.2920 -0.3514
18082SOL    HW159184   9.478   2.918  10.823  2.9702 -1.8063  0.0709
18082SOL    HW259185   9.529   2.880  10.685 -0.1169 -1.1868 -1.3135
18083SOL     OW59186   9.220   6.930  11.244 -0.4601  0.0591 -0.1652
18083SOL    HW159187   9.239   6.836  11.242 -0.4038  0.0829 -1.2050
18083SOL    HW259188   9.266   6.962  11.321  0.8277 -0.5018 -0.6703
18084SOL     OW59189  10.658  11.258  11.250 -0.5002 -0.0592 -0.5492
18084SOL    HW159190  10.633  11.180  11.301  2.2280 -0.1957  0.7816
18084SOL    HW259191  10.585  11.318  11.261 -2.4743 -2.1945 -1.1800
18085SOL     OW59192   5.964   5.533  10.016  0.1860  0.7469  0.2596
18085SOL    HW159193   6.023   5.459  10.030  1.6016  1.9985  1.2600
18085SOL    HW259194   5.878   5.500  10.042  0.3588 -1.1669 -1.3412
18086SOL     OW59195   9.129  11.552   5.079  0.7593  0.0655 -0.3901
18086SOL    HW159196   9.172  11.472   5.109  1.3495  0.0192 -1.3406
18086SOL    HW259197   9.036  11.529   5.072  1.1329 -1.0572 -2.2723
18087SOL     OW59198   3.155   9.986  11.344  0.0469  0.1461  0.0970
18087SOL    HW159199   3.092  10.048  11.308 -0.1910  0.6792  1.3799
18087SOL    HW259200   3.189  10.029  11.422  1.8112 -0.2383 -0.4048
18088SOL     OW59201   6.009   3.843  10.668  0.1487  0.1962 -0.1282
18088SOL    HW159202   6.088   3.897  10.670  0.5419 -0.2274 -1.8639
18088SOL    HW259203   6.039   3.760  10.630  0.0022 -2.1013  4.1118
18089SOL     OW59204   9.771   4.751   4.034 -0.1645  0.7289  0.7419
18089SOL    HW159205   9.827   4.783   4.105  0.9461  3.0199 -1.0365
18089SOL    HW259206   9.741   4.830   3.989 -1.4212 -0.6137 -0.9106
18090SOL     OW59207   6.118   1.100   1.580 -0.2860 -0.3066  0.0647
18090SOL    HW159208   6.056   1.061   1.642 -0.3158  0.1324  0.3174
18090SOL    HW259209   6.115   1.042   1.504  0.4425 -1.3640  0.8249
18091SOL     OW59210   2.447   4.316   6.667 -0.0052  0.4621  0.3199
18091SOL    HW159211   2.422   4.301   6.576 -0.5638  0.6241  0.4352
18091SOL    HW259212   2.434   4.411   6.679 -1.9353  0.1552  1.1177
18092SOL     OW59213  10.140   4.396   4.321 -0.1255 -0.6783 -0.0137
18092SOL    HW159214  10.139   4.426   4.230  0.7937  3.3934  1.1238
18092SOL    HW259215  10.217   4.338   4.326  1.0051  0.6058 -1.4482
18093SOL     OW59216   5.093   0.780   4.339  0.3228 -0.0471 -0.1253
18093SOL    HW159217   5.008   0.825   4.345  0.3821  0.1851 -0.9159
18093SOL    HW259218   5.130   0.810   4.256  2.0355  1.3156  1.0771
18094SOL     OW59219   0.430   1.935   0.434  0.2007 -0.0390 -0.7172
18094SOL    HW159220   0.398   1.880   0.363  1.1797  0.8790 -1.9232
18094SOL    HW259221   0.494   1.994   0.392  2.8254 -1.1972  1.3301
18095SOL     OW59222   9.001   5.838   0.165 -0.2558 -0.3895  0.0341
18095SOL    HW159223   9.011   5.850   0.260 -3.0955  0.5871  0.2786
18095SOL    HW259224   9.087   5.860   0.130 -0.3717  4.2976  1.9950
18096SOL     OW59225  11.111   4.432   6.145 -0.2831  0.1134 -0.2121
18096SOL    HW159226  11.191   4.380   6.146  0.5591  1.3524 -0.8911
18096SOL    HW259227  11.042   4.370   6.124  0.0931 -1.4641  2.6596
18097SOL     OW59228   0.855  11.107   6.546  0.1761  0.8577  0.5904
18097SOL    HW159229   0.939  11.062   6.536 -0.3025 -0.4477  2.0753
18097SOL    HW259230   0.876  11.200   6.535  1.5667  0.4490 -0.4147
18098SOL     OW59231   3.551   1.373   4.245 -0.2690  0.0203 -0.1132
18098SOL    HW159232   3.599   1.398   4.324 -0.9447 -1.5335  0.8296
18098SOL    HW259233   3.555   1.277   4.244 -2.6392 -0.1287 -0.4203
18099SOL     OW59234   8.593   1.103   0.950  0.3376  0.1765  0.1778
18099SOL    HW159235   8.627   1.048   0.879 -0.8559 -0.4171  0.0386
18099SOL    HW259236   8.646   1.078   1.027  0.7298 -0.1656 -0.1980
18100SOL     OW59237   7.334   4.537   0.969  0.4203 -0.0796 -0.2259
18100SOL    HW159238   7.429   4.541   0.961  0.5202 -1.3882  0.0513
18100SOL    HW259239   7.303   4.617   0.927  1.5449 -0.4587 -1.8882
18101SOL     OW59240   1.307   4.388  11.389  0.0467 -0.1906  0.4324
18101SOL    HW159241   1.235   4.392  11.326  0.5494  1.6530 -0.0944
18101SOL    HW259242   1.267   4.411  11.473 -0.1568 -0.1629  0.3287
18102SOL     OW59243   4.576   3.623   8.772 -0.0956  0.3810 -0.2860
18102SOL    HW159244   4.527   3.667   8.703 -0.6880 -0.3874 -0.3716
18102SOL    HW259245   4.579   3.531   8.744  1.4785  0.4118 -0.3330
18103SOL     OW59246   1.926   6.079   3.860  0.3354 -0.1068  0.1823
18103SOL    HW159247   1.954   5.997   3.901 -0.0962 -0.9278 -1.0746
18103SOL    HW259248   1.831   6.082   3.877  0.3080 -0.0052  0.0094
18104SOL     OW59249   8.412   8.461  11.063 -0.2004 -0.6513  0.1267
18104SOL    HW159250   8.431   8.554  11.058 -0.5926 -0.4370  1.8847
18104SOL    HW259251   8.363   8.442  10.983  0.1386  0.5600 -0.4003
18105SOL     OW59252   0.241   9.161   0.598  0.0668 -0.4408 -0.1696
18105SOL    HW159253   0.253   9.066   0.610  1.4625 -0.2578  0.1606
18105SOL    HW259254   0.326   9.198   0.623 -1.1796  1.1095  2.0861
18106SOL     OW59255  10.914   4.767   0.383 -0.0059 -0.0604 -0.1264
18106SOL    HW159256  10.883   4.845   0.429 -1.0521  0.6333 -1.9309
18106SOL    HW259257  11.010   4.771   0.392 -0.0497  1.3459 -0.0792
18107SOL     OW59258   5.088  10.347   8.765  0.0752 -0.5253 -0.1238
18107SOL    HW159259   5.124  10.264   8.734  0.3452 -0.8271  0.9489
18107SOL    HW259260   5.158  10.384   8.819 -0.7311 -0.4992  0.9367
18108SOL     OW59261   4.696   9.899   9.740 -0.4344  0.1443 -0.2997
18108SOL    HW159262   4.728   9.848   9.814  0.2384 -0.1307 -0.7666
18108SOL    HW259263   4.750   9.870   9.666  0.0335  1.6083 -0.5593
18109SOL     OW59264   0.614   7.139   6.322 -0.5653  0.1162  0.0989
18109SOL    HW159265   0.690   7.136   6.380 -0.3983  0.2784 -0.1080
18109SOL    HW259266   0.650   7.167   6.237 -0.8969  0.4334  0.0617
18110SOL     OW59267   9.701   4.848   2.772  0.0974 -0.0737  0.4167
18110SOL    HW159268   9.721   4.824   2.682 -0.6912 -1.0327  0.4833
18110SOL    HW259269   9.610   4.877   2.769 -0.4017 -1.4947  1.1435
18111SOL     OW59270   2.625   3.287   1.150  1.2490  0.1819 -0.5911
18111SOL    HW159271   2.549   3.239   1.116  0.0898  0.6012  1.2906
18111SOL    HW259272   2.655   3.339   1.075 -0.7277  0.5138 -1.2148
18112SOL     OW59273   5.191   6.755   2.788  0.5777 -0.1599  0.2589
18112SOL    HW159274   5.215   6.673   2.830  1.6937  0.3807  0.7108
18112SOL    HW259275   5.144   6.804   2.856 -1.4572 -1.0003 -0.4622
18113SOL     OW59276   8.015   1.703  10.654  0.2300 -0.1260  0.0300
18113SOL    HW159277   7.944   1.671  10.598  1.7755 -0.8463 -1.5824
18113SOL    HW259278   8.026   1.635  10.720 -1.9065  0.9337  1.6106
18114SOL     OW59279   1.527   9.405   8.674 -0.4551  0.3389  0.3943
18114SOL    HW159280   1.504   9.444   8.758 -0.6843 -0.7738  0.8630
18114SOL    HW259281   1.618   9.432   8.659  0.2235 -0.9337  1.9079
18115SOL     OW59282   0.241  10.569   5.421  0.8619  0.0401  0.5206
18115SOL    HW159283   0.151  10.539   5.437  0.0643  1.8158 -0.3074
18115SOL    HW259284   0.244  10.586   5.327  1.7827  0.8476  0.6782
18116SOL     OW59285  11.673   8.737   4.048 -0.1926  0.3359  0.6872
18116SOL    HW159286  11.597   8.788   4.022 -1.0557 -2.3204 -2.7131
18116SOL    HW259287  11.665   8.727   4.143 -1.6005  3.7093  1.0508
18117SOL     OW59288   2.731   3.734   7.753  0.4883 -0.1887  0.1769
18117SOL    HW159289   2.682   3.678   7.694  0.8224 -0.1201 -0.1703
18117SOL    HW259290   2.804   3.766   7.701  1.1209 -0.5953  0.7887
18118SOL     OW59291   7.520   2.329   2.190 -0.4118 -0.1081 -1.0463
18118SOL    HW159292   7.590   2.365   2.244  0.3707  1.1348 -2.7691
18118SOL    HW259293   7.558   2.249   2.152 -0.8214 -0.7635 -0.1118
18119SOL     OW59294   7.407   0.647   1.643 -0.4594  0.4926 -0.0269
18119SOL    HW159295   7.468   0.630   1.714 -1.7829  1.7548  1.5026
18119SOL    HW259296   7.437   0.591   1.571  1.8544  0.3397  0.9794
18120SOL     OW59297   1.097   0.832   2.889  0.4702  0.1854  0.2637
18120SOL    HW159298   1.119   0.894   2.959  0.8739  0.4547 -0.0986
18120SOL    HW259299   1.176   0.778   2.880  0.8822  0.9399 -0.8192
18121SOL     OW59300   7.085   8.547   8.602 -0.5210 -0.6698  0.4866
18121SOL    HW159301   7.058   8.538   8.693  2.6720 -1.2907  1.5134
18121SOL    HW259302   7.140   8.625   8.601 -1.4246  0.0082 -1.2274
18122SOL     OW59303   1.148   6.427   4.919 -0.2441  0.2520 -0.5254
18122SOL    HW159304   1.125   6.409   4.828  1.0250 -1.1371 -0.6190
18122SOL    HW259305   1.080   6.384   4.970 -0.6557  0.5586 -0.8068
18123SOL     OW59306  10.754   2.611   9.716 -0.3635 -0.7202 -0.2198
18123SOL    HW159307  10.793   2.672   9.653  0.2862 -0.8671  0.0320
18123SOL    HW259308  10.662   2.636   9.719 -0.3690 -0.6009 -1.0994
18124SOL     OW59309  10.058   2.425  10.014 -0.7241  0.1923  0.0482
18124SOL    HW159310  10.078   2.371  10.090 -2.3501 -1.1678 -0.4431
18124SOL    HW259311  10.000   2.493  10.046 -0.1725  0.5494  0.3041
18125SOL     OW59312   6.450   4.765   0.909 -0.1386 -0.0000 -0.5123
18125SOL    HW159313   6.539   4.779   0.941 -0.6723  0.9337  0.6258
18125SOL    HW259314   6.455   4.783   0.815  0.5690  1.6477 -0.1942
18126SOL     OW59315   7.169   9.524   3.707  0.0159  0.7452  0.6473
18126SOL    HW159316   7.247   9.488   3.750 -1.3214 -0.7045  1.9711
18126SOL    HW259317   7.196   9.536   3.616  1.8092  0.3313  1.0800
18127SOL     OW59318   3.914   7.976  10.879 -0.7456 -0.4699 -0.1944
18127SOL    HW159319   3.882   7.962  10.968  0.3876  0.1820  0.3381
18127SOL    HW259320   3.904   8.070  10.864 -1.4803 -0.6563 -0.9943
18128SOL     OW59321   1.143  10.691   5.333 -0.2607  0.4444  0.4364
18128SOL    HW159322   1.112  10.629   5.267 -0.7881  0.0332  1.0528
18128SOL    HW259323   1.068  10.748   5.348  0.1718  1.1481 -0.0112
18129SOL     OW59324   7.218   4.593   6.328  0.3283 -0.7209  0.0456
18129SOL    HW159325   7.244   4.533   6.259  1.1239 -0.8810  0.4742
18129SOL    HW259326   7.152   4.650   6.288  1.2456 -0.3835 -1.0341
18130SOL     OW59327   2.775   5.569  11.497  0.5821 -0.0533  0.0968
18130SOL    HW159328   2.765   5.650  11.547  2.0934 -0.2467  0.7600
18130SOL    HW259329   2.739   5.590  11.411 -0.3698  0.8644  0.6910
18131SOL     OW59330   3.655   6.317   5.278  0.3908  0.1914 -0.2063
18131SOL    HW159331   3.620   6.302   5.190 -2.0994  0.5331  0.6477
18131SOL    HW259332   3.725   6.253   5.288 -0.7324 -1.3433 -1.6529
18132SOL     OW59333   8.205   9.816   9.862 -0.5038 -0.0650  0.4521
18132SOL    HW159334   8.279   9.862   9.902 -2.3971  0.6349  3.4894
18132SOL    HW259335   8.137   9.882   9.854 -1.0355 -0.7971 -1.8269
18133SOL     OW59336   8.951   6.410   1.416  0.1908 -0.3784  0.5780
18133SOL    HW159337   8.924   6.457   1.495 -1.1536 -1.7172  0.9575
18133SOL    HW259338   8.992   6.331   1.449 -0.2263 -0.8643 -0.0575
18134SOL     OW59339   7.800   2.949  10.932 -0.0634 -0.0003  0.5177
18134SOL    HW159340   7.882   2.900  10.924  0.5583  0.7153  1.9595
18134SOL    HW259341   7.828   3.041  10.931 -1.1831  0.3847 -2.0654
18135SOL     OW59342   1.036   4.777   3.698 -0.2894  0.0275  0.4383
18135SOL    HW159343   0.981   4.823   3.760 -1.6767  0.6383 -1.1611
18135SOL    HW259344   1.087   4.847   3.656 -1.7424  0.0786 -1.3594
18136SOL     OW59345   9.330   2.358   6.025 -0.0667 -0.2509 -0.0023
18136SOL    HW159346   9.318   2.347   6.119  0.3632 -0.2529  0.0573
18136SOL    HW259347   9.310   2.272   5.988 -0.4631 -0.1868  0.0627
18137SOL     OW59348   5.247   0.921   9.652 -0.3169 -0.4545  0.0226
18137SOL    HW159349   5.324   0.972   9.676 -0.1545 -0.6182 -0.1488
18137SOL    HW259350   5.251   0.916   9.556  0.8274 -2.5699  0.1197
18138SOL     OW59351  11.090   6.237   8.976  0.5748  0.0446 -0.0247
18138SOL    HW159352  11.074   6.217   8.884  0.9124  0.5095 -0.1890
18138SOL    HW259353  11.020   6.298   9.000  0.9744  0.5876 -0.2144
18139SOL     OW59354   9.962   7.864   8.926  0.7783  0.1735  0.0782
18139SOL    HW159355   9.941   7.890   9.015  0.2232 -0.2292  0.0735
18139SOL    HW259356  10.014   7.784   8.936 -0.2871 -0.5529  0.0320
18140SOL     OW59357   9.974   6.513   2.908 -0.1162 -0.5075 -0.3815
18140SOL    HW159358   9.950   6.521   3.001  0.3237 -1.0671 -0.2096
18140SOL    HW259359   9.894   6.482   2.865 -0.5167  0.4089 -0.3070
18141SOL     OW59360  11.577   6.035   7.698 -0.0809  0.6454 -0.5233
18141SOL    HW159361  11.502   5.994   7.655 -0.3433 -0.3418  0.8107
18141SOL    HW259362  11.650   5.976   7.680 -0.6177 -0.9639  2.0661
18142SOL     OW59363   7.380   7.096   0.667  0.1346 -0.1788 -0.4856
18142SOL    HW159364   7.325   7.170   0.692 -1.3685 -1.7218  1.0747
18142SOL    HW259365   7.460   7.107   0.719 -0.3154  0.0539  0.1730
18143SOL     OW59366   3.079   8.280  11.175 -0.8482 -0.2629  0.3046
18143SOL    HW159367   2.986   8.288  11.151 -0.7197 -0.2428 -0.2122
18143SOL    HW259368   3.121   8.352  11.129 -0.5313 -0.4574  0.2886
18144SOL     OW59369   5.275   1.264   1.568  0.0399 -0.9885  0.0329
18144SOL    HW159370   5.368   1.268   1.546 -0.6397  1.3417 -3.2132
18144SOL    HW259371   5.255   1.350   1.603 -0.8783 -1.5084  0.8264
18145SOL     OW59372  11.352   7.789   7.190 -0.6214 -0.1093  0.2621
18145SOL    HW159373  11.346   7.874   7.147  0.7488  1.3350  2.6726
18145SOL    HW259374  11.435   7.752   7.159 -0.8065 -0.1829 -0.1483
18146SOL     OW59375   9.125   2.047  10.109 -0.0464 -0.4014  0.3922
18146SOL    HW159376   9.195   2.087  10.161  0.7013  1.1026 -1.6238
18146SOL    HW259377   9.060   2.116  10.099  0.3947 -0.1964 -1.5903
18147SOL     OW59378   2.894  10.702   8.666 -0.1051  0.3459 -0.3846
18147SOL    HW159379   2.903  10.621   8.616  2.0159  1.1959 -1.5058
18147SOL    HW259380   2.980  10.713   8.708 -0.0559  2.4219 -0.9431
18148SOL     OW59381   8.214   7.817   3.056 -0.6065 -0.1350  0.1807
18148SOL    HW159382   8.282   7.858   3.002 -0.4229 -1.0935 -0.3417
18148SOL    HW259383   8.262   7.758   3.114 -0.8920  0.1687  0.7316
18149SOL     OW59384   3.481   4.062   6.203  0.6017  0.7464  0.3892
18149SOL    HW159385   3.433   4.012   6.269 -1.5900 -0.8422 -2.2174
18149SOL    HW259386   3.432   4.143   6.193  0.6035  0.7370  0.3066
18150SOL     OW59387   8.141  10.645   0.899  0.7055  0.2171  0.2302
18150SOL    HW159388   8.144  10.621   0.806  0.1619  0.2524  0.1994
18150SOL    HW259389   8.112  10.566   0.943  2.0196 -0.1362  0.5100
18151SOL     OW59390   2.651   9.732   6.093 -0.4639  0.0468  0.4628
18151SOL    HW159391   2.594   9.707   6.021  0.4696 -0.2090 -0.2005
18151SOL    HW259392   2.640   9.826   6.101  0.9736  0.4245 -1.4037
18152SOL     OW59393  10.196   6.538   1.402 -0.4984 -0.4553 -0.0579
18152SOL    HW159394  10.255   6.609   1.428  1.2636 -1.1479 -1.8568
18152SOL    HW259395  10.108   6.575   1.411  0.3332  1.8313 -0.5533
18153SOL     OW59396   8.125   6.267   4.675  0.5349 -0.3239 -0.0516
18153SOL    HW159397   8.036   6.257   4.708  1.2951 -1.0585  1.9559
18153SOL    HW259398   8.149   6.357   4.700  0.0169  0.2510 -1.5513
18154SOL     OW59399   8.902   5.099   1.176 -0.1481 -0.0291  0.0553
18154SOL    HW159400   8.934   5.050   1.101 -2.1908 -0.6691 -0.4439
18154SOL    HW259401   8.886   5.033   1.243  0.5979  0.4148  0.6980
18155SOL     OW59402  11.316   4.544   0.006 -0.2439  0.0835 -0.2201
18155SOL    HW159403  11.245   4.513   0.062  0.6552  0.8472  1.4405
18155SOL    HW259404  11.277   4.552  -0.081 -2.0741  0.0976  0.5547
18156SOL     OW59405   5.557   5.405   7.468  0.0265  0.4783  0.4120
18156SOL    HW159406   5.502   5.445   7.400  0.3754  0.9350  0.3971
18156SOL    HW259407   5.616   5.475   7.495  1.2381 -0.2732 -0.2240
18157SOL     OW59408  10.792  10.262   1.004  0.1116 -0.3415  0.5133
18157SOL    HW159409  10.791  10.295   1.094  0.0766  0.2696  0.2987
18157SOL    HW259410  10.787  10.341   0.950 -0.2703 -0.7268 -0.0240
18158SOL     OW59411   3.873   1.591   3.413 -0.4174  0.1688 -0.2884
18158SOL    HW159412   3.965   1.569   3.399 -0.0973  0.8707  0.5944
18158SOL    HW259413   3.843   1.527   3.478 -0.5192  0.0197 -0.4815
18159SOL     OW59414   2.270   4.612  10.538 -0.2200  0.6060 -0.1863
18159SOL    HW159415   2.207   4.554  10.581 -0.2235  1.3602  0.8846
18159SOL    HW259416   2.218   4.686  10.508  0.0512  0.9631  0.1974
18160SOL     OW59417   1.749   9.692   2.583  0.1978  0.7177  0.0763
18160SOL    HW159418   1.701   9.679   2.501  1.0135 -0.7245 -0.1985
18160SOL    HW259419   1.839   9.667   2.562  0.8559  2.2394  0.9017
18161SOL     OW59420   2.919   6.821   8.063  0.2557 -0.1186 -0.2046
18161SOL    HW159421   2.823   6.829   8.062  0.3971  3.1764  0.2345
18161SOL    HW259422   2.940   6.804   8.155  0.1284  1.4575  0.1464
18162SOL     OW59423   8.033  11.321   1.513  0.0604  0.6066 -0.0554
18162SOL    HW159424   7.973  11.304   1.586  3.6773  1.9868  3.6991
18162SOL    HW259425   8.077  11.237   1.499 -1.0236  0.1951 -1.1512
18163SOL     OW59426  10.058   7.936   9.659 -0.0205  0.0146  0.1637
18163SOL    HW159427  10.105   7.856   9.680  0.2364 -0.1102 -0.8186
18163SOL    HW259428   9.965   7.911   9.661  0.0458 -0.2295  0.1808
18164SOL     OW59429   5.536   9.035   0.886  0.4683  0.0033  0.2647
18164SOL    HW159430   5.457   9.046   0.832  0.9600  2.2672 -0.1028
18164SOL    HW259431   5.521   9.091   0.962  1.8563  0.8018 -0.0137
18165SOL     OW59432  10.868   6.012   9.398 -0.0945 -0.5471 -0.2569
18165SOL    HW159433  10.870   5.974   9.485 -0.2223 -0.7504 -0.3424
18165SOL    HW259434  10.924   6.090   9.405  0.0099 -0.6400 -0.0318
18166SOL     OW59435   4.885   2.803  10.023  0.1212  0.0864 -0.0103
18166SOL    HW159436   4.884   2.883  10.076 -0.8566 -0.0653  0.2333
18166SOL    HW259437   4.894   2.732  10.087 -0.3105 -0.0567 -0.1005
18167SOL     OW59438  11.551   9.437  11.653 -0.4849 -0.0583 -0.0110
18167SOL    HW159439  11.582   9.521  11.621 -2.0589 -0.0749 -1.7740
18167SOL    HW259440  11.622   9.404  11.708  0.1102  2.4673  0.8734
18168SOL     OW59441   7.812   8.943   0.993 -0.0813  0.1694 -0.3414
18168SOL    HW159442   7.769   8.916   1.075 -1.6357  0.9673 -0.8621
18168SOL    HW259443   7.882   9.003   1.022  0.1203 -0.4251  0.4594
18169SOL     OW59444   3.215   1.295   4.762 -0.2337  0.0903 -0.0143
18169SOL    HW159445   3.191   1.381   4.794 -1.3253 -0.2506  0.1417
18169SOL    HW259446   3.190   1.296   4.669 -1.0649 -0.3271  0.1911
18170SOL     OW59447   9.052   4.484   5.323 -0.0854  0.5935  0.4550
18170SOL    HW159448   9.096   4.560   5.285 -1.4753  1.3150  0.2143
18170SOL    HW259449   8.966   4.484   5.282 -0.1225 -1.1157  0.4772
18171SOL     OW59450  10.814   8.786  11.343  0.1514  0.4526 -0.1773
18171SOL    HW159451  10.743   8.836  11.303 -0.2387 -1.8287 -2.6833
18171SOL    HW259452  10.771   8.717  11.393  0.6645  0.9515  0.9985
18172SOL     OW59453   6.743   2.016   6.906  0.0097 -0.1805 -0.0842
18172SOL    HW159454   6.689   1.938   6.920 -1.1744  0.8697  1.5747
18172SOL    HW259455   6.814   2.008   6.970 -0.3652  0.2960  0.4011
18173SOL     OW59456   7.834   5.519   2.397 -0.7413 -0.0144 -0.3157
18173SOL    HW159457   7.756   5.497   2.346 -2.0639  1.2382  1.0762
18173SOL    HW259458   7.896   5.449   2.378 -1.8846 -0.5831 -2.1285
18174SOL     OW59459  10.371   3.989   1.919  0.3174 -0.5532  0.8353
18174SOL    HW159460  10.386   3.928   1.991  1.1542 -0.0782  1.0821
18174SOL    HW259461  10.421   4.067   1.943  1.5817 -0.8034 -0.8092
18175SOL     OW59462   3.683   5.452   1.014 -0.5877 -0.5021  0.2694
18175SOL    HW159463   3.688   5.484   0.924  0.2916 -1.8654 -0.1878
18175SOL    HW259464   3.596   5.413   1.021 -1.4450  1.3717  0.6566
18176SOL     OW59465   6.254   5.570   4.864  0.0410 -0.5438  0.5310
18176SOL    HW159466   6.298   5.586   4.948 -0.8204 -1.6693  1.2380
18176SOL    HW259467   6.161   5.570   4.886 -0.2866  0.6914 -0.7368
18177SOL     OW59468   1.306   6.533   5.698 -0.2697  0.5221  0.6324
18177SOL    HW159469   1.237   6.594   5.725 -1.1176 -0.9715  2.0432
18177SOL    HW259470   1.288   6.516   5.606 -4.1430 -2.5535  1.6944
18178SOL     OW59471   6.303   9.015   0.188  0.4235  0.1484 -0.2206
18178SOL    HW159472   6.239   9.080   0.214  0.5631  0.1048  0.2361
18178SOL    HW259473   6.327   9.039   0.098 -0.4846 -0.0382 -0.5212
18179SOL     OW59474   6.503   9.347   3.520 -0.5114 -0.4453  0.6089
18179SOL    HW159475   6.460   9.271   3.481  0.4224 -0.0607 -1.3053
18179SOL    HW259476   6.496   9.415   3.453  1.3771  0.1869  0.9989
18180SOL     OW59477   9.987  11.520   9.872  0.1738 -0.3654 -0.1637
18180SOL    HW159478   9.938  11.509   9.953 -1.4522  0.1373 -1.0328
18180SOL    HW259479   9.998  11.614   9.863 -0.8046 -0.3249 -1.1524
18181SOL     OW59480   5.664  11.327   7.105  0.2928 -0.0068 -0.7153
18181SOL    HW159481   5.596  11.260   7.093 -0.9915  0.8222  1.4644
18181SOL    HW259482   5.658  11.381   7.025 -0.8296 -0.6250 -1.0738
18182SOL     OW59483   7.304   6.984   8.722 -0.1271  0.4533 -0.2494
18182SOL    HW159484   7.362   6.910   8.708 -0.4826 -0.1414  1.1630
18182SOL    HW259485   7.353   7.060   8.692  0.2321 -0.3466 -1.7524
18183SOL     OW59486   6.666   8.679   3.877 -0.0266 -0.1726  0.2486
18183SOL    HW159487   6.670   8.594   3.922  0.3661  0.3596  1.2399
18183SOL    HW259488   6.751   8.687   3.834 -1.4279 -2.0704 -3.2845
18184SOL     OW59489  10.947   7.068   9.258 -0.2006 -0.7347  0.9873
18184SOL    HW159490  10.925   6.989   9.308  0.6058 -1.2910  0.4860
18184SOL    HW259491  10.991   7.035   9.180 -0.3681  0.1917  0.4873
18185SOL     OW59492   0.011   2.485   9.841 -0.0181  0.2275 -0.1386
18185SOL    HW159493   0.072   2.476   9.768  0.6502  0.7810  0.3363
18185SOL    HW259494   0.027   2.408   9.895 -0.9235 -0.4774 -0.8695
18186SOL     OW59495  10.744   2.957  11.434 -0.1361  0.3036 -0.4556
18186SOL    HW159496  10.781   2.997  11.513 -0.5725  1.8471 -1.0088
18186SOL    HW259497  10.649   2.967  11.444 -0.5039 -2.9159  0.5722
18187SOL     OW59498   1.447   7.457   8.930  0.2216 -0.1201  0.0760
18187SOL    HW159499   1.389   7.466   8.854  2.0520 -0.4836 -1.4521
18187SOL    HW259500   1.395   7.407   8.994 -1.0136 -0.7773 -1.3736
18188SOL     OW59501   5.270   8.668  11.144  0.3596  0.6292 -0.0820
18188SOL    HW159502   5.265   8.749  11.196  0.5319  1.7265 -1.7034
18188SOL    HW259503   5.363   8.645  11.144  0.6430  1.6526 -1.3479
18189SOL     OW59504   6.141   4.957   4.185  0.5684  0.0290  0.0714
18189SOL    HW159505   6.148   4.862   4.192 -0.6681  0.0036  1.3759
18189SOL    HW259506   6.203   4.981   4.116  0.3427 -1.7887 -0.8087
18190SOL     OW59507   3.762   5.369   3.440  0.2107  0.3571 -0.0525
18190SOL    HW159508   3.776   5.350   3.533  0.0015 -1.3431 -0.3196
18190SOL    HW259509   3.669   5.391   3.434  0.0944 -0.0805  0.0754
18191SOL     OW59510   1.119   0.783   1.779  0.1811 -0.3363 -0.1638
18191SOL    HW159511   1.056   0.764   1.849  1.0031 -0.9143  0.4429
18191SOL    HW259512   1.087   0.864   1.740 -0.3382 -0.0385  0.8382
18192SOL     OW59513  11.028   5.930  11.534 -0.0856  0.3331  0.0975
18192SOL    HW159514  11.073   5.848  11.513 -0.6557  0.0411  0.0106
18192SOL    HW259515  11.054   5.949  11.624  1.8497  1.2472 -0.5844
18193SOL     OW59516   9.692   2.236   5.833  0.6914 -0.3089 -0.2975
18193SOL    HW159517   9.751   2.229   5.758  0.9719  0.6906 -0.1804
18193SOL    HW259518   9.686   2.330   5.850 -0.4219 -0.4388  0.0977
18194SOL     OW59519   4.321   4.267   2.344  0.6932  0.2125  0.2092
18194SOL    HW159520   4.316   4.361   2.327 -1.7919  0.2406  0.7236
18194SOL    HW259521   4.314   4.259   2.439 -2.5172 -0.5416  0.0186
18195SOL     OW59522   1.873   0.851   9.319  0.1150  0.1443  0.0189
18195SOL    HW159523   1.808   0.780   9.319 -0.5736  0.7056  1.9334
18195SOL    HW259524   1.826   0.925   9.356 -0.1267  2.6046 -4.5840
18196SOL     OW59525   5.766  10.416   1.001  0.2360 -0.4661 -0.3749
18196SOL    HW159526   5.725  10.335   1.032  0.7691 -0.3324  0.7214
18196SOL    HW259527   5.698  10.458   0.948 -0.1545 -1.4773 -0.7122
18197SOL     OW59528   6.076   0.526   7.766 -0.1443 -0.5412  0.6342
18197SOL    HW159529   6.160   0.485   7.785 -0.2404 -1.2905 -0.4631
18197SOL    HW259530   6.039   0.546   7.853  1.8572  1.3712  1.1316
18198SOL     OW59531   3.451   9.342   6.658 -0.1788 -0.2552 -0.0924
18198SOL    HW159532   3.389   9.278   6.624  0.5116 -0.3904 -1.1339
18198SOL    HW259533   3.396   9.412   6.693 -0.9310 -1.0732  0.4068
18199SOL     OW59534   3.374   2.142  11.009  0.6946  0.5362  0.6984
18199SOL    HW159535   3.279   2.158  11.003  0.2615 -1.7843  0.2325
18199SOL    HW259536   3.410   2.180  10.930 -0.1769 -0.3516 -0.1518
18200SOL     OW59537   6.222   0.011   6.469  0.2745 -0.3682  0.3181
18200SOL    HW159538   6.151   0.010   6.406  0.1721  0.1779  0.4174
18200SOL    HW259539   6.246  -0.081   6.481  2.4717 -0.3739 -2.9666
18201SOL     OW59540   6.431   7.128   6.590  0.1092 -0.2847  0.0417
18201SOL    HW159541   6.482   7.166   6.519  0.1034 -0.4019 -0.0248
18201SOL    HW259542   6.342   7.157   6.575  0.3145  0.7131  0.6933
18202SOL     OW59543   8.293   3.512  11.407  0.2648 -0.4056  0.2625
18202SOL    HW159544   8.198   3.504  11.406  0.3536 -1.9103  0.8036
18202SOL    HW259545   8.314   3.544  11.494  0.2273  0.7992 -0.1487
18203SOL     OW59546   1.167  10.560   2.394  0.7242  0.6075  0.3044
18203SOL    HW159547   1.170  10.654   2.376 -0.3215  0.5706 -0.1367
18203SOL    HW259548   1.200  10.519   2.314  1.4952  0.6033  0.6201
18204SOL     OW59549   6.944   1.753   4.992 -0.6744 -0.1314 -0.2236
18204SOL    HW159550   6.929   1.846   5.011 -1.0628 -0.5753  2.0044
18204SOL    HW259551   6.943   1.712   5.079 -0.7446 -2.2447 -1.1876
18205SOL     OW59552   3.614  10.798   9.572 -0.4348  0.1239 -0.0177
18205SOL    HW159553   3.545  10.849   9.531 -0.5338 -0.0913 -0.1230
18205SOL    HW259554   3.696  10.834   9.537 -0.5461 -0.7901 -1.2766
18206SOL     OW59555   6.130   1.605   6.235 -0.1303  0.0258  0.6067
18206SOL    HW159556   6.096   1.524   6.274 -0.8225  0.0809  0.1404
18206SOL    HW259557   6.112   1.673   6.300  1.7862 -0.3971  1.6529
18207SOL     OW59558  10.286   3.065   4.541 -0.1839  0.1111 -0.1386
18207SOL    HW159559  10.305   3.101   4.628  0.3471 -1.6295  0.5237
18207SOL    HW259560  10.203   3.105   4.516 -0.1874  0.8919  1.0248
18208SOL     OW59561   7.273  10.882   5.357  0.0309  0.5343 -0.3092
18208SOL    HW159562   7.236  10.924   5.434 -1.1025  1.9143 -1.5376
18208SOL    HW259563   7.221  10.802   5.347  0.9406 -0.2535  0.9612
18209SOL     OW59564   5.874   5.691   9.475  0.3083  0.1694  0.0488
18209SOL    HW159565   5.805   5.635   9.511 -1.2944  1.9785 -0.0374
18209SOL    HW259566   5.911   5.640   9.403  0.1971 -1.4971  1.0973
18210SOL     OW59567   9.000   3.250   6.886 -0.1758  0.4032  0.0210
18210SOL    HW159568   8.943   3.325   6.869  0.6992  1.5739  1.9323
18210SOL    HW259569   9.060   3.248   6.811 -0.2406  1.5811 -0.0771
18211SOL     OW59570   2.929   6.640  11.129  0.0987  0.4381  0.1322
18211SOL    HW159571   2.901   6.695  11.056  0.1396 -1.9953 -1.8441
18211SOL    HW259572   3.017   6.670  11.149 -0.7976  2.7568  0.9146
18212SOL     OW59573   4.450  11.441   7.714 -0.3105  0.0406  0.1447
18212SOL    HW159574   4.545  11.448   7.723 -0.1999 -1.9873  1.0241
18212SOL    HW259575   4.435  11.440   7.620  0.5184  0.5716 -0.0018
18213SOL     OW59576   2.873   1.397   9.161  0.1619  0.1859  0.8480
18213SOL    HW159577   2.918   1.329   9.211 -0.6147 -1.4597 -0.6119
18213SOL    HW259578   2.929   1.413   9.085 -0.9933 -0.8625 -0.2519
18214SOL     OW59579   9.950   2.554   3.948  0.0279 -0.3155  0.3286
18214SOL    HW159580   9.972   2.627   3.890 -0.0880  0.8317  1.6709
18214SOL    HW259581   9.889   2.501   3.897  0.4044  0.3053 -0.8164
18215SOL     OW59582  10.140   5.755   7.237 -0.8786  0.1551  0.1896
18215SOL    HW159583  10.080   5.817   7.197  1.3308  1.0418 -1.9729
18215SOL    HW259584  10.203   5.810   7.284 -0.6462 -0.6561  0.8585
18216SOL     OW59585  10.701   8.316   4.532 -0.4387 -0.2888 -0.0014
18216SOL    HW159586  10.790   8.336   4.561 -1.3984  2.3197  1.4572
18216SOL    HW259587  10.672   8.248   4.592 -0.0774  0.2185  0.7630
18217SOL     OW59588   3.664  10.237   8.619  0.2596 -0.2721 -0.0198
18217SOL    HW159589   3.576  10.214   8.647 -0.1307  0.2313 -0.7880
18217SOL    HW259590   3.709  10.266   8.699 -1.0547  1.8758  0.0339
18218SOL     OW59591   6.331   5.296   5.635 -0.5845  0.0151  0.1132
18218SOL    HW159592   6.347   5.317   5.727  1.9267  0.0125 -0.2562
18218SOL    HW259593   6.361   5.374   5.588 -0.2537 -0.6321 -0.7601
18219SOL     OW59594   6.701   7.193   9.961 -0.1861  0.3115  0.4277
18219SOL    HW159595   6.789   7.231   9.954 -0.3902  1.2252  2.1809
18219SOL    HW259596   6.711   7.104   9.929  0.8131  1.1516 -1.7695
18220SOL     OW59597   8.599   0.407   5.313 -0.2001  0.4403  0.0260
18220SOL    HW159598   8.617   0.320   5.349  1.5154  1.3710  1.6127
18220SOL    HW259599   8.593   0.393   5.219  0.1312 -1.3764  0.2265
18221SOL     OW59600   6.711  10.213   8.119  0.4788 -0.1001  0.3748
18221SOL    HW159601   6.727  10.237   8.211  0.8564 -0.4763  0.4065
18221SOL    HW259602   6.719  10.118   8.117  0.1476 -0.1245  0.0127
18222SOL     OW59603   0.517   0.955   8.072 -0.2119 -0.0640 -0.1786
18222SOL    HW159604   0.598   0.998   8.097  1.2230 -2.5211 -0.2918
18222SOL    HW259605   0.470   0.944   8.155  1.5218 -2.2598  0.6296
18223SOL     OW59606   9.945   4.820   6.868  0.1867 -0.1867  0.0239
18223SOL    HW159607   9.993   4.900   6.891  0.4054 -0.0608 -0.8353
18223SOL    HW259608   9.998   4.749   6.904 -0.9682  0.0973  2.4753
18224SOL     OW59609   0.220   8.897   6.515 -0.2172 -0.2130  0.3192
18224SOL    HW159610   0.150   8.900   6.580  0.2867  2.9518  0.8683
18224SOL    HW259611   0.220   8.806   6.485 -1.8169 -1.3296  3.2397
18225SOL     OW59612   2.060   5.676   5.604  0.1292  0.1162 -0.0479
18225SOL    HW159613   2.035   5.734   5.677  1.3887  0.5917  0.0319
18225SOL    HW259614   2.100   5.600   5.646  3.8696  1.7715 -0.1586
18226SOL     OW59615   3.921   3.354   6.754  0.1071 -0.3820 -0.0621
18226SOL    HW159616   3.909   3.282   6.815  0.9864 -0.4672  0.0300
18226SOL    HW259617   4.011   3.384   6.769 -0.0643  0.3820 -0.4732
18227SOL     OW59618   7.466   3.584   7.764  0.5267  0.6993 -0.3028
18227SOL    HW159619   7.515   3.522   7.819 -0.0182  1.2337  0.7978
18227SOL    HW259620   7.416   3.637   7.826 -2.2871 -0.4786 -1.4198
18228SOL     OW59621   4.833   3.223   4.838 -0.4333 -0.3810  0.0401
18228SOL    HW159622   4.915   3.252   4.878 -1.9136  0.0108  3.1024
18228SOL    HW259623   4.856   3.141   4.793  1.6048 -0.3641  0.9357
18229SOL     OW59624   9.061   0.898   0.845  0.0536 -0.0967 -0.4847
18229SOL    HW159625   9.009   0.977   0.858 -0.1824 -0.3432  0.0520
18229SOL    HW259626   9.144   0.916   0.890 -0.8168 -1.0072  1.5671
18230SOL     OW59627   7.421   1.697   9.752  0.3117 -0.3249 -0.8438
18230SOL    HW159628   7.448   1.622   9.805  1.0703  0.7303  0.3125
18230SOL    HW259629   7.326   1.687   9.743  0.0605 -0.2618  1.1904
18231SOL     OW59630   3.821  11.160   7.114 -0.5915  0.0232  0.2485
18231SOL    HW159631   3.815  11.206   7.197  0.0740  0.1624  0.2295
18231SOL    HW259632   3.866  11.078   7.136  0.2406  0.3766 -0.0813
18232SOL     OW59633  11.629   4.707  10.357  0.0213  0.4530 -0.1955
18232SOL    HW159634  11.587   4.620  10.355  2.1230 -0.6214 -1.7334
18232SOL    HW259635  11.673   4.710  10.441  1.2338 -0.7014 -0.7440
18233SOL     OW59636   3.574   9.525   2.245  0.0804  0.0428 -0.0419
18233SOL    HW159637   3.503   9.469   2.213 -1.5892  0.7408  2.1331
18233SOL    HW259638   3.554   9.537   2.338  1.6039  2.4309  0.0582
18234SOL     OW59639   2.150   3.079  11.510 -0.1164 -0.1382 -0.3498
18234SOL    HW159640   2.160   3.002  11.565  0.0176 -1.1317 -1.7184
18234SOL    HW259641   2.240   3.108  11.493 -0.1754  0.5461  0.4406
18235SOL     OW59642   7.808  10.002   3.341 -0.3772 -0.4086  0.1315
18235SOL    HW159643   7.714   9.992   3.353 -0.1432 -1.3313  1.3663
18235SOL    HW259644   7.847   9.969   3.422  0.9988  0.3609 -0.1719
18236SOL     OW59645  11.097   0.539  10.043  0.1865  0.2079  0.3390
18236SOL    HW159646  11.026   0.552  10.106  1.5431 -0.1467  2.0153
18236SOL    HW259647  11.083   0.607   9.977 -0.7573  1.1849  1.4993
18237SOL     OW59648   6.352   7.593   2.859  0.1590  0.2895 -0.4145
18237SOL    HW159649   6.329   7.508   2.820  1.0871 -0.9621  1.5826
18237SOL    HW259650   6.425   7.624   2.806  0.8275 -0.9368 -0.2542
18238SOL     OW59651   4.464  10.689   7.062  0.6700 -0.3850  0.4663
18238SOL    HW159652   4.491  10.757   7.123  1.3668  0.0138 -0.2644
18238SOL    HW259653   4.527  10.695   6.990 -0.4452 -0.4758 -0.5515
18239SOL     OW59654   5.117   4.947   7.178 -0.0424  0.2997  0.5616
18239SOL    HW159655   5.035   4.950   7.228 -0.2221 -0.1693  0.2956
18239SOL    HW259656   5.181   4.911   7.240 -0.3129 -0.4811  0.3923
18240SOL     OW59657   8.872   6.433   4.170  0.0610  0.1252 -0.1027
18240SOL    HW159658   8.862   6.507   4.110 -0.1866 -1.2705 -1.8882
18240SOL    HW259659   8.886   6.358   4.112  2.7903 -0.8770  1.7001
18241SOL     OW59660   0.267   3.146   8.298  0.3468  0.0115  0.1380
18241SOL    HW159661   0.349   3.110   8.265  1.3745  1.0734  1.3803
18241SOL    HW259662   0.247   3.218   8.239 -0.0486 -0.6587 -0.5499
18242SOL     OW59663   0.518   7.544   9.523  0.2203  0.6583  0.0818
18242SOL    HW159664   0.552   7.630   9.549  0.2939  0.7197 -0.2212
18242SOL    HW259665   0.592   7.500   9.482  0.5956 -0.1039  1.5161
18243SOL     OW59666   5.347   3.395   1.358 -0.0822 -0.2455  0.2391
18243SOL    HW159667   5.340   3.483   1.396  0.3769 -0.4182  0.7260
18243SOL    HW259668   5.342   3.336   1.433 -0.4033 -0.6399 -0.0883
18244SOL     OW59669  10.468   8.441   5.038  0.0185  0.1226 -0.1862
18244SOL    HW159670  10.552   8.483   5.056 -0.7155  1.0968  1.1695
18244SOL    HW259671  10.468   8.426   4.944  1.5710  0.4149 -0.2513
18245SOL     OW59672  11.563   5.808   2.848  0.0525 -0.4268  0.5936
18245SOL    HW159673  11.544   5.798   2.941  1.5190 -2.0870  0.7713
18245SOL    HW259674  11.658   5.801   2.842  0.0317  0.1404 -0.9950
18246SOL     OW59675   8.992  10.696  11.551  0.1269 -0.3476  0.2582
18246SOL    HW159676   9.076  10.737  11.571  0.6265 -0.9855 -0.4666
18246SOL    HW259677   8.964  10.656  11.634  0.4975 -0.0678  0.5211
18247SOL     OW59678   1.649   1.075   4.249  0.2802  0.3888 -0.6219
18247SOL    HW159679   1.690   1.054   4.333 -0.1994  0.4376 -0.3736
18247SOL    HW259680   1.723   1.096   4.191  0.6194  0.2572 -0.2430
18248SOL     OW59681  10.801   1.764   2.425 -0.6513  0.0933 -0.2615
18248SOL    HW159682  10.731   1.798   2.479 -0.0008 -1.2442  1.4975
18248SOL    HW259683  10.877   1.818   2.448 -0.7412  0.5945 -1.0926
18249SOL     OW59684   1.053   3.416   9.726 -0.0480  0.1404 -0.1378
18249SOL    HW159685   1.060   3.388   9.635  0.4994  2.8408 -1.0301
18249SOL    HW259686   1.003   3.347   9.769  0.9634 -1.9583 -2.1070
18250SOL     OW59687   8.501   5.672   7.041 -0.0909  0.2082  0.2882
18250SOL    HW159688   8.579   5.632   7.002 -0.4246  0.8216 -1.0879
18250SOL    HW259689   8.490   5.627   7.125  1.2322 -0.4952  0.1156
18251SOL     OW59690   1.160   5.549   1.061  0.0901 -0.1406  0.4467
18251SOL    HW159691   1.215   5.549   0.983 -1.4613  2.9235 -0.8058
18251SOL    HW259692   1.140   5.457   1.077 -1.6973 -0.8688 -4.3940
18252SOL     OW59693   1.369   3.373  11.674  0.0074  0.2062 -0.1807
18252SOL    HW159694   1.425   3.450  11.687  0.6249 -0.2650 -0.0159
18252SOL    HW259695   1.379   3.323  11.755  0.3366 -0.5088 -0.6603
18253SOL     OW59696   8.042   6.550   4.191  0.3675 -0.4358 -0.0466
18253SOL    HW159697   8.137   6.557   4.189  0.4464 -1.5444 -1.1065
18253SOL    HW259698   8.018   6.513   4.106 -1.3639  3.5989 -1.6123
18254SOL     OW59699   0.488   1.107   1.638  0.0082  0.5597 -0.4771
18254SOL    HW159700   0.471   1.194   1.602 -1.4738  0.3049 -0.4601
18254SOL    HW259701   0.494   1.050   1.561  2.9533  0.9032 -0.6392
18255SOL     OW59702  10.262   3.219   5.565  0.1978  0.0717 -0.1198
18255SOL    HW159703  10.283   3.205   5.472 -0.6058  0.9991 -0.4584
18255SOL    HW259704  10.292   3.139   5.608  1.2386 -0.0746 -1.0683
18256SOL     OW59705  11.307   3.153   9.696 -0.1244 -0.1705  0.2531
18256SOL    HW159706  11.386   3.104   9.675 -0.9318 -0.1610 -3.3111
18256SOL    HW259707  11.334   3.245   9.692 -0.0530 -0.1884  0.3122
18257SOL     OW59708   3.631   9.395   8.006 -0.0970  0.1610 -0.2058
18257SOL    HW159709   3.589   9.479   8.025  0.1010  0.0609  0.7331
18257SOL    HW259710   3.681   9.375   8.085 -1.4867 -1.6579  0.2768
18258SOL     OW59711   2.315   1.771   0.195  0.1309 -0.5310 -0.3689
18258SOL    HW159712   2.233   1.809   0.225  1.1843  2.6694 -1.0866
18258SOL    HW259713   2.323   1.689   0.242 -3.0244 -0.5348  0.3599
18259SOL     OW59714   2.696   5.052   2.052  0.7696 -0.2092  0.0159
18259SOL    HW159715   2.746   5.030   1.973  0.5658 -1.0481  0.1121
18259SOL    HW259716   2.652   4.971   2.077 -0.4901  0.4515  0.0559
18260SOL     OW59717   3.077   2.210   5.130 -0.0913 -0.4247 -0.1743
18260SOL    HW159718   3.076   2.306   5.120  2.9606 -0.2585  0.2530
18260SOL    HW259719   3.066   2.176   5.041  1.8151  0.4422 -0.7928
18261SOL     OW59720   9.062  11.310   3.705 -0.1640  0.7486 -0.2853
18261SOL    HW159721   9.058  11.296   3.800 -0.0110 -0.0125 -0.3849
18261SOL    HW259722   9.122  11.242   3.673 -1.6250 -0.1893 -1.1462
18262SOL     OW59723   9.767   3.343   0.849 -0.4636  0.4983  0.2345
18262SOL    HW159724   9.862   3.359   0.841 -0.5967  1.2905  0.1059
18262SOL    HW259725   9.759   3.249   0.861  0.3166  0.3617 -0.2378
18263SOL     OW59726   7.729   1.202   7.338  0.1023 -0.1599  0.0120
18263SOL    HW159727   7.752   1.236   7.425  2.1167  0.5084 -0.7170
18263SOL    HW259728   7.721   1.279   7.283 -2.6405 -0.4752 -0.1527
18264SOL     OW59729   5.053   2.552   6.000 -0.0016 -0.3340  0.4843
18264SOL    HW159730   5.082   2.460   6.001  0.6043 -0.1517  0.1756
18264SOL    HW259731   5.019   2.565   5.912  2.3378  0.4508 -0.3838
18265SOL     OW59732  10.213  10.750   5.738 -0.2556 -0.3210 -0.2375
18265SOL    HW159733  10.233  10.663   5.706 -1.1726 -0.3554 -0.7492
18265SOL    HW259734  10.295  10.782   5.775  0.2268 -1.1756 -0.5560
18266SOL     OW59735   1.517   3.916   9.019  0.0381  0.3592 -0.7670
18266SOL    HW159736   1.438   3.862   9.019 -0.2677  0.7918 -1.3643
18266SOL    HW259737   1.516   3.961   9.103 -0.7334  0.8919 -1.0514
18267SOL     OW59738   4.351   9.951  11.591 -0.1320  0.1406 -0.0477
18267SOL    HW159739   4.399   9.900  11.527  1.0584  0.4615  0.5622
18267SOL    HW259740   4.361   9.903  11.673 -2.4460 -0.7750 -0.2403
18268SOL     OW59741   3.373   9.242   3.442 -0.5923 -0.3729  0.1094
18268SOL    HW159742   3.364   9.155   3.403  1.5211 -0.1088 -1.1121
18268SOL    HW259743   3.452   9.237   3.495 -1.9201  0.0808  2.2647
18269SOL     OW59744   0.368   8.851   6.742  0.0579 -0.3592 -0.5367
18269SOL    HW159745   0.446   8.816   6.699  0.7450 -1.4191  1.4768
18269SOL    HW259746   0.320   8.896   6.672  2.6420  0.6634 -1.7676
18270SOL     OW59747  11.071   7.766   7.280 -0.0326  0.0666  0.1574
18270SOL    HW159748  11.008   7.757   7.208 -0.1801 -0.7476  0.3754
18270SOL    HW259749  11.156   7.769   7.236 -0.2367  1.8496 -0.1817
18271SOL     OW59750   5.744   7.186   2.478  0.0113 -0.6399 -0.2876
18271SOL    HW159751   5.668   7.164   2.531 -1.1759  1.2608 -1.0799
18271SOL    HW259752   5.727   7.146   2.393 -0.7153  0.7344 -0.8205
18272SOL     OW59753   6.933   9.601   6.030  0.0587 -0.1913  0.6574
18272SOL    HW159754   6.983   9.660   5.974  0.2777  0.4845  1.5386
18272SOL    HW259755   6.966   9.617   6.118 -1.2605 -0.1823  1.1857
18273SOL     OW59756   6.663   1.163   9.567 -0.3087  0.0535 -0.3927
18273SOL    HW159757   6.701   1.122   9.644 -0.1003 -2.1043 -1.5516
18273SOL    HW259758   6.721   1.236   9.547  0.6404 -0.4316  0.4871
18274SOL     OW59759  10.777   4.575   5.370 -0.4454  0.3923 -0.1194
18274SOL    HW159760  10.737   4.553   5.454  0.3898 -1.3775 -0.1393
18274SOL    HW259761  10.716   4.541   5.305  0.1591 -0.6483 -0.1683
18275SOL     OW59762   8.817   0.229   9.067 -0.0327  0.1380  0.0253
18275SOL    HW159763   8.785   0.278   8.992  0.2461  1.1366  0.5485
18275SOL    HW259764   8.738   0.201   9.113 -0.2370 -1.1879 -1.0511
18276SOL     OW59765   0.775   1.135   0.378  0.0608  0.3279 -0.6723
18276SOL    HW159766   0.766   1.224   0.345 -0.3004  0.1340 -1.1304
18276SOL    HW259767   0.849   1.099   0.330 -0.1059  0.2287 -0.8607
18277SOL     OW59768  10.484   5.165  11.218  0.1758  0.0745 -0.0060
18277SOL    HW159769  10.510   5.148  11.128  0.5734 -0.3166  0.1739
18277SOL    HW259770  10.523   5.092  11.268 -0.1739  0.1969  0.4537
18278SOL     OW59771   1.576  11.584   3.891 -0.0763  0.2232 -0.4480
18278SOL    HW159772   1.609  11.531   3.964 -1.3028 -1.4885 -1.0780
18278SOL    HW259773   1.550  11.667   3.931 -1.1765 -0.8549  1.1963
18279SOL     OW59774   0.456   9.664   7.008 -0.1560 -0.2512  0.1272
18279SOL    HW159775   0.486   9.704   7.090 -1.6360  2.0593 -0.3875
18279SOL    HW259776   0.416   9.581   7.035 -0.6855  0.5053  1.7543
18280SOL     OW59777   4.047   4.734   7.618 -0.0821 -0.3364  0.0586
18280SOL    HW159778   4.135   4.698   7.629  0.9701  2.0069 -0.1696
18280SOL    HW259779   3.989   4.661   7.639  1.8940 -1.9668  0.1735
18281SOL     OW59780   3.727  10.984   2.235  0.5007 -0.4883 -0.4024
18281SOL    HW159781   3.814  10.946   2.245  1.3329  1.6539  1.5588
18281SOL    HW259782   3.741  11.065   2.186 -0.3648 -0.1601 -0.1361
18282SOL     OW59783   3.062   1.867  10.355 -0.1271  0.1745 -0.8205
18282SOL    HW159784   3.072   1.868  10.260 -0.1971 -2.1543 -0.9000
18282SOL    HW259785   2.982   1.817  10.371  0.1086  0.1694  0.4794
18283SOL     OW59786   8.715   6.251  11.562 -0.3628  0.0569  0.1200
18283SOL    HW159787   8.636   6.253  11.508  0.3720 -0.6428 -1.0282
18283SOL    HW259788   8.720   6.161  11.594 -1.6658  0.8345  2.7718
18284SOL     OW59789   4.746  11.455   0.728  0.4483  0.2096  0.0484
18284SOL    HW159790   4.770  11.544   0.755  0.8040  0.0964  0.1145
18284SOL    HW259791   4.651  11.454   0.729  0.4119  0.8767 -0.8408
18285SOL     OW59792   8.555   2.063   6.658 -0.2704 -0.4832  0.3969
18285SOL    HW159793   8.582   2.077   6.749  1.0053  1.2184 -0.1978
18285SOL    HW259794   8.460   2.075   6.659 -0.0505  1.5321  1.2003
18286SOL     OW59795   3.319   1.890   8.369 -0.1161 -0.0245  0.1958
18286SOL    HW159796   3.380   1.953   8.330  0.5024 -0.5794  0.2535
18286SOL    HW259797   3.249   1.881   8.305  0.5721 -0.4415 -0.5110
18287SOL     OW59798   6.777  11.341   3.665  0.0388 -0.1210 -0.2763
18287SOL    HW159799   6.717  11.271   3.640  0.5794 -0.7257  0.1057
18287SOL    HW259800   6.775  11.342   3.760  1.6829 -1.0917 -0.1953
18288SOL     OW59801   1.320   6.308   8.171 -0.1720  0.0899 -0.2226
18288SOL    HW159802   1.357   6.349   8.093  0.2874  0.3372  0.1179
18288SOL    HW259803   1.391   6.254   8.205 -0.1091  0.5949  0.4593
18289SOL     OW59804   5.644   0.298   5.772  0.7990 -1.0776  0.0595
18289SOL    HW159805   5.649   0.208   5.740  0.7914 -1.0482 -0.0248
18289SOL    HW259806   5.577   0.339   5.717  1.1998 -0.8669 -0.2747
18290SOL     OW59807   1.727   4.335   9.292 -0.0021  0.3769 -0.0206
18290SOL    HW159808   1.735   4.269   9.361 -0.0655  0.5134  0.1177
18290SOL    HW259809   1.801   4.318   9.234 -0.5536 -0.4247 -0.5071
18291SOL     OW59810   7.315   9.447  10.340  0.2532  0.4263  0.1203
18291SOL    HW159811   7.230   9.406  10.322  0.9215 -0.6399 -0.7170
18291SOL    HW259812   7.325   9.443  10.435 -0.8880  1.1221  0.2898
18292SOL     OW59813   5.027   4.844   4.276 -0.1147  0.7882 -0.1292
18292SOL    HW159814   4.945   4.891   4.265 -1.0377 -0.5078  0.8523
18292SOL    HW259815   5.044   4.804   4.190 -1.5153 -0.4252  0.1064
18293SOL     OW59816   8.823   3.573   9.367  0.5908  0.0289  0.2776
18293SOL    HW159817   8.795   3.605   9.453  0.3569  0.8903 -0.1176
18293SOL    HW259818   8.780   3.488   9.359 -0.6316  0.6227  0.3603
18294SOL     OW59819   6.282   3.996  10.717 -0.0071 -0.0742  0.5046
18294SOL    HW159820   6.315   4.051  10.646  1.0344  0.8135  1.6235
18294SOL    HW259821   6.337   3.917  10.712 -1.8820 -1.3729 -1.4629
18295SOL     OW59822   7.917   5.628   6.944 -0.1663  0.1405 -0.4088
18295SOL    HW159823   7.904   5.548   6.893  0.4456  1.1707 -2.2666
18295SOL    HW259824   7.882   5.698   6.888  1.9605  1.4990 -0.1485
18296SOL     OW59825  10.539   0.817   1.957 -0.3293 -0.3783 -0.2643
18296SOL    HW159826  10.635   0.812   1.956 -0.3244 -0.4963  0.3131
18296SOL    HW259827  10.516   0.803   2.049 -0.8464  0.7406 -0.2044
18297SOL     OW59828   8.102   7.196   7.527 -0.2150 -0.7719 -0.0604
18297SOL    HW159829   8.041   7.143   7.579 -0.0389 -0.9197 -0.0068
18297SOL    HW259830   8.049   7.272   7.499 -0.7746 -1.4893 -1.0119
18298SOL     OW59831   8.953   4.266   6.688  0.1168 -0.2187 -0.5847
18298SOL    HW159832   9.045   4.291   6.698 -0.4581  1.2410  1.9160
18298SOL    HW259833   8.906   4.349   6.689 -1.4321 -1.0703  1.4004
18299SOL     OW59834   2.139   1.971   8.799  0.2293  0.3795  0.7161
18299SOL    HW159835   2.116   2.054   8.840  0.6872  0.0263  1.7054
18299SOL    HW259836   2.108   1.904   8.860 -0.0584 -0.1862 -0.0296
18300SOL     OW59837   5.655   2.548   8.814 -0.1425 -0.0352 -0.2823
18300SOL    HW159838   5.694   2.461   8.810 -1.2676 -0.5830  0.2783
18300SOL    HW259839   5.629   2.567   8.723  0.0904 -0.2740 -0.4008
18301SOL     OW59840   9.866  10.687   2.970  0.1901 -0.2880 -0.3193
18301SOL    HW159841   9.959  10.703   2.955 -0.2822  0.8366 -2.3186
18301SOL    HW259842   9.821  10.755   2.919 -1.7461 -1.3681 -0.1373
18302SOL     OW59843   1.856   5.257   7.964  0.0939  0.0494 -0.2923
18302SOL    HW159844   1.763   5.246   7.947 -0.1054  0.9940  0.1077
18302SOL    HW259845   1.882   5.334   7.913  0.2997  0.7020  0.7474
18303SOL     OW59846  11.161  11.611   2.665 -0.5710  0.2176  0.2296
18303SOL    HW159847  11.150  11.699   2.701  0.0508  0.9449 -1.2678
18303SOL    HW259848  11.101  11.608   2.590  2.1860  0.8283 -2.1530
18304SOL     OW59849   5.536   4.001   1.572  0.4503  0.2415  0.5305
18304SOL    HW159850   5.532   4.034   1.662  2.6169  1.2405  0.3352
18304SOL    HW259851   5.448   3.968   1.554  0.2463 -1.1602  3.4524
18305SOL     OW59852   4.807   4.954   9.539 -0.7829  0.1542  0.1522
18305SOL    HW159853   4.794   4.993   9.453  1.7250 -0.7361 -0.7016
18305SOL    HW259854   4.804   5.028   9.600 -3.4041  0.7036 -0.5231
18306SOL     OW59855   1.585   0.700   5.452 -0.3214 -0.1557  0.2680
18306SOL    HW159856   1.574   0.785   5.411 -1.3522 -0.5425 -0.2784
18306SOL    HW259857   1.562   0.715   5.544  0.2472  0.3114  0.3439
18307SOL     OW59858  11.591   0.056   8.142 -0.0481  0.1872  0.1731
18307SOL    HW159859  11.583   0.020   8.230  1.4114 -0.2784  0.1335
18307SOL    HW259860  11.591   0.151   8.155 -1.3317  0.1612  0.5120
18308SOL     OW59861  10.687   3.952   9.602 -0.3647  0.2997 -0.6002
18308SOL    HW159862  10.695   4.047   9.615 -0.7618  0.2007  0.4637
18308SOL    HW259863  10.594   3.934   9.615  0.0322 -0.5362  1.5149
18309SOL     OW59864   7.784   3.035   7.954 -0.3749  0.1270  0.6621
18309SOL    HW159865   7.702   2.994   7.925  0.6618 -0.4112 -1.7396
18309SOL    HW259866   7.773   3.128   7.935  0.2619 -0.2002 -1.7225
18310SOL     OW59867   5.647   9.339   2.056  1.0439  0.1071  0.4418
18310SOL    HW159868   5.682   9.367   2.141  2.4830 -0.0852 -0.0519
18310SOL    HW259869   5.609   9.419   2.019 -0.4086 -0.0060  1.6222
18311SOL     OW59870  11.615   4.766   8.529  0.9242  0.1812 -0.0973
18311SOL    HW159871  11.600   4.836   8.465 -0.9638  0.3779  0.4965
18311SOL    HW259872  11.609   4.809   8.614  0.0931 -0.6364  0.2718
18312SOL     OW59873   6.533   1.335   4.213 -0.1407  0.5296 -0.7575
18312SOL    HW159874   6.552   1.277   4.140 -0.6480 -0.2574 -0.2742
18312SOL    HW259875   6.453   1.301   4.252 -0.7719  1.8936 -0.8000
18313SOL     OW59876   4.304   3.274   3.314 -0.2279  0.4415  0.1107
18313SOL    HW159877   4.323   3.349   3.257 -1.1323  0.2792 -0.4188
18313SOL    HW259878   4.314   3.309   3.402  1.6006  0.5943 -0.1021
18314SOL     OW59879   5.175   1.127   0.510 -0.1111 -0.4298  0.1432
18314SOL    HW159880   5.199   1.211   0.470 -1.3750 -0.3757 -0.5365
18314SOL    HW259881   5.258   1.079   0.516  0.6477  0.9052  0.6561
18315SOL     OW59882  10.616  10.968   7.662 -0.3861 -0.0238  0.0086
18315SOL    HW159883  10.605  11.013   7.579  2.3077  0.3090 -0.2407
18315SOL    HW259884  10.626  10.875   7.638  1.6780  0.2232 -0.2077
18316SOL     OW59885  10.392   8.880  11.099  0.4406  0.6815 -0.1138
18316SOL    HW159886  10.369   8.793  11.133  0.3687  1.2476  1.3513
18316SOL    HW259887  10.319   8.936  11.127  0.2748  1.1449 -1.4170
18317SOL     OW59888   9.784   4.850   4.706  0.4018 -0.2581  0.1422
18317SOL    HW159889   9.761   4.899   4.785  2.1158 -0.5452  0.8695
18317SOL    HW259890   9.838   4.911   4.656 -0.0674 -0.3358 -0.4668
18318SOL     OW59891  10.525   7.985   6.150  0.1823 -0.2164  0.0735
18318SOL    HW159892  10.436   8.017   6.142  0.6904  1.1995 -0.2489
18318SOL    HW259893  10.518   7.890   6.143 -1.0287 -0.0226 -2.7376
18319SOL     OW59894   3.540   5.812   6.592 -0.4927  0.0411 -0.2226
18319SOL    HW159895   3.622   5.835   6.549 -0.9414 -0.2022 -1.2637
18319SOL    HW259896   3.486   5.776   6.521 -1.1782 -0.6072  0.6143
18320SOL     OW59897  11.533   0.381  10.065  0.5256  0.3285 -0.7296
18320SOL    HW159898  11.613   0.402  10.114  0.6374 -1.8198  0.1430
18320SOL    HW259899  11.462   0.412  10.121  0.7086  0.5199 -0.5991
18321SOL     OW59900   7.175   1.563   1.978  0.7138  0.3323 -0.4972
18321SOL    HW159901   7.263   1.573   2.015  0.9929  0.2654 -1.1248
18321SOL    HW259902   7.116   1.598   2.045  1.1783 -0.1107  0.1552
18322SOL     OW59903   1.615   5.711  11.002 -0.3197 -0.4421 -0.1598
18322SOL    HW159904   1.634   5.802  11.023  0.3230 -0.4812 -0.5567
18322SOL    HW259905   1.537   5.714  10.947 -2.7967 -0.4044  3.0770
18323SOL     OW59906   2.421  10.819  11.422  0.0781  0.0593 -0.0906
18323SOL    HW159907   2.419  10.725  11.401 -1.1199  0.0232  0.0856
18323SOL    HW259908   2.387  10.824  11.511  1.4852  0.5508  0.4420
18324SOL     OW59909   3.058   8.406   1.894  0.6672  0.1434 -0.5334
18324SOL    HW159910   3.120   8.333   1.892 -0.4559 -0.9285  0.9215
18324SOL    HW259911   3.018   8.407   1.807  1.4389 -0.2992 -0.9005
18325SOL     OW59912   9.318   5.024   2.397 -0.3847 -0.2929 -0.0765
18325SOL    HW159913   9.240   4.972   2.414 -1.0398  0.8099  0.3509
18325SOL    HW259914   9.389   4.959   2.391 -1.3510 -1.3274 -0.7319
18326SOL     OW59915   1.157   1.964   9.770 -0.2328  0.3324 -0.1336
18326SOL    HW159916   1.245   1.964   9.807  0.2469  0.0789 -1.2436
18326SOL    HW259917   1.151   2.048   9.724 -0.8868  0.7214  0.6308
18327SOL     OW59918   3.766   1.738   1.359 -0.4490  0.1083 -0.1738
18327SOL    HW159919   3.757   1.760   1.452 -1.8218  1.4453 -0.5946
18327SOL    HW259920   3.810   1.814   1.321 -0.3868 -0.2025 -0.7304
18328SOL     OW59921   6.979   5.072   1.193  0.8236 -0.5121  0.0623
18328SOL    HW159922   6.920   5.111   1.129  0.6843  1.5142  1.3294
18328SOL    HW259923   7.005   4.988   1.154  1.0431  0.7693 -2.7830
18329SOL     OW59924  10.054   9.143   9.927  0.0794  0.4483 -0.6316
18329SOL    HW159925  10.051   9.113   9.836 -1.7233 -0.4695 -0.3129
18329SOL    HW259926  10.035   9.065   9.979  1.4280  0.8831  0.5838
18330SOL     OW59927   7.574   5.550   4.473  0.0243 -0.2548 -0.1160
18330SOL    HW159928   7.552   5.599   4.552 -0.8488  0.7123 -0.9201
18330SOL    HW259929   7.670   5.553   4.468  0.0151  1.0301  0.0912
18331SOL     OW59930   0.042   0.190   4.041  0.1693 -0.3330 -0.1258
18331SOL    HW159931  -0.048   0.187   4.010 -0.3947 -0.2115  1.3899
18331SOL    HW259932   0.074   0.100   4.030 -0.6222 -0.7234  0.6181
18332SOL     OW59933   0.128   6.600  11.161 -0.2304 -0.3124 -0.1028
18332SOL    HW159934   0.174   6.640  11.087  1.4715  1.5077  1.8060
18332SOL    HW259935   0.108   6.674  11.219 -0.9453 -1.7432  1.5421
18333SOL     OW59936   8.699   7.731   1.161  0.5864 -0.0791 -0.1582
18333SOL    HW159937   8.791   7.705   1.170  0.5647 -0.0238  0.2274
18333SOL    HW259938   8.670   7.747   1.250 -0.3072 -1.7768 -0.1143
18334SOL     OW59939   2.531   1.918   9.020  0.1378  0.2475  0.5956
18334SOL    HW159940   2.605   1.857   9.021 -1.3711 -1.6516  0.8265
18334SOL    HW259941   2.474   1.886   8.951 -0.4742  1.7463  0.3612
18335SOL     OW59942   2.514   9.229   6.959 -0.3025  0.2520 -0.0337
18335SOL    HW159943   2.426   9.242   6.997  0.1836  2.2807  0.5318
18335SOL    HW259944   2.508   9.145   6.913 -2.1129 -0.3629  1.1921
18336SOL     OW59945   3.735   4.688   9.641  0.2140 -0.6340 -0.5904
18336SOL    HW159946   3.722   4.634   9.563 -0.4457 -0.6728 -0.4608
18336SOL    HW259947   3.700   4.774   9.616 -0.7538 -0.8647 -0.0804
18337SOL     OW59948   2.650   7.805   8.161 -0.6794 -0.0029  0.5218
18337SOL    HW159949   2.707   7.806   8.238  1.2113  1.4210 -0.7913
18337SOL    HW259950   2.685   7.736   8.105  0.2444  1.2650 -0.5569
18338SOL     OW59951  11.598   7.704  11.099  0.2354  0.0634 -0.3508
18338SOL    HW159952  11.643   7.672  11.021 -0.0566 -0.3176 -0.3672
18338SOL    HW259953  11.660   7.766  11.139  0.7855 -0.4755 -0.3552
18339SOL     OW59954   4.457   2.336   7.198  0.7504  0.2362  0.1218
18339SOL    HW159955   4.378   2.288   7.221  0.0680  1.0428 -0.4700
18339SOL    HW259956   4.491   2.369   7.281  0.2607  0.1997  0.3353
18340SOL     OW59957  10.623  10.884   8.839 -0.3599 -0.2358 -0.4819
18340SOL    HW159958  10.622  10.974   8.870 -1.7997  0.2430 -1.7662
18340SOL    HW259959  10.679  10.885   8.761 -0.3233 -0.4739 -0.4614
18341SOL     OW59960   1.915  11.554   8.570 -0.5066  0.6789 -0.0432
18341SOL    HW159961   1.963  11.488   8.621 -0.4204  0.8870  0.1470
18341SOL    HW259962   1.827  11.553   8.607 -0.7906 -0.0421 -0.7077
18342SOL     OW59963   9.618   2.922   6.626  1.1335 -0.3938  0.6732
18342SOL    HW159964   9.655   2.924   6.715 -0.8837 -0.7429  1.5614
18342SOL    HW259965   9.609   2.829   6.606  2.4205 -0.3331 -0.3038
18343SOL     OW59966   5.168   7.130   4.124  0.4297  0.0420  0.4102
18343SOL    HW159967   5.143   7.073   4.197 -0.1894  0.6326  0.6638
18343SOL    HW259968   5.264   7.125   4.122  0.5251  0.7794  1.8843
18344SOL     OW59969   2.698   8.228  11.579  0.0013 -0.3995 -0.0138
18344SOL    HW159970   2.720   8.154  11.523  0.1083  0.4671 -1.1481
18344SOL    HW259971   2.770   8.289  11.567 -0.6459  0.3788  0.0053
18345SOL     OW59972   9.622   9.123   1.692  0.3189  0.8753  0.1774
18345SOL    HW159973   9.680   9.067   1.743 -2.0143 -1.0488  0.9319
18345SOL    HW259974   9.589   9.187   1.756 -1.4364 -0.5966  0.8499
18346SOL     OW59975   0.127  10.560   5.721 -0.3737  0.5421 -0.4000
18346SOL    HW159976   0.057  10.626   5.726  0.6296  1.5908  0.2138
18346SOL    HW259977   0.127  10.532   5.629 -2.1134 -0.0869 -0.2603
18347SOL     OW59978   5.427   6.276   6.945  0.2335  1.1721 -0.3214
18347SOL    HW159979   5.498   6.332   6.978  1.1479 -0.3060  0.3277
18347SOL    HW259980   5.368   6.336   6.900  1.6097  2.5408 -0.3888
18348SOL     OW59981   0.637  10.907   2.322  0.1446 -0.5810 -0.2803
18348SOL    HW159982   0.672  10.893   2.234  1.5518 -0.5992  0.2712
18348SOL    HW259983   0.665  10.830   2.371  1.6563  0.6515  0.8731
18349SOL     OW59984   4.613   1.471   3.308  0.4495  0.0616 -0.6283
18349SOL    HW159985   4.554   1.544   3.326 -1.2332 -0.8852 -1.9207
18349SOL    HW259986   4.558   1.408   3.260  1.4237 -2.6701  1.6010
18350SOL     OW59987   7.954   4.147   9.626  0.2649  0.0370  0.1732
18350SOL    HW159988   8.047   4.128   9.615  0.3507  0.6427 -0.1554
18350SOL    HW259989   7.926   4.183   9.542  0.1981  1.7278  0.8911
18351SOL     OW59990   0.767   3.222   2.410 -0.3162 -0.2402  0.4902
18351SOL    HW159991   0.838   3.226   2.346  0.1214  0.6256  1.0195
18351SOL    HW259992   0.810   3.223   2.495 -0.9285 -0.5370  0.8158
18352SOL     OW59993   7.534  10.544  10.108 -0.4440 -0.1874  0.0742
18352SOL    HW159994   7.451  10.507  10.076  0.2336  0.0015 -2.0546
18352SOL    HW259995   7.596  10.528  10.038  0.8363  1.5103  0.7454
18353SOL     OW59996  10.298   6.949   6.194  0.1780  0.5015 -0.2601
18353SOL    HW159997  10.280   6.924   6.285  1.2958 -2.0756 -0.6506
18353SOL    HW259998  10.392   6.969   6.194  0.5757 -1.1851 -1.1151
18354SOL     OW59999   3.058   9.738   0.459  0.0171 -0.1222 -0.3134
18354SOL    HW160000   2.997   9.668   0.437 -0.8643  0.8873 -1.1847
18354SOL    HW260001   3.111   9.702   0.530 -0.9864 -1.3409 -0.1481
18355SOL     OW60002   7.213   7.839   4.778  0.0480 -0.1516 -0.3243
18355SOL    HW160003   7.196   7.883   4.694 -1.4180 -2.3168 -1.2808
18355SOL    HW260004   7.147   7.875   4.837  0.3509  0.5703 -0.4127
18356SOL     OW60005  11.226   6.660   6.670 -0.0555  0.0054  0.3616
18356SOL    HW160006  11.294   6.726   6.657 -1.4368  1.5847  0.6707
18356SOL    HW260007  11.215   6.656   6.765  0.1677 -0.8541  0.3559
18357SOL     OW60008   7.608   2.286  10.749 -0.0670  0.0386  0.1648
18357SOL    HW160009   7.606   2.202  10.703 -0.0008 -0.9325  1.8601
18357SOL    HW260010   7.517   2.316  10.747 -0.3742 -0.7905  0.7477
18358SOL     OW60011   5.236   9.827   5.343  0.6600 -0.6315  0.2887
18358SOL    HW160012   5.216   9.849   5.434  0.5152  0.2746  0.0480
18358SOL    HW260013   5.171   9.761   5.320 -0.3358  0.2838  0.3704
18359SOL     OW60014   7.848   3.839   5.691  0.2928 -0.0980 -0.5956
18359SOL    HW160015   7.855   3.768   5.626 -2.3979 -1.2020  0.1793
18359SOL    HW260016   7.858   3.795   5.775 -0.1286  0.6724 -0.1383
18360SOL     OW60017   7.138   6.825   2.255  0.6793 -0.6633 -0.2885
18360SOL    HW160018   7.139   6.823   2.350  1.1036 -0.4858 -0.2899
18360SOL    HW260019   7.079   6.753   2.230 -0.8610  0.4122  0.1355
18361SOL     OW60020   0.411  10.707   3.763  0.0322  0.7501  0.6077
18361SOL    HW160021   0.446  10.794   3.782 -0.5305  1.1408 -0.1040
18361SOL    HW260022   0.473  10.669   3.700 -0.8243  1.4725 -0.7144
18362SOL     OW60023   7.775   9.430   4.882  0.1469  0.5974 -0.5790
18362SOL    HW160024   7.759   9.342   4.914 -1.3680  1.3585  0.9704
18362SOL    HW260025   7.688   9.471   4.880  0.9696  2.5230  0.2894
18363SOL     OW60026  10.177   6.014   3.614 -0.5906  0.3154 -0.2981
18363SOL    HW160027  10.087   5.985   3.601 -1.4571  2.5893  0.1171
18363SOL    HW260028  10.186   6.024   3.709  1.7298 -4.3395  0.2903
18364SOL     OW60029   4.198  11.302  11.689  0.2859  0.4859  0.3976
18364SOL    HW160030   4.253  11.262  11.621  0.3986  0.2285  0.6390
18364SOL    HW260031   4.255  11.366  11.731 -0.0750  1.3402 -0.3853
18365SOL     OW60032   3.328   8.132   0.206 -0.0631 -0.0328 -0.1566
18365SOL    HW160033   3.371   8.056   0.167  0.7991  0.8792 -1.0131
18365SOL    HW260034   3.280   8.096   0.281  1.7735 -1.1468  0.5361
18366SOL     OW60035   3.414   9.069   1.366 -0.0716  0.6889 -0.3413
18366SOL    HW160036   3.407   8.986   1.413 -0.0997  0.7117 -0.3047
18366SOL    HW260037   3.369   9.133   1.422  0.1225  0.7670 -0.2739
18367SOL     OW60038   4.615  11.472   1.623  0.0029 -0.3040 -0.0883
18367SOL    HW160039   4.600  11.484   1.529 -0.2190  1.6114  0.1535
18367SOL    HW260040   4.704  11.439   1.628 -0.6019 -2.2231 -1.0374
18368SOL     OW60041   0.789   3.137  10.867 -0.0702 -0.8160 -0.2476
18368SOL    HW160042   0.833   3.205  10.917 -1.7641 -0.3952  0.7685
18368SOL    HW260043   0.840   3.128  10.787  2.4923 -1.1670  1.3014
18369SOL     OW60044  11.224   9.274   0.055  0.0503 -0.2772  0.3563
18369SOL    HW160045  11.197   9.364   0.071 -2.0192 -1.0924  2.1002
18369SOL    HW260046  11.205   9.259  -0.038 -0.3499  0.8650  0.2412
18370SOL     OW60047   3.482   0.998   9.571 -0.1651 -0.7267  0.4087
18370SOL    HW160048   3.453   0.942   9.643  0.0151 -1.6285 -0.1993
18370SOL    HW260049   3.476   1.087   9.606 -2.2972 -0.9550  0.7685
18371SOL     OW60050   2.588   5.666   0.826 -0.2240 -0.5941  0.1791
18371SOL    HW160051   2.609   5.719   0.749 -1.6945  1.9072  1.4150
18371SOL    HW260052   2.492   5.667   0.831 -0.2008 -1.6832  1.4079
18372SOL     OW60053   8.556   7.958   7.442  0.2432 -0.0923  0.3205
18372SOL    HW160054   8.624   7.964   7.509  0.0546  0.1773  0.4913
18372SOL    HW260055   8.540   8.049   7.417 -0.6923 -0.0700  0.9302
18373SOL     OW60056   7.860   8.352   4.866 -0.2559 -0.7264 -0.0411
18373SOL    HW160057   7.876   8.412   4.793 -1.7248  0.2321  0.3966
18373SOL    HW260058   7.948   8.328   4.896  0.3899  1.5182  0.0256
18374SOL     OW60059  11.638   2.316   5.242  0.2334 -0.2638 -0.5205
18374SOL    HW160060  11.639   2.266   5.323 -0.9676 -0.1370 -0.4094
18374SOL    HW260061  11.599   2.400   5.266  2.0801  0.7197 -0.7309
18375SOL     OW60062   8.769   1.946   6.966 -0.6549  0.0760  0.3032
18375SOL    HW160063   8.791   1.868   6.915 -0.1175  0.2584  0.2545
18375SOL    HW260064   8.830   1.943   7.040 -1.0490  0.1196  0.6313
18376SOL     OW60065   7.290   2.475   2.227  0.2659  0.4403  0.5928
18376SOL    HW160066   7.371   2.425   2.212  0.6661  1.4613 -0.8450
18376SOL    HW260067   7.290   2.541   2.159 -1.2417  1.1816  1.2720
18377SOL     OW60068   8.892   1.435   6.029 -0.1470  0.6407  0.2970
18377SOL    HW160069   8.882   1.522   6.067  0.1004 -0.0191  1.9584
18377SOL    HW260070   8.821   1.429   5.965 -1.0891  1.5393  1.2086
18378SOL     OW60071   5.645   2.524   5.935 -0.0290  0.1156 -0.0382
18378SOL    HW160072   5.623   2.472   6.012  0.0598 -0.6233 -0.4976
18378SOL    HW260073   5.647   2.460   5.863  0.3431  0.7141 -0.5695
18379SOL     OW60074  11.150   3.560   1.907  0.1040  0.0290 -0.3310
18379SOL    HW160075  11.110   3.477   1.880 -1.8064  0.7422  0.1466
18379SOL    HW260076  11.145   3.559   2.003 -2.0300  1.6092 -0.3592
18380SOL     OW60077   1.028   0.684   9.045 -0.0269 -0.2160 -0.0993
18380SOL    HW160078   1.068   0.719   9.124  0.7292 -1.3384  0.0366
18380SOL    HW260079   0.949   0.638   9.076 -0.8560  1.0566 -0.2464
18381SOL     OW60080   0.604   7.384   2.788 -0.5965  0.3120  0.7327
18381SOL    HW160081   0.549   7.360   2.863 -1.4123 -1.7002 -0.4107
18381SOL    HW260082   0.542   7.392   2.715 -0.0120  3.5094  0.4128
18382SOL     OW60083   7.720   4.943   4.552  0.0567 -0.4987  0.3007
18382SOL    HW160084   7.649   4.958   4.615  0.1526 -0.8567  0.4936
18382SOL    HW260085   7.761   5.029   4.543  0.1239 -0.4715  0.8283
18383SOL     OW60086   1.550   1.787   9.612  0.0892 -0.0307 -0.3868
18383SOL    HW160087   1.570   1.819   9.524  2.1535  0.0838  0.0598
18383SOL    HW260088   1.567   1.693   9.607 -1.6263 -0.3537 -0.5632
18384SOL     OW60089   8.703   6.495   4.412  0.8311 -0.1731 -0.2528
18384SOL    HW160090   8.645   6.420   4.425  0.5083  0.2561  0.8814
18384SOL    HW260091   8.751   6.474   4.331  2.5985 -2.7990  1.3218
18385SOL     OW60092   8.776   6.090   6.933  0.3576 -0.8891  0.0006
18385SOL    HW160093   8.715   6.018   6.918 -1.8302  0.1844  2.7557
18385SOL    HW260094   8.846   6.051   6.987  0.0220 -1.3122  0.1379
18386SOL     OW60095  11.458  11.140   1.957 -0.0493 -0.2234 -0.1461
18386SOL    HW160096  11.393  11.211   1.951  1.0064  0.7431 -0.3745
18386SOL    HW260097  11.476  11.132   2.051  1.5199  1.4274 -0.2453
18387SOL     OW60098   7.586   1.472   3.153  0.1620 -0.2860  0.6059
18387SOL    HW160099   7.561   1.382   3.133 -0.6961  0.2540 -0.9139
18387SOL    HW260100   7.508   1.510   3.195 -0.1760  0.2643 -0.4844
18388SOL     OW60101   8.302  10.259   5.014 -1.3247 -0.3183  0.3318
18388SOL    HW160102   8.303  10.323   4.944  0.5432 -0.4276  0.1983
18388SOL    HW260103   8.317  10.175   4.970  0.8000 -0.2832  0.8902
18389SOL     OW60104   1.334   7.122   4.272  0.0859 -0.0322  0.0238
18389SOL    HW160105   1.289   7.186   4.217  1.2535  0.9451  0.1771
18389SOL    HW260106   1.416   7.165   4.298 -0.0617 -0.7635  1.8737
18390SOL     OW60107   5.839   4.966   4.274  0.1630 -0.2280 -0.2563
18390SOL    HW160108   5.821   5.013   4.355  0.7493  0.5130 -0.5448
18390SOL    HW260109   5.932   4.945   4.278  0.5162  0.9708 -1.2915
18391SOL     OW60110   4.617   9.924   4.053  0.4222 -0.2248  0.5775
18391SOL    HW160111   4.623   9.828   4.048  0.1154 -0.4904  3.5045
18391SOL    HW260112   4.525   9.944   4.038  0.5698 -0.3076 -0.5226
18392SOL     OW60113   0.460  10.191   0.545  0.6193  0.3717  0.4535
18392SOL    HW160114   0.418  10.127   0.602  0.9095 -0.1913  0.0480
18392SOL    HW260115   0.437  10.276   0.582  0.4331  0.0233  1.1404
18393SOL     OW60116  10.273   2.880   2.130  0.0532 -0.5512 -0.0551
18393SOL    HW160117  10.254   2.972   2.113 -1.3403 -1.4675 -4.8653
18393SOL    HW260118  10.186   2.840   2.143  0.3954 -1.5763 -0.8253
18394SOL     OW60119  11.185  11.169   3.311  0.2179 -0.8293  0.0851
18394SOL    HW160120  11.161  11.208   3.227  1.1991 -0.6536 -0.1248
18394SOL    HW260121  11.102  11.143   3.350 -0.6037  2.0183  0.5000
18395SOL     OW60122   5.701   3.076   8.967  0.3733  0.4804  0.1404
18395SOL    HW160123   5.628   3.109   9.020  0.5905  1.0222  0.1150
18395SOL    HW260124   5.679   2.985   8.949 -0.3044  0.6472  0.1136
18396SOL     OW60125  10.830   4.648  10.890  0.2320  0.3373  0.1195
18396SOL    HW160126  10.790   4.570  10.850  0.3102  0.4034 -0.0863
18396SOL    HW260127  10.834   4.627  10.983  2.2329 -0.7894 -0.1632
18397SOL     OW60128   5.086   7.237   4.719 -0.0009 -0.3218  0.8160
18397SOL    HW160129   5.125   7.311   4.672 -2.1468 -0.0574 -0.6803
18397SOL    HW260130   4.998   7.267   4.743 -1.2345 -2.5587 -0.4905
18398SOL     OW60131   3.738   6.206   2.414  0.4126  0.3607  0.2240
18398SOL    HW160132   3.767   6.200   2.323 -0.3422 -0.0705 -0.0050
18398SOL    HW260133   3.655   6.254   2.409  1.1619  1.7597  0.8802
18399SOL     OW60134   5.757  10.953   0.450 -0.2389 -0.6944 -0.0683
18399SOL    HW160135   5.713  11.036   0.430  2.7395  0.6183 -1.9763
18399SOL    HW260136   5.774  10.914   0.365  2.1988 -1.0761  0.5175
18400SOL     OW60137   5.378   9.565   9.973 -0.1785 -0.6386 -0.5011
18400SOL    HW160138   5.405   9.490   9.919 -0.9291 -0.4067 -1.2287
18400SOL    HW260139   5.284   9.554   9.984 -0.1117 -0.3967  0.3367
18401SOL     OW60140   4.908   3.359   3.773  0.2647  0.1196  0.3661
18401SOL    HW160141   4.906   3.454   3.760  0.0431  0.3013  1.5573
18401SOL    HW260142   4.990   3.331   3.734 -0.8090  0.3939 -2.3469
18402SOL     OW60143   8.744   2.887  10.614  0.5259  0.4653 -0.0461
18402SOL    HW160144   8.729   2.812  10.555 -0.5569  0.8662 -0.3050
18402SOL    HW260145   8.675   2.949  10.591 -0.5862  0.2127  2.3473
18403SOL     OW60146   3.894   9.236   6.630  0.1927 -0.1078 -0.0503
18403SOL    HW160147   3.890   9.322   6.670  2.0828 -0.2144  0.4516
18403SOL    HW260148   3.857   9.177   6.696 -1.6612  0.3441 -0.6295
18404SOL     OW60149   2.825   0.418   0.372  0.0057  0.1237  0.2798
18404SOL    HW160150   2.918   0.433   0.355  0.1668 -0.6532  0.4400
18404SOL    HW260151   2.790   0.390   0.287 -0.2916  1.3337 -0.0154
18405SOL     OW60152   7.342   8.569  11.646 -0.1386  0.6008  0.7067
18405SOL    HW160153   7.400   8.598  11.576  1.4944  3.6922  3.1165
18405SOL    HW260154   7.397   8.515  11.703 -1.1070 -0.8168  0.3715
18406SOL     OW60155   3.191   0.079   5.777  0.6027 -0.4121  0.3405
18406SOL    HW160156   3.260   0.054   5.715  0.2253  0.0492 -0.2886
18406SOL    HW260157   3.227   0.059   5.863  2.2109  1.3973  0.1567
18407SOL     OW60158   2.139   4.249  11.085  0.1570 -0.3419 -0.0809
18407SOL    HW160159   2.071   4.202  11.038 -0.2140  0.4063 -0.3183
18407SOL    HW260160   2.163   4.192  11.157  0.3238 -1.2594 -0.8428
18408SOL     OW60161   8.387   6.654   3.077 -0.4640  0.5035  0.5075
18408SOL    HW160162   8.442   6.580   3.052 -0.2939  1.1776 -1.2578
18408SOL    HW260163   8.298   6.625   3.057 -0.3264  1.0559 -1.1258
18409SOL     OW60164   5.562   1.369   9.596 -0.0629 -0.3694  0.3219
18409SOL    HW160165   5.552   1.411   9.681 -0.2500  0.7059 -0.2214
18409SOL    HW260166   5.654   1.384   9.572 -0.3438  0.4933 -0.2578
18410SOL     OW60167   6.235   7.366   4.876  0.2998 -0.5399  0.0235
18410SOL    HW160168   6.295   7.381   4.803  3.5192 -2.1553  2.1055
18410SOL    HW260169   6.183   7.290   4.849  1.4327 -1.1071 -0.5959
18411SOL     OW60170   0.638   6.161   9.778 -0.2053  0.5156 -0.1172
18411SOL    HW160171   0.623   6.134   9.687 -0.5127  1.4436 -0.3551
18411SOL    HW260172   0.581   6.104   9.830  2.7169 -2.6941 -0.0665
18412SOL     OW60173   4.296   4.516   7.018  0.2826  0.6766  0.6853
18412SOL    HW160174   4.239   4.499   7.092  1.3107 -0.9629  1.1628
18412SOL    HW260175   4.376   4.468   7.038  1.0187  1.1340 -0.9642
18413SOL     OW60176   9.759   5.152   0.182  0.3519  0.1723  0.2533
18413SOL    HW160177   9.707   5.204   0.244  0.4509  0.4928  0.0669
18413SOL    HW260178   9.719   5.168   0.097 -0.0479 -0.5986  0.2804
18414SOL     OW60179   5.042   0.116  11.022 -0.1354  0.1798 -0.5714
18414SOL    HW160180   4.951   0.101  10.997 -0.1048  0.5839 -0.9328
18414SOL    HW260181   5.043   0.205  11.057  0.2861  0.5094 -1.3947
18415SOL     OW60182   0.585   9.008   1.669 -0.2998  0.1077 -0.2123
18415SOL    HW160183   0.501   8.977   1.634 -0.2072 -0.9980  0.4911
18415SOL    HW260184   0.598   8.956   1.748  2.0290 -1.2584 -1.3965
18416SOL     OW60185  10.430   5.377   0.431  0.2004  0.1181 -0.2890
18416SOL    HW160186  10.511   5.329   0.451  0.6584  1.4925  1.4232
18416SOL    HW260187  10.453   5.434   0.358  0.7295  0.3775  0.0776
18417SOL     OW60188   7.400   9.647   6.527 -0.0009 -0.1919 -0.1068
18417SOL    HW160189   7.407   9.600   6.444 -0.2494 -0.3997 -0.0125
18417SOL    HW260190   7.307   9.669   6.535  0.0331 -0.1090  0.0813
18418SOL     OW60191   2.104   1.104   7.442 -0.0139  0.1718  0.3891
18418SOL    HW160192   2.050   1.079   7.367  1.2095 -3.5644  0.5359
18418SOL    HW260193   2.193   1.108   7.406  0.2409  1.1773  1.1204
18419SOL     OW60194   5.470   3.969   6.969  0.4258 -0.1714  0.0462
18419SOL    HW160195   5.433   4.050   6.934 -1.9803 -0.6055  1.3352
18419SOL    HW260196   5.423   3.899   6.923  1.1184 -0.8030  0.2848
18420SOL     OW60197   3.030   9.090   0.604  0.1388 -0.1021 -0.4750
18420SOL    HW160198   3.012   9.011   0.654  1.8490 -1.1421 -1.3984
18420SOL    HW260199   3.125   9.098   0.606  0.1261  0.8015 -2.0720
18421SOL     OW60200   3.052   0.758   0.658  0.0022 -0.0349  0.4289
18421SOL    HW160201   2.969   0.742   0.702  0.0721 -0.6043  0.3639
18421SOL    HW260202   3.087   0.837   0.700 -0.5039  0.1260  0.5477
18422SOL     OW60203   2.556   6.040   1.773 -0.3295 -0.3856 -0.4581
18422SOL    HW160204   2.566   5.950   1.803  0.9713 -0.7821 -1.9289
18422SOL    HW260205   2.461   6.050   1.759 -0.7166 -0.8782  1.4727
18423SOL     OW60206   9.502   1.216  10.193  0.4513  0.3813  0.4737
18423SOL    HW160207   9.589   1.202  10.155  0.0004  2.3138 -1.4804
18423SOL    HW260208   9.485   1.309  10.180 -2.0477  0.0013  0.4870
18424SOL     OW60209   9.148   6.214   0.736  0.1125  0.5561  0.0984
18424SOL    HW160210   9.093   6.253   0.668 -0.5808 -0.1810  0.2218
18424SOL    HW260211   9.187   6.137   0.694  1.3162  1.2303 -0.0818
18425SOL     OW60212  10.729   7.240  11.599  0.2654 -0.2430 -0.4052
18425SOL    HW160213  10.693   7.311  11.653  1.7721 -0.5265  1.0407
18425SOL    HW260214  10.671   7.166  11.614 -0.6499  0.3353 -1.0129
18426SOL     OW60215   9.581  10.672   1.723 -0.6072  0.2196 -0.5858
18426SOL    HW160216   9.599  10.722   1.643 -0.1311  0.0947 -0.5601
18426SOL    HW260217   9.611  10.728   1.794  0.4655 -0.3300 -0.5877
18427SOL     OW60218   9.914   5.244   3.839  0.2290  0.7835  0.1839
18427SOL    HW160219   9.996   5.283   3.808  0.2099  1.3621  0.8511
18427SOL    HW260220   9.914   5.156   3.801  1.1801  0.7648  0.2023
18428SOL     OW60221   6.380  10.340   9.211  0.6045 -0.4574  0.0098
18428SOL    HW160222   6.415  10.394   9.140  1.4124 -1.2250 -0.1912
18428SOL    HW260223   6.414  10.381   9.291 -0.5884  0.6126 -0.0054
18429SOL     OW60224   2.095   1.334   9.431 -0.2859  0.3190  0.2229
18429SOL    HW160225   2.081   1.374   9.517 -0.8677  1.7565 -0.5049
18429SOL    HW260226   2.178   1.287   9.439 -0.5532  0.0552  1.6848
18430SOL     OW60227   1.285   8.252   1.797  0.5879 -0.0492  0.6553
18430SOL    HW160228   1.343   8.262   1.872  1.4615  1.4101 -0.1821
18430SOL    HW260229   1.197   8.255   1.835  1.0149 -0.7036  1.7599
18431SOL     OW60230   4.134   0.230   9.670  0.8753  0.5541 -0.3789
18431SOL    HW160231   4.224   0.236   9.702  0.8795  1.1970 -0.4974
18431SOL    HW260232   4.135   0.279   9.587  1.3865 -2.7946 -2.5577
18432SOL     OW60233   3.097   6.823   3.928  0.2629  0.2073 -0.0678
18432SOL    HW160234   3.074   6.906   3.970  0.8861  1.2994 -1.7601
18432SOL    HW260235   3.120   6.765   4.000  0.0919  1.5983  1.1592
18433SOL     OW60236   1.852   5.625  10.897 -0.0431 -0.0609 -0.4025
18433SOL    HW160237   1.757   5.631  10.910  0.1321  0.7476  0.6885
18433SOL    HW260238   1.867   5.663  10.811 -0.5262  1.8273  0.2853
18434SOL     OW60239   9.890   0.048  10.225 -0.2301 -0.1376 -0.3940
18434SOL    HW160240   9.909  -0.035  10.180  0.9890 -0.4684  0.6630
18434SOL    HW260241   9.796   0.059  10.215 -0.4081 -1.6127 -0.6385
18435SOL     OW60242   5.789   2.815   8.311  0.0955 -0.1594 -0.1161
18435SOL    HW160243   5.801   2.810   8.406  1.1385  0.0462 -0.2298
18435SOL    HW260244   5.825   2.900   8.286  0.4149 -0.4857 -0.7827
18436SOL     OW60245  10.180   5.264   3.704  1.0152  0.5956 -0.1876
18436SOL    HW160246  10.260   5.317   3.707  1.6002 -0.2601 -0.5231
18436SOL    HW260247  10.122   5.313   3.646  0.6183  2.1140  1.3895
18437SOL     OW60248   2.678   1.886   5.113 -0.2279  0.4290  0.2127
18437SOL    HW160249   2.715   1.879   5.025  0.8597  0.1608  0.6768
18437SOL    HW260250   2.609   1.820   5.115  0.3999 -0.2615 -0.1315
18438SOL     OW60251  10.544   7.711   0.626 -0.2116 -0.2695  0.0215
18438SOL    HW160252  10.594   7.755   0.556  0.2845  0.8454  1.0491
18438SOL    HW260253  10.518   7.627   0.587  1.0436 -0.1704 -1.1203
18439SOL     OW60254   5.726   5.091  11.116 -0.0671  0.1056  0.0849
18439SOL    HW160255   5.803   5.104  11.172 -0.0868 -1.5999  0.5540
18439SOL    HW260256   5.665   5.160  11.142  0.7747  0.6494  0.6458
18440SOL     OW60257  11.679   5.901   0.540  0.2227 -0.7366  0.1811
18440SOL    HW160258  11.717   5.924   0.455  0.2033 -1.0368  0.0923
18440SOL    HW260259  11.585   5.907   0.526  0.2065 -1.2724  0.0455
18441SOL     OW60260  10.832   6.896   4.972 -0.4029 -0.2531 -0.2267
18441SOL    HW160261  10.813   6.906   5.065  0.8151  0.8652 -0.0626
18441SOL    HW260262  10.861   6.983   4.944  0.5536 -0.8921 -1.3305
18442SOL     OW60263   9.455   1.822   1.184 -0.7633 -0.3567 -0.4859
18442SOL    HW160264   9.466   1.861   1.097  0.0262 -0.6342 -0.5245
18442SOL    HW260265   9.482   1.890   1.244 -1.3485 -0.1507 -0.4544
18443SOL     OW60266   4.011  11.367   0.464  0.3602  0.0955 -0.1661
18443SOL    HW160267   4.082  11.388   0.525 -0.3224  1.3005  0.2421
18443SOL    HW260268   3.938  11.340   0.520  0.6797 -1.8521 -0.6111
18444SOL     OW60269   4.054   8.993   5.787  0.0495 -0.2612 -0.0659
18444SOL    HW160270   4.048   8.923   5.723 -0.9588 -0.4588  0.2149
18444SOL    HW260271   4.137   8.978   5.832  1.3729  0.5887 -2.0900
18445SOL     OW60272   1.744   4.011   9.841  0.0662 -0.2296 -0.2125
18445SOL    HW160273   1.789   3.927   9.828  0.0088 -0.1999 -0.6196
18445SOL    HW260274   1.815   4.076   9.844  0.1679 -0.3850  0.9478
18446SOL     OW60275   5.386   2.394   7.177  0.2307  0.2248 -0.0062
18446SOL    HW160276   5.465   2.341   7.175 -0.6075 -1.0390 -2.5121
18446SOL    HW260277   5.418   2.483   7.196  2.1410 -0.3624 -0.2583
18447SOL     OW60278   1.512  11.163  10.589 -0.6082  0.2816  0.2175
18447SOL    HW160279   1.496  11.192  10.679  0.6546  0.1439  0.5072
18447SOL    HW260280   1.484  11.236  10.535  0.0726  0.9997  0.8108
18448SOL     OW60281   6.919   1.830   1.507 -0.3379  0.0158  0.3587
18448SOL    HW160282   6.826   1.850   1.510 -0.7116 -1.6259  2.4700
18448SOL    HW260283   6.950   1.848   1.596  1.3145  0.2699 -0.2362
18449SOL     OW60284   1.298   2.314   1.214  0.3195 -0.1656  0.3945
18449SOL    HW160285   1.326   2.323   1.305 -0.1056 -1.0896  0.6279
18449SOL    HW260286   1.217   2.263   1.219  0.6933 -0.8790 -0.5470
18450SOL     OW60287   7.815  10.730   4.056  0.2567  0.1774  0.1561
18450SOL    HW160288   7.781  10.805   4.007 -0.5017 -0.0849  0.2663
18450SOL    HW260289   7.879  10.690   3.998  1.0777  1.2126  0.3049
18451SOL     OW60290   3.896   7.707  10.219  0.3132  0.1968  0.3138
18451SOL    HW160291   3.827   7.676  10.160  0.4057 -1.9305  1.2483
18451SOL    HW260292   3.968   7.644  10.207  0.1402 -0.6192  3.0068
18452SOL     OW60293   8.928  11.031   3.414 -0.8301  0.6065  0.4463
18452SOL    HW160294   8.932  11.023   3.509 -0.3214  1.8305  0.5458
18452SOL    HW260295   8.875  11.109   3.398 -0.0988  0.9769 -0.2418
18453SOL     OW60296   3.013   6.115   2.003  0.1570 -0.4320 -0.0789
18453SOL    HW160297   3.035   6.023   2.016  0.7363 -0.2618  0.1619
18453SOL    HW260298   2.990   6.121   1.910 -1.5760 -1.1557  0.2662
18454SOL     OW60299   9.748   5.570  10.313  0.4431 -0.4579  0.1332
18454SOL    HW160300   9.726   5.544  10.403  1.2750  0.9966  0.8094
18454SOL    HW260301   9.842   5.589  10.317  0.0941  1.6199 -0.5070
18455SOL     OW60302   2.477   0.216   9.728  0.0649 -0.0868 -0.4525
18455SOL    HW160303   2.532   0.142   9.753  0.1297  0.0579 -0.1638
18455SOL    HW260304   2.528   0.264   9.663  0.0301 -0.2831 -0.6268
18456SOL     OW60305   4.623   4.337   6.782 -0.7088  0.0898  0.5953
18456SOL    HW160306   4.533   4.316   6.808 -0.5651  0.1268  1.1449
18456SOL    HW260307   4.670   4.348   6.865  0.0684 -1.0364  0.3270
18457SOL     OW60308   0.601   3.661   5.823  0.2077 -0.3707  0.2419
18457SOL    HW160309   0.635   3.716   5.753  0.2479 -1.1693 -0.3798
18457SOL    HW260310   0.527   3.614   5.783 -0.3866 -0.1128  1.0117
18458SOL     OW60311   8.718   0.508   9.407  0.2326  0.0112 -0.0992
18458SOL    HW160312   8.677   0.507   9.320  0.6402  1.0851 -0.3288
18458SOL    HW260313   8.706   0.420   9.441 -0.8993 -0.1185 -0.7995
18459SOL     OW60314  10.857  10.379   1.540  0.5679 -0.0115  0.1373
18459SOL    HW160315  10.870  10.342   1.628  1.2719  1.6772  0.7655
18459SOL    HW260316  10.898  10.465   1.543 -0.5160  0.6081 -1.4684
18460SOL     OW60317   7.585   6.461   3.330  0.5664  0.3245 -0.1755
18460SOL    HW160318   7.543   6.391   3.381  0.7116  1.2735  1.2838
18460SOL    HW260319   7.523   6.478   3.259 -0.8678  0.6822  1.1025
18461SOL     OW60320  10.229   8.175  10.949 -0.0014 -0.2414  0.0751
18461SOL    HW160321  10.267   8.250  10.903 -0.7081 -0.0192 -0.1561
18461SOL    HW260322  10.135   8.190  10.946 -0.2217 -1.6105 -0.8043
18462SOL     OW60323  11.494   7.306   5.044  0.5967  0.1062  0.1517
18462SOL    HW160324  11.408   7.269   5.061  0.6952 -0.3724 -0.3557
18462SOL    HW260325  11.506   7.298   4.949  1.2437  0.0554  0.2304
18463SOL     OW60326  10.098   9.485   1.660 -0.5490 -0.1957  0.1825
18463SOL    HW160327  10.161   9.550   1.628  0.6060 -0.4705  1.7779
18463SOL    HW260328  10.017   9.507   1.615  0.4537  0.7352 -1.2620
18464SOL     OW60329  10.544   1.578   5.916 -0.5047  0.0771 -0.4300
18464SOL    HW160330  10.576   1.594   6.004 -0.7692 -0.8943 -0.1458
18464SOL    HW260331  10.608   1.519   5.877  0.0133  1.0957 -1.1633
18465SOL     OW60332   5.860  10.189   5.097  0.9122  0.6634 -0.7090
18465SOL    HW160333   5.905  10.259   5.144 -1.5776  1.8916 -0.0110
18465SOL    HW260334   5.776  10.179   5.142  0.6112 -1.8512 -1.6455
18466SOL     OW60335   3.706   0.819   3.873 -0.2455  0.1166  0.0369
18466SOL    HW160336   3.681   0.726   3.875  3.9454 -1.1878  1.1620
18466SOL    HW260337   3.752   0.829   3.790 -0.1886  1.0845  0.1744
18467SOL     OW60338   3.524   3.667   7.955 -0.9556 -0.4271  0.2826
18467SOL    HW160339   3.489   3.656   8.043 -2.2290 -0.2477 -0.1704
18467SOL    HW260340   3.472   3.608   7.900 -0.3944 -0.3121 -0.3963
18468SOL     OW60341  10.317   3.763   0.429  0.1902  0.1229 -0.5532
18468SOL    HW160342  10.347   3.732   0.515 -1.1122 -0.0100 -0.1331
18468SOL    HW260343  10.373   3.839   0.411  0.3068  0.3256  0.5473
18469SOL     OW60344   7.900   3.595   0.831 -0.7149 -0.2330 -0.6449
18469SOL    HW160345   7.908   3.661   0.900 -0.5832 -0.6491 -0.2531
18469SOL    HW260346   7.853   3.639   0.760 -2.8748 -0.4582  0.5649
18470SOL     OW60347   5.198   3.805   7.352  0.0682  0.1070  0.2161
18470SOL    HW160348   5.177   3.721   7.392 -0.6706  0.0183 -0.3359
18470SOL    HW260349   5.270   3.787   7.292  0.5162  0.0508  0.7610
18471SOL     OW60350   2.921  11.165   6.114 -0.6617  0.1762  0.0125
18471SOL    HW160351   3.004  11.171   6.066 -1.4927  2.3696 -1.2905
18471SOL    HW260352   2.919  11.244   6.167 -1.6707 -0.1462  0.4744
18472SOL     OW60353   9.348   7.998   7.793  0.7008  0.2518 -0.3469
18472SOL    HW160354   9.432   8.029   7.761  0.0780  0.3966 -1.9297
18472SOL    HW260355   9.317   8.069   7.850  1.0991  0.7338 -0.7215
18473SOL     OW60356   9.507   4.698   5.164 -0.6842 -0.0611 -0.3023
18473SOL    HW160357   9.497   4.789   5.189 -0.9062 -0.1078 -0.2208
18473SOL    HW260358   9.566   4.700   5.088 -0.0343  0.0809  0.1913
18474SOL     OW60359   9.309   5.018   6.508  0.1797  0.1152  0.3746
18474SOL    HW160360   9.395   5.060   6.512 -0.8336  2.2448  1.4770
18474SOL    HW260361   9.328   4.927   6.488  2.7445  0.3830  1.1927
18475SOL     OW60362   0.946  10.869   6.027 -0.3318  0.5131 -0.6313
18475SOL    HW160363   0.986  10.925   5.960 -1.1436 -0.8196 -2.3236
18475SOL    HW260364   0.959  10.780   5.994 -1.9869 -0.1152  0.2973
18476SOL     OW60365   5.521   3.220  10.797 -0.0491 -0.2735 -0.5218
18476SOL    HW160366   5.553   3.135  10.829 -1.8355 -1.0588 -0.6915
18476SOL    HW260367   5.573   3.236  10.718 -1.1429 -2.3750 -1.7956
18477SOL     OW60368  10.671   8.541   9.293  0.3365 -1.1446 -0.0565
18477SOL    HW160369  10.608   8.499   9.235  0.1930  0.6984 -1.3018
18477SOL    HW260370  10.617   8.589   9.356  0.5037 -2.4340  1.1167
18478SOL     OW60371   4.081   8.973  10.857 -0.1153 -0.2785  0.5164
18478SOL    HW160372   4.089   8.932  10.771  0.4449  0.0599  0.4032
18478SOL    HW260373   4.152   9.037  10.860 -1.0013  0.7147  0.6760
18479SOL     OW60374   9.965   0.058   6.310  0.0593 -0.5246  0.5406
18479SOL    HW160375  10.044   0.007   6.324 -0.0030 -0.6459  0.4653
18479SOL    HW260376   9.965   0.076   6.216 -0.3862 -1.1733  0.4093
18480SOL     OW60377   4.890   4.106   9.702 -0.2863  0.3166 -0.0387
18480SOL    HW160378   4.797   4.117   9.725 -0.5805 -0.7810 -0.6796
18480SOL    HW260379   4.911   4.017   9.729  0.3051  0.2086 -0.8482
18481SOL     OW60380   2.259   8.490   6.473  0.0726  0.1798 -0.4177
18481SOL    HW160381   2.289   8.427   6.407  0.0876 -0.5247  0.2486
18481SOL    HW260382   2.164   8.474   6.479  0.2886 -0.7331  0.7335
18482SOL     OW60383   5.949   4.912   4.827  0.0391  0.0489  0.8675
18482SOL    HW160384   5.891   4.859   4.772  0.6284 -0.6473  0.8925
18482SOL    HW260385   5.890   4.957   4.888 -0.4623 -0.8166  1.0370
18483SOL     OW60386   8.133  10.744   0.305  0.1050 -0.2811  0.2234
18483SOL    HW160387   8.088  10.791   0.376  1.3668  0.3826  0.6122
18483SOL    HW260388   8.225  10.741   0.333  0.1974 -2.3675 -0.1347
18484SOL     OW60389   3.474   1.910   3.947 -0.1869 -0.2559  0.4445
18484SOL    HW160390   3.521   1.841   3.900  0.1102 -1.0981  1.9014
18484SOL    HW260391   3.393   1.923   3.897  0.5478 -0.4117 -0.8190
18485SOL     OW60392   2.139   0.772   6.753  0.3502  0.3604 -0.1565
18485SOL    HW160393   2.076   0.794   6.822 -1.5490 -2.2644 -0.8927
18485SOL    HW260394   2.176   0.688   6.779  0.6362 -0.0029 -1.6280
18486SOL     OW60395   1.131   7.961   8.531  0.1879 -0.5094  0.6032
18486SOL    HW160396   1.169   7.927   8.612  0.3524  0.7500  1.0812
18486SOL    HW260397   1.206   7.980   8.475  0.1439 -0.3264  0.6038
18487SOL     OW60398   7.058   5.661   6.067  0.3642  0.4105 -1.0623
18487SOL    HW160399   7.107   5.605   6.007  0.9101 -0.1781 -0.1007
18487SOL    HW260400   7.088   5.634   6.154 -0.2634  1.3739 -0.5338
18488SOL     OW60401   5.685   1.775   6.127  0.1438  0.7016  0.3056
18488SOL    HW160402   5.639   1.838   6.071 -0.9617  0.0238  0.4267
18488SOL    HW260403   5.620   1.707   6.144  0.9947  0.0675  1.0520
18489SOL     OW60404   9.803   3.763   8.512  0.1918 -0.2030  0.2046
18489SOL    HW160405   9.843   3.835   8.561 -0.9888 -0.0945  1.0844
18489SOL    HW260406   9.871   3.732   8.453  2.3341 -1.4809  3.0943
18490SOL     OW60407   9.830   0.985   0.435 -0.2511 -0.4228 -0.3186
18490SOL    HW160408   9.805   1.055   0.495 -0.2784 -0.8932  0.2306
18490SOL    HW260409   9.749   0.963   0.389 -0.2311 -0.0643 -0.5273
18491SOL     OW60410   0.641   4.743   7.523  0.4668 -0.3151  0.0002
18491SOL    HW160411   0.664   4.834   7.544 -1.5239  0.0140  1.0027
18491SOL    HW260412   0.718   4.708   7.478  1.0310  2.0622 -1.0177
18492SOL     OW60413   6.529   2.867   0.593  0.3616 -0.3479 -0.5291
18492SOL    HW160414   6.610   2.883   0.544 -0.2708  0.1408 -1.4500
18492SOL    HW260415   6.540   2.915   0.675  1.5278 -1.3617 -0.0621
18493SOL     OW60416   8.101   3.421   0.838 -0.2280  0.2538 -0.4937
18493SOL    HW160417   8.074   3.356   0.774 -1.4208 -1.3559  1.5372
18493SOL    HW260418   8.046   3.498   0.819 -1.5081 -0.6598 -0.6021
18494SOL     OW60419   3.283   8.222  10.769  0.3293  0.5668  0.3285
18494SOL    HW160420   3.232   8.302  10.754  1.4824  0.8841 -2.5084
18494SOL    HW260421   3.364   8.253  10.809 -0.4487  0.3723  2.1856
18495SOL     OW60422   5.443   6.228   1.721  0.4022 -0.0779 -0.3492
18495SOL    HW160423   5.367   6.173   1.738  1.2432 -1.3003 -0.3986
18495SOL    HW260424   5.413   6.292   1.656 -0.6009 -0.4501 -0.2738
18496SOL     OW60425   9.037   8.779   8.320  0.0289 -0.4857  0.1489
18496SOL    HW160426   9.092   8.724   8.263  0.6250  0.1951  0.0496
18496SOL    HW260427   9.097   8.846   8.353 -0.6634  0.0354  0.3635
18497SOL     OW60428  10.710   7.655   4.350 -0.3271 -0.4021 -0.5149
18497SOL    HW160429  10.658   7.631   4.273  0.1986 -0.9090 -0.7272
18497SOL    HW260430  10.799   7.668   4.315 -0.8023  3.4813 -0.6943
18498SOL     OW60431   1.497  10.167  10.582  0.3483 -0.1245  0.4418
18498SOL    HW160432   1.510  10.145  10.490  1.0788  1.0518  0.2356
18498SOL    HW260433   1.548  10.103  10.631  0.0086 -0.7133  0.0241
18499SOL     OW60434   9.432   6.304   2.976 -0.2328 -1.1310  0.7633
18499SOL    HW160435   9.511   6.342   3.016 -0.2957 -1.1374  0.8938
18499SOL    HW260436   9.369   6.376   2.973  0.1069 -0.8555 -0.2607
18500SOL     OW60437   4.003   5.842   8.963 -0.4092  0.5138 -0.3480
18500SOL    HW160438   4.051   5.921   8.988 -0.5245  0.6508 -0.5550
18500SOL    HW260439   3.932   5.874   8.907 -1.2093  0.3806  0.5874
18501SOL     OW60440   7.237  10.737   1.110  0.1682 -0.2140 -0.1123
18501SOL    HW160441   7.283  10.818   1.088 -1.7439  0.2121 -3.1420
18501SOL    HW260442   7.163  10.734   1.049 -3.0656 -1.5708  3.4521
18502SOL     OW60443   7.562   4.519   2.430 -0.4372 -0.3798 -0.2005
18502SOL    HW160444   7.595   4.496   2.517  0.5201 -1.1060 -0.7433
18502SOL    HW260445   7.579   4.442   2.376  1.9776  1.1283 -1.8297
18503SOL     OW60446   8.727   0.855   1.800 -0.6564  0.0407 -0.2338
18503SOL    HW160447   8.691   0.848   1.711  1.2719  0.9302 -1.1451
18503SOL    HW260448   8.693   0.938   1.833  0.7657  1.0657 -1.2331
18504SOL     OW60449   8.502   8.332   6.882 -0.4646  0.1640 -0.3202
18504SOL    HW160450   8.453   8.368   6.956 -1.2515  0.9081 -1.1792
18504SOL    HW260451   8.454   8.253   6.858 -0.0011 -0.2744  0.1859
18505SOL     OW60452   6.407   2.116   1.072  0.3815  0.8199 -0.1112
18505SOL    HW160453   6.410   2.177   0.999  4.2562  0.4827 -0.4267
18505SOL    HW260454   6.411   2.029   1.030 -0.2523  0.5072  0.4571
18506SOL     OW60455  10.060   4.946   1.455 -0.3674  0.1609 -0.2768
18506SOL    HW160456   9.983   4.913   1.408 -0.9057  2.1624 -0.9391
18506SOL    HW260457  10.114   4.987   1.386  0.6236 -0.0280  0.3720
18507SOL     OW60458   2.571   1.260   2.984  0.1258  0.2810 -0.2307
18507SOL    HW160459   2.536   1.207   3.056 -0.1904 -0.0404 -0.6170
18507SOL    HW260460   2.538   1.348   3.002 -0.7222  0.0272 -0.4667
18508SOL     OW60461   3.548   3.093   6.908 -0.2123 -0.0878  0.2178
18508SOL    HW160462   3.542   3.014   6.961  1.7165  0.1913  0.9380
18508SOL    HW260463   3.510   3.162   6.962 -1.6643 -0.4467 -0.3095
18509SOL     OW60464   2.894   6.454   6.754  0.0918 -0.4976  0.6107
18509SOL    HW160465   2.976   6.424   6.715  0.6271  0.7858  0.6745
18509SOL    HW260466   2.835   6.465   6.679  0.1815 -0.8279  0.4927
18510SOL     OW60467  11.350   1.730   1.680 -0.4856 -0.1083  0.4063
18510SOL    HW160468  11.267   1.691   1.652 -0.3010 -1.4513  1.5528
18510SOL    HW260469  11.350   1.718   1.776  0.7616  0.3960  0.4845
18511SOL     OW60470   0.910   5.713   6.408 -0.4508  0.1736 -0.1626
18511SOL    HW160471   0.986   5.661   6.384 -1.8611 -1.7045 -0.8267
18511SOL    HW260472   0.865   5.662   6.475 -1.6307  0.7497 -0.4691
18512SOL     OW60473   6.436   7.634   1.981 -0.2001 -0.3311 -0.2627
18512SOL    HW160474   6.467   7.638   1.891 -1.4648 -1.3748 -0.7592
18512SOL    HW260475   6.486   7.563   2.021 -1.3859 -1.5608 -0.8761
18513SOL     OW60476   4.678   2.240   5.601 -0.6636 -0.2844 -0.1471
18513SOL    HW160477   4.625   2.177   5.553  0.1333 -0.2796 -1.0959
18513SOL    HW260478   4.690   2.313   5.539 -0.6253  0.2804  0.5106
18514SOL     OW60479   4.529   1.779   4.744 -0.1794  0.4193  0.3845
18514SOL    HW160480   4.531   1.875   4.751  1.9851  0.5244 -0.8437
18514SOL    HW260481   4.461   1.761   4.679  1.3071  1.3815 -1.5630
18515SOL     OW60482   3.637   5.509   9.948  0.0487 -0.4352  0.0785
18515SOL    HW160483   3.661   5.445   9.881 -1.6839  0.9594 -2.0061
18515SOL    HW260484   3.557   5.473   9.988  0.0838 -0.4160  0.1671
18516SOL     OW60485   2.552   6.040   9.278 -0.2141 -0.1294  0.2181
18516SOL    HW160486   2.510   5.954   9.278 -2.4056  0.8652 -0.0273
18516SOL    HW260487   2.552   6.067   9.370 -0.8898  0.2061  0.1265
18517SOL     OW60488   5.265   2.375   9.391 -0.3289  0.1641 -0.3056
18517SOL    HW160489   5.222   2.412   9.313 -2.9905 -1.3965  0.3087
18517SOL    HW260490   5.327   2.443   9.418 -0.7292  1.5820 -2.6306
18518SOL     OW60491   6.140   0.199   4.864 -0.1107  0.0877  0.6113
18518SOL    HW160492   6.143   0.225   4.771  0.6362  1.7544  1.0659
18518SOL    HW260493   6.178   0.111   4.865 -2.0866 -0.8593 -0.9163
18519SOL     OW60494   7.207  10.205   3.802 -0.8148 -0.6372  0.7823
18519SOL    HW160495   7.291  10.250   3.813 -1.2187  1.5894 -3.4123
18519SOL    HW260496   7.229  10.112   3.812  1.6704 -0.0306  1.8696
18520SOL     OW60497   3.844   6.599   0.761  0.8223  0.7769  0.6090
18520SOL    HW160498   3.914   6.636   0.814  1.7535  2.8105 -1.8220
18520SOL    HW260499   3.764   6.640   0.796  1.4983  2.6894  0.0586
18521SOL     OW60500   5.882   8.515  10.302 -0.5355  0.4857  0.3735
18521SOL    HW160501   5.848   8.603  10.321  0.3202  0.2177  3.9202
18521SOL    HW260502   5.956   8.505  10.362 -0.3207 -2.5008 -0.2535
18522SOL     OW60503   7.942   4.480   9.533 -0.0261  0.3468 -0.6729
18522SOL    HW160504   8.010   4.547   9.528 -0.5270  0.8593 -0.7435
18522SOL    HW260505   7.966   4.415   9.467  0.8072  0.1258 -0.1657
18523SOL     OW60506  10.101   2.123   6.040 -0.2410  0.6620 -0.2957
18523SOL    HW160507  10.101   2.163   6.127  2.7258  1.1403 -0.4315
18523SOL    HW260508  10.150   2.041   6.051  1.0467  1.2022 -1.6503
18524SOL     OW60509   0.184   2.967   6.029  0.3476  0.4828 -0.0708
18524SOL    HW160510   0.258   2.910   6.048  0.1659  0.0777 -0.5528
18524SOL    HW260511   0.160   2.946   5.938 -0.3740  0.5817  0.0927
18525SOL     OW60512   0.271   4.090   8.308  0.3968  0.6466 -0.0614
18525SOL    HW160513   0.339   4.119   8.246 -0.0659  1.8072 -0.0639
18525SOL    HW260514   0.290   3.998   8.323  0.7432  0.4313 -1.6492
18526SOL     OW60515   5.625   8.668   6.047  0.3070  0.4357 -0.6783
18526SOL    HW160516   5.640   8.639   6.137  1.7627  2.1367 -0.3195
18526SOL    HW260517   5.530   8.674   6.039  0.1136 -0.7722  0.3791
18527SOL     OW60518   9.473   4.354   0.952  0.1857 -0.5831 -0.1065
18527SOL    HW160519   9.449   4.327   0.863 -0.5286 -1.3675  0.3041
18527SOL    HW260520   9.557   4.312   0.968  0.3479 -0.3864 -0.4329
18528SOL     OW60521  10.711   9.444  10.737 -0.6685 -0.6554  0.1594
18528SOL    HW160522  10.798   9.412  10.758  0.2246  0.8720 -0.9524
18528SOL    HW260523  10.682   9.489  10.816  0.1968  0.0591  0.0935
18529SOL     OW60524   5.516   3.329   4.522 -0.2728 -0.9216 -0.0122
18529SOL    HW160525   5.439   3.374   4.485  1.5883  1.8101 -0.8773
18529SOL    HW260526   5.564   3.398   4.568  1.8841 -2.4377  0.1341
18530SOL     OW60527   1.391   4.929   8.805  0.0674  0.1422 -0.4838
18530SOL    HW160528   1.389   4.844   8.850 -2.6205 -0.5633 -1.7481
18530SOL    HW260529   1.405   4.992   8.876  1.2010 -1.2305  0.6106
18531SOL     OW60530   1.652   3.915   8.009 -0.1499 -0.0099 -0.0293
18531SOL    HW160531   1.588   3.871   8.064  0.0964  0.6616  0.8117
18531SOL    HW260532   1.648   3.868   7.925 -0.1128 -1.4199  0.7320
18532SOL     OW60533   5.558   6.841   9.958 -0.5000 -0.1332  0.4105
18532SOL    HW160534   5.519   6.755   9.938 -1.2942  0.3084 -0.0079
18532SOL    HW260535   5.652   6.827   9.948 -0.4226 -1.4989  2.4542
18533SOL     OW60536  10.887  10.622   8.807 -0.1466 -0.4047 -0.5818
18533SOL    HW160537  10.869  10.566   8.882 -0.9408  0.7618  0.1461
18533SOL    HW260538  10.821  10.597   8.742  0.4915 -1.3621 -0.8828
18534SOL     OW60539   4.818   0.011   9.600 -0.0465  0.2979 -0.0311
18534SOL    HW160540   4.878   0.074   9.640  0.3142  0.3475 -0.6352
18534SOL    HW260541   4.731   0.039   9.628  0.1659  0.6218  0.3113
18535SOL     OW60542   0.333   3.954   4.722 -0.2985  0.5309 -0.1228
18535SOL    HW160543   0.351   4.041   4.686  0.9274  0.7962  1.0221
18535SOL    HW260544   0.257   3.967   4.779 -0.0931  0.8797  0.0776
18536SOL     OW60545   1.053   3.356  10.258  0.1294 -0.5170  0.1168
18536SOL    HW160546   1.133   3.350  10.207  1.3010  0.9776  1.6790
18536SOL    HW260547   1.044   3.449  10.278 -2.4422 -0.5214 -0.6516
18537SOL     OW60548  10.602   1.269   0.739  0.2727  0.2041  0.5285
18537SOL    HW160549  10.536   1.305   0.680  0.3064  0.3437  0.5754
18537SOL    HW260550  10.678   1.251   0.683 -0.3355 -1.4150  0.1896
18538SOL     OW60551  10.011   4.268   5.548  0.0992  0.2761 -0.1276
18538SOL    HW160552  10.042   4.206   5.482 -0.0627 -0.6437  0.6319
18538SOL    HW260553   9.916   4.264   5.543  0.0893  0.5087 -0.1263
18539SOL     OW60554   0.014   0.485   6.531  0.1295 -0.1577 -0.4643
18539SOL    HW160555   0.109   0.473   6.523  0.1432  1.1109 -2.9681
18539SOL    HW260556  -0.001   0.575   6.503 -1.7758 -0.0948  0.6309
18540SOL     OW60557   4.259   0.410   6.457  0.1162 -0.3831  0.9312
18540SOL    HW160558   4.199   0.385   6.527 -2.8773  0.1629 -1.2377
18540SOL    HW260559   4.221   0.490   6.420 -0.3231 -2.2090 -3.1959
18541SOL     OW60560  11.160   8.801   2.444  0.2377  0.3810 -0.6788
18541SOL    HW160561  11.253   8.783   2.428 -0.4076 -1.1272 -3.2311
18541SOL    HW260562  11.161   8.871   2.510  3.1420 -0.0736 -0.0833
18542SOL     OW60563   6.320   9.175   6.951  0.2321  0.2468  0.0341
18542SOL    HW160564   6.336   9.268   6.969 -1.1018  0.4857  0.1295
18542SOL    HW260565   6.241   9.175   6.897  0.3136 -0.8329 -0.1013
18543SOL     OW60566   6.695   1.240  11.010  0.1093  0.2710 -0.0366
18543SOL    HW160567   6.709   1.329  11.043  0.4458 -0.2286  1.2667
18543SOL    HW260568   6.675   1.250  10.918  2.1952  1.5707 -0.4049
18544SOL     OW60569   6.288   6.424   4.789  0.8133  0.3303 -0.2622
18544SOL    HW160570   6.306   6.451   4.879  2.8212  0.1855 -0.5704
18544SOL    HW260571   6.210   6.474   4.763  1.1990  1.6367  0.9841
18545SOL     OW60572   9.345   5.409   3.882  0.3886 -0.1086  0.2029
18545SOL    HW160573   9.337   5.336   3.820  1.5654  0.5025 -0.7268
18545SOL    HW260574   9.363   5.367   3.966  0.4616 -0.9229 -0.2086
18546SOL     OW60575  11.558   4.046  10.638 -0.2805  0.0090  0.3975
18546SOL    HW160576  11.652   4.059  10.636  0.3226 -2.5666 -4.1725
18546SOL    HW260577  11.522   4.121  10.590 -0.6275  0.9725  2.1076
18547SOL     OW60578   8.232   8.881   1.260 -0.5031  0.2020 -0.0093
18547SOL    HW160579   8.139   8.889   1.279 -0.9492 -1.7371 -1.0815
18547SOL    HW260580   8.247   8.786   1.254  1.3005  0.5036 -0.9826
18548SOL     OW60581  10.334   4.399  10.030 -0.3012  0.3340  0.7963
18548SOL    HW160582  10.254   4.394  10.082  0.0520 -0.0124  1.3199
18548SOL    HW260583  10.309   4.367   9.944 -0.8030  0.5435  0.8619
18549SOL     OW60584   6.126  10.017   8.505  0.1430 -0.2917 -0.0548
18549SOL    HW160585   6.216  10.025   8.474  0.4468  0.8355  1.0206
18549SOL    HW260586   6.116   9.925   8.530  1.1162 -0.3490  0.1443
18550SOL     OW60587   2.705   0.377   4.027 -0.1126  0.4580  0.5040
18550SOL    HW160588   2.630   0.426   4.062 -0.5628 -0.6439  1.1309
18550SOL    HW260589   2.741   0.330   4.102 -0.4671 -1.1490 -0.2740
18551SOL     OW60590   1.888   8.374   2.719  0.1456 -0.3064 -0.1376
18551SOL    HW160591   1.794   8.356   2.715  0.1684 -0.3592 -0.4431
18551SOL    HW260592   1.929   8.288   2.713  0.1677 -0.5475  2.5027
18552SOL     OW60593   4.305  10.168   9.862 -0.5101  0.1423  0.4644
18552SOL    HW160594   4.233  10.217   9.902 -0.6353  0.9409 -0.7010
18552SOL    HW260595   4.337  10.225   9.792  0.1269 -0.9491 -0.1572
18553SOL     OW60596   0.830   8.005   8.685 -0.4886 -0.0442 -0.2083
18553SOL    HW160597   0.909   8.056   8.697 -2.6352  3.1538  1.8486
18553SOL    HW260598   0.792   8.038   8.603 -0.6748 -0.1345 -0.1581
18554SOL     OW60599   7.377   2.961   0.754 -0.4103  0.5723 -0.9737
18554SOL    HW160600   7.329   3.024   0.701 -0.2317  1.1328 -0.4735
18554SOL    HW260601   7.332   2.961   0.838 -0.8373 -0.4882 -1.1869
18555SOL     OW60602   5.027   9.731   3.599 -0.0987 -0.0372 -0.4442
18555SOL    HW160603   5.108   9.768   3.563  0.7150  0.1190  1.4634
18555SOL    HW260604   5.019   9.771   3.685 -2.0698 -0.2956 -0.4675
18556SOL     OW60605   0.421   1.241   9.666  0.7893  0.4023 -0.5521
18556SOL    HW160606   0.344   1.236   9.610 -1.8217  1.4381  2.6011
18556SOL    HW260607   0.467   1.320   9.637 -0.3918  0.8158 -1.3695
18557SOL     OW60608   0.171   6.081   4.563  0.4833  0.0473  0.3983
18557SOL    HW160609   0.203   6.088   4.653  1.2380 -1.4808  0.2927
18557SOL    HW260610   0.076   6.074   4.571  0.5633 -0.2620  1.0962
18558SOL     OW60611   8.869  10.408   6.571  0.3924 -0.1474  0.2901
18558SOL    HW160612   8.824  10.326   6.588  0.4617 -0.4153 -0.7342
18558SOL    HW260613   8.952  10.382   6.530  2.2375  0.2438  3.4491
18559SOL     OW60614   1.382   3.761  10.501 -0.1955 -0.1191  0.2289
18559SOL    HW160615   1.420   3.738  10.417 -0.0511 -1.2063  0.5874
18559SOL    HW260616   1.305   3.704  10.510 -0.4900  0.3240  0.6258
18560SOL     OW60617   0.692   3.266   9.962 -0.2430 -0.3432  0.0935
18560SOL    HW160618   0.733   3.248   9.878 -2.1072 -1.5733 -0.6036
18560SOL    HW260619   0.729   3.200  10.021 -0.6073 -0.9367 -0.3308
18561SOL     OW60620   1.501   0.270   4.784 -0.2093 -0.2906  0.0409
18561SOL    HW160621   1.542   0.188   4.813  2.0050  1.2716  1.6782
18561SOL    HW260622   1.535   0.284   4.696 -0.5293 -1.0653 -0.2144
18562SOL     OW60623  10.779   1.390   1.707 -0.3367  0.3842  0.0354
18562SOL    HW160624  10.832   1.371   1.784  0.2349  1.8815  0.0445
18562SOL    HW260625  10.712   1.450   1.738 -2.0391 -1.4099 -0.0050
18563SOL     OW60626  10.172   4.703   7.270 -0.2474  0.2285  0.2594
18563SOL    HW160627  10.228   4.770   7.310  0.3340 -0.0023 -0.1556
18563SOL    HW260628  10.102   4.752   7.227 -0.1116  0.5443  0.3980
18564SOL     OW60629  10.563  11.139   3.921 -0.1893 -0.0398  0.4098
18564SOL    HW160630  10.516  11.072   3.970 -1.9685  1.0318  0.2562
18564SOL    HW260631  10.500  11.211   3.913  1.3506  1.2921 -0.1976
18565SOL     OW60632   6.615   8.550   5.327  0.6710  1.0571 -0.0149
18565SOL    HW160633   6.598   8.484   5.260 -1.5573  2.5344 -1.0345
18565SOL    HW260634   6.708   8.569   5.320  0.8871 -0.3271 -1.2598
18566SOL     OW60635   3.578   3.329   7.075  0.8611  0.0295 -0.1464
18566SOL    HW160636   3.489   3.294   7.088  1.0147 -0.2254  0.2500
18566SOL    HW260637   3.565   3.423   7.063  0.5710  0.0740  0.4426
18567SOL     OW60638  10.489  11.122   1.530 -0.2364  0.1121 -0.3587
18567SOL    HW160639  10.572  11.128   1.483 -1.1581 -1.5917 -2.3277
18567SOL    HW260640  10.427  11.089   1.466 -2.5378  1.5241  1.0019
18568SOL     OW60641   6.345  10.602   6.027  0.4143 -0.2208  0.2788
18568SOL    HW160642   6.315  10.512   6.042 -0.2190 -0.0900 -0.1585
18568SOL    HW260643   6.441  10.595   6.023  0.3243 -1.0769 -0.9856
18569SOL     OW60644  10.724   7.375   2.417  0.2725 -0.0231  0.0146
18569SOL    HW160645  10.748   7.357   2.326  2.3440 -1.6131  0.7866
18569SOL    HW260646  10.663   7.306   2.440 -0.2669  0.3907 -0.1620
18570SOL     OW60647   5.025   6.399   2.579 -0.6755  0.7639  0.0439
18570SOL    HW160648   4.991   6.322   2.624 -1.0594  0.4763 -0.7150
18570SOL    HW260649   4.949   6.457   2.571 -1.3414 -0.3338 -2.6213
18571SOL     OW60650   6.684   5.465   9.005  0.7359 -0.1087  0.3386
18571SOL    HW160651   6.599   5.496   8.973 -0.5613 -2.8302  0.9121
18571SOL    HW260652   6.744   5.482   8.932 -0.3775  1.4212 -0.2715
18572SOL     OW60653   4.458  11.351   9.092 -0.3252 -0.1176 -0.3647
18572SOL    HW160654   4.501  11.285   9.146 -1.2675  0.3580  1.0361
18572SOL    HW260655   4.523  11.375   9.027  0.9276 -0.6037  0.6569
18573SOL     OW60656   4.789  10.919   5.021  0.2567  0.2725  0.7278
18573SOL    HW160657   4.785  10.842   5.077  1.4521  1.1060  2.0235
18573SOL    HW260658   4.881  10.929   4.998 -0.1132  0.3135 -0.9313
18574SOL     OW60659   1.150   5.080  10.644 -0.8053 -0.6046 -0.3673
18574SOL    HW160660   1.066   5.035  10.655 -0.2265 -1.3345  1.5256
18574SOL    HW260661   1.215   5.017  10.675  0.2331  0.7238  0.2705
18575SOL     OW60662   1.654   0.404   7.850  0.3445 -0.3785 -0.0252
18575SOL    HW160663   1.702   0.438   7.925  2.3125  0.7615 -1.6866
18575SOL    HW260664   1.615   0.482   7.810 -1.9723 -1.1549  0.6090
18576SOL     OW60665   8.923   7.535   7.049  0.0605  0.1996 -0.2236
18576SOL    HW160666   8.903   7.623   7.081 -0.7339  0.4306 -1.3194
18576SOL    HW260667   8.842   7.486   7.060  0.1717 -0.0856 -0.6612
18577SOL     OW60668   2.774   6.014   6.428  0.0665 -0.0130 -0.1091
18577SOL    HW160669   2.686   6.051   6.427 -0.2809 -0.8022  0.2809
18577SOL    HW260670   2.763   5.924   6.396  0.9075  0.2216 -1.1393
18578SOL     OW60671   7.841   7.197   8.252  0.0845 -0.3060  0.2770
18578SOL    HW160672   7.812   7.202   8.161 -1.4662 -0.0570  0.7595
18578SOL    HW260673   7.831   7.105   8.276  0.4574 -0.3650  0.2082
18579SOL     OW60674   3.792   0.333   6.153  0.3703  0.5975  0.1162
18579SOL    HW160675   3.772   0.409   6.208 -0.2157  0.3039  0.3206
18579SOL    HW260676   3.750   0.259   6.198  0.2722  0.2800 -0.4830
18580SOL     OW60677   2.597   0.640   6.737  0.2683 -0.6435  0.0813
18580SOL    HW160678   2.599   0.731   6.768  1.0478 -0.8806  0.7499
18580SOL    HW260679   2.597   0.648   6.641  4.0354  0.0823 -0.0171
18581SOL     OW60680   0.047  11.392  10.262 -0.1729 -0.5084  0.7432
18581SOL    HW160681  -0.005  11.350  10.330  0.2346 -0.3451  1.1614
18581SOL    HW260682   0.121  11.431  10.308  0.0631 -0.3143  0.2188
18582SOL     OW60683   6.183   5.060   1.251 -0.4362  0.1703 -0.3376
18582SOL    HW160684   6.161   4.980   1.299 -0.7738 -0.2213 -1.1388
18582SOL    HW260685   6.214   5.120   1.319 -1.4292 -0.1834  0.4628
18583SOL     OW60686   3.403   1.791   1.519  0.0444 -0.4199  0.0004
18583SOL    HW160687   3.367   1.774   1.606 -1.8541 -1.5114 -0.9389
18583SOL    HW260688   3.380   1.883   1.502 -1.2678 -0.7461 -0.0852
18584SOL     OW60689   3.692   6.552   3.475 -0.0905 -0.1565  0.0204
18584SOL    HW160690   3.773   6.503   3.486 -0.9474 -1.8224 -0.7380
18584SOL    HW260691   3.689   6.612   3.549  0.8381 -1.5072  1.1838
18585SOL     OW60692   2.437   1.714   9.844  0.0002  0.2266 -0.3262
18585SOL    HW160693   2.523   1.751   9.823  0.6742 -0.7108  0.6320
18585SOL    HW260694   2.453   1.662   9.923 -0.9206 -1.8869 -1.4582
18586SOL     OW60695   2.396   5.040   3.726 -0.0503 -0.3992  1.0459
18586SOL    HW160696   2.310   5.054   3.687  1.4861 -0.8760 -2.9537
18586SOL    HW260697   2.377   5.006   3.813 -3.8970 -1.1955  0.0926
18587SOL     OW60698  11.654   7.914   4.293 -0.2803 -0.3027  0.3691
18587SOL    HW160699  11.677   7.978   4.360  3.2528  0.1966 -1.1017
18587SOL    HW260700  11.584   7.956   4.243 -0.1541  1.0846  1.2885
18588SOL     OW60701   9.566   2.035   8.851  0.1043 -0.1750 -0.3496
18588SOL    HW160702   9.662   2.033   8.842  0.0864  0.3710 -0.7094
18588SOL    HW260703   9.540   2.116   8.808 -0.5513 -0.4572 -0.4901
18589SOL     OW60704   7.524   4.387   7.038 -0.5189 -0.0844 -0.6102
18589SOL    HW160705   7.467   4.463   7.043 -0.7398 -0.2535 -0.5012
18589SOL    HW260706   7.491   4.337   6.963 -1.1541 -0.6848  0.0531
18590SOL     OW60707   5.448   1.061   0.539 -0.1197  0.2505 -0.2568
18590SOL    HW160708   5.409   0.974   0.530  0.9439 -0.4424  1.2928
18590SOL    HW260709   5.543   1.045   0.533  0.1051  1.2181  0.5321
18591SOL     OW60710   6.281   8.940   4.382 -0.0897  0.2339 -0.6971
18591SOL    HW160711   6.352   8.968   4.325 -0.4222 -2.1991 -2.4762
18591SOL    HW260712   6.203   8.942   4.326 -1.0988  0.9960  0.6651
18592SOL     OW60713   0.394   2.260   5.175  0.0057 -0.2741 -0.4378
18592SOL    HW160714   0.477   2.233   5.134 -0.4669 -0.6521 -1.1606
18592SOL    HW260715   0.392   2.213   5.258  1.3170  1.0413  0.3912
18593SOL     OW60716  10.359   9.187   5.144  0.1578  0.0360 -0.2759
18593SOL    HW160717  10.333   9.279   5.150 -0.1423 -0.1208  1.1810
18593SOL    HW260718  10.281   9.142   5.115  0.3251  0.2425 -1.0660
18594SOL     OW60719   0.572   3.786  10.158  0.4276 -0.5404 -0.6151
18594SOL    HW160720   0.583   3.691  10.164  0.8088 -0.5508 -1.3163
18594SOL    HW260721   0.605   3.808  10.071 -0.2949  0.1475 -0.7196
18595SOL     OW60722   8.500   1.518   8.733  0.2322  0.0698 -0.4687
18595SOL    HW160723   8.441   1.461   8.685  1.5866 -0.8907 -1.0533
18595SOL    HW260724   8.451   1.544   8.811 -0.3935 -2.0196 -0.1090
18596SOL     OW60725  10.267  10.114   4.091 -0.2470 -0.1832  0.0244
18596SOL    HW160726  10.220  10.190   4.125  2.1757  0.6080  2.0092
18596SOL    HW260727  10.273  10.055   4.166 -0.2690 -1.3935 -0.9004
18597SOL     OW60728   4.157   1.660   2.842  0.0222 -0.2589  0.1869
18597SOL    HW160729   4.070   1.641   2.807 -0.6428  0.3196  1.4484
18597SOL    HW260730   4.149   1.747   2.879  1.5214  0.3257 -0.7892
18598SOL     OW60731  10.811   6.407   2.968  0.2556  0.2380 -0.5921
18598SOL    HW160732  10.877   6.410   2.899  0.5020  2.2172 -0.3157
18598SOL    HW260733  10.731   6.437   2.925  0.5367  2.0639  0.0461
18599SOL     OW60734   7.896   1.912   0.458  0.6757  0.2420 -0.0659
18599SOL    HW160735   7.858   1.958   0.532  1.7436 -1.3661  1.5601
18599SOL    HW260736   7.821   1.881   0.407 -0.1439 -0.4199  1.4897
18600SOL     OW60737   4.043   8.971   1.814  0.7221  0.4224  0.2300
18600SOL    HW160738   3.987   8.915   1.760 -0.8453  2.2537 -0.1277
18600SOL    HW260739   4.103   8.909   1.857 -0.3435 -1.4344 -0.7991
18601SOL     OW60740  11.197   8.804   9.322  0.3199  0.3393  0.1572
18601SOL    HW160741  11.263   8.736   9.339  2.0667  0.9718 -3.2175
18601SOL    HW260742  11.141   8.767   9.255 -1.8368  0.4766  1.7847
18602SOL     OW60743   0.631   7.534   2.469  0.3929  0.8215 -0.3358
18602SOL    HW160744   0.722   7.522   2.497  0.0251  0.5640  0.7816
18602SOL    HW260745   0.636   7.536   2.373  1.7432  2.1152 -0.2902
18603SOL     OW60746   6.231   2.409   2.394  0.0420 -0.1115  0.3986
18603SOL    HW160747   6.229   2.503   2.376 -0.2311 -0.1518  0.1986
18603SOL    HW260748   6.146   2.391   2.434  0.4939 -0.0944  1.3876
18604SOL     OW60749   1.776   0.799   7.690  0.4165 -0.3238  0.1511
18604SOL    HW160750   1.714   0.871   7.682  1.6035  0.5828 -1.3777
18604SOL    HW260751   1.805   0.802   7.781 -1.1306 -0.2671  0.6822
18605SOL     OW60752  11.672   6.025  11.244 -0.3714 -0.1215  0.9605
18605SOL    HW160753  11.608   5.997  11.310 -0.6767  0.3320  0.8595
18605SOL    HW260754  11.756   6.023  11.290 -0.6184  0.4535  1.4439
18606SOL     OW60755   9.923   6.253   7.679  0.2075 -0.3600 -0.5328
18606SOL    HW160756   9.860   6.235   7.748 -1.4429 -1.3239 -2.1952
18606SOL    HW260757   9.996   6.193   7.697 -0.3975 -0.9168  0.1252
18607SOL     OW60758   4.949   5.843   6.779 -0.2698  0.1378  0.1147
18607SOL    HW160759   4.902   5.792   6.713 -0.7530  0.1622  0.4324
18607SOL    HW260760   5.024   5.880   6.733 -0.3354 -0.2440 -0.2993
18608SOL     OW60761   1.218   0.440   8.316  0.0917 -0.7132  0.0077
18608SOL    HW160762   1.131   0.476   8.334 -0.0571 -0.4568 -1.1719
18608SOL    HW260763   1.206   0.383   8.240  0.9145 -0.8468 -0.0310
18609SOL     OW60764   3.376   2.822   5.035  0.0275  0.0524  0.1991
18609SOL    HW160765   3.417   2.892   4.983 -0.1045 -0.7866 -1.0667
18609SOL    HW260766   3.440   2.751   5.035 -0.8399 -0.7645 -0.6711
18610SOL     OW60767   1.215  11.655   8.384  0.5163 -0.1880  0.1759
18610SOL    HW160768   1.234  11.567   8.415  0.6035 -0.3899 -0.4443
18610SOL    HW260769   1.123  11.652   8.358  0.6008 -0.1771 -0.1246
18611SOL     OW60770   1.616   2.489   4.013 -0.2885 -0.0849  0.2072
18611SOL    HW160771   1.553   2.527   4.075 -1.5840  1.2154 -1.8050
18611SOL    HW260772   1.669   2.564   3.984 -0.8065 -0.3247 -1.4583
18612SOL     OW60773   1.342   3.701   5.550  0.2272 -0.0702 -0.5693
18612SOL    HW160774   1.341   3.762   5.623  1.3390 -0.4729 -0.1871
18612SOL    HW260775   1.270   3.729   5.493 -0.0369  0.8369  0.1958
18613SOL     OW60776   7.893   4.271  11.469  0.1999 -0.2146  0.2543
18613SOL    HW160777   7.833   4.257  11.396  3.4079 -0.4375 -2.5735
18613SOL    HW260778   7.900   4.186  11.512  1.0401 -1.1390 -1.5831
18614SOL     OW60779  11.114   5.773  10.818 -0.2210 -0.1318  0.0867
18614SOL    HW160780  11.019   5.767  10.809 -0.1981 -0.8555  0.2635
18614SOL    HW260781  11.143   5.808  10.734 -0.7079  0.8553  0.3181
18615SOL     OW60782   7.465   3.745  10.542 -0.0570 -0.6578  0.2524
18615SOL    HW160783   7.468   3.772  10.450 -1.1098  0.8365  0.6235
18615SOL    HW260784   7.403   3.672  10.544 -2.4979  1.2908  0.1718
18616SOL     OW60785   3.020   2.600   3.854 -0.7057  0.3360 -0.4777
18616SOL    HW160786   2.989   2.604   3.945  0.2137 -0.0513 -0.1358
18616SOL    HW260787   2.999   2.510   3.826 -2.0501  0.7973 -1.0610
18617SOL     OW60788   4.734   3.785   1.091 -0.2007  0.0852  0.2044
18617SOL    HW160789   4.819   3.827   1.082  0.7263 -2.0009 -1.4957
18617SOL    HW260790   4.672   3.848   1.054  0.6634  1.2814  0.7145
18618SOL     OW60791   3.118   9.379   6.490  0.3793  0.2097  0.6101
18618SOL    HW160792   3.083   9.375   6.579  0.7840 -0.3415  0.7517
18618SOL    HW260793   3.173   9.458   6.489 -2.1231  2.0956 -0.1092
18619SOL     OW60794   9.943   3.514   6.691  0.3812  0.4805  0.0075
18619SOL    HW160795   9.954   3.435   6.744  0.6592  0.2211 -0.4310
18619SOL    HW260796   9.955   3.586   6.753  1.6808  0.1900  0.1193
18620SOL     OW60797   6.244   8.841  10.510 -0.2200  0.6217 -0.2381
18620SOL    HW160798   6.255   8.787  10.432 -0.0758  0.9225 -0.4261
18620SOL    HW260799   6.308   8.911  10.501  0.4112  0.1708  0.5781
18621SOL     OW60800   6.914   0.582   2.463  0.2294 -0.3805 -0.0864
18621SOL    HW160801   6.893   0.601   2.554  1.1529 -0.2538  0.1089
18621SOL    HW260802   6.842   0.620   2.413 -0.3813 -0.6086  0.5925
18622SOL     OW60803   5.970   5.567  11.255 -0.3137 -0.0111 -0.2437
18622SOL    HW160804   5.915   5.541  11.329 -1.1937  0.9047 -0.5538
18622SOL    HW260805   6.035   5.497  11.248  0.2718  0.2461  1.8511
18623SOL     OW60806   6.399   6.691  11.067  0.1877 -0.1089 -0.4275
18623SOL    HW160807   6.374   6.783  11.065 -1.5694 -0.5364 -0.0446
18623SOL    HW260808   6.446   6.678  10.985  0.2702  1.0784 -0.5875
18624SOL     OW60809   8.734   1.645   2.617 -0.0744 -0.3691 -0.3141
18624SOL    HW160810   8.684   1.586   2.560  0.2219  1.0241 -2.1245
18624SOL    HW260811   8.667   1.693   2.666 -0.5353  0.8061 -2.0150
18625SOL     OW60812   2.969   0.125   5.181  0.2076 -0.1629  0.0979
18625SOL    HW160813   2.898   0.061   5.183  1.5309 -1.6896  0.6780
18625SOL    HW260814   3.002   0.121   5.092 -0.0202  0.0819  0.0013
18626SOL     OW60815   1.120   0.010   2.136 -0.0665  0.4466 -0.4976
18626SOL    HW160816   1.103  -0.026   2.049  2.4371 -0.1133 -0.8316
18626SOL    HW260817   1.210  -0.016   2.156 -1.4627 -2.2596  3.6388
18627SOL     OW60818  10.338   2.822   1.866  0.2323 -0.4151 -0.2618
18627SOL    HW160819  10.295   2.849   1.947 -0.2590 -0.5725 -0.4662
18627SOL    HW260820  10.362   2.731   1.880 -0.0919 -0.5213 -0.3898
18628SOL     OW60821   8.709   7.470  11.297 -0.0626 -0.0727 -0.3048
18628SOL    HW160822   8.658   7.465  11.216 -0.7977  0.1195  0.1351
18628SOL    HW260823   8.657   7.526  11.354  0.8956  0.5499 -0.0182
18629SOL     OW60824   2.780   0.214   2.426 -0.1434  0.1869 -0.0939
18629SOL    HW160825   2.782   0.126   2.464 -1.5644  0.3777  0.5089
18629SOL    HW260826   2.863   0.222   2.380  0.7635 -0.8383  1.2554
18630SOL     OW60827   7.265  11.279   7.107  0.4466 -0.4419 -0.0026
18630SOL    HW160828   7.242  11.235   7.189 -0.3822  1.0233  0.5774
18630SOL    HW260829   7.251  11.372   7.124  1.7878  0.0522 -1.3144
18631SOL     OW60830   6.910   7.197   6.034  0.6774  0.0248  0.1515
18631SOL    HW160831   6.936   7.285   6.060  0.7592  0.1075 -0.2124
18631SOL    HW260832   6.866   7.161   6.112 -1.2855  1.1461 -0.3870
18632SOL     OW60833  10.543   3.584   1.485  0.6598  0.1888  0.2860
18632SOL    HW160834  10.636   3.588   1.460  1.8113 -0.5872  3.7523
18632SOL    HW260835  10.544   3.604   1.579 -2.8352  0.9617  0.2622
18633SOL     OW60836   3.812   9.752   6.230 -0.2471 -0.0586 -0.0913
18633SOL    HW160837   3.747   9.719   6.291 -0.9479  0.6094 -0.4688
18633SOL    HW260838   3.792   9.708   6.147 -1.9189  2.0961 -0.9094
18634SOL     OW60839   2.289   2.465   4.269  0.0901  0.4521 -0.0785
18634SOL    HW160840   2.319   2.387   4.223  1.6487  1.7799 -1.4479
18634SOL    HW260841   2.361   2.526   4.263 -1.2694  2.2132  0.5037
18635SOL     OW60842  11.004   3.508   3.665  0.4640  0.7447 -0.2803
18635SOL    HW160843  11.017   3.445   3.735 -0.3181 -0.0543 -0.8467
18635SOL    HW260844  11.031   3.592   3.703 -0.4602  0.4245  1.1500
18636SOL     OW60845   2.791   4.934   9.707  0.2167 -0.2165  0.0045
18636SOL    HW160846   2.779   4.881   9.786 -0.1052  0.3681  0.3544
18636SOL    HW260847   2.704   4.937   9.668  0.0148  0.8602  0.5079
18637SOL     OW60848   9.885   8.918   0.462 -0.1918  0.3723  0.2002
18637SOL    HW160849   9.836   8.909   0.544  0.4591  1.3461  0.7218
18637SOL    HW260850   9.827   8.882   0.395 -0.1246 -1.9260  1.2736
18638SOL     OW60851   1.267   5.387   0.314  0.7090  0.2342  0.0509
18638SOL    HW160852   1.208   5.422   0.381  3.2435  2.5373  1.2451
18638SOL    HW260853   1.300   5.464   0.269  0.0255 -1.1841 -3.1894
18639SOL     OW60854   0.283   6.183   6.432  0.1063 -0.0046  0.8172
18639SOL    HW160855   0.310   6.161   6.343 -0.1441 -0.4866  0.8530
18639SOL    HW260856   0.261   6.098   6.471 -0.8931  0.3243  0.9720
18640SOL     OW60857  11.630   5.109   5.044 -0.5778  0.0699 -0.2286
18640SOL    HW160858  11.538   5.127   5.024 -0.2467  1.3512 -0.7016
18640SOL    HW260859  11.655   5.042   4.980 -1.2477 -0.5080  0.0954
18641SOL     OW60860  10.307   6.931   6.792 -0.5152  0.1336 -0.1570
18641SOL    HW160861  10.343   6.855   6.838  0.1159  1.5766  1.8945
18641SOL    HW260862  10.258   6.978   6.859  0.0253  2.0929 -1.0680
18642SOL     OW60863  10.850   0.714   2.574 -0.7220 -0.2485 -0.4563
18642SOL    HW160864  10.860   0.624   2.607 -1.1392 -0.8850 -1.9653
18642SOL    HW260865  10.889   0.711   2.486  1.1960  1.6069  0.2559
18643SOL     OW60866   2.380   7.520   9.623  0.2672 -0.1792  0.3288
18643SOL    HW160867   2.423   7.456   9.566  0.5810 -0.6037  1.0207
18643SOL    HW260868   2.296   7.480   9.645  0.0106  0.1284 -0.0929
18644SOL     OW60869  10.750   5.539   0.360 -0.0724  0.2935 -0.3811
18644SOL    HW160870  10.773   5.555   0.268 -0.1205 -2.6441 -0.9912
18644SOL    HW260871  10.834   5.522   0.403 -0.0590  1.5882  0.1569
18645SOL     OW60872   5.476   0.134   8.508 -0.0898  0.1039 -0.5241
18645SOL    HW160873   5.489   0.099   8.419  0.8748  2.8558 -1.5624
18645SOL    HW260874   5.564   0.143   8.544 -0.4309 -0.1598  0.4095
18646SOL     OW60875  10.081   5.706   5.608 -0.4257 -0.8488 -0.6965
18646SOL    HW160876  10.003   5.679   5.657 -1.1793 -0.4034 -1.6333
18646SOL    HW260877  10.048   5.735   5.523  0.8014 -1.0096 -1.2531
18647SOL     OW60878   1.188   9.454   7.312  0.0080 -0.2036  0.3489
18647SOL    HW160879   1.175   9.542   7.277  3.5801  1.1337  1.9506
18647SOL    HW260880   1.099   9.418   7.318 -1.5730  3.0732 -0.8021
18648SOL     OW60881   7.590   5.493   9.192 -0.2843 -0.1018  0.0884
18648SOL    HW160882   7.584   5.555   9.264 -0.9664  0.2853 -0.2916
18648SOL    HW260883   7.504   5.452   9.188 -0.7867  1.0190 -1.5025
18649SOL     OW60884   4.562   8.753   7.204  0.3772 -0.3818 -0.1030
18649SOL    HW160885   4.625   8.819   7.177  1.4258 -1.4669 -0.4355
18649SOL    HW260886   4.616   8.684   7.243 -0.6636 -1.0994  0.1066
18650SOL     OW60887   2.622   9.693   2.591 -0.4000  0.0918 -0.1163
18650SOL    HW160888   2.668   9.655   2.516 -0.9040  0.6701 -0.7290
18650SOL    HW260889   2.584   9.617   2.636 -0.2174 -0.2503 -0.5323
18651SOL     OW60890   9.685  11.470   9.109  0.1062 -0.4389 -0.5153
18651SOL    HW160891   9.672  11.411   9.183 -3.2139  2.0586  1.1102
18651SOL    HW260892   9.628  11.435   9.040 -0.4232 -0.1586 -0.2184
18652SOL     OW60893   2.038   9.725   5.408  0.3140  0.3511  0.0706
18652SOL    HW160894   2.108   9.778   5.371 -0.2881  0.8472 -0.3793
18652SOL    HW260895   2.081   9.670   5.474  1.2160  0.2103 -0.6213
18653SOL     OW60896   7.255   7.087   9.063  0.1492  0.4304  0.1588
18653SOL    HW160897   7.203   7.122   9.136 -0.0512 -0.2843  0.3628
18653SOL    HW260898   7.320   7.155   9.046 -0.7392  1.2636  0.0092
18654SOL     OW60899   7.048   4.021   4.314 -0.4282  0.1270  0.0894
18654SOL    HW160900   6.980   4.033   4.380  0.9998  1.2619  1.4636
18654SOL    HW260901   7.068   4.110   4.284  2.9158  0.3924  2.4694
18655SOL     OW60902  10.515   5.663   0.471  0.2275  0.3846 -0.5521
18655SOL    HW160903  10.450   5.596   0.492  0.9283 -0.1424  0.0142
18655SOL    HW260904  10.597   5.629   0.508  0.8631  0.9390 -1.4110
18656SOL     OW60905   1.765   5.986   0.324 -0.4074  0.6200  0.0121
18656SOL    HW160906   1.715   6.056   0.366 -0.8257  0.9432 -1.0011
18656SOL    HW260907   1.707   5.952   0.256  0.4983  0.5424 -0.7419
18657SOL     OW60908   1.273  11.205   7.956 -0.2346  0.0973  0.0028
18657SOL    HW160909   1.241  11.271   8.017  1.0425 -0.1193  0.9485
18657SOL    HW260910   1.355  11.241   7.923 -0.5716 -0.0994 -1.0798
18658SOL     OW60911   1.162   3.572   0.902 -0.0702 -0.1101  0.8350
18658SOL    HW160912   1.212   3.646   0.865 -0.2387 -0.0205  0.7847
18658SOL    HW260913   1.120   3.532   0.826  0.8572 -0.9018  0.7194
18659SOL     OW60914   4.572   7.198   8.337 -0.4147 -0.5446 -0.0775
18659SOL    HW160915   4.565   7.109   8.303  0.3695 -0.7472  0.2644
18659SOL    HW260916   4.625   7.189   8.416  1.0544  0.4456 -0.9125
18660SOL     OW60917   9.490  11.421  10.307  0.7313 -0.3882 -0.1018
18660SOL    HW160918   9.574  11.458  10.335  0.6764  0.1776 -0.6521
18660SOL    HW260919   9.495  11.329  10.330  1.2637 -0.2337  0.4256
18661SOL     OW60920  10.671   4.498   0.148  0.3210  0.0614 -0.3713
18661SOL    HW160921  10.715   4.577   0.116 -2.2932  1.2568 -1.3132
18661SOL    HW260922  10.610   4.474   0.078  0.1296 -2.0741  0.4355
18662SOL     OW60923   7.884   3.605  10.731 -0.1196  0.5248 -0.4177
18662SOL    HW160924   7.928   3.574  10.652  0.7505 -1.1585  0.6535
18662SOL    HW260925   7.902   3.537  10.796 -1.0773  1.6982  1.1431
18663SOL     OW60926   3.419   0.514   9.622 -0.0772 -0.4436  0.0565
18663SOL    HW160927   3.381   0.428   9.641  1.7607 -1.0318  1.2662
18663SOL    HW260928   3.450   0.507   9.532 -1.1412 -0.5682 -0.3159
18664SOL     OW60929   8.965   3.227   4.667 -0.0478 -0.3714 -0.1366
18664SOL    HW160930   8.884   3.231   4.615  0.4552  0.8812 -0.8756
18664SOL    HW260931   8.937   3.192   4.751 -1.1293 -1.2092 -0.8086
18665SOL     OW60932   2.888   3.653   2.628  0.0167  0.9478 -0.5326
18665SOL    HW160933   2.860   3.630   2.717  1.1745  0.2456 -0.3425
18665SOL    HW260934   2.831   3.727   2.604  0.5557  1.9998  1.2778
18666SOL     OW60935  11.161   0.349   7.060  0.3823  0.0821 -0.5280
18666SOL    HW160936  11.248   0.335   7.023 -0.7090 -0.7677 -2.9584
18666SOL    HW260937  11.117   0.406   6.997 -1.3893 -0.9547 -0.2982
18667SOL     OW60938  11.408  10.754   3.053 -0.0866  0.0290  0.3543
18667SOL    HW160939  11.346  10.821   3.082 -0.4063 -0.3077  0.4479
18667SOL    HW260940  11.435  10.709   3.133 -1.9168 -1.7310  0.0672
18668SOL     OW60941   2.495   2.701   0.689  0.3001 -0.6350 -0.3993
18668SOL    HW160942   2.401   2.716   0.684 -0.0132 -2.6453 -1.4394
18668SOL    HW260943   2.506   2.637   0.760  0.9603 -0.0189  0.0762
18669SOL     OW60944  11.026   4.367   2.392 -0.0181  0.1394  0.2226
18669SOL    HW160945  11.023   4.364   2.297  1.5792  1.0183  0.1073
18669SOL    HW260946  10.964   4.436   2.416 -0.8365 -0.4630 -0.1283
18670SOL     OW60947   6.990  10.542   6.678  0.6952 -0.4552  0.5507
18670SOL    HW160948   7.018  10.466   6.730 -0.0180 -0.2621  1.2294
18670SOL    HW260949   7.048  10.541   6.602  1.8448 -0.6780  1.3968
18671SOL     OW60950   3.465   4.915   7.703 -0.6603  0.2540 -0.5544
18671SOL    HW160951   3.545   4.876   7.738 -1.1721 -0.9768 -0.7043
18671SOL    HW260952   3.455   4.998   7.750 -0.1058 -0.2901  0.5453
18672SOL     OW60953   4.807   9.307   2.365 -0.1614 -0.7255  0.4165
18672SOL    HW160954   4.756   9.234   2.399 -2.9416  0.7326 -0.3196
18672SOL    HW260955   4.822   9.286   2.273 -0.4827 -0.6278  0.3411
18673SOL     OW60956   9.827   2.097   9.105  0.6133  0.5574 -0.2815
18673SOL    HW160957   9.854   2.149   9.180  1.7632 -1.1216  0.5461
18673SOL    HW260958   9.839   2.155   9.030  1.7689  1.5046  0.5988
18674SOL     OW60959   2.020   8.113   2.803  0.2452 -0.0591  0.3232
18674SOL    HW160960   2.115   8.107   2.809  0.2650  0.9148  1.1775
18674SOL    HW260961   1.989   8.083   2.888 -0.2198 -0.3215  0.0677
18675SOL     OW60962   2.368   4.831   2.447 -0.0630 -0.0073 -0.1096
18675SOL    HW160963   2.399   4.914   2.484 -1.0086  0.0643  0.5501
18675SOL    HW260964   2.309   4.796   2.513 -1.5178 -0.0634 -1.3778
18676SOL     OW60965   7.717   1.638   2.299 -0.0662  0.0640 -0.1832
18676SOL    HW160966   7.712   1.701   2.371  0.5411 -1.2261  1.0456
18676SOL    HW260967   7.634   1.590   2.305  0.5199 -0.8916  0.4972
18677SOL     OW60968   3.715   5.819   2.780  0.3222 -0.4218 -0.1501
18677SOL    HW160969   3.714   5.873   2.702  0.1026 -0.5393 -0.2299
18677SOL    HW260970   3.808   5.806   2.799  0.4160  1.2951  0.7905
18678SOL     OW60971   9.119   5.483   4.255 -0.3079 -0.5861 -0.3058
18678SOL    HW160972   9.108   5.574   4.225 -0.0696  0.1761  1.7950
18678SOL    HW260973   9.062   5.476   4.331  0.4482 -1.9124  0.1605
18679SOL     OW60974   3.624   3.120   2.583 -0.7999 -0.1274 -0.4038
18679SOL    HW160975   3.601   3.195   2.529 -0.3863 -1.9626 -3.3120
18679SOL    HW260976   3.587   3.045   2.538 -0.4555 -1.8132  1.9212
18680SOL     OW60977   7.728   2.098   8.184 -0.4242 -0.3090 -0.5800
18680SOL    HW160978   7.750   2.049   8.105  0.4618 -0.6001 -0.1670
18680SOL    HW260979   7.703   2.031   8.248  0.0301 -0.1646 -0.2502
18681SOL     OW60980   2.143   4.086  10.570 -0.1081 -0.0014 -0.4877
18681SOL    HW160981   2.226   4.061  10.530  0.0056  1.5369 -1.2735
18681SOL    HW260982   2.076   4.052  10.510 -0.0341 -0.5069 -0.2899
18682SOL     OW60983   5.228   8.406   2.034 -0.0518  0.3105  0.2699
18682SOL    HW160984   5.162   8.419   2.103  0.9244  0.1232  1.2767
18682SOL    HW260985   5.245   8.494   2.001  1.3612  0.8002  2.1264
18683SOL     OW60986  10.181   6.426   6.767  0.5061 -0.1688 -0.2812
18683SOL    HW160987  10.139   6.379   6.695 -0.0673 -0.6163  0.3423
18683SOL    HW260988  10.224   6.358   6.819 -0.1731 -0.0065  0.5215
18684SOL     OW60989   6.359   8.011   5.068  0.1003  0.0696 -0.3131
18684SOL    HW160990   6.416   8.050   5.134 -0.2744  1.0331 -0.5467
18684SOL    HW260991   6.339   7.924   5.103  0.5623  0.2584  0.4533
18685SOL     OW60992   4.388   9.454   7.576  0.6447  0.4957 -0.2526
18685SOL    HW160993   4.336   9.490   7.504  0.1258  0.8952  0.3118
18685SOL    HW260994   4.368   9.360   7.575 -0.7815  0.7626  0.4864
18686SOL     OW60995  10.667   8.361  10.390 -0.1317  0.0606 -0.7160
18686SOL    HW160996  10.681   8.283  10.445  2.0125  0.4810 -0.5911
18686SOL    HW260997  10.572   8.371  10.388 -0.4871 -2.4975 -0.6619
18687SOL     OW60998   6.360   3.944  11.114  0.0154 -0.4957  0.3243
18687SOL    HW160999   6.429   4.003  11.143  2.1173 -2.7113  0.1234
18687SOL    HW261000   6.366   3.943  11.019  0.8438 -1.9236  0.3680
18688SOL     OW61001   2.329  10.081  10.493 -0.2422  0.9704  0.8613
18688SOL    HW161002   2.356  10.173  10.484  1.2018  0.3501 -2.3436
18688SOL    HW261003   2.359  10.056  10.581  2.1227  2.7313  0.6617
18689SOL     OW61004   6.491   5.953   1.198 -0.4938 -0.5047 -0.4264
18689SOL    HW161005   6.489   6.041   1.160 -1.3596 -1.7352 -3.5763
18689SOL    HW261006   6.576   5.947   1.241 -0.4443  1.8538 -0.0761
18690SOL     OW61007   6.803   7.771   0.622  0.0808 -0.0914 -0.1143
18690SOL    HW161008   6.790   7.678   0.640  0.0482 -0.1701 -0.5510
18690SOL    HW261009   6.764   7.815   0.697 -0.9335 -0.3885 -0.4558
18691SOL     OW61010   7.541  10.054  10.365  0.5964  0.3401 -0.1271
18691SOL    HW161011   7.497  10.068  10.448 -2.0894 -1.3180 -1.1466
18691SOL    HW261012   7.552  10.142  10.328 -1.3118  0.8701  0.4775
18692SOL     OW61013   0.433   0.417   3.154 -0.2433 -0.2350  0.1054
18692SOL    HW161014   0.507   0.368   3.120  1.0018  0.9428  1.0423
18692SOL    HW261015   0.469   0.471   3.224 -2.3011 -0.8860  1.7570
18693SOL     OW61016   2.354   1.313   3.961 -0.0047 -0.3868  0.4392
18693SOL    HW161017   2.381   1.222   3.966 -2.0068 -1.0262  0.0829
18693SOL    HW261018   2.411   1.358   4.024  0.4634 -2.0016  1.2115
18694SOL     OW61019   2.403   6.929  11.409  0.1671  0.0912  0.5198
18694SOL    HW161020   2.348   6.922  11.331 -0.9566  1.3688  1.1441
18694SOL    HW261021   2.340   6.931  11.482  1.1800 -0.7796  1.4493
18695SOL     OW61022   8.277   1.702   5.156 -0.1226 -0.4050 -0.1357
18695SOL    HW161023   8.223   1.641   5.206 -0.6081  0.6039  0.6248
18695SOL    HW261024   8.215   1.761   5.114  0.3390 -0.3516 -0.7566
18696SOL     OW61025   0.378   9.165   9.487 -0.3531 -0.2731 -0.2091
18696SOL    HW161026   0.466   9.203   9.480 -0.1771 -0.5710  0.3363
18696SOL    HW261027   0.332   9.222   9.548  0.0245 -1.1050  0.8985
18697SOL     OW61028   2.610   7.106   4.886  0.8559 -0.5436  0.5808
18697SOL    HW161029   2.610   7.057   4.804 -0.6406 -1.2560  0.9747
18697SOL    HW261030   2.685   7.073   4.934  0.0314 -2.2970  0.7266
18698SOL     OW61031   2.362  10.551   7.790 -0.2024  0.1454 -0.2279
18698SOL    HW161032   2.327  10.464   7.769  0.8465 -0.3671  0.0686
18698SOL    HW261033   2.301  10.586   7.854 -0.1814 -0.7356  0.2990
18699SOL     OW61034   8.107  10.328   4.678 -0.3513  0.4342 -0.5449
18699SOL    HW161035   8.143  10.392   4.739 -0.6966 -0.0236  0.1472
18699SOL    HW261036   8.110  10.372   4.593  0.2877  1.0148 -0.2289
18700SOL     OW61037   4.558   7.870   6.587  0.4607 -0.2045 -0.4457
18700SOL    HW161038   4.574   7.781   6.619 -0.4359  0.1535  1.1152
18700SOL    HW261039   4.496   7.859   6.516 -2.7593 -0.6678  2.2007
18701SOL     OW61040   8.494   8.363   0.261  0.5224 -0.3736  1.1589
18701SOL    HW161041   8.436   8.437   0.242 -0.3181 -1.1575  0.5994
18701SOL    HW261042   8.573   8.404   0.296 -0.2967  0.7289  1.7954
18702SOL     OW61043  11.219   9.213   5.904 -0.0607  0.7998 -0.0256
18702SOL    HW161044  11.207   9.204   5.999 -3.1074 -1.5267 -0.4706
18702SOL    HW261045  11.157   9.282   5.879 -0.6452  0.0983 -0.5286
18703SOL     OW61046   6.650  10.685   3.213 -0.5547  0.1987  0.2912
18703SOL    HW161047   6.707  10.615   3.182 -1.5621 -0.8743  0.7673
18703SOL    HW261048   6.703  10.732   3.277  0.6122  0.7730 -1.0470
18704SOL     OW61049   2.084   0.338   6.712 -0.4904 -0.9213  0.1447
18704SOL    HW161050   2.119   0.345   6.623  0.6196  0.6895  0.6589
18704SOL    HW261051   2.120   0.413   6.758 -1.7483 -1.2330  1.7433
18705SOL     OW61052  10.419   1.103  10.862  0.2315  0.8778 -0.0844
18705SOL    HW161053  10.327   1.129  10.862 -0.2922 -0.8171 -1.9403
18705SOL    HW261054  10.419   1.011  10.839  2.1440 -0.5415  4.4010
18706SOL     OW61055   1.794   4.949   6.709  0.1280 -0.0562 -0.0648
18706SOL    HW161056   1.701   4.967   6.694  0.8113  2.8683 -1.4779
18706SOL    HW261057   1.833   4.950   6.622  1.6880  0.1895  0.6116
18707SOL     OW61058  10.519   6.596  10.314  0.3962  0.3036  0.2384
18707SOL    HW161059  10.497   6.661  10.247 -0.9833 -0.2065  0.1549
18707SOL    HW261060  10.516   6.645  10.396  0.5084  0.5928  0.0729
18708SOL     OW61061  10.953   0.046   1.197  0.3209 -0.2149  0.0902
18708SOL    HW161062  10.916  -0.042   1.207  1.2115 -0.5935  0.2492
18708SOL    HW261063  10.881   0.100   1.165  0.3176 -1.5109 -2.2933
18709SOL     OW61064   0.127   5.519   2.956 -0.2428 -0.3832 -0.0238
18709SOL    HW161065   0.057   5.463   2.988  0.3219 -1.3013 -0.3660
18709SOL    HW261066   0.194   5.459   2.925 -0.4433  0.4519 -2.2682
18710SOL     OW61067   5.719  10.717   5.588  0.3333  0.3442  0.4210
18710SOL    HW161068   5.775  10.698   5.663  1.1720 -1.0880 -0.5209
18710SOL    HW261069   5.725  10.811   5.576  1.3373  0.4036  1.2734
18711SOL     OW61070   1.266   6.565   0.284  0.3835  0.3302 -0.8282
18711SOL    HW161071   1.324   6.618   0.229 -0.2439  1.2899 -0.5877
18711SOL    HW261072   1.309   6.480   0.289  2.1433  1.2217 -0.0732
18712SOL     OW61073   1.991   8.261   8.263  0.3105  0.0207 -0.9560
18712SOL    HW161074   2.035   8.330   8.212 -0.6668  0.6774 -0.9294
18712SOL    HW261075   2.007   8.285   8.354 -1.2070  1.0104 -0.9291
18713SOL     OW61076   9.091   0.350   6.510  0.4622  0.2162 -0.2883
18713SOL    HW161077   9.009   0.361   6.462 -0.3344  0.9009  1.1316
18713SOL    HW261078   9.096   0.256   6.529 -1.0547  0.3897  1.2805
18714SOL     OW61079  11.177  10.121   9.529  0.0221 -0.3691  0.2571
18714SOL    HW161080  11.206  10.208   9.500 -0.0713 -0.0175  1.1611
18714SOL    HW261081  11.194  10.064   9.455 -0.8208  0.6020 -0.7309
18715SOL     OW61082   5.122   4.775   3.820  0.3869  0.3928 -0.1140
18715SOL    HW161083   5.148   4.868   3.819 -0.2936  0.6004  0.6805
18715SOL    HW261084   5.205   4.727   3.810  0.6047  1.0804 -2.2583
18716SOL     OW61085  11.029   8.381   8.830  0.0125  0.3533  0.0840
18716SOL    HW161086  10.965   8.350   8.895 -0.9652  1.3410 -0.3785
18716SOL    HW261087  11.026   8.315   8.761  0.9077 -0.5970  0.9293
18717SOL     OW61088   4.286   3.623   8.428  0.2728  0.2146  0.3115
18717SOL    HW161089   4.330   3.569   8.494 -0.5033 -1.0044 -0.1449
18717SOL    HW261090   4.218   3.567   8.392  0.2284  1.0880 -1.0477
18718SOL     OW61091   3.466   0.854   2.696  0.2848 -0.3473 -0.0199
18718SOL    HW161092   3.402   0.830   2.763  0.9023  0.9160  1.0680
18718SOL    HW261093   3.490   0.771   2.655 -3.2336 -0.7135 -1.6535
18719SOL     OW61094   9.984  10.985  11.089  0.2503 -1.0684 -0.2117
18719SOL    HW161095   9.926  10.991  11.164 -1.0113  0.7470 -1.2388
18719SOL    HW261096   9.941  10.923  11.030  0.6291 -1.5950  0.0650
18720SOL     OW61097   8.867  10.054   4.093  0.1747  0.3603  0.4436
18720SOL    HW161098   8.853  10.088   4.181  0.0554 -1.0672  0.9973
18720SOL    HW261099   8.845   9.961   4.099  1.0653  0.0328 -0.8647
18721SOL     OW61100   4.336   5.798   4.827  0.7775 -0.1278 -0.0494
18721SOL    HW161101   4.341   5.875   4.770 -1.7886  2.5746  3.0104
18721SOL    HW261102   4.255   5.755   4.802  0.4946  0.1144  0.4439
18722SOL     OW61103   1.750   3.522   1.087  0.3454  0.2507 -0.5791
18722SOL    HW161104   1.663   3.484   1.098  0.2812 -0.1456 -2.2016
18722SOL    HW261105   1.743   3.609   1.127 -1.8920  1.6434 -3.5722
18723SOL     OW61106   2.937   7.532   1.113 -0.0393 -0.5784  0.6001
18723SOL    HW161107   2.932   7.437   1.123 -0.4232 -1.0476 -2.8813
18723SOL    HW261108   2.858   7.555   1.064 -0.9126  1.8901  2.9100
18724SOL     OW61109   6.586   0.240   6.204 -0.1694 -0.0274  0.4273
18724SOL    HW161110   6.491   0.253   6.196 -0.4220 -2.0658 -0.2986
18724SOL    HW261111   6.623   0.312   6.153 -1.4444 -1.1307 -2.2767
18725SOL     OW61112   3.203   7.248   9.646 -0.1017  0.4280 -0.1997
18725SOL    HW161113   3.252   7.222   9.724 -0.0926 -0.5738 -0.5296
18725SOL    HW261114   3.209   7.173   9.587 -1.3337  0.6102 -0.5871
18726SOL     OW61115   7.966   5.721   5.086  0.1656  0.3839 -0.3778
18726SOL    HW161116   7.999   5.633   5.074  1.5196  0.5667  1.4956
18726SOL    HW261117   8.044   5.775   5.100 -0.4840  2.2579 -3.1877
18727SOL     OW61118  11.438   1.394   2.766 -0.4848 -0.3371  0.1150
18727SOL    HW161119  11.349   1.369   2.793 -1.0886  1.5972  0.0346
18727SOL    HW261120  11.443   1.488   2.784  1.5851 -0.4158  0.1795
18728SOL     OW61121   7.884   8.781   8.795  0.1452 -0.5494  0.0327
18728SOL    HW161122   7.872   8.694   8.756 -2.8693 -0.6681  0.9637
18728SOL    HW261123   7.890   8.840   8.720  0.5188 -1.3721 -0.6046
18729SOL     OW61124   8.475   2.518   1.697  0.3962 -0.5418 -0.3464
18729SOL    HW161125   8.488   2.613   1.692 -1.3855  0.1085  3.4342
18729SOL    HW261126   8.396   2.502   1.646  0.2854  0.1326 -0.3977
18730SOL     OW61127  10.100   4.484   6.732 -0.0359 -0.3513 -0.1688
18730SOL    HW161128  10.162   4.514   6.666  0.3868 -1.2869 -0.2039
18730SOL    HW261129  10.100   4.554   6.798  1.2849 -0.4688 -0.0177
18731SOL     OW61130   4.134   8.673   5.308 -0.3840 -0.5908 -0.1888
18731SOL    HW161131   4.211   8.630   5.270 -0.6888 -1.9386  0.6371
18731SOL    HW261132   4.111   8.618   5.384 -1.5725  0.3366  0.1535
18732SOL     OW61133   6.797   4.409   3.937  0.5051 -0.0335 -0.3245
18732SOL    HW161134   6.781   4.445   3.849  1.1414 -0.2854 -0.5536
18732SOL    HW261135   6.868   4.463   3.971  0.7388 -0.3917 -0.2459
18733SOL     OW61136   3.931   3.679   1.282  0.6796 -0.0502  0.0587
18733SOL    HW161137   3.942   3.618   1.210  0.2729  0.4084 -0.3970
18733SOL    HW261138   3.935   3.766   1.242  1.9073  0.2474  0.7934
18734SOL     OW61139   5.377   0.986   3.809  0.0792  0.1931 -0.3642
18734SOL    HW161140   5.362   0.929   3.734  0.0329 -1.4666  0.8536
18734SOL    HW261141   5.297   1.039   3.815  0.2292  0.6059 -1.6634
18735SOL     OW61142   4.744   7.613   5.718  0.6059  1.0697  0.0415
18735SOL    HW161143   4.699   7.647   5.795  0.2150  0.8367 -0.0818
18735SOL    HW261144   4.789   7.689   5.681 -2.8343  2.3036 -2.0806
18736SOL     OW61145   4.208   2.382   1.826 -0.0685  0.3184  0.2620
18736SOL    HW161146   4.183   2.361   1.916 -1.2171 -0.3195 -0.1830
18736SOL    HW261147   4.144   2.447   1.797  0.1997  0.4126 -0.1350
18737SOL     OW61148   2.308   8.291   0.808  0.6636 -0.3556 -0.3002
18737SOL    HW161149   2.255   8.219   0.773  0.7621 -1.0720  0.9260
18737SOL    HW261150   2.393   8.250   0.828  0.4873 -0.0953  1.0871
18738SOL     OW61151   1.175  10.994   8.276  0.6306  0.6209  0.3036
18738SOL    HW161152   1.104  11.031   8.224 -0.1570 -0.2255  0.7401
18738SOL    HW261153   1.151  11.013   8.367  1.2535  0.8222  0.4304
18739SOL     OW61154   6.025   8.978   8.749  0.2293  0.4131 -0.0015
18739SOL    HW161155   6.070   9.057   8.778  0.0244  0.4252  0.2935
18739SOL    HW261156   6.059   8.909   8.805 -0.5044  0.5175  0.5847
18740SOL     OW61157   2.548   7.386   1.550 -0.3174 -0.2796  0.0045
18740SOL    HW161158   2.488   7.312   1.543  1.8420 -2.3455  1.5215
18740SOL    HW261159   2.606   7.378   1.474 -2.1051  1.9884 -1.7271
18741SOL     OW61160   7.448   0.108   3.171 -0.1102 -0.4296  0.0584
18741SOL    HW161161   7.393   0.115   3.093  0.0327 -0.7868 -0.0760
18741SOL    HW261162   7.518   0.048   3.146 -0.1561 -0.6775  0.5161
18742SOL     OW61163  11.053   7.916  11.472  0.2057  0.1864 -0.1042
18742SOL    HW161164  10.984   7.851  11.489  0.2158  0.7805  2.6257
18742SOL    HW261165  11.058   7.967  11.553  1.9849  1.9388 -1.2468
18743SOL     OW61166   6.913   7.861   5.627  0.3036 -0.2842 -0.1186
18743SOL    HW161167   6.880   7.908   5.550  0.7998  0.7635  0.2897
18743SOL    HW261168   6.997   7.902   5.647 -0.0218 -0.2137  1.2522
18744SOL     OW61169   2.933   7.855   6.065  0.3636 -0.6656 -0.3279
18744SOL    HW161170   3.020   7.893   6.077 -0.6260  1.5147  0.4829
18744SOL    HW261171   2.921   7.851   5.970  0.5332  1.1666 -0.4716
18745SOL     OW61172   8.470   6.711   7.158 -0.1745  0.6790  0.3369
18745SOL    HW161173   8.483   6.800   7.126  3.6785  0.1745 -0.0518
18745SOL    HW261174   8.505   6.655   7.088  1.1333 -0.8560  2.1072
18746SOL     OW61175   9.855   0.923  10.342 -0.6877  0.2847  0.0444
18746SOL    HW161176   9.785   0.868  10.307  0.4997 -1.1909 -0.1784
18746SOL    HW261177   9.856   0.904  10.436 -0.1186 -0.3237 -0.0687
18747SOL     OW61178   2.844   8.394   7.804  0.4054 -0.1121  0.1597
18747SOL    HW161179   2.792   8.463   7.763  3.5198  2.0627 -0.4591
18747SOL    HW261180   2.800   8.378   7.888 -1.7792  0.8283 -0.7211
18748SOL     OW61181  10.642   2.746   0.418 -0.4949 -0.1529  0.0664
18748SOL    HW161182  10.594   2.663   0.425 -0.5477 -0.2151 -0.9218
18748SOL    HW261183  10.719   2.733   0.473 -0.1905 -1.0824 -0.5510
18749SOL     OW61184   2.745   4.110  11.487 -0.0753 -0.9257  0.1258
18749SOL    HW161185   2.734   4.015  11.498 -0.3950 -0.9239 -0.1814
18749SOL    HW261186   2.784   4.120  11.400  2.6389 -0.9512  1.2350
18750SOL     OW61187   2.385   8.706  10.221 -0.3166 -0.0281 -0.2761
18750SOL    HW161188   2.320   8.751  10.168 -2.2395 -1.4644  0.7191
18750SOL    HW261189   2.412   8.632  10.168  0.2840  0.3925 -0.5625
18751SOL     OW61190   5.540   9.966   0.430  0.5265  0.1413  0.2484
18751SOL    HW161191   5.478   9.915   0.376  0.1608  1.1949 -0.3505
18751SOL    HW261192   5.626   9.939   0.397  0.3066  2.0957 -2.2215
18752SOL     OW61193   4.378   8.030   3.168  0.1417  0.0874 -0.6442
18752SOL    HW161194   4.430   8.060   3.094 -1.4355  1.7396 -1.1661
18752SOL    HW261195   4.402   8.090   3.239  0.0772 -0.1277 -0.4414
18753SOL     OW61196   8.087   1.965   8.921 -0.1059 -0.3943  0.1000
18753SOL    HW161197   8.160   2.021   8.894 -0.9888  1.9078  2.1050
18753SOL    HW261198   8.092   1.889   8.863  2.2511  0.9278 -1.5946
18754SOL     OW61199   6.960   9.520   8.437  0.0736  0.5359 -0.3226
18754SOL    HW161200   7.050   9.523   8.468  0.1245 -0.9541 -0.2386
18754SOL    HW261201   6.913   9.581   8.494  0.6705 -0.1547  0.9655
18755SOL     OW61202   8.770   9.311   5.116 -0.7215 -0.0826  0.3105
18755SOL    HW161203   8.830   9.385   5.117 -0.2166 -0.4864  0.1035
18755SOL    HW261204   8.787   9.265   5.198  0.3142 -1.0292 -0.4052
18756SOL     OW61205   3.431   3.187  10.221 -0.3612 -0.0128 -0.1763
18756SOL    HW161206   3.395   3.101  10.243 -1.7550  0.5714 -0.0784
18756SOL    HW261207   3.438   3.185  10.125 -4.0600  1.0484 -0.6362
18757SOL     OW61208   4.376   4.979   2.251  0.2380 -0.2962  0.1289
18757SOL    HW161209   4.308   4.967   2.316 -1.4086 -0.4515 -1.5563
18757SOL    HW261210   4.456   4.949   2.294 -0.9567 -1.3384  1.7153
18758SOL     OW61211   4.088   5.806   5.271 -0.2748  0.0966 -0.1781
18758SOL    HW161212   4.089   5.809   5.367  1.0467 -0.1339 -0.1687
18758SOL    HW261213   4.072   5.713   5.251  1.1210 -0.1748 -0.1462
18759SOL     OW61214   7.957   7.235   3.816  0.0935 -0.1810  0.5229
18759SOL    HW161215   8.035   7.218   3.764 -1.0673  0.7915 -1.6713
18759SOL    HW261216   7.943   7.155   3.867  2.0018 -0.6753  0.3164
18760SOL     OW61217   8.604  11.265   2.162  0.1492 -0.1983 -0.2279
18760SOL    HW161218   8.530  11.312   2.201 -0.4617 -1.2828 -0.0393
18760SOL    HW261219   8.664  11.334   2.135 -0.6177  0.6824  0.2401
18761SOL     OW61220   9.689   6.177   1.359 -0.5359  0.1148  0.5047
18761SOL    HW161221   9.676   6.173   1.264  3.2517  1.2874 -0.2080
18761SOL    HW261222   9.640   6.255   1.386 -0.6072  0.5154 -0.7126
18762SOL     OW61223   0.312  10.225   4.083  0.1543 -0.2079 -0.2017
18762SOL    HW161224   0.254  10.163   4.127 -1.5396 -1.0037 -3.2177
18762SOL    HW261225   0.271  10.310   4.094 -0.0432 -0.3378  0.0671
18763SOL     OW61226   6.621   3.607  10.395 -0.4124 -0.0305  0.1311
18763SOL    HW161227   6.573   3.676  10.350 -1.0095  0.7589  1.9281
18763SOL    HW261228   6.577   3.526  10.368 -0.6263  0.3894 -0.8385
18764SOL     OW61229   2.813   7.265   7.979 -0.0573 -0.6989 -0.2166
18764SOL    HW161230   2.724   7.240   8.004 -0.6785  1.1040 -0.5187
18764SOL    HW261231   2.839   7.199   7.914 -1.3911 -0.9158 -0.5624
18765SOL     OW61232   8.511   9.522   9.021  0.2216  0.2891 -0.5285
18765SOL    HW161233   8.492   9.435   9.054 -1.6373  0.4427 -1.0778
18765SOL    HW261234   8.511   9.578   9.099  0.0764  0.0158 -0.3334
18766SOL     OW61235   1.289   0.389   0.734 -0.2566  0.6725 -0.6160
18766SOL    HW161236   1.256   0.301   0.752 -1.9982  1.2116 -0.9931
18766SOL    HW261237   1.248   0.444   0.801  1.2906  1.1381 -0.0065
18767SOL     OW61238   5.327   7.912   7.215 -0.2975  0.2663 -0.0191
18767SOL    HW161239   5.405   7.856   7.212 -0.8485 -0.9363  3.3509
18767SOL    HW261240   5.359   7.996   7.248 -0.3732 -0.3235  1.6707
18768SOL     OW61241   4.410   3.918   2.689  0.0155 -0.0146 -0.3217
18768SOL    HW161242   4.369   3.911   2.603  2.5169  0.5897 -1.6702
18768SOL    HW261243   4.374   3.845   2.739 -2.1900  0.1546 -1.5341
18769SOL     OW61244   6.908  11.579   8.583 -0.0863  0.0904 -0.9684
18769SOL    HW161245   6.852  11.598   8.658  0.5799 -0.2906 -0.3662
18769SOL    HW261246   6.851  11.591   8.507 -1.2391 -1.1236 -0.3446
18770SOL     OW61247   4.520   8.057   5.353  0.7071 -0.0982 -0.3940
18770SOL    HW161248   4.484   8.076   5.266  0.1075 -0.4719 -0.2324
18770SOL    HW261249   4.490   8.129   5.408  0.6616 -0.1227 -0.3860
18771SOL     OW61250  10.552   6.007   8.784  0.6137  0.3423 -0.0990
18771SOL    HW161251  10.555   6.046   8.871 -1.8375 -0.5639  0.4799
18771SOL    HW261252  10.469   5.960   8.782  0.4184  0.6261 -3.0592
18772SOL     OW61253   9.576   7.975  10.832  0.8667  0.1135 -0.4431
18772SOL    HW161254   9.493   7.988  10.786  1.3460 -0.1286 -1.4067
18772SOL    HW261255   9.630   8.049  10.803  0.9246  0.3797  0.3330
18773SOL     OW61256   3.964   9.717   5.499 -0.0361  0.2197  0.4290
18773SOL    HW161257   3.971   9.648   5.433 -2.8164  0.1113  0.1320
18773SOL    HW261258   3.876   9.706   5.536  0.5253  1.8339  2.4192
18774SOL     OW61259   1.659   8.553   7.706  0.2548  0.3379  0.6009
18774SOL    HW161260   1.725   8.620   7.721  0.8080 -0.1684  0.4467
18774SOL    HW261261   1.708   8.474   7.685 -0.4059  0.4643 -1.7134
18775SOL     OW61262   8.879   0.035   5.963  0.2011  0.0404  0.3262
18775SOL    HW161263   8.953   0.039   6.023  0.4036 -0.8464  0.1495
18775SOL    HW261264   8.805   0.009   6.018  0.2578 -0.1553  0.3133
18776SOL     OW61265   3.370   8.690   8.488 -0.2275  0.4294  0.5316
18776SOL    HW161266   3.371   8.637   8.409  2.9192 -1.9531  1.9332
18776SOL    HW261267   3.306   8.759   8.471 -0.7401 -0.8155 -3.4353
18777SOL     OW61268   2.990   8.847   3.237  0.4564 -0.0430 -0.2498
18777SOL    HW161269   2.898   8.852   3.261  0.4499 -0.4344 -0.1852
18777SOL    HW261270   2.990   8.831   3.143  0.4498 -0.4895 -0.1755
18778SOL     OW61271   4.878  10.797   9.143 -0.1481  0.6081 -0.7772
18778SOL    HW161272   4.959  10.760   9.179 -0.4884 -0.1488 -0.7773
18778SOL    HW261273   4.898  10.812   9.050 -0.2779 -0.4140 -0.9857
18779SOL     OW61274  10.534   7.179   4.569 -0.0641  0.0615  0.0169
18779SOL    HW161275  10.552   7.273   4.568 -0.8369  0.2287  0.9083
18779SOL    HW261276  10.575   7.146   4.489  0.8836  1.0308  0.0826
18780SOL     OW61277   0.193   1.926   4.286  0.4459 -0.0622 -0.2910
18780SOL    HW161278   0.166   2.010   4.251  0.9278  0.4434  0.5028
18780SOL    HW261279   0.113   1.886   4.320  0.4104  0.6468  0.4792
18781SOL     OW61280   2.651   9.434   7.050 -0.4050 -0.4130  0.3865
18781SOL    HW161281   2.605   9.493   6.990  0.5616  0.1640  0.2011
18781SOL    HW261282   2.612   9.348   7.033 -0.3685 -0.2026 -0.8522
18782SOL     OW61283   9.065   9.542   1.040 -0.4181 -0.4395  0.2593
18782SOL    HW161284   9.157   9.567   1.038 -1.2662  3.1328 -0.3433
18782SOL    HW261285   9.056   9.494   1.123  1.3935  2.0563  2.0708
18783SOL     OW61286   1.111   8.463   8.469 -0.0157  0.2948 -0.5524
18783SOL    HW161287   1.176   8.410   8.423  2.4105  1.3241  1.4732
18783SOL    HW261288   1.132   8.553   8.446 -1.1731  0.6236 -0.3837
18784SOL     OW61289   7.854   2.092   4.661  0.3480 -0.0140 -0.6339
18784SOL    HW161290   7.881   2.141   4.739 -0.6917  1.3258 -1.0789
18784SOL    HW261291   7.906   2.012   4.664 -1.0437 -0.9599  2.5096
18785SOL     OW61292  10.460   7.021   2.078 -0.2690  0.2671 -0.6676
18785SOL    HW161293  10.525   6.974   2.131  0.0966  0.2427 -1.1240
18785SOL    HW261294  10.482   6.998   1.988 -1.6791 -0.7205 -0.7852
18786SOL     OW61295   4.157   7.816   7.781 -0.1283  0.4408  0.2926
18786SOL    HW161296   4.139   7.797   7.873  1.3818  1.4595  0.8303
18786SOL    HW261297   4.085   7.873   7.753 -0.9500 -0.4090  0.6284
18787SOL     OW61298   7.007   1.034   8.279 -0.0642  0.1551  0.3886
18787SOL    HW161299   7.052   1.059   8.199 -0.2495 -0.3842  0.1109
18787SOL    HW261300   7.062   1.069   8.349  1.7486 -1.9156  0.1288
18788SOL     OW61301   2.716   7.798   0.377 -0.6073 -0.5942  0.5927
18788SOL    HW161302   2.705   7.875   0.322 -0.4539 -0.5142  0.6735
18788SOL    HW261303   2.631   7.754   0.374 -0.4460 -0.8611 -0.1114
18789SOL     OW61304   2.363   6.564   9.076 -0.1311  0.0706  0.1229
18789SOL    HW161305   2.397   6.536   8.991  1.9362  1.9767  0.2396
18789SOL    HW261306   2.314   6.644   9.058  1.4796  1.2618  0.8447
18790SOL     OW61307   3.717  10.364  10.732  0.5695 -0.0847  0.1420
18790SOL    HW161308   3.792  10.367  10.673  0.0331 -0.3595 -0.5732
18790SOL    HW261309   3.651  10.313  10.684  0.2419 -0.6055  1.1196
18791SOL     OW61310   9.091   3.784  11.202  0.5046 -0.1433  0.1501
18791SOL    HW161311   9.026   3.715  11.212  0.8957 -0.2863  1.9012
18791SOL    HW261312   9.167   3.740  11.165 -0.2381 -0.0311 -1.6256
18792SOL     OW61313   1.262   0.242   4.907 -0.2574 -0.5866 -0.1238
18792SOL    HW161314   1.200   0.263   4.838  0.5111  0.3860 -0.5344
18792SOL    HW261315   1.348   0.250   4.866  0.1778 -0.8596  0.7137
18793SOL     OW61316   7.862   1.444   3.226 -0.4043  0.2028  0.7353
18793SOL    HW161317   7.878   1.522   3.279 -1.8051  1.5639 -0.6996
18793SOL    HW261318   7.772   1.456   3.193  0.1073 -0.9461 -1.2428
18794SOL     OW61319   9.236   8.290   2.586 -0.0872  0.3351  0.2606
18794SOL    HW161320   9.220   8.356   2.519 -0.2487  1.3879  1.3122
18794SOL    HW261321   9.293   8.332   2.650 -0.1386 -0.5600  0.9287
18795SOL     OW61322   6.295   4.207  10.905  0.1219 -0.6987 -0.1954
18795SOL    HW161323   6.257   4.132  10.859 -0.1158  0.2831 -1.6741
18795SOL    HW261324   6.381   4.219  10.865  0.1627 -0.2003  0.0336
18796SOL     OW61325   8.805   6.347   3.588 -0.3799  0.3702  0.0799
18796SOL    HW161326   8.731   6.286   3.583 -1.1817  0.9989  2.8017
18796SOL    HW261327   8.768   6.431   3.562 -0.4315  0.5522  0.7460
18797SOL     OW61328   2.829   2.295   7.779  0.0333 -0.2996 -0.3687
18797SOL    HW161329   2.879   2.297   7.861 -0.7482  0.4130  0.1026
18797SOL    HW261330   2.821   2.201   7.759  1.8586 -0.4222 -0.6585
18798SOL     OW61331   2.108  11.008   0.813  0.3114 -0.1388 -0.1239
18798SOL    HW161332   2.057  11.082   0.780  0.1146  0.8349  2.1955
18798SOL    HW261333   2.043  10.938   0.826  0.2943 -0.3244 -1.1223
18799SOL     OW61334  11.430   8.752   4.493  0.3836 -0.1057 -0.5807
18799SOL    HW161335  11.356   8.708   4.452 -1.4598  1.3445  0.9513
18799SOL    HW261336  11.404   8.763   4.584  1.5189  2.3863 -0.4615
18800SOL     OW61337   5.334   0.962   2.525 -0.1912  0.3409  0.1951
18800SOL    HW161338   5.355   1.049   2.490 -0.9986  0.7313  0.6792
18800SOL    HW261339   5.415   0.934   2.567  0.2641  0.5954 -0.4869
18801SOL     OW61340  11.151   2.610   1.414  0.2129 -1.0377 -0.2917
18801SOL    HW161341  11.206   2.532   1.410 -1.7770 -2.4978 -4.1556
18801SOL    HW261342  11.067   2.578   1.446 -0.0031  0.0431  0.2782
18802SOL     OW61343   4.798   1.530   0.699 -0.2372  0.7106  0.4510
18802SOL    HW161344   4.759   1.512   0.784 -0.9357 -0.5955 -0.1226
18802SOL    HW261345   4.886   1.492   0.705 -0.1574  0.9252  0.6923
18803SOL     OW61346   5.726   9.159   0.513 -0.0423  0.3548 -0.0918
18803SOL    HW161347   5.648   9.212   0.494 -1.1872 -0.8619  1.0267
18803SOL    HW261348   5.731   9.096   0.441 -0.2144  0.3015 -0.0572
18804SOL     OW61349  11.287   5.388   7.547 -0.0445 -0.0362 -0.1530
18804SOL    HW161350  11.276   5.405   7.454 -0.2789  0.0189 -0.1165
18804SOL    HW261351  11.242   5.305   7.563  0.5023 -0.3428 -0.1987
18805SOL     OW61352  10.183   6.961   8.734 -0.1642  0.4734 -0.0015
18805SOL    HW161353  10.169   6.984   8.642 -0.6617 -0.3183 -0.1298
18805SOL    HW261354  10.116   7.009   8.781 -0.6651 -0.0338 -0.1826
18806SOL     OW61355  10.133   2.083   6.619  0.0074 -0.5697 -0.5556
18806SOL    HW161356  10.101   2.039   6.698 -0.7001 -0.7659 -0.9472
18806SOL    HW261357  10.090   2.038   6.547  1.5413 -1.1667 -1.1485
18807SOL     OW61358   9.905   7.559   5.296  0.7214 -0.1987  0.5358
18807SOL    HW161359   9.970   7.609   5.346  1.0115 -1.3529  1.3580
18807SOL    HW261360   9.879   7.488   5.355 -3.3353  1.6910  1.3609
18808SOL     OW61361   5.054   2.210   9.273 -0.6389  0.2040 -0.2268
18808SOL    HW161362   5.102   2.154   9.334 -1.6054 -2.1438 -1.5033
18808SOL    HW261363   5.120   2.242   9.212 -0.0493  0.5578  0.5890
18809SOL     OW61364   4.278  11.250   2.219  0.0338 -0.2252 -0.2118
18809SOL    HW161365   4.203  11.263   2.277 -0.1215 -1.2253 -0.1781
18809SOL    HW261366   4.275  11.324   2.158  0.1573  0.8095  0.9987
18810SOL     OW61367   9.445   0.096   0.300  0.3890  0.0898 -0.1629
18810SOL    HW161368   9.518   0.035   0.310  0.3736 -0.0891 -1.0001
18810SOL    HW261369   9.370   0.051   0.338  0.7018  0.2639  0.6788
18811SOL     OW61370   7.439   3.044   3.706  0.2922 -0.0715 -0.2989
18811SOL    HW161371   7.415   3.110   3.641 -2.6659 -2.6783 -2.1684
18811SOL    HW261372   7.356   3.010   3.738  1.6810 -1.2234  2.4583
18812SOL     OW61373   7.754  10.946   6.404 -0.2450 -0.4607  0.1444
18812SOL    HW161374   7.717  10.895   6.476 -0.2605 -0.5935  0.0419
18812SOL    HW261375   7.810  11.011   6.447 -1.3252  0.3698  0.3755
18813SOL     OW61376   7.552   7.082  10.358 -0.4739 -0.4608 -0.2881
18813SOL    HW161377   7.566   7.171  10.329 -2.7092  0.0876  0.1282
18813SOL    HW261378   7.489   7.045  10.296 -2.5316 -0.4335  1.6512
18814SOL     OW61379   6.644   8.112   1.175  0.0360  0.6361 -0.5500
18814SOL    HW161380   6.631   8.195   1.221 -0.3790  0.3008 -0.0545
18814SOL    HW261381   6.722   8.127   1.121 -0.0959  1.3778 -0.5419
18815SOL     OW61382   6.769   0.734   1.350 -0.0508  0.3852  0.2096
18815SOL    HW161383   6.793   0.743   1.258  1.2191 -2.4198  0.1695
18815SOL    HW261384   6.687   0.686   1.350 -0.2183  0.6638  0.5415
18816SOL     OW61385   4.609   0.696   3.718 -0.2390  0.7405  0.7140
18816SOL    HW161386   4.625   0.740   3.634 -0.9695  0.5958  0.4911
18816SOL    HW261387   4.569   0.613   3.693 -1.5280  1.1793  1.2403
18817SOL     OW61388   5.194   3.615   3.986  0.5044  0.2692 -0.0072
18817SOL    HW161389   5.191   3.604   3.891 -1.2549  0.7265 -0.0336
18817SOL    HW261390   5.112   3.578   4.018  1.4014 -0.5897  1.4485
18818SOL     OW61391   0.832   5.792   1.750 -0.0362  0.7463 -0.0868
18818SOL    HW161392   0.799   5.805   1.839  0.8782  0.8815  0.2454
18818SOL    HW261393   0.775   5.847   1.696 -2.2733 -1.3110  0.0165
18819SOL     OW61394  10.054   5.814   0.135 -0.1322  0.2710  0.1415
18819SOL    HW161395  10.127   5.773   0.181 -0.1296 -1.2735 -1.1096
18819SOL    HW261396  10.059   5.778   0.046 -1.3217  1.5589 -0.4908
18820SOL     OW61397   9.547  11.171   1.961 -0.5307  0.3762 -0.0771
18820SOL    HW161398   9.597  11.185   2.042 -0.0450 -2.1625  0.1584
18820SOL    HW261399   9.614  11.166   1.892 -0.9745  3.0321 -0.8047
18821SOL     OW61400  11.664   2.586   4.395 -0.1312 -0.5561 -0.1112
18821SOL    HW161401  11.728   2.554   4.332  0.6010 -1.0608  0.8676
18821SOL    HW261402  11.676   2.681   4.395 -0.1582 -0.5492 -0.7408
18822SOL     OW61403   2.534   7.947   0.164  0.3000 -0.1586  0.2651
18822SOL    HW161404   2.544   7.936   0.069 -1.0705 -1.1186  0.1972
18822SOL    HW261405   2.492   8.033   0.173  1.4462  0.4335  0.0906
18823SOL     OW61406   1.465  10.686   6.640  0.7694 -0.4494  0.3015
18823SOL    HW161407   1.455  10.678   6.735  1.4848  1.0796  0.5386
18823SOL    HW261408   1.560  10.685   6.626  0.6681 -0.6644 -0.3888
18824SOL     OW61409   0.740   3.108   5.446 -0.0547  0.1767  0.0253
18824SOL    HW161410   0.669   3.118   5.383 -0.2142  1.2172  0.3523
18824SOL    HW261411   0.769   3.018   5.435  0.4517  0.5384 -2.1088
18825SOL     OW61412   8.004   2.469   7.641  0.1627  0.4172  0.2256
18825SOL    HW161413   8.011   2.374   7.629 -0.0364  0.4972 -0.5309
18825SOL    HW261414   7.958   2.479   7.725  0.3732 -0.1509  0.4121
18826SOL     OW61415   4.892   8.057   2.993  0.2919  0.0537  0.1354
18826SOL    HW161416   4.818   7.997   2.981  1.2627 -1.5381  1.6202
18826SOL    HW261417   4.968   8.008   2.964  1.1216  0.4795  1.4858
18827SOL     OW61418   8.339   6.157   6.483  0.7185 -0.1972  0.1794
18827SOL    HW161419   8.328   6.157   6.388 -0.0304  0.6967  0.2547
18827SOL    HW261420   8.432   6.175   6.496  0.9344 -0.8652 -0.3839
18828SOL     OW61421   5.373   8.896   8.023  0.6578 -0.4758  0.0117
18828SOL    HW161422   5.335   8.893   8.110 -0.5909  0.7142 -0.4517
18828SOL    HW261423   5.433   8.971   8.025  0.5001 -0.3430 -0.1978
18829SOL     OW61424   7.793   3.929   3.674  0.3608 -0.3876 -0.3634
18829SOL    HW161425   7.805   3.871   3.749  2.2123 -0.4515 -0.6585
18829SOL    HW261426   7.787   3.870   3.599  0.3527 -0.2622 -0.4625
18830SOL     OW61427   8.380   3.561   6.409 -0.9829  0.0920 -0.2615
18830SOL    HW161428   8.394   3.468   6.392 -2.9991 -0.3352  0.1940
18830SOL    HW261429   8.289   3.578   6.385 -1.2028  1.5287  1.3004
18831SOL     OW61430   5.418   5.345   5.159  0.5383  0.4961  0.2355
18831SOL    HW161431   5.347   5.409   5.147  0.1379 -0.1179 -0.8516
18831SOL    HW261432   5.386   5.288   5.229 -1.1205 -1.1234 -1.7052
18832SOL     OW61433   7.781   9.564   2.567 -0.5014  0.6953 -0.2194
18832SOL    HW161434   7.800   9.639   2.511  0.8769  0.8253  0.3651
18832SOL    HW261435   7.740   9.602   2.645 -0.4050  0.7755 -0.2067
18833SOL     OW61436  11.057   0.939   0.381 -0.6765  0.2239  0.4891
18833SOL    HW161437  11.034   1.029   0.356  0.6772  0.1960 -1.0629
18833SOL    HW261438  11.110   0.948   0.460  1.5796  1.0763 -1.0283
18834SOL     OW61439   6.372   3.123   8.274 -0.0737 -0.6640 -0.1127
18834SOL    HW161440   6.296   3.176   8.298 -0.8648 -1.0946 -1.5594
18834SOL    HW261441   6.397   3.154   8.187  1.4625 -0.4978  0.3577
18835SOL     OW61442  10.766   2.627  11.607  0.1845  0.0409 -0.2423
18835SOL    HW161443  10.763   2.681  11.686 -1.8317  1.3873 -1.1678
18835SOL    HW261444  10.828   2.671  11.550  2.6590 -1.6366  0.9622
18836SOL     OW61445   2.051  11.083   9.030  0.1631  0.7193 -0.1230
18836SOL    HW161446   2.134  11.056   9.069 -0.1350  0.0064  0.0395
18836SOL    HW261447   2.067  11.172   9.000  0.4977  1.1819  1.3417
18837SOL     OW61448  11.520   8.286   3.609  0.1908 -0.3079  0.3709
18837SOL    HW161449  11.502   8.321   3.521 -0.1499 -0.2989  0.4432
18837SOL    HW261450  11.493   8.356   3.668  0.5045 -0.2796  0.4807
18838SOL     OW61451   7.496   2.025   1.376 -0.4445 -0.4982  0.0478
18838SOL    HW161452   7.402   2.042   1.368 -0.3061  0.5545  0.5106
18838SOL    HW261453   7.536   2.112   1.380  0.3900 -0.9112  1.5718
18839SOL     OW61454   9.028   3.268   3.307  0.0854  0.0167 -0.1372
18839SOL    HW161455   8.945   3.246   3.351  0.1676 -1.1026 -0.5245
18839SOL    HW261456   9.094   3.218   3.355  0.1357 -1.5050 -1.7246
18840SOL     OW61457   1.435   3.048   5.900 -0.7891  0.2773 -0.4437
18840SOL    HW161458   1.477   3.134   5.890 -0.8976  0.4251  0.2800
18840SOL    HW261459   1.498   2.986   5.863 -0.4056  0.6076 -0.3512
18841SOL     OW61460   2.474   9.466   7.843  0.6708 -0.0918 -0.3331
18841SOL    HW161461   2.408   9.536   7.839 -0.2092 -0.9447 -1.5378
18841SOL    HW261462   2.429   9.389   7.808  2.5563 -0.5118 -1.9746
18842SOL     OW61463   6.543   9.743   6.060 -0.0562  0.7397 -0.2577
18842SOL    HW161464   6.522   9.650   6.053 -1.4713  1.0933 -1.1743
18842SOL    HW261465   6.577   9.754   6.149  0.9005 -0.7837 -0.4110
18843SOL     OW61466   9.996   4.385   3.785  0.5078 -0.1128  0.0368
18843SOL    HW161467   9.987   4.291   3.804  1.1397 -0.5177 -1.5294
18843SOL    HW261468   9.935   4.427   3.845 -0.5836 -1.6170  0.0422
18844SOL     OW61469   3.162   4.446   9.113 -0.4015 -0.4931 -0.2927
18844SOL    HW161470   3.112   4.518   9.074  1.0824 -0.2601 -1.9243
18844SOL    HW261471   3.142   4.371   9.058 -0.2579 -0.7853  0.0542
18845SOL     OW61472   6.274   4.387   2.240 -0.1639  0.7518  0.3013
18845SOL    HW161473   6.349   4.446   2.251 -0.6417  1.4964 -0.3652
18845SOL    HW261474   6.272   4.337   2.322 -0.0594  2.0261  1.1195
18846SOL     OW61475   9.590  10.429   4.978  0.4567 -0.1842  0.4009
18846SOL    HW161476   9.573  10.521   5.000 -0.3677 -0.5514  1.3728
18846SOL    HW261477   9.505  10.386   4.985  0.6158 -0.8206 -1.1914
18847SOL     OW61478   6.977   6.338   9.883 -0.4584 -0.2780 -0.1579
18847SOL    HW161479   6.904   6.379   9.930 -0.8791 -0.1657 -0.8961
18847SOL    HW261480   6.982   6.250   9.921  0.4773  0.4378  1.4600
18848SOL     OW61481   9.917   4.396   8.544 -0.2542  0.3663 -0.2174
18848SOL    HW161482   9.972   4.467   8.578  1.3229 -0.4775 -0.8895
18848SOL    HW261483   9.875   4.359   8.622  0.4471  0.7820  0.3753
18849SOL     OW61484   7.899   5.687  10.275  0.7645 -0.5617  0.1720
18849SOL    HW161485   7.972   5.730  10.320  0.0570 -0.2739  1.0858
18849SOL    HW261486   7.923   5.594  10.274  0.8428 -0.5662  1.0952
18850SOL     OW61487   8.997   9.661   0.359 -0.5060  0.3724  0.4588
18850SOL    HW161488   8.927   9.632   0.301 -1.0814  1.2770  0.6959
18850SOL    HW261489   9.057   9.710   0.303  1.1676 -2.2330 -0.2349
18851SOL     OW61490   3.602   0.321   0.353 -0.2994  0.0147  0.1763
18851SOL    HW161491   3.615   0.415   0.361  1.2188  0.1385 -2.5645
18851SOL    HW261492   3.663   0.282   0.416  1.0719  0.8527 -0.6041
18852SOL     OW61493   0.932   8.686   0.703 -0.1987  0.2558  0.5290
18852SOL    HW161494   0.902   8.612   0.650  1.3932  0.2071 -0.3604
18852SOL    HW261495   1.022   8.664   0.727  0.1669  1.7096  0.5987
18853SOL     OW61496   1.022   7.727   2.054  0.2826  0.0373 -0.1606
18853SOL    HW161497   0.928   7.719   2.040  0.3747  0.1337 -0.8427
18853SOL    HW261498   1.046   7.646   2.099 -0.1185 -0.0063 -0.0169
18854SOL     OW61499   8.247  10.715   6.291  0.0328  0.7710  0.5430
18854SOL    HW161500   8.293  10.632   6.291  1.2435  1.4021 -1.0918
18854SOL    HW261501   8.155  10.692   6.307 -0.0063 -1.1253 -1.9266
18855SOL     OW61502   6.105   1.337   5.564 -1.0641 -0.6922  0.1816
18855SOL    HW161503   6.077   1.340   5.656  1.8110 -0.8515  1.1641
18855SOL    HW261504   6.122   1.245   5.547  1.1766 -0.3703  0.4674
18856SOL     OW61505   2.551  10.841  11.162  0.1948 -0.2841 -0.3850
18856SOL    HW161506   2.515  10.858  11.249 -0.3174  0.1981 -0.6858
18856SOL    HW261507   2.540  10.746  11.150  0.3742 -0.3713  0.1187
18857SOL     OW61508   4.847   5.360   7.023  0.3069  0.0732  0.2142
18857SOL    HW161509   4.931   5.327   7.053  0.8512  1.3747  0.1851
18857SOL    HW261510   4.859   5.454   7.015 -1.4746  0.4509  1.2645
18858SOL     OW61511   4.119   6.569   3.572 -0.1360 -0.1686 -0.4710
18858SOL    HW161512   4.159   6.483   3.560 -1.8351 -0.8998 -1.3551
18858SOL    HW261513   4.052   6.573   3.503 -3.4712 -0.2266  2.4918
18859SOL     OW61514   9.639   5.903  10.762  0.1163 -0.1525 -0.0148
18859SOL    HW161515   9.638   5.867  10.851 -1.9854 -2.1729 -0.7814
18859SOL    HW261516   9.706   5.852  10.717 -1.7369 -2.1682 -0.6556
18860SOL     OW61517   5.738   8.208   1.627  0.6244 -0.3272 -0.4104
18860SOL    HW161518   5.653   8.192   1.667  1.0573 -0.4092  0.5089
18860SOL    HW261519   5.718   8.233   1.537 -0.6961  4.1435  0.8934
18861SOL     OW61520   0.039   8.223   4.138 -0.3889 -0.5547  0.2457
18861SOL    HW161521   0.110   8.283   4.159 -1.5449  0.5870  1.1456
18861SOL    HW261522  -0.032   8.280   4.107 -1.9491 -1.2394  2.2810
18862SOL     OW61523   7.036   1.715  10.035  0.0922 -0.0744  0.1873
18862SOL    HW161524   7.087   1.664   9.973  0.6879 -0.1709  0.7488
18862SOL    HW261525   6.945   1.696  10.013  0.2434  0.9626 -1.5566
18863SOL     OW61526   6.244   9.578   2.160 -0.3096  0.3826 -0.3864
18863SOL    HW161527   6.315   9.530   2.117 -0.1045  1.7854 -1.7276
18863SOL    HW261528   6.270   9.670   2.151 -1.8989  0.8740 -0.1686
18864SOL     OW61529   8.001   4.875  11.633  0.4549  0.0475  0.4618
18864SOL    HW161530   7.942   4.922  11.692  1.4382  0.5784  1.0595
18864SOL    HW261531   7.955   4.793  11.614 -0.0358 -0.0015  1.7225
18865SOL     OW61532   4.535   4.534   7.838 -0.0699  0.0509  0.1713
18865SOL    HW161533   4.549   4.621   7.802 -0.3018 -0.0508 -0.1757
18865SOL    HW261534   4.593   4.477   7.786 -0.0469 -0.0248  0.2796
18866SOL     OW61535   7.615   6.736  11.068 -0.0951  0.2255  0.0148
18866SOL    HW161536   7.632   6.736  10.974 -0.9829 -0.0499 -0.1534
18866SOL    HW261537   7.670   6.807  11.102  0.6841 -0.0544 -0.6183
18867SOL     OW61538   1.836   4.994   5.420 -0.5606  0.1812 -0.2228
18867SOL    HW161539   1.880   5.079   5.429 -1.3950  0.6290 -0.2769
18867SOL    HW261540   1.781   5.004   5.342  1.4118 -1.3510 -1.9419
18868SOL     OW61541   7.809   3.931   4.905  0.3727 -0.0564  0.0705
18868SOL    HW161542   7.874   3.933   4.976 -0.1557  0.2221  0.5508
18868SOL    HW261543   7.746   3.864   4.932  0.2555 -0.0663 -0.2227
18869SOL     OW61544   6.439   1.696   8.620 -0.1240  0.2373  0.5470
18869SOL    HW161545   6.383   1.686   8.543  0.8214  1.0276 -0.2762
18869SOL    HW261546   6.429   1.614   8.668 -0.8071 -0.2360 -0.3706
18870SOL     OW61547   1.938   1.534   5.422  0.6221  0.4592  0.1691
18870SOL    HW161548   1.958   1.578   5.340  2.1092  1.2866  0.9256
18870SOL    HW261549   1.887   1.598   5.472 -1.3721 -0.4905 -0.5250
18871SOL     OW61550   3.434   1.548   7.222 -0.0414  0.0062 -0.4841
18871SOL    HW161551   3.364   1.515   7.279  2.0480 -0.4473  2.0433
18871SOL    HW261552   3.406   1.525   7.134 -3.6664  1.0338  0.2120
18872SOL     OW61553  10.628  11.261   9.503  0.2230 -0.3577 -0.1936
18872SOL    HW161554  10.578  11.257   9.585 -0.0082 -0.7077 -0.3501
18872SOL    HW261555  10.697  11.324   9.521 -1.3534  1.5796 -0.5870
18873SOL     OW61556   2.531   0.896   1.412  0.3262  0.1512 -0.4675
18873SOL    HW161557   2.543   0.883   1.318  0.5527 -2.6789 -0.1187
18873SOL    HW261558   2.602   0.847   1.453 -0.3561  0.4718  1.1953
18874SOL     OW61559  10.593   7.583   7.580 -0.7780 -0.6009 -0.2295
18874SOL    HW161560  10.664   7.542   7.530 -0.6671 -1.9397  0.9495
18874SOL    HW261561  10.585   7.528   7.658 -1.6130  0.8376  0.7354
18875SOL     OW61562   5.710   8.594   8.120 -0.2232 -0.6077 -0.5262
18875SOL    HW161563   5.752   8.673   8.087  1.3673 -0.3181  1.9392
18875SOL    HW261564   5.616   8.616   8.121  0.1323  1.0289 -0.4339
18876SOL     OW61565   8.032   9.395   0.440  0.3862 -0.1725  0.2324
18876SOL    HW161566   8.079   9.461   0.490  0.9501  0.1691 -0.7167
18876SOL    HW261567   7.972   9.355   0.503 -0.6617  1.8901  0.6414
18877SOL     OW61568   1.531   8.994   3.164  0.7282  0.4083  0.3476
18877SOL    HW161569   1.465   8.929   3.141  1.1023 -0.0934  0.6568
18877SOL    HW261570   1.612   8.943   3.171  1.3529  1.1672 -1.0486
18878SOL     OW61571   0.898   0.962  11.175 -0.1636 -0.0818 -0.2136
18878SOL    HW161572   0.904   0.894  11.107  0.9274  0.0833 -0.3145
18878SOL    HW261573   0.923   1.043  11.129 -1.3405  0.3783 -0.0656
18879SOL     OW61574   3.314   2.009   5.669  0.9626 -0.1914  0.4421
18879SOL    HW161575   3.247   1.964   5.720  0.1852 -0.2757 -0.6283
18879SOL    HW261576   3.282   2.099   5.662  1.4081 -0.0124  0.6886
18880SOL     OW61577   3.809   0.088  10.943 -0.3398 -0.0018  0.0532
18880SOL    HW161578   3.724   0.120  10.915  1.4211  2.4598 -3.1561
18880SOL    HW261579   3.849   0.161  10.990  0.2093 -0.9580  1.1354
18881SOL     OW61580  11.116   1.646   8.716 -0.3054  0.1304 -0.2875
18881SOL    HW161581  11.039   1.616   8.763  0.0937 -0.5097 -0.0185
18881SOL    HW261582  11.190   1.617   8.770  0.1823 -1.0164 -1.5098
18882SOL     OW61583   3.971  10.172  11.683 -0.3411 -0.3763 -0.4457
18882SOL    HW161584   4.060  10.195  11.655 -1.7672  2.4017 -3.3026
18882SOL    HW261585   3.930  10.256  11.703 -2.9932 -1.3300 -1.4549
18883SOL     OW61586   0.014  11.046  10.478 -0.3661 -0.3893  0.5362
18883SOL    HW161587  -0.006  11.036  10.571 -1.2486 -1.5390  0.2411
18883SOL    HW261588   0.096  10.997  10.466  0.4266  0.7989  0.9272
18884SOL     OW61589   2.077   4.562   1.374  0.0194 -0.6188  0.4232
18884SOL    HW161590   2.059   4.620   1.300 -1.7278 -1.5498  0.0693
18884SOL    HW261591   2.152   4.509   1.345  1.8189  1.5054  0.8450
18885SOL     OW61592   6.116   4.607  11.644  0.7038  0.4071 -0.2859
18885SOL    HW161593   6.148   4.524  11.607  1.7733  0.7203 -0.1087
18885SOL    HW261594   6.155   4.610  11.732 -1.4454 -0.1250  0.7398
18886SOL     OW61595  11.087   0.388   0.118  0.2357 -0.2270 -0.4538
18886SOL    HW161596  11.173   0.383   0.159  0.0777 -1.3019 -0.2238
18886SOL    HW261597  11.103   0.366   0.026  0.0773 -1.3936 -0.2114
18887SOL     OW61598   3.137   2.016  10.577  0.2843  0.1154 -0.0016
18887SOL    HW161599   3.231   2.019  10.594  0.0599  0.2160  1.3559
18887SOL    HW261600   3.128   1.957  10.503  1.3521 -0.7195  0.5013
18888SOL     OW61601   2.699   0.960   0.172 -0.1925 -0.1525 -0.1343
18888SOL    HW161602   2.654   0.888   0.216 -0.7602 -0.1254 -0.6597
18888SOL    HW261603   2.649   1.038   0.195  2.0708  0.5861  2.8453
18889SOL     OW61604   3.021   3.555  10.523 -0.3386  0.5054 -0.0683
18889SOL    HW161605   3.047   3.590  10.438 -0.4901  1.0115  0.0937
18889SOL    HW261606   2.926   3.571  10.528 -0.1685  1.3947  0.6158
18890SOL     OW61607   4.868   3.847   1.671  0.0034 -0.2859 -0.6235
18890SOL    HW161608   4.891   3.823   1.581 -1.3647 -1.4781 -0.6853
18890SOL    HW261609   4.948   3.831   1.721  0.2859 -1.2513 -1.3597
18891SOL     OW61610   5.880  11.193   1.590 -0.1859  0.3334 -0.5447
18891SOL    HW161611   5.818  11.136   1.634 -0.8520  1.0075 -0.5875
18891SOL    HW261612   5.826  11.259   1.546  0.5823  2.0250  0.9089
18892SOL     OW61613   4.291   0.672   8.115 -0.2039  0.4143 -0.0406
18892SOL    HW161614   4.374   0.625   8.119  0.0992  1.0057  1.3457
18892SOL    HW261615   4.291   0.714   8.029 -0.1332 -1.4339 -0.9939
18893SOL     OW61616  10.384   3.615   0.667  0.3581  0.1836 -0.1788
18893SOL    HW161617  10.385   3.648   0.757 -0.9998 -1.0823  0.3398
18893SOL    HW261618  10.472   3.581   0.652  0.0431 -1.4800  1.4254
18894SOL     OW61619   8.665   6.471  10.174  0.2524 -0.7997 -0.3846
18894SOL    HW161620   8.757   6.464  10.197  0.3442  0.9582 -0.0324
18894SOL    HW261621   8.619   6.422  10.243  0.8846 -1.0264 -0.1189
18895SOL     OW61622   7.141   8.831   9.234  0.2213 -0.1382 -0.1402
18895SOL    HW161623   7.233   8.837   9.258 -0.0078 -0.6877  0.9468
18895SOL    HW261624   7.110   8.922   9.234  0.4801 -0.0422  0.6903
18896SOL     OW61625   4.233   3.122   2.501 -0.1437 -0.6741 -0.1696
18896SOL    HW161626   4.175   3.152   2.571 -0.4349  0.9328 -1.0269
18896SOL    HW261627   4.191   3.044   2.466 -0.8170 -0.5875  0.4333
18897SOL     OW61628   0.849   1.909  11.170  0.2376 -0.5771 -0.4502
18897SOL    HW161629   0.839   1.819  11.202  3.4430 -1.2912 -1.1314
18897SOL    HW261630   0.855   1.899  11.075  2.4018  0.0581 -0.4365
18898SOL     OW61631   5.973   5.673   2.930 -0.4978  0.4182  0.3281
18898SOL    HW161632   5.912   5.737   2.895  0.8160  0.9391 -1.1523
18898SOL    HW261633   5.925   5.629   2.999 -3.1724 -0.4235 -1.8920
18899SOL     OW61634  10.396   1.315   0.575 -0.1662 -0.2233  0.6910
18899SOL    HW161635  10.306   1.331   0.604 -0.4432  0.6380 -0.5589
18899SOL    HW261636  10.393   1.230   0.532 -0.2827 -0.3995  1.0448
18900SOL     OW61637   5.425   1.420   6.065 -0.1697 -0.0358 -0.0261
18900SOL    HW161638   5.407   1.476   6.141  1.4180  0.3788  0.0750
18900SOL    HW261639   5.340   1.380   6.044 -0.6400 -0.2599  2.0409
18901SOL     OW61640   7.250   4.189   2.420 -0.0806  0.2879  0.2714
18901SOL    HW161641   7.233   4.283   2.417 -0.5655  0.1910 -0.2169
18901SOL    HW261642   7.345   4.181   2.418  0.1412  0.8682  3.3522
18902SOL     OW61643   1.326   9.852   4.059  0.1909  0.2144 -0.1434
18902SOL    HW161644   1.402   9.800   4.034 -1.3506 -1.9183 -0.6943
18902SOL    HW261645   1.318   9.838   4.154  1.1209  1.4071  0.1349
18903SOL     OW61646   8.441   7.092   4.609  0.6984 -0.0826 -0.2638
18903SOL    HW161647   8.377   7.046   4.664  0.3231  1.4969  0.6993
18903SOL    HW261648   8.403   7.091   4.522 -0.4229  0.3906  0.1981
18904SOL     OW61649  11.559   1.130   1.186  0.0758  0.3605  0.6347
18904SOL    HW161650  11.538   1.038   1.168 -0.0721  0.5736 -0.3716
18904SOL    HW261651  11.477   1.177   1.167 -0.0274  0.6394  1.7277
18905SOL     OW61652   0.166   4.306  11.471  0.1634  0.2218  0.1612
18905SOL    HW161653   0.078   4.340  11.455 -0.3146 -1.1059 -0.1683
18905SOL    HW261654   0.155   4.249  11.547  0.4437 -1.0232 -0.7097
18906SOL     OW61655   0.911   4.959   2.644  0.4568 -0.0085  0.3244
18906SOL    HW161656   0.882   5.034   2.591 -0.1857 -0.1930  0.4078
18906SOL    HW261657   0.955   4.902   2.581  0.9055  0.4097  0.2489
18907SOL     OW61658   1.099   5.052   6.569 -0.3907 -0.1770 -0.6185
18907SOL    HW161659   1.080   5.141   6.539 -1.2754  0.4259  1.5004
18907SOL    HW261660   1.022   5.001   6.544  0.5322 -0.6538 -2.7187
18908SOL     OW61661   0.662  10.655   7.498 -0.0891  0.2640 -0.1677
18908SOL    HW161662   0.615  10.589   7.447 -0.8819  0.9158 -0.3095
18908SOL    HW261663   0.615  10.658   7.582  0.4873  0.0286  0.1714
18909SOL     OW61664   0.162   5.054   0.876 -0.3738 -0.6985 -0.5137
18909SOL    HW161665   0.231   5.113   0.904 -1.0133  0.2196 -0.8360
18909SOL    HW261666   0.187   5.027   0.788 -0.7369  0.1475 -0.8884
18910SOL     OW61667   4.682   8.695  10.096  0.2438 -0.0660  0.2570
18910SOL    HW161668   4.602   8.707  10.044  1.1845 -1.4704 -1.6130
18910SOL    HW261669   4.744   8.654  10.036  2.2076  0.4485  1.8300
18911SOL     OW61670   4.410   5.006   7.146 -0.2285 -0.1355  0.0176
18911SOL    HW161671   4.382   4.927   7.191  0.5520  0.3301  1.3665
18911SOL    HW261672   4.503   4.991   7.127  0.9818  1.8151  3.5546
18912SOL     OW61673   6.711  10.256   0.242  0.1080 -0.2337 -0.2128
18912SOL    HW161674   6.762  10.247   0.322 -1.0256  0.7117  0.6527
18912SOL    HW261675   6.666  10.172   0.233  0.4649 -0.4447 -0.0225
18913SOL     OW61676   6.507   0.543   3.082  0.2034 -0.5688 -0.0388
18913SOL    HW161677   6.499   0.552   2.987 -0.3640  1.4305  0.1502
18913SOL    HW261678   6.417   0.527   3.113  0.0717  0.7439  0.3046
18914SOL     OW61679   9.637   1.236  10.501  0.3512 -0.4556  0.8836
18914SOL    HW161680   9.668   1.175  10.435 -1.7437  1.1355 -1.7844
18914SOL    HW261681   9.713   1.290  10.523  1.2948 -1.5852  0.4683
18915SOL     OW61682  10.718   6.242   1.909 -0.2521 -0.2553 -0.2153
18915SOL    HW161683  10.679   6.247   1.822  0.0224  0.4152 -0.3083
18915SOL    HW261684  10.691   6.324   1.951 -0.5762 -0.6787  0.4119
18916SOL     OW61685   2.881   5.362   8.518 -0.2865 -0.1189  0.0529
18916SOL    HW161686   2.848   5.293   8.576 -1.0886  1.1591  1.1976
18916SOL    HW261687   2.974   5.343   8.508 -0.2029 -0.5907  1.4712
18917SOL     OW61688   6.953   7.401  10.791 -0.2272 -0.6984  0.0698
18917SOL    HW161689   7.027   7.350  10.826  0.3277  0.4806  0.6480
18917SOL    HW261690   6.877   7.368  10.839 -0.0255 -1.6181 -0.2158
18918SOL     OW61691   8.943   7.012   7.626  0.1635  0.1208 -0.5134
18918SOL    HW161692   8.854   7.022   7.661 -0.2463  0.3674 -1.6014
18918SOL    HW261693   8.999   7.011   7.704 -0.7162  0.7919  0.1512
18919SOL     OW61694   6.532   9.649   6.684  0.1648 -0.4859 -0.7874
18919SOL    HW161695   6.519   9.679   6.774 -1.6040 -0.3657 -1.0539
18919SOL    HW261696   6.609   9.697   6.654  0.0025  0.4663  0.2383
18920SOL     OW61697   3.006   9.411   0.002  0.1604  0.4308  0.5869
18920SOL    HW161698   2.967   9.349   0.062  2.3349 -1.7780 -0.1131
18920SOL    HW261699   3.064   9.464   0.057  0.1038  0.2305  0.8418
18921SOL     OW61700   2.878   0.040   8.832 -0.2465 -0.4106  0.0648
18921SOL    HW161701   2.937  -0.016   8.782  0.7016  1.0274 -0.4968
18921SOL    HW261702   2.813   0.069   8.768 -0.7293 -0.8456  0.3500
18922SOL     OW61703  10.246   4.464   7.414 -0.2853 -0.2496 -0.1907
18922SOL    HW161704  10.212   4.546   7.377 -1.8077 -0.8340 -0.1475
18922SOL    HW261705  10.248   4.479   7.508  1.5998  0.5009 -0.3064
18923SOL     OW61706   7.447   5.934   0.782  0.0129 -0.3342 -0.0451
18923SOL    HW161707   7.458   6.012   0.837 -0.4794  0.4734 -1.0702
18923SOL    HW261708   7.353   5.919   0.780  0.1505 -1.4207  0.7518
18924SOL     OW61709   5.728   9.513   9.545 -0.2259  0.3702  0.5224
18924SOL    HW161710   5.739   9.567   9.467 -0.3726  0.5612  0.6317
18924SOL    HW261711   5.813   9.517   9.590  0.6593 -1.6462 -0.8087
18925SOL     OW61712   4.325   9.195   7.595 -0.2403 -0.4665 -0.2083
18925SOL    HW161713   4.379   9.139   7.538  1.4371 -0.5675  1.3941
18925SOL    HW261714   4.289   9.135   7.660 -1.5854 -0.2495 -0.7360
18926SOL     OW61715   4.979   8.094   4.487 -0.1119 -0.3381  0.1039
18926SOL    HW161716   4.921   8.066   4.559 -0.0421 -0.5878  0.0662
18926SOL    HW261717   4.996   8.186   4.505 -1.4259  0.0494 -0.5045
18927SOL     OW61718   2.580  11.557   3.222  0.4734  0.1127 -0.1369
18927SOL    HW161719   2.486  11.571   3.225  0.3318 -0.8004 -0.0261
18927SOL    HW261720   2.616  11.612   3.292  0.1096  1.0508 -0.6714
18928SOL     OW61721   6.651   8.941   6.415 -0.3104 -0.0001  0.1183
18928SOL    HW161722   6.700   8.888   6.479  0.2668  0.5605  0.1530
18928SOL    HW261723   6.612   9.011   6.467  0.6461  0.7984 -0.2072
18929SOL     OW61724   7.396   5.336   7.830  0.0408  0.6023  0.4498
18929SOL    HW161725   7.336   5.408   7.809  0.2762  0.9734  1.0410
18929SOL    HW261726   7.437   5.314   7.746  0.0271  1.2151  0.2779
18930SOL     OW61727   2.466   8.709   0.097 -0.3023 -0.0206  0.0898
18930SOL    HW161728   2.542   8.761   0.070  0.0528 -0.6896 -0.2312
18930SOL    HW261729   2.459   8.641   0.030 -0.0999 -1.0326  1.0513
18931SOL     OW61730   7.376   7.517  11.295  0.1346 -0.0888  0.1684
18931SOL    HW161731   7.330   7.601  11.299  1.0417  0.4017  0.7769
18931SOL    HW261732   7.468   7.541  11.286  0.5714 -0.9677  1.8569
18932SOL     OW61733  11.417   1.989  10.556 -0.1928 -0.6478 -0.2990
18932SOL    HW161734  11.383   2.044  10.628 -0.9358 -0.2687 -0.9259
18932SOL    HW261735  11.494   1.946  10.594 -0.2720 -0.0649  0.5731
18933SOL     OW61736   5.404  10.275   8.613  0.3657 -0.4627 -0.0104
18933SOL    HW161737   5.370  10.363   8.598 -2.0746 -1.4171 -0.5234
18933SOL    HW261738   5.327  10.221   8.629  1.8558 -2.3346  1.4723
18934SOL     OW61739   1.771   5.994   6.666  0.1231 -0.4548 -0.2916
18934SOL    HW161740   1.714   5.957   6.599  0.9995 -2.3546 -0.0390
18934SOL    HW261741   1.714   6.054   6.714 -0.4823  1.1148 -2.7816
18935SOL     OW61742   8.942   6.473  10.245  0.3485 -0.2653 -0.9381
18935SOL    HW161743   9.027   6.516  10.253 -0.9772  2.2131  3.3663
18935SOL    HW261744   8.930   6.428  10.329 -2.4536 -0.8454 -1.5364
18936SOL     OW61745   8.623   5.281   4.491  0.1056  0.1895 -0.0088
18936SOL    HW161746   8.577   5.198   4.507  0.0962  0.3715  0.9588
18936SOL    HW261747   8.581   5.343   4.550 -0.2828  1.0391 -1.1498
18937SOL     OW61748   3.214   7.858   0.696 -0.4241  0.0235 -0.0358
18937SOL    HW161749   3.197   7.782   0.641 -1.4533 -0.6018  1.0972
18937SOL    HW261750   3.210   7.825   0.786  0.8017  1.0969  0.4566
18938SOL     OW61751   7.359   0.748   8.884 -0.1275  0.2728  0.0589
18938SOL    HW161752   7.342   0.763   8.791  1.7326  0.8912 -0.2278
18938SOL    HW261753   7.424   0.814   8.908  1.3764 -1.4685  1.1280
18939SOL     OW61754   6.246  11.380   5.537 -0.5590  0.1362 -1.0435
18939SOL    HW161755   6.170  11.329   5.508  0.1619 -1.2083 -0.6361
18939SOL    HW261756   6.316  11.354   5.477 -0.1137  0.4472 -0.6658
18940SOL     OW61757   0.185  10.385  11.042  0.3495 -0.0947  0.0609
18940SOL    HW161758   0.113  10.448  11.035  0.6643  0.3905  1.0146
18940SOL    HW261759   0.143  10.302  11.061 -0.1071 -0.2913 -1.6983
18941SOL     OW61760   8.579   4.122   4.508  0.3858  0.2191  0.3918
18941SOL    HW161761   8.529   4.046   4.536  0.2511  0.1892  0.0800
18941SOL    HW261762   8.550   4.137   4.418  0.1679  0.8363  0.5613
18942SOL     OW61763   6.523  10.359   9.555 -0.0240  0.7494 -0.3562
18942SOL    HW161764   6.556  10.439   9.514 -0.1770  1.1072  0.2077
18942SOL    HW261765   6.595  10.296   9.545  0.7936  1.4729  0.7205
18943SOL     OW61766   1.509   7.860   0.844 -0.2326 -0.1861  0.5397
18943SOL    HW161767   1.561   7.857   0.924 -0.7492  0.6252  0.9127
18943SOL    HW261768   1.481   7.951   0.836 -1.7435 -0.6387  0.4456
18944SOL     OW61769   6.222   2.799   3.319  0.1510 -0.2746 -0.0290
18944SOL    HW161770   6.306   2.830   3.284 -0.3504  0.9892 -0.1532
18944SOL    HW261771   6.168   2.877   3.324 -1.4359 -1.2404 -1.0759
18945SOL     OW61772   6.468   5.460   4.721 -0.1974 -0.3135  0.2466
18945SOL    HW161773   6.381   5.489   4.748  0.7210  0.8628  2.2418
18945SOL    HW261774   6.485   5.383   4.776  0.3154 -0.0342  0.4928
18946SOL     OW61775   1.119  10.694   7.216 -0.2271  0.2277 -0.2272
18946SOL    HW161776   1.027  10.700   7.240 -0.5186 -1.8736 -0.6102
18946SOL    HW261777   1.155  10.628   7.276  1.3041  1.7376  0.6118
18947SOL     OW61778  11.244   6.301   4.473 -0.2585  0.1790  0.1726
18947SOL    HW161779  11.227   6.349   4.392  0.4845 -0.3046 -0.2827
18947SOL    HW261780  11.170   6.241   4.482 -0.0951 -0.1087 -0.4107
18948SOL     OW61781   7.489   3.190   1.995 -0.1207 -0.2772  0.4970
18948SOL    HW161782   7.532   3.118   1.949 -0.2723 -0.0450 -0.0117
18948SOL    HW261783   7.526   3.269   1.957  0.9655 -0.0631  1.9024
18949SOL     OW61784   6.435  10.099   0.437 -0.0520  0.2909  0.7237
18949SOL    HW161785   6.377  10.023   0.435 -0.2601  0.4392 -1.8877
18949SOL    HW261786   6.399  10.155   0.505 -2.0582 -0.3479  0.2556
18950SOL     OW61787  10.417   5.730   6.564 -0.0636  0.0938 -0.1692
18950SOL    HW161788  10.334   5.772   6.587  1.1421  2.1880  0.6442
18950SOL    HW261789  10.432   5.754   6.472 -0.1712  0.0303 -0.2037
18951SOL     OW61790   6.108  10.998   0.141  0.4310  0.7622 -0.4223
18951SOL    HW161791   6.191  10.953   0.127  0.6399  0.9094  0.2966
18951SOL    HW261792   6.042  10.929   0.137  0.4726  0.7770 -1.9836
18952SOL     OW61793   8.406  11.269   2.950 -0.3738  0.2487 -0.3150
18952SOL    HW161794   8.381  11.207   3.018 -0.7092  0.2493 -0.4355
18952SOL    HW261795   8.334  11.332   2.947 -0.7206 -0.1728 -1.1763
18953SOL     OW61796   7.904   7.028   9.796 -0.9031  0.1449 -0.1907
18953SOL    HW161797   7.938   6.977   9.722  0.0388  1.8282 -0.9771
18953SOL    HW261798   7.815   6.996   9.809 -0.3294 -1.7291 -0.5828
18954SOL     OW61799   8.338   0.719   0.651 -0.2902  0.1216 -0.6523
18954SOL    HW161800   8.344   0.805   0.609  0.4545  0.3698 -0.0559
18954SOL    HW261801   8.245   0.710   0.674  0.0099  1.8668  1.5056
18955SOL     OW61802   0.052   3.823   9.352 -0.3853  0.0040 -0.1593
18955SOL    HW161803   0.026   3.833   9.444 -0.2457  1.6868 -0.2692
18955SOL    HW261804   0.053   3.912   9.318  0.4291 -0.5153 -1.5756
18956SOL     OW61805   2.015   5.384  10.461 -0.3878 -0.0649  0.3799
18956SOL    HW161806   1.927   5.413  10.483 -0.3252 -0.0655  0.6318
18956SOL    HW261807   2.038   5.322  10.530 -0.3641 -0.4096  0.0667
18957SOL     OW61808   4.490   3.088  10.595  0.3105  1.0162 -0.3992
18957SOL    HW161809   4.583   3.083  10.573  0.9320  1.6222  1.8759
18957SOL    HW261810   4.458   2.998  10.587  0.1272  1.2382 -4.6469
18958SOL     OW61811   9.059   0.152   9.270 -0.2730  0.1492 -0.3643
18958SOL    HW161812   8.985   0.135   9.211  0.8479  0.7660 -2.0366
18958SOL    HW261813   9.069   0.071   9.320 -0.6094 -0.8114 -1.7979
18959SOL     OW61814   5.843   2.704   3.619 -0.4203 -0.5871 -0.0326
18959SOL    HW161815   5.790   2.671   3.547  1.2025 -0.3802 -1.3592
18959SOL    HW261816   5.866   2.793   3.594 -2.6691  0.8310  2.3591
18960SOL     OW61817   8.902  11.189  10.823  0.2280  0.0525  0.1807
18960SOL    HW161818   8.991  11.162  10.803  1.4848  2.5742  1.9152
18960SOL    HW261819   8.898  11.281  10.800 -1.0276  0.7057  2.6186
18961SOL     OW61820   0.502   9.669   3.534  0.1641 -0.6078  0.6880
18961SOL    HW161821   0.487   9.592   3.588 -0.2096 -2.8540 -2.3748
18961SOL    HW261822   0.415   9.699   3.510  0.3240 -0.7808 -0.1375
18962SOL     OW61823   0.558   1.558  11.098  0.2642 -0.0061 -0.6091
18962SOL    HW161824   0.567   1.649  11.069 -2.0824  1.1351  1.8214
18962SOL    HW261825   0.485   1.524  11.045  0.2843 -0.0553 -0.6047
18963SOL     OW61826   4.256   6.239   1.971 -0.4702 -0.3092 -0.0229
18963SOL    HW161827   4.231   6.321   2.015 -0.2929 -0.3189  0.0968
18963SOL    HW261828   4.193   6.231   1.899  1.0746  1.2896 -1.6730
18964SOL     OW61829  10.878   8.714   4.549  0.3187  0.3812  1.0555
18964SOL    HW161830  10.910   8.637   4.501 -0.1602  1.0584 -0.4263
18964SOL    HW261831  10.946   8.731   4.614  0.4361 -1.2703  1.4075
18965SOL     OW61832   7.093   3.231  10.224  0.4545  0.2750  0.3207
18965SOL    HW161833   7.067   3.296  10.158  1.3581 -0.1511 -0.4676
18965SOL    HW261834   7.014   3.218  10.276 -0.6391 -0.1923 -1.3631
18966SOL     OW61835   0.326  11.593  11.069  0.5163  0.5744 -0.3497
18966SOL    HW161836   0.410  11.605  11.115  1.4019 -0.8483 -1.5225
18966SOL    HW261837   0.332  11.506  11.030 -2.4912 -0.6562  1.5052
18967SOL     OW61838   8.595   0.983   0.128 -0.1912 -0.2652  0.4046
18967SOL    HW161839   8.628   0.895   0.108 -0.3856 -0.3878  0.6313
18967SOL    HW261840   8.504   0.982   0.099  0.4545  0.6200 -1.8644
18968SOL     OW61841   8.974   2.982   0.974 -0.8506  0.2430 -0.4373
18968SOL    HW161842   8.991   3.071   1.004  1.0070 -0.4179  0.6703
18968SOL    HW261843   9.041   2.929   1.017 -0.5461 -1.3926 -2.7203
18969SOL     OW61844   9.791   1.616   3.046 -0.2801  0.2050  0.3428
18969SOL    HW161845   9.820   1.549   2.983 -1.3744  0.0985 -0.0741
18969SOL    HW261846   9.741   1.678   2.993  0.1978  1.0175  0.8390
18970SOL     OW61847   9.060   3.612   5.780 -0.3996 -0.2839  0.1639
18970SOL    HW161848   9.090   3.649   5.863  0.5534  0.7994 -0.6366
18970SOL    HW261849   9.123   3.643   5.715 -0.4345 -2.0847 -0.8045
18971SOL     OW61850   2.472   5.905   6.768  0.2188 -0.4311  0.1321
18971SOL    HW161851   2.448   5.852   6.844 -1.1635 -0.7855 -0.5421
18971SOL    HW261852   2.389   5.936   6.732  0.8870  0.2505 -0.8781
18972SOL     OW61853   0.420   2.455  11.180  0.4078  0.5827  0.2971
18972SOL    HW161854   0.473   2.399  11.123  1.6639  0.9125  1.1169
18972SOL    HW261855   0.428   2.542  11.141  0.6032  0.6654  0.5277
18973SOL     OW61856   9.960   4.172  10.104 -0.0498 -0.0093  0.5036
18973SOL    HW161857   9.864   4.174  10.102 -0.0278  0.9498 -1.1414
18973SOL    HW261858   9.986   4.264  10.107  0.8245 -0.2451  0.3657
18974SOL     OW61859   7.549  10.053   0.503 -0.4256 -0.2436 -0.0743
18974SOL    HW161860   7.624  10.034   0.559 -1.0478  1.0453  1.2737
18974SOL    HW261861   7.476  10.066   0.564 -1.4563 -0.1347 -1.2718
18975SOL     OW61862   5.277   6.456   0.143 -0.1355 -0.5393  0.1826
18975SOL    HW161863   5.236   6.376   0.109 -1.0687 -0.6457  1.4722
18975SOL    HW261864   5.205   6.506   0.180  0.2846  1.4092 -1.4699
18976SOL     OW61865   4.383   9.651   4.037  0.1334 -0.4133  0.2507
18976SOL    HW161866   4.379   9.743   4.009 -2.2146  0.4913  2.9419
18976SOL    HW261867   4.310   9.609   3.992  1.6237 -1.2234 -1.5158
18977SOL     OW61868   5.863   8.353   6.322 -0.4842 -0.6453  0.6429
18977SOL    HW161869   5.808   8.359   6.400  0.1218 -4.8342  1.6426
18977SOL    HW261870   5.801   8.351   6.249 -1.1065  2.3225  0.9708
18978SOL     OW61871   6.994   3.800   9.574  0.0923 -0.1369  0.3249
18978SOL    HW161872   7.074   3.748   9.572  0.0117 -0.2375 -0.2023
18978SOL    HW261873   6.965   3.795   9.665  0.9562  0.3157  0.6371
18979SOL     OW61874   7.772   8.889   5.210  0.0710 -0.2247 -0.0073
18979SOL    HW161875   7.840   8.851   5.154  0.0361 -2.1471  1.1566
18979SOL    HW261876   7.780   8.983   5.197 -0.0567 -0.5701 -3.3073
18980SOL     OW61877   1.961   7.776  10.373 -0.9113 -0.0492 -0.2975
18980SOL    HW161878   1.912   7.694  10.372 -1.5819  0.3376 -2.2457
18980SOL    HW261879   1.953   7.807  10.463  0.2346 -2.5913  0.7848
18981SOL     OW61880   4.689   4.535   3.842  0.4897  0.0274  0.0621
18981SOL    HW161881   4.661   4.590   3.770 -0.6540 -1.3313 -0.5676
18981SOL    HW261882   4.611   4.524   3.896  0.6876 -0.9752  0.1654
18982SOL     OW61883   3.340   9.568   2.755  0.2375 -0.0221  0.2108
18982SOL    HW161884   3.376   9.480   2.756 -0.0105 -0.1356 -0.4038
18982SOL    HW261885   3.380   9.610   2.679 -0.0718  0.2105  0.1737
18983SOL     OW61886   7.765   6.169   0.346 -0.1342  0.5325 -0.7869
18983SOL    HW161887   7.829   6.240   0.349 -0.7757  1.1157 -0.7493
18983SOL    HW261888   7.742   6.153   0.437  1.0225 -0.6764 -0.6713
18984SOL     OW61889   3.741   2.992   3.582 -0.0486  0.4267 -0.0735
18984SOL    HW161890   3.699   2.936   3.517  0.0921  1.3137 -0.9459
18984SOL    HW261891   3.734   3.080   3.546  1.4219  0.7568  0.3759
18985SOL     OW61892   4.193   9.915  11.208  0.6261  0.6143 -0.7324
18985SOL    HW161893   4.157   9.926  11.296  0.0168 -0.6172 -0.8157
18985SOL    HW261894   4.282   9.882  11.223 -0.0459 -1.1873 -0.5825
18986SOL     OW61895   1.909  10.235   1.533  0.4712 -0.2114  0.1860
18986SOL    HW161896   1.854  10.288   1.591  1.5157  0.9490  0.1575
18986SOL    HW261897   1.871  10.249   1.446  0.7734  0.5659  0.1681
18987SOL     OW61898   8.894  11.240   0.632  0.0047 -0.4164 -0.3004
18987SOL    HW161899   8.971  11.297   0.637 -0.1844 -0.0946 -0.9391
18987SOL    HW261900   8.930  11.152   0.619  0.3320 -0.5997  1.5525
18988SOL     OW61901   4.996   8.885   0.431 -0.2759 -0.1239  0.0255
18988SOL    HW161902   4.972   8.802   0.390 -0.7906 -0.5246  1.1001
18988SOL    HW261903   4.946   8.951   0.384  0.8063 -0.2895 -1.4303
18989SOL     OW61904   3.668   8.304   1.434 -0.2753  0.1094  0.2254
18989SOL    HW161905   3.672   8.211   1.413 -0.9597  0.0286  0.4039
18989SOL    HW261906   3.652   8.347   1.350 -1.0793 -0.0415  0.2922
18990SOL     OW61907   9.349   4.280   6.078 -0.6283  0.0939 -0.1834
18990SOL    HW161908   9.397   4.281   6.161 -1.1529  0.3453  0.1180
18990SOL    HW261909   9.409   4.321   6.016 -0.4108  0.3138  0.1662
18991SOL     OW61910  10.390   7.763   5.403  0.1209  0.0117  0.7211
18991SOL    HW161911  10.434   7.688   5.365 -0.5847  0.6481 -1.4854
18991SOL    HW261912  10.461   7.824   5.425  0.4860  0.6760 -1.9961
18992SOL     OW61913   1.927   4.575  10.220 -0.0811  0.2349 -0.2824
18992SOL    HW161914   2.021   4.564  10.201  0.0483  1.4639 -0.4195
18992SOL    HW261915   1.906   4.502  10.278  0.7216 -0.6413 -1.0594
18993SOL     OW61916   0.206   5.820   6.789 -0.2682 -0.3482  0.0265
18993SOL    HW161917   0.228   5.727   6.785  0.3218 -0.2756  1.2050
18993SOL    HW261918   0.286   5.862   6.819 -0.2961  0.6530 -1.2100
18994SOL     OW61919   1.260   7.360   4.159  0.3669  0.4222  0.2321
18994SOL    HW161920   1.344   7.403   4.172  0.5392  0.5985 -1.2933
18994SOL    HW261921   1.195   7.426   4.185  0.6653 -0.0246  2.2842
18995SOL     OW61922   9.639   5.880   5.532  0.2598 -0.4324  0.1000
18995SOL    HW161923   9.633   5.796   5.485  1.0591 -0.6868  0.4406
18995SOL    HW261924   9.626   5.946   5.464  1.7919 -0.7813 -0.5848
18996SOL     OW61925   3.397   4.996   1.486  0.3456 -0.6101  0.2802
18996SOL    HW161926   3.325   4.960   1.538  0.7374 -0.1603  1.1668
18996SOL    HW261927   3.414   5.082   1.526  1.1564 -0.5759 -0.1211
18997SOL     OW61928   2.947  11.670   5.867 -0.0927  0.0538  0.7154
18997SOL    HW161929   3.014  11.663   5.798 -1.4860 -1.1097 -0.5861
18997SOL    HW261930   2.966  11.753   5.910  2.1648 -0.2264  0.3852
18998SOL     OW61931   6.130   6.757  10.814  0.3174 -0.9579  0.5433
18998SOL    HW161932   6.046   6.788  10.847 -0.5942 -1.4737 -1.1451
18998SOL    HW261933   6.190   6.831  10.826 -1.2341  0.7343 -1.2894
18999SOL     OW61934  10.942   6.112   4.065 -0.0952  0.0045  0.3763
18999SOL    HW161935  11.004   6.165   4.115  0.4746 -0.1459 -0.1539
18999SOL    HW261936  10.934   6.030   4.115  1.7937 -0.8440 -0.6158
19000SOL     OW61937   7.451   3.078   3.012  0.2403 -0.8455 -0.1109
19000SOL    HW161938   7.455   3.172   3.025  1.4238 -1.1682  2.4384
19000SOL    HW261939   7.358   3.061   2.994 -0.0678  0.7583 -0.2003
19001SOL     OW61940   8.938   4.640  11.577  1.0473 -0.3215 -0.6191
19001SOL    HW161941   8.998   4.714  11.569  0.1750  0.6738  1.4615
19001SOL    HW261942   8.855   4.679  11.603  0.8949 -2.0740  1.8849
19002SOL     OW61943   8.622  10.572   7.728  0.2469  0.0394  0.1237
19002SOL    HW161944   8.648  10.489   7.689 -2.2729 -0.4954 -0.6653
19002SOL    HW261945   8.682  10.636   7.691  1.4235 -1.2538 -0.2725
19003SOL     OW61946   6.563  10.532   9.354  0.0086 -0.1385 -0.2865
19003SOL    HW161947   6.555  10.570   9.267  3.3995 -0.4413 -0.8787
19003SOL    HW261948   6.545  10.605   9.414  1.4760  1.1583 -1.3439
19004SOL     OW61949   4.436   1.064   9.394  0.6819 -0.3129 -0.1340
19004SOL    HW161950   4.531   1.058   9.387  0.6864 -1.9612  0.7917
19004SOL    HW261951   4.406   1.074   9.303  1.7444  0.9641 -0.3724
19005SOL     OW61952   4.097   5.638   2.726  0.0504 -0.0641 -0.7552
19005SOL    HW161953   4.074   5.716   2.776  0.4237  0.1082 -0.8413
19005SOL    HW261954   4.054   5.566   2.772 -0.6939  0.2515 -0.9576
19006SOL     OW61955   9.697   8.815   0.656 -0.6389 -0.7625  0.6868
19006SOL    HW161956   9.684   8.866   0.736  0.1058 -0.5231  0.6556
19006SOL    HW261957   9.608   8.800   0.623 -1.0581 -1.8971  2.1960
19007SOL     OW61958   8.219   1.091   0.932 -0.1782  0.2826 -0.2783
19007SOL    HW161959   8.143   1.145   0.909 -0.9000 -1.1101 -1.2930
19007SOL    HW261960   8.289   1.154   0.948 -1.2416  1.5505 -0.4808
19008SOL     OW61961   2.709  10.459  11.542  0.2729 -0.0860  0.1511
19008SOL    HW161962   2.764  10.413  11.606 -0.2397 -1.9584 -0.6824
19008SOL    HW261963   2.660  10.522  11.594  0.8467 -0.6318  1.4071
19009SOL     OW61964   0.114   4.718   9.468 -0.3027 -0.5014 -0.0927
19009SOL    HW161965   0.159   4.684   9.544 -0.1350  0.3909  0.2229
19009SOL    HW261966   0.126   4.652   9.400  0.9880 -0.5401  0.1600
19010SOL     OW61967   8.471   7.374   2.710 -0.8887 -0.3588  0.2172
19010SOL    HW161968   8.476   7.466   2.684 -1.8674  0.0903  1.5491
19010SOL    HW261969   8.520   7.328   2.641  0.8608  1.2783  0.2786
19011SOL     OW61970  10.274   3.302   2.774  0.3589 -0.1743  0.3631
19011SOL    HW161971  10.345   3.367   2.776 -0.6113  0.9835 -0.7524
19011SOL    HW261972  10.298   3.242   2.704 -0.6847  1.4289 -1.4905
19012SOL     OW61973   5.337   8.261   4.540 -0.0193 -0.5190  0.3889
19012SOL    HW161974   5.305   8.180   4.581  0.1343 -0.2691  1.0086
19012SOL    HW261975   5.284   8.269   4.460 -0.6447 -0.7755  0.7652
19013SOL     OW61976   6.509   8.073   7.969  0.1877  0.1878 -0.4922
19013SOL    HW161977   6.487   8.103   7.880 -0.7281  0.7107 -0.1037
19013SOL    HW261978   6.550   8.149   8.010  1.9692 -0.5032 -0.9163
19014SOL     OW61979   3.622   4.730   6.090  0.1361  0.2516  0.5598
19014SOL    HW161980   3.542   4.749   6.042 -0.0431  0.9110  1.0969
19014SOL    HW261981   3.593   4.716   6.180  0.4034 -1.4888  0.4116
19015SOL     OW61982   7.587   7.318   6.206  0.0623 -0.1448  0.4806
19015SOL    HW161983   7.581   7.376   6.130  0.3116  0.5908  1.0129
19015SOL    HW261984   7.540   7.364   6.275 -0.1734 -0.8168  0.7683
19016SOL     OW61985   9.536   0.248   1.004 -0.1439  0.3004  0.0052
19016SOL    HW161986   9.502   0.164   1.034  2.3285 -0.6841  0.2810
19016SOL    HW261987   9.575   0.288   1.083 -2.7516  2.5868  0.2926
19017SOL     OW61988   4.889   7.551   3.040 -0.0166 -0.2969  0.5125
19017SOL    HW161989   4.913   7.559   3.132  3.3243  0.1148 -0.2828
19017SOL    HW261990   4.795   7.532   3.042 -0.6382  2.2119  3.8770
19018SOL     OW61991   7.406   2.157   4.117 -0.3498 -0.2506  0.2548
19018SOL    HW161992   7.356   2.077   4.132  0.4266 -0.8093 -0.0604
19018SOL    HW261993   7.441   2.181   4.203 -1.0983  0.1082  0.4644
19019SOL     OW61994   6.672   4.533  10.048  0.1686  0.0185 -0.7463
19019SOL    HW161995   6.736   4.592  10.087  1.1032 -0.1823 -1.9030
19019SOL    HW261996   6.715   4.500   9.969 -0.9867 -0.9010 -1.0229
19020SOL     OW61997   3.660   8.289   8.830  0.0649  0.0771  0.1720
19020SOL    HW161998   3.658   8.327   8.743  0.1980 -1.9173 -0.7608
19020SOL    HW261999   3.708   8.206   8.819  2.5337  1.0204  2.6665
19021SOL     OW62000   7.022   6.096   2.303 -0.7657 -0.2759  0.5726
19021SOL    HW162001   7.036   6.121   2.212 -0.8918  2.5805  1.2592
19021SOL    HW262002   7.110   6.089   2.340 -0.6599 -2.4916  0.0628
19022SOL     OW62003   6.590   6.063   7.763  0.3065  0.7254 -0.3568
19022SOL    HW162004   6.614   6.016   7.683  1.0952  1.6408 -0.6666
19022SOL    HW262005   6.608   6.000   7.833 -1.5223 -0.5248 -0.9310
19023SOL     OW62006   6.752   1.514   3.927 -0.4300  0.0707 -0.0723
19023SOL    HW162007   6.766   1.419   3.931 -0.9851 -0.1016 -1.5889
19023SOL    HW262008   6.707   1.528   3.844  0.4015  1.7686 -0.2747
19024SOL     OW62009   8.334   2.251  11.423  0.3060 -0.6129 -0.1915
19024SOL    HW162010   8.274   2.185  11.387  1.0255 -1.1768 -0.3763
19024SOL    HW262011   8.418   2.206  11.430  1.2820  0.7942 -2.0385
19025SOL     OW62012   2.465   9.816   3.952  0.2263  0.3646 -0.3857
19025SOL    HW162013   2.380   9.779   3.974  1.1354 -0.2668  2.4006
19025SOL    HW262014   2.454   9.910   3.961 -0.4583  0.3752 -1.2295
19026SOL     OW62015   7.948   6.341   2.130 -0.1360  0.5205 -0.1151
19026SOL    HW162016   7.856   6.314   2.138 -0.1311  0.5479  0.0253
19026SOL    HW262017   7.945   6.420   2.076  0.0268 -0.9667 -2.4715
19027SOL     OW62018   3.867  10.213   3.288 -0.4599 -0.2166 -0.2326
19027SOL    HW162019   3.813  10.238   3.363 -0.4310 -0.2289 -0.2079
19027SOL    HW262020   3.941  10.165   3.327 -0.5709 -0.4351 -0.2854
19028SOL     OW62021   7.798   7.799   5.791 -0.1258 -0.2271  0.1445
19028SOL    HW162022   7.759   7.876   5.751  0.4022 -0.1766 -0.2846
19028SOL    HW262023   7.743   7.726   5.762 -0.0673 -0.1258 -0.2282
19029SOL     OW62024   4.293   7.879   6.148  0.8964  0.5206  0.2455
19029SOL    HW162025   4.245   7.807   6.107  1.4737 -0.5775  1.4030
19029SOL    HW262026   4.348   7.915   6.078  0.9634 -0.4980 -0.2474
19030SOL     OW62027   6.575   1.940   4.870 -0.1809 -0.4076 -0.2390
19030SOL    HW162028   6.616   1.853   4.878  2.1409  0.4800 -1.5037
19030SOL    HW262029   6.569   1.972   4.960  0.2360 -1.3197  0.1254
19031SOL     OW62030   0.890   8.478   6.709  0.5869  0.2426 -0.1006
19031SOL    HW162031   0.929   8.537   6.645 -0.6510  2.5520  1.1276
19031SOL    HW262032   0.796   8.491   6.699  0.2597 -1.6169  0.1903
19032SOL     OW62033  10.267   2.707   7.926 -0.2303 -0.4323 -0.2541
19032SOL    HW162034  10.341   2.761   7.897 -0.0808 -0.9401 -0.8380
19032SOL    HW262035  10.275   2.705   8.022  0.2676 -0.1414 -0.2845
19033SOL     OW62036   8.022   5.428   8.190 -0.1285  0.0558 -0.3062
19033SOL    HW162037   7.950   5.367   8.175  0.2201 -0.2925 -0.6050
19033SOL    HW262038   8.071   5.428   8.108 -0.1019  0.7160 -0.2966
19034SOL     OW62039   4.544   6.457   6.088  0.5993  0.4366  0.1130
19034SOL    HW162040   4.552   6.373   6.132 -0.0206 -0.0508 -0.6838
19034SOL    HW262041   4.602   6.515   6.137 -1.2552  0.3624  2.5798
19035SOL     OW62042  11.263   2.252   2.429 -0.2366 -0.1452  0.0540
19035SOL    HW162043  11.278   2.320   2.494  0.4339 -0.3603  0.1360
19035SOL    HW262044  11.339   2.257   2.372 -0.4876 -0.4144 -0.3081
19036SOL     OW62045   2.417   2.943   1.135  0.2118  0.1102  0.5278
19036SOL    HW162046   2.412   3.031   1.098 -0.6090 -0.0830  0.1685
19036SOL    HW262047   2.429   2.957   1.229  0.6997  0.6032  0.3939
19037SOL     OW62048   4.550   0.747   8.943 -0.3033  0.0904  0.5121
19037SOL    HW162049   4.475   0.803   8.965 -0.3415  0.8665 -1.3751
19037SOL    HW262050   4.619   0.808   8.918  1.5189 -0.5360  3.5034
19038SOL     OW62051   3.989  11.637  11.303 -0.3332 -0.2891 -0.0175
19038SOL    HW162052   4.017  11.612  11.391 -0.6799  0.1904  0.2384
19038SOL    HW262053   3.931  11.712  11.317 -0.0569  0.0577 -0.6895
19039SOL     OW62054  10.064   6.705   2.704 -0.2917  0.3965 -0.8749
19039SOL    HW162055  10.027   6.641   2.764 -0.0859  2.8917  2.1292
19039SOL    HW262056  10.158   6.690   2.707 -0.2763  0.5630 -0.4762
19040SOL     OW62057   5.007   9.696   2.957 -0.5928  0.4931  0.1920
19040SOL    HW162058   4.960   9.622   2.919  0.1576  0.2675 -0.3131
19040SOL    HW262059   5.024   9.669   3.048  2.6252 -1.4681 -0.8392
19041SOL     OW62060   1.753   4.307   4.685  0.5133 -0.9371  0.2045
19041SOL    HW162061   1.846   4.284   4.686  0.5102 -1.1081  2.3357
19041SOL    HW262062   1.724   4.290   4.775 -1.0820  1.1426  0.1442
19042SOL     OW62063   7.677   1.978  10.371 -0.3046 -0.1019  0.2467
19042SOL    HW162064   7.739   1.922  10.325 -0.8485 -0.9087  0.4815
19042SOL    HW262065   7.731   2.046  10.411  0.7135 -1.9593  2.2562
19043SOL     OW62066   8.863  10.325  11.289 -0.3907  0.0843  0.0663
19043SOL    HW162067   8.800  10.259  11.257  0.5238 -0.6245 -0.3361
19043SOL    HW262068   8.815  10.374  11.355 -1.0348 -1.1608  0.5595
19044SOL     OW62069   1.286   5.772   9.736  0.2802 -0.4083  0.0241
19044SOL    HW162070   1.358   5.771   9.673  1.0064 -2.1868  0.7839
19044SOL    HW262071   1.231   5.698   9.709 -0.5486  0.1283  0.2323
19045SOL     OW62072   8.812   6.284   8.373  0.1730  0.2160  0.4008
19045SOL    HW162073   8.767   6.363   8.403  2.6588  1.4275  1.2534
19045SOL    HW262074   8.784   6.273   8.282  0.1039  2.3806  0.1074
19046SOL     OW62075   3.420  10.775   1.800  0.8074  0.2420 -0.5661
19046SOL    HW162076   3.393  10.737   1.716  0.1463  1.2790 -0.8311
19046SOL    HW262077   3.385  10.864   1.799  1.2780  0.4555  0.5754
19047SOL     OW62078   9.411   4.813   8.808 -0.1753 -0.4113 -0.4934
19047SOL    HW162079   9.325   4.792   8.772 -0.1141 -1.8463  0.1173
19047SOL    HW262080   9.474   4.785   8.741 -0.1106 -1.9223  0.1515
19048SOL     OW62081   4.970   4.621   7.587  0.1341 -0.0520  0.0121
19048SOL    HW162082   4.972   4.620   7.492  1.4468 -1.6865  0.0084
19048SOL    HW262083   4.969   4.713   7.611 -3.1158  0.4614 -1.5655
19049SOL     OW62084   8.553   2.404   3.683 -0.0621  0.2180 -0.0177
19049SOL    HW162085   8.636   2.411   3.635 -1.2660  0.9451 -2.1155
19049SOL    HW262086   8.501   2.477   3.652 -0.5164  1.5757  3.4705
19050SOL     OW62087   4.449   1.147  11.510  0.0876  0.2484  0.1499
19050SOL    HW162088   4.490   1.191  11.435  0.2069 -1.7102 -0.9822
19050SOL    HW262089   4.489   1.060  11.513 -1.7099 -0.6143  0.9578
19051SOL     OW62090   1.842   8.882   9.815  0.3234  0.1825 -0.5065
19051SOL    HW162091   1.794   8.817   9.866  2.5082  0.8801  2.7491
19051SOL    HW262092   1.774   8.940   9.780 -1.3917 -1.0996  0.5749
19052SOL     OW62093   1.495   3.252   3.840 -0.3592 -0.0385 -0.2002
19052SOL    HW162094   1.562   3.314   3.869 -1.1996  1.0302 -0.4836
19052SOL    HW262095   1.543   3.172   3.820  0.5711  0.0304  1.6005
19053SOL     OW62096  11.681   0.008   6.944 -0.5915 -0.0483  0.1141
19053SOL    HW162097  11.701   0.048   6.860 -2.0240  0.8053  0.1529
19053SOL    HW262098  11.761  -0.039   6.968  0.9298  2.1504 -0.3129
19054SOL     OW62099  11.218   3.981   3.953 -0.0112 -0.0624 -0.2740
19054SOL    HW162100  11.133   3.970   3.911 -0.0608 -0.2592 -0.1234
19054SOL    HW262101  11.239   3.894   3.987 -0.8910  0.5234  1.9095
19055SOL     OW62102   7.991   4.118   3.677  0.1183  0.2002 -0.3440
19055SOL    HW162103   8.040   4.102   3.596  0.7054 -1.7171  0.3444
19055SOL    HW262104   7.925   4.049   3.680  0.2465  0.1049  0.8928
19056SOL     OW62105   9.443   0.434   0.143 -0.1580 -0.1160  0.1691
19056SOL    HW162106   9.489   0.503   0.095 -1.4253 -0.8503 -2.2282
19056SOL    HW262107   9.477   0.352   0.107 -0.3840 -0.7233  1.2911
19057SOL     OW62108  10.410   3.523   9.964 -0.4090  0.0778  0.3247
19057SOL    HW162109  10.422   3.586  10.035  0.3261 -1.8694  2.0357
19057SOL    HW262110  10.499   3.502   9.935 -0.6076 -0.4819  0.0950
19058SOL     OW62111   7.226   7.481   9.125  0.6504  0.0369  0.2581
19058SOL    HW162112   7.188   7.406   9.170 -1.3162  0.4415 -0.6375
19058SOL    HW262113   7.226   7.550   9.191  0.0889 -0.0591  0.3668
19059SOL     OW62114   4.074   6.588   2.303 -0.2353 -0.2491 -0.5152
19059SOL    HW162115   4.002   6.528   2.322 -0.8713  0.7237  0.2756
19059SOL    HW262116   4.037   6.651   2.240  0.0569  0.0004 -0.4395
19060SOL     OW62117   2.935   2.604  10.962  0.0474 -0.5281 -0.0542
19060SOL    HW162118   2.894   2.615  10.876  1.0065  0.2691 -0.4375
19060SOL    HW262119   2.867   2.628  11.025 -0.5535 -0.7716 -0.5935
19061SOL     OW62120   5.860   9.802   8.996  0.1729  0.1639 -0.1460
19061SOL    HW162121   5.828   9.875   8.942 -1.2636 -0.2215  0.1399
19061SOL    HW262122   5.909   9.844   9.067  0.6488  0.7554 -0.8048
19062SOL     OW62123   2.247  10.533   2.657 -0.4464 -0.2328  0.3154
19062SOL    HW162124   2.291  10.473   2.597  1.1309  0.0244  1.1620
19062SOL    HW262125   2.163  10.490   2.677 -0.0544 -1.3548 -0.3551
19063SOL     OW62126   5.828   2.587  10.795 -0.2923 -0.1508  0.1437
19063SOL    HW162127   5.789   2.500  10.785 -0.5968  0.0148 -0.1359
19063SOL    HW262128   5.916   2.578  10.757 -0.9428  0.1056 -1.5053
19064SOL     OW62129   3.797   5.819   1.758  0.1230 -0.4332  0.2803
19064SOL    HW162130   3.732   5.750   1.747 -1.3420  0.7013  1.3243
19064SOL    HW262131   3.881   5.774   1.760 -0.6480 -1.9937 -0.7185
19065SOL     OW62132   4.019   8.496   8.536  0.0857 -0.4096 -0.1977
19065SOL    HW162133   4.060   8.425   8.585  0.8911  0.7654  0.9144
19065SOL    HW262134   4.061   8.494   8.450 -2.0817 -3.1587 -1.3517
19066SOL     OW62135   9.638   6.324   9.783  0.1167  0.3389 -0.0675
19066SOL    HW162136   9.643   6.247   9.840  0.7293  0.7833  0.5107
19066SOL    HW262137   9.614   6.290   9.697 -0.7321 -0.3612  0.4378
19067SOL     OW62138   6.757   3.369   6.205  0.3509 -0.3167  0.0888
19067SOL    HW162139   6.780   3.456   6.238 -2.4147  0.1222  1.1258
19067SOL    HW262140   6.701   3.387   6.130 -0.8794 -1.1606  0.7820
19068SOL     OW62141   2.741   7.896   5.454  0.3363  0.2875 -0.0259
19068SOL    HW162142   2.809   7.938   5.402 -0.2685  0.4299 -0.7165
19068SOL    HW262143   2.725   7.812   5.410 -0.3471  0.5124 -0.2207
19069SOL     OW62144   5.544   1.064   6.403  0.1949  0.1275  0.3956
19069SOL    HW162145   5.548   1.099   6.493 -1.0564  0.2664  0.4224
19069SOL    HW262146   5.628   1.088   6.364 -0.0163  1.8472  0.9106
19070SOL     OW62147  11.227   1.138  10.588 -0.3420  0.6309  0.1088
19070SOL    HW162148  11.216   1.174  10.676 -0.0877  0.8814  0.0401
19070SOL    HW262149  11.138   1.129  10.554 -0.5194 -0.6403  0.8547
19071SOL     OW62150   1.963  10.922  10.182 -0.1936  0.0462 -0.3293
19071SOL    HW162151   1.970  10.955  10.272 -0.0175 -0.2594 -0.2299
19071SOL    HW262152   1.893  10.857  10.186 -0.7423  0.6014 -0.5875
19072SOL     OW62153   6.061   4.449  10.440 -0.0899 -0.0818  0.3459
19072SOL    HW162154   6.149   4.479  10.466  0.0937 -0.4998  0.2230
19072SOL    HW262155   6.074   4.413  10.353 -0.6829  1.2060 -0.2988
19073SOL     OW62156   6.288  10.160   3.880  0.4690 -0.5255  0.1147
19073SOL    HW162157   6.371  10.113   3.879  1.2780  0.8670 -0.0365
19073SOL    HW262158   6.258  10.154   3.971  0.5489 -1.3153  0.0965
19074SOL     OW62159   5.873   4.269   2.619  0.0972  0.2751 -0.8674
19074SOL    HW162160   5.917   4.246   2.701 -0.0586 -0.9693 -1.1083
19074SOL    HW262161   5.909   4.208   2.555 -0.4477  0.6389 -1.5352
19075SOL     OW62162   4.337   8.391  10.502  0.1135 -0.2383 -0.8547
19075SOL    HW162163   4.251   8.429  10.486 -0.3806 -0.1851  1.6044
19075SOL    HW262164   4.328   8.300  10.474 -2.0249 -1.3183  2.6895
19076SOL     OW62165  11.595   9.316   8.686 -0.4438 -0.6001  0.6989
19076SOL    HW162166  11.651   9.379   8.732 -0.9602 -0.9172  1.7849
19076SOL    HW262167  11.507   9.350   8.698 -0.5924 -0.7172 -0.0287
19077SOL     OW62168   3.417   2.618   0.681 -0.7071  0.5591 -0.3547
19077SOL    HW162169   3.495   2.565   0.696 -0.9612  0.4186  0.5668
19077SOL    HW262170   3.347   2.554   0.667 -0.7409  0.6798 -0.7527
19078SOL     OW62171   0.356   6.059   3.612  0.2191 -0.2801  0.1757
19078SOL    HW162172   0.275   6.062   3.663 -0.3739  0.6534 -0.7776
19078SOL    HW262173   0.421   6.101   3.667  0.0450 -0.9485  0.9108
19079SOL     OW62174   1.403   3.748   0.432 -0.2421 -0.6843 -0.3573
19079SOL    HW162175   1.385   3.685   0.362  0.0207 -1.8948  0.6176
19079SOL    HW262176   1.318   3.788   0.451 -0.4952 -1.0298 -0.7405
19080SOL     OW62177  11.287   7.062   3.563  0.4141  0.2791  0.0542
19080SOL    HW162178  11.271   7.004   3.638 -1.5347  0.0920 -0.4532
19080SOL    HW262179  11.372   7.102   3.582 -0.5545  1.2605  3.0851
19081SOL     OW62180   2.818   4.174   3.486  0.5061  0.3248  0.0223
19081SOL    HW162181   2.901   4.148   3.446  0.4704  0.4419 -0.1311
19081SOL    HW262182   2.831   4.266   3.511 -0.1751  0.9121 -1.6469
19082SOL     OW62183  11.617  10.410   3.378  0.4775  0.2303 -0.0835
19082SOL    HW162184  11.602  10.429   3.470 -1.3556 -0.7304 -0.1446
19082SOL    HW262185  11.688  10.345   3.378  2.1064  1.9216  0.4711
19083SOL     OW62186  10.723   9.778  11.015 -0.4960  0.0622  0.2513
19083SOL    HW162187  10.698   9.854  10.963 -0.1211 -0.0637 -0.1158
19083SOL    HW262188  10.810   9.799  11.048 -0.0203 -0.5691 -0.5708
19084SOL     OW62189   4.771   6.657   6.664  0.1973  0.3059 -0.5158
19084SOL    HW162190   4.779   6.576   6.615  1.0671 -1.6469  2.5503
19084SOL    HW262191   4.678   6.666   6.681 -0.0120  0.5278 -1.7048
19085SOL     OW62192   1.671  10.031   4.937 -0.2625  0.5687 -0.0624
19085SOL    HW162193   1.585  10.055   4.904  0.0628  1.6589 -0.1444
19085SOL    HW262194   1.683  10.085   5.015  0.4013  0.5313 -0.1318
19086SOL     OW62195   7.439   1.666   4.989  0.2748 -0.5496 -0.0942
19086SOL    HW162196   7.407   1.694   4.903  3.5108  1.2244 -0.9179
19086SOL    HW262197   7.474   1.579   4.974  0.0784 -0.5839 -0.3666
19087SOL     OW62198   2.436  10.731   6.534  0.2719  0.3255  0.2251
19087SOL    HW162199   2.345  10.731   6.506  0.1048 -0.2829  0.7462
19087SOL    HW262200   2.442  10.801   6.598  0.0517  0.0436  0.5551
19088SOL     OW62201   5.846   5.331   6.431  0.2641 -0.1669  0.4198
19088SOL    HW162202   5.884   5.251   6.394 -0.3912 -1.4537  2.3713
19088SOL    HW262203   5.762   5.341   6.387  0.6656 -0.1313 -0.3480
19089SOL     OW62204  11.279   3.354   3.036  0.5421 -0.2869  0.1685
19089SOL    HW162205  11.267   3.352   3.131  1.3939 -0.7937  0.2727
19089SOL    HW262206  11.364   3.313   3.021  0.8784  0.6856 -0.7385
19090SOL     OW62207  11.623   9.341   9.378 -0.0642 -0.8368  0.3982
19090SOL    HW162208  11.693   9.382   9.328  1.7867 -1.2815  2.4773
19090SOL    HW262209  11.662   9.262   9.414 -1.9254 -1.5754  0.8920
19091SOL     OW62210   3.763   3.213  10.685  0.1079 -0.3357  0.5623
19091SOL    HW162211   3.833   3.154  10.659 -1.1869 -1.8497  0.4060
19091SOL    HW262212   3.686   3.182  10.638 -0.6761  1.3715  0.6164
19092SOL     OW62213  10.534   2.708   3.775  0.4196 -0.0789  0.7460
19092SOL    HW162214  10.540   2.624   3.821  2.2274 -0.6733 -0.4636
19092SOL    HW262215  10.571   2.691   3.688  0.2331  1.8238  0.2384
19093SOL     OW62216   1.987   6.971   4.061  0.2158  0.0481  0.4592
19093SOL    HW162217   2.043   6.964   3.984 -0.9658  0.9608 -0.5343
19093SOL    HW262218   1.986   6.883   4.099 -1.0646 -1.0575 -1.9370
19094SOL     OW62219   1.044   1.311   4.064 -0.3077  0.6597 -0.1883
19094SOL    HW162220   1.079   1.395   4.034  1.8414  0.1660  0.7096
19094SOL    HW262221   0.958   1.331   4.101  0.3947  2.5580  0.4974
19095SOL     OW62222   3.382   9.538   9.979  0.4271 -0.7089  0.3515
19095SOL    HW162223   3.356   9.543  10.072 -0.5869 -0.0004  0.0482
19095SOL    HW262224   3.347   9.618   9.941  2.6161  0.0240 -0.2332
19096SOL     OW62225   4.441   4.121   8.493 -0.4268 -0.0018 -0.3607
19096SOL    HW162226   4.531   4.137   8.521 -0.6109  0.8123 -0.2293
19096SOL    HW262227   4.413   4.202   8.450 -2.2532  1.0835  2.6146
19097SOL     OW62228   0.473   6.640  10.413 -0.7743 -0.9429  0.4451
19097SOL    HW162229   0.393   6.626  10.362 -0.0639  0.5295 -1.1996
19097SOL    HW262230   0.497   6.731  10.394  0.2088 -0.7259  2.5061
19098SOL     OW62231  10.209   7.770   1.717 -0.1977 -0.1329 -0.2060
19098SOL    HW162232  10.293   7.758   1.759  0.0273 -0.8872 -0.8483
19098SOL    HW262233  10.146   7.729   1.776 -0.0415 -0.1203 -0.0308
19099SOL     OW62234   2.080   4.822  10.429 -0.3826 -0.3793 -0.3271
19099SOL    HW162235   1.984   4.815  10.432 -0.4477  0.6648  0.7010
19099SOL    HW262236   2.100   4.894  10.488  1.0379 -0.4628 -0.6872
19100SOL     OW62237   2.615   4.853   4.358  0.2194 -0.6232 -0.5198
19100SOL    HW162238   2.519   4.863   4.355  0.3195  0.1134 -1.7426
19100SOL    HW262239   2.631   4.766   4.321 -0.0630 -1.5458  1.3955
19101SOL     OW62240   6.081   5.808   9.650  0.2890 -0.3955 -0.3263
19101SOL    HW162241   6.015   5.764   9.596  1.1337 -1.5916 -0.4067
19101SOL    HW262242   6.154   5.824   9.591 -0.1879  1.6448 -0.4340
19102SOL     OW62243   4.174   6.396   7.107  0.6262 -0.0823 -0.1922
19102SOL    HW162244   4.142   6.460   7.171 -1.1000 -0.0169 -1.0512
19102SOL    HW262245   4.269   6.395   7.119  0.4659  0.8742  1.4666
19103SOL     OW62246   3.262  11.341   7.845  0.1498 -0.8152  0.1217
19103SOL    HW162247   3.293  11.350   7.935  2.1012 -0.5758 -0.5332
19103SOL    HW262248   3.326  11.284   7.803 -0.2836 -0.2713 -1.3280
19104SOL     OW62249   3.030   3.686   6.035 -0.1950  0.1917 -0.0272
19104SOL    HW162250   3.065   3.599   6.053  0.3103  0.2952 -0.5132
19104SOL    HW262251   2.965   3.673   5.966 -0.7643  0.0762  0.5178
19105SOL     OW62252   9.766   5.829   7.385  0.1306  0.1727  0.2946
19105SOL    HW162253   9.695   5.778   7.424  0.0325 -1.1907 -1.5281
19105SOL    HW262254   9.728   5.865   7.305  0.8528  1.3454  0.4502
19106SOL     OW62255   6.412   0.458   9.374 -0.7354 -0.4339 -0.2257
19106SOL    HW162256   6.330   0.507   9.377 -0.3319  0.2379  1.7530
19106SOL    HW262257   6.471   0.513   9.323 -0.8202  0.2965  0.4385
19107SOL     OW62258   0.904   6.922   7.345  0.2822  0.4096 -0.6988
19107SOL    HW162259   0.908   6.849   7.406 -4.5372 -0.3616 -0.9197
19107SOL    HW262260   0.931   6.885   7.261 -1.3697 -0.9997 -0.6518
19108SOL     OW62261   2.306   6.311   5.808  0.4306 -0.3762  0.4024
19108SOL    HW162262   2.231   6.307   5.867  0.7076  1.4536  0.9470
19108SOL    HW262263   2.377   6.347   5.862  0.9410  0.4990 -0.7997
19109SOL     OW62264   2.738   0.096   4.628 -0.8923  0.2203 -0.0040
19109SOL    HW162265   2.710   0.133   4.544 -2.3626 -0.2739  0.2382
19109SOL    HW262266   2.799   0.026   4.603 -2.1210 -0.6398 -0.7624
19110SOL     OW62267   2.320   7.144  10.770 -0.4087 -0.3905  0.1417
19110SOL    HW162268   2.342   7.191  10.690 -0.8542  0.0614  0.2804
19110SOL    HW262269   2.275   7.209  10.825  1.9785  0.0324  1.7597
19111SOL     OW62270   1.624   4.425   6.570  0.1910 -0.8279 -0.4390
19111SOL    HW162271   1.696   4.468   6.523 -0.2534 -0.6910 -1.0087
19111SOL    HW262272   1.664   4.395   6.652  0.2267  1.8166  0.6193
19112SOL     OW62273   7.460   1.635   7.394  0.0823 -0.2462 -0.1210
19112SOL    HW162274   7.467   1.540   7.391 -0.3598 -0.4037  2.3365
19112SOL    HW262275   7.478   1.663   7.304 -0.2388 -2.6562 -0.9965
19113SOL     OW62276   1.525   9.887  10.162 -0.0577  0.2451 -0.0914
19113SOL    HW162277   1.490   9.825  10.226 -0.5841  2.1441  1.5361
19113SOL    HW262278   1.503   9.848  10.077  1.2535 -2.6959  0.7802
19114SOL     OW62279   8.483   4.352   6.886  0.5787 -0.3392 -0.0710
19114SOL    HW162280   8.409   4.329   6.942  1.0679 -0.6069  0.4799
19114SOL    HW262281   8.543   4.278   6.893  0.2359 -0.8244 -1.7265
19115SOL     OW62282   2.365   1.109   1.374 -0.1871 -0.1807 -0.0579
19115SOL    HW162283   2.403   1.024   1.395 -0.3153 -0.8387 -2.1677
19115SOL    HW262284   2.274   1.090   1.353 -0.2830  0.5052 -0.2944
19116SOL     OW62285   5.550   1.698   1.338  0.1151 -0.8676  0.4646
19116SOL    HW162286   5.624   1.641   1.319  2.0294  1.6255 -0.1626
19116SOL    HW262287   5.490   1.686   1.264  1.2547 -0.8726 -0.4831
19117SOL     OW62288  10.339   7.813   4.072  0.1463  0.0602 -0.0572
19117SOL    HW162289  10.288   7.741   4.109  0.0518  0.4179  0.5249
19117SOL    HW262290  10.399   7.771   4.010  0.0648 -0.5121  0.2477
19118SOL     OW62291   9.852  10.160   6.994 -0.6212 -0.5299  0.5632
19118SOL    HW162292   9.946  10.168   7.011 -1.1355 -0.1922  3.9647
19118SOL    HW262293   9.825  10.247   6.964 -0.2483  0.2272  2.2967
19119SOL     OW62294   1.575   6.594   6.595 -0.4431  0.1173  0.0938
19119SOL    HW162295   1.583   6.606   6.689 -0.3424  0.1418  0.0816
19119SOL    HW262296   1.485   6.621   6.575 -0.5409 -0.1189  0.2187
19120SOL     OW62297   3.055  10.643   7.160  0.3714  0.0297 -0.0174
19120SOL    HW162298   3.072  10.651   7.253 -1.1914 -1.5738  0.4617
19120SOL    HW262299   3.023  10.729   7.134  0.5271  0.4026  0.9866
19121SOL     OW62300   5.492   8.381   7.477  0.4698 -0.2389  0.3451
19121SOL    HW162301   5.401   8.381   7.507  0.7437  1.9772  1.4025
19121SOL    HW262302   5.543   8.349   7.552  0.6946  0.2578  0.4125
19122SOL     OW62303   1.400   9.589   3.977  0.3070 -0.1147  0.2342
19122SOL    HW162304   1.434   9.519   3.921  0.9772  0.2236  0.2106
19122SOL    HW262305   1.444   9.576   4.061 -0.0183 -0.0779  0.4126
19123SOL     OW62306  10.612   5.102   6.167  0.2407 -0.3610 -0.0334
19123SOL    HW162307  10.616   5.013   6.132 -1.3521 -0.2862 -0.4924
19123SOL    HW262308  10.522   5.111   6.200  0.2900  1.1549 -0.2301
19124SOL     OW62309   4.497   3.349   7.626  1.1053  0.1402  0.0459
19124SOL    HW162310   4.558   3.276   7.630  0.2544 -0.6395 -0.5240
19124SOL    HW262311   4.482   3.362   7.532  1.1000  0.9143  0.1526
19125SOL     OW62312   4.350   4.111   3.548 -0.5751 -0.2386 -0.6609
19125SOL    HW162313   4.298   4.078   3.475 -0.2873 -2.0308 -0.1152
19125SOL    HW262314   4.310   4.072   3.626 -1.1978  2.0463  0.2428
19126SOL     OW62315   9.612   8.677   2.257  0.0892 -0.1991 -0.8725
19126SOL    HW162316   9.579   8.603   2.308 -0.5682  0.9239  0.4059
19126SOL    HW262317   9.696   8.699   2.300  0.1158 -0.0008 -1.0264
19127SOL     OW62318   9.492   3.243  10.738 -0.0728  0.1538 -0.7598
19127SOL    HW162319   9.426   3.191  10.784 -1.3985  1.2640 -1.3484
19127SOL    HW262320   9.442   3.305  10.686  1.3924 -0.1529 -2.6738
19128SOL     OW62321   9.683   5.962  10.110  0.3076 -0.4908 -0.2612
19128SOL    HW162322   9.630   5.907  10.168 -0.1860 -1.0184 -1.2021
19128SOL    HW262323   9.764   5.913  10.098  1.2898  0.5426  1.5858
19129SOL     OW62324   5.147   3.048   0.997 -0.0820  0.2531  0.0287
19129SOL    HW162325   5.150   2.996   0.917  1.4830  1.2891 -0.6107
19129SOL    HW262326   5.151   2.983   1.068 -0.8179 -0.6227 -0.7059
19130SOL     OW62327   3.404  10.204   3.188 -0.0174  0.2250  0.1864
19130SOL    HW162328   3.330  10.162   3.232  0.2398 -1.1609 -0.6312
19130SOL    HW262329   3.364  10.275   3.137 -0.9113 -0.9548 -0.8197
19131SOL     OW62330   4.636   6.335   8.707  0.1446  0.2189 -0.3212
19131SOL    HW162331   4.557   6.378   8.740  0.6679  0.1148  1.1744
19131SOL    HW262332   4.628   6.338   8.612 -1.6647  0.1913 -0.2030
19132SOL     OW62333   6.978   3.003   1.064  0.5646  0.1661 -0.0034
19132SOL    HW162334   6.940   3.072   1.010 -2.3615  1.3633  3.2512
19132SOL    HW262335   6.929   3.006   1.146  3.6757 -2.4991  2.2346
19133SOL     OW62336   4.691   5.853   0.525  0.5576  0.8552  0.0116
19133SOL    HW162337   4.669   5.799   0.450 -0.3116 -0.4502  1.1566
19133SOL    HW262338   4.642   5.934   0.512 -1.9808 -0.4795  0.5624
19134SOL     OW62339   1.012   5.242   7.553 -0.2611 -0.1681  0.0987
19134SOL    HW162340   0.987   5.240   7.460 -0.0597  0.6638  0.0169
19134SOL    HW262341   1.107   5.231   7.552 -0.4176 -1.7245  0.3124
19135SOL     OW62342   4.742   9.895   3.059  0.0934  0.0557  0.0408
19135SOL    HW162343   4.805   9.957   3.022  0.7152 -0.2891  0.4831
19135SOL    HW262344   4.750   9.817   3.004 -0.5831  0.3124 -0.4279
19136SOL     OW62345   4.604   4.647   7.017 -0.1419 -0.0027 -0.2558
19136SOL    HW162346   4.535   4.665   6.954 -0.8203  0.1917  0.5206
19136SOL    HW262347   4.583   4.561   7.052 -0.3847  0.3436  0.4695
19137SOL     OW62348   7.853   1.061   5.931 -0.0212  0.6755 -0.5949
19137SOL    HW162349   7.776   1.100   5.971  1.1083  1.5479  0.8246
19137SOL    HW262350   7.865   0.978   5.977  0.4722  1.0329 -0.0594
19138SOL     OW62351   0.071   9.752  11.098  0.0203 -0.1394  0.8573
19138SOL    HW162352  -0.006   9.717  11.142  0.9158 -1.8911  1.1240
19138SOL    HW262353   0.145   9.726  11.153  0.8247  1.5244  0.6248
19139SOL     OW62354   1.294   7.547   9.909  0.3781  0.3147  0.2008
19139SOL    HW162355   1.252   7.495   9.840  0.0895  0.9896 -0.1466
19139SOL    HW262356   1.382   7.512   9.916  0.4160  0.2560 -0.5343
19140SOL     OW62357   6.292   8.557   1.900  0.5291  0.0961  0.2390
19140SOL    HW162358   6.202   8.567   1.930  0.7178  0.4635  0.6921
19140SOL    HW262359   6.288   8.485   1.837 -0.2137  0.6216 -0.3351
19141SOL     OW62360   9.193  11.524   6.723  0.5668  0.1274 -0.0277
19141SOL    HW162361   9.109  11.504   6.766  0.9416  0.7459  1.0369
19141SOL    HW262362   9.189  11.477   6.639 -0.6067 -0.3090  0.2505
19142SOL     OW62363  10.383   4.488   2.743  0.7417 -0.3195  0.1170
19142SOL    HW162364  10.415   4.482   2.652  0.5613  0.3331  0.0046
19142SOL    HW262365  10.289   4.472   2.736  0.1973  2.5447 -0.2285
19143SOL     OW62366  10.390   8.596   6.624 -0.0819  0.0874  0.1625
19143SOL    HW162367  10.343   8.668   6.581 -1.4390  0.2254  1.7813
19143SOL    HW262368  10.322   8.533   6.647  1.1101 -1.9206 -1.4699
19144SOL     OW62369   1.951   0.022  11.096  0.5536 -0.4222  0.3863
19144SOL    HW162370   1.983   0.012  11.007 -1.2072 -0.0650 -0.3221
19144SOL    HW262371   2.029   0.010  11.151  1.6558 -0.6997 -1.1744
19145SOL     OW62372   2.313   0.559   9.988 -0.5593 -0.4017  0.3058
19145SOL    HW162373   2.225   0.578   9.954  0.3811  0.9965 -1.5164
19145SOL    HW262374   2.360   0.524   9.913  0.9920  0.7196  0.7073
19146SOL     OW62375  11.320   9.094   4.405 -0.0489  0.2295 -0.1358
19146SOL    HW162376  11.296   9.120   4.493  0.2456 -2.5848  0.8843
19146SOL    HW262377  11.263   9.145   4.348 -1.4635  0.8738  1.7573
19147SOL     OW62378   0.328   7.198   2.130  0.1544  0.2986  0.1050
19147SOL    HW162379   0.305   7.108   2.107 -1.3989  0.6438  0.1938
19147SOL    HW262380   0.318   7.201   2.225  2.0737  0.0879  0.3509
19148SOL     OW62381   3.409   7.019   0.082 -0.3422  0.1308  0.1998
19148SOL    HW162382   3.440   7.023   0.172  0.3836  0.9314 -0.0732
19148SOL    HW262383   3.313   7.021   0.090 -0.2798  0.9205  0.9288
19149SOL     OW62384   3.266   9.130  11.340 -0.5385  0.7018 -0.5905
19149SOL    HW162385   3.347   9.180  11.325 -0.6197  0.9192 -0.3090
19149SOL    HW262386   3.199   9.196  11.356 -0.4767  0.4943  0.6224
19150SOL     OW62387   4.788   6.667   0.123  0.3138  0.1266 -0.0882
19150SOL    HW162388   4.736   6.747   0.116  0.3231  0.2782  1.3425
19150SOL    HW262389   4.854   6.675   0.054 -1.9387 -0.4095 -2.4355
19151SOL     OW62390   6.385   6.113  10.415  0.3982 -0.0600 -0.0334
19151SOL    HW162391   6.379   6.142  10.506 -1.9254 -0.3493 -0.0255
19151SOL    HW262392   6.341   6.181  10.365 -0.9000 -1.2309 -0.5636
19152SOL     OW62393  11.171   3.815   0.328  0.3130  0.4928  0.4113
19152SOL    HW162394  11.178   3.887   0.391 -0.7458  0.7262  0.2777
19152SOL    HW262395  11.117   3.849   0.257 -0.2597 -0.4391  0.3698
19153SOL     OW62396   6.487   9.442   6.105 -0.1722  0.1642  0.2491
19153SOL    HW162397   6.469   9.360   6.060  2.5793 -0.6442  0.4175
19153SOL    HW262398   6.416   9.452   6.169 -0.8584 -1.7632 -0.1692
19154SOL     OW62399  11.341   0.054   0.147 -0.4388  0.1954  0.1118
19154SOL    HW162400  11.282   0.071   0.073  0.1520 -0.6032 -0.5521
19154SOL    HW262401  11.384  -0.028   0.125 -0.4561 -0.2055  1.4839
19155SOL     OW62402   0.578   7.771   9.317 -0.4446  0.0836  0.0666
19155SOL    HW162403   0.504   7.830   9.332 -1.0437 -0.5280 -0.4317
19155SOL    HW262404   0.647   7.804   9.375 -0.3460  2.0103 -1.0958
19156SOL     OW62405   5.483   6.165   3.302 -0.1653 -0.0079  0.3087
19156SOL    HW162406   5.430   6.238   3.269 -0.7892 -0.1533  0.9743
19156SOL    HW262407   5.571   6.202   3.312 -0.0545  0.1563 -1.0788
19157SOL     OW62408   4.080   6.875   5.015  0.2702  0.0766 -0.2037
19157SOL    HW162409   4.034   6.817   4.954 -0.7152 -0.1766  0.7371
19157SOL    HW262410   4.094   6.956   4.966  0.4743 -0.4954 -1.1117
19158SOL     OW62411  11.100   3.398   9.516 -0.3381  0.2934 -0.2181
19158SOL    HW162412  11.134   3.475   9.470 -1.2727  1.9687  1.7042
19158SOL    HW262413  11.006   3.399   9.497 -0.5796  0.4627  0.8923
19159SOL     OW62414   6.188   6.459   1.528 -0.4731 -0.3387 -0.1650
19159SOL    HW162415   6.263   6.399   1.532  0.9302  1.2987 -0.3952
19159SOL    HW262416   6.141   6.434   1.449 -0.1592 -1.3892 -0.0328
19160SOL     OW62417   3.651   9.411   5.922 -0.2420  0.3472  0.4445
19160SOL    HW162418   3.665   9.321   5.952 -0.2862 -0.0417 -0.6555
19160SOL    HW262419   3.591   9.403   5.848 -0.7169  1.3467  0.7042
19161SOL     OW62420   1.872   4.889  11.161  0.2556  0.6186 -0.2664
19161SOL    HW162421   1.865   4.962  11.100 -0.5353  1.8954  1.2616
19161SOL    HW262422   1.966   4.878  11.174  0.3883  1.3334 -0.5692
19162SOL     OW62423   6.089   6.169   2.689  0.0352  0.1646 -0.1549
19162SOL    HW162424   6.015   6.176   2.749 -1.3496 -2.0649 -1.4429
19162SOL    HW262425   6.089   6.251   2.640 -2.0805 -0.0303 -0.5780
19163SOL     OW62426   9.837   4.541   7.186 -0.0843 -0.1066 -0.3031
19163SOL    HW162427   9.914   4.484   7.197 -1.0873 -1.3328  0.6382
19163SOL    HW262428   9.873   4.630   7.185  1.5839 -0.7253 -2.3410
19164SOL     OW62429   8.332   1.337   4.868 -0.2225 -0.2577  0.1480
19164SOL    HW162430   8.285   1.255   4.854  0.7915 -0.8052 -0.1244
19164SOL    HW262431   8.399   1.316   4.934  0.2957  0.2453 -0.2064
19165SOL     OW62432   3.465   8.850   5.067 -0.1561 -0.1558  0.2236
19165SOL    HW162433   3.419   8.925   5.030  0.8568  0.9651  1.1803
19165SOL    HW262434   3.502   8.805   4.991 -1.1139  0.0591 -0.3887
19166SOL     OW62435   4.607  10.640   4.946  0.0900  0.5036 -0.4232
19166SOL    HW162436   4.647  10.693   5.014  0.6006 -1.2162  0.6984
19166SOL    HW262437   4.629  10.550   4.970 -3.5612 -0.5243 -0.3258
19167SOL     OW62438   6.810   2.174   4.260 -0.3707  0.5609 -0.3678
19167SOL    HW162439   6.755   2.134   4.328 -0.9225  1.2661 -0.3913
19167SOL    HW262440   6.771   2.145   4.178  1.9908 -2.7366 -0.5365
19168SOL     OW62441   9.401   7.877   1.802  1.2757  0.3756 -0.2739
19168SOL    HW162442   9.412   7.784   1.821 -0.6968  0.5515  2.2662
19168SOL    HW262443   9.444   7.922   1.875  1.1421  1.3959 -0.8062
19169SOL     OW62444   4.619   6.863   4.733 -0.0439 -0.2973  0.0639
19169SOL    HW162445   4.672   6.861   4.813 -1.8155  0.3092  1.3248
19169SOL    HW262446   4.548   6.802   4.750 -0.5939  0.0429 -0.9491
19170SOL     OW62447   3.555   1.512   4.494  0.4709  0.4316 -0.6246
19170SOL    HW162448   3.496   1.574   4.537 -2.9758 -1.2572 -2.4705
19170SOL    HW262449   3.559   1.437   4.554  0.2951  0.3513 -0.7107
19171SOL     OW62450   1.709  10.473   9.676  0.2791  0.2059  0.0302
19171SOL    HW162451   1.740  10.387   9.703  0.8748  0.1807 -0.7036
19171SOL    HW262452   1.619  10.477   9.708  0.2095 -0.7287 -0.0133
19172SOL     OW62453   3.912  11.046   8.141 -0.2484  0.8022  0.5966
19172SOL    HW162454   3.846  11.022   8.076 -0.9176  0.9461  1.2114
19172SOL    HW262455   3.941  10.962   8.178 -1.0066  0.7916  1.2026
19173SOL     OW62456   9.488   6.755   9.334  0.1088  1.0880  0.2250
19173SOL    HW162457   9.396   6.730   9.327  0.3323  0.3126 -0.0953
19173SOL    HW262458   9.514   6.776   9.244  0.4422  0.5495  0.1899
19174SOL     OW62459   6.083   1.310   8.323 -0.1848 -0.1411 -0.1060
19174SOL    HW162460   6.057   1.291   8.413 -0.2128 -1.6115 -0.4011
19174SOL    HW262461   6.001   1.302   8.273  0.0513 -0.5241 -0.4318
19175SOL     OW62462   3.985  11.639   1.259 -0.5315  0.2957  0.3756
19175SOL    HW162463   4.028  11.558   1.287  0.8996  0.1775 -1.9304
19175SOL    HW262464   3.971  11.688   1.341 -0.7071 -1.9016  1.7302
19176SOL     OW62465   5.602   1.356   3.083  0.3634 -0.4855 -0.7212
19176SOL    HW162466   5.522   1.401   3.110 -0.1079 -1.4894 -0.4131
19176SOL    HW262467   5.672   1.403   3.129 -0.0799  0.1165 -0.6449
19177SOL     OW62468   9.546   2.027   9.115  0.1509  0.0881  0.2351
19177SOL    HW162469   9.521   2.019   9.023 -0.7165 -0.8079  0.5411
19177SOL    HW262470   9.640   2.046   9.113  0.3180 -0.8001 -0.8118
19178SOL     OW62471   5.336   7.473   5.924  0.3703  0.3840  0.6957
19178SOL    HW162472   5.273   7.492   5.855  0.7883  1.2405  0.5473
19178SOL    HW262473   5.290   7.496   6.005 -0.4359 -1.4196  0.8075
19179SOL     OW62474   3.117   1.239   2.769  0.2781  0.4759  0.3260
19179SOL    HW162475   3.142   1.178   2.838 -0.5539  1.9298  1.9814
19179SOL    HW262476   3.030   1.270   2.794 -0.8479 -0.2236 -2.3082
19180SOL     OW62477  10.161   9.033   3.687  0.4583 -0.1113  0.4152
19180SOL    HW162478  10.189   9.111   3.639 -0.1024 -0.0701  0.1474
19180SOL    HW262479  10.116   8.980   3.621 -0.7875  0.1844  0.9862
19181SOL     OW62480   1.809   2.153   9.999  0.0546 -0.0308 -0.6244
19181SOL    HW162481   1.716   2.159   9.977 -0.7143  1.9655  2.4368
19181SOL    HW262482   1.839   2.244   9.998  1.4791 -0.4646  0.2243
19182SOL     OW62483   9.273   8.705   7.411  0.1283  0.6173  0.0255
19182SOL    HW162484   9.336   8.694   7.340  0.9242 -1.0442  0.9412
19182SOL    HW262485   9.313   8.662   7.486 -1.9092 -0.1304  0.7563
19183SOL     OW62486   6.674   3.958   5.178  0.8463  0.0218  0.3329
19183SOL    HW162487   6.708   3.882   5.132  0.7499 -0.6672  1.3824
19183SOL    HW262488   6.579   3.951   5.170  0.8576  0.4973 -0.2921
19184SOL     OW62489   1.732   4.511   8.692 -0.2705 -0.4082  0.7046
19184SOL    HW162490   1.788   4.485   8.766 -2.2502 -0.7960  2.1794
19184SOL    HW262491   1.647   4.530   8.733 -0.8053  1.7328 -1.2156
19185SOL     OW62492  11.457   6.516   6.428  0.1876  0.1131 -0.5519
19185SOL    HW162493  11.451   6.591   6.488 -1.6461 -0.6866  0.3780
19185SOL    HW262494  11.427   6.550   6.344  0.8439  0.7853 -0.5170
19186SOL     OW62495   6.691   7.055   1.216  0.5160  0.0999 -0.2852
19186SOL    HW162496   6.630   7.031   1.146 -0.3344  1.1837  0.0574
19186SOL    HW262497   6.771   7.081   1.171  0.8591 -1.6052 -0.7317
19187SOL     OW62498   9.031   1.766  10.807  0.2505 -0.0038  0.0719
19187SOL    HW162499   8.955   1.821  10.788 -1.5381 -2.2794  0.3276
19187SOL    HW262500   9.020   1.690  10.750  1.0400 -1.5024  1.8499
19188SOL     OW62501   6.106   4.173  10.534 -0.4683 -0.0398  0.3591
19188SOL    HW162502   6.093   4.246  10.473  0.0834 -0.4530 -0.2658
19188SOL    HW262503   6.193   4.140  10.513  0.3062  0.6261  2.2622
19189SOL     OW62504   3.371   8.823   9.240  0.1251 -0.8111  0.3126
19189SOL    HW162505   3.353   8.752   9.178 -0.5296  0.0639 -0.5295
19189SOL    HW262506   3.288   8.833   9.288  0.7426 -1.7382  1.6237
19190SOL     OW62507   4.877  11.346   7.925  0.2951  0.2733 -0.1789
19190SOL    HW162508   4.940  11.275   7.911  1.5560 -0.0866  5.1316
19190SOL    HW262509   4.930  11.425   7.932 -0.6647  1.1201 -1.8111
19191SOL     OW62510   4.031   3.902   6.864 -0.1233  0.0970 -0.1170
19191SOL    HW162511   3.994   3.881   6.950 -2.1537 -0.2009 -0.9871
19191SOL    HW262512   4.125   3.892   6.874 -0.1381  1.6973  2.5073
19192SOL     OW62513   9.986  11.170   0.691  0.2418  0.5626 -0.5183
19192SOL    HW162514   9.914  11.185   0.630  0.4984  0.5636 -0.8245
19192SOL    HW262515  10.000  11.254   0.734  0.7163  0.8327 -1.1794
19193SOL     OW62516  10.872   3.800  11.168 -0.2035 -0.0365 -0.0813
19193SOL    HW162517  10.827   3.864  11.113  3.4976  0.5054 -2.8464
19193SOL    HW262518  10.879   3.722  11.112  0.8250 -0.6433  0.8634
19194SOL     OW62519   5.833  10.333   0.590 -0.0770 -0.2473  0.1235
19194SOL    HW162520   5.818  10.416   0.544  1.1631  0.4363  0.8968
19194SOL    HW262521   5.896  10.286   0.534  1.5377  0.6426  1.1179
19195SOL     OW62522   8.108  10.126   6.163  0.7109  0.0447  0.0753
19195SOL    HW162523   8.182  10.066   6.168  0.6995  0.0490  0.3399
19195SOL    HW262524   8.063  10.103   6.082  1.9234  1.1254 -0.9406
19196SOL     OW62525   3.780   8.655   0.032 -0.3709  0.6964  0.4046
19196SOL    HW162526   3.803   8.660   0.125  1.3141 -0.1533  0.0633
19196SOL    HW262527   3.802   8.566   0.006 -0.8577  0.9103 -0.8115
19197SOL     OW62528   3.190  10.052   4.811  0.4791 -0.4723 -0.0610
19197SOL    HW162529   3.247  10.009   4.875  1.8369  2.0884  0.5794
19197SOL    HW262530   3.215  10.015   4.727  1.3488 -1.1552  0.4802
19198SOL     OW62531   3.765   4.751   2.325  0.2776 -0.3006 -0.5626
19198SOL    HW162532   3.698   4.731   2.260  0.8072 -1.3190 -0.8023
19198SOL    HW262533   3.733   4.712   2.406  0.7912 -1.1981 -0.7829
19199SOL     OW62534  11.606   6.740  10.432 -0.0807 -0.2820 -0.0477
19199SOL    HW162535  11.513   6.746  10.452  0.0300 -0.0919  0.4146
19199SOL    HW262536  11.623   6.646  10.421 -0.1828 -0.3737  0.5600
19200SOL     OW62537   1.670   3.475   2.579  0.2886 -0.2419  0.3804
19200SOL    HW162538   1.741   3.411   2.572  1.3971  0.9505  0.1776
19200SOL    HW262539   1.705   3.554   2.537 -1.6539  0.0112 -0.8640
19201SOL     OW62540   0.778   3.992   7.822  0.2074 -0.2517 -0.2906
19201SOL    HW162541   0.867   3.955   7.823  0.3750  0.0487 -1.4858
19201SOL    HW262542   0.785   4.067   7.762  0.0432  2.1929  2.4962
19202SOL     OW62543   3.650   9.151   3.916 -0.8124 -0.0879 -0.0850
19202SOL    HW162544   3.604   9.178   3.995 -2.2767 -3.0567  0.2211
19202SOL    HW262545   3.593   9.180   3.844 -0.2207  1.2958 -0.0231
19203SOL     OW62546   4.607   8.635   2.769 -0.1443 -0.0449 -0.4193
19203SOL    HW162547   4.649   8.613   2.852 -1.0029 -1.0334 -0.2156
19203SOL    HW262548   4.529   8.578   2.766 -0.1180 -0.0458 -1.9012
19204SOL     OW62549   0.065   4.118  11.681  0.6935 -0.4851  0.1995
19204SOL    HW162550   0.081   4.041  11.736 -0.0031 -0.2929  0.6831
19204SOL    HW262551  -0.016   4.155  11.715 -1.0275 -1.6079 -2.3693
19205SOL     OW62552   5.444   8.668   8.125 -0.1042 -0.0701  0.3423
19205SOL    HW162553   5.406   8.701   8.207 -2.9662  0.0662 -0.9478
19205SOL    HW262554   5.464   8.747   8.074 -1.2910 -0.1846 -0.3255
19206SOL     OW62555  11.422   9.155   4.997 -0.0281 -0.1175 -0.2402
19206SOL    HW162556  11.435   9.238   5.042  2.4200 -0.2323 -0.5930
19206SOL    HW262557  11.482   9.094   5.041 -1.2049 -1.5049 -0.4847
19207SOL     OW62558   5.598   6.913   5.611 -0.4566  0.1417  0.4560
19207SOL    HW162559   5.594   7.008   5.595 -1.0494  0.0003 -0.2810
19207SOL    HW262560   5.526   6.897   5.672 -0.6459  0.0969  0.2210
19208SOL     OW62561   1.880   9.800   6.737  0.0502  0.2219 -0.1812
19208SOL    HW162562   1.790   9.815   6.708 -0.2738  1.1201  1.1741
19208SOL    HW262563   1.877   9.712   6.776  0.3836 -0.7918 -2.3340
19209SOL     OW62564   3.997   2.686   5.958 -0.4180 -0.3357 -0.0486
19209SOL    HW162565   3.952   2.602   5.949 -0.5475 -0.0996 -1.8162
19209SOL    HW262566   4.080   2.663   6.001 -1.5766 -0.9502  2.0272
19210SOL     OW62567   3.920  10.154   5.907  0.3332  0.6063 -0.0292
19210SOL    HW162568   3.851  10.219   5.921  0.3875  0.8084 -0.6794
19210SOL    HW262569   3.876  10.082   5.862  0.2704  0.1779  0.7032
19211SOL     OW62570   8.237  10.708   3.811 -0.8528  0.4459  0.1040
19211SOL    HW162571   8.282  10.632   3.847 -0.3574  0.2067 -0.9738
19211SOL    HW262572   8.177  10.736   3.880  2.9748  2.6546  2.9270
19212SOL     OW62573   9.020   8.541   1.157  0.1032 -0.4639 -0.8113
19212SOL    HW162574   9.094   8.494   1.118  0.1728  0.0734 -1.3412
19212SOL    HW262575   9.012   8.504   1.245  1.6847  0.1960 -0.3522
19213SOL     OW62576   0.324   6.287   4.476  0.0614 -0.2034 -0.1704
19213SOL    HW162577   0.408   6.240   4.478 -0.0392 -0.4507 -1.1028
19213SOL    HW262578   0.259   6.219   4.492  0.0217 -0.0490  0.3358
19214SOL     OW62579   9.237  11.096   6.957 -0.1403  0.3014 -0.1212
19214SOL    HW162580   9.152  11.134   6.934 -0.1601  0.1707 -0.2657
19214SOL    HW262581   9.294  11.172   6.970  0.0509  0.3796 -1.2934
19215SOL     OW62582   2.203   2.854   5.161  0.2601 -0.1229 -0.3996
19215SOL    HW162583   2.260   2.792   5.207 -1.1758 -0.7087  0.6533
19215SOL    HW262584   2.184   2.811   5.078 -0.8228 -1.1897  0.3737
19216SOL     OW62585   4.573   0.333   6.053 -0.1095 -0.4506  0.3168
19216SOL    HW162586   4.561   0.339   5.958  0.0719  0.3659  0.3325
19216SOL    HW262587   4.597   0.242   6.069  1.1610 -0.3113 -0.5811
19217SOL     OW62588   9.526   6.762   0.697 -0.1019  0.1407  0.0747
19217SOL    HW162589   9.440   6.769   0.740 -0.7788 -0.9617 -1.0343
19217SOL    HW262590   9.585   6.812   0.753 -0.9526 -1.1851  2.2643
19218SOL     OW62591   2.458   9.301   4.577 -0.4475  0.0888  0.3914
19218SOL    HW162592   2.469   9.319   4.484  1.0915 -0.4315  0.4483
19218SOL    HW262593   2.482   9.384   4.620  0.6007 -0.1963  0.3847
19219SOL     OW62594   8.957   6.264   9.489 -0.6009  0.2207 -0.1602
19219SOL    HW162595   8.922   6.317   9.417  0.5006  0.6366 -0.4198
19219SOL    HW262596   9.017   6.323   9.535  0.2220 -0.6204 -0.1098
19220SOL     OW62597   0.312   7.266   6.580  0.5149  0.2364  0.1410
19220SOL    HW162598   0.326   7.215   6.661 -1.4552 -1.3060 -0.4040
19220SOL    HW262599   0.216   7.269   6.570  0.6608 -1.0762 -2.9506
19221SOL     OW62600   9.995   8.140   8.292  0.1808 -0.1225 -0.4453
19221SOL    HW162601   9.959   8.161   8.378  0.4974 -1.5907  0.0584
19221SOL    HW262602   9.998   8.225   8.247 -0.2031  0.6348  0.8902
19222SOL     OW62603   5.199   0.103   6.830 -0.0441 -0.0325  0.8081
19222SOL    HW162604   5.269   0.043   6.803 -1.0992  0.5482 -4.2532
19222SOL    HW262605   5.240   0.190   6.828 -0.4306  0.1382 -0.4114
19223SOL     OW62606  10.981   9.085   3.166  0.0026  0.4717 -0.1313
19223SOL    HW162607  11.001   9.179   3.168 -1.3653  0.7834  0.1546
19223SOL    HW262608  11.015   9.052   3.249  1.2252  0.5268 -0.5814
19224SOL     OW62609   6.908   9.108   3.631  1.0541 -0.0251 -0.5365
19224SOL    HW162610   6.827   9.152   3.659  1.3877  0.2685 -0.0217
19224SOL    HW262611   6.887   9.015   3.638  0.7336  0.0479 -0.4737
19225SOL     OW62612   3.483   7.836   8.577 -0.0249 -0.1245  0.2497
19225SOL    HW162613   3.525   7.841   8.664 -0.2634 -0.3025  0.3751
19225SOL    HW262614   3.472   7.928   8.551  0.7989 -0.0704  0.0397
19226SOL     OW62615   9.346   8.477   3.593  0.1612  0.4901  0.1575
19226SOL    HW162616   9.331   8.515   3.680  0.4910  0.5349  0.1943
19226SOL    HW262617   9.441   8.463   3.589  0.2609  1.2957 -0.5271
19227SOL     OW62618   3.692   2.139  10.455  0.8587  0.9662  0.4248
19227SOL    HW162619   3.771   2.176  10.494  0.3927  1.8905  0.5015
19227SOL    HW262620   3.694   2.167  10.363  0.3727  1.4233  0.5460
19228SOL     OW62621   3.723   6.968   3.568 -0.1794 -0.3089 -0.1638
19228SOL    HW162622   3.654   6.969   3.501  0.3980 -2.3718 -0.8671
19228SOL    HW262623   3.702   6.891   3.622  1.4582 -0.8583 -0.2806
19229SOL     OW62624   9.201   8.375   0.526 -0.4263 -0.1440  0.2029
19229SOL    HW162625   9.160   8.407   0.607 -0.7093 -0.2155  0.0910
19229SOL    HW262626   9.271   8.438   0.508 -1.7812  1.2066 -0.7108
19230SOL     OW62627   6.636   5.644   1.310  0.1346 -0.0861  0.2009
19230SOL    HW162628   6.656   5.555   1.337 -1.4638 -0.6070 -0.2389
19230SOL    HW262629   6.660   5.647   1.218 -1.6477 -0.7195 -0.3336
19231SOL     OW62630   4.702   7.093   4.106  0.2681  0.3546  0.1988
19231SOL    HW162631   4.692   7.143   4.187  1.9867 -1.1566  1.4424
19231SOL    HW262632   4.771   7.029   4.126 -0.1606 -0.9240 -2.0601
19232SOL     OW62633   1.780   7.660  11.450 -0.4188 -0.4347  0.1188
19232SOL    HW162634   1.820   7.595  11.393 -0.0986  0.1947 -0.3824
19232SOL    HW262635   1.708   7.696  11.399 -0.2822 -0.0380  0.2040
19233SOL     OW62636   0.841   6.970   6.594 -0.1437  0.2916  0.4307
19233SOL    HW162637   0.842   6.912   6.517  3.6466 -1.9215  1.9003
19233SOL    HW262638   0.762   6.945   6.641 -0.4205 -1.1948 -0.7384
19234SOL     OW62639   9.621   5.404   2.447 -0.2304 -0.0890 -0.0378
19234SOL    HW162640   9.682   5.477   2.456  1.8584 -1.7368  0.3206
19234SOL    HW262641   9.588   5.410   2.358  1.0597  0.4631 -0.5012
19235SOL     OW62642   0.526   6.506  11.151 -0.2593  0.6495  0.5954
19235SOL    HW162643   0.518   6.517  11.056 -3.2099  2.0900  0.8754
19235SOL    HW262644   0.501   6.415  11.167  0.9275  0.1936 -0.0134
19236SOL     OW62645   2.408   3.126   2.835  0.1236  0.2536 -0.2322
19236SOL    HW162646   2.347   3.190   2.797  1.6449  1.4310 -0.7634
19236SOL    HW262647   2.399   3.049   2.779 -0.4498  0.6087 -0.6495
19237SOL     OW62648   1.616   9.916   4.428 -0.0629 -0.2381  0.1808
19237SOL    HW162649   1.670   9.900   4.505  0.8840 -2.5410 -0.8543
19237SOL    HW262650   1.561   9.991   4.451  0.7045 -0.3992  2.7846
19238SOL     OW62651   4.989   4.583  10.039 -0.3429 -0.2056  0.3976
19238SOL    HW162652   5.083   4.573  10.021 -0.1366  0.1842  1.2007
19238SOL    HW262653   4.970   4.516  10.105 -1.2180 -2.0166 -1.5523
19239SOL     OW62654   6.514   1.521   5.112  0.1429 -0.3183 -0.3049
19239SOL    HW162655   6.457   1.597   5.119 -1.1026 -1.2704  0.5415
19239SOL    HW262656   6.570   1.526   5.190  0.4283  0.0136 -0.5317
19240SOL     OW62657   7.622   0.780  10.768 -0.4165  0.5346  0.0267
19240SOL    HW162658   7.594   0.690  10.782 -0.7259  0.8673  1.9064
19240SOL    HW262659   7.560   0.816  10.705 -1.9779  0.1793  1.3032
19241SOL     OW62660   3.201  11.162   6.709 -0.0844 -0.0838  0.3730
19241SOL    HW162661   3.233  11.091   6.765  1.1127  0.1009 -0.0490
19241SOL    HW262662   3.207  11.126   6.620  1.2789  0.7864  0.0813
19242SOL     OW62663   9.203   9.694   1.290  0.0442 -0.3464 -0.4192
19242SOL    HW162664   9.216   9.636   1.214 -0.1718 -2.7723  1.2934
19242SOL    HW262665   9.263   9.660   1.356 -1.8649 -0.1836  1.4916
19243SOL     OW62666   0.856   0.322  11.668  0.6325  0.3141 -0.4912
19243SOL    HW162667   0.796   0.372  11.723 -1.7548 -1.6248 -1.1440
19243SOL    HW262668   0.831   0.345  11.578  2.8876  1.6379 -0.8760
19244SOL     OW62669   9.408   0.885  11.641 -0.0959  0.0777  0.0941
19244SOL    HW162670   9.413   0.978  11.620 -0.6617  0.1408  0.2190
19244SOL    HW262671   9.356   0.847  11.570 -1.9416  0.2762  1.2831
19245SOL     OW62672   9.527  10.627   8.525  0.4948 -0.1118 -0.2804
19245SOL    HW162673   9.562  10.557   8.470  1.3126  0.2864 -0.2815
19245SOL    HW262674   9.573  10.618   8.608  2.6667  2.0171 -1.1153
19246SOL     OW62675   3.553  11.411   6.711  0.0994 -0.0998 -0.3157
19246SOL    HW162676   3.467  11.399   6.669  0.4599  0.5750 -1.2806
19246SOL    HW262677   3.542  11.491   6.763 -0.3175 -0.8825  0.8459
19247SOL     OW62678   8.404   3.041   7.999 -0.0451 -0.2491 -0.3032
19247SOL    HW162679   8.366   3.125   7.973  1.8041  0.5795 -0.4896
19247SOL    HW262680   8.441   3.006   7.919  0.1443 -0.7136 -0.0138
19248SOL     OW62681   2.887   1.853   6.560 -0.3407  0.3352  0.1115
19248SOL    HW162682   2.889   1.889   6.471 -0.5539  1.0050  0.3820
19248SOL    HW262683   2.890   1.929   6.618  0.6918 -0.1222  0.6943
19249SOL     OW62684   1.913   9.443   1.331  0.1175  0.0050 -0.0368
19249SOL    HW162685   1.973   9.370   1.348 -0.9149 -0.5907  1.2597
19249SOL    HW262686   1.923   9.500   1.407  0.1152  0.6634 -0.5256
19250SOL     OW62687   1.872   6.040   4.641 -0.0997  0.7195 -0.0946
19250SOL    HW162688   1.861   6.071   4.551  0.7147 -0.1445 -0.4985
19250SOL    HW262689   1.865   6.120   4.694 -2.5737  1.0272 -0.7123
19251SOL     OW62690   1.855   7.904   8.381  0.4297 -0.2543 -0.8516
19251SOL    HW162691   1.824   7.995   8.381 -0.2079 -0.4657 -0.2828
19251SOL    HW262692   1.806   7.862   8.310  0.0864 -0.3632 -0.5514
19252SOL     OW62693   5.244   3.695   9.626 -0.2579 -0.3393  0.7166
19252SOL    HW162694   5.292   3.615   9.646 -1.8721 -1.6097 -0.2471
19252SOL    HW262695   5.161   3.665   9.588 -0.1303  1.8009 -1.5347
19253SOL     OW62696   6.022   3.311   6.281 -0.0320  0.0128 -0.0897
19253SOL    HW162697   6.109   3.272   6.277  0.1730  0.4936 -0.6664
19253SOL    HW262698   5.963   3.238   6.295  0.6060 -0.1187  2.1932
19254SOL     OW62699   8.847   1.372  10.017  0.5023  0.0673  0.2826
19254SOL    HW162700   8.861   1.350  10.110  0.7399  0.4828  0.3502
19254SOL    HW262701   8.756   1.347  10.000  0.4404  0.0339  0.6440
19255SOL     OW62702  10.695   4.280   8.663 -0.2675  0.2268 -0.0520
19255SOL    HW162703  10.751   4.203   8.666 -1.1293 -0.4305 -0.3150
19255SOL    HW262704  10.747   4.346   8.617  1.5198  0.7219  2.4412
19256SOL     OW62705   1.754   7.537  10.398  0.5538  0.2961  0.3568
19256SOL    HW162706   1.698   7.605  10.360  0.3845 -1.0878 -2.0897
19256SOL    HW262707   1.740   7.544  10.492 -2.5580  1.0046 -0.0576
19257SOL     OW62708   0.163   5.351   3.990  0.3258 -0.4529  0.0555
19257SOL    HW162709   0.079   5.393   4.008  0.1872 -1.8985  3.4740
19257SOL    HW262710   0.223   5.423   3.971 -0.8339  0.9573  1.4970
19258SOL     OW62711   6.142   4.043   6.747 -0.3341  0.1561  0.2951
19258SOL    HW162712   6.095   4.094   6.680  0.4436  1.1875  0.5106
19258SOL    HW262713   6.233   4.069   6.737 -0.1762  0.1884  1.6385
19259SOL     OW62714   5.254   7.687   0.740 -0.5823  0.4672 -0.2494
19259SOL    HW162715   5.305   7.762   0.708  0.3556  0.7109  1.6572
19259SOL    HW262716   5.280   7.615   0.682  1.7456  0.6605  0.4400
19260SOL     OW62717   8.026  10.477   9.473  0.3389 -0.5281  0.4705
19260SOL    HW162718   8.110  10.438   9.495 -0.0918 -0.5135  2.2532
19260SOL    HW262719   8.018  10.465   9.378  0.6703 -3.8874  0.7482
19261SOL     OW62720   7.314   4.908   7.032  0.4912 -0.1440 -0.2182
19261SOL    HW162721   7.231   4.950   7.057  0.6678  0.6020 -0.8232
19261SOL    HW262722   7.290   4.847   6.962  0.3308 -0.5739  0.2056
19262SOL     OW62723   5.794  11.233   2.437 -0.0278 -0.4018  0.4288
19262SOL    HW162724   5.846  11.264   2.510  2.5073 -1.3353 -0.8424
19262SOL    HW262725   5.749  11.155   2.470  0.5871 -0.4472  1.1755
19263SOL     OW62726  10.476   0.445   1.169 -0.2864  0.1692  0.1400
19263SOL    HW162727  10.560   0.458   1.214 -0.5805 -1.0133  1.1056
19263SOL    HW262728  10.499   0.431   1.078  0.6037 -0.4010  0.4401
19264SOL     OW62729   5.519   2.835   0.543  0.2139  0.1873  0.0249
19264SOL    HW162730   5.436   2.877   0.519 -0.7470 -1.8613 -0.4314
19264SOL    HW262731   5.568   2.829   0.461 -0.3812 -1.0421 -0.2761
19265SOL     OW62732   6.026  10.403   5.442 -0.2246 -0.0035 -0.4378
19265SOL    HW162733   6.098  10.378   5.383  0.0136 -1.0313  0.2676
19265SOL    HW262734   5.976  10.323   5.454 -0.9295  0.4768 -0.1395
19266SOL     OW62735   9.996   3.221  11.058  0.3476 -0.0405 -0.2910
19266SOL    HW162736  10.023   3.173  11.136 -0.3003  0.8905  0.5321
19266SOL    HW262737  10.073   3.272  11.033 -0.5647  2.9436  2.3056
19267SOL     OW62738   0.985   7.777   0.054 -0.1585  0.0410  0.4191
19267SOL    HW162739   0.921   7.710   0.080 -1.0444  1.1619  1.2087
19267SOL    HW262740   1.067   7.750   0.097 -0.1943 -1.1437 -0.2110
19268SOL     OW62741   3.504   9.099   6.763 -0.6796 -0.1989 -0.2673
19268SOL    HW162742   3.485   9.054   6.681 -0.6615  2.3378 -1.7618
19268SOL    HW262743   3.523   9.189   6.738  2.4462  0.0218  2.2232
19269SOL     OW62744   2.180  10.323   0.869 -0.1390 -0.2354  0.7032
19269SOL    HW162745   2.181  10.289   0.779  0.3882 -0.0866  0.6477
19269SOL    HW262746   2.095  10.366   0.877  0.1762  0.5837 -0.0513
19270SOL     OW62747   1.573   5.814  11.366  0.1699  0.6151  0.1037
19270SOL    HW162748   1.661   5.849  11.358  0.5099 -0.3338 -0.3729
19270SOL    HW262749   1.526   5.851  11.291  0.3383  0.5799 -0.0180
19271SOL     OW62750   7.135   3.034   2.287  0.2774  0.2870 -0.0002
19271SOL    HW162751   7.049   3.056   2.252 -0.0217 -0.4885  0.2296
19271SOL    HW262752   7.147   2.941   2.266  0.0795 -0.2147  1.9279
19272SOL     OW62753   3.085   4.107   6.238  0.6823  0.2811 -0.1475
19272SOL    HW162754   2.996   4.126   6.268  0.3075  0.8051 -1.4812
19272SOL    HW262755   3.097   4.014   6.256  0.0865  0.3392  0.5958
19273SOL     OW62756   6.476   5.975  11.352 -0.0916 -0.0272 -0.0144
19273SOL    HW162757   6.524   6.058  11.343  2.0376 -0.9437  1.8973
19273SOL    HW262758   6.476   5.938  11.264  0.4189  1.2104 -0.5597
19274SOL     OW62759  11.145   8.362   9.345  0.2759 -0.2361  0.1208
19274SOL    HW162760  11.121   8.277   9.383  0.2125  0.1928  1.0575
19274SOL    HW262761  11.066   8.415   9.353  0.0751 -0.3072 -1.1571
19275SOL     OW62762   6.748   1.805   0.673  0.1733  0.0623 -0.0807
19275SOL    HW162763   6.679   1.845   0.620 -1.4661  1.1882  2.6716
19275SOL    HW262764   6.825   1.860   0.658 -0.4571  0.7847 -0.7294
19276SOL     OW62765   1.379   8.627   7.812 -0.3579  0.5466 -0.3377
19276SOL    HW162766   1.471   8.603   7.824 -0.5237 -0.2407 -0.6315
19276SOL    HW262767   1.382   8.701   7.751  0.2463  2.1997  1.5746
19277SOL     OW62768  10.637   6.217   7.756 -0.4696 -0.5277  0.3633
19277SOL    HW162769  10.625   6.269   7.835  1.0102  0.5527 -0.0707
19277SOL    HW262770  10.548   6.200   7.724 -1.1668 -1.9149  2.7832
19278SOL     OW62771   0.887   9.757   9.531 -0.1644  0.1541  0.3968
19278SOL    HW162772   0.937   9.769   9.450  2.0759  0.3650  1.7304
19278SOL    HW262773   0.953   9.760   9.600 -1.6449 -2.6363  2.0974
19279SOL     OW62774   2.977   1.570   0.516  0.0385 -0.6510  0.2868
19279SOL    HW162775   2.933   1.642   0.561  1.0110  1.1108 -1.4157
19279SOL    HW262776   3.039   1.536   0.580  1.7923  2.1573  0.2232
19280SOL     OW62777   4.724   6.431   1.041 -0.4284 -0.3021  0.1621
19280SOL    HW162778   4.713   6.464   0.952  0.0219 -0.9335 -0.1330
19280SOL    HW262779   4.673   6.349   1.043  0.2514 -0.7286  0.2297
19281SOL     OW62780   6.564   0.727   7.525 -0.1075 -0.4591 -0.0012
19281SOL    HW162781   6.660   0.734   7.528 -0.1068 -0.6770  0.9786
19281SOL    HW262782   6.547   0.633   7.527 -0.3542 -0.4044  0.8134
19282SOL     OW62783  10.103   8.094   5.064  0.5618 -0.1015  0.1796
19282SOL    HW162784  10.166   8.063   5.130 -0.6849  0.9653  1.9554
19282SOL    HW262785  10.058   8.015   5.035  1.3725 -0.6381  0.3495
19283SOL     OW62786   2.025   1.725   7.305  0.3746  0.0318  0.0058
19283SOL    HW162787   2.027   1.637   7.343 -1.6257 -0.2259 -0.3638
19283SOL    HW262788   2.116   1.744   7.282  0.6146 -2.8567 -1.9581
19284SOL     OW62789   9.449   5.835   3.011  0.2794 -0.0951  0.7120
19284SOL    HW162790   9.523   5.852   3.069  0.0780  3.2631  0.2167
19284SOL    HW262791   9.441   5.915   2.959 -2.5731 -1.0595 -0.5471
19285SOL     OW62792   7.184   4.006   1.212 -0.3167 -0.3353  0.2394
19285SOL    HW162793   7.214   3.983   1.125  0.9848  2.7224 -0.2577
19285SOL    HW262794   7.120   4.076   1.198 -0.7729 -0.4128  1.7255
19286SOL     OW62795   1.624   5.079   5.269 -0.6806  0.1647 -0.0335
19286SOL    HW162796   1.556   5.114   5.326  0.3725  0.9375  0.8120
19286SOL    HW262797   1.645   5.152   5.210  0.6370  0.5702  0.8933
19287SOL     OW62798  11.084   8.575   7.965  0.7087 -0.1134 -0.8529
19287SOL    HW162799  11.148   8.557   8.033  0.5192  0.4290 -0.5263
19287SOL    HW262800  11.136   8.607   7.891  0.8499 -0.0384 -0.7204
19288SOL     OW62801   0.621   3.159   1.826  0.3526  0.6725 -0.2602
19288SOL    HW162802   0.656   3.075   1.855 -2.2243 -0.6654 -0.6967
19288SOL    HW262803   0.553   3.180   1.890 -1.7708  0.3368 -2.2710
19289SOL     OW62804   3.769   0.781   7.696  0.1092  0.1639  0.5960
19289SOL    HW162805   3.794   0.857   7.644  1.2671 -0.8961 -0.4335
19289SOL    HW262806   3.704   0.735   7.643  0.6062 -0.4243  0.4873
19290SOL     OW62807   6.997   9.737   7.355 -0.2780 -0.2224 -0.5326
19290SOL    HW162808   7.054   9.684   7.299  0.0690 -0.5291  0.1121
19290SOL    HW262809   6.909   9.723   7.319 -0.0493 -0.3695 -1.0395
19291SOL     OW62810   0.753   0.996   6.861 -0.4247  0.5981  0.4615
19291SOL    HW162811   0.715   0.938   6.927 -1.3351  0.6346 -0.0147
19291SOL    HW262812   0.787   0.937   6.794  1.2647  0.5274  1.3366
19292SOL     OW62813   6.727   8.688   4.354  0.2676  0.8753 -0.6500
19292SOL    HW162814   6.789   8.633   4.306  0.7825  0.1633  0.7668
19292SOL    HW262815   6.642   8.647   4.338  0.5443  0.1328 -0.2733
19293SOL     OW62816   5.021   3.794   2.445  0.5305 -0.4395 -0.0276
19293SOL    HW162817   5.020   3.745   2.527 -0.2176  0.5721  0.5996
19293SOL    HW262818   4.948   3.759   2.395 -2.3609  2.2724  1.8833
19294SOL     OW62819   7.590   1.851   5.439  0.4014 -0.6765 -0.7399
19294SOL    HW162820   7.552   1.917   5.381 -1.6427 -0.0237  1.2152
19294SOL    HW262821   7.547   1.769   5.413  1.8800 -1.0537 -2.2013
19295SOL     OW62822   2.170   0.802   1.931 -0.1332 -0.1011 -0.1072
19295SOL    HW162823   2.077   0.823   1.942  0.5594  3.1928  0.5285
19295SOL    HW262824   2.202   0.866   1.868  1.8573 -0.6396  0.2778
19296SOL     OW62825   5.644   1.642   3.385  0.2448  0.5154  0.3076
19296SOL    HW162826   5.708   1.601   3.443  0.8654  0.2250 -0.5465
19296SOL    HW262827   5.683   1.635   3.298 -2.0752 -2.1026 -0.6985
19297SOL     OW62828   9.194   6.872   0.389  0.3258 -0.0675  0.0160
19297SOL    HW162829   9.284   6.886   0.417  0.3222 -0.3834  0.1834
19297SOL    HW262830   9.146   6.947   0.426  0.5685  0.2593 -0.3232
19298SOL     OW62831   2.758   0.315   1.292 -0.6013 -0.0838  0.1390
19298SOL    HW162832   2.697   0.324   1.219 -0.9971  0.5509  0.5390
19298SOL    HW262833   2.752   0.223   1.317 -0.5872 -0.2701 -0.5170
19299SOL     OW62834   6.398   3.083   2.470  0.1701  0.3085  0.5734
19299SOL    HW162835   6.413   3.061   2.378 -0.5809 -2.9735  1.0905
19299SOL    HW262836   6.311   3.123   2.471 -1.3277 -2.6546  0.0852
19300SOL     OW62837   6.136   6.844   8.575  0.0173  0.4818  0.2706
19300SOL    HW162838   6.080   6.766   8.578  2.0906 -1.1497 -0.4893
19300SOL    HW262839   6.154   6.865   8.667 -0.6555  0.1104  0.4879
19301SOL     OW62840   6.134   4.520   5.119  0.0463 -0.6717  0.2936
19301SOL    HW162841   6.119   4.580   5.046 -0.9983 -0.3779  0.7318
19301SOL    HW262842   6.077   4.551   5.189 -0.0131 -1.7645  0.7642
19302SOL     OW62843  10.132  10.106   1.575  0.8224  0.3655 -0.3429
19302SOL    HW162844  10.099  10.019   1.549 -0.2454  0.6387  0.0331
19302SOL    HW262845  10.202  10.088   1.637 -0.9013 -0.2382  1.5200
19303SOL     OW62846   9.352   4.970   8.218  0.1731 -0.1975 -0.2691
19303SOL    HW162847   9.409   5.025   8.271  1.2053  0.0833 -1.6118
19303SOL    HW262848   9.410   4.934   8.150 -1.1401 -0.2869 -1.3893
19304SOL     OW62849   2.948   4.258   5.869  0.5568 -0.6417  0.1395
19304SOL    HW162850   2.872   4.286   5.918 -0.4803  0.2905 -1.8856
19304SOL    HW262851   2.922   4.267   5.777  3.2488  0.2063 -0.6391
19305SOL     OW62852   6.593   5.976   0.649  0.0775 -0.5018  0.5505
19305SOL    HW162853   6.568   6.068   0.662 -0.2867 -0.7634  1.8263
19305SOL    HW262854   6.537   5.946   0.578  1.2148  0.6388 -0.9070
19306SOL     OW62855  10.629   6.886   4.145 -0.3899  0.0017  0.1424
19306SOL    HW162856  10.607   6.963   4.199  1.1166  0.5582  0.0136
19306SOL    HW262857  10.717   6.904   4.114 -0.6219 -1.0689 -1.2072
19307SOL     OW62858   0.783  11.210   5.904  0.6273 -0.1301  0.3978
19307SOL    HW162859   0.753  11.119   5.900 -0.5541  0.2701 -0.3729
19307SOL    HW262860   0.704  11.259   5.928  0.5555  1.0017 -1.9410
19308SOL     OW62861   4.954   9.472   0.518  0.2866  0.0277  0.1850
19308SOL    HW162862   5.038   9.482   0.563  0.4353  3.5249 -0.6255
19308SOL    HW262863   4.978   9.443   0.430  0.7867  1.9531 -0.3457
19309SOL     OW62864  10.748   8.812   7.996  0.0571  0.2820  0.2821
19309SOL    HW162865  10.754   8.785   7.905 -0.8752  0.5599  0.1256
19309SOL    HW262866  10.780   8.902   7.997  0.1112  0.2631  0.2328
19310SOL     OW62867   8.182  10.566   0.020  0.2144 -0.1994 -0.2624
19310SOL    HW162868   8.255  10.505   0.031  1.5826  1.1554 -1.3703
19310SOL    HW262869   8.104  10.511   0.020  1.3959 -1.9520 -1.1762
19311SOL     OW62870   2.599   9.587   5.152  0.2199  0.4727  0.0348
19311SOL    HW162871   2.667   9.643   5.115 -0.0011  0.1902 -0.8210
19311SOL    HW262872   2.596   9.511   5.094  0.3598 -0.3336  1.0490
19312SOL     OW62873   2.410   1.670   7.784 -0.2420 -1.0383 -0.2929
19312SOL    HW162874   2.404   1.736   7.714  0.9918  0.5001  0.9786
19312SOL    HW262875   2.497   1.632   7.773 -0.4635 -1.5574 -0.2441
19313SOL     OW62876   3.215   5.465   3.864  0.6281  0.5657  0.4806
19313SOL    HW162877   3.141   5.472   3.924 -0.1198 -1.7008 -0.0590
19313SOL    HW262878   3.175   5.441   3.780  1.8138  1.7055 -0.4644
19314SOL     OW62879   6.323   2.419   6.389 -0.4522  0.0091  0.3590
19314SOL    HW162880   6.336   2.411   6.483  0.7089 -3.0905  0.0532
19314SOL    HW262881   6.280   2.338   6.363  0.1277  0.3394 -1.8821
19315SOL     OW62882   5.053   0.434  10.892  0.3062  0.2455 -0.2797
19315SOL    HW162883   5.003   0.511  10.865 -1.5896 -1.3877 -1.6818
19315SOL    HW262884   5.000   0.393  10.960  0.4192 -0.7336 -0.7625
19316SOL     OW62885   8.309   0.135   0.709  0.2650 -0.4605 -0.4330
19316SOL    HW162886   8.295   0.061   0.768  0.7375 -0.5557 -0.4307
19316SOL    HW262887   8.255   0.205   0.745 -0.4563 -0.9084 -0.6365
19317SOL     OW62888   3.227   3.590   2.780  0.0395 -0.1340 -0.0022
19317SOL    HW162889   3.216   3.613   2.872  1.8110 -0.0879  0.2266
19317SOL    HW262890   3.321   3.576   2.769 -0.3235 -2.0271 -1.3628
19318SOL     OW62891   7.315   4.382   8.046  0.0419 -0.1228  0.2073
19318SOL    HW162892   7.323   4.475   8.068  0.3233 -0.1746  0.3315
19318SOL    HW262893   7.290   4.340   8.128  0.2209 -0.1963  0.2269
19319SOL     OW62894   9.308  11.255   2.832 -0.2416 -0.9587  0.1314
19319SOL    HW162895   9.360  11.200   2.891  1.4644 -0.5568 -0.9277
19319SOL    HW262896   9.265  11.318   2.890  2.1838  0.0686  0.9293
19320SOL     OW62897   6.755   3.248   2.897 -0.2878 -0.1905 -0.0826
19320SOL    HW162898   6.718   3.288   2.817 -0.9286  3.2015  1.7114
19320SOL    HW262899   6.681   3.243   2.957  0.3990 -1.7321  0.6816
19321SOL     OW62900  10.034  10.153   2.236 -0.2178  0.2004  0.2473
19321SOL    HW162901   9.952  10.107   2.215 -0.9448  1.9412 -0.9674
19321SOL    HW262902  10.013  10.203   2.315 -0.0073 -0.1231  0.5089
19322SOL     OW62903   0.516   2.828   5.537  0.0395  0.4237  0.0250
19322SOL    HW162904   0.449   2.862   5.478  0.6002  0.6639 -0.4860
19322SOL    HW262905   0.518   2.734   5.521 -1.0016  0.2349  0.9072
19323SOL     OW62906   1.091   4.843   7.362 -0.4974 -0.0532  0.6139
19323SOL    HW162907   1.037   4.787   7.417 -0.2134  0.9508  1.9586
19323SOL    HW262908   1.170   4.859   7.414 -0.3422  1.1530  0.0378
19324SOL     OW62909   6.112   8.023   9.795 -0.5684  0.5381 -0.7412
19324SOL    HW162910   6.194   8.071   9.809 -0.2028  0.2607 -1.8177
19324SOL    HW262911   6.094   8.034   9.702 -0.6100 -1.2012 -0.9719
19325SOL     OW62912   0.751  10.921  10.553 -0.0783 -0.2161  0.0350
19325SOL    HW162913   0.802  10.844  10.527 -3.1843 -2.3100 -0.4401
19325SOL    HW262914   0.723  10.901  10.643 -0.9559  0.3266 -0.1104
19326SOL     OW62915  10.946   5.937   5.899 -0.4446  0.3803  0.2072
19326SOL    HW162916  10.989   5.919   5.982 -2.3564  0.4543  1.2816
19326SOL    HW262917  10.855   5.954   5.923 -1.4973 -1.4915 -2.0906
19327SOL     OW62918   9.802   3.820   3.441  0.2291 -0.8612 -0.1437
19327SOL    HW162919   9.710   3.844   3.447  0.9769  2.1044  1.5405
19327SOL    HW262920   9.819   3.768   3.519  0.2271 -0.3991  0.1665
19328SOL     OW62921   1.367   4.822   1.878 -0.6858  0.0782 -0.0366
19328SOL    HW162922   1.282   4.788   1.849 -0.2801 -0.5473 -0.5356
19328SOL    HW262923   1.362   4.916   1.861 -1.2609  0.0406 -0.1131
19329SOL     OW62924   7.726   1.842   6.625  0.1765 -0.4139  0.2464
19329SOL    HW162925   7.792   1.884   6.680  0.6608 -0.9096  0.0516
19329SOL    HW262926   7.729   1.890   6.542  2.0016 -1.9159 -0.6303
19330SOL     OW62927   1.764   0.618   6.765  0.1591  0.7550  0.2819
19330SOL    HW162928   1.682   0.650   6.729 -0.7101 -1.2973  0.3360
19330SOL    HW262929   1.827   0.688   6.747 -1.3700  1.9491 -0.6177
19331SOL     OW62930   5.593  10.014   4.637 -0.6356  0.4991 -0.3966
19331SOL    HW162931   5.528  10.061   4.585  0.7430  0.2407 -2.4457
19331SOL    HW262932   5.664  10.077   4.649 -0.5710  0.2741  0.4930
19332SOL     OW62933   5.903   0.816   2.669 -0.8993  0.1668  0.1052
19332SOL    HW162934   5.925   0.867   2.747  0.7463  2.4879 -1.7218
19332SOL    HW262935   5.988   0.795   2.630 -1.6640 -1.2829 -0.8703
19333SOL     OW62936   2.597   8.098   2.644 -0.5143 -0.6919  0.7923
19333SOL    HW162937   2.682   8.142   2.641 -1.5051  1.3426  1.1942
19333SOL    HW262938   2.619   8.006   2.657  1.6445 -0.3332  0.1607
19334SOL     OW62939   5.000   4.663   8.588 -0.5185 -0.1934  0.0950
19334SOL    HW162940   4.966   4.574   8.584  2.1639 -1.4554  2.1499
19334SOL    HW262941   5.083   4.659   8.541 -1.7434  2.1359 -2.5839
19335SOL     OW62942  10.651   4.245   4.749 -0.1823  0.1469 -0.0429
19335SOL    HW162943  10.598   4.303   4.803 -0.6613  1.2759 -1.6411
19335SOL    HW262944  10.589   4.208   4.686  0.6843  0.4112 -1.0790
19336SOL     OW62945   7.525   3.529   9.182  0.0470  0.5434  0.8440
19336SOL    HW162946   7.572   3.486   9.111 -2.6929 -0.5005 -0.4903
19336SOL    HW262947   7.591   3.541   9.251  2.2572 -0.5486 -0.9420
19337SOL     OW62948   3.749   5.272   0.602 -0.2738  0.6592 -0.0803
19337SOL    HW162949   3.787   5.295   0.517  1.3723  0.7873  0.6514
19337SOL    HW262950   3.797   5.192   0.628 -2.6626 -1.0115 -0.4867
19338SOL     OW62951   1.166  10.165   2.598 -0.7294  0.4558 -0.0503
19338SOL    HW162952   1.120  10.101   2.652  1.2682  1.0704  2.6295
19338SOL    HW262953   1.244  10.119   2.567  0.0362  1.1535  0.7770
19339SOL     OW62954   7.243   8.894  11.462 -0.2073  0.5531 -0.2893
19339SOL    HW162955   7.241   8.987  11.442 -0.4905  1.0898  1.9882
19339SOL    HW262956   7.173   8.856  11.410 -1.1581  1.8962 -0.0104
19340SOL     OW62957   9.446   9.848  10.047  0.1841  0.3817  0.1189
19340SOL    HW162958   9.524   9.795  10.059 -0.4493 -0.7523 -0.6190
19340SOL    HW262959   9.379   9.786  10.018 -0.5641  1.5948 -0.8374
19341SOL     OW62960   7.027   2.938  11.069  0.1865 -0.1454  0.1124
19341SOL    HW162961   7.104   2.882  11.070 -0.4297 -1.0299  1.2261
19341SOL    HW262962   7.047   3.009  11.130  0.2877 -0.1390  0.0705
19342SOL     OW62963   2.749  10.741   0.773  0.0050  0.6818 -0.4067
19342SOL    HW162964   2.812  10.747   0.702  0.8939 -1.3335  0.1426
19342SOL    HW262965   2.676  10.797   0.745  0.7653  0.7581 -2.4070
19343SOL     OW62966   5.297   3.344  10.423 -0.3458 -0.3289 -0.2444
19343SOL    HW162967   5.293   3.358  10.517  1.5128  1.0225 -0.3063
19343SOL    HW262968   5.210   3.370  10.391 -0.3057  1.3561  0.8874
19344SOL     OW62969   8.002   4.992   8.553 -0.2851  0.0107 -0.7416
19344SOL    HW162970   8.045   4.931   8.494  0.3730  0.1052 -0.3612
19344SOL    HW262971   7.972   4.937   8.626 -0.3875  0.0190 -0.7773
19345SOL     OW62972   0.346   7.520   8.313 -0.0888  0.3937  0.1949
19345SOL    HW162973   0.364   7.481   8.398 -2.0936 -2.1063 -0.3820
19345SOL    HW262974   0.374   7.453   8.250  0.6745  1.8738 -1.1087
19346SOL     OW62975   3.885   6.343   3.660  0.3687  0.5429 -0.5494
19346SOL    HW162976   3.812   6.282   3.647 -0.8320  1.5975  0.8630
19346SOL    HW262977   3.957   6.306   3.609 -0.3394 -1.9594  0.1536
19347SOL     OW62978   1.528   8.761   5.955  0.0122 -0.4761 -0.0070
19347SOL    HW162979   1.623   8.754   5.942  0.2014  1.1498  0.2783
19347SOL    HW262980   1.501   8.829   5.894 -0.4552  1.2027  1.9436
19348SOL     OW62981   5.848   9.675   5.572  0.5267  0.0309 -0.4551
19348SOL    HW162982   5.942   9.683   5.552  0.1035  0.8170 -2.4667
19348SOL    HW262983   5.815   9.615   5.505 -0.4321 -0.1619  0.1776
19349SOL     OW62984  11.406  10.600   3.826  0.3728 -0.6479 -0.3318
19349SOL    HW162985  11.468  10.600   3.899 -1.7688  0.8034  1.6054
19349SOL    HW262986  11.413  10.688   3.788 -2.4998  0.6633  1.8500
19350SOL     OW62987   5.682   5.646   0.595  0.2524  0.4511 -0.6852
19350SOL    HW162988   5.602   5.694   0.573 -1.3301 -1.2115  1.0322
19350SOL    HW262989   5.742   5.664   0.523 -1.0017  3.1948 -1.1566
19351SOL     OW62990   2.557  10.747   2.398  0.4913 -0.1790 -0.7349
19351SOL    HW162991   2.523  10.658   2.384  0.0093  0.0152 -0.8237
19351SOL    HW262992   2.488  10.804   2.363  0.4559  0.2458  0.0191
19352SOL     OW62993   9.103   4.811   7.396  0.2501  0.2862  0.0109
19352SOL    HW162994   9.082   4.798   7.489 -1.0463 -2.4525 -0.5426
19352SOL    HW262995   9.027   4.776   7.350  2.0880 -1.2364 -2.0851
19353SOL     OW62996   5.228  10.735   8.249 -0.0750 -0.0499  0.0963
19353SOL    HW162997   5.221  10.661   8.190 -1.5742 -1.0881  1.4895
19353SOL    HW262998   5.322  10.750   8.258  0.4250 -3.1057  1.3068
19354SOL     OW62999   4.304   5.537   5.824  0.0687 -0.3635  0.4040
19354SOL    HW163000   4.320   5.625   5.789  1.9079 -1.1311 -0.8889
19354SOL    HW263001   4.331   5.542   5.916 -4.7134  1.6546  2.0198
19355SOL     OW63002   6.223   5.831   1.614  0.3702  0.0179  0.4107
19355SOL    HW163003   6.237   5.875   1.530  2.0034  0.2295  0.7574
19355SOL    HW263004   6.199   5.742   1.591  2.5750 -0.4458 -0.3298
19356SOL     OW63005  10.327  10.861   3.565 -0.7359 -0.4689  0.4251
19356SOL    HW163006  10.331  10.918   3.643  1.1436  3.1873 -2.0391
19356SOL    HW263007  10.401  10.801   3.576  0.3102  0.8489  0.9218
19357SOL     OW63008   5.163   3.342   9.270 -0.5658  1.1656  0.3131
19357SOL    HW163009   5.222   3.325   9.343  1.8324 -1.0432 -1.8991
19357SOL    HW263010   5.148   3.437   9.272  0.5826  1.3626  2.7506
19358SOL     OW63011   2.587   2.521  11.340 -0.3633  0.4890  0.1614
19358SOL    HW163012   2.632   2.518  11.425 -0.2220  0.5562  0.0909
19358SOL    HW263013   2.531   2.444  11.339 -0.6207  0.6702  0.4568
19359SOL     OW63014  10.114   0.820  10.606 -0.1112 -0.0083 -0.2196
19359SOL    HW163015  10.183   0.757  10.583  1.3127  1.4865 -0.2379
19359SOL    HW263016  10.153   0.874  10.675 -0.5883  2.0346 -1.4878
19360SOL     OW63017   2.676   0.965   8.994 -0.1644  0.5589 -0.3748
19360SOL    HW163018   2.606   0.905   8.970  0.5955  0.1705 -1.7534
19360SOL    HW263019   2.735   0.913   9.049  0.5676 -0.0636 -1.6835
19361SOL     OW63020   4.795   8.102   7.229  0.4227  0.4092 -0.2625
19361SOL    HW163021   4.747   8.019   7.233  0.7416  0.2706  0.9975
19361SOL    HW263022   4.746   8.155   7.165 -0.3113 -0.4048 -0.3933
19362SOL     OW63023   4.808   6.283   5.934  0.1648  0.2081 -0.1411
19362SOL    HW163024   4.768   6.283   6.021  0.5434  2.6145  0.0823
19362SOL    HW263025   4.765   6.211   5.888 -2.8476  1.2823  0.7938
19363SOL     OW63026   8.384   3.151   1.826  0.0326 -0.2434  0.2716
19363SOL    HW163027   8.456   3.211   1.805 -0.3829  0.0835 -0.2462
19363SOL    HW263028   8.347   3.186   1.907 -0.6178  0.6037 -0.3646
19364SOL     OW63029  11.194   2.905   1.569  0.5014  0.4513  0.8058
19364SOL    HW163030  11.120   2.885   1.512  0.9290 -0.3217  0.5096
19364SOL    HW263031  11.165   2.981   1.620 -0.7251 -0.2188  1.1444
19365SOL     OW63032   0.871  10.415   1.847  0.2726  0.2401 -0.1390
19365SOL    HW163033   0.804  10.483   1.840  1.0187  1.1705  1.2809
19365SOL    HW263034   0.823  10.333   1.844 -0.6247  0.7785 -2.2486
19366SOL     OW63035   9.323   3.629   3.669  0.5227  0.1537  0.2198
19366SOL    HW163036   9.245   3.674   3.637  0.1024 -0.8269 -0.1823
19366SOL    HW263037   9.325   3.649   3.762  0.2317  0.8227  0.0911
19367SOL     OW63038   0.854   9.316   8.052 -0.3184 -0.6337 -0.5148
19367SOL    HW163039   0.867   9.221   8.040  0.0189 -0.7144  0.4581
19367SOL    HW263040   0.807   9.343   7.972 -0.8422 -1.7005 -0.5946
19368SOL     OW63041   8.627   7.688   6.694 -0.6035  0.0786 -0.1939
19368SOL    HW163042   8.650   7.614   6.751 -1.7518  0.1553  0.4044
19368SOL    HW263043   8.642   7.766   6.748 -1.3685  0.1691 -0.1017
19369SOL     OW63044   2.307   9.519  10.821 -0.7035  0.1629 -0.4247
19369SOL    HW163045   2.354   9.590  10.865  0.2243 -1.0251  0.5626
19369SOL    HW263046   2.277   9.462  10.892 -1.2064 -0.5724 -1.2087
19370SOL     OW63047   8.897   4.699   3.373 -0.1115  0.4341  0.4989
19370SOL    HW163048   8.835   4.631   3.398  1.5761 -1.4882 -0.2569
19370SOL    HW263049   8.944   4.719   3.455  0.1581 -0.1690  0.4968
19371SOL     OW63050   1.240   6.924   9.043 -0.2236 -0.6358 -0.4894
19371SOL    HW163051   1.252   6.938   8.949  0.6973  0.5977 -0.2051
19371SOL    HW263052   1.164   6.977   9.066 -0.0143 -0.3664 -0.4123
19372SOL     OW63053   8.347   4.177   0.194 -0.2240 -0.4675  0.6706
19372SOL    HW163054   8.422   4.121   0.171  0.0948  0.9619 -2.3099
19372SOL    HW263055   8.287   4.167   0.119 -1.3942  1.0955  1.3613
19373SOL     OW63056   1.727   1.859   1.015  0.6015 -0.2482 -0.2148
19373SOL    HW163057   1.780   1.793   1.059  0.0106 -0.0201  0.8681
19373SOL    HW263058   1.637   1.831   1.032  0.3596 -0.2113 -1.3863
19374SOL     OW63059   4.780   8.139  10.696  0.5379 -0.5143  0.1148
19374SOL    HW163060   4.842   8.083  10.648 -0.5590 -0.5861 -1.2568
19374SOL    HW263061   4.780   8.222  10.648  0.3820 -0.1366  0.7581
19375SOL     OW63062   4.106  11.643   4.447  0.4337 -0.2981 -0.7889
19375SOL    HW163063   4.022  11.689   4.451  0.4482 -0.2836 -0.6336
19375SOL    HW263064   4.083  11.553   4.423  0.1050 -0.9656  1.7596
19376SOL     OW63065   6.856   3.562   0.848 -0.0802  1.0310 -0.0748
19376SOL    HW163066   6.842   3.635   0.788 -0.8584  0.9798  0.0357
19376SOL    HW263067   6.846   3.599   0.935  0.6928  1.0284  0.0275
19377SOL     OW63068   3.885   8.185   1.227  0.4052  0.0141 -0.4039
19377SOL    HW163069   3.840   8.102   1.210  0.5965 -0.0218 -0.7383
19377SOL    HW263070   3.866   8.239   1.151 -0.2927  0.5362  0.1189
19378SOL     OW63071  11.373  10.397   2.004 -0.1682  0.1171  0.8502
19378SOL    HW163072  11.449  10.400   2.063  0.6457 -1.3327 -0.0710
19378SOL    HW263073  11.359  10.488   1.978  2.3182  0.2629 -0.2613
19379SOL     OW63074   1.839   5.023  10.378  0.0784  0.6912  0.3611
19379SOL    HW163075   1.892   5.014  10.300 -0.7891 -0.6409 -0.1148
19379SOL    HW263076   1.807   4.934  10.396 -1.9937  1.4185  0.5838
19380SOL     OW63077  11.018   9.363  10.771  0.1227  0.2125 -0.4180
19380SOL    HW163078  11.040   9.290  10.830  0.3959 -1.0009 -1.9520
19380SOL    HW263079  11.089   9.426  10.784 -0.0555  0.1819  0.8601
19381SOL     OW63080   9.985  10.597   9.370 -0.0330 -0.1299 -0.2231
19381SOL    HW163081  10.042  10.562   9.301  1.0122  0.3475  0.3756
19381SOL    HW263082   9.993  10.692   9.362  1.3384 -0.0640  1.5288
19382SOL     OW63083   4.285   8.895   9.917  0.2982  0.6567 -0.2550
19382SOL    HW163084   4.267   8.886  10.011 -0.0642 -2.1867 -0.5061
19382SOL    HW263085   4.198   8.898   9.877  0.4432  0.3337 -0.5925
19383SOL     OW63086   6.967  11.554   1.822  0.3279 -0.7606  0.4834
19383SOL    HW163087   6.958  11.523   1.912  0.4028  1.5196  1.3378
19383SOL    HW263088   6.895  11.510   1.775 -1.8836  0.5233  2.4223
19384SOL     OW63089   2.334  11.646   3.206 -0.5266 -0.8607  0.2610
19384SOL    HW163090   2.277  11.616   3.135 -0.0142 -0.6384 -0.2483
19384SOL    HW263091   2.274  11.660   3.280 -1.1322 -0.6534 -0.2580
19385SOL     OW63092   0.310   7.179   4.299  0.7901 -0.0280  0.0220
19385SOL    HW163093   0.376   7.111   4.287 -0.1141 -1.2917  1.7627
19385SOL    HW263094   0.258   7.149   4.374 -2.1291  0.5958 -1.6163
19386SOL     OW63095   5.751   1.328   9.018 -0.4822 -0.4273 -0.3920
19386SOL    HW163096   5.668   1.326   9.065  0.4425 -0.7047  1.2910
19386SOL    HW263097   5.780   1.236   9.015 -0.2114 -0.3335 -0.9479
19387SOL     OW63098   2.392   0.391   8.772  0.1577  0.4103 -0.8852
19387SOL    HW163099   2.349   0.439   8.843 -1.4345  0.3179 -1.7257
19387SOL    HW263100   2.416   0.307   8.810  2.9986  1.7751  0.6206
19388SOL     OW63101   3.332   1.312   3.629 -0.5235 -0.5027  0.0648
19388SOL    HW163102   3.335   1.254   3.705 -1.3307 -1.0999 -0.3398
19388SOL    HW263103   3.338   1.253   3.554 -0.2053  0.0400 -0.3416
19389SOL     OW63104   4.079   8.328   4.755  0.2244  0.2475 -0.1006
19389SOL    HW163105   4.081   8.411   4.707 -1.4140  0.1742 -0.3276
19389SOL    HW263106   4.152   8.335   4.818  0.1141  1.8503 -0.1152
19390SOL     OW63107   5.846   1.276  10.703  0.0385 -0.3846  0.5251
19390SOL    HW163108   5.808   1.363  10.693 -1.3244 -0.9935  0.1577
19390SOL    HW263109   5.796   1.237  10.775 -1.2523 -1.8180 -1.0806
19391SOL     OW63110   8.617  10.230   0.541  0.7452  0.3986  0.0477
19391SOL    HW163111   8.671  10.297   0.581  0.8556  1.9158 -2.4319
19391SOL    HW263112   8.533  10.237   0.586  1.6787 -0.0199  1.9559
19392SOL     OW63113   9.136   9.301   6.288 -0.5592  0.1540 -0.1988
19392SOL    HW163114   9.047   9.315   6.258 -0.4180  0.8551 -0.3218
19392SOL    HW263115   9.143   9.355   6.367  0.3831  1.8334 -1.3671
19393SOL     OW63116   6.875  10.857   0.603  0.4018 -0.2352 -0.2951
19393SOL    HW163117   6.906  10.767   0.615 -0.1211 -0.5619 -1.2360
19393SOL    HW263118   6.907  10.882   0.517 -0.3140  0.1047 -0.4699
19394SOL     OW63119   6.619   7.380   7.356 -0.1559 -0.0563  0.0467
19394SOL    HW163120   6.604   7.286   7.370  1.4153 -0.5437 -1.2237
19394SOL    HW263121   6.647   7.412   7.442 -0.2717 -0.8556  0.3964
19395SOL     OW63122   7.451  11.070   7.905 -0.1626  0.9776 -0.0957
19395SOL    HW163123   7.401  11.051   7.984 -0.0625 -0.3542 -0.3295
19395SOL    HW263124   7.542  11.069   7.934 -0.0871 -0.1314 -0.3188
19396SOL     OW63125   1.646   7.787   9.954  0.2293 -0.1666  0.3003
19396SOL    HW163126   1.660   7.868   9.905  2.0396 -0.8343 -0.3763
19396SOL    HW263127   1.606   7.727   9.891  0.1957 -0.2356  0.3867
19397SOL     OW63128   2.585   8.900  10.957  0.2432 -0.3806  0.0919
19397SOL    HW163129   2.511   8.854  10.995 -0.3979  0.5610  0.0163
19397SOL    HW263130   2.645   8.831  10.928 -0.0117 -1.1294  1.3009
19398SOL     OW63131   1.400   2.078   7.950  0.3808 -0.2062 -0.7282
19398SOL    HW163132   1.386   2.166   7.915 -1.0796 -0.4672 -0.8790
19398SOL    HW263133   1.373   2.020   7.879 -1.7836 -0.7464  0.4565
19399SOL     OW63134   0.516   2.763   6.949  0.4131 -0.4084 -0.7595
19399SOL    HW163135   0.436   2.788   6.996  0.8678 -1.2984  0.5391
19399SOL    HW263136   0.563   2.845   6.936 -0.3578  0.0258 -0.8639
19400SOL     OW63137   9.143   3.235   9.652  0.1459 -0.5436  0.2062
19400SOL    HW163138   9.193   3.230   9.733  1.1946  0.8832 -0.3116
19400SOL    HW263139   9.051   3.234   9.681  0.5008 -0.1462  1.4083
19401SOL     OW63140  11.545  11.052   4.090  0.6524  0.1218  0.1362
19401SOL    HW163141  11.572  11.094   4.172  0.2718 -0.3747  0.5199
19401SOL    HW263142  11.615  10.990   4.072  0.9477  0.5312 -0.1452
19402SOL     OW63143   4.326   6.725  10.993  0.2940 -0.1058 -0.2138
19402SOL    HW163144   4.310   6.793  10.929  1.1385 -1.6146 -2.1238
19402SOL    HW263145   4.255   6.662  10.979 -2.1390  1.5021  3.3768
19403SOL     OW63146   8.580   5.811   7.496 -0.3032  0.5374 -0.3054
19403SOL    HW163147   8.569   5.901   7.464  1.1127  0.3965 -1.2872
19403SOL    HW263148   8.655   5.815   7.555  0.9286 -0.2762 -1.7386
19404SOL     OW63149   4.286   3.140   8.475 -0.0368  0.2531 -0.3470
19404SOL    HW163150   4.209   3.182   8.513 -0.7310 -1.2404 -0.0439
19404SOL    HW263151   4.254   3.097   8.396  0.8585  1.0710 -1.1798
19405SOL     OW63152   0.894   5.427   6.245 -0.0542  0.0753  0.6001
19405SOL    HW163153   0.947   5.373   6.186  0.6369  0.3732  0.9384
19405SOL    HW263154   0.836   5.477   6.186  1.9732  1.8559 -0.0277
19406SOL     OW63155   4.963  11.547   3.088 -0.2857  0.2303  0.2496
19406SOL    HW163156   4.984  11.582   3.001  1.2780 -2.1262 -0.4097
19406SOL    HW263157   4.908  11.471   3.070 -0.3210 -0.0175  1.3642
19407SOL     OW63158   4.093   8.570   2.929  0.4541 -0.6244 -0.2349
19407SOL    HW163159   4.185   8.546   2.939  0.4999 -0.0831  0.7478
19407SOL    HW263160   4.053   8.495   2.884  0.9893 -1.6618  0.9706
19408SOL     OW63161   5.263   1.396   0.546 -0.5776  0.5950 -0.4268
19408SOL    HW163162   5.275   1.445   0.465  1.0122  0.4076 -0.3423
19408SOL    HW263163   5.319   1.441   0.610 -1.0707  0.1743  0.3158
19409SOL     OW63164  11.555  10.297   4.345 -0.1698  0.0004  0.1619
19409SOL    HW163165  11.647  10.323   4.354 -0.0915 -0.2684  0.1564
19409SOL    HW263166  11.505  10.377   4.359  0.1558  0.8048 -2.5719
19410SOL     OW63167  10.278   8.518   7.151  0.2159  0.0594  0.7489
19410SOL    HW163168  10.243   8.551   7.234  0.3436 -0.2809  0.9407
19410SOL    HW263169  10.369   8.496   7.170 -0.6443 -3.4436  1.5512
19411SOL     OW63170  10.568   6.237   4.726 -0.1771 -0.0723 -0.6334
19411SOL    HW163171  10.522   6.315   4.693 -0.9361  0.3704  1.3310
19411SOL    HW263172  10.539   6.166   4.668  0.2926  1.0082 -2.2727
19412SOL     OW63173   0.055  10.707  10.345  0.9950  0.1170  0.1210
19412SOL    HW163174   0.077  10.616  10.325 -0.2704 -0.9383  2.9227
19412SOL    HW263175   0.032  10.746  10.261  1.5186 -2.1685 -1.1607
19413SOL     OW63176  10.928   1.038   3.083  0.1050 -0.3416  0.6930
19413SOL    HW163177  10.982   0.965   3.053 -0.1856 -0.9305  1.5303
19413SOL    HW263178  10.845   0.997   3.110 -0.8264  0.5530 -0.6863
19414SOL     OW63179  11.215   6.182   2.901 -0.6728  0.0430 -0.2510
19414SOL    HW163180  11.176   6.145   2.821  1.0121 -0.3615 -0.9239
19414SOL    HW263181  11.226   6.275   2.881 -0.4032 -0.0278 -0.4441
19415SOL     OW63182  10.080   9.035   3.284 -0.3081 -0.2825  0.9238
19415SOL    HW163183  10.028   8.991   3.217  1.6644 -0.6412 -0.4691
19415SOL    HW263184  10.170   9.026   3.253  0.4969  1.2991  2.6460
19416SOL     OW63185  11.344   4.171   4.813  0.3514  0.5052  0.0107
19416SOL    HW163186  11.320   4.231   4.883  1.2083  1.3923 -0.4188
19416SOL    HW263187  11.434   4.196   4.791  0.3012 -0.1519 -0.9935
19417SOL     OW63188  10.416   5.592  10.761 -0.3794 -0.0821  0.0904
19417SOL    HW163189  10.452   5.511  10.797 -1.1368 -0.3486  0.2685
19417SOL    HW263190  10.445   5.660  10.821 -0.6282 -0.3642  0.5392
19418SOL     OW63191   8.647   2.195   6.899 -0.6320 -0.7782  0.4154
19418SOL    HW163192   8.712   2.129   6.926  1.8695  1.2464 -0.2382
19418SOL    HW263193   8.641   2.254   6.974 -0.1586  0.1278 -0.2351
19419SOL     OW63194   4.860   2.680   6.490 -0.3159 -0.2071  0.5934
19419SOL    HW163195   4.801   2.624   6.440 -3.3204  0.6222  2.8272
19419SOL    HW263196   4.882   2.752   6.430  0.8665 -1.9747 -1.2069
19420SOL     OW63197   2.391   1.481   2.003  0.3744 -0.5212 -0.3572
19420SOL    HW163198   2.444   1.475   1.924 -1.2861 -0.2888 -1.5344
19420SOL    HW263199   2.381   1.390   2.032  2.4352 -0.5055  0.6762
19421SOL     OW63200   1.200   1.385   2.932  0.1269  0.3318 -0.0338
19421SOL    HW163201   1.259   1.329   2.881 -0.7883 -0.7721  0.0625
19421SOL    HW263202   1.113   1.366   2.897 -0.2045  1.7954 -0.0553
19422SOL     OW63203  10.001   9.393   2.234  0.5604  0.0510  0.0119
19422SOL    HW163204  10.065   9.438   2.179  1.4368 -1.4775 -0.2904
19422SOL    HW263205  10.011   9.433   2.320  0.5196  1.1600 -0.4764
19423SOL     OW63206   5.858   2.050   7.660  0.2821  0.0204  0.0877
19423SOL    HW163207   5.814   2.121   7.706 -0.2404  0.1764 -0.6295
19423SOL    HW263208   5.949   2.079   7.650  0.1263  0.4800  0.0104
19424SOL     OW63209  10.877  11.682   3.998 -0.0155 -0.4593  0.5534
19424SOL    HW163210  10.952  11.699   4.055  1.3344  0.2815 -1.3257
19424SOL    HW263211  10.845  11.769   3.975  0.4974 -0.6715 -1.0731
19425SOL     OW63212   0.003  11.416   0.362  0.3772  0.4033 -0.1745
19425SOL    HW163213  -0.042  11.363   0.428  0.0898  0.0945 -0.6147
19425SOL    HW263214   0.058  11.476   0.413  1.4872 -0.9869  0.3351
19426SOL     OW63215   9.334   2.506   8.525 -0.2716  0.1859 -0.3633
19426SOL    HW163216   9.296   2.460   8.450  1.0202 -0.7307 -0.4736
19426SOL    HW263217   9.275   2.485   8.597 -0.0069 -1.2306 -0.5265
19427SOL     OW63218   0.134   3.690   7.207  0.4486  0.1213  0.0361
19427SOL    HW163219   0.218   3.719   7.173  0.4684  1.2493  1.0175
19427SOL    HW263220   0.137   3.711   7.300 -0.2977 -1.3004  0.4078
19428SOL     OW63221   0.170   4.737   4.314  0.1712  0.4052 -0.1212
19428SOL    HW163222   0.119   4.807   4.272  0.2835  0.6933  0.2117
19428SOL    HW263223   0.223   4.700   4.244  0.8151  1.2918 -0.1219
19429SOL     OW63224   7.706   9.769   2.769  0.1506 -0.0909 -0.2824
19429SOL    HW163225   7.769   9.740   2.835  0.2758 -0.0436 -0.3806
19429SOL    HW263226   7.677   9.855   2.800  0.5611  0.1378 -0.5332
19430SOL     OW63227   7.178  11.129  11.573 -0.0112 -0.6218 -0.2696
19430SOL    HW163228   7.274  11.125  11.583 -0.0817 -0.1402  0.6969
19430SOL    HW263229   7.153  11.040  11.547  0.5223 -1.2403  1.2137
19431SOL     OW63230   6.706   0.971  10.432 -0.1847  0.0207 -0.6002
19431SOL    HW163231   6.628   0.921  10.407 -0.6886  0.1820  0.5550
19431SOL    HW263232   6.742   0.922  10.506  1.1116 -0.3240 -1.4421
19432SOL     OW63233   5.222   0.345   8.222  0.6717 -0.2454  0.2109
19432SOL    HW163234   5.291   0.409   8.237 -0.1143  0.5865  0.3934
19432SOL    HW263235   5.148   0.397   8.190  0.0351 -1.0713  0.3060
19433SOL     OW63236   9.836   9.970   3.681  0.2176  0.1381 -0.1473
19433SOL    HW163237   9.821  10.047   3.626  0.9258 -0.7586 -1.6509
19433SOL    HW263238   9.905   9.921   3.636 -1.3853 -2.2691 -0.1838
19434SOL     OW63239   8.013   1.737   4.391 -0.8903 -0.2543  0.2591
19434SOL    HW163240   7.976   1.662   4.345 -0.6850 -0.2383  0.0681
19434SOL    HW263241   8.082   1.769   4.334 -0.0090 -0.8037  1.0027
19435SOL     OW63242  10.202   8.450   4.263 -0.5753  0.0952 -0.7085
19435SOL    HW163243  10.274   8.412   4.313 -0.0655  2.3051  0.3693
19435SOL    HW263244  10.193   8.394   4.186  2.6896  0.0476 -1.1835
19436SOL     OW63245   7.632   6.236   8.743 -0.4544 -0.0641 -0.2826
19436SOL    HW163246   7.651   6.154   8.789 -1.0526 -1.3628 -2.1920
19436SOL    HW263247   7.544   6.259   8.773  0.3211  0.8076  1.4651
19437SOL     OW63248  10.118   7.480   9.089 -0.1165  0.2291 -0.3406
19437SOL    HW163249  10.048   7.522   9.139 -0.3597 -0.9559  0.3276
19437SOL    HW263250  10.113   7.388   9.112  0.2510 -0.2328 -1.9966
19438SOL     OW63251   0.772   4.753   2.899 -0.5757  0.2153 -0.1267
19438SOL    HW163252   0.868   4.764   2.899 -0.4833 -0.2697 -1.6817
19438SOL    HW263253   0.744   4.784   2.985  1.1550 -1.2576  1.0480
19439SOL     OW63254   4.936   3.114   9.976  0.4788 -0.2852 -0.3886
19439SOL    HW163255   4.852   3.161   9.974  0.2650 -0.6857 -1.2159
19439SOL    HW263256   4.953   3.100  10.069 -0.0988  0.2848 -0.1855
19440SOL     OW63257   5.100   6.206   3.531 -0.1063  0.8867  0.3403
19440SOL    HW163258   5.034   6.205   3.600 -0.8264  1.4617 -0.3176
19440SOL    HW263259   5.105   6.298   3.504 -1.7680  0.3493 -2.1511
19441SOL     OW63260   9.011   3.609   1.858 -0.2170 -0.0772 -0.2515
19441SOL    HW163261   8.919   3.594   1.878 -0.7912  0.2275 -2.5130
19441SOL    HW263262   9.013   3.633   1.766  1.9838  1.4244  0.1126
19442SOL     OW63263   5.865   5.439   2.801 -0.0154  0.3063 -0.1710
19442SOL    HW163264   5.874   5.473   2.712  1.3926  2.3964  0.6939
19442SOL    HW263265   5.892   5.512   2.858  0.4633 -1.3954  1.9259
19443SOL     OW63266   7.293   9.699   0.354  0.4067  0.3049  0.5479
19443SOL    HW163267   7.218   9.658   0.310  0.9373  0.3947 -0.4661
19443SOL    HW263268   7.361   9.703   0.287  0.7533  1.7949  0.9549
19444SOL     OW63269  10.393  10.159   6.107 -0.4245 -0.1412 -0.2637
19444SOL    HW163270  10.382  10.113   6.190  2.5144 -1.0105 -0.2327
19444SOL    HW263271  10.379  10.251   6.129  0.2634 -0.3600  1.1983
19445SOL     OW63272   8.939   1.230   3.250  0.3484 -0.1543  0.1538
19445SOL    HW163273   8.966   1.321   3.261  0.1386  0.1061 -1.3425
19445SOL    HW263274   8.871   1.218   3.316  1.1164  0.4388  1.0879
19446SOL     OW63275   1.288   5.225   4.101  0.7385  0.0936 -0.2362
19446SOL    HW163276   1.327   5.275   4.173  0.3793 -0.8878  0.6653
19446SOL    HW263277   1.197   5.213   4.128  0.4954  0.0817 -1.0609
19447SOL     OW63278   4.670   0.856   0.312 -0.0376 -0.0794 -0.0659
19447SOL    HW163279   4.665   0.770   0.271 -0.4311  0.1732 -0.5721
19447SOL    HW263280   4.704   0.913   0.243  1.4698 -0.0603  0.6552
19448SOL     OW63281   5.456   9.888   1.934  0.0373  0.1220  0.6401
19448SOL    HW163282   5.481   9.967   1.886 -0.3501 -0.1264  0.0153
19448SOL    HW263283   5.363   9.898   1.950 -0.0018 -0.1809  0.6103
19449SOL     OW63284   0.117   0.103   9.562 -0.1511  0.6421  0.1197
19449SOL    HW163285   0.032   0.149   9.567 -0.5499 -0.1413  0.8507
19449SOL    HW263286   0.096   0.019   9.523  0.4262  0.7280 -0.3733
19450SOL     OW63287   8.686   6.515   2.533 -0.0038 -0.2054  0.0426
19450SOL    HW163288   8.590   6.514   2.527 -0.1666  1.1897  1.4535
19450SOL    HW263289   8.712   6.589   2.478  0.0249  0.8686  1.4352
19451SOL     OW63290   2.487   2.030   9.272 -0.4686  0.3129  0.4999
19451SOL    HW163291   2.495   2.020   9.177  0.5897  0.6440  0.5458
19451SOL    HW263292   2.418   1.968   9.297 -0.2131 -0.3415 -0.3831
19452SOL     OW63293   3.548   1.148   5.724  0.0496  0.0815  0.1147
19452SOL    HW163294   3.636   1.148   5.761 -0.8624  0.2095  2.4695
19452SOL    HW263295   3.555   1.204   5.647  1.7673  1.1978  0.9985
19453SOL     OW63296   0.484   2.127   1.115  0.0455 -0.0190  0.6056
19453SOL    HW163297   0.474   2.170   1.030  0.7170  1.0317  1.0342
19453SOL    HW263298   0.523   2.042   1.094 -1.0200 -0.3224 -0.2382
19454SOL     OW63299   8.435   5.670   8.011 -0.0953 -0.1829 -0.0501
19454SOL    HW163300   8.401   5.581   8.008  0.8650 -0.5632  0.1098
19454SOL    HW263301   8.515   5.667   7.958  0.7568  0.2117  1.1840
19455SOL     OW63302   1.572  10.800   1.170  0.5312 -0.1220  0.0856
19455SOL    HW163303   1.527  10.869   1.122 -1.2133 -0.3625  1.2667
19455SOL    HW263304   1.582  10.728   1.107  0.4345  0.4158 -0.5489
19456SOL     OW63305   3.922   5.019   7.150  0.1535  1.1866  0.8051
19456SOL    HW163306   3.956   4.980   7.230  1.2932  0.0318 -0.1730
19456SOL    HW263307   3.943   5.112   7.157  0.5843  1.0298  1.6771
19457SOL     OW63308   8.735   1.624   5.051 -0.1777  0.3991 -0.5137
19457SOL    HW163309   8.748   1.582   4.966  1.0925  1.4774 -0.8817
19457SOL    HW263310   8.798   1.581   5.109 -1.5112 -0.8146  0.0934
19458SOL     OW63311   5.674   1.877   5.198 -0.3149  0.2455  0.4864
19458SOL    HW163312   5.597   1.890   5.253  0.0340 -0.1883  1.1014
19458SOL    HW263313   5.733   1.824   5.252  0.4747  0.6952  0.0917
19459SOL     OW63314   5.585   0.067   5.628 -0.0694  0.3094  0.1739
19459SOL    HW163315   5.640   0.017   5.568  0.6285  0.3181  0.7921
19459SOL    HW263316   5.495   0.052   5.597  0.3366  1.3958 -1.6829
19460SOL     OW63317   7.568   5.303   6.205  0.5347  0.1282 -0.4813
19460SOL    HW163318   7.549   5.362   6.132  0.3305 -2.7723 -2.9738
19460SOL    HW263319   7.658   5.324   6.230  0.8047  0.8674 -1.9568
19461SOL     OW63320   5.278   0.142  11.246  0.7081 -0.3516  0.1302
19461SOL    HW163321   5.197   0.177  11.209 -0.2087 -0.6796  1.7251
19461SOL    HW263322   5.333   0.218  11.263  0.1779  0.0034  0.2695
19462SOL     OW63323   1.653   9.575   5.876 -0.4669 -0.0799 -0.4120
19462SOL    HW163324   1.698   9.653   5.842 -0.7756  1.2875  2.0231
19462SOL    HW263325   1.697   9.557   5.959 -1.7088 -1.2908  0.0146
19463SOL     OW63326   1.687   2.320   7.649  0.3859  0.0635 -0.4117
19463SOL    HW163327   1.764   2.330   7.593  0.5538 -0.5771 -0.3069
19463SOL    HW263328   1.697   2.233   7.688 -0.6380 -0.2314 -0.7642
19464SOL     OW63329   2.880  10.906   5.938 -0.1220  0.4661  0.2262
19464SOL    HW163330   2.931  10.961   5.878  1.5245  1.3631  2.3115
19464SOL    HW263331   2.942  10.882   6.006 -1.5908 -1.5991  0.9178
19465SOL     OW63332   0.887   7.183   5.526  0.2473 -0.0232 -0.1247
19465SOL    HW163333   0.809   7.202   5.473 -0.2305 -2.3622 -0.3696
19465SOL    HW263334   0.955   7.238   5.488 -1.0941  1.5701 -0.3564
19466SOL     OW63335   1.493   1.803   5.492 -0.4828 -0.0564  0.3488
19466SOL    HW163336   1.495   1.808   5.587  0.2858  2.2590  0.2914
19466SOL    HW263337   1.401   1.790   5.470 -0.7941  0.3061  1.3946
19467SOL     OW63338   0.408   7.530  10.044  0.3010  0.0922 -0.6657
19467SOL    HW163339   0.475   7.581  10.090 -0.2546 -0.7630  1.2199
19467SOL    HW263340   0.325   7.559  10.083 -0.1879 -0.7132 -1.0757
19468SOL     OW63341  10.492   2.129  10.990 -0.3750  0.3927 -0.1783
19468SOL    HW163342  10.439   2.178  11.053  0.3406  1.5388 -0.4320
19468SOL    HW263343  10.434   2.059  10.960 -1.5041  1.1770  0.0789
19469SOL     OW63344   1.189   6.934   6.990 -0.3721  0.5056 -0.3514
19469SOL    HW163345   1.212   6.993   7.062  0.3688 -0.0254 -0.1434
19469SOL    HW263346   1.200   6.987   6.911  1.1908  0.3937 -0.2275
19470SOL     OW63347   1.161   2.232   4.790  0.0342 -0.4728  0.2087
19470SOL    HW163348   1.190   2.200   4.704  0.2325 -1.8827  0.7741
19470SOL    HW263349   1.144   2.153   4.841 -1.1432  0.3367  1.1385
19471SOL     OW63350   9.660   2.377   0.535  0.2168  0.2374 -0.5279
19471SOL    HW163351   9.735   2.404   0.589 -0.8677  1.5393  0.4087
19471SOL    HW263352   9.666   2.431   0.457 -0.7512  1.7287  0.3869
19472SOL     OW63353  11.257   4.692   8.782 -0.0738 -0.1687  0.1694
19472SOL    HW163354  11.256   4.602   8.814  0.6798 -1.0973 -2.1878
19472SOL    HW263355  11.344   4.725   8.806 -0.1459 -0.2544  0.5522
19473SOL     OW63356   0.755   5.801   2.379 -0.0135  0.1179  0.0768
19473SOL    HW163357   0.813   5.769   2.310 -0.4926 -2.5206  0.8080
19473SOL    HW263358   0.808   5.797   2.459 -0.0018  1.5388  0.1727
19474SOL     OW63359   6.220   0.965   7.628  0.3107 -0.2464 -0.3214
19474SOL    HW163360   6.160   0.936   7.697 -0.5441 -0.0065 -0.9556
19474SOL    HW263361   6.305   0.970   7.672 -0.3961  0.9331  0.9931
19475SOL     OW63362   9.801  11.068   1.669  0.5552 -0.0726  0.3459
19475SOL    HW163363   9.817  11.095   1.578  2.2558 -1.6083  0.1339
19475SOL    HW263364   9.771  11.147   1.713  0.0954  0.8027 -1.4592
19476SOL     OW63365   4.682   7.416   6.106 -0.1554 -0.4993 -0.2638
19476SOL    HW163366   4.673   7.380   6.194  0.7952 -0.7155 -0.2525
19476SOL    HW263367   4.687   7.511   6.120  0.2507 -0.5486 -0.0630
19477SOL     OW63368   7.776   7.688   3.027  0.2843  0.4371 -1.3491
19477SOL    HW163369   7.820   7.768   3.000  2.2557  0.1233  0.6036
19477SOL    HW263370   7.848   7.627   3.046 -0.9388 -0.1088  2.0961
19478SOL     OW63371   0.323  10.262   7.229 -0.0744 -0.2993 -0.0258
19478SOL    HW163372   0.369  10.229   7.152 -2.3691 -1.6994 -0.9195
19478SOL    HW263373   0.296  10.183   7.276 -3.8035  0.1906 -1.0110
19479SOL     OW63374   0.021   1.868   4.636  0.2143  0.0391 -0.0198
19479SOL    HW163375   0.041   1.842   4.546  1.7612 -2.7034  0.9720
19479SOL    HW263376   0.072   1.948   4.649  1.6023 -0.6291 -1.0180
19480SOL     OW63377   5.698   7.268   4.615 -0.0860  0.2150 -0.3170
19480SOL    HW163378   5.735   7.182   4.632 -0.1163 -0.0450 -1.5262
19480SOL    HW263379   5.622   7.252   4.560  0.8402  1.1044 -1.9387
19481SOL     OW63380   9.037   0.133   3.018  0.5826 -0.5736 -0.3715
19481SOL    HW163381   8.997   0.134   2.931 -0.1956 -0.0217 -0.0197
19481SOL    HW263382   8.972   0.173   3.075  1.9213  1.0927  0.0876
19482SOL     OW63383   0.175  10.873  10.705  0.0801  0.6828 -0.0672
19482SOL    HW163384   0.233  10.869  10.629 -1.1571  1.3041 -1.0870
19482SOL    HW263385   0.087  10.878  10.668 -0.5560  1.0816  1.4106
19483SOL     OW63386   1.701   3.055   5.828 -0.3340 -0.4047  0.1323
19483SOL    HW163387   1.692   3.149   5.840 -0.0336 -0.3061 -0.3927
19483SOL    HW263388   1.781   3.032   5.875  1.8159  0.2600 -2.8795
19484SOL     OW63389   2.110   9.045  10.442  0.0202 -0.4645  0.2088
19484SOL    HW163390   2.185   8.994  10.475 -0.6119 -0.5588  1.5581
19484SOL    HW263391   2.128   9.135  10.470  0.6350 -0.0917 -1.2925
19485SOL     OW63392   0.374  11.557   6.874 -0.0884 -0.4152  0.8879
19485SOL    HW163393   0.340  11.604   6.950  1.3786 -0.6305  1.7328
19485SOL    HW263394   0.310  11.572   6.805 -0.7906  0.9246  1.7875
19486SOL     OW63395   0.987   3.430   7.502  0.6698  0.4430  0.0764
19486SOL    HW163396   0.994   3.487   7.578  0.3213  1.1960 -0.4381
19486SOL    HW263397   1.041   3.473   7.435  2.9163 -1.4383  0.5818
19487SOL     OW63398   5.270  10.471   8.456 -0.7495  0.9617  0.0746
19487SOL    HW163399   5.306  10.509   8.377  0.9707  0.7450  0.7221
19487SOL    HW263400   5.240  10.384   8.429  0.2065  0.7276 -0.2586
19488SOL     OW63401   7.923   5.787   4.804 -0.2596  0.6069  0.1776
19488SOL    HW163402   7.918   5.745   4.890 -0.0385  1.1628  0.4641
19488SOL    HW263403   7.987   5.857   4.814 -0.3789  0.8086 -0.3868
19489SOL     OW63404   4.432   2.794   7.938  0.4753  0.2487 -0.0846
19489SOL    HW163405   4.446   2.711   7.984 -1.4571  0.2425  0.5444
19489SOL    HW263406   4.338   2.808   7.941  0.6128  1.7614 -1.4582
19490SOL     OW63407   3.965   0.282   7.811 -0.0689 -0.2015 -0.2340
19490SOL    HW163408   3.996   0.295   7.901  2.3732 -0.4881 -0.9583
19490SOL    HW263409   3.902   0.353   7.796  0.5829  0.7162  1.2255
19491SOL     OW63410   8.564  11.031   2.553  0.2934 -0.4050  0.4608
19491SOL    HW163411   8.512  10.993   2.482  0.2242  1.3901 -0.5290
19491SOL    HW263412   8.511  11.105   2.585  1.6625  0.7263  0.2435
19492SOL     OW63413  10.696   6.401   9.926  0.3544  0.6612  0.4279
19492SOL    HW163414  10.656   6.314   9.930 -0.5108  0.9976 -0.7306
19492SOL    HW263415  10.754   6.403  10.003 -1.4073 -0.0392  1.8552
19493SOL     OW63416   0.284  10.897   1.923  0.3179 -0.0556 -0.1051
19493SOL    HW163417   0.349  10.968   1.917 -0.7714  1.0138  0.3410
19493SOL    HW263418   0.327  10.830   1.976  2.2638 -0.7986 -2.4446
19494SOL     OW63419   1.095   3.511   8.904  0.4062  0.6901  0.7936
19494SOL    HW163420   1.057   3.599   8.896 -0.9054  0.2306  1.5201
19494SOL    HW263421   1.022   3.457   8.935  1.1842 -0.6652  0.3261
19495SOL     OW63422   6.013   0.249   5.676 -0.5553 -0.5567 -0.7313
19495SOL    HW163423   5.945   0.197   5.719 -0.8557  0.4357  0.0381
19495SOL    HW263424   5.973   0.280   5.596 -1.1171  0.2375 -0.1555
19496SOL     OW63425   8.264   2.787  11.430 -0.2884  0.0485  0.3106
19496SOL    HW163426   8.316   2.712  11.399 -1.2076 -0.6016  0.3084
19496SOL    HW263427   8.253   2.841  11.352 -0.3650 -0.2633  0.1003
19497SOL     OW63428   7.149  10.189  10.373  0.5892 -0.2090 -0.5663
19497SOL    HW163429   7.055  10.170  10.373  0.3377  0.7489  1.6142
19497SOL    HW263430   7.191  10.107  10.398  0.1300 -0.0740  0.7197
19498SOL     OW63431   1.158   9.407  10.219  0.0982 -0.0137  0.0050
19498SOL    HW163432   1.136   9.317  10.243  0.2458  0.0993  0.5989
19498SOL    HW263433   1.251   9.405  10.199 -0.4573 -0.5855 -2.9633
19499SOL     OW63434   5.130   3.392  10.117  0.0913  0.4531  0.1615
19499SOL    HW163435   5.225   3.398  10.123  0.0108  0.0036  3.0253
19499SOL    HW263436   5.098   3.414  10.205 -2.6510  3.1519 -1.2974
19500SOL     OW63437   9.479   3.901   3.819 -0.2471  0.1948 -0.2208
19500SOL    HW163438   9.563   3.918   3.775 -0.7809  0.4826 -1.1473
19500SOL    HW263439   9.413   3.927   3.755 -1.0451  0.5948  0.7463
19501SOL     OW63440   4.460   3.185   8.925 -0.5769 -0.8083  0.2907
19501SOL    HW163441   4.529   3.159   8.986 -0.2585  1.0096  0.7444
19501SOL    HW263442   4.482   3.138   8.844  1.3791 -0.0632  0.3340
19502SOL     OW63443   8.190   8.990   7.510  1.3190 -0.2259 -0.3291
19502SOL    HW163444   8.133   9.026   7.442 -0.0111  1.8767  1.7488
19502SOL    HW263445   8.237   9.065   7.544  1.7399 -1.1618  1.2470
19503SOL     OW63446   7.296  10.360   2.687  0.1150 -0.0789 -0.2243
19503SOL    HW163447   7.260  10.429   2.632 -0.3377 -0.5166 -0.4824
19503SOL    HW263448   7.234  10.352   2.759  0.4384  0.1363  0.0818
19504SOL     OW63449  10.735   2.979   4.661 -0.1403  0.3840 -0.2124
19504SOL    HW163450  10.662   2.971   4.600 -0.2591  0.2409 -0.0512
19504SOL    HW263451  10.726   2.904   4.720 -0.5294  0.9818  0.5125
19505SOL     OW63452   5.518   2.475  10.925  0.0631  0.5846 -0.5693
19505SOL    HW163453   5.561   2.470  11.010  0.5577  1.0479 -0.7849
19505SOL    HW263454   5.428   2.447  10.941  0.7260 -1.6160 -0.3255
19506SOL     OW63455  10.402   2.064  11.654 -0.2384  0.1559 -1.1106
19506SOL    HW163456  10.351   2.006  11.711 -0.1699  0.5086 -0.6824
19506SOL    HW263457  10.423   2.139  11.709 -1.7790  1.3928 -2.1158
19507SOL     OW63458   9.610   3.812   6.001 -0.1384  0.1718 -0.0445
19507SOL    HW163459   9.586   3.864   5.924 -1.9160 -0.0566  0.2992
19507SOL    HW263460   9.593   3.722   5.975  2.0801 -0.2073 -0.3384
19508SOL     OW63461   0.120  10.929   5.305  0.5215  0.0728 -0.0992
19508SOL    HW163462   0.146  10.960   5.219 -1.1148 -0.3294 -0.7711
19508SOL    HW263463   0.091  11.007   5.352 -0.4770  0.0424 -0.6365
19509SOL     OW63464   6.036   3.281   3.895  0.1323  0.2061 -0.3408
19509SOL    HW163465   6.034   3.208   3.958 -0.0310  0.1211 -0.4448
19509SOL    HW263466   6.094   3.346   3.936  1.1411 -0.4200 -0.7186
19510SOL     OW63467   6.702   9.941   0.567 -0.1307 -0.1305  0.4130
19510SOL    HW163468   6.687   9.938   0.661 -0.2876  1.8773  0.4835
19510SOL    HW263469   6.737  10.029   0.550  1.4200 -0.9768 -1.1976
19511SOL     OW63470   3.966   1.646   3.778 -0.1386 -0.0699  0.5685
19511SOL    HW163471   3.913   1.574   3.745  2.0042 -0.7051 -1.7861
19511SOL    HW263472   4.033   1.604   3.833  0.9269  0.1141 -0.5535
19512SOL     OW63473   8.005  10.173  10.868  0.4930  0.1518  0.0421
19512SOL    HW163474   8.014  10.085  10.904 -0.2764 -0.3671 -0.9650
19512SOL    HW263475   8.010  10.231  10.944 -0.0196 -0.8239  0.8511
19513SOL     OW63476   8.388  11.083   5.552 -0.1497  0.4939 -0.1234
19513SOL    HW163477   8.342  11.083   5.468  0.5280 -3.1859 -0.6544
19513SOL    HW263478   8.477  11.110   5.530 -0.7775  3.0771  0.1408
19514SOL     OW63479   0.794   0.192   2.875 -0.2157 -0.1609  0.5087
19514SOL    HW163480   0.844   0.185   2.956 -0.7306  1.1027  0.9726
19514SOL    HW263481   0.723   0.252   2.897  0.1911  0.9857 -1.1203
19515SOL     OW63482   9.202   8.255   2.196  0.2160 -0.4336  0.2092
19515SOL    HW163483   9.193   8.348   2.176  0.3953 -0.2729  0.8811
19515SOL    HW263484   9.278   8.227   2.145  0.8597  0.0484  0.8853
19516SOL     OW63485   1.277   8.233   3.017  0.3729  0.2533 -0.1996
19516SOL    HW163486   1.262   8.321   2.984 -0.1027  0.6752  1.0988
19516SOL    HW263487   1.195   8.186   3.000 -0.4317  0.9016  1.6700
19517SOL     OW63488   5.610   4.546   7.132  0.4723 -0.1113 -0.3755
19517SOL    HW163489   5.612   4.630   7.177 -0.4951  0.8358 -1.9935
19517SOL    HW263490   5.601   4.481   7.202  3.2210  0.9161  1.0903
19518SOL     OW63491   8.438   5.232   2.395 -0.3054 -0.3301  0.7103
19518SOL    HW163492   8.347   5.206   2.409  0.0706 -2.3690 -0.1604
19518SOL    HW263493   8.441   5.259   2.303 -0.3398  1.3948  1.1783
19519SOL     OW63494   9.438   3.904   6.486  0.3940 -0.4248 -0.0323
19519SOL    HW163495   9.458   3.816   6.517  1.5517 -0.3462 -0.5095
19519SOL    HW263496   9.449   3.899   6.391 -1.6004 -0.2782 -0.3133
19520SOL     OW63497   5.792   8.984  10.756  0.0900  0.3358 -0.7618
19520SOL    HW163498   5.756   9.066  10.721  1.1336  0.2806 -2.0180
19520SOL    HW263499   5.881   9.007  10.782 -0.4136  0.1878  1.2537
19521SOL     OW63500   6.451  11.001  10.508  0.2487  0.4278 -0.1955
19521SOL    HW163501   6.399  10.921  10.509  0.5824  0.0940 -2.7958
19521SOL    HW263502   6.490  11.003  10.421  2.3497  2.1151  0.7005
19522SOL     OW63503  10.826   9.749   1.956 -0.3838 -0.7996 -0.1942
19522SOL    HW163504  10.826   9.660   1.921 -2.4149 -1.9390  2.3749
19522SOL    HW263505  10.733   9.772   1.962 -0.0193  0.4011  1.6963
19523SOL     OW63506  11.280   4.369  11.289 -0.8719  0.0762  0.3740
19523SOL    HW163507  11.338   4.301  11.322 -0.9614 -0.4557 -0.5402
19523SOL    HW263508  11.214   4.323  11.239 -0.5372  0.8748 -0.8511
19524SOL     OW63509   4.378   5.656   1.249  0.6212  0.6022 -0.0493
19524SOL    HW163510   4.388   5.727   1.312 -1.8754  0.6677  0.3548
19524SOL    HW263511   4.332   5.587   1.297  1.6174 -0.6914 -0.8857
19525SOL     OW63512   3.132   5.376   9.992  0.2249 -0.0279 -0.1924
19525SOL    HW163513   3.156   5.462   9.957 -0.6461  0.3044  0.0227
19525SOL    HW263514   3.075   5.395  10.066 -0.6023 -0.8047 -0.6146
19526SOL     OW63515  10.480   2.586  11.659 -0.1048 -0.0614  0.1857
19526SOL    HW163516  10.568   2.571  11.624 -1.0570  0.0789 -2.5023
19526SOL    HW263517  10.488   2.666  11.711  1.2722  0.2424 -0.4577
19527SOL     OW63518   2.189   9.556   7.280 -0.2561  0.1373 -0.0885
19527SOL    HW163519   2.221   9.472   7.313  0.3323  0.4541  0.1661
19527SOL    HW263520   2.268   9.605   7.259 -0.5226  1.2919  1.4170
19528SOL     OW63521   7.534   9.052   2.921  0.6632 -0.3639 -0.1412
19528SOL    HW163522   7.573   8.965   2.930 -1.0602 -1.1358  0.2529
19528SOL    HW263523   7.526   9.065   2.826 -2.3669 -2.2784 -0.2862
19529SOL     OW63524  10.393   2.162   9.605 -0.4185 -0.0797 -0.5450
19529SOL    HW163525  10.468   2.187   9.550 -0.6171  1.8262 -0.0129
19529SOL    HW263526  10.321   2.217   9.573 -0.4160  1.4637  1.8672
19530SOL     OW63527   9.886   8.351   3.101  0.1527 -0.2278  0.0352
19530SOL    HW163528   9.896   8.378   3.192  0.8963  0.1430 -0.1410
19530SOL    HW263529   9.873   8.433   3.053  1.1202 -0.2731 -0.3437
19531SOL     OW63530   2.436   7.766   3.687 -0.3919  0.2756  0.0803
19531SOL    HW163531   2.389   7.698   3.640  0.2342  1.2962 -2.1460
19531SOL    HW263532   2.529   7.750   3.669 -0.2230  1.6150 -0.4045
19532SOL     OW63533   6.815   3.161   6.351 -0.0202  0.1060 -0.9327
19532SOL    HW163534   6.797   3.223   6.280  3.0477 -0.1976 -2.1565
19532SOL    HW263535   6.899   3.191   6.388  0.4010 -1.9914 -0.0244
19533SOL     OW63536   3.236   9.309   4.506 -0.1052 -0.0275  0.4274
19533SOL    HW163537   3.321   9.329   4.545  0.2750  0.8822 -0.8184
19533SOL    HW263538   3.231   9.364   4.428 -2.3779  0.8952  1.1453
19534SOL     OW63539   0.771   4.063   5.575  0.4122 -0.2280 -0.0837
19534SOL    HW163540   0.855   4.099   5.602 -0.2763  0.1111  1.7901
19534SOL    HW263541   0.793   3.981   5.531  1.7572  0.2380 -0.3168
19535SOL     OW63542   0.259   6.276   7.228  0.2956  0.9536 -0.0379
19535SOL    HW163543   0.173   6.305   7.199 -1.0148 -1.8982  0.6734
19535SOL    HW263544   0.268   6.311   7.316 -0.3374  0.9061  0.0477
19536SOL     OW63545   9.918   2.234   2.320  0.2051 -0.4648 -0.0514
19536SOL    HW163546   9.962   2.168   2.267  0.2321 -0.0269 -0.5951
19536SOL    HW263547   9.922   2.314   2.267 -1.3019 -0.4212 -0.1568
19537SOL     OW63548   2.913   5.523   6.928  0.3507  0.0526 -0.4885
19537SOL    HW163549   2.961   5.577   6.866  0.5346  1.1917  0.6082
19537SOL    HW263550   2.923   5.567   7.012  0.2889 -1.5601  0.4143
19538SOL     OW63551   6.142   2.621   8.080  0.2515 -0.4080 -0.5150
19538SOL    HW163552   6.144   2.627   8.176 -0.0777  1.8859 -0.6002
19538SOL    HW263553   6.096   2.540   8.062  1.0475 -1.3126  1.2659
19539SOL     OW63554   2.643   0.901   1.158  0.1205 -0.1708 -0.1786
19539SOL    HW163555   2.577   0.942   1.102  0.5430 -0.3258 -0.8002
19539SOL    HW263556   2.725   0.914   1.112  0.2267 -2.0807 -0.6352
19540SOL     OW63557   4.767   2.507   8.216 -0.1955 -0.1408  0.2578
19540SOL    HW163558   4.852   2.465   8.223 -0.0243  0.4310  2.2340
19540SOL    HW263559   4.705   2.445   8.254 -0.7594 -0.7241 -1.5328
19541SOL     OW63560   6.749  11.488   6.096  0.5856  0.0121  0.7818
19541SOL    HW163561   6.729  11.522   6.009  0.0583  0.3099  1.0179
19541SOL    HW263562   6.708  11.550   6.157  0.7398 -0.3271  1.2404
19542SOL     OW63563   5.472   0.817   5.115 -0.3760  0.3181 -0.4798
19542SOL    HW163564   5.567   0.824   5.117 -0.3184  0.5936 -2.1971
19542SOL    HW263565   5.455   0.723   5.116 -0.1227  0.2727  0.2745
19543SOL     OW63566   9.299   9.240   3.106  0.1060 -0.4437  0.3000
19543SOL    HW163567   9.289   9.172   3.039 -0.4863 -0.5386  0.4796
19543SOL    HW263568   9.236   9.307   3.080 -1.3016 -1.1834  1.6347
19544SOL     OW63569   3.890   3.055   2.844 -0.4194  0.0734  0.1992
19544SOL    HW163570   3.836   2.995   2.896 -1.2219  1.1786  0.6872
19544SOL    HW263571   3.836   3.134   2.835  0.8778  0.9862  0.1615
19545SOL     OW63572   7.895   0.799   0.435  0.4183 -0.3367 -0.2921
19545SOL    HW163573   7.927   0.887   0.417  0.2730 -0.2689 -0.2264
19545SOL    HW263574   7.952   0.741   0.384  0.8987 -0.2491  0.1418
19546SOL     OW63575   1.915   5.760  10.647  0.2719  0.1239  0.5552
19546SOL    HW163576   1.856   5.702  10.598 -0.0678  1.9117 -1.2710
19546SOL    HW263577   2.001   5.722  10.634 -0.0805 -0.6531  0.4127
19547SOL     OW63578  10.117   9.251   1.825 -0.5184  0.5700  0.2514
19547SOL    HW163579  10.127   9.278   1.916 -1.3088  0.7386  0.2979
19547SOL    HW263580  10.112   9.334   1.776  1.9709  0.5182 -0.2245
19548SOL     OW63581   9.758   3.848   0.813 -0.3642 -0.2654  0.1979
19548SOL    HW163582   9.759   3.785   0.885  0.0083 -0.4678  0.0204
19548SOL    HW263583   9.683   3.906   0.832  0.4205  0.4053  1.3588
19549SOL     OW63584   0.113   4.822  10.169  0.2450 -0.2396  0.1520
19549SOL    HW163585   0.044   4.784  10.223 -2.1922  0.2763 -2.3932
19549SOL    HW263586   0.113   4.915  10.192 -0.4476 -0.1104 -0.3361
19550SOL     OW63587   4.592   3.478   8.177  0.0871 -0.2564 -0.2798
19550SOL    HW163588   4.624   3.471   8.087  0.8982  0.9165 -0.0984
19550SOL    HW263589   4.503   3.512   8.167 -0.6681 -2.2349 -0.7165
19551SOL     OW63590   4.122   9.272   5.499 -0.1319  0.6488  0.0982
19551SOL    HW163591   4.063   9.301   5.569 -0.0290  2.3931 -0.4872
19551SOL    HW263592   4.072   9.287   5.419  0.2523 -0.0677 -0.2794
19552SOL     OW63593   2.327  11.387   5.801 -0.0649  0.1189 -0.2902
19552SOL    HW163594   2.257  11.323   5.806 -2.1549  2.3063  0.6105
19552SOL    HW263595   2.334  11.406   5.707 -1.2055  0.3672 -0.3425
19553SOL     OW63596   6.512   9.297   9.125 -0.0112  0.6343  0.0353
19553SOL    HW163597   6.421   9.313   9.101 -0.3206 -0.2634  0.5677
19553SOL    HW263598   6.562   9.328   9.049 -0.9185 -1.3000 -1.4658
19554SOL     OW63599  10.077   8.446  10.908  0.2579  0.4482  0.6658
19554SOL    HW163600  10.028   8.504  10.966  0.9083 -0.4231  2.1186
19554SOL    HW263601  10.168   8.472  10.918  0.3278  0.7328 -0.5049
19555SOL     OW63602   0.045   6.463  10.481  0.1565 -0.2671  0.5385
19555SOL    HW163603   0.093   6.443  10.401 -2.5951 -0.5194 -1.2036
19555SOL    HW263604   0.028   6.378  10.521  2.3173 -0.0926  2.0091
19556SOL     OW63605   8.306  10.337   2.182  0.4791  0.2826  0.0528
19556SOL    HW163606   8.396  10.335   2.149  0.3481  2.6699 -0.6274
19556SOL    HW263607   8.301  10.261   2.241  2.3762 -0.9303 -1.2039
19557SOL     OW63608   0.026   6.943   5.866  0.2000 -0.0062 -0.0682
19557SOL    HW163609   0.084   7.017   5.853  0.9119 -0.2535  1.4403
19557SOL    HW263610  -0.006   6.921   5.779 -0.3050  2.2723 -0.5127
19558SOL     OW63611   1.110   0.145   5.436  0.2346 -0.0663 -0.0768
19558SOL    HW163612   1.121   0.223   5.489 -1.0866  0.0909 -0.0128
19558SOL    HW263613   1.055   0.172   5.363 -0.1600 -0.9113 -0.1078
19559SOL     OW63614   9.876   9.326   5.538 -0.2301  0.2482  0.2721
19559SOL    HW163615   9.955   9.345   5.488 -1.4826  1.0308 -1.5429
19559SOL    HW263616   9.882   9.233   5.559  1.2093  0.3222  0.2758
19560SOL     OW63617   4.726   6.644   1.960 -0.2409  0.0791  0.3473
19560SOL    HW163618   4.696   6.675   1.874  2.3726 -1.0630 -1.1076
19560SOL    HW263619   4.700   6.713   2.021 -0.2487  2.0010 -1.7102
19561SOL     OW63620   9.252   7.645   9.299  0.0497 -0.2997  0.2502
19561SOL    HW163621   9.262   7.736   9.273  2.0517 -1.0021 -1.7837
19561SOL    HW263622   9.273   7.644   9.393 -1.6664  1.5036  0.7195
19562SOL     OW63623  11.505   2.965   0.494  0.2295 -0.7554 -0.0480
19562SOL    HW163624  11.576   2.995   0.550  0.8034  0.6157 -1.4356
19562SOL    HW263625  11.431   3.022   0.515  0.6313  0.1781 -1.0734
19563SOL     OW63626   1.648   8.913   8.320  0.0183  0.2237 -0.3663
19563SOL    HW163627   1.593   8.990   8.330 -0.1968 -0.0288  0.5026
19563SOL    HW263628   1.589   8.847   8.282  0.0210  0.2931 -0.4890
19564SOL     OW63629   5.168   5.762   9.524 -0.3100  0.0058 -0.1964
19564SOL    HW163630   5.101   5.781   9.460 -1.7333 -3.0764  0.2019
19564SOL    HW263631   5.138   5.804   9.605 -1.3132 -0.6104 -0.2442
19565SOL     OW63632   3.025   7.298   0.739 -0.0704 -0.1428  0.4229
19565SOL    HW163633   2.975   7.225   0.776 -0.2412  0.4595  1.4011
19565SOL    HW263634   3.116   7.280   0.764 -0.0404 -0.2714  0.2296
19566SOL     OW63635   8.455   6.933   1.151  0.2407  0.4850  0.2051
19566SOL    HW163636   8.517   6.899   1.215 -0.1821 -0.2719  0.2246
19566SOL    HW263637   8.377   6.953   1.202  0.5251  1.6157  0.2116
19567SOL     OW63638   3.189   3.217   3.855 -0.1384  0.1904 -0.1239
19567SOL    HW163639   3.224   3.131   3.878 -1.7454 -0.8454 -1.3124
19567SOL    HW263640   3.094   3.205   3.854 -0.3659  1.7360 -1.1862
19568SOL     OW63641   5.779   2.124   9.533 -0.0059 -0.4612 -0.3365
19568SOL    HW163642   5.742   2.096   9.617  0.5598  1.6466  0.7030
19568SOL    HW263643   5.705   2.161   9.485 -0.1011 -0.4717 -0.1971
19569SOL     OW63644   1.670   2.461   4.886  0.2063 -0.0627 -0.7593
19569SOL    HW163645   1.601   2.472   4.951 -0.8433  0.0088 -1.8331
19569SOL    HW263646   1.632   2.497   4.805  0.7494 -1.8045 -1.8492
19570SOL     OW63647   8.172  10.557   0.632  0.5741 -0.1172  0.1197
19570SOL    HW163648   8.261  10.581   0.603  0.8565 -2.1918 -0.9377
19570SOL    HW263649   8.133  10.514   0.556 -0.3682 -1.6345  1.4066
19571SOL     OW63650   0.748   3.433   5.740 -0.4131  0.5254  0.0514
19571SOL    HW163651   0.702   3.503   5.787  0.0762  0.5151  0.5542
19571SOL    HW263652   0.784   3.378   5.808 -0.6629 -0.1424 -0.3494
19572SOL     OW63653   8.753  10.638   8.887  0.0598  0.1458  0.1139
19572SOL    HW163654   8.826  10.674   8.836 -0.5241  0.3405 -0.5837
19572SOL    HW263655   8.752  10.691   8.967 -0.1690  1.0309 -0.4690
19573SOL     OW63656   4.807   9.186   9.365  0.2332  0.2617 -0.2990
19573SOL    HW163657   4.743   9.127   9.323 -0.8801 -0.2562  1.9795
19573SOL    HW263658   4.793   9.270   9.321 -1.0029 -0.1910 -0.8487
19574SOL     OW63659   1.155   9.794   2.434  0.4382 -0.0823  0.2176
19574SOL    HW163660   1.145   9.772   2.342  0.0068  1.2088 -0.0648
19574SOL    HW263661   1.105   9.875   2.445  1.5185  0.4721  1.3048
19575SOL     OW63662   7.042   7.997   4.091 -0.2222 -0.0829  0.1780
19575SOL    HW163663   6.963   8.051   4.100 -0.4461 -0.1433 -1.2000
19575SOL    HW263664   7.009   7.907   4.086  0.0233 -0.2047  0.7238
19576SOL     OW63665   0.594   1.340  11.264 -0.2664  0.2033  0.2949
19576SOL    HW163666   0.506   1.315  11.292 -0.1745 -0.3183  0.1132
19576SOL    HW263667   0.579   1.398  11.189 -0.4741  0.6318  0.6635
19577SOL     OW63668   4.719   8.127   8.669  0.1661 -0.0245  0.3029
19577SOL    HW163669   4.663   8.065   8.623 -0.2690  1.2157 -0.8718
19577SOL    HW263670   4.802   8.125   8.620  0.9198 -1.2422  1.5469
19578SOL     OW63671   7.816  11.429  10.378 -0.1845 -0.7251  0.0103
19578SOL    HW163672   7.863  11.469  10.451  0.1234  0.1001 -0.6284
19578SOL    HW263673   7.875  11.362  10.344  2.2348  2.5597 -3.0175
19579SOL     OW63674   0.131  10.389   9.843 -0.0941 -0.6227 -0.1269
19579SOL    HW163675   0.051  10.338   9.848  0.2025 -1.0059  0.9773
19579SOL    HW263676   0.181  10.364   9.921  0.6293  0.3954 -0.2349
19580SOL     OW63677   6.438   7.833   1.183  0.4364 -0.6631 -0.1217
19580SOL    HW163678   6.394   7.752   1.210  1.5365 -0.7308  1.6144
19580SOL    HW263679   6.443   7.827   1.088  0.4125 -2.6132 -0.0362
19581SOL     OW63680   3.880   5.031  11.234  0.0730 -0.3450 -0.5535
19581SOL    HW163681   3.806   4.995  11.283  0.2179 -0.2203 -0.2369
19581SOL    HW263682   3.859   5.124  11.224  0.0533 -0.3672 -0.7066
19582SOL     OW63683  10.878   4.544  11.124  0.2898  0.3515 -0.0610
19582SOL    HW163684  10.891   4.483  11.052  1.6188 -0.5775  0.9089
19582SOL    HW263685  10.862   4.489  11.200 -1.0106  1.3045  0.3994
19583SOL     OW63686   1.671   6.852   4.505  0.2419  0.2130  0.6905
19583SOL    HW163687   1.700   6.883   4.591 -1.0778  0.2580  1.1392
19583SOL    HW263688   1.577   6.867   4.504  0.3964  1.4993 -1.3124
19584SOL     OW63689   8.699   7.245   7.617 -0.4233 -0.0488  0.1615
19584SOL    HW163690   8.606   7.260   7.633 -0.2122  1.4303  0.2056
19584SOL    HW263691   8.730   7.197   7.694 -1.0665 -0.2064  0.3208
19585SOL     OW63692   4.485   6.612   2.872  0.0188  0.2004  0.1091
19585SOL    HW163693   4.469   6.706   2.877 -0.4918  0.1185  0.0470
19585SOL    HW263694   4.456   6.586   2.785  3.1137  0.5250 -1.1547
19586SOL     OW63695  10.945   1.966   0.596 -0.6501  0.3486  0.2988
19586SOL    HW163696  10.878   1.956   0.664 -0.8283 -0.5526  0.0035
19586SOL    HW263697  10.898   1.952   0.514 -0.4824  1.6907 -0.0370
19587SOL     OW63698   6.929  10.238   5.314 -0.3907  0.2437 -0.3661
19587SOL    HW163699   6.929  10.155   5.361  0.9961  0.4493  0.0501
19587SOL    HW263700   7.019  10.271   5.324 -0.7116  1.4213 -1.1691
19588SOL     OW63701  11.651   4.355   0.684  0.1087 -0.3966 -0.4231
19588SOL    HW163702  11.679   4.264   0.695  0.4424 -0.3589 -0.9029
19588SOL    HW263703  11.633   4.363   0.590 -1.5483 -0.4217 -0.1240
19589SOL     OW63704   6.394  10.095   2.095 -0.5397  0.1311  0.0777
19589SOL    HW163705   6.356  10.080   2.008  0.2329 -0.8189 -0.1128
19589SOL    HW263706   6.458  10.165   2.080 -0.7034  0.2580 -0.0352
19590SOL     OW63707  11.280   6.969   2.935  0.3580 -0.0151 -0.5902
19590SOL    HW163708  11.343   7.003   2.999 -0.2459  0.0313 -0.0112
19590SOL    HW263709  11.224   6.911   2.985 -1.3308  1.4898 -0.6352
19591SOL     OW63710   2.997   2.807   4.482 -0.4706  0.2539  0.2521
19591SOL    HW163711   2.937   2.782   4.412 -0.2213  2.3544 -0.7869
19591SOL    HW263712   2.990   2.902   4.488  1.8212  0.4514  0.9450
19592SOL     OW63713   9.458   0.144  11.056 -0.1792 -0.2365  0.0143
19592SOL    HW163714   9.488   0.082  10.989  0.7381  1.0564 -0.8235
19592SOL    HW263715   9.364   0.151  11.041 -0.1835 -0.9123 -0.3198
19593SOL     OW63716   5.364   9.128   7.414 -0.1531 -0.6336  0.2086
19593SOL    HW163717   5.410   9.212   7.407  0.4769 -0.9596  0.3147
19593SOL    HW263718   5.433   9.063   7.403 -0.4035 -1.1486  1.5699
19594SOL     OW63719   3.613   5.046   3.713  0.1799 -0.1850  0.3545
19594SOL    HW163720   3.647   5.131   3.687  2.2500 -0.4691  1.9414
19594SOL    HW263721   3.598   5.000   3.630  5.0679 -0.5380 -0.6242
19595SOL     OW63722   9.443   6.343   6.795 -0.1468  0.3355 -0.2337
19595SOL    HW163723   9.507   6.272   6.805 -2.0236 -1.2426  1.6037
19595SOL    HW263724   9.446   6.365   6.702  1.3432 -1.3416 -0.6415
19596SOL     OW63725  10.991  10.385  10.884  0.1924  0.5493  0.0866
19596SOL    HW163726  11.012  10.384  10.977  1.7711  0.4588 -0.2521
19596SOL    HW263727  11.044  10.314  10.847 -2.4883 -1.3161 -0.4831
19597SOL     OW63728   5.453   7.183   2.340  0.2897 -0.2563  0.7252
19597SOL    HW163729   5.456   7.186   2.436  0.5981  1.5559  0.6983
19597SOL    HW263730   5.376   7.129   2.320  1.2106 -2.0936  1.9505
19598SOL     OW63731   9.009   3.135   1.628 -0.5975  0.2469  0.5769
19598SOL    HW163732   9.072   3.168   1.692 -1.6419 -0.5596  2.0760
19598SOL    HW263733   8.994   3.210   1.569  0.7335  0.8635  0.9798
19599SOL     OW63734   8.671   1.370   3.385  0.3001  0.0872 -0.2751
19599SOL    HW163735   8.750   1.421   3.367  1.4413 -0.6584  2.0921
19599SOL    HW263736   8.626   1.420   3.453 -0.9796  0.1761 -1.1534
19600SOL     OW63737   3.234   4.949   4.399 -0.2835  0.3858  0.0723
19600SOL    HW163738   3.247   5.033   4.442 -1.4926  0.5678  0.1395
19600SOL    HW263739   3.298   4.948   4.328 -0.8728  1.7953 -0.5295
19601SOL     OW63740   3.079   0.026   2.481 -0.1697 -0.0585 -0.4549
19601SOL    HW163741   2.997   0.009   2.529 -0.9353 -0.3843 -1.8049
19601SOL    HW263742   3.058   0.100   2.424  0.5933  0.0839 -0.5517
19602SOL     OW63743   8.127   6.440   7.702  0.3983 -0.1236 -0.0093
19602SOL    HW163744   8.212   6.458   7.664  0.1895  0.5658 -0.1548
19602SOL    HW263745   8.112   6.511   7.764  0.1350 -0.4972  0.3623
19603SOL     OW63746   8.361  11.418   0.720  0.2301 -0.1724 -0.3973
19603SOL    HW163747   8.297  11.459   0.661  1.0528  2.2797  0.2869
19603SOL    HW263748   8.317  11.338   0.750 -2.9634  1.7665  0.6853
19604SOL     OW63749   8.065   3.006   3.438  0.1096  0.0491 -0.6535
19604SOL    HW163750   7.987   3.061   3.445 -0.5812 -1.0557  0.8845
19604SOL    HW263751   8.134   3.058   3.480 -0.6309 -0.3674  1.1675
19605SOL     OW63752   4.095   8.621   3.415 -1.0232 -0.0034 -0.7271
19605SOL    HW163753   4.058   8.640   3.329 -0.5875  0.2325 -0.8623
19605SOL    HW263754   4.044   8.676   3.475 -1.3785 -0.2274 -0.8232
19606SOL     OW63755   1.083   5.796   4.265 -0.1648 -0.2955  0.0420
19606SOL    HW163756   1.012   5.828   4.209 -0.0889  0.6354  0.4756
19606SOL    HW263757   1.134   5.738   4.208  0.1063  0.8976 -0.9602
19607SOL     OW63758   9.858   9.511   4.194  0.3947  0.2089 -0.3462
19607SOL    HW163759   9.822   9.526   4.282  0.8821 -3.0239  0.5323
19607SOL    HW263760   9.928   9.576   4.186 -0.0947  1.0218  1.3601
19608SOL     OW63761   6.183   2.206  11.132 -0.0245 -0.0350 -0.0840
19608SOL    HW163762   6.158   2.151  11.206  0.3929 -1.5658 -1.0411
19608SOL    HW263763   6.100   2.239  11.097 -0.2761 -0.0161  0.5279
19609SOL     OW63764   5.688  10.136   0.709  0.0637  0.4159 -0.3959
19609SOL    HW163765   5.724  10.216   0.671  2.2621 -0.8423 -1.0824
19609SOL    HW263766   5.614  10.115   0.652 -0.6154  1.9604 -0.1546
19610SOL     OW63767   2.144   0.062   3.423  0.3514  0.4426  0.0799
19610SOL    HW163768   2.092   0.097   3.350  1.2823 -2.0274 -1.9231
19610SOL    HW263769   2.081   0.013   3.475 -0.2779  2.0308  0.9035
19611SOL     OW63770   4.012   9.731   9.328 -0.2064  0.0050  0.5121
19611SOL    HW163771   3.947   9.664   9.308 -0.9656  1.0520 -0.6307
19611SOL    HW263772   3.964   9.798   9.377  0.1884  0.4071  0.3606
19612SOL     OW63773   3.379   5.749   4.583 -0.4746 -0.5969 -0.0743
19612SOL    HW163774   3.397   5.773   4.674  1.4183 -0.3383 -0.4804
19612SOL    HW263775   3.310   5.682   4.590 -0.4721 -0.4810  1.5355
19613SOL     OW63776   3.795   6.430  10.511  0.7861 -0.9136 -0.5153
19613SOL    HW163777   3.864   6.463  10.454 -0.8362  0.0838 -2.0275
19613SOL    HW263778   3.720   6.487  10.492 -0.4924 -2.0308  0.9538
19614SOL     OW63779   7.504   2.272   0.442  0.7472  0.2359 -0.1506
19614SOL    HW163780   7.451   2.239   0.515  1.2367 -0.7159 -0.2069
19614SOL    HW263781   7.440   2.290   0.373  0.2439  1.4665  0.6154
19615SOL     OW63782   8.466   4.989   8.231  0.2410  0.1674  0.8831
19615SOL    HW163783   8.400   5.000   8.299 -1.4643 -0.5797 -0.5875
19615SOL    HW263784   8.486   5.077   8.201 -2.1615  0.3037 -0.5153
19616SOL     OW63785   1.008  10.264  11.223 -0.1963 -0.5932 -0.3481
19616SOL    HW163786   0.929  10.291  11.174  1.9350  0.5804 -3.4783
19616SOL    HW263787   1.030  10.179  11.186  0.4184 -0.5756 -0.0210
19617SOL     OW63788   4.002   6.932   6.067 -0.3937 -0.0626  0.3297
19617SOL    HW163789   4.042   6.876   6.001  0.6923 -0.1139  1.0120
19617SOL    HW263790   4.060   6.927   6.142  0.2759  2.7072  0.1058
19618SOL     OW63791  11.299   6.765   2.222  0.0617 -0.5171 -0.4662
19618SOL    HW163792  11.336   6.763   2.133 -1.4810 -2.2242 -1.1341
19618SOL    HW263793  11.252   6.682   2.230  0.3969 -0.5337  2.0878
19619SOL     OW63794   2.037   6.993   8.159  0.3151 -0.5337 -0.1425
19619SOL    HW163795   1.948   7.001   8.195 -0.5719  2.0077 -2.6221
19619SOL    HW263796   2.093   6.995   8.237 -1.6663  0.3641  1.3768
19620SOL     OW63797   4.016  10.279   0.361  0.2710  0.2053 -0.1326
19620SOL    HW163798   4.016  10.294   0.456  1.1044 -0.6827  0.0243
19620SOL    HW263799   4.018  10.184   0.352 -2.9723  0.1318 -1.0771
19621SOL     OW63800   4.921   3.725  11.595  0.6473 -0.0047 -0.7391
19621SOL    HW163801   5.003   3.774  11.593  1.2393 -0.9818 -1.4018
19621SOL    HW263802   4.874   3.754  11.517 -0.1075  1.2748  0.1450
19622SOL     OW63803   7.277   5.277   3.636 -0.1531  0.6265  0.0047
19622SOL    HW163804   7.314   5.201   3.591 -2.1385  0.0962 -0.8588
19622SOL    HW263805   7.347   5.342   3.635  1.3708 -0.9292  0.1467
19623SOL     OW63806   6.325   1.371   4.897 -0.1333 -0.1461 -0.3239
19623SOL    HW163807   6.280   1.286   4.889 -0.1169 -0.1079 -0.8420
19623SOL    HW263808   6.397   1.354   4.958 -1.5689  0.0969  1.5218
19624SOL     OW63809   4.626   0.340  11.419 -0.2118  0.2418  0.4208
19624SOL    HW163810   4.617   0.263  11.475  2.7190 -2.4791 -2.4148
19624SOL    HW263811   4.716   0.369  11.432  0.1796  0.2566 -1.8308
19625SOL     OW63812  11.224   7.636   1.444 -0.2226 -0.4923 -0.3628
19625SOL    HW163813  11.309   7.670   1.417  0.4287 -2.5846 -1.2341
19625SOL    HW263814  11.241   7.542   1.459 -2.1366 -0.7217  0.5458
19626SOL     OW63815  11.611   5.502   8.719 -0.3826  0.4300 -0.0616
19626SOL    HW163816  11.605   5.422   8.667 -1.5539  0.0102  0.6937
19626SOL    HW263817  11.652   5.475   8.801  0.2958  0.8503 -0.2479
19627SOL     OW63818   9.306   6.775   0.903  0.2054 -0.4810  0.8060
19627SOL    HW163819   9.256   6.752   0.825 -0.4655 -0.2808  1.1672
19627SOL    HW263820   9.241   6.778   0.973  0.6002  0.5763  1.1428
19628SOL     OW63821   7.701   3.845  10.672 -0.4597  0.3363  0.2869
19628SOL    HW163822   7.621   3.808  10.635 -0.3550  0.8088 -0.4175
19628SOL    HW263823   7.752   3.769  10.700 -0.9032  0.0127  0.2191
19629SOL     OW63824   4.850  10.368   6.534 -0.1692  0.6292 -0.9167
19629SOL    HW163825   4.925  10.342   6.586 -1.2460  1.6579  1.2517
19629SOL    HW263826   4.788  10.295   6.543 -0.2628  0.7018 -0.9628
19630SOL     OW63827   9.720  10.476   2.135  0.2204 -0.1778  0.2631
19630SOL    HW163828   9.757  10.511   2.216  1.8641  0.2965 -0.6350
19630SOL    HW263829   9.744  10.541   2.068 -1.8842 -0.0898 -0.4828
19631SOL     OW63830   4.030   0.403   8.899 -0.0086 -0.0311  0.0095
19631SOL    HW163831   4.085   0.405   8.821  0.7500  0.5322  0.5412
19631SOL    HW263832   4.078   0.348   8.961  0.7275  1.6420  1.0015
19632SOL     OW63833   6.793   2.720   3.064  0.0772  0.0117 -0.2586
19632SOL    HW163834   6.815   2.807   3.030 -0.5912 -0.2022 -1.3093
19632SOL    HW263835   6.876   2.685   3.096  0.4967  0.7422 -0.5138
19633SOL     OW63836   3.532   0.809   0.166  0.4149  0.5249 -0.1678
19633SOL    HW163837   3.588   0.740   0.202 -1.9514 -0.7023  1.3621
19633SOL    HW263838   3.490   0.769   0.090  0.9331  1.1665 -0.8102
19634SOL     OW63839   1.072  10.771   8.566  0.7301  0.2064 -0.7879
19634SOL    HW163840   1.119  10.706   8.617  1.6168  1.6686  0.3306
19634SOL    HW263841   1.064  10.846   8.624  0.3808  1.3760 -2.2763
19635SOL     OW63842  11.317   8.520   0.019  0.3245  0.3789  0.4039
19635SOL    HW163843  11.265   8.579  -0.035  0.0897  0.1137  0.3420
19635SOL    HW263844  11.351   8.455  -0.042  1.7669  1.2559  0.2192
19636SOL     OW63845   4.507   3.843   6.922 -0.0110 -0.0917 -0.1788
19636SOL    HW163846   4.553   3.795   6.853  1.8556 -0.7551  1.4374
19636SOL    HW263847   4.546   3.931   6.920 -0.5307  0.1390 -0.4681
19637SOL     OW63848   7.034   9.447   6.280  0.1322  0.2886  0.0023
19637SOL    HW163849   7.102   9.451   6.214 -0.5574  0.5155 -0.7145
19637SOL    HW263850   7.048   9.524   6.335 -0.4175  1.1611 -1.0322
19638SOL     OW63851  10.569   9.378   5.100 -0.1326  0.2806  0.5495
19638SOL    HW163852  10.545   9.289   5.125 -0.3422  0.8255  2.4780
19638SOL    HW263853  10.485   9.422   5.086 -0.0599  0.4137  0.5352
19639SOL     OW63854   9.155   9.444   3.001 -0.0405  0.4502  0.2529
19639SOL    HW163855   9.189   9.440   2.912  0.3216 -0.4037  0.4207
19639SOL    HW263856   9.060   9.440   2.990  0.0105  0.0760 -0.0892
19640SOL     OW63857   3.672   7.307   8.864 -0.5330  0.2517 -0.8732
19640SOL    HW163858   3.606   7.360   8.820 -2.0063 -0.0882  0.7850
19640SOL    HW263859   3.665   7.221   8.823  0.0202  0.6230 -1.7755
19641SOL     OW63860   7.696   9.243   4.431  0.1510 -0.1270  0.1158
19641SOL    HW163861   7.706   9.337   4.413  1.0763 -0.4943 -1.4855
19641SOL    HW263862   7.757   9.226   4.503 -1.1203  0.7472  1.4611
19642SOL     OW63863   7.000   1.117   9.439 -0.4352 -0.2744  0.8563
19642SOL    HW163864   6.929   1.174   9.466 -0.3615 -0.6002  1.7633
19642SOL    HW263865   7.010   1.054   9.510  0.4955 -0.4777  0.5706
19643SOL     OW63866   5.442   6.780   5.152  0.0869  0.6772 -0.2942
19643SOL    HW163867   5.423   6.874   5.152  1.5850  1.0012 -1.0581
19643SOL    HW263868   5.478   6.763   5.239 -0.0733  0.8219 -0.1988
19644SOL     OW63869   8.947   9.582   3.615  0.3721 -0.3598  0.3798
19644SOL    HW163870   8.934   9.650   3.549 -0.5982  0.8199  1.7373
19644SOL    HW263871   8.873   9.591   3.674  1.7031 -0.7216  2.1988
19645SOL     OW63872   6.122   0.973   8.760  0.0848 -0.6931  0.2049
19645SOL    HW163873   6.134   0.928   8.677  0.1560  0.6956 -0.5624
19645SOL    HW263874   6.211   0.984   8.794  0.2055  0.3016 -0.4044
19646SOL     OW63875   2.280   8.900   1.147 -0.8808  0.1864 -0.1036
19646SOL    HW163876   2.375   8.888   1.145 -0.5912  2.1266  0.2333
19646SOL    HW263877   2.253   8.895   1.055 -0.7544 -2.1623 -0.0699
19647SOL     OW63878   6.622   5.652   8.688 -0.2361 -0.1981  0.1292
19647SOL    HW163879   6.703   5.624   8.729  0.9136  1.5353 -0.8477
19647SOL    HW263880   6.575   5.701   8.756  0.2984  0.1776  0.2277
19648SOL     OW63881   8.373   5.463   1.621  0.5308 -0.3568 -0.1007
19648SOL    HW163882   8.416   5.524   1.562  1.3427 -0.9286 -0.1135
19648SOL    HW263883   8.440   5.440   1.685 -0.0168 -0.5863  0.3975
19649SOL     OW63884   5.847   7.532   6.301 -0.4803 -0.7176  0.2064
19649SOL    HW163885   5.925   7.478   6.297 -0.1401 -0.3457  1.2945
19649SOL    HW263886   5.861   7.588   6.378 -2.0530 -1.0280  0.7571
19650SOL     OW63887  10.166   4.003   0.632  0.0225  0.0911 -0.4562
19650SOL    HW163888  10.118   4.051   0.565 -0.1022  2.3992  1.1733
19650SOL    HW263889  10.248   4.051   0.644 -0.0207 -0.1422  1.1273
19651SOL     OW63890   5.102  10.316   3.501  0.0351 -0.1519 -0.2578
19651SOL    HW163891   5.070  10.257   3.569 -0.7158  1.7774  1.1534
19651SOL    HW263892   5.023  10.348   3.458  0.4523 -0.4503 -1.2768
19652SOL     OW63893   7.834   4.487   9.047  0.7561  0.0510 -0.0898
19652SOL    HW163894   7.879   4.571   9.052 -0.6253  0.9348 -1.5637
19652SOL    HW263895   7.746   4.508   9.015  0.3369 -1.9381 -0.4038
19653SOL     OW63896   6.556  11.629   3.844  0.3515  0.0842 -0.4729
19653SOL    HW163897   6.594  11.641   3.757 -0.2928 -1.4500 -1.0197
19653SOL    HW263898   6.471  11.587   3.827 -0.4686  1.1441  0.8303
19654SOL     OW63899  11.665  10.951   6.636 -0.1840 -0.3636  0.7154
19654SOL    HW163900  11.699  10.966   6.724  0.9024 -0.7426  0.3685
19654SOL    HW263901  11.735  10.904   6.591 -1.6245 -2.2763  0.3548
19655SOL     OW63902   9.792   6.287   6.103  0.7039 -0.4276  0.5559
19655SOL    HW163903   9.799   6.224   6.176  2.9302 -0.4885  0.3516
19655SOL    HW263904   9.860   6.259   6.041  2.2009  2.4851  0.7165
19656SOL     OW63905  10.018   3.575   2.642 -0.0137 -0.0344 -0.6704
19656SOL    HW163906   9.928   3.606   2.649  0.0991  0.5315 -1.5777
19656SOL    HW263907  10.064   3.615   2.716  0.0291  1.6640 -1.5603
19657SOL     OW63908   0.520  10.432   0.273  0.3258  0.3083  0.2909
19657SOL    HW163909   0.465  10.363   0.236 -0.5667  1.9495 -1.6640
19657SOL    HW263910   0.601  10.388   0.298 -0.4632 -1.5376 -0.2594
19658SOL     OW63911   1.129   8.500   9.519 -0.2462  0.0032  0.0700
19658SOL    HW163912   1.069   8.471   9.450 -0.1265 -0.0820  0.0017
19658SOL    HW263913   1.155   8.589   9.492 -0.3939  0.0656  0.1335
19659SOL     OW63914   7.188   7.146   5.701  0.3643  0.1865  0.3745
19659SOL    HW163915   7.260   7.126   5.761 -1.2575 -2.0879  1.7490
19659SOL    HW263916   7.220   7.119   5.615  1.3768 -0.2498  0.8726
19660SOL     OW63917   1.194   4.060   8.591  0.1385  0.3410 -0.2292
19660SOL    HW163918   1.141   3.988   8.556  1.0409  0.0247 -0.9951
19660SOL    HW263919   1.240   4.021   8.666  0.3376  0.2219 -0.4122
19661SOL     OW63920   5.311   0.532   2.790  0.4538  0.2039  0.2035
19661SOL    HW163921   5.341   0.553   2.701 -0.9419 -0.9011 -0.5775
19661SOL    HW263922   5.252   0.604   2.813  0.8770  0.5311  0.2789
19662SOL     OW63923   3.582  11.659   5.030  0.3172 -0.0692  0.5235
19662SOL    HW163924   3.639  11.605   5.083  0.4203 -2.1657 -1.5410
19662SOL    HW263925   3.636  11.685   4.955 -0.4633  0.8317  0.2503
19663SOL     OW63926  10.528   6.312   3.849  0.7909  0.1171 -0.3938
19663SOL    HW163927  10.607   6.271   3.885  1.0073 -0.9852 -1.9876
19663SOL    HW263928  10.479   6.343   3.925  1.7653 -1.0433  0.7426
19664SOL     OW63929   4.834   8.859   2.690  0.0109 -0.1136  0.1528
19664SOL    HW163930   4.857   8.931   2.749 -0.0720  0.1320 -0.1082
19664SOL    HW263931   4.918   8.821   2.665  0.0410 -0.2874  0.5122
19665SOL     OW63932   3.326   9.836   4.939 -0.1216 -0.3261  0.1891
19665SOL    HW163933   3.323   9.751   4.983 -1.3737 -0.7042 -0.5636
19665SOL    HW263934   3.419   9.855   4.928  0.1742 -1.2438  1.0375
19666SOL     OW63935   7.351   4.452   3.694 -0.5469 -0.3894 -0.2836
19666SOL    HW163936   7.442   4.425   3.680 -0.4325 -0.2339  0.1318
19666SOL    HW263937   7.354   4.509   3.771 -0.7722  0.9027 -1.2025
19667SOL     OW63938   2.058  10.376   8.447  0.0272  0.2802 -0.6192
19667SOL    HW163939   2.112  10.373   8.368  0.4791 -0.7237 -0.2911
19667SOL    HW263940   2.122  10.380   8.519 -0.3400 -0.4382 -0.2458
19668SOL     OW63941   4.924   8.319   3.389 -0.4711 -1.1301 -0.3099
19668SOL    HW163942   4.993   8.361   3.337  0.0365 -1.4023  0.1341
19668SOL    HW263943   4.967   8.295   3.471 -1.6973  0.9816  1.0438
19669SOL     OW63944  11.609   0.953   4.370 -0.5878  0.4833  0.1437
19669SOL    HW163945  11.596   0.871   4.321  1.1338  0.4489 -0.3252
19669SOL    HW263946  11.638   1.016   4.304 -1.5659  1.3957  0.5643
19670SOL     OW63947   7.870   5.177   8.785  0.3472 -0.5225 -0.3826
19670SOL    HW163948   7.791   5.179   8.731  0.2003  1.9183 -0.2128
19670SOL    HW263949   7.941   5.193   8.723  0.4163 -0.1187 -0.2051
19671SOL     OW63950   4.621   2.732   3.695 -1.1393  0.0137 -1.0672
19671SOL    HW163951   4.716   2.729   3.708 -1.2435 -0.5740 -0.3905
19671SOL    HW263952   4.609   2.787   3.617 -0.2701  0.4032 -0.9359
19672SOL     OW63953   2.673   1.149   4.343 -0.4759 -0.4810 -0.1405
19672SOL    HW163954   2.604   1.211   4.321  1.2966  1.6768  0.0125
19672SOL    HW263955   2.657   1.128   4.435 -0.9110  0.0343 -0.0901
19673SOL     OW63956   4.484   1.480   8.876 -0.3747 -0.2880  0.1830
19673SOL    HW163957   4.522   1.414   8.934  0.2194 -1.8374 -1.8330
19673SOL    HW263958   4.411   1.517   8.926  0.6321 -0.8990  2.2083
19674SOL     OW63959   1.222   6.238   0.029  0.2575 -0.3714 -0.2306
19674SOL    HW163960   1.141   6.205   0.068 -0.2497  0.9740 -0.0745
19674SOL    HW263961   1.245   6.174  -0.038  0.4684 -2.1007  1.4170
19675SOL     OW63962   3.680   1.811   8.575  0.2588 -0.0162  0.5463
19675SOL    HW163963   3.668   1.905   8.589  2.7778  0.4297  0.1726
19675SOL    HW263964   3.767   1.803   8.536 -0.1126 -2.4798  0.0376
19676SOL     OW63965   4.110  10.749   4.453  0.2862  0.3861  0.0110
19676SOL    HW163966   4.157  10.780   4.530 -1.2709  0.4519  0.9688
19676SOL    HW263967   4.029  10.711   4.487 -0.6124  0.7412 -1.6178
19677SOL     OW63968   1.390   1.388   1.142  0.2716 -0.1751  0.4690
19677SOL    HW163969   1.413   1.297   1.123  1.1336  0.2245 -0.4883
19677SOL    HW263970   1.419   1.402   1.232 -0.2852 -0.9693  0.7856
19678SOL     OW63971   0.329   5.223   8.052 -0.4201  0.9248 -0.3597
19678SOL    HW163972   0.258   5.164   8.076  0.7198 -0.3915 -0.1021
19678SOL    HW263973   0.366   5.186   7.972  2.6679 -1.0075  1.7142
19679SOL     OW63974   8.570   0.218   9.180  0.7633 -0.2098 -0.8967
19679SOL    HW163975   8.545   0.248   9.093  1.2546 -1.0480 -1.3352
19679SOL    HW263976   8.527   0.133   9.189  2.4025 -1.1150 -1.1776
19680SOL     OW63977   0.966   4.041  11.538  0.1624  0.0386 -0.4921
19680SOL    HW163978   0.896   4.094  11.500  1.0764  2.6675  1.1556
19680SOL    HW263979   0.990   3.979  11.469 -0.7067  2.0909 -2.7894
19681SOL     OW63980   1.336   6.185   9.899 -0.5216  0.1479 -0.9143
19681SOL    HW163981   1.287   6.123   9.844  0.8625 -0.0434 -1.9929
19681SOL    HW263982   1.427   6.175   9.870  0.2380  0.1944  1.2955
19682SOL     OW63983   1.976   5.592   6.914 -0.1452 -0.5520  0.8790
19682SOL    HW163984   2.037   5.532   6.872 -0.1509  1.3350 -2.1013
19682SOL    HW263985   1.892   5.573   6.873 -0.1468  1.3744 -0.1645
19683SOL     OW63986   3.275   2.597  11.633  0.2100  0.1526  0.9946
19683SOL    HW163987   3.305   2.516  11.593 -0.3497 -0.4065  1.6866
19683SOL    HW263988   3.305   2.593  11.723  1.5671  1.4606  0.6438
19684SOL     OW63989   2.612   1.631   0.499  0.5134 -0.6519 -0.3374
19684SOL    HW163990   2.620   1.624   0.594  2.2036 -2.5712 -0.5507
19684SOL    HW263991   2.610   1.725   0.482  3.6974 -0.1144  1.4108
19685SOL     OW63992   1.796   6.595   8.094  0.0905 -0.0049 -0.0068
19685SOL    HW163993   1.748   6.660   8.147 -0.0179  1.0257 -1.3149
19685SOL    HW263994   1.833   6.646   8.022  1.8623 -1.0555  0.1139
19686SOL     OW63995   4.770  10.167  11.355  0.3761  0.0286 -0.2551
19686SOL    HW163996   4.688  10.216  11.343  0.8818  1.3299  1.3004
19686SOL    HW263997   4.796  10.144  11.266 -2.0751 -1.1854 -0.7701
19687SOL     OW63998   7.946   9.124   4.095 -0.1771 -0.4474  0.2935
19687SOL    HW163999   7.927   9.042   4.051  1.6962 -1.1557  0.7048
19687SOL    HW264000   8.021   9.104   4.152 -0.0882  1.3746  0.8852
19688SOL     OW64001   2.165   9.021   5.542  0.4185 -0.4933  0.0929
19688SOL    HW164002   2.174   8.935   5.584 -0.3633 -0.6400 -0.0182
19688SOL    HW264003   2.128   9.077   5.610  0.7821 -0.2766  0.1166
19689SOL     OW64004   1.833   4.123  11.569  0.6349  0.4362 -0.4612
19689SOL    HW164005   1.750   4.152  11.605 -0.2976  0.7449 -2.6905
19689SOL    HW264006   1.892   4.120  11.644 -1.3371  0.2985  1.1663
19690SOL     OW64007   5.278   5.517   0.047 -0.3351 -0.4713  0.3620
19690SOL    HW164008   5.271   5.473   0.131 -0.5690 -1.1595 -0.0043
19690SOL    HW264009   5.360   5.566   0.052 -0.2150 -0.7162  0.8918
19691SOL     OW64010   0.714   1.015   3.361  0.2119 -0.0922  0.5382
19691SOL    HW164011   0.715   1.100   3.405 -0.5683  0.7752 -1.0240
19691SOL    HW264012   0.802   1.005   3.325 -0.2287  1.0343 -0.9625
19692SOL     OW64013   2.494   8.651   1.188  0.3948 -0.2697 -0.5184
19692SOL    HW164014   2.537   8.634   1.105 -0.5789  1.0402 -1.3349
19692SOL    HW264015   2.458   8.566   1.215  0.2109 -0.6005 -1.7476
19693SOL     OW64016   7.716   8.421   1.963 -0.6310 -1.0393  0.2071
19693SOL    HW164017   7.654   8.483   1.926  0.1585 -0.7788 -0.7135
19693SOL    HW264018   7.661   8.352   2.001 -1.4881 -1.1658 -1.1901
19694SOL     OW64019   1.044   9.707   2.724  0.3046 -0.1920  0.3130
19694SOL    HW164020   1.119   9.679   2.777 -0.9433  0.3459  2.5091
19694SOL    HW264021   1.019   9.629   2.674  0.8211 -1.1076  1.4282
19695SOL     OW64022   8.318   6.313  10.162  0.1056 -0.2696  0.1521
19695SOL    HW164023   8.394   6.255  10.169  1.1913  1.2386  2.8937
19695SOL    HW264024   8.351   6.391  10.117  0.0203  0.0685  0.6525
19696SOL     OW64025   9.042   9.757   7.130  0.7471  0.3024 -0.0561
19696SOL    HW164026   9.119   9.708   7.101 -0.2620 -0.4223 -1.6673
19696SOL    HW264027   9.036   9.739   7.224  1.2715 -1.4674 -0.3172
19697SOL     OW64028   4.825   1.733   1.459 -0.4691  0.9261 -0.0926
19697SOL    HW164029   4.881   1.683   1.518 -1.5375 -1.7378 -1.1775
19697SOL    HW264030   4.742   1.741   1.506 -1.2710 -1.0651 -1.0528
19698SOL     OW64031   4.226   1.258   7.163 -0.5785  0.0497  0.3750
19698SOL    HW164032   4.280   1.192   7.207 -0.2966 -0.1617 -0.2761
19698SOL    HW264033   4.255   1.341   7.202 -0.1691 -0.1121  0.4263
19699SOL     OW64034   7.606   2.230   4.611 -0.2115  0.6883 -0.2373
19699SOL    HW164035   7.542   2.247   4.680  0.4080 -0.9913  0.8240
19699SOL    HW264036   7.687   2.210   4.658  0.1369 -0.8735 -1.4115
19700SOL     OW64037   7.622   2.849   8.923  0.3869  0.3004  0.4066
19700SOL    HW164038   7.569   2.807   8.855  1.8450  0.0650 -0.6357
19700SOL    HW264039   7.583   2.936   8.933  0.3477  0.4696 -0.9976
19701SOL     OW64040   0.413   2.251   3.299 -0.0382 -0.2183 -0.0781
19701SOL    HW164041   0.456   2.170   3.326 -0.2117 -0.8923 -1.7410
19701SOL    HW264042   0.369   2.282   3.378 -1.7653 -2.8650  0.1031
19702SOL     OW64043   2.608   2.067   5.651  0.1796  0.7294 -0.4061
19702SOL    HW164044   2.582   2.157   5.629 -0.1592  0.4399 -1.2195
19702SOL    HW264045   2.671   2.043   5.582  1.5394  0.9119  0.7282
19703SOL     OW64046   3.686   9.972   5.399 -0.2577  0.3040  0.0375
19703SOL    HW164047   3.646   9.925   5.325 -1.2249  1.9618 -0.5365
19703SOL    HW264048   3.629   9.954   5.473 -0.9860  1.0543 -0.3277
19704SOL     OW64049   0.053  11.630   1.805 -0.7626  0.5807 -0.3013
19704SOL    HW164050   0.144  11.661   1.807 -1.1235  1.7480  2.1017
19704SOL    HW264051   0.038  11.606   1.713  2.4101 -1.1648 -0.5095
19705SOL     OW64052   7.136   6.902   1.976 -0.4754 -0.3331  0.0738
19705SOL    HW164053   7.165   6.864   2.058  0.2162  0.3773  0.1705
19705SOL    HW264054   7.200   6.873   1.911 -1.2178 -1.1882 -0.3022
19706SOL     OW64055   1.963  10.348   4.081 -0.3546  0.2785  0.0925
19706SOL    HW164056   1.987  10.256   4.092  0.6825  0.4500 -0.5628
19706SOL    HW264057   1.922  10.351   3.994  1.5970  0.7755 -0.8594
19707SOL     OW64058  10.339   8.472   3.698  0.0356  0.0056 -0.0862
19707SOL    HW164059  10.383   8.508   3.621 -1.6196  2.5506  0.0428
19707SOL    HW264060  10.267   8.532   3.716 -2.4037 -2.8965  0.8303
19708SOL     OW64061   3.474   3.138   1.813  0.2499 -0.3900  0.4855
19708SOL    HW164062   3.567   3.156   1.798  0.2408 -0.5515  0.2144
19708SOL    HW264063   3.446   3.091   1.734  0.1445 -1.1014  0.9310
19709SOL     OW64064   4.423   2.259   9.567 -0.4023  0.1817 -0.4921
19709SOL    HW164065   4.429   2.212   9.651  0.0248  0.2933 -0.4570
19709SOL    HW264066   4.469   2.202   9.505  1.2578  1.1146 -0.1933
19710SOL     OW64067   0.828   3.584   5.542 -0.6926  0.3462  0.0894
19710SOL    HW164068   0.823   3.540   5.627 -0.6355 -1.1296 -0.6544
19710SOL    HW264069   0.761   3.542   5.488  0.1070  0.4173 -0.9856
19711SOL     OW64070   0.253   7.893   3.214 -0.0151 -0.2839 -0.0998
19711SOL    HW164071   0.197   7.926   3.285  0.0681  1.3354 -0.7527
19711SOL    HW264072   0.321   7.843   3.259 -0.0542  0.5774  0.9584
19712SOL     OW64073  11.282   9.452   7.571  0.3947  0.2791 -0.0577
19712SOL    HW164074  11.208   9.392   7.568 -0.8306  1.7016  0.5652
19712SOL    HW264075  11.279   9.490   7.659  1.2579  1.0954 -0.3584
19713SOL     OW64076   9.507   8.595   8.699  0.1724 -0.2822  0.0825
19713SOL    HW164077   9.500   8.536   8.774 -0.4554  1.9809  1.9057
19713SOL    HW264078   9.417   8.609   8.671  0.3160 -0.1675 -0.3206
19714SOL     OW64079   9.382   8.473   2.743 -0.5706  0.2281  0.1181
19714SOL    HW164080   9.390   8.559   2.703 -0.8613  0.6085  0.8650
19714SOL    HW264081   9.471   8.451   2.770 -0.3999  0.0412 -0.5658
19715SOL     OW64082   1.999  10.989   7.694 -0.2124  0.4917 -0.1129
19715SOL    HW164083   2.002  10.956   7.784 -2.2386  1.0671  0.2150
19715SOL    HW264084   2.088  11.022   7.678  0.5154 -0.6677  1.2442
19716SOL     OW64085   0.585   3.449   0.224 -0.0005  0.0195  0.1585
19716SOL    HW164086   0.631   3.436   0.141 -0.8586 -1.7842 -0.0920
19716SOL    HW264087   0.542   3.365   0.241 -3.9051  1.7568 -0.0393
19717SOL     OW64088   9.507   2.108   6.665  0.4692  0.4144  0.5018
19717SOL    HW164089   9.575   2.139   6.604  0.9050 -0.2338  0.6368
19717SOL    HW264090   9.496   2.016   6.643  2.2801 -0.4723  2.8472
19718SOL     OW64091   3.635   1.709   3.255 -0.1994  0.3861 -0.4268
19718SOL    HW164092   3.660   1.701   3.163  0.2289  0.9303 -0.3606
19718SOL    HW264093   3.692   1.647   3.300  0.8489  1.3996 -0.3148
19719SOL     OW64094   4.306   1.867   9.399  0.4745 -0.2901  0.3148
19719SOL    HW164095   4.311   1.798   9.465  1.0905 -2.0206 -1.4685
19719SOL    HW264096   4.397   1.895   9.386  0.2632  0.6819  0.7978
19720SOL     OW64097   9.780   6.693   5.659  0.1666 -0.0202  0.6182
19720SOL    HW164098   9.685   6.691   5.645  0.1838 -1.8703  0.4874
19720SOL    HW264099   9.790   6.723   5.749 -0.6619 -1.3992  1.2061
19721SOL     OW64100   0.124   9.777   4.240 -0.1209  0.1988  0.0725
19721SOL    HW164101   0.172   9.757   4.320  0.4915 -0.5638 -0.4735
19721SOL    HW264102   0.134   9.699   4.185 -2.3738 -0.2030  0.1182
19722SOL     OW64103  11.107   1.984   3.076  0.0432  0.7033 -0.0460
19722SOL    HW164104  11.053   2.044   3.025  0.6306  0.1724 -1.3405
19722SOL    HW264105  11.157   1.935   3.011  2.2748  1.3285  1.0983
19723SOL     OW64106   3.155   4.680   4.480 -0.2934  0.0995 -0.1693
19723SOL    HW164107   3.173   4.690   4.574 -2.8464 -0.2006  0.4161
19723SOL    HW264108   3.201   4.754   4.440 -1.1295  1.6771  1.6085
19724SOL     OW64109  11.418   4.558   1.533 -0.4244 -0.1251  0.0302
19724SOL    HW164110  11.456   4.616   1.467 -0.7899  1.8824  1.4898
19724SOL    HW264111  11.323   4.568   1.522 -0.4914 -0.3012  0.4201
19725SOL     OW64112   9.251   7.283   5.487 -0.2722 -0.7301 -0.3682
19725SOL    HW164113   9.185   7.311   5.424  0.5698  0.8660 -0.5815
19725SOL    HW264114   9.200   7.254   5.563 -1.2565  1.2428 -0.2038
19726SOL     OW64115   5.246  10.393   6.605  0.4539  0.3216 -0.2794
19726SOL    HW164116   5.337  10.386   6.633  0.2063 -1.6265  0.2383
19726SOL    HW264117   5.223  10.304   6.576 -1.5351  0.4944  0.5524
19727SOL     OW64118   4.479   9.263   7.291  0.3173 -0.0182 -0.3815
19727SOL    HW164119   4.411   9.313   7.335 -0.2076 -0.1402 -1.0380
19727SOL    HW264120   4.439   9.178   7.274  0.5832 -0.0388 -0.9098
19728SOL     OW64121   0.867   7.531  11.224 -0.1715  0.4905  0.3612
19728SOL    HW164122   0.781   7.570  11.213  1.0748  3.4205 -0.2286
19728SOL    HW264123   0.852   7.437  11.229 -3.3272  0.8897  0.0135
19729SOL     OW64124   2.178  10.552   4.531  0.0818 -0.1067  0.0281
19729SOL    HW164125   2.213  10.555   4.442 -0.4062 -0.3372 -0.1793
19729SOL    HW264126   2.148  10.642   4.549 -2.8043 -0.6858 -1.2979
19730SOL     OW64127  10.794  11.413   3.370  0.1631 -0.3181  0.2711
19730SOL    HW164128  10.721  11.470   3.394  1.0010  1.7760 -1.7697
19730SOL    HW264129  10.777  11.331   3.416 -2.7130  0.5603  0.9616
19731SOL     OW64130   9.405   5.994  11.425 -0.1020  0.0262 -0.2079
19731SOL    HW164131   9.456   6.007  11.505 -1.3676  0.3606  0.5701
19731SOL    HW264132   9.361   5.910  11.439  0.0930 -0.1760 -0.7927
19732SOL     OW64133   3.186  11.095   0.773 -0.1982  0.1495 -0.6256
19732SOL    HW164134   3.222  11.007   0.759  2.0865  1.1151 -1.2507
19732SOL    HW264135   3.180  11.133   0.685  1.5697  1.5907 -0.1735
19733SOL     OW64136   4.291   3.959   6.786  0.6304  0.0743  0.4488
19733SOL    HW164137   4.351   3.904   6.837 -0.0415 -0.0930  1.0717
19733SOL    HW264138   4.315   4.049   6.810  0.3362 -0.0016  1.0594
19734SOL     OW64139   8.695   1.614   4.212 -0.1880  0.3340 -0.0229
19734SOL    HW164140   8.687   1.708   4.230  0.1777  0.5366 -0.8761
19734SOL    HW264141   8.614   1.576   4.245 -0.8789  1.1227 -0.7917
19735SOL     OW64142   0.455   5.323   4.681  0.0178 -0.2221  0.3271
19735SOL    HW164143   0.402   5.259   4.633  0.1735  0.7020 -1.1460
19735SOL    HW264144   0.396   5.358   4.748 -0.6805 -0.5066 -0.1270
19736SOL     OW64145   4.875   1.786  10.561  0.0191 -0.3750 -0.0408
19736SOL    HW164146   4.844   1.815  10.476 -0.5959 -0.2817  0.2131
19736SOL    HW264147   4.804   1.735  10.598  0.2411 -0.3400  0.4554
19737SOL     OW64148   9.840   5.437   8.826  0.0330  0.4412 -0.4471
19737SOL    HW164149   9.754   5.402   8.803  0.1299 -1.0174  1.2167
19737SOL    HW264150   9.827   5.532   8.830 -1.5112  0.2461 -0.2390
19738SOL     OW64151   3.141   4.889   9.473  0.4880 -0.5689  0.4405
19738SOL    HW164152   3.112   4.931   9.554  2.2720  0.6979  0.5014
19738SOL    HW264153   3.083   4.924   9.406  1.1431  1.0949  0.6911
19739SOL     OW64154   3.041   1.298   7.654  0.5470 -0.7502  0.0856
19739SOL    HW164155   3.012   1.274   7.566  1.9836 -1.6696 -0.1730
19739SOL    HW264156   3.133   1.271   7.657  1.9414  3.3793  0.3223
19740SOL     OW64157   1.155   7.371   6.683  0.3331 -0.1402 -0.2824
19740SOL    HW164158   1.062   7.394   6.681  0.4849  0.4676 -0.6258
19740SOL    HW264159   1.175   7.346   6.593  0.3895 -0.7343 -0.1047
19741SOL     OW64160   3.309  10.852   1.079  0.1176  0.2939 -0.8945
19741SOL    HW164161   3.401  10.865   1.055  0.5838 -1.2816 -0.1270
19741SOL    HW264162   3.282  10.774   1.030 -0.7476  0.6274 -0.9602
19742SOL     OW64163  10.122   7.241   3.171  0.4778  0.6896 -0.3235
19742SOL    HW164164  10.127   7.146   3.171 -1.5330  0.5438 -0.1432
19742SOL    HW264165  10.143   7.266   3.081  2.2109  0.2026 -0.0946
19743SOL     OW64166   2.289   8.772   7.564  0.4538 -0.0150 -0.1695
19743SOL    HW164167   2.319   8.762   7.655  0.1712 -1.0558 -0.1818
19743SOL    HW264168   2.328   8.698   7.518 -0.7621 -0.4500 -0.5360
19744SOL     OW64169  10.058  10.677   5.520 -0.5447  0.2506 -0.2988
19744SOL    HW164170  10.104  10.712   5.597  0.0486 -1.5773  0.2245
19744SOL    HW264171   9.965  10.681   5.544 -0.3104 -1.4779  1.0829
19745SOL     OW64172  10.115   5.548  11.328 -0.5092 -0.5940  1.0289
19745SOL    HW164173  10.092   5.616  11.391 -1.2714  0.9838 -0.8509
19745SOL    HW264174  10.207   5.565  11.307 -0.9196  0.4185 -0.0407
19746SOL     OW64175  10.231   5.935  11.413  0.3274 -0.0904 -0.4283
19746SOL    HW164176  10.199   5.916  11.325 -0.4011  0.5345 -0.3069
19746SOL    HW264177  10.230   6.031  11.419 -1.5893 -0.1526  0.9610
19747SOL     OW64178   4.876   5.131   3.283 -0.3826 -0.5395 -0.0207
19747SOL    HW164179   4.892   5.223   3.261  1.2710 -0.4387  1.3826
19747SOL    HW264180   4.943   5.082   3.236  0.1641 -0.7773  0.9779
19748SOL     OW64181   4.482   8.881   7.972 -0.6928  0.2484  0.4654
19748SOL    HW164182   4.433   8.870   8.054 -2.5771 -3.6347 -0.9370
19748SOL    HW264183   4.556   8.821   7.980 -0.3883  0.4964 -0.3420
19749SOL     OW64184   1.491   9.607  10.288 -0.0737  0.1240  0.6207
19749SOL    HW164185   1.411   9.607  10.340 -0.2733 -0.8767  0.3250
19749SOL    HW264186   1.490   9.524  10.240  1.6339 -0.3631  1.3489
19750SOL     OW64187   5.696   3.867   9.724  0.4092 -0.4973  0.4051
19750SOL    HW164188   5.758   3.826   9.663 -0.7432 -1.1550 -0.3532
19750SOL    HW264189   5.693   3.807   9.798 -0.7878 -1.5117 -0.4239
19751SOL     OW64190   1.690   0.735   1.872  0.1431  0.3197 -0.6001
19751SOL    HW164191   1.668   0.644   1.892 -0.0689  0.7559  1.4129
19751SOL    HW264192   1.611   0.771   1.832 -0.6844  0.2440  0.8956
19752SOL     OW64193   0.530   5.037   1.012  0.0297  0.0929  0.1788
19752SOL    HW164194   0.522   4.945   1.037  0.7516 -0.2476 -0.8115
19752SOL    HW264195   0.615   5.063   1.046  0.9276 -0.3132 -1.6389
19753SOL     OW64196   2.861   3.849  10.579 -0.0551 -0.2977  0.0302
19753SOL    HW164197   2.804   3.775  10.558  0.8194 -0.4877 -1.9078
19753SOL    HW264198   2.894   3.879  10.494  0.9240  1.2742  0.9041
19754SOL     OW64199   1.502   6.986   8.391  0.2118 -0.0866 -0.2213
19754SOL    HW164200   1.429   7.012   8.334 -1.5253  0.9943  2.2905
19754SOL    HW264201   1.580   7.018   8.346 -1.0121  0.3260 -2.1677
19755SOL     OW64202   9.243   3.749   6.159  0.5694 -0.3297 -0.0285
19755SOL    HW164203   9.309   3.818   6.153  1.3443 -0.7921  2.2969
19755SOL    HW264204   9.278   3.677   6.107 -0.0151  0.7506 -2.0616
19756SOL     OW64205   5.436   7.522   0.012  0.5821 -0.4810 -0.6644
19756SOL    HW164206   5.447   7.512   0.106 -2.6726 -0.9287 -0.2098
19756SOL    HW264207   5.473   7.442  -0.026 -1.1699 -1.9567  0.5991
19757SOL     OW64208   0.415  11.620   2.196 -0.2757 -0.6975  0.0022
19757SOL    HW164209   0.323  11.646   2.203  0.0812  0.3698  1.2331
19757SOL    HW264210   0.418  11.533   2.234 -1.0897 -1.6203 -1.9155
19758SOL     OW64211   3.734   4.685   7.415  0.9621 -0.1227  0.2767
19758SOL    HW164212   3.720   4.771   7.375 -1.7735 -0.6496 -0.0598
19758SOL    HW264213   3.786   4.637   7.351 -0.6981  0.0701 -1.2696
19759SOL     OW64214   2.406   4.160   5.924 -0.0338  0.4042  0.6719
19759SOL    HW164215   2.382   4.106   5.848  1.4122 -0.2323  0.6282
19759SOL    HW264216   2.405   4.250   5.891 -0.0736  0.1883  0.0649
19760SOL     OW64217   3.966   4.926  10.078  0.2087  0.2866 -0.1808
19760SOL    HW164218   3.947   4.861  10.010 -1.5279  0.2670  0.2676
19760SOL    HW264219   3.918   4.895  10.155 -0.1954  1.7920  0.2100
19761SOL     OW64220   0.607   6.291   5.356  0.1208  0.4817 -0.2590
19761SOL    HW164221   0.697   6.258   5.365 -0.0335  0.3289  0.9539
19761SOL    HW264222   0.555   6.212   5.341 -0.1391  0.2158  1.7905
19762SOL     OW64223   2.115   1.041  10.564  0.1437 -1.2011  0.3063
19762SOL    HW164224   2.122   1.110  10.630 -1.5314 -1.4987  0.8567
19762SOL    HW264225   2.195   1.048  10.512 -0.1141  1.3579  0.1489
19763SOL     OW64226   8.653  11.298   0.183  0.1037 -0.3319 -0.3932
19763SOL    HW164227   8.693  11.319   0.267 -2.2711 -1.0499  1.0401
19763SOL    HW264228   8.562  11.276   0.205 -0.2813 -1.8005 -3.0004
19764SOL     OW64229   2.209   1.639   9.712  0.5920 -0.8244 -0.0348
19764SOL    HW164230   2.124   1.654   9.753  0.7342  3.1197 -0.7603
19764SOL    HW264231   2.272   1.648   9.783  0.5278 -0.9162  0.0334
19765SOL     OW64232   7.239   3.765   5.262 -0.0788  0.0997  0.3676
19765SOL    HW164233   7.166   3.797   5.315 -1.9292 -3.1925  0.1172
19765SOL    HW264234   7.203   3.761   5.173  1.1937  0.5091 -0.1822
19766SOL     OW64235   4.003  10.828   5.194  0.2640 -0.3420  0.6861
19766SOL    HW164236   4.085  10.792   5.162 -0.1563 -1.4699  0.8209
19766SOL    HW264237   3.948  10.751   5.212 -1.0754  0.4013 -0.0626
19767SOL     OW64238   5.611   0.636   1.169  0.4043 -0.1829  0.2569
19767SOL    HW164239   5.528   0.624   1.123  0.6938 -2.4424  0.2087
19767SOL    HW264240   5.588   0.632   1.262  0.3968 -0.5256  0.2444
19768SOL     OW64241   3.307   6.675   7.848 -0.1866 -0.2942 -0.0691
19768SOL    HW164242   3.313   6.755   7.796  0.8171 -1.2964 -1.5438
19768SOL    HW264243   3.377   6.684   7.914  1.1257 -0.6999 -1.3499
19769SOL     OW64244   1.874   0.399   0.360  0.3265  0.0521  0.3048
19769SOL    HW164245   1.859   0.482   0.404 -1.0655  0.5933 -1.0884
19769SOL    HW264246   1.814   0.400   0.285  1.5536 -1.4228 -0.7766
19770SOL     OW64247   7.610   3.232  11.546  0.0999  0.6432  0.0536
19770SOL    HW164248   7.668   3.161  11.575  0.9318  0.8009 -1.1161
19770SOL    HW264249   7.545   3.189  11.491 -0.6822  0.5205  1.0509
19771SOL     OW64250   7.829   3.746   0.221  0.1442  0.2267 -0.2909
19771SOL    HW164251   7.818   3.840   0.234 -0.2590  0.3191 -1.1643
19771SOL    HW264252   7.746   3.718   0.182 -0.2088 -0.7228  1.0925
19772SOL     OW64253   4.670  11.450   6.451  0.0798 -0.2830  0.0879
19772SOL    HW164254   4.607  11.386   6.483 -0.0602  0.4002  1.2255
19772SOL    HW264255   4.626  11.492   6.378 -1.7070  1.6260  2.1060
19773SOL     OW64256   6.374   6.314   7.599  0.1135 -0.2122  0.2687
19773SOL    HW164257   6.450   6.262   7.628 -0.0960 -1.9500 -2.0176
19773SOL    HW264258   6.300   6.255   7.607 -0.2347 -0.1368 -1.8225
19774SOL     OW64259   4.882  11.487   4.768 -0.0202  0.0076 -0.2945
19774SOL    HW164260   4.823  11.492   4.693  0.2969 -2.4472 -0.7900
19774SOL    HW264261   4.845  11.417   4.823  1.0804  0.1106  0.6184
19775SOL     OW64262  11.078   3.833   1.213  0.0752 -0.0022  0.2944
19775SOL    HW164263  11.152   3.829   1.153 -0.8777  1.2922 -1.0421
19775SOL    HW264264  11.012   3.883   1.166 -1.6531 -1.0918  1.4664
19776SOL     OW64265   5.949   8.029  10.695  0.4046 -0.0641  0.1022
19776SOL    HW164266   5.988   7.944  10.674 -2.6378 -1.7192  0.5776
19776SOL    HW264267   5.921   8.021  10.787 -2.1989  0.4103 -0.5654
19777SOL     OW64268   7.868   9.290   3.260 -0.1905 -0.8668 -0.3232
19777SOL    HW164269   7.955   9.327   3.245 -0.9108  1.0450 -0.0284
19777SOL    HW264270   7.830   9.280   3.172 -1.0229  1.8207 -0.3440
19778SOL     OW64271   4.943   0.224   5.475 -0.0206 -0.3388  0.3668
19778SOL    HW164272   4.950   0.279   5.553 -0.5626 -0.4343  0.4891
19778SOL    HW264273   5.017   0.250   5.420  0.0802  0.0756  0.6957
19779SOL     OW64274   2.937   5.280   5.469 -0.0882  0.4727  0.0059
19779SOL    HW164275   2.910   5.354   5.522  1.1678  1.8639 -1.2169
19779SOL    HW264276   2.878   5.209   5.496 -1.1615  1.8143  1.3872
19780SOL     OW64277  10.514   6.778   3.867 -0.2427  0.2451 -0.5390
19780SOL    HW164278  10.572   6.815   3.933 -0.1521  0.6457 -0.8370
19780SOL    HW264279  10.568   6.775   3.787 -0.4812  0.1605 -0.6969
19781SOL     OW64280   9.180   4.383   8.457  0.1092  0.1320  0.3605
19781SOL    HW164281   9.209   4.454   8.515 -1.1537 -0.1276  1.3726
19781SOL    HW264282   9.246   4.378   8.389  0.0354  2.5696  0.0275
19782SOL     OW64283   1.245   9.886   9.356  0.1389  0.2676  0.2601
19782SOL    HW164284   1.302   9.850   9.424 -0.2184 -0.1839  0.3254
19782SOL    HW264285   1.194   9.811   9.325 -0.7020  0.7322  0.4779
19783SOL     OW64286   7.006   0.747   9.534 -0.0410 -0.1989  0.1097
19783SOL    HW164287   7.028   0.678   9.597  0.0644  0.6873  1.0647
19783SOL    HW264288   7.065   0.819   9.555 -0.5063  0.3876 -0.5348
19784SOL     OW64289   9.506   3.165   1.091  0.2841  0.4655 -0.2754
19784SOL    HW164290   9.470   3.089   1.137  0.9030 -0.8277 -1.8408
19784SOL    HW264291   9.591   3.180   1.132  0.0017  0.5470  0.2830
19785SOL     OW64292   2.715   9.281   3.248  0.3526  0.7278  0.0210
19785SOL    HW164293   2.753   9.281   3.161  1.2321  1.2565  0.3863
19785SOL    HW264294   2.783   9.320   3.304  0.6962 -1.5693  1.3266
19786SOL     OW64295   1.885   9.661   9.112  1.0137  0.1121 -0.1835
19786SOL    HW164296   1.828   9.693   9.183  0.3475 -1.8233  0.2165
19786SOL    HW264297   1.971   9.650   9.153  0.7016 -0.7073  0.2831
19787SOL     OW64298   5.947   0.405  11.210  0.0922 -0.1318  0.4421
19787SOL    HW164299   6.033   0.415  11.251 -0.3195 -0.1200  1.3184
19787SOL    HW264300   5.961   0.339  11.143  0.6158 -0.6944  1.0905
19788SOL     OW64301   3.331   8.797  10.520  0.0544 -0.0893  0.0870
19788SOL    HW164302   3.426   8.785  10.517  0.2584  1.3614 -0.0346
19788SOL    HW264303   3.301   8.774  10.432  0.3049 -0.3755  0.0725
19789SOL     OW64304   9.116   5.368  10.942  0.2797  0.0852  0.4631
19789SOL    HW164305   9.160   5.290  10.909 -0.0198  0.3073 -0.5279
19789SOL    HW264306   9.095   5.418  10.863  0.0623  0.9465  1.0517
19790SOL     OW64307   3.569  10.193   2.505 -0.2796 -0.3691 -0.0919
19790SOL    HW164308   3.521  10.250   2.444 -1.3546  0.5798  1.5557
19790SOL    HW264309   3.550  10.229   2.591  2.0357 -1.0401  0.7714
19791SOL     OW64310   2.305   0.668   1.526  0.1333  0.3115  0.3592
19791SOL    HW164311   2.391   0.650   1.488  0.1916 -0.8109  0.9610
19791SOL    HW264312   2.315   0.644   1.618 -0.9143 -0.1257  0.3674
19792SOL     OW64313   6.015   9.650   8.854 -0.1573  0.0747  0.0914
19792SOL    HW164314   5.958   9.710   8.901 -1.8790 -0.2683 -1.4459
19792SOL    HW264315   5.992   9.563   8.888  3.2419  0.1762  3.2826
19793SOL     OW64316   7.179   8.923   2.327 -0.1089 -0.3026  0.1154
19793SOL    HW164317   7.234   8.906   2.403  0.9810 -1.0664 -0.8114
19793SOL    HW264318   7.235   8.905   2.252 -1.0929  0.6292 -0.8856
19794SOL     OW64319   2.229   0.572  11.351 -0.5478 -0.4678  0.3830
19794SOL    HW164320   2.303   0.560  11.292  0.9175  2.4296  1.4705
19794SOL    HW264321   2.234   0.663  11.379 -3.9480 -0.4228  1.3420
19795SOL     OW64322   6.559   2.547   1.628  1.2177 -0.2603 -0.1006
19795SOL    HW164323   6.537   2.505   1.711 -2.3150 -0.6518 -1.0752
19795SOL    HW264324   6.587   2.475   1.572  1.1777 -0.3763  0.0271
19796SOL     OW64325   5.685  11.680  10.013  0.1779  0.1409 -0.6972
19796SOL    HW164326   5.703  11.730  10.093 -1.5535 -2.0716  1.2193
19796SOL    HW264327   5.614  11.729   9.971  0.7827  1.0722 -0.6741
19797SOL     OW64328   3.504   9.230   0.218 -0.7660  0.3133  0.2990
19797SOL    HW164329   3.503   9.213   0.312 -0.8121  2.0151  0.6321
19797SOL    HW264330   3.424   9.280   0.202 -0.7725  0.0180 -0.6582
19798SOL     OW64331   1.389   1.615   2.123  0.4096 -0.1269 -0.0819
19798SOL    HW164332   1.380   1.521   2.138  1.3854 -0.0088  1.4379
19798SOL    HW264333   1.483   1.632   2.131  0.2532  0.9803 -0.3715
19799SOL     OW64334  11.221   5.321   8.185 -0.7158  0.0392  0.3295
19799SOL    HW164335  11.299   5.293   8.137  0.1030  0.9061  1.1129
19799SOL    HW264336  11.162   5.354   8.118 -0.3955 -0.5841 -0.2674
19800SOL     OW64337   3.740   0.415   2.501 -0.3633 -0.1086 -0.1838
19800SOL    HW164338   3.681   0.381   2.568  0.2129  0.4291  0.6185
19800SOL    HW264339   3.812   0.353   2.498 -0.4992 -0.2544 -0.4761
19801SOL     OW64340   0.013   9.054   4.443  0.1137  0.7865  0.2174
19801SOL    HW164341  -0.038   9.022   4.369  1.3097  1.9196 -1.1424
19801SOL    HW264342   0.012   8.981   4.506  0.9247 -1.1024 -1.8218
19802SOL     OW64343   4.672   2.030   0.613 -0.2754 -0.1299  0.3300
19802SOL    HW164344   4.630   2.049   0.529  0.7311 -0.1889 -0.2025
19802SOL    HW264345   4.734   1.959   0.594 -0.4077 -0.5030  1.2329
19803SOL     OW64346   7.586   9.762   8.866 -0.0468 -0.0842 -0.1913
19803SOL    HW164347   7.563   9.778   8.958 -0.8156  0.6959 -0.5053
19803SOL    HW264348   7.646   9.833   8.844  0.6521 -0.6472 -0.1082
19804SOL     OW64349   4.114   2.283   7.780 -0.3331 -0.2843 -0.5345
19804SOL    HW164350   4.018   2.278   7.782 -0.3584  0.2598 -0.3048
19804SOL    HW264351   4.142   2.191   7.781 -0.8516 -0.4575 -0.8615
19805SOL     OW64352   8.084   7.943   1.414 -0.0929  0.2550  0.4545
19805SOL    HW164353   8.086   7.927   1.320  0.2688 -0.9344  0.6500
19805SOL    HW264354   7.998   7.910   1.442  0.2005 -0.3240  0.6876
19806SOL     OW64355   1.286   5.232   7.224  0.1502 -0.5948 -0.3791
19806SOL    HW164356   1.289   5.155   7.167 -0.7854 -1.5698  0.8350
19806SOL    HW264357   1.196   5.233   7.258  0.3994  0.5523  0.2828
19807SOL     OW64358   5.500   2.775   4.435 -0.2361 -0.2202 -0.3227
19807SOL    HW164359   5.525   2.863   4.465 -0.1922 -0.1958 -0.4311
19807SOL    HW264360   5.488   2.725   4.516 -0.3680 -0.0853 -0.2587
19808SOL     OW64361   6.724   2.547   5.523 -0.5413  0.3953 -0.6577
19808SOL    HW164362   6.798   2.597   5.490 -0.5507  0.3217 -0.7878
19808SOL    HW264363   6.666   2.613   5.562  0.2282  0.3236  0.6668
19809SOL     OW64364  11.394  10.735   7.291  0.3471 -0.0908 -0.3748
19809SOL    HW164365  11.410  10.674   7.219 -1.2158 -1.1007  0.0704
19809SOL    HW264366  11.381  10.679   7.367 -4.1870  0.4117 -0.4792
19810SOL     OW64367   6.130   8.173   3.094 -0.3112  0.3435  0.0604
19810SOL    HW164368   6.121   8.204   3.184 -1.3779 -0.3802  0.2223
19810SOL    HW264369   6.223   8.153   3.085  0.1254  2.0431  0.4415
19811SOL     OW64370   5.549   4.842   6.992 -0.1708 -0.0027  0.6030
19811SOL    HW164371   5.624   4.860   6.935 -0.1044 -0.1093  0.6563
19811SOL    HW264372   5.588   4.823   7.077 -0.2597 -0.0387  0.6360
19812SOL     OW64373  10.370   7.773   5.089 -0.3801  0.5605 -0.4611
19812SOL    HW164374  10.337   7.863   5.098 -1.4574  0.1385  0.0254
19812SOL    HW264375  10.299   7.726   5.045 -0.3644 -0.3488  0.4634
19813SOL     OW64376   4.373   9.290   6.040 -0.8972 -0.4644  0.1988
19813SOL    HW164377   4.402   9.366   5.990  0.1926 -1.3542 -0.5854
19813SOL    HW264378   4.391   9.215   5.983 -1.1624 -1.3843  1.2755
19814SOL     OW64379   7.982   2.461   5.640 -0.8840  0.3002  0.2324
19814SOL    HW164380   7.927   2.534   5.668 -1.2345 -0.0215  0.3961
19814SOL    HW264381   8.027   2.434   5.720  0.2116  1.1400 -0.0760
19815SOL     OW64382   4.469   9.720  10.073 -0.2260 -0.0292 -0.7999
19815SOL    HW164383   4.427   9.717  10.159  0.6296  1.2301 -0.3058
19815SOL    HW264384   4.424   9.791  10.027 -1.0476 -1.0462 -1.6237
19816SOL     OW64385   7.089   9.458   2.084  0.6796  0.0952 -0.1315
19816SOL    HW164386   7.057   9.446   2.174  0.9574  0.1075 -0.0298
19816SOL    HW264387   7.070   9.375   2.041  0.8084 -0.0118  0.0196
19817SOL     OW64388   8.580   8.189   6.293 -0.4686  0.3159 -0.2744
19817SOL    HW164389   8.635   8.215   6.368 -0.1908  1.0383 -0.7225
19817SOL    HW264390   8.521   8.123   6.330  0.9510 -0.8075  0.1332
19818SOL     OW64391  10.293   8.076   3.968 -0.6591 -0.1209  0.1679
19818SOL    HW164392  10.282   7.995   4.019 -0.7814  0.4111  1.0189
19818SOL    HW264393  10.243   8.061   3.888 -1.4867 -0.5333  0.7425
19819SOL     OW64394   3.706   2.672   2.091  0.6601  0.2485  0.0871
19819SOL    HW164395   3.784   2.727   2.104  1.0835 -0.4339  0.4799
19819SOL    HW264396   3.633   2.731   2.107  1.1141  0.4899  1.4539
19820SOL     OW64397  11.508  10.806   6.825 -0.1986  0.0095 -0.4537
19820SOL    HW164398  11.595  10.840   6.850  0.2814 -1.3685 -0.1727
19820SOL    HW264399  11.525  10.752   6.748 -0.5220 -1.5822  0.5540
19821SOL     OW64400   4.628  10.764   9.228 -0.2093  0.4951 -0.5161
19821SOL    HW164401   4.719  10.770   9.201 -0.0389 -1.4684 -0.5584
19821SOL    HW264402   4.601  10.676   9.200 -0.9429 -0.4896  2.8753
19822SOL     OW64403   2.937   8.525   0.728 -0.4924 -0.0764 -0.1258
19822SOL    HW164404   2.849   8.534   0.692 -0.2167  0.5487 -0.6642
19822SOL    HW264405   2.975   8.450   0.681 -0.7861 -0.4368  0.2113
19823SOL     OW64406  10.590   8.130   7.309  0.0287 -0.3174  0.2142
19823SOL    HW164407  10.669   8.178   7.333  1.1338 -1.3697 -1.1614
19823SOL    HW264408  10.605   8.103   7.219 -1.5985 -1.1941  0.1703
19824SOL     OW64409  11.307   3.467  11.318  0.0150 -0.1467  0.1930
19824SOL    HW164410  11.225   3.509  11.291  0.6264 -0.7747 -3.0493
19824SOL    HW264411  11.354   3.535  11.367 -1.5749  0.8770  0.3763
19825SOL     OW64412   6.333   5.680  11.249  0.0093 -0.4915  0.0745
19825SOL    HW164413   6.258   5.740  11.249 -0.1945 -0.7473  0.2153
19825SOL    HW264414   6.297   5.595  11.273  0.3747 -0.5784  0.3286
19826SOL     OW64415   2.663   3.446   5.429  0.2764 -0.1429 -0.2395
19826SOL    HW164416   2.714   3.453   5.510  3.3493  0.0305 -2.0393
19826SOL    HW264417   2.648   3.352   5.418  3.0652 -0.5740 -1.1892
19827SOL     OW64418   2.525   6.404   5.909  0.5016  0.3168  0.0499
19827SOL    HW164419   2.563   6.323   5.875  0.4747  0.4922 -0.4018
19827SOL    HW264420   2.574   6.474   5.865  1.4317  0.5711  1.4058
19828SOL     OW64421   6.068  10.092   7.378 -0.4076 -0.0829 -0.0480
19828SOL    HW164422   6.078   9.997   7.387  1.9284 -0.1200 -2.0508
19828SOL    HW264423   6.128  10.128   7.443  0.9353 -0.0461 -1.2879
19829SOL     OW64424   5.324   7.361   1.562  0.0721 -0.6323 -0.2701
19829SOL    HW164425   5.408   7.393   1.594 -0.7943  0.4120  1.0632
19829SOL    HW264426   5.286   7.434   1.514  0.4042 -1.4876 -1.9252
19830SOL     OW64427   7.780  10.337   1.597  0.3952  0.1719  0.4094
19830SOL    HW164428   7.762  10.273   1.666  1.8425  1.6031  2.2233
19830SOL    HW264429   7.875  10.331   1.583  0.4528  1.4385  0.1552
19831SOL     OW64430   1.107   9.768   4.718 -0.3436  0.4789 -0.3442
19831SOL    HW164431   1.129   9.679   4.747 -2.1304 -0.0603 -0.5691
19831SOL    HW264432   1.125   9.823   4.794  0.2240 -0.1512 -0.0123
19832SOL     OW64433   2.038  10.558   2.200  0.3070 -0.4037 -0.1990
19832SOL    HW164434   1.980  10.494   2.158 -1.1504 -0.1213  1.2962
19832SOL    HW264435   2.083  10.601   2.127 -0.9213 -1.0591 -1.3733
19833SOL     OW64436  10.327   1.730   5.873  0.2481  0.0286  0.0529
19833SOL    HW164437  10.279   1.652   5.846  0.8883 -0.7194  0.9665
19833SOL    HW264438  10.416   1.698   5.892  1.3620  1.4688 -2.2326
19834SOL     OW64439   5.265   0.495  11.133 -0.2694 -0.3051  0.4333
19834SOL    HW164440   5.252   0.589  11.121 -1.9247 -0.2838  1.9347
19834SOL    HW264441   5.321   0.469  11.060 -0.5361  1.6640 -0.5413
19835SOL     OW64442  10.489   7.671   3.920  0.1339  0.1282 -0.1893
19835SOL    HW164443  10.483   7.683   3.825  2.3240  1.9538 -0.1693
19835SOL    HW264444  10.499   7.577   3.932 -0.6360 -0.1781 -1.7047
19836SOL     OW64445   7.054   9.989  10.602 -0.2831  0.1253  0.1943
19836SOL    HW164446   7.009  10.066  10.636  0.2588  0.2060  0.7493
19836SOL    HW264447   6.993   9.917  10.618  0.0667  0.1155  1.6422
19837SOL     OW64448   1.865   0.740   7.313 -0.3746  0.0801 -0.3136
19837SOL    HW164449   1.928   0.690   7.260  0.0820 -1.7108  1.7545
19837SOL    HW264450   1.908   0.823   7.331  0.8527 -0.5805 -0.0826
19838SOL     OW64451   6.206   4.212   7.944  0.3529 -0.4170  0.0821
19838SOL    HW164452   6.274   4.260   7.896 -0.1104  0.3398  0.1717
19838SOL    HW264453   6.255   4.146   7.994  0.9702 -0.2588 -0.2913
19839SOL     OW64454   8.432   7.694   4.682  0.0014 -0.2126 -0.2744
19839SOL    HW164455   8.365   7.625   4.674 -0.8298  0.5872 -0.3292
19839SOL    HW264456   8.388   7.773   4.651  0.6333  0.5398  0.7131
19840SOL     OW64457  11.582   2.806   1.553 -0.2665  0.0774 -0.2918
19840SOL    HW164458  11.673   2.790   1.578 -0.3771 -2.3030 -1.2032
19840SOL    HW264459  11.573   2.901   1.554  3.1207  0.6096 -3.1330
19841SOL     OW64460  10.725   2.577   5.202  0.1618  0.4973  0.3150
19841SOL    HW164461  10.679   2.636   5.262 -1.5182  0.7290 -1.1197
19841SOL    HW264462  10.761   2.635   5.135  1.1786  0.1507  0.5436
19842SOL     OW64463   0.380   8.390   9.011  0.7162 -0.1675 -0.4451
19842SOL    HW164464   0.371   8.433   9.096  0.8386  0.9762 -0.9860
19842SOL    HW264465   0.290   8.381   8.979  0.7251  0.3300 -0.6250
19843SOL     OW64466   9.894   8.934   3.111  0.0741 -0.3158 -0.0409
19843SOL    HW164467   9.894   8.838   3.107 -1.8681 -0.4254  1.1554
19843SOL    HW264468   9.906   8.962   3.020 -0.8916 -1.7327 -0.6366
19844SOL     OW64469   2.621  10.199   6.272 -0.1951 -0.0799  0.7007
19844SOL    HW164470   2.625  10.135   6.342  0.7124 -0.6145  0.1773
19844SOL    HW264471   2.556  10.263   6.302 -0.1698 -0.5468  1.8027
19845SOL     OW64472   2.928   1.085   5.209  0.6250 -0.8506 -0.1634
19845SOL    HW164473   3.011   1.040   5.225  1.1898 -1.0494 -3.0811
19845SOL    HW264474   2.919   1.146   5.282  3.5693 -0.5360  0.0556
19846SOL     OW64475   0.666   0.755   1.789  0.6585 -0.1888  0.1710
19846SOL    HW164476   0.618   0.798   1.860 -1.5847 -0.0330 -1.3469
19846SOL    HW264477   0.625   0.669   1.781  2.1343 -0.9204  0.2586
19847SOL     OW64478  10.258   7.828  11.153 -0.7674  0.8481  0.2723
19847SOL    HW164479  10.292   7.745  11.120  0.1903  1.5130 -0.4812
19847SOL    HW264480  10.165   7.813  11.166 -0.6531 -0.2607 -0.1100
19848SOL     OW64481   7.208   5.001   9.878  0.4850 -0.2688 -0.2547
19848SOL    HW164482   7.283   5.060   9.887 -0.0638  0.4675 -0.4837
19848SOL    HW264483   7.232   4.924   9.931  1.2379  0.1142 -0.0279
19849SOL     OW64484   5.182   8.082   5.371  0.1526  0.3785  0.3421
19849SOL    HW164485   5.274   8.073   5.393 -0.3387 -0.4120  2.2350
19849SOL    HW264486   5.180   8.148   5.301  2.0750  0.8716  0.7135
19850SOL     OW64487   6.858   9.076   5.693 -0.1426 -0.1834  0.6840
19850SOL    HW164488   6.922   9.038   5.753 -1.2209 -1.8766  0.8574
19850SOL    HW264489   6.811   9.141   5.745  0.6079  0.1870  0.9108
19851SOL     OW64490   2.195   1.368   1.719 -0.3534 -0.4351 -0.5607
19851SOL    HW164491   2.222   1.297   1.778 -0.9050 -0.2671 -0.0920
19851SOL    HW264492   2.272   1.423   1.711 -0.6585  0.3312  1.1815
19852SOL     OW64493   1.532   8.941   2.022  0.1391  0.2125  0.0999
19852SOL    HW164494   1.533   8.940   1.926 -0.1431  2.4290  0.0171
19852SOL    HW264495   1.603   8.881   2.047 -0.3128 -1.0369 -1.4492
19853SOL     OW64496  11.129  10.749   7.237  0.0915 -0.0195  0.1214
19853SOL    HW164497  11.224  10.740   7.243  0.2025  1.0057  0.2571
19853SOL    HW264498  11.112  10.765   7.145  0.1942  0.9613  0.2548
19854SOL     OW64499   6.993   2.253   5.240 -0.6696  0.2458 -0.0525
19854SOL    HW164500   6.898   2.261   5.229 -0.5957  1.9996  0.2654
19854SOL    HW264501   7.020   2.339   5.271  1.0621 -0.1768 -0.3184
19855SOL     OW64502   9.865   9.579   9.032 -0.1000  0.6485 -0.3861
19855SOL    HW164503   9.834   9.517   8.966 -1.4435  0.9053 -0.0245
19855SOL    HW264504   9.933   9.531   9.080 -0.2563 -0.1059 -0.9040
19856SOL     OW64505   0.672   6.583   0.967  0.5985  0.0007  0.8521
19856SOL    HW164506   0.656   6.644   0.895  2.3716  1.4536  1.6315
19856SOL    HW264507   0.701   6.502   0.924 -3.0159 -0.9119 -0.2809
19857SOL     OW64508   3.710   1.628   9.861  0.0340  0.3786  0.2138
19857SOL    HW164509   3.705   1.717   9.895  3.0464  0.2853  1.2374
19857SOL    HW264510   3.722   1.638   9.767 -2.2154  0.8930 -0.0602
19858SOL     OW64511   2.078  11.216   6.706 -0.1739 -0.4002  0.5527
19858SOL    HW164512   2.119  11.242   6.789  0.6643  1.0767 -0.2886
19858SOL    HW264513   2.148  11.174   6.657 -0.1213  0.4981 -0.1703
19859SOL     OW64514   5.360   2.050   1.705 -0.2069 -0.1855 -0.2738
19859SOL    HW164515   5.448   2.044   1.743  0.2067 -0.6618 -1.2735
19859SOL    HW264516   5.310   2.103   1.768  1.3080  1.7772 -0.6184
19860SOL     OW64517   2.746   4.789   6.990  0.5005 -0.0971  0.6297
19860SOL    HW164518   2.820   4.790   7.051 -0.4043 -1.6823  1.8303
19860SOL    HW264519   2.681   4.847   7.029  0.3685 -0.2168  0.5897
19861SOL     OW64520   4.838  11.019   8.032  0.2732  0.5263  0.1181
19861SOL    HW164521   4.776  11.073   8.081 -0.4348  0.1241 -0.3164
19861SOL    HW264522   4.905  10.996   8.096  0.0051  1.0162  0.5851
19862SOL     OW64523   0.426  10.514   3.961  0.6283  0.2738 -0.0482
19862SOL    HW164524   0.344  10.470   3.937 -0.4962  1.7435  0.9143
19862SOL    HW264525   0.444  10.574   3.889 -0.3976  1.5500  0.7018
19863SOL     OW64526   8.378   1.452  11.594  0.3192  0.4241 -0.4090
19863SOL    HW164527   8.288   1.485  11.603  0.5519  1.1013 -0.5325
19863SOL    HW264528   8.367   1.360  11.567 -0.3390  0.2669  0.3510
19864SOL     OW64529   9.787   4.527   5.821  0.0552  0.1457 -0.1150
19864SOL    HW164530   9.879   4.530   5.793  0.1582  0.1369  0.2191
19864SOL    HW264531   9.756   4.617   5.812 -0.7471 -0.3209 -2.9913
19865SOL     OW64532   9.869  10.843   1.766  0.6568  0.4206 -0.0103
19865SOL    HW164533   9.840  10.932   1.744 -0.5021 -0.2828 -1.5490
19865SOL    HW264534   9.880  10.800   1.681  2.6206 -0.5105  0.6584
19866SOL     OW64535   4.525   1.229   3.204 -0.0712 -0.3238  0.2399
19866SOL    HW164536   4.613   1.196   3.188  0.0629 -0.0853  0.4888
19866SOL    HW264537   4.493   1.180   3.279 -1.1928 -2.3783 -1.4702
19867SOL     OW64538   7.878   5.417   6.760  0.1126  0.1954  0.4558
19867SOL    HW164539   7.805   5.452   6.709  0.2972  1.1275  0.8085
19867SOL    HW264540   7.950   5.411   6.697 -0.8084 -2.8769 -0.4758
19868SOL     OW64541  10.437   5.700   7.055  0.0176  0.7395  0.0434
19868SOL    HW164542  10.450   5.726   6.964 -0.1501  0.4164 -0.0725
19868SOL    HW264543  10.484   5.617   7.063 -1.7558 -0.3513 -0.3224
19869SOL     OW64544   7.282   0.087   2.958 -0.4809  0.2759  0.4752
19869SOL    HW164545   7.241   0.173   2.950  0.5581  0.7152 -0.4266
19869SOL    HW264546   7.289   0.056   2.867  0.8515  0.0836  0.6254
19870SOL     OW64547   7.966   1.487   7.758 -0.2278  0.0015 -0.4337
19870SOL    HW164548   7.957   1.411   7.817 -0.2764 -0.5059 -1.0870
19870SOL    HW264549   8.059   1.487   7.734  0.7340  2.4883  2.6405
19871SOL     OW64550   9.480   6.291   4.472  0.3837 -0.0886  0.3168
19871SOL    HW164551   9.437   6.373   4.497  0.9711  0.0370  0.9480
19871SOL    HW264552   9.413   6.224   4.486 -0.4353  0.3643 -1.1537
19872SOL     OW64553   2.283   9.570   6.742  0.2667  0.1603 -0.5071
19872SOL    HW164554   2.341   9.526   6.680  2.6163  0.1688  1.5264
19872SOL    HW264555   2.228   9.500   6.778  0.1062 -0.1285 -1.2898
19873SOL     OW64556   1.210   0.517   8.942 -0.5615 -0.4944  0.1664
19873SOL    HW164557   1.186   0.467   8.864  1.4052  1.7062 -2.0213
19873SOL    HW264558   1.136   0.576   8.957 -0.8777 -0.8215 -0.1020
19874SOL     OW64559   2.010  10.175   4.899 -0.3379 -0.4945  0.0380
19874SOL    HW164560   1.981  10.095   4.856  0.3825 -0.3486 -0.7552
19874SOL    HW264561   2.102  10.158   4.921 -0.4333 -0.2126  0.6557
19875SOL     OW64562   3.145   7.113   8.704  0.2183 -0.2570  0.1876
19875SOL    HW164563   3.167   7.104   8.797  1.1584 -0.5882 -0.0630
19875SOL    HW264564   3.114   7.204   8.696  0.0149 -0.2636  0.8436
19876SOL     OW64565  11.241   4.880   3.440 -0.0561 -0.1157  0.1461
19876SOL    HW164566  11.331   4.858   3.416 -0.1010 -0.7580  0.5497
19876SOL    HW264567  11.187   4.820   3.388 -0.2512  0.2423 -0.0666
19877SOL     OW64568   2.006   3.737   9.398 -0.4730  0.1614 -0.1013
19877SOL    HW164569   1.975   3.647   9.400 -0.6552  0.1298 -2.3833
19877SOL    HW264570   2.083   3.736   9.342  0.5977  1.1599  1.2724
19878SOL     OW64571   4.800   3.311   9.616  0.5960  0.7633 -0.1315
19878SOL    HW164572   4.835   3.257   9.688 -1.5442  0.0356  0.4409
19878SOL    HW264573   4.833   3.269   9.537 -0.4730 -1.0517  0.3223
19879SOL     OW64574   1.654  11.590   6.225  0.1473  0.6319  0.3071
19879SOL    HW164575   1.700  11.665   6.187  1.4178 -0.0808  0.3820
19879SOL    HW264576   1.678  11.516   6.170 -1.0669  0.2580  0.2530
19880SOL     OW64577   9.683  10.362   3.949 -0.0292 -0.0700  0.2899
19880SOL    HW164578   9.747  10.309   3.903 -0.3810 -1.2091  1.0703
19880SOL    HW264579   9.601  10.347   3.902 -0.0250  0.2251  0.1828
19881SOL     OW64580   9.117   8.086   9.379  0.5751  0.1131  0.7096
19881SOL    HW164581   9.131   8.014   9.440  0.1273 -0.3795  0.2280
19881SOL    HW264582   9.034   8.125   9.406  0.1259 -0.4178  0.1048
19882SOL     OW64583   6.835   4.271   5.882  0.3020  0.3386  0.0298
19882SOL    HW164584   6.881   4.305   5.958  0.2064 -0.2178  0.3425
19882SOL    HW264585   6.886   4.303   5.807  0.8541  0.2284  0.3515
19883SOL     OW64586   8.474   4.880  11.437  0.2539  0.3184 -0.5405
19883SOL    HW164587   8.390   4.856  11.475  1.2353 -1.6432  0.5005
19883SOL    HW264588   8.460   4.875  11.342 -1.3012  1.9890 -0.4529
19884SOL     OW64589   8.951   5.283   7.519 -0.2056 -0.5952  0.4627
19884SOL    HW164590   8.925   5.368   7.554  1.0495 -0.1209  0.2868
19884SOL    HW264591   8.896   5.271   7.442 -0.8661 -0.2673  0.8702
19885SOL     OW64592  11.623   4.028   4.516  0.2358 -0.2325 -0.3564
19885SOL    HW164593  11.547   4.041   4.572 -1.1944 -2.4675 -1.6028
19885SOL    HW264594  11.697   4.065   4.565 -1.3780  0.4449  1.6720
19886SOL     OW64595   3.036   8.323   9.180  0.4894  0.1101  0.0770
19886SOL    HW164596   3.103   8.316   9.248  0.8031 -0.3039 -0.2687
19886SOL    HW264597   2.971   8.383   9.216 -0.2407 -1.4710  1.4884
19887SOL     OW64598   3.256   3.002   1.965 -0.1055  0.2007 -0.3767
19887SOL    HW164599   3.342   3.034   1.939  1.3844 -3.6469 -0.8368
19887SOL    HW264600   3.255   3.008   2.060 -0.5650  2.8683 -0.4886
19888SOL     OW64601   0.790   2.512   4.906 -0.3378 -0.4649  0.3784
19888SOL    HW164602   0.720   2.535   4.968 -1.9989  2.5011 -2.2746
19888SOL    HW264603   0.759   2.433   4.863 -0.5823 -0.8913  1.3251
19889SOL     OW64604   0.239  10.853   5.532  0.0204 -0.3673 -0.5384
19889SOL    HW164605   0.197  10.891   5.455 -1.2379  1.2054  0.8607
19889SOL    HW264606   0.269  10.767   5.502 -0.5851  0.1091 -2.7185
19890SOL     OW64607   3.799   4.107   1.476  0.1343 -0.2581  0.3489
19890SOL    HW164608   3.881   4.132   1.434  0.1905 -0.3670  0.3925
19890SOL    HW264609   3.769   4.031   1.426 -1.6033  1.6899 -1.7574
19891SOL     OW64610   2.597   8.161   0.982  0.5063  0.1652 -0.1219
19891SOL    HW164611   2.686   8.197   0.978  1.3796 -1.7813  0.5210
19891SOL    HW264612   2.589   8.110   0.901  0.5259 -0.8356  0.4984
19892SOL     OW64613   1.246   8.014   1.637  0.2522  0.7163 -0.7801
19892SOL    HW164614   1.176   7.950   1.625  1.4053 -1.2818  2.0560
19892SOL    HW264615   1.200   8.098   1.643 -1.6560 -0.2322 -1.2902
19893SOL     OW64616  11.559   3.394  10.051 -0.5745 -0.5888  0.3914
19893SOL    HW164617  11.472   3.355  10.058 -1.3312  1.0061  0.4487
19893SOL    HW264618  11.592   3.366   9.966 -1.2649 -1.0025  0.2579
19894SOL     OW64619  10.201   3.463   8.256  0.3456 -0.1355  0.0709
19894SOL    HW164620  10.142   3.486   8.185 -1.3407 -0.4559  1.3244
19894SOL    HW264621  10.280   3.514   8.239 -0.5192  0.7982 -1.2925
19895SOL     OW64622   4.493   1.891   1.825 -0.4810  0.3983 -0.6140
19895SOL    HW164623   4.445   1.884   1.908  0.4213  1.4867  0.0198
19895SOL    HW264624   4.442   1.953   1.773  0.7673  2.4402  0.4916
19896SOL     OW64625   6.679   5.209   8.907  0.4206  0.3175 -0.0259
19896SOL    HW164626   6.767   5.219   8.871 -0.5116  2.2973 -1.9054
19896SOL    HW264627   6.658   5.294   8.945 -1.3825  0.4744 -1.2811
19897SOL     OW64628   9.803   0.912  11.619 -0.4690 -0.2545  0.0050
19897SOL    HW164629   9.755   0.861  11.685 -0.1053 -0.9465 -0.2597
19897SOL    HW264630   9.845   0.982  11.670  0.2912 -1.1249  0.6110
19898SOL     OW64631   2.145   9.737   8.593 -0.4249 -0.2765 -0.5013
19898SOL    HW164632   2.195   9.792   8.653 -2.3248  0.1754  0.7227
19898SOL    HW264633   2.169   9.769   8.506  0.2638  0.9208  0.1024
19899SOL     OW64634   5.089  11.239   6.692 -0.4949  0.3394 -0.3720
19899SOL    HW164635   5.044  11.198   6.619 -1.6722 -0.3879  0.7164
19899SOL    HW264636   5.024  11.300   6.728 -0.1364  0.2757  0.3972
19900SOL     OW64637   1.405  11.134   0.608  0.2547  0.2102  0.1149
19900SOL    HW164638   1.332  11.073   0.611  0.2740  0.0578 -1.4890
19900SOL    HW264639   1.480  11.085   0.640 -0.0853 -0.0508  0.5046
19901SOL     OW64640   4.976   3.005  11.609  0.6414 -0.1558  0.3039
19901SOL    HW164641   4.960   2.913  11.589 -1.3658  0.0962  0.6022
19901SOL    HW264642   4.913   3.027  11.678  0.6976  1.5741 -0.1371
19902SOL     OW64643  11.405   8.283   2.646 -0.1964  0.2414  0.4493
19902SOL    HW164644  11.491   8.317   2.624 -0.2288  0.7359  1.0642
19902SOL    HW264645  11.388   8.216   2.579  1.9930 -2.1017  2.0365
19903SOL     OW64646   9.064   3.984   9.949 -0.7074  0.3834  0.3258
19903SOL    HW164647   8.981   4.012   9.912 -0.9068  0.2328  0.6521
19903SOL    HW264648   9.130   4.035   9.902 -0.9458  0.1173 -0.3054
19904SOL     OW64649   7.653   5.688  10.667 -0.1425 -0.2408 -0.1226
19904SOL    HW164650   7.614   5.653  10.586 -1.0280 -1.3522  0.7486
19904SOL    HW264651   7.747   5.682  10.653 -0.2833 -0.0692 -1.2206
19905SOL     OW64652  10.543   2.534   0.584 -0.0646 -0.7324 -0.8045
19905SOL    HW164653  10.614   2.487   0.540  0.2622 -0.6312 -0.3899
19905SOL    HW264654  10.475   2.469   0.596  0.7724 -1.3832  0.6692
19906SOL     OW64655   8.909   5.029  11.075  0.1262 -0.2006 -0.4762
19906SOL    HW164656   8.844   4.961  11.089 -0.4408  0.2629 -0.8484
19906SOL    HW264657   8.880   5.102  11.128  0.7770 -0.2596 -0.0162
19907SOL     OW64658   5.165   5.967   7.352 -0.3999 -0.5072 -0.4240
19907SOL    HW164659   5.162   5.930   7.440 -2.1774 -3.7449 -1.6414
19907SOL    HW264660   5.139   6.058   7.363  2.3919  0.1111  2.6546
19908SOL     OW64661   4.127  11.010   4.377 -0.2079  0.4423 -0.7230
19908SOL    HW164662   4.133  10.924   4.419 -1.5461  0.8995  0.4961
19908SOL    HW264663   4.048  11.005   4.323 -0.6619  1.1044 -0.1293
19909SOL     OW64664   6.924  11.531   2.342  0.1627 -0.4458  0.1010
19909SOL    HW164665   6.989  11.541   2.273  1.6509  0.5611  1.5565
19909SOL    HW264666   6.952  11.592   2.410 -1.4871 -1.0683  1.4152
19910SOL     OW64667   0.085   6.932  10.021  0.0709 -0.2224 -0.4759
19910SOL    HW164668   0.055   6.844  10.046  3.1042 -0.9973  0.8740
19910SOL    HW264669   0.075   6.934   9.926 -4.9279  0.0691 -0.1933
19911SOL     OW64670   5.822   5.467  11.461  0.4182 -0.7531 -0.5762
19911SOL    HW164671   5.736   5.507  11.472  0.6888 -0.4182  0.4273
19911SOL    HW264672   5.809   5.376  11.487  0.5144 -0.5304  0.2940
19912SOL     OW64673   1.188   1.582   4.869 -0.5071 -0.1540  0.1936
19912SOL    HW164674   1.175   1.500   4.916  1.4937  0.4978  2.0671
19912SOL    HW264675   1.140   1.647   4.921 -0.5225  0.1627 -0.2128
19913SOL     OW64676   4.801   0.049   3.331 -0.0213 -0.3757 -0.2666
19913SOL    HW164677   4.795   0.050   3.427 -0.5380 -0.0216 -0.3023
19913SOL    HW264678   4.758   0.129   3.303  0.0534 -0.5197 -0.8045
19914SOL     OW64679   9.257  11.346   7.373  0.4333 -0.1570  0.6001
19914SOL    HW164680   9.243  11.436   7.402  0.5285 -0.0729  0.3880
19914SOL    HW264681   9.170  11.305   7.376  0.2260  0.2110 -0.2123
19915SOL     OW64682   1.958   3.506   2.384 -0.1662 -0.3870  0.1268
19915SOL    HW164683   1.915   3.489   2.300 -2.5042 -2.7537  1.6436
19915SOL    HW264684   1.910   3.581   2.420 -0.4465 -0.5641  0.1303
19916SOL     OW64685   3.278   4.815   3.710 -0.3506 -0.5308 -0.3767
19916SOL    HW164686   3.280   4.824   3.805 -0.5285  0.3816 -0.4468
19916SOL    HW264687   3.351   4.869   3.679  1.5936 -3.1082 -0.6483
19917SOL     OW64688   9.541   9.656   1.742 -0.7453 -0.1374 -0.2742
19917SOL    HW164689   9.484   9.647   1.665 -1.1271  0.9948 -0.1400
19917SOL    HW264690   9.528   9.574   1.791 -1.0794 -0.5428 -1.0284
19918SOL     OW64691   1.453   0.206   7.273  0.0080 -0.0573 -0.3023
19918SOL    HW164692   1.450   0.259   7.353 -1.3527 -1.1379  0.4073
19918SOL    HW264693   1.511   0.133   7.294  1.1856  0.6374 -0.9881
19919SOL     OW64694   7.555   4.571   4.878  0.4873 -0.0638 -0.4317
19919SOL    HW164695   7.616   4.532   4.816 -0.2837  0.8080 -1.7976
19919SOL    HW264696   7.501   4.630   4.825  0.7334  1.8436  1.2993
19920SOL     OW64697   3.991   1.927   1.111 -0.2163  0.0026 -0.1091
19920SOL    HW164698   4.084   1.947   1.103 -0.3917  0.2357 -2.4108
19920SOL    HW264699   3.984   1.835   1.086 -0.6283  0.0425 -0.1484
19921SOL     OW64700   3.376   8.694   7.651 -0.4494 -0.6130  0.5644
19921SOL    HW164701   3.425   8.730   7.577  0.9767  2.5977  2.8593
19921SOL    HW264702   3.290   8.673   7.615 -0.2335  1.9734 -1.7900
19922SOL     OW64703   2.372   6.799   6.972  0.3113 -0.0083  0.1920
19922SOL    HW164704   2.283   6.835   6.982  0.0701  0.4915 -2.8650
19922SOL    HW264705   2.358   6.715   6.928  1.2757 -1.2020  2.0262
19923SOL     OW64706   9.307   9.574   0.758 -0.5964  0.1026  0.4029
19923SOL    HW164707   9.296   9.522   0.838 -0.1460 -1.6821 -0.6494
19923SOL    HW264708   9.257   9.528   0.692 -0.4463  1.2069 -0.5159
19924SOL     OW64709   5.018   3.202   6.380 -0.1006 -0.7856  0.3887
19924SOL    HW164710   4.965   3.281   6.373  0.4335 -0.5489 -2.5841
19924SOL    HW264711   4.973   3.148   6.443 -2.1760  0.6599  0.2425
19925SOL     OW64712   5.805   0.660   4.453 -0.0635  0.3752 -0.7049
19925SOL    HW164713   5.870   0.718   4.412 -2.5611  1.6808 -3.1308
19925SOL    HW264714   5.814   0.577   4.405  1.0358 -0.1186  0.2923
19926SOL     OW64715   1.003   4.200   2.443 -0.3687  0.0484  0.4136
19926SOL    HW164716   0.969   4.112   2.431 -0.1688 -0.0327  0.4323
19926SOL    HW264717   1.033   4.202   2.534 -1.2760  0.4523  0.7131
19927SOL     OW64718   1.574   4.859  11.085  0.2462 -0.2514  0.4884
19927SOL    HW164719   1.598   4.818  11.168  1.6316 -0.7341 -0.1258
19927SOL    HW264720   1.604   4.950  11.093  1.5739 -0.6262  0.0604
19928SOL     OW64721   3.774   5.148   4.125 -0.2193  0.2774 -0.0899
19928SOL    HW164722   3.726   5.140   4.043 -0.6114 -1.5722  0.2806
19928SOL    HW264723   3.708   5.175   4.189  0.2965  2.8422 -0.5294
19929SOL     OW64724   3.511   3.386   1.274 -0.0752 -0.1962 -0.0041
19929SOL    HW164725   3.568   3.365   1.200 -1.5729 -0.6405 -1.0976
19929SOL    HW264726   3.487   3.478   1.261  1.1408  0.2915  1.0132
19930SOL     OW64727   0.770   9.593   0.119 -0.0112  0.1571  0.3804
19930SOL    HW164728   0.679   9.595   0.148  0.2106  0.3305  1.0707
19930SOL    HW264729   0.810   9.521   0.169  0.0091 -0.5481 -0.6110
19931SOL     OW64730   5.405   8.016   7.599 -0.5617 -0.4305  0.2260
19931SOL    HW164731   5.326   7.962   7.607 -1.0736  0.3648  0.7075
19931SOL    HW264732   5.421   8.048   7.688 -0.4670  0.4714 -0.1097
19932SOL     OW64733   0.502  11.593   4.477 -0.1018 -0.4397  0.5702
19932SOL    HW164734   0.506  11.501   4.505  0.1813 -0.3959  0.6830
19932SOL    HW264735   0.577  11.603   4.418 -0.2494 -0.3315  0.4011
19933SOL     OW64736   6.341   1.041   5.822  0.3484 -0.5805 -0.5911
19933SOL    HW164737   6.381   1.040   5.735  1.0900  0.9193 -0.3060
19933SOL    HW264738   6.324   1.134   5.840 -0.3264 -0.9109  0.6234
19934SOL     OW64739   0.853   8.904   5.439 -0.1748  0.1445  0.4563
19934SOL    HW164740   0.863   8.946   5.524 -1.0123 -0.3171  0.7926
19934SOL    HW264741   0.799   8.966   5.389 -0.1484  0.1619  0.4493
19935SOL     OW64742   6.391   9.475   0.559 -0.1828  0.0665  0.0987
19935SOL    HW164743   6.374   9.540   0.628  0.0220 -1.9743  2.2097
19935SOL    HW264744   6.307   9.465   0.515  0.4107  3.8177 -2.3807
19936SOL     OW64745   8.565   9.065   7.549  0.0896 -0.4586  0.0788
19936SOL    HW164746   8.629   9.133   7.570 -0.9821  0.9157 -0.9059
19936SOL    HW264747   8.480   9.107   7.561 -0.6181 -0.7767 -2.9090
19937SOL     OW64748   3.920   5.704   5.647 -0.3496  0.6030  0.5453
19937SOL    HW164749   3.993   5.719   5.587  0.5989  0.6221  1.6550
19937SOL    HW264750   3.959   5.655   5.720 -1.4480  0.6195  1.1658
19938SOL     OW64751   4.439   1.582   1.467  0.3117 -0.4477 -0.1254
19938SOL    HW164752   4.447   1.491   1.497 -3.0738 -0.3166  1.5249
19938SOL    HW264753   4.498   1.631   1.524  1.1978 -1.4122 -0.1751
19939SOL     OW64754   1.382   9.902   1.561 -0.0887 -0.1624  0.3429
19939SOL    HW164755   1.351   9.989   1.537 -1.5798 -0.9517 -0.7796
19939SOL    HW264756   1.407   9.909   1.653 -2.3101  0.9260  0.9348
19940SOL     OW64757  10.235   2.061   8.248  0.1270 -0.2200  0.0364
19940SOL    HW164758  10.166   2.099   8.193 -1.5991 -0.8052  1.6909
19940SOL    HW264759  10.242   1.970   8.217  2.0891  0.4901 -1.8673
19941SOL     OW64760   5.240   2.324   8.553  0.5622  0.0893 -0.2680
19941SOL    HW164761   5.280   2.305   8.469  0.9131  3.3401 -0.9797
19941SOL    HW264762   5.149   2.296   8.543  0.4514  0.9342 -1.9659
19942SOL     OW64763  10.509  11.064   1.115  0.0276 -0.4798  0.2845
19942SOL    HW164764  10.541  11.017   1.192 -0.9219 -2.1631 -0.2988
19942SOL    HW264765  10.574  11.044   1.046  0.6488  0.6747  0.5140
19943SOL     OW64766  10.020   8.873   1.636  0.4823  0.4850 -0.2667
19943SOL    HW164767   9.939   8.872   1.687  1.3678  0.7759  1.2188
19943SOL    HW264768  10.082   8.920   1.691  1.9526 -0.6399 -0.8949
19944SOL     OW64769   2.349   4.200   0.333  0.3280  0.0529 -0.3483
19944SOL    HW164770   2.405   4.249   0.273 -0.1397 -0.7062 -1.4490
19944SOL    HW264771   2.313   4.266   0.393  0.2973  0.9298 -1.3097
19945SOL     OW64772   2.964   0.045   7.572  0.3096 -0.3012 -0.0746
19945SOL    HW164773   2.959   0.001   7.487 -0.9581 -1.4706  0.5614
19945SOL    HW264774   3.012  -0.017   7.628  0.6061  0.1887  0.2160
19946SOL     OW64775   2.899   8.336   0.449 -0.6629  0.2492 -0.0384
19946SOL    HW164776   2.947   8.416   0.430 -1.3002  0.6252 -0.0853
19946SOL    HW264777   2.809   8.355   0.423 -0.9083 -0.3294  0.3678
19947SOL     OW64778   5.013   5.670   3.494  0.4534  0.6365 -0.4752
19947SOL    HW164779   4.997   5.737   3.561  1.1738 -0.0123  0.3827
19947SOL    HW264780   5.103   5.685   3.466  1.1008 -0.7823  0.7175
19948SOL     OW64781   5.985   3.101   9.752  0.0090  0.5842  0.2755
19948SOL    HW164782   6.077   3.075   9.745  0.2616  1.7290 -1.2536
19948SOL    HW264783   5.940   3.043   9.690 -0.1767  0.5463  0.4469
19949SOL     OW64784   8.696   6.393   2.144  0.0134  0.3038  0.2763
19949SOL    HW164785   8.608   6.385   2.181  0.3459 -0.6886  0.8887
19949SOL    HW264786   8.754   6.388   2.221  0.5839  1.6809 -0.0372
19950SOL     OW64787   2.121   3.718   1.874 -0.2858  0.0926  0.3908
19950SOL    HW164788   2.134   3.738   1.782 -0.1099 -3.8299 -0.6032
19950SOL    HW264789   2.192   3.764   1.919  0.0712  1.4669 -1.4718
19951SOL     OW64790   9.421   4.564  11.155 -0.4050 -0.2347 -0.0008
19951SOL    HW164791   9.416   4.476  11.118  2.7674 -0.4216 -0.2594
19951SOL    HW264792   9.371   4.618  11.095  1.9305 -1.0665 -2.9109
19952SOL     OW64793   7.493   4.001   5.930  0.0060  0.2361 -0.3388
19952SOL    HW164794   7.475   3.920   5.881 -3.0887  0.7484 -0.2697
19952SOL    HW264795   7.545   4.054   5.869 -0.1954 -0.7611 -1.4280
19953SOL     OW64796   3.206   7.764   0.972  0.3454  0.2194 -0.5504
19953SOL    HW164797   3.181   7.813   1.051 -2.8432  0.5182 -1.6229
19953SOL    HW264798   3.281   7.712   1.000  1.3683  2.6574  1.7654
19954SOL     OW64799   6.972   1.221   0.961  0.2875 -0.0277  0.0134
19954SOL    HW164800   6.955   1.212   0.868 -1.5289  1.5969  0.1390
19954SOL    HW264801   7.068   1.222   0.968  0.4471 -0.3499 -1.7812
19955SOL     OW64802   7.674   5.610   1.834 -0.0219 -0.2381 -0.0734
19955SOL    HW164803   7.683   5.704   1.851  1.6161 -0.4577  0.4026
19955SOL    HW264804   7.708   5.598   1.746 -0.4253 -0.3542 -0.2132
19956SOL     OW64805   3.090   2.914  10.400 -0.7667 -0.4003 -0.0262
19956SOL    HW164806   3.099   2.920  10.305 -2.0523  1.5910 -0.0737
19956SOL    HW264807   3.178   2.928  10.433 -0.4984  0.0932 -0.9050
19957SOL     OW64808   6.195   0.578   8.482 -0.4062  0.9649  0.4097
19957SOL    HW164809   6.165   0.668   8.468 -2.3254  0.2247 -0.5225
19957SOL    HW264810   6.138   0.524   8.427  1.9039 -0.6912 -0.5011
19958SOL     OW64811   4.553   1.951   5.521 -0.1913 -0.2005 -0.7671
19958SOL    HW164812   4.574   1.861   5.545 -0.2872  0.2253  1.0254
19958SOL    HW264813   4.457   1.954   5.521 -0.2842 -0.6779 -3.2781
19959SOL     OW64814   3.392   1.167   7.230 -0.3016 -0.0306 -0.1716
19959SOL    HW164815   3.318   1.211   7.187 -1.2501 -0.8757  0.5532
19959SOL    HW264816   3.452   1.146   7.159 -1.3973 -0.5442 -0.9708
19960SOL     OW64817   5.836   2.972   1.507  0.0147 -0.1630 -0.3445
19960SOL    HW164818   5.804   2.917   1.436  1.8774 -0.9209 -0.6612
19960SOL    HW264819   5.926   2.993   1.483 -0.5597  2.9968 -0.1848
19961SOL     OW64820  10.710   6.330   8.301 -0.4656  0.0751 -0.1286
19961SOL    HW164821  10.711   6.408   8.246  0.8914  0.2036  0.0308
19961SOL    HW264822  10.629   6.336   8.351 -0.3188  1.4488 -0.0267
19962SOL     OW64823   0.272  11.351   2.824  0.2351 -1.0941  0.1196
19962SOL    HW164824   0.177  11.335   2.828 -0.4788  2.2660 -0.5704
19962SOL    HW264825   0.286  11.426   2.882  1.6967  1.1717 -2.8848
19963SOL     OW64826   3.283   2.327   5.470  0.2625  0.1784  0.0848
19963SOL    HW164827   3.277   2.353   5.562  2.0968 -3.2329  1.3560
19963SOL    HW264828   3.229   2.248   5.463 -0.5477  0.8388 -2.0635
19964SOL     OW64829   8.191   2.981  10.569 -0.2833  0.4841 -0.1776
19964SOL    HW164830   8.144   2.944  10.494 -0.3582  1.2769 -0.5276
19964SOL    HW264831   8.269   3.022  10.531  0.6550 -0.7107  0.3800
19965SOL     OW64832   3.763   6.228   2.138  1.2637 -0.1542  0.3455
19965SOL    HW164833   3.762   6.226   2.042  0.2743 -0.0664  0.3487
19965SOL    HW264834   3.723   6.145   2.164  0.0538  0.5113  0.6648
19966SOL     OW64835   5.866  11.220   1.948  0.1698  0.5281  0.1895
19966SOL    HW164836   5.824  11.164   1.882  1.1223 -1.0320  0.8459
19966SOL    HW264837   5.916  11.159   2.002  0.6090  1.9514  1.4474
19967SOL     OW64838   6.955   6.411   4.479 -0.1496  0.3240 -0.5210
19967SOL    HW164839   6.876   6.448   4.439  0.0420 -0.3137 -1.5048
19967SOL    HW264840   7.016   6.402   4.407 -0.0107 -1.4442 -0.2223
19968SOL     OW64841  10.253   7.917  10.822  0.0712 -0.0154  0.0496
19968SOL    HW164842  10.179   7.977  10.831 -0.5595 -0.9648  1.3143
19968SOL    HW264843  10.281   7.899  10.912  0.6588 -1.1326 -0.3403
19969SOL     OW64844  10.624   0.169  10.188 -0.1058  0.7161 -0.3261
19969SOL    HW164845  10.553   0.210  10.138  0.3270  1.1411 -0.6014
19969SOL    HW264846  10.691   0.149  10.122 -0.7686 -1.5078 -0.4036
19970SOL     OW64847   8.256   2.823   3.349  0.1034 -0.1845 -0.2742
19970SOL    HW164848   8.258   2.844   3.256  2.7019  0.1636 -0.2078
19970SOL    HW264849   8.176   2.865   3.382 -0.2960  0.5893 -2.1243
19971SOL     OW64850  10.979   6.189   1.877  0.3693  0.7729 -0.1376
19971SOL    HW164851  10.888   6.213   1.896  0.3117  1.9635 -1.7004
19971SOL    HW264852  10.972   6.105   1.830  0.2055  0.0939  1.0724
19972SOL     OW64853   1.300   6.805   7.340  0.0053  0.2817 -0.2208
19972SOL    HW164854   1.340   6.797   7.427  0.5461 -0.1890 -0.5045
19972SOL    HW264855   1.375   6.810   7.280 -0.3657 -0.2153 -0.7276
19973SOL     OW64856   9.209   1.694   5.294 -0.5604 -0.4389  0.4978
19973SOL    HW164857   9.269   1.648   5.353 -1.7373 -2.3438  0.3003
19973SOL    HW264858   9.124   1.652   5.308 -1.1050 -0.2526 -1.7863
19974SOL     OW64859   8.886   3.379   3.001 -0.5289  0.6073 -0.0810
19974SOL    HW164860   8.827   3.347   3.069  0.0593 -0.4991 -0.0650
19974SOL    HW264861   8.949   3.435   3.047 -0.7602  0.7013  0.1186
19975SOL     OW64862   8.077   1.809   4.987 -0.2922 -0.2604 -0.5999
19975SOL    HW164863   8.062   1.902   5.005 -1.3764 -0.1126 -2.1561
19975SOL    HW264864   7.991   1.774   4.966 -0.0975 -1.9211  1.0774
19976SOL     OW64865  10.681   2.761   5.876  0.7078 -0.2987  0.0857
19976SOL    HW164866  10.757   2.732   5.825 -0.0727 -1.0588 -0.6819
19976SOL    HW264867  10.625   2.805   5.812 -0.3627 -1.4003  0.2263
19977SOL     OW64868  11.542  10.158   3.117 -0.5514 -0.5701  0.3684
19977SOL    HW164869  11.633  10.183   3.131 -0.0611 -1.4497 -1.0634
19977SOL    HW264870  11.542  10.063   3.121 -0.8705 -0.7546 -2.3811
19978SOL     OW64871   2.163   7.145  10.197  0.1228 -0.3349 -0.3783
19978SOL    HW164872   2.127   7.191  10.120 -0.4484  0.1706  0.1772
19978SOL    HW264873   2.106   7.069  10.208  0.6643 -0.8312 -0.8959
19979SOL     OW64874   3.790   8.839   2.710  0.5033  0.2570 -0.4218
19979SOL    HW164875   3.768   8.918   2.760  1.4388 -0.8280  1.8152
19979SOL    HW264876   3.883   8.824   2.728  0.6641 -0.6739 -1.8547
19980SOL     OW64877   5.419   5.652   8.844 -0.5319 -0.1884 -0.4268
19980SOL    HW164878   5.506   5.685   8.821 -1.1278  0.9889 -1.0839
19980SOL    HW264879   5.436   5.569   8.890  1.0788  1.3222  1.9435
19981SOL     OW64880   1.491   3.701   5.202  0.4418  0.7441 -0.7109
19981SOL    HW164881   1.578   3.731   5.173  1.1251 -0.7263 -0.2497
19981SOL    HW264882   1.503   3.680   5.294 -0.6783  1.4412 -0.3901
19982SOL     OW64883   3.887   3.497   7.486  0.0941 -0.2029 -0.6041
19982SOL    HW164884   3.923   3.486   7.399 -0.4446 -0.7072 -0.7742
19982SOL    HW264885   3.963   3.506   7.543  0.4781  2.8074 -1.4088
19983SOL     OW64886   0.357   7.291   9.806  0.0912 -0.0435 -0.2581
19983SOL    HW164887   0.398   7.377   9.817  1.0408 -0.3317 -1.3611
19983SOL    HW264888   0.429   7.228   9.818 -0.8800 -0.8149  2.1724
19984SOL     OW64889   0.365   0.502   6.034 -0.6199 -0.2731  0.2823
19984SOL    HW164890   0.460   0.492   6.041 -0.5287  0.6929  0.6454
19984SOL    HW264891   0.342   0.463   5.950 -0.2200 -2.5110  1.1532
19985SOL     OW64892   2.173   6.414   9.819 -0.4074  0.4864  0.4338
19985SOL    HW164893   2.183   6.336   9.872 -1.8948  0.2236  0.3888
19985SOL    HW264894   2.093   6.398   9.768  0.7535  0.8743 -1.6268
19986SOL     OW64895   0.759   3.646  11.547  0.0880 -0.2127  0.1783
19986SOL    HW164896   0.808   3.573  11.509 -0.9217 -0.3369 -0.9180
19986SOL    HW264897   0.754   3.711  11.477  0.7904  0.8546  1.0725
19987SOL     OW64898   5.303   7.058   4.747  0.6049 -0.4840 -0.3100
19987SOL    HW164899   5.291   6.973   4.703  1.0565 -1.6027  1.5990
19987SOL    HW264900   5.230   7.111   4.718  0.5639 -1.3671 -1.9276
19988SOL     OW64901   8.249   7.345  10.920 -0.5203  0.2883  0.5485
19988SOL    HW164902   8.164   7.341  10.877 -0.0888 -1.7705 -0.2396
19988SOL    HW264903   8.295   7.266  10.891  1.3166  0.8605  1.6806
19989SOL     OW64904   3.068   6.396   4.243 -0.1850  0.5915 -0.6125
19989SOL    HW164905   3.103   6.340   4.313  1.7287  0.0100 -1.9659
19989SOL    HW264906   3.102   6.358   4.162 -0.9632  2.2250 -1.7640
19990SOL     OW64907   8.073   1.215   5.870  0.2393 -0.3228  0.0437
19990SOL    HW164908   8.089   1.257   5.954  1.4595 -0.8258  0.0836
19990SOL    HW264909   8.002   1.154   5.887 -0.3746  0.4656  0.3932
19991SOL     OW64910   0.235   8.236   1.953  0.5310  0.1108  0.1637
19991SOL    HW164911   0.285   8.296   2.009  0.2163  0.0878  0.4682
19991SOL    HW264912   0.225   8.156   2.006  1.1365 -0.2979 -0.3192
19992SOL     OW64913   4.215  11.244  10.537  0.0209  0.0859 -0.5930
19992SOL    HW164914   4.177  11.222  10.622  0.4886 -1.2184 -0.7033
19992SOL    HW264915   4.140  11.251  10.478 -0.2205 -0.1289 -0.3116
19993SOL     OW64916   8.687   0.597   1.446  0.6844  0.1352  0.2329
19993SOL    HW164917   8.640   0.553   1.375  0.9828 -0.6948  0.5411
19993SOL    HW264918   8.710   0.683   1.410  0.3220 -0.0563 -0.4674
19994SOL     OW64919   6.707   2.511   2.883  0.2670 -0.1372  0.3480
19994SOL    HW164920   6.620   2.540   2.855  1.5265  2.0286 -1.7818
19994SOL    HW264921   6.735   2.576   2.947  0.5530 -0.4893  0.5858
19995SOL     OW64922  11.571   3.170   8.322 -0.4399  0.6315 -0.1118
19995SOL    HW164923  11.633   3.161   8.250 -0.4179  0.3009 -0.0506
19995SOL    HW264924  11.565   3.265   8.336  0.8251  0.6270  0.5589
19996SOL     OW64925   9.815   9.332   5.968  0.1387 -0.3359 -0.0115
19996SOL    HW164926   9.726   9.320   6.001  0.6066 -2.0126  0.7463
19996SOL    HW264927   9.806   9.395   5.897 -1.5596 -0.0408  0.4241
19997SOL     OW64928   7.711   8.690   5.586  0.3603  0.2136 -0.2889
19997SOL    HW164929   7.660   8.656   5.659 -0.7932  0.5992 -0.9039
19997SOL    HW264930   7.789   8.633   5.583  0.8563  0.7031  1.7482
19998SOL     OW64931   1.889   4.219  10.604  0.0716  0.0941 -0.2120
19998SOL    HW164932   1.881   4.132  10.565 -0.9652  0.5026 -0.9597
19998SOL    HW264933   1.835   4.215  10.683  0.6551 -0.1681  0.1787
19999SOL     OW64934   9.535   3.781   1.093  0.3980  0.2535  0.5316
19999SOL    HW164935   9.475   3.765   1.020  1.0324  0.0567  0.0378
19999SOL    HW264936   9.540   3.697   1.138 -2.5554  1.1578  2.8370
20000SOL     OW64937   2.161   3.737   6.993  0.0139  0.1418 -0.1970
20000SOL    HW164938   2.234   3.757   6.934  0.6620  1.0550  0.8620
20000SOL    HW264939   2.102   3.682   6.942  1.0807  0.0169 -1.3252
20001SOL     OW64940   1.524   4.971   6.692 -0.3391  0.1539 -0.4748
20001SOL    HW164941   1.454   4.913   6.663 -1.0598  0.6822  0.1754
20001SOL    HW264942   1.482   5.029   6.756  1.1572 -0.9210  1.5868
20002SOL     OW64943   0.305   7.442   9.400 -0.5097 -0.0615  0.2154
20002SOL    HW164944   0.369   7.478   9.461 -0.8259 -1.2572  1.3075
20002SOL    HW264945   0.268   7.367   9.446 -0.4068 -1.3348 -1.6604
20003SOL     OW64946   7.418   4.280   9.510  0.1963 -0.4459  0.2140
20003SOL    HW164947   7.390   4.300   9.421  0.5929 -0.2210  0.1355
20003SOL    HW264948   7.356   4.214   9.541 -0.2447 -0.1608 -0.0499
20004SOL     OW64949   6.025   8.386   8.307 -0.0678  0.0344 -0.1183
20004SOL    HW164950   6.071   8.308   8.274  1.6436  0.5083  0.9860
20004SOL    HW264951   6.035   8.380   8.403 -1.0559  0.9347  0.0481
20005SOL     OW64952   2.228   4.024   0.141 -0.1253  0.0576  0.0321
20005SOL    HW164953   2.290   3.951   0.151 -3.2374 -2.6112  1.9269
20005SOL    HW264954   2.242   4.077   0.219  0.4545  0.0671 -0.0713
20006SOL     OW64955   1.336   1.811  10.121 -0.3635  0.3778 -0.1172
20006SOL    HW164956   1.379   1.853  10.047  1.6508  0.5252  1.0510
20006SOL    HW264957   1.289   1.882  10.165 -1.3251  0.3424 -1.0530
20007SOL     OW64958  11.489   9.778   5.067  0.3389 -0.3516 -0.2898
20007SOL    HW164959  11.413   9.723   5.046  0.9517 -0.1324 -3.5323
20007SOL    HW264960  11.451   9.860   5.098 -0.6161 -1.4266  1.6146
20008SOL     OW64961   9.986   1.718  11.538 -0.1146  0.2541  0.1570
20008SOL    HW164962   9.980   1.779  11.465 -1.0078  0.8643  0.7162
20008SOL    HW264963  10.058   1.660  11.515 -0.9389 -0.1313 -1.6325
20009SOL     OW64964   4.949   0.612  10.219 -0.0322 -0.0912 -0.1493
20009SOL    HW164965   4.877   0.559  10.251  0.7631 -2.7248 -2.3272
20009SOL    HW264966   4.945   0.602  10.124  0.8210  3.0273 -0.6330
20010SOL     OW64967   4.451   9.128   6.998  0.3674 -0.1240 -0.6973
20010SOL    HW164968   4.479   9.065   6.931  1.3306 -0.2530 -0.1853
20010SOL    HW264969   4.442   9.075   7.077  2.1704  0.5279 -0.0120
20011SOL     OW64970   4.518  10.370   6.466 -0.1534  0.1545 -0.1641
20011SOL    HW164971   4.452  10.406   6.524  0.0743  0.2359  0.0466
20011SOL    HW264972   4.474  10.299   6.420 -0.0422 -0.6200  0.8908
20012SOL     OW64973   5.505   1.191   2.416  0.6930 -0.0601  0.1507
20012SOL    HW164974   5.460   1.271   2.391  0.1456 -0.1103  0.9209
20012SOL    HW264975   5.554   1.165   2.338  2.1782  1.8778  0.3537
20013SOL     OW64976   9.047   8.060  11.586  0.3895 -0.0692  0.6143
20013SOL    HW164977   9.043   7.967  11.562 -0.3012 -0.7708  3.2296
20013SOL    HW264978   9.052   8.060  11.681 -1.3408  2.6411  0.7853
20014SOL     OW64979   1.953   7.364   4.087 -0.8789 -0.1843  0.1647
20014SOL    HW164980   1.888   7.307   4.129 -0.7007 -0.3854  0.1689
20014SOL    HW264981   1.918   7.381   4.000 -1.0353 -0.1271  0.2380
20015SOL     OW64982   1.710   7.857   9.248  0.8597 -0.3387 -0.1736
20015SOL    HW164983   1.623   7.818   9.250  0.6303  0.1470 -0.4113
20015SOL    HW264984   1.730   7.866   9.155  0.3749  1.2455 -0.1623
20016SOL     OW64985   2.034   0.869  10.772 -0.1482  0.5460  0.0977
20016SOL    HW164986   2.073   0.923  10.702 -3.2300  0.1666 -2.1022
20016SOL    HW264987   2.086   0.788  10.770  0.9020  1.2029 -0.5481
20017SOL     OW64988   5.981   6.006   7.427  0.3969 -0.3995 -0.0701
20017SOL    HW164989   6.046   5.944   7.394  1.2783  0.4905 -0.0096
20017SOL    HW264990   5.904   5.990   7.372  0.3686 -2.0043  0.3691
20018SOL     OW64991   5.478   9.192   5.233  0.3600 -0.3224 -0.7843
20018SOL    HW164992   5.400   9.140   5.253 -0.3134  1.3290  1.1579
20018SOL    HW264993   5.542   9.164   5.297  1.0106 -0.8467 -1.6432
20019SOL     OW64994   6.986   4.990   4.450 -0.3621 -0.5739  0.1823
20019SOL    HW164995   7.050   5.011   4.517 -1.4002 -0.5791  1.2116
20019SOL    HW264996   6.959   4.900   4.469  1.0172 -1.4426 -1.6779
20020SOL     OW64997   6.558   3.682   5.362  0.0302  0.2803 -0.0643
20020SOL    HW164998   6.581   3.691   5.270 -1.6651  1.1190 -0.4550
20020SOL    HW264999   6.611   3.609   5.394  1.6692  0.8593 -1.3251
20021SOL     OW65000   4.631   2.578   2.272  0.2319  0.3882 -0.3180
20021SOL    HW165001   4.542   2.542   2.276 -0.4506  1.7742 -2.0174
20021SOL    HW265002   4.685   2.514   2.319 -1.4097 -1.2746 -0.6040
20022SOL     OW65003   5.353  10.069   2.674 -0.1695 -0.2410  0.2671
20022SOL    HW165004   5.446  10.065   2.654 -0.2680 -0.0830 -0.2359
20022SOL    HW265005   5.310  10.055   2.590 -0.6406 -2.6994  0.8252
20023SOL     OW65006   5.192   9.825   5.609 -1.0595 -0.2739  0.3256
20023SOL    HW165007   5.203   9.730   5.597  0.8428 -0.0446 -0.1542
20023SOL    HW265008   5.245   9.845   5.686  0.1973  0.6401 -0.7193
20024SOL     OW65009   3.108   1.633   0.267  0.4850  0.1092 -0.0765
20024SOL    HW165010   3.039   1.644   0.333 -1.3582 -0.4255 -1.8206
20024SOL    HW265011   3.091   1.702   0.203  1.3430 -0.2993 -0.7672
20025SOL     OW65012   8.855   9.793   9.947 -0.0853  0.2206 -0.2769
20025SOL    HW165013   8.782   9.828   9.895  0.7380  1.0493 -0.9034
20025SOL    HW265014   8.888   9.869   9.994  0.2145 -0.2118  0.2161
20026SOL     OW65015   5.917   0.346  10.616  0.3685 -0.2057 -0.6561
20026SOL    HW165016   5.927   0.389  10.532  0.2168  2.6911  0.6908
20026SOL    HW265017   5.949   0.410  10.680  0.0694 -2.1062  1.5297
20027SOL     OW65018   2.881   3.183   7.909 -0.1820  0.0686 -0.3739
20027SOL    HW165019   2.886   3.093   7.878  2.4310  0.4431 -1.3054
20027SOL    HW265020   2.861   3.235   7.831 -3.0208  0.2873  0.3731
20028SOL     OW65021   8.027   2.433  11.463 -0.2326  0.0864  0.1893
20028SOL    HW165022   8.115   2.456  11.495 -0.1900 -0.5927  0.5666
20028SOL    HW265023   8.043   2.379  11.386 -0.3197 -0.2506  0.4089
20029SOL     OW65024  11.454   8.211  10.926 -0.3690  0.0532 -0.0702
20029SOL    HW165025  11.434   8.302  10.944  1.3660  0.7408 -1.2679
20029SOL    HW265026  11.395   8.186  10.855  1.4958  1.4577 -2.2697
20030SOL     OW65027   9.261   3.135  10.105  0.1909 -0.0560  0.0279
20030SOL    HW165028   9.263   3.217  10.155  0.2388 -0.4496  0.6858
20030SOL    HW265029   9.301   3.071  10.163  2.7130 -0.0066 -1.5125
20031SOL     OW65030   1.556   2.790   4.806 -0.2701 -0.1349 -0.5626
20031SOL    HW165031   1.605   2.860   4.762 -0.3597  1.5385  1.8033
20031SOL    HW265032   1.596   2.784   4.893 -3.1847  0.1877  0.9060
20032SOL     OW65033   9.037   0.097  10.931  0.4529  0.0856  0.3136
20032SOL    HW165034   9.091   0.018  10.936  1.0788  0.4290 -0.6684
20032SOL    HW265035   9.054   0.143  11.013 -2.5485 -2.3831  2.5420
20033SOL     OW65036   7.302   2.669   4.912  0.1674  0.0816  0.1799
20033SOL    HW165037   7.310   2.611   4.836  0.5592  0.7485 -0.3033
20033SOL    HW265038   7.348   2.749   4.886 -1.4636  1.1178  0.3266
20034SOL     OW65039   6.870   4.440   8.425 -0.0576  0.5168 -0.2901
20034SOL    HW165040   6.790   4.417   8.472 -0.4857  0.3900 -1.0579
20034SOL    HW265041   6.937   4.449   8.493 -0.3797 -0.8242  0.2266
20035SOL     OW65042   3.328   0.062   5.138 -0.1257 -0.2286  0.4659
20035SOL    HW165043   3.310   0.135   5.078 -1.6988 -0.8599  0.1201
20035SOL    HW265044   3.406   0.020   5.102  0.0662  0.5338 -0.0369
20036SOL     OW65045   8.233   9.272   0.042  0.0829  0.2712  0.4275
20036SOL    HW165046   8.258   9.244   0.130  1.2550  0.6074  0.2158
20036SOL    HW265047   8.152   9.223   0.024  0.9903 -1.4629  0.8471
20037SOL     OW65048   2.030   1.034   0.567 -0.6197 -0.1879 -0.0994
20037SOL    HW165049   1.936   1.039   0.585 -0.5948  0.4049 -0.1267
20037SOL    HW265050   2.071   1.056   0.651 -0.4928 -1.2540  0.1402
20038SOL     OW65051   0.976   7.630   9.762 -0.8574  0.2474 -0.2498
20038SOL    HW165052   0.925   7.684   9.822 -0.4118 -0.1274  0.4924
20038SOL    HW265053   1.061   7.620   9.806 -1.0927 -1.4619 -0.1112
20039SOL     OW65054   3.736   5.157   5.238 -0.7066 -0.1179 -0.4026
20039SOL    HW165055   3.755   5.208   5.159  0.5462 -1.7004 -1.1736
20039SOL    HW265056   3.819   5.154   5.286 -1.1992 -0.0399  0.4833
20040SOL     OW65057  11.063   9.265   7.572  0.1168 -0.2185  0.3316
20040SOL    HW165058  11.099   9.178   7.588  0.3303 -0.5033 -1.5648
20040SOL    HW265059  10.985   9.250   7.519 -1.0730  0.6263  1.7565
20041SOL     OW65060   8.414   0.949   6.121  0.0277  0.2650 -0.5173
20041SOL    HW165061   8.389   0.857   6.117  2.9264 -0.7593  1.5361
20041SOL    HW265062   8.489   0.956   6.062 -2.1698  2.2572 -3.3498
20042SOL     OW65063   6.411   4.320   3.908  0.0759  0.3938 -0.7041
20042SOL    HW165064   6.431   4.329   4.001 -0.2069 -1.7446 -0.3891
20042SOL    HW265065   6.342   4.384   3.892 -0.3272  0.3421  0.6913
20043SOL     OW65066   9.310   5.143  10.789  0.3127 -0.5703 -0.1080
20043SOL    HW165067   9.381   5.199  10.757  2.1004 -1.1257  2.5572
20043SOL    HW265068   9.340   5.054  10.771  0.7604 -0.8425  1.7605
20044SOL     OW65069   4.999  10.242   4.529 -0.0169 -0.2063  0.3921
20044SOL    HW165070   5.065  10.287   4.476 -2.3009  2.4743 -0.4335
20044SOL    HW265071   4.961  10.176   4.470  1.4320 -1.3736  0.6998
20045SOL     OW65072   6.620  11.512  11.187 -0.1770  0.3402 -0.2741
20045SOL    HW165073   6.566  11.487  11.262  1.7080 -0.2318  0.9560
20045SOL    HW265074   6.568  11.578  11.141 -1.2197  1.0161  1.7514
20046SOL     OW65075   6.233   8.313   9.702  0.0752 -0.1360  0.1039
20046SOL    HW165076   6.273   8.234   9.664 -0.1538 -0.4547  0.5192
20046SOL    HW265077   6.139   8.300   9.689  0.0679  0.3718 -0.4033
20047SOL     OW65078  11.565  10.742   1.216 -0.1224  0.2215 -0.0283
20047SOL    HW165079  11.555  10.836   1.230  1.3987  0.6066 -1.2302
20047SOL    HW265080  11.591  10.708   1.301 -0.2913  0.9674  0.3320
20048SOL     OW65081   2.794   8.853   3.864 -0.2013 -0.3734  0.4591
20048SOL    HW165082   2.729   8.904   3.816 -1.2265 -1.5345  0.5410
20048SOL    HW265083   2.769   8.863   3.956 -1.3381 -2.1593  0.3894
20049SOL     OW65084   5.291  10.908   3.274 -0.6785 -0.0209 -0.5120
20049SOL    HW165085   5.236  10.933   3.200  0.4096  1.9814 -0.7222
20049SOL    HW265086   5.376  10.947   3.254  1.0074 -3.2508 -0.3874
20050SOL     OW65087   0.857   1.065   3.799 -0.0242  0.3231  0.3691
20050SOL    HW165088   0.899   1.136   3.751  0.5240 -0.9228 -1.0774
20050SOL    HW265089   0.920   0.993   3.796 -2.4166 -1.9358 -2.6574
20051SOL     OW65090   5.095   9.576   1.580  0.0707  0.6172 -0.6424
20051SOL    HW165091   5.186   9.558   1.605 -0.0920 -0.0702 -0.5339
20051SOL    HW265092   5.096   9.576   1.485  0.3800  1.6563 -0.6550
20052SOL     OW65093   1.032   6.163   8.603  0.3663 -0.7196 -0.1021
20052SOL    HW165094   0.963   6.188   8.542 -1.1949 -0.4787  1.6844
20052SOL    HW265095   1.096   6.116   8.549 -0.7480 -0.1824 -1.9691
20053SOL     OW65096   1.447   4.939  11.368 -0.8047 -0.0231  0.5927
20053SOL    HW165097   1.517   4.915  11.429  2.7937 -0.4527 -3.1853
20053SOL    HW265098   1.463   5.031  11.349 -0.6979 -0.3236 -0.8907
20054SOL     OW65099   5.992   9.971   9.154  0.1119  0.1018  0.5446
20054SOL    HW165100   6.050  10.038   9.190  0.5602  1.4226 -2.3454
20054SOL    HW265101   5.913  10.019   9.127 -0.9897 -1.1345  1.4521
20055SOL     OW65102   6.966   0.901   5.352 -0.1271 -0.3440 -0.6798
20055SOL    HW165103   6.925   0.977   5.394  2.5272  0.7376  0.1658
20055SOL    HW265104   6.922   0.826   5.390 -1.5430  0.7178 -0.1165
20056SOL     OW65105   6.063   8.247   4.172 -0.4372  0.3276  0.4062
20056SOL    HW165106   6.046   8.174   4.233  0.9304  1.1861  1.8932
20056SOL    HW265107   5.977   8.268   4.136 -1.2575 -0.4103  1.8337
20057SOL     OW65108   3.878   0.644   9.287  0.0889  0.3677 -0.3084
20057SOL    HW165109   3.907   0.731   9.312  0.0622  0.4912 -0.7091
20057SOL    HW265110   3.858   0.650   9.194  0.4494 -0.1669 -0.4229
20058SOL     OW65111  11.275   7.886  10.906 -0.1069 -0.4803  0.4301
20058SOL    HW165112  11.219   7.812  10.885 -1.6080 -0.0936  2.7084
20058SOL    HW265113  11.221   7.963  10.886  0.1403 -0.0811  1.2558
20059SOL     OW65114   4.595   2.620   7.563 -0.4162  0.0495  0.1894
20059SOL    HW165115   4.625   2.678   7.633 -1.4270  0.6085  0.1691
20059SOL    HW265116   4.590   2.675   7.486  3.9034 -1.2136 -1.2835
20060SOL     OW65117   4.015   6.545   4.577  0.0254  0.3463  0.3200
20060SOL    HW165118   3.992   6.462   4.619  1.0458  0.1029  0.4131
20060SOL    HW265119   4.051   6.519   4.492  1.3019  0.6203  0.7618
20061SOL     OW65120   7.708   7.307   4.303 -0.2444 -0.6367  0.5586
20061SOL    HW165121   7.685   7.214   4.304  1.0642 -0.9897  0.7969
20061SOL    HW265122   7.687   7.337   4.215 -0.5134 -1.2058  0.4277
20062SOL     OW65123   6.443   0.310   6.868  0.5319  0.2142 -0.3117
20062SOL    HW165124   6.418   0.337   6.956  1.3019 -1.1561  0.3537
20062SOL    HW265125   6.365   0.324   6.815 -0.2219  0.2084  0.7704
20063SOL     OW65126   3.750   4.417   3.653 -0.1040  0.2399  0.7683
20063SOL    HW165127   3.707   4.385   3.574  0.1123  1.8628 -0.0613
20063SOL    HW265128   3.685   4.406   3.722 -1.3241  1.2725 -0.1727
20064SOL     OW65129  10.555   4.694   4.812 -0.0149 -0.2776 -0.0979
20064SOL    HW165130  10.544   4.744   4.731  0.4333 -0.4309 -0.2548
20064SOL    HW265131  10.478   4.716   4.864 -0.7055 -0.7752 -0.8841
20065SOL     OW65132   6.472   1.572   4.462  0.0808  0.1536 -0.0546
20065SOL    HW165133   6.380   1.597   4.466  0.4728  1.5592  0.9159
20065SOL    HW265134   6.508   1.623   4.389 -0.0122 -0.8233 -0.8033
20066SOL     OW65135   9.624   8.602   9.399  0.3863  0.3322 -0.3100
20066SOL    HW165136   9.690   8.670   9.382  0.8007 -0.4316 -1.9375
20066SOL    HW265137   9.642   8.573   9.488  3.7520 -1.3728 -1.3508
20067SOL     OW65138   5.741   6.747   2.695 -0.4678  0.0935  0.2734
20067SOL    HW165139   5.809   6.787   2.750 -1.4417 -0.4419  1.9271
20067SOL    HW265140   5.660   6.791   2.721 -1.0005 -0.3654 -0.5593
20068SOL     OW65141   0.754   6.198  11.079  0.0017  0.5226 -0.6431
20068SOL    HW165142   0.772   6.286  11.113 -2.3200  0.9149 -0.2638
20068SOL    HW265143   0.707   6.154  11.149  0.5093 -0.8068 -1.1024
20069SOL     OW65144   0.611   3.313  10.266  0.1905 -0.0598 -0.4376
20069SOL    HW165145   0.692   3.262  10.261  0.2451  0.0636 -0.8193
20069SOL    HW265146   0.601   3.351  10.179  1.5884  2.7801  0.5145
20070SOL     OW65147   2.663   8.475   4.703  0.4095 -0.0998  0.1581
20070SOL    HW165148   2.612   8.556   4.709  0.7451  0.2433 -1.2700
20070SOL    HW265149   2.607   8.409   4.745 -0.2454  0.6897  0.5744
20071SOL     OW65150  10.345   7.641   6.679  0.1374 -0.5313  0.3864
20071SOL    HW165151  10.390   7.701   6.620 -0.4176 -1.1822 -0.7184
20071SOL    HW265152  10.263   7.687   6.702 -0.4026 -0.9426 -0.6526
20072SOL     OW65153   3.808   6.854  11.016 -0.1948  0.1014  0.2435
20072SOL    HW165154   3.751   6.930  11.013  1.3142  1.3126  0.8497
20072SOL    HW265155   3.768   6.796  11.080 -0.6715  0.9742  0.7438
20073SOL     OW65156   4.308   1.338   5.136 -0.1414  0.2865 -0.6048
20073SOL    HW165157   4.332   1.418   5.090  3.5890 -0.1244  0.2940
20073SOL    HW265158   4.280   1.366   5.223  3.0213  0.6651  0.3904
20074SOL     OW65159   6.031   2.491   5.176  0.2140  0.5225 -0.1144
20074SOL    HW165160   6.123   2.493   5.151  0.1801  0.0899 -0.2827
20074SOL    HW265161   5.984   2.510   5.094  0.1872  2.1301  0.2483
20075SOL     OW65162   3.310   1.471   9.126 -0.3222  0.1855  0.2002
20075SOL    HW165163   3.239   1.485   9.188 -1.7791  0.3823 -1.4358
20075SOL    HW265164   3.307   1.377   9.107 -1.4734  0.4750 -1.3012
20076SOL     OW65165   4.627   9.129   6.086  0.1161 -0.1167 -0.6421
20076SOL    HW165166   4.613   9.165   5.998  0.4451  0.6962 -0.3646
20076SOL    HW265167   4.621   9.204   6.145 -0.4800 -0.7161  0.0830
20077SOL     OW65168   2.905   8.861   2.532  0.1168 -0.1381 -0.2978
20077SOL    HW165169   2.891   8.773   2.565 -0.9708 -0.6340 -2.0004
20077SOL    HW265170   2.866   8.862   2.445 -1.2843  2.4690  0.2402
20078SOL     OW65171   5.448  10.987   0.972  0.7386  0.5928  0.9664
20078SOL    HW165172   5.515  10.989   1.040  2.4136  0.4797 -0.5909
20078SOL    HW265173   5.426  10.894   0.962  0.3205  0.6316  1.4931
20079SOL     OW65174   2.755  11.084   9.260 -0.6995 -0.2867  0.0716
20079SOL    HW165175   2.712  11.157   9.304 -0.9310 -1.1107  1.2582
20079SOL    HW265176   2.715  11.080   9.174 -0.9700  0.7340  0.1433
20080SOL     OW65177   3.054  11.034   5.771  0.1377  0.5431 -0.5985
20080SOL    HW165178   3.080  11.110   5.720  0.5521  0.8850  0.1095
20080SOL    HW265179   3.047  10.963   5.708 -1.1500  1.3591 -1.4275
20081SOL     OW65180   2.939   2.621   3.535 -0.3250  0.7308 -0.2108
20081SOL    HW165181   2.866   2.675   3.503 -0.5194  1.4717  1.3521
20081SOL    HW265182   2.896   2.542   3.569 -0.8261  2.2725  3.1433
20082SOL     OW65183   5.708   1.364   3.911  0.2207  0.0075  0.1376
20082SOL    HW165184   5.712   1.459   3.926 -2.8273  0.1576  0.6230
20082SOL    HW265185   5.657   1.331   3.985 -0.5755 -1.7122 -1.1194
20083SOL     OW65186   9.734   9.477   8.485  0.8485  0.5279 -0.2055
20083SOL    HW165187   9.687   9.504   8.406  0.7242  1.0026  0.0294
20083SOL    HW265188   9.826   9.477   8.459  0.6504 -3.0816 -1.5122
20084SOL     OW65189  11.047  11.677   2.948  0.2873 -0.2101 -0.4505
20084SOL    HW165190  10.975  11.723   2.990  1.7680  0.4790  1.4547
20084SOL    HW265191  11.099  11.747   2.907  1.8464 -0.2603  1.3595
20085SOL     OW65192   2.852   1.712   4.341  0.2372  0.2151  0.1138
20085SOL    HW165193   2.841   1.705   4.246 -1.7592  1.8178  0.1497
20085SOL    HW265194   2.947   1.712   4.354  0.5535 -0.9473 -1.7665
20086SOL     OW65195   2.004   0.215   9.432  0.5308 -0.2110 -0.0616
20086SOL    HW165196   1.948   0.192   9.506  2.0088 -0.1739  1.1047
20086SOL    HW265197   1.975   0.303   9.407 -1.1307 -0.8910 -0.6947
20087SOL     OW65198   3.221   6.674   0.229 -0.2591 -0.4970 -0.1668
20087SOL    HW165199   3.180   6.700   0.311  0.4198 -1.6703  0.5807
20087SOL    HW265200   3.150   6.675   0.165 -0.9918 -0.4146  0.6264
20088SOL     OW65201   3.767   5.136   5.825 -0.3640  0.1905  0.1361
20088SOL    HW165202   3.860   5.116   5.830 -0.7742 -1.8373  0.4814
20088SOL    HW265203   3.759   5.198   5.752  1.0103 -1.1687 -1.2267
20089SOL     OW65204   1.942  10.201   4.384  0.2367 -0.1678  0.0271
20089SOL    HW165205   1.877  10.188   4.316 -0.4452  1.4167  0.3364
20089SOL    HW265206   1.945  10.296   4.397  0.1583 -0.4115  2.3368
20090SOL     OW65207   6.863  10.007   0.967 -0.0943 -0.0889 -0.2666
20090SOL    HW165208   6.912  10.086   0.943 -1.4820  0.4476 -1.4599
20090SOL    HW265209   6.920   9.935   0.941  0.1003  0.5201 -1.6118
20091SOL     OW65210   3.978   6.836   8.095 -0.6489  0.4194  0.2289
20091SOL    HW165211   3.970   6.889   8.174  1.3335  0.2475  0.5830
20091SOL    HW265212   4.040   6.883   8.040 -1.3345  0.0896 -0.8695
20092SOL     OW65213   8.888   7.364   6.788 -0.0488  0.0579 -0.5127
20092SOL    HW165214   8.910   7.372   6.695  1.6621 -0.1261 -0.1557
20092SOL    HW265215   8.972   7.349   6.831 -0.5639  1.9712  1.2982
20093SOL     OW65216   3.063   2.271   1.227 -0.0540  0.7174 -0.2891
20093SOL    HW165217   3.154   2.277   1.196  0.7294 -0.4317  1.5476
20093SOL    HW265218   3.072   2.263   1.322 -2.2405  3.0599  0.2008
20094SOL     OW65219  11.195  10.954   9.192  0.8793  0.4914  0.1980
20094SOL    HW165220  11.163  11.037   9.158 -0.0068  0.3388  0.6258
20094SOL    HW265221  11.149  10.888   9.140  0.9627  0.2665  0.4101
20095SOL     OW65222   4.716   3.170   0.723  0.5763  0.1450  0.1863
20095SOL    HW165223   4.646   3.202   0.780 -0.6203 -0.3396 -0.9734
20095SOL    HW265224   4.785   3.141   0.783 -0.0402  0.9974  1.3386
20096SOL     OW65225   6.037   6.538   4.911 -0.0539  0.1429 -0.0287
20096SOL    HW165226   6.105   6.516   4.975 -0.5691  0.0505  0.4945
20096SOL    HW265227   5.955   6.538   4.961 -0.3867  0.7365 -0.5451
20097SOL     OW65228  11.633   9.548   7.657 -0.3000 -0.1655  0.2732
20097SOL    HW165229  11.649   9.626   7.605 -1.6927 -0.1662 -0.2084
20097SOL    HW265230  11.583   9.580   7.733 -1.4768 -0.6375 -0.2652
20098SOL     OW65231   1.511  10.591   4.070  0.1467  0.1972  0.3500
20098SOL    HW165232   1.469  10.575   4.154 -0.3125  3.1668  0.8285
20098SOL    HW265233   1.439  10.617   4.012  0.5796 -0.8568 -0.6934
20099SOL     OW65234   3.174   2.013   6.624  0.3311 -0.1362 -0.1965
20099SOL    HW165235   3.237   1.961   6.573  0.8514 -0.2412  0.5361
20099SOL    HW265236   3.099   1.954   6.635  0.4402 -0.3094 -0.3626
20100SOL     OW65237   7.370   4.549   1.582  0.4058  0.8129  0.4106
20100SOL    HW165238   7.305   4.540   1.652  0.4389 -0.6527  0.2750
20100SOL    HW265239   7.327   4.515   1.504  0.9755  0.7946  0.0980
20101SOL     OW65240   3.574   1.369   3.746  0.5069  0.2828 -0.3200
20101SOL    HW165241   3.525   1.325   3.677  0.1451  1.6970 -1.0057
20101SOL    HW265242   3.510   1.426   3.789  0.9521  0.1541  0.5358
20102SOL     OW65243   8.840   4.235   7.055  0.0318  0.3491 -0.0815
20102SOL    HW165244   8.814   4.291   7.128  0.6047  0.1829  0.2507
20102SOL    HW265245   8.936   4.239   7.054  0.1903 -1.6877  0.8168
20103SOL     OW65246   4.892   1.679   8.951 -0.0243  0.1646  0.4004
20103SOL    HW165247   4.807   1.702   8.915  0.1875  2.3303  1.1243
20103SOL    HW265248   4.955   1.728   8.897  0.6420 -0.1832  0.8447
20104SOL     OW65249   4.393   7.127  11.190  0.7613  0.5109 -0.4170
20104SOL    HW165250   4.429   7.113  11.102 -2.5719  0.4423 -1.9314
20104SOL    HW265251   4.408   7.219  11.208  1.2399  0.5952 -1.2026
20105SOL     OW65252   3.972   0.818   0.975 -0.3030  0.2435 -0.3460
20105SOL    HW165253   3.946   0.894   1.027 -0.3845  1.1712 -1.6616
20105SOL    HW265254   4.063   0.801   1.000 -0.3066  0.7317  0.0169
20106SOL     OW65255   3.150   3.785   8.219  0.2690  0.5086 -0.4979
20106SOL    HW165256   3.079   3.798   8.281  0.6036 -0.0545  0.0044
20106SOL    HW265257   3.140   3.858   8.157 -2.7523 -1.2952 -2.4220
20107SOL     OW65258   1.451   2.602   0.421 -0.3614  0.5101 -0.3209
20107SOL    HW165259   1.540   2.570   0.438 -0.2339  0.9155 -0.2259
20107SOL    HW265260   1.463   2.670   0.355 -0.9397 -1.8733 -3.1289
20108SOL     OW65261   6.887   2.193   6.704 -0.2994  0.0797 -0.0016
20108SOL    HW165262   6.978   2.179   6.679 -0.7215 -0.1616 -1.5038
20108SOL    HW265263   6.865   2.117   6.758  0.3998  0.1791  0.4364
20109SOL     OW65264   2.068   5.455   6.531 -0.0595  0.1233  0.0402
20109SOL    HW165265   1.991   5.512   6.537  0.5725  1.0413 -0.3338
20109SOL    HW265266   2.033   5.371   6.503 -1.2547 -0.2236  2.3510
20110SOL     OW65267   8.583   0.483   1.215 -0.0994  0.3696  0.0226
20110SOL    HW165268   8.593   0.388   1.200 -1.9577  0.4965 -2.6296
20110SOL    HW265269   8.638   0.523   1.148  2.1407  1.3043  2.2622
20111SOL     OW65270   3.118   8.094   2.322 -0.4261  0.0783  0.3699
20111SOL    HW165271   3.054   8.027   2.298 -3.8799  2.6259  1.4311
20111SOL    HW265272   3.117   8.095   2.418  0.5635  0.7396  0.3869
20112SOL     OW65273   0.124   7.110   2.689  0.0820  0.6636 -0.1535
20112SOL    HW165274   0.191   7.059   2.642  0.5759  1.1230  0.0500
20112SOL    HW265275   0.110   7.061   2.770 -0.3037  0.2177 -0.4835
20113SOL     OW65276   4.458   4.524   5.633  0.0351 -0.7715  0.2616
20113SOL    HW165277   4.502   4.583   5.694  0.9014  0.6193 -1.6112
20113SOL    HW265278   4.364   4.538   5.649  0.2388 -0.8149  1.5775
20114SOL     OW65279  11.530   5.748   3.765 -0.1039 -0.0291 -0.4554
20114SOL    HW165280  11.514   5.827   3.817  0.9364 -0.0582 -0.0611
20114SOL    HW265281  11.546   5.679   3.830  0.4466 -0.2363 -0.7992
20115SOL     OW65282   0.811   4.581   2.654  0.0616  0.7736  0.1800
20115SOL    HW165283   0.786   4.662   2.697 -1.5637  0.0919  0.5946
20115SOL    HW265284   0.749   4.572   2.582  0.0228 -0.2508  0.3297
20116SOL     OW65285   0.321   4.414   3.135 -0.8217 -0.0286 -0.0610
20116SOL    HW165286   0.383   4.485   3.118  0.6498 -0.7599  1.9124
20116SOL    HW265287   0.291   4.430   3.224 -1.9764 -0.8043 -0.2966
20117SOL     OW65288   4.324   7.008   0.281  0.1402 -0.3006 -0.0873
20117SOL    HW165289   4.317   6.917   0.252  1.1807 -0.7525  0.9862
20117SOL    HW265290   4.250   7.052   0.240 -0.2019 -1.5606 -0.8825
20118SOL     OW65291   2.204   0.137   0.369  0.0804  0.3934  0.2280
20118SOL    HW165292   2.183   0.078   0.296 -1.0564  1.9595 -0.7850
20118SOL    HW265293   2.286   0.103   0.404 -0.1568 -1.3400 -0.7653
20119SOL     OW65294   7.837   4.611   5.142  0.0801  0.7425  0.4974
20119SOL    HW165295   7.928   4.623   5.117  0.1189 -0.4595 -0.0263
20119SOL    HW265296   7.841   4.572   5.229  0.1217 -0.4839 -0.0355
20120SOL     OW65297   8.597   7.736   3.737 -0.1667 -0.4454 -0.2465
20120SOL    HW165298   8.631   7.754   3.824  1.1951  1.3815 -1.1031
20120SOL    HW265299   8.530   7.803   3.722  0.8212  0.3493 -1.2390
20121SOL     OW65300   9.328   0.980   1.844 -0.0349  0.0138 -0.1109
20121SOL    HW165301   9.336   1.000   1.938  1.5493  1.7218 -0.5531
20121SOL    HW265302   9.244   1.018   1.819 -0.2589 -0.0500  0.5075
20122SOL     OW65303   3.353   1.883   2.281 -0.2521  0.0722 -0.3530
20122SOL    HW165304   3.287   1.934   2.233 -0.4215  0.8647  0.6656
20122SOL    HW265305   3.302   1.813   2.323 -0.3437  0.2586 -0.1474
20123SOL     OW65306   7.163   2.187   1.139 -0.3471 -0.6612 -0.0654
20123SOL    HW165307   7.210   2.270   1.145  0.9248 -1.2956 -0.7992
20123SOL    HW265308   7.090   2.204   1.080 -0.6397  0.1570  0.5199
20124SOL     OW65309   4.459   1.441   0.772 -0.4143 -0.0329 -0.4971
20124SOL    HW165310   4.479   1.484   0.689  1.0504  2.3922  1.0061
20124SOL    HW265311   4.544   1.430   0.814 -1.2414 -0.0053  1.2481
20125SOL     OW65312   6.120   4.030   8.967 -0.1176 -0.6073 -0.2692
20125SOL    HW165313   6.141   4.117   9.001 -2.5186  0.2957 -0.9143
20125SOL    HW265314   6.142   3.971   9.039 -0.4497  0.7524  0.9931
20126SOL     OW65315  10.441   4.050  10.761 -0.3473  0.2171 -0.0806
20126SOL    HW165316  10.440   4.135  10.717  0.0908 -0.1792 -0.9023
20126SOL    HW265317  10.522   4.008  10.730 -1.1050 -0.9396 -0.5870
20127SOL     OW65318   6.251   4.838   1.777 -0.0567 -0.4610  0.6225
20127SOL    HW165319   6.207   4.922   1.765 -2.4216 -1.3190  2.3905
20127SOL    HW265320   6.306   4.851   1.855 -1.8148 -0.9571  2.0185
20128SOL     OW65321  11.111   5.075   2.419 -0.2779 -0.1403  0.1442
20128SOL    HW165322  11.204   5.063   2.442  0.0143  0.4292 -0.7078
20128SOL    HW265323  11.064   5.033   2.491  0.5971  1.6708  1.8843
20129SOL     OW65324   4.897   3.433   1.564  0.5550  0.0062  0.0434
20129SOL    HW165325   4.855   3.472   1.487  1.2462  2.0737  0.6394
20129SOL    HW265326   4.830   3.375   1.601 -1.1831  1.8195 -0.0514
20130SOL     OW65327   5.034   9.834   4.661  0.0546  0.3943  0.1204
20130SOL    HW165328   5.033   9.814   4.568  1.2946 -0.9673  0.3561
20130SOL    HW265329   5.122   9.809   4.690 -1.2373 -2.3580  2.2559
20131SOL     OW65330   3.091   8.744  10.034 -0.1348  0.0434  0.5800
20131SOL    HW165331   3.018   8.791  10.074 -0.3622  0.1223  0.0895
20131SOL    HW265332   3.156   8.737  10.103 -0.1664  0.9381  0.7140
20132SOL     OW65333   8.475   3.616   8.362 -0.1650 -0.4244 -0.3069
20132SOL    HW165334   8.555   3.595   8.410 -0.1738  0.5501  0.1613
20132SOL    HW265335   8.440   3.532   8.334 -1.2122 -1.2880  3.0942
20133SOL     OW65336  10.780   0.261   1.377 -0.7822 -0.0570  0.6150
20133SOL    HW165337  10.847   0.285   1.442 -0.7082  0.2210  0.4372
20133SOL    HW265338  10.815   0.183   1.334  0.0464  0.8422 -0.3871
20134SOL     OW65339   3.714   2.539   5.677  0.5699 -0.0101 -0.0719
20134SOL    HW165340   3.721   2.474   5.608 -1.1616  0.3546 -0.6377
20134SOL    HW265341   3.657   2.607   5.641  2.5006  1.9792  0.4075
20135SOL     OW65342  10.258   0.098   3.423  0.4581  0.4321  0.3052
20135SOL    HW165343  10.307   0.164   3.472 -0.1570  1.1191  0.0056
20135SOL    HW265344  10.214   0.046   3.491 -0.7088  1.6239  0.4963
20136SOL     OW65345   6.812   3.250   8.152  0.3340 -0.1110  0.7253
20136SOL    HW165346   6.869   3.326   8.142  0.6482 -0.3611  0.6116
20136SOL    HW265347   6.726   3.287   8.169  0.5178  0.2703  0.8377
20137SOL     OW65348   7.974   5.698   8.149  0.4174  0.0041 -0.5315
20137SOL    HW165349   8.001   5.616   8.190  0.0206  0.3806  0.4953
20137SOL    HW265350   7.956   5.674   8.058  0.8954 -0.9225 -0.3956
20138SOL     OW65351   5.721  10.787  11.586  0.1851  1.0347 -0.1051
20138SOL    HW165352   5.684  10.723  11.647 -0.5110  1.8680  0.3692
20138SOL    HW265353   5.678  10.769  11.503  1.4022 -0.3477 -0.4936
20139SOL     OW65354   8.234   5.731   1.265  0.0822 -0.2333 -0.0049
20139SOL    HW165355   8.151   5.684   1.270 -0.5149  0.7744 -0.1506
20139SOL    HW265356   8.209   5.823   1.264  1.2875  0.1674  1.9074
20140SOL     OW65357   2.069   8.428  11.227  0.3817 -0.1594  0.2286
20140SOL    HW165358   2.060   8.333  11.234 -2.6509  0.0980  0.9044
20140SOL    HW265359   2.109   8.454  11.310  0.9573 -0.7961  0.1610
20141SOL     OW65360  10.593   7.419   3.866  0.3590 -0.2648 -0.2148
20141SOL    HW165361  10.603   7.331   3.902 -1.9580 -1.0291 -1.2368
20141SOL    HW265362  10.682   7.447   3.845  1.1736 -2.2857  0.2936
20142SOL     OW65363   0.521  10.916   0.614  0.2210  0.3694 -0.0235
20142SOL    HW165364   0.476  10.992   0.652  0.1651 -1.3679  3.8884
20142SOL    HW265365   0.613  10.939   0.618  0.1499  0.6190  0.3015
20143SOL     OW65366   5.757   1.526   1.366  0.2649  0.1970  0.5772
20143SOL    HW165367   5.690   1.458   1.356  1.2569 -0.6517 -0.8064
20143SOL    HW265368   5.800   1.506   1.449 -0.0605 -0.3245  0.6221
20144SOL     OW65369   8.271   9.329   0.332  0.2632 -0.1308  0.1854
20144SOL    HW165370   8.330   9.401   0.357 -1.8370  1.2750  1.4049
20144SOL    HW265371   8.185   9.356   0.364 -1.1181 -2.0261 -1.6277
20145SOL     OW65372   9.383   6.011  10.915 -0.0451 -0.3951  0.0673
20145SOL    HW165373   9.305   6.052  10.952  0.5096  0.2960  0.5072
20145SOL    HW265374   9.352   5.931  10.874 -0.8590 -0.5542  0.9707
20146SOL     OW65375   0.360   1.340   9.923 -0.3079  0.4920  0.2682
20146SOL    HW165376   0.286   1.280   9.935  0.1017 -0.2492 -0.7789
20146SOL    HW265377   0.388   1.326   9.832 -1.2363  3.4600 -0.5811
20147SOL     OW65378   3.819   5.192   1.005 -0.4587  0.3738  0.1141
20147SOL    HW165379   3.794   5.150   1.086  0.1608  1.4786  0.9128
20147SOL    HW265380   3.749   5.256   0.988 -0.2422  0.6301  0.1677
20148SOL     OW65381   8.599  10.125   5.651 -0.0921  0.0343 -0.2277
20148SOL    HW165382   8.656  10.141   5.575 -0.9795  1.6973 -0.5826
20148SOL    HW265383   8.524  10.183   5.638 -0.2974  0.3278  1.9178
20149SOL     OW65384   0.202   9.264   9.307  0.4379  0.1878 -0.1124
20149SOL    HW165385   0.291   9.230   9.294  0.2268 -0.4162 -0.0345
20149SOL    HW265386   0.203   9.299   9.396  0.3801 -0.5502  0.1877
20150SOL     OW65387   2.101   1.811  10.189  0.4123 -0.3147 -0.6605
20150SOL    HW165388   2.190   1.846  10.194  1.1195 -2.0281 -0.6847
20150SOL    HW265389   2.060   1.840  10.271  1.9079 -1.8013  0.7035
20151SOL     OW65390   8.856   3.915   1.086  0.5961 -0.0247  0.9170
20151SOL    HW165391   8.943   3.949   1.068  0.1345  1.1718  0.8517
20151SOL    HW265392   8.837   3.858   1.012  0.2332  1.8774 -0.5451
20152SOL     OW65393   3.399   6.285   9.765  0.0531  0.2061  0.2287
20152SOL    HW165394   3.411   6.192   9.788 -0.5948 -0.0394 -0.3895
20152SOL    HW265395   3.307   6.303   9.788 -0.0432  0.4788 -0.3730
20153SOL     OW65396   5.774   4.954   9.691 -0.1474 -0.1947  0.8161
20153SOL    HW165397   5.819   4.944   9.607 -0.2865  1.1134  0.5687
20153SOL    HW265398   5.793   5.043   9.718 -1.8195  0.0862  1.1678
20154SOL     OW65399   6.143   1.165   3.732 -0.0148 -0.5941 -0.1711
20154SOL    HW165400   6.143   1.080   3.687  1.1239 -0.8829  0.3622
20154SOL    HW265401   6.050   1.182   3.749 -0.2415 -1.8411 -0.0681
20155SOL     OW65402   6.432  11.089   0.824  0.2793 -0.2943  0.7353
20155SOL    HW165403   6.373  11.028   0.780 -0.4510 -0.1720  1.5107
20155SOL    HW265404   6.519  11.051   0.813  0.3747  0.5688 -2.2065
20156SOL     OW65405   0.883   5.040   5.539  0.5131  0.3157  0.3672
20156SOL    HW165406   0.940   5.117   5.540  0.9843 -0.0236  0.0141
20156SOL    HW265407   0.843   5.040   5.452 -0.3897  0.8052  0.7687
20157SOL     OW65408   1.748   6.300   2.865  0.4653  0.4798 -0.5130
20157SOL    HW165409   1.736   6.222   2.811 -1.0352 -0.6183  1.2842
20157SOL    HW265410   1.666   6.349   2.855  0.0341  0.1039  0.9352
20158SOL     OW65411   0.305   6.137   7.876 -0.0992 -0.4468  0.2495
20158SOL    HW165412   0.381   6.141   7.934  0.7760 -0.6745 -0.8336
20158SOL    HW265413   0.252   6.213   7.900 -0.1633 -0.9693  1.8576
20159SOL     OW65414   3.629   8.117   5.687 -0.3984 -0.7600  0.5837
20159SOL    HW165415   3.596   8.027   5.682  2.5246 -2.0234  1.5630
20159SOL    HW265416   3.721   8.107   5.712  0.1158  2.5292  0.4319
20160SOL     OW65417   7.324   8.999   6.597 -0.2015  0.1935  0.5830
20160SOL    HW165418   7.325   8.996   6.692 -3.4623 -0.0697  0.7154
20160SOL    HW265419   7.261   9.068   6.575  1.5206  1.2453 -1.4576
20161SOL     OW65420   0.072   5.120   2.682 -0.0560  0.8162 -0.2749
20161SOL    HW165421   0.128   5.156   2.750  1.3498  0.0652 -0.9950
20161SOL    HW265422   0.129   5.063   2.630 -1.1191  1.1903 -1.9613
20162SOL     OW65423  10.627  11.040   3.627 -0.0889  0.0640 -0.5627
20162SOL    HW165424  10.670  10.954   3.628 -0.0632  0.0511  1.7873
20162SOL    HW265425  10.563  11.036   3.698 -1.4858  1.3543 -1.6675
20163SOL     OW65426   0.641   9.907   9.535  0.1518  0.3268 -0.2819
20163SOL    HW165427   0.729   9.871   9.522 -0.5828 -1.6569 -0.0304
20163SOL    HW265428   0.618   9.945   9.450  1.1681  0.7036 -0.3994
20164SOL     OW65429   5.474  11.287   1.814 -0.1268 -0.1450  0.1889
20164SOL    HW165430   5.408  11.304   1.747 -0.5221  0.4996  0.7323
20164SOL    HW265431   5.541  11.354   1.798 -1.0566  1.1693  1.5055
20165SOL     OW65432  10.842   4.430   5.035  0.1067  0.1499 -0.2704
20165SOL    HW165433  10.880   4.508   5.074  0.0846 -0.0199  0.0904
20165SOL    HW265434  10.770   4.463   4.980 -0.6523  0.2941  0.7826
20166SOL     OW65435   2.234   6.302   3.883  0.1545 -0.1445  0.0620
20166SOL    HW165436   2.200   6.333   3.968 -0.5752  0.2924 -0.3761
20166SOL    HW265437   2.220   6.375   3.824  2.3584  0.2532 -0.0557
20167SOL     OW65438   8.009   2.282   4.462 -0.1940 -0.1063 -0.8491
20167SOL    HW165439   8.095   2.321   4.477 -0.1650 -0.3484 -0.3446
20167SOL    HW265440   7.961   2.297   4.544 -0.2167 -1.0154 -0.6815
20168SOL     OW65441   9.639   7.537   0.777  0.1385  0.2571 -0.5362
20168SOL    HW165442   9.675   7.587   0.850  0.4817 -2.3764  1.2508
20168SOL    HW265443   9.709   7.535   0.712  1.8715 -1.5205  1.2516
20169SOL     OW65444   5.467   1.262  10.431 -0.6228 -0.0956  0.0703
20169SOL    HW165445   5.413   1.285  10.355 -1.8674  0.5888  1.1423
20169SOL    HW265446   5.421   1.299  10.506  2.7674  3.1269  0.8175
20170SOL     OW65447   5.606   3.682   3.121  0.0896  0.6685  0.0164
20170SOL    HW165448   5.612   3.778   3.126  1.6857  0.6011  0.0157
20170SOL    HW265449   5.662   3.659   3.046  0.7658 -0.3340  0.8054
20171SOL     OW65450  11.105   8.472   3.046 -0.0628 -0.4325  1.0453
20171SOL    HW165451  11.033   8.469   3.109 -1.4711  0.1661 -0.4840
20171SOL    HW265452  11.093   8.394   2.992 -1.3892  1.1281 -1.0706
20172SOL     OW65453   7.241  11.396   8.921 -0.4156 -0.6644  0.7294
20172SOL    HW165454   7.159  11.362   8.958 -0.3363 -0.5774  0.9881
20172SOL    HW265455   7.253  11.480   8.964 -1.3495  0.3767 -0.9223
20173SOL     OW65456   3.678   9.721   1.684  0.1184 -0.0965 -0.1353
20173SOL    HW165457   3.608   9.746   1.745 -0.5521  1.5220 -1.4765
20173SOL    HW265458   3.732   9.659   1.733 -1.4910 -0.3559  1.4072
20174SOL     OW65459  10.889   9.734   5.182  0.9152 -0.3795  0.4410
20174SOL    HW165460  10.849   9.670   5.123 -0.9088  2.3392 -1.5122
20174SOL    HW265461  10.823   9.749   5.250  1.4933 -0.7927  1.1120
20175SOL     OW65462   0.881   8.755   4.008  0.0268 -0.2325  0.5621
20175SOL    HW165463   0.832   8.827   4.048 -0.1142 -0.4206  0.7268
20175SOL    HW265464   0.840   8.744   3.922  0.8860  0.7477  0.0041
20176SOL     OW65465   5.507   8.936   8.711  0.2239 -0.5068  0.0473
20176SOL    HW165466   5.597   8.946   8.681  0.4064 -1.2706  0.2998
20176SOL    HW265467   5.456   8.925   8.631 -0.0398  2.3941 -0.2669
20177SOL     OW65468   5.281  10.655   2.976  0.1764 -0.0514 -0.6723
20177SOL    HW165469   5.321  10.667   3.062 -0.5945 -0.3344 -0.2626
20177SOL    HW265470   5.325  10.579   2.940  0.2437 -0.1586 -0.3692
20178SOL     OW65471   4.800   6.041   8.233  0.0319  0.6267 -0.3019
20178SOL    HW165472   4.803   6.021   8.326 -0.9513  0.5481 -0.2705
20178SOL    HW265473   4.718   6.001   8.203  0.2091  0.8748 -1.1422
20179SOL     OW65474   5.459   5.405   7.996 -0.1676  0.2587  0.4146
20179SOL    HW165475   5.412   5.480   7.960 -0.9347 -0.2007  0.4424
20179SOL    HW265476   5.432   5.401   8.087 -0.5635 -0.3730  0.2779
20180SOL     OW65477   2.747   2.503  10.089 -0.6322  0.2327  0.3499
20180SOL    HW165478   2.706   2.453  10.018 -3.2700 -0.0675  1.9615
20180SOL    HW265479   2.759   2.591  10.053  0.3048 -0.4777 -1.1961
20181SOL     OW65480   9.802   2.384   3.761  0.7212 -0.5709 -0.0637
20181SOL    HW165481   9.849   2.302   3.748  2.7055  0.2757  1.1963
20181SOL    HW265482   9.835   2.441   3.691 -1.4980 -1.1261 -1.6440
20182SOL     OW65483   3.639   0.674   2.505  0.3434 -0.4257  0.3890
20182SOL    HW165484   3.717   0.713   2.543  1.0401 -1.1762 -0.2424
20182SOL    HW265485   3.665   0.585   2.482 -1.1711 -1.2759  1.7064
20183SOL     OW65486   4.093   3.606   0.416 -0.7145  0.5200 -0.1670
20183SOL    HW165487   4.154   3.623   0.345 -0.6718 -2.0499 -0.8412
20183SOL    HW265488   4.012   3.581   0.373 -0.1754 -2.8894  0.4970
20184SOL     OW65489   6.475   0.209  10.450 -0.3158 -0.1586 -0.4121
20184SOL    HW165490   6.383   0.186  10.432 -0.1972 -2.3333  1.2663
20184SOL    HW265491   6.526   0.148  10.397  0.0471 -2.1133  2.0209
20185SOL     OW65492  11.497   0.092   8.722 -0.1212 -0.1659  0.2597
20185SOL    HW165493  11.447   0.067   8.800 -0.9397 -1.1029 -0.5345
20185SOL    HW265494  11.459   0.176   8.696  0.4631  0.3826  1.1080
20186SOL     OW65495   4.364   6.268  11.276  0.0567 -0.8045 -0.3504
20186SOL    HW165496   4.312   6.197  11.239  0.8546 -1.6890  0.1888
20186SOL    HW265497   4.300   6.333  11.303 -1.0310 -2.8004  2.3323
20187SOL     OW65498   2.150   0.847   3.452  0.5981  0.0744 -0.8978
20187SOL    HW165499   2.103   0.867   3.532 -1.1820 -3.0649 -1.0090
20187SOL    HW265500   2.231   0.897   3.459 -0.5268  1.7573  1.6891
20188SOL     OW65501   9.693   9.554   2.717  0.4129  0.3469 -0.3696
20188SOL    HW165502   9.694   9.610   2.794  0.8142  0.4618 -0.4571
20188SOL    HW265503   9.675   9.614   2.644 -0.0929  0.2204 -0.3513
20189SOL     OW65504  11.411  11.561   0.513 -0.4274 -0.4560 -0.7041
20189SOL    HW165505  11.490  11.508   0.524  0.6901  1.1285 -0.6645
20189SOL    HW265506  11.353  11.507   0.459  0.4874 -1.8492 -0.3497
20190SOL     OW65507   4.648   1.068   6.723 -0.3571  0.1012 -0.0387
20190SOL    HW165508   4.741   1.057   6.740 -0.1388 -2.1878 -2.1800
20190SOL    HW265509   4.644   1.108   6.635 -1.4298  1.4780  0.5864
20191SOL     OW65510   7.428   4.996   2.081 -0.1474  0.3690 -0.2127
20191SOL    HW165511   7.458   5.064   2.142  0.1219  0.6969 -0.7009
20191SOL    HW265512   7.336   5.016   2.065 -1.2392 -1.6484  2.6533
20192SOL     OW65513   3.251   6.705   4.118  0.7299 -0.7648 -0.2139
20192SOL    HW165514   3.197   6.692   4.197  1.4663 -2.1678  0.0910
20192SOL    HW265515   3.298   6.622   4.108  1.6614 -0.1151 -1.3687
20193SOL     OW65516   5.311   5.898   0.985 -0.0261  0.4446  0.0390
20193SOL    HW165517   5.263   5.818   0.961 -2.1917  1.2014  1.4781
20193SOL    HW265518   5.306   5.953   0.907 -0.0139 -0.1571 -0.3949
20194SOL     OW65519   7.452   8.703   4.646  0.0581  0.4751  0.4433
20194SOL    HW165520   7.391   8.710   4.574  1.3558  0.3347 -0.7147
20194SOL    HW265521   7.524   8.763   4.623  1.8015 -1.5848  0.2075
20195SOL     OW65522   5.741  11.326  10.642  0.1712  0.4895  0.2442
20195SOL    HW165523   5.820  11.356  10.687  0.1098 -0.2837  0.8930
20195SOL    HW265524   5.773  11.278  10.566  0.3371  0.0890  0.5622
20196SOL     OW65525   1.507   9.202   0.151 -0.1703  0.5314  0.2095
20196SOL    HW165526   1.482   9.197   0.244 -1.0275  1.4261  0.0511
20196SOL    HW265527   1.598   9.230   0.153 -0.2972  0.9439  0.7975
20197SOL     OW65528   8.823   7.772   9.818 -0.2943 -0.6376 -0.1293
20197SOL    HW165529   8.874   7.700   9.856 -0.4367 -1.1320 -0.8633
20197SOL    HW265530   8.859   7.782   9.730 -0.6426 -0.1617 -0.2166
20198SOL     OW65531   6.457   9.230   2.668  0.1398  0.0233  0.4789
20198SOL    HW165532   6.473   9.235   2.574  0.9919 -1.6179  0.5015
20198SOL    HW265533   6.392   9.161   2.678  0.2815 -0.0235  1.1118
20199SOL     OW65534  10.976   1.779  11.368 -0.3713  0.2447 -0.4499
20199SOL    HW165535  11.013   1.711  11.311  0.6998  0.9250 -0.5919
20199SOL    HW265536  11.051   1.814  11.416 -0.9688  1.0271 -0.0599
20200SOL     OW65537   5.002   0.886   8.744  0.6446 -0.0658  0.2135
20200SOL    HW165538   4.997   0.908   8.651 -1.5009 -1.2075  0.0033
20200SOL    HW265539   5.020   0.969   8.787  0.4789  0.6981 -1.1397
20201SOL     OW65540   3.141   4.805  10.813 -0.4837 -0.3556  0.3640
20201SOL    HW165541   3.169   4.735  10.872  1.4797  1.2337  1.4533
20201SOL    HW265542   3.150   4.885  10.865 -2.5676  0.7525 -0.8651
20202SOL     OW65543   8.804   3.320   3.460  0.3983 -0.4870 -0.6863
20202SOL    HW165544   8.754   3.401   3.460  0.9955 -0.0469 -2.8085
20202SOL    HW265545   8.892   3.346   3.487  0.3899 -0.5705 -0.5755
20203SOL     OW65546   2.914   9.200   9.887  0.2216  0.0679  0.1905
20203SOL    HW165547   2.972   9.133   9.922 -0.2570 -0.5985 -0.2790
20203SOL    HW265548   2.971   9.277   9.874  0.8549 -0.3704  0.3540
20204SOL     OW65549   7.193   4.010   1.573  0.1803 -0.1309 -0.9687
20204SOL    HW165550   7.125   3.963   1.525 -0.7547  0.8117 -0.6006
20204SOL    HW265551   7.219   3.950   1.643  1.0920 -1.2538 -2.2184
20205SOL     OW65552   7.904   8.863   4.199 -0.5463 -0.5985 -0.6442
20205SOL    HW165553   7.889   8.864   4.105 -2.1924 -0.6361 -0.4052
20205SOL    HW265554   7.865   8.944   4.231  1.4819  0.2575 -0.1591
20206SOL     OW65555   1.750   4.601   0.693 -0.3528 -0.6711  0.3304
20206SOL    HW165556   1.717   4.516   0.723 -2.1368 -0.2468 -0.3310
20206SOL    HW265557   1.818   4.579   0.629 -0.9285 -1.6181  0.0235
20207SOL     OW65558   4.982   6.509   7.109  0.1722  0.1578 -0.2022
20207SOL    HW165559   4.904   6.514   7.164 -0.9236  0.5238 -1.7109
20207SOL    HW265560   4.957   6.555   7.028  2.1054  0.6845 -0.5549
20208SOL     OW65561   3.953   5.003   6.827  0.0817  0.5969  0.6152
20208SOL    HW165562   4.004   5.084   6.835 -0.6839  1.0882  0.7151
20208SOL    HW265563   3.864   5.030   6.850 -0.8622  0.4399 -2.4193
20209SOL     OW65564   7.690   0.279   8.112  0.0542  0.8452  0.0825
20209SOL    HW165565   7.619   0.339   8.131  0.9620  1.5929  1.2657
20209SOL    HW265566   7.651   0.212   8.055 -1.7139  0.9251  1.1400
20210SOL     OW65567   0.506   5.695   2.372  0.0839 -0.4204 -0.0890
20210SOL    HW165568   0.519   5.617   2.319  0.2682 -1.3361  1.2421
20210SOL    HW265569   0.589   5.743   2.365 -0.0885 -0.2379 -1.0432
20211SOL     OW65570   9.880  10.508   0.321  0.1245 -0.4682 -0.3282
20211SOL    HW165571   9.944  10.452   0.365  0.9365  0.3634 -0.4418
20211SOL    HW265572   9.810  10.520   0.385  0.6731 -0.3504  0.2568
20212SOL     OW65573   2.309   5.401   9.743  0.4577  0.4483  0.4159
20212SOL    HW165574   2.398   5.367   9.736  1.2882  2.1539  1.8214
20212SOL    HW265575   2.267   5.374   9.662  1.9702 -1.1431  0.0831
20213SOL     OW65576   3.806   5.372  10.837 -0.5417  0.2146  0.3555
20213SOL    HW165577   3.771   5.283  10.840  2.7820 -1.2518 -0.3236
20213SOL    HW265578   3.892   5.365  10.878  0.5366  2.7523 -1.2405
20214SOL     OW65579   8.506  10.340   7.938 -0.5193 -0.6003 -0.1826
20214SOL    HW165580   8.544  10.347   8.025  0.0463 -0.2219 -0.4533
20214SOL    HW265581   8.421  10.384   7.944  0.0697  0.5813 -0.1396
20215SOL     OW65582   3.838  10.263   4.555  0.2581  0.1865 -0.7478
20215SOL    HW165583   3.792  10.189   4.595  0.8585  0.0809 -0.2319
20215SOL    HW265584   3.910  10.281   4.616  1.8051 -0.6180 -2.2546
20216SOL     OW65585   4.823   1.793   0.610 -0.4169  0.4274 -0.2375
20216SOL    HW165586   4.916   1.782   0.591  0.1510  1.4793  1.7525
20216SOL    HW265587   4.797   1.710   0.650  0.1036  0.7681  0.8152
20217SOL     OW65588   5.178   9.234   9.061  0.2291  0.2902 -0.5371
20217SOL    HW165589   5.104   9.295   9.057  0.4186  0.5074 -0.7415
20217SOL    HW265590   5.151   9.168   9.125  0.8215  1.6691  1.2331
20218SOL     OW65591   3.272   3.620   4.919  0.1721 -0.7396  0.5557
20218SOL    HW165592   3.278   3.629   5.014 -0.1755  0.2144  0.4950
20218SOL    HW265593   3.304   3.703   4.884 -1.5678 -0.2876 -0.0804
20219SOL     OW65594   5.179   8.808   7.365 -0.1333 -0.4798 -0.0705
20219SOL    HW165595   5.196   8.872   7.296 -0.9542 -1.2664 -1.0344
20219SOL    HW265596   5.261   8.759   7.373 -0.2028 -0.7506 -0.9033
20220SOL     OW65597   6.940   1.934  10.718 -0.6585  0.1816  0.4127
20220SOL    HW165598   7.011   1.984  10.677 -1.7393  1.1068 -0.3546
20220SOL    HW265599   6.951   1.845  10.684 -1.8679  1.0368 -2.4345
20221SOL     OW65600   8.760   0.972   3.678  0.0104  0.6275 -0.0307
20221SOL    HW165601   8.851   0.959   3.650 -0.2609 -1.5733 -0.0929
20221SOL    HW265602   8.726   1.037   3.617  0.8865 -0.2856 -1.5753
20222SOL     OW65603   1.229   2.132   5.173  0.2445  0.1730  0.2653
20222SOL    HW165604   1.220   2.123   5.268  0.1899  1.3040  0.3759
20222SOL    HW265605   1.208   2.223   5.155 -2.3374 -0.6091 -1.1704
20223SOL     OW65606   4.846   0.451   8.874 -0.2760 -0.2494 -0.3048
20223SOL    HW165607   4.811   0.416   8.955  1.7633 -1.1785  0.2516
20223SOL    HW265608   4.860   0.375   8.818  1.3719 -0.0355 -0.2425
20224SOL     OW65609   8.754   4.739  10.618 -0.1106 -0.0145 -0.5961
20224SOL    HW165610   8.683   4.689  10.578  1.3494 -0.4126 -2.8345
20224SOL    HW265611   8.826   4.676  10.628 -0.5629 -0.1871  3.5637
20225SOL     OW65612   3.875   1.730   5.836 -0.7501  0.1159 -0.1480
20225SOL    HW165613   3.917   1.791   5.775  0.1118 -0.1825  0.1234
20225SOL    HW265614   3.782   1.752   5.833 -0.5118  1.1192 -0.4153
20226SOL     OW65615   4.610   0.182  11.184  0.1506  0.3051 -0.2884
20226SOL    HW165616   4.636   0.225  11.103  1.2414 -0.0134 -0.1187
20226SOL    HW265617   4.621   0.249  11.252 -1.5745  0.8466 -0.4732
20227SOL     OW65618  10.272   2.583   9.934  0.2218 -0.2078  0.1391
20227SOL    HW165619  10.200   2.525   9.959  0.9113 -1.9645 -1.6442
20227SOL    HW265620  10.350   2.540   9.968  0.7543 -0.4271 -1.2709
20228SOL     OW65621   0.759   7.274  11.269 -0.6225 -0.8254  0.2065
20228SOL    HW165622   0.712   7.245  11.347 -0.1310 -0.6333  0.5813
20228SOL    HW265623   0.691   7.286  11.203 -1.1602 -0.0591  0.8884
20229SOL     OW65624   8.563  10.933   1.171  0.3602 -0.3628 -0.3144
20229SOL    HW165625   8.558  10.994   1.097  1.6370 -1.0038 -0.9771
20229SOL    HW265626   8.601  10.854   1.133  2.5905 -0.1816  1.3359
20230SOL     OW65627  11.329  10.861   3.440 -0.1096  0.1557 -0.0241
20230SOL    HW165628  11.399  10.926   3.435 -1.4701  1.6804 -0.1467
20230SOL    HW265629  11.367  10.781   3.405  0.7457  1.6652 -2.8089
20231SOL     OW65630  10.339   8.180  10.607 -0.7531 -0.5926 -0.7044
20231SOL    HW165631  10.377   8.212  10.689 -1.0294  1.1452 -1.2131
20231SOL    HW265632  10.313   8.091  10.626 -0.5078 -0.3328  1.0079
20232SOL     OW65633   9.085   9.283   5.915  0.2097 -0.1457  0.2150
20232SOL    HW165634   9.133   9.200   5.911  0.7000  0.1545 -0.2057
20232SOL    HW265635   8.997   9.261   5.885 -0.7730 -1.2693  3.4931
20233SOL     OW65636   4.142   1.777   9.208  0.0840 -0.3436 -0.1747
20233SOL    HW165637   4.211   1.808   9.266  0.0965  1.4496 -1.0619
20233SOL    HW265638   4.062   1.782   9.260  0.3395 -0.4539  0.2295
20234SOL     OW65639   7.267   3.624   2.822 -0.5542 -0.4286 -0.3884
20234SOL    HW165640   7.327   3.647   2.893 -1.0582  0.2206 -0.1560
20234SOL    HW265641   7.267   3.528   2.820  0.7857 -0.4397 -0.6616
20235SOL     OW65642   2.449   0.257   0.235  0.1937 -0.8184  0.3521
20235SOL    HW165643   2.532   0.296   0.208  0.7791 -2.8051 -0.9456
20235SOL    HW265644   2.393   0.262   0.158 -0.8808  0.3478  1.1677
20236SOL     OW65645   4.164   3.336   1.486 -0.2436 -0.0681 -0.2833
20236SOL    HW165646   4.115   3.402   1.535  0.7880  0.5545 -0.0691
20236SOL    HW265647   4.132   3.345   1.396  0.1302  0.9556 -0.3181
20237SOL     OW65648   0.041   9.021   2.738  0.3106  0.2046 -0.0605
20237SOL    HW165649  -0.044   9.057   2.764  0.3267  0.6676 -0.6001
20237SOL    HW265650   0.087   9.096   2.700  0.8266 -0.1238 -0.0921
20238SOL     OW65651   6.275   9.462   5.800  0.2942 -0.7467  0.0624
20238SOL    HW165652   6.359   9.506   5.786  0.1171 -0.9038 -1.8267
20238SOL    HW265653   6.238   9.504   5.878  2.0546 -0.5920  0.8391
20239SOL     OW65654   9.888   6.929  10.813 -0.0814 -0.3587 -0.5033
20239SOL    HW165655   9.896   6.879  10.731 -0.0183 -0.2081 -0.5895
20239SOL    HW265656   9.894   7.021  10.785 -1.9026 -0.2208 -0.5717
20240SOL     OW65657   9.135   2.307   4.798  0.2925 -0.0784  0.6782
20240SOL    HW165658   9.190   2.385   4.809  0.0017  0.1995  0.2060
20240SOL    HW265659   9.063   2.337   4.742  0.2490 -0.7293  0.3875
20241SOL     OW65660   1.400   3.982   6.217  0.7480 -0.1448  1.0549
20241SOL    HW165661   1.435   4.070   6.208  3.1851 -1.0055  1.2177
20241SOL    HW265662   1.418   3.940   6.133 -0.1555 -0.5684  1.0595
20242SOL     OW65663   9.403   4.283   2.866 -0.1037  0.1891  0.3624
20242SOL    HW165664   9.412   4.371   2.831 -1.3696  0.2442  0.1477
20242SOL    HW265665   9.378   4.229   2.791  0.8203 -0.4024  0.4558
20243SOL     OW65666   5.780  11.680   0.114  0.4601  0.5571 -1.1216
20243SOL    HW165667   5.836  11.627   0.170 -0.1850 -0.1828 -1.1568
20243SOL    HW265668   5.725  11.730   0.175 -1.3277 -1.3938 -1.0157
20244SOL     OW65669   7.646   8.913   6.737 -0.3160 -0.2842  0.0021
20244SOL    HW165670   7.712   8.860   6.692 -0.0403 -0.5380  0.6797
20244SOL    HW265671   7.633   8.989   6.681  0.9661  0.0438  0.1230
20245SOL     OW65672   7.873   6.795   8.057  0.1002 -0.0603 -0.3044
20245SOL    HW165673   7.877   6.889   8.072  1.3748 -0.2963  1.0467
20245SOL    HW265674   7.838   6.759   8.139 -0.5600 -0.7575 -0.8751
20246SOL     OW65675   0.241   4.635   8.944  0.1153 -0.6567 -0.1942
20246SOL    HW165676   0.303   4.563   8.950  0.6364 -0.1876  0.2557
20246SOL    HW265677   0.166   4.607   8.997  1.2307  0.0036  1.8482
20247SOL     OW65678   2.680   8.703   5.569  0.1948 -0.3884  0.5650
20247SOL    HW165679   2.737   8.655   5.509  0.8433 -0.2901  1.0929
20247SOL    HW265680   2.738   8.767   5.611 -0.1520 -0.7420  1.6147
20248SOL     OW65681   3.117   1.304   4.034  0.2682  0.3775 -0.2552
20248SOL    HW165682   3.074   1.365   4.094  0.5435  0.4609 -0.1388
20248SOL    HW265683   3.097   1.339   3.947  0.7997  0.9029 -0.1792
20249SOL     OW65684   1.450   3.633   8.375 -0.5183  0.4922  0.1077
20249SOL    HW165685   1.539   3.658   8.350 -0.8500  1.6078 -0.0154
20249SOL    HW265686   1.432   3.683   8.454 -2.0465  2.5698 -1.4483
20250SOL     OW65687   5.575   9.145   9.659 -0.0975 -0.9179 -0.2001
20250SOL    HW165688   5.531   9.154   9.574 -0.3742 -3.2804 -0.3758
20250SOL    HW265689   5.617   9.059   9.655  0.1401 -0.9445  1.9502
20251SOL     OW65690  10.071   8.813   5.514 -0.0730  0.2580 -0.6783
20251SOL    HW165691  10.145   8.794   5.572 -1.5874 -0.0160  1.2618
20251SOL    HW265692  10.032   8.892   5.550 -2.1515 -0.9310 -0.1340
20252SOL     OW65693   9.859  10.900   5.614  0.7443 -0.1388 -0.4197
20252SOL    HW165694   9.794  10.971   5.611  0.1012 -0.7254 -0.4922
20252SOL    HW265695   9.925  10.932   5.676 -0.9401 -0.6211  1.7577
20253SOL     OW65696   8.715   9.150   0.985 -0.1459  0.1551 -0.9074
20253SOL    HW165697   8.693   9.057   0.976 -1.8048  0.4136 -0.0152
20253SOL    HW265698   8.722   9.164   1.079  0.4863  0.8646 -1.0484
20254SOL     OW65699   4.572   1.721   0.871  0.2701 -0.2236 -0.6174
20254SOL    HW165700   4.544   1.651   0.929  1.9030  0.3848  1.0009
20254SOL    HW265701   4.665   1.732   0.890  0.4361  1.2249 -2.0668
20255SOL     OW65702   2.014   4.642   4.098 -0.1575 -0.2494 -0.1074
20255SOL    HW165703   2.017   4.650   4.193 -0.0512 -0.9086 -0.0481
20255SOL    HW265704   2.089   4.586   4.077  0.3018  0.5595 -0.6545
20256SOL     OW65705   3.378   5.741   7.964  0.1085  0.0528 -0.2893
20256SOL    HW165706   3.403   5.682   7.894  1.2943  1.2687 -0.9259
20256SOL    HW265707   3.405   5.696   8.044  2.0476  0.1902 -0.8178
20257SOL     OW65708   4.302   1.454  11.135 -0.3843 -0.2128  0.3149
20257SOL    HW165709   4.327   1.401  11.059 -2.1803 -0.5838 -0.0546
20257SOL    HW265710   4.256   1.529  11.097 -1.7812 -0.6792  1.0345
20258SOL     OW65711   5.854  10.959   5.644 -0.9889  0.2487 -0.1429
20258SOL    HW165712   5.821  10.964   5.734 -1.0590  1.9032 -0.2268
20258SOL    HW265713   5.849  11.049   5.612 -1.4128 -0.3963 -1.9787
20259SOL     OW65714   9.422   9.902   0.433 -0.9992  0.2397 -0.1536
20259SOL    HW165715   9.440   9.895   0.526  2.2374 -0.9016 -0.7210
20259SOL    HW265716   9.384   9.818   0.409 -1.8180  0.5283  0.0960
20260SOL     OW65717   8.584   2.168   5.984  0.7555  0.1419 -0.4459
20260SOL    HW165718   8.514   2.182   6.047  0.7738 -0.4075 -0.2972
20260SOL    HW265719   8.598   2.073   5.983 -1.0112 -0.2024 -3.1379
20261SOL     OW65720   0.249   6.381   7.477 -0.1332 -0.0116 -0.0704
20261SOL    HW165721   0.194   6.367   7.555 -0.3062 -0.0655 -0.2021
20261SOL    HW265722   0.338   6.385   7.512  0.0845 -2.6939 -0.1174
20262SOL     OW65723   4.251   6.228   8.528  0.2994 -1.1220  0.1161
20262SOL    HW165724   4.272   6.267   8.444  1.8948 -1.0482  0.5195
20262SOL    HW265725   4.336   6.218   8.572 -0.5287 -0.8233  1.8586
20263SOL     OW65726   2.791   8.452   9.244  0.4225 -0.2711  0.6108
20263SOL    HW165727   2.726   8.407   9.299 -0.6406 -0.9060 -1.0774
20263SOL    HW265728   2.759   8.439   9.154  1.2368  2.0774 -0.0851
20264SOL     OW65729   5.602   2.766   6.710  0.0546  0.5658  0.2091
20264SOL    HW165730   5.540   2.789   6.641  0.2223  0.8721  0.1610
20264SOL    HW265731   5.598   2.839   6.772 -0.3137  0.1612  0.6811
20265SOL     OW65732   1.654   0.061   0.003 -0.3623 -0.1062 -0.2775
20265SOL    HW165733   1.600  -0.018   0.005 -2.1207  1.0552 -0.1943
20265SOL    HW265734   1.667   0.079  -0.090 -0.7992  0.0602 -0.3060
20266SOL     OW65735   6.279   6.271   9.984  0.0138 -0.3481  0.3736
20266SOL    HW165736   6.258   6.306   9.897 -0.4372 -0.2373  0.5253
20266SOL    HW265737   6.213   6.204  10.000 -0.2806  0.0582  0.8886
20267SOL     OW65738   0.140   7.572   5.261 -0.2964 -0.2746 -0.0342
20267SOL    HW165739   0.066   7.552   5.203 -1.2146  0.6622  0.7731
20267SOL    HW265740   0.100   7.617   5.335  1.2351  1.2960 -0.1077
20268SOL     OW65741  11.299   7.115   7.987  0.5632  0.5378 -0.2057
20268SOL    HW165742  11.389   7.148   7.982  0.1671  1.5939 -0.3846
20268SOL    HW265743  11.298   7.040   7.926  0.7734  1.7969 -1.8223
20269SOL     OW65744   2.213  10.495   3.258 -0.6225 -0.5875 -0.0055
20269SOL    HW165745   2.305  10.524   3.261 -0.9328  0.4789 -0.5511
20269SOL    HW265746   2.216  10.406   3.294  0.4624 -0.1711  1.0297
20270SOL     OW65747   8.924   3.860  11.464  0.1075 -0.4730  0.1194
20270SOL    HW165748   8.911   3.777  11.509 -1.8856  0.0037  0.5380
20270SOL    HW265749   8.855   3.862  11.397  0.6082  0.5088 -0.3980
20271SOL     OW65750   3.757  11.512   9.854  0.5777  0.2547  0.0988
20271SOL    HW165751   3.706  11.527   9.933  0.9846 -3.7834  1.3665
20271SOL    HW265752   3.692  11.495   9.786  0.1109 -1.2847  0.8700
20272SOL     OW65753   4.450   0.397   4.792  0.2066  1.0208  0.2438
20272SOL    HW165754   4.515   0.354   4.848 -0.4892  0.8517  0.9499
20272SOL    HW265755   4.401   0.325   4.753 -1.0138  1.1412  1.4882
20273SOL     OW65756   3.400   2.210   4.425  0.2639 -0.0988 -0.4732
20273SOL    HW165757   3.363   2.260   4.352  0.4079  0.6409 -0.0455
20273SOL    HW265758   3.335   2.143   4.443 -0.9230  1.2227  0.3158
20274SOL     OW65759   0.170  11.152   6.545 -0.2350  0.4630  0.0513
20274SOL    HW165760   0.220  11.083   6.587 -2.0605 -1.7123 -1.1724
20274SOL    HW265761   0.112  11.185   6.613 -1.7378 -1.6223 -0.1461
20275SOL     OW65762   1.272   5.833   6.158  0.1629 -0.2112 -0.6366
20275SOL    HW165763   1.213   5.802   6.088 -0.8296 -2.7591  1.1555
20275SOL    HW265764   1.213   5.868   6.225  0.9973  0.7828 -0.4009
20276SOL     OW65765   7.741   8.171  10.379 -0.1896 -0.2853 -0.6252
20276SOL    HW165766   7.761   8.096  10.436  1.1966  0.0792 -0.6076
20276SOL    HW265767   7.698   8.133  10.303 -0.1940 -1.0088 -0.2677
20277SOL     OW65768   3.819   3.351  11.507 -0.2947 -0.3350 -0.8878
20277SOL    HW165769   3.875   3.377  11.433 -0.8655 -0.7914 -1.4973
20277SOL    HW265770   3.759   3.287  11.469  0.4208 -1.7727  0.3407
20278SOL     OW65771   8.938   7.129   5.165 -0.7141  0.4403 -0.0212
20278SOL    HW165772   8.879   7.060   5.195 -0.2115  0.5758  1.3458
20278SOL    HW265773   8.940   7.119   5.070 -0.7706 -1.3355  0.1308
20279SOL     OW65774   2.887  10.410   7.700  0.0241 -0.1751 -0.4464
20279SOL    HW165775   2.962  10.441   7.649 -0.2121 -0.9903 -1.3225
20279SOL    HW265776   2.919  10.328   7.740  0.0182  0.1587  0.2538
20280SOL     OW65777  11.021   5.161   6.213 -0.6725 -0.2112 -0.2867
20280SOL    HW165778  10.945   5.112   6.242 -0.3943  0.4945  1.8304
20280SOL    HW265779  11.000   5.252   6.234 -0.5198  0.4050 -2.6301
20281SOL     OW65780   6.226   5.372   2.075 -0.0380  0.4030  0.1503
20281SOL    HW165781   6.144   5.405   2.113 -1.2150 -2.2701  0.1715
20281SOL    HW265782   6.258   5.310   2.140 -0.2580 -1.6901 -1.6574
20282SOL     OW65783   9.279   8.415   8.367 -0.3162 -0.2959  0.4812
20282SOL    HW165784   9.239   8.336   8.332 -1.3617  0.8497 -1.0466
20282SOL    HW265785   9.253   8.484   8.306  0.2251  1.3016  1.9785
20283SOL     OW65786   1.779   2.697   3.947  0.0550 -0.9878  0.0655
20283SOL    HW165787   1.873   2.709   3.949  0.0076 -0.4569  2.3685
20283SOL    HW265788   1.746   2.770   3.895  0.8227 -0.1641  0.7019
20284SOL     OW65789   5.000  10.724   6.038 -0.5766  0.4789  0.3007
20284SOL    HW165790   4.932  10.689   5.981  0.5828 -0.7372 -0.3707
20284SOL    HW265791   5.050  10.648   6.066  1.2771  1.4614 -0.2165
20285SOL     OW65792  11.115   2.092   7.661 -0.2086 -0.1533 -0.2359
20285SOL    HW165793  11.034   2.140   7.679 -1.3342 -2.4897  1.4455
20285SOL    HW265794  11.109   2.069   7.568 -1.2292  0.1373 -0.2589
20286SOL     OW65795  11.459   8.830   3.717  0.1301 -0.7033 -0.1799
20286SOL    HW165796  11.518   8.793   3.783 -0.0500 -1.0487 -0.2089
20286SOL    HW265797  11.372   8.799   3.743 -0.1110  0.2295  0.1560
20287SOL     OW65798   7.805   3.155   4.437  0.2927  0.2077 -0.1810
20287SOL    HW165799   7.816   3.105   4.356 -0.0257 -0.7190  0.3391
20287SOL    HW265800   7.796   3.089   4.505  1.7464  0.9624  0.7962
20288SOL     OW65801   0.257   7.158   9.155  0.6300  0.1569 -0.1722
20288SOL    HW165802   0.262   7.207   9.073  0.9872 -0.3699 -0.4729
20288SOL    HW265803   0.181   7.194   9.200 -0.5005 -0.5923 -1.4338
20289SOL     OW65804   9.346  10.992   3.226 -0.2167  0.3839 -0.5057
20289SOL    HW165805   9.341  10.910   3.275  0.3059 -1.0156 -2.6122
20289SOL    HW265806   9.265  11.037   3.246  0.3836  0.3898  2.3328
20290SOL     OW65807   5.009   6.417   3.831 -0.3780  0.2362 -0.1957
20290SOL    HW165808   4.957   6.463   3.897  0.0421  0.9979 -0.3755
20290SOL    HW265809   4.965   6.438   3.748  1.8507  3.4856 -0.7508
20291SOL     OW65810   4.839   5.322   1.250 -0.1688 -0.2286  0.4078
20291SOL    HW165811   4.875   5.250   1.301  0.0988  0.2485  0.9000
20291SOL    HW265812   4.889   5.321   1.168 -1.2213 -1.5793 -0.2667
20292SOL     OW65813   7.706   5.965   3.893  0.1899 -0.0467 -0.4802
20292SOL    HW165814   7.644   5.990   3.961  1.3338 -1.3367  1.1337
20292SOL    HW265815   7.652   5.938   3.819 -1.1410 -0.1020  0.4875
20293SOL     OW65816   2.966   7.465   3.827 -0.2078  0.0057 -0.0807
20293SOL    HW165817   3.039   7.431   3.774 -0.3075  0.3072 -0.4102
20293SOL    HW265818   2.990   7.555   3.847 -1.0910  0.5488 -1.3122
20294SOL     OW65819  10.935   5.233   0.475  0.5372  0.2000  0.3824
20294SOL    HW165820  10.982   5.187   0.406  0.9506  0.1895  0.6683
20294SOL    HW265821  10.967   5.323   0.470 -1.5376  0.9334 -1.3258
20295SOL     OW65822   5.988   0.325  11.610 -0.0744 -0.0815  0.2828
20295SOL    HW165823   6.048   0.378  11.663  0.5577 -0.3246 -0.1720
20295SOL    HW265824   6.041   0.251  11.581 -0.3902  0.0546 -0.6975
20296SOL     OW65825  10.486   5.648   5.829  0.2007 -0.5373 -0.1956
20296SOL    HW165826  10.579   5.633   5.818  0.0059 -1.4436 -0.6690
20296SOL    HW265827  10.444   5.582   5.774 -0.7226  2.1088 -2.9615
20297SOL     OW65828   7.746  10.350   8.776 -0.2625 -0.0863 -0.1420
20297SOL    HW165829   7.777  10.260   8.784 -0.0314 -0.2034 -1.8893
20297SOL    HW265830   7.672  10.344   8.715 -0.8556  0.7883  0.4737
20298SOL     OW65831   1.125  10.187   7.054 -0.2531 -0.3416 -0.5808
20298SOL    HW165832   1.051  10.237   7.021 -0.3513 -0.9207 -1.2676
20298SOL    HW265833   1.130  10.111   6.996 -0.9587 -1.8500  1.2533
20299SOL     OW65834   2.456   4.625   0.608  0.1602  0.1474  0.1591
20299SOL    HW165835   2.541   4.591   0.581 -0.1163  0.0166 -0.5814
20299SOL    HW265836   2.398   4.549   0.609 -0.1275  0.3575 -0.1060
20300SOL     OW65837   0.523   7.478  10.453 -0.6086 -0.5572 -0.1983
20300SOL    HW165838   0.577   7.446  10.381 -0.9216 -2.3915  0.3263
20300SOL    HW265839   0.436   7.444  10.434 -0.8853 -0.3074  0.5936
20301SOL     OW65840   8.471   7.590   2.938 -0.3350  0.3125 -0.9558
20301SOL    HW165841   8.511   7.536   2.869 -0.7991 -1.3660  0.0225
20301SOL    HW265842   8.469   7.678   2.902 -0.1217 -0.4361 -2.8940
20302SOL     OW65843   9.810   7.412   4.189  0.4522  0.0930  0.8283
20302SOL    HW165844   9.887   7.441   4.238  2.1214  0.9930 -2.1267
20302SOL    HW265845   9.785   7.487   4.136 -1.1134 -0.9184  0.0483
20303SOL     OW65846   2.752   1.427   3.591 -0.1677 -0.2125 -0.0773
20303SOL    HW165847   2.788   1.398   3.507  0.0830  0.8900 -0.3757
20303SOL    HW265848   2.800   1.508   3.611 -1.3616  0.4358  0.2927
20304SOL     OW65849   1.218   2.861  10.017  0.2009 -0.3646 -0.1946
20304SOL    HW165850   1.213   2.953   9.991 -0.1044 -0.7909 -1.7328
20304SOL    HW265851   1.296   2.856  10.072  0.5507  0.7176 -0.5690
20305SOL     OW65852   8.007   2.075   1.494 -0.1997 -0.3344  0.0130
20305SOL    HW165853   7.985   2.164   1.523  1.6415 -0.0753  0.7521
20305SOL    HW265854   7.927   2.025   1.508 -1.0014  1.0028  0.4421
20306SOL     OW65855   5.078   8.996   6.485 -0.3161  0.1154  0.0187
20306SOL    HW165856   5.085   8.993   6.390  0.0009 -0.0339  0.0462
20306SOL    HW265857   5.023   9.072   6.503  0.0855  0.4741 -0.2600
20307SOL     OW65858   1.030   9.473   3.688  0.2318 -0.2255  0.0836
20307SOL    HW165859   0.945   9.508   3.663 -0.4420 -1.2740  0.8504
20307SOL    HW265860   1.075   9.547   3.729 -0.3066  0.3165 -0.2808
20308SOL     OW65861   6.340   5.908   7.526 -0.0753 -0.2922  0.3757
20308SOL    HW165862   6.402   5.835   7.514  0.5706  0.0936  1.3005
20308SOL    HW265863   6.350   5.961   7.447 -0.1378 -0.8989 -0.0461
20309SOL     OW65864   3.324   1.683   2.913 -1.0189  0.2017 -0.1335
20309SOL    HW165865   3.416   1.658   2.919 -1.2079 -0.6486 -0.6214
20309SOL    HW265866   3.285   1.619   2.854 -1.9581  0.4661  0.1722
20310SOL     OW65867   6.832   4.092   4.476 -0.4687  0.0393 -0.0934
20310SOL    HW165868   6.826   4.008   4.521  0.9019  0.1345  0.2995
20310SOL    HW265869   6.814   4.157   4.544  1.3459  0.1714  0.3059
20311SOL     OW65870   2.515   1.433   6.825 -0.3891  0.3152  0.0864
20311SOL    HW165871   2.588   1.437   6.763  0.6828  0.9482  1.3333
20311SOL    HW265872   2.553   1.462   6.908 -1.7708 -0.5684  1.0601
20312SOL     OW65873   2.867   5.504   4.098 -0.4180 -0.5973  0.4748
20312SOL    HW165874   2.928   5.567   4.059 -1.8137  0.0653 -0.7501
20312SOL    HW265875   2.882   5.512   4.193  0.4086  0.5451  0.2750
20313SOL     OW65876   5.172   5.857   4.224  0.3594 -0.4818 -0.9289
20313SOL    HW165877   5.217   5.836   4.143 -0.1875 -2.3259 -0.7974
20313SOL    HW265878   5.102   5.792   4.231  0.9944 -1.0309  1.4809
20314SOL     OW65879   1.838   5.175   7.492 -0.0338  0.7481 -0.4034
20314SOL    HW165880   1.861   5.090   7.454  0.8884  0.5849  0.4799
20314SOL    HW265881   1.850   5.163   7.586 -1.2543  1.4569 -0.1307
20315SOL     OW65882  11.208  10.402   9.895 -0.1219 -0.1309  0.3039
20315SOL    HW165883  11.290  10.370   9.931 -0.3361  0.0013  0.9152
20315SOL    HW265884  11.188  10.481   9.946 -1.7701 -1.3776  1.7054
20316SOL     OW65885   8.284   0.165   3.189 -0.2383 -0.2498 -0.0119
20316SOL    HW165886   8.371   0.192   3.160  0.1849 -0.5273  0.9832
20316SOL    HW265887   8.279   0.072   3.167 -0.0776 -0.3608  0.4195
20317SOL     OW65888   9.775   3.058   7.984  0.1959 -0.2815 -0.1840
20317SOL    HW165889   9.767   3.153   7.992  1.3922 -0.2789  1.6711
20317SOL    HW265890   9.846   3.045   7.921  1.5983  0.1476  1.2458
20318SOL     OW65891   5.726   0.477   0.981  0.2880 -0.3663 -0.0036
20318SOL    HW165892   5.705   0.536   1.054 -1.5334  0.7238 -1.3397
20318SOL    HW265893   5.821   0.488   0.969  0.3894  0.4747  1.2818
20319SOL     OW65894   2.977   4.257   1.985  0.1412 -0.2711 -0.2932
20319SOL    HW165895   3.044   4.315   1.948 -1.9494  2.0660 -0.7170
20319SOL    HW265896   2.936   4.217   1.908 -3.2221  3.4638 -0.7823
20320SOL     OW65897   5.280   1.876   5.612  0.0157 -0.5963 -0.2007
20320SOL    HW165898   5.307   1.785   5.603 -2.3260 -1.4975  0.9673
20320SOL    HW265899   5.356   1.920   5.651 -0.0470 -2.9525  2.9325
20321SOL     OW65900   4.065   3.616   6.046 -0.2694 -0.5491 -0.1814
20321SOL    HW165901   4.097   3.558   6.115  0.7488 -0.5701 -0.6451
20321SOL    HW265902   4.101   3.578   5.965  2.0974  1.7635 -0.3439
20322SOL     OW65903   2.422   0.522   0.867  0.3771 -0.0427 -0.4507
20322SOL    HW165904   2.375   0.584   0.811 -0.5599 -0.4523 -0.1448
20322SOL    HW265905   2.457   0.575   0.938 -1.1043  0.0498  0.2476
20323SOL     OW65906   0.090   8.687   8.699  0.3232  0.2365 -0.0500
20323SOL    HW165907   0.089   8.592   8.698  0.3417  0.2358 -0.0203
20323SOL    HW265908   0.164   8.710   8.756 -0.1231  0.2638  0.5346
20324SOL     OW65909   3.412   6.029   5.025 -0.0393  0.1831 -0.7771
20324SOL    HW165910   3.318   6.034   5.009 -0.2378  2.3690  0.6796
20324SOL    HW265911   3.423   5.951   5.080 -1.0385  0.0696 -0.7207
20325SOL     OW65912   4.701   4.459   8.202  0.1181  0.0159 -0.1816
20325SOL    HW165913   4.742   4.526   8.147  1.8327 -0.9140 -0.1201
20325SOL    HW265914   4.760   4.384   8.195 -0.5387 -0.7073  1.5502
20326SOL     OW65915   0.364   5.321   0.621  0.1184  0.4768  0.0655
20326SOL    HW165916   0.300   5.353   0.684 -1.3086  1.7214 -1.8692
20326SOL    HW265917   0.421   5.396   0.604 -0.3945  0.6354 -1.1052
20327SOL     OW65918   9.302   5.756   8.484  0.5580  0.2252 -0.2593
20327SOL    HW165919   9.384   5.707   8.493  0.9078  0.4095 -2.1294
20327SOL    HW265920   9.256   5.713   8.412 -0.0436  1.4058 -0.6033
20328SOL     OW65921   9.930   1.979   1.910 -0.7273  0.5207  0.0049
20328SOL    HW165922   9.849   2.030   1.914 -0.8104  0.6020 -1.8497
20328SOL    HW265923   9.901   1.892   1.881 -0.2162  0.4117 -0.1855
20329SOL     OW65924   9.588   4.852  11.052 -0.8352 -0.1457  0.2478
20329SOL    HW165925   9.666   4.796  11.053 -0.0059  0.9324 -0.8213
20329SOL    HW265926   9.515   4.790  11.054  0.0246 -1.1880  1.1221
20330SOL     OW65927   3.606   2.714   2.402  0.1459  0.2995 -0.2017
20330SOL    HW165928   3.581   2.780   2.467  2.8091  0.3455  0.8867
20330SOL    HW265929   3.594   2.757   2.318 -0.2800  1.3682  0.3850
20331SOL     OW65930   3.628   0.913   5.475  0.0445 -0.7837 -0.0516
20331SOL    HW165931   3.691   0.959   5.531 -0.4906 -1.8772  1.5141
20331SOL    HW265932   3.683   0.863   5.414  0.6747 -0.8338  0.5426
20332SOL     OW65933   0.463   2.129   2.557  0.1815 -0.7072  0.5188
20332SOL    HW165934   0.394   2.127   2.491  1.4283 -2.8756 -0.8693
20332SOL    HW265935   0.421   2.164   2.635 -1.9753 -0.2260 -0.7628
20333SOL     OW65936   5.676   8.042   1.044  0.0934  0.2240 -0.1861
20333SOL    HW165937   5.765   8.076   1.033  0.1212  1.0246  2.0245
20333SOL    HW265938   5.625   8.089   0.978  0.9681  1.2251 -0.1879
20334SOL     OW65939   8.267   3.717   7.691 -0.0717  0.9495 -0.2569
20334SOL    HW165940   8.265   3.636   7.741 -0.6884  1.1484  0.0660
20334SOL    HW265941   8.359   3.731   7.670  0.0505  0.2350 -0.2051
20335SOL     OW65942  11.466   7.810  10.756  0.5912  0.2598  0.1087
20335SOL    HW165943  11.546   7.762  10.780  0.7355 -0.2819 -1.3532
20335SOL    HW265944  11.429   7.838  10.839  1.6799 -0.5101  0.8797
20336SOL     OW65945  10.852   1.597  11.549  0.3620 -0.1928  0.1772
20336SOL    HW165946  10.868   1.673  11.493  1.3419  1.7593  2.9200
20336SOL    HW265947  10.760   1.576  11.534  0.5306  0.3540 -1.9553
20337SOL     OW65948   8.017   0.332   8.976 -0.0341  0.4066  0.4003
20337SOL    HW165949   7.959   0.353   9.048  0.1433  1.7347  0.1817
20337SOL    HW265950   7.999   0.399   8.910 -0.7862 -1.2441 -1.1561
20338SOL     OW65951   5.937   7.385   0.777  0.6906 -0.1426 -0.6494
20338SOL    HW165952   5.886   7.344   0.846 -0.1405  0.3348 -0.9570
20338SOL    HW265953   5.996   7.317   0.746  1.7156 -0.1044  1.1244
20339SOL     OW65954   0.690   6.453   9.731 -0.1570  0.2878  0.0283
20339SOL    HW165955   0.670   6.365   9.762  2.1047 -0.2043  0.3150
20339SOL    HW265956   0.714   6.501   9.810  1.0616  0.4036 -0.3910
20340SOL     OW65957   3.454   2.381   2.018 -0.2964 -0.1952  0.7946
20340SOL    HW165958   3.405   2.337   2.088  0.1242 -0.6772  0.7908
20340SOL    HW265959   3.396   2.452   1.989  0.5791  1.8539  3.5355
20341SOL     OW65960   9.493   8.462   6.272  0.0607 -0.5626 -0.8410
20341SOL    HW165961   9.445   8.388   6.309 -1.6757  0.8618 -0.1157
20341SOL    HW265962   9.564   8.478   6.334 -1.9641  0.8759  1.2796
20342SOL     OW65963   0.674   9.396  11.614 -0.1895 -0.5483  0.3934
20342SOL    HW165964   0.730   9.460  11.657  1.3064  0.0028 -2.1746
20342SOL    HW265965   0.587   9.436  11.615  0.2516  0.4340  0.8851
20343SOL     OW65966  10.807   8.226   2.118  0.0203 -0.6088 -0.0896
20343SOL    HW165967  10.749   8.287   2.072  0.0439 -0.6589 -0.1860
20343SOL    HW265968  10.791   8.243   2.210  1.6575  1.1658 -0.0514
20344SOL     OW65969   4.647   8.200   2.739 -0.3021  0.0846 -0.9141
20344SOL    HW165970   4.675   8.283   2.778  0.3178 -0.4538 -0.2064
20344SOL    HW265971   4.720   8.173   2.684  0.9359 -1.6229  1.4012
20345SOL     OW65972   8.207   5.242   4.720  0.6908 -0.1561 -0.3239
20345SOL    HW165973   8.115   5.268   4.726  0.2826 -1.2881 -1.1893
20345SOL    HW265974   8.240   5.247   4.810 -0.2426  0.1496  0.0124
20346SOL     OW65975   9.689   3.147  11.639  0.0801  0.3129  0.3519
20346SOL    HW165976   9.622   3.203  11.677 -0.8107  1.0140 -2.0337
20346SOL    HW265977   9.772   3.185  11.669 -0.5198 -0.0974  2.7009
20347SOL     OW65978   3.629   6.285  10.237 -0.0143  0.4667  0.3245
20347SOL    HW165979   3.723   6.303  10.236  0.9183 -3.4402 -1.2353
20347SOL    HW265980   3.594   6.333  10.162  1.0633  0.6079 -0.0978
20348SOL     OW65981   3.835   0.903   3.037  0.2892  0.4642 -0.0172
20348SOL    HW165982   3.910   0.879   2.983 -0.2742 -0.0372 -0.5947
20348SOL    HW265983   3.830   0.833   3.103  0.0684  0.2636 -0.2463
20349SOL     OW65984   6.466   1.018  11.536 -0.2318  0.2140  0.0325
20349SOL    HW165985   6.486   1.074  11.461  1.5733  0.6376  0.7712
20349SOL    HW265986   6.379   1.048  11.565 -0.0212  1.5150 -0.5868
20350SOL     OW65987   3.498   3.965   5.683  0.3423  0.6668 -0.3359
20350SOL    HW165988   3.450   3.895   5.639 -0.1949  0.1850  0.9515
20350SOL    HW265989   3.470   4.045   5.638 -2.7726  0.5643  1.1555
20351SOL     OW65990   8.133  10.383   3.758 -0.4950 -0.0874 -0.0641
20351SOL    HW165991   8.180  10.327   3.696  1.4929  1.8909 -0.4658
20351SOL    HW265992   8.190  10.387   3.834 -0.0054  2.2441 -0.4885
20352SOL     OW65993   1.218   4.474   1.608 -0.4948  0.4583 -0.2073
20352SOL    HW165994   1.310   4.469   1.634  0.1041 -1.1185 -2.4002
20352SOL    HW265995   1.180   4.538   1.668  2.1405  1.5864  0.3914
20353SOL     OW65996   0.407   8.025  11.494  0.2793 -0.4324  0.7761
20353SOL    HW165997   0.492   8.021  11.538  0.0949 -2.2683  1.0389
20353SOL    HW265998   0.343   8.009  11.565 -0.3046  0.9057  0.5815
20354SOL     OW65999   5.958  11.058   6.848 -0.0332 -0.1600  0.4600
20354SOL    HW166000   5.942  11.038   6.940  0.4198  0.6468  0.7209
20354SOL    HW266001   5.962  10.972   6.805 -3.5203 -0.5117  0.5865
20355SOL     OW66002   8.634   2.021  10.960  0.1912  0.7592 -0.0667
20355SOL    HW166003   8.709   2.038  10.902  0.3806 -2.0793 -0.8161
20355SOL    HW266004   8.673   1.993  11.042  0.1152 -2.5882 -1.0477
20356SOL     OW66005  10.771   1.996   0.820 -0.0685 -0.2406  0.1026
20356SOL    HW166006  10.776   1.910   0.862 -1.2638 -0.2679  0.2241
20356SOL    HW266007  10.775   2.058   0.893  2.2526 -0.1000 -0.0733
20357SOL     OW66008   5.276   1.876   7.034 -0.7628 -0.3712 -0.1668
20357SOL    HW166009   5.266   1.822   6.955  2.2539  0.0810 -0.9906
20357SOL    HW266010   5.215   1.949   7.021 -0.3342 -0.2985 -2.1693
20358SOL     OW66011   7.782  10.171   6.879  0.2124  0.2708  0.0347
20358SOL    HW166012   7.849  10.114   6.842  1.4915  1.6239  0.1358
20358SOL    HW266013   7.727  10.113   6.931 -0.5109 -1.3773 -2.4134
20359SOL     OW66014  11.176   5.306  11.142 -0.0539  0.1439 -0.2428
20359SOL    HW166015  11.193   5.214  11.123  0.4343 -0.8809  4.1231
20359SOL    HW266016  11.080   5.313  11.140 -0.2619 -1.2059  1.7892
20360SOL     OW66017   1.609   5.277  10.827  0.0091  0.1869 -0.0175
20360SOL    HW166018   1.690   5.307  10.785 -0.9744  1.0065 -1.3874
20360SOL    HW266019   1.583   5.200  10.777  0.7786 -1.1344  1.4752
20361SOL     OW66020   7.454  10.538   0.476  0.1272  0.1275  0.6977
20361SOL    HW166021   7.479  10.623   0.439  0.1338  0.4566  1.4430
20361SOL    HW266022   7.474  10.475   0.407 -0.8065  0.8329 -0.2556
20362SOL     OW66023   7.049   7.885   0.634  0.2148  0.1964 -0.1910
20362SOL    HW166024   6.955   7.867   0.624 -0.2680  2.5388 -0.3046
20362SOL    HW266025   7.055   7.980   0.639  2.8089  0.3191 -2.7682
20363SOL     OW66026  10.432   4.168   5.841  0.1924 -0.5025 -0.1747
20363SOL    HW166027  10.354   4.172   5.786 -0.3985  1.3657  0.7452
20363SOL    HW266028  10.494   4.228   5.799  0.7477 -1.1584 -0.3057
20364SOL     OW66029   4.191   8.298   2.776  0.4817  0.5282 -0.3206
20364SOL    HW166030   4.159   8.274   2.689 -0.0497  0.1156 -0.0161
20364SOL    HW266031   4.203   8.215   2.821 -0.3088  0.7711  0.3733
20365SOL     OW66032   8.597  10.325   8.891 -0.2083 -0.2580 -0.0836
20365SOL    HW166033   8.570  10.383   8.961 -0.7910 -3.4609  2.5912
20365SOL    HW266034   8.692  10.320   8.900 -0.4106 -1.9994  1.7891
20366SOL     OW66035   6.072   3.192   7.222 -0.2441 -0.1229  0.2266
20366SOL    HW166036   6.138   3.244   7.268 -1.1609 -0.5903  2.2100
20366SOL    HW266037   5.990   3.214   7.266 -1.2508 -0.4415 -1.3939
20367SOL     OW66038  11.545   8.937   5.946  0.9110 -0.0172 -1.0576
20367SOL    HW166039  11.490   8.921   6.023  0.1769  1.8059 -1.1582
20367SOL    HW266040  11.526   8.862   5.888 -0.5765 -0.0516 -0.5817
20368SOL     OW66041   9.714   2.398   8.531  0.6676  0.8910  0.3625
20368SOL    HW166042   9.702   2.491   8.515  2.4608  0.8853 -1.4596
20368SOL    HW266043   9.800   2.378   8.494 -0.3441 -1.8140 -0.7828
20369SOL     OW66044   7.342   2.581   5.973  0.1433 -0.1382 -0.2759
20369SOL    HW166045   7.289   2.566   5.896 -1.4663 -0.8860  0.9186
20369SOL    HW266046   7.378   2.670   5.961 -0.9632  0.1845 -1.3475
20370SOL     OW66047  10.635   0.420   2.256 -0.1025  0.9148 -0.7251
20370SOL    HW166048  10.541   0.434   2.264  0.1301  1.6309  1.4041
20370SOL    HW266049  10.644   0.326   2.242 -1.1044  0.6537  0.2386
20371SOL     OW66050   5.254   9.470   1.915 -0.3459  0.3286 -0.4494
20371SOL    HW166051   5.186   9.525   1.954 -0.3497 -0.3141  0.4758
20371SOL    HW266052   5.336   9.503   1.951 -0.2079  0.6868 -1.0678
20372SOL     OW66053   8.268   6.914   8.372  0.2543  0.4273 -0.0827
20372SOL    HW166054   8.355   6.942   8.343  1.0980  0.6129  2.3621
20372SOL    HW266055   8.221   6.893   8.292  1.9076  2.1775 -1.6082
20373SOL     OW66056  11.365   5.898   0.254  0.5202 -0.1564 -0.0416
20373SOL    HW166057  11.398   5.851   0.330  0.2520  1.2510  0.9845
20373SOL    HW266058  11.414   5.980   0.254  0.5668 -0.1624 -1.4435
20374SOL     OW66059   9.649   5.007   4.880  0.3533 -0.5800  0.1581
20374SOL    HW166060   9.573   4.980   4.829  0.1987  1.2839 -0.6442
20374SOL    HW266061   9.618   5.077   4.936  0.8312 -1.7423  1.9810
20375SOL     OW66062  10.816   4.443   8.508 -0.0910 -0.0144 -0.0830
20375SOL    HW166063  10.880   4.454   8.439  1.0073  1.3022  1.1050
20375SOL    HW266064  10.760   4.520   8.502  1.1005  1.0465  1.5553
20376SOL     OW66065   5.883   7.602  10.235  0.0085 -0.0001 -0.6872
20376SOL    HW166066   5.833   7.621  10.156  1.3568  1.7955 -1.1603
20376SOL    HW266067   5.818   7.605  10.305 -0.7643  1.1304 -1.4166
20377SOL     OW66068   3.185   7.743   6.926  0.5195  0.5048  0.4290
20377SOL    HW166069   3.236   7.824   6.930 -0.1430  0.9056  1.2345
20377SOL    HW266070   3.249   7.674   6.914  1.1248  1.1246  0.0320
20378SOL     OW66071   9.632   4.148  11.643  0.5385 -0.4462 -0.2487
20378SOL    HW166072   9.688   4.223  11.623  0.4903 -0.4928 -0.5670
20378SOL    HW266073   9.689   4.089  11.693  0.8621 -0.6262 -0.8246
20379SOL     OW66074  10.351   3.143   7.082  0.8459  0.5968 -0.1691
20379SOL    HW166075  10.400   3.114   7.159 -2.4535 -1.2141  1.4537
20379SOL    HW266076  10.295   3.213   7.113 -0.5612 -0.1783 -0.8809
20380SOL     OW66077   0.044   1.169   0.888 -0.7067  0.1957 -0.0705
20380SOL    HW166078  -0.037   1.182   0.838 -0.8183 -1.9719 -0.5246
20380SOL    HW266079   0.016   1.122   0.967  0.0697 -0.3612 -0.1182
20381SOL     OW66080   2.851   4.556   1.652  0.6494  0.2085  0.5873
20381SOL    HW166081   2.774   4.502   1.635  0.1219  0.4871  1.9448
20381SOL    HW266082   2.921   4.493   1.668  0.5391 -0.0532  0.0575
20382SOL     OW66083  11.001   4.252   5.873  0.1053  0.0167 -0.2310
20382SOL    HW166084  11.082   4.254   5.924  0.4536  1.6311 -0.7955
20382SOL    HW266085  11.000   4.164   5.835  0.7921 -0.5617  1.0061
20383SOL     OW66086   4.292   6.855  10.747  0.0041 -0.1445  0.4079
20383SOL    HW166087   4.210   6.885  10.787  0.0077  0.0984  0.2350
20383SOL    HW266088   4.265   6.814  10.665 -0.0392 -0.9858  0.8380
20384SOL     OW66089   1.520   7.726   7.591  0.2763 -0.2019  0.4451
20384SOL    HW166090   1.499   7.685   7.675 -0.8115 -0.0877  0.2460
20384SOL    HW266091   1.541   7.817   7.614 -1.9490  0.3716  0.4380
20385SOL     OW66092   8.847   6.517   4.736  0.4721 -0.1889 -0.0350
20385SOL    HW166093   8.942   6.521   4.737  0.4772  0.4869 -1.3008
20385SOL    HW266094   8.824   6.511   4.643 -0.7503  0.5611  0.1986
20386SOL     OW66095   5.554  11.404   4.940 -0.0166 -0.3025 -0.1253
20386SOL    HW166096   5.557  11.364   4.853 -0.8663  1.2750 -0.9168
20386SOL    HW266097   5.470  11.449   4.944 -0.3985 -1.0648  1.8800
20387SOL     OW66098   3.010   2.637  11.653 -0.0193 -0.3090 -0.2767
20387SOL    HW166099   3.101   2.608  11.650  0.0426 -0.0865 -0.5814
20387SOL    HW266100   2.992   2.668  11.565 -0.2221  0.1634 -0.0743
20388SOL     OW66101   3.118   9.734   7.246 -0.1861  0.2581  0.0628
20388SOL    HW166102   3.112   9.785   7.327  0.2980  0.3107  0.0641
20388SOL    HW266103   3.189   9.774   7.197 -0.3088  0.0632 -0.2783
20389SOL     OW66104   4.934   9.308   4.528  0.1003 -0.2639 -0.3879
20389SOL    HW166105   4.860   9.320   4.586 -0.0495  1.5777 -0.9095
20389SOL    HW266106   5.011   9.311   4.585 -0.0451  1.5352 -0.2386
20390SOL     OW66107   6.028   4.994   7.623 -0.6507 -0.1156  0.1841
20390SOL    HW166108   6.098   5.010   7.560 -1.0032 -0.5843 -0.3423
20390SOL    HW266109   6.069   4.943   7.693 -0.2125  0.5701  0.4270
20391SOL     OW66110   5.255   5.512   9.454 -0.4790 -0.5691 -0.4070
20391SOL    HW166111   5.249   5.603   9.484  0.6764 -0.3606 -0.7482
20391SOL    HW266112   5.202   5.463   9.517 -2.2246  0.4790 -0.9680
20392SOL     OW66113  11.640  11.461   4.354  0.1228  0.0091 -0.0352
20392SOL    HW166114  11.572  11.525   4.335 -0.5590 -1.0474 -1.2907
20392SOL    HW266115  11.719  11.497   4.312 -0.0476  0.4293 -0.0029
20393SOL     OW66116   1.856   7.532   2.952 -0.2770  0.2132  0.0354
20393SOL    HW166117   1.786   7.543   2.887 -0.1620  2.9158  0.2698
20393SOL    HW266118   1.932   7.573   2.913 -0.1205  1.6246  1.7133
20394SOL     OW66119   2.903   3.104   3.670 -0.6177  0.0661 -0.1447
20394SOL    HW166120   2.881   3.021   3.714  0.9817 -0.1444  0.3091
20394SOL    HW266121   2.948   3.078   3.590  0.6986  0.4795  0.4378
20395SOL     OW66122   5.754   5.299   2.549  0.0349 -0.2448 -0.2868
20395SOL    HW166123   5.672   5.307   2.599  0.2315 -0.0443  0.0104
20395SOL    HW266124   5.755   5.377   2.493  0.3177  0.0760  0.1578
20396SOL     OW66125   6.315   7.091   8.232 -0.1154  0.9863 -0.4840
20396SOL    HW166126   6.256   7.166   8.232 -1.7878 -0.1464  2.4868
20396SOL    HW266127   6.259   7.016   8.253  2.1270 -0.3302  1.3093
20397SOL     OW66128   7.183   1.806   1.401 -0.4290 -0.1768 -0.2532
20397SOL    HW166129   7.200   1.901   1.404  0.1767 -0.2358 -1.2564
20397SOL    HW266130   7.094   1.797   1.433 -0.1122  0.6250  0.9162
20398SOL     OW66131   7.997   6.082   3.487  0.2774  0.1805  0.6562
20398SOL    HW166132   7.998   6.140   3.411  4.0453  0.5517  0.7952
20398SOL    HW266133   8.018   6.139   3.561 -2.4245 -0.3413  1.9711
20399SOL     OW66134   8.275   4.032   5.077  0.4104  0.1782  0.0287
20399SOL    HW166135   8.197   4.062   5.032 -0.2366 -1.1294  0.2177
20399SOL    HW266136   8.258   4.050   5.169 -0.9593 -2.6065  0.4251
20400SOL     OW66137   5.953   1.299   6.097 -0.1737 -0.2326 -0.3883
20400SOL    HW166138   5.978   1.238   6.027  1.8004  0.0051  0.0721
20400SOL    HW266139   5.967   1.386   6.059  0.2964 -0.0964  0.0958
20401SOL     OW66140   9.576   8.125   8.230 -0.0785  0.6290 -0.9845
20401SOL    HW166141   9.617   8.192   8.176  0.8658  0.1849 -0.8316
20401SOL    HW266142   9.484   8.125   8.203  0.0999  1.3645 -1.6043
20402SOL     OW66143   5.054   7.264   1.901  0.1047  0.0088  0.0956
20402SOL    HW166144   5.048   7.339   1.842 -0.6433  0.4109  0.6517
20402SOL    HW266145   5.091   7.194   1.848  0.7213  0.7413 -0.4647
20403SOL     OW66146  11.075   1.412   2.175  0.3075  0.2365 -0.0160
20403SOL    HW166147  11.114   1.344   2.229 -1.0925  0.8156  1.8297
20403SOL    HW266148  10.982   1.390   2.172  0.2834  0.3721 -2.0406
20404SOL     OW66149   0.994   6.627   3.640  0.3473 -0.2976 -0.1487
20404SOL    HW166150   0.971   6.607   3.730  0.5366  0.0043 -0.0317
20404SOL    HW266151   1.056   6.700   3.646  0.3647 -0.2763 -0.5201
20405SOL     OW66152   7.764   5.368   4.088 -0.0116 -0.2787 -0.1594
20405SOL    HW166153   7.720   5.321   4.017  2.6790 -0.9587 -1.5003
20405SOL    HW266154   7.696   5.380   4.155 -2.0911 -1.5176 -1.9343
20406SOL     OW66155   3.038   4.973   3.260  0.0842 -0.4007 -0.2532
20406SOL    HW166156   2.947   4.961   3.234 -0.2866 -0.6325  1.0631
20406SOL    HW266157   3.086   4.905   3.214 -0.7289 -1.5902  0.6027
20407SOL     OW66158   1.463   3.372   6.346  0.6374 -0.6429  0.6065
20407SOL    HW166159   1.371   3.346   6.338  0.5760 -0.2425 -0.0297
20407SOL    HW266160   1.496   3.374   6.256 -0.0514  3.9785  0.2298
20408SOL     OW66161   4.545   3.150   5.655 -0.0557 -0.0796 -0.9942
20408SOL    HW166162   4.461   3.153   5.609  0.0591  0.3853 -1.1786
20408SOL    HW266163   4.524   3.117   5.742 -0.3659 -0.3589 -1.1720
20409SOL     OW66164   3.045   0.299   7.595  0.3463 -0.3485  0.1461
20409SOL    HW166165   2.994   0.339   7.524  0.4352 -0.3777  0.0654
20409SOL    HW266166   3.035   0.205   7.582 -0.5552 -0.3589  0.8346
20410SOL     OW66167   6.750   0.748   3.696 -0.0934  0.1249  0.4015
20410SOL    HW166168   6.710   0.713   3.776 -1.5371  0.4548 -0.1588
20410SOL    HW266169   6.844   0.750   3.716 -0.5651  3.5126  3.5218
20411SOL     OW66170   0.616   2.639   5.911  0.0665 -0.3739  0.3331
20411SOL    HW166171   0.694   2.588   5.933  0.3128 -0.2671 -0.2620
20411SOL    HW266172   0.636   2.678   5.826 -1.2861 -1.7378 -0.6716
20412SOL     OW66173   7.820   2.737   0.355  0.0900  0.0212 -0.4056
20412SOL    HW166174   7.891   2.728   0.419 -0.8603 -0.3322  0.6180
20412SOL    HW266175   7.750   2.681   0.388 -0.4005 -0.2297 -1.8056
20413SOL     OW66176  10.075   4.495   5.706 -0.9236  0.1109 -0.5368
20413SOL    HW166177  10.056   4.418   5.652  0.6198 -0.0943 -0.8102
20413SOL    HW266178  10.123   4.461   5.781 -0.5212  0.7684 -0.4926
20414SOL     OW66179  10.466   9.477   0.859 -0.1654  0.0409  0.2857
20414SOL    HW166180  10.479   9.539   0.931  1.1295  0.0007  0.1159
20414SOL    HW266181  10.470   9.530   0.780  0.7882 -0.2141  0.1471
20415SOL     OW66182   2.256   0.879  11.233  0.3637 -0.2902 -0.5112
20415SOL    HW166183   2.322   0.857  11.298 -1.4420 -3.0167  0.5692
20415SOL    HW266184   2.237   0.971  11.249  1.2579 -0.4130  1.6128
20416SOL     OW66185   3.582   7.793   6.375  0.4265 -0.5045 -0.0059
20416SOL    HW166186   3.516   7.733   6.409  0.2086  0.0885  0.6410
20416SOL    HW266187   3.536   7.876   6.364  0.9659 -0.1859  0.0936
20417SOL     OW66188   5.827   1.246   8.269 -0.4103  0.6743  0.5277
20417SOL    HW166189   5.846   1.172   8.211 -1.4169  0.5832  0.2935
20417SOL    HW266190   5.747   1.284   8.234  1.2708  3.3583 -0.7840
20418SOL     OW66191   4.546   7.257   8.065  0.6511 -0.0177  0.1749
20418SOL    HW166192   4.579   7.275   8.153 -1.3742 -1.6131  1.3428
20418SOL    HW266193   4.499   7.337   8.041  0.8292  0.2685  0.7548
20419SOL     OW66194   6.610   5.807  11.536 -0.1078 -0.3725  0.2443
20419SOL    HW166195   6.645   5.857  11.609 -2.4170  1.0019  0.4980
20419SOL    HW266196   6.572   5.872  11.477 -1.1513 -1.6541 -0.5786
20420SOL     OW66197   4.629   6.939   8.542  0.4452  0.4619  0.2027
20420SOL    HW166198   4.654   6.852   8.510  1.1221  0.4423  0.7866
20420SOL    HW266199   4.536   6.946   8.519  0.2979 -0.5455  0.4362
20421SOL     OW66200   1.566   2.178  11.287 -0.4094  0.0850 -0.2887
20421SOL    HW166201   1.581   2.190  11.194 -1.4851  0.9583 -0.3592
20421SOL    HW266202   1.638   2.225  11.329 -1.2600  1.7573 -0.6541
20422SOL     OW66203   3.803   1.021   4.386 -0.1143 -0.2084 -0.3442
20422SOL    HW166204   3.776   0.968   4.460  0.3109  2.0182  1.5135
20422SOL    HW266205   3.880   0.976   4.351 -1.3848 -2.2653 -0.6486
20423SOL     OW66206  11.367   1.097   3.024  0.2937 -0.0135  0.3602
20423SOL    HW166207  11.332   1.186   3.020 -0.7025 -0.4138 -0.2963
20423SOL    HW266208  11.296   1.046   3.063  0.5604 -0.6517  0.0125
20424SOL     OW66209  11.360   3.432   9.623 -0.4458 -0.0456  0.1994
20424SOL    HW166210  11.273   3.430   9.585 -0.5710 -0.1664  0.4858
20424SOL    HW266211  11.412   3.486   9.564 -0.6663 -0.1395 -0.0774
20425SOL     OW66212   2.218   8.438   3.743  0.4720 -0.6971  0.2568
20425SOL    HW166213   2.142   8.485   3.777  0.3644 -0.4676 -0.2860
20425SOL    HW266214   2.210   8.349   3.778  1.2241 -0.0685  2.1374
20426SOL     OW66215   9.680   2.202   1.915 -0.3064  0.7093 -0.0393
20426SOL    HW166216   9.684   2.199   2.011  0.3847  0.9628 -0.0556
20426SOL    HW266217   9.736   2.275   1.891  0.2051  0.1233 -0.6789
20427SOL     OW66218   9.389   7.927   2.652  0.5090  0.2379 -0.1943
20427SOL    HW166219   9.370   7.943   2.744 -1.0007 -0.6738 -0.3029
20427SOL    HW266220   9.310   7.955   2.606  0.5592 -0.8952 -1.0237
20428SOL     OW66221  10.436   8.089   6.419  0.3523 -0.0109  0.2325
20428SOL    HW166222  10.476   8.169   6.454  1.2459  0.1197 -1.0125
20428SOL    HW266223  10.455   8.091   6.325 -0.6189 -1.1173 -0.0244
20429SOL     OW66224  10.609   9.462   2.381 -0.2819 -0.1643  0.1646
20429SOL    HW166225  10.691   9.438   2.424  0.2524  2.9785  1.1698
20429SOL    HW266226  10.550   9.388   2.399  1.7980 -1.7618  0.8334
20430SOL     OW66227   8.766   4.393   0.600 -0.0088 -1.2422 -0.4590
20430SOL    HW166228   8.721   4.367   0.680  0.3519 -0.7861 -0.0939
20430SOL    HW266229   8.857   4.367   0.615 -0.2231 -2.5925 -1.3872
20431SOL     OW66230   5.841  10.198   3.450  0.5074  0.4905  0.1371
20431SOL    HW166231   5.829  10.206   3.356 -0.8998 -0.9039  0.1526
20431SOL    HW266232   5.814  10.283   3.485 -0.6288  0.4512 -0.5998
20432SOL     OW66233   5.046   8.628   5.166  0.0523 -0.1917  0.0900
20432SOL    HW166234   5.018   8.705   5.215 -0.8724 -1.4925  1.7064
20432SOL    HW266235   5.135   8.611   5.197 -0.0051 -0.1830  0.2607
20433SOL     OW66236   3.169   8.083   3.038  0.2726  0.3661  0.0929
20433SOL    HW166237   3.177   8.073   2.943 -0.4101  1.7650 -0.1323
20433SOL    HW266238   3.245   8.135   3.063  0.3138  0.2167  0.2828
20434SOL     OW66239   6.678   7.004  10.683  0.1522 -0.2090  0.1944
20434SOL    HW166240   6.682   6.919  10.726  0.2312  0.3543  1.3171
20434SOL    HW266241   6.768   7.019  10.652 -0.0321 -0.8699 -0.7055
20435SOL     OW66242   5.334  10.858   4.536  0.1819 -0.3740 -0.3444
20435SOL    HW166243   5.315  10.798   4.464  0.7984 -0.1482 -0.6995
20435SOL    HW266244   5.421  10.831   4.567  0.6520  0.6141 -0.7928
20436SOL     OW66245   3.256   2.500   4.049  0.4890 -0.1461  0.8482
20436SOL    HW166246   3.169   2.538   4.043  1.1313  1.2248 -0.7007
20436SOL    HW266247   3.280   2.508   4.141 -0.6984  0.2261  1.1362
20437SOL     OW66248   1.396   0.720   9.036  0.3021  0.2758  0.0206
20437SOL    HW166249   1.376   0.769   8.957 -2.1374 -1.5364 -0.5960
20437SOL    HW266250   1.340   0.642   9.031  2.0366 -1.2471  2.2190
20438SOL     OW66251   5.715   3.776   4.412 -0.1802 -0.1101 -1.3472
20438SOL    HW166252   5.684   3.866   4.400  0.8503  0.2277 -1.5599
20438SOL    HW266253   5.808   3.779   4.388  0.3017 -0.8582  0.2963
20439SOL     OW66254   8.042   5.053   9.723  0.0421 -0.0735 -0.1437
20439SOL    HW166255   7.969   4.999   9.692 -0.8086  0.6558  0.5226
20439SOL    HW266256   8.070   5.103   9.646  0.0708 -0.6016 -0.4837
20440SOL     OW66257   1.934   2.420   3.167  0.1475  0.3513  0.2919
20440SOL    HW166258   1.855   2.403   3.218  1.1703  0.2525  1.9203
20440SOL    HW266259   1.979   2.335   3.162  1.7138  0.9904  2.2107
20441SOL     OW66260   5.871  10.172  10.374  0.3239 -0.4112  0.4655
20441SOL    HW166261   5.879  10.266  10.357 -2.6361  0.0800  1.3506
20441SOL    HW266262   5.874  10.164  10.469  0.3450 -1.1924  0.4057
20442SOL     OW66263   8.113   6.037   8.173  0.8915 -0.2385 -0.7671
20442SOL    HW166264   8.203   6.005   8.176  0.8620 -0.3913 -1.4750
20442SOL    HW266265   8.121   6.131   8.161  0.9759  0.0424  1.1696
20443SOL     OW66266  11.172   2.411   4.640  0.5102 -0.4578  1.0752
20443SOL    HW166267  11.134   2.357   4.571 -1.4795 -2.1653  3.3135
20443SOL    HW266268  11.261   2.378   4.651  1.1906  0.4851 -1.2226
20444SOL     OW66269   6.768   5.761   2.316  0.2596 -0.0767  0.0140
20444SOL    HW166270   6.814   5.699   2.374 -1.9542  0.0338  2.0364
20444SOL    HW266271   6.717   5.816   2.376 -0.3301  1.6188 -1.9472
20445SOL     OW66272   5.533   3.789   4.197 -0.2737  0.4501 -0.2983
20445SOL    HW166273   5.594   3.734   4.149  0.1074  0.0426  0.6285
20445SOL    HW266274   5.558   3.779   4.289 -2.5325 -0.7564  0.2656
20446SOL     OW66275   3.262   9.685   5.612 -0.3376  0.2045  0.2646
20446SOL    HW166276   3.308   9.696   5.529  0.3786  1.1487  0.7733
20446SOL    HW266277   3.307   9.614   5.656 -2.1257 -1.8828 -1.0800
20447SOL     OW66278   2.621   3.622   3.210 -0.0933 -0.3206  0.1924
20447SOL    HW166279   2.532   3.655   3.205  0.5983  1.6680 -0.1625
20447SOL    HW266280   2.668   3.687   3.263  1.4283 -0.5634 -0.7872
20448SOL     OW66281   4.364  10.271   9.597 -0.1656 -1.1603 -0.3975
20448SOL    HW166282   4.344  10.275   9.504  1.9118 -0.5175 -0.8763
20448SOL    HW266283   4.457  10.294   9.603  0.0811 -2.3815  1.7096
20449SOL     OW66284   5.251   9.675   4.762 -0.0166 -0.2850  0.3924
20449SOL    HW166285   5.257   9.613   4.690  2.0852 -0.2985  0.5256
20449SOL    HW266286   5.341   9.688   4.791 -0.2928  2.9291  0.2797
20450SOL     OW66287   4.670   0.252   5.779  0.2020 -0.8830  0.3394
20450SOL    HW166288   4.680   0.156   5.776  0.3639 -0.8395 -1.8291
20450SOL    HW266289   4.655   0.277   5.688  0.9389  1.2556  0.7654
20451SOL     OW66290   1.427   7.193  10.991  0.3039 -0.2974  0.3294
20451SOL    HW166291   1.482   7.172  11.067  0.1556 -0.5091  0.3797
20451SOL    HW266292   1.443   7.121  10.930  1.6106  0.6593 -0.4983
20452SOL     OW66293   8.598   7.965   8.118 -0.5195 -0.5801 -0.0339
20452SOL    HW166294   8.564   8.053   8.103 -0.8680 -0.4744  1.2566
20452SOL    HW266295   8.692   7.972   8.099 -0.4269  0.2419  0.6335
20453SOL     OW66296   0.038   4.524   9.284 -0.2248  0.1596 -0.4205
20453SOL    HW166297   0.053   4.561   9.197  1.4612 -1.8615 -1.0938
20453SOL    HW266298  -0.048   4.482   9.279 -0.3701  0.5180 -0.9292
20454SOL     OW66299   7.436   7.176   4.465 -0.1195 -0.2387 -0.5504
20454SOL    HW166300   7.401   7.178   4.376  0.1161 -0.0160 -0.6391
20454SOL    HW266301   7.525   7.141   4.454 -0.0062  0.0110 -0.4325
20455SOL     OW66302   7.261   6.304   4.717  0.7781 -0.1423  0.4755
20455SOL    HW166303   7.170   6.303   4.746  1.2642  0.7770  2.2101
20455SOL    HW266304   7.272   6.222   4.668 -1.9823  1.4357 -3.3111
20456SOL     OW66305   9.276   3.726   5.043  0.0065  0.1623  0.3205
20456SOL    HW166306   9.273   3.793   4.975  1.2488  0.4818  0.5561
20456SOL    HW266307   9.360   3.682   5.031 -0.8662 -1.5026  0.0608
20457SOL     OW66308   5.306   0.306  11.629  0.0291 -0.0030  0.0518
20457SOL    HW166309   5.274   0.244  11.694 -0.0537  1.5341  1.5556
20457SOL    HW266310   5.229   0.331  11.578 -0.2427  0.0623  0.4960
20458SOL     OW66311   5.125   6.017   7.859 -0.7973  0.3283  0.2927
20458SOL    HW166312   5.084   5.979   7.937  0.1740 -0.0981  0.6100
20458SOL    HW266313   5.147   5.942   7.804 -0.2533  0.5233  0.2326
20459SOL     OW66314   0.184   5.305   6.788  0.2403 -0.0053 -0.4335
20459SOL    HW166315   0.230   5.222   6.778 -0.9850 -0.6237 -1.2528
20459SOL    HW266316   0.091   5.281   6.786 -0.1663  1.4928 -1.8796
20460SOL     OW66317   8.963   2.214   6.186  0.5011  0.2527  0.3063
20460SOL    HW166318   9.037   2.166   6.222  1.1113  1.5733  0.8718
20460SOL    HW266319   8.958   2.185   6.095  2.4175  0.9133 -0.0670
20461SOL     OW66320   6.710   8.317  10.485  0.0034  0.1016 -0.2682
20461SOL    HW166321   6.632   8.363  10.455  0.6814  1.0903 -0.6029
20461SOL    HW266322   6.740   8.268  10.409 -1.4258 -1.9932  0.4336
20462SOL     OW66323   3.682   1.819   1.633  0.3053 -0.4649 -0.0724
20462SOL    HW166324   3.698   1.762   1.707  0.4483  0.6833  0.8132
20462SOL    HW266325   3.593   1.799   1.606  0.9589 -2.3962 -0.9830
20463SOL     OW66326   9.674   4.307   1.386 -0.6446 -0.4030  0.0195
20463SOL    HW166327   9.630   4.369   1.444 -1.5184 -1.3157  0.3728
20463SOL    HW266328   9.719   4.246   1.446  1.8341  0.9579 -0.3301
20464SOL     OW66329   0.623   5.578   8.874 -0.2425 -0.2052 -0.3496
20464SOL    HW166330   0.715   5.573   8.849 -0.6087 -2.0752 -1.5427
20464SOL    HW266331   0.622   5.555   8.967  0.4205 -1.1025 -0.5516
20465SOL     OW66332   0.182   0.200   3.611  0.4256 -0.8957 -0.3527
20465SOL    HW166333   0.117   0.160   3.668 -1.2857 -0.1526 -1.6813
20465SOL    HW266334   0.130   0.253   3.550  2.2732 -0.5088 -1.6540
20466SOL     OW66335  11.182   7.911   9.067  0.1594 -0.4968 -0.1089
20466SOL    HW166336  11.100   7.935   9.111  0.7177  1.8057 -0.1933
20466SOL    HW266337  11.241   7.886   9.138  0.2881  0.7950  0.2675
20467SOL     OW66338   1.647   0.183   3.122 -0.3266 -0.7550  0.0977
20467SOL    HW166339   1.732   0.196   3.080 -1.6535  1.2746 -2.2091
20467SOL    HW266340   1.583   0.200   3.053 -2.6387 -1.4806  1.9368
20468SOL     OW66341   8.089   0.220  10.992  0.3769  0.0560 -0.6083
20468SOL    HW166342   8.027   0.288  11.017  0.2531  0.2393 -1.3939
20468SOL    HW266343   8.043   0.168  10.926  0.0945 -1.4207  0.7123
20469SOL     OW66344   0.776   0.866   2.845  0.2040  0.5833  0.1303
20469SOL    HW166345   0.751   0.818   2.766  3.5180  0.4544 -0.9930
20469SOL    HW266346   0.771   0.800   2.915 -1.4461  0.3478 -0.1561
20470SOL     OW66347   1.618   3.819   7.765  0.1676  0.0821 -0.5053
20470SOL    HW166348   1.706   3.780   7.765  0.0692 -0.1977  0.8398
20470SOL    HW266349   1.589   3.812   7.674  1.6403  0.4360 -1.0273
20471SOL     OW66350   7.618   5.790   8.203 -0.3660  0.7763  0.2617
20471SOL    HW166351   7.696   5.825   8.160 -0.8554  1.9123  0.2685
20471SOL    HW266352   7.653   5.734   8.273  0.4317  0.3835 -0.4310
20472SOL     OW66353   0.642   9.238  10.243  0.1906  0.0073 -0.3985
20472SOL    HW166354   0.646   9.195  10.328 -1.6308 -0.5209 -0.5366
20472SOL    HW266355   0.701   9.188  10.187  0.5841 -0.2940  0.2824
20473SOL     OW66356  10.562   0.914   0.664 -0.6706  0.1226  0.2595
20473SOL    HW166357  10.630   0.979   0.647 -2.0038  1.0204 -2.2316
20473SOL    HW266358  10.594   0.864   0.739  2.5679  0.6721 -0.6154
20474SOL     OW66359  10.084   4.183   6.398 -0.1528  0.2929  0.5617
20474SOL    HW166360  10.054   4.244   6.330  1.1548  0.0798 -0.2336
20474SOL    HW266361  10.176   4.205   6.411  0.1117 -0.9444  0.8957
20475SOL     OW66362   5.112   8.465   3.258  0.0441  0.0549  0.0739
20475SOL    HW166363   5.200   8.502   3.254 -0.6075  1.8484  1.2281
20475SOL    HW266364   5.088   8.450   3.166  2.1244 -2.0437 -0.2207
20476SOL     OW66365   8.346   9.514   1.522 -0.1796  0.3212  0.3929
20476SOL    HW166366   8.412   9.457   1.563 -2.3324 -1.2873  1.8448
20476SOL    HW266367   8.373   9.519   1.431  0.9835 -1.7780  0.5403
20477SOL     OW66368   9.868   3.863   6.114  0.0018  0.0497  0.1874
20477SOL    HW166369   9.786   3.847   6.067  0.1012 -0.1465  0.0794
20477SOL    HW266370   9.841   3.875   6.205 -0.2126  0.6288  0.0521
20478SOL     OW66371  10.896  10.970   6.668  0.5600  0.5526 -0.2239
20478SOL    HW166372  10.974  10.915   6.672  0.8656  0.9929 -0.0144
20478SOL    HW266373  10.912  11.040   6.731 -1.1415 -0.7646  1.8188
20479SOL     OW66374   9.429   1.889   6.476 -0.0353 -0.0590  0.2183
20479SOL    HW166375   9.333   1.884   6.481 -0.0295 -0.4890 -0.0649
20479SOL    HW266376   9.451   1.841   6.397  0.3677  0.6861 -0.1293
20480SOL     OW66377   7.981   3.192   5.473  0.2038 -0.3037  0.2249
20480SOL    HW166378   8.015   3.281   5.477  1.8547 -0.8846 -0.3801
20480SOL    HW266379   8.057   3.136   5.491 -0.0221 -1.7109 -2.6959
20481SOL     OW66380   2.131   6.150  10.224 -0.1362 -0.1807 -0.0444
20481SOL    HW166381   2.092   6.063  10.227 -0.0058 -0.2240  0.4534
20481SOL    HW266382   2.187   6.154  10.301  0.2720  0.1509 -0.3563
20482SOL     OW66383  10.687  10.851   7.926 -0.5249 -0.0474  0.3035
20482SOL    HW166384  10.699  10.783   7.860  1.8477  0.3237  0.2829
20482SOL    HW266385  10.742  10.824   7.999 -0.8865  0.9857  0.9812
20483SOL     OW66386   9.999   6.866   3.975 -0.6442 -0.7621 -0.2212
20483SOL    HW166387  10.019   6.920   3.899  0.2532  0.7758  1.0570
20483SOL    HW266388  10.054   6.788   3.964  1.4442  0.5914  0.0920
20484SOL     OW66389   6.092   2.761   7.728  0.2243 -0.2518  0.0009
20484SOL    HW166390   6.110   2.810   7.808 -0.0273  0.1804 -0.2013
20484SOL    HW266391   6.082   2.829   7.661  1.0697 -0.6285 -0.5233
20485SOL     OW66392   1.066   9.013   4.728  0.6566  0.0322  0.1642
20485SOL    HW166393   1.091   8.981   4.641  0.6175  1.5795 -0.4434
20485SOL    HW266394   0.974   9.038   4.719  0.5678 -0.0668  0.7417
20486SOL     OW66395   7.273   9.285   9.290 -0.2990  0.4517  0.0146
20486SOL    HW166396   7.258   9.286   9.196  0.9432  2.4238 -0.2174
20486SOL    HW266397   7.203   9.229   9.325  0.6507 -2.4079 -2.2543
20487SOL     OW66398   4.139  10.465   8.951 -0.3374 -0.1021  0.4108
20487SOL    HW166399   4.179  10.382   8.924  1.8555  0.6003  1.2890
20487SOL    HW266400   4.075  10.484   8.882  0.2393 -1.7120 -0.6333
20488SOL     OW66401   8.976   6.206  11.469 -0.0709 -0.2889  0.2709
20488SOL    HW166402   8.996   6.260  11.392  1.5246 -0.9691  0.1770
20488SOL    HW266403   8.885   6.227  11.490 -0.4552  0.1225 -1.6339
20489SOL     OW66404   9.798   3.065   0.899  0.2703  0.1400 -0.3967
20489SOL    HW166405   9.768   3.025   0.818  2.8391 -0.0623 -1.3216
20489SOL    HW266406   9.828   2.992   0.953 -0.4180  0.3685  0.3155
20490SOL     OW66407   8.859   1.025   0.093 -0.6474 -0.4278 -0.6926
20490SOL    HW166408   8.768   1.051   0.078 -0.8330 -0.1977  0.6712
20490SOL    HW266409   8.898   1.099   0.138  0.1981 -0.5712 -1.1637
20491SOL     OW66410   4.433   6.386   3.551 -0.1561  0.1294 -0.0862
20491SOL    HW166411   4.340   6.371   3.539  0.0811 -1.2114 -0.4275
20491SOL    HW266412   4.474   6.302   3.532  1.2193  0.9549 -0.9888
20492SOL     OW66413   2.945   0.254   5.994  0.1658  0.0273 -0.5709
20492SOL    HW166414   2.858   0.285   5.970  0.3063  0.1264 -0.9580
20492SOL    HW266415   2.939   0.236   6.088 -0.2001  0.2675 -0.5466
20493SOL     OW66416   3.261   4.820  11.158 -0.0711 -0.6253 -0.4334
20493SOL    HW166417   3.228   4.903  11.122  0.4890 -0.6286 -0.9751
20493SOL    HW266418   3.274   4.765  11.081 -1.5253 -1.6378  0.0056
20494SOL     OW66419   7.984   0.812   7.528  0.1850 -0.2078 -0.6395
20494SOL    HW166420   8.002   0.854   7.444  0.5616 -1.0398 -0.9886
20494SOL    HW266421   7.925   0.739   7.506  1.1937 -1.1279 -0.3652
20495SOL     OW66422   0.243   2.067  10.841  0.0362  0.1429  0.2268
20495SOL    HW166423   0.333   2.064  10.808  0.4314  0.2833  1.2554
20495SOL    HW266424   0.245   2.132  10.911 -1.2618  1.3929 -0.8372
20496SOL     OW66425   7.020   9.233   1.932  0.1816  0.3030 -0.2092
20496SOL    HW166426   6.950   9.171   1.912 -0.6172  1.0641  0.1681
20496SOL    HW266427   7.098   9.194   1.894 -0.3417 -0.8319 -0.1603
20497SOL     OW66428   5.193   1.427  11.662  0.3710 -0.9527 -0.5982
20497SOL    HW166429   5.286   1.429  11.683  0.1450 -4.1858  1.4803
20497SOL    HW266430   5.179   1.344  11.617 -1.7244 -1.4829  0.8359
20498SOL     OW66431   3.522   0.386   2.322 -0.2219 -0.2497 -0.3366
20498SOL    HW166432   3.574   0.406   2.400 -0.2997 -2.6526  0.4283
20498SOL    HW266433   3.440   0.351   2.357 -1.9782  2.3770 -1.5225
20499SOL     OW66434   1.883   5.959   7.600 -0.4957  0.4061  0.4943
20499SOL    HW166435   1.852   5.886   7.547 -0.4850 -1.2457  2.5897
20499SOL    HW266436   1.955   5.922   7.652  0.8842  2.4837  0.1854
20500SOL     OW66437  11.310   6.076   7.249 -0.2638  0.3421  0.2923
20500SOL    HW166438  11.355   6.061   7.166  0.6695 -0.1084  0.8632
20500SOL    HW266439  11.223   6.037   7.237 -1.0679  2.4613 -1.3141
20501SOL     OW66440  11.661   6.281   3.581  0.1611  0.0256  0.1085
20501SOL    HW166441  11.648   6.349   3.515  0.8106 -0.3462 -0.4168
20501SOL    HW266442  11.595   6.215   3.561  1.6208 -1.0623 -1.4992
20502SOL     OW66443   6.938   2.122  11.077  0.8435  0.0214 -0.1893
20502SOL    HW166444   6.858   2.095  11.031  1.1079 -0.0909 -0.5855
20502SOL    HW266445   6.912   2.199  11.127  0.3882 -0.2382 -0.0188
20503SOL     OW66446   3.496   6.280   0.099 -0.2110 -0.1393  0.4161
20503SOL    HW166447   3.412   6.324   0.089  0.7291  1.6268 -0.0611
20503SOL    HW266448   3.491   6.238   0.185 -1.7625 -0.5169  0.1668
20504SOL     OW66449   7.942   5.258   9.052 -0.5833  0.1805  0.2401
20504SOL    HW166450   7.924   5.352   9.048 -3.4527 -0.1926  1.6091
20504SOL    HW266451   7.902   5.223   8.972 -0.0508  0.0509  0.0290
20505SOL     OW66452   8.827   1.910   2.788  0.1628  0.5412 -0.5127
20505SOL    HW166453   8.858   1.845   2.724  0.0652  0.5321 -0.5497
20505SOL    HW266454   8.833   1.864   2.872  1.8238  1.0728 -0.3068
20506SOL     OW66455   0.807   5.655   9.711  0.2686  0.0943  0.2460
20506SOL    HW166456   0.745   5.607   9.655 -0.8645  0.7639  0.8766
20506SOL    HW266457   0.844   5.588   9.768 -0.0125 -0.2953 -0.0175
20507SOL     OW66458  11.079   5.783   1.332  0.1750  0.1587 -0.1146
20507SOL    HW166459  11.151   5.746   1.280  2.3693  1.0273  2.0951
20507SOL    HW266460  11.079   5.876   1.311  0.7884  0.4382  1.0408
20508SOL     OW66461   6.911   4.445  11.447  0.5896 -0.2851  0.7225
20508SOL    HW166462   6.864   4.523  11.417  1.1577  0.5379  1.8961
20508SOL    HW266463   6.842   4.380  11.462  0.1943 -0.3562 -1.1862
20509SOL     OW66464   3.474   6.216   0.371 -0.2414  0.5925  0.1093
20509SOL    HW166465   3.396   6.270   0.378  0.3354  1.3560  0.8310
20509SOL    HW266466   3.547   6.278   0.377  0.4487 -0.3231  1.6285
20510SOL     OW66467   3.792   1.849   7.093  0.1439 -0.5769 -0.6817
20510SOL    HW166468   3.739   1.776   7.060 -1.4645 -0.4629  1.4254
20510SOL    HW266469   3.824   1.818   7.178  1.3642  0.3600 -0.7719
20511SOL     OW66470   6.641   3.121  10.478 -0.1478 -0.5968 -0.1372
20511SOL    HW166471   6.590   3.169  10.543  1.2251 -0.4833  0.8903
20511SOL    HW266472   6.575   3.081  10.421 -1.3477  1.1507 -0.0546
20512SOL     OW66473   4.327   7.868   4.352 -0.4047  0.3031  0.0164
20512SOL    HW166474   4.388   7.941   4.360  0.7283 -0.5697 -0.4314
20512SOL    HW266475   4.305   7.865   4.259  1.5780 -1.4841 -0.4522
20513SOL     OW66476   0.375  11.575   3.466  0.0776  0.0679  0.2156
20513SOL    HW166477   0.315  11.570   3.540  0.3407  1.5724  0.5780
20513SOL    HW266478   0.358  11.661   3.428 -0.3273 -0.8320 -1.7426
20514SOL     OW66479  10.113   3.980   5.615  0.1418  0.3383  0.3580
20514SOL    HW166480  10.133   3.894   5.577  0.0327  1.1095 -1.5620
20514SOL    HW266481  10.018   3.987   5.609  0.2521  1.0695 -0.6069
20515SOL     OW66482   8.871   9.708   3.205 -0.2252 -0.8107 -1.1501
20515SOL    HW166483   8.870   9.762   3.284  0.0431 -3.3027  0.7143
20515SOL    HW266484   8.811   9.751   3.144  3.8670  4.4886 -2.1136
20516SOL     OW66485  10.550   8.847   5.718  0.6358 -0.4198 -0.1761
20516SOL    HW166486  10.567   8.895   5.637  0.4134  0.0137  0.0256
20516SOL    HW266487  10.633   8.851   5.766  0.2705  0.9106  0.4106
20517SOL     OW66488   4.527   0.053   7.926  0.1146 -0.0318  0.3894
20517SOL    HW166489   4.469  -0.001   7.871 -0.1387  2.4532 -1.9689
20517SOL    HW266490   4.593  -0.008   7.959 -2.2640 -2.4646  1.0250
20518SOL     OW66491   1.832   3.539   2.143  0.2143  0.1932  0.3290
20518SOL    HW166492   1.790   3.625   2.143  2.8952  1.6311 -0.6395
20518SOL    HW266493   1.854   3.524   2.051  1.2710 -0.7332  0.7190
20519SOL     OW66494  10.576   7.514   8.531  0.5316 -0.7356  0.4233
20519SOL    HW166495  10.665   7.501   8.500  0.3237  1.3971 -1.3115
20519SOL    HW266496  10.521   7.491   8.455 -0.2499  0.0876  0.7148
20520SOL     OW66497   2.642  10.394   7.524 -0.8727  0.0733 -0.4830
20520SOL    HW166498   2.615  10.403   7.615 -0.7437 -2.4290 -0.1322
20520SOL    HW266499   2.722  10.446   7.517 -0.4951 -0.2618  1.0379
20521SOL     OW66500   6.137   3.718   0.078 -0.0458  0.3509 -0.4101
20521SOL    HW166501   6.212   3.741   0.024  0.1058  0.0402 -0.3393
20521SOL    HW266502   6.153   3.762   0.162  0.1700  0.1088 -0.3221
20522SOL     OW66503   8.583   6.891   6.135 -0.1110  0.1793 -0.3290
20522SOL    HW166504   8.606   6.879   6.228  0.7804 -0.6652 -0.6346
20522SOL    HW266505   8.515   6.825   6.119  0.8374 -0.7666 -0.6318
20523SOL     OW66506   0.424   5.255  10.972  0.4550  0.2377 -0.2722
20523SOL    HW166507   0.486   5.236  10.901  0.5767  1.6960 -0.5785
20523SOL    HW266508   0.411   5.170  11.015  0.9654 -0.5240 -1.5575
20524SOL     OW66509   9.823  11.070   4.435  0.3082  0.2522  0.4315
20524SOL    HW166510   9.747  11.089   4.380  1.2840  1.8454 -0.4399
20524SOL    HW266511   9.896  11.065   4.374  0.9133 -1.4518  1.2368
20525SOL     OW66512   4.264   5.675   7.755  0.3483 -0.9050 -0.6689
20525SOL    HW166513   4.305   5.600   7.712  4.9520  0.0527  1.4683
20525SOL    HW266514   4.243   5.644   7.844 -2.5050 -0.9091 -1.2324
20526SOL     OW66515   6.279   2.273   9.545 -0.0406  0.2234  0.0193
20526SOL    HW166516   6.369   2.298   9.564  0.7161 -0.9811 -1.7750
20526SOL    HW266517   6.273   2.182   9.573 -1.1744  0.7092  1.4949
20527SOL     OW66518   9.230   3.570   6.906 -0.4625  0.1722  0.2134
20527SOL    HW166519   9.240   3.474   6.903  0.0305  0.2202  0.2843
20527SOL    HW266520   9.213   3.595   6.815 -1.3563 -0.0607  0.3088
20528SOL     OW66521   3.225   4.739   8.800  0.0748  0.3689  0.3239
20528SOL    HW166522   3.197   4.830   8.813 -0.6453  0.0322  1.2505
20528SOL    HW266523   3.162   4.688   8.850 -0.7350 -0.8061 -1.7844
20529SOL     OW66524   9.485   5.223   4.084  0.4680 -0.0872  0.3949
20529SOL    HW166525   9.483   5.245   4.177  0.8550 -2.1802  0.9589
20529SOL    HW266526   9.540   5.291   4.044 -0.9591  1.7235  1.3921
20530SOL     OW66527   5.539   6.891   8.896  0.0567 -0.3084  0.5228
20530SOL    HW166528   5.467   6.833   8.869  0.0768  0.7971 -2.2390
20530SOL    HW266529   5.540   6.884   8.991 -1.1974 -3.3128  0.4544
20531SOL     OW66530   1.886   9.569   0.749 -0.8137 -0.6969 -0.0059
20531SOL    HW166531   1.886   9.625   0.672  1.1507  0.9747  1.1148
20531SOL    HW266532   1.941   9.495   0.725  1.5013  0.8009  0.3419
20532SOL     OW66533  10.870   8.673   6.507 -0.1854  0.3030 -0.1494
20532SOL    HW166534  10.848   8.640   6.594 -1.1641  0.9204 -0.1477
20532SOL    HW266535  10.965   8.675   6.505 -0.1382 -0.6431  0.5534
20533SOL     OW66536   7.678   6.654  11.400  0.1725 -0.0777 -0.4736
20533SOL    HW166537   7.596   6.618  11.433  0.8190 -1.0626  0.1244
20533SOL    HW266538   7.659   6.745  11.380 -1.3008 -0.5146 -1.2036
20534SOL     OW66539   3.103   8.673  11.237 -0.0362 -0.2904 -0.0704
20534SOL    HW166540   3.053   8.660  11.318 -0.4995 -0.1577 -0.3316
20534SOL    HW266541   3.188   8.706  11.266  0.6092 -2.3004  0.5119
20535SOL     OW66542   7.464   4.969   6.680  0.2637 -0.0540 -0.1830
20535SOL    HW166543   7.430   4.895   6.731  1.9581 -0.8201 -0.0939
20535SOL    HW266544   7.436   4.951   6.590 -0.4769 -0.0912  0.0479
20536SOL     OW66545   4.024   8.655  10.743 -0.8192  0.1868 -0.1586
20536SOL    HW166546   4.029   8.736  10.693 -0.1466 -1.2261 -2.5253
20536SOL    HW266547   4.108   8.649  10.788 -1.4992  1.5592  1.4083
20537SOL     OW66548   2.108   5.290   2.229  0.4529  0.7176 -0.3450
20537SOL    HW166549   2.021   5.259   2.203  0.8817  0.4309 -1.5157
20537SOL    HW266550   2.092   5.347   2.304 -0.6476 -0.0644  0.0433
20538SOL     OW66551   2.031   1.423   9.182  0.1615 -0.1862  0.1769
20538SOL    HW166552   2.034   1.361   9.255  1.1601 -0.0886  0.2237
20538SOL    HW266553   1.985   1.499   9.217  0.1748 -0.3467  0.5443
20539SOL     OW66554  11.422   0.836   6.335  0.4944 -0.2573  0.2930
20539SOL    HW166555  11.347   0.778   6.339 -0.2148  0.3310 -2.4021
20539SOL    HW266556  11.428   0.862   6.243  2.4785  1.7114  0.8725
20540SOL     OW66557   8.216   7.228   9.235 -0.2598 -0.5034  0.4274
20540SOL    HW166558   8.245   7.198   9.149  1.0422 -3.3359  1.7367
20540SOL    HW266559   8.292   7.276   9.270 -0.8333  0.7588  0.0174
20541SOL     OW66560   7.426   8.429   2.100  0.0521  0.4039  0.2428
20541SOL    HW166561   7.466   8.445   2.186  0.5110  0.0492  0.0978
20541SOL    HW266562   7.451   8.504   2.047  1.7673 -0.4936 -0.2813
20542SOL     OW66563   3.464  11.236   0.893 -0.3725 -0.0231 -0.1843
20542SOL    HW166564   3.530  11.304   0.907 -0.8028  0.4463 -0.3936
20542SOL    HW266565   3.421  11.261   0.812 -0.3725 -0.6866 -0.3937
20543SOL     OW66566   2.347   6.305   9.182 -0.1685 -0.1593 -0.4306
20543SOL    HW166567   2.327   6.394   9.152  0.5489  0.9951  2.1795
20543SOL    HW266568   2.441   6.296   9.167  0.0143  0.0745  0.4691
20544SOL     OW66569   5.092   2.817   6.075  0.3954 -0.1815 -0.4675
20544SOL    HW166570   5.089   2.846   5.984 -1.0347 -1.1601 -0.7648
20544SOL    HW266571   5.074   2.723   6.071  1.6464 -0.5067  0.7291
20545SOL     OW66572   7.522   0.590   8.514 -0.0656  0.1169 -0.4162
20545SOL    HW166573   7.546   0.574   8.423 -3.1710  3.2981 -2.0502
20545SOL    HW266574   7.451   0.529   8.531  0.3728 -0.3309 -0.1644
20546SOL     OW66575   2.746   0.566   8.129  0.0518  0.5733 -0.1802
20546SOL    HW166576   2.684   0.576   8.202 -0.2500 -1.4902 -0.0907
20546SOL    HW266577   2.690   0.547   8.053  0.5110 -0.5089 -0.2603
20547SOL     OW66578   6.666   7.656   6.829 -0.1533  0.1955  0.0556
20547SOL    HW166579   6.739   7.653   6.891 -0.8574  0.5955  0.9211
20547SOL    HW266580   6.656   7.565   6.800  1.0556  0.2189 -0.5432
20548SOL     OW66581   4.783   2.247   1.754 -0.0668 -0.0786 -0.1722
20548SOL    HW166582   4.867   2.290   1.771  0.2833 -0.3809 -1.0828
20548SOL    HW266583   4.745   2.296   1.681 -0.1519 -0.6560 -0.5184
20549SOL     OW66584   8.935   6.648   7.205 -0.2987 -0.0997 -0.8385
20549SOL    HW166585   8.961   6.726   7.254  0.3664 -0.4099 -0.6813
20549SOL    HW266586   8.899   6.682   7.123 -0.1208  0.3735 -0.7241
20550SOL     OW66587   6.638   1.953   2.534 -0.1650 -0.1686 -0.8094
20550SOL    HW166588   6.554   1.993   2.558 -0.0046 -0.3702  0.0914
20550SOL    HW266589   6.627   1.861   2.555  0.1022 -0.2908 -1.1972
20551SOL     OW66590   1.951   4.469   8.216 -0.1153  0.0304 -0.5536
20551SOL    HW166591   1.995   4.534   8.271 -0.2483 -0.5028  0.1974
20551SOL    HW266592   2.021   4.425   8.169  0.3406 -1.7666  1.6611
20552SOL     OW66593   4.394   4.446   0.941 -0.1895  1.0876 -0.5002
20552SOL    HW166594   4.441   4.529   0.948  2.5287 -0.3198 -0.4337
20552SOL    HW266595   4.400   4.408   1.029  1.0226 -0.2996 -1.1326
20553SOL     OW66596   0.357   7.763  10.949 -0.5736  0.1879 -0.2042
20553SOL    HW166597   0.339   7.671  10.932 -1.0550  0.4491 -1.1959
20553SOL    HW266598   0.336   7.775  11.042 -0.6622 -0.6556 -0.1089
20554SOL     OW66599   9.017   2.789  10.663  0.1030 -0.1062  0.0272
20554SOL    HW166600   9.030   2.883  10.674 -2.1854  0.3351 -0.5303
20554SOL    HW266601   8.924   2.780  10.643  0.4509 -2.4123 -0.8431
20555SOL     OW66602   6.493  10.043   2.642 -0.4896 -0.0840 -0.6348
20555SOL    HW166603   6.425  10.004   2.586 -1.1980  0.7362 -0.3635
20555SOL    HW266604   6.575  10.026   2.595 -0.6186 -2.8702  0.0056
20556SOL     OW66605   7.272   0.185  10.962  0.1829  0.2567  0.1176
20556SOL    HW166606   7.222   0.201  10.882 -0.2552  0.3338  0.4030
20556SOL    HW266607   7.245   0.098  10.989 -1.4730  1.1213  1.4541
20557SOL     OW66608   2.409   8.434   8.183 -0.4492 -0.3746  0.1221
20557SOL    HW166609   2.402   8.523   8.218 -1.8214 -0.3778 -0.1274
20557SOL    HW266610   2.319   8.406   8.170 -0.0080 -1.0102 -1.8269
20558SOL     OW66611   2.856   4.481   3.477  0.5719  0.1748  0.9124
20558SOL    HW166612   2.934   4.525   3.443 -0.4433  1.6617  0.3726
20558SOL    HW266613   2.799   4.471   3.400 -0.7456  1.3319  1.6885
20559SOL     OW66614   9.987   6.011   0.603 -0.8359  0.1393  0.4835
20559SOL    HW166615   9.962   5.936   0.549  1.4889  0.1782 -0.8041
20559SOL    HW266616  10.031   6.070   0.542 -1.9284  2.2421  1.6276
20560SOL     OW66617   1.502   4.968  10.458  0.0565 -0.2571 -0.2546
20560SOL    HW166618   1.547   5.032  10.404 -1.2840  0.3696 -0.6568
20560SOL    HW266619   1.478   4.898  10.398  1.5690 -1.2321  0.1927
20561SOL     OW66620   0.087  10.964   4.344  0.0252  0.1532 -0.0110
20561SOL    HW166621   0.150  11.029   4.311 -1.2482  0.8379 -1.2007
20561SOL    HW266622   0.007  11.014   4.360 -1.2935 -1.2091 -1.8561
20562SOL     OW66623   6.406   5.435   1.247  0.4893 -0.6907  0.4508
20562SOL    HW166624   6.420   5.429   1.152 -1.0290 -1.6529  0.2508
20562SOL    HW266625   6.423   5.527   1.268  0.9900 -0.4953 -0.7229
20563SOL     OW66626   5.567  10.352   9.224  0.3195 -0.2334 -0.0384
20563SOL    HW166627   5.556  10.271   9.175 -0.1307 -2.2247  3.0533
20563SOL    HW266628   5.650  10.388   9.194  0.3543 -1.6238 -1.7756
20564SOL     OW66629   0.232   6.156   9.388 -0.8597 -0.4972 -0.2672
20564SOL    HW166630   0.159   6.213   9.366 -0.2192  0.2115 -0.5825
20564SOL    HW266631   0.279   6.203   9.457  0.1305 -0.2495 -1.0887
20565SOL     OW66632   2.627   0.008   6.174 -0.4396  0.3179  0.6827
20565SOL    HW166633   2.694   0.042   6.233  0.1788 -2.8193  1.9967
20565SOL    HW266634   2.674  -0.018   6.095 -0.4740  0.2571  0.6818
20566SOL     OW66635  11.481   5.573   0.811 -0.1103 -0.5047 -0.1496
20566SOL    HW166636  11.419   5.557   0.881  0.4127 -1.8849  0.0241
20566SOL    HW266637  11.564   5.591   0.855 -0.0243 -0.2512 -0.4064
20567SOL     OW66638   3.703   5.708   4.771 -0.2164  0.5608 -0.3769
20567SOL    HW166639   3.770   5.746   4.828 -0.1448 -1.5133  1.0095
20567SOL    HW266640   3.624   5.759   4.791  0.3582  1.4223 -0.2262
20568SOL     OW66641   8.336   6.101   0.487  0.4950 -0.4787  0.7118
20568SOL    HW166642   8.351   6.114   0.393  2.8159 -1.6423  0.8494
20568SOL    HW266643   8.334   6.189   0.524 -1.6169  0.0636 -0.5272
20569SOL     OW66644   3.543   7.583  11.231  0.4973 -0.1488 -0.5296
20569SOL    HW166645   3.529   7.618  11.319 -1.5320  1.7660 -1.5216
20569SOL    HW266646   3.627   7.620  11.204  0.3447  0.6085  0.0006
20570SOL     OW66647   9.958   8.716   6.480  0.8639 -0.2192 -0.0603
20570SOL    HW166648  10.002   8.718   6.565  1.6087 -1.1160 -0.4095
20570SOL    HW266649   9.949   8.808   6.456 -1.7019  0.2494  2.1437
20571SOL     OW66650   3.623   6.872   6.172  0.1342 -0.1847 -0.3223
20571SOL    HW166651   3.545   6.924   6.149 -0.7860 -1.4085 -0.0877
20571SOL    HW266652   3.686   6.890   6.102  0.7264  2.9296  0.8315
20572SOL     OW66653   2.454   7.801   1.077  0.3282  0.3255 -0.7268
20572SOL    HW166654   2.399   7.844   1.143  0.3099 -1.3484  0.3967
20572SOL    HW266655   2.492   7.726   1.122  1.1198 -0.3064 -2.3614
20573SOL     OW66656   6.012   8.469   2.212 -0.2828 -0.1800  0.6252
20573SOL    HW166657   6.078   8.484   2.280 -0.0043  2.3621 -0.1323
20573SOL    HW266658   6.054   8.406   2.153  0.4890 -0.4388  1.4193
20574SOL     OW66659   5.333   4.858   2.238  0.2337  0.2804  0.3943
20574SOL    HW166660   5.316   4.769   2.268  0.4500  0.4095  0.9118
20574SOL    HW266661   5.371   4.902   2.314  1.8447  0.3024 -0.3721
20575SOL     OW66662  10.987   8.947   8.908  0.0522  0.1045  0.4735
20575SOL    HW166663  10.939   9.003   8.970  0.4270 -0.6977  1.5263
20575SOL    HW266664  10.919   8.895   8.866 -0.1864  0.4757  0.3880
20576SOL     OW66665   1.682   6.035   4.005  0.7143  0.2044  0.4818
20576SOL    HW166666   1.734   5.973   4.057  2.0945  1.5256  0.7462
20576SOL    HW266667   1.616   6.069   4.066  0.6552 -0.1803  0.6357
20577SOL     OW66668   6.257  10.838   2.747 -0.3269 -1.1015  0.1379
20577SOL    HW166669   6.202  10.887   2.686  0.4738 -1.5799 -0.9936
20577SOL    HW266670   6.202  10.764   2.774  0.1354 -2.2688 -1.9395
20578SOL     OW66671   8.644   6.533  11.193  0.1397  0.1667 -0.1281
20578SOL    HW166672   8.648   6.446  11.233 -1.0666  0.2240  0.1423
20578SOL    HW266673   8.562   6.571  11.224  0.9651  1.6926  0.3049
20579SOL     OW66674   4.430  10.858   8.137 -0.0441 -0.0001 -0.8544
20579SOL    HW166675   4.496  10.895   8.195 -0.2838 -1.3488  0.3210
20579SOL    HW266676   4.474  10.785   8.093 -1.4893 -3.1182  2.3966
20580SOL     OW66677   7.971   8.899   1.318 -0.1203  0.1963 -0.4224
20580SOL    HW166678   7.903   8.832   1.305  0.7585 -0.6166 -0.9593
20580SOL    HW266679   7.981   8.904   1.413  0.2745 -0.9597 -0.3798
20581SOL     OW66680   7.255   8.821   0.030  0.1178  0.4394 -0.4892
20581SOL    HW166681   7.282   8.731   0.012  1.4810  0.6522  0.3628
20581SOL    HW266682   7.243   8.861  -0.056  1.6730  0.0545 -0.9066
20582SOL     OW66683   4.487   4.776   3.509 -0.6112  0.1160  0.2508
20582SOL    HW166684   4.476   4.681   3.497 -2.3077  0.3166 -0.0648
20582SOL    HW266685   4.564   4.784   3.565 -0.4855 -1.4608  0.3633
20583SOL     OW66686   2.898   8.398  11.462 -0.1583 -0.5499 -0.6024
20583SOL    HW166687   2.924   8.490  11.471 -3.0456  0.4098 -1.0422
20583SOL    HW266688   2.866   8.391  11.372  1.0434 -2.3240 -0.9332
20584SOL     OW66689  10.191   9.251   9.669  0.2185  0.4206 -0.6716
20584SOL    HW166690  10.151   9.164   9.666  0.4893  0.2757 -0.2129
20584SOL    HW266691  10.119   9.312   9.656 -0.4025  0.2221  1.4430
20585SOL     OW66692  11.668   5.457  10.380 -0.0841  0.0786  0.2634
20585SOL    HW166693  11.592   5.515  10.383  0.1181  0.3332  0.5236
20585SOL    HW266694  11.639   5.383  10.327 -0.2971  0.4901 -0.2122
20586SOL     OW66695   6.520   5.192   2.028 -0.5173  0.1859  0.4646
20586SOL    HW166696   6.594   5.249   2.046 -1.1061  1.9975 -2.3132
20586SOL    HW266697   6.456   5.213   2.096  1.0787 -0.7248  2.3270
20587SOL     OW66698  11.563  10.419  10.689 -0.6565 -0.5166  0.0332
20587SOL    HW166699  11.658  10.411  10.700 -0.8592 -0.9456  1.6416
20587SOL    HW266700  11.527  10.410  10.777 -2.1759  0.1059 -0.4822
20588SOL     OW66701   3.345   1.526   6.958 -0.2395 -0.5269 -0.1886
20588SOL    HW166702   3.343   1.455   6.893  2.3845 -0.4359 -0.4727
20588SOL    HW266703   3.362   1.605   6.906  2.1694 -0.4897  0.5414
20589SOL     OW66704   4.842   6.175   9.245 -0.2838  0.0315 -0.0742
20589SOL    HW166705   4.859   6.091   9.203 -0.5977 -0.3428  0.5395
20589SOL    HW266706   4.839   6.155   9.339  0.5225  0.8679  0.1503
20590SOL     OW66707   9.571   5.913   6.568 -0.7593 -0.3843  0.0506
20590SOL    HW166708   9.506   5.983   6.576 -1.1324 -0.7515  0.2726
20590SOL    HW266709   9.520   5.834   6.552 -0.4083 -0.7597  0.7130
20591SOL     OW66710   8.785   9.784   5.402  0.5059  0.6180  0.2726
20591SOL    HW166711   8.785   9.688   5.395 -1.1486  0.6757 -1.3555
20591SOL    HW266712   8.736   9.802   5.482  1.0774  0.1131  0.7452
20592SOL     OW66713   4.528   8.470   9.695  0.0632  0.1608  0.4006
20592SOL    HW166714   4.539   8.542   9.758  0.8737  0.0415  0.3999
20592SOL    HW266715   4.433   8.462   9.685 -0.1581 -0.6066  2.5238
20593SOL     OW66716  10.658   3.115   9.730 -0.6892  0.7003 -0.0513
20593SOL    HW166717  10.709   3.102   9.810 -0.4698  0.9425 -0.1520
20593SOL    HW266718  10.722   3.115   9.660 -1.0647 -1.7024 -0.4881
20594SOL     OW66719   7.118  10.942   4.549 -0.4707 -0.3808 -0.5980
20594SOL    HW166720   7.200  10.951   4.501 -0.1280  1.6346  0.2648
20594SOL    HW266721   7.091  11.032   4.568 -1.2029 -1.0495  1.9259
20595SOL     OW66722   8.229  10.335   9.844 -0.0813 -0.0183  0.1131
20595SOL    HW166723   8.298  10.341   9.778 -0.1626 -0.3360  0.0010
20595SOL    HW266724   8.151  10.373   9.801  0.3241  1.5346  0.6699
20596SOL     OW66725   8.559   3.319  10.142 -0.4742 -0.0308 -0.0432
20596SOL    HW166726   8.546   3.402  10.097 -1.6998  0.5716  1.3548
20596SOL    HW266727   8.515   3.254  10.087  1.2410  0.0378 -1.6062
20597SOL     OW66728   4.288   7.525   2.540 -0.2415  0.4027  0.5422
20597SOL    HW166729   4.323   7.607   2.576  0.9552 -0.4483  1.4165
20597SOL    HW266730   4.322   7.457   2.599  0.3179 -0.9003 -1.1866
20598SOL     OW66731   6.995  11.194   8.909 -0.1954 -0.2688  0.2457
20598SOL    HW166732   6.942  11.257   8.958  0.4471 -0.3900  1.1075
20598SOL    HW266733   7.021  11.128   8.973  0.3308 -0.6391 -0.3375
20599SOL     OW66734   4.849   4.807   0.532  0.3275 -0.8909  0.6166
20599SOL    HW166735   4.833   4.844   0.619 -0.2219  1.5395 -0.4338
20599SOL    HW266736   4.765   4.817   0.487  0.6490 -1.9869 -0.2526
20600SOL     OW66737   6.054   5.734  11.483 -0.5505 -0.3452  0.2519
20600SOL    HW166738   6.001   5.728  11.403 -2.1336  0.9976  1.1382
20600SOL    HW266739   6.114   5.806  11.465 -1.3024  0.3507  0.4624
20601SOL     OW66740   3.955   2.802   0.161 -0.0697  0.2482  0.7862
20601SOL    HW166741   3.906   2.879   0.132  1.3843  1.1828  0.6906
20601SOL    HW266742   3.933   2.793   0.253 -1.5569 -0.2699  0.4149
20602SOL     OW66743   0.833  10.946   3.145 -0.4657 -0.3063  0.4094
20602SOL    HW166744   0.911  10.939   3.090 -0.2661  1.2506  0.4428
20602SOL    HW266745   0.780  10.870   3.121 -0.7875  0.7396 -2.6147
20603SOL     OW66746   2.391  11.271  11.526  0.2027  0.0385 -0.1969
20603SOL    HW166747   2.318  11.332  11.534 -0.7309 -1.0006 -0.6221
20603SOL    HW266748   2.354  11.194  11.483  0.7364 -1.8457  2.4995
20604SOL     OW66749   4.954  10.929   3.369  0.1678  0.2930 -0.5785
20604SOL    HW166750   5.013  10.871   3.416 -1.5561  0.0884  1.5044
20604SOL    HW266751   4.896  10.870   3.320 -2.7479 -0.0912  2.9321
20605SOL     OW66752   0.057   8.057   6.619  0.5335  0.1898  0.2017
20605SOL    HW166753   0.066   8.061   6.524 -0.0612 -1.5756  0.0416
20605SOL    HW266754   0.144   8.035   6.651  0.9218  1.5439  0.1667
20606SOL     OW66755   3.812   9.388  11.555  0.0436  0.2643 -0.0034
20606SOL    HW166756   3.767   9.314  11.597 -0.2104 -0.2488 -1.1502
20606SOL    HW266757   3.752   9.462  11.567 -1.3854 -0.5052 -1.8904
20607SOL     OW66758   9.551   8.129   7.296 -0.2737 -0.0758 -0.2664
20607SOL    HW166759   9.525   8.170   7.214 -2.2015 -0.7474 -0.0529
20607SOL    HW266760   9.544   8.199   7.361 -1.7131 -0.2363 -0.2120
20608SOL     OW66761  10.350   9.688   6.350  0.1808  0.3605  0.5696
20608SOL    HW166762  10.294   9.683   6.427  0.9201  3.7837  1.4872
20608SOL    HW266763  10.437   9.664   6.382 -0.1616 -2.3874 -0.2775
20609SOL     OW66764   9.678   6.075   9.881 -0.2564  0.1106 -0.1555
20609SOL    HW166765   9.682   6.038   9.969 -0.2067 -0.8699 -0.5552
20609SOL    HW266766   9.613   6.021   9.836  0.1526  0.2253 -0.8942
20610SOL     OW66767   1.091   8.467   0.691  0.3781  0.4104 -0.1045
20610SOL    HW166768   1.011   8.439   0.646  0.4644  0.4948 -0.3116
20610SOL    HW266769   1.161   8.443   0.631  0.6860 -1.5377  0.9276
20611SOL     OW66770   7.421   7.029   5.025 -0.1578  0.2156 -0.1964
20611SOL    HW166771   7.470   7.109   5.044  0.8097 -0.9071  2.4648
20611SOL    HW266772   7.487   6.962   5.010 -0.8912 -0.6095  0.1139
20612SOL     OW66773   4.220   7.855   9.527  0.2836  0.0628  0.5052
20612SOL    HW166774   4.180   7.853   9.440  0.5293  1.1664  0.3531
20612SOL    HW266775   4.175   7.927   9.572  0.5618 -0.1250  1.0890
20613SOL     OW66776  11.480   7.535   5.814 -0.2103  0.0286 -0.1760
20613SOL    HW166777  11.505   7.607   5.872  1.0430 -1.5037  1.3321
20613SOL    HW266778  11.410   7.570   5.759 -0.1457  2.1421  0.9997
20614SOL     OW66779   7.060   6.643  11.123  0.1001 -0.2816  0.7169
20614SOL    HW166780   7.118   6.720  11.124  0.6532 -0.6766 -0.0263
20614SOL    HW266781   7.051   6.621  11.030 -0.2756 -0.9484  0.9061
20615SOL     OW66782   0.917   8.318   3.551 -0.4456  0.3371  0.2046
20615SOL    HW166783   0.882   8.404   3.572 -1.4499 -0.4953  2.1960
20615SOL    HW266784   0.861   8.286   3.480 -0.0131  1.3078 -0.6102
20616SOL     OW66785   9.158  11.111   2.066  0.3403 -0.2017 -0.3540
20616SOL    HW166786   9.222  11.053   2.108 -0.8873 -1.1496  0.2935
20616SOL    HW266787   9.103  11.053   2.015 -0.9733  0.3576  0.3654
20617SOL     OW66788   0.949   4.582   3.472  0.2663  0.0710 -0.1056
20617SOL    HW166789   0.995   4.640   3.533 -0.1810 -1.4806  1.8234
20617SOL    HW266790   1.019   4.535   3.427  0.7095 -1.2479  1.7888
20618SOL     OW66791   9.667   4.524   7.488  0.0709  0.0010  0.3033
20618SOL    HW166792   9.734   4.459   7.509 -0.1837  0.4144  2.7035
20618SOL    HW266793   9.663   4.525   7.393  2.3483 -1.1726  0.1354
20619SOL     OW66794   3.857   1.140   3.828 -0.0331  0.6809  0.1925
20619SOL    HW166795   3.821   1.140   3.739  3.0259 -2.5744 -1.2708
20619SOL    HW266796   3.948   1.168   3.818  0.7488 -0.9461  2.0259
20620SOL     OW66797   6.140   0.803   7.016  0.4288 -0.3112  0.0765
20620SOL    HW166798   6.166   0.838   6.930  0.6448  0.1426  0.3236
20620SOL    HW266799   6.113   0.880   7.066 -1.4497 -0.7511 -0.1765
20621SOL     OW66800   2.834   0.704   4.338  0.1696  0.1873  0.1698
20621SOL    HW166801   2.921   0.716   4.377  0.8414 -0.6563 -1.0080
20621SOL    HW266802   2.828   0.772   4.271  1.4387 -1.8206 -2.1919
20622SOL     OW66803   2.586   1.714   9.236 -0.0846  0.5957  0.1195
20622SOL    HW166804   2.643   1.742   9.165 -1.4559 -2.2648 -2.3213
20622SOL    HW266805   2.635   1.646   9.281 -0.3198  0.3889  0.0665
20623SOL     OW66806  10.897   9.385   2.250 -0.4058 -0.4877  0.7446
20623SOL    HW166807  10.818   9.386   2.195  0.4882 -1.3437 -0.6176
20623SOL    HW266808  10.887   9.308   2.305 -0.6740 -0.4016  0.8180
20624SOL     OW66809   9.360   3.386   0.124 -0.0019  0.1630 -0.2459
20624SOL    HW166810   9.401   3.321   0.068  1.5285  0.2049  0.7701
20624SOL    HW266811   9.362   3.468   0.074  4.2576  0.9837  0.8866
20625SOL     OW66812   8.498   3.684   1.011  0.0653  0.1365  0.5802
20625SOL    HW166813   8.515   3.660   0.919  0.0095 -0.3429  0.6930
20625SOL    HW266814   8.444   3.612   1.045 -0.6139  0.7181  0.7592
20626SOL     OW66815   5.772   8.723  10.695 -0.3425  0.6198 -0.3850
20626SOL    HW166816   5.760   8.815  10.718 -0.6614  0.6047 -0.4864
20626SOL    HW266817   5.864   8.717  10.667  0.1325  0.5870  1.0924
20627SOL     OW66818   1.415   7.413   5.991  0.2784 -0.3580  0.2539
20627SOL    HW166819   1.445   7.407   5.900 -0.8591  0.4454 -0.1948
20627SOL    HW266820   1.493   7.442   6.040  0.6096  0.3344 -0.6476
20628SOL     OW66821   0.364   7.001   0.325 -0.1022  0.0526  0.8509
20628SOL    HW166822   0.289   7.009   0.266 -0.5658 -2.5059  0.9791
20628SOL    HW266823   0.326   6.990   0.412  0.4441 -0.2691  1.0582
20629SOL     OW66824  10.774   6.363   9.508 -0.4200  0.1445  0.3641
20629SOL    HW166825  10.827   6.364   9.588 -0.6143 -2.8720  0.6496
20629SOL    HW266826  10.697   6.415   9.530 -0.2654 -0.2650  2.0312
20630SOL     OW66827   5.686   3.234   6.548  0.2347  0.4962 -0.5003
20630SOL    HW166828   5.622   3.189   6.603  1.1145  0.2094  0.3247
20630SOL    HW266829   5.718   3.306   6.603  0.2988  0.9081 -1.0694
20631SOL     OW66830  10.168   7.927   2.805 -0.1273 -0.1068  0.0917
20631SOL    HW166831  10.108   7.997   2.831 -1.7900 -1.8095  1.1036
20631SOL    HW266832  10.194   7.885   2.887 -0.0842 -1.3779 -0.5389
20632SOL     OW66833  11.424   8.760   8.996  0.0599  0.0379 -0.3568
20632SOL    HW166834  11.407   8.727   9.084  1.1438  0.4283  0.0055
20632SOL    HW266835  11.372   8.840   8.990  0.2259  0.1805  0.0470
20633SOL     OW66836   1.520   2.958   0.786  0.6414  0.2445 -0.2058
20633SOL    HW166837   1.579   2.921   0.720  0.8976 -0.2949  0.3172
20633SOL    HW266838   1.462   2.886   0.811  0.1610  0.6033 -0.2628
20634SOL     OW66839   0.465   5.328   2.608 -0.1427  0.1596 -1.0772
20634SOL    HW166840   0.430   5.315   2.520  0.6522  0.8215 -1.5031
20634SOL    HW266841   0.540   5.386   2.596 -0.3284  0.6786  0.1015
20635SOL     OW66842   1.980   5.978   6.389  0.3675 -0.3526  0.2566
20635SOL    HW166843   1.887   5.963   6.405  0.4419 -0.8294  0.2438
20635SOL    HW266844   2.018   5.891   6.382  0.7069 -0.1649 -0.3589
20636SOL     OW66845   1.345  10.805   9.450 -0.2310 -0.0406 -0.2841
20636SOL    HW166846   1.439  10.799   9.434 -0.0075  0.8553  0.5808
20636SOL    HW266847   1.323  10.725   9.497  0.4407  0.4916  0.9876
20637SOL     OW66848   6.381  10.511   5.746  0.2810  0.3396  0.0900
20637SOL    HW166849   6.307  10.532   5.688 -1.0094  0.2239  1.6309
20637SOL    HW266850   6.445  10.470   5.688 -0.8549  0.4322 -1.3029
20638SOL     OW66851   6.679   5.461   1.973 -0.0907  0.0893  0.0767
20638SOL    HW166852   6.714   5.460   1.884  1.3376  0.1124  0.6116
20638SOL    HW266853   6.597   5.509   1.966  0.9843  1.8684 -0.8902
20639SOL     OW66854   7.580   3.099   4.689 -0.0694 -0.3015  0.6800
20639SOL    HW166855   7.545   3.115   4.601  3.0661  1.4418 -0.4440
20639SOL    HW266856   7.651   3.036   4.675  0.8895  0.4761  1.7839
20640SOL     OW66857   9.114   6.260   7.979  0.7388 -0.1211 -0.2296
20640SOL    HW166858   9.049   6.218   8.034 -0.1169  0.2317 -0.9558
20640SOL    HW266859   9.082   6.350   7.968  0.7109 -0.2726 -1.5684
20641SOL     OW66860   3.599   8.803   4.330  0.0041  0.0357  0.3073
20641SOL    HW166861   3.582   8.897   4.328  0.4292  0.1247 -1.4978
20641SOL    HW266862   3.558   8.773   4.410 -1.9528  1.4318 -0.0796
20642SOL     OW66863   5.327   8.730  10.011 -0.9375 -0.0793 -1.0820
20642SOL    HW166864   5.352   8.638  10.015 -0.1681  0.1230 -1.1549
20642SOL    HW266865   5.250   8.736  10.067 -0.0395 -0.4598  0.2347
20643SOL     OW66866   2.071   5.731   6.486 -0.4713  0.1227 -0.5020
20643SOL    HW166867   1.985   5.706   6.521  0.4470 -1.7394  0.5980
20643SOL    HW266868   2.113   5.780   6.556  0.5808 -1.8283  0.3064
20644SOL     OW66869   9.931  11.649   7.038 -0.0696 -0.0455 -0.3867
20644SOL    HW166870   9.878  11.690   7.106  0.9051  0.6304 -0.0170
20644SOL    HW266871  10.014  11.696   7.040  1.0042 -1.8645 -0.1496
20645SOL     OW66872   5.775  10.268   8.128 -1.1462 -0.2661 -0.1814
20645SOL    HW166873   5.862  10.231   8.142 -1.5455 -0.7352  1.2668
20645SOL    HW266874   5.777  10.352   8.173 -2.0482 -1.1969  1.7325
20646SOL     OW66875   7.614   7.924   2.678  0.1315  0.0373 -0.1599
20646SOL    HW166876   7.624   7.930   2.583 -1.9360  0.0323 -0.4158
20646SOL    HW266877   7.647   7.837   2.700  2.2319  0.6716 -0.5928
20647SOL     OW66878   3.580   3.229   5.878 -0.1676  0.9142 -0.0051
20647SOL    HW166879   3.524   3.267   5.947  0.8725  0.0733  1.3605
20647SOL    HW266880   3.650   3.293   5.867  1.4449 -0.3528  2.1139
20648SOL     OW66881   6.885  11.482  11.295  0.0500  0.6268 -0.1455
20648SOL    HW166882   6.800  11.461  11.256 -1.0248  0.0681  2.3293
20648SOL    HW266883   6.897  11.417  11.364  2.6129  0.5851 -0.5365
20649SOL     OW66884  11.245   9.580   8.397  0.3093  0.0219  0.1714
20649SOL    HW166885  11.315   9.613   8.341  0.9802 -1.5751 -0.0003
20649SOL    HW266886  11.214   9.501   8.352 -0.7823  0.0435  0.8605
20650SOL     OW66887   5.374   1.275   8.969 -1.0461  0.7138  0.8358
20650SOL    HW166888   5.419   1.347   9.014  1.3684 -0.8291  1.0613
20650SOL    HW266889   5.396   1.198   9.020 -1.5323 -0.5357 -0.7636
20651SOL     OW66890   9.572   9.888   4.891 -0.3301  0.0023  0.2882
20651SOL    HW166891   9.517   9.965   4.905 -0.3205 -0.2170  1.6796
20651SOL    HW266892   9.611   9.902   4.805  1.7818  2.9083  1.5352
20652SOL     OW66893   1.942   2.524   3.693 -0.1311 -0.0482 -0.5055
20652SOL    HW166894   1.910   2.580   3.623 -1.3445  1.1410  0.9254
20652SOL    HW266895   1.959   2.584   3.766  1.3856 -1.2006  0.1544
20653SOL     OW66896   4.247   7.199   3.864 -0.1087  0.2459 -0.3052
20653SOL    HW166897   4.177   7.264   3.859 -0.0193  0.3983  0.3177
20653SOL    HW266898   4.208   7.126   3.911  0.4410  0.7416  0.9693
20654SOL     OW66899   9.545   0.195  10.710  0.3801 -0.0708 -0.6146
20654SOL    HW166900   9.544   0.173  10.617  0.4140 -3.0163  0.0164
20654SOL    HW266901   9.563   0.113  10.755  2.7988  1.6751  1.9293
20655SOL     OW66902   8.779   7.955   7.679 -0.4091 -0.5808  0.2800
20655SOL    HW166903   8.790   7.879   7.622  0.6217  0.2706 -0.7110
20655SOL    HW266904   8.862   8.002   7.672 -1.1005  0.7553  0.7063
20656SOL     OW66905   5.915   3.284  10.452 -0.2740  0.2210  0.0322
20656SOL    HW166906   5.983   3.254  10.393 -0.8618  1.2703 -1.2480
20656SOL    HW266907   5.890   3.370  10.418  0.6266  1.7460  2.8833
20657SOL     OW66908  11.116   6.152   9.422  0.8288  0.0722  0.2208
20657SOL    HW166909  11.147   6.074   9.376  0.1973  0.0990 -0.2546
20657SOL    HW266910  11.141   6.137   9.513  2.3765  0.1687 -0.1640
20658SOL     OW66911   7.840   7.184   0.458 -0.2866 -0.3956 -0.1808
20658SOL    HW166912   7.759   7.235   0.448  0.2290  0.4581 -0.1622
20658SOL    HW266913   7.891   7.233   0.522 -0.6921 -2.1446  1.5596
20659SOL     OW66914   7.457   2.736   3.752  0.4261 -0.1403  0.2145
20659SOL    HW166915   7.427   2.680   3.824 -0.3875 -0.4829 -0.3646
20659SOL    HW266916   7.379   2.748   3.698  1.0424  0.0383 -0.6533
20660SOL     OW66917   4.024   6.980   5.448 -0.1807 -0.3050  0.8305
20660SOL    HW166918   4.075   6.901   5.428  0.6485  0.9294 -2.6570
20660SOL    HW266919   3.941   6.967   5.401 -0.7279  0.1973  1.6459
20661SOL     OW66920   8.954   3.866   6.559  0.1085  0.4045 -0.3613
20661SOL    HW166921   9.025   3.928   6.575 -0.9138  1.8190 -1.0461
20661SOL    HW266922   8.876   3.921   6.549 -0.9909 -1.0589 -0.1763
20662SOL     OW66923  11.246   6.172   0.599  0.2359 -0.9218 -0.2556
20662SOL    HW166924  11.274   6.129   0.679  2.5730 -1.0775 -1.0692
20662SOL    HW266925  11.322   6.168   0.541  0.2953  3.2583 -0.8294
20663SOL     OW66926   5.433   1.714   1.573 -0.3814 -0.1813  0.4119
20663SOL    HW166927   5.481   1.684   1.496 -1.4593 -0.5385 -0.1430
20663SOL    HW266928   5.359   1.654   1.579  0.5979 -1.2857  2.7763
20664SOL     OW66929  10.250   2.978   7.419  0.0322  0.2587  0.7367
20664SOL    HW166930  10.232   2.998   7.511  1.5223  0.4368  1.0150
20664SOL    HW266931  10.328   2.923   7.421  0.0813  0.2628 -0.4246
20665SOL     OW66932   9.817  10.866   6.082 -0.3914  0.2261 -0.0639
20665SOL    HW166933   9.782  10.945   6.123  1.2503  0.0557  1.8357
20665SOL    HW266934   9.753  10.798   6.103 -1.0338  0.7357 -0.3372
20666SOL     OW66935   7.319   6.708   4.725  0.0791 -0.9766 -0.4880
20666SOL    HW166936   7.268   6.780   4.762  0.2411 -1.7813  1.4309
20666SOL    HW266937   7.350   6.659   4.801  1.1894 -2.2468 -1.6972
20667SOL     OW66938   8.971   7.090   4.876 -0.2103  0.1606  0.2562
20667SOL    HW166939   9.022   7.033   4.818 -1.0859  0.8263 -1.2459
20667SOL    HW266940   8.884   7.094   4.835 -0.4803  1.7077  0.9077
20668SOL     OW66941   2.889   8.353   9.575 -0.3644  0.1296 -0.6763
20668SOL    HW166942   2.870   8.273   9.526  3.5297 -1.0126 -0.6905
20668SOL    HW266943   2.876   8.328   9.667 -0.1343 -0.2177 -0.7348
20669SOL     OW66944   6.337   1.267   1.635 -0.1501  0.7891 -0.1709
20669SOL    HW166945   6.375   1.231   1.715 -2.0468  1.4000  1.0976
20669SOL    HW266946   6.263   1.210   1.615  1.2233 -0.3092 -2.4957
20670SOL     OW66947   7.269   3.251   0.345  0.7284  1.1967 -0.1202
20670SOL    HW166948   7.253   3.176   0.287 -1.6328  0.2549  1.5911
20670SOL    HW266949   7.358   3.279   0.324  1.1031 -1.0782 -1.9528
20671SOL     OW66950   7.684   5.060   4.910 -0.5970  0.3089 -0.6118
20671SOL    HW166951   7.701   5.043   5.003 -2.6413 -0.4878 -0.3221
20671SOL    HW266952   7.607   5.007   4.890 -0.6960  1.1093 -2.5558
20672SOL     OW66953  10.762   6.519   7.164  0.1564 -0.2671 -0.1737
20672SOL    HW166954  10.809   6.524   7.247 -0.8934  0.4004  0.4059
20672SOL    HW266955  10.803   6.585   7.109 -1.1007  1.4797  0.8846
20673SOL     OW66956   7.162   4.157  10.131  0.1531 -0.3775 -0.1005
20673SOL    HW166957   7.071   4.160  10.159  0.4493  0.3142  0.8571
20673SOL    HW266958   7.167   4.220  10.059  0.4582  1.8436  1.7669
20674SOL     OW66959   2.423   5.301   2.829 -0.5108  0.1374 -0.3039
20674SOL    HW166960   2.494   5.359   2.859 -1.4743  1.1911  0.0077
20674SOL    HW266961   2.455   5.265   2.747  0.6464  0.1007  0.1430
20675SOL     OW66962  10.844   5.141   1.502 -0.1185  0.2167 -0.3222
20675SOL    HW166963  10.881   5.172   1.585 -1.2297  0.2026  0.1982
20675SOL    HW266964  10.808   5.220   1.461  1.1405  0.3650 -1.1964
20676SOL     OW66965  11.270   5.123   3.152  0.6309  0.5847 -0.2988
20676SOL    HW166966  11.341   5.186   3.164  0.3078  1.3381 -1.9825
20676SOL    HW266967  11.311   5.052   3.102  0.0430  1.5045 -2.2180
20677SOL     OW66968   7.785   8.427  10.192 -0.2524  0.2439  0.4950
20677SOL    HW166969   7.788   8.336  10.222 -2.0229  0.1474  0.4783
20677SOL    HW266970   7.866   8.438  10.142 -1.6582 -2.5402 -2.8228
20678SOL     OW66971  10.335   5.500   0.656  0.4966 -0.4387  0.3877
20678SOL    HW166972  10.243   5.513   0.679  0.5921  3.4520 -0.7792
20678SOL    HW266973  10.334   5.429   0.593 -1.7807 -0.2475  0.1218
20679SOL     OW66974  11.376  11.598   3.502 -0.6840  0.1069  0.1361
20679SOL    HW166975  11.471  11.588   3.497 -0.3414  3.1480 -1.7960
20679SOL    HW266976  11.342  11.520   3.457  1.0515  0.4001 -1.8654
20680SOL     OW66977   4.879  11.666  10.635 -0.0250  0.2448 -0.0232
20680SOL    HW166978   4.808  11.730  10.629  1.4197  1.9222 -0.0420
20680SOL    HW266979   4.845  11.588  10.591 -1.4059  1.4000 -1.0936
20681SOL     OW66980   2.828   6.671   1.845  0.4094  0.4580  0.1619
20681SOL    HW166981   2.808   6.593   1.896  0.5943  1.1044  1.2558
20681SOL    HW266982   2.797   6.744   1.899  2.3920  1.2831  0.2996
20682SOL     OW66983   0.606  11.335   3.741 -0.1797  0.2006  0.1559
20682SOL    HW166984   0.679  11.281   3.710 -0.6582  0.0100 -0.6741
20682SOL    HW266985   0.645  11.391   3.808  0.4159 -0.8954  0.7592
20683SOL     OW66986  10.045   7.776   6.994  0.1794  0.2878 -0.4715
20683SOL    HW166987   9.967   7.803   6.945 -0.7693 -1.6283 -0.1091
20683SOL    HW266988  10.028   7.685   7.018  2.0896  0.1466  0.5372
20684SOL     OW66989   4.756   0.504   7.155  0.1055  0.3025 -0.2848
20684SOL    HW166990   4.818   0.432   7.155  0.6961  0.7702  0.9388
20684SOL    HW266991   4.805   0.578   7.120 -0.7256 -0.0275 -2.2655
20685SOL     OW66992   1.367   7.380   2.645  0.4677  0.3732  0.6640
20685SOL    HW166993   1.433   7.449   2.655  2.1151 -0.4905 -2.6591
20685SOL    HW266994   1.416   7.299   2.654  0.1945 -0.3003 -2.6008
20686SOL     OW66995   0.554   8.459   3.311 -0.2792  0.6064 -0.2959
20686SOL    HW166996   0.525   8.509   3.235  1.5438  0.6874 -1.0026
20686SOL    HW266997   0.555   8.368   3.281  1.2455  0.7239 -0.6873
20687SOL     OW66998  10.007   8.440   6.528 -0.2787  0.0636 -0.6496
20687SOL    HW166999  10.087   8.408   6.487 -0.0375 -1.4169  0.8596
20687SOL    HW267000   9.993   8.526   6.490  1.3547 -0.1547 -1.8408
20688SOL     OW67001   7.400   6.342   5.492 -0.0239  0.0006  1.0640
20688SOL    HW167002   7.416   6.297   5.409 -0.3452  0.5889  0.6745
20688SOL    HW267003   7.329   6.293   5.532  0.0516 -0.2170  0.9349
20689SOL     OW67004   6.705   7.227   4.116  0.4763  0.4652 -0.4537
20689SOL    HW167005   6.681   7.199   4.027 -0.9618  0.5484 -0.1153
20689SOL    HW267006   6.793   7.191   4.129 -0.7423 -2.8685 -0.5317
20690SOL     OW67007   6.480   1.242   8.650  0.7180  0.3478 -0.2477
20690SOL    HW167008   6.437   1.187   8.584  0.1636 -0.6534  0.9109
20690SOL    HW267009   6.420   1.316   8.661 -0.1637 -0.4478  0.4962
20691SOL     OW67010  10.521   1.715   3.193  0.3205 -1.2511  0.4018
20691SOL    HW167011  10.436   1.731   3.153 -1.4331 -2.5930  3.2588
20691SOL    HW267012  10.542   1.797   3.239 -0.0310 -1.3299  0.7006
20692SOL     OW67013   2.632  11.367   9.324  0.5506 -0.0711  0.5884
20692SOL    HW167014   2.665  11.398   9.240 -0.4325 -0.2957  0.1022
20692SOL    HW267015   2.556  11.423   9.342 -0.7543 -1.6293  0.0975
20693SOL     OW67016   4.779   6.333   1.799  0.2042 -0.0315 -0.6365
20693SOL    HW167017   4.850   6.390   1.828  0.8239 -0.0325 -2.0753
20693SOL    HW267018   4.802   6.247   1.832 -1.1817  0.6130  2.3217
20694SOL     OW67019   9.645   7.671  10.847 -0.6978 -0.4047  0.0070
20694SOL    HW167020   9.591   7.749  10.835  1.4097  1.0390 -0.7147
20694SOL    HW267021   9.601   7.622  10.917 -2.5518  0.9723 -0.1082
20695SOL     OW67022   5.540   8.637   3.607  0.2580  0.3021  0.2938
20695SOL    HW167023   5.559   8.698   3.678 -0.9305  0.7859  0.2236
20695SOL    HW267024   5.516   8.555   3.650  0.3373  0.3541  0.4342
20696SOL     OW67025   5.660   2.684  10.056 -0.0627 -0.0656 -0.0909
20696SOL    HW167026   5.726   2.746  10.026  0.1384 -0.2105  0.0478
20696SOL    HW267027   5.588   2.695   9.995  0.9232 -1.4335 -1.5848
20697SOL     OW67028   7.420   9.315   2.902  0.3672  0.1288 -0.1877
20697SOL    HW167029   7.353   9.279   2.960  0.5118  0.1616 -0.0007
20697SOL    HW267030   7.485   9.245   2.895  0.7363  0.4198  0.3189
20698SOL     OW67031   7.134   0.477   7.332  0.0977 -0.0511 -0.2117
20698SOL    HW167032   7.174   0.561   7.357 -1.5565  0.2796  1.5791
20698SOL    HW267033   7.040   0.496   7.328 -0.4664 -2.0867  1.5899
20699SOL     OW67034   3.207   7.132   6.289  0.1961  0.0804 -0.1287
20699SOL    HW167035   3.253   7.210   6.257 -2.3673  1.1626 -1.4503
20699SOL    HW267036   3.130   7.166   6.335 -0.8420 -1.6328 -0.5054
20700SOL     OW67037   4.673   0.145   6.495 -0.3590  0.1796 -0.6937
20700SOL    HW167038   4.618   0.223   6.488 -0.0125  0.3331 -2.0062
20700SOL    HW267039   4.709   0.133   6.407  0.6537 -0.6924 -0.1848
20701SOL     OW67040   5.077   5.459   4.875  0.1499  0.1666  0.2912
20701SOL    HW167041   5.064   5.548   4.841 -3.0823 -0.6223 -0.9238
20701SOL    HW267042   5.070   5.404   4.797  2.9862 -1.2089  0.8862
20702SOL     OW67043   9.631   3.719   7.848 -0.0621 -0.0013 -0.1981
20702SOL    HW167044   9.540   3.692   7.834 -0.8140  0.8595  2.4876
20702SOL    HW267045   9.670   3.647   7.898  0.2207  0.4252  0.1980
20703SOL     OW67046   8.465  10.821   9.577 -0.3467 -0.3265  0.4823
20703SOL    HW167047   8.514  10.862   9.648 -0.2207 -0.0971  0.2630
20703SOL    HW267048   8.480  10.727   9.589 -0.2089 -0.2825  0.6717
20704SOL     OW67049   4.710   8.467   2.237 -0.2379 -0.7537  0.1553
20704SOL    HW167050   4.681   8.427   2.319 -0.0806  0.9135  1.0729
20704SOL    HW267051   4.645   8.535   2.219  0.3340 -0.3716 -0.5135
20705SOL     OW67052   4.839  11.213   4.478 -0.5347  0.2715 -0.2881
20705SOL    HW167053   4.906  11.279   4.461  0.0499 -0.7803 -2.2899
20705SOL    HW267054   4.855  11.186   4.569  2.9070 -1.1343 -1.1678
20706SOL     OW67055   2.133   5.648   7.618 -0.1584 -0.3069 -0.1570
20706SOL    HW167056   2.097   5.666   7.531  2.6699 -0.0318 -1.4189
20706SOL    HW267057   2.151   5.735   7.654 -0.1771 -0.4295  0.1460
20707SOL     OW67058   8.218  10.520   1.350  0.6675 -0.1477  0.4082
20707SOL    HW167059   8.213  10.585   1.280 -0.7593 -0.0679  0.5514
20707SOL    HW267060   8.241  10.438   1.305  3.6847  0.6274  0.3755
20708SOL     OW67061   7.908   4.153   8.085 -0.1338  0.1856  0.1779
20708SOL    HW167062   7.881   4.200   8.006 -0.7425  0.5118  0.5772
20708SOL    HW267063   7.982   4.100   8.057 -0.6261 -0.0394 -0.7188
20709SOL     OW67064   0.044   9.078   0.799  0.4826 -0.1482 -0.3765
20709SOL    HW167065   0.100   9.054   0.725  0.5958  0.6520 -0.5712
20709SOL    HW267066   0.099   9.137   0.851 -0.1854  0.6818 -0.5913
20710SOL     OW67067   7.090   6.756   7.123 -0.9359 -0.6873  0.2176
20710SOL    HW167068   7.007   6.763   7.076  0.5094  2.1471 -2.2153
20710SOL    HW267069   7.141   6.693   7.073 -0.6402 -0.3274  0.0641
20711SOL     OW67070  10.441   5.757  11.622 -0.1072 -0.2017 -0.0210
20711SOL    HW167071  10.498   5.709  11.562  1.7695 -0.6884  1.9954
20711SOL    HW267072  10.501   5.800  11.682 -1.8291  2.4798 -0.0661
20712SOL     OW67073   1.369   0.911   9.303  0.4639  0.5702  0.5161
20712SOL    HW167074   1.369   0.975   9.232 -2.8059 -0.1853 -0.3501
20712SOL    HW267075   1.342   0.961   9.380 -3.4042  0.2663 -0.4106
20713SOL     OW67076  10.869   6.582   7.442  0.0758 -0.8540 -0.2621
20713SOL    HW167077  10.932   6.618   7.504 -0.2050  1.1857 -1.0775
20713SOL    HW267078  10.792   6.563   7.494 -0.0966  0.6724  0.0885
20714SOL     OW67079   2.217   4.603  10.077  0.6066  0.0573  0.2340
20714SOL    HW167080   2.259   4.560  10.152  1.0221  1.7688  1.0192
20714SOL    HW267081   2.204   4.693  10.105 -1.3217  0.1993 -0.9391
20715SOL     OW67082   1.474  10.529   5.733  0.0429 -0.1292 -0.5214
20715SOL    HW167083   1.394  10.478   5.728 -1.2729  1.7288  0.2348
20715SOL    HW267084   1.515  10.519   5.647 -1.5400 -0.3303 -1.2796
20716SOL     OW67085   2.537   4.530   8.792  0.1080  0.1182  0.3160
20716SOL    HW167086   2.489   4.448   8.781  0.3991 -0.2368  1.5336
20716SOL    HW267087   2.577   4.523   8.878 -0.4455  1.8563  0.7583
20717SOL     OW67088   1.380   0.783   1.352 -0.1040  0.2004 -0.1743
20717SOL    HW167089   1.325   0.841   1.404 -1.4765  0.4335 -1.7771
20717SOL    HW267090   1.340   0.697   1.362  0.3441  0.0205  0.0946
20718SOL     OW67091   0.682   5.316  11.465  0.0732 -0.5722 -0.1915
20718SOL    HW167092   0.729   5.370  11.400  2.3814 -1.1578  0.8726
20718SOL    HW267093   0.592   5.347  11.461  0.8875  1.9443 -1.0890
20719SOL     OW67094   5.087   2.186  11.375 -0.1684  0.3028 -0.1677
20719SOL    HW167095   5.080   2.094  11.400 -3.3986  0.2417 -0.9054
20719SOL    HW267096   5.037   2.233  11.441  0.1829  1.3685 -0.6306
20720SOL     OW67097   4.559   3.071   5.081 -0.3828 -0.0541 -0.2225
20720SOL    HW167098   4.538   3.100   4.993 -1.2642  2.3274  0.6842
20720SOL    HW267099   4.586   3.151   5.127 -1.7076 -0.8457  2.1351
20721SOL     OW67100   6.837  10.408   8.691 -0.3495  0.2193 -0.4967
20721SOL    HW167101   6.873  10.495   8.676  1.0447 -0.3352 -0.4872
20721SOL    HW267102   6.910  10.357   8.727 -1.1267 -0.9630 -0.5275
20722SOL     OW67103   7.259   7.760   3.427  0.0741  0.1984  0.6272
20722SOL    HW167104   7.280   7.742   3.518 -0.8035  1.0391  1.0160
20722SOL    HW267105   7.210   7.842   3.429 -1.2532 -0.5146 -0.4477
20723SOL     OW67106  11.334   2.120   9.237  0.1678  0.4654  0.1563
20723SOL    HW167107  11.256   2.085   9.280 -1.2425  0.7842 -1.9969
20723SOL    HW267108  11.351   2.203   9.283 -1.6483  1.0951 -0.2355
20724SOL     OW67109   6.617   1.107   9.886  0.1373  0.1699 -0.0894
20724SOL    HW167110   6.611   1.014   9.905 -0.0886  0.3242  0.6198
20724SOL    HW267111   6.526   1.134   9.869  0.2648  0.1553 -0.8039
20725SOL     OW67112   4.385   7.997   8.810 -0.0399 -0.3227 -0.0417
20725SOL    HW167113   4.399   8.031   8.899 -2.3976 -0.8237  0.5801
20725SOL    HW267114   4.322   7.926   8.821 -1.9751  0.9026 -2.3361
20726SOL     OW67115   4.277   9.019   7.802  0.3489 -0.3974 -0.0524
20726SOL    HW167116   4.355   9.011   7.856  0.7071  1.2406 -0.2784
20726SOL    HW267117   4.251   8.929   7.783  0.5076 -1.0301  2.3928
20727SOL     OW67118   4.226   0.194   1.890 -0.3780 -0.3027  0.2325
20727SOL    HW167119   4.197   0.276   1.849  0.2643 -0.2902 -0.2186
20727SOL    HW267120   4.303   0.219   1.942 -0.1339 -0.6258  0.0335
20728SOL     OW67121   6.754   2.840   2.217 -0.5931  0.7507 -0.0390
20728SOL    HW167122   6.743   2.898   2.292 -0.4796  0.2263  0.3920
20728SOL    HW267123   6.801   2.892   2.152  1.9349  0.3397  1.3341
20729SOL     OW67124  10.404   7.016  10.813 -0.6008 -0.1007 -0.0026
20729SOL    HW167125  10.358   6.937  10.782  0.7612 -0.9832  0.1136
20729SOL    HW267126  10.342   7.058  10.872 -1.5875 -0.7656 -0.5213
20730SOL     OW67127   7.790   2.784   0.880  0.1281  0.7167  0.1031
20730SOL    HW167128   7.843   2.852   0.840  2.5731 -0.9710  0.2459
20730SOL    HW267129   7.796   2.801   0.974  1.2846 -0.0084  0.1806
20731SOL     OW67130   5.255   3.443   8.767 -0.1775 -0.3285  0.0087
20731SOL    HW167131   5.213   3.529   8.768  0.6192  0.0810  0.0230
20731SOL    HW267132   5.230   3.403   8.850  2.0455  1.2490  1.5846
20732SOL     OW67133   8.694   6.838   4.084 -0.0386  0.2782  0.3474
20732SOL    HW167134   8.653   6.910   4.131  0.3580  0.4398  0.4391
20732SOL    HW267135   8.669   6.852   3.993  0.0836  0.5564  0.3581
20733SOL     OW67136  10.612   8.989   7.383  0.5427 -0.4343  0.1564
20733SOL    HW167137  10.587   8.917   7.441  0.4951 -0.4860  0.0715
20733SOL    HW267138  10.538   8.997   7.323  0.5423 -0.3047  0.1758
20734SOL     OW67139   7.400   7.468  10.700  0.2483  0.1132  0.2100
20734SOL    HW167140   7.409   7.499  10.790  2.0304  0.3214 -0.0058
20734SOL    HW267141   7.456   7.390  10.696 -0.6046 -0.4793 -0.4659
20735SOL     OW67142   4.573   1.912   8.583  0.1660  0.4670 -0.9760
20735SOL    HW167143   4.528   1.989   8.616 -0.3520 -0.1626 -0.1548
20735SOL    HW267144   4.664   1.923   8.611  0.0359  0.6501 -0.6242
20736SOL     OW67145   4.584   1.285   9.044  0.0670 -0.0394 -0.2417
20736SOL    HW167146   4.525   1.213   9.065  1.9069 -1.9500 -1.3056
20736SOL    HW267147   4.669   1.258   9.078  1.2107  0.7536 -2.2724
20737SOL     OW67148   2.138   7.929   9.892  0.2796 -0.5328  0.4208
20737SOL    HW167149   2.167   7.850   9.846 -0.8275 -1.1001  0.6672
20737SOL    HW267150   2.091   7.896   9.968  0.2416  0.3786  0.8004
20738SOL     OW67151   6.751  11.624   4.396 -0.2502  0.2384  0.2962
20738SOL    HW167152   6.673  11.673   4.422 -0.6087 -0.8292  1.3160
20738SOL    HW267153   6.738  11.607   4.302 -1.1726  0.2144  0.4140
20739SOL     OW67154   9.752   5.057   5.370  0.0955  0.6745 -0.0364
20739SOL    HW167155   9.821   5.122   5.385  0.1456  0.4020  0.9711
20739SOL    HW267156   9.774   4.984   5.427 -0.5462  0.2094 -0.3639
20740SOL     OW67157   8.456   8.528   6.626  0.5563  0.5000 -0.2780
20740SOL    HW167158   8.540   8.555   6.664  0.5763  0.4409 -0.2801
20740SOL    HW267159   8.457   8.432   6.631  0.8890  0.4509 -1.1380
20741SOL     OW67160   3.301   7.483   7.200  0.3699  0.1122 -0.2459
20741SOL    HW167161   3.327   7.395   7.175  1.3614 -0.1782  1.6279
20741SOL    HW267162   3.315   7.536   7.121  1.6450 -1.0412 -0.8228
20742SOL     OW67163   3.269   6.981   9.582 -0.5296 -0.1628 -0.3813
20742SOL    HW167164   3.190   6.934   9.556  2.2376 -3.5499 -3.7412
20742SOL    HW267165   3.318   6.917   9.635  0.6712  1.2937  0.3326
20743SOL     OW67166  10.549   7.198   5.927  0.5280  0.0673 -0.2586
20743SOL    HW167167  10.514   7.114   5.895  2.1343 -1.7230  2.3624
20743SOL    HW267168  10.475   7.238   5.972  0.2195 -0.8402  0.0747
20744SOL     OW67169  10.503   8.507   6.390  0.2889 -0.0737  0.2042
20744SOL    HW167170  10.587   8.467   6.410  0.3725  0.6689  1.4613
20744SOL    HW267171  10.487   8.568   6.463 -0.8851  0.4980 -0.4904
20745SOL     OW67172   3.630   8.866   4.684  0.2834 -0.3061 -0.3286
20745SOL    HW167173   3.613   8.781   4.644 -1.3819 -0.4193  0.5496
20745SOL    HW267174   3.553   8.918   4.664  1.0777  0.8544 -0.4518
20746SOL     OW67175  10.884   9.044   6.596 -0.4089 -0.1567 -0.6145
20746SOL    HW167176  10.829   9.122   6.610  0.9430  1.2637 -2.7464
20746SOL    HW267177  10.821   8.973   6.581 -1.7224  0.0733  2.8223
20747SOL     OW67178   1.796   4.873   4.684 -0.2277  0.1456  0.1665
20747SOL    HW167179   1.833   4.787   4.663 -0.9782 -0.3553  0.8249
20747SOL    HW267180   1.847   4.903   4.758  0.8243  0.8262 -0.7981
20748SOL     OW67181   9.558   4.255  10.594 -0.3844  0.2964  0.0248
20748SOL    HW167182   9.501   4.270  10.670 -0.4864  0.7961 -0.1447
20748SOL    HW267183   9.639   4.221  10.632 -0.3138  0.8612  0.3937
20749SOL     OW67184   4.232  11.606   8.476  0.1645 -0.0505 -0.1945
20749SOL    HW167185   4.288  11.540   8.435 -1.1874 -0.8514 -0.8085
20749SOL    HW267186   4.220  11.673   8.408  0.2188  0.0264 -0.1288
20750SOL     OW67187   4.165   8.681   8.657 -0.3241 -0.2540  0.4383
20750SOL    HW167188   4.093   8.619   8.646 -0.7535  0.4002 -0.6253
20750SOL    HW267189   4.193   8.703   8.568 -0.8982  1.8761  0.7132
20751SOL     OW67190   0.412   3.354   6.322 -0.0128  0.1613  0.0704
20751SOL    HW167191   0.432   3.435   6.276  0.6314  0.5755  1.0500
20751SOL    HW267192   0.317   3.354   6.331 -0.0511  0.5840 -0.3261
20752SOL     OW67193   2.525   9.098   8.313 -0.5452  0.1451 -0.3609
20752SOL    HW167194   2.445   9.068   8.357 -0.2409  0.3697  0.3577
20752SOL    HW267195   2.595   9.072   8.372 -0.3424  4.2235  1.5247
20753SOL     OW67196   5.707   6.862   7.640  0.0285  0.3651  0.0587
20753SOL    HW167197   5.731   6.954   7.631  0.0155  0.4537  0.9170
20753SOL    HW267198   5.649   6.846   7.565  0.9165  0.7442 -0.7431
20754SOL     OW67199  11.215  10.830   5.850 -0.5043  0.1063  0.1492
20754SOL    HW167200  11.147  10.870   5.795  0.8431  0.1575 -1.5295
20754SOL    HW267201  11.229  10.743   5.813 -0.3112 -0.2870  1.0921
20755SOL     OW67202   2.188  10.281  11.576  0.0813 -0.2853  0.0451
20755SOL    HW167203   2.275  10.312  11.555  0.2095 -0.5177  0.2289
20755SOL    HW267204   2.172  10.314  11.665  0.1462 -0.5904  0.1709
20756SOL     OW67205   9.970   5.694   6.916  0.0098 -0.3514 -0.2515
20756SOL    HW167206  10.003   5.782   6.900  0.3374 -0.3705  0.3062
20756SOL    HW267207   9.882   5.707   6.951 -0.5516 -0.2986 -1.6070
20757SOL     OW67208   6.235   1.659   9.576  0.2963  0.1258 -0.3232
20757SOL    HW167209   6.305   1.649   9.640  0.5722  1.4037 -0.4032
20757SOL    HW267210   6.263   1.732   9.521 -1.5869  1.4237  0.3377
20758SOL     OW67211   2.846   0.656   0.859  0.0874 -0.5406  0.4195
20758SOL    HW167212   2.828   0.564   0.880  0.0564 -0.6561 -0.1151
20758SOL    HW267213   2.759   0.696   0.851  0.0905 -0.1287  2.0743
20759SOL     OW67214   9.865   8.567   0.519  0.2430  0.5115 -0.1781
20759SOL    HW167215   9.796   8.617   0.564 -0.0532 -0.9267  1.0458
20759SOL    HW267216   9.946   8.603   0.555  0.0482  0.4016  0.3835
20760SOL     OW67217   5.815   8.636   9.305 -0.1659  0.1541  0.0793
20760SOL    HW167218   5.901   8.641   9.263 -0.4892  2.8493 -0.4046
20760SOL    HW267219   5.831   8.658   9.396 -0.0351 -1.8203  0.5718
20761SOL     OW67220   3.589   2.180   3.815  0.3664 -0.5104  0.5641
20761SOL    HW167221   3.575   2.108   3.875  1.3454  0.3666  1.9195
20761SOL    HW267222   3.675   2.163   3.777  0.6844  0.0086  1.0282
20762SOL     OW67223  11.238   1.886  11.170  0.1687 -0.0081  0.2036
20762SOL    HW167224  11.301   1.883  11.098 -0.8793 -0.2405 -0.7589
20762SOL    HW267225  11.172   1.820  11.146  0.6362 -1.3024  2.2253
20763SOL     OW67226   3.960   0.356   0.201  0.3381 -0.4410 -0.0647
20763SOL    HW167227   3.916   0.279   0.235  0.0789 -0.7656 -1.1032
20763SOL    HW267228   4.051   0.329   0.191  0.3718 -0.4111  0.1412
20764SOL     OW67229   7.540   7.676   7.750 -0.3505  0.6498  0.0811
20764SOL    HW167230   7.475   7.616   7.786  0.2235  0.9167  1.6096
20764SOL    HW267231   7.593   7.702   7.825  2.5364 -0.7544 -1.3098
20765SOL     OW67232   5.965  10.339   6.331  0.6927  0.3279 -0.2733
20765SOL    HW167233   5.952  10.246   6.316  1.2570  0.0340  0.9374
20765SOL    HW267234   5.899  10.382   6.277 -0.0799 -0.7946 -0.2390
20766SOL     OW67235   6.526   3.500   1.151  0.0963  0.3228 -0.5630
20766SOL    HW167236   6.525   3.467   1.241 -0.1013  2.6743  0.3727
20766SOL    HW267237   6.525   3.421   1.096  0.3397 -1.1753  1.4764
20767SOL     OW67238   6.049   0.105   4.039  0.2030  0.0349 -0.4401
20767SOL    HW167239   6.077   0.014   4.033 -0.5910 -0.2314 -0.2897
20767SOL    HW267240   6.023   0.129   3.950 -1.7278 -0.6183 -0.0907
20768SOL     OW67241   2.923   4.144  11.267  0.0291  0.3737 -0.8336
20768SOL    HW167242   2.981   4.114  11.197  0.9167 -1.7827  0.7341
20768SOL    HW267243   2.978   4.198  11.323 -1.0829  3.5202 -2.5637
20769SOL     OW67244   4.667  10.255   5.498  0.0971  0.8141 -0.3013
20769SOL    HW167245   4.747  10.286   5.456  1.1492  0.3708  1.2841
20769SOL    HW267246   4.598  10.307   5.458  0.9297  0.0644 -2.8994
20770SOL     OW67247   6.196   5.284   5.277 -0.0326 -0.4634  0.0236
20770SOL    HW167248   6.183   5.251   5.366 -1.6074 -0.0848 -0.0271
20770SOL    HW267249   6.215   5.206   5.225  0.1839 -0.7810  0.5675
20771SOL     OW67250   0.768   7.919   7.410  0.1426  0.1620 -0.7509
20771SOL    HW167251   0.798   8.010   7.407  0.8205 -0.0290 -0.1489
20771SOL    HW267252   0.795   7.882   7.326 -0.2953  0.5658 -1.0707
20772SOL     OW67253  10.570   3.977   5.955  0.1360 -0.0374 -0.3522
20772SOL    HW167254  10.525   4.057   5.926  0.6532  0.8005  1.0828
20772SOL    HW267255  10.510   3.936   6.017  0.8851  0.5668  0.8101
20773SOL     OW67256   9.764   4.648  11.025 -0.1693 -0.4047 -0.6122
20773SOL    HW167257   9.797   4.683  11.108  1.8347 -0.4042 -1.3514
20773SOL    HW267258   9.747   4.556  11.043  1.2391 -0.6504 -0.4305
20774SOL     OW67259   2.809   9.738   7.590  0.4692  0.2364 -0.2775
20774SOL    HW167260   2.741   9.750   7.524 -0.2294 -1.1629  0.1462
20774SOL    HW267261   2.811   9.644   7.607  2.6914  0.1929 -0.4281
20775SOL     OW67262   4.275   9.304  10.509  0.6867  0.5303  0.0987
20775SOL    HW167263   4.324   9.379  10.476  0.5163  0.2859 -0.7242
20775SOL    HW267264   4.208   9.342  10.566  0.6197  1.0117 -0.2919
20776SOL     OW67265   1.695   2.045   7.438 -0.0014 -0.1989  0.0332
20776SOL    HW167266   1.746   1.998   7.504  0.6510 -2.2068 -1.7552
20776SOL    HW267267   1.604   2.025   7.460  0.2284 -1.3322  0.0136
20777SOL     OW67268   6.709   9.454   5.001 -0.1176 -0.4751 -0.1068
20777SOL    HW167269   6.697   9.384   5.067 -1.6553  0.4946  0.7196
20777SOL    HW267270   6.723   9.407   4.919 -3.0511 -1.9029  0.0554
20778SOL     OW67271   7.975   7.018   7.702  0.0166  0.2348  0.2612
20778SOL    HW167272   8.039   7.037   7.770 -0.9213  1.6391  0.8187
20778SOL    HW267273   7.925   6.944   7.735  0.2675  0.2190  0.6014
20779SOL     OW67274   2.156  10.997   9.791  0.2861 -0.1839 -0.0269
20779SOL    HW167275   2.169  11.087   9.821  2.7832 -0.5979  0.4147
20779SOL    HW267276   2.172  10.944   9.869 -1.1465 -1.0402 -0.2847
20780SOL     OW67277   9.109   3.114   5.218 -0.3031 -0.1367 -0.4545
20780SOL    HW167278   9.186   3.152   5.260  1.9956 -3.0561 -1.6467
20780SOL    HW267279   9.072   3.186   5.165  1.5153  1.3950  0.2519
20781SOL     OW67280   4.047  10.092   2.042 -0.3638 -0.0171  0.2890
20781SOL    HW167281   3.961  10.133   2.035 -0.3383  0.0638  0.4521
20781SOL    HW267282   4.029  10.003   2.072 -0.3788  0.0543  0.4941
20782SOL     OW67283   7.822   2.821   5.607 -0.2264  0.4543  0.2257
20782SOL    HW167284   7.792   2.907   5.635  3.1524  1.2679  1.8312
20782SOL    HW267285   7.903   2.838   5.559  1.2752 -1.8335  1.7215
20783SOL     OW67286   0.487   6.882   7.617 -0.7526  0.3923 -0.4727
20783SOL    HW167287   0.416   6.935   7.654  0.9620  1.6041  1.3136
20783SOL    HW267288   0.545   6.866   7.691  0.1340 -1.8003 -1.5688
20784SOL     OW67289   0.107  10.554   2.157 -0.3786  0.0923 -0.2409
20784SOL    HW167290   0.060  10.487   2.206 -1.2486  0.7001 -0.2138
20784SOL    HW267291   0.198  10.545   2.184 -0.5335 -0.8644 -0.0035
20785SOL     OW67292   8.485   8.789   6.002  0.2921  0.1465 -0.3264
20785SOL    HW167293   8.575   8.821   6.017 -0.1324  0.6731  1.3478
20785SOL    HW267294   8.431   8.842   6.061 -1.0096 -0.7968 -0.6253
20786SOL     OW67295  10.770   7.434  10.249  0.7021 -0.0664 -0.1455
20786SOL    HW167296  10.825   7.442  10.327  2.7450 -3.7103 -0.9820
20786SOL    HW267297  10.728   7.349  10.257  0.5060 -0.2901 -2.6944
20787SOL     OW67298   8.445   6.294   0.891  0.4978  0.0908  0.1867
20787SOL    HW167299   8.539   6.284   0.909  0.5585  0.1174 -0.1154
20787SOL    HW267300   8.406   6.213   0.923  0.5917  0.1880  0.5492
20788SOL     OW67301   3.469   4.604   4.865 -0.4166  0.2748 -0.6250
20788SOL    HW167302   3.504   4.661   4.796  0.1778 -0.3599 -0.8568
20788SOL    HW267303   3.540   4.599   4.929 -0.8470  0.6013 -0.1134
20789SOL     OW67304   2.008   5.308   9.194 -0.5003 -0.3849 -0.6491
20789SOL    HW167305   2.038   5.236   9.249 -0.2169  1.0177  1.1311
20789SOL    HW267306   1.918   5.323   9.221 -0.9786 -0.9032 -1.9339
20790SOL     OW67307  10.513   3.454   3.213 -0.2872 -0.5773  0.0848
20790SOL    HW167308  10.603   3.427   3.197 -0.0369 -0.3301  1.0513
20790SOL    HW267309  10.521   3.535   3.263 -1.0442 -0.0386 -0.6355
20791SOL     OW67310  10.285   5.345   5.977  0.1599 -0.2473  0.1092
20791SOL    HW167311  10.198   5.385   5.975  0.1098 -0.3105  0.8223
20791SOL    HW267312  10.332   5.393   6.045  0.8212  0.0483 -0.5379
20792SOL     OW67313   6.930   8.668   9.724  0.0061 -0.1389  0.0693
20792SOL    HW167314   6.954   8.706   9.640  0.1538  1.3987  0.7796
20792SOL    HW267315   6.835   8.659   9.721  0.1184 -1.2591 -0.7137
20793SOL     OW67316  11.287   3.047   2.512  0.0041 -0.2732  0.5313
20793SOL    HW167317  11.285   3.106   2.588 -0.7282  1.4842 -0.7968
20793SOL    HW267318  11.196   3.020   2.501  0.0616 -0.2904  0.1014
20794SOL     OW67319   8.703   0.290  11.131 -0.5662 -0.4090  0.1742
20794SOL    HW167320   8.752   0.337  11.199  0.5726  1.5924 -1.8590
20794SOL    HW267321   8.631   0.349  11.109 -0.7846 -0.9225 -0.5072
20795SOL     OW67322   5.444   1.951   5.009  0.0737 -0.2462 -0.2302
20795SOL    HW167323   5.475   1.864   4.986 -1.0150 -0.1832 -2.0865
20795SOL    HW267324   5.385   1.937   5.083  1.3025 -0.8315  0.6802
20796SOL     OW67325   0.557  10.974   4.932 -0.1746  0.1538  0.2101
20796SOL    HW167326   0.512  10.937   5.008 -0.0256  0.6531  0.5448
20796SOL    HW267327   0.625  10.910   4.911 -0.3706 -0.1021  0.3455
20797SOL     OW67328   8.638   3.546   6.515 -0.0526 -0.3811  0.1531
20797SOL    HW167329   8.661   3.455   6.494 -0.3656 -1.1531  2.8206
20797SOL    HW267330   8.543   3.550   6.501 -0.1698 -0.7305  0.7833
20798SOL     OW67331   5.725  10.348   7.126  0.1018 -0.3156 -0.6825
20798SOL    HW167332   5.781  10.418   7.093  0.9084 -1.0050 -0.7903
20798SOL    HW267333   5.745  10.343   7.220 -0.9502  0.4960 -0.3918
20799SOL     OW67334  11.206   3.025   0.319 -0.1237 -0.1138 -0.4879
20799SOL    HW167335  11.151   2.995   0.392 -1.4604  1.8812 -0.6092
20799SOL    HW267336  11.276   3.075   0.361  0.6728 -1.2263 -0.4446
20800SOL     OW67337   1.071   6.046   3.732 -0.0903 -0.0082 -0.5345
20800SOL    HW167338   1.038   6.091   3.810  1.4776 -0.3971  0.3902
20800SOL    HW267339   1.040   5.956   3.742  0.4378 -0.1537 -0.1328
20801SOL     OW67340  10.028   2.917   3.051  0.3553 -0.2229 -0.1898
20801SOL    HW167341  10.078   2.993   3.022  1.5939 -0.5923  0.8793
20801SOL    HW267342   9.964   2.953   3.113  0.6917 -0.0003  0.0329
20802SOL     OW67343   7.348   7.588   5.769  0.1408  0.2337  0.0980
20802SOL    HW167344   7.343   7.643   5.691  0.8417  0.0093 -0.1126
20802SOL    HW267345   7.268   7.535   5.767 -0.9531  1.7984  0.7457
20803SOL     OW67346   0.285   1.098   0.762  0.5063  0.4202 -0.2218
20803SOL    HW167347   0.286   1.013   0.717  2.0852  0.4835 -0.3551
20803SOL    HW267348   0.200   1.101   0.805  0.4764 -1.3016 -0.0935
20804SOL     OW67349   8.208   9.860  11.473  0.0302 -0.0747 -0.1464
20804SOL    HW167350   8.263   9.783  11.487  0.1090  0.0282  0.1251
20804SOL    HW267351   8.136   9.850  11.535 -0.5618 -0.4807 -0.8767
20805SOL     OW67352   5.618   5.863   5.517 -0.2014 -0.2535 -0.3570
20805SOL    HW167353   5.567   5.842   5.439 -0.8098  1.1956 -0.3918
20805SOL    HW267354   5.621   5.781   5.567 -2.1202 -0.5372 -0.6268
20806SOL     OW67355   8.242   4.944   3.830 -0.4597  0.1714  0.5359
20806SOL    HW167356   8.194   4.862   3.817  0.9717 -0.7343  0.8128
20806SOL    HW267357   8.210   5.002   3.760 -1.6895 -0.4996  0.5031
20807SOL     OW67358   9.342   8.264   4.724 -0.0924 -0.0036  0.1275
20807SOL    HW167359   9.411   8.230   4.667 -2.0102  0.5060 -2.7311
20807SOL    HW267360   9.325   8.193   4.786  0.1068 -1.8879 -1.8511
20808SOL     OW67361   4.503   6.904   2.819 -0.4798 -0.2865 -0.2298
20808SOL    HW167362   4.557   6.964   2.870  1.0702 -0.1421 -1.9202
20808SOL    HW267363   4.418   6.948   2.811  1.1168  2.7807 -3.0084
20809SOL     OW67364   1.839   1.381   3.655  0.0271  0.3876  0.7023
20809SOL    HW167365   1.842   1.474   3.674  1.0984  0.5924 -0.3335
20809SOL    HW267366   1.875   1.373   3.566  3.0370 -1.2948  1.9012
20810SOL     OW67367   7.544   5.922   5.488 -0.3398  0.1505  0.1471
20810SOL    HW167368   7.560   5.951   5.398 -1.5981 -0.2878 -0.2498
20810SOL    HW267369   7.630   5.897   5.521  0.1094  0.0503 -1.0442
20811SOL     OW67370   1.971   3.565   6.271  0.4435 -0.2194  0.1352
20811SOL    HW167371   1.914   3.498   6.234  0.2597 -0.6220  1.1270
20811SOL    HW267372   1.911   3.630   6.309  0.6310  0.1567 -0.2016
20812SOL     OW67373   4.394   1.529   9.261  0.2025 -0.2743 -0.3483
20812SOL    HW167374   4.331   1.473   9.306 -0.2524 -0.5176 -1.2723
20812SOL    HW267375   4.373   1.520   9.169 -0.7596  2.4996 -0.4849
20813SOL     OW67376  10.216   7.089  11.490 -0.5600 -0.3066 -0.7161
20813SOL    HW167377  10.257   7.101  11.404 -0.1049 -1.3849 -0.6652
20813SOL    HW267378  10.256   7.156  11.545  0.5865 -0.8444 -0.8659
20814SOL     OW67379   2.083   9.487   8.154 -0.8954  0.2845 -0.7542
20814SOL    HW167380   2.062   9.444   8.071 -0.5205 -0.4909 -0.4589
20814SOL    HW267381   2.096   9.579   8.131 -0.0263 -0.0545 -1.6839
20815SOL     OW67382   9.540   7.270   6.111  0.3480 -0.3113 -0.5446
20815SOL    HW167383   9.562   7.180   6.132  2.1919 -0.0598 -1.2188
20815SOL    HW267384   9.603   7.323   6.159  0.0282  0.5657 -1.0569
20816SOL     OW67385   4.190   3.869   1.683  0.3680 -0.1933 -0.1251
20816SOL    HW167386   4.176   3.902   1.595 -1.2726 -1.1748 -0.2761
20816SOL    HW267387   4.275   3.905   1.709  0.1046  1.5104 -1.4305
20817SOL     OW67388   7.489   3.081   5.652 -0.2801 -0.2018  0.0677
20817SOL    HW167389   7.493   3.039   5.738  0.5856 -3.9628 -1.6321
20817SOL    HW267390   7.580   3.090   5.625 -0.5615  0.3500 -0.7379
20818SOL     OW67391   6.873   6.488   1.990  0.0170 -0.0416  0.8178
20818SOL    HW167392   6.806   6.445   2.043 -0.1378 -0.4996  0.2579
20818SOL    HW267393   6.823   6.533   1.921  0.3644 -2.7398 -1.3493
20819SOL     OW67394   1.720   7.481   2.043 -0.1561  0.0836  0.5374
20819SOL    HW167395   1.706   7.395   2.004 -1.1015 -0.1096  1.2592
20819SOL    HW267396   1.661   7.539   1.995  0.1291  0.2428  0.3734
20820SOL     OW67397   2.473   0.151   8.846  0.1024  0.3790 -0.3820
20820SOL    HW167398   2.391   0.105   8.824 -0.4225  1.6307 -1.1181
20820SOL    HW267399   2.539   0.108   8.793 -0.7972  1.9885 -2.9918
20821SOL     OW67400   8.110   9.324   2.083 -0.0191 -0.2881 -0.2852
20821SOL    HW167401   8.157   9.251   2.124  1.1859 -0.2360 -1.4763
20821SOL    HW267402   8.153   9.402   2.116 -0.5488 -0.1518  0.0955
20822SOL     OW67403   8.535   4.612   7.345  0.5618  0.0103  0.0538
20822SOL    HW167404   8.531   4.686   7.405  2.3868 -2.0952  3.0971
20822SOL    HW267405   8.613   4.628   7.292  0.2674  0.7915 -0.1563
20823SOL     OW67406  11.039   8.205   3.322  0.0020 -0.4225  0.5673
20823SOL    HW167407  11.053   8.228   3.413 -0.9199  0.2360  0.5543
20823SOL    HW267408  11.115   8.243   3.276  0.4867 -0.7877  1.0510
20824SOL     OW67409   2.557  10.853   1.183 -0.0790 -0.4607 -0.3972
20824SOL    HW167410   2.580  10.932   1.135 -1.3839 -0.0178 -0.3483
20824SOL    HW267411   2.559  10.879   1.275 -0.1770 -0.5722 -0.3631
20825SOL     OW67412   1.852   8.851   5.311 -0.1324  0.6731 -0.2420
20825SOL    HW167413   1.847   8.759   5.285 -0.1490  0.4276  0.6089
20825SOL    HW267414   1.946   8.869   5.317 -0.1353  0.4737  0.4128
20826SOL     OW67415   0.986   6.444  11.359  0.0146 -0.1933 -0.4228
20826SOL    HW167416   1.028   6.360  11.340 -0.9703 -0.6688 -0.5936
20826SOL    HW267417   1.057   6.501  11.387  1.0653 -0.4213 -2.4175
20827SOL     OW67418   0.205   5.649  11.659  0.4055 -0.2403 -0.0718
20827SOL    HW167419   0.269   5.709  11.620 -0.5855 -0.0995 -1.5647
20827SOL    HW267420   0.181   5.691  11.742 -0.4285  1.5903 -1.1654
20828SOL     OW67421   6.334   4.208   9.384  0.3325 -0.1042 -0.5387
20828SOL    HW167422   6.259   4.162   9.421 -0.1480 -1.3349 -2.8535
20828SOL    HW267423   6.328   4.297   9.420 -0.9706 -0.7637  0.9953
20829SOL     OW67424  11.415   6.436   2.928  0.2129  0.6572 -0.0438
20829SOL    HW167425  11.446   6.389   2.850  0.7674 -1.0859  1.1557
20829SOL    HW267426  11.355   6.502   2.894  0.7238  0.2022 -1.9728
20830SOL     OW67427   7.994   8.361   9.882  0.2651 -0.0802 -0.2594
20830SOL    HW167428   7.904   8.361   9.849  0.4031 -0.0813 -0.6440
20830SOL    HW267429   8.047   8.331   9.807  0.7368  1.1985 -0.4683
20831SOL     OW67430   8.596   0.339   5.051  0.1992  0.5927  0.6181
20831SOL    HW167431   8.522   0.383   5.010 -0.3986 -0.5456  0.4376
20831SOL    HW267432   8.659   0.326   4.980  1.6874  3.6341  1.1821
20832SOL     OW67433  11.480   1.277   4.069  0.1888 -0.3055  0.7800
20832SOL    HW167434  11.513   1.188   4.059 -0.9107 -0.6567  0.0397
20832SOL    HW267435  11.469   1.308   3.979 -0.7140  0.0788  1.0137
20833SOL     OW67436   5.809   3.470   7.177 -0.4083  0.2726 -0.0559
20833SOL    HW167437   5.777   3.457   7.088 -0.8513 -0.2796  0.1778
20833SOL    HW267438   5.898   3.435   7.174 -0.4924  0.0664 -0.2313
20834SOL     OW67439   7.941  10.028   6.449 -0.2939  0.5188  0.1203
20834SOL    HW167440   8.031  10.032   6.417 -0.0410 -0.1018  0.7266
20834SOL    HW267441   7.898  10.102   6.408  0.7954  1.5231  0.7214
20835SOL     OW67442   5.751   3.032  10.443 -0.1176 -0.1480  0.1521
20835SOL    HW167443   5.736   2.944  10.409  0.2059 -0.2439  0.2501
20835SOL    HW267444   5.673   3.082  10.418  0.4042 -0.0421 -1.3077
20836SOL     OW67445  10.325   6.760  10.766  0.3759  0.2196 -0.1915
20836SOL    HW167446  10.373   6.719  10.837  1.0630  0.9503 -0.2235
20836SOL    HW267447  10.233   6.738  10.784  0.6699 -0.8256  0.1021
20837SOL     OW67448   6.086   9.380   8.111  0.2079  0.6225  0.0501
20837SOL    HW167449   6.114   9.336   8.031 -0.1878  1.5425 -0.6205
20837SOL    HW267450   6.106   9.473   8.095  0.6427  0.7568  1.2453
20838SOL     OW67451   0.414   1.224   3.930 -0.0878  0.1319  0.2909
20838SOL    HW167452   0.433   1.272   4.010  0.3960 -1.3726  1.1082
20838SOL    HW267453   0.466   1.144   3.937  0.0618  0.0276 -1.5927
20839SOL     OW67454   9.020   6.644   8.810 -0.3693 -0.2079 -0.2328
20839SOL    HW167455   8.954   6.593   8.764 -0.6307  0.5334 -0.6982
20839SOL    HW267456   9.018   6.730   8.769 -1.4971  0.9037  1.9501
20840SOL     OW67457   4.211  10.804   7.005  0.5452  0.2085 -0.5391
20840SOL    HW167458   4.180  10.743   6.938 -1.5923 -0.4802  0.9524
20840SOL    HW267459   4.301  10.777   7.024 -0.3956 -2.7366  0.2523
20841SOL     OW67460   7.443  10.996   9.844 -0.0859 -0.0832 -0.0391
20841SOL    HW167461   7.467  10.935   9.774 -0.1932  1.7591 -1.7541
20841SOL    HW267462   7.452  10.944   9.924 -0.0813 -2.3185 -1.3876
20842SOL     OW67463   8.626   5.690   5.968  0.0081 -0.2040 -0.0841
20842SOL    HW167464   8.719   5.670   5.983  0.3648  0.8102 -0.8469
20842SOL    HW267465   8.588   5.692   6.056  0.6231 -1.0002  0.2162
20843SOL     OW67466  11.233   6.695   7.279  0.6493 -0.8797  0.6309
20843SOL    HW167467  11.178   6.634   7.328  1.1378 -1.7780  0.1044
20843SOL    HW267468  11.187   6.779   7.283 -0.0328 -1.2832  1.3849
20844SOL     OW67469   8.295   8.976  10.378  0.2592 -0.0063 -0.0132
20844SOL    HW167470   8.319   8.988  10.470  0.5172  1.7054 -0.2764
20844SOL    HW267471   8.325   9.056  10.334 -1.8355  0.2183 -1.1811
20845SOL     OW67472   6.988   8.681   6.917  0.9192  0.3009  0.3910
20845SOL    HW167473   6.938   8.762   6.924  0.4230  0.0137  0.1960
20845SOL    HW267474   6.973   8.636   7.000 -0.9021 -0.7728 -0.4488
20846SOL     OW67475   2.545  11.181   3.495  0.0244  0.4974  0.2586
20846SOL    HW167476   2.511  11.125   3.425 -0.1168 -0.4767  1.0882
20846SOL    HW267477   2.639  11.187   3.477  0.0314  0.0331  0.1370
20847SOL     OW67478   7.511   9.690   0.971 -0.2351  0.3356  0.5559
20847SOL    HW167479   7.511   9.729   0.883  0.8977  2.1977  1.3293
20847SOL    HW267480   7.603   9.671   0.989 -0.4331  0.1547  1.4194
20848SOL     OW67481   0.042   6.779   0.657 -0.0166  0.0275  0.0382
20848SOL    HW167482   0.024   6.761   0.565  0.2988  1.1801 -0.2574
20848SOL    HW267483  -0.003   6.862   0.675  0.4456  0.1344  0.7515
20849SOL     OW67484   1.354   4.618   3.510  0.5047  0.0375 -0.4704
20849SOL    HW167485   1.426   4.658   3.462  0.4376  0.6439 -0.0700
20849SOL    HW267486   1.276   4.642   3.460  0.2130  2.3487  0.9597
20850SOL     OW67487   5.465   8.088   9.577 -0.0062  0.0933 -0.0752
20850SOL    HW167488   5.447   8.055   9.489  1.0727 -0.4937 -0.0921
20850SOL    HW267489   5.446   8.182   9.571  1.8771  0.4363 -1.4749
20851SOL     OW67490   3.212   5.040   2.454 -0.7464 -0.7103  0.1166
20851SOL    HW167491   3.177   4.962   2.410 -2.2706 -0.2147  0.4030
20851SOL    HW267492   3.144   5.066   2.516  0.1425  0.3023  0.7041
20852SOL     OW67493   3.757  10.681   4.069 -0.1077 -0.0777  0.5542
20852SOL    HW167494   3.743  10.709   4.159 -0.6218 -0.9362  0.7472
20852SOL    HW267495   3.843  10.640   4.070  0.0476  0.2405  0.5659
20853SOL     OW67496  10.756   3.688  11.511  0.1342  0.3448  0.2225
20853SOL    HW167497  10.660   3.683  11.502  0.0028 -0.0123  1.6419
20853SOL    HW267498  10.788   3.682  11.421 -1.1360 -0.7849 -0.1968
20854SOL     OW67499   8.584   5.917   3.208 -0.4576  0.8731  0.0495
20854SOL    HW167500   8.533   5.960   3.276 -3.0271 -1.3556 -0.3077
20854SOL    HW267501   8.582   5.824   3.231  0.6702  0.3314 -1.7813
20855SOL     OW67502  11.460  11.008   7.300  0.5344 -0.0826  0.0041
20855SOL    HW167503  11.548  10.994   7.265  0.1878  0.7100 -1.2159
20855SOL    HW267504  11.421  10.920   7.301  2.0667 -0.8822  2.7820
20856SOL     OW67505  11.518   9.426   3.176 -0.3231  1.0664 -0.2429
20856SOL    HW167506  11.566   9.431   3.259  0.7076  1.9906 -0.8627
20856SOL    HW267507  11.479   9.339   3.176  2.5813 -0.3518 -0.3364
20857SOL     OW67508   5.283   3.466   4.477 -0.0050  0.4597 -0.0032
20857SOL    HW167509   5.279   3.546   4.424  0.5304  0.4474 -0.0661
20857SOL    HW267510   5.236   3.487   4.557  0.2282  0.8747  0.0258
20858SOL     OW67511   2.131   1.380   0.803  1.1713  0.5069 -0.5253
20858SOL    HW167512   2.133   1.387   0.898 -0.1315 -0.2283 -0.4072
20858SOL    HW267513   2.056   1.434   0.776 -1.0694 -2.4027 -0.6862
20859SOL     OW67514   5.095  11.605   0.946  0.2939 -0.2729  0.4542
20859SOL    HW167515   5.048  11.521   0.942 -0.7147  0.2993  0.0326
20859SOL    HW267516   5.026  11.671   0.940  0.9851  0.6085  1.8294
20860SOL     OW67517   3.065   5.232   0.612  0.0366  0.4580 -0.0972
20860SOL    HW167518   3.062   5.323   0.643 -0.4027  0.5400 -0.3570
20860SOL    HW267519   3.128   5.234   0.540  0.1245  0.5298 -0.0187
20861SOL     OW67520   3.248   3.666   5.348 -0.0238 -0.4018 -0.3125
20861SOL    HW167521   3.156   3.667   5.377  0.1243 -1.2144  0.2249
20861SOL    HW267522   3.249   3.722   5.271 -0.5458  1.4737  0.9557
20862SOL     OW67523  10.908   6.960   4.314  0.1076 -0.3962  0.2606
20862SOL    HW167524  10.918   6.966   4.219  0.4635  1.5810  0.3682
20862SOL    HW267525  10.861   6.878   4.329 -1.3297 -0.0110 -1.7436
20863SOL     OW67526   2.385   2.581   7.648  0.5932  0.4654  0.1061
20863SOL    HW167527   2.395   2.650   7.583  1.4831 -0.4618 -0.7813
20863SOL    HW267528   2.429   2.505   7.610  0.3679 -0.3623  1.4105
20864SOL     OW67529   7.589  10.628   5.149  0.4515  0.2517 -0.1838
20864SOL    HW167530   7.624  10.597   5.065  1.2061 -0.8931  0.5269
20864SOL    HW267531   7.649  10.593   5.214 -1.2564 -0.6174  0.9976
20865SOL     OW67532  10.224   9.171   1.147  0.1229 -0.0078 -0.0701
20865SOL    HW167533  10.163   9.238   1.177 -0.9178 -1.7942  2.1312
20865SOL    HW267534  10.209   9.164   1.053 -0.0244  2.4698 -0.3093
20866SOL     OW67535  11.531   9.473   4.050  0.4178 -0.1560 -0.1864
20866SOL    HW167536  11.483   9.549   4.017 -0.7558 -0.2433  1.2146
20866SOL    HW267537  11.592   9.451   3.979 -0.0192  1.3599 -1.0965
20867SOL     OW67538   6.440   6.790   5.910  0.3345 -0.4088 -0.4293
20867SOL    HW167539   6.394   6.728   5.854 -0.1471 -0.6399  0.2143
20867SOL    HW267540   6.506   6.830   5.852  0.3666 -1.2009 -0.9553
20868SOL     OW67541   7.025   2.861  11.682  0.2230  0.7116 -0.0637
20868SOL    HW167542   7.056   2.781  11.725  0.4990  1.1856  0.6287
20868SOL    HW267543   6.970   2.829  11.610  0.1829 -0.0973  0.3119
20869SOL     OW67544   8.014   3.399   0.106  0.1634  0.5684 -0.3395
20869SOL    HW167545   7.977   3.440   0.185  0.6489  2.6218 -1.1041
20869SOL    HW267546   8.012   3.305   0.125  0.2652  0.9748  2.1347
20870SOL     OW67547   7.260   8.453   5.241 -0.4494  0.3941 -0.1565
20870SOL    HW167548   7.233   8.535   5.200 -0.1857  0.8760  0.6145
20870SOL    HW267549   7.179   8.414   5.272 -0.4627  0.9193  0.4813
20871SOL     OW67550  10.283  10.731  11.538 -0.4517 -0.7613 -0.5503
20871SOL    HW167551  10.206  10.787  11.551 -1.5593 -2.4197  0.3863
20871SOL    HW267552  10.349  10.765  11.598 -0.0747  1.2362 -1.9923
20872SOL     OW67553   3.891  11.662   2.606  0.0030 -0.0553  0.5870
20872SOL    HW167554   3.911  11.660   2.700  4.2882 -1.2599 -0.1301
20872SOL    HW267555   3.909  11.573   2.575  2.7924  1.1926 -1.9057
20873SOL     OW67556   6.959   8.419   1.508  0.3318 -0.0339  0.0576
20873SOL    HW167557   6.927   8.439   1.420 -0.5967 -0.8833  0.1844
20873SOL    HW267558   6.971   8.324   1.508  0.6938  0.0068  0.7295
20874SOL     OW67559   2.463   6.915   0.495  0.2440 -0.7763 -0.1578
20874SOL    HW167560   2.538   6.855   0.502  1.7691  1.1647  1.8394
20874SOL    HW267561   2.445   6.940   0.585 -0.6457  1.3577 -0.8769
20875SOL     OW67562  11.312   0.287  11.365  0.0432  0.0689  0.5348
20875SOL    HW167563  11.366   0.211  11.385  0.6780  0.4909  0.4610
20875SOL    HW267564  11.341   0.314  11.278 -0.5889  0.0483  0.3115
20876SOL     OW67565   4.953   7.126   4.472 -0.4909 -0.2378 -1.0052
20876SOL    HW167566   4.979   7.184   4.544 -1.0087  0.5598 -1.4429
20876SOL    HW267567   4.857   7.121   4.479 -0.6046  0.3238 -1.9869
20877SOL     OW67568   8.838   1.774   0.047 -0.2371  0.2719 -0.1857
20877SOL    HW167569   8.874   1.844   0.101  0.3512  0.8137 -1.2573
20877SOL    HW267570   8.773   1.816  -0.008  0.3770  0.0589 -1.0960
20878SOL     OW67571   4.542  11.083   9.592  0.3932 -0.1434 -0.7849
20878SOL    HW167572   4.552  11.134   9.512 -1.4058  1.1245 -0.2416
20878SOL    HW267573   4.454  11.046   9.586  0.8139 -1.3290 -0.0819
20879SOL     OW67574   1.149   5.461   6.083 -0.0908 -0.4498  0.1300
20879SOL    HW167575   1.229   5.411   6.096  0.2142 -0.1422 -0.5435
20879SOL    HW267576   1.106   5.419   6.008 -0.1060 -0.0440 -0.0896
20880SOL     OW67577  11.102   1.519  10.886 -0.2093  0.1971  0.3567
20880SOL    HW167578  11.035   1.506  10.818 -2.1325 -0.2421  2.2415
20880SOL    HW267579  11.065   1.586  10.943  1.4483  0.6731  0.9038
20881SOL     OW67580   9.490   4.783   0.596  0.3659 -0.2559  0.1927
20881SOL    HW167581   9.462   4.733   0.519 -1.4925  1.2105 -0.1567
20881SOL    HW267582   9.438   4.748   0.668 -2.6248  2.4340 -0.4459
20882SOL     OW67583   3.552   8.827   2.122 -0.0820  0.0327  0.0735
20882SOL    HW167584   3.631   8.843   2.071 -1.5830  0.4482 -2.2522
20882SOL    HW267585   3.566   8.874   2.204  2.5012 -0.8292  0.2141
20883SOL     OW67586  11.363   1.687   1.965  0.1129  0.3180 -0.1085
20883SOL    HW167587  11.352   1.642   2.048 -2.4469  1.0494  0.0348
20883SOL    HW267588  11.370   1.780   1.989 -0.0955  0.4844 -0.6727
20884SOL     OW67589   4.072   2.430   7.152  0.2557  0.1443  0.4798
20884SOL    HW167590   4.099   2.478   7.230  1.3913  0.9900 -0.3979
20884SOL    HW267591   4.049   2.343   7.184 -0.9694  0.9736  1.9874
20885SOL     OW67592   9.159   5.142   7.990  0.0421 -0.6255  0.0622
20885SOL    HW167593   9.230   5.203   8.006 -0.8724  0.5960 -0.3735
20885SOL    HW267594   9.187   5.060   8.031  2.3923 -0.6563 -1.4557
20886SOL     OW67595  10.442   6.678   1.511  0.2106 -0.2192  0.3425
20886SOL    HW167596  10.527   6.674   1.468  0.0319  0.3216 -0.0744
20886SOL    HW267597  10.446   6.611   1.579  0.8736 -0.3716  0.1581
20887SOL     OW67598   1.110   9.772   6.141  0.0256  0.4634  0.5960
20887SOL    HW167599   1.015   9.766   6.147  0.0842  0.2499  1.4351
20887SOL    HW267600   1.128   9.862   6.115 -0.4031  0.5063  0.4487
20888SOL     OW67601   8.270   3.427   4.417  0.6406  0.6054  0.1598
20888SOL    HW167602   8.298   3.438   4.508  1.4954 -1.2793  0.1634
20888SOL    HW267603   8.177   3.407   4.423  0.5597  1.0900  0.5784
20889SOL     OW67604   5.621   8.764   0.914 -0.1055 -0.4464 -0.4555
20889SOL    HW167605   5.567   8.843   0.902  0.8158  0.6425  1.9171
20889SOL    HW267606   5.695   8.777   0.854  0.2946  0.8086  0.2590
20890SOL     OW67607   4.540   8.298   8.445  0.6406 -0.4779  0.1417
20890SOL    HW167608   4.454   8.256   8.449  0.6190 -0.3595  1.1703
20890SOL    HW267609   4.583   8.274   8.527  1.2022  0.2739  0.0800
20891SOL     OW67610  11.155   9.834   4.775  0.4562  0.0146 -0.9895
20891SOL    HW167611  11.203   9.769   4.723 -0.5878 -1.7978  0.1719
20891SOL    HW267612  11.096   9.781   4.828  1.0426  1.7992  1.5855
20892SOL     OW67613   9.738   9.987   0.984 -0.5673  0.7076 -0.8224
20892SOL    HW167614   9.731   9.959   0.892  2.3581  2.3141 -1.6543
20892SOL    HW267615   9.745  10.082   0.979  1.3739  0.7107  0.9129
20893SOL     OW67616   7.292   2.220   8.990 -0.0683  0.5449  0.3262
20893SOL    HW167617   7.279   2.299   8.938  1.4646  0.6539  0.0583
20893SOL    HW267618   7.374   2.236   9.038 -0.3365 -0.4194  1.1466
20894SOL     OW67619   0.746   4.719   4.283 -0.2151  0.0136 -0.2618
20894SOL    HW167620   0.789   4.750   4.204  2.1821  0.2889  1.0672
20894SOL    HW267621   0.739   4.624   4.271  1.8048 -0.1963 -0.0965
20895SOL     OW67622   3.447  10.090   2.907 -0.2157 -0.7687 -0.0757
20895SOL    HW167623   3.368  10.133   2.940  0.5612 -0.4217  1.4394
20895SOL    HW267624   3.467  10.022   2.972  0.7082 -0.8741 -0.4483
20896SOL     OW67625  10.330   6.155  10.866  0.3164 -0.7199  0.6973
20896SOL    HW167626  10.301   6.109  10.787  1.9465  0.0623 -0.3981
20896SOL    HW267627  10.424   6.164  10.856  0.3409  0.8756  1.9352
20897SOL     OW67628   0.940   7.941   7.135  0.3680  0.4180 -0.3159
20897SOL    HW167629   0.968   7.962   7.046  0.4764  0.1317 -0.3491
20897SOL    HW267630   0.958   8.021   7.185  2.4593 -0.1390 -0.0618
20898SOL     OW67631   6.516   5.049   0.254  0.2155 -0.2421  0.2328
20898SOL    HW167632   6.566   5.017   0.329  2.1815  1.8704 -0.0418
20898SOL    HW267633   6.434   5.081   0.292  0.3978 -0.8884  1.2100
20899SOL     OW67634  10.322  11.089   1.735  0.3787  0.0616 -0.2246
20899SOL    HW167635  10.268  11.012   1.720  1.7856 -1.3164  1.2908
20899SOL    HW267636  10.385  11.089   1.662  1.1585 -0.9822  0.4287
20900SOL     OW67637   9.284   1.801  10.936  0.2298 -0.2893 -0.5397
20900SOL    HW167638   9.197   1.776  10.904 -1.2437  0.5986  2.4044
20900SOL    HW267639   9.322   1.720  10.969 -0.8342 -0.2257  0.9455
20901SOL     OW67640   7.596   3.493   6.005  0.4589  0.1407 -0.1075
20901SOL    HW167641   7.525   3.557   6.005  1.3729  1.1822  0.0781
20901SOL    HW267642   7.559   3.416   5.962 -0.9988  0.4071  0.6141
20902SOL     OW67643   3.467   9.875  10.489  0.1609  0.2477 -0.2199
20902SOL    HW167644   3.412   9.920  10.553  0.1349  0.0410 -0.0946
20902SOL    HW267645   3.540   9.934  10.473  0.9947 -0.3504  1.1718
20903SOL     OW67646  11.238   4.269   9.331  0.2054  0.1677  0.2572
20903SOL    HW167647  11.184   4.322   9.272 -1.6361 -1.2298  0.5986
20903SOL    HW267648  11.223   4.306   9.418  0.8421  0.5890  0.1915
20904SOL     OW67649   2.370   4.954   7.884 -0.1198  0.5991  0.4182
20904SOL    HW167650   2.452   4.934   7.930  0.0020 -0.6931 -0.3047
20904SOL    HW267651   2.305   4.898   7.926 -0.1996  0.1063 -0.3498
20905SOL     OW67652   4.615   5.947   1.336  0.1314  0.0342 -0.0202
20905SOL    HW167653   4.673   6.018   1.364 -0.6963  0.8103 -0.2056
20905SOL    HW267654   4.644   5.926   1.248  2.6209 -2.2781  1.1928
20906SOL     OW67655   2.521   5.678   1.134  0.1778 -0.5533  0.3310
20906SOL    HW167656   2.541   5.587   1.110  1.0656 -0.5597  1.0079
20906SOL    HW267657   2.575   5.730   1.075  0.5856 -0.5067  0.7394
20907SOL     OW67658  11.277   2.717   7.346  0.1490  0.0011 -0.2128
20907SOL    HW167659  11.365   2.748   7.368  0.3921 -0.0615 -1.0590
20907SOL    HW267660  11.254   2.766   7.267 -1.1072  0.9666  0.7081
20908SOL     OW67661   3.685  11.043  10.246 -0.2212  0.3703 -0.5868
20908SOL    HW167662   3.728  11.110  10.194  2.4426  0.1910  1.1500
20908SOL    HW267663   3.667  10.972  10.185  0.4598  1.1473 -1.7192
20909SOL     OW67664  11.379   3.408   5.793  0.9325 -0.4567 -0.2276
20909SOL    HW167665  11.367   3.399   5.698  0.0809  1.8284 -0.3950
20909SOL    HW267666  11.308   3.465   5.821  1.3010 -0.9072  1.7779
20910SOL     OW67667   0.750   3.719   4.359 -0.4094  0.2393 -0.0822
20910SOL    HW167668   0.734   3.779   4.286 -1.2076 -0.1741 -0.2521
20910SOL    HW267669   0.745   3.632   4.321  0.6968  0.0515  0.1776
20911SOL     OW67670   7.636  10.994   8.963 -0.2340  0.1479 -0.5343
20911SOL    HW167671   7.574  11.066   8.956  0.8393  1.1194 -0.3290
20911SOL    HW267672   7.719  11.036   8.986  1.4681 -0.6602 -4.4073
20912SOL     OW67673  11.630   2.738   9.839 -0.3815 -0.1023  0.0987
20912SOL    HW167674  11.629   2.773   9.750 -0.8110 -0.3171  0.0192
20912SOL    HW267675  11.679   2.656   9.833 -0.4754 -0.1542  0.0467
20913SOL     OW67676   7.755   5.617   7.808 -0.1995 -0.9502  0.3378
20913SOL    HW167677   7.704   5.578   7.879 -1.7038 -1.1861 -0.8130
20913SOL    HW267678   7.717   5.581   7.728  0.0221  0.9039 -0.6808
20914SOL     OW67679   4.980   1.312   3.133 -0.4961 -0.5529 -0.0741
20914SOL    HW167680   4.970   1.324   3.039 -0.7622  0.2745  0.0596
20914SOL    HW267681   5.065   1.268   3.142  1.1790  2.3701 -0.5170
20915SOL     OW67682   0.119  10.109  11.030  0.0512  0.4438 -0.0329
20915SOL    HW167683   0.039  10.079  10.985  0.8056 -1.3551 -0.2552
20915SOL    HW267684   0.190  10.076  10.976  0.9733  0.9833  0.8294
20916SOL     OW67685   9.026   8.904   6.695  0.4610 -0.3584  0.3186
20916SOL    HW167686   9.020   8.975   6.759  0.9445 -0.9144  0.9956
20916SOL    HW267687   9.046   8.826   6.747 -0.8550 -1.1552 -0.3093
20917SOL     OW67688   3.793  10.090   4.985  0.4986 -0.2677  0.2160
20917SOL    HW167689   3.785  10.169   4.931 -1.2775 -1.3635 -1.2106
20917SOL    HW267690   3.755  10.115   5.069  0.6620  0.6191  0.0366
20918SOL     OW67691   0.191   3.433   2.296 -0.4081 -0.1788  0.0591
20918SOL    HW167692   0.237   3.368   2.349 -0.4609  0.6470  1.1545
20918SOL    HW267693   0.260   3.477   2.246 -0.2575 -0.4085  0.0634
20919SOL     OW67694   4.847   4.072   6.543 -0.3602 -0.0693 -0.1210
20919SOL    HW167695   4.864   4.068   6.449 -0.5199  1.1772 -0.2146
20919SOL    HW267696   4.877   3.987   6.576 -1.9623 -1.2619 -1.5477
20920SOL     OW67697   4.669   9.341   5.594  0.0845  0.1825  0.3958
20920SOL    HW167698   4.615   9.302   5.525  0.9904 -0.7554  0.2001
20920SOL    HW267699   4.686   9.430   5.563  0.1908 -0.1128 -0.4221
20921SOL     OW67700  11.322  11.007   6.265  0.0712 -0.0225 -0.5046
20921SOL    HW167701  11.378  10.950   6.213  0.2822  1.6716 -2.2195
20921SOL    HW267702  11.247  11.025   6.209 -0.6159  0.3739  0.5075
20922SOL     OW67703   5.198   0.427   8.677 -0.1355 -0.2678 -0.6068
20922SOL    HW167704   5.128   0.383   8.628 -0.5739 -0.6521  0.3331
20922SOL    HW267705   5.154   0.502   8.717  0.1508 -0.1273 -0.5579
20923SOL     OW67706   2.082   5.033   6.226 -0.2480 -0.3944 -0.2200
20923SOL    HW167707   2.046   5.112   6.186  0.8733 -0.2155 -0.9173
20923SOL    HW267708   2.083   4.968   6.155  0.5105 -0.4820 -0.1403
20924SOL     OW67709  10.249  10.113  10.864 -0.3526  0.2483 -0.5333
20924SOL    HW167710  10.176  10.110  10.925  1.3469  2.4548  1.8341
20924SOL    HW267711  10.292  10.196  10.883  2.8643 -1.0117 -1.6652
20925SOL     OW67712   4.818   9.203   4.059 -0.3007 -0.5287 -0.2077
20925SOL    HW167713   4.785   9.134   4.117 -1.1315  0.4286  0.4885
20925SOL    HW267714   4.910   9.211   4.082 -0.3196 -1.0504  0.0738
20926SOL     OW67715   6.432   9.387   7.380 -0.0935 -0.3404  0.2210
20926SOL    HW167716   6.431   9.460   7.318 -1.3381 -1.7777 -1.5433
20926SOL    HW267717   6.355   9.402   7.434 -0.2611 -0.2653 -0.0353
20927SOL     OW67718   1.318   5.908   8.940 -0.1355 -0.4082  0.2962
20927SOL    HW167719   1.405   5.883   8.910  0.4847  0.0590  1.6129
20927SOL    HW267720   1.318   5.886   9.033 -0.9125  0.8892  0.6316
20928SOL     OW67721   2.340   7.519   0.564 -0.3180 -0.4056 -0.4650
20928SOL    HW167722   2.435   7.520   0.576 -0.2068 -1.2793 -1.1955
20928SOL    HW267723   2.327   7.489   0.474 -1.2388  1.9856 -1.2187
20929SOL     OW67724  10.090   3.546   3.139 -0.2003 -0.4306 -0.1939
20929SOL    HW167725  10.088   3.494   3.219  0.7899  0.2945  0.3121
20929SOL    HW267726  10.168   3.517   3.092 -0.3529 -0.3038 -0.5359
20930SOL     OW67727   2.879  10.888   4.801  0.4833  0.2011 -0.0548
20930SOL    HW167728   2.882  10.962   4.740  0.3422  1.4820  1.4299
20930SOL    HW267729   2.967  10.850   4.796  1.3570  1.9788  0.8983
20931SOL     OW67730   7.645   4.504   3.226  0.8011 -0.5123 -0.6001
20931SOL    HW167731   7.715   4.557   3.264  1.0038  0.8082 -2.7030
20931SOL    HW267732   7.657   4.511   3.132  0.2867 -3.6301 -1.0037
20932SOL     OW67733  11.435   6.921   3.332 -0.3185  0.4277 -0.3257
20932SOL    HW167734  11.391   6.981   3.392  0.8398  1.2569 -0.2778
20932SOL    HW267735  11.466   6.849   3.387 -0.9045  0.2302 -0.2433
20933SOL     OW67736   7.409   0.347  11.470 -0.1296 -0.3992 -0.1208
20933SOL    HW167737   7.427   0.337  11.564  0.5285  0.1368 -0.1797
20933SOL    HW267738   7.395   0.258  11.438  1.4785 -0.7754  0.1346
20934SOL     OW67739   5.951   7.665   4.290 -0.3773  0.6261  0.5461
20934SOL    HW167740   5.902   7.735   4.333 -0.0307  1.2425 -0.0344
20934SOL    HW267741   5.894   7.638   4.217 -0.3785  0.5140  0.5883
20935SOL     OW67742  10.483   9.388   9.991 -0.1584 -0.6768  0.1511
20935SOL    HW167743  10.451   9.311  10.039  0.0497  0.4727  2.2352
20935SOL    HW267744  10.577   9.391  10.011 -0.2433  0.3501  0.4370
20936SOL     OW67745   6.913  10.514   2.678 -0.1646 -0.0519 -0.2594
20936SOL    HW167746   6.827  10.477   2.698 -0.3256  1.2750  1.7628
20936SOL    HW267747   6.975  10.446   2.703 -0.5687 -0.4577 -0.3458
20937SOL     OW67748   3.421   9.482   3.267 -0.0135 -0.2934  0.7982
20937SOL    HW167749   3.357   9.543   3.229  0.6868  0.0351  0.1316
20937SOL    HW267750   3.374   9.398   3.270 -0.3937 -0.1186  0.0706
20938SOL     OW67751   7.007   7.515   0.866 -0.6387 -0.4510  0.3540
20938SOL    HW167752   6.930   7.517   0.811 -0.0168 -0.4216 -0.5313
20938SOL    HW267753   7.057   7.593   0.841 -1.4607  0.9068  2.6325
20939SOL     OW67754   1.292   3.172   7.799  0.4678  0.1149  0.0250
20939SOL    HW167755   1.270   3.150   7.709  1.1901 -0.7151  0.0332
20939SOL    HW267756   1.290   3.088   7.845 -0.7822  0.6469  0.9843
20940SOL     OW67757   5.912   2.551   2.248 -0.1801  0.3315  0.2662
20940SOL    HW167758   5.849   2.616   2.279  1.0061  1.8202 -0.3064
20940SOL    HW267759   5.906   2.555   2.153 -1.6937 -2.0799  0.1877
20941SOL     OW67760  10.042   6.752   8.549  0.5693  0.2108 -0.4392
20941SOL    HW167761  10.101   6.683   8.519  2.5530  1.6145 -0.0173
20941SOL    HW267762  10.031   6.734   8.643  0.2571 -0.1020 -0.5355
20942SOL     OW67763   0.382   9.951   2.662 -0.2719  0.2551  0.1656
20942SOL    HW167764   0.300   9.969   2.707 -0.2506 -0.3672  0.4593
20942SOL    HW267765   0.363   9.876   2.605 -0.5821  1.6621 -1.6564
20943SOL     OW67766   4.568  11.078   4.052  0.1126 -0.1414 -0.2010
20943SOL    HW167767   4.662  11.072   4.033 -0.1203 -1.4113 -1.1331
20943SOL    HW267768   4.553  11.169   4.077  1.7368 -0.1131  0.8134
20944SOL     OW67769   4.775   6.142   4.586  0.6814  0.1407  0.0122
20944SOL    HW167770   4.868   6.136   4.609  1.2192  1.0042 -1.7771
20944SOL    HW267771   4.747   6.052   4.574  2.0643 -0.0637 -2.1845
20945SOL     OW67772   3.441   5.998   6.212  0.6592  0.1022  0.3033
20945SOL    HW167773   3.371   6.058   6.186  3.6721  3.7206 -0.3716
20945SOL    HW267774   3.450   6.011   6.307  0.4507 -0.3289  0.3831
20946SOL     OW67775  10.638   6.913   2.238  0.1004  0.3095  0.4846
20946SOL    HW167776  10.708   6.890   2.176 -2.5697 -1.3675 -2.2111
20946SOL    HW267777  10.598   6.829   2.261 -1.0891  1.2167  1.8688
20947SOL     OW67778   9.211   4.665   8.177  0.0847 -0.0290  0.3846
20947SOL    HW167779   9.208   4.570   8.185  0.7050 -0.0702  0.2109
20947SOL    HW267780   9.276   4.693   8.242  1.6889  0.0404 -1.1465
20948SOL     OW67781   2.026   7.107   9.753 -0.2597 -0.0237 -0.3308
20948SOL    HW167782   1.948   7.081   9.703 -1.4764  1.0013  0.9351
20948SOL    HW267783   2.057   7.026   9.792 -1.0011 -0.3794 -0.4538
20949SOL     OW67784   9.746  10.435  11.070  0.3461  0.0024  0.1611
20949SOL    HW167785   9.791  10.474  10.994 -0.8186  2.2263  0.5312
20949SOL    HW267786   9.813  10.434  11.138  0.6517  0.5672 -0.1195
20950SOL     OW67787  11.053   7.394   6.573 -0.2355 -0.0259 -0.1009
20950SOL    HW167788  11.102   7.409   6.492  1.5224  1.4237  1.1542
20950SOL    HW267789  11.120   7.387   6.641 -1.6631 -1.2433  1.2660
20951SOL     OW67790  11.669  11.620   1.520 -0.3387  0.5704  0.0840
20951SOL    HW167791  11.663  11.714   1.505  0.9639  0.8500  1.1259
20951SOL    HW267792  11.731  11.589   1.455 -0.4769  0.4845 -0.0093
20952SOL     OW67793   7.149   3.851   7.617  0.3751 -0.1039  0.0678
20952SOL    HW167794   7.148   3.814   7.705 -0.1382 -0.2511  0.0055
20952SOL    HW267795   7.172   3.943   7.630 -0.1720 -0.0061  0.4141
20953SOL     OW67796   0.933   1.518   1.474 -0.7398 -0.0640  0.0122
20953SOL    HW167797   0.880   1.588   1.436 -0.0679  1.1769  1.2688
20953SOL    HW267798   0.993   1.492   1.403 -1.7333 -0.1704 -0.8128
20954SOL     OW67799   2.593  11.236  10.534 -1.0691 -0.5441 -0.6555
20954SOL    HW167800   2.566  11.144  10.536  1.2097 -1.2980 -1.4183
20954SOL    HW267801   2.626  11.253  10.623 -1.3241 -0.5192 -0.5654
20955SOL     OW67802  11.672   7.672   9.860  0.5050  0.5430  0.1259
20955SOL    HW167803  11.745   7.697   9.803  0.2276  1.9829  0.3710
20955SOL    HW267804  11.604   7.736   9.840 -0.2663 -0.0784  0.7466
20956SOL     OW67805   8.923   5.021   9.696  0.3140 -0.4623  0.3225
20956SOL    HW167806   8.849   4.966   9.723 -0.8413  0.7207 -0.3294
20956SOL    HW267807   8.961   4.974   9.621 -1.7206  0.3632 -1.3466
20957SOL     OW67808   1.295   5.265   3.694  0.4128 -0.6248  0.2393
20957SOL    HW167809   1.285   5.352   3.654 -0.8331 -0.3942  0.9975
20957SOL    HW267810   1.337   5.213   3.626 -0.5004  0.0950 -0.9350
20958SOL     OW67811   9.198   1.724   2.311  0.1026  0.2507  0.2620
20958SOL    HW167812   9.287   1.688   2.307 -0.2037 -0.9378  2.3606
20958SOL    HW267813   9.209   1.812   2.347  0.6208  1.3006 -2.2694
20959SOL     OW67814   8.855   3.754   9.157 -0.3537 -0.1861  0.2024
20959SOL    HW167815   8.799   3.831   9.157  0.8469  0.7428  1.7680
20959SOL    HW267816   8.836   3.709   9.239 -0.3661 -1.0736 -0.2644
20960SOL     OW67817   0.140   6.650   1.480  0.2108  0.3009 -0.8836
20960SOL    HW167818   0.118   6.560   1.452 -0.9465  0.2279  0.1696
20960SOL    HW267819   0.205   6.679   1.416  0.6520 -1.3043 -1.2259
20961SOL     OW67820   4.062   4.499   2.522 -0.4178  0.0322  0.4131
20961SOL    HW167821   4.128   4.463   2.464 -0.7985  0.1181 -0.0840
20961SOL    HW267822   4.095   4.586   2.546 -1.1775  0.8506 -1.3087
20962SOL     OW67823   9.672   5.612   2.019 -0.3214 -0.2210 -0.4329
20962SOL    HW167824   9.708   5.628   1.932  1.1681  1.4032  0.4125
20962SOL    HW267825   9.578   5.602   2.006 -0.0039 -1.1096 -2.3285
20963SOL     OW67826   0.462   2.647   7.315  0.0915  0.0914 -0.3244
20963SOL    HW167827   0.377   2.606   7.305  0.3484 -0.2959 -0.9695
20963SOL    HW267828   0.445   2.741   7.309 -0.5143  0.1103  1.2454
20964SOL     OW67829   6.585   9.183  11.582  0.6140  0.2610  0.0842
20964SOL    HW167830   6.642   9.221  11.649  0.1120  1.3553 -0.0897
20964SOL    HW267831   6.644   9.165  11.508  0.6195  2.1795 -0.4154
20965SOL     OW67832   4.262   9.769   3.596 -0.1211  0.2992 -0.4829
20965SOL    HW167833   4.334   9.832   3.599 -1.1798  1.5446  1.1536
20965SOL    HW267834   4.296   9.691   3.639  0.9365  0.0623 -1.7238
20966SOL     OW67835   8.046   6.064   9.225  0.1680 -0.1067 -0.2391
20966SOL    HW167836   7.997   6.140   9.257  0.3327 -0.4949  1.0102
20966SOL    HW267837   8.001   6.039   9.144  0.3244  1.5094 -0.8541
20967SOL     OW67838   3.533   7.335   1.448 -0.0739  0.5273  0.1289
20967SOL    HW167839   3.591   7.396   1.402  1.0176  0.0010  0.7523
20967SOL    HW267840   3.563   7.249   1.422 -1.4536  0.2181 -0.5518
20968SOL     OW67841   7.142  11.177   2.206 -0.4253 -0.0758 -0.4700
20968SOL    HW167842   7.229  11.204   2.237 -0.4564  0.8201 -1.1372
20968SOL    HW267843   7.086  11.183   2.284  0.1489 -0.8966  0.0217
20969SOL     OW67844   3.289   6.828   0.618  0.0629 -0.0249 -0.3365
20969SOL    HW167845   3.304   6.749   0.670 -0.7654  0.6182  0.9451
20969SOL    HW267846   3.231   6.800   0.548  1.1599 -0.9038 -0.9186
20970SOL     OW67847   0.996  11.432   2.710 -0.0058  0.4416 -0.1249
20970SOL    HW167848   1.043  11.355   2.678 -1.2961 -0.5506  0.2789
20970SOL    HW267849   0.955  11.403   2.791 -1.9281  1.0132 -0.8451
20971SOL     OW67850   5.311   7.427   3.257  0.3933 -0.5847  0.1780
20971SOL    HW167851   5.388   7.467   3.299  1.2172  0.3274 -2.0296
20971SOL    HW267852   5.237   7.455   3.311  1.4283  0.1366  1.2720
20972SOL     OW67853   4.391   8.148   9.608  0.5322  0.0988  0.1052
20972SOL    HW167854   4.473   8.104   9.585 -1.2043 -1.9581 -2.7445
20972SOL    HW267855   4.372   8.205   9.534 -0.9078  0.0275  0.3842
20973SOL     OW67856  11.677   4.252   1.735  0.1005 -0.0772  0.6088
20973SOL    HW167857  11.701   4.342   1.757 -0.1829  0.3687 -0.8161
20973SOL    HW267858  11.585   4.256   1.711  0.2458 -0.6368 -0.0633
20974SOL     OW67859   1.106  10.977   9.915  0.0301 -0.1423  0.3618
20974SOL    HW167860   1.020  10.952   9.879 -0.7591  1.1511  1.2636
20974SOL    HW267861   1.091  11.062   9.956  1.8322  0.2428  0.2987
20975SOL     OW67862   8.869   4.417   3.377 -0.1223  0.3866 -0.1217
20975SOL    HW167863   8.934   4.463   3.323 -1.2982  2.2984 -0.0278
20975SOL    HW267864   8.897   4.433   3.467  0.3607 -0.5156 -0.1007
20976SOL     OW67865   9.356   0.712   5.407  0.1212  0.1463 -0.1997
20976SOL    HW167866   9.409   0.636   5.430 -0.3179 -0.4727 -1.1510
20976SOL    HW267867   9.272   0.696   5.448 -0.6802 -0.9854 -2.1221
20977SOL     OW67868   4.224  11.141   3.430  0.2121  0.6732 -0.4121
20977SOL    HW167869   4.167  11.078   3.385  0.8525 -0.6491  0.5624
20977SOL    HW267870   4.179  11.225   3.421 -0.0732  0.3431 -2.8227
20978SOL     OW67871  10.456   9.253   9.754 -0.3731 -0.3464  0.3622
20978SOL    HW167872  10.362   9.237   9.762 -0.9391  1.9880 -0.8574
20978SOL    HW267873  10.479   9.305   9.831 -0.9236  2.2486 -1.1416
20979SOL     OW67874   7.278   2.263   5.970 -0.9319 -0.0609 -0.1084
20979SOL    HW167875   7.362   2.302   5.948 -0.6769 -0.7664 -0.4296
20979SOL    HW267876   7.242   2.234   5.886 -0.5668 -1.5666  0.2267
20980SOL     OW67877   9.455   3.553  11.533  0.9335 -0.1316  0.4220
20980SOL    HW167878   9.540   3.587  11.506  1.0571  0.6941  1.7176
20980SOL    HW267879   9.392   3.619  11.503  1.0146  0.4822  1.5259
20981SOL     OW67880   0.908   9.065   7.983 -0.3091  0.4519  0.4121
20981SOL    HW167881   0.928   8.987   8.035  0.6205  0.3135 -0.1366
20981SOL    HW267882   0.917   9.036   7.892  4.4226  2.1423  0.0604
20982SOL     OW67883   2.029   8.947  10.199 -0.2398 -0.1474  0.2031
20982SOL    HW167884   2.059   8.992  10.278  1.1749 -1.0002  0.2095
20982SOL    HW267885   1.952   8.995  10.170 -0.0604  0.9114  1.4197
20983SOL     OW67886   9.767   1.030   1.247 -0.2688 -0.1954  0.3071
20983SOL    HW167887   9.774   1.071   1.333 -2.0332  0.1423  0.3352
20983SOL    HW267888   9.842   1.062   1.198  1.8461 -1.8181  2.2523
20984SOL     OW67889   4.947   1.175   0.300 -0.1850 -0.2849 -0.5883
20984SOL    HW167890   5.010   1.247   0.298 -1.0060  0.6486  2.2817
20984SOL    HW267891   4.984   1.112   0.361 -1.9333  0.2831  1.1617
20985SOL     OW67892   9.412   9.310  11.379  0.1917  0.0118 -0.9039
20985SOL    HW167893   9.340   9.358  11.339 -1.0605 -0.7293  0.3657
20985SOL    HW267894   9.408   9.334  11.472  2.0553  0.5196 -0.9080
20986SOL     OW67895   2.458   0.806  11.430 -0.1682 -0.1853  0.1091
20986SOL    HW167896   2.447   0.728  11.484  1.5422 -1.0905 -0.7802
20986SOL    HW267897   2.546   0.798  11.395  0.0930  2.2162  0.0772
20987SOL     OW67898  11.097   2.724   0.572 -0.4198  0.1863  0.7759
20987SOL    HW167899  11.186   2.744   0.541 -0.1160 -0.2602  1.3445
20987SOL    HW267900  11.070   2.650   0.519 -1.2284  1.5228 -0.7609
20988SOL     OW67901   6.751   4.637   3.373 -0.4476  0.1998 -0.2795
20988SOL    HW167902   6.744   4.719   3.324 -0.6402 -0.0173 -0.6169
20988SOL    HW267903   6.816   4.586   3.324  0.3545  0.5092  0.4387
20989SOL     OW67904   2.574   8.069   1.222  0.8438 -0.2488  0.0810
20989SOL    HW167905   2.573   8.105   1.134 -1.0379 -2.4205 -0.8679
20989SOL    HW267906   2.660   8.027   1.230  0.7231 -0.7517 -1.0689
20990SOL     OW67907   6.139   6.113   5.595  0.3587 -0.1099  0.5579
20990SOL    HW167908   6.190   6.138   5.673  0.8952 -2.1874  0.9262
20990SOL    HW267909   6.142   6.191   5.539  1.8445  0.6837  1.6552
20991SOL     OW67910   3.623   2.234   1.837  0.3543  0.0387  0.3589
20991SOL    HW167911   3.665   2.192   1.913 -1.2599 -1.5505  0.4422
20991SOL    HW267912   3.577   2.309   1.874 -0.1038 -0.4999  0.9037
20992SOL     OW67913   7.631   9.376   8.659  0.4860  0.0353 -0.1009
20992SOL    HW167914   7.579   9.327   8.596 -0.2897 -0.7523  1.1051
20992SOL    HW267915   7.684   9.310   8.703 -1.5491 -0.0481  2.4937
20993SOL     OW67916   8.695   6.194   0.445  0.1669  0.2565 -0.5931
20993SOL    HW167917   8.751   6.188   0.367 -1.3433  0.5096 -1.7550
20993SOL    HW267918   8.636   6.268   0.427  0.0815  0.6183  1.0150
20994SOL     OW67919   0.648   5.713   4.527  0.2808 -0.2723  0.1344
20994SOL    HW167920   0.715   5.653   4.495  2.8764  2.1029  0.6565
20994SOL    HW267921   0.658   5.711   4.622  0.0960  0.6429  0.1794
20995SOL     OW67922   9.739   4.535   2.889 -0.8613  0.1321 -0.1096
20995SOL    HW167923   9.772   4.499   2.971  0.6015 -0.9099 -1.1176
20995SOL    HW267924   9.650   4.564   2.910 -0.8330 -0.9128  1.6144
20996SOL     OW67925   3.715   2.481   2.479 -0.0266  0.5157 -0.0994
20996SOL    HW167926   3.631   2.444   2.507  0.6793 -0.6033  0.5802
20996SOL    HW267927   3.694   2.572   2.457 -1.6895 -0.0805 -1.2377
20997SOL     OW67928  10.560   6.363   7.210 -0.3817 -0.0809  0.0538
20997SOL    HW167929  10.637   6.420   7.207 -0.1824 -0.2167  1.6575
20997SOL    HW267930  10.585   6.293   7.269 -1.6304 -0.3074  0.3279
20998SOL     OW67931  11.088   4.642  10.574 -0.1637 -0.2109  0.2093
20998SOL    HW167932  11.012   4.653  10.517  1.7721 -0.6441 -2.6730
20998SOL    HW267933  11.121   4.731  10.588 -2.3043  0.2509  3.3610
20999SOL     OW67934  11.437   0.366   8.609 -0.0029 -0.1826 -0.7826
20999SOL    HW167935  11.493   0.376   8.533 -3.6731  2.4377 -3.4780
20999SOL    HW267936  11.415   0.456   8.635 -0.5561 -1.0458  2.0943
21000SOL     OW67937   1.675   7.259  10.257 -0.0583  0.3404  0.6920
21000SOL    HW167938   1.698   7.299  10.341  0.6805  2.1030 -0.2878
21000SOL    HW267939   1.657   7.168  10.278  0.5710  0.6233  2.6847
21001SOL     OW67940   0.214  11.550   6.670 -0.1525  0.8103 -0.6381
21001SOL    HW167941   0.178  11.463   6.687  1.6848  0.0848 -0.2114
21001SOL    HW267942   0.207  11.562   6.576  0.0915 -0.0601 -0.7763
21002SOL     OW67943   1.764  11.479   5.566 -0.0496 -0.0431 -0.0807
21002SOL    HW167944   1.741  11.505   5.656 -1.1410 -0.5629 -0.1921
21002SOL    HW267945   1.790  11.387   5.574  0.7984  0.1831 -0.1580
21003SOL     OW67946   4.309   6.164  10.415 -0.0289 -0.4345 -0.0947
21003SOL    HW167947   4.295   6.244  10.365  0.0064 -1.4187 -1.7475
21003SOL    HW267948   4.403   6.164  10.435 -0.3143  0.7453  1.4240
21004SOL     OW67949  11.405   8.627   8.562 -0.0814 -0.1541  0.0247
21004SOL    HW167950  11.455   8.703   8.592 -1.6272  1.6100 -1.5920
21004SOL    HW267951  11.324   8.664   8.526 -0.3355 -2.4167 -2.0124
21005SOL     OW67952   6.457   5.808   5.466 -0.3027 -0.2023  0.3644
21005SOL    HW167953   6.455   5.866   5.543  1.8270 -1.3344  1.3728
21005SOL    HW267954   6.427   5.863   5.394 -1.1250  1.2890  1.7669
21006SOL     OW67955  10.786   1.282   1.026 -0.0695  0.1786  0.2703
21006SOL    HW167956  10.781   1.253   1.117 -2.3117 -0.8682 -0.1113
21006SOL    HW267957  10.748   1.209   0.976  0.1530  1.1633 -1.4007
21007SOL     OW67958   7.992   1.583   0.317  0.0637  0.5424  0.3118
21007SOL    HW167959   8.028   1.525   0.250 -1.8397  1.0594 -1.2582
21007SOL    HW267960   7.987   1.529   0.396  0.2361 -0.7939 -0.5712
21008SOL     OW67961   4.828  10.671   8.074 -0.1127 -0.1129 -0.4084
21008SOL    HW167962   4.755  10.678   8.013 -0.0590  0.8076 -0.3793
21008SOL    HW267963   4.793  10.619   8.147 -0.2212 -1.0919 -1.1317
21009SOL     OW67964  10.169   6.754   1.182  0.1413 -0.0575  0.0608
21009SOL    HW167965  10.079   6.783   1.197  0.0737 -0.6924  0.9912
21009SOL    HW267966  10.219   6.792   1.254  0.8382  1.1378 -1.0051
21010SOL     OW67967  10.682   3.528   9.902  0.9654 -0.0392  0.0450
21010SOL    HW167968  10.705   3.607   9.853 -0.0699 -1.0054 -2.1128
21010SOL    HW267969  10.754   3.467   9.885  0.0326 -0.7923 -1.3077
21011SOL     OW67970   1.499   2.960   4.217 -1.1580  0.0869 -0.2085
21011SOL    HW167971   1.436   2.968   4.289 -2.1245  0.3771 -1.0654
21011SOL    HW267972   1.458   2.900   4.155 -0.4821  0.0929 -0.6769
21012SOL     OW67973  10.365  10.293   8.380  0.0598  0.3451 -0.4753
21012SOL    HW167974  10.460  10.290   8.388 -0.0652 -1.9435  0.9883
21012SOL    HW267975  10.344  10.231   8.310 -0.3948  0.7787 -0.7378
21013SOL     OW67976   9.537   6.010   3.658 -0.8222 -0.3190  0.2085
21013SOL    HW167977   9.606   5.948   3.678 -2.0014 -1.3676  1.1735
21013SOL    HW267978   9.563   6.049   3.574  0.2918 -1.6051 -0.0746
21014SOL     OW67979  10.609   5.889   2.427 -0.1504  0.1293 -0.6597
21014SOL    HW167980  10.623   5.801   2.462 -0.1013 -0.0045 -1.0149
21014SOL    HW267981  10.609   5.878   2.332 -0.3293  0.4842 -0.7034
21015SOL     OW67982   3.577   7.576   6.118  0.3603  0.8007 -0.0083
21015SOL    HW167983   3.550   7.629   6.194  0.3630  1.0425 -0.1759
21015SOL    HW267984   3.587   7.488   6.153 -0.0412  0.8310  0.1895
21016SOL     OW67985   8.740   8.960   5.801 -0.4211 -0.1599  0.0150
21016SOL    HW167986   8.789   8.881   5.826  0.1768 -0.2565 -1.3406
21016SOL    HW267987   8.718   8.946   5.709 -0.5327  1.1411 -0.1776
21017SOL     OW67988   0.637   3.242   6.474  0.2770  0.3417  0.3472
21017SOL    HW167989   0.703   3.292   6.426  0.0694 -0.1356 -0.4574
21017SOL    HW267990   0.583   3.202   6.406 -1.8620  2.0116  0.9680
21018SOL     OW67991   5.086   8.733   0.125  0.3965  0.5844  0.4872
21018SOL    HW167992   5.138   8.791   0.181  0.5093  0.6823  0.2808
21018SOL    HW267993   5.024   8.691   0.185  1.0958  0.0261  0.8390
21019SOL     OW67994   6.712  10.492   1.504 -0.0628  0.0102 -0.2414
21019SOL    HW167995   6.702  10.570   1.558 -0.1756  0.0291 -0.2901
21019SOL    HW267996   6.759  10.521   1.427 -0.9104  0.2231 -0.6893
21020SOL     OW67997   5.091  11.036   1.270  0.0861  0.0849 -0.3803
21020SOL    HW167998   5.076  11.109   1.211  0.8997  1.1559  0.6960
21020SOL    HW267999   5.186  11.027   1.274  0.0254 -0.2836  0.3810
21021SOL     OW68000   6.872   5.326   0.232 -0.0885 -0.3055 -0.2408
21021SOL    HW168001   6.899   5.418   0.242 -1.9010  0.6592 -2.8796
21021SOL    HW268002   6.954   5.277   0.227  0.9238  1.1166  1.3857
21022SOL     OW68003   7.718   5.213  11.295  0.0929 -0.0443  0.0635
21022SOL    HW168004   7.796   5.157  11.295 -0.3653 -0.7510 -1.6281
21022SOL    HW268005   7.649   5.158  11.333 -0.0740 -0.2090 -0.4673
21023SOL     OW68006   3.341  10.237   2.194 -0.3153 -0.0747  0.5734
21023SOL    HW168007   3.392  10.307   2.236  1.7272 -0.1627 -1.5518
21023SOL    HW268008   3.405  10.169   2.175 -1.4086 -0.6269 -1.3746
21024SOL     OW68009  10.795   0.931   6.155 -0.6308  0.0759  0.2149
21024SOL    HW168010  10.832   0.845   6.133 -0.0458 -0.3073  2.4540
21024SOL    HW268011  10.779   0.927   6.249  0.2717  2.7439  0.5719
21025SOL     OW68012   3.536   4.045   3.816 -0.1261  0.2987  0.0977
21025SOL    HW168013   3.540   4.012   3.906  1.9400 -0.0765 -0.0807
21025SOL    HW268014   3.588   3.983   3.766 -0.2952  1.1479 -1.1630
21026SOL     OW68015   6.774  10.599   6.523  0.6323  0.3290 -0.3413
21026SOL    HW168016   6.759  10.510   6.491  0.5153  0.0353  0.5190
21026SOL    HW268017   6.856  10.593   6.573  0.3538  0.5911  0.1520
21027SOL     OW68018   1.675   7.171   7.480 -0.2165  0.2543  0.5550
21027SOL    HW168019   1.680   7.265   7.463  1.5827  0.1131  0.1191
21027SOL    HW268020   1.648   7.165   7.572  0.1819  1.2077  0.7554
21028SOL     OW68021   9.821   9.240   0.625  0.0211  0.0801 -0.5450
21028SOL    HW168022   9.731   9.209   0.636 -0.2061  0.9659  0.3656
21028SOL    HW268023   9.811   9.329   0.589  0.4645  0.6268  0.6289
21029SOL     OW68024   8.688   5.237   1.073 -0.2287 -0.5183  0.2965
21029SOL    HW168025   8.710   5.253   0.981 -0.9037 -1.7173 -0.0969
21029SOL    HW268026   8.762   5.187   1.107  0.7191  1.1670  0.8498
21030SOL     OW68027   1.026  10.357   7.701 -0.0278  0.5772 -0.5786
21030SOL    HW168028   0.939  10.391   7.682 -0.1029  0.3937 -0.5652
21030SOL    HW268029   1.081  10.435   7.707 -0.4857  0.8049  0.9636
21031SOL     OW68030   5.524   6.923   4.457  0.0513 -0.3429 -0.2315
21031SOL    HW168031   5.472   6.844   4.444 -1.3252  0.7001 -1.2504
21031SOL    HW268032   5.569   6.937   4.374 -1.4682  1.1618 -0.8409
21032SOL     OW68033   9.638   2.151   0.101  1.4349 -0.3891  0.2105
21032SOL    HW168034   9.695   2.160   0.024  1.4230  3.3922  0.4456
21032SOL    HW268035   9.699   2.144   0.175  1.4538 -2.1912  0.0673
21033SOL     OW68036   8.998   8.969   2.954 -0.0001 -0.3654  0.4715
21033SOL    HW168037   8.968   8.994   3.041 -1.2234  0.7564 -0.2315
21033SOL    HW268038   9.092   8.990   2.954 -0.0451 -0.1127  1.4274
21034SOL     OW68039   1.988   7.838  10.113 -0.0633 -0.0376 -0.3120
21034SOL    HW168040   1.962   7.750  10.085  1.9309 -0.4149 -1.1631
21034SOL    HW268041   1.982   7.836  10.208 -0.4901 -0.9474 -0.3475
21035SOL     OW68042   9.518   7.324   9.562  0.1671  0.2721 -0.2101
21035SOL    HW168043   9.519   7.263   9.636 -1.0968  0.9950  0.4321
21035SOL    HW268044   9.434   7.308   9.518  1.0963 -0.4850 -1.8120
21036SOL     OW68045   3.087   4.887   2.136  0.2264  0.6978  0.7076
21036SOL    HW168046   3.035   4.860   2.060 -0.1637  0.8869  0.9054
21036SOL    HW268047   3.170   4.915   2.099 -0.1180  1.2219  0.3012
21037SOL     OW68048   6.525   0.663   6.556 -0.3964  0.2450  0.5007
21037SOL    HW168049   6.491   0.672   6.645  0.1974  0.3840  0.7178
21037SOL    HW268050   6.555   0.573   6.551 -1.3378 -0.0574  0.1101
21038SOL     OW68051   7.034   4.806   8.441 -0.7270  0.4937  0.3214
21038SOL    HW168052   6.960   4.825   8.498 -0.2986  1.0085  0.7163
21038SOL    HW268053   7.031   4.711   8.429 -1.4971  0.5176  0.2559
21039SOL     OW68054   9.953   7.047   8.305  0.4595 -0.0965 -0.6260
21039SOL    HW168055   9.931   6.994   8.381  1.2698 -0.2736 -0.5043
21039SOL    HW268056   9.888   7.022   8.239 -0.4084  0.2482  0.0822
21040SOL     OW68057   6.824   0.675   2.751  0.3078  0.0355 -0.3139
21040SOL    HW168058   6.755   0.718   2.802 -0.3432 -0.7614 -0.5041
21040SOL    HW268059   6.829   0.587   2.788 -2.0590 -1.5040 -3.2645
21041SOL     OW68060   9.287   3.393   6.602  0.0976  0.0899 -0.0583
21041SOL    HW168061   9.374   3.355   6.594  0.1258  0.3090 -0.9016
21041SOL    HW268062   9.280   3.454   6.528 -0.5411  0.5268  0.3477
21042SOL     OW68063   0.806   0.678   0.620 -0.3100  0.4637 -0.7805
21042SOL    HW168064   0.730   0.732   0.641 -1.3956 -0.9241 -0.9496
21042SOL    HW268065   0.829   0.701   0.531 -0.3427  1.1140 -0.6224
21043SOL     OW68066   8.133   5.480   3.353 -0.0134 -0.1025 -0.1234
21043SOL    HW168067   8.175   5.559   3.318 -1.1835 -0.2837 -2.0695
21043SOL    HW268068   8.057   5.513   3.400  1.4422  0.1238  2.2622
21044SOL     OW68069   7.226   8.299   7.818 -0.2324  0.0537 -0.1768
21044SOL    HW168070   7.224   8.354   7.740 -1.2471  0.5261  0.1699
21044SOL    HW268071   7.286   8.344   7.878 -1.0165  0.7701  0.0852
21045SOL     OW68072   0.250   6.111   4.813 -0.8119 -0.2197  0.5033
21045SOL    HW168073   0.290   6.155   4.888  1.4916  2.3703 -2.0164
21045SOL    HW268074   0.310   6.039   4.793 -1.0535 -0.4892  0.7544
21046SOL     OW68075  10.461   9.638   8.950  0.4378  0.7008  0.4974
21046SOL    HW168076  10.403   9.608   8.879  1.3029  0.4042 -0.1020
21046SOL    HW268077  10.526   9.568   8.958  0.8404  1.1330  1.0188
21047SOL     OW68078   2.716  10.892   2.181 -0.1046  0.1678 -0.3023
21047SOL    HW168079   2.788  10.922   2.237  1.3923  0.2034 -2.1586
21047SOL    HW268080   2.662  10.839   2.239  0.8634  0.9347  1.3963
21048SOL     OW68081  11.469   6.136   1.958  0.1726 -0.0325  0.1057
21048SOL    HW168082  11.423   6.204   1.908 -0.5906 -0.1347  0.6486
21048SOL    HW268083  11.436   6.145   2.047  2.1582  0.6952  0.8037
21049SOL     OW68084   1.240  10.397   5.858  0.2304  0.4989  0.0359
21049SOL    HW168085   1.225  10.396   5.953 -2.1265  0.1857 -0.2674
21049SOL    HW268086   1.213  10.310   5.829 -1.1890  1.2748 -1.1328
21050SOL     OW68087   3.249   7.725   9.018  0.1537  0.1320  0.2887
21050SOL    HW168088   3.197   7.805   9.017  0.0059  0.0350 -0.4409
21050SOL    HW268089   3.205   7.668   9.081 -0.1590  0.3550  0.2717
21051SOL     OW68090   9.549   9.993   3.406 -0.4947  0.1075 -0.1201
21051SOL    HW168091   9.642   9.972   3.412 -0.9655 -1.9110  0.8662
21051SOL    HW268092   9.546  10.072   3.352  1.7932  0.3548  0.0237
21052SOL     OW68093   4.359   5.313   0.738 -0.1245  0.1802 -0.6589
21052SOL    HW168094   4.295   5.243   0.727 -1.9081  1.5095  0.5425
21052SOL    HW268095   4.307   5.394   0.730  1.2295  1.3041  1.1529
21053SOL     OW68096   6.811   6.742  11.272 -0.0176 -0.1712 -0.1121
21053SOL    HW168097   6.877   6.807  11.296  2.3226 -2.1650 -0.7301
21053SOL    HW268098   6.778   6.772  11.188  1.4961 -0.0731 -0.7009
21054SOL     OW68099   0.279   4.594  10.150  0.2109  0.0194 -0.4865
21054SOL    HW168100   0.255   4.537  10.223 -0.7267 -0.9037 -1.4856
21054SOL    HW268101   0.232   4.676  10.167 -1.1081 -0.6633 -0.7510
21055SOL     OW68102   8.198   6.787   0.459  0.3462 -0.7305 -0.0680
21055SOL    HW168103   8.269   6.767   0.397  1.2162 -0.7472  0.9056
21055SOL    HW268104   8.124   6.735   0.428  1.4192 -2.4551  0.1575
21056SOL     OW68105   1.922   5.474   7.802 -0.1183  0.1412 -0.4792
21056SOL    HW168106   1.984   5.513   7.741 -0.8303 -1.1115 -2.0528
21056SOL    HW268107   1.836   5.503   7.772 -0.4406  0.3544  0.5833
21057SOL     OW68108   7.384   5.792   8.289 -0.5982  0.0318 -0.1874
21057SOL    HW168109   7.369   5.881   8.319 -1.0356  0.3035 -1.1436
21057SOL    HW268110   7.466   5.796   8.239 -0.1838 -0.2860  0.4520
21058SOL     OW68111   2.601   0.149   6.657 -0.3941 -0.0454  0.0765
21058SOL    HW168112   2.585   0.068   6.705  0.2044 -0.3304 -0.1996
21058SOL    HW268113   2.669   0.194   6.707  0.2051 -0.3257 -0.4748
21059SOL     OW68114  10.835  10.485   5.927  0.0791 -0.0142 -0.1165
21059SOL    HW168115  10.893  10.447   5.993  0.8836  2.0820  0.4636
21059SOL    HW268116  10.747  10.460   5.955  0.5729 -2.0158 -0.1946
21060SOL     OW68117   9.450   5.604  10.865  0.1809 -0.1244  0.2622
21060SOL    HW168118   9.394   5.667  10.820  0.4631 -0.0688 -0.0120
21060SOL    HW268119   9.454   5.529  10.806  0.2237 -0.2138  0.3778
21061SOL     OW68120   6.774   5.787   5.084  0.1696 -0.0065  0.1030
21061SOL    HW168121   6.860   5.809   5.121 -0.6331  3.1895  0.3733
21061SOL    HW268122   6.712   5.815   5.151 -1.1419 -1.1464 -0.5992
21062SOL     OW68123   2.147   8.432   9.480  0.4829  0.3707  0.1547
21062SOL    HW168124   2.225   8.481   9.455  0.1366  0.5303 -0.6396
21062SOL    HW268125   2.102   8.488   9.544  0.3381  0.8789 -0.3890
21063SOL     OW68126   0.652   0.101   9.945 -0.5524  0.6646  0.1219
21063SOL    HW168127   0.581   0.108   9.881 -0.1542  0.3448 -0.3670
21063SOL    HW268128   0.660   0.189   9.982 -1.9379  0.4528  0.9953
21064SOL     OW68129   6.134   3.969   7.655  0.1878 -0.1238 -0.1002
21064SOL    HW168130   6.064   3.986   7.718 -1.2027 -1.4673 -1.2083
21064SOL    HW268131   6.214   3.970   7.708 -0.4378  2.9022  0.9478
21065SOL     OW68132   5.088   5.721   0.641  0.0382  0.2047 -0.0666
21065SOL    HW168133   5.053   5.708   0.553 -1.0800 -1.9722  0.6317
21065SOL    HW268134   5.041   5.797   0.675 -0.4295  0.2940 -0.8876
21066SOL     OW68135   1.708   3.713  10.912 -0.1671  0.0538 -0.2921
21066SOL    HW168136   1.737   3.777  10.977  0.8176 -1.9844  1.4181
21066SOL    HW268137   1.759   3.732  10.834  0.4379  1.0540  0.3303
21067SOL     OW68138   7.021   6.567   0.528  0.0482  0.2355  0.6543
21067SOL    HW168139   6.999   6.484   0.484 -0.5658  0.0387  1.3141
21067SOL    HW268140   6.957   6.573   0.599  1.0022  0.5831  1.4890
21068SOL     OW68141   6.356   7.859   7.941 -0.3898  0.0854  0.0406
21068SOL    HW168142   6.426   7.924   7.942  1.1761 -1.5305 -0.3743
21068SOL    HW268143   6.276   7.911   7.931  0.6043  2.0654  1.6165
21069SOL     OW68144   9.778   3.339   5.051 -0.0026 -0.4182 -0.2251
21069SOL    HW168145   9.747   3.279   4.984  0.3995 -1.3194  0.3677
21069SOL    HW268146   9.855   3.380   5.013 -0.6026  0.1388 -0.8445
21070SOL     OW68147   2.430  11.147   7.444  0.1775  0.5173  0.7091
21070SOL    HW168148   2.434  11.053   7.425 -2.7513  0.7439 -1.7683
21070SOL    HW268149   2.380  11.153   7.526 -4.4993 -0.1735 -1.7453
21071SOL     OW68150   6.601   4.843   7.507 -0.0264  0.0155 -0.2888
21071SOL    HW168151   6.516   4.885   7.519 -0.8662 -1.2617 -1.4844
21071SOL    HW268152   6.598   4.767   7.565  1.1403  1.0232  1.1931
21072SOL     OW68153   3.224   4.129  11.621  0.0822 -0.0686 -0.3170
21072SOL    HW168154   3.273   4.212  11.617  0.5364 -0.3214 -0.0822
21072SOL    HW268155   3.132   4.156  11.627  0.2654  0.4417  0.3919
21073SOL     OW68156  10.947   6.898   8.275  1.1765  0.4927 -0.1491
21073SOL    HW168157  10.992   6.970   8.232 -0.0271  0.9397 -0.7164
21073SOL    HW268158  10.945   6.923   8.367  1.3642  0.8584 -0.2408
21074SOL     OW68159   6.347   2.628   0.118  0.0009  0.1825  0.6200
21074SOL    HW168160   6.252   2.634   0.128 -0.1142 -0.9308  0.3150
21074SOL    HW268161   6.381   2.702   0.167 -1.0289  0.6176  0.6979
21075SOL     OW68162   9.022   4.913   8.193  0.5387  0.3504  0.1982
21075SOL    HW168163   9.066   4.998   8.183  1.0263 -0.0012 -0.6946
21075SOL    HW268164   9.084   4.849   8.159  0.0323 -0.3387  0.5387
21076SOL     OW68165   0.935   7.893   9.499 -0.2801  0.1398  0.3646
21076SOL    HW168166   0.929   7.977   9.452 -0.9058 -0.3939 -0.5469
21076SOL    HW268167   1.025   7.865   9.487  0.5140  1.6135  2.3746
21077SOL     OW68168   5.630   7.027   8.584 -0.5231 -0.6651 -0.6472
21077SOL    HW168169   5.552   6.976   8.562 -1.4846 -0.0587  1.1364
21077SOL    HW268170   5.616   7.112   8.542 -1.5857 -0.0552  0.8297
21078SOL     OW68171   0.367   1.708   4.296 -0.1402 -0.9846 -0.3302
21078SOL    HW168172   0.325   1.792   4.276  0.1627 -0.6637  0.3631
21078SOL    HW268173   0.352   1.655   4.217 -2.1149 -0.9912 -0.0041
21079SOL     OW68174   9.356   8.377   5.248  0.3197  0.5236 -0.4908
21079SOL    HW168175   9.279   8.323   5.264 -1.5735  3.5108  1.6682
21079SOL    HW268176   9.331   8.434   5.175  0.5507  1.3517  0.0603
21080SOL     OW68177   4.153  11.037  11.610  0.0776  0.0167  0.4375
21080SOL    HW168178   4.117  10.961  11.563 -0.0260  0.0744  0.4229
21080SOL    HW268179   4.201  11.085  11.544 -0.7868  0.5607  0.1867
21081SOL     OW68180   6.526   5.286   0.519 -0.6310 -0.0682 -0.5174
21081SOL    HW168181   6.460   5.246   0.575  1.2603 -0.9524  1.2429
21081SOL    HW268182   6.594   5.219   0.511  1.1476  1.6112 -0.1951
21082SOL     OW68183   5.282   3.427   0.401  0.1238 -0.3286 -0.2944
21082SOL    HW168184   5.287   3.446   0.495  1.9986  2.2990 -0.8012
21082SOL    HW268185   5.353   3.363   0.386 -0.5114 -1.1505  0.1170
21083SOL     OW68186   3.085   2.301   6.870 -0.4557  1.1084  0.0594
21083SOL    HW168187   3.173   2.267   6.888 -1.6521 -2.6881 -0.3781
21083SOL    HW268188   3.100   2.383   6.824  2.9516 -0.1834 -1.4492
21084SOL     OW68189  10.153   2.141   2.773 -0.0058  0.2486 -0.4966
21084SOL    HW168190  10.182   2.153   2.683 -1.2484 -2.9206 -1.4386
21084SOL    HW268191  10.059   2.161   2.771 -0.1293 -0.2488 -0.0160
21085SOL     OW68192   9.952  10.314   3.367 -0.7370 -0.0549 -0.4976
21085SOL    HW168193  10.002  10.390   3.338  0.0507 -0.6315 -0.6837
21085SOL    HW268194   9.867  10.324   3.324 -0.6183  0.6791 -0.5799
21086SOL     OW68195   3.487  10.055   4.254 -0.2244  0.3328  0.6443
21086SOL    HW168196   3.574  10.047   4.293 -0.6198  0.2451  1.5362
21086SOL    HW268197   3.435   9.986   4.297 -0.4183 -0.4339 -0.7764
21087SOL     OW68198   8.071   1.043   1.732 -0.5470  0.3139 -0.0433
21087SOL    HW168199   8.043   1.057   1.822 -1.1074 -0.1582 -0.1453
21087SOL    HW268200   8.150   0.989   1.739 -0.8799 -0.1487  0.1407
21088SOL     OW68201   9.722   3.388   6.591  0.6084 -0.4776 -0.6081
21088SOL    HW168202   9.673   3.457   6.547 -0.9778 -0.0706  1.6519
21088SOL    HW268203   9.806   3.428   6.613 -0.2176  0.7074  0.4994
21089SOL     OW68204   0.294   8.585   2.804  0.1426 -0.1902  0.5463
21089SOL    HW168205   0.354   8.584   2.730  1.6481 -0.5725  1.7146
21089SOL    HW268206   0.287   8.678   2.827 -0.8328 -0.0026 -0.4332
21090SOL     OW68207   1.291   7.787   1.370 -0.6260 -0.4501  0.7106
21090SOL    HW168208   1.262   7.724   1.304  0.4877  0.1739 -0.4101
21090SOL    HW268209   1.211   7.833   1.397 -1.0678 -0.5742 -0.3612
21091SOL     OW68210   7.145  11.019   1.101  0.3898 -0.0251 -0.5489
21091SOL    HW168211   7.054  11.023   1.071 -0.2108  0.9343  1.2535
21091SOL    HW268212   7.197  11.043   1.024 -0.9670  0.8558 -1.2286
21092SOL     OW68213   3.764   1.861   4.587 -0.2221 -0.4184 -0.3802
21092SOL    HW168214   3.840   1.852   4.530  0.3365 -0.9407  0.4260
21092SOL    HW268215   3.733   1.950   4.572  1.6681  0.4551  0.6341
21093SOL     OW68216   1.166   8.381   1.285 -0.0746 -0.0505 -0.0094
21093SOL    HW168217   1.206   8.302   1.248  1.3221  1.6248 -2.3883
21093SOL    HW268218   1.219   8.452   1.250 -2.3054  2.0567  0.6723
21094SOL     OW68219   9.971   5.779   4.682  0.2444  0.2696  0.2125
21094SOL    HW168220   9.898   5.797   4.623  0.9511  1.1887 -0.4373
21094SOL    HW268221  10.031   5.853   4.668  1.3801 -0.5482  0.5760
21095SOL     OW68222   3.179   2.445   8.080 -0.2666 -0.1099 -0.5373
21095SOL    HW168223   3.266   2.463   8.043  1.7974 -1.6517  3.0377
21095SOL    HW268224   3.186   2.473   8.172 -3.7129 -0.0364 -0.1628
21096SOL     OW68225   9.264   9.494   6.001 -0.2829  0.7262 -0.1916
21096SOL    HW168226   9.235   9.408   5.970 -0.4020  0.0611  1.6363
21096SOL    HW268227   9.210   9.510   6.078  1.4744  1.2794  0.9655
21097SOL     OW68228   7.433   8.474   7.247 -0.2118  0.2881 -0.1462
21097SOL    HW168229   7.519   8.486   7.206  0.9722 -2.2508  1.4049
21097SOL    HW268230   7.392   8.404   7.197  0.5698 -1.6770  1.8086
21098SOL     OW68231  11.447  10.081   0.536  0.2602 -0.8170  0.3503
21098SOL    HW168232  11.460  10.074   0.631  0.4501 -0.5980  0.3435
21098SOL    HW268233  11.376  10.145   0.527 -0.5694 -1.7263  0.3766
21099SOL     OW68234   7.787   4.249   1.315 -0.0156 -0.3002  0.0868
21099SOL    HW168235   7.859   4.226   1.374  0.3253 -1.0401 -0.5961
21099SOL    HW268236   7.713   4.265   1.373  0.2586 -1.2103  0.7172
21100SOL     OW68237   0.916   0.198   3.080 -0.2216 -0.9249 -0.9793
21100SOL    HW168238   0.953   0.141   3.147  0.0829 -0.1890 -0.5072
21100SOL    HW268239   0.837   0.235   3.119  1.8421  2.4312  0.5578
21101SOL     OW68240   5.033   3.780   7.007  0.5865  0.4068 -0.7079
21101SOL    HW168241   4.994   3.863   7.036 -0.8498 -0.5034  0.0843
21101SOL    HW268242   5.106   3.806   6.951  0.6207  2.2086  0.1044
21102SOL     OW68243   9.524   2.499   8.298 -0.4437  0.5233  0.4863
21102SOL    HW168244   9.569   2.441   8.360  1.1366  1.4409  0.2391
21102SOL    HW268245   9.539   2.458   8.213 -0.0123  0.8648  0.3967
21103SOL     OW68246   9.526   1.279   1.775  0.0451 -0.3834  0.0577
21103SOL    HW168247   9.516   1.358   1.721 -0.5849  0.6452  1.6164
21103SOL    HW268248   9.557   1.212   1.714  0.8198  1.1234 -1.2735
21104SOL     OW68249   2.291   2.889   4.063  0.1257 -0.1858 -0.1220
21104SOL    HW168250   2.326   2.923   3.980  1.2210  1.6148  1.0056
21104SOL    HW268251   2.199   2.915   4.063 -0.0854 -0.8915 -1.0976
21105SOL     OW68252  10.197   8.047   8.049  0.1974 -0.2248 -0.4644
21105SOL    HW168253  10.234   8.114   8.106 -0.0052 -0.3380 -0.1958
21105SOL    HW268254  10.215   8.077   7.960  1.2936 -0.4750 -0.3398
21106SOL     OW68255   4.703   8.144   0.540  0.4744 -0.4310 -0.4678
21106SOL    HW168256   4.627   8.099   0.576  1.3671 -1.5867  0.0407
21106SOL    HW268257   4.694   8.234   0.571  0.1459 -0.9227  0.9333
21107SOL     OW68258   4.076   4.705  10.892 -0.4871 -0.0285  0.2541
21107SOL    HW168259   4.051   4.683  10.981  0.3731 -0.4316  0.3968
21107SOL    HW268260   3.992   4.715  10.846 -0.9903 -3.0012  0.3077
21108SOL     OW68261  11.563   1.443   0.780 -0.5535 -0.3841 -0.7056
21108SOL    HW168262  11.652   1.440   0.814 -1.2846 -2.2443  1.2589
21108SOL    HW268263  11.557   1.367   0.721 -0.8360 -0.2536 -0.8470
21109SOL     OW68264  11.438   9.364   4.637 -0.2831  1.1035  0.6760
21109SOL    HW168265  11.481   9.351   4.552  1.2263  0.8271  1.4535
21109SOL    HW268266  11.399   9.279   4.658 -1.1697  1.3328  0.0046
21110SOL     OW68267   5.464   4.576   9.175  0.0153  0.0606  0.3180
21110SOL    HW168268   5.470   4.545   9.084  1.7631  0.5143  0.2439
21110SOL    HW268269   5.512   4.510   9.226 -0.0788  0.3367  0.7709
21111SOL     OW68270   4.683   5.581   1.831 -0.1067  0.1248 -0.2618
21111SOL    HW168271   4.624   5.556   1.902 -2.0920 -0.9711 -2.1708
21111SOL    HW268272   4.763   5.531   1.847 -0.5693 -0.2258  1.0852
21112SOL     OW68273  10.757   6.423   4.921 -0.7388  0.1426 -0.0290
21112SOL    HW168274  10.756   6.518   4.909 -0.5307  0.2547  0.7981
21112SOL    HW268275  10.692   6.408   4.990 -0.2403 -0.2410  0.3563
21113SOL     OW68276   4.410   0.197  10.036  0.0979  0.1516 -0.0840
21113SOL    HW168277   4.353   0.207  10.112  0.1348  0.2289 -0.0668
21113SOL    HW268278   4.497   0.217  10.069  0.6879 -3.2327  0.7361
21114SOL     OW68279   3.117  10.230   8.510  0.2987  0.4218  0.0065
21114SOL    HW168280   3.186  10.226   8.576 -1.2985  0.3151  1.7190
21114SOL    HW268281   3.081  10.142   8.506  1.0765  0.1398 -1.8481
21115SOL     OW68282   5.665   4.584   8.393 -0.1991  0.1402 -0.2794
21115SOL    HW168283   5.620   4.499   8.396  0.8768 -0.4386  0.1404
21115SOL    HW268284   5.631   4.632   8.469 -1.6175  0.5267 -1.1305
21116SOL     OW68285   5.363   2.953   5.234  0.5893  0.0586 -0.0543
21116SOL    HW168286   5.350   2.871   5.281  1.1138 -0.2438 -0.4362
21116SOL    HW268287   5.400   2.928   5.149 -1.8538  0.4626 -1.3160
21117SOL     OW68288  11.683   8.671   8.317  0.0066 -0.0088  0.1872
21117SOL    HW168289  11.737   8.693   8.241  1.2895 -0.5842  0.8992
21117SOL    HW268290  11.742   8.623   8.375 -0.6070  1.4319  2.0845
21118SOL     OW68291   9.768   3.979   7.034 -0.1271  0.3495 -0.2159
21118SOL    HW168292   9.677   4.003   7.019 -0.6097 -1.7683 -0.9649
21118SOL    HW268293   9.778   3.894   6.991  1.9077  0.0181  0.7983
21119SOL     OW68294   2.472   3.021   8.120 -0.0684 -0.3192  0.4317
21119SOL    HW168295   2.447   2.991   8.208  1.5055 -1.5207  0.5068
21119SOL    HW268296   2.567   3.029   8.123 -0.1355  1.2634 -0.6971
21120SOL     OW68297   7.692   3.785   6.343  0.5098 -0.4473 -0.2159
21120SOL    HW168298   7.781   3.789   6.308  0.2948  1.3127 -0.6555
21120SOL    HW268299   7.700   3.820   6.432  0.4409 -1.4801  0.2143
21121SOL     OW68300   0.707   4.146   7.594 -0.7364  0.2564 -0.3825
21121SOL    HW168301   0.731   4.217   7.535 -0.1599  0.4769  0.1093
21121SOL    HW268302   0.655   4.187   7.662 -1.6390 -0.0455 -0.8781
21122SOL     OW68303   4.483   6.877   6.237  0.4954  0.5138  0.4686
21122SOL    HW168304   4.414   6.845   6.179  1.8974 -0.5022 -0.7105
21122SOL    HW268305   4.468   6.832   6.320 -0.1683  0.2038  0.1890
21123SOL     OW68306   6.849   5.962   1.955 -0.2863 -0.3093  0.2704
21123SOL    HW168307   6.851   5.869   1.976 -0.7542 -0.4735 -0.3561
21123SOL    HW268308   6.863   5.965   1.860 -1.1915  0.1859  0.1424
21124SOL     OW68309   5.763   9.880   0.078 -0.1426  0.3995  0.4268
21124SOL    HW168310   5.741   9.917  -0.008  0.3236 -0.4700 -0.0744
21124SOL    HW268311   5.843   9.830   0.063 -0.5391 -0.4857  1.1701
21125SOL     OW68312   5.375   9.299  10.196 -0.5049 -0.1163  0.1708
21125SOL    HW168313   5.295   9.311  10.145 -0.0521 -0.5368 -0.6586
21125SOL    HW268314   5.366   9.213  10.237 -0.5847 -0.0526  0.2889
21126SOL     OW68315   8.522   0.369  10.334  0.6994  0.4943 -0.3778
21126SOL    HW168316   8.554   0.439  10.391  3.4555 -2.2324  1.7154
21126SOL    HW268317   8.599   0.342  10.285 -0.4961 -0.5994 -1.7158
21127SOL     OW68318   8.857   1.424  10.786  0.1189 -0.2615 -0.6473
21127SOL    HW168319   8.831   1.333  10.802  0.0217 -0.1859 -0.3677
21127SOL    HW268320   8.806   1.450  10.710  0.5660 -0.6213 -1.0767
21128SOL     OW68321   2.535   7.278  11.519  0.1375 -0.3425  0.0702
21128SOL    HW168322   2.580   7.318  11.445  1.3490 -1.5490  0.1347
21128SOL    HW268323   2.589   7.299  11.595 -1.1791  1.0221  0.6838
21129SOL     OW68324   1.762   1.879   7.253  0.5190  0.8419  0.3190
21129SOL    HW168325   1.804   1.805   7.298 -1.1741 -1.2759 -1.3487
21129SOL    HW268326   1.712   1.922   7.322  0.9054 -0.0720  1.2046
21130SOL     OW68327   5.007  11.057   2.162 -0.8948  0.0822 -0.5608
21130SOL    HW168328   5.068  11.126   2.136 -1.2538  1.3610  1.7315
21130SOL    HW268329   4.924  11.083   2.123 -0.6776  0.0055 -1.0945
21131SOL     OW68330  11.348   7.950   9.664 -0.7290 -0.1383 -0.3803
21131SOL    HW168331  11.342   7.903   9.581  1.5231 -1.2991  0.0220
21131SOL    HW268332  11.440   7.942   9.690 -0.8996  2.0044  1.2101
21132SOL     OW68333   0.590   7.500   9.821  0.5774 -0.3425 -0.0233
21132SOL    HW168334   0.628   7.572   9.872 -0.3004  0.7350 -0.8570
21132SOL    HW268335   0.610   7.522   9.730  0.3226 -1.1815 -0.2912
21133SOL     OW68336   4.055   8.188   6.657 -0.2943 -0.2516 -0.2502
21133SOL    HW168337   4.063   8.266   6.602 -0.1231  0.2102  0.4201
21133SOL    HW268338   4.032   8.118   6.596  0.7560  0.0691 -1.0374
21134SOL     OW68339   1.974   2.213  11.630 -0.9291 -0.4308  0.0790
21134SOL    HW168340   1.940   2.255  11.709 -0.8811 -0.2528  0.0046
21134SOL    HW268341   1.930   2.258  11.558 -1.2691 -0.8535  0.0141
21135SOL     OW68342  11.042  10.828   8.963 -0.0772 -0.0742  0.2778
21135SOL    HW168343  11.003  10.750   8.923 -0.2529  0.0973  0.1144
21135SOL    HW268344  10.985  10.900   8.937  0.6979  0.2788 -0.5096
21136SOL     OW68345   0.669   9.311   2.256 -0.1958 -0.1714  0.2285
21136SOL    HW168346   0.737   9.283   2.318  0.4542 -1.4206 -0.9948
21136SOL    HW268347   0.717   9.339   2.179 -1.0030  1.3353  0.2501
21137SOL     OW68348   2.043  10.948   2.027  0.2048 -0.4461 -0.3753
21137SOL    HW168349   2.052  10.856   2.002  0.0538 -0.6841  0.4181
21137SOL    HW268350   2.047  10.947   2.122 -2.4490  0.0716 -0.2055
21138SOL     OW68351   2.890   2.773   9.048 -0.1473  0.2375 -0.0976
21138SOL    HW168352   2.898   2.857   9.005  0.1709  0.6951  0.8251
21138SOL    HW268353   2.817   2.784   9.109  0.7578  0.3036  1.0089
21139SOL     OW68354   4.142   8.234  11.060  0.0098 -0.0501 -0.3036
21139SOL    HW168355   4.143   8.234  10.964  0.9262  1.4389 -0.3263
21139SOL    HW268356   4.207   8.168  11.084 -1.0139 -1.2306 -0.6681
21140SOL     OW68357   4.586   6.026   1.716 -0.4309  0.4901 -0.4483
21140SOL    HW168358   4.670   6.026   1.669 -0.8191  1.6381 -1.1998
21140SOL    HW268359   4.522   6.054   1.650 -1.5528 -1.1319 -0.1030
21141SOL     OW68360   0.269   0.355   5.071 -0.2516  0.4920 -0.0209
21141SOL    HW168361   0.305   0.383   5.155 -3.9335  0.6814  1.7201
21141SOL    HW268362   0.247   0.436   5.026  1.6469  0.3872 -1.2244
21142SOL     OW68363   3.563   3.838   0.603  0.4354  1.2022  0.0801
21142SOL    HW168364   3.489   3.844   0.663  0.8710  0.9051  0.6587
21142SOL    HW268365   3.580   3.745   0.595 -0.4343  1.1475 -1.5494
21143SOL     OW68366   6.397   6.273   1.528  0.0854  0.4734  0.3656
21143SOL    HW168367   6.450   6.266   1.607  1.6853 -2.1817 -0.7951
21143SOL    HW268368   6.330   6.205   1.537  1.3168 -1.0338 -1.1780
21144SOL     OW68369   9.037   0.336   0.518 -0.2036 -0.1482 -1.0115
21144SOL    HW168370   9.090   0.404   0.558  1.4092 -1.8484 -0.0579
21144SOL    HW268371   8.973   0.382   0.464  0.8116  2.0660 -0.4039
21145SOL     OW68372   6.403   6.062   8.344 -0.1251  0.2083 -0.7605
21145SOL    HW168373   6.419   5.971   8.371  1.2130  0.4900 -0.5376
21145SOL    HW268374   6.484   6.089   8.301 -1.5001  0.4122 -3.4175
21146SOL     OW68375   9.852   0.364   6.465  0.2237 -0.7832  0.3659
21146SOL    HW168376   9.760   0.341   6.471  0.4870 -1.9483  0.2701
21146SOL    HW268377   9.855   0.445   6.415 -0.6353 -1.6288 -1.1096
21147SOL     OW68378   9.608   1.317  11.485 -0.3843  0.2881  0.5908
21147SOL    HW168379   9.671   1.389  11.484 -1.2573  1.0983  1.1440
21147SOL    HW268380   9.604   1.287  11.395 -0.6415  1.5297  0.1724
21148SOL     OW68381   3.417   2.483   7.662 -0.4668 -0.4553 -0.2218
21148SOL    HW168382   3.415   2.411   7.725  0.2323  0.3528  0.7597
21148SOL    HW268383   3.444   2.442   7.580  1.3922 -1.1046  0.6567
21149SOL     OW68384   3.867   4.714   1.115 -0.3964  0.7056  0.3504
21149SOL    HW168385   3.917   4.769   1.175 -1.5595  0.8707  1.2137
21149SOL    HW268386   3.790   4.766   1.094  1.3139  1.9527 -3.7611
21150SOL     OW68387  11.420   1.422  10.744  0.0171 -0.0869  0.6604
21150SOL    HW168388  11.392   1.507  10.711  1.3127  0.3698  0.6736
21150SOL    HW268389  11.350   1.395  10.804 -1.0443  0.3309 -0.3621
21151SOL     OW68390   1.209  10.802   2.275  0.0056  0.6640  0.0012
21151SOL    HW168391   1.287  10.746   2.275 -0.7584 -0.4488 -0.7333
21151SOL    HW268392   1.243  10.891   2.267  1.2193  0.2452  0.2729
21152SOL     OW68393  11.364   5.020   7.250 -0.3545  0.1296 -0.4296
21152SOL    HW168394  11.317   5.081   7.194 -1.7609 -0.0699  0.4805
21152SOL    HW268395  11.296   4.969   7.293  0.3733  1.8966  3.3472
21153SOL     OW68396   9.399   9.977   2.658 -0.4314 -0.0783  0.5628
21153SOL    HW168397   9.452   9.921   2.600  1.1792  0.6862  1.2539
21153SOL    HW268398   9.321   9.924   2.677 -0.1018 -1.0993 -0.7526
21154SOL     OW68399   8.420   9.725  11.571  0.4303  0.5898  0.0806
21154SOL    HW168400   8.425   9.762  11.659 -0.7219  1.3327 -0.1478
21154SOL    HW268401   8.389   9.635  11.585  0.8604  0.4987  0.4691
21155SOL     OW68402   9.136  10.417   3.200 -0.4300  0.4486  0.1998
21155SOL    HW168403   9.079  10.482   3.241 -0.5757  0.1737  0.4428
21155SOL    HW268404   9.125  10.430   3.106 -0.3708  0.8480  0.2461
21156SOL     OW68405   7.212  10.859   9.716 -0.6354 -0.0264  0.2751
21156SOL    HW168406   7.156  10.793   9.676 -1.9102  0.8237  0.5875
21156SOL    HW268407   7.268  10.889   9.644 -0.3362 -1.1332  0.0365
21157SOL     OW68408   4.103   9.851   0.823 -0.0781 -0.0755 -0.5069
21157SOL    HW168409   4.020   9.891   0.797  0.6881  1.6377 -0.4567
21157SOL    HW268410   4.143   9.823   0.741 -0.2326  0.0607 -0.6293
21158SOL     OW68411   8.895   1.001   5.997 -0.0908 -0.1689  0.2561
21158SOL    HW168412   8.947   1.080   5.983  1.1336 -1.0565 -0.4165
21158SOL    HW268413   8.898   0.985   6.091 -0.6429  0.7703  0.4376
21159SOL     OW68414   9.888  11.279   2.419 -0.3160  0.0188 -0.1168
21159SOL    HW168415   9.869  11.257   2.510 -1.7990 -1.3454 -0.6972
21159SOL    HW268416   9.943  11.357   2.424 -0.8793  0.3540  1.9197
21160SOL     OW68417   1.991  10.417   6.741  0.4079 -0.2773  0.1212
21160SOL    HW168418   2.015  10.386   6.828  0.4621 -2.4842 -0.6190
21160SOL    HW268419   2.070  10.461   6.709  1.2294 -1.5481  0.2995
21161SOL     OW68420  10.274   0.783  11.000  0.3487 -0.1973  0.2178
21161SOL    HW168421  10.318   0.788  11.084 -0.4065  0.6719  0.5869
21161SOL    HW268422  10.180   0.786  11.022  0.1119 -1.1524 -0.5841
21162SOL     OW68423  10.067  10.789   6.194 -0.1043 -0.0527  0.1679
21162SOL    HW168424  10.014  10.848   6.140  1.6695  1.7452  0.2870
21162SOL    HW268425  10.047  10.813   6.284 -0.2793 -0.4989  0.2545
21163SOL     OW68426   4.317   7.612   1.549  0.0398  0.1201  0.2829
21163SOL    HW168427   4.223   7.609   1.568 -0.2656 -1.5385 -1.2299
21163SOL    HW268428   4.346   7.695   1.586 -2.0977  0.8547  0.4616
21164SOL     OW68429   0.220   1.129   2.965 -0.2119  0.4526  0.1245
21164SOL    HW168430   0.288   1.197   2.970  1.0533 -0.8179  1.1460
21164SOL    HW268431   0.246   1.075   2.890  1.6310 -1.6929  2.1542
21165SOL     OW68432   4.883   0.949   3.795  0.1037 -0.6387  0.6421
21165SOL    HW168433   4.907   0.965   3.703  0.3205 -0.6744  0.6932
21165SOL    HW268434   4.849   1.034   3.825 -0.5788 -0.7971  0.3407
21166SOL     OW68435   6.186   4.271   4.984 -0.2374  0.1093  0.0288
21166SOL    HW168436   6.129   4.256   4.908  0.6761  0.6910 -0.7898
21166SOL    HW268437   6.151   4.350   5.026  0.2568  0.7659 -0.7710
21167SOL     OW68438  10.940   7.342   8.311  0.0099 -0.1554  0.3850
21167SOL    HW168439  10.937   7.345   8.215 -0.8055  0.4125  0.4274
21167SOL    HW268440  10.876   7.275   8.335  1.6173 -1.7475  0.4718
21168SOL     OW68441   0.784   8.850   8.974 -0.3234  0.2522  0.0948
21168SOL    HW168442   0.764   8.796   8.898  2.1051  1.2181 -1.3405
21168SOL    HW268443   0.812   8.788   9.041 -0.4806 -0.4804 -0.5052
21169SOL     OW68444   5.189   8.686   2.040 -0.0692 -0.2536  0.3080
21169SOL    HW168445   5.105   8.646   2.060 -0.7074  1.0377  0.3472
21169SOL    HW268446   5.187   8.771   2.086  1.2281 -0.1714  0.2680
21170SOL     OW68447   3.651  11.382   1.782  0.0311 -0.0162  0.0563
21170SOL    HW168448   3.620  11.312   1.723 -0.9864  0.0812  0.4526
21170SOL    HW268449   3.725  11.344   1.828 -0.1440 -0.6342 -0.1648
21171SOL     OW68450   2.553   0.661   1.065  0.2900 -0.0862  0.5213
21171SOL    HW168451   2.605   0.711   1.128 -0.7825  0.6090  0.8820
21171SOL    HW268452   2.568   0.570   1.089  0.2003  0.1521  1.5566
21172SOL     OW68453   2.950   5.668   3.693  0.8275  0.3269 -0.2434
21172SOL    HW168454   2.986   5.582   3.714  0.6855 -0.0320 -1.3942
21172SOL    HW268455   2.993   5.727   3.754  0.1636 -0.6875  1.2824
21173SOL     OW68456   9.978   5.032  11.004  0.4113 -0.0391 -1.0126
21173SOL    HW168457   9.909   5.021  10.938  0.1040  0.6392 -0.8025
21173SOL    HW268458  10.026   4.949  11.001 -0.8632 -0.8147 -0.6366
21174SOL     OW68459   5.783   6.240   7.226 -0.2272 -0.3556 -0.2770
21174SOL    HW168460   5.825   6.176   7.169  3.3088  2.3422 -1.0537
21174SOL    HW268461   5.718   6.282   7.170 -0.0620 -0.8426 -0.8493
21175SOL     OW68462  10.896   1.934   2.677  0.2183  0.1667 -0.4442
21175SOL    HW168463  10.926   1.850   2.712 -0.6679  0.1023  0.2150
21175SOL    HW268464  10.870   1.983   2.755 -2.1315 -0.0996 -0.9925
21176SOL     OW68465   7.579   4.109   7.730 -0.5289  0.1011 -0.9359
21176SOL    HW168466   7.646   4.093   7.663  1.9352 -0.4835  1.5243
21176SOL    HW268467   7.537   4.024   7.744  1.5243 -0.7004  0.7916
21177SOL     OW68468   2.403   6.978   8.060  0.0538 -0.0407  0.3219
21177SOL    HW168469   2.351   6.924   8.120 -0.5780  1.4203  1.1401
21177SOL    HW268470   2.430   6.917   7.991 -2.5162 -0.9588 -0.0058
21178SOL     OW68471   7.844   6.597   7.708 -0.3215  0.3606 -0.1278
21178SOL    HW168472   7.880   6.543   7.637 -0.2851 -0.6158  0.6241
21178SOL    HW268473   7.750   6.596   7.693 -0.3256  0.0413 -0.0853
21179SOL     OW68474   4.404   2.271  10.196 -0.1733  0.2425  0.2299
21179SOL    HW168475   4.441   2.275  10.284 -0.1436  2.2116  0.1726
21179SOL    HW268476   4.335   2.337  10.196 -0.1830  0.2720 -1.2104
21180SOL     OW68477  10.179   4.632   8.420  0.1710  0.3787 -0.0346
21180SOL    HW168478  10.264   4.629   8.374  0.3739 -0.5956  0.3766
21180SOL    HW268479  10.199   4.603   8.509 -0.2851  1.9259  0.5995
21181SOL     OW68480   5.857   6.916   3.258 -0.3349 -0.0179 -0.4733
21181SOL    HW168481   5.901   6.833   3.243 -0.0263  0.1915 -0.7434
21181SOL    HW268482   5.776   6.911   3.206 -0.3481 -0.1708 -0.4383
21182SOL     OW68483   4.780  10.725   2.212  0.2110  0.4216 -0.0790
21182SOL    HW168484   4.740  10.668   2.147  0.5876  0.2477 -0.1589
21182SOL    HW268485   4.765  10.813   2.180  0.7548  0.3245 -0.6118
21183SOL     OW68486   5.182   3.388   6.805 -0.0592  0.3309  0.1829
21183SOL    HW168487   5.219   3.459   6.858 -0.1375  0.9591 -0.5886
21183SOL    HW268488   5.235   3.387   6.726 -0.6457  0.1495 -0.2182
21184SOL     OW68489   2.539   3.048   4.927 -0.7035  0.1029 -0.6659
21184SOL    HW168490   2.447   3.048   4.900 -1.5992  0.0331  2.0770
21184SOL    HW268491   2.548   2.970   4.982  0.8891  0.3141 -0.5925
21185SOL     OW68492  10.525   6.041   9.477 -0.3936  0.3797 -0.1212
21185SOL    HW168493  10.445   6.088   9.500 -0.2942  0.8311 -0.6942
21185SOL    HW268494  10.566   6.094   9.409  1.6685  1.4918  1.8254
21186SOL     OW68495   5.263   7.232   1.040 -0.1500 -0.1936 -0.5928
21186SOL    HW168496   5.254   7.170   0.968  0.5088 -1.4338  0.3454
21186SOL    HW268497   5.346   7.278   1.022  0.0726 -0.5835 -0.5749
21187SOL     OW68498   6.555  11.443   0.641 -0.4629  0.8970 -0.4187
21187SOL    HW168499   6.537  11.455   0.735 -0.3696  1.8763 -0.5158
21187SOL    HW268500   6.643  11.478   0.629  0.3588 -1.1015 -0.5071
21188SOL     OW68501   2.668   9.777  11.613 -0.5488 -0.4783  0.6203
21188SOL    HW168502   2.729   9.839  11.574 -0.0182 -0.0494  2.0592
21188SOL    HW268503   2.719   9.697  11.624 -0.6987 -0.6028  0.4077
21189SOL     OW68504   5.001  10.857   8.201 -0.0945  0.4738  0.8705
21189SOL    HW168505   5.058  10.781   8.216  1.4186  1.0189 -1.4840
21189SOL    HW268506   4.923  10.820   8.159  0.5481  0.1342 -0.0775
21190SOL     OW68507   4.237   8.486   5.697 -0.2613 -0.2078 -0.0220
21190SOL    HW168508   4.146   8.516   5.691 -0.1953 -0.1008 -0.5737
21190SOL    HW268509   4.265   8.477   5.606 -0.6482 -3.0804  0.0556
21191SOL     OW68510   8.071   0.296   2.429  0.0534  0.1836  0.2405
21191SOL    HW168511   8.157   0.263   2.404  1.2403  2.6940  0.7596
21191SOL    HW268512   8.014   0.272   2.355  1.5924  0.0466 -0.9453
21192SOL     OW68513   6.050   7.260   5.216  0.3021  0.2677  0.5853
21192SOL    HW168514   6.038   7.189   5.279 -0.7948 -0.3411 -0.2752
21192SOL    HW268515   6.117   7.228   5.156 -0.5150 -0.2525 -0.0685
21193SOL     OW68516  10.480   1.554   0.435 -0.4156  0.0891 -0.3915
21193SOL    HW168517  10.449   1.507   0.513 -0.6498 -1.9805 -1.6570
21193SOL    HW268518  10.574   1.561   0.448 -0.6314  1.1406  0.7600
21194SOL     OW68519   2.998   3.481   1.697  0.8123  0.0325 -0.1718
21194SOL    HW168520   2.906   3.476   1.672  1.1087 -0.9851 -1.1149
21194SOL    HW268521   2.997   3.470   1.792 -0.1021  0.9731 -0.0533
21195SOL     OW68522   0.813  11.212   2.313 -0.1502 -0.5237 -0.1688
21195SOL    HW168523   0.896  11.253   2.289  0.0082 -0.9102 -0.2993
21195SOL    HW268524   0.834  11.119   2.321 -0.4307 -0.5390  0.4528
21196SOL     OW68525   9.827  10.491  10.148 -0.4886 -0.1413 -0.1717
21196SOL    HW168526   9.798  10.575  10.111  0.1543  0.7797  1.3216
21196SOL    HW268527   9.904  10.468  10.095 -1.4513 -0.5019 -1.4636
21197SOL     OW68528   1.513   5.358  11.055 -0.0130  0.4362 -0.2390
21197SOL    HW168529   1.537   5.450  11.061 -1.9899  1.0411 -0.9627
21197SOL    HW268530   1.541   5.332  10.966  2.1666 -0.2269  0.5633
21198SOL     OW68531   8.034   8.340  11.513 -0.0483 -0.1428  0.1596
21198SOL    HW168532   8.101   8.376  11.570 -0.2432  0.2475  0.1455
21198SOL    HW268533   8.082   8.288  11.449  0.2777  0.4695 -0.0988
21199SOL     OW68534   0.290  10.981   6.093 -0.1873  0.2774 -0.3961
21199SOL    HW168535   0.222  10.916   6.076  0.4592 -0.6256  0.3657
21199SOL    HW268536   0.256  11.033   6.166  0.0462 -0.3448  0.1603
21200SOL     OW68537   3.907  10.319   9.986 -0.1469 -0.4232 -0.2997
21200SOL    HW168538   3.904  10.367  10.068  2.4018 -0.9990  0.2306
21200SOL    HW268539   3.871  10.379   9.921 -1.5608  0.3060  1.0895
21201SOL     OW68540   3.564  11.499   2.387  0.2214  0.0833 -0.2094
21201SOL    HW168541   3.550  11.500   2.482  1.2586  3.4452  0.0413
21201SOL    HW268542   3.539  11.587   2.359  1.6269 -0.2518 -2.7785
21202SOL     OW68543   5.916  10.273   4.860 -0.5424  0.4944  0.3115
21202SOL    HW168544   5.872  10.245   4.941 -0.5309 -2.7878 -0.6819
21202SOL    HW268545   6.003  10.232   4.865 -0.6625 -0.0685 -1.4542
21203SOL     OW68546   3.412   9.293   9.494  0.7942 -0.1825  0.2937
21203SOL    HW168547   3.321   9.322   9.502  1.4010  1.5429  1.9318
21203SOL    HW268548   3.451   9.317   9.578  2.0960 -3.5834  0.8183
21204SOL     OW68549   8.714   0.649   0.736  0.4616 -0.0574 -0.3070
21204SOL    HW168550   8.671   0.574   0.695 -0.1392  1.3525 -2.3997
21204SOL    HW268551   8.808   0.630   0.728  0.3257 -1.2199  0.5279
21205SOL     OW68552   1.563   6.968   1.306  0.6764  0.1539  0.7124
21205SOL    HW168553   1.646   6.920   1.310  2.0281  2.0555 -2.0337
21205SOL    HW268554   1.503   6.908   1.262  0.5933 -1.0944  2.4010
21206SOL     OW68555   5.737   1.805   7.097  0.0280 -0.2026 -0.0292
21206SOL    HW168556   5.731   1.754   7.178  0.6418 -1.0148 -0.4771
21206SOL    HW268557   5.823   1.845   7.100 -0.5207  0.9767  0.3996
21207SOL     OW68558  10.623   5.623  11.488  0.1412 -0.0261 -0.3020
21207SOL    HW168559  10.679   5.654  11.417 -0.6794  0.3311 -0.8085
21207SOL    HW268560  10.665   5.543  11.520  0.8596  0.1676 -0.7585
21208SOL     OW68561   8.112   2.334   1.187 -0.2520 -0.2059 -0.3667
21208SOL    HW168562   8.145   2.275   1.254 -0.2716  0.5513  0.3240
21208SOL    HW268563   8.138   2.293   1.104  0.5928 -0.6749  0.1196
21209SOL     OW68564   1.858   2.643   7.539  0.4442  0.0997 -0.2093
21209SOL    HW168565   1.770   2.681   7.548 -0.4769 -1.4561 -1.9132
21209SOL    HW268566   1.876   2.605   7.624 -0.9577 -0.3581 -0.0889
21210SOL     OW68567   0.758   8.700   8.203  0.1830  0.5099 -0.5780
21210SOL    HW168568   0.807   8.718   8.123  1.3698  0.6899  0.1658
21210SOL    HW268569   0.749   8.605   8.204  0.5565  0.4701 -0.7011
21211SOL     OW68570   9.718   8.079  11.374 -0.0608  0.5930 -0.3419
21211SOL    HW168571   9.733   8.104  11.283  0.1826 -1.8891 -1.0722
21211SOL    HW268572   9.632   8.037  11.373  0.6825 -1.0304  0.1541
21212SOL     OW68573  10.585   2.776   8.962 -0.5921  0.1086 -0.7074
21212SOL    HW168574  10.613   2.697   8.917  0.4389  0.5180 -0.8258
21212SOL    HW268575  10.609   2.847   8.903  0.5932  0.6387  0.3657
21213SOL     OW68576   8.442   4.076  10.451 -0.1363 -0.0247  0.2906
21213SOL    HW168577   8.432   3.982  10.466 -1.3480  0.1037  0.3735
21213SOL    HW268578   8.354   4.111  10.459  0.3027  1.1273  0.2504
21214SOL     OW68579   2.777   0.313   3.452  0.2808 -0.0546 -0.2798
21214SOL    HW168580   2.710   0.380   3.467  0.3745  1.1463 -4.0370
21214SOL    HW268581   2.860   0.357   3.471  0.1867 -0.6689  1.7236
21215SOL     OW68582   5.376   0.693   4.020 -0.5699  0.1047 -0.0117
21215SOL    HW168583   5.461   0.670   4.058 -0.8729 -0.1124  0.5559
21215SOL    HW268584   5.347   0.613   3.975 -0.6954  0.0187  0.2185
21216SOL     OW68585  10.899   9.249   0.326  0.0331 -0.2910  0.0772
21216SOL    HW168586  10.988   9.285   0.324 -0.4257  0.8825 -0.1056
21216SOL    HW268587  10.858   9.290   0.402  0.2946 -2.5410  1.5394
21217SOL     OW68588   3.745  11.282   5.598 -0.6581 -0.3184  0.0983
21217SOL    HW168589   3.658  11.261   5.566 -0.7758 -0.9003  0.7874
21217SOL    HW268590   3.804  11.248   5.531 -0.9399 -0.3710 -0.1245
21218SOL     OW68591   5.537   3.819   8.769 -0.5105  0.2665  0.6087
21218SOL    HW168592   5.608   3.757   8.752 -0.4141  0.6433 -0.4244
21218SOL    HW268593   5.469   3.767   8.810 -0.4250 -0.5376 -0.2323
21219SOL     OW68594   1.652   5.585   5.135 -0.2357  0.7581  0.0756
21219SOL    HW168595   1.589   5.641   5.179 -0.7514  0.5248 -0.3529
21219SOL    HW268596   1.617   5.574   5.046  0.0625  0.0915  0.0316
21220SOL     OW68597   6.733   7.711   5.445 -0.0507 -0.4148  0.0157
21220SOL    HW168598   6.749   7.633   5.498 -2.3517 -0.4796  0.6957
21220SOL    HW268599   6.698   7.775   5.506 -1.2553  0.0464 -1.1176
21221SOL     OW68600   3.732   0.913   5.986  0.0694 -0.4526  0.2239
21221SOL    HW168601   3.786   0.981   5.946 -0.3559 -0.0181  0.3846
21221SOL    HW268602   3.783   0.833   5.974  0.9412  0.0073  0.7117
21222SOL     OW68603   6.133   0.377   9.208 -0.0644  0.1624 -0.2442
21222SOL    HW168604   6.177   0.396   9.291  0.4122  0.3756 -0.5425
21222SOL    HW268605   6.118   0.462   9.168 -0.6981  0.0906 -0.1826
21223SOL     OW68606   2.329   5.581  11.106  0.5723  0.6282  0.2441
21223SOL    HW168607   2.243   5.608  11.073 -0.4181 -1.0014  1.3111
21223SOL    HW268608   2.316   5.572  11.201  1.7461 -0.1900  0.3519
21224SOL     OW68609   2.702   0.574   6.204 -0.7751  0.1460  0.2515
21224SOL    HW168610   2.613   0.541   6.208 -0.9693  0.7625  1.8011
21224SOL    HW268611   2.746   0.534   6.278  0.0159  0.4719 -0.0268
21225SOL     OW68612  10.502  10.578   2.760 -0.0042 -0.0644 -0.3041
21225SOL    HW168613  10.521  10.606   2.670 -1.5224 -2.9955 -1.6912
21225SOL    HW268614  10.564  10.626   2.814  1.3579  1.3933 -2.9765
21226SOL     OW68615   9.758   6.028  11.045 -0.2534  0.0596  0.5809
21226SOL    HW168616   9.695   6.100  11.035  0.1476  0.2163 -1.1951
21226SOL    HW268617   9.797   6.018  10.958  0.5452 -1.5463  1.0791
21227SOL     OW68618   0.172   7.738   5.728  0.1819 -0.1881  0.3815
21227SOL    HW168619   0.217   7.820   5.749  1.1464 -0.6670  0.2493
21227SOL    HW268620   0.082   7.751   5.758  0.2019  1.0848 -0.0635
21228SOL     OW68621   5.455   2.392   4.489 -0.6890 -0.3521 -0.2927
21228SOL    HW168622   5.468   2.421   4.579  1.5695 -1.7538 -0.0953
21228SOL    HW268623   5.376   2.339   4.492  0.5176 -2.2114  1.4043
21229SOL     OW68624   6.077   0.274   8.856  0.0866 -0.2541  0.1454
21229SOL    HW168625   6.120   0.220   8.922 -0.2839  0.2559  0.8195
21229SOL    HW268626   6.148   0.320   8.812  0.3065 -0.2856  0.4694
21230SOL     OW68627   8.928  10.325   7.190  0.0442  0.3110 -0.5309
21230SOL    HW168628   8.880  10.340   7.109 -0.0874  1.6502 -0.2240
21230SOL    HW268629   8.891  10.244   7.225 -0.7770  0.3966 -1.1743
21231SOL     OW68630   0.682   0.831  11.555  0.2447  0.1708 -0.0732
21231SOL    HW168631   0.743   0.847  11.483  0.2051  0.0890 -0.1253
21231SOL    HW268632   0.726   0.765  11.609  0.5334  0.6550  0.2931
21232SOL     OW68633   3.108   2.812  11.008  0.0968 -0.1684  0.5130
21232SOL    HW168634   3.049   2.737  11.014  0.0483 -0.0611  1.7588
21232SOL    HW268635   3.172   2.797  11.078 -0.5116  1.4248  1.4621
21233SOL     OW68636   6.968   8.822   7.854 -0.1159 -0.4699  0.0318
21233SOL    HW168637   6.877   8.802   7.829 -0.6894  2.7647 -1.0006
21233SOL    HW268638   6.988   8.760   7.924 -2.3317 -2.7371 -1.1983
21234SOL     OW68639   3.637   7.765   9.202 -0.3590 -0.0019 -0.1725
21234SOL    HW168640   3.608   7.856   9.197  1.4954  0.6351 -0.4750
21234SOL    HW268641   3.591   7.721   9.130 -2.4386  0.2891  0.9062
21235SOL     OW68642   9.158   3.108   2.584 -0.5882  0.3531 -0.2566
21235SOL    HW168643   9.088   3.163   2.550  0.0670  1.6332  0.3870
21235SOL    HW268644   9.212   3.168   2.636  1.9505 -0.1787 -2.1110
21236SOL     OW68645   2.127   7.404   7.972  0.9760  0.4739 -0.1154
21236SOL    HW168646   2.116   7.370   7.884  2.1876  2.7682 -1.2409
21236SOL    HW268647   2.215   7.377   7.998  0.1963 -1.2378  0.9640
21237SOL     OW68648   2.455   7.016   6.267 -0.7634  0.3783  0.3604
21237SOL    HW168649   2.416   6.943   6.219  1.0756 -0.1141 -0.4690
21237SOL    HW268650   2.421   7.094   6.224  0.8189 -0.0534 -1.8544
21238SOL     OW68651   2.308   0.254   1.585 -0.5142 -0.6633  0.3839
21238SOL    HW168652   2.314   0.159   1.585  0.8047 -0.6015  0.0047
21238SOL    HW268653   2.333   0.280   1.496 -0.7067  0.0499  0.5277
21239SOL     OW68654  10.237   3.283   3.888 -0.2514 -0.7694  0.0431
21239SOL    HW168655  10.164   3.289   3.826 -0.2293 -1.7554 -0.0914
21239SOL    HW268656  10.239   3.369   3.930 -1.1486 -0.5469 -0.3352
21240SOL     OW68657   6.005   7.742  10.969  0.1844 -0.2208  0.0018
21240SOL    HW168658   6.043   7.719  11.054 -0.1427  1.0487  0.5093
21240SOL    HW268659   5.941   7.673  10.952  0.5108 -0.6789  0.6089
21241SOL     OW68660   8.515   4.679   0.257  0.6793  0.5574 -0.1425
21241SOL    HW168661   8.525   4.597   0.209  0.6386  0.5375 -0.1172
21241SOL    HW268662   8.586   4.678   0.321  0.1306  0.1111  0.4765
21242SOL     OW68663   2.491   3.821  10.308  0.1637  0.1469 -0.5544
21242SOL    HW168664   2.495   3.727  10.325 -1.6027  0.1262 -0.0188
21242SOL    HW268665   2.530   3.861  10.385 -1.3655 -0.1302  0.4164
21243SOL     OW68666   0.976   7.061   0.207 -0.1377 -0.1558  0.1370
21243SOL    HW168667   1.032   7.130   0.170  1.6423 -1.8833 -0.5861
21243SOL    HW268668   0.954   7.005   0.132 -0.5914 -0.9916  0.8768
21244SOL     OW68669   5.761   9.004   4.254  0.0324 -0.1403  0.0070
21244SOL    HW168670   5.849   8.978   4.282  0.1186  0.0355 -0.0966
21244SOL    HW268671   5.703   8.941   4.297  0.3712 -1.9085 -1.9061
21245SOL     OW68672   7.220   9.991   4.412 -0.5151 -0.0196 -0.5554
21245SOL    HW168673   7.212  10.081   4.379  3.3640  0.2353 -1.3454
21245SOL    HW268674   7.238   9.939   4.334 -1.1513 -1.2145  0.0761
21246SOL     OW68675   2.568   4.219   4.257  0.4039  0.8349 -0.0127
21246SOL    HW168676   2.662   4.232   4.242  0.4687 -1.0702 -1.6695
21246SOL    HW268677   2.563   4.147   4.319  0.0146  1.1596  0.3397
21247SOL     OW68678   6.821   2.761   8.351 -0.3886 -0.2151  0.3390
21247SOL    HW168679   6.803   2.839   8.300  1.4546 -1.1825 -1.9819
21247SOL    HW268680   6.901   2.782   8.399 -0.4595 -0.3281  0.5089
21248SOL     OW68681   4.292   4.023  10.117  0.7208 -0.0935  0.9340
21248SOL    HW168682   4.321   4.093  10.059 -1.8505  0.2634 -0.0532
21248SOL    HW268683   4.361   4.016  10.183  2.2126  1.6660 -0.3528
21249SOL     OW68684  10.889   2.749   4.191 -0.2508  0.0494 -0.2252
21249SOL    HW168685  10.881   2.817   4.124  1.4748  0.5791  0.0502
21249SOL    HW268686  10.805   2.705   4.191 -1.7520  2.7103  0.1399
21250SOL     OW68687   7.420   0.863   3.892 -0.2964  0.5115  0.1151
21250SOL    HW168688   7.343   0.920   3.888 -1.4709 -1.0763 -1.5065
21250SOL    HW268689   7.463   0.875   3.808  0.4397  0.3245  0.4555
21251SOL     OW68690   7.414   7.361  10.009 -0.4934  0.3076  0.0383
21251SOL    HW168691   7.415   7.293   9.941 -0.7559  0.0635  0.2713
21251SOL    HW268692   7.344   7.333  10.068 -2.1731  1.9506 -1.0656
21252SOL     OW68693   6.277   2.279   8.128 -0.1026 -0.2977 -0.9487
21252SOL    HW168694   6.358   2.235   8.153 -0.7899 -0.6850  0.8260
21252SOL    HW268695   6.276   2.359   8.181 -2.1244 -1.6559  1.2749
21253SOL     OW68696   2.002   8.903   1.871  0.3354 -0.2203 -0.4964
21253SOL    HW168697   2.018   8.973   1.935  0.2633  0.6832 -1.4402
21253SOL    HW268698   1.965   8.831   1.923 -1.2256  1.0487  0.2525
21254SOL     OW68699  11.098   9.596  11.340  0.3781  0.0680  0.6091
21254SOL    HW168700  11.189   9.619  11.320  0.0767  0.2586 -0.6290
21254SOL    HW268701  11.101   9.503  11.361  0.9878  0.2764  1.4866
21255SOL     OW68702  10.366   2.002  10.746 -0.2202  0.0018  0.1881
21255SOL    HW168703  10.345   1.953  10.667  0.5851  0.2521 -0.1863
21255SOL    HW268704  10.391   2.089  10.715 -1.3490  0.5787  0.8203
21256SOL     OW68705   2.549   7.717   9.786 -0.2327 -0.6568 -0.3495
21256SOL    HW168706   2.558   7.762   9.702  0.4631 -0.8694 -0.3986
21256SOL    HW268707   2.534   7.626   9.763 -1.0616 -0.5577 -0.2438
21257SOL     OW68708   0.174   5.736   3.140 -0.3891  0.6956  0.0770
21257SOL    HW168709   0.219   5.790   3.075  0.6935  1.1964  1.2106
21257SOL    HW268710   0.161   5.652   3.096  1.0198  0.7685 -0.5374
21258SOL     OW68711   3.978  10.994  10.453  0.0697  0.2010  0.5695
21258SOL    HW168712   3.984  11.088  10.432 -0.7970  0.3764  1.0234
21258SOL    HW268713   4.067  10.962  10.444  0.3781  1.0667  0.3660
21259SOL     OW68714   5.031  10.708   7.875 -0.3169  0.3636 -0.1999
21259SOL    HW168715   4.983  10.662   7.944 -0.2523  0.4604 -0.0913
21259SOL    HW268716   5.097  10.759   7.921  0.9894 -1.0260 -0.4243
21260SOL     OW68717   1.482   4.689   2.079 -0.5120 -0.1211  0.0947
21260SOL    HW168718   1.407   4.674   2.138 -0.5841  0.1831  0.0797
21260SOL    HW268719   1.444   4.733   2.003 -0.3620 -0.2158 -0.0350
21261SOL     OW68720   5.264   6.886   5.444  0.4274  0.1351  0.0700
21261SOL    HW168721   5.315   6.928   5.375  2.4875  0.3126  1.6094
21261SOL    HW268722   5.250   6.955   5.508  1.4623 -0.7934  1.3464
21262SOL     OW68723   5.976   3.760   3.095 -0.7752  0.4022 -0.4167
21262SOL    HW168724   5.894   3.746   3.048 -0.9069 -1.1266  0.2015
21262SOL    HW268725   6.039   3.784   3.027 -0.9886 -1.6106 -1.3963
21263SOL     OW68726   5.594   0.674   4.887  0.2632  0.1707 -0.4477
21263SOL    HW168727   5.571   0.629   4.968  1.0248 -1.4620 -1.1044
21263SOL    HW268728   5.518   0.728   4.867 -0.5121 -0.5130  0.5857
21264SOL     OW68729   3.975   4.315   6.039 -0.0037 -0.3832 -0.0574
21264SOL    HW168730   3.886   4.287   6.060  0.0958 -0.8719 -0.2588
21264SOL    HW268731   3.967   4.366   5.959 -0.1235 -0.2811  0.0196
21265SOL     OW68732   6.626   9.807   9.544  0.1472 -0.0780 -0.2170
21265SOL    HW168733   6.662   9.719   9.556  2.8010  0.9406  0.0559
21265SOL    HW268734   6.688   9.864   9.590  0.2022  2.2180 -2.8892
21266SOL     OW68735   7.811   7.245   1.260 -0.1051 -0.1289  0.0365
21266SOL    HW168736   7.806   7.184   1.334 -1.6176 -1.8050 -1.3729
21266SOL    HW268737   7.730   7.296   1.266 -0.8302 -1.1128 -1.1327
21267SOL     OW68738   7.986   6.325  11.099  1.0335  0.2420  0.1063
21267SOL    HW168739   8.060   6.353  11.154 -0.4242 -0.3134  2.5328
21267SOL    HW268740   8.014   6.241  11.062  1.6594  0.0704  0.9378
21268SOL     OW68741   6.498   7.760   0.068  0.3741 -0.2244 -0.0648
21268SOL    HW168742   6.557   7.835   0.070  0.4919 -0.3263  0.6635
21268SOL    HW268743   6.428   7.785   0.008 -0.8842  1.4453  1.9657
21269SOL     OW68744  11.030   5.493   0.412  0.1416  0.7677 -0.1835
21269SOL    HW168745  11.095   5.523   0.476 -0.3208  1.7048 -0.1361
21269SOL    HW268746  11.051   5.541   0.332 -0.6112  1.2432 -0.1083
21270SOL     OW68747   3.081   3.534   2.453  0.3776 -0.8243 -0.7439
21270SOL    HW168748   3.006   3.558   2.508 -0.1817 -2.0719 -0.9130
21270SOL    HW268749   3.093   3.608   2.394  1.3222  0.7922  1.3584
21271SOL     OW68750   1.313   7.087   3.712  0.3669  0.1495  0.7901
21271SOL    HW168751   1.260   7.138   3.774 -0.8408  0.5794 -0.5504
21271SOL    HW268752   1.368   7.152   3.668  0.7279 -0.0626  0.9253
21272SOL     OW68753   4.470   9.098   3.588  0.2667 -0.3701  0.2664
21272SOL    HW168754   4.550   9.108   3.535  1.0287 -1.0685  1.2296
21272SOL    HW268755   4.411   9.047   3.533  0.0222  1.0990 -0.8995
21273SOL     OW68756   3.701   5.079   2.945 -0.4238 -0.6046  0.1434
21273SOL    HW168757   3.688   5.046   3.034 -0.7193  1.3684  0.8850
21273SOL    HW268758   3.680   5.172   2.951  3.1784  0.4585 -1.1550
21274SOL     OW68759  10.474   7.037   7.574 -0.0224 -0.2099 -0.4015
21274SOL    HW168760  10.568   7.042   7.593 -0.1283  2.7889 -0.3300
21274SOL    HW268761  10.465   6.955   7.524  2.8607  0.1445 -1.7148
21275SOL     OW68762   4.433   9.637   5.742 -0.3422  0.3867 -0.3434
21275SOL    HW168763   4.397   9.718   5.779  1.0331 -0.1360  2.3527
21275SOL    HW268764   4.447   9.658   5.650 -0.5576  3.0243  0.1279
21276SOL     OW68765   1.990   7.112  11.245 -0.4278 -0.6484 -0.0508
21276SOL    HW168766   2.020   7.049  11.311 -0.2615  0.5883  1.1093
21276SOL    HW268767   1.915   7.155  11.286  0.6729  1.2699  0.0490
21277SOL     OW68768   7.219   1.436   8.657  0.1085 -0.5524  0.1813
21277SOL    HW168769   7.205   1.485   8.738 -0.0069 -0.9377  0.3925
21277SOL    HW268770   7.144   1.377   8.650 -1.3286  1.3258 -1.5914
21278SOL     OW68771   2.300   1.429   7.539  0.3774 -0.2861  0.3482
21278SOL    HW168772   2.345   1.364   7.485  0.0746 -0.6482  0.5211
21278SOL    HW268773   2.341   1.419   7.626 -0.5495 -1.1720  0.7126
21279SOL     OW68774   0.467   8.505   0.346  0.1082 -0.3979  0.2397
21279SOL    HW168775   0.472   8.511   0.442  0.1932  0.7561  0.1788
21279SOL    HW268776   0.451   8.413   0.329  0.8192 -0.7531  1.3375
21280SOL     OW68777   0.946   2.592   6.704 -0.4317 -0.1017  0.0443
21280SOL    HW168778   1.017   2.645   6.667 -0.6167 -0.0899 -0.2981
21280SOL    HW268779   0.989   2.535   6.768 -0.0688 -0.2993 -0.3684
21281SOL     OW68780   5.493   4.785   3.558 -0.6966 -0.4057 -0.4392
21281SOL    HW168781   5.502   4.867   3.511  0.4584 -0.4459 -0.3134
21281SOL    HW268782   5.580   4.745   3.554 -0.7662 -0.7548  1.0856
21282SOL     OW68783   1.091  10.530   3.020 -0.0085  0.0605  0.1443
21282SOL    HW168784   1.010  10.480   3.026 -0.1175  0.2150 -0.0224
21282SOL    HW268785   1.127  10.530   3.109 -0.8822  1.1287  0.5211
21283SOL     OW68786   9.128   4.063   1.022  0.2079 -0.3906  0.4923
21283SOL    HW168787   9.170   4.110   1.094  2.2502 -0.7604 -0.3856
21283SOL    HW268788   9.087   4.131   0.969  0.4521  0.0942  0.9181
21284SOL     OW68789  11.066   3.900   4.575 -0.2900 -0.5404 -0.2006
21284SOL    HW168790  11.121   3.872   4.649 -0.2813  0.0849  0.0387
21284SOL    HW268791  11.110   3.864   4.498  0.8966  0.5759 -0.0825
21285SOL     OW68792   1.442   1.436   4.871 -0.0580 -0.2875 -0.1807
21285SOL    HW168793   1.390   1.355   4.866 -0.4593  0.0111 -1.0479
21285SOL    HW268794   1.377   1.504   4.888  0.1786 -0.0509 -0.2265
21286SOL     OW68795   8.730   7.067   1.079  0.3409  0.0285 -0.7378
21286SOL    HW168796   8.661   7.003   1.093 -0.6413  0.9818 -1.0836
21286SOL    HW268797   8.781   7.032   1.005 -0.1561 -0.3693 -0.8953
21287SOL     OW68798   1.312   7.511   0.537 -0.9933  0.4967 -0.0483
21287SOL    HW168799   1.311   7.498   0.631 -0.1757 -0.7793 -0.2026
21287SOL    HW268800   1.333   7.604   0.526 -0.1447  0.4513  1.0134
21288SOL     OW68801   9.828  10.054  11.197 -0.3105 -0.9336 -0.2529
21288SOL    HW168802   9.795  10.106  11.124 -1.3126 -1.3536 -0.1155
21288SOL    HW268803   9.759   9.990  11.214  0.0849 -1.0946  0.8131
21289SOL     OW68804   4.151   9.800   6.269  0.2308 -0.2357 -0.2875
21289SOL    HW168805   4.092   9.875   6.277  1.1466  0.5663 -0.8429
21289SOL    HW268806   4.229   9.835   6.227  1.3125 -1.1725  0.8762
21290SOL     OW68807   1.495   8.424   1.350 -0.0274  0.3073 -0.0624
21290SOL    HW168808   1.480   8.373   1.429  0.2981 -0.4144 -0.4533
21290SOL    HW268809   1.544   8.365   1.292 -0.3835  0.7685 -0.8583
21291SOL     OW68810   1.709   1.565   4.756 -0.1371  0.9184  0.6323
21291SOL    HW168811   1.631   1.519   4.786 -0.5815  1.1607 -0.1316
21291SOL    HW268812   1.676   1.645   4.716  0.5860  1.5996  1.3622
21292SOL     OW68813   3.635   4.206   3.131 -0.1174  0.0196  0.3066
21292SOL    HW168814   3.715   4.154   3.128  1.5173  2.1796  2.2588
21292SOL    HW268815   3.635   4.254   3.047  1.8419  1.5000  1.0577
21293SOL     OW68816   4.183   1.184  10.032 -0.0808 -0.4104  0.0519
21293SOL    HW168817   4.137   1.231  10.101  0.0804 -0.1856  0.0085
21293SOL    HW268818   4.117   1.167   9.965  0.2852  1.6682 -0.9332
21294SOL     OW68819   6.431   6.046   8.663  0.3958 -0.2905 -0.1726
21294SOL    HW168820   6.372   6.112   8.627  0.8389  0.2201  0.0253
21294SOL    HW268821   6.424   5.972   8.603 -1.0045 -0.5332  0.2389
21295SOL     OW68822   4.327   8.984   1.143 -0.4151 -0.0028 -0.0657
21295SOL    HW168823   4.358   8.911   1.197 -0.4690  0.5827  0.7768
21295SOL    HW268824   4.234   8.991   1.163 -1.0181 -1.3350 -2.1019
21296SOL     OW68825   1.950   8.488   2.177 -0.0063 -0.0973 -0.2333
21296SOL    HW168826   2.044   8.507   2.184  0.2731 -1.7188  0.9827
21296SOL    HW268827   1.929   8.446   2.260 -2.1618  1.5776  0.1370
21297SOL     OW68828  11.068   4.824   3.125  0.1673 -0.0463 -0.0814
21297SOL    HW168829  11.036   4.775   3.201  0.5802 -1.7111 -0.9531
21297SOL    HW268830  11.080   4.913   3.159 -2.7104  0.0443  0.9667
21298SOL     OW68831   4.776   3.349  11.524  0.2114  0.4666  0.0500
21298SOL    HW168832   4.838   3.420  11.541  1.3017 -1.0084  2.7833
21298SOL    HW268833   4.703   3.365  11.584 -1.6323  1.5052 -2.2825
21299SOL     OW68834   2.239   9.014   0.290  0.1226  0.3937 -0.6644
21299SOL    HW168835   2.327   9.001   0.325 -0.0104  1.0077 -0.0854
21299SOL    HW268836   2.245   8.988   0.198  0.8834  0.3369 -0.6007
21300SOL     OW68837   7.905   3.932  10.530  0.2090 -0.1878 -0.2941
21300SOL    HW168838   7.835   3.938  10.595  0.5622 -0.5371  0.1230
21300SOL    HW268839   7.859   3.928  10.446 -0.2680 -0.2627 -0.0345
21301SOL     OW68840   0.623   5.868   3.152  0.0541  0.0527  0.1795
21301SOL    HW168841   0.607   5.949   3.103  1.7097  0.6709  0.6125
21301SOL    HW268842   0.577   5.881   3.235  3.5569  2.4304  2.0114
21302SOL     OW68843   2.753   3.587   2.892 -0.1874 -0.4202  0.3723
21302SOL    HW168844   2.679   3.528   2.907  0.0162 -0.6841  0.3520
21302SOL    HW268845   2.805   3.581   2.972 -0.7736  0.6339  0.8494
21303SOL     OW68846   1.108   7.755   6.740 -0.2444 -0.3894 -0.3000
21303SOL    HW168847   1.169   7.754   6.813 -2.1615 -0.0861  1.3737
21303SOL    HW268848   1.066   7.669   6.742 -1.0292 -0.0178 -0.3944
21304SOL     OW68849   6.910  10.213   5.787 -0.0576  0.0441  0.1117
21304SOL    HW168850   6.835  10.268   5.763 -0.6878 -0.5812  0.6278
21304SOL    HW268851   6.916  10.221   5.882  1.4150  1.2014 -0.0484
21305SOL     OW68852   0.874  11.021   7.993  0.6039 -0.2133  0.1104
21305SOL    HW168853   0.868  11.107   8.034 -0.0411 -0.2115  0.0185
21305SOL    HW268854   0.963  11.018   7.958  0.6666  0.3721  0.2049
21306SOL     OW68855   6.009   9.997   5.775 -0.5548  0.0861 -0.2026
21306SOL    HW168856   5.920   9.995   5.739 -0.6070  0.4116 -0.0997
21306SOL    HW268857   6.048   9.913   5.750 -0.4878  0.4321 -1.2709
21307SOL     OW68858   6.948   6.914   1.065 -0.5950  0.7753  0.1871
21307SOL    HW168859   6.919   6.912   0.974  1.0243  1.2404 -0.3767
21307SOL    HW268860   6.950   7.007   1.087  0.2529  0.7455  0.2641
21308SOL     OW68861   6.282   3.984   4.599 -0.3251 -0.2648 -0.6476
21308SOL    HW168862   6.256   3.893   4.615  0.7749 -0.6988 -1.2171
21308SOL    HW268863   6.372   3.978   4.567  0.5069  1.1602  1.2306
21309SOL     OW68864  10.502   2.154   9.042  0.0428 -0.2591  0.7270
21309SOL    HW168865  10.562   2.101   8.990 -0.2360  0.6359 -0.5675
21309SOL    HW268866  10.525   2.245   9.021 -2.3070  0.1398 -0.5842
21310SOL     OW68867   5.999   9.273   4.121 -0.4609  0.3704  0.6514
21310SOL    HW168868   6.079   9.325   4.120  0.0133 -0.3599 -0.0580
21310SOL    HW268869   6.005   9.222   4.202 -0.9244  1.3992  1.3441
21311SOL     OW68870   5.717   6.524   2.506 -0.7427 -0.8531  0.0784
21311SOL    HW168871   5.725   6.612   2.542 -1.0389 -1.0634  0.6676
21311SOL    HW268872   5.771   6.525   2.427  0.8140 -0.7149  1.1253
21312SOL     OW68873   0.729   7.790   7.956 -0.1467 -0.0172  0.2488
21312SOL    HW168874   0.668   7.750   8.019 -0.5587 -0.3004 -0.3255
21312SOL    HW268875   0.757   7.717   7.901  0.2428  0.2274  0.1227
21313SOL     OW68876   6.009   1.294   7.609 -0.2453 -0.1016  0.5106
21313SOL    HW168877   5.949   1.260   7.675 -0.4357  0.0441  0.4111
21313SOL    HW268878   5.993   1.388   7.607 -0.6281 -0.1748 -0.1334
21314SOL     OW68879   6.069   4.987   8.826  0.2642 -0.0594  0.5056
21314SOL    HW168880   6.101   5.046   8.894  1.6203 -0.1432 -0.0157
21314SOL    HW268881   6.038   5.045   8.757  2.6198  0.1466 -0.4842
21315SOL     OW68882   5.726   7.552  10.707 -0.6565 -0.6397 -0.2010
21315SOL    HW168883   5.805   7.601  10.731  0.7781 -1.0319 -3.5041
21315SOL    HW268884   5.654   7.606  10.738  0.8996  1.6544 -0.2945
21316SOL     OW68885  10.345  11.225   6.023  0.5137 -0.0881 -0.8664
21316SOL    HW168886  10.398  11.259   6.095  0.0555  0.7482 -0.9091
21316SOL    HW268887  10.407  11.208   5.953  1.0223 -1.2953 -0.1595
21317SOL     OW68888   7.861  11.322   4.424  0.5858  0.3035  0.3039
21317SOL    HW168889   7.905  11.256   4.477  1.2659  1.5693  1.3751
21317SOL    HW268890   7.926  11.348   4.359  1.2329  1.6756  1.4522
21318SOL     OW68891   3.015  11.036   4.621 -0.0410  0.0371  0.3935
21318SOL    HW168892   3.110  11.033   4.613  0.0762  0.6963  1.4515
21318SOL    HW268893   2.986  11.083   4.542  0.3422 -1.7383 -0.8647
21319SOL     OW68894   1.393  11.536   6.453 -0.2649  0.0126 -0.2617
21319SOL    HW168895   1.429  11.498   6.373  1.7988  2.0605 -0.4012
21319SOL    HW268896   1.444  11.496   6.524 -1.7008 -1.3675  0.0396
21320SOL     OW68897   1.791   3.358   6.166 -0.2858 -0.0458 -0.1032
21320SOL    HW168898   1.804   3.382   6.074 -0.7616 -0.7453 -0.3608
21320SOL    HW268899   1.696   3.348   6.174 -0.1449 -1.2870  0.1271
21321SOL     OW68900   4.110   0.993   2.308  0.4987  0.0185 -0.2353
21321SOL    HW168901   4.062   0.964   2.230  0.7389  1.0525 -0.7908
21321SOL    HW268902   4.042   1.004   2.375 -0.3553  2.7934 -1.3845
21322SOL     OW68903  10.414   1.831   0.718  0.5228 -0.4196  0.2449
21322SOL    HW168904  10.426   1.768   0.789  0.1806  1.2905  1.9083
21322SOL    HW268905  10.327   1.812   0.683  0.8749 -1.5675 -0.0719
21323SOL     OW68906   3.856   2.019   2.861 -0.4628 -0.0056  0.2166
21323SOL    HW168907   3.904   2.002   2.942 -1.2751  0.0216  0.7125
21323SOL    HW268908   3.773   1.974   2.872  0.3400 -2.1556 -1.6484
21324SOL     OW68909   2.624   4.652   3.420 -0.8920 -0.0696  0.5980
21324SOL    HW168910   2.694   4.673   3.481 -2.0789  0.0175  1.9797
21324SOL    HW268911   2.555   4.716   3.440 -1.2329  0.1230 -1.0134
21325SOL     OW68912   7.749   9.272   2.526  0.6490 -0.2328  0.6599
21325SOL    HW168913   7.829   9.260   2.476  1.3723 -0.8935  1.9055
21325SOL    HW268914   7.717   9.359   2.502  2.4256  0.5653  1.0571
21326SOL     OW68915   0.194  11.091   3.059 -0.0650  0.5045 -0.8475
21326SOL    HW168916   0.180  11.132   3.145 -0.3502 -0.9964 -0.1310
21326SOL    HW268917   0.288  11.096   3.046  0.4348 -1.8873  1.0319
21327SOL     OW68918   5.947   2.165   0.991  0.3205 -0.0393 -0.1867
21327SOL    HW168919   5.951   2.219   0.912 -1.4957  0.3963 -0.0229
21327SOL    HW268920   5.892   2.215   1.052 -1.4016 -1.9908 -0.0130
21328SOL     OW68921  11.431   6.577   6.856  0.5258  0.1286 -0.3240
21328SOL    HW168922  11.421   6.665   6.892  0.5380  0.3198 -0.7777
21328SOL    HW268923  11.446   6.521   6.932 -0.1904  0.4105  0.0297
21329SOL     OW68924   6.925   7.929   2.546 -0.2682 -0.2002  0.5059
21329SOL    HW168925   6.976   7.988   2.602 -0.6262  0.3424  0.2634
21329SOL    HW268926   6.956   7.947   2.458 -0.6219 -0.1351  0.3957
21330SOL     OW68927   7.433   2.506   5.408  0.1070  0.3503  0.3095
21330SOL    HW168928   7.427   2.410   5.405  0.2538  0.2379  2.3369
21330SOL    HW268929   7.417   2.528   5.500  0.6307  2.2387 -0.0148
21331SOL     OW68930   6.392   5.309   6.127  0.2732 -0.0209  0.0859
21331SOL    HW168931   6.304   5.339   6.152  0.6541  1.3023 -0.0865
21331SOL    HW268932   6.417   5.250   6.198  0.7558  2.5452  2.2236
21332SOL     OW68933   2.319   0.850   8.540 -0.5053  0.3782 -0.8464
21332SOL    HW168934   2.241   0.795   8.545 -0.0221 -0.2072  1.1716
21332SOL    HW268935   2.293   0.933   8.580  0.0306 -0.0364  0.4285
21333SOL     OW68936   8.031   9.411   2.632 -0.0275 -0.3110  0.2170
21333SOL    HW168937   8.013   9.460   2.712 -1.7358 -2.5926  1.3638
21333SOL    HW268938   7.962   9.436   2.571  1.4829  1.7044 -0.7829
21334SOL     OW68939   9.532   6.594  10.848  0.0344  0.3488 -0.8138
21334SOL    HW168940   9.522   6.508  10.888 -1.8414  0.5115 -0.8523
21334SOL    HW268941   9.513   6.580  10.756 -1.2495  0.9519 -0.6592
21335SOL     OW68942  10.844  10.219   3.013  0.3006  0.1221  0.0123
21335SOL    HW168943  10.908  10.156   2.981 -1.4630 -2.2788  0.9290
21335SOL    HW268944  10.827  10.193   3.103 -2.6543 -0.0149 -0.4659
21336SOL     OW68945   7.796   6.372   3.199 -0.6590  0.0153  0.5287
21336SOL    HW168946   7.718   6.409   3.242 -2.2688  0.0394 -2.2038
21336SOL    HW268947   7.827   6.443   3.142  1.1751 -0.1467  1.2631
21337SOL     OW68948   7.387   3.937   9.664 -0.1598  0.1469 -0.5978
21337SOL    HW168949   7.312   3.952   9.721 -1.5891 -1.8898 -1.7966
21337SOL    HW268950   7.349   3.916   9.579  1.8642  1.4974 -1.9269
21338SOL     OW68951   7.309  10.644   3.810 -0.0901 -0.1095 -0.3886
21338SOL    HW168952   7.352  10.712   3.757 -0.6766  1.6211  1.2527
21338SOL    HW268953   7.351  10.562   3.783  2.2621  1.1584 -0.8390
21339SOL     OW68954   8.748  10.366   7.531  0.5256  0.1932  0.3951
21339SOL    HW168955   8.843  10.360   7.542  0.3906  0.5469  1.9018
21339SOL    HW268956   8.712  10.319   7.606 -0.5255 -1.9689 -1.3638
21340SOL     OW68957   0.387  10.674   1.593 -0.1854  0.1856  0.1750
21340SOL    HW168958   0.308  10.719   1.620 -0.0282 -0.6589  2.2518
21340SOL    HW268959   0.414  10.624   1.671  1.4860 -0.8048 -0.9706
21341SOL     OW68960   5.525   8.495   0.804  0.3300 -0.3424 -0.4262
21341SOL    HW168961   5.547   8.577   0.847  0.4419 -2.0041  3.0531
21341SOL    HW268962   5.610   8.456   0.782  0.2956  0.1221 -1.4291
21342SOL     OW68963   7.662   3.714   1.481  0.3598  0.1136 -0.0950
21342SOL    HW168964   7.603   3.746   1.413 -0.2594  1.4803  1.0220
21342SOL    HW268965   7.617   3.735   1.563  1.7757 -0.0594  0.7574
21343SOL     OW68966   2.653   3.557  10.993  0.4887  0.1715  0.1596
21343SOL    HW168967   2.614   3.644  10.983 -0.0194  0.0145  0.7610
21343SOL    HW268968   2.582   3.496  10.973  1.4819 -0.1472 -2.8425
21344SOL     OW68969   8.804   7.188  10.005  0.0664  0.0042 -0.2890
21344SOL    HW168970   8.850   7.105   9.987  0.0430  0.1744 -1.2057
21344SOL    HW268971   8.869   7.242  10.049 -0.2252 -0.8466  1.2641
21345SOL     OW68972   2.059   4.158   1.472  0.1388 -0.6805 -0.4066
21345SOL    HW168973   2.112   4.238   1.474 -0.0012 -0.5922  0.7831
21345SOL    HW268974   1.988   4.176   1.534  0.0645 -1.6862 -0.1886
21346SOL     OW68975   6.821   0.068   2.725  0.5426  0.4118 -0.0154
21346SOL    HW168976   6.762   0.017   2.780  0.2179  0.0287 -0.7103
21346SOL    HW268977   6.844   0.144   2.779  0.8488 -0.3426  0.9430
21347SOL     OW68978   9.440   2.925   1.917  0.0916 -0.0549 -0.9116
21347SOL    HW168979   9.534   2.915   1.924  0.2496  2.2874  2.1571
21347SOL    HW268980   9.427   2.980   1.839  1.5171  1.5633 -0.0739
21348SOL     OW68981   2.986   8.794   0.679  0.3008  0.3142 -0.3729
21348SOL    HW168982   2.978   8.704   0.711  0.6464  0.4828  0.2096
21348SOL    HW268983   3.042   8.788   0.601 -0.7573 -0.1336 -1.1143
21349SOL     OW68984  10.830   4.499   6.661  0.7061  0.9003  0.2040
21349SOL    HW168985  10.851   4.511   6.568 -0.0484 -0.2205 -0.1349
21349SOL    HW268986  10.900   4.442   6.694  0.7222  0.9271  0.2165
21350SOL     OW68987   9.905   8.458   2.137 -0.2346 -0.0220 -0.2874
21350SOL    HW168988   9.895   8.547   2.103 -0.0353  0.6832  1.3845
21350SOL    HW268989   9.956   8.469   2.218  0.8001 -1.8005 -0.6574
21351SOL     OW68990   9.459   2.743   3.346  0.3519 -0.4698  0.6796
21351SOL    HW168991   9.520   2.769   3.276  0.8822 -1.0102  0.9345
21351SOL    HW268992   9.457   2.648   3.342  0.0524 -0.4840  1.1281
21352SOL     OW68993  10.640   9.917   5.026  0.3674  0.0164  0.0784
21352SOL    HW168994  10.676   9.945   5.109 -1.5736  0.7453  0.7366
21352SOL    HW268995  10.641   9.995   4.970  0.5442 -0.1621 -0.1747
21353SOL     OW68996   4.738   3.846  11.113  0.1195  0.1010 -0.2441
21353SOL    HW168997   4.769   3.782  11.177  0.6277  2.2027  1.7364
21353SOL    HW268998   4.813   3.904  11.098 -0.6709  0.9594 -1.0370
21354SOL     OW68999  11.675   8.534   0.743  0.8595  0.0654  0.6342
21354SOL    HW169000  11.672   8.629   0.753 -0.1897 -0.0270  1.2651
21354SOL    HW269001  11.693   8.501   0.831  0.9671 -0.3329  0.4630
21355SOL     OW69002   4.779   9.810   0.679  0.1193 -0.2729  0.3038
21355SOL    HW169003   4.749   9.732   0.726 -1.6361  0.1148 -0.0951
21355SOL    HW269004   4.796   9.779   0.590 -1.8772 -0.0162 -0.2250
21356SOL     OW69005   6.438   5.539   3.735 -0.0226 -0.0015  0.0641
21356SOL    HW169006   6.462   5.545   3.828 -2.6423  0.1555  0.7973
21356SOL    HW269007   6.357   5.488   3.735  0.7583 -1.3789 -2.3270
21357SOL     OW69008   9.481  10.133  10.044  0.3251 -0.2303  0.3892
21357SOL    HW169009   9.477  10.139  10.139 -0.0055 -0.3378  0.3828
21357SOL    HW269010   9.452  10.044  10.024  2.0506 -0.8057  0.2924
21358SOL     OW69011   9.474   9.835   5.934  0.5176 -0.0160  0.2827
21358SOL    HW169012   9.558   9.801   5.964  1.7358  1.0852 -1.6861
21358SOL    HW269013   9.486   9.851   5.841 -2.0286 -0.1864 -0.1472
21359SOL     OW69014   9.082   6.609   8.430 -0.1042  0.2449  0.2779
21359SOL    HW169015   9.125   6.640   8.509  0.3441  0.4101 -0.0272
21359SOL    HW269016   9.081   6.685   8.371  1.2391 -0.3607 -0.5739
21360SOL     OW69017   0.063   5.030   0.607  0.2635 -0.1614  0.0360
21360SOL    HW169018   0.019   4.967   0.550 -0.2469  0.4963 -0.3137
21360SOL    HW269019   0.140   5.058   0.557 -0.0819  0.2734 -0.2642
21361SOL     OW69020   6.967   5.005   2.173 -0.1796  0.3451  0.2535
21361SOL    HW169021   6.994   4.978   2.261 -0.9270 -1.0075  0.1041
21361SOL    HW269022   6.984   4.928   2.118 -1.9815  0.2900 -0.2930
21362SOL     OW69023   0.079   5.999  10.074 -0.2603 -0.1785 -0.0953
21362SOL    HW169024   0.029   6.028   9.998 -0.5303  0.2480  0.2364
21362SOL    HW269025   0.150   5.946  10.038 -0.7943 -0.5684 -0.5879
21363SOL     OW69026   0.401  10.033   4.564  0.3625  0.2848  0.0761
21363SOL    HW169027   0.326  10.011   4.620 -0.5264  0.0121 -1.1570
21363SOL    HW269028   0.463   9.961   4.577 -0.2629 -0.2864 -0.0279
21364SOL     OW69029   5.854   1.269  11.154  0.2256  0.0412  1.1691
21364SOL    HW169030   5.939   1.307  11.131 -0.0929  0.1563  0.1093
21364SOL    HW269031   5.841   1.200  11.089 -1.3606  1.3026  0.0674
21365SOL     OW69032   8.858  10.708   2.783  0.3122 -0.1091  0.2133
21365SOL    HW169033   8.778  10.656   2.771 -0.3774  0.8178  0.7412
21365SOL    HW269034   8.852  10.777   2.718  0.1090  0.6463  1.0180
21366SOL     OW69035   1.510   9.305  10.373  0.1916 -0.0495 -0.0635
21366SOL    HW169036   1.457   9.254  10.434 -2.5572  1.5830 -0.9271
21366SOL    HW269037   1.570   9.354  10.430 -1.0808  0.0946  1.2264
21367SOL     OW69038   0.487   1.319   2.501  0.0684  0.0843 -0.0665
21367SOL    HW169039   0.441   1.235   2.504 -0.0048  0.1444  1.9737
21367SOL    HW269040   0.417   1.384   2.510  0.0244  0.4731 -2.4941
21368SOL     OW69041  11.097   0.142   6.144  0.1278  0.0670  0.2321
21368SOL    HW169042  11.154   0.068   6.124  0.5709  0.2680  0.7240
21368SOL    HW269043  11.157   0.215   6.161 -0.3110  0.6902 -0.7732
21369SOL     OW69044   6.119   3.594   8.256  0.1113  0.4476 -0.3483
21369SOL    HW169045   6.035   3.640   8.257  0.2916  0.7956 -0.6925
21369SOL    HW269046   6.172   3.641   8.321  0.3590  0.8588 -0.8386
21370SOL     OW69047   5.717   4.905   4.657 -0.0105  0.0932  0.5544
21370SOL    HW169048   5.626   4.920   4.682  0.0674 -0.7475  1.3835
21370SOL    HW269049   5.746   4.988   4.620 -0.4546  1.0628  2.3196
21371SOL     OW69050  11.471  11.221   6.754 -0.3618 -0.3273  0.2036
21371SOL    HW169051  11.548  11.224   6.812 -0.5259 -1.2788  0.4969
21371SOL    HW269052  11.427  11.139   6.778 -0.9335 -0.2780 -0.6432
21372SOL     OW69053   3.270   8.396   0.343  0.0714  0.4128  0.6588
21372SOL    HW169054   3.257   8.357   0.257  2.0297 -0.4009  0.6891
21372SOL    HW269055   3.291   8.488   0.326  0.3882  0.2670  0.2838
21373SOL     OW69056  11.289   7.590   0.597  0.0415  0.0111  0.4565
21373SOL    HW169057  11.253   7.669   0.555  0.3580 -0.1493 -0.1342
21373SOL    HW269058  11.354   7.624   0.659 -1.9240  0.3765  2.4292
21374SOL     OW69059   2.491   7.040   6.954 -0.5074  0.0296 -0.1953
21374SOL    HW169060   2.547   7.042   7.031 -0.1046 -0.4338 -0.4704
21374SOL    HW269061   2.438   6.961   6.964  1.2942 -1.4359 -1.5869
21375SOL     OW69062   0.889   4.893   6.496  0.4710  0.1534 -0.0098
21375SOL    HW169063   0.803   4.854   6.507 -0.0118  0.5940 -1.8209
21375SOL    HW269064   0.941   4.825   6.453  1.2949 -0.3813  1.7339
21376SOL     OW69065   3.392   0.287   6.152  0.1949  0.4577  0.2742
21376SOL    HW169066   3.458   0.220   6.171  1.6743  1.3600 -1.3906
21376SOL    HW269067   3.412   0.357   6.215 -1.3332 -0.5776  1.9940
21377SOL     OW69068   9.234   0.424  10.753 -0.5661  0.2889 -0.1755
21377SOL    HW169069   9.189   0.367  10.691 -1.0404  1.0159 -0.5230
21377SOL    HW269070   9.188   0.411  10.836 -0.5972  0.0843 -0.2244
21378SOL     OW69071   6.664   3.512  11.368  0.1441 -0.3059 -0.7302
21378SOL    HW169072   6.636   3.545  11.453  1.1083 -2.2990  0.4362
21378SOL    HW269073   6.635   3.578  11.305 -0.2694  1.3989  1.1692
21379SOL     OW69074   8.043   1.510  10.852 -0.1023  0.0653  0.7247
21379SOL    HW169075   8.040   1.416  10.867  0.8017  0.0303  0.7422
21379SOL    HW269076   7.993   1.548  10.924  0.6928 -0.3233  1.4876
21380SOL     OW69077  10.277   6.846   3.528 -0.0370 -0.5595 -0.3724
21380SOL    HW169078  10.281   6.772   3.589 -0.0528 -0.1203  0.1682
21380SOL    HW269079  10.334   6.821   3.456  1.4050 -0.3442  0.6553
21381SOL     OW69080   5.229   5.058   1.080 -0.4675  0.1116 -0.4870
21381SOL    HW169081   5.149   5.073   1.029 -1.3425  0.3452  0.9197
21381SOL    HW269082   5.254   5.145   1.111 -0.3982 -0.1239  0.1270
21382SOL     OW69083   1.792   7.660   6.401 -0.5648  0.5550 -0.8869
21382SOL    HW169084   1.743   7.709   6.335 -2.8934 -0.0442  0.3174
21382SOL    HW269085   1.832   7.727   6.456 -0.6136  1.0523 -1.4463
21383SOL     OW69086  10.324   9.265   0.457  0.3529 -0.3409  0.0440
21383SOL    HW169087  10.317   9.358   0.476  1.4948 -0.1411 -0.4564
21383SOL    HW269088  10.250   9.225   0.503 -0.7928  0.9375 -0.6203
21384SOL     OW69089   2.016   3.271   7.628 -0.0147  0.0555  0.1406
21384SOL    HW169090   2.080   3.334   7.596  0.5620  0.2636  1.6330
21384SOL    HW269091   2.069   3.204   7.673 -0.6458 -1.2567 -1.0008
21385SOL     OW69092  11.482   5.548  10.091 -0.5234 -0.2112  0.0537
21385SOL    HW169093  11.558   5.494  10.114  0.0609  0.3328 -0.5620
21385SOL    HW269094  11.501   5.579  10.003 -1.3593  0.1261 -0.0148
21386SOL     OW69095   1.329   0.016   9.381 -0.2389 -0.1495  0.4645
21386SOL    HW169096   1.387  -0.005   9.308  0.4852  2.4761  0.2050
21386SOL    HW269097   1.244  -0.020   9.355  0.3287 -0.4772 -1.0025
21387SOL     OW69098  10.558   7.958   8.988 -0.2551  0.1169 -0.6254
21387SOL    HW169099  10.604   7.883   8.950  1.3795  0.7468  0.0093
21387SOL    HW269100  10.603   8.034   8.952  2.1687  0.7865  3.2207
21388SOL     OW69101   6.758   8.460   1.687 -0.1724  0.0430 -0.1080
21388SOL    HW169102   6.818   8.444   1.614 -1.7900 -0.8005 -1.3469
21388SOL    HW269103   6.728   8.550   1.674  1.1795  0.6415  0.8142
21389SOL     OW69104   2.537   2.468   0.506  0.2967 -0.6429  0.1537
21389SOL    HW169105   2.492   2.545   0.539  1.9215 -0.4530  2.1187
21389SOL    HW269106   2.607   2.502   0.450 -1.1160 -0.8992 -1.9111
21390SOL     OW69107  11.351   4.842   8.042  0.1162 -0.4038  0.2028
21390SOL    HW169108  11.376   4.791   8.119 -0.3390 -0.7462  0.1334
21390SOL    HW269109  11.413   4.816   7.974  0.4416 -0.1925  0.4181
21391SOL     OW69110   8.848   3.832   7.276 -0.3988 -0.1621 -0.6286
21391SOL    HW169111   8.902   3.831   7.198  0.5204 -0.4631 -0.0024
21391SOL    HW269112   8.897   3.884   7.340 -1.7968  1.3010 -0.6803
21392SOL     OW69113   0.680  10.339   3.262 -0.6080 -0.1786 -0.0375
21392SOL    HW169114   0.616  10.400   3.299  0.7244  0.0768  2.0105
21392SOL    HW269115   0.640  10.253   3.271 -1.2605  0.1021 -0.1608
21393SOL     OW69116   5.212   5.557   8.663 -0.1023 -0.1697  0.1398
21393SOL    HW169117   5.264   5.583   8.739 -1.6908 -0.6116  1.4247
21393SOL    HW269118   5.139   5.508   8.700 -1.0582 -0.1593 -1.6665
21394SOL     OW69119   0.503   8.587   3.074 -0.9482  0.4004 -0.6994
21394SOL    HW169120   0.422   8.578   3.023 -0.8300 -2.0084 -0.5715
21394SOL    HW269121   0.564   8.525   3.034  0.4871  1.3374 -0.0693
21395SOL     OW69122   6.581   5.335   5.419  0.2120  0.0041 -0.1294
21395SOL    HW169123   6.544   5.399   5.479  1.0326  1.2642 -0.9195
21395SOL    HW269124   6.664   5.309   5.459  0.5666  0.5397 -0.5063
21396SOL     OW69125   5.777   3.372   4.234 -0.4846 -0.1658 -0.0993
21396SOL    HW169126   5.702   3.312   4.233  0.9556 -2.0794  0.4684
21396SOL    HW269127   5.854   3.315   4.239  1.1449  1.6541 -2.2014
21397SOL     OW69128   5.780   0.508   9.302 -0.1897 -0.1390  0.2547
21397SOL    HW169129   5.764   0.414   9.307 -2.9839  0.3251  1.5898
21397SOL    HW269130   5.828   0.528   9.382 -1.0978 -0.1939  0.8231
21398SOL     OW69131   3.547   5.444   0.060 -0.2346  0.1358  0.0578
21398SOL    HW169132   3.462   5.483   0.038 -0.0723 -0.0614 -0.9837
21398SOL    HW269133   3.535   5.409   0.148 -1.7624 -1.2841 -0.6558
21399SOL     OW69134   6.191   9.053   5.041 -0.2802 -0.3887  0.6858
21399SOL    HW169135   6.177   9.013   5.127 -1.4903  0.7284  1.0484
21399SOL    HW269136   6.212   9.145   5.061  1.6053 -0.5917 -0.1557
21400SOL     OW69137  10.636   7.445   4.538 -0.5581 -0.6209  0.5514
21400SOL    HW169138  10.679   7.473   4.618 -1.9490  1.9698  0.4952
21400SOL    HW269139  10.664   7.508   4.472 -0.9520 -1.5457 -0.5427
21401SOL     OW69140   9.391   0.085   4.362  0.2086  0.5709  0.4271
21401SOL    HW169141   9.424   0.175   4.365  0.2436  0.5465  0.9808
21401SOL    HW269142   9.466   0.033   4.336 -0.4878  0.9919 -2.8996
21402SOL     OW69143   4.592  10.310   4.749  0.2130  0.5817  0.4404
21402SOL    HW169144   4.536  10.252   4.698  1.1579  0.1669 -0.1562
21402SOL    HW269145   4.655  10.345   4.686  0.6409  1.0224  1.0933
21403SOL     OW69146   8.279   5.106   4.320  0.2717 -0.0366 -0.3160
21403SOL    HW169147   8.220   5.032   4.338  0.0375  0.0317 -0.7859
21403SOL    HW269148   8.343   5.071   4.259  1.6309 -0.5338  1.3223
21404SOL     OW69149  11.399   3.909   6.108  0.3148 -0.2839 -0.0109
21404SOL    HW169150  11.312   3.922   6.070  0.1474 -0.9558  0.1280
21404SOL    HW269151  11.457   3.962   6.054  0.1736 -1.6553 -1.5896
21405SOL     OW69152   3.870  10.763   3.265  0.3265  0.1138  0.5237
21405SOL    HW169153   3.827  10.737   3.184  2.4235  0.7425 -0.8646
21405SOL    HW269154   3.911  10.682   3.297  0.7619  0.1836  0.1420
21406SOL     OW69155  11.005   5.047   4.344 -0.0775 -0.0865 -0.1783
21406SOL    HW169156  11.086   5.027   4.392 -1.0839 -1.3400  1.0775
21406SOL    HW269157  10.942   4.982   4.375 -2.2919  2.3375  0.7321
21407SOL     OW69158   1.956   7.434   4.908  0.4473  0.7688 -0.6272
21407SOL    HW169159   1.991   7.465   4.825  1.1791  1.3726 -0.1173
21407SOL    HW269160   2.033   7.407   4.958  0.1090  1.2496  0.1771
21408SOL     OW69161   5.392   3.902   7.877 -0.1247 -0.3397  0.0102
21408SOL    HW169162   5.339   3.894   7.797  0.0842  0.0619 -0.1688
21408SOL    HW269163   5.481   3.917   7.845 -0.3986  2.4610  0.2703
21409SOL     OW69164   3.548  11.672   0.659  0.4584  0.6723 -0.0393
21409SOL    HW169165   3.560  11.727   0.735  1.1363  0.1301  0.2654
21409SOL    HW269166   3.484  11.718   0.605 -2.3143 -0.3304  2.1869
21410SOL     OW69167   2.154   8.339   4.926 -0.1315  0.2995  0.1872
21410SOL    HW169168   2.108   8.363   5.006 -1.9320 -1.2838 -0.3080
21410SOL    HW269169   2.102   8.268   4.888  2.2700 -1.0347 -0.8724
21411SOL     OW69170   8.198   5.023   2.449 -0.0350 -0.0948  0.2059
21411SOL    HW169171   8.247   4.946   2.479 -0.2888 -0.5179 -0.4423
21411SOL    HW269172   8.108   4.990   2.437  0.2654 -0.2177 -2.0104
21412SOL     OW69173   9.100   6.782   2.858  0.2012 -0.1516 -0.4689
21412SOL    HW169174   9.068   6.747   2.941 -1.2941  2.2822  0.0695
21412SOL    HW269175   9.195   6.783   2.868  0.0388  0.5496  1.4471
21413SOL     OW69176   4.369   5.340   9.989  0.4328 -0.4348  0.1044
21413SOL    HW169177   4.442   5.280  10.006  1.0094 -0.4163 -2.0123
21413SOL    HW269178   4.295   5.282   9.970  0.9677 -0.5376 -1.8527
21414SOL     OW69179  10.609   8.538  10.145  0.0269 -0.5178 -0.1295
21414SOL    HW169180  10.673   8.472  10.171 -0.1424 -1.2960 -1.5715
21414SOL    HW269181  10.526   8.505  10.178  0.2532  0.1573  1.1617
21415SOL     OW69182   5.641   0.739   0.421  0.5986 -0.1507 -0.0222
21415SOL    HW169183   5.631   0.647   0.397  0.9899 -0.2519  0.2008
21415SOL    HW269184   5.555   0.764   0.456  0.2742 -0.2270 -0.7630
21416SOL     OW69185   7.062   9.099   9.324 -0.0027 -0.2459 -0.2846
21416SOL    HW169186   6.984   9.084   9.270  0.7025 -2.0763 -0.8645
21416SOL    HW269187   7.030   9.153   9.397 -1.1584  1.5870 -2.0238
21417SOL     OW69188   8.973   9.810   7.599  0.5139 -0.2582 -0.5232
21417SOL    HW169189   9.043   9.841   7.656 -1.4983 -0.1136  2.0424
21417SOL    HW269190   9.019   9.770   7.524  3.2568  1.3318  0.1532
21418SOL     OW69191   4.033   0.474   1.042 -0.0937  0.7022 -0.0908
21418SOL    HW169192   4.090   0.546   1.068 -1.0081  1.3903  0.0750
21418SOL    HW269193   4.030   0.417   1.119  0.1584  0.7976 -0.0098
21419SOL     OW69194  11.193   8.446   1.271  0.0558  0.1697  0.7165
21419SOL    HW169195  11.269   8.481   1.224 -0.4610 -0.9559 -1.0444
21419SOL    HW269196  11.227   8.369   1.317  0.1280  0.0362  0.4435
21420SOL     OW69197   2.468   5.348  11.106  0.1248  0.5164  0.3218
21420SOL    HW169198   2.430   5.436  11.111 -1.0033  0.0857 -0.3510
21420SOL    HW269199   2.486   5.334  11.013 -1.1759 -0.5471  0.1999
21421SOL     OW69200   6.043   8.947   8.223  0.1243 -0.0352 -0.4176
21421SOL    HW169201   6.042   8.854   8.246 -0.4124  0.1370  0.2696
21421SOL    HW269202   6.051   8.992   8.307  0.8245  0.5351 -0.7786
21422SOL     OW69203   3.746   6.343   2.921 -0.1714 -0.3051 -0.2822
21422SOL    HW169204   3.742   6.281   2.847  0.0486 -1.0043  0.2809
21422SOL    HW269205   3.781   6.291   2.993  2.2764  1.0319 -0.3932
21423SOL     OW69206   4.439   6.443   6.497  1.0096 -0.0754  0.3044
21423SOL    HW169207   4.409   6.534   6.488  3.8051  0.9656  0.6401
21423SOL    HW269208   4.360   6.391   6.483 -0.7297  2.3893  0.2603
21424SOL     OW69209   7.876   9.209   8.465  0.4675  0.3759 -0.0592
21424SOL    HW169210   7.784   9.185   8.455  0.2309  1.5583 -1.0633
21424SOL    HW269211   7.890   9.276   8.398  2.4712 -0.8424 -0.9399
21425SOL     OW69212   3.989   0.890   6.110  0.0315 -0.2155 -0.5167
21425SOL    HW169213   3.915   0.895   6.171  0.1055 -1.1966 -0.3385
21425SOL    HW269214   4.060   0.937   6.154  0.1332 -1.0551  0.2231
21426SOL     OW69215  11.508  11.622   7.897  0.2685  0.4687 -0.3567
21426SOL    HW169216  11.578  11.667   7.850  0.7352  0.4986  0.3547
21426SOL    HW269217  11.519  11.649   7.988 -0.5172  0.2730 -0.1965
21427SOL     OW69218   5.052   5.123   7.915 -0.5685  0.3148 -0.1809
21427SOL    HW169219   5.124   5.174   7.879 -1.2809  0.9295 -0.7569
21427SOL    HW269220   5.095   5.050   7.959  0.6446  2.3939  2.4088
21428SOL     OW69221   7.841   4.967   1.701 -0.2600 -0.5326  0.0136
21428SOL    HW169222   7.803   4.913   1.631  0.3830  0.1159 -0.8564
21428SOL    HW269223   7.933   4.941   1.704 -0.1415 -0.1034  0.1941
21429SOL     OW69224   6.380   2.049   3.608  0.1235 -0.2041 -0.0171
21429SOL    HW169225   6.422   1.963   3.607 -0.7180 -0.6270 -0.0584
21429SOL    HW269226   6.452   2.111   3.611  0.8824 -0.8120 -2.7237
21430SOL     OW69227   9.433   6.193   6.257  0.2052  0.0431 -0.0970
21430SOL    HW169228   9.342   6.219   6.270  0.3303  0.1854  0.5399
21430SOL    HW269229   9.433   6.097   6.268 -0.1577 -0.1804 -1.8710
21431SOL     OW69230   4.816   5.030   1.114  0.1715  0.3462  0.3324
21431SOL    HW169231   4.807   5.037   1.209 -0.6156 -0.2661  0.3147
21431SOL    HW269232   4.735   4.989   1.086  0.2324  0.8852 -0.6547
21432SOL     OW69233   9.361   6.528   9.977  0.5472 -0.2017  0.9284
21432SOL    HW169234   9.295   6.545  10.045 -0.2714 -0.3407  0.1840
21432SOL    HW269235   9.396   6.442   9.999 -0.6625 -0.8413  0.4437
21433SOL     OW69236   5.749   1.190   5.803 -0.5599  0.7287 -0.2392
21433SOL    HW169237   5.700   1.214   5.881 -0.7779  1.8382 -0.7052
21433SOL    HW269238   5.833   1.159   5.837 -1.2153 -0.3220  0.5103
21434SOL     OW69239   3.431   4.997   4.185 -0.6564  0.5515  0.0014
21434SOL    HW169240   3.355   5.054   4.172  0.2145  1.5916 -0.6437
21434SOL    HW269241   3.490   5.019   4.113  0.8685  0.7842  1.2758
21435SOL     OW69242   8.214   8.173  10.976 -0.6150 -0.0241 -0.1415
21435SOL    HW169243   8.204   8.260  10.938 -0.4596  0.0393 -0.0401
21435SOL    HW269244   8.247   8.119  10.905  0.3946  0.2654  0.0853
21436SOL     OW69245   4.126   6.757   1.681  0.0174  0.0090  0.0226
21436SOL    HW169246   4.121   6.838   1.732 -0.0114  0.4557 -0.6856
21436SOL    HW269247   4.067   6.770   1.607  0.5379 -0.3909 -0.4713
21437SOL     OW69248  10.535   1.313   2.414 -0.3650 -0.1484  0.3136
21437SOL    HW169249  10.598   1.367   2.460 -0.6356 -0.5053  1.1127
21437SOL    HW269250  10.558   1.223   2.436 -0.7323 -0.3111  0.0616
21438SOL     OW69251   5.537   0.164   1.804 -0.1107  0.5215 -0.3818
21438SOL    HW169252   5.555   0.258   1.815  0.5642  0.3402  0.1429
21438SOL    HW269253   5.587   0.139   1.726 -1.4231  0.8853 -1.3710
21439SOL     OW69254   6.555   9.130   4.808  0.0819  0.8415 -0.5345
21439SOL    HW169255   6.637   9.173   4.783  0.3826  0.2023 -0.6599
21439SOL    HW269256   6.574   9.088   4.891  0.3902 -0.7030 -1.3604
21440SOL     OW69257   7.387  11.225  11.143  0.5498  0.5690 -0.2001
21440SOL    HW169258   7.419  11.279  11.215 -0.0009 -0.6740  1.0311
21440SOL    HW269259   7.292  11.225  11.154  0.5302 -0.4515 -0.3174
21441SOL     OW69260   0.902   1.629  10.449  0.1287 -0.3015 -0.0371
21441SOL    HW169261   0.862   1.542  10.439  2.1899 -1.1034 -1.8842
21441SOL    HW269262   0.834   1.689  10.420 -0.5251 -1.4578 -0.9967
21442SOL     OW69263   9.549  10.942   8.751 -0.1583 -0.3482  0.1669
21442SOL    HW169264   9.495  10.936   8.672  0.9514 -0.6597 -0.5791
21442SOL    HW269265   9.554  10.853   8.784 -0.0297 -0.3259  0.2066
21443SOL     OW69266   0.016   2.297   2.814  0.3909  0.0409  0.6802
21443SOL    HW169267   0.014   2.309   2.719 -1.2246  0.2439  0.7217
21443SOL    HW269268  -0.042   2.223   2.830  1.3016 -0.5322  1.4602
21444SOL     OW69269   0.969   0.895   8.685 -0.3501  0.1568 -0.3174
21444SOL    HW169270   1.028   0.947   8.738  0.4012  0.4127 -1.3661
21444SOL    HW269271   0.931   0.957   8.623 -2.1404  0.1008  0.6475
21445SOL     OW69272   2.579   7.490   5.482 -0.4812 -0.5121 -0.0755
21445SOL    HW169273   2.636   7.435   5.427 -1.1423  0.2747 -1.6240
21445SOL    HW269274   2.570   7.571   5.433 -2.8495 -0.5588  0.1465
21446SOL     OW69275   8.101   7.718   3.426  0.2013  0.3179  0.0293
21446SOL    HW169276   8.046   7.771   3.369 -0.2547 -0.7298 -0.5410
21446SOL    HW269277   8.187   7.718   3.384 -0.0676 -0.2388 -0.5307
21447SOL     OW69278   6.154   4.350   1.268  0.4642 -0.4419 -0.0494
21447SOL    HW169279   6.208   4.272   1.257  2.2818  0.7472  0.0717
21447SOL    HW269280   6.208   4.422   1.237 -1.4330  0.7322 -0.8530
21448SOL     OW69281   9.894   2.696   0.529  0.5473 -0.3260 -0.2456
21448SOL    HW169282   9.965   2.674   0.470  0.1643 -1.4299 -0.3272
21448SOL    HW269283   9.888   2.621   0.589  2.1859  1.5266  2.4974
21449SOL     OW69284   9.459   3.538   1.211  0.2848  0.3566 -0.0151
21449SOL    HW169285   9.523   3.498   1.270  0.1365  0.3242  0.1240
21449SOL    HW269286   9.461   3.484   1.133  2.5569  2.0207 -1.2099
21450SOL     OW69287   2.448   4.803   6.666 -0.1407 -0.2757  0.1775
21450SOL    HW169288   2.374   4.863   6.652 -0.2104 -0.4833 -0.3783
21450SOL    HW269289   2.409   4.716   6.662 -0.3417 -0.3555  2.7712
21451SOL     OW69290   6.395   2.728   1.484  0.3027  0.1083 -0.0465
21451SOL    HW169291   6.438   2.701   1.402  0.0895  0.1340 -0.1677
21451SOL    HW269292   6.442   2.680   1.552  0.3414 -0.0829 -0.2050
21452SOL     OW69293   3.875   5.303   0.335 -0.3181  0.7081 -0.3755
21452SOL    HW169294   3.946   5.352   0.294  0.5834  0.4505  0.8452
21452SOL    HW269295   3.889   5.213   0.307 -0.8474  0.8330 -1.0611
21453SOL     OW69296   5.214   1.726   1.009 -0.2508  0.0327 -0.2643
21453SOL    HW169297   5.147   1.729   0.941  0.9439  0.9250 -1.4425
21453SOL    HW269298   5.194   1.800   1.067  0.8640  1.6254 -1.7975
21454SOL     OW69299   4.578   1.230   8.555  0.2627 -0.1565  0.3444
21454SOL    HW169300   4.646   1.216   8.621  0.3766 -0.1675  0.2257
21454SOL    HW269301   4.621   1.208   8.472  0.1604 -0.0101  0.2530
21455SOL     OW69302   8.266   4.738   9.101  0.5342 -0.2392 -0.3756
21455SOL    HW169303   8.238   4.731   9.010  0.4292 -0.4901 -0.3252
21455SOL    HW269304   8.186   4.722   9.152  0.0544  2.2234 -0.2480
21456SOL     OW69305   3.729   9.988   4.602  0.4308  0.3388 -0.3286
21456SOL    HW169306   3.809   9.946   4.635 -0.1711  0.2732  1.1200
21456SOL    HW269307   3.745   9.998   4.508  2.4285  0.9708  0.0241
21457SOL     OW69308  11.175  11.662   7.153  0.3516  0.1894 -0.0093
21457SOL    HW169309  11.190  11.702   7.068  2.1588  0.6466  0.4771
21457SOL    HW269310  11.187  11.734   7.215  0.7432 -0.4987  0.7259
21458SOL     OW69311   0.091   5.584   6.390  0.1631  0.3267  0.3470
21458SOL    HW169312   0.166   5.535   6.422  1.1773 -0.1172 -2.4600
21458SOL    HW269313   0.033   5.519   6.351  0.0527  0.9918 -0.6653
21459SOL     OW69314   9.669   5.828   8.524 -0.1097  0.0890  0.2206
21459SOL    HW169315   9.621   5.746   8.540  0.0699  0.1117  0.9063
21459SOL    HW269316   9.694   5.858   8.611 -0.1030  0.8374 -0.0383
21460SOL     OW69317   7.846   8.672   6.767  0.0537 -0.3564 -0.4037
21460SOL    HW169318   7.916   8.643   6.825  0.4349  0.7243 -0.2971
21460SOL    HW269319   7.766   8.653   6.815  0.3418 -0.0400  0.2203
21461SOL     OW69320   3.364   1.764   0.011 -0.1776 -0.0059  0.1982
21461SOL    HW169321   3.374   1.755   0.106 -0.0621  1.3945  0.3428
21461SOL    HW269322   3.421   1.837  -0.012  0.8494 -1.2061 -1.1786
21462SOL     OW69323  11.193   9.529   0.870 -0.5501 -0.2583 -0.0798
21462SOL    HW169324  11.188   9.617   0.831  0.2452  0.2888  0.9929
21462SOL    HW269325  11.149   9.539   0.954 -1.6998 -1.2684 -0.5335
21463SOL     OW69326   6.021   8.070  11.681 -0.1699  0.0364 -0.1397
21463SOL    HW169327   6.110   8.070  11.718  0.0065 -3.1187 -0.2346
21463SOL    HW269328   6.034   8.061  11.587 -0.6310  1.4806 -0.3601
21464SOL     OW69329   3.042   4.216  10.530  0.1160 -0.0761  0.2003
21464SOL    HW169330   2.994   4.205  10.613 -2.0086 -1.8940 -1.1475
21464SOL    HW269331   3.014   4.301  10.497 -2.4603 -1.1232 -0.5960
21465SOL     OW69332   5.168   0.649   0.227  0.1357  0.5063  0.1147
21465SOL    HW169333   5.208   0.692   0.302  0.2972 -1.4045  1.1893
21465SOL    HW269334   5.230   0.580   0.202 -0.4167  0.4172 -1.0883
21466SOL     OW69335   8.523   1.639  10.446 -0.3382 -0.0977 -0.7399
21466SOL    HW169336   8.489   1.728  10.437  0.5150  0.5764  1.7215
21466SOL    HW269337   8.446   1.586  10.468 -0.8845 -0.0441 -2.4303
21467SOL     OW69338   7.152   3.707  11.642  1.1504 -0.4920 -0.3790
21467SOL    HW169339   7.092   3.674  11.575  0.9471 -1.5947  0.3302
21467SOL    HW269340   7.096   3.731  11.715  1.5924 -2.4240  0.6625
21468SOL     OW69341  10.452   5.000   3.421  0.1487  0.3204 -0.1540
21468SOL    HW169342  10.416   4.924   3.376 -0.5442 -0.4826  1.6461
21468SOL    HW269343  10.437   4.982   3.514  3.0906  1.0467  0.5735
21469SOL     OW69344   5.759   6.939   0.101 -0.3613  0.6331  0.4801
21469SOL    HW169345   5.819   6.902   0.165  0.4676  0.0291 -0.6229
21469SOL    HW269346   5.725   6.864   0.053 -0.5014  1.1300 -0.2064
21470SOL     OW69347  11.162  10.480   3.898 -0.4665  0.2806 -0.0607
21470SOL    HW169348  11.248  10.500   3.862 -0.1002 -1.0101  0.0348
21470SOL    HW269349  11.179  10.457   3.990 -0.5584 -2.1146 -0.5693
21471SOL     OW69350   0.280   4.575   9.668  0.6674  0.4311 -1.0405
21471SOL    HW169351   0.255   4.547   9.756 -0.7921 -0.3445 -1.6785
21471SOL    HW269352   0.365   4.619   9.680  0.1292  1.0455  0.8599
21472SOL     OW69353   8.963   7.430   1.863  0.5663  0.0887 -0.2421
21472SOL    HW169354   8.942   7.397   1.776  0.5263 -1.8308  0.4440
21472SOL    HW269355   9.021   7.504   1.847  0.0688  0.1593 -1.9112
21473SOL     OW69356  11.136   2.244   1.058 -0.4625  0.1182 -0.3126
21473SOL    HW169357  11.116   2.257   1.151 -1.4885 -0.1756 -0.4805
21473SOL    HW269358  11.156   2.332   1.026  0.0550  0.2010  0.2196
21474SOL     OW69359   8.485   9.869   8.483  0.7217 -0.0949  0.2782
21474SOL    HW169360   8.500   9.851   8.390  2.4492 -1.9048  0.8408
21474SOL    HW269361   8.392   9.890   8.489  0.7796  1.0306 -1.9794
21475SOL     OW69362   2.405   8.323   6.301  0.0562 -0.3751  0.2143
21475SOL    HW169363   2.480   8.361   6.346 -1.0071  2.4123 -0.1707
21475SOL    HW269364   2.442   8.251   6.249  2.4772  0.9307 -0.0039
21476SOL     OW69365  11.483   9.922   4.303  0.3722 -0.0995  0.2308
21476SOL    HW169366  11.423   9.850   4.282 -1.2988  0.9713  1.0572
21476SOL    HW269367  11.531   9.937   4.222 -2.4029  0.6996 -1.4080
21477SOL     OW69368   3.684   0.050   4.762  0.3931  0.3492 -0.1156
21477SOL    HW169369   3.715   0.109   4.694  0.1489  2.3237  1.3883
21477SOL    HW269370   3.763   0.010   4.797  0.6754  0.6469 -0.4023
21478SOL     OW69371  10.599   4.911   2.008 -0.0233 -0.5795  0.3842
21478SOL    HW169372  10.555   4.896   1.924  3.2146 -1.2568 -1.3821
21478SOL    HW269373  10.670   4.972   1.987  2.2453 -2.4683  2.0938
21479SOL     OW69374   8.650   4.733   0.499  0.3036  0.3900 -0.0159
21479SOL    HW169375   8.575   4.790   0.482  1.1697  1.5597 -0.0738
21479SOL    HW269376   8.639   4.705   0.590 -0.4618  0.1167 -0.1825
21480SOL     OW69377   1.025   9.486   4.010  0.0788 -0.5154 -0.5581
21480SOL    HW169378   1.070   9.487   4.095  2.2284 -2.7675 -1.5179
21480SOL    HW269379   1.075   9.547   3.956 -0.2266 -0.3487 -0.6495
21481SOL     OW69380   4.610   8.278   3.699  0.5231  0.1730 -0.1021
21481SOL    HW169381   4.580   8.290   3.608 -2.2268  0.4781  0.7570
21481SOL    HW269382   4.625   8.184   3.708  1.3243  0.2030 -0.9943
21482SOL     OW69383   5.389   1.030  11.638 -0.8603  0.6231 -0.4658
21482SOL    HW169384   5.365   1.022  11.730 -1.6656  1.0049 -0.6310
21482SOL    HW269385   5.315   1.077  11.598 -0.7464  0.0262 -1.4024
21483SOL     OW69386   2.997   3.124   7.204  0.1125 -0.8770 -0.0825
21483SOL    HW169387   2.912   3.125   7.248 -0.8179 -0.5656 -1.8012
21483SOL    HW269388   3.003   3.210   7.163  2.2429 -0.0731  1.7291
21484SOL     OW69389   0.059  10.107   5.704  0.0953  0.1098  0.0944
21484SOL    HW169390   0.018  10.020   5.707 -1.0862  0.6044 -0.9106
21484SOL    HW269391  -0.002  10.164   5.751  0.9650  0.3786  0.9283
21485SOL     OW69392   1.772  10.710   2.024 -0.0154 -0.5354 -0.2749
21485SOL    HW169393   1.862  10.700   1.993 -0.1798 -0.8701 -0.6542
21485SOL    HW269394   1.724  10.740   1.946  0.2388  2.1540  0.5109
21486SOL     OW69395   1.811   1.460   3.373 -0.2640  0.3112 -0.2088
21486SOL    HW169396   1.806   1.411   3.290 -0.6552 -0.8140  0.4610
21486SOL    HW269397   1.878   1.527   3.357  0.1995 -0.3597 -1.2019
21487SOL     OW69398   4.705   4.485   8.908 -0.5267 -0.3483  0.2699
21487SOL    HW169399   4.682   4.450   8.994  1.9139  0.7594  1.4842
21487SOL    HW269400   4.787   4.442   8.886 -0.2975  0.5727 -0.7486
21488SOL     OW69401   0.073   4.946   7.121 -0.0093 -0.1429 -0.2032
21488SOL    HW169402   0.071   4.953   7.026  1.2589  0.2192 -0.2197
21488SOL    HW269403   0.154   4.989   7.147 -0.2879 -0.3170  1.0411
21489SOL     OW69404   2.390   2.365   7.922 -0.1801 -0.2932  0.2436
21489SOL    HW169405   2.462   2.422   7.894 -0.7063  1.2832  1.8966
21489SOL    HW269406   2.315   2.395   7.871 -0.1622 -0.4848  0.1001
21490SOL     OW69407   2.629   2.783   6.104  0.4717  0.5433 -0.2283
21490SOL    HW169408   2.607   2.792   6.011  0.4664  0.0541 -0.2764
21490SOL    HW269409   2.651   2.872   6.132 -1.0828  0.9841 -0.2965
21491SOL     OW69410   5.215   2.812   7.184 -0.3211 -0.7521 -0.1692
21491SOL    HW169411   5.141   2.873   7.191  0.2991 -0.0435  0.4990
21491SOL    HW269412   5.292   2.866   7.204  0.3559 -1.5211 -0.6479
21492SOL     OW69413   4.568   5.931   8.796  0.5323  0.3858  0.0964
21492SOL    HW169414   4.525   6.014   8.818  0.4576  0.5015 -0.4558
21492SOL    HW269415   4.536   5.869   8.861  1.2764  0.9914  1.0722
21493SOL     OW69416   3.403   6.313   8.618 -0.0825  0.0693 -0.0170
21493SOL    HW169417   3.408   6.277   8.529 -0.0856  0.0695 -0.0169
21493SOL    HW269418   3.390   6.407   8.605  0.4984  0.1521 -0.0169
21494SOL     OW69419   0.599   3.846   8.554  0.5389 -0.2594 -0.2108
21494SOL    HW169420   0.572   3.921   8.606  0.7422 -0.7567  0.6423
21494SOL    HW269421   0.554   3.771   8.594  1.1914 -0.7394 -0.3369
21495SOL     OW69422   1.686  10.341   2.221  0.1305 -0.4787 -0.1787
21495SOL    HW169423   1.611  10.327   2.163 -0.1979 -1.2172  0.3961
21495SOL    HW269424   1.763  10.330   2.165 -0.1789  0.3023 -0.7768
21496SOL     OW69425  10.327   2.701  10.538 -0.1942 -0.1347  0.3970
21496SOL    HW169426  10.250   2.742  10.578 -1.4497  1.5258 -3.2658
21496SOL    HW269427  10.380   2.775  10.507 -0.4073 -1.1490 -2.7116
21497SOL     OW69428   4.845   8.994  11.399  0.3396  0.2206 -0.7233
21497SOL    HW169429   4.884   9.069  11.444  0.5110 -0.4679  0.3298
21497SOL    HW269430   4.836   9.022  11.308  2.6505  0.6613 -0.8717
21498SOL     OW69431   2.217   7.208   5.880  0.3769  0.2314 -0.1921
21498SOL    HW169432   2.289   7.263   5.850  0.0224  0.5579 -0.4473
21498SOL    HW269433   2.140   7.244   5.837  0.1930 -0.7114 -0.6772
21499SOL     OW69434   0.215   3.491   8.474  0.0319  0.3006 -0.1149
21499SOL    HW169435   0.211   3.417   8.535  1.1019  0.6520  0.4097
21499SOL    HW269436   0.237   3.451   8.390  4.5918  0.2474  0.8633
21500SOL     OW69437   0.899   7.559   2.591 -0.3417 -0.1914 -0.0254
21500SOL    HW169438   0.862   7.558   2.679 -0.5440  0.5857 -0.0950
21500SOL    HW269439   0.993   7.544   2.603 -0.0666  1.7720  0.4841
21501SOL     OW69440   6.716   4.908   0.435 -0.2447  0.0456  0.4301
21501SOL    HW169441   6.740   4.845   0.367  0.7904  1.3466 -0.4798
21501SOL    HW269442   6.733   4.862   0.517  0.4202 -0.8890 -0.2028
21502SOL     OW69443   8.774   7.147   8.080  0.0222 -0.4905  0.2324
21502SOL    HW169444   8.750   7.062   8.043  2.0767 -0.4069 -1.5267
21502SOL    HW269445   8.710   7.208   8.044 -0.7204 -1.0893  0.5056
21503SOL     OW69446   3.846  11.045   5.173  0.6674  0.2114 -0.0259
21503SOL    HW169447   3.907  10.974   5.191  1.5462  1.0006  0.2373
21503SOL    HW269448   3.765  11.002   5.148  0.9694 -0.8848  0.8041
21504SOL     OW69449   7.276   3.704   5.582 -0.2797 -0.2256 -0.3296
21504SOL    HW169450   7.319   3.647   5.517  0.8046 -0.0787  0.2265
21504SOL    HW269451   7.286   3.658   5.665  1.8232  1.3115  0.3733
21505SOL     OW69452   8.643   0.732   0.101 -0.1999 -0.4363 -0.5709
21505SOL    HW169453   8.688   0.687   0.030  0.1431 -2.3944  0.8091
21505SOL    HW269454   8.622   0.663   0.164  0.2649  1.3176  1.6354
21506SOL     OW69455   2.503   9.291   1.372  0.0671  0.1729 -0.2099
21506SOL    HW169456   2.443   9.359   1.340 -1.6012 -0.4699  1.3483
21506SOL    HW269457   2.508   9.227   1.302 -1.2584  0.1590 -0.3111
21507SOL     OW69458   9.482   4.532   9.651 -0.4048 -0.6526  0.4567
21507SOL    HW169459   9.445   4.610   9.609 -0.5918 -1.6284 -1.2791
21507SOL    HW269460   9.421   4.512   9.722 -0.8136  0.2998  0.3788
21508SOL     OW69461   3.907   5.890  10.320  0.2664  0.1714  0.3460
21508SOL    HW169462   3.991   5.925  10.292 -0.1950 -0.6650 -2.4068
21508SOL    HW269463   3.846   5.915  10.250 -1.0259 -2.1775  0.5255
21509SOL     OW69464  10.642   4.890   8.944 -0.3457 -0.1036 -0.3915
21509SOL    HW169465  10.547   4.904   8.936 -0.2280  0.6864 -0.5248
21509SOL    HW269466  10.650   4.804   8.984 -1.1016 -0.9171 -1.8836
21510SOL     OW69467   1.948   9.715   3.316 -0.3766  0.3842  0.1142
21510SOL    HW169468   1.978   9.636   3.359 -0.2518 -0.0693 -0.7909
21510SOL    HW269469   2.000   9.785   3.354 -1.7329  0.3208  2.2657
21511SOL     OW69470   5.826   0.715  10.742  0.7763 -0.4053  0.3604
21511SOL    HW169471   5.762   0.769  10.696  1.4109  0.1734  0.1328
21511SOL    HW269472   5.812   0.734  10.835 -0.2689 -1.3037  0.4094
21512SOL     OW69473   5.733   1.382   1.662  0.1167 -0.1687 -0.0427
21512SOL    HW169474   5.717   1.475   1.675  0.3838  0.0182 -0.9401
21512SOL    HW269475   5.769   1.351   1.744 -2.2905 -0.0365  1.1680
21513SOL     OW69476   9.326   1.655   9.929 -0.4515 -0.5834  0.2552
21513SOL    HW169477   9.306   1.706   9.851 -1.4128  1.0978  1.5303
21513SOL    HW269478   9.269   1.578   9.924  0.9338 -1.5639 -1.6348
21514SOL     OW69479   8.996   7.513   2.329  0.5183 -0.5248  0.6003
21514SOL    HW169480   8.936   7.459   2.277  0.0370 -0.1259  0.7222
21514SOL    HW269481   9.076   7.461   2.337  0.1046 -1.1691  0.6229
21515SOL     OW69482   7.947   5.223   8.431 -0.0777 -0.0168  0.1640
21515SOL    HW169483   7.962   5.149   8.490  0.7000  0.0413  0.0483
21515SOL    HW269484   8.027   5.229   8.379 -0.2847  0.6809 -0.0845
21516SOL     OW69485   9.963  10.113   0.410 -0.1206 -0.3415  0.1049
21516SOL    HW169486  10.031  10.062   0.454  0.0325  0.7562  1.2157
21516SOL    HW269487   9.905  10.141   0.481 -0.0915  1.1547 -0.4280
21517SOL     OW69488   8.920   3.381   1.552  0.0444  0.1173 -0.5871
21517SOL    HW169489   8.852   3.433   1.508  0.4395  1.1789  0.0284
21517SOL    HW269490   9.001   3.427   1.533  0.3461 -0.0034  0.3853
21518SOL     OW69491  11.377   1.171   0.180  0.2925  0.3493 -0.0203
21518SOL    HW169492  11.306   1.221   0.141 -1.2695 -1.2841  0.5845
21518SOL    HW269493  11.410   1.117   0.108 -0.7650 -0.6681  0.2181
21519SOL     OW69494   1.245   5.395   8.419  0.4585 -0.1206 -0.3743
21519SOL    HW169495   1.293   5.366   8.496  1.0294 -0.3419 -0.8061
21519SOL    HW269496   1.294   5.359   8.345 -0.7160 -0.8677 -0.8180
21520SOL     OW69497   9.977   3.748   1.688  0.0441 -0.0232  0.2469
21520SOL    HW169498   9.954   3.669   1.640  1.7760 -1.6108  1.8560
21520SOL    HW269499   9.960   3.819   1.627 -1.0189 -1.6664 -1.4774
21521SOL     OW69500   6.771   6.765  10.214  0.0099 -0.3891 -0.7275
21521SOL    HW169501   6.785   6.765  10.119 -0.9469  0.6913 -0.8924
21521SOL    HW269502   6.706   6.834  10.229 -1.0885 -1.6313  0.5414
21522SOL     OW69503   5.188   9.945   9.504 -0.7000  0.0062 -0.3145
21522SOL    HW169504   5.240   9.866   9.522 -1.2926 -0.4687 -0.6815
21522SOL    HW269505   5.246  10.017   9.529  0.9834 -0.4102 -2.6697
21523SOL     OW69506   6.552  11.447   0.977 -0.5563  0.4841  0.5176
21523SOL    HW169507   6.598  11.529   0.998 -0.6574  1.1720 -1.6680
21523SOL    HW269508   6.569  11.390   1.052  0.1228  2.2543  1.7746
21524SOL     OW69509   9.101  10.011   3.365  0.3780  0.2572  0.6110
21524SOL    HW169510   9.017   9.986   3.326  1.3914 -0.6128 -1.1143
21524SOL    HW269511   9.093   9.986   3.457 -0.6438 -1.4031  0.1029
21525SOL     OW69512   4.652   4.178   7.321 -0.2477  0.5682  0.2130
21525SOL    HW169513   4.601   4.234   7.261 -0.5026  0.6471  0.5018
21525SOL    HW269514   4.632   4.089   7.292 -0.9435  0.5783  0.6289
21526SOL     OW69515   0.362  10.699   6.767  0.1965  0.4818 -0.0432
21526SOL    HW169516   0.451  10.673   6.790 -0.6539 -0.9729  1.9279
21526SOL    HW269517   0.347  10.658   6.681  1.3442  0.6070 -0.3261
21527SOL     OW69518  10.627   9.306   0.982  0.2394 -0.2264  0.6651
21527SOL    HW169519  10.566   9.368   0.943  0.8874 -0.6238 -1.0621
21527SOL    HW269520  10.713   9.345   0.969  0.4880 -0.4454  1.5968
21528SOL     OW69521   7.391   5.163   8.046  0.5890  0.7817 -0.7005
21528SOL    HW169522   7.376   5.229   7.979 -0.6726  0.0329 -1.1903
21528SOL    HW269523   7.408   5.082   7.997 -0.8900  0.1090 -0.1473
21529SOL     OW69524   1.342  10.096   4.736  0.4029  0.2247 -0.2102
21529SOL    HW169525   1.362  10.009   4.770 -1.0203 -0.3758 -0.8108
21529SOL    HW269526   1.392  10.103   4.655 -1.4354 -1.1270 -1.5415
21530SOL     OW69527   0.870   2.269  11.105 -0.4697  0.5632 -0.3861
21530SOL    HW169528   0.924   2.194  11.079 -2.0741 -0.2681 -1.4916
21530SOL    HW269529   0.870   2.266  11.201  0.9012  0.2135 -0.3737
21531SOL     OW69530   9.172   0.613   0.993 -0.1847  0.6149  0.6761
21531SOL    HW169531   9.229   0.690   0.991  0.9804 -0.0409  3.3872
21531SOL    HW269532   9.115   0.627   1.069 -0.5085 -0.8007  0.7322
21532SOL     OW69533   9.098   8.338   7.548  1.1051 -0.5236  0.4144
21532SOL    HW169534   9.091   8.334   7.452  1.2805  4.1363 -0.0295
21532SOL    HW269535   9.192   8.350   7.564  0.9484 -0.0594  1.0246
21533SOL     OW69536   2.379   4.412   5.834 -0.4511 -0.0811  0.1905
21533SOL    HW169537   2.382   4.406   5.739  0.3605  0.2290  0.1837
21533SOL    HW269538   2.383   4.506   5.852  1.5094 -0.1840  0.5503
21534SOL     OW69539   7.537   4.316  10.009  0.3012 -0.0983  0.4443
21534SOL    HW169540   7.595   4.332   9.935  0.3799 -0.2092  0.4811
21534SOL    HW269541   7.556   4.226  10.035  1.1679  0.3305  1.3850
21535SOL     OW69542   0.804  10.109   2.144 -0.1663  0.5572  0.3489
21535SOL    HW169543   0.716  10.093   2.177 -0.2201  0.4715  0.1645
21535SOL    HW269544   0.862  10.059   2.202 -0.3493 -0.4978 -0.3644
21536SOL     OW69545   0.015   5.184   6.591 -0.4671  0.1005 -0.0696
21536SOL    HW169546   0.010   5.101   6.544 -0.0677  0.9616 -1.7028
21536SOL    HW269547  -0.073   5.220   6.587 -0.9485 -0.7671  1.7181
21537SOL     OW69548   1.478   0.767  11.134  0.1152 -0.2323  0.0162
21537SOL    HW169549   1.506   0.799  11.048  0.5062  0.2289  0.3098
21537SOL    HW269550   1.531   0.690  11.150  0.4756  0.0303  0.1045
21538SOL     OW69551   1.109   4.761   4.735 -0.2227 -0.3936 -0.0231
21538SOL    HW169552   1.079   4.742   4.824  0.7596 -0.6214  0.2740
21538SOL    HW269553   1.140   4.677   4.702  1.8328  0.1405  0.3832
21539SOL     OW69554   8.638   1.975   9.685  0.2343  0.4082 -0.0239
21539SOL    HW169555   8.669   2.039   9.749 -0.5031 -0.3297  1.1073
21539SOL    HW269556   8.547   1.959   9.709  0.9411 -2.6374  1.1177
21540SOL     OW69557   0.340   3.556  11.371  0.1297  0.0984 -0.2273
21540SOL    HW169558   0.259   3.601  11.347  0.6314  0.6498 -0.9397
21540SOL    HW269559   0.311   3.473  11.408 -0.7731  0.4623 -0.0929
21541SOL     OW69560   1.388   9.217   3.951 -0.5489 -0.3715  0.0688
21541SOL    HW169561   1.437   9.279   3.897  1.0910 -2.0056 -0.4090
21541SOL    HW269562   1.321   9.182   3.892 -0.0285 -0.6910 -0.3448
21542SOL     OW69563  11.561  10.120   2.501  0.0680 -0.3626  0.3786
21542SOL    HW169564  11.508  10.060   2.449 -0.9190  1.8728 -1.3671
21542SOL    HW269565  11.648  10.116   2.461  0.1179 -0.9333  0.5435
21543SOL     OW69566   5.166   5.147   4.331  0.3881 -0.0393 -0.4208
21543SOL    HW169567   5.074   5.168   4.319  0.9581  1.5887 -2.5987
21543SOL    HW269568   5.187   5.177   4.420 -0.8529  0.8891 -0.4217
21544SOL     OW69569   8.177  11.253   0.828  0.0254  0.0425  0.2066
21544SOL    HW169570   8.173  11.304   0.908 -0.2599 -0.9902  0.8758
21544SOL    HW269571   8.107  11.188   0.837  0.3381 -0.4319 -0.6264
21545SOL     OW69572   7.515   0.976   0.672 -0.6848 -0.2413 -0.1228
21545SOL    HW169573   7.437   1.030   0.661 -1.1361 -0.7658  0.3964
21545SOL    HW269574   7.580   1.035   0.711 -0.8169  0.2021 -0.5750
21546SOL     OW69575   2.253   4.271   5.195 -0.6191  0.1119 -0.5034
21546SOL    HW169576   2.289   4.241   5.112  0.1929 -0.0915 -0.0888
21546SOL    HW269577   2.179   4.326   5.170 -1.8563 -1.8146 -1.2881
21547SOL     OW69578   1.230   4.348   8.250 -0.7177 -0.1562  0.2370
21547SOL    HW169579   1.180   4.401   8.188 -0.6351 -0.8768 -0.4680
21547SOL    HW269580   1.317   4.388   8.252 -0.0780 -1.3105 -1.7263
21548SOL     OW69581   4.857   3.041   8.348  0.3251 -0.4197 -0.0167
21548SOL    HW169582   4.867   3.022   8.441 -1.1306  0.4351  0.3409
21548SOL    HW269583   4.764   3.061   8.337  0.8005  1.3875 -1.2806
21549SOL     OW69584   8.752  11.634   4.492  0.2552  0.2298  0.2614
21549SOL    HW169585   8.781  11.554   4.537  1.9592  0.7507  0.1373
21549SOL    HW269586   8.678  11.605   4.439 -1.0081 -0.6658  2.3775
21550SOL     OW69587   6.908   0.138   7.226 -0.1906  0.2939  0.5001
21550SOL    HW169588   6.816   0.164   7.220 -0.0754  0.4137 -1.3510
21550SOL    HW269589   6.907   0.054   7.271 -1.1613  0.4680  0.8219
21551SOL     OW69590   4.021  11.066   6.347 -0.8775  0.2090  1.0467
21551SOL    HW169591   4.005  11.131   6.415 -0.8455  0.0988  1.1623
21551SOL    HW269592   3.936  11.024   6.334 -0.9149  0.3259  0.9182
21552SOL     OW69593   6.115   7.053  10.931 -0.2398  0.5468 -0.7103
21552SOL    HW169594   6.023   7.030  10.916 -0.2927  0.3229 -0.0733
21552SOL    HW269595   6.117   7.149  10.925 -0.9470  0.7430  1.4449
21553SOL     OW69596   0.435   2.989  11.541  0.0181  0.3371  0.2906
21553SOL    HW169597   0.398   2.913  11.496  0.3971  0.2210  0.1676
21553SOL    HW269598   0.434   3.059  11.476 -0.8400  0.5941  0.5732
21554SOL     OW69599   5.240   6.345   4.137 -0.1322 -0.0621 -0.2139
21554SOL    HW169600   5.264   6.291   4.061  0.4226 -0.3585  0.1573
21554SOL    HW269601   5.256   6.435   4.109  0.2468 -0.1814 -0.3903
21555SOL     OW69602   7.600   8.589   5.812  0.1982  0.3775  0.3643
21555SOL    HW169603   7.536   8.532   5.768  0.4678  0.5358 -0.2525
21555SOL    HW269604   7.650   8.529   5.868  0.4504 -0.0038 -0.2456
21556SOL     OW69605   5.531  10.096  11.353 -0.4006 -0.6340  0.1424
21556SOL    HW169606   5.498  10.110  11.442  0.2554  0.7808  0.1861
21556SOL    HW269607   5.617  10.056  11.366 -0.0630  0.0952  0.1632
21557SOL     OW69608  10.081   9.959   0.969 -0.3030 -0.5062  0.0298
21557SOL    HW169609  10.088   9.876   1.017  1.2285 -0.1601  0.4436
21557SOL    HW269610  10.037   9.935   0.887 -0.7550 -1.5412  0.5521
21558SOL     OW69611   5.558   8.694  11.373  0.6157  0.1729 -0.0155
21558SOL    HW169612   5.598   8.608  11.367 -0.4225 -0.4495  1.4771
21558SOL    HW269613   5.614   8.744  11.432  2.3949  1.2996 -2.4527
21559SOL     OW69614   7.772   9.311   7.469  0.2021  0.3625 -0.3320
21559SOL    HW169615   7.678   9.331   7.463  0.5366  1.6434 -1.8512
21559SOL    HW269616   7.789   9.304   7.563 -1.8862 -2.3928  0.0031
21560SOL     OW69617   0.967   2.112   0.150 -0.2426 -0.2909 -0.2378
21560SOL    HW169618   1.057   2.138   0.133  0.2649 -1.9934 -0.2642
21560SOL    HW269619   0.942   2.060   0.074 -0.5883 -1.4288  0.6287
21561SOL     OW69620   8.835   5.001   0.143  0.0643  0.1377 -0.0578
21561SOL    HW169621   8.805   5.011   0.233 -0.1995 -0.3451 -0.0879
21561SOL    HW269622   8.902   4.933   0.147 -0.2151 -0.1523 -0.2817
21562SOL     OW69623   7.070   6.633   6.526  0.0804 -0.1161 -0.1729
21562SOL    HW169624   7.002   6.684   6.482 -2.0023  0.9811  3.7563
21562SOL    HW269625   7.034   6.544   6.532 -1.7189  0.6489  2.6770
21563SOL     OW69626   7.155   6.711   2.599  0.1256  0.1262 -0.0691
21563SOL    HW169627   7.250   6.696   2.594  0.6662  2.1358  2.3557
21563SOL    HW269628   7.125   6.657   2.672 -0.6609 -0.5433 -0.8561
21564SOL     OW69629   8.726   7.136   2.776 -0.5723  0.3023 -0.3369
21564SOL    HW169630   8.759   7.059   2.823 -0.9707  1.3621  1.7863
21564SOL    HW269631   8.800   7.197   2.776 -0.8769  0.6726 -0.2471
21565SOL     OW69632  11.133  10.835   2.080 -0.1540  0.1347  0.4200
21565SOL    HW169633  11.189  10.848   2.004 -2.1131  3.0842 -0.7291
21565SOL    HW269634  11.054  10.794   2.044 -1.5263  2.5104  0.5608
21566SOL     OW69635   9.324   8.088   8.140  0.0463 -0.0647 -0.3834
21566SOL    HW169636   9.285   8.018   8.088 -1.0112  0.5428 -0.4410
21566SOL    HW269637   9.254   8.116   8.199  0.0369  1.8030 -1.2315
21567SOL     OW69638   2.505   2.662   4.742  0.5303  0.8621 -0.5133
21567SOL    HW169639   2.440   2.619   4.687  0.0075  0.5892  0.3019
21567SOL    HW269640   2.587   2.617   4.722  0.5214  1.3164 -1.6636
21568SOL     OW69641   0.084   6.913   2.409 -0.3795 -0.0899  0.0519
21568SOL    HW169642   0.137   6.851   2.460  0.9689  0.5383 -0.5229
21568SOL    HW269643  -0.004   6.876   2.410  0.1007 -1.2902  0.8790
21569SOL     OW69644   9.954  11.288   9.202  0.3803 -0.6530  0.7531
21569SOL    HW169645   9.994  11.375   9.197  1.9329 -1.3707 -2.9594
21569SOL    HW269646   9.861  11.305   9.218  0.3505  1.8567 -1.3265
21570SOL     OW69647   2.847   4.661   6.430 -0.2483  0.0997  0.3951
21570SOL    HW169648   2.859   4.751   6.460 -0.0192 -0.0644  0.8018
21570SOL    HW269649   2.907   4.609   6.484 -1.7069 -0.5437  1.4798
21571SOL     OW69650   1.828   4.319   7.591  0.8106 -0.2517  0.2119
21571SOL    HW169651   1.825   4.413   7.611 -1.3715 -0.0233 -0.9463
21571SOL    HW269652   1.799   4.277   7.672 -0.2266  0.2106  0.0961
21572SOL     OW69653   6.194  11.527   1.634 -0.5899 -0.1809  0.5136
21572SOL    HW169654   6.281  11.495   1.612 -0.2080  1.1053  0.0754
21572SOL    HW269655   6.154  11.454   1.682  0.5444 -0.9684  0.3225
21573SOL     OW69656   6.540   9.495  11.211 -0.1474  0.6354  0.1945
21573SOL    HW169657   6.469   9.481  11.274  0.0538 -0.9891  0.1118
21573SOL    HW269658   6.607   9.544  11.260  0.0701 -0.7336  1.3207
21574SOL     OW69659   4.402   5.706  11.335  0.1920 -0.0785  0.6770
21574SOL    HW169660   4.374   5.787  11.293 -1.2747 -1.1330 -0.5005
21574SOL    HW269661   4.486   5.685  11.294 -0.4422 -0.2440 -0.5866
21575SOL     OW69662   6.502   4.901   4.400 -0.3710 -0.6742  0.7185
21575SOL    HW169663   6.586   4.926   4.362 -0.0150 -0.1200  1.8457
21575SOL    HW269664   6.493   4.808   4.380  0.0027 -0.4951 -0.3393
21576SOL     OW69665   0.296   2.181   2.805  0.1061 -0.1760  0.2158
21576SOL    HW169666   0.302   2.201   2.898  0.3844 -1.1175  0.4142
21576SOL    HW269667   0.205   2.155   2.791  0.7540 -3.3887  0.9932
21577SOL     OW69668   2.419   1.228   7.362 -0.1199 -0.2282  0.2025
21577SOL    HW169669   2.470   1.294   7.313  1.1441 -0.9976  0.4354
21577SOL    HW269670   2.420   1.151   7.306  0.5562 -0.8284  1.0189
21578SOL     OW69671   2.691   1.354   1.159 -0.0559 -0.0309  0.3052
21578SOL    HW169672   2.653   1.306   1.232  1.6380 -3.3749 -0.8064
21578SOL    HW269673   2.759   1.408   1.199  0.9452 -1.9098  1.2716
21579SOL     OW69674   1.488  10.481   9.841  0.5574  0.4021 -0.7498
21579SOL    HW169675   1.475  10.387   9.837  0.9105  0.3893 -2.0424
21579SOL    HW269676   1.427  10.511   9.909 -1.2359 -0.4733 -1.8935
21580SOL     OW69677   4.320   8.677   3.205 -0.1444  0.5081  0.3635
21580SOL    HW169678   4.351   8.599   3.250  0.4879  0.0380 -0.8448
21580SOL    HW269679   4.309   8.742   3.274  0.5586 -0.2654  1.2217
21581SOL     OW69680   1.609   1.760   5.238 -0.2774 -0.2065 -0.2492
21581SOL    HW169681   1.570   1.815   5.307  0.4739 -0.6272  0.5233
21581SOL    HW269682   1.697   1.795   5.227  0.3027 -1.3902  0.4336
21582SOL     OW69683   8.014  10.651   7.395 -0.5578  0.4138  0.0913
21582SOL    HW169684   8.095  10.650   7.445 -1.8951  0.7974  2.3734
21582SOL    HW269685   7.981  10.561   7.400 -0.2519  0.2215 -0.9571
21583SOL     OW69686   5.306  10.447   2.192 -0.1696 -0.0614 -0.1386
21583SOL    HW169687   5.329  10.538   2.211 -0.5085  0.3630 -1.6400
21583SOL    HW269688   5.214  10.440   2.218 -0.1193  0.0037  0.0564
21584SOL     OW69689   5.905   0.883   3.664  1.0399 -0.1389  0.2754
21584SOL    HW169690   5.908   0.788   3.653 -0.4457  0.0341 -2.4938
21584SOL    HW269691   5.812   0.902   3.679  1.1223  0.9660 -0.5307
21585SOL     OW69692   7.564   2.955   1.355  0.0777 -0.2342  0.3733
21585SOL    HW169693   7.615   3.032   1.377 -1.2802  0.5851  0.7855
21585SOL    HW269694   7.519   2.931   1.436  0.3977 -1.4073  0.2246
21586SOL     OW69695   1.362  10.218   6.327 -0.2992  0.2481  0.3846
21586SOL    HW169696   1.447  10.214   6.371 -0.9007 -1.2767  1.5220
21586SOL    HW269697   1.319  10.295   6.364 -0.5701 -0.6812  2.1479
21587SOL     OW69698   5.757   9.119  10.127  0.2964  0.2371 -0.5229
21587SOL    HW169699   5.852   9.122  10.132  0.4156  3.9997 -1.8039
21587SOL    HW269700   5.728   9.128  10.218  1.2392  1.4439 -0.3174
21588SOL     OW69701   4.164   8.824   0.643  0.7153 -0.2438  0.4051
21588SOL    HW169702   4.100   8.779   0.589 -0.5922  1.4090  0.5111
21588SOL    HW269703   4.116   8.852   0.720  1.0882  2.4216 -0.2217
21589SOL     OW69704   3.795   8.472   2.853  0.4322  0.0340 -0.2202
21589SOL    HW169705   3.838   8.555   2.832 -1.1078  0.6328 -1.2483
21589SOL    HW269706   3.768   8.437   2.768 -0.9412 -0.3651  0.3459
21590SOL     OW69707  10.856   3.943   1.118  0.2777  0.2317  0.3530
21590SOL    HW169708  10.779   3.999   1.125  0.2973  0.2359  0.5400
21590SOL    HW269709  10.822   3.854   1.133  0.1729  0.1409 -0.3799
21591SOL     OW69710   2.854   0.370  11.016 -0.2925  0.5068  0.3106
21591SOL    HW169711   2.795   0.436  10.979  1.0486  1.5231 -0.0777
21591SOL    HW269712   2.936   0.417  11.033  0.6887 -1.0390  0.0700
21592SOL     OW69713   1.594   9.221   6.259 -0.7280  0.1244 -0.2621
21592SOL    HW169714   1.644   9.235   6.180  1.3376 -1.7728  0.5978
21592SOL    HW269715   1.503   9.237   6.234 -0.0696  0.1476 -2.8197
21593SOL     OW69716   8.199   9.527  10.952 -0.0671  0.0410  0.1106
21593SOL    HW169717   8.233   9.577  11.026  3.5323  0.4192 -1.5764
21593SOL    HW269718   8.190   9.438  10.985 -0.0587  0.4944  1.3844
21594SOL     OW69719   7.149   6.806   0.529  0.2255 -0.4314 -0.2237
21594SOL    HW169720   7.229   6.801   0.477  0.1709  0.0769 -0.3616
21594SOL    HW269721   7.120   6.715   0.537  1.0526 -0.6655  0.2064
21595SOL     OW69722   5.148   8.635   9.808  0.1270  0.3270 -0.3179
21595SOL    HW169723   5.189   8.549   9.816 -0.2427  0.2243  0.5108
21595SOL    HW269724   5.202   8.693   9.861  0.2315  0.5576 -0.6745
21596SOL     OW69725  10.476  10.895   2.296  0.4737 -0.5537  0.3680
21596SOL    HW169726  10.453  10.810   2.257  1.1460 -1.0780  1.0825
21596SOL    HW269727  10.415  10.957   2.257 -0.4241 -1.4705  0.2906
21597SOL     OW69728   7.923   3.750   7.224 -0.5999 -0.2580  0.3587
21597SOL    HW169729   8.001   3.744   7.280 -0.7247 -0.2349  0.5361
21597SOL    HW269730   7.957   3.778   7.139 -0.5398  0.8555  0.7305
21598SOL     OW69731   5.229   6.814   9.933 -0.5623  0.9107 -0.1777
21598SOL    HW169732   5.282   6.778   9.863 -2.1897  1.2191 -1.6492
21598SOL    HW269733   5.186   6.890   9.894 -2.2910  0.4991  0.8191
21599SOL     OW69734   2.380   4.371   2.089 -0.7149  0.3047  0.3045
21599SOL    HW169735   2.338   4.300   2.136 -2.0377  0.0784 -1.1170
21599SOL    HW269736   2.331   4.449   2.115  0.1166  0.5580  1.1345
21600SOL     OW69737   2.852   8.248   2.988 -0.1789  0.0651 -0.1297
21600SOL    HW169738   2.762   8.264   3.016 -0.4006 -1.6460  0.2381
21600SOL    HW269739   2.889   8.190   3.055  0.6646 -0.5897 -1.1246
21601SOL     OW69740   8.404   1.011   3.712  0.0382 -0.6135  0.8052
21601SOL    HW169741   8.476   1.035   3.653  1.3873  0.6003  2.8372
21601SOL    HW269742   8.409   0.916   3.718  1.4196 -0.5625  0.7886
21602SOL     OW69743   4.795   5.593   0.179  0.3800 -0.3942 -0.1113
21602SOL    HW169744   4.795   5.530   0.107  1.8013 -0.3845 -0.1379
21602SOL    HW269745   4.702   5.613   0.193  0.1103  0.3724 -2.6021
21603SOL     OW69746   4.304  11.155  11.417  0.2792  0.6641  0.7382
21603SOL    HW169747   4.299  11.244  11.383  0.0399  0.4202  0.1231
21603SOL    HW269748   4.313  11.100  11.339 -0.8280  0.0461  1.0352
21604SOL     OW69749   2.203   8.141   3.115  0.0312  0.8899 -0.0065
21604SOL    HW169750   2.227   8.048   3.109 -0.8655  0.6560 -0.0322
21604SOL    HW269751   2.286   8.185   3.135  0.2367 -0.0684  1.4574
21605SOL     OW69752  11.173   9.816   2.809  0.7578  0.4166  0.2973
21605SOL    HW169753  11.230   9.813   2.886 -0.6981  2.0463  1.5217
21605SOL    HW269754  11.143   9.907   2.805 -2.0840 -0.4419 -0.0438
21606SOL     OW69755  10.068   8.423  11.349 -0.1425  0.6442 -0.7706
21606SOL    HW169756  10.059   8.365  11.425  1.0879  1.2915 -0.1048
21606SOL    HW269757  10.051   8.366  11.274 -2.1969  0.1591 -0.0234
21607SOL     OW69758   1.705   2.828   8.303  0.4530  0.6602 -0.1260
21607SOL    HW169759   1.717   2.757   8.365  0.8571 -0.7123 -1.6893
21607SOL    HW269760   1.736   2.792   8.220 -1.7373  1.7535 -1.5141
21608SOL     OW69761   3.049   6.956   9.942  0.5442 -0.3323 -0.4091
21608SOL    HW169762   3.023   6.930  10.030 -0.7122  0.5996 -0.4886
21608SOL    HW269763   3.135   6.997   9.953 -0.5287  1.7513  0.7275
21609SOL     OW69764   8.184   5.020   9.063 -0.1194  0.4108  0.0186
21609SOL    HW169765   8.244   4.953   9.096  0.0274  0.7895  0.5290
21609SOL    HW269766   8.210   5.032   8.972 -0.0371 -0.0992 -0.0299
21610SOL     OW69767   3.520   3.980   4.071 -0.1027 -0.7280 -0.3028
21610SOL    HW169768   3.434   3.973   4.113 -0.6596 -0.5543 -1.3774
21610SOL    HW269769   3.583   3.962   4.141 -1.0667 -3.5227 -0.0162
21611SOL     OW69770   1.226   7.825  11.499  0.5712  0.2040 -0.2633
21611SOL    HW169771   1.209   7.777  11.581 -0.7991 -1.0462 -1.2239
21611SOL    HW269772   1.200   7.764  11.430 -1.4532  2.4040 -1.5811
21612SOL     OW69773   8.106   5.950   0.535 -0.1215 -0.5773 -0.2352
21612SOL    HW169774   8.181   5.991   0.491  0.2329 -1.2251 -0.2530
21612SOL    HW269775   8.131   5.947   0.627 -0.2000 -0.6412 -0.2163
21613SOL     OW69776   0.300   0.091   1.253 -0.2698 -0.0729 -0.2118
21613SOL    HW169777   0.393   0.109   1.258 -0.2841 -0.2709  1.0966
21613SOL    HW269778   0.268   0.149   1.183  0.9329 -0.5486 -1.1945
21614SOL     OW69779   5.331   6.061   9.075  0.1620  0.0249  0.2555
21614SOL    HW169780   5.267   6.118   9.117  1.7078  1.0502  1.3134
21614SOL    HW269781   5.307   5.973   9.104 -0.7904  0.3762  0.5792
21615SOL     OW69782   8.306  10.649  10.479  0.2734 -0.0270  0.2606
21615SOL    HW169783   8.268  10.642  10.392 -0.6093 -2.6001  0.7678
21615SOL    HW269784   8.275  10.571  10.526  0.0056  1.6720  3.1687
21616SOL     OW69785   5.694  11.500   7.314  0.6648 -0.4978  0.6128
21616SOL    HW169786   5.695  11.415   7.270 -2.1785 -0.1629 -0.3283
21616SOL    HW269787   5.691  11.563   7.243 -1.7723  0.1473  1.1923
21617SOL     OW69788   3.643   4.910   1.450  0.3000  0.3083 -0.9768
21617SOL    HW169789   3.550   4.931   1.461  0.4122  0.7146 -0.7698
21617SOL    HW269790   3.679   4.917   1.538  0.0794 -2.1559 -0.6295
21618SOL     OW69791   4.950   8.987   3.386  0.2349  0.1843  0.0097
21618SOL    HW169792   4.905   9.068   3.409 -0.7339 -0.2627 -0.2152
21618SOL    HW269793   4.994   8.960   3.466 -0.0814  0.5327  0.3079
21619SOL     OW69794   8.010   4.042   6.351  0.1772  0.2458 -0.0230
21619SOL    HW169795   8.051   4.005   6.429  0.6553  0.2373 -0.2751
21619SOL    HW269796   7.960   4.117   6.384  0.6679  0.4664  0.2491
21620SOL     OW69797   6.922   9.144   3.064 -0.4651 -0.2709  0.3120
21620SOL    HW169798   6.890   9.087   3.134  3.2471 -1.8811  0.9576
21620SOL    HW269799   6.883   9.107   2.984 -0.9139 -1.5384  1.0811
21621SOL     OW69800   6.424   5.117   6.358  0.2967 -0.0179 -0.0007
21621SOL    HW169801   6.335   5.137   6.387  0.8911 -1.5165  3.3304
21621SOL    HW269802   6.439   5.027   6.386  2.7719  0.0997 -0.7005
21622SOL     OW69803   0.308   9.330  10.516  0.7106 -0.6660  0.0780
21622SOL    HW169804   0.339   9.347  10.427 -1.5962 -0.1195 -0.6891
21622SOL    HW269805   0.334   9.407  10.566  0.6196 -0.2443 -0.5150
21623SOL     OW69806   2.625   6.307   1.747 -0.3884 -0.6121 -0.4296
21623SOL    HW169807   2.676   6.342   1.819 -0.0795  0.8430 -1.3177
21623SOL    HW269808   2.625   6.212   1.761 -0.9599 -0.3228  1.8635
21624SOL     OW69809  11.394  11.423   0.058 -0.1506  0.4145 -0.1131
21624SOL    HW169810  11.320  11.431   0.118  0.2839  2.4935  0.2179
21624SOL    HW269811  11.430  11.336   0.076 -1.4136  0.0878  0.9825
21625SOL     OW69812   9.101   7.481   8.608  0.3576 -0.1267 -0.0262
21625SOL    HW169813   9.188   7.521   8.607 -0.2304  1.3432  1.5918
21625SOL    HW269814   9.114   7.396   8.651  1.4950 -1.5068 -2.8283
21626SOL     OW69815   2.996   0.335   9.946 -0.3183  0.9932 -0.6848
21626SOL    HW169816   2.974   0.372   9.860 -3.0349 -1.5689 -1.2400
21626SOL    HW269817   2.936   0.261   9.956  0.9267  0.3011  2.8189
21627SOL     OW69818   3.669   7.343   6.244 -0.4703 -0.2346  0.4613
21627SOL    HW169819   3.698   7.341   6.335  1.9710  0.3176 -0.2232
21627SOL    HW269820   3.718   7.273   6.202 -1.0828 -0.0688 -0.5565
21628SOL     OW69821   4.646   0.544   0.228  0.6107  0.3720  1.5946
21628SOL    HW169822   4.661   0.450   0.241 -0.5650  0.1159  1.2229
21628SOL    HW269823   4.562   0.561   0.271  1.3233  1.4972  2.6108
21629SOL     OW69824   7.893   2.732   3.432 -0.0127 -0.1235 -0.2478
21629SOL    HW169825   7.831   2.770   3.370  0.6106 -0.1067 -0.8850
21629SOL    HW269826   7.935   2.808   3.473  1.5864 -0.0443 -1.8785
21630SOL     OW69827   5.043   7.227  10.607 -0.1043  0.6260 -0.0300
21630SOL    HW169828   5.117   7.267  10.561  0.0245  2.4949  1.6563
21630SOL    HW269829   5.082   7.176  10.677 -0.3690 -0.2850 -0.5313
21631SOL     OW69830   3.656   0.184   6.361 -0.4783 -0.6365 -0.3177
21631SOL    HW169831   3.583   0.124   6.343 -0.3633 -1.1857  0.8713
21631SOL    HW269832   3.631   0.228   6.442  1.0124 -1.7461  0.8221
21632SOL     OW69833   1.605   2.636   2.951 -0.5719 -0.5769  0.0652
21632SOL    HW169834   1.655   2.625   2.870 -1.3647  2.4712 -0.9717
21632SOL    HW269835   1.641   2.715   2.991 -1.5349 -0.9004  1.6678
21633SOL     OW69836   9.537   4.674  11.377  0.2345 -0.0425 -0.4703
21633SOL    HW169837   9.514   4.621  11.301  0.9815 -0.1453 -0.6255
21633SOL    HW269838   9.466   4.739  11.383  1.2842  1.4256 -2.6297
21634SOL     OW69839   2.090   0.131  10.698  0.8234 -0.2594  0.1690
21634SOL    HW169840   2.092   0.055  10.755  0.8018  0.2840  0.9052
21634SOL    HW269841   2.069   0.204  10.756  1.0150  0.3326 -0.4955
21635SOL     OW69842   1.533   5.293   9.330  0.0493 -0.3407  0.0314
21635SOL    HW169843   1.584   5.318   9.253 -0.4394 -0.4521 -0.3306
21635SOL    HW269844   1.513   5.201   9.316 -1.0707 -0.0546 -0.2988
21636SOL     OW69845  11.162   6.973   0.157  0.4644 -0.2298 -0.2424
21636SOL    HW169846  11.244   7.021   0.147  0.4995 -0.5909 -1.9467
21636SOL    HW269847  11.106   7.005   0.087 -0.2409 -1.2175 -0.1543
21637SOL     OW69848   8.844   5.006   2.490  0.1944 -0.1910  0.2724
21637SOL    HW169849   8.881   5.017   2.403 -0.2833 -0.3127  0.0472
21637SOL    HW269850   8.766   4.953   2.476  0.7721 -1.2540  0.9266
21638SOL     OW69851   6.346   3.862   3.691  0.1177 -0.5952 -0.2825
21638SOL    HW169852   6.415   3.850   3.626  0.0419  0.5147 -0.5906
21638SOL    HW269853   6.270   3.817   3.654 -0.2863  1.0538 -1.5916
21639SOL     OW69854   0.376  10.293   4.516 -0.2538 -0.3032 -0.0943
21639SOL    HW169855   0.430  10.302   4.438 -0.1829 -1.0462 -0.1407
21639SOL    HW269856   0.350  10.201   4.517 -2.8792  0.3154 -0.9722
21640SOL     OW69857   4.277   3.662   4.645  0.8550 -0.5525 -0.0403
21640SOL    HW169858   4.320   3.727   4.700  0.6106  0.3277 -0.8553
21640SOL    HW269859   4.254   3.591   4.704  1.2816  0.0299  0.8391
21641SOL     OW69860   6.872   6.838   6.021  0.0357  0.4694 -0.0375
21641SOL    HW169861   6.882   6.782   6.098  0.9270 -0.3910 -0.7383
21641SOL    HW269862   6.879   6.777   5.947 -0.6856  1.2873 -0.8054
21642SOL     OW69863   4.303   9.328   2.957  0.4566  0.1235  0.0647
21642SOL    HW169864   4.313   9.421   2.935  1.3171 -0.7193 -3.7637
21642SOL    HW269865   4.388   9.290   2.938 -0.1947 -1.6633  0.5474
21643SOL     OW69866   4.702   0.123   1.472  0.3368 -0.3453  0.0541
21643SOL    HW169867   4.734   0.061   1.406  2.4226  0.3406  0.3534
21643SOL    HW269868   4.781   0.165   1.507 -0.8049  0.3143  2.0199
21644SOL     OW69869   0.238   0.978  10.754  0.0141  0.3778 -0.4044
21644SOL    HW169870   0.294   1.013  10.824  0.6366  0.7797 -1.0818
21644SOL    HW269871   0.187   1.054  10.724  0.6472  0.5115 -1.2043
21645SOL     OW69872   1.102   2.086   2.693  1.0642  0.0462  0.0281
21645SOL    HW169873   1.185   2.125   2.665  1.7820 -1.2817  0.2751
21645SOL    HW269874   1.074   2.034   2.618  1.8106 -1.6318  0.8685
21646SOL     OW69875   3.625   2.021   5.576 -0.8671  0.6020  0.5510
21646SOL    HW169876   3.545   1.993   5.621 -1.8173  0.8613 -0.9033
21646SOL    HW269877   3.688   2.036   5.646 -1.4711 -1.5077  1.6347
21647SOL     OW69878   7.842   3.344   2.753 -0.2324  0.1947 -0.1919
21647SOL    HW169879   7.884   3.428   2.776  0.2812  0.0253 -0.5073
21647SOL    HW269880   7.751   3.367   2.737 -0.8678  0.2340  2.8133
21648SOL     OW69881   6.195   1.688   0.744  0.0513  0.2027  0.4445
21648SOL    HW169882   6.132   1.717   0.678  0.4475  1.8813  0.7620
21648SOL    HW269883   6.273   1.667   0.693 -0.2923 -0.4773  0.1913
21649SOL     OW69884   8.262   5.680   0.665  0.0883  0.1608 -0.3641
21649SOL    HW169885   8.215   5.612   0.617  0.7282 -0.5872  0.0419
21649SOL    HW269886   8.206   5.701   0.739  0.0317 -0.1578 -0.3160
21650SOL     OW69887  10.348   0.822   4.223 -0.0175 -0.0736 -0.1162
21650SOL    HW169888  10.266   0.871   4.231 -0.4202 -0.7320 -0.0858
21650SOL    HW269889  10.352   0.796   4.131  0.8355  1.0832 -0.4294
21651SOL     OW69890   0.778   9.931   7.279  0.6038 -0.3679  0.1414
21651SOL    HW169891   0.755   9.967   7.365  0.2458 -1.4811  0.5327
21651SOL    HW269892   0.698   9.887   7.250 -0.1562  2.1103 -1.9468
21652SOL     OW69893   4.542   1.960   7.105 -0.1899  0.1976  0.1385
21652SOL    HW169894   4.563   1.867   7.111  1.4187  0.5325  0.2416
21652SOL    HW269895   4.570   1.996   7.189  1.6795  1.1872 -0.8459
21653SOL     OW69896   5.682  10.905   7.046  0.0914  0.1668  0.0942
21653SOL    HW169897   5.698  10.897   6.952 -1.7712 -1.6237 -0.1492
21653SOL    HW269898   5.762  10.871   7.087 -0.2820 -2.1366 -0.9392
21654SOL     OW69899   6.889   3.164   4.959 -0.2845 -0.4815 -0.4549
21654SOL    HW169900   6.923   3.188   4.873  1.0956  0.6483  0.3595
21654SOL    HW269901   6.814   3.107   4.941  0.2871 -0.6781 -2.3770
21655SOL     OW69902   2.900   4.014   0.599 -1.3383 -0.8104 -0.1611
21655SOL    HW169903   2.948   4.009   0.682  0.1120 -0.2498 -0.9307
21655SOL    HW269904   2.808   4.007   0.624 -0.9490 -0.3744  1.5166
21656SOL     OW69905   9.298   4.818  11.364  0.0873  0.2149 -0.2265
21656SOL    HW169906   9.239   4.818  11.440  0.7343 -0.5318  0.2932
21656SOL    HW269907   9.243   4.789  11.291  0.2836 -2.7740  0.6846
21657SOL     OW69908   1.755   5.451   1.996 -0.0976  0.3350 -0.6402
21657SOL    HW169909   1.739   5.357   1.986 -1.6358  0.7831 -3.0226
21657SOL    HW269910   1.850   5.460   1.992  0.2736 -1.2889  2.0277
21658SOL     OW69911   3.855   9.898   0.656 -0.1756  0.4652 -0.0382
21658SOL    HW169912   3.898   9.921   0.573 -0.7972 -0.0974 -0.5335
21658SOL    HW269913   3.786   9.964   0.665  0.8519  1.4652  0.8384
21659SOL     OW69914   3.329   9.876   6.492  0.2637  0.2779  0.2236
21659SOL    HW169915   3.334   9.953   6.549 -0.9382  1.8930 -1.7008
21659SOL    HW269916   3.404   9.886   6.433 -0.2688  0.3577 -0.4500
21660SOL     OW69917   0.007   1.379   1.131  0.0937  0.5624 -0.0644
21660SOL    HW169918  -0.001   1.283   1.130  0.4517  0.5288 -0.7695
21660SOL    HW269919  -0.082   1.411   1.140  0.0568  0.1539  1.1067
21661SOL     OW69920  11.447   3.529   2.288  0.3251  0.4423  0.2157
21661SOL    HW169921  11.444   3.542   2.193 -0.0092  0.8702  0.2779
21661SOL    HW269922  11.370   3.475   2.307  2.2013 -2.5894 -0.1552
21662SOL     OW69923   2.994  11.180   9.618 -0.5550 -0.1289  0.1854
21662SOL    HW169924   2.999  11.136   9.703  0.1678  1.6531  1.1160
21662SOL    HW269925   2.968  11.269   9.639 -0.4206  0.3268 -1.4862
21663SOL     OW69926   3.473   6.595   3.240 -0.0189 -0.2511  0.2081
21663SOL    HW169927   3.430   6.512   3.219 -0.2872  0.2847 -1.5542
21663SOL    HW269928   3.409   6.644   3.292 -0.4080 -0.6044  0.0656
21664SOL     OW69929   1.058   5.316  11.658 -0.0550 -0.3774  0.2607
21664SOL    HW169930   1.011   5.237  11.631 -1.8563  0.6032  0.3723
21664SOL    HW269931   1.002   5.388  11.629  0.5468  0.8283  1.9505
21665SOL     OW69932   1.860   9.237  10.753 -0.2373  0.2176  0.5802
21665SOL    HW169933   1.860   9.167  10.688  1.2355 -1.7801  2.5824
21665SOL    HW269934   1.895   9.313  10.707  0.6960 -1.1120 -0.9795
21666SOL     OW69935  10.059   6.779   3.336 -0.2388 -0.3382 -0.0968
21666SOL    HW169936   9.998   6.843   3.372 -0.1665 -0.6743  0.6464
21666SOL    HW269937  10.146   6.808   3.366  0.0673  0.5530 -1.7673
21667SOL     OW69938  10.018   2.627   5.561  0.3029 -0.1006  0.1168
21667SOL    HW169939   9.927   2.606   5.584  0.3179  1.4346  1.8263
21667SOL    HW269940  10.046   2.689   5.628  1.4424  2.3053 -2.3930
21668SOL     OW69941  10.927   2.986   2.999 -0.4005 -0.6402  0.7012
21668SOL    HW169942  10.858   3.017   2.941 -0.2110 -1.0278  0.2575
21668SOL    HW269943  11.001   2.966   2.941 -0.6713 -2.3506  0.8888
21669SOL     OW69944  10.323   7.690   7.045 -0.1701  0.1984 -0.0714
21669SOL    HW169945  10.299   7.600   7.068  0.1272 -0.3850 -1.8679
21669SOL    HW269946  10.241   7.729   7.013 -0.1685  0.3851  0.1470
21670SOL     OW69947   4.021   0.339   6.999 -0.3352  0.6609 -0.4776
21670SOL    HW169948   4.008   0.337   7.093  1.6196  0.4276 -0.1793
21670SOL    HW269949   3.989   0.425   6.972 -0.4188  0.9339  0.4810
21671SOL     OW69950   6.563   5.339   4.475  0.1647 -0.0065 -0.6947
21671SOL    HW169951   6.559   5.396   4.551  0.9685 -1.0738  0.1825
21671SOL    HW269952   6.487   5.281   4.484 -1.1572  1.4160 -2.0449
21672SOL     OW69953   7.921   4.161  11.158 -0.0271  0.1168 -0.3993
21672SOL    HW169954   7.982   4.091  11.182 -0.3447  1.0493  4.1374
21672SOL    HW269955   7.973   4.222  11.106  1.1299 -1.8872 -1.7209
21673SOL     OW69956   9.928   9.679   4.777 -0.7391  0.0697 -0.0080
21673SOL    HW169957   9.860   9.664   4.711 -0.7044 -0.2151  0.0185
21673SOL    HW269958   9.913   9.768   4.808 -1.1091  0.0006  0.0089
21674SOL     OW69959   6.863   4.565   9.088 -0.6394 -0.1145 -0.3137
21674SOL    HW169960   6.810   4.486   9.089 -0.8859  0.0022 -1.5732
21674SOL    HW269961   6.902   4.566   9.000  0.2808  0.5625  0.0856
21675SOL     OW69962   6.602   3.795   9.702 -0.1200  0.4018 -0.1938
21675SOL    HW169963   6.641   3.709   9.683  1.9242  1.0855  0.5932
21675SOL    HW269964   6.521   3.774   9.749  0.2054 -1.0941 -0.2300
21676SOL     OW69965   8.596   5.567   1.789 -0.1099  0.3242  0.2640
21676SOL    HW169966   8.527   5.633   1.797  0.1739  0.9211 -1.6444
21676SOL    HW269967   8.598   5.523   1.874 -2.7067  0.4231  0.4641
21677SOL     OW69968   9.263  11.340  11.025  0.8124  0.3975  0.3406
21677SOL    HW169969   9.331  11.293  11.074  0.3066 -1.2596 -0.4740
21677SOL    HW269970   9.183  11.290  11.042  0.4902  0.2043 -1.5848
21678SOL     OW69971   7.551  11.242   9.927  0.5297 -0.3059  0.0443
21678SOL    HW169972   7.558  11.302  10.002  1.6474 -1.3501  0.8139
21678SOL    HW269973   7.481  11.181   9.951  2.3336 -1.9997  1.3001
21679SOL     OW69974   2.388   8.300   4.720  0.8858 -0.1631 -0.1820
21679SOL    HW169975   2.404   8.392   4.696 -0.4757  0.3027  0.6007
21679SOL    HW269976   2.302   8.301   4.762  0.2936 -1.9893 -1.2303
21680SOL     OW69977  11.637  10.103   3.766  0.0824  0.4095  0.0138
21680SOL    HW169978  11.580  10.120   3.840 -0.5407 -2.0838  0.1812
21680SOL    HW269979  11.628  10.009   3.749  2.2413  0.4012 -1.5303
21681SOL     OW69980   7.908   0.589   4.562 -0.2085  0.2327 -1.0096
21681SOL    HW169981   7.834   0.649   4.568  0.1910  0.5758  2.2350
21681SOL    HW269982   7.886   0.517   4.622  1.0238 -0.9077 -1.8682
21682SOL     OW69983   0.347   0.094   4.225 -0.2584 -0.5039  0.0091
21682SOL    HW169984   0.297   0.027   4.273 -0.8671 -1.0200 -1.3054
21682SOL    HW269985   0.426   0.049   4.198 -0.7077 -0.7330 -0.9509
21683SOL     OW69986   3.436  10.132   8.410  0.4407  0.2112 -0.3583
21683SOL    HW169987   3.406  10.163   8.496  0.0446 -1.3881  0.1202
21683SOL    HW269988   3.378  10.175   8.347  0.0153  0.5550  0.2638
21684SOL     OW69989   2.749   7.154   7.476 -0.0314  0.0868 -0.3470
21684SOL    HW169990   2.830   7.182   7.435  0.1706  0.5828  0.3699
21684SOL    HW269991   2.732   7.067   7.439  1.2793 -0.3933  0.1019
21685SOL     OW69992   5.400  10.635   9.102 -0.5416 -0.4117  0.5889
21685SOL    HW169993   5.475  10.584   9.133 -1.2128 -1.3296  0.7515
21685SOL    HW269994   5.348  10.651   9.181 -0.3697  0.4960  0.5292
21686SOL     OW69995   2.265   2.549  11.529 -1.3059  0.8734 -0.3577
21686SOL    HW169996   2.212   2.541  11.608  1.7060 -0.5825  1.7274
21686SOL    HW269997   2.322   2.624  11.546 -0.6598  0.5824 -1.1796
21687SOL     OW69998   3.104   8.079   8.091 -0.1814 -0.3701  0.5693
21687SOL    HW169999   3.195   8.048   8.087 -0.2695 -0.5634 -0.1672
21687SOL    HW270000   3.086   8.089   8.184  0.7980  0.2500  0.7119
21688SOL     OW70001  11.556   2.093   9.580  0.0649 -0.0585  0.6859
21688SOL    HW170002  11.501   2.150   9.527  2.2335  0.8655 -0.7290
21688SOL    HW270003  11.566   2.013   9.528 -0.3928 -0.4556  1.1989
21689SOL     OW70004   4.939   7.823   1.292 -0.0498 -0.1960  0.1662
21689SOL    HW170005   4.975   7.909   1.315  3.4929 -2.2796  3.7038
21689SOL    HW270006   5.009   7.779   1.243 -1.5497 -1.3469 -1.0548
21690SOL     OW70007   7.951   4.901   7.023 -0.8466 -0.3670  0.3398
21690SOL    HW170008   8.027   4.865   7.067 -1.5340 -2.3431  0.0322
21690SOL    HW270009   7.897   4.937   7.093  0.6588  1.8156  0.4937
21691SOL     OW70010   0.589   5.428   2.032  0.0343 -0.0050  0.0419
21691SOL    HW170011   0.649   5.450   1.961  0.4875 -0.2488  0.3514
21691SOL    HW270012   0.585   5.333   2.033 -1.1713  0.0198 -0.6555
21692SOL     OW70013   6.223   8.563   1.433  0.5942 -0.0461  0.2375
21692SOL    HW170014   6.212   8.600   1.346 -0.3364 -0.4801  0.1541
21692SOL    HW270015   6.135   8.566   1.472  0.7689 -0.8977  0.7266
21693SOL     OW70016   3.919   6.572  11.167  0.0307 -0.1103 -0.0553
21693SOL    HW170017   3.829   6.544  11.151 -0.1029  0.6082 -0.6089
21693SOL    HW270018   3.927   6.574  11.263 -0.5098 -0.2824 -0.0067
21694SOL     OW70019   7.109   3.010  10.003 -0.2511  0.4265  0.3089
21694SOL    HW170020   7.019   2.977   9.998  0.4390 -1.7934  1.1755
21694SOL    HW270021   7.121   3.035  10.094  0.5015 -0.9219  0.6039
21695SOL     OW70022   1.189   2.441   6.303  0.6385 -0.2530  0.5761
21695SOL    HW170023   1.206   2.352   6.272  0.3287  0.7334 -2.8398
21695SOL    HW270024   1.093   2.446   6.313  0.5071  0.0751 -0.7034
21696SOL     OW70025   3.610   1.378   8.920  0.1855 -0.3523 -0.2614
21696SOL    HW170026   3.534   1.341   8.874  1.2089 -0.1222 -2.2414
21696SOL    HW270027   3.582   1.465   8.945 -0.5132 -0.6000 -0.1481
21697SOL     OW70028  11.138   3.921   0.832 -0.0315 -0.2406 -0.2969
21697SOL    HW170029  11.105   3.871   0.757 -0.5090  1.2453 -1.1230
21697SOL    HW270030  11.185   3.856   0.885  0.4673 -1.3069 -1.9520
21698SOL     OW70031   6.137   0.329   4.615 -0.2639 -0.3011  0.3658
21698SOL    HW170032   6.166   0.349   4.526 -0.6575 -0.1717  0.2650
21698SOL    HW270033   6.099   0.411   4.647  1.6834  0.2710  1.3964
21699SOL     OW70034   2.890   1.403   4.188 -0.3026  0.1351 -0.0461
21699SOL    HW170035   2.830   1.341   4.146 -0.1431  0.4083 -0.6895
21699SOL    HW270036   2.864   1.489   4.153  0.0977  0.3211  0.1061
21700SOL     OW70037   8.839   9.448   3.147 -0.2276  0.2703  0.1171
21700SOL    HW170038   8.784   9.411   3.217  0.3944  0.6659  0.8392
21700SOL    HW270039   8.842   9.541   3.167 -0.2598  0.4231 -0.6007
21701SOL     OW70040   9.787   5.620   2.423 -0.0997 -0.4926  0.1161
21701SOL    HW170041   9.808   5.707   2.388 -1.2976 -1.0793 -2.3476
21701SOL    HW270042   9.866   5.568   2.408  0.6704  0.1609  1.7248
21702SOL     OW70043   8.732  10.304  10.969  0.5880  0.3094  0.0469
21702SOL    HW170044   8.811  10.353  10.992  0.4002 -0.1837  1.9732
21702SOL    HW270045   8.667  10.371  10.948  0.5301  0.9157  1.9633
21703SOL     OW70046   2.825   9.812   6.429  0.1128  0.3320 -0.5955
21703SOL    HW170047   2.917   9.814   6.403 -0.1686 -0.6134 -1.7425
21703SOL    HW270048   2.826   9.773   6.517  0.7962  0.1956 -0.6583
21704SOL     OW70049  10.316   7.126   3.439 -0.0848 -0.0874 -1.0326
21704SOL    HW170050  10.404   7.109   3.406 -0.2579 -1.2645 -0.9311
21704SOL    HW270051  10.290   7.044   3.482 -0.1345  1.1300  1.4230
21705SOL     OW70052   4.767   1.908   0.267 -0.4386 -0.0433 -0.3562
21705SOL    HW170053   4.712   1.830   0.269 -0.3603 -0.1324  2.9999
21705SOL    HW270054   4.707   1.981   0.283 -0.2349  0.4138 -1.5680
21706SOL     OW70055   5.582   6.539   1.771  0.6801 -0.2792  0.5233
21706SOL    HW170056   5.648   6.555   1.703 -0.3724 -0.4495 -0.5677
21706SOL    HW270057   5.633   6.511   1.847  1.7746 -2.5226 -0.9232
21707SOL     OW70058  10.765  10.641   2.167  0.1480  0.0715  0.1891
21707SOL    HW170059  10.834  10.629   2.102  1.2249 -1.5567  1.5401
21707SOL    HW270060  10.692  10.679   2.117  1.3251  0.0211 -1.6934
21708SOL     OW70061   2.508   6.292   5.469 -0.2181  0.7469  0.6381
21708SOL    HW170062   2.475   6.285   5.379 -0.6162  0.6653  0.7920
21708SOL    HW270063   2.448   6.352   5.512 -1.1281 -0.6460  1.3682
21709SOL     OW70064   6.916   7.102   5.765 -0.0971  0.5956 -0.0616
21709SOL    HW170065   6.904   7.135   5.854 -0.6580  1.1270 -0.3266
21709SOL    HW270066   7.002   7.134   5.738 -0.1118  0.7962  0.1335
21710SOL     OW70067   1.312   2.077  11.117 -0.4843  0.3614 -0.2950
21710SOL    HW170068   1.375   2.055  11.184 -0.2335 -1.0387 -0.9538
21710SOL    HW270069   1.233   2.101  11.165  0.0427  0.5265  0.5023
21711SOL     OW70070   0.657   2.222   5.052 -0.7556 -0.0148  0.6964
21711SOL    HW170071   0.618   2.238   4.966 -1.5130  0.6180  1.1354
21711SOL    HW270072   0.725   2.157   5.036 -1.0506 -0.0933 -0.3394
21712SOL     OW70073   1.999   0.909   3.671 -0.5222  0.6877  0.4504
21712SOL    HW170074   1.997   0.970   3.745 -2.8624  1.1438  0.0797
21712SOL    HW270075   1.908   0.900   3.645  0.2022  0.4838 -2.3523
21713SOL     OW70076   6.119   0.324   3.455 -0.6869  0.1356 -0.3994
21713SOL    HW170077   6.121   0.286   3.367 -3.8643 -0.6063 -0.2892
21713SOL    HW270078   6.127   0.249   3.514  3.0960  0.7730  0.1079
21714SOL     OW70079   8.481   9.698   4.873  0.4609  0.2638  0.1848
21714SOL    HW170080   8.409   9.689   4.811  0.6273 -0.2858  0.0712
21714SOL    HW270081   8.470   9.786   4.909 -0.1451  0.2655  0.0145
21715SOL     OW70082   8.808   2.467   2.193 -0.1312  0.3862  0.1564
21715SOL    HW170083   8.825   2.395   2.254 -0.8208 -2.1662 -2.4512
21715SOL    HW270084   8.878   2.461   2.128 -1.9120 -0.0098 -1.8266
21716SOL     OW70085   9.749   9.524   9.426 -0.3558 -0.2487 -0.0810
21716SOL    HW170086   9.777   9.484   9.343  0.9383  0.5095 -0.0221
21716SOL    HW270087   9.681   9.464   9.459  0.2723 -1.4420 -0.8763
21717SOL     OW70088   3.247   5.874   9.538 -0.1468 -0.2950 -0.1644
21717SOL    HW170089   3.238   5.968   9.550 -0.2824 -0.3426  0.1054
21717SOL    HW270090   3.161   5.839   9.561  0.3271 -0.6323  1.1421
21718SOL     OW70091   1.827   1.016  10.825 -0.4754 -0.9422  0.2623
21718SOL    HW170092   1.903   0.959  10.818 -0.1011 -0.5795  1.2234
21718SOL    HW270093   1.844   1.087  10.764  0.1298 -0.6847  0.7197
21719SOL     OW70094   5.115   6.623   0.998 -0.0879 -0.2108 -1.0855
21719SOL    HW170095   5.156   6.703   1.030  0.8325 -0.8897 -0.5376
21719SOL    HW270096   5.083   6.646   0.911  1.1558  0.4382 -1.3897
21720SOL     OW70097   8.593   4.180   2.819  0.6631 -0.2014 -0.2690
21720SOL    HW170098   8.574   4.191   2.912 -0.9517  1.4117 -0.7258
21720SOL    HW270099   8.688   4.189   2.813  0.7385  0.1770  1.1722
21721SOL     OW70100   0.609   6.719   8.501 -0.5007 -0.3110 -0.2886
21721SOL    HW170101   0.599   6.703   8.595  1.7175 -1.6907 -0.2127
21721SOL    HW270102   0.603   6.632   8.461 -0.5713  0.1606 -1.3278
21722SOL     OW70103   9.830   5.160   1.333 -0.2598 -0.4699  1.0884
21722SOL    HW170104   9.833   5.216   1.255 -0.2040 -1.1812  0.5749
21722SOL    HW270105   9.842   5.221   1.406 -0.2713  0.2006  0.5423
21723SOL     OW70106   7.093  10.606   9.129 -0.8607  0.1482 -0.0495
21723SOL    HW170107   7.057  10.682   9.084 -2.1468  0.2702  1.1087
21723SOL    HW270108   7.162  10.574   9.071 -0.4578  2.0316 -0.6855
21724SOL     OW70109   5.405   6.947   7.514  0.0033 -0.2573  0.1495
21724SOL    HW170110   5.436   6.861   7.486  0.3436 -0.5675  1.4058
21724SOL    HW270111   5.436   7.007   7.447 -1.7954 -1.3035 -1.7451
21725SOL     OW70112   1.954   8.586   7.714  0.8792  0.0136 -0.0865
21725SOL    HW170113   1.996   8.602   7.629  0.3982  1.3043 -0.1010
21725SOL    HW270114   1.980   8.497   7.736  0.0956 -0.7892 -2.1281
21726SOL     OW70115   8.127   1.808   0.423  0.4876 -0.2477 -0.0587
21726SOL    HW170116   8.086   1.741   0.370  0.2386 -0.3305  0.2312
21726SOL    HW270117   8.058   1.873   0.437  0.7801  0.1627 -0.4940
21727SOL     OW70118   4.145   8.632   6.397 -0.5330  0.0043 -0.5370
21727SOL    HW170119   4.090   8.710   6.395 -0.7029 -0.1353 -2.5785
21727SOL    HW270120   4.183   8.626   6.310  1.1833 -1.0295  0.2164
21728SOL     OW70121   1.504   8.660   4.891 -0.0954  1.1011 -0.5020
21728SOL    HW170122   1.429   8.619   4.848 -0.4415  1.2861 -0.0852
21728SOL    HW270123   1.517   8.742   4.843 -0.2684  1.1488 -0.4695
21729SOL     OW70124   1.588  11.577   1.334 -0.2078  0.3060  0.1414
21729SOL    HW170125   1.596  11.633   1.411 -1.5630 -0.4727  0.8712
21729SOL    HW270126   1.631  11.495   1.358  2.2379  1.1132 -1.1084
21730SOL     OW70127   6.346  10.914   0.027 -0.0539 -0.7113 -0.5804
21730SOL    HW170128   6.387  10.976  -0.033 -0.5641  0.3378  0.1362
21730SOL    HW270129   6.387  10.830   0.005  2.1060  0.1825 -0.2312
21731SOL     OW70130   5.144   4.671   2.425  0.0658 -0.2151  0.0648
21731SOL    HW170131   5.158   4.603   2.492  1.8072  1.0983  1.1160
21731SOL    HW270132   5.173   4.752   2.467 -1.6469  1.1611 -1.2799
21732SOL     OW70133   8.608   0.104   1.563 -0.4345 -0.1520 -0.5153
21732SOL    HW170134   8.631   0.021   1.605  1.6583  0.4594 -0.3572
21732SOL    HW270135   8.592   0.081   1.471 -0.8416 -0.8663 -0.2727
21733SOL     OW70136   1.138   2.020  10.852 -0.4135 -0.0348 -0.1151
21733SOL    HW170137   1.189   1.959  10.798  0.6743  0.8786 -0.1612
21733SOL    HW270138   1.171   2.006  10.941  1.3963  1.9188 -0.4024
21734SOL     OW70139   5.144   9.859   6.278  0.5353  0.0688 -0.2662
21734SOL    HW170140   5.066   9.915   6.280  0.7101  0.3226 -0.5091
21734SOL    HW270141   5.109   9.771   6.258  0.2761  0.1119 -0.0163
21735SOL     OW70142   5.097  11.105   7.488  0.3875 -0.0950  0.4216
21735SOL    HW170143   5.173  11.054   7.517 -0.4341 -0.6109  1.7241
21735SOL    HW270144   5.130  11.195   7.482  1.6452 -0.5947 -1.1371
21736SOL     OW70145   7.519   8.619   9.117  0.2668  0.5654  0.4094
21736SOL    HW170146   7.564   8.632   9.034 -1.0978 -2.8345 -1.0417
21736SOL    HW270147   7.584   8.575   9.172  0.2418  0.0161  0.0126
21737SOL     OW70148   7.783   6.854   7.811  0.6667  0.2018 -0.2491
21737SOL    HW170149   7.764   6.769   7.770 -0.8286 -0.0813  0.9450
21737SOL    HW270150   7.830   6.832   7.891  0.4683  0.5173 -0.0448
21738SOL     OW70151   6.544   7.915   1.564  0.0428 -0.4566 -0.3393
21738SOL    HW170152   6.485   7.990   1.571 -0.2689 -0.8278  1.8329
21738SOL    HW270153   6.518   7.871   1.483 -1.6309  0.2649 -0.2366
21739SOL     OW70154   6.138   7.504   6.421  0.4922 -0.1359 -0.0506
21739SOL    HW170155   6.126   7.451   6.342  1.2969  1.3692 -1.2438
21739SOL    HW270156   6.128   7.594   6.390 -1.6619  0.4297  2.0579
21740SOL     OW70157   0.470   7.793   1.693 -0.0372 -0.3597 -0.2588
21740SOL    HW170158   0.486   7.876   1.739 -1.2766 -0.0689 -0.3133
21740SOL    HW270159   0.438   7.735   1.762 -1.6819  0.0084 -0.6704
21741SOL     OW70160   2.848   0.964   8.626 -0.2166  0.1973  0.3203
21741SOL    HW170161   2.773   0.904   8.633  0.6510 -0.9293  0.2300
21741SOL    HW270162   2.833   1.012   8.545  0.0440 -1.3143 -0.6733
21742SOL     OW70163   3.070   6.329  10.056 -0.1512  0.1916 -0.1661
21742SOL    HW170164   2.999   6.393  10.066 -1.1338 -1.0759  1.3432
21742SOL    HW270165   3.038   6.250  10.099  0.4429 -1.8466 -3.1821
21743SOL     OW70166   2.903   2.829   3.744 -0.0651  0.1418 -0.2477
21743SOL    HW170167   2.948   2.745   3.749  1.7607  0.9723 -1.6259
21743SOL    HW270168   2.879   2.840   3.652  0.6483  1.5554 -0.2982
21744SOL     OW70169   9.921   7.749   4.119  0.1600  0.1424 -0.6068
21744SOL    HW170170   9.845   7.716   4.072 -0.7483  1.1357  0.0967
21744SOL    HW270171   9.931   7.839   4.088 -0.5873  0.8915  1.1802
21745SOL     OW70172   8.556   4.029   8.107  0.1328 -0.2133  0.2316
21745SOL    HW170173   8.611   4.005   8.182  0.4902  2.3738  0.9176
21745SOL    HW270174   8.467   4.029   8.142  0.1549 -0.3321  0.2871
21746SOL     OW70175   0.469  10.957   6.917 -0.1483  0.5435  0.1040
21746SOL    HW170176   0.562  10.979   6.916  0.2985 -1.1831  0.1262
21746SOL    HW270177   0.467  10.862   6.912 -1.9212  0.5250  0.5015
21747SOL     OW70178  10.430   8.670   4.257  0.2669 -0.1114  0.0826
21747SOL    HW170179  10.493   8.621   4.204 -0.3993  0.0711 -0.9016
21747SOL    HW270180  10.374   8.714   4.194 -2.1130 -1.8148  0.8669
21748SOL     OW70181   5.265   7.097  11.334  0.3392  0.5078  0.4534
21748SOL    HW170182   5.346   7.049  11.350 -0.2182 -0.7168 -0.3012
21748SOL    HW270183   5.241   7.074  11.244 -0.3259  1.6419  0.3219
21749SOL     OW70184   1.885   0.714   9.001  0.4969  0.4009 -0.0181
21749SOL    HW170185   1.902   0.804   9.028  1.8543  0.0893  0.2250
21749SOL    HW270186   1.939   0.701   8.924  0.1990 -0.1715 -0.1358
21750SOL     OW70187   3.214   7.979   9.913  0.0022 -0.1536 -0.0433
21750SOL    HW170188   3.207   7.903   9.971 -0.2252 -1.0544 -1.2269
21750SOL    HW270189   3.306   8.004   9.919  0.2665 -1.0278 -0.2503
21751SOL     OW70190   8.154   6.055   7.450  0.2031 -0.4841  0.0181
21751SOL    HW170191   8.112   6.055   7.536  1.8539 -1.9447  0.8703
21751SOL    HW270192   8.202   6.138   7.448  0.3644 -0.5521  0.6326
21752SOL     OW70193   3.310   1.721   2.038 -0.1925  0.0034 -0.6654
21752SOL    HW170194   3.319   1.795   2.097 -0.3311  1.0190 -1.8878
21752SOL    HW270195   3.343   1.646   2.089  1.0359  1.0760  0.1834
21753SOL     OW70196   1.852   3.683   2.801 -0.1600  0.8085 -0.5908
21753SOL    HW170197   1.780   3.746   2.802 -1.5894 -0.7460 -0.3809
21753SOL    HW270198   1.849   3.642   2.887  1.6130  1.3561 -0.2392
21754SOL     OW70199   3.507   4.951   0.750 -0.0232  0.2418 -0.8653
21754SOL    HW170200   3.546   4.909   0.674 -0.8062 -1.2777 -0.4504
21754SOL    HW270201   3.413   4.937   0.741 -0.4359  2.6774 -1.1385
21755SOL     OW70202   8.545   5.577   5.739  0.0212 -0.0950  0.0469
21755SOL    HW170203   8.575   5.629   5.813 -0.0095  0.9205 -0.6318
21755SOL    HW270204   8.588   5.492   5.749  0.2863  0.1494  1.0253
21756SOL     OW70205   5.456   2.189   0.064 -0.3856  0.0866 -0.1785
21756SOL    HW170206   5.364   2.214   0.066 -0.6686 -0.9551  1.2161
21756SOL    HW270207   5.455   2.097   0.040  0.1494 -0.4040  1.5529
21757SOL     OW70208  10.790   5.734   1.349  0.2770  1.0025 -1.4291
21757SOL    HW170209  10.882   5.755   1.332  1.4625 -0.0949  2.5550
21757SOL    HW270210  10.766   5.792   1.421 -1.8592  0.5197 -1.6946
21758SOL     OW70211   2.226  10.065   2.263 -0.0577 -0.0798 -0.0108
21758SOL    HW170212   2.195  10.035   2.178 -1.2153 -3.2288  1.3890
21758SOL    HW270213   2.148  10.068   2.319  1.0310 -0.8118  1.6403
21759SOL     OW70214   4.047   6.665   3.824  0.3990  0.6891  0.1646
21759SOL    HW170215   4.005   6.744   3.791 -0.5162 -0.0867 -0.6032
21759SOL    HW270216   4.066   6.614   3.745  0.0965 -0.2763  0.7071
21760SOL     OW70217   4.880   3.342   4.579  0.3069  0.2076  0.3498
21760SOL    HW170218   4.795   3.319   4.542  0.2871  0.0587  0.4870
21760SOL    HW270219   4.875   3.314   4.670  1.3359 -1.9914 -0.2140
21761SOL     OW70220   0.966   7.268   6.289 -0.0226 -0.3426  0.6384
21761SOL    HW170221   0.916   7.275   6.370  0.1691  2.4456  0.6203
21761SOL    HW270222   1.001   7.356   6.275 -0.4733 -0.5689 -2.7463
21762SOL     OW70223   9.804   5.314   4.273 -0.2187 -0.1239  0.0949
21762SOL    HW170224   9.768   5.366   4.201  0.8166  0.0534 -0.3223
21762SOL    HW270225   9.806   5.374   4.347 -0.8704 -0.1674  0.1457
21763SOL     OW70226   3.951   8.158   1.887  0.4000  0.7828  0.4939
21763SOL    HW170227   3.974   8.224   1.952  0.3697  2.3488 -0.9926
21763SOL    HW270228   3.900   8.206   1.822 -1.7587 -1.2396  0.5403
21764SOL     OW70229   9.114   4.175   9.260 -0.2165 -0.6197  0.0327
21764SOL    HW170230   9.120   4.149   9.352 -1.6026 -0.1962  0.2557
21764SOL    HW270231   9.205   4.191   9.234  0.3166 -1.9081  0.9664
21765SOL     OW70232  10.700   0.943   0.955 -0.4235 -0.3590  0.4790
21765SOL    HW170233  10.790   0.922   0.932  0.3577  0.3106  2.7111
21765SOL    HW270234  10.650   0.865   0.929  0.8178 -0.8500 -0.5172
21766SOL     OW70235   7.545   1.416   9.598 -0.4207  0.1067  0.2296
21766SOL    HW170236   7.622   1.462   9.565  1.0302 -1.9838  0.4799
21766SOL    HW270237   7.494   1.396   9.520  0.1448  0.0587 -0.1358
21767SOL     OW70238   1.791   4.635   9.524  0.0489 -0.0832 -0.4094
21767SOL    HW170239   1.748   4.665   9.444  1.0932  0.1008 -0.9269
21767SOL    HW270240   1.790   4.540   9.518 -0.1336 -0.0749 -0.5028
21768SOL     OW70241   0.122   5.117   8.948 -0.2443 -0.3458 -0.6436
21768SOL    HW170242   0.159   5.037   8.909  2.6703  0.5815 -0.0644
21768SOL    HW270243   0.144   5.110   9.041 -2.5802 -0.1550 -0.0074
21769SOL     OW70244   5.715   5.644   3.461  0.0202 -0.2061  0.9462
21769SOL    HW170245   5.631   5.607   3.433  1.5574 -2.1337 -1.5230
21769SOL    HW270246   5.707   5.738   3.443 -0.7073 -0.7302 -2.0578
21770SOL     OW70247   1.589   1.246   2.530 -0.5389  0.3323  0.0778
21770SOL    HW170248   1.557   1.335   2.517 -1.4247  0.4044  2.2628
21770SOL    HW270249   1.512   1.191   2.517 -0.5230  0.1016  0.9041
21771SOL     OW70250   6.486   1.129   7.187  0.5582  0.1433 -0.7548
21771SOL    HW170251   6.536   1.146   7.107 -0.3154  1.5215 -1.0417
21771SOL    HW270252   6.500   1.036   7.205  2.0575  0.1715 -1.6093
21772SOL     OW70253  10.707  11.363   6.907  0.1666  0.2209 -0.0594
21772SOL    HW170254  10.688  11.395   6.995  2.2544  0.6530  0.2916
21772SOL    HW270255  10.630  11.311   6.884 -1.8016  2.5797  0.7530
21773SOL     OW70256  10.218   3.604   1.551 -0.1884 -0.1812 -0.3961
21773SOL    HW170257  10.244   3.655   1.628 -0.8792  1.2336 -1.0589
21773SOL    HW270258  10.288   3.540   1.540  0.3825  0.1895  0.8703
21774SOL     OW70259   0.038   0.661   2.152 -0.3478  0.1640  0.1395
21774SOL    HW170260   0.067   0.715   2.078  0.5876  0.5802  0.8025
21774SOL    HW270261   0.099   0.588   2.154 -0.8667 -0.2847  0.0130
21775SOL     OW70262   4.600   4.450  11.397  0.2269  0.5291 -0.0847
21775SOL    HW170263   4.583   4.382  11.462 -0.9034  1.4130  0.5911
21775SOL    HW270264   4.625   4.403  11.318 -0.4425 -0.6586  0.3942
21776SOL     OW70265   8.737   9.809   4.213 -0.4636  0.0460  0.2578
21776SOL    HW170266   8.659   9.818   4.158 -0.4490  1.4405  0.4342
21776SOL    HW270267   8.704   9.813   4.303 -0.3455 -0.9892  0.3692
21777SOL     OW70268   3.996   7.360   6.668 -0.1177 -0.3969  0.3908
21777SOL    HW170269   4.035   7.362   6.756  1.1948  0.2959 -0.1708
21777SOL    HW270270   4.062   7.402   6.612 -0.5250 -1.6360 -1.0872
21778SOL     OW70271   6.577   9.871  10.638 -0.1038  0.1775  0.0037
21778SOL    HW170272   6.576   9.942  10.702 -1.8270  2.6612 -2.5597
21778SOL    HW270273   6.487   9.839  10.637 -0.0519  0.0393 -1.0170
21779SOL     OW70274   5.856  10.547  10.926  0.2752  0.2539  0.0318
21779SOL    HW170275   5.815  10.461  10.934  0.5212  0.1915  0.6732
21779SOL    HW270276   5.914  10.539  10.850  0.3006 -0.1406  0.0919
21780SOL     OW70277   5.446   8.374   4.075 -0.4689  0.3587 -0.0099
21780SOL    HW170278   5.479   8.346   4.160 -0.2257 -0.3577 -0.3270
21780SOL    HW270279   5.357   8.403   4.092 -0.4378  0.1822  0.4787
21781SOL     OW70280   6.170   7.204   9.657  0.1316  0.4553  0.2465
21781SOL    HW170281   6.101   7.161   9.708 -2.1869  1.3239 -1.9124
21781SOL    HW270282   6.196   7.139   9.592 -0.5820  0.9871 -0.5886
21782SOL     OW70283  11.367   7.740   6.888 -0.1161 -0.1736 -0.2699
21782SOL    HW170284  11.324   7.801   6.828 -2.5494 -0.6390  0.8801
21782SOL    HW270285  11.421   7.796   6.944 -0.8269  0.7164 -0.4508
21783SOL     OW70286   7.109   5.810   7.085 -0.3635 -0.2042  0.2657
21783SOL    HW170287   7.082   5.752   7.014  0.1556  1.5339 -1.4513
21783SOL    HW270288   7.136   5.891   7.041  0.6711  0.7061  2.4107
21784SOL     OW70289   4.486  11.064   5.488  0.3279  0.1778  0.1543
21784SOL    HW170290   4.509  11.117   5.564  2.0817 -1.5245  0.9062
21784SOL    HW270291   4.544  10.988   5.494 -1.4890 -1.4256 -1.3155
21785SOL     OW70292  10.636   2.554   3.974 -0.1001  0.3268 -0.6188
21785SOL    HW170293  10.625   2.576   4.067 -0.1436 -0.3382 -0.4634
21785SOL    HW270294  10.674   2.466   3.975 -0.7523  0.0350 -1.2431
21786SOL     OW70295   2.480   5.053   5.968  0.1057 -0.5222 -0.5285
21786SOL    HW170296   2.408   5.114   5.951 -1.0726 -1.6031  0.4768
21786SOL    HW270297   2.542   5.069   5.896 -0.7795  0.9253 -1.0120
21787SOL     OW70298   8.394   2.370   8.527 -0.2067  0.2785 -0.2832
21787SOL    HW170299   8.355   2.439   8.581 -1.2106  0.1114 -0.7693
21787SOL    HW270300   8.488   2.374   8.546 -0.4128  0.9299  0.6529
21788SOL     OW70301   6.499   4.504   4.852  0.3463 -0.2738 -0.2503
21788SOL    HW170302   6.466   4.429   4.903  0.4486  0.4622  0.9337
21788SOL    HW270303   6.444   4.577   4.880  0.5973  0.2093 -1.0089
21789SOL     OW70304   1.237   2.263   1.797  0.5567 -0.0833  0.2125
21789SOL    HW170305   1.238   2.291   1.889 -4.5390 -0.1585  0.5501
21789SOL    HW270306   1.255   2.343   1.748  0.2460  0.6634  1.2691
21790SOL     OW70307   2.443   2.439   5.264  0.0276  0.0626  0.4234
21790SOL    HW170308   2.441   2.530   5.235 -0.7759 -0.0649  0.0509
21790SOL    HW270309   2.474   2.443   5.355  1.4158  0.5644 -0.0481
21791SOL     OW70310   1.615   3.305   4.919 -0.9583 -0.0634  0.2728
21791SOL    HW170311   1.561   3.281   4.995 -1.2547 -0.6039 -0.1058
21791SOL    HW270312   1.705   3.306   4.952 -1.0535 -0.6089  0.5569
21792SOL     OW70313   0.372   8.255   1.520 -0.0897  0.0088  0.2388
21792SOL    HW170314   0.349   8.176   1.570 -0.2158 -0.8416 -1.1211
21792SOL    HW270315   0.466   8.266   1.535  0.1074 -0.9162 -0.2476
21793SOL     OW70316   8.516  10.957   0.282 -0.3063  0.0475  0.3970
21793SOL    HW170317   8.595  10.956   0.336 -0.4430 -1.0430  0.5930
21793SOL    HW270318   8.546  10.935   0.194 -0.6261 -2.5926  0.8629
21794SOL     OW70319   3.449   1.926   7.679 -0.3540 -0.1516 -0.3080
21794SOL    HW170320   3.510   1.852   7.679 -1.3054 -0.9516 -0.6174
21794SOL    HW270321   3.370   1.892   7.638 -0.8722  0.9950 -0.2910
21795SOL     OW70322   8.573   4.671   6.569  0.3383 -0.1209  0.0244
21795SOL    HW170323   8.595   4.608   6.501  1.3219 -1.9230  1.8963
21795SOL    HW270324   8.478   4.663   6.580  0.1148  0.4465 -1.3193
21796SOL     OW70325   9.871   4.130   7.734 -0.4051  0.0902  0.2077
21796SOL    HW170326   9.963   4.121   7.711 -0.0730  0.8610  1.2039
21796SOL    HW270327   9.837   4.041   7.731  0.1785 -0.1111 -0.9205
21797SOL     OW70328   6.926   4.805   1.977  0.5741 -0.5943  0.0055
21797SOL    HW170329   6.918   4.857   1.897  0.4897 -0.7949 -0.1195
21797SOL    HW270330   6.837   4.776   1.996  0.6930 -1.1113 -0.2130
21798SOL     OW70331   0.674   6.042   7.595  0.0032  0.4191  0.0449
21798SOL    HW170332   0.701   6.022   7.684  0.7232 -0.1344 -0.2864
21798SOL    HW270333   0.718   5.976   7.541 -0.5335  0.6546 -0.7063
21799SOL     OW70334   4.615   4.667  10.385  0.1768 -0.0643  0.3887
21799SOL    HW170335   4.541   4.672  10.446 -0.2123 -0.6723 -0.0173
21799SOL    HW270336   4.631   4.574  10.374  0.3408  0.0410 -0.3113
21800SOL     OW70337   3.708   5.099   8.163 -0.2693 -0.5504 -0.0940
21800SOL    HW170338   3.780   5.036   8.162  0.4446  0.2174  0.7287
21800SOL    HW270339   3.743   5.174   8.212 -0.9063  0.7192 -1.5260
21801SOL     OW70340   9.030   3.813   5.404  0.4832  0.2114  0.0127
21801SOL    HW170341   9.011   3.719   5.407  1.3591  0.0167  3.0089
21801SOL    HW270342   8.953   3.852   5.364 -0.0162 -1.7412 -1.0424
21802SOL     OW70343   1.986   2.081  10.404 -0.0301  0.0126  0.5949
21802SOL    HW170344   2.010   2.141  10.334  1.2635 -0.1281  0.8817
21802SOL    HW270345   1.891   2.090  10.413 -0.1274  0.5042 -0.7251
21803SOL     OW70346   1.476   3.120   1.907  0.1953 -0.3810 -0.1115
21803SOL    HW170347   1.555   3.173   1.916 -1.2937  1.9758 -0.1176
21803SOL    HW270348   1.424   3.165   1.840 -1.5883 -1.2638  0.6185
21804SOL     OW70349   5.726   1.454  11.331 -0.5387 -0.0465  0.1578
21804SOL    HW170350   5.753   1.395  11.261  0.7407  2.0629 -1.1984
21804SOL    HW270351   5.638   1.482  11.307  0.4323  1.7965 -1.4666
21805SOL     OW70352   4.274   2.583  11.673 -1.0442 -0.3542  0.2433
21805SOL    HW170353   4.278   2.636  11.752  2.3442  0.2749 -0.1764
21805SOL    HW270354   4.218   2.509  11.695 -0.6675  0.1137  3.0244
21806SOL     OW70355   4.006   8.421   0.265  0.4681  0.3503 -0.4856
21806SOL    HW170356   4.085   8.377   0.235 -1.3110 -1.3937 -3.0126
21806SOL    HW270357   4.015   8.510   0.232  1.5611  0.3144 -0.3358
21807SOL     OW70358  10.729  10.205   4.859 -0.3954 -0.3315 -0.3382
21807SOL    HW170359  10.821  10.180   4.845 -0.5424 -0.1976 -1.7556
21807SOL    HW270360  10.688  10.192   4.773 -1.6801 -0.2835  0.2506
21808SOL     OW70361   5.425   3.752  11.602  0.4381 -0.1150  0.1963
21808SOL    HW170362   5.502   3.781  11.554  0.4436  0.2702  0.4318
21808SOL    HW270363   5.457   3.681  11.658  0.5622 -0.1481  0.0827
21809SOL     OW70364   8.270  10.913   6.880 -0.5032  0.6417 -0.5230
21809SOL    HW170365   8.185  10.880   6.853 -1.2317  0.8393  1.4119
21809SOL    HW270366   8.264  11.008   6.869  0.0361  0.5517 -1.8245
21810SOL     OW70367   2.617   5.581   2.326 -0.1450 -0.4338  0.4733
21810SOL    HW170368   2.641   5.659   2.375  0.3786  0.1440 -0.6725
21810SOL    HW270369   2.527   5.561   2.355  0.4279 -0.6211  2.2666
21811SOL     OW70370   0.018   1.970   3.902 -0.0218  0.4163 -0.1153
21811SOL    HW170371   0.049   1.968   3.811 -1.9808  1.7080 -0.8773
21811SOL    HW270372  -0.071   1.936   3.898 -0.0072  0.1382  1.4062
21812SOL     OW70373   6.917   1.809   0.011 -0.0402 -0.0299  0.3563
21812SOL    HW170374   6.910   1.719   0.041  0.3694 -0.3473 -0.4625
21812SOL    HW270375   6.964   1.855   0.081  0.6131 -0.6698  0.3439
21813SOL     OW70376  10.631   6.425   2.519  0.1685  0.1377  0.2374
21813SOL    HW170377  10.599   6.379   2.441  0.6264  0.7982 -0.3482
21813SOL    HW270378  10.686   6.362   2.564  0.3907 -0.0498 -0.2958
21814SOL     OW70379   5.269   6.592  11.197 -0.2350 -0.5120 -0.1880
21814SOL    HW170380   5.201   6.539  11.154 -0.0285 -1.2373  0.3697
21814SOL    HW270381   5.348   6.575  11.147 -0.1641 -0.7357  0.0034
21815SOL     OW70382   1.010   5.408   2.360  0.2451 -0.0957 -0.2976
21815SOL    HW170383   1.104   5.429   2.364  0.4960 -1.1322 -0.5750
21815SOL    HW270384   1.007   5.315   2.340 -0.8546 -0.1398  0.0207
21816SOL     OW70385   8.958   1.346   5.711  0.3177  0.4882 -0.3878
21816SOL    HW170386   8.953   1.289   5.787 -0.0562 -0.8051 -1.3585
21816SOL    HW270387   8.902   1.421   5.734 -0.2890 -0.1705  0.3564
21817SOL     OW70388   5.888  10.818   6.562 -0.0949  0.6514 -0.2941
21817SOL    HW170389   5.966  10.857   6.601  0.0863 -0.7118  0.7409
21817SOL    HW270390   5.921  10.748   6.506 -0.5746 -0.0460  0.2842
21818SOL     OW70391   0.290   3.181   7.700 -0.2478  0.0374 -0.0122
21818SOL    HW170392   0.361   3.149   7.645 -1.2018 -1.2023 -0.5674
21818SOL    HW270393   0.304   3.276   7.705  1.4865 -0.1946 -0.0038
21819SOL     OW70394   2.886   0.422   7.842 -0.1172  0.1606  0.6149
21819SOL    HW170395   2.956   0.396   7.782 -1.0523 -0.9461 -0.0428
21819SOL    HW270396   2.901   0.515   7.857  1.2736  0.0242  0.1960
21820SOL     OW70397   8.774   1.796   6.306 -0.0269  0.2073  0.0417
21820SOL    HW170398   8.722   1.718   6.285  0.3970 -0.1715  0.3792
21820SOL    HW270399   8.709   1.862   6.331 -0.3989  0.0016 -0.3702
21821SOL     OW70400   9.095   7.414   9.375 -0.1475  0.4967 -0.1281
21821SOL    HW170401   9.086   7.346   9.309  1.8015 -2.0378  1.9799
21821SOL    HW270402   9.147   7.482   9.333 -0.2248 -0.3260 -1.6288
21822SOL     OW70403   1.782   5.428   4.072 -0.1086  0.2123  0.1419
21822SOL    HW170404   1.849   5.381   4.122  0.1292  0.4642  0.0647
21822SOL    HW270405   1.699   5.396   4.107  0.0466  0.8880  1.1899
21823SOL     OW70406   2.148   0.673   2.689  0.1503  0.4161 -0.0756
21823SOL    HW170407   2.063   0.639   2.717  0.4685 -2.2100 -2.0429
21823SOL    HW270408   2.141   0.681   2.594  1.7164  1.4161 -0.1450
21824SOL     OW70409   9.198   8.983  10.439 -0.0735  0.3938 -0.1292
21824SOL    HW170410   9.177   8.962  10.530 -0.6021 -2.2203 -0.7762
21824SOL    HW270411   9.114   9.009  10.400  0.1576  1.5448  0.0792
21825SOL     OW70412   3.514   2.987   4.795 -0.3463 -0.6087 -0.1137
21825SOL    HW170413   3.595   2.945   4.766  0.9766  2.5464 -1.4927
21825SOL    HW270414   3.449   2.964   4.728  0.4046 -0.3052 -0.9700
21826SOL     OW70415   3.073   9.101   3.298  0.2522  0.5659  0.4016
21826SOL    HW170416   3.095   9.071   3.386  0.5610  0.3740  0.2605
21826SOL    HW270417   3.025   9.029   3.259  1.7563 -0.1215 -0.2457
21827SOL     OW70418   8.265   0.475  11.012  0.2812 -0.2483  1.0072
21827SOL    HW170419   8.231   0.388  10.993  0.8416 -0.4218  0.8170
21827SOL    HW270420   8.225   0.532  10.946 -0.7839 -0.1972  1.6624
21828SOL     OW70421   2.087   3.057   0.664 -0.3487 -0.6926 -0.4729
21828SOL    HW170422   2.052   3.054   0.753  2.4419  2.1356  0.9315
21828SOL    HW270423   2.049   3.136   0.626  0.5857 -0.3624 -0.7416
21829SOL     OW70424   6.750   5.625   0.638  0.0655  0.2941 -0.0211
21829SOL    HW170425   6.718   5.567   0.707  2.1331 -0.6247  0.2253
21829SOL    HW270426   6.778   5.704   0.684  1.1021 -0.1761  0.1957
21830SOL     OW70427  11.369   8.067   0.231  0.2842 -0.2800 -0.1595
21830SOL    HW170428  11.347   7.975   0.213 -1.6703  0.1814 -0.2633
21830SOL    HW270429  11.445   8.062   0.289  0.0912 -1.9644 -0.0018
21831SOL     OW70430   6.532   6.377  11.010 -0.1984 -0.3429 -0.3906
21831SOL    HW170431   6.526   6.431  10.932 -0.8720 -0.4626 -0.4348
21831SOL    HW270432   6.531   6.440  11.083 -0.2322 -0.2615 -0.4614
21832SOL     OW70433   9.089   1.473   0.962 -0.0731 -1.0373 -0.0641
21832SOL    HW170434   9.083   1.534   0.888 -0.0146 -0.8991  0.0448
21832SOL    HW270435   9.182   1.451   0.967  0.2587  0.4074  1.1288
21833SOL     OW70436   1.797  11.511   4.529 -0.1815 -0.7013 -0.1329
21833SOL    HW170437   1.764  11.456   4.458 -0.8374 -0.6598  0.1321
21833SOL    HW270438   1.751  11.594   4.519 -0.6003 -0.8376  0.5922
21834SOL     OW70439   1.147   6.318   7.904  0.3320  0.4121 -0.6284
21834SOL    HW170440   1.106   6.261   7.839 -1.3184 -0.0021  0.6673
21834SOL    HW270441   1.208   6.261   7.951 -0.5572 -0.0759 -0.0155
21835SOL     OW70442   9.462   5.173   2.603  0.0313 -0.0283  0.4678
21835SOL    HW170443   9.411   5.127   2.537 -0.2623  0.2849  0.4768
21835SOL    HW270444   9.473   5.109   2.673  1.6137 -0.8778 -0.4944
21836SOL     OW70445   0.222   3.268   4.144 -0.1432 -0.1079 -0.3611
21836SOL    HW170446   0.156   3.335   4.128 -0.1550 -0.2773 -1.0753
21836SOL    HW270447   0.236   3.227   4.058  0.9311 -0.0361 -0.2343
21837SOL     OW70448   5.243   1.173   3.448 -0.0616 -0.1862  0.0037
21837SOL    HW170449   5.185   1.221   3.389  0.7996 -0.6448 -1.2596
21837SOL    HW270450   5.312   1.138   3.391  1.3856  0.2296  1.4263
21838SOL     OW70451   8.161   4.279   2.157 -0.2204  0.3013  0.2561
21838SOL    HW170452   8.172   4.280   2.062 -0.6772  1.3348  0.2054
21838SOL    HW270453   8.093   4.212   2.172  1.6077 -1.6933  0.0955
21839SOL     OW70454   1.344   8.916   7.443 -0.2393  0.6798 -0.0729
21839SOL    HW170455   1.292   8.843   7.476  1.2342  0.0731  1.0149
21839SOL    HW270456   1.309   8.933   7.355 -3.9324  1.9724  1.4583
21840SOL     OW70457   1.267   1.562   8.752  0.3828  0.4483  0.1243
21840SOL    HW170458   1.349   1.535   8.793  0.4658 -1.3539 -1.1456
21840SOL    HW270459   1.275   1.537   8.661 -2.5374 -2.2019  0.4176
21841SOL     OW70460   0.231   8.909   0.696 -0.3894  0.1357  0.1130
21841SOL    HW170461   0.205   8.868   0.614 -0.8813 -0.4817  0.5675
21841SOL    HW270462   0.307   8.859   0.725 -0.7102 -0.1651  0.4381
21842SOL     OW70463   7.845  11.303   8.475  0.1596 -0.1812  0.2655
21842SOL    HW170464   7.860  11.257   8.392  2.5604 -2.4064  1.7597
21842SOL    HW270465   7.773  11.256   8.516 -0.2496  0.1609 -0.0650
21843SOL     OW70466   0.787   6.409   0.339  0.0661  0.2422  0.0845
21843SOL    HW170467   0.759   6.460   0.262 -1.1364  0.1423  0.4335
21843SOL    HW270468   0.865   6.454   0.370  0.6324  0.2254 -1.2562
21844SOL     OW70469  11.619   3.558   5.806 -0.3907 -0.2193 -0.7344
21844SOL    HW170470  11.596   3.650   5.799 -0.3495 -0.2273 -0.9911
21844SOL    HW270471  11.540   3.511   5.778  0.0178 -0.2436 -1.9023
21845SOL     OW70472  11.363   3.543   8.160 -0.1729 -0.6809 -0.0016
21845SOL    HW170473  11.282   3.505   8.192 -0.1657  0.7400  1.8869
21845SOL    HW270474  11.430   3.511   8.220  0.3516 -0.2461 -0.3417
21846SOL     OW70475  10.914   9.732   1.055 -0.1673 -0.2912 -0.5053
21846SOL    HW170476  10.908   9.827   1.066  0.9754 -0.4226  1.8795
21846SOL    HW270477  10.856   9.697   1.122  0.2826 -1.2610 -0.6109
21847SOL     OW70478   1.202   3.763   3.136  0.3819 -0.6357 -0.5915
21847SOL    HW170479   1.263   3.837   3.131 -0.6320  0.1769 -1.4370
21847SOL    HW270480   1.258   3.686   3.143  1.5141  0.3078  2.9851
21848SOL     OW70481  10.522   9.823   2.918  1.0850 -0.0087  0.5261
21848SOL    HW170482  10.556   9.816   3.007 -0.6289  0.9428  1.3063
21848SOL    HW270483  10.488   9.913   2.913 -1.3662 -0.8913 -0.0952
21849SOL     OW70484  10.405  11.608   2.982 -0.2185 -0.1442  0.4396
21849SOL    HW170485  10.487  11.608   3.031  0.6737  1.0175 -1.0158
21849SOL    HW270486  10.425  11.652   2.900 -1.9038 -1.2765 -0.6368
21850SOL     OW70487   8.791   9.960   7.824 -0.0748 -0.2964 -0.1080
21850SOL    HW170488   8.715   9.902   7.815 -0.0978 -0.3819  0.6455
21850SOL    HW270489   8.849   9.933   7.753  0.2397 -1.7443  0.6589
21851SOL     OW70490   4.892   4.291   4.497 -0.3528 -0.0310 -0.4413
21851SOL    HW170491   4.873   4.305   4.590 -1.0437 -1.6903 -0.2933
21851SOL    HW270492   4.806   4.285   4.456 -0.0830 -1.1266 -0.8741
21852SOL     OW70493  11.185   3.046   5.874 -0.1658 -0.2339  0.4359
21852SOL    HW170494  11.169   2.992   5.951  1.4813  0.2768  1.2018
21852SOL    HW270495  11.115   3.110   5.874 -0.9047 -1.0254  0.7671
21853SOL     OW70496   0.036  10.111  10.698  0.3618  0.7066 -0.4558
21853SOL    HW170497  -0.011  10.033  10.728  0.9528  0.3914 -0.3321
21853SOL    HW270498  -0.033  10.169  10.665 -0.1384  0.3813  0.0028
21854SOL     OW70499   6.576   7.499  10.235 -0.4566 -0.2777  0.0734
21854SOL    HW170500   6.589   7.590  10.207  0.3156 -0.1834  0.7199
21854SOL    HW270501   6.529   7.459  10.162 -0.2368  0.4726 -0.5002
21855SOL     OW70502   3.998   4.528   6.975 -0.2538  0.5871 -0.2240
21855SOL    HW170503   4.035   4.616   6.985  0.8509  0.0884  0.2455
21855SOL    HW270504   4.074   4.473   6.956 -0.4333 -0.7670  2.4890
21856SOL     OW70505   5.761   8.063   0.003 -0.0218 -0.5241  0.7381
21856SOL    HW170506   5.853   8.086   0.015 -0.1721 -0.3758  1.6018
21856SOL    HW270507   5.763   7.989  -0.058  0.6134  0.0192  0.0782
21857SOL     OW70508  10.205   7.569  11.637  0.4515 -0.3010  0.1351
21857SOL    HW170509  10.205   7.662  11.617  0.5887 -0.3508 -0.1004
21857SOL    HW270510  10.167   7.563  11.725  0.5703 -0.0139  0.2044
21858SOL     OW70511   3.386   7.875   7.238  0.6185  0.0164  0.0110
21858SOL    HW170512   3.437   7.812   7.187  1.3583  0.1180  0.6044
21858SOL    HW270513   3.386   7.955   7.185 -1.5356 -0.8614 -1.4191
21859SOL     OW70514   4.505   9.738   0.949 -0.1526 -0.5394  0.0274
21859SOL    HW170515   4.518   9.771   1.038 -0.3737 -1.0840  0.2664
21859SOL    HW270516   4.579   9.772   0.900  1.3202 -2.1966  0.9802
21860SOL     OW70517   3.137   5.696   8.845 -0.4547  0.0397 -0.6933
21860SOL    HW170518   3.208   5.664   8.901 -0.3262 -0.7380 -1.2862
21860SOL    HW270519   3.149   5.651   8.762  0.4918  2.5823 -2.0488
21861SOL     OW70520  10.838   3.786   7.240 -0.4798 -0.3613  0.2541
21861SOL    HW170521  10.767   3.722   7.249 -0.6769 -0.0706  0.7665
21861SOL    HW270522  10.799   3.869   7.268 -0.0633 -0.1152  0.1098
21862SOL     OW70523   7.270   6.299   6.390  0.2122 -0.3516 -0.1866
21862SOL    HW170524   7.185   6.297   6.433  1.2464  2.9208  2.4194
21862SOL    HW270525   7.302   6.209   6.397 -2.0183 -1.1286  0.9196
21863SOL     OW70526   9.439   1.078   4.459 -0.3432 -0.3644  0.2908
21863SOL    HW170527   9.424   0.995   4.503 -0.7346 -0.5542 -0.2042
21863SOL    HW270528   9.474   1.054   4.373  0.8374  0.0139  0.6368
21864SOL     OW70529   2.141  10.070   4.059 -0.3680  0.3971 -0.5620
21864SOL    HW170530   2.205  10.104   3.997 -0.6864  0.4613 -0.8562
21864SOL    HW270531   2.067  10.041   4.005  0.0699 -1.1744 -0.3719
21865SOL     OW70532   6.567   7.359   2.795  0.2008  0.0767  0.0795
21865SOL    HW170533   6.576   7.279   2.744 -0.1664 -0.0586  0.2273
21865SOL    HW270534   6.606   7.427   2.739  3.3597 -0.6422  1.1979
21866SOL     OW70535  10.443   4.990   3.701  0.1014  0.3089 -0.7665
21866SOL    HW170536  10.424   5.068   3.754  0.1208 -0.7562  0.9033
21866SOL    HW270537  10.538   4.981   3.706  0.0384 -0.1820 -0.3962
21867SOL     OW70538   4.647   5.330   6.856  0.1154  0.0017  0.6190
21867SOL    HW170539   4.729   5.338   6.905  0.4869 -0.9018  0.1763
21867SOL    HW270540   4.639   5.236   6.838  0.2314  0.3419 -1.4395
21868SOL     OW70541   4.623   6.655   1.249 -0.3026 -0.4178  0.4151
21868SOL    HW170542   4.558   6.715   1.213  0.1593  0.4616  1.0110
21868SOL    HW270543   4.605   6.571   1.205 -1.8874 -0.2284  0.6450
21869SOL     OW70544   0.311   3.589   4.273 -0.2189 -0.2703 -0.3404
21869SOL    HW170545   0.280   3.642   4.200  2.0102  2.8898  0.7612
21869SOL    HW270546   0.365   3.521   4.233  0.0849  0.7444 -1.7266
21870SOL     OW70547   7.280   9.725   8.891 -0.1375 -0.0904 -0.3861
21870SOL    HW170548   7.318   9.650   8.845 -1.4440 -0.2835 -1.1802
21870SOL    HW270549   7.273   9.696   8.982  0.2409 -0.5754 -0.5096
21871SOL     OW70550   9.046   7.197   9.192 -0.3442 -0.3710  0.0042
21871SOL    HW170551   9.089   7.198   9.107 -0.6030  0.6595 -0.1359
21871SOL    HW270552   8.953   7.189   9.172 -0.3908 -0.3258  0.1963
21872SOL     OW70553   9.998   8.208   9.622  0.2923 -0.3022  0.4475
21872SOL    HW170554  10.037   8.129   9.585  0.9355 -0.3094  1.1282
21872SOL    HW270555  10.030   8.279   9.566  0.5965 -0.4046  0.4888
21873SOL     OW70556   8.744   6.628  10.662 -0.3890  0.2043  0.5858
21873SOL    HW170557   8.753   6.549  10.715  0.4226  0.6052  1.0463
21873SOL    HW270558   8.703   6.692  10.720  0.7131  0.7170  0.8130
21874SOL     OW70559   0.439   9.525   0.763  0.6039  0.0133 -0.6036
21874SOL    HW170560   0.410   9.435   0.750  1.6150 -0.1714 -1.7773
21874SOL    HW270561   0.405   9.550   0.849 -0.0656 -1.3287 -0.4674
21875SOL     OW70562   5.924   0.923   4.775  0.3021 -0.0498 -0.3692
21875SOL    HW170563   5.890   0.991   4.835 -0.8038  0.5483 -1.6189
21875SOL    HW270564   5.845   0.881   4.740  0.8131 -4.8319  3.2978
21876SOL     OW70565   7.968   9.679   2.253 -0.4344  0.2584 -0.1760
21876SOL    HW170566   8.021   9.684   2.173 -0.0401  0.7628  0.1073
21876SOL    HW270567   8.024   9.632   2.315 -0.9756 -0.6574 -0.3770
21877SOL     OW70568   2.159   4.820   6.614  0.0121 -0.6160 -0.0541
21877SOL    HW170569   2.133   4.807   6.705 -2.8620 -0.6094 -0.7833
21877SOL    HW270570   2.112   4.753   6.565  0.0180  0.5340 -1.7273
21878SOL     OW70571   2.714   5.838  11.308  0.0602 -0.1406 -0.1747
21878SOL    HW170572   2.661   5.779  11.254 -0.1226  0.6863 -0.9192
21878SOL    HW270573   2.710   5.922  11.263  2.9578 -0.2893 -0.8952
21879SOL     OW70574   2.764   5.073  11.027 -0.0572 -0.5633  0.3934
21879SOL    HW170575   2.776   4.985  11.064 -0.1122 -0.3034  1.0381
21879SOL    HW270576   2.679   5.101  11.060 -1.6985 -1.6007 -2.5387
21880SOL     OW70577   7.485   2.943   1.619 -0.1488 -0.6532  0.1408
21880SOL    HW170578   7.490   3.038   1.627  1.1428 -0.6981  0.0394
21880SOL    HW270579   7.526   2.910   1.699  1.9311 -1.1070 -1.0471
21881SOL     OW70580   8.350   6.725   3.579  0.1699  0.0510  0.0471
21881SOL    HW170581   8.268   6.764   3.609 -0.6208 -1.1803 -0.4487
21881SOL    HW270582   8.335   6.704   3.487  0.8214 -0.7091  0.0960
21882SOL     OW70583   4.069   7.493   2.099  0.2775 -0.1142  0.0370
21882SOL    HW170584   4.164   7.491   2.090  0.4168  1.0120  1.0664
21882SOL    HW270585   4.039   7.416   2.050  1.6576 -0.1124 -0.8501
21883SOL     OW70586   5.735   8.438   2.138  0.5199  0.7246  0.2961
21883SOL    HW170587   5.798   8.367   2.123  0.4815  0.9031 -0.7433
21883SOL    HW270588   5.651   8.403   2.108  0.6930  1.5676 -1.2511
21884SOL     OW70589   5.142   8.936   2.106  0.1756 -0.1732 -0.3455
21884SOL    HW170590   5.121   8.985   2.027  0.8149 -1.0125 -1.0647
21884SOL    HW270591   5.155   9.003   2.173 -0.1280  0.5700 -1.0111
21885SOL     OW70592   3.628   9.701   9.236  0.5814  0.6447 -0.2196
21885SOL    HW170593   3.681   9.657   9.302  1.0772  0.6689 -0.5895
21885SOL    HW270594   3.540   9.665   9.248  0.1174  2.3092  1.9437
21886SOL     OW70595   8.088   7.004   8.162 -0.0949  0.2768  0.3238
21886SOL    HW170596   8.092   7.038   8.072 -0.3537 -0.5576 -0.0070
21886SOL    HW270597   8.062   7.080   8.214 -2.3401  0.2531 -0.6447
21887SOL     OW70598   4.157   0.952   7.689  0.4183  0.2906 -0.1760
21887SOL    HW170599   4.223   1.021   7.678  0.3341  0.0404 -2.6664
21887SOL    HW270600   4.145   0.915   7.602 -0.5878 -1.9497  0.8230
21888SOL     OW70601   9.826   7.748   0.117  0.3675  0.4100 -0.4661
21888SOL    HW170602   9.892   7.779   0.179 -0.7200 -0.9625  1.5184
21888SOL    HW270603   9.747   7.798   0.139 -0.2690 -0.7285 -0.0942
21889SOL     OW70604   0.996  11.098   3.333  0.0568  0.4882 -0.0650
21889SOL    HW170605   0.917  11.069   3.288 -0.3796  0.1936  0.8740
21889SOL    HW270606   1.047  11.018   3.346  1.5079  0.9377 -2.5031
21890SOL     OW70607   3.840  10.965   7.798 -0.0074 -0.8734  0.3271
21890SOL    HW170608   3.801  10.883   7.828 -0.0863  0.0728  3.2342
21890SOL    HW270609   3.930  10.962   7.830  0.4405 -0.4179 -0.8408
21891SOL     OW70610   5.940   9.297  11.073  0.0301 -0.3195  0.5042
21891SOL    HW170611   6.022   9.298  11.122 -0.2259 -1.0271  0.9618
21891SOL    HW270612   5.923   9.205  11.056  1.0061 -0.0451 -2.4702
21892SOL     OW70613   9.290  10.453  10.247  0.2478  0.0407  0.1127
21892SOL    HW170614   9.286  10.404  10.165  2.2490  1.5803 -1.0118
21892SOL    HW270615   9.379  10.490  10.249 -0.2330  1.2799  2.2491
21893SOL     OW70616  11.009  10.868   9.525  1.1836  0.2138  1.0839
21893SOL    HW170617  10.949  10.942   9.528  3.1658  1.9805 -0.4462
21893SOL    HW270618  10.969  10.808   9.462 -0.0092  0.3414  1.6867
21894SOL     OW70619   9.785   4.530   0.111 -0.3461 -0.4655  0.2939
21894SOL    HW170620   9.711   4.537   0.051  0.9944 -0.8448 -1.5020
21894SOL    HW270621   9.848   4.476   0.064  0.6934 -0.9578  2.1739
21895SOL     OW70622   9.200   1.273   0.638  0.7106 -0.9770 -0.3638
21895SOL    HW170623   9.234   1.341   0.580 -0.1899  0.0136  0.2326
21895SOL    HW270624   9.105   1.283   0.634  0.6168 -1.0250  1.0732
21896SOL     OW70625   9.926   2.291   7.718 -0.5408 -0.8101  0.3391
21896SOL    HW170626  10.016   2.260   7.712 -0.6617 -1.1021  0.0211
21896SOL    HW270627   9.915   2.314   7.810  0.0375 -0.2149  0.2654
21897SOL     OW70628   0.100  10.350   8.342 -0.1252  0.2590  0.0156
21897SOL    HW170629   0.142  10.332   8.426  1.0701 -1.2460 -0.8489
21897SOL    HW270630   0.149  10.423   8.306 -2.2630  2.7062  1.6510
21898SOL     OW70631   9.340   2.771   1.484  0.1677 -0.3361  0.1778
21898SOL    HW170632   9.270   2.707   1.490 -0.3765  0.2658  0.3123
21898SOL    HW270633   9.319   2.837   1.550  1.2773 -0.5414  0.7734
21899SOL     OW70634   2.160  10.795   3.763  0.3052 -0.3644  0.0962
21899SOL    HW170635   2.218  10.871   3.757  1.9938 -1.6452 -0.4818
21899SOL    HW270636   2.219  10.720   3.771 -1.1806 -1.9176 -2.3296
21900SOL     OW70637   4.889   2.305   9.574  0.0562 -0.0854  0.4781
21900SOL    HW170638   4.908   2.391   9.611  0.3880 -0.7991  2.0642
21900SOL    HW270639   4.814   2.319   9.516  0.2964  1.3030  0.4786
21901SOL     OW70640   5.972  11.608   5.602 -0.2748  0.0676 -0.7634
21901SOL    HW170641   6.025  11.558   5.665  0.4488  1.5384 -0.1444
21901SOL    HW270642   5.920  11.667   5.657  1.0483  2.0413 -1.5087
21902SOL     OW70643   0.246   2.308  11.318 -0.0970  0.6122  0.3302
21902SOL    HW170644   0.297   2.349  11.248 -1.0939 -0.9840 -1.4341
21902SOL    HW270645   0.308   2.248  11.360 -0.3176 -1.1024 -1.6047
21903SOL     OW70646   5.356   2.830   8.246  0.1959 -0.4217 -0.0435
21903SOL    HW170647   5.309   2.913   8.251 -1.0786 -1.1507  0.6521
21903SOL    HW270648   5.405   2.835   8.165 -2.1490 -0.1309 -1.5343
21904SOL     OW70649   9.537   3.227   1.812  0.5519  0.1799 -0.4399
21904SOL    HW170650   9.612   3.202   1.759  0.4130 -1.8416  0.2422
21904SOL    HW270651   9.534   3.323   1.806  0.1601  0.1034 -4.5761
21905SOL     OW70652   1.915   0.029   4.060 -0.5909 -0.0755 -0.1086
21905SOL    HW170653   1.921   0.085   3.983  2.9488  0.8211  0.6316
21905SOL    HW270654   1.887   0.087   4.130 -1.8356 -0.4367 -0.2851
21906SOL     OW70655  10.372  10.997   4.051  0.7767 -0.0818  0.2224
21906SOL    HW170656  10.317  10.980   3.975  0.1701  0.4228  0.5385
21906SOL    HW270657  10.323  10.960   4.124  0.4495  1.0972  0.6212
21907SOL     OW70658   7.798   0.394   4.692 -0.2510 -0.4746  0.2732
21907SOL    HW170659   7.772   0.317   4.643  0.4578 -0.4055 -0.2240
21907SOL    HW270660   7.719   0.448   4.697 -0.7688 -1.2520  0.6881
21908SOL     OW70661   8.552   5.465   8.828 -0.1898 -0.4390 -0.4118
21908SOL    HW170662   8.523   5.485   8.917  0.6744 -1.0906  0.0252
21908SOL    HW270663   8.647   5.455   8.835 -0.1730 -1.0125 -1.3065
21909SOL     OW70664  11.327   6.549  10.720 -0.2397 -0.2471  0.0460
21909SOL    HW170665  11.325   6.483  10.650  0.6855 -0.4889  0.2300
21909SOL    HW270666  11.258   6.522  10.781 -0.4784 -0.5220 -0.3440
21910SOL     OW70667   7.103   5.828   7.920 -0.2807  0.1912  0.7630
21910SOL    HW170668   7.049   5.834   7.841 -0.8908  1.7195  1.2546
21910SOL    HW270669   7.190   5.805   7.888 -0.9339 -1.1025 -0.1612
21911SOL     OW70670   6.304   3.290  11.006  0.5848 -0.2085  0.0021
21911SOL    HW170671   6.228   3.254  10.962 -0.6290  1.8297  0.3029
21911SOL    HW270672   6.314   3.378  10.970 -0.1410  1.3726  3.2355
21912SOL     OW70673   6.109   2.564   5.721  0.2627  0.0101  0.1993
21912SOL    HW170674   6.123   2.631   5.654 -0.3086  1.7366  1.7254
21912SOL    HW270675   6.170   2.587   5.791  1.6616 -2.4257 -0.1043
21913SOL     OW70676   9.066  11.606   6.221  0.2667  0.2817  0.2305
21913SOL    HW170677   9.102  11.683   6.176  0.1106  0.3848  0.2824
21913SOL    HW270678   9.144  11.557   6.249  0.3633  0.0728 -0.3883
21914SOL     OW70679   4.119   0.998   1.237 -0.2281 -0.2133 -0.2927
21914SOL    HW170680   4.053   1.037   1.179  0.0789  0.9280  0.0863
21914SOL    HW270681   4.171   1.073   1.266 -0.1112 -0.8130  1.1158
21915SOL     OW70682   5.946   2.376   2.442 -0.4729 -0.1922  0.0580
21915SOL    HW170683   5.944   2.435   2.366 -0.8837 -0.2745  0.0012
21915SOL    HW270684   5.951   2.288   2.404  2.0332 -0.1688  0.1458
21916SOL     OW70685   1.596   3.180   1.227 -0.2944  0.2169  0.2364
21916SOL    HW170686   1.644   3.129   1.161  1.2080  0.6639  0.9237
21916SOL    HW270687   1.568   3.115   1.292  1.1786  0.1507  0.8540
21917SOL     OW70688   0.694   7.238   3.693 -0.0812  0.6718 -0.0438
21917SOL    HW170689   0.750   7.227   3.616 -0.6171  0.5431 -0.4209
21917SOL    HW270690   0.608   7.257   3.657 -0.7753 -1.3247  0.4584
21918SOL     OW70691   1.241  10.484   3.815 -0.2054 -0.4340 -0.0267
21918SOL    HW170692   1.156  10.441   3.824 -0.9094  0.7206 -0.8978
21918SOL    HW270693   1.304  10.412   3.812 -0.8833 -1.2509  2.9424
21919SOL     OW70694   7.652   5.409  10.968 -0.1953  0.0576  0.2765
21919SOL    HW170695   7.670   5.323  10.930  0.0950  0.4997 -0.6104
21919SOL    HW270696   7.684   5.402  11.058 -1.1211 -1.0841  0.5532
21920SOL     OW70697   3.002   3.372   7.072  0.0527 -0.0431 -0.2274
21920SOL    HW170698   2.952   3.438   7.121 -0.7300 -0.9624  0.2530
21920SOL    HW270699   3.083   3.416   7.047  0.2472  0.6242  1.4575
21921SOL     OW70700   2.716   4.434   6.594  0.4444  0.1280 -0.2802
21921SOL    HW170701   2.807   4.463   6.597  0.4977  0.6513 -3.4221
21921SOL    HW270702   2.665   4.515   6.580 -0.7068 -0.0162  2.3805
21922SOL     OW70703   0.456   5.460   3.075 -0.3717  0.1028 -0.1297
21922SOL    HW170704   0.482   5.404   3.002 -0.4998  0.9550 -0.8568
21922SOL    HW270705   0.371   5.425   3.103 -0.8187  0.3729 -1.0818
21923SOL     OW70706   9.928   3.968   7.271 -0.6629 -0.0511  0.7714
21923SOL    HW170707   9.869   4.036   7.303 -0.8814  0.3466 -0.4329
21923SOL    HW270708   9.899   3.952   7.181  0.9287 -0.0032  0.2314
21924SOL     OW70709   1.722   2.836   9.729 -0.3198 -0.0203 -0.3905
21924SOL    HW170710   1.669   2.837   9.808  0.9213 -0.5694  0.4924
21924SOL    HW270711   1.802   2.790   9.755 -0.1065 -0.6987 -2.1130
21925SOL     OW70712   4.124   5.661   4.755 -0.1323  0.5026 -0.1318
21925SOL    HW170713   4.149   5.643   4.664 -0.8459  0.6372 -0.3552
21925SOL    HW270714   4.091   5.577   4.787  0.4325  0.3684  0.1124
21926SOL     OW70715  11.501   3.682   9.838  0.4963 -0.1335 -0.2611
21926SOL    HW170716  11.427   3.718   9.888 -1.3776  0.3249 -3.0884
21926SOL    HW270717  11.522   3.600   9.882 -0.7342  0.4278  1.4795
21927SOL     OW70718   6.138   6.175   5.042 -0.5254 -0.0913 -0.7380
21927SOL    HW170719   6.181   6.127   4.972  1.2572  0.0814  0.1500
21927SOL    HW270720   6.098   6.108   5.097  2.1192 -0.6917  0.6092
21928SOL     OW70721   6.697   6.386   7.176  0.7184  0.1705 -0.1557
21928SOL    HW170722   6.623   6.401   7.235 -0.1344 -0.0929 -1.1421
21928SOL    HW270723   6.739   6.306   7.211  1.7524  1.3966  1.5733
21929SOL     OW70724   5.298   7.369   1.957  0.0834 -0.0267  0.0931
21929SOL    HW170725   5.209   7.335   1.945  0.6681 -1.0066 -1.9696
21929SOL    HW270726   5.351   7.291   1.971  0.8332  0.4120 -0.2707
21930SOL     OW70727   8.295  10.121   9.526 -0.5183  0.4013 -0.1192
21930SOL    HW170728   8.292  10.212   9.557  1.2297 -0.2043  2.0954
21930SOL    HW270729   8.365  10.120   9.461 -2.0658  1.0470 -1.8548
21931SOL     OW70730  11.582   8.286   7.564 -1.4168 -0.1008 -0.1109
21931SOL    HW170731  11.553   8.246   7.482 -0.8458 -1.1171  0.1706
21931SOL    HW270732  11.657   8.341   7.539 -1.6194  0.0624 -0.3586
21932SOL     OW70733   0.090   8.354   7.888 -0.6161 -0.4731 -0.3396
21932SOL    HW170734   0.084   8.448   7.907  1.3211 -0.1754 -0.8885
21932SOL    HW270735   0.037   8.342   7.809  1.3542  0.7851 -1.9646
21933SOL     OW70736   8.916   7.909  10.765  0.2734  0.5979 -0.0969
21933SOL    HW170737   8.879   7.821  10.761  0.1438  0.6639 -0.3437
21933SOL    HW270738   8.977   7.912  10.692  1.6086  0.1096  0.9419
21934SOL     OW70739   3.329   4.052   4.995 -0.2833  0.4283 -0.0744
21934SOL    HW170740   3.295   4.094   4.916 -0.3203  0.6617  0.0652
21934SOL    HW270741   3.415   4.019   4.970 -1.1676 -1.4112 -0.8487
21935SOL     OW70742   3.132   5.998   3.090 -0.2785  0.0764  0.0843
21935SOL    HW170743   3.135   6.081   3.042  0.5339  1.3274  2.1423
21935SOL    HW270744   3.196   6.010   3.161 -1.2088 -1.7582  1.2866
21936SOL     OW70745   2.461   6.533   1.690  0.2340 -0.3373  0.5011
21936SOL    HW170746   2.475   6.556   1.599 -0.4955 -0.2916  0.3954
21936SOL    HW270747   2.533   6.475   1.712  0.7105  0.0834  0.0541
21937SOL     OW70748   9.516   9.295   2.933  0.0638 -0.2473  0.2467
21937SOL    HW170749   9.461   9.276   3.009 -0.0358  2.0546  0.8394
21937SOL    HW270750   9.508   9.390   2.921  1.8396 -0.2269 -1.2746
21938SOL     OW70751   6.106   9.418   7.000 -0.7368  0.4167  0.2219
21938SOL    HW170752   6.160   9.429   6.921 -1.3801 -0.8075 -0.4153
21938SOL    HW270753   6.098   9.506   7.036  1.2861  0.7094  0.0738
21939SOL     OW70754   4.564   2.662   0.753 -0.9034  0.4668  0.0479
21939SOL    HW170755   4.568   2.748   0.712  3.5050 -0.1173 -1.1754
21939SOL    HW270756   4.567   2.680   0.847  1.7795  1.7294 -0.1999
21940SOL     OW70757   5.395   8.183  11.625  0.8278  0.7088 -0.1266
21940SOL    HW170758   5.398   8.193  11.720  0.1519  1.6639 -0.1859
21940SOL    HW270759   5.393   8.273  11.592 -0.4606  0.3907 -0.9863
21941SOL     OW70760   7.341   1.705   0.955 -0.0701  0.1254 -0.0716
21941SOL    HW170761   7.298   1.779   0.997 -0.2949 -1.0942  2.0248
21941SOL    HW270762   7.434   1.730   0.952  0.0042  0.1817  1.4780
21942SOL     OW70763   1.689  10.961  10.814  0.5257 -0.4623 -0.1188
21942SOL    HW170764   1.650  10.941  10.730  1.2244 -1.8559 -0.1371
21942SOL    HW270765   1.780  10.984  10.794  0.6860 -0.7619  0.2310
21943SOL     OW70766   7.167   3.965   5.572 -0.5575  0.1395  0.0499
21943SOL    HW170767   7.214   3.883   5.555 -1.9571 -0.5638 -0.6880
21943SOL    HW270768   7.159   3.968   5.667  1.7957  0.8010  0.2757
21944SOL     OW70769   6.648   7.274  10.610 -0.1184  0.7844  0.1327
21944SOL    HW170770   6.700   7.315  10.679  0.8300  2.2739 -1.3990
21944SOL    HW270771   6.653   7.180  10.629  0.5361  1.1193  1.7741
21945SOL     OW70772   3.363   2.377   6.348  0.2602  0.0035 -0.4564
21945SOL    HW170773   3.348   2.466   6.381  1.1330  0.8759 -2.2672
21945SOL    HW270774   3.400   2.330   6.423 -2.9678  0.2226  1.4732
21946SOL     OW70775   7.115   4.565   9.225 -0.3867  0.1613 -0.3635
21946SOL    HW170776   7.169   4.635   9.188 -1.6531  1.8635  0.8521
21946SOL    HW270777   7.026   4.587   9.197 -0.5603 -2.8011 -2.6817
21947SOL     OW70778   6.463  10.480   6.976  0.0230  0.7117 -0.2526
21947SOL    HW170779   6.480  10.467   7.069 -0.2704  1.7216 -0.0471
21947SOL    HW270780   6.512  10.409   6.932  0.5997  0.5567  0.6238
21948SOL     OW70781  11.442   9.432   0.934  0.2381  0.2419  0.0466
21948SOL    HW170782  11.452   9.368   0.864 -0.4668 -0.7624  0.8300
21948SOL    HW270783  11.348   9.451   0.936  0.5096  1.7840 -0.5705
21949SOL     OW70784   7.399  10.615   6.190 -0.3606  0.0351 -0.2073
21949SOL    HW170785   7.400  10.710   6.196 -0.3595  0.3188 -3.1660
21949SOL    HW270786   7.490  10.589   6.206  0.4110  0.9281 -2.5932
21950SOL     OW70787   8.209   2.804   6.937  0.0447  0.0156  0.2449
21950SOL    HW170788   8.121   2.804   6.897  0.3289 -0.5165 -0.4019
21950SOL    HW270789   8.198   2.853   7.018 -0.9039 -0.2337  0.2843
21951SOL     OW70790   9.748   9.980  10.771 -0.2443 -0.2468  0.0323
21951SOL    HW170791   9.707  10.052  10.818  1.5434  0.5627  0.4563
21951SOL    HW270792   9.693   9.904  10.790 -0.8436  0.5326  1.5624
21952SOL     OW70793   3.677   4.644   8.100 -0.0170  0.0180 -0.0665
21952SOL    HW170794   3.704   4.575   8.161  0.9102  0.2893 -0.1504
21952SOL    HW270795   3.731   4.629   8.022 -0.9989 -0.1662 -0.7277
21953SOL     OW70796   0.938  10.008   0.314 -0.1387 -0.1249  0.2579
21953SOL    HW170797   0.866   9.983   0.257 -0.0913  1.2422 -0.4368
21953SOL    HW270798   0.933   9.946   0.387 -0.3128 -1.7962 -1.1028
21954SOL     OW70799   3.823   6.512   3.877  0.7114 -0.1033 -0.1551
21954SOL    HW170800   3.899   6.514   3.935 -0.6749 -1.2982  1.8292
21954SOL    HW270801   3.848   6.453   3.806  0.8901 -2.4309  1.7265
21955SOL     OW70802   8.390   5.957   8.387 -0.4578  0.0083  0.0714
21955SOL    HW170803   8.329   6.029   8.401 -0.7534 -0.4914  1.4410
21955SOL    HW270804   8.348   5.881   8.428 -0.3506 -1.0676 -1.6886
21956SOL     OW70805   1.924   7.630   8.741 -0.2530  0.1887  0.4618
21956SOL    HW170806   1.993   7.564   8.744 -0.8960 -0.6811 -2.1225
21956SOL    HW270807   1.842   7.581   8.743 -0.7479  0.8179 -1.5990
21957SOL     OW70808   4.453  10.958   0.510  0.1138 -0.0815 -0.2351
21957SOL    HW170809   4.469  11.049   0.488  0.1229  0.1976  0.8438
21957SOL    HW270810   4.362  10.955   0.540  0.5496 -0.1232  1.1411
21958SOL     OW70811   4.603   7.956   6.840  0.0772  0.0866  0.0604
21958SOL    HW170812   4.643   7.900   6.906  2.7005  2.5874  0.8159
21958SOL    HW270813   4.576   7.897   6.770  1.4924 -2.1776  1.3228
21959SOL     OW70814  11.090   5.864   6.117 -0.7774  0.9016 -0.0923
21959SOL    HW170815  11.169   5.884   6.067 -0.5361 -1.3761 -0.7753
21959SOL    HW270816  11.110   5.892   6.206  0.6597  0.7366 -0.3393
21960SOL     OW70817   8.246   0.092   8.698  0.0203 -0.3942  0.1237
21960SOL    HW170818   8.304   0.016   8.705 -0.1308 -0.5366 -0.1974
21960SOL    HW270819   8.164   0.063   8.738  0.2833 -0.0658  0.9438
21961SOL     OW70820   2.584   3.613   9.792  0.1517  0.5033 -0.0273
21961SOL    HW170821   2.628   3.530   9.807 -0.2407  0.0507 -1.2336
21961SOL    HW270822   2.502   3.589   9.747 -0.7309  1.4123  1.0199
21962SOL     OW70823   7.511   7.317   5.058  0.2641  0.4534  0.2132
21962SOL    HW170824   7.503   7.305   4.964 -0.9226  0.3959  0.2937
21962SOL    HW270825   7.604   7.327   5.074  0.3601  2.4003 -1.1923
21963SOL     OW70826   9.393   4.542   8.975 -0.0557 -0.2670  0.7518
21963SOL    HW170827   9.442   4.525   9.055 -0.4275  1.8136  1.4832
21963SOL    HW270828   9.449   4.510   8.904  0.8176 -1.0188  1.7551
21964SOL     OW70829   8.060   9.821   1.479  0.1552  0.0717  0.1556
21964SOL    HW170830   8.143   9.860   1.453 -0.2511  1.9252  1.4912
21964SOL    HW270831   8.027   9.780   1.399  1.2796  1.2381 -0.9509
21965SOL     OW70832   6.294   4.965   2.325 -0.0327  0.0772  0.0655
21965SOL    HW170833   6.244   4.921   2.256  0.1389 -0.5875  0.3518
21965SOL    HW270834   6.251   4.937   2.406  1.5648 -1.5940  0.4137
21966SOL     OW70835   4.207  10.841  10.448  0.5687 -0.4031 -0.1801
21966SOL    HW170836   4.272  10.860  10.516  0.1169 -1.2559  0.5080
21966SOL    HW270837   4.249  10.779  10.390  0.2553 -1.2726  0.4939
21967SOL     OW70838   6.585   0.953   4.856 -0.1161  0.1199 -0.3799
21967SOL    HW170839   6.500   0.910   4.865 -1.0739  1.8010 -0.9201
21967SOL    HW270840   6.580   1.028   4.915  1.2573 -0.1066  0.0541
21968SOL     OW70841   6.304   7.240   2.825  0.5556 -0.3919 -0.5371
21968SOL    HW170842   6.259   7.295   2.761 -1.5604  0.3380  1.4134
21968SOL    HW270843   6.392   7.279   2.832 -0.6314  2.4526  0.2514
21969SOL     OW70844   7.584   2.430  11.037 -0.2223 -0.1119  0.3959
21969SOL    HW170845   7.561   2.418  10.945  2.4557 -1.6308 -0.1839
21969SOL    HW270846   7.660   2.489  11.035 -1.4516  1.6395  1.8679
21970SOL     OW70847  10.541   8.742   7.471 -0.4433  0.2811  0.2756
21970SOL    HW170848  10.509   8.664   7.426 -0.9431  0.1322  0.8799
21970SOL    HW270849  10.462   8.790   7.495 -0.1443  0.8771  0.0792
21971SOL     OW70850   6.694   2.253   5.469  0.5340  0.1666 -0.3727
21971SOL    HW170851   6.683   2.300   5.551 -1.1172  1.0131 -1.0401
21971SOL    HW270852   6.707   2.321   5.403  1.3951 -0.4830 -0.9106
21972SOL     OW70853   3.692   3.844   4.921 -0.3782  0.3466  0.1225
21972SOL    HW170854   3.654   3.821   5.005  1.2472 -0.5944  0.6539
21972SOL    HW270855   3.758   3.776   4.906  1.3957  2.1311 -0.5009
21973SOL     OW70856   0.341   3.785   0.500  0.0109 -0.1680  0.9164
21973SOL    HW170857   0.344   3.736   0.417  0.4236  0.1067  0.7714
21973SOL    HW270858   0.421   3.836   0.502 -0.3904  0.4749  1.0950
21974SOL     OW70859   2.193  11.536   2.548  0.1179 -0.0502  0.3207
21974SOL    HW170860   2.220  11.599   2.481  0.4849  1.1816  1.5855
21974SOL    HW270861   2.245  11.458   2.530 -1.1089 -0.4423 -1.9408
21975SOL     OW70862   1.572   0.955   1.485 -0.3227  0.2435  0.4587
21975SOL    HW170863   1.543   0.871   1.449 -0.1332  1.0530 -1.7725
21975SOL    HW270864   1.524   0.965   1.567 -1.7889 -1.1691 -0.1915
21976SOL     OW70865   2.274   5.297   6.361 -0.7049  0.0153  0.6252
21976SOL    HW170866   2.298   5.217   6.409 -0.1900  0.9090  1.9168
21976SOL    HW270867   2.290   5.367   6.424  0.0033  1.2548 -0.8949
21977SOL     OW70868   9.451   0.126   7.233 -0.0278  0.1129 -0.3291
21977SOL    HW170869   9.394   0.121   7.309 -0.2599  0.6376 -0.4611
21977SOL    HW270870   9.420   0.203   7.185 -0.4283 -0.6715 -1.3889
21978SOL     OW70871   0.511  11.406   8.612  0.0267 -0.1694  0.2439
21978SOL    HW170872   0.498  11.492   8.654  1.9649  0.1506  0.2705
21978SOL    HW270873   0.517  11.345   8.685 -0.9881 -0.2856  0.2399
21979SOL     OW70874   3.775   5.418  11.333 -0.0306  0.6544 -0.0988
21979SOL    HW170875   3.706   5.419  11.267 -0.3183  2.4245  0.1678
21979SOL    HW270876   3.731   5.394  11.414  0.0300 -0.0265 -0.2642
21980SOL     OW70877   3.329   2.994   0.188 -0.0930  0.3372  0.2950
21980SOL    HW170878   3.285   2.925   0.237  0.3293  0.0452  0.2715
21980SOL    HW270879   3.416   2.959   0.170  0.4219  1.2008  1.0138
21981SOL     OW70880   1.516  11.283   2.502  1.0316  0.4265  0.4803
21981SOL    HW170881   1.588  11.247   2.554  0.1676  0.2014  1.5533
21981SOL    HW270882   1.508  11.374   2.530  1.3593  0.6707 -0.1767
21982SOL     OW70883   6.079   8.622   7.933 -0.0705 -0.7775 -0.2938
21982SOL    HW170884   6.150   8.672   7.974 -1.2378  0.1609  0.6737
21982SOL    HW270885   6.000   8.669   7.958 -1.0338 -1.7276 -1.4542
21983SOL     OW70886   8.343   8.296   5.617 -0.1397  0.1538  0.3056
21983SOL    HW170887   8.254   8.263   5.626  0.1483 -0.5991  0.4294
21983SOL    HW270888   8.394   8.248   5.683 -0.1747  2.6283  2.3044
21984SOL     OW70889   4.066   6.408   8.091 -0.1482  0.3166  0.7895
21984SOL    HW170890   4.155   6.417   8.057 -0.4675 -0.2270 -0.2345
21984SOL    HW270891   4.063   6.467   8.166  0.7939  1.0446  0.2805
21985SOL     OW70892   3.332   2.024   1.397  0.6018 -0.6377 -0.3168
21985SOL    HW170893   3.249   1.992   1.362  2.3821 -2.0010 -3.8137
21985SOL    HW270894   3.346   2.108   1.352  0.7355  0.0767  1.0009
21986SOL     OW70895   0.712   9.575   9.635 -0.5093  0.0087  0.1644
21986SOL    HW170896   0.745   9.656   9.594 -1.7331  1.4103  1.7922
21986SOL    HW270897   0.785   9.514   9.630 -0.2267  0.4391 -3.0473
21987SOL     OW70898   9.395   5.108  11.406  0.8383 -0.1820 -0.5445
21987SOL    HW170899   9.375   5.021  11.371 -1.9742 -1.1020  2.8008
21987SOL    HW270900   9.323   5.163  11.376  1.1129  0.2873 -0.3540
21988SOL     OW70901   0.776  10.361   2.760 -0.4640 -0.6783  0.1459
21988SOL    HW170902   0.788  10.273   2.797 -0.9715 -0.2143  1.4579
21988SOL    HW270903   0.834  10.362   2.684  3.2401 -0.6350  2.6368
21989SOL     OW70904   3.211  11.442   5.054  0.2674 -0.2562  0.1182
21989SOL    HW170905   3.118  11.465   5.046  0.4144  0.8762  1.3114
21989SOL    HW270906   3.245  11.451   4.965 -0.5820  0.1988 -0.1775
21990SOL     OW70907   7.287   5.375   4.037 -0.0318  0.0271  0.1364
21990SOL    HW170908   7.356   5.412   4.092 -0.6783  0.0850  0.9209
21990SOL    HW270909   7.274   5.286   4.070 -0.5123  0.1048  0.1687
21991SOL     OW70910  10.950   8.521   4.359 -0.3764 -0.6948  0.2525
21991SOL    HW170911  11.010   8.447   4.369  0.1671 -0.4395 -0.8929
21991SOL    HW270912  10.886   8.491   4.295 -0.6736 -0.4830  0.4508
21992SOL     OW70913   6.201   6.477  10.840 -0.1328  0.2067  0.5838
21992SOL    HW170914   6.170   6.559  10.803 -0.5043 -0.7573 -1.3845
21992SOL    HW270915   6.272   6.449  10.781 -0.4474 -1.1914  0.8220
21993SOL     OW70916   0.420   5.934   5.094 -0.0560 -0.0753  0.5626
21993SOL    HW170917   0.445   5.941   5.002 -2.0768 -1.1909 -0.1195
21993SOL    HW270918   0.341   5.987   5.101  0.3782  0.4423  1.8124
21994SOL     OW70919   0.944   2.477   6.157  0.2052 -0.1036 -0.0763
21994SOL    HW170920   0.860   2.440   6.131  0.6485 -0.3876 -1.1353
21994SOL    HW270921   0.982   2.512   6.077  0.5840  1.1017  0.5984
21995SOL     OW70922  10.226   0.032  11.592 -0.1876  0.1040 -0.3410
21995SOL    HW170923  10.311   0.062  11.625  0.0823 -0.8507 -0.1316
21995SOL    HW270924  10.229   0.052  11.498  0.1051  0.4436 -0.2600
21996SOL     OW70925   8.518   4.724   5.993  0.5229  0.3090  0.3999
21996SOL    HW170926   8.538   4.758   6.080  1.2922  1.3153 -0.1486
21996SOL    HW270927   8.603   4.696   5.958  0.3303  0.5301 -0.2676
21997SOL     OW70928   2.483   3.044   6.571 -0.1848 -0.4946  0.8627
21997SOL    HW170929   2.447   2.957   6.589  1.1439 -1.2185  0.1742
21997SOL    HW270930   2.543   3.060   6.644  0.1408 -0.5081  0.6038
21998SOL     OW70931   4.994   8.414   6.796 -0.8430  0.6286  0.1211
21998SOL    HW170932   5.044   8.384   6.720  0.0130  0.0303  0.9011
21998SOL    HW270933   4.976   8.335   6.846 -1.4501  1.0086  0.5215
21999SOL     OW70934   7.990   7.382   9.137 -0.4791  0.4847 -0.1135
21999SOL    HW170935   8.071   7.336   9.157 -0.2099  1.0988  0.2218
21999SOL    HW270936   7.993   7.461   9.191 -1.6409  0.1556  0.4712
22000SOL     OW70937   9.434   0.353   0.447  0.5367  0.0151  0.1211
22000SOL    HW170938   9.447   0.307   0.530  1.0616  0.8965  0.5382
22000SOL    HW270939   9.444   0.285   0.381  1.4440 -0.4565  0.7150
22001SOL     OW70940  10.439   3.716   3.942  0.1277 -0.6421  0.3217
22001SOL    HW170941  10.531   3.720   3.917 -0.3509 -0.5311 -1.5272
22001SOL    HW270942  10.409   3.807   3.938 -0.6179 -0.9246 -1.4267
22002SOL     OW70943   5.152   5.100   1.949  0.6514 -0.2791  0.1051
22002SOL    HW170944   5.106   5.078   1.868 -0.4723 -3.1798  1.3976
22002SOL    HW270945   5.245   5.094   1.926  0.3939  1.1002 -1.4438
22003SOL     OW70946   9.715   5.342   1.101  0.4108  0.1008  0.4558
22003SOL    HW170947   9.781   5.400   1.063  1.3959 -0.4660  1.2510
22003SOL    HW270948   9.661   5.400   1.155  2.6242  0.0609  2.8860
22004SOL     OW70949   6.671   9.182   1.000 -0.5184 -0.1304  0.3770
22004SOL    HW170950   6.596   9.183   0.942  0.0450  0.3840 -0.3538
22004SOL    HW270951   6.672   9.268   1.041  0.0170  0.0911 -0.0812
22005SOL     OW70952   3.119   8.991   7.308  0.6424 -0.5010 -0.0676
22005SOL    HW170953   3.190   8.986   7.245  1.6240 -1.2237  1.0593
22005SOL    HW270954   3.064   8.915   7.288 -0.5360  0.6854 -1.6967
22006SOL     OW70955   3.632   5.573   1.617  0.0778  0.8699  0.3333
22006SOL    HW170956   3.538   5.563   1.624  0.0764  1.1436  0.7372
22006SOL    HW270957   3.668   5.512   1.682  0.2213 -0.1136 -0.6444
22007SOL     OW70958   7.711   0.979  10.996 -0.6861  0.1996 -0.3002
22007SOL    HW170959   7.700   0.898  10.947 -0.5450 -0.4254  0.6937
22007SOL    HW270960   7.635   1.032  10.970  0.3910  0.7142 -2.7257
22008SOL     OW70961   1.903   0.382   2.242  0.0968  0.3437  0.2100
22008SOL    HW170962   1.859   0.325   2.305  0.6929  0.2845  0.5734
22008SOL    HW270963   1.947   0.448   2.295  0.5493  0.3335 -0.1481
22009SOL     OW70964   8.939   5.160   5.059 -0.0683  0.0146  0.4399
22009SOL    HW170965   8.919   5.253   5.052  0.7529  0.1084 -1.0624
22009SOL    HW270966   9.031   5.154   5.033 -0.8006 -1.5006 -2.1255
22010SOL     OW70967   1.628  11.456  10.421 -0.5725 -0.3123  0.2017
22010SOL    HW170968   1.675  11.519  10.476  1.1018 -0.4845 -0.9555
22010SOL    HW270969   1.544  11.443  10.466  0.8675 -0.8289  2.9796
22011SOL     OW70970   8.571   6.349  10.442  0.0779  0.3795 -0.0994
22011SOL    HW170971   8.535   6.284  10.503  1.8012 -0.2664  0.2909
22011SOL    HW270972   8.554   6.433  10.484  1.2401 -0.0475  1.3514
22012SOL     OW70973   5.826   0.680  11.610 -0.1487  0.0884  0.0929
22012SOL    HW170974   5.759   0.726  11.560 -0.7756 -0.5207  0.3572
22012SOL    HW270975   5.793   0.591  11.618  1.1058 -0.4726 -0.5394
22013SOL     OW70976  11.268   9.084   3.489  0.1094 -0.9188  0.4127
22013SOL    HW170977  11.235   9.103   3.577  2.5030  0.2773  1.1315
22013SOL    HW270978  11.247   8.992   3.474  0.9222 -1.5507  2.8273
22014SOL     OW70979   8.021   6.591   2.781  0.3817 -0.1319 -0.6281
22014SOL    HW170980   8.064   6.571   2.698  1.3865  1.7902 -0.6458
22014SOL    HW270981   8.093   6.602   2.843  0.2349  4.0777 -0.8515
22015SOL     OW70982   5.566   2.873   4.145 -0.0561  0.6622  0.1684
22015SOL    HW170983   5.513   2.935   4.195  0.2693 -0.0965  1.5059
22015SOL    HW270984   5.639   2.851   4.204  0.3650 -0.2263 -0.6586
22016SOL     OW70985   4.710  10.554   2.003 -0.6560  0.3213 -0.7361
22016SOL    HW170986   4.715  10.460   1.983 -0.5399  0.3935 -1.0595
22016SOL    HW270987   4.700  10.596   1.918 -0.0941  0.6464 -0.6483
22017SOL     OW70988   1.933   4.342   9.794  0.1055 -0.1052  0.4729
22017SOL    HW170989   1.959   4.262   9.840 -0.1873 -0.1709  0.5236
22017SOL    HW270990   1.868   4.383   9.851 -0.2264 -0.1633  0.1446
22018SOL     OW70991   7.740   9.567   3.316  0.3959  0.1827 -0.0561
22018SOL    HW170992   7.829   9.603   3.315  0.1007  0.9248 -0.8803
22018SOL    HW270993   7.752   9.473   3.302  1.0107  0.3940 -1.0249
22019SOL     OW70994   8.055   4.372   6.501 -0.5251  0.1342  0.3917
22019SOL    HW170995   8.031   4.370   6.593 -2.4030  0.2305 -0.0544
22019SOL    HW270996   7.991   4.430   6.461 -0.5289 -0.8995 -1.1923
22020SOL     OW70997   7.765   9.656   9.234 -0.4861 -0.4317  0.9116
22020SOL    HW170998   7.738   9.747   9.241  0.0646 -0.1312 -0.3580
22020SOL    HW270999   7.812   9.652   9.150 -0.0155 -1.7562  1.2060
22021SOL     OW71000   2.160   3.917   6.141 -0.4286 -0.5629 -0.5104
22021SOL    HW171001   2.244   3.882   6.171 -0.6886 -1.7102 -1.0519
22021SOL    HW271002   2.158   3.898   6.047  0.1732  2.5718 -1.2715
22022SOL     OW71003   8.700   2.598   1.313 -1.2150  0.3379 -0.8403
22022SOL    HW171004   8.654   2.563   1.389  1.8253 -1.4126  0.3791
22022SOL    HW271005   8.729   2.520   1.265  0.1047  1.3367 -1.7200
22023SOL     OW71006   3.723   9.350  11.268 -0.3814 -0.0679 -0.6277
22023SOL    HW171007   3.739   9.396  11.351 -1.4266 -0.2683 -0.2937
22023SOL    HW271008   3.707   9.420  11.205 -0.1151  0.0723 -0.5412
22024SOL     OW71009   7.419   2.304   7.807 -0.3148  0.2502 -0.5046
22024SOL    HW171010   7.467   2.384   7.787  0.1799  0.1158  0.1057
22024SOL    HW271011   7.352   2.330   7.869  0.0538  0.1427 -0.0529
22025SOL     OW71012   3.833   7.624   6.655 -0.3457 -0.3175  0.0374
22025SOL    HW171013   3.877   7.546   6.691  1.6202  0.2187 -1.0537
22025SOL    HW271014   3.853   7.693   6.718  2.4480  0.4466 -1.5431
22026SOL     OW71015   6.294   9.556   9.604  0.1449 -0.3230 -0.5257
22026SOL    HW171016   6.380   9.574   9.567  0.7830 -1.8049  0.1365
22026SOL    HW271017   6.284   9.619   9.675  0.8748 -0.3998 -0.3457
22027SOL     OW71018   0.491  10.736   2.038  0.3569 -0.3623  0.2991
22027SOL    HW171019   0.475  10.696   1.953 -0.2328 -1.6611  0.9809
22027SOL    HW271020   0.576  10.779   2.029  0.4349 -0.7269 -0.8548
22028SOL     OW71021   4.607   7.766   1.787 -0.3067  0.3910 -0.4508
22028SOL    HW171022   4.632   7.831   1.853 -1.7020 -0.6507  1.1861
22028SOL    HW271023   4.551   7.815   1.726  1.2513  1.4398 -1.1018
22029SOL     OW71024   8.594   3.708   5.399  0.2241  0.3850  0.2583
22029SOL    HW171025   8.646   3.788   5.395  0.0327  0.5332  0.6969
22029SOL    HW271026   8.537   3.713   5.322 -1.4723  1.8636  1.5142
22030SOL     OW71027   1.670   3.792  10.643  0.0129  0.6126 -0.1995
22030SOL    HW171028   1.663   3.770  10.550  0.7674  0.0837 -0.1479
22030SOL    HW271029   1.582   3.782  10.677  0.1300 -1.6403 -0.3548
22031SOL     OW71030   6.724  10.442   4.518  0.2117  0.6614 -0.0806
22031SOL    HW171031   6.741  10.400   4.434  0.1252  0.4907 -0.0127
22031SOL    HW271032   6.679  10.524   4.496 -0.6687  0.1719 -0.1566
22032SOL     OW71033   2.335   5.905   7.415 -0.7002 -0.8576 -0.7502
22032SOL    HW171034   2.364   5.957   7.340 -0.1325 -1.1286 -0.7181
22032SOL    HW271035   2.240   5.896   7.401 -0.5779 -1.0357 -1.5159
22033SOL     OW71036   8.556   7.290   8.252  0.4096  0.3390  0.2898
22033SOL    HW171037   8.620   7.257   8.315  0.9755  1.0491  0.1059
22033SOL    HW271038   8.541   7.381   8.278 -0.8517  0.0654  0.5744
22034SOL     OW71039   8.973   5.994   9.388 -0.3722 -0.0658 -0.3139
22034SOL    HW171040   8.940   6.058   9.452 -0.6551 -0.6424  0.1262
22034SOL    HW271041   9.024   6.046   9.326  1.3790  0.3122  1.3454
22035SOL     OW71042   5.931   1.705   1.171  0.3770  0.6318  0.3725
22035SOL    HW171043   5.889   1.665   1.247 -0.1725  1.6069  0.5981
22035SOL    HW271044   5.859   1.736   1.117  0.7854  1.3227  0.2146
22036SOL     OW71045   8.283   3.649   9.781  0.3750 -0.1078 -0.4570
22036SOL    HW171046   8.235   3.727   9.810  1.3605 -0.3200  1.9593
22036SOL    HW271047   8.317   3.673   9.694 -1.7611  1.0152 -1.0621
22037SOL     OW71048   0.384  10.874   2.446 -0.5425 -0.2653  0.4201
22037SOL    HW171049   0.390  10.959   2.488  0.1195 -0.6617  1.1426
22037SOL    HW271050   0.444  10.879   2.372 -1.7896  0.4695 -0.5977
22038SOL     OW71051   6.721   2.676   0.955  0.1706 -0.6862  0.3855
22038SOL    HW171052   6.789   2.664   1.021 -0.2879 -1.7049  0.6993
22038SOL    HW271053   6.739   2.761   0.916  0.8378 -0.3626  1.3771
22039SOL     OW71054   7.051   3.079   7.478  0.3988  0.4292 -0.2108
22039SOL    HW171055   7.010   3.151   7.429 -0.4010 -0.0309 -0.2370
22039SOL    HW271056   7.105   3.033   7.414 -0.8397 -0.3220 -0.7439
22040SOL     OW71057   5.773   7.761   3.593  0.5881  0.4761 -0.0070
22040SOL    HW171058   5.864   7.789   3.597  2.0113 -3.6747  0.2819
22040SOL    HW271059   5.750   7.740   3.684  0.0713 -0.5455 -0.3619
22041SOL     OW71060   5.095   1.228   8.280 -0.6739 -0.0700 -0.6952
22041SOL    HW171061   5.066   1.267   8.197  1.4051 -0.0138 -1.4658
22041SOL    HW271062   5.156   1.293   8.316 -2.3117  0.3914  1.4665
22042SOL     OW71063   9.646   0.072   6.276  0.0994 -0.6251  0.3863
22042SOL    HW171064   9.725   0.122   6.296  0.0525 -0.5111  0.2876
22042SOL    HW271065   9.679  -0.012   6.244  0.3062  0.5129 -2.7806
22043SOL     OW71066   2.052   5.330   3.252 -0.1180  0.1244 -0.0970
22043SOL    HW171067   1.965   5.370   3.249  0.1965  0.8269 -0.2388
22043SOL    HW271068   2.078   5.323   3.160 -0.1526 -0.3678 -0.0685
22044SOL     OW71069   7.267   9.425  11.311  0.0428  0.2823 -0.4146
22044SOL    HW171070   7.234   9.503  11.356 -0.7610  0.2704 -0.9642
22044SOL    HW271071   7.258   9.445  11.218 -1.1662 -0.8463 -0.5771
22045SOL     OW71072   5.807   3.828  10.277  0.1074  0.2589  0.5212
22045SOL    HW171073   5.834   3.895  10.340  0.5856  0.8140 -0.2372
22045SOL    HW271074   5.844   3.859  10.194 -2.2060  0.6336 -0.4363
22046SOL     OW71075   1.246  11.344   3.515  0.1342  0.2639 -0.2956
22046SOL    HW171076   1.248  11.386   3.429 -1.6816  2.6408  0.7363
22046SOL    HW271077   1.278  11.411   3.575  0.0959 -0.8954  1.0683
22047SOL     OW71078   5.600   5.030   1.672 -0.0861  0.6639  0.0779
22047SOL    HW171079   5.686   5.057   1.641  0.4247  0.8141  1.5453
22047SOL    HW271080   5.605   4.934   1.675 -0.0300  0.6648  0.0145
22048SOL     OW71081   8.089   4.211   8.331  0.1679  0.4129 -0.6678
22048SOL    HW171082   8.097   4.275   8.261 -1.2459  0.9959 -0.3309
22048SOL    HW271083   8.096   4.262   8.412 -0.9337  0.1669 -0.3976
22049SOL     OW71084   4.984   8.215   6.230 -0.1841  0.0023 -0.2592
22049SOL    HW171085   5.053   8.274   6.198 -0.6558  0.2714 -0.7944
22049SOL    HW271086   4.909   8.234   6.174 -0.1188 -1.6358 -0.9393
22050SOL     OW71087   7.089   0.346   7.096 -0.5430  0.1269  0.1259
22050SOL    HW171088   7.038   0.271   7.127 -0.4898 -0.4513 -1.1095
22050SOL    HW271089   7.113   0.393   7.175 -0.2797 -1.3658  0.9737
22051SOL     OW71090   6.510   7.821   8.492  0.0765 -0.1318  0.4277
22051SOL    HW171091   6.564   7.861   8.424  2.5812  1.7658  3.2191
22051SOL    HW271092   6.422   7.818   8.455  1.4236 -0.1211 -3.1468
22052SOL     OW71093   8.275   2.172   4.032  0.4326  0.0013  0.0111
22052SOL    HW171094   8.245   2.180   4.122  1.6730 -1.3676  0.5867
22052SOL    HW271095   8.202   2.205   3.979 -0.3257  0.7956  1.4921
22053SOL     OW71096   5.095   1.771   7.389  0.3297  0.3224 -0.7040
22053SOL    HW171097   5.107   1.843   7.327 -0.5091  0.0602 -1.1878
22053SOL    HW271098   5.013   1.791   7.433  0.2427 -0.1878 -0.6336
22054SOL     OW71099   9.027   0.613  11.400  0.4476  0.3126  0.1820
22054SOL    HW171100   9.054   0.523  11.418 -0.3210  0.2373  1.0447
22054SOL    HW271101   8.941   0.621  11.441  0.6122  1.5093  0.3359
22055SOL     OW71102  10.435   8.759   9.088  0.0192  0.1914 -0.2182
22055SOL    HW171103  10.354   8.808   9.100  1.2014  2.0440  0.6085
22055SOL    HW271104  10.462   8.780   8.998 -0.7707 -1.0820 -0.7944
22056SOL     OW71105   4.041   1.300  11.007  0.2610  0.5537 -0.3472
22056SOL    HW171106   4.065   1.256  11.089  1.0115 -0.8779 -1.2981
22056SOL    HW271107   3.946   1.287  11.001  0.2004  0.6697  0.2963
22057SOL     OW71108   6.518   7.999  10.340 -0.0765 -0.2838 -0.3539
22057SOL    HW171109   6.437   8.049  10.344  1.2629  2.0639 -0.9157
22057SOL    HW271110   6.583   8.060  10.304  2.0365 -1.9439  0.4060
22058SOL     OW71111   3.717   1.635  11.492 -0.4174  0.0089  0.3951
22058SOL    HW171112   3.679   1.694  11.427 -0.0180 -0.8366 -0.6201
22058SOL    HW271113   3.705   1.548  11.456  0.9661 -0.3934  0.8454
22059SOL     OW71114   7.663   8.172   4.437 -0.0516  0.1730 -0.2560
22059SOL    HW171115   7.603   8.157   4.364  0.3814 -0.4799 -0.4851
22059SOL    HW271116   7.750   8.156   4.401  0.0388 -2.6373  0.9756
22060SOL     OW71117   6.160  10.008   1.150 -0.5160  0.1738  0.1456
22060SOL    HW171118   6.160  10.079   1.085  2.4861 -0.7466 -1.0677
22060SOL    HW271119   6.112   9.937   1.107  0.7509 -0.1496 -0.8039
22061SOL     OW71120  10.143   4.415   7.129  0.2067  0.5140  0.1264
22061SOL    HW171121  10.154   4.323   7.103  0.4930  0.6007 -0.0739
22061SOL    HW271122  10.188   4.422   7.213 -1.1898  0.1084  0.9310
22062SOL     OW71123   9.750   7.690   7.173  0.5532 -0.0519  0.1706
22062SOL    HW171124   9.717   7.653   7.091  1.0210  1.7775 -0.9019
22062SOL    HW271125   9.690   7.763   7.192  0.6512 -0.2519  1.2798
22063SOL     OW71126   5.852   0.410   8.772 -0.2386  0.2935  0.3277
22063SOL    HW171127   5.851   0.362   8.690 -1.2234  1.7449 -0.5774
22063SOL    HW271128   5.921   0.370   8.824  0.4636 -0.5961 -1.2461
22064SOL     OW71129  11.014   9.279   7.916  0.3265  0.2119  0.1822
22064SOL    HW171130  11.002   9.253   7.825  0.8000  1.2943 -0.2009
22064SOL    HW271131  11.104   9.253   7.937 -0.0090 -0.6854  0.5829
22065SOL     OW71132   8.096   8.280   4.115  0.1105  0.3480  0.0804
22065SOL    HW171133   8.092   8.352   4.177  1.2559  0.9231 -0.4858
22065SOL    HW271134   8.044   8.309   4.040  0.1974  0.3992  0.0403
22066SOL     OW71135  11.271   7.468   9.275 -0.4808  0.1744 -0.2451
22066SOL    HW171136  11.324   7.397   9.239 -0.3349  0.8607 -1.4421
22066SOL    HW271137  11.190   7.426   9.304  0.6846 -0.8971  1.6505
22067SOL     OW71138   6.376   7.608   1.647  0.5561  0.6524 -0.1143
22067SOL    HW171139   6.315   7.671   1.683  1.3045  1.7104 -0.6288
22067SOL    HW271140   6.462   7.639   1.675  0.9444 -0.1092 -0.4211
22068SOL     OW71141  10.769   5.076   6.396 -0.3072 -0.0839  0.2678
22068SOL    HW171142  10.702   5.081   6.464  0.2172  1.6644  0.7132
22068SOL    HW271143  10.721   5.088   6.314 -0.5512  1.5957  0.6065
22069SOL     OW71144  10.904   4.048   0.618 -0.4872 -0.9354 -0.5777
22069SOL    HW171145  10.867   4.057   0.706 -0.1048 -0.3300 -0.4677
22069SOL    HW271146  10.839   3.999   0.569 -0.6261 -1.4448  0.0968
22070SOL     OW71147   6.358   0.126  11.329  0.2662  0.4336  0.5632
22070SOL    HW171148   6.396   0.038  11.334 -0.3977  0.0823 -0.3610
22070SOL    HW271149   6.337   0.147  11.420  1.4370  0.0970  0.9309
22071SOL     OW71150   3.206   6.684   2.292  0.2774  0.1409 -0.1819
22071SOL    HW171151   3.301   6.677   2.286  0.3715  2.1462 -2.6955
22071SOL    HW271152   3.191   6.765   2.341 -0.1127  0.2779 -0.5200
22072SOL     OW71153  10.193   3.186   9.802  0.3535 -0.2466  0.4445
22072SOL    HW171154  10.268   3.207   9.746  1.7458 -0.1865  2.2566
22072SOL    HW271155  10.218   3.216   9.889 -1.8545 -0.1109  1.0976
22073SOL     OW71156   4.395  10.200   6.809  0.0700 -0.0394  0.8179
22073SOL    HW171157   4.375  10.155   6.728 -0.0795  0.8770  0.3294
22073SOL    HW271158   4.336  10.161   6.874  0.2472 -0.8239  0.5146
22074SOL     OW71159   8.518   8.043   7.729  0.5403  0.2332  0.5050
22074SOL    HW171160   8.611   8.021   7.719  0.6343  0.1056  1.5574
22074SOL    HW271161   8.518   8.132   7.763  0.3938 -0.6395  2.9880
22075SOL     OW71162   4.839   0.681   9.959 -0.5287  0.3076  0.2397
22075SOL    HW171163   4.792   0.718   9.884 -0.2276  1.1867  0.4712
22075SOL    HW271164   4.772   0.633  10.008 -0.8595  0.2689 -0.2447
22076SOL     OW71165   8.541   7.076   2.557 -0.1987 -0.7614 -0.4381
22076SOL    HW171166   8.542   6.980   2.567  0.0037 -0.5389  2.5671
22076SOL    HW271167   8.588   7.108   2.634 -1.0032  1.8081 -0.9367
22077SOL     OW71168   3.226   9.634   4.469  0.0175  0.0108 -0.3395
22077SOL    HW171169   3.245   9.603   4.557  2.0414 -0.1969 -0.7906
22077SOL    HW271170   3.260   9.565   4.411  1.2535  1.3375 -1.2924
22078SOL     OW71171   3.776   1.284   0.926  0.2572 -0.3473  0.0223
22078SOL    HW171172   3.776   1.346   0.853  0.0016 -0.2108  0.1371
22078SOL    HW271173   3.707   1.221   0.904  0.4392 -0.5263 -0.0388
22079SOL     OW71174   1.467   7.513   6.509  0.2180 -0.2979 -0.1539
22079SOL    HW171175   1.501   7.459   6.438 -2.7772 -1.0581 -1.1563
22079SOL    HW271176   1.486   7.464   6.588  3.0155  0.2416 -0.4091
22080SOL     OW71177   2.632   1.269  11.673 -0.4204  0.4741  0.4961
22080SOL    HW171178   2.718   1.285  11.711 -0.7872  3.0742  0.3570
22080SOL    HW271179   2.570   1.302  11.738 -1.3021 -0.3581  0.1150
22081SOL     OW71180   0.096   9.380   6.716  0.2005  0.2683 -1.0985
22081SOL    HW171181   0.105   9.308   6.654  0.3919  0.0133 -0.7839
22081SOL    HW271182   0.015   9.361   6.763  0.2084  0.3006 -1.0721
22082SOL     OW71183   4.997   5.595   2.539 -0.1962 -0.6151 -0.5513
22082SOL    HW171184   4.996   5.647   2.459  0.2254  1.9456  0.9820
22082SOL    HW271185   4.953   5.651   2.604 -0.2308 -2.4420  1.0859
22083SOL     OW71186   2.763  10.500   4.446  0.0455 -0.6446  0.2488
22083SOL    HW171187   2.703  10.534   4.380  0.8973  1.5806  0.5171
22083SOL    HW271188   2.707  10.453   4.507 -0.9803 -1.2938 -1.1276
22084SOL     OW71189   8.845   8.629   4.368  0.0977 -0.1474 -0.0960
22084SOL    HW171190   8.775   8.617   4.432 -0.4244  1.2695 -0.3444
22084SOL    HW271191   8.878   8.541   4.350  1.3213 -0.4832  3.2605
22085SOL     OW71192   3.117   9.541   2.219  0.5603 -0.5068  0.5317
22085SOL    HW171193   3.042   9.588   2.183 -0.4253  0.3032  3.3286
22085SOL    HW271194   3.182   9.609   2.236  0.6263 -0.7038  1.0988
22086SOL     OW71195   5.950   5.714  10.375  0.0982  0.0729  0.6959
22086SOL    HW171196   5.912   5.768  10.444 -0.2246  0.5663  0.1408
22086SOL    HW271197   5.966   5.775  10.303  1.9153 -0.1182  0.8802
22087SOL     OW71198   5.859   3.006   2.031 -0.1480 -0.2661 -0.2400
22087SOL    HW171199   5.774   2.991   1.991 -0.5860  0.3991  0.4263
22087SOL    HW271200   5.921   2.962   1.973 -1.1618 -2.9972  0.5753
22088SOL     OW71201   7.999   2.913  10.756  0.3300  0.2550  0.6106
22088SOL    HW171202   7.920   2.931  10.704  0.1688  2.3054  1.4793
22088SOL    HW271203   8.071   2.928  10.695  0.1005 -0.9704 -0.0009
22089SOL     OW71204   0.376   9.300  10.206 -0.2277 -0.0775  0.1721
22089SOL    HW171205   0.382   9.395  10.196  0.4557 -0.0893  0.4198
22089SOL    HW271206   0.466   9.270  10.204 -0.3859 -0.6337  0.9231
22090SOL     OW71207   9.440   2.717   7.337 -0.0169  0.1030  0.1121
22090SOL    HW171208   9.467   2.721   7.245 -0.6560 -3.0062 -0.3139
22090SOL    HW271209   9.423   2.624   7.353  0.1222  0.5478  3.4253
22091SOL     OW71210   3.263   2.714  11.256 -0.1324 -0.5945 -0.0092
22091SOL    HW171211   3.336   2.747  11.309  1.0813  0.2109 -2.0870
22091SOL    HW271212   3.303   2.649  11.199 -1.3148 -1.0643 -0.3189
22092SOL     OW71213   6.435   4.111   9.718  0.0297  0.1651 -0.5175
22092SOL    HW171214   6.491   4.143   9.789 -2.8989 -1.2376  2.7633
22092SOL    HW271215   6.370   4.180   9.706  0.0681  0.0654 -1.2946
22093SOL     OW71216   9.999   8.517   9.705  0.1271  0.1759 -0.2077
22093SOL    HW171217  10.054   8.555   9.773  1.1017  0.7555 -1.2864
22093SOL    HW271218  10.061   8.483   9.640 -0.7508 -1.6588 -0.1531
22094SOL     OW71219   6.133   3.531   0.880  0.3841 -0.1622  0.0455
22094SOL    HW171220   6.087   3.524   0.796  1.3385  1.0595 -0.6176
22094SOL    HW271221   6.225   3.545   0.856  0.5129  1.3766  1.2430
22095SOL     OW71222   4.752  11.083   5.995 -0.0124 -0.2544  0.2817
22095SOL    HW171223   4.667  11.042   5.978 -0.5052  1.0945 -0.7020
22095SOL    HW271224   4.730  11.172   6.026  0.9976 -0.8794  3.1001
22096SOL     OW71225   1.665   1.675   4.254 -0.1111  1.2053  0.0488
22096SOL    HW171226   1.713   1.593   4.244  1.1557  2.1519 -2.9212
22096SOL    HW271227   1.605   1.660   4.326  0.7251 -2.0047  0.2000
22097SOL     OW71228  10.810   2.779   3.110  0.2208 -0.4290  0.1105
22097SOL    HW171229  10.858   2.845   3.060 -0.7359  0.5134  0.3993
22097SOL    HW271230  10.836   2.793   3.201 -1.8208  1.2453  0.5104
22098SOL     OW71231   3.302   3.253   0.231 -0.3052  0.1090  0.1452
22098SOL    HW171232   3.260   3.249   0.317  1.1027 -0.0235  0.8619
22098SOL    HW271233   3.311   3.162   0.204  1.8282 -0.0797  1.2248
22099SOL     OW71234   3.773   5.443  10.572  0.3516  0.4380 -0.4053
22099SOL    HW171235   3.717   5.367  10.556 -0.2128  0.7200  0.1502
22099SOL    HW271236   3.784   5.445  10.667  2.1645 -0.1938 -0.5766
22100SOL     OW71237   0.292   6.550   4.680  0.4058  0.4002 -0.0325
22100SOL    HW171238   0.234   6.564   4.755  1.7760  0.4542  1.0606
22100SOL    HW271239   0.260   6.470   4.639 -2.1182  1.8456 -1.1250
22101SOL     OW71240   8.846   7.542   3.946 -0.2499 -0.0148  0.2388
22101SOL    HW171241   8.837   7.486   3.869  0.1411  0.6362 -0.2923
22101SOL    HW271242   8.912   7.498   4.000  2.4800  1.4442 -1.6344
22102SOL     OW71243   4.580   7.380   0.715 -0.0832  0.1445 -0.0863
22102SOL    HW171244   4.526   7.337   0.781 -0.4213  0.2078 -0.3195
22102SOL    HW271245   4.564   7.473   0.727  1.2269  0.2636  0.9154
22103SOL     OW71246   6.820  10.798  10.465 -0.1715  0.2147  0.7430
22103SOL    HW171247   6.757  10.812  10.536 -1.6619 -1.3867 -0.1950
22103SOL    HW271248   6.804  10.869  10.404 -0.1198  0.5804  1.1505
22104SOL     OW71249   7.898   2.470   4.077 -0.5748 -0.4792  0.0134
22104SOL    HW171250   7.912   2.503   4.165  0.8472  0.9538 -0.6940
22104SOL    HW271251   7.887   2.376   4.087 -3.6200 -0.0655  2.0113
22105SOL     OW71252   8.355   5.640   6.121 -0.6081 -0.1221  0.6596
22105SOL    HW171253   8.349   5.548   6.093 -1.4491 -0.7494  2.7360
22105SOL    HW271254   8.299   5.687   6.059  0.6511 -0.8084 -1.0753
22106SOL     OW71255   5.653   1.112   6.722 -0.0900 -0.1045 -0.2825
22106SOL    HW171256   5.591   1.154   6.781 -1.1565 -1.0753 -0.6830
22106SOL    HW271257   5.630   1.019   6.725  1.3671 -0.4955 -0.4215
22107SOL     OW71258   6.831   5.032   6.051  0.7314  0.0799  0.2231
22107SOL    HW171259   6.910   4.978   6.059  0.4655 -0.3333  0.1038
22107SOL    HW271260   6.808   5.029   5.958  0.1514 -0.4243  0.3731
22108SOL     OW71261   9.285   7.179   3.026 -0.0235 -0.2855 -0.0272
22108SOL    HW171262   9.278   7.222   3.112  0.1362  0.2769 -0.2927
22108SOL    HW271263   9.199   7.191   2.986  0.6786  1.8722 -1.0598
22109SOL     OW71264   8.499   5.435   3.191 -0.1117 -0.2148 -0.5115
22109SOL    HW171265   8.576   5.415   3.138 -1.1168 -0.3886 -1.9772
22109SOL    HW271266   8.507   5.528   3.211 -0.2580  0.1382 -1.9694
22110SOL     OW71267   4.323   2.627   4.613 -0.0442  0.1845  0.8720
22110SOL    HW171268   4.363   2.585   4.690  0.7581 -0.6289  0.0329
22110SOL    HW271269   4.395   2.675   4.573 -1.1215  3.3395  2.3597
22111SOL     OW71270   2.128  11.067  11.153 -0.4431 -0.3466  0.4578
22111SOL    HW171271   2.090  11.029  11.232 -0.2664 -0.4476  0.4927
22111SOL    HW271272   2.106  11.005  11.083  0.9485 -1.1750  0.7216
22112SOL     OW71273   9.566  10.763   4.273 -0.5356  0.3752  0.5801
22112SOL    HW171274   9.578  10.677   4.233  1.2501  0.9605 -0.2231
22112SOL    HW271275   9.523  10.744   4.357  0.2039 -1.3342  0.6238
22113SOL     OW71276   7.177  10.963   5.579  0.1875 -0.8439  0.1124
22113SOL    HW171277   7.089  10.997   5.595 -0.6341 -3.1401  0.9146
22113SOL    HW271278   7.227  10.990   5.656 -0.5764 -1.8319  0.9735
22114SOL     OW71279   4.628   6.117   0.536 -0.2801 -0.1979  0.5068
22114SOL    HW171280   4.688   6.152   0.602  1.2376  1.1074 -1.4360
22114SOL    HW271281   4.549   6.170   0.545  0.5872  1.2188  0.1368
22115SOL     OW71282   9.873   0.972  10.006  0.3283  0.2758  0.0948
22115SOL    HW171283   9.898   0.970   9.913  1.5609 -1.5982  0.4011
22115SOL    HW271284   9.887   1.063  10.032  0.4101  0.7365 -1.4480
22116SOL     OW71285  10.670   6.914   7.800  0.2829  0.7118  0.6949
22116SOL    HW171286  10.744   6.860   7.774  1.1926  1.8738  0.7946
22116SOL    HW271287  10.603   6.851   7.827  0.8128 -0.3907 -0.4621
22117SOL     OW71288   1.867   0.877   4.867 -0.5093  0.5974  0.1784
22117SOL    HW171289   1.798   0.818   4.836  0.5263  0.6826 -2.5592
22117SOL    HW271290   1.852   0.959   4.820  0.2918  1.2845  1.0820
22118SOL     OW71291   0.863   4.250   4.489  0.1216  0.0960 -0.6183
22118SOL    HW171292   0.952   4.241   4.525 -0.4263 -1.3601  0.5047
22118SOL    HW271293   0.861   4.189   4.415 -0.3074 -0.8744  0.1702
22119SOL     OW71294  11.219   5.480   9.616 -0.6624  0.0742 -0.5978
22119SOL    HW171295  11.295   5.425   9.598 -0.2130  0.1379  0.9556
22119SOL    HW271296  11.152   5.418   9.647 -0.6213  0.2303 -0.1933
22120SOL     OW71297   3.652   4.010   8.452 -0.0222 -0.0000  0.6491
22120SOL    HW171298   3.650   3.927   8.498 -0.6495 -1.0401 -1.1575
22120SOL    HW271299   3.614   4.073   8.513  0.5190 -1.0064  2.0595
22121SOL     OW71300  10.861   5.478   8.377  0.1713 -1.0896 -0.3284
22121SOL    HW171301  10.896   5.504   8.292 -0.0668  2.5877  0.5399
22121SOL    HW271302  10.935   5.485   8.437 -0.6537  1.1212  0.5250
22122SOL     OW71303   2.803   8.400   4.113  0.1163  0.4894  0.2434
22122SOL    HW171304   2.763   8.481   4.146  1.5427  0.5084  2.0184
22122SOL    HW271305   2.856   8.429   4.038  0.8973  1.2731  1.0851
22123SOL     OW71306   9.236   9.106   6.600 -0.2135  0.3493 -0.7856
22123SOL    HW171307   9.166   9.118   6.664  0.3907 -1.0578  0.2039
22123SOL    HW271308   9.205   9.037   6.543  0.3947 -0.3780 -0.2585
22124SOL     OW71309   8.950  11.110   9.794 -0.1190 -0.2714 -0.0322
22124SOL    HW171310   8.979  11.155   9.873  0.7369 -0.9159  0.0353
22124SOL    HW271311   9.022  11.123   9.731  1.2986 -3.4913  0.7430
22125SOL     OW71312   3.104   7.574  10.530  0.0674 -0.0353  0.0056
22125SOL    HW171313   3.010   7.593  10.524 -0.1456 -0.9674  0.1733
22125SOL    HW271314   3.116   7.498  10.472  0.3616 -1.0725  1.3893
22126SOL     OW71315   1.392   6.077   1.600  0.3206 -0.6266  0.5612
22126SOL    HW171316   1.367   6.159   1.643  2.7478 -0.1650  1.2237
22126SOL    HW271317   1.394   6.099   1.507  0.2085 -0.1346  0.6734
22127SOL     OW71318   6.634   9.527   8.504 -0.1596 -0.0305 -0.1057
22127SOL    HW171319   6.592   9.486   8.428  1.0060 -1.7537  0.1201
22127SOL    HW271320   6.705   9.467   8.527  0.6068  1.3457  1.2828
22128SOL     OW71321   1.305   2.694   7.517  0.0516  0.1764 -0.1270
22128SOL    HW171322   1.235   2.645   7.474  0.4164  1.2887 -2.1692
22128SOL    HW271323   1.383   2.640   7.504  0.0156  0.1275 -0.1422
22129SOL     OW71324   0.254   7.594  10.280  0.2713 -0.1631 -0.4645
22129SOL    HW171325   0.301   7.652  10.339  0.3867  0.0649 -0.7793
22129SOL    HW271326   0.240   7.514  10.331  0.3305  0.0468 -0.1151
22130SOL     OW71327   7.614   4.701   2.738  0.7275 -0.2200  0.4406
22130SOL    HW171328   7.556   4.695   2.663  0.6232  0.4710  0.4575
22130SOL    HW271329   7.692   4.745   2.705  0.7157  0.0107  0.7116
22131SOL     OW71330   2.155  11.664   1.998  0.7645  0.2319 -0.1096
22131SOL    HW171331   2.235  11.640   1.953  1.5749 -1.0581  1.8807
22131SOL    HW271332   2.184  11.720   2.070  0.0888 -1.3324  1.4427
22132SOL     OW71333   0.634   2.886   2.665  0.2523  0.2281  0.7514
22132SOL    HW171334   0.592   2.806   2.698  0.7858 -0.4078 -0.0816
22132SOL    HW271335   0.613   2.887   2.572  0.1031  1.1706  0.7886
22133SOL     OW71336   9.421  10.169   0.168 -0.2250 -0.2551 -0.6381
22133SOL    HW171337   9.438  10.256   0.204 -1.1620  1.1821 -3.3439
22133SOL    HW271338   9.412  10.184   0.073  1.0498 -3.5519 -1.4110
22134SOL     OW71339   8.238   7.356   8.840 -0.2690 -0.2681  0.2203
22134SOL    HW171340   8.186   7.430   8.810 -0.0488  0.8552  2.4279
22134SOL    HW271341   8.319   7.395   8.873  0.7480 -1.7082 -0.4973
22135SOL     OW71342   9.372   4.458   7.504  0.6986 -0.0036 -0.0045
22135SOL    HW171343   9.365   4.532   7.565 -0.1875  0.8167 -1.0816
22135SOL    HW271344   9.466   4.440   7.501  1.0804  1.8673 -0.6279
22136SOL     OW71345  10.865   0.087   6.273  0.1737  0.2306 -0.5457
22136SOL    HW171346  10.860  -0.000   6.234  0.3338 -0.0987  0.1638
22136SOL    HW271347  10.926   0.135   6.217 -0.4111  0.0984 -1.3206
22137SOL     OW71348   4.825   1.716   0.976 -0.6815  0.1709  0.1402
22137SOL    HW171349   4.873   1.666   1.042 -2.0500 -1.1101  0.2262
22137SOL    HW271350   4.891   1.771   0.935  0.5495 -0.3752  1.3072
22138SOL     OW71351   4.031   7.264   6.284  0.4646  0.2057 -0.3569
22138SOL    HW171352   4.099   7.216   6.237  1.2878  1.9241 -1.0132
22138SOL    HW271353   4.008   7.336   6.225 -0.4053  0.8659  0.7567
22139SOL     OW71354   3.056   7.007   0.743 -0.3445  1.0247  0.2960
22139SOL    HW171355   3.030   6.959   0.821 -1.1626  0.5610 -0.2374
22139SOL    HW271356   3.142   7.044   0.763 -0.0180 -0.0799  0.9705
22140SOL     OW71357  10.224  10.630   7.285  0.6175 -0.2807  0.3153
22140SOL    HW171358  10.255  10.699   7.345  1.4658 -1.0344  0.7682
22140SOL    HW271359  10.271  10.552   7.313  1.4618 -0.5367 -1.6922
22141SOL     OW71360  10.830   7.781   6.569 -0.3650  0.3204  0.8333
22141SOL    HW171361  10.820   7.876   6.571 -0.4111  0.4181 -1.6953
22141SOL    HW271362  10.913   7.765   6.615  0.6420  1.7723 -0.3972
22142SOL     OW71363   7.714  11.233   4.907  0.3583 -0.3675 -0.3693
22142SOL    HW171364   7.782  11.284   4.862  0.6126 -0.0675  0.3382
22142SOL    HW271365   7.761  11.162   4.950  0.2909  0.1248  0.5303
22143SOL     OW71366   0.606   0.328  11.491  0.1618  0.1613  0.7597
22143SOL    HW171367   0.650   0.260  11.441 -0.0525  0.8242 -0.3786
22143SOL    HW271368   0.608   0.405  11.433 -1.6140  0.4746  1.0649
22144SOL     OW71369   9.367   3.875   2.234  0.4466 -0.8060  0.0296
22144SOL    HW171370   9.425   3.829   2.295  1.4626 -0.3184 -0.5284
22144SOL    HW271371   9.390   3.840   2.148  0.2455 -0.2668 -0.2491
22145SOL     OW71372   8.045   5.279   4.324  0.4348 -0.1252 -0.2456
22145SOL    HW171373   8.094   5.359   4.304  0.4097 -0.4290 -1.5708
22145SOL    HW271374   8.113   5.215   4.348  0.5044  0.0731  0.1048
22146SOL     OW71375   5.621   3.774   4.836  0.0016  0.4924 -0.3045
22146SOL    HW171376   5.664   3.850   4.797 -0.1617  1.4688  1.3393
22146SOL    HW271377   5.639   3.781   4.930 -1.7483 -0.3648  0.1444
22147SOL     OW71378   4.036   6.871   9.257 -0.1447 -0.9235  0.0569
22147SOL    HW171379   4.021   6.965   9.244 -2.6852 -1.5010 -2.2398
22147SOL    HW271380   3.970   6.845   9.322 -0.5434 -1.3493 -0.5036
22148SOL     OW71381   9.364  10.805  11.073 -0.2990 -0.3262 -0.3311
22148SOL    HW171382   9.354  10.727  11.129  1.1752  0.0370  0.4863
22148SOL    HW271383   9.277  10.843  11.070 -0.3896 -0.2153  1.9766
22149SOL     OW71384   6.116   5.199   8.980 -0.2458 -0.5204  0.4329
22149SOL    HW171385   6.155   5.262   8.919 -0.1321  0.1208  1.1689
22149SOL    HW271386   6.036   5.241   9.010 -0.1645 -0.7263  0.9372
22150SOL     OW71387   4.154   1.478   4.087 -0.2574 -0.3347 -0.4810
22150SOL    HW171388   4.069   1.465   4.128 -0.3155  0.9583 -0.1570
22150SOL    HW271389   4.159   1.410   4.019 -1.3888 -0.6394 -0.2741
22151SOL     OW71390   2.899  10.502   8.497 -0.3481  0.1665 -0.3556
22151SOL    HW171391   2.907  10.407   8.506 -0.7661  0.0115 -1.3944
22151SOL    HW271392   2.978  10.528   8.449  0.4375  0.5505  1.1054
22152SOL     OW71393   5.976  10.418  10.063  0.0031  0.0046 -0.1966
22152SOL    HW171394   5.905  10.455  10.011  0.0482  0.4225  0.0325
22152SOL    HW271395   5.976  10.325  10.042 -2.0940 -0.4539  1.4742
22153SOL     OW71396   2.096   8.112   6.545 -0.1606 -0.2584  0.6447
22153SOL    HW171397   2.140   8.086   6.464  0.3923 -1.6341  1.3471
22153SOL    HW271398   2.164   8.106   6.612 -0.7728  0.2043  1.3203
22154SOL     OW71399   5.627   6.337   9.977  1.2187 -0.2355 -0.3464
22154SOL    HW171400   5.586   6.253   9.955  1.5059 -0.2088 -0.9921
22154SOL    HW271401   5.714   6.314  10.009  1.5074 -0.1447 -1.0687
22155SOL     OW71402   4.098   8.362   9.857 -0.0943  0.1165  0.5615
22155SOL    HW171403   4.132   8.394   9.941  1.8265 -1.7737  0.6022
22155SOL    HW271404   4.151   8.284   9.838  1.2778  1.7961 -3.6284
22156SOL     OW71405   2.191   6.434   9.492 -0.6368 -0.4086  0.1421
22156SOL    HW171406   2.206   6.464   9.582 -0.2651 -1.5094  0.4623
22156SOL    HW271407   2.151   6.509   9.448 -0.7410  0.1745  1.1996
22157SOL     OW71408   9.455   7.763   6.102 -0.1763 -0.3443 -0.3483
22157SOL    HW171409   9.440   7.843   6.051  2.5075  1.5432  1.4898
22157SOL    HW271410   9.511   7.709   6.047 -1.3309 -0.6031 -1.2900
22158SOL     OW71411   8.576   9.961   0.558 -0.2859 -0.1998 -0.3810
22158SOL    HW171412   8.602  10.053   0.551 -0.7754  0.2148  2.1744
22158SOL    HW271413   8.570   9.945   0.653  0.4865 -3.0830 -0.7119
22159SOL     OW71414   6.407   6.557   7.809  0.2999  0.3803 -0.3194
22159SOL    HW171415   6.439   6.553   7.719 -1.5777  2.3217 -1.1395
22159SOL    HW271416   6.355   6.477   7.820 -0.3466  0.6530 -1.3307
22160SOL     OW71417   0.039   4.363   4.146 -0.3225 -0.5664 -0.1447
22160SOL    HW171418  -0.025   4.425   4.180  0.0964 -0.3315  0.2367
22160SOL    HW271419   0.019   4.281   4.190 -0.8688 -0.7016 -0.6396
22161SOL     OW71420   3.031   6.699   7.819  0.1600  0.9543  0.0068
22161SOL    HW171421   2.991   6.720   7.903  0.9040 -0.9700  0.9228
22161SOL    HW271422   3.119   6.669   7.842  0.4968  0.7161 -1.5000
22162SOL     OW71423   2.663   9.097   9.863 -0.1915  0.6580 -0.0279
22162SOL    HW171424   2.666   9.006   9.892 -0.5327 -0.2266 -2.5224
22162SOL    HW271425   2.754   9.127   9.871 -0.2105  0.3961  1.5321
22163SOL     OW71426   4.489   9.462   4.458 -0.3512  0.0882  0.1030
22163SOL    HW171427   4.399   9.482   4.431 -0.0953 -0.3613 -1.1184
22163SOL    HW271428   4.478   9.402   4.532 -1.0661 -0.9445 -0.8090
22164SOL     OW71429   0.304   1.705   9.958 -0.1506  0.9546 -0.8209
22164SOL    HW171430   0.394   1.716   9.989  0.4836  1.2981 -2.6849
22164SOL    HW271431   0.257   1.780   9.995 -0.0759 -0.0130  1.3967
22165SOL     OW71432  11.109   7.267   5.428  0.2429  0.5199  0.4163
22165SOL    HW171433  11.112   7.284   5.522  0.2828 -0.7994  0.6765
22165SOL    HW271434  11.200   7.270   5.400  0.1649  1.6981  0.2560
22166SOL     OW71435   2.393   3.804   9.188 -0.2562  0.1592  0.5396
22166SOL    HW171436   2.349   3.889   9.190 -1.8080 -0.4244 -2.3440
22166SOL    HW271437   2.327   3.744   9.155  1.2051 -1.9133  1.1926
22167SOL     OW71438   7.921  11.003   2.835 -0.4234 -0.6750  0.1385
22167SOL    HW171439   7.900  11.034   2.747 -1.3359  0.1380  0.6182
22167SOL    HW271440   7.837  10.996   2.879 -0.1206 -2.6325  0.4779
22168SOL     OW71441   3.029   5.748   1.377 -0.5464 -0.3772  0.2461
22168SOL    HW171442   3.108   5.765   1.326  0.1282 -0.4889  1.2377
22168SOL    HW271443   2.998   5.663   1.345 -1.4818  0.5887 -1.6250
22169SOL     OW71444   7.392   9.878   2.148 -0.1044 -0.2161 -0.8202
22169SOL    HW171445   7.327   9.811   2.170  0.2284 -1.2909 -2.8681
22169SOL    HW271446   7.471   9.851   2.194  0.0069 -1.2194 -1.5771
22170SOL     OW71447   0.283   2.383   2.004 -0.1251  0.0638  0.4718
22170SOL    HW171448   0.243   2.323   1.941 -0.4637 -0.7043  1.3875
22170SOL    HW271449   0.376   2.365   1.998 -0.1221  0.2331 -0.0414
22171SOL     OW71450   5.149   2.607   5.715  0.0367 -0.2897 -0.6602
22171SOL    HW171451   5.166   2.519   5.749  1.3178 -0.1238 -0.8286
22171SOL    HW271452   5.101   2.592   5.633 -0.2448 -0.8095 -0.4005
22172SOL     OW71453   9.846   9.064  11.444 -0.2366  0.2266 -0.0661
22172SOL    HW171454   9.858   9.054  11.350 -1.4476 -0.1810 -0.1885
22172SOL    HW271455   9.753   9.083  11.455 -0.4226 -1.2408  1.1577
22173SOL     OW71456   0.041   9.040   5.321 -0.0220 -0.0746 -0.4088
22173SOL    HW171457   0.094   8.979   5.373 -2.0786 -1.2622  0.4042
22173SOL    HW271458   0.056   9.125   5.361  0.8588 -0.4659  0.1288
22174SOL     OW71459   3.184   1.612   9.782 -0.0330 -0.1089 -0.3600
22174SOL    HW171460   3.270   1.573   9.795 -0.7275 -1.4700  0.3663
22174SOL    HW271461   3.202   1.699   9.747  1.6638  0.0244  0.7423
22175SOL     OW71462   3.790   0.110   7.718 -0.2127  0.0057  0.5023
22175SOL    HW171463   3.863   0.162   7.750 -0.5789  0.5576  0.4668
22175SOL    HW271464   3.800   0.109   7.623  0.1752 -0.5736  0.5444
22176SOL     OW71465   9.985  10.251   7.633  0.0892  0.1195  0.0981
22176SOL    HW171466   9.979  10.159   7.660  0.5306  0.5463  1.7694
22176SOL    HW271467   9.988  10.299   7.715  1.0257  1.5623 -0.7569
22177SOL     OW71468  10.022   2.189   1.096  0.1425  0.7761  0.2689
22177SOL    HW171469   9.968   2.262   1.066  0.1018  0.8105  0.4259
22177SOL    HW271470  10.048   2.143   1.016 -2.7281 -1.1553  0.3220
22178SOL     OW71471   6.973  10.415   0.213 -0.1842 -0.2168 -0.2159
22178SOL    HW171472   6.892  10.375   0.245 -1.8717  2.0899 -1.3402
22178SOL    HW271473   7.014  10.452   0.292 -1.6168  0.8946  0.0440
22179SOL     OW71474   2.232   0.068   9.149  0.3985  0.1761  0.2555
22179SOL    HW171475   2.326   0.084   9.158  0.0385  3.3125 -0.6466
22179SOL    HW271476   2.211   0.010   9.223  2.8961 -0.1690  0.7999
22180SOL     OW71477   2.627   7.386   7.554  0.1978  0.5124  0.0848
22180SOL    HW171478   2.648   7.294   7.540 -0.7472  0.3072 -0.0648
22180SOL    HW271479   2.703   7.434   7.522 -0.0645 -0.1375 -1.5734
22181SOL     OW71480   8.704   6.347   3.310 -0.0265 -0.4710 -0.3296
22181SOL    HW171481   8.647   6.276   3.340 -0.4373  0.1126  0.3169
22181SOL    HW271482   8.778   6.345   3.371  0.6755 -1.2226 -1.1631
22182SOL     OW71483  11.063   9.943   1.701  0.4459  0.0095 -0.0629
22182SOL    HW171484  11.114  10.011   1.745  2.1541 -0.6807 -0.8797
22182SOL    HW271485  10.993   9.991   1.656  1.5205  1.2417 -0.5050
22183SOL     OW71486   6.346   7.556   2.408  0.0727 -0.2234  0.6415
22183SOL    HW171487   6.431   7.576   2.368 -0.5669 -0.8018 -1.1155
22183SOL    HW271488   6.329   7.629   2.467  0.4013  1.5055 -1.2971
22184SOL     OW71489   7.242   5.775   8.594  0.3295  0.4895 -0.2376
22184SOL    HW171490   7.287   5.858   8.612  0.2754  0.4253  0.1865
22184SOL    HW271491   7.174   5.769   8.661 -0.0888  0.4143 -0.6650
22185SOL     OW71492   9.736  10.751   3.205  0.0565 -0.0233  0.0792
22185SOL    HW171493   9.665  10.686   3.202  0.2834 -0.3409  1.0363
22185SOL    HW271494   9.788  10.734   3.127  0.3355 -1.2827  0.5110
22186SOL     OW71495   5.312   6.439   6.763 -0.4152 -0.1207 -0.5955
22186SOL    HW171496   5.220   6.433   6.738 -1.2551  4.7778  0.2712
22186SOL    HW271497   5.361   6.427   6.682 -2.3264  3.2966 -2.4602
22187SOL     OW71498  10.116   7.719   6.386  0.2406  0.4863  0.0482
22187SOL    HW171499  10.177   7.713   6.313  2.6145 -0.3976  1.9801
22187SOL    HW271500  10.105   7.629   6.417 -1.6844  0.6864  0.0925
22188SOL     OW71501  10.214   5.312  10.679 -0.0251 -0.2654  0.1135
22188SOL    HW171502  10.254   5.335  10.595 -0.8673  0.2503 -0.1669
22188SOL    HW271503  10.283   5.325  10.744 -0.2108  2.4089 -0.1143
22189SOL     OW71504   3.756   9.953   5.840  0.1385  0.0901  0.0168
22189SOL    HW171505   3.677   9.990   5.801  0.2834 -0.5921 -0.9614
22189SOL    HW271506   3.783   9.885   5.779 -0.0418 -1.5509  1.6869
22190SOL     OW71507  10.843   3.154   7.645  0.4156  0.4168  0.3320
22190SOL    HW171508  10.875   3.065   7.658  0.5967  0.5593  0.8740
22190SOL    HW271509  10.908   3.194   7.586 -0.6667 -0.3737 -1.4762
22191SOL     OW71510   0.341  10.197  11.370 -0.6192 -0.2909 -0.0380
22191SOL    HW171511   0.435  10.179  11.376 -0.7124 -1.1321 -0.8163
22191SOL    HW271512   0.309  10.133  11.306 -1.2650  1.6491 -1.7706
22192SOL     OW71513   6.340   9.088  11.628  0.3929  0.6480 -0.0707
22192SOL    HW171514   6.409   9.154  11.618 -0.6676  1.6014 -1.6689
22192SOL    HW271515   6.259   9.136  11.610 -0.6922 -0.4859  1.5775
22193SOL     OW71516   3.148   5.590   4.653 -0.0306 -0.0502 -0.1604
22193SOL    HW171517   3.078   5.655   4.663  0.6250  0.4576  1.3775
22193SOL    HW271518   3.164   5.557   4.741  1.7979 -0.0027 -0.4278
22194SOL     OW71519   8.863   8.953   0.217 -0.1917 -0.1071 -0.3607
22194SOL    HW171520   8.856   8.867   0.259  0.3164  0.4432  0.9061
22194SOL    HW271521   8.949   8.953   0.176 -0.1194 -0.1424 -0.2095
22195SOL     OW71522   2.189   5.868   8.288 -0.2476 -0.1054  0.2347
22195SOL    HW171523   2.177   5.776   8.310 -0.3441  0.0785  0.9841
22195SOL    HW271524   2.271   5.893   8.331 -1.3965  0.7538  2.0993
22196SOL     OW71525   2.105   1.570  10.066 -0.5866 -0.0315 -0.1743
22196SOL    HW171526   2.117   1.661  10.094 -1.8024  0.7157 -1.9162
22196SOL    HW271527   2.015   1.566  10.035 -0.2813 -1.6023 -0.9375
22197SOL     OW71528   5.066   8.484  11.070  0.0940  0.5835  0.0725
22197SOL    HW171529   4.972   8.504  11.063  0.2779  0.9542 -1.8221
22197SOL    HW271530   5.108   8.569  11.080  0.3640  0.6050 -1.1408
22198SOL     OW71531   9.326   0.699  10.787  0.3261  0.2587 -0.3203
22198SOL    HW171532   9.289   0.637  10.724  1.0496 -0.0585 -0.4479
22198SOL    HW271533   9.384   0.755  10.734  0.5920  0.2799 -0.0080
22199SOL     OW71534   7.276   6.825   5.807 -0.2565 -0.4700 -0.1274
22199SOL    HW171535   7.205   6.886   5.827  0.4026 -0.2515  1.7217
22199SOL    HW271536   7.356   6.871   5.832  0.5004 -0.9799 -1.5036
22200SOL     OW71537   0.974   9.487   9.657  0.0361  0.4339  0.4595
22200SOL    HW171538   1.041   9.419   9.655 -1.8590 -1.5248 -0.8991
22200SOL    HW271539   1.002   9.547   9.726  3.2852 -0.1203 -0.2329
22201SOL     OW71540   8.093   1.353   3.725 -0.4111  0.5239 -0.2741
22201SOL    HW171541   8.054   1.360   3.637 -0.5568 -1.6541 -0.4337
22201SOL    HW271542   8.051   1.276   3.764  1.1422  0.2213  0.9148
22202SOL     OW71543   3.275   3.962   1.331 -0.0310 -0.3078  0.1157
22202SOL    HW171544   3.342   4.024   1.303  0.3082 -0.6817  0.0818
22202SOL    HW271545   3.311   3.924   1.412  0.1506 -1.0571 -0.3056
22203SOL     OW71546   4.676  11.118   8.771 -0.4640  0.1104 -0.1494
22203SOL    HW171547   4.723  11.045   8.810 -0.7239 -0.4574 -0.8746
22203SOL    HW271548   4.742  11.164   8.719 -0.0751  0.9741  1.0595
22204SOL     OW71549   3.123   2.427  10.891  0.5592 -0.0411 -0.5520
22204SOL    HW171550   3.054   2.482  10.929 -0.8938 -1.3223 -1.2145
22204SOL    HW271551   3.189   2.489  10.861 -1.4960  1.5045 -2.2506
22205SOL     OW71552   4.457   7.566   1.885 -0.2206  0.1213 -0.4520
22205SOL    HW171553   4.527   7.622   1.851  1.1751 -0.9906  0.4833
22205SOL    HW271554   4.395   7.627   1.926  2.3237  0.9210  2.5035
22206SOL     OW71555   1.645   2.518   6.383 -0.0648  0.5724 -0.5340
22206SOL    HW171556   1.666   2.540   6.474  0.4155 -1.0433 -0.2267
22206SOL    HW271557   1.563   2.564   6.366  0.1420  1.3737  0.5156
22207SOL     OW71558   5.680   7.676   3.296  0.2688 -0.0389 -0.0309
22207SOL    HW171559   5.684   7.582   3.315 -1.6125  0.1134  1.4208
22207SOL    HW271560   5.752   7.714   3.347  0.2820 -0.5572  0.3473
22208SOL     OW71561   9.274   2.496  10.373 -0.4989 -0.1747  0.7988
22208SOL    HW171562   9.320   2.487  10.457 -1.5164 -1.4176  1.2641
22208SOL    HW271563   9.341   2.526  10.312  0.9583 -1.9135  1.4390
22209SOL     OW71564   6.934   8.380   6.179 -0.2617  0.3528  0.4027
22209SOL    HW171565   7.012   8.377   6.235  0.1528  0.0972 -0.1867
22209SOL    HW271566   6.914   8.474   6.173  0.5851  0.5058 -0.2379
22210SOL     OW71567   7.086   3.675   1.270  0.1361 -0.1635  0.1328
22210SOL    HW171568   7.126   3.727   1.200 -1.2954 -2.0328 -2.2428
22210SOL    HW271569   7.104   3.585   1.245 -0.8960 -0.9151  1.9488
22211SOL     OW71570   2.909   8.076   6.669 -0.2378  0.1556  0.9097
22211SOL    HW171571   2.926   8.009   6.735 -0.2341 -1.2384 -0.4377
22211SOL    HW271572   2.992   8.124   6.662 -0.4339  0.7748  2.3373
22212SOL     OW71573   5.509   4.588   9.839 -0.3357  0.4435  0.6443
22212SOL    HW171574   5.545   4.676   9.850 -0.3532  0.4740  0.4630
22212SOL    HW271575   5.578   4.539   9.795 -0.8667  0.7642 -0.5923
22213SOL     OW71576   6.787   7.175   7.562  0.4156 -0.7767  0.5401
22213SOL    HW171577   6.791   7.099   7.504  1.0707 -1.1282  1.0266
22213SOL    HW271578   6.878   7.189   7.589  0.4775  0.8858 -0.4376
22214SOL     OW71579   1.926  11.321   5.950  0.2390  0.5684 -0.0178
22214SOL    HW171580   1.889  11.275   6.025 -0.7758  1.2919 -0.0513
22214SOL    HW271581   2.003  11.269   5.926  0.1519 -0.0942  1.0434
22215SOL     OW71582   9.339  10.798   4.119 -0.2695  0.8502 -0.1677
22215SOL    HW171583   9.299  10.848   4.191 -3.1320 -0.8207 -0.4215
22215SOL    HW271584   9.421  10.765   4.155 -0.6220  1.8041  1.6081
22216SOL     OW71585   9.476  11.152   9.576  0.0267 -0.4814  0.5342
22216SOL    HW171586   9.499  11.220   9.639  1.1521  1.3874 -1.7206
22216SOL    HW271587   9.555  11.099   9.566 -0.0934 -0.6692  0.5653
22217SOL     OW71588   2.098   2.145   7.488 -0.4172 -0.5540 -0.1572
22217SOL    HW171589   2.174   2.134   7.431  1.2711  0.3268  1.8097
22217SOL    HW271590   2.050   2.218   7.448  0.5999 -0.0930 -0.5888
22218SOL     OW71591   5.537   2.500   5.675 -0.1630  0.3625 -0.2777
22218SOL    HW171592   5.484   2.438   5.625  0.8689  0.0815 -1.0584
22218SOL    HW271593   5.627   2.480   5.650  0.3598  0.5646  1.3117
22219SOL     OW71594   5.436   3.432   4.811  0.1265 -1.0449 -0.4980
22219SOL    HW171595   5.385   3.380   4.747 -0.0569 -1.3240 -0.1289
22219SOL    HW271596   5.370   3.465   4.872  0.4520 -2.0901  0.4707
22220SOL     OW71597   9.712   3.337   6.131 -0.2560  0.0701 -0.6235
22220SOL    HW171598   9.740   3.375   6.048 -2.4339 -0.4467 -1.6611
22220SOL    HW271599   9.708   3.243   6.114 -1.2118  0.0056 -0.1297
22221SOL     OW71600   8.408   8.218   0.746 -0.4551  0.9229  0.3236
22221SOL    HW171601   8.424   8.287   0.810 -0.2278  2.0259 -0.8884
22221SOL    HW271602   8.370   8.263   0.671  0.0015 -0.2237 -0.6283
22222SOL     OW71603   4.598   8.000   1.993 -0.3057  0.6128 -0.4837
22222SOL    HW171604   4.580   8.092   2.012  1.4984  1.0201 -0.5183
22222SOL    HW271605   4.681   8.001   1.945 -0.7864 -0.9668 -1.4479
22223SOL     OW71606   8.237  10.614   2.804 -0.8206 -0.3602 -0.2711
22223SOL    HW171607   8.173  10.672   2.764  0.2078 -0.2789 -1.8743
22223SOL    HW271608   8.286  10.577   2.731  1.3789  0.0506  0.8898
22224SOL     OW71609   6.344   0.919   9.071 -0.2377  0.3933  0.1749
22224SOL    HW171610   6.274   0.854   9.066  0.0085 -0.0164  1.7524
22224SOL    HW271611   6.421   0.869   9.099  0.5233  0.9796 -0.7871
22225SOL     OW71612   7.103   4.008   9.147  0.4271 -0.5432 -0.3401
22225SOL    HW171613   7.045   3.975   9.216 -2.0199 -1.7493 -2.7664
22225SOL    HW271614   7.103   4.103   9.159  0.4229 -0.7445  1.5340
22226SOL     OW71615  10.680   7.892   1.435 -0.0227 -0.1875  0.2841
22226SOL    HW171616  10.675   7.984   1.408 -0.8774 -0.1661  0.4694
22226SOL    HW271617  10.737   7.851   1.370 -1.2502  0.0640 -1.0119
22227SOL     OW71618   1.410   0.458   6.943 -1.0172  0.2383  0.8761
22227SOL    HW171619   1.381   0.367   6.946  1.2821 -0.7697 -2.0000
22227SOL    HW271620   1.497   0.457   6.982 -0.1683  0.7166 -0.8749
22228SOL     OW71621  11.326   4.083   0.740 -0.0454  0.4280  0.2822
22228SOL    HW171622  11.244   4.060   0.784 -0.2213  0.1468 -0.1867
22228SOL    HW271623  11.391   4.084   0.810 -0.2319 -0.4941  0.4895
22229SOL     OW71624   2.249   8.046   4.862  0.3795 -0.6246  0.3810
22229SOL    HW171625   2.230   8.079   4.774 -0.1702 -0.9219  0.3897
22229SOL    HW271626   2.247   7.951   4.853  0.6096 -0.6558  0.6576
22230SOL     OW71627   1.729   3.030   4.325  0.3533  0.3694  0.2609
22230SOL    HW171628   1.652   3.018   4.270  0.0458  0.4532  0.6687
22230SOL    HW271629   1.768   3.112   4.296 -0.0162  0.5985  0.4242
22231SOL     OW71630   1.695   8.246   5.203 -0.0917 -0.3719  0.1203
22231SOL    HW171631   1.605   8.264   5.231 -0.4540 -1.1117 -0.5229
22231SOL    HW271632   1.691   8.245   5.107  0.2122 -2.2046  0.0857
22232SOL     OW71633   7.168   6.029  10.219 -0.0430  0.0212 -0.7168
22232SOL    HW171634   7.165   5.981  10.302 -0.7060 -1.4498 -1.5533
22232SOL    HW271635   7.098   5.991  10.166  1.1541  0.0423 -2.4114
22233SOL     OW71636   3.931   2.304   2.619 -0.1562 -0.3182 -0.3597
22233SOL    HW171637   3.892   2.297   2.531 -0.1120 -1.7601 -0.2829
22233SOL    HW271638   3.956   2.396   2.626 -0.5374 -0.0816 -1.6998
22234SOL     OW71639  10.002   6.650   4.852  0.0952 -0.4605 -0.0670
22234SOL    HW171640   9.918   6.635   4.895  0.3811 -2.8689 -0.2596
22234SOL    HW271641   9.979   6.682   4.764 -0.5766 -0.2747  0.1688
22235SOL     OW71642  10.703  10.076  11.184  1.0580 -0.6189  0.2522
22235SOL    HW171643  10.698  10.086  11.279  0.7177  0.1235  0.1604
22235SOL    HW271644  10.617  10.040  11.160  0.5332  0.7073  0.0556
22236SOL     OW71645   1.719   2.762   2.543 -0.2704 -0.5258 -0.0804
22236SOL    HW171646   1.803   2.722   2.564 -0.0828 -0.6251 -0.9834
22236SOL    HW271647   1.689   2.716   2.464 -1.5251 -1.0018  0.6358
22237SOL     OW71648   3.852   2.473   2.227  0.3321  0.3479 -0.1695
22237SOL    HW171649   3.815   2.489   2.314  1.5365 -0.7348  0.5801
22237SOL    HW271650   3.790   2.514   2.167  0.3877  2.7217  1.2723
22238SOL     OW71651   0.698   6.460  10.480 -0.4942  0.3532 -0.2028
22238SOL    HW171652   0.622   6.518  10.479 -0.4642  0.4137  0.5605
22238SOL    HW271653   0.772   6.516  10.503 -0.8906 -0.4126  3.5532
22239SOL     OW71654   5.028  11.175   3.282 -0.4139 -0.5293 -0.1160
22239SOL    HW171655   4.996  11.167   3.193  0.2526 -0.4245 -0.3707
22239SOL    HW271656   5.007  11.091   3.323 -1.3910 -0.3098 -0.1369
22240SOL     OW71657   3.179   5.534  10.833 -0.7000  0.3537  1.1034
22240SOL    HW171658   3.091   5.521  10.798 -0.4758 -1.0800  0.9967
22240SOL    HW271659   3.205   5.621  10.802 -1.6159  0.3060  0.1529
22241SOL     OW71660   5.511   6.353   2.431 -0.0930  0.5767  0.2997
22241SOL    HW171661   5.579   6.407   2.470 -1.1358  0.9499  1.7179
22241SOL    HW271662   5.558   6.283   2.386  1.2478  2.0407 -0.6377
22242SOL     OW71663   3.659   3.110   2.084 -0.0248 -0.2850 -0.1250
22242SOL    HW171664   3.642   3.203   2.098 -0.1623 -0.4690  1.0445
22242SOL    HW271665   3.716   3.108   2.007 -0.4888  0.7175 -0.5278
22243SOL     OW71666   3.736   3.341   4.514 -0.7198 -0.7302  0.3974
22243SOL    HW171667   3.730   3.436   4.503  0.4609 -0.3074  2.8202
22243SOL    HW271668   3.756   3.308   4.426  0.4202  1.4301 -0.2292
22244SOL     OW71669   2.194   7.312   3.758 -0.2083  0.0203 -0.3132
22244SOL    HW171670   2.140   7.237   3.782  0.6991 -0.7420 -0.6134
22244SOL    HW271671   2.166   7.382   3.817 -0.2852 -0.8748  0.7254
22245SOL     OW71672   3.438   9.523  11.480 -0.8153  0.4589  0.7658
22245SOL    HW171673   3.464   9.438  11.517  0.1650  0.9111  1.1502
22245SOL    HW271674   3.510   9.582  11.503 -0.6736  1.0037 -0.9858
22246SOL     OW71675  10.098   5.587   9.093 -0.5328  0.0448  0.2292
22246SOL    HW171676  10.111   5.545   9.008 -2.2707 -0.4509  0.1560
22246SOL    HW271677  10.063   5.674   9.071  1.3360  0.8943  0.4229
22247SOL     OW71678   1.387   0.665   1.837  0.4700  0.0664 -0.1961
22247SOL    HW171679   1.298   0.686   1.811  0.2795 -0.8379 -0.2941
22247SOL    HW271680   1.385   0.572   1.858  1.0248  0.3600  1.3332
22248SOL     OW71681   1.910   3.094   1.887 -0.2666  0.3538  0.0653
22248SOL    HW171682   1.877   3.013   1.849 -1.1299 -0.0133  1.5232
22248SOL    HW271683   1.849   3.161   1.855  0.5966  0.5058 -1.3482
22249SOL     OW71684  11.212   5.337   0.801  0.2441 -0.7107  0.2883
22249SOL    HW171685  11.188   5.410   0.744 -0.5394 -0.9761  0.2612
22249SOL    HW271686  11.222   5.377   0.887  1.2310 -0.3408  0.0120
22250SOL     OW71687   2.966   2.614   9.847  0.3375  0.0997 -0.5075
22250SOL    HW171688   2.945   2.708   9.843 -2.5646 -0.4429 -0.2155
22250SOL    HW271689   2.917   2.576   9.774  0.1925 -1.3813  0.3315
22251SOL     OW71690  11.395   3.865   2.978 -0.4255  0.1690  0.0354
22251SOL    HW171691  11.430   3.954   2.967  0.0681 -0.3254 -3.8496
22251SOL    HW271692  11.467   3.816   3.019  0.2731  0.9891 -0.1791
22252SOL     OW71693   1.028  10.796   3.031 -0.1419  0.6340 -0.0710
22252SOL    HW171694   1.079  10.859   2.980 -0.2693  0.3526 -0.5482
22252SOL    HW271695   1.060  10.711   3.003 -0.2524  0.4729  0.2838
22253SOL     OW71696   9.746   0.493   2.137 -0.5170 -0.0132 -0.0450
22253SOL    HW171697   9.829   0.538   2.157  0.5977 -2.4686  1.4189
22253SOL    HW271698   9.756   0.406   2.177 -3.1545 -1.0135 -1.3110
22254SOL     OW71699  11.327  11.581   4.000  0.4661  0.0932 -0.0631
22254SOL    HW171700  11.289  11.615   3.918 -0.4010  0.2934  0.4074
22254SOL    HW271701  11.257  11.529   4.039  0.8572  0.0361  0.5789
22255SOL     OW71702   6.887   6.331   0.395  0.5257  0.4339 -0.2082
22255SOL    HW171703   6.804   6.297   0.362  1.2113 -0.9380 -0.5913
22255SOL    HW271704   6.951   6.264   0.372  1.4846  0.7202  1.4774
22256SOL     OW71705   7.474   8.328   6.315 -0.2892 -0.5027 -0.3644
22256SOL    HW171706   7.482   8.233   6.322  0.4418 -0.3429  1.4397
22256SOL    HW271707   7.434   8.355   6.397  0.3111  0.8358 -0.4905
22257SOL     OW71708   7.202   4.142   7.650  0.4605 -0.1944 -0.3230
22257SOL    HW171709   7.148   4.167   7.575  0.4021 -1.7710 -0.8410
22257SOL    HW271710   7.246   4.223   7.675 -2.1244  1.1846  0.1498
22258SOL     OW71711   5.253   8.103   6.314  1.2281  0.2633 -0.4672
22258SOL    HW171712   5.239   8.196   6.293  2.4539  1.2697  2.5135
22258SOL    HW271713   5.337   8.103   6.360  0.9723 -2.2656  0.1019
22259SOL     OW71714   4.249   0.049   9.156  0.9393 -0.3698 -0.2548
22259SOL    HW171715   4.175   0.021   9.102 -0.4527  3.2107 -0.5417
22259SOL    HW271716   4.236   0.005   9.240 -2.0298  0.5732 -0.0773
22260SOL     OW71717   1.593   1.196   8.525 -0.2551 -0.5553 -0.0855
22260SOL    HW171718   1.683   1.215   8.497 -0.4718 -0.5532 -0.7974
22260SOL    HW271719   1.550   1.281   8.526 -0.0431 -0.4507  1.0291
22261SOL     OW71720   0.901   3.630   2.708  0.1020  0.1281  0.3538
22261SOL    HW171721   0.935   3.548   2.743 -0.8925 -0.0853  0.8642
22261SOL    HW271722   0.809   3.631   2.734 -0.5239  0.2730 -1.6866
22262SOL     OW71723   6.421   3.315   6.835 -0.2679 -0.7370  0.5631
22262SOL    HW171724   6.438   3.343   6.926 -1.2753 -2.1599  1.2234
22262SOL    HW271725   6.407   3.221   6.841 -0.0711 -0.9009 -1.1403
22263SOL     OW71726   5.224   2.217   9.032  0.0966 -0.5557 -0.3755
22263SOL    HW171727   5.159   2.244   8.968 -0.0358 -0.2229 -0.0999
22263SOL    HW271728   5.202   2.126   9.052 -2.6558  0.5976  2.5646
22264SOL     OW71729   7.769   2.273   0.054 -0.1514 -0.4752 -0.0713
22264SOL    HW171730   7.864   2.275   0.066 -0.2299 -2.0476  1.0272
22264SOL    HW271731   7.757   2.247  -0.037  0.4953 -2.0487  0.2680
22265SOL     OW71732   1.891   1.945   6.142 -0.9780 -0.3780  0.2803
22265SOL    HW171733   1.919   2.009   6.207 -1.2487 -0.3662  0.3860
22265SOL    HW271734   1.838   1.995   6.080 -1.2874 -0.5182  0.4272
22266SOL     OW71735   1.831   8.645   7.276 -0.3622  0.9533 -0.5936
22266SOL    HW171736   1.748   8.616   7.312  0.0465 -2.5582 -2.0343
22266SOL    HW271737   1.894   8.633   7.347 -0.7426  1.5093 -0.1647
22267SOL     OW71738   7.847   5.500   9.079 -0.0756  0.5724 -0.4331
22267SOL    HW171739   7.833   5.591   9.053 -0.3301  0.6767  0.0681
22267SOL    HW271740   7.784   5.484   9.149 -0.1644 -0.0486 -0.6416
22268SOL     OW71741   2.719   5.749   6.699 -1.6493 -0.1293  0.0040
22268SOL    HW171742   2.811   5.740   6.673 -1.5186  0.5384  0.2076
22268SOL    HW271743   2.716   5.830   6.751 -2.6079  0.6921 -1.2554
22269SOL     OW71744   0.465   5.650   7.911  0.4383 -0.7582 -0.3547
22269SOL    HW171745   0.416   5.600   7.976  0.4461 -0.3903 -0.0692
22269SOL    HW271746   0.398   5.687   7.853  0.3003  0.6304  0.6572
22270SOL     OW71747  10.194  10.152  10.606 -0.6262 -0.0288 -0.2959
22270SOL    HW171748  10.099  10.143  10.604 -0.6030 -0.1912 -1.2015
22270SOL    HW271749  10.219  10.127  10.695 -1.5065  0.9585  0.2447
22271SOL     OW71750   3.285   5.834   2.717 -0.3503  0.7767  0.7003
22271SOL    HW171751   3.206   5.881   2.743  0.1342  1.6598  0.5974
22271SOL    HW271752   3.309   5.872   2.632 -0.0437  0.2265  0.5352
22272SOL     OW71753   1.937   2.110   8.578 -0.2107 -0.1410 -0.1300
22272SOL    HW171754   2.000   2.099   8.649 -0.3072 -0.6378 -0.1184
22272SOL    HW271755   1.980   2.073   8.501  0.0746  0.8077 -0.4346
22273SOL     OW71756   1.803   1.640   6.647 -0.1673  0.0170  0.2718
22273SOL    HW171757   1.890   1.602   6.639 -0.2496  0.0225 -0.7352
22273SOL    HW271758   1.814   1.713   6.709  0.5839  0.1499 -0.0096
22274SOL     OW71759   0.666   7.546   5.320  0.4249 -0.0664  0.3315
22274SOL    HW171760   0.673   7.569   5.228  0.1250  0.4012  0.4244
22274SOL    HW271761   0.647   7.628   5.364 -1.8309 -0.6410  0.5374
22275SOL     OW71762  10.739  10.269   7.761  0.2056 -0.0834  0.1154
22275SOL    HW171763  10.743  10.363   7.748  1.2096 -0.2946 -1.3869
22275SOL    HW271764  10.785  10.253   7.843 -2.1278  0.9164  1.7260
22276SOL     OW71765  11.237   6.491   2.164  0.4880 -0.5368  0.0047
22276SOL    HW171766  11.175   6.452   2.103 -0.0332  0.3516 -0.0512
22276SOL    HW271767  11.322   6.481   2.121  0.1234  0.1208 -0.9001
22277SOL     OW71768  11.274   6.607   1.840 -0.3715 -0.4066  0.8591
22277SOL    HW171769  11.307   6.588   1.752 -0.3846 -2.6350  1.2688
22277SOL    HW271770  11.270   6.702   1.844 -0.7951 -0.2495 -1.6939
22278SOL     OW71771   5.047   1.151   8.837  0.0823 -0.0681 -0.1760
22278SOL    HW171772   4.999   1.231   8.816  0.0390 -0.4947 -1.7898
22278SOL    HW271773   5.129   1.158   8.789  1.4016  0.3185  1.9998
22279SOL     OW71774   6.893   7.978   2.869  0.0928  0.2444  0.4723
22279SOL    HW171775   6.845   8.016   2.795 -1.8153  0.8912  1.9943
22279SOL    HW271776   6.892   7.884   2.852 -1.3683  0.2815  0.2602
22280SOL     OW71777   3.070   9.092   4.500 -0.2736 -0.0995  0.0742
22280SOL    HW171778   3.127   9.169   4.497 -1.4499  0.7829 -0.6487
22280SOL    HW271779   3.110   9.030   4.439 -0.3230  0.6885 -0.7833
22281SOL     OW71780   6.912  11.194   0.483  0.2815  0.2845 -0.6435
22281SOL    HW171781   6.989  11.179   0.539 -0.5650  0.3884  0.5925
22281SOL    HW271782   6.921  11.285   0.454  0.5892  0.3212 -0.4376
22282SOL     OW71783   1.235   6.960   9.773  0.2803 -0.5694 -0.8311
22282SOL    HW171784   1.212   6.867   9.772 -1.0677 -0.2579 -1.3023
22282SOL    HW271785   1.178   6.999   9.707  1.1867  0.5157 -0.9914
22283SOL     OW71786   6.397  10.174   8.161  0.2858 -0.0370 -0.6860
22283SOL    HW171787   6.456  10.208   8.094  1.1656 -0.6726 -0.2453
22283SOL    HW271788   6.311  10.207   8.135  0.5229 -0.6337 -2.4129
22284SOL     OW71789   2.285   0.829   0.592 -0.0285 -0.3110 -0.0042
22284SOL    HW171790   2.232   0.804   0.667  2.2133 -2.2170  1.0965
22284SOL    HW271791   2.342   0.898   0.625 -0.8035  0.7170 -0.7574
22285SOL     OW71792   1.118   8.154  11.617  0.5668  0.3804 -0.2857
22285SOL    HW171793   1.092   8.075  11.569  3.4806 -0.0153 -1.3688
22285SOL    HW271794   1.073   8.145  11.701 -0.1377 -1.8413 -0.8118
22286SOL     OW71795   7.769   2.916   7.137  0.0585  0.0278  0.0200
22286SOL    HW171796   7.757   2.970   7.059 -1.3304 -1.0997 -0.6079
22286SOL    HW271797   7.817   2.839   7.106 -1.7754 -1.1256 -0.1129
22287SOL     OW71798   6.197   9.301   9.729 -0.0095 -0.2728  0.4033
22287SOL    HW171799   6.199   9.363   9.802  1.1622 -1.3373  1.3196
22287SOL    HW271800   6.247   9.344   9.659  0.1028  0.1496  0.7404
22288SOL     OW71801  10.555  10.279   3.017  0.4715  0.7035 -0.0278
22288SOL    HW171802  10.628  10.266   2.956  0.4582 -0.4885  0.1966
22288SOL    HW271803  10.494  10.209   2.996 -0.0711  0.9902  0.5814
22289SOL     OW71804  11.604   8.429   9.637 -0.4603  0.3681  0.2696
22289SOL    HW171805  11.634   8.359   9.578  0.1491  0.6938  0.1953
22289SOL    HW271806  11.592   8.385   9.721 -1.9451 -0.2428 -0.2133
22290SOL     OW71807   1.267   2.524   1.025  0.3437 -0.1688 -0.7853
22290SOL    HW171808   1.188   2.477   0.997 -0.3635  0.5833 -0.1233
22290SOL    HW271809   1.298   2.475   1.101 -0.6233  0.6363  0.1508
22291SOL     OW71810  11.340   6.986   6.055  0.0379  0.3908  0.2357
22291SOL    HW171811  11.288   7.060   6.024 -0.6178 -0.6721 -1.3555
22291SOL    HW271812  11.276   6.915   6.065  0.8997 -0.4316  0.0490
22292SOL     OW71813   1.299   8.883  11.436  0.2755  0.6617  0.2470
22292SOL    HW171814   1.254   8.967  11.433 -2.2349 -0.3682  3.7545
22292SOL    HW271815   1.325   8.872  11.527  2.9405 -1.2617 -0.6252
22293SOL     OW71816   7.350   4.225   0.722  0.6520  0.2712 -0.8339
22293SOL    HW171817   7.277   4.170   0.691  0.5806  0.4284 -0.9455
22293SOL    HW271818   7.315   4.271   0.798  0.5628  0.5216 -1.0273
22294SOL     OW71819  11.337   0.437   0.233  0.4009  0.2163 -0.2173
22294SOL    HW171820  11.395   0.393   0.294  2.2382  1.8555 -0.6972
22294SOL    HW271821  11.291   0.502   0.285 -1.0080 -1.0211  0.1445
22295SOL     OW71822   6.247   4.861   7.772 -0.0097  0.5151  0.2967
22295SOL    HW171823   6.256   4.771   7.801 -0.7176 -0.0193 -1.0796
22295SOL    HW271824   6.336   4.897   7.776  0.5855 -0.7754 -0.8123
22296SOL     OW71825   4.103   6.987   1.831  0.0919 -0.6987  0.1279
22296SOL    HW171826   4.116   7.060   1.771 -1.4934 -0.0447  0.5287
22296SOL    HW271827   4.149   7.012   1.911  2.1001 -1.5164 -0.7223
22297SOL     OW71828   8.305   1.663   6.450 -0.3382  0.2473 -0.2753
22297SOL    HW171829   8.298   1.623   6.363 -3.0672 -0.0054 -0.0306
22297SOL    HW271830   8.309   1.757   6.433  0.9860  0.1391 -0.6905
22298SOL     OW71831   1.215   6.266   2.964  0.4526 -0.1632  0.1243
22298SOL    HW171832   1.140   6.314   2.929 -0.3857 -0.9932  0.7326
22298SOL    HW271833   1.250   6.218   2.890  1.5377  1.6230 -0.5883
22299SOL     OW71834  11.047   9.014  11.144 -0.4230  0.1205 -0.3229
22299SOL    HW171835  10.989   9.015  11.221 -0.9699 -0.4609 -0.7224
22299SOL    HW271836  11.082   8.925  11.141  0.7704  0.5521  0.1038
22300SOL     OW71837   7.920   7.747   8.287  0.0119  0.1355 -0.2585
22300SOL    HW171838   7.895   7.800   8.211 -1.1092  0.1166  0.0834
22300SOL    HW271839   8.007   7.779   8.311 -0.2272  1.1233 -0.6697
22301SOL     OW71840   7.115   1.667  11.492 -0.0911  0.2497  0.8274
22301SOL    HW171841   7.119   1.644  11.399  0.0053 -1.0222  1.1358
22301SOL    HW271842   7.030   1.711  11.502 -1.2138 -1.7177  0.5687
22302SOL     OW71843   3.697  10.503   4.680 -0.6271  0.2795  0.2945
22302SOL    HW171844   3.732  10.420   4.713 -0.0818 -0.3808 -1.7955
22302SOL    HW271845   3.611  10.481   4.645 -0.5604  0.6270 -0.1012
22303SOL     OW71846   8.934   3.907   8.456  0.8149 -0.2078  0.0234
22303SOL    HW171847   8.938   3.837   8.522  2.0933 -0.6465 -0.4873
22303SOL    HW271848   8.985   3.978   8.495 -1.3479  0.8958  1.0019
22304SOL     OW71849   7.992   7.903   9.984  0.4311  0.1348  0.2558
22304SOL    HW171850   8.078   7.911  10.027 -1.1966  0.7625  3.8017
22304SOL    HW271851   7.929   7.910  10.056 -2.6492  0.0469 -2.2235
22305SOL     OW71852   8.855   8.595  10.836 -0.5345  0.6405  0.5628
22305SOL    HW171853   8.850   8.662  10.903 -1.8101  0.5028  0.6268
22305SOL    HW271854   8.924   8.535  10.867  0.1654  1.5474  0.8149
22306SOL     OW71855  10.336   8.394   2.351  0.5921  0.0364 -0.5938
22306SOL    HW171856  10.387   8.470   2.380  3.0300 -2.4814  2.5994
22306SOL    HW271857  10.400   8.339   2.306 -0.6886 -0.8779 -1.3449
22307SOL     OW71858   8.838   8.898   4.363  0.4476  0.2260  0.6835
22307SOL    HW171859   8.816   8.811   4.395  0.7248  0.4768  1.6010
22307SOL    HW271860   8.816   8.896   4.270 -2.5436  0.1636  1.2939
22308SOL     OW71861  10.937   8.025  10.310  0.1806  0.8114  0.4834
22308SOL    HW171862  10.964   7.984  10.227  0.4196  0.2974  0.8095
22308SOL    HW271863  10.861   7.975  10.339  0.1414  0.9440  0.6151
22309SOL     OW71864   6.180   1.650   9.999 -0.0638 -0.1070 -0.0983
22309SOL    HW171865   6.169   1.738   9.961 -1.0629  0.8041  2.1102
22309SOL    HW271866   6.273   1.631   9.990 -0.3359 -0.5775 -4.0521
22310SOL     OW71867   4.151   2.538   9.761 -0.9878 -0.3672 -0.0821
22310SOL    HW171868   4.237   2.519   9.724 -1.2810  0.7950 -1.4766
22310SOL    HW271869   4.142   2.633   9.753 -2.1761 -0.4073  0.5473
22311SOL     OW71870   1.683   3.036   3.762  0.0997 -0.0562 -0.0925
22311SOL    HW171871   1.763   3.082   3.736 -0.4723  1.6458  0.9357
22311SOL    HW271872   1.668   2.972   3.692  1.2405  0.9793 -1.3534
22312SOL     OW71873   7.590   1.127   9.496  0.2184 -0.2745  0.0283
22312SOL    HW171874   7.660   1.069   9.524  0.6635  0.6572  0.9426
22312SOL    HW271875   7.560   1.168   9.577  0.2617  1.1142 -0.6270
22313SOL     OW71876   5.803   3.589   1.271  0.7252  0.1826  0.6608
22313SOL    HW171877   5.845   3.613   1.353  1.3275  2.3756 -0.2018
22313SOL    HW271878   5.858   3.631   1.204 -1.1168  0.5469 -0.6824
22314SOL     OW71879   6.902   1.554   5.205  0.7803 -0.0830 -0.2456
22314SOL    HW171880   6.901   1.482   5.141  2.3762 -0.1423 -0.2580
22314SOL    HW271881   6.823   1.541   5.257 -0.7239  0.1282 -2.3516
22315SOL     OW71882   3.890   0.549   4.900 -0.0800 -0.3580  0.1433
22315SOL    HW171883   3.891   0.639   4.866  3.0137  0.1377  1.2837
22315SOL    HW271884   3.867   0.559   4.992  0.9241 -0.6506  0.4305
22316SOL     OW71885   8.401   0.423   2.932  0.6936 -0.2137  0.0954
22316SOL    HW171886   8.411   0.508   2.889 -3.0778  1.3527  1.8422
22316SOL    HW271887   8.327   0.382   2.887  2.2288 -2.5606 -0.4979
22317SOL     OW71888   1.034  10.291  10.103 -0.0952 -0.4154  0.0201
22317SOL    HW171889   1.020  10.303  10.009  2.0334 -1.9726 -0.5749
22317SOL    HW271890   1.105  10.227  10.109 -0.4830 -0.7293  2.7096
22318SOL     OW71891   0.820   4.553   3.942 -0.9392  0.4215  0.2296
22318SOL    HW171892   0.851   4.630   3.991 -1.2799  2.4441 -2.5042
22318SOL    HW271893   0.898   4.518   3.900 -1.3149  1.8788 -1.8358
22319SOL     OW71894   0.722   9.010   8.598 -0.1825 -0.3768 -0.5386
22319SOL    HW171895   0.772   9.029   8.518  1.8389  0.7865  0.8886
22319SOL    HW271896   0.721   8.915   8.604  2.9517 -0.4717 -0.0878
22320SOL     OW71897   3.685   8.743   7.203 -0.0674 -0.0667 -0.1518
22320SOL    HW171898   3.603   8.768   7.160  0.4001  1.4884 -0.2273
22320SOL    HW271899   3.751   8.746   7.133  0.2119 -0.3892  0.0945
22321SOL     OW71900  10.541   2.512  10.541 -0.2198  0.0935  0.0404
22321SOL    HW171901  10.564   2.510  10.634 -1.3327 -0.0098  0.3216
22321SOL    HW271902  10.474   2.580  10.534 -0.8626 -0.5753 -0.5124
22322SOL     OW71903   2.894   9.594   8.862 -0.5136 -0.2602  0.3561
22322SOL    HW171904   2.815   9.619   8.813 -0.4258 -1.1851 -0.2806
22322SOL    HW271905   2.942   9.676   8.872 -1.8814  0.4637  1.3985
22323SOL     OW71906  11.059   7.200   4.888  0.1684  0.1060  0.1960
22323SOL    HW171907  11.133   7.193   4.948  0.2729 -1.4341 -0.0718
22323SOL    HW271908  10.982   7.204   4.945  0.4354  2.7294  0.5156
22324SOL     OW71909   6.995   5.430   3.213 -1.1720  0.0197  0.7514
22324SOL    HW171910   7.027   5.408   3.301 -1.9966  0.4696  1.1684
22324SOL    HW271911   7.018   5.522   3.202  0.7220 -0.5148 -0.3177
22325SOL     OW71912   4.734  10.893   9.560 -0.1027  0.0298 -0.4888
22325SOL    HW171913   4.713  10.830   9.630  0.4344  0.6235  0.2191
22325SOL    HW271914   4.658  10.950   9.555  0.7818  1.4505  1.2663
22326SOL     OW71915   4.939   7.304   2.890  0.1013 -0.4629 -0.1449
22326SOL    HW171916   4.916   7.280   2.980  1.1218 -1.1139 -0.0384
22326SOL    HW271917   4.861   7.348   2.856 -0.7500 -1.3352  0.6347
22327SOL     OW71918   2.529   5.543   8.875  0.1220 -0.0923  0.4008
22327SOL    HW171919   2.515   5.588   8.792 -2.5202 -2.9576 -0.8972
22327SOL    HW271920   2.496   5.604   8.941 -0.0846  1.2210 -0.8594
22328SOL     OW71921   0.971  10.202   3.571  0.3421  0.1368 -0.3946
22328SOL    HW171922   0.989  10.151   3.650 -1.1241  0.3302  0.0946
22328SOL    HW271923   0.876  10.215   3.572  0.4176  0.9576 -1.6926
22329SOL     OW71924   6.785   2.181   0.380 -0.1952  0.6084 -0.4409
22329SOL    HW171925   6.879   2.173   0.396 -0.5550  0.5627  2.0548
22329SOL    HW271926   6.749   2.095   0.402 -0.8838  0.7827 -0.8410
22330SOL     OW71927   8.750   8.650   0.949 -0.0231 -0.1848 -0.2589
22330SOL    HW171928   8.737   8.611   0.862  3.3575  1.1053 -1.5347
22330SOL    HW271929   8.840   8.682   0.947 -0.3452  1.3717  3.2098
22331SOL     OW71930   7.317   5.538   7.408  0.3572 -1.2008  0.9499
22331SOL    HW171931   7.355   5.566   7.325 -0.6667  1.9017  1.3826
22331SOL    HW271932   7.247   5.477   7.383 -0.0144 -0.2299 -0.4933
22332SOL     OW71933   6.636   6.022   2.142 -0.9149  0.0437 -0.2899
22332SOL    HW171934   6.712   6.030   2.084 -0.8032  3.5998  0.1720
22332SOL    HW271935   6.643   5.933   2.177  2.2440 -0.2404 -1.2864
22333SOL     OW71936   7.445   2.277   8.098 -0.0756 -0.0856  0.1372
22333SOL    HW171937   7.385   2.221   8.147  0.8479 -0.2023  1.1692
22333SOL    HW271938   7.460   2.230   8.016 -0.2861 -0.7349  0.4632
22334SOL     OW71939  11.572   8.838   8.671  0.1229  0.0721  0.7958
22334SOL    HW171940  11.660   8.807   8.692 -0.0225 -0.5662  0.4695
22334SOL    HW271941  11.583   8.888   8.589  0.1582 -0.1247  0.6806
22335SOL     OW71942   8.684   6.186   1.769 -0.1280 -0.6159  0.1709
22335SOL    HW171943   8.670   6.129   1.844 -1.4728 -0.5852 -0.0363
22335SOL    HW271944   8.635   6.145   1.697  0.4417 -0.2026 -0.4687
22336SOL     OW71945   0.546   5.822   7.049 -0.0020 -0.5379  0.4033
22336SOL    HW171946   0.498   5.859   6.976 -0.4069 -2.2112 -0.2211
22336SOL    HW271947   0.479   5.797   7.112  0.1429 -1.3443  0.2564
22337SOL     OW71948   2.320   5.985   1.222  0.4130  0.5160 -0.2548
22337SOL    HW171949   2.401   5.989   1.274 -0.3539  1.3234  0.9297
22337SOL    HW271950   2.273   6.065   1.244 -1.4465 -0.6676  0.3323
22338SOL     OW71951   0.816   1.203   2.225 -0.1495  0.3049 -0.4236
22338SOL    HW171952   0.803   1.158   2.309 -1.0364 -0.5720 -1.0074
22338SOL    HW271953   0.727   1.213   2.190  0.2179  0.5990 -1.2855
22339SOL     OW71954   2.557  11.297   7.275  0.0649 -0.3026  0.6063
22339SOL    HW171955   2.515  11.376   7.309 -0.4887 -1.2411  2.1976
22339SOL    HW271956   2.512  11.225   7.319  1.2216 -1.4751 -0.0546
22340SOL     OW71957   6.006   1.247   4.686  0.5501  0.5327  0.1841
22340SOL    HW171958   5.960   1.325   4.717 -1.4157 -0.0558 -1.0634
22340SOL    HW271959   6.072   1.229   4.753  0.2408  2.5407  1.0904
22341SOL     OW71960   2.888   1.755  11.035 -0.6631 -0.1134 -0.3911
22341SOL    HW171961   2.945   1.680  11.057 -1.2775 -0.6955 -0.7411
22341SOL    HW271962   2.846   1.729  10.953 -0.9268  0.6040 -0.4872
22342SOL     OW71963  10.363   8.487   9.729  0.0955 -0.1160  0.0560
22342SOL    HW171964  10.352   8.395   9.753  2.1468 -0.0882  1.2884
22342SOL    HW271965  10.319   8.535   9.799 -1.8645 -0.0873 -1.0982
22343SOL     OW71966   8.798   8.440   5.024 -0.1038  0.0933 -0.1181
22343SOL    HW171967   8.855   8.515   5.010 -0.4291  0.4041  0.1962
22343SOL    HW271968   8.796   8.395   4.940  1.7903 -0.7673  0.2373
22344SOL     OW71969   2.751   6.047   9.641  0.4647  0.4714  0.0098
22344SOL    HW171970   2.846   6.054   9.653  0.5536  1.2069 -1.0384
22344SOL    HW271971   2.736   6.071   9.550 -0.5648 -1.3324 -0.3486
22345SOL     OW71972   5.367   1.617   5.539  0.0147  0.1316 -0.1643
22345SOL    HW171973   5.334   1.534   5.575  1.1888  0.4117  1.6822
22345SOL    HW271974   5.450   1.631   5.584  1.1823  0.9945 -2.4243
22346SOL     OW71975   2.838   1.007   9.661  0.0174  0.3246  0.0547
22346SOL    HW171976   2.750   1.003   9.698 -0.2813 -0.0755 -0.6656
22346SOL    HW271977   2.824   1.035   9.570  0.2289 -3.3892 -1.2751
22347SOL     OW71978   5.675   9.728   1.213  0.1315 -0.4198  0.1130
22347SOL    HW171979   5.667   9.728   1.308  1.4458  2.1142  0.3182
22347SOL    HW271980   5.712   9.642   1.192 -1.8908 -1.7647  1.6278
22348SOL     OW71981   6.788   9.576   0.882 -0.0774 -0.1590 -0.3470
22348SOL    HW171982   6.826   9.488   0.876  1.9997  0.2989  3.2683
22348SOL    HW271983   6.709   9.564   0.934 -0.1266  0.0245 -0.3801
22349SOL     OW71984   2.708   8.550   7.590 -0.4279  0.0856 -0.3056
22349SOL    HW171985   2.653   8.473   7.603 -0.6957  0.4406  0.6897
22349SOL    HW271986   2.646   8.622   7.575 -0.1842  0.1589 -1.0228
22350SOL     OW71987   6.413   3.200   4.937 -0.5742 -0.4082  0.0381
22350SOL    HW171988   6.463   3.135   4.986 -1.3868 -0.5756  0.6775
22350SOL    HW271989   6.330   3.157   4.917 -0.1968 -0.3987 -1.6684
22351SOL     OW71990   9.411   6.442   5.198 -0.0930 -0.0209 -0.1531
22351SOL    HW171991   9.373   6.441   5.110 -0.8297 -0.8895  0.1576
22351SOL    HW271992   9.440   6.352   5.212 -0.9890 -0.1635  0.8995
22352SOL     OW71993   6.151  10.535   3.725  0.3227  0.2913  0.4509
22352SOL    HW171994   6.096  10.469   3.682  1.8024 -0.0461 -1.0130
22352SOL    HW271995   6.232  10.489   3.745  0.3620  0.9593  1.9931
22353SOL     OW71996   6.028   2.355   2.953 -0.1183  0.0781  0.1215
22353SOL    HW171997   6.100   2.405   2.991 -1.5872  1.7525  0.8698
22353SOL    HW271998   6.035   2.368   2.859 -0.3881  1.6515  0.2943
22354SOL     OW71999   2.722   3.848   6.964 -0.2826 -0.2092 -0.0830
22354SOL    HW172000   2.672   3.779   6.921  0.2445 -0.7845  0.2172
22354SOL    HW272001   2.670   3.871   7.041 -1.4644  1.1419 -1.2110
22355SOL     OW72002   7.196   2.274  11.222 -0.0405 -0.3906 -0.3595
22355SOL    HW172003   7.211   2.337  11.152 -1.3857 -0.7445 -1.0016
22355SOL    HW272004   7.109   2.297  11.257 -0.1979 -1.3692 -0.0684
22356SOL     OW72005   5.429   8.744   4.659  0.0947  0.6397 -0.1944
22356SOL    HW172006   5.443   8.808   4.729  1.3897  1.0466 -0.8024
22356SOL    HW272007   5.461   8.662   4.696  0.0169  0.6884 -0.0173
22357SOL     OW72008   5.598   2.658   2.588  0.5854  0.1163 -0.1271
22357SOL    HW172009   5.643   2.621   2.664  1.3017  0.5885 -0.3028
22357SOL    HW272010   5.560   2.739   2.620  1.5051  0.6880 -0.4219
22358SOL     OW72011  11.201   8.174   4.749 -0.0296 -0.4096  0.2175
22358SOL    HW172012  11.270   8.236   4.727 -0.6230 -0.1844 -1.0977
22358SOL    HW272013  11.228   8.092   4.708  0.7338 -1.0577  1.9209
22359SOL     OW72014   9.686   4.803   9.579  0.1802  0.1772  0.3107
22359SOL    HW172015   9.670   4.783   9.671 -0.6071 -0.1189  0.1180
22359SOL    HW272016   9.604   4.781   9.535  0.7115 -0.1794 -0.5389
22360SOL     OW72017   3.848   2.897  10.439  0.1167 -0.2657  0.5308
22360SOL    HW172018   3.893   2.960  10.494 -1.9068 -0.2847  2.3248
22360SOL    HW272019   3.825   2.945  10.360  1.0639  0.4112  0.6538
22361SOL     OW72020   9.272   2.977   9.867 -0.5087  0.4590  0.2362
22361SOL    HW172021   9.185   2.938   9.864 -1.1580  1.8244  0.6360
22361SOL    HW272022   9.277   3.020   9.952  1.1202 -0.7954  0.8439
22362SOL     OW72023   3.333   6.259   7.504  0.4291 -0.3251 -0.5369
22362SOL    HW172024   3.301   6.274   7.592  0.8495 -0.3141 -0.3807
22362SOL    HW272025   3.268   6.299   7.447  1.3986  1.9574 -0.1586
22363SOL     OW72026   3.641   3.039  11.263 -0.5206 -0.2494 -0.2303
22363SOL    HW172027   3.639   3.094  11.185  0.2187  0.4186  0.2158
22363SOL    HW272028   3.573   3.075  11.320 -1.7034 -1.3010 -0.9107
22364SOL     OW72029   5.685  10.958   8.434  0.2253  0.1211 -0.3046
22364SOL    HW172030   5.686  11.053   8.421 -0.4819  0.2571  0.5683
22364SOL    HW272031   5.702  10.946   8.527 -1.2986 -0.5214 -0.0782
22365SOL     OW72032   1.800  10.690   7.964 -0.7428 -0.3639 -0.0374
22365SOL    HW172033   1.776  10.755   7.898 -1.4530 -0.1341  0.4351
22365SOL    HW272034   1.729  10.626   7.961 -0.4461 -0.7026  0.0477
22366SOL     OW72035   0.305   6.042   0.086 -0.7948  0.8545 -0.5581
22366SOL    HW172036   0.353   5.998   0.157 -0.6695  0.5781 -0.8090
22366SOL    HW272037   0.311   6.135   0.107  0.5810  0.8911 -1.0266
22367SOL     OW72038   1.629   0.576   1.547  0.8446  0.1399 -0.0030
22367SOL    HW172039   1.540   0.574   1.514  1.2551 -1.9505 -1.1928
22367SOL    HW272040   1.629   0.511   1.618  1.4811 -0.1104 -0.2269
22368SOL     OW72041   5.228  11.189   4.340 -0.3126  0.4652  0.7692
22368SOL    HW172042   5.156  11.251   4.331 -1.2222 -0.5767  0.6622
22368SOL    HW272043   5.270  11.212   4.423 -0.3757  1.4545  0.5467
22369SOL     OW72044   8.813  11.163   4.690 -0.3457  0.2793  0.7074
22369SOL    HW172045   8.788  11.176   4.781 -0.4431  1.0792  0.5753
22369SOL    HW272046   8.766  11.084   4.663 -0.2629  0.0047  1.3634
22370SOL     OW72047  10.341   3.174   4.779  0.6586 -0.5004 -0.5317
22370SOL    HW172048  10.323   3.250   4.834 -2.8331 -1.0465 -0.6974
22370SOL    HW272049  10.429   3.146   4.805  1.1925  2.2831  1.0381
22371SOL     OW72050   2.873   4.785   0.669  0.2370  0.6291 -0.4945
22371SOL    HW172051   2.805   4.849   0.651 -0.3532  0.0091 -0.5268
22371SOL    HW272052   2.889   4.792   0.763 -1.1602 -0.4353 -0.1415
22372SOL     OW72053   0.189   7.269   9.586  0.0757  0.0955 -0.0091
22372SOL    HW172054   0.231   7.283   9.671  0.7925  0.0279 -0.3518
22372SOL    HW272055   0.102   7.308   9.597 -0.5612 -1.5598  1.3799
22373SOL     OW72056   9.319   7.702   8.217  0.2739  0.0974  0.2555
22373SOL    HW172057   9.298   7.772   8.156  0.1683  0.1861  0.3918
22373SOL    HW272058   9.314   7.622   8.165 -0.6852  0.0829  0.3411
22374SOL     OW72059   3.948  10.270   3.778  0.6819 -0.0125 -0.2155
22374SOL    HW172060   3.984  10.353   3.810 -0.0274 -0.2347  1.2198
22374SOL    HW272061   4.023  10.211   3.775  1.0131  0.4076 -0.3467
22375SOL     OW72062   8.521   6.349   4.041  0.6572  0.0735  0.3434
22375SOL    HW172063   8.543   6.342   3.948  0.4077  1.7241  0.1186
22375SOL    HW272064   8.605   6.347   4.086  0.8745  0.4932 -0.0292
22376SOL     OW72065   1.668   0.202  10.621  0.5406 -0.1602  0.2862
22376SOL    HW172066   1.672   0.293  10.590 -0.2744 -0.7382 -1.6569
22376SOL    HW272067   1.576   0.177  10.610  1.2364 -2.0654 -1.9405
22377SOL     OW72068  10.670   3.030   7.361  0.0452 -0.0614 -0.3705
22377SOL    HW172069  10.695   3.085   7.287  1.4370 -1.0835 -0.7166
22377SOL    HW272070  10.608   3.083   7.411  1.2426  1.7801 -0.7332
22378SOL     OW72071   6.152   9.812  10.920  0.2537  0.2913 -0.2925
22378SOL    HW172072   6.089   9.879  10.950 -1.7245 -1.3735 -0.5209
22378SOL    HW272073   6.169   9.759  10.998  0.7808  0.2542 -0.4281
22379SOL     OW72074   1.754   1.271   8.784 -0.2080  0.0828 -0.7406
22379SOL    HW172075   1.841   1.264   8.744  0.0476 -1.5633  0.0155
22379SOL    HW272076   1.707   1.195   8.750 -0.9970  0.3634 -0.2866
22380SOL     OW72077   8.402   5.309   3.421 -0.7250 -0.1427  0.3253
22380SOL    HW172078   8.308   5.327   3.426 -0.8584 -0.9867  1.1768
22380SOL    HW272079   8.430   5.345   3.337 -2.0721 -1.0571 -0.5499
22381SOL     OW72080   3.473   8.475   5.462  0.4707 -0.6323 -0.1031
22381SOL    HW172081   3.419   8.550   5.435 -0.2439 -1.4376 -0.9905
22381SOL    HW272082   3.445   8.404   5.404  2.4011 -1.1267 -0.5060
22382SOL     OW72083   1.809   3.756   6.400  0.2024  0.2653  0.1162
22382SOL    HW172084   1.714   3.768   6.401  0.2713  1.2096 -1.2870
22382SOL    HW272085   1.844   3.845   6.395  1.1130 -0.1353 -0.8782
22383SOL     OW72086  11.671  11.665   3.399 -0.4802 -0.3641  0.0827
22383SOL    HW172087  11.685  11.679   3.305 -2.4002 -1.4808 -0.4317
22383SOL    HW272088  11.684  11.751   3.438 -0.5229  0.3262 -1.3521
22384SOL     OW72089   8.487   3.422   8.629  0.0407 -0.0175 -0.8182
22384SOL    HW172090   8.513   3.330   8.624 -1.5887 -0.5510 -0.1772
22384SOL    HW272091   8.534   3.456   8.706  1.4926  0.0141 -1.6823
22385SOL     OW72092  11.386   7.204   1.249 -0.8848  0.0062  0.3321
22385SOL    HW172093  11.382   7.196   1.154 -0.3249  1.0857  0.2090
22385SOL    HW272094  11.354   7.119   1.281  1.5520 -1.4734 -0.8388
22386SOL     OW72095   8.487  11.189   9.775  0.3452 -0.2864  0.0451
22386SOL    HW172096   8.576  11.158   9.759  1.0373  1.7264 -0.2418
22386SOL    HW272097   8.472  11.257   9.709 -1.8270 -1.3134 -0.6063
22387SOL     OW72098   0.093   6.281   7.668  0.3083 -0.2311 -0.2654
22387SOL    HW172099   0.031   6.294   7.740  0.6173 -0.0449 -0.0344
22387SOL    HW272100   0.160   6.222   7.704 -0.2597 -1.2497 -0.8213
22388SOL     OW72101   0.407   9.862   9.696 -0.4687  0.0759  0.3684
22388SOL    HW172102   0.440   9.856   9.786 -0.9206 -0.8309  0.4832
22388SOL    HW272103   0.484   9.887   9.644  0.6408 -2.6452  0.5395
22389SOL     OW72104   7.108  10.699  11.091  0.0527 -0.3777  0.0333
22389SOL    HW172105   7.033  10.646  11.067  1.1587 -2.3798  0.7201
22389SOL    HW272106   7.073  10.765  11.151 -0.8422 -3.0069  2.6833
22390SOL     OW72107   5.520   0.081   6.493 -0.0688 -0.8501 -0.1090
22390SOL    HW172108   5.433   0.101   6.459 -0.2459  0.8451  1.1699
22390SOL    HW272109   5.508   0.000   6.543 -1.0298 -0.4177  0.4002
22391SOL     OW72110   7.850   3.036   8.451 -0.4965  0.1518  0.5018
22391SOL    HW172111   7.806   3.053   8.368  0.5932 -0.3548 -0.1928
22391SOL    HW272112   7.935   3.001   8.427 -0.6817 -1.3393  1.8519
22392SOL     OW72113   7.776   9.555   6.806  0.0781  0.2410  0.3666
22392SOL    HW172114   7.733   9.501   6.740  1.5519 -2.2124  1.2904
22392SOL    HW272115   7.819   9.492   6.864  1.4421  2.4229  1.8536
22393SOL     OW72116   4.914  10.616   4.385  0.0041  0.3193 -0.1394
22393SOL    HW172117   4.848  10.624   4.454 -0.0458  0.2186 -0.1752
22393SOL    HW272118   4.997  10.610   4.432 -0.1206 -0.8544 -0.0383
22394SOL     OW72119   2.969   8.931   0.923 -0.1173 -0.2443  0.4204
22394SOL    HW172120   3.065   8.938   0.919 -0.2258  0.8506 -0.8823
22394SOL    HW272121   2.949   8.855   0.869 -0.0120 -0.3253  0.4926
22395SOL     OW72122   7.660   2.745   7.328  0.2170 -0.1946 -0.2901
22395SOL    HW172123   7.690   2.813   7.267  0.2494  1.1056  1.1248
22395SOL    HW272124   7.741   2.702   7.356  0.2110 -0.7365 -1.0603
22396SOL     OW72125   4.629   8.313   2.453 -0.4890 -0.2660 -0.2594
22396SOL    HW172126   4.599   8.228   2.422 -0.1716 -0.4962  0.0552
22396SOL    HW272127   4.717   8.297   2.486  0.5523  0.6729 -2.4228
22397SOL     OW72128   6.701   9.735   5.066 -0.4996  0.5149  1.3135
22397SOL    HW172129   6.737   9.646   5.060 -2.0038 -0.0521  0.1526
22397SOL    HW272130   6.775   9.792   5.044 -0.3111 -0.6385 -1.4576
22398SOL     OW72131   9.126   6.266   7.686  0.1364  0.0686 -0.2031
22398SOL    HW172132   9.175   6.346   7.669 -1.3430  1.0257 -0.1112
22398SOL    HW272133   9.123   6.260   7.782  0.2539 -0.1144 -0.2098
22399SOL     OW72134   1.066  10.975   5.801  0.1169 -0.9231 -0.4754
22399SOL    HW172135   1.114  10.968   5.719  0.3556  0.3627 -0.4612
22399SOL    HW272136   1.134  10.987   5.868 -0.1712  0.6774 -0.4294
22400SOL     OW72137   3.472   4.035   6.866 -0.3945 -0.0816  0.1776
22400SOL    HW172138   3.566   4.018   6.858 -0.8397 -2.4479 -0.7589
22400SOL    HW272139   3.446   4.065   6.779 -0.4828  0.8972  0.5247
22401SOL     OW72140   9.543   8.919   7.242 -0.2939  0.2354 -0.3829
22401SOL    HW172141   9.607   8.850   7.262  0.8247  1.2945 -0.2045
22401SOL    HW272142   9.535   8.968   7.324 -2.5599 -0.7939  0.0962
22402SOL     OW72143   3.377   3.323   1.497 -0.1808  0.0010  0.4456
22402SOL    HW172144   3.408   3.398   1.548 -2.2512  1.0286  0.2900
22402SOL    HW272145   3.427   3.328   1.415  1.0492  0.0719  1.1789
22403SOL     OW72146   4.278  10.473   7.768  0.0637  0.3146  0.1669
22403SOL    HW172147   4.344  10.459   7.837  1.9035  0.8562 -1.3876
22403SOL    HW272148   4.309  10.419   7.695 -1.0067  0.9182 -0.7592
22404SOL     OW72149   7.472   6.883  10.528 -0.4135 -0.0947 -0.0660
22404SOL    HW172150   7.522   6.953  10.486 -0.2768  0.1309  0.4558
22404SOL    HW272151   7.381   6.903  10.509 -0.4641  0.9114  1.0636
22405SOL     OW72152   9.495   4.601  10.442 -0.3653  0.2081  0.1981
22405SOL    HW172153   9.414   4.603  10.493 -1.3183 -2.7867 -0.9850
22405SOL    HW272154   9.472   4.639  10.358 -0.3862 -0.1097  0.0594
22406SOL     OW72155   6.163  11.607   0.502 -0.1556 -0.4899 -0.1727
22406SOL    HW172156   6.201  11.523   0.475 -0.5336  0.1637 -2.9780
22406SOL    HW272157   6.079  11.611   0.456 -0.4469  1.1563  0.4565
22407SOL     OW72158   0.969  11.660  11.201  0.3162  0.0736  0.0415
22407SOL    HW172159   1.018  11.579  11.215  0.8458  0.6569  1.8218
22407SOL    HW272160   0.979  11.678  11.108  1.0210 -1.3790 -0.1918
22408SOL     OW72161   1.186   9.830  11.536  0.3838 -0.7886  0.1573
22408SOL    HW172162   1.098   9.801  11.512  1.0307 -0.9997 -2.1286
22408SOL    HW272163   1.186   9.924  11.518  0.5174 -0.7070  0.5621
22409SOL     OW72164  11.437   3.291  11.152 -0.0196 -0.1768  0.5850
22409SOL    HW172165  11.527   3.321  11.163  0.2616 -0.5452 -0.5893
22409SOL    HW272166  11.386   3.349  11.209  0.6439  1.7417 -0.6789
22410SOL     OW72167   3.227   6.903   3.301  0.6702  0.5772 -0.2088
22410SOL    HW172168   3.160   6.875   3.238 -1.3916  2.1040  1.1772
22410SOL    HW272169   3.250   6.991   3.274 -0.3073  1.2882  1.1567
22411SOL     OW72170   8.884   2.289   3.767 -0.3848  0.2610  0.0379
22411SOL    HW172171   8.862   2.198   3.750 -1.0237  0.1944  1.0805
22411SOL    HW272172   8.886   2.331   3.681 -0.7643 -0.5866 -0.3905
22412SOL     OW72173   3.592   2.737   7.651  0.9150  0.4031  0.3678
22412SOL    HW172174   3.633   2.738   7.564  0.3272 -0.7530  0.0597
22412SOL    HW272175   3.526   2.667   7.646  0.1869  0.9872  1.4343
22413SOL     OW72176  11.161   7.025   4.711 -0.7632 -0.0677  0.1101
22413SOL    HW172177  11.233   6.993   4.765 -0.0166  0.8031 -0.3372
22413SOL    HW272178  11.110   7.081   4.770 -1.1162 -0.7416  0.4471
22414SOL     OW72179   1.585  10.506   1.819  0.2949 -0.6237 -0.5266
22414SOL    HW172180   1.663  10.556   1.794 -1.4965  1.0033 -3.2583
22414SOL    HW272181   1.596  10.422   1.776  1.5446 -1.3203  1.0226
22415SOL     OW72182   4.432   1.708   8.162 -0.0503 -0.5772  0.3876
22415SOL    HW172183   4.433   1.714   8.258 -0.6594 -0.8913  0.4176
22415SOL    HW272184   4.523   1.726   8.136 -0.0584  0.3682  0.9639
22416SOL     OW72185   7.973   7.812   9.551  0.1688 -0.0499 -0.3785
22416SOL    HW172186   8.057   7.855   9.570  0.6602 -0.5813 -1.2471
22416SOL    HW272187   7.922   7.878   9.505  0.8210 -0.2923 -1.4741
22417SOL     OW72188  10.915   0.609   6.660 -0.2721 -0.3835  0.3250
22417SOL    HW172189  10.843   0.551   6.685 -1.2838  0.5977 -0.2237
22417SOL    HW272190  10.977   0.552   6.614 -1.0681 -1.0946  0.1178
22418SOL     OW72191   5.699   8.754   4.371 -0.4269 -0.0137 -0.1152
22418SOL    HW172192   5.792   8.763   4.392 -0.4317  0.8458 -0.4088
22418SOL    HW272193   5.656   8.742   4.456 -0.1230  0.3212  0.0897
22419SOL     OW72194   1.223  11.142   8.897 -0.5473  0.5298  0.7587
22419SOL    HW172195   1.239  11.109   8.986  0.5712 -0.6504  0.1631
22419SOL    HW272196   1.281  11.218   8.889 -0.1750  0.2575  0.8340
22420SOL     OW72197   3.021  10.220   4.486  0.0413 -0.5541  0.0572
22420SOL    HW172198   2.952  10.173   4.532 -2.3480  1.2373 -1.4430
22420SOL    HW272199   3.012  10.310   4.516 -0.9963  0.4887 -3.0242
22421SOL     OW72200   6.695   3.510   2.341 -0.1958  0.3233 -0.4049
22421SOL    HW172201   6.756   3.537   2.273 -0.0804  0.9542 -0.0590
22421SOL    HW272202   6.734   3.542   2.422 -0.8569  0.5081 -0.1549
22422SOL     OW72203   5.921   7.867  11.276  0.3088 -0.0075 -0.2555
22422SOL    HW172204   5.897   7.958  11.261 -1.5488 -0.4603 -0.2546
22422SOL    HW272205   5.872   7.842  11.355  0.9818 -0.9521 -0.1125
22423SOL     OW72206   6.780  11.137   7.770 -0.0471 -0.0678 -0.4298
22423SOL    HW172207   6.727  11.067   7.733 -0.1692 -0.8587  1.1387
22423SOL    HW272208   6.868  11.101   7.775 -0.2319 -0.4168  0.9931
22424SOL     OW72209   8.612   4.114   6.949 -0.2064  0.1342 -0.0104
22424SOL    HW172210   8.633   4.047   6.884 -0.9469  1.3516 -1.5818
22424SOL    HW272211   8.698   4.149   6.975  0.3027 -2.2906  1.9051
22425SOL     OW72212   8.079   5.251   1.216  0.2141  0.3284 -0.2270
22425SOL    HW172213   8.100   5.279   1.305 -1.1878 -0.3152  0.3442
22425SOL    HW272214   8.158   5.207   1.186  0.3562 -0.4139  1.1245
22426SOL     OW72215   6.394   2.211   2.284 -0.1230 -0.4706  0.1147
22426SOL    HW172216   6.336   2.274   2.326  0.9682 -0.3176  1.4953
22426SOL    HW272217   6.453   2.264   2.231 -1.5160 -0.6659 -1.7220
22427SOL     OW72218   7.555   5.304   7.087  0.0941 -0.0601 -0.4575
22427SOL    HW172219   7.504   5.232   7.125  0.0060 -1.2506 -2.6532
22427SOL    HW272220   7.643   5.294   7.125 -0.5488  0.2520  1.1666
22428SOL     OW72221   0.864   8.588   8.434 -0.6898  0.5700  0.0418
22428SOL    HW172222   0.957   8.592   8.457 -1.0775  0.4912  1.8011
22428SOL    HW272223   0.857   8.639   8.354  0.6723  1.7139  0.6039
22429SOL     OW72224   2.845   8.939   5.768  0.6773 -0.6353 -0.0086
22429SOL    HW172225   2.815   9.020   5.726  2.0208  0.0208  0.2131
22429SOL    HW272226   2.784   8.925   5.840 -0.3880 -0.5917 -0.8896
22430SOL     OW72227   4.303  10.438   6.613  0.3533 -0.1802  0.7254
22430SOL    HW172228   4.237  10.499   6.582  1.0971 -0.2156 -1.0482
22430SOL    HW272229   4.253  10.367   6.653 -0.6149  0.4357  0.6425
22431SOL     OW72230   8.873   2.036   9.027  0.3919 -0.1502 -0.0483
22431SOL    HW172231   8.856   1.983   9.105 -0.2530  0.3661  0.1656
22431SOL    HW272232   8.946   1.991   8.984 -0.8874 -1.9074 -0.5088
22432SOL     OW72233   4.700   0.272   5.055  0.3279  0.3517  0.2001
22432SOL    HW172234   4.637   0.342   5.074  0.8898  0.9959 -0.2618
22432SOL    HW272235   4.646   0.194   5.041 -0.2919  0.6272  0.9872
22433SOL     OW72236   5.328   5.542   5.786 -0.1832  0.5013  0.4509
22433SOL    HW172237   5.414   5.541   5.744  0.3686  0.8457  1.5450
22433SOL    HW272238   5.336   5.481   5.859 -0.6304  1.0938  1.0079
22434SOL     OW72239   1.195   8.780   3.072  0.0416  0.2383  0.2011
22434SOL    HW172240   1.188   8.834   2.993 -1.2798 -1.6120 -1.0235
22434SOL    HW272241   1.142   8.825   3.137 -2.0439 -0.1436 -1.1556
22435SOL     OW72242  11.069   7.982   6.540  0.1051  0.1831  0.3943
22435SOL    HW172243  11.053   8.013   6.451 -1.5059 -2.1580 -0.2236
22435SOL    HW272244  11.020   8.043   6.595 -2.1961 -0.5809 -0.6872
22436SOL     OW72245  11.573   5.948   8.268 -0.4726  0.0298 -0.5903
22436SOL    HW172246  11.493   5.972   8.315  0.8511  0.8043  1.3581
22436SOL    HW272247  11.583   5.854   8.285 -0.5617  0.0877 -0.2149
22437SOL     OW72248   2.396   9.766   7.754  0.7142 -0.5612  0.7328
22437SOL    HW172249   2.335   9.713   7.703 -0.1834  2.4917 -1.6463
22437SOL    HW272250   2.479   9.757   7.708  0.3569  0.6820 -0.2009
22438SOL     OW72251   4.203   9.492   1.625  0.2618  0.7971  0.1823
22438SOL    HW172252   4.216   9.416   1.682 -0.4445  1.2626  0.9874
22438SOL    HW272253   4.265   9.558   1.657  1.7795  0.1795 -1.3076
22439SOL     OW72254  10.635   8.294  10.971  0.1552  0.3507  0.1150
22439SOL    HW172255  10.592   8.215  11.003  0.4645 -0.7077 -1.8942
22439SOL    HW272256  10.693   8.263  10.901  1.7681  2.1290  0.5600
22440SOL     OW72257   1.645   4.831   0.580 -0.4627 -0.2638 -0.6449
22440SOL    HW172258   1.687   4.759   0.627  0.0599  0.6115  0.2796
22440SOL    HW272259   1.556   4.801   0.564 -1.6870  0.4680  3.6004
22441SOL     OW72260   4.385   4.740   6.884  0.2554  0.2755 -0.6321
22441SOL    HW172261   4.349   4.813   6.934  2.4984 -0.4400  2.3171
22441SOL    HW272262   4.333   4.664   6.910 -0.5628  0.3901 -1.8698
22442SOL     OW72263   9.174   6.276   6.318 -0.0778  0.3748 -0.0251
22442SOL    HW172264   9.162   6.284   6.223  0.2127  1.3190 -0.0000
22442SOL    HW272265   9.123   6.348   6.354 -0.7602 -0.4030  0.5898
22443SOL     OW72266   4.368   4.185   9.579 -0.2817  0.6489  0.0406
22443SOL    HW172267   4.429   4.115   9.600 -0.8569  0.4000  0.9275
22443SOL    HW272268   4.332   4.161   9.494 -0.9318 -0.4639  0.6142
22444SOL     OW72269   7.679   0.953  10.036  0.4273 -0.3216  0.2975
22444SOL    HW172270   7.596   0.920  10.003 -0.2279 -0.5659  2.0909
22444SOL    HW272271   7.740   0.943   9.963 -0.9439 -0.7972 -0.8133
22445SOL     OW72272   2.167   4.852  10.158 -0.4262 -0.0250 -0.2242
22445SOL    HW172273   2.168   4.840  10.253  0.3973 -0.8371 -0.3150
22445SOL    HW272274   2.083   4.894  10.139 -0.4179  0.5090  0.9024
22446SOL     OW72275   2.814   0.680   2.591  0.2814 -0.1656 -0.2003
22446SOL    HW172276   2.752   0.608   2.584  0.0573  0.0004  0.0584
22446SOL    HW272277   2.885   0.657   2.531  0.5640 -0.9611  0.4205
22447SOL     OW72278   1.694   4.070   1.459  0.2088 -0.8563  0.3059
22447SOL    HW172279   1.670   4.140   1.398 -0.8386 -0.9975  0.5338
22447SOL    HW272280   1.767   4.025   1.416  1.4366  0.8366  0.5048
22448SOL     OW72281   5.177   9.241  10.676 -0.0078 -0.1051 -0.0783
22448SOL    HW172282   5.090   9.247  10.714 -0.6630 -1.6650 -1.2340
22448SOL    HW272283   5.166   9.270  10.585  0.0028 -2.8806 -1.0706
22449SOL     OW72284   1.310   0.492   4.619 -0.2290 -0.1041  0.4197
22449SOL    HW172285   1.390   0.451   4.586  0.8757  2.3576 -0.2237
22449SOL    HW272286   1.336   0.582   4.640 -2.5075  0.3611  1.6313
22450SOL     OW72287   8.558   4.654   1.260 -0.3332 -0.0712 -0.1300
22450SOL    HW172288   8.589   4.564   1.262 -0.3388 -0.0659  0.1185
22450SOL    HW272289   8.637   4.707   1.252 -0.4216 -0.2404 -4.5304
22451SOL     OW72290   6.879  11.552  10.742  0.1656 -0.0683  0.2798
22451SOL    HW172291   6.796  11.529  10.784 -0.2175  0.3529 -0.2303
22451SOL    HW272292   6.861  11.634  10.697  0.6831 -0.3027 -0.3695
22452SOL     OW72293   4.503  10.974   3.408  0.8919 -0.1193  0.3112
22452SOL    HW172294   4.422  11.006   3.448  1.0580 -0.7481  1.1864
22452SOL    HW272295   4.509  11.019   3.324  0.5532  1.2811  1.0249
22453SOL     OW72296   0.482   3.091   3.041  0.5041  0.3533 -0.1171
22453SOL    HW172297   0.565   3.124   3.073  0.8123 -0.6321  0.1316
22453SOL    HW272298   0.459   3.020   3.102  0.0844 -0.1739 -0.8697
22454SOL     OW72299   3.754   6.833   4.723 -0.0579  0.7850 -0.2645
22454SOL    HW172300   3.675   6.877   4.754 -2.2478 -3.1076  0.3767
22454SOL    HW272301   3.735   6.809   4.632  1.3959  1.7411 -0.8627
22455SOL     OW72302   9.057   3.221   1.075  0.2254 -0.5347 -0.3184
22455SOL    HW172303   9.045   3.296   1.016  2.6845  0.2354  0.0647
22455SOL    HW272304   9.121   3.251   1.139  0.2627 -2.5525  0.6486
22456SOL     OW72305   2.282   0.427   5.662  0.5865  0.3077 -0.3875
22456SOL    HW172306   2.292   0.522   5.661 -0.4904  0.4417 -0.0323
22456SOL    HW272307   2.310   0.400   5.750 -0.5054  0.4798  0.0228
22457SOL     OW72308   2.313   6.361   2.333 -0.1473  0.2461 -0.2461
22457SOL    HW172309   2.332   6.364   2.239  1.4635 -0.3421  0.0246
22457SOL    HW272310   2.291   6.270   2.351 -0.0016  0.2613  0.0210
22458SOL     OW72311   1.793   0.563  11.084 -0.4940  0.1266 -0.0439
22458SOL    HW172312   1.818   0.504  11.013 -0.7940 -0.4014  0.2748
22458SOL    HW272313   1.844   0.643  11.069  1.3181 -0.8652  0.5380
22459SOL     OW72314   8.565   4.469   6.349 -0.1255  0.4774 -0.5579
22459SOL    HW172315   8.619   4.442   6.275 -1.2831  0.1623 -1.3229
22459SOL    HW272316   8.572   4.396   6.411  0.7369  0.6820 -0.3966
22460SOL     OW72317   3.254   4.051   0.431  0.2300 -0.3009 -0.0501
22460SOL    HW172318   3.237   4.041   0.338  0.3123  0.2254 -0.1265
22460SOL    HW272319   3.181   4.007   0.474 -0.7301  0.8996 -0.3703
22461SOL     OW72320  11.653  11.522   1.161 -0.1652  0.4188 -0.0423
22461SOL    HW172321  11.731  11.540   1.213 -0.9633  2.7572  0.4411
22461SOL    HW272322  11.583  11.512   1.225 -0.5253 -0.3655 -0.5397
22462SOL     OW72323   8.224  10.358   7.657 -0.1499  1.0179  0.2993
22462SOL    HW172324   8.140  10.312   7.659  0.9047 -1.2597 -1.4860
22462SOL    HW272325   8.280  10.308   7.717  0.5102  1.1235 -0.2120
22463SOL     OW72326   6.019  10.697   2.842 -0.0419  0.1401  0.4249
22463SOL    HW172327   5.945  10.667   2.788  0.2448 -0.4612  0.3508
22463SOL    HW272328   6.065  10.616   2.865  0.3473  0.4746  0.8293
22464SOL     OW72329   9.409  10.834   7.338  0.3090 -0.1055 -0.2073
22464SOL    HW172330   9.464  10.773   7.288 -0.1886 -0.5052 -0.2733
22464SOL    HW272331   9.433  10.920   7.305  0.3893 -0.3280 -0.7388
22465SOL     OW72332   7.501   4.780   1.598 -0.3627  0.1407  0.3426
22465SOL    HW172333   7.538   4.774   1.686  0.3544 -1.4213 -0.0351
22465SOL    HW272334   7.466   4.693   1.581 -0.0323  0.2841 -1.1299
22466SOL     OW72335   0.518   6.151   6.639 -0.0196 -0.0351 -0.3684
22466SOL    HW172336   0.441   6.196   6.605  0.1479 -0.5416 -1.4507
22466SOL    HW272337   0.548   6.095   6.567 -0.2737 -1.9563  0.9510
22467SOL     OW72338   7.103   3.031   5.732  0.2895 -0.2809 -0.5409
22467SOL    HW172339   7.012   3.002   5.730 -0.0191  0.3585  1.4608
22467SOL    HW272340   7.108   3.100   5.666 -0.4076 -0.9813 -1.3524
22468SOL     OW72341   5.485  11.680   8.267 -0.1839  0.4270  0.8964
22468SOL    HW172342   5.509  11.593   8.233 -1.4161 -0.4853  2.2054
22468SOL    HW272343   5.390  11.683   8.259 -0.0195  3.6903 -3.6344
22469SOL     OW72344   9.533   5.414   6.049  0.5589 -0.4920  0.3548
22469SOL    HW172345   9.503   5.440   5.962 -0.0249  1.5185  1.1048
22469SOL    HW272346   9.547   5.320   6.042 -0.7319 -0.6009 -1.5452
22470SOL     OW72347   0.095   3.940   4.930 -0.0351 -0.1397 -0.1521
22470SOL    HW172348   0.018   3.921   4.984  0.9053 -0.7171  1.0674
22470SOL    HW272349   0.099   3.868   4.867  0.0981 -0.7180  0.4990
22471SOL     OW72350   4.329   0.919  10.035  0.0048  0.1022  0.4142
22471SOL    HW172351   4.264   0.870   9.984  2.1958 -2.0138 -0.4993
22471SOL    HW272352   4.364   0.984   9.973  1.0546 -0.9621 -0.1436
22472SOL     OW72353   7.744   9.055  10.877 -0.6071 -0.8341 -0.1999
22472SOL    HW172354   7.800   8.985  10.911 -0.0328 -1.3357 -2.0231
22472SOL    HW272355   7.744   9.041  10.782  1.5773  3.0659 -0.9874
22473SOL     OW72356   6.690   0.425   1.464 -0.2191  0.1464  0.1054
22473SOL    HW172357   6.785   0.422   1.458 -0.2905 -2.1311 -1.1941
22473SOL    HW272358   6.662   0.469   1.384 -0.2671  1.2707  0.7269
22474SOL     OW72359   2.302  11.374  10.051 -0.2197 -0.1867  0.5148
22474SOL    HW172360   2.381  11.427  10.046 -0.0966 -0.3965  0.2365
22474SOL    HW272361   2.234  11.436  10.078  0.3924 -0.3823  2.6681
22475SOL     OW72362   0.842   7.172   8.041 -0.5281  0.3889  0.0599
22475SOL    HW172363   0.923   7.220   8.058 -0.0871  0.1334 -1.2764
22475SOL    HW272364   0.848   7.095   8.098 -0.4589  1.0422  0.9555
22476SOL     OW72365   5.785   9.642   1.642 -0.6440 -0.0634  0.5487
22476SOL    HW172366   5.848   9.582   1.601 -2.9554 -0.8975 -2.1568
22476SOL    HW272367   5.790   9.622   1.735  2.7077 -0.3593  0.4231
22477SOL     OW72368   3.437   7.049   0.590  0.3161  0.2684 -0.2491
22477SOL    HW172369   3.400   6.960   0.589 -0.2246  0.4870 -0.1608
22477SOL    HW272370   3.381   7.097   0.651  1.7046  0.2173  1.1136
22478SOL     OW72371   6.485   0.956   2.995  0.4737 -0.1805  0.1429
22478SOL    HW172372   6.479   1.038   3.045 -1.1234  0.2695 -0.7260
22478SOL    HW272373   6.400   0.914   3.007 -0.0918  0.0888 -2.3985
22479SOL     OW72374   6.731   2.065   5.268 -0.0583  0.2812  0.0154
22479SOL    HW172375   6.729   2.119   5.347  1.7833 -0.1893  0.4399
22479SOL    HW272376   6.755   1.978   5.299 -0.1769 -0.1199 -0.9788
22480SOL     OW72377  11.435   9.274   1.972  0.3939  0.1066  0.6527
22480SOL    HW172378  11.442   9.339   1.902 -0.5293  0.6103  1.0062
22480SOL    HW272379  11.450   9.323   2.053  1.4173 -0.4645  0.8285
22481SOL     OW72380   9.254   6.189  10.701 -0.0353 -0.7730  0.0668
22481SOL    HW172381   9.186   6.124  10.722 -0.4266  0.2613  2.3340
22481SOL    HW272382   9.332   6.138  10.684 -0.5913 -1.8897  0.7614
22482SOL     OW72383   8.048   7.521   9.559 -0.4587  0.3531 -0.1324
22482SOL    HW172384   8.006   7.607   9.558  1.0348  1.1118 -0.2172
22482SOL    HW272385   8.141   7.540   9.569 -0.0707 -1.2539 -0.4447
22483SOL     OW72386  11.339   5.119   4.966 -0.0569  0.2704  0.3724
22483SOL    HW172387  11.311   5.031   4.989 -0.8954  0.0970 -1.1610
22483SOL    HW272388  11.275   5.148   4.901  1.2744  1.2881 -0.5399
22484SOL     OW72389   7.512   3.743  10.251 -0.6319  0.0777 -0.0523
22484SOL    HW172390   7.540   3.652  10.244 -2.2504 -0.4617 -0.0124
22484SOL    HW272391   7.522   3.778  10.162  1.6172  0.4083  0.2791
22485SOL     OW72392  10.673   1.678   2.207 -0.1938 -0.8925  0.5920
22485SOL    HW172393  10.720   1.695   2.288 -1.0717 -0.3762  1.0032
22485SOL    HW272394  10.689   1.756   2.153 -1.8183 -0.0099  1.3363
22486SOL     OW72395   2.541   1.407   7.995  0.3039 -0.4831 -0.3757
22486SOL    HW172396   2.567   1.450   8.076  1.0560 -2.3267  0.4150
22486SOL    HW272397   2.452   1.438   7.978  0.3732  0.4105  0.7774
22487SOL     OW72398   4.112   7.258   2.542  0.1873  0.9188 -0.4180
22487SOL    HW172399   4.101   7.353   2.534  1.2980  0.9561 -2.0202
22487SOL    HW272400   4.199   7.241   2.506  0.3900 -0.6214  0.6944
22488SOL     OW72401   4.746   9.087  11.178  0.0334  0.3593  0.4950
22488SOL    HW172402   4.733   9.060  11.087  0.3019  0.7087  0.3523
22488SOL    HW272403   4.719   9.179  11.181  0.4513  0.4780  0.6671
22489SOL     OW72404   6.678   6.557   2.307  0.0585 -0.2577 -0.0557
22489SOL    HW172405   6.730   6.481   2.279  1.2668 -0.2218  1.8789
22489SOL    HW272406   6.661   6.541   2.400  2.2826  2.8313  1.0495
22490SOL     OW72407   1.614   0.473   1.853  0.4224  0.6805  0.0496
22490SOL    HW172408   1.600   0.426   1.936  2.1176  1.3764  0.7853
22490SOL    HW272409   1.691   0.431   1.815 -0.4404  0.2654 -1.2849
22491SOL     OW72410   0.817   2.075   5.749 -0.6543 -0.3589 -0.3946
22491SOL    HW172411   0.827   2.007   5.682 -1.6529 -2.7994  1.7935
22491SOL    HW272412   0.722   2.086   5.757 -0.5377 -0.0285  0.5592
22492SOL     OW72413  11.517   6.713   3.457  0.3359  0.0156 -0.1613
22492SOL    HW172414  11.480   6.671   3.380  0.6962 -2.1440  0.7633
22492SOL    HW272415  11.481   6.664   3.531  0.8839  1.2959  1.0092
22493SOL     OW72416   7.976   0.736  10.032  0.0622  0.2918 -0.0820
22493SOL    HW172417   7.919   0.809  10.054 -0.8905 -0.5622  0.4014
22493SOL    HW272418   7.970   0.677  10.107  0.5687 -0.4239 -0.5807
22494SOL     OW72419   2.610   7.281   1.286  0.3151 -0.0725 -0.4892
22494SOL    HW172420   2.534   7.282   1.228  0.6068  0.5046 -0.8673
22494SOL    HW272421   2.680   7.323   1.235  1.1039 -1.2780 -0.4500
22495SOL     OW72422   1.431   2.549   8.403 -0.5216  0.0529  0.4466
22495SOL    HW172423   1.369   2.622   8.401  0.2269  0.6985  0.0145
22495SOL    HW272424   1.504   2.582   8.455  0.1508 -0.1023 -0.3715
22496SOL     OW72425   0.145   3.719  11.320  0.3839 -0.1663 -0.0915
22496SOL    HW172426   0.144   3.787  11.387 -2.0515 -0.0674 -0.1094
22496SOL    HW272427   0.144   3.767  11.237  1.3849 -0.2742 -0.1781
22497SOL     OW72428  10.806   0.242   2.922  0.6812  0.1297 -0.0530
22497SOL    HW172429  10.735   0.225   2.984  0.9905  1.3423  0.6560
22497SOL    HW272430  10.886   0.228   2.972  0.9678  3.1001  0.4857
22498SOL     OW72431   9.206   6.408   4.244  0.2588 -0.2958 -0.1671
22498SOL    HW172432   9.281   6.375   4.195  0.1135 -2.0469  0.7132
22498SOL    HW272433   9.130   6.372   4.199  0.0882 -1.0287  0.6852
22499SOL     OW72434   0.197   7.475   8.592  0.5134  0.4724  0.6326
22499SOL    HW172435   0.191   7.551   8.533  1.5894 -1.0569 -1.5957
22499SOL    HW272436   0.229   7.512   8.675  2.2623  2.3305 -0.7448
22500SOL     OW72437   7.391   9.731   7.940 -0.1056  0.0392 -0.0877
22500SOL    HW172438   7.405   9.825   7.950  1.5083 -0.3003  1.4180
22500SOL    HW272439   7.430   9.709   7.856  1.0404  0.4838  0.3080
22501SOL     OW72440   3.040   5.695   6.274  0.5087 -0.1243 -0.0679
22501SOL    HW172441   3.036   5.639   6.352  0.2367  0.0472  0.0417
22501SOL    HW272442   3.074   5.779   6.306  1.9868 -0.5589 -0.4239
22502SOL     OW72443   7.634   7.653   9.789  0.1709  0.6104 -0.6374
22502SOL    HW172444   7.553   7.674   9.743  0.3415  3.1773  0.0744
22502SOL    HW272445   7.611   7.658   9.882  1.3580  2.5881 -0.4064
22503SOL     OW72446  11.010   1.335   2.690  0.6859 -0.2025 -0.0467
22503SOL    HW172447  10.934   1.388   2.712  1.0614  0.5297 -0.4891
22503SOL    HW272448  11.005   1.261   2.750 -0.0244  0.1614  0.3598
22504SOL     OW72449   7.646   4.972   2.325 -0.3122 -0.4767 -0.4582
22504SOL    HW172450   7.569   4.954   2.379 -0.3582 -0.9732 -0.6809
22504SOL    HW272451   7.618   5.041   2.264 -0.8893 -1.3340 -1.1886
22505SOL     OW72452   2.149   6.840   8.592 -1.2108 -0.0848 -0.2719
22505SOL    HW172453   2.125   6.871   8.679  0.7549 -0.0354  0.3060
22505SOL    HW272454   2.087   6.769   8.574 -1.1938 -0.6014  1.4902
22506SOL     OW72455   7.849   7.600   4.133 -0.2120  0.6582  0.3911
22506SOL    HW172456   7.768   7.550   4.121  1.4362 -2.5070  1.3678
22506SOL    HW272457   7.906   7.570   4.062  1.0755  0.5414  1.4406
22507SOL     OW72458   0.205  10.994   4.942 -0.0633  0.0771 -0.2828
22507SOL    HW172459   0.265  10.938   4.990 -0.0337  0.5510  0.2499
22507SOL    HW272460   0.166  11.051   5.009  0.3899  1.1269 -0.8848
22508SOL     OW72461  10.809   2.672   8.626  0.4226 -0.8837 -0.2282
22508SOL    HW172462  10.739   2.736   8.633  1.7561  0.8101 -1.6180
22508SOL    HW272463  10.793   2.611   8.698 -2.6250 -0.7581 -0.6819
22509SOL     OW72464   9.446   7.595   5.675 -0.0867 -0.0402 -0.5550
22509SOL    HW172465   9.378   7.662   5.668  1.6109  1.7436 -0.5408
22509SOL    HW272466   9.447   7.572   5.768 -0.8771 -0.3478 -0.6101
22510SOL     OW72467  11.484  11.151   2.240 -0.2554 -0.4623 -0.0369
22510SOL    HW172468  11.570  11.146   2.281 -0.4511  0.0148  0.4507
22510SOL    HW272469  11.423  11.122   2.308 -0.6617  1.1280  0.3355
22511SOL     OW72470   5.123   9.828   9.866 -0.8116  0.2049 -0.4776
22511SOL    HW172471   5.116   9.910   9.915 -0.3669 -1.1628  2.0561
22511SOL    HW272472   5.211   9.830   9.829  0.0156  0.0196  1.3562
22512SOL     OW72473   8.461   5.189  11.691  0.1640 -0.2460 -0.3859
22512SOL    HW172474   8.506   5.118  11.646 -0.3084 -0.5397 -0.3973
22512SOL    HW272475   8.529   5.231  11.744  0.2388 -1.3266  0.3967
22513SOL     OW72476   2.732  10.091   7.527 -0.0087 -0.8317 -0.6487
22513SOL    HW172477   2.646  10.099   7.569  0.0336 -0.7640 -0.5722
22513SOL    HW272478   2.773  10.176   7.543  0.3977 -1.1464  0.0456
22514SOL     OW72479  10.657   9.405   8.090  0.5423 -0.5155  0.6418
22514SOL    HW172480  10.724   9.366   8.148  1.2063 -0.6986 -0.2251
22514SOL    HW272481  10.692   9.392   8.002 -1.1618 -1.6271  0.0771
22515SOL     OW72482   7.657  11.497   0.003  0.4544  0.1856 -0.0627
22515SOL    HW172483   7.647  11.423   0.063  0.7944  0.2389  0.0636
22515SOL    HW272484   7.569  11.534  -0.005  0.1104 -0.7659 -0.8189
22516SOL     OW72485   7.226   1.974   4.196  0.7749  0.4385  0.3342
22516SOL    HW172486   7.235   1.896   4.142  3.1151  0.6100  0.3658
22516SOL    HW272487   7.202   1.941   4.282 -0.7924  0.0004 -0.2311
22517SOL     OW72488   6.981   3.331   6.495 -0.4203  0.3953 -0.3398
22517SOL    HW172489   6.937   3.296   6.572 -1.4751  2.3716  0.0204
22517SOL    HW272490   7.073   3.337   6.521  0.0145 -2.7915 -0.7352
22518SOL     OW72491   5.158   9.300   3.355 -0.0798 -0.0528 -0.3061
22518SOL    HW172492   5.108   9.265   3.428 -0.6436 -0.0357 -0.6808
22518SOL    HW272493   5.246   9.314   3.391  0.3238 -2.3215 -0.2746
22519SOL     OW72494   5.909   9.902   1.312 -0.1348  0.4336  0.9067
22519SOL    HW172495   5.819   9.917   1.283  0.3968 -0.9693 -1.8729
22519SOL    HW272496   5.960   9.971   1.269  0.4590 -0.6153 -0.1434
22520SOL     OW72497   8.202   7.357   2.455  0.6153  0.1969 -0.2937
22520SOL    HW172498   8.108   7.364   2.470  0.7149  1.3135 -0.1425
22520SOL    HW272499   8.222   7.265   2.475 -0.1252  0.3773  1.5405
22521SOL     OW72500   9.526   9.900  10.446 -0.0734  0.2393  0.1799
22521SOL    HW172501   9.594   9.834  10.456 -0.2048  0.1808  0.7171
22521SOL    HW272502   9.444   9.853  10.457 -0.1676  0.4887  0.5956
22522SOL     OW72503   1.207   4.991   3.000  0.3019  0.2068 -0.3424
22522SOL    HW172504   1.239   5.075   2.967 -0.5365  0.3085 -0.9360
22522SOL    HW272505   1.192   5.006   3.094  1.2015  0.3804 -0.2155
22523SOL     OW72506   4.070   2.586   9.188  0.3012  0.4148 -0.0034
22523SOL    HW172507   4.018   2.596   9.108  0.7511  2.4350 -0.0964
22523SOL    HW272508   4.152   2.632   9.169 -0.1868  2.2706  2.1132
22524SOL     OW72509   3.898   8.648   4.051  0.3169  0.4413  0.0438
22524SOL    HW172510   3.853   8.661   3.968 -0.7771 -1.1557  0.3377
22524SOL    HW272511   3.872   8.723   4.104  0.0559  0.8579 -0.6631
22525SOL     OW72512   9.936   1.149   9.488 -0.3476 -0.1732 -0.6082
22525SOL    HW172513   9.992   1.200   9.546  0.0249 -0.8946 -0.3169
22525SOL    HW272514   9.962   1.174   9.400 -0.4761  0.4603 -0.4661
22526SOL     OW72515   4.051   9.064   1.517  0.5938 -0.3489  0.3127
22526SOL    HW172516   4.052   9.036   1.608 -0.9239 -1.0411  0.1482
22526SOL    HW272517   3.959   9.082   1.498  1.1522  2.2115 -0.3941
22527SOL     OW72518   1.275   5.700   8.429  0.0474  0.0052  0.7821
22527SOL    HW172519   1.243   5.624   8.477  1.2038 -0.7887  0.3433
22527SOL    HW272520   1.369   5.686   8.421  0.2267  1.2975  0.3466
22528SOL     OW72521   6.401   2.948   4.392  0.4012  1.1260 -0.0685
22528SOL    HW172522   6.476   2.903   4.355 -0.1863  0.7171 -0.8024
22528SOL    HW272523   6.332   2.882   4.394 -0.2627  1.7857 -0.4887
22529SOL     OW72524   6.345   0.230   7.410  0.5968  0.4478  0.5469
22529SOL    HW172525   6.300   0.164   7.462 -1.5335  1.6619  0.3373
22529SOL    HW272526   6.290   0.243   7.333  2.2275  0.7426 -0.6474
22530SOL     OW72527  11.659   3.039   7.276  0.7030  0.3260 -0.4468
22530SOL    HW172528  11.595   3.110   7.264  1.2856  0.8511 -0.5172
22530SOL    HW272529  11.699   3.028   7.190  1.0828  0.3746 -0.2809
22531SOL     OW72530  11.329   4.709   8.520 -0.0979  0.2263 -0.2552
22531SOL    HW172531  11.290   4.663   8.594 -1.5915  2.5612  0.5257
22531SOL    HW272532  11.423   4.702   8.534 -0.3353  0.9202  2.1459
22532SOL     OW72533   7.211  10.911   2.133  0.5968  0.0232 -0.2665
22532SOL    HW172534   7.199  11.005   2.122 -0.4059  0.1227  1.2629
22532SOL    HW272535   7.287  10.902   2.190  0.0213 -0.0249  0.5084
22533SOL     OW72536   8.557   0.632   7.753 -0.1364  0.6929  0.2060
22533SOL    HW172537   8.507   0.684   7.815 -0.0382  1.0964 -0.0525
22533SOL    HW272538   8.643   0.673   7.751  0.1742  0.0700  0.5615
22534SOL     OW72539   2.456  11.543   6.298 -0.2889  0.1915  0.1736
22534SOL    HW172540   2.517  11.608   6.262 -0.8461  0.5493 -0.1402
22534SOL    HW272541   2.478  11.462   6.252  0.6007  0.0717  0.7697
22535SOL     OW72542   7.742   5.838   4.593  0.1219 -0.0749  0.3814
22535SOL    HW172543   7.804   5.818   4.664 -1.1969  0.8747  1.8694
22535SOL    HW272544   7.660   5.797   4.622  0.0163 -1.4271 -1.6099
22536SOL     OW72545   1.673   6.212   0.396  0.2152  0.1471  0.8746
22536SOL    HW172546   1.718   6.293   0.421  3.2358 -0.2852 -2.3169
22536SOL    HW272547   1.590   6.242   0.360  0.3737  1.6090  1.6436
22537SOL     OW72548   6.190   1.987   5.805  0.1917  0.2711  0.1575
22537SOL    HW172549   6.284   1.978   5.823  0.2042 -0.0104 -0.0473
22537SOL    HW272550   6.149   1.921   5.861  0.1720 -0.0998 -0.2977
22538SOL     OW72551  10.070   8.127   3.139  0.5520  0.1953  0.7723
22538SOL    HW172552  10.069   8.203   3.079 -2.3611  0.9252  1.5678
22538SOL    HW272553  10.107   8.161   3.220  0.1613  0.5344  0.8163
22539SOL     OW72554   8.493  10.887   8.722 -0.3901 -0.3215 -0.3615
22539SOL    HW172555   8.530  10.800   8.705  0.0539  0.1315 -1.8208
22539SOL    HW272556   8.558  10.948   8.687 -0.1431  0.6728  1.6784
22540SOL     OW72557   5.775  10.843  10.912  0.5753 -0.4910 -0.8247
22540SOL    HW172558   5.782  10.826  10.818 -1.2533 -0.9639 -0.9337
22540SOL    HW272559   5.754  10.757  10.950  1.7027 -0.3837  0.0776
22541SOL     OW72560   2.831  10.597   2.115  0.4308 -0.9735  0.4392
22541SOL    HW172561   2.821  10.686   2.150 -0.3592 -1.6589  2.0660
22541SOL    HW272562   2.880  10.609   2.033 -1.0813  1.1019 -0.2408
22542SOL     OW72563   2.775   1.052   1.634 -0.1370 -0.2324 -0.4574
22542SOL    HW172564   2.770   0.966   1.675  3.3656 -0.0152  0.7905
22542SOL    HW272565   2.813   1.036   1.548 -0.6135 -0.0252 -0.7089
22543SOL     OW72566   6.154   5.343   1.822 -0.3297  0.6678  0.3531
22543SOL    HW172567   6.164   5.381   1.910  0.3575 -0.0455  0.5948
22543SOL    HW272568   6.074   5.383   1.788 -0.4212  1.2155  1.1681
22544SOL     OW72569   9.631   5.469   9.764 -0.1808  0.6448  0.3565
22544SOL    HW172570   9.632   5.562   9.742 -2.3746  0.6625  0.1738
22544SOL    HW272571   9.626   5.468   9.860 -2.4730  0.8134  0.2896
22545SOL     OW72572   4.527   6.228   4.700 -0.1863 -0.0860 -0.1714
22545SOL    HW172573   4.491   6.303   4.652  0.0247  0.5890  0.6798
22545SOL    HW272574   4.612   6.212   4.660  1.3269  2.3398  1.7062
22546SOL     OW72575   4.251   7.695   3.046  0.2382 -0.5128  0.2210
22546SOL    HW172576   4.257   7.691   3.141 -1.3064 -0.7083  0.3442
22546SOL    HW272577   4.170   7.744   3.029  1.2094  0.7435 -1.0145
22547SOL     OW72578   4.985  11.612   4.227 -0.0081  0.0643 -0.2031
22547SOL    HW172579   4.984  11.697   4.183 -1.0813 -0.2532 -0.8464
22547SOL    HW272580   4.917  11.619   4.295 -0.4034 -0.3995 -0.5365
22548SOL     OW72581  10.475   5.589   4.287  0.2614  0.0872  0.4300
22548SOL    HW172582  10.404   5.567   4.347  0.6585  0.6736  1.1271
22548SOL    HW272583  10.515   5.505   4.265  1.7370  0.0082  3.0211
22549SOL     OW72584   0.334  10.256   9.697 -0.2091  0.4298  0.1113
22549SOL    HW172585   0.286  10.175   9.676 -0.3297  0.1250  1.4626
22549SOL    HW272586   0.273  10.305   9.752 -0.4724  1.8665 -1.3741
22550SOL     OW72587   4.987   1.735   8.476 -0.3059  0.3927 -0.0937
22550SOL    HW172588   4.913   1.774   8.430  0.6882  0.8297 -1.3729
22550SOL    HW272589   5.037   1.809   8.509  0.0444  0.1326 -0.0313
22551SOL     OW72590   6.461   7.614  10.708  0.1527 -0.1695 -0.0654
22551SOL    HW172591   6.372   7.626  10.743 -0.2726 -1.7189 -0.5438
22551SOL    HW272592   6.460   7.527  10.670  1.8735 -0.1733 -0.1678
22552SOL     OW72593   5.109   6.082  10.090 -0.4367  0.4147 -0.3059
22552SOL    HW172594   5.070   6.167  10.071 -0.9959 -0.2436 -2.3672
22552SOL    HW272595   5.044   6.018  10.060 -0.5116 -0.8086  2.1652
22553SOL     OW72596  11.297   3.695   1.728 -0.2079  0.1921 -0.0721
22553SOL    HW172597  11.285   3.649   1.645 -1.2887  2.3515 -1.1890
22553SOL    HW272598  11.236   3.651   1.788 -0.5648 -0.3961 -0.8449
22554SOL     OW72599   6.333   4.018   8.067 -0.1377 -0.0866 -0.6874
22554SOL    HW172600   6.260   3.964   8.100  0.4284 -1.0617 -0.9919
22554SOL    HW272601   6.407   3.993   8.122  0.3862 -0.3977 -1.5242
22555SOL     OW72602   9.813   8.503   7.205  0.1982  0.0587 -0.6475
22555SOL    HW172603   9.867   8.582   7.206 -0.6669  0.6886 -1.7171
22555SOL    HW272604   9.837   8.456   7.285  1.1099  1.1373 -0.2705
22556SOL     OW72605   6.806   2.768  11.064 -0.0969 -0.6034  0.2986
22556SOL    HW172606   6.842   2.690  11.020 -0.0495 -0.6354  0.3955
22556SOL    HW272607   6.882   2.825  11.077 -0.3024 -0.0456 -0.7999
22557SOL     OW72608   0.135   6.198   9.792 -0.4844  0.5245  0.2027
22557SOL    HW172609   0.210   6.213   9.736 -1.1239 -1.0780 -1.1789
22557SOL    HW272610   0.091   6.283   9.797  0.8509  1.2378  0.2309
22558SOL     OW72611   7.512   1.907   0.065  0.1008 -0.1062 -1.0701
22558SOL    HW172612   7.532   1.827   0.015  0.7296  0.6800 -2.1154
22558SOL    HW272613   7.586   1.918   0.124  1.2852  1.0208 -2.6662
22559SOL     OW72614   2.531   0.087  10.232  0.2420 -0.0119 -0.2855
22559SOL    HW172615   2.447   0.062  10.192  0.7193  0.3139 -1.5442
22559SOL    HW272616   2.506   0.136  10.311 -0.7499 -0.2325 -0.4438
22560SOL     OW72617   8.892   7.518   5.888 -0.3410 -0.3808 -0.1370
22560SOL    HW172618   8.946   7.439   5.888  0.0233 -0.1371  0.3992
22560SOL    HW272619   8.822   7.500   5.825  0.8645 -0.3660 -1.5285
22561SOL     OW72620   2.438   1.347   5.760 -0.2019 -0.1958 -0.5297
22561SOL    HW172621   2.359   1.337   5.707 -0.7736 -1.6137  0.5581
22561SOL    HW272622   2.410   1.401   5.834 -0.1729 -0.7835 -0.0922
22562SOL     OW72623   9.539   7.691   8.936  0.3450  0.1705 -0.4969
22562SOL    HW172624   9.566   7.731   9.019 -1.0154  0.8882 -0.3854
22562SOL    HW272625   9.449   7.663   8.951  0.9230 -2.0685 -0.9076
22563SOL     OW72626   2.727   7.592   3.765 -0.0231  0.0502  0.6227
22563SOL    HW172627   2.813   7.555   3.787 -0.4961 -0.4915  1.6110
22563SOL    HW272628   2.701   7.547   3.685  0.3458 -0.2136  0.6496
22564SOL     OW72629   4.801  11.475  10.478  0.5284  0.1092  0.4231
22564SOL    HW172630   4.712  11.478  10.513 -0.3535  0.2577 -1.6716
22564SOL    HW272631   4.800  11.535  10.404  2.1699 -0.4698 -0.1142
22565SOL     OW72632   4.021   7.008   9.745  0.1555  0.0631 -0.3295
22565SOL    HW172633   4.061   6.944   9.803  0.5706  0.8266  0.2547
22565SOL    HW272634   3.976   7.069   9.804  0.0919  0.5203 -0.8446
22566SOL     OW72635   4.610  10.287   2.973 -0.2327  0.2505 -0.3767
22566SOL    HW172636   4.537  10.241   3.014  0.3886 -1.6280 -1.2826
22566SOL    HW272637   4.592  10.380   2.990 -2.2695 -0.2130  0.2904
22567SOL     OW72638   2.145  10.327   9.774  0.7880  0.0489  0.8964
22567SOL    HW172639   2.115  10.261   9.711 -0.9571  1.8532 -0.2737
22567SOL    HW272640   2.220  10.368   9.730 -0.4276  1.3069 -0.0853
22568SOL     OW72641   7.618   7.666   1.577  0.2142  0.4370 -0.1896
22568SOL    HW172642   7.532   7.650   1.537 -0.4435  2.4159  0.3102
22568SOL    HW272643   7.609   7.638   1.668  1.1739 -2.4180 -0.8705
22569SOL     OW72644   6.791   4.763   1.531 -0.2900  0.0260 -0.6703
22569SOL    HW172645   6.841   4.839   1.500  0.3148  0.5407  1.3901
22569SOL    HW272646   6.738   4.797   1.603 -0.7085 -1.3360 -0.3060
22570SOL     OW72647   2.858   0.543   5.797 -0.4925 -0.1649  0.3007
22570SOL    HW172648   2.932   0.484   5.781 -1.0010 -0.9149  0.6427
22570SOL    HW272649   2.785   0.485   5.817 -1.2065  0.5608 -0.1273
22571SOL     OW72650   5.008   1.161  10.696 -0.1651 -0.2961 -0.3096
22571SOL    HW172651   5.003   1.106  10.774 -1.1791  0.3379  0.0925
22571SOL    HW272652   5.054   1.240  10.725  1.5275 -1.0000 -0.9498
22572SOL     OW72653   9.270   4.872   5.995  0.7906 -0.0948  0.8342
22572SOL    HW172654   9.233   4.879   6.083  1.0130  0.1927  0.9038
22572SOL    HW272655   9.307   4.958   5.977  2.5234 -0.7186  1.2483
22573SOL     OW72656   9.152   6.593   7.060  0.3312 -0.1007  0.3710
22573SOL    HW172657   9.195   6.668   7.101 -0.1544  0.3940 -0.0065
22573SOL    HW272658   9.074   6.577   7.114 -2.4178  2.9108 -2.2826
22574SOL     OW72659  10.035   9.703   2.367  0.4646 -0.6909 -0.0716
22574SOL    HW172660   9.970   9.646   2.408 -0.2655  0.8723  1.0208
22574SOL    HW272661   9.997   9.790   2.372  1.4785 -0.0993 -1.8641
22575SOL     OW72662   8.719  10.997  10.116  0.2881  0.4012  0.1093
22575SOL    HW172663   8.783  11.067  10.101  2.5946 -1.7611 -1.0661
22575SOL    HW272664   8.731  10.973  10.208  2.3194 -0.8734 -0.4098
22576SOL     OW72665   3.212   0.032   8.045  0.4121  0.2123  0.0003
22576SOL    HW172666   3.129   0.024   8.092 -0.0470  0.6798 -0.7073
22576SOL    HW272667   3.269  -0.033   8.085  0.7383  1.9559  2.6520
22577SOL     OW72668   1.141   5.512   6.747  0.2008 -0.1097  0.0491
22577SOL    HW172669   1.137   5.608   6.743  1.7292 -0.0465 -1.7921
22577SOL    HW272670   1.180   5.493   6.833  0.8265  0.9895  0.0303
22578SOL     OW72671   6.022   9.135   9.613  0.0072 -0.3885  0.1306
22578SOL    HW172672   5.985   9.198   9.551  1.1068 -0.0449 -0.1872
22578SOL    HW272673   6.087   9.185   9.662  1.8223 -1.5569 -0.9999
22579SOL     OW72674   2.911  10.490   6.453 -0.2881 -0.0682 -0.2594
22579SOL    HW172675   2.898  10.402   6.489 -2.1455  0.1207 -0.3227
22579SOL    HW272676   2.825  10.532   6.464  0.6188  1.8011 -0.0706
22580SOL     OW72677   5.035   2.826  10.496  0.0143  0.1017  1.2033
22580SOL    HW172678   5.110   2.779  10.460 -0.8209  1.1965 -2.4379
22580SOL    HW272679   5.059   2.918  10.491 -1.4256  0.4608  0.1271
22581SOL     OW72680   0.542   2.901  10.637 -0.5818 -0.0680 -0.1948
22581SOL    HW172681   0.468   2.847  10.663 -0.0654 -0.8681 -0.3701
22581SOL    HW272682   0.502   2.982  10.604 -1.3366 -0.1667  0.4591
22582SOL     OW72683   5.355   0.299   6.100  0.0512 -0.1920  0.1119
22582SOL    HW172684   5.418   0.231   6.079  0.5842 -0.3918  2.0968
22582SOL    HW272685   5.279   0.252   6.133 -0.5850  0.0995 -0.9152
22583SOL     OW72686  11.388   6.589   4.667  0.2662  0.2503  0.0219
22583SOL    HW172687  11.331   6.584   4.590 -1.0628 -1.5740  1.0301
22583SOL    HW272688  11.361   6.669   4.712  1.0137  1.2930 -1.3433
22584SOL     OW72689   5.967   1.615  10.772  0.7517  0.4700  0.4977
22584SOL    HW172690   6.014   1.596  10.853  0.9588  0.0799  0.2835
22584SOL    HW272691   6.034   1.617  10.704  0.2565 -2.3839 -0.2155
22585SOL     OW72692   2.016   8.327   5.183  0.7336  0.3872  0.2380
22585SOL    HW172693   2.023   8.260   5.251  1.2105  2.1805  2.0538
22585SOL    HW272694   1.926   8.322   5.153  1.6005 -3.5014 -2.4127
22586SOL     OW72695   5.092   5.133   1.681 -0.2515  0.0430  0.2425
22586SOL    HW172696   5.099   5.197   1.610  0.1508  0.2430  0.4638
22586SOL    HW272697   5.156   5.065   1.658 -0.3219 -0.0318  0.2669
22587SOL     OW72698   3.619   4.935   0.477 -0.5159  0.4512 -0.2719
22587SOL    HW172699   3.658   4.859   0.519 -0.7960  0.8283  0.7009
22587SOL    HW272700   3.622   4.915   0.383 -0.6113 -0.7628 -0.0349
22588SOL     OW72701   9.505   9.784   8.945  0.8312 -0.1855  0.3246
22588SOL    HW172702   9.543   9.742   9.022  1.0064  0.4569  0.5966
22588SOL    HW272703   9.455   9.858   8.980 -1.1401 -1.3141  0.0291
22589SOL     OW72704   6.314   0.159   2.553 -0.0931  0.4600  0.4187
22589SOL    HW172705   6.408   0.159   2.538  0.0090 -3.6038  0.0719
22589SOL    HW272706   6.276   0.175   2.467  0.1663  3.0709  0.7168
22590SOL     OW72707   7.586   7.900   5.658  0.3254 -0.5511  0.1174
22590SOL    HW172708   7.546   7.987   5.660  0.7711 -0.3519  1.9507
22590SOL    HW272709   7.609   7.887   5.566  1.3371  1.8088 -0.0579
22591SOL     OW72710  11.352   4.106   5.610 -0.0937  0.2530  0.0874
22591SOL    HW172711  11.389   4.180   5.561 -2.4343  0.1936 -1.9431
22591SOL    HW272712  11.384   4.028   5.564 -0.1959  0.1100  0.2590
22592SOL     OW72713  10.941   2.333   5.061  0.4524 -0.0522 -0.0905
22592SOL    HW172714  10.915   2.282   4.984  2.5078 -2.3611  0.5963
22592SOL    HW272715  11.016   2.384   5.031  1.7947 -1.5869  0.4754
22593SOL     OW72716   6.888   0.416   0.977 -0.2892 -0.1052 -0.1961
22593SOL    HW172717   6.874   0.493   0.923  0.3446  0.4030  0.3355
22593SOL    HW272718   6.978   0.390   0.959 -0.1519 -0.0802  0.4044
22594SOL     OW72719   7.441   6.473  11.073 -0.1196 -0.3475 -0.3614
22594SOL    HW172720   7.441   6.496  10.980  0.7033  0.1046 -0.2568
22594SOL    HW272721   7.532   6.479  11.100 -0.5325  1.0897  0.8538
22595SOL     OW72722   1.780   1.047   6.650  0.1977  0.4793  0.5601
22595SOL    HW172723   1.817   0.996   6.579 -1.2889  0.3539 -0.1590
22595SOL    HW272724   1.736   0.983   6.706 -0.0448  0.7556  0.6899
22596SOL     OW72725   0.846   2.424   2.040  0.1802 -0.5114  0.7741
22596SOL    HW172726   0.809   2.448   2.125  0.6593  1.2980  0.5137
22596SOL    HW272727   0.776   2.439   1.977  0.2583 -0.5189  0.6837
22597SOL     OW72728   3.913   9.279   9.286  0.1841 -0.4449  0.3348
22597SOL    HW172729   3.896   9.279   9.192 -0.8647  2.1797  0.4309
22597SOL    HW272730   4.008   9.277   9.293  0.3702  1.4227 -0.9168
22598SOL     OW72731   1.634   7.015  10.449  0.0985 -0.1268  0.2631
22598SOL    HW172732   1.570   7.086  10.449 -1.5755 -1.5497  0.8525
22598SOL    HW272733   1.599   6.951  10.387  1.5714 -0.4622 -0.2694
22599SOL     OW72734   9.312   2.937   5.858  0.3512 -0.3732  0.7694
22599SOL    HW172735   9.259   3.009   5.893 -2.9799 -1.1827 -2.0923
22599SOL    HW272736   9.379   2.981   5.805 -1.4766  0.7666 -0.7408
22600SOL     OW72737   2.814   0.551   5.414  0.3331 -0.0852 -0.1046
22600SOL    HW172738   2.724   0.527   5.434  0.0158  0.8220 -0.3697
22600SOL    HW272739   2.823   0.537   5.320  0.1328  0.8302 -0.2679
22601SOL     OW72740   7.184   0.787  10.909  0.2387  0.0727  0.1860
22601SOL    HW172741   7.169   0.795  11.003 -0.7548  1.5700 -0.0730
22601SOL    HW272742   7.097   0.778  10.871  0.5813  0.2229 -0.6572
22602SOL     OW72743   3.077   8.470   8.470 -0.3057  0.2208  0.4124
22602SOL    HW172744   3.097   8.446   8.560 -0.9879 -0.8940  0.2765
22602SOL    HW272745   2.986   8.444   8.457  0.4067 -1.7590 -1.2689
22603SOL     OW72746   9.348   7.096  10.769  0.0040  0.2123 -0.3771
22603SOL    HW172747   9.405   7.172  10.783  0.1276 -0.0879  0.9379
22603SOL    HW272748   9.365   7.068  10.680  3.2393 -0.9210  0.4531
22604SOL     OW72749   9.606   7.924   3.007  0.2970 -0.6782 -0.0061
22604SOL    HW172750   9.531   7.984   3.005  0.6129 -0.3192 -1.1770
22604SOL    HW272751   9.652   7.946   3.088  0.1610  0.3608 -0.2029
22605SOL     OW72752   6.029   1.628  11.654 -0.4402  0.4203  0.3290
22605SOL    HW172753   6.030   1.713  11.697 -1.4114  1.0500 -0.8209
22605SOL    HW272754   6.016   1.648  11.561  3.0001 -0.8039 -0.5642
22606SOL     OW72755   3.969   4.366   1.343  0.3471  0.3704  0.5107
22606SOL    HW172756   3.992   4.394   1.254 -2.3452 -2.2950 -1.2121
22606SOL    HW272757   3.907   4.432   1.374  0.0068  0.4252 -0.2792
22607SOL     OW72758  10.255   5.515   6.459  0.4757  0.1626  0.0319
22607SOL    HW172759  10.178   5.546   6.506  1.0999  0.0385  1.1690
22607SOL    HW272760  10.328   5.563   6.499  1.0895 -0.4218 -0.3721
22608SOL     OW72761   4.144   2.120   3.477  0.3643 -0.4843 -0.0867
22608SOL    HW172762   4.174   2.048   3.421 -0.3713 -0.0020 -1.1455
22608SOL    HW272763   4.193   2.196   3.447 -0.1741 -0.1814 -0.2168
22609SOL     OW72764   4.728   5.190   2.218 -0.1013 -0.0989 -0.0420
22609SOL    HW172765   4.734   5.132   2.294 -0.3739 -1.6499 -1.1515
22609SOL    HW272766   4.718   5.131   2.143 -1.7385  1.4272 -1.1145
22610SOL     OW72767   5.463  10.381   2.832  0.4157  0.0954  0.2112
22610SOL    HW172768   5.447  10.336   2.749  1.1180 -1.2294  0.7628
22610SOL    HW272769   5.557  10.396   2.834  0.2401  1.3876  0.1793
22611SOL     OW72770   4.550   9.774   2.053 -0.1473  0.3270  0.3006
22611SOL    HW172771   4.482   9.717   2.090 -0.2124  1.0411  1.2860
22611SOL    HW272772   4.632   9.739   2.088  0.2034 -1.4450 -2.0185
22612SOL     OW72773   2.934   5.469   1.268 -0.4419  0.2102 -0.2520
22612SOL    HW172774   2.944   5.439   1.177  0.3037 -0.5254  0.0553
22612SOL    HW272775   2.841   5.460   1.286 -0.4797 -0.4087 -0.6999
22613SOL     OW72776   4.775   8.752   8.817  0.2602  0.6132  0.3165
22613SOL    HW172777   4.705   8.750   8.751  0.5143 -2.4895 -0.0039
22613SOL    HW272778   4.842   8.693   8.782 -0.2613 -2.4816  3.9361
22614SOL     OW72779   5.504   5.442   5.479  0.0913 -0.5029 -0.4835
22614SOL    HW172780   5.411   5.430   5.502 -0.0021 -0.5758 -0.8935
22614SOL    HW272781   5.502   5.476   5.390  0.4349  0.4723 -0.1314
22615SOL     OW72782   2.596   3.057   3.393 -0.0547  0.1010 -0.5256
22615SOL    HW172783   2.630   3.118   3.459  0.1427 -0.7828  0.2107
22615SOL    HW272784   2.514   3.097   3.364  0.0376  0.6909 -0.0045
22616SOL     OW72785   0.987   3.718   1.835 -0.3667 -0.5183 -0.2911
22616SOL    HW172786   1.077   3.693   1.816  0.0057  0.8619 -0.4454
22616SOL    HW272787   0.969   3.679   1.921  0.6230 -0.2011  0.0683
22617SOL     OW72788   6.652   3.715   1.673  0.0421 -0.3432  0.1631
22617SOL    HW172789   6.615   3.638   1.715  2.7962 -1.8354  0.1054
22617SOL    HW272790   6.694   3.764   1.744  1.7207 -1.0578 -0.2844
22618SOL     OW72791   3.204   0.712   2.481 -0.8863  0.1366  0.1947
22618SOL    HW172792   3.134   0.664   2.437 -0.8287  0.8112 -0.6527
22618SOL    HW272793   3.208   0.674   2.569 -0.2697 -2.0060 -0.6921
22619SOL     OW72794   4.896  11.472   8.479  0.2831  0.0569 -0.5307
22619SOL    HW172795   4.886  11.552   8.427 -2.2482  0.3267  0.2405
22619SOL    HW272796   4.990  11.459   8.485  0.7104  1.4981 -2.9025
22620SOL     OW72797   2.043   2.306   3.802 -0.2390 -0.1903 -0.6070
22620SOL    HW172798   2.002   2.391   3.785  0.9197  0.7527  1.0326
22620SOL    HW272799   2.027   2.290   3.895 -0.0770 -1.5915 -0.8017
22621SOL     OW72800   9.868   9.445   7.685  0.2423  0.0993 -0.1287
22621SOL    HW172801   9.924   9.488   7.621 -0.4409  1.0556 -0.0997
22621SOL    HW272802   9.862   9.354   7.654 -0.1672  0.5611 -1.5102
22622SOL     OW72803   1.802   8.499  10.205  0.1685  0.1604 -0.1892
22622SOL    HW172804   1.718   8.529  10.238  0.5812  1.0150  0.1119
22622SOL    HW272805   1.800   8.404  10.217 -0.5458  0.2257  0.2744
22623SOL     OW72806   0.213   1.787   4.880  0.2286 -0.0883  0.3722
22623SOL    HW172807   0.221   1.716   4.816  0.9755  0.8271 -0.5860
22623SOL    HW272808   0.272   1.855   4.847  0.2358  0.6110  1.7693
22624SOL     OW72809   2.325  10.786   3.481  0.2446 -0.2354  0.2593
22624SOL    HW172810   2.355  10.726   3.413  0.2846 -0.8712  0.8288
22624SOL    HW272811   2.279  10.731   3.544 -1.3369  0.5875 -0.1255
22625SOL     OW72812   0.300   0.110   7.806 -0.6635  0.1149  0.0579
22625SOL    HW172813   0.352   0.182   7.771 -2.5312  0.6365 -1.8121
22625SOL    HW272814   0.292   0.129   7.899  1.6866  0.4714  0.2583
22626SOL     OW72815   9.370   8.586   7.842  0.1104 -0.7384  0.1485
22626SOL    HW172816   9.353   8.680   7.832  0.4622 -0.5528  1.0960
22626SOL    HW272817   9.344   8.567   7.932 -1.3435 -1.8825 -0.4898
22627SOL     OW72818   2.581  11.169   1.404 -0.2297  0.3978 -0.5060
22627SOL    HW172819   2.499  11.216   1.418 -0.0275  0.7053 -0.3549
22627SOL    HW272820   2.642  11.235   1.372 -0.3071 -0.0301 -1.5759
22628SOL     OW72821   7.574   4.615   5.364 -0.2828 -0.1709  0.4768
22628SOL    HW172822   7.581   4.677   5.291  1.0439 -1.3873 -0.5141
22628SOL    HW272823   7.661   4.575   5.369 -1.5749 -3.4690 -0.3876
22629SOL     OW72824   1.624   2.257   0.116 -0.3753 -0.0464 -0.0550
22629SOL    HW172825   1.713   2.287   0.137 -0.4704  0.4397 -0.3337
22629SOL    HW272826   1.586   2.329   0.066  0.1747 -1.5270 -2.7822
22630SOL     OW72827   9.444  11.235  10.060 -0.0819 -0.2974  0.1204
22630SOL    HW172828   9.381  11.236  10.132 -1.3201  0.1739 -0.9179
22630SOL    HW272829   9.522  11.194  10.096 -0.1733  1.1827  2.1252
22631SOL     OW72830   1.320   6.298  10.156  0.3174 -0.3249  0.0110
22631SOL    HW172831   1.226   6.290  10.171  0.7404 -2.3425  2.3665
22631SOL    HW272832   1.334   6.259  10.070 -1.1997  2.2738 -1.5267
22632SOL     OW72833   2.787   2.292   5.175 -0.3240 -0.1365  0.8099
22632SOL    HW172834   2.869   2.243   5.172 -1.0604 -1.3649 -1.3583
22632SOL    HW272835   2.725   2.238   5.125 -1.7666  1.9626  0.2111
22633SOL     OW72836   8.605   7.284  10.378 -0.0663 -0.4794  0.3761
22633SOL    HW172837   8.578   7.205  10.330  0.3841 -0.3490 -0.0956
22633SOL    HW272838   8.564   7.356  10.331 -0.4929 -0.4260  0.8201
22634SOL     OW72839   9.626   7.987   5.776  0.3210 -0.1440 -0.3577
22634SOL    HW172840   9.558   8.025   5.721 -0.6088 -1.6855 -0.3247
22634SOL    HW272841   9.708   8.014   5.735 -0.3291  0.0829 -1.5528
22635SOL     OW72842   6.236   4.659   6.335 -0.7680  0.2885 -0.4316
22635SOL    HW172843   6.217   4.750   6.359 -0.0345  0.2692  0.2383
22635SOL    HW272844   6.150   4.622   6.315 -1.1659  0.9021  0.0982
22636SOL     OW72845   7.426   3.985  11.312 -0.0393  0.1202  0.1261
22636SOL    HW172846   7.365   4.053  11.339 -1.0506  0.2594 -2.2301
22636SOL    HW272847   7.379   3.903  11.325 -0.4470  0.1753 -0.8654
22637SOL     OW72848   6.432   3.031   6.863  0.2734 -0.0626  0.1556
22637SOL    HW172849   6.389   3.042   6.948  0.0349  2.2612 -0.2023
22637SOL    HW272850   6.360   3.023   6.800  0.3877  0.9672 -0.1202
22638SOL     OW72851  11.606   2.024   8.206  0.1483 -0.1861  0.5756
22638SOL    HW172852  11.688   1.977   8.217  1.3355  1.5218 -0.4583
22638SOL    HW272853  11.626   2.114   8.232 -0.6763  0.8144 -1.9651
22639SOL     OW72854  10.100   9.196   4.544 -0.0349 -0.0588 -1.0586
22639SOL    HW172855  10.143   9.206   4.629  0.7076  0.3365 -1.4657
22639SOL    HW272856  10.022   9.142   4.562  0.0853  0.0600 -0.1297
22640SOL     OW72857  10.611   4.167  10.383 -0.0246 -0.2414  0.1309
22640SOL    HW172858  10.681   4.190  10.322  1.7551  0.4044  2.2800
22640SOL    HW272859  10.537   4.142  10.327  1.0106  1.6742 -2.2648
22641SOL     OW72860  10.085   8.477   2.363  0.0471 -0.4607  0.5608
22641SOL    HW172861  10.031   8.412   2.407 -0.4543 -1.2307 -1.1019
22641SOL    HW272862  10.173   8.439   2.363 -0.2777 -1.2657 -0.5633
22642SOL     OW72863   4.624   1.721   1.647  0.4890 -0.3844  0.2866
22642SOL    HW172864   4.581   1.800   1.679  1.7310  0.5692 -0.2815
22642SOL    HW272865   4.621   1.660   1.721 -0.4774  0.1943  0.7379
22643SOL     OW72866   8.868   5.974   6.008 -0.0811  0.1930 -0.1875
22643SOL    HW172867   8.854   6.010   5.920 -1.3578  0.3091  0.0501
22643SOL    HW272868   8.819   6.032   6.066  2.5028  1.4272  0.9249
22644SOL     OW72869   5.790   3.312   3.256 -0.1082  0.1951 -0.3771
22644SOL    HW172870   5.858   3.371   3.221  1.7473 -1.0468  0.9352
22644SOL    HW272871   5.754   3.359   3.331 -0.0452  0.4781 -0.5220
22645SOL     OW72872   6.151   2.921   0.258  0.3469  0.5046 -0.1968
22645SOL    HW172873   6.078   2.872   0.296  0.2589 -0.0012 -0.9904
22645SOL    HW272874   6.134   3.012   0.283  0.5822  0.1387  1.4001
22646SOL     OW72875   6.036   9.037  10.872  0.1659 -0.4628 -0.1992
22646SOL    HW172876   6.096   9.111  10.871  0.1592 -0.4422 -1.4545
22646SOL    HW272877   6.013   9.025  10.964  0.2781  1.0024  0.0417
22647SOL     OW72878   3.381   3.354  10.430 -0.1323  0.1258 -0.1464
22647SOL    HW172879   3.305   3.320  10.477 -0.8545  0.6233 -0.9059
22647SOL    HW272880   3.371   3.320  10.341 -0.6373  1.8930 -0.8089
22648SOL     OW72881   7.728   8.843   0.760  0.4639 -0.1957 -0.3289
22648SOL    HW172882   7.767   8.900   0.694 -0.7030  0.8468 -0.1648
22648SOL    HW272883   7.744   8.888   0.843 -0.6954  0.0609 -0.2238
22649SOL     OW72884  10.630   4.264   2.326 -0.1092 -0.1177 -0.0843
22649SOL    HW172885  10.576   4.192   2.293 -0.9863 -0.2513  1.5307
22649SOL    HW272886  10.706   4.221   2.364 -0.0191 -0.1033 -0.2500
22650SOL     OW72887   7.976   8.648   9.365 -0.0215 -0.4549  0.1866
22650SOL    HW172888   8.028   8.607   9.434 -1.1854 -2.7986 -0.2269
22650SOL    HW272889   8.032   8.717   9.330  1.7636 -1.2014  1.4509
22651SOL     OW72890   3.082   6.731   9.186  0.7997 -0.2161 -0.4816
22651SOL    HW172891   3.018   6.661   9.178 -0.6199  0.9726  0.0132
22651SOL    HW272892   3.087   6.747   9.281  1.5407 -0.0385 -0.5480
22652SOL     OW72893   1.670   7.935   2.347 -0.1575  0.1803 -0.0005
22652SOL    HW172894   1.591   7.981   2.377 -0.4980  1.0764 -2.0779
22652SOL    HW272895   1.742   7.992   2.372 -0.5343  1.6318 -1.9208
22653SOL     OW72896   3.844   3.825   8.411 -0.2714  0.2439 -0.4757
22653SOL    HW172897   3.917   3.820   8.473  0.3822  1.7514 -1.0751
22653SOL    HW272898   3.822   3.918   8.407 -2.3584 -0.1878 -0.1959
22654SOL     OW72899   6.454  10.940   3.551  0.5495  0.1558 -0.2015
22654SOL    HW172900   6.383  10.941   3.488 -0.7835 -0.9057  1.2112
22654SOL    HW272901   6.412  10.918   3.634  2.4391  0.1681  0.8096
22655SOL     OW72902   3.281   6.933   5.103 -0.4906  0.4107  0.1676
22655SOL    HW172903   3.225   6.856   5.091  2.0672 -1.7542  1.0305
22655SOL    HW272904   3.279   6.950   5.197 -1.9622  2.2332 -0.1506
22656SOL     OW72905   3.595   1.753   2.387 -0.6359  0.1798  0.1812
22656SOL    HW172906   3.520   1.723   2.335 -0.7514 -2.3110  1.6053
22656SOL    HW272907   3.672   1.729   2.335 -0.7839 -1.3275  0.5828
22657SOL     OW72908   8.345  10.529   7.064  0.0827 -0.0666 -0.4345
22657SOL    HW172909   8.382  10.459   7.010  0.5365  0.9658 -1.4943
22657SOL    HW272910   8.253  10.506   7.073  0.2047 -0.7466 -0.8657
22658SOL     OW72911   5.860   6.669   8.417 -0.3820 -0.4173  0.1929
22658SOL    HW172912   5.782   6.628   8.453 -0.8186 -0.7644 -1.0954
22658SOL    HW272913   5.861   6.757   8.455 -1.2149 -0.5260  0.4814
22659SOL     OW72914   8.224   3.415   9.083  0.5989  0.0596  0.4220
22659SOL    HW172915   8.276   3.335   9.075  0.6314  0.2357 -1.4440
22659SOL    HW272916   8.134   3.387   9.067  0.9015  0.7648 -3.5273
22660SOL     OW72917   8.069   0.016   9.368 -0.5893 -0.4179  0.0536
22660SOL    HW172918   8.109   0.083   9.311  1.9865 -0.8494  1.2024
22660SOL    HW272919   8.081  -0.066   9.321 -0.8749 -0.4594  0.0514
22661SOL     OW72920  10.226   9.280   0.198 -0.4241  0.4727  0.3387
22661SOL    HW172921  10.132   9.266   0.215 -0.6708  0.5100 -0.9254
22661SOL    HW272922  10.267   9.270   0.284 -1.3386 -1.5449  0.5956
22662SOL     OW72923   9.454   5.418   0.600 -0.5464  0.3538  0.1210
22662SOL    HW172924   9.390   5.350   0.618 -0.6353  0.5877  0.7048
22662SOL    HW272925   9.533   5.391   0.647 -0.7016  0.8431  0.6717
22663SOL     OW72926   1.923   8.843   1.610  0.0337 -0.3590  0.4559
22663SOL    HW172927   1.948   8.751   1.620  1.8141  0.0987  0.4672
22663SOL    HW272928   1.947   8.883   1.694  0.4695  0.3718 -0.0113
22664SOL     OW72929   7.643   8.769   3.902  0.6283 -0.2001 -0.0341
22664SOL    HW172930   7.672   8.681   3.878 -1.0504 -0.9894  0.6552
22664SOL    HW272931   7.575   8.790   3.838  1.0063  0.6014 -0.1818
22665SOL     OW72932  10.967   7.445   8.776 -0.0543 -0.3131  0.2739
22665SOL    HW172933  10.902   7.457   8.707 -0.6133  0.5175  0.9196
22665SOL    HW272934  10.946   7.360   8.816  0.6095 -1.0551 -0.8953
22666SOL     OW72935   4.751   8.240   8.065 -0.2931 -0.6789 -0.4295
22666SOL    HW172936   4.771   8.283   7.981  0.0209  1.6029  0.7296
22666SOL    HW272937   4.834   8.205   8.095  0.2046  0.9665  0.2006
22667SOL     OW72938  10.414   8.857   0.298  1.0245 -0.3425  0.5769
22667SOL    HW172939  10.320   8.876   0.292  0.9568  0.1502  2.5219
22667SOL    HW272940  10.418   8.767   0.331  1.1256  0.4377  2.9153
22668SOL     OW72941   8.985   0.618   2.147 -0.4804  0.0982 -0.6921
22668SOL    HW172942   8.940   0.681   2.203  0.0376  0.7531 -0.9907
22668SOL    HW272943   9.078   0.636   2.160 -0.3101 -0.9591 -0.3959
22669SOL     OW72944   9.095   4.243   7.412 -0.7924 -0.1365 -0.5452
22669SOL    HW172945   9.076   4.277   7.499 -2.7137  1.1442 -1.3826
22669SOL    HW272946   9.160   4.175   7.426  1.4257  2.1999  1.5164
22670SOL     OW72947   2.995   5.586   3.328  0.0250 -0.5350 -0.5026
22670SOL    HW172948   3.004   5.674   3.364 -1.1349 -1.0544  1.1674
22670SOL    HW272949   2.904   5.581   3.299  0.1842 -1.0755 -0.9459
22671SOL     OW72950   2.257   5.546   1.128  0.3469 -0.0974 -0.3108
22671SOL    HW172951   2.216   5.475   1.077 -0.0769 -0.4657  0.5206
22671SOL    HW272952   2.351   5.535   1.113  0.3159 -1.1147  0.1486
22672SOL     OW72953   3.150   6.063   5.610 -0.0457  0.8926 -0.6890
22672SOL    HW172954   3.056   6.084   5.606  0.1175  1.5045 -1.5240
22672SOL    HW272955   3.185   6.123   5.676 -0.2712  0.5025 -0.2023
22673SOL     OW72956  11.019   9.987   6.606  0.3546 -0.1751  0.0497
22673SOL    HW172957  11.056  10.075   6.603  1.8525 -0.7759  0.2331
22673SOL    HW272958  10.956   9.990   6.678  0.6362  0.6545  0.2736
22674SOL     OW72959   1.424   1.421   2.708  0.4531 -0.5500  0.0553
22674SOL    HW172960   1.509   1.436   2.749  0.6743  0.0309 -0.6134
22674SOL    HW272961   1.401   1.505   2.669 -0.8243 -0.4521  0.9481
22675SOL     OW72962   7.685   2.427   8.074  0.4668  0.7116  0.1342
22675SOL    HW172963   7.607   2.373   8.059  1.2702  0.1550 -2.5210
22675SOL    HW272964   7.731   2.382   8.145 -0.9966  0.3751  0.9235
22676SOL     OW72965   2.061   6.846   7.927 -0.5578  0.2875 -0.0699
22676SOL    HW172966   2.065   6.897   8.008 -3.2568  1.3198 -0.4572
22676SOL    HW272967   1.972   6.810   7.926 -1.3535  1.8590 -3.3617
22677SOL     OW72968   4.654   3.321   6.427  0.2815 -0.1293  0.5234
22677SOL    HW172969   4.739   3.365   6.434  1.0293 -1.5527  0.7355
22677SOL    HW272970   4.607   3.370   6.360  1.3752  0.5311  0.2156
22678SOL     OW72971   8.470   3.635   9.998 -0.1629  0.0822 -0.0743
22678SOL    HW172972   8.428   3.605  10.078 -0.5892 -0.6464 -0.5599
22678SOL    HW272973   8.397   3.651   9.937  0.2499 -2.1815 -1.2692
22679SOL     OW72974   6.748   6.360  10.477 -0.0233 -0.5463  0.7013
22679SOL    HW172975   6.815   6.416  10.438  1.3855 -2.4546  0.2129
22679SOL    HW272976   6.791   6.321  10.553 -0.3060 -2.2872  0.0279
22680SOL     OW72977   9.071  10.905  10.985 -0.4769  0.0589  0.4148
22680SOL    HW172978   9.042  10.961  11.057 -4.1072  0.9094 -1.4396
22680SOL    HW272979   9.006  10.835  10.983  0.2718 -0.6208 -1.2261
22681SOL     OW72980   6.212   5.034   5.707  0.0537  0.6150 -0.0690
22681SOL    HW172981   6.245   4.976   5.638  2.7824  1.5039  0.3548
22681SOL    HW272982   6.233   5.122   5.676 -0.4352  1.1405  1.0358
22682SOL     OW72983   2.367   1.208  10.005  0.1896  0.0869 -0.2188
22682SOL    HW172984   2.433   1.140   9.994  1.2683  1.0576  0.0414
22682SOL    HW272985   2.315   1.180  10.080  1.4216  0.1585  0.6947
22683SOL     OW72986   7.661   4.694   6.091  0.1938 -0.7978  0.6781
22683SOL    HW172987   7.587   4.745   6.122  0.6496 -0.1680  0.7467
22683SOL    HW272988   7.628   4.649   6.013 -0.0138  0.1524  0.2072
22684SOL     OW72989   0.762   6.319   3.123 -0.2361 -0.1563  0.7529
22684SOL    HW172990   0.737   6.286   3.036 -0.3559  2.6474 -0.3898
22684SOL    HW272991   0.680   6.322   3.172 -0.8765  1.6463 -0.3292
22685SOL     OW72992   4.993  10.820   7.150  0.4736 -0.1851 -0.2129
22685SOL    HW172993   5.020  10.863   7.069  0.7875  1.0096  0.5009
22685SOL    HW272994   4.949  10.740   7.121 -1.2883  1.2210 -1.6661
22686SOL     OW72995   8.834   6.406   9.274  0.6817  0.0046 -0.0952
22686SOL    HW172996   8.876   6.421   9.190 -0.0426 -0.9819 -0.6499
22686SOL    HW272997   8.791   6.489   9.295  0.7998  0.2310 -0.7338
22687SOL     OW72998   7.611   7.852   2.429 -0.1424  0.1740 -0.0916
22687SOL    HW172999   7.618   7.907   2.351 -1.5325 -0.0996 -0.4381
22687SOL    HW273000   7.570   7.771   2.398  1.2941 -0.8421  0.5302
22688SOL     OW73001   8.922  11.333   1.875 -1.0763  0.2746 -0.1245
22688SOL    HW173002   8.955  11.310   1.788  1.0364  3.3054 -0.2806
22688SOL    HW273003   8.903  11.249   1.916 -0.8769 -1.3139 -3.0087
22689SOL     OW73004   2.175   8.259   6.180  0.2061  0.2114 -0.1868
22689SOL    HW173005   2.195   8.179   6.130  0.4604  0.4361 -0.4450
22689SOL    HW273006   2.259   8.286   6.217  0.2665  0.7924 -0.7367
22690SOL     OW73007   6.718   2.528   4.623 -0.2482  0.0587  0.3827
22690SOL    HW173008   6.678   2.557   4.541 -1.0290 -2.3160 -0.1604
22690SOL    HW273009   6.732   2.608   4.673  1.5759  1.7763 -2.5911
22691SOL     OW73010   2.781   6.751   2.475 -0.1049 -0.4431  0.0974
22691SOL    HW173011   2.748   6.663   2.454 -2.3091 -0.1511  1.9623
22691SOL    HW273012   2.794   6.749   2.569  0.8978  0.9397  0.0100
22692SOL     OW73013  11.603   5.053   3.340 -0.0445  0.1569  0.4984
22692SOL    HW173014  11.590   5.119   3.408 -0.6408 -0.9217  1.4741
22692SOL    HW273015  11.565   4.973   3.377  2.5210 -1.2893  0.2530
22693SOL     OW73016   9.217   2.752   7.031 -0.1088  0.5199 -0.7488
22693SOL    HW173017   9.139   2.790   7.071  0.0486 -0.1059  0.2012
22693SOL    HW273018   9.211   2.776   6.939 -0.9103  1.3205 -0.5049
22694SOL     OW73019   1.414   4.993   0.795 -0.2819 -0.4801  0.0764
22694SOL    HW173020   1.451   5.027   0.877 -2.2647  2.3610 -0.0748
22694SOL    HW273021   1.443   4.902   0.793  1.6530 -0.0879  2.8354
22695SOL     OW73022   4.809   9.417   5.974  0.2471  0.6355 -0.0381
22695SOL    HW173023   4.811   9.418   6.070 -0.9051 -0.0003  0.0179
22695SOL    HW273024   4.723   9.452   5.952 -0.6747 -1.8490 -0.7269
22696SOL     OW73025   2.897   4.523   4.974  0.2001 -0.0255  0.7624
22696SOL    HW173026   2.967   4.484   4.923  1.2426  0.0351  2.1036
22696SOL    HW273027   2.869   4.454   5.034 -1.6146 -0.3869 -0.3994
22697SOL     OW73028   0.285   9.978   8.050  0.6478  0.0686  0.1401
22697SOL    HW173029   0.199   9.998   8.087  0.1871 -0.4237 -0.6405
22697SOL    HW273030   0.343   9.976   8.125  0.1229  1.1672  0.5986
22698SOL     OW73031   4.158   4.108   4.234 -0.0558  0.2464  0.6594
22698SOL    HW173032   4.142   4.151   4.318 -0.0685  0.5240  0.5160
22698SOL    HW273033   4.106   4.029   4.237 -0.0087  0.2253  0.9406
22699SOL     OW73034   0.707   0.722   9.562  0.0245  0.7088  0.0654
22699SOL    HW173035   0.700   0.637   9.605 -0.1554  0.4431 -0.4770
22699SOL    HW273036   0.742   0.781   9.629 -1.8711  0.7059  1.1237
22700SOL     OW73037   3.305   5.295   5.024 -0.1687  0.7039  0.0821
22700SOL    HW173038   3.340   5.291   5.113 -1.9841 -1.7404  0.7959
22700SOL    HW273039   3.364   5.241   4.972 -2.0356 -2.6031  1.0873
22701SOL     OW73040  11.410  10.522   4.440  0.2806 -0.8275 -0.2214
22701SOL    HW173041  11.343  10.542   4.375 -0.3652  1.7673  1.1045
22701SOL    HW273042  11.415  10.601   4.494  1.4053 -2.5280  2.3369
22702SOL     OW73043   5.396   7.103   3.794  0.6938 -0.1134  0.2581
22702SOL    HW173044   5.476   7.151   3.773  1.0737 -0.0874  1.6663
22702SOL    HW273045   5.326   7.169   3.787  0.6598 -0.3161 -1.7379
22703SOL     OW73046   5.287   6.957   2.226  0.3405  0.6002  0.2239
22703SOL    HW173047   5.214   6.976   2.284  1.4742 -0.4295  2.0926
22703SOL    HW273048   5.296   6.861   2.229  0.5540  0.5313 -1.5200
22704SOL     OW73049   4.408   1.607   7.060  0.5047 -0.1939  0.0333
22704SOL    HW173050   4.351   1.621   6.985  0.0886 -0.5779  0.2702
22704SOL    HW273051   4.354   1.558   7.122  1.4585 -1.6255 -0.2202
22705SOL     OW73052  11.284   6.297   6.005 -0.6839 -0.0042  0.7726
22705SOL    HW173053  11.358   6.286   6.065  0.4142  1.1594 -0.3165
22705SOL    HW273054  11.265   6.391   6.007 -0.0536  0.2207 -1.3004
22706SOL     OW73055   9.758   6.267   1.918 -0.0534  0.4607  0.2079
22706SOL    HW173056   9.758   6.230   1.830  2.4695 -1.0380  0.7048
22706SOL    HW273057   9.673   6.242   1.955 -0.1946 -1.0484 -1.0109
22707SOL     OW73058   2.693   1.488   6.421  0.3018  0.3351  0.3143
22707SOL    HW173059   2.667   1.567   6.468  2.2504 -1.0446  4.1229
22707SOL    HW273060   2.773   1.514   6.374 -0.7932  1.3282 -1.0966
22708SOL     OW73061   8.548   9.872   3.350 -0.0044  0.0405  0.2873
22708SOL    HW173062   8.512   9.843   3.266 -1.1781  0.1996  0.7185
22708SOL    HW273063   8.480   9.930   3.387 -0.3652 -1.5069  2.2084
22709SOL     OW73064   3.887   2.830   2.644 -0.4741  0.1774  0.4607
22709SOL    HW173065   3.793   2.831   2.626 -0.5697 -2.6579  0.4832
22709SOL    HW273066   3.898   2.883   2.723 -2.0724  0.2829  0.6272
22710SOL     OW73067   1.523   0.825   8.305  0.3613  0.0196 -0.0668
22710SOL    HW173068   1.451   0.777   8.265 -0.2499  0.6729  0.2389
22710SOL    HW273069   1.602   0.779   8.276 -0.2421 -1.8383  1.1068
22711SOL     OW73070  10.917   9.926   2.985  0.3591  0.1377  0.1173
22711SOL    HW173071  10.927   9.836   2.954  0.0145 -0.2675  1.1455
22711SOL    HW273072  10.896   9.917   3.077 -1.0625  1.2356 -0.0700
22712SOL     OW73073   9.846   4.327   7.559  0.1298  0.1844 -0.8726
22712SOL    HW173074   9.909   4.293   7.496  0.4889 -0.0579 -0.3947
22712SOL    HW273075   9.858   4.271   7.636 -2.7455 -1.8683 -1.7593
22713SOL     OW73076   0.486   2.546   0.265  0.0955 -0.2062  0.9128
22713SOL    HW173077   0.434   2.499   0.330 -0.4517  0.2559  0.8212
22713SOL    HW273078   0.560   2.582   0.315  0.7796 -1.5222  0.8991
22714SOL     OW73079   2.772   6.888   6.583  0.1934 -0.7889 -0.7636
22714SOL    HW173080   2.728   6.947   6.523  1.1406 -1.9983 -2.7525
22714SOL    HW273081   2.701   6.850   6.636 -0.5328  1.1700 -0.2525
22715SOL     OW73082   4.177   5.464   1.279 -0.0562  0.6085 -0.1802
22715SOL    HW173083   4.120   5.507   1.215  1.0721  1.5992 -0.5546
22715SOL    HW273084   4.230   5.403   1.228 -1.9141 -1.6591  0.3940
22716SOL     OW73085   4.531   9.508   0.572 -0.2971 -0.7514  0.5254
22716SOL    HW173086   4.489   9.470   0.495 -0.6109 -0.0979  0.3690
22716SOL    HW273087   4.517   9.444   0.641 -1.7988 -0.4393  0.5426
22717SOL     OW73088   9.356   5.636   7.811  0.3525  0.0532 -0.5667
22717SOL    HW173089   9.450   5.622   7.799  0.0864 -1.1735 -1.4119
22717SOL    HW273090   9.345   5.647   7.906  1.4257  0.9863 -0.5274
22718SOL     OW73091   4.662   6.209   6.161  0.3235 -0.4374  0.3715
22718SOL    HW173092   4.587   6.156   6.188  0.1958  0.4183  1.8023
22718SOL    HW273093   4.714   6.220   6.240 -0.4479  2.8182  0.5655
22719SOL     OW73094   6.712   3.209   1.999  0.2577  0.2835 -0.3307
22719SOL    HW173095   6.702   3.304   1.985 -2.6536 -0.0198 -0.8844
22719SOL    HW273096   6.645   3.170   1.943 -0.2948 -1.9672  1.7746
22720SOL     OW73097   6.903   3.087   8.715  0.1636  0.1713  0.1685
22720SOL    HW173098   6.863   3.174   8.703 -0.0138 -0.0821 -1.1244
22720SOL    HW273099   6.841   3.041   8.772 -0.2726  0.5435  0.0089
22721SOL     OW73100  11.490   1.868  11.476  0.1767 -0.0308  0.7429
22721SOL    HW173101  11.548   1.944  11.483  2.3157 -1.4360 -0.6739
22721SOL    HW273102  11.451   1.860  11.563  0.8185  1.9410  1.2727
22722SOL     OW73103   1.293   7.710   3.424  0.0923  0.4137 -0.1086
22722SOL    HW173104   1.388   7.707   3.414  0.0981 -1.1319  0.2048
22722SOL    HW273105   1.260   7.727   3.335  0.6052 -0.7253 -0.5315
22723SOL     OW73106   4.760   2.146   8.989 -0.1000 -0.0946  0.3065
22723SOL    HW173107   4.766   2.241   9.000  0.1368 -0.0719  0.0001
22723SOL    HW273108   4.750   2.134   8.895 -0.6981 -0.3474  0.3958
22724SOL     OW73109   1.698   8.725  10.018  0.2118  0.4240 -0.5099
22724SOL    HW173110   1.631   8.709   9.951 -1.0197  0.0360  0.7819
22724SOL    HW273111   1.703   8.643  10.067  0.2370  1.1010  0.6352
22725SOL     OW73112   4.934   3.862   4.000 -0.9953 -0.5350 -0.0455
22725SOL    HW173113   4.968   3.914   4.073  3.2688 -0.1998 -1.9953
22725SOL    HW273114   4.948   3.772   4.027 -0.3122 -0.4356 -0.0520
22726SOL     OW73115   2.363  10.953   0.839  0.3941  0.4418  0.3062
22726SOL    HW173116   2.418  10.933   0.763  0.2295  0.3147  0.2187
22726SOL    HW273117   2.280  10.981   0.802 -0.2147 -1.0771  0.4197
22727SOL     OW73118  11.556   0.305  10.547 -0.1803 -0.1031 -0.2424
22727SOL    HW173119  11.509   0.284  10.466  1.7218 -1.7595 -1.0051
22727SOL    HW273120  11.625   0.366  10.519 -0.2387  0.2537  0.3774
22728SOL     OW73121   2.381   7.893   7.246  0.1493  0.3974 -0.2364
22728SOL    HW173122   2.451   7.888   7.311  0.7304  0.1018 -0.8800
22728SOL    HW273123   2.365   7.803   7.220 -1.8883  0.2257  1.3754
22729SOL     OW73124   1.697   6.372   5.843 -0.3832  0.1821  0.3962
22729SOL    HW173125   1.739   6.393   5.926  1.3511 -0.2470 -0.3256
22729SOL    HW273126   1.604   6.374   5.863 -0.0333  0.4549  2.2569
22730SOL     OW73127   8.328   0.499   5.039  0.3496  0.1988 -0.1090
22730SOL    HW173128   8.324   0.579   5.091 -1.0268 -0.9724  1.7381
22730SOL    HW273129   8.244   0.456   5.054  1.2122 -1.8303 -0.6208
22731SOL     OW73130   2.645   7.241   5.755 -0.3346 -0.7408 -0.1698
22731SOL    HW173131   2.590   7.228   5.677  0.1157 -0.7023 -0.4958
22731SOL    HW273132   2.597   7.196   5.825 -1.7423  0.8839 -0.0299
22732SOL     OW73133   1.579   4.452  11.635  0.4210 -0.0545 -0.3579
22732SOL    HW173134   1.613   4.369  11.669 -1.4459 -0.1585  1.4004
22732SOL    HW273135   1.646   4.480  11.572  1.5956 -2.3639 -0.2663
22733SOL     OW73136  10.694  10.108   6.092 -0.0817  0.3094 -0.3651
22733SOL    HW173137  10.671  10.035   6.034  1.9382 -0.3905 -0.3417
22733SOL    HW273138  10.612  10.129   6.137 -0.9097 -1.3651 -1.0144
22734SOL     OW73139   1.552   7.946  10.338  0.7318  0.0948 -0.3524
22734SOL    HW173140   1.589   8.034  10.342  0.8751 -0.0021  0.5499
22734SOL    HW273141   1.559   7.912  10.427 -2.0551  0.3065  0.0459
22735SOL     OW73142   0.376  10.184   0.958  0.4397  0.0425  0.2071
22735SOL    HW173143   0.387  10.117   0.890 -1.3918 -0.6325  0.5328
22735SOL    HW273144   0.436  10.254   0.931 -0.0479 -0.2943 -1.9844
22736SOL     OW73145   5.219   3.540   1.138  0.1631 -0.3710 -0.2664
22736SOL    HW173146   5.166   3.486   1.079 -1.0465  0.6951 -0.2177
22736SOL    HW273147   5.267   3.478   1.192 -1.4414 -1.4253  0.0303
22737SOL     OW73148   5.423   2.195   6.508  0.0774 -0.0434  0.0979
22737SOL    HW173149   5.330   2.193   6.529 -0.1752  3.2182 -0.1834
22737SOL    HW273150   5.467   2.175   6.590 -0.9176  1.3499  1.0138
22738SOL     OW73151   6.028   7.500   9.817  0.0934  0.0897  0.0269
22738SOL    HW173152   6.072   7.577   9.853  0.9814 -0.0869 -0.6378
22738SOL    HW273153   6.029   7.436   9.888  1.8800 -0.2731 -0.2763
22739SOL     OW73154   5.178   2.691   6.701 -0.1860  0.8208  0.0347
22739SOL    HW173155   5.131   2.637   6.765 -0.1738 -0.6767 -1.1708
22739SOL    HW273156   5.243   2.738   6.754 -1.2327  0.8745  1.3360
22740SOL     OW73157   4.986   6.518   1.915 -0.0886 -0.0675  0.7960
22740SOL    HW173158   4.895   6.545   1.913 -0.7900 -2.3139 -0.0204
22740SOL    HW273159   5.026   6.575   1.981 -2.3106  0.2343  1.9767
22741SOL     OW73160  10.498  10.347  11.242 -0.6406  0.3882  0.3286
22741SOL    HW173161  10.498  10.267  11.296  0.1701  0.0192 -0.1969
22741SOL    HW273162  10.447  10.410  11.293 -3.4679 -1.1965 -0.3585
22742SOL     OW73163   3.419   8.837  10.911  0.2048  0.2244  0.3472
22742SOL    HW173164   3.406   8.922  10.953 -1.1449  0.6280 -0.8300
22742SOL    HW273165   3.333   8.814  10.876  0.8571 -1.0024 -0.5142
22743SOL     OW73166   3.086   1.749  11.367 -0.1819  0.0260  0.1262
22743SOL    HW173167   3.067   1.824  11.423  0.5818 -0.7450  1.4723
22743SOL    HW273168   3.085   1.784  11.278 -1.3551  1.2960  0.6098
22744SOL     OW73169   1.828   3.849   5.259 -0.5297 -0.3014 -0.2744
22744SOL    HW173170   1.919   3.879   5.259 -0.7022  0.4104  2.3268
22744SOL    HW273171   1.833   3.756   5.236  0.6869  0.0387 -1.5317
22745SOL     OW73172   8.145   5.482   9.811  0.1051 -0.4415  0.2729
22745SOL    HW173173   8.096   5.559   9.782  1.2367 -0.3387 -1.4916
22745SOL    HW273174   8.078   5.414   9.823 -0.5343 -0.2621 -1.8866
22746SOL     OW73175  11.401   5.934   1.724  0.2364  0.5888  0.6827
22746SOL    HW173176  11.347   5.861   1.695 -1.5745  2.4049 -0.8269
22746SOL    HW273177  11.472   5.893   1.775  0.4281 -2.3494 -1.6579
22747SOL     OW73178   6.624  11.165   5.255  0.0122  0.4206  0.0224
22747SOL    HW173179   6.653  11.206   5.173  0.5852 -1.2258 -0.6254
22747SOL    HW273180   6.704  11.146   5.303 -0.3350  1.9890  1.3398
22748SOL     OW73181   5.150   8.000   3.108  0.1129  0.5573  0.1172
22748SOL    HW173182   5.210   8.074   3.097 -0.0110  0.3299 -2.8662
22748SOL    HW273183   5.084   8.033   3.169 -0.3352  3.2547 -1.6320
22749SOL     OW73184  11.254   9.967  11.649  0.3250  0.0694  0.1675
22749SOL    HW173185  11.164   9.990  11.670  0.0395 -0.0456 -0.8641
22749SOL    HW273186  11.304  10.047  11.666  0.3453 -0.3607  2.4317
22750SOL     OW73187   6.884   1.147   2.365 -0.3087  0.2363  0.1610
22750SOL    HW173188   6.836   1.227   2.389 -0.9377 -0.4303  1.1771
22750SOL    HW273189   6.973   1.162   2.395  0.1565  1.4520 -1.6559
22751SOL     OW73190   0.130   5.039   8.106 -0.9750  0.1657 -0.5256
22751SOL    HW173191   0.112   4.982   8.181 -2.8112  2.1489  0.6613
22751SOL    HW273192   0.144   4.979   8.033 -0.2156 -1.8255  1.1683
22752SOL     OW73193   7.414   1.354   3.870  0.5962  0.6358 -0.5214
22752SOL    HW173194   7.406   1.363   3.775 -1.4553  0.6851 -0.3877
22752SOL    HW273195   7.347   1.413   3.906  1.2911  0.5721  0.9581
22753SOL     OW73196   4.605   3.508  10.795  0.0102 -0.2440  0.1435
22753SOL    HW173197   4.627   3.438  10.856  2.5045 -0.3376 -0.7438
22753SOL    HW273198   4.645   3.586  10.834  0.0783  0.0401 -0.4944
22754SOL     OW73199   8.194   4.059   2.489  0.1384  0.6746  0.2128
22754SOL    HW173200   8.226   3.991   2.430 -0.4278  0.9194 -0.3900
22754SOL    HW273201   8.209   4.141   2.442 -0.4422  0.8633  0.3424
22755SOL     OW73202   5.821   1.202   8.617 -0.2902  0.2143  0.2638
22755SOL    HW173203   5.784   1.272   8.563  2.1666  1.5167  0.1190
22755SOL    HW273204   5.766   1.126   8.599 -1.0958  1.2740 -2.0835
22756SOL     OW73205   7.436   7.066   8.253 -0.0649 -0.0574  0.0139
22756SOL    HW173206   7.463   7.091   8.165 -2.5295  1.9507 -0.2881
22756SOL    HW273207   7.432   7.148   8.302 -1.3380 -0.7593  1.1759
22757SOL     OW73208   0.496   1.803   8.858  0.1603  0.0381  0.5892
22757SOL    HW173209   0.568   1.801   8.795 -0.8511 -0.5213 -0.6026
22757SOL    HW273210   0.431   1.860   8.816 -0.4396 -0.1622  1.2457
22758SOL     OW73211   1.586   0.899   5.774  0.3076  0.0680 -0.3448
22758SOL    HW173212   1.507   0.953   5.774  0.6975  0.6433 -1.0774
22758SOL    HW273213   1.553   0.809   5.779 -0.3982  0.2934 -0.7913
22759SOL     OW73214   1.884   6.412  11.417 -0.2894  1.0960 -0.0932
22759SOL    HW173215   1.881   6.394  11.323  0.7266 -2.9604  0.4653
22759SOL    HW273216   1.952   6.479  11.426  1.1802 -0.0032 -2.1314
22760SOL     OW73217   5.989   8.845   2.984 -0.2452  0.0172 -0.1689
22760SOL    HW173218   5.932   8.768   2.985  0.7655 -0.7535  0.6468
22760SOL    HW273219   5.941   8.912   3.031 -0.6144 -0.5283  0.2426
22761SOL     OW73220   5.128   0.820   2.371  0.0349 -0.1439  0.2526
22761SOL    HW173221   5.103   0.729   2.387 -1.4125  0.1771 -0.0607
22761SOL    HW273222   5.201   0.835   2.431  1.2827 -1.9250 -0.7121
22762SOL     OW73223   0.396   0.647   1.734  0.1312 -0.6897  0.4523
22762SOL    HW173224   0.326   0.671   1.674  0.5363 -0.7169 -0.0396
22762SOL    HW273225   0.394   0.714   1.803  0.5240  0.1169 -0.3054
22763SOL     OW73226   1.393   3.015   4.569  0.3938  0.0842 -0.1485
22763SOL    HW173227   1.481   2.978   4.567 -0.0580 -1.2892  1.8438
22763SOL    HW273228   1.398   3.084   4.635  0.0268  0.1057 -0.1438
22764SOL     OW73229   5.136   8.730  10.184 -0.1188 -0.4243 -0.0579
22764SOL    HW173230   5.056   8.681  10.169 -0.4123 -0.6706  2.0849
22764SOL    HW273231   5.118   8.784  10.261  0.5206  2.3716 -1.7207
22765SOL     OW73232   1.148   8.593   4.102 -0.0106  0.5510 -0.1471
22765SOL    HW173233   1.112   8.508   4.077 -1.4251  0.9320  0.5023
22765SOL    HW273234   1.096   8.656   4.054 -1.4621  1.2047  2.1259
22766SOL     OW73235   7.501   8.805   5.954  1.0609 -0.1420 -0.7154
22766SOL    HW173236   7.488   8.750   6.031 -4.7046 -1.2257 -2.0010
22766SOL    HW273237   7.545   8.748   5.891 -0.7209 -1.8677 -0.5000
22767SOL     OW73238   2.683   9.011   8.521 -0.0018 -0.1470 -0.1242
22767SOL    HW173239   2.619   8.950   8.557 -1.3703  2.0847  1.4166
22767SOL    HW273240   2.731   9.045   8.596  0.3060  1.1486 -0.8681
22768SOL     OW73241   0.985   1.835   0.731 -0.4411 -0.0772  0.1597
22768SOL    HW173242   1.010   1.778   0.659 -0.7231 -1.2232  0.9394
22768SOL    HW273243   1.012   1.922   0.704  0.2601 -0.6229 -0.9407
22769SOL     OW73244   9.242   6.024   2.378  0.6045 -0.3326 -0.2363
22769SOL    HW173245   9.314   5.962   2.388 -0.7161 -1.8114  0.7583
22769SOL    HW273246   9.197   5.995   2.298  0.6187  0.0392 -0.3782
22770SOL     OW73247   6.342   2.860  10.482  0.5747  0.4045  0.1188
22770SOL    HW173248   6.364   2.898  10.397 -0.9091 -0.0400 -0.4824
22770SOL    HW273249   6.418   2.880  10.537  0.6693  2.5796 -0.6936
22771SOL     OW73250   1.609   4.679  10.118 -0.2737  0.3189  0.3053
22771SOL    HW173251   1.514   4.684  10.131 -0.6332 -0.4846 -1.6629
22771SOL    HW273252   1.635   4.599  10.164 -0.8440 -0.3416 -0.4912
22772SOL     OW73253   7.786   8.165   3.428 -0.0728  0.2340 -0.2901
22772SOL    HW173254   7.776   8.070   3.438  0.6639  0.2823  1.1696
22772SOL    HW273255   7.824   8.177   3.341  1.9924 -0.9805  0.3990
22773SOL     OW73256   9.360   9.937   4.150 -0.1685 -0.4557 -0.1876
22773SOL    HW173257   9.436   9.879   4.159  1.1116  1.0417 -0.8226
22773SOL    HW273258   9.350   9.948   4.055 -1.6700 -1.2157 -0.1460
22774SOL     OW73259   6.429   8.333   4.854 -0.3484 -0.1596 -0.0448
22774SOL    HW173260   6.419   8.245   4.817 -1.8167  0.3491 -0.9318
22774SOL    HW273261   6.402   8.323   4.945  1.7452 -1.0768  0.5477
22775SOL     OW73262   4.632   3.295   5.234 -0.3229  0.5441 -0.3603
22775SOL    HW173263   4.706   3.338   5.192  0.3680 -0.2429  0.0159
22775SOL    HW273264   4.645   3.310   5.328  0.1743 -0.8247 -0.1870
22776SOL     OW73265   1.048   3.073   5.937 -0.6127 -0.0471 -0.3998
22776SOL    HW173266   1.110   3.115   5.878 -1.5403  3.1615  0.6843
22776SOL    HW273267   0.969   3.128   5.931 -1.7943 -1.4083  1.5356
22777SOL     OW73268   7.044   3.455  10.080 -0.4033  0.2849 -0.5667
22777SOL    HW173269   7.083   3.479   9.996  1.8746  0.6921  0.5232
22777SOL    HW273270   7.000   3.535  10.110  0.3898  0.7404 -0.5622
22778SOL     OW73271   2.654   0.167   4.382 -0.4200  0.0602 -0.3805
22778SOL    HW173272   2.598   0.132   4.313 -3.0488  3.2109 -0.1247
22778SOL    HW273273   2.709   0.232   4.338 -0.3321  0.3271  0.1142
22779SOL     OW73274   2.149   0.621  10.420 -0.4571  0.3566  0.1346
22779SOL    HW173275   2.152   0.538  10.371 -0.2058 -0.0870  0.8771
22779SOL    HW273276   2.199   0.682  10.366 -0.4522 -0.0365 -0.3155
22780SOL     OW73277   6.430   9.993   9.478 -0.1147 -0.2266  0.2072
22780SOL    HW173278   6.490   9.925   9.509  1.0794  0.0764 -1.3494
22780SOL    HW273279   6.348   9.946   9.460  0.3980 -1.0887  0.0628
22781SOL     OW73280   5.710   1.526   5.836  0.1665 -0.5505  0.0759
22781SOL    HW173281   5.625   1.480   5.837  0.5108 -1.2577 -1.0065
22781SOL    HW273282   5.717   1.560   5.747  1.1471 -0.7368  0.0737
22782SOL     OW73283   2.882   5.814   5.325 -0.0355  0.5339  0.3435
22782SOL    HW173284   2.967   5.770   5.330 -1.0017 -1.2877  1.6704
22782SOL    HW273285   2.900   5.895   5.277  1.9296 -1.0149 -1.7095
22783SOL     OW73286   0.796   3.436  11.284  0.1123 -0.5199 -0.0946
22783SOL    HW173287   0.875   3.488  11.267  0.8900 -1.2520  1.1096
22783SOL    HW273288   0.737   3.459  11.212  0.1783  2.4210  0.6450
22784SOL     OW73289   1.818   2.056  11.028  0.3277 -0.0461 -0.4326
22784SOL    HW173290   1.770   2.137  11.014  1.8346  0.9990  0.2063
22784SOL    HW273291   1.836   2.055  11.122  0.2108 -1.2028 -0.4094
22785SOL     OW73292   6.078   0.855  10.083 -0.2559  0.1012  0.5028
22785SOL    HW173293   6.154   0.865  10.026  0.2130  0.3302  1.1499
22785SOL    HW273294   6.048   0.945  10.100 -1.1724 -0.0142 -0.3840
22786SOL     OW73295   6.521   8.929  10.959 -0.4348 -0.3189  0.0466
22786SOL    HW173296   6.531   9.011  10.911  1.5457  0.1193  1.0910
22786SOL    HW273297   6.611   8.896  10.970 -0.9894 -1.4230  1.6638
22787SOL     OW73298   7.438   5.969   6.836 -0.5594  0.3403 -0.3015
22787SOL    HW173299   7.426   6.053   6.791  0.5490 -0.4387 -2.1776
22787SOL    HW273300   7.498   5.988   6.907 -1.7474  1.4728  0.4400
22788SOL     OW73301   4.413   5.465   6.368  0.6216 -0.0540 -0.3207
22788SOL    HW173302   4.448   5.479   6.280 -0.9329 -0.1065 -0.9821
22788SOL    HW273303   4.318   5.465   6.357  0.3914 -0.9697  1.2215
22789SOL     OW73304   2.232   6.909   3.015  0.4958  0.4776  0.3653
22789SOL    HW173305   2.298   6.881   2.952  1.2765 -0.4866  1.5513
22789SOL    HW273306   2.149   6.883   2.976  0.9051  0.5232 -0.5597
22790SOL     OW73307   6.269   7.836  10.579 -0.0212 -0.5191  0.6702
22790SOL    HW173308   6.264   7.807  10.670  2.9513 -2.6325  0.3080
22790SOL    HW273309   6.227   7.765  10.530  0.8309 -0.7677  0.2713
22791SOL     OW73310   9.324  11.407   8.253 -0.0484 -0.6588 -0.1859
22791SOL    HW173311   9.365  11.322   8.240  1.4902  0.0418 -0.0286
22791SOL    HW273312   9.396  11.468   8.268 -1.0399  0.9030 -1.4106
22792SOL     OW73313   0.276   1.712   1.015  0.7418  0.0811  0.2956
22792SOL    HW173314   0.272   1.743   1.106 -1.9312 -1.1950  0.6909
22792SOL    HW273315   0.367   1.684   1.004  1.6303  2.0231  1.9073
22793SOL     OW73316   2.738   9.128  10.968  0.0197  0.0108  0.3631
22793SOL    HW173317   2.686   9.179  10.907  1.6387 -0.0538 -1.1425
22793SOL    HW273318   2.691   9.045  10.977  0.5063 -0.5900 -2.0492
22794SOL     OW73319   9.053   2.830   5.729  0.6688  0.2105 -0.0893
22794SOL    HW173320   9.041   2.778   5.651  0.4212  0.7109 -0.3934
22794SOL    HW273321   9.015   2.916   5.707  0.0887  0.1906  0.7570
22795SOL     OW73322   3.240   2.596   6.949  0.4609  1.2021  0.4293
22795SOL    HW173323   3.304   2.625   6.885  0.2240  1.1565  0.1695
22795SOL    HW273324   3.161   2.646   6.929  0.3266  1.0463  0.5627
22796SOL     OW73325   9.147   2.779   6.053 -0.0645 -0.1234  0.1384
22796SOL    HW173326   9.065   2.818   6.081  0.6083  1.6665 -0.2757
22796SOL    HW273327   9.214   2.829   6.099  0.8141 -1.6939  0.6360
22797SOL     OW73328   4.015   9.941   1.491  0.1883 -0.6818 -0.1029
22797SOL    HW173329   4.050   9.906   1.409 -0.2932 -1.1473 -0.1110
22797SOL    HW273330   3.922   9.921   1.489 -0.0009  0.1318  0.1403
22798SOL     OW73331   0.045   7.456   5.826 -0.7340 -0.1125 -0.1219
22798SOL    HW173332   0.054   7.525   5.892 -1.0321  0.9612 -1.1636
22798SOL    HW273333  -0.048   7.454   5.806 -0.9768 -1.9306  1.0134
22799SOL     OW73334  11.023   0.826  10.193  0.0568  1.0099  0.6650
22799SOL    HW173335  10.999   0.742  10.231  1.7764  0.4418  0.5574
22799SOL    HW273336  11.014   0.889  10.265 -0.2097  0.5672  1.0217
22800SOL     OW73337   3.816   2.345   1.644 -0.3210  0.0417 -0.0841
22800SOL    HW173338   3.774   2.336   1.729  1.2131 -1.4457  0.5726
22800SOL    HW273339   3.793   2.265   1.597 -0.1758  0.3054 -0.6151
22801SOL     OW73340   0.554  11.349   6.875  0.2542  0.1119  0.0022
22801SOL    HW173341   0.509  11.267   6.855 -1.6162  1.0030  0.3475
22801SOL    HW273342   0.485  11.415   6.876  1.0609  1.0992  3.6076
22802SOL     OW73343   5.534   1.947   1.462  0.0618 -0.3868  0.4229
22802SOL    HW173344   5.468   1.909   1.520 -1.6880 -0.7521 -1.6658
22802SOL    HW273345   5.568   1.873   1.412  1.5865 -0.0903  0.9529
22803SOL     OW73346   3.065   6.953   7.695 -0.1220  0.3988 -0.1286
22803SOL    HW173347   3.033   6.883   7.752 -0.4333  1.5447  1.1284
22803SOL    HW273348   3.139   6.914   7.648 -0.8533 -1.0445 -0.1322
22804SOL     OW73349   0.111   3.936   1.401  0.1559  0.2248  0.1134
22804SOL    HW173350   0.110   3.880   1.478 -0.7435 -1.9257 -1.3760
22804SOL    HW273351   0.021   3.935   1.369  0.0869  2.6086  0.0267
22805SOL     OW73352   4.570   5.158   7.964  0.7580  0.0160 -0.1857
22805SOL    HW173353   4.653   5.184   8.002  0.2823  0.6629  0.4332
22805SOL    HW273354   4.569   5.198   7.877  1.5409 -0.8809 -0.6326
22806SOL     OW73355   0.054   5.712   8.582 -0.2313  0.0006  0.4783
22806SOL    HW173356   0.142   5.701   8.616  0.7090 -1.2830 -2.1093
22806SOL    HW273357   0.000   5.653   8.635  1.0114 -1.3190  0.3340
22807SOL     OW73358   4.938   0.478   8.277 -0.4956  0.4246  0.3804
22807SOL    HW173359   4.973   0.542   8.339 -0.8856  0.3778  0.6498
22807SOL    HW273360   4.886   0.530   8.216 -0.4979  0.4089  0.3689
22808SOL     OW73361   9.064   9.876   5.366 -0.3198  0.0719  0.1497
22808SOL    HW173362   8.982   9.849   5.408  0.2120 -1.2528  0.3972
22808SOL    HW273363   9.064   9.830   5.282  0.1480  0.1077  0.1311
22809SOL     OW73364   0.891   5.626   8.784  0.0674  0.0201  0.3158
22809SOL    HW173365   0.851   5.694   8.730 -1.1357 -0.3391  0.7309
22809SOL    HW273366   0.963   5.671   8.829 -0.9628  1.1621  0.9086
22810SOL     OW73367   3.455   1.551  10.625 -0.3450  0.3105  0.3424
22810SOL    HW173368   3.505   1.584  10.550  0.5127  0.4275  0.9450
22810SOL    HW273369   3.490   1.463  10.640 -0.4843  0.3023  0.6235
22811SOL     OW73370   5.498   1.577   8.635 -0.4282  0.1753  0.0158
22811SOL    HW173371   5.555   1.540   8.568  1.5508 -0.5716  1.9921
22811SOL    HW273372   5.418   1.524   8.631  0.0191 -0.4426 -1.0975
22812SOL     OW73373   4.407   1.397   3.847 -1.2223  0.1700  0.6174
22812SOL    HW173374   4.318   1.362   3.842 -0.9273 -0.5417  0.1844
22812SOL    HW273375   4.396   1.487   3.879 -1.9573 -0.4856  2.3200
22813SOL     OW73376   6.360  11.426   0.445 -0.3214  0.0619  0.4289
22813SOL    HW173377   6.352  11.333   0.420  1.2855  0.1623 -0.6395
22813SOL    HW273378   6.427  11.426   0.514  0.7436  0.5521 -0.5823
22814SOL     OW73379   9.112   4.169  10.141 -0.6651  0.3171  0.5289
22814SOL    HW173380   9.192   4.143  10.186  0.4455 -0.0239 -1.5378
22814SOL    HW273381   9.073   4.087  10.111 -1.0836  0.5722  0.3546
22815SOL     OW73382   3.128  11.482   9.443 -0.5341  0.5988  0.5830
22815SOL    HW173383   3.115  11.463   9.351  0.1958  0.1753  0.5550
22815SOL    HW273384   3.040  11.491   9.480 -0.8249  1.0519 -0.2027
22816SOL     OW73385   7.334   8.158   4.685  0.6770  0.1972  0.0106
22816SOL    HW173386   7.309   8.194   4.600 -0.5407  2.0007  1.0697
22816SOL    HW273387   7.368   8.233   4.734  0.9681 -0.7220  1.2611
22817SOL     OW73388  11.032  10.271   7.853 -0.1048  0.3592  0.2217
22817SOL    HW173389  11.062  10.320   7.930  0.4364 -1.8533  1.5074
22817SOL    HW273390  11.070  10.184   7.864 -1.5553 -0.5727 -1.6245
22818SOL     OW73391   2.997   5.130   8.082 -0.4980  0.6131 -0.4375
22818SOL    HW173392   2.935   5.128   8.009 -0.2466  0.6908 -0.6547
22818SOL    HW273393   3.067   5.070   8.056 -0.2207  0.9293 -0.4330
22819SOL     OW73394   1.405   1.336   2.130 -0.3852 -0.1696 -0.0729
22819SOL    HW173395   1.363   1.297   2.207 -0.0040 -0.0190  0.2183
22819SOL    HW273396   1.385   1.277   2.059 -0.1076 -0.7176  0.2978
22820SOL     OW73397   7.910   5.763   4.337 -0.8977 -0.2721 -0.4041
22820SOL    HW173398   7.883   5.801   4.254 -1.1222 -0.5321 -0.4494
22820SOL    HW273399   7.887   5.828   4.403  2.2503  1.4704 -0.8081
22821SOL     OW73400   8.062   0.671   1.035 -0.2262 -0.7088  0.0065
22821SOL    HW173401   7.988   0.621   1.001 -0.5843 -0.3497  0.2507
22821SOL    HW273402   8.025   0.722   1.107 -0.2944  1.2902 -1.3721
22822SOL     OW73403   4.566   1.300   7.508  0.3978  0.0087  0.2077
22822SOL    HW173404   4.548   1.363   7.438  0.4765  0.1833  0.3407
22822SOL    HW273405   4.565   1.215   7.465  2.8199  0.2669 -0.5033
22823SOL     OW73406   3.493   5.026   6.621 -0.1674 -0.9129 -0.8002
22823SOL    HW173407   3.404   4.992   6.613 -0.2333 -0.7893 -0.5891
22823SOL    HW273408   3.545   4.971   6.562 -0.5141 -0.5082 -1.5070
22824SOL     OW73409   5.022   8.377   0.942 -0.8562  0.1121 -0.6933
22824SOL    HW173410   5.021   8.471   0.962 -1.2402 -0.0481  0.0640
22824SOL    HW273411   5.092   8.367   0.877 -1.0881  0.9863 -1.0967
22825SOL     OW73412   7.013   7.742   9.213  0.3949 -0.5158 -0.5550
22825SOL    HW173413   6.984   7.828   9.242 -0.5342 -0.6051 -1.1786
22825SOL    HW273414   7.027   7.693   9.294 -0.9880 -0.3853 -0.2012
22826SOL     OW73415   8.885   9.803   8.225  0.1824  0.1310 -0.4082
22826SOL    HW173416   8.871   9.739   8.296 -3.1362 -0.0082 -0.9898
22826SOL    HW273417   8.969   9.843   8.245  1.2859 -2.7082  1.3461
22827SOL     OW73418   9.576  11.465   0.599  0.2701 -0.4732  0.3349
22827SOL    HW173419   9.664  11.466   0.636  0.4236  0.1382 -0.0430
22827SOL    HW273420   9.554  11.557   0.587  0.1953 -0.6511 -1.0063
22828SOL     OW73421   6.761   4.823   7.264  0.0443 -0.0942 -0.4470
22828SOL    HW173422   6.718   4.846   7.347  1.1089  1.0628 -0.1742
22828SOL    HW273423   6.842   4.780   7.290 -1.6551 -4.0309 -0.9534
22829SOL     OW73424   3.840   3.204   1.464 -0.0179 -0.1159  0.0243
22829SOL    HW173425   3.781   3.276   1.490  0.6918  0.6056 -0.3026
22829SOL    HW273426   3.910   3.248   1.416 -0.5526 -1.2644 -1.8676
22830SOL     OW73427   8.290   3.108   3.594 -0.5890  0.4981  0.5311
22830SOL    HW173428   8.380   3.120   3.622 -0.1294  2.5282 -1.4797
22830SOL    HW273429   8.246   3.189   3.620 -1.1237  0.6765 -0.8266
22831SOL     OW73430   9.392   6.493   9.515 -0.3059 -0.0730  0.4423
22831SOL    HW173431   9.460   6.533   9.569  0.6869 -0.5924 -0.3763
22831SOL    HW273432   9.359   6.564   9.461  0.5924 -0.0680 -0.1372
22832SOL     OW73433   9.023   2.621   2.355  0.2116 -0.0092 -1.0837
22832SOL    HW173434   8.979   2.558   2.298 -0.0872 -0.3210 -0.5084
22832SOL    HW273435   9.050   2.691   2.296  1.2724 -1.0393 -1.8816
22833SOL     OW73436   6.619   7.297   2.368  0.0183  0.6532 -0.0370
22833SOL    HW173437   6.619   7.365   2.435  1.2083 -0.2072  0.8868
22833SOL    HW273438   6.554   7.233   2.399 -0.7199  1.1105 -0.6320
22834SOL     OW73439   6.498   3.762   1.314  0.5757 -0.0339 -0.1344
22834SOL    HW173440   6.576   3.728   1.357 -0.4414 -1.5533  0.6253
22834SOL    HW273441   6.426   3.735   1.372 -0.6244  0.0236 -1.5447
22835SOL     OW73442   8.656   8.909   8.413 -0.5261 -0.2072  0.1211
22835SOL    HW173443   8.574   8.886   8.369 -0.1057  0.7283 -1.2186
22835SOL    HW273444   8.671   8.837   8.474 -1.5850 -1.1417 -0.6642
22836SOL     OW73445   6.214  10.986  11.374  0.3520 -0.6022 -0.2353
22836SOL    HW173446   6.195  10.929  11.300  0.4777 -0.5752 -0.2876
22836SOL    HW273447   6.158  11.063  11.360  0.5893 -0.4649 -0.4597
22837SOL     OW73448   7.887   7.488   7.857  0.1139 -0.0953 -0.3436
22837SOL    HW173449   7.849   7.493   7.769 -1.1567 -0.0994  0.1739
22837SOL    HW273450   7.842   7.558   7.906  1.0868  0.1648  0.2096
22838SOL     OW73451   3.902   1.833   9.292  0.0746  0.1676  0.3279
22838SOL    HW173452   3.857   1.905   9.248 -1.6005 -1.9905 -1.7415
22838SOL    HW273453   3.882   1.847   9.385 -2.9088  0.6945 -0.2710
22839SOL     OW73454   5.661   1.778   4.461  0.3194  0.5379  0.3054
22839SOL    HW173455   5.567   1.765   4.445  0.7553 -0.5733 -1.7203
22839SOL    HW273456   5.690   1.697   4.502  0.7019  0.1824 -0.6536
22840SOL     OW73457   4.211   4.348   1.943 -0.1203  0.2688 -0.0123
22840SOL    HW173458   4.291   4.340   1.994 -1.2609 -1.9936  1.6182
22840SOL    HW273459   4.184   4.258   1.926 -1.1781  0.9618 -2.4511
22841SOL     OW73460   3.535   2.102   2.270 -0.3395  0.2614 -0.5993
22841SOL    HW173461   3.473   2.175   2.268  1.0987  1.5178 -1.3857
22841SOL    HW273462   3.480   2.024   2.278 -1.9114  1.4291  0.7795
22842SOL     OW73463   3.271   3.512  10.785  0.0709  0.1916  0.0385
22842SOL    HW173464   3.344   3.453  10.768  0.0537  0.0938  0.3032
22842SOL    HW273465   3.307   3.579  10.843 -0.0286  0.1843  0.1097
22843SOL     OW73466   9.188   5.576   5.188  0.7979 -0.6982  0.0780
22843SOL    HW173467   9.207   5.669   5.179 -0.2299 -0.5035 -0.2225
22843SOL    HW273468   9.168   5.547   5.099 -2.0614 -0.4567  0.5393
22844SOL     OW73469   1.423   7.577   1.578  0.6889 -0.2951 -0.2280
22844SOL    HW173470   1.356   7.523   1.619 -0.7040  0.5806 -1.2508
22844SOL    HW273471   1.376   7.655   1.549  1.3890 -1.0709 -3.9449
22845SOL     OW73472   0.733   5.567   6.639 -0.7186 -0.3448  0.3023
22845SOL    HW173473   0.789   5.540   6.711  0.3107 -0.6692 -0.5853
22845SOL    HW273474   0.751   5.503   6.570 -0.8544  0.5845 -0.6217
22846SOL     OW73475   3.245  11.416   2.418  0.4037  0.4296 -0.1909
22846SOL    HW173476   3.332  11.374   2.416  0.4636  0.4958  0.6926
22846SOL    HW273477   3.263  11.505   2.450  0.1171  0.7239 -0.8469
22847SOL     OW73478   3.850   8.546   7.646  0.2054 -0.5955  0.1536
22847SOL    HW173479   3.856   8.632   7.605 -0.6723 -1.2361 -1.4331
22847SOL    HW273480   3.938   8.509   7.637 -0.0961 -0.9501 -1.8117
22848SOL     OW73481   1.456   7.758   2.540  0.9488  0.5253  0.3973
22848SOL    HW173482   1.431   7.727   2.453  2.2457  1.0684 -0.1950
22848SOL    HW273483   1.542   7.718   2.557  0.7650  0.5076  1.3942
22849SOL     OW73484   9.826  10.776   8.745  0.1964 -0.1372  0.3036
22849SOL    HW173485   9.765  10.841   8.780  0.2422  0.5518 -0.8467
22849SOL    HW273486   9.865  10.736   8.823 -0.2784  0.7876  1.0387
22850SOL     OW73487   9.571   2.531   0.318 -0.3923  0.1102 -1.0093
22850SOL    HW173488   9.581   2.546   0.224 -2.0154  2.2703 -0.9318
22850SOL    HW273489   9.476   2.531   0.332 -0.1846 -0.4290  0.6080
22851SOL     OW73490   5.917   1.650   0.802 -0.1886  1.0989 -0.0613
22851SOL    HW173491   5.894   1.736   0.837 -0.3442  1.1592 -0.3162
22851SOL    HW273492   5.886   1.651   0.712 -1.1581  0.3882  0.2460
22852SOL     OW73493   5.854   0.585   3.653  0.7479 -0.4811  0.0459
22852SOL    HW173494   5.779   0.571   3.712 -0.0536  0.8095 -0.6136
22852SOL    HW273495   5.821   0.561   3.566  0.9581  0.4727 -0.3106
22853SOL     OW73496   0.005   3.040  11.254  0.0211 -0.6902  0.2018
22853SOL    HW173497  -0.020   2.952  11.283 -0.5858 -1.4196 -2.2666
22853SOL    HW273498  -0.040   3.099  11.314 -0.4863 -2.0567  1.2127
22854SOL     OW73499   8.764   8.383   9.914  0.5769 -0.0068  0.0061
22854SOL    HW173500   8.845   8.334   9.928  0.8621  0.7679  1.2356
22854SOL    HW273501   8.770   8.414   9.824  1.6614  0.0488  0.0845
22855SOL     OW73502  11.307  10.243   8.783  0.5163 -0.1477 -1.0311
22855SOL    HW173503  11.233  10.183   8.787  0.8131 -0.4863 -0.3941
22855SOL    HW273504  11.313  10.269   8.691 -1.1301  0.8307 -0.8998
22856SOL     OW73505   6.643   7.521   6.254 -0.2945 -0.0507 -0.2445
22856SOL    HW173506   6.644   7.614   6.274  0.4835 -0.1189  0.0323
22856SOL    HW273507   6.735   7.495   6.252 -0.5203 -0.9290  0.2415
22857SOL     OW73508  10.300   7.881   4.418 -0.6612 -0.2078  0.2713
22857SOL    HW173509  10.226   7.828   4.390 -1.5184  1.2817 -0.3706
22857SOL    HW273510  10.271   7.972   4.406  1.4304  0.4157 -0.4440
22858SOL     OW73511   2.701   7.084   6.792 -0.7689  0.1148  0.6695
22858SOL    HW173512   2.774   7.053   6.845 -0.1645 -1.8976 -1.1838
22858SOL    HW273513   2.627   7.089   6.853 -0.1098 -2.0865  1.7591
22859SOL     OW73514   0.961   2.681   7.760 -0.4149 -0.3479 -0.0513
22859SOL    HW173515   0.920   2.638   7.684 -2.1740 -0.4302  0.8940
22859SOL    HW273516   0.998   2.762   7.725 -0.3452 -0.8415 -1.1633
22860SOL     OW73517   4.565   9.101   0.131 -0.1387 -0.7495  0.0137
22860SOL    HW173518   4.588   9.194   0.119  0.3755 -0.9552 -0.6671
22860SOL    HW273519   4.543   9.070   0.044  0.8974 -1.5758  0.0298
22861SOL     OW73520   3.846   6.127   8.430 -0.2303  0.2218 -0.2081
22861SOL    HW173521   3.804   6.212   8.417  0.6695  0.6754 -0.1836
22861SOL    HW273522   3.893   6.110   8.349 -0.4536 -0.2842 -0.2352
22862SOL     OW73523   8.711   5.722   7.940  0.1923 -0.8026  0.0861
22862SOL    HW173524   8.752   5.749   8.022 -0.4938 -0.0244  0.1845
22862SOL    HW273525   8.732   5.629   7.933 -1.4371 -1.4241  2.2115
22863SOL     OW73526   1.384   8.568  10.986  0.3058  0.1500 -0.6635
22863SOL    HW173527   1.468   8.559  11.031  0.9565 -0.7528 -2.0023
22863SOL    HW273528   1.330   8.619  11.047  1.6544  0.3444  0.4287
22864SOL     OW73529   7.135   4.954  10.357  0.4858 -0.0185 -0.4159
22864SOL    HW173530   7.145   5.021  10.289 -0.3081  1.0284  0.4681
22864SOL    HW273531   7.225   4.937  10.386  0.6319  1.5984  0.2030
22865SOL     OW73532   3.785  10.921   6.281  0.2019  0.0794 -0.4750
22865SOL    HW173533   3.739  10.894   6.360  1.2729  1.0823  0.5267
22865SOL    HW273534   3.734  10.995   6.248  0.9534  1.0778  0.5347
22866SOL     OW73535   9.354   4.353   3.620 -0.3112 -0.4737  0.1883
22866SOL    HW173536   9.333   4.414   3.691  0.0299  2.7018 -2.2213
22866SOL    HW273537   9.444   4.325   3.639 -0.6201 -0.6137  1.5661
22867SOL     OW73538   3.357   3.131   0.915 -0.0346 -0.0512  0.4025
22867SOL    HW173539   3.262   3.121   0.925 -0.0680 -0.4604 -0.2598
22867SOL    HW273540   3.370   3.135   0.820  0.7489 -1.4486  0.4262
22868SOL     OW73541   4.823   8.871   7.109 -0.0565  0.0387 -0.2246
22868SOL    HW173542   4.908   8.870   7.065  0.7606 -0.4794  1.3345
22868SOL    HW273543   4.805   8.964   7.124  0.8524  0.0886  0.5998
22869SOL     OW73544   3.197  10.932   8.358 -0.2944 -0.3520 -0.8183
22869SOL    HW173545   3.152  10.979   8.288 -2.9081  0.8893  1.4692
22869SOL    HW273546   3.196  10.994   8.432  0.6541 -2.2380  0.8748
22870SOL     OW73547  11.286   5.095   8.689  1.1160 -0.1094  0.2719
22870SOL    HW173548  11.227   5.022   8.710  3.1506 -1.8474  0.1822
22870SOL    HW273549  11.307   5.133   8.774  0.5250  0.0092  0.3714
22871SOL     OW73550  10.565  11.414   2.763  0.5984 -0.0601 -0.1433
22871SOL    HW173551  10.546  11.419   2.856 -0.6559  2.0540 -0.4438
22871SOL    HW273552  10.660  11.398   2.758  0.7026 -0.0442  1.4790
22872SOL     OW73553  11.660   6.187   9.039  0.2640 -0.1902  0.2572
22872SOL    HW173554  11.612   6.269   9.035  0.6232  0.0535  0.8069
22872SOL    HW273555  11.750   6.213   9.058  0.7808 -0.5811 -1.4536
22873SOL     OW73556   0.794   0.448   1.042  0.1937 -0.2302 -0.3330
22873SOL    HW173557   0.812   0.482   1.129  0.8207 -0.1029 -0.5116
22873SOL    HW273558   0.807   0.354   1.049  0.3751 -0.2036 -0.3249
22874SOL     OW73559   8.646   3.837  10.424 -0.1076  0.1245  0.2668
22874SOL    HW173560   8.684   3.923  10.406  1.1598 -0.5936 -0.7566
22874SOL    HW273561   8.690   3.808  10.504  1.4080 -0.6024 -0.7832
22875SOL     OW73562   9.306   6.892   1.296 -0.1002 -0.3754 -0.3158
22875SOL    HW173563   9.244   6.946   1.344 -0.6104 -2.0285  1.0126
22875SOL    HW273564   9.385   6.946   1.288 -0.4209  0.3939  1.3841
22876SOL     OW73565   5.581   6.897  11.394  0.5558  0.4507 -0.1796
22876SOL    HW173566   5.549   6.971  11.444 -1.5368 -1.4875  1.5541
22876SOL    HW273567   5.523   6.892  11.318 -0.6324 -0.5719  0.7690
22877SOL     OW73568   1.424   1.096   9.078 -0.3560 -0.5983  0.0409
22877SOL    HW173569   1.503   1.083   9.131 -0.2147 -3.0561 -0.6087
22877SOL    HW273570   1.449   1.064   8.991 -1.1355  1.6197 -1.0513
22878SOL     OW73571   7.676   4.736  10.334 -0.1865 -0.8675 -0.6120
22878SOL    HW173572   7.723   4.659  10.364  0.3377 -1.0643 -1.8883
22878SOL    HW273573   7.742   4.789  10.289 -0.5978  0.1978 -0.0055
22879SOL     OW73574   4.236  10.229   4.620 -0.6161 -0.4002 -0.2762
22879SOL    HW173575   4.173  10.159   4.630 -0.0759 -0.9671 -0.7552
22879SOL    HW273576   4.227  10.257   4.528  0.3518 -1.0264 -0.5882
22880SOL     OW73577   0.014   9.641  11.552 -0.1695 -0.1591 -0.2651
22880SOL    HW173578   0.063   9.710  11.597  0.5550 -0.9301  0.1597
22880SOL    HW273579  -0.045   9.688  11.493  0.6878  0.8081 -0.3845
22881SOL     OW73580   9.305   4.073   0.052 -0.6965  0.1844 -0.2865
22881SOL    HW173581   9.267   4.095  -0.033  0.0159 -0.2650 -0.7316
22881SOL    HW273582   9.387   4.123   0.056  0.5441 -1.7056 -0.9742
22882SOL     OW73583   7.473  10.295   0.340 -0.3280 -0.3637  0.1669
22882SOL    HW173584   7.385  10.277   0.307 -0.2722 -0.6757  0.1907
22882SOL    HW273585   7.499  10.215   0.385 -0.7562  0.3457  1.7513
22883SOL     OW73586   7.522   7.214  10.642  0.3783 -0.1873 -0.2675
22883SOL    HW173587   7.595   7.194  10.701  1.2610  0.8313 -0.9597
22883SOL    HW273588   7.558   7.202  10.554  0.3319  2.0914 -0.6819
22884SOL     OW73589   4.571   8.475   4.989  0.2974 -0.0446 -0.1151
22884SOL    HW173590   4.630   8.426   4.931  0.3982 -0.5791  0.4338
22884SOL    HW273591   4.627   8.542   5.028  0.3783 -0.0929 -0.1472
22885SOL     OW73592   1.538   5.509  11.328  0.2232  0.3977 -0.2262
22885SOL    HW173593   1.563   5.601  11.322 -1.2513  0.8278 -0.1542
22885SOL    HW273594   1.620   5.463  11.344  1.2659  1.5053 -2.0231
22886SOL     OW73595   2.111  11.588   3.027  0.0181 -0.2095 -0.2551
22886SOL    HW173596   2.110  11.549   2.940 -1.0731  0.0402 -0.3588
22886SOL    HW273597   2.029  11.637   3.033 -0.1396 -0.5996  1.0886
22887SOL     OW73598   4.646   2.830  11.364 -0.0869  0.4169 -0.3889
22887SOL    HW173599   4.680   2.909  11.406 -0.1249  0.0052  0.4438
22887SOL    HW273600   4.551   2.838  11.372 -0.0887 -1.0623  2.3952
22888SOL     OW73601  10.557   6.758   9.547 -0.5784 -0.4779  0.6762
22888SOL    HW173602  10.538   6.850   9.530  0.2769 -0.4831 -0.4767
22888SOL    HW273603  10.496   6.710   9.490  0.7020 -0.5403 -0.7327
22889SOL     OW73604   6.822   9.785   2.149 -0.3041  0.2582  0.1582
22889SOL    HW173605   6.830   9.712   2.210 -0.8652 -0.1698 -0.2668
22889SOL    HW273606   6.764   9.848   2.193 -3.2749 -1.3846 -1.0900
22890SOL     OW73607  11.641   6.402  11.260 -0.3166  0.1234  0.0308
22890SOL    HW173608  11.680   6.469  11.203  0.0554 -1.1195 -1.2215
22890SOL    HW273609  11.716   6.359  11.301 -0.5773  1.0424  1.5892
22891SOL     OW73610   7.646   1.135   5.280  0.2524 -0.2849  1.1929
22891SOL    HW173611   7.738   1.117   5.262  0.8409  1.4464  2.1955
22891SOL    HW273612   7.607   1.150   5.194  0.7923 -1.4201  0.7280
22892SOL     OW73613   6.881   1.846   6.101 -0.3743  0.0876 -0.5895
22892SOL    HW173614   6.832   1.820   6.180 -1.6247  0.0454 -1.3575
22892SOL    HW273615   6.925   1.766   6.073  1.8292  0.5562  1.2193
22893SOL     OW73616  10.946   1.351  11.621  0.0028 -0.0527 -0.2482
22893SOL    HW173617  10.866   1.299  11.613  0.2990 -0.7748  1.1273
22893SOL    HW273618  10.923   1.437  11.587 -1.5376 -0.0778  0.6422
22894SOL     OW73619   3.629   1.951   0.675  0.2139 -0.5939  0.2336
22894SOL    HW173620   3.572   2.014   0.720 -0.5878 -2.2803  1.6786
22894SOL    HW273621   3.698   1.932   0.739  1.5599  0.2403 -0.9222
22895SOL     OW73622  11.632  11.559   0.137  0.2905 -0.0407  0.3090
22895SOL    HW173623  11.563  11.522   0.082  0.3872  0.8365 -0.4150
22895SOL    HW273624  11.645  11.493   0.206  0.8909 -1.6595 -1.2663
22896SOL     OW73625   1.362   4.729  10.342  0.2796 -0.2825 -0.2542
22896SOL    HW173626   1.360   4.710  10.436  0.4232  0.9909  0.0236
22896SOL    HW273627   1.275   4.703  10.311  0.0202 -0.1563  0.3503
22897SOL     OW73628   8.787   7.703   7.536  0.3295  0.0157 -0.0370
22897SOL    HW173629   8.878   7.694   7.508 -0.4904 -1.4331 -2.5115
22897SOL    HW273630   8.777   7.637   7.605  0.8009 -0.8486 -0.7740
22898SOL     OW73631   7.644   2.251   7.584  0.1181  0.5252 -0.1348
22898SOL    HW173632   7.669   2.336   7.619  2.6700  0.5341 -1.6735
22898SOL    HW273633   7.564   2.227   7.631  1.1577  2.2366  2.7455
22899SOL     OW73634   1.596   5.103   6.442 -0.1632 -1.0843 -0.3907
22899SOL    HW173635   1.521   5.097   6.500  0.7806 -0.1972  0.9824
22899SOL    HW273636   1.638   5.017   6.447 -0.0187 -0.9762  0.3633
22900SOL     OW73637   4.423   3.096   0.131 -0.1350 -0.3138  0.3598
22900SOL    HW173638   4.365   3.100   0.207 -0.2796  0.7428  0.2195
22900SOL    HW273639   4.461   3.009   0.134 -0.4264 -0.4225  1.4365
22901SOL     OW73640  10.579   0.871   4.568 -0.4200 -0.5580 -0.4842
22901SOL    HW173641  10.670   0.867   4.599 -0.0736 -1.9920 -1.5755
22901SOL    HW273642  10.526   0.861   4.647  0.3732 -0.1240  0.1167
22902SOL     OW73643   2.218   2.994   1.766  0.3477  0.0516  0.3055
22902SOL    HW173644   2.173   2.983   1.682 -1.0206 -0.7853  1.1194
22902SOL    HW273645   2.308   2.966   1.748 -0.4574 -2.3515 -0.3598
22903SOL     OW73646   5.123   1.926   8.604 -0.2863 -0.5369 -0.0860
22903SOL    HW173647   5.198   1.979   8.631  0.2590 -1.9825  1.4501
22903SOL    HW273648   5.054   1.949   8.665 -1.0623  0.6178 -1.3516
22904SOL     OW73649   0.859   0.069  11.560  0.8589  0.2179 -0.1078
22904SOL    HW173650   0.805   0.083  11.483  0.4376 -1.7574 -0.2166
22904SOL    HW273651   0.849   0.149  11.611 -2.4510 -0.1818  0.0402
22905SOL     OW73652   7.941   6.984   2.053 -0.6662  0.2857  0.5626
22905SOL    HW173653   8.026   6.948   2.079 -0.9168  0.5338  1.7969
22905SOL    HW273654   7.947   7.077   2.073 -0.7710  0.5625 -0.6147
22906SOL     OW73655  11.619   0.986  11.321  0.3976 -0.0279  0.7352
22906SOL    HW173656  11.624   0.973  11.227  1.2246  0.8366  0.6396
22906SOL    HW273657  11.542   0.936  11.349 -1.2965  1.6261 -0.7294
22907SOL     OW73658   4.335   4.464   5.285 -0.1394  0.2556 -0.1491
22907SOL    HW173659   4.296   4.437   5.368 -0.7218  0.4851 -0.3345
22907SOL    HW273660   4.285   4.542   5.260  0.3024  0.4266 -0.5097
22908SOL     OW73661   7.314   1.217   4.872  0.2339  0.5059 -0.2199
22908SOL    HW173662   7.362   1.284   4.823 -1.0478  1.5466 -0.1070
22908SOL    HW273663   7.327   1.137   4.822 -0.1924  1.3322 -1.7201
22909SOL     OW73664  11.669  10.064  11.278 -0.4958 -0.1619  0.0984
22909SOL    HW173665  11.617  10.145  11.281 -1.2744 -0.6266 -0.4623
22909SOL    HW273666  11.715  10.068  11.194 -0.6120 -0.3485  0.0254
22910SOL     OW73667   0.295   6.926   8.446  0.1910 -0.2400 -0.5461
22910SOL    HW173668   0.260   6.871   8.516  0.1703 -0.2426 -0.5581
22910SOL    HW273669   0.220   6.940   8.387  0.1900 -0.1784 -0.5300
22911SOL     OW73670   8.397   8.178   1.353 -0.4005 -0.0048  0.6479
22911SOL    HW173671   8.354   8.099   1.385  0.3634 -0.8100 -0.2652
22911SOL    HW273672   8.474   8.147   1.306 -0.4292  1.2384 -0.2844
22912SOL     OW73673   6.124   3.678   6.676  0.7510 -0.1479  0.2517
22912SOL    HW173674   6.036   3.662   6.709  0.4418  0.7294 -0.1292
22912SOL    HW273675   6.176   3.604   6.709  0.2151  0.1172  1.7552
22913SOL     OW73676   6.858   6.144   8.455 -0.0307 -0.1303 -0.1034
22913SOL    HW173677   6.947   6.149   8.490  0.1357  0.8689 -0.6281
22913SOL    HW273678   6.838   6.051   8.455  0.6032 -0.2975  1.0264
22914SOL     OW73679   1.967   2.721   6.299 -0.0761  0.0304 -0.5921
22914SOL    HW173680   1.907   2.696   6.228 -1.9180 -0.6699  1.1280
22914SOL    HW273681   1.961   2.816   6.303 -1.2998 -0.0453 -0.2911
22915SOL     OW73682   5.838   3.654   8.392 -0.1924 -0.5776  0.4879
22915SOL    HW173683   5.777   3.592   8.352  1.0308 -1.9325  0.6380
22915SOL    HW273684   5.887   3.601   8.455  0.7475  0.5991  0.7696
22916SOL     OW73685   3.878   8.498   3.590  0.5651 -0.6436  0.5234
22916SOL    HW173686   3.966   8.460   3.584 -0.0601 -2.4565  1.9221
22916SOL    HW273687   3.822   8.425   3.616 -1.5432  0.2600 -1.1752
22917SOL     OW73688   5.617   1.793   7.452 -0.0527 -0.2252 -0.2026
22917SOL    HW173689   5.649   1.874   7.411  0.4174  0.1783  0.9398
22917SOL    HW273690   5.524   1.810   7.470  0.7088  1.3484  2.9438
22918SOL     OW73691  10.209   4.874   4.603  0.1869  0.3571 -0.2910
22918SOL    HW173692  10.274   4.898   4.538  1.1947 -0.2911  0.4460
22918SOL    HW273693  10.227   4.782   4.622 -0.7556  0.2503  0.1481
22919SOL     OW73694   9.973   5.201  10.663  0.2963  0.0843 -0.3485
22919SOL    HW173695  10.067   5.221  10.658  0.4550 -0.0346  1.3658
22919SOL    HW273696   9.941   5.257  10.734 -1.7851  2.9831 -3.2737
22920SOL     OW73697   4.667   9.785   4.711 -0.0123 -0.7091  0.0358
22920SOL    HW173698   4.597   9.824   4.762  0.4355 -1.2250  1.0724
22920SOL    HW273699   4.744   9.788   4.769  0.7577 -0.3889 -0.9707
22921SOL     OW73700   5.670   9.037   6.797  0.6445 -0.1838  0.3253
22921SOL    HW173701   5.748   8.985   6.817 -0.0119 -1.4267 -0.2562
22921SOL    HW273702   5.648   9.079   6.880  0.4785 -1.8291  1.1593
22922SOL     OW73703   5.150   9.592   9.697  0.8532  0.1012  0.4794
22922SOL    HW173704   5.154   9.673   9.748 -0.7443  1.4033 -1.2622
22922SOL    HW273705   5.219   9.602   9.631  1.6113 -0.6682  1.1296
22923SOL     OW73706   4.024  10.418   8.005 -0.5750  0.1623  0.2114
22923SOL    HW173707   4.015  10.395   7.913  0.7475 -1.2976  0.3876
22923SOL    HW273708   3.940  10.455   8.030 -0.9980  0.4334 -1.5330
22924SOL     OW73709   3.435   0.831   2.346  0.1082 -0.1097  0.3804
22924SOL    HW173710   3.348   0.813   2.381 -1.1371  1.8386 -1.5088
22924SOL    HW273711   3.494   0.780   2.402 -2.2514 -1.9882  1.3336
22925SOL     OW73712   1.969  11.069   3.690  0.1955 -0.3149  0.1215
22925SOL    HW173713   1.934  11.132   3.753 -2.0091 -1.1256 -0.2318
22925SOL    HW273714   2.032  11.120   3.639  0.2553  0.9686  1.4044
22926SOL     OW73715   6.576   2.405   4.951 -0.0470 -0.6458  0.5289
22926SOL    HW173716   6.628   2.465   4.897  0.0911  1.9557  3.2556
22926SOL    HW273717   6.486   2.432   4.936 -0.4892 -2.9738 -1.6901
22927SOL     OW73718   5.268   2.812   7.613 -0.5774 -0.0944  0.2861
22927SOL    HW173719   5.237   2.739   7.558 -0.6824  0.3907 -0.3182
22927SOL    HW273720   5.334   2.773   7.670 -2.0439 -1.0940  1.3775
22928SOL     OW73721   6.809  11.144   6.905 -0.4972 -0.3533  0.2724
22928SOL    HW173722   6.773  11.219   6.857  2.5569  2.2701  1.6270
22928SOL    HW273723   6.761  11.068   6.872 -2.6187  1.9584 -2.4920
22929SOL     OW73724   0.637   1.728   0.054 -0.1346 -0.7017  0.2289
22929SOL    HW173725   0.579   1.795   0.091  0.6875 -0.1461  0.5305
22929SOL    HW273726   0.597   1.645   0.080  0.0372 -0.3217  1.7586
22930SOL     OW73727  10.491   3.085  11.496  0.1359 -0.3292 -0.1601
22930SOL    HW173728  10.540   3.101  11.576 -0.8959  1.7282  0.1391
22930SOL    HW273729  10.408   3.131  11.510 -0.2897 -0.4141 -2.1632
22931SOL     OW73730   6.434   9.118   9.820  0.0755 -0.1195  0.2315
22931SOL    HW173731   6.344   9.147   9.807  0.1153 -0.3965 -0.7253
22931SOL    HW273732   6.448   9.125   9.915 -1.1326 -0.6350  0.4637
22932SOL     OW73733   8.328   3.312  10.787 -0.6650  1.0523  0.2375
22932SOL    HW173734   8.322   3.218  10.805  0.0722  0.6667 -1.3804
22932SOL    HW273735   8.391   3.344  10.852  0.7897 -0.0104 -0.5828
22933SOL     OW73736   9.592  10.897  11.220 -0.3028 -0.3962 -0.1774
22933SOL    HW173737   9.548  10.850  11.150 -0.0877 -2.9260  1.2482
22933SOL    HW273738   9.680  10.861  11.222 -0.1304  0.0275  1.0086
22934SOL     OW73739   8.569   5.957   3.527  0.1196 -0.2372  0.1738
22934SOL    HW173740   8.508   5.886   3.546  1.4575 -1.6062 -0.5470
22934SOL    HW273741   8.647   5.937   3.578  0.4563  0.8444  0.1229
22935SOL     OW73742   0.964   9.172   4.464 -0.4462  0.7517  0.3718
22935SOL    HW173743   1.054   9.144   4.447 -0.3051  0.9251  0.8190
22935SOL    HW273744   0.910   9.115   4.408  0.0286  1.7399 -1.1444
22936SOL     OW73745   4.977   2.616   0.770 -0.0700 -0.3554 -0.0975
22936SOL    HW173746   4.936   2.616   0.683 -2.2371  2.1701  0.7852
22936SOL    HW273747   5.067   2.586   0.754 -0.3328  0.1418 -3.2203
22937SOL     OW73748   4.337   8.671   8.896 -0.5747 -0.4421  0.2964
22937SOL    HW173749   4.380   8.746   8.936 -0.6800 -0.7451  0.9877
22937SOL    HW273750   4.260   8.708   8.853 -0.0590 -0.0115 -0.2734
22938SOL     OW73751   4.728   9.457   9.231 -0.2078 -0.5521 -0.1985
22938SOL    HW173752   4.632   9.457   9.222 -0.2458 -0.5600  0.1835
22938SOL    HW273753   4.760   9.463   9.141 -0.5737  0.0429 -0.2980
22939SOL     OW73754   7.153   6.008   6.426  0.1274  0.2343  0.0127
22939SOL    HW173755   7.084   5.945   6.444 -0.4800  0.6372 -0.8441
22939SOL    HW273756   7.230   5.973   6.471 -0.9893  0.5850  2.3276
22940SOL     OW73757   6.699   2.078   8.808  0.1311  0.2627  0.5018
22940SOL    HW173758   6.780   2.041   8.842  0.4218  1.9137  1.7256
22940SOL    HW273759   6.725   2.118   8.725 -0.0101 -1.4021 -0.3948
22941SOL     OW73760   6.309   1.390   7.416 -0.3160 -0.4162  0.5391
22941SOL    HW173761   6.282   1.446   7.343  0.7275 -0.0169  0.4309
22941SOL    HW273762   6.252   1.314   7.411 -0.4315 -0.2713 -0.5367
22942SOL     OW73763   7.138   8.820   7.653 -0.4939 -0.1992 -0.1264
22942SOL    HW173764   7.094   8.839   7.736 -0.7475 -1.1116 -0.0487
22942SOL    HW273765   7.224   8.861   7.662 -0.0934 -1.2474  1.0433
22943SOL     OW73766   5.928   6.848   2.850  0.3665 -0.5108 -0.5551
22943SOL    HW173767   5.987   6.786   2.893  1.0562  0.9354  0.6623
22943SOL    HW273768   5.984   6.919   2.820 -0.6631  0.6313  0.1143
22944SOL     OW73769   5.873   7.180   9.438  0.3446  0.4574 -0.3083
22944SOL    HW173770   5.916   7.251   9.485 -1.0562  0.8525  0.4323
22944SOL    HW273771   5.802   7.222   9.390 -0.8847 -0.4671  0.6153
22945SOL     OW73772   1.240   3.771   6.806  0.4177  0.1855  0.2372
22945SOL    HW173773   1.332   3.779   6.779  0.2116  0.4820 -0.4180
22945SOL    HW273774   1.220   3.678   6.798  0.1922  0.3375 -1.2934
22946SOL     OW73775   7.202   9.872   4.179 -0.0163  0.5161  0.2263
22946SOL    HW173776   7.257   9.794   4.172 -2.6511 -1.5217  0.7485
22946SOL    HW273777   7.209   9.914   4.093  0.5112 -0.9898 -0.5046
22947SOL     OW73778   0.165   4.370   9.497 -0.2647 -0.0927 -0.0292
22947SOL    HW173779   0.106   4.408   9.432  0.1187  0.1315 -0.2560
22947SOL    HW273780   0.191   4.444   9.552  0.9483  0.1095 -0.8374
22948SOL     OW73781   4.371   9.734   8.804  0.1487  0.0307  0.2286
22948SOL    HW173782   4.333   9.646   8.798  0.5536 -0.1604  0.4646
22948SOL    HW273783   4.297   9.789   8.832 -0.6032  0.1303 -1.7804
22949SOL     OW73784   6.462   0.739   4.373  0.3333  0.0222 -0.3860
22949SOL    HW173785   6.541   0.741   4.427  1.2666  2.3137 -1.7036
22949SOL    HW273786   6.419   0.823   4.390  0.1840  0.4119 -2.4683
22950SOL     OW73787   3.792   8.722  10.042  0.5223 -0.1788 -0.2776
22950SOL    HW173788   3.838   8.753  10.119 -0.0937 -1.6507  0.7474
22950SOL    HW273789   3.857   8.671   9.993  0.5410 -0.4596  0.0392
22951SOL     OW73790   3.163   6.293   4.018 -0.8284 -0.0073  0.2635
22951SOL    HW173791   3.223   6.230   3.978 -2.1665 -1.8076  0.9615
22951SOL    HW273792   3.188   6.377   3.979  0.5190 -1.0596 -1.3041
22952SOL     OW73793   0.815   6.148  11.594 -0.3810 -0.1398 -0.5201
22952SOL    HW173794   0.868   6.154  11.515  0.3064  0.5881 -0.0102
22952SOL    HW273795   0.734   6.195  11.571 -0.0496  0.3626 -0.6792
22953SOL     OW73796   6.076  10.603   3.400  0.7709 -0.1729  0.3062
22953SOL    HW173797   6.132  10.535   3.438  0.8065  0.2607  1.0555
22953SOL    HW273798   6.123  10.684   3.417  0.2564  0.1304  0.2997
22954SOL     OW73799   4.150   9.159  11.672  0.7773  0.0626  0.4749
22954SOL    HW173800   4.084   9.101  11.711  1.3470 -0.1923  1.0722
22954SOL    HW273801   4.194   9.103  11.607  0.9353 -0.0053  0.6392
22955SOL     OW73802  10.906   3.382  10.162 -0.2803 -0.2270 -0.1810
22955SOL    HW173803  10.991   3.408  10.199  0.6520 -0.3584 -2.0552
22955SOL    HW273804  10.883   3.302  10.208  2.1676 -1.8904 -1.6241
22956SOL     OW73805   5.370   5.358   3.177 -0.7395  0.0489 -0.1690
22956SOL    HW173806   5.327   5.292   3.232  0.6256  0.4795  1.5113
22956SOL    HW273807   5.444   5.389   3.230  0.4100  0.8144 -2.1032
22957SOL     OW73808  10.588   7.121   3.417 -0.1381 -0.0481 -0.1271
22957SOL    HW173809  10.660   7.074   3.459 -0.6240  0.6014  1.4919
22957SOL    HW273810  10.631   7.191   3.368  0.3303  0.4763  1.0130
22958SOL     OW73811   6.200   9.755   8.684  0.0436  0.2850 -0.5959
22958SOL    HW173812   6.284   9.763   8.729  0.7577 -2.1876 -1.3041
22958SOL    HW273813   6.141   9.718   8.751  0.8187 -2.3429 -1.2204
22959SOL     OW73814   2.553   4.567   7.348  0.0801 -0.0546  1.0405
22959SOL    HW173815   2.501   4.514   7.408  0.4700  0.2504  1.6515
22959SOL    HW273816   2.501   4.569   7.267  1.3161 -3.7932 -0.0585
22960SOL     OW73817   5.904   5.575   2.586  0.2038  0.1191  0.1297
22960SOL    HW173818   5.865   5.560   2.499 -1.5101  0.9849  0.6960
22960SOL    HW273819   5.915   5.670   2.591 -0.9716  0.2165  1.3336
22961SOL     OW73820   9.824   8.162   3.895  0.5339  0.3059  0.0953
22961SOL    HW173821   9.915   8.158   3.863 -0.0688  1.0517 -1.8997
22961SOL    HW273822   9.784   8.082   3.862 -0.1398  1.1557 -1.2272
22962SOL     OW73823   0.245   9.222   0.945  0.5697 -0.2449 -0.1335
22962SOL    HW173824   0.333   9.213   0.909  0.2380 -0.7031 -0.8710
22962SOL    HW273825   0.255   9.208   1.039  1.3431  0.1707 -0.1420
22963SOL     OW73826  10.939   3.989   9.756  0.0894  0.2653  0.3399
22963SOL    HW173827  10.870   4.050   9.783 -0.4793 -0.0308 -0.3999
22963SOL    HW273828  10.899   3.902   9.763 -0.1742  0.1805 -1.6017
22964SOL     OW73829   8.581  10.360  11.295  0.4631 -0.2966  0.3939
22964SOL    HW173830   8.563  10.268  11.312  0.0773 -0.0432  1.4639
22964SOL    HW273831   8.529  10.407  11.360 -0.1265  0.7257 -0.7694
22965SOL     OW73832   1.506  10.576   0.293  0.3803 -0.1317  0.1274
22965SOL    HW173833   1.494  10.659   0.340  0.3354 -0.9598  1.6360
22965SOL    HW273834   1.548  10.601   0.211 -1.7330  1.6425 -0.5141
22966SOL     OW73835  10.988   1.110  10.482 -0.3427  0.3382 -0.0083
22966SOL    HW173836  10.962   1.166  10.409 -0.5709  0.0964 -0.1129
22966SOL    HW273837  10.922   1.040  10.483  0.4960 -0.4870 -0.5128
22967SOL     OW73838   8.385   0.743   3.831  0.3617  0.1069 -0.4514
22967SOL    HW173839   8.469   0.735   3.787 -0.3412 -3.4114 -1.4953
22967SOL    HW273840   8.395   0.693   3.912 -0.7652 -0.5752 -0.7117
22968SOL     OW73841   6.356   8.078   9.620 -0.2392  0.1650 -0.0590
22968SOL    HW173842   6.338   7.984   9.628  1.6073 -0.3135 -1.0392
22968SOL    HW273843   6.448   8.083   9.594 -0.4783  2.2368 -0.7017
22969SOL     OW73844   0.687   2.782   5.228  0.1700 -0.4626  0.3186
22969SOL    HW173845   0.637   2.863   5.231  0.3153 -0.2825 -1.3995
22969SOL    HW273846   0.626   2.718   5.190  0.6400 -0.6992 -0.0415
22970SOL     OW73847   5.327   9.620   8.884  0.1308 -0.6258 -0.0569
22970SOL    HW173848   5.343   9.557   8.814  0.2860 -1.8088  1.0058
22970SOL    HW273849   5.322   9.705   8.839  1.6732 -1.1509 -1.3282
22971SOL     OW73850   6.654   6.773   4.821  0.0559  0.1372 -0.0848
22971SOL    HW173851   6.735   6.820   4.805 -0.3522  1.0321  0.4015
22971SOL    HW273852   6.681   6.686   4.849  0.8411 -0.8394 -3.3895
22972SOL     OW73853   5.085   0.132   9.700  0.3425 -0.2242 -0.4663
22972SOL    HW173854   5.019   0.156   9.765 -0.1941 -0.0885 -1.0526
22972SOL    HW273855   5.130   0.214   9.681  0.0165 -0.1189 -0.7963
22973SOL     OW73856  10.398   3.368   5.896  0.1097  0.2826 -0.2169
22973SOL    HW173857  10.441   3.450   5.920  0.2143 -0.2378  1.4985
22973SOL    HW273858  10.305   3.384   5.913  0.2513 -0.2841  1.1892
22974SOL     OW73859   4.625  11.060   0.972 -0.1156 -1.0960 -0.0211
22974SOL    HW173860   4.560  11.097   0.912  0.2993  0.5647  0.4809
22974SOL    HW273861   4.708  11.067   0.925  0.3912  1.2524  1.0564
22975SOL     OW73862   1.176   5.597   1.459 -0.7690  0.1749  0.0765
22975SOL    HW173863   1.207   5.647   1.535 -2.2091  0.4390  0.5079
22975SOL    HW273864   1.181   5.658   1.386  4.8539 -1.2290 -1.1703
22976SOL     OW73865   3.687   7.231   6.730 -0.2789 -0.0380 -0.4686
22976SOL    HW173866   3.757   7.196   6.786 -0.3361  0.0879 -0.3186
22976SOL    HW273867   3.609   7.231   6.786  0.0498  1.8140  0.0598
22977SOL     OW73868   1.637   7.719   0.635  0.6778 -0.1127  0.1574
22977SOL    HW173869   1.724   7.750   0.660  0.9402  0.1198 -0.9771
22977SOL    HW273870   1.577   7.765   0.695  1.2506  0.6542  0.1632
22978SOL     OW73871   8.043   9.384   5.533 -0.2414  0.1428  0.3342
22978SOL    HW173872   8.096   9.340   5.467 -1.9100 -1.5658  0.0326
22978SOL    HW273873   8.082   9.357   5.617  0.5260  0.5004  0.1002
22979SOL     OW73874   2.827   8.193   8.550 -0.3493 -0.4541 -0.5654
22979SOL    HW173875   2.802   8.272   8.502 -1.9504 -0.6089 -0.0339
22979SOL    HW273876   2.850   8.224   8.638 -0.3250 -0.5175 -0.5496
22980SOL     OW73877  10.199   7.089   6.993  0.2018 -0.0767  0.2427
22980SOL    HW173878  10.232   7.138   7.069 -0.1979  0.3529  0.1390
22980SOL    HW273879  10.135   7.147   6.953  0.0725 -0.4945 -0.1590
22981SOL     OW73880   4.777   0.221   2.476  0.0203 -0.5302  0.2180
22981SOL    HW173881   4.722   0.283   2.523 -0.0090  1.2989 -2.0778
22981SOL    HW273882   4.866   0.239   2.508 -0.0247  0.5286 -0.2201
22982SOL     OW73883   8.133   8.740  11.415  0.4920 -0.1167  0.1561
22982SOL    HW173884   8.097   8.668  11.365  0.1771 -0.1084  0.3652
22982SOL    HW273885   8.216   8.707  11.449  1.3503  0.3078 -1.4182
22983SOL     OW73886   6.893   5.961   4.704 -0.4487 -0.0023 -0.4534
22983SOL    HW173887   6.807   5.933   4.735 -0.2261  2.2590  2.8455
22983SOL    HW273888   6.874   6.028   4.638 -1.0988 -1.4188 -1.7516
22984SOL     OW73889   4.696   5.806   8.425 -0.1712 -0.0226  0.4173
22984SOL    HW173890   4.636   5.731   8.428  0.1384 -0.3221 -0.5850
22984SOL    HW273891   4.638   5.882   8.425 -0.5104 -0.2746  0.7179
22985SOL     OW73892   9.509  11.375   1.180  0.5545  0.3877 -0.2969
22985SOL    HW173893   9.600  11.345   1.181  0.4769  0.1442  0.7568
22985SOL    HW273894   9.483  11.367   1.088  1.2881 -0.4802 -0.4526
22986SOL     OW73895   1.027   7.319   8.533 -0.2788  0.1655  0.0012
22986SOL    HW173896   1.049   7.263   8.459  0.0972  2.5604 -1.8312
22986SOL    HW273897   0.942   7.287   8.563  0.0854 -1.5661 -0.7078
22987SOL     OW73898   5.437   2.779   1.349  0.4721  0.6992  0.7904
22987SOL    HW173899   5.451   2.735   1.433  1.2490  1.0099  0.8318
22987SOL    HW273900   5.350   2.820   1.358 -0.5225 -1.2675  0.5389
22988SOL     OW73901   2.626   3.884   9.349  0.9572 -0.0474 -0.1248
22988SOL    HW173902   2.567   3.846   9.283  1.5450 -0.5589 -0.3694
22988SOL    HW273903   2.588   3.858   9.432  0.5490  0.0677 -0.2743
22989SOL     OW73904   8.164   5.876   3.560  0.5635 -0.5786  0.2187
22989SOL    HW173905   8.122   5.794   3.586  0.9075 -0.4145  1.3444
22989SOL    HW273906   8.092   5.937   3.548  0.4480 -0.2577  2.2811
22990SOL     OW73907   9.366   2.950   4.413 -0.5018 -0.4414  0.3576
22990SOL    HW173908   9.333   2.881   4.355 -1.3304 -1.3015  1.7966
22990SOL    HW273909   9.458   2.927   4.428 -0.7268 -1.1634  0.6962
22991SOL     OW73910   1.675   2.687   5.765  0.7344  0.3643 -0.4968
22991SOL    HW173911   1.642   2.708   5.852  0.4606 -0.0815 -0.4906
22991SOL    HW273912   1.597   2.684   5.710  0.9375  0.9713 -0.8315
22992SOL     OW73913   0.644   7.803   5.356  0.7606 -0.3163  0.1895
22992SOL    HW173914   0.689   7.879   5.393 -2.1609  2.0579 -0.7915
22992SOL    HW273915   0.632   7.825   5.264 -2.9712 -0.3935  0.5228
22993SOL     OW73916   8.648   4.840   4.524 -0.4470  0.0411 -0.0297
22993SOL    HW173917   8.582   4.894   4.565 -0.6108  2.1444 -2.7913
22993SOL    HW273918   8.731   4.883   4.544 -0.2141 -0.6919  0.6337
22994SOL     OW73919   6.931  10.401   9.717  0.3034  0.1726 -0.7277
22994SOL    HW173920   7.014  10.374   9.757  0.4849  1.3773 -0.2428
22994SOL    HW273921   6.892  10.320   9.685  2.2570 -0.2847 -2.1404
22995SOL     OW73922   4.358   2.410   5.193  0.2940 -0.3309  0.0454
22995SOL    HW173923   4.446   2.448   5.187  0.4316 -0.4753  1.0139
22995SOL    HW273924   4.342   2.374   5.106  1.3499 -0.6364 -0.0438
22996SOL     OW73925   0.827   1.231   1.375  0.3077 -0.7768 -0.0755
22996SOL    HW173926   0.881   1.284   1.317 -0.2054 -0.6528 -0.4577
22996SOL    HW273927   0.770   1.294   1.420  0.9132 -0.8420  0.8042
22997SOL     OW73928  10.316   5.201   4.776  0.6832 -0.2672 -0.2095
22997SOL    HW173929  10.378   5.165   4.840  1.0462  0.1197 -0.3372
22997SOL    HW273930  10.358   5.187   4.692  1.7938  2.2451 -0.1477
22998SOL     OW73931   4.237   3.547  11.127 -0.1595  0.6267  0.5409
22998SOL    HW173932   4.171   3.599  11.173 -0.5660  0.7371 -0.1512
22998SOL    HW273933   4.313   3.605  11.121 -0.6525  1.2030 -0.3351
22999SOL     OW73934   0.489   3.415   9.539 -0.3826 -0.3722  0.1550
22999SOL    HW173935   0.449   3.463   9.466 -3.1893  1.6654  2.7684
22999SOL    HW273936   0.580   3.402   9.513 -1.2929 -0.0244 -3.7688
23000SOL     OW73937   1.447   2.544   1.371  0.3024 -0.0415  0.3045
23000SOL    HW173938   1.471   2.625   1.325  2.2384  0.3276  1.8158
23000SOL    HW273939   1.360   2.561   1.407  1.8650  2.7470  3.2867
23001SOL     OW73940   2.398   5.763   7.141 -0.1816  0.6037  0.0922
23001SOL    HW173941   2.311   5.725   7.147 -0.6746  1.4644 -1.2582
23001SOL    HW273942   2.456   5.696   7.177 -1.4722  0.3964  1.9186
23002SOL     OW73943   5.214   0.377   9.675  0.9097  0.1545  0.1128
23002SOL    HW173944   5.187   0.441   9.610  0.6466 -0.3082 -0.2416
23002SOL    HW273945   5.296   0.411   9.710  1.9664 -0.4288 -1.6791
23003SOL     OW73946   6.106   1.013   4.569 -0.6747 -0.0910 -0.0309
23003SOL    HW173947   6.092   1.096   4.613  1.8165 -0.1873  1.1241
23003SOL    HW273948   6.080   0.946   4.633 -1.3484 -0.2293 -0.4378
23004SOL     OW73949   7.808   1.787   4.954 -0.1225  0.1645  0.3047
23004SOL    HW173950   7.782   1.832   5.035  0.8059 -1.2717  1.4379
23004SOL    HW273951   7.744   1.717   4.943  0.2899 -0.2202  0.3148
23005SOL     OW73952   0.628   2.704   1.601 -0.2970  0.2063 -0.1536
23005SOL    HW173953   0.566   2.697   1.673 -0.1467  0.1601 -0.0283
23005SOL    HW273954   0.654   2.796   1.600  1.6204 -0.2665  1.4669
23006SOL     OW73955  10.446  11.273   8.874  0.4546 -0.5177 -0.1207
23006SOL    HW173956  10.392  11.200   8.903  0.3187 -0.8489 -1.1631
23006SOL    HW273957  10.413  11.349   8.923  0.9264 -1.2262  1.3396
23007SOL     OW73958  10.952   2.922   7.793 -0.6259 -0.1011  0.2860
23007SOL    HW173959  11.007   2.886   7.724  1.3379  0.2887  1.5707
23007SOL    HW273960  10.914   2.845   7.836  0.5634 -0.4890  0.6713
23008SOL     OW73961  10.679   2.560   6.791  0.3710 -0.7596  0.3122
23008SOL    HW173962  10.768   2.546   6.824  0.3080 -1.8757  0.0347
23008SOL    HW273963  10.623   2.547   6.868  0.4158 -0.5113  0.3872
23009SOL     OW73964   2.591   9.001   1.738 -0.3663  0.7780 -0.6677
23009SOL    HW173965   2.621   9.077   1.689 -1.3309  0.2837 -2.0946
23009SOL    HW273966   2.583   8.932   1.673  1.3815 -0.8566  0.7574
23010SOL     OW73967   1.922   6.224   3.064  0.6879  0.4648  0.0733
23010SOL    HW173968   1.917   6.283   3.139  0.3716  0.7825 -0.1910
23010SOL    HW273969   1.866   6.265   2.998  0.1292 -0.3412  0.0293
23011SOL     OW73970   8.835  10.805   2.148 -0.4609 -0.2275  0.4414
23011SOL    HW173971   8.810  10.755   2.070 -0.0207  1.2755 -0.7148
23011SOL    HW273972   8.756  10.854   2.171 -0.5435 -0.5509  0.8698
23012SOL     OW73973   7.804   2.057   1.163 -0.0204  0.3797 -0.0233
23012SOL    HW173974   7.839   2.146   1.172 -0.4038  0.2962  3.7904
23012SOL    HW273975   7.713   2.071   1.136 -0.4091  1.2790  1.6082
23013SOL     OW73976   8.243   8.255   9.726  0.1927 -0.8660 -0.1802
23013SOL    HW173977   8.236   8.177   9.781 -2.4036 -1.2272 -0.8504
23013SOL    HW273978   8.293   8.226   9.650  0.4931 -1.4585  0.2300
23014SOL     OW73979   3.594   9.989   9.120  0.0380  0.1895  0.2441
23014SOL    HW173980   3.529   9.949   9.063  0.7438  1.0064 -1.1876
23014SOL    HW273981   3.607   9.926   9.191 -0.5353 -1.0568 -0.7272
23015SOL     OW73982  11.554   9.992   2.836  0.4538  0.1543 -0.3250
23015SOL    HW173983  11.566  10.029   2.748  1.6368 -0.7625 -0.5666
23015SOL    HW273984  11.464  10.015   2.859  0.2758  0.8156 -1.5805
23016SOL     OW73985   8.919   4.857   5.014  0.3489  0.1937 -0.0933
23016SOL    HW173986   8.915   4.948   5.044 -0.1417 -0.2908  1.4131
23016SOL    HW273987   8.862   4.809   5.075  1.2789 -1.2610 -0.3107
23017SOL     OW73988   3.447   9.942   1.899 -0.1405  0.0261 -0.7328
23017SOL    HW173989   3.474   9.866   1.949  0.0986 -1.4296 -2.9199
23017SOL    HW273990   3.525   9.998   1.896  0.3145 -0.5888 -0.7130
23018SOL     OW73991   5.336   8.663   2.451 -0.3658  0.4749  0.1919
23018SOL    HW173992   5.268   8.648   2.385 -2.7097  0.2763  2.5019
23018SOL    HW273993   5.290   8.660   2.535  2.4313  0.9200  1.8849
23019SOL     OW73994   3.105   3.697   2.979  0.6888 -0.0131 -0.2927
23019SOL    HW173995   3.062   3.782   2.995  0.8595 -0.1390  0.9364
23019SOL    HW273996   3.069   3.639   3.046  0.9857 -0.7773 -0.7783
23020SOL     OW73997   6.233   4.436   9.512 -0.2559 -0.1259 -0.0142
23020SOL    HW173998   6.156   4.471   9.467 -1.6767 -1.7257  1.0332
23020SOL    HW273999   6.232   4.480   9.597  1.1183  1.2171 -0.6374
23021SOL     OW74000   7.466   8.332   3.825  0.0543 -0.1439 -0.0982
23021SOL    HW174001   7.405   8.301   3.758 -2.6214  0.5875  1.8499
23021SOL    HW274002   7.494   8.254   3.872  0.8206 -0.4988 -1.1039
23022SOL     OW74003   4.181   1.988   6.415 -0.2336  0.0645  0.1324
23022SOL    HW174004   4.108   1.979   6.354  0.3729 -4.0905 -0.2266
23022SOL    HW274005   4.239   2.053   6.374 -1.2707 -0.3921 -2.1737
23023SOL     OW74006   0.619   8.146   6.229 -0.1472  0.2071 -0.2712
23023SOL    HW174007   0.696   8.127   6.282  0.0881 -2.7829 -1.5227
23023SOL    HW274008   0.650   8.207   6.162  1.1296 -0.8054 -0.6380
23024SOL     OW74009   9.906   3.412   9.634  0.2691  0.3995  0.3660
23024SOL    HW174010   9.817   3.389   9.608  1.1062 -1.8005 -0.8333
23024SOL    HW274011   9.918   3.371   9.719  0.7247 -0.9867 -0.3413
23025SOL     OW74012   0.198   5.194   2.915 -0.0036  0.2398 -0.5045
23025SOL    HW174013   0.222   5.104   2.936 -0.8606  0.4421  1.5158
23025SOL    HW274014   0.269   5.248   2.951 -0.2998  0.4670 -0.2552
23026SOL     OW74015   8.979  11.267   5.276  0.1726 -0.9445  0.2418
23026SOL    HW174016   8.914  11.232   5.338 -1.2191 -0.8029 -1.0686
23026SOL    HW274017   8.933  11.339   5.232  2.3311  1.3928  1.5623
23027SOL     OW74018   9.751   2.881   2.361  0.0265  0.1918 -0.1511
23027SOL    HW174019   9.809   2.906   2.289 -0.9828  1.2600 -0.6345
23027SOL    HW274020   9.806   2.830   2.420  1.2687  0.5800 -0.9347
23028SOL     OW74021   2.114   3.945  10.285 -0.3096  0.0856  0.3666
23028SOL    HW174022   2.083   3.857  10.304 -0.6254  0.0889 -0.1222
23028SOL    HW274023   2.045   3.984  10.232 -1.1924  1.3874  2.3587
23029SOL     OW74024   0.385   4.077   0.798  0.3691  0.4524 -0.5714
23029SOL    HW174025   0.436   4.157   0.793 -0.7812  1.3402  0.8902
23029SOL    HW274026   0.354   4.074   0.889 -1.0415 -0.7404 -1.0394
23030SOL     OW74027   0.005   9.833   7.522  0.0804  0.4632 -0.8324
23030SOL    HW174028   0.069   9.844   7.592  1.6607 -3.0501 -1.5153
23030SOL    HW274029   0.043   9.879   7.447  1.7552 -1.2267 -1.1090
23031SOL     OW74030   5.386   1.849   7.302  0.0833 -0.5192  0.2836
23031SOL    HW174031   5.314   1.794   7.334  0.6236 -1.9103 -0.7976
23031SOL    HW274032   5.366   1.864   7.209 -1.0367  2.7596  0.9305
23032SOL     OW74033   7.320   1.128   6.235  0.3929 -0.4852  0.1220
23032SOL    HW174034   7.333   1.124   6.330 -2.6499  0.7340  0.7090
23032SOL    HW274035   7.349   1.216   6.211 -0.3952 -0.1863  0.2436
23033SOL     OW74036   3.999   3.536   1.577 -0.3548 -0.2451  0.1326
23033SOL    HW174037   3.938   3.535   1.503  0.0924  0.3263 -0.2531
23033SOL    HW274038   3.958   3.595   1.641  0.6992  1.7568 -0.9445
23034SOL     OW74039   6.953   2.124   5.551 -0.3756  0.0320 -0.2655
23034SOL    HW174040   6.933   2.172   5.471 -0.5324 -0.3395 -0.4518
23034SOL    HW274041   6.868   2.099   5.587 -0.3048  0.1470 -0.0122
23035SOL     OW74042   7.241   9.044   1.891  0.5522  0.0026  0.3894
23035SOL    HW174043   7.281   9.086   1.967  0.3516  0.2007  0.3860
23035SOL    HW274044   7.310   9.048   1.824  0.1614  1.3435  0.0349
23036SOL     OW74045   6.747   8.884   8.698 -0.3629 -0.0878  0.4594
23036SOL    HW174046   6.657   8.914   8.709  0.0015  1.4753 -0.5381
23036SOL    HW274047   6.797   8.963   8.678  1.1755 -0.9795  0.6138
23037SOL     OW74048  10.784  10.172   8.056 -0.0960  0.1742 -0.5471
23037SOL    HW174049  10.813  10.089   8.020  0.8470  0.8647 -1.4623
23037SOL    HW274050  10.862  10.210   8.097 -0.6004  0.4451  0.1908
23038SOL     OW74051   3.088   9.206   1.658  0.4646 -0.4107 -0.3970
23038SOL    HW174052   3.087   9.157   1.576  0.4240 -0.6330 -0.2612
23038SOL    HW274053   3.034   9.155   1.718  1.9119 -1.1795  0.3059
23039SOL     OW74054   0.998   8.558   7.188 -0.0813  0.0870 -0.3095
23039SOL    HW174055   0.910   8.547   7.225 -0.8317 -2.4353 -2.5362
23039SOL    HW274056   0.986   8.622   7.117  0.2222  0.8577  0.3219
23040SOL     OW74057  10.819  11.240   4.014  0.4002  0.1928 -0.2018
23040SOL    HW174058  10.798  11.329   3.990  0.1728  1.2830  3.4565
23040SOL    HW274059  10.740  11.189   3.995 -0.1710  1.1845 -0.5009
23041SOL     OW74060   8.463   7.363   0.192 -0.7112  0.6784  0.2384
23041SOL    HW174061   8.476   7.352   0.287 -0.3072 -0.9304  0.0261
23041SOL    HW274062   8.489   7.279   0.155  2.6975  2.3613 -1.6768
23042SOL     OW74063   4.399   8.278   1.475  0.5823 -0.3825  0.3396
23042SOL    HW174064   4.403   8.270   1.571 -0.4797 -0.4876  0.3811
23042SOL    HW274065   4.317   8.237   1.451 -0.2573  1.5939 -0.3948
23043SOL     OW74066   5.753   8.454   1.263  0.3102 -0.2077 -0.0260
23043SOL    HW174067   5.821   8.512   1.298 -0.9927  1.3694  0.0035
23043SOL    HW274068   5.777   8.440   1.172  0.1630  1.1269 -0.2749
23044SOL     OW74069  10.997   4.805   2.842  0.6059  0.0622  0.6389
23044SOL    HW174070  11.016   4.842   2.928 -3.2007  0.0331  1.6789
23044SOL    HW274071  10.968   4.716   2.860 -0.0307 -0.0229 -0.6863
23045SOL     OW74072   5.642   0.588  11.389  0.4307  0.4712 -0.6375
23045SOL    HW174073   5.580   0.627  11.326  1.4208  0.0296 -1.9414
23045SOL    HW274074   5.628   0.494  11.381  0.0919  0.4402  0.3191
23046SOL     OW74075   1.205   0.150   0.350 -0.1999 -0.1192 -0.0656
23046SOL    HW174076   1.282   0.197   0.318 -1.2429  0.5718 -1.7061
23046SOL    HW274077   1.132   0.187   0.300 -1.5474 -1.0485  1.1336
23047SOL     OW74078   1.571   2.661   1.811 -0.5949 -0.9069  0.0637
23047SOL    HW174079   1.546   2.587   1.755 -1.8939 -0.7271  0.3726
23047SOL    HW274080   1.506   2.728   1.791 -0.8090 -0.6805  1.4698
23048SOL     OW74081   1.807   2.283   3.593  0.5437 -0.1775  0.3190
23048SOL    HW174082   1.823   2.377   3.585 -1.1609  0.1768  0.8341
23048SOL    HW274083   1.783   2.270   3.684 -0.8565 -0.8357 -0.1220
23049SOL     OW74084  11.146   4.176   9.833  0.3525 -0.7776  0.4113
23049SOL    HW174085  11.068   4.126   9.807 -0.0289  0.8194 -1.7112
23049SOL    HW274086  11.146   4.171   9.929 -0.8053 -3.0761  0.3660
23050SOL     OW74087   8.542   4.892   1.070 -0.1508 -0.4982 -0.0740
23050SOL    HW174088   8.521   4.799   1.074 -0.4255 -0.4380 -0.1217
23050SOL    HW274089   8.629   4.898   1.110 -0.9638 -0.5129  1.8210
23051SOL     OW74090   2.508   5.937   4.867 -0.1703  0.1850  0.3700
23051SOL    HW174091   2.498   5.933   4.962 -0.7483 -1.1911  0.2749
23051SOL    HW274092   2.570   6.009   4.853 -0.1410  0.4726  1.7713
23052SOL     OW74093   2.146   6.302   4.869  0.0940  0.1672 -0.1265
23052SOL    HW174094   2.123   6.243   4.941 -1.2923  0.4193 -0.3390
23052SOL    HW274095   2.090   6.274   4.796  1.4903 -0.0994 -1.1419
23053SOL     OW74096   7.646   1.772  11.555 -0.0754  0.2231  0.2787
23053SOL    HW174097   7.617   1.820  11.477  1.0091 -0.2405 -0.4177
23053SOL    HW274098   7.725   1.818  11.583 -1.1335  1.1777  1.8904
23054SOL     OW74099   4.246   4.820   5.293 -0.0019 -0.1898 -0.0980
23054SOL    HW174100   4.211   4.750   5.237 -1.3109 -0.6643  1.2310
23054SOL    HW274101   4.168   4.856   5.337  0.8051  1.2387  0.2185
23055SOL     OW74102   4.105  10.902   7.571 -0.2824 -0.3146  0.9304
23055SOL    HW174103   4.091  10.960   7.646 -0.8662  1.4034 -0.4485
23055SOL    HW274104   4.200  10.897   7.561 -0.2176  0.0318  1.3454
23056SOL     OW74105   8.011   3.505   8.851 -1.1315  0.0983 -0.1199
23056SOL    HW174106   7.974   3.556   8.924 -0.8429  1.6609 -1.0086
23056SOL    HW274107   8.092   3.551   8.830 -0.1881 -1.5263 -0.1424
23057SOL     OW74108   7.202   5.214  10.778 -0.2718  0.3773 -0.2004
23057SOL    HW174109   7.244   5.295  10.807  0.9504 -0.0199 -0.7892
23057SOL    HW274110   7.233   5.148  10.839  2.5863 -0.5319 -2.3924
23058SOL     OW74111   4.934   0.581   5.276 -0.6620 -0.3228  0.1503
23058SOL    HW174112   4.970   0.639   5.343  0.0708 -0.8156  0.1929
23058SOL    HW274113   4.945   0.493   5.312 -1.9290 -0.4903  0.1640
23059SOL     OW74114   4.767   0.898   2.578 -0.0870 -0.4707 -0.0892
23059SOL    HW174115   4.686   0.945   2.559 -1.4853 -1.5433  2.6731
23059SOL    HW274116   4.836   0.962   2.562 -1.6832  1.5150  0.4778
23060SOL     OW74117  11.259   6.976   2.386 -0.7793 -0.1461 -0.0259
23060SOL    HW174118  11.207   7.037   2.332  0.8400  1.5524  0.2375
23060SOL    HW274119  11.254   6.893   2.339 -0.5117  0.9566 -2.1381
23061SOL     OW74120   0.753   6.018   8.582  0.2779  0.1695  0.2648
23061SOL    HW174121   0.847   6.021   8.563  0.0597  0.6453 -0.8258
23061SOL    HW274122   0.740   5.934   8.625  1.3257  0.4344  1.1550
23062SOL     OW74123   2.730   5.348   9.902  0.4004 -0.0560  0.0438
23062SOL    HW174124   2.656   5.313   9.952  1.5393 -1.6187  0.7190
23062SOL    HW274125   2.711   5.324   9.812 -0.1495  0.0257  0.1287
23063SOL     OW74126   4.727   6.478   0.786 -0.0304 -0.2030 -0.0164
23063SOL    HW174127   4.753   6.389   0.764 -0.1027  0.0452 -1.1703
23063SOL    HW274128   4.778   6.534   0.727  0.3531  0.5601  0.9959
23064SOL     OW74129   6.347  10.370   1.881  0.2884 -0.4891  0.4320
23064SOL    HW174130   6.343  10.451   1.830  3.4351 -0.4238  0.0860
23064SOL    HW274131   6.308  10.303   1.824 -2.5435  0.7214  0.8108
23065SOL     OW74132   4.524   9.099   3.306 -0.2503  0.4828 -0.6694
23065SOL    HW174133   4.437   9.110   3.268  0.3935  0.5993 -2.1432
23065SOL    HW274134   4.567   9.033   3.252  0.0452 -0.8059  1.0242
23066SOL     OW74135   9.062   2.448   4.156 -0.1379  0.1751  0.0270
23066SOL    HW174136   9.091   2.386   4.222  3.3813  1.4714 -0.1039
23066SOL    HW274137   9.016   2.516   4.206 -0.6485 -0.5905  0.6266
23067SOL     OW74138   6.473   8.861  11.293 -0.3146 -0.0555  0.0951
23067SOL    HW174139   6.562   8.834  11.313 -0.6468 -0.3953  1.1680
23067SOL    HW274140   6.465   8.849  11.198  0.6935 -0.2616  0.0268
23068SOL     OW74141   3.748   9.985   3.114 -0.1112 -0.0658  0.2295
23068SOL    HW174142   3.744  10.048   3.043 -1.5130  0.8054  1.0415
23068SOL    HW274143   3.802   9.914   3.080  0.9597  1.2527 -0.9424
23069SOL     OW74144  10.502   3.658  10.216 -0.5361  0.2740 -0.0698
23069SOL    HW174145  10.471   3.748  10.226 -2.0551 -0.3159  0.9107
23069SOL    HW274146  10.597   3.665  10.216 -0.6150  1.8065  0.9683
23070SOL     OW74147   9.409   7.030   3.514 -0.1745 -0.4634 -0.0692
23070SOL    HW174148   9.402   6.997   3.425 -0.4113  0.0595 -0.2517
23070SOL    HW274149   9.333   6.995   3.560 -1.3155  1.0909 -0.6888
23071SOL     OW74150   5.900   0.953   1.739  0.0712 -0.3466 -0.9176
23071SOL    HW174151   5.880   1.041   1.769 -2.0329 -1.1906  0.3459
23071SOL    HW274152   5.970   0.923   1.797 -0.5201 -0.1723 -0.0969
23072SOL     OW74153   7.229   2.233   1.959 -0.3888 -0.5238  0.4288
23072SOL    HW174154   7.234   2.325   1.983 -0.8546 -0.4711  0.3423
23072SOL    HW274155   7.314   2.212   1.922 -1.6810  1.1715 -4.1545
23073SOL     OW74156   7.127   6.521   9.759  0.0390  0.1615  0.1078
23073SOL    HW174157   7.071   6.596   9.779  0.3179 -0.2957  3.0823
23073SOL    HW274158   7.085   6.448   9.804  1.1425 -0.9340 -0.5765
23074SOL     OW74159   3.236   4.387   3.078  0.3745 -0.3363 -0.1289
23074SOL    HW174160   3.196   4.362   2.994 -1.6585 -1.4558  1.0848
23074SOL    HW274161   3.190   4.335   3.143  0.3031  2.0988  1.9512
23075SOL     OW74162   8.204   6.456   9.423  0.0155  0.2615 -0.3768
23075SOL    HW174163   8.243   6.372   9.399 -0.3450  0.5451 -2.1264
23075SOL    HW274164   8.130   6.434   9.480 -0.3807 -0.6630 -1.2243
23076SOL     OW74165   2.898  10.023   2.353 -0.4564  0.4115  0.2723
23076SOL    HW174166   2.815   9.998   2.393 -1.0814  0.3664 -1.0116
23076SOL    HW274167   2.963   9.968   2.396 -1.3139 -0.7235  0.1613
23077SOL     OW74168   9.883  11.201   2.727 -0.7064 -0.2361  0.3898
23077SOL    HW174169   9.960  11.236   2.771 -0.1887  1.1348 -1.4925
23077SOL    HW274170   9.819  11.273   2.728 -0.3414  0.2021 -1.8199
23078SOL     OW74171   2.966   9.301   8.492  0.0883 -0.2139 -0.3137
23078SOL    HW174172   2.883   9.346   8.473 -1.1442 -2.5332 -0.8336
23078SOL    HW274173   2.968   9.294   8.588 -1.1593 -1.4792 -0.3346
23079SOL     OW74174   8.564  10.396  10.658 -0.5341 -0.1909  0.4087
23079SOL    HW174175   8.507  10.390  10.581 -0.9613 -1.4713  0.8055
23079SOL    HW274176   8.649  10.367  10.626 -0.3401  0.7403  0.0612
23080SOL     OW74177   7.921   9.903   7.151 -0.3814  0.2923 -0.0736
23080SOL    HW174178   7.926   9.977   7.090 -1.0301  0.9880  0.6782
23080SOL    HW274179   7.997   9.915   7.208  0.9063 -1.0340 -1.4351
23081SOL     OW74180   9.425   9.139  10.693 -0.2025 -0.2533  0.4159
23081SOL    HW174181   9.333   9.116  10.699 -0.6059  0.1574 -2.5316
23081SOL    HW274182   9.445   9.131  10.599  2.5985  0.2655  0.8899
23082SOL     OW74183   7.784   1.970   6.002  0.5211 -0.2057 -0.1225
23082SOL    HW174184   7.821   1.946   5.918  1.0863 -0.6733  0.2550
23082SOL    HW274185   7.707   2.024   5.980  1.7020  1.2332 -0.9205
23083SOL     OW74186   4.214   2.668   0.967 -0.0029 -0.0259 -0.3128
23083SOL    HW174187   4.198   2.627   1.052 -0.9014 -0.5663 -0.7211
23083SOL    HW274188   4.303   2.643   0.944  0.2351  0.0994  0.4532
23084SOL     OW74189   0.407   6.912   3.027  0.3595  0.2454 -0.0539
23084SOL    HW174190   0.357   6.986   3.061 -1.1312  0.4147 -2.3943
23084SOL    HW274191   0.353   6.836   3.046  1.6116 -0.2413  1.8076
23085SOL     OW74192   3.508   8.267   5.945 -0.2383 -0.3997 -0.1948
23085SOL    HW174193   3.544   8.181   5.965  3.4606  1.4321  2.0586
23085SOL    HW274194   3.441   8.281   6.013  0.0838 -0.9575  0.2431
23086SOL     OW74195   4.248   6.247   2.525  0.2475  0.3214 -0.3953
23086SOL    HW174196   4.281   6.254   2.436  0.0809  2.2228 -0.3588
23086SOL    HW274197   4.153   6.258   2.517 -0.1083 -1.9977 -0.1855
23087SOL     OW74198   9.882   5.804  10.635 -0.2094  0.6471 -0.3540
23087SOL    HW174199   9.904   5.738  10.570 -3.0678 -0.0571 -0.7332
23087SOL    HW274200   9.909   5.887  10.595 -1.0711  0.1404 -2.1094
23088SOL     OW74201   7.592   4.861   3.701 -0.1470  0.0365  0.2635
23088SOL    HW174202   7.580   4.776   3.660 -1.5338  0.6675 -0.7414
23088SOL    HW274203   7.551   4.852   3.787  0.8109 -0.6564  0.6558
23089SOL     OW74204   5.077   5.227   9.566  0.0214  0.0380 -0.4162
23089SOL    HW174205   5.109   5.156   9.510 -1.8523 -0.4918 -0.8753
23089SOL    HW274206   5.094   5.197   9.656  0.9571 -0.1224 -0.6375
23090SOL     OW74207  11.545   9.927  10.435 -0.4651 -0.3733  0.0914
23090SOL    HW174208  11.551   9.995  10.502 -0.2291 -0.2777 -0.0253
23090SOL    HW274209  11.465   9.948  10.386  0.6054  0.9412 -1.1556
23091SOL     OW74210   2.497   1.033   9.345 -0.1529 -0.2498  0.1913
23091SOL    HW174211   2.542   1.075   9.272  0.9965 -1.4486  0.1615
23091SOL    HW274212   2.495   0.940   9.321 -0.7732 -0.5018  1.1731
23092SOL     OW74213   4.067   5.270   6.411 -0.5126 -0.2205  0.2719
23092SOL    HW174214   4.031   5.202   6.354 -0.5245 -0.1237  0.1643
23092SOL    HW274215   4.150   5.234   6.441  1.6220  1.3928 -3.1187
23093SOL     OW74216   8.232   3.950   5.986  0.3117 -0.4978 -0.0487
23093SOL    HW174217   8.323   3.977   5.998  0.6925 -1.8348  0.2453
23093SOL    HW274218   8.181   4.020   6.026  1.2527 -0.2374  0.7432
23094SOL     OW74219  10.150   3.735  10.245  0.2751 -0.1662 -0.6318
23094SOL    HW174220  10.082   3.762  10.306 -1.2449 -2.7180 -1.0095
23094SOL    HW274221  10.172   3.645  10.272  0.5487 -0.8628 -2.9410
23095SOL     OW74222   1.548   3.597  11.685  0.0641  0.4033 -0.3261
23095SOL    HW174223   1.528   3.660  11.754  1.0367  2.0972 -1.5242
23095SOL    HW274224   1.643   3.588  11.687  0.2598  1.5348 -2.2776
23096SOL     OW74225   8.651   2.363  11.413  0.6085  0.5181  0.2204
23096SOL    HW174226   8.619   2.320  11.334  2.3851 -1.3051  0.3988
23096SOL    HW274227   8.747   2.360  11.405  0.8329  2.5018  1.3310
23097SOL     OW74228   8.530   4.398   0.069 -0.1146  0.2280 -0.1174
23097SOL    HW174229   8.513   4.323   0.012 -0.0561  0.6208 -0.6619
23097SOL    HW274230   8.568   4.464   0.010 -2.2855  1.5379 -0.1375
23098SOL     OW74231   9.644   9.592  11.025 -0.9481  0.2508  0.0622
23098SOL    HW174232   9.652   9.509  10.977  1.5309 -0.0405  0.8210
23098SOL    HW274233   9.639   9.566  11.117  0.7965  0.8877  0.3849
23099SOL     OW74234   6.006  11.529   7.754 -0.6295 -0.1640  0.2200
23099SOL    HW174235   6.053  11.597   7.803  0.2495 -0.0627 -0.7174
23099SOL    HW274236   5.935  11.502   7.812 -1.0898  1.6583  0.5643
23100SOL     OW74237   8.315   4.605   6.315 -0.2166 -0.1785  0.0220
23100SOL    HW174238   8.357   4.690   6.304 -1.2137  0.0775 -2.7868
23100SOL    HW274239   8.387   4.545   6.336  1.1479  0.7587 -1.6715
23101SOL     OW74240   2.489   8.022   7.038  0.5778 -0.2066  0.0572
23101SOL    HW174241   2.440   7.982   7.110 -0.3604  2.0362  0.7395
23101SOL    HW274242   2.432   8.013   6.962  0.5385 -0.5118  0.1227
23102SOL     OW74243   0.696   1.632  10.172  0.1618 -0.2716 -0.2350
23102SOL    HW174244   0.644   1.668  10.100  0.7474 -0.4155 -0.7441
23102SOL    HW274245   0.786   1.658  10.151  0.1411  1.5531  1.5445
23103SOL     OW74246   4.620   4.291   4.434  0.1984  0.2338 -0.0551
23103SOL    HW174247   4.634   4.273   4.342 -0.9518  1.1511 -0.4356
23103SOL    HW274248   4.553   4.228   4.461  0.9292 -0.4037  0.3124
23104SOL     OW74249   9.253   0.078  10.711 -0.1731 -0.8283  0.2822
23104SOL    HW174250   9.311   0.139  10.757 -0.3218  0.5512 -1.2524
23104SOL    HW274251   9.313   0.014  10.672  0.4225  0.6012 -1.3157
23105SOL     OW74252   7.516   5.045   3.307 -0.1387 -0.1225  0.4610
23105SOL    HW174253   7.582   5.101   3.266  0.0822  0.0966  1.1074
23105SOL    HW274254   7.517   4.965   3.254 -1.9541  1.2241 -1.7987
23106SOL     OW74255   5.768   7.421   3.378  0.0740  0.3343 -0.0762
23106SOL    HW174256   5.855   7.460   3.381  0.8433 -1.3195  2.5051
23106SOL    HW274257   5.783   7.331   3.347 -0.3555 -0.6013  2.2572
23107SOL     OW74258   7.858   4.089   2.408  0.6243  0.1873 -0.4556
23107SOL    HW174259   7.871   4.070   2.501  0.1979  1.2178 -0.1744
23107SOL    HW274260   7.787   4.031   2.381 -0.3041  0.9756  0.2498
23108SOL     OW74261   7.765   2.641  10.250  0.5458 -0.5222  0.0776
23108SOL    HW174262   7.751   2.678  10.163 -0.3523 -1.4742 -0.1905
23108SOL    HW274263   7.762   2.717  10.308  0.2791  0.0141 -0.6243
23109SOL     OW74264   5.504   2.404   6.160 -0.2609 -0.1478  0.3440
23109SOL    HW174265   5.500   2.313   6.189  1.8161 -0.8651 -1.3300
23109SOL    HW274266   5.424   2.443   6.194 -1.9733 -2.9502 -0.0969
23110SOL     OW74267   2.443   3.149   9.979  0.4466  0.4706 -0.5332
23110SOL    HW174268   2.518   3.170  10.033  0.0857  0.7515 -0.1310
23110SOL    HW274269   2.437   3.054   9.981  1.0524  0.4150 -0.9392
23111SOL     OW74270   1.215   7.379  11.272  0.0128  0.0609  1.0767
23111SOL    HW174271   1.252   7.290  11.274 -0.4159 -0.2600 -1.6131
23111SOL    HW274272   1.132   7.371  11.319  0.4519 -0.7041  1.7472
23112SOL     OW74273   2.050   6.333   5.964 -0.7195 -0.1644  0.4243
23112SOL    HW174274   2.002   6.271   6.019 -1.5775 -1.0371 -1.2117
23112SOL    HW274275   2.037   6.300   5.875 -0.7273  2.0643 -0.4699
23113SOL     OW74276   4.765  11.156   0.614 -0.3546  0.1151  0.0227
23113SOL    HW174277   4.775  11.099   0.539  2.1078  0.5035 -0.0209
23113SOL    HW274278   4.801  11.240   0.586  1.0029  0.1620  1.7080
23114SOL     OW74279   0.400   9.418   1.222 -0.4142 -0.5437 -0.0521
23114SOL    HW174280   0.495   9.404   1.228 -0.5192 -2.2084 -1.6032
23114SOL    HW274281   0.364   9.331   1.205 -2.4824 -0.3271  2.5569
23115SOL     OW74282   6.983  10.890   5.169 -0.2601  0.8496  0.0497
23115SOL    HW174283   7.076  10.892   5.150 -0.2489 -0.5356 -0.1697
23115SOL    HW274284   6.975  10.837   5.249 -0.8242  1.3468  0.3358
23116SOL     OW74285   6.874   1.557   0.169  0.4310  0.2175  0.5280
23116SOL    HW174286   6.887   1.463   0.159  1.2543  0.3434  0.3657
23116SOL    HW274287   6.788   1.573   0.129  1.2179 -0.1482 -1.4464
23117SOL     OW74288   7.107   1.531   2.354  0.0920 -0.5012  0.0277
23117SOL    HW174289   7.153   1.448   2.360 -2.2137 -1.8499  0.2724
23117SOL    HW274290   7.026   1.518   2.403 -0.7425  1.6117 -0.6424
23118SOL     OW74291   0.716  11.350   7.406 -0.3047  0.8307  0.0856
23118SOL    HW174292   0.722  11.281   7.472  0.2950  0.2039 -0.5966
23118SOL    HW274293   0.625  11.349   7.378  0.0029 -0.7151 -0.9679
23119SOL     OW74294   6.653   0.293   3.596  0.1311  0.1470  0.4383
23119SOL    HW174295   6.633   0.289   3.502  0.2776 -1.8020  0.4635
23119SOL    HW274296   6.571   0.324   3.635 -0.7074 -1.2213 -0.1396
23120SOL     OW74297   8.637   8.939   7.076 -0.5819 -0.4968 -0.2912
23120SOL    HW174298   8.728   8.966   7.084 -0.2765 -1.5055 -0.1197
23120SOL    HW274299   8.608   8.928   7.167 -0.6248 -0.9471 -0.3579
23121SOL     OW74300   6.568   5.305   3.342  0.0809  0.1193 -0.4182
23121SOL    HW174301   6.613   5.351   3.271  4.1952  0.1629  1.8915
23121SOL    HW274302   6.562   5.370   3.413 -1.6113 -0.6348  0.1866
23122SOL     OW74303   1.476   2.902   5.300 -0.5410 -0.5435 -0.4631
23122SOL    HW174304   1.570   2.900   5.317 -0.0015  1.7557 -2.5704
23122SOL    HW274305   1.454   2.813   5.272  1.4528 -0.6918 -1.7779
23123SOL     OW74306   8.003   0.846   2.938  0.0288  0.3261 -0.0519
23123SOL    HW174307   7.933   0.849   2.873 -1.3862 -3.5463  0.9623
23123SOL    HW274308   7.968   0.894   3.013 -1.0104 -0.3941 -0.0522
23124SOL     OW74309   0.388   5.454  11.653 -0.6706 -0.1952  0.6420
23124SOL    HW174310   0.392   5.421  11.563  0.6854  2.6769 -0.4840
23124SOL    HW274311   0.310   5.510  11.654 -0.6421 -0.1619  1.2366
23125SOL     OW74312  11.465  10.302  10.069  0.6312 -0.8989  0.0861
23125SOL    HW174313  11.419  10.259  10.141  1.1764  0.0621  1.0319
23125SOL    HW274314  11.502  10.381  10.108 -0.5545  0.5943 -1.6489
23126SOL     OW74315   2.836   1.280   2.956  0.2357 -0.1068 -0.2373
23126SOL    HW174316   2.912   1.237   2.997 -0.5740 -0.7643  0.6001
23126SOL    HW274317   2.763   1.259   3.013 -0.4051  1.4181 -0.4653
23127SOL     OW74318   1.857  11.577   2.510  0.6066 -0.1451 -0.0842
23127SOL    HW174319   1.902  11.572   2.425  0.2121 -0.8836 -0.2603
23127SOL    HW274320   1.895  11.653   2.553  2.4893 -1.1107  0.0443
23128SOL     OW74321   6.200   7.015   6.906 -0.4141  0.5861 -0.2891
23128SOL    HW174322   6.239   6.946   6.852  0.3808 -0.5063  1.5937
23128SOL    HW274323   6.256   7.091   6.892  0.0832  0.1665 -0.6119
23129SOL     OW74324   4.753   1.127  10.284 -0.0277  1.1525 -0.2623
23129SOL    HW174325   4.774   1.128  10.377 -0.9843  0.4642 -0.0281
23129SOL    HW274326   4.743   1.035  10.262 -1.7731  1.3757 -0.5663
23130SOL     OW74327   1.849   1.267  11.375 -0.1459  0.3864 -0.0346
23130SOL    HW174328   1.916   1.295  11.313  0.3923 -1.9955 -0.6213
23130SOL    HW274329   1.831   1.345  11.428  2.9099  1.2005 -0.0185
23131SOL     OW74330  10.071   8.398   3.870 -0.2483  0.0282  0.3784
23131SOL    HW174331  10.055   8.435   3.784  2.0753  0.2983 -0.0110
23131SOL    HW274332  10.108   8.311   3.852 -1.4187 -0.6544  1.1668
23132SOL     OW74333  11.170  11.223   4.343  0.3841  0.0552 -0.4070
23132SOL    HW174334  11.165  11.306   4.295  1.0555  0.2147 -0.2234
23132SOL    HW274335  11.237  11.238   4.410 -0.6842 -0.0975  0.7332
23133SOL     OW74336   5.025   1.711   6.301 -0.4101  0.3098  0.4739
23133SOL    HW174337   5.084   1.692   6.374  0.1105  0.5070  0.1044
23133SOL    HW274338   4.970   1.633   6.294  1.3696 -0.9127 -0.6954
23134SOL     OW74339   8.670   3.138   5.694  0.3230  0.0669  0.2626
23134SOL    HW174340   8.665   3.077   5.767  0.2596  0.2686  0.4282
23134SOL    HW274341   8.763   3.159   5.686  0.1699  1.3010  1.3370
23135SOL     OW74342   2.832  10.065   9.887  0.0201 -0.2120  0.6044
23135SOL    HW174343   2.776  10.097   9.958 -0.6656  0.9983 -0.4456
23135SOL    HW274344   2.904  10.128   9.883 -0.7696  0.6651 -0.7667
23136SOL     OW74345   6.720   4.214   0.598 -0.0294 -0.1295 -0.5011
23136SOL    HW174346   6.759   4.262   0.525  1.8471 -0.8915 -0.0668
23136SOL    HW274347   6.635   4.186   0.566 -0.0858  1.2510 -1.6707
23137SOL     OW74348  11.567   9.296   4.399  0.4575 -0.1417  0.1724
23137SOL    HW174349  11.631   9.228   4.420 -0.6168 -2.2297 -2.6635
23137SOL    HW274350  11.532   9.271   4.314 -2.9829  1.7567  0.8100
23138SOL     OW74351   8.828   1.814   1.829  0.5939 -0.9941  0.1949
23138SOL    HW174352   8.775   1.892   1.817 -0.4302 -1.5359  1.0798
23138SOL    HW274353   8.865   1.823   1.917  0.0771 -1.7340  0.4935
23139SOL     OW74354   8.735   7.854   3.086  0.3861  0.3210 -0.1026
23139SOL    HW174355   8.800   7.879   3.021  0.0334  1.7314  0.0549
23139SOL    HW274356   8.720   7.934   3.137 -0.6829 -0.2662  0.5359
23140SOL     OW74357   4.647   3.413  11.151 -0.4905 -0.6122  0.3080
23140SOL    HW174358   4.647   3.317  11.159  0.4941 -0.7164 -0.7472
23140SOL    HW274359   4.703   3.431  11.076 -0.1134  0.8395  0.9093
23141SOL     OW74360   4.597   0.302   3.009 -0.1952  0.1784  0.0981
23141SOL    HW174361   4.604   0.378   2.952 -0.8988 -0.1422 -0.4387
23141SOL    HW274362   4.576   0.338   3.096  0.0009  0.6213 -0.0375
23142SOL     OW74363   7.354   2.689   4.257  0.2843 -0.1513 -0.1922
23142SOL    HW174364   7.289   2.730   4.314  0.9475 -0.0087  0.4847
23142SOL    HW274365   7.359   2.599   4.288 -0.0777 -0.3478 -0.6907
23143SOL     OW74366   4.643   0.820   1.570 -0.0140 -0.1139  0.2197
23143SOL    HW174367   4.616   0.735   1.536  1.1279  0.1844 -1.5590
23143SOL    HW274368   4.712   0.849   1.511  0.5617  1.4601  1.5718
23144SOL     OW74369   3.593   3.809   8.641 -0.3517  0.0445 -0.0414
23144SOL    HW174370   3.558   3.725   8.672  0.5429 -0.8179 -1.2694
23144SOL    HW274371   3.684   3.808   8.669 -1.0004  1.9323  2.4635
23145SOL     OW74372   5.094   9.237   4.086 -0.2978  0.3558  0.1039
23145SOL    HW174373   5.132   9.285   4.160  2.2366 -0.0688 -0.8214
23145SOL    HW274374   5.118   9.145   4.103 -2.2677 -0.1895  0.1982
23146SOL     OW74375   5.736   5.243  11.532  0.2589  0.1324  0.0597
23146SOL    HW174376   5.700   5.190  11.461 -2.7668  1.2699  0.5872
23146SOL    HW274377   5.731   5.187  11.609  2.0982 -0.5626 -0.2697
23147SOL     OW74378   7.848   3.577  10.355 -0.1414  0.6030  0.1235
23147SOL    HW174379   7.917   3.562  10.420  1.0556  1.9238 -0.7816
23147SOL    HW274380   7.885   3.641  10.295 -2.0448  1.0756 -0.6186
23148SOL     OW74381   6.091  10.389  11.530 -0.5783  0.6906  0.5600
23148SOL    HW174382   6.139  10.309  11.511  0.2535  1.1665  0.5950
23148SOL    HW274383   6.074  10.428  11.444 -0.9131  0.5167  0.5475
23149SOL     OW74384   2.363   3.765   5.587 -0.0566  0.3401  0.0744
23149SOL    HW174385   2.425   3.737   5.521 -1.2694 -1.4457 -0.4059
23149SOL    HW274386   2.280   3.724   5.561 -0.6153 -0.3141  2.5940
23150SOL     OW74387   3.282  10.097  10.630 -0.7491 -0.4668  0.1737
23150SOL    HW174388   3.254  10.174  10.580 -1.2773 -0.2180  0.8450
23150SOL    HW274389   3.203  10.066  10.673 -0.4422 -1.1122  0.2901
23151SOL     OW74390   0.246   6.702   3.067  0.4300 -0.1670 -0.1929
23151SOL    HW174391   0.182   6.631   3.078  0.5396 -0.2691 -0.2149
23151SOL    HW274392   0.289   6.710   3.152 -0.5431  0.8085  0.2293
23152SOL     OW74393   7.693   2.794   3.276  0.3532  0.1491  0.6767
23152SOL    HW174394   7.706   2.701   3.257  1.5349  0.2746  0.7815
23152SOL    HW274395   7.632   2.824   3.209  2.6161  0.0626 -1.5795
23153SOL     OW74396   4.417   4.749   8.083  0.6748 -0.5135 -0.3514
23153SOL    HW174397   4.394   4.768   7.992  0.7402  1.3544 -0.0123
23153SOL    HW274398   4.335   4.760   8.131  1.0790  0.6791  0.0948
23154SOL     OW74399   7.395   0.908   8.384 -0.0812  0.4098  0.1481
23154SOL    HW174400   7.372   0.995   8.352  0.7968  1.0182  1.0933
23154SOL    HW274401   7.356   0.903   8.471 -1.1577 -0.6335 -0.3587
23155SOL     OW74402   0.459   6.351   7.668  0.3837 -0.3445  0.4982
23155SOL    HW174403   0.517   6.285   7.631  0.7711  0.2196  0.0828
23155SOL    HW274404   0.495   6.435   7.639 -2.1225 -0.0103 -2.1190
23156SOL     OW74405   4.971   2.081   3.263 -0.0114 -0.2226  0.1846
23156SOL    HW174406   4.908   2.129   3.210 -0.0328  0.5105  0.8579
23156SOL    HW274407   4.928   1.997   3.281 -0.9027  0.3479  0.8189
23157SOL     OW74408   3.231   1.844   7.899 -0.2744 -0.4321 -0.1412
23157SOL    HW174409   3.224   1.804   7.812  1.0988 -0.2535 -0.3480
23157SOL    HW274410   3.203   1.774   7.959 -0.8419 -0.6886 -0.6944
23158SOL     OW74411   8.691   4.729   6.242 -0.0137  0.0634  0.4154
23158SOL    HW174412   8.771   4.762   6.284 -0.5393  0.4808  1.1205
23158SOL    HW274413   8.678   4.642   6.279  0.1372 -0.0261  0.2608
23159SOL     OW74414   8.400   9.903   3.808  0.3424  0.0896  0.0166
23159SOL    HW174415   8.400   9.981   3.864  0.8365  1.0573 -1.2808
23159SOL    HW274416   8.309   9.896   3.777  0.4123  0.4671 -0.2802
23160SOL     OW74417   9.405   4.704   9.250 -0.3383  0.1897  0.0297
23160SOL    HW174418   9.366   4.719   9.165 -0.3719 -0.5432 -0.0901
23160SOL    HW274419   9.478   4.766   9.254 -0.7667  0.7212 -0.2314
23161SOL     OW74420   1.729   6.647   7.609 -0.0486 -0.2960  0.2638
23161SOL    HW174421   1.647   6.603   7.587 -1.3209  1.7333  0.6395
23161SOL    HW274422   1.704   6.738   7.625  2.0710  0.1078  1.7846
23162SOL     OW74423   1.916   4.643   7.598  0.3297  0.2643  0.0604
23162SOL    HW174424   1.936   4.734   7.620 -0.5628  0.5978 -0.4359
23162SOL    HW274425   1.835   4.624   7.645 -0.1932  0.1584 -0.8450
23163SOL     OW74426   3.441   0.022   5.662 -0.3280  1.2078  0.2422
23163SOL    HW174427   3.484   0.035   5.746  0.6473 -0.4225  0.0433
23163SOL    HW274428   3.483   0.085   5.603  0.6499  0.7582  0.4422
23164SOL     OW74429   0.506   0.936   4.621 -0.0364  0.5566 -0.0122
23164SOL    HW174430   0.536   1.014   4.668 -0.6811  1.7419 -1.4838
23164SOL    HW274431   0.550   0.863   4.665  2.1093  1.8978  0.2093
23165SOL     OW74432   4.058   8.765   7.551  0.2912  0.6593 -0.0336
23165SOL    HW174433   4.134   8.746   7.606  0.5225 -0.3791 -0.6883
23165SOL    HW274434   4.094   8.780   7.464 -0.2733 -0.2016 -0.4313
23166SOL     OW74435   9.999  11.343   6.514 -0.0399  0.4302  0.5430
23166SOL    HW174436  10.044  11.427   6.501  2.4383 -0.5439  2.0251
23166SOL    HW274437  10.046  11.281   6.459 -0.4697 -0.3927  1.0764
23167SOL     OW74438   6.960   0.138   2.971 -0.5027  0.1152 -0.0406
23167SOL    HW174439   7.040   0.188   2.987 -1.2589  1.5805 -0.6859
23167SOL    HW274440   6.966   0.064   3.031  2.1842 -0.8235 -1.2970
23168SOL     OW74441   9.206   1.363   2.190  0.5106  0.2279  1.2409
23168SOL    HW174442   9.248   1.411   2.261  0.0554  1.6428  0.6055
23168SOL    HW274443   9.154   1.429   2.144  0.7572 -0.6462 -0.3823
23169SOL     OW74444   8.845   5.057   9.028 -0.1763  0.2608  0.0004
23169SOL    HW174445   8.914   5.029   8.968 -1.1280  1.1837 -1.5943
23169SOL    HW274446   8.891   5.109   9.094  0.6241  1.2668 -1.2953
23170SOL     OW74447  10.454   9.549   3.439 -0.9302  0.4265 -0.0067
23170SOL    HW174448  10.366   9.513   3.429 -1.0924  0.4982  1.0253
23170SOL    HW274449  10.499   9.525   3.359 -1.3480 -1.1970  0.2191
23171SOL     OW74450  10.481   8.405   7.788 -0.2243 -0.3119  0.2534
23171SOL    HW174451  10.392   8.374   7.775 -0.3057  0.6559 -2.0124
23171SOL    HW274452  10.473   8.481   7.845 -0.9323  0.1077 -0.3869
23172SOL     OW74453   6.709   0.892   5.606  0.2680  0.0414  0.2464
23172SOL    HW174454   6.689   0.817   5.550 -0.2434  2.2300 -2.7683
23172SOL    HW274455   6.798   0.877   5.637  0.3788 -1.5239 -0.7659
23173SOL     OW74456   5.523  10.849   2.720  0.0162 -0.6032 -0.4045
23173SOL    HW174457   5.512  10.758   2.747 -0.3887 -0.3464  0.3465
23173SOL    HW274458   5.586  10.885   2.783 -0.2029 -0.2365 -0.3943
23174SOL     OW74459   6.680   4.509   1.603  0.6802 -0.3511  0.2670
23174SOL    HW174460   6.767   4.472   1.618  0.5475 -3.1859 -4.0598
23174SOL    HW274461   6.696   4.593   1.561  1.4681 -1.1614 -1.1405
23175SOL     OW74462   1.303   8.453  11.396 -0.0577  0.2317  0.5490
23175SOL    HW174463   1.398   8.466  11.398 -0.2461  1.7229  0.9515
23175SOL    HW274464   1.282   8.417  11.482 -0.1050  2.0614  1.3454
23176SOL     OW74465   4.009  10.656   0.164 -0.6755 -0.9304  0.2518
23176SOL    HW174466   3.969  10.715   0.229 -1.5390  1.4529 -2.2321
23176SOL    HW274467   4.099  10.645   0.193 -0.6182  1.2956  1.1085
23177SOL     OW74468   0.463   9.699   5.527 -0.1691 -0.6597  0.1613
23177SOL    HW174469   0.465   9.641   5.451 -0.8356  1.1975 -1.3600
23177SOL    HW274470   0.382   9.676   5.572 -0.7803 -0.4832 -0.8111
23178SOL     OW74471   0.721   1.766   9.108  0.2244 -0.3166  1.0428
23178SOL    HW174472   0.709   1.848   9.156  1.6839 -0.0179  0.9607
23178SOL    HW274473   0.656   1.707   9.145 -2.3867  1.4553 -0.3858
23179SOL     OW74474   3.084   0.651   7.277  0.5084  0.4115 -0.0984
23179SOL    HW174475   3.159   0.595   7.258  0.1204  0.6733 -2.7555
23179SOL    HW274476   3.052   0.620   7.362  1.2718 -2.3097 -0.7066
23180SOL     OW74477   8.946   5.561   0.266 -0.3765  0.2511 -0.2640
23180SOL    HW174478   8.933   5.536   0.357 -0.9988 -0.0103 -0.4145
23180SOL    HW274479   8.925   5.654   0.262  2.6931  1.0636  0.4515
23181SOL     OW74480  11.577   6.094  10.416 -0.3333  0.5918 -0.9414
23181SOL    HW174481  11.666   6.117  10.390  0.9223 -2.9228 -0.3161
23181SOL    HW274482  11.569   6.002  10.393 -2.8501  0.0795  1.5195
23182SOL     OW74483   5.431   8.321   0.601  0.1375 -0.6542 -0.4940
23182SOL    HW174484   5.438   8.409   0.638  0.6613 -0.8249 -0.1874
23182SOL    HW274485   5.360   8.328   0.537  0.2202  0.0071 -0.5192
23183SOL     OW74486  11.514   6.840   2.414 -0.0483 -0.2580  0.3763
23183SOL    HW174487  11.460   6.817   2.489 -0.5825  2.1051  0.8026
23183SOL    HW274488  11.455   6.836   2.339 -0.2223  0.0279  0.4965
23184SOL     OW74489  10.241   1.166   0.267  0.0874 -0.1258  0.0842
23184SOL    HW174490  10.319   1.120   0.237  0.8575  0.6430  0.8473
23184SOL    HW274491  10.199   1.196   0.187  0.0668 -1.3232 -0.3799
23185SOL     OW74492   8.183   0.400   0.520 -0.1686  0.3300  0.4149
23185SOL    HW174493   8.260   0.358   0.482 -0.9933 -0.1307 -0.8004
23185SOL    HW274494   8.185   0.373   0.612 -1.4640 -3.7903 -0.5337
23186SOL     OW74495   2.408  10.188   8.502 -0.0229  0.8377  0.0106
23186SOL    HW174496   2.498  10.192   8.536  0.8348  0.9324 -2.1252
23186SOL    HW274497   2.361  10.256   8.551  1.0503  0.8004  1.1568
23187SOL     OW74498   0.520   2.768   4.849 -0.0733 -0.1964  0.1842
23187SOL    HW174499   0.543   2.748   4.940 -2.6870 -0.5760  0.8452
23187SOL    HW274500   0.548   2.859   4.836 -0.9902  0.3537  1.8626
23188SOL     OW74501   5.476   0.526  10.006  0.1010 -0.3697 -0.0593
23188SOL    HW174502   5.445   0.612   9.976 -0.1765 -0.5407 -0.2669
23188SOL    HW274503   5.547   0.546  10.067  0.4642 -0.0077 -0.5939
23189SOL     OW74504   8.552   8.398   9.538  0.2826 -0.2937 -0.1628
23189SOL    HW174505   8.646   8.381   9.534  0.4506  0.6858 -0.6030
23189SOL    HW274506   8.543   8.465   9.606 -0.0478 -0.0642 -0.4319
23190SOL     OW74507  10.116   4.748   0.790 -0.6487 -0.2143  0.5212
23190SOL    HW174508  10.092   4.836   0.820 -0.8722 -0.2785  0.5315
23190SOL    HW274509  10.162   4.763   0.708 -0.7714 -0.0942  0.4738
23191SOL     OW74510   4.367   1.646   3.363 -0.7511  0.6582  0.2457
23191SOL    HW174511   4.301   1.645   3.432 -1.5208  1.1373 -0.4477
23191SOL    HW274512   4.324   1.693   3.291  0.2132  0.6268 -0.3631
23192SOL     OW74513   3.431   4.392   4.275  0.1312  0.2952  0.0166
23192SOL    HW174514   3.525   4.399   4.259 -0.0988  2.8769 -0.5538
23192SOL    HW274515   3.421   4.407   4.369  0.3161 -0.7678  0.2223
23193SOL     OW74516  10.028  10.674   3.815 -0.2116 -0.5477 -0.0548
23193SOL    HW174517  10.046  10.629   3.897 -0.7719 -1.4600 -0.4119
23193SOL    HW274518   9.937  10.653   3.796 -0.9932  1.9795  0.5028
23194SOL     OW74519  11.358   7.660   0.304  0.1198 -0.6809 -0.0996
23194SOL    HW174520  11.341   7.592   0.239  0.2326 -0.3206 -0.5112
23194SOL    HW274521  11.450   7.683   0.291 -0.2827  0.5813 -0.9732
23195SOL     OW74522   3.926   6.930   8.860 -0.4685  0.1493  0.2566
23195SOL    HW174523   3.929   6.866   8.931 -0.9194  0.1296  0.2629
23195SOL    HW274524   3.865   6.892   8.796  0.2182 -0.0069 -0.3149
23196SOL     OW74525   5.376   2.249   8.326  0.6608  0.6385  0.2690
23196SOL    HW174526   5.338   2.208   8.249  1.1506  0.2916  0.2043
23196SOL    HW274527   5.404   2.335   8.296  1.3792  0.2867 -0.1023
23197SOL     OW74528   6.654  11.209   7.367  0.5548  0.5585  0.6225
23197SOL    HW174529   6.702  11.261   7.432 -0.6845  0.3158  1.7751
23197SOL    HW274530   6.697  11.123   7.370  0.9720  0.7622  0.5863
23198SOL     OW74531   8.898   0.827   8.191 -0.1203 -0.0894  0.2166
23198SOL    HW174532   8.813   0.783   8.197 -1.6184  2.2605 -1.7443
23198SOL    HW274533   8.929   0.809   8.103  0.1679  1.0958  0.0533
23199SOL     OW74534  10.405   8.903   6.845  0.6840 -0.0163  0.5374
23199SOL    HW174535  10.415   8.947   6.929 -1.9283  1.5249  0.1480
23199SOL    HW274536  10.374   8.815   6.867 -0.7475  0.6281  1.2440
23200SOL     OW74537   5.976   1.805   5.958 -0.1409  0.4457 -0.3023
23200SOL    HW174538   6.003   1.877   6.016 -0.4898  0.8275 -0.6045
23200SOL    HW274539   5.976   1.728   6.014  2.2804  0.2750 -0.4352
23201SOL     OW74540   9.737   6.281   4.126  0.4414 -0.0701 -0.3573
23201SOL    HW174541   9.652   6.302   4.087 -0.3212 -2.3961 -0.1207
23201SOL    HW274542   9.801   6.330   4.074 -0.8423 -0.3186 -2.2417
23202SOL     OW74543   1.035   4.561   2.377 -0.0359  0.0555 -0.0343
23202SOL    HW174544   1.017   4.509   2.298  0.1668  1.0433 -0.7599
23202SOL    HW274545   0.963   4.541   2.436  0.0956 -1.1227 -0.2428
23203SOL     OW74546  11.637   0.859  11.085 -0.5570  0.0212 -0.0013
23203SOL    HW174547  11.711   0.798  11.078 -1.0063 -0.6782  1.1629
23203SOL    HW274548  11.559   0.805  11.074 -0.9320  0.7457 -1.1550
23204SOL     OW74549   3.449   3.322   9.751  0.0290  0.1712 -0.6550
23204SOL    HW174550   3.509   3.395   9.735 -0.2353  0.1262 -1.9741
23204SOL    HW274551   3.488   3.248   9.705  0.6657 -0.7402  1.2686
23205SOL     OW74552   1.956   3.557   8.396  0.4954  0.4742  0.5952
23205SOL    HW174553   2.007   3.615   8.341  3.1869 -3.4719 -1.6039
23205SOL    HW274554   2.013   3.537   8.470  0.4672 -0.7914  0.2981
23206SOL     OW74555   7.154   3.084   6.252  0.3743  0.4478  0.0014
23206SOL    HW174556   7.225   3.145   6.271  0.2738  0.7942 -0.6894
23206SOL    HW274557   7.155   3.022   6.325  0.5826  1.1756  0.6309
23207SOL     OW74558   5.171   0.970   8.302 -0.5054  0.6201  0.1964
23207SOL    HW174559   5.155   1.064   8.313 -0.4786  0.5724  0.6664
23207SOL    HW274560   5.096   0.929   8.345 -0.2922  0.4200  0.3716
23208SOL     OW74561   6.274   6.015  11.665 -0.1518 -0.4069  0.2555
23208SOL    HW174562   6.349   5.956  11.675  0.5961  0.9001  4.1529
23208SOL    HW274563   6.311   6.095  11.628  0.1119 -0.2650  0.8163
23209SOL     OW74564  10.594  10.156   4.610 -0.4807 -0.0629  0.3420
23209SOL    HW174565  10.511  10.199   4.591 -1.5264 -2.1222 -0.0785
23209SOL    HW274566  10.577  10.063   4.592  2.3614 -0.3814 -1.3203
23210SOL     OW74567   1.031   8.207   1.069  0.0776 -0.2808  0.0137
23210SOL    HW174568   1.040   8.194   1.164 -0.7369  0.1824  0.1602
23210SOL    HW274569   1.067   8.294   1.053 -2.6925  1.0673  0.4252
23211SOL     OW74570   9.040  10.882   7.881  0.7456  0.4669  0.5476
23211SOL    HW174571   8.993  10.916   7.805  0.8352  0.3689  0.4483
23211SOL    HW274572   9.132  10.879   7.854  0.6058 -0.9280  0.1509
23212SOL     OW74573   7.921   7.708  10.654  0.3560 -0.0062  0.3889
23212SOL    HW174574   7.851   7.649  10.681  0.1607  0.3921  0.7620
23212SOL    HW274575   7.973   7.721  10.733  0.9199 -0.3861  0.0862
23213SOL     OW74576   4.112   3.662  11.328 -0.7767 -0.8501 -0.2611
23213SOL    HW174577   4.189   3.694  11.374 -0.5123 -1.5783 -0.1875
23213SOL    HW274578   4.041   3.720  11.357 -0.4731 -0.8554  0.5187
23214SOL     OW74579   2.669   1.996   4.222 -0.3799  0.0924  0.2922
23214SOL    HW174580   2.579   1.976   4.248 -0.2906 -0.0391  0.5040
23214SOL    HW274581   2.690   2.077   4.266  0.0497 -0.5472  1.2944
23215SOL     OW74582  11.461   9.486   2.695  0.0658  0.3093 -0.7635
23215SOL    HW174583  11.384   9.486   2.753  0.0271 -0.7188 -0.7996
23215SOL    HW274584  11.512   9.562   2.724 -0.8202  0.8487 -0.5604
23216SOL     OW74585   2.524   2.348   8.633 -0.1470  0.1304 -0.5925
23216SOL    HW174586   2.498   2.395   8.712  1.2744  2.0789 -1.2331
23216SOL    HW274587   2.479   2.263   8.641  1.2512 -0.4730  3.1342
23217SOL     OW74588   4.757   3.689   2.889  0.3339  0.1870  0.0418
23217SOL    HW174589   4.825   3.671   2.953  2.7363  0.5406 -2.2352
23217SOL    HW274590   4.676   3.693   2.940  2.1537  1.1752  3.1102
23218SOL     OW74591   8.759   9.443   8.090 -0.1252 -0.0026 -0.0447
23218SOL    HW174592   8.686   9.461   8.149  0.9622  0.1826  1.2834
23218SOL    HW274593   8.771   9.348   8.094 -1.3109 -0.2662 -1.5584
23219SOL     OW74594   4.988   0.854   0.232  0.3279  1.0448  0.4729
23219SOL    HW174595   5.039   0.774   0.235 -0.0395  0.6268 -1.8609
23219SOL    HW274596   4.960   0.869   0.322 -1.3579 -2.6293  0.7336
23220SOL     OW74597   0.226   9.462  11.633 -0.1955  0.3297  0.3497
23220SOL    HW174598   0.159   9.525  11.604  0.4413  1.2407  0.8086
23220SOL    HW274599   0.192   9.427  11.715  0.3969  1.6653  1.1984
23221SOL     OW74600   3.811   8.373   0.442 -0.4181  0.3227  0.3340
23221SOL    HW174601   3.738   8.331   0.396 -1.2305  1.7340  0.2992
23221SOL    HW274602   3.879   8.383   0.375 -0.5239 -0.1878  0.1473
23222SOL     OW74603   4.029   0.043   8.964 -0.1400 -0.3329 -0.3475
23222SOL    HW174604   3.945   0.076   8.993  0.0021 -0.3432  0.0838
23222SOL    HW274605   4.029   0.055   8.869 -1.0996 -1.4167 -0.5004
23223SOL     OW74606   3.390  11.405   3.375  0.1616 -0.0104 -0.3016
23223SOL    HW174607   3.368  11.439   3.462 -1.9519  0.8026 -1.0871
23223SOL    HW274608   3.326  11.334   3.361  0.4202 -0.0678 -1.2273
23224SOL     OW74609   7.449   4.191   2.783 -0.3666 -0.3145  0.1083
23224SOL    HW174610   7.423   4.280   2.760  0.7984  0.0288  0.0182
23224SOL    HW274611   7.373   4.137   2.764 -0.8815  0.5809 -0.4179
23225SOL     OW74612  11.285   9.533   0.093  0.3452 -0.6308  0.0410
23225SOL    HW174613  11.357   9.469   0.099  1.0699  0.0991 -0.6633
23225SOL    HW274614  11.327   9.618   0.105 -0.5723 -0.2555  0.6870
23226SOL     OW74615   6.573   7.063  10.996 -0.3540 -0.0196  0.6491
23226SOL    HW174616   6.510   6.997  10.967  0.9687  0.3904 -4.0622
23226SOL    HW274617   6.651   7.013  11.019 -0.8926 -0.2807  1.9776
23227SOL     OW74618   7.504  11.449   6.475  0.2235  0.4716 -0.5320
23227SOL    HW174619   7.586  11.425   6.432  0.4665 -1.5123  0.8786
23227SOL    HW274620   7.508  11.544   6.483  1.3180  0.6476 -2.5238
23228SOL     OW74621   4.057  10.021   9.653 -0.0487 -0.3108  0.4351
23228SOL    HW174622   4.056  10.116   9.644  0.7238 -0.4276 -1.1912
23228SOL    HW274623   4.081  10.007   9.745 -1.2803  1.0350  1.0078
23229SOL     OW74624  10.529  10.445   4.659  0.2705  0.3967  0.4316
23229SOL    HW174625  10.583  10.390   4.602  1.2686  0.7373  1.0182
23229SOL    HW274626  10.481  10.502   4.599  0.3887 -0.0755 -0.1163
23230SOL     OW74627   4.204  10.303   2.950  0.6234  0.6889 -0.5961
23230SOL    HW174628   4.241  10.251   3.022 -0.8884  2.3055  1.4763
23230SOL    HW274629   4.231  10.256   2.871  1.3196 -1.9077  1.0313
23231SOL     OW74630   2.920  11.155   1.900 -0.1638 -0.1856  0.3885
23231SOL    HW174631   2.917  11.190   1.811 -1.4925 -2.0530 -0.3568
23231SOL    HW274632   2.836  11.111   1.912 -0.0033 -0.0078  2.5754
23232SOL     OW74633   2.933   9.294   0.780  0.6058  0.0100  0.5389
23232SOL    HW174634   3.002   9.282   0.845  1.3108 -0.8938 -0.3586
23232SOL    HW274635   2.933   9.213   0.729 -1.1133 -0.0139  0.5011
23233SOL     OW74636  11.233   4.216   7.068  0.0554  0.1734  0.3521
23233SOL    HW174637  11.262   4.152   7.003 -0.2065 -0.4221  0.8151
23233SOL    HW274638  11.219   4.165   7.148 -0.9501  0.6694  0.5126
23234SOL     OW74639   1.440   0.491   4.934  0.2927  0.3962 -0.0299
23234SOL    HW174640   1.474   0.458   4.851 -1.5554  1.2903 -1.2121
23234SOL    HW274641   1.375   0.426   4.961 -0.4218  1.0036 -0.2563
23235SOL     OW74642   0.373   7.820   5.220 -0.2616  0.1960  0.0904
23235SOL    HW174643   0.357   7.829   5.126  1.7509  1.2092 -0.2060
23235SOL    HW274644   0.293   7.780   5.254 -1.7599  1.4433 -1.7516
23236SOL     OW74645  10.256   2.846   9.961 -0.2543 -0.2807  0.0006
23236SOL    HW174646  10.272   2.753   9.972 -1.8927 -0.5735  0.1231
23236SOL    HW274647  10.184   2.866  10.021 -1.3833  0.5777 -1.5677
23237SOL     OW74648  10.025   4.904   4.300  0.3750 -0.2882 -0.3356
23237SOL    HW174649  10.097   4.853   4.262  1.1848  0.1807  0.5317
23237SOL    HW274650   9.984   4.947   4.225  2.4353  1.2526 -0.6735
23238SOL     OW74651   1.966   7.408   3.540 -0.0308 -0.2162  0.1750
23238SOL    HW174652   1.884   7.372   3.506  0.4884 -1.1587 -0.1100
23238SOL    HW274653   1.989   7.476   3.477 -0.7031  0.2203  0.3834
23239SOL     OW74654   9.693   6.664   1.383 -1.3523 -0.3983  0.0299
23239SOL    HW174655   9.712   6.747   1.427  0.9876 -0.9636  0.2229
23239SOL    HW274656   9.694   6.685   1.290 -1.7125 -0.0583  0.0987
23240SOL     OW74657   5.060  10.664   2.833 -0.5124 -0.5825 -0.0827
23240SOL    HW174658   5.104  10.671   2.748  1.0524  1.6377  0.8238
23240SOL    HW274659   5.130  10.676   2.897 -1.8523 -0.9826  1.5165
23241SOL     OW74660   0.712   6.318   4.676 -0.0107 -0.2144  0.7998
23241SOL    HW174661   0.775   6.278   4.736  0.6697 -1.9315 -0.9166
23241SOL    HW274662   0.642   6.351   4.732  1.4234 -0.1079  2.6221
23242SOL     OW74663  10.286   6.891   4.638  0.3128 -0.0371 -0.1133
23242SOL    HW174664  10.275   6.796   4.635 -0.6515  0.0874 -0.9878
23242SOL    HW274665  10.228   6.925   4.569  2.5580  1.0205 -1.6177
23243SOL     OW74666   6.754   3.747   6.302 -0.1318 -0.2124 -0.7153
23243SOL    HW174667   6.827   3.741   6.240  1.1670  1.8201  0.5181
23243SOL    HW274668   6.781   3.691   6.376 -1.1914 -1.7686 -1.4508
23244SOL     OW74669   2.495   5.075  11.115 -0.5350  0.0269 -0.0681
23244SOL    HW174670   2.421   5.046  11.061 -1.3021  0.4136  0.7538
23244SOL    HW274671   2.489   5.170  11.116  2.0907  0.3640 -2.9065
23245SOL     OW74672   5.189   8.414   4.067 -0.0384 -0.5462 -0.3208
23245SOL    HW174673   5.190   8.403   3.972 -1.5366  0.6160 -0.5200
23245SOL    HW274674   5.130   8.488   4.082  2.6389  1.4392  1.3406
23246SOL     OW74675   3.404   4.189   5.540  0.5703  0.2971 -0.9450
23246SOL    HW174676   3.386   4.195   5.446  0.9421  0.1090 -1.0328
23246SOL    HW274677   3.320   4.204   5.582  0.3213 -0.0243 -1.3240
23247SOL     OW74678  10.435   5.258   1.449 -0.3564 -0.1690 -0.2154
23247SOL    HW174679  10.508   5.303   1.491  0.6841  0.4097 -2.4781
23247SOL    HW274680  10.358   5.310   1.472  0.2479  0.4148  0.5232
23248SOL     OW74681   4.886   4.493   5.573  0.5325  0.4436 -0.0838
23248SOL    HW174682   4.818   4.427   5.560 -0.2520  1.2835 -0.3345
23248SOL    HW274683   4.879   4.550   5.496  1.5706  0.4978 -0.1477
23249SOL     OW74684  10.595   9.858  11.544 -0.2129  0.0142  0.5896
23249SOL    HW174685  10.665   9.908  11.502  0.0082 -0.4099  0.4472
23249SOL    HW274686  10.594   9.775  11.497  1.1033 -1.1262  2.4368
23250SOL     OW74687   0.568   2.235   0.044 -0.2186  0.5352 -0.8083
23250SOL    HW174688   0.488   2.205   0.087  0.6916 -0.5669  0.1673
23250SOL    HW274689   0.546   2.323   0.013 -0.9176  1.4425  1.9719
23251SOL     OW74690   1.498   0.709   4.337  0.4427 -0.1606  0.0299
23251SOL    HW174691   1.499   0.656   4.257 -0.8335 -0.6363  0.3039
23251SOL    HW274692   1.454   0.790   4.312 -1.6515 -1.0382  0.6317
23252SOL     OW74693   3.353   1.534   2.645  0.4060  0.2821  0.7839
23252SOL    HW174694   3.340   1.442   2.670  0.1627 -0.0256 -0.4314
23252SOL    HW274695   3.446   1.549   2.658  0.2818  0.1750  1.9576
23253SOL     OW74696   9.481   8.724   9.170  0.6208 -0.0589 -0.6330
23253SOL    HW174697   9.421   8.677   9.229 -0.2466  1.8879  0.1291
23253SOL    HW274698   9.567   8.712   9.209  0.2369  0.0784  0.2734
23254SOL     OW74699   4.935   7.644   0.202  0.0846  0.0702 -0.5625
23254SOL    HW174700   5.018   7.610   0.235 -0.9514 -1.9088  0.1685
23254SOL    HW274701   4.956   7.676   0.114  1.3937 -1.5511 -0.8954
23255SOL     OW74702   8.711   4.923   3.811  0.2333  0.4234 -0.0652
23255SOL    HW174703   8.686   4.996   3.868 -2.6794  0.3821 -1.0960
23255SOL    HW274704   8.677   4.947   3.725  1.7010 -0.9321 -1.0883
23256SOL     OW74705  10.923   0.059  11.263 -0.3333 -0.1316 -0.0861
23256SOL    HW174706  10.940   0.033  11.354  0.4807  0.4358 -0.0607
23256SOL    HW274707  10.842   0.110  11.267  0.4703  1.1532  0.5796
23257SOL     OW74708   9.376   5.218   5.592  0.2930 -0.8663 -0.3616
23257SOL    HW174709   9.393   5.167   5.513 -0.4556 -1.3754 -0.1925
23257SOL    HW274710   9.281   5.227   5.596  0.3876  0.3693 -0.2757
23258SOL     OW74711   7.583   1.751   1.348  0.4330  0.2304 -0.6790
23258SOL    HW174712   7.503   1.704   1.372  0.9112 -0.4571 -0.3851
23258SOL    HW274713   7.574   1.837   1.389  0.5690 -0.4037  0.7663
23259SOL     OW74714   7.313   8.223  11.236  0.1425  0.4105 -1.1003
23259SOL    HW174715   7.368   8.204  11.160  1.0931 -0.3163 -0.2412
23259SOL    HW274716   7.320   8.145  11.291 -0.4016  0.9998 -0.1767
23260SOL     OW74717   4.584   7.855   4.189 -0.0887  0.2017  0.3829
23260SOL    HW174718   4.500   7.810   4.180  0.1361 -0.0977 -0.2298
23260SOL    HW274719   4.627   7.844   4.104 -1.1830  3.9034 -0.8744
23261SOL     OW74720   1.269   8.044  10.907 -0.4400  0.3478  0.6343
23261SOL    HW174721   1.310   8.064  10.823 -1.8517  0.9508  0.0543
23261SOL    HW274722   1.298   8.114  10.966 -1.8784  1.7071 -0.2114
23262SOL     OW74723   0.238   8.355  10.265 -0.0448 -0.0727  0.0668
23262SOL    HW174724   0.237   8.451  10.269 -2.3445  0.0682 -2.0148
23262SOL    HW274725   0.306   8.335  10.200 -0.5228  0.2374 -0.5403
23263SOL     OW74726   8.280   2.009   9.371 -0.3360 -0.0119 -0.0861
23263SOL    HW174727   8.204   2.003   9.314 -0.0886  1.1340 -0.5752
23263SOL    HW274728   8.245   2.037   9.455 -0.7172 -1.8155  0.4010
23264SOL     OW74729   6.685   4.042  10.194 -0.3119 -0.3705 -0.2752
23264SOL    HW174730   6.707   3.984  10.121  1.0871 -0.6950  0.3689
23264SOL    HW274731   6.769   4.074  10.226 -0.8609 -0.5206  1.4322
23265SOL     OW74732   0.429   0.027   7.531 -0.1510 -0.5698  0.6612
23265SOL    HW174733   0.426   0.107   7.583  2.3011 -0.8919  1.4472
23265SOL    HW274734   0.452   0.056   7.443 -1.0144 -0.2781  0.5309
23266SOL     OW74735   4.602   2.054   6.189 -0.7027  0.0414 -0.1995
23266SOL    HW174736   4.543   2.070   6.115 -0.3535  2.1753 -0.0845
23266SOL    HW274737   4.548   2.071   6.266 -0.1355  1.4902 -0.0855
23267SOL     OW74738   9.365   8.000  10.563 -0.0713  0.0948 -0.1448
23267SOL    HW174739   9.287   7.955  10.597 -0.7696  1.0560 -0.4056
23267SOL    HW274740   9.402   7.940  10.500 -1.3280  0.1059 -0.9348
23268SOL     OW74741   4.344   6.484   7.713  0.2112 -0.9565  0.3811
23268SOL    HW174742   4.302   6.445   7.637  1.1273 -1.9115  0.3343
23268SOL    HW274743   4.425   6.433   7.724  0.3949 -0.4314  1.6145
23269SOL     OW74744   0.777   8.955   6.845  0.5384  0.6608 -0.1034
23269SOL    HW174745   0.756   8.901   6.769 -0.8353  0.2541  0.5290
23269SOL    HW274746   0.717   9.030   6.839 -0.3493  0.0819  1.1280
23270SOL     OW74747   8.477   2.652  10.928  0.5814 -0.0651  0.1339
23270SOL    HW174748   8.408   2.626  10.989  0.5930  1.5143  0.8709
23270SOL    HW274749   8.431   2.684  10.851  0.4767  0.5943  0.4596
23271SOL     OW74750   4.759   6.884   9.959  0.1002 -0.0094  0.2708
23271SOL    HW174751   4.672   6.914   9.986  0.5155  2.3820 -0.8280
23271SOL    HW274752   4.819   6.931  10.016  0.7261 -0.9464  0.4021
23272SOL     OW74753   3.184   8.482   9.981  0.2871  0.4739 -0.1572
23272SOL    HW174754   3.203   8.388   9.982  2.0934  0.7925 -0.6616
23272SOL    HW274755   3.191   8.509  10.073  1.2364  0.3516 -0.1807
23273SOL     OW74756  11.130  11.012  10.113  0.4588  0.1609  0.5280
23273SOL    HW174757  11.140  10.990  10.020  0.6659 -1.5161  0.9170
23273SOL    HW274758  11.188  11.087  10.126 -0.0376  0.8198 -0.8150
23274SOL     OW74759   0.831   2.638   3.361 -0.2872  0.3839 -0.6541
23274SOL    HW174760   0.897   2.627   3.429  0.2053  0.5105 -1.0948
23274SOL    HW274761   0.759   2.580   3.385  0.2655 -0.2418 -0.5057
23275SOL     OW74762  11.016   7.014  10.879 -0.4628 -0.0481  0.0635
23275SOL    HW174763  10.948   6.948  10.890 -1.1218  0.5907 -0.0344
23275SOL    HW274764  10.967   7.097  10.872  0.3728  0.6643  1.8742
23276SOL     OW74765   9.106   9.596   3.228 -0.5696 -0.1758 -0.4860
23276SOL    HW174766   9.123   9.551   3.146  0.9002 -1.9670  0.7201
23276SOL    HW274767   9.019   9.636   3.216 -0.2098  0.0033 -3.0112
23277SOL     OW74768   8.164   6.708   9.668 -0.5758 -0.4070 -0.5746
23277SOL    HW174769   8.213   6.680   9.746 -1.6480 -1.3208 -0.1951
23277SOL    HW274770   8.204   6.661   9.596  0.0302 -0.0309 -0.4865
23278SOL     OW74771   5.797   0.962   9.795  0.2509 -0.3729  0.1937
23278SOL    HW174772   5.855   1.034   9.818 -0.4735  0.2585  0.0796
23278SOL    HW274773   5.741   0.950   9.872  1.7964 -2.3039  1.1031
23279SOL     OW74774   7.820   9.114   7.853  0.1955 -0.2904 -0.0473
23279SOL    HW174775   7.827   9.054   7.780  1.4527 -1.0268  0.6368
23279SOL    HW274776   7.830   9.059   7.931  2.2176  0.8306  0.5767
23280SOL     OW74777   8.264  10.133   7.844  0.1411 -0.2466  0.3103
23280SOL    HW174778   8.200  10.065   7.824 -0.8916  0.4014  1.2792
23280SOL    HW274779   8.316  10.097   7.915 -0.7874  0.1641  1.2307
23281SOL     OW74780   9.392   2.546   6.340 -0.3178 -0.0485  0.1995
23281SOL    HW174781   9.346   2.462   6.348 -0.9772  0.3317  0.4520
23281SOL    HW274782   9.326   2.606   6.305  0.7604 -0.1680 -2.3226
23282SOL     OW74783   5.692   2.343   2.149  0.0215 -0.3362  0.0723
23282SOL    HW174784   5.700   2.292   2.069  1.7610  0.3259 -0.2081
23282SOL    HW274785   5.702   2.434   2.121 -0.9843  0.0355  0.8428
23283SOL     OW74786   7.443  11.101   4.300  0.6699 -0.0519  0.2739
23283SOL    HW174787   7.492  11.019   4.295 -0.3807 -0.6495 -0.9897
23283SOL    HW274788   7.455  11.131   4.390  1.4648 -1.3518  0.6262
23284SOL     OW74789   7.335   4.901   6.411 -0.0221  0.2923 -0.1112
23284SOL    HW174790   7.265   4.967   6.411  0.3393  0.6972 -1.3209
23284SOL    HW274791   7.293   4.822   6.444 -0.8318  0.7498 -0.0119
23285SOL     OW74792   3.149   1.547   1.631  0.1338  0.3654  0.1243
23285SOL    HW174793   3.083   1.590   1.685  0.3883  0.1400  0.6119
23285SOL    HW274794   3.112   1.461   1.611  0.9593 -0.4053  1.7509
23286SOL     OW74795   2.538   6.359   8.280  0.3267  0.4374  0.0492
23286SOL    HW174796   2.498   6.323   8.359 -1.2374 -0.3440 -1.0441
23286SOL    HW274797   2.477   6.427   8.252  1.1053  1.0275 -0.2434
23287SOL     OW74798   4.232   2.877   9.410  0.5647  0.0444  0.3401
23287SOL    HW174799   4.150   2.927   9.411  0.6113  0.2100 -1.2205
23287SOL    HW274800   4.300   2.943   9.419  0.5363 -0.0968  1.6689
23288SOL     OW74801   5.541  10.575   3.771 -0.1449  0.1591 -0.8149
23288SOL    HW174802   5.505  10.508   3.830  0.5788 -0.2924 -0.8718
23288SOL    HW274803   5.482  10.650   3.781 -0.4685 -0.1800 -0.0916
23289SOL     OW74804   4.291   3.054   6.791  0.1059  0.5795  0.0124
23289SOL    HW174805   4.254   3.122   6.734 -1.4840  1.5088  2.0301
23289SOL    HW274806   4.385   3.067   6.786  0.0747  0.3413 -2.6833
23290SOL     OW74807   6.103   0.232   2.895 -0.4207  0.4435  0.0955
23290SOL    HW174808   6.131   0.141   2.909  0.7204  0.8142  0.2487
23290SOL    HW274809   6.183   0.281   2.881 -1.0706  1.3433 -0.6003
23291SOL     OW74810   1.135   7.930   3.547  0.3123 -0.3668 -0.0732
23291SOL    HW174811   1.219   7.972   3.563 -0.0972  1.0163 -1.3215
23291SOL    HW274812   1.155   7.853   3.495  0.7571  0.3009 -0.9013
23292SOL     OW74813   5.754   8.318   0.754  0.0109 -0.1745  0.8253
23292SOL    HW174814   5.777   8.393   0.699  0.6770 -0.4848  0.6732
23292SOL    HW274815   5.804   8.245   0.718 -1.1373 -0.8573  0.5451
23293SOL     OW74816   4.260  11.061   5.915 -0.1050 -0.8139 -0.5029
23293SOL    HW174817   4.290  11.049   6.005 -0.4043 -1.1392 -0.4482
23293SOL    HW274818   4.311  10.998   5.864 -0.3239 -1.0043 -0.4853
23294SOL     OW74819   4.076   8.666   0.165  0.1129 -0.6759 -0.7540
23294SOL    HW174820   4.049   8.673   0.073 -1.7262  0.8282 -0.1787
23294SOL    HW274821   4.156   8.718   0.171  0.1459 -0.6323 -1.4774
23295SOL     OW74822   2.433   3.257   7.966  0.6585  0.5764  0.4307
23295SOL    HW174823   2.437   3.182   8.025 -2.3009  0.2171  0.3326
23295SOL    HW274824   2.371   3.317   8.007  2.1994  2.5500  0.0097
23296SOL     OW74825   7.568  10.850   4.270 -0.0953  0.4991 -0.6308
23296SOL    HW174826   7.641  10.870   4.212  0.6059  0.0710  0.1018
23296SOL    HW274827   7.503  10.809   4.212  0.3678  0.5716 -1.2127
23297SOL     OW74828   6.577   4.822   5.114  0.1659  0.3621 -0.1797
23297SOL    HW174829   6.522   4.746   5.136  1.4728 -0.8557 -0.9105
23297SOL    HW274830   6.609   4.854   5.198 -0.2703 -0.0120  0.1323
23298SOL     OW74831   9.663   4.880  10.402 -0.0106 -0.1431 -0.5378
23298SOL    HW174832   9.690   4.868  10.494  0.8080 -0.1047 -0.7642
23298SOL    HW274833   9.660   4.974  10.390 -0.5204 -0.1435 -0.4430
23299SOL     OW74834   8.384   9.564   0.413 -0.7513  0.2417 -0.0433
23299SOL    HW174835   8.455   9.528   0.360  1.0632  1.3008  1.5326
23299SOL    HW274836   8.345   9.631   0.357  1.9393  2.2382  0.2819
23300SOL     OW74837   4.114  11.029   7.829  0.2710  0.3898  0.0812
23300SOL    HW174838   4.185  11.082   7.865  1.5242 -0.2984 -1.2752
23300SOL    HW274839   4.141  10.939   7.846 -0.3661  0.1193 -0.3168
23301SOL     OW74840   0.207   2.889  10.296 -0.0321 -0.1527  0.4933
23301SOL    HW174841   0.301   2.872  10.292 -0.1565 -1.3489  1.8787
23301SOL    HW274842   0.183   2.909  10.206  1.3254 -1.1046 -0.1236
23302SOL     OW74843  10.577   6.138   4.982  0.0898 -0.9790 -0.2680
23302SOL    HW174844  10.589   6.155   4.889  2.1689 -0.7927 -0.0147
23302SOL    HW274845  10.507   6.073   4.986  0.1009 -1.1341 -1.9560
23303SOL     OW74846   6.371   2.596   8.822 -0.6909 -0.1384 -0.2918
23303SOL    HW174847   6.339   2.511   8.791 -0.0326 -0.8915  1.0109
23303SOL    HW274848   6.296   2.655   8.810 -1.6260 -1.2148  0.0731
23304SOL     OW74849   1.953   9.740  10.709  0.3266 -0.0461 -0.0243
23304SOL    HW174850   1.936   9.834  10.697  0.3755 -0.0078  0.2087
23304SOL    HW274851   2.001   9.734  10.791  1.4163 -0.1584 -0.6530
23305SOL     OW74852   9.737  10.977   0.533  0.6164  0.2546  0.1779
23305SOL    HW174853   9.724  11.069   0.512 -0.5664  0.0704  0.0788
23305SOL    HW274854   9.755  10.976   0.627 -1.8566  0.3980  0.7215
23306SOL     OW74855  11.656   2.626   0.707 -0.1866  0.0693 -0.1648
23306SOL    HW174856  11.672   2.559   0.641  0.4012 -0.4888  0.5237
23306SOL    HW274857  11.561   2.631   0.714 -0.2567  0.2962 -1.2041
23307SOL     OW74858   6.032   9.218  10.084  0.0595 -0.1601 -0.0998
23307SOL    HW174859   6.065   9.178  10.164  1.0762  0.0053 -0.4225
23307SOL    HW274860   6.101   9.278  10.057  0.4144 -1.3031 -1.9145
23308SOL     OW74861   3.727   9.244   0.910 -0.4474 -0.9050  0.3978
23308SOL    HW174862   3.792   9.293   0.960 -0.9040  0.8507 -0.6300
23308SOL    HW274863   3.655   9.228   0.971  0.1668 -1.2498  1.0385
23309SOL     OW74864   0.739   2.345   3.151  0.4062 -0.0911 -0.3630
23309SOL    HW174865   0.745   2.274   3.215  1.0707  0.4257  0.1628
23309SOL    HW274866   0.829   2.359   3.121  0.3996  0.9786  0.0507
23310SOL     OW74867   1.848   4.945   7.319 -0.6410 -0.4954 -0.4338
23310SOL    HW174868   1.866   4.851   7.309 -0.8554 -0.5484 -0.3356
23310SOL    HW274869   1.762   4.948   7.361 -0.2399 -0.2660  0.3903
23311SOL     OW74870  11.022   7.692   5.173  1.6277  0.0807  0.2230
23311SOL    HW174871  11.086   7.740   5.225  0.8931  0.2629  0.9729
23311SOL    HW274872  10.967   7.648   5.237 -0.0261  1.2379 -0.3297
23312SOL     OW74873   6.206   1.081   6.227 -0.2895 -0.0116 -0.1339
23312SOL    HW174874   6.149   1.023   6.277 -0.9827  1.0722  0.3565
23312SOL    HW274875   6.231   1.030   6.150  0.1959 -1.4322  0.9329
23313SOL     OW74876   3.701  11.158   9.928  0.1767 -0.0341  0.3497
23313SOL    HW174877   3.715  11.148   9.834  1.8572 -2.7950  0.7714
23313SOL    HW274878   3.608  11.142   9.940 -0.1318  0.7558 -0.8829
23314SOL     OW74879   3.451   7.865   9.646  0.4084 -0.5705 -0.3230
23314SOL    HW174880   3.440   7.832   9.735  0.1014 -0.4646 -0.3206
23314SOL    HW274881   3.517   7.808   9.607  0.8461 -0.3576  0.1081
23315SOL     OW74882   5.455   2.923   2.422 -0.0554 -0.2943 -0.4605
23315SOL    HW174883   5.383   2.965   2.376 -1.1028 -1.9158 -0.3796
23315SOL    HW274884   5.414   2.876   2.494  1.1914 -0.5448  0.1185
23316SOL     OW74885   6.430   9.924  10.901  0.0013 -0.3812 -1.1020
23316SOL    HW174886   6.335   9.921  10.905  0.0640 -1.3579  0.4861
23316SOL    HW274887   6.452  10.017  10.913 -0.7359 -0.2651 -0.5859
23317SOL     OW74888   0.897   6.066   9.877 -0.7352  0.3971  0.5192
23317SOL    HW174889   0.804   6.066   9.899 -0.2825  0.2996  2.5986
23317SOL    HW274890   0.919   6.159   9.866 -0.8888  0.4779  0.8925
23318SOL     OW74891   4.141   6.060   8.009  0.0136 -0.7146 -0.1848
23318SOL    HW174892   4.235   6.049   7.999  0.1111  1.4593 -2.6273
23318SOL    HW274893   4.129   6.152   8.034 -1.4771 -1.0875  0.6668
23319SOL     OW74894   0.676   8.110   3.928  0.2665 -0.1023  0.4760
23319SOL    HW174895   0.668   8.017   3.950 -1.0121 -0.5464 -1.5946
23319SOL    HW274896   0.645   8.117   3.838 -0.9554  2.5461  0.9857
23320SOL     OW74897  11.416   0.580   1.851 -0.8724 -0.2032  0.0444
23320SOL    HW174898  11.401   0.525   1.927  0.0211 -1.0716 -0.3791
23320SOL    HW274899  11.484   0.534   1.802 -0.4601  1.0369 -0.5770
23321SOL     OW74900   9.209   0.644   2.692 -0.6035 -0.5711 -0.1822
23321SOL    HW174901   9.263   0.574   2.727 -0.9256 -1.8712 -2.1297
23321SOL    HW274902   9.170   0.685   2.769  0.7917 -1.5164  1.0841
23322SOL     OW74903   8.402   7.282   7.602 -0.8858  0.0982 -0.1900
23322SOL    HW174904   8.397   7.337   7.680 -0.3322  0.6052 -0.4974
23322SOL    HW274905   8.314   7.246   7.592 -1.0550  0.3189  0.4611
23323SOL     OW74906   7.445   9.803   1.663 -0.3337 -0.0373  0.7558
23323SOL    HW174907   7.406   9.870   1.606 -0.9006 -1.2262 -0.3138
23323SOL    HW274908   7.540   9.818   1.656 -0.4739  1.8611  2.1036
23324SOL     OW74909   1.386   3.016  10.556 -0.4236  0.5348  0.0705
23324SOL    HW174910   1.342   3.097  10.583 -0.4446 -0.2062  2.5219
23324SOL    HW274911   1.408   2.972  10.638  1.0731 -1.1804 -1.1602
23325SOL     OW74912   6.605   3.986  10.942 -0.3323  0.2497  0.6169
23325SOL    HW174913   6.591   4.070  10.899  3.4429  1.7226  1.8142
23325SOL    HW274914   6.617   4.008  11.035 -0.8959 -1.8671  1.2490
23326SOL     OW74915  10.353   5.227   8.733 -0.3055  0.1062 -0.1320
23326SOL    HW174916  10.347   5.252   8.641 -0.9548  0.0975 -0.0968
23326SOL    HW274917  10.417   5.157   8.735  0.0394  0.4075 -0.5166
23327SOL     OW74918  11.383   4.185   2.656 -0.2671 -0.2086  0.2212
23327SOL    HW174919  11.348   4.254   2.601 -0.5292 -1.3803 -1.1361
23327SOL    HW274920  11.459   4.152   2.608 -0.6486 -1.4300  0.4257
23328SOL     OW74921   4.001   6.923   3.093 -0.1616 -0.3029  0.0384
23328SOL    HW174922   3.954   7.006   3.098 -1.2605 -0.8964 -0.0727
23328SOL    HW274923   3.945   6.861   3.139 -0.7011 -1.5521 -2.1239
23329SOL     OW74924  10.138   4.226  10.799  0.2452  0.1718 -0.5888
23329SOL    HW174925  10.142   4.166  10.725  0.9507 -1.0113  0.3845
23329SOL    HW274926  10.150   4.171  10.876 -1.4383  1.2202  0.4988
23330SOL     OW74927   4.837   1.510   3.455  0.4166  0.7820  0.0859
23330SOL    HW174928   4.803   1.524   3.543  1.3190  0.2938  0.5259
23330SOL    HW274929   4.763   1.476   3.405 -0.0505  0.8947  0.6981
23331SOL     OW74930  10.682   1.859   3.590 -0.3595  0.0490  0.1075
23331SOL    HW174931  10.634   1.812   3.521 -0.6324 -2.5477  1.8903
23331SOL    HW274932  10.767   1.814   3.595 -0.4779 -0.0817  1.6333
23332SOL     OW74933   5.527   6.328   0.920 -0.0077 -0.1567 -0.3324
23332SOL    HW174934   5.447   6.366   0.882 -1.2922 -3.4748 -1.3838
23332SOL    HW274935   5.536   6.243   0.875  1.9929 -1.5573  2.4330
23333SOL     OW74936   2.799   2.431   4.308  0.0363  0.0171 -0.2182
23333SOL    HW174937   2.779   2.460   4.397 -1.4543  0.8234 -0.7843
23333SOL    HW274938   2.731   2.367   4.288 -1.5924  2.1205 -1.8490
23334SOL     OW74939   8.541  11.630   0.759  0.4838  0.2213  0.3964
23334SOL    HW174940   8.501  11.671   0.682  1.0757 -0.6883 -0.4145
23334SOL    HW274941   8.507  11.541   0.759  0.7650  0.1136  0.9844
23335SOL     OW74942   1.933   8.225   5.949 -0.8928 -0.5329 -0.2821
23335SOL    HW174943   1.918   8.158   6.017 -1.5613 -0.0343  0.0803
23335SOL    HW274944   1.939   8.176   5.868  1.8546 -1.3504  0.3202
23336SOL     OW74945   7.904   2.595   9.965 -0.1224  0.0830 -0.5428
23336SOL    HW174946   7.842   2.591   9.892 -0.3462  0.1037 -0.3582
23336SOL    HW274947   7.959   2.671   9.947  1.6457 -1.4771 -2.1150
23337SOL     OW74948  11.019   4.877   4.679  0.9875  0.2444  0.2872
23337SOL    HW174949  10.965   4.809   4.639  0.6632  0.1806  0.8233
23337SOL    HW274950  11.054   4.926   4.605  1.5453 -0.7401 -0.1274
23338SOL     OW74951   8.137   4.381   8.120  0.3369 -0.0490  0.4016
23338SOL    HW174952   8.096   4.440   8.057 -0.0100 -0.1152  0.5614
23338SOL    HW274953   8.205   4.335   8.071 -0.5690 -0.8122 -0.1876
23339SOL     OW74954  10.808   0.484   6.265 -0.2661  0.3412 -0.0156
23339SOL    HW174955  10.762   0.400   6.272  0.0322  0.0572 -1.2158
23339SOL    HW274956  10.797   0.524   6.351  0.3096 -1.3007  0.8777
23340SOL     OW74957  10.761   8.108  11.220  0.3549  0.1633  0.1448
23340SOL    HW174958  10.716   8.117  11.305  0.0534  1.4627 -0.1251
23340SOL    HW274959  10.797   8.195  11.204  1.3966 -0.3868 -0.5283
23341SOL     OW74960   5.145   4.176   9.311  0.4533  0.2810 -0.0548
23341SOL    HW174961   5.204   4.100   9.302  1.7029  1.2220 -0.0832
23341SOL    HW274962   5.059   4.137   9.326  0.6746 -1.1746 -2.1687
23342SOL     OW74963   8.216   3.126  10.324 -0.0099  0.1897 -0.5587
23342SOL    HW174964   8.148   3.192  10.319  0.0838  0.4728  1.2189
23342SOL    HW274965   8.170   3.043  10.311 -0.8274  0.3376  1.1347
23343SOL     OW74966   2.196   5.409   5.395  0.3088 -0.4683  0.9135
23343SOL    HW174967   2.246   5.360   5.329  0.1598  2.3126 -1.4621
23343SOL    HW274968   2.262   5.453   5.448  0.5466  1.5638 -0.9240
23344SOL     OW74969   1.959   7.130   7.807  0.1429 -0.4030 -0.0149
23344SOL    HW174970   1.943   7.084   7.725 -1.1474 -0.1417  0.0571
23344SOL    HW274971   2.054   7.138   7.813  0.2657 -0.6430 -1.3581
23345SOL     OW74972   9.696   6.822   7.417  0.0100  0.8000  0.0493
23345SOL    HW174973   9.685   6.749   7.357  1.8315  0.6535 -0.1655
23345SOL    HW274974   9.643   6.799   7.494  1.3686 -1.2911  0.4256
23346SOL     OW74975   0.078  11.115   4.680 -0.3281  0.1367 -0.6373
23346SOL    HW174976   0.132  11.179   4.633  0.0766  0.2696 -0.0132
23346SOL    HW274977   0.140  11.067   4.735 -0.7154 -0.3814 -0.6441
23347SOL     OW74978   5.310   4.309   4.243 -0.5871  0.1161 -0.3642
23347SOL    HW174979   5.384   4.364   4.218 -0.5219  1.0807  1.7400
23347SOL    HW274980   5.257   4.364   4.300 -2.1641 -1.0447 -0.6287
23348SOL     OW74981   2.563   7.205   8.090 -0.5797 -0.6538 -0.0144
23348SOL    HW174982   2.496   7.136   8.088 -0.4185 -0.8751  1.2682
23348SOL    HW274983   2.513   7.287   8.090 -0.8695 -0.8160  0.8410
23349SOL     OW74984   2.808   0.086   0.029  0.2200 -0.5616 -0.3856
23349SOL    HW174985   2.809   0.036   0.111 -0.8770 -0.3576 -0.2243
23349SOL    HW274986   2.749   0.037  -0.028 -0.1785  0.0785 -0.5302
23350SOL     OW74987   7.457   5.341  11.574 -0.2203  0.2089 -0.2808
23350SOL    HW174988   7.526   5.305  11.630 -0.5372 -0.3340 -0.2314
23350SOL    HW274989   7.393   5.270  11.565 -0.9228  0.7971 -0.0804
23351SOL     OW74990   6.671  10.272   2.455  0.0325 -0.4270  0.1650
23351SOL    HW174991   6.598  10.241   2.401 -0.5518  0.6438  0.3216
23351SOL    HW274992   6.738  10.298   2.391  0.0249 -0.7937  0.0044
23352SOL     OW74993   5.772   8.389   5.638  0.2124  0.0951  0.2154
23352SOL    HW174994   5.690   8.352   5.605 -1.0060  0.6932  2.4047
23352SOL    HW274995   5.764   8.483   5.622  0.2600  0.2118  0.8703
23353SOL     OW74996   7.711  10.809   1.516  0.0161 -0.3778  0.1901
23353SOL    HW174997   7.648  10.760   1.465 -0.7293  1.3691 -0.6362
23353SOL    HW274998   7.796  10.775   1.488 -0.4809 -1.4687 -0.0375
23354SOL     OW74999   7.644   7.077   4.772 -0.1859 -0.3123  0.4721
23354SOL    HW175000   7.603   7.018   4.709  1.8603 -0.5652 -0.7038
23354SOL    HW275001   7.659   7.024   4.850  2.4894 -1.7786 -0.8895
23355SOL     OW75002   3.200   7.961  10.492  0.7866 -0.0150 -0.3997
23355SOL    HW175003   3.276   8.018  10.501  0.4667  0.2656  0.6473
23355SOL    HW275004   3.192   7.917  10.576  0.2859 -0.6864 -0.7824
23356SOL     OW75005   9.059  11.313   2.579 -0.1117  0.4040  0.1437
23356SOL    HW175006   9.128  11.271   2.630 -0.1061 -2.3428 -1.8790
23356SOL    HW275007   9.048  11.399   2.618  3.9099  0.6664  1.0476
23357SOL     OW75008   3.205   3.786   6.571  0.0273  0.0600  0.1206
23357SOL    HW175009   3.262   3.719   6.534 -0.3874 -1.1866  1.6290
23357SOL    HW275010   3.119   3.767   6.533  0.3207  1.1056 -1.1145
23358SOL     OW75011   1.472   8.058   9.317 -0.4002  0.7764  1.2315
23358SOL    HW175012   1.465   8.132   9.377  4.6889  1.3233  1.5775
23358SOL    HW275013   1.463   7.981   9.373  0.9459  1.2496  2.1269
23359SOL     OW75014   0.990   2.399   2.367  0.0081  0.0481 -0.3834
23359SOL    HW175015   0.998   2.494   2.355  2.7901  0.1667  1.5328
23359SOL    HW275016   0.918   2.390   2.431 -1.3148  0.6899 -1.7145
23360SOL     OW75017   9.795   9.433   1.802 -0.2108 -0.2182 -0.2883
23360SOL    HW175018   9.703   9.450   1.820 -0.3447  0.6341 -1.6714
23360SOL    HW275019   9.801   9.428   1.706  1.0212 -1.2476 -0.1965
23361SOL     OW75020   3.415   8.381   8.067  0.2681 -0.0654  0.1355
23361SOL    HW175021   3.351   8.318   8.034  2.5597 -2.4381 -0.0875
23361SOL    HW275022   3.442   8.430   7.989 -0.5555  0.3025  0.0723
23362SOL     OW75023   8.119   8.355   5.083 -0.4329 -0.0766 -0.6967
23362SOL    HW175024   8.155   8.306   5.157 -1.6896 -0.2024 -0.1495
23362SOL    HW275025   8.186   8.347   5.015  0.5906 -0.2618  0.2905
23363SOL     OW75026   3.751   8.981   8.863  0.1841 -0.3962 -0.0129
23363SOL    HW175027   3.836   8.972   8.819 -0.2975  1.2354 -1.3597
23363SOL    HW275028   3.688   8.949   8.799 -0.2380 -1.9057  1.1052
23364SOL     OW75029   1.592   6.813   2.874 -0.6050 -0.3632 -0.2433
23364SOL    HW175030   1.629   6.901   2.883 -0.1425 -0.6326  0.6076
23364SOL    HW275031   1.500   6.828   2.854 -0.1122  0.3280 -2.2484
23365SOL     OW75032   5.284   7.529   7.647  0.0269 -0.0534  0.4792
23365SOL    HW175033   5.209   7.469   7.646 -0.4580  0.5515 -0.0718
23365SOL    HW275034   5.323   7.521   7.560  1.3179 -1.2311  1.1358
23366SOL     OW75035   2.023  11.310   7.851 -0.0511  0.2368  0.1224
23366SOL    HW175036   1.933  11.299   7.882 -0.2207  0.1920 -0.3737
23366SOL    HW275037   2.018  11.296   7.757  0.4914  0.1566  0.0999
23367SOL     OW75038   8.006   0.003   8.792  0.2443  0.0495 -0.6315
23367SOL    HW175039   7.951  -0.067   8.758  0.8924 -0.1297 -1.3339
23367SOL    HW275040   7.944   0.063   8.835 -0.2805 -1.0773  0.2312
23368SOL     OW75041  11.056   1.582  10.532 -0.4487 -0.2770 -0.3064
23368SOL    HW175042  11.000   1.508  10.555 -1.3841  0.6966  0.7018
23368SOL    HW275043  10.995   1.650  10.504  0.4180  0.0114 -1.5528
23369SOL     OW75044  10.527   9.865   4.226  0.1524 -0.3191 -0.0051
23369SOL    HW175045  10.594   9.819   4.278  0.7048 -1.4347 -1.6302
23369SOL    HW275046  10.552   9.849   4.135 -1.0209  1.2352 -0.6495
23370SOL     OW75047   2.692   0.894   8.347 -0.8736  0.7699 -0.0078
23370SOL    HW175048   2.620   0.943   8.307 -0.9915  0.2388 -0.4628
23370SOL    HW275049   2.662   0.803   8.347 -0.1959  0.5393 -0.2200
23371SOL     OW75050  10.744   0.801   0.113  0.3559 -0.2065 -0.1349
23371SOL    HW175051  10.792   0.756   0.044  2.8316 -0.4501  1.6195
23371SOL    HW275052  10.653   0.796   0.086  1.1729 -0.7515 -3.0830
23372SOL     OW75053   3.684   2.684   9.585  0.3202  0.8611 -0.3023
23372SOL    HW175054   3.753   2.750   9.594  0.4998  0.6525 -0.1084
23372SOL    HW275055   3.639   2.707   9.504  1.5700  0.1490 -1.2578
23373SOL     OW75056   2.642   3.811   3.449 -0.0257 -0.0896  0.8197
23373SOL    HW175057   2.692   3.845   3.523 -0.2444 -0.4843  1.1542
23373SOL    HW275058   2.576   3.755   3.489  0.7850 -1.4928  0.2341
23374SOL     OW75059   2.716   9.404   0.699 -0.3169  0.2747 -0.7169
23374SOL    HW175060   2.797   9.364   0.729 -0.5422  0.3868  0.0565
23374SOL    HW275061   2.743   9.467   0.632  0.2393  0.3894 -0.3849
23375SOL     OW75062  10.910   3.409   8.470  0.3013  0.6283  0.3973
23375SOL    HW175063  10.989   3.377   8.512 -0.0165  0.0267  0.5379
23375SOL    HW275064  10.847   3.421   8.541 -0.2320 -0.3716  0.1184
23376SOL     OW75065   4.189   7.630   9.706 -0.7052 -0.2305 -0.0703
23376SOL    HW175066   4.221   7.682   9.632 -0.9628  1.3486  0.8999
23376SOL    HW275067   4.268   7.597   9.748 -0.5083  0.1283 -0.1586
23377SOL     OW75068   7.461  10.360  10.672  0.0397  0.1437 -0.3230
23377SOL    HW175069   7.458  10.387  10.764 -1.6481 -0.4866 -0.1479
23377SOL    HW275070   7.408  10.425  10.627  0.5241  0.2131 -0.7984
23378SOL     OW75071  10.561   4.700   9.387 -0.7659 -0.0042 -0.2008
23378SOL    HW175072  10.637   4.667   9.436 -1.8440 -1.6977  0.4226
23378SOL    HW275073  10.511   4.750   9.451 -0.8102  0.0644 -0.2893
23379SOL     OW75074   9.924   7.627   9.183  0.3523 -0.3950  0.1547
23379SOL    HW175075   9.862   7.649   9.253 -0.3884 -1.4157 -0.1550
23379SOL    HW275076   9.868   7.613   9.106  1.0769 -0.1978 -0.4191
23380SOL     OW75077  10.440   3.733   5.241 -0.3548 -0.1667 -0.1014
23380SOL    HW175078  10.422   3.700   5.154 -0.1407 -2.8535  0.7768
23380SOL    HW275079  10.397   3.671   5.300 -1.9450  2.4702  1.7537
23381SOL     OW75080   3.102   8.285   6.679  0.0447  0.8544  0.2599
23381SOL    HW175081   3.105   8.377   6.705  0.6008  0.2777  2.3558
23381SOL    HW275082   3.193   8.261   6.663 -0.1321  0.7347 -0.6463
23382SOL     OW75083   3.730   5.670   7.868 -0.0377 -0.2982  0.4607
23382SOL    HW175084   3.693   5.605   7.809 -2.7672  1.5589 -0.0396
23382SOL    HW275085   3.768   5.736   7.810  0.5963 -0.2671  0.9030
23383SOL     OW75086   7.033   3.113   6.961  0.2360  0.2282 -0.2415
23383SOL    HW175087   7.031   3.019   6.940  1.8112 -0.4536  2.1811
23383SOL    HW275088   6.941   3.136   6.975 -0.1993 -0.8676 -1.1109
23384SOL     OW75089   1.111   7.772   1.774 -0.0857  0.1663 -0.2652
23384SOL    HW175090   1.062   7.741   1.850 -0.7400 -1.1750 -1.1967
23384SOL    HW275091   1.046   7.815   1.718  0.2816  0.6454 -0.3284
23385SOL     OW75092   4.182  10.556   9.650  0.0630 -0.3359  0.3838
23385SOL    HW175093   4.213  10.483   9.597 -0.1687  0.0309 -0.2692
23385SOL    HW275094   4.172  10.628   9.588 -2.0664 -0.4284  0.5539
23386SOL     OW75095   8.036   4.033   3.995 -0.2752  0.5244  0.5826
23386SOL    HW175096   8.023   4.098   4.064  0.4628  2.0526 -0.6706
23386SOL    HW275097   8.125   4.001   4.009  0.5850  2.1900 -0.6887
23387SOL     OW75098   6.040   8.848   2.519 -0.1195  0.5263  0.7026
23387SOL    HW175099   6.003   8.822   2.435 -0.7404 -1.3891  1.5119
23387SOL    HW275100   6.010   8.938   2.531 -2.7408 -0.1910  0.3011
23388SOL     OW75101   5.185   7.162   1.679  0.6756  0.5272 -0.4317
23388SOL    HW175102   5.253   7.095   1.693  0.9459  1.2964  2.7716
23388SOL    HW275103   5.234   7.240   1.652  0.9928  0.7797  0.8105
23389SOL     OW75104  11.155   4.301  10.110  0.4852 -0.4917 -0.6401
23389SOL    HW175105  11.237   4.346  10.129  0.3440 -1.2239  2.0676
23389SOL    HW275106  11.087   4.365  10.133  0.3111 -1.4249  1.7542
23390SOL     OW75107   5.208   1.485   5.229 -0.1784 -0.8212 -0.0708
23390SOL    HW175108   5.147   1.431   5.278  0.0261 -1.4966 -0.5373
23390SOL    HW275109   5.238   1.429   5.157 -0.0702 -0.0408 -0.6597
23391SOL     OW75110   1.405   3.485   7.380 -0.3380  0.4224 -0.0889
23391SOL    HW175111   1.375   3.498   7.290 -1.4515 -0.7154  0.0890
23391SOL    HW275112   1.339   3.529   7.433 -3.2481 -3.8975  0.4330
23392SOL     OW75113   7.972   7.532   8.453  0.5765  0.1560 -0.0169
23392SOL    HW175114   8.054   7.534   8.402  0.9961 -0.6369  0.6011
23392SOL    HW275115   7.916   7.597   8.411  1.8363  1.3558  0.0690
23393SOL     OW75116   0.832   8.762   0.168  0.1627 -0.2438 -0.2507
23393SOL    HW175117   0.817   8.707   0.092  0.4040  1.0583 -1.2762
23393SOL    HW275118   0.760   8.742   0.228  0.3061 -1.7218 -0.5395
23394SOL     OW75119   5.880   6.633   8.161  0.1043  0.1236 -0.5955
23394SOL    HW175120   5.961   6.589   8.136  0.0821  0.8568 -2.0931
23394SOL    HW275121   5.884   6.641   8.256  0.5094 -2.2862 -0.3609
23395SOL     OW75122   9.020  11.044  10.536  0.1653 -0.2968 -0.1929
23395SOL    HW175123   9.027  11.136  10.562  0.1129 -0.1749 -0.5891
23395SOL    HW275124   8.950  11.044  10.470 -0.4158 -0.7567  0.4115
23396SOL     OW75125   3.465   9.231   1.031  0.2069  0.3702 -0.4271
23396SOL    HW175126   3.427   9.156   1.077  0.5452 -0.0311 -0.8030
23396SOL    HW275127   3.428   9.307   1.076 -0.9810 -0.0136 -0.7376
23397SOL     OW75128   1.796   4.728   1.291 -0.1232  0.1898  0.2049
23397SOL    HW175129   1.831   4.639   1.283  1.8864  0.8969  0.6030
23397SOL    HW275130   1.770   4.751   1.202  3.1555  0.6095 -0.7973
23398SOL     OW75131   5.832  11.299   5.805  0.5730  0.2092  0.3372
23398SOL    HW175132   5.738  11.286   5.821  0.9564 -1.4731  1.6014
23398SOL    HW275133   5.842  11.289   5.711 -0.1370 -3.1309  0.4853
23399SOL     OW75134   5.729  10.275   3.099  0.0006  0.5505  0.0619
23399SOL    HW175135   5.689  10.221   3.030 -1.9461  0.0636  1.4817
23399SOL    HW275136   5.703  10.364   3.077  0.9457  0.6356 -0.8043
23400SOL     OW75137   8.308   9.507   6.205 -1.0143 -0.1544  0.1644
23400SOL    HW175138   8.253   9.434   6.176 -0.8244 -0.1871 -0.1267
23400SOL    HW275139   8.299   9.573   6.137 -0.6348 -0.1928  0.0708
23401SOL     OW75140   2.093   0.333   0.026 -0.3326 -0.2374 -0.5080
23401SOL    HW175141   2.068   0.348  -0.065  0.3620 -2.1208 -1.0583
23401SOL    HW275142   2.161   0.398   0.043 -1.1616  0.7937 -0.9765
23402SOL     OW75143   6.682   2.754   5.254  0.5031 -0.0353  0.1177
23402SOL    HW175144   6.773   2.733   5.233  0.8293 -1.0995  2.2839
23402SOL    HW275145   6.635   2.671   5.243 -0.0334  0.2998 -0.1506
23403SOL     OW75146   7.457   1.091   1.045 -0.1826 -0.2397  0.2567
23403SOL    HW175147   7.395   1.041   0.992  1.4294  0.2105 -2.2367
23403SOL    HW275148   7.527   1.029   1.066  0.6726  0.2824 -0.8605
23404SOL     OW75149   4.296   6.118   3.255 -0.9389 -0.4861  0.6658
23404SOL    HW175150   4.245   6.158   3.325  0.3662  1.6332  0.4873
23404SOL    HW275151   4.279   6.173   3.178  0.6783 -0.4247  0.3178
23405SOL     OW75152   0.740   4.425   4.233  0.2681  0.8739 -0.0818
23405SOL    HW175153   0.717   4.356   4.295  1.0650 -0.0074 -0.7193
23405SOL    HW275154   0.684   4.408   4.157  0.8686  0.5588 -0.4647
23406SOL     OW75155   3.916   8.057   3.610 -0.2694  0.3247 -0.1789
23406SOL    HW175156   3.986   8.058   3.675 -0.2280 -0.1093 -0.2139
23406SOL    HW275157   3.948   7.999   3.541  0.6908  2.5165 -1.7140
23407SOL     OW75158   0.599   4.841   6.612  0.1124 -0.0477 -0.5770
23407SOL    HW175159   0.506   4.820   6.621  0.0929 -1.6580 -3.2031
23407SOL    HW275160   0.641   4.799   6.687 -0.9250 -2.7510 -1.3772
23408SOL     OW75161   6.898   9.805   4.799  0.2409  0.3770 -0.0943
23408SOL    HW175162   6.844   9.726   4.792  0.2190  0.3417  0.4473
23408SOL    HW275163   6.977   9.784   4.749  1.3219 -0.9394  2.0619
23409SOL     OW75164   5.593   6.137   8.594  0.0647  0.2290 -0.5023
23409SOL    HW175165   5.549   6.221   8.602 -1.1338 -0.4535  0.4530
23409SOL    HW275166   5.522   6.072   8.598  0.8247 -0.8102 -2.4360
23410SOL     OW75167   2.855   1.631  10.188  0.6636  0.5913  0.3512
23410SOL    HW175168   2.777   1.590  10.152  0.9402  0.6701 -0.3504
23410SOL    HW275169   2.836   1.640  10.281  0.0502  0.1276  0.2807
23411SOL     OW75170   1.089   4.240  11.645  0.8101  0.2963 -0.3783
23411SOL    HW175171   1.163   4.189  11.677  0.5242 -1.4081 -2.2239
23411SOL    HW275172   1.035   4.176  11.599 -0.7240  1.9006 -0.8747
23412SOL     OW75173  11.206   7.458  10.139  1.0295 -0.1613 -0.5847
23412SOL    HW175174  11.163   7.529  10.091  1.1482  0.5765  0.3667
23412SOL    HW275175  11.141   7.387  10.139  0.0167  0.7175  0.3074
23413SOL     OW75176   8.234   2.433   3.734 -0.3456 -0.3818  0.6055
23413SOL    HW175177   8.167   2.364   3.727  1.3023 -1.8580 -3.4069
23413SOL    HW275178   8.224   2.484   3.654  0.8748  1.8485  1.7786
23414SOL     OW75179  10.276   1.001   1.693  0.3373  0.2532  0.2764
23414SOL    HW175180  10.336   1.071   1.666  0.7561 -0.4112 -0.5568
23414SOL    HW275181  10.325   0.920   1.678 -0.1857 -0.2340  1.1160
23415SOL     OW75182   0.317   6.673  10.968 -0.8972  0.7204 -0.8146
23415SOL    HW175183   0.379   6.633  10.907 -1.5050  0.9497 -1.6005
23415SOL    HW275184   0.372   6.713  11.036 -0.1677  1.1928 -1.6647
23416SOL     OW75185   9.956   6.636  11.104 -0.7644 -0.0093 -0.4494
23416SOL    HW175186   9.914   6.580  11.170  0.9040  0.5328  1.1320
23416SOL    HW275187   9.889   6.701  11.083 -1.6964 -0.8236 -0.0960
23417SOL     OW75188   9.602   3.137   7.265 -0.0939 -0.2992  0.4994
23417SOL    HW175189   9.574   3.200   7.200 -1.0973 -0.7239  0.5056
23417SOL    HW275190   9.657   3.187   7.325  1.1218  0.0243 -0.8346
23418SOL     OW75191  10.495   8.018   0.141 -0.2885  0.3098  0.2864
23418SOL    HW175192  10.575   7.975   0.172 -1.6008 -1.6303  1.2280
23418SOL    HW275193  10.426   7.980   0.195 -1.7993  2.3520 -0.1093
23419SOL     OW75194   5.228  10.099   3.346  0.1897 -0.3963 -0.6230
23419SOL    HW175195   5.186  10.037   3.406 -0.3872  0.4895 -0.0889
23419SOL    HW275196   5.197  10.185   3.375  1.8324  0.2430 -0.6421
23420SOL     OW75197   9.483  10.973  10.892 -0.4043  0.0637  0.0643
23420SOL    HW175198   9.505  10.924  10.812 -1.2894  0.2197 -0.2868
23420SOL    HW275199   9.428  10.914  10.942 -0.1451  0.1039  0.4003
23421SOL     OW75200   0.133   5.219   6.319 -0.4332 -0.0219  0.7194
23421SOL    HW175201   0.214   5.167   6.315 -0.7723 -0.5043  0.0631
23421SOL    HW275202   0.133   5.255   6.408  0.3338 -0.2935  0.8385
23422SOL     OW75203   6.388  10.850   9.243  0.3981  0.1359  0.2728
23422SOL    HW175204   6.355  10.830   9.155  0.9262  1.3226 -0.2080
23422SOL    HW275205   6.457  10.914   9.229  1.4989 -0.7406  1.4425
23423SOL     OW75206   7.358   6.357   2.916 -0.0100  0.1051  0.0098
23423SOL    HW175207   7.310   6.292   2.864  0.7468 -0.0925 -0.4568
23423SOL    HW275208   7.294   6.388   2.980 -0.4793 -0.8677  0.0367
23424SOL     OW75209   2.167   2.185   8.121  0.1168 -0.3152  0.2902
23424SOL    HW175210   2.240   2.127   8.144  0.0721 -1.4184 -2.0616
23424SOL    HW275211   2.195   2.229   8.041 -1.6280 -0.4800 -0.4578
23425SOL     OW75212   2.673   4.215   5.482  0.3981 -0.0707  0.0025
23425SOL    HW175213   2.654   4.131   5.524  0.6437 -0.5905 -0.9055
23425SOL    HW275214   2.602   4.272   5.511  0.0667 -0.6672  0.4029
23426SOL     OW75215   9.419  10.859   0.147 -0.5723  0.3749 -0.6562
23426SOL    HW175216   9.403  10.782   0.092 -1.3859  0.4789 -0.5875
23426SOL    HW275217   9.512  10.855   0.168 -0.5158 -0.3548 -1.0065
23427SOL     OW75218   7.347   8.832   6.845  0.3648 -0.2323  0.1685
23427SOL    HW175219   7.442   8.828   6.841  0.3006 -1.8109 -0.6511
23427SOL    HW275220   7.322   8.764   6.907 -0.2515 -0.4215 -0.2708
23428SOL     OW75221   9.426   3.535   2.482 -0.4967 -0.8958 -0.1066
23428SOL    HW175222   9.513   3.495   2.473  0.0308 -0.0233  0.8322
23428SOL    HW275223   9.366   3.472   2.442  0.4764 -1.9015 -0.0397
23429SOL     OW75224   5.023  10.737   5.640 -0.0157 -0.2364  0.0030
23429SOL    HW175225   5.110  10.724   5.604 -0.2861  1.2776 -1.3131
23429SOL    HW275226   5.005  10.658   5.690  1.6649 -1.0372 -0.6060
23430SOL     OW75227   4.069   3.271   6.424 -0.2381  0.1140 -0.3179
23430SOL    HW175228   4.012   3.196   6.440  0.8854 -1.1191 -1.8091
23430SOL    HW275229   4.018   3.347   6.452 -2.1601 -1.0255 -0.5779
23431SOL     OW75230   9.968   7.480   9.831  0.2974  0.2076 -0.2310
23431SOL    HW175231  10.033   7.426   9.875  0.1912  0.1272 -0.1719
23431SOL    HW275232   9.987   7.469   9.738 -0.9285 -1.4955 -0.3400
23432SOL     OW75233  10.757   9.408   3.383  0.0762 -0.5342 -0.5319
23432SOL    HW175234  10.774   9.433   3.473 -0.2874  1.2575 -0.9140
23432SOL    HW275235  10.755   9.312   3.384  0.9014 -0.5657  1.1839
23433SOL     OW75236   0.154   7.671   2.340  0.0130  0.1889  0.3234
23433SOL    HW175237   0.221   7.615   2.380  0.5370  1.2052  0.9131
23433SOL    HW275238   0.091   7.688   2.410 -1.5357 -1.6944 -0.5243
23434SOL     OW75239   1.812   1.236   9.400 -0.3420  0.2653  0.2436
23434SOL    HW175240   1.867   1.314   9.401 -2.4247  1.8271  0.5992
23434SOL    HW275241   1.845   1.183   9.473  0.8314  1.0137  0.2822
23435SOL     OW75242   0.326   4.772   6.886  0.0752 -0.1206  0.1362
23435SOL    HW175243   0.387   4.839   6.917  0.9552 -0.7512 -0.1801
23435SOL    HW275244   0.337   4.772   6.791 -0.0915 -0.5475  0.1163
23436SOL     OW75245   0.305   6.005   2.572  0.1467 -0.2782  0.1327
23436SOL    HW175246   0.267   5.917   2.579  3.1743 -1.6808  0.0991
23436SOL    HW275247   0.324   6.016   2.479  1.7760 -0.5167  0.4222
23437SOL     OW75248   8.821   4.668  10.300  0.2217  0.6828  0.1711
23437SOL    HW175249   8.728   4.677  10.319 -0.0382  0.8455 -1.0620
23437SOL    HW275250   8.831   4.578  10.269  0.3814  0.8169 -0.1727
23438SOL     OW75251  10.201   6.479   8.048 -0.3111 -0.1639 -0.4429
23438SOL    HW175252  10.213   6.569   8.078 -0.4940 -0.2004 -0.2528
23438SOL    HW275253  10.108   6.462   8.060 -0.3863 -0.1833 -1.0363
23439SOL     OW75254   5.477   7.646  10.740  0.5634  0.1438 -0.2416
23439SOL    HW175255   5.495   7.738  10.760 -1.6809  0.7060 -0.5363
23439SOL    HW275256   5.440   7.647  10.651 -1.1294 -0.7715  0.3956
23440SOL     OW75257   3.126  10.586   3.241 -0.0070 -0.2246  0.0639
23440SOL    HW175258   3.157  10.654   3.182 -0.2137  0.8150  1.1272
23440SOL    HW275259   3.043  10.558   3.203  0.2488 -0.1407 -0.5699
23441SOL     OW75260   8.429   7.697   9.283  0.2773 -0.0312  0.1554
23441SOL    HW175261   8.426   7.613   9.238  1.4673 -0.4323  0.7781
23441SOL    HW275262   8.347   7.740   9.260  0.9147 -0.1195 -2.5240
23442SOL     OW75263   1.646   7.566   5.490  0.1409  0.5431  0.2512
23442SOL    HW175264   1.650   7.634   5.423 -1.2333 -0.6411 -1.0886
23442SOL    HW275265   1.553   7.556   5.509  0.3115 -1.0816  0.3005
23443SOL     OW75266   0.443   9.874   1.067 -0.9720  0.2457 -0.0089
23443SOL    HW175267   0.354   9.873   1.033 -0.8715 -0.7051 -0.2803
23443SOL    HW275268   0.488   9.804   1.018 -0.7792 -1.0730  1.9371
23444SOL     OW75269  11.198   9.092   8.541 -0.0394  0.8768 -0.4608
23444SOL    HW175270  11.220   9.002   8.568  0.0969  0.6427 -1.3184
23444SOL    HW275271  11.281   9.127   8.508  0.1534  1.6904  0.8321
23445SOL     OW75272   4.079   6.174   9.319  0.4600  0.3389 -0.1083
23445SOL    HW175273   4.071   6.249   9.377 -4.1272  0.4936 -0.5820
23445SOL    HW275274   4.097   6.100   9.378 -4.1014  0.4763  1.8326
23446SOL     OW75275   1.336   7.568   9.579 -0.2688 -0.7240  0.0657
23446SOL    HW175276   1.268   7.634   9.592 -0.2665 -0.5561 -0.7316
23446SOL    HW275277   1.297   7.487   9.611 -0.5529 -0.4782  0.3425
23447SOL     OW75278  11.049   8.371   0.175 -0.4261 -0.2616 -0.0929
23447SOL    HW175279  10.977   8.434   0.169  1.0019  1.5622  0.9812
23447SOL    HW275280  11.119   8.409   0.123  0.4286 -1.0043  0.4846
23448SOL     OW75281   3.846   2.208   0.566 -0.1488 -0.2222  0.9848
23448SOL    HW175282   3.821   2.121   0.533  0.4230 -0.4632  1.1711
23448SOL    HW275283   3.899   2.246   0.497  1.8274 -1.0951  1.9194
23449SOL     OW75284   0.312   0.748   9.650 -0.1733 -0.2290 -0.0662
23449SOL    HW175285   0.396   0.765   9.693 -0.6226  2.1003  0.0071
23449SOL    HW275286   0.336   0.711   9.565  0.8921 -0.2060  0.2104
23450SOL     OW75287   6.577   1.784   6.880  0.3031  0.1077  0.4456
23450SOL    HW175288   6.574   1.705   6.935 -2.7086  0.1585  0.4980
23450SOL    HW275289   6.541   1.757   6.796  0.3462  1.1443  0.0785
23451SOL     OW75290   6.939   5.250  10.748 -0.1088  0.1896  0.0639
23451SOL    HW175291   6.935   5.232  10.654  1.1343 -3.0111  0.4731
23451SOL    HW275292   7.033   5.248  10.768 -0.3975 -0.0706  1.4955
23452SOL     OW75293   6.887   8.768   6.035 -0.0539  0.2649  0.1321
23452SOL    HW175294   6.833   8.715   6.093  0.6343 -1.5685 -0.8192
23452SOL    HW275295   6.877   8.858   6.067 -3.6807  0.0624 -0.0528
23453SOL     OW75296   6.454   1.579  10.476 -0.2677 -0.1128  0.1594
23453SOL    HW175297   6.488   1.668  10.469  1.4618 -0.6380  1.0982
23453SOL    HW275298   6.440   1.551  10.386  1.8303  0.1828 -0.3138
23454SOL     OW75299   4.094  10.777   5.535  0.4041 -0.9898 -0.1057
23454SOL    HW175300   4.034  10.811   5.602 -1.8101 -0.9071 -2.0007
23454SOL    HW275301   4.036  10.744   5.467  2.1439  4.1669 -4.8104
23455SOL     OW75302   6.685   3.693   2.082  0.0397 -0.3238 -0.3718
23455SOL    HW175303   6.729   3.777   2.096 -0.3680 -0.1218 -0.2914
23455SOL    HW275304   6.756   3.630   2.069  0.3346  0.3636 -2.3715
23456SOL     OW75305  11.190  11.607   8.549 -0.4292 -0.6435 -0.1474
23456SOL    HW175306  11.187  11.637   8.458  0.9059 -0.4636 -0.1547
23456SOL    HW275307  11.264  11.655   8.588 -1.5739  0.0345  1.3229
23457SOL     OW75308   6.818   5.672   2.044 -0.3145  0.1326 -0.3145
23457SOL    HW175309   6.832   5.672   2.139 -0.8957  1.1782 -0.2115
23457SOL    HW275310   6.764   5.595   2.027  0.4550 -0.5076  0.0876
23458SOL     OW75311  11.419  10.484   7.463 -0.3659  0.3499  0.1027
23458SOL    HW175312  11.479  10.437   7.406  0.6702  1.7884 -0.0621
23458SOL    HW275313  11.364  10.416   7.501  1.7534 -1.1370  0.7319
23459SOL     OW75314  10.948   6.605   3.367  0.3119  0.1424  0.6500
23459SOL    HW175315  10.936   6.530   3.309 -0.5554  1.1281 -0.5106
23459SOL    HW275316  10.865   6.652   3.362  1.4933  2.2638 -0.2729
23460SOL     OW75317  10.338   6.358   7.848 -0.0084  0.0575 -0.5787
23460SOL    HW175318  10.278   6.407   7.904 -1.4571 -1.1895 -0.9761
23460SOL    HW275319  10.424   6.368   7.890 -0.8487  0.1196  1.2130
23461SOL     OW75320   5.032  10.044   4.265 -0.1914 -0.4240  0.5268
23461SOL    HW175321   5.087  10.093   4.205  0.0585 -1.0093  0.2724
23461SOL    HW275322   4.943  10.058   4.233 -0.0767 -0.5595  0.1500
23462SOL     OW75323   9.108   6.132   9.703 -0.3582  0.8311 -0.0692
23462SOL    HW175324   9.132   6.209   9.651 -1.5878  0.9917 -0.4428
23462SOL    HW275325   9.012   6.136   9.707 -0.3683 -0.1098  0.7962
23463SOL     OW75326   8.397   0.607   2.022 -0.8359  0.2628 -0.2235
23463SOL    HW175327   8.360   0.556   1.950 -0.7375  2.2954 -1.8117
23463SOL    HW275328   8.385   0.698   1.996 -0.9672  1.1128  2.4598
23464SOL     OW75329   8.276   2.383   4.912  0.4738 -0.2401  0.8582
23464SOL    HW175330   8.227   2.385   4.994  1.8880 -2.2646  1.8063
23464SOL    HW275331   8.352   2.439   4.928  0.3206  0.0461  0.6074
23465SOL     OW75332   5.565   0.924   1.158 -0.5964  0.6346 -0.5795
23465SOL    HW175333   5.533   0.935   1.068  2.3569  1.5970 -1.6583
23465SOL    HW275334   5.570   0.829   1.170 -1.1807  0.4909 -1.3492
23466SOL     OW75335   3.843   6.760   2.409 -0.5274  0.2049  0.4444
23466SOL    HW175336   3.850   6.701   2.334 -0.0314  1.1226 -0.2600
23466SOL    HW275337   3.774   6.722   2.464  0.2387 -1.3736  0.3633
23467SOL     OW75338   9.777   7.841   4.812  0.0831  0.3245  0.5312
23467SOL    HW175339   9.747   7.790   4.736 -1.1846  0.9396  0.6041
23467SOL    HW275340   9.708   7.905   4.827  1.6269  2.0780  0.4677
23468SOL     OW75341  11.577   6.028   0.773 -0.0808  0.1274 -0.1618
23468SOL    HW175342  11.630   6.005   0.850  1.1245  0.8974 -0.7358
23468SOL    HW275343  11.615   5.977   0.702  0.3228  1.1772 -0.7119
23469SOL     OW75344   4.912   6.073   9.490 -0.0176  0.3001 -0.1800
23469SOL    HW175345   4.867   6.065   9.575  2.7372 -0.2912  1.3323
23469SOL    HW275346   4.928   5.983   9.464  2.3460  0.4625  0.5423
23470SOL     OW75347   9.329   4.929   7.719  0.4949  0.3244 -0.1857
23470SOL    HW175348   9.424   4.940   7.724  0.4985 -0.0843  1.5520
23470SOL    HW275349   9.299   4.944   7.809 -0.9814 -0.4636 -0.5139
23471SOL     OW75350   5.427   9.578   7.279  0.1464  0.8564 -0.0184
23471SOL    HW175351   5.361   9.559   7.346  0.4796 -0.7746 -0.1225
23471SOL    HW275352   5.510   9.576   7.325  0.5155 -1.7243 -0.6775
23472SOL     OW75353   9.918   0.784   0.735 -0.2917  0.3078  0.1775
23472SOL    HW175354   9.888   0.744   0.653 -0.1548  0.6770 -0.0523
23472SOL    HW275355   9.886   0.725   0.803  1.1480 -1.0242 -0.2183
23473SOL     OW75356   1.593   9.205   7.588 -0.3457  0.2981 -0.0524
23473SOL    HW175357   1.652   9.279   7.600  0.0488  0.0954 -0.6867
23473SOL    HW275358   1.563   9.183   7.676  1.7184 -0.5545  0.4901
23474SOL     OW75359  10.342   8.938   3.128  0.4790  0.5679 -0.1691
23474SOL    HW175360  10.331   8.989   3.048  1.5209  3.7095  1.5079
23474SOL    HW275361  10.374   8.853   3.099  1.1644  1.7070 -3.0416
23475SOL     OW75362   0.345   0.094  10.870 -0.2081 -0.1303  0.5852
23475SOL    HW175363   0.285   0.157  10.909  1.4841  0.7867  1.8312
23475SOL    HW275364   0.358   0.027  10.937  0.3211 -0.2060  0.4156
23476SOL     OW75365   5.768   1.555   3.166 -0.3113  0.1006 -0.4404
23476SOL    HW175366   5.787   1.566   3.073 -3.7742  3.5800 -0.9607
23476SOL    HW275367   5.836   1.495   3.197  3.1713  1.5357 -4.3986
23477SOL     OW75368   7.631   0.353   2.828 -0.1649 -0.2860 -0.8149
23477SOL    HW175369   7.606   0.434   2.784  0.8884  0.8426  0.5684
23477SOL    HW275370   7.639   0.377   2.920 -0.9370 -2.2445 -0.1761
23478SOL     OW75371   1.727   2.046  10.462  0.1838  0.4915  0.4349
23478SOL    HW175372   1.742   1.955  10.436 -0.0989  0.0685  1.7094
23478SOL    HW275373   1.714   2.042  10.557  0.5366  1.9078  0.5608
23479SOL     OW75374   8.803  10.051   9.799  0.6212 -0.4588 -0.7281
23479SOL    HW175375   8.741   9.993   9.755 -0.0543 -0.9042  0.7647
23479SOL    HW275376   8.874  10.062   9.736  0.0407 -1.6705 -1.6305
23480SOL     OW75377   4.974   3.171   0.290 -0.5786 -0.1679 -0.5527
23480SOL    HW175378   5.005   3.255   0.257 -0.7883 -0.1163 -0.6214
23480SOL    HW275379   5.053   3.126   0.321 -0.6167  0.5853  0.7000
23481SOL     OW75380   7.802   8.765   4.771 -0.0348  0.7076 -0.1716
23481SOL    HW175381   7.784   8.697   4.706 -2.3675  1.8050 -0.7814
23481SOL    HW275382   7.843   8.835   4.721 -0.8976  1.1407 -0.2975
23482SOL     OW75383   9.200   0.496   0.659  0.1915 -0.7750 -0.2250
23482SOL    HW175384   9.136   0.562   0.688  0.9268  1.3898 -3.0144
23482SOL    HW275385   9.235   0.459   0.740 -2.3236  0.2087  1.4387
23483SOL     OW75386   0.678   6.331   2.844  0.6699  0.5448  0.0804
23483SOL    HW175387   0.641   6.403   2.895 -2.3455 -0.1102 -0.9617
23483SOL    HW275388   0.665   6.358   2.753  1.2375 -0.5080 -0.3249
23484SOL     OW75389   9.185   8.268   1.146 -0.0481  0.7665 -0.0843
23484SOL    HW175390   9.208   8.185   1.105 -0.1495  0.6556  0.0865
23484SOL    HW275391   9.226   8.265   1.232  0.2796  1.0574 -0.2229
23485SOL     OW75392   7.251   7.562   6.849 -0.1794  0.4454  0.0444
23485SOL    HW175393   7.279   7.512   6.772 -2.8382  0.9576 -1.3759
23485SOL    HW275394   7.238   7.496   6.917 -3.1751 -0.9487 -1.6531
23486SOL     OW75395   6.580   4.330   7.642  0.2175  0.0335 -0.0715
23486SOL    HW175396   6.661   4.295   7.680  0.5576 -0.3213 -1.1037
23486SOL    HW275397   6.606   4.368   7.559 -0.6032  0.3628 -0.1899
23487SOL     OW75398   6.929   0.042   9.719 -0.5295 -0.6340  0.1921
23487SOL    HW175399   6.846   0.088   9.727 -0.7794 -0.5006 -2.4044
23487SOL    HW275400   6.906  -0.051   9.721 -0.5524 -0.6171  0.9170
23488SOL     OW75401   9.994   0.808   2.667  0.4664  0.0337 -0.2193
23488SOL    HW175402  10.008   0.736   2.727  3.6036 -0.6475 -1.5775
23488SOL    HW275403   9.899   0.812   2.655 -0.1528 -0.8502  3.3598
23489SOL     OW75404   2.096   3.409   5.292  0.6244  0.4417 -0.9209
23489SOL    HW175405   2.169   3.441   5.239  0.1247  1.4695 -1.0219
23489SOL    HW275406   2.098   3.314   5.282  2.3483  0.3913 -0.3880
23490SOL     OW75407   4.261   0.367  10.542  0.2828 -0.2705  0.1486
23490SOL    HW175408   4.203   0.427  10.590  1.5522  1.8331 -0.8140
23490SOL    HW275409   4.281   0.413  10.461  3.1562 -0.9513  0.3608
23491SOL     OW75410   8.584   6.810   3.410 -0.2957 -0.2905  0.0082
23491SOL    HW175411   8.522   6.844   3.346 -0.7015  1.0655  1.0659
23491SOL    HW275412   8.541   6.824   3.495  0.2835 -1.9068  0.6081
23492SOL     OW75413  11.405   7.141   3.167 -0.7332  0.3337 -0.0890
23492SOL    HW175414  11.455   7.092   3.231 -0.6662  0.1418 -0.2843
23492SOL    HW275415  11.313   7.121   3.187 -0.8167  1.7593  1.1271
23493SOL     OW75416   6.634   0.192   3.917 -0.1914  0.0745 -0.1600
23493SOL    HW175417   6.569   0.250   3.956  0.7006  0.4136  0.8540
23493SOL    HW275418   6.585   0.112   3.898 -1.0982  0.6152 -0.2186
23494SOL     OW75419  10.953   4.321   2.144  0.3587  0.2002 -0.5192
23494SOL    HW175420  10.952   4.245   2.087  1.4406 -0.1267 -0.1107
23494SOL    HW275421  10.964   4.396   2.085 -0.5150  0.0340 -0.9005
23495SOL     OW75422  11.023   8.347   1.608 -0.1861 -0.0120 -0.8425
23495SOL    HW175423  10.976   8.419   1.566  0.4353  1.0816  0.2736
23495SOL    HW275424  11.008   8.359   1.701  0.2482 -1.1222 -0.6077
23496SOL     OW75425   2.112   8.113   5.380  0.5973 -0.1674  0.3577
23496SOL    HW175426   2.133   8.161   5.460  1.1449 -0.6529  0.5080
23496SOL    HW275427   2.017   8.098   5.385  0.4563  0.6843  0.4195
23497SOL     OW75428  10.360   2.937   9.730 -0.0612  0.2075  0.0177
23497SOL    HW175429  10.322   2.912   9.814  0.7752  1.0440  0.6689
23497SOL    HW275430  10.351   3.032   9.728 -0.8062  0.1355 -1.2218
23498SOL     OW75431   1.455   7.327   3.538  0.0645 -0.0038  0.1133
23498SOL    HW175432   1.383   7.371   3.583 -1.4868  1.4402 -3.3866
23498SOL    HW275433   1.427   7.324   3.446  3.1749 -2.2215 -0.9278
23499SOL     OW75434   0.764   8.277   5.496  0.3478 -0.7889  0.8208
23499SOL    HW175435   0.801   8.291   5.408  1.9391  0.1322  1.5887
23499SOL    HW275436   0.672   8.301   5.487  0.5958 -0.2153 -0.4844
23500SOL     OW75437   3.587  10.508   4.995  0.3534 -0.6983 -0.5131
23500SOL    HW175438   3.647  10.478   5.063  0.4941 -1.1595 -0.8373
23500SOL    HW275439   3.504  10.522   5.041  0.4158 -1.1244 -0.2740
23501SOL     OW75440   0.993   6.080  11.410 -0.7624 -0.0950  0.0207
23501SOL    HW175441   0.968   6.037  11.328  2.2048 -2.0761 -0.0163
23501SOL    HW275442   1.083   6.108  11.395 -1.0417  1.9946  1.7545
23502SOL     OW75443   3.354   4.532   5.802  0.3503 -0.4991 -0.7854
23502SOL    HW175444   3.278   4.589   5.813  1.3236  0.5146  1.1400
23502SOL    HW275445   3.381   4.546   5.711 -2.1770 -1.5061 -1.7919
23503SOL     OW75446   1.515   8.810   9.447 -0.5256 -0.2027 -0.1411
23503SOL    HW175447   1.479   8.762   9.371 -0.8211  0.8896 -0.7097
23503SOL    HW275448   1.590   8.758   9.475 -2.1103 -2.2201  0.6618
23504SOL     OW75449   7.837   1.179   2.042 -0.3586 -0.1729  0.1881
23504SOL    HW175450   7.931   1.163   2.044 -0.4865 -0.9928  0.0051
23504SOL    HW275451   7.802   1.108   1.988 -0.9959  0.5637 -0.3946
23505SOL     OW75452   6.961   8.275   7.148  0.0421 -0.5345 -0.0703
23505SOL    HW175453   7.017   8.310   7.217 -1.5069  0.5668  0.6716
23505SOL    HW275454   7.015   8.208   7.106  2.5225  1.5235 -0.4536
23506SOL     OW75455   5.104   0.532   6.991 -0.1066  0.8440  0.3211
23506SOL    HW175456   5.169   0.584   7.039  0.7861 -0.0944  0.1580
23506SOL    HW275457   5.139   0.526   6.902  0.2504 -0.7568  0.5466
23507SOL     OW75458   4.281   5.535  10.341 -0.0316  0.2480  0.2736
23507SOL    HW175459   4.237   5.449  10.341 -1.8464  1.1207  0.0129
23507SOL    HW275460   4.374   5.514  10.346 -0.3830 -1.7637 -0.4435
23508SOL     OW75461   3.254   2.314   7.377  0.0055  0.0752  0.4295
23508SOL    HW175462   3.304   2.263   7.313 -2.0900  0.8706 -2.0365
23508SOL    HW275463   3.279   2.405   7.360 -1.8277  0.4448 -0.5572
23509SOL     OW75464   6.654   5.254   6.392  0.8728  0.1444  0.7794
23509SOL    HW175465   6.581   5.193   6.380 -0.5438  2.2530 -2.6808
23509SOL    HW275466   6.612   5.336   6.418  2.0721  1.1781 -0.4372
23510SOL     OW75467   1.120   7.911   2.560 -0.9522  0.1889  0.6035
23510SOL    HW175468   1.046   7.898   2.620 -1.1038 -2.8340 -0.1076
23510SOL    HW275469   1.086   7.888   2.474  0.4812  0.0106  0.0614
23511SOL     OW75470   1.682   0.549   3.713 -0.5651  0.0968  0.3729
23511SOL    HW175471   1.587   0.559   3.722 -0.6424  0.1407 -0.4341
23511SOL    HW275472   1.693   0.489   3.639  0.0486  2.7600 -1.8466
23512SOL     OW75473   4.956   4.458   4.084 -0.1060 -0.0340 -0.0830
23512SOL    HW175474   5.041   4.474   4.043  0.2205  2.1347  1.2600
23512SOL    HW275475   4.906   4.538   4.067 -0.8591 -0.1204  1.5169
23513SOL     OW75476   9.713   0.064   6.657 -0.1390  0.5978 -0.3786
23513SOL    HW175477   9.652   0.128   6.694  0.8762 -0.0025  2.6073
23513SOL    HW275478   9.731   0.003   6.729  3.3512  0.3184 -1.3007
23514SOL     OW75479   8.668   5.997   5.061  0.5684 -0.0633  0.3758
23514SOL    HW175480   8.630   6.037   4.983 -0.6265 -0.2865  0.8298
23514SOL    HW275481   8.758   6.031   5.063  0.1762  1.0929 -0.2913
23515SOL     OW75482   2.165   2.068   1.879  0.8968 -0.8753  0.3370
23515SOL    HW175483   2.179   2.027   1.965  1.1817 -0.1947  0.6189
23515SOL    HW275484   2.253   2.077   1.842  0.8651 -0.2456  0.4064
23516SOL     OW75485  11.209   2.567   9.765 -0.2653 -0.2855  0.1464
23516SOL    HW175486  11.273   2.636   9.781 -1.8531  1.6481 -1.3695
23516SOL    HW275487  11.224   2.504   9.836  0.7741  1.9745  2.0784
23517SOL     OW75488   1.735   0.576   4.468 -0.4099  0.5978  0.2279
23517SOL    HW175489   1.725   0.668   4.444 -1.9051  0.1255 -1.1672
23517SOL    HW275490   1.767   0.534   4.388 -0.5215 -0.2212  0.6062
23518SOL     OW75491   5.219  11.348   1.218  0.4305 -0.4851  0.0779
23518SOL    HW175492   5.262  11.429   1.193 -2.1012  1.1523  0.6879
23518SOL    HW275493   5.197  11.306   1.135  1.5261 -0.4551 -0.2455
23519SOL     OW75494   8.261   9.346   0.995 -0.0447  0.0574 -0.1222
23519SOL    HW175495   8.247   9.259   1.032  0.8696 -0.3252 -0.6494
23519SOL    HW275496   8.348   9.342   0.956  0.2376  1.3634  0.2988
23520SOL     OW75497   3.190   2.357   9.803 -0.5267 -0.0102 -0.2520
23520SOL    HW175498   3.131   2.429   9.780 -0.7552  0.1586  0.7993
23520SOL    HW275499   3.274   2.399   9.818  0.4145 -0.4562 -3.5514
23521SOL     OW75500   1.074   2.433   3.291  0.0804  0.0487 -0.8343
23521SOL    HW175501   1.020   2.452   3.214 -0.9980  1.5575  0.2454
23521SOL    HW275502   1.020   2.373   3.343  0.4900 -0.3680 -0.8861
23522SOL     OW75503   1.336   1.007   5.776 -0.2969 -0.2698 -0.7070
23522SOL    HW175504   1.255   0.959   5.793 -0.6224  0.6759  0.5214
23522SOL    HW275505   1.323   1.046   5.690 -0.0623 -2.2638 -1.6943
23523SOL     OW75506   3.760   2.478   9.255 -0.0639 -0.0530 -0.5346
23523SOL    HW175507   3.820   2.416   9.296 -0.0010  0.5258  0.2681
23523SOL    HW275508   3.792   2.564   9.282 -0.6390  0.2993 -0.9512
23524SOL     OW75509   6.095   0.520   9.785  0.0289  0.5290  0.3310
23524SOL    HW175510   6.130   0.556   9.704  0.1737  0.8413  0.5278
23524SOL    HW275511   6.170   0.522   9.845 -0.3197  1.1937  0.7557
23525SOL     OW75512   9.439   2.358   6.741 -0.7438 -0.3314  0.0536
23525SOL    HW175513   9.413   2.267   6.750 -0.0361 -0.4005  1.8652
23525SOL    HW275514   9.503   2.359   6.670  0.5481 -1.5649  1.1522
23526SOL     OW75515   8.329   2.680   0.318  0.0739  0.1217  0.3047
23526SOL    HW175516   8.357   2.680   0.226  2.2029  2.3735  0.8408
23526SOL    HW275517   8.255   2.741   0.320 -2.0981 -2.2837 -0.3151
23527SOL     OW75518   4.123   3.933   1.427  0.2613  0.3484  0.0836
23527SOL    HW175519   4.187   3.881   1.379  1.4493  1.3329  0.5422
23527SOL    HW275520   4.041   3.920   1.380  0.8198 -0.8171 -0.6150
23528SOL     OW75521   5.619  11.085   7.807  0.0818  0.3546  0.6193
23528SOL    HW175522   5.644  10.996   7.832 -0.8331 -0.1900 -0.3365
23528SOL    HW275523   5.701  11.125   7.778  0.5457 -0.0755  1.2832
23529SOL     OW75524   0.855   4.665   5.642  0.4346 -0.3757 -0.2442
23529SOL    HW175525   0.762   4.679   5.657  0.6928 -0.4539  1.7487
23529SOL    HW275526   0.889   4.749   5.612 -0.3396 -0.4751 -1.4381
23530SOL     OW75527   8.619   0.257   2.667 -0.7574 -0.2586  0.3587
23530SOL    HW175528   8.532   0.259   2.706 -0.5541  0.3600  0.7950
23530SOL    HW275529   8.618   0.328   2.602 -0.5197 -0.1321  0.4923
23531SOL     OW75530   7.391   0.821  11.672  0.5055 -0.5756  0.0882
23531SOL    HW175531   7.356   0.743  11.630  0.5767 -0.4005 -0.3012
23531SOL    HW275532   7.425   0.791  11.756 -0.6380 -0.7536  0.5172
23532SOL     OW75533   4.952   9.258   5.453  0.1093  0.0818 -0.1782
23532SOL    HW175534   4.888   9.278   5.521  0.0912 -0.1418 -0.1277
23532SOL    HW275535   5.030   9.231   5.501  0.5174  1.1250 -0.2184
23533SOL     OW75536   1.143   7.476   6.030  0.4701 -0.2749  0.3275
23533SOL    HW175537   1.092   7.456   5.951 -0.7511 -0.7215  1.1927
23533SOL    HW275538   1.232   7.448   6.009  0.0532 -0.9081 -0.6894
23534SOL     OW75539   6.518   4.970   8.089 -0.0005  0.8635 -0.0419
23534SOL    HW175540   6.456   5.037   8.117 -0.6282 -0.0605  0.8425
23534SOL    HW275541   6.579   4.961   8.161  0.4334  0.8824 -0.3991
23535SOL     OW75542   7.828   1.970   3.442  0.7134  0.2350 -0.1729
23535SOL    HW175543   7.909   1.929   3.473  0.6865  1.0987  1.1196
23535SOL    HW275544   7.854   2.059   3.417 -0.0431  0.9616  1.5120
23536SOL     OW75545   4.048   3.971   5.427 -0.7239 -0.1449  0.1798
23536SOL    HW175546   4.005   3.984   5.511 -3.6102  0.3559 -1.2344
23536SOL    HW275547   3.990   3.911   5.379  0.4105  0.1860 -1.7393
23537SOL     OW75548   7.214   9.968   6.829 -0.4507 -0.2670 -0.0090
23537SOL    HW175549   7.219   9.939   6.920  2.7003  0.1990  0.0905
23537SOL    HW275550   7.274   9.910   6.782  1.0625  1.9444 -0.9860
23538SOL     OW75551   1.462  10.828   0.374 -0.0167 -0.4176 -0.2070
23538SOL    HW175552   1.432  10.823   0.465  1.8507 -1.2186  0.3988
23538SOL    HW275553   1.479  10.922   0.360  2.3117 -0.5715  1.2072
23539SOL     OW75554   4.929   7.017   5.126 -0.0703  0.4489 -0.1350
23539SOL    HW175555   4.930   7.091   5.186  0.6904 -0.1614  0.6424
23539SOL    HW275556   4.948   6.941   5.182 -0.4689 -0.2831 -0.9685
23540SOL     OW75557   0.967  11.221   1.266 -0.0209 -0.2070  0.3199
23540SOL    HW175558   1.033  11.289   1.280 -0.0338 -0.1807  0.2516
23540SOL    HW275559   0.988  11.183   1.181 -1.0092  0.8369 -0.4160
23541SOL     OW75560  10.764   5.537   6.481  0.4256 -0.1667  0.0398
23541SOL    HW175561  10.675   5.536   6.445  1.0389 -0.8956 -1.5447
23541SOL    HW275562  10.804   5.614   6.442  0.5788  0.0293  0.5726
23542SOL     OW75563   2.651   5.112   4.373  0.0004  0.3095 -0.0594
23542SOL    HW175564   2.671   5.021   4.353 -0.2495  0.4308 -0.9265
23542SOL    HW275565   2.734   5.150   4.400  0.2057 -0.0491 -0.1799
23543SOL     OW75566  10.036   5.134   9.358 -1.0678  0.0128 -0.1940
23543SOL    HW175567  10.095   5.148   9.432 -1.0090 -0.4611 -0.1449
23543SOL    HW275568   9.963   5.194   9.373 -0.6147  0.5833 -0.2392
23544SOL     OW75569   5.775   8.890   1.132  0.4474 -0.0525  0.0890
23544SOL    HW175570   5.724   8.834   1.073  0.3386 -0.2548  0.3730
23544SOL    HW275571   5.711   8.952   1.167  0.4849 -0.0227  0.1036
23545SOL     OW75572  10.779   4.227   7.564 -0.2682  0.1690 -0.1030
23545SOL    HW175573  10.852   4.172   7.592 -0.5172 -0.2958 -0.3488
23545SOL    HW275574  10.751   4.273   7.643  0.8297  1.0039 -0.1763
23546SOL     OW75575   4.847   1.539   4.062  0.5570  0.2077 -0.6117
23546SOL    HW175576   4.780   1.471   4.063  1.3057 -0.6503 -3.0781
23546SOL    HW275577   4.910   1.513   4.129 -0.3537 -0.2201  0.0979
23547SOL     OW75578  10.236   8.562   5.121 -0.4774  0.8984  0.3075
23547SOL    HW175579  10.323   8.531   5.097 -1.3470 -0.8518 -0.7717
23547SOL    HW275580  10.234   8.556   5.216  0.5690  0.9862  0.3501
23548SOL     OW75581   8.713   6.963   7.826  0.0190 -0.5707  0.3286
23548SOL    HW175582   8.689   6.902   7.895 -0.8461 -0.0974  0.4669
23548SOL    HW275583   8.683   6.920   7.745  1.4447 -1.3308  0.1828
23549SOL     OW75584   2.518   0.752   8.954  0.4370 -0.5874 -0.5832
23549SOL    HW175585   2.543   0.675   9.005  0.1778  0.1123  0.6270
23549SOL    HW275586   2.426   0.766   8.975  0.3181 -0.2980 -1.2802
23550SOL     OW75587   6.880   1.930   2.327  0.1707 -0.3518  0.4674
23550SOL    HW175588   6.890   1.983   2.406 -1.4088 -0.0292  0.4833
23550SOL    HW275589   6.802   1.966   2.283  0.2094 -1.4103 -0.5165
23551SOL     OW75590   4.808   4.174   9.009  0.0210 -0.0045  0.3937
23551SOL    HW175591   4.714   4.191   9.013  0.1145  0.2801  2.3669
23551SOL    HW275592   4.816   4.079   9.021 -0.0302 -0.1947 -0.8832
23552SOL     OW75593   8.180  10.130   1.773 -0.6054  0.0679 -0.0414
23552SOL    HW175594   8.089  10.116   1.746 -0.7756 -0.9975  1.0038
23552SOL    HW275595   8.179  10.119   1.868  0.3927  1.3443  0.1386
23553SOL     OW75596   7.171   6.410   3.095 -0.6032 -0.1798  0.1155
23553SOL    HW175597   7.092   6.461   3.078 -1.0167 -0.0055  2.2843
23553SOL    HW275598   7.138   6.323   3.119 -0.1280 -0.2240  0.6176
23554SOL     OW75599   9.944   5.053   4.091 -0.0296 -0.1280 -0.1642
23554SOL    HW175600   9.892   5.131   4.070 -1.2445 -1.0514 -0.6911
23554SOL    HW275601  10.034   5.085   4.096 -0.6394  1.5464  0.9471
23555SOL     OW75602   9.763   4.104   2.395  0.3549  0.2095 -0.1029
23555SOL    HW175603   9.797   4.016   2.407 -0.5775 -0.1032  0.3167
23555SOL    HW275604   9.827   4.161   2.438 -0.5479 -0.5128  2.3380
23556SOL     OW75605  10.966   2.597   6.823  0.1295  0.2600  0.2636
23556SOL    HW175606  10.975   2.626   6.732  1.3909  1.2023  0.6594
23556SOL    HW275607  10.942   2.676   6.871 -0.5872 -0.2461  0.7572
23557SOL     OW75608  10.502   2.532   0.948  0.2022 -0.4887 -0.1679
23557SOL    HW175609  10.466   2.621   0.946 -0.2207 -0.6545 -2.6306
23557SOL    HW275610  10.452   2.488   1.016  0.1814  1.0355  0.8644
23558SOL     OW75611   4.241  10.346   2.240 -0.4032  0.5211 -0.5502
23558SOL    HW175612   4.200  10.411   2.297 -1.2164  0.3545 -0.9208
23558SOL    HW275613   4.180  10.338   2.166 -0.7200 -1.2061 -0.1429
23559SOL     OW75614   9.705   2.736   4.369 -0.4755 -0.2575  0.8230
23559SOL    HW175615   9.781   2.770   4.416  0.0155  1.2202 -0.9142
23559SOL    HW275616   9.741   2.697   4.290 -1.5829  2.9745 -1.4545
23560SOL     OW75617   9.228   2.233  10.549  0.5480 -0.2454 -0.5097
23560SOL    HW175618   9.152   2.290  10.556  1.2838  0.8549 -1.2212
23560SOL    HW275619   9.245   2.227  10.455  1.0943 -0.8193 -0.3797
23561SOL     OW75620   8.576  11.535   2.891 -0.0035  0.3122 -0.3054
23561SOL    HW175621   8.614  11.518   2.805  1.1272 -1.2640  0.4599
23561SOL    HW275622   8.511  11.466   2.904 -1.2070  1.3834 -0.4611
23562SOL     OW75623   1.309   3.986   9.913  0.1818  0.4666 -0.2064
23562SOL    HW175624   1.230   3.965   9.964  0.2458 -1.9120 -0.9622
23562SOL    HW275625   1.281   3.979   9.822  1.1600  0.0802 -0.4844
23563SOL     OW75626   2.818   9.890   9.323  0.3050  0.1793  0.2082
23563SOL    HW175627   2.789   9.956   9.385  0.2304  2.1137 -1.7564
23563SOL    HW275628   2.794   9.807   9.364 -0.3649  1.3637  2.4036
23564SOL     OW75629   3.063   3.575   7.451  0.2798  0.2243  0.7232
23564SOL    HW175630   3.060   3.614   7.538  0.3228 -0.3271  0.9743
23564SOL    HW275631   3.077   3.482   7.466  0.1079  0.0956  0.1325
23565SOL     OW75632   6.282   8.005   0.730 -0.4732 -0.1934  0.0566
23565SOL    HW175633   6.292   8.077   0.668 -2.6845  0.7341  0.6767
23565SOL    HW275634   6.362   8.005   0.781  0.0634  1.0399 -0.7612
23566SOL     OW75635   3.048   2.574   5.595  0.0520 -0.2388 -0.1617
23566SOL    HW175636   3.035   2.654   5.646  0.2563 -0.4127  0.1642
23566SOL    HW275637   3.143   2.562   5.594  0.2905  1.0911 -2.6086
23567SOL     OW75638   5.914   1.709  11.392 -0.0372  0.0506  0.2011
23567SOL    HW175639   5.854   1.654  11.342 -0.8728  0.6909  0.4626
23567SOL    HW275640   5.863   1.787  11.412  0.4339  0.0258  1.6165
23568SOL     OW75641   5.967   6.562   6.852  0.4044 -0.4272 -0.2465
23568SOL    HW175642   5.900   6.593   6.913 -0.3392 -1.1617 -0.6730
23568SOL    HW275643   5.950   6.609   6.771  0.1892 -0.8499 -0.4520
23569SOL     OW75644   1.020   8.157   1.879  0.3961 -0.4823  0.2078
23569SOL    HW175645   1.001   8.115   1.963  0.2173  1.3070  1.0996
23569SOL    HW275646   0.980   8.243   1.885  2.6019  0.6936 -0.6740
23570SOL     OW75647   6.682   7.047   0.541  0.5974 -0.1562  0.3560
23570SOL    HW175648   6.607   6.998   0.509  0.4362  1.3356 -1.7943
23570SOL    HW275649   6.758   6.997   0.513  0.4362 -0.8858  1.1891
23571SOL     OW75650   7.473   4.989   7.859  0.8391 -0.8626  0.5670
23571SOL    HW175651   7.563   5.022   7.854  0.2792  0.6042 -0.5513
23571SOL    HW275652   7.464   4.932   7.782  0.2761  0.4920 -0.4070
23572SOL     OW75653  11.137   8.659   8.742 -0.4171 -0.1431 -0.4924
23572SOL    HW175654  11.069   8.658   8.675 -0.7154  1.2994 -0.2336
23572SOL    HW275655  11.182   8.742   8.731 -0.6333  0.2546  1.2479
23573SOL     OW75656   5.337  10.748   3.479 -0.5872  0.1452  0.0570
23573SOL    HW175657   5.315  10.789   3.396  0.8311 -0.4611 -0.6524
23573SOL    HW275658   5.253  10.718   3.514 -1.3537  1.5329 -0.5192
23574SOL     OW75659   3.969   6.230   7.014  0.2316 -0.5749  0.0991
23574SOL    HW175660   3.933   6.287   6.946 -3.4821 -0.9724  1.4965
23574SOL    HW275661   4.028   6.286   7.064 -0.0949  0.8357 -1.0173
23575SOL     OW75662   9.962   4.754   9.584  0.0300  0.4222 -0.4695
23575SOL    HW175663   9.966   4.779   9.492 -1.0166 -0.8912 -0.9030
23575SOL    HW275664   9.874   4.778   9.612 -0.4234 -1.1639 -0.4417
23576SOL     OW75665   4.263  10.021   9.434  0.3044 -0.2595  0.0118
23576SOL    HW175666   4.259  10.115   9.413 -2.0945 -0.8368 -2.7018
23576SOL    HW275667   4.193  10.008   9.498 -1.2862 -0.5655 -1.7127
23577SOL     OW75668   9.480   5.023   9.588 -0.1994 -0.1908 -0.1969
23577SOL    HW175669   9.466   5.008   9.681 -0.0628 -0.2244 -0.1809
23577SOL    HW275670   9.566   5.066   9.583 -0.6166  0.6657 -0.2338
23578SOL     OW75671   8.358   2.853   0.670 -0.3203 -0.2571 -0.2121
23578SOL    HW175672   8.303   2.843   0.748  0.1972  0.9030  0.3287
23578SOL    HW275673   8.396   2.766   0.655 -0.5872 -0.5354  0.7075
23579SOL     OW75674   8.552   8.790   1.771  0.4101  0.0820 -0.3140
23579SOL    HW175675   8.573   8.703   1.806 -1.8621 -0.4550 -0.1532
23579SOL    HW275676   8.497   8.830   1.837  0.5669  1.2420 -0.8667
23580SOL     OW75677   2.205  10.102   0.661 -0.1308 -0.1560  0.5678
23580SOL    HW175678   2.263  10.026   0.668 -0.3486 -0.5012 -0.9384
23580SOL    HW275679   2.117  10.067   0.678 -0.1308 -0.0555  0.7741
23581SOL     OW75680   7.622   6.814   6.717 -0.5874  0.1370 -0.2988
23581SOL    HW175681   7.659   6.729   6.689 -0.7440  0.4461 -1.5162
23581SOL    HW275682   7.698   6.868   6.735 -0.4568  0.2379 -1.1237
23582SOL     OW75683   6.800   1.556  11.481  0.3295  0.4726  0.2690
23582SOL    HW175684   6.830   1.466  11.465  0.3311  0.8493 -2.1718
23582SOL    HW275685   6.753   1.550  11.564  0.7227 -1.6869  0.4091
23583SOL     OW75686   4.769   6.336   7.635 -0.1966 -0.1422 -0.2084
23583SOL    HW175687   4.796   6.247   7.614  2.8733  0.2454  1.4988
23583SOL    HW275688   4.711   6.327   7.711  0.3742 -0.6947  0.1710
23584SOL     OW75689   3.695   8.892   6.027  0.0862  0.3896  0.1045
23584SOL    HW175690   3.664   8.853   5.945 -1.0307 -0.3190  0.8458
23584SOL    HW275691   3.785   8.861   6.036  1.0196  2.1993 -1.9097
23585SOL     OW75692   3.374   2.937  10.318  0.0964  0.1709 -0.1499
23585SOL    HW175693   3.441   2.898  10.373  1.5130  0.2565 -1.7278
23585SOL    HW275694   3.333   2.862  10.274  0.8360  0.2470 -0.9974
23586SOL     OW75695   6.465   4.069   0.862 -0.3586 -0.1421 -0.4294
23586SOL    HW175696   6.373   4.093   0.868 -0.1012  0.9664 -0.7720
23586SOL    HW275697   6.477   4.003   0.930 -1.1825  0.4059  0.2641
23587SOL     OW75698   2.616  10.654   0.016  0.7938  0.0934 -0.3479
23587SOL    HW175699   2.541  10.640   0.074  0.8032 -0.9370 -0.5714
23587SOL    HW275700   2.690  10.667   0.075  0.9150 -1.5570 -0.1015
23588SOL     OW75701   0.430  10.848   9.631  0.1747  0.3935  0.2955
23588SOL    HW175702   0.506  10.849   9.573 -0.2192  1.5246 -0.2448
23588SOL    HW275703   0.356  10.829   9.573  0.0867 -1.2712  0.9059
23589SOL     OW75704   7.393   5.009   1.295  0.2609 -0.0845 -0.4625
23589SOL    HW175705   7.444   4.965   1.227  2.3387 -0.4738  1.2601
23589SOL    HW275706   7.371   5.094   1.257 -0.4323 -1.0291 -2.3559
23590SOL     OW75707   3.749   4.415  10.023  0.4693  0.0011  0.1266
23590SOL    HW175708   3.742   4.329  10.064 -1.6019 -0.6264 -1.3660
23590SOL    HW275709   3.820   4.405   9.960  1.7980  0.1409  1.5481
23591SOL     OW75710   6.849   6.807   5.147 -0.3244 -0.2206 -0.1757
23591SOL    HW175711   6.813   6.722   5.172 -0.6908  0.0602  0.2760
23591SOL    HW275712   6.843   6.808   5.051  1.0675 -1.2937 -0.2952
23592SOL     OW75713   1.116   4.289   8.973  0.0898 -0.4755 -0.1521
23592SOL    HW175714   1.047   4.266   8.911  0.2679  0.7158 -0.8222
23592SOL    HW275715   1.069   4.314   9.053 -0.3794  1.4708 -0.9657
23593SOL     OW75716   6.730   1.533   7.293  0.0730  0.2940  0.5493
23593SOL    HW175717   6.759   1.532   7.202 -0.0434 -1.1546  0.5059
23593SOL    HW275718   6.673   1.457   7.301  0.0155  0.4422  1.8190
23594SOL     OW75719   0.713  10.626   2.523  0.1497  0.0121  0.0316
23594SOL    HW175720   0.714  10.689   2.595  0.9777  0.7418 -0.5934
23594SOL    HW275721   0.806  10.604   2.510  0.0596  0.2174 -1.0823
23595SOL     OW75722  11.578   7.190   7.917 -0.3455 -0.0068 -0.5043
23595SOL    HW175723  11.663   7.197   7.961 -0.4799 -2.2950  0.2441
23595SOL    HW275724  11.596   7.138   7.839  0.1050  4.8035 -4.0492
23596SOL     OW75725  11.324   5.090   3.757  0.4116  0.0998 -0.0669
23596SOL    HW175726  11.251   5.029   3.748 -0.0921  0.6565  0.2311
23596SOL    HW275727  11.333   5.130   3.671 -0.9838  1.5453  0.4267
23597SOL     OW75728   6.407  11.544   6.653  0.6333 -0.1369  0.3630
23597SOL    HW175729   6.455  11.505   6.580  0.2577 -0.4743  0.2943
23597SOL    HW275730   6.318  11.511   6.643  0.4946  0.1197  0.7561
23598SOL     OW75731   2.584   2.606   1.804  0.3267 -0.2893  0.7172
23598SOL    HW175732   2.655   2.563   1.756 -2.0438 -1.1125 -2.3493
23598SOL    HW275733   2.543   2.535   1.854  0.1577 -0.3432  0.5046
23599SOL     OW75734   9.658   7.489   8.655  0.2460  0.0576 -0.0585
23599SOL    HW175735   9.645   7.583   8.663 -1.0774 -0.2246  1.8981
23599SOL    HW275736   9.753   7.478   8.646  0.3635  1.5808 -0.8428
23600SOL     OW75737  10.475   7.411   6.383 -0.1628 -0.0701 -0.3855
23600SOL    HW175738  10.509   7.496   6.413  1.3689 -1.1770  1.1708
23600SOL    HW275739  10.404   7.391   6.444  1.5578 -1.3314  1.2865
23601SOL     OW75740   5.065   4.957   2.171  0.1644  0.2509  0.4891
23601SOL    HW175741   5.148   4.927   2.208  0.6148 -1.1336 -1.4456
23601SOL    HW275742   5.091   5.021   2.105 -0.4027  0.6953  0.6983
23602SOL     OW75743   4.992  11.065   6.340  0.3567  0.3325 -0.2195
23602SOL    HW175744   4.978  11.153   6.304 -1.1144  0.4783  0.6102
23602SOL    HW275745   4.960  11.006   6.272 -2.9990  0.6243  0.9295
23603SOL     OW75746   8.458  11.322   9.288 -0.0260  0.1147 -0.3029
23603SOL    HW175747   8.389  11.303   9.225 -0.7788  0.0006  0.5273
23603SOL    HW275748   8.535  11.343   9.235 -0.7372  0.3893 -1.2472
23604SOL     OW75749   0.720   4.641   5.957 -0.2223 -0.6250  0.1648
23604SOL    HW175750   0.718   4.737   5.954 -1.6986 -0.6225  0.2926
23604SOL    HW275751   0.771   4.616   5.880  1.4473  0.2621  0.9145
23605SOL     OW75752   7.438   7.350   1.683  0.3348 -0.0143  0.9680
23605SOL    HW175753   7.360   7.300   1.660  0.9137 -0.1234 -0.8869
23605SOL    HW275754   7.494   7.345   1.606  1.6513  1.1008  1.7988
23606SOL     OW75755   2.479   1.415   9.367 -0.2186  0.4883 -0.3033
23606SOL    HW175756   2.419   1.346   9.397 -0.2807 -0.9810 -3.3926
23606SOL    HW275757   2.460   1.489   9.424 -0.9559 -1.6516  2.4714
23607SOL     OW75758   5.469  10.881  10.958  0.6705  0.5004  0.4858
23607SOL    HW175759   5.517  10.922  11.030 -0.6342  1.2111  0.9721
23607SOL    HW275760   5.498  10.927  10.879  0.6770  1.0157  0.7931
23608SOL     OW75761   7.734  11.296   7.598 -0.2351  0.3921 -0.4498
23608SOL    HW175762   7.735  11.201   7.611  0.8971  0.4104 -0.3593
23608SOL    HW275763   7.783  11.310   7.517  0.3217  0.9691 -0.0193
23609SOL     OW75764   6.765   2.751  10.680 -0.6223 -0.5039 -0.6250
23609SOL    HW175765   6.831   2.802  10.727 -1.9999 -0.9772  2.0112
23609SOL    HW275766   6.770   2.664  10.718 -3.2416 -0.3495  0.3113
23610SOL     OW75767   0.983  10.050   9.903 -0.4156  0.3885  0.0955
23610SOL    HW175768   0.980  10.015   9.992 -0.4918 -0.5367 -0.2537
23610SOL    HW275769   0.918  10.120   9.902 -0.3020  0.5048  0.8084
23611SOL     OW75770   1.208   4.064   9.100 -0.1770 -0.7078 -0.3993
23611SOL    HW175771   1.180   4.149   9.067  0.2531 -0.0248  0.9207
23611SOL    HW275772   1.179   4.002   9.033 -0.5131  0.4597 -1.3825
23612SOL     OW75773  11.592   3.332  10.685  0.0625 -0.2348 -0.4626
23612SOL    HW175774  11.659   3.386  10.726 -0.6565  1.0521 -0.9550
23612SOL    HW275775  11.628   3.310  10.599 -0.9548  2.1950 -1.5809
23613SOL     OW75776   0.169   0.773  11.638  0.2265  0.2173  0.0289
23613SOL    HW175777   0.077   0.786  11.660  0.0429  2.2173 -1.5714
23613SOL    HW275778   0.210   0.745  11.720 -1.4797  1.0841  1.2459
23614SOL     OW75779   2.409   4.723   7.585  0.4269 -0.3297 -0.0779
23614SOL    HW175780   2.362   4.711   7.502  0.4625 -1.4057  0.0437
23614SOL    HW275781   2.354   4.678   7.649  0.2880  0.6924  0.5229
23615SOL     OW75782   9.427   7.580   1.826 -0.2190 -0.0355 -0.4931
23615SOL    HW175783   9.434   7.526   1.748 -0.9161 -0.4222 -0.2975
23615SOL    HW275784   9.498   7.550   1.883 -0.5889 -0.7354 -0.3955
23616SOL     OW75785   2.734   3.971   3.684  0.7298 -0.3201 -0.5326
23616SOL    HW175786   2.798   4.031   3.648  1.0989  1.0666  2.1721
23616SOL    HW275787   2.657   4.025   3.702  0.7500 -0.7811  1.1245
23617SOL     OW75788   0.699   0.296   3.446 -0.0511  0.2720  0.0425
23617SOL    HW175789   0.790   0.323   3.433 -0.2549  0.6292 -0.7717
23617SOL    HW275790   0.665   0.359   3.510 -0.2829  1.4832 -1.2067
23618SOL     OW75791   8.294  11.535   3.162  0.3228  0.2800  0.4092
23618SOL    HW175792   8.228  11.554   3.229  0.1538  0.3137  0.2351
23618SOL    HW275793   8.246  11.541   3.079  0.1333 -1.3495  0.3590
23619SOL     OW75794   6.879   6.492   3.083 -0.1749 -0.7381 -0.1233
23619SOL    HW175795   6.843   6.463   2.999 -0.4627  0.7669 -0.5507
23619SOL    HW275796   6.869   6.417   3.141  0.8266 -2.1208 -1.6517
23620SOL     OW75797   2.660   0.583   9.133 -0.1110  0.1012  0.5228
23620SOL    HW175798   2.671   0.509   9.074  0.0455 -1.2859  2.2127
23620SOL    HW275799   2.745   0.627   9.133  1.0263 -1.9216  2.2754
23621SOL     OW75800   6.803   5.831   7.989 -0.4698  1.3010  0.2914
23621SOL    HW175801   6.791   5.750   8.038 -2.4372  1.8138  0.7548
23621SOL    HW275802   6.896   5.833   7.968 -0.4327 -1.3193 -0.1806
23622SOL     OW75803   6.187   1.721   3.168  0.2797 -0.6665  0.4835
23622SOL    HW175804   6.250   1.778   3.125 -0.5703 -1.3354 -1.8371
23622SOL    HW275805   6.118   1.780   3.198  0.9468 -0.1630  1.0463
23623SOL     OW75806   3.913   1.021  10.748  0.3660 -0.1943  0.0480
23623SOL    HW175807   3.845   0.971  10.704  1.0385 -0.5326 -0.6305
23623SOL    HW275808   3.944   1.083  10.682  1.2414 -0.5656  0.0949
23624SOL     OW75809   3.298   7.862   3.788  0.0665  0.2797 -0.6463
23624SOL    HW175810   3.234   7.898   3.849  1.6683  2.3597 -0.0460
23624SOL    HW275811   3.359   7.813   3.843 -0.9644 -1.7107 -1.2146
23625SOL     OW75812   5.802  10.284   1.770 -0.5231  0.1649 -0.6183
23625SOL    HW175813   5.895  10.269   1.791 -0.4746  2.6579  1.4407
23625SOL    HW275814   5.796  10.378   1.755 -2.9506  0.3115  0.7692
23626SOL     OW75815   4.854   6.185   7.016  0.2352  0.4135 -0.5953
23626SOL    HW175816   4.843   6.197   7.111  0.1152 -1.8290 -0.2823
23626SOL    HW275817   4.911   6.109   7.008 -1.2404 -0.5689 -2.3376
23627SOL     OW75818   2.730  11.666   8.012  0.5574 -0.3368 -0.0808
23627SOL    HW175819   2.722  11.754   7.974 -1.3828 -0.9680 -1.3040
23627SOL    HW275820   2.668  11.665   8.084 -0.7156 -1.1736 -1.1346
23628SOL     OW75821  10.489   8.626   2.052 -0.0784  0.6746 -0.0659
23628SOL    HW175822  10.435   8.554   2.019  0.1623  0.4358  0.0627
23628SOL    HW275823  10.489   8.690   1.980  0.3708  0.1984 -0.5019
23629SOL     OW75824   0.414   2.260   3.840 -0.0404  0.3096 -0.2515
23629SOL    HW175825   0.407   2.175   3.795 -4.1531  0.5088 -0.3935
23629SOL    HW275826   0.429   2.237   3.932 -0.9071 -0.6300 -0.3229
23630SOL     OW75827   6.294   7.977   5.865 -0.0158  0.7049 -0.0831
23630SOL    HW175828   6.230   7.996   5.796  0.3843  2.0198 -0.1283
23630SOL    HW275829   6.290   7.883   5.876 -0.4873  0.5218 -1.5300
23631SOL     OW75830   2.360   3.602   1.610  0.0764  0.4847  0.3690
23631SOL    HW175831   2.341   3.516   1.647  0.3773  0.1603 -0.2112
23631SOL    HW275832   2.428   3.639   1.667  1.3179 -0.4559 -0.4419
23632SOL     OW75833   1.929   2.780   5.746  0.1154  0.0550 -0.2828
23632SOL    HW175834   1.948   2.775   5.653  0.5225  1.4741 -0.3084
23632SOL    HW275835   1.839   2.748   5.754 -0.0941  0.3739 -1.2315
23633SOL     OW75836   9.038   9.093   1.705 -0.4803  0.4530  0.1551
23633SOL    HW175837   9.016   9.076   1.797 -2.2103  0.4042 -0.2401
23633SOL    HW275838   9.102   9.163   1.709  0.3439 -0.3154  1.4376
23634SOL     OW75839   9.824  11.140   7.182 -0.0501  0.0218  0.2000
23634SOL    HW175840   9.838  11.145   7.276 -1.4014  0.0605  0.4199
23634SOL    HW275841   9.882  11.206   7.145 -0.0753  0.5443  1.0788
23635SOL     OW75842   4.627  10.115   7.729  0.1520 -0.4129 -0.0599
23635SOL    HW175843   4.713  10.103   7.768  0.6922  3.3312  0.2899
23635SOL    HW275844   4.643  10.117   7.634  0.1546 -1.2726 -0.0869
23636SOL     OW75845   6.835   1.690   2.770  0.0222 -0.3997  0.2824
23636SOL    HW175846   6.769   1.668   2.705 -0.1246 -0.8414  0.5750
23636SOL    HW275847   6.842   1.611   2.824  1.5274 -0.7494 -0.3656
23637SOL     OW75848   9.575   0.481   1.889  0.2657  0.7876 -0.3349
23637SOL    HW175849   9.564   0.393   1.926 -0.7337  0.5368 -1.1934
23637SOL    HW275850   9.641   0.522   1.945  0.6919 -0.4762  0.1283
23638SOL     OW75851   1.037   3.460   0.384  0.2119 -0.0009  0.3514
23638SOL    HW175852   0.979   3.506   0.324  2.4855  0.8011 -1.4041
23638SOL    HW275853   1.045   3.518   0.459 -0.3043  0.4229  0.0859
23639SOL     OW75854   0.740   2.761   6.439  0.0193  0.0298 -0.3551
23639SOL    HW175855   0.753   2.778   6.532 -2.4890 -2.4358  0.5511
23639SOL    HW275856   0.655   2.800   6.419 -0.0720 -0.6042 -1.2590
23640SOL     OW75857   9.329   3.324   7.748  0.3511  0.3686 -0.3885
23640SOL    HW175858   9.295   3.409   7.721 -0.6966  0.7241  1.7844
23640SOL    HW275859   9.386   3.296   7.676 -1.8226  1.3721 -2.6248
23641SOL     OW75860   6.597  10.049   5.316  0.0733 -0.0633  0.1539
23641SOL    HW175861   6.627  10.139   5.302 -1.2092  0.3297 -0.1642
23641SOL    HW275862   6.668  10.008   5.367  0.2431  1.3966  1.1501
23642SOL     OW75863   0.701  10.300   5.551  0.5330 -0.2459  0.7836
23642SOL    HW175864   0.711  10.223   5.495  2.6197  1.3609 -1.2569
23642SOL    HW275865   0.613  10.332   5.531 -0.5812 -2.3007  2.0568
23643SOL     OW75866   0.383   9.798   0.634 -0.2472 -0.0470  0.3501
23643SOL    HW175867   0.344   9.740   0.699 -1.3723  0.1084 -0.1538
23643SOL    HW275868   0.370   9.886   0.669 -0.3106  0.0053  0.1954
23644SOL     OW75869   6.417   3.130   5.941 -0.1448 -0.1215 -0.6232
23644SOL    HW175870   6.488   3.190   5.966  0.1401 -1.2493  1.4454
23644SOL    HW275871   6.462   3.052   5.909 -0.5029  0.0446 -1.5601
23645SOL     OW75872  10.280   8.942  10.420 -0.1065 -0.3513 -0.4607
23645SOL    HW175873  10.227   9.020  10.433  0.2758  0.0984 -1.4518
23645SOL    HW275874  10.218   8.875  10.390 -0.1755  0.0901 -1.3379
23646SOL     OW75875   1.066   7.829   7.484 -0.0830  0.2480  0.3016
23646SOL    HW175876   1.067   7.897   7.552  0.6736 -0.2855  0.8353
23646SOL    HW275877   0.982   7.841   7.439 -0.1548  1.2417  0.6827
23647SOL     OW75878   6.743   9.004   6.138 -0.2106  0.1629 -0.6941
23647SOL    HW175879   6.735   9.099   6.139 -0.3001  0.1882  1.9217
23647SOL    HW275880   6.708   8.976   6.223  0.2326 -2.1704 -1.2135
23648SOL     OW75881   6.078   9.079   9.280 -0.2063 -0.3653 -0.1561
23648SOL    HW175882   6.029   9.133   9.342  1.1422  0.6137  0.1197
23648SOL    HW275883   6.161   9.061   9.325  0.3450 -0.5812 -1.2237
23649SOL     OW75884   7.108   6.918   8.927 -0.0369 -0.6800  0.3375
23649SOL    HW175885   7.171   6.897   8.859  0.3710  0.6646  0.2792
23649SOL    HW275886   7.144   6.995   8.972 -2.2332  1.0048 -0.5761
23650SOL     OW75887   5.180   9.840   7.145  0.3565  0.4949  0.4909
23650SOL    HW175888   5.149   9.820   7.057  0.9095 -0.7552  0.5530
23650SOL    HW275889   5.109   9.889   7.186  0.6925  2.4332 -1.1344
23651SOL     OW75890   2.943   0.401   8.224  0.3268 -0.3646  0.3450
23651SOL    HW175891   2.886   0.325   8.233  0.8992 -0.7878  0.4863
23651SOL    HW275892   2.889   0.468   8.183 -0.5828 -0.3972  1.4372
23652SOL     OW75893   4.674   0.666   5.190  0.1418 -0.2151 -0.2397
23652SOL    HW175894   4.748   0.624   5.233  0.8297  1.1274 -0.0443
23652SOL    HW275895   4.711   0.746   5.152 -1.1760  0.3962 -0.2836
23653SOL     OW75896   3.910   5.504   6.475  0.2495 -0.3070  0.0983
23653SOL    HW175897   3.857   5.467   6.546 -2.0423 -2.4970 -2.5005
23653SOL    HW275898   3.967   5.432   6.447 -0.8182 -0.4407 -1.9461
23654SOL     OW75899   8.806   4.296   7.704  0.2221  0.5990 -0.0084
23654SOL    HW175900   8.749   4.334   7.638 -0.2214 -0.6170 -0.3523
23654SOL    HW275901   8.855   4.370   7.739 -0.6763  1.4829 -0.5767
23655SOL     OW75902   1.148  10.105   3.385  0.0241 -0.1447 -0.1662
23655SOL    HW175903   1.233  10.099   3.428  0.7383  0.3629 -1.4531
23655SOL    HW275904   1.094  10.157   3.445  0.9671  0.4814  0.1623
23656SOL     OW75905   1.670   1.569   2.174 -1.4143  0.1397  0.2480
23656SOL    HW175906   1.686   1.605   2.261  1.9610  0.5537 -0.4073
23656SOL    HW275907   1.720   1.487   2.173 -1.2381  0.2365 -1.3124
23657SOL     OW75908   3.804   8.304   8.048  0.3585  0.3914  0.3623
23657SOL    HW175909   3.732   8.253   8.085  0.9042 -1.2221 -0.6832
23657SOL    HW275910   3.783   8.310   7.954  1.2893  0.3826  0.1400
23658SOL     OW75911   2.597   8.006   3.362 -0.0873  0.0203 -0.2967
23658SOL    HW175912   2.631   7.934   3.416  0.8007  0.9802  0.4652
23658SOL    HW275913   2.502   8.002   3.375  0.1346  0.7841  2.1347
23659SOL     OW75914   2.484  10.315   1.985 -0.0133 -0.5504 -1.3162
23659SOL    HW175915   2.507  10.294   1.894  0.8671  0.4204 -1.3375
23659SOL    HW275916   2.568  10.317   2.031 -0.2268  1.1210 -0.9521
23660SOL     OW75917   0.833   4.106   0.792 -0.1327  0.0028 -0.3436
23660SOL    HW175918   0.755   4.078   0.745 -0.8930  1.8883 -0.2941
23660SOL    HW275919   0.881   4.159   0.728  0.5680 -0.2353 -0.0272
23661SOL     OW75920   7.907   5.273   5.571  0.1921 -0.1476 -0.7121
23661SOL    HW175921   7.941   5.314   5.650  2.3280 -1.8547 -0.6401
23661SOL    HW275922   7.874   5.345   5.517  0.0190  1.1761  1.0917
23662SOL     OW75923   7.113   1.309   3.632  0.3307  0.5172  0.6050
23662SOL    HW175924   7.204   1.328   3.610  0.8872  0.3961  2.5726
23662SOL    HW275925   7.068   1.392   3.622  0.3124  0.2782 -1.7630
23663SOL     OW75926  10.871   4.242   6.408  0.2430 -0.3823 -0.3712
23663SOL    HW175927  10.862   4.205   6.496 -2.4607  1.4798  0.2689
23663SOL    HW275928  10.898   4.332   6.423 -1.8937  0.4647 -1.2717
23664SOL     OW75929   0.260   8.778   1.999  0.1040  0.2031 -0.5859
23664SOL    HW175930   0.306   8.700   1.969  2.4014  0.5762  1.6160
23664SOL    HW275931   0.178   8.746   2.035  1.5442 -1.5045  1.4471
23665SOL     OW75932   1.250   8.997   5.337 -0.1348  0.9900  0.5840
23665SOL    HW175933   1.230   8.910   5.373 -0.5792  0.6921 -0.3478
23665SOL    HW275934   1.215   8.994   5.248  0.2760  1.9665  0.3834
23666SOL     OW75935   7.459   1.372   7.369  0.0737 -0.2933  0.7293
23666SOL    HW175936   7.514   1.293   7.364  0.7674  0.1508  1.2190
23666SOL    HW275937   7.410   1.361   7.451  1.1008  0.3684  1.4491
23667SOL     OW75938   1.125  10.923   1.915  0.4322 -0.1873 -0.9628
23667SOL    HW175939   1.083  10.857   1.860  0.4917 -0.1649 -1.0357
23667SOL    HW275940   1.187  10.873   1.969 -0.5582 -0.3906  0.0333
23668SOL     OW75941   1.659   7.498   8.264 -0.2363 -0.4185 -0.2094
23668SOL    HW175942   1.683   7.417   8.309  2.5451  0.5027  0.1657
23668SOL    HW275943   1.668   7.478   8.171 -4.1195 -1.7682 -0.4517
23669SOL     OW75944   4.374   9.689   2.270  0.0900  0.0020  0.2211
23669SOL    HW175945   4.352   9.620   2.332  1.3228 -0.1395  0.5287
23669SOL    HW275946   4.306   9.755   2.281  1.8106  1.4188  3.9271
23670SOL     OW75947   6.144   8.238   6.275 -0.4286  0.3471 -0.1902
23670SOL    HW175948   6.158   8.196   6.190 -0.5964  1.0993 -0.6016
23670SOL    HW275949   6.049   8.250   6.280 -0.3094  1.6426 -0.5738
23671SOL     OW75950   1.215   0.471   5.493  0.8370  0.0670  0.3137
23671SOL    HW175951   1.170   0.477   5.409  0.3001 -1.7582  0.4299
23671SOL    HW275952   1.308   0.481   5.471  0.6529  0.3217 -0.3846
23672SOL     OW75953   4.133   9.750   2.746  0.7058  0.0794  0.3673
23672SOL    HW175954   4.205   9.715   2.797  1.0170  1.0022  0.5765
23672SOL    HW275955   4.147   9.844   2.746 -0.8477  0.3389  0.9433
23673SOL     OW75956   4.129   2.796   0.540 -0.1538  0.2620  0.3083
23673SOL    HW175957   4.168   2.870   0.587 -0.2634  0.2968  0.3465
23673SOL    HW275958   4.196   2.729   0.540 -0.9933 -0.6951  2.7628
23674SOL     OW75959   5.936   5.074   1.114 -0.0402 -0.1210  0.0033
23674SOL    HW175960   6.029   5.085   1.133 -0.3990  1.7157  0.8525
23674SOL    HW275961   5.905   5.161   1.092 -1.2365 -0.9725 -1.9652
23675SOL     OW75962  10.945   6.058  10.370 -0.6118 -0.4794  0.3258
23675SOL    HW175963  10.914   6.118  10.438  0.6178 -1.0300  1.4175
23675SOL    HW275964  10.865   6.016  10.337 -1.2696  0.0431  1.1961
23676SOL     OW75965   2.967   7.868   2.310 -0.5775 -0.0942 -0.1704
23676SOL    HW175966   3.030   7.810   2.353  0.2588 -0.1827 -1.4557
23676SOL    HW275967   2.886   7.818   2.309 -0.2309 -0.6785 -0.0139
23677SOL     OW75968   4.784   9.809   3.488  0.2779 -0.2942  0.2434
23677SOL    HW175969   4.778   9.904   3.503 -0.9060 -0.5056  1.2911
23677SOL    HW275970   4.864   9.783   3.534 -0.4097 -0.0777  1.5977
23678SOL     OW75971   7.922  10.956  11.228  0.1792  0.1337 -0.4737
23678SOL    HW175972   7.869  10.983  11.303 -0.6291 -0.0916 -0.9601
23678SOL    HW275973   7.914  11.028  11.166 -0.9355 -0.6231 -1.2410
23679SOL     OW75974   7.403   7.141   1.252  0.0969 -0.4124 -0.3973
23679SOL    HW175975   7.363   7.214   1.299 -1.0883 -1.2230 -0.1056
23679SOL    HW275976   7.494   7.168   1.239 -0.8734  2.2510 -2.6047
23680SOL     OW75977   6.560   8.217   9.250  0.3187 -0.3490  0.2002
23680SOL    HW175978   6.565   8.204   9.156 -0.0774 -0.3038  0.1684
23680SOL    HW275979   6.547   8.311   9.261  2.0641 -0.1025  0.3817
23681SOL     OW75980   9.316   3.824  10.608 -0.2140  0.3927 -0.1732
23681SOL    HW175981   9.303   3.842  10.702 -0.2173 -0.9096  0.0916
23681SOL    HW275982   9.362   3.901  10.575  0.2177  0.6606  1.0068
23682SOL     OW75983   0.602   4.544  11.366  0.2080 -0.4078 -0.4383
23682SOL    HW175984   0.601   4.613  11.300  1.6820  1.1187  1.0180
23682SOL    HW275985   0.512   4.512  11.369 -0.6856  1.8677 -0.7854
23683SOL     OW75986   2.442   4.195   9.496 -0.4716  0.2809 -0.2166
23683SOL    HW175987   2.464   4.155   9.580 -1.1816 -1.3608 -0.7738
23683SOL    HW275988   2.393   4.274   9.519 -1.6477 -0.7386  0.9122
23684SOL     OW75989  11.665   7.200   1.486 -0.0760  0.0498  0.1591
23684SOL    HW175990  11.591   7.176   1.541  0.4609  0.0461  0.9058
23684SOL    HW275991  11.738   7.210   1.547  0.6379 -0.3439 -0.5976
23685SOL     OW75992   8.090   0.890   5.368 -0.0622  0.2293 -0.0869
23685SOL    HW175993   8.136   0.863   5.447 -0.9348 -0.7598  0.1139
23685SOL    HW275994   8.014   0.832   5.364 -1.6360  2.1739 -0.0602
23686SOL     OW75995   1.486   3.809   3.048 -0.2842  0.5915  0.0498
23686SOL    HW175996   1.492   3.783   2.956  0.1954  0.5832  0.0840
23686SOL    HW275997   1.575   3.800   3.082 -0.6606 -0.5093  0.8130
23687SOL     OW75998   6.425   6.118   9.007 -0.5404  0.0306 -1.3548
23687SOL    HW175999   6.507   6.165   8.992  0.7209 -1.7142 -0.3081
23687SOL    HW276000   6.391   6.101   8.919  0.7729 -0.1226 -1.8575
23688SOL     OW76001   2.761   1.495   9.692  0.1230  1.2109 -0.2182
23688SOL    HW176002   2.817   1.420   9.710 -1.5932  0.1164  0.7895
23688SOL    HW276003   2.762   1.504   9.597  1.9788  1.2369 -0.2238
23689SOL     OW76004   3.359   0.479   4.386 -0.1692 -0.1247  0.2628
23689SOL    HW176005   3.409   0.530   4.450 -1.9153 -0.2625  1.8162
23689SOL    HW276006   3.352   0.392   4.425 -1.7511 -0.0566  0.1830
23690SOL     OW76007   1.477  11.024   1.019  0.0148 -0.3632  0.5447
23690SOL    HW176008   1.557  11.072   1.037 -0.3410  1.0324 -1.2246
23690SOL    HW276009   1.410  11.092   1.007 -0.6373 -1.2628 -1.5242
23691SOL     OW76010   9.507   7.611   4.643 -0.2289 -0.6591 -0.2428
23691SOL    HW176011   9.603   7.612   4.649 -0.2229 -0.5828 -0.3571
23691SOL    HW276012   9.484   7.519   4.654 -0.1407 -0.6797 -0.2286
23692SOL     OW76013   9.590   8.683   7.032 -0.0484 -0.0099  0.0626
23692SOL    HW176014   9.518   8.746   7.038 -0.2175 -0.2838  1.2851
23692SOL    HW276015   9.648   8.706   7.105  0.1215 -0.9655  0.2440
23693SOL     OW76016  10.306   2.555   9.509  0.4469  0.0242  0.1851
23693SOL    HW176017  10.373   2.560   9.577  1.4725 -0.8716 -0.7330
23693SOL    HW276018  10.300   2.644   9.475  1.4113  0.0564  0.0675
23694SOL     OW76019   1.823   1.324   3.967  0.3178  0.3485 -0.2599
23694SOL    HW176020   1.912   1.309   3.936  1.4813  1.4148  2.2508
23694SOL    HW276021   1.812   1.419   3.964 -0.5020  0.2779  0.1005
23695SOL     OW76022   8.086   4.068   0.375 -0.0911 -0.4710  0.1769
23695SOL    HW176023   8.162   4.045   0.321 -0.0815  0.6639 -0.3278
23695SOL    HW276024   8.012   4.029   0.331 -0.1337  0.7672 -0.9162
23696SOL     OW76025   3.507   5.388   1.873 -0.1849  0.1073 -0.2313
23696SOL    HW176026   3.469   5.300   1.875  0.4941 -0.2006 -0.3847
23696SOL    HW276027   3.582   5.379   1.814 -0.2340  0.8443 -0.4112
23697SOL     OW76028   2.023   6.167  10.642  0.0960  0.9198 -0.0441
23697SOL    HW176029   2.071   6.195  10.564  0.4194  0.4542 -0.0132
23697SOL    HW276030   2.061   6.218  10.713  2.3973 -1.2598  0.4441
23698SOL     OW76031   7.565   4.819   1.144 -0.0752 -0.2125 -0.3267
23698SOL    HW176032   7.563   4.725   1.160 -0.6762 -0.3859 -1.3317
23698SOL    HW276033   7.652   4.835   1.107  0.2428 -0.2720  0.3814
23699SOL     OW76034   0.866   2.789   1.726  0.0586 -0.3442  0.1039
23699SOL    HW176035   0.781   2.792   1.769 -0.2885 -0.9289 -0.5192
23699SOL    HW276036   0.917   2.725   1.776  0.9682  1.6484  1.8972
23700SOL     OW76037   6.613   3.176   9.462  0.3710 -0.0882  0.2064
23700SOL    HW176038   6.558   3.159   9.385 -0.1790  1.2581  0.2728
23700SOL    HW276039   6.693   3.212   9.426 -0.1225  1.1115  0.2791
23701SOL     OW76040   3.648   8.067   6.081  0.2540  0.3421 -0.0194
23701SOL    HW176041   3.739   8.039   6.092 -0.1840 -0.6450  1.2455
23701SOL    HW276042   3.631   8.124   6.156 -0.4888 -0.3430  0.3377
23702SOL     OW76043   2.460  10.755   4.696  0.1964 -0.1138 -0.3153
23702SOL    HW176044   2.522  10.797   4.635 -0.8534  0.6853 -0.8764
23702SOL    HW276045   2.374  10.777   4.661 -0.4159 -2.0555 -0.1171
23703SOL     OW76046   8.271   9.756   5.151  0.2840  0.2626 -0.5652
23703SOL    HW176047   8.309   9.817   5.088 -1.5963  0.2352 -1.7634
23703SOL    HW276048   8.201   9.805   5.193 -0.6580 -0.7703 -0.8898
23704SOL     OW76049   2.984   4.602   3.959 -0.2184 -0.2562  0.1884
23704SOL    HW176050   2.979   4.564   3.872  0.4184 -0.8921  0.4222
23704SOL    HW276051   2.975   4.696   3.944 -1.8372 -0.4783 -0.3881
23705SOL     OW76052  10.613   4.964   0.301  0.8041  0.3246  0.3957
23705SOL    HW176053  10.582   5.040   0.351 -1.1082  1.1808 -1.8798
23705SOL    HW276054  10.679   5.000   0.242 -0.6296  0.4891 -1.2074
23706SOL     OW76055  10.883   0.696   3.518  0.6997  0.4564  0.1165
23706SOL    HW176056  10.854   0.786   3.534  1.9237  0.5583  2.0144
23706SOL    HW276057  10.891   0.690   3.423 -1.5370  1.6393 -0.2211
23707SOL     OW76058  10.883  11.453   1.257 -0.1029 -0.1084 -0.2447
23707SOL    HW176059  10.804  11.467   1.205 -1.0029  0.0532  1.1042
23707SOL    HW276060  10.909  11.363   1.238 -0.2138  0.0547 -1.2039
23708SOL     OW76061   0.979   6.554   7.149  0.1062 -0.1659  0.3274
23708SOL    HW176062   0.975   6.645   7.118  0.1923 -0.8713 -1.9810
23708SOL    HW276063   0.937   6.556   7.235 -1.3239  1.8073 -0.3336
23709SOL     OW76064   4.776   3.091  10.480 -0.4017  0.3108  0.1744
23709SOL    HW176065   4.728   3.109  10.399  0.6756 -0.3916 -0.6466
23709SOL    HW276066   4.764   2.997  10.495  2.3983 -0.4007 -1.2542
23710SOL     OW76067   9.385   8.572  11.211  0.1548 -0.0325 -0.2462
23710SOL    HW176068   9.411   8.486  11.243  0.4304  0.8710  2.1452
23710SOL    HW276069   9.289   8.571  11.215  0.0131 -0.8644 -2.2143
23711SOL     OW76070   7.664   6.474  10.351  0.1495 -0.4413 -0.0566
23711SOL    HW176071   7.750   6.480  10.308 -0.4817 -1.1055 -1.4599
23711SOL    HW276072   7.601   6.490  10.281 -0.9248 -1.5753  0.6165
23712SOL     OW76073   0.052   4.513   5.505 -0.1765  0.0321  0.0283
23712SOL    HW176074   0.136   4.466   5.503 -0.5642 -0.6513 -1.4897
23712SOL    HW276075   0.021   4.501   5.595  1.4860  0.5779  0.7258
23713SOL     OW76076  10.184   8.367   8.789 -0.3244 -0.0944  0.1907
23713SOL    HW176077  10.166   8.299   8.724 -0.7413  0.7477 -0.6011
23713SOL    HW276078  10.271   8.346   8.822  0.6596  0.3983 -1.8942
23714SOL     OW76079  10.507  10.085  11.372 -0.6672  0.7536 -0.0293
23714SOL    HW176080  10.528  10.037  11.452 -1.1868  1.0560  0.2978
23714SOL    HW276081  10.420  10.053  11.347 -0.5429  0.7176 -0.4351
23715SOL     OW76082  10.314   8.854   7.258  0.1846  0.5181 -0.0664
23715SOL    HW176083  10.354   8.880   7.175 -2.8144  0.6440 -1.5797
23715SOL    HW276084  10.290   8.937   7.299  1.0089  0.4251  0.6434
23716SOL     OW76085   7.606   9.878   2.345 -0.3734 -0.5949  0.0623
23716SOL    HW176086   7.678   9.859   2.404 -1.4953 -1.3991  1.2413
23716SOL    HW276087   7.530   9.834   2.385 -1.7697  1.1879 -0.4858
23717SOL     OW76088   8.678   1.076   9.305 -0.1976 -0.7726 -0.4164
23717SOL    HW176089   8.640   1.079   9.217 -1.9871 -0.6837  0.3356
23717SOL    HW276090   8.615   1.027   9.357  2.2076 -3.5026  0.2040
23718SOL     OW76091  11.066   4.010   5.741 -0.0461 -0.1228 -0.0629
23718SOL    HW176092  10.979   3.975   5.760  0.9010 -2.6088  0.0021
23718SOL    HW276093  11.062   4.036   5.649 -0.9771  0.2454  0.0711
23719SOL     OW76094   2.192   1.417  10.959  0.2098  0.2570 -0.3148
23719SOL    HW176095   2.285   1.393  10.950  0.3313  0.7661 -0.4397
23719SOL    HW276096   2.152   1.389  10.877  0.3591  0.5296 -0.4790
23720SOL     OW76097   1.789   6.589   5.719 -0.2861 -0.2474  0.7578
23720SOL    HW176098   1.858   6.621   5.777  0.1396 -0.4610  0.3753
23720SOL    HW276099   1.753   6.512   5.764 -0.7652  0.2805  1.2951
23721SOL     OW76100   1.906   3.277   3.427  0.0683  0.0807 -0.1460
23721SOL    HW176101   1.950   3.282   3.342 -1.8909  1.3464 -1.1467
23721SOL    HW276102   1.813   3.273   3.406 -0.4790  0.5270  1.9529
23722SOL     OW76103   5.552   2.403   3.605  0.1258  0.3577 -0.0057
23722SOL    HW176104   5.481   2.408   3.541  0.1015  1.8066  0.0890
23722SOL    HW276105   5.629   2.382   3.553 -0.2381 -0.5092 -0.2105
23723SOL     OW76106   3.109   3.028   6.596 -0.0811 -0.0016 -0.5590
23723SOL    HW176107   3.033   3.086   6.603  0.6098  0.7668  1.2091
23723SOL    HW276108   3.169   3.075   6.537 -0.3449  0.1295 -0.7248
23724SOL     OW76109   3.299   5.645  10.554 -0.1948  0.4464 -0.0180
23724SOL    HW176110   3.258   5.574  10.504 -0.0273 -0.3783  0.9794
23724SOL    HW276111   3.393   5.632  10.543 -0.0992  2.5734 -2.6327
23725SOL     OW76112   5.278   3.524   5.426 -0.2317  0.1266  0.3695
23725SOL    HW176113   5.297   3.566   5.342  0.5480  0.4085  0.6732
23725SOL    HW276114   5.266   3.432   5.404 -0.3436  0.2487 -0.0946
23726SOL     OW76115  11.570   0.231   9.580  0.0330 -0.4377 -0.4428
23726SOL    HW176116  11.489   0.262   9.538 -0.1705 -1.4821 -0.8612
23726SOL    HW276117  11.548   0.225   9.673 -0.4844 -1.0329 -0.5978
23727SOL     OW76118   7.691   8.051   8.200  0.2446 -0.0942 -0.2446
23727SOL    HW176119   7.615   8.011   8.242  0.3863  1.0753  1.1796
23727SOL    HW276120   7.662   8.139   8.175  1.4655  0.8447  1.4841
23728SOL     OW76121  10.808   7.799  11.560 -0.6198 -0.5226 -0.6094
23728SOL    HW176122  10.764   7.879  11.531  1.6324  0.7839 -0.6326
23728SOL    HW276123  10.752   7.766  11.630 -2.6921 -0.1185 -1.9752
23729SOL     OW76124   1.248  11.030   5.989 -0.0753 -0.2577  0.3578
23729SOL    HW176125   1.214  11.085   6.060  0.4991  0.5090  0.0569
23729SOL    HW276126   1.274  10.949   6.031  0.8076  0.4088  1.1305
23730SOL     OW76127   4.093   1.813   2.027  0.1874 -0.1294  0.2230
23730SOL    HW176128   4.185   1.831   2.048 -0.1728  2.3766 -0.0757
23730SOL    HW276129   4.046   1.829   2.108 -0.1585  0.0960 -0.0211
23731SOL     OW76130  10.208   4.056   2.317 -0.0350  0.1223 -0.6268
23731SOL    HW176131  10.175   3.994   2.252 -0.7231  0.9670 -1.1093
23731SOL    HW276132  10.256   4.121   2.266  1.4288 -0.4553 -0.0388
23732SOL     OW76133   0.617   9.266   8.478 -0.1228  0.3670  0.3787
23732SOL    HW176134   0.659   9.182   8.493 -0.4185  0.0820 -0.3370
23732SOL    HW276135   0.542   9.267   8.537 -2.1570 -1.3762 -1.9340
23733SOL     OW76136  10.432   9.775   6.903  0.7031 -0.0504 -0.1077
23733SOL    HW176137  10.357   9.768   6.962  1.1435 -0.8681  0.3737
23733SOL    HW276138  10.448   9.869   6.896 -0.9998  0.2066 -1.0519
23734SOL     OW76139   1.186   6.230   6.071  0.2248 -0.1811 -0.0129
23734SOL    HW176140   1.139   6.247   6.152 -1.2152 -0.9816 -0.6382
23734SOL    HW276141   1.251   6.164   6.094  0.9440  0.8080  0.8325
23735SOL     OW76142   9.391  10.091   6.530 -0.4283  0.3684 -0.1192
23735SOL    HW176143   9.403  10.057   6.441  1.3380 -1.0655  0.6041
23735SOL    HW276144   9.344  10.021   6.576  0.9398 -0.0306  0.7141
23736SOL     OW76145   7.728  10.547   8.468 -0.5344 -0.1397  0.7304
23736SOL    HW176146   7.823  10.555   8.473 -0.2842 -0.2526 -2.2952
23736SOL    HW276147   7.695  10.630   8.502  0.8006  1.1412 -0.9307
23737SOL     OW76148   9.439   4.795   7.977  0.2393 -1.0514 -0.4246
23737SOL    HW176149   9.458   4.713   8.022  1.9063 -0.0254  0.8524
23737SOL    HW276150   9.503   4.799   7.906  1.8731  0.2632  1.0539
23738SOL     OW76151  11.045   2.555   4.419  0.4673 -0.6200  0.1699
23738SOL    HW176152  10.985   2.519   4.484 -0.7762 -1.8163 -1.5591
23738SOL    HW276153  11.132   2.524   4.448 -0.0081 -0.8578  1.4090
23739SOL     OW76154   1.827  11.345   2.898  1.0906 -0.1131  0.3222
23739SOL    HW176155   1.767  11.341   2.974 -0.2399  0.0413 -0.6814
23739SOL    HW276156   1.794  11.278   2.839 -0.6612  2.5968 -2.0201
23740SOL     OW76157   0.161   7.387   9.994  0.0144 -0.5035  0.2800
23740SOL    HW176158   0.183   7.324  10.063  0.5855 -2.4409 -1.5809
23740SOL    HW276159   0.203   7.353   9.915 -2.6153  0.2728 -1.6033
23741SOL     OW76160   8.706   6.418   0.093 -0.4161 -0.5673 -0.0670
23741SOL    HW176161   8.729   6.383   0.007 -0.1556 -0.1786 -0.1591
23741SOL    HW276162   8.615   6.446   0.083 -0.1144  0.2958 -0.4888
23742SOL     OW76163   8.941   9.419   0.831  0.2732 -0.2031  0.1579
23742SOL    HW176164   8.958   9.479   0.759 -0.6260 -0.2363 -0.1042
23742SOL    HW276165   8.989   9.455   0.905  0.2963  0.4536 -0.1736
23743SOL     OW76166   2.664   3.604   7.168  0.0165 -0.0041 -0.0532
23743SOL    HW176167   2.631   3.579   7.255  1.4743 -0.3771  0.4313
23743SOL    HW276168   2.756   3.628   7.184  0.3392 -0.1847 -1.5164
23744SOL     OW76169   8.024  10.071   2.462 -0.3988  0.1110 -0.1891
23744SOL    HW176170   8.095  10.117   2.416 -0.8850 -0.4323 -1.5227
23744SOL    HW276171   7.945  10.097   2.415 -0.6372 -2.4923 -1.3724
23745SOL     OW76172   6.253   3.251   1.904  0.4136  0.6736  0.0865
23745SOL    HW176173   6.248   3.163   1.941 -2.9514  0.3345 -0.9025
23745SOL    HW276174   6.162   3.275   1.887  1.4212  3.0302 -2.6925
23746SOL     OW76175   9.009   8.237   9.087  0.2284  0.6413 -0.6664
23746SOL    HW176176   9.072   8.242   9.015  1.0815  0.5777  0.0582
23746SOL    HW276177   9.034   8.158   9.136 -0.3262  0.6966 -0.2790
23747SOL     OW76178   5.732   9.807   5.291 -0.0679  0.2753 -0.1708
23747SOL    HW176179   5.716   9.891   5.335  0.9934  0.2782  0.2099
23747SOL    HW276180   5.713   9.826   5.199 -0.3960  0.7805 -0.0073
23748SOL     OW76181   2.578   2.377   9.885 -0.0438  0.2176  0.1402
23748SOL    HW176182   2.577   2.331   9.801  0.7849  0.2350  0.1090
23748SOL    HW276183   2.545   2.313   9.948 -1.1402  0.3619 -0.2567
23749SOL     OW76184   4.067   2.585   9.464 -0.1886 -0.0041  0.2800
23749SOL    HW176185   4.081   2.597   9.370 -1.2469  0.5951  0.1827
23749SOL    HW276186   4.146   2.541   9.495 -0.3175 -1.3035 -1.1051
23750SOL     OW76187  10.046   7.823   1.506 -0.1879  0.4706  0.0666
23750SOL    HW176188  10.109   7.790   1.570 -0.3742  1.4480  0.7730
23750SOL    HW276189  10.000   7.893   1.551 -2.7118 -1.0515  0.0477
23751SOL     OW76190  11.435   9.319  10.379  0.6102 -0.8792 -0.2233
23751SOL    HW176191  11.474   9.362  10.455  1.6808 -2.1009 -0.0440
23751SOL    HW276192  11.495   9.338  10.307 -0.9024  1.1110 -1.0613
23752SOL     OW76193  10.467   4.291  11.298  0.7610  0.1799 -0.0436
23752SOL    HW176194  10.489   4.384  11.302 -0.2527  0.3928  1.2643
23752SOL    HW276195  10.424   4.281  11.213 -0.0110  1.1311  0.2143
23753SOL     OW76196   9.167   9.843   8.804  0.1532 -0.5803  0.6582
23753SOL    HW176197   9.100   9.798   8.856  0.7088  0.0378  1.9552
23753SOL    HW276198   9.215   9.896   8.868  0.6832  0.4354 -0.5410
23754SOL     OW76199   1.188   8.945   1.751  0.2248  0.0359  0.1493
23754SOL    HW176200   1.202   8.903   1.836 -0.6266 -0.3899  0.0824
23754SOL    HW276201   1.253   9.015   1.749  0.1345  0.1731  1.2338
23755SOL     OW76202   6.138   5.434   6.189 -0.2660 -0.5695 -0.0756
23755SOL    HW176203   6.056   5.386   6.178 -0.3453 -0.0712 -1.9612
23755SOL    HW276204   6.119   5.521   6.153  0.4130  0.3357  1.6123
23756SOL     OW76205   1.066  11.575   0.571 -0.1865  0.3559  0.0490
23756SOL    HW176206   1.077  11.480   0.581  0.1000  0.4329  0.4910
23756SOL    HW276207   0.991  11.584   0.512 -1.6299 -0.1308  1.7323
23757SOL     OW76208  11.207   5.821   0.047  0.4994 -0.1535 -0.1435
23757SOL    HW176209  11.253   5.845   0.128  0.0571  0.0758  0.0437
23757SOL    HW276210  11.239   5.733   0.026 -0.0499 -0.5924  0.7796
23758SOL     OW76211   0.801  10.633   2.802  0.3386  0.2502 -0.3273
23758SOL    HW176212   0.887  10.647   2.763  0.0487 -0.2545 -1.1575
23758SOL    HW276213   0.789  10.538   2.799  0.4076  0.1586  1.2182
23759SOL     OW76214   4.334   0.704   6.906  0.1368  0.4372  0.1944
23759SOL    HW176215   4.379   0.642   6.963  1.5061 -0.4610 -1.7276
23759SOL    HW276216   4.271   0.649   6.858 -1.8479  1.3770  1.6076
23760SOL     OW76217   2.873   6.558  11.510 -0.4767 -0.3077 -0.2672
23760SOL    HW176218   2.822   6.620  11.457  0.3168 -0.5822 -1.4078
23760SOL    HW276219   2.925   6.510  11.446  0.6284 -0.5740  0.7956
23761SOL     OW76220   2.570   3.932   7.499 -0.2951  0.1058  0.2155
23761SOL    HW176221   2.587   4.001   7.564 -1.8619  1.3466 -0.6285
23761SOL    HW276222   2.654   3.886   7.490  0.5411  1.3197  1.4669
23762SOL     OW76223   7.999   1.358  11.199 -0.1470  0.5300 -0.5592
23762SOL    HW176224   8.054   1.280  11.185 -0.1067 -0.0435  2.2610
23762SOL    HW276225   8.061   1.429  11.213 -0.1582  0.5182 -0.4488
23763SOL     OW76226   3.168   9.577   0.153 -0.1839 -0.4849 -0.6642
23763SOL    HW176227   3.122   9.546   0.231 -2.6667 -0.3355 -1.9739
23763SOL    HW276228   3.253   9.607   0.186 -1.3794  0.2061  2.0885
23764SOL     OW76229   6.647   8.147   2.049 -0.1703 -0.3867 -0.4215
23764SOL    HW176230   6.641   8.208   1.975  0.0010  0.1346 -0.0123
23764SOL    HW276231   6.559   8.147   2.086  0.3707  1.5143  1.0518
23765SOL     OW76232   5.552   8.339   4.331  0.6747 -0.1781  0.0889
23765SOL    HW176233   5.594   8.273   4.386  1.3455  0.3309  0.2017
23765SOL    HW276234   5.467   8.355   4.372  1.3336  0.5108  1.2374
23766SOL     OW76235   9.194   2.238  11.089  0.7252 -0.0424  0.0554
23766SOL    HW176236   9.243   2.174  11.141  1.8175  1.3424  0.7760
23766SOL    HW276237   9.180   2.312  11.147  0.6524  0.9299 -1.1614
23767SOL     OW76238   5.773   3.207   2.207 -0.7083  0.2962  0.9021
23767SOL    HW176239   5.779   3.161   2.291  1.0531  0.7603  1.0611
23767SOL    HW276240   5.792   3.140   2.141 -0.0898  0.3576  1.0121
23768SOL     OW76241   3.562  10.776   7.354  0.0193 -0.3700  0.1300
23768SOL    HW176242   3.607  10.838   7.412 -1.9292 -0.0984  1.4439
23768SOL    HW276243   3.480  10.820   7.332  0.4436 -0.7194 -2.4395
23769SOL     OW76244   9.099   0.875   2.008 -0.3194  0.3069 -0.0269
23769SOL    HW176245   9.036   0.824   1.958  0.8120 -0.2133 -0.9823
23769SOL    HW276246   9.159   0.809   2.044  0.4317  0.8687 -0.2234
23770SOL     OW76247   1.403  11.555   0.269  0.1626 -0.2550 -0.1819
23770SOL    HW176248   1.400  11.637   0.318  0.6222 -0.7487  0.6928
23770SOL    HW276249   1.353  11.573   0.189 -0.3842  0.6436  0.3473
23771SOL     OW76250   0.473  10.271   8.361  0.1475 -0.5227 -0.1860
23771SOL    HW176251   0.409  10.333   8.326 -1.5455 -1.7823  0.5103
23771SOL    HW276252   0.536  10.325   8.408 -1.9559  0.6703  1.4511
23772SOL     OW76253   2.988   6.339   5.930  0.0212 -0.4721  0.6597
23772SOL    HW176254   2.977   6.391   6.010  3.5127 -0.4516  1.2796
23772SOL    HW276255   3.030   6.400   5.868  2.4264 -1.8933  0.7591
23773SOL     OW76256   4.701   1.501   0.423  0.3629  0.2889 -0.1516
23773SOL    HW176257   4.712   1.505   0.518 -0.9719 -0.0210  0.0261
23773SOL    HW276258   4.646   1.576   0.401 -0.3343 -0.3208 -0.5231
23774SOL     OW76259   3.737   7.306   2.193  0.6974 -0.0303  0.0358
23774SOL    HW176260   3.734   7.269   2.281 -0.0465 -0.2380 -0.0725
23774SOL    HW276261   3.673   7.256   2.143  1.4232 -0.2062 -0.7439
23775SOL     OW76262  10.039   0.145  10.437  0.2201  0.0479  0.0266
23775SOL    HW176263   9.976   0.106  10.376 -0.2849  0.3792  0.3334
23775SOL    HW276264  10.121   0.098  10.420 -0.8897 -2.9192  2.0559
23776SOL     OW76265   8.805   8.948   2.734  0.1097  0.3619  0.0020
23776SOL    HW176266   8.861   8.971   2.808 -0.6140  0.8813  0.3931
23776SOL    HW276267   8.809   9.023   2.676 -0.3386  0.4871  0.1288
23777SOL     OW76268   4.553  10.507   0.748 -0.3514  0.3179  0.3401
23777SOL    HW176269   4.618  10.448   0.786 -0.0205  0.8200  0.5689
23777SOL    HW276270   4.470  10.482   0.789 -0.4992 -0.9755 -0.6692
23778SOL     OW76271   4.274   5.542   6.752 -0.4943  0.7240  0.6750
23778SOL    HW176272   4.367   5.561   6.737 -0.2169 -0.0418  1.3574
23778SOL    HW276273   4.230   5.579   6.676  0.6000 -0.8993 -0.8356
23779SOL     OW76274   6.704   9.794  10.408  0.0913 -0.6714  0.0698
23779SOL    HW176275   6.681   9.867  10.350 -1.2906 -2.3500 -1.6379
23779SOL    HW276276   6.653   9.809  10.487  0.8567  0.8831  0.3053
23780SOL     OW76277   9.117   4.943   9.981  0.0629 -0.3114 -0.3339
23780SOL    HW176278   9.150   4.891  10.054 -0.4612  0.2224  0.2907
23780SOL    HW276279   9.058   5.007  10.021 -0.4852 -0.2199 -1.2567
23781SOL     OW76280  11.109   0.383   6.514  0.3747 -0.1093  0.3423
23781SOL    HW176281  11.144   0.334   6.439 -1.1209  0.2141 -0.6184
23781SOL    HW276282  11.014   0.380   6.502  0.1355  0.5510  1.8645
23782SOL     OW76283   9.636   2.400   5.598  0.3050 -0.4462 -0.3147
23782SOL    HW176284   9.691   2.322   5.584 -1.6084 -1.6938 -1.3145
23782SOL    HW276285   9.699   2.471   5.611  2.1465 -2.2078  1.2050
23783SOL     OW76286   4.926   8.161   8.480  0.5031 -0.2996 -0.4625
23783SOL    HW176287   4.925   8.256   8.493 -0.1716 -0.2327 -0.9650
23783SOL    HW276288   5.012   8.133   8.513 -0.4056  0.0715  2.4443
23784SOL     OW76289  10.016   3.962   2.588  0.4983 -0.5482  0.2876
23784SOL    HW176290  10.082   3.994   2.526  0.3259  1.8149  1.1978
23784SOL    HW276291  10.065   3.949   2.670  0.1696 -0.5211  0.4883
23785SOL     OW76292  10.428   0.237   9.247  0.3389  0.0687  0.0223
23785SOL    HW176293  10.478   0.310   9.210  1.5122 -1.7101 -2.2345
23785SOL    HW276294  10.469   0.220   9.331 -1.3855  3.2854  1.6815
23786SOL     OW76295  11.326   9.611   8.968 -0.5238 -0.5605  0.2575
23786SOL    HW176296  11.383   9.688   8.972  1.9852 -2.2268 -0.8721
23786SOL    HW276297  11.368   9.547   9.026 -2.9676 -0.8986  1.7670
23787SOL     OW76298   0.098   1.562  11.215 -0.1668  0.3701 -0.3437
23787SOL    HW176299   0.129   1.651  11.227  0.5645  0.0008  0.6776
23787SOL    HW276300   0.161   1.508  11.262 -1.0265 -0.6188 -0.2748
23788SOL     OW76301   3.272   5.166   4.582 -0.3047 -0.0138  0.2268
23788SOL    HW176302   3.200   5.225   4.604  0.4821  2.0850 -2.3494
23788SOL    HW276303   3.348   5.203   4.626 -0.2487 -0.6338  0.6770
23789SOL     OW76304   6.126   6.641   9.936 -0.1420 -0.1968 -0.6656
23789SOL    HW176305   6.113   6.655  10.030 -1.9568  0.4006 -0.9595
23789SOL    HW276306   6.190   6.707   9.911 -2.4279  2.2870 -0.4668
23790SOL     OW76307   1.256  11.369   6.129  0.6251 -0.1451  0.2257
23790SOL    HW176308   1.252  11.464   6.130 -1.9053 -0.1427 -1.4535
23790SOL    HW276309   1.323  11.349   6.063  0.1538  0.5244 -0.4780
23791SOL     OW76310   8.703   4.819  11.079  0.5956  0.2150  0.5018
23791SOL    HW176311   8.634   4.882  11.097  1.1061  1.2002 -0.8583
23791SOL    HW276312   8.669   4.764  11.008  0.8522  0.1089  0.4581
23792SOL     OW76313  11.418   8.539   2.502 -0.1570  0.1145  0.7870
23792SOL    HW176314  11.469   8.458   2.495 -0.9805 -0.3582 -0.1870
23792SOL    HW276315  11.465   8.592   2.566  2.9493  0.7190 -1.7161
23793SOL     OW76316   2.527   5.330  10.802 -0.8209 -0.1409  0.0598
23793SOL    HW176317   2.595   5.392  10.776 -0.7158 -0.2535  0.0633
23793SOL    HW276318   2.537   5.257  10.740 -0.7798 -0.2662  0.2136
23794SOL     OW76319   2.299   2.638   6.843 -0.2462  0.4743 -0.1160
23794SOL    HW176320   2.345   2.571   6.793 -0.5794  0.6249 -0.6294
23794SOL    HW276321   2.290   2.601   6.931 -1.9627 -0.9156 -0.8123
23795SOL     OW76322  11.010   2.449  10.758 -0.0200  0.3624 -0.1437
23795SOL    HW176323  10.955   2.442  10.836 -0.3957  1.0791 -0.3261
23795SOL    HW276324  11.013   2.543  10.740  0.2546  0.2230 -0.8568
23796SOL     OW76325  10.715   3.715   4.052  0.5414 -0.5870  0.0561
23796SOL    HW176326  10.674   3.637   4.090  0.6220 -0.7196 -0.1284
23796SOL    HW276327  10.730   3.692   3.960 -1.1040  0.2971 -0.4803
23797SOL     OW76328   3.333   9.031   0.515 -0.0673  0.0562 -0.0875
23797SOL    HW176329   3.382   8.981   0.581 -2.9611  0.5867  2.7022
23797SOL    HW276330   3.371   9.119   0.518  0.4696 -0.1806  0.1377
23798SOL     OW76331   0.096   7.207   8.097 -0.1113 -0.3913 -0.6495
23798SOL    HW176332   0.116   7.301   8.102 -0.1732 -0.2908 -2.0236
23798SOL    HW276333   0.104   7.176   8.188 -0.3705  0.9939 -0.1265
23799SOL     OW76334   0.791   4.197  10.134  0.3982 -0.3688 -0.3883
23799SOL    HW176335   0.707   4.222  10.172 -0.1742 -1.4313 -0.9017
23799SOL    HW276336   0.837   4.280  10.120  1.2780  0.0735  3.8658
23800SOL     OW76337   4.713   1.165   1.546 -0.4353 -0.0351 -0.0476
23800SOL    HW176338   4.674   1.193   1.629 -0.1030 -1.8384  0.7456
23800SOL    HW276339   4.803   1.143   1.567 -0.1021  0.2869 -1.0721
23801SOL     OW76340   0.599  10.655   3.580  0.2435 -0.4077  0.1174
23801SOL    HW176341   0.556  10.590   3.525  1.2211  0.7896 -2.2532
23801SOL    HW276342   0.627  10.723   3.518  1.0180  1.2889  2.2057
23802SOL     OW76343   5.984   4.566   3.721 -0.0884  0.3101 -0.5746
23802SOL    HW176344   5.951   4.476   3.724 -1.0729  0.6114 -1.5648
23802SOL    HW276345   5.911   4.619   3.754  0.4300  0.7558 -0.1440
23803SOL     OW76346   0.106   9.028   3.634 -0.1976 -0.2456 -0.0454
23803SOL    HW176347   0.015   9.011   3.613  0.2460 -0.9470 -1.5430
23803SOL    HW276348   0.146   8.942   3.644  0.0641  0.0447  1.8836
23804SOL     OW76349   5.630   1.578   2.513 -0.4337  0.0055  0.1182
23804SOL    HW176350   5.631   1.608   2.604  1.2909 -1.8968  0.7926
23804SOL    HW276351   5.718   1.596   2.481 -0.1602 -1.8441 -0.2688
23805SOL     OW76352   1.190   4.294   0.266 -0.2831  0.3132 -0.4147
23805SOL    HW176353   1.139   4.373   0.282 -0.3320 -0.1866  2.3571
23805SOL    HW276354   1.125   4.227   0.246 -0.4103  0.5097 -0.6586
23806SOL     OW76355   5.093   4.735   9.069 -0.4342  0.6665  0.3103
23806SOL    HW176356   5.089   4.750   9.164  0.1462  0.9781  0.2897
23806SOL    HW276357   5.007   4.698   9.047 -0.4356  0.2258  1.0245
23807SOL     OW76358  11.396   4.352  11.013 -0.2748  0.2331  0.7561
23807SOL    HW176359  11.433   4.288  11.074 -0.4755 -1.1714 -0.5474
23807SOL    HW276360  11.471   4.405  10.986  0.7110 -1.9615 -1.1182
23808SOL     OW76361   6.073   0.698   2.453 -0.0735  0.3364  0.9590
23808SOL    HW176362   6.024   0.617   2.469  0.8600 -0.2931  0.7459
23808SOL    HW276363   6.104   0.690   2.363  1.1665  0.2826  1.3641
23809SOL     OW76364   5.112   9.676   5.951 -0.1377 -0.6560 -0.0886
23809SOL    HW176365   5.195   9.682   5.997 -0.4623 -2.3213  0.7898
23809SOL    HW276366   5.113   9.591   5.908 -1.4257 -0.7736  0.0539
23810SOL     OW76367   1.682  10.519   3.458 -0.4123 -0.0268 -0.4387
23810SOL    HW176368   1.706  10.556   3.543  0.0789  1.2081 -1.0923
23810SOL    HW276369   1.764  10.517   3.409 -0.2577 -2.7066 -0.2206
23811SOL     OW76370   8.611   8.931   7.965  0.0915  0.2798 -0.1131
23811SOL    HW176371   8.559   8.997   8.011  0.0683 -0.3051  0.7201
23811SOL    HW276372   8.683   8.912   8.025 -1.8743 -3.1578  1.4292
23812SOL     OW76373   5.939   5.139  11.276  0.0453  0.1515 -0.0636
23812SOL    HW176374   5.989   5.071  11.320  0.4706  0.2372 -0.4171
23812SOL    HW276375   6.002   5.185  11.221 -0.4934 -0.0087 -0.8385
23813SOL     OW76376  11.519   3.914   5.485 -0.9068  0.1013 -0.3409
23813SOL    HW176377  11.577   3.988   5.464  0.4662 -0.5619  0.8696
23813SOL    HW276378  11.489   3.881   5.401  1.4297 -0.2264 -1.1121
23814SOL     OW76379   1.174   8.770   0.512  0.5737  0.3550  0.3963
23814SOL    HW176380   1.213   8.724   0.587  2.2390  0.0935 -0.5861
23814SOL    HW276381   1.165   8.860   0.542  2.8624  0.6548  0.4138
23815SOL     OW76382   9.511   3.793   4.426 -0.5389  0.1741  0.0698
23815SOL    HW176383   9.531   3.862   4.490 -1.2205  2.1167 -1.6889
23815SOL    HW276384   9.592   3.743   4.418  0.6290  1.9759  0.0455
23816SOL     OW76385  10.531   6.431   5.080 -0.0762  0.3925  0.3213
23816SOL    HW176386  10.448   6.451   5.124 -0.1671 -1.2980  0.9961
23816SOL    HW276387  10.522   6.340   5.053  1.0744  0.5772 -0.7583
23817SOL     OW76388  10.543  10.704   2.021  0.2309 -0.3464  0.6351
23817SOL    HW176389  10.511  10.771   1.961 -0.0900 -0.5973  0.5209
23817SOL    HW276390  10.471  10.693   2.084  0.4958 -0.2049  0.9666
23818SOL     OW76391   3.229   2.465   4.968  0.0122 -0.6485  0.1289
23818SOL    HW176392   3.238   2.459   5.063  2.0097  0.2265  0.0548
23818SOL    HW276393   3.258   2.379   4.937 -0.8497 -1.0106  0.3050
23819SOL     OW76394   5.976  11.642   1.797  0.1930 -0.0778  0.3809
23819SOL    HW176395   6.027  11.580   1.745 -1.8027 -0.5544 -1.1342
23819SOL    HW276396   5.946  11.590   1.872  1.4224  0.0565  0.9832
23820SOL     OW76397  11.543  10.161   8.417 -0.2462  0.4962 -0.7584
23820SOL    HW176398  11.482  10.134   8.486  0.3685  1.0663  0.0240
23820SOL    HW276399  11.565  10.251   8.438  1.7070 -0.0123 -0.3817
23821SOL     OW76400  10.910   3.195   0.224  0.1206 -0.2357 -0.4733
23821SOL    HW176401  10.990   3.179   0.174  3.2231  0.9250  3.6181
23821SOL    HW276402  10.909   3.126   0.290 -0.8763  1.1775  1.0526
23822SOL     OW76403   3.298   3.825   6.962 -0.5899 -0.0886  0.5283
23822SOL    HW176404   3.366   3.887   6.935 -0.1118 -0.9858 -0.3746
23822SOL    HW276405   3.220   3.854   6.915 -0.2221 -0.5106 -0.3537
23823SOL     OW76406   4.042   1.134   1.950  0.0379 -0.0454 -0.2173
23823SOL    HW176407   4.047   1.201   2.018 -1.5828  0.2517 -0.3484
23823SOL    HW276408   3.969   1.161   1.895 -2.0961 -2.9401  0.9135
23824SOL     OW76409   2.548   9.300  10.844  0.3784  0.0702 -0.3492
23824SOL    HW176410   2.490   9.374  10.863  0.9714  0.6389 -0.7062
23824SOL    HW276411   2.501   9.248  10.779 -0.8223 -0.8463  1.1862
23825SOL     OW76412   7.739  10.186   7.305 -0.3528 -0.0523 -0.2658
23825SOL    HW176413   7.751  10.093   7.324 -1.7229 -0.1250  0.3664
23825SOL    HW276414   7.666  10.213   7.361  2.5412  2.4197  2.7696
23826SOL     OW76415   1.394   6.470   5.200 -0.1595 -0.6445 -0.3479
23826SOL    HW176416   1.422   6.421   5.278 -0.2152  1.0740  0.7864
23826SOL    HW276417   1.465   6.532   5.184 -1.3882  0.9159  0.0415
23827SOL     OW76418   3.763   8.222   2.627  0.3448  0.1200 -0.5238
23827SOL    HW176419   3.686   8.241   2.574  0.6475  2.7591 -0.1645
23827SOL    HW276420   3.825   8.182   2.567 -1.1147 -1.7143 -0.8987
23828SOL     OW76421   9.250   4.925   0.404 -0.1192  0.5980  0.0634
23828SOL    HW176422   9.180   4.964   0.352 -0.9543  0.0987  0.7814
23828SOL    HW276423   9.327   4.978   0.385  0.3514 -1.1235 -3.7730
23829SOL     OW76424   1.366   8.658   9.276  0.5661 -0.4486 -0.1289
23829SOL    HW176425   1.317   8.590   9.230  0.4419  0.0860 -0.7964
23829SOL    HW276426   1.298   8.709   9.322  0.2725  1.2640 -2.3141
23830SOL     OW76427   0.607  11.423  11.298 -0.0847  0.2143  0.0884
23830SOL    HW176428   0.635  11.365  11.369 -1.1999 -1.5911 -0.8790
23830SOL    HW276429   0.513  11.434  11.313 -0.5767 -1.1362 -1.7196
23831SOL     OW76430   8.540   6.023  11.474 -0.2894  0.6381 -0.4891
23831SOL    HW176431   8.457   6.004  11.518  0.4660 -1.3689  0.1430
23831SOL    HW276432   8.580   5.938  11.459  0.8742  1.4571 -2.3982
23832SOL     OW76433   4.440   8.573   4.767  0.5408  0.4035  0.0061
23832SOL    HW176434   4.453   8.532   4.853 -0.0721 -1.6299 -0.8164
23832SOL    HW276435   4.527   8.604   4.742  1.0877 -0.5671  0.6128
23833SOL     OW76436   2.817   2.704   4.664 -0.0306  0.7002 -0.1618
23833SOL    HW176437   2.900   2.727   4.622 -0.6723  0.5938 -1.5568
23833SOL    HW276438   2.792   2.621   4.623 -1.4954  1.4264 -0.7828
23834SOL     OW76439   7.909  11.315   2.349 -0.6052  0.1283  0.1267
23834SOL    HW176440   7.955  11.390   2.386  0.8418  0.9811 -3.0298
23834SOL    HW276441   7.838  11.352   2.298 -1.5754 -0.8667  0.7124
23835SOL     OW76442   0.542   2.515   3.100 -0.4483 -0.6119  0.0561
23835SOL    HW176443   0.610   2.447   3.097 -0.2302 -0.4610 -3.7189
23835SOL    HW276444   0.460   2.467   3.098 -0.5105 -0.7424  2.4806
23836SOL     OW76445  10.484   9.983  10.187  0.5434  0.5757  0.2413
23836SOL    HW176446  10.412   9.982  10.124 -0.9510  0.9276  1.8512
23836SOL    HW276447  10.476   9.900  10.235 -0.1474  1.4869  1.8102
23837SOL     OW76448   4.242   7.540   7.796  0.1919 -0.1484 -0.0565
23837SOL    HW176449   4.156   7.504   7.817 -0.0657 -1.2284 -2.6216
23837SOL    HW276450   4.226   7.635   7.788 -0.2423 -0.0488  1.6738
23838SOL     OW76451  11.548   5.295  11.598 -0.0304  0.7215 -0.1618
23838SOL    HW176452  11.561   5.299  11.693  0.5295  0.6630 -0.2317
23838SOL    HW276453  11.576   5.207  11.574 -1.4751  0.2455 -0.2012
23839SOL     OW76454   4.170   1.865   4.262  0.3496  0.4100  0.1864
23839SOL    HW176455   4.151   1.944   4.212  0.2827  0.1188 -0.2446
23839SOL    HW276456   4.253   1.833   4.226  1.3476  1.2973  1.5949
23840SOL     OW76457   2.010   9.918   7.736  0.5608  0.0896  0.2123
23840SOL    HW176458   1.978   9.993   7.786  4.0943  1.7238  0.3509
23840SOL    HW276459   2.016   9.951   7.646 -0.5692 -1.0201 -0.2884
23841SOL     OW76460   5.866   9.424   4.661 -0.2138 -0.4152 -0.4722
23841SOL    HW176461   5.897   9.426   4.570 -2.4304 -0.9763 -1.3039
23841SOL    HW276462   5.923   9.361   4.704  0.6596 -0.4099 -1.5567
23842SOL     OW76463   1.851   9.804   6.309 -0.5529 -0.4286 -1.0513
23842SOL    HW176464   1.843   9.878   6.370 -2.7436 -0.8489 -0.7492
23842SOL    HW276465   1.881   9.732   6.364 -1.5782 -0.5578 -0.6329
23843SOL     OW76466   1.235   8.064   1.311 -0.1805  0.4629  0.0781
23843SOL    HW176467   1.173   8.028   1.375 -0.0021  1.3233  0.7541
23843SOL    HW276468   1.320   8.058   1.355  0.0251  0.5647 -0.3010
23844SOL     OW76469   8.257   8.684   6.773 -0.4761 -0.2420 -0.4236
23844SOL    HW176470   8.287   8.620   6.708  1.1930  0.0461  0.0316
23844SOL    HW276471   8.215   8.631   6.841  2.0848 -1.0589  0.6262
23845SOL     OW76472   3.249   2.030  11.308  0.4184 -0.3520  0.1677
23845SOL    HW176473   3.185   2.039  11.378 -0.6350 -0.0821 -0.7859
23845SOL    HW276474   3.204   1.977  11.241  1.0457  0.1558 -0.6811
23846SOL     OW76475   2.579   0.027   2.493 -0.3316 -0.1617 -0.4604
23846SOL    HW176476   2.592   0.070   2.577  0.7457  0.1496 -0.7667
23846SOL    HW276477   2.566   0.098   2.430 -3.4797 -0.4322 -0.2543
23847SOL     OW76478   6.521   3.613   2.581  0.0280  0.0462  0.6254
23847SOL    HW176479   6.604   3.643   2.617  0.7737 -0.4370 -0.6439
23847SOL    HW276480   6.517   3.652   2.494 -0.7687 -0.4626  0.4227
23848SOL     OW76481   5.834   0.190   7.550 -0.3047 -0.0493  0.5405
23848SOL    HW176482   5.847   0.166   7.642 -2.6112  0.0242  0.9492
23848SOL    HW276483   5.901   0.255   7.532  1.5292 -1.5840  1.5189
23849SOL     OW76484  11.177   0.042   0.844 -0.0336 -0.1361 -0.1697
23849SOL    HW176485  11.229   0.102   0.899  0.2641 -0.5043 -0.0406
23849SOL    HW276486  11.100   0.093   0.820  0.7581  0.7033 -1.0210
23850SOL     OW76487   0.916   0.896  11.431  0.3015  0.0332 -0.4830
23850SOL    HW176488   0.894   0.909  11.339 -3.0402 -1.9062 -0.1016
23850SOL    HW276489   1.004   0.857  11.430  0.0245 -0.6688 -2.8785
23851SOL     OW76490  10.954   6.539   8.535  0.0822 -0.1837  0.2550
23851SOL    HW176491  10.939   6.564   8.444 -2.4922  2.3732  1.2169
23851SOL    HW276492  11.029   6.592   8.562 -0.3967  0.5941  0.1089
23852SOL     OW76493   7.743   1.390  11.092 -0.2171  0.7079  0.4250
23852SOL    HW176494   7.834   1.378  11.118 -0.1555 -0.0975 -0.1354
23852SOL    HW276495   7.719   1.476  11.127  0.8415  1.0506  0.3343
23853SOL     OW76496   4.163   3.977   8.476 -0.0819  0.1827  0.1986
23853SOL    HW176497   4.234   4.040   8.483  0.0916  0.1088 -0.7153
23853SOL    HW276498   4.084   4.027   8.493 -0.1831  1.2550 -2.8458
23854SOL     OW76499   2.356   1.850   1.094  0.4661  0.3178 -0.3457
23854SOL    HW176500   2.421   1.895   1.147  0.4591  0.8551 -0.7849
23854SOL    HW276501   2.399   1.835   1.010  0.1429  0.3554 -0.5205
23855SOL     OW76502   7.956   5.898  11.617 -0.3482 -0.0696  0.0825
23855SOL    HW176503   7.933   5.908  11.709  1.0316 -1.1842  0.6035
23855SOL    HW276504   7.889   5.840  11.581 -2.0228  1.9182 -0.1653
23856SOL     OW76505  11.143   6.083   7.622  0.1352 -0.0352 -0.2468
23856SOL    HW176506  11.071   6.047   7.571 -0.0492 -1.2709  0.8323
23856SOL    HW276507  11.196   6.130   7.558 -0.7940 -0.4059 -1.3294
23857SOL     OW76508   1.139   0.034   3.602  0.6065 -0.0343  0.3350
23857SOL    HW176509   1.117  -0.057   3.620  0.3895 -0.5987 -2.3367
23857SOL    HW276510   1.064   0.084   3.633  0.1789 -0.8946  0.7165
23858SOL     OW76511   2.811   9.853   6.817  0.1599 -0.5396  0.5985
23858SOL    HW176512   2.823   9.852   6.912 -1.0828 -1.2016  0.7590
23858SOL    HW276513   2.725   9.892   6.804  0.6720  0.3412 -0.3197
23859SOL     OW76514   2.823   5.610   9.971  0.4087  0.1635 -0.2792
23859SOL    HW176515   2.797   5.522   9.944 -0.8634  0.1927  0.7389
23859SOL    HW276516   2.837   5.658   9.890  0.9444 -0.9210 -0.8445
23860SOL     OW76517   3.000   2.030   0.237  0.8098 -0.0624 -0.3016
23860SOL    HW176518   2.937   1.968   0.272  0.7869  1.2388  2.2232
23860SOL    HW276519   2.956   2.070   0.162 -0.9273 -0.0018  0.6976
23861SOL     OW76520   1.183   1.435   9.477  0.5596  0.5310 -0.2720
23861SOL    HW176521   1.199   1.343   9.497 -1.5767  0.1594 -0.0703
23861SOL    HW276522   1.148   1.472   9.558 -2.5474  0.4470 -1.4376
23862SOL     OW76523   7.101   5.101   2.876 -0.3207 -0.2134  0.1073
23862SOL    HW176524   7.066   5.018   2.845 -0.7430  0.0063 -0.0098
23862SOL    HW276525   7.136   5.144   2.798 -1.0189  0.1620 -0.0016
23863SOL     OW76526   8.108   4.219   7.420  0.1356  0.3451 -0.2743
23863SOL    HW176527   8.013   4.210   7.424  0.2998 -1.2886  0.7527
23863SOL    HW276528   8.129   4.286   7.486 -0.0684 -1.7681  2.0636
23864SOL     OW76529   6.314   0.689   8.206  0.2162  0.0860 -0.0651
23864SOL    HW176530   6.269   0.612   8.171  0.3800  0.0042 -0.0959
23864SOL    HW276531   6.371   0.654   8.275  1.4749 -0.0322 -1.1263
23865SOL     OW76532  10.101  10.236   2.856  0.1208  0.0118 -0.0069
23865SOL    HW176533  10.052  10.155   2.874  0.9325 -0.5040 -0.0883
23865SOL    HW276534  10.091  10.288   2.936 -0.9569  0.1283 -0.1999
23866SOL     OW76535   0.390   6.602   7.312 -0.0889  0.4726 -0.0698
23866SOL    HW176536   0.413   6.636   7.225 -2.6707  1.7089 -0.3829
23866SOL    HW276537   0.315   6.544   7.296  0.0191 -0.0596  1.2273
23867SOL     OW76538   4.578  11.276   5.352  0.8177 -0.3954  0.0601
23867SOL    HW176539   4.673  11.267   5.359  0.7177 -0.8194  1.0039
23867SOL    HW276540   4.544  11.187   5.367  0.3079 -0.4530 -1.2610
23868SOL     OW76541   9.651   3.467  10.737 -0.6553  0.1067  0.0054
23868SOL    HW176542   9.606   3.383  10.732 -0.1906 -0.0974 -1.4585
23868SOL    HW276543   9.741   3.445  10.762 -0.7234  0.2499  0.3820
23869SOL     OW76544   2.113   9.397   0.474 -0.1044  0.7044 -0.3424
23869SOL    HW176545   2.071   9.329   0.420 -1.6409  1.3889 -0.0590
23869SOL    HW276546   2.206   9.385   0.459 -0.3919 -0.7792 -1.1432
23870SOL     OW76547   6.521   8.208   7.702 -0.3201  0.0868 -0.1221
23870SOL    HW176548   6.539   8.213   7.608 -0.4517 -1.7992 -0.2848
23870SOL    HW276549   6.569   8.282   7.740  0.5884  0.2630 -1.5538
23871SOL     OW76550  10.809   3.581   1.413 -0.3059  0.6975  0.3137
23871SOL    HW176551  10.860   3.503   1.392 -2.3605 -0.5860 -0.2389
23871SOL    HW276552  10.847   3.614   1.494  1.3706 -0.1647 -0.0761
23872SOL     OW76553   8.888   7.929   5.764 -0.3511  0.0128 -0.3425
23872SOL    HW176554   8.949   7.858   5.781  0.0286  0.3971 -0.0727
23872SOL    HW276555   8.867   7.922   5.671  1.7948  1.1755 -0.9850
23873SOL     OW76556   4.376   4.356   3.079  0.0498  0.0323  0.2707
23873SOL    HW176557   4.433   4.348   3.003  1.5045  2.1939  1.0309
23873SOL    HW276558   4.422   4.308   3.148 -0.1858 -0.0906  0.3449
23874SOL     OW76559   0.310   8.427   6.318 -0.3041 -0.4577 -0.1895
23874SOL    HW176560   0.348   8.437   6.405  1.3161  1.2350 -1.0189
23874SOL    HW276561   0.351   8.348   6.283 -0.1379 -0.5351  0.1757
23875SOL     OW76562   5.193   3.852   3.180  0.0920  0.0438 -0.1509
23875SOL    HW176563   5.223   3.943   3.180 -0.2186  0.1648 -1.1535
23875SOL    HW276564   5.269   3.802   3.209 -0.3563  0.7643  2.5163
23876SOL     OW76565   5.204   8.953  11.297 -0.4039  0.5097 -0.5268
23876SOL    HW176566   5.245   9.021  11.243 -0.6155  0.3187 -0.9254
23876SOL    HW276567   5.144   9.001  11.354  0.1241  0.7555 -0.1637
23877SOL     OW76568   3.137   2.780   9.126  1.0625 -0.3796  0.6687
23877SOL    HW176569   3.181   2.695   9.137  1.5732 -0.2293 -0.1196
23877SOL    HW276570   3.046   2.757   9.108  1.4314 -0.8236 -0.7273
23878SOL     OW76571  10.401   8.344  10.816 -0.0437  0.3045  0.7083
23878SOL    HW176572  10.375   8.436  10.818  0.7682  0.5786 -0.4020
23878SOL    HW276573  10.476   8.338  10.874  1.1722  0.7947 -0.7426
23879SOL     OW76574   8.707   4.696   7.104  0.2955  0.0498  0.0835
23879SOL    HW176575   8.771   4.747   7.055 -0.7868  1.8059  0.4280
23879SOL    HW276576   8.642   4.670   7.038  1.1908 -1.5280 -0.2212
23880SOL     OW76577   7.131   1.612   9.641  0.0450 -1.0979 -0.1932
23880SOL    HW176578   7.041   1.611   9.609 -0.1498  1.4163  0.0775
23880SOL    HW276579   7.129   1.556   9.719 -1.0002 -1.9264 -0.7788
23881SOL     OW76580   4.294   4.541   7.554  0.2485 -0.2976  0.2469
23881SOL    HW176581   4.215   4.492   7.529 -0.2300  0.0340  1.0782
23881SOL    HW276582   4.350   4.477   7.598  0.2876 -0.4466 -0.0184
23882SOL     OW76583   0.125   4.307   7.997 -0.6217  0.2777  0.0226
23882SOL    HW176584   0.092   4.339   7.913 -0.4378  0.8920  0.1835
23882SOL    HW276585   0.075   4.356   8.063  0.4146  1.0353  0.2709
23883SOL     OW76586  11.584   6.846   6.084 -0.6306 -0.5675  0.4344
23883SOL    HW176587  11.626   6.874   6.003  0.5687  0.1960  1.2883
23883SOL    HW276588  11.498   6.889   6.083  0.3017  1.3907  0.6608
23884SOL     OW76589   1.766   3.358   1.420 -0.5728 -0.4114 -0.0448
23884SOL    HW176590   1.772   3.347   1.325 -2.7841 -1.4053 -0.1495
23884SOL    HW276591   1.759   3.269   1.454 -2.3668 -0.0246  0.7469
23885SOL     OW76592   2.786  10.768   0.173  0.6223 -0.3475  0.0372
23885SOL    HW176593   2.859  10.803   0.224  1.2033 -2.8687  1.0876
23885SOL    HW276594   2.709  10.811   0.210  1.4231  1.3255 -0.1485
23886SOL     OW76595  11.247  10.241  11.512  0.2750 -0.0602  0.5560
23886SOL    HW176596  11.226  10.265  11.603 -1.1303 -0.5458  0.3781
23886SOL    HW276597  11.170  10.267  11.462 -0.0439 -2.0948 -0.1116
23887SOL     OW76598   5.963   8.008   8.312  0.0143  0.2576 -0.0237
23887SOL    HW176599   6.002   7.997   8.399 -1.7650  0.1290  0.7890
23887SOL    HW276600   6.032   8.049   8.260  1.0197  0.5994  1.5203
23888SOL     OW76601   9.362  11.381  11.579 -0.0943 -0.0037  0.2577
23888SOL    HW176602   9.449  11.416  11.599  0.3562 -0.3496 -0.9734
23888SOL    HW276603   9.345  11.317  11.648 -0.4757  1.8099  1.9237
23889SOL     OW76604   9.273   4.478   2.350  0.0763  0.0986  0.4695
23889SOL    HW176605   9.260   4.563   2.392 -0.7922 -0.1551  0.7359
23889SOL    HW276606   9.229   4.416   2.408 -0.2873 -0.3841 -0.3072
23890SOL     OW76607   5.729   7.527  11.336 -0.0346 -0.1049 -0.3824
23890SOL    HW176608   5.700   7.610  11.299 -0.3344 -0.4511 -0.9521
23890SOL    HW276609   5.650   7.490  11.376  0.0343 -0.2305 -0.3611
23891SOL     OW76610  10.914   2.713  11.397 -0.1116  0.7213 -0.1649
23891SOL    HW176611  10.873   2.799  11.385  0.3233  1.1039  1.0151
23891SOL    HW276612  10.921   2.678  11.308 -1.9003  1.1356 -0.5120
23892SOL     OW76613   1.742   3.153   4.079 -0.2622 -0.2555 -0.1952
23892SOL    HW176614   1.673   3.089   4.060 -0.4489  0.5291 -2.4819
23892SOL    HW276615   1.771   3.183   3.993 -1.2620  3.8764  0.6592
23893SOL     OW76616  11.315   3.046   7.846 -0.2800  0.3648  0.1212
23893SOL    HW176617  11.330   2.982   7.777 -0.0483 -1.6293  1.9145
23893SOL    HW276618  11.252   3.108   7.809  0.4677 -0.1383 -2.1263
23894SOL     OW76619  10.578   7.780   2.550 -0.7601  0.2505  0.7268
23894SOL    HW176620  10.615   7.763   2.463 -2.2644  1.9335 -0.3127
23894SOL    HW276621  10.653   7.779   2.609  0.6584  1.4980 -0.9804
23895SOL     OW76622   5.102   5.168   8.346 -0.1523 -0.3243 -0.3534
23895SOL    HW176623   5.021   5.164   8.294 -0.5193 -1.0399  0.2672
23895SOL    HW276624   5.073   5.157   8.436  0.5195  0.6208 -0.0109
23896SOL     OW76625   5.293   8.683   9.240  1.2489 -0.5204 -0.1947
23896SOL    HW176626   5.222   8.702   9.302  1.7817 -3.6556  1.6130
23896SOL    HW276627   5.349   8.760   9.243  0.7251 -0.1341  2.5455
23897SOL     OW76628   8.942   9.380   7.224 -0.1592  0.7771 -0.3958
23897SOL    HW176629   8.859   9.337   7.246  0.1332 -0.5278 -1.7169
23897SOL    HW276630   8.920   9.440   7.153  0.4096 -1.4729 -2.6026
23898SOL     OW76631   7.276   4.334  10.812 -0.3415 -0.2419 -0.0531
23898SOL    HW176632   7.218   4.259  10.801 -0.5299 -0.0201 -0.6131
23898SOL    HW276633   7.276   4.377  10.727  0.5846 -0.1931 -0.0469
23899SOL     OW76634   9.988   5.526   5.414 -0.4859 -0.4703 -0.4475
23899SOL    HW176635   9.962   5.491   5.329 -1.1912 -0.1887 -0.3532
23899SOL    HW276636   9.916   5.584   5.439  0.0232 -0.0392  0.0361
23900SOL     OW76637   1.053   4.215   1.466  0.4096 -0.5428 -0.3267
23900SOL    HW176638   1.057   4.153   1.538 -1.4391 -3.0007 -2.1580
23900SOL    HW276639   1.104   4.291   1.496 -1.1203 -0.9443  3.9141
23901SOL     OW76640   8.905   1.667   5.767 -0.3463  0.3599  0.2299
23901SOL    HW176641   8.862   1.729   5.826 -1.0486 -1.3966  1.6590
23901SOL    HW276642   8.833   1.624   5.721 -0.0843 -1.2204  1.2043
23902SOL     OW76643   1.838   1.393   5.843 -0.1537 -0.4949 -0.3555
23902SOL    HW176644   1.878   1.380   5.929  0.0315 -0.5186 -0.4440
23902SOL    HW276645   1.810   1.306   5.816 -1.1934 -0.3362  0.1516
23903SOL     OW76646   5.062   1.419   1.366 -0.4092  0.1462 -0.3012
23903SOL    HW176647   5.004   1.426   1.443  0.0563  1.2458 -0.0406
23903SOL    HW276648   5.150   1.431   1.402  0.2993 -3.6271 -0.3269
23904SOL     OW76649   1.421  11.661   8.597 -0.7697 -0.0097  0.1026
23904SOL    HW176650   1.436  11.749   8.632 -0.2948 -0.2121  0.4270
23904SOL    HW276651   1.379  11.675   8.512  0.5565  0.5975 -0.4960
23905SOL     OW76652   5.259   1.520   0.315  0.1809  0.5597  0.1338
23905SOL    HW176653   5.282   1.568   0.236  0.1212 -1.0966 -0.9419
23905SOL    HW276654   5.163   1.519   0.316  0.1835  0.3277  0.0774
23906SOL     OW76655   2.811   7.371  10.406  0.5952  0.3498 -0.3018
23906SOL    HW176656   2.825   7.404  10.494  2.4278 -0.9432 -0.0507
23906SOL    HW276657   2.726   7.406  10.380  0.5636  1.7337  1.5008
23907SOL     OW76658   6.041   0.775  11.211 -0.3385 -0.2292  0.0834
23907SOL    HW176659   6.038   0.727  11.294  1.3458 -0.0211  0.2886
23907SOL    HW276660   6.074   0.861  11.235  1.5835 -0.6345 -0.9851
23908SOL     OW76661   8.049   6.665   8.317  0.6961  0.8464 -0.1738
23908SOL    HW176662   8.128   6.615   8.336 -0.0362 -0.7581 -1.1163
23908SOL    HW276663   8.051   6.739   8.379  2.1758  0.0422  0.7890
23909SOL     OW76664   3.889  11.273   1.907 -0.3813 -0.4941  0.1311
23909SOL    HW176665   3.958  11.340   1.909 -1.7906  1.0135  0.2061
23909SOL    HW276666   3.937  11.190   1.903  1.4369  0.5356 -1.3405
23910SOL     OW76667  10.603   7.826   4.822 -0.0094 -0.2062 -0.3269
23910SOL    HW176668  10.541   7.815   4.750 -1.2263  0.0054  0.6680
23910SOL    HW276669  10.655   7.745   4.821 -2.0079 -1.5649  0.4086
23911SOL     OW76670   2.868  10.508   9.762 -0.0680 -0.8271  0.0866
23911SOL    HW176671   2.790  10.485   9.711 -0.7813  0.2274  0.6552
23911SOL    HW276672   2.889  10.429   9.810  0.6505 -1.8679 -1.8418
23912SOL     OW76673   3.031   9.486   5.800  0.3903  0.2430  0.3712
23912SOL    HW176674   3.066   9.572   5.780  0.8123  0.2648  1.1508
23912SOL    HW276675   2.991   9.496   5.887 -0.7496 -0.0083 -0.1055
23913SOL     OW76676   3.325   9.090   9.247 -0.1864 -0.1824  0.0733
23913SOL    HW176677   3.255   9.102   9.183 -1.0696 -0.3249  0.9927
23913SOL    HW276678   3.350   8.998   9.238  0.5982  0.1088 -0.9447
23914SOL     OW76679   5.190   3.282  11.169 -0.2222  0.2451 -0.2116
23914SOL    HW176680   5.156   3.209  11.220 -1.4391  0.6608 -0.3847
23914SOL    HW276681   5.205   3.246  11.082  3.1121 -0.8089  0.6460
23915SOL     OW76682   1.260   5.278   2.161 -0.1484 -0.2156 -0.4345
23915SOL    HW176683   1.179   5.227   2.170 -0.7685  0.9146  0.6695
23915SOL    HW276684   1.231   5.367   2.143  0.6440  0.8974  3.0307
23916SOL     OW76685   8.044   8.760   2.233 -0.1308 -0.1264  0.0336
23916SOL    HW176686   8.111   8.770   2.301  0.5024  3.4069 -0.8852
23916SOL    HW276687   8.094   8.753   2.151 -0.8254  0.7815 -0.4923
23917SOL     OW76688   1.310   3.781   0.799  0.0791 -0.7545 -0.1196
23917SOL    HW176689   1.282   3.870   0.780 -0.0969 -0.4651  1.3468
23917SOL    HW276690   1.404   3.788   0.816 -0.3636 -0.3112  2.6366
23918SOL     OW76691   9.883  10.693   1.079 -0.3884  0.1591 -0.2868
23918SOL    HW176692   9.962  10.642   1.061  0.5840  1.1142  0.9975
23918SOL    HW276693   9.907  10.782   1.054 -0.6867  0.6360  1.0317
23919SOL     OW76694   4.217   6.257   4.058  0.1265 -0.1372  0.5091
23919SOL    HW176695   4.227   6.238   3.965  2.0124 -1.1484  0.8671
23919SOL    HW276696   4.139   6.313   4.063 -0.4076 -0.6069 -1.5800
23920SOL     OW76697  10.298   6.501   0.206 -0.0780  0.2422  0.1637
23920SOL    HW176698  10.331   6.564   0.142  0.1945 -0.3109 -0.2501
23920SOL    HW276699  10.233   6.550   0.256 -1.3688  0.3144 -1.4897
23921SOL     OW76700   4.637   7.299  10.872 -0.0884 -0.2250 -0.2271
23921SOL    HW176701   4.666   7.216  10.910 -1.8074  0.3371  2.6796
23921SOL    HW276702   4.566   7.275  10.813 -1.9879 -0.8289  2.1389
23922SOL     OW76703   8.942   0.959   1.527  0.1684  0.0394  0.0248
23922SOL    HW176704   9.013   0.936   1.467  0.9658  1.6738  0.2762
23922SOL    HW276705   8.866   0.972   1.470  0.8067  1.1399 -0.6110
23923SOL     OW76706  11.467   7.177  10.727 -0.2488 -0.0940  0.0427
23923SOL    HW176707  11.371   7.169  10.729 -0.3199  0.3022 -1.0228
23923SOL    HW276708  11.493   7.131  10.647  0.5239 -0.8345  0.7109
23924SOL     OW76709  11.189  10.320   6.072 -0.5667  0.2323  0.5024
23924SOL    HW176710  11.098  10.306   6.099 -1.5945  0.7031 -2.4258
23924SOL    HW276711  11.226  10.232   6.065 -0.7710  0.0365  1.6752
23925SOL     OW76712   8.094   8.298   3.010 -0.1125  0.6069 -0.2286
23925SOL    HW176713   8.032   8.358   2.968 -0.4383 -0.1071 -0.7954
23925SOL    HW276714   8.121   8.239   2.940  1.1312  0.8304  0.0434
23926SOL     OW76715   6.688  10.327  10.494 -0.3403  0.1482 -0.6801
23926SOL    HW176716   6.675  10.416  10.462 -1.3217 -0.9451 -3.5973
23926SOL    HW276717   6.602  10.286  10.489  0.0840 -0.9968  0.6316
23927SOL     OW76718   5.965  11.049   8.491 -0.1689 -0.2950  0.7901
23927SOL    HW176719   5.956  11.086   8.579  1.5117  2.5784 -0.1094
23927SOL    HW276720   5.902  11.098   8.438  0.5935 -0.2268 -0.0652
23928SOL     OW76721   0.137   6.825  11.324 -0.7065  0.5341 -0.1232
23928SOL    HW176722   0.076   6.880  11.275  1.1812  1.3884 -1.6355
23928SOL    HW276723   0.163   6.878  11.399 -2.7531 -0.3524  1.3139
23929SOL     OW76724   5.181   6.496   1.240  0.2355 -0.3471 -0.2335
23929SOL    HW176725   5.107   6.442   1.268  1.7806 -2.9495 -0.7779
23929SOL    HW276726   5.151   6.539   1.160 -0.4336 -2.1785 -1.0354
23930SOL     OW76727   2.719   8.045   5.685  0.4103 -0.2291 -0.0874
23930SOL    HW176728   2.667   7.990   5.743 -0.4505 -0.2498 -0.8570
23930SOL    HW276729   2.714   8.002   5.600 -0.0128  0.8561 -0.6302
23931SOL     OW76730  10.281   1.127   2.657  0.2389 -0.0154 -0.7256
23931SOL    HW176731  10.285   1.221   2.635 -0.8711  0.0263 -0.8090
23931SOL    HW276732  10.336   1.085   2.591  1.1874  0.6265 -0.3575
23932SOL     OW76733  11.065   5.256   2.000 -0.5533 -0.4829 -0.8735
23932SOL    HW176734  11.142   5.206   2.025  0.0521  0.4860 -0.7182
23932SOL    HW276735  11.100   5.342   1.976 -1.3134 -0.7119 -3.0614
23933SOL     OW76736  10.104   3.834   2.161 -0.0555 -0.7965  0.3402
23933SOL    HW176737  10.101   3.763   2.097 -1.0971  0.5055 -1.1461
23933SOL    HW276738  10.012   3.860   2.170  0.3838  0.8406  0.2712
23934SOL     OW76739  11.029   7.437   7.215 -0.0538 -0.0958  0.3267
23934SOL    HW176740  11.091   7.487   7.162  0.9380  0.1306  1.6448
23934SOL    HW276741  10.979   7.386   7.152  1.9784 -0.8560 -0.7487
23935SOL     OW76742   4.438   9.028   9.056  0.1942 -0.5410  0.0490
23935SOL    HW176743   4.471   8.952   9.103  2.0017  0.0787 -0.1620
23935SOL    HW276744   4.359   9.053   9.104  1.5021 -0.4201  2.2873
23936SOL     OW76745   4.286   5.315   1.045 -0.2064 -0.4585 -0.1915
23936SOL    HW176746   4.232   5.246   1.008 -1.6669  0.7436 -0.3719
23936SOL    HW276747   4.250   5.396   1.009 -0.5944  0.6528  2.4642
23937SOL     OW76748   7.519   4.981   9.820  0.0530 -0.1574 -0.1441
23937SOL    HW176749   7.554   4.914   9.878  0.2353 -0.4842 -0.6289
23937SOL    HW276750   7.454   4.935   9.767 -0.8446  0.3502  0.4704
23938SOL     OW76751   1.702   1.695   1.896 -0.8056 -0.3171 -0.2295
23938SOL    HW176752   1.783   1.725   1.937 -1.3492  0.3219  0.3927
23938SOL    HW276753   1.684   1.611   1.938  0.9996 -1.8760 -2.3446
23939SOL     OW76754   3.594   9.342   9.052 -0.0183 -0.6675 -0.1997
23939SOL    HW176755   3.572   9.249   9.042 -0.2842 -0.5422 -0.9108
23939SOL    HW276756   3.688   9.346   9.035 -0.3862 -0.5187 -2.6476
23940SOL     OW76757   1.395   0.920   5.163  0.2667  0.6630  0.3791
23940SOL    HW176758   1.386   0.827   5.184  0.0405  0.4191 -0.7850
23940SOL    HW276759   1.487   0.930   5.136 -0.0259  0.5174 -0.7124
23941SOL     OW76760   7.303   5.447   8.588 -0.0735 -0.2780  0.4042
23941SOL    HW176761   7.358   5.525   8.577  0.5321 -0.7611 -0.0187
23941SOL    HW276762   7.356   5.375   8.555 -0.9467 -0.7592  0.0123
23942SOL     OW76763   2.956   4.154  11.659 -0.5162 -0.6442 -0.2005
23942SOL    HW176764   2.944   4.087  11.726 -1.7932 -0.0956  0.1590
23942SOL    HW276765   2.886   4.138  11.596 -1.7329  1.1237  0.5961
23943SOL     OW76766   7.421  11.450   8.043 -0.0043  0.1882 -0.2248
23943SOL    HW176767   7.343  11.408   8.079 -0.4421  0.1638 -1.1723
23943SOL    HW276768   7.388  11.529   8.001  0.4532  0.0912 -0.7781
23944SOL     OW76769   2.021   7.140   9.455 -0.4214  0.1855 -0.0611
23944SOL    HW176770   1.970   7.107   9.529 -1.5959  0.6693 -0.6385
23944SOL    HW276771   2.107   7.159   9.492 -0.5773 -0.8488  0.8844
23945SOL     OW76772   2.383   5.557   2.442 -0.2374 -0.7120  0.3369
23945SOL    HW176773   2.288   5.563   2.432 -0.0332  1.6372 -0.7679
23945SOL    HW276774   2.399   5.566   2.536 -1.0523 -0.4784  0.4563
23946SOL     OW76775   1.688  11.033   2.406 -0.0364 -0.6240  0.5671
23946SOL    HW176776   1.686  10.977   2.483 -0.5859 -2.1329 -0.5079
23946SOL    HW276777   1.710  10.974   2.333  2.0673  1.0113 -0.2364
23947SOL     OW76778   4.110  10.908  10.923 -0.4230  0.0306  0.1130
23947SOL    HW176779   4.033  10.940  10.970 -1.1955 -0.5330 -0.7334
23947SOL    HW276780   4.091  10.816  10.904  0.8465 -0.3615  0.6573
23948SOL     OW76781  10.305   4.726  10.242 -0.0416 -0.3087  0.4348
23948SOL    HW176782  10.235   4.718  10.177  1.0142 -0.2937 -0.7441
23948SOL    HW276783  10.351   4.642  10.237  0.0629 -0.2997  1.1648
23949SOL     OW76784   8.495   1.962   6.989 -0.4227  0.5084 -0.0033
23949SOL    HW176785   8.591   1.954   6.988 -0.5167 -1.3098  0.9108
23949SOL    HW276786   8.478   2.052   6.962  1.5300  0.7476 -0.5712
23950SOL     OW76787   5.584   6.402   0.125  0.4787 -0.4285  0.5130
23950SOL    HW176788   5.509   6.454   0.095  0.1957 -0.7291  0.6814
23950SOL    HW276789   5.648   6.408   0.055 -0.1155 -1.0085 -0.0945
23951SOL     OW76790   8.814   4.699   8.945 -0.2543 -0.4636  0.0160
23951SOL    HW176791   8.724   4.720   8.968 -0.1696 -0.7372  0.6077
23951SOL    HW276792   8.858   4.784   8.937 -0.5532 -0.3333 -0.2351
23952SOL     OW76793   9.452   6.858  11.643  0.0836 -0.3790 -0.3523
23952SOL    HW176794   9.427   6.766  11.653 -0.0857 -0.3226 -0.2586
23952SOL    HW276795   9.416   6.902  11.720 -1.6522  0.1433 -1.4051
23953SOL     OW76796   4.013   9.505   2.779  0.6302  0.5226 -0.0625
23953SOL    HW176797   4.027   9.591   2.739 -1.7712  1.1388  0.2198
23953SOL    HW276798   4.041   9.515   2.870  1.4115  0.6516 -0.3132
23954SOL     OW76799   4.522   7.610   2.352 -0.5062 -0.6769  0.6332
23954SOL    HW176800   4.536   7.662   2.431 -0.3460 -0.7744  0.6703
23954SOL    HW276801   4.546   7.668   2.280 -1.7672 -0.1904  0.5823
23955SOL     OW76802   9.289  11.269   1.328  0.2293  0.1199 -0.2124
23955SOL    HW176803   9.374  11.265   1.284  0.1689  0.9400 -0.4195
23955SOL    HW276804   9.309  11.261   1.421  0.4622 -0.4738 -0.3103
23956SOL     OW76805   8.318  10.988   0.993 -0.0561  0.0298  0.5646
23956SOL    HW176806   8.338  11.072   0.950 -1.8741  0.2413  0.0203
23956SOL    HW276807   8.386  10.977   1.059  1.1019  1.1800 -0.3971
23957SOL     OW76808   7.472   4.971   2.533 -0.3722 -0.0687 -0.0650
23957SOL    HW176809   7.396   4.913   2.547 -1.5374  1.8460  2.2388
23957SOL    HW276810   7.497   4.999   2.621  1.7904  0.9033 -0.9352
23958SOL     OW76811   9.719   5.942   9.110  0.4432 -0.2999 -0.2076
23958SOL    HW176812   9.754   5.853   9.105  0.4883 -0.3515  0.8627
23958SOL    HW276813   9.701   5.956   9.203  0.4949  0.8332 -0.3515
23959SOL     OW76814   3.484   4.060   7.463 -0.0976  0.1162 -0.2120
23959SOL    HW176815   3.481   4.156   7.462 -1.4073  0.0970 -1.1188
23959SOL    HW276816   3.516   4.038   7.550  0.8997  1.3751 -0.2229
23960SOL     OW76817  10.415   0.852   3.487 -0.1946  0.6154 -0.1426
23960SOL    HW176818  10.368   0.784   3.535  1.8841  0.0357  1.1800
23960SOL    HW276819  10.349   0.920   3.471 -1.8664 -0.8661  0.1381
23961SOL     OW76820   9.978   7.485   8.349  0.2068  0.3086 -0.1846
23961SOL    HW176821   9.990   7.566   8.300  0.4408 -0.6806 -1.8670
23961SOL    HW276822   9.885   7.466   8.342  0.5059 -0.7950 -1.9779
23962SOL     OW76823   6.778   1.315   0.451  0.0216 -0.1047 -0.7130
23962SOL    HW176824   6.808   1.406   0.448 -0.3505  0.0223 -0.5542
23962SOL    HW276825   6.771   1.289   0.359 -1.1701  0.4594 -0.8009
23963SOL     OW76826   5.197   4.349   8.977 -0.5224  0.4555  0.7407
23963SOL    HW176827   5.293   4.349   8.980 -0.5360 -0.5857  2.0747
23963SOL    HW276828   5.170   4.343   9.068 -1.8359 -1.0927  0.2992
23964SOL     OW76829   2.450  10.504   8.818 -0.5475 -0.0436  0.4265
23964SOL    HW176830   2.391  10.489   8.892 -0.1258  2.0111  1.2646
23964SOL    HW276831   2.538  10.496   8.856 -0.2375  4.2607  1.1174
23965SOL     OW76832   7.522   7.487   0.784 -0.0622 -0.4162 -0.3348
23965SOL    HW176833   7.582   7.555   0.815 -1.6980  0.8916  0.1051
23965SOL    HW276834   7.474   7.459   0.861 -0.3082 -1.1530 -0.7425
23966SOL     OW76835   3.716   6.906   0.168 -0.3131  0.2098  0.1299
23966SOL    HW176836   3.638   6.852   0.168 -0.5532  0.5277  1.3831
23966SOL    HW276837   3.785   6.848   0.135 -0.8038 -0.4865  0.3039
23967SOL     OW76838   3.109   0.117   5.446  0.0490  0.0201 -0.7547
23967SOL    HW176839   3.033   0.146   5.496  0.1564 -1.9587  0.6545
23967SOL    HW276840   3.075   0.097   5.359 -1.8491 -3.8578  0.6569
23968SOL     OW76841   7.568  11.566   2.380  0.1687  0.2144 -0.3030
23968SOL    HW176842   7.585  11.652   2.342  0.8448  0.4336  0.4559
23968SOL    HW276843   7.599  11.573   2.470  0.0201 -0.7556 -0.1623
23969SOL     OW76844   6.168  10.565  10.439 -0.2491  0.0719 -0.2709
23969SOL    HW176845   6.236  10.619  10.481 -1.8316 -0.0433  2.6797
23969SOL    HW276846   6.106  10.629  10.404 -0.8189  0.2277  0.9617
23970SOL     OW76847  10.695   4.217   4.096  0.1239  0.3777  0.4668
23970SOL    HW176848  10.644   4.143   4.130 -1.0247 -0.1625 -2.1818
23970SOL    HW276849  10.782   4.205   4.135  0.8156 -3.9840 -1.7282
23971SOL     OW76850  10.109   4.048   9.656  0.3705  0.0593 -0.2848
23971SOL    HW176851  10.061   4.130   9.658  2.0640  1.1494 -1.5110
23971SOL    HW276852  10.112   4.025   9.563  0.1174 -1.2865  0.0186
23972SOL     OW76853   1.832   5.317   8.709 -0.1918 -0.0730 -0.4214
23972SOL    HW176854   1.780   5.395   8.688 -2.1420 -1.3229 -0.5097
23972SOL    HW276855   1.861   5.283   8.625 -0.9160 -0.4535 -0.5224
23973SOL     OW76856  11.414   6.315  10.352  0.3852 -0.2129  0.4644
23973SOL    HW176857  11.481   6.249  10.337  0.9697  0.7419 -1.5311
23973SOL    HW276858  11.377   6.294  10.438  1.8467 -1.9537  0.7134
23974SOL     OW76859  11.582   2.477  10.261  0.0378 -0.3708  0.3439
23974SOL    HW176860  11.544   2.564  10.271  0.4931 -0.2488  1.1116
23974SOL    HW276861  11.675   2.493  10.243 -0.0307 -0.6837 -0.3035
23975SOL     OW76862  11.653   8.377   2.668 -0.0809  0.1901  0.3952
23975SOL    HW176863  11.738   8.372   2.624 -0.1040  0.5621  0.3117
23975SOL    HW276864  11.652   8.299   2.724  1.3573  1.4250  2.2594
23976SOL     OW76865   3.698  10.744   3.548  0.1651 -0.4251 -0.6707
23976SOL    HW176866   3.617  10.727   3.500 -0.7234  0.7714  0.3043
23976SOL    HW276867   3.729  10.828   3.513 -0.2050  0.1899  0.4074
23977SOL     OW76868   7.105   0.200   3.811  0.0221 -0.8089  0.1757
23977SOL    HW176869   7.138   0.121   3.855  1.1979 -0.5450 -0.1818
23977SOL    HW276870   7.028   0.170   3.764  0.5356 -1.7908 -0.0814
23978SOL     OW76871   6.008   6.962   3.561 -0.4577  0.1828 -0.0314
23978SOL    HW176872   6.058   7.044   3.551  1.2918 -0.8712 -0.4510
23978SOL    HW276873   5.965   6.951   3.476  1.1720 -0.4544 -0.8212
23979SOL     OW76874   3.321  10.857   8.698  0.5020 -0.8057  0.1006
23979SOL    HW176875   3.392  10.904   8.654 -2.6229  3.6464 -0.8755
23979SOL    HW276876   3.311  10.903   8.782 -1.9295 -0.3641 -0.3523
23980SOL     OW76877   4.507   5.659   8.208 -0.2316 -0.0524  0.1985
23980SOL    HW176878   4.420   5.699   8.203  0.0731  0.4749 -1.8766
23980SOL    HW276879   4.523   5.625   8.119  1.7139 -0.0731  0.5121
23981SOL     OW76880  11.096  10.879  10.713 -0.2234 -0.2820  0.8501
23981SOL    HW176881  11.123  10.928  10.635 -2.0658  1.3654  1.1868
23981SOL    HW276882  11.026  10.821  10.682  1.0972 -1.9009  0.7186
23982SOL     OW76883   3.028   4.520   7.763  0.6971 -0.0783 -0.0183
23982SOL    HW176884   3.090   4.572   7.712 -1.2084  1.5836 -0.7476
23982SOL    HW276885   2.983   4.584   7.818 -0.2735 -1.2757  0.6212
23983SOL     OW76886   8.253   5.155   9.868 -0.6613  0.4892 -0.4428
23983SOL    HW176887   8.209   5.097   9.806 -1.6311 -0.0889  0.7477
23983SOL    HW276888   8.189   5.169   9.938  0.6903  0.4442  0.8560
23984SOL     OW76889   1.239   5.498   3.566  0.1305 -0.5858  0.3111
23984SOL    HW176890   1.163   5.555   3.557  0.1413 -0.4056  1.2484
23984SOL    HW276891   1.305   5.536   3.509 -0.5723 -0.9260 -0.7603
23985SOL     OW76892   2.696   4.677   7.646 -0.5989 -0.0252  0.0618
23985SOL    HW176893   2.743   4.654   7.566  0.2940  1.0593  0.2392
23985SOL    HW276894   2.609   4.704   7.617 -0.7358 -0.9450 -0.3973
23986SOL     OW76895   1.654  11.350   4.384 -0.5217 -0.1619 -0.3177
23986SOL    HW176896   1.587  11.418   4.381 -0.3423 -0.0279 -1.8485
23986SOL    HW276897   1.621  11.282   4.325  0.4611 -0.3119 -0.7088
23987SOL     OW76898   4.319   1.649   9.588 -0.4943 -0.0813  0.4172
23987SOL    HW176899   4.348   1.587   9.521 -0.5299 -0.6418  0.9206
23987SOL    HW276900   4.327   1.601   9.670 -2.6297 -0.1862  0.6030
23988SOL     OW76901   1.079   8.951   8.280 -0.3718  0.2614  0.7620
23988SOL    HW176902   1.132   9.016   8.326  0.7484 -0.1080  0.0309
23988SOL    HW276903   0.998   8.996   8.258  0.0414  1.1399  1.0253
23989SOL     OW76904  10.576   0.709   0.900 -0.1880  0.3065  0.3111
23989SOL    HW176905  10.634   0.646   0.942  1.0248  2.1226  1.4941
23989SOL    HW276906  10.500   0.657   0.872  0.5366 -1.5637  1.6323
23990SOL     OW76907   3.864   9.310   3.424 -0.0372 -0.3344 -0.2401
23990SOL    HW176908   3.834   9.397   3.454 -2.2558 -1.5211  1.3011
23990SOL    HW276909   3.870   9.319   3.329  0.2395  1.6300 -0.0884
23991SOL     OW76910  10.236   9.903   7.659 -0.2508  0.0782 -0.1727
23991SOL    HW176911  10.309   9.963   7.673 -1.1645  1.2801 -0.3326
23991SOL    HW276912  10.276   9.823   7.625  0.9841  0.6848 -0.1936
23992SOL     OW76913   8.382   5.296   8.670  0.0798  0.0734 -0.9197
23992SOL    HW176914   8.309   5.350   8.700 -0.1893 -0.1165 -1.2372
23992SOL    HW276915   8.460   5.341   8.705 -0.0972  0.9885 -1.6608
23993SOL     OW76916   9.972   5.001  11.514  0.5173  0.1790  0.2642
23993SOL    HW176917   9.884   4.991  11.551  0.3611  0.8093  0.0694
23993SOL    HW276918   9.957   5.017  11.421  0.8555 -0.0088  0.1746
23994SOL     OW76919   2.623   8.285   9.347 -0.1333 -0.0149 -0.4744
23994SOL    HW176920   2.653   8.223   9.413 -0.1349  0.5058  0.0135
23994SOL    HW276921   2.614   8.232   9.267  1.1102 -0.3880 -0.3919
23995SOL     OW76922  10.824  11.443   9.564 -0.1424  0.2015 -0.1449
23995SOL    HW176923  10.910  11.410   9.589 -0.5425 -0.6144  0.1778
23995SOL    HW276924  10.835  11.538   9.561  0.8905  0.0772 -0.5797
23996SOL     OW76925   0.515   8.405   5.540  0.2348 -0.5907 -0.6095
23996SOL    HW176926   0.485   8.496   5.534  1.0728 -0.2859 -0.3816
23996SOL    HW276927   0.460   8.357   5.479 -1.4532 -0.2697  0.5794
23997SOL     OW76928   8.240  11.350  11.371  0.1696  0.3454 -0.1758
23997SOL    HW176929   8.286  11.274  11.407 -1.0512 -0.2938  0.1002
23997SOL    HW276930   8.234  11.411  11.445 -2.4572 -1.0225  0.8869
23998SOL     OW76931   3.518   0.162   0.847 -0.0493  0.0316 -0.0486
23998SOL    HW176932   3.581   0.200   0.909 -0.3373 -0.3146  0.4589
23998SOL    HW276933   3.434   0.165   0.892 -0.3983  0.4292 -0.6994
23999SOL     OW76934   6.062  10.762  10.938 -0.2528 -0.2315  0.2977
23999SOL    HW176935   6.083  10.834  10.878 -1.5327 -0.0533  0.0334
23999SOL    HW276936   5.967  10.758  10.938 -0.2503 -2.9767 -0.9891
24000SOL     OW76937   8.963   2.521  10.135 -0.4050 -0.1057  0.0316
24000SOL    HW176938   9.029   2.570  10.085 -1.6030  1.2371 -0.3087
24000SOL    HW276939   8.985   2.538  10.226 -0.5205  0.6977 -0.0823
24001SOL     OW76940   5.251   8.261   8.181 -0.1492 -0.2920 -0.6807
24001SOL    HW176941   5.279   8.306   8.260  1.1494  1.4180 -2.0385
24001SOL    HW276942   5.270   8.169   8.198  2.0293  0.2731  0.2447
24002SOL     OW76943  11.376   6.627   3.229 -0.1369  0.5050  0.1980
24002SOL    HW176944  11.356   6.618   3.136 -0.8644  1.1909  0.2708
24002SOL    HW276945  11.290   6.631   3.271  0.1836  0.6060  0.8556
24003SOL     OW76946   0.678   2.544   6.229 -0.3841  0.3865  0.3754
24003SOL    HW176947   0.635   2.560   6.144  0.2873 -0.1499 -0.0782
24003SOL    HW276948   0.606   2.540   6.291 -0.8667  1.1813 -0.0993
24004SOL     OW76949   5.825   4.898   9.005  0.6152 -0.0856 -0.2821
24004SOL    HW176950   5.806   4.844   8.928  0.7240 -0.4433 -0.0631
24004SOL    HW276951   5.878   4.970   8.971  1.9759 -1.0590 -0.3104
24005SOL     OW76952   5.231   5.265   2.617  0.1929 -0.4011  0.1172
24005SOL    HW176953   5.320   5.233   2.635  0.5638  0.8392  0.5648
24005SOL    HW276954   5.228   5.352   2.655 -1.1085 -0.2672 -0.2292
24006SOL     OW76955   0.156   7.673   7.746 -0.0006 -0.8081  0.3372
24006SOL    HW176956   0.174   7.637   7.659  2.2685 -0.5716  0.6420
24006SOL    HW276957   0.069   7.713   7.738  0.1830 -0.7173 -1.8382
24007SOL     OW76958   2.479   6.460   7.521 -0.1828  0.1486  0.1917
24007SOL    HW176959   2.426   6.495   7.450 -2.0640 -1.7273  0.5828
24007SOL    HW276960   2.565   6.446   7.482 -0.1551  2.3612 -0.7171
24008SOL     OW76961   8.925   8.763   4.812  0.2281  0.0637  0.5861
24008SOL    HW176962   8.958   8.725   4.893  1.2102  2.6058  1.4796
24008SOL    HW276963   8.894   8.850   4.837 -1.7110  0.0150 -1.3568
24009SOL     OW76964   3.461   7.954   2.141  0.2374 -0.1645 -0.1984
24009SOL    HW176965   3.418   8.038   2.125 -0.7767 -0.2863  1.6184
24009SOL    HW276966   3.457   7.943   2.236  0.3076 -2.2933 -0.3933
24010SOL     OW76967   9.797   7.051   0.715 -0.0246 -0.3838 -0.6064
24010SOL    HW176968   9.769   7.049   0.624 -1.5612  0.1067 -0.1738
24010SOL    HW276969   9.716   7.041   0.766  0.3395  2.3330  0.7258
24011SOL     OW76970  11.322  10.198   0.126 -0.1094 -0.2185 -0.2386
24011SOL    HW176971  11.249  10.169   0.182 -1.8387 -0.5788 -2.5204
24011SOL    HW276972  11.400  10.178   0.177 -1.5589  0.1661  2.3359
24012SOL     OW76973   7.904   4.889   9.048 -0.3579 -0.0366 -0.3378
24012SOL    HW176974   7.981   4.942   9.067 -1.1245  1.2494 -0.6998
24012SOL    HW276975   7.878   4.853   9.133  0.8398 -0.7773 -0.2727
24013SOL     OW76976   1.834  10.814   5.330  0.1611 -0.1341 -1.0685
24013SOL    HW176977   1.854  10.722   5.311 -1.1901 -0.3733 -1.3787
24013SOL    HW276978   1.887  10.864   5.268  0.8324 -0.6973 -0.9615
24014SOL     OW76979   1.776   9.689   4.126 -0.6661 -0.0790  0.3118
24014SOL    HW176980   1.827   9.608   4.126  0.8475  0.8400 -0.1524
24014SOL    HW276981   1.747   9.700   4.217 -0.0345 -0.6221  0.5835
24015SOL     OW76982   1.633   9.987  10.750  0.0642 -0.4341  0.4384
24015SOL    HW176983   1.723  10.009  10.774  0.0672 -0.0649  0.1101
24015SOL    HW276984   1.588   9.975  10.833  0.8580 -2.5298  0.6198
24016SOL     OW76985   8.241   7.193  10.554 -0.4661 -0.2284 -0.3491
24016SOL    HW176986   8.178   7.238  10.498  0.1051  1.7272  0.5006
24016SOL    HW276987   8.318   7.249  10.554  0.4178 -1.3896  0.4961
24017SOL     OW76988   3.408   1.792  11.355  0.7936 -0.3341 -0.5311
24017SOL    HW176989   3.428   1.749  11.272 -0.3605 -1.9373 -0.0294
24017SOL    HW276990   3.345   1.861  11.331 -1.3959 -2.2757 -0.7967
24018SOL     OW76991   7.669   4.129   9.296 -0.1970  0.0692 -0.2136
24018SOL    HW176992   7.686   4.124   9.201  1.0353  1.4994 -0.1085
24018SOL    HW276993   7.575   4.113   9.304 -0.0751 -1.6439 -1.5157
24019SOL     OW76994  10.862  10.882   0.435 -0.3424 -0.0428 -0.0184
24019SOL    HW176995  10.890  10.893   0.344  0.8698  1.8460  0.5141
24019SOL    HW276996  10.927  10.823   0.473 -0.4786 -0.3302 -0.2343
24020SOL     OW76997   1.771   2.061   3.433  0.7804  0.3133 -0.6872
24020SOL    HW176998   1.762   2.140   3.486  0.9652  0.7998 -1.3664
24020SOL    HW276999   1.723   2.080   3.352 -2.7717 -1.7920  0.7186
24021SOL     OW77000   7.157   5.730   5.590  0.8978  0.1013 -0.1659
24021SOL    HW177001   7.244   5.695   5.611  1.1383  0.5448 -0.3960
24021SOL    HW277002   7.130   5.682   5.512  1.0411  0.1310 -0.2351
24022SOL     OW77003  10.286   6.055   6.862  0.1599  0.2090 -0.2778
24022SOL    HW177004  10.360   6.114   6.879 -0.4672  0.8962  0.1450
24022SOL    HW277005  10.308   6.014   6.778  2.2828 -1.6030  1.0512
24023SOL     OW77006   0.492   5.317   4.006  0.2633  0.3096  0.2261
24023SOL    HW177007   0.432   5.382   4.042 -0.2251 -1.4207  2.8112
24023SOL    HW277008   0.538   5.363   3.935 -2.7395  2.2588 -0.6324
24024SOL     OW77009  10.845   8.400   7.962  0.2975 -0.3736  0.3332
24024SOL    HW177010  10.916   8.419   7.901 -0.6196  1.3240 -0.2616
24024SOL    HW277011  10.885   8.345   8.029  2.4199  1.2547  0.4960
24025SOL     OW77012   4.081   4.220   8.559 -0.2052 -0.2989  0.0065
24025SOL    HW177013   4.030   4.220   8.640 -1.3948 -1.1380 -0.7215
24025SOL    HW277014   4.159   4.271   8.581 -1.0373  0.4706  1.3392
24026SOL     OW77015   5.934   7.927   2.998  0.6828  0.0385 -0.1982
24026SOL    HW177016   5.859   7.941   3.056  0.9921 -2.0625  0.8069
24026SOL    HW277017   6.002   7.986   3.031  0.2539  0.2024  0.4069
24027SOL     OW77018   0.196  10.161  10.050  0.3151 -0.3278  0.4813
24027SOL    HW177019   0.186  10.126  10.139  0.4910 -0.3705  0.4846
24027SOL    HW277020   0.202  10.083   9.995  3.2299 -0.3816  0.7519
24028SOL     OW77021   5.793  11.362   1.025 -0.0638 -0.2849  0.3863
24028SOL    HW177022   5.699  11.370   1.040  0.1554  0.7026  1.3881
24028SOL    HW277023   5.800  11.299   0.953 -1.6273  1.6053 -1.5700
24029SOL     OW77024   9.142   9.741   4.407 -0.3977  0.2033 -0.0988
24029SOL    HW177025   9.131   9.836   4.413 -1.4008  0.0626  0.4570
24029SOL    HW277026   9.130   9.722   4.314  2.7716  0.9319 -0.7792
24030SOL     OW77027  10.022   3.097   2.241  0.1379  0.1057  0.3199
24030SOL    HW177028   9.951   3.161   2.247  0.2327  0.2780 -0.2600
24030SOL    HW277029  10.064   3.100   2.327  0.1780  0.8735  0.2856
24031SOL     OW77030   8.557   8.692  10.447  0.4055 -0.2889 -0.0973
24031SOL    HW177031   8.507   8.643  10.512  0.6269 -1.2481 -0.6350
24031SOL    HW277032   8.583   8.772  10.492 -0.5675 -0.3334  0.5732
24032SOL     OW77033   9.650   2.080   3.910  0.3596  0.1038  0.0566
24032SOL    HW177034   9.576   2.045   3.860 -0.5880  1.8173  0.1712
24032SOL    HW277035   9.727   2.052   3.861 -0.3768 -1.0952 -0.4812
24033SOL     OW77036   6.296   4.775   0.121  0.3355 -0.1139 -0.0572
24033SOL    HW177037   6.384   4.747   0.097  0.0314  0.2494 -1.7442
24033SOL    HW277038   6.294   4.868   0.098  0.4449  0.6776  2.8149
24034SOL     OW77039   5.549   3.829   3.611 -0.2962  0.3829 -0.1098
24034SOL    HW177040   5.601   3.892   3.661 -0.2691  0.1502  0.1590
24034SOL    HW277041   5.477   3.806   3.669  0.3954 -0.8026  0.3003
24035SOL     OW77042  10.992   3.646   9.669  0.5174 -0.0130  0.0572
24035SOL    HW177043  11.052   3.721   9.669 -0.4444  0.8249  1.8312
24035SOL    HW277044  11.041   3.577   9.715  0.1001  0.7155  1.6355
24036SOL     OW77045   8.505   2.547  10.117  0.5041  0.6601  0.1365
24036SOL    HW177046   8.506   2.520  10.209  2.6751 -0.4157 -0.1571
24036SOL    HW277047   8.504   2.465  10.068  2.0065  1.1696 -0.7847
24037SOL     OW77048   2.687  10.221   7.936 -0.0304  0.1156  0.1701
24037SOL    HW177049   2.748  10.244   7.866 -0.5157 -0.5329 -0.4833
24037SOL    HW277050   2.657  10.133   7.913  0.7083 -0.6200  1.8403
24038SOL     OW77051  11.459  10.811   6.127 -0.2106 -0.3434  0.0308
24038SOL    HW177052  11.532  10.837   6.070  0.2096  0.0516  0.7338
24038SOL    HW277053  11.448  10.718   6.109  2.2413 -1.0993  1.7584
24039SOL     OW77054   6.047  10.805   3.684  0.2409  0.3682  0.2046
24039SOL    HW177055   6.094  10.887   3.672 -1.5602  1.5264  0.6459
24039SOL    HW277056   6.074  10.751   3.609  1.4043  1.3717 -0.1387
24040SOL     OW77057   7.489   5.067   1.542  0.6533 -0.4489 -0.1611
24040SOL    HW177058   7.452   5.057   1.454  1.6022 -0.6090 -0.5523
24040SOL    HW277059   7.492   4.978   1.578  1.8392 -0.6265 -0.6382
24041SOL     OW77060   8.903   5.657   9.966  0.9096 -0.1557 -0.3564
24041SOL    HW177061   8.815   5.692   9.958  1.8076  2.1705 -0.9187
24041SOL    HW277062   8.918   5.652  10.061  0.1837 -0.5843 -0.2604
24042SOL     OW77063   4.120   1.750   8.831 -0.0800 -0.4663  0.3317
24042SOL    HW177064   4.049   1.717   8.775 -2.2680  3.9571  0.0269
24042SOL    HW277065   4.178   1.796   8.771 -0.2494  0.9372  1.2004
24043SOL     OW77066   2.397  10.212   5.525 -0.2401 -0.0084 -0.4404
24043SOL    HW177067   2.388  10.291   5.577  1.0250 -1.2670  1.8995
24043SOL    HW277068   2.313  10.167   5.534  0.7799 -1.5552  3.1262
24044SOL     OW77069   3.136   6.473   6.615  0.3669  0.0000 -0.1351
24044SOL    HW177070   3.186   6.436   6.542  1.7118  2.6172 -0.6760
24044SOL    HW277071   3.080   6.539   6.575 -1.4639 -0.8765  0.8531
24045SOL     OW77072   7.264   7.064   3.818 -0.1128  0.1847  0.1272
24045SOL    HW177073   7.299   7.015   3.892 -2.1056  0.9256  1.6726
24045SOL    HW277074   7.239   6.998   3.754 -0.7418 -0.6727  1.2305
24046SOL     OW77075   0.253   2.499   2.319 -0.5342  0.7404 -0.0622
24046SOL    HW177076   0.284   2.525   2.232  2.0919  0.7426  0.7929
24046SOL    HW277077   0.244   2.582   2.367  1.6613  0.5580  0.7469
24047SOL     OW77078   2.834   7.236   0.218  0.2837  0.0981 -0.6839
24047SOL    HW177079   2.824   7.257   0.125 -0.8676  0.6528 -0.4577
24047SOL    HW277080   2.889   7.306   0.252  0.4869  0.0430 -0.9015
24048SOL     OW77081   9.824  11.160   5.839  0.2094 -0.0883  0.4354
24048SOL    HW177082   9.759  11.147   5.770  0.4648  0.1667  0.1427
24048SOL    HW277083   9.877  11.081   5.838 -1.1125 -1.0521  1.8033
24049SOL     OW77084   8.508   1.505   1.894 -0.3169  0.3655 -0.2019
24049SOL    HW177085   8.504   1.600   1.897 -0.6783  0.3632  3.3490
24049SOL    HW277086   8.592   1.483   1.936 -2.0564 -0.8258  2.9702
24050SOL     OW77087   0.404   5.657   3.366  0.4070 -0.3142  0.4020
24050SOL    HW177088   0.464   5.731   3.371 -0.6222  0.5471  0.4532
24050SOL    HW277089   0.384   5.648   3.273 -2.1625  1.7766  0.6406
24051SOL     OW77090   6.352   1.345   7.105  0.0650 -0.2179  0.0462
24051SOL    HW177091   6.391   1.275   7.158 -0.5541 -0.3266  0.3669
24051SOL    HW277092   6.269   1.308   7.074 -1.2188  1.0349  1.8303
24052SOL     OW77093  11.401   2.379   0.602 -0.2445  0.0751  0.4804
24052SOL    HW177094  11.307   2.370   0.617 -0.3134 -1.8371 -0.6589
24052SOL    HW277095  11.442   2.341   0.680 -0.3121  2.7716  1.9369
24053SOL     OW77096   8.805   6.881   3.265  0.4194  0.3235  0.5871
24053SOL    HW177097   8.719   6.867   3.305  0.1623  0.3329  0.0493
24053SOL    HW277098   8.852   6.937   3.327  0.3505 -0.3909  1.2976
24054SOL     OW77099  11.484   4.695   3.023 -0.4758  0.3044 -0.3920
24054SOL    HW177100  11.522   4.641   2.953 -1.1044  0.0173 -0.5216
24054SOL    HW277101  11.504   4.647   3.103 -1.2457 -0.2673 -0.5267
24055SOL     OW77102   6.822   7.602   3.194  0.1338 -0.4774  0.4434
24055SOL    HW177103   6.842   7.696   3.188  1.8132 -0.8316 -0.1348
24055SOL    HW277104   6.873   7.563   3.124  0.9649 -2.0368  1.8416
24056SOL     OW77105   6.654   7.839   7.431  0.1749 -0.1987 -0.6908
24056SOL    HW177106   6.748   7.836   7.413 -0.2734  0.2247 -3.6474
24056SOL    HW277107   6.618   7.764   7.383 -1.2574  1.3109 -2.1498
24057SOL     OW77108   3.028   5.268   9.477  0.1262  0.8489  0.2423
24057SOL    HW177109   3.022   5.214   9.398 -0.7225  1.9198 -0.4688
24057SOL    HW277110   3.019   5.207   9.549 -2.1396  0.1318 -0.5481
24058SOL     OW77111   7.744   4.086   3.944 -0.2215  0.4055  0.5111
24058SOL    HW177112   7.832   4.071   3.978 -0.1271  1.1328  0.6019
24058SOL    HW277113   7.737   4.027   3.869  0.8935  1.4146 -0.4236
24059SOL     OW77114   1.517   8.454   2.956  0.0497 -0.3499 -0.3992
24059SOL    HW177115   1.503   8.425   2.866  0.5351 -1.5030 -0.1264
24059SOL    HW277116   1.432   8.487   2.984 -0.1977 -0.3169 -1.1692
24060SOL     OW77117   5.814   0.758  11.000 -0.2662  0.2945 -0.0827
24060SOL    HW177118   5.862   0.778  11.081 -0.9252 -0.5400  0.5291
24060SOL    HW277119   5.776   0.672  11.016 -1.9621  0.9308 -0.5441
24061SOL     OW77120   8.094   7.681   8.058  0.4067 -0.0530  0.3962
24061SOL    HW177121   8.091   7.678   7.962  0.7485  1.2116  0.3355
24061SOL    HW277122   8.023   7.739   8.083 -1.7303 -2.7772  1.1245
24062SOL     OW77123   7.565  11.232   3.659  0.2035 -0.2446 -0.1039
24062SOL    HW177124   7.554  11.186   3.742  0.8173 -1.9469 -0.9026
24062SOL    HW277125   7.549  11.165   3.593 -0.8479  1.2077 -1.3880
24063SOL     OW77126   9.421   8.158   9.631 -0.0600 -0.1502  0.6633
24063SOL    HW177127   9.513   8.137   9.619  0.0248 -0.5349  1.8897
24063SOL    HW277128   9.407   8.237   9.579  1.3704  0.8911  1.7905
24064SOL     OW77129   2.908   6.660   4.130  0.3680 -0.2020  0.0417
24064SOL    HW177130   2.972   6.603   4.088  0.9252  0.8209 -0.5340
24064SOL    HW277131   2.954   6.697   4.205  0.0416 -0.4400  0.3592
24065SOL     OW77132   9.939   5.110   0.379  0.3268 -0.2550  1.0811
24065SOL    HW177133  10.010   5.150   0.330 -0.3444  0.3312  0.5734
24065SOL    HW277134   9.861   5.121   0.324  0.0235 -1.8406  1.1257
24066SOL     OW77135  11.599   8.037   3.223 -0.0776 -0.6045  0.1236
24066SOL    HW177136  11.507   8.043   3.247 -0.1831 -1.9003  0.1317
24066SOL    HW277137  11.642   7.999   3.300  0.4863  0.0270  0.1364
24067SOL     OW77138   9.660  10.981   4.147  0.0854 -0.4293  0.0105
24067SOL    HW177139   9.728  10.931   4.102 -0.4435 -0.6527 -0.5601
24067SOL    HW277140   9.607  10.915   4.191 -1.7822 -0.6429 -2.3181
24068SOL     OW77141   9.484  10.222   2.575  0.3805  0.6346 -0.2473
24068SOL    HW177142   9.499  10.288   2.643  1.7589 -1.1366  1.2725
24068SOL    HW277143   9.469  10.141   2.624 -0.4162 -0.3800 -2.0665
24069SOL     OW77144   3.625   4.543   0.170  0.8296  0.0354 -0.1995
24069SOL    HW177145   3.570   4.525   0.094  0.4414  2.2397 -0.4937
24069SOL    HW277146   3.599   4.476   0.234  0.5258 -1.2966 -1.6444
24070SOL     OW77147  11.118   8.815   3.376  0.4711  0.3839 -0.0435
24070SOL    HW177148  11.115   8.724   3.405 -0.6144  0.0380 -1.1419
24070SOL    HW277149  11.045   8.857   3.422  1.1574  0.7831  0.6936
24071SOL     OW77150   1.678   9.073   1.209 -0.1112  0.2002 -0.1894
24071SOL    HW177151   1.613   9.127   1.164 -1.2296 -1.1528 -0.2613
24071SOL    HW277152   1.727   9.134   1.264 -0.3597  1.5006 -1.3588
24072SOL     OW77153  10.920   0.874   7.598  0.2223 -0.2257 -0.7504
24072SOL    HW177154  10.876   0.938   7.542  2.4660  0.1137 -2.2657
24072SOL    HW277155  10.947   0.924   7.674 -1.2951 -0.2833 -0.1355
24073SOL     OW77156   7.325   0.476   5.523  0.8405  0.7904  0.2285
24073SOL    HW177157   7.235   0.455   5.498  0.7908  0.5935  0.5738
24073SOL    HW277158   7.377   0.457   5.445  0.8090 -0.6663  0.5380
24074SOL     OW77159   6.043   2.504   7.755  0.0099  0.1787 -0.1358
24074SOL    HW177160   6.133   2.470   7.750  0.6365  1.4114  1.5929
24074SOL    HW277161   6.052   2.598   7.738 -1.0951  0.1788 -0.8001
24075SOL     OW77162   0.905  10.361   0.896  0.0766 -0.2294 -0.1537
24075SOL    HW177163   0.894  10.347   0.990  1.9561  1.1984  0.3545
24075SOL    HW277164   1.000  10.371   0.884 -0.1208 -0.2703 -2.1988
24076SOL     OW77165   1.661   5.087   3.080 -0.0610 -0.2083  0.2463
24076SOL    HW177166   1.706   5.164   3.043 -0.6958  0.1644  0.2372
24076SOL    HW277167   1.641   5.111   3.170  0.8968 -0.8682  0.6502
24077SOL     OW77168   9.594   5.110   6.512 -0.0658  0.0799  0.3318
24077SOL    HW177169   9.592   5.067   6.598  0.0097  0.9825  0.7918
24077SOL    HW277170   9.678   5.156   6.510 -1.2997  2.4931  1.0017
24078SOL     OW77171   2.594   4.126   2.048 -0.2948 -0.5222 -0.1884
24078SOL    HW177172   2.583   4.213   2.088  0.3499 -0.5544  0.0621
24078SOL    HW277173   2.510   4.109   2.005 -0.6329 -0.0354  0.2718
24079SOL     OW77174   2.645  10.962  10.616 -0.3475  0.1531  0.2777
24079SOL    HW177175   2.657  10.982  10.709 -1.7094 -2.5324  1.1356
24079SOL    HW277176   2.570  10.903  10.614 -0.2416  0.0177 -2.5376
24080SOL     OW77177   4.027   8.337   8.997 -1.3592  0.2654  0.1826
24080SOL    HW177178   4.103   8.288   9.028 -2.5065 -0.3649  2.2753
24080SOL    HW277179   3.965   8.269   8.970 -0.6078  0.7993 -3.2318
24081SOL     OW77180   5.779   9.189   7.287  0.2190  0.2265 -0.2229
24081SOL    HW177181   5.783   9.214   7.379  1.1047 -1.5255  0.2626
24081SOL    HW277182   5.869   9.168   7.263  0.0233  0.7693 -1.5470
24082SOL     OW77183   2.768   8.848   7.984  0.4010 -0.3539 -0.6165
24082SOL    HW177184   2.731   8.899   7.913 -2.2164 -1.8662 -0.4593
24082SOL    HW277185   2.799   8.767   7.943 -1.5974 -1.4615 -0.0468
24083SOL     OW77186   7.229  11.316   8.644  0.1071 -0.2685  0.0177
24083SOL    HW177187   7.201  11.314   8.736 -1.8248  1.0835 -0.4875
24083SOL    HW277188   7.164  11.264   8.598 -0.2755  0.9404 -0.8632
24084SOL     OW77189   8.061   7.159   8.769 -0.1804  0.0245 -0.4112
24084SOL    HW177190   8.118   7.220   8.815 -0.4160 -0.8572  1.1057
24084SOL    HW277191   8.018   7.212   8.701 -1.2637  1.8236  1.5681
24085SOL     OW77192   0.869   6.082   2.325 -0.6086 -0.2114  0.3528
24085SOL    HW177193   0.945   6.026   2.342  0.3717  1.1638  0.6807
24085SOL    HW277194   0.808   6.026   2.276 -0.4014 -2.0510  2.0753
24086SOL     OW77195   0.249   9.638   7.907 -0.1447  0.4024  0.1945
24086SOL    HW177196   0.208   9.685   7.979  0.9890  2.8349 -0.6332
24086SOL    HW277197   0.221   9.685   7.829  1.5171  0.0915 -0.6333
24087SOL     OW77198   5.645   4.715   8.137  0.2100 -0.2789  0.1715
24087SOL    HW177199   5.590   4.793   8.141  3.0731  1.9111 -0.1143
24087SOL    HW277200   5.644   4.680   8.227 -0.7262  0.3371  0.4169
24088SOL     OW77201   5.909   9.651   5.911  0.0650  0.1472 -0.0863
24088SOL    HW177202   5.956   9.654   5.827  1.0129 -0.0100  0.4150
24088SOL    HW277203   5.977   9.629   5.975 -0.4217  1.3874  0.8874
24089SOL     OW77204   5.226   5.374   2.042  0.1226  0.8250  0.0550
24089SOL    HW177205   5.298   5.364   2.104  1.1982  0.7369 -1.1886
24089SOL    HW277206   5.211   5.286   2.008 -1.2193  0.6665  0.9801
24090SOL     OW77207   9.200   1.727   6.199  0.9175  0.7823  0.7965
24090SOL    HW177208   9.179   1.677   6.278  1.8498 -2.2520 -0.7212
24090SOL    HW277209   9.296   1.735   6.200  1.1492 -0.9616 -0.8402
24091SOL     OW77210   4.420   0.729   7.305 -0.3203  0.1143 -0.0829
24091SOL    HW177211   4.326   0.715   7.315 -0.6502  2.4363  0.5330
24091SOL    HW277212   4.427   0.807   7.251  1.3201 -0.7510 -1.2244
24092SOL     OW77213  11.319   1.552   9.876 -0.2656  0.3570 -0.2295
24092SOL    HW177214  11.372   1.530   9.800 -0.4624  1.1123 -0.5983
24092SOL    HW277215  11.380   1.590   9.939 -0.3882  1.5493 -0.7872
24093SOL     OW77216   4.392   8.547   5.902 -0.2496 -0.3312 -0.6998
24093SOL    HW177217   4.326   8.574   5.965 -2.4741 -1.4908 -2.3935
24093SOL    HW277218   4.342   8.510   5.829  2.3422 -3.2312 -1.1961
24094SOL     OW77219   1.426   2.163  10.898 -0.6687 -0.1993 -0.3813
24094SOL    HW177220   1.415   2.138  10.990 -1.6037  0.3377 -0.3342
24094SOL    HW277221   1.366   2.237  10.886 -1.7663 -1.2818 -1.8551
24095SOL     OW77222   2.412   2.608   7.129  0.0076 -0.2230 -0.5407
24095SOL    HW177223   2.351   2.615   7.202 -0.7829 -1.9643 -0.9845
24095SOL    HW277224   2.495   2.583   7.169 -0.4352 -1.2174 -0.2171
24096SOL     OW77225   1.565   7.710   3.382  0.2623  0.1472  0.1742
24096SOL    HW177226   1.586   7.802   3.400  0.3538  0.3193 -0.7453
24096SOL    HW277227   1.636   7.681   3.324 -0.2327 -0.2497 -0.2327
24097SOL     OW77228   8.973   8.202   2.759  0.0636  0.0523  0.3686
24097SOL    HW177229   9.011   8.195   2.846 -0.0822 -0.2216  0.4117
24097SOL    HW277230   9.048   8.214   2.700  0.2051 -0.3211  0.4694
24098SOL     OW77231   2.599   2.845   5.100  0.0002 -0.2834  0.4270
24098SOL    HW177232   2.534   2.777   5.084 -0.3247 -0.1438  1.1160
24098SOL    HW277233   2.684   2.801   5.090 -0.2075 -0.8112  0.9475
24099SOL     OW77234  10.739  10.964   8.602  0.1276  0.5507 -0.0679
24099SOL    HW177235  10.692  11.047   8.588  3.2493  2.1722 -2.2986
24099SOL    HW277236  10.811  10.967   8.539  1.8938 -2.7617  1.5402
24100SOL     OW77237   7.757   8.123   6.086  0.5927  0.6795  0.3198
24100SOL    HW177238   7.778   8.154   6.174 -0.1758  4.6915 -0.6903
24100SOL    HW277239   7.837   8.136   6.036  0.9455 -1.3335  0.2734
24101SOL     OW77240   3.348   8.946   2.727 -0.4900  0.1628 -0.5112
24101SOL    HW177241   3.270   8.898   2.700  0.4834 -1.0388 -1.2689
24101SOL    HW277242   3.363   8.921   2.818  0.4915 -1.7004 -1.1419
24102SOL     OW77243   4.645   1.265  11.282  0.4427  0.2072  0.7433
24102SOL    HW177244   4.647   1.342  11.226 -3.1182  1.6352  2.2550
24102SOL    HW277245   4.612   1.194  11.226  4.1614 -0.5500 -0.7736
24103SOL     OW77246   8.287   0.319   9.356  0.3912  0.0302 -0.2993
24103SOL    HW177247   8.241   0.273   9.285 -0.0215 -0.3613  0.2105
24103SOL    HW277248   8.220   0.331   9.423  1.3622 -1.8935  1.1013
24104SOL     OW77249   3.478   2.585   9.236 -0.5105 -0.0594 -0.2876
24104SOL    HW177250   3.546   2.544   9.289 -1.0702 -1.0741 -0.3289
24104SOL    HW277251   3.522   2.610   9.155 -0.1993 -0.7924 -0.3516
24105SOL     OW77252   7.434   6.523   7.729 -0.6222  0.3397 -0.1305
24105SOL    HW177253   7.459   6.431   7.720 -0.0126  0.4184  0.6458
24105SOL    HW277254   7.508   6.572   7.694  0.1310  0.5638  1.6359
24106SOL     OW77255  11.656   1.167   3.112 -0.4397  0.0212 -0.7035
24106SOL    HW177256  11.571   1.168   3.068  0.5985  0.7321 -2.8411
24106SOL    HW277257  11.693   1.081   3.091 -0.5005 -0.1996  0.0374
24107SOL     OW77258   8.069   9.435   1.345  0.4621 -0.1167 -0.3404
24107SOL    HW177259   8.116   9.498   1.293  2.1522  0.5862  1.8840
24107SOL    HW277260   8.018   9.487   1.407 -2.1464 -0.8954 -1.6820
24108SOL     OW77261   2.722   1.660   3.384 -0.4735  0.6214 -0.0607
24108SOL    HW177262   2.746   1.717   3.310 -0.7270  1.1851  0.2821
24108SOL    HW277263   2.774   1.581   3.371  0.8353  1.4123  0.1309
24109SOL     OW77264  11.561   1.722  11.241  0.5239  0.0446  0.2793
24109SOL    HW177265  11.530   1.750  11.327 -0.9220 -1.0292  0.1485
24109SOL    HW277266  11.633   1.662  11.259 -0.0285 -0.4816  0.7790
24110SOL     OW77267   3.223   0.060   0.262  0.4373 -0.0895 -0.0519
24110SOL    HW177268   3.152  -0.003   0.274 -1.0709  1.5901  0.2973
24110SOL    HW277269   3.303   0.007   0.262 -0.8631 -2.2730 -2.0778
24111SOL     OW77270   3.343  11.003  11.559  0.7176  0.2447  0.1288
24111SOL    HW177271   3.306  11.022  11.473  1.9279  1.6538 -0.1228
24111SOL    HW277272   3.420  10.950  11.541  0.6101 -0.0155  0.4106
24112SOL     OW77273   5.908   5.209   3.614  0.1643 -0.0055  0.4075
24112SOL    HW177274   5.899   5.241   3.524  0.7843  1.1554  0.7372
24112SOL    HW277275   5.882   5.283   3.668 -2.2396 -1.3230  1.2320
24113SOL     OW77276   5.318  11.557   1.067 -0.1409  0.4220 -0.2979
24113SOL    HW177277   5.384  11.610   1.021 -0.0285  0.4110 -0.1518
24113SOL    HW277278   5.242  11.559   1.009  0.3810 -0.5618 -1.0490
24114SOL     OW77279   0.653   5.600   8.469  0.3609  0.8119 -0.1654
24114SOL    HW177280   0.640   5.630   8.379 -0.9129  1.3687  0.1827
24114SOL    HW277281   0.658   5.680   8.521 -0.2478  0.4737  0.4232
24115SOL     OW77282   5.077   8.547  10.476 -0.4323  0.3716 -0.0939
24115SOL    HW177283   5.155   8.535  10.421 -0.2575  0.2783  0.1757
24115SOL    HW277284   5.046   8.635  10.454 -1.2963 -0.2546 -1.5310
24116SOL     OW77285   3.048   6.812   0.933  0.4753 -0.0068 -0.3803
24116SOL    HW177286   3.073   6.753   0.861  0.3754 -1.8654  1.0469
24116SOL    HW277287   2.966   6.776   0.966 -0.1480  1.5833 -0.1336
24117SOL     OW77288   1.863  10.624   5.782 -0.4527  0.2143 -0.2351
24117SOL    HW177289   1.838  10.538   5.749 -1.8340  0.4523  0.1116
24117SOL    HW277290   1.799  10.642   5.852 -0.1008  1.4564 -0.2118
24118SOL     OW77291   3.567   4.553   1.622  0.5614  0.1030  0.4738
24118SOL    HW177292   3.636   4.597   1.572 -1.0108 -0.9701 -2.9160
24118SOL    HW277293   3.594   4.461   1.626 -0.0898 -0.1127  0.1337
24119SOL     OW77294   4.376   8.807   2.975 -0.1776  0.2807 -0.3654
24119SOL    HW177295   4.357   8.757   3.054 -1.6858 -0.0367 -0.8943
24119SOL    HW277296   4.369   8.744   2.904  0.4317  0.7132 -0.8160
24120SOL     OW77297   4.261   5.763   8.174 -0.1727 -0.3543  0.9028
24120SOL    HW177298   4.196   5.734   8.110 -0.3612  2.0498 -0.1441
24120SOL    HW277299   4.214   5.823   8.231  0.2563 -1.6431  2.6818
24121SOL     OW77300   2.345  10.445   9.642 -0.0704 -0.5517  0.5949
24121SOL    HW177301   2.432  10.478   9.665  0.1758 -0.9478  0.2582
24121SOL    HW277302   2.288  10.522   9.643  0.6648  0.0530 -1.0968
24122SOL     OW77303  11.157   7.370   8.462 -0.3879  0.6521  0.6869
24122SOL    HW177304  11.171   7.295   8.520  0.1432  1.0823  1.1250
24122SOL    HW277305  11.096   7.338   8.395  0.7000 -0.5072  0.2179
24123SOL     OW77306  10.015   9.447   7.117  0.1645 -0.4315  0.2489
24123SOL    HW177307   9.952   9.457   7.046 -0.5889 -0.6889  0.8637
24123SOL    HW277308  10.058   9.533   7.123 -1.1111  0.2075  0.7141
24124SOL     OW77309   7.463   6.468   5.779  0.2221  0.2838  0.4947
24124SOL    HW177310   7.463   6.372   5.775  1.2753  0.2579  0.8556
24124SOL    HW277311   7.382   6.490   5.826  0.7869 -0.5003  1.8808
24125SOL     OW77312   8.730   0.016   9.325  0.1787 -0.0006 -0.1171
24125SOL    HW177313   8.649   0.048   9.365 -0.0666 -1.4502  0.6457
24125SOL    HW277314   8.798   0.033   9.390  0.1498 -0.4527  0.0373
24126SOL     OW77315   3.693   7.555   9.361 -0.3584 -0.4643  0.4892
24126SOL    HW177316   3.742   7.502   9.298 -1.9750 -0.8864 -0.4624
24126SOL    HW277317   3.653   7.625   9.309 -0.4317  0.1222  1.3078
24127SOL     OW77318   8.475   4.615   3.293 -0.3697 -0.1559 -0.5177
24127SOL    HW177319   8.428   4.683   3.341 -0.5290 -1.9904  2.1754
24127SOL    HW277320   8.407   4.552   3.269  0.1068 -0.6196 -0.6627
24128SOL     OW77321   5.779   1.108   4.520  0.0902 -0.1559  0.3548
24128SOL    HW177322   5.741   1.027   4.553  0.4063 -0.2290  0.5418
24128SOL    HW277323   5.873   1.095   4.527  0.3991 -1.5207 -3.6192
24129SOL     OW77324  11.676  10.855   9.779 -0.1950 -0.1689 -0.1752
24129SOL    HW177325  11.666  10.858   9.684 -0.2205 -1.4607 -0.2328
24129SOL    HW277326  11.684  10.762   9.800  1.2221  0.1702  0.9524
24130SOL     OW77327   2.925   9.232  11.119  0.2012  0.3945 -0.3179
24130SOL    HW177328   3.002   9.227  11.062  0.2993  1.6727 -0.3231
24130SOL    HW277329   2.857   9.185  11.070  0.3855  1.1305 -1.3235
24131SOL     OW77330  10.975  11.236  11.618  0.0514 -0.0869 -0.7218
24131SOL    HW177331  10.898  11.208  11.669  0.0749  1.5187  0.2729
24131SOL    HW277332  10.984  11.170  11.550 -2.3637 -0.2173 -1.0167
24132SOL     OW77333   6.577  10.864   4.253 -0.5640 -0.3735 -0.4424
24132SOL    HW177334   6.526  10.945   4.255 -0.6241 -0.4186  0.7244
24132SOL    HW277335   6.661  10.890   4.216 -1.1626 -0.1462 -1.6964
24133SOL     OW77336   9.783   1.179  11.274 -0.3361 -0.2545 -0.1309
24133SOL    HW177337   9.720   1.237  11.232 -1.1280 -0.6527  0.4666
24133SOL    HW277338   9.729   1.111  11.314  0.5904 -1.9369 -1.5772
24134SOL     OW77339   4.770   5.601   9.966 -1.0242 -0.2876 -0.4806
24134SOL    HW177340   4.841   5.664   9.979 -1.3440 -0.1781  0.8421
24134SOL    HW277341   4.810   5.516   9.986 -1.1652 -0.2616 -0.0749
24135SOL     OW77342   5.882   8.733   8.870  0.1172 -0.0923 -0.0498
24135SOL    HW177343   5.849   8.805   8.925  1.7525  0.2349  0.5714
24135SOL    HW277344   5.830   8.657   8.896 -1.4108  0.7678 -0.4719
24136SOL     OW77345   9.729   3.902   4.058  0.6389  0.4223 -0.1486
24136SOL    HW177346   9.666   3.970   4.083  0.5433 -0.7930  3.5827
24136SOL    HW277347   9.812   3.932   4.093  0.8037 -0.8481  0.6177
24137SOL     OW77348  11.354  10.212   5.368  0.0952 -0.2753 -0.2800
24137SOL    HW177349  11.310  10.279   5.421 -0.7050 -0.5943 -0.5147
24137SOL    HW277350  11.433  10.191   5.417  0.1793  0.5870 -0.0244
24138SOL     OW77351   7.052  10.152   8.572  0.3486  0.5947 -0.4349
24138SOL    HW177352   7.040  10.179   8.481 -0.7189  0.5786 -0.3034
24138SOL    HW277353   7.121  10.210   8.605 -0.6748  1.9737 -0.6591
24139SOL     OW77354   2.492   2.311   0.101 -0.7879  0.2016 -0.0122
24139SOL    HW177355   2.509   2.286   0.192  0.3585  1.4820  0.1505
24139SOL    HW277356   2.416   2.258   0.076 -0.9539 -0.3828  1.5907
24140SOL     OW77357   6.900   2.477  10.653 -0.0837 -0.1126 -0.7860
24140SOL    HW177358   6.971   2.423  10.617 -0.8235 -1.8890  0.2729
24140SOL    HW277359   6.833   2.476  10.585 -0.3116 -1.0393 -0.5713
24141SOL     OW77360   3.395   6.721   9.159  0.4602 -0.5949  0.1442
24141SOL    HW177361   3.425   6.705   9.249  0.8832  1.9988  0.5291
24141SOL    HW277362   3.300   6.712   9.164  0.4509 -0.1505  0.9428
24142SOL     OW77363   7.077   7.212   6.797  0.1829 -0.1301  0.2907
24142SOL    HW177364   7.092   7.143   6.862 -0.2707 -0.1216  0.4074
24142SOL    HW277365   7.022   7.276   6.842  0.2381  0.0937  0.0401
24143SOL     OW77366   6.438   5.685   2.274 -0.0892  0.3306  0.6704
24143SOL    HW177367   6.359   5.701   2.327 -1.7022 -1.5359 -1.0109
24143SOL    HW277368   6.509   5.681   2.339 -1.5098  0.9357  2.3690
24144SOL     OW77369   2.516   3.630   2.161  0.0326  0.0261  0.5910
24144SOL    HW177370   2.560   3.576   2.096 -1.3999  0.1094 -0.5029
24144SOL    HW277371   2.511   3.574   2.239 -0.7024 -1.1504 -0.2667
24145SOL     OW77372   7.122   5.681   1.395 -0.1580  0.4388  0.1407
24145SOL    HW177373   7.065   5.613   1.430  1.4216 -0.6716  0.6840
24145SOL    HW277374   7.094   5.692   1.304 -0.7890 -0.5579  0.2013
24146SOL     OW77375   3.912   0.192   3.714 -0.1914  0.0157 -0.0633
24146SOL    HW177376   3.960   0.133   3.771 -0.7398  1.2182  1.7546
24146SOL    HW277377   3.855   0.135   3.662  1.4063 -1.2259 -0.5372
24147SOL     OW77378   0.473   0.880  11.328  0.3406  0.4716 -0.5136
24147SOL    HW177379   0.545   0.943  11.336 -0.2654  1.0248  0.8660
24147SOL    HW277380   0.483   0.843  11.240  2.1045  0.7768 -0.4758
24148SOL     OW77381  11.678   2.390  11.396 -0.0313 -0.3103 -0.2616
24148SOL    HW177382  11.769   2.363  11.382  0.2542  1.1682 -1.5068
24148SOL    HW277383  11.656   2.443  11.319 -1.8525 -0.3645  0.1716
24149SOL     OW77384   9.834   3.554   3.022  0.0446  0.1526 -0.1605
24149SOL    HW177385   9.795   3.603   3.095 -0.3536 -0.4590  0.0391
24149SOL    HW277386   9.928   3.568   3.033 -0.0924  1.8025 -0.7628
24150SOL     OW77387   3.030   8.678   7.236 -0.1644 -0.1583 -0.6243
24150SOL    HW177388   2.959   8.622   7.208 -1.3557  1.0300 -0.0805
24150SOL    HW277389   3.069   8.710   7.155  0.9163 -2.1521 -0.9587
24151SOL     OW77390   2.440   1.925   0.803  0.1663 -0.2042  0.2983
24151SOL    HW177391   2.383   1.879   0.742  1.1377  2.0843 -2.5339
24151SOL    HW277392   2.417   2.017   0.793  0.5053  0.3437  3.3614
24152SOL     OW77393   3.307   4.985   9.856  0.4796 -0.5008  0.3018
24152SOL    HW177394   3.241   4.919   9.839 -0.0336 -0.1879  1.0276
24152SOL    HW277395   3.342   4.962   9.942  1.2608 -0.6172 -0.0382
24153SOL     OW77396   3.618   4.232  11.499  0.4852  0.1725  0.4672
24153SOL    HW177397   3.633   4.246  11.405  1.0559 -0.2730  0.4868
24153SOL    HW277398   3.703   4.205  11.533  0.1419 -0.2569  0.9989
24154SOL     OW77399   5.747   3.036   2.422 -0.6235  0.7044  0.0826
24154SOL    HW177400   5.783   2.989   2.497 -0.3020  2.1980  0.9096
24154SOL    HW277401   5.653   3.016   2.423 -0.2830 -1.0621 -0.4764
24155SOL     OW77402   0.169   9.905   0.971 -0.2967 -0.4450 -0.6469
24155SOL    HW177403   0.171   9.907   1.067  0.4040 -0.5602 -0.6529
24155SOL    HW277404   0.089   9.857   0.950 -0.5789 -0.2226 -0.1254
24156SOL     OW77405   6.018   8.918   7.807 -0.0874  0.3248  0.4610
24156SOL    HW177406   6.063   8.885   7.730  0.5250  0.5221  0.7317
24156SOL    HW277407   5.950   8.853   7.825 -0.6922  0.6252 -0.6490
24157SOL     OW77408   9.742   7.186   9.512 -1.0129  0.5135 -0.2940
24157SOL    HW177409   9.681   7.253   9.540 -0.1090  1.4110 -0.4166
24157SOL    HW277410   9.818   7.196   9.569 -2.4740 -3.3235  2.8004
24158SOL     OW77411   4.980   5.504   1.982  0.0778  0.3664  0.0733
24158SOL    HW177412   5.065   5.486   2.022 -0.7481  1.7077  2.6757
24158SOL    HW277413   4.916   5.470   2.045 -1.3208  1.1752 -0.8615
24159SOL     OW77414   2.692  11.363   9.002 -0.9480  0.3687 -0.4995
24159SOL    HW177415   2.683  11.269   9.013 -2.3415  0.6050  0.7570
24159SOL    HW277416   2.724  11.374   8.912  1.9340 -1.3707  0.1969
24160SOL     OW77417   9.815   4.405   2.612  0.0676 -0.0338  0.3019
24160SOL    HW177418   9.837   4.319   2.647  1.3659  0.2859  0.3139
24160SOL    HW277419   9.787   4.456   2.688  0.7077 -0.0124  0.5235
24161SOL     OW77420   1.534   2.733  10.689 -0.2302  0.8403  0.2966
24161SOL    HW177421   1.627   2.712  10.687 -0.4982 -0.7102  1.7274
24161SOL    HW277422   1.504   2.715  10.599  0.7734  1.0262 -0.0861
24162SOL     OW77423   5.981   4.021   1.545 -0.1678  0.4605  0.6739
24162SOL    HW177424   6.050   4.005   1.480 -0.4292  1.2599  0.1835
24162SOL    HW277425   5.999   4.110   1.577 -2.1806  1.5806 -1.0340
24163SOL     OW77426   2.400   1.884   7.624 -0.7145 -0.0583 -0.0098
24163SOL    HW177427   2.332   1.951   7.636  0.6585  0.9898  3.1726
24163SOL    HW277428   2.461   1.922   7.561 -1.4463  0.3713 -0.4716
24164SOL     OW77429   9.721   4.192   5.984 -0.4471  0.2729  0.6580
24164SOL    HW177430   9.656   4.262   5.984 -3.4749 -2.2997  0.7985
24164SOL    HW277431   9.694   4.134   5.912  2.1469 -0.5986  0.2808
24165SOL     OW77432   4.812   0.138   7.642 -0.9109  0.6883 -0.7589
24165SOL    HW177433   4.769   0.222   7.658  0.1791  1.0957  0.1833
24165SOL    HW277434   4.886   0.137   7.703 -2.2402 -2.0097  1.0213
24166SOL     OW77435   3.895   7.347   4.384 -0.0514  0.5277  0.1902
24166SOL    HW177436   3.953   7.274   4.363  1.3862  2.1389 -1.8393
24166SOL    HW277437   3.871   7.333   4.476  1.1725 -1.7687  0.2349
24167SOL     OW77438   0.813   9.100  10.815 -0.0502  0.0467 -0.2882
24167SOL    HW177439   0.905   9.090  10.793  0.0449  0.2019  0.0251
24167SOL    HW277440   0.810   9.179  10.869 -0.5359  0.7316 -1.2871
24168SOL     OW77441   1.237   5.778   6.514  0.5982  0.3115 -0.1276
24168SOL    HW177442   1.178   5.767   6.588  0.1449 -0.4049 -0.5870
24168SOL    HW277443   1.210   5.712   6.451 -0.2180  2.0547 -1.7014
24169SOL     OW77444   0.320   5.701   7.166 -0.0829  0.3535  0.0736
24169SOL    HW177445   0.234   5.741   7.175 -0.4830 -0.6409  0.9692
24169SOL    HW277446   0.306   5.626   7.108  0.3235  0.6024 -0.3444
24170SOL     OW77447  11.355   1.159   3.456  0.3931  0.3033  0.0578
24170SOL    HW177448  11.292   1.197   3.394 -0.0300  0.4257  0.5578
24170SOL    HW277449  11.331   1.066   3.459  0.8330  0.1670 -0.4556
24171SOL     OW77450   6.108   9.982   7.999  0.2197  0.0245  0.3577
24171SOL    HW177451   6.041   9.974   8.067  0.5950 -0.6410  0.6515
24171SOL    HW277452   6.117  10.076   7.986 -0.0814  0.1500  1.0000
24172SOL     OW77453   5.433   1.893   6.339 -0.0313  0.3166 -0.3246
24172SOL    HW177454   5.347   1.920   6.308 -0.0096 -0.2716 -0.9140
24172SOL    HW277455   5.436   1.921   6.431 -0.5967  0.9120 -0.4817
24173SOL     OW77456   5.680   5.731  10.672  0.0451  0.2238 -0.7586
24173SOL    HW177457   5.695   5.816  10.630 -0.1965  0.5459 -0.2023
24173SOL    HW277458   5.752   5.722  10.734  0.5889 -0.4035 -1.4659
24174SOL     OW77459   2.496   6.296   0.385 -0.4576 -0.3046  0.4207
24174SOL    HW177460   2.478   6.380   0.428  0.3853  0.2707 -0.3090
24174SOL    HW277461   2.558   6.318   0.315  2.4167 -1.9918  2.2119
24175SOL     OW77462   7.846   9.278   1.424  0.2610  0.0537  0.0409
24175SOL    HW177463   7.913   9.307   1.362 -0.2667 -0.1136 -0.6118
24175SOL    HW277464   7.802   9.205   1.380  1.5184 -1.7540  1.6150
24176SOL     OW77465   3.500  10.349   9.793 -0.3555  0.0422 -0.4887
24176SOL    HW177466   3.572  10.387   9.743  0.5087 -0.5179  0.2957
24176SOL    HW277467   3.540  10.318   9.874 -1.6996  0.8559  0.5364
24177SOL     OW77468   8.350   8.703   8.543  0.0870  0.3421  0.1629
24177SOL    HW177469   8.383   8.738   8.460  0.0659 -1.1531 -0.5139
24177SOL    HW277470   8.258   8.684   8.527  0.0500  0.1556  0.5776
24178SOL     OW77471   0.722  10.110   0.867  0.1437  0.0810 -0.0765
24178SOL    HW177472   0.725  10.096   0.961 -1.1630 -0.7127 -0.1250
24178SOL    HW277473   0.763  10.196   0.854  0.2814  0.2272  1.2099
24179SOL     OW77474   0.604   5.482   4.986  0.3244 -0.0229  0.3110
24179SOL    HW177475   0.623   5.491   5.079  1.3139 -0.0001  0.1138
24179SOL    HW277476   0.521   5.434   4.983  1.0329 -1.3712  1.1937
24180SOL     OW77477   3.878   9.301   4.731  0.0494  0.2180 -0.4926
24180SOL    HW177478   3.831   9.217   4.726 -2.0652  1.1296  1.8373
24180SOL    HW277479   3.918   9.301   4.818 -0.8635  2.0024 -0.0331
24181SOL     OW77480   8.975  11.515   8.912  0.5661 -0.3930 -0.2786
24181SOL    HW177481   8.991  11.425   8.885 -0.4471 -0.6437 -0.1083
24181SOL    HW277482   9.019  11.569   8.846  2.3849 -0.9963  0.4048
24182SOL     OW77483   5.849  11.167   6.511 -0.0628 -0.3311  0.5121
24182SOL    HW177484   5.784  11.236   6.516 -0.0951 -0.4358  2.0070
24182SOL    HW277485   5.816  11.107   6.445 -0.9401  0.1560  0.5005
24183SOL     OW77486   0.814   0.587   1.529 -0.2639  0.1485  0.4188
24183SOL    HW177487   0.880   0.576   1.598  0.2531 -0.5344 -0.1639
24183SOL    HW277488   0.771   0.670   1.549  1.0473  0.8039  0.5943
24184SOL     OW77489   3.766   7.560   8.761 -0.5040  0.4439  0.1266
24184SOL    HW177490   3.824   7.635   8.747 -2.6294  2.1855  0.0864
24184SOL    HW277491   3.781   7.535   8.852  1.2251 -0.0367 -0.2497
24185SOL     OW77492   9.605  11.441   9.969  0.0689  0.3193 -0.2407
24185SOL    HW177493   9.544  11.384  10.016  1.0674 -0.9690 -0.4218
24185SOL    HW277494   9.553  11.483   9.902 -0.6470 -0.6849 -0.3355
24186SOL     OW77495   4.474   0.105   5.052 -0.1017  0.1622 -0.6412
24186SOL    HW177496   4.501   0.070   5.137 -0.7314  1.5335  0.1473
24186SOL    HW277497   4.486   0.032   4.991  2.0793 -0.3082  0.2742
24187SOL     OW77498   8.590   1.992   6.333  0.2114  0.2537 -0.5623
24187SOL    HW177499   8.602   2.070   6.388  0.8575 -1.2185  1.5125
24187SOL    HW277500   8.495   1.985   6.322  0.1700  1.8574 -1.6740
24188SOL     OW77501   2.167   7.333   9.725  0.1129  0.1715 -0.5288
24188SOL    HW177502   2.191   7.312   9.634  0.8654 -1.6376  0.0519
24188SOL    HW277503   2.114   7.259   9.753  0.9598  0.0850  0.9111
24189SOL     OW77504   0.281   8.655   4.032 -0.3245 -0.3088 -0.3280
24189SOL    HW177505   0.201   8.653   4.084 -0.0452  0.0942  0.1308
24189SOL    HW277506   0.318   8.567   4.041  0.2653  0.0447  1.0405
24190SOL     OW77507   7.401  11.397   6.068  0.1863 -0.0752 -0.1215
24190SOL    HW177508   7.480  11.352   6.040 -1.7641 -3.9650 -0.0044
24190SOL    HW277509   7.381  11.361   6.154 -1.8715  0.5432 -0.2709
24191SOL     OW77510   6.406   6.841   9.929 -0.2910  0.3390 -0.4244
24191SOL    HW177511   6.421   6.806  10.017  0.4334  1.3255 -0.1434
24191SOL    HW277512   6.372   6.929   9.943 -0.0995  0.5363 -1.1372
24192SOL     OW77513   0.546   0.815   9.994  0.4524 -0.5733 -0.0469
24192SOL    HW177514   0.592   0.859   9.924  0.0268 -0.8046 -0.4778
24192SOL    HW277515   0.454   0.821   9.971 -0.0963  2.4993  2.2680
24193SOL     OW77516   3.288   0.467   7.574  0.0389 -0.3283  0.2624
24193SOL    HW177517   3.357   0.400   7.569  0.4162 -0.1505  2.3432
24193SOL    HW277518   3.210   0.419   7.602  0.3704  0.0927  2.0053
24194SOL     OW77519   4.042   1.556   7.814 -0.4023 -0.0057 -0.2093
24194SOL    HW177520   4.018   1.645   7.842  1.7200  0.8725 -0.9820
24194SOL    HW277521   4.120   1.535   7.866  0.2437 -0.6148 -1.3869
24195SOL     OW77522   3.381   5.909   8.868  0.2558 -0.0093 -0.4262
24195SOL    HW177523   3.312   5.904   8.934 -1.1766 -0.1674 -1.8930
24195SOL    HW277524   3.351   5.853   8.797  0.8146  1.6689 -2.0520
24196SOL     OW77525   4.621   5.024   3.760 -0.7567  0.2537  0.3810
24196SOL    HW177526   4.530   5.008   3.784 -1.0528  2.1887  0.7316
24196SOL    HW277527   4.666   5.035   3.844  0.1731 -2.1434  0.2893
24197SOL     OW77528   5.887   6.014   8.288 -0.0906  0.2017 -0.1739
24197SOL    HW177529   5.910   6.107   8.282 -0.1555  0.2093 -0.3206
24197SOL    HW277530   5.963   5.968   8.252 -0.7678  0.2773 -1.8025
24198SOL     OW77531   5.983   4.368   7.354  0.2634 -0.1315 -0.1115
24198SOL    HW177532   6.022   4.342   7.438  1.8998  1.8458 -0.1715
24198SOL    HW277533   5.916   4.302   7.337  0.6944 -1.2575  2.1621
24199SOL     OW77534   7.157  11.509   3.704 -0.3806 -0.3804  0.1545
24199SOL    HW177535   7.229  11.556   3.660  0.1192 -1.8733 -0.7072
24199SOL    HW277536   7.191  11.421   3.716 -1.7669 -0.8725  0.5537
24200SOL     OW77537   1.370   1.574   1.632 -0.4179 -0.6692  0.4928
24200SOL    HW177538   1.355   1.480   1.649 -1.1115 -0.2188  2.7344
24200SOL    HW277539   1.305   1.618   1.686  0.0134  1.1404 -0.3968
24201SOL     OW77540   2.796  10.633   7.808 -0.1132  0.1773  0.1891
24201SOL    HW177541   2.728  10.598   7.866 -1.0782 -0.0444 -1.0297
24201SOL    HW277542   2.844  10.556   7.778 -0.2581  0.1917 -0.0823
24202SOL     OW77543   6.340   2.168   3.246 -0.1601 -1.0667 -0.0064
24202SOL    HW177544   6.345   2.101   3.315 -0.8548  0.4297  1.5756
24202SOL    HW277545   6.387   2.243   3.282  1.8895 -1.0999 -2.3325
24203SOL     OW77546  11.589   9.735   2.739 -0.4550 -0.4056 -0.8095
24203SOL    HW177547  11.635   9.760   2.659 -0.4224  1.0824 -0.3454
24203SOL    HW277548  11.570   9.818   2.783 -0.7782 -1.1843  0.5589
24204SOL     OW77549   5.795   2.558   8.225  0.2034  0.0373  0.2008
24204SOL    HW177550   5.796   2.647   8.262  1.8370  0.3857 -0.6132
24204SOL    HW277551   5.839   2.505   8.291  0.8726  0.1849 -0.1236
24205SOL     OW77552   8.978   2.457   9.643  0.2040  0.8047  0.1438
24205SOL    HW177553   8.974   2.390   9.574  2.8025  1.5229 -0.8405
24205SOL    HW277554   8.921   2.424   9.712 -2.0900 -0.2195 -2.0872
24206SOL     OW77555  10.871   7.964   3.448  0.1890 -0.1514  0.1598
24206SOL    HW177556  10.930   8.002   3.383 -1.4135  0.3508 -1.0541
24206SOL    HW277557  10.866   7.872   3.425  1.2469 -0.4019  0.8772
24207SOL     OW77558   1.929  11.398   7.577 -0.0371 -0.2429  0.3861
24207SOL    HW177559   1.847  11.406   7.627 -1.3965 -0.7666 -1.6181
24207SOL    HW277560   1.912  11.326   7.515  1.6655  0.1598 -0.6143
24208SOL     OW77561   2.266   7.212   8.508 -0.2223 -0.3285  0.6273
24208SOL    HW177562   2.278   7.170   8.593  0.9275  0.3933  0.8470
24208SOL    HW277563   2.354   7.214   8.469 -0.4754  0.6445  0.0613
24209SOL     OW77564  10.545   0.388   1.550 -0.7191 -0.3428 -0.6616
24209SOL    HW177565  10.538   0.423   1.461  0.6631 -1.6131 -1.3198
24209SOL    HW277566  10.492   0.308   1.549 -1.6418  0.2334  0.0309
24210SOL     OW77567   6.896   5.420   5.960 -0.3569  0.0402 -0.0754
24210SOL    HW177568   6.810   5.384   5.978 -0.6245  0.4240 -0.5640
24210SOL    HW277569   6.943   5.413   6.043 -0.8498 -0.1869  0.1869
24211SOL     OW77570   8.538   9.082   1.532  0.4119  0.1130  0.2477
24211SOL    HW177571   8.518   9.061   1.441  0.0741 -0.6296  0.4877
24211SOL    HW277572   8.614   9.027   1.553  2.5503  2.5816 -0.5230
24212SOL     OW77573  11.113   0.476   6.804 -0.4226  0.2375 -0.0217
24212SOL    HW177574  11.187   0.492   6.745  1.0997 -0.6579  1.5464
24212SOL    HW277575  11.040   0.522   6.764  0.8134  0.5745 -2.0128
24213SOL     OW77576   1.610   7.942   5.681 -0.0515 -0.2060  0.1676
24213SOL    HW177577   1.598   7.894   5.763  0.7148  0.3052  0.5940
24213SOL    HW277578   1.537   7.915   5.627 -0.3297 -0.8920  0.8608
24214SOL     OW77579  10.696   5.390   9.334 -0.4547  0.1500  0.0336
24214SOL    HW177580  10.653   5.325   9.388  1.9239 -2.2819 -0.8005
24214SOL    HW277581  10.774   5.415   9.383 -0.1040  0.5588 -0.7079
24215SOL     OW77582   4.458   7.368   4.879  0.4342  0.5338 -0.1956
24215SOL    HW177583   4.493   7.280   4.874 -1.6466 -0.2857 -2.0436
24215SOL    HW277584   4.516   7.414   4.939  0.0949 -2.8147  3.0677
24216SOL     OW77585   1.976   8.687  10.321  0.7323 -0.0571 -0.4409
24216SOL    HW177586   1.976   8.759  10.258 -0.4022 -0.7897 -1.3213
24216SOL    HW277587   1.925   8.618  10.278 -0.3580 -0.4611  1.3966
24217SOL     OW77588  10.250   5.533   4.437  0.2466  0.1769  0.2440
24217SOL    HW177589  10.225   5.540   4.529 -1.2757 -0.4548 -0.1007
24217SOL    HW277590  10.200   5.601   4.392 -0.7072 -0.9043 -0.4098
24218SOL     OW77591   2.869   5.102   4.869  0.2866 -0.1871 -0.0806
24218SOL    HW177592   2.864   5.018   4.824  0.5700 -0.8500  1.0788
24218SOL    HW277593   2.889   5.166   4.800 -1.7681 -0.7555 -1.3042
24219SOL     OW77594   0.508   4.620   3.142  0.6117 -0.3050  0.6208
24219SOL    HW177595   0.544   4.607   3.230  1.5073 -2.6140 -0.0153
24219SOL    HW277596   0.580   4.656   3.091  0.3590  0.1853  0.6007
24220SOL     OW77597  10.165   7.428   2.058  0.1594 -0.5006 -0.1731
24220SOL    HW177598  10.185   7.459   2.146 -2.4961 -0.7429  0.6024
24220SOL    HW277599  10.169   7.333   2.065 -1.2215 -0.5641  0.0504
24221SOL     OW77600   2.956   5.766   4.694  0.3092 -0.6081 -0.0984
24221SOL    HW177601   2.945   5.797   4.783  1.3354  0.8356 -0.4401
24221SOL    HW277602   2.867   5.746   4.664  0.0140 -1.7902  1.4441
24222SOL     OW77603  10.591   8.421   5.882 -0.0538 -0.4266  0.4611
24222SOL    HW177604  10.516   8.377   5.923 -0.1850  1.0356  1.9046
24222SOL    HW277605  10.667   8.383   5.924  0.0054 -1.3887 -0.4771
24223SOL     OW77606   6.503   8.730   2.580 -0.0852  0.9279  0.3002
24223SOL    HW177607   6.486   8.747   2.487  1.7728  0.9489 -0.0789
24223SOL    HW277608   6.439   8.663   2.604 -1.5676  1.9453 -0.5862
24224SOL     OW77609   0.406   1.675  10.337  0.6231  0.6710  0.5819
24224SOL    HW177610   0.475   1.715  10.390  1.2915  1.1396 -0.6064
24224SOL    HW277611   0.443   1.591  10.310 -0.1019 -0.0149  1.6386
24225SOL     OW77612   3.489   9.065   6.428 -0.0335 -0.2032 -0.4505
24225SOL    HW177613   3.557   9.099   6.370  0.5821 -0.6819 -0.0146
24225SOL    HW277614   3.419   9.036   6.369 -1.8149  4.1602 -0.8785
24226SOL     OW77615   1.802   0.837  10.169 -0.7626 -0.3172 -0.4133
24226SOL    HW177616   1.719   0.850  10.214  0.3398  1.0704  1.3721
24226SOL    HW277617   1.779   0.833  10.077 -2.7098  1.2138 -0.0569
24227SOL     OW77618   7.231  10.357   1.329  0.0550  0.2232  0.2701
24227SOL    HW177619   7.320  10.334   1.357 -0.3763 -0.7238  0.9505
24227SOL    HW277620   7.174  10.310   1.391 -0.9115  1.0525  0.0326
24228SOL     OW77621   7.130   4.612   1.322 -0.7619 -0.4254 -0.0838
24228SOL    HW177622   7.163   4.699   1.347 -1.9748  0.2245 -0.6646
24228SOL    HW277623   7.208   4.556   1.322 -0.0405  0.5456  0.7976
24229SOL     OW77624   6.055   9.193   4.632 -0.1894 -0.0757 -0.1018
24229SOL    HW177625   6.148   9.172   4.629  0.3447  2.0836 -0.3379
24229SOL    HW277626   6.040   9.248   4.554 -1.3879  0.5947  0.5610
24230SOL     OW77627   2.671   7.139   4.460 -0.0008  0.6213 -0.0150
24230SOL    HW177628   2.577   7.123   4.471  0.2770  0.2200  2.4334
24230SOL    HW277629   2.676   7.201   4.387 -1.9738 -1.1183 -1.7585
24231SOL     OW77630   8.392   6.869   5.826 -0.4982 -0.3881 -0.3019
24231SOL    HW177631   8.349   6.951   5.850 -0.4774 -0.7535  1.0829
24231SOL    HW277632   8.356   6.805   5.887  2.7412 -0.5163  1.6572
24232SOL     OW77633   1.084   7.088   3.242 -0.0086  0.6405 -0.3351
24232SOL    HW177634   1.013   7.023   3.247  1.0020 -0.7481 -2.3716
24232SOL    HW277635   1.092   7.122   3.331 -1.1940 -1.3968  0.6311
24233SOL     OW77636   6.053   3.082   8.167 -0.1329 -0.2831 -0.5116
24233SOL    HW177637   5.959   3.100   8.157  0.0914  0.6190 -1.0868
24233SOL    HW277638   6.061   3.048   8.256 -1.0733 -0.8473 -0.6241
24234SOL     OW77639   1.267  11.474   2.367  0.2852 -0.3879  0.2294
24234SOL    HW177640   1.266  11.449   2.460  1.5216 -0.9108  0.1156
24234SOL    HW277641   1.240  11.565   2.367  2.1067  0.1998  1.3063
24235SOL     OW77642   1.886   8.054   8.069 -0.4347  0.5356 -0.1209
24235SOL    HW177643   1.942   7.994   8.118 -0.1472  0.3316 -0.6899
24235SOL    HW277644   1.846   8.109   8.136 -2.9630 -2.1054  0.7660
24236SOL     OW77645   3.397   7.412   1.088 -0.2968  0.0436 -0.2808
24236SOL    HW177646   3.376   7.348   1.157  3.1665 -0.5909  0.3858
24236SOL    HW277647   3.382   7.364   1.006 -0.3839 -0.6819  0.1486
24237SOL     OW77648   4.183   9.721   9.116  0.3027 -0.5748  0.4476
24237SOL    HW177649   4.157   9.647   9.061 -1.5003 -0.3370  0.9300
24237SOL    HW277650   4.136   9.709   9.198  1.3132  0.2068  1.1660
24238SOL     OW77651   7.410   3.682   4.856  0.1729 -0.0851  0.3769
24238SOL    HW177652   7.474   3.658   4.789 -0.5937  1.2447 -0.8672
24238SOL    HW277653   7.331   3.634   4.833 -0.5978  1.6008 -0.6783
24239SOL     OW77654   3.167   1.858  11.091 -0.0878 -0.4515  0.1952
24239SOL    HW177655   3.104   1.806  11.042  0.3261  0.6756 -1.6107
24239SOL    HW277656   3.170   1.942  11.046  0.6027  0.5256  1.9574
24240SOL     OW77657   2.848   6.032   2.653 -0.8298  0.4116  0.3289
24240SOL    HW177658   2.841   6.113   2.604  2.1088  0.5492 -0.0574
24240SOL    HW277659   2.827   6.056   2.743  1.3260  1.9937  0.4757
24241SOL     OW77660   8.639   1.496   8.487  0.5998 -0.0082 -0.1690
24241SOL    HW177661   8.605   1.551   8.558  1.1515  0.0732  0.0298
24241SOL    HW277662   8.678   1.558   8.426  0.7774 -0.1425 -0.1902
24242SOL     OW77663   4.961   5.153   2.654 -0.0005 -0.7306  0.4872
24242SOL    HW177664   4.974   5.074   2.601 -2.1507 -1.1868  0.5702
24242SOL    HW277665   5.049   5.188   2.665  0.8858 -2.4673 -0.5439
24243SOL     OW77666   7.557   8.734  11.033 -0.3906 -0.0552  0.2650
24243SOL    HW177667   7.633   8.692  10.992 -0.9635 -0.0344 -0.8516
24243SOL    HW277668   7.592   8.817  11.067  0.2713 -0.4378  0.5299
24244SOL     OW77669   8.811   6.077   5.401 -0.1952  0.6043 -0.3871
24244SOL    HW177670   8.762   6.105   5.325  0.3844  1.2664 -0.5259
24244SOL    HW277671   8.744   6.051   5.465 -0.6770 -0.8697 -1.4329
24245SOL     OW77672  10.120   3.379   3.347  0.8134 -0.1397  0.1450
24245SOL    HW177673  10.181   3.423   3.406  0.9123  3.3965 -2.3164
24245SOL    HW277674  10.040   3.369   3.398  2.0848 -1.0603  2.0942
24246SOL     OW77675   6.120   0.545   3.634  0.2164 -0.1856  0.0940
24246SOL    HW177676   6.110   0.492   3.556 -1.0424  0.3963 -0.1633
24246SOL    HW277677   6.031   0.563   3.663  0.6044  1.4473  0.3841
24247SOL     OW77678   9.576   6.203   3.394  1.1415 -0.6230  0.2324
24247SOL    HW177679   9.573   6.276   3.456  0.5300 -1.4223  1.1601
24247SOL    HW277680   9.485   6.187   3.371  1.3548 -0.3906 -0.8289
24248SOL     OW77681   9.867   6.846   4.208 -0.4116 -0.7526 -1.0964
24248SOL    HW177682   9.912   6.837   4.124 -0.1460 -1.4324 -0.8961
24248SOL    HW277683   9.858   6.940   4.221 -0.7265 -0.6444 -2.0245
24249SOL     OW77684   9.150   2.121   5.472 -0.5322  0.1959  0.0118
24249SOL    HW177685   9.112   2.050   5.419  0.6742 -0.4469 -0.0241
24249SOL    HW277686   9.104   2.116   5.555 -0.8225 -0.2892 -0.1736
24250SOL     OW77687   6.678   5.634   4.760 -0.0371  0.5657 -0.1818
24250SOL    HW177688   6.700   5.588   4.841 -2.0639  1.5533  1.0293
24250SOL    HW277689   6.598   5.591   4.729  0.3009  0.6873 -1.2481
24251SOL     OW77690   0.698   2.017   2.492  0.0065  0.1359  0.2970
24251SOL    HW177691   0.614   2.058   2.512  0.9420  1.3702  1.9196
24251SOL    HW277692   0.727   1.980   2.576  0.6483 -1.1133 -0.4525
24252SOL     OW77693   9.632   4.780   9.839  0.4594  0.1509  0.0392
24252SOL    HW177694   9.636   4.694   9.880  1.4474 -0.5984 -1.5131
24252SOL    HW277695   9.539   4.802   9.837  0.3459 -0.0034  2.1256
24253SOL     OW77696   0.691   4.640   3.369  0.2135 -0.2798 -0.0584
24253SOL    HW177697   0.778   4.606   3.392 -0.5741 -2.2265  0.2789
24253SOL    HW277698   0.667   4.695   3.443  1.7766  1.6321 -0.8756
24254SOL     OW77699   8.466   6.693   9.745  0.4715 -0.2707  0.5450
24254SOL    HW177700   8.551   6.713   9.784  0.5860 -1.2285  0.7989
24254SOL    HW277701   8.404   6.747   9.794  1.1386  1.9835 -0.9561
24255SOL     OW77702  10.163  10.112   9.061  0.2826  0.7035 -0.7605
24255SOL    HW177703  10.227  10.044   9.082 -1.0816 -0.2272  0.6113
24255SOL    HW277704  10.079  10.075   9.088 -0.8468  1.9285 -2.3946
24256SOL     OW77705   2.159   7.702   7.367 -0.1165 -0.1641 -0.3495
24256SOL    HW177706   2.219   7.686   7.440 -1.1968  0.0455  0.6004
24256SOL    HW277707   2.114   7.618   7.354  0.0138 -0.1778 -0.7238
24257SOL     OW77708  11.483   9.659  10.324 -0.4189  0.2693  0.4833
24257SOL    HW177709  11.495   9.750  10.350  0.6028  0.8223 -1.6890
24257SOL    HW277710  11.422   9.663  10.250  1.6267 -0.4518 -1.3446
24258SOL     OW77711   5.432   3.960   0.763 -0.0142  0.6387 -0.3169
24258SOL    HW177712   5.505   4.004   0.721  0.5083  1.2841  1.1947
24258SOL    HW277713   5.462   3.943   0.853 -2.3825  2.8055  1.0200
24259SOL     OW77714   9.297   3.526   9.668  0.8568  0.3441 -0.1199
24259SOL    HW177715   9.323   3.469   9.740 -0.5143  0.4391  0.4794
24259SOL    HW277716   9.203   3.539   9.680  0.4537 -0.1383 -2.2867
24260SOL     OW77717  10.073   3.973   9.394  0.3434  0.5398 -0.0442
24260SOL    HW177718   9.997   3.917   9.376 -0.3793  1.7576 -0.8971
24260SOL    HW277719  10.138   3.946   9.329 -0.7187  1.9821 -1.7928
24261SOL     OW77720   7.127   1.467  10.669  0.1859 -0.3705 -0.1406
24261SOL    HW177721   7.200   1.511  10.626  0.5676 -0.1028  0.7628
24261SOL    HW277722   7.122   1.508  10.756 -1.0800 -0.3342 -0.2149
24262SOL     OW77723   7.577   3.923   2.721 -0.4954 -0.0437  0.1337
24262SOL    HW177724   7.512   3.856   2.699 -2.4321  2.1162 -1.1473
24262SOL    HW277725   7.529   4.005   2.717  2.0832  1.5746  0.3344
24263SOL     OW77726  11.395  10.425   3.123  0.2829 -0.0858 -0.0184
24263SOL    HW177727  11.442  10.417   3.040 -0.0802  1.9638 -0.4785
24263SOL    HW277728  11.451  10.380   3.187  0.9833 -0.9558 -1.2145
24264SOL     OW77729   1.320   8.847   6.191  0.4618 -0.1692  0.0979
24264SOL    HW177730   1.367   8.764   6.200  1.2620  0.2636  0.0225
24264SOL    HW277731   1.327   8.869   6.098 -0.6309 -0.5142 -0.0768
24265SOL     OW77732   3.717   5.880   7.582 -0.0529  0.4847 -0.2634
24265SOL    HW177733   3.803   5.842   7.604 -0.5122 -0.6749 -0.3970
24265SOL    HW277734   3.693   5.931   7.659  0.0607 -0.4506  0.4078
24266SOL     OW77735   2.624   4.580   5.191  0.3271  1.0800 -0.0149
24266SOL    HW177736   2.583   4.509   5.240 -0.0835  1.8453  0.7654
24266SOL    HW277737   2.709   4.544   5.165 -0.9923 -0.7377 -2.1829
24267SOL     OW77738   2.053   0.634   9.971 -0.1343 -0.5179  0.5246
24267SOL    HW177739   1.979   0.694   9.955  1.0260  0.3776 -2.2052
24267SOL    HW277740   2.014   0.560  10.018 -2.2727  0.9463  1.2426
24268SOL     OW77741   7.791   9.018   6.366 -0.5636 -0.0926 -0.3656
24268SOL    HW177742   7.720   8.964   6.401  0.1493 -0.8356 -0.0647
24268SOL    HW277743   7.829   8.966   6.296 -0.2744  0.2875 -0.4944
24269SOL     OW77744   1.852   2.724   8.909  0.3288  0.1967  0.4786
24269SOL    HW177745   1.869   2.645   8.959  2.2277  0.8605  0.9896
24269SOL    HW277746   1.819   2.693   8.825  1.7998 -1.1955  0.3747
24270SOL     OW77747   9.482  10.104   7.465  0.2599 -0.1218 -0.1177
24270SOL    HW177748   9.477  10.122   7.559 -1.7892  4.2909 -0.8217
24270SOL    HW277749   9.562  10.149   7.436  0.2812 -0.4902 -0.6478
24271SOL     OW77750   3.595   0.601   7.485  0.1422  0.0322 -0.0617
24271SOL    HW177751   3.541   0.628   7.411 -0.1408 -0.6014 -0.0962
24271SOL    HW277752   3.540   0.616   7.562  0.5708  1.0321  0.0553
24272SOL     OW77753   6.576   9.953   9.849  1.1155  0.0817 -0.3937
24272SOL    HW177754   6.573   9.937   9.943 -0.3608  0.1135 -0.4110
24272SOL    HW277755   6.527  10.035   9.837 -1.2889 -1.3905 -1.4396
24273SOL     OW77756  11.591  11.170   3.596 -0.0862  0.2390 -0.4770
24273SOL    HW177757  11.569  11.220   3.518 -0.6259 -1.9402 -1.7877
24273SOL    HW277758  11.509  11.165   3.645 -0.3756 -0.4725 -1.0182
24274SOL     OW77759   0.278   5.624   9.670 -0.0267  0.0487  0.1741
24274SOL    HW177760   0.306   5.713   9.692  0.4779 -0.4362  1.6447
24274SOL    HW277761   0.241   5.589   9.752  0.4315 -1.3237 -0.1716
24275SOL     OW77762   6.731   7.708   9.585  0.0422 -0.1945  0.0086
24275SOL    HW177763   6.649   7.730   9.628 -0.3637  0.7908 -1.1994
24275SOL    HW277764   6.759   7.790   9.544  2.6348  0.0147  1.9487
24276SOL     OW77765   6.728   2.024   7.671 -0.2385  0.4500  0.5664
24276SOL    HW177766   6.632   2.022   7.660 -0.2679  1.2451  0.6382
24276SOL    HW277767   6.749   1.937   7.704 -0.9535  0.2928  0.6416
24277SOL     OW77768   0.659   7.194   4.106 -0.0708 -0.1104  0.4879
24277SOL    HW177769   0.655   7.272   4.162  1.0819  2.0331 -2.1874
24277SOL    HW277770   0.579   7.199   4.053  0.2438 -0.4594 -0.0294
24278SOL     OW77771   2.763   6.217   5.852 -0.0201 -0.1378  0.1163
24278SOL    HW177772   2.759   6.172   5.937 -0.7376  3.0633  1.9186
24278SOL    HW277773   2.835   6.278   5.860  1.3437 -1.2163 -2.5045
24279SOL     OW77774   7.345  11.391   9.544 -0.2795  0.4726 -0.8447
24279SOL    HW177775   7.299  11.473   9.525 -0.1358  0.7563  0.0020
24279SOL    HW277776   7.360  11.352   9.458 -0.8014  1.0872 -1.2261
24280SOL     OW77777   6.709   7.883  11.340  0.1681 -0.0138  0.0067
24280SOL    HW177778   6.682   7.828  11.413 -0.6807 -0.9725 -0.9903
24280SOL    HW277779   6.651   7.959  11.344 -1.7517 -1.3206 -1.1945
24281SOL     OW77780   3.968   8.734  11.130  0.3770 -0.1931 -0.2534
24281SOL    HW177781   3.972   8.780  11.047  1.8346  1.3162  0.5870
24281SOL    HW277782   3.922   8.794  11.189  0.8999 -0.4725  0.4613
24282SOL     OW77783   9.142   2.306   0.344 -0.4145 -0.0054 -0.2445
24282SOL    HW177784   9.199   2.255   0.285  0.6309  1.1369 -0.2761
24282SOL    HW277785   9.084   2.354   0.285  0.6588  1.1687 -0.3965
24283SOL     OW77786   2.139   2.946   6.528 -0.3677  0.2866 -0.6529
24283SOL    HW177787   2.126   2.890   6.605 -0.3866  0.5709 -0.4467
24283SOL    HW277788   2.229   2.978   6.536 -0.2500  0.0278 -0.9424
24284SOL     OW77789   6.403   7.924   9.308  0.4182  0.2006 -0.1848
24284SOL    HW177790   6.458   7.967   9.374  0.9368 -0.0767 -0.4338
24284SOL    HW277791   6.462   7.864   9.263 -0.4575 -1.3689  0.6699
24285SOL     OW77792   2.573   8.658   2.596  0.2109  0.1907  0.3724
24285SOL    HW177793   2.496   8.682   2.648 -0.0503  1.2919 -0.4892
24285SOL    HW277794   2.540   8.653   2.506  1.0056 -0.0641  0.0885
24286SOL     OW77795   2.375  10.107   6.696 -0.5175 -0.6951  0.5633
24286SOL    HW177796   2.295  10.124   6.645  0.8464 -1.5413 -2.0034
24286SOL    HW277797   2.408  10.194   6.719 -0.4575 -0.2084 -1.2298
24287SOL     OW77798   0.142   1.889  10.153  0.2899  0.4090  0.5166
24287SOL    HW177799   0.057   1.854  10.127  0.5248  0.0400  0.2351
24287SOL    HW277800   0.125   1.981  10.173  0.1140  0.7368 -1.0307
24288SOL     OW77801   6.182   5.651   4.362 -0.9936 -0.0074  0.2772
24288SOL    HW177802   6.241   5.663   4.287  0.9183  0.0784  1.7070
24288SOL    HW277803   6.098   5.685   4.332 -0.2841  0.0714 -1.8017
24289SOL     OW77804   8.629  10.354   7.065  0.7297 -0.0462 -0.2823
24289SOL    HW177805   8.635  10.341   6.970 -1.3847 -0.5315 -0.3952
24289SOL    HW277806   8.578  10.280   7.096 -0.7545  1.3893  0.8662
24290SOL     OW77807  10.266   6.847   2.207 -0.5307  0.1465 -0.2702
24290SOL    HW177808  10.312   6.925   2.179 -0.0128 -1.2929 -3.9933
24290SOL    HW277809  10.332   6.795   2.253 -0.0427  0.5996 -0.4543
24291SOL     OW77810   3.479   0.733   7.261 -0.0094 -0.0558 -0.0528
24291SOL    HW177811   3.408   0.796   7.255 -0.3298 -0.3915  0.1489
24291SOL    HW277812   3.558   0.786   7.263 -0.3152  0.3906  1.1017
24292SOL     OW77813   2.701   7.889  10.096 -0.0586 -0.0530  0.0038
24292SOL    HW177814   2.773   7.859  10.151  0.4861  0.2217 -0.5413
24292SOL    HW277815   2.645   7.811  10.084  1.2959 -0.8818 -1.3352
24293SOL     OW77816   0.501  11.176   6.010 -0.3874  0.4804  0.6030
24293SOL    HW177817   0.569  11.116   5.981  0.5137  1.5722  0.3889
24293SOL    HW277818   0.423  11.121   6.022 -0.1359 -0.4115 -1.5180
24294SOL     OW77819   9.031   3.681   2.451  0.8132  0.1014 -0.5398
24294SOL    HW177820   9.024   3.701   2.358  0.4693 -1.2419 -0.8131
24294SOL    HW277821   9.040   3.767   2.493 -5.0197  1.4797 -1.2063
24295SOL     OW77822  11.209   2.289   1.551  0.0450  0.5776  0.2919
24295SOL    HW177823  11.267   2.215   1.535  1.0115  1.3516  0.1514
24295SOL    HW277824  11.202   2.293   1.647 -0.1155  0.2389  0.2979
24296SOL     OW77825   0.984   4.144   3.543 -0.1198 -0.7901  0.3890
24296SOL    HW177826   1.052   4.157   3.609  1.2853  0.0110 -1.1380
24296SOL    HW277827   1.031   4.112   3.466 -1.5834 -0.9022 -0.5012
24297SOL     OW77828   1.989  11.522   5.216 -0.3439  0.5437  0.4915
24297SOL    HW177829   2.037  11.452   5.173  0.5754  0.7111  1.2080
24297SOL    HW277830   2.056  11.588   5.238 -1.1859  1.6565 -0.1791
24298SOL     OW77831   0.141   0.396   4.476 -0.0036  0.0332  0.0160
24298SOL    HW177832   0.124   0.485   4.507  1.9110 -0.1217  1.6627
24298SOL    HW277833   0.216   0.366   4.527  0.0436 -2.1748 -1.2210
24299SOL     OW77834   1.135   9.135   2.005 -0.2281 -0.5538  0.7494
24299SOL    HW177835   1.184   9.059   2.036  0.1097 -0.9843 -0.7602
24299SOL    HW277836   1.202   9.191   1.966 -0.6584 -0.0914  0.6714
24300SOL     OW77837   0.001   7.079   7.221 -0.2617 -0.2113 -0.0842
24300SOL    HW177838  -0.053   7.155   7.244 -0.7399 -0.6082  0.1194
24300SOL    HW277839   0.063   7.113   7.156 -0.0397  0.5049  0.4909
24301SOL     OW77840   0.915   6.635   5.173 -0.5517  0.1842  0.1782
24301SOL    HW177841   1.000   6.664   5.139 -0.8983  0.8893 -0.1022
24301SOL    HW277842   0.937   6.585   5.252  0.1592 -0.1358 -0.2128
24302SOL     OW77843   3.376   5.091  10.786  0.3213  0.5299  0.2695
24302SOL    HW177844   3.321   5.079  10.863 -0.7097  1.3964 -0.3112
24302SOL    HW277845   3.366   5.183  10.763  0.5147  0.2574 -0.9746
24303SOL     OW77846   5.955   4.187   5.300  0.0097  0.5316 -0.2372
24303SOL    HW177847   5.959   4.092   5.289 -2.5910  0.4095 -0.7740
24303SOL    HW277848   5.914   4.219   5.219 -0.4709  1.9611  0.5321
24304SOL     OW77849  10.581   1.236   8.718 -0.4070 -0.5741 -0.5553
24304SOL    HW177850  10.604   1.323   8.686  0.4765 -0.0661  1.3252
24304SOL    HW277851  10.638   1.177   8.668 -0.3392  0.0031 -1.1748
24305SOL     OW77852   7.172   4.078   5.829 -0.2590  0.0752  0.1345
24305SOL    HW177853   7.209   4.097   5.915  0.6986  1.2869 -0.5110
24305SOL    HW277854   7.223   4.133   5.768 -1.3677 -0.2290 -1.1145
24306SOL     OW77855   3.974   3.135   8.110  0.1267  0.4534  0.8625
24306SOL    HW177856   3.966   3.229   8.130 -0.7211  0.9218 -1.3248
24306SOL    HW277857   3.910   3.093   8.166  0.2447  1.2313  1.6066
24307SOL     OW77858  10.844   7.100   0.652  0.1392 -0.1174 -1.1242
24307SOL    HW177859  10.931   7.122   0.618 -0.5420  1.7297 -1.7700
24307SOL    HW277860  10.790   7.177   0.634 -1.6436 -1.2023 -0.7035
24308SOL     OW77861   7.241   3.182   6.817  0.8976  0.1028 -0.2561
24308SOL    HW177862   7.303   3.113   6.841  0.8464  0.3480  0.5867
24308SOL    HW277863   7.162   3.162   6.867  0.0685 -0.5334 -1.7392
24309SOL     OW77864   2.834   1.145   7.420  0.1525  0.2591  0.2888
24309SOL    HW177865   2.838   1.077   7.487 -2.0988 -0.2692 -0.0368
24309SOL    HW277866   2.796   1.101   7.344  1.8491  1.0561 -1.1186
24310SOL     OW77867  10.149   8.221   0.690 -0.3717  0.0751 -0.2463
24310SOL    HW177868  10.079   8.217   0.755  0.1309 -2.6266  0.2322
24310SOL    HW277869  10.223   8.261   0.737 -0.1219 -1.5342  0.8004
24311SOL     OW77870   7.086  11.312   6.196  0.3498 -0.2014  1.0698
24311SOL    HW177871   7.046  11.282   6.277 -1.5854  0.3927  0.4015
24311SOL    HW277872   7.083  11.408   6.202  2.5364 -0.1110  1.3599
24312SOL     OW77873   4.665   5.546   4.394  0.2251  0.3360 -0.1970
24312SOL    HW177874   4.652   5.628   4.346  0.5582 -0.2608 -1.3492
24312SOL    HW277875   4.624   5.562   4.480  3.3014  2.9876  1.0149
24313SOL     OW77876   5.828   1.863   8.152 -0.4216 -0.5170 -0.5736
24313SOL    HW177877   5.824   1.768   8.138 -0.2171 -0.6696  0.3413
24313SOL    HW277878   5.790   1.876   8.239  0.6666  0.1108 -0.1714
24314SOL     OW77879   1.120   6.720   5.702 -0.6907  0.2670 -0.2999
24314SOL    HW177880   1.078   6.699   5.786 -0.1479 -0.6078 -0.2316
24314SOL    HW277881   1.165   6.803   5.718 -0.2522 -0.0956  0.4139
24315SOL     OW77882   2.660   2.627   3.145  0.0900  0.0410 -0.0050
24315SOL    HW177883   2.734   2.688   3.142 -1.1798  1.6350 -1.0529
24315SOL    HW277884   2.592   2.675   3.193  0.2250 -2.0737  2.5434
24316SOL     OW77885   3.171   3.227   9.171  0.2584  0.4297  0.3395
24316SOL    HW177886   3.186   3.301   9.229  1.1745 -1.0485  2.1052
24316SOL    HW277887   3.187   3.150   9.226  0.6913 -1.0750 -1.7712
24317SOL     OW77888   9.581   0.219   1.976  0.2360 -0.6485  0.0777
24317SOL    HW177889   9.540   0.231   2.062  0.2460  0.2541 -0.0300
24317SOL    HW277890   9.530   0.150   1.934 -1.5095  0.7241 -0.2220
24318SOL     OW77891   4.523   1.848   7.745  0.1728  0.3809 -0.3199
24318SOL    HW177892   4.532   1.941   7.726 -0.0650  0.5796  0.4940
24318SOL    HW277893   4.430   1.829   7.729 -0.0449  0.5652  0.6455
24319SOL     OW77894   3.628   5.985   3.175  0.8196 -0.8916  0.2037
24319SOL    HW177895   3.682   6.059   3.147 -2.2005  1.7979  0.9452
24319SOL    HW277896   3.578   5.961   3.097  0.0685 -0.5037  0.5536
24320SOL     OW77897   5.175   4.118  10.370 -0.2055  0.0118  0.8931
24320SOL    HW177898   5.136   4.097  10.285 -1.3841  0.3140  1.3409
24320SOL    HW277899   5.127   4.063  10.433  0.4362  0.0242  1.3991
24321SOL     OW77900   5.009   1.402   1.009 -0.4788  0.1010  0.4110
24321SOL    HW177901   4.984   1.428   0.920 -2.2500 -1.1305  0.4947
24321SOL    HW277902   4.988   1.478   1.063  0.9361  0.9857 -0.2332
24322SOL     OW77903   6.964   0.099   4.212  0.2717  0.4542 -0.6025
24322SOL    HW177904   6.912   0.161   4.161  1.0754  0.2849 -1.6698
24322SOL    HW277905   7.055   0.116   4.185  0.7532  0.5139  0.9550
24323SOL     OW77906   4.273   2.080   1.997  0.3603  0.1836 -0.5436
24323SOL    HW177907   4.286   2.009   2.060  0.9304 -0.5160 -1.4147
24323SOL    HW277908   4.190   2.120   2.023 -1.0460 -2.0868 -1.2016
24324SOL     OW77909   8.331   4.818   0.143  0.0268  0.5081  0.3264
24324SOL    HW177910   8.331   4.774   0.058 -1.0188 -0.8670  1.0007
24324SOL    HW277911   8.406   4.783   0.189 -0.0046  0.4707  0.3499
24325SOL     OW77912   0.634   1.228   4.371  0.1665  0.0296 -0.5171
24325SOL    HW177913   0.656   1.144   4.330  0.9350 -0.8957  1.6239
24325SOL    HW277914   0.611   1.205   4.461 -2.6836  1.8230 -0.6921
24326SOL     OW77915   8.289  11.211   7.212  0.1128  0.0782 -0.3775
24326SOL    HW177916   8.307  11.118   7.209  1.3376  0.2507  0.6115
24326SOL    HW277917   8.329  11.247   7.133  0.9719 -0.0478 -0.0108
24327SOL     OW77918   8.083   0.473   4.396 -0.3446 -0.1335  0.0357
24327SOL    HW177919   8.063   0.391   4.350 -0.6705  0.1069 -0.2623
24327SOL    HW277920   8.018   0.479   4.465 -0.7344  0.1909 -0.3519
24328SOL     OW77921   6.103   7.773   6.031  0.4450 -0.7819 -0.0192
24328SOL    HW177922   6.177   7.754   5.973 -0.1690 -0.3611 -0.9786
24328SOL    HW277923   6.052   7.692   6.032  1.3869 -1.3982  1.4154
24329SOL     OW77924   2.327   7.984   3.460 -0.1458 -0.2119  0.0751
24329SOL    HW177925   2.376   7.957   3.538 -0.6416 -2.9923 -0.4712
24329SOL    HW277926   2.285   8.066   3.485  1.8457  0.3902  1.7816
24330SOL     OW77927   8.384   3.792   6.595 -0.0818 -0.3426 -1.1127
24330SOL    HW177928   8.394   3.720   6.533 -1.6837 -0.3072 -1.4575
24330SOL    HW277929   8.339   3.861   6.546  0.1125  0.3345 -0.3701
24331SOL     OW77930   5.297  11.047  10.752  0.1043 -0.5131  0.3572
24331SOL    HW177931   5.390  11.056  10.771 -0.0316 -0.5470  1.0416
24331SOL    HW277932   5.259  11.131  10.775  0.0183 -0.3806 -0.2558
24332SOL     OW77933   0.256   0.332   6.506  0.2552 -0.2834  0.0880
24332SOL    HW177934   0.328   0.280   6.471  0.3608  0.4458 -0.8224
24332SOL    HW277935   0.219   0.376   6.429 -0.6366 -0.0119  0.6594
24333SOL     OW77936  11.201   4.449   0.646  0.2382 -0.0786 -0.6179
24333SOL    HW177937  11.268   4.404   0.593  1.7128  0.6117  0.5791
24333SOL    HW277938  11.214   4.542   0.627  1.0989  0.2162  1.2285
24334SOL     OW77939   5.659   6.762   3.972 -0.2479  0.6110  0.1868
24334SOL    HW177940   5.679   6.798   3.886 -0.5827 -0.4360 -0.3507
24334SOL    HW277941   5.568   6.731   3.965 -0.6673  1.4943  1.2698
24335SOL     OW77942   4.489   1.923   1.402  0.3821  0.0756 -0.4265
24335SOL    HW177943   4.533   1.924   1.316  0.3564  0.0470 -0.4399
24335SOL    HW277944   4.458   1.833   1.411 -3.6604  1.0458 -2.4276
24336SOL     OW77945   8.089   4.047   3.405 -0.1494  0.3114 -0.6317
24336SOL    HW177946   8.156   4.087   3.349 -0.5492  2.2217  0.1542
24336SOL    HW277947   8.006   4.083   3.373 -0.4209  1.0679  0.8123
24337SOL     OW77948   7.846  11.425   0.381 -0.3878 -0.1983 -0.0290
24337SOL    HW177949   7.843  11.493   0.449  1.1288 -1.9086  1.9024
24337SOL    HW277950   7.939  11.416   0.361 -0.6683 -0.9295 -1.0911
24338SOL     OW77951   4.724   9.204   6.855  0.2201 -0.5710  0.2368
24338SOL    HW177952   4.638   9.208   6.897 -0.1314  0.3496 -0.5380
24338SOL    HW277953   4.784   9.183   6.927 -0.5013 -0.0619  1.0205
24339SOL     OW77954   7.924   2.792   8.172  0.3883  0.4792  0.4092
24339SOL    HW177955   7.829   2.784   8.161 -0.0509  1.5181  2.8998
24339SOL    HW277956   7.950   2.711   8.215  0.4875  0.6064  0.5861
24340SOL     OW77957  10.371   6.156   2.506 -0.4877  0.0605  0.0646
24340SOL    HW177958  10.390   6.223   2.440  1.7068 -0.6711 -0.1337
24340SOL    HW277959  10.378   6.073   2.458 -1.1007 -0.4049  0.7506
24341SOL     OW77960  10.929   4.571   9.384  0.0206  0.2223 -0.5799
24341SOL    HW177961  11.012   4.600   9.347 -0.9855  1.7197 -1.7373
24341SOL    HW277962  10.883   4.529   9.311 -0.6728  0.3339 -0.2142
24342SOL     OW77963   9.116   6.722  10.497  0.5759  0.4392  0.0621
24342SOL    HW177964   9.082   6.651  10.551  0.2129  0.7246  0.2090
24342SOL    HW277965   9.199   6.688  10.462 -0.0092 -0.3810 -0.5535
24343SOL     OW77966  11.326  10.564   8.227  0.4144 -0.0515  0.1697
24343SOL    HW177967  11.326  10.658   8.244  0.1607 -0.0743  0.2972
24343SOL    HW277968  11.412  10.534   8.259  1.4309  0.4922 -1.9081
24344SOL     OW77969   9.194   8.425   8.604 -0.4527  0.1122  0.4119
24344SOL    HW177970   9.135   8.350   8.599 -0.3200 -0.0032  0.6021
24344SOL    HW277971   9.225   8.437   8.514 -0.4462 -0.0833  0.3883
24345SOL     OW77972   7.252   2.059   9.877  0.4711 -0.6624 -0.4204
24345SOL    HW177973   7.210   1.989   9.827  2.4793 -0.7168 -2.1978
24345SOL    HW277974   7.224   2.140   9.833 -0.3818 -0.4640  0.4696
24346SOL     OW77975   8.429  10.663   5.657 -0.6179  0.0062 -0.2706
24346SOL    HW177976   8.467  10.750   5.662 -0.9311  0.2450 -1.5449
24346SOL    HW277977   8.416  10.637   5.748 -2.5780  2.1952  0.1793
24347SOL     OW77978   1.497   1.864   8.974  0.2798 -0.2827 -0.2871
24347SOL    HW177979   1.548   1.792   9.012  0.9668 -0.2759 -1.1648
24347SOL    HW277980   1.499   1.847   8.880  0.3426  0.8074 -0.4887
24348SOL     OW77981   3.163   2.809   2.771 -0.2825 -0.3318 -0.0698
24348SOL    HW177982   3.153   2.743   2.840 -0.9113  1.5525  1.7555
24348SOL    HW277983   3.082   2.860   2.775 -1.7045 -1.8212 -4.2251
24349SOL     OW77984   6.380   5.067   6.727  0.1105  1.0211  0.0421
24349SOL    HW177985   6.354   5.153   6.695  1.2378  1.3905  0.0806
24349SOL    HW277986   6.453   5.084   6.786  0.5356  0.0180 -0.1719
24350SOL     OW77987   8.261   3.469   1.835  0.5325  0.3484 -0.5255
24350SOL    HW177988   8.250   3.525   1.758  0.1443 -0.1619 -0.8394
24350SOL    HW277989   8.235   3.382   1.806  0.6600  0.0962  0.1051
24351SOL     OW77990   3.996   0.075   6.650  0.2555 -0.5730  0.1175
24351SOL    HW177991   3.947   0.063   6.568 -0.4349  1.1222  0.2350
24351SOL    HW277992   4.055   0.000   6.654  1.4686  0.1097 -2.7497
24352SOL     OW77993  10.467  11.101  10.001  0.6901  0.2301 -0.4949
24352SOL    HW177994  10.492  11.024   9.949 -1.3710 -0.5060 -0.4979
24352SOL    HW277995  10.414  11.065  10.072  2.8098  1.2845  1.7863
24353SOL     OW77996  10.139   4.883   8.550  0.0269 -0.2636 -0.2347
24353SOL    HW177997  10.225   4.925   8.546  0.9772 -2.0365  0.5459
24353SOL    HW277998  10.152   4.799   8.507 -1.3521 -0.5381 -0.1566
24354SOL     OW77999   4.271   9.930   6.933 -0.7048 -0.2900  0.1583
24354SOL    HW178000   4.328   9.913   7.008 -0.2033 -1.4055 -0.4469
24354SOL    HW278001   4.183   9.912   6.965 -0.6566  0.7260  0.8977
24355SOL     OW78002   6.064   7.766   2.667  0.4965  0.0092 -0.1846
24355SOL    HW178003   6.018   7.686   2.640  2.2558 -1.1929  0.1985
24355SOL    HW278004   6.140   7.770   2.610  0.4145  1.4620 -0.2222
24356SOL     OW78005   6.422   7.740   3.325 -0.1634 -0.2748 -0.0510
24356SOL    HW178006   6.474   7.665   3.296  0.7114  0.5741 -0.8012
24356SOL    HW278007   6.431   7.740   3.420  0.3913 -0.7369 -0.0937
24357SOL     OW78008   7.005   8.824   4.899  0.0720 -0.0028  0.5358
24357SOL    HW178009   7.100   8.836   4.899  0.1828 -0.8401  0.3033
24357SOL    HW278010   6.982   8.817   4.806 -0.2928  0.7131  0.5618
24358SOL     OW78011   8.115   3.775   4.717  0.1470  0.6180 -0.2229
24358SOL    HW178012   8.124   3.691   4.760  1.1387  1.2585  0.8719
24358SOL    HW278013   8.033   3.768   4.667  0.2699 -1.0045 -0.2368
24359SOL     OW78014   2.160  11.634   6.660  0.2520 -0.1327 -0.1735
24359SOL    HW178015   2.110  11.637   6.741  0.6601 -0.9983  0.1278
24359SOL    HW278016   2.227  11.568   6.676  2.1208  1.6315 -0.1942
24360SOL     OW78017   1.335   8.778   7.031 -0.4120 -0.4167 -0.0097
24360SOL    HW178018   1.347   8.862   7.075  0.0271 -0.0873 -0.7480
24360SOL    HW278019   1.365   8.793   6.942  0.3789 -1.5620  0.0424
24361SOL     OW78020   5.469   3.206   2.229 -0.2687  0.4518  0.1354
24361SOL    HW178021   5.562   3.224   2.244  0.1877 -2.3202  1.0784
24361SOL    HW278022   5.466   3.168   2.141 -0.5100  0.4382  0.1493
24362SOL     OW78023   6.387   3.521   1.754 -0.3175  0.2545  0.5869
24362SOL    HW178024   6.409   3.479   1.837  1.2619 -2.0031 -0.8829
24362SOL    HW278025   6.310   3.473   1.722 -1.3775  1.5936  1.0283
24363SOL     OW78026   0.225  10.258   1.181 -0.2247  0.2220  0.1910
24363SOL    HW178027   0.271  10.227   1.103  0.7658 -1.0620  1.2371
24363SOL    HW278028   0.197  10.347   1.159  0.5030  0.0843 -1.4182
24364SOL     OW78029   2.194   1.780   6.201 -0.2426  0.2615  0.2587
24364SOL    HW178030   2.127   1.821   6.255 -1.1924 -0.9129  0.0167
24364SOL    HW278031   2.172   1.687   6.202  1.8223 -0.2852  0.7800
24365SOL     OW78032   5.819   5.394   7.061  0.2770 -0.3963 -0.0436
24365SOL    HW178033   5.737   5.435   7.032 -0.5407 -1.1056  1.1308
24365SOL    HW278034   5.803   5.300   7.053  0.9246 -0.5428  0.3158
24366SOL     OW78035  11.626  10.740   2.048 -0.1671 -0.2337 -0.3725
24366SOL    HW178036  11.682  10.667   2.075 -1.0794 -1.1695 -0.9483
24366SOL    HW278037  11.564  10.751   2.121  0.7483  0.8295  0.2835
24367SOL     OW78038   2.511   3.427   4.688 -0.4019  0.2676 -0.2245
24367SOL    HW178039   2.582   3.372   4.656 -0.6794 -0.4098  0.3014
24367SOL    HW278040   2.432   3.375   4.674 -0.7594  0.8614 -0.4569
24368SOL     OW78041   7.981   4.816   5.336 -0.0477  0.5086 -0.2227
24368SOL    HW178042   7.996   4.729   5.300 -0.9672  0.7124 -1.1621
24368SOL    HW278043   7.986   4.804   5.430  0.8688 -0.3524 -0.3648
24369SOL     OW78044   2.314  10.014   7.833  0.3102 -0.0368 -0.1403
24369SOL    HW178045   2.321   9.923   7.803  0.4628  0.7139 -2.6009
24369SOL    HW278046   2.224  10.022   7.865  0.6115 -1.2939  1.1183
24370SOL     OW78047   2.097   6.619   2.659  0.3398  0.1230  0.6461
24370SOL    HW178048   2.018   6.617   2.605 -0.4774 -1.1353  1.8206
24370SOL    HW278049   2.169   6.622   2.596 -0.5543 -1.8423 -0.5866
24371SOL     OW78050   3.070   9.000   1.478  0.1279  0.2889  0.2590
24371SOL    HW178051   2.986   8.974   1.515  1.3068  0.5695  3.4148
24371SOL    HW278052   3.124   8.922   1.485  0.8171  0.7813  0.5088
24372SOL     OW78053  11.673   2.969   2.927 -0.3387 -0.1803 -0.2859
24372SOL    HW178054  11.720   2.923   2.996  0.2969  3.2168  1.8020
24372SOL    HW278055  11.709   2.934   2.846  1.5667 -1.7816  1.1334
24373SOL     OW78056   0.754   8.964   7.446 -0.1692 -0.6834 -0.2128
24373SOL    HW178057   0.676   8.909   7.441 -0.3010 -0.8404  2.2461
24373SOL    HW278058   0.757   8.993   7.537  0.5855  2.3985 -1.0971
24374SOL     OW78059   5.999  10.782   8.638 -0.2325  0.5380  0.0887
24374SOL    HW178060   6.079  10.784   8.585 -1.2521 -0.9042 -1.6213
24374SOL    HW278061   5.947  10.856   8.606 -0.2113  0.5589  0.1034
24375SOL     OW78062   9.595   5.186   0.881 -0.4438 -0.4535  0.2136
24375SOL    HW178063   9.604   5.254   0.814 -0.1427 -1.2000 -0.5296
24375SOL    HW278064   9.635   5.223   0.959  1.1534 -0.3413 -0.6030
24376SOL     OW78065   2.657   2.104   6.900  0.5669 -0.1725 -0.7470
24376SOL    HW178066   2.647   2.124   6.993  2.5085  1.7050 -0.8674
24376SOL    HW278067   2.573   2.065   6.875 -1.3315  2.4395  0.9954
24377SOL     OW78068   4.931   2.403   3.588 -0.0027  0.3062 -0.2047
24377SOL    HW178069   4.957   2.464   3.519 -0.6823  1.7053  0.7337
24377SOL    HW278070   5.013   2.382   3.634  0.6954 -1.6675 -2.1351
24378SOL     OW78071  11.111   7.953   0.912  0.0226  0.7401 -0.2970
24378SOL    HW178072  11.083   8.023   0.971  0.1130  0.0511  0.5745
24378SOL    HW278073  11.125   7.878   0.969 -0.2123 -0.0342 -1.2447
24379SOL     OW78074   7.406   1.595   5.450  0.0786  0.8111  0.1864
24379SOL    HW178075   7.487   1.545   5.443  0.8294  1.6082  2.5259
24379SOL    HW278076   7.354   1.548   5.515 -1.9969 -0.4258 -2.1749
24380SOL     OW78077   8.867  11.388   4.554 -0.1981  0.4540  0.1527
24380SOL    HW178078   8.871  11.304   4.599  1.1446  0.7220  0.5693
24380SOL    HW278079   8.942  11.387   4.494  1.3544  2.3132  1.9293
24381SOL     OW78080   1.295   2.075   3.048 -0.6559 -0.1309  0.2747
24381SOL    HW178081   1.284   2.024   3.128 -0.8226 -0.7392 -0.1318
24381SOL    HW278082   1.233   2.037   2.986 -1.0863  0.8362  0.0874
24382SOL     OW78083  11.219  11.432   0.396  0.0127  0.0400  0.3339
24382SOL    HW178084  11.177  11.515   0.417  1.5183  0.9242 -0.0047
24382SOL    HW278085  11.180  11.405   0.313  0.5422  1.1798 -0.3148
24383SOL     OW78086   9.217   5.592  10.249  0.0828 -0.5004 -0.1714
24383SOL    HW178087   9.236   5.677  10.209  1.3467 -0.4016  0.5777
24383SOL    HW278088   9.190   5.537  10.175  1.0332  0.0461 -0.9618
24384SOL     OW78089   1.969   5.803   3.924  0.1565 -0.1560 -0.7229
24384SOL    HW178090   1.977   5.723   3.977 -1.3681  0.0131 -0.1916
24384SOL    HW278091   1.881   5.797   3.885  0.1573  1.0934 -0.9582
24385SOL     OW78092   3.555   6.519   2.057  0.6101 -0.1079 -0.2560
24385SOL    HW178093   3.508   6.518   1.974 -0.8871  0.0173  0.5553
24385SOL    HW278094   3.539   6.432   2.095  0.1370  0.3016  0.5025
24386SOL     OW78095   0.687  11.664   9.262  0.7297  0.2013  0.3180
24386SOL    HW178096   0.763  11.611   9.286  1.3158  1.0086  0.3008
24386SOL    HW278097   0.718  11.754   9.271 -0.4270  0.5524  0.9317
24387SOL     OW78098   2.849  11.284   1.691  0.4464  0.0558  0.3436
24387SOL    HW178099   2.845  11.370   1.648 -0.0642 -0.2020 -0.1410
24387SOL    HW278100   2.759  11.252   1.690  0.5511 -0.2716  0.9724
24388SOL     OW78101   6.373   5.150   1.500  0.8073  0.0086  0.4656
24388SOL    HW178102   6.456   5.109   1.475  0.8880 -0.3498  1.2763
24388SOL    HW278103   6.381   5.163   1.595 -0.0644 -0.0416  0.5509
24389SOL     OW78104   7.145   4.685   0.442 -0.0616 -0.4193 -0.6376
24389SOL    HW178105   7.240   4.688   0.442 -0.0852  0.8723 -0.9519
24389SOL    HW278106   7.118   4.774   0.420 -1.3909  0.1439  2.7499
24390SOL     OW78107   1.971   8.038   3.458  0.6134 -0.0965 -0.0716
24390SOL    HW178108   2.022   7.960   3.435  0.5062  0.1980 -1.3747
24390SOL    HW278109   1.964   8.087   3.377 -0.0832  0.8436  0.5360
24391SOL     OW78110   7.033   8.693   2.455 -0.0556  0.2168  0.3101
24391SOL    HW178111   7.012   8.787   2.455 -0.1843  0.1885  0.4995
24391SOL    HW278112   7.122   8.689   2.420  0.0324  0.4292  0.5008
24392SOL     OW78113   1.540  11.257   5.173  0.4841 -0.6939 -0.1102
24392SOL    HW178114   1.633  11.238   5.168  0.4364 -1.3314  1.0683
24392SOL    HW278115   1.499  11.172   5.191 -0.2612 -0.3123  0.0295
24393SOL     OW78116   3.547  10.104  10.709 -0.6176 -0.3119  0.4196
24393SOL    HW178117   3.595  10.101  10.626  0.2703 -3.5333  0.9034
24393SOL    HW278118   3.455  10.111  10.683 -0.2165  1.6483 -0.6737
24394SOL     OW78119   6.069   1.576   6.829 -0.4290 -0.3399 -0.2079
24394SOL    HW178120   6.114   1.580   6.913  0.2913 -1.5917 -0.5130
24394SOL    HW278121   6.022   1.493   6.830 -1.9387  0.4652 -0.3292
24395SOL     OW78122   2.227   8.172  10.070 -0.3610  0.0035 -0.0896
24395SOL    HW178123   2.248   8.250  10.120 -0.3441  0.7146 -1.1738
24395SOL    HW278124   2.134   8.156  10.088 -0.0406 -0.5484  1.2014
24396SOL     OW78125   7.440  11.600  11.094  0.0723  0.2455 -0.1614
24396SOL    HW178126   7.490  11.521  11.071 -2.0557 -1.4384  0.6123
24396SOL    HW278127   7.452  11.659  11.019  1.8345 -0.7493 -0.7138
24397SOL     OW78128   4.901   2.129   6.715  0.1031 -0.0251 -0.6772
24397SOL    HW178129   4.858   2.215   6.715  1.1634  0.5194 -0.1844
24397SOL    HW278130   4.883   2.093   6.802 -0.3967 -0.3510 -0.9060
24398SOL     OW78131  11.257   8.974   4.782  0.3020  0.2506 -0.0853
24398SOL    HW178132  11.224   9.053   4.738  0.0967 -0.0402 -0.4601
24398SOL    HW278133  11.303   9.007   4.859  0.2629  0.7405 -0.2680
24399SOL     OW78134   6.624   6.713   2.946 -0.1825 -0.3654 -0.2293
24399SOL    HW178135   6.606   6.701   3.039 -0.1331 -1.0987 -0.3057
24399SOL    HW278136   6.671   6.796   2.941  1.4323 -1.1818  0.6188
24400SOL     OW78137   6.940   3.548   4.402  1.1522  0.0198  0.1212
24400SOL    HW178138   6.849   3.544   4.372  1.6860 -2.9025 -1.5086
24400SOL    HW278139   6.975   3.627   4.361 -0.5699  1.1535  0.7061
24401SOL     OW78140   4.556   7.030   1.319  0.3585  0.8607 -0.8221
24401SOL    HW178141   4.498   7.100   1.287  0.6240  0.4667 -2.2485
24401SOL    HW278142   4.503   6.981   1.382  0.2142  2.4085  0.3155
24402SOL     OW78143   9.574   4.773   1.248  0.5211 -0.1616 -0.1458
24402SOL    HW178144   9.646   4.755   1.188  0.3504 -0.0911 -0.3734
24402SOL    HW278145   9.616   4.811   1.326  0.5607  1.6671 -1.0178
24403SOL     OW78146   2.107   7.954   8.556 -0.1698  0.0035 -0.0635
24403SOL    HW178147   2.015   7.977   8.542  0.1711  0.8836 -0.8760
24403SOL    HW278148   2.112   7.861   8.532 -1.0975 -0.4157  1.2243
24404SOL     OW78149   2.313   6.143   8.843 -0.3056 -0.9870  0.0917
24404SOL    HW178150   2.229   6.109   8.872  0.6082 -2.1073  1.6197
24404SOL    HW278151   2.375   6.115   8.911  1.2098  0.2651 -0.6943
24405SOL     OW78152  11.618   7.530   5.113 -0.5875  0.5681  0.6104
24405SOL    HW178153  11.548   7.587   5.142 -1.4757 -0.7252  1.0700
24405SOL    HW278154  11.576   7.446   5.094  0.7457 -0.0936  0.3997
24406SOL     OW78155   9.696   8.990  10.342  0.1520  0.1717  0.1432
24406SOL    HW178156   9.681   9.007  10.249 -0.1475  0.4882  0.2460
24406SOL    HW278157   9.732   8.902  10.344 -1.8332 -0.7069 -0.1298
24407SOL     OW78158   1.724   0.079  11.423  0.3561  0.3114 -0.0498
24407SOL    HW178159   1.791   0.134  11.382  1.9207 -1.1736  0.3963
24407SOL    HW278160   1.716   0.004  11.364 -0.6120  0.2586  0.1364
24408SOL     OW78161   5.622   1.971   0.576 -0.3960  0.0082 -0.0640
24408SOL    HW178162   5.663   2.052   0.605  0.2364 -0.2197 -0.2956
24408SOL    HW278163   5.547   1.960   0.634 -1.6803  1.7705 -1.2767
24409SOL     OW78164   4.955   8.077   8.177  0.1717 -0.8504  0.0584
24409SOL    HW178165   5.013   8.130   8.231 -1.7434  1.7558 -0.2651
24409SOL    HW278166   4.907   8.022   8.240 -2.4943  2.5806  1.3352
24410SOL     OW78167   0.328   3.304   9.812 -0.2473 -0.2792  0.6619
24410SOL    HW178168   0.289   3.277   9.895  1.3548 -1.0491  1.2172
24410SOL    HW278169   0.318   3.228   9.755  1.2042 -0.8456  1.1129
24411SOL     OW78170   3.962   2.515   5.515 -0.3359  0.5425  0.5237
24411SOL    HW178171   3.897   2.585   5.517 -0.1554  0.7595 -0.5126
24411SOL    HW278172   3.914   2.437   5.489 -0.3414  0.5178  0.6088
24412SOL     OW78173   8.893   4.344  10.404  0.5798 -0.8932  0.2070
24412SOL    HW178174   8.971   4.298  10.435  1.3009  0.5906  0.6764
24412SOL    HW278175   8.828   4.331  10.473  0.5931 -1.6563  0.0792
24413SOL     OW78176   4.911   0.779   4.584  0.0553 -0.1421 -0.5087
24413SOL    HW178177   4.929   0.695   4.541  0.3441  0.0866 -0.8347
24413SOL    HW278178   4.862   0.829   4.519  1.3294  0.5741 -0.9683
24414SOL     OW78179   7.381  10.117   2.402  0.1239 -0.0062 -0.2856
24414SOL    HW178180   7.443  10.190   2.409 -1.1889  1.3283 -1.8379
24414SOL    HW278181   7.423  10.056   2.341  0.5017  0.2148 -0.2527
24415SOL     OW78182   1.993   7.386   7.570  0.0454 -0.0655 -0.1416
24415SOL    HW178183   2.006   7.344   7.485  2.6302 -0.3575  0.3433
24415SOL    HW278184   2.069   7.362   7.621 -0.9149  1.0298  1.9197
24416SOL     OW78185   6.245  10.377   5.965 -0.3151 -0.2645 -0.2221
24416SOL    HW178186   6.282  10.376   5.876 -3.5249  2.2131 -1.7963
24416SOL    HW278187   6.236  10.285   5.989  2.2087 -0.9892 -1.6784
24417SOL     OW78188   0.474   0.215  11.219  0.3064  0.2468 -0.7060
24417SOL    HW178189   0.494   0.123  11.202  0.0982  0.0190  0.2415
24417SOL    HW278190   0.379   0.217  11.231  0.4082  0.4303  0.1382
24418SOL     OW78191   2.654   6.594   8.659 -0.5385 -0.4767  0.1946
24418SOL    HW178192   2.659   6.686   8.631 -0.3645  0.0302  1.7835
24418SOL    HW278193   2.722   6.550   8.608  0.9710  0.7522  1.0499
24419SOL     OW78194   8.602  11.076   0.933  0.0182 -0.1859 -0.5797
24419SOL    HW178195   8.663  11.149   0.920  0.6747 -0.7410 -0.6936
24419SOL    HW278196   8.629  11.011   0.868  0.7542 -1.3555  0.8164
24420SOL     OW78197   2.425   9.548   1.953 -0.2772  0.0193 -0.2174
24420SOL    HW178198   2.420   9.454   1.969 -2.3151  0.0400 -0.4249
24420SOL    HW278199   2.517   9.564   1.931  0.0917 -1.9286 -0.2740
24421SOL     OW78200   6.332   2.361   1.412  0.6082  1.0973  0.3276
24421SOL    HW178201   6.344   2.267   1.394 -1.9935  0.9652 -1.2716
24421SOL    HW278202   6.335   2.367   1.508 -1.9434 -1.1641  0.6834
24422SOL     OW78203   9.545   3.198   2.089 -0.4819  0.0650 -0.0875
24422SOL    HW178204   9.545   3.200   1.994 -2.1453 -1.9990 -0.1870
24422SOL    HW278205   9.453   3.196   2.114 -0.0829  0.0554  1.5684
24423SOL     OW78206   6.114  11.280   8.258 -0.4436 -0.3479 -0.3879
24423SOL    HW178207   6.208  11.294   8.249 -0.6215  0.3463 -1.3250
24423SOL    HW278208   6.102  11.186   8.244  0.1445 -0.5100  0.1420
24424SOL     OW78209  10.373   8.061   8.376  0.0934 -0.0339  0.3866
24424SOL    HW178210  10.450   8.072   8.432 -0.6215  0.0472  1.3588
24424SOL    HW278211  10.344   7.972   8.393 -0.9333  0.4404  1.1887
24425SOL     OW78212   3.474  11.218  10.941 -0.4089 -0.6208  0.4978
24425SOL    HW178213   3.396  11.274  10.947  0.4823  0.7185  0.1837
24425SOL    HW278214   3.509  11.216  11.030  0.0981  0.1773  0.3341
24426SOL     OW78215   8.270   3.450   6.010 -0.1687 -0.3568  0.0911
24426SOL    HW178216   8.233   3.467   5.923 -0.3199 -0.1792  0.1912
24426SOL    HW278217   8.198   3.466   6.070  0.8665  3.2713  0.5971
24427SOL     OW78218   0.310   3.117   3.878  0.4364  0.0408  0.2513
24427SOL    HW178219   0.250   3.044   3.862  3.2683 -2.4344  0.1223
24427SOL    HW278220   0.305   3.170   3.799  0.4524 -1.6519 -0.9278
24428SOL     OW78221   0.840   8.449   2.662  0.2026  0.0052 -0.0507
24428SOL    HW178222   0.868   8.451   2.754  1.8608 -1.4257 -0.4681
24428SOL    HW278223   0.762   8.394   2.662  0.1871  0.0207  0.5032
24429SOL     OW78224   4.879   7.714  10.826  0.0131  0.6201 -0.0540
24429SOL    HW178225   4.918   7.627  10.831  0.8893  1.0235  0.4719
24429SOL    HW278226   4.920   7.763  10.898 -1.5595  1.0517  0.6065
24430SOL     OW78227   7.348   3.365  10.086 -0.6382 -0.4147  0.0578
24430SOL    HW178228   7.405   3.420  10.141  0.2356  1.4676 -2.5273
24430SOL    HW278229   7.261   3.374  10.126 -0.2506  1.7898  0.5727
24431SOL     OW78230   3.353   3.868  10.194  0.2075  0.0077  0.5519
24431SOL    HW178231   3.356   3.816  10.274  1.6214 -0.7787  0.0145
24431SOL    HW278232   3.259   3.877  10.175 -0.1909  0.8356  2.6563
24432SOL     OW78233   0.937   9.846   9.269 -0.0099  0.0904  0.1424
24432SOL    HW178234   0.955   9.935   9.238 -2.3215  0.1588 -1.2139
24432SOL    HW278235   1.007   9.793   9.229  0.6997  1.1017 -0.0133
24433SOL     OW78236   2.955   6.966   2.489 -0.4877 -0.0520 -0.2772
24433SOL    HW178237   2.892   6.899   2.463  0.0028 -0.6046 -0.0856
24433SOL    HW278238   3.014   6.921   2.550  0.3124  0.3354 -0.7441
24434SOL     OW78239   4.581   2.223   1.280 -0.4269 -0.0735  0.7747
24434SOL    HW178240   4.587   2.183   1.367  2.5681  0.7834  1.0836
24434SOL    HW278241   4.582   2.150   1.219 -0.2036 -0.6177  1.4181
24435SOL     OW78242  11.486   9.627   1.126  0.0563  0.1780  0.1885
24435SOL    HW178243  11.479   9.550   1.071  0.9511 -0.1647  0.5350
24435SOL    HW278244  11.398   9.665   1.126 -0.7016 -1.5091  0.9925
24436SOL     OW78245  11.041   1.233   1.140  0.5403 -0.2075  0.1283
24436SOL    HW178246  10.987   1.307   1.168 -1.1922 -1.5320  0.4334
24436SOL    HW278247  11.085   1.204   1.220 -0.0888 -0.5321  0.3637
24437SOL     OW78248   9.297  11.406   3.236 -0.3615  0.1190  0.2184
24437SOL    HW178249   9.220  11.456   3.208 -0.3477 -0.0995 -0.2257
24437SOL    HW278250   9.264  11.317   3.248 -0.7188  0.4964  2.4626
24438SOL     OW78251   2.096   0.644   2.438  0.0410  0.1941 -0.0836
24438SOL    HW178252   2.058   0.712   2.381 -1.9999  1.2132  2.3138
24438SOL    HW278253   2.138   0.584   2.377 -2.8210  0.6662 -2.8405
24439SOL     OW78254   6.936   4.093   8.297  0.0480 -0.0568 -0.0958
24439SOL    HW178255   6.939   4.072   8.391  0.5126 -0.6491 -0.2392
24439SOL    HW278256   6.843   4.097   8.276 -0.0608  0.1634  0.4076
24440SOL     OW78257   2.803   7.384   6.200  0.3576  0.1563  0.3012
24440SOL    HW178258   2.873   7.357   6.259  1.8723  2.4122 -0.3241
24440SOL    HW278259   2.739   7.313   6.203  2.5894 -1.9253  1.0357
24441SOL     OW78260   1.143   2.271   9.390  0.2721  0.0511  0.0297
24441SOL    HW178261   1.205   2.232   9.452  0.5784  0.3671 -0.0754
24441SOL    HW278262   1.179   2.249   9.304 -1.2988 -2.3160 -0.1360
24442SOL     OW78263   8.826   1.696   6.553 -0.0606 -0.7148 -0.1857
24442SOL    HW178264   8.815   1.735   6.466  0.1482  0.7896  0.4338
24442SOL    HW278265   8.788   1.608   6.545  0.1988 -0.7065 -1.8594
24443SOL     OW78266   8.407   5.567   9.525 -0.3426 -0.9282  0.7686
24443SOL    HW178267   8.350   5.626   9.574  1.2172  0.7639  0.6731
24443SOL    HW278268   8.496   5.598   9.546  0.4730 -2.3003 -0.4893
24444SOL     OW78269   5.954   7.750   3.316 -0.2500 -0.7202 -0.1189
24444SOL    HW178270   6.009   7.787   3.248  0.7459 -1.1677  0.4215
24444SOL    HW278271   5.985   7.660   3.326 -0.3951 -0.6747  0.8974
24445SOL     OW78272   6.833   6.025  11.354  0.6461 -0.6026 -0.8417
24445SOL    HW178273   6.848   6.113  11.387 -2.1156 -1.3030  2.8156
24445SOL    HW278274   6.746   6.028  11.315  0.3514 -1.7770 -0.3158
24446SOL     OW78275   0.601   2.380  10.183  0.1623  0.3586  0.0246
24446SOL    HW178276   0.673   2.398  10.243  0.3036 -0.1927  0.0231
24446SOL    HW278277   0.525   2.366  10.239  0.3147 -0.2493  0.0783
24447SOL     OW78278   4.419   9.945  10.351 -0.4398  0.0722  0.0461
24447SOL    HW178279   4.506   9.965  10.385 -0.2729 -0.9019  0.2133
24447SOL    HW278280   4.413   9.994  10.269  0.1843  0.2979  0.1317
24448SOL     OW78281   7.282   8.731   8.587  0.1347 -0.4461  0.1882
24448SOL    HW178282   7.290   8.823   8.613  1.4979 -0.2519 -0.8363
24448SOL    HW278283   7.372   8.697   8.589 -0.4027 -1.9379  1.1107
24449SOL     OW78284   8.911  10.877   8.133 -0.2020 -0.3004 -0.3307
24449SOL    HW178285   8.946  10.884   8.044 -1.7534 -0.0636 -0.9654
24449SOL    HW278286   8.827  10.923   8.129 -0.7020 -1.0434  1.0336
24450SOL     OW78287  10.525   4.260  10.623  0.0887 -0.6211 -0.4189
24450SOL    HW178288  10.468   4.336  10.609  0.2585 -0.1371  1.3532
24450SOL    HW278289  10.566   4.245  10.537 -1.0174  0.3821 -1.1561
24451SOL     OW78290   5.541   8.319   9.343 -0.0426 -0.3853 -0.0131
24451SOL    HW178291   5.546   8.401   9.294  0.4497 -0.9042 -0.8487
24451SOL    HW278292   5.613   8.324   9.406 -0.6917  0.2942  0.6890
24452SOL     OW78293   8.330   8.434   0.979  0.1458 -0.1428  0.5463
24452SOL    HW178294   8.285   8.368   1.032 -0.4730 -0.0743  0.1079
24452SOL    HW278295   8.420   8.433   1.011 -0.3705  0.4143  2.1306
24453SOL     OW78296  10.400   4.294   4.618 -0.3650  0.1756  0.1254
24453SOL    HW178297  10.382   4.328   4.530 -0.6948  1.2966  0.6032
24453SOL    HW278298  10.408   4.372   4.672 -1.0026 -0.5194  1.2541
24454SOL     OW78299   6.821   4.479   0.947 -0.0066 -0.4195  0.3107
24454SOL    HW178300   6.845   4.476   1.039 -0.0348  1.7187  0.4391
24454SOL    HW278301   6.761   4.406   0.935  1.3592 -1.8132  1.5485
24455SOL     OW78302   1.022   7.557   6.257  0.6175 -0.0574  0.7655
24455SOL    HW178303   1.040   7.513   6.174 -1.1829 -2.2431  1.4228
24455SOL    HW278304   1.109   7.579   6.291  1.5278 -1.3825 -0.5309
24456SOL     OW78305   0.354  10.494   8.238 -0.6435 -0.2985 -0.6076
24456SOL    HW178306   0.344  10.562   8.172  0.7199 -0.5895 -1.1580
24456SOL    HW278307   0.403  10.537   8.309 -0.7495 -0.4112 -0.4657
24457SOL     OW78308   5.861   3.334   4.662 -0.5343 -0.4911 -0.2585
24457SOL    HW178309   5.792   3.393   4.633 -0.4695 -0.3343 -0.0908
24457SOL    HW278310   5.868   3.349   4.756  0.2230  0.0081 -0.3920
24458SOL     OW78311   3.449   9.910   1.049 -0.3525  0.0700  0.3757
24458SOL    HW178312   3.383   9.965   1.089 -1.2123 -1.1313  0.6653
24458SOL    HW278313   3.522   9.912   1.111 -0.2828  1.0322  0.2763
24459SOL     OW78314   0.357   0.005  11.414  0.2820 -0.3017 -0.2724
24459SOL    HW178315   0.387   0.085  11.457 -0.0472  0.1649 -0.9051
24459SOL    HW278316   0.421  -0.061  11.440 -0.5061 -0.3143  1.8690
24460SOL     OW78317   7.064   8.799  11.253  0.1904  0.3312  0.0627
24460SOL    HW178318   6.971   8.789  11.235  0.1047  1.4752 -0.2348
24460SOL    HW278319   7.104   8.718  11.220 -0.3673  0.9944 -2.4336
24461SOL     OW78320   7.342   0.658   4.291  0.3244  0.0726  0.1979
24461SOL    HW178321   7.316   0.633   4.202  1.9432  1.3996 -0.7272
24461SOL    HW278322   7.388   0.742   4.279 -0.8790  1.1562  2.5212
24462SOL     OW78323   1.796  10.278   6.291 -0.2386 -0.7760 -0.8654
24462SOL    HW178324   1.781  10.281   6.197 -0.9148 -1.5073 -0.7893
24462SOL    HW278325   1.868  10.339   6.306 -0.1810 -0.5953 -1.8429
24463SOL     OW78326   1.354   1.374  10.699  0.6866  0.0078  0.0384
24463SOL    HW178327   1.275   1.348  10.653 -0.4000 -0.7883  2.2039
24463SOL    HW278328   1.391   1.445  10.646 -0.2282 -1.0961 -2.1966
24464SOL     OW78329  10.436   5.548   4.979 -0.4525 -0.2271 -0.0368
24464SOL    HW178330  10.488   5.469   4.966 -0.4533 -0.1045 -0.8145
24464SOL    HW278331  10.413   5.576   4.891 -1.6415 -0.1496  0.2844
24465SOL     OW78332   1.910   5.759   6.065  0.3426  0.0233 -0.0102
24465SOL    HW178333   1.871   5.845   6.081  1.1530  0.2674  0.7276
24465SOL    HW278334   1.859   5.699   6.119 -0.6367 -0.0764 -1.0175
24466SOL     OW78335   8.288   6.297   7.447  0.3408 -0.0538  0.1821
24466SOL    HW178336   8.298   6.371   7.506  1.9009  0.0908 -0.2170
24466SOL    HW278337   8.357   6.236   7.472 -0.9860 -1.4620  0.5825
24467SOL     OW78338   1.969   2.593   7.114  0.1314 -0.2264 -0.1184
24467SOL    HW178339   1.949   2.586   7.021  1.6287 -1.8878 -0.3698
24467SOL    HW278340   1.885   2.616   7.155 -0.9821 -1.3138 -1.6727
24468SOL     OW78341  10.951   5.201   0.736  0.0925  0.1567 -0.0042
24468SOL    HW178342  11.039   5.174   0.762 -0.2110  0.9284  2.0151
24468SOL    HW278343  10.954   5.206   0.640  2.1934  0.0524  0.0179
24469SOL     OW78344   6.985   0.387   6.201 -0.0392  0.5456  0.4139
24469SOL    HW178345   6.986   0.475   6.164 -1.2284  0.0640 -0.8723
24469SOL    HW278346   7.017   0.331   6.130  0.6338 -0.0883  1.1906
24470SOL     OW78347   9.509  11.065   1.405  0.1695  0.1835  0.3686
24470SOL    HW178348   9.584  11.120   1.426  2.0781 -2.5044  1.1523
24470SOL    HW278349   9.534  11.019   1.325 -1.1968  0.1498 -0.0643
24471SOL     OW78350   3.203   1.363   8.094  0.5750  0.6372  0.2290
24471SOL    HW178351   3.178   1.282   8.138  0.8941 -0.0008 -0.7209
24471SOL    HW278352   3.122   1.397   8.057  0.7252 -0.2484 -0.9535
24472SOL     OW78353   1.119   9.062   1.505  0.3729 -0.2142  0.0818
24472SOL    HW178354   1.121   9.065   1.601 -3.8402  0.6633  0.3436
24472SOL    HW278355   1.133   9.152   1.478  2.7653 -0.6386 -0.3207
24473SOL     OW78356   0.129  10.165   6.523  0.4500  0.1983  0.1069
24473SOL    HW178357   0.169  10.136   6.605  0.4484  0.5953  0.2498
24473SOL    HW278358   0.036  10.178   6.545  0.1835 -0.9397 -0.2791
24474SOL     OW78359   2.800   0.950   4.251 -0.1494 -0.3459  0.2519
24474SOL    HW178360   2.843   0.995   4.178 -1.0776  0.0079 -0.0911
24474SOL    HW278361   2.741   1.015   4.287  0.1034 -0.6094  1.1591
24475SOL     OW78362  11.647  10.232   5.468 -0.0534  0.1449  0.5493
24475SOL    HW178363  11.679  10.181   5.543 -1.8206 -3.3516 -0.8300
24475SOL    HW278364  11.720  10.232   5.406  0.0443 -0.6270  0.6493
24476SOL     OW78365   8.388   5.259   5.624 -0.3043  0.1087 -0.0731
24476SOL    HW178366   8.392   5.275   5.718  1.5127 -1.9890  0.2984
24476SOL    HW278367   8.472   5.219   5.603 -1.2191 -0.8045 -2.3189
24477SOL     OW78368   8.742   6.748   8.127  0.0154  0.0402  0.2835
24477SOL    HW178369   8.660   6.699   8.120  0.9244 -1.2939 -1.9274
24477SOL    HW278370   8.804   6.686   8.167  0.3214  0.5621  0.6305
24478SOL     OW78371   7.570   9.367   0.574  0.2137  0.6056 -0.0549
24478SOL    HW178372   7.656   9.332   0.600  0.3968  0.7834 -0.4284
24478SOL    HW278373   7.537   9.410   0.653  0.7409  1.0771 -0.0905
24479SOL     OW78374   3.162  11.550   7.445  0.5096 -0.0280  0.4351
24479SOL    HW178375   3.079  11.504   7.433  0.7528 -0.1876 -0.8327
24479SOL    HW278376   3.169  11.563   7.539 -0.7061 -0.4667  0.6075
24480SOL     OW78377   3.343   3.496   7.833  0.7762 -0.2916  0.2515
24480SOL    HW178378   3.392   3.428   7.788  1.9898 -0.3753  1.6351
24480SOL    HW278379   3.318   3.457   7.916 -1.2530 -0.0671 -0.1920
24481SOL     OW78380   1.513   4.521   2.940 -0.3636 -0.8281 -0.0651
24481SOL    HW178381   1.573   4.527   2.865 -1.2636 -0.8987 -0.8048
24481SOL    HW278382   1.501   4.611   2.968  0.9880 -0.8952  0.8383
24482SOL     OW78383   0.204   7.402   2.943  0.2677  0.4697 -0.2976
24482SOL    HW178384   0.204   7.477   2.883 -0.3588  0.0717 -0.8103
24482SOL    HW278385   0.115   7.369   2.940 -0.0159  0.9526  1.5340
24483SOL     OW78386   8.286  10.492   1.794  0.7249  0.2039  0.1585
24483SOL    HW178387   8.219  10.476   1.728  2.5037  1.5883 -2.1384
24483SOL    HW278388   8.237  10.521   1.871 -1.3374  2.9224 -1.9589
24484SOL     OW78389   1.423   4.033  10.484  0.0451 -0.1457 -1.0195
24484SOL    HW178390   1.422   4.085  10.565  2.0921 -0.8259 -0.5042
24484SOL    HW278391   1.387   3.948  10.510 -1.1048  0.2232 -1.3196
24485SOL     OW78392   8.797   3.533   0.101 -0.0530 -0.1736 -0.0758
24485SOL    HW178393   8.823   3.483   0.178 -2.1912  1.4207  1.8463
24485SOL    HW278394   8.702   3.523   0.097 -0.1366  0.8587 -1.7522
24486SOL     OW78395   7.779   1.325   1.207  0.1998  0.4414 -0.0508
24486SOL    HW178396   7.846   1.366   1.261  0.4752  0.2816 -0.2676
24486SOL    HW278397   7.698   1.337   1.256  0.2203  1.5208 -0.2588
24487SOL     OW78398   4.849   0.339   1.821  0.3737  0.1286 -0.0558
24487SOL    HW178399   4.903   0.265   1.792  1.7065  1.2319 -0.4949
24487SOL    HW278400   4.761   0.318   1.790  0.5408 -1.6905  0.6077
24488SOL     OW78401   2.828   9.443   2.800 -0.2196 -0.0410 -0.8246
24488SOL    HW178402   2.779   9.367   2.768 -0.3879 -0.7819  1.0245
24488SOL    HW278403   2.878   9.409   2.875  0.3540  1.4898 -0.4748
24489SOL     OW78404  10.900   9.654   2.928 -0.8216  0.5562 -0.5809
24489SOL    HW178405  10.880   9.607   2.847 -0.2979  1.0818 -1.0240
24489SOL    HW278406  10.829   9.631   2.987 -1.2450  0.2151 -1.2122
24490SOL     OW78407   1.928   3.971   7.523 -0.1006  0.1767  0.4322
24490SOL    HW178408   2.001   3.929   7.478  0.3499  2.4003 -1.0410
24490SOL    HW278409   1.957   3.981   7.614  1.6987  1.6054 -0.2721
24491SOL     OW78410   5.245   4.405   2.521  1.0902  0.2204 -0.2626
24491SOL    HW178411   5.234   4.310   2.523  1.1860  0.1914 -0.9951
24491SOL    HW278412   5.326   4.420   2.570  0.9404 -0.0525  0.0738
24492SOL     OW78413   0.705   5.531  11.682  0.0497 -0.1298 -0.3424
24492SOL    HW178414   0.792   5.566  11.666  0.6012 -1.2078  0.1931
24492SOL    HW278415   0.659   5.542  11.599 -0.0684  2.4962 -0.0139
24493SOL     OW78416   8.678   7.521   0.620 -0.2929  0.3448 -0.0276
24493SOL    HW178417   8.687   7.609   0.583  4.2339  0.4316  0.6515
24493SOL    HW278418   8.657   7.535   0.712 -0.5703  0.6525 -0.1366
24494SOL     OW78419   3.065   9.568  10.791 -0.0989  0.0875  0.6358
24494SOL    HW178420   3.083   9.496  10.730 -1.6331  0.0747  0.1698
24494SOL    HW278421   3.074   9.528  10.877  0.5643 -0.2685  0.4161
24495SOL     OW78422   9.525   4.957   5.257  0.3826 -0.0807 -0.0730
24495SOL    HW178423   9.600   5.001   5.298 -0.4986 -0.1976  1.7690
24495SOL    HW278424   9.456   4.964   5.322 -1.2181 -0.0126 -1.7134
24496SOL     OW78425   6.514   3.167   1.785 -0.5327  0.4315 -0.4813
24496SOL    HW178426   6.437   3.222   1.799 -0.6011  0.6397 -1.5842
24496SOL    HW278427   6.482   3.094   1.732 -0.2293 -0.1763  0.1405
24497SOL     OW78428   0.787  11.354   6.690 -0.6527 -0.7632 -0.4227
24497SOL    HW178429   0.716  11.382   6.748 -1.3194 -1.7342 -0.7406
24497SOL    HW278430   0.821  11.274   6.731  0.5641 -0.0641 -0.0382
24498SOL     OW78431  11.334   7.389   1.468  0.4988 -0.0891  0.4393
24498SOL    HW178432  11.336   7.317   1.405 -1.5433  1.3875 -1.4372
24498SOL    HW278433  11.315   7.347   1.552  1.8083 -1.9420 -0.1241
24499SOL     OW78434   7.709   5.656   8.408  0.0968 -0.1623 -0.5884
24499SOL    HW178435   7.719   5.560   8.408 -0.4752 -0.2379  0.5359
24499SOL    HW278436   7.782   5.688   8.460  0.3035  0.0180 -0.9884
24500SOL     OW78437  10.156   5.014   6.678 -0.4363  0.3363 -0.4651
24500SOL    HW178438  10.219   5.077   6.643  1.4987 -0.9431  0.5629
24500SOL    HW278439  10.152   5.033   6.771  1.9654 -2.3674  0.3416
24501SOL     OW78440   6.652   3.007   4.906 -0.2022  0.1037  0.5161
24501SOL    HW178441   6.580   2.961   4.949 -1.1805  1.1648  0.0557
24501SOL    HW278442   6.624   3.017   4.815  1.1784 -0.7603 -0.0389
24502SOL     OW78443   9.313   0.819  10.182  0.2891 -0.1210  0.1132
24502SOL    HW178444   9.236   0.762  10.190 -0.8153  1.4106  1.0685
24502SOL    HW278445   9.373   0.771  10.125 -0.1685 -2.6536  1.5784
24503SOL     OW78446  10.878   7.972  11.035  0.0122 -0.5112  0.4410
24503SOL    HW178447  10.792   7.947  11.001  0.1352  0.8464 -0.9449
24503SOL    HW278448  10.860   8.009  11.122 -0.8949  0.4254 -0.1337
24504SOL     OW78449   4.813   5.642   6.614 -0.1312 -0.0854  0.5829
24504SOL    HW178450   4.834   5.552   6.590 -1.8610  0.0116 -1.6728
24504SOL    HW278451   4.719   5.642   6.628 -0.3499  1.5431 -0.5649
24505SOL     OW78452   0.367   7.245   8.901  0.0172 -0.2377 -0.0207
24505SOL    HW178453   0.439   7.197   8.859 -0.6296 -0.5614 -0.7805
24505SOL    HW278454   0.373   7.334   8.865  0.7709  0.0837  0.8438
24506SOL     OW78455   0.801   1.341   9.004 -0.1398  0.0689  0.4141
24506SOL    HW178456   0.712   1.322   9.033  0.3863 -0.0161  2.0846
24506SOL    HW278457   0.791   1.417   8.946 -1.4904 -1.1491 -1.0621
24507SOL     OW78458   6.536   6.132   6.198  0.2109  0.6490  0.1070
24507SOL    HW178459   6.498   6.158   6.115  0.7340  0.1666 -0.2865
24507SOL    HW278460   6.461   6.110   6.253 -0.1045  0.2703 -0.4675
24508SOL     OW78461  11.524   6.280   9.620 -0.0482  0.0235 -0.1337
24508SOL    HW178462  11.563   6.206   9.574  1.1477  0.4109  0.2288
24508SOL    HW278463  11.598   6.338   9.640 -0.9061  1.1390 -0.0859
24509SOL     OW78464   5.428   8.065   5.449  0.3234 -0.2998 -0.0915
24509SOL    HW178465   5.469   8.152   5.448  0.0507 -0.1741 -0.6473
24509SOL    HW278466   5.502   8.004   5.444  0.6095 -0.1479  1.7200
24510SOL     OW78467  10.586   7.738   6.902 -0.1271 -0.0176 -0.0608
24510SOL    HW178468  10.561   7.719   6.992  0.9422  0.8082  0.4412
24510SOL    HW278469  10.526   7.686   6.848 -1.7124  0.5335  1.0845
24511SOL     OW78470   7.266   9.024  11.166 -0.3389  0.3661  0.1516
24511SOL    HW178471   7.334   9.035  11.233 -0.0217  0.3318 -0.1570
24511SOL    HW278472   7.210   8.954  11.199  0.3557 -0.2936 -0.0411
24512SOL     OW78473   2.257   0.030  10.993  0.0466 -0.0091  0.4781
24512SOL    HW178474   2.206  -0.021  10.930 -0.0194 -0.6339  1.0335
24512SOL    HW278475   2.306   0.093  10.939  1.1379 -1.4982 -0.3270
24513SOL     OW78476   8.299   8.069   8.449 -0.3847 -0.7094  0.4263
24513SOL    HW178477   8.387   8.108   8.449 -1.2678  1.4990 -1.0551
24513SOL    HW278478   8.264   8.087   8.536 -0.2211  0.5883  0.2461
24514SOL     OW78479   3.065   1.242   4.505 -0.8745 -0.2935 -0.2050
24514SOL    HW178480   3.045   1.148   4.503 -0.2657 -0.4264 -0.0416
24514SOL    HW278481   2.983   1.284   4.479 -1.1943 -0.8649 -0.1344
24515SOL     OW78482   5.197   3.261   5.377  0.2930  0.0553 -0.0329
24515SOL    HW178483   5.137   3.238   5.307 -0.2421  2.2861 -0.3819
24515SOL    HW278484   5.177   3.199   5.447 -2.5349  0.7403 -0.0938
24516SOL     OW78485   8.001   5.083   7.442 -0.4599  0.3640 -0.2100
24516SOL    HW178486   8.029   5.132   7.365 -1.1944  1.3359  0.1272
24516SOL    HW278487   7.980   5.149   7.508 -0.6577 -0.4213  0.5467
24517SOL     OW78488   0.148   9.014   2.148  0.0129  0.6037 -0.2915
24517SOL    HW178489   0.109   8.931   2.122  0.0554  0.4812  0.0397
24517SOL    HW278490   0.115   9.077   2.083 -0.4783  0.4400 -0.2003
24518SOL     OW78491  10.536   9.854   9.825  0.2440 -0.1646 -0.2016
24518SOL    HW178492  10.579   9.937   9.808  0.0099 -0.1471 -0.7682
24518SOL    HW278493  10.483   9.839   9.746  0.9914 -1.2865 -0.5200
24519SOL     OW78494   3.108   1.917   8.196  0.3560  0.2346 -0.0605
24519SOL    HW178495   3.020   1.953   8.191 -0.8122 -2.4053 -0.0802
24519SOL    HW278496   3.134   1.903   8.105 -0.6244 -2.0407 -0.0465
24520SOL     OW78497   4.758   1.814   8.360 -0.0228  0.1834 -0.7074
24520SOL    HW178498   4.710   1.842   8.438  1.1599  0.3611 -0.0184
24520SOL    HW278499   4.717   1.731   8.335 -0.7654  0.3940 -0.2285
24521SOL     OW78500   9.036   8.107   8.600  0.0336  0.2397 -0.3514
24521SOL    HW178501   8.968   8.149   8.653  0.8090  0.3446  0.5874
24521SOL    HW278502   8.988   8.056   8.535 -0.9398  1.3969 -0.5846
24522SOL     OW78503   7.254   3.963   8.189 -0.1132  0.3207  0.2452
24522SOL    HW178504   7.256   3.998   8.100  0.7589  0.0074  0.1294
24522SOL    HW278505   7.305   4.026   8.241 -0.5094  0.4361  0.5023
24523SOL     OW78506  10.156   5.863  10.319  0.2547  0.2933  0.0004
24523SOL    HW178507  10.106   5.927  10.268  1.2714  0.2593 -1.0573
24523SOL    HW278508  10.206   5.915  10.381 -0.6898  0.3563  0.7392
24524SOL     OW78509   1.386  10.508   2.600 -0.6670 -0.7038  0.7072
24524SOL    HW178510   1.375  10.547   2.513 -0.9495  0.3638  1.2096
24524SOL    HW278511   1.323  10.554   2.655  2.3659  1.7615  2.4620
24525SOL     OW78512   9.304  11.307   1.929 -0.8355  0.3768  0.5204
24525SOL    HW178513   9.395  11.277   1.937 -1.0303 -0.4355 -0.1846
24525SOL    HW278514   9.254  11.248   1.985 -0.9618  0.7027  0.7566
24526SOL     OW78515   1.647   3.598   9.314  0.0692 -0.0691 -0.2093
24526SOL    HW178516   1.554   3.617   9.320  0.0230 -0.1440 -0.6837
24526SOL    HW278517   1.687   3.656   9.379 -0.3764 -0.6009  0.5674
24527SOL     OW78518   4.934   9.565   8.158  0.1886 -0.8533  0.0882
24527SOL    HW178519   4.945   9.558   8.063 -1.3938 -0.7339 -0.1361
24527SOL    HW278520   4.857   9.512   8.176 -1.7481  1.9581  0.7602
24528SOL     OW78521   7.264   4.431   6.101 -0.2609 -0.1352 -0.0054
24528SOL    HW178522   7.311   4.348   6.093  0.8281  0.4675 -0.1059
24528SOL    HW278523   7.281   4.477   6.018 -0.5090  0.3535  0.2079
24529SOL     OW78524   1.555   9.409   8.312 -0.0942 -0.2282 -0.0631
24529SOL    HW178525   1.607   9.443   8.385  0.6936 -1.2890 -0.0972
24529SOL    HW278526   1.469   9.449   8.322 -0.7763 -2.1283  2.8795
24530SOL     OW78527   6.796   7.236  10.364  0.0737  0.9199 -0.4378
24530SOL    HW178528   6.803   7.319  10.317  1.8227  1.5062  0.7511
24530SOL    HW278529   6.743   7.256  10.441  1.8277  1.4108  0.7054
24531SOL     OW78530   5.755   6.822   0.630 -0.6646 -0.2203  0.7447
24531SOL    HW178531   5.754   6.828   0.535  0.9031  0.4516  0.7393
24531SOL    HW278532   5.738   6.911   0.660 -1.9496 -0.5688  1.1342
24532SOL     OW78533   3.445   3.300   4.402  0.4142  0.6464 -0.1144
24532SOL    HW178534   3.378   3.316   4.469 -0.3279  2.0503 -1.1255
24532SOL    HW278535   3.527   3.298   4.450 -0.2410  0.1045  1.0155
24533SOL     OW78536   5.624   2.676   5.208 -0.5368  0.5876 -0.2404
24533SOL    HW178537   5.657   2.673   5.298 -0.6770  2.0011 -0.1237
24533SOL    HW278538   5.619   2.584   5.181 -1.7491  0.0444  1.6581
24534SOL     OW78539   1.782   9.624   8.089  0.5741  0.4696  0.0038
24534SOL    HW178540   1.778   9.547   8.031  0.5334 -1.6836  2.6359
24534SOL    HW278541   1.844   9.683   8.047 -0.1590 -0.5125 -2.6607
24535SOL     OW78542   6.577   4.125   6.261  0.0331 -0.1213  0.1006
24535SOL    HW178543   6.608   4.148   6.174 -3.1369  1.7536 -0.6737
24535SOL    HW278544   6.565   4.030   6.257  1.5758 -0.3174 -0.8513
24536SOL     OW78545   7.560   0.949   8.900 -0.1095  0.1649 -0.2207
24536SOL    HW178546   7.535   1.038   8.874  0.6950 -0.1187 -2.1453
24536SOL    HW278547   7.576   0.904   8.817  2.5175 -0.8827  0.7453
24537SOL     OW78548   6.458   2.615   0.654  0.1187 -0.2365  0.0300
24537SOL    HW178549   6.540   2.571   0.634 -0.1649 -0.8328  0.1647
24537SOL    HW278550   6.475   2.707   0.633  1.4640  0.0004  1.8933
24538SOL     OW78551   4.635   4.871   1.370  0.1389  0.3715 -0.1584
24538SOL    HW178552   4.580   4.929   1.422  0.7286 -0.5938  1.6309
24538SOL    HW278553   4.574   4.812   1.327 -0.4325  1.9130 -1.5599
24539SOL     OW78554   8.213   7.627   4.511  0.0221 -0.2574  0.1180
24539SOL    HW178555   8.193   7.540   4.477 -3.7460  0.2990  0.5089
24539SOL    HW278556   8.189   7.687   4.440 -0.4009  0.5641  0.9328
24540SOL     OW78557   3.549   1.365  10.315 -0.3596  0.0329 -0.4983
24540SOL    HW178558   3.621   1.381  10.377 -0.2149  0.1293 -0.6915
24540SOL    HW278559   3.471   1.360  10.371 -0.2211  0.0551 -0.2997
24541SOL     OW78560   5.081   1.480   9.851 -0.0823 -0.0926  0.9097
24541SOL    HW178561   5.038   1.430   9.921 -0.5985 -1.1314 -0.1207
24541SOL    HW278562   5.148   1.420   9.817 -0.4520  0.0428 -0.0824
24542SOL     OW78563   6.532   7.414   2.117  0.5488  0.0396 -0.1217
24542SOL    HW178564   6.545   7.331   2.070  0.3428 -0.0087 -0.0961
24542SOL    HW278565   6.568   7.397   2.205 -0.0577 -0.2311  0.0829
24543SOL     OW78566   5.956   2.419   8.027 -0.4229 -0.8083 -0.2331
24543SOL    HW178567   5.892   2.454   7.966  0.4585 -0.7290 -1.1420
24543SOL    HW278568   5.925   2.448   8.113  0.5296  2.8254 -0.9156
24544SOL     OW78569   5.995   2.941   3.125  0.4559  0.3143  0.0521
24544SOL    HW178570   6.050   2.992   3.066  0.6543 -1.9701 -1.9216
24544SOL    HW278571   6.017   2.972   3.213  2.3791  1.7763 -0.8809
24545SOL     OW78572   0.039  11.489   7.273 -0.7157  0.1309  0.2632
24545SOL    HW178573   0.001  11.576   7.261 -1.3878  0.0555  1.7294
24545SOL    HW278574   0.126  11.506   7.309 -0.4082  0.2194 -0.5075
24546SOL     OW78575  10.717  11.595   2.116  0.4992 -0.4001  0.1892
24546SOL    HW178576  10.723  11.558   2.204 -0.6157 -0.8552  0.0850
24546SOL    HW278577  10.663  11.533   2.068 -0.1902  0.6319 -0.3891
24547SOL     OW78578   5.941   3.162   7.764 -0.0598 -0.5578  0.2714
24547SOL    HW178579   5.914   3.110   7.689 -2.6916 -0.9092  1.3518
24547SOL    HW278580   6.036   3.155   7.765  0.0301 -0.9683 -2.6710
24548SOL     OW78581  10.655  10.247   8.664  0.0236 -0.6176  0.4996
24548SOL    HW178582  10.748  10.267   8.669 -0.2888  0.8904  0.5563
24548SOL    HW278583  10.612  10.318   8.711 -1.2346 -0.7011 -0.4698
24549SOL     OW78584   7.970   4.757  10.871 -0.3730 -0.2201  0.1025
24549SOL    HW178585   7.885   4.731  10.906  0.2471 -1.3525  0.8601
24549SOL    HW278586   8.014   4.801  10.943 -0.2360  0.1837 -0.2218
24550SOL     OW78587   6.726   6.086   3.033  0.4072  0.9045  0.1817
24550SOL    HW178588   6.634   6.096   3.007  0.6182 -0.1472 -1.0715
24550SOL    HW278589   6.728   6.004   3.082  0.9026  0.1102 -1.1117
24551SOL     OW78590   5.723   4.904   2.042  0.6360  0.3648  0.5891
24551SOL    HW178591   5.691   4.829   2.092 -1.4919  1.9212  1.7467
24551SOL    HW278592   5.665   4.908   1.966 -0.0467  1.4542  1.1350
24552SOL     OW78593   7.359   6.348   1.512  0.3803  0.2695 -0.0014
24552SOL    HW178594   7.440   6.306   1.541  0.4877  0.7184  0.3567
24552SOL    HW278595   7.339   6.412   1.580 -0.1793  0.2882 -0.1789
24553SOL     OW78596   9.862   5.855  11.547 -0.4765 -0.8497  0.1053
24553SOL    HW178597   9.871   5.936  11.497 -0.2197 -1.0306 -0.1471
24553SOL    HW278598   9.948   5.813  11.540 -0.1108 -0.4103  1.5241
24554SOL     OW78599   5.154   4.473   0.942  0.0007  0.3701 -0.2728
24554SOL    HW178600   5.086   4.476   1.008 -0.2161  0.4636 -0.4999
24554SOL    HW278601   5.120   4.414   0.874  1.0280 -1.3303  0.5937
24555SOL     OW78602   5.466   8.762  10.261 -0.1604  0.3263  0.0617
24555SOL    HW178603   5.403   8.831  10.283  0.3642  0.7041  0.4038
24555SOL    HW278604   5.474   8.766  10.166  0.8702  1.6501  0.1669
24556SOL     OW78605   0.588   7.716   0.929  0.5415  0.6885  0.4745
24556SOL    HW178606   0.520   7.774   0.964 -2.3529 -1.5581 -1.0095
24556SOL    HW278607   0.588   7.732   0.835 -0.1304 -1.4237  0.0636
24557SOL     OW78608   3.699   5.955   6.107  0.2911  0.1079 -0.1420
24557SOL    HW178609   3.690   5.920   6.018 -0.6970  1.6636 -0.6967
24557SOL    HW278610   3.612   5.944   6.146 -0.0536  1.8531 -0.3352
24558SOL     OW78611   4.833  10.923  11.170 -0.3413  0.2269  0.0165
24558SOL    HW178612   4.923  10.896  11.155  0.1290  1.4407  0.4499
24558SOL    HW278613   4.812  10.890  11.257  0.4276  1.6476  0.7869
24559SOL     OW78614   3.178   0.670   1.398  0.2555 -0.0146 -0.3696
24559SOL    HW178615   3.191   0.576   1.387  0.9592 -0.1478  1.2673
24559SOL    HW278616   3.087   0.685   1.374 -1.2116 -1.8827  3.3098
24560SOL     OW78617  10.183   0.462   1.398  0.0557 -0.1293 -0.4824
24560SOL    HW178618  10.219   0.528   1.338 -2.2037  2.5211  0.8660
24560SOL    HW278619  10.154   0.511   1.474  0.2084 -3.0297  1.6200
24561SOL     OW78620   3.103   9.423   2.908  0.0543  0.5444  0.4812
24561SOL    HW178621   3.143   9.364   2.972  1.0617  1.0491  0.3343
24561SOL    HW278622   3.175   9.450   2.852 -0.5800  1.1370 -0.0700
24562SOL     OW78623   0.540   9.471   8.160  0.0015 -0.5083 -0.4140
24562SOL    HW178624   0.576   9.559   8.154  0.5982 -0.7854 -0.9957
24562SOL    HW278625   0.610   9.419   8.198 -0.3468 -0.7393 -0.0757
24563SOL     OW78626   9.234   2.062   0.177  0.5722 -0.0139  0.1775
24563SOL    HW178627   9.144   2.033   0.163 -0.1180  2.2946 -0.4933
24563SOL    HW278628   9.287   1.987   0.151 -1.1246 -1.3622  0.4061
24564SOL     OW78629   5.049   7.955  10.231 -0.4215  0.0045 -0.0329
24564SOL    HW178630   5.026   7.972  10.323  1.0867  0.9232  0.2125
24564SOL    HW278631   5.008   8.027  10.183 -1.1697 -0.4488 -0.0846
24565SOL     OW78632   9.139  11.585   4.744  0.4688 -0.0529 -0.1324
24565SOL    HW178633   9.157  11.547   4.829  0.2738  0.3384  0.0882
24565SOL    HW278634   9.044  11.590   4.739  0.4885  1.4525  0.3376
24566SOL     OW78635   4.686   6.838  11.235  0.1613 -0.2277 -0.1803
24566SOL    HW178636   4.665   6.929  11.216 -0.2506 -0.5550 -1.3659
24566SOL    HW278637   4.601   6.795  11.245  0.3567 -0.4207  0.7270
24567SOL     OW78638   9.497   1.172   8.798  0.2922  0.2934  0.3629
24567SOL    HW178639   9.510   1.264   8.820  0.0022  0.0643  1.6216
24567SOL    HW278640   9.417   1.147   8.846 -0.0886 -0.4035 -0.6072
24568SOL     OW78641   4.501  10.902   2.267  0.3380  0.0443  0.5465
24568SOL    HW178642   4.416  10.921   2.306 -0.3087  1.8057 -1.5087
24568SOL    HW278643   4.506  10.960   2.191  3.5602  0.3454  0.8134
24569SOL     OW78644   3.312  10.166  11.567  0.1557 -0.4782 -0.6385
24569SOL    HW178645   3.392  10.216  11.551 -0.1551  0.0525 -0.5376
24569SOL    HW278646   3.342  10.075  11.569  1.1077 -0.1811  1.3714
24570SOL     OW78647   0.907  10.988  10.138  0.0096 -0.4400  0.0427
24570SOL    HW178648   0.872  10.901  10.122  0.3376 -0.5146 -0.2597
24570SOL    HW278649   0.995  10.973  10.173  0.4580 -0.2164 -0.9550
24571SOL     OW78650  11.293  10.502  10.636  0.2653  0.1537 -0.0746
24571SOL    HW178651  11.257  10.414  10.646 -0.6335  0.5843  0.7324
24571SOL    HW278652  11.388  10.490  10.637  0.1622 -0.9129 -1.2192
24572SOL     OW78653   5.586   9.095   6.082  0.3572  0.2413 -0.1926
24572SOL    HW178654   5.567   9.184   6.052 -1.5412 -0.3230 -0.7509
24572SOL    HW278655   5.533   9.084   6.161  2.0118  0.1954  0.9856
24573SOL     OW78656   2.631   6.767   3.497 -0.5906  0.0704 -0.6364
24573SOL    HW178657   2.573   6.773   3.421 -2.2805 -1.3949  0.4851
24573SOL    HW278658   2.621   6.852   3.541  0.8311  1.1664 -2.2498
24574SOL     OW78659   3.148   4.749   5.479  0.3517 -0.5822 -0.7139
24574SOL    HW178660   3.212   4.820   5.478 -0.0018 -0.1908  1.1331
24574SOL    HW278661   3.199   4.669   5.465  0.6786 -0.0102 -3.4872
24575SOL     OW78662   0.365  10.518   2.189  0.6147  0.0874 -0.6464
24575SOL    HW178663   0.407  10.512   2.275 -3.6833  1.6557  1.8923
24575SOL    HW278664   0.395  10.602   2.154 -0.1044  1.1120  1.0337
24576SOL     OW78665   5.530   6.042   0.803  0.4694 -0.1898 -0.6181
24576SOL    HW178666   5.527   5.989   0.883 -0.2468  0.5328 -0.1473
24576SOL    HW278667   5.512   5.980   0.733 -0.9212 -0.4904 -0.0287
24577SOL     OW78668   9.602   2.207   4.262  0.5439 -0.5131  0.5979
24577SOL    HW178669   9.646   2.244   4.186 -1.8967  0.7399 -0.3157
24577SOL    HW278670   9.544   2.140   4.226 -1.5553  0.9383  1.0917
24578SOL     OW78671   1.326   4.500   9.066  0.2914 -0.1207 -0.7498
24578SOL    HW178672   1.382   4.428   9.094  0.5980  0.3071 -0.2215
24578SOL    HW278673   1.251   4.458   9.023 -0.3657 -0.8528  1.0139
24579SOL     OW78674   4.606   9.696   5.155  0.1594  0.1978  0.0259
24579SOL    HW178675   4.671   9.755   5.194 -0.2718  0.4661  0.3597
24579SOL    HW278676   4.657   9.625   5.117  0.6435  0.3636  0.3527
24580SOL     OW78677   0.093   4.904   6.518 -0.0966 -0.2633  0.2107
24580SOL    HW178678   0.008   4.892   6.561  0.4327 -0.2141  1.3079
24580SOL    HW278679   0.093   4.841   6.446 -0.6151 -1.0840  0.9051
24581SOL     OW78680   3.060   9.438   1.152 -0.0656 -0.0241 -0.4263
24581SOL    HW178681   2.999   9.499   1.194  0.5141 -0.4922  1.1960
24581SOL    HW278682   3.012   9.355   1.150  1.2608 -1.0834  3.2588
24582SOL     OW78683   6.992   0.256   2.142 -0.1597  0.4595  0.3969
24582SOL    HW178684   7.042   0.254   2.224  1.7368  0.4928 -0.6911
24582SOL    HW278685   7.047   0.208   2.080  0.0329  3.1444 -1.6568
24583SOL     OW78686   6.222   9.225   8.416  0.4185  0.0209  0.3228
24583SOL    HW178687   6.268   9.254   8.495  0.8175 -1.1970  0.5614
24583SOL    HW278688   6.190   9.137   8.438 -2.8608  1.1136  0.5248
24584SOL     OW78689   9.703  11.600   6.877  0.5683  0.4446  0.0766
24584SOL    HW178690   9.775  11.650   6.915  1.1709  1.3159 -2.0268
24584SOL    HW278691   9.632  11.608   6.940  1.8289  0.8274  1.5083
24585SOL     OW78692   2.691   5.303   1.227 -0.0530 -0.3055 -0.6478
24585SOL    HW178693   2.636   5.252   1.286 -0.9357  0.6269 -0.6291
24585SOL    HW278694   2.730   5.239   1.168 -1.8597 -0.9201 -1.2183
24586SOL     OW78695   3.366  11.377   9.947  0.5678  0.4956  0.4399
24586SOL    HW178696   3.432  11.377   9.878  1.3532 -1.7646  1.1247
24586SOL    HW278697   3.372  11.464   9.987  2.9007  0.4560  0.2703
24587SOL     OW78698   5.480   3.130  10.435 -0.1579  0.4527 -0.5461
24587SOL    HW178699   5.400   3.183  10.439  0.3673  1.2173 -0.0569
24587SOL    HW278700   5.448   3.040  10.428 -1.0626  0.7690 -0.6539
24588SOL     OW78701   5.343   4.439   0.027  0.1225 -0.1993 -0.3471
24588SOL    HW178702   5.263   4.412   0.071  0.5753  0.0468  0.6440
24588SOL    HW278703   5.399   4.474   0.096  0.1003  2.0151 -1.3703
24589SOL     OW78704   3.554   3.602   3.804 -0.5001 -0.0537  0.0524
24589SOL    HW178705   3.612   3.526   3.797 -2.4451 -1.5769 -0.3637
24589SOL    HW278706   3.514   3.594   3.891  0.0706  1.1226  0.4430
24590SOL     OW78707   4.070   7.501   2.382 -0.2235  0.0340  0.1220
24590SOL    HW178708   4.085   7.510   2.288  0.6997  1.3252  0.3569
24590SOL    HW278709   4.156   7.515   2.421 -0.7871  0.5785  1.2174
24591SOL     OW78710   9.362   4.433   4.995  0.2630 -0.4932  0.3856
24591SOL    HW178711   9.303   4.407   5.066 -0.4208 -1.6841 -0.5769
24591SOL    HW278712   9.399   4.351   4.963 -0.2228 -0.1098 -1.2798
24592SOL     OW78713   7.458   0.110   8.570  0.3449  0.1990 -0.6245
24592SOL    HW178714   7.368   0.094   8.540  0.7955 -1.6441 -1.1054
24592SOL    HW278715   7.467   0.058   8.650  0.7326  1.0641 -0.0935
24593SOL     OW78716  10.110   5.159   5.662 -0.1964 -0.0882 -0.3373
24593SOL    HW178717  10.105   5.183   5.755  1.1603  1.7762 -0.6962
24593SOL    HW278718  10.204   5.148   5.645 -0.4207 -0.2827 -1.5234
24594SOL     OW78719   4.741   9.657   6.864 -0.4875  0.0694 -0.0681
24594SOL    HW178720   4.799   9.628   6.794 -1.3191 -1.1277 -0.3039
24594SOL    HW278721   4.735   9.752   6.854  2.0390  0.3601  0.4712
24595SOL     OW78722   5.694   3.303   6.115 -0.7414 -0.3349  0.0025
24595SOL    HW178723   5.769   3.352   6.081 -0.9144  0.6239  0.9717
24595SOL    HW278724   5.729   3.215   6.131 -0.3343 -0.4677 -1.3971
24596SOL     OW78725   8.155   9.469   9.912 -0.2861  0.0547  0.1973
24596SOL    HW178726   8.187   9.547   9.958 -0.2065 -0.2501  0.6629
24596SOL    HW278727   8.210   9.463   9.834 -0.5262  0.6667 -0.0242
24597SOL     OW78728   7.477  11.093   3.454 -0.3416 -0.4902  0.4315
24597SOL    HW178729   7.409  11.159   3.440  2.0143  2.1448  0.6816
24597SOL    HW278730   7.534  11.100   3.378  1.3292 -0.4251  1.6338
24598SOL     OW78731   6.036   5.117   0.274  0.0437  0.2964 -0.3936
24598SOL    HW178732   5.991   5.083   0.197  0.5018  1.9219 -1.4427
24598SOL    HW278733   5.981   5.190   0.303  1.2063  1.3880 -0.8202
24599SOL     OW78734   3.620   2.857   9.395  0.2945 -0.1622 -0.4147
24599SOL    HW178735   3.535   2.883   9.360 -0.0136  0.4241  0.7004
24599SOL    HW278736   3.652   2.935   9.440  0.2257 -1.1211  1.3963
24600SOL     OW78737   6.571   6.490   2.530  0.3550  0.3963 -0.0415
24600SOL    HW178738   6.628   6.531   2.595 -0.2375  2.2764 -0.6419
24600SOL    HW278739   6.501   6.451   2.581  0.0271  1.6396  0.5063
24601SOL     OW78740   7.566   5.808   2.115  0.7978  0.1085 -0.0675
24601SOL    HW178741   7.474   5.830   2.104  0.7428  0.7701  1.4779
24601SOL    HW278742   7.602   5.808   2.026 -0.5863  0.2540 -0.6432
24602SOL     OW78743   3.571   3.654  10.652  0.6419  0.0486 -0.1812
24602SOL    HW178744   3.564   3.561  10.671 -1.2809  0.0247 -0.8382
24602SOL    HW278745   3.630   3.659  10.576 -0.2595 -0.7629 -0.9621
24603SOL     OW78746   3.063   9.859   7.554  0.0083  0.2060 -0.0678
24603SOL    HW178747   2.975   9.822   7.567  0.7893 -1.6353  0.3008
24603SOL    HW278748   3.093   9.880   7.642  0.5417 -0.6872 -0.0256
24604SOL     OW78749   7.703   6.935   9.947 -0.4008 -0.0554 -0.2621
24604SOL    HW178750   7.733   6.907  10.033 -2.0129 -0.5477  0.1802
24604SOL    HW278751   7.633   6.873   9.925  1.1699 -1.1217 -2.7802
24605SOL     OW78752   2.390   3.572   1.312 -0.1960  0.2186 -0.0183
24605SOL    HW178753   2.463   3.630   1.332  0.1614 -0.3735  0.4302
24605SOL    HW278754   2.337   3.571   1.391  0.8767 -1.6179  0.7507
24606SOL     OW78755   6.065   3.865   4.876 -0.1222 -0.9565  0.2348
24606SOL    HW178756   6.093   3.778   4.902  1.3740 -0.7813 -0.7368
24606SOL    HW278757   6.116   3.924   4.932  0.9618 -0.6509 -1.0525
24607SOL     OW78758   1.592   6.310   3.696  0.2537 -0.1378  0.1037
24607SOL    HW178759   1.506   6.294   3.735  0.4111  0.4951  0.7433
24607SOL    HW278760   1.597   6.249   3.623 -0.5230 -0.5535  0.3816
24608SOL     OW78761   0.395   6.710   8.260 -0.2165 -0.6999 -0.2350
24608SOL    HW178762   0.342   6.783   8.228  0.8595  0.0402 -0.3873
24608SOL    HW278763   0.413   6.732   8.352 -0.4085 -1.1036 -0.0952
24609SOL     OW78764   4.276   0.121   8.779  0.4252 -0.1704  0.0150
24609SOL    HW178765   4.220   0.167   8.716  1.7523  1.1670 -0.2324
24609SOL    HW278766   4.221   0.048   8.810 -1.0638  0.4620 -0.9841
24610SOL     OW78767   4.075  10.262   6.631  0.3868 -0.1550 -0.0555
24610SOL    HW178768   3.988  10.279   6.667  0.1975 -0.2198 -0.4699
24610SOL    HW278769   4.077  10.168   6.614  0.6933 -0.2210  0.3460
24611SOL     OW78770   0.712   0.059   1.565  0.0176 -0.2819 -0.4784
24611SOL    HW178771   0.726   0.153   1.556  2.1528 -0.5183 -0.1665
24611SOL    HW278772   0.623   0.045   1.535  0.4212  1.5284 -2.8349
24612SOL     OW78773   1.735  10.451   9.391 -0.1813  0.6411  0.2821
24612SOL    HW178774   1.641  10.448   9.371 -0.3721 -1.6107  1.2173
24612SOL    HW278775   1.776  10.475   9.308 -1.5225  0.5637 -0.4334
24613SOL     OW78776   1.575  10.822  11.195  0.5974 -0.3275  0.5857
24613SOL    HW178777   1.555  10.729  11.198  0.6954 -0.3909 -0.4096
24613SOL    HW278778   1.511  10.859  11.134 -0.2611  0.4931  1.9290
24614SOL     OW78779   8.765   4.444   9.542  0.3197  0.4242  0.1758
24614SOL    HW178780   8.724   4.531   9.538  0.8221  0.6716  0.3290
24614SOL    HW278781   8.752   4.408   9.454 -1.8836 -0.2834  0.7303
24615SOL     OW78782   8.520   6.960  10.328 -0.2416 -0.2288  0.0526
24615SOL    HW178783   8.432   6.938  10.358 -0.5179 -2.9557 -2.3378
24615SOL    HW278784   8.575   6.890  10.364  0.7643  0.7587  0.4945
24616SOL     OW78785   3.138   9.657   8.568 -0.0288  0.1498 -0.4950
24616SOL    HW178786   3.181   9.571   8.568  0.6808  0.4817 -1.4071
24616SOL    HW278787   3.050   9.639   8.536 -0.9087 -0.6637  2.1552
24617SOL     OW78788  10.210   9.406   4.388 -0.3438 -0.0520 -0.1008
24617SOL    HW178789  10.175   9.324   4.421  0.9140  0.2393  2.1175
24617SOL    HW278790  10.302   9.406   4.414 -0.1093  1.7077 -0.7578
24618SOL     OW78791   1.457   7.674   9.313  0.7586 -0.4987 -0.2055
24618SOL    HW178792   1.462   7.579   9.322  0.0826 -0.6846 -1.5374
24618SOL    HW278793   1.441   7.706   9.402 -0.0805 -1.7075  0.1018
24619SOL     OW78794   4.543   0.490   8.033 -0.4132  0.5531 -0.3946
24619SOL    HW178795   4.579   0.406   8.061  0.7047  0.6727 -1.3773
24619SOL    HW278796   4.487   0.469   7.958 -1.2787  0.5362  0.2421
24620SOL     OW78797   5.456   1.056   8.060  0.1109 -0.4020  0.8105
24620SOL    HW178798   5.419   0.977   8.022  0.5300 -1.7224  2.9697
24620SOL    HW278799   5.417   1.062   8.147 -0.0716  1.9121  0.6289
24621SOL     OW78800   2.877   4.191  10.741 -0.1480  0.7577 -0.0438
24621SOL    HW178801   2.896   4.097  10.743  1.6576  1.0850 -0.4020
24621SOL    HW278802   2.798   4.200  10.796 -0.0343 -0.8782  0.4586
24622SOL     OW78803   7.149   5.365   1.081  0.0594 -0.1822  0.2396
24622SOL    HW178804   7.118   5.379   0.991 -2.1078 -1.5033  0.7105
24622SOL    HW278805   7.224   5.307   1.071 -1.0529 -1.5382 -0.6984
24623SOL     OW78806   6.995   8.030  10.209 -0.0819 -0.0312  0.1706
24623SOL    HW178807   7.073   8.061  10.164 -0.8529  2.8374  0.5553
24623SOL    HW278808   6.949   7.975  10.146  1.4909 -0.5357 -0.5632
24624SOL     OW78809   8.762   1.678   6.832  0.8357  0.5467  0.0454
24624SOL    HW178810   8.788   1.675   6.740  2.4797  1.6423  0.4324
24624SOL    HW278811   8.818   1.614   6.875 -1.5319 -1.7503  0.0237
24625SOL     OW78812   9.866   1.403  10.556 -0.2956  0.0719 -0.0929
24625SOL    HW178813   9.875   1.462  10.481 -1.6614  2.4431  1.4668
24625SOL    HW278814   9.876   1.460  10.632 -1.9980 -1.6668  1.5254
24626SOL     OW78815   7.103  10.810   4.798  0.5011 -0.3535  0.3189
24626SOL    HW178816   7.122  10.836   4.707  1.1379 -1.2955  0.1730
24626SOL    HW278817   7.059  10.887   4.835  0.7345  0.2623 -0.6204
24627SOL     OW78818   1.170   4.513   3.321  0.0979  0.4527  0.2015
24627SOL    HW178819   1.157   4.422   3.295 -0.2191  0.2445  1.0367
24627SOL    HW278820   1.134   4.564   3.248 -0.4408 -0.0984  0.0701
24628SOL     OW78821  11.508   7.099   4.195  0.1307  0.4423 -0.0919
24628SOL    HW178822  11.420   7.066   4.179  0.2998  1.0869 -2.8713
24628SOL    HW278823  11.510   7.186   4.155  2.6105 -0.4821 -2.3084
24629SOL     OW78824   3.588   5.319   0.317 -0.5649  0.0238  0.2207
24629SOL    HW178825   3.550   5.392   0.366 -0.8097  0.7948 -1.0622
24629SOL    HW278826   3.682   5.335   0.317 -0.7042  1.0030 -1.0196
24630SOL     OW78827   8.017  10.547  10.915 -0.0748 -0.1604 -1.0816
24630SOL    HW178828   8.031  10.627  10.966 -1.8048 -0.7901  0.5035
24630SOL    HW278829   7.927  10.553  10.885 -0.0318 -1.2299 -1.4689
24631SOL     OW78830   1.427   1.942   2.597 -0.4324 -0.4146 -0.4287
24631SOL    HW178831   1.417   2.036   2.609  0.8898 -0.2499 -0.4283
24631SOL    HW278832   1.437   1.929   2.503  2.2538 -0.1669 -0.2767
24632SOL     OW78833   2.212   9.312   9.244 -0.1242  0.1905  0.0809
24632SOL    HW178834   2.153   9.352   9.307  2.6799  2.0482  1.7505
24632SOL    HW278835   2.275   9.381   9.223  2.2050 -1.9812 -0.5580
24633SOL     OW78836  10.872   0.021   9.546  0.0720  0.1699 -0.7280
24633SOL    HW178837  10.922   0.043   9.468  0.9808 -0.5146 -0.3650
24633SOL    HW278838  10.904   0.081   9.614 -0.3319  0.4071 -0.7432
24634SOL     OW78839   2.427   1.587   2.622 -0.0607  0.0038  0.0838
24634SOL    HW178840   2.361   1.574   2.554  0.0475  2.8203 -0.6754
24634SOL    HW278841   2.493   1.642   2.581  1.4294 -0.5277  1.6612
24635SOL     OW78842   5.400   9.894  10.462 -0.0313  0.1049  0.2045
24635SOL    HW178843   5.460   9.969  10.452 -2.6402  2.5924  1.6481
24635SOL    HW278844   5.333   9.908  10.395 -0.4200 -1.1346  0.3196
24636SOL     OW78845  10.201   7.881   7.383  0.3462 -0.1316  0.2942
24636SOL    HW178846  10.295   7.901   7.379  0.0126  1.9911  1.4999
24636SOL    HW278847  10.161   7.940   7.320 -0.1863 -1.4238 -0.6348
24637SOL     OW78848   1.599   7.228   1.365  0.0580  0.1042 -0.2678
24637SOL    HW178849   1.593   7.133   1.364 -2.5303  0.2008 -0.2646
24637SOL    HW278850   1.638   7.250   1.280  0.2986 -0.9213 -0.4403
24638SOL     OW78851   2.524   3.981  11.084  0.3978  0.1142 -0.1997
24638SOL    HW178852   2.548   3.902  11.037  0.5347  1.2545 -2.1702
24638SOL    HW278853   2.454   4.020  11.030  1.4816  2.1510 -0.2192
24639SOL     OW78854   9.165   1.833   6.472 -0.4491  0.2873 -0.4291
24639SOL    HW178855   9.162   1.738   6.483 -0.0548  0.0310 -2.3326
24639SOL    HW278856   9.079   1.863   6.504 -0.6729 -0.7172 -0.0440
24640SOL     OW78857  10.035   5.609  10.446 -0.5554  0.2009 -0.4680
24640SOL    HW178858  10.102   5.574  10.506 -1.3699 -0.6814 -0.0534
24640SOL    HW278859  10.083   5.670  10.390  0.4043  0.3349  0.4759
24641SOL     OW78860   6.345   1.995   0.094  0.2218 -0.0246  0.7100
24641SOL    HW178861   6.439   2.013   0.093 -0.0448  1.5606  1.2936
24641SOL    HW278862   6.305   2.073   0.055 -0.8970 -0.3388  1.1811
24642SOL     OW78863   3.629   0.603   3.622 -0.0832 -0.4101 -0.5920
24642SOL    HW178864   3.578   0.672   3.579  0.4197  0.7026  0.5266
24642SOL    HW278865   3.568   0.530   3.633 -0.3606 -0.5678 -2.7183
24643SOL     OW78866   2.542   6.486   8.898  0.7470 -0.0059 -0.0107
24643SOL    HW178867   2.606   6.419   8.919  2.1558  1.2522 -0.0998
24643SOL    HW278868   2.585   6.541   8.832 -0.6426  0.5715 -0.4863
24644SOL     OW78869   7.447   6.869   7.623 -0.6034  0.2463  0.0435
24644SOL    HW178870   7.363   6.827   7.642  1.0264 -3.5449 -0.2268
24644SOL    HW278871   7.487   6.813   7.556  2.1100  1.9418  0.1063
24645SOL     OW78872   7.071   2.823   6.149  0.1368  0.1860 -0.2233
24645SOL    HW178873   7.119   2.905   6.143 -1.2818  0.9993 -1.1015
24645SOL    HW278874   7.009   2.837   6.220  0.8341 -0.6714  0.5760
24646SOL     OW78875   5.253   2.841   6.310 -0.0683  0.5116 -0.2808
24646SOL    HW178876   5.203   2.773   6.355 -1.1062  2.2250  1.3257
24646SOL    HW278877   5.212   2.848   6.224 -0.5072 -0.2836 -0.1455
24647SOL     OW78878   8.517   8.637   3.964  0.1847  0.1743 -0.1992
24647SOL    HW178879   8.433   8.598   3.940  0.3241  0.5949 -1.4377
24647SOL    HW278880   8.530   8.707   3.900  3.0016 -1.9431 -2.2030
24648SOL     OW78881   6.796   6.546   6.017  0.2581  0.2295  0.2215
24648SOL    HW178882   6.861   6.574   5.953  0.7068  0.2081  0.6591
24648SOL    HW278883   6.713   6.546   5.969  0.6312 -0.0759 -0.4327
24649SOL     OW78884   5.169   3.035   2.727  0.4313  0.0281 -0.5537
24649SOL    HW178885   5.102   2.967   2.736 -0.2632  0.7699  0.0863
24649SOL    HW278886   5.126   3.104   2.676  1.3261 -0.2474 -1.7244
24650SOL     OW78887   3.707   0.897   7.387  0.2225 -0.4196  0.0725
24650SOL    HW178888   3.629   0.913   7.440  0.7881  0.0841  0.7904
24650SOL    HW278889   3.778   0.939   7.437  1.1698 -1.9987  0.1332
24651SOL     OW78890   3.437   7.559   0.553  0.4060  0.8380 -0.4645
24651SOL    HW178891   3.389   7.551   0.635  0.0316 -3.0840 -0.8733
24651SOL    HW278892   3.374   7.598   0.492 -0.9027 -0.3815  0.0507
24652SOL     OW78893   8.935   7.180   8.898 -0.4590 -0.8756  0.7493
24652SOL    HW178894   8.843   7.202   8.913 -1.0233 -0.3897 -2.6698
24652SOL    HW278895   8.939   7.085   8.910 -0.9628 -0.7138  2.5578
24653SOL     OW78896   9.750   7.768   4.344 -0.2016  0.8765  0.1877
24653SOL    HW178897   9.820   7.717   4.302  1.6409  2.1685  1.5550
24653SOL    HW278898   9.744   7.732   4.432 -1.6738  0.4432 -0.0601
24654SOL     OW78899   3.050  11.433   0.526 -0.0179  0.3260 -0.3773
24654SOL    HW178900   2.987  11.430   0.597  0.8629 -1.8956  0.4021
24654SOL    HW278901   3.120  11.491   0.558 -0.4973  0.8334 -0.2371
24655SOL     OW78902   3.960   2.224   0.820 -0.0057  0.2297 -0.2061
24655SOL    HW178903   4.048   2.206   0.787  0.2764 -0.3169  0.7949
24655SOL    HW278904   3.908   2.243   0.742  0.8214 -0.2160 -0.8794
24656SOL     OW78905   1.677   0.288   2.817  0.0936 -0.1432 -0.1797
24656SOL    HW178906   1.600   0.338   2.788  0.9184  1.0505 -0.4035
24656SOL    HW278907   1.647   0.198   2.822 -1.4019  0.3347  0.0021
24657SOL     OW78908   0.914   4.214   8.036 -0.9170  0.3950  0.0963
24657SOL    HW178909   0.932   4.290   8.092  0.2239  0.8452 -0.8295
24657SOL    HW278910   0.970   4.145   8.071 -0.8265  0.4287  0.0182
24658SOL     OW78911  10.125   4.635   6.960  0.3671 -0.2079 -0.4155
24658SOL    HW178912  10.179   4.697   7.008  0.0679  0.5863 -1.0625
24658SOL    HW278913  10.141   4.550   7.001  0.5594  0.3497  0.6835
24659SOL     OW78914   6.975   6.683   3.300 -0.5366 -0.0097 -0.5901
24659SOL    HW178915   7.012   6.740   3.367 -1.4605  1.0309 -0.9140
24659SOL    HW278916   6.952   6.602   3.346  1.0977 -0.2679 -0.1815
24660SOL     OW78917   9.961   3.445   7.351  0.0262 -0.4312 -0.1870
24660SOL    HW178918   9.892   3.388   7.387  0.4740 -1.1152 -0.3828
24660SOL    HW278919  10.012   3.473   7.427 -0.5289  0.1632 -0.0298
24661SOL     OW78920  10.086   4.758   8.828 -0.3449 -0.2996 -0.3058
24661SOL    HW178921  10.090   4.851   8.805 -1.9659 -0.1910 -0.2550
24661SOL    HW278922  10.140   4.751   8.907  0.1905  0.4995 -0.5893
24662SOL     OW78923   6.511  11.092   6.336  0.4057 -0.0151  0.2537
24662SOL    HW178924   6.602  11.093   6.364  0.5093 -1.9574  0.1424
24662SOL    HW278925   6.500  11.006   6.294 -0.6920  1.3189 -2.4266
24663SOL     OW78926   4.997  10.852   9.527 -0.6445 -0.7610 -0.2426
24663SOL    HW178927   4.913  10.892   9.506 -1.0238 -2.3638 -2.1349
24663SOL    HW278928   4.987  10.819   9.616 -0.4141  2.8795  1.2707
24664SOL     OW78929  11.232  11.246   7.743  0.0132  0.8771 -0.2606
24664SOL    HW178930  11.286  11.223   7.667 -2.4540 -1.5322 -1.4486
24664SOL    HW278931  11.176  11.317   7.712  0.6643  1.5830  0.1419
24665SOL     OW78932   0.054   0.396   5.839 -0.0886 -0.8124 -0.3128
24665SOL    HW178933  -0.021   0.452   5.819  0.0514 -1.3170 -2.4597
24665SOL    HW278934   0.035   0.314   5.795  2.4049 -0.4262 -2.3354
24666SOL     OW78935   1.938   2.300  11.217  0.2131  0.6070  0.0875
24666SOL    HW178936   1.987   2.379  11.240  0.3105  0.1846  1.4214
24666SOL    HW278937   1.864   2.332  11.165  0.5970  1.5048  0.0769
24667SOL     OW78938   6.848   5.514   2.473  0.3025  0.3854  0.6288
24667SOL    HW178939   6.863   5.428   2.511  0.7919  0.4462  0.5828
24667SOL    HW278940   6.835   5.497   2.380  2.1754  0.5011  0.3004
24668SOL     OW78941   6.971   6.758  10.400  0.0698  0.1481 -0.2842
24668SOL    HW178942   6.974   6.663  10.410  1.2768  0.0728 -1.2006
24668SOL    HW278943   6.906   6.774  10.331 -2.7891  0.2548  2.2090
24669SOL     OW78944   3.130  11.300   3.297 -0.3179  0.0252 -0.0609
24669SOL    HW178945   3.110  11.281   3.205 -0.1074 -0.9137  0.0862
24669SOL    HW278946   3.105  11.221   3.344  2.3573 -0.6665  0.3160
24670SOL     OW78947   1.635   1.263   7.038 -0.0654  0.2122  0.3923
24670SOL    HW178948   1.583   1.188   7.009 -0.9391  1.1639 -0.5685
24670SOL    HW278949   1.588   1.297   7.115 -0.0424  0.1960  0.4137
24671SOL     OW78950   4.135   8.758  11.347 -0.1867 -0.2538  0.5802
24671SOL    HW178951   4.219   8.716  11.362  1.0137  1.4747 -0.9728
24671SOL    HW278952   4.102   8.719  11.266  0.1677  0.6077  0.0103
24672SOL     OW78953  10.743   9.376  10.023  0.2252  0.1851 -0.1280
24672SOL    HW178954  10.725   9.358  10.115 -1.3004 -1.3685 -0.6825
24672SOL    HW278955  10.834   9.408  10.022  1.1215 -2.0557  1.6642
24673SOL     OW78956   7.566   1.983   8.880  0.0276 -0.0424 -0.2269
24673SOL    HW178957   7.531   1.986   8.791 -0.1377 -0.7237 -0.1887
24673SOL    HW278958   7.491   1.957   8.934  0.3861 -0.6654 -0.0254
24674SOL     OW78959   1.490  11.287   8.294 -0.2225  0.2668 -0.0261
24674SOL    HW178960   1.428  11.340   8.245 -2.0521 -0.2979  1.5384
24674SOL    HW278961   1.484  11.199   8.256  0.7187  0.5313 -0.8073
24675SOL     OW78962  11.574  11.510   9.219  0.3725 -0.3034 -0.0241
24675SOL    HW178963  11.541  11.495   9.308  1.6067 -1.9746  0.2048
24675SOL    HW278964  11.497  11.537   9.169 -0.5485 -0.3593  1.3019
24676SOL     OW78965   9.408   8.179  10.209  0.4471 -1.2670  1.0661
24676SOL    HW178966   9.471   8.232  10.258 -0.2496 -0.8300  1.5017
24676SOL    HW278967   9.429   8.196  10.117  1.6796 -1.9973  1.1872
24677SOL     OW78968   0.412   8.902   9.497  0.2673 -0.1470 -0.6945
24677SOL    HW178969   0.400   8.996   9.505 -0.0476 -0.2396  0.0429
24677SOL    HW278970   0.324   8.868   9.482  0.5445 -0.2114 -2.4226
24678SOL     OW78971   7.895   7.823   0.044 -0.6484 -0.3018  0.4969
24678SOL    HW178972   7.951   7.757   0.004 -1.7810  0.1364 -1.9875
24678SOL    HW278973   7.930   7.907   0.014 -1.5109  0.0525  0.4569
24679SOL     OW78974   6.700   7.093  11.491  0.0554  0.3726  0.2090
24679SOL    HW178975   6.623   7.128  11.447  2.1954  1.4193 -3.0198
24679SOL    HW278976   6.731   7.165  11.546 -1.2766 -0.1261  1.6969
24680SOL     OW78977   3.883   4.437   1.748 -0.2749 -0.1616 -0.0605
24680SOL    HW178978   3.969   4.427   1.706 -0.0204  0.2319  0.3513
24680SOL    HW278979   3.900   4.494   1.823 -1.1444  0.9923 -0.7066
24681SOL     OW78980   9.280   8.672   4.073 -0.3273  0.4488 -0.2237
24681SOL    HW178981   9.278   8.625   4.156 -2.6783  0.2189 -0.3376
24681SOL    HW278982   9.333   8.749   4.090  3.2848 -1.8625  0.1081
24682SOL     OW78983   8.962   6.453   3.804  0.0329 -0.0434 -0.2177
24682SOL    HW178984   8.929   6.432   3.717 -0.2542  1.9970 -0.6538
24682SOL    HW278985   8.986   6.368   3.842 -2.7451 -1.3095 -1.0544
24683SOL     OW78986   4.847   8.163   5.470 -0.4065 -0.0305  0.2540
24683SOL    HW178987   4.773   8.221   5.454 -0.8189 -0.1726  1.5145
24683SOL    HW278988   4.913   8.219   5.510 -1.2120 -0.5841  2.4991
24684SOL     OW78989   5.754   8.792   4.986  0.4175 -0.3683  0.1159
24684SOL    HW178990   5.836   8.745   4.968 -0.1350 -1.5174  0.4937
24684SOL    HW278991   5.781   8.872   5.032  1.3947 -0.2076 -0.7149
24685SOL     OW78992  11.102  11.520   6.270 -0.0320 -0.0789  0.0277
24685SOL    HW178993  11.006  11.525   6.262 -0.0223  1.0821  0.3847
24685SOL    HW278994  11.117  11.450   6.333 -0.6357 -0.3711 -0.1367
24686SOL     OW78995  11.189  11.260   2.345  0.5358  0.1678 -0.2738
24686SOL    HW178996  11.249  11.194   2.380  0.5855  0.0949 -0.4982
24686SOL    HW278997  11.127  11.211   2.291 -1.0884 -0.0681  1.6982
24687SOL     OW78998   7.421   8.934   6.324 -0.1970  0.2472 -0.3590
24687SOL    HW178999   7.404   9.010   6.269  1.1489  1.2425  0.5126
24687SOL    HW279000   7.381   8.956   6.408  0.2985  0.0614 -0.0692
24688SOL     OW79001   0.780   3.828   0.213 -0.1531 -0.0459 -0.4544
24688SOL    HW179002   0.842   3.756   0.217  0.5410  0.5452 -0.3042
24688SOL    HW279003   0.809   3.888   0.282 -1.0807  0.0940 -0.1751
24689SOL     OW79004   2.779   2.141  10.822 -0.1533  0.1116 -0.0159
24689SOL    HW179005   2.703   2.151  10.880 -1.3774 -1.2361 -1.2846
24689SOL    HW279006   2.746   2.087  10.749  2.6947 -2.7443  0.6067
24690SOL     OW79007   3.528   7.017   3.112  0.1908 -0.5360 -0.0221
24690SOL    HW179008   3.449   7.050   3.155  1.1541  0.3242  1.1389
24690SOL    HW279009   3.509   7.025   3.018 -0.5966  0.9210  0.2347
24691SOL     OW79010   3.315   0.387   1.671 -0.0250  0.4709  0.2600
24691SOL    HW179011   3.327   0.481   1.675 -1.3773  0.6189  2.8678
24691SOL    HW279012   3.385   0.351   1.727  0.5537 -0.1196 -0.8027
24692SOL     OW79013   7.662   9.503   9.440  0.1369  0.0553 -0.3399
24692SOL    HW179014   7.707   9.540   9.364 -0.5746  0.2461 -0.6752
24692SOL    HW279015   7.693   9.556   9.514 -0.5891  1.1092 -0.7635
24693SOL     OW79016   4.719   3.467   9.881  0.4020  0.3146 -0.2636
24693SOL    HW179017   4.746   3.433   9.966 -0.1631  0.5686  0.0222
24693SOL    HW279018   4.711   3.390   9.825 -1.0354 -0.0676  0.4175
24694SOL     OW79019   1.566   7.145   9.127  0.0256 -0.3255 -0.1936
24694SOL    HW179020   1.647   7.168   9.172 -0.6582  0.9012  0.4905
24694SOL    HW279021   1.584   7.162   9.035  0.4857  0.1521 -0.0228
24695SOL     OW79022   5.171   4.838   8.002  0.0284 -0.5093 -0.8457
24695SOL    HW179023   5.078   4.853   8.017  0.1655 -0.3635 -0.1302
24695SOL    HW279024   5.214   4.869   8.081  0.4903 -2.9303 -0.0627
24696SOL     OW79025   8.443   4.626   3.891 -0.1586  0.1206  0.4914
24696SOL    HW179026   8.481   4.714   3.888 -0.4099  0.2221 -1.5616
24696SOL    HW279027   8.386   4.627   3.967 -1.5007  2.3499 -0.4460
24697SOL     OW79028   6.264   5.167   7.057  0.7309 -0.1701 -0.7419
24697SOL    HW179029   6.326   5.140   6.990  2.4987  0.8945  0.3794
24697SOL    HW279030   6.257   5.092   7.117  0.9703 -0.2779 -0.8508
24698SOL     OW79031   7.387   5.577  11.265 -1.1401 -0.1334 -0.4666
24698SOL    HW179032   7.339   5.514  11.212  1.1243 -1.3385 -1.2090
24698SOL    HW279033   7.390   5.656  11.210 -1.3428 -0.3968 -0.8617
24699SOL     OW79034   4.810   1.882   9.427 -0.3771  0.0022  0.1000
24699SOL    HW179035   4.733   1.829   9.403  0.2296 -0.2443 -1.4619
24699SOL    HW279036   4.814   1.950   9.359  1.1609 -0.4095 -0.2646
24700SOL     OW79037  10.250   1.700   0.416 -0.3818  0.1971  0.2811
24700SOL    HW179038  10.218   1.658   0.336  0.8389  2.8208 -1.7283
24700SOL    HW279039  10.341   1.671   0.424  0.3009  1.9067 -0.8163
24701SOL     OW79040   1.466   7.571  10.812  0.0139 -0.3366  0.6533
24701SOL    HW179041   1.540   7.610  10.858  1.2733 -2.8284  0.8814
24701SOL    HW279042   1.398   7.562  10.880  0.4230 -0.4138  1.0537
24702SOL     OW79043   0.652   9.372   9.073  0.0154  0.0777 -0.0579
24702SOL    HW179044   0.668   9.278   9.081 -1.6538 -0.1964  0.4432
24702SOL    HW279045   0.697   9.397   8.993  0.2819 -1.1988 -0.3309
24703SOL     OW79046   9.286   3.496   5.953 -0.0911 -0.1854 -0.4193
24703SOL    HW179047   9.347   3.438   5.998  0.8668  0.6704 -0.5895
24703SOL    HW279048   9.307   3.485   5.860 -0.2056  0.1052 -0.4807
24704SOL     OW79049   2.162  10.152   6.541 -0.4981 -0.1284  0.1057
24704SOL    HW179050   2.069  10.132   6.548 -0.6384 -0.0533 -1.2481
24704SOL    HW279051   2.165  10.235   6.492  0.2680  0.0882  0.4976
24705SOL     OW79052   8.177   5.363   1.978 -0.6086 -0.2122  0.0646
24705SOL    HW179053   8.251   5.401   2.025 -0.1396 -0.5528 -0.4016
24705SOL    HW279054   8.129   5.313   2.045 -0.0293 -0.5737  0.2149
24706SOL     OW79055   9.935   3.349   0.330  0.3507  0.8249  0.3130
24706SOL    HW179056   9.981   3.433   0.338  0.9822  0.4553  0.6104
24706SOL    HW279057   9.996   3.284   0.365 -0.3550  0.3075  0.6112
24707SOL     OW79058   3.427  11.674   6.465  0.0418 -0.1585  0.1153
24707SOL    HW179059   3.467  11.718   6.540  0.5556 -0.0825 -0.1989
24707SOL    HW279060   3.334  11.668   6.488  0.2003 -0.2021  0.7891
24708SOL     OW79061   7.007   1.508   7.191 -0.0914  0.1309  0.0693
24708SOL    HW179062   7.009   1.570   7.264 -0.8128 -1.7799  1.8351
24708SOL    HW279063   7.099   1.489   7.172  0.1513  1.8394 -0.6716
24709SOL     OW79064  10.222   9.087   4.107  0.5084 -0.5617  0.7608
24709SOL    HW179065  10.253   9.066   4.195  0.0413 -1.8468  0.6311
24709SOL    HW279066  10.184   9.174   4.115  0.1698 -0.8049  1.9058
24710SOL     OW79067   8.749   7.885   5.495 -0.0637 -0.4037  0.0397
24710SOL    HW179068   8.743   7.800   5.452 -0.0982  0.1020 -0.9701
24710SOL    HW279069   8.659   7.917   5.500 -0.0329 -0.3442  0.2715
24711SOL     OW79070   4.730   1.243   7.948 -0.2330 -0.3576 -0.6685
24711SOL    HW179071   4.818   1.214   7.975 -0.6120 -0.5406  0.4491
24711SOL    HW279072   4.727   1.226   7.854  1.2082  0.4050 -0.8812
24712SOL     OW79073   5.934   5.741   5.137  0.4128 -0.6087 -0.2635
24712SOL    HW179074   5.962   5.671   5.195  3.0745 -0.4834 -1.2894
24712SOL    HW279075   5.950   5.707   5.049 -3.0843 -0.6170 -1.0612
24713SOL     OW79076   5.937   5.272   6.141 -0.6234 -0.0855  0.3660
24713SOL    HW179077   5.846   5.297   6.150 -0.7111 -0.9639  2.4590
24713SOL    HW279078   5.941   5.225   6.057 -2.1053 -0.1422  0.3024
24714SOL     OW79079   0.342   9.472   0.414  0.4879 -0.3067 -0.1715
24714SOL    HW179080   0.336   9.538   0.483  1.6769 -1.7942  1.4338
24714SOL    HW279081   0.424   9.426   0.431  1.3348 -0.1340 -3.2034
24715SOL     OW79082   7.404   6.464   9.946  0.0638 -0.3379  0.0033
24715SOL    HW179083   7.358   6.505   9.872  0.2356 -0.2724 -0.0680
24715SOL    HW279084   7.413   6.372   9.921  0.2265 -0.2920 -0.1110
24716SOL     OW79085   7.357   4.123   1.412  0.6768  0.0469 -0.1898
24716SOL    HW179086   7.333   4.080   1.494  3.4211 -2.4633 -0.5339
24716SOL    HW279087   7.329   4.061   1.344  2.0841  0.1303 -0.8830
24717SOL     OW79088   6.252   3.652   3.094 -0.2862 -0.8845  0.2332
24717SOL    HW179089   6.191   3.601   3.041 -0.5155 -1.0517  0.6459
24717SOL    HW279090   6.335   3.649   3.046 -0.3029 -1.6289  0.2359
24718SOL     OW79091   8.559   2.913   8.797  0.2034  0.3570  0.6723
24718SOL    HW179092   8.579   2.822   8.775  0.2184 -0.1377  2.5352
24718SOL    HW279093   8.488   2.937   8.737  1.0062 -0.4567 -0.6656
24719SOL     OW79094   5.862   6.925   8.523 -0.1177 -0.7677 -0.7295
24719SOL    HW179095   5.926   6.993   8.544 -1.7584  1.0726 -1.3608
24719SOL    HW279096   5.777   6.964   8.547 -1.1594 -2.4429 -1.5037
24720SOL     OW79097   7.797   2.201   4.100  0.3000 -0.2442 -0.4111
24720SOL    HW179098   7.825   2.182   4.190 -0.9562 -0.0027  0.0425
24720SOL    HW279099   7.857   2.150   4.045  1.9513  0.6477  0.5010
24721SOL     OW79100  11.299   3.799  11.007 -0.4870  0.2869  0.0703
24721SOL    HW179101  11.338   3.739  10.944  1.5244  1.5695  0.0179
24721SOL    HW279102  11.274   3.875  10.955  0.5335  1.0600  0.6685
24722SOL     OW79103   3.970  11.558   0.252  1.4276 -0.7129  0.3093
24722SOL    HW179104   3.977  11.509   0.334  0.0037 -1.9762 -0.2609
24722SOL    HW279105   3.959  11.649   0.279  1.7697 -1.0064  1.4874
24723SOL     OW79106   9.758  11.206   4.660 -0.0845 -0.3077  0.1114
24723SOL    HW179107   9.738  11.170   4.747  1.0567 -0.0887  0.4800
24723SOL    HW279108   9.733  11.136   4.599  1.7911 -1.6640  0.8010
24724SOL     OW79109   5.382   1.367  11.292 -0.4995 -0.1155  0.2590
24724SOL    HW179110   5.317   1.430  11.262 -0.2963 -0.0238  0.0029
24724SOL    HW279111   5.346   1.282  11.269 -0.6578 -0.0787  0.3722
24725SOL     OW79112   3.190   9.434   1.759 -0.1584  0.4291 -0.3112
24725SOL    HW179113   3.204   9.388   1.841 -0.9929 -0.0070 -0.3986
24725SOL    HW279114   3.147   9.369   1.703 -0.8896  1.1578 -0.6072
24726SOL     OW79115   9.458   1.261   4.910  0.2783 -0.3759 -0.1915
24726SOL    HW179116   9.494   1.302   4.831  2.2522 -1.8839 -0.1547
24726SOL    HW279117   9.498   1.310   4.982 -0.7440  0.3478 -0.0809
24727SOL     OW79118   8.353   9.196   7.673 -0.3619 -0.0439 -0.5173
24727SOL    HW179119   8.361   9.291   7.685 -0.7370 -0.1019  0.2327
24727SOL    HW279120   8.267   9.174   7.708  0.7887 -1.0527  1.9473
24728SOL     OW79121   8.738   2.845   4.221 -0.5582  0.1483 -0.3251
24728SOL    HW179122   8.695   2.927   4.246  1.9796  1.6439 -0.5084
24728SOL    HW279123   8.694   2.819   4.140 -1.0708  1.6596 -0.5769
24729SOL     OW79124   1.029   4.664   6.369  0.3069  0.0803 -0.2487
24729SOL    HW179125   1.029   4.569   6.357 -3.6648 -0.0891 -0.1902
24729SOL    HW279126   1.012   4.698   6.281  0.7739  0.7007 -0.1026
24730SOL     OW79127   4.525  11.204   5.735 -0.2769  0.1942 -0.0901
24730SOL    HW179128   4.595  11.267   5.750  0.2779 -0.2495 -0.7673
24730SOL    HW279129   4.446  11.258   5.728 -0.2784  0.5979  2.1641
24731SOL     OW79130   1.558   6.187  11.458 -0.3320  0.1634 -0.1330
24731SOL    HW179131   1.616   6.123  11.417 -1.4485 -0.0817 -1.3774
24731SOL    HW279132   1.489   6.134  11.498 -1.2402  0.5637 -1.1395
24732SOL     OW79133   0.957   0.448  10.573 -0.0475  0.2884 -0.2496
24732SOL    HW179134   1.000   0.517  10.523 -0.6743 -0.6712 -2.1931
24732SOL    HW279135   0.942   0.378  10.510 -2.6485 -0.2224  0.8237
24733SOL     OW79136   4.622   9.692   7.604  0.0349 -0.0368 -0.0290
24733SOL    HW179137   4.541   9.704   7.653  0.4203  0.9791  0.3731
24733SOL    HW279138   4.611   9.608   7.560 -0.4263 -0.8796  1.6022
24734SOL     OW79139  10.080   8.984   1.914 -1.0229  0.1720 -0.0009
24734SOL    HW179140  10.129   9.064   1.895 -2.4932  0.7856 -1.4301
24734SOL    HW279141  10.146   8.915   1.913  0.2002  1.2879  0.7417
24735SOL     OW79142   9.761   8.491   2.600 -0.0256 -0.5084  0.7041
24735SOL    HW179143   9.680   8.512   2.553 -1.6017  0.9397  3.7655
24735SOL    HW279144   9.772   8.397   2.588 -1.3632 -0.5095 -0.9057
24736SOL     OW79145   9.416   7.755  10.380  0.1285  0.1218  0.0445
24736SOL    HW179146   9.354   7.711  10.438  1.6670  0.3514  1.9726
24736SOL    HW279147   9.432   7.692  10.310 -0.5555 -0.8365  0.7226
24737SOL     OW79148  10.717  10.423   4.112 -0.2963 -0.0381 -0.8394
24737SOL    HW179149  10.705  10.446   4.020  0.7439  0.8617 -0.7543
24737SOL    HW279150  10.804  10.383   4.116  0.7238  2.1422  0.1328
24738SOL     OW79151  11.499   3.632   6.579  0.2846  0.4328 -0.6926
24738SOL    HW179152  11.476   3.714   6.537 -1.1912  1.0189  1.1083
24738SOL    HW279153  11.529   3.658   6.667 -0.5487 -0.9607  0.0370
24739SOL     OW79154   0.674   5.553   1.791  0.3269  0.5645 -0.1293
24739SOL    HW179155   0.636   5.502   1.718  1.1787 -0.1581 -0.0828
24739SOL    HW279156   0.751   5.595   1.753 -0.6712  2.3031 -0.3126
24740SOL     OW79157   4.209   5.212   1.768 -0.7786  0.0699 -0.4910
24740SOL    HW179158   4.230   5.260   1.688  1.1605 -0.5153 -0.3873
24740SOL    HW279159   4.278   5.146   1.774 -1.8336 -0.9406  0.8105
24741SOL     OW79160   9.152   9.236   0.185  0.1040  0.5072  0.2884
24741SOL    HW179161   9.196   9.204   0.264 -1.7854  0.5394  1.4119
24741SOL    HW279162   9.099   9.162   0.156  0.7154  0.5227 -0.9468
24742SOL     OW79163   9.772  10.164   8.365 -0.2056 -0.3186 -0.1475
24742SOL    HW179164   9.862  10.145   8.392  0.3123  0.6430 -1.1057
24742SOL    HW279165   9.731  10.079   8.354  0.9668 -0.8050 -0.9093
24743SOL     OW79166   1.180   2.368   6.559  0.6035  0.0479  0.3150
24743SOL    HW179167   1.182   2.409   6.473  0.1059 -1.2612 -0.3469
24743SOL    HW279168   1.090   2.337   6.569  0.8154 -0.3565  1.0426
24744SOL     OW79169  11.443   7.850   8.394  0.1158 -0.4498  0.2709
24744SOL    HW179170  11.459   7.797   8.472  1.7148  1.8177  1.6276
24744SOL    HW279171  11.515   7.828   8.335 -0.8904 -1.8936 -0.4950
24745SOL     OW79172   9.965   6.795  10.571  0.1534 -0.4478  0.1373
24745SOL    HW179173  10.016   6.731  10.621  1.4375 -0.4107 -1.0647
24745SOL    HW279174  10.022   6.820  10.499 -0.6625  1.4193  0.0875
24746SOL     OW79175   0.823   5.144   0.086 -0.0393  0.3432 -0.0979
24746SOL    HW179176   0.809   5.232   0.051  0.7825  0.1220 -1.0396
24746SOL    HW279177   0.754   5.091   0.047 -1.1587  0.7515  1.2678
24747SOL     OW79178   4.275   4.780   6.632  0.9515  0.6199 -0.0952
24747SOL    HW179179   4.325   4.773   6.714 -0.1862 -0.4450  0.5424
24747SOL    HW279180   4.185   4.794   6.661  0.3913 -0.6704 -1.1367
24748SOL     OW79181   7.203   2.645   6.780 -0.3805  0.4909 -0.2092
24748SOL    HW179182   7.238   2.659   6.692  1.1915  0.4303  0.3801
24748SOL    HW279183   7.251   2.707   6.835 -1.5654  0.7439  0.5780
24749SOL     OW79184   5.871  10.062  11.313 -0.8642 -0.1743  0.3025
24749SOL    HW179185   5.925  10.036  11.387 -0.2014  0.2705 -0.0155
24749SOL    HW279186   5.828   9.981  11.286  0.0450 -0.6532  0.2443
24750SOL     OW79187   8.820   4.220   2.200  0.3202  0.1375  0.0647
24750SOL    HW179188   8.794   4.283   2.133  2.2287  1.2511  0.2993
24750SOL    HW279189   8.908   4.193   2.175 -0.2398 -2.0834  0.2763
24751SOL     OW79190   5.561   4.094   2.320  0.8443  0.3526 -0.3698
24751SOL    HW179191   5.467   4.105   2.310  1.0007  0.6399 -1.6724
24751SOL    HW279192   5.598   4.175   2.286  1.7047 -1.1436 -3.3131
24752SOL     OW79193   6.487   0.824   8.465  0.5159 -0.0760  0.4533
24752SOL    HW179194   6.423   0.876   8.417  1.3232 -1.1087 -1.8645
24752SOL    HW279195   6.487   0.862   8.553 -0.6484  2.2418 -0.4569
24753SOL     OW79196   3.080  10.962   5.130  0.6858  0.0270 -0.1909
24753SOL    HW179197   3.035  10.891   5.085  1.5605 -0.3351 -0.5111
24753SOL    HW279198   3.057  11.040   5.079 -0.8245  0.1022  0.5565
24754SOL     OW79199   2.566   2.945   0.536  0.0041  0.2795 -0.6426
24754SOL    HW179200   2.551   2.856   0.504  1.5402 -0.2272 -0.0595
24754SOL    HW279201   2.653   2.941   0.577  0.8717  2.4695 -2.1144
24755SOL     OW79202   1.601   4.063   2.412  0.2108  0.0073  0.4263
24755SOL    HW179203   1.528   4.105   2.368  0.1713  1.1745  1.5558
24755SOL    HW279204   1.645   4.012   2.343 -0.7720  0.4846 -0.5801
24756SOL     OW79205   4.107   1.335   9.574  0.0076  0.1885 -0.4135
24756SOL    HW179206   4.116   1.395   9.500  1.7956 -0.0852 -0.4561
24756SOL    HW279207   4.104   1.393   9.651  0.6681  0.3724 -0.5248
24757SOL     OW79208   4.157   8.986   3.856  0.1128 -0.1645 -0.0864
24757SOL    HW179209   4.061   8.990   3.856  0.1012 -0.0852 -1.1551
24757SOL    HW279210   4.180   8.974   3.764  1.1582  0.3960  0.0890
24758SOL     OW79211   6.369   9.691  10.573 -0.3518  0.4680 -0.5695
24758SOL    HW179212   6.386   9.623  10.639  0.5845 -0.2000 -1.4751
24758SOL    HW279213   6.391   9.650  10.490 -0.0530  1.7957 -1.1690
24759SOL     OW79214   1.370   5.857   3.213  1.1150  0.4358  1.0780
24759SOL    HW179215   1.382   5.832   3.121  0.3701 -0.7996  1.2902
24759SOL    HW279216   1.370   5.774   3.260  3.0506  1.1289  2.4222
24760SOL     OW79217   8.389   9.550   4.128 -0.1925  0.0788  0.4331
24760SOL    HW179218   8.439   9.469   4.133 -0.3082  0.0477  3.3871
24760SOL    HW279219   8.298   9.521   4.117 -0.0560 -0.0882 -0.2944
24761SOL     OW79220   7.562   7.729   1.158  0.0898  0.2092  0.0141
24761SOL    HW179221   7.543   7.792   1.227 -0.4309  0.7171 -0.5780
24761SOL    HW279222   7.619   7.664   1.199  1.0235  1.3093  0.5221
24762SOL     OW79223   5.659   8.492   4.986  0.6796  0.0116  1.0865
24762SOL    HW179224   5.586   8.525   5.039 -0.6599 -1.3020  0.1555
24762SOL    HW279225   5.677   8.563   4.924 -0.9341 -0.2248  0.2810
24763SOL     OW79226  11.180   4.824   0.403 -0.5913 -0.5968  0.4733
24763SOL    HW179227  11.270   4.809   0.373 -0.5067  1.6303 -0.5628
24763SOL    HW279228  11.180   4.795   0.494  0.9366 -1.3937  0.2539
24764SOL     OW79229   2.422   8.277   3.283 -0.1485 -0.6420 -0.1827
24764SOL    HW179230   2.349   8.266   3.345 -0.5423  1.8642 -0.0988
24764SOL    HW279231   2.500   8.273   3.338 -0.5163  2.2021  0.7237
24765SOL     OW79232   1.006   9.775   7.438 -0.4578  0.7942 -0.1572
24765SOL    HW179233   0.937   9.835   7.468 -1.3361 -0.7403  1.1132
24765SOL    HW279234   1.037   9.813   7.356 -1.0534  2.8802  0.5077
24766SOL     OW79235   4.517   2.753   2.884 -0.1965 -0.1486 -0.0077
24766SOL    HW179236   4.476   2.710   2.808 -1.9876 -0.7188  1.2194
24766SOL    HW279237   4.477   2.710   2.960  1.7454  0.2185  1.2839
24767SOL     OW79238   4.334  10.466  10.892 -0.7837  0.0437  0.5109
24767SOL    HW179239   4.378  10.544  10.927  0.0202  0.6586 -1.6869
24767SOL    HW279240   4.311  10.415  10.969  0.2262  1.6337  1.9454
24768SOL     OW79241   0.515   9.025   8.774 -0.4260  0.3635 -0.6327
24768SOL    HW179242   0.513   8.932   8.795  0.3101  0.4935  0.0630
24768SOL    HW279243   0.574   9.032   8.699  1.6982  0.5375  0.9604
24769SOL     OW79244   1.761   7.464   4.472 -0.1492  0.1897 -0.1532
24769SOL    HW179245   1.836   7.523   4.476 -2.1058  2.9689 -0.9465
24769SOL    HW279246   1.714   7.480   4.554 -1.1287  0.3829 -0.7355
24770SOL     OW79247   4.755   4.271   4.177 -0.7350  0.2308  0.9170
24770SOL    HW179248   4.817   4.343   4.164  0.0332 -0.4765  0.5469
24770SOL    HW279249   4.775   4.210   4.106 -3.3959  1.0146 -0.6180
24771SOL     OW79250   5.140  11.441   3.515  0.4975  0.0277 -0.3575
24771SOL    HW179251   5.155  11.347   3.504 -1.3277 -0.3807  0.2512
24771SOL    HW279252   5.066  11.460   3.458  0.3072  0.9199  0.1763
24772SOL     OW79253  11.422   4.948   5.569 -0.3110 -0.0101 -0.0737
24772SOL    HW179254  11.471   4.990   5.499  1.2536 -0.2593  0.8255
24772SOL    HW279255  11.469   4.866   5.587 -0.8889 -0.1335  1.0057
24773SOL     OW79256   9.454   0.437   9.821 -0.0092 -0.1103 -0.4710
24773SOL    HW179257   9.467   0.480   9.736  0.3273 -0.8084 -0.7871
24773SOL    HW279258   9.521   0.368   9.823  0.4461  0.3389  0.6709
24774SOL     OW79259   6.757   8.962   1.278  0.5546 -0.2050 -0.3683
24774SOL    HW179260   6.664   8.950   1.259  0.2675  0.5380  0.5132
24774SOL    HW279261   6.793   9.001   1.199  0.4947 -2.0660 -1.3848
24775SOL     OW79262   5.676   0.879   4.611 -0.1947 -0.8167 -0.4910
24775SOL    HW179263   5.688   0.806   4.551 -2.8054 -0.7049 -1.2578
24775SOL    HW279264   5.588   0.868   4.646  0.2061  0.7047  1.1581
24776SOL     OW79265   2.656   9.662   4.187  0.1386 -0.5979  0.1274
24776SOL    HW179266   2.573   9.703   4.211  0.4119 -0.7033  1.2946
24776SOL    HW279267   2.693   9.632   4.270  1.6564  0.0342 -0.2994
24777SOL     OW79268  10.473   9.515  11.337 -1.1263 -0.2731  1.1050
24777SOL    HW179269  10.463   9.531  11.431 -0.1859  1.5057  0.9444
24777SOL    HW279270  10.504   9.598  11.302 -0.3631 -1.2334 -0.6133
24778SOL     OW79271   5.218   5.035   3.871  0.3478 -0.3042 -0.3849
24778SOL    HW179272   5.228   5.048   3.965  2.6962 -1.5823 -0.3686
24778SOL    HW279273   5.205   5.123   3.836  1.7082  0.4717  0.9370
24779SOL     OW79274   6.307   8.112  11.261 -0.0897 -0.2025  0.0213
24779SOL    HW179275   6.343   8.200  11.255 -1.1998  0.2070 -1.0284
24779SOL    HW279276   6.329   8.071  11.177 -0.2367 -0.6691  0.2039
24780SOL     OW79277   8.623  10.096   2.717 -0.9855 -0.6184  0.6277
24780SOL    HW179278   8.545  10.118   2.769 -1.4458 -3.2612  1.2017
24780SOL    HW279279   8.588  10.055   2.638 -0.1704 -0.9464  0.4302
24781SOL     OW79280   6.230   3.806   8.393  0.9542 -0.3985 -0.0156
24781SOL    HW179281   6.239   3.825   8.486 -0.6325 -0.1861  0.1081
24781SOL    HW279282   6.315   3.831   8.356  1.3351  0.2707  1.2463
24782SOL     OW79283   0.298   9.996   9.030  0.0391 -0.3991  0.1202
24782SOL    HW179284   0.289   9.901   9.021 -1.7304 -0.1050 -1.6869
24782SOL    HW279285   0.265  10.015   9.118 -1.7255 -1.2439 -0.3176
24783SOL     OW79286   3.046   3.903   5.714 -0.2693  0.2629  0.9467
24783SOL    HW179287   3.070   3.953   5.793  1.1113  2.7303 -0.8840
24783SOL    HW279288   3.128   3.864   5.684  0.0465  2.2948 -1.1126
24784SOL     OW79289   7.114   2.194   0.338  0.1411 -0.3066  0.2857
24784SOL    HW179290   7.182   2.259   0.320 -1.3124  0.9951 -0.7557
24784SOL    HW279291   7.114   2.185   0.434 -0.1168  1.8216  0.5338
24785SOL     OW79292   5.564   3.605   3.835  0.0363 -0.6005 -0.4176
24785SOL    HW179293   5.496   3.672   3.839 -1.2390 -1.8950  1.1306
24785SOL    HW279294   5.610   3.613   3.919  0.7242 -0.8181 -0.7693
24786SOL     OW79295   5.583   5.278   9.435  0.6539  0.1058  0.3520
24786SOL    HW179296   5.673   5.310   9.438  0.4533  0.6256  0.9822
24786SOL    HW279297   5.538   5.340   9.376  0.1334  1.3740  2.0097
24787SOL     OW79298  11.066   9.906   3.730  0.6000 -0.1554 -0.3642
24787SOL    HW179299  11.072   9.868   3.818  0.3842  0.1201 -0.2284
24787SOL    HW279300  11.015   9.986   3.742  1.2918  0.3382 -0.5863
24788SOL     OW79301   2.854   6.996   9.583  0.1351 -0.1235 -0.6865
24788SOL    HW179302   2.861   7.066   9.647  0.1697  0.2230 -1.0649
24788SOL    HW279303   2.760   6.980   9.575  0.0850  0.3182 -1.0612
24789SOL     OW79304   4.160   5.934   5.971 -0.6155  0.2793 -0.0961
24789SOL    HW179305   4.144   5.859   6.028  0.9913  1.7960  2.5502
24789SOL    HW279306   4.116   6.007   6.016  2.0572  1.8385  0.1774
24790SOL     OW79307   3.870   9.374   7.482  0.3399  1.0239  0.2135
24790SOL    HW179308   3.907   9.285   7.480  1.3064  1.4188 -0.9951
24790SOL    HW279309   3.846   9.388   7.574 -1.1068 -0.9743  0.2108
24791SOL     OW79310   7.292  11.242   9.771 -0.1942 -0.3447 -0.4541
24791SOL    HW179311   7.334  11.157   9.785  1.8004  0.9001  2.0078
24791SOL    HW279312   7.323  11.270   9.685  1.1949 -1.0622 -0.2161
24792SOL     OW79313   9.062   1.549   1.230 -0.2849 -0.4600  0.0773
24792SOL    HW179314   9.059   1.521   1.138  1.1594 -1.7213  0.3887
24792SOL    HW279315   9.001   1.490   1.274 -0.5093 -0.2627  0.0322
24793SOL     OW79316   5.455   3.183   0.306  0.2473 -0.3248  0.1127
24793SOL    HW179317   5.512   3.106   0.305  1.7071  0.7298 -0.2201
24793SOL    HW279318   5.514   3.257   0.317 -1.1228  0.7762  0.3373
24794SOL     OW79319   5.588  10.972   9.808  0.3114  0.4183  0.2408
24794SOL    HW179320   5.600  11.060   9.843  1.2850 -0.3319  1.9662
24794SOL    HW279321   5.510  10.938   9.853 -0.3875  0.5686 -0.8264
24795SOL     OW79322   5.997   3.511   5.428  0.4070  0.5613  0.0126
24795SOL    HW179323   6.073   3.524   5.370  0.3646 -1.8182 -0.6802
24795SOL    HW279324   5.922   3.534   5.373  0.5346  2.3893  0.5275
24796SOL     OW79325   3.235   4.326   6.208 -0.1153  0.4578 -0.7712
24796SOL    HW179326   3.198   4.238   6.206 -0.5097  0.6311 -1.7433
24796SOL    HW279327   3.160   4.385   6.205  0.1503  0.8344 -0.2832
24797SOL     OW79328   6.577   9.215   5.447 -0.6499  0.4352 -0.5088
24797SOL    HW179329   6.516   9.141   5.448 -1.9281  1.4516 -0.2329
24797SOL    HW279330   6.657   9.182   5.486 -1.7231 -0.3730  1.0827
24798SOL     OW79331   3.408   5.874   9.297  0.2133 -0.3263 -0.6011
24798SOL    HW179332   3.350   5.857   9.372  1.7383 -2.7863  0.1594
24798SOL    HW279333   3.480   5.925   9.334  1.0904 -1.7512 -0.2632
24799SOL     OW79334   4.229   8.049   2.537  0.0304  0.1471 -0.3919
24799SOL    HW179335   4.160   8.097   2.492 -0.0064  0.9350  0.4855
24799SOL    HW279336   4.205   7.957   2.525  0.2658  0.2830 -2.3599
24800SOL     OW79337   8.731   5.245   0.767  0.1731 -0.1693  0.6214
24800SOL    HW179338   8.808   5.238   0.711 -0.7152 -0.3355 -0.6192
24800SOL    HW279339   8.699   5.156   0.776  0.1687 -0.1127  1.2054
24801SOL     OW79340   0.163   3.403   1.736  0.0458  0.0033  0.0323
24801SOL    HW179341   0.172   3.363   1.822 -0.4119  1.1406  0.6312
24801SOL    HW279342   0.230   3.472   1.735  0.8810 -0.7812 -1.0117
24802SOL     OW79343   0.010   9.359  10.501  0.0203 -0.0183 -0.1085
24802SOL    HW179344   0.099   9.327  10.489 -0.1634 -0.8346  0.5539
24802SOL    HW279345   0.018   9.430  10.565  0.1229 -0.5802  0.5196
24803SOL     OW79346  11.108   4.097   8.007  0.2850  0.1568  0.3901
24803SOL    HW179347  11.191   4.094   8.055 -0.6328  0.3860  2.0269
24803SOL    HW279348  11.108   4.016   7.956  0.6603 -0.7822  1.8373
24804SOL     OW79349   0.588   4.845  11.402 -0.4988  0.0031 -0.5003
24804SOL    HW179350   0.623   4.787  11.470 -0.5138 -0.7749 -1.1502
24804SOL    HW279351   0.653   4.914  11.394 -1.4614  1.3011  1.7919
24805SOL     OW79352   4.966   4.457   8.840  0.0640 -0.3470 -0.4628
24805SOL    HW179353   4.979   4.431   8.749  0.5056  1.9413 -1.1308
24805SOL    HW279354   5.047   4.434   8.884 -0.3399 -1.9271 -0.4900
24806SOL     OW79355  10.038  10.932   5.865 -0.5110 -0.0698 -0.0379
24806SOL    HW179356   9.985  10.867   5.912  0.2252  0.1634  1.1483
24806SOL    HW279357  10.109  10.882   5.826 -0.7489 -0.1666 -0.3579
24807SOL     OW79358   6.416   6.946   1.551 -0.0774 -0.5394  0.2320
24807SOL    HW179359   6.352   6.995   1.499 -0.5356 -0.5873  0.7385
24807SOL    HW279360   6.390   6.855   1.543  1.6340 -0.9113 -1.8977
24808SOL     OW79361   1.343   3.715   3.504  0.5020 -0.2280 -0.2335
24808SOL    HW179362   1.418   3.708   3.445  1.1911  0.6702  0.4954
24808SOL    HW279363   1.376   3.684   3.588  0.8504  2.4088  0.7194
24809SOL     OW79364   8.677   3.768  10.110  0.0616  0.4317  0.6721
24809SOL    HW179365   8.593   3.748  10.069 -0.0408  0.5859  0.8097
24809SOL    HW279366   8.675   3.863  10.124  1.9319  1.2736 -3.1910
24810SOL     OW79367   6.777   5.171   0.506 -0.0174  0.0261  0.1496
24810SOL    HW179368   6.870   5.195   0.504 -0.1995  1.1064  2.1881
24810SOL    HW279369   6.771   5.094   0.450  2.0263  0.1854 -0.3653
24811SOL     OW79370   5.337   6.465   6.466  0.5402 -0.4944 -0.1674
24811SOL    HW179371   5.283   6.544   6.460 -1.0222 -1.5110 -0.1531
24811SOL    HW279372   5.293   6.402   6.408  1.5475 -1.4693  0.0993
24812SOL     OW79373   2.483   2.695   4.111  0.2208  0.0971 -0.3908
24812SOL    HW179374   2.519   2.690   4.023 -0.8234  0.1634 -0.8307
24812SOL    HW279375   2.400   2.741   4.100 -1.0734 -1.9749  0.2735
24813SOL     OW79376   1.778   1.386   7.476  0.1401  0.3266 -0.2940
24813SOL    HW179377   1.769   1.294   7.453 -0.0848  0.3994 -0.5008
24813SOL    HW279378   1.763   1.433   7.394  2.4888  0.4674 -0.7121
24814SOL     OW79379   0.723   1.704   9.450  0.5680 -0.2769  0.3245
24814SOL    HW179380   0.746   1.619   9.412  1.1307 -0.3702  0.8584
24814SOL    HW279381   0.730   1.766   9.378 -0.5727 -0.7906 -0.2517
24815SOL     OW79382   5.022  10.081   4.755  0.5522  0.4199  0.8557
24815SOL    HW179383   5.033  10.135   4.676  1.2280 -0.1231  0.5658
24815SOL    HW279384   5.010   9.992   4.723 -1.4050  0.4719  1.3088
24816SOL     OW79385   0.804   0.477   1.944  0.1586 -0.0917 -0.3214
24816SOL    HW179386   0.800   0.529   2.025 -0.6966  0.2462 -0.5727
24816SOL    HW279387   0.713   0.453   1.927  0.3272 -0.0840 -1.2406
24817SOL     OW79388  10.209  10.054  10.043 -0.2538 -0.1403  0.2499
24817SOL    HW179389  10.237  10.101   9.964  0.5940 -2.1423 -0.7129
24817SOL    HW279390  10.250  10.102  10.115 -0.1344  1.0815 -0.5990
24818SOL     OW79391   5.337   4.103   6.053  0.6199  0.1585  0.2053
24818SOL    HW179392   5.271   4.120   5.986 -0.1119 -1.1647  0.5568
24818SOL    HW279393   5.302   4.144   6.132  0.1588 -0.6136  0.4114
24819SOL     OW79394   3.608   8.753   6.800  0.5220 -0.3305  0.0112
24819SOL    HW179395   3.634   8.791   6.715 -0.5611 -1.8158 -1.0438
24819SOL    HW279396   3.682   8.696   6.823  1.0232  0.4290  0.3112
24820SOL     OW79397   6.953   8.413   5.919  0.4082  0.3057 -0.6799
24820SOL    HW179398   6.936   8.364   5.999  0.4179 -0.3001 -1.0449
24820SOL    HW279399   6.867   8.425   5.880  0.4752 -0.0217 -0.9352
24821SOL     OW79400   6.232   5.292   6.709 -0.2898 -0.7963  0.0106
24821SOL    HW179401   6.157   5.245   6.745  0.4874 -1.2480  1.0702
24821SOL    HW279402   6.193   5.362   6.655 -1.4572 -1.7965 -0.4875
24822SOL     OW79403   7.540   6.623   3.009  0.2200  0.1182 -0.0663
24822SOL    HW179404   7.589   6.549   2.972  0.7013  0.2675  0.2579
24822SOL    HW279405   7.451   6.590   3.020  0.3822 -0.3474 -0.1263
24823SOL     OW79406   8.137   7.908   1.102  0.3846  0.2854  0.6423
24823SOL    HW179407   8.087   7.897   1.021  1.4378 -1.0436  0.1356
24823SOL    HW279408   8.196   7.981   1.084  1.8592 -1.1062 -0.5054
24824SOL     OW79409   1.376   5.502   5.323  0.1579 -0.1247  0.0385
24824SOL    HW179410   1.427   5.514   5.403 -0.8535  1.0200  0.5517
24824SOL    HW279411   1.398   5.579   5.269 -0.3242 -0.0958 -0.1215
24825SOL     OW79412  10.837   8.842  10.114 -0.1299  0.4246 -0.1581
24825SOL    HW179413  10.768   8.830  10.049  0.6703  0.6844 -1.0771
24825SOL    HW279414  10.854   8.936  10.114  0.3282  0.3448 -0.0541
24826SOL     OW79415   1.402   1.603   0.146  0.1391  0.7198  0.4309
24826SOL    HW179416   1.323   1.657   0.153 -0.7238 -0.7323  3.1351
24826SOL    HW279417   1.376   1.517   0.176  2.2382 -0.4697 -0.8702
24827SOL     OW79418   5.058   4.762   4.843 -0.3500 -0.0910  0.1980
24827SOL    HW179419   5.117   4.716   4.903 -0.2463 -1.5480 -0.9371
24827SOL    HW279420   4.974   4.717   4.853  0.2035 -1.8795 -2.2488
24828SOL     OW79421   4.178   7.355   5.660 -0.0638 -0.5050  0.0405
24828SOL    HW179422   4.272   7.364   5.645 -0.1414 -2.3864 -2.0794
24828SOL    HW279423   4.147   7.304   5.586 -2.6574 -0.5980  1.0952
24829SOL     OW79424   5.830   1.746   4.979  0.6818 -0.3292 -0.3496
24829SOL    HW179425   5.770   1.806   5.023  0.7662  0.0939 -0.8051
24829SOL    HW279426   5.863   1.690   5.049 -3.0677 -3.1515 -0.5462
24830SOL     OW79427   2.320   9.136   3.562 -0.7556 -0.7758  0.2078
24830SOL    HW179428   2.316   9.232   3.564  0.4672 -0.5729 -2.3808
24830SOL    HW279429   2.234   9.110   3.528 -0.6249 -0.4589 -0.3978
24831SOL     OW79430   7.273   6.825   4.181  0.9260  0.6033 -1.5123
24831SOL    HW179431   7.220   6.751   4.154  0.3915  1.0009 -1.5715
24831SOL    HW279432   7.327   6.791   4.252  0.5481  0.2082 -1.4088
24832SOL     OW79433   3.759   4.260   2.784  0.3152 -0.2111 -0.3294
24832SOL    HW179434   3.812   4.337   2.803  1.2799 -0.4823 -1.7818
24832SOL    HW279435   3.742   4.265   2.689 -0.7247 -1.0957 -0.2109
24833SOL     OW79436   3.223   2.147   7.627  0.4550  0.4532 -0.0627
24833SOL    HW179437   3.238   2.055   7.605  2.5791  0.5092  0.9252
24833SOL    HW279438   3.250   2.195   7.548 -0.1519  0.2594 -0.3904
24834SOL     OW79439   0.285   3.284   1.346  0.0060  0.6000 -0.5854
24834SOL    HW179440   0.328   3.360   1.386  0.2628  0.1769 -0.0417
24834SOL    HW279441   0.335   3.209   1.378 -1.9988 -0.0363  1.3155
24835SOL     OW79442  11.391   9.536   2.441  0.0411 -0.1623 -0.0856
24835SOL    HW179443  11.439   9.498   2.515  1.2661  0.8354 -0.3375
24835SOL    HW279444  11.353   9.616   2.476 -0.1584 -0.1723 -0.2858
24836SOL     OW79445  10.118   3.008   8.437  0.5987  0.3562  0.1084
24836SOL    HW179446  10.084   2.921   8.458  0.4107  0.4165  0.0612
24836SOL    HW279447  10.078   3.065   8.503 -1.3722  0.8255 -1.4057
24837SOL     OW79448   3.116   6.005   0.559 -0.3769 -0.1406 -0.0942
24837SOL    HW179449   3.212   6.003   0.566 -0.2131  3.3586  0.5298
24837SOL    HW279450   3.099   6.029   0.468 -0.7441 -1.4520 -0.3935
24838SOL     OW79451  10.460   3.578  11.057 -0.1981 -0.0278  0.0835
24838SOL    HW179452  10.550   3.562  11.084  0.1327  0.4122 -0.7385
24838SOL    HW279453  10.461   3.569  10.962 -1.2086 -0.9139  0.1343
24839SOL     OW79454   0.260   5.940  10.485 -0.1741 -0.1862  0.4970
24839SOL    HW179455   0.198   5.925  10.557  0.3812 -0.1187  0.9957
24839SOL    HW279456   0.228   6.020  10.443  0.0185  0.3008  1.2460
24840SOL     OW79457   4.205   6.828   9.960  0.3634  0.9549  0.2150
24840SOL    HW179458   4.241   6.883  10.030  0.6260  0.7643  0.2309
24840SOL    HW279459   4.253   6.855   9.882  0.1351  1.1019  0.1234
24841SOL     OW79460   4.565   3.325   3.669  0.2543 -0.3020  0.1421
24841SOL    HW179461   4.581   3.299   3.760  1.8644  0.3437  0.0844
24841SOL    HW279462   4.595   3.416   3.664  1.6749 -0.7973 -1.3643
24842SOL     OW79463   4.250   2.504   6.918  0.1154  0.6002 -0.1466
24842SOL    HW179464   4.257   2.433   6.855 -0.4334 -0.0460  0.4940
24842SOL    HW279465   4.208   2.464   6.994  0.8010  1.3453  0.6445
24843SOL     OW79466   1.738   4.932   3.366 -0.0453  0.0322 -0.5273
24843SOL    HW179467   1.799   4.896   3.430 -0.3937 -1.4753 -1.0178
24843SOL    HW279468   1.748   5.027   3.376  0.7282 -0.1638  0.9560
24844SOL     OW79469   2.171   8.414   4.579  0.5862  0.6151 -0.1425
24844SOL    HW179470   2.077   8.403   4.569  0.7247  0.2856 -1.1803
24844SOL    HW279471   2.203   8.327   4.602  0.5616  0.8828  0.9863
24845SOL     OW79472  10.655   9.851   9.246 -0.3772  0.0354  0.5071
24845SOL    HW179473  10.603   9.931   9.246 -1.1988 -0.4856  1.1959
24845SOL    HW279474  10.674   9.835   9.339  0.2915 -0.2524  0.3297
24846SOL     OW79475   5.175   8.343   7.187 -0.6084  0.1658  0.4376
24846SOL    HW179476   5.203   8.315   7.274 -0.5820  1.2666  0.8026
24846SOL    HW279477   5.099   8.399   7.204  1.2856  3.0349  0.0584
24847SOL     OW79478  10.097   0.886  11.528 -0.2991 -0.8600 -0.3325
24847SOL    HW179479  10.123   0.804  11.571 -1.0009 -1.2013 -0.5500
24847SOL    HW279480  10.004   0.895  11.548 -0.2573 -0.1776 -0.4200
24848SOL     OW79481   3.159   9.968   9.498  0.3174  0.4801 -0.4659
24848SOL    HW179482   3.224  10.003   9.438  2.5697  0.1127  1.6094
24848SOL    HW279483   3.174   9.873   9.498  0.0538  0.4254  0.3080
24849SOL     OW79484   3.992   4.879   5.449 -0.1528 -0.4137 -0.4732
24849SOL    HW179485   3.970   4.969   5.425 -2.4433 -0.8881 -0.3759
24849SOL    HW279486   3.969   4.871   5.541 -1.6784 -1.5561 -0.9156
24850SOL     OW79487  10.911   5.792   0.084  0.1594  0.2849 -0.0353
24850SOL    HW179488  11.006   5.784   0.082  0.2659  1.2875 -1.9240
24850SOL    HW279489  10.895   5.887   0.081 -0.8821  0.1141 -0.3358
24851SOL     OW79490   0.217   5.934   6.545 -0.4007 -0.0976 -0.0875
24851SOL    HW179491   0.267   5.865   6.501 -0.9427 -0.2259 -0.5235
24851SOL    HW279492   0.200   5.900   6.632 -0.8281 -0.5975 -0.3631
24852SOL     OW79493   3.374   8.217  10.455  0.3047  1.1023  0.1979
24852SOL    HW179494   3.326   8.227  10.373  0.7152  0.9410 -0.0633
24852SOL    HW279495   3.334   8.281  10.514 -1.0612  0.1211  0.3731
24853SOL     OW79496   4.209   2.147   2.862 -0.0122  0.0076 -0.7336
24853SOL    HW179497   4.241   2.057   2.857 -1.5691 -0.5811 -0.7786
24853SOL    HW279498   4.287   2.201   2.850  1.0289 -1.3210 -0.2269
24854SOL     OW79499   2.521   6.429   5.120 -0.5961 -0.2860 -0.2713
24854SOL    HW179500   2.612   6.454   5.136  0.0377 -2.2862 -0.4238
24854SOL    HW279501   2.512   6.432   5.024  0.2357 -2.7760 -0.5065
24855SOL     OW79502   4.568   5.369   7.552  0.6564 -0.5806 -0.6112
24855SOL    HW179503   4.619   5.430   7.606  0.1762 -0.9337  0.2753
24855SOL    HW279504   4.572   5.405   7.464 -0.6313  1.4425  0.0751
24856SOL     OW79505   5.129   7.769   1.116  0.7018 -0.2164  0.1897
24856SOL    HW179506   5.133   7.707   1.043  2.1460  1.6631 -1.4306
24856SOL    HW279507   5.200   7.741   1.175  1.6427  0.1050 -0.7563
24857SOL     OW79508   4.940   0.890   0.484  0.0932 -0.1487 -0.4044
24857SOL    HW179509   4.864   0.917   0.536  0.3429  1.4786 -0.8442
24857SOL    HW279510   4.989   0.831   0.541 -0.2801  0.6318  0.7474
24858SOL     OW79511   2.641   1.101  11.131 -0.0055 -0.3156  0.2873
24858SOL    HW179512   2.576   1.141  11.075  0.7645  3.2957  1.6697
24858SOL    HW279513   2.719   1.156  11.119  1.2315 -1.5435  2.2348
24859SOL     OW79514  11.063  11.518  11.587  0.0723  0.3031  0.0803
24859SOL    HW179515  11.040  11.426  11.600  2.7708 -0.5247 -0.4082
24859SOL    HW279516  10.979  11.561  11.570 -1.3585 -1.9091  0.9780
24860SOL     OW79517   6.843   8.927   8.177 -0.2631  0.2742  0.1150
24860SOL    HW179518   6.933   8.918   8.145  0.3959 -0.6892  2.0591
24860SOL    HW279519   6.820   8.840   8.209 -1.7291  0.6279  0.1161
24861SOL     OW79520   3.774   9.895   7.882  0.6098  0.0032  0.0185
24861SOL    HW179521   3.842   9.932   7.826  1.6831  0.1660  1.3866
24861SOL    HW279522   3.763   9.959   7.952  0.3719 -0.8789  0.8154
24862SOL     OW79523   7.700   4.119   9.010 -0.0315  0.5668  0.3165
24862SOL    HW179524   7.622   4.154   8.967 -1.0605 -0.4911  1.2439
24862SOL    HW279525   7.729   4.047   8.954  0.8661  1.5549 -0.5209
24863SOL     OW79526  11.409   2.676   0.774 -0.3202 -0.6283 -0.2580
24863SOL    HW179527  11.353   2.601   0.797 -0.9425 -0.1315 -0.1251
24863SOL    HW279528  11.431   2.716   0.859  0.6694 -1.1142 -0.2689
24864SOL     OW79529   8.462   6.520   8.940  0.4593 -0.2446  0.5894
24864SOL    HW179530   8.518   6.568   9.001 -0.4200  0.4926  0.8497
24864SOL    HW279531   8.388   6.492   8.994 -1.5860  2.5499 -0.5567
24865SOL     OW79532  11.100  10.394   2.984 -0.2451  0.5170 -0.4381
24865SOL    HW179533  11.080  10.345   2.905 -0.2737 -0.9244  0.4171
24865SOL    HW279534  11.131  10.328   3.046  1.3597  1.8359  0.2310
24866SOL     OW79535   8.913   6.907  11.152  0.3086 -0.3649  0.5019
24866SOL    HW179536   8.992   6.960  11.141 -0.3548  0.5164 -0.1851
24866SOL    HW279537   8.941   6.834  11.207  1.5103  0.1213  0.5768
24867SOL     OW79538   8.045   1.625   2.295 -0.1395  0.0245  0.1315
24867SOL    HW179539   8.088   1.607   2.211 -0.2611  1.0058 -0.1561
24867SOL    HW279540   8.117   1.646   2.354 -0.0439 -0.7777  0.3130
24868SOL     OW79541  10.626   3.329   7.115  0.0951  0.2078  0.2015
24868SOL    HW179542  10.673   3.256   7.074 -1.8272 -0.2788 -1.3066
24868SOL    HW279543  10.556   3.351   7.053 -0.0090  2.7001  1.0797
24869SOL     OW79544   6.880   3.787   7.699 -0.0262  0.0578  0.0542
24869SOL    HW179545   6.972   3.812   7.698  0.9481 -3.0456  0.4654
24869SOL    HW279546   6.839   3.844   7.634  1.6957  2.8806  1.2600
24870SOL     OW79547   6.209   3.240   7.551  0.1806  0.2583  0.1087
24870SOL    HW179548   6.296   3.225   7.513 -0.0129 -1.9254  0.3847
24870SOL    HW279549   6.195   3.165   7.609 -1.5632  0.9965  0.7077
24871SOL     OW79550   8.181  11.013   7.425 -0.3262  0.1535 -0.2522
24871SOL    HW179551   8.218  10.959   7.495 -1.3683  0.0878  0.2691
24871SOL    HW279552   8.223  10.980   7.345  0.5693 -0.0525  0.2838
24872SOL     OW79553   7.402   2.694   2.823 -0.3232  0.2213 -0.0972
24872SOL    HW179554   7.352   2.752   2.765 -0.8319 -1.4547 -1.4018
24872SOL    HW279555   7.346   2.617   2.834  0.3550 -0.0698  1.5646
24873SOL     OW79556   5.956   6.017   1.464  0.3583 -0.0116 -0.3640
24873SOL    HW179557   5.948   5.974   1.379  1.0262  0.3102 -0.5918
24873SOL    HW279558   5.922   5.952   1.526  0.1034 -0.3462 -0.8455
24874SOL     OW79559   5.576   1.238   7.241  0.0930 -0.4044  0.6080
24874SOL    HW179560   5.641   1.212   7.305  0.4361  2.9356  1.7880
24874SOL    HW279561   5.523   1.304   7.285 -0.2930  1.3319 -2.1832
24875SOL     OW79562   5.584   2.035   4.380  0.8588  0.2726  0.4652
24875SOL    HW179563   5.610   2.022   4.289  1.8536  0.1435  0.7652
24875SOL    HW279564   5.618   1.959   4.426  1.5629  1.0149  1.1946
24876SOL     OW79565  11.496   6.674   4.100  0.2343 -0.6273 -0.3686
24876SOL    HW179566  11.544   6.735   4.044  0.2195 -0.1374  0.1411
24876SOL    HW279567  11.531   6.588   4.077  0.8661 -0.3443 -0.4949
24877SOL     OW79568   1.032   9.654   5.878  0.2360 -0.1871  0.2272
24877SOL    HW179569   1.091   9.699   5.818  1.3460 -0.7448  0.8813
24877SOL    HW279570   1.053   9.690   5.964 -1.0595  0.3083  0.3577
24878SOL     OW79571   7.238  11.268   5.690  0.0797 -0.2861  0.4410
24878SOL    HW179572   7.205  11.333   5.752 -0.7936 -0.5291  0.2411
24878SOL    HW279573   7.259  11.192   5.744 -0.6685 -0.4927  0.4500
24879SOL     OW79574   5.217  10.530   1.697  0.5458  0.3658  0.1598
24879SOL    HW179575   5.290  10.471   1.679 -0.7242 -0.8386 -1.2278
24879SOL    HW279576   5.174  10.493   1.774  1.0295  0.7688  0.6392
24880SOL     OW79577   7.290   5.438   1.954 -0.4447 -0.5183 -0.4044
24880SOL    HW179578   7.274   5.525   1.918  0.3789  0.0434  0.5302
24880SOL    HW279579   7.212   5.420   2.008 -0.2919 -0.0471 -0.0220
24881SOL     OW79580   2.194   7.744  10.546  0.6904  0.0053 -0.1537
24881SOL    HW179581   2.147   7.797  10.483  1.8470 -0.1015 -1.1364
24881SOL    HW279582   2.279   7.786  10.555  1.6589 -1.6513 -0.9955
24882SOL     OW79583   9.944  11.337   0.062  0.4679  0.4578 -0.1056
24882SOL    HW179584   9.937  11.322  -0.032 -0.3637  0.2789 -0.0190
24882SOL    HW279585   9.855  11.330   0.095  0.9487 -1.4808  0.9842
24883SOL     OW79586   1.633   7.767   6.212  0.0063  0.9121  0.2157
24883SOL    HW179587   1.539   7.751   6.216  0.4380 -2.1699  0.4302
24883SOL    HW279588   1.644   7.831   6.141 -2.0000 -1.9225 -2.9289
24884SOL     OW79589  11.169   3.057   1.091  0.1029 -0.1934  0.5746
24884SOL    HW179590  11.213   3.005   1.158 -0.3714 -0.4748  0.6654
24884SOL    HW279591  11.192   3.148   1.112  1.5488 -0.3932 -0.0171
24885SOL     OW79592   7.878   4.794   0.282 -0.1697 -0.4310 -0.9548
24885SOL    HW179593   7.822   4.733   0.234 -0.0169 -1.5483  0.2300
24885SOL    HW279594   7.964   4.751   0.284  0.0046 -0.0580 -0.3170
24886SOL     OW79595   1.033   2.104   1.473 -0.5715 -0.2999 -0.5577
24886SOL    HW179596   1.039   2.010   1.488 -3.4040 -0.7713 -1.6847
24886SOL    HW279597   1.040   2.143   1.560  2.5247 -1.3156 -0.2428
24887SOL     OW79598   6.798   0.963  10.978  0.2802  1.1990  0.0715
24887SOL    HW179599   6.760   1.050  10.980  0.5107  1.2960  1.3093
24887SOL    HW279600   6.867   0.965  11.045  0.7825  0.2915 -0.3933
24888SOL     OW79601   6.733   4.434  10.954 -0.2508 -0.1531  0.2304
24888SOL    HW179602   6.823   4.453  10.978 -0.5147  0.0890  1.0480
24888SOL    HW279603   6.737   4.411  10.861  0.5758  0.3464  0.1404
24889SOL     OW79604   1.969  11.461   9.551  0.2156 -0.1623 -0.5500
24889SOL    HW179605   1.980  11.549   9.586 -1.1620  0.8629 -2.5081
24889SOL    HW279606   2.052  11.416   9.572  0.9329  1.5505  0.5101
24890SOL     OW79607   3.695   4.254   0.501 -0.0695 -0.5712  0.0410
24890SOL    HW179608   3.633   4.181   0.493 -1.0491  0.0294  1.6466
24890SOL    HW279609   3.652   4.327   0.457  0.2708 -0.5907 -0.3270
24891SOL     OW79610   6.576   7.341   3.079 -0.3081  0.6853  0.6983
24891SOL    HW179611   6.634   7.265   3.088 -0.5166  0.5677  1.0534
24891SOL    HW279612   6.572   7.357   2.985 -0.9611 -0.2842  0.5543
24892SOL     OW79613   0.731   7.846   3.309  0.1138  0.4002  0.0449
24892SOL    HW179614   0.714   7.849   3.214 -0.3046 -1.3968  0.0437
24892SOL    HW279615   0.767   7.933   3.328 -0.9138  1.2338 -1.5376
24893SOL     OW79616   1.610   5.301   0.138  0.4649  0.1889 -0.1420
24893SOL    HW179617   1.588   5.346   0.056  0.2461 -1.0093 -0.7521
24893SOL    HW279618   1.570   5.215   0.130  0.9698 -0.1657  0.9720
24894SOL     OW79619   8.977   4.042   5.915 -0.1227  0.1264 -0.1839
24894SOL    HW179620   8.943   3.956   5.937 -0.3038  0.4172  0.7378
24894SOL    HW279621   8.975   4.046   5.820  0.5562 -1.1518 -0.2672
24895SOL     OW79622  10.578   6.069   3.147  0.0579  0.2940  0.2258
24895SOL    HW179623  10.538   6.146   3.108 -1.6836 -0.8197 -0.3116
24895SOL    HW279624  10.537   5.995   3.102  0.5296 -0.9817  1.7761
24896SOL     OW79625   8.056   6.645   0.259 -0.4057  0.2010 -0.1646
24896SOL    HW179626   8.106   6.568   0.232  1.3657  1.9168 -2.1772
24896SOL    HW279627   7.976   6.641   0.208 -0.1911 -0.1503 -0.4756
24897SOL     OW79628   0.405   4.805   4.833 -0.2382 -0.3779 -0.4042
24897SOL    HW179629   0.372   4.883   4.879 -2.3639 -0.0757 -2.2678
24897SOL    HW279630   0.499   4.804   4.853 -0.4727  1.6156  1.1595
24898SOL     OW79631   6.255  10.178   4.717 -0.0151  0.1260  0.0011
24898SOL    HW179632   6.221  10.168   4.806  0.5045 -2.2051  0.0134
24898SOL    HW279633   6.189  10.136   4.662  0.1374  0.6867 -0.6189
24899SOL     OW79634  10.811   1.586   3.240  0.3655 -0.2559  0.2385
24899SOL    HW179635  10.859   1.666   3.216 -2.2714  1.3795  0.0520
24899SOL    HW279636  10.795   1.595   3.334 -0.6654 -0.1222  0.0616
24900SOL     OW79637   8.514   2.531   4.947  0.0796  0.3938 -0.4151
24900SOL    HW179638   8.501   2.561   5.037  1.4421 -0.0673 -0.0428
24900SOL    HW279639   8.574   2.458   4.954 -0.5273 -0.2595 -1.6360
24901SOL     OW79640   9.955   0.917   8.574  0.7975  0.2888 -0.7913
24901SOL    HW179641   9.890   0.890   8.639  0.7427 -2.1656 -1.7381
24901SOL    HW279642   9.904   0.964   8.508  0.6765  1.8271  0.3631
24902SOL     OW79643   9.402   0.823   0.224 -0.1902 -0.0238  0.0690
24902SOL    HW179644   9.368   0.737   0.248  2.2818 -0.4546  2.5456
24902SOL    HW279645   9.357   0.845   0.142 -1.8703 -3.0409  0.0470
24903SOL     OW79646   1.041   4.804   2.870 -0.5330  0.4437  0.6178
24903SOL    HW179647   1.123   4.849   2.889 -0.6249  0.5719  0.7123
24903SOL    HW279648   1.008   4.847   2.791  0.8186 -1.3653 -1.0214
24904SOL     OW79649   9.841   0.115  11.449 -0.4840  0.0277 -0.0104
24904SOL    HW179650   9.909   0.050  11.465 -0.0849  0.2912 -0.5861
24904SOL    HW279651   9.887   0.189  11.410 -1.4020 -0.7767 -2.8830
24905SOL     OW79652   0.810   5.535   4.140 -0.3448 -0.8064 -0.6395
24905SOL    HW179653   0.834   5.627   4.139  0.4862 -1.0065  0.1181
24905SOL    HW279654   0.892   5.488   4.128 -0.1814 -1.5170  2.5207
24906SOL     OW79655   0.082   5.984  11.602 -0.3016 -0.3334  0.7212
24906SOL    HW179656   0.010   5.977  11.665 -0.4049  2.0158  0.9256
24906SOL    HW279657   0.154   6.023  11.651 -0.3224  1.3781 -0.5202
24907SOL     OW79658   4.700  11.405   8.899 -0.9380 -0.1960  0.2160
24907SOL    HW179659   4.768  11.467   8.927 -1.5370  0.0932  1.0599
24907SOL    HW279660   4.670  11.439   8.814 -0.1388 -0.2496 -0.0995
24908SOL     OW79661   5.496   5.488   3.429  0.1987  0.0658  0.0139
24908SOL    HW179662   5.439   5.448   3.495  0.8969 -0.7704  0.1383
24908SOL    HW279663   5.563   5.421   3.413 -0.9125 -0.5045 -2.8352
24909SOL     OW79664   1.531   7.647   1.825  0.1907 -0.3835 -0.9666
24909SOL    HW179665   1.581   7.729   1.816  3.9621 -2.4787 -1.0034
24909SOL    HW279666   1.485   7.640   1.741  1.4264  0.7531 -1.8129
24910SOL     OW79667   3.637   4.081  10.669 -0.1571  0.0795  0.2418
24910SOL    HW179668   3.583   4.010  10.704  0.9260 -0.6057  0.5454
24910SOL    HW279669   3.721   4.040  10.648 -0.0967  0.8918 -1.2853
24911SOL     OW79670   6.656   1.923   6.592 -0.1006  0.3836 -0.0105
24911SOL    HW179671   6.671   2.000   6.647 -2.0138  0.5996  0.2736
24911SOL    HW279672   6.566   1.933   6.561 -1.0927 -2.6371  1.5065
24912SOL     OW79673   9.947   4.689   3.385 -0.0337 -0.2524 -0.1176
24912SOL    HW179674  10.015   4.643   3.336  0.0462 -1.3729  0.9897
24912SOL    HW279675   9.866   4.672   3.337  0.1572 -0.6738 -0.2911
24913SOL     OW79676   0.530   3.320   1.117  0.1287 -0.1471 -0.1330
24913SOL    HW179677   0.474   3.301   1.192  0.2581  0.2304  0.0589
24913SOL    HW279678   0.471   3.359   1.052  0.1093 -0.0413 -0.0514
24914SOL     OW79679   5.129  10.473   3.266 -0.1553 -0.3395  0.1058
24914SOL    HW179680   5.204  10.450   3.211  2.0395  1.4716  2.1457
24914SOL    HW279681   5.145  10.429   3.349 -1.0988  0.4746  0.7404
24915SOL     OW79682   3.032   7.531   2.155  0.8827 -0.6774  0.2481
24915SOL    HW179683   3.073   7.450   2.126 -0.2746 -1.4453  0.7180
24915SOL    HW279684   3.093   7.600   2.126  1.8480 -1.6884 -0.2021
24916SOL     OW79685   5.155   5.167   4.940  0.0442 -0.2817  0.1735
24916SOL    HW179686   5.246   5.169   4.969  0.0796 -0.0134  0.0504
24916SOL    HW279687   5.128   5.259   4.938 -1.2377 -0.4742  3.2669
24917SOL     OW79688   9.587   6.870   3.211  0.3353 -0.1918 -0.0960
24917SOL    HW179689   9.538   6.872   3.129 -0.5884  1.0798  0.4281
24917SOL    HW279690   9.609   6.962   3.228 -2.3221  0.1157  2.6289
24918SOL     OW79691  10.521   3.100   5.762  0.3638  0.2703  0.1116
24918SOL    HW179692  10.460   3.028   5.751  0.3139  0.3932 -0.4251
24918SOL    HW279693  10.570   3.104   5.680  0.2638  0.9394  0.0749
24919SOL     OW79694  11.426   4.651   1.150  0.0208 -0.2243  0.3436
24919SOL    HW179695  11.413   4.572   1.097  0.9917 -0.7036  0.7884
24919SOL    HW279696  11.491   4.702   1.103 -0.4515  0.2276  0.1639
24920SOL     OW79697  11.211   7.295  10.453 -0.4808 -0.0338 -0.7591
24920SOL    HW179698  11.303   7.320  10.465  0.0679 -2.5447  1.2765
24920SOL    HW279699  11.183   7.265  10.540 -3.7083  1.8784 -0.9645
24921SOL     OW79700   9.828   2.244   8.769 -0.3599  0.2554  0.5347
24921SOL    HW179701   9.791   2.285   8.847  0.8710 -1.0974  1.9124
24921SOL    HW279702   9.764   2.260   8.700 -1.3969  1.6669  1.7665
24922SOL     OW79703   4.367   6.313   8.320 -0.0468  0.0029 -0.2864
24922SOL    HW179704   4.350   6.250   8.250  2.6593  0.6498 -1.6600
24922SOL    HW279705   4.347   6.398   8.280 -1.4502  0.2226  0.8036
24923SOL     OW79706   9.201   2.783  11.265  0.0570  0.3072  0.0759
24923SOL    HW179707   9.121   2.759  11.312 -0.5804 -2.7481 -2.2250
24923SOL    HW279708   9.269   2.782  11.331 -1.3958  0.2930  1.6416
24924SOL     OW79709   9.779   1.065   2.023  0.1671 -0.5882 -0.1427
24924SOL    HW179710   9.745   0.983   2.059  1.6751 -1.1875  0.0304
24924SOL    HW279711   9.703   1.121   2.012 -0.8916 -1.9796 -0.1575
24925SOL     OW79712   1.382   3.466   5.068  0.4402 -0.1285 -0.1393
24925SOL    HW179713   1.416   3.526   5.134 -0.9313  0.4022  0.1089
24925SOL    HW279714   1.382   3.517   4.987 -1.4198  0.4904  0.2159
24926SOL     OW79715   1.822  10.685   0.142  0.0577  0.0486  0.3166
24926SOL    HW179716   1.831  10.780   0.152  0.8709 -0.0574  0.6125
24926SOL    HW279717   1.870  10.648   0.216  0.9919 -0.6261 -0.6046
24927SOL     OW79718   2.008   9.695   1.716 -0.2090  0.1790 -0.5693
24927SOL    HW179719   1.960   9.773   1.686 -0.9376 -0.5538 -1.3398
24927SOL    HW279720   2.090   9.730   1.750 -0.3113  1.2386 -1.3611
24928SOL     OW79721   4.506   0.234   4.295  0.2222 -0.3170 -0.2179
24928SOL    HW179722   4.585   0.186   4.319 -0.4039 -0.3357  2.0945
24928SOL    HW279723   4.536   0.321   4.271  1.0366 -0.7046 -0.6302
24929SOL     OW79724  10.129   5.760   5.189 -0.2500 -0.1249  0.0784
24929SOL    HW179725  10.189   5.687   5.203 -2.4283 -1.9989  0.4360
24929SOL    HW279726  10.136   5.779   5.095 -0.4998 -1.7051 -0.3068
24930SOL     OW79727   7.640  11.402   7.886 -0.2227 -0.1651 -0.3754
24930SOL    HW179728   7.575  11.438   7.947 -0.3590 -0.7679 -0.1612
24930SOL    HW279729   7.650  11.311   7.913 -1.2281 -0.8026 -2.0609
24931SOL     OW79730   8.528  10.582   4.155  0.1212 -0.3444  0.0772
24931SOL    HW179731   8.443  10.575   4.199 -0.3726  0.5710 -0.6896
24931SOL    HW279732   8.585  10.522   4.203 -1.2514 -1.8799 -0.1092
24932SOL     OW79733   3.202   3.805   3.931  0.4827  0.0808  0.0052
24932SOL    HW179734   3.218   3.892   3.895 -1.1560 -0.5828 -2.4999
24932SOL    HW279735   3.238   3.744   3.866 -0.8535 -1.1506  0.3614
24933SOL     OW79736   0.196   8.407   2.507 -0.2241 -0.1308  0.2931
24933SOL    HW179737   0.177   8.413   2.413 -0.2758 -0.7185  0.2646
24933SOL    HW279738   0.243   8.488   2.526 -0.7278  0.2708 -0.1167
24934SOL     OW79739   2.552  11.418   3.613 -0.6180  0.2042  0.5862
24934SOL    HW179740   2.529  11.327   3.595  0.3894  0.2311 -1.0419
24934SOL    HW279741   2.645  11.424   3.593 -0.6290  1.5764  0.8003
24935SOL     OW79742   3.849   6.254   8.162  1.0396  0.4170 -0.2824
24935SOL    HW179743   3.921   6.312   8.136 -1.0610  2.6937 -1.3785
24935SOL    HW279744   3.782   6.312   8.197  0.2610 -1.7810  2.2568
24936SOL     OW79745   2.503   9.144   5.582 -0.3416 -0.5316 -0.3630
24936SOL    HW179746   2.547   9.121   5.500 -0.3359  0.0469 -0.5300
24936SOL    HW279747   2.462   9.063   5.612  2.1425 -1.5145  0.6231
24937SOL     OW79748  10.323   9.526  11.115 -0.7121  0.0583  0.1330
24937SOL    HW179749  10.251   9.469  11.139 -0.8514 -0.0270 -0.4801
24937SOL    HW279750  10.380   9.527  11.193 -1.9263  1.0263  1.0412
24938SOL     OW79751   7.698   4.052   4.685 -0.1186  0.3445 -0.0881
24938SOL    HW179752   7.610   4.029   4.657 -0.6930  2.1513  0.0832
24938SOL    HW279753   7.707   4.014   4.773  0.0315 -1.4966 -0.8564
24939SOL     OW79754   6.822   2.968  10.011 -0.0136  0.4219  0.2849
24939SOL    HW179755   6.846   3.059   9.993  1.0229  0.2811  0.8998
24939SOL    HW279756   6.727   2.967  10.003 -0.3165  2.1194  2.5578
24940SOL     OW79757   0.748   7.088   2.923  0.4149 -0.4668  0.4728
24940SOL    HW179758   0.758   6.996   2.944 -1.5861 -0.5549  1.2560
24940SOL    HW279759   0.667   7.114   2.966  0.4900  1.4561 -0.4242
24941SOL     OW79760   0.678   7.111   4.678  0.0411 -0.2498  0.5098
24941SOL    HW179761   0.734   7.036   4.661 -0.2459 -1.3333  3.5937
24941SOL    HW279762   0.595   7.090   4.635  1.2387  0.3964 -2.2934
24942SOL     OW79763   9.593   2.897   5.616 -0.3672 -0.2766  0.6383
24942SOL    HW179764   9.535   2.919   5.544  0.7987  1.9800  0.3072
24942SOL    HW279765   9.677   2.877   5.574  0.1996  0.6181  1.3177
24943SOL     OW79766   3.481   5.791   2.117 -0.3495 -0.2116  0.2932
24943SOL    HW179767   3.453   5.702   2.094  0.5352 -0.3085 -0.5054
24943SOL    HW279768   3.446   5.846   2.048 -0.1401 -0.0750  0.2944
24944SOL     OW79769   2.282   4.424   3.533 -0.3286  0.1723  0.1134
24944SOL    HW179770   2.337   4.349   3.510  1.5533  1.6454 -0.4335
24944SOL    HW279771   2.255   4.462   3.450  1.7537  2.1696  0.2660
24945SOL     OW79772   7.708  10.009   7.615  0.1528 -0.2334 -0.6435
24945SOL    HW179773   7.788  10.054   7.642 -0.6242  1.5857 -1.2003
24945SOL    HW279774   7.721   9.991   7.522 -0.6738  1.5907 -1.1759
24946SOL     OW79775   0.407   3.914   5.557 -0.1870  0.0972  0.5578
24946SOL    HW179776   0.365   3.966   5.625  0.4911 -0.7708  1.6699
24946SOL    HW279777   0.443   3.979   5.496 -0.4061  0.9011  1.2613
24947SOL     OW79778   1.162   9.512   4.260 -0.2356 -0.4159  0.5051
24947SOL    HW179779   1.207   9.430   4.240 -0.4507 -0.5035  0.3824
24947SOL    HW279780   1.232   9.578   4.258 -0.4470 -0.1732 -2.0740
24948SOL     OW79781   4.115   6.527  10.941  0.0376  0.1586  0.4409
24948SOL    HW179782   4.102   6.434  10.922 -0.1611  0.3127 -0.1889
24948SOL    HW279783   4.053   6.545  11.012 -1.4069  0.2859 -0.8110
24949SOL     OW79784   1.925   6.815  11.467 -0.1995  0.4382 -0.3143
24949SOL    HW179785   1.893   6.894  11.512 -3.7209 -0.7144 -0.4208
24949SOL    HW279786   1.873   6.811  11.387  1.4520 -0.9063 -1.3714
24950SOL     OW79787   9.015  11.255  11.094  0.5274  0.7759 -0.3526
24950SOL    HW179788   8.993  11.169  11.130  1.5118 -0.2015 -1.9494
24950SOL    HW279789   8.931  11.298  11.081 -0.0207 -0.1896 -0.0894
24951SOL     OW79790   4.097   1.440   3.369  0.3029  0.6500  0.0661
24951SOL    HW179791   4.149   1.376   3.418 -0.1172  0.0664 -0.2315
24951SOL    HW279792   4.147   1.456   3.290 -0.1638 -0.2440 -0.4241
24952SOL     OW79793   6.583   7.943   9.858 -0.1635  0.0696 -0.3439
24952SOL    HW179794   6.552   7.880   9.793 -1.3456 -1.0820  1.2348
24952SOL    HW279795   6.513   8.006   9.866 -1.3560 -1.4023  1.7820
24953SOL     OW79796   6.598  11.601   4.924 -0.2220 -0.7329 -0.4981
24953SOL    HW179797   6.580  11.591   4.831  2.1768  1.6327 -1.3572
24953SOL    HW279798   6.570  11.518   4.963 -0.4194 -2.1957 -3.4600
24954SOL     OW79799   5.143  11.640  10.696 -0.2034 -0.2962  0.0155
24954SOL    HW179800   5.048  11.653  10.693 -0.3074 -1.1246 -1.4475
24954SOL    HW279801   5.155  11.548  10.675  0.9698  0.0245 -0.8110
24955SOL     OW79802  11.260   5.442   7.291 -0.5053  0.3231  0.4242
24955SOL    HW179803  11.185   5.458   7.234 -0.7173  0.2336  0.6776
24955SOL    HW279804  11.310   5.373   7.247 -0.6607  0.2630  0.3421
24956SOL     OW79805   2.307   7.824   7.949  0.1810 -0.7648 -0.2603
24956SOL    HW179806   2.234   7.845   7.891  0.5104 -0.2391 -0.4945
24956SOL    HW279807   2.361   7.903   7.950  0.0145 -0.6469  1.0331
24957SOL     OW79808   8.035  10.759   2.690 -0.0869  0.3949 -0.1102
24957SOL    HW179809   8.005  10.840   2.731  1.7053  0.2864  1.5352
24957SOL    HW279810   7.960  10.700   2.696 -0.5956  1.1192  0.9954
24958SOL     OW79811   5.528   7.401   0.256  0.0109 -0.1095  0.2369
24958SOL    HW179812   5.553   7.316   0.219  0.7286 -0.7919  2.1797
24958SOL    HW279813   5.611   7.439   0.287 -0.5281  0.4994  0.9776
24959SOL     OW79814   8.851  11.112   1.996  0.4457  0.2300  0.3096
24959SOL    HW179815   8.860  11.041   2.060  2.4195 -0.5810 -0.7958
24959SOL    HW279816   8.842  11.067   1.912 -0.8506  1.2942 -0.1500
24960SOL     OW79817   6.709  11.102   2.631 -0.3728 -0.3881 -0.3255
24960SOL    HW179818   6.746  11.160   2.564 -0.1845 -1.1907 -0.9302
24960SOL    HW279819   6.639  11.153   2.671  1.3093  1.1690  0.8198
24961SOL     OW79820   5.504   4.412  10.933  0.0188  0.3446 -0.5538
24961SOL    HW179821   5.423   4.463  10.937 -0.6499 -0.6038 -1.6006
24961SOL    HW279822   5.527   4.397  11.025 -0.6892  1.0691 -0.2455
24962SOL     OW79823   0.430   9.620   4.814 -0.1715  0.2443  0.1621
24962SOL    HW179824   0.386   9.635   4.730 -0.0088 -0.3321 -0.0270
24962SOL    HW279825   0.399   9.535   4.843  1.3263 -0.5023 -0.3179
24963SOL     OW79826   7.164   7.126   0.392  0.0225 -0.0821  0.3440
24963SOL    HW179827   7.128   7.054   0.340  0.7256 -1.7410  2.0437
24963SOL    HW279828   7.257   7.107   0.398  0.0666  0.4768  1.6057
24964SOL     OW79829   8.255   7.205   1.621 -0.4495 -0.3694 -0.1256
24964SOL    HW179830   8.259   7.223   1.715 -1.7175  1.2798 -0.3220
24964SOL    HW279831   8.292   7.283   1.580 -2.1546  0.0388 -1.0008
24965SOL     OW79832  10.629   5.998  10.699 -0.1725 -0.7746 -0.3003
24965SOL    HW179833  10.622   6.059  10.772 -0.0975 -2.1858  0.9266
24965SOL    HW279834  10.645   6.053  10.623  0.7954  0.6553  0.9019
24966SOL     OW79835   5.442   7.735   8.218 -0.6654 -0.5024  0.6073
24966SOL    HW179836   5.442   7.660   8.159 -1.2888 -0.9696  1.1887
24966SOL    HW279837   5.520   7.724   8.272 -0.3141 -0.2893  0.1503
24967SOL     OW79838   1.090   5.112   6.248 -0.0706  0.4310  1.0175
24967SOL    HW179839   1.004   5.121   6.208  1.0527 -0.7743 -2.0382
24967SOL    HW279840   1.088   5.027   6.291 -0.5125  0.5550  1.2391
24968SOL     OW79841   2.989   8.150   3.257  0.4680  0.4621  0.3490
24968SOL    HW179842   2.991   8.120   3.348 -0.3111  0.5484  0.4064
24968SOL    HW279843   3.069   8.114   3.218  1.0578  0.8346  1.1883
24969SOL     OW79844   2.935   9.669  10.003  0.5411  0.3543 -0.1158
24969SOL    HW179845   2.852   9.662   9.957  0.7839  0.1988 -0.5346
24969SOL    HW279846   2.984   9.735   9.953  1.0286 -0.2366 -0.4292
24970SOL     OW79847  10.004   9.102   5.277 -0.3672 -0.0843 -0.7556
24970SOL    HW179848   9.924   9.052   5.263 -1.2737  1.5924 -1.9832
24970SOL    HW279849  10.064   9.071   5.210 -1.3151  1.1472 -2.2538
24971SOL     OW79850  10.405  10.387   9.727 -0.4152  0.1483 -0.0314
24971SOL    HW179851  10.340  10.452   9.700 -0.1949  0.9881  1.4017
24971SOL    HW279852  10.489  10.423   9.696 -0.4254 -0.0820 -0.3359
24972SOL     OW79853   2.566   0.735   7.520 -0.2304  0.5236  0.3588
24972SOL    HW179854   2.601   0.647   7.528 -0.8324  0.0451 -1.7015
24972SOL    HW279855   2.472   0.723   7.507 -0.0342  1.2368 -2.4042
24973SOL     OW79856   2.976   9.768   4.556  0.1124  0.4424  0.1650
24973SOL    HW179857   2.977   9.724   4.471 -1.3479 -0.1261  0.4093
24973SOL    HW279858   3.043   9.836   4.549  3.4823 -2.5824  0.2390
24974SOL     OW79859   4.586  11.512   0.396  0.1447  0.2844 -0.5971
24974SOL    HW179860   4.512  11.557   0.357  0.9468  1.2389 -1.0480
24974SOL    HW279861   4.594  11.549   0.484  0.7900  1.0320 -0.9598
24975SOL     OW79862   8.008   1.690   6.679 -0.2802  0.1293  0.5130
24975SOL    HW179863   7.976   1.688   6.769  1.5631  0.0193  1.1902
24975SOL    HW279864   8.103   1.682   6.686  0.0580  1.6393 -1.3505
24976SOL     OW79865   4.797   6.222   6.409  0.0453 -0.3151 -0.2947
24976SOL    HW179866   4.852   6.143   6.408 -0.4484 -0.6678 -1.6611
24976SOL    HW279867   4.726   6.200   6.469  1.9229  0.5847  2.4618
24977SOL     OW79868   7.930   9.384   6.950  0.0541  0.4795 -0.0902
24977SOL    HW179869   7.875   9.323   6.999  1.1439  1.1162  2.0241
24977SOL    HW279870   7.990   9.328   6.900 -0.8694 -0.1783 -0.4810
24978SOL     OW79871   3.204   5.775   2.300 -0.2837 -0.1456 -0.2723
24978SOL    HW179872   3.185   5.681   2.304  1.6381 -0.5180  1.6530
24978SOL    HW279873   3.151   5.813   2.370 -0.2787  0.0446 -0.3717
24979SOL     OW79874   0.285   0.068   5.721  0.0968  0.0293 -0.8811
24979SOL    HW179875   0.367   0.019   5.719 -0.5022 -0.9813 -1.4478
24979SOL    HW279876   0.250   0.053   5.809  0.5572  0.5279 -0.6121
24980SOL     OW79877   0.671   0.338   9.057  0.6240  0.3836 -0.2316
24980SOL    HW179878   0.675   0.275   8.985  1.1558  2.3180 -1.9893
24980SOL    HW279879   0.620   0.411   9.023 -0.4542  0.7212  1.9341
24981SOL     OW79880   0.991   6.664   5.445 -0.3872 -0.2442 -0.0379
24981SOL    HW179881   0.909   6.621   5.468  0.2203 -1.3075  0.2063
24981SOL    HW279882   1.019   6.706   5.526  0.0500 -1.1518  0.3007
24982SOL     OW79883  11.665   5.346   1.103  0.1455  0.5630  0.2565
24982SOL    HW179884  11.748   5.328   1.147 -0.5375  0.4632  1.5428
24982SOL    HW279885  11.674   5.436   1.072  1.0778  0.2456 -0.4395
24983SOL     OW79886   6.349   8.521   9.504 -0.4762 -0.6115 -0.0906
24983SOL    HW179887   6.332   8.512   9.410  1.5515  2.1754 -0.8854
24983SOL    HW279888   6.420   8.459   9.521 -0.3086 -0.5765 -0.6188
24984SOL     OW79889   9.887   0.477   0.622  0.3018  0.9387 -0.3494
24984SOL    HW179890   9.799   0.452   0.649  0.7362 -0.7971 -0.4272
24984SOL    HW279891   9.874   0.553   0.566 -1.3927 -0.5834 -2.1867
24985SOL     OW79892  10.366   8.217   1.461  0.8160 -0.4002 -0.9486
24985SOL    HW179893  10.271   8.228   1.471  0.9164  0.6280 -0.9356
24985SOL    HW279894  10.384   8.248   1.372  1.1444 -0.5757 -0.9437
24986SOL     OW79895   9.796   3.048   3.224  0.0273  0.6185 -0.1868
24986SOL    HW179896   9.799   3.142   3.205  0.0424  1.1556  2.2371
24986SOL    HW279897   9.704   3.024   3.213  0.0198  0.8896 -0.7942
24987SOL     OW79898   5.963   6.286   2.089 -0.1845 -0.1659 -0.0377
24987SOL    HW179899   5.926   6.227   2.023 -0.1779  0.2587 -0.4284
24987SOL    HW279900   6.054   6.299   2.060 -0.1689 -0.0156  0.0800
24988SOL     OW79901   3.012   0.978   4.429  0.0229  0.3232  0.5987
24988SOL    HW179902   3.034   0.885   4.440 -0.8973  0.1814  1.3902
24988SOL    HW279903   2.939   0.978   4.368  0.6048  0.6043 -0.1055
24989SOL     OW79904   6.822   5.384   3.660  0.1426 -0.9467 -0.5682
24989SOL    HW179905   6.823   5.304   3.712 -0.6355  0.6254  2.0516
24989SOL    HW279906   6.909   5.388   3.622  0.8516 -2.0705  0.8281
24990SOL     OW79907   5.555   7.958   2.870  0.0531  0.2166 -0.4704
24990SOL    HW179908   5.526   7.921   2.953 -1.0801  0.2275 -0.8473
24990SOL    HW279909   5.476   7.995   2.831  0.2068 -1.2384 -2.3246
24991SOL     OW79910  10.944   3.611   4.771  0.2157  0.2480 -0.1454
24991SOL    HW179911  11.001   3.668   4.822  0.8074  0.7323 -1.3045
24991SOL    HW279912  10.992   3.595   4.690 -1.9035  1.9942 -1.8803
24992SOL     OW79913   6.917   4.474   2.240  0.3801  0.1039  0.0737
24992SOL    HW179914   6.888   4.555   2.282 -1.2994 -0.0242 -0.7784
24992SOL    HW279915   6.990   4.502   2.184 -0.0091  0.9841 -0.0225
24993SOL     OW79916   4.504   3.118   4.819 -0.6703  0.1226 -0.0232
24993SOL    HW179917   4.547   3.201   4.797 -0.5977  0.1981  0.3994
24993SOL    HW279918   4.417   3.126   4.781 -0.9822  0.7689  0.7816
24994SOL     OW79919   3.115   8.249  11.450  0.0196  0.5401 -0.3696
24994SOL    HW179920   3.029   8.279  11.479  0.5883  0.4375  1.6391
24994SOL    HW279921   3.122   8.277  11.359 -0.8436  3.4228  0.3479
24995SOL     OW79922   6.552  10.684   9.834  0.8495 -0.1935 -0.3846
24995SOL    HW179923   6.539  10.716   9.745  2.8320 -1.6505 -1.2762
24995SOL    HW279924   6.644  10.656   9.836  0.9008 -0.0902  2.1752
24996SOL     OW79925   9.672   2.928   4.133 -0.1406  0.3580 -0.0515
24996SOL    HW179926   9.650   2.842   4.168 -0.0686 -0.3366 -1.6189
24996SOL    HW279927   9.763   2.942   4.160 -0.5570  0.5668  1.3360
24997SOL     OW79928   4.968   6.097   6.678 -0.5642  0.2899  0.7021
24997SOL    HW179929   4.947   6.190   6.684  0.0671  0.5077 -0.2303
24997SOL    HW279930   5.035   6.083   6.745 -0.6075  0.5195  0.7948
24998SOL     OW79931   1.315   6.612   0.573  0.2622  0.1643  0.2463
24998SOL    HW179932   1.375   6.636   0.503 -0.4015  0.3916 -0.2495
24998SOL    HW279933   1.371   6.606   0.651  0.9019  0.4980 -0.1784
24999SOL     OW79934   9.476   2.550   4.191 -0.4639  0.3010 -0.1998
24999SOL    HW179935   9.563   2.544   4.151 -0.1080  0.6163  0.5115
24999SOL    HW279936   9.493   2.568   4.283 -1.2748  2.8144 -0.4418
25000SOL     OW79937   6.479   1.964  10.651  0.2123 -0.5771  0.2431
25000SOL    HW179938   6.462   2.058  10.657  0.4940 -0.3346 -2.0785
25000SOL    HW279939   6.397   1.924  10.681 -0.5784  0.4485 -0.4526
25001SOL     OW79940   6.061   6.294   4.019 -0.6067  0.4609 -0.2217
25001SOL    HW179941   6.047   6.318   4.111  0.4234  0.0769  0.0514
25001SOL    HW279942   5.977   6.312   3.976 -1.7899 -1.3879  1.2024
25002SOL     OW79943   9.109   4.486   1.203 -0.4591  0.6932  0.2595
25002SOL    HW179944   9.155   4.530   1.275  1.1242 -1.1723  0.4651
25002SOL    HW279945   9.034   4.444   1.244  0.5954 -0.6049  0.9193
25003SOL     OW79946   4.149   4.241   9.742  0.2495  0.2495 -0.7740
25003SOL    HW179947   4.209   4.222   9.670  0.6815 -1.0313 -0.1059
25003SOL    HW279948   4.157   4.335   9.756  1.3837  0.2518 -1.3242
25004SOL     OW79949   0.768   4.697   6.779  0.6964 -0.6671 -0.4836
25004SOL    HW179950   0.747   4.619   6.830  1.0059 -0.1642  0.4273
25004SOL    HW279951   0.853   4.679   6.740 -0.4612 -1.9373 -2.6454
25005SOL     OW79952  11.477   3.246   0.000  0.2548 -0.2045 -0.6369
25005SOL    HW179953  11.548   3.298   0.037 -0.5840  0.8426 -0.4637
25005SOL    HW279954  11.471   3.169   0.057  0.2341  0.4577  0.2674
25006SOL     OW79955   0.080   9.151  11.097  0.0053  0.1648 -0.3647
25006SOL    HW179956   0.147   9.172  11.032 -0.6511  1.7536 -0.5706
25006SOL    HW279957   0.102   9.063  11.126  0.7287 -0.3214 -2.2297
25007SOL     OW79958   2.228   2.202   2.996  0.1934 -0.4782 -0.1084
25007SOL    HW179959   2.323   2.197   3.008  0.2294 -1.8862 -0.7435
25007SOL    HW279960   2.212   2.155   2.914 -0.9681  0.5316 -0.4872
25008SOL     OW79961   4.563   1.380   2.268  0.1545 -0.0564 -0.1925
25008SOL    HW179962   4.627   1.375   2.340 -2.1779 -0.9832  1.9552
25008SOL    HW279963   4.569   1.295   2.226  0.0947 -0.2728  0.2286
25009SOL     OW79964  10.902   9.475   8.483  0.0168  0.2339  0.0938
25009SOL    HW179965  10.824   9.493   8.431  0.0280 -0.4374 -0.1711
25009SOL    HW279966  10.914   9.380   8.475 -1.0332 -0.2121  2.8184
25010SOL     OW79967   9.277   9.428   3.669 -0.0205 -0.0292 -0.2388
25010SOL    HW179968   9.252   9.500   3.610  0.5780 -0.0969 -0.5850
25010SOL    HW279969   9.233   9.448   3.751  0.1733  0.7646 -0.3162
25011SOL     OW79970   0.207   1.802  11.288  0.1260  0.1978  0.6115
25011SOL    HW179971   0.227   1.775  11.378 -0.8368  1.3205  1.1879
25011SOL    HW279972   0.273   1.868  11.267 -1.3629  2.1118  1.6228
25012SOL     OW79973   6.479   0.792   1.505  0.4618  0.5360  0.1394
25012SOL    HW179974   6.449   0.702   1.511  0.4850  0.4900 -0.4521
25012SOL    HW279975   6.552   0.797   1.567  1.5315 -0.2879 -1.0357
25013SOL     OW79976   5.317   0.002   0.415  0.2457  0.8112  0.0096
25013SOL    HW179977   5.273   0.020   0.498 -1.3637  0.2587 -0.6831
25013SOL    HW279978   5.378  -0.070   0.435  0.9297  1.6452  1.0029
25014SOL     OW79979   5.587   0.829   6.645 -0.3447  0.2948 -0.1337
25014SOL    HW179980   5.539   0.776   6.581 -0.8431  0.3511  0.1861
25014SOL    HW279981   5.520   0.855   6.709  0.2341 -0.1692  0.6790
25015SOL     OW79982   5.639   9.226   3.023  0.3045  0.0859  0.5647
25015SOL    HW179983   5.625   9.320   3.022 -2.0254 -0.2181 -0.0957
25015SOL    HW279984   5.609   9.196   2.937  0.6760 -1.3143  0.8870
25016SOL     OW79985  10.952  10.509   2.570 -0.4522  0.0503 -0.2091
25016SOL    HW179986  10.928  10.497   2.662  2.5026 -0.4492  0.6257
25016SOL    HW279987  10.961  10.420   2.536  2.6413  0.0266  0.3698
25017SOL     OW79988   2.975   8.788   9.757 -0.3958 -0.8045 -0.6202
25017SOL    HW179989   2.921   8.746   9.689 -0.6496 -2.2394  0.4238
25017SOL    HW279990   2.950   8.880   9.753 -0.6624 -0.9042 -2.2341
25018SOL     OW79991   2.429   1.456   1.621  0.0457  0.1306 -0.1703
25018SOL    HW179992   2.469   1.543   1.625 -1.0731  0.7433 -1.4119
25018SOL    HW279993   2.498   1.396   1.649  0.8859  1.3930  0.5777
25019SOL     OW79994  11.539   6.159   1.027 -0.4858  0.3796 -0.0293
25019SOL    HW179995  11.607   6.093   1.014  0.4027  1.0781  0.8791
25019SOL    HW279996  11.497   6.168   0.942  0.3721 -0.2749 -0.5363
25020SOL     OW79997   5.252   3.133  10.877 -0.5094 -0.5382  0.7812
25020SOL    HW179998   5.219   3.153  10.789 -1.3104  1.0752  1.3931
25020SOL    HW279999   5.342   3.168  10.877 -0.6022 -0.2945  0.6777
25021SOL     OW80000   0.800   1.605  11.216 -0.2294  0.3266  0.2447
25021SOL    HW180001   0.740   1.547  11.170  1.8553 -2.6482  0.9897
25021SOL    HW280002   0.792   1.580  11.308  2.0978 -0.2335  0.3600
25022SOL     OW80003  10.717   5.012   3.698 -0.0034 -0.4270  0.1181
25022SOL    HW180004  10.802   4.999   3.739 -0.4536 -0.3669  1.0858
25022SOL    HW280005  10.738   5.041   3.609  1.0123  1.7479  0.9859
25023SOL     OW80006   4.709   6.250   2.404 -0.4511 -0.2103  0.5026
25023SOL    HW180007   4.638   6.212   2.353  0.0462 -1.1924  0.4999
25023SOL    HW280008   4.667   6.310   2.465 -1.0645  0.9382 -1.0063
25024SOL     OW80009   4.498   7.444   8.705 -0.1242 -0.3373 -0.3944
25024SOL    HW180010   4.581   7.408   8.738 -0.7964 -0.4179  1.3549
25024SOL    HW280011   4.431   7.401   8.758 -1.1662  1.0639 -0.5157
25025SOL     OW80012  11.049   4.291   4.838  0.0020 -0.8887 -0.2771
25025SOL    HW180013  11.131   4.328   4.871 -0.4915  1.1568 -1.1840
25025SOL    HW280014  10.985   4.312   4.906 -0.2381 -0.2551 -0.6941
25026SOL     OW80015   2.576   3.320   2.953 -0.5221 -0.2959 -0.3533
25026SOL    HW180016   2.533   3.243   2.916 -0.8888  0.1232 -0.8035
25026SOL    HW280017   2.505   3.372   2.989 -0.2137 -0.4639  0.5182
25027SOL     OW80018   6.784   2.095   0.858 -0.2985  0.7366  0.1752
25027SOL    HW180019   6.711   2.122   0.802 -0.5876  0.6669  0.5105
25027SOL    HW280020   6.751   2.018   0.904  1.3194 -1.7308 -2.4958
25028SOL     OW80021   8.825   3.439   6.814  0.3682  0.0651  0.3610
25028SOL    HW180022   8.757   3.391   6.765 -0.3304  2.1524 -0.8515
25028SOL    HW280023   8.784   3.523   6.835  2.5174  1.3492 -0.2788
25029SOL     OW80024   0.763   4.487   3.663  0.1327 -0.0994 -0.1565
25029SOL    HW180025   0.838   4.532   3.626 -0.1631  0.2953 -0.2790
25029SOL    HW280026   0.694   4.553   3.666 -0.1921 -0.4411  0.0095
25030SOL     OW80027   2.417   3.589  11.342  0.1659  0.1213  0.2192
25030SOL    HW180028   2.386   3.672  11.305  2.5723  1.0465  0.1400
25030SOL    HW280029   2.426   3.531  11.266 -0.1897  0.2088  0.1045
25031SOL     OW80030   8.801   2.398   2.695 -0.2279 -0.3730  0.3625
25031SOL    HW180031   8.837   2.313   2.669  0.3381 -0.0227  0.0041
25031SOL    HW280032   8.708   2.379   2.712  0.2748 -1.4923  2.2791
25032SOL     OW80033   9.551   1.874   3.202  0.0737  0.0815 -0.5910
25032SOL    HW180034   9.618   1.834   3.256 -0.7661 -0.3105  0.1879
25032SOL    HW280035   9.470   1.828   3.226 -0.4780  0.5617 -1.4773
25033SOL     OW80036  11.060  10.790  11.658  0.1269 -0.3503 -0.0177
25033SOL    HW180037  11.071  10.822  11.568  0.0858  0.4708  0.2585
25033SOL    HW280038  11.131  10.728  11.671  1.3697  1.0404  0.0465
25034SOL     OW80039   1.087   1.790   0.981  0.1941  0.6654 -0.8280
25034SOL    HW180040   1.133   1.869   1.010  1.2729  0.2784 -1.4484
25034SOL    HW280041   1.073   1.804   0.887  0.0751  0.2723 -0.8703
25035SOL     OW80042   6.236  11.096   3.117 -0.5305  0.2954 -0.0640
25035SOL    HW180043   6.243  11.047   3.199  1.4012 -1.3633 -1.1175
25035SOL    HW280044   6.324  11.132   3.103 -0.5131 -0.3247 -1.8789
25036SOL     OW80045   8.486  10.521   9.076  0.0568 -0.3690 -0.0468
25036SOL    HW180046   8.428  10.559   9.010 -0.6653 -1.7919 -0.2688
25036SOL    HW280047   8.514  10.596   9.129  0.6513  0.8215 -1.9357
25037SOL     OW80048   1.609   0.681   8.069  0.0376  0.7691 -0.4409
25037SOL    HW180049   1.534   0.715   8.020  0.9383 -1.0659 -3.3936
25037SOL    HW280050   1.685   0.710   8.019  0.9596 -2.5920 -1.2459
25038SOL     OW80051   8.659   4.852   3.328  0.6885 -1.0119  0.1013
25038SOL    HW180052   8.729   4.837   3.265  0.6277  1.7058 -0.7829
25038SOL    HW280053   8.688   4.810   3.408  2.4467 -1.5379 -0.7733
25039SOL     OW80054  10.642   6.151   3.586 -0.1998  0.0691 -0.1455
25039SOL    HW180055  10.620   6.163   3.678 -1.0849  1.4381 -0.5061
25039SOL    HW280056  10.725   6.197   3.574  0.4174 -0.9236  0.1450
25040SOL     OW80057  11.503   7.133   1.694  0.5794 -0.5245 -0.6779
25040SOL    HW180058  11.488   7.136   1.789  0.0537 -1.4134 -0.7258
25040SOL    HW280059  11.500   7.040   1.672 -0.5047 -0.2516 -1.7607
25041SOL     OW80060   8.778   8.432   8.585  0.4653 -0.2523  0.5870
25041SOL    HW180061   8.792   8.477   8.501  0.0869  0.0574  0.6903
25041SOL    HW280062   8.691   8.459   8.613  0.8698  0.2156  1.4380
25042SOL     OW80063   9.198   5.780   8.863 -0.1102  0.0251  0.1222
25042SOL    HW180064   9.210   5.834   8.942  0.1871  0.3098 -0.1157
25042SOL    HW280065   9.231   5.834   8.792  0.1489 -0.4543 -0.1284
25043SOL     OW80066   2.108   2.817  11.610  0.2289  0.2940  0.0607
25043SOL    HW180067   2.188   2.794  11.563  0.1086 -1.6506  0.7235
25043SOL    HW280068   2.126   2.796  11.701 -1.2504 -0.9954  0.1226
25044SOL     OW80069   2.919  10.643  11.397  0.1495 -0.2625  0.0129
25044SOL    HW180070   2.840  10.589  11.404 -0.0291  0.1035  1.1449
25044SOL    HW280071   2.968  10.625  11.477 -0.5751  2.1968  1.1281
25045SOL     OW80072  11.517   1.215   4.683 -0.0141 -0.5935  0.0702
25045SOL    HW180073  11.581   1.282   4.706 -0.6748  1.3103 -3.0473
25045SOL    HW280074  11.434   1.248   4.717 -0.0466 -0.7924  0.1856
25046SOL     OW80075   6.298   8.505  11.447  0.5245  0.3137 -0.5331
25046SOL    HW180076   6.286   8.573  11.381 -0.6809  1.6236  0.9550
25046SOL    HW280077   6.363   8.542  11.507 -0.8059  0.5955  0.7858
25047SOL     OW80078   5.098   7.322   7.622  0.4711 -0.0008 -0.3392
25047SOL    HW180079   5.085   7.279   7.538 -0.3467 -0.7078  0.1371
25047SOL    HW280080   5.115   7.251   7.684 -0.6204  0.3631  0.4053
25048SOL     OW80081   3.811   3.336   9.228  0.3704  0.3234 -0.2891
25048SOL    HW180082   3.850   3.400   9.288 -0.2473 -0.7926  1.3615
25048SOL    HW280083   3.873   3.263   9.228 -0.2262 -0.1933 -0.0251
25049SOL     OW80084   1.912   0.947   2.636  0.2671  0.0570 -0.6539
25049SOL    HW180085   1.972   1.022   2.633  0.5800 -0.2012 -0.8813
25049SOL    HW280086   1.896   0.925   2.544  2.5017 -1.9925 -0.6625
25050SOL     OW80087   7.881   8.985   7.300  0.7502 -0.8573 -1.1795
25050SOL    HW180088   7.866   8.978   7.205 -1.6929 -2.2619 -0.7795
25050SOL    HW280089   7.895   8.895   7.328  0.7539 -0.5296 -0.1067
25051SOL     OW80090   6.209   2.591   3.719 -0.4223 -0.3561  0.9777
25051SOL    HW180091   6.194   2.685   3.714 -1.6087 -0.5010  1.4388
25051SOL    HW280092   6.214   2.562   3.628  0.1989  0.1867  0.8363
25052SOL     OW80093   4.630  11.508   3.865 -0.2326  0.1048  0.3849
25052SOL    HW180094   4.689  11.463   3.804  0.4524 -0.2603  1.3091
25052SOL    HW280095   4.635  11.458   3.946 -2.7099 -0.6440  0.1749
25053SOL     OW80096   0.637  10.404  10.081 -0.7503 -0.4324  0.2050
25053SOL    HW180097   0.647  10.463  10.006  1.1870 -0.3651  0.4647
25053SOL    HW280098   0.598  10.325  10.043 -2.1414  0.4859 -0.3854
25054SOL     OW80099   8.761   6.152  10.650  0.4407  0.5340 -0.0508
25054SOL    HW180100   8.666   6.144  10.664  0.6279  0.8394  1.5508
25054SOL    HW280101   8.789   6.063  10.630  0.0318  0.1491  1.0061
25055SOL     OW80102   1.859   9.110   1.433 -0.3305  0.2770  0.7366
25055SOL    HW180103   1.780   9.132   1.481  0.1746 -1.0450  2.2590
25055SOL    HW280104   1.923   9.086   1.500  0.8618 -0.2476 -0.5207
25056SOL     OW80105   8.648   3.182   4.805 -0.5567 -0.3929  0.0829
25056SOL    HW180106   8.588   3.229   4.863  0.7900  0.6621  0.6637
25056SOL    HW280107   8.728   3.170   4.856  0.7692  0.7899 -1.5966
25057SOL     OW80108  11.460   5.327  11.276  0.3159  0.0741  0.2583
25057SOL    HW180109  11.369   5.308  11.255 -0.5406  4.2275 -0.5211
25057SOL    HW280110  11.462   5.329  11.372 -0.7967  1.2164  0.2871
25058SOL     OW80111   6.250   6.489   3.812 -0.0347 -0.5344 -0.0105
25058SOL    HW180112   6.229   6.483   3.905 -0.8149 -0.4062 -0.1699
25058SOL    HW280113   6.230   6.580   3.789  0.1553 -0.5668 -0.3079
25059SOL     OW80114   2.510   3.997  10.505 -0.1901 -0.0181  0.5420
25059SOL    HW180115   2.481   4.046  10.581 -1.8720 -0.3705  0.1615
25059SOL    HW280116   2.577   4.052  10.464 -0.1248  0.7065  1.5983
25060SOL     OW80117   1.001  10.534  11.632  0.2844  0.6757  0.3441
25060SOL    HW180118   1.029  10.625  11.639  2.6094  0.1018 -0.6182
25060SOL    HW280119   0.907  10.536  11.650  0.4266  3.1374  1.1126
25061SOL     OW80120   5.142   4.560   5.495 -0.4006  0.0288 -0.0837
25061SOL    HW180121   5.166   4.588   5.406  0.1632 -0.7688 -0.1919
25061SOL    HW280122   5.055   4.597   5.509  0.2850  1.8061 -0.2276
25062SOL     OW80123   9.504   7.012   1.530 -0.0185 -0.2142  0.1709
25062SOL    HW180124   9.481   7.076   1.463 -0.6223 -0.9421 -0.3368
25062SOL    HW280125   9.420   6.989   1.571  0.2418 -0.4066  0.6011
25063SOL     OW80126   4.893   4.931   0.254 -0.0279  0.2870 -0.3144
25063SOL    HW180127   4.958   5.001   0.261  0.4955 -0.2376  0.1778
25063SOL    HW280128   4.922   4.864   0.317 -2.6496  1.3226  2.2709
25064SOL     OW80129   1.796   4.882   1.817  0.1188  0.0802 -0.1965
25064SOL    HW180130   1.734   4.954   1.828 -0.7444 -0.3892 -1.5796
25064SOL    HW280131   1.774   4.846   1.731  0.9402 -1.4308  0.1962
25065SOL     OW80132   3.645   4.612   2.985 -0.3457 -0.2029  0.1090
25065SOL    HW180133   3.641   4.596   2.891  0.4542 -0.7753  0.1661
25065SOL    HW280134   3.614   4.531   3.025 -0.5593 -0.0060  0.3499
25066SOL     OW80135   7.548   1.096   3.259 -0.8094  0.1839  0.1178
25066SOL    HW180136   7.575   1.015   3.303 -1.4646  0.3795  0.9174
25066SOL    HW280137   7.619   1.116   3.199  1.2164  1.1116  2.6524
25067SOL     OW80138   8.193   5.982  10.093  0.4774  0.4983  0.1094
25067SOL    HW180139   8.156   6.069  10.104  0.6078  0.3594  1.9117
25067SOL    HW280140   8.258   5.991  10.023  0.6150  1.8833  0.4032
25068SOL     OW80141   2.663   1.974   8.686  0.0367 -0.3686  0.7981
25068SOL    HW180142   2.590   1.997   8.629 -0.4068  0.2375  1.5936
25068SOL    HW280143   2.622   1.939   8.765  0.6624 -2.6417  0.1885
25069SOL     OW80144   3.553   0.924   6.879 -0.5164 -0.3638 -0.0131
25069SOL    HW180145   3.567   0.864   6.952  0.3229 -1.3406 -0.9459
25069SOL    HW280146   3.517   0.869   6.810  1.6886 -0.1528 -1.4023
25070SOL     OW80147   0.127   7.425   6.909  0.0941  0.6854  0.0432
25070SOL    HW180148   0.103   7.516   6.892  2.6632  1.6272  0.8942
25070SOL    HW280149   0.136   7.419   7.004  0.0385 -0.4404 -0.0031
25071SOL     OW80150   9.801   9.993   3.113  0.1060  0.1435 -0.0892
25071SOL    HW180151   9.836   9.991   3.202 -2.6390 -0.7706  1.0846
25071SOL    HW280152   9.760  10.079   3.105 -2.5462 -0.9219  0.8739
25072SOL     OW80153   0.955   8.188   9.657  0.1784  0.2717 -0.2576
25072SOL    HW180154   0.866   8.220   9.669  0.0350  0.3723 -1.5330
25072SOL    HW280155   0.970   8.191   9.563  1.5506  0.3076 -0.0580
25073SOL     OW80156   2.918   1.952   9.583 -0.0128 -0.1075  0.1903
25073SOL    HW180157   2.881   1.958   9.495  0.8586  0.8577 -0.1416
25073SOL    HW280158   2.843   1.942   9.640 -0.6143 -0.4710 -0.6445
25074SOL     OW80159   7.515   2.775   2.297  0.0797  0.4277 -0.5558
25074SOL    HW180160   7.593   2.720   2.308 -0.5079 -0.4669 -0.7322
25074SOL    HW280161   7.507   2.786   2.203 -0.3378  0.0205 -0.5702
25075SOL     OW80162   7.525   4.252   3.918  0.5748  0.5335 -0.4033
25075SOL    HW180163   7.550   4.298   3.998  0.3455  0.0236 -0.0370
25075SOL    HW280164   7.586   4.178   3.913 -0.2706 -0.2003  0.0137
25076SOL     OW80165   4.750   4.662  11.499  0.0976 -0.1133  0.1059
25076SOL    HW180166   4.810   4.664  11.425  0.4311  0.5818  0.3851
25076SOL    HW280167   4.701   4.580  11.488  0.4399 -0.2278 -0.6367
25077SOL     OW80168   8.424   9.612   0.921 -0.1485 -0.1351 -0.1190
25077SOL    HW180169   8.500   9.659   0.885 -0.4530 -0.5747 -1.3733
25077SOL    HW280170   8.431   9.524   0.886 -0.1009 -0.8015  1.4747
25078SOL     OW80171   4.712   8.087  10.143  0.4730 -0.5751 -0.0658
25078SOL    HW180172   4.689   8.016  10.084  1.4211  0.9702 -2.4418
25078SOL    HW280173   4.707   8.048  10.231 -3.6089 -2.3027 -0.8382
25079SOL     OW80174  10.454   8.251   3.329  0.0440 -0.2799 -0.1623
25079SOL    HW180175  10.380   8.199   3.360 -0.3660  0.5652  0.2910
25079SOL    HW280176  10.496   8.195   3.263 -1.7045 -0.3054 -1.3264
25080SOL     OW80177   6.728   3.208   0.036  0.0427  0.5716 -0.2805
25080SOL    HW180178   6.729   3.219   0.131 -0.9139  1.6340 -0.3660
25080SOL    HW280179   6.660   3.142   0.020  2.4079 -2.1268 -0.0815
25081SOL     OW80180   9.157   1.138   9.513  0.1630 -0.7761  0.0819
25081SOL    HW180181   9.240   1.157   9.557 -0.2723 -0.8501  0.9596
25081SOL    HW280182   9.137   1.218   9.464  1.6140 -1.3751 -1.5907
25082SOL     OW80183   3.232   0.824   7.512 -0.5215 -0.7104  0.3664
25082SOL    HW180184   3.213   0.839   7.419 -0.9759 -2.6355  0.1098
25082SOL    HW280185   3.222   0.730   7.523  0.3953 -0.6214  2.1939
25083SOL     OW80186  10.920   5.654   8.114  0.3542  0.4865 -0.2974
25083SOL    HW180187  10.833   5.663   8.152  0.3381 -1.2045  0.1521
25083SOL    HW280188  10.917   5.706   8.033 -0.6363  1.4964  0.3632
25084SOL     OW80189   0.046   9.218   5.890 -0.1269  0.2799  0.4219
25084SOL    HW180190  -0.024   9.283   5.881  0.7322  1.1316 -0.3197
25084SOL    HW280191   0.002   9.140   5.923 -1.1213  1.3635  1.8131
25085SOL     OW80192   0.639   6.410   1.489  0.0336 -0.0124  0.0444
25085SOL    HW180193   0.666   6.354   1.417 -0.2454 -2.2852  1.5928
25085SOL    HW280194   0.564   6.364   1.529 -1.9761  2.8043 -0.1619
25086SOL     OW80195   7.777   2.510   5.963  0.4647  0.1454  0.2756
25086SOL    HW180196   7.823   2.590   5.936  0.9214 -0.7649 -1.8625
25086SOL    HW280197   7.841   2.463   6.016  0.6580  0.6024  0.4519
25087SOL     OW80198   4.740   5.932  11.247  0.5701 -0.0459 -0.1307
25087SOL    HW180199   4.796   5.941  11.324  1.1531  1.5209 -0.6967
25087SOL    HW280200   4.746   6.017  11.203 -1.1659 -0.3043 -0.9531
25088SOL     OW80201  10.371   3.072   2.649  0.4041 -0.0549 -0.1952
25088SOL    HW180202  10.371   3.020   2.729  0.0494  0.2604  0.0099
25088SOL    HW280203  10.459   3.059   2.613  1.1648  1.1458  1.1305
25089SOL     OW80204   0.279   4.937   2.147  0.2138  0.5106 -0.0286
25089SOL    HW180205   0.264   5.011   2.206  1.5502  1.1199 -0.4284
25089SOL    HW280206   0.275   4.975   2.060 -0.0071 -0.0676 -0.2715
25090SOL     OW80207   3.971   9.303   5.263 -0.4068  0.2683 -0.3443
25090SOL    HW180208   4.004   9.392   5.254 -0.4151  0.5435  1.7386
25090SOL    HW280209   3.897   9.311   5.323  0.6256 -1.2950  1.2636
25091SOL     OW80210   5.003   8.593   9.563  0.0310  0.5459 -1.2056
25091SOL    HW180211   5.008   8.600   9.659 -0.5433  0.9987 -1.2023
25091SOL    HW280212   5.047   8.510   9.543 -2.1049 -0.8932 -0.3049
25092SOL     OW80213  10.968   6.405   1.677  0.7734 -0.1364 -0.2945
25092SOL    HW180214  10.972   6.322   1.629  1.0215  0.3919 -1.2226
25092SOL    HW280215  10.989   6.382   1.767  0.3407 -1.1611 -0.4380
25093SOL     OW80216   9.233   4.986   4.026  0.1617 -0.1576 -0.0131
25093SOL    HW180217   9.156   5.010   4.078  0.0529 -2.9956  1.3541
25093SOL    HW280218   9.305   4.985   4.090  0.5584 -1.1710 -0.4592
25094SOL     OW80219   3.521   7.438   4.501  0.5766  0.9797 -0.4458
25094SOL    HW180220   3.502   7.388   4.422  1.1459  0.3009 -0.1677
25094SOL    HW280221   3.435   7.464   4.534  0.2898  0.4629 -0.7729
25095SOL     OW80222   9.553   7.822   1.270  0.0294  0.2859  0.2134
25095SOL    HW180223   9.580   7.896   1.325  2.0015  0.4659 -0.9166
25095SOL    HW280224   9.576   7.848   1.181  1.5729 -1.9871 -0.1326
25096SOL     OW80225   1.311  10.971   4.113 -0.0187 -0.0406 -0.3395
25096SOL    HW180226   1.333  11.058   4.081 -1.6312 -0.9026 -4.5328
25096SOL    HW280227   1.396  10.927   4.123  0.7488  1.5976  0.6362
25097SOL     OW80228   3.704   1.643   4.039  0.0223  0.2305 -0.3714
25097SOL    HW180229   3.685   1.625   4.131  0.2502 -0.0584 -0.3768
25097SOL    HW280230   3.719   1.556   4.001  1.7507  0.4542 -0.2759
25098SOL     OW80231   0.854   8.463   0.548 -0.0386  0.2386 -0.1962
25098SOL    HW180232   0.816   8.379   0.575  1.2615 -0.8379 -1.5643
25098SOL    HW280233   0.856   8.459   0.453  0.1541  1.8115 -0.2849
25099SOL     OW80234   9.669   8.806   2.013 -0.1380 -0.3861 -0.4355
25099SOL    HW180235   9.651   8.771   2.100 -0.0894 -0.2433 -0.3686
25099SOL    HW280236   9.621   8.889   2.010 -0.0726 -0.3513 -0.5149
25100SOL     OW80237   0.054   6.838  10.810 -0.7775  0.3117  0.3407
25100SOL    HW180238   0.131   6.824  10.865 -1.2374  0.7269  1.1174
25100SOL    HW280239   0.022   6.750  10.791  0.8516  0.0354 -1.4561
25101SOL     OW80240   3.512   3.455   4.802  0.5907 -0.6882  0.3427
25101SOL    HW180241   3.469   3.395   4.741  0.3797 -1.2106  0.9990
25101SOL    HW280242   3.440   3.506   4.839  0.7676 -0.0308 -0.1973
25102SOL     OW80243   3.546   8.563   0.774 -0.4451  0.4110 -0.4800
25102SOL    HW180244   3.636   8.576   0.743 -0.4569  4.4823  0.6309
25102SOL    HW280245   3.546   8.475   0.812  3.6504  0.9258  1.2417
25103SOL     OW80246   9.007   8.230  11.147  0.1660  0.3870  0.0992
25103SOL    HW180247   8.976   8.211  11.235 -0.4546  1.7157  0.1972
25103SOL    HW280248   9.086   8.282  11.160  0.7411 -0.4202 -0.1407
25104SOL     OW80249   5.669  10.481   1.961  0.3913 -0.1580 -0.4234
25104SOL    HW180250   5.722  10.558   1.939  0.9042  0.0641  1.4508
25104SOL    HW280251   5.611  10.471   1.886  1.4103  1.0745 -1.4426
25105SOL     OW80252   0.032   3.104   7.649 -0.7785 -0.5784  0.0651
25105SOL    HW180253   0.127   3.117   7.651 -0.8997  0.2974  1.0492
25105SOL    HW280254   0.020   3.011   7.669 -0.1336 -0.6548  0.1321
25106SOL     OW80255   7.594   2.561   6.438 -0.0119 -0.0868  0.1490
25106SOL    HW180256   7.593   2.529   6.347 -1.4555 -0.0490  0.1328
25106SOL    HW280257   7.630   2.488   6.488 -0.1265 -0.4771 -0.3227
25107SOL     OW80258  10.147  11.004   4.884  0.2285  0.6939  0.7504
25107SOL    HW180259  10.200  11.032   4.809 -0.5353  0.2514  0.0316
25107SOL    HW280260  10.171  11.065   4.954  1.9686  0.2656  0.5730
25108SOL     OW80261   1.672   7.089   8.891  0.1056 -0.1797  0.0899
25108SOL    HW180262   1.744   7.113   8.832  0.1705  0.2809  0.3492
25108SOL    HW280263   1.603   7.058   8.833  0.2761 -0.0037 -0.2085
25109SOL     OW80264  10.914   8.173   4.953 -0.1581  0.1242  0.1318
25109SOL    HW180265  10.983   8.211   4.898 -1.3807  3.2262  0.5306
25109SOL    HW280266  10.950   8.089   4.981  1.9435 -0.0243 -2.5349
25110SOL     OW80267   7.164   5.459   0.070 -0.2943 -0.2562  0.2818
25110SOL    HW180268   7.190   5.491  -0.016  0.8996 -0.0638  0.6883
25110SOL    HW280269   7.076   5.495   0.084 -0.6904 -0.6725 -1.0347
25111SOL     OW80270   7.208   7.466  11.028 -0.1936  0.3297 -0.5748
25111SOL    HW180271   7.158   7.534  11.072 -0.5168  0.7743 -1.5925
25111SOL    HW280272   7.165   7.384  11.053 -1.3459  0.6941 -1.2951
25112SOL     OW80273   0.215   1.402   1.791 -0.1618  0.3372 -0.1449
25112SOL    HW180274   0.145   1.385   1.729  0.6208  2.9572 -1.8997
25112SOL    HW280275   0.181   1.471   1.848  0.2348  0.1357  0.3436
25113SOL     OW80276   7.370   0.506   4.557 -0.1165  0.3373  0.4213
25113SOL    HW180277   7.375   0.552   4.473 -0.5241  0.8703  0.6775
25113SOL    HW280278   7.291   0.453   4.551  1.0222 -1.3500 -0.3547
25114SOL     OW80279  11.679   7.472   9.500  0.2585  0.5008 -0.5594
25114SOL    HW180280  11.596   7.469   9.546  0.8772  0.1801  0.5761
25114SOL    HW280281  11.714   7.560   9.519  2.0306 -0.6772  2.4695
25115SOL     OW80282   2.534   6.482  11.600  0.0699  0.1358 -0.2212
25115SOL    HW180283   2.625   6.490  11.628  0.8525 -1.5895 -2.0158
25115SOL    HW280284   2.513   6.566  11.559  1.2587  0.1523 -0.8192
25116SOL     OW80285   2.548  10.326   1.062  0.3963  0.2299  0.0004
25116SOL    HW180286   2.458  10.302   1.083  0.2830  2.2519  2.1892
25116SOL    HW280287   2.540  10.384   0.986 -0.2245  0.8244  0.5089
25117SOL     OW80288   7.746   8.885   2.921  0.3310  0.2737 -0.7495
25117SOL    HW180289   7.793   8.871   3.003 -2.2564 -1.4413  0.5650
25117SOL    HW280290   7.815   8.899   2.856  2.4844  1.1660  1.5882
25118SOL     OW80291   0.241  11.583   4.434 -0.3610 -0.1993  0.8126
25118SOL    HW180292   0.239  11.489   4.453  0.9817 -0.3377  0.3431
25118SOL    HW280293   0.329  11.610   4.459  0.5127  0.2056 -2.3430
25119SOL     OW80294   0.519   3.479   9.199 -0.7700  0.4046 -0.1120
25119SOL    HW180295   0.426   3.490   9.180 -0.7346 -0.1143 -0.6285
25119SOL    HW280296   0.544   3.401   9.150 -0.3575 -0.2181  1.0479
25120SOL     OW80297   6.805   7.659   1.482 -0.0180 -0.4331 -0.1685
25120SOL    HW180298   6.751   7.585   1.509 -2.4026  1.6577  1.1990
25120SOL    HW280299   6.756   7.700   1.410  1.8164 -0.7195 -1.6788
25121SOL     OW80300   6.851   6.634   8.956 -0.1559  0.2220  0.2562
25121SOL    HW180301   6.863   6.546   8.922  0.0990 -0.3161  1.6952
25121SOL    HW280302   6.800   6.679   8.888  1.7641 -0.2870 -1.6223
25122SOL     OW80303  10.756   1.069   9.804  0.1044 -1.0681 -0.0841
25122SOL    HW180304  10.852   1.062   9.805  0.0847 -1.4066 -0.3296
25122SOL    HW280305  10.737   1.149   9.852  0.6019 -0.0767 -1.4716
25123SOL     OW80306   7.029   5.494   5.190 -0.1332 -0.6384  0.1083
25123SOL    HW180307   7.103   5.507   5.130  0.8213 -0.9895  1.1776
25123SOL    HW280308   6.975   5.428   5.147  0.3266 -0.6003 -0.5482
25124SOL     OW80309   0.987   0.324   2.704  0.2079  0.0530 -0.3455
25124SOL    HW180310   0.932   0.268   2.759  2.1244 -0.8915  0.7338
25124SOL    HW280311   0.957   0.413   2.722  0.6233 -0.2361  2.1273
25125SOL     OW80312   0.998  10.322   4.944 -0.6573 -0.2754 -0.5609
25125SOL    HW180313   0.984  10.413   4.919  0.3169 -0.0994 -0.5145
25125SOL    HW280314   0.966  10.317   5.034  1.9061  0.7998  0.5346
25126SOL     OW80315  11.164   0.940   2.171  0.6104  0.3376  0.3590
25126SOL    HW180316  11.119   0.866   2.130 -0.1254  0.6942  0.4995
25126SOL    HW280317  11.253   0.909   2.185  0.7429  0.0241 -1.0344
25127SOL     OW80318   2.674   2.208   8.349 -0.4404 -0.0843  0.7734
25127SOL    HW180319   2.640   2.277   8.292 -0.7570 -0.6440  0.2719
25127SOL    HW280320   2.641   2.230   8.436 -2.2407 -0.6858  0.2869
25128SOL     OW80321   7.579  10.098   8.740 -0.3746 -0.1838  0.5648
25128SOL    HW180322   7.486  10.118   8.741 -1.1679 -3.3196 -0.6977
25128SOL    HW280323   7.601  10.087   8.648  1.0529 -0.3271  0.8952
25129SOL     OW80324   7.799   5.137   1.274  0.6936  0.2121  0.3335
25129SOL    HW180325   7.774   5.146   1.366 -0.1033  0.2299  0.1195
25129SOL    HW280326   7.883   5.183   1.268  0.8000  0.1315  1.0672
25130SOL     OW80327   2.519   2.658   1.153  0.0292 -0.0248 -0.3595
25130SOL    HW180328   2.612   2.640   1.165 -0.1543 -0.7439  0.0814
25130SOL    HW280329   2.512   2.753   1.160  0.4530 -0.0933  1.8833
25131SOL     OW80330   2.546   9.251   8.099 -0.0950  0.9385  0.4612
25131SOL    HW180331   2.538   9.212   8.186 -0.1319  1.0146  0.4916
25131SOL    HW280332   2.468   9.306   8.089 -0.0937  0.9268  0.3783
25132SOL     OW80333  10.100   4.227   5.176  0.0522  0.3924  0.3308
25132SOL    HW180334  10.004   4.228   5.170  0.0954  0.9773 -0.3425
25132SOL    HW280335  10.127   4.154   5.120 -0.0074  0.0735  0.7130
25133SOL     OW80336   7.715   0.407   9.458 -0.3660 -0.2906 -0.4378
25133SOL    HW180337   7.621   0.387   9.455 -0.1947 -1.6260  1.2490
25133SOL    HW280338   7.719   0.496   9.491 -1.0406  0.2867 -1.8266
25134SOL     OW80339   2.643   4.953  11.325  0.2433  0.0082  0.0936
25134SOL    HW180340   2.662   5.036  11.370 -0.1152 -0.2864  0.8098
25134SOL    HW280341   2.591   4.978  11.249  0.4151  0.4757  0.1274
25135SOL     OW80342   2.959   9.435   6.717 -0.5788  0.7713 -0.2530
25135SOL    HW180343   3.000   9.519   6.737  0.6610 -0.0299  0.7311
25135SOL    HW280344   2.952   9.391   6.802 -0.3999 -0.4655 -0.8506
25136SOL     OW80345   8.052   0.112   0.872 -0.3194 -0.0429 -0.1345
25136SOL    HW180346   7.995   0.035   0.864 -0.6042  0.1123  0.3841
25136SOL    HW280347   8.134   0.077   0.909 -0.9980  0.1367  1.6129
25137SOL     OW80348  10.074   4.927   5.232  0.6927 -0.4342  0.0097
25137SOL    HW180349  10.148   4.984   5.211 -0.1074  0.2839 -0.9253
25137SOL    HW280350  10.067   4.868   5.156  0.4531 -0.6556  0.2032
25138SOL     OW80351   3.596  10.294   0.104  0.1834  0.9452  0.0860
25138SOL    HW180352   3.593  10.257   0.016 -0.9419 -0.7382  0.7903
25138SOL    HW280353   3.686  10.325   0.114  0.5311  0.4634 -1.3807
25139SOL     OW80354  10.595   5.069   8.634  0.1889 -0.6073 -0.0289
25139SOL    HW180355  10.648   5.070   8.554  0.7485  0.1386  0.3364
25139SOL    HW280356  10.657   5.093   8.704 -0.9829  2.2385  0.1567
25140SOL     OW80357   2.169   2.783   0.198  0.4443 -0.0944  0.3401
25140SOL    HW180358   2.182   2.822   0.284  0.2227 -1.7098  1.1432
25140SOL    HW280359   2.217   2.700   0.201 -1.9500 -1.6017 -0.0055
25141SOL     OW80360   4.265   1.915   0.502  0.1691  0.1447  0.1796
25141SOL    HW180361   4.351   1.924   0.462  0.5145  0.9411  1.0699
25141SOL    HW280362   4.204   1.915   0.428  0.8133  1.2083 -0.3718
25142SOL     OW80363   6.423   3.754  10.604 -0.4177  0.2952  0.2415
25142SOL    HW180364   6.503   3.710  10.576 -0.1666 -0.1869  1.6395
25142SOL    HW280365   6.356   3.685  10.603  0.1077 -0.3584  3.0278
25143SOL     OW80366  11.483   6.264   6.174  0.3647 -0.3489  0.4399
25143SOL    HW180367  11.540   6.201   6.130  1.4654  0.6640  0.3405
25143SOL    HW280368  11.544   6.325   6.217 -0.6299  1.0424 -0.0495
25144SOL     OW80369   5.888   5.159   0.588  0.1119  0.4428 -0.1408
25144SOL    HW180370   5.952   5.109   0.639 -0.9023 -1.9271 -1.0237
25144SOL    HW280371   5.934   5.240   0.566  2.2728 -0.5111  0.4775
25145SOL     OW80372   3.095   3.959   9.426 -0.2895  0.8766 -0.2596
25145SOL    HW180373   3.182   3.997   9.442  1.9601 -3.7316  0.0489
25145SOL    HW280374   3.092   3.947   9.332  0.6151 -1.2241 -0.0681
25146SOL     OW80375   1.581   9.672   3.220 -0.6025  0.0556 -0.1058
25146SOL    HW180376   1.636   9.611   3.171 -0.3104  0.7558 -0.6698
25146SOL    HW280377   1.507   9.690   3.162 -1.2526 -0.5918  0.5006
25147SOL     OW80378   5.970   3.520   9.825  0.2698  0.0626  0.1081
25147SOL    HW180379   6.059   3.502   9.794  0.5037 -0.2037  0.9252
25147SOL    HW280380   5.915   3.460   9.774  0.5754  0.0968 -0.2692
25148SOL     OW80381   3.709   2.809   5.132  0.3818  0.5004 -0.1411
25148SOL    HW180382   3.793   2.765   5.127 -0.3340 -1.1079  1.0848
25148SOL    HW280383   3.652   2.758   5.074 -0.0911  0.7027  0.1392
25149SOL     OW80384   2.211   7.351   5.575  0.8630 -0.2432  0.3336
25149SOL    HW180385   2.186   7.278   5.518 -2.6510  0.3479  0.9015
25149SOL    HW280386   2.140   7.358   5.638  2.7433  1.5858  2.4389
25150SOL     OW80387   2.783   9.613   6.629 -0.3706 -0.4203  0.0837
25150SOL    HW180388   2.768   9.661   6.710  0.1851  0.6732 -0.4389
25150SOL    HW280389   2.843   9.542   6.653  0.6478  0.5412  0.4278
25151SOL     OW80390   9.536   8.484   2.442 -0.8351  0.7529  0.4117
25151SOL    HW180391   9.447   8.514   2.457 -1.5352 -0.0644 -1.7449
25151SOL    HW280392   9.532   8.389   2.452 -0.2313  0.6995  0.2018
25152SOL     OW80393   6.949   9.641  10.409 -0.3380  0.1206 -0.3478
25152SOL    HW180394   6.988   9.665  10.492  1.1132  0.7131 -1.1744
25152SOL    HW280395   6.863   9.684  10.409 -0.2466  0.3166  0.7123
25153SOL     OW80396   3.917   5.279   9.833  0.0109 -0.3439  0.2062
25153SOL    HW180397   3.957   5.253   9.750 -0.6141  1.0710 -0.5792
25153SOL    HW280398   3.823   5.270   9.818 -0.0863 -0.5151  0.9184
25154SOL     OW80399   0.817   6.700   1.817 -0.4822  0.0030  0.2346
25154SOL    HW180400   0.768   6.636   1.869  0.3522 -0.8720 -0.0112
25154SOL    HW280401   0.891   6.724   1.873 -1.3194  1.5491  0.7303
25155SOL     OW80402   8.138   7.916   1.998 -0.4022  0.2343  0.3257
25155SOL    HW180403   8.103   8.004   2.012  1.8207  1.1315  0.5662
25155SOL    HW280404   8.083   7.860   2.053 -1.0354  1.6435  1.1998
25156SOL     OW80405   9.464   6.885   6.155 -0.1977 -0.8623 -0.5519
25156SOL    HW180406   9.389   6.828   6.136  0.6929 -2.9858  1.7195
25156SOL    HW280407   9.494   6.856   6.241  2.1167  1.1861 -0.5793
25157SOL     OW80408   1.920   5.096  10.976 -0.4578  0.3191 -0.3403
25157SOL    HW180409   1.942   5.188  10.957 -1.8221  0.5107 -1.2018
25157SOL    HW280410   1.886   5.063  10.893  0.4629 -1.1229 -0.1609
25158SOL     OW80411  11.202   0.122   1.907  0.2157  0.1780  0.4877
25158SOL    HW180412  11.115   0.085   1.923 -0.3621  2.8110  5.2404
25158SOL    HW280413  11.262   0.056   1.943  0.3106 -1.2926 -2.1065
25159SOL     OW80414   4.395   8.933   3.983  0.1822 -0.6461 -0.1107
25159SOL    HW180415   4.303   8.951   3.961 -0.2522 -0.1118  1.9453
25159SOL    HW280416   4.444   9.004   3.942 -0.5484  0.1937  0.4537
25160SOL     OW80417   8.067  11.564   4.510 -0.4298 -0.3541  0.0204
25160SOL    HW180418   8.069  11.473   4.539 -1.9893 -0.1099  1.0197
25160SOL    HW280419   8.103  11.613   4.584  0.2722 -0.1164 -0.4625
25161SOL     OW80420   2.842   3.923  10.840  0.0245  0.0600 -0.3873
25161SOL    HW180421   2.839   3.832  10.871  0.7173 -0.3437 -1.4576
25161SOL    HW280422   2.816   3.918  10.748  2.0136  0.6470 -1.0396
25162SOL     OW80423   3.178   3.932   9.705 -0.0337  0.1394 -0.4253
25162SOL    HW180424   3.137   3.951   9.620 -1.0224 -1.0548 -0.2399
25162SOL    HW280425   3.108   3.894   9.758  0.6897  0.4263  0.7848
25163SOL     OW80426   6.504   0.171   4.197  0.6168  0.2982 -0.1108
25163SOL    HW180427   6.454   0.230   4.140  0.1954 -0.8097 -0.9329
25163SOL    HW280428   6.438   0.125   4.247  0.8982 -0.0566 -0.0677
25164SOL     OW80429   2.735   1.966   2.911 -0.3913  0.6721 -0.3787
25164SOL    HW180430   2.739   2.052   2.953 -1.5634  0.3663  0.4044
25164SOL    HW280431   2.733   1.904   2.984 -0.6794  0.0427 -0.9132
25165SOL     OW80432  11.607  10.883   8.782 -0.5105  0.0886  0.3695
25165SOL    HW180433  11.570  10.819   8.722  0.7489 -0.7800  0.4726
25165SOL    HW280434  11.688  10.843   8.813  0.2287  1.6506  0.5895
25166SOL     OW80435   4.378   9.016   7.262  0.2783 -0.3053  0.2070
25166SOL    HW180436   4.293   8.972   7.262 -0.1143  0.3871 -1.1350
25166SOL    HW280437   4.415   8.997   7.348 -0.7521 -1.5347  0.4072
25167SOL     OW80438   3.858   7.579   8.084 -0.3702  0.2014  0.1705
25167SOL    HW180439   3.871   7.586   8.178 -0.5633 -0.3379  0.2442
25167SOL    HW280440   3.777   7.529   8.075  0.7412 -1.6078 -0.2778
25168SOL     OW80441   1.223   6.606   2.733 -0.1216 -0.0444 -0.1597
25168SOL    HW180442   1.247   6.580   2.644 -1.1212  0.6454 -0.6423
25168SOL    HW280443   1.152   6.546   2.757  2.6439 -2.9478  1.7431
25169SOL     OW80444  10.852   9.345   2.849 -0.0498 -0.4073 -0.2659
25169SOL    HW180445  10.794   9.295   2.792 -0.0318 -0.5258 -0.1816
25169SOL    HW280446  10.932   9.357   2.798 -0.2205 -0.0758 -0.4551
25170SOL     OW80447   0.796   2.334   0.165 -0.1756 -0.3338 -0.2063
25170SOL    HW180448   0.844   2.254   0.186  1.3155  0.6326  0.2409
25170SOL    HW280449   0.712   2.304   0.131  0.2827 -2.0740  0.1251
25171SOL     OW80450   0.316  11.061  11.558  0.2209 -0.1747 -0.2950
25171SOL    HW180451   0.225  11.086  11.571  0.4352  0.3974  0.1306
25171SOL    HW280452   0.365  11.143  11.560  0.8271 -0.5351  0.1849
25172SOL     OW80453   5.672   3.872   0.373  0.0146  0.1964 -0.0353
25172SOL    HW180454   5.720   3.870   0.456 -0.3791  1.3304  0.2311
25172SOL    HW280455   5.588   3.830   0.393 -1.0322  2.5234  0.7999
25173SOL     OW80456   0.576   9.826   4.582  0.5998  0.1053  0.1594
25173SOL    HW180457   0.620   9.781   4.655  1.3654 -0.5060 -0.6581
25173SOL    HW280458   0.627   9.801   4.505 -1.1269 -0.5453 -0.8210
25174SOL     OW80459   1.755   8.485   8.436 -0.3134 -0.0523  0.0572
25174SOL    HW180460   1.825   8.489   8.501 -0.1741 -1.0107 -0.0150
25174SOL    HW280461   1.679   8.523   8.480  0.1216  0.5311  0.3106
25175SOL     OW80462  11.537   0.153   6.555  0.5976  0.3647  0.8369
25175SOL    HW180463  11.621   0.137   6.598  0.5236 -0.6459  0.6405
25175SOL    HW280464  11.560   0.188   6.469  0.7725  1.5152  1.3467
25176SOL     OW80465   3.101   7.876   8.594 -0.3977  0.2127 -0.1315
25176SOL    HW180466   3.012   7.865   8.628  0.0407  0.7331  1.2793
25176SOL    HW280467   3.152   7.807   8.638  0.0940  0.5712 -0.1272
25177SOL     OW80468   6.947   2.598   8.625  0.2305  0.2003 -0.3429
25177SOL    HW180469   7.001   2.630   8.553  1.1598 -1.6033 -0.5028
25177SOL    HW280470   6.969   2.655   8.699  2.0004 -0.1853 -0.5418
25178SOL     OW80471   4.016   3.550   8.418 -0.0848  0.0639 -0.1646
25178SOL    HW180472   4.045   3.596   8.497  1.0896  3.1748 -2.1998
25178SOL    HW280473   3.923   3.572   8.410 -0.1245  0.0194  0.1737
25179SOL     OW80474   2.123   1.101   7.026  0.1682  0.3905 -0.1601
25179SOL    HW180475   2.113   1.189   7.061  0.7163  0.3805  0.0320
25179SOL    HW280476   2.037   1.079   6.990 -0.0859  0.8349  0.1733
25180SOL     OW80477   7.223   6.910   3.568  0.2495 -0.0178  0.6755
25180SOL    HW180478   7.184   6.823   3.577  0.8557 -0.6916 -2.1749
25180SOL    HW280479   7.148   6.968   3.557 -0.1213 -0.6994 -0.6239
25181SOL     OW80480   5.775  10.963   6.351 -0.1369  0.0622 -0.2116
25181SOL    HW180481   5.684  10.946   6.327 -0.4681  1.7394 -0.2582
25181SOL    HW280482   5.794  10.899   6.420 -0.8338 -1.3324 -1.2673
25182SOL     OW80483   7.461   8.087   8.612 -0.9558  1.0672 -0.4681
25182SOL    HW180484   7.389   8.025   8.622 -0.7882  0.7288 -1.2612
25182SOL    HW280485   7.430   8.149   8.546 -1.1219  1.8353  0.3197
25183SOL     OW80486   2.131   5.122   6.687  0.0564 -0.1090 -0.4214
25183SOL    HW180487   2.120   5.042   6.634  0.9389 -0.8667  0.5113
25183SOL    HW280488   2.225   5.140   6.683 -0.1699  1.0767 -0.8569
25184SOL     OW80489   4.186   6.822   5.781  0.0577  0.2572 -0.2093
25184SOL    HW180490   4.120   6.891   5.781 -1.5490 -1.1774 -1.6050
25184SOL    HW280491   4.258   6.857   5.727  0.5801  1.8798  1.4267
25185SOL     OW80492   3.255  11.062   0.190  0.2125  0.2535  0.1052
25185SOL    HW180493   3.252  11.011   0.108  1.9979 -0.5228  0.4668
25185SOL    HW280494   3.315  11.012   0.246  1.7079  2.5081  0.6448
25186SOL     OW80495   4.778   6.491   8.946 -0.2747  0.0006  0.0420
25186SOL    HW180496   4.820   6.422   8.895  1.0738  0.1747  0.8913
25186SOL    HW280497   4.780   6.460   9.036 -0.3727  0.8009  0.3291
25187SOL     OW80498   0.528   1.681   2.653 -0.0647  0.6579  0.3770
25187SOL    HW180499   0.573   1.660   2.735 -0.1535  0.5908  0.4093
25187SOL    HW280500   0.496   1.770   2.666  0.7385  1.0065  0.0501
25188SOL     OW80501   6.431   0.620   3.654 -0.4719 -0.4811  0.0818
25188SOL    HW180502   6.353   0.584   3.612  0.4754 -1.6053 -0.7728
25188SOL    HW280503   6.497   0.621   3.585  0.5348 -0.3834  1.0211
25189SOL     OW80504   6.355   6.172   9.273  0.2078  0.2022 -0.0210
25189SOL    HW180505   6.382   6.126   9.193 -2.0746 -0.4248 -0.4865
25189SOL    HW280506   6.412   6.248   9.276  3.0283 -1.7400 -0.0983
25190SOL     OW80507   2.059  11.507   8.327  0.0536 -0.4179  0.0677
25190SOL    HW180508   2.114  11.446   8.378  0.6288  0.1724  0.1622
25190SOL    HW280509   1.992  11.536   8.389 -0.7629 -1.6020 -0.2103
25191SOL     OW80510   9.185   8.684   3.320  0.3696  0.8955  0.2709
25191SOL    HW180511   9.233   8.621   3.266  0.2948 -0.4713  1.7218
25191SOL    HW280512   9.122   8.724   3.259  0.4434 -0.4013 -0.7168
25192SOL     OW80513   3.772   5.557   8.391  0.3243  0.0867  0.3985
25192SOL    HW180514   3.729   5.474   8.413 -0.4941  0.1023 -1.0610
25192SOL    HW280515   3.738   5.581   8.305 -0.3550  2.5414  1.2609
25193SOL     OW80516   0.658  10.397   8.860  0.0143 -0.7656 -0.2519
25193SOL    HW180517   0.706  10.327   8.817  0.5826 -0.5688  0.0507
25193SOL    HW280518   0.591  10.352   8.912  1.2734 -1.1872  1.0678
25194SOL     OW80519   2.078   1.506   6.681 -0.4424  0.6439 -0.2795
25194SOL    HW180520   2.158   1.527   6.632  0.6742 -1.5468  0.4537
25194SOL    HW280521   2.106   1.505   6.773 -0.7583 -1.9790 -0.1286
25195SOL     OW80522   2.804   7.791   5.827  0.4190 -0.0910  0.3392
25195SOL    HW180523   2.881   7.774   5.774 -0.5752 -0.2785 -1.0881
25195SOL    HW280524   2.753   7.711   5.822 -0.6354  0.5872 -0.0919
25196SOL     OW80525   2.369  10.312  11.239  0.0670  0.2746  0.4870
25196SOL    HW180526   2.422  10.294  11.317  0.8036  1.4650  0.2818
25196SOL    HW280527   2.290  10.353  11.273 -1.7093 -3.2114  0.9793
25197SOL     OW80528   2.489   3.448   2.343 -0.6581 -0.4869 -0.4676
25197SOL    HW180529   2.402   3.440   2.383 -1.3553 -2.3349 -2.1715
25197SOL    HW280530   2.524   3.359   2.342  0.4112 -0.0896 -1.5935
25198SOL     OW80531   9.658   0.609  10.584  0.2124  0.4221  0.2024
25198SOL    HW180532   9.614   0.579  10.665  1.6018 -0.0795  0.7974
25198SOL    HW280533   9.707   0.686  10.611 -0.5069  1.1551 -0.5333
25199SOL     OW80534   8.821   8.799   1.881  0.1050  0.2984 -0.5174
25199SOL    HW180535   8.823   8.841   1.967  1.0182  0.3866 -0.5771
25199SOL    HW280536   8.730   8.771   1.871  0.0214  0.1257  0.5541
25200SOL     OW80537   6.121   1.394   2.855 -0.1429 -0.3920 -0.2054
25200SOL    HW180538   6.056   1.329   2.881 -0.9112 -0.6043 -2.3837
25200SOL    HW280539   6.205   1.354   2.875 -0.6322 -0.2620  2.3567
25201SOL     OW80540  10.375   3.921   3.203 -0.0267 -0.0898  0.0785
25201SOL    HW180541  10.349   3.890   3.290 -1.8152 -0.4980 -0.5437
25201SOL    HW280542  10.382   3.841   3.151 -0.5836  0.2570 -0.5356
25202SOL     OW80543   0.875   9.949  10.476  0.0800 -0.3610  0.2120
25202SOL    HW180544   0.880   9.885  10.405 -4.6054  0.7509 -1.5150
25202SOL    HW280545   0.927  10.023  10.447  2.3805 -1.7893  0.4497
25203SOL     OW80546  11.636   8.688   0.500  0.3276 -0.2560 -0.4874
25203SOL    HW180547  11.644   8.611   0.555  1.5354 -0.9398 -1.5628
25203SOL    HW280548  11.724   8.703   0.466  0.3046  2.1028  0.3285
25204SOL     OW80549  11.452  10.864   3.760  0.1094 -0.0617 -0.5745
25204SOL    HW180550  11.406  10.926   3.702  1.4664  1.0946 -0.4605
25204SOL    HW280551  11.541  10.898   3.765  0.2508 -0.6298  1.5008
25205SOL     OW80552   0.245   9.430   4.336 -0.1333  0.4554 -0.1368
25205SOL    HW180553   0.304   9.492   4.379 -2.4426  2.1690  0.7833
25205SOL    HW280554   0.223   9.471   4.253  0.8000 -0.7304 -1.0108
25206SOL     OW80555   2.519   9.388   6.295 -0.1402  0.0410 -0.0762
25206SOL    HW180556   2.442   9.427   6.255  0.2310 -0.5283 -1.4060
25206SOL    HW280557   2.589   9.452   6.282 -0.4161  0.6615  1.3389
25207SOL     OW80558   5.930   8.347   7.957 -0.9313 -0.4753  0.3308
25207SOL    HW180559   6.002   8.369   7.897 -3.0398  1.3490 -1.7393
25207SOL    HW280560   5.938   8.409   8.028 -0.2836 -0.5022  0.2879
25208SOL     OW80561  10.943   4.893   7.927 -0.0608 -0.3737  0.3703
25208SOL    HW180562  10.996   4.851   7.995  0.3453  0.3498  0.5155
25208SOL    HW280563  10.938   4.985   7.954  0.6413  0.0635 -0.8867
25209SOL     OW80564   6.230   3.730   6.021  0.2259  0.2156  0.0215
25209SOL    HW180565   6.191   3.801   5.971 -0.1633  0.0718  0.1146
25209SOL    HW280566   6.190   3.650   5.986  1.7148 -0.0941 -1.0710
25210SOL     OW80567   2.334   7.397   4.677  0.1707  0.0597 -0.0081
25210SOL    HW180568   2.336   7.307   4.709 -1.0281  0.4203  1.1550
25210SOL    HW280569   2.354   7.390   4.583  1.5565 -1.2469  0.3465
25211SOL     OW80570   4.894   4.701   5.424  0.5004 -0.3186  0.0976
25211SOL    HW180571   4.919   4.778   5.475  1.3026 -0.4926 -0.0183
25211SOL    HW280572   4.805   4.720   5.394  0.5169  0.3577  0.4592
25212SOL     OW80573   3.539   9.008  10.207  0.0418  0.4218 -0.4236
25212SOL    HW180574   3.548   8.944  10.137 -0.0450 -0.6638  0.5231
25212SOL    HW280575   3.444   9.022  10.214  0.1106  1.3698 -1.2386
25213SOL     OW80576  11.672   3.509  11.413  0.0139  0.2096 -0.0845
25213SOL    HW180577  11.738   3.568  11.377  0.4409  0.0643  0.4470
25213SOL    HW280578  11.681   3.429  11.361  0.9094 -0.1481  0.5960
25214SOL     OW80579  11.181  11.677   8.291 -0.0251 -0.1429  0.0594
25214SOL    HW180580  11.095  11.671   8.249  0.1455 -0.3566 -0.2618
25214SOL    HW280581  11.213  11.764   8.268 -0.6799  0.4259  1.2044
25215SOL     OW80582   9.958   0.965  11.215  0.4158 -0.0576  0.4573
25215SOL    HW180583   9.905   1.041  11.241  0.9461 -0.3012  2.4487
25215SOL    HW280584  10.046   0.985  11.247  0.5177 -1.5627  1.2023
25216SOL     OW80585  10.283   4.521   2.163 -0.4892 -0.6061  0.6939
25216SOL    HW180586  10.234   4.479   2.234  0.2606 -1.5434  0.6611
25216SOL    HW280587  10.320   4.600   2.203 -2.0589  0.1789  0.7034
25217SOL     OW80588   0.589   1.003   3.899  0.2727 -0.0820 -0.0464
25217SOL    HW180589   0.591   0.911   3.925  1.0443 -0.2906 -0.7656
25217SOL    HW280590   0.678   1.020   3.867  0.6497  1.4018  1.6672
25218SOL     OW80591   7.862   6.255   9.291  0.1236  0.2035 -0.5005
25218SOL    HW180592   7.772   6.249   9.323 -0.4126  1.3131 -1.6794
25218SOL    HW280593   7.862   6.335   9.238  1.7024 -0.0173 -0.8647
25219SOL     OW80594   5.307   7.551   9.164 -0.0544  0.2038  0.3225
25219SOL    HW180595   5.364   7.478   9.141 -1.6073 -0.8383 -0.3527
25219SOL    HW280596   5.310   7.554   9.260  1.3109  0.3502  0.2959
25220SOL     OW80597   2.102   5.590   3.703  0.3666 -0.1359 -0.5694
25220SOL    HW180598   2.104   5.625   3.792  0.3422  0.6637 -0.8752
25220SOL    HW280599   2.167   5.642   3.656 -1.1921  1.0015 -1.5677
25221SOL     OW80600   7.711   9.272   0.136  0.0792 -0.1083 -0.0992
25221SOL    HW180601   7.639   9.228   0.092 -0.0657  0.6686 -0.6695
25221SOL    HW280602   7.668   9.332   0.197  0.1407  1.6648 -1.6934
25222SOL     OW80603   1.741   7.664   7.898  0.6666 -0.2887  0.0979
25222SOL    HW180604   1.646   7.657   7.889  0.7945 -1.5289 -0.4056
25222SOL    HW280605   1.776   7.640   7.813  1.4922 -1.6005  0.7800
25223SOL     OW80606   4.302  11.405   6.886 -0.1100 -0.1430 -0.1965
25223SOL    HW180607   4.254  11.343   6.940 -1.6222  0.7305 -0.4751
25223SOL    HW280608   4.366  11.352   6.839 -0.9756 -1.3991 -0.0030
25224SOL     OW80609   4.018   6.474   2.700  0.6700  0.2288  0.3316
25224SOL    HW180610   3.937   6.504   2.741 -0.1486  0.9239 -1.6528
25224SOL    HW280611   4.081   6.545   2.715  1.1129 -0.5302  2.3113
25225SOL     OW80612   6.755  11.619   9.095  0.0692  0.3347 -0.0961
25225SOL    HW180613   6.675  11.661   9.128 -0.6865  0.2279 -1.6889
25225SOL    HW280614   6.826  11.666   9.139 -0.8424 -0.0653  1.9389
25226SOL     OW80615   1.542   2.755   3.735 -0.0305  0.2114  0.2717
25226SOL    HW180616   1.616   2.748   3.675  0.2165 -2.1666  0.7495
25226SOL    HW280617   1.512   2.665   3.748 -2.4111  0.9981  0.8710
25227SOL     OW80618   6.710   9.154  11.322  0.5687  0.5344 -0.2189
25227SOL    HW180619   6.792   9.112  11.294 -0.1918 -0.5928 -0.8328
25227SOL    HW280620   6.659   9.163  11.242 -0.6056 -0.3727  0.3926
25228SOL     OW80621   1.693   9.833   3.655  0.0850 -0.1151  0.4193
25228SOL    HW180622   1.635   9.875   3.592 -0.0470 -0.3185  0.4045
25228SOL    HW280623   1.663   9.742   3.660  1.0717 -0.4986 -0.3716
25229SOL     OW80624  10.861   0.744   0.342 -0.3451  0.0903 -0.0832
25229SOL    HW180625  10.829   0.785   0.262 -1.4587  1.0881  0.8351
25229SOL    HW280626  10.917   0.811   0.382  0.1205 -0.3614  0.0242
25230SOL     OW80627   5.699   9.102   4.795 -0.3573  0.0380 -0.0615
25230SOL    HW180628   5.666   9.027   4.844 -0.5715 -0.0149 -0.2875
25230SOL    HW280629   5.788   9.115   4.829 -0.2481 -0.4382 -0.1599
25231SOL     OW80630   0.233   5.548   1.612  0.2177  0.4610 -0.2266
25231SOL    HW180631   0.257   5.615   1.676  2.0528 -0.0892 -0.2785
25231SOL    HW280632   0.295   5.560   1.540  0.4882 -1.1805 -0.3002
25232SOL     OW80633   9.400   2.444   3.681 -0.1927 -0.0507  0.1448
25232SOL    HW180634   9.426   2.529   3.647 -0.6676  0.1449  0.2689
25232SOL    HW280635   9.400   2.455   3.776 -1.2299  0.1061  0.1360
25233SOL     OW80636   6.340   2.859   8.320  0.2753 -0.1428  0.0105
25233SOL    HW180637   6.367   2.950   8.314 -0.9193  0.3650  1.5016
25233SOL    HW280638   6.409   2.817   8.371 -0.0656  0.3780  0.9274
25234SOL     OW80639   1.328   6.423   6.522 -0.0140  0.0613 -0.6831
25234SOL    HW180640   1.360   6.401   6.609 -1.4952 -0.0652 -0.1373
25234SOL    HW280641   1.300   6.514   6.529  0.0613  0.1194 -1.0973
25235SOL     OW80642   8.283   0.644   4.321  0.4407  0.0150 -0.0528
25235SOL    HW180643   8.214   0.586   4.354  0.9249  1.3810  3.8783
25235SOL    HW280644   8.239   0.727   4.304  0.9135  0.6345  1.6255
25236SOL     OW80645   1.012   8.388   2.430 -0.0921 -0.0097 -0.2273
25236SOL    HW180646   0.950   8.404   2.502  0.5211 -1.3663  0.6565
25236SOL    HW280647   0.959   8.393   2.351 -1.4977 -1.7072  0.5378
25237SOL     OW80648   4.376  11.447   8.312  0.0567  0.3476 -0.0095
25237SOL    HW180649   4.363  11.471   8.221  0.9950  0.6482 -0.0747
25237SOL    HW280650   4.460  11.401   8.313 -1.4320 -2.6238  0.1627
25238SOL     OW80651   9.752   2.882  10.625  0.3493  0.4901 -0.2369
25238SOL    HW180652   9.716   2.966  10.598  0.6592  0.6601 -0.1227
25238SOL    HW280653   9.748   2.828  10.547 -3.7062 -0.7707  0.6053
25239SOL     OW80654   3.771   4.889   1.688 -0.2101 -0.0213  0.3348
25239SOL    HW180655   3.781   4.824   1.757  0.0666  1.7526  2.0705
25239SOL    HW280656   3.860   4.903   1.656 -0.3957 -1.1775 -0.7567
25240SOL     OW80657   0.335   3.648   6.303 -0.4029 -0.7105 -0.3405
25240SOL    HW180658   0.285   3.717   6.259  0.8912 -0.8949 -2.2078
25240SOL    HW280659   0.270   3.580   6.322 -0.9429 -0.9143 -2.6321
25241SOL     OW80660   3.417   2.509  10.354 -0.1340  0.4963 -0.2076
25241SOL    HW180661   3.383   2.573  10.292  0.9701  0.2865 -1.0621
25241SOL    HW280662   3.444   2.435  10.300  0.2869  0.0609  0.5744
25242SOL     OW80663   5.254   6.457   9.474  0.1340  0.8333 -0.1415
25242SOL    HW180664   5.252   6.530   9.537  0.7445  0.8912 -0.1805
25242SOL    HW280665   5.177   6.404   9.496 -0.4111  1.5733 -0.2122
25243SOL     OW80666   3.115  10.277   4.224 -0.5235 -0.3600  0.0083
25243SOL    HW180667   3.083  10.254   4.311 -2.1357 -0.1881 -0.4941
25243SOL    HW280668   3.066  10.357   4.201 -0.4167 -0.6184 -1.1901
25244SOL     OW80669   5.081   0.986   3.586 -0.0151  0.3594 -0.1465
25244SOL    HW180670   5.100   1.060   3.529  2.0420  1.1479  1.4221
25244SOL    HW280671   5.140   0.917   3.555  1.2113  0.8349  1.0236
25245SOL     OW80672   7.433   9.211   4.380  1.1355 -0.6737 -0.2374
25245SOL    HW180673   7.528   9.224   4.387  1.0920 -0.6364  0.4116
25245SOL    HW280674   7.407   9.179   4.467  0.2749  1.1374  0.2149
25246SOL     OW80675   9.287   8.101   4.240  0.2267 -0.0364  0.2900
25246SOL    HW180676   9.348   8.111   4.313  0.2253  1.4667  0.1120
25246SOL    HW280677   9.248   8.187   4.229 -1.5349 -0.8216  0.0260
25247SOL     OW80678   8.681   7.976   3.547 -0.3659  0.4075 -0.1942
25247SOL    HW180679   8.605   7.979   3.605  0.7884 -0.0776  1.3943
25247SOL    HW280680   8.713   7.886   3.552  0.5392  0.6950 -0.5356
25248SOL     OW80681   1.284  11.188  10.294  0.3345 -0.4733 -0.0177
25248SOL    HW180682   1.255  11.221  10.379 -2.5637 -1.7256 -0.4111
25248SOL    HW280683   1.211  11.135  10.263  0.5217  1.2899 -4.0966
25249SOL     OW80684   7.260   4.773   9.134  0.2135  0.2760  0.0774
25249SOL    HW180685   7.331   4.793   9.072  0.3263  0.5529  0.2926
25249SOL    HW280686   7.234   4.858   9.168 -0.3405  0.1874 -0.1243
25250SOL     OW80687  10.420   0.845  10.771  0.5220  0.1274  0.1322
25250SOL    HW180688  10.402   0.775  10.708  0.2468  0.5475 -0.2658
25250SOL    HW280689  10.374   0.819  10.850  0.5124 -0.1975  0.0204
25251SOL     OW80690   8.453   6.798   2.487  0.5097  0.0590 -0.2501
25251SOL    HW180691   8.368   6.807   2.530  0.9496  2.6549  0.2675
25251SOL    HW280692   8.516   6.786   2.558  0.7830 -0.0645 -0.5056
25252SOL     OW80693   5.998   0.201   5.972  0.3918  0.2183  0.6448
25252SOL    HW180694   5.952   0.244   6.044  3.2955  1.8194  1.7152
25252SOL    HW280695   6.000   0.267   5.902 -0.6177 -0.5773 -0.1672
25253SOL     OW80696  11.307   6.291   0.198  0.1015 -0.3494  0.1747
25253SOL    HW180697  11.377   6.328   0.144  0.0015 -1.8787 -1.0952
25253SOL    HW280698  11.236   6.274   0.136 -1.8375  2.0617  1.5908
25254SOL     OW80699   3.916   0.138   3.163 -0.2751 -0.0398  0.0972
25254SOL    HW180700   3.923   0.044   3.152 -1.6147 -0.0638 -0.8058
25254SOL    HW280701   3.979   0.174   3.100 -1.0599 -0.3128 -0.8521
25255SOL     OW80702   1.908  11.521  11.654 -0.1283  0.1837  0.2377
25255SOL    HW180703   1.836  11.500  11.713 -1.0354  0.5534 -0.7014
25255SOL    HW280704   1.885  11.478  11.572  1.1140 -0.3240  0.1460
25256SOL     OW80705   5.352   2.079  10.083  0.4488 -0.1889 -0.0722
25256SOL    HW180706   5.268   2.066  10.127  1.0730 -0.1923  1.1278
25256SOL    HW280707   5.328   2.097   9.992 -0.7610 -2.4722 -0.2772
25257SOL     OW80708   9.156   5.186   6.289  0.3413 -0.1751  0.2193
25257SOL    HW180709   9.217   5.257   6.310 -1.3847  0.5332  3.3645
25257SOL    HW280710   9.175   5.118   6.354 -0.1034 -1.3060 -0.7998
25258SOL     OW80711   7.505   5.186  10.285 -0.2233  0.1577  0.1627
25258SOL    HW180712   7.492   5.280  10.294  0.9334  0.1238  3.3476
25258SOL    HW280713   7.418   5.149  10.297 -0.7537  0.7807 -1.4886
25259SOL     OW80714   1.113  11.576   1.885 -0.6697 -0.2146 -0.4637
25259SOL    HW180715   1.025  11.544   1.866 -0.4786 -0.1857 -1.4549
25259SOL    HW280716   1.151  11.596   1.799  1.1581 -2.5195 -0.3001
25260SOL     OW80717   7.964   1.726   1.476 -0.2194 -0.3319 -0.3394
25260SOL    HW180718   7.894   1.746   1.413 -0.4785 -1.1824 -0.3334
25260SOL    HW280719   7.923   1.667   1.539  0.6405 -1.2736 -0.6426
25261SOL     OW80720   5.776   5.951   4.785 -0.3457  0.7086  0.6005
25261SOL    HW180721   5.722   5.998   4.849 -0.1310 -0.0576  1.3587
25261SOL    HW280722   5.831   5.893   4.838 -0.7716 -0.5731 -0.3184
25262SOL     OW80723   1.217   4.662   5.580 -0.4338  0.0825 -0.3901
25262SOL    HW180724   1.266   4.728   5.532 -1.1249  0.5959 -0.3928
25262SOL    HW280725   1.150   4.633   5.518  0.0574 -0.8720 -0.5093
25263SOL     OW80726   5.313   0.605   6.811 -0.0067 -0.6301 -0.2158
25263SOL    HW180727   5.281   0.603   6.721  0.5699 -1.4518 -0.4204
25263SOL    HW280728   5.327   0.697   6.830 -1.3265 -0.3454 -0.5309
25264SOL     OW80729   8.106   2.542   5.162 -0.1660  0.1734  0.0614
25264SOL    HW180730   8.193   2.563   5.197  0.3324 -1.9795  0.2429
25264SOL    HW280731   8.055   2.515   5.238 -0.2444 -0.8605 -0.3444
25265SOL     OW80732   2.385   2.360  11.067 -0.5942  0.0586 -0.1222
25265SOL    HW180733   2.296   2.359  11.031 -0.5007  1.1906 -0.4079
25265SOL    HW280734   2.374   2.326  11.156 -1.4584  0.9351  0.1319
25266SOL     OW80735   3.327   0.574   5.161  0.1505 -0.0831 -0.5610
25266SOL    HW180736   3.243   0.612   5.138  0.5959  0.0444 -2.0602
25266SOL    HW280737   3.392   0.638   5.132  0.7699  0.1173  1.1540
25267SOL     OW80738   8.856   8.966   6.494  0.9884  1.0833 -0.1452
25267SOL    HW180739   8.881   8.905   6.425  1.5856  1.4780 -0.2847
25267SOL    HW280740   8.906   8.937   6.570 -1.1539 -0.6039  0.7397
25268SOL     OW80741   3.245   1.614   3.819  0.1617  0.0693 -0.0984
25268SOL    HW180742   3.206   1.686   3.868 -1.3803 -0.4651 -0.4818
25268SOL    HW280743   3.309   1.575   3.879  1.2333  1.8957  0.0086
25269SOL     OW80744   2.877   9.934  11.498 -0.4635 -0.1541 -0.3273
25269SOL    HW180745   2.876  10.007  11.559 -0.9106 -0.6766  0.3009
25269SOL    HW280746   2.965   9.937  11.458  0.4922 -0.8305  1.6138
25270SOL     OW80747   0.752   4.857   5.293 -0.4960 -0.3504 -0.3353
25270SOL    HW180748   0.683   4.803   5.332 -0.2863  0.9774  2.0523
25270SOL    HW280749   0.833   4.813   5.319 -0.3567  0.4946  0.7212
25271SOL     OW80750   7.508  10.523   6.957  0.0716  0.4457  0.2084
25271SOL    HW180751   7.532  10.505   7.049 -0.6513 -0.3856  0.2402
25271SOL    HW280752   7.558  10.459   6.907 -0.4992  0.0573  0.1247
25272SOL     OW80753   8.221  10.667  10.202  0.1969 -0.3088 -0.1246
25272SOL    HW180754   8.156  10.736  10.215  0.7682  0.3382 -0.6463
25272SOL    HW280755   8.172  10.586  10.215 -1.0823  0.1164 -1.8865
25273SOL     OW80756   5.359   4.499   6.461  0.0387  0.7556 -0.1103
25273SOL    HW180757   5.397   4.483   6.375  0.3290 -2.2193  0.4607
25273SOL    HW280758   5.423   4.465   6.523 -1.7500 -0.6928  1.0612
25274SOL     OW80759   3.773   4.306   6.599  0.2338  0.0892 -0.3220
25274SOL    HW180760   3.826   4.231   6.625 -1.7866 -1.1960  0.3735
25274SOL    HW280761   3.749   4.349   6.682  0.9033  1.1798 -0.6795
25275SOL     OW80762   1.865   2.050   4.483 -0.3344 -0.0925  0.1184
25275SOL    HW180763   1.864   1.956   4.466 -0.0871 -0.5580  2.3667
25275SOL    HW280764   1.835   2.058   4.574 -0.5578  2.0271 -0.0941
25276SOL     OW80765   1.205   9.789   0.457 -0.8109  0.6143 -0.7340
25276SOL    HW180766   1.236   9.835   0.535  0.6182 -1.2773 -0.1081
25276SOL    HW280767   1.132   9.842   0.425 -0.7115  2.0371  1.2340
25277SOL     OW80768   4.496   4.085  10.550 -0.3212 -0.0923 -0.3523
25277SOL    HW180769   4.543   4.068  10.632 -1.4761 -0.0066  0.3497
25277SOL    HW280770   4.420   4.136  10.576 -0.3003  0.6155 -1.5976
25278SOL     OW80771   7.623   0.272   2.535 -0.0504  0.1560 -0.1793
25278SOL    HW180772   7.687   0.343   2.529  0.9360 -0.6951 -0.0181
25278SOL    HW280773   7.538   0.316   2.539  0.6159  1.3836  1.3109
25279SOL     OW80774   2.071   9.458   3.408  0.2248 -0.3807 -0.0206
25279SOL    HW180775   2.038   9.370   3.427  0.3815 -0.7661 -1.4250
25279SOL    HW280776   2.149   9.443   3.355  1.5526  0.5655  1.5825
25280SOL     OW80777   1.690   3.927   1.700 -0.0825 -0.0893  0.6423
25280SOL    HW180778   1.768   3.876   1.678  0.6254  0.8549  0.8871
25280SOL    HW280779   1.668   3.974   1.620 -1.2177 -1.3649  0.1769
25281SOL     OW80780   6.829  10.685   3.901  0.4171  0.2799 -0.1942
25281SOL    HW180781   6.787  10.687   3.987 -0.5538 -0.4578 -0.6332
25281SOL    HW280782   6.800  10.766   3.858 -0.7684 -0.3295 -0.5766
25282SOL     OW80783   0.798   9.830   8.610  0.1286  0.6401  0.3834
25282SOL    HW180784   0.749   9.910   8.629  2.0052  1.4671  2.1167
25282SOL    HW280785   0.881   9.861   8.575  0.1957 -0.6563 -0.6765
25283SOL     OW80786   7.953  11.305   7.986  0.0781  0.8226 -0.1152
25283SOL    HW180787   7.969  11.388   8.030  1.8583  0.0911  0.7210
25283SOL    HW280788   8.028  11.294   7.928  0.4906 -0.6927  0.6393
25284SOL     OW80789   1.387   4.516   6.931 -0.0485 -0.2999 -0.7816
25284SOL    HW180790   1.445   4.586   6.901  1.5619 -0.1843  2.1866
25284SOL    HW280791   1.445   4.442   6.948 -1.1220 -0.9898  0.0568
25285SOL     OW80792   6.548   8.447   7.145 -0.4014  0.1991 -0.2712
25285SOL    HW180793   6.557   8.455   7.050 -0.0102  1.3693 -0.1473
25285SOL    HW280794   6.521   8.533   7.175 -1.1714 -0.3301  0.6208
25286SOL     OW80795  10.521   0.452   3.127  0.5224  0.1178  0.2517
25286SOL    HW180796  10.496   0.369   3.168 -1.0755  0.7530  0.6506
25286SOL    HW280797  10.525   0.432   3.033  1.6594 -0.7391  0.4546
25287SOL     OW80798   5.952   9.082   3.362 -0.0894  0.1958 -0.1223
25287SOL    HW180799   5.925   9.078   3.270 -1.1649 -1.4260  0.2190
25287SOL    HW280800   5.978   8.992   3.382  1.9664  0.8974  0.6686
25288SOL     OW80801   5.921   8.328   0.187  0.4789  0.0350 -0.3036
25288SOL    HW180802   5.983   8.390   0.148  0.2137 -0.9838 -2.4657
25288SOL    HW280803   5.972   8.282   0.254  2.3230 -1.1715 -2.3961
25289SOL     OW80804   5.653   2.734   2.321  0.0903  0.6063  0.4434
25289SOL    HW180805   5.662   2.715   2.414  1.4621  1.1412  0.4474
25289SOL    HW280806   5.575   2.789   2.315 -2.5128 -2.6975  0.7163
25290SOL     OW80807   1.057   6.365   5.850  0.4780  0.0513  0.0236
25290SOL    HW180808   1.098   6.451   5.857  1.8079 -0.5815  0.4497
25290SOL    HW280809   1.108   6.310   5.909 -1.4690 -0.6428  1.1406
25291SOL     OW80810   4.592   2.416   2.615 -0.2854  0.0067 -0.2591
25291SOL    HW180811   4.516   2.371   2.651  0.4109 -0.6316  0.4791
25291SOL    HW280812   4.564   2.507   2.605 -0.3043  0.4450  2.7687
25292SOL     OW80813  11.276   5.418  11.545  0.0771 -0.3527 -0.1439
25292SOL    HW180814  11.276   5.322  11.547 -1.2342 -0.5150 -2.8776
25292SOL    HW280815  11.193   5.441  11.504  0.5485  1.9574  0.0618
25293SOL     OW80816   8.225   6.741   3.327  0.1588  0.2238 -0.0021
25293SOL    HW180817   8.278   6.736   3.247 -0.0064  0.9239 -0.1639
25293SOL    HW280818   8.152   6.798   3.303 -0.6378 -0.6689  0.2381
25294SOL     OW80819   5.939   8.667   4.488  0.3877  0.2609  0.2511
25294SOL    HW180820   5.883   8.611   4.543  0.0887  0.8560  0.5693
25294SOL    HW280821   5.983   8.724   4.550  0.6584  0.4052 -0.0742
25295SOL     OW80822  11.091   5.888  10.569  0.1584  0.0139 -0.1213
25295SOL    HW180823  11.022   5.922  10.512 -0.2582 -1.2171 -0.3808
25295SOL    HW280824  11.160   5.955  10.566  0.0874  0.0428 -1.9490
25296SOL     OW80825   4.986   7.797   4.875 -0.0071  0.1372  0.3807
25296SOL    HW180826   5.065   7.785   4.929  0.5909 -0.5112 -0.6170
25296SOL    HW280827   5.013   7.772   4.787 -1.5644 -0.9222  0.1696
25297SOL     OW80828   8.283   3.153   2.079 -0.2818  0.6565  0.5855
25297SOL    HW180829   8.203   3.112   2.113  0.3464 -2.9107 -1.6971
25297SOL    HW280830   8.354   3.109   2.124  0.4328 -0.7809 -1.7685
25298SOL     OW80831   4.546   9.311   6.318  1.0241  0.2870 -0.2571
25298SOL    HW180832   4.540   9.238   6.380  1.2297  0.7577  0.3288
25298SOL    HW280833   4.457   9.345   6.311  0.4621 -1.3934 -2.2585
25299SOL     OW80834   2.762   3.437  11.198 -0.4163  0.1585  0.4530
25299SOL    HW180835   2.745   3.496  11.125 -0.2246  0.7548  0.8796
25299SOL    HW280836   2.834   3.381  11.168  0.0434  0.7784  0.3919
25300SOL     OW80837   8.644   6.287   5.168  0.2111  0.5618 -0.3397
25300SOL    HW180838   8.576   6.292   5.100 -1.5000 -1.0308  1.1351
25300SOL    HW280839   8.724   6.266   5.119 -1.0039 -0.7725 -1.8942
25301SOL     OW80840   9.217   4.466  10.558 -0.5202  0.2123 -0.3478
25301SOL    HW180841   9.121   4.464  10.556 -0.5817  0.8470  0.8441
25301SOL    HW280842   9.238   4.486  10.649  0.8107 -2.3970  0.0031
25302SOL     OW80843  11.526   3.757   6.811  0.1850 -0.1568  0.4837
25302SOL    HW180844  11.450   3.773   6.866  0.1813 -0.2165  0.4961
25302SOL    HW280845  11.551   3.844   6.778  0.5107 -0.0523  0.9992
25303SOL     OW80846   3.410   2.742   4.155 -0.1718  0.3076  0.2089
25303SOL    HW180847   3.474   2.706   4.094 -0.0876 -0.5882  0.8083
25303SOL    HW280848   3.379   2.666   4.205 -1.5101  0.7670  0.1128
25304SOL     OW80849   1.872  11.144   4.483 -0.3373  1.0214 -0.9949
25304SOL    HW180850   1.798  11.116   4.429 -0.3701  0.5535 -0.7077
25304SOL    HW280851   1.879  11.238   4.466 -1.2841  1.1646 -0.6854
25305SOL     OW80852   8.650   6.765   5.393  0.3398  0.1302  0.5134
25305SOL    HW180853   8.683   6.708   5.324  1.1475 -0.2580  1.2092
25305SOL    HW280854   8.638   6.708   5.468 -1.3635  0.3765  0.4754
25306SOL     OW80855  11.116   0.761   0.993 -0.2348  0.3904 -0.0383
25306SOL    HW180856  11.048   0.726   1.051 -0.4210 -0.2372 -0.6169
25306SOL    HW280857  11.071   0.824   0.937  0.2363  2.1608  1.4785
25307SOL     OW80858   5.108  10.725   8.896  0.5351  0.3767  0.6006
25307SOL    HW180859   5.150  10.672   8.828  2.9641  0.0077  2.2664
25307SOL    HW280860   5.178  10.780   8.930 -0.9305  1.5308  1.8955
25308SOL     OW80861  11.161  11.360   6.855  0.1908  0.0838 -0.2316
25308SOL    HW180862  11.227  11.314   6.802 -0.3683  0.6544 -1.4768
25308SOL    HW280863  11.160  11.449   6.819 -0.4667  0.3843  0.5178
25309SOL     OW80864   1.282   9.251   5.414  0.5504  0.2384 -0.2125
25309SOL    HW180865   1.323   9.238   5.500  1.5293 -0.2560 -0.7360
25309SOL    HW280866   1.279   9.164   5.375  3.3044  0.8347 -2.0620
25310SOL     OW80867  10.033   7.096   2.645  0.0856  0.2529 -0.1387
25310SOL    HW180868  10.035   7.156   2.570 -0.4886  1.6771  0.9384
25310SOL    HW280869   9.997   7.015   2.610  0.9159  0.4907 -1.6523
25311SOL     OW80870   7.663   1.539   5.248  0.4894  0.4525 -0.2177
25311SOL    HW180871   7.744   1.540   5.197 -1.0315  1.7687 -2.7500
25311SOL    HW280872   7.594   1.556   5.185 -1.9055 -1.3663  1.7281
25312SOL     OW80873   9.932   7.556   8.666  0.3806  0.4508 -0.1472
25312SOL    HW180874   9.994   7.526   8.600  0.2719  2.0106 -1.0114
25312SOL    HW280875   9.986   7.591   8.736  0.4937  1.0722 -0.5388
25313SOL     OW80876  10.012   6.199   9.302 -0.5738  0.2036  0.5305
25313SOL    HW180877   9.941   6.223   9.362 -1.0261  0.8654 -0.2413
25313SOL    HW280878   9.969   6.194   9.216 -0.0808 -1.4235  0.3566
25314SOL     OW80879   0.283   2.727   2.456 -0.5864  0.3338 -0.1137
25314SOL    HW180880   0.202   2.776   2.440  0.1367  1.3004 -0.9133
25314SOL    HW280881   0.269   2.686   2.541 -2.0672  0.1552 -0.3960
25315SOL     OW80882   6.058   6.127   3.575 -0.0877  0.1004  0.1809
25315SOL    HW180883   6.100   6.113   3.660  2.1463 -2.0933 -1.1429
25315SOL    HW280884   6.131   6.142   3.515 -1.4802 -0.0594 -1.6253
25316SOL     OW80885   0.184  10.409  10.743 -0.1570  0.1002 -0.0439
25316SOL    HW180886   0.155  10.500  10.735  0.1968  0.1650 -0.6364
25316SOL    HW280887   0.179  10.391  10.837  0.3673  0.9309  0.1535
25317SOL     OW80888   7.176   5.040   0.447 -0.1894  0.2944 -0.7066
25317SOL    HW180889   7.262   5.018   0.412 -0.2307 -3.0193  0.9696
25317SOL    HW280890   7.191   5.059   0.539 -1.1943  0.0302 -0.4739
25318SOL     OW80891   1.153  10.420   0.437 -0.1834 -0.7136 -0.2691
25318SOL    HW180892   1.231  10.385   0.394 -0.5039 -0.1238 -1.3651
25318SOL    HW280893   1.111  10.344   0.478 -0.4869 -1.5124 -1.9861
25319SOL     OW80894   1.100   6.437   1.806 -0.0083 -0.6489  0.1425
25319SOL    HW180895   1.112   6.522   1.848 -0.5970 -2.3167  4.0777
25319SOL    HW280896   1.031   6.452   1.741  0.0001  1.8637  0.6043
25320SOL     OW80897   1.073   2.547   9.763  0.3448 -0.5677  0.1190
25320SOL    HW180898   1.065   2.454   9.783  1.1599 -0.6016  0.3214
25320SOL    HW280899   1.017   2.561   9.687  0.0348 -1.1720  0.2325
25321SOL     OW80900   7.561   6.274   4.185 -0.7078  0.1089 -0.1639
25321SOL    HW180901   7.624   6.339   4.216  0.0684 -0.8658  0.3801
25321SOL    HW280902   7.572   6.273   4.090 -0.2179  0.2724 -0.1131
25322SOL     OW80903   5.009   4.098   1.803 -0.3476 -0.3813  0.2123
25322SOL    HW180904   4.944   4.048   1.853 -0.2497 -0.8661 -0.1373
25322SOL    HW280905   4.964   4.121   1.722 -1.0722  1.8357  1.1642
25323SOL     OW80906   3.165   0.724   5.984 -0.1302 -0.3048 -0.0830
25323SOL    HW180907   3.124   0.803   5.948  1.2363  1.4250  1.9557
25323SOL    HW280908   3.247   0.716   5.936  0.7020  0.7704  1.1115
25324SOL     OW80909   9.340   8.285   6.407 -0.3423 -0.5977  0.6657
25324SOL    HW180910   9.307   8.237   6.331 -0.4553 -2.1137  1.6305
25324SOL    HW280911   9.306   8.237   6.482  1.7746 -0.6083  1.6932
25325SOL     OW80912  10.988   2.489   2.442  0.0151  0.4527  0.0286
25325SOL    HW180913  11.061   2.432   2.418  0.1015  1.2852 -1.9183
25325SOL    HW280914  10.926   2.432   2.486  0.8257 -0.7918 -0.3886
25326SOL     OW80915   3.317   6.678  10.337 -0.0540 -0.3329  0.6012
25326SOL    HW180916   3.351   6.689  10.426 -0.4940 -0.7953  0.8311
25326SOL    HW280917   3.334   6.586  10.316  1.8130  0.1955 -0.5517
25327SOL     OW80918   8.260   8.155   2.196 -0.4245 -0.1906 -0.0342
25327SOL    HW180919   8.296   8.069   2.218 -0.0383  0.5610  2.4900
25327SOL    HW280920   8.171   8.154   2.231 -0.8895  0.0190 -1.1472
25328SOL     OW80921   6.126   4.770   2.507 -0.0235 -0.8073  0.9124
25328SOL    HW180922   6.032   4.787   2.514 -0.1432 -0.9228 -0.2214
25328SOL    HW280923   6.133   4.700   2.442  0.8905 -0.2530  0.3871
25329SOL     OW80924   1.352   2.509   6.989 -0.0584  0.0338 -0.2520
25329SOL    HW180925   1.441   2.496   7.023  0.7607  2.0077 -1.4285
25329SOL    HW280926   1.361   2.495   6.894 -0.3265  2.7746 -0.7813
25330SOL     OW80927   2.938   1.587   7.445 -0.8699 -0.2672  0.1463
25330SOL    HW180928   2.858   1.557   7.488 -1.2371 -0.1974 -0.4927
25330SOL    HW280929   2.954   1.674   7.482 -1.3571 -0.0763 -0.0959
25331SOL     OW80930   8.760  11.144   2.379  0.1553 -0.0588 -0.4310
25331SOL    HW180931   8.730  11.201   2.309  3.6164  3.8995  0.8999
25331SOL    HW280932   8.693  11.150   2.447 -0.3232  1.1365 -0.9977
25332SOL     OW80933   3.908   6.000  10.736  0.5010 -0.3183 -0.0647
25332SOL    HW180934   3.919   5.983  10.830 -0.6430 -0.1983  0.0977
25332SOL    HW280935   3.997   5.991  10.700  0.4828 -4.0378  0.4147
25333SOL     OW80936   0.070   2.056   3.294  0.1716 -0.6324 -0.3637
25333SOL    HW180937   0.127   2.050   3.217 -0.0592 -2.9770 -0.4209
25333SOL    HW280938   0.039   1.966   3.309 -1.5926  0.1399  1.1244
25334SOL     OW80939   8.114   2.982   6.064 -0.4759  0.0503  0.1413
25334SOL    HW180940   8.108   2.966   5.969  0.8809  0.3420 -0.0088
25334SOL    HW280941   8.090   3.074   6.074 -0.0043  0.1905  0.0008
25335SOL     OW80942   5.768   2.191   3.726  0.6669  0.4015 -0.0483
25335SOL    HW180943   5.679   2.188   3.689  0.4073  0.6755  0.5332
25335SOL    HW280944   5.807   2.269   3.687  0.0856  1.2046  0.8840
25336SOL     OW80945   4.010   5.404   5.518 -0.0691 -0.2682 -0.0035
25336SOL    HW180946   4.064   5.401   5.597 -1.2962  0.2084  0.8809
25336SOL    HW280947   3.921   5.383   5.548 -0.6550  0.4469 -1.1490
25337SOL     OW80948   0.376   9.712   4.009 -0.4337  0.7015  0.1872
25337SOL    HW180949   0.454   9.764   3.990 -1.4863  3.3297  2.3811
25337SOL    HW280950   0.399   9.664   4.089 -0.9346  1.2952  0.7007
25338SOL     OW80951   4.440  10.895   5.745 -0.0784 -0.3590  0.2379
25338SOL    HW180952   4.508  10.963   5.753  0.0523 -0.5291  0.5889
25338SOL    HW280953   4.484  10.822   5.702 -0.6503  0.3703 -1.6478
25339SOL     OW80954   4.976  10.149   9.693 -0.0661  0.0398 -0.2895
25339SOL    HW180955   4.955  10.056   9.683  3.8463 -1.0253 -0.5218
25339SOL    HW280956   4.941  10.190   9.614 -4.2334 -0.5468  1.0286
25340SOL     OW80957   0.322   0.355   2.450  0.2132 -0.3048  0.2744
25340SOL    HW180958   0.237   0.331   2.487  0.3576 -3.4304 -1.0628
25340SOL    HW280959   0.386   0.318   2.511  0.4965 -1.1750 -0.5134
25341SOL     OW80960   6.602   1.116  11.267  0.5128  0.3784 -0.1964
25341SOL    HW180961   6.594   1.197  11.218  1.9239 -0.6584 -2.3260
25341SOL    HW280962   6.693   1.090  11.255  0.0534 -1.6191  0.2119
25342SOL     OW80963   8.472   0.641   2.585  0.2238 -1.1685 -0.2085
25342SOL    HW180964   8.458   0.653   2.491 -0.9751  3.3633  0.3135
25342SOL    HW280965   8.392   0.599   2.616  0.1732 -1.7065 -1.0497
25343SOL     OW80966   2.402   7.404   8.028  0.1875 -0.2786 -0.2163
25343SOL    HW180967   2.425   7.491   8.061  0.4681 -0.6858  0.6708
25343SOL    HW280968   2.424   7.408   7.934 -1.7310  1.2578 -0.6639
25344SOL     OW80969   8.749   3.365   5.375  0.3968 -0.4542  0.1839
25344SOL    HW180970   8.762   3.447   5.421 -2.1025 -0.0417  0.2639
25344SOL    HW280971   8.677   3.382   5.314  0.7602 -2.1913 -0.8124
25345SOL     OW80972   7.241   4.483  11.198 -0.0371 -0.0714 -0.0551
25345SOL    HW180973   7.178   4.553  11.217 -0.8533 -0.2864 -1.7803
25345SOL    HW280974   7.225   4.461  11.107  1.9474 -0.7803 -0.2765
25346SOL     OW80975   8.111   5.217   9.523 -0.6326  0.4666  0.0112
25346SOL    HW180976   8.061   5.297   9.505 -1.2319 -0.1019 -0.9386
25346SOL    HW280977   8.200   5.248   9.539 -0.9177  1.3451 -0.0077
25347SOL     OW80978   7.271   1.428  10.348  0.2557 -0.6213  0.3779
25347SOL    HW180979   7.230   1.343  10.331  0.5389 -0.7922  0.5527
25347SOL    HW280980   7.221   1.464  10.421  0.6177 -0.9673  0.7971
25348SOL     OW80981   2.593   1.614   0.793 -0.6599 -0.1397  0.0782
25348SOL    HW180982   2.640   1.535   0.819 -0.8741  0.8116  4.0457
25348SOL    HW280983   2.500   1.591   0.804 -0.7678  0.3015  0.1227
25349SOL     OW80984   9.442   0.977   0.636  0.4077  0.1494  0.0788
25349SOL    HW180985   9.477   1.035   0.568 -0.1190  1.1470  0.6413
25349SOL    HW280986   9.519   0.949   0.685  0.5729  1.2477  0.4709
25350SOL     OW80987   4.947   6.615   5.958  0.8710 -0.3783  0.0648
25350SOL    HW180988   4.907   6.528   5.962 -1.4849  0.6731  1.8660
25350SOL    HW280989   4.928   6.646   5.869 -0.7337 -0.6738  0.2725
25351SOL     OW80990   4.012  11.224   9.364  0.0819 -0.3257 -0.4989
25351SOL    HW180991   3.977  11.297   9.415 -0.7772  2.3298 -4.4197
25351SOL    HW280992   4.104  11.245   9.352 -0.0270 -0.1550 -1.1018
25352SOL     OW80993   5.026  10.973   6.088  0.8698 -0.2176 -0.3852
25352SOL    HW180994   5.014  10.889   6.046  1.0746 -0.1961 -0.4902
25352SOL    HW280995   4.946  11.022   6.070 -0.4453 -1.3527  1.9754
25353SOL     OW80996   3.435   8.624   6.209  0.8732  0.3065 -0.3745
25353SOL    HW180997   3.399   8.597   6.125 -2.0238  1.9123  0.2102
25353SOL    HW280998   3.437   8.720   6.205 -0.2795  0.4896  1.6509
25354SOL     OW80999  10.762   1.441   3.553 -0.0779 -0.1334 -0.0140
25354SOL    HW181000  10.764   1.491   3.635  0.2916 -0.7793  0.3884
25354SOL    HW281001  10.700   1.487   3.498  1.6799  1.9007 -0.4058
25355SOL     OW81002   4.532   5.692   0.318 -0.4688 -0.5000  0.3624
25355SOL    HW181003   4.510   5.784   0.335 -0.1908 -0.0407 -1.4848
25355SOL    HW281004   4.447   5.647   0.316 -0.7116 -0.0451  0.0929
25356SOL     OW81005  11.131   9.418   0.340  0.0739  0.1075  0.7708
25356SOL    HW181006  11.165   9.471   0.268  0.5139 -0.8641  0.2437
25356SOL    HW281007  11.093   9.482   0.401 -1.0392  0.9006 -0.7000
25357SOL     OW81008   0.197  11.645   9.287 -0.6034  0.3364  0.7570
25357SOL    HW181009   0.267  11.586   9.258 -0.5859  0.0424  1.3639
25357SOL    HW281010   0.238  11.731   9.291  0.0185  0.0025  2.0755
25358SOL     OW81011   6.624   3.122   9.730  0.0551  0.2057  0.2251
25358SOL    HW181012   6.608   3.124   9.636  0.3479 -4.1282 -0.1105
25358SOL    HW281013   6.719   3.116   9.739  0.2570  3.0685  1.0578
25359SOL     OW81014   6.280   8.297   9.059  0.4648 -0.5085 -0.3346
25359SOL    HW181015   6.241   8.357   9.123 -0.6095 -0.2813 -1.1749
25359SOL    HW281016   6.367   8.333   9.042  0.3129  0.0865  0.1257
25360SOL     OW81017   4.874   1.647   8.019 -0.1550  0.0139 -0.2266
25360SOL    HW181018   4.900   1.638   8.111  1.1907 -0.4719 -0.6254
25360SOL    HW281019   4.813   1.721   8.019  0.8629  0.9068  0.8716
25361SOL     OW81020   7.237   5.719   4.694 -0.2300 -0.2470 -0.0253
25361SOL    HW181021   7.228   5.804   4.736  1.2475 -0.4457  0.7831
25361SOL    HW281022   7.193   5.728   4.610 -1.0169  0.9716  0.4971
25362SOL     OW81023  10.676   1.159   2.051 -0.2048  0.4242 -0.0775
25362SOL    HW181024  10.680   1.122   1.962 -0.4758  0.1115  0.0387
25362SOL    HW281025  10.767   1.160   2.081  0.3394  3.2688 -1.4607
25363SOL     OW81026   4.857   9.549   2.444 -0.0307  0.3564 -0.9062
25363SOL    HW181027   4.847   9.457   2.420 -3.8749  0.5294 -0.6493
25363SOL    HW281028   4.879   9.548   2.537 -1.4585 -0.3781 -0.5419
25364SOL     OW81029   3.346   6.945   7.225  0.3620  0.2911  0.4503
25364SOL    HW181030   3.362   6.942   7.131 -1.2403 -0.8845  0.1640
25364SOL    HW281031   3.424   6.906   7.264  0.4951 -0.4290 -0.4948
25365SOL     OW81032   4.522   1.479   8.623  0.4599  0.6245 -0.2449
25365SOL    HW181033   4.527   1.485   8.719 -0.2608  0.5421 -0.2019
25365SOL    HW281034   4.546   1.389   8.603 -1.8207 -0.1044  0.0479
25366SOL     OW81035   5.808   7.813   5.003  0.1626 -0.5305 -0.5451
25366SOL    HW181036   5.891   7.765   5.012 -0.2972 -1.1601  0.5577
25366SOL    HW281037   5.759   7.791   5.083 -0.2960  1.3559 -0.2638
25367SOL     OW81038   1.652   3.249   7.850  0.1147 -0.0709  0.0358
25367SOL    HW181039   1.712   3.240   7.776 -0.6284 -2.3664 -0.3899
25367SOL    HW281040   1.566   3.262   7.810 -0.1422 -0.2666  0.5152
25368SOL     OW81041   5.444   2.027   3.604  0.2174  0.3323 -0.4019
25368SOL    HW181042   5.353   2.013   3.578  0.6303  0.8492 -2.2241
25368SOL    HW281043   5.496   1.991   3.533  1.5184 -1.1070  1.1809
25369SOL     OW81044  10.372   8.854  10.835  0.1858 -0.5927  0.5107
25369SOL    HW181045  10.426   8.855  10.914  0.7993 -1.0496  0.1092
25369SOL    HW281046  10.287   8.886  10.863  0.6137 -0.0371  1.1989
25370SOL     OW81047   3.200  10.606   8.738  0.0585  0.5631 -0.0964
25370SOL    HW181048   3.246  10.690   8.737 -1.8294  1.6557 -0.9358
25370SOL    HW281049   3.147  10.609   8.818  0.8394 -0.3681  0.4809
25371SOL     OW81050   2.759   9.537  11.345  0.3828  0.6311  0.4105
25371SOL    HW181051   2.816   9.542  11.268 -1.4966  1.8907 -1.0081
25371SOL    HW281052   2.671   9.551  11.310 -0.9152 -1.7548  2.4204
25372SOL     OW81053   7.027   5.260   0.449 -0.1874 -0.4021  0.3920
25372SOL    HW181054   7.079   5.180   0.450 -0.1992 -0.4283 -0.3695
25372SOL    HW281055   7.085   5.327   0.412 -1.4135 -0.9990 -3.0136
25373SOL     OW81056   5.493   8.812   1.381 -0.6039 -0.5116  0.0811
25373SOL    HW181057   5.525   8.893   1.341 -3.2340  0.1838 -0.8719
25373SOL    HW281058   5.508   8.745   1.314  1.6989 -0.9371  0.9223
25374SOL     OW81059   4.277   7.434   9.147  0.2368 -0.2459  0.2021
25374SOL    HW181060   4.252   7.368   9.212  1.9183 -3.4437 -2.1265
25374SOL    HW281061   4.363   7.465   9.176  0.4474 -0.7738  0.1569
25375SOL     OW81062   9.804   7.756   9.392 -0.4697 -0.2201 -0.2825
25375SOL    HW181063   9.766   7.818   9.455 -0.5300  0.2110 -0.7333
25375SOL    HW281064   9.754   7.676   9.404 -0.5669 -0.1007  0.1294
25376SOL     OW81065   6.195   5.985   2.198  0.1462 -0.3001  0.2625
25376SOL    HW181066   6.206   6.001   2.292 -1.8221 -0.3949  0.5558
25376SOL    HW281067   6.229   6.063   2.156  0.9770 -0.2215  1.0604
25377SOL     OW81068   8.240   7.383   5.763  0.0372  0.3801 -0.2373
25377SOL    HW181069   8.174   7.332   5.715  2.6354 -2.8499 -0.7822
25377SOL    HW281070   8.211   7.473   5.756 -2.7271 -0.5467 -3.0050
25378SOL     OW81071   6.083   5.144   9.406 -0.1173 -0.3019  0.3516
25378SOL    HW181072   6.067   5.142   9.500  1.6652  1.0475  0.7364
25378SOL    HW281073   6.006   5.187   9.369 -0.9488 -1.0819  1.1497
25379SOL     OW81074   6.665  10.359   5.869  0.2398 -0.1114  0.4606
25379SOL    HW181075   6.663  10.436   5.927  1.1216  1.4970 -1.5116
25379SOL    HW281076   6.635  10.392   5.784  0.3240 -2.0413 -0.3706
25380SOL     OW81077  10.989   0.250   2.235  0.3884 -0.1812  0.4259
25380SOL    HW181078  10.932   0.268   2.311  1.3230 -0.4993  1.2199
25380SOL    HW281079  10.941   0.287   2.161 -0.7230 -0.1834  1.1132
25381SOL     OW81080   4.688   6.708   1.701  0.3121 -0.2504  0.2505
25381SOL    HW181081   4.725   6.773   1.642  0.3422 -0.9784 -0.5419
25381SOL    HW281082   4.676   6.629   1.647  0.6701 -1.0387  1.2907
25382SOL     OW81083   7.789  11.224   7.004 -0.0544  0.7238 -0.5695
25382SOL    HW181084   7.842  11.289   6.957 -0.7282 -1.0700 -4.0554
25382SOL    HW281085   7.852  11.178   7.059  1.5919  0.3543 -2.6626
25383SOL     OW81086   4.180   0.636   0.494  0.5339 -0.4874  0.5811
25383SOL    HW181087   4.138   0.688   0.563  1.7911 -1.2076  1.9496
25383SOL    HW281088   4.145   0.671   0.413 -3.2184 -1.3997  1.5707
25384SOL     OW81089   5.945  10.183  10.676 -0.1304  0.0026 -0.6481
25384SOL    HW181090   6.017  10.223  10.726 -1.7820  1.7630  0.4627
25384SOL    HW281091   5.871  10.183  10.737 -1.4587 -0.4764 -2.1922
25385SOL     OW81092   0.217   9.679   6.138  0.3223 -0.3700 -0.2569
25385SOL    HW181093   0.285   9.622   6.102 -0.8342 -1.2356 -1.1499
25385SOL    HW281094   0.137   9.650   6.095 -0.0685  3.1887 -2.2145
25386SOL     OW81095   8.544   5.547   7.702  0.6269  0.0222  0.4969
25386SOL    HW181096   8.566   5.621   7.646  0.2747 -0.3157 -0.0958
25386SOL    HW281097   8.569   5.469   7.651 -0.1371 -0.3022  0.5972
25387SOL     OW81098   3.921   8.219   3.321  0.1003  0.1353 -0.1886
25387SOL    HW181099   3.892   8.130   3.303 -0.4927  0.1241  0.7524
25387SOL    HW281100   3.895   8.269   3.243 -1.0301 -0.2037 -0.0522
25388SOL     OW81101   0.515  10.991   7.643 -0.3324 -0.1482  0.3108
25388SOL    HW181102   0.534  10.907   7.684  1.4643  1.2818  2.6835
25388SOL    HW281103   0.432  11.019   7.682 -0.5283 -0.4542  0.1166
25389SOL     OW81104   0.394   7.352   4.600 -0.1770 -0.1603 -0.1392
25389SOL    HW181105   0.312   7.303   4.594 -0.3160 -0.3504  2.2509
25389SOL    HW281106   0.367   7.443   4.611 -0.2394 -0.4450  2.7821
25390SOL     OW81107  10.892   1.391  10.673  0.0722 -0.0308  0.3642
25390SOL    HW181108  10.921   1.302  10.652  0.6576 -0.4143  2.5550
25390SOL    HW281109  10.803   1.380  10.705  0.0128  0.2308  0.2900
25391SOL     OW81110   4.921   5.378  10.082 -0.0236  0.0542 -0.6850
25391SOL    HW181111   5.012   5.365  10.108  0.1286  3.5133  1.0996
25391SOL    HW281112   4.869   5.337  10.151  0.2913  1.2248  0.2824
25392SOL     OW81113   9.093   6.331   8.425 -0.4277 -0.1347 -0.1659
25392SOL    HW181114   9.010   6.295   8.395 -0.3347 -0.3438 -0.1790
25392SOL    HW281115   9.075   6.423   8.443 -0.6076 -0.1271 -0.3803
25393SOL     OW81116  10.245  11.590   0.912 -0.1925 -0.4436 -0.6386
25393SOL    HW181117  10.322  11.564   0.963 -0.2718  0.1742 -0.1906
25393SOL    HW281118  10.216  11.672   0.952  0.4217  0.6961 -2.3822
25394SOL     OW81119   1.766   6.628   3.283 -0.4301  0.1478 -0.3202
25394SOL    HW181120   1.707   6.637   3.358  0.9793  2.7166  0.6052
25394SOL    HW281121   1.851   6.658   3.316  0.1619  1.6839 -3.0023
25395SOL     OW81122   9.049   7.747  10.980 -0.3195  0.2800  0.2706
25395SOL    HW181123   8.972   7.760  10.926 -1.1047 -1.5760  0.8581
25395SOL    HW281124   9.015   7.735  11.069  0.5459 -1.1108  0.4619
25396SOL     OW81125   1.500   0.130   8.284 -0.1086  0.3901  0.1534
25396SOL    HW181126   1.500   0.222   8.259  0.4963  0.2051 -0.5700
25396SOL    HW281127   1.563   0.124   8.356  0.6667  0.3761 -0.5048
25397SOL     OW81128   1.433   3.740  10.844 -0.4553  0.5714  0.0127
25397SOL    HW181129   1.390   3.681  10.905 -2.3886  2.1262  0.2285
25397SOL    HW281130   1.527   3.729  10.863 -0.7952 -1.5819  0.7568
25398SOL     OW81131   9.817   0.850  10.630 -0.0868  0.8386  0.0781
25398SOL    HW181132   9.849   0.805  10.708  0.2584  0.4699 -0.2765
25398SOL    HW281133   9.862   0.935  10.632  1.7069 -0.0449 -0.9409
25399SOL     OW81134   3.881   9.105   4.368 -0.1726 -0.0232 -0.3121
25399SOL    HW181135   3.850   9.046   4.299  2.4390 -2.3495  0.3409
25399SOL    HW281136   3.975   9.087   4.375  0.1693  2.1593  1.9537
25400SOL     OW81137   4.499   1.731  10.029 -0.1405 -0.4217  0.0764
25400SOL    HW181138   4.580   1.757   9.986 -0.2509 -0.6535 -0.2812
25400SOL    HW281139   4.523   1.715  10.120  0.1654 -0.2546  0.0234
25401SOL     OW81140   0.342   0.989   2.744  0.5347  0.1959 -0.3036
25401SOL    HW181141   0.398   1.006   2.668  1.6385  0.9078  0.6322
25401SOL    HW281142   0.257   0.964   2.706  1.2119 -0.0248 -1.7559
25402SOL     OW81143   3.786   8.883  10.615  0.0658 -0.0348  1.0365
25402SOL    HW181144   3.798   8.949  10.547 -0.4112  1.1186  2.0423
25402SOL    HW281145   3.805   8.800  10.571  1.0408  0.7871 -0.1644
25403SOL     OW81146   2.975   7.764   1.247 -0.2795 -0.4982  0.0037
25403SOL    HW181147   3.032   7.736   1.319 -0.0065  0.5073  0.2028
25403SOL    HW281148   2.961   7.685   1.195  0.8708 -0.8869  0.2523
25404SOL     OW81149  10.912   5.013   6.765 -0.4623  0.6070  0.1232
25404SOL    HW181150  10.824   4.986   6.740 -0.0802  0.7130 -1.4159
25404SOL    HW281151  10.958   4.931   6.782 -1.2825  0.5747  2.6961
25405SOL     OW81152  10.044   9.596   7.511 -0.6518  0.0071  0.2639
25405SOL    HW181153  10.138   9.582   7.526 -0.6800 -0.5709 -0.0810
25405SOL    HW281154  10.037   9.688   7.486  0.0381 -0.3556 -1.3942
25406SOL     OW81155   4.801   3.075   5.626  0.2442 -0.0638  0.8785
25406SOL    HW181156   4.709   3.099   5.630  0.6729  1.8456  0.2138
25406SOL    HW281157   4.816   3.024   5.706 -1.3911 -0.4961  0.9383
25407SOL     OW81158   4.936   8.616  10.788  0.2284  0.8694 -0.3963
25407SOL    HW181159   4.907   8.659  10.707 -2.2001  1.6309  0.7696
25407SOL    HW281160   4.896   8.668  10.858  0.9554 -0.6789  1.2360
25408SOL     OW81161   1.602   1.326   8.136  0.2760  0.7263  0.1130
25408SOL    HW181162   1.573   1.261   8.071 -3.5074  1.3222  0.9398
25408SOL    HW281163   1.567   1.409   8.103 -0.1351  1.3416  1.9897
25409SOL     OW81164   0.035   8.607   5.162 -0.1964  0.7280 -0.7534
25409SOL    HW181165  -0.010   8.544   5.219  0.5929  0.5731 -0.2903
25409SOL    HW281166   0.088   8.552   5.103  0.1577  0.9398 -0.6344
25410SOL     OW81167   2.333   0.332   2.460 -0.3534  0.0295 -0.0596
25410SOL    HW181168   2.365   0.387   2.531  1.3323 -0.7821 -0.1098
25410SOL    HW281169   2.291   0.392   2.399 -0.9048  0.8717  1.1195
25411SOL     OW81170   9.990   9.652   5.800 -0.0009 -0.1706 -0.2765
25411SOL    HW181171   9.916   9.594   5.780 -0.1866 -0.0350  0.0100
25411SOL    HW281172  10.065   9.609   5.760 -0.0043 -1.0014  0.5763
25412SOL     OW81173   7.690   7.690   7.998 -0.1176  0.5205  0.0276
25412SOL    HW181174   7.735   7.770   8.025  3.0906 -0.3842 -2.0421
25412SOL    HW281175   7.694   7.634   8.076  1.4627  0.8726  0.2407
25413SOL     OW81176   8.474   1.430  11.185 -0.2698 -0.2829  0.4802
25413SOL    HW181177   8.434   1.387  11.109 -1.2092  1.3158  0.0396
25413SOL    HW281178   8.557   1.384  11.197  0.2396 -0.1388 -1.9503
25414SOL     OW81179   7.451   2.891   6.265 -0.2772 -0.0025  0.6406
25414SOL    HW181180   7.358   2.889   6.285 -0.4328 -1.1126 -0.1083
25414SOL    HW281181   7.494   2.874   6.349 -0.8384 -1.7848  0.6167
25415SOL     OW81182   2.681   0.340   9.510 -0.3140 -0.0923  0.6619
25415SOL    HW181183   2.677   0.364   9.418  2.4699  1.0813  0.7479
25415SOL    HW281184   2.749   0.272   9.514 -1.2865 -1.0356  1.7019
25416SOL     OW81185   9.324  10.887   1.133 -0.3188 -0.0720  0.1149
25416SOL    HW181186   9.415  10.904   1.107  0.6867 -3.8648  0.4825
25416SOL    HW281187   9.318  10.923   1.222  1.5934 -1.5271  0.9212
25417SOL     OW81188   3.604   1.616   2.634  0.1379  0.1352 -0.1254
25417SOL    HW181189   3.684   1.580   2.595  1.4806  0.1037  2.4577
25417SOL    HW281190   3.589   1.698   2.586  2.4179  0.7294  0.0478
25418SOL     OW81191   1.003   6.345   6.288 -0.2021  0.0342  0.4251
25418SOL    HW181192   0.998   6.436   6.316 -0.3191 -0.3194  1.6107
25418SOL    HW281193   0.935   6.336   6.221  0.2788  0.9801 -0.2059
25419SOL     OW81194   2.145   2.739   1.479  0.0094  0.0812 -0.3674
25419SOL    HW181195   2.112   2.664   1.430 -2.1786  0.8631 -0.2040
25419SOL    HW281196   2.078   2.756   1.546  1.5554  0.7922  1.0701
25420SOL     OW81197   6.744   6.724  10.864 -0.4032 -0.6977  0.2022
25420SOL    HW181198   6.775   6.797  10.918 -2.1700  1.0027 -0.9436
25420SOL    HW281199   6.823   6.676  10.842  0.8383  0.8215  1.0819
25421SOL     OW81200   9.998   9.429   9.604 -0.3608 -0.5825  0.2804
25421SOL    HW181201   9.997   9.488   9.529 -0.0182 -2.9808 -1.7139
25421SOL    HW281202   9.918   9.377   9.595 -0.6874 -0.4536  2.0178
25422SOL     OW81203   0.940   5.586   0.119 -0.3281 -0.3454 -0.6038
25422SOL    HW181204   0.977   5.500   0.100 -4.2324 -2.4311  0.2748
25422SOL    HW281205   0.951   5.597   0.214 -2.0921 -1.1683 -0.2641
25423SOL     OW81206   0.249   5.730   3.593 -0.5627  0.2708  0.0522
25423SOL    HW181207   0.182   5.794   3.568 -1.6255  0.3513  2.8219
25423SOL    HW281208   0.322   5.748   3.533 -1.1902  3.4564  0.0469
25424SOL     OW81209   5.061   8.607   6.112  0.0268  0.1828 -0.2312
25424SOL    HW181210   5.001   8.619   6.186 -0.0006 -1.8490  0.1250
25424SOL    HW281211   5.014   8.641   6.036 -0.4300  1.1665  0.4640
25425SOL     OW81212   2.947   6.167   0.294  0.1170  0.3279 -0.2024
25425SOL    HW181213   3.018   6.104   0.300  0.7926  1.0174 -0.8159
25425SOL    HW281214   2.887   6.131   0.228  0.3464  0.1789 -0.3274
25426SOL     OW81215  11.191   4.925  11.415  0.3101  0.4275 -0.3018
25426SOL    HW181216  11.235   4.929  11.329  0.5238 -1.4591 -0.3131
25426SOL    HW281217  11.151   4.838  11.418  1.6345 -0.1895  2.1361
25427SOL     OW81218   5.079   2.073   4.942 -0.5490  0.3952 -0.1163
25427SOL    HW181219   5.092   1.979   4.933  0.6831  0.0873  3.3334
25427SOL    HW281220   4.986   2.087   4.921 -0.8588 -1.6488 -0.3040
25428SOL     OW81221   7.165   9.468   0.209  0.1438 -0.0510 -0.2779
25428SOL    HW181222   7.121   9.501   0.131 -0.5552  0.5199  0.3464
25428SOL    HW281223   7.230   9.406   0.175  0.3846  0.7621 -1.3644
25429SOL     OW81224   1.906   4.431   8.867 -0.6193  0.4698 -0.1723
25429SOL    HW181225   1.935   4.392   8.950  0.0167 -1.0719 -1.0661
25429SOL    HW281226   1.986   4.441   8.816 -1.2407 -1.0593 -1.5579
25430SOL     OW81227   4.794   8.228   6.552 -0.2999  0.1876 -0.0454
25430SOL    HW181228   4.815   8.161   6.617  1.0078 -0.6027 -1.2273
25430SOL    HW281229   4.879   8.263   6.526 -0.8822  1.3077 -0.4927
25431SOL     OW81230   6.711   5.148   4.067 -0.2863 -0.1214 -1.0932
25431SOL    HW181231   6.761   5.103   4.135 -0.5735 -1.1593 -1.5449
25431SOL    HW281232   6.650   5.204   4.116  0.2190 -0.0603 -0.5179
25432SOL     OW81233   9.381   0.857   1.381  0.1136 -0.0107 -0.5257
25432SOL    HW181234   9.414   0.932   1.332 -0.8670  1.7493  1.3350
25432SOL    HW281235   9.286   0.871   1.385  0.0787 -0.5087  1.1346
25433SOL     OW81236   7.175  10.501   0.453  0.1594  0.2835 -0.1138
25433SOL    HW181237   7.193  10.553   0.374  1.1909  0.8689  0.4891
25433SOL    HW281238   7.261  10.478   0.487 -0.2857 -1.5346 -0.1473
25434SOL     OW81239   8.296   8.413   3.898  0.6909  0.5676 -0.0200
25434SOL    HW181240   8.202   8.400   3.909  1.0484 -1.4957  0.8499
25434SOL    HW281241   8.304   8.447   3.808 -0.9119  1.6000  0.1729
25435SOL     OW81242   3.984   5.975   3.840 -0.5366  0.6537 -0.2128
25435SOL    HW181243   4.025   5.943   3.920 -0.1873 -0.6892 -0.8851
25435SOL    HW281244   3.897   6.003   3.867 -0.7357 -0.5814  0.5207
25436SOL     OW81245   1.455   1.324   6.428 -0.2977  0.1190  0.1965
25436SOL    HW181246   1.512   1.400   6.438 -1.0435  0.7983 -0.5380
25436SOL    HW281247   1.506   1.262   6.375  0.2690  0.1461  0.7032
25437SOL     OW81248   7.315   5.944   2.088  0.7703  0.3414  1.0245
25437SOL    HW181249   7.271   5.881   2.031  2.5251 -0.7993  0.8692
25437SOL    HW281250   7.315   6.026   2.037  0.6500 -0.1668  0.1814
25438SOL     OW81251  11.532   0.473   0.614 -0.4379  0.1047 -0.2242
25438SOL    HW181252  11.506   0.450   0.704  2.5225  2.5813  1.4866
25438SOL    HW281253  11.588   0.400   0.586 -0.0771  0.0299  0.6365
25439SOL     OW81254   9.778   7.145   9.866  0.0508  0.1824  0.1224
25439SOL    HW181255   9.772   7.210   9.935  2.7348  0.9119 -0.2297
25439SOL    HW281256   9.825   7.072   9.905  3.1282  1.2742 -1.2394
25440SOL     OW81257   1.239   3.894   5.717 -0.0041  0.4887  0.1643
25440SOL    HW181258   1.203   3.904   5.805  0.2799 -1.4262  0.5469
25440SOL    HW281259   1.210   3.973   5.670 -1.4449  0.8317  1.5289
25441SOL     OW81260  11.541   0.198   6.006 -0.1453 -0.2218  0.0228
25441SOL    HW181261  11.598   0.264   5.967  1.1066 -0.0942  1.9248
25441SOL    HW281262  11.457   0.244   6.018  0.0343  0.3170 -0.7043
25442SOL     OW81263   8.946   4.778   6.492 -0.2460 -0.1996  0.1979
25442SOL    HW181264   8.936   4.691   6.531 -3.5803 -0.3277 -0.7118
25442SOL    HW281265   9.007   4.765   6.419 -0.7900 -1.7942 -0.0024
25443SOL     OW81266   7.790   5.414   3.706  0.0291 -0.0029  0.0143
25443SOL    HW181267   7.819   5.477   3.773 -0.4347  0.7473 -0.4746
25443SOL    HW281268   7.826   5.330   3.735  0.6010  0.4721  0.7196
25444SOL     OW81269   4.633   9.784   8.226  0.0441 -0.2680  0.1130
25444SOL    HW181270   4.584   9.866   8.221  0.1145 -0.2665 -0.7484
25444SOL    HW281271   4.724   9.810   8.212  0.0525 -0.5042 -0.2945
25445SOL     OW81272   0.939   9.986   1.364  0.3692  0.4731 -0.6227
25445SOL    HW181273   0.994   9.929   1.417  0.6102  1.5712  0.3435
25445SOL    HW281274   0.899   9.928   1.299 -1.7864 -1.4022  2.1362
25446SOL     OW81275  10.512   9.713   3.978 -0.0020 -0.6819 -0.2541
25446SOL    HW181276  10.425   9.697   3.942 -0.0063  0.6948 -0.9179
25446SOL    HW281277  10.552   9.774   3.917  0.7988  0.0216  0.9411
25447SOL     OW81278  11.220  10.808   1.825  0.3826  0.6157  0.0473
25447SOL    HW181279  11.273  10.868   1.772 -0.5987  0.5607 -1.0236
25447SOL    HW281280  11.176  10.752   1.761 -0.6069  0.3506  0.9403
25448SOL     OW81281   4.706   0.845   1.837  0.2579  0.4780 -0.2049
25448SOL    HW181282   4.641   0.900   1.882  1.9125  3.6009 -1.3146
25448SOL    HW281283   4.673   0.839   1.747 -0.0656 -0.7228 -0.0279
25449SOL     OW81284   6.663   4.509   6.703  0.2726 -0.2872 -0.4855
25449SOL    HW181285   6.627   4.539   6.620 -0.6071 -1.8172 -0.6973
25449SOL    HW281286   6.664   4.414   6.696  1.8077 -0.3868  0.6105
25450SOL     OW81287   0.067   0.013   8.878 -0.9392  0.5996  0.1268
25450SOL    HW181288   0.113   0.092   8.851 -2.7104  1.2714 -1.1161
25450SOL    HW281289  -0.026   0.034   8.865 -1.4329 -1.9097 -0.9511
25451SOL     OW81290   7.725   8.718  11.531  0.6790  0.0045 -0.1964
25451SOL    HW181291   7.634   8.738  11.506  0.5937 -1.3566 -1.0917
25451SOL    HW281292   7.746   8.638  11.482  1.8717 -0.5444  1.1469
25452SOL     OW81293   9.636  11.281   9.315  0.2222  0.4125  0.4544
25452SOL    HW181294   9.543  11.259   9.313 -0.0151  1.3612  0.6372
25452SOL    HW281295   9.648  11.330   9.397  0.7373  0.8927  0.1004
25453SOL     OW81296   6.177   5.481   6.513 -0.7090 -0.7122  0.4916
25453SOL    HW181297   6.210   5.420   6.446  1.2853  0.1892  0.5838
25453SOL    HW281298   6.085   5.492   6.492 -0.7623 -2.5633 -0.4526
25454SOL     OW81299   9.720   9.235   3.389 -0.5621 -0.6902  0.2918
25454SOL    HW181300   9.695   9.149   3.354 -2.5751  0.0377 -0.1320
25454SOL    HW281301   9.638   9.282   3.400  0.2397  0.2536  3.0915
25455SOL     OW81302   5.264   8.815   0.339 -0.2851 -0.0816  0.5056
25455SOL    HW181303   5.248   8.888   0.400 -1.6903 -1.3289  1.7132
25455SOL    HW281304   5.270   8.738   0.395 -0.6066 -1.1483 -0.8693
25456SOL     OW81305   7.947   6.862   2.428 -0.1922 -0.1665 -0.4913
25456SOL    HW181306   7.974   6.851   2.337 -0.7138 -0.1254 -0.6587
25456SOL    HW281307   7.851   6.870   2.423 -0.3283 -1.2895  0.1661
25457SOL     OW81308  10.051   5.357   1.174 -0.6040  0.4733  0.5664
25457SOL    HW181309  10.105   5.285   1.142 -0.3716  0.5615  0.7566
25457SOL    HW281310  10.043   5.342   1.268 -2.9969 -0.9447  0.2326
25458SOL     OW81311   6.442   0.175   4.604 -0.0332 -0.6918  0.4937
25458SOL    HW181312   6.430   0.261   4.564 -2.1555 -0.8507  0.6655
25458SOL    HW281313   6.474   0.193   4.692 -1.4841  0.0127  0.9021
25459SOL     OW81314   8.742   2.103   4.730 -0.1212 -0.2256 -0.4512
25459SOL    HW181315   8.787   2.178   4.691 -1.1351 -0.0712 -1.3759
25459SOL    HW281316   8.669   2.142   4.778  1.0682 -0.4150  1.6582
25460SOL     OW81317   2.830   1.621  11.689  0.1327  0.4202 -0.5115
25460SOL    HW181318   2.901   1.657  11.742 -0.2060  2.2865 -1.2299
25460SOL    HW281319   2.760   1.605  11.751  1.1992 -1.6458  0.2434
25461SOL     OW81320   4.692   7.451   3.324  0.7307 -0.2140  0.2378
25461SOL    HW181321   4.766   7.506   3.349 -1.3735  1.9975  2.0325
25461SOL    HW281322   4.649   7.429   3.407 -0.4696 -1.7075 -0.7176
25462SOL     OW81323   9.037   0.176   0.009 -0.0157  0.0757 -0.0240
25462SOL    HW181324   9.033   0.084  -0.017 -0.5847 -0.2411  1.1126
25462SOL    HW281325   9.055   0.223  -0.072  0.1265 -1.0194 -0.6509
25463SOL     OW81326  10.475   6.656   7.115  0.3786  0.2310  0.4767
25463SOL    HW181327  10.485   6.690   7.204  0.1616  0.7409  0.3109
25463SOL    HW281328  10.562   6.621   7.092  0.8535  1.4460  0.3446
25464SOL     OW81329   2.987  11.478   7.971  0.2973 -0.5082  0.1643
25464SOL    HW181330   2.952  11.505   7.886 -0.0480  1.8337  0.9948
25464SOL    HW281331   2.920  11.504   8.034  0.5635 -2.1780  1.2134
25465SOL     OW81332  10.769   2.237   2.437 -0.4044  0.0952  0.2778
25465SOL    HW181333  10.798   2.258   2.526 -1.0948  0.4221  0.4359
25465SOL    HW281334  10.829   2.169   2.408 -0.2400 -0.0988  1.0403
25466SOL     OW81335   8.772   3.392   8.751  0.1849 -0.1127  0.5687
25466SOL    HW181336   8.766   3.411   8.657  0.7315 -1.9090  0.1252
25466SOL    HW281337   8.807   3.472   8.790 -2.5585  1.6596 -0.3326
25467SOL     OW81338   1.084   1.497  11.526 -0.0301 -0.5071  0.0543
25467SOL    HW181339   1.003   1.450  11.509 -0.2736  0.0602 -0.3804
25467SOL    HW281340   1.148   1.428  11.547 -0.2949 -1.0592 -0.9076
25468SOL     OW81341   1.478  10.142   4.496  0.1750 -0.1122 -0.6353
25468SOL    HW181342   1.440  10.170   4.412  0.0657 -1.2340 -0.9690
25468SOL    HW281343   1.554  10.200   4.508  0.0839  0.1835 -1.4174
25469SOL     OW81344   3.411   4.978   8.946 -0.2332 -0.4175 -0.6485
25469SOL    HW181345   3.447   4.987   9.034  1.1687  0.8966 -1.3193
25469SOL    HW281346   3.317   4.994   8.957 -0.0266  0.0845  0.5468
25470SOL     OW81347   8.482   5.890   6.634 -0.1298  0.9804  0.3588
25470SOL    HW181348   8.439   5.819   6.587  1.1012  0.2896  0.2388
25470SOL    HW281349   8.455   5.970   6.588  0.3701  0.3872 -1.0057
25471SOL     OW81350   2.520   6.348   6.688 -0.8867 -0.2532 -0.2474
25471SOL    HW181351   2.508   6.348   6.783 -2.0251 -2.9863 -0.2997
25471SOL    HW281352   2.437   6.381   6.653 -0.1106  1.7482 -0.3600
25472SOL     OW81353   6.152   3.939   0.902 -0.0700 -0.2616 -0.1719
25472SOL    HW181354   6.067   3.899   0.886 -0.2470 -0.4125  1.0246
25472SOL    HW281355   6.203   3.870   0.944  0.0723  0.3306  0.6582
25473SOL     OW81356   6.273  10.582   9.629 -0.3148 -0.1045 -0.6419
25473SOL    HW181357   6.326  10.519   9.580 -0.6144 -0.0773 -1.0094
25473SOL    HW281358   6.257  10.653   9.566  0.7201  0.7359  0.0210
25474SOL     OW81359   3.334   2.787   7.246  0.0472 -0.5095 -0.7051
25474SOL    HW181360   3.303   2.710   7.294 -1.9555  0.6276 -0.0478
25474SOL    HW281361   3.257   2.818   7.197  1.2936  0.0305 -2.4357
25475SOL     OW81362   8.989   5.681   3.028 -0.3539  0.2997  0.3975
25475SOL    HW181363   8.978   5.611   3.092 -0.3445  1.7400  2.0570
25475SOL    HW281364   9.069   5.659   2.981  0.5069 -0.0263  1.9627
25476SOL     OW81365   3.322   6.931   8.631 -0.1466  0.0831 -0.0690
25476SOL    HW181366   3.256   6.996   8.657  0.6602  1.3654 -1.0948
25476SOL    HW281367   3.320   6.865   8.701 -2.7918 -0.1554 -0.2812
25477SOL     OW81368   1.535   2.414   8.668 -0.3694  0.3816 -0.1314
25477SOL    HW181369   1.476   2.415   8.592 -1.2140  1.5472  0.5117
25477SOL    HW281370   1.600   2.481   8.648  0.3847 -0.4554 -0.5477
25478SOL     OW81371   3.559   8.487   0.158 -0.0364 -0.0536 -0.2582
25478SOL    HW181372   3.533   8.542   0.085  2.3022 -1.0834 -1.9858
25478SOL    HW281373   3.612   8.544   0.214 -0.4945  0.3213 -0.2028
25479SOL     OW81374   0.694   8.761  11.019  0.3249 -0.5166  0.8221
25479SOL    HW181375   0.739   8.694  11.071  1.7286 -0.5412 -0.3814
25479SOL    HW281376   0.615   8.717  10.987 -0.9084 -0.3358  3.3228
25480SOL     OW81377   9.403   9.453   9.537  0.5618 -0.2316 -0.0753
25480SOL    HW181378   9.317   9.488   9.511  0.9846  0.5282 -0.4802
25480SOL    HW281379   9.420   9.492   9.623  0.6517 -0.1195 -0.1436
25481SOL     OW81380   3.180   3.843   8.826  0.1265  0.3988  0.6119
25481SOL    HW181381   3.210   3.782   8.759  0.2974  1.3600 -0.2087
25481SOL    HW281382   3.225   3.814   8.906 -1.5117 -1.8971  0.7990
25482SOL     OW81383   4.323   7.422   2.181  0.3122 -0.1415 -0.0509
25482SOL    HW181384   4.396   7.417   2.120 -0.3167  1.5485 -1.0029
25482SOL    HW281385   4.363   7.441   2.266  1.1684 -2.1571  0.0502
25483SOL     OW81386  10.620   4.981   1.277 -0.5657 -0.1180 -0.4224
25483SOL    HW181387  10.573   4.997   1.359 -1.9891 -1.0371 -1.0249
25483SOL    HW281388  10.696   4.929   1.302 -1.1683 -0.6804  0.2811
25484SOL     OW81389   5.928   4.142   9.288 -0.0518 -0.2023 -0.4768
25484SOL    HW181390   5.857   4.158   9.350  1.8153 -2.4708  2.5514
25484SOL    HW281391   6.008   4.145   9.341  1.9342 -0.1072 -3.2409
25485SOL     OW81392   4.535  10.390   2.323 -0.0686  0.2998  0.5139
25485SOL    HW181393   4.616  10.358   2.363 -0.6409 -0.2128  1.2972
25485SOL    HW281394   4.511  10.322   2.260  0.7887  1.0674 -0.6739
25486SOL     OW81395  10.107  10.200   1.170  0.0077  0.1948  0.5596
25486SOL    HW181396  10.186  10.149   1.150  0.9840  1.3435  1.3725
25486SOL    HW281397  10.040  10.134   1.189  0.4149 -0.8381 -1.2858
25487SOL     OW81398  11.448  10.796   0.557 -0.8084  0.0723 -0.5436
25487SOL    HW181399  11.476  10.715   0.599  0.8629  0.4980 -0.7645
25487SOL    HW281400  11.498  10.799   0.475 -0.2309  1.6853 -0.1744
25488SOL     OW81401   6.744   3.123   7.787 -0.1719 -0.1086  0.3519
25488SOL    HW181402   6.779   3.035   7.792  2.3441  0.8620  2.0065
25488SOL    HW281403   6.808   3.177   7.833 -0.8380  2.8300 -1.8376
25489SOL     OW81404   5.176   6.823   6.549  0.2777 -0.7198  0.2655
25489SOL    HW181405   5.172   6.912   6.516  1.5103 -0.9643 -0.6298
25489SOL    HW281406   5.223   6.774   6.481 -0.2391 -2.0141  0.8062
25490SOL     OW81407   3.056   3.009   9.008  0.4727 -0.4663  0.4630
25490SOL    HW181408   3.117   3.059   9.063  0.4853  0.2438 -0.1862
25490SOL    HW281409   3.071   2.918   9.034 -0.0006 -0.1160  2.1291
25491SOL     OW81410   2.435   1.407  10.469 -0.1055 -0.0185  0.1672
25491SOL    HW181411   2.432   1.453  10.553 -0.1095 -1.2371  0.8608
25491SOL    HW281412   2.364   1.446  10.418 -0.5957  0.2227  1.0152
25492SOL     OW81413   0.008   2.350   1.077 -0.6130 -0.5293 -0.4967
25492SOL    HW181414   0.095   2.312   1.084  0.0615  1.0416  0.0884
25492SOL    HW281415  -0.052   2.277   1.093  0.5922 -1.5972 -0.7704
25493SOL     OW81416   5.970   1.103   9.405  0.0577  0.1489  0.1928
25493SOL    HW181417   5.985   1.195   9.387  2.1005  0.0663  1.1167
25493SOL    HW281418   6.017   1.057   9.336  0.6860 -0.1659  0.8098
25494SOL     OW81419   0.261   2.127   0.481 -0.1913 -0.1675 -0.3033
25494SOL    HW181420   0.306   2.043   0.488 -0.5216 -0.1933  2.6221
25494SOL    HW281421   0.168   2.106   0.495 -0.3554  0.6111 -0.1494
25495SOL     OW81422   5.083   0.842   5.098 -0.0142 -0.5412  0.7161
25495SOL    HW181423   4.988   0.833   5.107 -0.1933 -1.2378 -1.2840
25495SOL    HW281424   5.108   0.771   5.037  1.8380 -0.5851  1.4497
25496SOL     OW81425   3.858   3.984   0.367 -0.1066  0.1931  0.5353
25496SOL    HW181426   3.872   3.951   0.278 -1.0818  0.8713  0.1123
25496SOL    HW281427   3.863   4.079   0.358 -0.2750  0.2690  1.1967
25497SOL     OW81428   4.433   7.021   3.771 -0.3929  0.1745  0.3898
25497SOL    HW181429   4.368   7.076   3.814  0.1716  0.5839  0.7416
25497SOL    HW281430   4.383   6.963   3.715 -1.0351  0.7033  0.4112
25498SOL     OW81431   5.189   9.065   4.715  0.0540  0.0231  0.3215
25498SOL    HW181432   5.106   9.058   4.761 -0.8453  2.2121 -0.8363
25498SOL    HW281433   5.197   9.158   4.693  0.7751 -0.7272 -3.2716
25499SOL     OW81434  10.140   7.889   7.635 -0.0106 -0.7188  0.2665
25499SOL    HW181435  10.149   7.879   7.540 -0.3809 -0.5267  0.2053
25499SOL    HW281436  10.210   7.950   7.659 -0.0043 -0.6544  0.0929
25500SOL     OW81437   8.963   5.198   3.843  0.1842  0.3772  0.4086
25500SOL    HW181438   8.872   5.182   3.869  0.7221 -0.0083  2.1142
25500SOL    HW281439   8.994   5.266   3.903  1.1880  0.1253  0.1920
25501SOL     OW81440   0.128   8.961   1.693 -0.9438 -0.1490  0.0033
25501SOL    HW181441   0.084   8.955   1.778 -1.9005 -0.2955 -0.4911
25501SOL    HW281442   0.095   8.885   1.644  0.5640 -0.7958 -0.0718
25502SOL     OW81443   1.193   7.357   9.688 -0.2541 -0.0232 -0.2159
25502SOL    HW181444   1.242   7.285   9.650  1.4744  0.5085  0.8997
25502SOL    HW281445   1.108   7.318   9.711 -0.0267 -1.2170 -1.2929
25503SOL     OW81446   6.777   3.816   9.055 -0.1711 -0.6695  0.0606
25503SOL    HW181447   6.802   3.726   9.037  1.2959 -0.1915 -0.4029
25503SOL    HW281448   6.728   3.812   9.137  0.2440 -1.8303  0.2607
25504SOL     OW81449   8.455   9.941  11.065 -0.1841 -0.2669 -0.4055
25504SOL    HW181450   8.525  10.003  11.088  0.3921 -1.9257  2.9293
25504SOL    HW281451   8.501   9.861  11.040 -0.8701 -0.9844  0.5869
25505SOL     OW81452   9.109   2.039   1.143  0.4026 -0.0658  0.2115
25505SOL    HW181453   9.155   1.994   1.072 -1.9485  0.6372 -1.9230
25505SOL    HW281454   9.063   1.969   1.190  1.4025 -0.4570  0.6445
25506SOL     OW81455   2.136   9.917   0.384 -0.4967 -0.4175 -0.7588
25506SOL    HW181456   2.151   9.826   0.358  1.5220 -0.0611 -0.9917
25506SOL    HW281457   2.119   9.912   0.478 -0.0865 -1.0082 -0.7094
25507SOL     OW81458   5.401   9.806   9.805 -0.7780  0.3569  0.8957
25507SOL    HW181459   5.418   9.731   9.863  1.1677 -0.4726 -0.6293
25507SOL    HW281460   5.431   9.776   9.719 -2.0439  2.1375 -0.2123
25508SOL     OW81461   9.326   4.652   7.694  0.1490  0.1697  0.7881
25508SOL    HW181462   9.319   4.611   7.781  0.2457 -0.3347  0.5599
25508SOL    HW281463   9.322   4.746   7.712 -0.0813  0.0627  1.3187
25509SOL     OW81464  11.334   0.205   7.834  0.2059 -0.4021  0.3684
25509SOL    HW181465  11.348   0.197   7.928  1.3788  0.2758  0.2667
25509SOL    HW281466  11.420   0.225   7.798 -0.3995  0.3408 -0.7362
25510SOL     OW81467  10.738   4.238   9.032 -0.3980 -0.3233  0.5440
25510SOL    HW181468  10.742   4.208   9.123  2.1369 -1.8772  0.0188
25510SOL    HW281469  10.646   4.227   9.007 -0.6323 -2.5272  2.1124
25511SOL     OW81470   4.000   8.081   4.567  0.2040 -0.2528  0.0569
25511SOL    HW181471   4.032   7.991   4.567 -0.0922 -0.3699 -1.0800
25511SOL    HW281472   4.049   8.124   4.637  1.0458 -1.0582 -0.0216
25512SOL     OW81473   7.156   2.250   8.559  0.2127 -0.5400 -0.1309
25512SOL    HW181474   7.240   2.207   8.545  0.7733  1.2910 -3.7296
25512SOL    HW281475   7.178   2.334   8.598 -0.2787 -1.1385  1.4827
25513SOL     OW81476  10.701   6.915   0.805 -0.5596  0.1741 -0.0144
25513SOL    HW181477  10.743   6.989   0.760  0.2310  0.2775  0.8459
25513SOL    HW281478  10.775   6.863   0.837 -1.1010  0.0060  0.9746
25514SOL     OW81479   1.112  11.340  10.932 -0.0395 -0.0492 -0.0093
25514SOL    HW181480   1.063  11.294  10.864  0.3293 -0.7171  0.1668
25514SOL    HW281481   1.068  11.315  11.014  1.2324 -1.5656  0.2676
25515SOL     OW81482   7.173   1.115   1.742 -0.3306  0.5250 -0.1623
25515SOL    HW181483   7.128   1.169   1.678  0.6614  0.2806 -1.0941
25515SOL    HW281484   7.149   1.025   1.719  1.6291  0.2768 -1.5576
25516SOL     OW81485   9.665   2.783   0.408 -0.2312  0.6060  0.5157
25516SOL    HW181486   9.757   2.764   0.429 -0.3126  1.0930  1.3640
25516SOL    HW281487   9.630   2.699   0.377 -0.0907 -0.1997  2.4022
25517SOL     OW81488   3.985   3.646   0.030  0.3957 -0.2151  0.2590
25517SOL    HW181489   4.030   3.573  -0.012 -1.0021 -1.3250  0.6089
25517SOL    HW281490   4.053   3.690   0.082  1.3857 -0.8880 -0.4473
25518SOL     OW81491   0.418   5.075   4.112  0.0923  0.1359  0.4892
25518SOL    HW181492   0.492   5.046   4.166  0.6019  0.1653 -0.1751
25518SOL    HW281493   0.438   5.166   4.091  0.3540 -0.1315 -0.4731
25519SOL     OW81494   3.562   1.051   3.925  0.7851  0.2658 -0.4054
25519SOL    HW181495   3.646   1.089   3.897  1.1149 -0.1175  0.0511
25519SOL    HW281496   3.582   0.959   3.943  1.1153  0.9014  3.1721
25520SOL     OW81497   3.998   7.972  11.540  0.0223  0.1742  0.0076
25520SOL    HW181498   4.084   8.014  11.541  0.8522 -1.1976 -3.0621
25520SOL    HW281499   3.941   8.032  11.588  1.7192  3.3897 -1.7083
25521SOL     OW81500   3.574   8.090   6.831  0.5726 -0.2116  0.3934
25521SOL    HW181501   3.604   8.115   6.743 -0.6049 -0.0508  0.0145
25521SOL    HW281502   3.597   8.165   6.886 -1.8869  1.3607 -0.5183
25522SOL     OW81503   5.876   0.706   3.983  0.0378 -0.3023 -0.4376
25522SOL    HW181504   5.915   0.763   3.917  1.5915 -2.5371 -1.5905
25522SOL    HW281505   5.909   0.619   3.962 -0.7164 -1.3820  2.3505
25523SOL     OW81506   4.208   2.585  11.409  0.5932 -0.0012 -0.2402
25523SOL    HW181507   4.217   2.566  11.502  0.1292 -2.1264 -0.5661
25523SOL    HW281508   4.156   2.512  11.374  1.1691  0.4645 -2.2395
25524SOL     OW81509   4.436   0.847   6.664 -0.0712  0.1103  0.1459
25524SOL    HW181510   4.500   0.908   6.702 -0.1307  0.2421  0.0360
25524SOL    HW281511   4.412   0.790   6.737 -0.3478  0.4986  0.3618
25525SOL     OW81512   6.907   6.913   0.452  0.7480 -0.3096 -0.1576
25525SOL    HW181513   6.952   6.933   0.370 -0.2782 -1.7868 -1.1425
25525SOL    HW281514   6.977   6.891   0.514  1.5300  0.7487 -0.6412
25526SOL     OW81515   2.203   6.492   1.248  0.1597  0.3083 -0.0008
25526SOL    HW181516   2.209   6.567   1.307  2.4204  0.8328 -0.8383
25526SOL    HW281517   2.270   6.507   1.182 -1.2161 -1.0882 -1.8009
25527SOL     OW81518   2.625   3.965   4.712  0.3374 -0.2605 -0.2878
25527SOL    HW181519   2.617   3.873   4.737  0.3209  0.0166  0.7756
25527SOL    HW281520   2.609   3.965   4.617 -0.7168 -1.2202 -0.1440
25528SOL     OW81521   6.491  10.211  11.333  0.2327 -0.4607 -0.0787
25528SOL    HW181522   6.583  10.229  11.316  0.1446  0.1545  0.0787
25528SOL    HW281523   6.446  10.245  11.256  0.1399 -0.8434 -0.1973
25529SOL     OW81524   8.478   4.216   9.853  0.4685 -0.2129  0.1409
25529SOL    HW181525   8.504   4.168   9.932  0.8366 -0.2084  0.0201
25529SOL    HW281526   8.544   4.283   9.843 -0.7877  1.2444  1.1131
25530SOL     OW81527   0.571   9.174   5.842 -0.0226 -0.5483 -0.5053
25530SOL    HW181528   0.573   9.183   5.938  0.8539 -2.7789 -0.2540
25530SOL    HW281529   0.637   9.235   5.810 -1.0191  0.9736  0.1820
25531SOL     OW81530  10.603   3.342   7.411  0.1610 -0.5307  0.2559
25531SOL    HW181531  10.669   3.392   7.460 -0.2675  0.1215  0.1880
25531SOL    HW281532  10.645   3.320   7.329  0.4736 -0.5784  0.4269
25532SOL     OW81533   5.521   2.005   0.993  0.0709  0.0608 -0.3287
25532SOL    HW181534   5.524   2.088   0.946  0.5390  0.5580  0.5618
25532SOL    HW281535   5.462   2.021   1.067 -0.7054 -0.7295 -0.7672
25533SOL     OW81536   3.496   9.843   2.338  0.4210  0.0575 -0.5269
25533SOL    HW181537   3.592   9.834   2.343  0.4671  0.3700 -0.7942
25533SOL    HW281538   3.471   9.881   2.421  0.3789 -1.2249  0.0709
25534SOL     OW81539   5.800   9.097   6.259  0.0767 -0.4585  0.2952
25534SOL    HW181540   5.772   9.075   6.348 -0.6173 -2.2988 -0.3250
25534SOL    HW281541   5.724   9.079   6.204 -0.0562  2.2694 -0.5354
25535SOL     OW81542   7.412   7.495   5.996 -0.3568  1.1087 -0.2839
25535SOL    HW181543   7.397   7.577   6.043  0.4147  1.7110 -1.0485
25535SOL    HW281544   7.401   7.518   5.903  1.7489  0.8420 -0.6638
25536SOL     OW81545   1.861   9.100   4.331  0.3475 -0.3293  0.4594
25536SOL    HW181546   1.943   9.120   4.287  0.9324 -0.4173  1.4792
25536SOL    HW281547   1.808   9.179   4.322  0.4191 -0.3750 -0.4551
25537SOL     OW81548   6.698   2.429  10.023 -0.0776 -0.3062 -0.1025
25537SOL    HW181549   6.727   2.514  10.054 -0.0666 -0.6534  0.8670
25537SOL    HW281550   6.673   2.381  10.102  0.5752 -1.4481 -0.5548
25538SOL     OW81551   7.799   3.391   6.278  0.0383 -0.2336 -0.3241
25538SOL    HW181552   7.706   3.412   6.270  0.2919  1.1771  0.0885
25538SOL    HW281553   7.810   3.368   6.370  0.0729 -0.5283 -0.4023
25539SOL     OW81554   4.024  11.312   9.721 -0.2239 -0.1054  0.0562
25539SOL    HW181555   3.992  11.332   9.809  0.8835  1.0984  0.2103
25539SOL    HW281556   3.991  11.383   9.666  1.5513  0.8118  0.1026
25540SOL     OW81557   9.384   7.886   0.768 -0.2703  0.3919 -0.3464
25540SOL    HW181558   9.323   7.957   0.788  0.2536  0.5640  0.7215
25540SOL    HW281559   9.337   7.806   0.794  0.2099  0.5779  1.1700
25541SOL     OW81560   4.100   3.706   3.877 -0.4161  0.5712 -0.6928
25541SOL    HW181561   4.052   3.641   3.930 -0.9382  0.2796 -1.5127
25541SOL    HW281562   4.178   3.724   3.929 -0.4539 -0.4167 -0.2543
25542SOL     OW81563  10.494   8.974   5.265 -0.3272  0.4699  0.3437
25542SOL    HW181564  10.404   8.949   5.286 -0.9523  1.1534 -1.3210
25542SOL    HW281565  10.486   9.063   5.230  1.1702  1.0115  1.2898
25543SOL     OW81566   0.946   2.969  11.624  0.2175 -0.1888 -0.8217
25543SOL    HW181567   1.013   3.031  11.596 -0.2731  1.3069  1.0186
25543SOL    HW281568   0.863   3.011  11.599 -0.1290  0.0713  0.6609
25544SOL     OW81569   6.163   8.665   1.042 -0.2717  0.1624  0.0766
25544SOL    HW181570   6.124   8.730   1.100 -1.0728 -0.3898  0.1717
25544SOL    HW281571   6.107   8.663   0.965 -1.1696 -1.4725  0.7108
25545SOL     OW81572   9.975   9.048   8.944 -0.2218  0.4338 -0.3945
25545SOL    HW181573   9.972   9.062   8.849 -0.9713 -0.9384 -0.5955
25545SOL    HW281574   9.884   9.049   8.972 -0.5249 -3.9257 -0.5102
25546SOL     OW81575   7.088   6.291   1.474  0.0177 -0.5952  0.2702
25546SOL    HW181576   7.181   6.310   1.483  0.2480 -0.2413 -2.1177
25546SOL    HW281577   7.045   6.376   1.485  0.3583 -0.0103 -2.2368
25547SOL     OW81578   7.139   9.248   6.033 -0.0904 -0.0078 -0.5962
25547SOL    HW181579   7.111   9.178   5.974  0.8168 -1.6603  0.8365
25547SOL    HW281580   7.057   9.282   6.069 -0.5470 -0.3763 -1.2499
25548SOL     OW81581   3.422   6.310  10.891  0.3153  0.2423  0.3792
25548SOL    HW181582   3.467   6.231  10.920 -2.3491 -1.2233  0.7763
25548SOL    HW281583   3.421   6.304  10.796  1.2121  0.5011  0.3356
25549SOL     OW81584   5.847   3.084   6.141  0.3574  0.6541  0.0448
25549SOL    HW181585   5.932   3.040   6.140 -0.2336 -0.5274  0.0845
25549SOL    HW281586   5.786   3.017   6.170 -0.6259  1.4273 -0.1963
25550SOL     OW81587   3.360   6.917  10.694 -0.2288 -0.7243 -0.2851
25550SOL    HW181588   3.271   6.913  10.657  0.0548  1.5017 -1.3698
25550SOL    HW281589   3.415   6.946  10.621  0.9910  0.2028  0.9477
25551SOL     OW81590   9.348  11.562   9.088 -0.3260 -0.0679  0.1568
25551SOL    HW181591   9.364  11.480   9.042  0.2156  0.2815 -0.2951
25551SOL    HW281592   9.361  11.542   9.180 -0.9236 -0.6581  0.1199
25552SOL     OW81593   8.879   7.846  10.434 -0.1675 -0.6968 -0.0410
25552SOL    HW181594   8.811   7.882  10.378  0.8956  0.0374 -0.8919
25552SOL    HW281595   8.903   7.918  10.492 -0.8732 -1.2860  1.0141
25553SOL     OW81596   9.722   2.484   5.961 -0.6129  0.4750 -0.4668
25553SOL    HW181597   9.664   2.534   6.018 -2.2195 -0.7468 -0.9348
25553SOL    HW281598   9.797   2.462   6.016 -1.8584 -0.2058  1.0313
25554SOL     OW81599  11.398   8.822   7.492  0.0188  0.2957 -0.0644
25554SOL    HW181600  11.437   8.907   7.472  0.3664 -0.1904 -1.6159
25554SOL    HW281601  11.328   8.812   7.428 -0.9383  0.0047  0.9975
25555SOL     OW81602   5.209   5.931   9.294  0.0236  0.0015  0.1156
25555SOL    HW181603   5.228   5.983   9.373 -0.4332 -1.1057  0.9711
25555SOL    HW281604   5.278   5.866   9.290 -0.9799 -1.1326  0.6672
25556SOL     OW81605   3.959   8.076   6.889 -0.0115  0.4447  0.3504
25556SOL    HW181606   3.964   8.132   6.966 -0.7509  1.1810 -0.1222
25556SOL    HW281607   4.014   8.119   6.824 -1.1984  1.0664 -0.2680
25557SOL     OW81608   6.150  10.158   8.920  0.3984 -0.4010 -0.1763
25557SOL    HW181609   6.221  10.094   8.927  1.0927  0.4006  0.4358
25557SOL    HW281610   6.110  10.160   9.007  1.7895  1.5147  0.4928
25558SOL     OW81611   5.668   0.875  10.575 -0.4148  0.4045  0.0233
25558SOL    HW181612   5.734   0.933  10.538 -0.4371  0.9362  0.7943
25558SOL    HW281613   5.611   0.853  10.502  1.6518 -1.6011 -1.1381
25559SOL     OW81614   1.286   9.378   8.572 -0.3706  0.4136  0.3164
25559SOL    HW181615   1.311   9.417   8.488 -0.2593  0.1799  0.2386
25559SOL    HW281616   1.366   9.381   8.624 -0.6516  1.3033  0.7073
25560SOL     OW81617   7.032   4.877   7.031 -0.5623  0.4345  0.3335
25560SOL    HW181618   7.013   4.792   6.990  1.6552  0.1575 -0.2469
25560SOL    HW281619   7.037   4.858   7.124 -1.7811  0.3002  0.3935
25561SOL     OW81620   6.495  10.760   7.358 -0.3519 -0.9672  0.0618
25561SOL    HW181621   6.575  10.810   7.342  0.1857 -2.1867 -1.3664
25561SOL    HW281622   6.430  10.825   7.384  0.9605  0.1145  0.7428
25562SOL     OW81623  10.870   9.282   8.221 -0.0284 -0.2689 -0.2008
25562SOL    HW181624  10.913   9.254   8.302  0.6342 -0.0975 -0.4916
25562SOL    HW281625  10.911   9.230   8.152  0.7322  0.8745 -0.6624
25563SOL     OW81626  10.930   9.393   6.926 -0.1063  0.4886  0.0318
25563SOL    HW181627  10.857   9.411   6.867 -0.5212 -1.3862 -0.1111
25563SOL    HW281628  11.007   9.387   6.868 -0.1080  0.9479 -0.0180
25564SOL     OW81629   3.319   6.368   8.200 -0.7507  0.4884 -0.0632
25564SOL    HW181630   3.257   6.441   8.208 -0.7381  0.2579  3.6403
25564SOL    HW281631   3.398   6.408   8.164 -2.1936  1.2446 -2.6597
25565SOL     OW81632   3.903   2.229   3.426  0.4820 -0.0441  0.4231
25565SOL    HW181633   3.850   2.183   3.491  0.1632  0.3036  0.4078
25565SOL    HW281634   3.984   2.178   3.422  0.1496 -0.5861  0.4352
25566SOL     OW81635   1.472   5.663   6.098  0.4230 -0.1849  0.3169
25566SOL    HW181636   1.457   5.594   6.163  2.3653 -0.7047  0.2812
25566SOL    HW281637   1.401   5.725   6.113 -0.9962 -1.8376  0.8030
25567SOL     OW81638   7.437   3.890   7.764 -0.4993  0.0343 -0.6385
25567SOL    HW181639   7.472   3.844   7.840 -1.2704 -0.5808 -0.6350
25567SOL    HW281640   7.342   3.885   7.775 -0.6177  0.2343 -1.4717
25568SOL     OW81641  10.366   8.601  11.178  0.1257  0.2329  0.9869
25568SOL    HW181642  10.330   8.620  11.264 -0.1223 -1.4530  1.2961
25568SOL    HW281643  10.422   8.524  11.192  0.2001  0.0287 -0.3202
25569SOL     OW81644   5.806   7.296   0.993  0.0637  0.5997  0.3550
25569SOL    HW181645   5.726   7.245   0.984 -0.1253  0.8662  0.5029
25569SOL    HW281646   5.778   7.377   1.035  0.3446  0.8611  0.0492
25570SOL     OW81647  11.157   0.667   0.246  0.5740 -0.8970 -0.3798
25570SOL    HW181648  11.190   0.663   0.156  0.7412  0.3582 -0.3906
25570SOL    HW281649  11.133   0.758   0.259  0.5944 -1.0452  0.8720
25571SOL     OW81650   7.029   0.862   0.849 -0.3420 -0.1700 -0.1039
25571SOL    HW181651   6.966   0.907   0.793  0.0630 -1.2356 -1.4736
25571SOL    HW281652   6.983   0.785   0.881  0.0058 -0.5307 -0.4621
25572SOL     OW81653  10.109   3.373   5.939  0.6758 -0.2348  0.2422
25572SOL    HW181654  10.038   3.308   5.941  0.8703 -0.4537  0.0411
25572SOL    HW281655  10.086   3.430   5.865 -0.0256  0.5275  1.0298
25573SOL     OW81656   4.299   5.194  10.611 -0.5853 -0.1171 -0.1596
25573SOL    HW181657   4.371   5.185  10.548 -0.5842  0.1335 -0.1957
25573SOL    HW281658   4.324   5.269  10.665 -0.7906 -0.0677 -0.1336
25574SOL     OW81659   0.775  10.693   1.454  0.4570  0.1011 -0.0584
25574SOL    HW181660   0.725  10.746   1.516 -3.3742 -0.4365 -2.3574
25574SOL    HW281661   0.774  10.604   1.491  1.6287  0.4735  0.9105
25575SOL     OW81662   7.612   9.428   7.698 -0.5204  0.1445  0.1373
25575SOL    HW181663   7.558   9.454   7.623 -0.4854  0.6204  0.2742
25575SOL    HW281664   7.579   9.341   7.721 -0.9018  0.2254 -0.0851
25576SOL     OW81665   4.437   8.593   5.455 -0.2910  0.1058 -0.3246
25576SOL    HW181666   4.437   8.689   5.449 -0.3153  0.0982 -0.4366
25576SOL    HW281667   4.418   8.563   5.367 -0.7934  0.0072 -0.1868
25577SOL     OW81668   5.186   5.220   9.071  0.2322 -0.0877  0.0094
25577SOL    HW181669   5.235   5.158   9.125 -0.0164 -0.2139  0.0924
25577SOL    HW281670   5.182   5.300   9.123  0.1324 -0.1571  0.1071
25578SOL     OW81671   3.200   9.780  10.700 -0.2663  0.0413 -0.1591
25578SOL    HW181672   3.293   9.763  10.713 -0.1467  0.5077 -0.3735
25578SOL    HW281673   3.158   9.695  10.713  0.2312 -0.2564 -0.4612
25579SOL     OW81674   6.283   9.915  10.250 -0.4911 -0.1207 -0.1571
25579SOL    HW181675   6.203   9.864  10.257  0.1519 -0.9757  1.3215
25579SOL    HW281676   6.270   9.990  10.307 -0.4914  0.1080 -0.4512
25580SOL     OW81677  10.731   0.614   3.198  0.0042  0.0936 -0.0593
25580SOL    HW181678  10.799   0.566   3.245 -1.5490  0.8893  3.2722
25580SOL    HW281679  10.671   0.546   3.167  0.6338 -0.4093 -0.2109
25581SOL     OW81680   1.850   5.808   2.348 -1.3755  0.3724  0.1393
25581SOL    HW181681   1.845   5.851   2.262 -2.2382  1.1714  0.5728
25581SOL    HW281682   1.942   5.814   2.373 -1.1341  0.2067 -0.6925
25582SOL     OW81683   4.873   9.989   7.551 -0.0384  0.2017 -0.2413
25582SOL    HW181684   4.952   9.961   7.506  0.3112  1.6044 -0.5207
25582SOL    HW281685   4.812  10.013   7.481  0.1085  1.3192  0.0049
25583SOL     OW81686   4.386   2.413  10.978 -0.6194 -0.1815 -0.6054
25583SOL    HW181687   4.451   2.343  10.985 -1.7983 -1.1116  3.3124
25583SOL    HW281688   4.434   2.492  11.005 -0.5839 -0.5181  0.3629
25584SOL     OW81689   8.582   2.146   5.293 -0.1317 -0.3107  0.7232
25584SOL    HW181690   8.494   2.158   5.329 -0.2518  0.5522  0.1818
25584SOL    HW281691   8.568   2.094   5.214 -0.1136 -0.4891  0.8379
25585SOL     OW81692   1.748   4.063  10.777  0.5748 -0.6064 -0.0205
25585SOL    HW181693   1.715   3.987  10.729  0.1810 -1.4131  1.4579
25585SOL    HW281694   1.676   4.087  10.835  0.8618  0.6437 -0.1487
25586SOL     OW81695   6.459   6.293   5.294  0.2774 -0.1277  0.3991
25586SOL    HW181696   6.479   6.290   5.201 -0.4202  0.1054  0.2359
25586SOL    HW281697   6.504   6.217   5.331 -0.0225 -0.6227 -0.2427
25587SOL     OW81698   7.975   3.213   9.295 -0.0540  0.3013  0.2545
25587SOL    HW181699   8.013   3.155   9.230 -1.3216  0.9347 -1.1168
25587SOL    HW281700   7.949   3.291   9.246 -2.1057  0.3338  1.2695
25588SOL     OW81701  11.357   6.565   5.559 -0.3976  0.2212  0.8073
25588SOL    HW181702  11.331   6.573   5.467  1.5209 -1.0571  0.0752
25588SOL    HW281703  11.274   6.559   5.607 -1.4463  0.2605 -0.9060
25589SOL     OW81704  10.079   8.596   1.623 -0.4173 -0.1707  0.2456
25589SOL    HW181705  10.044   8.680   1.593 -0.2930 -0.3863 -0.5261
25589SOL    HW281706  10.104   8.612   1.714  1.3083  1.1505 -0.4112
25590SOL     OW81707   1.202   6.693   6.839 -0.3316 -0.6162 -0.2820
25590SOL    HW181708   1.238   6.608   6.866  0.8117  0.2917  1.2189
25590SOL    HW281709   1.219   6.751   6.913 -1.6344  0.7997 -1.0213
25591SOL     OW81710   5.586   4.403   0.555 -0.0016 -0.1129  0.5564
25591SOL    HW181711   5.670   4.449   0.567  1.5865 -3.1053  1.9226
25591SOL    HW281712   5.573   4.355   0.637 -2.7891 -0.2492  0.1285
25592SOL     OW81713   7.704   0.145   4.625 -0.2979  0.3326 -0.8319
25592SOL    HW181714   7.751   0.077   4.577  1.0637  2.4908 -2.7343
25592SOL    HW281715   7.733   0.134   4.716  0.3192 -1.2379 -1.1871
25593SOL     OW81716   8.464   7.852   0.443 -0.4268  0.1266  0.0596
25593SOL    HW181717   8.414   7.821   0.367 -0.1859 -0.9361  0.3227
25593SOL    HW281718   8.398   7.862   0.512 -0.2554 -1.5517  0.4895
25594SOL     OW81719   5.826  10.973   4.470  0.0342  0.4248 -0.0372
25594SOL    HW181720   5.878  11.051   4.449  0.2127  0.4002  0.3106
25594SOL    HW281721   5.839  10.960   4.564 -0.9184  0.6495  0.1322
25595SOL     OW81722   1.351  11.536   7.050 -0.0648 -0.4570  0.5847
25595SOL    HW181723   1.367  11.515   6.958  1.1501 -1.6973  1.0521
25595SOL    HW281724   1.267  11.582   7.050 -0.0841 -0.4499 -1.1382
25596SOL     OW81725   9.499   5.349   5.778  0.1387  0.1280  0.3302
25596SOL    HW181726   9.592   5.346   5.754  0.0315  0.2935 -0.1111
25596SOL    HW281727   9.456   5.293   5.714 -0.2863  1.3857 -0.5250
25597SOL     OW81728   2.149   2.215   8.923 -0.1245  0.0938 -0.0533
25597SOL    HW181729   2.137   2.196   9.016 -0.5508  0.3820 -0.0460
25597SOL    HW281730   2.143   2.310   8.918  0.5096  0.1194 -0.2907
25598SOL     OW81731   5.678   2.461   5.047  0.4185 -0.1583  0.1182
25598SOL    HW181732   5.672   2.404   5.124 -0.8543  0.4007  0.4652
25598SOL    HW281733   5.637   2.411   4.976  1.1481 -0.4754 -0.0913
25599SOL     OW81734   1.304   7.739   6.960  0.0487  0.3190  0.0952
25599SOL    HW181735   1.220   7.720   7.002  1.3059 -1.9778  1.8391
25599SOL    HW281736   1.338   7.815   7.007 -1.1681  1.4987 -0.8755
25600SOL     OW81737   0.508   0.075   9.685  0.1921 -0.3760 -0.1126
25600SOL    HW181738   0.525   0.001   9.628 -1.8333 -1.5291  0.6810
25600SOL    HW281739   0.453   0.133   9.633 -1.0020 -1.0564  0.3522
25601SOL     OW81740   6.949   6.282  11.470  0.5282  0.2112 -0.1459
25601SOL    HW181741   6.973   6.357  11.416  1.1803  0.9357  1.1118
25601SOL    HW281742   6.912   6.320  11.550 -3.0819 -0.8193 -1.1166
25602SOL     OW81743   1.186   6.554   0.933 -0.2873  0.6989  0.1754
25602SOL    HW181744   1.112   6.615   0.930 -0.5196  0.5474  1.9702
25602SOL    HW281745   1.230   6.566   0.849 -0.3348  3.3541  0.4497
25603SOL     OW81746   1.721   0.372   7.429  0.6840  0.2741  0.2358
25603SOL    HW181747   1.635   0.353   7.467  0.4613 -0.2250 -0.4971
25603SOL    HW281748   1.753   0.448   7.478 -0.6375  1.1389 -0.1856
25604SOL     OW81749   2.140   9.514   2.716  0.6184  0.5277 -0.6895
25604SOL    HW181750   2.199   9.535   2.644  0.9560 -0.9477 -0.8696
25604SOL    HW281751   2.140   9.418   2.720  0.0819  0.5652  0.8327
25605SOL     OW81752   7.899  10.247   3.645 -0.0475 -0.1197 -0.2928
25605SOL    HW181753   7.971  10.285   3.695  0.3868 -0.1083 -0.9152
25605SOL    HW281754   7.823  10.255   3.702  0.1287  1.2579 -0.2203
25606SOL     OW81755   6.965   0.544   1.824 -0.1481 -0.6272  0.0401
25606SOL    HW181756   6.914   0.554   1.905 -0.9085 -1.1139 -0.3731
25606SOL    HW281757   6.932   0.612   1.766  0.0426 -0.6121 -0.0527
25607SOL     OW81758   9.014   4.790   1.505  0.1107 -0.5857  0.1101
25607SOL    HW181759   9.028   4.861   1.568  0.9263 -0.0381 -0.6632
25607SOL    HW281760   9.048   4.824   1.422 -0.2145 -1.5871 -0.4568
25608SOL     OW81761   8.601   4.043   1.661  0.0946  0.0659 -0.2083
25608SOL    HW181762   8.550   4.117   1.695 -1.5161 -0.8973 -0.4067
25608SOL    HW281763   8.611   3.984   1.736  1.2650  0.3948 -0.0835
25609SOL     OW81764  10.946   3.351   2.776 -0.4878  0.5677 -0.4148
25609SOL    HW181765  10.898   3.320   2.699  1.0776  2.3730 -2.2479
25609SOL    HW281766  10.896   3.427   2.806 -1.0970 -0.1353  0.3833
25610SOL     OW81767   2.325   8.968   8.428  0.1196 -0.0061 -0.4327
25610SOL    HW181768   2.381   8.931   8.496 -1.1937  0.0398  0.7179
25610SOL    HW281769   2.251   8.907   8.422 -0.7648  1.0320 -0.3948
25611SOL     OW81770   4.448   8.985   8.628  0.1075  0.3893 -0.1448
25611SOL    HW181771   4.540   8.986   8.602  0.1701  1.0467  0.0902
25611SOL    HW281772   4.412   8.907   8.586  0.7587  0.1577 -0.2814
25612SOL     OW81773   5.349   7.679   7.864 -0.5436  0.3887 -0.4526
25612SOL    HW181774   5.283   7.748   7.855 -0.1365  0.8917  0.3369
25612SOL    HW281775   5.331   7.619   7.791 -1.2576  1.0280 -0.8144
25613SOL     OW81776   2.410   2.404   6.180 -0.0780 -0.0597  0.1105
25613SOL    HW181777   2.334   2.459   6.197  0.2591  0.5073 -0.1543
25613SOL    HW281778   2.484   2.465   6.181  0.5680 -0.8180  1.9083
25614SOL     OW81779   0.841   5.141   9.435 -0.0557  0.2074  0.2979
25614SOL    HW181780   0.820   5.122   9.343 -0.2152 -0.5271  0.4834
25614SOL    HW281781   0.757   5.167   9.473  0.1214  1.1203  0.0975
25615SOL     OW81782   4.718   2.449   3.258 -0.2663 -0.2835 -0.5055
25615SOL    HW181783   4.647   2.498   3.300  0.9407  0.8036  0.3240
25615SOL    HW281784   4.781   2.434   3.328  1.2429  0.5125 -1.6442
25616SOL     OW81785  10.641   7.677   6.398  0.0861 -0.0361 -0.0940
25616SOL    HW181786  10.580   7.749   6.413 -0.1321 -0.5444  1.6973
25616SOL    HW281787  10.712   7.692   6.459  1.6147  0.3022 -1.8490
25617SOL     OW81788   8.860   5.604   2.767 -0.1096 -0.1438 -0.8510
25617SOL    HW181789   8.884   5.642   2.851  0.4478  1.7993 -1.8274
25617SOL    HW281790   8.770   5.574   2.778 -0.1612  0.4117  0.3165
25618SOL     OW81791   9.695   4.838   1.987 -0.1461 -0.2985 -0.6993
25618SOL    HW181792   9.698   4.883   1.903 -2.4033 -0.6233 -1.0337
25618SOL    HW281793   9.607   4.857   2.021  1.3054  1.4622  2.5635
25619SOL     OW81794   8.668   9.565   8.812 -0.4646  0.1583 -0.0629
25619SOL    HW181795   8.609   9.557   8.886  0.6081  2.1531  1.0774
25619SOL    HW281796   8.750   9.528   8.842 -0.6732 -1.3071 -1.1601
25620SOL     OW81797   3.424   1.829   9.804 -0.3676  0.7177  0.1547
25620SOL    HW181798   3.416   1.734   9.818 -2.6063  0.7763 -0.3467
25620SOL    HW281799   3.505   1.853   9.850 -0.1018 -1.3196  0.8676
25621SOL     OW81800   0.674   9.780   9.259 -0.4212  0.6119 -0.6638
25621SOL    HW181801   0.651   9.856   9.205 -0.8310  1.0742  0.1455
25621SOL    HW281802   0.768   9.789   9.275 -0.2515  0.3494 -1.4796
25622SOL     OW81803   9.003   5.751   2.565 -0.3841  0.0412  0.3267
25622SOL    HW181804   8.944   5.795   2.504 -0.5819 -0.5298  0.1034
25622SOL    HW281805   8.946   5.702   2.624 -0.1313 -0.9619 -0.2332
25623SOL     OW81806   0.726   8.384   9.673 -0.2702  0.0714 -0.2209
25623SOL    HW181807   0.787   8.431   9.729  0.8100  0.7378 -1.8918
25623SOL    HW281808   0.664   8.450   9.643 -1.3997 -0.4569  0.8663
25624SOL     OW81809   7.765   1.972   9.758 -0.3061  0.7937  0.0811
25624SOL    HW181810   7.843   1.933   9.797 -1.2558 -1.6620 -0.3347
25624SOL    HW281811   7.773   1.956   9.665  0.0390  3.1507 -0.3720
25625SOL     OW81812   6.338   7.324   1.033  0.0821  0.6822  0.2128
25625SOL    HW181813   6.289   7.244   1.014 -2.5036  2.0545  0.7202
25625SOL    HW281814   6.345   7.369   0.949  0.9747  0.2560  0.0465
25626SOL     OW81815   3.784   6.699   4.481  0.1094 -0.5639 -0.1644
25626SOL    HW181816   3.831   6.736   4.407  1.7255 -1.3401  0.4223
25626SOL    HW281817   3.837   6.624   4.508 -0.7442 -0.6432  1.4121
25627SOL     OW81818   9.251   3.692   7.400  0.5562 -0.5949 -0.1290
25627SOL    HW181819   9.300   3.613   7.378  0.4215 -0.8170  0.3665
25627SOL    HW281820   9.160   3.662   7.410  0.4364 -0.3087 -0.3257
25628SOL     OW81821   4.014   2.161   0.328 -0.2856  0.2793 -0.4301
25628SOL    HW181822   4.097   2.207   0.330  0.1906 -0.5881  0.6554
25628SOL    HW281823   4.037   2.070   0.308 -0.8928 -0.1102  0.5683
25629SOL     OW81824   7.859   7.090   2.969 -0.4085  0.0146  0.4745
25629SOL    HW181825   7.929   7.152   2.988  0.0825 -0.4666  0.2805
25629SOL    HW281826   7.829   7.059   3.055 -1.3289  1.2258  0.6204
25630SOL     OW81827   4.397   4.528   9.951 -0.5137  0.0244  0.0215
25630SOL    HW181828   4.374   4.607  10.000 -0.3886  0.7625 -1.0821
25630SOL    HW281829   4.489   4.512   9.973 -0.4890  0.2889  0.1153
25631SOL     OW81830  10.180   7.827   0.926 -0.0699 -0.5349  0.2314
25631SOL    HW181831  10.097   7.842   0.881 -0.1089 -0.9715  0.1562
25631SOL    HW281832  10.247   7.845   0.860 -0.0758  0.6315  0.5228
25632SOL     OW81833  10.655   7.551   9.346 -0.0129  0.0339  0.1487
25632SOL    HW181834  10.745   7.530   9.321  0.8363  1.1609  2.0476
25632SOL    HW281835  10.609   7.562   9.263  2.2658  2.1405 -0.9470
25633SOL     OW81836   3.355  10.185   8.982  1.0153  0.0570  0.3519
25633SOL    HW181837   3.321  10.105   8.942  0.5965 -0.5052  1.7792
25633SOL    HW281838   3.276  10.235   9.003  1.2035  0.1133  0.9296
25634SOL     OW81839   1.534   6.479   7.101  0.6605  0.0158  0.0795
25634SOL    HW181840   1.575   6.392   7.109  1.8198  0.4734 -0.5542
25634SOL    HW281841   1.483   6.489   7.181  0.3108 -1.3513  0.0562
25635SOL     OW81842  10.026  10.474  10.377  0.1481  0.3022 -0.3813
25635SOL    HW181843   9.938  10.504  10.356  0.4095  0.5373 -1.1729
25635SOL    HW281844  10.079  10.554  10.381  0.1720  0.2511  0.9690
25636SOL     OW81845   4.272   5.996   5.080 -1.1054  0.1950 -0.2064
25636SOL    HW181846   4.275   5.945   5.000 -0.6428  0.1142 -0.1432
25636SOL    HW281847   4.220   5.944   5.141 -0.3415 -0.3772 -0.0269
25637SOL     OW81848   2.710   7.703   5.234 -0.1906  0.4999 -0.5456
25637SOL    HW181849   2.789   7.651   5.247  0.0534 -0.2069 -3.9746
25637SOL    HW281850   2.740   7.782   5.189 -1.3749  0.0937 -2.1710
25638SOL     OW81851   7.753   8.179   1.805  0.7138  0.1944 -0.1070
25638SOL    HW181852   7.727   8.268   1.828  0.7212 -0.0405  0.8336
25638SOL    HW281853   7.842   8.170   1.839  0.3554 -0.4895  0.6812
25639SOL     OW81854   1.833   0.795   0.250  0.6767 -0.1649  0.1055
25639SOL    HW181855   1.894   0.822   0.182 -0.6829  0.1024 -1.0455
25639SOL    HW281856   1.799   0.878   0.286  1.0988 -0.3090  0.8719
25640SOL     OW81857   7.310   9.649   7.238 -0.5231  0.2417 -0.6589
25640SOL    HW181858   7.241   9.664   7.173 -0.1462  1.3669 -0.8138
25640SOL    HW281859   7.314   9.554   7.245 -0.2226  0.0460 -2.6872
25641SOL     OW81860   6.557   0.849   2.406 -0.4564  0.0598  0.4538
25641SOL    HW181861   6.470   0.826   2.441 -1.1945 -1.3369 -2.0158
25641SOL    HW281862   6.577   0.778   2.344  0.6811  2.2970 -1.9187
25642SOL     OW81863   6.715   4.154   8.041  0.1988 -0.2900  0.2707
25642SOL    HW181864   6.657   4.227   8.060  1.5139  0.8705 -0.0059
25642SOL    HW281865   6.771   4.185   7.970 -0.1877 -2.1219 -0.8931
25643SOL     OW81866   8.764   1.528   2.241 -0.6065  0.0949  0.2809
25643SOL    HW181867   8.727   1.458   2.294  0.8470 -0.1962  0.9589
25643SOL    HW281868   8.854   1.537   2.272  0.4070 -0.2582 -2.3103
25644SOL     OW81869   3.343   1.268   5.229 -0.4563  0.9999 -0.3351
25644SOL    HW181870   3.267   1.257   5.287  0.2774  0.6407  0.5922
25644SOL    HW281871   3.396   1.335   5.272 -0.4130  1.5179 -1.1722
25645SOL     OW81872  10.230   5.508   2.553 -0.6647 -0.4123 -0.0006
25645SOL    HW181873  10.321   5.517   2.581 -0.1244  0.1013 -1.8047
25645SOL    HW281874  10.212   5.587   2.504 -1.3574 -1.4921 -1.5539
25646SOL     OW81875   9.276   5.783   6.859  0.2059  0.0238  0.4535
25646SOL    HW181876   9.221   5.859   6.838  1.4185  1.1856  1.3152
25646SOL    HW281877   9.333   5.814   6.930  1.3807 -1.4040  0.1686
25647SOL     OW81878   5.108  11.284  11.531 -0.0772 -0.5419  0.4389
25647SOL    HW181879   5.119  11.234  11.450 -2.6996 -2.2538  1.0294
25647SOL    HW281880   5.170  11.357  11.523 -1.0325  0.0402 -3.6389
25648SOL     OW81881  10.279   2.296   8.998 -0.4052 -0.2487 -0.4118
25648SOL    HW181882  10.271   2.333   9.086  0.5943  0.0023 -0.4098
25648SOL    HW281883  10.328   2.214   9.011 -1.0635 -0.6845 -0.6282
25649SOL     OW81884  11.348   3.205   9.985 -0.0765 -0.0057 -0.5804
25649SOL    HW181885  11.278   3.151  10.023  1.0271 -0.8755  0.2627
25649SOL    HW281886  11.338   3.193   9.891 -0.7474 -0.5146 -0.4576
25650SOL     OW81887   7.616   7.077   9.140 -0.1293  0.3734 -0.1484
25650SOL    HW181888   7.613   7.083   9.044 -0.5881  1.1142 -0.1017
25650SOL    HW281889   7.690   7.020   9.159  0.0865  0.3838 -0.9435
25651SOL     OW81890   0.157   0.125  10.376  0.6901 -0.1142  0.0018
25651SOL    HW181891   0.252   0.114  10.379  0.9974  2.0685 -0.1236
25651SOL    HW281892   0.137   0.180  10.452 -0.1313  1.2861 -1.1698
25652SOL     OW81893   9.553   7.043   7.735 -1.0145 -0.9531  0.6790
25652SOL    HW181894   9.643   7.055   7.704 -1.1521 -2.5062 -0.5079
25652SOL    HW281895   9.515   7.130   7.735 -0.0690 -0.5107 -0.7176
25653SOL     OW81896   1.830   8.024   9.982 -0.2788  0.4603  0.0342
25653SOL    HW181897   1.868   7.936   9.992  0.3290  0.8521  1.3197
25653SOL    HW281898   1.800   8.026   9.891  1.3274 -0.4587 -0.5668
25654SOL     OW81899   4.802   1.483   4.374  0.6121  0.0453  0.2756
25654SOL    HW181900   4.717   1.471   4.332  0.5407  2.1940 -0.3392
25654SOL    HW281901   4.784   1.476   4.468 -0.3051  0.6896  0.1615
25655SOL     OW81902  10.446   7.476   4.860  0.5895 -0.9268  0.5635
25655SOL    HW181903  10.438   7.419   4.937  2.6167  0.7381  2.1279
25655SOL    HW281904  10.434   7.564   4.894 -1.5546 -0.2572 -1.6448
25656SOL     OW81905   3.815   8.376   6.965 -0.5575 -0.0375 -0.3505
25656SOL    HW181906   3.815   8.334   6.879  2.9377 -1.8688  0.3736
25656SOL    HW281907   3.824   8.470   6.945 -1.4219 -0.2575 -1.9598
25657SOL     OW81908   4.800   7.122   9.062 -0.2315 -0.1607 -0.4501
25657SOL    HW181909   4.842   7.162   8.986 -0.3916  0.5421 -0.1775
25657SOL    HW281910   4.714   7.164   9.067 -0.3964 -0.5279 -0.1463
25658SOL     OW81911   5.385   5.467   9.774 -0.6978  0.4076  0.0547
25658SOL    HW181912   5.428   5.419   9.703 -2.3355 -1.2923  0.1367
25658SOL    HW281913   5.412   5.558   9.762 -0.4423  0.0643 -2.3610
25659SOL     OW81914  10.647   4.619   4.103 -0.6890  0.0858  0.2029
25659SOL    HW181915  10.655   4.653   4.014 -1.6122  0.1654  0.1456
25659SOL    HW281916  10.599   4.537   4.093  0.2694 -0.5375  0.5020
25660SOL     OW81917   8.587   6.267   4.711 -0.2304  0.0018  0.5197
25660SOL    HW181918   8.541   6.200   4.762  0.4708  0.0692  1.2557
25660SOL    HW281919   8.679   6.242   4.717 -0.2192 -0.8139 -1.9238
25661SOL     OW81920   4.567   8.963   4.989  0.5701 -0.6420  0.4073
25661SOL    HW181921   4.624   8.906   4.937  2.1519  2.1784 -1.1902
25661SOL    HW281922   4.628   9.016   5.041 -0.7242  0.8717  0.4291
25662SOL     OW81923  11.483   2.854   4.302 -0.1204  0.3068  0.5265
25662SOL    HW181924  11.388   2.865   4.306 -0.2872 -0.9851  0.2868
25662SOL    HW281925  11.512   2.867   4.392 -0.8658 -2.0901  1.1814
25663SOL     OW81926   6.741   5.845   9.083  0.0424 -0.2636 -0.1234
25663SOL    HW181927   6.833   5.850   9.057  0.7201 -1.5932  1.7818
25663SOL    HW281928   6.726   5.924   9.134 -0.1874  0.4255 -1.2147
25664SOL     OW81929   8.368   5.593   2.398 -0.6880  0.4114  0.2355
25664SOL    HW181930   8.334   5.664   2.344 -1.2974  0.5048  0.7312
25664SOL    HW281931   8.417   5.537   2.337 -0.3734  1.1459 -0.1910
25665SOL     OW81932   5.131   0.424   4.678 -0.0765  0.4454  0.4925
25665SOL    HW181933   5.047   0.383   4.699 -1.6518  3.5022  0.7669
25665SOL    HW281934   5.125   0.441   4.583  1.0287 -0.8605  0.1635
25666SOL     OW81935   0.756   6.715   4.257  0.2788  0.2539  0.2621
25666SOL    HW181936   0.729   6.636   4.211  1.6104 -0.1652  0.1676
25666SOL    HW281937   0.737   6.697   4.349  1.8500 -0.7821  0.4307
25667SOL     OW81938   9.207   1.796   3.469 -0.0522  0.1769 -0.3225
25667SOL    HW181939   9.220   1.727   3.534  0.5037 -1.0264 -1.6373
25667SOL    HW281940   9.258   1.870   3.501  1.6677 -0.9930 -0.2203
25668SOL     OW81941   1.802   1.014  11.291 -0.5031  0.4980 -0.4654
25668SOL    HW181942   1.861   1.008  11.215  1.2633  0.0760  0.8637
25668SOL    HW281943   1.807   1.106  11.317 -0.1087  0.3863 -0.1308
25669SOL     OW81944   0.218   4.922   1.149  1.0220 -0.6536  0.3576
25669SOL    HW181945   0.196   4.971   1.070 -3.0812 -0.7556  1.1695
25669SOL    HW281946   0.252   4.839   1.117 -0.5078 -0.6913 -1.3560
25670SOL     OW81947   1.356   8.294   6.226  0.1881 -0.3723 -0.6426
25670SOL    HW181948   1.391   8.212   6.193  3.2822  0.1289  0.9613
25670SOL    HW281949   1.406   8.362   6.180  0.7454  0.4320  1.0505
25671SOL     OW81950   7.127   5.410   5.461  0.1753 -0.4822 -0.2307
25671SOL    HW181951   7.154   5.318   5.452  2.4053  0.1606 -0.7650
25671SOL    HW281952   7.095   5.417   5.551  0.9846 -1.5522  0.1606
25672SOL     OW81953   5.019   3.913   1.005 -0.1748  0.3631  0.0792
25672SOL    HW181954   5.060   3.998   1.022  0.0002  0.2846  0.0580
25672SOL    HW281955   5.093   3.854   0.990 -0.2474 -0.1056  1.4826
25673SOL     OW81956   4.447   0.982   8.530 -0.0494  0.3409 -0.2392
25673SOL    HW181957   4.508   1.055   8.535  0.7198 -0.3410  0.7600
25673SOL    HW281958   4.426   0.975   8.437  1.3885  0.6243 -0.6182
25674SOL     OW81959   6.407   9.648   8.993  0.1715  0.7719 -0.3204
25674SOL    HW181960   6.355   9.571   9.016 -1.0089  1.0985 -1.7215
25674SOL    HW281961   6.473   9.616   8.931  1.5783  0.3979  1.2968
25675SOL     OW81962   2.306   2.562  10.772  0.2890 -0.4636 -0.0955
25675SOL    HW181963   2.319   2.629  10.838 -2.9607  0.0819  0.1728
25675SOL    HW281964   2.258   2.607  10.702 -0.9292 -2.1828 -0.4298
25676SOL     OW81965   6.330   9.764   3.298  0.4961 -0.1716 -0.1058
25676SOL    HW181966   6.348   9.858   3.307 -0.3519 -0.2032  3.0426
25676SOL    HW281967   6.241   9.754   3.331 -0.1642 -1.8873 -2.2087
25677SOL     OW81968   9.350   7.939   7.461 -0.2563  0.2089 -0.2248
25677SOL    HW181969   9.406   7.938   7.538 -1.2120  1.3823  0.5378
25677SOL    HW281970   9.401   7.895   7.393  0.3481 -1.5023  1.2356
25678SOL     OW81971   7.782   0.342   9.168  0.3717  0.7501 -0.3611
25678SOL    HW181972   7.799   0.353   9.262  0.6435  0.7865 -0.4132
25678SOL    HW281973   7.687   0.355   9.159 -0.1592 -2.1504  0.3236
25679SOL     OW81974   9.505   4.647   0.837 -0.0840 -0.1864 -0.2868
25679SOL    HW181975   9.533   4.557   0.854 -1.1566 -0.2049  1.6612
25679SOL    HW281976   9.567   4.701   0.886 -2.4883 -0.1867  3.1500
25680SOL     OW81977   1.799   7.989   0.798 -0.6191  0.3088  0.2855
25680SOL    HW181978   1.810   8.018   0.889 -0.5356  0.7494  0.1345
25680SOL    HW281979   1.881   7.945   0.777 -0.4745  0.5715  0.2901
25681SOL     OW81980   4.129   4.079  11.220  0.5060  0.1613  0.2733
25681SOL    HW181981   4.087   4.080  11.306  0.6960  1.8993  0.3680
25681SOL    HW281982   4.058   4.090  11.158  0.6198  1.5061  0.3569
25682SOL     OW81983  11.250   4.867   4.990 -0.3274  0.2171  0.1510
25682SOL    HW181984  11.181   4.852   5.055 -0.4969  0.8721  0.1223
25682SOL    HW281985  11.327   4.822   5.026 -0.5955  0.0313  0.4918
25683SOL     OW81986   7.112   7.822   6.689  0.1894  0.0632  0.0404
25683SOL    HW181987   7.094   7.830   6.595  1.2515 -0.4141 -0.2263
25683SOL    HW281988   7.207   7.830   6.696  0.0894  0.4912  1.1280
25684SOL     OW81989   1.701   3.972  10.156 -0.1409  0.1209 -0.0123
25684SOL    HW181990   1.689   3.947  10.065 -0.1046  0.3576 -0.0831
25684SOL    HW281991   1.790   4.008  10.159 -0.4174  0.8190 -0.0455
25685SOL     OW81992   6.989  10.106   3.042  0.0051 -0.2204  0.5102
25685SOL    HW181993   7.083  10.096   3.031 -0.2374 -0.8613 -1.3550
25685SOL    HW281994   6.953  10.018   3.025 -0.9863  0.2171  0.2347
25686SOL     OW81995   0.180   2.374   3.962  0.0096 -0.7345  0.3824
25686SOL    HW181996   0.239   2.342   3.893 -0.5926  2.5929 -1.9463
25686SOL    HW281997   0.094   2.339   3.937  0.0922 -1.0459  0.5319
25687SOL     OW81998   8.241   7.719  11.493 -0.2540  0.5199  0.1099
25687SOL    HW181999   8.213   7.803  11.457  1.0697  0.5994 -0.8414
25687SOL    HW282000   8.336   7.727  11.501 -0.0551 -0.9926 -0.3387
25688SOL     OW82001   7.442   7.883   5.927 -0.8279 -0.1644  0.7199
25688SOL    HW182002   7.393   7.961   5.905  1.2013  1.1557  0.6582
25688SOL    HW282003   7.496   7.865   5.850 -0.7488 -1.2280  1.0000
25689SOL     OW82004   8.292   8.962   1.618  0.3778  0.4097 -0.2841
25689SOL    HW182005   8.374   8.990   1.578  0.1343  0.7683 -0.5376
25689SOL    HW282006   8.261   9.039   1.666  0.8178 -0.1046  0.8589
25690SOL     OW82007   3.898   5.178   4.825  0.6831 -0.5724  0.5576
25690SOL    HW182008   3.891   5.226   4.743 -0.0852 -1.6065 -0.0027
25690SOL    HW282009   3.959   5.107   4.806  0.2610 -0.9996  0.7843
25691SOL     OW82010   0.793   6.279   7.092 -0.0616  0.0292  0.0443
25691SOL    HW182011   0.730   6.313   7.028  0.8453  0.4679 -0.6479
25691SOL    HW282012   0.878   6.308   7.059  0.4549  0.0151  1.3040
25692SOL     OW82013   9.641   4.972   0.700  0.4297  0.1763 -0.4459
25692SOL    HW182014   9.568   4.915   0.677  0.4799 -0.2069  0.3121
25692SOL    HW282015   9.610   5.022   0.774  0.9932 -0.1218 -0.0013
25693SOL     OW82016   4.861   1.859   6.712  0.2194 -0.1443  0.0052
25693SOL    HW182017   4.867   1.952   6.689  2.0173 -0.0100  0.8692
25693SOL    HW282018   4.772   1.834   6.685 -0.0757  1.6375 -0.8611
25694SOL     OW82019   4.342   0.921   8.277  0.7158  0.3552 -0.2386
25694SOL    HW182020   4.417   0.907   8.219  1.6880 -0.8938  1.2320
25694SOL    HW282021   4.304   0.834   8.289 -0.5867  0.8740 -0.4239
25695SOL     OW82022   2.005  11.433  10.244  0.3243 -0.2504 -0.4940
25695SOL    HW182023   1.975  11.489  10.316 -0.9336  0.4392 -1.5224
25695SOL    HW282024   2.062  11.490  10.192  0.7639 -0.5804 -0.3841
25696SOL     OW82025   6.740   1.178   6.519  0.3574  0.5000 -0.2509
25696SOL    HW182026   6.676   1.225   6.572 -0.0578 -1.2167  0.8484
25696SOL    HW282027   6.698   1.166   6.434 -0.3828  0.2926  0.1383
25697SOL     OW82028   8.394  10.880   4.601  0.6566  0.3275 -0.2175
25697SOL    HW182029   8.385  10.789   4.631  0.4901  0.4040 -0.0330
25697SOL    HW282030   8.444  10.873   4.520  1.6091  0.1678  0.3721
25698SOL     OW82031  10.787   9.580  11.543  0.0538 -0.1448 -0.6601
25698SOL    HW182032  10.734   9.548  11.615 -0.5218 -3.2093 -2.3042
25698SOL    HW282033  10.877   9.577  11.576 -0.1938 -1.5557 -0.0715
25699SOL     OW82034   6.526   9.237   0.507 -0.1962 -0.2167  0.7718
25699SOL    HW182035   6.463   9.304   0.532  0.1613  0.0043  1.0871
25699SOL    HW282036   6.580   9.278   0.440 -1.6556 -1.0600 -1.0142
25700SOL     OW82037   5.071   8.845   7.021 -0.2306  0.4788  0.0314
25700SOL    HW182038   5.117   8.860   6.939  0.8524  0.7391  0.6692
25700SOL    HW282039   5.122   8.893   7.087 -1.1483  0.3849  0.8336
25701SOL     OW82040   3.072   1.780   0.020  0.2778 -0.0914 -0.2549
25701SOL    HW182041   3.063   1.873  -0.003  0.2061  0.3274  1.3731
25701SOL    HW282042   3.163   1.760  -0.002  0.3289  0.3903 -0.5159
25702SOL     OW82043   1.413   2.462  10.100  0.8571  0.0678 -0.0201
25702SOL    HW182044   1.446   2.465  10.190 -1.2577 -0.0909  0.8227
25702SOL    HW282045   1.378   2.374  10.090  0.5777  0.2588 -0.8113
25703SOL     OW82046   2.462   5.548   4.359  0.0827 -0.5653 -0.3990
25703SOL    HW182047   2.416   5.539   4.276 -3.4538 -2.2381  1.4944
25703SOL    HW282048   2.437   5.470   4.409  0.1292  1.3820  3.0224
25704SOL     OW82049   1.077   2.492   4.891  0.1935 -0.3692  0.3392
25704SOL    HW182050   0.983   2.510   4.887 -0.0333 -1.4504  0.5965
25704SOL    HW282051   1.088   2.410   4.844  1.0953  0.0020 -0.1219
25705SOL     OW82052   9.232  10.098   0.358  0.0956 -0.2223  0.0277
25705SOL    HW182053   9.274  10.105   0.272  0.3932 -1.4840  0.0511
25705SOL    HW282054   9.288  10.039   0.408  0.1275  0.7615  1.2363
25706SOL     OW82055   7.336  10.153   9.644 -0.2152  0.3816  0.2916
25706SOL    HW182056   7.387  10.190   9.717 -0.1248 -1.3595  1.1658
25706SOL    HW282057   7.341  10.058   9.657 -2.7087  0.1039 -0.2649
25707SOL     OW82058  10.731   9.280   9.406  0.8210  0.2955  0.0044
25707SOL    HW182059  10.711   9.346   9.473 -0.1740  1.0969 -1.0363
25707SOL    HW282060  10.681   9.203   9.433  0.7593  0.4777  0.4193
25708SOL     OW82061   4.384   2.189   2.285 -0.0792  0.3074 -0.3302
25708SOL    HW182062   4.402   2.282   2.276  2.4816 -0.2695 -1.9791
25708SOL    HW282063   4.403   2.169   2.377 -0.0515  1.2697 -0.1213
25709SOL     OW82064  10.155   1.079   1.376  0.0462  0.1524 -0.2037
25709SOL    HW182065  10.149   1.053   1.284 -1.1317  2.6633 -0.9398
25709SOL    HW282066  10.200   1.006   1.419 -1.2311 -2.0474 -2.3388
25710SOL     OW82067  10.181   2.914   9.522  0.3148  0.5233 -0.4496
25710SOL    HW182068  10.233   2.960   9.588 -0.6266  1.4648 -0.3291
25710SOL    HW282069  10.133   2.848   9.572  1.4597 -0.4413 -0.5812
25711SOL     OW82070   0.868   4.451   1.062 -0.4220  0.1869 -0.6676
25711SOL    HW182071   0.910   4.365   1.055  1.7096  1.2313 -1.8690
25711SOL    HW282072   0.814   4.445   1.141  3.0522 -0.9209  1.8601
25712SOL     OW82073   9.073  11.099   7.289  0.1587 -0.1073  0.0432
25712SOL    HW182074   9.078  11.043   7.212  0.1322 -1.7871  1.2207
25712SOL    HW282075   9.096  11.042   7.362  0.8558  1.6072  1.2220
25713SOL     OW82076   5.370   8.392   7.966 -0.0613  0.2502  0.0925
25713SOL    HW182077   5.332   8.331   8.029 -0.0647  0.0553 -0.0983
25713SOL    HW282078   5.407   8.462   8.020 -0.6326  0.4087  0.2857
25714SOL     OW82079   1.027  10.011  11.142 -0.2233  0.4089 -0.1275
25714SOL    HW182080   1.038   9.935  11.200  0.2586  0.4442 -0.1720
25714SOL    HW282081   0.986   9.976  11.063 -0.0680  0.2084 -0.1181
25715SOL     OW82082   3.775   0.699  10.122  0.5749 -0.0531 -0.2888
25715SOL    HW182083   3.765   0.750  10.202 -0.6433 -1.3344  0.4279
25715SOL    HW282084   3.785   0.764  10.053  1.2948  1.0895  0.8446
25716SOL     OW82085   1.079   6.569   3.963  0.2576 -0.3496 -0.0541
25716SOL    HW182086   1.169   6.579   3.933  0.5188  0.5037  0.9538
25716SOL    HW282087   1.076   6.617   4.046 -1.0244 -0.6971  0.1207
25717SOL     OW82088   4.511   1.028   7.476 -0.2364 -0.3187  0.3077
25717SOL    HW182089   4.583   0.993   7.422  0.0019  1.8580 -0.9279
25717SOL    HW282090   4.434   1.020   7.420 -0.2728  0.6014  0.2212
25718SOL     OW82091   6.960   1.445   6.601  0.0884  0.1316  0.6257
25718SOL    HW182092   6.884   1.475   6.652  0.2277  0.0932  0.8587
25718SOL    HW282093   6.934   1.359   6.568 -0.2141  0.3906  0.1672
25719SOL     OW82094  10.188   5.853   7.632  0.3569 -0.2804 -0.1731
25719SOL    HW182095  10.196   5.946   7.652 -1.3261 -0.7562  3.6162
25719SOL    HW282096  10.141   5.850   7.549 -0.6259  2.2789  0.1957
25720SOL     OW82097  10.071   8.253   1.449  0.3098  0.1767  0.2084
25720SOL    HW182098  10.005   8.318   1.424  0.4614  0.5031  0.6458
25720SOL    HW282099  10.091   8.273   1.541 -1.8856 -2.3687  1.3939
25721SOL     OW82100   6.288  11.151   5.825  0.2853 -0.7633  0.0512
25721SOL    HW182101   6.307  11.061   5.850  1.2551 -0.5942 -0.0443
25721SOL    HW282102   6.282  11.149   5.729  0.6655 -0.6642  0.0240
25722SOL     OW82103   9.720   9.483   0.900  0.0855 -0.2153  0.4791
25722SOL    HW182104   9.814   9.486   0.881 -0.0234 -0.5427 -0.1607
25722SOL    HW282105   9.701   9.566   0.944  0.3362  0.6678 -1.0096
25723SOL     OW82106   0.383   5.959   5.570 -0.1785  0.0137 -0.0026
25723SOL    HW182107   0.324   5.936   5.641  0.1170  0.1917  0.3015
25723SOL    HW282108   0.460   5.904   5.583  0.5610  1.1745  0.7625
25724SOL     OW82109   0.731  11.436   5.496  0.4752  0.4212  0.0057
25724SOL    HW182110   0.675  11.358   5.503 -0.9322  1.3603 -0.3397
25724SOL    HW282111   0.773  11.443   5.581  0.3401 -0.5207  0.1587
25725SOL     OW82112   1.305   7.904   1.954  0.2898  0.4480 -0.5014
25725SOL    HW182113   1.228   7.888   1.900  0.7486 -1.4792 -0.6635
25725SOL    HW282114   1.379   7.883   1.897  0.7814 -2.0820  0.8895
25726SOL     OW82115   0.787   3.203   8.318 -0.1317  0.1851  0.0488
25726SOL    HW182116   0.795   3.108   8.331  2.5361 -0.0635 -2.5187
25726SOL    HW282117   0.768   3.213   8.225  0.9629  2.1833 -0.0159
25727SOL     OW82118   4.409   5.754   0.739  0.3766  0.1536 -0.3026
25727SOL    HW182119   4.346   5.739   0.669 -0.0608 -0.8295  0.2718
25727SOL    HW282120   4.470   5.681   0.733 -1.0785 -1.3697  1.8011
25728SOL     OW82121   6.931  11.554   3.587  0.7508 -0.3100  0.1079
25728SOL    HW182122   7.015  11.538   3.629  0.6329  0.0239  0.4693
25728SOL    HW282123   6.873  11.487   3.621  0.2666  0.8177  1.5934
25729SOL     OW82124   4.194   7.145   6.738  0.2526 -1.0186 -0.4092
25729SOL    HW182125   4.212   7.233   6.770 -1.3797 -1.0041  0.5685
25729SOL    HW282126   4.120   7.155   6.679 -1.1664 -1.9129  1.1112
25730SOL     OW82127   3.020   3.605   4.313  0.2573 -0.5965 -0.2545
25730SOL    HW182128   3.041   3.691   4.350 -1.1470  0.4467 -1.7698
25730SOL    HW282129   3.086   3.591   4.245  0.5494 -0.7860  0.0631
25731SOL     OW82130   8.482   5.899   1.281  0.5166 -0.1189  0.1117
25731SOL    HW182131   8.396   5.861   1.299 -0.0755  1.6955  1.4236
25731SOL    HW282132   8.544   5.833   1.310 -0.4649 -0.2086  2.2288
25732SOL     OW82133   9.952   8.633   7.415  0.0695 -0.0569 -0.2262
25732SOL    HW182134  10.047   8.641   7.408  0.2987 -2.1982 -0.2860
25732SOL    HW282135   9.935   8.640   7.509  0.2726  0.3418 -0.2150
25733SOL     OW82136   3.882   7.188   9.909  0.2087  0.3057 -0.3916
25733SOL    HW182137   3.897   7.130   9.983 -0.2075 -0.3449 -0.8100
25733SOL    HW282138   3.789   7.180   9.890 -0.2116  2.3054  0.5245
25734SOL     OW82139   7.409   2.711   9.109  0.6194  0.1945 -0.3142
25734SOL    HW182140   7.471   2.647   9.073  0.0853 -1.7995  2.0273
25734SOL    HW282141   7.329   2.698   9.058  0.4909 -1.1453  0.1754
25735SOL     OW82142   3.194   7.818  11.306 -0.1005 -0.1625  0.3497
25735SOL    HW182143   3.176   7.878  11.234  2.9291  1.7995  1.0579
25735SOL    HW282144   3.227   7.739  11.264  0.5637  0.5430 -0.4897
25736SOL     OW82145   3.992   7.884   0.489 -0.2444 -0.4568  0.3090
25736SOL    HW182146   3.939   7.964   0.496  1.8844  0.9880  0.8084
25736SOL    HW282147   4.029   7.887   0.400 -2.1285 -2.2741 -0.6205
25737SOL     OW82148   7.439   0.898   5.233  0.2801  0.0789 -0.2457
25737SOL    HW182149   7.517   0.843   5.243  0.5173  0.3896 -0.3568
25737SOL    HW282150   7.428   0.939   5.319  0.4982  0.3752 -0.3607
25738SOL     OW82151   7.620   3.071   0.822  0.1736 -0.4016 -0.5103
25738SOL    HW182152   7.644   3.053   0.913  1.0072 -0.0321 -0.6448
25738SOL    HW282153   7.536   3.027   0.810  1.5591 -3.3096 -0.5119
25739SOL     OW82154   5.964  10.828   9.077  0.1022 -0.0882 -0.1866
25739SOL    HW182155   6.016  10.775   9.016  1.6590 -0.2912  1.2391
25739SOL    HW282156   6.026  10.893   9.110 -1.6070  2.3838 -1.4762
25740SOL     OW82157   3.859   7.231   3.807  0.6391  0.3461 -0.3986
25740SOL    HW182158   3.827   7.210   3.719 -0.5649  1.4669 -0.2483
25740SOL    HW282159   3.933   7.290   3.792  0.2226  0.8034 -0.6452
25741SOL     OW82160   2.834  11.041   0.861  0.1980  0.6162  0.3291
25741SOL    HW182161   2.746  11.009   0.884 -0.1476  0.3118 -1.3260
25741SOL    HW282162   2.872  11.068   0.945 -1.2572  0.2157  1.1509
25742SOL     OW82163   8.886  10.889   0.170  0.1244  0.8675  0.4167
25742SOL    HW182164   8.978  10.914   0.163 -0.0484  1.5526  0.4909
25742SOL    HW282165   8.838  10.964   0.135 -0.3888  0.2893 -0.1295
25743SOL     OW82166   9.314   7.943   6.327  0.9190 -0.0968 -0.7400
25743SOL    HW182167   9.239   7.994   6.297  1.5767  0.4422 -1.4943
25743SOL    HW282168   9.330   7.880   6.257  0.8970 -0.5152 -0.3766
25744SOL     OW82169   3.606   3.778   6.490  0.2428 -0.7443  0.3280
25744SOL    HW182170   3.684   3.759   6.438 -0.8091 -1.5266 -1.0144
25744SOL    HW282171   3.545   3.708   6.468 -1.3082  0.5402  0.3789
25745SOL     OW82172   9.487   7.531   4.353  0.3889 -0.1138  0.2822
25745SOL    HW182173   9.533   7.587   4.415  0.0960  0.2095  0.2102
25745SOL    HW282174   9.418   7.586   4.318 -0.7353 -0.9115  1.1714
25746SOL     OW82175   6.583   9.433   8.902  0.1875  0.4037 -0.2277
25746SOL    HW182176   6.664   9.399   8.863  0.5329 -0.3676  1.1236
25746SOL    HW282177   6.513   9.384   8.859  0.5089  0.1570 -0.4730
25747SOL     OW82178   1.508   9.951   6.868 -0.0180  0.5615 -0.2215
25747SOL    HW182179   1.456   9.973   6.791 -0.0008 -0.6767 -0.6055
25747SOL    HW282180   1.568   9.883   6.839  0.4867  0.5823  0.7107
25748SOL     OW82181   9.932   6.998   1.654 -0.3628  0.1825  0.6009
25748SOL    HW182182   9.980   7.069   1.696  0.9785 -0.0087 -0.5350
25748SOL    HW282183   9.978   6.918   1.679  1.8335  0.1938 -2.7591
25749SOL     OW82184   1.819   7.136   9.268 -0.4843  0.3981  0.0641
25749SOL    HW182185   1.889   7.116   9.330  0.1066  0.8338 -0.4425
25749SOL    HW282186   1.830   7.229   9.249 -0.5591  0.2476 -0.7852
25750SOL     OW82187   5.369   4.740   2.889  0.2116  0.2319 -0.1839
25750SOL    HW182188   5.379   4.661   2.837 -1.2821  0.0018 -0.1725
25750SOL    HW282189   5.342   4.709   2.976  1.9632  0.6479  0.5440
25751SOL     OW82190   5.750   9.937   1.663 -0.2550 -0.1495 -0.5379
25751SOL    HW182191   5.697   9.977   1.732 -0.7469  0.3556 -1.1889
25751SOL    HW282192   5.750   9.843   1.684  0.5755  0.1141  0.7848
25752SOL     OW82193   6.780   0.956   8.507  0.3446  0.3817  0.4788
25752SOL    HW182194   6.875   0.948   8.503  0.4461  1.0621  1.1886
25752SOL    HW282195   6.754   0.978   8.417  0.9591  1.1147  0.4725
25753SOL     OW82196   0.592   7.311  11.042 -0.1964 -0.1495 -0.1201
25753SOL    HW182197   0.501   7.321  11.071  0.1978  1.9234  0.6046
25753SOL    HW282198   0.625   7.401  11.037  1.6099 -0.8205 -1.0877
25754SOL     OW82199   8.306   9.555  10.355  0.1960 -0.4607  0.4931
25754SOL    HW182200   8.212   9.541  10.348  0.2779 -1.5579  1.2712
25754SOL    HW282201   8.321   9.573  10.448  0.8953 -1.5957  0.6185
25755SOL     OW82202   7.280   3.708   3.339  0.3215 -0.1247 -0.9312
25755SOL    HW182203   7.241   3.770   3.401  1.7923 -1.1315  1.1195
25755SOL    HW282204   7.208   3.683   3.281 -0.3487  3.4421 -1.8828
25756SOL     OW82205   8.441  10.784   6.667  0.2796  0.0081 -0.1248
25756SOL    HW182206   8.494  10.728   6.609  0.3026 -0.3326  0.2239
25756SOL    HW282207   8.397  10.845   6.607  1.0943  0.3237 -0.4144
25757SOL     OW82208   4.483   2.647  11.085 -0.0008 -0.4827 -0.0351
25757SOL    HW182209   4.578   2.639  11.070 -0.3130 -1.9235 -1.5348
25757SOL    HW282210   4.462   2.736  11.056  0.5276 -0.9878 -2.1529
25758SOL     OW82211   0.756   8.465  10.385  0.5900 -0.3479 -0.4343
25758SOL    HW182212   0.712   8.420  10.458  2.2611 -0.2006  0.7261
25758SOL    HW282213   0.789   8.546  10.424  1.8023 -0.4153 -1.2713
25759SOL     OW82214   9.081   8.018   2.347 -0.0855  0.5071 -0.4943
25759SOL    HW182215   9.062   8.008   2.253 -0.8249  1.0598 -0.4116
25759SOL    HW282216   9.075   8.112   2.362  0.3974  0.4553  0.0389
25760SOL     OW82217   3.864   2.716   3.807 -0.1211  0.7932 -0.0842
25760SOL    HW182218   3.866   2.705   3.712  0.5581 -0.0053  0.0107
25760SOL    HW282219   3.951   2.749   3.830 -0.2649  0.9413  0.2624
25761SOL     OW82220  10.271   5.744   2.086  0.1194  0.3654 -0.7841
25761SOL    HW182221  10.217   5.789   2.021  0.9819  1.3330 -0.8652
25761SOL    HW282222  10.293   5.812   2.150  0.9882 -0.0616 -0.6060
25762SOL     OW82223   0.900   3.717   6.764 -0.4590 -0.6823  0.1778
25762SOL    HW182224   0.862   3.717   6.677 -2.8745 -0.9727  1.1397
25762SOL    HW282225   0.957   3.795   6.766 -2.3005  0.7766 -0.8877
25763SOL     OW82226   5.710   0.223   3.641 -0.0108  0.2779  0.1654
25763SOL    HW182227   5.645   0.278   3.684 -1.0667 -2.0423  1.7768
25763SOL    HW282228   5.680   0.217   3.550 -0.7030  1.1337  0.3285
25764SOL     OW82229   5.767  11.342  11.307 -0.2198  0.8165 -0.9525
25764SOL    HW182230   5.825  11.378  11.240  1.3039 -0.7199 -0.5176
25764SOL    HW282231   5.823  11.285  11.360 -1.5360  1.4593  1.2361
25765SOL     OW82232   7.702  11.564  11.284 -0.2600 -0.3770 -0.4486
25765SOL    HW182233   7.790  11.597  11.304 -0.4129  0.7206 -1.4761
25765SOL    HW282234   7.673  11.618  11.210 -2.4833  0.4765  0.9473
25766SOL     OW82235   0.695   3.011   0.591 -0.1301 -0.2767 -0.3845
25766SOL    HW182236   0.702   3.085   0.531 -0.0442 -0.9162 -1.1813
25766SOL    HW282237   0.658   3.049   0.671 -0.8023  0.4829 -1.0351
25767SOL     OW82238   0.731  11.566   9.773  0.2169 -0.1083  0.6645
25767SOL    HW182239   0.777  11.609   9.700 -0.8997  0.4680  0.2682
25767SOL    HW282240   0.710  11.638   9.833 -0.7028 -0.2551  0.5312
25768SOL     OW82241   3.522   8.443   5.074  0.4005 -0.8145 -0.1314
25768SOL    HW182242   3.448   8.453   5.134 -0.1893 -0.9787 -0.8247
25768SOL    HW282243   3.580   8.381   5.117  1.1367  0.8148  1.3736
25769SOL     OW82244   1.148   2.348   0.480  0.1429 -0.6567  0.5820
25769SOL    HW182245   1.213   2.296   0.432 -0.9128 -2.0525  0.5949
25769SOL    HW282246   1.111   2.406   0.413 -0.2783 -1.5519  0.0118
25770SOL     OW82247   4.246   4.501   3.912 -0.2393 -0.3672 -0.6250
25770SOL    HW182248   4.202   4.476   3.993  2.1324  0.8578  1.1639
25770SOL    HW282249   4.216   4.590   3.895  1.6765  0.6416  0.8455
25771SOL     OW82250  11.394   2.984  11.136 -0.4841 -0.4590 -1.0687
25771SOL    HW182251  11.451   2.914  11.106  1.4539 -0.3411  1.8843
25771SOL    HW282252  11.321   2.940  11.178  1.0953 -0.9162  1.4515
25772SOL     OW82253   6.313   7.797  11.556  0.4994  0.1373 -0.6795
25772SOL    HW182254   6.227   7.838  11.568 -0.1978 -1.2794 -0.5492
25772SOL    HW282255   6.333   7.810  11.463 -0.4206 -0.5089 -0.9884
25773SOL     OW82256   2.186   1.600   1.034  0.2808  0.2128  0.2434
25773SOL    HW182257   2.264   1.545   1.042  0.3518 -0.3146 -3.0506
25773SOL    HW282258   2.221   1.689   1.030  0.7041  0.0208 -0.6359
25774SOL     OW82259   1.902   4.177   2.889 -0.1115 -0.5544  0.0654
25774SOL    HW182260   1.831   4.139   2.940 -1.1954  0.8819 -0.3370
25774SOL    HW282261   1.921   4.261   2.931  0.2063 -0.1688 -0.8128
25775SOL     OW82262  10.595   2.816  11.060 -0.3468  0.3844  0.4416
25775SOL    HW182263  10.663   2.749  11.065 -0.6703 -0.2128 -1.9293
25775SOL    HW282264  10.513   2.767  11.065 -0.6234  0.9220  1.4867
25776SOL     OW82265   8.792   1.465   4.805 -0.5078 -0.0910 -0.2828
25776SOL    HW182266   8.763   1.422   4.724  0.2332  0.1190 -0.6711
25776SOL    HW282267   8.853   1.403   4.845  1.0484  0.7978 -1.1576
25777SOL     OW82268   0.243   3.478  10.192  0.6634 -0.1695 -0.4790
25777SOL    HW182269   0.155   3.455  10.220  0.6521  0.8573  0.3988
25777SOL    HW282270   0.232   3.507  10.101 -0.2287  1.6525  0.1638
25778SOL     OW82271   2.071   1.843  11.227  0.5692 -0.1203  0.1724
25778SOL    HW182272   2.087   1.930  11.192 -0.7464  0.1023  0.0816
25778SOL    HW282273   2.079   1.853  11.322 -2.0749  0.7160  0.3802
25779SOL     OW82274   9.819   0.278   2.982  0.0998  0.7183  0.0783
25779SOL    HW182275   9.907   0.316   2.990  0.8048 -0.5066 -1.3745
25779SOL    HW282276   9.833   0.193   2.940 -1.8573  0.8257 -0.8930
25780SOL     OW82277   4.403   6.680   8.525 -0.2945  0.1271 -0.1023
25780SOL    HW182278   4.345   6.752   8.502 -1.2445 -0.4394  0.4871
25780SOL    HW282279   4.464   6.674   8.450 -1.1531  0.5519 -0.8511
25781SOL     OW82280   7.786   9.692   7.741  0.9892 -0.2920 -0.2228
25781SOL    HW182281   7.771   9.701   7.647  0.5552  1.7885  0.0141
25781SOL    HW282282   7.711   9.641   7.772  0.5585 -0.0416 -0.8286
25782SOL     OW82283   7.480   3.891   8.690  0.1448  0.2686  0.1431
25782SOL    HW182284   7.453   3.821   8.631  0.7547  0.3227 -0.2169
25782SOL    HW282285   7.502   3.964   8.632  2.7458 -0.3340  0.2341
25783SOL     OW82286   1.980   4.120   3.284  0.5515  0.3949  0.0850
25783SOL    HW182287   1.956   4.195   3.339  0.2777  0.0973  0.3774
25783SOL    HW282288   1.972   4.044   3.342  2.0950  0.2581  0.1691
25784SOL     OW82289   8.874   1.659  11.383  0.0628 -0.1138  0.3195
25784SOL    HW182290   8.850   1.650  11.290  1.1816 -1.4189  0.1374
25784SOL    HW282291   8.927   1.739  11.386  0.8912 -0.6166 -0.3744
25785SOL     OW82292   6.522   6.865   6.687 -0.4378 -0.1416  0.1406
25785SOL    HW182293   6.615   6.878   6.671 -0.1271 -1.9915  0.2318
25785SOL    HW282294   6.481   6.947   6.661  1.2822  0.9535  0.7523
25786SOL     OW82295  11.645   0.252   3.243 -0.2053  0.0356  0.4412
25786SOL    HW182296  11.620   0.335   3.204 -1.4857 -0.0333  1.0612
25786SOL    HW282297  11.733   0.234   3.209 -1.2397 -0.0306 -2.4146
25787SOL     OW82298   0.531  10.064   5.655 -0.2780  0.6230  0.4369
25787SOL    HW182299   0.463  10.115   5.698 -1.3688  1.0066 -1.6307
25787SOL    HW282300   0.568  10.122   5.589  0.9140 -0.1339  0.3935
25788SOL     OW82301  10.334  10.188   3.239  0.5759 -0.1660  0.1307
25788SOL    HW182302  10.301  10.241   3.166 -1.7711 -0.3662  0.9595
25788SOL    HW282303  10.393  10.247   3.286 -0.8966  1.2865  0.2479
25789SOL     OW82304   9.903  10.152  10.628 -0.3904 -0.0495  0.6444
25789SOL    HW182305   9.853  10.107  10.696  0.4138  0.0386  1.3181
25789SOL    HW282306   9.838  10.179  10.563 -1.0335 -1.1472  0.8064
25790SOL     OW82307   5.792   4.727   3.471 -0.1337 -0.8159  0.6039
25790SOL    HW182308   5.813   4.634   3.471  2.1803 -0.4174 -1.9346
25790SOL    HW282309   5.870   4.769   3.508 -0.7912  0.1940  0.8964
25791SOL     OW82310  10.963   9.904   0.278 -0.2761 -0.1904  0.4481
25791SOL    HW182311  11.000   9.829   0.324 -2.5083 -1.7080 -0.0833
25791SOL    HW282312  11.032   9.933   0.220  0.6205 -1.9088  0.6036
25792SOL     OW82313  10.740   2.495   1.720 -0.1288  0.7053  0.5728
25792SOL    HW182314  10.683   2.541   1.658 -0.1075 -1.7424 -1.4170
25792SOL    HW282315  10.824   2.540   1.713  0.0025  0.2417 -1.5988
25793SOL     OW82316   9.525   1.486   1.543 -0.2442  0.4237 -0.1893
25793SOL    HW182317   9.538   1.460   1.452 -2.5533  0.2018 -0.5000
25793SOL    HW282318   9.439   1.527   1.545 -0.4023  0.1276  1.9683
25794SOL     OW82319   8.929   7.448   0.501  0.0779  0.0066  0.3258
25794SOL    HW182320   8.839   7.429   0.527 -0.2600 -0.5937 -1.1652
25794SOL    HW282321   8.926   7.537   0.466  0.1292  0.0972  0.5509
25795SOL     OW82322   6.742   1.802   4.275 -0.0323 -0.1939  0.0772
25795SOL    HW182323   6.684   1.730   4.248 -0.2749  0.2301 -0.5785
25795SOL    HW282324   6.686   1.859   4.327  0.1037 -0.3725  0.4184
25796SOL     OW82325   7.484  10.984   0.158 -0.4121 -0.4054 -0.0661
25796SOL    HW182326   7.569  10.962   0.118  0.3336  2.5098 -0.3202
25796SOL    HW282327   7.434  11.022   0.086 -2.4391 -3.0353 -0.1790
25797SOL     OW82328   2.431   7.466   3.448  0.3736 -0.1938  0.7343
25797SOL    HW182329   2.389   7.396   3.398  0.2599  1.3636 -1.4971
25797SOL    HW282330   2.361   7.529   3.465  0.9607  0.5146  0.5780
25798SOL     OW82331   5.469   1.421   6.755  0.2235  0.5823 -0.4798
25798SOL    HW182332   5.450   1.488   6.821  0.0373  0.0306  0.0317
25798SOL    HW282333   5.384   1.382   6.734  0.1848  1.1770 -1.5218
25799SOL     OW82334   3.629   3.567  10.943 -0.3640  0.3905 -0.2140
25799SOL    HW182335   3.687   3.516  10.886 -0.0188 -0.1949  0.6509
25799SOL    HW282336   3.684   3.638  10.975 -0.2478  0.0925  0.2514
25800SOL     OW82337   2.476   5.166   9.898 -0.3216 -0.2878  0.7802
25800SOL    HW182338   2.439   5.078   9.891  0.2903 -0.4876 -0.1332
25800SOL    HW282339   2.517   5.181   9.813 -0.2372  0.7992  1.0065
25801SOL     OW82340   0.368   9.356   1.504 -0.0242 -0.5559  0.5664
25801SOL    HW182341   0.291   9.380   1.451  0.5169 -1.8557 -0.8727
25801SOL    HW282342   0.336   9.359   1.594 -1.6322 -0.5664  0.0399
25802SOL     OW82343   1.044  10.916   4.942 -0.1762 -0.3635 -0.0009
25802SOL    HW182344   1.101  10.879   4.875  2.0228  0.6866  1.1708
25802SOL    HW282345   1.103  10.939   5.014 -2.0582  1.0080  1.2128
25803SOL     OW82346   5.170   1.175  11.564 -0.0433 -0.1321 -0.1351
25803SOL    HW182347   5.117   1.220  11.498  1.3083  1.1509 -0.4198
25803SOL    HW282348   5.118   1.100  11.591 -0.6650 -0.6747 -2.6242
25804SOL     OW82349   6.691  11.342  10.480 -0.0935  0.0386  0.1178
25804SOL    HW182350   6.661  11.410  10.420 -0.0767 -0.1014 -0.0501
25804SOL    HW282351   6.785  11.336  10.464 -0.2636 -0.7933 -0.6606
25805SOL     OW82352   2.292   5.189   4.146  0.4135  0.0009  0.3616
25805SOL    HW182353   2.285   5.212   4.054  1.6612  0.6010  0.4081
25805SOL    HW282354   2.207   5.150   4.167  0.2638 -0.5497 -1.1454
25806SOL     OW82355   1.424   2.480   6.720  0.1361  0.4814 -0.4293
25806SOL    HW182356   1.355   2.429   6.676  0.6908 -1.7942  1.1516
25806SOL    HW282357   1.426   2.563   6.673 -2.4560 -0.0509 -1.6611
25807SOL     OW82358   9.521   3.338   7.095  1.3097 -0.4312 -0.1056
25807SOL    HW182359   9.601   3.345   7.042  0.0338  0.1549 -2.0626
25807SOL    HW282360   9.457   3.296   7.037 -0.2832  0.6191  0.8185
25808SOL     OW82361   8.366   8.549   5.732  0.6185  0.2084  0.4456
25808SOL    HW182362   8.321   8.612   5.677  1.4422 -0.8023 -1.4964
25808SOL    HW282363   8.357   8.466   5.686  0.8830 -0.8035  2.1376
25809SOL     OW82364   3.428   5.323   7.152  0.1035 -0.2905  0.3817
25809SOL    HW182365   3.384   5.407   7.143 -1.9781 -1.5163 -2.8026
25809SOL    HW282366   3.498   5.325   7.086  1.2353 -0.4572  1.5313
25810SOL     OW82367   0.679  10.441   8.487  0.5545 -0.1441  0.4952
25810SOL    HW182368   0.726  10.524   8.476  1.6922 -0.9836 -1.3887
25810SOL    HW282369   0.610  10.462   8.550  1.2085  2.0563  0.5927
25811SOL     OW82370   1.847  10.985   5.975 -0.3297  0.2496  0.3614
25811SOL    HW182371   1.941  10.995   5.964 -0.5693  2.3248 -0.1642
25811SOL    HW282372   1.819  10.933   5.899 -0.0433  2.6869 -1.5387
25812SOL     OW82373   4.693   1.783   9.853 -0.5275  0.2998  0.2193
25812SOL    HW182374   4.639   1.791   9.775 -0.8704  2.1307  0.6082
25812SOL    HW282375   4.729   1.694   9.848 -1.1925  0.0926 -1.5714
25813SOL     OW82376   0.385   3.703   4.989  0.2130 -0.5204  0.5165
25813SOL    HW182377   0.353   3.789   5.015  1.1363  0.2127 -0.6906
25813SOL    HW282378   0.480   3.711   4.990  0.3770 -0.3789 -3.0442
25814SOL     OW82379  11.003  11.146   1.891 -0.1602 -0.1022  0.1047
25814SOL    HW182380  10.938  11.216   1.881  0.8437  1.0311  1.0839
25814SOL    HW282381  11.023  11.118   1.802  1.8443  3.2233 -0.6825
25815SOL     OW82382  11.492  10.059   4.522  0.5784  0.3575 -0.0510
25815SOL    HW182383  11.496  10.010   4.440  2.0650  0.0384  0.1748
25815SOL    HW282384  11.529  10.144   4.501  0.7397  0.3585  0.2374
25816SOL     OW82385   3.693   2.148   9.921  0.6837 -0.3024  0.3544
25816SOL    HW182386   3.752   2.128   9.849  1.6962  0.5047  0.9246
25816SOL    HW282387   3.656   2.233   9.899  1.3152  0.1437  0.9596
25817SOL     OW82388   7.102   5.970   0.223  0.2220  0.2541 -0.0227
25817SOL    HW182389   7.111   5.933   0.135  1.6740  0.2091  0.1131
25817SOL    HW282390   7.085   5.895   0.279  1.1517  0.0205 -0.0294
25818SOL     OW82391   5.954   4.709  10.976  0.4973  0.4329  0.7994
25818SOL    HW182392   5.863   4.734  10.957  0.9899  1.6209 -0.2066
25818SOL    HW282393   5.954   4.614  10.971 -0.9299  0.3363  2.0094
25819SOL     OW82394  10.741   3.804   8.127 -0.0443 -0.0533  0.5189
25819SOL    HW182395  10.760   3.854   8.206  2.7896  0.7072 -0.5285
25819SOL    HW282396  10.827   3.775   8.095 -0.9959  0.1105 -2.5612
25820SOL     OW82397   4.900   3.094   2.328 -0.1367  0.0228 -0.0748
25820SOL    HW182398   4.980   3.133   2.294  0.0296  1.5792  1.9268
25820SOL    HW282399   4.857   3.056   2.251  2.4233 -0.7562 -1.2062
25821SOL     OW82400   5.143  11.605   7.515 -0.6643  0.5868  0.2813
25821SOL    HW182401   5.089  11.527   7.528 -1.0596  0.8963  0.4967
25821SOL    HW282402   5.173  11.598   7.424 -0.6669  0.1633  0.3134
25822SOL     OW82403   1.119   7.499   2.149  0.3436  0.3715 -0.4887
25822SOL    HW182404   1.201   7.486   2.101  1.1845  0.2489  0.9318
25822SOL    HW282405   1.122   7.435   2.219 -1.6092 -0.5317 -1.1734
25823SOL     OW82406   5.820   7.792  11.519  0.2673  0.1144 -0.1983
25823SOL    HW182407   5.862   7.797  11.605 -0.1746  0.8973 -0.0145
25823SOL    HW282408   5.779   7.706  11.518  1.4846 -0.4987 -0.2115
25824SOL     OW82409  11.574  11.402   7.700 -0.6204 -0.2999 -0.1549
25824SOL    HW182410  11.603  11.473   7.643 -2.1409  0.3003 -0.2325
25824SOL    HW282411  11.497  11.437   7.745 -1.8900 -2.1490 -0.7744
25825SOL     OW82412   3.090   7.070   2.883  0.2478  0.1471 -0.2124
25825SOL    HW182413   3.132   7.001   2.935  0.4960  0.7438  0.4030
25825SOL    HW282414   3.159   7.102   2.825 -0.2850 -1.1996 -1.6749
25826SOL     OW82415   2.041   0.819  11.088 -0.5792 -0.3689  0.5241
25826SOL    HW182416   2.026   0.913  11.072  0.3317 -0.7087 -3.5178
25826SOL    HW282417   2.125   0.815  11.133 -1.2499  0.7518  1.9453
25827SOL     OW82418   2.994   0.711   8.449  0.3194 -0.5653 -0.3596
25827SOL    HW182419   2.900   0.704   8.464  0.2189 -0.2687 -0.8412
25827SOL    HW282420   3.027   0.621   8.455 -0.1120 -0.7642 -0.9857
25828SOL     OW82421   5.062  10.781  10.185  0.3694 -0.0598 -0.4482
25828SOL    HW182422   5.042  10.838  10.111 -0.3299  0.2513 -0.0281
25828SOL    HW282423   5.036  10.832  10.262 -1.3197 -1.3302 -0.1090
25829SOL     OW82424   0.671   2.702   0.856 -0.3506  0.0190  0.0746
25829SOL    HW182425   0.656   2.787   0.897 -1.2832  0.3824 -0.9979
25829SOL    HW282426   0.677   2.641   0.930  0.0276  0.9485  0.8389
25830SOL     OW82427   8.793   5.135   4.324 -0.0635 -0.2028  0.5416
25830SOL    HW182428   8.798   5.208   4.262 -0.6944 -0.9569 -0.4222
25830SOL    HW282429   8.774   5.177   4.408 -0.3154  0.7565  0.0193
25831SOL     OW82430   7.760  11.114   1.157 -0.2200  0.0872  0.6504
25831SOL    HW182431   7.671  11.133   1.185  0.3180 -0.0887  2.6886
25831SOL    HW282432   7.812  11.187   1.192  0.3544  0.6720 -1.2952
25832SOL     OW82433   7.146   2.612  10.230  0.2524  0.1516  0.1759
25832SOL    HW182434   7.129   2.637  10.140 -0.3243 -0.4942  0.1027
25832SOL    HW282435   7.212   2.543  10.224  2.0816  1.7891  0.3946
25833SOL     OW82436   0.179   1.027   2.186 -0.0946 -0.0236 -0.3635
25833SOL    HW182437   0.251   1.029   2.249 -0.4061  0.9897 -0.0220
25833SOL    HW282438   0.219   0.992   2.106  0.5339 -0.3921  0.0993
25834SOL     OW82439   5.561   2.872   5.006 -0.2137  0.1823 -0.2990
25834SOL    HW182440   5.615   2.814   5.060  0.2365 -0.0420 -0.9921
25834SOL    HW282441   5.620   2.941   4.978 -0.9304  1.4840  1.2128
25835SOL     OW82442   3.605   8.670   8.611  0.1039 -0.5588 -0.1533
25835SOL    HW182443   3.687   8.672   8.562  0.0604  0.7951 -0.2108
25835SOL    HW282444   3.538   8.651   8.545  0.2387 -0.4350 -0.3248
25836SOL     OW82445   7.220   9.058  10.797  0.0234 -0.0440  0.1229
25836SOL    HW182446   7.290   9.099  10.847 -1.0093  1.5957  0.3193
25836SOL    HW282447   7.238   8.964  10.802  1.4739  0.2596  1.2291
25837SOL     OW82448   5.494   3.920  11.115 -0.1133  0.0471 -0.0272
25837SOL    HW182449   5.446   3.975  11.177  1.5947  1.8252 -0.1649
25837SOL    HW282450   5.580   3.909  11.154 -0.1986 -2.0230 -0.3526
25838SOL     OW82451  10.820   6.670   9.647 -0.5822 -0.8626 -0.0432
25838SOL    HW182452  10.851   6.582   9.670 -0.0537 -1.4379 -2.6526
25838SOL    HW282453  10.729   6.658   9.623 -0.3673 -0.8195 -0.9094
25839SOL     OW82454   5.732   6.289   1.726  0.2042  0.6887 -0.0176
25839SOL    HW182455   5.638   6.288   1.745 -0.1836  1.0814 -1.7025
25839SOL    HW282456   5.763   6.204   1.757 -0.8203  0.3236  0.0658
25840SOL     OW82457   8.382   0.032   9.027  0.5336  0.2582 -0.1815
25840SOL    HW182458   8.446  -0.007   8.967  0.7848 -0.7984  0.7499
25840SOL    HW282459   8.308  -0.028   9.026 -0.0441  0.9549 -0.4751
25841SOL     OW82460  10.478   4.739   0.380  0.0215  0.2476 -0.0414
25841SOL    HW182461  10.414   4.744   0.309 -0.7341 -0.8833  0.5250
25841SOL    HW282462  10.551   4.794   0.350  0.1970 -1.0225 -2.1900
25842SOL     OW82463   0.322  11.295   0.942  0.3141  0.0691 -0.7608
25842SOL    HW182464   0.383  11.368   0.933  1.1640 -0.5378 -0.0721
25842SOL    HW282465   0.236  11.335   0.934  0.7793  1.0357 -1.1244
25843SOL     OW82466   2.988   9.869   3.012  0.4450 -0.0776 -0.7053
25843SOL    HW182467   3.066   9.813   3.009  1.2063  0.9649 -1.1712
25843SOL    HW282468   2.989   9.914   2.927 -1.2271 -0.7674 -1.1276
25844SOL     OW82469   4.044  11.265   2.355 -0.1495 -0.0346  0.4300
25844SOL    HW182470   4.052  11.245   2.448 -0.4285  0.8543  0.6516
25844SOL    HW282471   3.981  11.336   2.351  0.4857  0.5003 -0.3676
25845SOL     OW82472  10.451   9.347   1.189  0.4005 -0.4660  0.8437
25845SOL    HW182473  10.393   9.271   1.197 -0.2299 -0.1918 -0.7143
25845SOL    HW282474  10.507   9.326   1.114 -0.4987  1.0215 -0.2949
25846SOL     OW82475   1.656   6.019   9.341 -0.1758  0.0423 -0.2705
25846SOL    HW182476   1.684   5.935   9.377  0.8462  0.7412  0.6351
25846SOL    HW282477   1.667   6.081   9.413  1.2318  1.3663 -1.5380
25847SOL     OW82478   3.637   5.193  10.531 -0.1547  0.0206  0.4523
25847SOL    HW182479   3.672   5.164  10.447 -0.7043  2.2641 -0.6181
25847SOL    HW282480   3.545   5.165  10.530  0.1528 -1.0957  0.9277
25848SOL     OW82481  10.650   8.213   1.388  0.4309 -0.0835  0.2164
25848SOL    HW182482  10.650   8.273   1.314 -1.2634 -2.2188 -1.6721
25848SOL    HW282483  10.563   8.222   1.427  1.0494  0.4731  1.5439
25849SOL     OW82484   7.206   0.432   3.213  0.0729 -0.0240 -0.4036
25849SOL    HW182485   7.187   0.504   3.273 -2.9881 -0.5514 -0.5899
25849SOL    HW282486   7.293   0.401   3.239  0.5278  2.2866  1.1098
25850SOL     OW82487  10.248   5.462  11.606 -0.2851 -0.0153  0.3386
25850SOL    HW182488  10.169   5.412  11.628 -1.1310  1.6413  1.2354
25850SOL    HW282489  10.278   5.424  11.523 -1.6289 -1.1329  0.3333
25851SOL     OW82490  10.257   3.262   6.686  0.5050  0.2645  0.4889
25851SOL    HW182491  10.185   3.285   6.745  0.7185  0.5514  0.6364
25851SOL    HW282492  10.220   3.192   6.631 -0.7541  2.1446 -1.1909
25852SOL     OW82493   4.746  11.105   0.257 -0.2974 -1.3421  0.0376
25852SOL    HW182494   4.797  11.055   0.193  2.4140 -0.8238  1.6367
25852SOL    HW282495   4.769  11.196   0.241 -1.4132 -0.9993  0.2695
25853SOL     OW82496   0.652  10.458   1.547 -0.6131  0.3535  0.4262
25853SOL    HW182497   0.631  10.365   1.555 -1.2279  0.4326 -0.1963
25853SOL    HW282498   0.640  10.492   1.636 -1.0024 -0.0385  0.5288
25854SOL     OW82499   0.854   0.206   5.979 -0.5600 -0.4951  0.1736
25854SOL    HW182500   0.890   0.117   5.978 -0.7310 -0.5604 -0.1717
25854SOL    HW282501   0.913   0.255   6.036 -0.2437 -0.7347  0.0512
25855SOL     OW82502   0.615   2.332   7.005  0.0978 -0.0637 -0.5237
25855SOL    HW182503   0.628   2.380   7.087  0.0267  0.1175 -0.6177
25855SOL    HW282504   0.550   2.384   6.957 -2.2589 -1.7345  0.6076
25856SOL     OW82505   1.166  11.376   1.328 -0.4938 -0.0143 -0.3882
25856SOL    HW182506   1.245  11.329   1.356 -0.6044  1.1020  2.0926
25856SOL    HW282507   1.198  11.462   1.299 -0.7828  0.7675  1.4499
25857SOL     OW82508  10.949   5.948   0.980  0.2974 -0.0761 -0.0813
25857SOL    HW182509  10.872   5.894   1.001  1.2042 -0.8347  1.4706
25857SOL    HW282510  10.913   6.020   0.927 -1.1532 -1.4400 -1.0431
25858SOL     OW82511   0.080   2.128   4.137  0.2610 -0.0929  0.9684
25858SOL    HW182512   0.155   2.186   4.125 -0.4880  0.5670 -0.8462
25858SOL    HW282513   0.077   2.075   4.058  0.0379 -1.6093  1.9496
25859SOL     OW82514   2.321   5.073   1.183  0.5716  0.3386 -0.1643
25859SOL    HW182515   2.377   5.080   1.260  1.2720 -1.6552 -0.4297
25859SOL    HW282516   2.235   5.050   1.219  0.3851  1.4572  0.1284
25860SOL     OW82517   3.146  11.229   7.012 -0.5772 -0.4948 -0.2551
25860SOL    HW182518   3.174  11.251   7.101 -0.6331  0.9615 -0.5755
25860SOL    HW282519   3.194  11.289   6.955 -1.8685 -0.1940 -1.0675
25861SOL     OW82520   9.065   9.161   2.691  0.5437 -0.4712  0.0557
25861SOL    HW182521   9.005   9.154   2.617  2.2795  1.4021 -1.6822
25861SOL    HW282522   9.014   9.204   2.759 -0.5577 -0.4607 -0.7510
25862SOL     OW82523   0.609   1.591  10.674 -0.4645 -0.0568 -0.3070
25862SOL    HW182524   0.679   1.652  10.695 -1.0648 -0.4313  3.5085
25862SOL    HW282525   0.650   1.505  10.676 -0.6669 -0.1484  0.1965
25863SOL     OW82526   1.656  11.665   9.720  0.2096 -0.2645  0.6722
25863SOL    HW182527   1.590  11.638   9.657  1.7526 -1.5413 -0.4866
25863SOL    HW282528   1.676  11.585   9.770 -1.1038  0.7453  2.9735
25864SOL     OW82529   9.266  10.859   3.838  0.0567  0.3296  0.0512
25864SOL    HW182530   9.332  10.815   3.783 -0.4267 -2.0337  1.2097
25864SOL    HW282531   9.302  10.854   3.927 -0.4848  1.4419  0.3466
25865SOL     OW82532  11.074   4.657   7.246  0.1690  0.0437  0.1507
25865SOL    HW182533  11.103   4.696   7.163  0.6303 -1.1435 -0.2675
25865SOL    HW282534  10.979   4.651   7.238  0.2426 -0.3839 -0.4363
25866SOL     OW82535   4.979   3.583   6.836 -0.4667  0.4285 -0.2601
25866SOL    HW182536   5.037   3.508   6.851 -2.4065 -0.8226  1.5119
25866SOL    HW282537   4.990   3.637   6.914 -0.5768  0.9510 -0.6046
25867SOL     OW82538   7.110   1.179   2.792 -0.2002 -0.1030 -0.3879
25867SOL    HW182539   7.022   1.193   2.756 -0.8311 -1.5679  0.5112
25867SOL    HW282540   7.121   1.084   2.792  1.2630  0.0510 -0.1922
25868SOL     OW82541   9.586   2.641   4.626 -0.2227 -0.4003 -0.8002
25868SOL    HW182542   9.605   2.550   4.606 -1.4163 -0.3483 -2.3427
25868SOL    HW282543   9.614   2.689   4.548  0.2877  0.5564 -0.0501
25869SOL     OW82544   1.235   9.699   6.426 -0.3971  0.1644 -0.0311
25869SOL    HW182545   1.154   9.702   6.477 -1.8796 -3.3471 -1.8542
25869SOL    HW282546   1.215   9.750   6.347 -0.3353  0.4021  0.1056
25870SOL     OW82547  11.198  10.340   5.560  0.2482 -0.3986 -0.6542
25870SOL    HW182548  11.156  10.364   5.643  1.5034 -1.3269  0.2954
25870SOL    HW282549  11.125  10.318   5.502 -0.6426 -2.2809  1.0403
25871SOL     OW82550   6.795   1.248   0.184 -0.2909  0.0684 -0.6397
25871SOL    HW182551   6.889   1.230   0.187  0.1331  1.4830 -2.8407
25871SOL    HW282552   6.764   1.200   0.106 -1.8733 -2.0287  1.1508
25872SOL     OW82553   8.270   1.606   6.170 -0.3787  0.0065  0.0279
25872SOL    HW182554   8.337   1.649   6.117 -2.2172 -0.3595 -2.8010
25872SOL    HW282555   8.187   1.636   6.133 -1.7597 -2.2231  1.1092
25873SOL     OW82556   4.658   1.191   3.482  0.6589 -0.2111 -0.1294
25873SOL    HW182557   4.725   1.224   3.421  1.4860 -0.5975  0.5477
25873SOL    HW282558   4.652   1.258   3.550  1.8026 -1.0543  0.8513
25874SOL     OW82559   7.045   0.538  10.335  0.0596 -0.0663 -0.7835
25874SOL    HW182560   6.991   0.535  10.413 -0.1111  0.9105 -0.8498
25874SOL    HW282561   7.096   0.458  10.338  0.5562  0.2742  0.6965
25875SOL     OW82562   0.990   6.024   2.005  0.9246 -0.1456  0.2658
25875SOL    HW182563   0.894   6.014   2.008  0.9839 -0.4722  1.0646
25875SOL    HW282564   1.008   6.040   1.912 -0.1328  2.2875  0.4214
25876SOL     OW82565   0.083   3.018   1.944  0.0520 -0.0055  0.1360
25876SOL    HW182566   0.048   3.042   1.858  1.0133  0.6806 -0.0819
25876SOL    HW282567   0.045   2.932   1.962 -2.0526  0.8577  0.1127
25877SOL     OW82568   6.231  10.029   1.430 -0.0382  0.0786 -0.0399
25877SOL    HW182569   6.193  10.068   1.351  1.5821 -1.5731 -1.7496
25877SOL    HW282570   6.325  10.023   1.412  0.4021 -0.2965  2.0667
25878SOL     OW82571   0.563  11.178   2.395 -0.3037 -0.2727 -0.5952
25878SOL    HW182572   0.650  11.201   2.363 -0.5951  0.7145 -0.7421
25878SOL    HW282573   0.565  11.084   2.408  1.3251 -0.0611  1.0446
25879SOL     OW82574   1.638   6.262  11.080  0.3312  0.3307 -0.0329
25879SOL    HW182575   1.543   6.272  11.069  0.4334  1.0833 -0.3285
25879SOL    HW282576   1.653   6.169  11.069 -0.2795  0.3091 -0.8623
25880SOL     OW82577   1.252   3.125   9.934  0.1502  0.1475 -0.3236
25880SOL    HW182578   1.274   3.149   9.844  0.6019 -0.1529 -0.3015
25880SOL    HW282579   1.269   3.204   9.985  2.1193 -0.3277 -0.1703
25881SOL     OW82580   5.304  10.089   6.429  0.0738  0.4896  0.5997
25881SOL    HW182581   5.364  10.137   6.372  1.3866 -1.2262  0.4352
25881SOL    HW282582   5.278  10.013   6.377 -1.8240  0.8952  0.8998
25882SOL     OW82583   2.712   6.114  11.206  0.1287 -0.4778  0.7969
25882SOL    HW182584   2.665   6.196  11.189  0.8281  0.2115  2.0522
25882SOL    HW282585   2.753   6.127  11.292  0.3565 -2.1044  0.9605
25883SOL     OW82586   6.838   9.516   1.595  0.2520  0.3994 -0.0075
25883SOL    HW182587   6.743   9.516   1.598  0.2616  1.5553  1.6544
25883SOL    HW282588   6.865   9.539   1.684  2.1174 -1.7140  0.0683
25884SOL     OW82589   8.447   8.001   3.707  0.5631  0.2881 -0.1375
25884SOL    HW182590   8.353   7.991   3.725  0.3264 -0.7511 -1.7560
25884SOL    HW282591   8.471   8.083   3.751 -1.0376  0.4437  0.5248
25885SOL     OW82592   3.888   1.004   7.568  0.3069  0.0869  0.4891
25885SOL    HW182593   3.966   1.059   7.565  1.2635 -1.0375  2.4278
25885SOL    HW282594   3.834   1.042   7.637 -0.0391 -0.1439  0.3527
25886SOL     OW82595   1.369   4.930   1.316  0.4520  0.4656  0.1408
25886SOL    HW182596   1.446   4.978   1.347 -0.3491  1.4088  0.7331
25886SOL    HW282597   1.332   4.891   1.394 -0.9063  1.8659  0.2408
25887SOL     OW82598   2.507   0.767  10.100  0.1243 -0.4544 -0.3273
25887SOL    HW182599   2.467   0.690  10.061 -0.0604 -0.8091  0.5488
25887SOL    HW282600   2.590   0.735  10.136  0.4059 -0.0808 -0.6334
25888SOL     OW82601   8.817   6.546   5.260 -0.0464  0.0764  0.2714
25888SOL    HW182602   8.767   6.473   5.223 -0.0345 -0.7971  1.8782
25888SOL    HW282603   8.907   6.530   5.232  0.2482 -1.4928  1.9040
25889SOL     OW82604   5.790   3.384   3.869 -0.2405 -0.5838 -0.5168
25889SOL    HW182605   5.862   3.326   3.894 -1.9447 -1.7887  2.1182
25889SOL    HW282606   5.832   3.464   3.840  2.1694 -1.1532  1.1001
25890SOL     OW82607   5.688   8.027   3.186  0.5990  0.0348  0.1086
25890SOL    HW182608   5.723   8.003   3.271 -0.0738  1.2232  0.7428
25890SOL    HW282609   5.606   7.977   3.179 -1.0207  2.2499  1.6114
25891SOL     OW82610   3.816   7.913   9.741  0.1840 -0.6315  0.8558
25891SOL    HW182611   3.831   7.846   9.807 -1.2849 -0.3982  1.4653
25891SOL    HW282612   3.769   7.868   9.672  1.4231 -0.7937  0.0790
25892SOL     OW82613  11.436   7.827   1.009  0.2135  0.5236 -0.3130
25892SOL    HW182614  11.480   7.785   1.083  0.5045  2.3726  0.6220
25892SOL    HW282615  11.395   7.905   1.047 -0.7482  0.8177 -1.8692
25893SOL     OW82616   0.347   4.967  11.409 -0.0009 -0.0164  0.0256
25893SOL    HW182617   0.335   4.940  11.500 -1.2915 -0.6902 -0.3143
25893SOL    HW282618   0.435   4.938  11.386 -0.6948 -2.4587  0.2004
25894SOL     OW82619   9.790   0.651   2.928 -0.4833 -0.2588 -0.3990
25894SOL    HW182620   9.884   0.670   2.919 -0.3566 -0.7638 -0.1816
25894SOL    HW282621   9.770   0.672   3.019 -0.6932  0.3133 -0.5758
25895SOL     OW82622  10.035   5.869   1.149  0.0830 -0.4945  0.1180
25895SOL    HW182623  10.072   5.949   1.114  0.6204 -0.8483 -0.1303
25895SOL    HW282624   9.944   5.869   1.118  0.4665 -0.6526 -1.0408
25896SOL     OW82625  11.356   0.718   0.918 -0.1209  0.1879  0.0558
25896SOL    HW182626  11.344   0.696   0.826 -0.0027 -1.5462  0.4264
25896SOL    HW282627  11.269   0.746   0.947 -0.4162 -0.3117 -0.3198
25897SOL     OW82628   4.796   7.077  10.654 -0.3270  0.2580 -0.2981
25897SOL    HW182629   4.876   7.130  10.654 -0.3982  0.3707 -0.5756
25897SOL    HW282630   4.827   6.987  10.663 -0.1714  0.3074 -0.3267
25898SOL     OW82631   6.504   3.539   2.978 -0.7156  0.2405  0.0598
25898SOL    HW182632   6.546   3.540   3.064  0.2029 -0.8326 -0.3631
25898SOL    HW282633   6.552   3.605   2.927 -0.2401 -0.2208 -0.0948
25899SOL     OW82634   4.877   7.379   2.096  0.0909  0.3799  0.3833
25899SOL    HW182635   4.908   7.352   2.010 -2.2619  1.1352 -0.7942
25899SOL    HW282636   4.782   7.385   2.086 -0.1072  2.1378  2.5565
25900SOL     OW82637   9.174   7.793   0.516 -0.5092 -0.5675 -0.3876
25900SOL    HW182638   9.238   7.781   0.445 -1.9355 -0.5132 -1.7274
25900SOL    HW282639   9.190   7.882   0.548 -0.9168  0.0214 -1.7621
25901SOL     OW82640  10.586  11.612   9.397  0.1895 -0.1088  0.3694
25901SOL    HW182641  10.677  11.582   9.401  0.0639 -1.0855 -2.1076
25901SOL    HW282642  10.591  11.707   9.411  1.8329  0.0916 -1.1418
25902SOL     OW82643   9.122   6.486   4.737  0.2624  0.8616  0.4656
25902SOL    HW182644   9.134   6.397   4.770 -0.6984  0.0700 -1.1695
25902SOL    HW282645   9.164   6.542   4.802  2.0318 -0.8617  0.8979
25903SOL     OW82646   6.189   8.073   5.616 -0.0760  0.0790  0.2482
25903SOL    HW182647   6.240   8.045   5.540  0.3250  0.3141  0.4278
25903SOL    HW282648   6.192   8.169   5.613 -2.0366  0.1713 -0.7745
25904SOL     OW82649   0.673   4.819  10.591  0.3163 -0.1908  0.0121
25904SOL    HW182650   0.664   4.819  10.496  0.3392 -0.6616  0.0107
25904SOL    HW282651   0.725   4.741  10.611 -2.7077 -2.2143  0.6902
25905SOL     OW82652   7.293   9.385   3.195 -0.4255 -0.0664  0.2401
25905SOL    HW182653   7.250   9.461   3.157 -0.0534  0.1560  0.2637
25905SOL    HW282654   7.228   9.315   3.188 -0.4145  0.0019 -0.6866
25906SOL     OW82655   1.080   6.274   3.950 -0.3068  0.1216 -0.0364
25906SOL    HW182656   1.109   6.365   3.952  1.0737 -0.2648 -0.9586
25906SOL    HW282657   1.126   6.232   4.024 -0.5282  0.0568  0.0660
25907SOL     OW82658   6.837   9.279   9.180 -0.5553 -0.0174 -0.2132
25907SOL    HW182659   6.844   9.294   9.086  1.5755  0.5528 -0.0355
25907SOL    HW282660   6.818   9.186   9.188  1.3391 -0.5666 -1.2502
25908SOL     OW82661   6.186   1.349   5.870  0.1770 -0.3656 -0.4660
25908SOL    HW182662   6.132   1.428   5.867 -0.7279 -0.9795 -0.7892
25908SOL    HW282663   6.276   1.380   5.859  0.0099  0.7924  1.1593
25909SOL     OW82664  10.180   3.802  11.133  0.1974 -0.1711  0.1541
25909SOL    HW182665  10.267   3.835  11.151  0.1505  0.3934 -0.6216
25909SOL    HW282666  10.188   3.707  11.144  1.3873 -0.3439 -1.6967
25910SOL     OW82667   8.318   2.141   9.070 -0.1852  0.1453 -0.4925
25910SOL    HW182668   8.285   2.212   9.014 -1.3931 -0.6284 -0.7850
25910SOL    HW282669   8.253   2.132   9.139  0.5636  0.0982  0.2306
25911SOL     OW82670   0.352  10.069   3.077  0.1587  0.2283 -0.3263
25911SOL    HW182671   0.328  10.140   3.017 -0.1208  0.2444 -0.1977
25911SOL    HW282672   0.274  10.058   3.132 -0.2550 -0.9837 -1.1219
25912SOL     OW82673   7.892   5.004  11.374 -0.1492  0.1741 -0.1117
25912SOL    HW182674   7.908   4.971  11.462  2.1237  0.6836 -0.2660
25912SOL    HW282675   7.841   4.935  11.331 -0.7890 -0.3343  1.4025
25913SOL     OW82676   8.383  11.233   0.211 -0.2261  0.4299  0.3456
25913SOL    HW182677   8.368  11.215   0.304  3.1829 -1.3727  0.7377
25913SOL    HW282678   8.397  11.147   0.172  2.0623  1.3052 -0.9813
25914SOL     OW82679   5.505   8.238   5.082 -0.0908 -1.1697 -0.8120
25914SOL    HW182680   5.492   8.205   4.993 -1.3834 -0.8865 -0.7560
25914SOL    HW282681   5.562   8.313   5.072 -0.0327 -1.2885 -1.3794
25915SOL     OW82682   5.919   9.659   3.236  0.3995  0.2244 -0.6483
25915SOL    HW182683   5.861   9.706   3.176 -0.1325 -0.2941 -0.5557
25915SOL    HW282684   5.867   9.646   3.315  1.0232  0.7195 -0.1452
25916SOL     OW82685   1.211   3.653   8.244  0.1572 -0.3097  0.1214
25916SOL    HW182686   1.288   3.657   8.299  0.8852 -1.3424 -0.7814
25916SOL    HW282687   1.138   3.638   8.304 -0.2076  5.1921  1.6330
25917SOL     OW82688  11.207   1.006   1.722  0.0853  0.0894 -0.9692
25917SOL    HW182689  11.254   0.987   1.803  3.2117 -0.8827 -2.8383
25917SOL    HW282690  11.184   1.099   1.729  1.3166  0.3259  0.5443
25918SOL     OW82691   8.137   4.405   1.858 -0.3511 -0.2403 -0.4739
25918SOL    HW182692   8.085   4.481   1.884 -0.6965 -0.3448 -0.8410
25918SOL    HW282693   8.073   4.338   1.839 -0.1031 -0.2478 -1.3231
25919SOL     OW82694   6.920   3.529   2.161  0.0560 -0.2104  0.1366
25919SOL    HW182695   6.944   3.568   2.077  1.9322 -1.4619  0.0429
25919SOL    HW282696   7.003   3.505   2.202 -0.8989 -1.8698  1.2515
25920SOL     OW82697   2.938   1.474   3.313  0.2908  0.5822 -0.2855
25920SOL    HW182698   2.930   1.381   3.292  0.9739  0.6166 -0.7626
25920SOL    HW282699   3.018   1.480   3.365  0.8827  1.0312 -1.2057
25921SOL     OW82700   5.676   4.053   2.027 -0.8120  0.0142  0.6498
25921SOL    HW182701   5.713   3.978   1.982 -0.1002 -1.1873  3.0546
25921SOL    HW282702   5.696   4.038   2.120  0.0803  3.5383  1.2028
25922SOL     OW82703   3.486   6.142   2.690  0.4137  0.2003  0.0115
25922SOL    HW182704   3.434   6.216   2.657  1.2659 -0.1428 -2.3090
25922SOL    HW282705   3.470   6.072   2.627 -0.9284 -1.9165  2.5498
25923SOL     OW82706   2.420  11.536   7.955 -0.1651  1.1349  0.2358
25923SOL    HW182707   2.415  11.501   8.044  0.3284  1.2548  0.3143
25923SOL    HW282708   2.331  11.526   7.920 -0.6650  2.1639  1.1520
25924SOL     OW82709   4.019   7.135   1.402  0.5508  0.4196 -0.5023
25924SOL    HW182710   4.080   7.202   1.372  2.1735 -0.7319  0.0998
25924SOL    HW282711   4.057   7.102   1.484  0.1671 -1.6805 -1.1113
25925SOL     OW82712   4.436   2.642   1.453  0.4983  0.3756  0.6456
25925SOL    HW182713   4.403   2.569   1.504 -1.6676  1.3120  0.6964
25925SOL    HW282714   4.466   2.603   1.371  1.8465 -0.8447  1.6795
25926SOL     OW82715   1.815   3.376   4.535 -0.2465  0.3882  0.1170
25926SOL    HW182716   1.868   3.447   4.497  0.8588 -0.1179  0.6564
25926SOL    HW282717   1.735   3.420   4.565  0.9490  1.6767  1.6073
25927SOL     OW82718   9.065   6.158   7.300  0.6320  0.1472 -0.1317
25927SOL    HW182719   9.015   6.237   7.281  1.4226  1.6888  3.4076
25927SOL    HW282720   9.024   6.090   7.246 -3.5059  1.8544  0.4698
25928SOL     OW82721   0.675   5.998   1.612 -0.2739 -0.2982 -0.2452
25928SOL    HW182722   0.611   6.062   1.645 -2.0458 -2.4266  0.7745
25928SOL    HW282723   0.621   5.927   1.577  1.6117 -0.8380 -2.2648
25929SOL     OW82724   7.508   9.861   5.321  0.4610  0.0060 -0.2074
25929SOL    HW182725   7.418   9.856   5.354  0.7602 -0.0071  0.6283
25929SOL    HW282726   7.548   9.931   5.372  0.2831  1.6554 -2.2018
25930SOL     OW82727   3.166   2.231   3.730 -0.3809 -0.0448  0.0730
25930SOL    HW182728   3.128   2.175   3.663 -1.7062  0.9168 -0.0161
25930SOL    HW282729   3.253   2.253   3.697 -0.6104 -0.4329 -0.8130
25931SOL     OW82730   7.470   6.226   5.254 -0.0710  0.6775  0.1077
25931SOL    HW182731   7.549   6.174   5.268  0.5038  1.5881  0.3269
25931SOL    HW282732   7.426   6.184   5.180 -1.8440 -2.7219  2.8304
25932SOL     OW82733   4.154   6.025   9.070 -0.6670  0.5224  0.9766
25932SOL    HW182734   4.247   6.034   9.092 -0.1681  0.1561 -0.7592
25932SOL    HW282735   4.108   6.078   9.135  0.7557  0.7523  1.8392
25933SOL     OW82736   5.536   4.156  10.478 -0.1907 -0.0901 -0.1114
25933SOL    HW182737   5.521   4.203  10.560 -3.6597  0.5387 -0.9477
25933SOL    HW282738   5.580   4.220  10.422 -1.9055  1.1100 -0.1552
25934SOL     OW82739  10.083  11.533   9.158  0.2369 -0.3222  0.3150
25934SOL    HW182740  10.047  11.499   9.076 -1.2589 -1.9706  1.5772
25934SOL    HW282741  10.177  11.528   9.146  0.0607 -0.3531 -1.3604
25935SOL     OW82742   7.087   8.642   2.708  0.3672  1.3393 -0.9077
25935SOL    HW182743   7.051   8.570   2.760  1.1149  0.7926 -1.1233
25935SOL    HW282744   7.020   8.660   2.643 -0.8960  2.5184  0.6574
25936SOL     OW82745   5.388   3.063   8.028 -0.5003 -0.1285  0.4798
25936SOL    HW182746   5.302   3.067   7.985 -0.5306  1.0283  0.6287
25936SOL    HW282747   5.445   3.023   7.962 -0.4142  2.0957 -0.9159
25937SOL     OW82748   5.287   4.421   0.360 -0.0618  0.0715  0.0534
25937SOL    HW182749   5.354   4.368   0.315 -0.2017 -1.9499  2.0658
25937SOL    HW282750   5.336   4.471   0.425 -0.2719  0.2232  0.0942
25938SOL     OW82751   7.638   2.617   2.692  0.2794  0.3960 -0.3698
25938SOL    HW182752   7.647   2.529   2.729  1.0692  0.2161 -0.9788
25938SOL    HW282753   7.549   2.644   2.716 -0.9078 -1.5306 -2.2284
25939SOL     OW82754   2.622   7.465   0.599  0.0107 -0.2490  0.5088
25939SOL    HW182755   2.648   7.377   0.572 -2.2809  0.1176 -3.8345
25939SOL    HW282756   2.701   7.518   0.591  0.7080 -1.3333  0.0723
25940SOL     OW82757   7.939   4.547   4.429 -0.5607 -0.2374 -0.2608
25940SOL    HW182758   8.001   4.493   4.479 -1.3874 -0.0158  1.0474
25940SOL    HW282759   7.994   4.611   4.384  0.3118 -1.2538 -0.6862
25941SOL     OW82760   7.688   6.183   5.606  0.1920 -0.2336  0.0050
25941SOL    HW182761   7.655   6.135   5.530  0.0015 -0.2065  0.0703
25941SOL    HW282762   7.626   6.162   5.676  1.8806 -2.5966  0.9484
25942SOL     OW82763   3.072   9.701   9.221  0.3054 -0.0560  0.0223
25942SOL    HW182764   3.012   9.634   9.187 -0.1634 -0.3141  1.2739
25942SOL    HW282765   3.017   9.756   9.277  1.5109 -1.3722  2.6709
25943SOL     OW82766   9.391   5.456   0.240  0.1189  0.4994 -0.0887
25943SOL    HW182767   9.432   5.538   0.213  0.3461  1.0537  1.8447
25943SOL    HW282768   9.327   5.481   0.306  0.7975 -0.9532  1.1813
25944SOL     OW82769   5.373   6.702   8.786  0.1799 -0.0929  0.1530
25944SOL    HW182770   5.363   6.709   8.691 -0.2076  1.8558  0.2969
25944SOL    HW282771   5.302   6.645   8.814  0.5978 -1.0872 -0.7730
25945SOL     OW82772   0.140   6.444   8.476  0.1688  0.0929 -0.1629
25945SOL    HW182773   0.233   6.452   8.497  0.2971  1.2712 -1.0823
25945SOL    HW282774   0.128   6.498   8.398 -1.5591  1.1613  0.7734
25946SOL     OW82775  10.952   6.965   7.113  0.0732  0.6569 -0.1229
25946SOL    HW182776  11.046   6.978   7.129  0.3600  0.8548 -1.8599
25946SOL    HW282777  10.925   6.904   7.182  1.0777  1.9460  1.4866
25947SOL     OW82778   1.432   8.169   4.592  0.5397 -0.1284  0.1905
25947SOL    HW182779   1.384   8.103   4.543  1.3431  0.5034 -1.5661
25947SOL    HW282780   1.391   8.252   4.567  1.3255  0.2560  0.1431
25948SOL     OW82781   5.711  10.226  11.158  0.6418 -0.2028 -0.1162
25948SOL    HW182782   5.627  10.198  11.193 -0.0790 -1.0962 -2.3895
25948SOL    HW282783   5.776  10.178  11.209 -0.2878 -0.5715  0.7384
25949SOL     OW82784   3.191   0.450   2.803 -0.3188 -0.1982 -0.1303
25949SOL    HW182785   3.200   0.545   2.804  0.7772 -0.1872 -2.6884
25949SOL    HW282786   3.270   0.419   2.759 -0.3137 -2.3694  1.2702
25950SOL     OW82787   7.922   2.364  10.657 -0.3493  0.3283 -0.1605
25950SOL    HW182788   7.880   2.430  10.602  0.1128  0.6051 -0.1921
25950SOL    HW282789   7.850   2.311  10.692 -0.6221 -0.1678 -1.4290
25951SOL     OW82790   6.333   6.835   3.181  0.6067 -0.1285 -0.5731
25951SOL    HW182791   6.379   6.879   3.110  1.2240 -1.5052 -1.0614
25951SOL    HW282792   6.335   6.742   3.158 -1.3808 -0.3761 -0.0031
25952SOL     OW82793   9.361   4.606   5.640 -0.0164 -0.1994  0.1539
25952SOL    HW182794   9.433   4.591   5.578  0.7731 -0.8268  1.1890
25952SOL    HW282795   9.297   4.656   5.590  1.0444  0.1965 -0.8637
25953SOL     OW82796   5.568   1.166   3.761  0.3083  0.4836 -0.1347
25953SOL    HW182797   5.556   1.256   3.789  0.5315  0.5972 -0.4040
25953SOL    HW282798   5.499   1.117   3.807  0.1833  0.7884  0.0030
25954SOL     OW82799   0.039  10.594   0.145 -0.1317  0.5844 -0.2870
25954SOL    HW182800   0.122  10.602   0.098  0.9443  0.3585  1.4810
25954SOL    HW282801   0.018  10.501   0.142  0.9342  0.2610  1.2345
25955SOL     OW82802   4.452   4.725   8.885 -0.7947  0.0124 -0.0735
25955SOL    HW182803   4.456   4.670   8.964 -0.0921 -1.5388 -1.1228
25955SOL    HW282804   4.542   4.728   8.853 -1.2062 -0.2153 -1.3341
25956SOL     OW82805   7.410   2.062  10.348  0.2060  0.3408  0.2852
25956SOL    HW182806   7.501   2.031  10.346  0.0637 -0.1526  0.9544
25956SOL    HW282807   7.394   2.096  10.260  1.5103  1.8259  0.5672
25957SOL     OW82808   1.187   5.869   8.229 -0.6794  0.1496 -0.0045
25957SOL    HW182809   1.160   5.803   8.165 -0.2674  0.1233 -0.1541
25957SOL    HW282810   1.209   5.819   8.307 -1.1621  0.1800  0.1535
25958SOL     OW82811   0.848   1.958   1.638 -0.1172  0.2200  0.3932
25958SOL    HW182812   0.880   1.871   1.664 -0.6084  0.3806  1.5938
25958SOL    HW282813   0.922   2.017   1.655 -0.4479  0.3332  1.5722
25959SOL     OW82814   0.787   9.376   8.855 -0.0010  0.3850  0.1550
25959SOL    HW182815   0.834   9.294   8.841 -1.2196 -0.3827  0.4336
25959SOL    HW282816   0.797   9.423   8.772 -0.8571 -0.8712 -0.7032
25960SOL     OW82817   0.330   2.597  10.843 -0.3105 -0.4065  0.4401
25960SOL    HW182818   0.274   2.667  10.809 -0.5665 -0.8697 -0.1080
25960SOL    HW282819   0.411   2.641  10.868 -0.6882  0.1753  0.6660
25961SOL     OW82820   3.235   4.213   8.372  0.0514  0.3358 -0.6793
25961SOL    HW182821   3.260   4.148   8.437  1.7167 -0.2404 -1.8372
25961SOL    HW282822   3.141   4.198   8.359  0.0329 -0.6181  0.3815
25962SOL     OW82823   5.698  10.904   8.708  0.1658  0.2407  0.1266
25962SOL    HW182824   5.726  10.851   8.782 -0.5199  2.5369  2.1417
25962SOL    HW282825   5.608  10.876   8.691  0.3164 -0.2797  0.1887
25963SOL     OW82826  10.194   3.251  10.842  0.4076  0.4605  0.3280
25963SOL    HW182827  10.194   3.155  10.832 -0.8395  0.1043  2.8893
25963SOL    HW282828  10.287   3.273  10.850  0.6657 -0.7063  0.8450
25964SOL     OW82829   5.706   7.856   9.117 -0.0637  0.0901 -0.2627
25964SOL    HW182830   5.748   7.866   9.032 -1.3238  0.2661 -0.9011
25964SOL    HW282831   5.681   7.945   9.141  0.9891  0.1389  0.6756
25965SOL     OW82832   3.164   9.102   6.691  0.1449  0.1030  0.6305
25965SOL    HW182833   3.108   9.121   6.765 -1.5438 -3.0321  0.3437
25965SOL    HW282834   3.107   9.107   6.615  0.9152 -0.4355 -0.0090
25966SOL     OW82835   4.149   1.743   4.734  0.3111 -0.5125  0.0761
25966SOL    HW182836   4.064   1.740   4.778 -0.3309 -1.1106 -1.1589
25966SOL    HW282837   4.171   1.836   4.730 -0.9387 -0.2302 -0.7776
25967SOL     OW82838   9.275   0.408   9.385 -0.1489 -0.2687 -0.4821
25967SOL    HW182839   9.195   0.358   9.369 -0.7536  0.4927  0.0657
25967SOL    HW282840   9.288   0.458   9.305 -0.4289 -0.1344 -0.4471
25968SOL     OW82841   5.191   2.597   6.443  0.5169 -0.6085  0.0837
25968SOL    HW182842   5.158   2.614   6.532  0.8666  1.6337 -0.1589
25968SOL    HW282843   5.286   2.598   6.453  0.5604  0.0919 -0.3874
25969SOL     OW82844   3.515   4.553   7.859  0.0661  0.0288  0.0211
25969SOL    HW182845   3.421   4.541   7.846  0.1689 -1.8574  0.7132
25969SOL    HW282846   3.525   4.557   7.955  0.5685  1.6067 -0.0703
25970SOL     OW82847   0.591   8.631  10.174 -0.6498 -0.0368 -0.1167
25970SOL    HW182848   0.653   8.587  10.233  0.8709  2.3331  0.2288
25970SOL    HW282849   0.647   8.684  10.116 -2.2754  2.8367  0.7246
25971SOL     OW82850   1.917  10.507   4.350 -0.2305 -0.2116  0.2151
25971SOL    HW182851   1.968  10.515   4.270  0.9703 -1.7835  0.7583
25971SOL    HW282852   1.943  10.582   4.403 -0.6701  0.5683 -0.6485
25972SOL     OW82853   0.903   8.610  11.131 -0.0078 -0.1892  0.1309
25972SOL    HW182854   0.962   8.654  11.070 -0.8970 -0.9129 -1.2964
25972SOL    HW282855   0.960   8.575  11.199  0.8320  2.2676  0.8123
25973SOL     OW82856   7.315   4.318   5.439 -0.2791  0.3668  0.2156
25973SOL    HW182857   7.271   4.401   5.454  0.6504  1.0560 -0.7779
25973SOL    HW282858   7.361   4.329   5.355  1.2773 -0.5275  0.9064
25974SOL     OW82859   7.851   5.496   0.610  0.0201  0.3266 -1.0542
25974SOL    HW182860   7.921   5.440   0.642 -1.1297 -0.9173 -0.6484
25974SOL    HW282861   7.821   5.544   0.687  0.3764  0.8342 -1.2219
25975SOL     OW82862   2.337   8.666   2.749  0.5221  0.4418 -0.0308
25975SOL    HW182863   2.278   8.593   2.732 -1.6919  1.9844  0.5031
25975SOL    HW282864   2.338   8.675   2.845  2.5860 -0.2497  0.0482
25976SOL     OW82865  10.868   4.289   9.509  0.1571  0.2274 -0.3498
25976SOL    HW182866  10.835   4.287   9.599  0.2730  0.4218 -0.3017
25976SOL    HW282867  10.867   4.382   9.486  1.0907  0.2903 -0.1862
25977SOL     OW82868   9.039   2.786   2.851 -0.0572  0.1062 -0.1019
25977SOL    HW182869   8.970   2.851   2.839  1.3039  1.8069  0.9047
25977SOL    HW282870   9.050   2.746   2.765 -0.9555  1.1919 -0.7381
25978SOL     OW82871  10.492   4.892   7.689 -0.0089  0.4433 -0.1233
25978SOL    HW182872  10.549   4.938   7.750 -0.5165  1.0391 -0.0851
25978SOL    HW282873  10.545   4.883   7.609 -0.1392  1.7690 -0.3896
25979SOL     OW82874   2.913   3.268   4.124  0.1327  0.0791 -0.0364
25979SOL    HW182875   2.912   3.192   4.067  3.3136  0.1710 -0.3797
25979SOL    HW282876   2.989   3.319   4.096 -0.1498  1.8652  2.1093
25980SOL     OW82877   8.057   7.679   7.334 -0.1162  0.1440  0.2229
25980SOL    HW182878   8.065   7.761   7.286  1.2532  0.9812  1.7591
25980SOL    HW282879   8.121   7.620   7.293 -1.0144 -0.1479 -0.8013
25981SOL     OW82880  10.805   5.189   2.681 -0.0718 -0.9554 -0.1714
25981SOL    HW182881  10.815   5.208   2.774 -3.1692  1.7476 -0.2249
25981SOL    HW282882  10.856   5.256   2.637 -1.1064 -0.2826 -0.3755
25982SOL     OW82883  11.212   8.465   3.858 -0.1237  0.2243 -0.2893
25982SOL    HW182884  11.281   8.528   3.841  0.1387  0.1141  0.3120
25982SOL    HW282885  11.205   8.413   3.778  0.8365 -0.0806 -0.1885
25983SOL     OW82886   8.831   5.812   8.188  0.1411 -0.4096  0.0120
25983SOL    HW182887   8.910   5.863   8.207  0.2079  0.2094 -1.7099
25983SOL    HW282888   8.759   5.869   8.215  0.2619 -0.1439 -0.2162
25984SOL     OW82889   8.509   5.858   9.586  0.5006 -0.0157 -0.3317
25984SOL    HW182890   8.564   5.936   9.582 -1.1866  1.3763  1.5518
25984SOL    HW282891   8.432   5.880   9.532  0.2962 -0.6222 -0.2961
25985SOL     OW82892  10.291   4.375   5.081  0.3628 -0.1320  0.3728
25985SOL    HW182893  10.214   4.336   5.122  0.4407 -0.5076  0.1676
25985SOL    HW282894  10.256   4.434   5.014  0.1980 -2.7144 -2.0387
25986SOL     OW82895   9.564   5.555   1.278 -0.6028 -0.3369 -0.0860
25986SOL    HW182896   9.478   5.591   1.300  0.5604  2.0780  0.9077
25986SOL    HW282897   9.584   5.593   1.192 -0.7020 -1.2881 -0.5447
25987SOL     OW82898   6.427   8.766   3.241 -0.5936  0.1478  0.4847
25987SOL    HW182899   6.452   8.832   3.175  2.4935 -1.0096  0.3007
25987SOL    HW282900   6.337   8.743   3.219 -0.4791  1.5270 -1.8359
25988SOL     OW82901   5.964   1.898  10.640 -0.1346  0.8536 -0.3251
25988SOL    HW182902   5.975   1.823  10.698  2.1876  1.1696 -0.2837
25988SOL    HW282903   5.917   1.863  10.564 -1.2327 -0.0547  0.7337
25989SOL     OW82904   5.963   1.903   7.202 -0.3837  1.1549  0.0554
25989SOL    HW182905   5.932   1.983   7.243 -1.9171  0.6734 -0.1042
25989SOL    HW282906   6.041   1.879   7.252  0.8283  3.3691 -0.6809
25990SOL     OW82907   3.819  11.252   2.535  0.0908 -0.0852  0.1935
25990SOL    HW182908   3.872  11.313   2.587 -1.3233  1.2103  0.1822
25990SOL    HW282909   3.818  11.291   2.448 -1.1918  0.1371  0.2907
25991SOL     OW82910  10.521   2.928  10.503 -0.4299 -0.1628 -0.2282
25991SOL    HW182911  10.500   3.019  10.524 -0.0564  0.1824 -1.2681
25991SOL    HW282912  10.565   2.894  10.581 -0.3411  0.6263  0.0722
25992SOL     OW82913  11.098   7.147   2.208  0.0119  0.3790  0.2717
25992SOL    HW182914  11.053   7.137   2.124  0.6041  1.1998 -0.1525
25992SOL    HW282915  11.100   7.242   2.223  1.7564  0.3818  0.1884
25993SOL     OW82916   3.279   3.057   8.374 -0.0940 -0.5566 -0.6379
25993SOL    HW182917   3.261   2.993   8.443  1.2397 -0.5946 -0.2889
25993SOL    HW282918   3.193   3.083   8.342 -0.6650 -2.4022 -0.6845
25994SOL     OW82919  10.267   3.441  10.292  0.3420 -0.6475 -0.1596
25994SOL    HW182920  10.243   3.422  10.383 -1.4450  0.1253 -0.4300
25994SOL    HW282921  10.330   3.514  10.299 -0.3354 -0.1047  0.4536
25995SOL     OW82922   7.474   6.566  10.801  0.3018  0.0834 -0.5629
25995SOL    HW182923   7.463   6.661  10.797 -0.2074  0.0730  0.3526
25995SOL    HW282924   7.560   6.550  10.762  0.8608  1.0253  0.2463
25996SOL     OW82925   1.845   8.959   8.774  0.1283 -0.0721 -0.1362
25996SOL    HW182926   1.795   9.029   8.816  0.3217 -0.1698  0.2629
25996SOL    HW282927   1.815   8.879   8.818  1.1177 -0.0648  0.5716
25997SOL     OW82928   7.480   6.568   6.516 -0.3017  0.1488  0.0999
25997SOL    HW182929   7.438   6.613   6.589  2.2750  1.3480  0.9414
25997SOL    HW282930   7.537   6.633   6.476  1.6096 -1.6327 -0.2777
25998SOL     OW82931  10.584   2.649   1.235 -0.3398  0.0680  0.3210
25998SOL    HW182932  10.630   2.583   1.182 -1.3512  0.3093 -0.8869
25998SOL    HW282933  10.492   2.625   1.229 -1.0511  2.8361 -2.0814
25999SOL     OW82934   3.985   5.505   1.756  0.3335  0.1587 -0.1981
25999SOL    HW182935   4.016   5.465   1.675  2.6688 -0.1068  0.7405
25999SOL    HW282936   3.978   5.432   1.818  2.0730  0.7674  0.7923
26000SOL     OW82937   8.447   5.717   8.734 -0.3467 -0.5838 -0.3916
26000SOL    HW182938   8.470   5.630   8.768 -0.1339 -0.8689 -1.2525
26000SOL    HW282939   8.446   5.773   8.812  0.9021 -1.0566 -0.0087
26001SOL     OW82940   7.315   7.379   0.571 -0.1778 -0.4370 -0.4958
26001SOL    HW182941   7.328   7.474   0.577 -0.7094 -0.4201  0.7036
26001SOL    HW282942   7.230   7.370   0.528 -1.2910 -0.2758  1.5417
26002SOL     OW82943   3.111   0.774   5.120  0.4362 -0.8379 -0.1913
26002SOL    HW182944   3.039   0.812   5.070  0.0739  0.1018  1.0068
26002SOL    HW282945   3.083   0.779   5.211  2.5841  0.9193  0.4740
26003SOL     OW82946   6.273   0.873   2.792 -0.2552 -0.3067 -0.0667
26003SOL    HW182947   6.259   0.876   2.886  1.0357  0.1891  0.1416
26003SOL    HW282948   6.287   0.964   2.767  1.4765 -0.6000 -0.3485
26004SOL     OW82949   0.154   8.953   7.700 -0.0009  0.1131 -0.4935
26004SOL    HW182950   0.236   9.001   7.690  0.6314 -0.8007  0.1525
26004SOL    HW282951   0.158   8.916   7.788 -0.3954 -1.2581 -1.0195
26005SOL     OW82952   3.942   5.022   2.554 -0.1165  0.0929  0.6378
26005SOL    HW182953   3.981   5.047   2.638 -0.3679  1.3017  0.4147
26005SOL    HW282954   3.848   5.013   2.574 -0.6406  3.1514 -0.0400
26006SOL     OW82955   0.279   1.282   1.403 -1.0306  0.3760  0.0726
26006SOL    HW182956   0.340   1.277   1.330 -1.2923  0.6082 -0.1607
26006SOL    HW282957   0.326   1.334   1.469 -0.9031  0.3954 -0.0332
26007SOL     OW82958   1.462   0.471   2.732  0.4729  0.1547  0.2446
26007SOL    HW182959   1.367   0.463   2.732  0.5408 -0.8442  0.6426
26007SOL    HW282960   1.479   0.565   2.742 -0.4582  0.4698 -1.0212
26008SOL     OW82961   7.970  10.056  10.141  0.6250  1.0675 -0.1549
26008SOL    HW182962   7.946  10.147  10.126  0.5167  0.8856 -1.1587
26008SOL    HW282963   7.979  10.019  10.053  2.0692  0.4691  0.2244
26009SOL     OW82964   8.650   2.111   8.893 -0.2070 -0.0744  0.3868
26009SOL    HW182965   8.583   2.093   8.959 -0.1742 -0.1774  0.3937
26009SOL    HW282966   8.726   2.061   8.923 -0.3997 -0.6665 -0.0860
26010SOL     OW82967  10.276   8.547   5.375 -0.2820  0.0878  0.5397
26010SOL    HW182968  10.363   8.584   5.393  0.0100  0.1681 -0.9707
26010SOL    HW282969  10.230   8.555   5.459  0.2408  2.6101  0.6710
26011SOL     OW82970   0.915   1.060   4.503  0.2075  0.5050  0.2744
26011SOL    HW182971   0.874   1.016   4.578  0.8538 -0.8926 -0.1610
26011SOL    HW282972   0.953   0.989   4.452  0.6143  1.5284 -0.8800
26012SOL     OW82973   9.998   7.437   6.447 -0.0429 -0.2596 -0.3319
26012SOL    HW182974  10.003   7.358   6.392  2.1184 -0.5706  0.2105
26012SOL    HW282975   9.907   7.440   6.476 -0.6133 -1.5390 -1.8260
26013SOL     OW82976   9.989   1.096   3.622 -0.8718  0.1112 -0.3049
26013SOL    HW182977   9.938   1.034   3.571 -0.8639 -0.7994  0.7408
26013SOL    HW282978  10.069   1.108   3.572 -0.2022 -1.9298  0.1474
26014SOL     OW82979  10.928   3.605   4.314 -0.4742  0.3028  0.4882
26014SOL    HW182980  10.990   3.624   4.243 -2.0131  1.3536 -0.6486
26014SOL    HW282981  10.870   3.681   4.316 -2.8341 -1.3821  0.2470
26015SOL     OW82982   9.483   3.282   3.736  0.4138 -0.1829 -0.6305
26015SOL    HW182983   9.480   3.245   3.648 -0.2452 -1.0259 -0.2657
26015SOL    HW282984   9.397   3.322   3.749  0.5634  0.0835 -0.4245
26016SOL     OW82985   6.236   2.132   2.657  0.4134  0.0758  0.4345
26016SOL    HW182986   6.180   2.205   2.683  0.9940  0.9078 -0.5556
26016SOL    HW282987   6.232   2.071   2.730 -0.9762  0.5802  0.8139
26017SOL     OW82988   6.874   3.571   9.058 -0.1296 -0.1231 -0.1359
26017SOL    HW182989   6.963   3.537   9.045 -0.1989 -0.2241 -0.3437
26017SOL    HW282990   6.833   3.563   8.973 -0.1117  0.6019 -0.2111
26018SOL     OW82991   5.456   1.606  11.507 -0.0748 -0.0511 -0.2184
26018SOL    HW182992   5.367   1.575  11.526  0.0564 -0.9866 -1.0632
26018SOL    HW282993   5.510   1.564  11.574 -0.1428 -0.2251 -0.2718
26019SOL     OW82994   9.355   7.498   2.718 -0.2733  0.3696  0.3516
26019SOL    HW182995   9.385   7.486   2.808 -1.1738  2.2050  0.9324
26019SOL    HW282996   9.361   7.410   2.679  0.9611 -0.2878  1.9087
26020SOL     OW82997   8.040   7.290   1.160 -0.2337 -0.2902 -0.4082
26020SOL    HW182998   8.047   7.241   1.078 -1.4211  1.1831 -1.4486
26020SOL    HW282999   7.952   7.271   1.192 -0.6121  0.8584 -0.6835
26021SOL     OW83000  11.636  10.744   0.356  0.1426 -0.0062  0.1544
26021SOL    HW183001  11.708  10.747   0.419 -0.3438 -1.0260  0.7846
26021SOL    HW283002  11.660  10.672   0.297 -0.6913 -0.8328  0.8007
26022SOL     OW83003   7.961   7.865   4.154 -0.3171  0.6686 -0.0966
26022SOL    HW183004   8.009   7.845   4.073  0.4720 -1.5306  0.8194
26022SOL    HW283005   7.910   7.786   4.171 -0.2175  0.9525  1.6944
26023SOL     OW83006   7.343   7.522   0.251  0.0328 -0.1495 -0.2602
26023SOL    HW183007   7.263   7.571   0.230  1.1166  1.9277  0.2189
26023SOL    HW283008   7.312   7.435   0.274 -2.6170  1.5742  3.8113
26024SOL     OW83009   8.887   3.860   0.080  0.2419 -0.1867  0.3717
26024SOL    HW183010   8.928   3.946   0.078 -0.3813  0.1531 -2.5078
26024SOL    HW283011   8.794   3.877   0.065 -0.5023 -1.2132  3.0977
26025SOL     OW83012   0.477   6.550   2.857 -0.9690 -0.4577  0.3087
26025SOL    HW183013   0.398   6.538   2.911 -2.3812 -0.1938 -1.6161
26025SOL    HW283014   0.457   6.505   2.775  0.7642 -0.0623 -0.3729
26026SOL     OW83015   4.779   3.029   0.442  0.3482  0.0622  0.2699
26026SOL    HW183016   4.786   3.079   0.523 -1.2312 -0.0766  0.5097
26026SOL    HW283017   4.840   3.072   0.382 -0.5560  1.9537  0.6432
26027SOL     OW83018   2.601   6.558   9.232 -0.1967  0.5145  0.2704
26027SOL    HW183019   2.605   6.463   9.221  0.3142  0.6014 -0.4007
26027SOL    HW283020   2.529   6.586   9.175 -0.0694  0.5745  0.1395
26028SOL     OW83021   6.020   0.479   8.309  0.0655 -0.3651  0.6268
26028SOL    HW183022   5.926   0.470   8.293  0.2445 -2.0893  0.3529
26028SOL    HW283023   6.055   0.391   8.299  1.6440  0.1413  1.2910
26029SOL     OW83024   4.618   4.195   3.713  0.3219 -0.4749  0.1002
26029SOL    HW183025   4.587   4.268   3.768  0.9303  0.2521 -0.4924
26029SOL    HW283026   4.549   4.182   3.649 -0.3304 -1.2346  0.9424
26030SOL     OW83027  11.100   2.021   9.380 -0.1175 -0.3767  0.1385
26030SOL    HW183028  11.062   2.049   9.464 -0.9265  0.2916 -0.4313
26030SOL    HW283029  11.025   1.991   9.329 -0.4558  3.5329 -2.0423
26031SOL     OW83030   8.763   8.332   3.467  0.0612 -0.0610 -0.2268
26031SOL    HW183031   8.761   8.391   3.543 -0.7181 -0.9417  0.4759
26031SOL    HW283032   8.844   8.282   3.478 -1.0710 -1.6963  1.2809
26032SOL     OW83033   9.144  10.853   7.112 -0.3467 -0.5507  0.2274
26032SOL    HW183034   9.200  10.912   7.062 -1.0364  0.1611  0.2764
26032SOL    HW283035   9.202  10.783   7.140 -0.0039 -1.1232 -1.8009
26033SOL     OW83036   3.996   7.792  11.316  0.0142 -0.4019  0.3236
26033SOL    HW183037   3.959   7.849  11.384  0.2282 -2.1054  1.9692
26033SOL    HW283038   3.921   7.770  11.260 -0.0141  1.6510 -0.5081
26034SOL     OW83039   7.427  10.838   0.390 -0.1047 -0.1951  0.4162
26034SOL    HW183040   7.426  10.878   0.304  0.1329  0.1305  0.5622
26034SOL    HW283041   7.337  10.845   0.421 -0.1619 -0.1905  0.2498
26035SOL     OW83042   0.606   1.431   9.528  0.1839  0.3367  0.1604
26035SOL    HW183043   0.672   1.403   9.464 -0.8004 -0.4105 -0.5666
26035SOL    HW283044   0.613   1.526   9.529  0.9809  0.2883 -0.2383
26036SOL     OW83045  10.307   4.553   6.551  0.2498 -0.2421  0.9014
26036SOL    HW183046  10.373   4.583   6.614  2.5561  1.0163 -1.8799
26036SOL    HW283047  10.254   4.631   6.534  0.5735 -0.1625  0.2374
26037SOL     OW83048   8.149  10.606   9.953  0.0693  0.8089 -0.6387
26037SOL    HW183049   8.059  10.624   9.925 -0.4945  1.8368  1.6153
26037SOL    HW283050   8.140  10.547  10.028  1.1505  2.1594  0.6110
26038SOL     OW83051   2.333   2.432   1.728 -0.0671  0.2316  0.3630
26038SOL    HW183052   2.244   2.442   1.760 -0.0567 -0.3206  0.5816
26038SOL    HW283053   2.338   2.487   1.651 -0.6455  0.1436  0.2620
26039SOL     OW83054   4.952   1.779   4.052  0.0467 -0.2021 -0.9460
26039SOL    HW183055   4.898   1.700   4.049 -0.2797  0.0030 -0.6081
26039SOL    HW283056   4.930   1.819   4.136  1.0746 -0.3591 -0.5895
26040SOL     OW83057   7.269  10.156   5.326 -0.3215 -0.0369  0.1603
26040SOL    HW183058   7.296  10.231   5.379  0.8553 -1.0526  1.0726
26040SOL    HW283059   7.249  10.193   5.240 -0.0926  1.3550  0.6784
26041SOL     OW83060   1.798   9.312   2.417  0.1665 -0.3302  0.7031
26041SOL    HW183061   1.807   9.329   2.324  0.9461 -0.2505  0.7865
26041SOL    HW283062   1.715   9.353   2.441 -0.0438 -0.3631  0.0458
26042SOL     OW83063  11.508   0.923   2.808  0.1158 -0.1270  0.8422
26042SOL    HW183064  11.456   0.986   2.858 -0.8783  0.3865 -0.7444
26042SOL    HW283065  11.467   0.922   2.721  1.0797 -1.7993  0.3540
26043SOL     OW83066   3.016  11.017   9.865 -0.8750 -0.5047  0.1226
26043SOL    HW183067   2.971  10.933   9.855  0.1627 -1.3031  1.6496
26043SOL    HW283068   3.102  10.994   9.900 -0.1189  1.1297 -0.5545
26044SOL     OW83069   2.260   6.514   3.673 -0.1456  0.2854  0.3510
26044SOL    HW183070   2.273   6.608   3.657  3.0621  0.5065  3.2410
26044SOL    HW283071   2.293   6.472   3.593 -0.1333  1.5511 -0.3449
26045SOL     OW83072   9.297   3.557   4.402 -0.3365  0.4253 -0.0706
26045SOL    HW183073   9.371   3.613   4.425  0.0402  0.1650 -0.6009
26045SOL    HW283074   9.271   3.515   4.484 -0.8772  1.6538  0.4109
26046SOL     OW83075   9.354   8.106   3.390  0.0377  0.0426 -0.0698
26046SOL    HW183076   9.367   8.024   3.437 -1.0470 -0.2899 -0.3328
26046SOL    HW283077   9.436   8.121   3.344 -0.5453 -2.1667 -1.9884
26047SOL     OW83078   3.097   2.436  11.339  0.3107  0.1409  0.7867
26047SOL    HW183079   3.190   2.414  11.344  0.7404  2.1004  2.6162
26047SOL    HW283080   3.054   2.353  11.319  2.4314 -0.7937 -0.2278
26048SOL     OW83081   4.929   3.005   2.588 -0.1877 -0.2041  0.3866
26048SOL    HW183082   4.930   3.054   2.506 -1.4585 -1.2288 -0.2665
26048SOL    HW283083   4.849   3.033   2.632  0.8020  0.8295  1.6247
26049SOL     OW83084   0.746   3.251   3.614  0.0070 -0.0536  0.0184
26049SOL    HW183085   0.837   3.278   3.606  0.0297 -0.4867 -1.4416
26049SOL    HW283086   0.750   3.168   3.662  0.2536  0.5886  1.1284
26050SOL     OW83087   7.464   5.811   0.350 -0.3674 -0.6223  0.2559
26050SOL    HW183088   7.521   5.841   0.420  2.0666  0.7941 -2.1348
26050SOL    HW283089   7.439   5.891   0.303 -2.0594 -1.4977 -0.4079
26051SOL     OW83090  11.265   5.076  10.168  0.7206 -0.3990 -0.0521
26051SOL    HW183091  11.330   5.015  10.132  0.8439  0.1011 -0.6802
26051SOL    HW283092  11.182   5.027  10.164  0.8611 -0.6198 -0.3083
26052SOL     OW83093   3.391   9.610   5.119 -0.3827 -0.0445  0.3722
26052SOL    HW183094   3.453   9.537   5.117  1.4566  1.4456 -0.5686
26052SOL    HW283095   3.312   9.574   5.159  0.6271 -2.3913  0.3946
26053SOL     OW83096   0.729   6.824   3.083 -0.2272  0.0343 -0.5912
26053SOL    HW183097   0.754   6.884   3.152  2.4710 -1.3728 -0.2357
26053SOL    HW283098   0.660   6.770   3.122  0.2200  0.2309  0.5048
26054SOL     OW83099   6.788   9.549   8.011 -0.2667 -0.1819  0.2617
26054SOL    HW183100   6.844   9.625   8.028  0.2874 -0.4118 -0.4836
26054SOL    HW283101   6.725   9.579   7.946  0.4698 -0.5632 -0.6674
26055SOL     OW83102   9.713   2.232   1.555  0.0271 -0.1302  0.1572
26055SOL    HW183103   9.651   2.173   1.597  0.9175  0.0045  1.7499
26055SOL    HW283104   9.693   2.226   1.461 -1.0992 -1.5306  0.4571
26056SOL     OW83105   6.523   2.672   2.128 -0.1851  0.1898 -0.1340
26056SOL    HW183106   6.500   2.698   2.217  1.6502 -0.1096  0.4643
26056SOL    HW283107   6.599   2.726   2.106 -1.6429  1.5555 -2.2370
26057SOL     OW83108  10.512   6.089   1.983 -0.3404  0.2099  0.2804
26057SOL    HW183109  10.453   6.110   1.911  0.1937 -1.9814 -0.8797
26057SOL    HW283110  10.591   6.140   1.965 -0.2540 -0.2363 -0.6653
26058SOL     OW83111   0.716  10.080   5.391 -0.2287 -0.3110  0.0050
26058SOL    HW183112   0.658  10.064   5.317 -0.6139  1.1499 -0.0395
26058SOL    HW283113   0.713   9.999   5.442 -0.6007 -1.0343 -1.1358
26059SOL     OW83114   4.476  10.468   2.587  0.0649  0.6899 -0.8062
26059SOL    HW183115   4.569  10.480   2.572 -0.3076  1.6760 -2.6329
26059SOL    HW283116   4.448  10.409   2.516 -0.7588  0.6709 -0.4758
26060SOL     OW83117   9.666   1.522   0.034  0.2775 -1.4466  0.1658
26060SOL    HW183118   9.573   1.526   0.012  0.4470  1.5284 -0.5043
26060SOL    HW283119   9.711   1.543  -0.048  1.3178  1.0354  1.2785
26061SOL     OW83120  10.669   3.912   3.129  0.0620  0.3214  0.1735
26061SOL    HW183121  10.760   3.890   3.108 -0.5377 -0.2872 -1.9968
26061SOL    HW283122  10.641   3.843   3.189  1.1348  0.7561  1.2186
26062SOL     OW83123   9.116   9.667   7.429  0.4377 -0.2420 -0.5718
26062SOL    HW183124   9.122   9.580   7.468 -0.4976 -0.3860 -0.7239
26062SOL    HW283125   9.193   9.673   7.372  1.3170 -0.3867  0.5431
26063SOL     OW83126   4.140   8.942   3.583  0.1407  0.0534  0.1389
26063SOL    HW183127   4.090   8.997   3.523  0.1143 -0.4619 -0.3192
26063SOL    HW283128   4.078   8.874   3.610  0.1341  0.3177  0.8015
26064SOL     OW83129   1.724   0.418   5.876 -0.3542  0.6200  0.2499
26064SOL    HW183130   1.706   0.418   5.970  1.1175  1.2902  0.5549
26064SOL    HW283131   1.817   0.395   5.869  0.0161  2.2766 -0.9115
26065SOL     OW83132   8.779  10.830   9.094  0.2125  0.2708  0.3521
26065SOL    HW183133   8.873  10.843   9.106  0.1638  0.4278  0.5630
26065SOL    HW283134   8.746  10.917   9.071  0.3939 -0.1089 -1.5195
26066SOL     OW83135   0.946   8.545   1.320  0.4029  0.7791 -0.2081
26066SOL    HW183136   0.928   8.516   1.410  0.0825 -0.0089 -0.5200
26066SOL    HW283137   1.019   8.491   1.291  1.8241  2.3642  0.2306
26067SOL     OW83138   4.796   6.113   8.505 -0.1911  0.1778 -0.1727
26067SOL    HW183139   4.714   6.110   8.555 -0.3083 -0.5941 -0.3989
26067SOL    HW283140   4.785   6.187   8.445 -1.1445 -0.5354 -0.9092
26068SOL     OW83141   2.963   4.206   8.367  0.0586 -0.1994 -0.3933
26068SOL    HW183142   2.936   4.235   8.454  0.5756  0.3467 -0.4141
26068SOL    HW283143   2.888   4.154   8.335 -0.1181 -0.4316  0.3832
26069SOL     OW83144   4.590   0.199   6.823  0.1409 -0.6212 -0.5280
26069SOL    HW183145   4.517   0.195   6.761 -0.6195 -0.2047  0.3123
26069SOL    HW283146   4.585   0.117   6.871 -1.0031  0.1978  0.8410
26070SOL     OW83147   2.757   1.140   9.441  0.0865 -0.0160 -0.1778
26070SOL    HW183148   2.777   1.140   9.347 -0.5124  1.9143 -0.3490
26070SOL    HW283149   2.663   1.155   9.445  0.4808  3.0023  0.6733
26071SOL     OW83150   9.920  10.685   4.938 -0.0191  0.0229 -0.3878
26071SOL    HW183151   9.994  10.737   4.971  0.4068  0.1768 -1.5253
26071SOL    HW283152   9.951  10.595   4.941 -0.9954 -0.3133  2.2182
26072SOL     OW83153   9.185   6.205   9.267  0.1041 -0.4359 -0.5736
26072SOL    HW183154   9.235   6.150   9.328 -0.4777 -1.0689 -0.6440
26072SOL    HW283155   9.150   6.275   9.322  0.4705 -0.4011 -0.3845
26073SOL     OW83156   1.839   3.181   6.437 -0.2626  0.7016 -0.0549
26073SOL    HW183157   1.765   3.240   6.453 -1.0277 -0.7135  1.9054
26073SOL    HW283158   1.911   3.217   6.488 -0.4558  0.4546  0.3908
26074SOL     OW83159   9.352   3.563  10.036 -0.3579  0.4401 -0.0247
26074SOL    HW183160   9.415   3.500  10.001  0.1888  0.7540  0.3745
26074SOL    HW283161   9.330   3.529  10.123 -1.6781 -0.3162 -0.6316
26075SOL     OW83162   8.495   2.612   0.752  0.0580 -0.2973 -0.0805
26075SOL    HW183163   8.458   2.550   0.815  1.2045  0.0264  0.9559
26075SOL    HW283164   8.527   2.685   0.806  0.9689  0.0397 -1.0364
26076SOL     OW83165   4.531   3.655   7.133  0.0569  0.1762 -0.4966
26076SOL    HW183166   4.523   3.714   7.058  0.2017  0.0949 -0.5773
26076SOL    HW283167   4.554   3.571   7.095 -3.3705 -0.8026 -0.7090
26077SOL     OW83168   3.871   6.101   5.817  0.1567 -0.1403  0.1232
26077SOL    HW183169   3.946   6.099   5.876 -0.7022  0.1291  1.2592
26077SOL    HW283170   3.810   6.163   5.858  0.8719  2.7114 -2.7267
26078SOL     OW83171  10.890   7.502   3.483  0.0521 -0.3444 -0.2292
26078SOL    HW183172  10.807   7.480   3.525  0.9000  2.5302  3.5263
26078SOL    HW283173  10.873   7.585   3.439  0.7769  0.0115  0.1393
26079SOL     OW83174   2.587   8.690   7.871  0.2669 -0.3059  0.0314
26079SOL    HW183175   2.588   8.744   7.951  1.1595 -0.2127 -0.0321
26079SOL    HW283176   2.502   8.708   7.831 -1.7327 -2.8797  2.6441
26080SOL     OW83177  11.462  11.036   9.838 -0.0248 -0.0679 -0.2322
26080SOL    HW183178  11.541  10.983   9.829 -0.0404 -0.4819  1.6849
26080SOL    HW283179  11.488  11.109   9.893 -0.0517  1.9455 -2.6921
26081SOL     OW83180   3.704   3.738   7.241 -0.2815  0.3297  0.2838
26081SOL    HW183181   3.622   3.787   7.230  0.1919  1.2328  0.7030
26081SOL    HW283182   3.694   3.694   7.326  0.4685  2.0936  1.3480
26082SOL     OW83183   2.416   8.430   6.734 -0.4313 -0.1683 -0.1541
26082SOL    HW183184   2.356   8.387   6.796  0.2031  1.0578  1.3841
26082SOL    HW283185   2.485   8.365   6.719  0.1473 -0.0014  1.5782
26083SOL     OW83186   5.644   9.773   9.190 -0.0586  1.0232 -0.1078
26083SOL    HW183187   5.713   9.770   9.124  0.3822 -3.7024  0.1948
26083SOL    HW283188   5.690   9.762   9.274 -0.9640 -1.4242  0.1627
26084SOL     OW83189   6.053   0.917   8.125  0.1110  0.2915 -0.1993
26084SOL    HW183190   5.998   0.938   8.201 -0.1568  2.2852 -0.8943
26084SOL    HW283191   6.100   0.838   8.152 -2.0001 -0.6641  0.9688
26085SOL     OW83192   9.418   3.058   0.857  0.0904  0.4543  0.1159
26085SOL    HW183193   9.380   3.110   0.787  0.6690 -0.0134 -0.5558
26085SOL    HW283194   9.426   3.119   0.931  0.7142  1.3201 -0.6398
26086SOL     OW83195   2.127   9.696  10.328 -0.1770  0.1469 -0.6896
26086SOL    HW183196   2.185   9.709  10.402 -0.0203 -0.3730 -0.7220
26086SOL    HW283197   2.145   9.607  10.297 -0.6249  0.1612 -1.0123
26087SOL     OW83198   2.779   0.538  10.783  0.1325  0.0572 -0.0136
26087SOL    HW183199   2.710   0.471  10.779 -0.5826  0.5140  2.3849
26087SOL    HW283200   2.731   0.619  10.802  0.9916  1.2961 -2.7142
26088SOL     OW83201   6.198   5.777   4.617 -0.8178  0.1353  0.4291
26088SOL    HW183202   6.242   5.710   4.669 -0.3414  0.6181  0.6661
26088SOL    HW283203   6.174   5.733   4.536  0.4199 -0.0715  0.1448
26089SOL     OW83204   0.565   9.955   6.950  0.1006 -0.1917 -0.3791
26089SOL    HW183205   0.607   9.955   6.864  2.9837  0.9476  0.8943
26089SOL    HW283206   0.537   9.864   6.963  2.0757 -1.0241 -1.4468
26090SOL     OW83207  11.541   0.773   3.874 -0.2427  0.1288  0.4092
26090SOL    HW183208  11.619   0.827   3.858  0.2833 -0.4163  1.0606
26090SOL    HW283209  11.529   0.723   3.794  0.4162 -0.1948  0.5099
26091SOL     OW83210   8.995   4.718   3.083  0.3425  0.2890 -0.0213
26091SOL    HW183211   8.962   4.706   3.172 -0.4578 -0.1667 -0.3724
26091SOL    HW283212   8.920   4.751   3.034  1.0096  1.3821 -0.3501
26092SOL     OW83213   4.260   6.605   1.840  0.2093 -1.0004 -0.0040
26092SOL    HW183214   4.198   6.560   1.897 -0.2963 -0.5377 -0.1741
26092SOL    HW283215   4.206   6.642   1.771 -0.0162  2.9688  1.9903
26093SOL     OW83216   5.846   5.847   1.240  0.1106  0.7690  0.0686
26093SOL    HW183217   5.881   5.873   1.155 -0.0703 -1.6204 -0.8121
26093SOL    HW283218   5.911   5.786   1.275 -0.3992  0.7988  1.0951
26094SOL     OW83219   0.524  10.156  10.818  0.5204  0.1357  0.7529
26094SOL    HW183220   0.603  10.116  10.781  0.3339  0.0982  0.3899
26094SOL    HW283221   0.471  10.178  10.741 -0.3620 -0.9413  1.0331
26095SOL     OW83222   7.481   3.572   2.332 -0.1032 -0.0113 -0.2785
26095SOL    HW183223   7.528   3.614   2.260  0.5088  0.5757  0.4441
26095SOL    HW283224   7.547   3.557   2.398 -0.4330 -1.6042 -0.2732
26096SOL     OW83225   2.884   9.655   1.237  0.4178 -0.0719 -0.1308
26096SOL    HW183226   2.843   9.741   1.249  0.2342  0.0484 -1.5337
26096SOL    HW283227   2.828   9.595   1.288 -0.1154  0.4612 -0.0714
26097SOL     OW83228   0.538   4.663  10.248  0.4900  0.3963  0.3185
26097SOL    HW183229   0.459   4.621  10.214  0.9479  0.0881 -0.4026
26097SOL    HW283230   0.608   4.633  10.189  1.0980  0.8693  0.7852
26098SOL     OW83231   6.257   2.385  10.736  0.0207  0.0741  0.2752
26098SOL    HW183232   6.297   2.385  10.649  1.1700  1.5446  0.7560
26098SOL    HW283233   6.320   2.430  10.792 -0.7519 -0.7253  1.8609
26099SOL     OW83234   8.488   5.407  11.256 -0.2850  0.3070  0.2208
26099SOL    HW183235   8.440   5.324  11.258 -1.5120  1.0061  0.5971
26099SOL    HW283236   8.569   5.388  11.303 -0.3608 -0.7818 -0.0527
26100SOL     OW83237   9.215  10.810   6.473 -0.5113  0.7747 -0.2589
26100SOL    HW183238   9.181  10.723   6.495 -0.5978  0.7478 -0.4966
26100SOL    HW283239   9.297  10.816   6.522 -1.7014  1.5401  1.7472
26101SOL     OW83240   7.033   3.450   4.619  0.5890  0.1730 -0.3109
26101SOL    HW183241   6.995   3.478   4.536 -1.3999 -0.9452  0.1740
26101SOL    HW283242   6.960   3.451   4.681  1.8473  0.1642  1.2323
26102SOL     OW83243  10.162   9.022   5.060  0.0501 -0.2289  0.0777
26102SOL    HW183244  10.211   8.972   4.995  2.2366 -0.1365  1.5468
26102SOL    HW283245  10.075   9.035   5.021  0.4430 -2.3891 -1.6707
26103SOL     OW83246   8.146   5.064   0.458  0.0973 -0.0242 -0.2933
26103SOL    HW183247   8.118   5.154   0.478 -0.3552 -0.1613 -0.2995
26103SOL    HW283248   8.186   5.070   0.372 -1.4121 -0.1100 -1.0267
26104SOL     OW83249   3.742   0.381   8.172 -0.1781 -0.7085 -0.3043
26104SOL    HW183250   3.714   0.424   8.091  1.0062  0.3272 -0.1921
26104SOL    HW283251   3.679   0.310   8.184 -1.3675  0.1315 -1.2506
26105SOL     OW83252  11.231   2.096   0.489  0.2897 -0.0781 -0.2686
26105SOL    HW183253  11.229   2.190   0.510 -0.0944 -0.2605  0.5263
26105SOL    HW283254  11.145   2.078   0.452  0.8858  0.1926 -1.8701
26106SOL     OW83255  11.518   3.492   1.389  0.5327 -0.1927  0.2663
26106SOL    HW183256  11.581   3.422   1.410  1.3330  1.1711  2.9116
26106SOL    HW283257  11.558   3.539   1.316  0.6199 -1.6780 -0.6822
26107SOL     OW83258   7.153  10.875   2.573 -0.1305 -0.4365  0.5480
26107SOL    HW183259   7.172  10.966   2.595  0.0367 -0.5439  0.8646
26107SOL    HW283260   7.078  10.879   2.514 -0.4272 -0.1201  0.9388
26108SOL     OW83261   7.611   7.505   3.286 -0.0406 -0.2810  0.0517
26108SOL    HW183262   7.645   7.458   3.210 -0.1615  0.7908 -0.7042
26108SOL    HW283263   7.574   7.438   3.342  2.8486 -1.4558  0.6973
26109SOL     OW83264   2.224   2.224   8.428 -0.0500 -0.4571  0.3521
26109SOL    HW183265   2.260   2.183   8.507 -0.8611 -1.1506  0.3731
26109SOL    HW283266   2.198   2.151   8.372 -0.2172  0.0292 -0.2195
26110SOL     OW83267  10.980   0.552   9.341  0.1573  0.3116  0.1302
26110SOL    HW183268  10.932   0.539   9.423 -1.1731  0.6920 -0.5524
26110SOL    HW283269  10.999   0.464   9.310  0.2662  0.1584  0.6261
26111SOL     OW83270   2.263   1.586   2.393 -0.3868  0.0512 -0.1816
26111SOL    HW183271   2.218   1.501   2.386  0.3174 -0.2217 -1.8956
26111SOL    HW283272   2.335   1.580   2.330  0.3420  1.5300  0.4706
26112SOL     OW83273   1.024   4.282   0.678  0.0170 -0.2516 -0.3720
26112SOL    HW183274   1.027   4.376   0.662 -0.3734 -0.2063 -0.1801
26112SOL    HW283275   1.073   4.269   0.759 -1.0994 -0.0424  0.3581
26113SOL     OW83276   2.108   2.459   8.382  0.2138  0.1841 -0.2109
26113SOL    HW183277   2.142   2.478   8.294  1.0909  0.6930  0.2183
26113SOL    HW283278   2.165   2.389   8.415  1.2362  1.3897  0.7107
26114SOL     OW83279   7.808   3.397   4.267  0.2876  0.3740  0.2351
26114SOL    HW183280   7.788   3.484   4.303  0.0337  0.1227  0.7127
26114SOL    HW283281   7.789   3.337   4.339 -0.4442 -0.1602 -0.3927
26115SOL     OW83282   5.066   8.660   0.967  0.2887 -0.3564  0.5409
26115SOL    HW183283   4.975   8.674   0.941  0.6070  2.9881  0.7785
26115SOL    HW283284   5.067   8.674   1.061  0.9122 -1.4207  0.7098
26116SOL     OW83285   9.453   2.751   2.495 -0.1415  0.6892 -0.2867
26116SOL    HW183286   9.542   2.786   2.490  0.4790 -0.9768 -2.8144
26116SOL    HW283287   9.456   2.687   2.566  1.4639 -1.0806 -1.8070
26117SOL     OW83288   7.633   5.912  11.690  0.2434 -0.8451  0.1624
26117SOL    HW183289   7.626   5.946  11.601  0.9338 -2.0202 -0.3642
26117SOL    HW283290   7.543   5.912  11.723  0.1815  1.1441  0.0862
26118SOL     OW83291   8.236  11.019   0.048 -0.0060  0.0145  0.0110
26118SOL    HW183292   8.215  10.937   0.003  0.4954 -0.0236 -0.1614
26118SOL    HW283293   8.165  11.078   0.023  0.1233 -0.0857 -0.6279
26119SOL     OW83294   6.024   8.436  11.007 -0.1828  0.2757  0.0911
26119SOL    HW183295   6.047   8.408  10.918  0.7330 -1.2472  0.7642
26119SOL    HW283296   5.930   8.452  11.003 -0.8318 -2.8990 -0.4423
26120SOL     OW83297   1.925   8.793  11.328  0.3651 -0.0239  0.3332
26120SOL    HW183298   1.952   8.874  11.285 -0.9585  0.8617  1.1095
26120SOL    HW283299   1.961   8.798  11.416  0.5972 -0.4627  0.2679
26121SOL     OW83300   1.925   5.675   2.034  0.1709 -0.1258  0.1103
26121SOL    HW183301   1.983   5.725   2.091 -0.1732 -0.6627  0.9477
26121SOL    HW283302   1.837   5.690   2.070  0.0526 -1.2182  0.2854
26122SOL     OW83303   4.211   6.731   0.264 -0.2939 -0.0052 -0.5149
26122SOL    HW183304   4.180   6.696   0.181 -1.9915 -0.6177  0.3360
26122SOL    HW283305   4.133   6.737   0.319  0.9882 -1.3774  1.6515
26123SOL     OW83306   6.086   2.451   8.305 -0.2952  0.4892  0.5639
26123SOL    HW183307   6.133   2.370   8.325  0.7643  1.4287  2.1545
26123SOL    HW283308   6.027   2.463   8.380 -0.2089  1.3353  0.5034
26124SOL     OW83309   9.808   1.675   6.352 -0.1756 -0.3122 -0.3061
26124SOL    HW183310   9.796   1.605   6.289 -2.3281  0.0564 -0.3656
26124SOL    HW283311   9.808   1.755   6.300 -2.5940  0.0460  0.1250
26125SOL     OW83312   7.305  10.623  10.336 -0.4456  0.2608  0.1679
26125SOL    HW183313   7.302  10.607  10.430  0.6350  0.9478  0.3427
26125SOL    HW283314   7.252  10.554  10.297  0.9308 -1.3934  1.1293
26126SOL     OW83315   1.717   0.789   3.831  0.3519 -0.0794  0.3778
26126SOL    HW183316   1.704   0.819   3.741  2.6701  0.8431  0.2738
26126SOL    HW283317   1.701   0.695   3.827 -0.8808  0.1357 -0.6785
26127SOL     OW83318   2.516   8.946   3.169  0.3627  0.2056 -0.3107
26127SOL    HW183319   2.458   8.930   3.095 -0.3282 -1.2050  0.4813
26127SOL    HW283320   2.509   9.040   3.185  0.0167  0.4202 -1.6045
26128SOL     OW83321  10.445   6.637   7.590 -0.4670  0.6704 -0.1587
26128SOL    HW183322  10.441   6.676   7.677 -1.5873  1.8714 -0.7023
26128SOL    HW283323  10.511   6.568   7.597 -1.1756  0.1439  1.8553
26129SOL     OW83324   3.053   6.979  10.282  0.5706 -0.0675  0.2836
26129SOL    HW183325   2.970   7.024  10.268  0.5802 -0.1002  0.1247
26129SOL    HW283326   3.115   7.024  10.224  0.3678 -0.9140 -0.5966
26130SOL     OW83327   0.547   7.086   8.795  0.4055 -0.7338 -0.1280
26130SOL    HW183328   0.577   7.054   8.710 -0.6792  1.4408 -1.4228
26130SOL    HW283329   0.606   7.158   8.815 -0.8407  0.3725 -0.2929
26131SOL     OW83330   2.353   1.829   6.741 -0.0425 -0.1431 -0.2671
26131SOL    HW183331   2.424   1.821   6.805 -0.0386  2.1948  0.1376
26131SOL    HW283332   2.369   1.759   6.678  0.3369 -2.1225  1.8981
26132SOL     OW83333   7.241  11.571   1.735 -0.1907  0.6174 -0.4192
26132SOL    HW183334   7.261  11.659   1.704  0.5850 -0.3917 -3.0437
26132SOL    HW283335   7.149  11.557   1.711  0.2434  0.0452 -1.8242
26133SOL     OW83336  11.224   7.212   5.970 -0.2742  0.6977 -0.1951
26133SOL    HW183337  11.206   7.208   5.876  0.6808  1.5824 -0.4261
26133SOL    HW283338  11.139   7.194   6.011 -0.9364  1.3540 -1.2370
26134SOL     OW83339   9.305  10.112   9.763  0.0458 -0.0566 -0.7067
26134SOL    HW183340   9.228  10.157   9.726  1.9429  2.8853 -1.4642
26134SOL    HW283341   9.281  10.096   9.854 -1.7156  0.1076 -1.0958
26135SOL     OW83342   4.279   6.851   6.076 -0.2906  0.4858  0.1881
26135SOL    HW183343   4.293   6.770   6.026 -0.2251  0.7105 -0.1638
26135SOL    HW283344   4.255   6.916   6.009 -1.7413  0.4251  0.6146
26136SOL     OW83345   8.813   9.189   2.541 -0.2298 -0.0702 -0.8363
26136SOL    HW183346   8.845   9.177   2.452 -0.3495 -0.8322 -0.7869
26136SOL    HW283347   8.736   9.244   2.532 -0.2441 -0.1514 -1.2069
26137SOL     OW83348   2.834   3.368   1.344  0.0338 -0.2399  0.0513
26137SOL    HW183349   2.915   3.332   1.308  0.0227  0.9779 -1.3017
26137SOL    HW283350   2.765   3.311   1.310  0.1923 -0.2960 -0.1798
26138SOL     OW83351   1.677   7.309   5.054  0.2998 -0.0643  0.2766
26138SOL    HW183352   1.707   7.380   4.997  1.6460  0.1976  1.2721
26138SOL    HW283353   1.610   7.349   5.109 -1.2583 -0.3982 -1.2730
26139SOL     OW83354   5.785   5.239   9.795  0.4543 -0.0360 -0.1004
26139SOL    HW183355   5.722   5.243   9.723  0.3066  1.8372  0.0856
26139SOL    HW283356   5.764   5.314   9.850  2.3831  0.2399  0.3501
26140SOL     OW83357   8.917   2.665   2.631  0.0946 -0.5545  0.8752
26140SOL    HW183358   8.939   2.656   2.539 -4.0454  0.9485 -0.4802
26140SOL    HW283359   8.888   2.578   2.658  1.5029 -1.0410  0.8924
26141SOL     OW83360   8.830  10.217   3.834  0.0834 -0.0281 -0.1985
26141SOL    HW183361   8.738  10.198   3.815 -0.7371  1.9132  1.4211
26141SOL    HW283362   8.838  10.201   3.928  0.6034  2.4697  0.2548
26142SOL     OW83363  10.594   0.141   6.661  0.1968  0.1290 -0.3506
26142SOL    HW183364  10.645   0.065   6.687 -1.2939 -1.2029 -1.1707
26142SOL    HW283365  10.659   0.201   6.622  1.4451 -0.5273  0.6575
26143SOL     OW83366   0.758   7.338   7.842  0.2028 -0.2582  0.0471
26143SOL    HW183367   0.825   7.304   7.783  0.1211  1.2717 -0.9848
26143SOL    HW283368   0.761   7.280   7.918  3.3925  0.3057  0.4995
26144SOL     OW83369   5.145   2.860   0.794 -0.2711  0.1087 -0.3064
26144SOL    HW183370   5.227   2.811   0.798 -0.0137  0.5390 -0.2177
26144SOL    HW283371   5.078   2.798   0.821  0.1952  0.1411  0.9712
26145SOL     OW83372   1.690   6.865   5.969 -0.3000  0.5177 -0.0979
26145SOL    HW183373   1.717   6.905   5.886  0.4188  1.1136  0.4049
26145SOL    HW283374   1.769   6.867   6.023 -1.0771  1.3704  1.0707
26146SOL     OW83375   8.570   8.101   1.609 -0.1596 -0.3946 -0.1515
26146SOL    HW183376   8.479   8.113   1.583 -0.1079 -1.7241 -1.0115
26146SOL    HW283377   8.617   8.084   1.527  0.6496 -0.9216  0.4055
26147SOL     OW83378   1.062  10.959   6.485 -0.3665 -0.0762 -0.2426
26147SOL    HW183379   1.103  10.890   6.537  0.6658  0.4291 -0.3605
26147SOL    HW283380   1.070  10.929   6.394 -1.1487 -0.4274 -0.2046
26148SOL     OW83381   4.119   9.933   3.017 -0.5509  0.1079 -0.4332
26148SOL    HW183382   4.154   9.976   2.940  0.5953 -0.1339 -0.0696
26148SOL    HW283383   4.054   9.871   2.983 -1.2330  1.1316 -1.0560
26149SOL     OW83384  11.482   3.238   7.165 -0.2039  0.7583 -0.0387
26149SOL    HW183385  11.497   3.255   7.072 -2.3355  3.1474 -0.0684
26149SOL    HW283386  11.394   3.203   7.169  0.4531 -0.8656  1.0033
26150SOL     OW83387   2.122   6.162   9.110 -0.2692 -0.5257  0.2934
26150SOL    HW183388   2.155   6.074   9.090  0.3855 -0.7038  1.9970
26150SOL    HW283389   2.200   6.214   9.128 -0.7049  0.1196  0.3648
26151SOL     OW83390   5.404   0.344   3.522 -0.4166 -0.0219 -0.1028
26151SOL    HW183391   5.396   0.271   3.461 -0.5269 -0.0978  0.0033
26151SOL    HW283392   5.345   0.322   3.594 -0.4058  0.1436 -0.0435
26152SOL     OW83393   5.200   8.691   3.625  0.0679  0.4097  0.0672
26152SOL    HW183394   5.275   8.730   3.670  0.1527 -0.8031  1.0351
26152SOL    HW283395   5.237   8.656   3.544  0.3059  0.8461 -0.0198
26153SOL     OW83396  10.804   3.729   3.780 -0.3868  0.4907  0.2186
26153SOL    HW183397  10.832   3.808   3.825 -0.6853  0.8247 -0.1755
26153SOL    HW283398  10.825   3.745   3.688 -2.6720  1.1550 -0.2526
26154SOL     OW83399  10.172   6.499   2.237  0.0967 -0.4078  0.3988
26154SOL    HW183400  10.226   6.510   2.315 -0.5604  1.3010  0.6593
26154SOL    HW283401  10.104   6.437   2.263 -1.9607  2.3783  2.3151
26155SOL     OW83402   3.624   0.048   9.674 -0.0824 -0.4292 -0.4310
26155SOL    HW183403   3.711   0.086   9.681  0.0476 -0.3515 -2.1013
26155SOL    HW283404   3.581   0.099   9.606 -1.0168 -1.2272 -0.4660
26156SOL     OW83405  10.503   6.769   7.347 -0.4375  0.0345 -0.1844
26156SOL    HW183406  10.583   6.814   7.376 -0.9340 -0.3953  2.0234
26156SOL    HW283407  10.464   6.736   7.428 -1.6043 -1.8682 -1.4582
26157SOL     OW83408   7.065   2.503   4.520  0.1810 -0.0838  0.0442
26157SOL    HW183409   7.018   2.504   4.437  0.0254  0.1383  0.1366
26157SOL    HW283410   7.095   2.412   4.529  0.9082  0.0731 -0.6568
26158SOL     OW83411   2.842   5.323  11.128 -0.3063  0.1350  0.2878
26158SOL    HW183412   2.846   5.241  11.079  0.1380  0.3744 -0.0804
26158SOL    HW283413   2.832   5.390  11.061 -0.7026  0.3786  0.5931
26159SOL     OW83414   1.354   5.123   3.259  0.1496  0.1622  0.3838
26159SOL    HW183415   1.385   5.035   3.237 -1.1859 -0.4857  0.9470
26159SOL    HW283416   1.260   5.119   3.242  0.3155  2.0280 -1.2743
26160SOL     OW83417   2.763   2.940   5.504  0.2505 -0.3334  0.3532
26160SOL    HW183418   2.784   2.941   5.597  0.6473 -0.6998  0.2702
26160SOL    HW283419   2.801   2.858   5.471 -2.4609 -1.7410  0.4455
26161SOL     OW83420   8.456   6.196   2.160 -0.1367  0.2351  0.2609
26161SOL    HW183421   8.427   6.201   2.069  1.6670 -0.6849 -0.4146
26161SOL    HW283422   8.375   6.190   2.211 -1.1961  1.3264 -1.2236
26162SOL     OW83423  10.817   3.406  11.424 -0.2368  0.3747  0.0308
26162SOL    HW183424  10.750   3.397  11.356  0.2988 -0.4044 -0.4159
26162SOL    HW283425  10.768   3.425  11.504 -0.7836  3.0891 -0.8412
26163SOL     OW83426   2.103  10.759  10.557 -0.5594  0.0010  0.6016
26163SOL    HW183427   2.118  10.733  10.466  0.3374 -0.6695  0.9308
26163SOL    HW283428   2.041  10.832  10.550 -0.4811 -0.0122 -0.5441
26164SOL     OW83429   2.686   0.053   2.130  0.4120  0.0833  0.5834
26164SOL    HW183430   2.749   0.122   2.111  2.4012 -1.8566 -0.3124
26164SOL    HW283431   2.730  -0.005   2.192 -1.2746 -0.3309  1.4716
26165SOL     OW83432   2.609   4.435   1.916 -0.1808 -0.3898 -0.2148
26165SOL    HW183433   2.514   4.423   1.926 -0.0975 -0.6848  0.2565
26165SOL    HW283434   2.641   4.446   2.006  0.3124 -0.9060 -0.3183
26166SOL     OW83435   9.686   4.349   6.739  0.0420 -0.2645 -0.0694
26166SOL    HW183436   9.771   4.307   6.729  0.2023  0.1860 -0.5900
26166SOL    HW283437   9.626   4.276   6.760  0.6638 -0.4946  1.0191
26167SOL     OW83438   1.210   9.158  10.984  0.0217 -0.4107 -0.2464
26167SOL    HW183439   1.263   9.087  11.019  1.9802  0.4763 -1.2794
26167SOL    HW283440   1.253   9.238  11.015  0.0496  0.3445 -2.1403
26168SOL     OW83441   1.788  10.911   5.635 -0.1071  0.1320  0.2275
26168SOL    HW183442   1.718  10.858   5.673  0.5722 -1.3667 -0.5391
26168SOL    HW283443   1.830  10.853   5.571  1.6200  1.0986  0.4314
26169SOL     OW83444   7.148   4.538   8.337  0.4814 -0.4336 -0.4079
26169SOL    HW183445   7.112   4.467   8.284  0.3827  0.5630 -1.7225
26169SOL    HW283446   7.199   4.591   8.276 -1.4260  2.0011 -0.0827
26170SOL     OW83447   2.136  10.585   4.826  0.1820 -0.2836  0.0617
26170SOL    HW183448   2.075  10.517   4.855  0.3572 -0.5962 -0.2896
26170SOL    HW283449   2.129  10.585   4.731  1.5979 -1.1750 -0.0878
26171SOL     OW83450   3.958   4.526   4.948 -0.1357  0.1578 -0.4157
26171SOL    HW183451   3.933   4.435   4.938 -0.2678  0.3078 -1.5964
26171SOL    HW283452   3.905   4.573   4.883 -0.4099  1.1426  0.4766
26172SOL     OW83453   4.218   8.194   7.635  0.2906  0.5619 -0.0212
26172SOL    HW183454   4.264   8.192   7.552  0.3196  0.1991  0.0017
26172SOL    HW283455   4.286   8.181   7.701  0.0950 -0.5408 -0.0164
26173SOL     OW83456   7.783   6.246   6.703  0.3200  0.3561 -0.0878
26173SOL    HW183457   7.699   6.241   6.658 -1.1841  0.4817  2.5227
26173SOL    HW283458   7.835   6.307   6.651 -1.1334  0.2016 -1.8023
26174SOL     OW83459   1.843  10.892   0.912 -0.5726 -0.1351  0.7489
26174SOL    HW183460   1.802  10.856   0.833 -0.3918  0.3345  0.4370
26174SOL    HW283461   1.894  10.819   0.947  0.4045  0.0194 -0.2957
26175SOL     OW83462   3.032   0.991  10.072 -0.6983 -0.4766 -0.3213
26175SOL    HW183463   3.096   1.054  10.107  1.0865 -1.8512 -0.9851
26175SOL    HW283464   3.011   1.025   9.985 -1.2751  0.2274  0.0741
26176SOL     OW83465   4.920   6.668   4.409 -1.0576 -0.2448 -0.2103
26176SOL    HW183466   4.910   6.693   4.501  1.2232  1.0753 -0.2435
26176SOL    HW283467   4.956   6.580   4.412  0.4307  0.3594  0.2360
26177SOL     OW83468   1.986   3.679  10.287 -0.4451 -0.0749  0.2473
26177SOL    HW183469   2.025   3.595  10.262  0.0270  0.7345 -2.0140
26177SOL    HW283470   1.894   3.659  10.305 -0.4890 -0.9868 -0.9144
26178SOL     OW83471   8.920   2.802   0.784  0.0215 -0.3047 -0.2215
26178SOL    HW183472   8.824   2.800   0.786 -0.0730 -2.1288 -2.3066
26178SOL    HW283473   8.944   2.865   0.852 -2.7311  2.8393 -1.8765
26179SOL     OW83474   8.632  10.267   9.691  0.0667 -0.0533  0.4201
26179SOL    HW183475   8.655  10.318   9.614  0.0270 -1.3304 -0.4742
26179SOL    HW283476   8.715  10.257   9.739  0.4473 -0.6451 -0.3367
26180SOL     OW83477  10.884   5.492   4.004  0.4770 -0.6797  0.1599
26180SOL    HW183478  10.938   5.424   4.044  0.0035 -1.3554 -0.3238
26180SOL    HW283479  10.947   5.550   3.960  0.7663 -2.0606 -1.3165
26181SOL     OW83480   3.935   8.202   0.060  0.1148 -0.6028  0.5337
26181SOL    HW183481   3.952   8.296   0.068 -1.6226 -0.1069 -1.1645
26181SOL    HW283482   3.887   8.180   0.140  0.5339 -0.0635  0.9430
26182SOL     OW83483   9.309   2.947   6.197  0.3951 -0.2725  0.1384
26182SOL    HW183484   9.272   3.007   6.133  0.6969  0.2601  0.4573
26182SOL    HW283485   9.239   2.933   6.261 -0.5701 -2.2472 -1.2281
26183SOL     OW83486  11.003   5.167   8.223 -0.1912 -0.1156  0.2902
26183SOL    HW183487  11.087   5.213   8.230 -0.5405  0.7801 -1.0539
26183SOL    HW283488  10.986   5.135   8.312  0.2486  2.0211  1.2070
26184SOL     OW83489   8.928  11.395   2.287  0.5463  0.6193 -0.0165
26184SOL    HW183490   8.932  11.300   2.300 -0.4453  0.3558 -1.3802
26184SOL    HW283491   8.845  11.421   2.328  1.4565  1.1518  1.5729
26185SOL     OW83492   2.779   4.794   8.990  0.3263 -0.0987  0.1558
26185SOL    HW183493   2.764   4.737   9.066  1.4884  0.3773  0.7508
26185SOL    HW283494   2.693   4.798   8.948 -0.3250 -0.4674  1.3703
26186SOL     OW83495   0.439   6.863   3.660 -0.0606  0.3673  0.0592
26186SOL    HW183496   0.433   6.770   3.641  2.7928  0.3218 -1.0343
26186SOL    HW283497   0.450   6.905   3.575 -0.0181  1.5661  0.6315
26187SOL     OW83498   7.468   0.041   9.335 -0.7001 -0.1145 -0.4462
26187SOL    HW183499   7.536  -0.025   9.333  0.4996  1.0810 -0.4561
26187SOL    HW283500   7.446   0.051   9.427 -0.8781 -0.5171 -0.4451
26188SOL     OW83501  10.406   6.970   7.184  0.2649  0.1005  0.4586
26188SOL    HW183502  10.311   6.978   7.179  0.2265  0.0320  1.0025
26188SOL    HW283503  10.421   6.889   7.232  0.5974  0.3061  0.7100
26189SOL     OW83504  10.335   1.773   2.629  0.5556  0.1880 -0.9101
26189SOL    HW183505  10.282   1.700   2.662  0.3651  1.4104  1.7881
26189SOL    HW283506  10.301   1.789   2.541 -0.9844 -1.4715 -0.6899
26190SOL     OW83507   0.791   1.901   5.518  0.5361  0.0165  0.0223
26190SOL    HW183508   0.711   1.905   5.465  0.1393 -0.2363  0.5935
26190SOL    HW283509   0.847   1.838   5.472  1.0160  1.2750 -1.1817
26191SOL     OW83510  11.018   5.806   1.842 -0.0774 -0.0289 -0.4141
26191SOL    HW183511  10.956   5.753   1.892  0.2153 -1.2336 -1.2824
26191SOL    HW283512  11.072   5.848   1.909 -1.0971  0.1595  0.3243
26192SOL     OW83513   7.874   1.270   2.764  0.1682 -0.5195 -0.2316
26192SOL    HW183514   7.787   1.309   2.774  0.0742 -0.9914  1.0150
26192SOL    HW283515   7.857   1.183   2.728  0.0189 -1.0379  1.0595
26193SOL     OW83516   8.400  11.030   8.969 -0.3308 -0.1639  0.3143
26193SOL    HW183517   8.307  11.011   8.962 -0.7308  1.8103 -0.5104
26193SOL    HW283518   8.441  10.974   8.903 -0.9145 -1.0216  0.6557
26194SOL     OW83519   4.651   3.931   3.465  0.1211 -0.0228  0.1384
26194SOL    HW183520   4.581   3.956   3.525  0.6932  0.9747  0.4143
26194SOL    HW283521   4.659   3.837   3.474  1.4987  0.2869  3.0930
26195SOL     OW83522   8.729   9.830   3.022  0.2473  0.1169  0.0439
26195SOL    HW183523   8.766   9.858   2.939 -2.2370 -1.4811 -1.7463
26195SOL    HW283524   8.667   9.898   3.046  1.0438  0.6325  0.6948
26196SOL     OW83525   1.353  11.590  10.224 -0.4335 -0.2939  0.5660
26196SOL    HW183526   1.320  11.525  10.287 -0.6802  0.7154  1.5180
26196SOL    HW283527   1.305  11.571  10.143 -0.3862 -1.3884  0.7777
26197SOL     OW83528   7.649  11.264   6.049 -0.2238  0.0280  0.5894
26197SOL    HW183529   7.652  11.220   6.134 -0.5858 -0.6785  0.2395
26197SOL    HW283530   7.699  11.207   5.991 -1.2447 -0.2644 -0.0198
26198SOL     OW83531   4.398   6.166   5.299  0.4403 -0.0163 -0.1684
26198SOL    HW183532   4.365   6.089   5.346 -0.1091  0.7607  0.7646
26198SOL    HW283533   4.393   6.142   5.207 -1.1258 -0.5686  0.0380
26199SOL     OW83534   4.673   6.784   7.065  0.2906  0.3312  0.1688
26199SOL    HW183535   4.651   6.872   7.095  1.2243  0.6543 -0.0452
26199SOL    HW283536   4.625   6.726   7.124 -0.5702  0.9775  0.1230
26200SOL     OW83537   2.038  10.780   2.319 -0.0021  0.4854 -0.0603
26200SOL    HW183538   2.048  10.696   2.272 -1.8102  0.0538  0.2634
26200SOL    HW283539   2.076  10.763   2.405 -0.4296 -0.0337  0.0328
26201SOL     OW83540   2.252   9.737   2.062 -0.3629 -0.6017  0.1199
26201SOL    HW183541   2.260   9.732   2.158  1.9322  0.1890  0.0368
26201SOL    HW283542   2.282   9.652   2.031 -5.0209 -2.5257  0.0995
26202SOL     OW83543  10.136   1.243   1.596 -0.6042  0.1627 -0.0662
26202SOL    HW183544  10.133   1.171   1.533  1.3641  0.0197 -0.0544
26202SOL    HW283545  10.119   1.322   1.544  1.4407  0.0974 -0.9333
26203SOL     OW83546   3.571   6.474   1.767 -0.3257 -0.2061 -0.2779
26203SOL    HW183547   3.623   6.394   1.777 -0.5152 -0.2598  0.3176
26203SOL    HW283548   3.485   6.444   1.738 -0.1216 -0.1391 -0.9743
26204SOL     OW83549   4.470  10.847   6.474  0.5975  0.2142 -0.1539
26204SOL    HW183550   4.462  10.821   6.566 -0.0657 -1.4637 -0.6514
26204SOL    HW283551   4.507  10.770   6.430  1.2116  1.1021 -1.2507
26205SOL     OW83552   8.203  10.139   0.070  0.0763 -0.6731  0.5759
26205SOL    HW183553   8.186  10.126  -0.023  1.0222  1.5079  0.0243
26205SOL    HW283554   8.247  10.059   0.099  1.6939 -0.5621 -1.3794
26206SOL     OW83555   4.646   7.171   3.675 -0.6008 -0.2355  0.4529
26206SOL    HW183556   4.628   7.244   3.734 -0.5115  0.9649 -0.9622
26206SOL    HW283557   4.568   7.116   3.680  0.2046 -1.3215  3.2419
26207SOL     OW83558   5.433   8.406   3.271 -0.3954 -0.1161  0.0197
26207SOL    HW183559   5.429   8.475   3.205  0.9946 -1.4879 -1.6193
26207SOL    HW283560   5.525   8.380   3.272 -0.5927 -0.8823  1.7436
26208SOL     OW83561   5.064  10.668   9.323  0.4319  0.4560 -0.1350
26208SOL    HW183562   5.026  10.724   9.391 -1.5604 -2.4057  1.3221
26208SOL    HW283563   5.145  10.635   9.362 -0.3097 -0.5577  0.6145
26209SOL     OW83564   4.326  10.491   3.854  0.4248  0.4606  0.4349
26209SOL    HW183565   4.350  10.399   3.861  1.9545  0.1306 -4.8704
26209SOL    HW283566   4.395  10.538   3.900  0.8625 -0.9632  1.2646
26210SOL     OW83567  10.828  10.108   5.733 -0.8438  0.1825  0.3535
26210SOL    HW183568  10.843  10.071   5.819 -0.1983 -0.4006 -0.0018
26210SOL    HW283569  10.877  10.190   5.733 -2.7781  1.4268  1.3583
26211SOL     OW83570   2.722   5.424   8.152 -0.2393 -0.3071 -0.2619
26211SOL    HW183571   2.731   5.348   8.211  1.8589  0.4076  0.4490
26211SOL    HW283572   2.669   5.486   8.201 -0.4271 -0.6069 -0.0808
26212SOL     OW83573   8.476   8.175   9.243  0.0421 -0.1942  0.1791
26212SOL    HW183574   8.478   8.104   9.180  0.5901 -1.1537  1.2302
26212SOL    HW283575   8.565   8.212   9.240  0.4852 -1.0836  1.2545
26213SOL     OW83576   6.405   0.189   5.825  0.1388  0.9219 -0.8632
26213SOL    HW183577   6.486   0.229   5.857  0.2722 -0.3359  0.5141
26213SOL    HW283578   6.428   0.097   5.809 -1.3435  0.1302  1.1352
26214SOL     OW83579   3.025  10.139   9.199 -0.0907  0.2477  0.9500
26214SOL    HW183580   2.980  10.082   9.261 -0.0992  0.9949  1.6562
26214SOL    HW283581   3.077  10.080   9.145 -0.9712 -0.5242  0.9058
26215SOL     OW83582   4.132  10.520   2.648 -0.9120 -0.0960 -0.1086
26215SOL    HW183583   4.150  10.450   2.711 -2.4190  0.6463  1.2054
26215SOL    HW283584   4.213  10.572   2.646 -1.6871  1.5463  3.5241
26216SOL     OW83585   9.898   3.261   3.488 -0.2219 -0.4287 -0.1367
26216SOL    HW183586   9.864   3.293   3.404  1.6169  0.3607 -0.6291
26216SOL    HW283587   9.919   3.169   3.472  1.5861  0.1082 -1.0668
26217SOL     OW83588   6.755   7.576   7.118 -0.2506  0.2149 -0.3265
26217SOL    HW183589   6.792   7.664   7.124  1.1919 -0.3990  0.3087
26217SOL    HW283590   6.678   7.578   7.174  0.4621  0.7462  0.6615
26218SOL     OW83591   8.271   4.410   0.317  0.2184  0.4441 -0.0105
26218SOL    HW183592   8.349   4.430   0.369  0.9211  0.9433 -1.2202
26218SOL    HW283593   8.298   4.336   0.263 -0.5856 -0.2305  0.4878
26219SOL     OW83594   5.154   3.077   5.563 -0.0310  0.1050  0.4330
26219SOL    HW183595   5.127   3.041   5.647 -2.7963 -0.7569 -0.6805
26219SOL    HW283596   5.192   3.003   5.515 -1.1529 -0.1877 -0.0603
26220SOL     OW83597  11.596   8.572   3.231  0.3542 -0.4656 -0.3568
26220SOL    HW183598  11.557   8.570   3.143  0.9724 -0.9719 -0.6355
26220SOL    HW283599  11.677   8.522   3.221  0.8184  0.1487  0.3262
26221SOL     OW83600   5.738   1.473  10.049 -0.6895  0.1473 -0.2748
26221SOL    HW183601   5.724   1.539  10.117  2.1183 -0.0270  0.5787
26221SOL    HW283602   5.799   1.411  10.088  0.8988 -0.0597 -2.8682
26222SOL     OW83603  10.483   6.573   6.136 -0.2190  0.2520  0.1767
26222SOL    HW183604  10.531   6.493   6.112  0.2991  0.5766  0.1071
26222SOL    HW283605  10.534   6.644   6.097 -2.7462  0.4497 -3.2328
26223SOL     OW83606   3.641   2.317   3.184 -0.3273  0.2446  0.0221
26223SOL    HW183607   3.607   2.300   3.272 -0.1712 -0.0935  0.0173
26223SOL    HW283608   3.678   2.405   3.190 -2.0166  1.0140 -0.2136
26224SOL     OW83609   1.937   4.575   6.282  0.2423 -0.2498 -0.5618
26224SOL    HW183610   1.989   4.638   6.232  0.2480 -0.1748 -0.4609
26224SOL    HW283611   1.964   4.489   6.248  1.7560 -0.3210  0.7032
26225SOL     OW83612   9.027  11.279  10.339  0.0213 -0.3113 -0.5193
26225SOL    HW183613   9.104  11.227  10.315 -1.5885 -2.3606 -1.5230
26225SOL    HW283614   9.044  11.304  10.431  1.4075 -1.5739 -0.3885
26226SOL     OW83615   9.701   7.647   3.990 -0.4168  0.0059  0.1321
26226SOL    HW183616   9.665   7.568   3.951 -0.7715  0.2551 -0.0445
26226SOL    HW283617   9.630   7.711   3.986 -0.0460  0.4167  0.0273
26227SOL     OW83618   6.347   3.551   7.962 -0.3041 -0.6523 -0.1523
26227SOL    HW183619   6.405   3.595   7.899  0.3182 -0.0913  0.7835
26227SOL    HW283620   6.312   3.477   7.914  2.1976 -1.7780 -0.4189
26228SOL     OW83621   2.340   1.194   1.995  0.0673 -0.0989 -0.1418
26228SOL    HW183622   2.413   1.133   1.998 -0.5829 -0.9257 -0.6879
26228SOL    HW283623   2.266   1.141   1.965 -0.4105  1.0579 -1.0662
26229SOL     OW83624   3.170   0.144   6.068  0.3028 -0.2821  0.0198
26229SOL    HW183625   3.109   0.206   6.029  0.1233 -0.4918 -0.0341
26229SOL    HW283626   3.246   0.197   6.094  0.0228  0.0072  0.2549
26230SOL     OW83627   9.579   7.176  11.417  0.2662 -0.3665 -0.4885
26230SOL    HW183628   9.658   7.195  11.366  0.9112  0.0651  0.6333
26230SOL    HW283629   9.611   7.162  11.506 -1.0780  1.9640  0.4522
26231SOL     OW83630   9.141   4.916   9.123 -0.1940 -0.1554  0.3809
26231SOL    HW183631   9.119   4.828   9.094  0.9094 -0.4166  0.2794
26231SOL    HW283632   9.182   4.903   9.209  3.6964 -0.2305 -1.2926
26232SOL     OW83633  11.565  10.989  10.265  0.2170 -0.3185 -0.6350
26232SOL    HW183634  11.620  10.931  10.212 -1.2771 -0.2968 -2.3098
26232SOL    HW283635  11.616  11.005  10.344  3.3133  0.9153 -2.6850
26233SOL     OW83636  11.331   8.821   0.120 -0.4745  0.2596 -0.0641
26233SOL    HW183637  11.308   8.783   0.035  1.0979 -3.2773  0.9110
26233SOL    HW283638  11.250   8.817   0.171 -0.4230 -1.8093 -0.0628
26234SOL     OW83639   3.047   4.578  11.222 -0.9456  0.2129 -0.6376
26234SOL    HW183640   3.056   4.503  11.281 -2.1446  0.3216 -0.2934
26234SOL    HW283641   2.965   4.562  11.175 -0.7739  0.8931 -1.1841
26235SOL     OW83642   4.936   0.457   2.355  0.3636 -0.0840  0.2577
26235SOL    HW183643   4.981   0.483   2.275  1.3574 -1.0101  0.5010
26235SOL    HW283644   4.889   0.377   2.331  3.1708 -2.2266  1.3067
26236SOL     OW83645   0.955  11.155  10.398 -0.2475 -0.1513  0.2443
26236SOL    HW183646   0.930  11.101  10.322  1.1877 -2.9439  1.6005
26236SOL    HW283647   0.967  11.092  10.469 -0.7007  2.2661  2.6198
26237SOL     OW83648   8.945   7.700   9.214 -0.0323 -0.0204 -0.2476
26237SOL    HW183649   8.904   7.769   9.266 -1.7555  0.1577 -1.7304
26237SOL    HW283650   9.023   7.741   9.176  0.7257  0.1119  1.3854
26238SOL     OW83651   6.866  10.148   6.267  0.1201 -0.4891  0.0899
26238SOL    HW183652   6.804  10.146   6.195  0.0803 -0.3410  0.1190
26238SOL    HW283653   6.910  10.062   6.264 -0.8708 -1.0349  0.7570
26239SOL     OW83654   2.018   5.057   4.278  0.5426  0.8891  0.1159
26239SOL    HW183655   2.077   5.062   4.353 -0.6596  1.2467  1.0498
26239SOL    HW283656   1.945   5.003   4.307  0.2454  0.7139 -0.9179
26240SOL     OW83657   8.775  10.166  11.609  0.0782 -0.1930  0.5390
26240SOL    HW183658   8.871  10.165  11.604  0.0540  0.0018 -0.0414
26240SOL    HW283659   8.755  10.134  11.697  0.6552 -1.1675  0.3323
26241SOL     OW83660   3.229   3.623   4.133  0.6365 -0.2398 -0.1744
26241SOL    HW183661   3.224   3.706   4.087  0.3993 -0.2317 -0.1340
26241SOL    HW283662   3.318   3.591   4.116  0.6328 -0.1158 -0.4224
26242SOL     OW83663   2.282  10.097   9.271  0.2090 -0.1036 -0.4091
26242SOL    HW183664   2.325  10.011   9.267 -2.6141 -2.1219  4.0289
26242SOL    HW283665   2.311  10.134   9.354 -2.5400  0.7070  0.2989
26243SOL     OW83666   8.976   9.788   7.969 -0.0687  0.1320 -0.3558
26243SOL    HW183667   8.907   9.779   8.036  0.9522  0.0576  0.7167
26243SOL    HW283668   9.022   9.868   7.993 -1.0565  1.3376 -2.3089
26244SOL     OW83669   4.199   4.780   9.648  0.3494  0.5203  0.1749
26244SOL    HW183670   4.170   4.761   9.558 -1.8491  3.1313  0.2228
26244SOL    HW283671   4.224   4.872   9.647 -0.0410  0.7048  2.2963
26245SOL     OW83672   5.598   4.717   3.238 -0.1665  0.4300  0.1967
26245SOL    HW183673   5.666   4.719   3.305  0.8310 -1.4306 -0.6584
26245SOL    HW283674   5.527   4.665   3.277  0.0476  0.0926  0.1467
26246SOL     OW83675   4.178   2.399   8.840  0.4661 -0.0057 -0.4965
26246SOL    HW183676   4.226   2.481   8.832 -0.2168  0.5937  1.1280
26246SOL    HW283677   4.216   2.356   8.916  0.0362 -0.6411 -0.6369
26247SOL     OW83678   6.319  11.592   7.733 -0.1144 -0.3931 -0.6089
26247SOL    HW183679   6.310  11.500   7.709  1.5575 -0.9859  0.8087
26247SOL    HW283680   6.331  11.591   7.828  1.0652  1.1882 -0.6990
26248SOL     OW83681   5.104   3.173   1.709  0.5070  0.1849  0.0965
26248SOL    HW183682   5.018   3.151   1.675  1.3289 -2.7136 -0.4492
26248SOL    HW283683   5.118   3.110   1.780  2.3829  0.1621 -0.2343
26249SOL     OW83684  11.220   9.345   8.235  0.3210 -0.3721 -0.0099
26249SOL    HW183685  11.315   9.335   8.232  0.6822  0.7319  3.2332
26249SOL    HW283686  11.188   9.259   8.261  0.9297  0.0950  2.6674
26250SOL     OW83687   1.080   4.535   3.794  0.3805  0.2274  0.4338
26250SOL    HW183688   1.175   4.531   3.787  0.2342 -0.9057 -1.5916
26250SOL    HW283689   1.057   4.618   3.751  0.3632 -0.4243 -0.8668
26251SOL     OW83690   6.649   5.184   1.229 -0.4649  0.1602 -0.0738
26251SOL    HW183691   6.666   5.144   1.144 -0.8577  1.7777 -0.9424
26251SOL    HW283692   6.579   5.131   1.267  0.4039 -1.1890 -0.2778
26252SOL     OW83693   7.518   8.476   2.354 -0.0067  0.1013  0.3062
26252SOL    HW183694   7.613   8.475   2.364 -0.0465  0.5482  0.8336
26252SOL    HW283695   7.494   8.566   2.377 -0.3905  0.4904 -1.4888
26253SOL     OW83696   1.676   4.840   6.397 -0.0639  0.0472  0.1779
26253SOL    HW183697   1.670   4.755   6.439  1.2599  0.5494  1.4923
26253SOL    HW283698   1.602   4.843   6.337 -2.6460 -0.3477  3.1276
26254SOL     OW83699  11.355  10.062   9.752 -0.7614 -0.1094  0.1001
26254SOL    HW183700  11.405   9.983   9.730  0.1303  0.4832 -0.0221
26254SOL    HW283701  11.300  10.077   9.675 -1.1070 -0.7357  0.2148
26255SOL     OW83702   9.517   7.656   7.913 -0.3273 -0.9856  0.5616
26255SOL    HW183703   9.602   7.675   7.874 -1.0305  0.8261 -0.1860
26255SOL    HW283704   9.530   7.668   8.007  0.0361  0.2670  0.3712
26256SOL     OW83705   3.683   0.275   8.657  0.3328 -0.1271 -0.3041
26256SOL    HW183706   3.589   0.294   8.658  0.4777  0.6124  0.6081
26256SOL    HW283707   3.720   0.343   8.602  0.3715 -0.2094 -0.3790
26257SOL     OW83708   0.315   1.559  10.730 -0.1172  0.5265  0.5903
26257SOL    HW183709   0.406   1.563  10.699  0.0857 -0.7709  0.9390
26257SOL    HW283710   0.321   1.518  10.817 -1.1044 -0.5668  0.1788
26258SOL     OW83711  11.313   4.009   9.338  0.2042 -0.0446 -0.4123
26258SOL    HW183712  11.316   4.021   9.243 -0.3177 -1.2922 -0.6015
26258SOL    HW283713  11.252   4.077   9.368  1.2133  1.0826 -0.8173
26259SOL     OW83714   1.909  11.606  10.464 -0.0663 -0.0284  0.9316
26259SOL    HW183715   1.960  11.687  10.467 -0.5224  0.3276 -0.6152
26259SOL    HW283716   1.913  11.573  10.554 -0.3874  2.0172  1.7508
26260SOL     OW83717   8.755   5.445   4.028  0.7444  0.1842  0.5171
26260SOL    HW183718   8.697   5.443   4.104 -0.2902  0.0420 -0.2584
26260SOL    HW283719   8.832   5.493   4.058  1.6005 -2.1947  2.5120
26261SOL     OW83720   5.735   0.334   6.243  0.0580  0.2307 -0.7686
26261SOL    HW183721   5.679   0.411   6.247  0.9393  1.1384 -3.4804
26261SOL    HW283722   5.815   0.365   6.201  0.8248 -1.9580 -1.0581
26262SOL     OW83723   9.311   5.116   8.603 -0.4354  0.5154  0.2238
26262SOL    HW183724   9.274   5.202   8.584  0.4345  0.4081 -2.2533
26262SOL    HW283725   9.237   5.056   8.596 -0.8384  0.9202  0.9020
26263SOL     OW83726   8.014   6.716   1.678 -0.1474 -0.5363 -0.6116
26263SOL    HW183727   8.090   6.712   1.620 -0.3113 -1.6956 -0.7725
26263SOL    HW283728   7.940   6.693   1.621 -0.6171  0.4552 -0.4275
26264SOL     OW83729   1.584   4.516  11.182 -0.3383  0.3367 -0.3847
26264SOL    HW183730   1.657   4.571  11.213  2.3235 -1.8834 -2.3115
26264SOL    HW283731   1.544   4.567  11.112 -1.1129  1.8357  1.0777
26265SOL     OW83732   3.661   5.017   4.550 -0.0280 -0.1106  0.3250
26265SOL    HW183733   3.720   5.090   4.532  1.2393 -1.2625 -0.3305
26265SOL    HW283734   3.604   5.049   4.620  0.4423  1.5218  0.0011
26266SOL     OW83735   9.016   0.942   3.595 -0.3910 -0.6420 -0.1053
26266SOL    HW183736   9.033   0.989   3.513  0.5719  0.2605  0.5667
26266SOL    HW283737   9.024   0.850   3.572 -0.0519 -0.4019 -1.0193
26267SOL     OW83738   7.963   3.081   3.769  0.3574  0.0787 -0.3659
26267SOL    HW183739   8.033   3.130   3.813  0.0323  2.5746 -2.3768
26267SOL    HW283740   7.883   3.108   3.815  0.3947 -0.4925  0.0521
26268SOL     OW83741  10.985   8.185   8.645 -0.3515 -0.2114  0.1386
26268SOL    HW183742  11.019   8.183   8.555  0.6321  2.4356  0.3427
26268SOL    HW283743  11.030   8.113   8.689  0.3362 -0.5933 -1.1258
26269SOL     OW83744  10.072   9.509   8.492 -0.2114  0.5241  0.2799
26269SOL    HW183745  10.058   9.598   8.526  1.5106  0.7184  0.5292
26269SOL    HW283746  10.113   9.522   8.406 -0.8320 -0.0323 -0.1114
26270SOL     OW83747   2.253   8.210   4.018  0.2214  0.1046  0.4651
26270SOL    HW183748   2.314   8.260   4.071  1.3463 -0.3644 -0.3496
26270SOL    HW283749   2.176   8.268   4.009  0.7778  0.9477  1.0011
26271SOL     OW83750   9.881   6.072   4.241  0.0482 -0.6564 -0.2043
26271SOL    HW183751   9.883   6.159   4.201 -0.3330 -0.7766 -0.4933
26271SOL    HW283752   9.870   6.012   4.166 -1.1851 -0.8566  0.1206
26272SOL     OW83753   0.747   2.137   3.941 -0.6194  0.0359  0.2499
26272SOL    HW183754   0.742   2.118   4.035 -2.7596 -0.0426  0.1855
26272SOL    HW283755   0.786   2.059   3.902  0.4577  0.1447  1.0808
26273SOL     OW83756   3.991   7.943  10.363  0.0111 -0.6704  0.3276
26273SOL    HW183757   4.062   7.901  10.412  0.8123  0.7024  0.3998
26273SOL    HW283758   3.938   7.870  10.330  0.5199 -1.6767  1.6486
26274SOL     OW83759   0.985   0.955   9.447  0.2657 -0.4533  0.2464
26274SOL    HW183760   1.032   1.012   9.508  0.7031 -1.7258  1.1345
26274SOL    HW283761   0.907   0.927   9.495 -0.1761 -0.2640 -0.3501
26275SOL     OW83762   6.106  11.322   9.041 -1.2300  0.2008  0.1002
26275SOL    HW183763   6.152  11.316   9.124 -0.4568  0.6595 -0.2837
26275SOL    HW283764   6.016  11.299   9.061 -0.9323 -0.2237  0.9603
26276SOL     OW83765   5.913   4.713   1.734 -0.0222 -0.0756  0.3704
26276SOL    HW183766   5.896   4.636   1.680  1.0544  0.8997 -1.4358
26276SOL    HW283767   5.827   4.754   1.744 -0.3819 -0.7757  0.1905
26277SOL     OW83768   6.982  10.442   5.036  0.3079  0.9736 -0.4078
26277SOL    HW183769   6.904  10.398   5.004 -0.4934  0.9134  1.5194
26277SOL    HW283770   7.000  10.510   4.971 -2.9049  2.7233  0.3464
26278SOL     OW83771   7.412   7.676   8.212 -0.0015  0.3083 -0.9590
26278SOL    HW183772   7.352   7.660   8.284  0.2735 -1.0481 -0.9891
26278SOL    HW283773   7.373   7.747   8.162 -0.8856  0.3449 -0.2332
26279SOL     OW83774   3.756   6.891   2.860 -0.7280  0.3834 -0.1778
26279SOL    HW183775   3.715   6.854   2.938 -0.7102  0.7579  0.0116
26279SOL    HW283776   3.842   6.850   2.856 -0.5609  0.6839  0.2432
26280SOL     OW83777   1.233  11.407  11.384 -0.5542  0.3272 -0.0846
26280SOL    HW183778   1.158  11.378  11.333 -1.6336 -0.0068  1.6041
26280SOL    HW283779   1.196  11.462  11.453  0.8528  0.8697  0.2819
26281SOL     OW83780   2.957   4.845  11.305  0.3885 -0.4896 -0.1836
26281SOL    HW183781   3.023   4.785  11.271  0.9245  0.5599 -1.0528
26281SOL    HW283782   2.884   4.836  11.244  0.6252  0.0288 -0.5465
26282SOL     OW83783   6.167   3.234   9.293 -0.1813 -0.4770 -0.7258
26282SOL    HW183784   6.095   3.214   9.233  0.0579  0.2849 -1.2790
26282SOL    HW283785   6.245   3.196   9.251 -0.3499 -1.9693  0.2389
26283SOL     OW83786   2.692   9.519   9.815  0.1983 -0.6838 -0.0902
26283SOL    HW183787   2.708   9.613   9.812 -1.1388 -0.4730 -1.4660
26283SOL    HW283788   2.635   9.507   9.891 -1.3295 -0.0802 -1.1051
26284SOL     OW83789   0.697   6.651   7.729 -0.1816  0.3945  0.3504
26284SOL    HW183790   0.615   6.627   7.685 -0.1822 -0.9967  1.0388
26284SOL    HW283791   0.732   6.567   7.760  1.6598  0.9246 -0.1756
26285SOL     OW83792   6.376   5.743   1.378  0.3520  0.1019  0.3438
26285SOL    HW183793   6.383   5.836   1.358  0.5256  0.1763  0.7451
26285SOL    HW283794   6.462   5.707   1.358  0.3464  0.0650  0.3841
26286SOL     OW83795   7.702   8.636   1.440  0.4656  0.1395  0.0793
26286SOL    HW183796   7.618   8.593   1.454  1.1987 -1.0031  1.1648
26286SOL    HW283797   7.728   8.667   1.527  0.8329  1.1431 -0.3714
26287SOL     OW83798  11.404   8.934  11.030  0.6490  0.4164 -0.2240
26287SOL    HW183799  11.489   8.896  11.053  1.1503  0.3371 -2.0682
26287SOL    HW283800  11.357   8.864  10.985  0.0531  0.8116 -0.2358
26288SOL     OW83801   0.377   3.732   2.499 -0.3937 -0.1884  0.9494
26288SOL    HW183802   0.436   3.686   2.439 -0.7941  0.5630 -0.0559
26288SOL    HW283803   0.306   3.764   2.443 -1.0122  0.1596  1.9035
26289SOL     OW83804  10.109   5.425   6.825  0.0362  1.3078  0.0327
26289SOL    HW183805  10.070   5.378   6.751 -0.7598  0.5865  0.8916
26289SOL    HW283806  10.190   5.379   6.843 -1.0652 -0.2435  1.3114
26290SOL     OW83807   2.374   8.683   0.348  0.5139  0.2618 -0.0004
26290SOL    HW183808   2.413   8.711   0.265  0.0575  1.4931  0.1897
26290SOL    HW283809   2.390   8.589   0.351  2.7860  0.5790 -0.3071
26291SOL     OW83810   9.296  11.216   0.098 -0.7992 -0.2494 -0.4594
26291SOL    HW183811   9.203  11.205   0.079 -1.1195 -2.6477  1.9191
26291SOL    HW283812   9.301  11.218   0.194  1.6049 -0.2914 -0.5240
26292SOL     OW83813   5.797   5.284   1.354  0.1205  0.0605 -0.1354
26292SOL    HW183814   5.737   5.357   1.339  0.3941  0.2683 -0.2102
26292SOL    HW283815   5.872   5.301   1.297  0.9231  0.5744  1.0417
26293SOL     OW83816   2.180  11.488   0.456 -0.1672 -0.4449  0.3632
26293SOL    HW183817   2.132  11.443   0.525 -2.2827  1.0446 -0.0258
26293SOL    HW283818   2.239  11.548   0.502 -1.4960  0.4720  0.9492
26294SOL     OW83819   5.743   4.347   4.656  0.8296 -0.1468 -0.0971
26294SOL    HW183820   5.663   4.350   4.603  0.7237 -2.0431 -0.0884
26294SOL    HW283821   5.713   4.338   4.746  1.0463  1.5067  0.1783
26295SOL     OW83822   8.307   0.835   0.988  0.4532  0.3741 -0.5231
26295SOL    HW183823   8.273   0.920   0.960  0.0262  0.2070 -0.5133
26295SOL    HW283824   8.232   0.776   0.984  0.7968 -0.0511 -0.7217
26296SOL     OW83825   3.018   7.544   9.424  0.9182 -0.2705  0.0323
26296SOL    HW183826   2.981   7.456   9.435 -0.9724  0.5403  0.4774
26296SOL    HW283827   2.945   7.603   9.439  1.8899  1.3823 -1.3795
26297SOL     OW83828   3.833   1.611   7.548  0.9240  0.2928 -0.5138
26297SOL    HW183829   3.803   1.638   7.635 -1.2446  0.1011 -1.1569
26297SOL    HW283830   3.778   1.660   7.487  0.6542 -1.4408 -1.7410
26298SOL     OW83831   6.191   1.970   2.877 -0.4584  0.0881  0.0875
26298SOL    HW183832   6.228   1.997   2.961 -1.4299  3.2142 -0.3294
26298SOL    HW283833   6.096   1.969   2.892 -0.5599 -1.0289 -0.5501
26299SOL     OW83834   8.053  10.204   0.704  0.1552 -0.0567 -0.6609
26299SOL    HW183835   8.052  10.204   0.608  1.7515  0.9198 -0.7089
26299SOL    HW283836   7.961  10.196   0.728 -0.3168  0.0113 -2.2714
26300SOL     OW83837   6.305   5.455   6.938  0.3937  0.1915 -0.3527
26300SOL    HW183838   6.396   5.469   6.910  1.1954 -0.3395  1.7744
26300SOL    HW283839   6.270   5.392   6.875  1.0402  1.3942 -1.9986
26301SOL     OW83840   9.792   7.751  10.189  0.3078  0.0014  0.2812
26301SOL    HW183841   9.757   7.788  10.108  1.8556  1.0743  0.0559
26301SOL    HW283842   9.870   7.703  10.161 -0.2063 -1.2383  0.9197
26302SOL     OW83843   8.240   3.672   8.747 -0.1620  0.4197 -0.3036
26302SOL    HW183844   8.232   3.765   8.727  0.2591  0.8010  1.1940
26302SOL    HW283845   8.332   3.660   8.770 -0.3238 -0.2514  0.0160
26303SOL     OW83846   6.433   6.183   2.188 -0.2071  0.8380  0.2125
26303SOL    HW183847   6.456   6.210   2.277  0.6140 -0.3630  0.3710
26303SOL    HW283848   6.508   6.133   2.157 -0.0661  2.0390 -1.5345
26304SOL     OW83849  11.610   2.003   5.179  0.1584 -0.0085 -0.1646
26304SOL    HW183850  11.647   2.091   5.176  0.6016 -0.1917 -0.1655
26304SOL    HW283851  11.626   1.967   5.091  0.8065 -0.4206  0.1157
26305SOL     OW83852   8.804   0.733   7.782  0.0764  0.4100 -0.0756
26305SOL    HW183853   8.806   0.654   7.728  2.0467  0.3200  0.0384
26305SOL    HW283854   8.893   0.740   7.817  0.3977  3.4227 -1.1834
26306SOL     OW83855   8.682   6.732  10.412 -0.0562  0.7217  0.0560
26306SOL    HW183856   8.769   6.756  10.381 -0.1434  0.0488 -0.7309
26306SOL    HW283857   8.698   6.686  10.494  0.3379  0.4586 -0.1677
26307SOL     OW83858   7.762   7.548   9.487 -0.5586  0.0485 -0.0932
26307SOL    HW183859   7.824   7.575   9.554  1.8032 -1.6673 -1.4514
26307SOL    HW283860   7.677   7.581   9.518  0.7821  1.3330  2.5009
26308SOL     OW83861   7.196   9.687   0.754 -0.5651  0.5358  0.0521
26308SOL    HW183862   7.279   9.720   0.790 -1.6695  2.2263  1.1704
26308SOL    HW283863   7.193   9.723   0.666  1.7305 -2.8967 -1.6841
26309SOL     OW83864   9.617   5.229   9.145  0.0729  0.2610 -0.5405
26309SOL    HW183865   9.550   5.163   9.128  1.2152 -0.7572 -1.1427
26309SOL    HW283866   9.697   5.195   9.105  1.0987  1.2012  0.6083
26310SOL     OW83867   7.954   3.435   3.851  0.4937  0.0150  0.0937
26310SOL    HW183868   8.019   3.365   3.851  0.1837 -0.2769 -0.0187
26310SOL    HW283869   8.005   3.516   3.863  0.8254 -0.2574  0.5834
26311SOL     OW83870  11.138   9.674   1.372  0.2424  0.9144  0.0709
26311SOL    HW183871  11.229   9.656   1.394  0.1995 -0.0317 -0.4745
26311SOL    HW283872  11.100   9.709   1.453  1.1445  1.5421  0.2285
26312SOL     OW83873   4.083   9.584   3.033  0.0763 -0.0900 -0.4156
26312SOL    HW183874   4.173   9.617   3.034 -0.4074  1.3009  0.5768
26312SOL    HW283875   4.049   9.606   3.120 -0.8036 -1.8435 -0.2723
26313SOL     OW83876   1.738   6.204  10.459 -0.2779 -0.1902  0.7455
26313SOL    HW183877   1.726   6.110  10.443  1.0571 -0.5585  1.6932
26313SOL    HW283878   1.652   6.242  10.446 -1.2276 -1.8007  1.9394
26314SOL     OW83879   0.256   8.918   2.424 -0.0988 -0.1341 -0.0191
26314SOL    HW183880   0.221   8.959   2.344  0.5203  1.3851  0.4574
26314SOL    HW283881   0.339   8.963   2.439  0.8532 -1.9255  0.2960
26315SOL     OW83882   4.294  11.200   2.670  0.4412  0.1807  0.0654
26315SOL    HW183883   4.287  11.208   2.765 -0.9206 -0.3534  0.0271
26315SOL    HW283884   4.381  11.235   2.649  1.9366 -2.1695  1.7830
26316SOL     OW83885   3.709  11.066   3.775  0.0031  0.6454 -0.3350
26316SOL    HW183886   3.767  10.995   3.802 -0.6972 -0.4425 -1.5433
26316SOL    HW283887   3.763  11.145   3.778  1.4995 -0.3050 -1.2648
26317SOL     OW83888   0.923   7.323   3.948 -0.3131  0.1822  0.2771
26317SOL    HW183889   0.873   7.397   3.982  1.0315  0.9211  0.7528
26317SOL    HW283890   0.890   7.247   3.996 -2.2067  0.3174 -0.7246
26318SOL     OW83891   5.733  10.166   9.770  0.5763  0.0285  0.5733
26318SOL    HW183892   5.644  10.165   9.804  0.5005 -1.7238  0.4413
26318SOL    HW283893   5.779  10.100   9.822  1.5005  0.1323 -0.0854
26319SOL     OW83894   7.064  10.106   7.944  0.0263 -0.2798 -0.5743
26319SOL    HW183895   7.015  10.136   7.868 -0.4267  0.4634 -0.0049
26319SOL    HW283896   7.154  10.130   7.926 -0.5466  3.4431  0.7398
26320SOL     OW83897  11.110   5.312   2.961  0.3219  0.2440 -0.5015
26320SOL    HW183898  11.015   5.297   2.962  0.0645  1.7234  0.3559
26320SOL    HW283899  11.140   5.277   3.045  0.6224 -0.6796 -0.9884
26321SOL     OW83900   8.678   6.752   4.450  0.5491  0.4813 -0.2397
26321SOL    HW183901   8.689   6.794   4.365 -1.2502 -0.4742 -1.0021
26321SOL    HW283902   8.700   6.660   4.435 -2.5566 -0.3335 -0.5061
26322SOL     OW83903  11.281  10.034   6.970  0.3435 -0.1680  0.0134
26322SOL    HW183904  11.374  10.038   6.945  0.4738 -0.4102  0.4455
26322SOL    HW283905  11.245   9.964   6.916 -0.1306  1.3926 -1.8217
26323SOL     OW83906   5.266   0.768   2.972  0.1362 -0.0580 -0.4422
26323SOL    HW183907   5.207   0.705   3.013 -1.3435  1.7399  0.3574
26323SOL    HW283908   5.211   0.815   2.909  1.0000  0.9050 -0.5073
26324SOL     OW83909   5.668  10.802   3.498 -0.0917  0.7557  0.0211
26324SOL    HW183910   5.700  10.718   3.466  0.0874  0.5570  0.7011
26324SOL    HW283911   5.601  10.779   3.562  0.5818  1.1072  0.8634
26325SOL     OW83912   1.196   1.321   3.235 -0.0070  0.0402  0.0146
26325SOL    HW183913   1.170   1.348   3.147 -0.6861  2.0483  0.7648
26325SOL    HW283914   1.291   1.331   3.236  0.0206 -0.1222 -0.5229
26326SOL     OW83915  10.271   0.392   2.166  0.3017  0.1848 -0.0323
26326SOL    HW183916  10.263   0.312   2.218 -0.6175  1.1134  1.3188
26326SOL    HW283917  10.293   0.460   2.230  0.5515  1.1217 -1.0742
26327SOL     OW83918  10.218   1.055   3.156 -0.0596 -0.0230 -0.5804
26327SOL    HW183919  10.162   1.133   3.148  0.9030  1.0262  1.9912
26327SOL    HW283920  10.264   1.050   3.072 -0.1264  2.2378 -0.8134
26328SOL     OW83921   8.454   7.667   5.611  0.4194 -0.3119 -0.1167
26328SOL    HW183922   8.374   7.653   5.561  1.4510  0.6813 -2.1633
26328SOL    HW283923   8.498   7.740   5.568  1.2897  0.8045  2.4379
26329SOL     OW83924   2.326   7.948   1.277 -0.2313  0.1731  0.8101
26329SOL    HW183925   2.354   7.904   1.357  0.6375 -0.8934 -0.0554
26329SOL    HW283926   2.401   8.001   1.251 -0.6529  0.8238  0.9055
26330SOL     OW83927   3.118   6.511   2.668 -0.1310  0.0439 -0.1551
26330SOL    HW183928   3.099   6.603   2.684 -1.4884  0.0935 -1.8417
26330SOL    HW283929   3.036   6.465   2.688 -0.2021 -0.4962 -1.5866
26331SOL     OW83930   1.964   6.160  11.218 -0.5002 -0.4007  0.0465
26331SOL    HW183931   1.987   6.235  11.163  0.4163 -0.6588  0.0556
26331SOL    HW283932   1.978   6.190  11.308 -0.1002 -0.5869  0.0489
26332SOL     OW83933   8.687   3.937   8.324  0.0247 -0.1356  0.1367
26332SOL    HW183934   8.772   3.979   8.342  0.5481  0.1731 -2.6069
26332SOL    HW283935   8.671   3.881   8.400  2.7768 -0.3035  0.6901
26333SOL     OW83936   4.421   5.809  10.967  0.6456  0.5115  0.4999
26333SOL    HW183937   4.377   5.865  10.903  0.4777 -0.5020 -0.3095
26333SOL    HW283938   4.438   5.866  11.042 -0.2375  1.4232  0.0294
26334SOL     OW83939   3.341   4.089   4.275 -0.3959 -0.1615 -0.2376
26334SOL    HW183940   3.289   4.133   4.342 -0.9665 -0.0435 -0.7496
26334SOL    HW283941   3.386   4.160   4.228  2.2069 -0.3444  1.7256
26335SOL     OW83942   9.165   6.951   4.256 -0.0069 -0.0658  0.3477
26335SOL    HW183943   9.089   6.929   4.202  0.8356 -0.4562 -0.7122
26335SOL    HW283944   9.210   6.868   4.270  1.2261  0.3973 -0.6233
26336SOL     OW83945   9.925   2.753   6.814  0.3379  0.3484 -0.3217
26336SOL    HW183946   9.843   2.762   6.862 -0.6804 -0.1078 -1.9139
26336SOL    HW283947   9.988   2.723   6.880 -0.8304  0.3776  0.8501
26337SOL     OW83948   3.903   3.792  10.921  0.1106  0.1563 -0.0006
26337SOL    HW183949   3.933   3.711  10.880  2.4536  1.4038 -0.9627
26337SOL    HW283950   3.876   3.767  11.009 -0.5249 -1.8498 -0.7247
26338SOL     OW83951   9.759   4.639   0.941  0.1740  0.1506  0.2526
26338SOL    HW183952   9.791   4.615   0.854  0.6233 -0.0646  0.4763
26338SOL    HW283953   9.747   4.555   0.986  0.5318  0.2851  0.6034
26339SOL     OW83954  10.504   5.103   4.933  0.0176 -0.1556 -0.4896
26339SOL    HW183955  10.549   5.123   5.015  0.1176 -1.5515 -0.1867
26339SOL    HW283956  10.573   5.073   4.874 -0.3645 -1.4843 -0.2941
26340SOL     OW83957   6.088  11.316   5.093 -0.2060  0.0498 -0.1431
26340SOL    HW183958   6.090  11.227   5.129  0.0422 -0.2890 -0.9607
26340SOL    HW283959   5.999  11.325   5.058 -1.0691  1.0560  2.1477
26341SOL     OW83960   1.073  10.503  11.004  0.4044 -0.3319  0.0171
26341SOL    HW183961   1.002  10.498  11.068 -0.4093  0.2818 -0.8198
26341SOL    HW283962   1.110  10.415  11.003 -2.0460 -1.4670 -1.4106
26342SOL     OW83963   2.652   8.682   8.356 -0.1456  0.2124 -0.0812
26342SOL    HW183964   2.681   8.769   8.328 -1.5684  0.9867  0.7105
26342SOL    HW283965   2.605   8.647   8.280 -0.0335  0.3607 -0.2207
26343SOL     OW83966   8.268   0.040  10.586  0.1160 -0.4188 -0.0172
26343SOL    HW183967   8.268   0.112  10.649  0.5220 -0.8891  0.5327
26343SOL    HW283968   8.246   0.081  10.503  0.0021  0.2834  0.3503
26344SOL     OW83969  10.552   4.811   2.628  0.1374 -0.6405 -0.0121
26344SOL    HW183970  10.633   4.760   2.632  1.3995  1.2979  2.4310
26344SOL    HW283971  10.517   4.808   2.717  0.2101  2.4852  0.2403
26345SOL     OW83972   0.421  11.056   2.727 -0.1794 -0.1655 -0.2105
26345SOL    HW183973   0.483  10.996   2.768 -1.3264 -0.1409  1.6834
26345SOL    HW283974   0.460  11.142   2.739  0.1189 -0.2819 -0.3387
26346SOL     OW83975   8.669   2.729   3.983  0.3170 -0.0087  0.2960
26346SOL    HW183976   8.601   2.786   3.945 -0.9214 -0.8794  1.1208
26346SOL    HW283977   8.633   2.641   3.974  2.0072 -0.6454 -0.5485
26347SOL     OW83978   7.641   4.619   3.532 -0.1574 -0.5317 -0.2677
26347SOL    HW183979   7.644   4.548   3.597  2.7448 -1.5744 -1.4147
26347SOL    HW283980   7.722   4.611   3.483 -0.4196  2.7046 -1.4646
26348SOL     OW83981   8.353  10.652   8.868 -0.1462 -0.3494 -0.0622
26348SOL    HW183982   8.269  10.670   8.825 -0.3266 -0.3411  0.2887
26348SOL    HW283983   8.418  10.660   8.799 -0.3077  0.8442 -0.0907
26349SOL     OW83984   9.441  10.867   0.613 -0.5028 -0.4638  0.9097
26349SOL    HW183985   9.446  10.785   0.564  1.5989  0.0845  0.1107
26349SOL    HW283986   9.531  10.899   0.618 -1.1597  1.4768  1.7860
26350SOL     OW83987   2.158   5.384   4.441  0.0741  0.0023  0.3534
26350SOL    HW183988   2.239   5.349   4.404  0.2752  0.0214  0.7715
26350SOL    HW283989   2.186   5.432   4.518 -0.2102  1.0250 -0.1678
26351SOL     OW83990   4.394   1.090   7.711  0.5231 -0.0413 -0.4719
26351SOL    HW183991   4.430   1.178   7.703  3.5305 -1.1250 -0.2871
26351SOL    HW283992   4.432   1.042   7.637 -0.2765 -1.4151 -0.0276
26352SOL     OW83993   8.230   7.057   8.976 -0.3772  0.1278  0.3440
26352SOL    HW183994   8.255   7.051   8.884 -0.9370  1.5027  0.0750
26352SOL    HW283995   8.249   6.970   9.012 -1.7552 -1.0053 -1.4601
26353SOL     OW83996   2.449   5.726   0.188 -0.1809  0.9222 -0.1734
26353SOL    HW183997   2.356   5.749   0.185 -0.5004  0.7444  3.5413
26353SOL    HW283998   2.450   5.630   0.178 -0.6655  0.6987  1.5504
26354SOL     OW83999   0.566   5.772   3.816 -0.4672  0.1283 -0.0229
26354SOL    HW184000   0.521   5.829   3.877 -0.4965 -0.4789  0.5380
26354SOL    HW284001   0.525   5.686   3.828  2.2018 -1.0271  2.1253
26355SOL     OW84002   1.848   0.245   5.571  0.2423 -0.4796  0.1018
26355SOL    HW184003   1.907   0.209   5.637 -0.7699 -3.0909 -0.3081
26355SOL    HW284004   1.906   0.290   5.509  1.9322 -3.1556 -0.4246
26356SOL     OW84005  10.315   5.410   9.467  0.0338 -0.4259 -0.3187
26356SOL    HW184006  10.341   5.443   9.381 -1.4585 -1.1267 -1.0829
26356SOL    HW284007  10.231   5.451   9.485  0.7055  0.3598  1.2210
26357SOL     OW84008   8.540   3.856  11.612 -0.1709 -0.7009 -0.6140
26357SOL    HW184009   8.558   3.793  11.542 -3.7148 -0.9802 -1.4747
26357SOL    HW284010   8.511   3.803  11.686 -0.3640 -0.1974 -0.3194
26358SOL     OW84011   5.568   1.151  11.295  0.0274 -0.1666  0.1140
26358SOL    HW184012   5.515   1.231  11.295  0.7279  0.3214 -0.6170
26358SOL    HW284013   5.601   1.145  11.205 -0.5174 -1.6225 -0.0020
26359SOL     OW84014  11.093  11.411   7.116 -0.5732 -0.6192 -0.8997
26359SOL    HW184015  11.133  11.496   7.134  0.2311 -0.9072 -1.2693
26359SOL    HW284016  11.130  11.385   7.031  0.1332 -1.8839 -0.2376
26360SOL     OW84017   7.019  11.102   4.861 -0.4052 -0.3696  0.3831
26360SOL    HW184018   7.022  11.158   4.783 -0.4571  0.3120  0.8579
26360SOL    HW284019   7.106  11.112   4.900 -0.4173 -0.6254  0.4718
26361SOL     OW84020   2.116   1.477  11.508  0.0316  0.2025 -0.7223
26361SOL    HW184021   2.151   1.556  11.547 -1.6188  1.2408 -1.2435
26361SOL    HW284022   2.021   1.492  11.503 -0.3011 -1.6848 -1.0885
26362SOL     OW84023   7.512   5.214   9.603 -0.3211 -0.3681  0.1307
26362SOL    HW184024   7.452   5.143   9.578 -1.0674 -0.3243  1.6942
26362SOL    HW284025   7.598   5.171   9.608 -0.6530 -1.0167  0.4069
26363SOL     OW84026   4.677  10.110   6.552 -0.2280  0.4080 -0.0259
26363SOL    HW184027   4.582  10.123   6.547 -0.1390  0.9302 -0.4014
26363SOL    HW284028   4.690  10.060   6.632 -0.7758  0.7335  0.2704
26364SOL     OW84029   2.981   6.105  10.162 -0.7123 -0.2492 -0.3518
26364SOL    HW184030   2.921   6.124  10.235 -0.6812 -0.2048 -0.3379
26364SOL    HW284031   2.939   6.032  10.116 -0.1917 -1.0126  0.3447
26365SOL     OW84032   6.003   9.256   6.405  0.6190  0.0845  0.6776
26365SOL    HW184033   6.023   9.169   6.371  1.4920  0.7608 -0.6122
26365SOL    HW284034   5.915   9.274   6.374  1.1628  0.4300 -0.7287
26366SOL     OW84035   2.467   0.106   4.156 -0.7258 -0.3985  0.2270
26366SOL    HW184036   2.471   0.201   4.143 -0.0999 -0.6670 -1.9697
26366SOL    HW284037   2.388   0.092   4.207 -0.1747  1.3819  1.6948
26367SOL     OW84038   5.915   8.106   0.646 -0.2278  0.1900  0.4165
26367SOL    HW184039   5.873   8.021   0.636  0.2252 -0.2136  1.7441
26367SOL    HW284040   5.965   8.117   0.565  0.8745 -1.5011  0.7987
26368SOL     OW84041   2.753   4.643   8.661  0.1493 -0.0530  0.2220
26368SOL    HW184042   2.715   4.631   8.574  0.8312  1.9966 -0.4080
26368SOL    HW284043   2.692   4.599   8.720  0.3238 -2.6370 -1.3517
26369SOL     OW84044   2.349   3.198   2.276 -0.4377  0.0529 -0.0807
26369SOL    HW184045   2.412   3.157   2.217  0.1852 -0.8399  1.1579
26369SOL    HW284046   2.283   3.237   2.218  0.4951 -0.2116 -1.3606
26370SOL     OW84047   8.423   8.036   6.676  0.1472  0.4708  0.4608
26370SOL    HW184048   8.378   8.007   6.597  1.8368  1.6098 -1.0127
26370SOL    HW284049   8.376   8.115   6.703 -0.0724  0.4189  0.2374
26371SOL     OW84050   1.949   8.145   7.492 -0.1491  0.1188  0.1494
26371SOL    HW184051   2.025   8.097   7.458  0.2127  1.0823 -0.4537
26371SOL    HW284052   1.894   8.161   7.415 -0.1856  0.7929  0.3061
26372SOL     OW84053   4.868   6.981   9.487  0.0209 -0.5381  0.4451
26372SOL    HW184054   4.811   6.933   9.427  1.3758 -0.5970 -0.8617
26372SOL    HW284055   4.843   6.951   9.574 -3.4278  1.0358  0.1680
26373SOL     OW84056   0.459   0.094   9.127  0.4089 -0.4415 -0.6434
26373SOL    HW184057   0.492   0.176   9.165 -1.3166  0.1960 -0.4268
26373SOL    HW284058   0.532   0.033   9.137  1.4221  0.8056  0.0458
26374SOL     OW84059   2.085   3.312   6.846  0.2592  0.0385 -0.1253
26374SOL    HW184060   2.092   3.292   6.753 -1.9565  1.7013 -0.7369
26374SOL    HW284061   2.122   3.236   6.890  0.9274 -1.0025 -2.3501
26375SOL     OW84062   1.164   3.817  10.790 -0.0679 -0.5226  0.0486
26375SOL    HW184063   1.132   3.731  10.761  1.0365 -0.7204 -0.6168
26375SOL    HW284064   1.259   3.809  10.788  0.0813  1.1013 -1.2130
26376SOL     OW84065  11.051   6.151   5.607  0.0300 -0.0923 -0.0952
26376SOL    HW184066  11.014   6.091   5.543 -1.5597  1.1104 -0.3737
26376SOL    HW284067  10.975   6.195   5.645  0.9578 -0.3152  2.1941
26377SOL     OW84068   6.573   8.517   6.134 -0.1692  0.3410  0.0441
26377SOL    HW184069   6.621   8.571   6.197 -2.1340 -0.3076  2.2744
26377SOL    HW284070   6.506   8.577   6.098  0.6188  0.5715 -1.0808
26378SOL     OW84071   4.313  11.083   1.611  0.3509 -0.2869  0.0715
26378SOL    HW184072   4.279  11.050   1.694  0.7414 -1.1954 -0.1145
26378SOL    HW284073   4.311  11.007   1.553  1.1529  0.0480 -0.4108
26379SOL     OW84074   4.482  11.606  10.841  0.3049  0.4187 -0.3770
26379SOL    HW184075   4.512  11.550  10.769  0.9200 -0.3562  0.4666
26379SOL    HW284076   4.558  11.615  10.898  0.1047  1.8186 -0.2936
26380SOL     OW84077  10.406   5.417  11.082 -0.1464 -0.3581  0.4060
26380SOL    HW184078  10.424   5.339  11.134 -0.8290  0.8160  2.5317
26380SOL    HW284079  10.424   5.490  11.141  0.1401  1.1147 -1.4044
26381SOL     OW84080   2.353   9.568  11.209 -0.3696 -0.0195 -0.1086
26381SOL    HW184081   2.321   9.524  11.131  0.4262  0.1166 -0.5195
26381SOL    HW284082   2.361   9.498  11.274  0.0594 -0.3410 -0.4977
26382SOL     OW84083   3.539  11.444   5.287  0.1740 -0.3985 -0.2347
26382SOL    HW184084   3.578  11.530   5.302  1.1970 -0.9897  0.6309
26382SOL    HW284085   3.447  11.462   5.267  0.1686  0.8390  0.8172
26383SOL     OW84086   9.731   6.637   5.013 -0.0517  0.3978 -0.0783
26383SOL    HW184087   9.653   6.583   4.997 -0.1849  0.4948  0.2338
26383SOL    HW284088   9.706   6.724   4.983  0.0897  0.3361 -0.3825
26384SOL     OW84089  10.443   9.949  10.778 -0.1323 -0.2131  0.5421
26384SOL    HW184090  10.399  10.026  10.815  1.4214  1.5142 -0.9940
26384SOL    HW284091  10.431   9.959  10.683  0.3138 -1.7650  0.2980
26385SOL     OW84092   5.233   3.270   4.298 -0.0238  0.5489  0.0017
26385SOL    HW184093   5.247   3.338   4.363 -0.4994 -0.6296  1.3883
26385SOL    HW284094   5.138   3.255   4.299  0.2309 -1.3061  1.0098
26386SOL     OW84095   7.069  10.481   1.959  0.0145  0.6520 -0.2822
26386SOL    HW184096   7.134  10.545   1.931  0.4898  1.0625  1.6010
26386SOL    HW284097   7.104  10.446   2.041 -2.3149  1.1608  1.0109
26387SOL     OW84098   4.349   2.852  11.440  0.6084 -0.1834 -0.1351
26387SOL    HW184099   4.296   2.905  11.499  0.2301 -1.0699  0.3438
26387SOL    HW284100   4.305   2.767  11.438  0.9354 -0.3465 -1.2449
26388SOL     OW84101  11.198   6.134   6.840 -0.5310 -0.3523  0.1582
26388SOL    HW184102  11.250   6.203   6.797 -1.3624 -0.1844 -0.6142
26388SOL    HW284103  11.260   6.089   6.896  0.7773 -0.9465 -1.6603
26389SOL     OW84104  10.656   1.716   2.938  0.2558 -0.1204  0.2576
26389SOL    HW184105  10.622   1.690   3.024 -1.4085  0.8422 -0.0554
26389SOL    HW284106  10.618   1.803   2.923  1.1947  0.0918 -1.1009
26390SOL     OW84107   0.828  10.667  10.312  0.1819  0.0091  0.1627
26390SOL    HW184108   0.869  10.673  10.226 -2.0581 -0.8903 -1.0613
26390SOL    HW284109   0.739  10.699  10.298 -0.0301  0.5502  2.3496
26391SOL     OW84110  10.581   3.385  10.506  0.2553 -0.3449  0.2881
26391SOL    HW184111  10.612   3.345  10.425 -0.2422 -0.4955  0.1686
26391SOL    HW284112  10.591   3.479  10.492 -0.9972 -0.2985 -0.4500
26392SOL     OW84113   4.468   9.892   2.686  0.3144  0.0138 -0.1076
26392SOL    HW184114   4.539   9.854   2.635 -0.2900 -0.5296 -0.5552
26392SOL    HW284115   4.390   9.882   2.631 -0.1677  0.3245  0.4990
26393SOL     OW84116   5.727   7.059   1.542  0.0725  0.2492  0.0110
26393SOL    HW184117   5.760   7.147   1.529 -0.8950  0.3581 -2.1391
26393SOL    HW284118   5.763   7.032   1.626  1.3259  2.2455  0.1789
26394SOL     OW84119   1.854   0.473   8.026  0.2396  0.0213 -0.0746
26394SOL    HW184120   1.808   0.482   8.110  0.4830  1.2334 -0.0550
26394SOL    HW284121   1.933   0.424   8.047 -0.2773 -0.7249  0.1756
26395SOL     OW84122   6.520  10.364   6.278  0.8195 -0.0673 -0.0004
26395SOL    HW184123   6.434  10.336   6.249  0.8199 -0.4132  0.3192
26395SOL    HW284124   6.503  10.422   6.352  0.9078 -1.9397  1.5631
26396SOL     OW84125   1.855   4.654   9.935  0.2015  0.2426 -0.1529
26396SOL    HW184126   1.906   4.630  10.012 -1.4226 -0.2651  0.8179
26396SOL    HW284127   1.780   4.702   9.970 -0.8556 -0.4665 -1.3477
26397SOL     OW84128   5.315   2.760   2.217 -0.1556  0.4091 -0.5794
26397SOL    HW184129   5.312   2.676   2.262  0.2688 -1.2048 -3.3080
26397SOL    HW284130   5.325   2.737   2.124  0.1062  3.4861 -1.4298
26398SOL     OW84131  10.508   6.992   4.763  0.0172  0.2169  0.3358
26398SOL    HW184132  10.532   7.073   4.717 -0.7544 -0.0114 -0.5029
26398SOL    HW284133  10.424   6.967   4.725 -1.1273  0.4899  2.4988
26399SOL     OW84134   8.366   0.334   9.694  0.0479  0.0610 -0.8860
26399SOL    HW184135   8.423   0.320   9.619  1.2748  0.2815 -0.0248
26399SOL    HW284136   8.304   0.261   9.691  1.1295 -0.8724 -1.1566
26400SOL     OW84137   6.035  10.812   9.709 -0.3353 -0.2955  0.4166
26400SOL    HW184138   6.093  10.765   9.650 -2.1600 -0.7073 -1.1599
26400SOL    HW284139   6.087  10.885   9.741  1.1479 -0.8566 -0.6097
26401SOL     OW84140   6.211   1.619   6.579  0.3674 -0.0919  0.2613
26401SOL    HW184141   6.132   1.616   6.634  0.7791 -1.5385  0.8182
26401SOL    HW284142   6.200   1.698   6.527 -0.3817  0.9673  1.9342
26402SOL     OW84143   0.456   4.137   2.373  0.1931  0.5153 -0.5175
26402SOL    HW184144   0.445   4.058   2.319 -2.3450 -0.4292  1.1380
26402SOL    HW284145   0.433   4.209   2.315  1.3661 -0.0662 -1.7442
26403SOL     OW84146   7.022   7.270   7.609  0.3595 -0.3108 -0.1878
26403SOL    HW184147   7.099   7.252   7.555  0.2524 -0.2390 -0.3642
26403SOL    HW284148   7.056   7.318   7.684  0.4788 -0.2410 -0.2871
26404SOL     OW84149   8.520   9.536   1.275  0.3950  0.5944 -0.0557
26404SOL    HW184150   8.608   9.518   1.241 -0.3129 -2.0792 -0.7422
26404SOL    HW284151   8.480   9.449   1.285 -1.6838  1.6520  1.6062
26405SOL     OW84152   9.159   3.467   4.841  0.3112 -0.1977  0.2288
26405SOL    HW184153   9.221   3.537   4.822  3.7643 -3.1319 -0.4465
26405SOL    HW284154   9.115   3.450   4.758  0.8992 -0.0817 -0.1090
26406SOL     OW84155   6.916  11.084   0.220 -0.3428  0.1760  0.2232
26406SOL    HW184156   6.906  11.121   0.307 -3.5847 -1.7051  0.8491
26406SOL    HW284157   6.892  10.991   0.231  0.3220 -0.3994 -2.4464
26407SOL     OW84158   5.584   6.675   5.403 -0.3769 -0.1252 -0.1768
26407SOL    HW184159   5.577   6.736   5.476  1.6644  1.6174 -1.3194
26407SOL    HW284160   5.668   6.630   5.418  1.0034  1.5533 -2.2554
26408SOL     OW84161  11.337   9.674   3.067 -0.3085  0.5877 -0.7634
26408SOL    HW184162  11.396   9.599   3.077 -1.5439 -0.2402  0.5901
26408SOL    HW284163  11.266   9.657   3.129 -1.1683  2.3478 -1.2253
26409SOL     OW84164   9.035  11.195  10.049 -0.3677  0.0396  0.5259
26409SOL    HW184165   8.960  11.226  10.099 -0.4363 -0.9087  1.0402
26409SOL    HW284166   9.038  11.101  10.066 -0.9525 -0.4994 -2.0033
26410SOL     OW84167  10.046  10.974   6.841 -0.4142 -0.2867 -0.4661
26410SOL    HW184168   9.955  11.002   6.853 -0.4187 -0.6624  0.4973
26410SOL    HW284169  10.094  11.018   6.911 -0.4214 -2.6011  1.0995
26411SOL     OW84170   7.219   9.907  10.420  0.1381  0.4358 -0.4543
26411SOL    HW184171   7.169   9.870  10.347  1.0186 -1.7687 -0.0292
26411SOL    HW284172   7.153   9.940  10.481 -0.6391  1.0166 -1.5865
26412SOL     OW84173   3.268   7.505   0.765  0.6044 -0.0437 -0.2154
26412SOL    HW184174   3.229   7.547   0.842  0.5908 -1.9137  0.8497
26412SOL    HW284175   3.251   7.412   0.778  2.8361 -0.6345 -1.2238
26413SOL     OW84176   5.294  11.219   8.013  0.5107 -0.5867 -0.2946
26413SOL    HW184177   5.353  11.256   7.947  0.0345 -0.2490 -0.5430
26413SOL    HW284178   5.294  11.125   7.995 -0.1243 -0.4263 -1.2162
26414SOL     OW84179  11.077   2.788  10.439 -0.0929 -0.2099 -0.6715
26414SOL    HW184180  11.041   2.710  10.397  1.7129 -1.5100  0.0900
26414SOL    HW284181  11.003   2.826  10.487 -1.7028  0.1911 -3.2640
26415SOL     OW84182   8.893   5.641   6.005  0.1394  0.3911  0.1273
26415SOL    HW184183   8.964   5.701   6.030  1.0153  0.1089 -1.5670
26415SOL    HW284184   8.909   5.563   6.058  0.3035  0.8065  0.7103
26416SOL     OW84185   5.538   0.826   3.290  0.0599 -0.1122  0.0428
26416SOL    HW184186   5.512   0.790   3.205  1.9698  0.3288 -0.8061
26416SOL    HW284187   5.543   0.751   3.348 -0.1742 -0.5932 -0.5540
26417SOL     OW84188   9.803   7.472  11.228  0.2986  0.5991  0.8197
26417SOL    HW184189   9.893   7.491  11.203 -0.5151  0.3203 -3.0288
26417SOL    HW284190   9.758   7.556  11.222 -0.1949  0.2843 -0.1009
26418SOL     OW84191   0.015   9.490   8.892 -0.1496 -0.0197  0.2160
26418SOL    HW184192   0.093   9.446   8.924 -0.0752  0.4176  0.6495
26418SOL    HW284193  -0.034   9.513   8.971  0.9918  2.8700  0.2266
26419SOL     OW84194  10.014  10.282   9.247  0.5640 -0.3680 -0.3858
26419SOL    HW184195   9.996  10.269   9.340  1.7961 -0.0211 -0.0808
26419SOL    HW284196   9.978  10.204   9.204 -0.3580 -0.3438  0.3298
26420SOL     OW84197  11.073   8.922   8.006  0.1903  0.6072  0.0135
26420SOL    HW184198  11.068   8.917   7.910  0.6288 -1.2646  0.0539
26420SOL    HW284199  11.155   8.879   8.028 -0.4071  0.0616  1.2807
26421SOL     OW84200   7.687  10.149   5.647  0.0476 -0.2403  0.3648
26421SOL    HW184201   7.763  10.183   5.601 -0.4271  0.1177 -0.1760
26421SOL    HW284202   7.661  10.221   5.706 -0.3261 -0.0606 -0.0129
26422SOL     OW84203   5.725  10.843   4.155  0.3862 -0.1929 -0.8412
26422SOL    HW184204   5.740  10.868   4.246 -0.8032 -0.7377 -0.4694
26422SOL    HW284205   5.746  10.749   4.153 -1.3227 -0.6062 -0.6703
26423SOL     OW84206   3.471  10.898   0.346 -0.1171 -0.6515 -0.2521
26423SOL    HW184207   3.530  10.901   0.421  2.8404  0.4099 -2.4127
26423SOL    HW284208   3.474  10.807   0.317  0.2068 -0.6723 -0.1543
26424SOL     OW84209   8.451   3.361   4.911 -0.1467 -0.6422  0.0032
26424SOL    HW184210   8.514   3.431   4.927  1.2246 -1.9613  0.6206
26424SOL    HW284211   8.378   3.381   4.970  0.2488  0.2169  0.2235
26425SOL     OW84212   6.414   4.565   9.951  0.1829  0.0469  0.4416
26425SOL    HW184213   6.408   4.654   9.917 -0.8322  0.0461  0.5926
26425SOL    HW284214   6.502   4.560   9.990  0.0518  1.1548  0.9204
26426SOL     OW84215   9.401   1.569   3.570  0.0041  0.3173  0.3052
26426SOL    HW184216   9.473   1.587   3.630 -0.1741 -1.7713  1.2325
26426SOL    HW284217   9.439   1.580   3.483  0.7289  1.7286  0.7716
26427SOL     OW84218   6.020   5.421   3.405 -0.0114 -0.1607 -0.2844
26427SOL    HW184219   5.997   5.480   3.476 -1.3260 -1.1959  0.2050
26427SOL    HW284220   6.116   5.425   3.399 -0.0995  2.8135 -1.0357
26428SOL     OW84221  11.075   8.554   2.568  0.1920  0.3574  0.6049
26428SOL    HW184222  11.126   8.609   2.508  0.4677 -0.5505 -0.0109
26428SOL    HW284223  11.055   8.612   2.642  1.7338  0.8635  0.6646
26429SOL     OW84224   1.189  10.748   3.773 -0.0608 -0.5396  0.3206
26429SOL    HW184225   1.170  10.787   3.859  1.4225 -0.1977  0.5204
26429SOL    HW284226   1.220  10.660   3.793  0.5196 -0.3757  0.1600
26430SOL     OW84227  11.377  11.497   6.487  0.2602 -0.1484 -0.1416
26430SOL    HW184228  11.305  11.436   6.507  0.1356 -0.6214 -1.8436
26430SOL    HW284229  11.347  11.581   6.522 -0.7382 -0.5170 -0.0595
26431SOL     OW84230   3.704   1.730   7.748  0.3237 -0.0017 -0.0294
26431SOL    HW184231   3.639   1.729   7.818  0.1299 -1.8440 -0.2045
26431SOL    HW284232   3.774   1.786   7.782 -1.3720  2.2432  0.0678
26432SOL     OW84233   8.132   9.326   6.126 -0.2868 -0.2319  0.0536
26432SOL    HW184234   8.185   9.255   6.090  0.3201  0.1052  0.2664
26432SOL    HW284235   8.051   9.284   6.154 -0.0539 -0.7889 -0.1010
26433SOL     OW84236   7.522   9.562   4.918 -0.2488  0.3278  0.2793
26433SOL    HW184237   7.460   9.513   4.972  0.5301 -0.9554  0.0499
26433SOL    HW284238   7.468   9.604   4.851 -0.9277 -0.2972  0.4229
26434SOL     OW84239   1.464   9.563   2.035 -0.4572 -0.0677  0.3282
26434SOL    HW184240   1.463   9.481   2.083  0.3972 -0.0725  0.3562
26434SOL    HW284241   1.544   9.559   1.983 -1.4170 -0.1193 -1.2065
26435SOL     OW84242  11.243   8.402   2.331 -0.9674 -0.1838  0.2041
26435SOL    HW184243  11.296   8.452   2.393 -2.3584  0.3076  1.0272
26435SOL    HW284244  11.280   8.314   2.333 -0.3695  0.0770  0.9625
26436SOL     OW84245   5.081   6.245   7.450  0.0593 -0.0148 -0.6269
26436SOL    HW184246   5.078   6.303   7.526 -0.1300  1.1015 -1.4621
26436SOL    HW284247   5.164   6.266   7.406  0.0384 -0.4508 -0.8915
26437SOL     OW84248   7.255   1.914   1.121 -0.2733 -0.1246  0.3347
26437SOL    HW184249   7.220   2.004   1.115  1.1205  0.4273  0.1900
26437SOL    HW284250   7.219   1.881   1.203 -0.1372  0.8707  0.8149
26438SOL     OW84251   9.702   5.402   0.751 -0.0527  0.1898  0.2412
26438SOL    HW184252   9.672   5.490   0.774 -0.5356 -0.2000  1.1522
26438SOL    HW284253   9.782   5.417   0.701  0.1483  1.1366  0.8112
26439SOL     OW84254   3.861   2.449   5.888 -0.1015 -0.9910 -0.1360
26439SOL    HW184255   3.872   2.362   5.850  0.5895 -0.6212 -0.8121
26439SOL    HW284256   3.805   2.496   5.827  1.8855 -0.0445 -1.3497
26440SOL     OW84257   2.367   1.694   6.402 -0.1177 -0.7103 -0.0375
26440SOL    HW184258   2.412   1.777   6.418  0.4196 -1.2919  1.7187
26440SOL    HW284259   2.297   1.716   6.340  0.1576  0.9992  0.2136
26441SOL     OW84260   6.285   3.895   9.184 -0.0441 -0.0005 -0.1290
26441SOL    HW184261   6.227   3.961   9.221 -1.4057 -0.7298 -0.8667
26441SOL    HW284262   6.326   3.854   9.260 -0.9684  0.1220  0.4511
26442SOL     OW84263  10.277   8.823   4.061  0.2569 -0.5462  0.6385
26442SOL    HW184264  10.225   8.901   4.078  1.3590  0.2323  0.5227
26442SOL    HW284265  10.213   8.756   4.039 -0.6717  0.4611  0.2116
26443SOL     OW84266   8.715   4.725   5.147  0.2372  0.0577 -0.0006
26443SOL    HW184267   8.645   4.722   5.082 -0.8480 -3.4304  1.1164
26443SOL    HW284268   8.670   4.715   5.231  1.9662 -1.5696  0.8111
26444SOL     OW84269   1.435   1.103   2.890  0.0746  0.4464  0.1505
26444SOL    HW184270   1.514   1.052   2.903 -0.8179 -0.6911  1.4406
26444SOL    HW284271   1.425   1.152   2.972 -0.3078  0.9376 -0.1855
26445SOL     OW84272   1.269   8.627   1.539 -0.0121 -0.0842 -0.5917
26445SOL    HW184273   1.191   8.679   1.556  0.3016  0.4277 -0.6816
26445SOL    HW284274   1.277   8.625   1.444  1.5481  2.1431 -0.5814
26446SOL     OW84275   5.992   9.947   4.273 -0.7316  0.5751 -0.0604
26446SOL    HW184276   5.904   9.931   4.309 -0.2283 -2.7879 -0.0256
26446SOL    HW284277   6.051   9.929   4.346  0.0830 -0.1101 -0.8760
26447SOL     OW84278   6.625  10.822  10.680 -0.0312  0.6454  0.1451
26447SOL    HW184279   6.619  10.913  10.652 -0.7682  0.5787  0.0645
26447SOL    HW284280   6.652  10.826  10.771 -1.4150  1.0061  0.5647
26448SOL     OW84281   1.419   4.473   5.920 -0.2991  0.3291  0.6098
26448SOL    HW184282   1.399   4.543   5.982  0.2616 -0.5806  1.8567
26448SOL    HW284283   1.444   4.519   5.840  1.5502  1.6165  1.8539
26449SOL     OW84284   3.353   7.335   6.159 -0.6184  0.3022  0.2387
26449SOL    HW184285   3.422   7.326   6.093  0.1644 -1.8735  1.2616
26449SOL    HW284286   3.285   7.386   6.115 -0.7398 -2.1596 -2.8381
26450SOL     OW84287  11.140  10.424   6.332  0.0231 -0.3586 -0.7703
26450SOL    HW184288  11.173  10.351   6.280  0.1031 -0.1982 -0.9446
26450SOL    HW284289  11.215  10.483   6.340  0.1663 -0.6193 -0.0390
26451SOL     OW84290   4.049   3.916   7.535  0.0803 -0.4174  0.0097
26451SOL    HW184291   4.125   3.904   7.478 -0.1208 -1.0998 -0.1312
26451SOL    HW284292   4.035   4.010   7.537 -0.5930 -0.4318 -1.9861
26452SOL     OW84293   9.449  11.332   0.884 -0.6280 -0.3929 -0.4465
26452SOL    HW184294   9.511  11.390   0.841 -1.5822  0.8799 -0.1977
26452SOL    HW284295   9.485  11.244   0.873  1.6095  0.3558  0.3749
26453SOL     OW84296   3.477  11.156   7.184 -0.0293  0.3126  0.2461
26453SOL    HW184297   3.390  11.195   7.195  0.0282  0.6489 -0.4266
26453SOL    HW284298   3.519  11.210   7.117  0.5388 -0.1097  0.2546
26454SOL     OW84299   6.792   8.029   9.101  0.1194 -0.5730 -0.0321
26454SOL    HW184300   6.707   8.070   9.082 -1.1537 -1.6185  2.8681
26454SOL    HW284301   6.777   7.936   9.089  1.3443 -0.6714 -0.9726
26455SOL     OW84302   8.024   3.260   4.156 -0.1581  0.0894 -0.7808
26455SOL    HW184303   7.954   3.318   4.188 -0.2116  0.0959 -0.9080
26455SOL    HW284304   7.980   3.177   4.139  0.6080 -1.4320  3.4439
26456SOL     OW84305   2.324   8.653   9.751  0.0721 -0.1492 -0.2096
26456SOL    HW184306   2.284   8.640   9.837  1.2446  0.2841  0.4246
26456SOL    HW284307   2.340   8.565   9.718 -0.7406 -0.3208 -0.1680
26457SOL     OW84308   8.647   9.784   6.317  0.5712  0.4873 -0.6333
26457SOL    HW184309   8.711   9.842   6.276  1.1278  0.3032 -0.0371
26457SOL    HW284310   8.699   9.714   6.355  0.0621  0.5899  0.2770
26458SOL     OW84311  10.465   8.571   8.619  0.3200 -0.0429  0.5943
26458SOL    HW184312  10.522   8.496   8.599  1.5831  1.1492 -0.4661
26458SOL    HW284313  10.436   8.602   8.533 -0.3501  0.5629  1.0378
26459SOL     OW84314   9.811   2.457   9.629 -0.2470 -0.3681 -0.4253
26459SOL    HW184315   9.816   2.500   9.543  1.6537 -1.0470 -0.6992
26459SOL    HW284316   9.763   2.519   9.684  2.1910  2.0981 -0.8442
26460SOL     OW84317   1.390   7.935   8.419  0.1610 -0.4687  0.0284
26460SOL    HW184318   1.432   8.012   8.460  1.3257 -0.9050 -0.2893
26460SOL    HW284319   1.441   7.920   8.339 -0.5988 -1.0561 -0.3528
26461SOL     OW84320   2.834   3.798   7.483  0.3957  0.5768 -0.3924
26461SOL    HW184321   2.921   3.764   7.504  0.4109  1.4085  1.0480
26461SOL    HW284322   2.845   3.841   7.398  1.3837  0.5950 -0.2659
26462SOL     OW84323   0.105   8.900   6.084  0.1012 -0.1336 -0.2225
26462SOL    HW184324   0.099   8.904   5.989 -0.2971  0.0747 -0.1926
26462SOL    HW284325   0.033   8.956   6.115  0.4091  0.0338  0.1965
26463SOL     OW84326  11.075   4.238   8.646  0.4865  0.3195 -0.0590
26463SOL    HW184327  11.059   4.315   8.591 -0.6864 -0.0648 -0.3036
26463SOL    HW284328  11.062   4.269   8.735  0.4576  0.5105 -0.1292
26464SOL     OW84329   5.836   4.270   3.789 -0.1985 -0.0280  0.8149
26464SOL    HW184330   5.907   4.226   3.837 -0.6313 -0.6042  0.9346
26464SOL    HW284331   5.777   4.200   3.764 -0.8343  0.4778  0.8818
26465SOL     OW84332   3.719   1.688   8.043 -0.2258 -0.3948 -0.2474
26465SOL    HW184333   3.754   1.605   8.010 -0.0781  0.3458 -2.1138
26465SOL    HW284334   3.626   1.671   8.059 -0.0306 -1.1188  0.1691
26466SOL     OW84335   0.768   1.889   2.724 -0.1450  0.0602 -0.6798
26466SOL    HW184336   0.827   1.827   2.766 -0.1445  0.5204  0.0146
26466SOL    HW284337   0.726   1.935   2.796 -2.0034 -0.8462 -1.1366
26467SOL     OW84338   4.707   7.300  10.571 -0.6257 -0.2327 -0.1120
26467SOL    HW184339   4.764   7.354  10.626  2.1699 -0.8720 -2.1318
26467SOL    HW284340   4.697   7.218  10.619 -1.0401  0.4041  0.9102
26468SOL     OW84341   3.355   0.086   1.732 -0.1340 -0.0975 -0.1410
26468SOL    HW184342   3.440   0.091   1.776  0.1183  0.0500 -0.6256
26468SOL    HW284343   3.316   0.004   1.761 -0.1127  0.1480  0.5937
26469SOL     OW84344   7.909   6.792   4.608 -0.1817  0.4991 -0.0837
26469SOL    HW184345   7.938   6.751   4.527 -1.2361  1.6778 -1.1047
26469SOL    HW284346   7.950   6.879   4.607 -0.6946  0.7517  0.3461
26470SOL     OW84347   4.986   0.291   0.137  0.1885  0.2814 -0.1697
26470SOL    HW184348   4.989   0.351   0.212  0.2742  0.9473 -0.6895
26470SOL    HW284349   5.066   0.239   0.145 -0.4676 -0.5974  0.9418
26471SOL     OW84350   6.787   0.807   6.395 -0.5146 -0.3556  0.5835
26471SOL    HW184351   6.766   0.845   6.481 -0.5935  0.0109  0.4005
26471SOL    HW284352   6.837   0.728   6.417 -2.3298 -1.4391  1.0465
26472SOL     OW84353   7.210   6.294   8.278  0.2252 -0.3413  0.3345
26472SOL    HW184354   7.243   6.333   8.359  1.6206 -1.5374  0.3699
26472SOL    HW284355   7.263   6.216   8.265  0.9082  0.4742 -2.4241
26473SOL     OW84356   6.378  10.063   8.414 -0.2549  0.0379  0.4813
26473SOL    HW184357   6.413  10.106   8.336  0.0026  1.1855  1.2124
26473SOL    HW284358   6.455  10.028   8.459 -0.4001 -0.5929  0.2566
26474SOL     OW84359   0.816   4.212   7.281  0.3670 -0.0125 -0.0521
26474SOL    HW184360   0.830   4.302   7.309  0.5205 -0.3775  1.0945
26474SOL    HW284361   0.755   4.219   7.207  0.8420  1.0609 -0.3620
26475SOL     OW84362   2.736   3.385   2.416  0.0291 -0.4216 -0.0430
26475SOL    HW184363   2.678   3.427   2.353  0.0868  1.7896  1.3001
26475SOL    HW284364   2.694   3.398   2.501  1.3075 -0.8747  0.6919
26476SOL     OW84365   8.234   5.510   7.291 -0.5500 -0.2409 -0.0743
26476SOL    HW184366   8.240   5.600   7.324  0.7163  0.1137 -1.1831
26476SOL    HW284367   8.151   5.508   7.244 -0.2077  0.6067 -0.7450
26477SOL     OW84368   1.102   2.119   1.105 -0.0060  0.1404 -0.4882
26477SOL    HW184369   1.179   2.107   1.049  0.8690  0.6262  0.5610
26477SOL    HW284370   1.053   2.190   1.064 -0.1169 -0.4403 -1.3862
26478SOL     OW84371   7.204  10.975   3.042  0.3802  0.2272 -0.1100
26478SOL    HW184372   7.128  10.929   3.078 -0.3561  1.8605  0.5070
26478SOL    HW284373   7.279  10.932   3.083 -0.1333 -1.8181 -1.1966
26479SOL     OW84374   7.349   8.370   6.066 -0.3687 -0.3735 -0.4403
26479SOL    HW184375   7.387   8.353   6.152 -1.8005 -1.0434  0.0786
26479SOL    HW284376   7.284   8.439   6.081 -0.5040 -0.3677 -1.0279
26480SOL     OW84377   6.836   9.522   9.760 -0.1065 -0.3293 -0.1563
26480SOL    HW184378   6.907   9.519   9.824  0.4461 -0.7240 -0.7800
26480SOL    HW284379   6.801   9.433   9.758 -1.2860  0.0727  0.8618
26481SOL     OW84380   0.783   7.105  10.987  0.3573  0.5507 -0.1973
26481SOL    HW184381   0.868   7.120  10.945  0.9256 -0.7239  0.4663
26481SOL    HW284382   0.750   7.194  11.003  1.4733  1.0756 -0.6161
26482SOL     OW84383   6.606   0.465   8.883  0.0761 -0.4935  0.7539
26482SOL    HW184384   6.607   0.374   8.854 -1.7960 -0.2524 -0.2098
26482SOL    HW284385   6.663   0.511   8.822 -1.2355 -0.5644 -0.5767
26483SOL     OW84386   5.777   8.502   2.733  0.5683 -0.2108  0.5182
26483SOL    HW184387   5.803   8.440   2.801 -0.8556  0.2808  1.5604
26483SOL    HW284388   5.723   8.567   2.779 -1.8684 -0.7742 -1.3532
26484SOL     OW84389   7.694   5.076   6.810  0.1902 -0.0334  0.5838
26484SOL    HW184390   7.602   5.063   6.789  0.4335 -0.1159 -0.4846
26484SOL    HW284391   7.704   5.171   6.817  0.3716  0.0980 -1.0673
26485SOL     OW84392   1.273   5.380   9.171  1.0464 -0.4483  0.5414
26485SOL    HW184393   1.238   5.295   9.199  0.7585 -0.6572 -0.4400
26485SOL    HW284394   1.365   5.378   9.197  1.6277 -1.9668 -1.4479
26486SOL     OW84395   8.220  11.265   9.138 -0.6827 -0.4954  0.1580
26486SOL    HW184396   8.196  11.264   9.046  0.8527  0.7265 -0.3089
26486SOL    HW284397   8.255  11.178   9.155 -0.1492 -0.4480 -0.6652
26487SOL     OW84398   5.712   2.992   9.923  0.3618  0.3793 -0.1288
26487SOL    HW184399   5.714   3.073   9.974  2.2605  0.7894 -0.7580
26487SOL    HW284400   5.798   2.952   9.938 -1.0505 -2.3435  1.3824
26488SOL     OW84401   4.625   7.944   4.989  0.2552  0.1520 -0.0648
26488SOL    HW184402   4.703   7.986   5.025  0.3833  1.5236 -1.7732
26488SOL    HW284403   4.580   7.907   5.064  0.6202  2.6157  1.4835
26489SOL     OW84404   3.290   8.518   8.291 -0.4936  0.5961 -0.0107
26489SOL    HW184405   3.211   8.510   8.344 -0.3310 -3.1870 -0.0580
26489SOL    HW284406   3.261   8.507   8.201 -0.0945  0.8056 -0.1689
26490SOL     OW84407  11.109   1.231   1.444 -0.0309  0.0503 -0.0437
26490SOL    HW184408  11.054   1.166   1.487 -1.2976  1.9842  1.4599
26490SOL    HW284409  11.167   1.264   1.513  1.0597  0.0796 -0.9307
26491SOL     OW84410   1.214   3.462   4.755 -0.1812 -0.1842 -0.1689
26491SOL    HW184411   1.226   3.367   4.756 -0.3917 -0.2236  1.3123
26491SOL    HW284412   1.300   3.496   4.780 -0.4796 -0.0693  0.7597
26492SOL     OW84413   7.583  10.050   7.026 -0.0110 -0.3444  0.1709
26492SOL    HW184414   7.540   9.985   7.083  1.4614 -3.2863 -1.7909
26492SOL    HW284415   7.528  10.128   7.032 -2.7982 -2.2466  1.5606
26493SOL     OW84416   1.260   1.322  11.617 -0.3252  0.5902 -0.0268
26493SOL    HW184417   1.193   1.274  11.666 -1.1641 -2.7016 -3.8403
26493SOL    HW284418   1.339   1.315  11.671 -1.5037 -1.3519  1.5956
26494SOL     OW84419   9.340   2.800   0.868  0.1253 -0.1943  0.6254
26494SOL    HW184420   9.390   2.879   0.850 -0.3589  0.1872  0.9290
26494SOL    HW284421   9.317   2.806   0.960 -1.3808  0.1703  0.2547
26495SOL     OW84422   4.866   5.824   5.449  0.2909  0.2665 -0.4361
26495SOL    HW184423   4.791   5.856   5.399 -1.5465 -2.6775  0.1416
26495SOL    HW284424   4.840   5.834   5.541  1.2147  0.4740 -0.1856
26496SOL     OW84425  10.097   9.978   8.741  0.2332 -0.2735  0.0159
26496SOL    HW184426  10.120  10.017   8.826 -1.4689  1.0901 -0.0958
26496SOL    HW284427  10.152  10.024   8.678  0.0772  0.1403  0.1753
26497SOL     OW84428   6.681   2.862   1.794  0.4289  0.0309  0.2814
26497SOL    HW184429   6.754   2.923   1.781  0.1297  0.2125 -0.6758
26497SOL    HW284430   6.609   2.899   1.743  0.1362 -0.9305 -0.0394
26498SOL     OW84431   1.035   9.494   8.976  0.6799 -0.0513  0.4395
26498SOL    HW184432   1.074   9.551   8.910 -0.5350 -0.0970 -0.3511
26498SOL    HW284433   0.956   9.459   8.934 -0.4640  0.4029  2.1053
26499SOL     OW84434   9.315   5.428   3.468 -0.0986 -0.0395  0.3058
26499SOL    HW184435   9.352   5.466   3.548  0.5535 -0.5723  0.2721
26499SOL    HW284436   9.277   5.502   3.421  0.3268  0.4231  0.6789
26500SOL     OW84437   2.299   2.906   7.961  0.3675 -0.0118  0.5728
26500SOL    HW184438   2.359   2.870   7.896 -0.5594  1.9654 -1.5310
26500SOL    HW284439   2.353   2.963   8.015  0.8263 -0.1747  0.2888
26501SOL     OW84440   3.551   6.881   3.829  0.7300 -0.3577  0.0283
26501SOL    HW184441   3.612   6.916   3.894  0.1881 -0.9702  0.8739
26501SOL    HW284442   3.465   6.907   3.860  0.3190 -2.2342  0.5950
26502SOL     OW84443   5.501   4.449   5.298 -0.4174  0.0133  0.2013
26502SOL    HW184444   5.581   4.478   5.342 -0.5309 -1.0672  1.1777
26502SOL    HW284445   5.439   4.434   5.370 -1.2328  0.0537 -0.4850
26503SOL     OW84446   2.752   6.145   8.155  0.9251 -0.0961  0.2972
26503SOL    HW184447   2.678   6.117   8.209  1.8696  0.2339  1.8227
26503SOL    HW284448   2.735   6.107   8.069 -0.2406 -1.3210  1.0358
26504SOL     OW84449   4.543   4.577   3.171 -0.0534 -0.5511  0.8437
26504SOL    HW184450   4.498   4.549   3.251 -1.5395 -2.2236 -0.4920
26504SOL    HW284451   4.478   4.628   3.124  0.3518 -0.7053  0.1095
26505SOL     OW84452   7.181   7.444   6.493  0.7728  0.5482  0.1222
26505SOL    HW184453   7.251   7.422   6.555  1.8369 -0.0240 -1.2177
26505SOL    HW284454   7.195   7.536   6.473  1.3309  0.3662 -0.3501
26506SOL     OW84455   0.416   7.092   2.723  0.7366  0.5725 -0.5297
26506SOL    HW184456   0.434   7.115   2.814 -0.0838 -2.1315  0.4225
26506SOL    HW284457   0.500   7.066   2.687  1.4022  3.2653 -1.1917
26507SOL     OW84458   4.279  11.429  11.303  0.0311 -0.4680  0.4324
26507SOL    HW184459   4.278  11.490  11.377  0.4616  0.3467 -0.2169
26507SOL    HW284460   4.365  11.440  11.264 -0.3594 -0.5381 -0.4723
26508SOL     OW84461   8.203   2.120   7.027  0.4360 -0.4453 -0.0126
26508SOL    HW184462   8.279   2.156   6.981  1.2729 -1.0598  0.8559
26508SOL    HW284463   8.153   2.197   7.055  0.5322 -0.0451 -0.9262
26509SOL     OW84464  11.571   2.975   0.190 -0.0928 -0.0852 -0.7874
26509SOL    HW184465  11.517   2.982   0.269 -1.0101  2.5080 -1.5104
26509SOL    HW284466  11.658   3.002   0.219 -0.3062  0.3568 -0.5318
26510SOL     OW84467   3.528   3.639   1.980  0.5338 -0.3337  0.5039
26510SOL    HW184468   3.474   3.648   2.058  0.2093  0.8740  0.1645
26510SOL    HW284469   3.613   3.674   2.006 -0.0523  1.7081 -0.1328
26511SOL     OW84470  11.656   3.222   0.415 -0.2274 -0.2648  0.0401
26511SOL    HW184471  11.723   3.208   0.348 -0.5173 -0.5568 -0.1948
26511SOL    HW284472  11.705   3.242   0.495  0.1211  0.1229 -0.2635
26512SOL     OW84473   4.420   7.403   3.767  0.1113  0.1288  0.4373
26512SOL    HW184474   4.360   7.330   3.783  2.9676 -2.5352 -0.0374
26512SOL    HW284475   4.446   7.431   3.855 -1.0693  0.6855  0.6263
26513SOL     OW84476  11.388  10.976   5.554 -0.0445 -0.4352 -0.1073
26513SOL    HW184477  11.399  10.902   5.615  0.1886 -1.1754 -1.0197
26513SOL    HW284478  11.423  11.051   5.601 -0.3780 -0.8751  0.8875
26514SOL     OW84479   6.892   7.810   7.132 -0.2548 -0.1897 -0.5652
26514SOL    HW184480   6.897   7.781   7.041 -1.3276  0.5071 -0.8623
26514SOL    HW284481   6.841   7.890   7.129 -2.0137 -1.1798  0.8750
26515SOL     OW84482   0.489   0.597   5.223 -0.3383  0.1061 -0.0178
26515SOL    HW184483   0.425   0.539   5.263 -2.4705  1.6842 -0.9604
26515SOL    HW284484   0.547   0.538   5.175 -0.8080 -1.4067  1.1794
26516SOL     OW84485   2.397   2.091  11.476  0.2756 -0.2541  0.1419
26516SOL    HW184486   2.387   2.032  11.551  2.2615 -0.9214 -0.0588
26516SOL    HW284487   2.402   2.032  11.400  1.6085  0.1956 -0.1343
26517SOL     OW84488   9.984  10.714   4.650  0.2595  0.2571  0.5419
26517SOL    HW184489  10.077  10.718   4.629 -0.0031  1.8203 -0.5484
26517SOL    HW284490   9.974  10.635   4.702  2.1522 -0.0701  0.4735
26518SOL     OW84491   8.594  10.655   3.652 -0.0008  0.3026 -0.4021
26518SOL    HW184492   8.616  10.641   3.744 -0.5181 -0.1238 -0.3390
26518SOL    HW284493   8.641  10.736   3.628 -1.5428  1.6258  0.8256
26519SOL     OW84494   8.860   9.532   8.419  0.2757 -0.9468 -0.3337
26519SOL    HW184495   8.793   9.547   8.486 -0.8596 -1.7303 -1.2504
26519SOL    HW284496   8.893   9.444   8.437  1.3740 -0.4194  0.3499
26520SOL     OW84497   8.699  10.082  10.050  0.1924  0.4953 -0.4286
26520SOL    HW184498   8.757  10.078   9.974  1.1020 -3.5470  0.2565
26520SOL    HW284499   8.755  10.058  10.124 -1.4523  0.7852  0.9728
26521SOL     OW84500   9.160   7.838   3.067  0.1222  0.7422  0.6855
26521SOL    HW184501   9.112   7.763   3.103  0.7718 -0.1464 -0.2651
26521SOL    HW284502   9.128   7.913   3.118 -1.9694  0.1296  0.3859
26522SOL     OW84503  10.779   5.554   1.064  0.3180  0.2480 -0.3060
26522SOL    HW184504  10.754   5.465   1.039  0.5172 -0.1224  0.7638
26522SOL    HW284505  10.697   5.602   1.069  0.1486 -0.0430 -0.2639
26523SOL     OW84506   7.184   2.509   5.085 -0.2704 -0.3915 -0.0293
26523SOL    HW184507   7.175   2.576   5.152 -1.9537 -1.2393  0.6491
26523SOL    HW284508   7.216   2.555   5.008 -1.0311  1.1187  0.5324
26524SOL     OW84509  10.212   4.412   2.447 -0.4381  0.1893 -0.5894
26524SOL    HW184510  10.305   4.401   2.463  0.0266  1.9861 -1.6976
26524SOL    HW284511  10.172   4.413   2.535  0.5960 -0.4138 -0.0984
26525SOL     OW84512   0.168   2.744   3.080 -0.0221  0.0904 -0.1939
26525SOL    HW184513   0.263   2.733   3.066  0.3215  2.8667 -0.6063
26525SOL    HW284514   0.129   2.666   3.041  2.0103 -0.2449 -1.7395
26526SOL     OW84515   9.563   4.319   4.103  0.0432  0.6412  0.5506
26526SOL    HW184516   9.588   4.361   4.186  0.0572  0.4793  0.6297
26526SOL    HW284517   9.594   4.228   4.112  2.9901  1.3784 -0.9212
26527SOL     OW84518   6.160   0.438   6.798 -0.2753  0.0992  0.4375
26527SOL    HW184519   6.130   0.347   6.795  1.4486 -0.5041 -0.1536
26527SOL    HW284520   6.119   0.475   6.876  0.1509 -1.6403  1.5507
26528SOL     OW84521   0.792   4.965  10.046  0.1779 -0.0002 -0.2588
26528SOL    HW184522   0.754   5.045  10.083  0.1314  0.3366 -1.0200
26528SOL    HW284523   0.867   4.996   9.995 -0.1632 -0.3923 -1.0008
26529SOL     OW84524   4.696   3.119  11.137 -0.1211  0.2523  0.2378
26529SOL    HW184525   4.737   3.057  11.077 -1.3108 -0.6067  0.2823
26529SOL    HW284526   4.752   3.119  11.215 -0.5420 -1.4225  0.5793
26530SOL     OW84527  11.196   9.224   4.620 -0.5743  0.3388 -0.3141
26530SOL    HW184528  11.122   9.204   4.564 -0.0295  1.9220 -1.6798
26530SOL    HW284529  11.175   9.309   4.659  0.0982  0.3566  0.0287
26531SOL     OW84530   2.607   5.954   7.073  0.2321 -0.3346 -0.6654
26531SOL    HW184531   2.541   5.899   7.029  0.6360 -1.1702 -0.2533
26531SOL    HW284532   2.635   5.901   7.147  0.7870  0.3612 -0.3786
26532SOL     OW84533   8.219   0.480   2.582 -0.3045 -0.3339 -0.3982
26532SOL    HW184534   8.146   0.430   2.546 -1.5704  0.4158  1.0496
26532SOL    HW284535   8.225   0.453   2.673 -0.3875  1.4053  0.1595
26533SOL     OW84536   5.320   4.111   4.019  0.5126  0.3614  0.2059
26533SOL    HW184537   5.312   4.186   4.078  0.8030  0.1045  0.5756
26533SOL    HW284538   5.237   4.110   3.970 -0.4513 -0.3770  1.7421
26534SOL     OW84539   5.670   5.203   1.868  0.6642  0.9842 -0.2543
26534SOL    HW184540   5.599   5.185   1.930  0.2976  1.8410 -0.4164
26534SOL    HW284541   5.662   5.135   1.801  0.1948  0.8949 -0.1088
26535SOL     OW84542   3.288  11.557   5.315 -0.3368  0.2419  0.3143
26535SOL    HW184543   3.299  11.637   5.263 -0.9585 -0.1879 -0.4933
26535SOL    HW284544   3.195  11.539   5.312 -0.0496 -1.2642 -0.6644
26536SOL     OW84545   2.998   1.255   7.925  0.2089  0.2271  0.3812
26536SOL    HW184546   3.031   1.165   7.922 -0.1314  0.0766  1.0129
26536SOL    HW284547   2.981   1.277   7.833 -0.6766 -0.7298  0.2899
26537SOL     OW84548   7.135   3.340   0.806 -0.0605  0.2671 -0.0785
26537SOL    HW184549   7.159   3.427   0.839  2.2524 -1.0445  2.0541
26537SOL    HW284550   7.063   3.312   0.864  1.0417 -0.2612  1.0992
26538SOL     OW84551   4.902   2.721   9.459 -0.5729  0.3678 -0.3048
26538SOL    HW184552   4.916   2.802   9.411 -0.2482  1.6062  1.7431
26538SOL    HW284553   4.808   2.703   9.450 -1.2247  2.5086  1.3880
26539SOL     OW84554   5.677   2.027   9.791 -0.5178  0.2888  0.3419
26539SOL    HW184555   5.704   1.935   9.781  0.1594  0.4353  0.7330
26539SOL    HW284556   5.726   2.058   9.867  0.2891  1.3430 -0.5791
26540SOL     OW84557   0.887   4.370   7.829  0.1449  0.0474 -0.0638
26540SOL    HW184558   0.979   4.377   7.802  0.3726  1.9644  1.0427
26540SOL    HW284559   0.890   4.310   7.905  0.3241 -0.6718 -0.6263
26541SOL     OW84560   2.733  10.698  10.373 -0.7923 -0.2255 -0.2413
26541SOL    HW184561   2.801  10.661  10.428 -1.6531  1.5428  2.1966
26541SOL    HW284562   2.780  10.746  10.305  0.3566 -0.7610  0.1637
26542SOL     OW84563   2.099   9.978  10.372 -0.2989  0.1787 -0.1603
26542SOL    HW184564   2.164  10.028  10.421 -3.2943  1.9043  2.4447
26542SOL    HW284565   2.125   9.887  10.383  3.7476  0.7818 -2.6388
26543SOL     OW84566   8.308   5.285   8.179 -0.1961  0.6538 -0.2215
26543SOL    HW184567   8.398   5.286   8.146  0.1047  0.2354  0.5693
26543SOL    HW284568   8.313   5.333   8.262 -1.0787  2.3216 -1.0840
26544SOL     OW84569  10.715   3.332   5.851 -0.1442  0.3036  0.0810
26544SOL    HW184570  10.720   3.392   5.776 -1.0817 -0.8548 -0.9638
26544SOL    HW284571  10.711   3.390   5.927 -0.3575  1.5655 -0.8427
26545SOL     OW84572   4.018   2.978   6.299 -0.0893  0.1759  0.0266
26545SOL    HW184573   4.000   2.976   6.393 -0.5921  0.4068 -0.0609
26545SOL    HW284574   4.103   2.934   6.290 -0.7256 -1.2031  0.4293
26546SOL     OW84575   5.169   7.723   8.434 -0.2239 -0.4276 -0.2878
26546SOL    HW184576   5.180   7.765   8.520 -0.6839 -0.8256 -0.0307
26546SOL    HW284577   5.218   7.780   8.374 -0.0657 -0.0323  0.2014
26547SOL     OW84578   6.636  10.689   7.603 -0.9628  0.0135  0.6884
26547SOL    HW184579   6.662  10.600   7.625 -1.8647 -0.9291 -1.7208
26547SOL    HW284580   6.582  10.680   7.524  0.3257  2.8225 -0.6844
26548SOL     OW84581   4.970   3.582   6.136 -0.2568 -0.9704  0.4863
26548SOL    HW184582   4.970   3.661   6.083 -0.6252 -0.9867  0.4609
26548SOL    HW284583   4.913   3.521   6.089  0.0343 -1.2561  0.4982
26549SOL     OW84584   3.464   9.887   3.913 -0.0579 -0.4033 -0.3480
26549SOL    HW184585   3.455   9.942   3.835  1.1212 -0.6848 -0.7085
26549SOL    HW284586   3.529   9.932   3.967 -0.7387 -0.3063  0.3909
26550SOL     OW84587  10.977   8.401   8.361 -0.2878 -0.4158 -0.1105
26550SOL    HW184588  10.937   8.420   8.446  0.0146 -1.9852  0.4150
26550SOL    HW284589  10.990   8.487   8.321  1.3471  0.5282  2.2276
26551SOL     OW84590   6.864   3.871   5.643 -0.1200  0.0885  0.6144
26551SOL    HW184591   6.769   3.866   5.630 -0.1913 -0.8215  1.4142
26551SOL    HW284592   6.874   3.888   5.737  0.5158  0.3879  0.4974
26552SOL     OW84593   1.003   2.867   0.899  0.6601  0.1412 -0.0981
26552SOL    HW184594   1.064   2.857   0.972 -0.4021 -0.2890  0.7416
26552SOL    HW284595   0.942   2.935   0.927 -1.0953 -1.5548  0.3905
26553SOL     OW84596   5.273   4.723   8.846 -0.3382  0.0341 -0.3163
26553SOL    HW184597   5.222   4.749   8.922  0.4930 -0.2491  0.3482
26553SOL    HW284598   5.285   4.629   8.855 -0.2289 -0.0037 -0.7993
26554SOL     OW84599  10.866   9.866   1.307  0.2822 -0.2282  0.3133
26554SOL    HW184600  10.856   9.892   1.398  0.5124 -2.3244  1.0081
26554SOL    HW284601  10.959   9.875   1.290  0.6096 -1.8890  1.0277
26555SOL     OW84602   8.585   2.839   0.344 -0.9847  0.1900  0.2563
26555SOL    HW184603   8.530   2.782   0.290 -1.1268  0.0685  0.5240
26555SOL    HW284604   8.522   2.893   0.392 -0.8490  1.8415 -1.3174
26556SOL     OW84605   8.459  11.293   3.281  0.5298 -0.5451 -0.0350
26556SOL    HW184606   8.370  11.290   3.244  0.7700 -3.9651 -0.6843
26556SOL    HW284607   8.481  11.201   3.296  3.7446  0.2454  0.7108
26557SOL     OW84608   2.353   7.975  10.574 -0.1434 -0.0263  0.2374
26557SOL    HW184609   2.322   8.065  10.569 -2.1122 -0.6462  0.2691
26557SOL    HW284610   2.399   7.960  10.491 -0.2654  0.8479  0.0065
26558SOL     OW84611   0.596   9.565   4.168  0.7282 -0.4785  0.8045
26558SOL    HW184612   0.637   9.596   4.087 -1.6376 -1.4194 -0.8967
26558SOL    HW284613   0.609   9.636   4.230  3.2625 -0.0140 -0.1257
26559SOL     OW84614   2.963  10.585   5.239  0.1773 -0.1821 -0.0841
26559SOL    HW184615   3.019  10.554   5.311  0.3511  0.2313 -0.0411
26559SOL    HW284616   3.016  10.650   5.193 -0.3701  0.4248  0.1281
26560SOL     OW84617   3.935   7.691   9.005 -0.4114 -0.5314  0.4445
26560SOL    HW184618   3.917   7.684   9.099  1.7224 -0.3096  0.9225
26560SOL    HW284619   3.921   7.783   8.985  1.3041 -0.1003  1.0882
26561SOL     OW84620   2.689   2.642  10.792 -0.4375 -0.3203 -0.1186
26561SOL    HW184621   2.645   2.580  10.850  0.0477  0.3026  0.9633
26561SOL    HW284622   2.721   2.589  10.719 -1.0023 -1.1501  0.2239
26562SOL     OW84623   0.773   2.142  11.573 -0.2332 -0.2196  0.3375
26562SOL    HW184624   0.693   2.182  11.607  0.1141  0.6219  0.1889
26562SOL    HW284625   0.744   2.092  11.497 -0.3760  1.7721 -1.0176
26563SOL     OW84626   1.894  11.232   7.103 -0.1808  0.2896  0.1540
26563SOL    HW184627   1.988  11.243   7.116 -0.1705  0.4818 -0.0752
26563SOL    HW284628   1.872  11.295   7.034 -0.3845 -0.1030 -0.1429
26564SOL     OW84629   9.808   9.306  10.169  0.0617  0.5739 -0.0566
26564SOL    HW184630   9.791   9.226  10.118  1.5930 -0.7395  1.3677
26564SOL    HW284631   9.728   9.320  10.219 -0.1446 -0.1787 -0.1658
26565SOL     OW84632   6.962   2.113   9.688 -0.0084  0.5875 -0.1370
26565SOL    HW184633   6.879   2.142   9.650 -0.9138 -1.2688  0.2775
26565SOL    HW284634   7.011   2.078   9.614 -0.6979 -0.6523 -0.0418
26566SOL     OW84635   0.280   2.043   9.895 -0.1566 -0.0550  0.3008
26566SOL    HW184636   0.370   2.021   9.867  0.4601 -0.3568  2.3962
26566SOL    HW284637   0.237   2.073   9.814  1.6122 -0.5671 -0.8925
26567SOL     OW84638   8.282   9.054   0.284 -0.0927 -0.2396 -0.5088
26567SOL    HW184639   8.258   9.142   0.313  1.7960 -0.0050  0.4907
26567SOL    HW284640   8.201   9.019   0.247 -1.3738  1.2457  0.6920
26568SOL     OW84641   5.793   1.087   4.941  0.2631 -0.1357 -0.0277
26568SOL    HW184642   5.749   1.132   4.868 -1.9860 -1.9168  0.0989
26568SOL    HW284643   5.801   1.154   5.009  0.9239  1.1367 -1.2975
26569SOL     OW84644   1.577  10.062   4.059  0.5806 -0.0329  0.0819
26569SOL    HW184645   1.578   9.976   4.017  3.0867  0.1052 -0.2765
26569SOL    HW284646   1.555  10.123   3.989  2.6027 -0.0381 -0.6309
26570SOL     OW84647   5.658   8.254   0.249 -0.2080 -0.2375 -0.1991
26570SOL    HW184648   5.657   8.200   0.169 -0.3143 -0.7177  0.1236
26570SOL    HW284649   5.730   8.316   0.235  0.5167 -1.0624 -0.1783
26571SOL     OW84650   6.396   5.475   7.244 -0.4654 -0.4590  0.3979
26571SOL    HW184651   6.449   5.533   7.189  0.0861  0.4403  1.8279
26571SOL    HW284652   6.432   5.485   7.332 -2.7482 -0.1078  1.3739
26572SOL     OW84653   8.299   4.367  10.255  0.3214  0.4288  0.1344
26572SOL    HW184654   8.261   4.314  10.325  1.0153 -0.8477 -0.4179
26572SOL    HW284655   8.245   4.445  10.252 -0.8856 -0.3469  0.8338
26573SOL     OW84656  11.634   6.318   6.509 -0.0365 -0.3563 -0.7103
26573SOL    HW184657  11.561   6.380   6.510  0.2749  0.0204 -0.8181
26573SOL    HW284658  11.687   6.344   6.433  0.5483 -0.2171 -0.2677
26574SOL     OW84659   6.190   8.746   5.139  0.1239  0.3192  0.0336
26574SOL    HW184660   6.127   8.707   5.078  0.9854 -1.0358 -0.0242
26574SOL    HW284661   6.148   8.827   5.167 -1.5051 -0.3844 -0.2435
26575SOL     OW84662   6.319   6.512   9.312 -0.4721 -0.0934 -0.7702
26575SOL    HW184663   6.292   6.516   9.220 -0.8953  1.2726 -0.6024
26575SOL    HW284664   6.391   6.449   9.313 -2.3018 -2.3564 -1.5738
26576SOL     OW84665   8.032   7.969   3.316 -0.3989  0.6160 -0.3868
26576SOL    HW184666   8.118   7.964   3.276 -1.3875 -0.4954 -2.5343
26576SOL    HW284667   7.989   8.042   3.271 -1.2147 -0.0518 -0.7206
26577SOL     OW84668   6.880   7.161   6.344 -0.3828 -0.1919  0.1327
26577SOL    HW184669   6.785   7.169   6.353 -0.3136  1.3892 -0.2225
26577SOL    HW284670   6.904   7.230   6.282  0.7223 -2.0955 -1.6610
26578SOL     OW84671   9.677   4.766   5.865 -0.0332 -0.3257  0.5723
26578SOL    HW184672   9.652   4.817   5.789 -0.7067 -0.6717  0.5576
26578SOL    HW284673   9.678   4.828   5.937 -0.8720 -0.2873  0.5599
26579SOL     OW84674   7.788  10.169   2.363  0.6037 -0.3710  0.7633
26579SOL    HW184675   7.784  10.105   2.292  1.4502 -2.0599  2.1347
26579SOL    HW284676   7.698  10.200   2.373  0.3580 -0.6067 -0.5998
26580SOL     OW84677   8.702   7.174   6.495 -0.2636  0.3555  0.1196
26580SOL    HW184678   8.795   7.192   6.506 -0.4430  0.8560  0.9510
26580SOL    HW284679   8.662   7.204   6.577 -1.0340 -0.7268  0.1681
26581SOL     OW84680   9.231   4.163   4.654  0.3408 -0.1860  0.0447
26581SOL    HW184681   9.188   4.084   4.621 -2.7765  1.5665 -0.4984
26581SOL    HW284682   9.235   4.222   4.579 -1.8132  1.8575  1.3962
26582SOL     OW84683   9.602   0.315   1.259 -0.7788 -0.2501 -0.2588
26582SOL    HW184684   9.695   0.339   1.257 -0.5591 -1.0713 -0.8936
26582SOL    HW284685   9.593   0.261   1.337 -0.8563  0.3089  0.1238
26583SOL     OW84686   2.486   1.065   5.764 -0.2410  1.2337 -0.3207
26583SOL    HW184687   2.555   1.063   5.697  0.0398  0.7863 -0.0311
26583SOL    HW284688   2.459   1.156   5.769  0.7554  1.5240 -0.0247
26584SOL     OW84689   8.347   5.652   6.467  0.1891  0.2560 -0.0200
26584SOL    HW184690   8.278   5.637   6.403  0.7482  0.0375 -0.5799
26584SOL    HW284691   8.300   5.678   6.547 -0.4943  0.8267 -0.5958
26585SOL     OW84692   1.051  11.071  11.195  0.4103  0.2110  0.3443
26585SOL    HW184693   1.007  10.986  11.202  0.5929  0.0040 -0.8487
26585SOL    HW284694   0.983  11.131  11.162  0.6705  0.1861 -0.2429
26586SOL     OW84695   3.809   5.469   2.971  0.0883  0.1995 -0.1357
26586SOL    HW184696   3.782   5.406   3.038  0.6549  0.1711  0.0778
26586SOL    HW284697   3.894   5.436   2.941  0.5250  1.0057  0.1795
26587SOL     OW84698   7.131  11.287   5.252 -0.1122 -0.4818 -0.0330
26587SOL    HW184699   7.182  11.349   5.200  0.0237 -0.6006 -0.0389
26587SOL    HW284700   7.066  11.252   5.190 -1.9810  1.6597  0.5874
26588SOL     OW84701   8.180   6.791   5.256  0.3795 -0.0584 -0.5645
26588SOL    HW184702   8.124   6.860   5.221 -0.4129 -0.1859  0.3946
26588SOL    HW284703   8.255   6.838   5.294 -0.1760  0.2905  0.1246
26589SOL     OW84704   2.458   2.469   6.721  0.5205  0.4379  0.2153
26589SOL    HW184705   2.498   2.398   6.772 -0.3968 -1.5623 -1.6638
26589SOL    HW284706   2.532   2.524   6.695  1.5008 -0.7303  0.4101
26590SOL     OW84707   1.590  10.513  11.144  0.1723 -0.2657  0.2729
26590SOL    HW184708   1.510  10.557  11.115  0.2138 -0.8357 -0.7493
26590SOL    HW284709   1.566  10.422  11.154  0.9011 -0.6150 -0.9439
26591SOL     OW84710   5.105   0.917   1.977  0.2391  0.1353 -0.2266
26591SOL    HW184711   5.053   0.922   1.898 -0.6749  1.2565  0.4228
26591SOL    HW284712   5.133   0.825   1.981 -1.2012 -0.3640 -0.8904
26592SOL     OW84713   5.483   9.156   1.599 -0.2335  0.3260 -0.5046
26592SOL    HW184714   5.460   9.200   1.517 -0.5378  1.7111  0.3016
26592SOL    HW284715   5.402   9.112   1.626 -0.2137  0.1128 -0.7823
26593SOL     OW84716   1.744   0.475  10.583  0.1640  0.2387  0.2797
26593SOL    HW184717   1.795   0.544  10.541 -0.2724  0.8018  0.6763
26593SOL    HW284718   1.653   0.502  10.572 -0.1208 -1.1983 -1.2113
26594SOL     OW84719   3.894   4.911   8.126 -0.4322  0.3102 -0.1790
26594SOL    HW184720   3.938   4.927   8.209  1.6091  0.2300 -1.1840
26594SOL    HW284721   3.840   4.834   8.141  0.7950 -0.3929  0.7696
26595SOL     OW84722   1.905   3.959   7.831  0.5748  0.2155  0.1814
26595SOL    HW184723   1.892   3.865   7.839 -1.5403  0.4216 -0.2914
26595SOL    HW284724   1.817   3.996   7.834  1.2695  2.0947 -0.8429
26596SOL     OW84725   7.259   2.798  10.994  0.0940  0.4289 -0.2406
26596SOL    HW184726   7.286   2.869  10.936 -0.6560 -0.1329 -1.3045
26596SOL    HW284727   7.280   2.718  10.946 -0.6665 -0.0500  0.1992
26597SOL     OW84728   2.786   8.645   6.187  0.5521  0.0518 -0.2383
26597SOL    HW184729   2.807   8.595   6.266  1.2496 -3.0176 -2.2087
26597SOL    HW284730   2.736   8.585   6.132 -2.0260  2.8625 -1.2523
26598SOL     OW84731   3.065  10.774   4.440 -0.2746  0.0200 -0.1675
26598SOL    HW184732   3.020  10.726   4.510 -1.8578 -1.6032 -2.1835
26598SOL    HW284733   2.999  10.833   4.404  0.7961  1.5538  0.2576
26599SOL     OW84734   5.085   0.034   3.288 -0.3005  0.3247 -0.0832
26599SOL    HW184735   5.060  -0.050   3.250 -0.0034 -0.7241  1.8774
26599SOL    HW284736   5.012   0.057   3.346 -0.4337  1.5140 -0.6875
26600SOL     OW84737   5.366   6.597   7.666 -0.0618 -0.0789 -0.2732
26600SOL    HW184738   5.419   6.653   7.724 -0.1583  1.2625 -1.4217
26600SOL    HW284739   5.430   6.560   7.605  0.1221 -1.9423  0.9762
26601SOL     OW84740   9.152   5.446  11.220  0.1356 -0.0464  0.2748
26601SOL    HW184741   9.165   5.540  11.236 -1.1780  0.3102 -0.5226
26601SOL    HW284742   9.127   5.441  11.128 -0.4309 -1.1157  0.4727
26602SOL     OW84743   7.419   6.270   7.651  0.1030 -0.1333 -0.0600
26602SOL    HW184744   7.467   6.207   7.597 -0.2816 -1.7262  1.3466
26602SOL    HW284745   7.328   6.241   7.647  0.0821 -0.3877  1.4947
26603SOL     OW84746   4.878   7.804   0.419  0.3073 -0.2038 -0.5539
26603SOL    HW184747   4.866   7.734   0.355  0.2583  0.1337 -0.9140
26603SOL    HW284748   4.908   7.759   0.498  0.9502 -0.5581 -0.9950
26604SOL     OW84749  10.547  11.350  11.682  0.2978  0.2500 -0.1096
26604SOL    HW184750  10.472  11.336  11.739 -0.7301  0.5136 -1.3464
26604SOL    HW284751  10.580  11.262  11.664  0.2652  0.1299  0.4045
26605SOL     OW84752   8.242   9.787  10.133 -0.0909 -0.0173  0.6438
26605SOL    HW184753   8.172   9.835  10.178  0.1005 -1.7904  3.0084
26605SOL    HW284754   8.206   9.769  10.046 -2.5165 -0.5761  1.6659
26606SOL     OW84755   1.429   1.979   6.527  0.6896  0.5082  0.4197
26606SOL    HW184756   1.443   2.071   6.506 -1.3306  0.5621 -0.9541
26606SOL    HW284757   1.502   1.933   6.486 -0.5409  1.1315 -2.7107
26607SOL     OW84758   8.168   9.573   0.597  0.3623 -0.1169  0.1092
26607SOL    HW184759   8.152   9.626   0.676 -0.8995  2.4059 -1.6679
26607SOL    HW284760   8.257   9.596   0.570  0.2340  0.2310 -0.0258
26608SOL     OW84761   7.538   8.641   8.657 -0.0791  0.0421 -0.1944
26608SOL    HW184762   7.631   8.641   8.634  0.7330 -3.0426  2.4622
26608SOL    HW284763   7.534   8.686   8.741 -0.7157 -1.1625  0.4461
26609SOL     OW84764   5.021  10.202   3.720  0.2184  0.6736 -0.0656
26609SOL    HW184765   4.991  10.265   3.785  0.7064  0.0255  0.8056
26609SOL    HW284766   5.010  10.116   3.762  3.4396  0.3832  0.4258
26610SOL     OW84767   0.944   4.813  10.274 -0.2218 -0.2500 -0.0482
26610SOL    HW184768   1.012   4.880  10.276 -0.0378 -0.4527  0.8543
26610SOL    HW284769   0.944   4.782  10.183  1.9889 -1.3520  0.2685
26611SOL     OW84770   1.603  10.996   6.764 -0.1515 -0.3698 -0.1467
26611SOL    HW184771   1.661  10.937   6.812  0.3479  1.1248  1.1681
26611SOL    HW284772   1.662  11.051   6.713 -0.4037  0.8027  0.7829
26612SOL     OW84773   1.728   6.555  11.623  0.0951 -0.2954 -0.1137
26612SOL    HW184774   1.677   6.483  11.661  0.1925  0.0685  0.7423
26612SOL    HW284775   1.795   6.512  11.570  1.1016 -0.9187  1.5825
26613SOL     OW84776   3.919   3.810   6.193 -0.1260  0.2942 -0.0664
26613SOL    HW184777   3.862   3.859   6.134  1.8636  2.6674 -0.1648
26613SOL    HW284778   3.978   3.762   6.134 -1.4583 -1.6064  0.0447
26614SOL     OW84779   5.986   3.532   4.485 -0.0299 -0.0364  0.2030
26614SOL    HW184780   6.022   3.473   4.419  0.0279  1.4228 -1.1296
26614SOL    HW284781   5.892   3.528   4.471 -0.0187  0.2526  0.0339
26615SOL     OW84782   8.790   0.103   7.013  0.4770  0.3767 -0.3874
26615SOL    HW184783   8.762   0.069   7.099 -0.7449  0.4343 -0.7351
26615SOL    HW284784   8.775   0.030   6.953 -0.6098  0.9591 -0.8654
26616SOL     OW84785  11.144   8.287   2.712 -0.1437  0.5526  0.0505
26616SOL    HW184786  11.238   8.270   2.702 -0.0905  0.7650  0.1843
26616SOL    HW284787  11.125   8.357   2.650 -0.4333 -0.2184 -0.7517
26617SOL     OW84788   8.941   1.497   4.373  0.3336  0.2055  0.1265
26617SOL    HW184789   8.972   1.440   4.443  0.7751  0.1643 -0.0997
26617SOL    HW284790   8.926   1.581   4.416  0.1144  0.0430  0.3718
26618SOL     OW84791   8.691   0.160   6.599 -0.4639  0.1785 -0.3886
26618SOL    HW184792   8.726   0.084   6.646  0.6349  0.3470 -0.9028
26618SOL    HW284793   8.663   0.220   6.668 -2.3838 -1.1222  0.0373
26619SOL     OW84794   2.372   3.366   3.470 -0.0218 -0.0225 -0.2211
26619SOL    HW184795   2.362   3.275   3.444  1.6900 -0.1745 -0.4920
26619SOL    HW284796   2.332   3.417   3.400 -1.0945 -0.5549 -0.0088
26620SOL     OW84797  10.877   4.429   1.350 -0.2527  0.0826 -0.0728
26620SOL    HW184798  10.881   4.337   1.323 -0.2592 -0.1556  0.7088
26620SOL    HW284799  10.887   4.426   1.445  0.4719  0.9452 -0.1107
26621SOL     OW84800   5.671   2.796   8.970 -0.1993  0.1619 -0.2056
26621SOL    HW184801   5.653   2.751   9.053 -0.5283 -0.9449 -0.8498
26621SOL    HW284802   5.675   2.725   8.905  0.8833  0.9223 -1.0030
26622SOL     OW84803   2.953   8.938   8.529 -0.0567  0.1958  0.3018
26622SOL    HW184804   2.887   8.962   8.464  0.4405 -0.3308 -0.4153
26622SOL    HW284805   2.916   8.966   8.612 -0.4062  1.5126 -0.2772
26623SOL     OW84806  10.820  10.528   7.170 -0.0639  0.9235  0.0601
26623SOL    HW184807  10.882  10.584   7.217 -0.2010  1.8435 -0.8083
26623SOL    HW284808  10.876  10.468   7.120  0.1162 -1.6941  3.0954
26624SOL     OW84809   3.246   3.532   0.243  0.2603  0.2974  0.2674
26624SOL    HW184810   3.307   3.459   0.249 -0.3197 -0.1763  0.5543
26624SOL    HW284811   3.297   3.609   0.266  1.3955  0.2821 -1.9073
26625SOL     OW84812   8.768   9.063  11.681 -0.2034 -0.6558 -0.3152
26625SOL    HW184813   8.676   9.052  11.704 -0.2029  0.8603  0.5399
26625SOL    HW284814   8.815   9.025  11.756 -0.1435 -0.4301 -0.2387
26626SOL     OW84815  10.198  11.668   3.162 -0.4444  0.1978 -0.1847
26626SOL    HW184816  10.230  11.707   3.244 -1.8755  0.7811  0.1284
26626SOL    HW284817  10.277  11.639   3.117  0.5762  2.1011  0.2734
26627SOL     OW84818   3.498   0.353  10.197 -0.0384  0.2526  0.1150
26627SOL    HW184819   3.459   0.285  10.141  0.0060  0.7776 -0.5644
26627SOL    HW284820   3.446   0.431  10.180  1.1050  0.8860 -0.5902
26628SOL     OW84821   5.816   8.523   3.821  0.4075  0.0464  0.2817
26628SOL    HW184822   5.723   8.518   3.841  0.3096  1.5906  0.2835
26628SOL    HW284823   5.860   8.497   3.902 -0.0194  1.0371  0.8416
26629SOL     OW84824   3.318   7.336   1.627  0.4852  0.3431 -0.1943
26629SOL    HW184825   3.266   7.261   1.599  1.4331 -0.6025  0.4855
26629SOL    HW284826   3.401   7.327   1.580  0.7099  0.8157  0.0940
26630SOL     OW84827   9.626   4.251   8.619 -0.3536 -0.0405 -0.2427
26630SOL    HW184828   9.686   4.268   8.545 -0.1081  1.0040  0.1697
26630SOL    HW284829   9.554   4.202   8.581 -0.1355  0.3175 -1.1472
26631SOL     OW84830  10.061   2.483   1.912 -0.0274  0.0201 -0.1981
26631SOL    HW184831  10.013   2.493   1.994 -0.5414  0.2933 -0.5282
26631SOL    HW284832  10.076   2.389   1.904  1.6565  0.1335  1.1313
26632SOL     OW84833   7.384   0.171   2.698  0.5122 -0.2439 -0.2696
26632SOL    HW184834   7.432   0.211   2.771  0.3584  0.5497 -0.5852
26632SOL    HW284835   7.371   0.244   2.637 -0.1540 -0.6999 -0.6723
26633SOL     OW84836   5.319   3.889   5.457 -0.1098  0.1275 -0.1776
26633SOL    HW184837   5.319   3.872   5.363 -2.6849 -2.2223  0.1043
26633SOL    HW284838   5.373   3.819   5.494 -0.4608  0.0299  0.1692
26634SOL     OW84839   4.857   1.782   4.299 -0.6664 -0.0365 -0.6739
26634SOL    HW184840   4.782   1.802   4.356 -1.2330 -0.1007 -1.3845
26634SOL    HW284841   4.875   1.690   4.315 -1.9483 -0.5313 -1.8519
26635SOL     OW84842   3.586   7.056   2.450 -0.6178 -0.0541  0.5110
26635SOL    HW184843   3.557   6.993   2.516  0.3538 -0.5461  0.4924
26635SOL    HW284844   3.611   7.002   2.375 -2.9365  0.5636 -0.7978
26636SOL     OW84845   0.240  11.273   3.899 -0.0037 -0.1640 -0.3660
26636SOL    HW184846   0.219  11.309   3.985  0.6927  0.1030 -0.3047
26636SOL    HW284847   0.164  11.295   3.844  0.0856  0.7298 -0.1379
26637SOL     OW84848   4.390   5.733   9.416 -0.0539 -0.0265  0.0259
26637SOL    HW184849   4.305   5.764   9.386 -0.2831 -0.8642 -0.1977
26637SOL    HW284850   4.444   5.731   9.337  0.2001  0.5533  0.1760
26638SOL     OW84851   3.885   9.067   7.776 -0.6646  0.3033 -0.0227
26638SOL    HW184852   3.855   9.156   7.795  0.2930  0.5029  0.6698
26638SOL    HW284853   3.980   9.071   7.790  0.0665  0.1737 -3.8489
26639SOL     OW84854   2.569   7.122   2.022 -0.0218  0.7112 -0.4034
26639SOL    HW184855   2.633   7.185   1.988 -0.0766  0.2863 -1.3306
26639SOL    HW284856   2.522   7.092   1.944 -1.8693  1.5511  0.3376
26640SOL     OW84857   3.392  11.389   0.661 -0.2025  0.1548 -0.0068
26640SOL    HW184858   3.337  11.450   0.708 -0.3043  0.4543 -0.5036
26640SOL    HW284859   3.423  11.438   0.584 -0.4699 -0.4815 -0.5344
26641SOL     OW84860   3.968   3.957   9.990 -0.4440  0.5138  0.0114
26641SOL    HW184861   4.044   3.964  10.048 -0.3877 -0.4353  0.0714
26641SOL    HW284862   3.914   4.032  10.012 -0.5033  0.0881  1.4131
26642SOL     OW84863  11.631   5.930   8.950  0.2181  0.1228  0.0009
26642SOL    HW184864  11.555   5.917   8.893 -0.4414  0.8988  0.6783
26642SOL    HW284865  11.621   6.019   8.983  1.9780  0.6148 -0.6858
26643SOL     OW84866  10.262   7.559  10.748 -0.2285 -0.4880  0.1237
26643SOL    HW184867  10.208   7.612  10.690 -0.3272 -0.2678  0.4162
26643SOL    HW284868  10.345   7.548  10.701  0.3212  1.1169  0.6647
26644SOL     OW84869   3.716   0.575   7.092 -0.1739  0.4986 -0.1595
26644SOL    HW184870   3.647   0.527   7.046 -0.2034 -0.6138  1.0056
26644SOL    HW284871   3.680   0.663   7.106 -1.1388  0.0870 -0.0263
26645SOL     OW84872   9.500   7.089   4.917  0.7221 -0.0483 -0.2216
26645SOL    HW184873   9.466   7.168   4.875  0.3406  0.3043  0.7197
26645SOL    HW284874   9.423   7.046   4.954  1.1263  0.0856  0.8152
26646SOL     OW84875   2.301   3.878   4.906  0.4783  0.1448  0.3445
26646SOL    HW184876   2.277   3.870   4.813 -1.0990 -0.8665  0.8070
26646SOL    HW284877   2.380   3.825   4.915  2.4140  2.5860 -0.9705
26647SOL     OW84878   7.240   7.713   6.093 -0.4235  0.0122  0.1827
26647SOL    HW184879   7.284   7.778   6.038 -1.0456 -0.6228 -1.1069
26647SOL    HW284880   7.162   7.688   6.043 -0.9676 -0.6572  1.3237
26648SOL     OW84881   4.946  11.607   0.310 -0.3885  0.1047 -0.0287
26648SOL    HW184882   4.985  11.614   0.223  0.0092 -1.0204  0.0510
26648SOL    HW284883   4.885  11.681   0.314 -1.2710 -0.4626 -1.6991
26649SOL     OW84884   0.420   2.190   4.108 -0.2768  0.6276  0.6860
26649SOL    HW184885   0.490   2.129   4.130  0.0944  0.6793 -0.2948
26649SOL    HW284886   0.408   2.243   4.187  1.4097  1.2192  0.5725
26650SOL     OW84887   6.566   2.343   9.434  0.8815 -0.1653 -0.1377
26650SOL    HW184888   6.537   2.368   9.346  0.0752 -0.3642  0.0649
26650SOL    HW284889   6.557   2.423   9.485 -0.6060 -0.5383  0.2377
26651SOL     OW84890   3.867   5.772   4.343 -1.0061 -0.0856 -0.6624
26651SOL    HW184891   3.913   5.704   4.294 -0.1430 -0.5157  0.7091
26651SOL    HW284892   3.830   5.726   4.419 -3.1826  0.3678 -1.3691
26652SOL     OW84893   4.114   5.695   7.071 -1.0348  0.3919  0.0250
26652SOL    HW184894   4.177   5.716   7.140 -0.2799  0.3103 -0.6302
26652SOL    HW284895   4.137   5.606   7.044 -2.0212  0.0072  0.4070
26653SOL     OW84896   6.599   4.135   5.974  0.1496 -0.6916  0.1566
26653SOL    HW184897   6.538   4.112   5.903  0.4088 -0.8751 -0.0092
26653SOL    HW284898   6.680   4.157   5.929  0.4345 -1.1976  0.4166
26654SOL     OW84899   6.203   5.680   4.099 -0.2756  0.3799 -0.6623
26654SOL    HW184900   6.271   5.642   4.044 -1.5471  0.9978 -2.7823
26654SOL    HW284901   6.121   5.641   4.066 -1.0792  0.6037  0.9695
26655SOL     OW84902   6.435  11.621   1.884 -0.1716  0.1531 -0.0380
26655SOL    HW184903   6.386  11.659   1.957 -0.9951 -1.0584  0.0732
26655SOL    HW284904   6.429  11.686   1.814 -1.9129  0.0547 -0.0080
26656SOL     OW84905   7.928   3.650   3.620  0.4176  0.5778  0.2928
26656SOL    HW184906   7.886   3.695   3.547 -0.2145  0.6358  0.6781
26656SOL    HW284907   7.861   3.589   3.652  0.5261  0.8633  1.0921
26657SOL     OW84908   0.776   8.192   2.116 -0.2121  0.6972  0.3012
26657SOL    HW184909   0.807   8.217   2.029 -1.0124  1.6357  0.2627
26657SOL    HW284910   0.787   8.271   2.169  1.8108 -0.3115  1.5328
26658SOL     OW84911   9.500   8.969   5.005  0.0711  0.0056  0.5513
26658SOL    HW184912   9.416   8.958   4.961  0.5806  0.2071 -0.4848
26658SOL    HW284913   9.480   9.026   5.079 -0.1601  2.8786 -1.5474
26659SOL     OW84914   2.921  11.202  10.314 -0.1930 -0.1602  0.4136
26659SOL    HW184915   2.950  11.166  10.231  1.4022  0.5711  0.6051
26659SOL    HW284916   2.855  11.141  10.346  0.8382 -1.7081 -0.2910
26660SOL     OW84917   4.952   3.615   8.040  0.2258  0.0421  0.4181
26660SOL    HW184918   4.899   3.537   8.055  1.0375 -0.5797  0.1397
26660SOL    HW284919   4.928   3.644   7.952  0.8215 -0.6321  0.0223
26661SOL     OW84920   9.066   4.218   0.516 -0.4380  0.0203  0.2393
26661SOL    HW184921   9.032   4.264   0.440  0.2183  0.4021  0.1649
26661SOL    HW284922   9.070   4.126   0.490 -2.3880 -0.2120  0.6138
26662SOL     OW84923   0.564   7.522  11.622  0.0133  0.8288 -0.1074
26662SOL    HW184924   0.508   7.447  11.604  1.1197  0.1382 -0.7558
26662SOL    HW284925   0.511   7.598  11.596 -1.0811  0.2948  0.4702
26663SOL     OW84926   5.240  10.166   1.401 -0.0849  0.4001 -0.3106
26663SOL    HW184927   5.217  10.148   1.492 -0.0314  1.0356 -0.1680
26663SOL    HW284928   5.203  10.092   1.352  2.5217 -1.6304  0.5365
26664SOL     OW84929   4.252   9.211   3.709 -0.1292 -0.2332  0.1928
26664SOL    HW184930   4.305   9.146   3.661 -0.5982  0.1513 -0.8841
26664SOL    HW284931   4.291   9.214   3.796  0.5916 -1.1565 -0.0772
26665SOL     OW84932  10.546  10.280  10.010  0.1626  0.5945 -0.4469
26665SOL    HW184933  10.640  10.266   9.994 -0.1978 -0.7722 -1.5553
26665SOL    HW284934  10.506  10.266   9.924 -0.8663  3.3614 -0.5001
26666SOL     OW84935   4.716   9.081  10.896 -0.0231 -0.3524  0.2611
26666SOL    HW184936   4.664   9.003  10.915  0.6118 -0.3157  2.2995
26666SOL    HW284937   4.668   9.124  10.825 -1.9587 -1.0949  1.0525
26667SOL     OW84938   6.647   0.514   6.845  0.0083 -0.1247  0.3764
26667SOL    HW184939   6.592   0.436   6.838 -0.4915  0.3185 -0.8678
26667SOL    HW284940   6.588   0.582   6.877 -0.8504  0.9192 -3.0093
26668SOL     OW84941   6.200   2.627  10.437  0.3902 -0.2665 -0.0534
26668SOL    HW184942   6.269   2.584  10.387  1.3231 -0.5490  1.4039
26668SOL    HW284943   6.236   2.714  10.456  0.1672 -0.2596  0.3409
26669SOL     OW84944   5.299  10.376   5.219 -0.0594 -0.1392 -0.0680
26669SOL    HW184945   5.297  10.297   5.165 -0.8019 -0.3388  0.2332
26669SOL    HW284946   5.327  10.345   5.305 -1.6641 -0.3280  0.4156
26670SOL     OW84947   1.350   7.599   2.316  0.0973 -0.0638 -0.7411
26670SOL    HW184948   1.285   7.542   2.274  0.8889  0.7168 -3.1853
26670SOL    HW284949   1.431   7.547   2.315  0.0424 -0.1859  0.2401
26671SOL     OW84950   3.549   8.786   7.471  0.1247  0.2631  0.5303
26671SOL    HW184951   3.580   8.709   7.423 -0.8655  0.1108  0.1080
26671SOL    HW284952   3.624   8.814   7.524 -0.0917 -2.2966  2.3884
26672SOL     OW84953   3.045   0.401   3.472 -0.2330 -0.8405 -0.1693
26672SOL    HW184954   3.111   0.460   3.508 -0.4122 -0.2239 -0.8190
26672SOL    HW284955   3.061   0.317   3.515  1.0700 -0.7398 -0.4239
26673SOL     OW84956   1.523  11.377   6.630  0.2039  0.2258 -0.2179
26673SOL    HW184957   1.557  11.313   6.568  0.8906  0.5713 -0.2079
26673SOL    HW284958   1.595  11.391   6.692 -0.3717  0.0891  0.4959
26674SOL     OW84959   9.428   7.832  11.579 -0.0696  0.2038 -0.3293
26674SOL    HW184960   9.446   7.746  11.541  0.1995  0.6008 -1.1259
26674SOL    HW284961   9.369   7.814  11.652  2.1441 -0.9672  1.3225
26675SOL     OW84962  10.904   9.991   7.073 -0.8983  0.3678  0.3922
26675SOL    HW184963  10.863   9.915   7.114  1.1507 -1.1558 -0.1892
26675SOL    HW284964  10.955  10.031   7.143 -1.3660  0.7677  0.5100
26676SOL     OW84965   7.113  11.256  11.231  0.1061 -0.3168  0.2198
26676SOL    HW184966   7.026  11.264  11.191 -0.3552 -0.3457  1.2002
26676SOL    HW284967   7.098  11.269  11.324  1.3698  1.2326  0.2548
26677SOL     OW84968   8.802   2.635   3.612  0.3429 -0.2041 -0.0673
26677SOL    HW184969   8.829   2.629   3.704 -1.3163 -4.3832  0.3613
26677SOL    HW284970   8.723   2.690   3.614  1.5025  1.5366  0.5642
26678SOL     OW84971   3.485  10.669   3.385  0.5655  0.5983 -0.4967
26678SOL    HW184972   3.407  10.665   3.440  0.6045  1.2242 -0.3899
26678SOL    HW284973   3.470  10.745   3.328  0.8321  0.3678 -0.8749
26679SOL     OW84974   8.186   2.683   4.559 -0.6616 -0.8805  0.0767
26679SOL    HW184975   8.201   2.756   4.618 -2.1895  0.9403 -1.6269
26679SOL    HW284976   8.273   2.654   4.533 -0.0243  0.0692  1.0946
26680SOL     OW84977  10.863   2.014  11.508 -0.4434  0.8678  0.0516
26680SOL    HW184978  10.903   1.928  11.521  2.4080  1.9435 -0.9522
26680SOL    HW284979  10.834   2.013  11.417 -0.8434  0.8340  0.1757
26681SOL     OW84980   2.515   9.941   5.706  0.4337  0.1689 -0.3715
26681SOL    HW184981   2.427   9.921   5.675 -0.0336  0.7034  0.5688
26681SOL    HW284982   2.550   9.856   5.735 -0.0306  0.0635 -0.1150
26682SOL     OW84983  11.517   4.323   5.265 -0.1713  0.1022 -0.3422
26682SOL    HW184984  11.424   4.334   5.284  0.0087 -1.0628  1.4569
26682SOL    HW284985  11.557   4.407   5.286 -0.6689  0.2712 -0.0653
26683SOL     OW84986   7.867   1.822   1.810  0.6249  0.1740  0.2561
26683SOL    HW184987   7.803   1.797   1.876 -0.6406  2.5465  0.0585
26683SOL    HW284988   7.875   1.746   1.753 -2.1771 -0.1625  0.1787
26684SOL     OW84989   8.759   2.419   3.482  0.7660  0.4611 -0.0618
26684SOL    HW184990   8.758   2.505   3.524  0.6752  0.4283  0.0037
26684SOL    HW284991   8.694   2.424   3.412 -0.1989  0.0376  0.7686
26685SOL     OW84992   2.398   5.756   1.425  0.0042  0.0843 -0.0897
26685SOL    HW184993   2.321   5.707   1.453  1.9738 -2.9621  0.4323
26685SOL    HW284994   2.413   5.727   1.335  0.5979  0.6007 -0.1604
26686SOL     OW84995   0.262   4.118   8.815  0.3228 -0.6284  0.1469
26686SOL    HW184996   0.334   4.101   8.754  0.5997  1.3056 -0.1174
26686SOL    HW284997   0.306   4.139   8.898 -0.0524 -3.9454  1.3376
26687SOL     OW84998   7.526   2.519  10.123  0.2764 -0.3843 -0.6220
26687SOL    HW184999   7.598   2.565  10.080  0.0629 -0.9013 -1.5747
26687SOL    HW285000   7.447   2.553  10.081 -0.0701  0.4163  0.6463
26688SOL     OW85001   7.820   6.814   5.518 -0.2963 -0.4013  0.0037
26688SOL    HW185002   7.903   6.769   5.532  0.2404  0.3708 -0.5828
26688SOL    HW285003   7.759   6.745   5.494  0.0539 -1.0407  0.9116
26689SOL     OW85004   5.102   3.929   1.280 -0.3566 -0.1243  0.3245
26689SOL    HW185005   5.101   4.016   1.321  1.4339  0.5240 -0.8652
26689SOL    HW285006   5.040   3.936   1.208  1.1620  0.8586 -0.9569
26690SOL     OW85007   9.937   6.361   2.101 -0.3882  0.1491  0.9772
26690SOL    HW185008   9.906   6.366   2.192 -1.6163  0.1754  0.5786
26690SOL    HW285009   9.865   6.318   2.054  0.0134  0.6068 -0.0785
26691SOL     OW85010   1.951   9.498   8.717  0.7982  0.0194  0.2500
26691SOL    HW185011   1.912   9.420   8.678 -0.6945  1.5374 -1.5114
26691SOL    HW285012   1.922   9.497   8.808 -0.6111 -0.6266 -0.1710
26692SOL     OW85013   3.756   5.759   3.235  0.0324  0.5789  0.3428
26692SOL    HW185014   3.716   5.837   3.196  0.4345 -0.8671 -3.3054
26692SOL    HW285015   3.844   5.756   3.198  0.5812 -0.8138  1.6625
26693SOL     OW85016   8.305  10.400   9.584  0.3938  0.1255 -0.3073
26693SOL    HW185017   8.260  10.474   9.626  1.3811  0.6347 -0.1229
26693SOL    HW285018   8.379  10.439   9.538  0.9645 -0.7437 -0.1649
26694SOL     OW85019   5.010   1.318  11.420  0.3928  0.7079  0.0049
26694SOL    HW185020   5.027   1.277  11.335  1.6292 -0.3614  0.7211
26694SOL    HW285021   4.974   1.404  11.399  1.2447  0.7022 -1.6129
26695SOL     OW85022   8.643   1.600   5.312  0.3629  0.3998 -0.2258
26695SOL    HW185023   8.661   1.625   5.221 -0.6910  0.4162 -0.4435
26695SOL    HW285024   8.590   1.521   5.305 -0.6515  1.0023  0.3303
26696SOL     OW85025   0.063   8.526   7.539 -0.0966 -0.1051  0.5056
26696SOL    HW185026   0.064   8.487   7.452  1.1885  0.6553  0.1588
26696SOL    HW285027   0.154   8.550   7.557 -0.7241  2.2485  0.8973
26697SOL     OW85028   6.798   7.524  10.382 -0.4270 -0.0299  0.6883
26697SOL    HW185029   6.777   7.609  10.421 -0.0886 -0.2994  1.4902
26697SOL    HW285030   6.715   7.493  10.346 -0.9250 -0.0547  1.7957
26698SOL     OW85031   4.534   3.175   0.534 -0.2195  0.5439  0.3971
26698SOL    HW185032   4.601   3.180   0.603 -0.1853 -0.5070  0.4624
26698SOL    HW285033   4.582   3.156   0.454 -0.3775  0.5155  0.3078
26699SOL     OW85034  11.517   3.224   7.536 -0.1486 -0.7401  0.1448
26699SOL    HW185035  11.602   3.204   7.575  0.9899 -0.0881 -1.8475
26699SOL    HW285036  11.531   3.307   7.491 -1.8049 -0.7080 -0.3547
26700SOL     OW85037   2.048   7.626  10.713  0.7910 -0.4386  0.6523
26700SOL    HW185038   2.114   7.654  10.648 -1.1212  0.4649 -1.0200
26700SOL    HW285039   2.026   7.706  10.760 -1.3534  0.0507 -1.0055
26701SOL     OW85040   7.562   2.859  11.655  0.3576 -0.4436 -0.0036
26701SOL    HW185041   7.515   2.917  11.595  1.9328  2.2062  1.1287
26701SOL    HW285042   7.558   2.773  11.613  0.0482  0.9402 -3.1167
26702SOL     OW85043   1.446   9.649  10.589 -0.5391 -0.5004 -0.1021
26702SOL    HW185044   1.527   9.682  10.551 -0.3580 -1.5066 -0.6160
26702SOL    HW285045   1.403   9.727  10.625  0.2270  0.1717 -0.6113
26703SOL     OW85046   5.717   1.527   6.366  0.2854 -0.2080 -0.2041
26703SOL    HW185047   5.712   1.512   6.461  1.0151  0.5737 -0.0211
26703SOL    HW285048   5.627   1.543   6.339 -0.0827 -1.5755  0.1483
26704SOL     OW85049   8.428   1.307   0.968  0.7009  0.1913 -0.3520
26704SOL    HW185050   8.477   1.226   0.954 -1.5179 -1.3824  0.4132
26704SOL    HW285051   8.426   1.318   1.063 -0.0788  0.4292 -0.3888
26705SOL     OW85052   5.744   0.849   1.989  0.4995 -0.1102 -0.3472
26705SOL    HW185053   5.715   0.786   2.055 -2.0267  0.7221 -0.5418
26705SOL    HW285054   5.764   0.795   1.913  0.8260 -0.8714  0.2596
26706SOL     OW85055   9.838   3.897   2.162  0.1887  0.0234 -0.0225
26706SOL    HW185056   9.776   3.963   2.192  1.2424  0.2060  1.8985
26706SOL    HW285057   9.833   3.901   2.067 -0.1464  2.5324  0.0346
26707SOL     OW85058   3.422   5.274   9.570 -0.5298  0.6166  0.0329
26707SOL    HW185059   3.377   5.189   9.572 -4.1422  2.2735 -1.8421
26707SOL    HW285060   3.420   5.303   9.661 -0.1611 -0.8272  0.5395
26708SOL     OW85061   0.883   7.986  10.324  0.2567  0.0725 -0.4149
26708SOL    HW185062   0.979   7.984  10.331  0.2821 -1.6333 -0.8429
26708SOL    HW285063   0.852   7.975  10.414  0.4668 -0.0666 -0.3589
26709SOL     OW85064   8.477   3.057   5.229 -0.3604  0.0088  0.2121
26709SOL    HW185065   8.445   3.069   5.139  0.0753 -1.3533 -0.1488
26709SOL    HW285066   8.570   3.078   5.224  0.6283 -3.8210 -0.6273
26710SOL     OW85067  10.235   5.256   4.364  0.3566  0.5443  0.1330
26710SOL    HW185068  10.192   5.282   4.282  0.6781  0.3994 -0.0826
26710SOL    HW285069  10.226   5.333   4.420 -0.0019  0.5886  0.0175
26711SOL     OW85070   7.437   2.070   1.807  0.2278  0.2912 -0.1749
26711SOL    HW185071   7.366   2.026   1.854  1.4977 -1.3608  0.2829
26711SOL    HW285072   7.455   2.013   1.732  0.3683  1.2651 -0.9087
26712SOL     OW85073   6.418   7.292   0.582  0.0937 -0.3154  0.1572
26712SOL    HW185074   6.500   7.286   0.532 -0.3250 -0.6014 -0.5146
26712SOL    HW285075   6.351   7.261   0.521 -0.8792  2.1219 -0.1480
26713SOL     OW85076   5.725   9.750   9.730 -0.5374 -0.6332  0.0452
26713SOL    HW185077   5.780   9.682   9.768 -1.1823 -1.1051  0.1639
26713SOL    HW285078   5.692   9.799   9.806  0.7172  0.4635 -0.0842
26714SOL     OW85079   8.541   2.402   5.617 -0.2281  0.0345  0.2188
26714SOL    HW185080   8.470   2.395   5.680  0.2656  0.5554  0.8422
26714SOL    HW285081   8.507   2.462   5.550  0.0683  1.3117  1.1678
26715SOL     OW85082   8.267   1.184   3.301  0.2223 -0.1316  0.1716
26715SOL    HW185083   8.242   1.124   3.372  1.0530  1.5983  2.0263
26715SOL    HW285084   8.206   1.163   3.230 -0.6565 -1.9540  1.3703
26716SOL     OW85085   5.212   9.930   0.093  0.2424 -0.0812  0.1951
26716SOL    HW185086   5.162   9.984   0.031  1.5135 -1.1892 -1.9177
26716SOL    HW285087   5.291   9.905   0.045  0.8677 -1.7770  1.9669
26717SOL     OW85088   1.498   0.361   6.554 -0.0794 -0.4374  0.3610
26717SOL    HW185089   1.461   0.291   6.500  0.9219 -0.3060 -0.5271
26717SOL    HW285090   1.534   0.316   6.630 -3.0070 -0.4766  1.8940
26718SOL     OW85091   6.721   0.090  10.375 -0.6684 -0.5453 -0.1282
26718SOL    HW185092   6.729   0.126  10.464 -1.1404 -0.0729 -0.2693
26718SOL    HW285093   6.800   0.038  10.363  0.4954  1.1822 -0.2432
26719SOL     OW85094  10.053   2.436   7.481 -0.2466  0.3602 -0.1795
26719SOL    HW185095  10.093   2.471   7.560 -1.7870 -0.9220  1.2405
26719SOL    HW285096  10.107   2.361   7.457 -1.1237 -0.7467  1.1381
26720SOL     OW85097   0.100   0.134   6.666  0.4472  0.3571 -0.4268
26720SOL    HW185098   0.145   0.187   6.600  2.8615 -1.2963 -0.2633
26720SOL    HW285099   0.160   0.060   6.681 -1.3839 -0.8324  1.4948
26721SOL     OW85100   1.408   7.968   6.370  0.0405 -0.0432  0.0512
26721SOL    HW185101   1.412   7.873   6.381  0.2288 -0.0838 -0.3457
26721SOL    HW285102   1.404   7.980   6.275 -1.0474  0.3086  0.1335
26722SOL     OW85103   3.370   1.582   3.594 -0.0234  0.4741 -0.6489
26722SOL    HW185104   3.357   1.487   3.587  1.9493  0.0926  0.2664
26722SOL    HW285105   3.326   1.605   3.676  1.0782 -0.0102  0.1066
26723SOL     OW85106  11.002   3.352   1.770  0.0189 -1.0636 -0.0779
26723SOL    HW185107  10.988   3.374   1.678  2.6761  1.3583 -0.0363
26723SOL    HW285108  11.011   3.256   1.771  0.9419 -1.0760 -2.5333
26724SOL     OW85109   9.289   3.652   0.681 -0.3641 -0.2205  0.9344
26724SOL    HW185110   9.260   3.730   0.729 -1.0829 -1.4487  2.5844
26724SOL    HW285111   9.372   3.628   0.723  1.2823  1.1271 -1.3318
26725SOL     OW85112   5.049   2.060  10.657 -0.1669 -0.4815 -0.2057
26725SOL    HW185113   5.026   1.970  10.635  0.7787 -0.8511  0.2590
26725SOL    HW285114   5.144   2.059  10.665 -0.2498  0.2466  1.1411
26726SOL     OW85115  10.924   3.828   3.102  0.3383  0.2044 -0.9623
26726SOL    HW185116  11.001   3.877   3.073  0.7455 -0.0023 -0.2399
26726SOL    HW285117  10.945   3.737   3.084  0.1757  0.1656 -0.9582
26727SOL     OW85118   2.033   6.328   0.514  0.2024 -0.1400  0.1991
26727SOL    HW185119   2.047   6.324   0.609 -0.3069 -3.8775  0.2974
26727SOL    HW285120   1.965   6.394   0.503  0.8666  1.0093  2.2995
26728SOL     OW85121   8.773   7.996   2.561 -0.1091 -0.5661  0.1583
26728SOL    HW185122   8.752   8.022   2.651  2.5805  3.5871 -0.1424
26728SOL    HW285123   8.859   7.954   2.568  0.0025 -0.4382 -0.4229
26729SOL     OW85124  11.028   5.957   6.723 -0.1810 -0.0844  0.0619
26729SOL    HW185125  11.011   5.906   6.802  0.0880 -0.0181  0.1643
26729SOL    HW285126  11.084   6.029   6.752  0.1223 -0.1963 -0.2310
26730SOL     OW85127   6.408  10.943  10.920  0.0943  0.6838 -0.4307
26730SOL    HW185128   6.409  11.016  10.859 -0.2472 -0.5292 -1.9557
26730SOL    HW285129   6.417  10.865  10.865 -2.2535 -0.6032  0.8311
26731SOL     OW85130   5.434   5.359   8.888 -0.2275  0.0064 -0.6380
26731SOL    HW185131   5.342   5.368   8.862 -0.2445 -0.2745 -0.6812
26731SOL    HW285132   5.465   5.284   8.837 -0.1378 -0.2757 -0.1704
26732SOL     OW85133   5.438  11.474  10.842  0.3425  0.2063  0.2646
26732SOL    HW185134   5.428  11.569  10.853  0.9516  0.5536 -1.7802
26732SOL    HW285135   5.502  11.449  10.909  2.0188  1.6861 -0.6847
26733SOL     OW85136   9.751  10.902   8.116  0.6435 -0.2555 -0.2616
26733SOL    HW185137   9.660  10.875   8.101  0.1182  0.3291  1.6496
26733SOL    HW285138   9.785  10.922   8.028 -1.8624  1.9719 -0.8513
26734SOL     OW85139  10.383   2.689   3.188  0.1288  0.1596  0.1374
26734SOL    HW185140  10.432   2.638   3.254  0.4461  0.6186  0.2676
26734SOL    HW285141  10.447   2.705   3.119 -0.0154  0.2347  0.0229
26735SOL     OW85142   3.541   1.907   4.210  0.2230 -0.0570  0.4793
26735SOL    HW185143   3.527   1.918   4.116 -1.3929  1.4685  0.8274
26735SOL    HW285144   3.624   1.951   4.227 -1.0708  2.7688  0.1884
26736SOL     OW85145   8.974   6.200   0.368 -0.2725 -0.0310 -0.5637
26736SOL    HW185146   8.958   6.262   0.439  0.0878 -0.4618 -0.0977
26736SOL    HW285147   9.069   6.189   0.366 -0.3624 -0.9691 -0.2845
26737SOL     OW85148   7.812   2.420   4.849 -0.4622 -0.0125  0.0186
26737SOL    HW185149   7.862   2.467   4.783  1.5103 -1.5245  0.3434
26737SOL    HW285150   7.723   2.455   4.841  0.0891  1.0673 -2.2384
26738SOL     OW85151   8.273   5.237   5.367 -0.0694  0.1912  0.1904
26738SOL    HW185152   8.312   5.227   5.453  1.6305  0.9209 -0.4613
26738SOL    HW285153   8.224   5.156   5.353  1.9577 -1.1691  0.6857
26739SOL     OW85154  11.343   6.851   4.903  0.5152 -0.0580 -0.4876
26739SOL    HW185155  11.418   6.867   4.845  1.9143 -2.0258  0.6635
26739SOL    HW285156  11.382   6.835   4.989 -1.3602  0.2957  0.4786
26740SOL     OW85157   8.753   5.802  11.503  0.5471 -0.0464  0.1480
26740SOL    HW185158   8.703   5.751  11.439 -2.7650  1.8094  1.0067
26740SOL    HW285159   8.822   5.844  11.452  1.3267 -2.6955 -1.1334
26741SOL     OW85160   5.092   9.665  10.606 -0.6957  0.1797 -0.0179
26741SOL    HW185161   5.077   9.661  10.512 -1.0123  1.3663 -0.0310
26741SOL    HW285162   5.186   9.683  10.615 -0.1235 -2.4153 -0.0260
26742SOL     OW85163   5.382   5.160   7.049  0.0298 -0.3095 -0.4165
26742SOL    HW185164   5.344   5.190   6.966 -0.7123 -1.5331 -0.5548
26742SOL    HW285165   5.315   5.101   7.085  0.7831 -0.5930  0.5461
26743SOL     OW85166   5.305   0.464   0.444 -0.1018 -0.0275  0.1621
26743SOL    HW185167   5.310   0.559   0.454  2.3210 -0.0287 -0.5715
26743SOL    HW285168   5.321   0.449   0.350 -3.1582 -1.0667 -0.3128
26744SOL     OW85169   7.662   6.553   7.242  0.0659  0.4791  0.5328
26744SOL    HW185170   7.722   6.479   7.234  1.5149  1.4523  1.6685
26744SOL    HW285171   7.673   6.603   7.160  0.1069  0.1624  0.3463
26745SOL     OW85172   6.705   4.941  11.068 -0.3503  0.0237 -0.0931
26745SOL    HW185173   6.658   4.947  11.151  2.1410  1.5260  1.3333
26745SOL    HW285174   6.727   5.031  11.047  1.8200 -0.5771 -0.6573
26746SOL     OW85175   2.144   4.280  10.067  0.3444  0.0692 -0.1129
26746SOL    HW185176   2.204   4.335  10.116  1.3108  0.4085 -1.6271
26746SOL    HW285177   2.155   4.306   9.975 -0.1413 -1.7028 -0.7274
26747SOL     OW85178   9.150   5.793  10.044  0.3416  1.1959 -0.1454
26747SOL    HW185179   9.103   5.877  10.038  0.5340  1.3322  0.2245
26747SOL    HW285180   9.113   5.740   9.974 -0.7770  1.0897  0.5171
26748SOL     OW85181   0.198   0.819   0.603  0.1060 -0.5032  0.4666
26748SOL    HW185182   0.269   0.812   0.539  3.0126 -1.8842  3.5056
26748SOL    HW285183   0.187   0.729   0.636 -0.9425  0.1938  2.1457
26749SOL     OW85184   2.154   2.879   2.950  0.3133 -0.0965  0.4043
26749SOL    HW185185   2.133   2.862   2.858 -0.7938  0.5582  0.5108
26749SOL    HW285186   2.249   2.879   2.954  0.3721 -0.7891 -0.6132
26750SOL     OW85187   9.971   3.920  11.512  0.2829 -0.4615 -0.5891
26750SOL    HW185188  10.036   3.859  11.548 -0.4203 -0.5599  0.5771
26750SOL    HW285189   9.927   3.955  11.590 -0.4220  0.3081 -1.3243
26751SOL     OW85190   9.035   8.520   3.606  0.1095  0.1940  0.4217
26751SOL    HW185191   9.111   8.530   3.550 -0.8573 -0.1090 -0.9913
26751SOL    HW285192   9.028   8.603   3.654  0.7453  0.5878 -0.1622
26752SOL     OW85193   1.257   9.036   1.262 -1.0470  0.1705  0.0468
26752SOL    HW185194   1.219   9.017   1.348 -1.2433  0.8678  0.1175
26752SOL    HW285195   1.182   9.056   1.206 -0.9077 -0.1274 -0.2561
26753SOL     OW85196   4.592   1.495   9.638  0.1494  0.4290  0.2152
26753SOL    HW185197   4.545   1.542   9.706  0.8621  1.1327  0.2275
26753SOL    HW285198   4.525   1.440   9.597 -0.8814  1.9892 -0.2936
26754SOL     OW85199   1.927   1.011   7.265  0.3284  0.2255 -0.4978
26754SOL    HW185200   1.861   1.039   7.329  1.6693 -0.6363  1.3267
26754SOL    HW285201   1.884   1.025   7.180 -1.7838  0.7373  0.5724
26755SOL     OW85202   7.360   6.458   7.274 -0.0710 -0.0871  0.2983
26755SOL    HW185203   7.380   6.462   7.180 -1.3376 -0.1074  0.0113
26755SOL    HW285204   7.440   6.489   7.316  1.1131 -1.5717 -0.7105
26756SOL     OW85205   8.505   5.081   3.563  0.1621 -0.3232 -0.4919
26756SOL    HW185206   8.460   5.137   3.500  1.5476  1.0534 -0.3187
26756SOL    HW285207   8.540   5.009   3.510 -1.1536 -0.7613 -0.8064
26757SOL     OW85208   3.694   9.839  11.022  0.2241  0.1172  0.4474
26757SOL    HW185209   3.707   9.933  11.008 -0.9171  0.1510 -0.5548
26757SOL    HW285210   3.639   9.833  11.100  0.1183  0.2849  0.3857
26758SOL     OW85211   3.621   0.098   9.333 -0.0899 -0.0029  0.4555
26758SOL    HW185212   3.654   0.113   9.245  1.7628 -0.8213  0.9640
26758SOL    HW285213   3.660   0.167   9.386  0.2859 -0.5894  0.9578
26759SOL     OW85214   1.731   4.562   5.091 -0.2384 -0.1318 -0.0990
26759SOL    HW185215   1.683   4.560   5.174  0.0432 -0.3365  0.0564
26759SOL    HW285216   1.687   4.496   5.037  1.0091 -1.6595  0.6695
26760SOL     OW85217   2.197   9.287   5.434 -0.3904 -0.2190 -0.2468
26760SOL    HW185218   2.121   9.301   5.377 -0.4554 -1.1945 -0.4349
26760SOL    HW285219   2.182   9.200   5.472 -0.9018  0.8668  2.1766
26761SOL     OW85220   4.474   4.507   1.547  0.3692  0.2651 -0.2282
26761SOL    HW185221   4.522   4.557   1.614 -1.5597  0.3036  1.2186
26761SOL    HW285222   4.419   4.572   1.504 -0.2244 -0.1601 -0.1247
26762SOL     OW85223   3.860   0.483   6.573  0.3115 -0.0396 -0.4243
26762SOL    HW185224   3.883   0.521   6.658  2.1549  0.3450 -1.0449
26762SOL    HW285225   3.877   0.390   6.583 -1.8955 -0.4102  0.3583
26763SOL     OW85226   4.533  11.146   0.736  0.5251  0.2447  0.2787
26763SOL    HW185227   4.454  11.151   0.681  0.0601  2.0345  1.0371
26763SOL    HW285228   4.605  11.148   0.674 -0.0107 -0.5048 -0.3875
26764SOL     OW85229   0.485   9.192   7.980  0.4345 -0.5511 -0.5822
26764SOL    HW185230   0.455   9.128   7.915  0.5551  0.7369 -1.9754
26764SOL    HW285231   0.411   9.253   7.987 -0.5099 -1.8683  2.2480
26765SOL     OW85232   0.099  10.963   5.787  0.3291  0.1414  0.0666
26765SOL    HW185233   0.128  11.054   5.794 -0.4682  0.3744  0.3989
26765SOL    HW285234   0.127  10.936   5.699 -3.0723  2.0501 -1.7977
26766SOL     OW85235   5.162   6.896   7.173  0.2587 -0.0436 -0.4382
26766SOL    HW185236   5.164   6.923   7.265 -1.7278  0.8029 -0.5930
26766SOL    HW285237   5.093   6.950   7.134  1.3352 -0.0957 -2.5348
26767SOL     OW85238   3.049  10.001  10.746 -0.4061  0.7645  0.1553
26767SOL    HW185239   3.095   9.917  10.738  1.5441  1.7092  0.6579
26767SOL    HW285240   2.989  10.003  10.672  1.6086  0.1136 -1.6139
26768SOL     OW85241  10.797  10.074   0.404  0.3477 -0.0364  0.1719
26768SOL    HW185242  10.744  10.006   0.446 -0.1005  0.0210 -0.2878
26768SOL    HW285243  10.848  10.026   0.338  0.8605 -0.0878  0.5997
26769SOL     OW85244   5.854   8.246   1.902 -0.2944  0.3104 -0.3127
26769SOL    HW185245   5.846   8.237   1.807 -0.0828  0.2646 -0.3278
26769SOL    HW285246   5.817   8.165   1.937  1.3011 -0.5157 -0.4354
26770SOL     OW85247   3.406   9.922   0.772  0.4238 -0.0593  0.0790
26770SOL    HW185248   3.391   9.930   0.866 -1.2224  0.6488 -0.2155
26770SOL    HW285249   3.429   9.830   0.759 -1.6756 -0.7672  0.9163
26771SOL     OW85250   0.541   6.544   9.008 -0.3084  0.2267  0.0404
26771SOL    HW185251   0.580   6.474   9.060 -1.8444 -0.3022  0.5220
26771SOL    HW285252   0.539   6.619   9.067 -0.0791  0.2362  0.0363
26772SOL     OW85253   8.370   6.826   8.618  0.6199 -0.0715  0.1273
26772SOL    HW185254   8.315   6.758   8.656 -0.2984  0.5545 -0.0473
26772SOL    HW285255   8.322   6.854   8.539  0.5802  1.3208  0.6233
26773SOL     OW85256   7.327   7.709   2.538  0.1965  0.0440 -0.2985
26773SOL    HW185257   7.329   7.683   2.630  1.4419 -0.4775 -0.4546
26773SOL    HW285258   7.334   7.804   2.540  0.8644 -0.0104  0.1289
26774SOL     OW85259  10.923   4.380   1.622 -0.0186  0.2034  0.2096
26774SOL    HW185260  10.977   4.303   1.642  0.2875  0.5592  0.7612
26774SOL    HW285261  10.945   4.443   1.690  0.3274  1.0861 -0.6920
26775SOL     OW85262  10.347  10.081   8.185  0.3487  0.4429 -0.2424
26775SOL    HW185263  10.423  10.029   8.209 -0.5132 -1.5312 -1.5634
26775SOL    HW285264  10.370  10.120   8.100  1.3728  3.1829  1.1545
26776SOL     OW85265   1.408   5.960   6.576  0.1823  0.6929 -0.0195
26776SOL    HW185266   1.339   5.893   6.577  0.5653  0.2416  2.0883
26776SOL    HW285267   1.389   6.013   6.499 -0.1886 -1.7760 -1.7473
26777SOL     OW85268   7.422  10.087  10.602  0.0633  0.0242  0.1696
26777SOL    HW185269   7.375  10.052  10.678 -2.1023  2.2335 -0.0223
26777SOL    HW285270   7.449  10.175  10.629 -0.7336  0.8438 -1.5640
26778SOL     OW85271   0.674   6.799   8.162  0.0976 -0.0388 -0.5161
26778SOL    HW185272   0.617   6.876   8.160  1.3016  0.8846 -0.7453
26778SOL    HW285273   0.633   6.740   8.225 -0.6198  0.9852  0.0073
26779SOL     OW85274   4.440   9.651   7.086  0.2551  0.1912 -0.2884
26779SOL    HW185275   4.529   9.645   7.121 -0.5164  0.5522  1.8972
26779SOL    HW285276   4.416   9.743   7.099 -1.8912 -0.6763  3.2417
26780SOL     OW85277   3.027   3.411   0.130 -0.1486  0.6926 -0.4892
26780SOL    HW185278   3.041   3.396   0.037 -0.3914 -0.4428 -0.3616
26780SOL    HW285279   3.104   3.460   0.159  0.5730 -0.1099 -1.0248
26781SOL     OW85280   4.948   2.292  11.584  0.2574 -0.1136  0.6241
26781SOL    HW185281   4.869   2.241  11.601  1.8810 -2.2989  1.9595
26781SOL    HW285282   4.925   2.381  11.613 -2.1638 -0.3051 -0.4424
26782SOL     OW85283   2.362   7.517  10.199 -0.2602  0.3736 -0.0132
26782SOL    HW185284   2.311   7.503  10.279  0.5260 -1.2945  0.2529
26782SOL    HW285285   2.298   7.538  10.132 -1.0919  0.2912  0.7439
26783SOL     OW85286   6.742   5.356  10.175 -0.1239  0.2453  0.1674
26783SOL    HW185287   6.800   5.415  10.127  1.7259 -0.4967  1.3652
26783SOL    HW285288   6.731   5.398  10.260 -0.8407  0.0606  0.1706
26784SOL     OW85289  11.160   7.703   7.553  0.3137 -0.1490 -0.1525
26784SOL    HW185290  11.091   7.763   7.525  0.2246  0.0135  0.4222
26784SOL    HW285291  11.186   7.658   7.472 -1.4676 -1.2689 -0.1594
26785SOL     OW85292   8.932   6.991   5.780 -0.2764  0.4819 -0.2104
26785SOL    HW185293   8.986   6.936   5.837 -0.5588  0.0390 -0.3647
26785SOL    HW285294   8.847   6.946   5.777 -0.1942  0.3736 -1.1619
26786SOL     OW85295   6.388   8.094   3.079 -0.1309  0.2087 -0.2283
26786SOL    HW185296   6.456   8.122   3.141 -0.3571 -0.2614  0.2439
26786SOL    HW285297   6.422   8.013   3.041  0.6784  1.2797 -1.8504
26787SOL     OW85298   9.352   5.739   6.582  0.4490  0.2711  0.1431
26787SOL    HW185299   9.266   5.758   6.544  0.5521 -0.9071 -0.7635
26787SOL    HW285300   9.340   5.749   6.676 -0.6072  0.4359  0.0012
26788SOL     OW85301   6.264   1.382   3.661  0.7677 -0.6565  0.2557
26788SOL    HW185302   6.220   1.301   3.688 -1.0452  0.2849  0.2720
26788SOL    HW285303   6.258   1.438   3.738  0.3349  0.1487 -0.3569
26789SOL     OW85304   3.395   8.039   4.590  0.2606 -0.0308 -0.2805
26789SOL    HW185305   3.474   8.082   4.558  1.2065 -0.3988  1.4756
26789SOL    HW285306   3.357   8.100   4.653 -0.5672 -0.1078 -0.6778
26790SOL     OW85307   4.769   2.365   2.415 -0.5970 -0.0563 -0.1267
26790SOL    HW185308   4.716   2.378   2.494  0.4079 -0.7346  0.6837
26790SOL    HW285309   4.833   2.298   2.440  0.5204  0.5947 -1.1364
26791SOL     OW85310   1.265   5.767  11.083  0.1540  0.1380  0.3165
26791SOL    HW185311   1.313   5.837  11.128 -0.3956 -0.1404  1.3657
26791SOL    HW285312   1.214   5.725  11.152 -1.6148  0.4284 -0.7460
26792SOL     OW85313   4.821   1.448   5.457 -0.1052 -0.6892  0.2486
26792SOL    HW185314   4.897   1.392   5.441  1.1274  0.8984  0.3673
26792SOL    HW285315   4.829   1.476   5.548 -0.5506 -0.1034  0.1164
26793SOL     OW85316   2.882   3.381   3.830  0.0436  0.0379 -0.1228
26793SOL    HW185317   2.888   3.286   3.817 -0.8764  0.0369 -0.6241
26793SOL    HW285318   2.956   3.402   3.886 -0.8254 -1.2744  1.6039
26794SOL     OW85319   6.925   0.850   0.026  0.3123 -0.4380  0.2023
26794SOL    HW185320   6.989   0.912  -0.009 -1.3795  1.3246  0.0983
26794SOL    HW285321   6.929   0.776  -0.035  0.1836  0.9154 -1.5212
26795SOL     OW85322   9.465   2.462   3.325  0.1924 -0.2420  0.0357
26795SOL    HW185323   9.392   2.400   3.328 -0.7638  0.8886  1.1514
26795SOL    HW285324   9.536   2.417   3.370 -0.8634 -0.1161  1.9229
26796SOL     OW85325   3.997   6.358   0.813 -0.3383 -0.0001 -0.1114
26796SOL    HW185326   3.971   6.270   0.839  0.8654 -1.0189 -2.0665
26796SOL    HW285327   3.915   6.403   0.793 -0.9948 -0.4982  1.3555
26797SOL     OW85328   1.303   3.233   2.834  0.4746  0.0937 -0.3437
26797SOL    HW185329   1.392   3.268   2.838  0.0199  1.2396  0.0059
26797SOL    HW285330   1.252   3.289   2.892 -0.4481 -0.6775 -0.3729
26798SOL     OW85331   1.887   2.357  10.880 -1.0530  0.1871  0.0190
26798SOL    HW185332   1.868   2.443  10.917 -2.6719 -0.4443  0.7480
26798SOL    HW285333   1.804   2.327  10.843 -0.5848 -1.1421 -0.0259
26799SOL     OW85334   8.723   5.390   3.013  0.3572 -0.0766  0.1387
26799SOL    HW185335   8.674   5.441   2.949 -0.3295 -1.8865 -0.8586
26799SOL    HW285336   8.797   5.354   2.963  1.3021  0.5779  1.0196
26800SOL     OW85337   0.168   9.813   1.263  0.4040  0.9610  0.2482
26800SOL    HW185338   0.099   9.748   1.274  0.1422  1.2172  0.1518
26800SOL    HW285339   0.248   9.768   1.288  0.1056  0.8937  1.1126
26801SOL     OW85340   7.977   5.962   6.165  0.1654  0.1190  0.7649
26801SOL    HW185341   8.021   5.985   6.084 -0.4089 -1.0396  0.0838
26801SOL    HW285342   7.941   6.044   6.198  0.3733  0.5959 -0.1718
26802SOL     OW85343   7.392   8.725  10.809 -0.6234 -0.2101 -0.3640
26802SOL    HW185344   7.430   8.657  10.752  0.0956  0.5460 -0.8052
26802SOL    HW285345   7.439   8.715  10.892 -1.8076 -1.4416  0.1953
26803SOL     OW85346   6.564   5.168   7.461  0.0951  0.5865 -0.3985
26803SOL    HW185347   6.504   5.094   7.476  0.2791  0.4008 -0.5766
26803SOL    HW285348   6.550   5.225   7.537 -1.6746  1.4745 -1.3224
26804SOL     OW85349   4.060   3.493   2.681 -0.3318 -0.1354 -0.5694
26804SOL    HW185350   4.119   3.549   2.629  0.5647 -0.2884  0.2687
26804SOL    HW285351   4.010   3.445   2.615 -0.8079  1.3032 -1.3159
26805SOL     OW85352   3.827   7.865   9.428  0.0786 -0.1516  0.5065
26805SOL    HW185353   3.762   7.828   9.368  1.2731 -1.4395 -0.0557
26805SOL    HW285354   3.892   7.796   9.438  0.7836  0.6722  1.9741
26806SOL     OW85355   9.401   4.036   3.559 -0.6827  0.1480  0.0591
26806SOL    HW185356   9.423   3.954   3.514 -1.3698  0.2808 -0.5396
26806SOL    HW285357   9.485   4.075   3.581 -0.3461 -0.7827  0.4626
26807SOL     OW85358   0.355   5.121   0.254  0.5800  0.3000 -0.3255
26807SOL    HW185359   0.358   5.060   0.328 -1.3069 -0.0997 -0.5316
26807SOL    HW285360   0.352   5.065   0.177  2.3028  0.7150 -0.7342
26808SOL     OW85361   1.438   9.852   4.790 -0.0683  0.1564  0.9168
26808SOL    HW185362   1.446   9.758   4.774 -1.0330  0.1771  0.2629
26808SOL    HW285363   1.377   9.859   4.864 -2.6714  0.3269 -1.0980
26809SOL     OW85364   8.834   6.249   2.443 -0.2099  0.0214 -0.3057
26809SOL    HW185365   8.742   6.273   2.455  0.2502  1.8397 -0.1312
26809SOL    HW285366   8.839   6.158   2.471 -1.9362 -0.0829 -0.2428
26810SOL     OW85367   3.862   1.963   7.742 -0.4577  0.0015  0.4126
26810SOL    HW185368   3.951   1.998   7.748  0.4590 -1.9659 -0.7156
26810SOL    HW285369   3.820   2.019   7.676  0.2386  0.3568  0.2557
26811SOL     OW85370   5.921   3.470   3.475 -0.4932  0.5754  0.1049
26811SOL    HW185371   5.948   3.505   3.390 -0.4316  1.0911  0.3353
26811SOL    HW285372   5.833   3.506   3.489 -0.8495 -0.1782 -0.1165
26812SOL     OW85373   5.080   8.033   7.930  0.0977  0.0427 -0.1972
26812SOL    HW185374   5.030   8.069   7.857  1.5121  0.9764 -0.7323
26812SOL    HW285375   5.019   8.039   8.005 -1.3790 -0.9734 -1.2653
26813SOL     OW85376   4.986   5.513   7.294 -0.7389  0.7254 -0.4632
26813SOL    HW185377   5.030   5.442   7.247 -0.2220 -0.2254  1.3566
26813SOL    HW285378   5.057   5.557   7.341 -1.0919  2.3228 -1.3717
26814SOL     OW85379   5.332   8.989   4.469 -0.6943  0.1689  0.3826
26814SOL    HW185380   5.280   9.004   4.548 -1.7415 -1.4757  0.0576
26814SOL    HW285381   5.387   8.913   4.491 -1.4197 -0.6714 -0.6356
26815SOL     OW85382   8.210   0.610  11.418 -0.0443  0.7547  0.5581
26815SOL    HW185383   8.239   0.548  11.351 -0.1921 -0.4903  1.5769
26815SOL    HW285384   8.288   0.623  11.473 -0.1766  1.0142  0.6849
26816SOL     OW85385   6.575   1.601   4.182 -0.2307 -0.3969  0.1534
26816SOL    HW185386   6.547   1.514   4.209 -0.0073 -0.1630  1.1933
26816SOL    HW285387   6.643   1.585   4.116 -0.2085 -1.0077  0.3169
26817SOL     OW85388   4.395   6.074   0.803  0.0657 -0.4389 -0.0895
26817SOL    HW185389   4.394   6.147   0.742  1.7858 -0.6020 -0.3506
26817SOL    HW285390   4.321   6.019   0.776 -0.2050  0.3316 -0.9573
26818SOL     OW85391   2.748   9.571   0.491  0.2770 -0.0330  0.0384
26818SOL    HW185392   2.776   9.555   0.401  0.7253 -0.8596  0.3190
26818SOL    HW285393   2.681   9.639   0.483 -0.2506 -0.6524 -1.0010
26819SOL     OW85394   6.996   1.247   7.770 -0.5792  0.2888 -0.1117
26819SOL    HW185395   6.915   1.288   7.740 -0.7204 -0.5275 -0.8514
26819SOL    HW285396   7.042   1.221   7.690 -0.6295 -1.2702  0.3417
26820SOL     OW85397   7.806  11.234   6.525  0.0272 -0.6660  0.2232
26820SOL    HW185398   7.891  11.224   6.484  0.0232 -0.2693  0.1154
26820SOL    HW285399   7.744  11.236   6.452  0.2236  2.5036  0.0217
26821SOL     OW85400  10.743  10.520   7.885  0.6513  0.1479  0.2884
26821SOL    HW185401  10.710  10.507   7.974  0.3738  0.9329  0.3127
26821SOL    HW285402  10.834  10.546   7.897  1.4517 -2.3439  0.2081
26822SOL     OW85403   5.119   6.459   3.367  0.3317  0.0741  0.2236
26822SOL    HW185404   5.099   6.525   3.432  1.8323  1.1120 -0.3111
26822SOL    HW285405   5.199   6.491   3.324 -0.5142 -0.6252 -2.0210
26823SOL     OW85406   2.663  11.050   9.944  0.4923  0.3888  0.3196
26823SOL    HW185407   2.715  11.113   9.993 -0.5125  0.8805  0.7747
26823SOL    HW285408   2.578  11.050   9.987 -0.5223  1.0511 -1.5898
26824SOL     OW85409   3.357   6.597   7.487 -0.0069 -0.4280 -0.2894
26824SOL    HW185410   3.274   6.564   7.521  0.5212 -0.2809  1.2485
26824SOL    HW285411   3.340   6.616   7.395 -1.9282  0.4937  0.2085
26825SOL     OW85412   7.236   9.082   0.604 -0.1239 -0.1419 -0.1615
26825SOL    HW185413   7.217   9.176   0.600 -1.0712 -0.3688 -2.6190
26825SOL    HW285414   7.323   9.074   0.564 -0.6336 -0.4275 -1.2358
26826SOL     OW85415   6.733   1.008   8.255 -0.7534 -0.0477 -0.4069
26826SOL    HW185416   6.829   1.005   8.262 -0.7048  0.1358 -0.9901
26826SOL    HW285417   6.716   1.090   8.209 -1.2319  0.3128  0.3887
26827SOL     OW85418   3.897   0.022   9.286  0.4511 -0.2310  0.4135
26827SOL    HW185419   3.843  -0.057   9.294 -0.2803  0.1989 -0.1603
26827SOL    HW285420   3.890   0.046   9.193  0.7046  0.4827  0.5742
26828SOL     OW85421   1.262   3.515   8.614  0.2726 -0.2973  0.2695
26828SOL    HW185422   1.280   3.608   8.628 -1.0135  0.0138 -0.0485
26828SOL    HW285423   1.167   3.508   8.617  0.1961 -1.2160 -1.8903
26829SOL     OW85424  10.642   9.238   9.129  0.0263  0.1235 -0.4365
26829SOL    HW185425  10.676   9.304   9.189 -1.6836 -0.2885  1.0529
26829SOL    HW285426  10.570   9.197   9.176 -0.5825 -1.0842 -2.3054
26830SOL     OW85427   0.725   6.768   2.616 -0.0826 -0.1316 -0.1711
26830SOL    HW185428   0.689   6.810   2.694 -0.3082  0.8986 -0.8054
26830SOL    HW285429   0.807   6.813   2.600 -0.4037  0.1926 -0.9591
26831SOL     OW85430   1.835   9.097   3.630  0.2045  0.5130  0.2713
26831SOL    HW185431   1.775   9.023   3.617 -1.9026  1.8322  1.6826
26831SOL    HW285432   1.870   9.116   3.543 -0.2536 -1.2744 -0.3426
26832SOL     OW85433   5.282   3.991   1.591  0.9383 -0.2188 -0.2300
26832SOL    HW185434   5.222   3.964   1.660  2.5476  0.1484  1.3963
26832SOL    HW285435   5.249   4.076   1.562  0.2772 -0.3481  0.1309
26833SOL     OW85436   5.206   0.135   5.656 -0.8841  0.1601  0.0528
26833SOL    HW185437   5.177   0.189   5.582 -2.6827 -1.0472 -0.1787
26833SOL    HW285438   5.169   0.179   5.733 -0.5880  0.3840  0.0706
26834SOL     OW85439   2.290   3.593   3.350  0.1447  0.1160  0.1973
26834SOL    HW185440   2.221   3.573   3.287 -0.0582  0.1399  0.4114
26834SOL    HW285441   2.245   3.635   3.423  0.6156  1.8043 -0.4342
26835SOL     OW85442  11.287   1.370   3.041 -0.9293  0.0498  0.0308
26835SOL    HW185443  11.328   1.453   3.016 -1.1979 -0.1918 -1.3015
26835SOL    HW285444  11.193   1.386   3.030 -1.4880  1.0511  4.3595
26836SOL     OW85445  11.407  11.554   2.576  0.8876  0.2299 -0.0209
26836SOL    HW185446  11.334  11.564   2.638  1.8647  0.1092  1.2034
26836SOL    HW285447  11.389  11.473   2.530 -0.8410  1.2721 -1.2927
26837SOL     OW85448   5.183  11.261   8.576  0.2091  0.1726 -0.1772
26837SOL    HW185449   5.205  11.187   8.632 -0.4704  0.8112  0.9722
26837SOL    HW285450   5.151  11.221   8.495  0.2282 -0.7825  0.2698
26838SOL     OW85451   9.776   3.051   0.259 -0.1174 -0.1989  0.4044
26838SOL    HW185452   9.722   3.130   0.257 -1.1822 -0.9153 -0.7759
26838SOL    HW285453   9.738   2.997   0.327  0.6876  0.3192  1.2975
26839SOL     OW85454   0.006   8.699   9.668 -1.2784  0.3543 -0.0980
26839SOL    HW185455  -0.001   8.604   9.680 -1.6791  0.4008  0.0506
26839SOL    HW285456  -0.029   8.736   9.749 -3.0970  0.6677 -0.9669
26840SOL     OW85457   3.841  10.203   0.952 -0.2599  0.6525 -0.0004
26840SOL    HW185458   3.839  10.121   1.000 -1.0256  0.4316 -0.3843
26840SOL    HW285459   3.763  10.199   0.895  0.2657  1.1825 -0.7757
26841SOL     OW85460   5.477   2.983   3.502 -0.2064  0.0344  0.0432
26841SOL    HW185461   5.554   3.003   3.554  0.1940 -1.1696 -0.0388
26841SOL    HW285462   5.503   3.003   3.412 -0.2704  0.3844  0.1012
26842SOL     OW85463   5.938   4.562   4.303 -1.1408 -0.1544  0.1920
26842SOL    HW185464   6.030   4.588   4.302 -1.3885  0.7279  0.0222
26842SOL    HW285465   5.939   4.474   4.342 -0.2781  0.0361  0.6302
26843SOL     OW85466   7.620   6.220   1.488 -1.1139 -0.1681  0.2800
26843SOL    HW185467   7.581   6.157   1.427 -0.9236 -1.5868  1.5801
26843SOL    HW285468   7.667   6.167   1.551 -0.9339  1.2931  1.4271
26844SOL     OW85469   7.923   2.626   7.419  0.1146 -0.0352  0.0521
26844SOL    HW185470   7.936   2.579   7.502 -2.3248 -0.6209  0.1794
26844SOL    HW285471   7.951   2.716   7.438  0.5040 -0.3790  1.2143
26845SOL     OW85472   5.130   6.976   7.453 -1.0450 -0.0142 -0.2295
26845SOL    HW185473   5.220   6.971   7.485 -1.9987  0.2650  2.7565
26845SOL    HW285474   5.118   7.068   7.429 -0.6540  0.0115 -0.3242
26846SOL     OW85475   2.523   6.354  10.787 -0.2415  0.3774  0.1701
26846SOL    HW185476   2.588   6.422  10.804  0.1729  0.7704 -2.5312
26846SOL    HW285477   2.440   6.401  10.779 -0.2281  0.3568 -0.0887
26847SOL     OW85478   1.435   0.167   5.363 -0.4145  0.0835 -0.0109
26847SOL    HW185479   1.475   0.085   5.391 -1.5314  0.0961  1.8203
26847SOL    HW285480   1.460   0.230   5.430 -3.2043  0.1279  1.1556
26848SOL     OW85481   1.696   0.995   5.323 -0.1393  0.0563  1.1738
26848SOL    HW185482   1.778   0.955   5.352  2.0128  2.3108 -1.1529
26848SOL    HW285483   1.694   1.080   5.368 -2.2820 -0.7038  2.6487
26849SOL     OW85484   3.128   0.008  10.533  0.3134  0.6809  0.3797
26849SOL    HW185485   3.075  -0.002  10.454  1.0525  2.8894 -0.4994
26849SOL    HW285486   3.075   0.063  10.591 -0.3278 -1.1310  1.5736
26850SOL     OW85487   4.051   5.270   3.683  0.1230 -0.2541  0.3211
26850SOL    HW185488   4.040   5.283   3.777 -1.8027  0.2753  0.0548
26850SOL    HW285489   4.145   5.282   3.668  0.4023  0.0331  2.1022
26851SOL     OW85490   2.061   8.878   9.651 -0.1928 -0.8959  0.7759
26851SOL    HW185491   2.031   8.792   9.622 -0.2352 -0.5387 -0.3079
26851SOL    HW285492   1.992   8.909   9.709 -1.3278 -0.6427 -0.6540
26852SOL     OW85493   5.860   4.125   5.859 -0.3529 -0.0478 -0.3767
26852SOL    HW185494   5.782   4.119   5.803 -2.2914  1.0186  2.0185
26852SOL    HW285495   5.825   4.123   5.948  2.4953 -0.4624  0.8114
26853SOL     OW85496   6.383   0.999   8.824  0.7306 -0.5029  0.4827
26853SOL    HW185497   6.440   1.076   8.820 -2.0934  1.7996  1.0465
26853SOL    HW285498   6.364   0.988   8.917  0.2773 -1.2532  0.3108
26854SOL     OW85499  11.590   7.999   9.403  0.2446 -0.4372  0.5440
26854SOL    HW185500  11.614   7.913   9.368  1.7356  0.3187 -0.3658
26854SOL    HW285501  11.529   8.035   9.340 -0.7868 -1.0077  1.1860
26855SOL     OW85502   9.142   1.003   4.760  0.0708  0.2005  0.0244
26855SOL    HW185503   9.169   1.037   4.845  1.1153  0.8847 -0.5477
26855SOL    HW285504   9.047   1.015   4.757  0.1164  0.7968  0.8145
26856SOL     OW85505   3.652   5.343   6.965  0.1339 -0.0687 -0.4171
26856SOL    HW185506   3.649   5.249   6.946 -1.2310 -0.3006  0.7569
26856SOL    HW285507   3.744   5.367   6.955  0.6580 -1.7227  0.1518
26857SOL     OW85508   3.171   5.570   8.605 -0.3913  0.2217 -0.3967
26857SOL    HW185509   3.140   5.523   8.527 -0.3025 -1.3253  0.4422
26857SOL    HW285510   3.213   5.649   8.572 -2.4536  0.7962 -1.7563
26858SOL     OW85511   2.250   0.853   5.525 -0.6797  0.3849 -0.5113
26858SOL    HW185512   2.252   0.854   5.620  0.5912 -3.1591 -0.3655
26858SOL    HW285513   2.302   0.929   5.499  2.0896 -0.5594  1.7500
26859SOL     OW85514   4.995  10.398   7.851  0.0489 -0.2560  0.4331
26859SOL    HW185515   5.065  10.446   7.808  0.2362  1.5301  2.5199
26859SOL    HW285516   5.040  10.337   7.910 -0.1735 -0.9659 -0.1278
26860SOL     OW85517  11.507  10.290  11.282  0.0403  0.0077  0.7333
26860SOL    HW185518  11.526  10.375  11.321  1.2230 -0.8285  2.0853
26860SOL    HW285519  11.461  10.311  11.201  0.5633  1.9370  0.8756
26861SOL     OW85520  11.380   0.445   4.363 -0.3163 -0.3949  0.2485
26861SOL    HW185521  11.442   0.375   4.340 -1.0445 -0.3835 -2.0505
26861SOL    HW285522  11.397   0.463   4.456  4.2554  0.7842 -0.5568
26862SOL     OW85523   6.897   6.139   9.328 -0.0309 -0.3070 -0.1811
26862SOL    HW185524   6.815   6.108   9.287 -0.4142  0.5858 -0.1149
26862SOL    HW285525   6.869   6.176   9.411  0.5331 -0.5536  0.1196
26863SOL     OW85526   1.808  11.243   7.373  0.3932 -0.0252  0.3700
26863SOL    HW185527   1.828  11.254   7.280 -0.8506 -2.5217 -0.2625
26863SOL    HW285528   1.727  11.192   7.375 -0.7860  1.7040  2.8540
26864SOL     OW85529   0.314   3.973   5.082 -0.4593 -0.2301 -0.7794
26864SOL    HW185530   0.282   4.004   5.167 -0.7264 -2.3784 -0.0159
26864SOL    HW285531   0.235   3.962   5.029 -0.4165 -0.0619 -0.8777
26865SOL     OW85532   9.695   2.514   3.017  0.0481  0.7238 -0.0016
26865SOL    HW185533   9.766   2.488   3.076 -0.0472 -0.1864 -0.2608
26865SOL    HW285534   9.739   2.537   2.935  0.0073 -0.8224 -0.4929
26866SOL     OW85535  11.295  11.100   7.016 -0.3506 -0.2143  0.2564
26866SOL    HW185536  11.242  11.036   7.063  1.0674 -1.5185  0.1384
26866SOL    HW285537  11.252  11.184   7.033 -1.8880 -1.1059  0.9281
26867SOL     OW85538   3.877   4.455  10.746  0.0562 -0.2732  0.0487
26867SOL    HW185539   3.850   4.542  10.774 -0.8570 -0.4277 -0.3155
26867SOL    HW285540   3.934   4.470  10.671  0.1150  0.0113  0.1491
26868SOL     OW85541  10.314   1.294   3.345 -0.3108  0.6330 -0.4699
26868SOL    HW185542  10.220   1.298   3.327 -0.4491  0.3309  0.1571
26868SOL    HW285543  10.354   1.342   3.272 -1.0435  2.2586  0.1439
26869SOL     OW85544   2.157   1.079   1.806 -0.3202 -0.3041  0.0744
26869SOL    HW185545   2.153   1.005   1.746  0.6896  1.7846 -2.7676
26869SOL    HW285546   2.089   1.139   1.775 -0.1307  0.6252  1.3579
26870SOL     OW85547   7.143   9.850   0.528 -0.2075 -0.0978  0.4217
26870SOL    HW185548   7.195   9.809   0.459 -0.6863 -0.0552  0.0367
26870SOL    HW285549   7.078   9.902   0.482 -0.9969 -0.6443  0.8906
26871SOL     OW85550  11.595   7.206  11.607  0.5745 -0.1624  0.2522
26871SOL    HW185551  11.569   7.227  11.517  0.8501  0.0711  0.2256
26871SOL    HW285552  11.671   7.149  11.598 -0.6350 -1.8507  0.3142
26872SOL     OW85553   8.116  11.113   8.383 -0.1629  0.1656  0.5512
26872SOL    HW185554   8.167  11.060   8.444  0.7749  1.5212  1.0198
26872SOL    HW285555   8.053  11.159   8.438  0.6843  1.3910  0.5505
26873SOL     OW85556   8.620   7.149   6.071 -0.2887 -0.1332  0.5356
26873SOL    HW185557   8.613   7.054   6.065  0.0294 -0.1507  0.4256
26873SOL    HW285558   8.555   7.174   6.136  0.3238 -0.5324  1.3198
26874SOL     OW85559   7.209  10.879   8.887  0.2312 -0.6881 -0.3591
26874SOL    HW185560   7.282  10.845   8.941  0.3221  0.2283  0.1094
26874SOL    HW285561   7.206  10.972   8.908  1.3430  0.0765 -3.1984
26875SOL     OW85562  11.329   8.430  11.036 -0.0646 -0.4492 -0.0705
26875SOL    HW185563  11.258   8.396  11.090  0.7081 -1.7606  0.1784
26875SOL    HW285564  11.288   8.496  10.980 -1.2541 -0.4357  0.7853
26876SOL     OW85565   9.673   5.933   3.188  0.5270  0.5442  0.6952
26876SOL    HW185566   9.757   5.955   3.227  0.3430  0.2382  1.2847
26876SOL    HW285567   9.626   5.885   3.257  0.8124 -1.4813 -0.4203
26877SOL     OW85568   3.629   5.884  11.527  0.2673 -0.1944  0.0796
26877SOL    HW185569   3.585   5.840  11.454 -1.4793  0.8323  0.4796
26877SOL    HW285570   3.560   5.903  11.589  1.6354 -0.4915  1.7694
26878SOL     OW85571   3.299  10.783  10.889 -0.0517  0.0801 -0.3636
26878SOL    HW185572   3.335  10.863  10.849 -0.1036  0.6371  0.6688
26878SOL    HW285573   3.279  10.808  10.979 -0.7341 -0.9140 -0.2248
26879SOL     OW85574   0.538  11.277   8.841  0.0082 -0.6595 -0.3938
26879SOL    HW185575   0.463  11.302   8.895 -1.4005  1.7365 -3.1683
26879SOL    HW285576   0.608  11.336   8.869 -0.4894  0.0673 -0.6529
26880SOL     OW85577   5.943  10.146   6.565 -0.3237  0.4907  0.1598
26880SOL    HW185578   5.919  10.070   6.618 -1.3998  0.3240 -0.5313
26880SOL    HW285579   5.924  10.120   6.475 -0.3118  1.4288 -0.1307
26881SOL     OW85580   1.234   6.510   5.420 -0.2090 -0.3728  0.0581
26881SOL    HW185581   1.159   6.569   5.415 -0.0267 -0.0995  0.5000
26881SOL    HW285582   1.270   6.510   5.331  0.7090  1.4007  0.3891
26882SOL     OW85583   7.389   8.483   7.989  0.4884  1.3387  0.7203
26882SOL    HW185584   7.317   8.543   8.007 -0.1484  0.5298  0.9286
26882SOL    HW285585   7.466   8.527   8.025  0.1891  2.4167  0.1143
26883SOL     OW85586   5.957  10.309   7.652  0.4727  0.2733 -0.1841
26883SOL    HW185587   5.930  10.379   7.711 -1.8970  0.1296 -1.0061
26883SOL    HW285588   5.985  10.354   7.572  0.7412  0.3483 -0.0476
26884SOL     OW85589   2.223  10.691   0.039 -0.5600  0.1970 -0.4786
26884SOL    HW185590   2.286  10.711   0.109 -1.0229 -0.5913  0.1777
26884SOL    HW285591   2.161  10.630   0.079 -2.1317  1.4291 -0.9183
26885SOL     OW85592   4.135   8.877  10.610 -0.0266  0.3243  0.6381
26885SOL    HW185593   4.136   8.954  10.552 -0.0544 -0.4849 -0.4604
26885SOL    HW285594   4.203   8.820  10.576 -0.1453 -0.2349  1.3239
26886SOL     OW85595   3.101   5.061   2.918  0.1416  0.0166  0.1010
26886SOL    HW185596   3.167   5.104   2.864 -0.1749  1.2517  0.6439
26886SOL    HW285597   3.144   4.982   2.952  1.2541  0.6635  0.2376
26887SOL     OW85598  10.334   4.319  11.636 -0.5090  0.0904 -0.0251
26887SOL    HW185599  10.328   4.394  11.697 -0.7730 -0.9712  1.3073
26887SOL    HW285600  10.284   4.250  11.679  0.3137 -1.0762 -0.8977
26888SOL     OW85601   9.859   0.985  10.967 -0.0777 -0.2095  0.0935
26888SOL    HW185602   9.895   0.970  11.054  1.8717  4.1517  0.2974
26888SOL    HW285603   9.916   0.935  10.908 -0.4035 -1.8725  1.1441
26889SOL     OW85604   8.817   7.170   1.326  0.3198 -0.1058  0.2081
26889SOL    HW185605   8.804   7.258   1.293  0.7557  0.2445  0.9492
26889SOL    HW285606   8.762   7.115   1.270 -0.7569  0.7516  0.3984
26890SOL     OW85607   4.700   4.780   5.253  0.0311 -0.1771  0.0012
26890SOL    HW185608   4.635   4.748   5.191 -0.6601  2.4450 -0.7417
26890SOL    HW285609   4.723   4.867   5.221  3.7070 -0.8286  0.4225
26891SOL     OW85610   2.921   3.691   6.818  0.0816 -0.4340  0.4965
26891SOL    HW185611   2.861   3.722   6.887  0.5352 -1.7488  1.5287
26891SOL    HW285612   2.988   3.759   6.813  0.1869 -0.4321  1.5655
26892SOL     OW85613   2.307   3.195   9.094 -0.1239  0.0408  0.2904
26892SOL    HW185614   2.296   3.134   9.021 -1.5080  1.4924 -0.7899
26892SOL    HW285615   2.359   3.267   9.057 -0.2341  0.4564  0.9248
26893SOL     OW85616  10.225   7.527  11.392 -0.1820 -0.5721  0.5045
26893SOL    HW185617  10.320   7.536  11.396 -0.2720  1.5946 -0.5433
26893SOL    HW285618  10.195   7.536  11.483  0.5660 -0.7351  0.7692
26894SOL     OW85619   5.766   0.545   2.442 -0.0181 -0.1109  0.0227
26894SOL    HW185620   5.766   0.590   2.527  2.6388  0.1380 -0.0307
26894SOL    HW285621   5.841   0.487   2.446 -1.7195 -2.5475 -1.0099
26895SOL     OW85622   4.730   3.286   1.073  0.2586 -0.4033 -0.0774
26895SOL    HW185623   4.667   3.264   1.141  1.0310 -1.1739  0.4191
26895SOL    HW285624   4.704   3.372   1.041 -1.0462 -0.7212  0.0969
26896SOL     OW85625   8.890   4.868   4.724 -0.4590  0.3248  0.2099
26896SOL    HW185626   8.962   4.809   4.705  0.7252  1.2339  1.6174
26896SOL    HW285627   8.878   4.862   4.819 -1.6849  0.8185  0.1173
26897SOL     OW85628   2.748   9.559   2.406  0.2447  0.9732  0.1912
26897SOL    HW185629   2.814   9.582   2.341 -0.1008 -0.6351 -0.7640
26897SOL    HW285630   2.741   9.464   2.403 -1.8530  1.0539  0.5188
26898SOL     OW85631   1.293   1.269   1.681  0.5594 -0.0742 -0.7475
26898SOL    HW185632   1.198   1.278   1.667  0.3609 -3.1317 -2.1355
26898SOL    HW285633   1.331   1.273   1.593  1.4099 -1.4364 -0.4662
26899SOL     OW85634   2.335   6.459   5.576  1.5489  0.2610  0.0565
26899SOL    HW185635   2.296   6.402   5.641 -2.1119 -0.3284 -2.3816
26899SOL    HW285636   2.279   6.536   5.574  1.3915  0.1595 -2.4840
26900SOL     OW85637   6.124   7.961   7.851 -0.0684  0.2929  0.6150
26900SOL    HW185638   6.059   7.898   7.883 -1.0886  1.0716  0.1152
26900SOL    HW285639   6.083   8.002   7.775  1.6634 -0.3430 -0.7388
26901SOL     OW85640   2.200   5.990   6.780 -0.2752 -0.5276 -0.1188
26901SOL    HW185641   2.135   5.921   6.770  0.4837 -1.1049 -1.3556
26901SOL    HW285642   2.184   6.027   6.867 -0.2074 -2.7567  0.8983
26902SOL     OW85643   6.535   9.096  10.077  0.5156  0.6433 -0.4774
26902SOL    HW185644   6.505   9.006  10.083 -0.3923  1.0511  3.6911
26902SOL    HW285645   6.630   9.091  10.086  0.3683  0.1132  1.0150
26903SOL     OW85646   4.356  10.979  11.200 -0.2950  1.0138  0.0884
26903SOL    HW185647   4.431  10.962  11.143 -0.8483  3.8396 -1.6977
26903SOL    HW285648   4.281  10.975  11.141 -1.1212  1.8425  1.0646
26904SOL     OW85649   6.224   0.611   2.172  0.4525 -0.0628 -0.0232
26904SOL    HW185650   6.180   0.587   2.090 -0.1195  0.8217  0.0107
26904SOL    HW285651   6.264   0.696   2.153  0.2611  0.1755  0.6304
26905SOL     OW85652   5.446   9.251   9.050 -0.0140 -0.1072  0.3366
26905SOL    HW185653   5.350   9.245   9.049 -0.0292  0.1519 -0.5561
26905SOL    HW285654   5.465   9.335   9.008  0.5483  0.9788  2.6032
26906SOL     OW85655   6.883   0.761   7.797 -0.2454  0.6585  0.6402
26906SOL    HW185656   6.825   0.768   7.872  0.0468  1.3523  0.8064
26906SOL    HW285657   6.970   0.748   7.834 -0.2180  0.1231  0.4019
26907SOL     OW85658   7.751  10.763  11.296  0.5186 -0.5741 -0.1908
26907SOL    HW185659   7.674  10.809  11.264  0.6713 -0.9797 -1.1666
26907SOL    HW285660   7.823  10.825  11.285  0.5491 -0.6670 -0.5251
26908SOL     OW85661   4.313   3.304   8.229  0.1664 -0.1090 -0.0062
26908SOL    HW185662   4.324   3.245   8.154 -0.2913 -1.9647  1.3171
26908SOL    HW285663   4.326   3.249   8.306  0.5219  1.7109  1.3210
26909SOL     OW85664   8.219   8.207   0.440  0.3408  0.2951  0.1610
26909SOL    HW185665   8.307   8.184   0.471  0.2594  1.2220  1.1515
26909SOL    HW285666   8.225   8.202   0.345  1.5664  0.6957  0.1950
26910SOL     OW85667   9.758   2.655   9.412 -0.0244 -0.4315 -0.0232
26910SOL    HW185668   9.739   2.738   9.456 -1.2807 -0.4675 -0.4363
26910SOL    HW285669   9.671   2.615   9.399  0.5205 -1.5931 -0.2444
26911SOL     OW85670   7.406   4.974  10.450 -0.1051  0.7692  0.1389
26911SOL    HW185671   7.428   4.937  10.536 -0.6699  0.6820  0.2494
26911SOL    HW285672   7.490   4.983  10.406 -0.0237 -2.0912 -0.4690
26912SOL     OW85673   3.441  10.640   9.981 -0.0814 -0.1556  0.0868
26912SOL    HW185674   3.501  10.572  10.012  0.4059  0.0373 -0.4197
26912SOL    HW285675   3.360  10.593   9.960  0.4457 -0.6841 -0.8388
26913SOL     OW85676   9.556   8.337  11.265 -0.5451 -0.0696 -0.0820
26913SOL    HW185677   9.592   8.267  11.211  0.4889  0.5462 -0.2193
26913SOL    HW285678   9.547   8.298  11.352  1.0887 -0.0794  0.1176
26914SOL     OW85679   0.339  11.616   1.838  0.4464  0.2494 -0.0958
26914SOL    HW185680   0.422  11.659   1.860 -0.8622  2.6521  0.5534
26914SOL    HW285681   0.336  11.540   1.896  2.0060  0.3277  0.1372
26915SOL     OW85682   0.891   7.693  10.214  0.5250  0.6697 -0.2835
26915SOL    HW185683   0.816   7.725  10.164  0.4417  0.9777  0.0363
26915SOL    HW285684   0.967   7.709  10.158  0.5978  2.2552  0.2366
26916SOL     OW85685   6.617   4.916   8.344 -0.1365 -0.2827  0.2282
26916SOL    HW185686   6.626   5.001   8.388 -3.5523  0.5479 -0.3229
26916SOL    HW285687   6.584   4.857   8.413  0.3955 -0.6687  0.1594
26917SOL     OW85688   6.082   3.590   7.993 -0.3410  0.3825  0.0265
26917SOL    HW185689   6.158   3.576   7.936 -0.3833 -1.2372  0.3118
26917SOL    HW285690   6.118   3.589   8.082 -0.7057 -0.7050  0.1774
26918SOL     OW85691   0.253   9.474   2.434  0.2262  0.3098  0.2900
26918SOL    HW185692   0.211   9.440   2.356  2.1428 -2.2936  0.2836
26918SOL    HW285693   0.181   9.508   2.487 -1.6019 -1.7233 -0.7463
26919SOL     OW85694   7.274   4.052   0.047  0.4512  0.1304 -0.0021
26919SOL    HW185695   7.351   4.006   0.079  1.5666 -0.0881 -2.7423
26919SOL    HW285696   7.296   4.145   0.054  0.0565  0.1475  1.2190
26920SOL     OW85697   2.102   3.212   4.178  0.5548  0.6140  0.6605
26920SOL    HW185698   2.192   3.239   4.162  0.5404 -0.1988 -1.0298
26920SOL    HW285699   2.110   3.134   4.233  0.8743  0.6671  0.6906
26921SOL     OW85700   6.065   3.421   5.665 -0.0440 -0.1347 -0.1568
26921SOL    HW185701   6.009   3.343   5.660 -0.7691  0.2921  0.8569
26921SOL    HW285702   6.040   3.474   5.590 -1.5806  0.3942  0.6832
26922SOL     OW85703   6.773   7.896   3.123  0.1526  0.1746 -0.1649
26922SOL    HW185704   6.721   7.972   3.095 -0.8316 -0.0558  0.9303
26922SOL    HW285705   6.859   7.910   3.084  0.1505  2.1318  0.4043
26923SOL     OW85706  11.326   9.194   2.933 -0.5078  0.5895  0.2958
26923SOL    HW185707  11.390   9.194   3.004 -0.0640 -0.4703 -0.0956
26923SOL    HW285708  11.377   9.209   2.854 -0.4949 -1.6584 -0.1953
26924SOL     OW85709   8.084  10.487   6.022  0.1884  0.0402 -0.1216
26924SOL    HW185710   8.013  10.551   6.016  0.3781  0.3986  1.1663
26924SOL    HW285711   8.079  10.455   6.112  3.0745  1.7489  0.7763
26925SOL     OW85712   7.760   7.473   5.727  0.5495 -0.1145 -0.2099
26925SOL    HW185713   7.802   7.491   5.811  1.6536  1.8315 -1.1129
26925SOL    HW285714   7.818   7.410   5.684 -0.0398 -1.1480  0.4497
26926SOL     OW85715   8.912   2.788   1.325  0.1814  0.1270 -0.1578
26926SOL    HW185716   8.878   2.860   1.378  0.6572  0.5943 -0.4702
26926SOL    HW285717   8.845   2.720   1.330  0.4960 -0.1052  1.5757
26927SOL     OW85718   8.207   2.821   6.300 -0.2088  0.1395  0.1900
26927SOL    HW185719   8.300   2.842   6.308 -0.2820  0.2070  0.9285
26927SOL    HW285720   8.168   2.898   6.258  0.1490 -0.1060 -0.6097
26928SOL     OW85721   4.473   7.622  11.607 -0.2384  0.7736 -0.0773
26928SOL    HW185722   4.520   7.697  11.569 -0.4091  0.1811 -1.5240
26928SOL    HW285723   4.521   7.546  11.574 -1.8675  0.1695 -1.1580
26929SOL     OW85724   6.258   5.019   5.131  0.8999  0.4568  0.1621
26929SOL    HW185725   6.215   4.937   5.152  3.5605 -0.7504  1.3260
26929SOL    HW285726   6.263   5.020   5.036 -0.8843  0.2736  0.0335
26930SOL     OW85727  10.804   5.477   2.838 -0.2210  0.4939  0.8964
26930SOL    HW185728  10.844   5.468   2.924 -0.5525 -1.2757  0.9126
26930SOL    HW285729  10.738   5.545   2.849 -0.6889 -0.1338  2.2169
26931SOL     OW85730   2.605   1.037   5.519 -0.1009  0.2042 -0.3262
26931SOL    HW185731   2.683   1.075   5.479  0.4123 -0.4459  0.0386
26931SOL    HW285732   2.616   0.943   5.509 -2.7886  0.0627 -3.9418
26932SOL     OW85733   5.507   3.686   2.220  0.1313  0.2419 -0.1041
26932SOL    HW185734   5.445   3.617   2.196  1.4729 -0.5577 -1.4841
26932SOL    HW285735   5.458   3.744   2.278 -2.1483  0.1430 -1.8084
26933SOL     OW85736  10.046   3.134   7.048 -0.8800  0.4693 -0.0338
26933SOL    HW185737  10.106   3.179   7.108 -3.0290  1.9603  1.1369
26933SOL    HW285738  10.039   3.045   7.083  0.8124  0.1465 -0.3892
26934SOL     OW85739   4.407   2.046   9.107  0.8686 -0.1518  0.1283
26934SOL    HW185740   4.482   1.993   9.078  0.3405 -1.5276  1.1555
26934SOL    HW285741   4.330   1.996   9.080  0.3463  0.3661  0.6250
26935SOL     OW85742  11.624   3.492   5.483  0.6402  0.0945 -0.0342
26935SOL    HW185743  11.677   3.428   5.436  0.5148 -0.8170  1.0081
26935SOL    HW285744  11.657   3.577   5.454  1.3357 -0.4418 -0.8696
26936SOL     OW85745   3.993   6.328   2.473  0.4571 -0.7166 -0.5771
26936SOL    HW185746   3.997   6.365   2.561  2.1172 -0.3527 -0.7804
26936SOL    HW285747   3.902   6.299   2.463 -0.3050  1.1643  0.4504
26937SOL     OW85748   9.788   9.485   5.732 -0.2330 -0.4347  0.5021
26937SOL    HW185749   9.702   9.519   5.708 -0.4382 -1.3208 -0.0685
26937SOL    HW285750   9.809   9.423   5.663  0.8346 -0.2926  0.6816
26938SOL     OW85751   4.674   8.806  11.488  0.1582 -0.3270 -0.3170
26938SOL    HW185752   4.703   8.733  11.434  0.8870 -0.0698 -0.2826
26938SOL    HW285753   4.731   8.879  11.463 -2.0682  0.9258 -2.0491
26939SOL     OW85754   9.283  11.149  10.277  0.3263  0.2169 -0.0957
26939SOL    HW185755   9.300  11.060  10.247 -2.4035  0.0803 -1.5795
26939SOL    HW285756   9.329  11.156  10.361  0.6111 -2.5741  0.0527
26940SOL     OW85757   3.233   3.639   7.178  0.2669  0.0903  0.0067
26940SOL    HW185758   3.209   3.711   7.236  0.2076  0.1704 -0.1152
26940SOL    HW285759   3.268   3.683   7.100 -2.1561  0.0706 -1.1667
26941SOL     OW85760   6.302  11.672   9.582 -0.0540  0.1262  0.1916
26941SOL    HW185761   6.220  11.720   9.589 -0.0939  0.1800 -0.5519
26941SOL    HW285762   6.339  11.699   9.498  0.8963  0.3648  0.6683
26942SOL     OW85763   8.275   8.064   8.883  0.0486  0.0811  1.0528
26942SOL    HW185764   8.350   8.036   8.936  0.7034  0.3987  0.3149
26942SOL    HW285765   8.198   8.044   8.937  0.5979 -1.2708  1.3583
26943SOL     OW85766   7.829   8.946   1.801  0.1637  0.3157 -0.2260
26943SOL    HW185767   7.747   8.987   1.772 -0.1887  0.4437  0.9116
26943SOL    HW285768   7.873   9.014   1.851  0.1877 -0.2708  0.5711
26944SOL     OW85769   3.789   3.819   1.490  0.0344 -0.6247  0.8975
26944SOL    HW185770   3.831   3.758   1.429  0.3160 -0.0461  0.4994
26944SOL    HW285771   3.721   3.767   1.532 -0.2105 -1.0277  0.0369
26945SOL     OW85772   0.726   4.048   9.067 -0.3519 -0.3281 -0.0865
26945SOL    HW185773   0.785   4.000   9.008 -0.4017 -1.8894  1.0597
26945SOL    HW285774   0.643   4.000   9.062 -0.8132  0.4480  0.0776
26946SOL     OW85775   0.729   2.604   1.114 -0.0418  0.2651 -0.0090
26946SOL    HW185776   0.686   2.690   1.117  0.4847  0.6250 -1.5686
26946SOL    HW285777   0.768   2.593   1.201 -0.7979  1.2381  0.4720
26947SOL     OW85778   8.962   5.280   8.359  0.4602 -0.2517 -0.1633
26947SOL    HW185779   8.910   5.240   8.428  0.3554 -0.3881 -0.3197
26947SOL    HW285780   9.045   5.304   8.401  0.7348 -1.1279 -0.1933
26948SOL     OW85781   6.401   4.790   9.024 -0.1837  0.3213  0.2871
26948SOL    HW185782   6.330   4.733   8.996 -0.8339  2.3989 -2.7355
26948SOL    HW285783   6.382   4.809   9.116 -0.7067 -3.0257  0.9976
26949SOL     OW85784  11.645  10.844   7.773 -0.3616  0.1103 -0.1261
26949SOL    HW185785  11.566  10.795   7.748 -1.2956  2.0122 -1.0930
26949SOL    HW285786  11.642  10.923   7.719  0.6173  1.6777  1.9921
26950SOL     OW85787   9.485   7.626  11.133  0.0202 -0.0103 -0.6444
26950SOL    HW185788   9.487   7.531  11.130  0.4557 -0.0248 -0.0630
26950SOL    HW285789   9.419   7.651  11.068 -1.8340 -0.7937  0.8522
26951SOL     OW85790  11.187   8.218   6.119  0.2555 -0.2573  0.0071
26951SOL    HW185791  11.222   8.176   6.040  0.1458  0.5094 -0.4681
26951SOL    HW285792  11.155   8.303   6.088 -2.7122 -1.1912  0.2700
26952SOL     OW85793   8.253   6.200   4.459  0.1571 -0.1873 -0.6548
26952SOL    HW185794   8.188   6.214   4.390  1.3618  2.6332 -1.3431
26952SOL    HW285795   8.209   6.228   4.539 -0.1378 -0.2303 -0.8010
26953SOL     OW85796   3.711   0.580   0.289 -1.0281  0.5309 -0.0095
26953SOL    HW185797   3.684   0.640   0.358  0.0018  1.2986 -0.2436
26953SOL    HW285798   3.802   0.604   0.271 -0.2820 -1.7231  0.5201
26954SOL     OW85799  10.503   1.337   2.147  0.7951 -0.1677 -0.3135
26954SOL    HW185800  10.517   1.334   2.241  1.0365 -0.6462 -0.3617
26954SOL    HW285801  10.565   1.274   2.111  0.4495 -0.2636 -0.7611
26955SOL     OW85802   5.408   4.861   0.953 -0.1146  0.2473 -1.0985
26955SOL    HW185803   5.458   4.907   0.886  2.1025 -0.8900 -0.3139
26955SOL    HW285804   5.372   4.930   1.008  1.2415  1.1146 -1.2636
26956SOL     OW85805  11.640   8.250   6.192  0.0399  0.1247  0.0564
26956SOL    HW185806  11.638   8.296   6.109  2.1480 -0.2793 -0.2673
26956SOL    HW285807  11.699   8.301   6.247 -0.4602 -0.2137  0.9219
26957SOL     OW85808   5.395   9.326   3.518 -0.4518 -0.1907  0.8353
26957SOL    HW185809   5.439   9.266   3.458  0.9718  1.1471  0.4985
26957SOL    HW285810   5.438   9.311   3.602  0.0126  0.4476  0.7162
26958SOL     OW85811   0.161   3.350   7.421 -0.4728 -0.1550  0.2960
26958SOL    HW185812   0.071   3.378   7.406 -0.4826 -1.2013 -2.0493
26958SOL    HW285813   0.191   3.403   7.496 -2.4454  1.4800  0.0106
26959SOL     OW85814   0.056   2.815   8.688 -0.0197 -0.3857  0.0031
26959SOL    HW185815   0.135   2.765   8.666  0.8977  1.1654 -0.3817
26959SOL    HW285816   0.054   2.886   8.623 -1.5771 -0.2119  0.1983
26960SOL     OW85817  10.641   3.356   6.113 -0.1536 -0.4510  0.1790
26960SOL    HW185818  10.725   3.333   6.152 -0.0033 -1.1350 -0.5322
26960SOL    HW285819  10.600   3.414   6.178  0.4285 -0.9259  0.9966
26961SOL     OW85820  11.513   4.523   7.907 -0.0199  0.0919  0.1363
26961SOL    HW185821  11.469   4.484   7.832  0.3751 -0.8875  0.4025
26961SOL    HW285822  11.518   4.617   7.886  0.3589 -0.2070 -1.1990
26962SOL     OW85823   1.708   2.026   2.751  0.6919 -0.2941 -0.5215
26962SOL    HW185824   1.695   2.098   2.690  2.7045  0.1637 -0.4754
26962SOL    HW285825   1.685   1.948   2.701  2.1156  0.0933 -1.8466
26963SOL     OW85826   0.776   3.442   1.032  0.2150  0.1425  0.1273
26963SOL    HW185827   0.828   3.385   0.974 -0.2151 -1.4464  1.2297
26963SOL    HW285828   0.704   3.386   1.061 -0.1230  1.2091  1.4105
26964SOL     OW85829   0.705   0.317   2.357 -0.1516 -0.1497  0.0996
26964SOL    HW185830   0.763   0.260   2.308 -2.1093 -1.8828 -0.3478
26964SOL    HW285831   0.619   0.275   2.352 -1.5863  2.4814  0.3573
26965SOL     OW85832   4.385  10.139   3.087 -0.0152 -0.5959  0.4802
26965SOL    HW185833   4.384  10.168   3.178 -0.4041  1.3622 -0.0972
26965SOL    HW285834   4.404  10.046   3.092 -0.0138 -0.5377  2.5600
26966SOL     OW85835   0.913   0.648   4.876 -0.5304  0.7224  0.0174
26966SOL    HW185836   0.857   0.681   4.946 -1.7862  1.1916 -1.1444
26966SOL    HW285837   0.895   0.554   4.873 -0.8474  0.7812  0.0215
26967SOL     OW85838   6.221   7.054   3.362 -0.6313  0.2900 -0.1400
26967SOL    HW185839   6.300   7.009   3.392 -1.1207 -0.6213 -0.1942
26967SOL    HW285840   6.217   7.035   3.268  0.6131  2.7059 -0.7794
26968SOL     OW85841   9.476   7.799   8.528  0.1050 -0.5015  0.6238
26968SOL    HW185842   9.561   7.789   8.486 -1.2965 -0.7276 -2.4316
26968SOL    HW285843   9.441   7.880   8.492 -0.8398 -0.2028  2.1394
26969SOL     OW85844   2.351   7.241   2.090  0.1278 -0.4484 -0.3279
26969SOL    HW185845   2.338   7.201   2.177  0.3426  2.3155  1.0799
26969SOL    HW285846   2.440   7.215   2.065  0.7355  0.1177  1.1203
26970SOL     OW85847   2.919   3.866  10.311  0.5241  0.1375 -0.3159
26970SOL    HW185848   2.861   3.843  10.239 -0.7949 -0.2175  0.8186
26970SOL    HW285849   2.987   3.799  10.310  1.3567  0.9593 -2.0975
26971SOL     OW85850   1.981   0.416   1.163  0.0960 -0.3061 -0.2780
26971SOL    HW185851   1.915   0.415   1.232  0.0160  1.6435 -0.2629
26971SOL    HW285852   2.060   0.449   1.206  0.9114 -1.8813 -0.4780
26972SOL     OW85853   7.189  11.078   2.783  0.8274 -0.0400 -0.1088
26972SOL    HW185854   7.104  11.120   2.775  1.0052  0.4416  0.4725
26972SOL    HW285855   7.187  11.034   2.869  1.5461  0.8801  0.4029
26973SOL     OW85856   6.651   2.394   0.542  0.0703 -0.0037  0.0175
26973SOL    HW185857   6.701   2.328   0.494 -0.8172 -1.1024  0.5632
26973SOL    HW285858   6.666   2.475   0.494  1.5502 -0.4980 -0.4172
26974SOL     OW85859   0.036  11.342   3.737  0.2547 -0.6140  0.7524
26974SOL    HW185860   0.009  11.272   3.679  1.3275 -1.1029  0.8260
26974SOL    HW285861  -0.026  11.338   3.810 -1.0794 -0.0145 -0.3082
26975SOL     OW85862   9.445   5.813   4.538 -0.4357  0.4098  0.2015
26975SOL    HW185863   9.452   5.908   4.533 -2.3442  0.7865  2.9247
26975SOL    HW285864   9.352   5.796   4.556 -0.1457 -1.9909 -0.1990
26976SOL     OW85865   7.034   8.938   3.397 -1.2322  0.2751 -0.9245
26976SOL    HW185866   7.124   8.967   3.409 -1.2171  0.4416 -1.4264
26976SOL    HW285867   6.993   8.952   3.483  0.0635 -2.9640  0.3843
26977SOL     OW85868   4.800   6.541   1.442 -0.0739 -0.4259  0.3151
26977SOL    HW185869   4.740   6.585   1.383 -1.0380 -1.2725  0.6450
26977SOL    HW285870   4.748   6.473   1.484  0.2417  0.8896  3.0356
26978SOL     OW85871  10.438   4.013   7.240 -0.2581  0.1719 -0.4823
26978SOL    HW185872  10.414   3.923   7.263 -0.8844  0.5314  0.3737
26978SOL    HW285873  10.517   4.031   7.290 -0.2676  0.1674 -0.4653
26979SOL     OW85874   6.098   9.450   3.201 -0.2441 -0.5672 -0.2478
26979SOL    HW185875   6.162   9.516   3.172  0.4150 -1.6601 -1.4101
26979SOL    HW285876   6.021   9.501   3.227  0.8123  0.7372  0.4213
26980SOL     OW85877   9.830   4.766   3.619 -0.0377 -0.2851 -0.5006
26980SOL    HW185878   9.844   4.753   3.525  0.5202 -0.1160 -0.4474
26980SOL    HW285879   9.768   4.698   3.644 -1.6541  0.8172 -1.3629
26981SOL     OW85880   4.500   8.780   1.238 -0.0527  0.1668  0.1470
26981SOL    HW185881   4.454   8.762   1.320 -0.7668  0.9618 -0.0555
26981SOL    HW285882   4.495   8.699   1.188 -2.0324  0.4653 -0.2222
26982SOL     OW85883   4.502   2.761   6.275  0.2776 -0.1330 -0.3425
26982SOL    HW185884   4.506   2.679   6.323  1.3487  0.2668  0.3092
26982SOL    HW285885   4.533   2.827   6.338 -0.8355  0.8180 -0.7479
26983SOL     OW85886   8.915   5.240   2.907 -0.0589  0.5097  0.5015
26983SOL    HW185887   8.962   5.211   2.986  0.1061  0.9172  0.5545
26983SOL    HW285888   8.977   5.297   2.862  0.8901 -1.7929 -1.3349
26984SOL     OW85889  10.942   5.969   7.463  0.1451 -0.4435 -0.3740
26984SOL    HW185890  10.863   5.923   7.491  0.8696 -0.9163  0.9877
26984SOL    HW285891  10.962   5.932   7.377 -1.3400  0.0070 -0.9510
26985SOL     OW85892   0.659   2.982  11.221 -0.6788  0.0670 -0.4054
26985SOL    HW185893   0.620   2.970  11.134 -1.2737  1.2479 -0.3191
26985SOL    HW285894   0.631   3.069  11.249  1.4695  0.7184 -0.0362
26986SOL     OW85895   2.434   9.253   4.117  0.1041  0.3502  0.0420
26986SOL    HW185896   2.417   9.316   4.047 -0.1399 -0.8877 -1.0555
26986SOL    HW285897   2.416   9.168   4.077 -0.5073 -0.3707  1.7689
26987SOL     OW85898   7.526  10.807   5.400  0.1639 -0.0448 -0.1210
26987SOL    HW185899   7.437  10.838   5.383  0.4012 -0.0129 -1.4655
26987SOL    HW285900   7.561  10.788   5.313  1.6337  0.3938  0.3437
26988SOL     OW85901  11.527   8.412  11.236  0.1706 -0.0510  0.4246
26988SOL    HW185902  11.472   8.439  11.162  0.0187 -1.1315  0.1274
26988SOL    HW285903  11.565   8.494  11.269 -0.2352  0.5107 -0.4654
26989SOL     OW85904   4.682   0.776   6.535 -0.0448  0.4251 -0.3151
26989SOL    HW185905   4.598   0.803   6.572  0.1699  0.0180  0.4899
26989SOL    HW285906   4.696   0.688   6.570  1.5664  1.1728  1.0141
26990SOL     OW85907   9.744  10.513   9.294  0.0277  0.6869 -0.4863
26990SOL    HW185908   9.759  10.419   9.283 -1.9781  0.5817 -3.5110
26990SOL    HW285909   9.830  10.549   9.315  1.2604 -1.5583 -1.3694
26991SOL     OW85910   6.636   6.438   1.125  0.7241  0.1690  0.3337
26991SOL    HW185911   6.648   6.392   1.208 -1.8045  1.1971  1.3809
26991SOL    HW285912   6.602   6.524   1.150 -0.9105  0.2126 -1.7774
26992SOL     OW85913   9.881   5.280   9.975 -0.1532 -0.0464 -0.1669
26992SOL    HW185914   9.912   5.286  10.066 -1.0596 -0.6741  0.1995
26992SOL    HW285915   9.786   5.276   9.982 -0.2584  0.3188 -1.1798
26993SOL     OW85916   7.564  10.416   1.416  0.7263  0.1602  0.1309
26993SOL    HW185917   7.623  10.383   1.484 -0.4575  0.7340  1.4951
26993SOL    HW285918   7.506  10.477   1.462 -1.5623 -1.0876 -0.9375
26994SOL     OW85919  10.954   2.506   0.477 -0.9336 -0.1466  0.3271
26994SOL    HW185920  10.933   2.483   0.567 -0.8871 -0.8322  0.1744
26994SOL    HW285921  10.970   2.421   0.434 -2.2349  0.0721 -0.6477
26995SOL     OW85922   3.867   1.825   8.326  0.2586  0.3570 -0.2758
26995SOL    HW185923   3.955   1.860   8.313 -0.0711  1.3529  0.1397
26995SOL    HW285924   3.857   1.760   8.256  1.0259  0.7942 -0.8047
26996SOL     OW85925   0.352   1.350   4.508  0.3148 -0.2328 -0.6191
26996SOL    HW185926   0.433   1.400   4.520  0.5367 -0.9522  1.3323
26996SOL    HW285927   0.286   1.399   4.557  0.0470 -0.6878 -0.5119
26997SOL     OW85928   4.103   2.812   5.576 -0.1202  0.6903 -0.0557
26997SOL    HW185929   4.116   2.799   5.482 -2.1549 -0.7235 -0.1834
26997SOL    HW285930   4.162   2.749   5.617  1.6825  2.1296 -0.2788
26998SOL     OW85931   8.443   6.754   0.336 -0.1026 -0.1929  0.1334
26998SOL    HW185932   8.521   6.699   0.344  0.5534  0.6789 -0.0786
26998SOL    HW285933   8.455   6.822   0.402 -0.3340  0.3528 -0.3786
26999SOL     OW85934   2.894   0.119   1.868 -0.2057  0.2541  0.6494
26999SOL    HW185935   2.874   0.060   1.796 -0.9465 -0.3715  1.3395
26999SOL    HW285936   2.958   0.181   1.833 -0.9067  0.2507 -0.6691
27000SOL     OW85937   3.190  11.161   5.987  0.2171 -0.0710  0.2098
27000SOL    HW185938   3.189  11.190   5.896 -0.0104 -0.9799 -0.0921
27000SOL    HW285939   3.167  11.068   5.982 -0.6993  0.0800  1.2683
27001SOL     OW85940  10.883   7.268  10.763  0.0150 -0.2639 -0.1152
27001SOL    HW185941  10.847   7.355  10.750  0.4748 -0.0499  0.0330
27001SOL    HW285942  10.978   7.280  10.760  0.0860 -0.7156  0.1807
27002SOL     OW85943   4.379   9.831   6.716 -0.2914 -0.7008  0.0566
27002SOL    HW185944   4.332   9.869   6.790 -0.6891 -0.3841 -0.3470
27002SOL    HW285945   4.439   9.768   6.755  0.9053  0.8481  0.7974
27003SOL     OW85946   4.246   6.868   2.044 -0.0036  0.0169 -0.3712
27003SOL    HW185947   4.306   6.856   2.118  0.4908  1.2493 -0.5445
27003SOL    HW285948   4.304   6.869   1.967 -0.6114 -2.4472 -0.9434
27004SOL     OW85949   6.004   9.761  11.691 -0.4545  0.9756 -0.0905
27004SOL    HW185950   5.928   9.704  11.704  0.0217 -0.2198 -2.0316
27004SOL    HW285951   6.078   9.701  11.684  0.3317  1.9609 -0.4663
27005SOL     OW85952   9.604   9.288   9.421 -0.1999  0.0634  0.1359
27005SOL    HW185953   9.524   9.324   9.459  0.4575 -0.3535  2.0198
27005SOL    HW285954   9.575   9.210   9.373 -0.9573  0.0885  0.5437
27006SOL     OW85955   7.363  10.077   0.089  0.2807 -0.1659  0.3711
27006SOL    HW185956   7.445  10.033   0.111  0.3494 -0.2085  0.0252
27006SOL    HW285957   7.329  10.108   0.174  1.0925  0.6299  0.4279
27007SOL     OW85958   5.326   3.284   4.041  0.8058  0.3046  0.1418
27007SOL    HW185959   5.264   3.268   4.112 -2.6073  2.5583 -2.0210
27007SOL    HW285960   5.361   3.371   4.059  0.5882  0.5195 -0.4436
27008SOL     OW85961   9.654   5.351   0.370  0.9071 -0.1036  0.6573
27008SOL    HW185962   9.654   5.446   0.356  0.2889 -0.2685 -0.6297
27008SOL    HW285963   9.566   5.332   0.405  0.4912 -0.3627 -0.4853
27009SOL     OW85964  10.741   1.346   3.112 -0.1182  0.3350  0.0549
27009SOL    HW185965  10.767   1.291   3.186 -0.9690  1.1226  0.9743
27009SOL    HW285966  10.719   1.430   3.152  0.1977  1.0349 -1.2033
27010SOL     OW85967   3.694  10.986   5.618 -0.5527 -0.2923  0.3944
27010SOL    HW185968   3.712  11.038   5.697 -0.0799 -0.8816  0.6779
27010SOL    HW285969   3.748  11.028   5.550 -0.6568 -0.0284  0.4709
27011SOL     OW85970   1.613   0.287   1.256 -0.6599 -0.0825 -0.0861
27011SOL    HW185971   1.579   0.226   1.322 -1.2493 -0.6127 -0.8566
27011SOL    HW285972   1.685   0.240   1.214 -1.0793 -0.2412 -0.6438
27012SOL     OW85973   4.707   0.514   6.225  0.0125  0.3880  0.2780
27012SOL    HW185974   4.786   0.466   6.247 -0.2769 -0.3345 -0.2450
27012SOL    HW285975   4.654   0.453   6.174 -0.3990  1.2198 -0.3300
27013SOL     OW85976   6.491   2.083   3.017  0.5897  0.3331 -0.0436
27013SOL    HW185977   6.455   2.093   3.105  2.1301 -0.7997  0.7487
27013SOL    HW285978   6.497   1.988   3.004  1.3947  0.4966 -0.9492
27014SOL     OW85979  11.197   4.048   8.482  0.1979 -0.4021  0.5361
27014SOL    HW185980  11.127   4.024   8.421  0.4998 -0.7881  0.3382
27014SOL    HW285981  11.165   4.128   8.524 -1.4929 -1.8712  2.2663
27015SOL     OW85982   8.002   5.524  10.852  0.1767  0.3228  0.2103
27015SOL    HW185983   8.040   5.609  10.873 -1.8335  1.0919  0.9787
27015SOL    HW285984   7.963   5.494  10.934 -2.0621  0.2693 -0.8118
27016SOL     OW85985   6.102   8.679   6.929  0.6668 -0.0113  0.7725
27016SOL    HW185986   6.061   8.605   6.973  2.6800 -1.7502 -0.1058
27016SOL    HW285987   6.086   8.663   6.836  1.7139  0.2667  0.5380
27017SOL     OW85988   7.113   5.392   8.303  0.4697  1.0270  0.6369
27017SOL    HW185989   7.193   5.435   8.272  1.6839 -1.4682  0.0214
27017SOL    HW285990   7.119   5.399   8.399  2.4608 -0.6743  0.7135
27018SOL     OW85991   0.911  11.181   6.875 -0.0865  0.1904 -0.3728
27018SOL    HW185992   0.991  11.181   6.822 -0.2238 -1.1810 -0.5958
27018SOL    HW285993   0.875  11.094   6.865 -1.2326  0.5624  0.3285
27019SOL     OW85994   8.942   3.263   9.846  0.1925 -0.0308 -0.9369
27019SOL    HW185995   8.983   3.218   9.920 -0.4571 -0.2595 -0.7086
27019SOL    HW285996   8.941   3.355   9.871 -0.0281 -0.1080 -0.6588
27020SOL     OW85997   8.582  10.077   0.076  0.5932  0.3616 -0.0294
27020SOL    HW185998   8.630  10.042   0.151  0.0854  2.1261  1.1914
27020SOL    HW285999   8.520  10.139   0.114 -2.8981 -1.9521 -1.5190
27021SOL     OW86000   0.600   0.698   4.740  0.2139  0.3379 -0.0778
27021SOL    HW186001   0.569   0.625   4.687 -0.4013 -0.5391  1.4051
27021SOL    HW286002   0.695   0.684   4.746  0.3161  0.5483 -1.0508
27022SOL     OW86003   8.353   6.353   0.630 -0.1966 -0.4505  0.5737
27022SOL    HW186004   8.258   6.344   0.619 -0.0665 -2.5824  0.7063
27022SOL    HW286005   8.367   6.349   0.724  0.0799 -1.2908  0.5109
27023SOL     OW86006   5.777   0.315   0.093  0.4271 -0.3722  0.1045
27023SOL    HW186007   5.855   0.313   0.036  0.5976 -1.9965  0.3521
27023SOL    HW286008   5.710   0.267   0.044  0.8687 -2.6871  1.6079
27024SOL     OW86009   5.051   4.920   2.562 -0.1125  0.2369  0.0564
27024SOL    HW186010   5.056   4.893   2.654  0.0614  1.4284  0.4135
27024SOL    HW286011   5.142   4.918   2.532 -0.1150  0.2935  0.0444
27025SOL     OW86012   7.285   4.574   2.399  0.1247  0.9561  0.6217
27025SOL    HW186013   7.380   4.571   2.405  0.1972 -0.7857 -0.6562
27025SOL    HW286014   7.266   4.653   2.348  0.9028  1.0606  0.4906
27026SOL     OW86015   3.187   7.641   3.537  0.1551 -0.2776 -0.3396
27026SOL    HW186016   3.215   7.550   3.545  1.8261  0.2302 -0.1136
27026SOL    HW286017   3.221   7.683   3.616 -3.8281 -0.1613  1.6092
27027SOL     OW86018   4.039   8.385   6.493  0.5828 -0.2012 -0.6462
27027SOL    HW186019   4.065   8.458   6.437 -0.0725  1.1178  0.6959
27027SOL    HW286020   3.944   8.377   6.480  0.1463  1.1315  1.3414
27028SOL     OW86021  10.881   5.155   7.955  0.3000  0.5769 -0.1326
27028SOL    HW186022  10.954   5.196   8.002 -0.2329 -0.7562  1.9924
27028SOL    HW286023  10.803   5.185   8.002 -0.2898 -0.4211 -0.4655
27029SOL     OW86024   6.682   5.546  11.471  0.4066 -0.0647 -0.3029
27029SOL    HW186025   6.669   5.635  11.505 -0.0453 -0.0870 -0.4237
27029SOL    HW286026   6.668   5.554  11.377 -0.0414 -0.3451 -0.2619
27030SOL     OW86027   7.552   8.494   8.305  0.2175 -0.1630 -0.9168
27030SOL    HW186028   7.611   8.522   8.235 -0.6457  0.2429 -1.5069
27030SOL    HW286029   7.477   8.552   8.297 -0.2103 -0.5882 -0.1027
27031SOL     OW86030   6.284   0.208   2.286 -0.5606 -0.1471  0.1887
27031SOL    HW186031   6.315   0.127   2.246 -0.2072 -0.5288  1.1984
27031SOL    HW286032   6.301   0.276   2.220  1.0912 -0.5779  0.1326
27032SOL     OW86033   5.577  11.114   1.386 -0.0485  0.3280  0.5015
27032SOL    HW186034   5.641  11.071   1.443 -0.6541  0.5951  1.4066
27032SOL    HW286035   5.547  11.190   1.436  0.0076  1.0459 -0.5190
27033SOL     OW86036   0.882   0.165   8.249 -0.0965 -0.0591  0.4120
27033SOL    HW186037   0.910   0.075   8.233 -1.5875 -0.8321  1.7847
27033SOL    HW286038   0.916   0.186   8.336  0.2487  0.7254  0.1009
27034SOL     OW86039   6.983   1.392   5.477 -0.0778  0.2105  0.1908
27034SOL    HW186040   6.902   1.439   5.457 -0.5329 -0.3605  0.6458
27034SOL    HW286041   7.053   1.457   5.464 -0.7626  1.3369  1.7723
27035SOL     OW86042   9.236   3.054  10.432  0.2580 -0.3043  0.1647
27035SOL    HW186043   9.246   3.046  10.526  0.3899  2.0820  0.4039
27035SOL    HW286044   9.146   3.084  10.419  0.1784 -0.7914 -0.4926
27036SOL     OW86045   3.425  10.498  10.867 -0.5058 -0.4392 -0.4388
27036SOL    HW186046   3.411  10.591  10.886 -0.9647 -0.6627  0.3865
27036SOL    HW286047   3.447  10.496  10.774 -1.5030  0.3974 -0.7217
27037SOL     OW86048   3.875   0.554   7.803  0.0141  0.1807  0.2065
27037SOL    HW186049   3.856   0.645   7.779 -1.7430 -0.4149 -0.9213
27037SOL    HW286050   3.956   0.559   7.853 -0.9667  2.5723  1.7810
27038SOL     OW86051   3.003   0.414   5.238 -0.0336  0.1796  0.0289
27038SOL    HW186052   3.007   0.320   5.221 -0.5526  0.2703 -0.6495
27038SOL    HW286053   2.998   0.421   5.333  0.5370 -0.4542  0.1171
27039SOL     OW86054   1.679   4.108   8.345 -0.4230  0.3051 -0.1119
27039SOL    HW186055   1.719   4.176   8.400  1.5533 -2.5709  2.3804
27039SOL    HW286056   1.606   4.075   8.397 -0.5318 -0.3434 -0.6649
27040SOL     OW86057   7.935   6.745   9.296  0.5743  0.5787 -0.1922
27040SOL    HW186058   7.897   6.744   9.208  0.3796 -1.3089 -0.1321
27040SOL    HW286059   7.950   6.838   9.314 -0.0281  1.0678 -1.9262
27041SOL     OW86060   0.669   3.508   4.902 -0.0884 -0.1088  0.3059
27041SOL    HW186061   0.759   3.491   4.875  0.9752  1.4389  2.5580
27041SOL    HW286062   0.677   3.542   4.991 -3.0026 -0.8797  0.9555
27042SOL     OW86063   4.123   7.183   1.645  0.1823 -0.4967 -0.3785
27042SOL    HW186064   4.198   7.201   1.702 -2.5289  0.0582  3.4713
27042SOL    HW286065   4.095   7.270   1.615  1.0455 -0.7100 -1.8859
27043SOL     OW86066   8.548   9.786   0.160 -0.0972 -0.0459 -0.1872
27043SOL    HW186067   8.618   9.838   0.119  0.2118 -0.7295 -0.5429
27043SOL    HW286068   8.589   9.749   0.238 -0.0052 -0.5737 -0.4802
27044SOL     OW86069   4.025   5.480   4.953 -0.3310  0.1521 -0.7165
27044SOL    HW186070   3.936   5.443   4.950 -0.7895  1.1879 -4.0706
27044SOL    HW286071   4.082   5.403   4.948 -1.1900 -0.4401 -2.6217
27045SOL     OW86072   9.717  11.212   3.316 -0.5331 -0.4049 -0.4506
27045SOL    HW186073   9.639  11.246   3.360  1.0234  2.6745  0.2108
27045SOL    HW286074   9.739  11.132   3.363 -0.6988  1.1267  2.4210
27046SOL     OW86075   9.095   2.251   5.088 -0.1610 -0.6174  0.2690
27046SOL    HW186076   9.099   2.176   5.029  1.7178 -0.2959 -0.0997
27046SOL    HW286077   9.117   2.326   5.032 -0.6272  0.0074  0.9123
27047SOL     OW86078   7.932   1.642   3.423  0.3396  0.2561  0.1183
27047SOL    HW186079   7.990   1.569   3.405  0.3089  0.0860  0.6787
27047SOL    HW286080   7.969   1.685   3.500  0.1212  0.5738  0.0528
27048SOL     OW86081   9.620  10.789   3.458 -0.5103 -0.0126 -0.3358
27048SOL    HW186082   9.695  10.765   3.404 -0.5329 -0.0925 -0.3315
27048SOL    HW286083   9.544  10.759   3.408 -0.4909 -1.0212  0.2152
27049SOL     OW86084   0.136   9.848   7.760 -0.0258 -0.0965 -0.3863
27049SOL    HW186085   0.068   9.829   7.824 -1.6096  0.0631 -1.9287
27049SOL    HW286086   0.156   9.940   7.773 -0.7382  0.0770 -0.4687
27050SOL     OW86087   1.099   7.126   9.947  0.5888  0.1739  0.2005
27050SOL    HW186088   1.144   7.060   9.894  0.2413 -0.9201  1.2269
27050SOL    HW286089   1.013   7.089   9.964  0.2967  1.0074  0.6075
27051SOL     OW86090  10.293   9.066   2.889 -0.1753 -0.6687  0.0023
27051SOL    HW186091  10.354   9.016   2.835 -1.5955 -1.7367 -0.6617
27051SOL    HW286092  10.208   9.053   2.848 -0.6330  2.3691 -0.2276
27052SOL     OW86093  10.544   0.989  10.381 -0.1460 -0.2064  0.1973
27052SOL    HW186094  10.477   1.013  10.445 -0.3075  1.1712 -0.4478
27052SOL    HW286095  10.514   0.906  10.344 -0.5765 -0.4911  1.1678
27053SOL     OW86096   5.670   1.776   1.045 -0.3257  0.3160 -0.3683
27053SOL    HW186097   5.645   1.868   1.034 -1.3433  0.4255  2.0908
27053SOL    HW286098   5.588   1.730   1.064  0.4396 -0.5956  0.9523
27054SOL     OW86099   9.696   3.323   7.975 -0.3733 -0.0005 -0.7472
27054SOL    HW186100   9.752   3.377   8.031  1.1722 -2.4180  0.2103
27054SOL    HW286101   9.618   3.307   8.028 -0.7598  1.1036 -0.9678
27055SOL     OW86102  10.444  10.466   7.868 -0.0680  0.0075  0.0509
27055SOL    HW186103  10.450  10.375   7.898 -1.5476 -0.9671 -2.2976
27055SOL    HW286104  10.534  10.500   7.875  0.5470 -1.6812  0.8196
27056SOL     OW86105  10.174   8.402   2.811 -0.1032 -0.0431 -0.4798
27056SOL    HW186106  10.228   8.466   2.763  0.9263 -1.8022 -1.7773
27056SOL    HW286107  10.094   8.449   2.831  1.5111  2.4199  0.7349
27057SOL     OW86108   9.411   3.014   1.646 -0.3534 -0.2262  0.2146
27057SOL    HW186109   9.424   3.109   1.647 -0.0271 -0.2422  2.2085
27057SOL    HW286110   9.317   3.003   1.663 -0.2711 -0.2533  0.6694
27058SOL     OW86111   5.061   8.307   9.473 -0.2348 -0.3127 -0.6603
27058SOL    HW186112   5.103   8.227   9.441 -0.8642  0.3841 -3.4716
27058SOL    HW286113   4.973   8.280   9.497  0.1581 -0.7961  0.2968
27059SOL     OW86114   3.440   7.646   1.456 -0.2217 -0.2631  0.2147
27059SOL    HW186115   3.533   7.642   1.432 -0.1947 -2.3211  0.4676
27059SOL    HW286116   3.440   7.669   1.549  0.2130 -2.5549  0.8476
27060SOL     OW86117   3.528   1.419   0.278 -0.5779  0.4623  0.0318
27060SOL    HW186118   3.469   1.492   0.262  0.2996  1.5812  1.5841
27060SOL    HW286119   3.476   1.356   0.328 -0.7779  0.9599  0.4601
27061SOL     OW86120   1.832   7.830   9.005  0.4047  0.0313  0.1662
27061SOL    HW186121   1.795   7.871   8.926  0.9809 -0.4228 -0.3459
27061SOL    HW286122   1.804   7.739   9.000 -2.0275  0.5458  1.9888
27062SOL     OW86123   6.329   4.715   7.477  0.5338 -0.0534  0.6262
27062SOL    HW186124   6.307   4.622   7.474  2.1248 -0.4369 -0.8719
27062SOL    HW286125   6.358   4.735   7.388  0.3150  1.8623  0.9485
27063SOL     OW86126   6.082   6.378   2.535 -0.4942 -0.2104  0.4597
27063SOL    HW186127   6.120   6.456   2.493 -0.2093  0.4691  1.9251
27063SOL    HW286128   6.034   6.335   2.465  2.3799 -0.7506 -1.3700
27064SOL     OW86129   9.897   4.832   7.784  0.0761  0.1627 -0.3961
27064SOL    HW186130   9.941   4.748   7.772 -0.5666 -0.1165 -0.8900
27064SOL    HW286131   9.850   4.824   7.867 -1.4069 -0.6417 -1.2592
27065SOL     OW86132   4.585  10.909  10.794 -0.4172 -0.2183 -0.0833
27065SOL    HW186133   4.576  10.924  10.888  1.1175  1.0017 -0.0870
27065SOL    HW286134   4.674  10.938  10.774 -0.8244 -0.1597 -1.9770
27066SOL     OW86135   5.686   2.326   9.750  0.2462 -0.0397 -0.0514
27066SOL    HW186136   5.770   2.321   9.704  0.9357  0.2033  1.1392
27066SOL    HW286137   5.688   2.253   9.812 -0.7640 -0.4949 -0.5219
27067SOL     OW86138   5.799   6.224   9.617 -0.6872  0.2132 -0.8113
27067SOL    HW186139   5.893   6.208   9.630 -0.7501 -0.9510 -1.6373
27067SOL    HW286140   5.782   6.305   9.665  0.5513 -0.0492  0.1354
27068SOL     OW86141   6.596   0.825   0.339  0.2567  0.2110  0.1348
27068SOL    HW186142   6.563   0.859   0.422 -0.2700  0.2042 -0.0698
27068SOL    HW286143   6.602   0.901   0.282 -0.0921  0.1006 -0.0520
27069SOL     OW86144   3.231   2.175   9.623  0.1866  0.8455  0.0076
27069SOL    HW186145   3.196   2.229   9.695  1.4950  0.9454  0.5963
27069SOL    HW286146   3.169   2.189   9.551 -2.2659 -0.7316  1.6399
27070SOL     OW86147  10.078   9.181   0.544  0.0297  0.3345  0.3603
27070SOL    HW186148  10.001   9.212   0.591 -0.6277  0.5576 -0.8338
27070SOL    HW286149  10.122   9.123   0.606 -2.4981 -1.9270  0.2123
27071SOL     OW86150   4.127   8.758   4.881  0.0519  0.1776  0.1082
27071SOL    HW186151   4.034   8.750   4.861 -0.1214 -1.7581  1.4578
27071SOL    HW286152   4.134   8.841   4.928 -1.2441 -0.2521  1.1387
27072SOL     OW86153   0.503   3.998   0.361 -0.2998 -0.5724  0.6010
27072SOL    HW186154   0.500   4.035   0.272  0.1889 -2.2754 -0.1593
27072SOL    HW286155   0.593   3.967   0.370 -0.0480  0.5022  2.1149
27073SOL     OW86156  11.108   5.010   9.155  0.4518 -0.7545 -0.7573
27073SOL    HW186157  11.020   5.003   9.117  0.4169 -0.7562 -0.6773
27073SOL    HW286158  11.150   5.081   9.106  0.5811 -1.0886 -1.1314
27074SOL     OW86159   0.867   7.584   7.753  0.1273  0.1595  0.0775
27074SOL    HW186160   0.863   7.490   7.771  0.8050 -0.3762 -2.1533
27074SOL    HW286161   0.956   7.610   7.776 -0.3790  0.5461  1.7278
27075SOL     OW86162   1.985   2.038   5.532  0.6689 -0.2286 -0.3932
27075SOL    HW186163   2.040   2.071   5.461 -0.5601 -0.3157 -1.4110
27075SOL    HW286164   2.046   1.989   5.588  1.5265 -0.8560 -1.8280
27076SOL     OW86165   4.671   1.719  10.786  0.7972  0.6010 -0.6455
27076SOL    HW186166   4.674   1.749  10.877  0.7648  1.0244 -0.7830
27076SOL    HW286167   4.578   1.708  10.768  0.8499 -0.5332 -0.2901
27077SOL     OW86168   3.288   2.011   6.884  0.0738 -0.0728  0.2896
27077SOL    HW186169   3.244   2.051   6.809 -1.0013  1.7937  1.8106
27077SOL    HW286170   3.223   1.952   6.922  0.0178  0.2347  0.6816
27078SOL     OW86171   7.334   6.892   6.247 -0.4613  0.3578 -0.0091
27078SOL    HW186172   7.297   6.804   6.248 -2.1875  1.0213  1.3598
27078SOL    HW286173   7.280   6.939   6.183  0.0805  0.5794 -0.3118
27079SOL     OW86174  10.031   3.278   3.710 -0.3072  0.2027  0.7493
27079SOL    HW186175   9.969   3.291   3.638 -0.4050  0.4987  0.8841
27079SOL    HW286176  10.028   3.184   3.728  0.2946 -0.0008 -0.1403
27080SOL     OW86177  11.048   2.449   9.128 -0.5458 -0.2883 -0.3476
27080SOL    HW186178  11.127   2.460   9.074 -1.2296  0.8700 -1.1651
27080SOL    HW286179  10.982   2.503   9.084 -0.7854  1.8465  2.3354
27081SOL     OW86180   0.236   0.748   8.077 -0.2606 -0.0723 -0.0583
27081SOL    HW186181   0.184   0.828   8.083 -0.3826 -0.2122  0.9087
27081SOL    HW286182   0.303   0.768   8.012  1.6207  1.9458  2.2612
27082SOL     OW86183   5.327   7.242  10.700  0.7224 -0.0983  0.0781
27082SOL    HW186184   5.326   7.147  10.687  2.1354 -0.0116 -0.8373
27082SOL    HW286185   5.267   7.256  10.773  0.7994 -1.7363  0.5049
27083SOL     OW86186   5.048   2.634   4.277  0.0585  0.1684  0.0075
27083SOL    HW186187   5.084   2.666   4.360 -0.0029 -0.1441  0.1570
27083SOL    HW286188   5.066   2.704   4.214 -0.7423  0.8306  0.4901
27084SOL     OW86189   0.753   6.463   7.332  0.2955 -0.0176  0.0901
27084SOL    HW186190   0.728   6.398   7.397 -1.7521 -0.5627 -1.1591
27084SOL    HW286191   0.754   6.415   7.249 -0.2526  1.3200 -0.7192
27085SOL     OW86192   3.804   3.656   4.604 -0.4964 -0.3536 -0.3224
27085SOL    HW186193   3.804   3.666   4.699 -1.1935 -0.8998 -0.2571
27085SOL    HW286194   3.885   3.697   4.575 -0.1868 -0.3611  0.5286
27086SOL     OW86195   7.457   8.409   1.711 -0.4309  0.1194  0.0003
27086SOL    HW186196   7.405   8.410   1.792 -0.7369  0.2246 -0.1965
27086SOL    HW286197   7.461   8.501   1.685  0.6479  0.2305  0.5189
27087SOL     OW86198   6.734   6.593   3.868 -0.3975 -0.0203  0.4694
27087SOL    HW186199   6.697   6.637   3.791  0.9909 -0.4379 -0.4794
27087SOL    HW286200   6.685   6.511   3.874  0.7802 -0.8974 -1.2023
27088SOL     OW86201   0.193   5.924   1.885 -0.4251  0.0698 -0.4848
27088SOL    HW186202   0.121   5.879   1.930 -0.2583 -0.3432 -0.6278
27088SOL    HW286203   0.173   6.017   1.895 -0.1339  0.0127  0.8908
27089SOL     OW86204   8.382   9.147  11.549 -0.2345 -0.4288  0.1108
27089SOL    HW186205   8.462   9.134  11.600 -0.6470  0.7451  1.0923
27089SOL    HW286206   8.321   9.189  11.609 -0.6940  1.1286 -1.3708
27090SOL     OW86207   7.962  11.039   9.281 -0.3612 -1.3548 -0.5919
27090SOL    HW186208   7.900  11.050   9.354 -1.4759  0.6262 -1.7439
27090SOL    HW286209   8.044  11.016   9.324 -0.8091  0.3520  1.3905
27091SOL     OW86210   3.064   9.940   3.400 -0.2122 -0.1519 -0.8211
27091SOL    HW186211   3.025  10.001   3.338 -0.0109 -0.8649 -1.6871
27091SOL    HW286212   2.991   9.906   3.451 -0.5040 -0.2088 -1.2736
27092SOL     OW86213   5.181   5.235   6.482 -0.1115 -0.0767  0.1380
27092SOL    HW186214   5.181   5.267   6.572 -0.4202 -0.0691  0.1354
27092SOL    HW286215   5.089   5.239   6.455  0.0136  0.1639 -0.2641
27093SOL     OW86216   5.622   1.999  10.501  0.3936  0.2171  0.1994
27093SOL    HW186217   5.544   1.965  10.457  1.3027  0.4161 -1.6982
27093SOL    HW286218   5.599   2.088  10.525  1.3089  2.0096 -4.4633
27094SOL     OW86219   5.113   3.013   1.940  0.1364  0.0673 -0.2395
27094SOL    HW186220   5.204   2.985   1.941  0.3418  0.6832  1.2290
27094SOL    HW286221   5.063   2.937   1.971  0.2491 -0.0044 -0.2366
27095SOL     OW86222   4.958   2.992  10.248  0.2319 -0.1671  0.0478
27095SOL    HW186223   4.879   2.967  10.297  0.5150 -1.9261 -0.3239
27095SOL    HW286224   5.009   3.044  10.310 -0.5415 -0.2473  0.7778
27096SOL     OW86225   3.091  10.334   5.979  0.1607  0.2825  0.1456
27096SOL    HW186226   3.182  10.342   6.007  0.3222  1.0760 -0.5618
27096SOL    HW286227   3.053  10.420   5.998  0.0535  0.5600 -1.2383
27097SOL     OW86228   8.557   4.322   5.149 -0.1572  0.0891  0.0630
27097SOL    HW186229   8.566   4.308   5.054 -0.3252 -0.4099  0.1205
27097SOL    HW286230   8.480   4.378   5.157 -1.2572 -1.3783  0.0136
27098SOL     OW86231   6.543   9.997   8.645 -0.1990 -0.3104 -0.0417
27098SOL    HW186232   6.454  10.013   8.676 -0.3703  0.8243 -1.0592
27098SOL    HW286233   6.599  10.046   8.705 -0.4573  1.0458 -0.8833
27099SOL     OW86234   4.176   9.583  10.028 -0.1955 -0.3356  0.2272
27099SOL    HW186235   4.244   9.610  10.090  1.4894  0.2647 -1.7704
27099SOL    HW286236   4.127   9.663  10.009  0.5175 -0.0832 -0.6214
27100SOL     OW86237   3.743   4.344   9.230 -0.1817 -0.2998  0.0644
27100SOL    HW186238   3.659   4.368   9.192 -0.0002 -0.2145 -0.2963
27100SOL    HW286239   3.743   4.248   9.231  0.6417 -0.3861 -2.1331
27101SOL     OW86240   0.592   7.756   0.649 -0.9538  0.2993 -0.4013
27101SOL    HW186241   0.628   7.725   0.566 -2.8052  1.2494 -1.6374
27101SOL    HW286242   0.498   7.767   0.631 -1.6458 -0.5815  2.1601
27102SOL     OW86243   2.416   9.914   4.971  0.4047  0.0608 -0.4484
27102SOL    HW186244   2.357   9.858   5.022 -1.3732  1.2803 -1.0427
27102SOL    HW286245   2.432   9.864   4.891 -0.3116 -0.0623 -0.5250
27103SOL     OW86246   1.595   0.393   5.593  0.4129  0.1416  0.3256
27103SOL    HW186247   1.623   0.484   5.581  0.0929  0.4796  1.9850
27103SOL    HW286248   1.676   0.345   5.609  0.3866  0.5381  1.7198
27104SOL     OW86249   3.530   1.459  11.308 -0.4100  0.2164  0.2994
27104SOL    HW186250   3.478   1.489  11.382  0.5027  1.4303  0.4847
27104SOL    HW286251   3.549   1.367  11.327 -3.1495 -0.5176 -0.1976
27105SOL     OW86252   4.756   4.140   0.324 -0.2203  0.3506 -0.0958
27105SOL    HW186253   4.686   4.133   0.388  1.0354  0.1502  1.3082
27105SOL    HW286254   4.784   4.231   0.328 -1.6505  0.9608 -2.0964
27106SOL     OW86255   9.579   1.883  10.386  0.1272 -0.3163 -0.6576
27106SOL    HW186256   9.501   1.856  10.339 -0.6042 -1.1150  0.9422
27106SOL    HW286257   9.559   1.867  10.478  1.6705  0.7535 -0.0883
27107SOL     OW86258   0.668   3.491  10.487  0.3250 -0.1289 -0.0126
27107SOL    HW186259   0.585   3.489  10.535 -0.1433  1.5745 -0.6888
27107SOL    HW286260   0.662   3.419  10.425  0.2097 -1.2640  1.2550
27108SOL     OW86261   6.636   2.620   0.410 -0.2128  0.1525  0.1309
27108SOL    HW186262   6.568   2.657   0.354 -1.2316 -0.6699  0.7736
27108SOL    HW286263   6.686   2.696   0.440 -1.0046  0.8130 -0.1634
27109SOL     OW86264   0.560   4.195   5.490  0.0966  0.3382 -0.0776
27109SOL    HW186265   0.604   4.280   5.494  0.4403  0.1453  0.2375
27109SOL    HW286266   0.623   4.133   5.527  0.3705 -0.2758 -1.5167
27110SOL     OW86267   4.711   9.332   1.134  0.1136 -0.1882 -0.6384
27110SOL    HW186268   4.649   9.405   1.124 -0.3587 -0.2589  1.3944
27110SOL    HW286269   4.674   9.262   1.079 -2.1114 -0.5037  1.1077
27111SOL     OW86270  10.358   9.429   1.988  0.3985  0.4404 -0.4668
27111SOL    HW186271  10.324   9.453   2.074  1.4017 -0.2874  0.1432
27111SOL    HW286272  10.425   9.495   1.970  0.6335  0.2147 -0.4125
27112SOL     OW86273   8.437  10.728  11.551 -0.2731  0.3213  0.1897
27112SOL    HW186274   8.414  10.794  11.485  0.5466  1.0345  0.6045
27112SOL    HW286275   8.403  10.646  11.515  0.8904  0.5360 -1.5537
27113SOL     OW86276   5.159   1.998   3.093 -0.3002  0.0676  0.3448
27113SOL    HW186277   5.110   1.973   3.015  0.3900 -3.2252  0.8275
27113SOL    HW286278   5.093   2.040   3.149 -1.7082 -0.9105 -0.4942
27114SOL     OW86279  11.674  10.290   4.842 -0.3858  0.1710  0.4019
27114SOL    HW186280  11.738  10.300   4.912  0.2425  2.5028 -0.4305
27114SOL    HW286281  11.691  10.363   4.782 -2.8404 -0.0038 -0.6421
27115SOL     OW86282   5.748   0.226   0.671  0.0172  0.0496 -0.2018
27115SOL    HW186283   5.661   0.190   0.655 -0.8868  1.3514  1.4293
27115SOL    HW286284   5.735   0.321   0.670  1.4522  0.2730 -0.0951
27116SOL     OW86285   8.776  10.382   9.408 -0.2738  0.2725  0.0809
27116SOL    HW186286   8.817  10.438   9.342 -0.1463  0.4230  0.2866
27116SOL    HW286287   8.791  10.293   9.377  1.4945  0.2561  0.8996
27117SOL     OW86288   1.901   0.991   8.601  0.0713 -0.0602 -0.3919
27117SOL    HW186289   1.930   1.016   8.514  1.2328 -1.6273 -0.5023
27117SOL    HW286290   1.805   0.991   8.596  0.0610  2.1395 -0.9591
27118SOL     OW86291   3.387  10.992   6.817  0.5201 -0.1207  0.2901
27118SOL    HW186292   3.465  11.023   6.863 -0.0326  0.2301  1.0130
27118SOL    HW286293   3.421  10.947   6.740  1.4764 -0.7749  1.0645
27119SOL     OW86294   5.601   0.164  11.230 -0.2466 -0.6346 -0.0155
27119SOL    HW186295   5.569   0.078  11.258  0.8684 -1.0565  0.0200
27119SOL    HW286296   5.611   0.213  11.312 -0.6359 -0.5523 -0.0142
27120SOL     OW86297   3.158  10.350   8.785 -0.0177  0.1140 -0.4928
27120SOL    HW186298   3.147  10.363   8.879 -0.4903  1.6921 -0.7368
27120SOL    HW286299   3.179  10.437   8.751  1.7914 -0.7158 -1.6449
27121SOL     OW86300   5.217   5.800   2.643  0.0689 -0.3353  0.3132
27121SOL    HW186301   5.232   5.784   2.736  0.6927 -0.3527  0.2162
27121SOL    HW286302   5.196   5.714   2.607 -1.1920 -0.1681  0.6128
27122SOL     OW86303   1.757   6.136   1.388 -0.5466 -0.4617 -0.2778
27122SOL    HW186304   1.733   6.092   1.306  1.2824 -0.9495 -0.6059
27122SOL    HW286305   1.675   6.146   1.435 -1.5387 -0.8165 -1.8680
27123SOL     OW86306   5.108   6.368  11.460  0.1107 -0.2921  0.0314
27123SOL    HW186307   5.015   6.359  11.484  0.2158 -0.0027  0.5832
27123SOL    HW286308   5.126   6.462  11.473  0.1593 -0.1083 -1.2998
27124SOL     OW86309   1.835   3.841   3.890  0.0452 -0.4076  0.5433
27124SOL    HW186310   1.841   3.931   3.859  0.2776 -0.7252 -0.3642
27124SOL    HW286311   1.912   3.798   3.852  0.4036 -0.7831  1.6691
27125SOL     OW86312   0.047   6.581   3.726  0.3478 -0.6314  0.0647
27125SOL    HW186313   0.045   6.489   3.702  0.8823 -1.2285  2.1391
27125SOL    HW286314   0.130   6.592   3.772  0.8852  1.1954 -1.2250
27126SOL     OW86315   8.894  10.218   3.440  0.0005  0.3563 -0.6618
27126SOL    HW186316   8.857  10.143   3.394  1.9217 -1.5717  0.7074
27126SOL    HW286317   8.864  10.294   3.391 -2.5230 -1.2379 -1.7874
27127SOL     OW86318   0.581   9.030   6.315 -0.2876  0.1623 -0.9205
27127SOL    HW186319   0.527   9.093   6.268  1.0990 -0.0075 -2.8877
27127SOL    HW286320   0.669   9.068   6.314 -0.0891 -0.0941  1.1874
27128SOL     OW86321   5.390  11.007   5.727 -0.1987  0.1042 -0.4248
27128SOL    HW186322   5.294  11.004   5.732 -0.1967  1.0891  1.1058
27128SOL    HW286323   5.410  10.989   5.635 -2.0230  2.8106 -1.4977
27129SOL     OW86324   1.441   7.195  10.440  0.8994  0.5505  0.7232
27129SOL    HW186325   1.402   7.268  10.392 -2.0898 -0.8841  0.7745
27129SOL    HW286326   1.399   7.197  10.526  1.9413 -0.3287  1.2818
27130SOL     OW86327  11.524   4.945   6.623  0.8144  0.6405 -0.4823
27130SOL    HW186328  11.443   4.899   6.643  0.8036  0.6308 -0.5477
27130SOL    HW286329  11.501   5.038   6.629  0.9613  0.6381  0.1636
27131SOL     OW86330   6.031  10.001  11.518  0.0343  0.0722 -0.0931
27131SOL    HW186331   6.098   9.991  11.450  0.2204  0.5345  0.0193
27131SOL    HW286332   6.042   9.924  11.574  0.4307  0.1083 -0.1145
27132SOL     OW86333   3.444   7.362   1.928 -0.0337  0.2778 -0.8139
27132SOL    HW186334   3.458   7.411   1.848  0.5807 -1.3098 -1.7293
27132SOL    HW286335   3.352   7.335   1.925 -0.1189  0.5615 -0.7726
27133SOL     OW86336  11.460   5.185   1.001 -0.2667  0.0250  0.4103
27133SOL    HW186337  11.515   5.251   1.043 -2.0417  0.0642  2.8783
27133SOL    HW286338  11.453   5.215   0.910  1.1621  1.7146  0.7946
27134SOL     OW86339   9.930  11.015   3.426 -0.0080 -0.3826  0.1993
27134SOL    HW186340   9.960  11.104   3.444 -1.5395  0.1764  0.1339
27134SOL    HW286341   9.987  10.984   3.356 -0.8654  1.3956 -1.3731
27135SOL     OW86342   8.857   8.731   9.116  0.6574  0.0925  0.3914
27135SOL    HW186343   8.902   8.759   9.036  0.7854  1.6640  0.9621
27135SOL    HW286344   8.764   8.734   9.094  0.7068  0.1717  0.1945
27136SOL     OW86345   2.383   3.004   3.837 -0.4408 -0.1652  0.2096
27136SOL    HW186346   2.387   3.099   3.823 -0.3974 -0.2266 -0.2155
27136SOL    HW286347   2.291   2.981   3.825 -0.2677 -0.3416 -0.8273
27137SOL     OW86348   7.560   9.428  10.643  0.2659  0.2843 -0.0327
27137SOL    HW186349   7.540   9.513  10.681 -0.5352  0.1011 -0.0191
27137SOL    HW286350   7.613   9.448  10.566 -1.7706  0.9865 -1.3381
27138SOL     OW86351   6.221  10.099   0.233  0.2809  0.2745  0.3058
27138SOL    HW186352   6.300  10.134   0.274 -0.3494  1.0571  0.8828
27138SOL    HW286353   6.253  10.055   0.155  1.1135  2.4646 -0.6808
27139SOL     OW86354   0.067   9.565   9.220 -0.0185  0.2940 -0.3972
27139SOL    HW186355   0.148   9.594   9.179  1.1241 -1.8670  0.2100
27139SOL    HW286356   0.070   9.601   9.308  1.4275 -1.5669  0.3783
27140SOL     OW86357   6.334   2.662  11.402  0.5818 -0.2311  0.1899
27140SOL    HW186358   6.276   2.637  11.473  2.0604 -1.6562  0.9791
27140SOL    HW286359   6.324   2.591  11.337 -0.2149  0.6845 -0.7235
27141SOL     OW86360   3.569   2.130   0.133  0.1167 -0.3059 -0.5727
27141SOL    HW186361   3.634   2.176   0.186 -1.4004 -0.5972  1.7081
27141SOL    HW286362   3.614   2.052   0.100  1.1112 -0.1668  0.4118
27142SOL     OW86363   6.131   7.751   5.504  0.2068 -0.0892 -0.4138
27142SOL    HW186364   6.171   7.671   5.468  2.4091  0.4594  0.5978
27142SOL    HW286365   6.070   7.720   5.570  1.8005 -0.9924  0.7105
27143SOL     OW86366   7.807   2.107   1.866 -0.6684  0.0317  0.2861
27143SOL    HW186367   7.825   2.047   1.794 -0.1391  1.2434 -0.6330
27143SOL    HW286368   7.764   2.182   1.826 -1.4090  0.2461  1.4200
27144SOL     OW86369   8.087   9.306  10.217 -0.2193 -0.1637 -0.5495
27144SOL    HW186370   8.037   9.327  10.138 -1.7079 -0.0731  0.3707
27144SOL    HW286371   8.046   9.358  10.286  0.4310 -0.9529  0.4640
27145SOL     OW86372   5.291   2.928   4.933  0.0945  0.5596 -0.0031
27145SOL    HW186373   5.385   2.915   4.931 -0.0931 -0.9407 -0.3562
27145SOL    HW286374   5.279   3.022   4.920  1.4806  0.5602 -1.5983
27146SOL     OW86375   7.678   7.190   5.456 -0.2798 -0.0756 -0.0935
27146SOL    HW186376   7.627   7.148   5.525 -0.4444  0.5534  0.1795
27146SOL    HW286377   7.618   7.194   5.381 -0.1203 -0.7058 -0.2556
27147SOL     OW86378   9.768  11.129   6.512  0.6257  0.5783  1.2685
27147SOL    HW186379   9.849  11.178   6.531  1.2050 -0.5000  1.6547
27147SOL    HW286380   9.751  11.147   6.419  3.0358 -1.5565  0.2894
27148SOL     OW86381   6.726   6.630   1.815 -0.2209  0.0215 -0.1037
27148SOL    HW186382   6.705   6.661   1.727 -1.8239 -0.1525  0.1840
27148SOL    HW286383   6.712   6.706   1.872 -0.3815 -0.1891  0.1436
27149SOL     OW86384   7.833   7.651   5.505 -0.2216  0.1716 -0.5089
27149SOL    HW186385   7.814   7.741   5.478 -0.3028 -0.2885 -2.1114
27149SOL    HW286386   7.777   7.636   5.581  0.9709  1.9792  0.8167
27150SOL     OW86387   3.455   4.348  11.216 -0.0529  0.4227  0.4911
27150SOL    HW186388   3.503   4.319  11.139 -0.8897  1.6604 -0.5338
27150SOL    HW286389   3.375   4.294  11.217 -1.5992  2.5025 -1.4038
27151SOL     OW86390   6.282   1.269   5.291 -0.1645  0.3688  0.4553
27151SOL    HW186391   6.338   1.341   5.320  0.4534 -0.6482  1.8815
27151SOL    HW286392   6.199   1.282   5.336 -0.6562  1.1444 -0.6447
27152SOL     OW86393   4.751   2.458  11.665 -0.2725 -0.4426 -0.6629
27152SOL    HW186394   4.737   2.488  11.576 -1.1933  1.1482 -0.0186
27152SOL    HW286395   4.670   2.413  11.689 -0.3305 -0.1810 -0.3629
27153SOL     OW86396   0.481   7.082   3.815 -0.8401  0.3963  0.2363
27153SOL    HW186397   0.490   7.002   3.763 -0.0574 -0.7340  2.0216
27153SOL    HW286398   0.539   7.145   3.773 -1.2210 -0.0542 -1.0143
27154SOL     OW86399   5.248  11.345   7.254  0.1135  0.0906 -0.1127
27154SOL    HW186400   5.263  11.272   7.193  0.8466  0.0330  0.1265
27154SOL    HW286401   5.162  11.380   7.229  0.9346  0.8721 -2.0276
27155SOL     OW86402   1.201   7.073   2.684  0.0439 -0.2883 -0.4305
27155SOL    HW186403   1.242   7.154   2.655 -0.0467  0.3262  1.0808
27155SOL    HW286404   1.179   7.088   2.776 -1.3809 -1.4740 -0.5347
27156SOL     OW86405   9.984   6.832   4.541  0.5149  0.0178 -0.0257
27156SOL    HW186406   9.899   6.795   4.521  0.7649 -0.8881  0.5425
27156SOL    HW286407  10.045   6.788   4.482  0.9222 -1.0435  1.1508
27157SOL     OW86408   2.883   5.080   3.683  0.3029 -0.3355 -0.0580
27157SOL    HW186409   2.961   5.080   3.629 -1.7910 -1.5971 -3.3896
27157SOL    HW286410   2.828   5.149   3.647 -0.6766 -0.3272  1.3629
27158SOL     OW86411   0.314   3.625   3.163 -0.3265  0.9912 -0.0616
27158SOL    HW186412   0.394   3.589   3.124 -0.3099  1.2823 -0.2905
27158SOL    HW286413   0.344   3.700   3.214 -0.2081  0.0927  1.2829
27159SOL     OW86414   8.914   2.956  10.388 -0.0230  0.2809  0.1798
27159SOL    HW186415   8.958   3.041  10.395  0.6840 -0.0441 -0.1929
27159SOL    HW286416   8.863   2.949  10.468 -0.0716  1.0508  0.2257
27160SOL     OW86417   7.021   0.843   8.560 -0.3451  0.2735  0.0139
27160SOL    HW186418   7.029   0.832   8.655  1.9484  0.2037 -0.1407
27160SOL    HW286419   6.972   0.767   8.531  0.4475 -0.6295  0.9640
27161SOL     OW86420   8.896   5.179   7.070  0.2872  0.1119 -0.8842
27161SOL    HW186421   8.910   5.244   7.001 -1.7193  1.1310 -0.4150
27161SOL    HW286422   8.949   5.104   7.043  1.3716  1.3278 -2.3044
27162SOL     OW86423   6.188  10.523   6.954 -0.2451  0.0282 -0.1404
27162SOL    HW186424   6.152  10.444   6.996 -0.1147  1.2860  2.5257
27162SOL    HW286425   6.283  10.513   6.963 -0.2487  0.7621  0.7883
27163SOL     OW86426  10.814   4.455   3.771 -0.1885 -0.1007  0.0361
27163SOL    HW186427  10.896   4.503   3.785 -1.9180  2.3668  3.4801
27163SOL    HW286428  10.837   4.363   3.785  1.9687  0.5586  1.3183
27164SOL     OW86429   8.032   5.291   0.733  0.2790  0.2453  0.5238
27164SOL    HW186430   8.007   5.266   0.822  0.1330  1.4498  0.8463
27164SOL    HW286431   8.128   5.294   0.735  0.4519 -2.3228 -0.1326
27165SOL     OW86432   8.410  10.070  11.557 -0.3074  0.2810 -0.1657
27165SOL    HW186433   8.467  10.038  11.627  0.9323 -0.2479 -1.3560
27165SOL    HW286434   8.333  10.013  11.560 -0.5746  0.6769  1.1499
27166SOL     OW86435   9.763   6.113   6.330 -0.1932 -0.0120  0.0083
27166SOL    HW186436   9.765   6.123   6.426  1.5192  1.1690 -0.0914
27166SOL    HW286437   9.674   6.138   6.306 -1.3910 -2.4736  1.4227
27167SOL     OW86438   5.777   3.150   8.228 -0.6437  0.1049  0.1912
27167SOL    HW186439   5.685   3.125   8.237 -0.5259 -0.2358  0.4756
27167SOL    HW286440   5.804   3.174   8.316 -0.6887  1.0246 -0.0361
27168SOL     OW86441   3.642   9.049   1.230 -0.4115  0.1941  0.1768
27168SOL    HW186442   3.557   9.034   1.270  0.2322  0.2605  1.6681
27168SOL    HW286443   3.631   9.128   1.176 -1.2125  0.3790  0.6043
27169SOL     OW86444   4.602   8.741   3.609 -0.0481 -0.4742 -0.0235
27169SOL    HW186445   4.661   8.697   3.547 -0.8698  2.3910 -3.1485
27169SOL    HW286446   4.656   8.806   3.652  0.1720 -1.4195  1.1712
27170SOL     OW86447  10.881   6.995   4.057 -0.2861 -0.2785  0.5057
27170SOL    HW186448  10.906   6.933   3.988  0.0854 -0.9413  1.2172
27170SOL    HW286449  10.955   7.055   4.063 -1.0507  0.8748 -0.8553
27171SOL     OW86450   4.238   3.643   8.844  0.0760  0.0628 -0.3986
27171SOL    HW186451   4.277   3.665   8.929 -0.4201  0.0921 -0.1787
27171SOL    HW286452   4.210   3.552   8.853 -2.8293  0.9585  0.5649
27172SOL     OW86453   0.351   1.273   1.983  0.5020  0.1169 -0.1609
27172SOL    HW186454   0.312   1.341   1.928  0.4348  0.4203  0.2581
27172SOL    HW286455   0.398   1.217   1.921  0.6495  0.6050 -0.5017
27173SOL     OW86456  10.351   9.674   9.977 -0.3671  0.0585  0.7712
27173SOL    HW186457  10.437   9.714   9.969 -0.4092 -0.0427 -0.4510
27173SOL    HW286458  10.365   9.582   9.953 -1.3178  0.6847 -2.9366
27174SOL     OW86459   4.694   5.968   3.274  0.1093 -0.2437 -0.3358
27174SOL    HW186460   4.750   5.894   3.296 -0.1096  0.1357  1.6899
27174SOL    HW286461   4.679   5.960   3.179 -0.5067 -3.1682 -0.0783
27175SOL     OW86462   1.973   6.804   0.506  0.1889 -0.4008 -0.2339
27175SOL    HW186463   2.057   6.826   0.467  0.3917 -1.8112 -0.6406
27175SOL    HW286464   1.995   6.763   0.589 -0.1598  0.3660  0.2529
27176SOL     OW86465   0.025  10.967   3.702 -0.1082  0.2985  0.3744
27176SOL    HW186466  -0.014  11.042   3.657  1.0066 -0.0097 -1.1952
27176SOL    HW286467   0.119  10.977   3.687  0.0720 -1.3313  0.2788
27177SOL     OW86468   3.421   4.733   6.747  0.2178  0.5509 -0.2970
27177SOL    HW186469   3.385   4.812   6.788  2.4323  1.1055  0.7640
27177SOL    HW286470   3.447   4.677   6.820 -2.4562 -1.8572 -1.0048
27178SOL     OW86471   3.402   0.020   9.827  0.2101 -0.3820 -0.0576
27178SOL    HW186472   3.362  -0.047   9.773  0.7599 -0.1419 -0.7795
27178SOL    HW286473   3.486   0.039   9.785 -0.2868  1.3556 -0.3798
27179SOL     OW86474   7.094   5.014   5.713  0.3628  0.0322 -0.3153
27179SOL    HW186475   7.090   4.923   5.743  2.5660 -0.8246 -2.3142
27179SOL    HW286476   7.007   5.049   5.731 -0.5963 -2.5035  0.3830
27180SOL     OW86477   2.454   6.000   9.024  0.0180 -0.2022 -0.5118
27180SOL    HW186478   2.508   5.933   8.983 -3.6040 -4.0330  0.2525
27180SOL    HW286479   2.496   6.017   9.109  0.5347 -2.3189 -0.3033
27181SOL     OW86480   7.413   5.137   4.125  1.0982  0.0097 -0.1431
27181SOL    HW186481   7.402   5.142   4.220 -0.1233 -0.9492 -0.2168
27181SOL    HW286482   7.428   5.045   4.106 -1.6393 -0.3308 -1.1252
27182SOL     OW86483  11.026   4.268   3.356  0.2031  0.0281 -0.0010
27182SOL    HW186484  11.061   4.181   3.336  0.6606 -0.0591  1.1216
27182SOL    HW286485  11.104   4.320   3.375 -0.2195 -0.1480  2.4742
27183SOL     OW86486   7.125  11.526  10.917 -0.0339  0.3015  0.3121
27183SOL    HW186487   7.062  11.598  10.908 -0.3939  0.1296  1.2975
27183SOL    HW286488   7.102  11.465  10.847  0.7097  1.4458 -0.9761
27184SOL     OW86489   0.322   1.029   0.325 -0.2419 -0.5867 -0.1066
27184SOL    HW186490   0.384   1.016   0.396 -1.1889  2.0317  1.3298
27184SOL    HW286491   0.359   1.101   0.274 -1.1746 -0.2372 -0.3032
27185SOL     OW86492   8.999   5.408   1.344  0.0283 -0.0789 -0.1126
27185SOL    HW186493   8.967   5.334   1.292 -1.3068 -1.0619  2.0053
27185SOL    HW286494   8.950   5.483   1.310  1.0675 -0.1843 -1.9789
27186SOL     OW86495   2.581   3.189  11.281  0.5333 -0.1414  0.1730
27186SOL    HW186496   2.584   3.117  11.217  1.5189 -0.4565  0.5561
27186SOL    HW286497   2.644   3.253  11.248  0.1670  0.2373  0.2017
27187SOL     OW86498   5.971   3.225   1.827 -0.5612 -0.3320 -0.0383
27187SOL    HW186499   5.934   3.151   1.780  0.4533 -1.7394  1.2887
27187SOL    HW286500   5.896   3.269   1.867 -1.0879 -1.0913 -0.1852
27188SOL     OW86501   3.003   5.111   0.899 -0.4753  0.3840  0.0996
27188SOL    HW186502   3.048   5.127   0.816 -0.6981 -0.6871 -0.2502
27188SOL    HW286503   2.921   5.068   0.874 -0.7506  0.4548  0.8476
27189SOL     OW86504   1.670   7.091   3.163  0.3294 -0.3232  0.5755
27189SOL    HW186505   1.695   7.183   3.158  1.4817 -0.4234  3.1515
27189SOL    HW286506   1.574   7.092   3.166  0.1716  0.5521 -1.8108
27190SOL     OW86507   2.610   3.173   1.391  0.5435 -0.0682  0.5801
27190SOL    HW186508   2.528   3.206   1.429  0.7726  0.8159  0.3349
27190SOL    HW286509   2.606   3.200   1.299  1.9475  1.6723  0.9882
27191SOL     OW86510   2.574   3.081   1.701 -0.4043 -0.4220 -0.1363
27191SOL    HW186511   2.656   3.060   1.657  0.5513 -0.9315  1.7917
27191SOL    HW286512   2.522   3.001   1.694  0.0557 -0.7640  0.3416
27192SOL     OW86513   8.835   4.062   9.839  0.5689  0.1134  0.4099
27192SOL    HW186514   8.862   4.154   9.834 -2.0772  0.9421  0.0071
27192SOL    HW286515   8.773   4.051   9.767 -0.0295 -1.6919  1.1405
27193SOL     OW86516   3.139  11.149   7.464 -0.7087 -0.0279 -0.6036
27193SOL    HW186517   3.150  11.153   7.559 -0.5997 -0.0187 -0.6165
27193SOL    HW286518   3.045  11.162   7.450 -0.4751  2.1931 -0.6002
27194SOL     OW86519   2.964   9.329   8.754  0.5029 -0.0185 -0.3255
27194SOL    HW186520   3.055   9.328   8.784 -0.0227 -0.1541  1.3662
27194SOL    HW286521   2.925   9.405   8.798 -0.2868 -0.1654 -0.7532
27195SOL     OW86522   0.972   3.936   6.353 -0.1622  0.3908  0.0393
27195SOL    HW186523   0.896   3.976   6.395  0.2671 -0.5971  1.8820
27195SOL    HW286524   1.037   4.006   6.349 -0.6711  0.8541 -0.2161
27196SOL     OW86525   1.830   7.481   7.219 -0.5202  0.1161  0.0380
27196SOL    HW186526   1.795   7.457   7.304 -0.6422  0.9676  0.2419
27196SOL    HW286527   1.847   7.575   7.226  1.5408 -0.1819 -0.1388
27197SOL     OW86528  10.946   2.296   4.489 -0.1443  0.7892 -0.5997
27197SOL    HW186529  10.920   2.219   4.539  0.1366 -0.1354 -1.8245
27197SOL    HW286530  10.906   2.284   4.403  1.6770  0.8871 -1.5164
27198SOL     OW86531   2.132  11.132   2.438 -0.5007 -0.2615  0.3488
27198SOL    HW186532   2.062  11.094   2.491 -0.0261  0.1352  1.2936
27198SOL    HW286533   2.209  11.130   2.496  0.3926 -1.1453 -0.8316
27199SOL     OW86534   8.082   8.520   8.118  0.1906 -0.0513 -0.8619
27199SOL    HW186535   8.024   8.444   8.112  1.9066 -1.4806 -0.0955
27199SOL    HW286536   8.168   8.484   8.141  1.2785  2.0422 -1.3684
27200SOL     OW86537   4.142   0.835   7.283  0.4989  0.3886 -0.5058
27200SOL    HW186538   4.049   0.812   7.279  0.5980 -0.0027 -0.5984
27200SOL    HW286539   4.164   0.860   7.193  0.5710  0.1330 -0.5591
27201SOL     OW86540   9.455   9.954   0.742  0.2805  0.3489 -0.5399
27201SOL    HW186541   9.366   9.938   0.775  0.1487  0.0022 -1.0470
27201SOL    HW286542   9.472  10.046   0.764  0.3330  0.0479  0.7680
27202SOL     OW86543  10.369   1.382  10.002 -0.2404 -0.4426  0.0997
27202SOL    HW186544  10.350   1.293  10.034  1.8585 -0.7811  0.5733
27202SOL    HW286545  10.425   1.419  10.070  0.1171  0.7089 -0.8064
27203SOL     OW86546   7.019   0.697   7.098  0.0069 -0.1508  0.0082
27203SOL    HW186547   7.046   0.780   7.138  0.5491 -0.4106  0.2029
27203SOL    HW286548   6.927   0.710   7.075  0.2971  0.7747 -0.6803
27204SOL     OW86549   8.116   5.686   3.939 -0.1417 -0.1509  0.3327
27204SOL    HW186550   8.180   5.692   3.868 -1.7600  1.1936 -1.1154
27204SOL    HW286551   8.133   5.764   3.992  0.8721 -0.9971  1.2780
27205SOL     OW86552   3.257   0.188   9.155 -0.0358 -0.5421 -0.4903
27205SOL    HW186553   3.194   0.198   9.084  0.0168 -1.6436 -0.7030
27205SOL    HW286554   3.301   0.273   9.160 -1.4034  0.1882 -0.4498
27206SOL     OW86555   9.407   9.587  10.800 -0.3694 -0.2125 -0.4333
27206SOL    HW186556   9.404   9.536  10.881 -0.2255  0.2032 -0.1646
27206SOL    HW286557   9.477   9.651  10.814 -0.1766 -0.2928 -0.9817
27207SOL     OW86558   0.652  10.079   5.902  0.0648 -0.5484  0.5317
27207SOL    HW186559   0.605  10.057   5.822  1.0269 -2.3296  0.4157
27207SOL    HW286560   0.633  10.007   5.961  0.1355  0.2790  1.6018
27208SOL     OW86561   5.379  10.949   9.370 -0.0474  0.2173 -0.4755
27208SOL    HW186562   5.302  10.978   9.321 -0.4362  1.2569  0.6793
27208SOL    HW286563   5.404  11.026   9.421  0.2622 -0.8495  1.0328
27209SOL     OW86564   8.864  10.388   8.945 -0.1699 -0.2534 -0.8282
27209SOL    HW186565   8.839  10.480   8.942  2.4646  0.5575 -0.5534
27209SOL    HW286566   8.930  10.378   8.876  0.2496 -1.7114 -0.2588
27210SOL     OW86567   5.210   4.008   5.041 -0.1977 -0.1701  0.1049
27210SOL    HW186568   5.203   4.063   5.118  1.1662 -0.1733  0.2545
27210SOL    HW286569   5.303   4.010   5.018 -0.5977  0.0157 -1.6720
27211SOL     OW86570   2.472   5.276   9.254 -0.2189  0.3199  0.0225
27211SOL    HW186571   2.481   5.367   9.283  0.2035  0.7174 -1.2916
27211SOL    HW286572   2.513   5.224   9.323  1.4251  1.2824 -0.1756
27212SOL     OW86573   2.886   4.777   4.375  0.0159  0.1677  0.3485
27212SOL    HW186574   2.978   4.751   4.363 -0.2283 -0.6461  0.1674
27212SOL    HW286575   2.862   4.817   4.292  0.1813  0.3059  0.3653
27213SOL     OW86576   6.086   4.602   1.948  0.1215 -0.1516  0.1857
27213SOL    HW186577   6.077   4.621   2.041  0.3042 -1.1324  0.4136
27213SOL    HW286578   6.034   4.670   1.904 -0.3515  0.0351  1.0223
27214SOL     OW86579   0.333   2.141   0.190  0.6205  0.0488  0.4432
27214SOL    HW186580   0.337   2.178   0.278 -1.1791  0.2010  0.4952
27214SOL    HW286581   0.248   2.168   0.156  0.3012 -1.9179 -0.4611
27215SOL     OW86582   9.342   2.074   1.298  0.3159 -0.3594 -0.2417
27215SOL    HW186583   9.343   2.022   1.378 -1.0469  0.2995  0.2409
27215SOL    HW286584   9.256   2.056   1.260 -0.1494  1.4324 -0.1195
27216SOL     OW86585   5.874   0.704   6.342 -0.4375  0.3083  0.1076
27216SOL    HW186586   5.801   0.669   6.292  0.6066  0.0507 -1.3049
27216SOL    HW286587   5.947   0.644   6.324 -0.0461  0.1331  2.0682
27217SOL     OW86588  10.660   0.080   1.175 -0.0865 -0.1626  0.2792
27217SOL    HW186589  10.613   0.025   1.113 -1.8516  0.5067  0.9414
27217SOL    HW286590  10.684   0.158   1.125 -2.8749  1.0944  0.6653
27218SOL     OW86591   4.729   5.554   1.358 -0.8767 -0.8403  0.7953
27218SOL    HW186592   4.786   5.481   1.334  1.0661  0.5243  1.0785
27218SOL    HW286593   4.778   5.603   1.423 -1.6783  1.2930 -0.1114
27219SOL     OW86594   7.210   7.387   4.414 -0.4024  0.1259  0.3313
27219SOL    HW186595   7.140   7.343   4.461  0.8281  0.6055  2.7571
27219SOL    HW286596   7.193   7.480   4.427 -0.7169  0.3409 -1.3155
27220SOL     OW86597   5.961   2.390   4.319  0.0563  0.3725 -0.7763
27220SOL    HW186598   5.901   2.409   4.246 -2.6582  0.4681  1.3316
27220SOL    HW286599   5.903   2.364   4.391  2.6282  0.1232  1.3201
27221SOL     OW86600   8.563   5.467   1.282  0.4933 -0.4765 -0.2283
27221SOL    HW186601   8.613   5.406   1.228  0.9172 -1.0480  0.7968
27221SOL    HW286602   8.479   5.423   1.297  0.4019 -0.3458 -0.3416
27222SOL     OW86603   7.474   9.063   3.183  0.2783 -0.5498  0.6395
27222SOL    HW186604   7.451   8.971   3.172 -0.0530 -0.5243  1.0870
27222SOL    HW286605   7.526   9.084   3.105 -2.7233 -0.1146 -1.3913
27223SOL     OW86606   7.386   8.153   5.657 -0.0119 -0.0767  0.9443
27223SOL    HW186607   7.388   8.153   5.561  1.1491  1.8479  0.9048
27223SOL    HW286608   7.304   8.109   5.679  0.9840 -3.1274 -0.8213
27224SOL     OW86609   9.381   9.538   4.180  0.1654 -0.1173  0.2547
27224SOL    HW186610   9.356   9.587   4.258 -1.2101 -0.0650 -0.1871
27224SOL    HW286611   9.386   9.447   4.209  1.1565  0.0850  0.7297
27225SOL     OW86612   6.524  10.548   8.449 -0.3437  0.1476 -0.2568
27225SOL    HW186613   6.463  10.588   8.387 -1.3275  1.4384  1.4669
27225SOL    HW286614   6.607  10.594   8.435 -0.6480  0.6567 -0.4182
27226SOL     OW86615   0.584   0.496  10.956 -0.3078 -0.2151  0.6109
27226SOL    HW186616   0.524   0.569  10.974 -0.1826  0.1702 -0.4629
27226SOL    HW286617   0.588   0.492  10.860  1.9998  0.2698  0.6450
27227SOL     OW86618   1.450   2.706   6.597 -0.0133 -0.2932 -0.0341
27227SOL    HW186619   1.511   2.749   6.656  1.1435 -0.8136 -0.8109
27227SOL    HW286620   1.470   2.744   6.511  0.1558 -1.4393 -0.5180
27228SOL     OW86621   8.765   5.039   2.773 -0.2016  0.2952  0.3373
27228SOL    HW186622   8.818   5.030   2.694 -1.0277  0.9077 -0.3077
27228SOL    HW286623   8.818   5.094   2.831 -0.3193  1.3314 -0.5002
27229SOL     OW86624   2.095   4.234   1.833  0.2006  0.5863  0.1753
27229SOL    HW186625   2.081   4.326   1.854  0.9570  0.5189  1.0180
27229SOL    HW286626   2.030   4.215   1.766  0.6055  1.9557 -0.6438
27230SOL     OW86627   9.326   0.264   1.207 -0.1248  0.5109  0.1986
27230SOL    HW186628   9.305   0.356   1.221  1.3282  0.7007  1.4130
27230SOL    HW286629   9.422   0.262   1.202 -0.2036 -0.6914 -1.8374
27231SOL     OW86630   3.200   1.107   0.297  0.4292  0.1651 -0.6442
27231SOL    HW186631   3.138   1.172   0.265 -0.3011  0.1296  0.6162
27231SOL    HW286632   3.157   1.023   0.285 -0.8352  0.2598  2.2488
27232SOL     OW86633   5.654   6.234   7.452  0.3996 -0.1889  0.0673
27232SOL    HW186634   5.730   6.259   7.504 -0.6025 -0.0616  1.5245
27232SOL    HW286635   5.691   6.205   7.368  2.0096  0.2161  0.5967
27233SOL     OW86636  10.564   8.026   9.864  0.3773  0.1744 -0.4594
27233SOL    HW186637  10.577   7.938   9.900 -0.0342  0.7053  1.0804
27233SOL    HW286638  10.541   8.011   9.772  2.3174 -1.2028 -0.7752
27234SOL     OW86639   1.824   8.563  10.738  0.2912  0.0995  0.0430
27234SOL    HW186640   1.817   8.632  10.804 -0.4526 -1.1072  1.2984
27234SOL    HW286641   1.804   8.482  10.786  2.5238 -1.1912 -1.0185
27235SOL     OW86642   2.206   1.739  11.555 -0.5261  0.0288 -0.5022
27235SOL    HW186643   2.148   1.814  11.566 -2.2144 -1.3433  0.5208
27235SOL    HW286644   2.286   1.763  11.602 -2.4687 -0.2454  3.2800
27236SOL     OW86645   3.302   0.867   4.941 -0.0214  0.1229  0.1937
27236SOL    HW186646   3.377   0.813   4.967 -0.4035  0.6717  2.6975
27236SOL    HW286647   3.231   0.841   5.000 -0.8962  1.7004 -0.0921
27237SOL     OW86648   7.713   3.470   3.642  0.3904  0.4276 -0.0188
27237SOL    HW186649   7.747   3.386   3.611  1.4423  0.8163  0.0298
27237SOL    HW286650   7.666   3.507   3.567 -1.5879 -0.9449  0.4674
27238SOL     OW86651   1.915   5.955   3.064  1.0271  0.2606 -0.1804
27238SOL    HW186652   2.006   5.929   3.046  0.6376 -1.7822  0.4630
27238SOL    HW286653   1.914   6.050   3.054  3.2511  0.3363 -0.1361
27239SOL     OW86654   7.883   8.128   3.163 -0.0193  0.8312  0.4651
27239SOL    HW186655   7.955   8.177   3.124  0.5049 -1.5779 -1.8499
27239SOL    HW286656   7.809   8.143   3.103 -0.2897  0.0713  0.5994
27240SOL     OW86657   3.760   7.441   5.897 -0.3682  0.1257  0.8223
27240SOL    HW186658   3.697   7.491   5.949 -0.4624 -0.1396  0.9686
27240SOL    HW286659   3.814   7.507   5.854 -0.0030  0.3519  1.5988
27241SOL     OW86660   3.283   5.450   6.313 -0.3815  0.1720  0.1935
27241SOL    HW186661   3.351   5.508   6.280 -0.9578  1.4704  1.2059
27241SOL    HW286662   3.234   5.503   6.376 -1.0596 -1.3482  1.0144
27242SOL     OW86663   4.365   3.492   3.167  0.2391 -0.0170 -0.1028
27242SOL    HW186664   4.425   3.560   3.139 -1.2545  0.9869 -0.9972
27242SOL    HW286665   4.285   3.507   3.116 -1.1229 -0.7147  1.6909
27243SOL     OW86666   6.563   8.327   2.599 -0.3275 -0.4384 -0.9887
27243SOL    HW186667   6.480   8.373   2.614 -0.8386 -1.2677 -1.2171
27243SOL    HW286668   6.588   8.352   2.510  2.0831  3.5107  0.5224
27244SOL     OW86669   9.303   7.727   7.787  0.1807 -0.2105 -0.1591
27244SOL    HW186670   9.300   7.822   7.789  0.4523 -0.0014 -3.8680
27244SOL    HW286671   9.387   7.705   7.829  1.0186  1.3129 -0.9557
27245SOL     OW86672   1.756   7.728   3.181  0.1676 -0.5763 -0.1425
27245SOL    HW186673   1.706   7.776   3.116 -1.4900 -0.4046  1.1852
27245SOL    HW286674   1.795   7.655   3.133 -0.9437 -0.4129 -1.3462
27246SOL     OW86675   7.804  10.471  10.310  0.0451 -0.3795  0.0354
27246SOL    HW186676   7.785  10.436  10.396 -0.7226  0.1942  0.1072
27246SOL    HW286677   7.737  10.537  10.295 -0.1733 -0.8584 -1.2390
27247SOL     OW86678   7.860   7.027   7.255 -0.3549  0.0449  0.0403
27247SOL    HW186679   7.816   6.960   7.307 -1.2513 -0.0223 -0.7709
27247SOL    HW286680   7.824   7.110   7.287  1.7673  0.2909  2.0025
27248SOL     OW86681   8.866   1.470  11.064  0.1302  0.1423 -0.6291
27248SOL    HW186682   8.877   1.463  10.969  0.1818 -0.0442 -0.6103
27248SOL    HW286683   8.911   1.551  11.087  0.6802 -0.1416 -0.6802
27249SOL     OW86684  10.249   7.941   9.899 -0.9520  0.4486 -0.1212
27249SOL    HW186685  10.312   7.941   9.971 -0.6065 -1.2833 -0.3882
27249SOL    HW286686  10.237   7.849   9.877 -0.6757  0.9293 -2.5979
27250SOL     OW86687   2.627   5.151   9.431  0.7876 -0.3725  0.5092
27250SOL    HW186688   2.577   5.071   9.420 -0.3286  0.3076  0.4874
27250SOL    HW286689   2.714   5.130   9.398 -0.3012 -0.6707 -2.4525
27251SOL     OW86690   6.513   0.186   9.058  0.1344 -0.1521  0.1327
27251SOL    HW186691   6.537   0.140   8.978  0.8422 -0.9331  0.7692
27251SOL    HW286692   6.433   0.233   9.036  1.0217  0.6898 -1.3995
27252SOL     OW86693   5.815   3.267   2.636 -0.6003 -0.2102 -0.3875
27252SOL    HW186694   5.761   3.199   2.595 -0.4537  0.5354 -1.8554
27252SOL    HW286695   5.886   3.282   2.574 -0.8032  1.5037 -0.2531
27253SOL     OW86696   7.462   2.387   9.754 -1.1906  0.3819 -0.7302
27253SOL    HW186697   7.522   2.319   9.786 -0.5858  0.7133 -1.1433
27253SOL    HW286698   7.405   2.405   9.829 -1.2135 -0.4223 -0.5470
27254SOL     OW86699   2.595   7.043   3.479 -0.4212  0.0135  0.3147
27254SOL    HW186700   2.550   7.099   3.542  1.6746  1.3810  0.6713
27254SOL    HW286701   2.564   7.074   3.394  0.6643  1.7658  0.5043
27255SOL     OW86702   4.086   7.438   3.010 -0.7897 -0.9446  0.2925
27255SOL    HW186703   4.136   7.519   3.018  0.1656 -1.7077  3.2332
27255SOL    HW286704   4.151   7.370   2.995 -1.2893 -1.4812  0.4995
27256SOL     OW86705   6.611   5.140   2.673 -0.0393 -0.0863 -0.5844
27256SOL    HW186706   6.547   5.070   2.660  0.3712 -0.3781 -1.1094
27256SOL    HW286707   6.568   5.219   2.640 -0.6561 -0.0081  0.3816
27257SOL     OW86708   5.694   5.628   4.169 -0.0730 -0.3605  0.1233
27257SOL    HW186709   5.639   5.706   4.172  0.3721 -0.0681  2.2916
27257SOL    HW286710   5.634   5.557   4.144 -0.8823  0.3382  0.0356
27258SOL     OW86711   2.256   3.180   6.209  0.3304  0.2781  0.5374
27258SOL    HW186712   2.287   3.235   6.136 -0.3930  0.6349  0.4858
27258SOL    HW286713   2.161   3.174   6.195  0.5089 -1.8604 -0.0432
27259SOL     OW86714   7.484   9.108  10.927  0.2572 -0.4566 -0.2863
27259SOL    HW186715   7.568   9.090  10.884  0.7514 -0.8309  0.8112
27259SOL    HW286716   7.471   9.035  10.986 -1.7571 -1.3707 -1.7296
27260SOL     OW86717   8.285   0.160   4.898 -0.1919  0.2983  0.9327
27260SOL    HW186718   8.343   0.084   4.911 -0.2521 -0.3784 -2.0984
27260SOL    HW286719   8.332   0.216   4.837 -2.3931  0.0360 -1.1292
27261SOL     OW86720   1.977   2.732   5.479 -0.2147  0.3311 -0.0525
27261SOL    HW186721   1.977   2.637   5.490  1.1328  0.2843 -0.2592
27261SOL    HW286722   2.048   2.749   5.417 -1.6482  1.3340 -1.5171
27262SOL     OW86723   8.920   2.948   2.392 -0.5887  0.3984 -0.0865
27262SOL    HW186724   9.002   2.898   2.384  0.1648  1.4374  0.8562
27262SOL    HW286725   8.931   3.021   2.331 -0.9988  0.3142 -0.2624
27263SOL     OW86726   2.967  11.428   4.876  0.3010  0.0722 -0.0005
27263SOL    HW186727   2.879  11.425   4.916  0.7863  0.7484  1.1790
27263SOL    HW286728   2.952  11.462   4.788 -0.8657 -1.8764 -0.6037
27264SOL     OW86729  11.449   7.088   0.125  0.2386 -0.2446  0.2148
27264SOL    HW186730  11.487   7.123   0.045 -0.7317 -1.3848 -0.7770
27264SOL    HW286731  11.523   7.049   0.171  1.2137  2.2858  0.9862
27265SOL     OW86732   6.186   0.917   3.577 -0.4193 -0.4871  0.1687
27265SOL    HW186733   6.106   0.900   3.626 -1.4520  2.4605 -0.3161
27265SOL    HW286734   6.157   0.930   3.487  1.0350 -2.2860 -0.6447
27266SOL     OW86735   4.324   5.086  11.109  0.0957  0.7903  0.2119
27266SOL    HW186736   4.336   5.148  11.180  1.4228  0.5884  0.1925
27266SOL    HW286737   4.297   5.005  11.153  2.7365  0.1070  0.7590
27267SOL     OW86738   6.903   7.614   1.109 -0.5961  0.1058 -0.2488
27267SOL    HW186739   6.939   7.577   1.028  1.5326  1.1705  0.1411
27267SOL    HW286740   6.868   7.539   1.157  1.0720 -1.0201 -0.7135
27268SOL     OW86741   8.890   7.368  10.832  0.4436  0.6849 -0.4221
27268SOL    HW186742   8.924   7.328  10.912  0.6202  2.1341  0.2671
27268SOL    HW286743   8.863   7.294  10.777  0.3762 -0.3474  0.9508
27269SOL     OW86744   3.183   5.248   8.668 -0.4753 -0.1000  0.1066
27269SOL    HW186745   3.204   5.339   8.688  2.8821 -0.5879 -0.5181
27269SOL    HW286746   3.106   5.229   8.722  1.4762  1.7802  4.0071
27270SOL     OW86747   9.292   9.928   2.986  0.2974  1.0588  0.6979
27270SOL    HW186748   9.298   9.890   3.074 -0.6424 -0.7272  0.0397
27270SOL    HW286749   9.272   9.854   2.929 -1.0265  2.4735 -0.7659
27271SOL     OW86750  10.331   0.780   0.600  0.2280 -0.0924  0.0326
27271SOL    HW186751  10.267   0.810   0.665 -3.5637  2.1068 -4.0904
27271SOL    HW286752  10.404   0.842   0.608  0.2725 -0.3938  2.5899
27272SOL     OW86753   1.221   5.258  11.019  0.1121  0.0567  0.4164
27272SOL    HW186754   1.306   5.274  10.976 -0.8130  2.6446 -0.6487
27272SOL    HW286755   1.167   5.220  10.950 -0.5314  1.5720  0.0346
27273SOL     OW86756   8.634   8.078   0.095 -0.5005  0.6927 -0.8770
27273SOL    HW186757   8.608   7.990   0.067 -0.2733  0.0733  0.6875
27273SOL    HW286758   8.719   8.092   0.053  0.4565 -0.7400  0.4337
27274SOL     OW86759   9.770   6.211   7.439  0.5476  0.1379 -0.8184
27274SOL    HW186760   9.693   6.154   7.446  0.4697  0.1593 -1.4098
27274SOL    HW286761   9.806   6.214   7.527 -1.8545  2.5957  0.2223
27275SOL     OW86762   3.108  10.357   1.426  0.4002 -0.2874  0.3892
27275SOL    HW186763   3.090  10.447   1.454 -2.0878 -0.6720  0.2366
27275SOL    HW286764   3.079  10.302   1.498 -1.3871 -1.0744 -0.8560
27276SOL     OW86765   5.649   4.055   7.780  0.2109 -0.1931  0.1574
27276SOL    HW186766   5.570   4.107   7.792 -0.1476 -0.8771  0.8730
27276SOL    HW286767   5.682   4.080   7.693 -0.6670  0.2548 -0.0558
27277SOL     OW86768   2.234   7.481  10.430 -0.0186  0.3092 -0.3416
27277SOL    HW186769   2.150   7.435  10.434  0.4313 -1.0778 -3.6255
27277SOL    HW286770   2.216   7.566  10.469 -2.0248 -1.0730  2.0546
27278SOL     OW86771   1.966  10.911  11.398  0.1202 -0.0760 -0.7227
27278SOL    HW186772   1.939  11.001  11.417 -3.5711 -1.3569  1.0769
27278SOL    HW286773   1.984  10.873  11.484  0.3866 -1.3741 -1.3275
27279SOL     OW86774   8.078   9.682   6.987 -0.0851  0.0981  0.2480
27279SOL    HW186775   8.006   9.705   6.928  1.4698  0.3987 -1.6169
27279SOL    HW286776   8.073   9.587   6.995 -0.4969  0.0869 -0.0945
27280SOL     OW86777   1.086  10.719   0.362 -0.2087 -0.6593  0.3051
27280SOL    HW186778   1.105  10.788   0.299  0.1284  2.1261  3.2162
27280SOL    HW286779   1.145  10.647   0.337  0.1040  0.3679 -2.2975
27281SOL     OW86780   9.359   4.282  11.044 -0.1462 -0.7572 -0.3366
27281SOL    HW186781   9.313   4.256  11.124  1.9175  2.8197  2.2648
27281SOL    HW286782   9.393   4.200  11.008 -0.6458 -2.4597  2.7764
27282SOL     OW86783   6.803   7.881   4.547  0.6299  0.4581 -0.6464
27282SOL    HW186784   6.771   7.912   4.632  0.7801 -0.2690 -0.3165
27282SOL    HW286785   6.729   7.893   4.488 -0.4494 -1.5394  0.1814
27283SOL     OW86786   4.866   2.737   0.538 -0.0582 -0.3910 -0.2846
27283SOL    HW186787   4.776   2.770   0.532  0.4019  0.8687 -0.6352
27283SOL    HW286788   4.907   2.766   0.456  0.8252 -0.4180  0.1407
27284SOL     OW86789   8.020   2.883   9.191 -0.8150 -0.1870 -0.4036
27284SOL    HW186790   8.111   2.862   9.212 -0.4920  1.5572  0.0466
27284SOL    HW286791   8.014   2.876   9.096  0.1607  0.9979 -0.5696
27285SOL     OW86792   9.397   4.045   8.679 -0.1274 -0.6341 -0.0321
27285SOL    HW186793   9.336   3.974   8.662  0.5201 -0.7154 -2.3266
27285SOL    HW286794   9.482   4.003   8.689  0.3094 -0.2248 -1.6983
27286SOL     OW86795   8.420  10.897   0.736 -0.3549  0.1216  0.1006
27286SOL    HW186796   8.508  10.861   0.754 -0.2542 -0.3005 -1.1271
27286SOL    HW286797   8.386  10.920   0.822  0.9353  0.2249  0.6158
27287SOL     OW86798   4.350   3.102   5.328  0.4042 -0.2374 -0.5213
27287SOL    HW186799   4.398   3.031   5.371  1.0315  0.0144 -0.7822
27287SOL    HW286800   4.397   3.116   5.246  0.1793  0.3592 -0.5538
27288SOL     OW86801   3.877   4.905  10.975  0.4602 -0.8124  0.1821
27288SOL    HW186802   3.891   4.889  11.068 -0.3117  0.1393  0.4907
27288SOL    HW286803   3.924   4.987  10.958 -0.6736 -0.1550  0.1166
27289SOL     OW86804   6.029   1.246   2.502 -0.0023 -0.1901  0.2403
27289SOL    HW186805   5.981   1.163   2.511 -0.3212 -0.1046 -0.5671
27289SOL    HW286806   6.018   1.269   2.410 -0.3650  1.0168  0.5714
27290SOL     OW86807   2.997   2.434   8.334 -0.8232  0.2122 -0.3012
27290SOL    HW186808   2.919   2.443   8.389 -0.5004 -1.4443  0.4928
27290SOL    HW286809   3.044   2.360   8.372  1.0674  1.0808 -0.8572
27291SOL     OW86810   1.020   3.422   6.651  0.0503 -0.4158  0.0659
27291SOL    HW186811   0.944   3.396   6.599 -0.1871 -0.4036  0.4020
27291SOL    HW286812   1.019   3.518   6.649  1.4434 -0.3880 -1.9247
27292SOL     OW86813   7.050  10.223   7.678 -0.0039  0.5985 -0.2410
27292SOL    HW186814   7.113  10.194   7.612 -0.1001  1.2267 -0.6152
27292SOL    HW286815   7.051  10.318   7.672 -1.0463  0.6155 -0.3083
27293SOL     OW86816   3.445   3.682   9.947  0.2591  0.6418  0.2381
27293SOL    HW186817   3.438   3.609  10.009  0.9953  0.6101  0.2844
27293SOL    HW286818   3.396   3.753   9.989 -1.0737 -0.0203 -0.1284
27294SOL     OW86819   3.324   9.569   4.732  0.0569 -0.0205  0.0605
27294SOL    HW186820   3.242   9.598   4.771 -0.2604 -0.4733 -0.2651
27294SOL    HW286821   3.352   9.495   4.786 -0.0790 -0.2709 -0.2074
27295SOL     OW86822   4.817   4.671   4.898 -0.0787  0.3211 -0.5809
27295SOL    HW186823   4.804   4.629   4.983  0.6548  2.4089  0.6535
27295SOL    HW286824   4.745   4.640   4.844 -0.8761 -0.6528  0.9831
27296SOL     OW86825   9.068   0.167   1.622 -0.1542  0.1597 -0.3752
27296SOL    HW186826   9.099   0.139   1.536 -1.7527 -1.1405 -0.5603
27296SOL    HW286827   9.059   0.085   1.671  1.0624  0.9053  1.1788
27297SOL     OW86828  10.319   6.443  10.887 -0.5027  0.1969  0.1167
27297SOL    HW186829  10.367   6.467  10.807 -0.8069  0.0781 -0.1009
27297SOL    HW286830  10.328   6.348  10.893  0.1857  0.2864  0.6513
27298SOL     OW86831   1.744  10.443   6.625  0.6083 -0.3005  0.0882
27298SOL    HW186832   1.824  10.417   6.671  0.8383  1.2678  0.6245
27298SOL    HW286833   1.675  10.438   6.691  0.5985  0.0821  0.1117
27299SOL     OW86834   3.447  10.783   4.169  0.4531  0.0643 -0.5194
27299SOL    HW186835   3.479  10.865   4.130  1.6477 -0.7036 -1.2218
27299SOL    HW286836   3.523  10.724   4.167 -0.0357 -0.6812  1.1089
27300SOL     OW86837   3.196   6.894  11.544  0.1086  0.5753  0.3712
27300SOL    HW186838   3.172   6.987  11.544 -1.3295  0.2522 -0.8122
27300SOL    HW286839   3.189   6.868  11.452 -2.1402 -1.2970  0.9667
27301SOL     OW86840   9.576   4.214   7.803  0.3783 -0.4476 -0.2427
27301SOL    HW186841   9.658   4.246   7.767  1.0033 -2.7491 -1.0083
27301SOL    HW286842   9.602   4.153   7.872 -0.6622 -1.4295 -0.6926
27302SOL     OW86843   9.036   7.653   8.302 -0.4664 -0.2835 -0.0906
27302SOL    HW186844   9.120   7.659   8.257  0.0189  0.8493  0.9197
27302SOL    HW286845   9.036   7.565   8.341  0.7781  0.1162  0.8672
27303SOL     OW86846   3.139   5.004   6.230  0.0885 -0.0381  0.0975
27303SOL    HW186847   3.120   4.936   6.295 -0.2383 -0.1361 -0.1001
27303SOL    HW286848   3.214   5.050   6.266 -0.7400  0.5936  1.0879
27304SOL     OW86849   0.128   3.293   0.073 -0.0230  0.2662  0.2253
27304SOL    HW186850   0.048   3.344   0.058 -1.0528 -1.1227  0.7894
27304SOL    HW286851   0.161   3.325   0.157  1.9628  3.2149 -1.4896
27305SOL     OW86852  10.572   9.896   0.499  0.0975 -0.2567 -0.2331
27305SOL    HW186853  10.524   9.819   0.530 -0.6482  0.5199  0.5933
27305SOL    HW286854  10.607   9.870   0.414 -0.0940 -1.5253  0.0593
27306SOL     OW86855   9.060   9.911   1.379 -0.3001  0.2629 -0.5282
27306SOL    HW186856   9.133   9.850   1.370 -0.0271  0.7524 -1.9572
27306SOL    HW286857   9.102   9.998   1.377 -0.8318  0.5283 -0.3058
27307SOL     OW86858   3.114   6.650   4.340 -0.6959  0.1324  0.1996
27307SOL    HW186859   3.060   6.673   4.416 -0.7447 -0.6320  0.4081
27307SOL    HW286860   3.096   6.557   4.326  1.0035 -0.2971  0.6490
27308SOL     OW86861   7.111   3.396   1.257  0.4862  0.1740 -0.0336
27308SOL    HW186862   7.175   3.423   1.324  1.8085  1.3309 -1.6945
27308SOL    HW286863   7.061   3.326   1.300  0.3631  1.7452  2.6366
27309SOL     OW86864   4.147   2.027   8.919 -0.3727 -0.4258 -0.1920
27309SOL    HW186865   4.139   1.932   8.918 -1.2770 -0.3456 -1.0046
27309SOL    HW286866   4.089   2.055   8.990  0.7502 -0.5408  0.7972
27310SOL     OW86867   3.149   8.997   7.599 -0.2601  0.2574 -0.2530
27310SOL    HW186868   3.064   9.040   7.607  0.0122  1.1429 -1.6807
27310SOL    HW286869   3.162   8.989   7.504  1.7425  1.2083 -0.1170
27311SOL     OW86870   7.088   5.194   4.245  0.2693 -0.0330 -0.5607
27311SOL    HW186871   7.175   5.186   4.284  0.7357 -0.6073 -1.6762
27311SOL    HW286872   7.036   5.127   4.289  0.3232  0.4421  0.2499
27312SOL     OW86873   4.213   7.580  11.441  0.2932 -0.4150 -0.4369
27312SOL    HW186874   4.145   7.620  11.387  0.8011  0.0127 -0.7610
27312SOL    HW286875   4.282   7.646  11.446  0.2403 -0.4264  0.7625
27313SOL     OW86876  10.414  11.600   0.266  0.7513  0.0276 -0.5806
27313SOL    HW186877  10.393  11.524   0.213  1.0504 -0.1208 -0.4895
27313SOL    HW286878  10.348  11.600   0.335  0.7778 -0.1774 -0.5547
27314SOL     OW86879   3.411   8.139  11.032  0.0644 -0.3600  0.0948
27314SOL    HW186880   3.388   8.216  11.084 -1.0066 -0.2375 -0.5467
27314SOL    HW286881   3.435   8.072  11.097  1.8004  0.7334  0.6344
27315SOL     OW86882   5.059   6.686   9.607  0.5721 -0.6108  0.3551
27315SOL    HW186883   5.152   6.699   9.625  0.3293 -1.8332  2.8489
27315SOL    HW286884   5.014   6.750   9.662 -0.1049 -0.9726  0.2349
27316SOL     OW86885   1.215   9.874   4.957  0.2886 -0.1206  0.3215
27316SOL    HW186886   1.198   9.954   5.007  0.2584  0.9490 -1.3163
27316SOL    HW286887   1.180   9.804   5.012 -1.2549  1.1388  1.0508
27317SOL     OW86888   5.908   9.473   0.274 -0.3560 -0.1615  0.0405
27317SOL    HW186889   5.865   9.517   0.348 -0.7884 -0.3282 -0.1084
27317SOL    HW286890   5.840   9.468   0.207  0.3506  1.0091 -0.7969
27318SOL     OW86891   8.569   9.692   6.066  0.2154  0.0712 -0.0098
27318SOL    HW186892   8.638   9.642   6.022 -0.2951 -1.0735  0.4230
27318SOL    HW286893   8.610   9.724   6.146  0.3952 -0.1548 -0.0092
27319SOL     OW86894   3.745   3.684   3.490 -0.1504 -0.0746  0.4346
27319SOL    HW186895   3.755   3.705   3.397 -0.7423 -1.2702  0.0824
27319SOL    HW286896   3.670   3.625   3.494  0.4456 -0.8032  1.5553
27320SOL     OW86897  10.164   9.681   3.181 -0.4244 -0.0515  0.4435
27320SOL    HW186898  10.087   9.626   3.194 -0.6432 -0.1654 -1.1964
27320SOL    HW286899  10.237   9.620   3.173 -0.5730 -0.0894 -0.7244
27321SOL     OW86900   6.167   1.015   3.297 -0.5404  0.0391  0.7051
27321SOL    HW186901   6.081   1.024   3.337 -0.5605  2.0806  0.3560
27321SOL    HW286902   6.217   1.089   3.331  0.0715  0.6883 -1.4184
27322SOL     OW86903   7.286   0.926   0.923  0.6236 -0.0205  0.0482
27322SOL    HW186904   7.327   0.840   0.926  1.4323  0.3605  0.0787
27322SOL    HW286905   7.193   0.907   0.906  0.7303 -0.9059  0.3788
27323SOL     OW86906   7.319   4.758   8.514  0.1500 -0.4521  0.2302
27323SOL    HW186907   7.321   4.663   8.523  0.9796 -0.4726 -0.0789
27323SOL    HW286908   7.232   4.777   8.480  1.1594 -1.4505 -3.3488
27324SOL     OW86909   2.239  11.456   2.178 -0.2244 -0.5202  0.7253
27324SOL    HW186910   2.203  11.502   2.102 -0.5011  1.3525  1.9212
27324SOL    HW286911   2.167  11.400   2.208 -0.8831  0.3543  0.8438
27325SOL     OW86912   4.135  10.578   9.352 -0.0856 -0.2666 -0.2221
27325SOL    HW186913   4.215  10.527   9.341 -0.5530 -0.8750 -0.9511
27325SOL    HW286914   4.097  10.582   9.264 -0.7797  0.1331  0.0851
27326SOL     OW86915  10.619  10.210   8.317 -0.4285 -0.1935  0.1055
27326SOL    HW186916  10.691  10.200   8.380 -1.9833 -0.6398  1.9158
27326SOL    HW286917  10.625  10.132   8.262  0.2788 -0.3752  0.4249
27327SOL     OW86918   3.984   4.044   5.697 -0.3871 -0.1606 -0.2138
27327SOL    HW186919   3.912   3.985   5.722  0.7230 -0.7714  1.8067
27327SOL    HW286920   4.050   4.031   5.766  1.2218  1.1483 -1.4356
27328SOL     OW86921   0.665   5.806   5.361 -0.5621 -0.0422 -0.1673
27328SOL    HW186922   0.670   5.795   5.456  0.8984  1.5475 -0.0091
27328SOL    HW286923   0.608   5.736   5.332  0.8041 -2.0263  1.6213
27329SOL     OW86924   8.487  10.836   2.806 -0.1726 -0.2913  0.4825
27329SOL    HW186925   8.508  10.763   2.865  0.3521  0.7521  1.6344
27329SOL    HW286926   8.514  10.806   2.719  0.0429 -1.4614  0.9373
27330SOL     OW86927   4.718   7.871   8.945  0.0495  0.3160  0.0349
27330SOL    HW186928   4.744   7.944   8.889  0.5318 -0.1988 -0.4245
27330SOL    HW286929   4.682   7.806   8.885 -2.6562  1.1034  0.6733
27331SOL     OW86930   7.494   3.397   9.577  0.4565 -0.0022  0.0891
27331SOL    HW186931   7.526   3.479   9.616 -0.4714  0.9361 -1.0291
27331SOL    HW286932   7.573   3.348   9.557  1.0147  0.3503  1.3238
27332SOL     OW86933   4.029   0.095   7.424  0.1808 -0.1320 -0.0201
27332SOL    HW186934   3.996   0.069   7.338 -0.4786 -2.7464  0.9205
27332SOL    HW286935   4.096   0.030   7.445 -0.2764 -0.0795  1.7819
27333SOL     OW86936   0.197   9.188   4.296  0.3320  0.4048  0.0907
27333SOL    HW186937   0.131   9.152   4.355 -1.8016  2.1702 -1.1028
27333SOL    HW286938   0.217   9.274   4.331 -0.9097  1.4501 -1.6128
27334SOL     OW86939  11.293   5.890   4.317 -0.4693  0.4748  0.3585
27334SOL    HW186940  11.329   5.801   4.319  0.1495  0.7135  0.0102
27334SOL    HW286941  11.353   5.942   4.369 -0.3364  0.8638 -0.1755
27335SOL     OW86942   8.672   3.481   9.860 -0.1073  0.0848  0.0238
27335SOL    HW186943   8.651   3.532   9.938 -0.4250 -0.6690  0.4353
27335SOL    HW286944   8.588   3.470   9.815  0.0717  0.5056 -0.4302
27336SOL     OW86945   2.114   9.421   1.692 -0.1335  0.1075  0.4295
27336SOL    HW186946   2.088   9.511   1.673 -2.4359 -0.8520 -1.4750
27336SOL    HW286947   2.065   9.398   1.771  1.4142  0.8508  1.6539
27337SOL     OW86948   1.467   6.558   1.994  0.1169  0.1569  0.4846
27337SOL    HW186949   1.373   6.576   2.006  0.1774  0.4356  0.5403
27337SOL    HW286950   1.470   6.502   1.916 -0.1268 -0.1702  0.7050
27338SOL     OW86951   0.829   5.049  10.630 -0.0314  0.3278  0.0707
27338SOL    HW186952   0.750   5.096  10.655 -0.0021  0.2846  0.2499
27338SOL    HW286953   0.799   4.960  10.611 -0.2259  0.6448 -1.1662
27339SOL     OW86954   5.575   3.450   0.356 -0.3871  0.1945  0.1215
27339SOL    HW186955   5.670   3.443   0.364 -0.3618 -0.1193 -0.3936
27339SOL    HW286956   5.551   3.520   0.416  0.3725  1.4635 -0.9874
27340SOL     OW86957   8.942   3.212   0.677 -0.0596  0.2340 -0.1362
27340SOL    HW186958   8.879   3.143   0.658 -0.6878  0.3865  1.2558
27340SOL    HW286959   8.921   3.282   0.616  1.0123 -1.0002 -2.0280
27341SOL     OW86960   6.251  11.479   8.855 -0.2376 -0.0582 -0.5864
27341SOL    HW186961   6.187  11.517   8.793 -0.4348  1.4275  0.4719
27341SOL    HW286962   6.197  11.444   8.926  0.0907  0.7900  0.0910
27342SOL     OW86963  10.306   4.647   3.864  0.1111 -0.6733 -0.5510
27342SOL    HW186964  10.396   4.676   3.876  0.4691 -0.7455 -2.5874
27342SOL    HW286965  10.254   4.727   3.861  0.3447 -0.5310 -0.9021
27343SOL     OW86966   0.410   8.352   3.519 -0.0310 -0.1434 -0.4585
27343SOL    HW186967   0.455   8.390   3.443  1.3462 -0.6205  0.0953
27343SOL    HW286968   0.450   8.266   3.530 -2.1290 -1.2299 -0.8374
27344SOL     OW86969   2.050   4.463   3.679 -0.6585 -0.4070 -0.3095
27344SOL    HW186970   2.119   4.440   3.616 -1.3236 -1.3716 -0.7032
27344SOL    HW286971   2.060   4.399   3.749  0.1819  0.7668  0.6742
27345SOL     OW86972  10.742   4.698   8.491 -0.0939  0.4798  0.5131
27345SOL    HW186973  10.817   4.736   8.445  1.5931 -2.9451  0.0547
27345SOL    HW286974  10.756   4.719   8.583  3.2873 -2.4340  0.8970
27346SOL     OW86975   2.018   0.034   1.452 -0.0488  0.5305  0.3815
27346SOL    HW186976   2.026  -0.052   1.410 -2.8698  1.1899 -1.8275
27346SOL    HW286977   2.096   0.082   1.422  2.0362 -1.3820  2.3487
27347SOL     OW86978   3.281   8.168   5.129  0.2970  0.2018  0.6279
27347SOL    HW186979   3.279   8.263   5.144 -1.4966  0.3095 -0.0170
27347SOL    HW286980   3.308   8.159   5.037  1.9611  0.0002  1.1220
27348SOL     OW86981   5.580   8.583   2.380 -0.2811 -0.3585  0.5064
27348SOL    HW186982   5.542   8.607   2.295 -0.3692 -2.4869 -0.0970
27348SOL    HW286983   5.509   8.594   2.442 -0.8870 -0.9486 -0.0707
27349SOL     OW86984   4.586   9.304   7.718  0.1431 -0.3910 -0.4860
27349SOL    HW186985   4.513   9.335   7.665 -0.9444 -2.0735 -0.0632
27349SOL    HW286986   4.642   9.258   7.656 -0.5988 -1.4664 -0.3877
27350SOL     OW86987   9.661   5.741  10.986  0.2745  0.0200  0.7069
27350SOL    HW186988   9.728   5.679  10.959 -0.7896  0.2593 -3.0151
27350SOL    HW286989   9.580   5.690  10.987 -0.6091  1.1360 -2.3643
27351SOL     OW86990  10.535   6.111   6.502 -0.1266  0.2524  0.0783
27351SOL    HW186991  10.594   6.118   6.427 -0.0038 -3.1911 -0.2770
27351SOL    HW286992  10.592   6.121   6.578  0.7853 -1.8618 -0.2747
27352SOL     OW86993  11.414   7.825  11.298 -0.3435  0.1042  0.2497
27352SOL    HW186994  11.466   7.764  11.245 -0.4024 -0.9416  1.3608
27352SOL    HW286995  11.398   7.899  11.240 -0.7976 -1.1921 -1.3629
27353SOL     OW86996   8.351   3.104   4.968 -0.0767 -0.3424 -0.0108
27353SOL    HW186997   8.397   3.184   4.941 -0.4014 -0.5107 -1.0743
27353SOL    HW286998   8.261   3.117   4.939 -0.0287 -1.2949 -0.6236
27354SOL     OW86999   6.239   7.247   5.461  0.1260 -0.0239 -0.5000
27354SOL    HW187000   6.180   7.174   5.444 -0.8454  0.0024  2.2071
27354SOL    HW287001   6.326   7.209   5.452 -0.2810 -0.6729 -2.2063
27355SOL     OW87002   9.738   3.606   2.272 -0.0726  0.8709  0.7363
27355SOL    HW187003   9.725   3.546   2.346 -1.5097  0.8928  0.5287
27355SOL    HW287004   9.766   3.688   2.314 -1.5815  1.1016  1.3516
27356SOL     OW87005   6.123   3.402   0.257 -0.3844  0.2698 -0.2241
27356SOL    HW187006   6.135   3.369   0.168 -1.4279  0.3263 -0.4025
27356SOL    HW287007   6.155   3.492   0.254 -1.8793  0.8115 -0.9820
27357SOL     OW87008   6.200   5.347   1.409 -0.1553 -0.2386  0.3865
27357SOL    HW187009   6.268   5.368   1.345 -0.5492 -2.3320 -0.8043
27357SOL    HW287010   6.243   5.287   1.470 -0.0366  1.0597  1.6609
27358SOL     OW87011   0.838   7.610   5.721 -0.4240  0.2612  0.2898
27358SOL    HW187012   0.754   7.589   5.680 -0.3837 -0.5839  0.6220
27358SOL    HW287013   0.848   7.704   5.707 -1.5209  0.4143  0.4245
27359SOL     OW87014   2.898   3.129  10.300 -0.0236 -0.4546  0.1246
27359SOL    HW187015   2.971   3.071  10.278  0.6721  0.2392  0.5475
27359SOL    HW287016   2.904   3.140  10.395 -0.4249 -0.0455  0.1059
27360SOL     OW87017   5.305   5.692   4.027  0.3424  0.0957  0.7396
27360SOL    HW187018   5.344   5.703   3.941 -2.2779 -0.7853 -0.6472
27360SOL    HW287019   5.344   5.611   4.061  0.1949 -0.4279 -0.3152
27361SOL     OW87020   3.008   5.472   6.440 -0.0025  0.1396  0.0900
27361SOL    HW187021   3.030   5.379   6.437  0.2319  0.1816  0.4996
27361SOL    HW287022   2.913   5.474   6.449 -0.2443 -0.0421 -1.8326
27362SOL     OW87023   7.858   7.952  10.225  0.7411  0.2419  0.1124
27362SOL    HW187024   7.883   8.042  10.204  0.0843  0.3934 -0.0634
27362SOL    HW287025   7.897   7.935  10.310  2.0407  0.2092 -0.4643
27363SOL     OW87026  10.607   9.886   3.768 -0.2739  0.8068 -0.6712
27363SOL    HW187027  10.608   9.959   3.706  1.6465 -0.3252 -2.0922
27363SOL    HW287028  10.551   9.820   3.727 -1.4600  1.1990  0.2854
27364SOL     OW87029   5.010   9.822   4.084 -0.3011 -0.4962 -0.2734
27364SOL    HW187030   5.008   9.894   4.146 -1.7745 -1.1688  0.4979
27364SOL    HW287031   4.936   9.766   4.109  1.4863 -2.9409 -0.0320
27365SOL     OW87032   8.582   6.004   6.296 -0.5319  0.2159 -0.2811
27365SOL    HW187033   8.669   6.043   6.305 -0.2126 -0.6390  0.5705
27365SOL    HW287034   8.523   6.078   6.288  0.1373  0.8610  0.5210
27366SOL     OW87035   2.403  11.348   3.301 -0.2907  0.5641  0.2959
27366SOL    HW187036   2.473  11.409   3.277 -0.8306  2.1117  2.3112
27366SOL    HW287037   2.420  11.327   3.393 -2.6655  1.3951  1.0246
27367SOL     OW87038   2.142   3.515   2.915  0.4052  0.0243 -0.3755
27367SOL    HW187039   2.052   3.482   2.914  0.8035 -1.3677  2.1864
27367SOL    HW287040   2.142   3.588   2.853 -1.9770 -1.1764 -1.9116
27368SOL     OW87041   4.321   4.748   0.276 -0.2670 -0.0615  0.2893
27368SOL    HW187042   4.270   4.821   0.240  1.3250  0.4095 -1.1329
27368SOL    HW287043   4.315   4.679   0.210  1.2594  0.1696 -0.1362
27369SOL     OW87044   3.076   9.960   0.938  0.2901  0.2180 -0.1732
27369SOL    HW187045   3.033   9.889   0.891 -1.0773 -0.0928  1.4599
27369SOL    HW287046   3.024  10.037   0.917 -1.3452 -0.1916  1.9568
27370SOL     OW87047  11.035   3.210  10.470 -0.0607 -0.7882 -0.3176
27370SOL    HW187048  11.129   3.217  10.484 -0.4856  0.3419  2.5179
27370SOL    HW287049  11.026   3.144  10.401  2.7928 -0.5761 -0.9981
27371SOL     OW87050   5.821   0.299   8.130  0.0027  0.2763 -0.0433
27371SOL    HW187051   5.737   0.308   8.176 -0.4701 -2.0699 -0.3181
27371SOL    HW287052   5.850   0.210   8.150  2.5070  1.0687  0.1138
27372SOL     OW87053   3.511   8.723   2.526 -0.4140 -0.3212  0.7810
27372SOL    HW187054   3.598   8.755   2.547 -0.6887 -0.3476  2.0214
27372SOL    HW287055   3.458   8.803   2.517  0.3547 -0.0415 -3.3555
27373SOL     OW87056   1.978   5.147   9.452 -0.5059  0.0542 -0.2397
27373SOL    HW187057   2.001   5.060   9.419  0.7625  0.2420  0.1080
27373SOL    HW287058   1.892   5.134   9.492 -0.0273 -1.2253  0.4612
27374SOL     OW87059   5.713  11.545   2.139  0.2800 -0.0118  0.8591
27374SOL    HW187060   5.737  11.589   2.221  0.1861  0.0889  0.8325
27374SOL    HW287061   5.692  11.456   2.165 -0.1509  0.1272  1.0050
27375SOL     OW87062   1.837   1.662   3.663  0.2629  0.0529 -0.0943
27375SOL    HW187063   1.831   1.653   3.568 -1.4257 -0.7823  0.0555
27375SOL    HW287064   1.802   1.750   3.681 -0.6070 -0.2612 -0.1774
27376SOL     OW87065   9.766   6.944   6.606 -0.1386  0.1055  0.0735
27376SOL    HW187066   9.727   6.869   6.650  0.0283 -0.3019 -0.4561
27376SOL    HW287067   9.694   6.986   6.559  0.2761 -1.6845 -2.3893
27377SOL     OW87068   0.203   1.997   3.058  0.1937  0.1910  0.2396
27377SOL    HW187069   0.295   1.974   3.068  0.1858 -0.1303 -0.4314
27377SOL    HW287070   0.168   1.932   2.997 -0.5351  0.1633  0.6785
27378SOL     OW87071   6.127  11.617   8.022  0.1839  0.2882  0.1580
27378SOL    HW187072   6.207  11.565   8.031 -0.3007 -0.1859  2.4917
27378SOL    HW287073   6.157  11.708   8.030  0.8842  0.4116 -2.7630
27379SOL     OW87074  10.551   4.412   6.901 -0.2489 -0.2804 -0.3593
27379SOL    HW187075  10.546   4.478   6.832  1.0547  0.6298  0.3842
27379SOL    HW287076  10.502   4.450   6.974 -0.6449 -0.7343 -0.3870
27380SOL     OW87077   8.009   9.046   2.611 -0.0210 -0.0411 -0.6038
27380SOL    HW187078   8.077   9.111   2.592  0.2537 -0.3322 -0.6406
27380SOL    HW287079   8.057   8.974   2.653 -0.5810  0.5083  1.0639
27381SOL     OW87080   1.049   6.668   4.239 -0.1779 -0.1631 -0.2577
27381SOL    HW187081   0.976   6.705   4.287 -0.1266  0.8094 -0.9031
27381SOL    HW287082   1.121   6.730   4.252 -0.0536 -0.0792 -1.2716
27382SOL     OW87083  10.487  10.557   1.349  0.6400  0.2299 -0.3039
27382SOL    HW187084  10.551  10.627   1.365 -0.1046  0.8050  0.2066
27382SOL    HW287085  10.539  10.476   1.356  1.7653  0.7322 -2.1045
27383SOL     OW87086   1.046   2.976   6.275 -0.2050  0.2305  0.7026
27383SOL    HW187087   0.973   3.037   6.264 -1.0835 -0.2238  3.2336
27383SOL    HW287088   1.113   3.008   6.216 -1.4944  2.2635  0.2336
27384SOL     OW87089   3.814  10.215   7.773 -0.4335 -0.2916  0.2670
27384SOL    HW187090   3.820  10.133   7.723  0.4483  0.5276 -1.0325
27384SOL    HW287091   3.843  10.282   7.712  0.1109  0.8371  1.7177
27385SOL     OW87092   5.525   9.085   2.180 -0.4466  0.0962  0.5979
27385SOL    HW187093   5.569   9.003   2.158  2.5159  1.4838  0.9191
27385SOL    HW287094   5.512   9.129   2.096 -1.2816 -0.3013  0.5058
27386SOL     OW87095   6.230   5.635   5.386 -0.1674  0.1018  0.4379
27386SOL    HW187096   6.149   5.606   5.344  0.2266  0.2738 -0.4672
27386SOL    HW287097   6.206   5.715   5.432 -0.6087 -0.1018  0.5718
27387SOL     OW87098   9.690   5.946   5.275  0.2095 -0.1541  0.1419
27387SOL    HW187099   9.669   5.853   5.278  0.0940 -0.1071  0.8172
27387SOL    HW287100   9.741   5.956   5.195  0.6153 -0.8813  0.3022
27388SOL     OW87101   8.179   4.299   8.648 -0.3284  0.8021  0.2268
27388SOL    HW187102   8.269   4.270   8.628 -0.1714  1.5549 -0.2151
27388SOL    HW287103   8.190   4.372   8.708 -0.6367  1.0159  0.0263
27389SOL     OW87104   1.802   6.810   1.273 -0.0041  0.1951 -0.3055
27389SOL    HW187105   1.800   6.717   1.296 -2.3722 -0.1484 -1.6047
27389SOL    HW287106   1.862   6.849   1.337 -1.0163 -1.7708  2.0052
27390SOL     OW87107   3.443   5.835   0.275 -0.0080  0.1560  0.1660
27390SOL    HW187108   3.448   5.911   0.217 -0.5370  0.9470  1.1322
27390SOL    HW287109   3.368   5.785   0.243  1.1224 -0.6952 -1.2940
27391SOL     OW87110   5.083   5.165   0.601  0.0021 -0.0209 -0.4233
27391SOL    HW187111   5.157   5.225   0.604 -0.2497  0.2672  2.2230
27391SOL    HW287112   5.108   5.092   0.658 -0.1450 -1.9840 -2.7019
27392SOL     OW87113   5.129   7.330   6.166 -0.0574  0.2526  0.2049
27392SOL    HW187114   5.059   7.339   6.101  0.6120 -0.2545 -0.6079
27392SOL    HW287115   5.137   7.417   6.204 -0.0928  0.7042 -0.7834
27393SOL     OW87116   6.429   2.056   7.694 -0.1506 -0.0004  0.5338
27393SOL    HW187117   6.443   2.141   7.652  2.2878 -0.0019  1.2040
27393SOL    HW287118   6.371   2.076   7.768  0.2302  1.0633  0.5656
27394SOL     OW87119   5.382   7.138   8.063  0.2438 -0.5349  0.2053
27394SOL    HW187120   5.451   7.167   8.004 -0.0924  1.3016  0.6736
27394SOL    HW287121   5.304   7.132   8.008 -0.1200  1.3902  0.4373
27395SOL     OW87122   1.895   1.646   6.065 -0.0560  0.8896  0.0985
27395SOL    HW187123   1.938   1.585   6.126 -2.4311 -0.0167  0.9721
27395SOL    HW287124   1.940   1.730   6.080  1.4952 -0.0216  0.8042
27396SOL     OW87125   2.685   2.743  10.490 -0.0680 -0.0845 -1.3940
27396SOL    HW187126   2.778   2.736  10.467  0.6021  1.1652  0.6663
27396SOL    HW287127   2.657   2.652  10.505  0.9487 -0.4451 -1.5868
27397SOL     OW87128   7.908   0.630   1.600  0.3673 -0.1384 -0.4370
27397SOL    HW187129   7.909   0.563   1.669  2.5477 -0.1982 -0.4353
27397SOL    HW287130   7.876   0.709   1.643 -1.5988 -0.9848 -0.2677
27398SOL     OW87131  10.518   8.306   0.103  0.4012  0.1981 -0.2414
27398SOL    HW187132  10.573   8.357   0.162 -0.4870  0.5050  0.3432
27398SOL    HW287133  10.505   8.223   0.149 -1.0081  0.7543  0.4461
27399SOL     OW87134   8.490   3.615   0.752 -0.1643 -0.1907 -0.2110
27399SOL    HW187135   8.484   3.527   0.790  1.9129 -0.7914 -1.1366
27399SOL    HW287136   8.399   3.642   0.741 -0.8605 -1.3769  1.9223
27400SOL     OW87137   6.197   7.553   7.143 -0.5148 -0.0426  0.2475
27400SOL    HW187138   6.162   7.465   7.157 -0.8269 -0.0809 -0.6932
27400SOL    HW287139   6.247   7.545   7.061 -2.6921  1.2377 -1.3130
27401SOL     OW87140   1.564   8.167   0.218 -0.0737  0.5593 -0.3376
27401SOL    HW187141   1.502   8.125   0.158  0.5289 -2.1961  0.8236
27401SOL    HW287142   1.510   8.194   0.292 -0.1618 -0.3159 -0.0700
27402SOL     OW87143  10.757   3.135  10.783  0.0389  0.1365 -0.0658
27402SOL    HW187144  10.840   3.090  10.769 -0.1781 -0.7628  1.2809
27402SOL    HW287145  10.775   3.196  10.855 -0.1380  0.9200 -0.6741
27403SOL     OW87146   9.247   7.810   5.680 -0.0840 -0.3607  0.2713
27403SOL    HW187147   9.167   7.781   5.724  1.2754 -4.0299  0.7316
27403SOL    HW287148   9.300   7.850   5.748 -0.8268  0.5382  0.3318
27404SOL     OW87149   6.757   6.941   7.430  0.4900 -0.8204 -0.0221
27404SOL    HW187150   6.707   6.889   7.493 -0.0794  1.6495  1.7009
27404SOL    HW287151   6.694   6.963   7.362 -0.4689  0.9729  1.3535
27405SOL     OW87152   4.311  11.189   4.333 -0.4229  0.2583 -0.0607
27405SOL    HW187153   4.239  11.125   4.337  0.4235 -0.7636 -0.6226
27405SOL    HW287154   4.381  11.150   4.385  0.2654  0.5053 -0.7740
27406SOL     OW87155   9.009   5.178  10.122 -0.1574 -0.1933 -0.0533
27406SOL    HW187156   8.948   5.245  10.092 -0.9391  0.7795  3.3387
27406SOL    HW287157   8.954   5.111  10.163  0.8799 -0.7863  0.4095
27407SOL     OW87158   6.443   5.293   0.043  0.7757  0.4753  0.0634
27407SOL    HW187159   6.353   5.302   0.074  1.3089 -0.0051  1.8836
27407SOL    HW287160   6.496   5.303   0.122  2.4917  3.2738 -1.3317
27408SOL     OW87161   1.140   5.734   5.120  0.3333  0.3847 -0.4234
27408SOL    HW187162   1.229   5.722   5.154 -0.0518 -2.5392 -0.1923
27408SOL    HW287163   1.091   5.771   5.194  1.0726  0.9585 -0.2011
27409SOL     OW87164   1.229   5.965   3.513  0.0396  0.0934 -0.0649
27409SOL    HW187165   1.298   5.903   3.538 -0.6924 -1.0956 -0.9206
27409SOL    HW287166   1.211   6.013   3.594  1.4497  0.0258  0.3243
27410SOL     OW87167  10.625   6.739   2.880 -0.1213 -0.1789  0.3773
27410SOL    HW187168  10.618   6.649   2.848  0.9427 -0.3490  0.5765
27410SOL    HW287169  10.718   6.760   2.871 -0.1226  0.4247  1.6040
27411SOL     OW87170  10.090   9.914   4.926 -0.0130 -0.0362  0.0166
27411SOL    HW187171  10.028   9.983   4.952 -1.6954 -1.3261 -0.4114
27411SOL    HW287172  10.095   9.857   5.003 -1.9117 -1.6875 -1.0075
27412SOL     OW87173   6.212  10.881   7.175 -0.1652 -0.1004 -0.9468
27412SOL    HW187174   6.282  10.902   7.113  0.7168 -1.5498 -0.4790
27412SOL    HW287175   6.250  10.898   7.261 -1.0212  0.8512 -0.7376
27413SOL     OW87176   8.443   7.836   8.294 -0.2731  0.1432 -0.2711
27413SOL    HW187177   8.527   7.870   8.262  0.4177 -0.6136  0.6434
27413SOL    HW287178   8.379   7.863   8.229  0.6853  0.7517 -0.9868
27414SOL     OW87179  10.961   1.023   1.578 -0.0672 -1.1219 -0.1448
27414SOL    HW187180  10.904   1.043   1.652  0.6827  0.0041  0.1481
27414SOL    HW287181  11.021   0.956   1.610  1.5801  0.7632  0.9874
27415SOL     OW87182   4.080  11.297   3.253 -0.1489  0.2689  0.4200
27415SOL    HW187183   4.007  11.238   3.235  0.3879  0.5321 -3.2307
27415SOL    HW287184   4.048  11.384   3.231  1.1086  0.4380 -0.8720
27416SOL     OW87185   1.399   2.930   9.660 -0.5683 -0.5374  0.0535
27416SOL    HW187186   1.362   3.010   9.624 -2.0121 -0.8286  0.8203
27416SOL    HW287187   1.464   2.960   9.723 -1.5939  0.0670  0.8501
27417SOL     OW87188   2.352   5.019   0.645  0.0723 -0.1439 -0.2372
27417SOL    HW187189   2.343   4.978   0.559 -2.2554  0.6836 -0.4427
27417SOL    HW287190   2.331   4.950   0.707  1.2008 -0.5856 -0.3129
27418SOL     OW87191   0.012   0.469   0.340 -0.0972  0.1380  0.1161
27418SOL    HW187192   0.091   0.431   0.301 -0.9923 -1.3533 -0.3416
27418SOL    HW287193  -0.018   0.402   0.402 -1.4250  0.3400 -0.2876
27419SOL     OW87194   6.747  10.812   0.112  0.2424  0.7187 -0.4516
27419SOL    HW187195   6.694  10.880   0.155 -2.7661 -2.0140  0.4944
27419SOL    HW287196   6.707  10.800   0.026  0.5577 -0.0591 -0.4976
27420SOL     OW87197   6.141   8.867   4.003  0.2640 -0.5209 -0.3908
27420SOL    HW187198   6.079   8.840   3.935  0.7085 -1.2769 -0.5080
27420SOL    HW287199   6.204   8.795   4.007  0.9119  0.0630 -0.0030
27421SOL     OW87200   0.044   6.748   0.986 -0.1497 -0.0905  0.0403
27421SOL    HW187201  -0.023   6.805   1.023  0.5352  1.4190 -0.9217
27421SOL    HW287202   0.087   6.709   1.062 -2.6118 -1.7880  0.6719
27422SOL     OW87203   3.929  11.475   9.490  0.5326 -0.1497 -0.0607
27422SOL    HW187204   3.970  11.533   9.554  0.2566 -0.0124 -0.0084
27422SOL    HW287205   3.841  11.510   9.479  0.5031 -0.3099 -0.3433
27423SOL     OW87206   1.830   5.208   3.632 -0.1514 -0.0700 -0.0161
27423SOL    HW187207   1.917   5.245   3.620  0.0716 -0.7115 -0.4294
27423SOL    HW287208   1.785   5.270   3.688  0.1986  0.8481 -0.7288
27424SOL     OW87209   1.952   1.841   7.020 -0.5254 -0.5222  0.4971
27424SOL    HW187210   1.941   1.931   7.051  1.8214 -0.3253  0.9518
27424SOL    HW287211   1.892   1.790   7.073  0.1217  0.4294  2.2244
27425SOL     OW87212   6.510   1.733   8.039  0.2305 -0.7120  0.1658
27425SOL    HW187213   6.417   1.721   8.058 -0.2484  2.3222  0.2436
27425SOL    HW287214   6.514   1.744   7.944  0.3945 -0.2424  0.2223
27426SOL     OW87215   6.106   9.745   5.715 -0.0318  0.5465  0.2959
27426SOL    HW187216   6.199   9.758   5.735  0.0903  1.9699 -1.0803
27426SOL    HW287217   6.104   9.663   5.665  0.5030  0.6553  0.0888
27427SOL     OW87218   8.668   0.267   7.554 -0.3749 -0.3487 -0.1878
27427SOL    HW187219   8.734   0.321   7.511 -0.5030 -0.8530 -1.0503
27427SOL    HW287220   8.600   0.330   7.580 -0.1132  0.0185 -0.3729
27428SOL     OW87221  11.456   2.959  10.422  0.1740  0.0839 -0.0738
27428SOL    HW187222  11.410   2.888  10.467  0.4838 -0.1204 -0.0740
27428SOL    HW287223  11.549   2.938  10.433  0.3594  1.5922  1.7670
27429SOL     OW87224   7.996   4.511   4.857  0.2689  0.1207  0.0057
27429SOL    HW187225   7.979   4.604   4.869 -1.9464 -0.1588 -0.4443
27429SOL    HW287226   7.929   4.467   4.910 -0.6078 -1.1714 -2.0463
27430SOL     OW87227   5.164   1.348   4.091  0.6849 -0.8134 -0.5445
27430SOL    HW187228   5.138   1.360   4.000 -0.8271 -1.4952 -0.2251
27430SOL    HW287229   5.257   1.371   4.092  0.4892  0.1706 -2.0442
27431SOL     OW87230   8.619   7.384   5.899 -0.0949  0.3068 -0.4334
27431SOL    HW187231   8.638   7.291   5.886 -0.6208 -0.0539  1.2571
27431SOL    HW287232   8.526   7.387   5.922 -0.8111  1.5363 -3.0670
27432SOL     OW87233   7.592   1.970   9.968  0.2332  0.1153  0.5120
27432SOL    HW187234   7.500   1.951   9.950  0.2820 -2.0307  2.0061
27432SOL    HW287235   7.634   1.968   9.883 -0.7944 -1.0193 -0.0052
27433SOL     OW87236   2.480   7.195   9.710 -0.1533  0.1052  0.3132
27433SOL    HW187237   2.559   7.240   9.680  0.9630 -1.1687  1.2140
27433SOL    HW287238   2.414   7.216   9.645  0.7388  1.7512 -0.1150
27434SOL     OW87239   4.796   2.523   7.927 -0.3225 -0.3203 -0.0775
27434SOL    HW187240   4.800   2.520   8.023 -2.0580 -1.0573  0.0086
27434SOL    HW287241   4.703   2.537   7.908  0.1131  0.6034 -1.6566
27435SOL     OW87242   5.911   8.790   9.879 -0.3621  0.5297  0.4578
27435SOL    HW187243   5.818   8.789   9.855 -0.5503 -0.0413  1.1791
27435SOL    HW287244   5.935   8.883   9.875 -0.2173  0.4830 -2.4417
27436SOL     OW87245  10.287   8.404   5.670  0.1408  0.0940  0.3381
27436SOL    HW187246  10.339   8.390   5.591 -1.2995 -0.2823 -0.5851
27436SOL    HW287247  10.278   8.317   5.709 -0.9413 -0.0883 -0.2772
27437SOL     OW87248   2.524  10.644   1.010 -0.1156 -0.1132  0.1660
27437SOL    HW187249   2.615  10.630   0.982 -0.4389 -2.2354 -0.0098
27437SOL    HW287250   2.530  10.707   1.081  1.5094 -0.3092  0.2456
27438SOL     OW87251  10.595  10.440   9.375  0.7582 -0.4632 -0.2799
27438SOL    HW187252  10.558  10.494   9.306  1.4229  0.6793  0.2381
27438SOL    HW287253  10.681  10.415   9.343 -0.1649 -2.6731 -1.2499
27439SOL     OW87254   9.285   2.801   2.991 -0.6514  0.7225  0.8349
27439SOL    HW187255   9.315   2.710   2.989 -0.2848  0.8434  0.6146
27439SOL    HW287256   9.201   2.799   2.947  0.0173  0.7162 -0.4913
27440SOL     OW87257   7.748   2.918  11.209  0.0869 -0.0013 -0.4443
27440SOL    HW187258   7.656   2.902  11.230 -0.1730  1.8992  0.1160
27440SOL    HW287259   7.750   2.928  11.114 -0.5816  1.3463 -0.3453
27441SOL     OW87260   4.974   8.990   1.227 -0.0923 -0.2612  0.1803
27441SOL    HW187261   4.956   9.024   1.139 -1.4632 -3.4860 -0.9735
27441SOL    HW287262   4.892   9.000   1.274  0.2853  0.3877  0.7102
27442SOL     OW87263  10.458   3.173  10.595 -0.4317  0.0525  0.2171
27442SOL    HW187264  10.509   3.247  10.563  1.1325 -0.8035  0.6558
27442SOL    HW287265  10.445   3.190  10.688 -2.3747  1.0480 -0.1888
27443SOL     OW87266   3.990   9.176   5.997 -0.2449  0.6891 -0.2248
27443SOL    HW187267   3.979   9.154   6.090  3.1576  3.3583  1.0150
27443SOL    HW287268   4.037   9.102   5.960 -1.6389 -0.4088  0.1280
27444SOL     OW87269   9.051   2.631   3.110  0.1586  0.3833  0.0105
27444SOL    HW187270   9.029   2.681   3.032 -0.7792  0.5441  0.3611
27444SOL    HW287271   9.096   2.694   3.167  1.1656  0.1710 -0.5316
27445SOL     OW87272   6.408   0.932   3.940  0.1279  0.1001  0.3326
27445SOL    HW187273   6.438   0.894   3.858 -1.5041  0.2458 -0.3560
27445SOL    HW287274   6.466   0.894   4.006 -0.0146 -1.8491 -0.5929
27446SOL     OW87275   4.538   2.171   2.910 -0.1744 -0.6359 -0.7954
27446SOL    HW187276   4.583   2.148   2.829 -0.7576 -0.8039 -1.0817
27446SOL    HW287277   4.505   2.260   2.895  2.2808  0.5814  0.3965
27447SOL     OW87278  11.087  10.417   0.240 -0.8190 -0.5067  0.5546
27447SOL    HW187279  11.008  10.453   0.201 -0.4822 -0.0974  0.2252
27447SOL    HW287280  11.158  10.460   0.192 -0.3998 -1.4868  0.2716
27448SOL     OW87281   9.844   3.518   8.084 -0.2365 -0.7911 -0.3303
27448SOL    HW187282   9.923   3.571   8.093  0.4383 -1.8786  0.3691
27448SOL    HW287283   9.772   3.578   8.108  0.5869 -0.4338  1.4261
27449SOL     OW87284  10.308   5.248   0.928 -0.5318  0.4995  0.5353
27449SOL    HW187285  10.313   5.321   0.990 -2.7270  0.2335  1.0943
27449SOL    HW287286  10.251   5.280   0.858  0.0088 -0.0559 -0.1757
27450SOL     OW87287   6.435   1.673  10.977 -0.3519  0.0201  0.2653
27450SOL    HW187288   6.464   1.645  11.064  0.8979  2.8751  0.8634
27450SOL    HW287289   6.517   1.691  10.930 -1.0596  1.5904 -0.4005
27451SOL     OW87290   9.562   7.155   5.481 -0.1749 -0.3069 -0.1182
27451SOL    HW187291   9.593   7.066   5.461  0.2734 -0.1471 -0.1272
27451SOL    HW287292   9.467   7.148   5.473 -0.2415 -1.0878  1.0676
27452SOL     OW87293   8.530   2.243   4.843 -0.3256 -0.4401 -0.1756
27452SOL    HW187294   8.526   2.228   4.937 -1.5041  0.6265 -0.0175
27452SOL    HW287295   8.440   2.231   4.813 -0.3600  1.1093 -0.8185
27453SOL     OW87296   9.780   9.750   7.269  0.4698 -0.0049  0.3055
27453SOL    HW187297   9.746   9.839   7.274 -1.4246 -0.7439  2.0969
27453SOL    HW287298   9.841   9.744   7.343  0.9659 -0.0715 -0.1020
27454SOL     OW87299   1.837   0.515   9.327  0.2929 -0.0798 -0.0432
27454SOL    HW187300   1.790   0.543   9.248 -1.4280 -0.0820  0.9352
27454SOL    HW287301   1.770   0.508   9.394  1.7893  0.4623  1.6003
27455SOL     OW87302   0.300   3.146   7.977 -0.6795 -0.3595  0.7527
27455SOL    HW187303   0.305   3.241   7.987 -0.7062 -0.3718  0.8754
27455SOL    HW287304   0.283   3.133   7.883  0.4555 -0.2835  0.5235
27456SOL     OW87305   1.617  11.214   9.009 -0.1770 -0.0023  0.1725
27456SOL    HW187306   1.621  11.118   9.005 -0.0494 -0.0061  0.3761
27456SOL    HW287307   1.616  11.234   9.102 -1.5096  0.1453  0.1473
27457SOL     OW87308   6.093   9.954   3.005  0.0004  0.9740 -0.5320
27457SOL    HW187309   6.072   9.865   3.033  0.2972  0.9042 -0.5233
27457SOL    HW287310   6.076   9.954   2.910  1.3019  0.4999 -0.7970
27458SOL     OW87311  11.094   6.417   6.871 -0.0605 -0.4192  0.4892
27458SOL    HW187312  11.148   6.391   6.796  0.3502 -1.0334  0.9872
27458SOL    HW287313  11.023   6.353   6.873 -1.6499  1.1890 -1.0015
27459SOL     OW87314  10.196   8.744   6.995 -0.5246  0.3281 -0.3348
27459SOL    HW187315  10.232   8.669   7.043 -0.1430  1.4580  1.2541
27459SOL    HW287316  10.147   8.793   7.061 -1.8155  0.8356 -1.6243
27460SOL     OW87317   6.096   1.730   3.721 -0.2060  0.6054 -0.1332
27460SOL    HW187318   6.135   1.691   3.799 -0.0918  2.3917  0.7719
27460SOL    HW287319   6.049   1.807   3.754 -0.0749  1.4624 -1.8286
27461SOL     OW87320   4.005   4.857  10.533 -0.0361 -0.0589  0.3263
27461SOL    HW187321   4.055   4.888  10.608  0.8877  2.2197 -1.1211
27461SOL    HW287322   3.914   4.861  10.561  0.2808  0.9431  1.2563
27462SOL     OW87323  10.628   4.702   9.816  0.1521 -0.3042 -0.1238
27462SOL    HW187324  10.570   4.654   9.758  0.2060 -1.8859  1.0457
27462SOL    HW287325  10.580   4.781   9.839 -0.9108 -0.8575 -0.3748
27463SOL     OW87326   0.787   6.757  10.174 -0.3402 -0.3270 -0.5500
27463SOL    HW187327   0.868   6.790  10.135  0.0639 -1.2573 -0.5362
27463SOL    HW287328   0.816   6.709  10.252 -0.9967  0.1444 -0.0048
27464SOL     OW87329   6.285   2.005   4.847  0.8378  0.1094  0.0488
27464SOL    HW187330   6.359   2.066   4.836  1.1383 -0.2221  0.2041
27464SOL    HW287331   6.207   2.060   4.837  1.1016  0.7353  1.2603
27465SOL     OW87332   0.826   0.486   2.513  0.1093 -0.1313  0.3835
27465SOL    HW187333   0.774   0.415   2.474  0.5583  0.0182 -0.5008
27465SOL    HW287334   0.912   0.477   2.473  0.2866  0.6741  0.5807
27466SOL     OW87335   3.340   9.066   1.716  0.4981 -0.3271  0.1806
27466SOL    HW187336   3.269   9.128   1.732  0.4521 -0.1071 -0.8116
27466SOL    HW287337   3.312   8.986   1.762 -1.6646 -1.1031 -2.2488
27467SOL     OW87338   8.959   9.133   1.974 -0.0924 -0.4833 -0.0625
27467SOL    HW187339   8.969   9.208   2.033 -1.6950  0.3949 -0.8297
27467SOL    HW287340   8.948   9.058   2.032 -0.7962  0.2383  0.7536
27468SOL     OW87341  10.404   4.191   0.372  0.0330 -0.1762 -0.4072
27468SOL    HW187342  10.486   4.240   0.383 -0.2187 -0.1780  1.9939
27468SOL    HW287343  10.431   4.100   0.360  0.4049 -0.1983  0.5212
27469SOL     OW87344   8.968   7.723   4.895  0.2177  0.5221 -0.2561
27469SOL    HW187345   8.900   7.656   4.905  0.8972  0.0316  1.7410
27469SOL    HW287346   8.956   7.757   4.807 -2.2534  0.0703 -0.1794
27470SOL     OW87347   5.846   2.994  11.685 -0.7130 -0.1173  0.2051
27470SOL    HW187348   5.864   2.900  11.694 -0.9052 -0.1849 -0.0828
27470SOL    HW287349   5.926   3.029  11.646 -0.6968 -0.1866  0.1750
27471SOL     OW87350   6.038   5.669   6.086  0.2195 -0.0230 -0.0068
27471SOL    HW187351   5.960   5.681   6.139 -1.5982 -1.4758 -2.1807
27471SOL    HW287352   6.018   5.713   6.003  2.3112  0.7785 -0.1555
27472SOL     OW87353   2.352   0.147   4.811  0.0708  0.1273  0.1786
27472SOL    HW187354   2.267   0.189   4.798 -0.7152 -1.7588 -1.1482
27472SOL    HW287355   2.332   0.069   4.863  1.2687  0.5024  1.2643
27473SOL     OW87356   6.209   5.181   8.035 -0.1894  0.8387  0.4792
27473SOL    HW187357   6.133   5.240   8.030 -0.2089  0.9398  1.6430
27473SOL    HW287358   6.173   5.099   8.068 -0.0551  0.3570 -0.5448
27474SOL     OW87359   8.194   9.198   9.319  0.2164  0.2132  0.3755
27474SOL    HW187360   8.123   9.148   9.360  0.1201  0.2574  0.2644
27474SOL    HW287361   8.167   9.289   9.329  1.7686  0.4757  3.1956
27475SOL     OW87362   3.428  10.634   0.384  0.5192 -0.1976  0.7710
27475SOL    HW187363   3.382  10.555   0.355  1.1585  0.2107 -1.5077
27475SOL    HW287364   3.520  10.609   0.389  0.6369  0.2150  0.7525
27476SOL     OW87365   9.552   8.661   3.843  0.4160 -0.1540 -0.5179
27476SOL    HW187366   9.462   8.683   3.867  0.6134 -0.3510  0.4595
27476SOL    HW287367   9.553   8.565   3.840  0.8869 -0.2144  0.7821
27477SOL     OW87368   1.900   7.076  10.170 -0.3156 -0.9389 -0.0132
27477SOL    HW187369   1.815   7.055  10.132 -0.4364  1.1089 -0.9897
27477SOL    HW287370   1.905   7.171  10.168  1.4405 -0.9411  1.3153
27478SOL     OW87371   7.832   4.335   8.291 -0.3090 -0.2606 -0.0399
27478SOL    HW187372   7.901   4.345   8.357 -0.6013  0.2213  0.1940
27478SOL    HW287373   7.855   4.254   8.246 -0.3882 -0.8913  0.9984
27479SOL     OW87374   2.248   8.131   9.522 -0.6065  0.3023  0.8729
27479SOL    HW187375   2.315   8.130   9.591  0.4472 -0.4129 -0.1180
27479SOL    HW287376   2.209   8.219   9.528  0.5135  0.7859  1.4041
27480SOL     OW87377  11.234   3.544   0.264 -0.1305 -0.7318 -0.1988
27480SOL    HW187378  11.163   3.525   0.201 -0.3286  1.0332 -0.5753
27480SOL    HW287379  11.207   3.625   0.306  1.2408 -0.5274  0.3349
27481SOL     OW87380   5.914   9.997   3.917 -0.2964 -0.1051 -0.1935
27481SOL    HW187381   5.926  10.004   4.012 -0.0671 -0.3438 -0.2021
27481SOL    HW287382   6.000   9.971   3.885 -0.3657  0.0086 -0.4715
27482SOL     OW87383   9.193  10.391   7.297 -0.4008 -0.1906  0.2835
27482SOL    HW187384   9.206  10.297   7.301 -0.1974 -0.1554  0.4901
27482SOL    HW287385   9.109  10.402   7.251  0.6950 -0.3922 -1.9093
27483SOL     OW87386   4.169  10.824   4.706 -0.5780 -0.2336  0.7313
27483SOL    HW187387   4.090  10.834   4.759 -0.9139 -2.4876  0.7290
27483SOL    HW287388   4.232  10.783   4.765 -0.2924 -0.8979 -0.0173
27484SOL     OW87389  10.949   8.709   1.656  0.6095 -0.6342 -0.1783
27484SOL    HW187390  10.940   8.804   1.656  0.4375 -0.6462 -0.8295
27484SOL    HW287391  10.999   8.690   1.577 -1.3428 -1.2563 -1.3323
27485SOL     OW87392  10.428   7.240  11.612  0.0186 -0.1463  0.0304
27485SOL    HW187393  10.410   7.321  11.565  1.0553  0.0430 -0.0787
27485SOL    HW287394  10.408   7.260  11.703 -0.0967  0.1133 -0.0502
27486SOL     OW87395   4.373  11.653   4.100  0.3340 -0.6886 -0.2738
27486SOL    HW187396   4.361  11.558   4.102 -1.1294 -0.5310 -0.7941
27486SOL    HW287397   4.467  11.665   4.117  0.2131 -2.1123  1.7098
27487SOL     OW87398  11.687   3.547   3.733 -0.1671 -0.3820 -0.2615
27487SOL    HW187399  11.723   3.589   3.654  0.7818 -2.1471 -0.8223
27487SOL    HW287400  11.599   3.520   3.707 -0.3978  0.2946 -0.2240
27488SOL     OW87401   5.227   6.289   7.736 -0.0843  0.2923 -0.3469
27488SOL    HW187402   5.300   6.244   7.695 -0.0079  0.4711 -0.4064
27488SOL    HW287403   5.179   6.220   7.782 -1.2906 -0.2578 -2.3140
27489SOL     OW87404  10.798   0.445   1.671 -0.0693 -0.1972  0.4946
27489SOL    HW187405  10.717   0.450   1.619  0.2162  0.2454  0.0880
27489SOL    HW287406  10.768   0.446   1.762 -0.5578 -0.7101  0.3462
27490SOL     OW87407   7.424  10.624   1.527 -0.2816 -0.3672  0.0483
27490SOL    HW187408   7.329  10.635   1.518 -0.0012  2.0759 -0.6312
27490SOL    HW287409   7.443  10.660   1.614 -0.1657 -2.7735  1.0963
27491SOL     OW87410   2.952   8.182   6.953 -0.7376  0.3805 -0.4731
27491SOL    HW187411   3.000   8.105   6.921 -2.0959 -0.2192 -1.1188
27491SOL    HW287412   2.884   8.145   7.010  2.0681  1.3752  4.1274
27492SOL     OW87413   8.132   9.797  10.739 -0.2255 -0.3074  0.4591
27492SOL    HW187414   8.198   9.728  10.730 -0.3691 -0.4202  0.2634
27492SOL    HW287415   8.172   9.861  10.797 -0.3224 -0.8382  1.1166
27493SOL     OW87416   5.220   1.254   5.971  0.6853  0.1438  0.6811
27493SOL    HW187417   5.254   1.192   5.906 -0.7903 -0.5254  0.5090
27493SOL    HW287418   5.133   1.221   5.992  0.4491  1.3511  1.7033
27494SOL     OW87419   0.440   5.974   0.299  0.1942  0.3237 -0.0110
27494SOL    HW187420   0.454   5.881   0.281 -0.6426  0.5126 -1.7706
27494SOL    HW287421   0.508   5.996   0.363  2.3389 -0.7966 -1.7598
27495SOL     OW87422   8.623   7.052   9.806  0.0920  0.8810  0.2466
27495SOL    HW187423   8.658   6.965   9.789 -0.4011  1.1176 -2.3969
27495SOL    HW287424   8.673   7.084   9.881  1.4263 -1.0196  0.2393
27496SOL     OW87425   7.824   3.884  10.275  0.2730  0.0234  0.6187
27496SOL    HW187426   7.821   3.941  10.197  2.5237 -1.9339 -1.0585
27496SOL    HW287427   7.737   3.843  10.278  0.2779 -0.2221 -1.2213
27497SOL     OW87428   2.449   5.141   0.076  0.1429 -0.0251 -0.2685
27497SOL    HW187429   2.499   5.061   0.090  0.9908  0.6319  0.7380
27497SOL    HW287430   2.512   5.203   0.039 -0.2617  0.4324 -0.2151
27498SOL     OW87431  10.915   8.684   1.947 -0.1688  0.2917 -0.5509
27498SOL    HW187432  10.908   8.681   1.852 -1.7546  2.9690 -0.6360
27498SOL    HW287433  10.943   8.774   1.966 -2.6005  0.7319  1.5442
27499SOL     OW87434   7.788   6.842   3.717 -0.0338 -0.7919  0.2886
27499SOL    HW187435   7.786   6.786   3.639 -0.5622 -0.7902  0.2925
27499SOL    HW287436   7.696   6.867   3.730  0.2463  0.5127 -0.0269
27500SOL     OW87437   6.370   2.725   9.651  0.5872 -0.4015 -0.6055
27500SOL    HW187438   6.407   2.779   9.581 -0.6863 -0.3192 -1.2344
27500SOL    HW287439   6.410   2.639   9.637  0.2994 -0.4060 -1.4953
27501SOL     OW87440   3.711  10.084   6.099 -0.1965  0.0427 -0.0719
27501SOL    HW187441   3.625  10.054   6.127 -0.1604 -0.3229 -0.3455
27501SOL    HW287442   3.726  10.040   6.016 -0.1043  0.7515 -0.4434
27502SOL     OW87443   8.182   0.126   9.635 -0.6834  0.2859 -0.0713
27502SOL    HW187444   8.130   0.107   9.557  0.2199  0.9200 -0.8530
27502SOL    HW287445   8.131   0.089   9.707 -0.7111 -1.8861 -1.1176
27503SOL     OW87446   0.052   5.804  11.095 -0.0208  0.1209  0.1372
27503SOL    HW187447  -0.028   5.780  11.048  0.3178  1.3534 -1.1355
27503SOL    HW287448   0.032   5.888  11.137  0.3750  0.0729  0.4371
27504SOL     OW87449   1.522   9.544   6.232  0.1432  0.1428  0.2435
27504SOL    HW187450   1.571   9.625   6.220  1.3767 -0.3674  1.5209
27504SOL    HW287451   1.444   9.553   6.176  0.3977  2.0674  0.1660
27505SOL     OW87452  10.033   6.946   9.703 -0.0113 -0.2039  0.1317
27505SOL    HW187453   9.979   6.991   9.639 -1.3670  1.4406  2.2729
27505SOL    HW287454   9.973   6.885   9.747  0.7296 -0.8696  0.2507
27506SOL     OW87455  10.017   3.235   6.429 -0.8533 -0.3615 -0.0367
27506SOL    HW187456   9.994   3.199   6.343 -2.3959  0.0122  0.1871
27506SOL    HW287457   9.968   3.180   6.491 -1.4220  0.6736  0.4497
27507SOL     OW87458   5.179  10.262   1.094  0.1515  0.3906 -0.0813
27507SOL    HW187459   5.233  10.304   1.161 -0.8723 -1.4736  2.0845
27507SOL    HW287460   5.241  10.214   1.039  1.0165  1.8715 -0.4406
27508SOL     OW87461   4.953   2.910   7.257  0.5895  0.1424 -0.2932
27508SOL    HW187462   4.966   2.828   7.306 -0.8291 -0.1449 -0.3729
27508SOL    HW287463   4.967   2.979   7.321  2.4910 -0.1043 -0.3738
27509SOL     OW87464   2.880  11.428   6.960  0.2596  0.5440 -0.1097
27509SOL    HW187465   2.873  11.414   6.866 -1.7865  2.3234 -0.2943
27509SOL    HW287466   2.795  11.401   6.995  1.0322 -0.2049  1.2502
27510SOL     OW87467   7.100   3.561   8.491  0.4322 -0.2749 -0.4600
27510SOL    HW187468   7.065   3.638   8.536 -1.1693 -0.6014 -1.0828
27510SOL    HW287469   7.195   3.572   8.494  0.3216  0.4959  1.5837
27511SOL     OW87470   4.160   8.162   5.860 -0.3807  0.6025  0.5349
27511SOL    HW187471   4.091   8.114   5.907 -0.3885  0.6049  0.5252
27511SOL    HW287472   4.129   8.165   5.770  0.4417 -0.8972  0.1756
27512SOL     OW87473   9.600   8.478   9.086  0.0368 -0.1820  0.1048
27512SOL    HW187474   9.530   8.542   9.077 -1.3078 -1.7243 -0.7335
27512SOL    HW287475   9.583   8.436   9.170 -0.2259 -0.7624 -0.2358
27513SOL     OW87476   6.119  11.196   2.063  0.3806  0.0437 -0.4055
27513SOL    HW187477   6.078  11.277   2.033 -1.4344 -0.7095 -0.0666
27513SOL    HW287478   6.198  11.188   2.009  0.3506  1.7732 -0.7718
27514SOL     OW87479   1.556  10.719   9.241 -0.2310 -0.4254  0.2623
27514SOL    HW187480   1.478  10.762   9.206 -0.1745  0.6034  1.3457
27514SOL    HW287481   1.527  10.630   9.262 -1.6943  0.4790  2.4664
27515SOL     OW87482   4.617   1.765   6.649 -0.4486  0.5856 -0.1789
27515SOL    HW187483   4.550   1.830   6.624  0.1426  0.7831 -1.3150
27515SOL    HW287484   4.624   1.708   6.572  3.2376  2.6957 -1.6717
27516SOL     OW87485   9.688  10.318   8.158  0.4510 -0.6440  0.2079
27516SOL    HW187486   9.636  10.291   8.083 -1.0650 -1.1915  1.3945
27516SOL    HW287487   9.717  10.236   8.199  1.8977 -0.3485 -0.1664
27517SOL     OW87488   0.592  10.116  11.381 -0.3934 -0.2957  0.3090
27517SOL    HW187489   0.610  10.116  11.287 -0.1627 -0.8057  0.3494
27517SOL    HW287490   0.576  10.024  11.402 -0.9574 -0.1218  0.6727
27518SOL     OW87491   5.953   7.994   6.450  0.2284  0.0579  0.3245
27518SOL    HW187492   5.967   7.945   6.531 -1.1089 -1.8655 -0.5362
27518SOL    HW287493   5.910   8.075   6.478  1.5781  0.3366  1.6913
27519SOL     OW87494   3.152   6.934   2.089 -0.2434 -0.6758 -0.6534
27519SOL    HW187495   3.068   6.961   2.128 -0.1469 -3.4073  1.7730
27519SOL    HW287496   3.127   6.889   2.009 -1.0787 -0.8544 -0.3106
27520SOL     OW87497   8.813   5.885   4.697  0.1826 -0.5212 -0.3763
27520SOL    HW187498   8.873   5.815   4.721  0.5590 -1.0389 -2.6018
27520SOL    HW287499   8.759   5.849   4.627 -0.3286  1.0699 -0.8636
27521SOL     OW87500   4.073   7.580   1.667 -0.1776 -0.1321  0.5419
27521SOL    HW187501   4.017   7.506   1.690 -1.1300  0.5524  0.5401
27521SOL    HW287502   4.046   7.650   1.727  0.3677  0.3542  0.2366
27522SOL     OW87503   0.115   1.761  10.702 -0.2764 -0.1756  0.2599
27522SOL    HW187504   0.180   1.691  10.695 -0.8884 -0.8390  1.0648
27522SOL    HW287505   0.151   1.832  10.650 -0.8799 -1.9861 -2.8818
27523SOL     OW87506  11.646   8.800   9.919 -0.9046 -0.0000  0.1074
27523SOL    HW187507  11.580   8.868   9.928  0.9033  1.9006 -0.0880
27523SOL    HW287508  11.697   8.806  10.000  1.1060  1.0463 -1.1459
27524SOL     OW87509   9.667   9.233   9.125 -0.0910 -0.0712  0.1176
27524SOL    HW187510   9.688   9.215   9.034  0.3126 -0.3173  0.2569
27524SOL    HW287511   9.621   9.155   9.156  0.2506 -0.2134  0.2743
27525SOL     OW87512   7.293   1.135   0.465 -0.0189 -0.0025  0.2182
27525SOL    HW187513   7.221   1.077   0.442 -0.9228  0.7018  1.1653
27525SOL    HW287514   7.368   1.101   0.417 -0.8180 -1.1799 -0.2303
27526SOL     OW87515   2.441   5.810  11.536  0.0961 -0.5218  0.4148
27526SOL    HW187516   2.412   5.901  11.541 -0.4074 -0.6459 -0.1381
27526SOL    HW287517   2.405   5.778  11.453  0.3126 -1.2122  0.5809
27527SOL     OW87518   2.272   2.917   6.094 -0.2906 -0.3737  0.5874
27527SOL    HW187519   2.185   2.877   6.083 -0.5787  0.5788 -0.8892
27527SOL    HW287520   2.257   2.991   6.153 -0.5945  0.0575 -0.0152
27528SOL     OW87521   3.535   9.262   4.113 -0.3648 -0.3915 -0.4498
27528SOL    HW187522   3.510   9.342   4.068  0.2214 -1.1667 -2.2619
27528SOL    HW287523   3.588   9.291   4.188 -0.3087  0.9045 -0.9762
27529SOL     OW87524  11.020   9.616  10.536  0.0169  0.0317  0.0442
27529SOL    HW187525  10.986   9.647  10.620  0.0481  0.8572 -0.2382
27529SOL    HW287526  10.981   9.529  10.525 -0.5286  0.1994  0.5838
27530SOL     OW87527  10.711   5.559  10.709  0.5370 -0.2160 -0.2801
27530SOL    HW187528  10.697   5.474  10.667  1.4158 -0.6493  0.2516
27530SOL    HW287529  10.656   5.620  10.660 -1.9053 -1.4640  0.7253
27531SOL     OW87530  11.116   4.625  10.023 -0.1863 -0.2501  0.1799
27531SOL    HW187531  11.204   4.653   9.998 -0.0235 -0.0198  1.0113
27531SOL    HW287532  11.075   4.599   9.940 -0.1823  1.9918 -0.5684
27532SOL     OW87533   8.718   1.330   4.554 -0.5363  0.4177  0.1062
27532SOL    HW187534   8.797   1.276   4.552  0.1499  1.3377  1.1701
27532SOL    HW287535   8.646   1.267   4.548  0.2611 -0.5173  0.0969
27533SOL     OW87536   3.192   8.438  10.545 -0.6028  0.3862  0.1873
27533SOL    HW187537   3.119   8.488  10.510  0.0355  1.4303  0.3007
27533SOL    HW287538   3.223   8.489  10.620  0.6171  0.2860 -0.2188
27534SOL     OW87539   9.183  11.292   2.255  0.5248  0.4071 -0.0976
27534SOL    HW187540   9.162  11.235   2.181  0.9241 -0.7638  0.6533
27534SOL    HW287541   9.102  11.341   2.271 -0.3521 -1.0411  0.1495
27535SOL     OW87542   7.292   8.303   9.873 -0.2759  0.3385 -0.2024
27535SOL    HW187543   7.363   8.262   9.823  0.8371  0.5599  1.1316
27535SOL    HW287544   7.223   8.317   9.809 -0.2558 -2.5068 -0.9692
27536SOL     OW87545   0.392   6.985   6.518  0.0158  0.0927  0.0914
27536SOL    HW187546   0.427   6.978   6.607 -0.7192 -1.4580  0.3016
27536SOL    HW287547   0.387   7.079   6.501  1.5501  0.3969  1.1203
27537SOL     OW87548   1.410   4.016   8.754  0.0687 -0.7054  0.0710
27537SOL    HW187549   1.439   3.999   8.844 -1.7956 -1.1713  0.6285
27537SOL    HW287550   1.457   4.095   8.728  1.5224 -1.2094  1.0146
27538SOL     OW87551   6.680   4.631   7.923 -0.3541  0.0741 -0.2412
27538SOL    HW187552   6.774   4.612   7.924 -0.1934  0.8032 -0.7164
27538SOL    HW287553   6.652   4.618   8.013  0.6217  1.7802  0.3632
27539SOL     OW87554   1.237   0.579   2.891  0.4965  0.6118  0.7623
27539SOL    HW187555   1.272   0.595   2.979  1.0301 -0.0763  0.6878
27539SOL    HW287556   1.262   0.488   2.872 -0.1217  0.5660  0.1329
27540SOL     OW87557   9.283   8.259   1.407 -0.5178 -0.3702 -0.1363
27540SOL    HW187558   9.210   8.303   1.452 -1.1000  0.1073 -1.4703
27540SOL    HW287559   9.361   8.306   1.436 -1.0497  1.0696 -0.9025
27541SOL     OW87560   3.045   3.049   0.008  0.4098 -0.4160  0.4507
27541SOL    HW187561   3.103   2.996  -0.046  1.9069  0.4508  1.1437
27541SOL    HW287562   3.043   3.135  -0.035  0.8814  0.0084  1.2543
27542SOL     OW87563   0.355   3.241   2.865 -0.1241  0.1299 -0.1732
27542SOL    HW187564   0.385   3.196   2.944 -0.9485 -1.4926 -0.7575
27542SOL    HW287565   0.259   3.240   2.871 -0.1719  1.5463 -0.3608
27543SOL     OW87566   6.891   3.529   3.892 -0.3949  0.0647 -0.0110
27543SOL    HW187567   6.937   3.595   3.943  1.2072  0.1383 -1.4627
27543SOL    HW287568   6.820   3.577   3.849 -0.3853  0.4519  0.3994
27544SOL     OW87569   2.543   0.209   2.702 -0.0404  0.3045  0.2285
27544SOL    HW187570   2.628   0.246   2.724  0.0696 -1.5556  3.6741
27544SOL    HW287571   2.481   0.282   2.710  0.9791  1.3149 -0.7646
27545SOL     OW87572   0.458  11.301   7.417  0.3339 -0.4850 -0.5896
27545SOL    HW187573   0.475  11.219   7.464 -0.1226  0.8839  2.1598
27545SOL    HW287574   0.408  11.354   7.479  0.5062  1.8599 -2.3262
27546SOL     OW87575   0.782   9.596   5.249  0.3179 -0.2709 -0.5443
27546SOL    HW187576   0.691   9.581   5.273  0.3361 -0.0286 -0.3142
27546SOL    HW287577   0.828   9.606   5.332  0.3479  0.7762 -0.6634
27547SOL     OW87578   8.283   8.349   8.182  0.3569  0.4935 -0.3496
27547SOL    HW187579   8.239   8.276   8.225 -0.0990  1.6324  1.2484
27547SOL    HW287580   8.376   8.330   8.192  0.2440 -0.0656 -0.3219
27548SOL     OW87581  10.656   1.627   6.154  0.4767 -0.4815  0.3915
27548SOL    HW187582  10.609   1.664   6.229 -2.1549 -0.8126 -0.9838
27548SOL    HW287583  10.735   1.682   6.146 -1.2819  2.3327  0.8684
27549SOL     OW87584   1.984   6.694   5.859  0.1978 -0.1513  0.3159
27549SOL    HW187585   2.007   6.658   5.944 -0.1094 -0.8701  0.1018
27549SOL    HW287586   2.023   6.781   5.858  0.7663 -0.3958  0.9277
27550SOL     OW87587   8.296   4.158   6.795 -0.1449  0.3196  0.1895
27550SOL    HW187588   8.317   4.090   6.858  1.3618  0.9177  0.3730
27550SOL    HW287589   8.254   4.227   6.846 -0.8987 -0.0985  0.1472
27551SOL     OW87590   6.563  10.711  11.616  0.3614 -0.1074  0.3387
27551SOL    HW187591   6.560  10.759  11.533  0.4963 -0.6189  0.0342
27551SOL    HW287592   6.536  10.622  11.593 -1.7149  0.2378  1.2136
27552SOL     OW87593   8.700   8.332  11.578  0.1878  0.3179 -0.0439
27552SOL    HW187594   8.624   8.333  11.520  0.3281  2.0738 -0.2537
27552SOL    HW287595   8.663   8.315  11.665 -0.3792  0.6194 -0.2226
27553SOL     OW87596   9.427   6.868   8.746  0.2520 -0.1426  0.3964
27553SOL    HW187597   9.409   6.826   8.662 -0.6817  0.6350  0.1950
27553SOL    HW287598   9.509   6.827   8.776  1.2935  0.4806 -1.4593
27554SOL     OW87599  10.827   2.797  10.601  0.0076  0.7470 -0.2819
27554SOL    HW187600  10.747   2.815  10.652 -1.0070 -2.1272 -0.7002
27554SOL    HW287601  10.884   2.752  10.663 -0.8488 -1.8981 -1.2968
27555SOL     OW87602  11.241   7.058   4.175  0.2678  0.4487  0.6350
27555SOL    HW187603  11.197   7.033   4.256  1.3487  1.1951  1.4774
27555SOL    HW287604  11.187   7.128   4.139 -2.0132 -1.9848 -1.0294
27556SOL     OW87605   7.960   0.684   1.888 -0.3310  0.0583  0.2106
27556SOL    HW187606   8.003   0.603   1.859 -0.6470  0.3122 -1.0267
27556SOL    HW287607   8.029   0.734   1.931  0.1697 -0.3407 -0.1172
27557SOL     OW87608   6.915   7.644   2.535  0.0081  0.1312  0.1055
27557SOL    HW187609   6.970   7.626   2.459 -0.7527  2.2569 -1.0169
27557SOL    HW287610   6.917   7.739   2.544  0.0271 -0.0423  2.7444
27558SOL     OW87611   5.055   1.368   9.189 -0.1039  0.4202  0.3658
27558SOL    HW187612   5.038   1.280   9.157  0.2514  0.1025  1.0306
27558SOL    HW287613   5.151   1.375   9.189 -0.0900  1.9403 -2.7111
27559SOL     OW87614   2.026   2.138   0.711 -0.1145 -0.2221  0.2792
27559SOL    HW187615   2.064   2.155   0.625  1.1850 -2.2593  0.3941
27559SOL    HW287616   1.974   2.058   0.700  0.9122 -1.1161  1.5764
27560SOL     OW87617   9.194   2.034   2.645 -0.1346 -0.0317 -0.1954
27560SOL    HW187618   9.178   1.941   2.627  0.4761 -0.3133  0.6282
27560SOL    HW287619   9.257   2.033   2.717 -1.4759  1.0170  1.0653
27561SOL     OW87620   4.634   7.320   2.857  0.0970  0.0174 -0.1362
27561SOL    HW187621   4.627   7.231   2.893  1.3305  0.2349  0.7342
27561SOL    HW287622   4.648   7.375   2.934  3.2644  0.4633 -0.8727
27562SOL     OW87623   8.042   2.409   6.725 -0.0411  0.6313  0.2866
27562SOL    HW187624   8.041   2.427   6.819  0.1004 -0.2017  0.4547
27562SOL    HW287625   8.026   2.494   6.684 -0.4704  0.9378  1.0708
27563SOL     OW87626   0.940  11.485   3.713  0.1808  0.3636 -0.1652
27563SOL    HW187627   0.921  11.423   3.643  0.2107 -1.3037  1.2389
27563SOL    HW287628   0.882  11.460   3.784  1.7652  0.4907  1.2484
27564SOL     OW87629   3.278   4.884   1.720  0.3081  0.4568  0.0783
27564SOL    HW187630   3.202   4.842   1.678 -0.5382  2.2460 -0.2721
27564SOL    HW287631   3.334   4.811   1.745 -1.3335 -0.9156 -0.0289
27565SOL     OW87632   8.650  10.024   3.642 -0.3228  0.2351  0.2744
27565SOL    HW187633   8.603  10.065   3.715  0.3575  0.5381  0.5468
27565SOL    HW287634   8.626  10.078   3.566 -0.4202  0.3868  0.4112
27566SOL     OW87635  10.629   1.236  10.676 -0.9627 -0.4525 -0.5645
27566SOL    HW187636  10.684   1.168  10.638  0.2064  0.8936 -1.3644
27566SOL    HW287637  10.564   1.188  10.727 -1.8567 -2.2808 -3.2509
27567SOL     OW87638   2.920  10.127   5.080 -0.0772  0.1670  0.0615
27567SOL    HW187639   2.999  10.084   5.114 -1.2150 -0.6299  1.8104
27567SOL    HW287640   2.852  10.106   5.143 -2.9917 -3.4446 -3.6810
27568SOL     OW87641   3.106   9.095  10.963  0.2023 -0.3718  0.0256
27568SOL    HW187642   3.077   9.100  10.872  0.2036  0.5158  0.0693
27568SOL    HW287643   3.201   9.099  10.959  0.2208 -0.7586  0.0429
27569SOL     OW87644   6.339   7.599   1.265  0.5153 -0.0976  0.4801
27569SOL    HW187645   6.247   7.598   1.237  0.7327  0.0520 -0.2559
27569SOL    HW287646   6.343   7.537   1.338 -0.0978 -0.3559  0.2974
27570SOL     OW87647  11.183  11.174   7.358 -0.1148 -0.3511  0.1347
27570SOL    HW187648  11.130  11.189   7.279 -1.6820  2.2114  1.5179
27570SOL    HW287649  11.258  11.233   7.347  1.3644 -2.2996 -0.7757
27571SOL     OW87650   9.189   5.188   1.227 -0.1117  0.1257 -0.1593
27571SOL    HW187651   9.102   5.221   1.207 -0.4295  0.3635  1.4636
27571SOL    HW287652   9.235   5.190   1.143 -1.6621 -0.0369 -1.0537
27572SOL     OW87653   3.001   6.341   7.876 -0.0093 -0.6353  0.0223
27572SOL    HW187654   2.941   6.282   7.830  0.5474 -1.1640 -0.0237
27572SOL    HW287655   3.047   6.285   7.938  0.3585 -0.2035  0.1421
27573SOL     OW87656   1.343   1.304  10.342  0.0820 -0.0065  0.9932
27573SOL    HW187657   1.398   1.367  10.295 -1.0454  0.5062  0.3059
27573SOL    HW287658   1.253   1.334  10.326 -0.4147 -0.8654  2.0054
27574SOL     OW87659  11.093  10.168  10.482 -0.7171  0.3145  0.1258
27574SOL    HW187660  11.073  10.076  10.503 -1.2403  0.7088  1.4872
27574SOL    HW287661  11.082  10.173  10.387 -1.5351 -0.8399  0.1248
27575SOL     OW87662   9.233   9.166   0.430  0.2751  0.2869 -0.0922
27575SOL    HW187663   9.324   9.141   0.447 -0.1340 -1.3462 -0.0914
27575SOL    HW287664   9.185   9.084   0.439 -1.1899  1.1166 -0.1868
27576SOL     OW87665   5.070   7.507  10.798 -0.2445  0.1979 -0.1370
27576SOL    HW187666   5.091   7.416  10.777  0.8622 -0.0550  1.8179
27576SOL    HW287667   5.109   7.522  10.884  0.6459  2.9058 -0.9067
27577SOL     OW87668   3.545  11.344   5.827  0.2021 -0.0623  0.3364
27577SOL    HW187669   3.621  11.328   5.882 -0.7349 -1.8565  1.1851
27577SOL    HW287670   3.579  11.343   5.738  1.4029  0.8138  0.7553
27578SOL     OW87671   7.312   5.186   1.744  0.0558  0.1368  0.6971
27578SOL    HW187672   7.361   5.249   1.798  0.9783  1.0857 -1.1748
27578SOL    HW287673   7.375   5.156   1.679 -1.7496  1.3400 -1.7616
27579SOL     OW87674   5.610   2.059   3.007  0.3165  0.0810  0.2177
27579SOL    HW187675   5.655   1.998   2.949  1.1912  1.1543 -0.2827
27579SOL    HW287676   5.681   2.106   3.052 -0.3097  1.1305  0.1458
27580SOL     OW87677   0.908   9.859   0.533 -0.4895  0.3035  0.5451
27580SOL    HW187678   0.945   9.782   0.576  1.5877 -0.1701 -1.8052
27580SOL    HW287679   0.837   9.888   0.590  1.4573 -0.7399  3.7392
27581SOL     OW87680   5.813   9.460   7.247 -0.0288 -1.0243 -0.3024
27581SOL    HW187681   5.895   9.487   7.205 -0.3104  0.3428 -0.0437
27581SOL    HW287682   5.815   9.365   7.245  1.1157 -1.0084 -1.1701
27582SOL     OW87683   1.922   4.955   3.632 -0.3769 -0.0537 -0.5840
27582SOL    HW187684   2.008   4.998   3.629  0.2995 -1.4137 -1.6323
27582SOL    HW287685   1.860   5.025   3.613  0.7015  0.5078 -2.2871
27583SOL     OW87686   5.463  11.046   6.491  0.6695 -0.0386  0.3651
27583SOL    HW187687   5.385  10.997   6.518  0.6156 -1.0638 -1.5286
27583SOL    HW287688   5.522  11.038   6.566 -0.4142 -0.6002  1.2030
27584SOL     OW87689   1.449   9.581   0.633 -0.0680  0.3791 -0.2259
27584SOL    HW187690   1.495   9.498   0.640  0.1195  0.4332 -0.8109
27584SOL    HW287691   1.441   9.597   0.539 -0.5522  0.7740 -0.1206
27585SOL     OW87692  11.575   3.389   2.630  0.6688 -0.2188  0.4237
27585SOL    HW187693  11.619   3.469   2.660  0.1487 -0.4550  1.9197
27585SOL    HW287694  11.638   3.346   2.573  0.7333  1.5548 -0.9093
27586SOL     OW87695   9.944  10.749   9.750 -0.2354 -0.3722 -0.1259
27586SOL    HW187696   9.950  10.662   9.710 -0.7653  0.3269 -1.8266
27586SOL    HW287697   9.876  10.741   9.817 -0.1279 -1.3080 -0.1251
27587SOL     OW87698   4.271   5.597  10.928  0.4022 -0.0639 -0.0174
27587SOL    HW187699   4.325   5.672  10.954  0.1132 -0.8402  3.2848
27587SOL    HW287700   4.250   5.554  11.011 -1.4466 -2.4338 -1.6154
27588SOL     OW87701   5.491   5.180   6.676 -0.5851 -0.1744 -0.0251
27588SOL    HW187702   5.437   5.249   6.714 -0.6899 -0.5195  0.4746
27588SOL    HW287703   5.464   5.101   6.723 -0.8416 -0.6460 -0.9525
27589SOL     OW87704   3.460   0.535   8.446 -0.3717 -0.1118  0.2925
27589SOL    HW187705   3.463   0.449   8.403 -0.4260  0.2074 -0.3734
27589SOL    HW287706   3.502   0.522   8.531 -1.0113 -0.9615  0.4895
27590SOL     OW87707   8.859   2.821   9.879  0.2791 -0.1258 -0.1266
27590SOL    HW187708   8.851   2.911   9.847  0.2053  0.5289  1.6293
27590SOL    HW287709   8.769   2.792   9.891  0.3182 -0.1216  0.1635
27591SOL     OW87710   8.539   2.391   0.279 -0.4782  0.2395 -0.3837
27591SOL    HW187711   8.565   2.430   0.363  2.5296 -0.3432 -0.9168
27591SOL    HW287712   8.489   2.460   0.235  1.5706  2.2093  0.1720
27592SOL     OW87713   0.028   2.314   2.534 -0.4254  0.1194  0.2425
27592SOL    HW187714   0.122   2.331   2.526 -0.5228  0.7507  0.3696
27592SOL    HW287715  -0.013   2.396   2.504 -0.9081  0.3679  1.5200
27593SOL     OW87716   7.525   6.129   2.804 -0.4330  0.2350  0.0866
27593SOL    HW187717   7.526   6.224   2.817  0.6105  0.1251  0.9372
27593SOL    HW287718   7.615   6.101   2.819 -0.4348 -0.7470 -1.4566
27594SOL     OW87719   8.098   3.833   4.343 -0.6778 -0.3975  0.3580
27594SOL    HW187720   8.083   3.903   4.407 -0.7686 -0.0054 -0.0783
27594SOL    HW287721   8.184   3.799   4.365  0.2131  1.1339 -0.5715
27595SOL     OW87722   6.325   8.212   4.138 -0.0677 -0.5908  0.3333
27595SOL    HW187723   6.230   8.213   4.128 -0.1057 -1.0303  0.6395
27595SOL    HW287724   6.345   8.295   4.181 -0.5852 -1.5735  2.5927
27596SOL     OW87725  10.441   1.669   0.031 -0.4831 -0.0829  0.0067
27596SOL    HW187726  10.444   1.626  -0.054  0.5632 -3.6843  1.6753
27596SOL    HW287727  10.528   1.708   0.040 -0.2825 -0.4585 -0.2434
27597SOL     OW87728  11.478   4.827   6.196  0.3890 -1.0260  0.8102
27597SOL    HW187729  11.546   4.894   6.204  0.8330 -1.1118 -1.4061
27597SOL    HW287730  11.517   4.748   6.233  1.3485 -0.9621 -0.0310
27598SOL     OW87731   1.658   2.363   7.306 -0.8455 -0.3979 -0.2172
27598SOL    HW187732   1.745   2.324   7.299 -0.3553  0.6514 -0.0943
27598SOL    HW287733   1.620   2.353   7.218  0.9627  2.6714 -1.5165
27599SOL     OW87734   6.479   1.800   3.658 -0.4282  0.0412  0.2545
27599SOL    HW187735   6.441   1.821   3.744  0.5934  0.6971  0.5599
27599SOL    HW287736   6.518   1.713   3.670 -1.5356 -0.5081  0.0226
27600SOL     OW87737   1.860   9.764   8.615  0.0776 -0.3081 -0.6159
27600SOL    HW187738   1.867   9.857   8.635  1.0175 -0.5887  0.4727
27600SOL    HW287739   1.949   9.731   8.624 -0.4937 -1.6226  0.6852
27601SOL     OW87740  10.264   6.484   7.442  0.2780 -0.1345  0.4317
27601SOL    HW187741  10.320   6.556   7.472  1.1814 -0.9325  0.7180
27601SOL    HW287742  10.199   6.474   7.511 -0.4131  0.9858 -0.0316
27602SOL     OW87743   1.674   9.323   9.669  0.3767 -0.9191  0.1189
27602SOL    HW187744   1.731   9.390   9.634  0.4260 -0.6582  0.6845
27602SOL    HW287745   1.698   9.317   9.762 -1.4901  0.2465  0.7416
27603SOL     OW87746   9.352   4.105  10.267 -0.0554 -0.3766 -0.0477
27603SOL    HW187747   9.301   4.099  10.348 -0.7423  1.5629 -0.2826
27603SOL    HW287748   9.432   4.152  10.292  0.2981 -0.8383 -0.2772
27604SOL     OW87749   0.370   8.135   8.247  0.4056  0.1784  0.1251
27604SOL    HW187750   0.447   8.102   8.202 -0.9403 -1.7937 -0.8457
27604SOL    HW287751   0.310   8.162   8.178 -0.9412 -1.1305  0.7152
27605SOL     OW87752  11.215   4.240   4.560 -0.2360  0.2252  0.1448
27605SOL    HW187753  11.248   4.229   4.649 -0.1771 -0.2740  0.0648
27605SOL    HW287754  11.173   4.157   4.539 -1.0649  0.6597  0.0371
27606SOL     OW87755   8.046  11.559   3.755  0.0688 -0.3288  0.2603
27606SOL    HW187756   8.009  11.613   3.824  1.2496  1.2350 -0.2740
27606SOL    HW287757   7.988  11.483   3.749 -1.2860  0.5899  1.4483
27607SOL     OW87758   1.689  11.242   9.652 -0.2295 -0.0188 -0.1450
27607SOL    HW187759   1.722  11.288   9.575  1.0241 -0.0715  0.3357
27607SOL    HW287760   1.699  11.305   9.723 -2.4617  0.4603 -0.1711
27608SOL     OW87761   2.207   5.049   4.498  0.4008  0.1993 -0.0556
27608SOL    HW187762   2.287   5.100   4.512  0.9782 -0.3738 -1.0681
27608SOL    HW287763   2.183   5.017   4.585  3.0816 -2.2132 -0.0702
27609SOL     OW87764   6.537   2.544   3.616  0.6406  0.3126  0.1735
27609SOL    HW187765   6.602   2.498   3.563 -0.0915 -1.0886  0.4255
27609SOL    HW287766   6.527   2.629   3.575 -0.9708 -1.1989 -2.8795
27610SOL     OW87767   5.197   7.094   6.505 -0.0590  0.2417 -0.0478
27610SOL    HW187768   5.157   7.100   6.592 -0.2316 -0.4914 -0.0757
27610SOL    HW287769   5.257   7.170   6.501 -0.8705  0.9116  0.2779
27611SOL     OW87770   1.421   0.418  11.192  0.2706  0.4299  0.3770
27611SOL    HW187771   1.336   0.415  11.236 -0.4504  2.5216 -0.7348
27611SOL    HW287772   1.479   0.463  11.254  0.4183 -0.4178  0.8699
27612SOL     OW87773   7.963   3.791   6.241 -0.1762 -0.0589 -0.4307
27612SOL    HW187774   7.985   3.881   6.268 -0.4268  0.0001 -0.4224
27612SOL    HW287775   8.012   3.777   6.160 -1.2587  0.5981 -1.2258
27613SOL     OW87776   2.506   1.731   1.445 -0.2172 -0.4964  0.2676
27613SOL    HW187777   2.583   1.783   1.468  0.5566 -1.7400  0.5745
27613SOL    HW287778   2.533   1.680   1.369 -0.4657 -1.5000  0.8281
27614SOL     OW87779   7.060   1.877   3.842  0.1334 -0.0074 -0.5532
27614SOL    HW187780   7.043   1.964   3.807  0.2874  0.4569  0.4745
27614SOL    HW287781   7.020   1.878   3.929  0.8710 -0.6655 -0.1859
27615SOL     OW87782   8.728   3.251   4.545 -0.4205 -0.1676  0.5690
27615SOL    HW187783   8.672   3.213   4.613 -1.2294  1.0864  0.6379
27615SOL    HW287784   8.670   3.309   4.497  1.3754  3.5899  2.5324
27616SOL     OW87785   4.082   0.405   5.186  0.0978 -0.1860  0.0791
27616SOL    HW187786   4.055   0.436   5.100 -0.3232 -2.1707 -0.5536
27616SOL    HW287787   4.135   0.327   5.168  1.1765  0.1512  1.5733
27617SOL     OW87788   5.634  10.005   6.896 -0.1315 -0.1470  0.0689
27617SOL    HW187789   5.584   9.957   6.830  1.0292  0.6666 -1.4602
27617SOL    HW287790   5.682   9.938   6.945  1.0880 -0.6305 -1.7089
27618SOL     OW87791   2.709  10.728   5.844 -0.0785 -0.5173 -0.1218
27618SOL    HW187792   2.780  10.788   5.868 -0.3379 -0.5711  0.7765
27618SOL    HW287793   2.704  10.735   5.748 -0.9783  1.8872  0.0446
27619SOL     OW87794   3.422   9.817   7.933  0.5611  0.7368  0.1706
27619SOL    HW187795   3.406   9.754   8.004  0.1626  1.3365  0.6211
27619SOL    HW287796   3.447   9.898   7.977 -0.4562  1.3461 -0.3320
27620SOL     OW87797   8.629   0.733   3.729 -0.1706  0.0908  0.2069
27620SOL    HW187798   8.686   0.809   3.714 -0.1426  0.1943  0.8071
27620SOL    HW287799   8.672   0.661   3.682  0.8818 -0.0128  1.2794
27621SOL     OW87800   6.096   0.905   1.398 -0.4833 -0.0265 -0.5366
27621SOL    HW187801   6.035   0.877   1.329 -0.5650 -0.2117 -0.3863
27621SOL    HW287802   6.174   0.934   1.350 -0.9505  0.8860 -0.7775
27622SOL     OW87803   6.854   5.095   4.825  0.3757  0.1871  0.1929
27622SOL    HW187804   6.800   5.026   4.862  0.0665  0.8577  1.0229
27622SOL    HW287805   6.830   5.097   4.732 -0.2718 -0.2162  0.3449
27623SOL     OW87806  11.217   1.770  10.805 -0.6733  0.5338  0.0096
27623SOL    HW187807  11.125   1.790  10.823 -1.1604 -1.3880 -0.1718
27623SOL    HW287808  11.217   1.727  10.720  0.6893  2.3353 -0.9902
27624SOL     OW87809   5.344   3.781   5.216 -0.2368 -0.2290 -0.3794
27624SOL    HW187810   5.337   3.713   5.149  1.0881 -0.3096 -0.4451
27624SOL    HW287811   5.434   3.811   5.211 -0.3024  0.2360  0.9164
27625SOL     OW87812   5.990   3.430   6.530 -0.2242  0.4634  0.1807
27625SOL    HW187813   5.981   3.369   6.457 -1.2881 -0.4261  1.0213
27625SOL    HW287814   6.083   3.429   6.551 -0.3619 -1.7416  0.8742
27626SOL     OW87815   3.531   0.375   4.835 -0.5732  0.2643 -0.0671
27626SOL    HW187816   3.560   0.403   4.749  0.5892  1.9334  0.7964
27626SOL    HW287817   3.607   0.328   4.872 -0.6682  0.4965  0.4343
27627SOL     OW87818   2.787  11.393  11.271 -0.3186 -0.3691  0.0511
27627SOL    HW187819   2.769  11.466  11.330  0.6674 -1.3089  1.5663
27627SOL    HW287820   2.760  11.316  11.319  1.9901 -1.3050 -0.0361
27628SOL     OW87821   8.007  11.112   7.163  0.3721  0.5395 -0.3034
27628SOL    HW187822   8.013  11.206   7.182  2.4637  0.3773  0.1291
27628SOL    HW287823   8.067  11.099   7.089 -0.4457 -0.3574 -0.8211
27629SOL     OW87824  11.325   3.807   8.872 -0.6244 -0.5624 -0.0795
27629SOL    HW187825  11.301   3.741   8.936  0.1296 -0.6251  0.1405
27629SOL    HW287826  11.334   3.888   8.922  1.0488 -0.8261  0.1030
27630SOL     OW87827   1.907   3.197   0.906 -0.3742  0.0279 -0.4459
27630SOL    HW187828   1.897   3.244   0.989  0.7160  0.3095 -0.4619
27630SOL    HW287829   1.933   3.109   0.932  0.3472  0.2214 -0.4855
27631SOL     OW87830   6.064   0.223   9.815  0.0176  0.4857  0.1740
27631SOL    HW187831   5.974   0.231   9.784  0.3240  0.9114 -0.6342
27631SOL    HW287832   6.100   0.312   9.808  0.2298  0.5013  1.3475
27632SOL     OW87833   8.254   7.476   3.164 -0.0558 -0.7912  0.6799
27632SOL    HW187834   8.340   7.480   3.121 -0.0894 -0.2435  0.6602
27632SOL    HW287835   8.191   7.475   3.092 -0.1616  1.2275  0.6901
27633SOL     OW87836  10.135   7.333   7.559  0.3047  0.6799  0.1128
27633SOL    HW187837  10.095   7.283   7.489  0.1759  0.9325  0.0023
27633SOL    HW287838  10.091   7.419   7.555  0.4086  0.7489  0.3959
27634SOL     OW87839   8.123  11.636   3.355  0.3723  0.3860 -0.0027
27634SOL    HW187840   8.033  11.660   3.332  0.2398 -1.5671 -1.8275
27634SOL    HW287841   8.131  11.659   3.448 -2.1539  0.2073  0.3300
27635SOL     OW87842   1.131   4.055   3.334  0.2882  0.8419  0.3330
27635SOL    HW187843   1.109   3.969   3.370 -0.8727  1.5441  1.3609
27635SOL    HW287844   1.203   4.037   3.274 -1.2326 -1.1534 -1.0362
27636SOL     OW87845   6.208   8.561   2.414  0.0726  0.0629  0.5255
27636SOL    HW187846   6.279   8.497   2.422 -0.8132 -1.2526 -1.3610
27636SOL    HW287847   6.181   8.578   2.505  1.1811 -1.2636  1.1461
27637SOL     OW87848   0.920   6.707   1.008 -0.2550 -0.2743  0.4728
27637SOL    HW187849   0.972   6.670   1.080 -0.2888  0.2419  0.7712
27637SOL    HW287850   0.829   6.694   1.035 -0.2698 -0.2479  0.4357
27638SOL     OW87851   1.413   0.944   4.468 -0.5506  0.3734 -0.4316
27638SOL    HW187852   1.429   1.019   4.524 -1.6887  0.4641 -0.1926
27638SOL    HW287853   1.488   0.886   4.482  0.7634  1.8075 -1.2452
27639SOL     OW87854   5.483   3.610   6.800  0.1128 -0.0662 -0.1695
27639SOL    HW187855   5.453   3.559   6.725  1.1803 -1.8448  0.5497
27639SOL    HW287856   5.444   3.567   6.876  1.1136  0.1216  0.4727
27640SOL     OW87857   3.245   9.549   7.955  0.4535 -0.2429 -0.7213
27640SOL    HW187858   3.338   9.568   7.949  0.5201 -0.7217 -1.2291
27640SOL    HW287859   3.202   9.629   7.927  0.6760  0.5681  1.0628
27641SOL     OW87860   3.620   4.718   9.034 -1.2970  0.3029  0.4026
27641SOL    HW187861   3.705   4.748   9.002 -0.4753 -1.7051  0.5841
27641SOL    HW287862   3.569   4.798   9.045  1.2599  1.8188  2.3598
27642SOL     OW87863  10.659   2.834   5.075  0.4073  0.4852 -0.0800
27642SOL    HW187864  10.678   2.835   5.169 -0.4700 -0.8146  0.1464
27642SOL    HW287865  10.742   2.811   5.034  0.1174 -2.3775  0.6799
27643SOL     OW87866   3.468   3.555   9.195  0.0430 -0.4866 -0.1680
27643SOL    HW187867   3.422   3.471   9.194  0.8585 -0.9612  0.6077
27643SOL    HW287868   3.428   3.604   9.267 -0.4286 -0.2014 -0.6168
27644SOL     OW87869   7.239   0.114   4.174  0.3285  0.8734  0.4842
27644SOL    HW187870   7.243   0.045   4.108 -1.8950 -0.5438  1.6946
27644SOL    HW287871   7.331   0.140   4.187  1.1131 -0.9046 -0.9895
27645SOL     OW87872   8.442   3.916   8.988  0.8787 -0.0306 -0.4475
27645SOL    HW187873   8.526   3.929   8.943  0.3877  0.9357 -1.1036
27645SOL    HW287874   8.406   4.004   8.998  0.2578 -0.3703  0.4725
27646SOL     OW87875   2.813   8.293   2.636  0.4373 -0.6120  0.1271
27646SOL    HW187876   2.769   8.331   2.560  1.7645 -0.7107 -0.7188
27646SOL    HW287877   2.768   8.332   2.712 -0.5743 -0.1326 -0.6967
27647SOL     OW87878   7.157   9.352   7.764  0.3113 -0.3349 -0.2291
27647SOL    HW187879   7.112   9.391   7.690  1.3514  0.0951 -0.6495
27647SOL    HW287880   7.131   9.260   7.762 -1.0891  0.0317 -0.0280
27648SOL     OW87881   2.800  11.479   0.148 -0.1944  0.1153  0.2140
27648SOL    HW187882   2.764  11.439   0.069  0.4168 -0.0063 -0.0110
27648SOL    HW287883   2.730  11.472   0.212 -0.4440 -0.4444 -0.1063
27649SOL     OW87884  11.221   0.931   1.271 -0.1024 -0.2314  0.2140
27649SOL    HW187885  11.169   0.945   1.192 -1.1414  0.9096  1.0694
27649SOL    HW287886  11.307   0.903   1.238 -0.3872  0.5849 -1.3278
27650SOL     OW87887   2.495   9.597   2.272  0.0411  0.1738  0.1058
27650SOL    HW187888   2.528   9.623   2.186  0.2092 -1.4223 -0.3324
27650SOL    HW287889   2.571   9.603   2.330 -0.3882  2.7259  0.5440
27651SOL     OW87890  11.420   6.525   9.432 -0.5584  0.5329  0.1065
27651SOL    HW187891  11.358   6.481   9.375 -1.3369 -1.3901  2.2623
27651SOL    HW287892  11.471   6.454   9.471  1.7615  1.9463 -0.1852
27652SOL     OW87893   3.589   0.548   8.661 -0.2147  0.4250  0.4689
27652SOL    HW187894   3.665   0.593   8.698 -0.9005  2.1719 -0.1442
27652SOL    HW287895   3.513   0.593   8.699 -0.9273  1.2749 -1.7846
27653SOL     OW87896   3.999   0.909   2.783  0.7315  0.5967 -0.6097
27653SOL    HW187897   3.965   0.997   2.769 -0.2169  0.3843  0.2379
27653SOL    HW287898   3.991   0.866   2.698  1.1082  1.2849 -1.0014
27654SOL     OW87899   7.337   6.172   4.292  0.0233  0.6546 -0.0199
27654SOL    HW187900   7.417   6.214   4.261  1.0016 -0.7359  0.5335
27654SOL    HW287901   7.266   6.225   4.255  1.1849  2.2902  0.0017
27655SOL     OW87902   9.372   5.918   0.100  0.0478  0.0434  0.3389
27655SOL    HW187903   9.325   5.886   0.023  0.9268  1.9204 -1.0576
27655SOL    HW287904   9.463   5.925   0.071  0.3936  0.7907  1.5498
27656SOL     OW87905   5.724   0.529   7.721  0.2088 -0.0929 -0.3618
27656SOL    HW187906   5.736   0.441   7.686  0.9591  0.4911 -1.6204
27656SOL    HW287907   5.777   0.531   7.801 -1.1544 -1.2929  0.6342
27657SOL     OW87908   2.166   4.788   8.006  0.2005 -0.2994  0.0486
27657SOL    HW187909   2.072   4.791   7.990  0.0577 -0.0727  0.9031
27657SOL    HW287910   2.175   4.792   8.101  1.0779 -0.2782 -0.0234
27658SOL     OW87911   5.839   5.942   0.586  1.0812 -0.5344 -0.4665
27658SOL    HW187912   5.768   5.941   0.521  1.3260  0.7098 -0.7791
27658SOL    HW287913   5.897   5.871   0.559 -0.4518 -2.1800  0.3024
27659SOL     OW87914   0.775   5.295   4.458 -0.6671 -0.2239  0.0320
27659SOL    HW187915   0.806   5.298   4.367 -3.1458 -3.1518 -1.0872
27659SOL    HW287916   0.819   5.219   4.496 -2.4837 -1.3565 -0.0097
27660SOL     OW87917   7.856   1.162   0.996  0.2801  0.3991  0.3326
27660SOL    HW187918   7.813   1.230   1.047 -1.2657  0.3706 -0.8590
27660SOL    HW287919   7.868   1.090   1.058 -1.5322  0.3673  0.7095
27661SOL     OW87920   8.091   5.743   1.540  0.3581 -0.2505  0.5685
27661SOL    HW187921   8.018   5.801   1.518 -0.0725 -0.4695  1.3663
27661SOL    HW287922   8.072   5.713   1.629  0.3343 -1.9920  0.0065
27662SOL     OW87923   8.056   3.826   1.858 -0.6215 -0.2398  0.3064
27662SOL    HW187924   8.052   3.732   1.845 -0.5428 -0.5118  2.0379
27662SOL    HW287925   8.013   3.841   1.942 -0.5256  1.2514  0.1204
27663SOL     OW87926  10.848   0.168  10.633 -0.4229  1.0274  0.2141
27663SOL    HW187927  10.872   0.095  10.690 -0.0084  0.4565 -0.6699
27663SOL    HW287928  10.789   0.129  10.568  0.5867  1.2425 -0.8608
27664SOL     OW87929   8.034  11.244   5.004 -0.4904 -0.3844  0.2138
27664SOL    HW187930   7.965  11.203   5.055  0.4253 -0.8600  1.1234
27664SOL    HW287931   8.004  11.333   4.988 -1.1231 -0.4574  0.9625
27665SOL     OW87932   6.578   0.180   7.261 -0.1976  0.4009  0.2744
27665SOL    HW187933   6.508   0.196   7.325  0.5897 -0.6019  1.4416
27665SOL    HW287934   6.595   0.266   7.222 -1.3825  0.8487  0.6806
27666SOL     OW87935   2.201   5.599   8.355 -0.3639  0.1335  0.3273
27666SOL    HW187936   2.216   5.576   8.447 -1.5043 -0.4246  0.3824
27666SOL    HW287937   2.269   5.550   8.307 -0.2948 -0.2399  0.7988
27667SOL     OW87938   6.855  11.496   4.618  0.1224 -0.0712 -0.4277
27667SOL    HW187939   6.776  11.455   4.655 -1.0561  3.1229  0.9444
27667SOL    HW287940   6.821  11.552   4.548  1.3309  0.4326 -0.6211
27668SOL     OW87941   4.307  11.662   2.183  0.4881 -0.4295 -0.4606
27668SOL    HW187942   4.323  11.713   2.262  1.5521 -0.7312 -0.4623
27668SOL    HW287943   4.222  11.692   2.152  1.3697  1.8901 -0.8603
27669SOL     OW87944   6.545   4.116  11.218  0.3805  0.0519  0.2025
27669SOL    HW187945   6.636   4.147  11.213  0.4191  0.1216  1.2195
27669SOL    HW287946   6.502   4.176  11.279 -0.0615 -0.6533  0.5989
27670SOL     OW87947  10.336   4.230   6.828 -0.7597 -0.2944  0.0275
27670SOL    HW187948  10.286   4.290   6.773  1.3264 -0.4372 -2.1707
27670SOL    HW287949  10.421   4.274   6.841 -1.4181  0.1803  4.0700
27671SOL     OW87950   2.586   7.036   1.511  0.1511 -0.4782 -0.0506
27671SOL    HW187951   2.517   7.061   1.572 -0.5747 -0.0211 -1.0189
27671SOL    HW287952   2.602   7.116   1.460  0.2294 -1.0420 -0.9269
27672SOL     OW87953   2.693   1.135   4.627  0.4258  0.1627  0.0881
27672SOL    HW187954   2.783   1.104   4.631  1.3242  2.1777 -1.8455
27672SOL    HW287955   2.696   1.223   4.666 -1.1708 -0.4812  1.8331
27673SOL     OW87956   2.445   1.014   8.331  0.5380 -0.3553  0.1226
27673SOL    HW187957   2.439   0.940   8.392 -0.3570 -1.4426 -1.2138
27673SOL    HW287958   2.367   1.005   8.276  0.6711  1.3275 -0.3833
27674SOL     OW87959   8.835   5.248   3.415 -0.1923 -0.4072  0.7743
27674SOL    HW187960   8.863   5.169   3.462  0.7415 -1.1181 -0.8823
27674SOL    HW287961   8.796   5.215   3.334  0.9896  0.8340 -0.3521
27675SOL     OW87962   0.019   0.704   0.230  0.1067  0.2772  0.2082
27675SOL    HW187963   0.012   0.622   0.279  2.3974  0.9771  1.9430
27675SOL    HW287964   0.107   0.735   0.251 -0.7826  3.3080 -0.1603
27676SOL     OW87965   1.535   5.131   8.257 -0.1375 -0.7534  0.4307
27676SOL    HW187966   1.485   5.078   8.195  1.3205 -1.1105 -0.4902
27676SOL    HW287967   1.508   5.098   8.343 -3.1500  0.6290  0.1252
27677SOL     OW87968   2.410   4.184   0.858 -0.4939 -0.1002  0.1542
27677SOL    HW187969   2.448   4.118   0.801  1.2233  0.6617  0.3377
27677SOL    HW287970   2.391   4.137   0.940  0.6582 -0.4080  0.2657
27678SOL     OW87971   6.115   6.713   1.016 -0.0820 -0.0739  0.0656
27678SOL    HW187972   6.190   6.700   0.958  0.2419  1.8123  0.0275
27678SOL    HW287973   6.041   6.728   0.957 -0.4015 -1.3367  0.1157
27679SOL     OW87974   4.228  11.600   7.525  0.1228  0.3827  0.1102
27679SOL    HW187975   4.291  11.538   7.487 -1.2287 -0.2657 -1.1829
27679SOL    HW287976   4.268  11.627   7.607  1.7453 -0.5696 -0.3154
27680SOL     OW87977   6.920   7.913  10.609 -0.2678  0.4686  0.0411
27680SOL    HW187978   6.900   7.840  10.667  2.0358 -0.0969  0.2122
27680SOL    HW287979   6.894   7.883  10.522 -0.7409  0.0558  0.3198
27681SOL     OW87980   5.717   3.864  10.671  0.5382 -0.1063  0.1183
27681SOL    HW187981   5.740   3.922  10.599  1.1662 -0.5023 -0.0018
27681SOL    HW287982   5.793   3.866  10.729  0.7079 -1.0766 -0.0558
27682SOL     OW87983  10.423   6.941   9.061 -0.0199  0.3332 -0.1533
27682SOL    HW187984  10.513   6.940   9.026  1.3088 -0.2792  2.9667
27682SOL    HW287985  10.410   7.032   9.089  0.8954 -0.1689  2.1382
27683SOL     OW87986   1.809   2.111   2.325  0.1736 -0.1124 -0.2081
27683SOL    HW187987   1.718   2.082   2.325  0.8130 -2.3146 -0.4907
27683SOL    HW287988   1.804   2.207   2.332 -2.0909 -0.2915  1.6552
27684SOL     OW87989   2.565   0.602   2.888 -0.5703 -0.3440  0.5397
27684SOL    HW187990   2.654   0.637   2.882 -0.6964 -0.1497 -0.4402
27684SOL    HW287991   2.551   0.588   2.981  0.6602 -0.8334  0.6697
27685SOL     OW87992   4.571   0.939  11.394  0.0508 -0.2683  0.2553
27685SOL    HW187993   4.659   0.975  11.407  1.6419 -1.9808 -3.8912
27685SOL    HW287994   4.567   0.864  11.453  1.4544 -0.2809  0.3695
27686SOL     OW87995   0.256   4.336   5.436 -0.6709  0.2297  0.4351
27686SOL    HW187996   0.258   4.298   5.348 -1.2480 -0.0888  0.5508
27686SOL    HW287997   0.260   4.261   5.495 -2.6051  0.2593  0.6648
27687SOL     OW87998   8.622   9.861   5.619  0.1450  0.1503  0.2550
27687SOL    HW187999   8.665   9.831   5.699  0.1124  0.1098  0.2580
27687SOL    HW288000   8.585   9.946   5.641  2.0486  1.1800 -0.3796
27688SOL     OW88001  10.167  11.466   9.554 -0.0556  0.4164 -0.3236
27688SOL    HW188002  10.075  11.488   9.547  0.0161  0.3899 -1.6092
27688SOL    HW288003  10.168  11.375   9.584 -0.4861 -0.0191 -1.5854
27689SOL     OW88004   4.863   9.577   5.751 -0.3678 -0.1339 -0.5990
27689SOL    HW188005   4.897   9.516   5.817  0.0617  1.5294  0.7859
27689SOL    HW288006   4.941   9.609   5.707 -0.5691 -0.3197 -1.0943
27690SOL     OW88007   0.546   7.649  10.658  0.5717 -0.4819 -0.9299
27690SOL    HW188008   0.555   7.579  10.593  1.4222 -0.9303 -0.3415
27690SOL    HW288009   0.595   7.618  10.734 -0.3670  0.0515 -0.0807
27691SOL     OW88010   6.930   5.453   9.706 -0.2164 -0.0074  0.0144
27691SOL    HW188011   6.901   5.536   9.670 -2.5122 -0.8233 -0.1907
27691SOL    HW288012   6.901   5.388   9.642  3.2296 -0.9273 -0.8347
27692SOL     OW88013   6.623   4.838   8.891 -0.0320 -0.3878 -0.0130
27692SOL    HW188014   6.608   4.926   8.857  1.7957 -0.4036 -0.9908
27692SOL    HW288015   6.545   4.818   8.942 -0.9906  1.3331 -0.7366
27693SOL     OW88016   6.730   9.813   7.594 -0.1525  0.1988 -0.5660
27693SOL    HW188017   6.724   9.902   7.628  1.1650  0.7460 -1.6772
27693SOL    HW288018   6.772   9.822   7.509  2.1820 -1.6531  0.2650
27694SOL     OW88019   7.046  10.334   6.453  0.0788  0.6414 -0.3331
27694SOL    HW188020   7.070  10.243   6.438  0.9755  0.9417 -0.7640
27694SOL    HW288021   6.954  10.331   6.477  0.3228 -0.4586  0.5037
27695SOL     OW88022   0.625   8.821   3.201  0.2899 -0.2123  0.3513
27695SOL    HW188023   0.637   8.859   3.114 -2.5766  0.0265 -0.0302
27695SOL    HW288024   0.564   8.749   3.188  1.4352 -1.5172  1.8899
27696SOL     OW88025   3.624   5.942   5.379 -0.1403 -0.0653  0.1138
27696SOL    HW188026   3.548   5.886   5.391 -0.1656 -0.4569 -1.5795
27696SOL    HW288027   3.636   5.947   5.284  1.9071  0.0287  0.3229
27697SOL     OW88028   4.956  10.439  10.820 -0.0661 -0.5352 -0.4384
27697SOL    HW188029   4.961  10.503  10.749  3.1623 -1.7156 -1.4537
27697SOL    HW288030   4.897  10.371  10.788 -0.3335 -0.0243 -1.0481
27698SOL     OW88031   8.773   1.871   5.208  0.1405  0.2870  0.3296
27698SOL    HW188032   8.753   1.794   5.154  0.2199  0.9148 -0.6038
27698SOL    HW288033   8.720   1.941   5.171  0.1477  0.7158  1.1128
27699SOL     OW88034   8.098  10.056   4.784 -0.0145  0.0294  0.0690
27699SOL    HW188035   8.048  10.126   4.744  0.9284  1.1613  0.8172
27699SOL    HW288036   8.189  10.086   4.783  0.3453 -0.9236  0.9088
27700SOL     OW88037   9.541   9.813   5.397  0.5876  0.1365  0.4302
27700SOL    HW188038   9.531   9.869   5.320 -0.5823 -0.9886 -0.2546
27700SOL    HW288039   9.634   9.789   5.397  0.6902  0.5007 -0.3667
27701SOL     OW88040   1.768   6.428   4.338  0.2594 -0.9639 -0.7947
27701SOL    HW188041   1.820   6.471   4.406  2.7191 -1.3358 -2.3236
27701SOL    HW288042   1.681   6.469   4.345  0.6683 -0.3382  1.9077
27702SOL     OW88043   2.345   0.177   7.965  0.0311 -0.1551 -0.3559
27702SOL    HW188044   2.302   0.105   7.918  1.4024 -0.2234 -1.5551
27702SOL    HW288045   2.413   0.208   7.906  1.4491  0.1618  1.3540
27703SOL     OW88046   9.132   4.789   3.587  0.3727  0.1457 -0.2141
27703SOL    HW188047   9.157   4.819   3.499 -1.1980  0.3645 -0.6261
27703SOL    HW288048   9.157   4.696   3.588 -0.9206 -0.2736 -1.4884
27704SOL     OW88049   6.371   7.404  10.093  0.2979 -0.1916 -0.4757
27704SOL    HW188050   6.340   7.341  10.028 -0.3141 -1.2932  0.8360
27704SOL    HW288051   6.292   7.438  10.134  0.6898 -0.6695  0.7311
27705SOL     OW88052   4.462   2.474   0.391 -0.0987 -0.1906 -0.0561
27705SOL    HW188053   4.488   2.566   0.390 -0.4838 -0.0722 -1.5548
27705SOL    HW288054   4.544   2.425   0.395  0.1725  0.2074 -0.6942
27706SOL     OW88055   3.704   9.454   7.017 -0.2285  0.4073 -0.3795
27706SOL    HW188056   3.656   9.491   7.091 -2.5553  1.2832 -2.2060
27706SOL    HW288057   3.771   9.519   6.997 -0.8219  1.0828 -0.2064
27707SOL     OW88058   0.325   7.333  11.211 -0.3914 -0.4734  0.4752
27707SOL    HW188059   0.301   7.259  11.266  0.9314 -1.2101  0.0934
27707SOL    HW288060   0.329   7.407  11.271 -0.2877 -1.0025  1.1395
27708SOL     OW88061   3.381  11.551  11.519  0.0657  0.4279 -0.0592
27708SOL    HW188062   3.457  11.573  11.465  1.3829  1.2528  2.0001
27708SOL    HW288063   3.317  11.619  11.499  0.2353  0.2909 -1.1024
27709SOL     OW88064   3.409  10.581  11.405 -0.4936 -0.2046 -0.8061
27709SOL    HW188065   3.388  10.543  11.491 -0.0577 -0.0542 -0.6305
27709SOL    HW288066   3.329  10.628  11.380 -0.2406  0.7178  0.0483
27710SOL     OW88067   6.456   4.165   5.407 -0.9122  0.1862  0.0368
27710SOL    HW188068   6.511   4.204   5.475 -0.8757  1.1515 -0.5212
27710SOL    HW288069   6.379   4.222   5.402 -2.3427 -1.5380  1.2853
27711SOL     OW88070   9.189   8.714   1.911  0.3294 -0.0754  0.5656
27711SOL    HW188071   9.224   8.625   1.912 -0.6641 -0.4765  1.4471
27711SOL    HW288072   9.233   8.758   1.984  0.4605  0.0087  0.4356
27712SOL     OW88073   3.139  11.422   4.357 -0.2537 -0.0570 -0.2438
27712SOL    HW188074   3.065  11.452   4.409  0.9149  0.1441  1.3921
27712SOL    HW288075   3.206  11.489   4.369  0.1058 -0.0550 -1.9580
27713SOL     OW88076   9.169   4.381   6.800  0.3314  0.0951  0.8810
27713SOL    HW188077   9.235   4.373   6.869  0.8722 -1.9875  0.1972
27713SOL    HW288078   9.145   4.474   6.800  1.9871  0.5716  2.3029
27714SOL     OW88079   2.432   0.034  11.310 -0.9924 -0.0058  0.0016
27714SOL    HW188080   2.441  -0.054  11.273 -1.7772  0.1397 -0.5634
27714SOL    HW288081   2.362   0.025  11.375 -2.1035  0.4855 -1.0755
27715SOL     OW88082  10.509   7.440  10.994  0.2813  0.0802 -0.3143
27715SOL    HW188083  10.589   7.486  10.971  0.3678 -0.1954 -0.5848
27715SOL    HW288084  10.499   7.375  10.925 -0.1097  0.0326 -0.2140
27716SOL     OW88085   9.670   3.333   9.523  0.4861  0.1267 -0.0227
27716SOL    HW188086   9.607   3.271   9.487  1.2633  0.0310 -1.2905
27716SOL    HW288087   9.619   3.413   9.538  0.1532  0.2172 -1.5138
27717SOL     OW88088   5.911   7.346   4.988  0.4382 -0.3767 -0.0035
27717SOL    HW188089   5.972   7.308   4.924  1.2440  0.0015  0.5259
27717SOL    HW288090   5.944   7.318   5.073 -1.0070 -1.4257  0.2428
27718SOL     OW88091   5.022   8.103  11.610 -0.1728  0.3324 -0.4929
27718SOL    HW188092   5.094   8.078  11.551 -0.0886 -1.7010  0.3833
27718SOL    HW288093   5.055   8.085  11.698 -1.2145  0.8531  0.0236
27719SOL     OW88094   6.555   6.210   6.691 -0.6128 -0.1183  0.1046
27719SOL    HW188095   6.581   6.218   6.599  0.9163  1.7650  0.6327
27719SOL    HW288096   6.590   6.289   6.732 -1.1618 -0.9782  2.3307
27720SOL     OW88097   5.323   8.348   9.554  0.1387 -0.0511  0.9318
27720SOL    HW188098   5.350   8.404   9.482  0.9177  0.1913  1.4005
27720SOL    HW288099   5.227   8.341   9.545  0.2757 -0.4606 -0.4179
27721SOL     OW88100  11.612   5.265   0.485 -0.0362  0.4023  0.1808
27721SOL    HW188101  11.639   5.212   0.560  0.6298  0.8845  0.2916
27721SOL    HW288102  11.693   5.304   0.453 -0.3275  0.2949 -0.7208
27722SOL     OW88103   0.745   0.401  10.113 -0.3415  0.2601 -0.3102
27722SOL    HW188104   0.682   0.460  10.071 -1.0319 -0.2139  0.0468
27722SOL    HW288105   0.830   0.442  10.097 -0.8050  1.3525 -0.0675
27723SOL     OW88106   9.310   7.206  11.652  0.4044  0.5221 -0.1509
27723SOL    HW188107   9.358   7.151  11.590 -0.6852 -0.4694 -0.1548
27723SOL    HW288108   9.282   7.281  11.600  0.4566  0.2538 -0.5772
27724SOL     OW88109   6.630   7.805   0.815  0.1532 -0.1802 -0.0670
27724SOL    HW188110   6.547   7.766   0.787 -0.6193  2.0091 -0.9879
27724SOL    HW288111   6.648   7.765   0.900 -1.6037 -1.0170 -0.0577
27725SOL     OW88112   2.762   5.425   8.928 -0.3299  0.4319  0.1265
27725SOL    HW188113   2.682   5.476   8.911 -1.2282 -0.7190  0.7470
27725SOL    HW288114   2.733   5.355   8.987  0.5646 -1.6031 -1.7241
27726SOL     OW88115   8.476   0.474  11.179 -0.2939  0.1879 -0.3023
27726SOL    HW188116   8.521   0.556  11.156 -0.4736 -0.1145 -1.8750
27726SOL    HW288117   8.402   0.470  11.118  0.2480 -1.5948 -0.9069
27727SOL     OW88118  11.300   5.862   2.803  0.1357  0.4548  0.4263
27727SOL    HW188119  11.392   5.838   2.815  0.2298  0.1011 -0.9135
27727SOL    HW288120  11.294   5.952   2.836  1.5435  1.4217 -1.7755
27728SOL     OW88121   3.131   2.739   4.990 -0.1910 -0.3473 -0.2239
27728SOL    HW188122   3.216   2.781   5.005  0.8481 -2.2496 -0.4713
27728SOL    HW288123   3.152   2.646   4.981 -2.6312 -1.4113  3.0885
27729SOL     OW88124  10.423   5.497   1.119  0.8183  0.6743 -0.0503
27729SOL    HW188125  10.473   5.523   1.196 -0.5518  1.7515  0.5309
27729SOL    HW288126  10.332   5.516   1.142  0.1870 -0.7117 -1.2599
27730SOL     OW88127   5.476   4.486   1.235 -0.8553 -0.1063  0.0626
27730SOL    HW188128   5.478   4.529   1.149 -0.1636  1.5086  0.8539
27730SOL    HW288129   5.552   4.428   1.234 -2.3460 -2.1923 -1.3866
27731SOL     OW88130   3.445   4.167   1.207 -0.2605 -0.0474 -0.0164
27731SOL    HW188131   3.520   4.224   1.229 -0.9630  0.4143  1.2940
27731SOL    HW288132   3.470   4.127   1.124  0.8939  1.0735 -0.2564
27732SOL     OW88133   2.140   1.303   8.021 -0.5146  0.4781  0.3718
27732SOL    HW188134   2.178   1.257   7.946 -1.2023 -0.1190  0.3832
27732SOL    HW288135   2.149   1.396   7.999  0.4163  0.3400  0.1139
27733SOL     OW88136   5.450   0.376  10.956  0.0295  0.5083  0.3814
27733SOL    HW188137   5.385   0.320  10.912  0.5079  0.2239  0.0238
27733SOL    HW288138   5.534   0.343  10.925  0.3236  1.3696  0.2354
27734SOL     OW88139   8.273   2.878   1.860  0.1130  0.4862  0.0716
27734SOL    HW188140   8.248   2.882   1.952 -1.0126 -0.5968 -0.1560
27734SOL    HW288141   8.313   2.963   1.841 -1.9603  1.7019  0.8886
27735SOL     OW88142   1.827   8.177  10.989 -0.1879  0.4420  1.1066
27735SOL    HW188143   1.919   8.179  10.964 -0.2292 -1.4675  0.6492
27735SOL    HW288144   1.780   8.201  10.909 -0.1533 -1.3451  0.5070
27736SOL     OW88145   1.876   9.569   6.065  0.2353 -0.4596 -0.1968
27736SOL    HW188146   1.877   9.539   6.156 -2.5585 -0.0104  0.0551
27736SOL    HW288147   1.932   9.647   6.065 -0.7427  0.2972  1.4485
27737SOL     OW88148   4.185  11.658  10.323  0.5962 -0.7661 -0.1692
27737SOL    HW188149   4.197  11.632  10.232  0.5393  0.4597 -0.5513
27737SOL    HW288150   4.183  11.754  10.320 -0.4088 -0.7280  0.9947
27738SOL     OW88151   8.623   3.689   4.398  0.6156 -0.0496  0.4070
27738SOL    HW188152   8.576   3.738   4.465 -2.5901 -1.3240 -0.6854
27738SOL    HW288153   8.713   3.683   4.430 -0.5711  0.0423  4.1972
27739SOL     OW88154   7.861   4.752   9.821 -0.2007  0.5606  0.3327
27739SOL    HW188155   7.926   4.744   9.891 -0.5406  1.2061  0.7340
27739SOL    HW288156   7.777   4.746   9.865 -0.4474  2.4113  0.2097
27740SOL     OW88157  11.566   4.789   7.854  0.8341 -0.2780 -0.6003
27740SOL    HW188158  11.644   4.797   7.908 -0.0201  0.1464  0.6247
27740SOL    HW288159  11.567   4.867   7.798  0.4916  0.5651  0.5223
27741SOL     OW88160  11.039   7.944   7.779  0.0898 -0.0186  0.0888
27741SOL    HW188161  11.064   8.015   7.837  0.9893  0.3987 -0.7859
27741SOL    HW288162  11.008   7.875   7.837  0.8870  0.4243  1.0590
27742SOL     OW88163   4.584   8.709   1.642  0.5608  0.0330  0.2085
27742SOL    HW188164   4.513   8.747   1.591 -1.1366  0.8157  2.9365
27742SOL    HW288165   4.663   8.753   1.611 -0.2749  0.0389 -2.0594
27743SOL     OW88166   0.558   8.780   6.252 -0.2623 -0.8087  0.1103
27743SOL    HW188167   0.579   8.872   6.268 -0.4167 -0.6938 -0.3388
27743SOL    HW288168   0.512   8.780   6.168  1.4150 -1.5170 -0.8483
27744SOL     OW88169  10.210   0.672   0.282 -0.2182 -0.3285 -0.2396
27744SOL    HW188170  10.169   0.589   0.306 -1.1558  0.0752 -0.4290
27744SOL    HW288171  10.151   0.740   0.316  1.3116  0.3104  1.3189
27745SOL     OW88172   6.407   9.690   2.873  0.2304  0.5586 -0.1792
27745SOL    HW188173   6.480   9.635   2.846  2.7738  1.8957  3.1686
27745SOL    HW288174   6.445   9.778   2.882 -2.2461  1.6834  0.0825
27746SOL     OW88175   8.808   9.362   7.837 -0.0402  0.5790 -0.4031
27746SOL    HW188176   8.861   9.442   7.830  0.4009  0.2758 -0.5778
27746SOL    HW288177   8.736   9.387   7.894 -0.1531  1.2309 -0.8167
27747SOL     OW88178   9.396   2.050   9.348  0.1200 -0.3062 -0.1776
27747SOL    HW188179   9.441   2.046   9.264  0.4479  1.2140 -0.1089
27747SOL    HW288180   9.339   2.127   9.340  1.6207  1.0799  1.6529
27748SOL     OW88181   7.577   0.742   2.063  0.3171  0.1190  0.4325
27748SOL    HW188182   7.574   0.763   2.157 -1.0818  1.7358  0.0616
27748SOL    HW288183   7.486   0.746   2.034  0.6297 -1.2016 -0.8474
27749SOL     OW88184   3.704   8.089   2.871  0.5306  0.3899 -0.0403
27749SOL    HW188185   3.754   8.132   2.801  1.1000  0.0405  0.1398
27749SOL    HW288186   3.617   8.075   2.833 -0.0334  2.6994  0.2901
27750SOL     OW88187   2.309  10.080   8.277  0.4204 -0.1956 -0.3256
27750SOL    HW188188   2.240  10.133   8.238 -1.5777  0.0122  3.0568
27750SOL    HW288189   2.346  10.136   8.346 -1.0663 -2.6023  2.6826
27751SOL     OW88190   3.262  10.063   1.587 -0.4852 -0.4685 -0.0035
27751SOL    HW188191   3.181  10.084   1.634  0.6749  0.4290  1.6929
27751SOL    HW288192   3.297  10.148   1.561  0.0966 -0.8328 -0.4249
27752SOL     OW88193   8.626   7.490  10.802 -0.1745 -0.6465  0.5401
27752SOL    HW188194   8.713   7.494  10.762 -0.4156 -0.4327  0.0257
27752SOL    HW288195   8.609   7.580  10.830 -0.4681 -0.5670  0.1158
27753SOL     OW88196   2.230   2.039   6.569  0.4071 -0.4279 -0.3584
27753SOL    HW188197   2.174   2.017   6.643 -0.5974 -0.0819 -0.9870
27753SOL    HW288198   2.240   2.134   6.575  0.9887 -0.4960 -0.2145
27754SOL     OW88199   6.019   6.606   6.564  0.0465 -0.1538  0.5184
27754SOL    HW188200   5.953   6.588   6.497 -1.5990  1.1080  1.7278
27754SOL    HW288201   6.056   6.520   6.584 -0.5934 -0.7750 -0.8071
27755SOL     OW88202   5.417   8.612   6.485  0.2306 -0.1084  0.4246
27755SOL    HW188203   5.427   8.572   6.571  0.3019  1.7072  1.3143
27755SOL    HW288204   5.326   8.598   6.461 -0.0070  0.1045  1.1969
27756SOL     OW88205   4.193   5.279   4.940  0.0911  0.0405 -0.1257
27756SOL    HW188206   4.171   5.207   4.881 -0.5840 -0.2120  0.4250
27756SOL    HW288207   4.286   5.267   4.958  0.0208 -0.6022 -0.1651
27757SOL     OW88208   1.086   4.688   4.997  0.5271 -0.0509  0.4922
27757SOL    HW188209   1.011   4.630   5.006 -0.9587  1.9277  1.5088
27757SOL    HW288210   1.146   4.662   5.066 -0.1089 -0.4095  0.9117
27758SOL     OW88211   5.997   8.607   5.563  0.1774 -0.0169 -0.1617
27758SOL    HW188212   6.023   8.521   5.528  0.4392 -0.3495  0.8260
27758SOL    HW288213   6.006   8.598   5.658 -2.0320  0.3723  0.1331
27759SOL     OW88214  11.125   7.893   8.213 -0.2909  0.2253 -0.0171
27759SOL    HW188215  11.191   7.933   8.157 -1.7208  0.6459 -1.4935
27759SOL    HW288216  11.068   7.845   8.152 -1.7558  0.4788  1.1100
27760SOL     OW88217   8.672   5.373   9.770  0.4616  0.3838 -0.3313
27760SOL    HW188218   8.688   5.463   9.742 -0.5947  1.1400  1.3580
27760SOL    HW288219   8.591   5.377   9.820  0.1235 -1.6108 -0.6399
27761SOL     OW88220   5.462  10.050   3.899  0.4606  0.0389  0.6466
27761SOL    HW188221   5.430  10.048   3.808 -0.3041 -0.9278  0.9116
27761SOL    HW288222   5.534  10.113   3.898  0.8953 -0.4349 -0.7744
27762SOL     OW88223   1.468  10.572  10.769 -0.6418 -0.3739  0.6040
27762SOL    HW188224   1.461  10.521  10.689 -0.0883 -0.3190  0.5173
27762SOL    HW288225   1.505  10.512  10.833 -1.0290 -0.4018  0.8066
27763SOL     OW88226   3.521   2.585   1.690  0.5534  0.0856  0.0311
27763SOL    HW188227   3.481   2.501   1.671  1.9625 -0.1730 -2.1923
27763SOL    HW288228   3.451   2.649   1.676 -0.4023 -0.6476  1.2957
27764SOL     OW88229  11.335   3.656   3.806  0.1065  0.0309 -0.3389
27764SOL    HW188230  11.430   3.670   3.806 -0.1986  2.7376  0.4877
27764SOL    HW288231  11.322   3.581   3.748  2.9051 -2.0542  1.5069
27765SOL     OW88232   3.342   2.777   1.570  0.3508  0.4235  0.4359
27765SOL    HW188233   3.268   2.782   1.630  0.1474  0.9273  0.1458
27765SOL    HW288234   3.393   2.857   1.587  0.1871  0.6735 -0.1879
27766SOL     OW88235   9.692  11.246   4.197  0.1408 -0.2262 -0.3289
27766SOL    HW188236   9.699  11.284   4.109  1.4962 -2.5516 -1.3235
27766SOL    HW288237   9.674  11.154   4.182  1.5932 -0.9390  1.8104
27767SOL     OW88238   3.364   7.527   6.889  0.3279 -0.0751  0.1822
27767SOL    HW188239   3.375   7.432   6.886  0.1951 -0.0716 -1.4259
27767SOL    HW288240   3.435   7.561   6.834  0.2996  0.7539  0.6420
27768SOL     OW88241   1.833   4.977   9.630  0.2954  0.2603 -0.5300
27768SOL    HW188242   1.901   4.917   9.660 -0.0263  0.4425  0.6183
27768SOL    HW288243   1.764   4.919   9.597  0.4740  0.0352 -0.5127
27769SOL     OW88244   1.443   7.690   5.050  0.1076  0.2660 -0.0755
27769SOL    HW188245   1.378   7.624   5.028 -2.0350  1.7172  1.4030
27769SOL    HW288246   1.428   7.760   4.986  0.8775  0.2284 -0.3042
27770SOL     OW88247   4.069   2.318   3.972  0.2824  0.0293 -0.3102
27770SOL    HW188248   3.993   2.375   3.964 -0.6355 -1.2024 -0.5393
27770SOL    HW288249   4.070   2.268   3.891  0.8483 -0.5589  0.0543
27771SOL     OW88250   1.377   0.517   1.422  0.4141 -0.6784 -0.4090
27771SOL    HW188251   1.382   0.489   1.330  0.8375  0.3243 -0.7107
27771SOL    HW288252   1.360   0.437   1.471  0.3767 -1.2600 -1.3476
27772SOL     OW88253   4.653   6.737   0.433 -0.2656  0.5173  0.2872
27772SOL    HW188254   4.621   6.824   0.458 -2.0874  0.5463 -1.7679
27772SOL    HW288255   4.577   6.695   0.392  0.8570 -1.6684  0.2932
27773SOL     OW88256   1.707   7.597   4.932  0.3983  0.0175 -0.4837
27773SOL    HW188257   1.658   7.641   5.001 -0.9645  0.1643 -1.4885
27773SOL    HW288258   1.794   7.583   4.969  0.4584  2.2635  0.3871
27774SOL     OW88259   5.072   6.929   4.330 -0.7571 -0.0759 -0.1674
27774SOL    HW188260   5.002   6.867   4.317 -1.3726  0.8437 -1.4224
27774SOL    HW288261   5.030   7.005   4.372 -0.3647  0.1848 -0.2354
27775SOL     OW88262  11.408   7.561   9.500  0.4099 -0.3830  0.7885
27775SOL    HW188263  11.382   7.521   9.417  1.8519 -2.8146  1.3970
27775SOL    HW288264  11.340   7.535   9.562 -1.6088  2.8593  0.1792
27776SOL     OW88265   1.654   4.518   7.661  1.2376  0.3515 -0.2692
27776SOL    HW188266   1.590   4.539   7.593  1.3807 -0.8563 -0.7914
27776SOL    HW288267   1.608   4.536   7.743 -0.4051 -2.0160 -0.5594
27777SOL     OW88268   4.295   3.557   1.122  0.0162 -0.7407  0.2430
27777SOL    HW188269   4.241   3.590   1.050 -0.2267  0.0546  0.7805
27777SOL    HW288270   4.291   3.626   1.188  0.9171 -1.0954  0.6794
27778SOL     OW88271  11.618   4.309   5.704 -0.1297 -0.0827  0.0469
27778SOL    HW188272  11.708   4.287   5.731 -0.2372 -0.5341  0.0430
27778SOL    HW288273  11.598   4.389   5.753 -0.2040 -0.7143  1.0727
27779SOL     OW88274   9.295   3.174   8.114  0.0897  0.9310  0.2455
27779SOL    HW188275   9.360   3.110   8.143 -1.1117  0.1294  1.2964
27779SOL    HW288276   9.267   3.218   8.195 -2.8794 -0.8948  0.3376
27780SOL     OW88277   2.894   7.151  10.980  0.3113 -0.0111 -0.2575
27780SOL    HW188278   2.948   7.212  10.930 -0.1149 -0.6241 -1.5078
27780SOL    HW288279   2.821   7.131  10.922 -0.7835  0.0762  1.0326
27781SOL     OW88280   3.211   6.210   5.357 -0.6166  0.0875  0.0912
27781SOL    HW188281   3.231   6.145   5.424 -1.4438 -1.8274 -1.4349
27781SOL    HW288282   3.296   6.230   5.318 -0.6148 -2.1524 -1.1997
27782SOL     OW88283   6.487   4.293   0.502  0.0437 -0.3026 -0.2119
27782SOL    HW188284   6.411   4.297   0.560  0.4951 -0.7449  0.4384
27782SOL    HW288285   6.524   4.381   0.505 -0.0253 -0.2813  0.0667
27783SOL     OW88286   0.036   3.337   1.483 -0.3169  0.5982  0.0839
27783SOL    HW188287   0.068   3.360   1.570 -1.4665  1.2253  0.3683
27783SOL    HW288288   0.113   3.309   1.435  1.1587  4.4018 -0.0937
27784SOL     OW88289   5.922   3.638   1.560  0.3817  0.4983  0.1419
27784SOL    HW188290   5.894   3.729   1.571  1.0737  0.6143  1.0418
27784SOL    HW288291   5.994   3.628   1.622  1.7928 -0.0270 -1.5059
27785SOL     OW88292   6.370   4.980   7.545  0.6987 -0.1831 -0.5403
27785SOL    HW188293   6.330   4.893   7.542  0.6931 -0.2050  0.0674
27785SOL    HW288294   6.353   5.011   7.634  1.7382 -0.0482 -0.3815
27786SOL     OW88295   1.993   0.850   2.265  0.2775 -0.3972  0.3062
27786SOL    HW188296   1.968   0.837   2.173 -1.0282  0.2680  0.5378
27786SOL    HW288297   2.070   0.906   2.261  0.0754 -0.1553 -0.3950
27787SOL     OW88298   1.247   6.027   7.968  0.1557 -0.0128 -0.1213
27787SOL    HW188299   1.263   6.011   8.061 -0.6216 -1.2762 -0.1649
27787SOL    HW288300   1.233   5.939   7.932  0.7000  0.4457 -1.4798
27788SOL     OW88301   2.697   8.576  10.503 -0.0893  0.6723  0.0589
27788SOL    HW188302   2.641   8.501  10.521 -1.8782  1.8250 -0.4790
27788SOL    HW288303   2.692   8.630  10.581 -0.0042  0.9516 -0.1250
27789SOL     OW88304   2.876   8.256   5.115 -0.1074  0.4295  0.0980
27789SOL    HW188305   2.956   8.309   5.119 -0.7941  1.4403  1.4206
27789SOL    HW288306   2.815   8.310   5.066 -0.1652 -0.0953 -0.4148
27790SOL     OW88307   1.768   7.309   2.529  0.1520 -0.5565 -0.1512
27790SOL    HW188308   1.825   7.290   2.455 -0.7926  0.0755 -1.0760
27790SOL    HW288309   1.733   7.224   2.556  1.3773 -0.9251  0.3237
27791SOL     OW88310   7.994  10.322   6.523  0.1415  0.4513 -0.0960
27791SOL    HW188311   8.061  10.255   6.511 -3.0264 -2.8261 -1.4599
27791SOL    HW288312   8.017  10.365   6.605  1.4447 -3.6832  1.9832
27792SOL     OW88313   1.555   1.825   9.329  0.1623 -0.0413 -0.3326
27792SOL    HW188314   1.626   1.885   9.307  0.6693 -0.6393 -0.3690
27792SOL    HW288315   1.566   1.751   9.269  0.8431 -1.1407  1.0864
27793SOL     OW88316   0.560   0.176   0.022 -0.4081  0.1656  0.2194
27793SOL    HW188317   0.598   0.230  -0.047  0.5038  0.4506  0.9230
27793SOL    HW288318   0.604   0.091   0.012  0.1231  0.3671  0.7675
27794SOL     OW88319   2.216   0.731   6.276  0.1345 -1.0026  0.3154
27794SOL    HW188320   2.167   0.765   6.202 -0.5487 -0.8960  0.8040
27794SOL    HW288321   2.164   0.755   6.353  1.8090  0.6838  1.0159
27795SOL     OW88322   7.193   3.144   0.621 -0.4256 -0.1419 -0.4602
27795SOL    HW188323   7.205   3.194   0.540  0.9927  0.2597 -0.0433
27795SOL    HW288324   7.182   3.211   0.689 -0.3983 -0.4339 -0.1638
27796SOL     OW88325   3.627   4.496   5.809  0.3299 -0.2852  0.0356
27796SOL    HW188326   3.536   4.510   5.838  0.2228  0.2560 -0.5302
27796SOL    HW288327   3.663   4.585   5.803  0.8124 -0.4851 -0.0236
27797SOL     OW88328   3.414   4.207   9.239  0.2975  0.1805 -0.3187
27797SOL    HW188329   3.375   4.149   9.173  0.6768  0.3142 -0.6584
27797SOL    HW288330   3.430   4.289   9.193  0.0337  0.4655  0.0895
27798SOL     OW88331   3.541   8.616   6.524 -0.8180  0.0682  0.0269
27798SOL    HW188332   3.467   8.560   6.500  0.2348 -0.5676 -1.9943
27798SOL    HW288333   3.521   8.700   6.484 -0.4826 -0.1016 -0.5143
27799SOL     OW88334   3.121   0.833  10.399 -0.4278 -0.1466 -0.4908
27799SOL    HW188335   3.056   0.868  10.459  2.1368  1.7148  1.4484
27799SOL    HW288336   3.164   0.910  10.361  2.6130 -1.1107  0.6681
27800SOL     OW88337   4.097   8.519   0.692  0.6057  0.0927  0.2440
27800SOL    HW188338   4.093   8.493   0.600 -0.0320  0.4446  0.1642
27800SOL    HW288339   4.099   8.436   0.741  0.0450 -0.1094 -0.0610
27801SOL     OW88340   3.359   1.947   5.962 -0.2782  0.2712 -0.6139
27801SOL    HW188341   3.333   1.877   5.902  0.0524  0.3941 -0.9056
27801SOL    HW288342   3.400   2.013   5.905 -1.4090  1.1245 -0.4836
27802SOL     OW88343   9.584   9.164   2.312  0.3398  0.1934  0.5128
27802SOL    HW188344   9.547   9.194   2.396  0.6475  2.3673 -0.0680
27802SOL    HW288345   9.613   9.244   2.269  1.5000 -1.0290 -1.0766
27803SOL     OW88346   1.408   3.167  11.463  0.0933 -0.0904 -0.5342
27803SOL    HW188347   1.486   3.121  11.433 -0.0085 -0.5365 -0.1207
27803SOL    HW288348   1.439   3.226  11.532  0.1184 -0.0068 -0.6161
27804SOL     OW88349   7.491   7.693   9.509  0.6968 -0.5325 -0.5408
27804SOL    HW188350   7.436   7.723   9.581  0.8832 -1.5856  0.0513
27804SOL    HW288351   7.452   7.733   9.431  1.0286  1.3647  0.2042
27805SOL     OW88352   2.461   2.729  11.221  0.0580  0.5837 -0.1814
27805SOL    HW188353   2.458   2.800  11.285  0.0931  0.5868 -0.1830
27805SOL    HW288354   2.508   2.659  11.264 -2.1045 -0.3887  0.7590
27806SOL     OW88355   3.900  10.803   5.737 -0.0655 -1.1210  0.2527
27806SOL    HW188356   3.902  10.864   5.811  1.6242  0.1888 -0.8042
27806SOL    HW288357   3.832  10.839   5.679  0.5440 -0.5209 -0.1079
27807SOL     OW88358  10.478   1.051   9.713 -0.2961  0.0166 -0.3092
27807SOL    HW188359  10.571   1.052   9.734 -0.1744 -1.0825 -0.7284
27807SOL    HW288360  10.466   0.973   9.659 -1.8548 -1.1736  1.6154
27808SOL     OW88361   1.169   9.670   7.153  0.1044 -0.1258 -0.0837
27808SOL    HW188362   1.256   9.711   7.157 -0.5922  1.3985  0.4198
27808SOL    HW288363   1.159   9.642   7.063  1.9735 -2.3479  0.3090
27809SOL     OW88364   8.949   6.480   2.324 -0.4076  0.1152  0.0736
27809SOL    HW188365   8.956   6.410   2.388 -0.7661 -0.8866 -0.9605
27809SOL    HW288366   8.885   6.540   2.361 -1.8902 -1.3072 -0.0858
27810SOL     OW88367   0.664   2.035   1.818 -0.1286  0.7292  0.7031
27810SOL    HW188368   0.705   2.053   1.902 -0.5559  0.0799  1.0601
27810SOL    HW288369   0.735   2.000   1.764  0.5369  2.6732  0.2354
27811SOL     OW88370   9.911   0.369  11.351  0.2286 -0.6652 -0.2272
27811SOL    HW188371   9.818   0.391  11.347  0.3998  0.0037 -0.6833
27811SOL    HW288372   9.940   0.403  11.435  0.4737  0.8561 -0.8873
27812SOL     OW88373   5.037   8.224   3.617  0.2295 -0.3930 -0.1863
27812SOL    HW188374   5.123   8.220   3.575  0.4080  0.6518  0.0397
27812SOL    HW288375   5.056   8.207   3.710  0.2077 -0.1702 -0.1381
27813SOL     OW88376   6.504   9.379   2.421  0.0739  0.3588  0.4339
27813SOL    HW188377   6.542   9.461   2.390 -0.4717  0.9649  1.3208
27813SOL    HW288378   6.409   9.394   2.418 -0.0421 -0.3452  0.3344
27814SOL     OW88379   3.334   3.074   7.878  0.2569 -0.2207  0.4011
27814SOL    HW188380   3.375   3.013   7.939  2.4469  0.9556  0.2169
27814SOL    HW288381   3.272   3.124   7.931 -2.0735 -2.9327  0.4204
27815SOL     OW88382   5.993  11.133   3.913  0.3093 -0.2244 -0.2703
27815SOL    HW188383   6.058  11.194   3.878  0.6090  0.9634  2.1893
27815SOL    HW288384   5.910  11.161   3.873  0.9751 -0.6069 -2.0124
27816SOL     OW88385   4.891   4.133   9.403 -0.2096  0.4044 -0.0492
27816SOL    HW188386   4.907   4.109   9.495 -0.1796  1.1132  0.1424
27816SOL    HW288387   4.829   4.068   9.372  0.0602 -0.0628  0.3689
27817SOL     OW88388  11.304   2.836   4.877 -0.1833 -0.4474 -0.2239
27817SOL    HW188389  11.380   2.889   4.902 -0.2434 -0.9650  1.1457
27817SOL    HW288390  11.241   2.899   4.842  0.5781  0.0809 -0.6693
27818SOL     OW88391   5.765   8.500   3.485 -0.5792 -0.2817 -0.0422
27818SOL    HW188392   5.715   8.574   3.450  1.1365  1.6436  1.2972
27818SOL    HW288393   5.748   8.501   3.579  0.0406 -1.1431  0.0934
27819SOL     OW88394   4.511   5.415  11.249 -0.1073  0.3706  0.1744
27819SOL    HW188395   4.576   5.363  11.202 -1.7698 -1.1200 -0.5918
27819SOL    HW288396   4.560   5.489  11.285  1.8033 -0.1614 -1.2117
27820SOL     OW88397   9.262   8.965   4.889  0.0198 -0.2866  0.7299
27820SOL    HW188398   9.269   8.895   4.825 -0.4925 -0.9144  1.3414
27820SOL    HW288399   9.207   9.031   4.846  1.0959  0.0708 -0.1179
27821SOL     OW88400   6.006   0.396   7.540 -1.0341  0.2856 -0.1889
27821SOL    HW188401   6.089   0.414   7.496 -0.4961 -0.8373  0.3102
27821SOL    HW288402   6.011   0.444   7.622 -1.0767  0.5974 -0.3691
27822SOL     OW88403   6.177   2.457   4.132  0.2988  0.6427  0.3892
27822SOL    HW188404   6.091   2.460   4.175  0.0613  1.0184 -0.0994
27822SOL    HW288405   6.158   2.435   4.041  0.7472  0.4293  0.3461
27823SOL     OW88406   2.118   3.601   4.944  0.0093 -0.2764  0.1718
27823SOL    HW188407   2.135   3.561   4.858  1.5032 -0.0716  0.3341
27823SOL    HW288408   2.105   3.527   5.003 -2.2708 -0.4023 -0.4298
27824SOL     OW88409   3.427   3.752   6.085  0.1767  0.1481 -0.0079
27824SOL    HW188410   3.521   3.743   6.069  0.4372  2.5772 -0.1505
27824SOL    HW288411   3.395   3.804   6.012 -1.0598  0.3869  0.6822
27825SOL     OW88412   6.251   3.556  10.910  0.5293  0.1756 -1.0070
27825SOL    HW188413   6.318   3.620  10.885  0.8679  0.2071 -0.0442
27825SOL    HW288414   6.169   3.604  10.905  0.7725  0.6676 -0.3945
27826SOL     OW88415   9.483   2.103   3.033  0.0177 -0.4500 -0.2522
27826SOL    HW188416   9.516   2.031   3.087  0.5481 -1.2497 -1.5903
27826SOL    HW288417   9.558   2.162   3.025 -0.4962  0.4223  1.0680
27827SOL     OW88418   9.128   4.553   0.251  0.1456 -0.5046  0.2291
27827SOL    HW188419   9.069   4.605   0.306  0.2267  0.5725 -0.6568
27827SOL    HW288420   9.082   4.471   0.236 -0.7094 -0.0599  0.3550
27828SOL     OW88421   7.938  10.602  11.452  0.3220  0.2897 -0.3690
27828SOL    HW188422   7.888  10.652  11.387 -0.9225 -0.6456 -0.1703
27828SOL    HW288423   7.979  10.531  11.402  1.9713  1.3782 -0.6277
27829SOL     OW88424   9.918  11.130   9.780  0.1317 -0.4301  0.4785
27829SOL    HW188425   9.842  11.189   9.776  0.6302  0.2439  0.7493
27829SOL    HW288426   9.914  11.081   9.698 -1.2786 -1.2799  1.0110
27830SOL     OW88427   4.145   5.276   7.426 -0.7624  0.4504  0.4960
27830SOL    HW188428   4.162   5.250   7.517 -1.1037 -1.4233  0.0608
27830SOL    HW288429   4.231   5.270   7.383 -0.5941  1.3721  0.6824
27831SOL     OW88430   9.402   6.322   4.056  0.3621  0.4878 -0.2765
27831SOL    HW188431   9.376   6.292   3.969  0.0213  0.7430 -0.2625
27831SOL    HW288432   9.421   6.415   4.046  1.9750  0.1738 -0.4418
27832SOL     OW88433   9.500   4.005   4.929 -0.1678  0.2783  0.5864
27832SOL    HW188434   9.433   4.056   4.973  1.6887  0.3356  3.6596
27832SOL    HW288435   9.577   4.063   4.927  0.5461 -0.6535 -0.4645
27833SOL     OW88436   4.060   1.560   8.198  0.6232  0.3486  0.2180
27833SOL    HW188437   4.096   1.623   8.261  2.0614 -1.6041  1.4640
27833SOL    HW288438   4.129   1.548   8.133  1.0384 -1.0317  0.8564
27834SOL     OW88439   1.366  10.857   0.644 -0.5383 -0.1161  0.3975
27834SOL    HW188440   1.271  10.848   0.635 -0.2231 -1.7126 -2.0859
27834SOL    HW288441   1.388  10.797   0.715 -1.1907 -1.2890 -0.3540
27835SOL     OW88442   1.355   7.147   2.089 -0.5620  0.4052  0.2681
27835SOL    HW188443   1.353   7.230   2.041 -0.5696 -0.2920 -0.9613
27835SOL    HW288444   1.266   7.135   2.121 -0.8496  0.3177 -0.5434
27836SOL     OW88445   0.963   2.749   4.912  0.8821 -0.1701 -0.1352
27836SOL    HW188446   0.897   2.687   4.881  0.2906  0.6551 -0.6050
27836SOL    HW288447   1.001   2.709   4.989  0.0472 -0.8125 -0.0478
27837SOL     OW88448   7.584   2.374   3.317 -0.1327  0.3857  0.5688
27837SOL    HW188449   7.577   2.424   3.236  0.6958 -0.5892 -0.1194
27837SOL    HW288450   7.579   2.440   3.386 -0.2173  1.2959 -0.2824
27838SOL     OW88451   7.951   8.414  11.031  0.1830  0.2110  0.1723
27838SOL    HW188452   8.042   8.385  11.032 -0.6100 -2.5791  0.7616
27838SOL    HW288453   7.915   8.377  10.951 -0.8151 -0.1526  0.7691
27839SOL     OW88454   7.209   3.953  10.619 -0.3160 -0.0860  0.3318
27839SOL    HW188455   7.304   3.941  10.624 -0.3095  0.4152  2.0948
27839SOL    HW288456   7.196   4.038  10.577 -0.1310 -1.5349 -2.9833
27840SOL     OW88457   0.266  10.225   2.870  0.6109  0.5858  0.2030
27840SOL    HW188458   0.350  10.257   2.836  1.7671 -1.8106  0.6053
27840SOL    HW288459   0.200  10.275   2.821  2.2479  0.7609 -1.9780
27841SOL     OW88460   8.408   1.208  11.517  1.0293  0.9513  0.4877
27841SOL    HW188461   8.374   1.133  11.567 -0.9190  1.7231  0.4038
27841SOL    HW288462   8.417   1.175  11.428  1.5740  0.4302  0.7250
27842SOL     OW88463   9.435   1.035  10.894 -0.9419 -0.0376 -0.8778
27842SOL    HW188464   9.349   0.999  10.915 -0.1794 -1.7013 -0.4050
27842SOL    HW288465   9.487   1.022  10.973 -0.2367  0.9625 -1.1458
27843SOL     OW88466   6.277   4.179   1.641  0.0934 -0.4014  0.5659
27843SOL    HW188467   6.308   4.269   1.632 -0.7413 -0.3253 -2.3328
27843SOL    HW288468   6.356   4.126   1.630  0.5037 -0.0675  1.7710
27844SOL     OW88469  10.625   9.533   8.378  0.2221  0.0515 -0.5622
27844SOL    HW188470  10.569   9.557   8.451  0.0020  1.0824 -1.0559
27844SOL    HW288471  10.601   9.442   8.359 -1.8908  0.7052 -1.2688
27845SOL     OW88472   4.786   7.577   7.554 -0.1966  0.2321 -0.1223
27845SOL    HW188473   4.853   7.568   7.621 -0.9974  0.1431  0.6808
27845SOL    HW288474   4.703   7.570   7.601 -0.7750 -0.4357 -1.2054
27846SOL     OW88475   1.273  10.796   1.491 -0.4010 -0.1376  0.3099
27846SOL    HW188476   1.265  10.703   1.469  0.6726 -0.5157  1.4585
27846SOL    HW288477   1.183  10.828   1.487 -0.7304 -1.0851 -0.6207
27847SOL     OW88478   5.270   0.991   1.186  0.7906  0.6876  0.3646
27847SOL    HW188479   5.222   1.074   1.187 -2.7714 -1.1001 -1.5358
27847SOL    HW288480   5.322   0.993   1.106 -1.3691  0.1813 -1.1354
27848SOL     OW88481  11.545   1.593   1.397  0.6017  0.3236 -0.1043
27848SOL    HW188482  11.626   1.542   1.397  0.7390  0.5422  0.6814
27848SOL    HW288483  11.571   1.681   1.369  0.7230  0.5298  0.6515
27849SOL     OW88484   7.448   2.170   4.394 -0.4200  0.2889 -0.4138
27849SOL    HW188485   7.424   2.078   4.399  0.7857 -0.1515 -1.8259
27849SOL    HW288486   7.502   2.185   4.472  0.3094 -0.5187 -0.7458
27850SOL     OW88487   5.967   9.548   4.071  0.1945  0.7419  0.0386
27850SOL    HW188488   5.884   9.581   4.106  0.2193 -1.4671  2.5147
27850SOL    HW288489   5.957   9.452   4.074  2.5912  0.4320 -0.2045
27851SOL     OW88490   3.234   9.223  11.628 -0.2749 -0.5326 -0.0566
27851SOL    HW188491   3.246   9.217  11.723  0.5020 -1.6408 -0.2018
27851SOL    HW288492   3.149   9.266  11.617  0.4458  1.3193  1.1041
27852SOL     OW88493   9.500   0.382   1.534 -0.5108  0.6493  0.1956
27852SOL    HW188494   9.488   0.437   1.612  0.3516  0.7873  0.2371
27852SOL    HW288495   9.473   0.437   1.461  0.8422  1.3340  0.1826
27853SOL     OW88496   5.631   4.960   2.682 -0.0533  0.3386  0.3307
27853SOL    HW188497   5.709   5.016   2.682 -0.4861  0.9624  0.5084
27853SOL    HW288498   5.636   4.912   2.765  0.3128  0.1287  0.1877
27854SOL     OW88499   3.809   5.614   2.481 -0.0083  0.3579 -0.3816
27854SOL    HW188500   3.785   5.535   2.531  2.5501  0.7847  1.7597
27854SOL    HW288501   3.732   5.632   2.426 -2.0463 -1.6327  1.5847
27855SOL     OW88502   9.397   5.252   7.770  0.1970 -0.0145 -0.1872
27855SOL    HW188503   9.439   5.187   7.825 -0.1512 -2.8614 -3.0212
27855SOL    HW288504   9.469   5.302   7.732  0.4497  1.7245  2.3409
27856SOL     OW88505   4.507   2.049   4.689 -0.3022 -0.2406 -0.9259
27856SOL    HW188506   4.463   2.029   4.772  1.7942 -1.4073 -0.0183
27856SOL    HW288507   4.442   2.099   4.639 -2.2588 -0.9917  0.7051
27857SOL     OW88508   9.774  10.384   6.878  0.6854 -0.5091 -0.8537
27857SOL    HW188509   9.742  10.456   6.931  0.2036  0.1301 -1.9723
27857SOL    HW288510   9.694  10.343   6.842  0.9518 -1.5553 -0.3042
27858SOL     OW88511   0.280   2.791   4.036 -0.3020 -0.3539  0.3557
27858SOL    HW188512   0.261   2.853   4.106 -2.7750  0.4554 -0.9141
27858SOL    HW288513   0.195   2.755   4.011  0.8054 -2.5091 -0.5591
27859SOL     OW88514   4.880   3.542   0.098  0.0784 -0.2698 -0.3906
27859SOL    HW188515   4.948   3.476   0.112 -1.3651 -1.8039 -0.3648
27859SOL    HW288516   4.900   3.580   0.013  1.5365  0.0415  0.0646
27860SOL     OW88517   0.836   4.964   2.208  0.5587  0.3153 -0.5619
27860SOL    HW188518   0.847   4.874   2.178 -2.1746  0.2529 -1.6282
27860SOL    HW288519   0.772   4.958   2.278  0.5255  1.4145 -0.4830
27861SOL     OW88520   8.032  10.372  11.328  0.1592 -0.0760 -0.1364
27861SOL    HW188521   8.100  10.417  11.278 -0.6007  0.4332 -0.7413
27861SOL    HW288522   7.961  10.359  11.266 -1.2092  1.4438  1.0206
27862SOL     OW88523   5.405   3.617   7.968  0.1791  0.4928 -0.0010
27862SOL    HW188524   5.388   3.709   7.948 -0.1738  0.3576 -0.3392
27862SOL    HW288525   5.321   3.584   8.001  0.4145  0.3929  0.5080
27863SOL     OW88526   4.455   8.315   4.087  0.0045  0.3891 -0.6894
27863SOL    HW188527   4.484   8.245   4.028  2.0879  0.3536  0.2753
27863SOL    HW288528   4.483   8.396   4.045 -1.6159  0.6046 -1.3819
27864SOL     OW88529   5.470   0.722   5.860 -0.4739 -0.0653 -0.0568
27864SOL    HW188530   5.461   0.686   5.772 -0.0852 -1.4879  0.4488
27864SOL    HW288531   5.559   0.698   5.887 -0.8880 -0.4422  1.0379
27865SOL     OW88532   0.477  10.158   5.075 -0.2026 -0.4612 -0.5743
27865SOL    HW188533   0.511  10.156   4.985  0.0199 -1.0147 -0.4853
27865SOL    HW288534   0.515  10.080   5.116  2.0775  1.3245  0.8946
27866SOL     OW88535   3.327   4.683   3.384  0.3923 -0.2481 -0.0108
27866SOL    HW188536   3.409   4.662   3.427 -0.7378 -4.7179  0.4717
27866SOL    HW288537   3.350   4.692   3.291  1.3443 -2.7257 -0.0757
27867SOL     OW88538   3.176   1.206   7.035  0.1398  0.0829  0.2410
27867SOL    HW188539   3.115   1.215   6.962 -0.9589  0.9275  1.2224
27867SOL    HW288540   3.138   1.260   7.105  0.3454 -1.8364  1.9575
27868SOL     OW88541   5.016   6.701   5.624  0.2406 -0.5022  0.3717
27868SOL    HW188542   4.986   6.791   5.635 -0.1308 -0.5404 -0.2386
27868SOL    HW288543   4.936   6.651   5.606  0.3275 -1.1242  1.6157
27869SOL     OW88544   4.945   8.430   8.543 -0.5792 -0.0313  0.6564
27869SOL    HW188545   4.876   8.455   8.604  0.1231 -0.0640  1.4775
27869SOL    HW288546   4.940   8.495   8.473 -1.2594  0.1245  0.8407
27870SOL     OW88547   8.261   2.990   4.591  0.1028 -0.2654 -0.2395
27870SOL    HW188548   8.261   2.950   4.679  0.5730  4.1195  2.0407
27870SOL    HW288549   8.353   3.009   4.574 -0.2632  1.7008 -0.1689
27871SOL     OW88550  10.953   7.041   2.403 -0.1980  0.1885 -0.5784
27871SOL    HW188551  10.947   7.118   2.459  0.7499 -0.2132  0.1100
27871SOL    HW288552  11.011   7.067   2.332 -1.9625  0.9298 -1.8305
27872SOL     OW88553   2.930  10.112   6.771  0.1207 -0.2675  0.6346
27872SOL    HW188554   2.892  10.118   6.859  0.0808  0.4661  0.5779
27872SOL    HW288555   2.944  10.019   6.757  2.2948 -0.2671  2.3320
27873SOL     OW88556   2.722   2.209   3.532 -0.2534 -0.5647 -0.2165
27873SOL    HW188557   2.747   2.231   3.621  1.0130 -0.7844 -0.5049
27873SOL    HW288558   2.626   2.216   3.532 -0.2116  0.3862  0.8982
27874SOL     OW88559   8.757   9.190   6.791 -0.7635  0.1532 -0.5534
27874SOL    HW188560   8.802   9.271   6.815 -0.1158 -0.6477  1.0254
27874SOL    HW288561   8.675   9.220   6.750 -1.0525  1.6164  0.9973
27875SOL     OW88562   9.045   9.425   8.122 -0.8092  0.6808  0.3244
27875SOL    HW188563   9.064   9.454   8.211 -0.8327  1.0827  0.1990
27875SOL    HW288564   8.955   9.452   8.106 -1.2868 -0.6255  0.6728
27876SOL     OW88565   3.357   2.529   4.320  0.2518 -0.0277  0.1580
27876SOL    HW188566   3.324   2.545   4.408  1.3260 -0.0300  0.5696
27876SOL    HW288567   3.451   2.519   4.330  0.2358 -1.4427 -0.8025
27877SOL     OW88568   0.446   9.381   8.698  0.5252 -0.4852 -0.7055
27877SOL    HW188569   0.447   9.339   8.784  0.6586 -1.1839 -1.0377
27877SOL    HW288570   0.398   9.463   8.712 -0.4079 -1.1011 -0.1999
27878SOL     OW88571   9.914  10.548   6.385 -0.6108  0.0383  0.1205
27878SOL    HW188572   9.869  10.592   6.457  0.5771  1.2269  0.1825
27878SOL    HW288573   9.861  10.471   6.367 -1.1559 -0.0771  2.0002
27879SOL     OW88574   7.370   1.350   1.594 -0.3337 -0.2523  0.3087
27879SOL    HW188575   7.416   1.325   1.674 -0.6218 -1.0664  0.2199
27879SOL    HW288576   7.278   1.335   1.614 -0.4838  0.4265  0.1378
27880SOL     OW88577   6.990   9.153   8.064  0.3792 -0.0904  0.4117
27880SOL    HW188578   6.987   9.237   8.111 -1.1318  0.8305 -1.1979
27880SOL    HW288579   6.955   9.173   7.978  0.6149 -2.2726 -0.2427
27881SOL     OW88580   3.787   4.156   3.992 -0.1187  0.0209 -0.6223
27881SOL    HW188581   3.851   4.223   3.969  0.8075 -0.8577 -0.6930
27881SOL    HW288582   3.829   4.073   3.968 -0.1494 -0.7927  1.8106
27882SOL     OW88583   3.232   8.325   0.893 -0.0081  0.4678  0.2209
27882SOL    HW188584   3.313   8.374   0.873  0.4374 -0.4202 -0.1924
27882SOL    HW288585   3.195   8.305   0.807 -0.1116 -0.0517  0.3868
27883SOL     OW88586   8.109   5.717   5.508  0.9274  0.2692  0.4272
27883SOL    HW188587   8.091   5.800   5.463  0.1778  0.6129  1.3244
27883SOL    HW288588   8.201   5.698   5.488  0.6997  0.5306 -1.0276
27884SOL     OW88589  11.239   9.883   9.389 -0.1576  0.0383  0.2653
27884SOL    HW188590  11.256   9.814   9.453 -0.2724 -0.1893  0.0502
27884SOL    HW288591  11.237   9.837   9.305  0.2828  0.3747  0.0658
27885SOL     OW88592   2.041   9.233   8.902  0.4340  0.9781  0.4622
27885SOL    HW188593   2.072   9.176   8.973 -1.5173 -0.1867  0.4627
27885SOL    HW288594   1.962   9.274   8.938  0.3173  1.6140 -0.4933
27886SOL     OW88595   0.697   2.296   2.856 -1.0611 -0.2136 -0.1496
27886SOL    HW188596   0.651   2.234   2.914 -0.5344 -0.4941 -0.0295
27886SOL    HW288597   0.780   2.313   2.900 -1.3526  0.8876  0.0118
27887SOL     OW88598   0.397   9.191   5.548  0.4654  0.3927  0.4174
27887SOL    HW188599   0.370   9.225   5.462  1.0341  1.1210  0.5190
27887SOL    HW288600   0.340   9.236   5.610  0.2922  0.1252  0.4555
27888SOL     OW88601   8.376   4.187   8.911  0.2894  0.0865  0.0743
27888SOL    HW188602   8.410   4.276   8.911 -2.0430  1.1515 -2.4804
27888SOL    HW288603   8.294   4.192   8.960  0.8655 -1.0467  1.2044
27889SOL     OW88604   7.617   8.573  10.424  0.0988 -0.2642  0.4308
27889SOL    HW188605   7.569   8.525  10.356 -0.1079 -1.6765  1.5411
27889SOL    HW288606   7.626   8.662  10.389 -2.0874 -0.3320 -0.4208
27890SOL     OW88607   9.743  10.703   0.727 -0.3979  0.0835 -0.2308
27890SOL    HW188608   9.741  10.791   0.763  0.9782  0.0973 -0.1327
27890SOL    HW288609   9.832  10.693   0.693 -0.4964 -1.3050 -0.1361
27891SOL     OW88610   2.065   4.932   0.641 -0.3552  0.3251 -0.0175
27891SOL    HW188611   2.068   4.838   0.628 -1.3233  0.3493 -0.4810
27891SOL    HW288612   2.025   4.966   0.561  0.7578  1.2134 -0.2255
27892SOL     OW88613  10.843   7.659   8.579  0.2655  0.2292  0.6176
27892SOL    HW188614  10.936   7.643   8.565  0.0883 -1.3302  1.0384
27892SOL    HW288615  10.832   7.752   8.562  2.3347  0.9588  2.7605
27893SOL     OW88616  10.352   5.982   2.211 -0.9409  0.5049 -0.3450
27893SOL    HW188617  10.271   6.030   2.225 -0.5837  1.4206 -1.2661
27893SOL    HW288618  10.394   6.027   2.137  1.5573  1.5755  1.5759
27894SOL     OW88619   2.859   8.736   4.327 -0.5376  0.5518 -0.0071
27894SOL    HW188620   2.926   8.725   4.395 -1.1698  0.0116  0.5491
27894SOL    HW288621   2.782   8.691   4.363 -0.8262  0.0860 -1.1700
27895SOL     OW88622   0.925  10.852   5.376 -0.4178  0.4288  0.3819
27895SOL    HW188623   0.918  10.852   5.472 -0.1922  0.4682  0.3992
27895SOL    HW288624   0.913  10.943   5.351 -0.4539  0.4218  0.3745
27896SOL     OW88625   1.860   8.593   1.301  0.1461  0.2100  0.1868
27896SOL    HW188626   1.797   8.665   1.296 -0.8581 -0.6596 -0.0560
27896SOL    HW288627   1.944   8.636   1.317 -0.6327  1.3466  1.5254
27897SOL     OW88628   3.001   5.552   8.171  0.1538 -0.1115 -0.4704
27897SOL    HW188629   2.932   5.502   8.129  0.2139 -2.4767  1.9707
27897SOL    HW288630   2.963   5.639   8.187 -0.3154  0.4349 -3.8800
27898SOL     OW88631   2.230   4.972   9.043 -0.2585  0.2918 -0.3153
27898SOL    HW188632   2.212   4.974   8.949  0.4547 -0.6121 -0.4855
27898SOL    HW288633   2.228   4.879   9.066  1.7409  0.3138  0.1145
27899SOL     OW88634   0.118  11.639   2.446 -0.2235  0.2312  0.1532
27899SOL    HW188635   0.077  11.722   2.471 -0.9751  0.1554 -0.7372
27899SOL    HW288636   0.122  11.643   2.350 -0.5583 -0.8806  0.0783
27900SOL     OW88637   1.020   1.043   1.688 -0.5862 -0.0618  0.0656
27900SOL    HW188638   1.011   1.136   1.709 -0.6753 -0.1796  0.5715
27900SOL    HW288639   0.935   1.019   1.650 -0.1981  0.3096 -1.0731
27901SOL     OW88640  11.299   9.199   0.431  0.6059  0.1374  0.3117
27901SOL    HW188641  11.389   9.227   0.449  0.5408 -0.3461  1.4918
27901SOL    HW288642  11.255   9.278   0.401  1.5965  0.2203 -0.9879
27902SOL     OW88643   3.090  11.631  11.481 -0.4195  0.6249 -0.3644
27902SOL    HW188644   3.127  11.704  11.530 -1.4307  0.7622  0.1995
27902SOL    HW288645   3.080  11.561  11.545  0.8497 -0.1527 -0.9654
27903SOL     OW88646   6.337  10.433  10.248  0.2238  0.3490 -0.1352
27903SOL    HW188647   6.383  10.509  10.211 -1.2225  1.6190  0.5770
27903SOL    HW288648   6.271  10.471  10.306 -0.0724 -1.4943  0.7962
27904SOL     OW88649   9.012   7.205   0.714 -0.1004 -0.1486  0.8469
27904SOL    HW188650   9.083   7.258   0.678  0.9058 -1.6020  0.5942
27904SOL    HW288651   8.933   7.239   0.672  0.6946  0.1656 -0.4671
27905SOL     OW88652   0.557   9.469   1.845  0.2755  0.4219 -0.1318
27905SOL    HW188653   0.563   9.427   1.760 -1.4867 -0.0912 -0.0390
27905SOL    HW288654   0.623   9.425   1.898 -0.4683 -1.1901 -0.4815
27906SOL     OW88655   7.225   0.236  10.603  0.3892 -0.0305 -0.2142
27906SOL    HW188656   7.274   0.318  10.605  1.4833 -0.6767  0.3911
27906SOL    HW288657   7.277   0.178  10.547 -0.5750 -0.1993 -0.9577
27907SOL     OW88658   9.972   6.442   0.248 -0.0751 -0.0156 -0.1291
27907SOL    HW188659   9.926   6.503   0.305 -1.1124 -0.0195 -0.9300
27907SOL    HW288660  10.000   6.496   0.173  2.1643  0.2166  0.7806
27908SOL     OW88661   8.794   9.875  11.396  0.2022  0.5455  0.4657
27908SOL    HW188662   8.771   9.782  11.389  0.3877  0.4088  1.5739
27908SOL    HW288663   8.711   9.921  11.381  0.3313  0.2619 -1.3007
27909SOL     OW88664   8.319   6.013   0.110  0.2123  0.3641  0.4396
27909SOL    HW188665   8.310   5.921   0.135 -1.2332  0.9152  2.1447
27909SOL    HW288666   8.412   6.031   0.121  0.4430 -0.7856  0.5172
27910SOL     OW88667  10.059   7.953   5.545 -0.5076 -0.4594  0.2409
27910SOL    HW188668  10.111   8.033   5.548  0.5820 -1.1698  0.6464
27910SOL    HW288669  10.086   7.911   5.463 -0.1505 -1.0182  0.6436
27911SOL     OW88670   5.687   6.540   7.928 -0.0791 -0.1691 -0.1732
27911SOL    HW188671   5.763   6.567   7.981 -1.0240  0.9214  0.6788
27911SOL    HW288672   5.611   6.567   7.980 -1.1675 -3.8130  0.3704
27912SOL     OW88673  11.678   3.933   9.886 -0.4555  0.3650 -0.3273
27912SOL    HW188674  11.630   3.851   9.899 -0.0282  0.3193  1.2757
27912SOL    HW288675  11.721   3.923   9.801  0.6166 -1.6329  0.3852
27913SOL     OW88676   9.540   8.861   9.459 -0.3630 -0.4710  0.1748
27913SOL    HW188677   9.595   8.887   9.533 -0.3816 -0.8474  0.3231
27913SOL    HW288678   9.543   8.766   9.459 -0.1406 -0.4762 -0.4771
27914SOL     OW88679   0.728  10.819   0.844  0.1142 -0.8992 -0.3362
27914SOL    HW188680   0.650  10.872   0.858 -0.7492 -1.7387 -1.7888
27914SOL    HW288681   0.772  10.819   0.929 -1.4678 -0.4260  0.5167
27915SOL     OW88682   8.418   4.989   7.102 -0.3083 -0.5207  0.2743
27915SOL    HW188683   8.427   5.059   7.167  0.4218  0.7830 -1.1523
27915SOL    HW288684   8.493   5.000   7.044 -2.1920  0.0506 -2.2930
27916SOL     OW88685   1.646   2.501   8.188  0.0863 -0.2826  0.5217
27916SOL    HW188686   1.681   2.575   8.137 -0.0065  0.3783  1.3890
27916SOL    HW288687   1.723   2.462   8.229  0.0233  0.0133  0.9306
27917SOL     OW88688   8.416   1.374   4.386 -0.0249  0.7127  0.0004
27917SOL    HW188689   8.421   1.283   4.358 -0.6159 -0.1369  2.4789
27917SOL    HW288690   8.374   1.419   4.312 -0.7395 -1.2212 -0.8366
27918SOL     OW88691   2.884   6.099   7.127 -0.3497 -0.4589 -0.2552
27918SOL    HW188692   2.974   6.083   7.099  0.4274  1.3010  1.0894
27918SOL    HW288693   2.868   6.032   7.193 -0.5014 -1.5595 -1.3669
27919SOL     OW88694   5.811  11.292   5.024 -0.5365 -0.2996  0.0245
27919SOL    HW188695   5.718  11.310   5.009 -0.7688 -1.0051  0.5804
27919SOL    HW288696   5.817  11.197   5.027  0.4131 -0.3082 -1.2373
27920SOL     OW88697   4.739   8.529   4.653  0.3555 -0.0266  0.1091
27920SOL    HW188698   4.767   8.597   4.591  1.7866 -2.1491 -1.7319
27920SOL    HW288699   4.817   8.512   4.706  0.6713 -1.5541 -0.7805
27921SOL     OW88700  10.181   0.212   6.759  0.3030 -0.5341  0.2807
27921SOL    HW188701  10.146   0.300   6.771  1.7326  0.1002 -0.0392
27921SOL    HW288702  10.110   0.164   6.715 -0.4312  0.4976  0.3099
27922SOL     OW88703   7.763   9.188   4.718 -0.0662  0.0849 -0.1549
27922SOL    HW188704   7.678   9.152   4.742  0.4768  0.2380  2.2586
27922SOL    HW288705   7.744   9.277   4.688 -1.0129 -0.8649 -2.5876
27923SOL     OW88706   3.573   2.989   7.555  0.4583  0.1530 -0.1918
27923SOL    HW188707   3.570   2.922   7.623 -1.9729 -0.9087 -1.2501
27923SOL    HW288708   3.490   3.035   7.563  0.2387  0.1887 -2.2524
27924SOL     OW88709   4.400   2.276   0.595  0.1271  0.1584  0.2810
27924SOL    HW188710   4.449   2.221   0.533  1.0732 -0.5795  1.6339
27924SOL    HW288711   4.467   2.314   0.652 -0.8138 -1.0944  2.3537
27925SOL     OW88712   9.373   9.278   4.296 -0.3565 -0.0842 -0.1946
27925SOL    HW188713   9.281   9.254   4.289 -0.4043  0.4492 -2.2231
27925SOL    HW288714   9.421   9.196   4.283 -0.5185 -0.3465  0.7773
27926SOL     OW88715   9.353   6.899   8.073 -0.2833  0.0487  0.1147
27926SOL    HW188716   9.263   6.878   8.047 -0.3281  0.5553 -0.1453
27926SOL    HW288717   9.352   6.893   8.169  0.0709 -2.5708  0.0229
27927SOL     OW88718   5.702   9.192   8.334 -0.0716 -0.4988  1.0848
27927SOL    HW188719   5.765   9.161   8.269  0.8229 -2.5109  2.7620
27927SOL    HW288720   5.632   9.231   8.283  0.2307 -2.6148 -1.1559
27928SOL     OW88721   2.676   4.121   0.186  0.2896  0.3434  0.0226
27928SOL    HW188722   2.644   4.091   0.271 -1.5659 -0.6425 -0.9547
27928SOL    HW288723   2.762   4.081   0.177 -0.5107 -1.5913  0.4242
27929SOL     OW88724  10.619   1.523   7.442 -0.0956  0.3384  0.4816
27929SOL    HW188725  10.593   1.612   7.421 -1.1388 -0.4519 -1.9680
27929SOL    HW288726  10.641   1.484   7.357  2.9241 -1.0000  1.7358
27930SOL     OW88727   6.593   0.819   6.188  0.1955  0.0195  0.1983
27930SOL    HW188728   6.516   0.785   6.232  0.8619 -0.8230  0.7467
27930SOL    HW288729   6.655   0.838   6.258  1.0896 -0.8627 -0.3208
27931SOL     OW88730   3.661   0.525   1.710  0.4495 -0.4296 -0.0024
27931SOL    HW188731   3.725   0.595   1.723  1.0297 -0.7162 -1.1906
27931SOL    HW288732   3.633   0.536   1.619 -0.6031 -0.8087  0.2638
27932SOL     OW88733   9.239   8.196   6.184 -0.0342 -0.8058 -0.2831
27932SOL    HW188734   9.146   8.218   6.183  0.0440 -0.3839  0.8296
27932SOL    HW288735   9.266   8.202   6.092 -0.4561  1.9526 -0.2902
27933SOL     OW88736  11.293   8.898   8.705 -0.1558 -0.0766 -0.0738
27933SOL    HW188737  11.276   8.955   8.780  0.3582  1.6449 -1.2025
27933SOL    HW288738  11.389   8.889   8.704 -0.0822  0.6733 -1.0283
27934SOL     OW88739   5.405   6.767   8.528  0.3677 -0.0766  0.3888
27934SOL    HW188740   5.318   6.731   8.510  0.0211  0.9473 -0.0565
27934SOL    HW288741   5.418   6.833   8.460  1.8153 -0.7347 -0.0008
27935SOL     OW88742   5.956   5.293   0.889 -0.0013 -0.0718  0.4102
27935SOL    HW188743   6.031   5.347   0.913  1.4042 -1.0092 -1.6148
27935SOL    HW288744   5.912   5.344   0.820  1.2009 -1.2909 -1.3447
27936SOL     OW88745   0.207   9.731   6.428 -0.3026  0.1134  0.2617
27936SOL    HW188746   0.169   9.818   6.417 -0.3555  0.0631  0.0484
27936SOL    HW288747   0.204   9.692   6.341  0.9107  0.3703  0.0875
27937SOL     OW88748  10.189   7.445   2.798 -0.2813 -0.0525 -0.2061
27937SOL    HW188749  10.193   7.517   2.735  0.0347 -0.2122 -0.3710
27937SOL    HW288750  10.273   7.447   2.843  0.8601 -1.9438 -2.0489
27938SOL     OW88751   3.673   5.312   8.470 -0.4113  0.2756  0.2623
27938SOL    HW188752   3.738   5.245   8.449 -1.7000 -0.7966 -0.4901
27938SOL    HW288753   3.638   5.286   8.555 -0.6056  0.2298  0.1696
27939SOL     OW88754   6.255   4.855   6.049 -0.6532 -0.2664 -0.8782
27939SOL    HW188755   6.335   4.863   5.998  0.1664  2.5306  0.6483
27939SOL    HW288756   6.280   4.808   6.128 -1.2396 -1.9484 -1.6530
27940SOL     OW88757   4.672   1.136   9.701 -0.0586  0.2718 -0.4557
27940SOL    HW188758   4.715   1.187   9.770 -1.5220  0.3727  0.4216
27940SOL    HW288759   4.704   1.174   9.619  1.4235  0.3985  0.1484
27941SOL     OW88760   6.094   2.718   1.506  0.2699 -0.1289 -0.0659
27941SOL    HW188761   6.097   2.772   1.427 -1.5887  1.5967  0.9421
27941SOL    HW288762   6.183   2.720   1.541  0.6163  0.9029 -0.9754
27942SOL     OW88763   0.430   5.897  11.095  1.2581 -0.2240  0.1891
27942SOL    HW188764   0.351   5.847  11.117  1.4586 -0.1429  1.1448
27942SOL    HW288765   0.399   5.963  11.033  0.8658 -1.0990 -0.5781
27943SOL     OW88766   8.842   6.952   2.963  0.6232  0.3489 -0.0213
27943SOL    HW188767   8.906   6.881   2.960  1.0409  0.7243 -0.0491
27943SOL    HW288768   8.798   6.941   3.048 -0.0366 -0.5597 -0.4608
27944SOL     OW88769   0.996   2.188   1.741  0.0090 -0.1649  0.3691
27944SOL    HW188770   1.089   2.200   1.757  0.0972 -0.8624  0.3955
27944SOL    HW288771   0.953   2.239   1.810  0.3454  1.2745 -0.4457
27945SOL     OW88772   6.116   2.578   0.990 -0.4642 -0.0757  0.7687
27945SOL    HW188773   6.194   2.536   1.027  0.7430  1.2630 -0.1161
27945SOL    HW288774   6.151   2.647   0.933 -2.3091  0.3827  0.1144
27946SOL     OW88775   6.524   6.194   1.029 -0.5182 -0.0342 -0.2201
27946SOL    HW188776   6.551   6.286   1.035  0.8720 -0.2803 -1.6842
27946SOL    HW288777   6.439   6.197   0.984 -0.2521  0.5270 -0.7064
27947SOL     OW88778   9.298   3.813   5.699  0.2426  0.3918 -0.2148
27947SOL    HW188779   9.266   3.883   5.642 -1.3145  0.4900  0.6928
27947SOL    HW288780   9.323   3.858   5.780  0.6563  0.0587 -0.1570
27948SOL     OW88781  10.986   5.139   7.007  0.1597 -0.1041  0.2284
27948SOL    HW188782  10.942   5.105   6.929 -2.1254  2.4718  0.2467
27948SOL    HW288783  10.917   5.146   7.073  1.2969  0.9727  1.3711
27949SOL     OW88784   3.097   3.445   3.988 -0.0131  0.1968  0.2080
27949SOL    HW188785   3.164   3.403   3.934 -0.4934  0.8654 -0.9533
27949SOL    HW288786   3.146   3.505   4.045  0.4713 -0.2061  0.2147
27950SOL     OW88787   1.510   4.621   0.262 -0.4095 -0.3127 -0.3187
27950SOL    HW188788   1.541   4.705   0.228  0.0678 -0.2536  0.2470
27950SOL    HW288789   1.427   4.641   0.305 -0.1199 -0.0620  0.1273
27951SOL     OW88790   5.340   0.141   3.345  0.1031 -0.0675 -0.1843
27951SOL    HW188791   5.367   0.059   3.385  2.2033  0.1105 -1.0917
27951SOL    HW288792   5.250   0.126   3.316  0.2984 -1.8876  0.0629
27952SOL     OW88793   9.055   7.212   7.220  0.0966 -0.0915 -0.1390
27952SOL    HW188794   9.123   7.252   7.274  0.1287  0.1914 -0.3908
27952SOL    HW288795   8.980   7.202   7.279  0.7313 -1.4925  0.4744
27953SOL     OW88796   6.098   4.095   5.669  0.4949 -0.0235 -0.3038
27953SOL    HW188797   6.007   4.071   5.651 -0.1641  1.2705  1.0804
27953SOL    HW288798   6.113   4.175   5.618  0.6034  0.1867  0.0518
27954SOL     OW88799   8.537   7.177   3.396  0.1133  0.0709 -0.6928
27954SOL    HW188800   8.549   7.134   3.312  0.7280 -0.8762 -0.1345
27954SOL    HW288801   8.567   7.267   3.381 -0.2248  0.0439 -1.5984
27955SOL     OW88802   3.678   0.123   7.444  0.6068  0.5372 -0.0822
27955SOL    HW188803   3.709   0.213   7.432  0.8480  0.3958 -0.5447
27955SOL    HW288804   3.730   0.071   7.382 -0.2949  0.2352 -0.6020
27956SOL     OW88805   6.695   8.751   9.157 -0.1385 -0.6881 -0.0367
27956SOL    HW188806   6.622   8.728   9.100 -0.4861 -0.5227  0.3418
27956SOL    HW288807   6.678   8.705   9.239 -1.9252  2.3653  1.5028
27957SOL     OW88808   9.993   6.813   0.455 -0.3639 -0.3152 -1.0164
27957SOL    HW188809  10.058   6.744   0.468 -0.4982 -0.3692 -0.6478
27957SOL    HW288810   9.913   6.767   0.430 -0.5298 -0.3109 -0.4951
27958SOL     OW88811   3.449   2.094  10.574  0.3178  0.6326  0.2740
27958SOL    HW188812   3.457   2.157  10.645  0.2071 -0.5107  1.3389
27958SOL    HW288813   3.523   2.113  10.516  0.9292  1.0168  1.1570
27959SOL     OW88814   7.042   9.919  11.196  0.0872  0.4049 -0.0667
27959SOL    HW188815   6.947   9.935  11.200 -0.0270 -0.1302 -0.5592
27959SOL    HW288816   7.061   9.913  11.103  0.4665 -0.2875  0.0473
27960SOL     OW88817   4.867   4.999   2.347  0.1249  0.0577 -0.5982
27960SOL    HW188818   4.927   5.003   2.273  1.3680  0.8697  0.4192
27960SOL    HW288819   4.920   4.966   2.419 -0.5647  1.0359  0.3877
27961SOL     OW88820  11.425   1.891  10.950 -0.0265 -0.0395  0.2473
27961SOL    HW188821  11.428   1.982  10.921 -1.6741  0.0349  0.2250
27961SOL    HW288822  11.359   1.850  10.894 -2.4615 -0.1756  3.0066
27962SOL     OW88823   4.721  11.454   2.186 -0.4310 -0.7895  0.2420
27962SOL    HW188824   4.654  11.497   2.132  0.0416 -0.1036  0.1817
27962SOL    HW288825   4.715  11.361   2.162 -1.2380 -0.7129  0.1158
27963SOL     OW88826  11.533  10.595  10.010 -0.3920  0.0745 -0.2305
27963SOL    HW188827  11.586  10.602   9.930 -1.2068  0.2343 -0.7590
27963SOL    HW288828  11.443  10.592   9.980 -0.6580 -1.8404  0.5618
27964SOL     OW88829   5.495   9.236   4.403 -0.1520  0.2504 -1.1110
27964SOL    HW188830   5.434   9.166   4.426  0.2908 -0.1620 -1.1804
27964SOL    HW288831   5.565   9.229   4.467  1.1698 -0.9945 -2.6074
27965SOL     OW88832   9.913   9.543   8.180 -0.3715  0.2015  0.0160
27965SOL    HW188833   9.932   9.509   8.092  1.8447 -0.0266  0.5159
27965SOL    HW288834   9.886   9.467   8.231 -0.7367  0.1687 -0.2238
27966SOL     OW88835   2.143   8.668   6.018 -0.0329 -0.3103  0.1273
27966SOL    HW188836   2.117   8.758   6.039  0.4893 -0.0786 -0.1912
27966SOL    HW288837   2.238   8.666   6.033 -0.0199 -0.7678  0.0046
27967SOL     OW88838   8.000   5.630   5.740 -0.3020 -0.3290  0.2027
27967SOL    HW188839   8.016   5.539   5.763  1.5925  0.0368  0.4676
27967SOL    HW288840   8.019   5.635   5.647 -1.3357 -0.3768 -0.0253
27968SOL     OW88841  10.490   7.962   9.601  0.3308  0.2372 -0.3182
27968SOL    HW188842  10.419   7.905   9.571 -0.2660  0.5118  0.5277
27968SOL    HW288843  10.552   7.965   9.527  0.2710 -1.3188 -0.4527
27969SOL     OW88844   6.323   1.863   7.015  0.0063 -0.0183  0.3715
27969SOL    HW188845   6.418   1.868   7.008 -0.0615  1.2234 -0.0248
27969SOL    HW288846   6.290   1.921   6.946 -0.9880  0.8583  1.5084
27970SOL     OW88847   9.601   6.261  11.138  0.3847 -0.5455  0.3534
27970SOL    HW188848   9.644   6.247  11.222  1.5783 -1.2323 -0.3388
27970SOL    HW288849   9.508   6.261  11.158  0.6701  0.2646  1.8008
27971SOL     OW88850   7.566   6.510   9.067  0.7706  0.1731  0.1659
27971SOL    HW188851   7.478   6.494   9.032  0.3252  1.2412  0.7435
27971SOL    HW288852   7.591   6.595   9.031  0.7481  0.7811  1.5301
27972SOL     OW88853   5.981   6.792   6.263 -0.2995 -0.1720  0.2187
27972SOL    HW188854   5.929   6.726   6.309  2.7435 -2.8224  0.1493
27972SOL    HW288855   5.932   6.809   6.183 -3.1011  0.7133  1.9496
27973SOL     OW88856   8.819  11.438   9.539 -0.0103 -0.4562 -0.1460
27973SOL    HW188857   8.879  11.379   9.492 -0.9812 -0.9329 -0.8033
27973SOL    HW288858   8.771  11.484   9.471  0.7973  1.2261  0.3489
27974SOL     OW88859   8.004   0.181   8.460 -0.9811  0.6120  0.7609
27974SOL    HW188860   8.020   0.224   8.376 -3.7053  1.4154  0.5688
27974SOL    HW288861   8.044   0.239   8.524 -1.5400  1.5943  0.2351
27975SOL     OW88862   0.412   9.460   6.197  0.4466  0.5780  0.2018
27975SOL    HW188863   0.435   9.472   6.289 -0.6936  2.1936  0.3079
27975SOL    HW288864   0.320   9.433   6.199  1.0982 -1.9136 -0.3868
27976SOL     OW88865   4.002   6.391   0.430  0.7163 -0.0293 -0.4577
27976SOL    HW188866   4.063   6.394   0.504  1.1652 -3.4422 -0.5169
27976SOL    HW288867   4.047   6.338   0.364 -1.2167 -0.3299 -1.6098
27977SOL     OW88868   8.181   9.753   5.794 -0.2748  0.2839 -0.0395
27977SOL    HW188869   8.246   9.684   5.776 -1.0415 -1.0058  1.8143
27977SOL    HW288870   8.123   9.751   5.718  0.3080 -0.3931 -0.4860
27978SOL     OW88871   0.802   8.706   9.244  0.1464 -0.3691  0.4493
27978SOL    HW188872   0.851   8.780   9.280  1.1841  0.4838 -2.4314
27978SOL    HW288873   0.869   8.646   9.213 -0.6746 -0.9539 -0.2299
27979SOL     OW88874   2.297   2.534   1.185 -0.0507  0.0092 -0.3747
27979SOL    HW188875   2.377   2.584   1.194 -0.5153  0.5921  0.6750
27979SOL    HW288876   2.324   2.443   1.198  0.1836  0.3426  2.0328
27980SOL     OW88877   6.409   4.864   7.123  0.8220 -0.2388  0.4508
27980SOL    HW188878   6.371   4.836   7.039  2.0698  0.3638 -0.3459
27980SOL    HW288879   6.430   4.782   7.168  0.8384 -0.5768 -0.1587
27981SOL     OW88880   7.928   4.245   9.055  0.3648 -0.2699  0.2248
27981SOL    HW188881   7.901   4.337   9.053 -0.0700 -0.3730  0.9944
27981SOL    HW288882   7.846   4.196   9.051  0.5571 -0.6149  0.4841
27982SOL     OW88883   9.329   2.662   5.636 -0.4923  0.5026  0.1947
27982SOL    HW188884   9.381   2.582   5.645  0.4565  0.8329 -1.7966
27982SOL    HW288885   9.377   2.715   5.572 -2.1760  1.7684 -0.0933
27983SOL     OW88886  11.564   9.897  10.089  0.0694  0.6140  0.3030
27983SOL    HW188887  11.644   9.922  10.136 -0.3753 -0.3838  1.6329
27983SOL    HW288888  11.493   9.931  10.142 -0.4508 -0.7316  0.4921
27984SOL     OW88889   8.627   9.840   9.802  0.4432  1.0937 -0.6938
27984SOL    HW188890   8.561   9.910   9.804 -0.3023  0.4060  0.5014
27984SOL    HW288891   8.601   9.784   9.729 -0.2963  0.8675 -0.2745
27985SOL     OW88892   1.234   6.516   6.137 -0.1818 -0.3728 -0.4234
27985SOL    HW188893   1.308   6.525   6.198 -1.2964  0.1814  0.8968
27985SOL    HW288894   1.235   6.423   6.112 -1.0649 -1.2046  2.2981
27986SOL     OW88895   1.008   1.975  10.014 -0.8317  0.3120  0.3004
27986SOL    HW188896   1.052   1.992   9.931 -2.2760 -0.9887 -0.7673
27986SOL    HW288897   1.077   1.984  10.080  0.5339  0.4777 -1.1085
27987SOL     OW88898   4.582   7.271   9.087 -0.1638 -0.0472  0.2058
27987SOL    HW188899   4.592   7.268   9.182  3.5093  0.1472 -0.0344
27987SOL    HW288900   4.518   7.203   9.068  0.0802 -1.1049  2.7064
27988SOL     OW88901   3.788   0.479   9.708 -0.2604 -0.0595 -0.0025
27988SOL    HW188902   3.786   0.479   9.804  2.2708  0.6618  0.1292
27988SOL    HW288903   3.749   0.562   9.683 -1.9254 -0.7124  0.3099
27989SOL     OW88904   3.736   0.268   3.326  0.5742 -0.4772 -0.3980
27989SOL    HW188905   3.771   0.303   3.407 -0.2640 -0.6659  0.0617
27989SOL    HW288906   3.812   0.231   3.281  0.9302 -1.0902  0.6679
27990SOL     OW88907   2.538   6.992   0.077  0.2051 -0.0969  0.4571
27990SOL    HW188908   2.588   7.057   0.127 -0.7166 -0.2667  1.6363
27990SOL    HW288909   2.447   7.018   0.090 -0.0559  0.4927 -2.0488
27991SOL     OW88910   2.308   5.556   3.255  0.0281 -0.1126 -0.0917
27991SOL    HW188911   2.238   5.621   3.262 -0.1917  0.0064 -2.4591
27991SOL    HW288912   2.310   5.514   3.340 -1.8640  0.9637  0.5525
27992SOL     OW88913   6.090   0.678  11.467  0.6301  0.3833 -0.1434
27992SOL    HW188914   6.171   0.694  11.515  0.4456  0.3343  0.1871
27992SOL    HW288915   6.021   0.689  11.532  0.3989 -0.0283 -0.3112
27993SOL     OW88916   1.688   1.625   5.865 -0.1555 -0.2528  0.3495
27993SOL    HW188917   1.770   1.654   5.907 -0.4522  0.7831  0.2566
27993SOL    HW288918   1.712   1.545   5.819  0.8896  0.1723  0.1047
27994SOL     OW88919  10.285  11.058   0.512  0.6830 -0.3396  0.2313
27994SOL    HW188920  10.198  11.018   0.509  1.4530 -1.9809 -1.5284
27994SOL    HW288921  10.336  11.001   0.569  1.2992 -0.8650 -0.8354
27995SOL     OW88922   3.693   7.749   2.499 -0.0301 -0.1351 -0.5766
27995SOL    HW188923   3.730   7.716   2.580 -0.4994 -1.9085 -1.0356
27995SOL    HW288924   3.712   7.681   2.434 -0.7740  0.6504 -1.6656
27996SOL     OW88925   6.097   7.775   1.733  0.1279  0.1755 -0.1655
27996SOL    HW188926   6.109   7.781   1.638  1.2821 -0.4028 -0.0694
27996SOL    HW288927   6.047   7.854   1.755 -0.4985  0.1262 -1.2938
27997SOL     OW88928   4.830   8.565   6.627  0.6247  0.1068 -0.3249
27997SOL    HW188929   4.745   8.523   6.636  0.0359  1.0986 -1.0724
27997SOL    HW288930   4.882   8.529   6.698 -0.4698 -0.3884  0.2481
27998SOL     OW88931   8.495   6.214  10.680  0.1211  0.2540  0.0968
27998SOL    HW188932   8.458   6.286  10.732 -2.4763 -0.4555 -0.6237
27998SOL    HW288933   8.444   6.137  10.706  2.3261 -1.2108  0.2947
27999SOL     OW88934   3.799   7.216   5.749  0.4666  0.0595  0.1984
27999SOL    HW188935   3.754   7.225   5.665  0.7384  1.0171  0.1470
27999SOL    HW288936   3.781   7.298   5.795 -1.8237 -1.3839  2.1468
28000SOL     OW88937   1.129   7.847   2.885  0.0966 -0.2679 -0.2779
28000SOL    HW188938   1.149   7.927   2.835 -1.8003 -0.1293 -0.8964
28000SOL    HW288939   1.049   7.813   2.845  0.7167 -2.3768  0.1393
28001SOL     OW88940   0.001   0.069   0.346  0.4991  0.0226  0.5194
28001SOL    HW188941  -0.012   0.010   0.271  0.3766  1.1368 -0.3544
28001SOL    HW288942   0.035   0.012   0.415  2.3351 -0.7430 -0.9367
28002SOL     OW88943  10.398   3.654   4.211 -0.0389 -0.3668  0.1478
28002SOL    HW188944  10.380   3.561   4.225 -2.4180  0.0668  0.4624
28002SOL    HW288945  10.419   3.661   4.118  0.6201 -1.2604  0.2173
28003SOL     OW88946   6.361   1.353   9.742 -0.2830  0.7940  0.7127
28003SOL    HW188947   6.319   1.320   9.821  0.2675  0.7350  0.9838
28003SOL    HW288948   6.304   1.423   9.712 -0.7128  0.5391  0.9291
28004SOL     OW88949   4.439   0.535   5.131 -0.7170  0.4372 -0.1961
28004SOL    HW188950   4.425   0.492   5.215 -1.5314 -0.2015 -0.6509
28004SOL    HW288951   4.515   0.591   5.146  2.1773 -3.0808 -0.2878
28005SOL     OW88952   5.815   1.293   9.836 -0.7506  0.3825  0.1906
28005SOL    HW188953   5.766   1.361   9.882 -1.8638  0.8619 -1.5919
28005SOL    HW288954   5.775   1.290   9.748  1.6768  0.0104 -0.9832
28006SOL     OW88955   1.028   6.777   2.245  0.0968 -0.0176  0.8758
28006SOL    HW188956   0.977   6.720   2.303  0.1280 -0.7896  0.1527
28006SOL    HW288957   1.116   6.779   2.285  1.1907 -3.4694 -0.9817
28007SOL     OW88958   0.931   3.785   3.121  0.3782  0.2376  0.1209
28007SOL    HW188959   1.027   3.783   3.126  0.3617 -0.4710  0.1684
28007SOL    HW288960   0.913   3.825   3.036  0.7140  0.3403  0.0948
28008SOL     OW88961  10.428   8.594   0.372  0.3279 -0.0708 -0.3464
28008SOL    HW188962  10.512   8.565   0.336  1.2695  0.5171  1.3041
28008SOL    HW288963  10.383   8.513   0.397  1.9064 -0.2996  1.9886
28009SOL     OW88964   4.526   4.374  10.426  0.0650  0.4472  0.6222
28009SOL    HW188965   4.602   4.377  10.484  0.2662 -0.9523  0.4765
28009SOL    HW288966   4.453   4.352  10.483 -0.4143  2.5425  0.8897
28010SOL     OW88967   4.595   2.116   6.506 -0.1641  0.1167 -0.0045
28010SOL    HW188968   4.532   2.074   6.565 -0.3485 -1.2156 -1.0854
28010SOL    HW288969   4.657   2.047   6.484  1.0737  1.1358  0.2080
28011SOL     OW88970   1.347   5.195   6.812 -0.1864 -0.3353 -0.4694
28011SOL    HW188971   1.269   5.141   6.798  0.3901 -1.8597  1.6608
28011SOL    HW288972   1.337   5.229   6.900 -0.1125  2.4942 -1.4633
28012SOL     OW88973   9.298  10.394  10.705  0.4376 -0.0014  0.7222
28012SOL    HW188974   9.390  10.421  10.696  1.3074 -2.6937  0.6745
28012SOL    HW288975   9.302  10.316  10.760 -1.8931  0.0304  1.0094
28013SOL     OW88976  10.297  10.209   7.536 -0.1351 -0.2878  0.2006
28013SOL    HW188977  10.271  10.125   7.500  0.9865 -0.4124 -0.3649
28013SOL    HW288978  10.215  10.253   7.558 -0.7967 -0.8217 -1.1068
28014SOL     OW88979   7.413   5.028   0.295  0.1152 -0.1763 -0.2015
28014SOL    HW188980   7.485   4.988   0.245  0.7972 -0.7270  1.1615
28014SOL    HW288981   7.439   5.119   0.304  0.5006 -0.3023  0.0140
28015SOL     OW88982  11.194   5.167   9.497 -0.3637 -0.8313 -0.2632
28015SOL    HW188983  11.174   5.196   9.586 -0.8675  2.5186 -1.3249
28015SOL    HW288984  11.289   5.154   9.496 -0.5419 -2.7421  1.1361
28016SOL     OW88985   8.987   1.619   0.537  1.1377  0.0705  0.2099
28016SOL    HW188986   9.031   1.619   0.622  3.2051 -0.0835 -0.8192
28016SOL    HW288987   9.011   1.703   0.498  1.7162 -0.6192 -0.9624
28017SOL     OW88988   6.022   5.093   8.461 -0.7296 -0.9129 -0.5366
28017SOL    HW188989   6.021   5.139   8.377 -2.6540  1.6228  0.7128
28017SOL    HW288990   6.115   5.089   8.484 -0.3624  1.9298 -1.0619
28018SOL     OW88991   2.184   8.081   0.705  0.4698  0.7055 -0.2040
28018SOL    HW188992   2.155   8.021   0.773  2.0029  1.1458  0.8954
28018SOL    HW288993   2.134   8.056   0.627  0.7709 -1.7124  0.3115
28019SOL     OW88994   3.742   0.463   9.980 -0.2426  0.2528  0.2783
28019SOL    HW188995   3.759   0.544  10.028  1.6582  0.4375 -0.6279
28019SOL    HW288996   3.744   0.395  10.047 -0.2341  0.7732  0.8181
28020SOL     OW88997   4.183   3.359  10.945  0.0595  0.0992 -0.1012
28020SOL    HW188998   4.253   3.352  10.881 -1.2222  2.5835 -1.9501
28020SOL    HW288999   4.205   3.437  10.996 -1.1546  0.7378 -0.5078
28021SOL     OW89000   2.068  11.364   0.692 -0.2715  0.2247  0.7257
28021SOL    HW189001   1.997  11.299   0.693 -0.6456  0.6133  0.1847
28021SOL    HW289002   2.036  11.435   0.748 -0.4839  0.5664  0.1853
28022SOL     OW89003   6.067   0.186   6.861 -0.3371  0.2768 -0.4411
28022SOL    HW189004   6.151   0.140   6.853  0.5977  1.0437  3.1783
28022SOL    HW289005   6.007   0.122   6.898 -1.0277  0.1072 -1.7953
28023SOL     OW89006   9.113   4.831  11.129 -0.1058  0.3253 -0.1377
28023SOL    HW189007   9.030   4.811  11.172 -0.9760 -0.6294 -2.1284
28023SOL    HW289008   9.108   4.924  11.108 -0.7966  0.2219 -0.4566
28024SOL     OW89009   0.799   1.123   1.912  0.1094 -0.5021  0.0059
28024SOL    HW189010   0.739   1.075   1.970 -0.0182  0.4050  0.6456
28024SOL    HW289011   0.789   1.081   1.827 -1.4839 -0.3455  0.0889
28025SOL     OW89012   5.740   6.567   1.557  0.1666  0.7532  0.3656
28025SOL    HW189013   5.771   6.653   1.527 -0.3023  0.5896 -0.6378
28025SOL    HW289014   5.816   6.510   1.548  0.5256  1.0858  1.1843
28026SOL     OW89015   0.991   9.477   9.371  0.7765  0.3443 -0.4580
28026SOL    HW189016   0.995   9.479   9.466 -0.9152 -1.9639 -0.2596
28026SOL    HW289017   0.901   9.505   9.350  0.7321 -0.3656 -1.2748
28027SOL     OW89018   2.237   6.641   7.957 -0.3465 -0.3464  0.3014
28027SOL    HW189019   2.302   6.643   7.887  0.8393 -1.5721  1.2892
28027SOL    HW289020   2.178   6.713   7.938  0.3333 -0.2229 -1.5632
28028SOL     OW89021   9.294   6.851   3.894 -0.4131 -0.2268  0.2677
28028SOL    HW189022   9.205   6.845   3.929 -0.6713  0.1322 -0.3042
28028SOL    HW289023   9.282   6.848   3.799  0.2856 -1.3311  0.2031
28029SOL     OW89024   8.988   6.670   6.067  0.2137  0.1790  1.2560
28029SOL    HW189025   9.026   6.670   5.979 -0.1143 -1.3373  1.0895
28029SOL    HW289026   8.913   6.729   6.062  1.1289  1.3494  0.9601
28030SOL     OW89027  10.986  11.101   2.185 -0.1509 -0.3525  0.2668
28030SOL    HW189028  10.984  11.119   2.091 -0.6925  0.5520  0.4329
28030SOL    HW289029  10.894  11.107   2.212 -0.0705 -1.2092  0.7535
28031SOL     OW89030   6.535   2.510   9.657 -0.2749  0.8591 -0.5414
28031SOL    HW189031   6.494   2.466   9.731 -0.3988  0.6572 -0.7287
28031SOL    HW289032   6.592   2.576   9.697 -0.6237  1.0024 -0.2719
28032SOL     OW89033   7.475   3.877   0.175 -0.2393 -0.0154  0.3542
28032SOL    HW189034   7.540   3.947   0.180  0.7300 -0.8576  0.0191
28032SOL    HW289035   7.527   3.798   0.157 -1.2506 -0.9178  1.3150
28033SOL     OW89036   5.949   5.621   3.588 -0.2054 -0.1039 -0.5166
28033SOL    HW189037   5.862   5.624   3.547  0.2209 -0.3275 -1.4643
28033SOL    HW289038   5.977   5.712   3.591 -1.1574  0.1613  1.3334
28034SOL     OW89039   8.064   2.609  11.094  0.2817  0.6380  0.0867
28034SOL    HW189040   8.146   2.575  11.130 -0.3535  1.7616  2.9039
28034SOL    HW289041   8.039   2.679  11.155 -1.5028  2.0281 -2.1028
28035SOL     OW89042   4.830   3.292   8.140 -0.3771 -0.0697  0.3887
28035SOL    HW189043   4.911   3.243   8.156 -0.1665  0.1709  0.0831
28035SOL    HW289044   4.830   3.361   8.206  0.2460  0.6278 -0.3201
28036SOL     OW89045  10.658  10.348  11.031 -0.1752 -0.4074 -0.9318
28036SOL    HW189046  10.709  10.278  11.072  0.0809 -0.8481 -1.9677
28036SOL    HW289047  10.595  10.374  11.098  0.8348 -0.4556  0.0684
28037SOL     OW89048   2.690  10.063   3.460 -0.4763 -0.5575  0.3639
28037SOL    HW189049   2.676  10.156   3.445 -1.5741 -0.4018  2.0335
28037SOL    HW289050   2.769  10.042   3.411 -1.4245  0.7319 -1.8634
28038SOL     OW89051   6.817   2.220   6.353  0.1818  0.1575 -0.6094
28038SOL    HW189052   6.797   2.151   6.416  0.0687 -0.3775 -1.2131
28038SOL    HW289053   6.907   2.202   6.325  0.0018 -0.0144 -1.0929
28039SOL     OW89054   2.136   8.669   4.492  0.1652 -0.3860  0.3571
28039SOL    HW189055   2.104   8.691   4.579 -0.5791  0.3137 -0.0837
28039SOL    HW289056   2.136   8.573   4.490  0.7456 -0.4147  1.3184
28040SOL     OW89057   4.494   7.308   1.342  0.3212  0.5266  0.1761
28040SOL    HW189058   4.419   7.362   1.317 -0.6504 -0.5766  0.5892
28040SOL    HW289059   4.503   7.323   1.436 -0.2937 -0.4029  0.3968
28041SOL     OW89060   1.741   5.341   9.595  0.3934  0.3622 -0.4088
28041SOL    HW189061   1.706   5.326   9.507  1.7087 -2.8473 -0.5217
28041SOL    HW289062   1.825   5.384   9.580 -1.0040  3.2861 -0.4157
28042SOL     OW89063   5.815   0.166   0.388  0.2249  0.1253  0.6177
28042SOL    HW189064   5.767   0.182   0.469 -2.1483 -1.4431 -0.3368
28042SOL    HW289065   5.769   0.219   0.323  0.5767 -0.4307 -0.0972
28043SOL     OW89066   5.773   9.827   7.068  0.2691 -0.1975  0.7742
28043SOL    HW189067   5.759   9.750   7.012  1.8128 -0.3688  0.5853
28043SOL    HW289068   5.702   9.822   7.132 -2.9428  1.2037 -2.3435
28044SOL     OW89069   6.843  11.626   6.846 -0.2954 -0.6013  0.0533
28044SOL    HW189070   6.779  11.616   6.775 -1.6503 -0.0007  1.1404
28044SOL    HW289071   6.869  11.718   6.842  0.5354 -0.8356 -0.3675
28045SOL     OW89072  11.047   3.680  10.360 -0.2389 -0.3570  0.3088
28045SOL    HW189073  11.041   3.747  10.291 -0.3347 -1.5112 -0.8487
28045SOL    HW289074  10.974   3.700  10.419 -0.9362 -0.0664 -0.6179
28046SOL     OW89075   7.133   0.107   5.038  0.4765  0.5449  0.1350
28046SOL    HW189076   7.137   0.114   4.943 -0.2307 -0.2783  0.0386
28046SOL    HW289077   7.048   0.145   5.062  1.1946  1.9583  0.5770
28047SOL     OW89078   9.163  10.933   7.510 -0.4386  0.7088  0.0089
28047SOL    HW189079   9.101  10.860   7.502  0.5840 -0.1529 -0.2516
28047SOL    HW289080   9.237  10.908   7.455 -0.3256  2.2458 -0.5957
28048SOL     OW89081   1.960   1.205   1.680  0.0257 -0.0489  0.0048
28048SOL    HW189082   1.902   1.281   1.678  0.1288  0.0749  1.0298
28048SOL    HW289083   1.925   1.147   1.613  1.2476  1.7770 -2.3436
28049SOL     OW89084   1.784   4.352   8.425  0.4886  0.0877 -0.3325
28049SOL    HW189085   1.813   4.433   8.382  0.2189 -0.0478 -0.7712
28049SOL    HW289086   1.743   4.382   8.506  0.7747  0.3604 -0.2843
28050SOL     OW89087   6.822   6.053   2.470 -0.0333 -0.0081  0.4000
28050SOL    HW189088   6.877   6.033   2.545 -0.3577  1.8210  1.1943
28050SOL    HW289089   6.882   6.056   2.396  0.2242 -2.2424  0.4773
28051SOL     OW89090   8.171   2.133  10.922 -0.0011 -0.2921 -0.5328
28051SOL    HW189091   8.249   2.185  10.899 -0.1066 -0.5747 -1.6151
28051SOL    HW289092   8.204   2.065  10.980  0.0573  1.2519  1.3520
28052SOL     OW89093   5.956   5.720   0.410 -0.0551  0.3510 -0.2806
28052SOL    HW189094   6.047   5.690   0.409  0.5231  1.9912 -0.2631
28052SOL    HW289095   5.949   5.775   0.332 -1.4632 -0.8671 -1.0665
28053SOL     OW89096   4.326  10.914   9.964 -0.2818 -0.2144 -0.3604
28053SOL    HW189097   4.284  11.000   9.957 -0.1470 -0.1123  0.0769
28053SOL    HW289098   4.420  10.933   9.964 -0.2471 -0.3791 -0.4506
28054SOL     OW89099   9.839   2.365  11.610 -0.1488 -0.4240 -0.1599
28054SOL    HW189100   9.921   2.374  11.658 -0.4183  0.5522  0.1440
28054SOL    HW289101   9.775   2.412  11.663 -0.7784 -0.6699 -0.6896
28055SOL     OW89102   5.327   4.949   0.012  0.1177 -0.2066 -0.2160
28055SOL    HW189103   5.307   4.858  -0.010 -0.2818 -0.1751 -0.0016
28055SOL    HW289104   5.250   4.979   0.061  0.8780 -0.2219  1.0385
28056SOL     OW89105   1.757   5.125   9.864  0.4728  0.2712  0.7018
28056SOL    HW189106   1.800   5.089   9.787 -0.0770  0.1588  0.4419
28056SOL    HW289107   1.741   5.049   9.920  0.4226  0.2802  0.7005
28057SOL     OW89108   6.028   7.386   7.433  0.3397 -0.0407 -0.2228
28057SOL    HW189109   6.067   7.338   7.506  0.0024  0.7568  0.4937
28057SOL    HW289110   6.030   7.477   7.461 -2.4057  0.0096  0.0543
28058SOL     OW89111   0.759   7.056   2.083 -0.1080 -0.3527 -0.5613
28058SOL    HW189112   0.746   7.023   1.994 -1.0164 -0.5380 -0.3656
28058SOL    HW289113   0.750   6.978   2.138  0.3929 -0.2269 -0.2951
28059SOL     OW89114   3.997  10.981   2.191  0.2270  0.2700 -0.0967
28059SOL    HW189115   4.047  10.927   2.253  1.2427  1.2209 -0.0689
28059SOL    HW289116   4.008  11.071   2.223 -3.3333  0.4066  1.2267
28060SOL     OW89117   7.262   3.787   0.760  0.3701 -0.2793  0.2018
28060SOL    HW189118   7.216   3.744   0.688 -0.3673  2.2905 -1.0086
28060SOL    HW289119   7.335   3.832   0.717  1.1125 -0.3013  1.3895
28061SOL     OW89120  10.645   9.434   8.904  0.2690  0.1043 -0.4773
28061SOL    HW189121  10.625   9.361   8.963 -0.2245  0.1997 -0.5152
28061SOL    HW289122  10.699   9.396   8.835 -2.1763 -0.8915 -1.9988
28062SOL     OW89123   4.405   9.564   5.240 -0.5258 -0.4702 -0.4390
28062SOL    HW189124   4.478   9.613   5.202 -0.6678  0.0008 -0.1174
28062SOL    HW289125   4.383   9.613   5.319 -0.5200 -1.1835  0.0143
28063SOL     OW89126   3.602  10.689   1.968  0.4423  0.0654 -0.0642
28063SOL    HW189127   3.672  10.752   1.949  0.3860 -0.2343 -1.3537
28063SOL    HW289128   3.529  10.716   1.913 -0.5544  0.4880  1.4157
28064SOL     OW89129   7.056   9.063   4.044  0.3421 -0.9268 -0.0930
28064SOL    HW189130   7.110   9.065   4.123 -0.3255 -0.7821  0.3675
28064SOL    HW289131   7.100   9.122   3.982  0.8538 -1.0259  0.1738
28065SOL     OW89132   6.251   9.380   6.255 -0.1240 -0.3575  0.1010
28065SOL    HW189133   6.225   9.366   6.346  0.2230  1.3494  0.5078
28065SOL    HW289134   6.247   9.293   6.214  3.1225 -1.9051  2.6036
28066SOL     OW89135   3.728   5.906   9.596  0.5453 -0.3121  0.3598
28066SOL    HW189136   3.672   5.904   9.673 -0.3473  0.8088 -0.2247
28066SOL    HW289137   3.691   5.975   9.541  1.3826 -0.8285 -0.9052
28067SOL     OW89138   2.873   2.142  10.557 -0.0417  0.0606  0.8165
28067SOL    HW189139   2.951   2.094  10.587  0.7592  1.4400  1.0410
28067SOL    HW289140   2.895   2.170  10.469 -0.5661 -0.1034  0.6305
28068SOL     OW89141   0.819   8.749   5.850  0.2541  0.2544  0.5809
28068SOL    HW189142   0.734   8.788   5.867 -0.5084  0.6808 -3.2118
28068SOL    HW289143   0.802   8.682   5.783  2.6965 -0.7317  0.8210
28069SOL     OW89144   5.800   5.420  10.957 -0.4821  0.5094  0.7203
28069SOL    HW189145   5.892   5.448  10.957  0.0037 -1.0054  1.1118
28069SOL    HW289146   5.753   5.491  11.001  0.2147  2.1316 -1.0106
28070SOL     OW89147   6.853   3.907   1.095  0.6178 -0.0338  0.2655
28070SOL    HW189148   6.893   3.942   1.015 -0.0442  0.9010  0.3168
28070SOL    HW289149   6.860   3.812   1.086 -1.2160 -0.0467 -1.8673
28071SOL     OW89150   9.987   4.334   6.207 -0.1964  0.8754  0.4045
28071SOL    HW189151   9.969   4.267   6.140  0.8468  1.3681 -0.3841
28071SOL    HW289152   9.975   4.417   6.162 -2.4792  1.3029  1.6301
28072SOL     OW89153   6.602  10.202   3.509 -0.0151  0.0424 -0.0565
28072SOL    HW189154   6.583  10.261   3.582  0.1138 -1.5303  1.3114
28072SOL    HW289155   6.519  10.158   3.491  0.5813 -1.8074  1.2931
28073SOL     OW89156   6.453   5.759   4.233  0.4663 -0.2147 -0.7778
28073SOL    HW189157   6.414   5.682   4.191  0.3124 -1.1654  0.9961
28073SOL    HW289158   6.530   5.778   4.179  1.1255 -2.3063 -0.6851
28074SOL     OW89159  10.525   4.898   5.255  0.5966 -0.3194  0.2254
28074SOL    HW189160  10.575   4.887   5.336 -0.3434 -1.3976  0.6806
28074SOL    HW289161  10.591   4.893   5.186  1.2075 -1.0576  0.8403
28075SOL     OW89162   7.912  10.757   0.975 -0.0511  0.2094 -0.2354
28075SOL    HW189163   7.843  10.699   0.943  0.9945 -1.5523  0.5684
28075SOL    HW289164   7.990  10.701   0.980  0.9508  1.6360  0.7695
28076SOL     OW89165   4.140   4.493   8.540  0.3360 -0.3373 -0.1611
28076SOL    HW189166   4.234   4.501   8.523  0.4139 -0.1179  0.3759
28076SOL    HW289167   4.098   4.540   8.468  0.6629  0.4077  0.1261
28077SOL     OW89168   1.487  11.024   9.958 -0.3994 -0.3139  0.4449
28077SOL    HW189169   1.396  11.049   9.945 -0.4637 -0.2455  0.9943
28077SOL    HW289170   1.503  11.037  10.052  0.2804  0.0143  0.2937
28078SOL     OW89171   7.677   3.902   2.318  0.2933  0.0054 -0.2688
28078SOL    HW189172   7.643   3.888   2.230  1.8409  0.4273 -0.9611
28078SOL    HW289173   7.699   3.814   2.350 -1.1872 -0.2582  0.1247
28079SOL     OW89174   9.731   2.591   4.143 -0.0740 -0.0011 -0.1181
28079SOL    HW189175   9.722   2.501   4.111 -0.2805 -0.3903  0.9852
28079SOL    HW289176   9.808   2.625   4.098 -0.7472 -0.2650 -1.5613
28080SOL     OW89177   8.188   2.489   8.683 -0.2749  0.4053  0.3952
28080SOL    HW189178   8.247   2.537   8.742  0.0260 -1.0411  1.3071
28080SOL    HW289179   8.145   2.558   8.632  1.1813  1.5679  0.6678
28081SOL     OW89180  11.284   8.900   1.378 -0.0352  0.2220 -0.8471
28081SOL    HW189181  11.359   8.885   1.321  0.2505  2.1229 -1.0486
28081SOL    HW289182  11.314   8.965   1.441 -0.7823 -0.8136  0.6309
28082SOL     OW89183   8.099   6.029   5.939  0.0862  0.3152 -0.0583
28082SOL    HW189184   8.136   6.114   5.962 -0.4246  0.4666  0.2295
28082SOL    HW289185   8.029   6.049   5.876 -3.2959  0.7097  3.4171
28083SOL     OW89186   5.811  10.209   4.622  0.2755 -0.0282 -0.3679
28083SOL    HW189187   5.842  10.230   4.710 -0.6185 -1.3021  0.2770
28083SOL    HW289188   5.802  10.295   4.580  0.3245  0.6417  0.9070
28084SOL     OW89189   1.281   5.178   7.518 -0.0535  0.0078  1.0457
28084SOL    HW189190   1.304   5.259   7.564 -0.4190 -0.6105  2.3687
28084SOL    HW289191   1.314   5.190   7.429  0.4931  1.3338  1.4118
28085SOL     OW89192   7.181   8.830   0.567  0.2110 -0.2095  0.0260
28085SOL    HW189193   7.086   8.817   0.572  0.2946 -1.5108 -1.3099
28085SOL    HW289194   7.193   8.921   0.595 -1.3816 -0.1311  0.6058
28086SOL     OW89195  10.533   5.071  10.955  0.1416  0.1385 -0.4092
28086SOL    HW189196  10.611   5.018  10.967  0.0108 -0.0369 -0.3193
28086SOL    HW289197  10.488   5.031  10.881 -0.4967 -0.5350  0.3263
28087SOL     OW89198  11.419   1.432   1.598 -0.0775  0.1999  0.1507
28087SOL    HW189199  11.361   1.507   1.607 -1.8159 -0.8312 -1.7549
28087SOL    HW289200  11.426   1.418   1.504  0.8419 -1.5586  0.4369
28088SOL     OW89201   4.614   9.512   2.906 -0.6806 -0.2517  0.7595
28088SOL    HW189202   4.674   9.563   2.961  2.2509 -0.7395 -1.7202
28088SOL    HW289203   4.618   9.424   2.943  0.8249 -0.4527  0.2189
28089SOL     OW89204   9.197  10.995   1.348 -0.3806  0.2410 -0.3079
28089SOL    HW189205   9.227  11.047   1.422 -0.9109  1.0973 -0.6778
28089SOL    HW289206   9.145  10.925   1.387  0.5811 -0.2094  0.2129
28090SOL     OW89207   6.211   1.700   4.398  0.0137 -0.0128  0.3971
28090SOL    HW189208   6.245   1.719   4.486  0.8128  1.0147 -0.1057
28090SOL    HW289209   6.158   1.776   4.376  2.7439  1.5729 -1.4034
28091SOL     OW89210   4.844   4.093   8.745  0.0886 -0.0259 -0.4083
28091SOL    HW189211   4.855   4.154   8.817 -0.1592  0.3907 -0.7169
28091SOL    HW289212   4.829   4.008   8.786 -0.7945  0.3393  0.0331
28092SOL     OW89213  10.229  10.795   0.341 -0.5207 -0.3009 -0.0431
28092SOL    HW189214  10.155  10.826   0.394 -0.7455  0.7561 -0.9463
28092SOL    HW289215  10.307  10.816   0.394 -0.7007  1.3424 -0.3826
28093SOL     OW89216   1.263  10.529  10.050 -0.4221 -0.2827 -0.1069
28093SOL    HW189217   1.222  10.459   9.998  2.1406 -0.7596 -1.6470
28093SOL    HW289218   1.302  10.483  10.124  0.0896 -0.3151 -0.3912
28094SOL     OW89219   4.244   1.684   3.616  0.0119  0.2814 -0.3513
28094SOL    HW189220   4.201   1.765   3.642 -1.2747 -1.2801  2.9456
28094SOL    HW289221   4.299   1.660   3.691 -0.9083 -2.6453 -0.4802
28095SOL     OW89222   6.839   3.249   6.716 -0.1131 -0.5746  0.0140
28095SOL    HW189223   6.783   3.186   6.761 -0.7420 -0.7311 -0.9401
28095SOL    HW289224   6.792   3.333   6.724  1.0099 -0.0635  1.7945
28096SOL     OW89225   2.385   9.541   1.414  0.2724 -0.0296 -0.3749
28096SOL    HW189226   2.452   9.569   1.476 -1.3294  0.5199  1.1779
28096SOL    HW289227   2.317   9.609   1.420 -0.9605 -1.1702 -1.0008
28097SOL     OW89228   3.857   2.503   7.535  0.5094 -0.8516 -0.6591
28097SOL    HW189229   3.840   2.574   7.473 -0.3177 -1.0063 -0.6207
28097SOL    HW289230   3.893   2.432   7.481 -1.6711 -1.5637 -1.2678
28098SOL     OW89231   9.650  11.463   8.800 -0.2763  0.0594 -0.3902
28098SOL    HW189232   9.608  11.457   8.714  0.1675 -1.1435 -0.5355
28098SOL    HW289233   9.634  11.553   8.828 -2.3947 -0.1828 -0.7012
28099SOL     OW89234   3.719   6.737   0.499 -0.4225  0.4923 -0.5765
28099SOL    HW189235   3.753   6.692   0.576 -1.3307 -1.4214 -1.2324
28099SOL    HW289236   3.690   6.823   0.532 -0.4714 -0.1443  1.1351
28100SOL     OW89237   5.614   4.373  10.625  0.1693  0.0805 -0.2196
28100SOL    HW189238   5.692   4.427  10.609 -0.6896  1.1532 -0.9360
28100SOL    HW289239   5.581   4.402  10.709 -0.9168  1.5239 -1.0931
28101SOL     OW89240   8.258   5.533   5.741 -0.1141  0.0697 -0.1286
28101SOL    HW189241   8.345   5.572   5.739 -0.6537  1.3054 -0.8635
28101SOL    HW289242   8.227   5.536   5.651 -0.7706 -0.7280  0.0510
28102SOL     OW89243   1.265   3.164   8.438 -0.3463 -0.6119 -0.2702
28102SOL    HW189244   1.262   3.160   8.342 -2.6853  1.7860 -0.4065
28102SOL    HW289245   1.174   3.179   8.464  0.6442  2.2735  2.0770
28103SOL     OW89246   4.205   2.265   6.786 -0.2927 -0.3106  0.1613
28103SOL    HW189247   4.124   2.222   6.756 -0.8583  0.4755  0.5217
28103SOL    HW289248   4.235   2.211   6.859 -0.9222 -0.1809  0.5230
28104SOL     OW89249   4.126   5.093   9.901 -0.5485  0.9793 -0.1836
28104SOL    HW189250   4.052   5.154   9.899 -1.6384 -0.2960 -0.6817
28104SOL    HW289251   4.090   5.014   9.941  0.7299  0.5257  0.1098
28105SOL     OW89252   2.543   2.232   0.362 -0.0591 -0.1672  0.0252
28105SOL    HW189253   2.525   2.195   0.449 -0.8092  0.5193  0.1694
28105SOL    HW289254   2.538   2.327   0.374 -0.4804 -0.0732 -0.8380
28106SOL     OW89255   0.974   4.386   6.384  0.3205  0.2078  0.4060
28106SOL    HW189256   1.063   4.355   6.401  0.3351 -0.3835 -0.6711
28106SOL    HW289257   0.937   4.321   6.323 -0.3609  1.1913 -0.2580
28107SOL     OW89258   2.057  10.720   5.627  0.8016  0.2587  0.9728
28107SOL    HW189259   1.984  10.717   5.690 -0.4663  0.7325 -0.4087
28107SOL    HW289260   2.070  10.628   5.602 -0.2941  0.2968  0.1917
28108SOL     OW89261   4.150   3.539   3.022 -0.5729  0.3787  0.1036
28108SOL    HW189262   4.140   3.625   2.980 -0.4998 -0.0765 -0.8679
28108SOL    HW289263   4.090   3.482   2.973  0.5140 -0.4700 -0.2670
28109SOL     OW89264   6.677   8.072   6.862 -0.1440 -0.4660 -0.2603
28109SOL    HW189265   6.598   8.079   6.808 -0.5154  1.3132  0.4104
28109SOL    HW289266   6.649   8.020   6.938 -1.0661  1.0561  0.5117
28110SOL     OW89267   3.300   1.557   1.394 -0.2887 -0.4610  0.0629
28110SOL    HW189268   3.253   1.532   1.473  0.6716  0.0355  0.8218
28110SOL    HW289269   3.362   1.624   1.424  1.5575 -1.7584 -0.6974
28111SOL     OW89270   4.177   7.236   7.364  0.3907 -0.0496  0.2289
28111SOL    HW189271   4.093   7.273   7.390  0.0081 -1.5399  1.2758
28111SOL    HW289272   4.242   7.302   7.389 -0.2649  0.0185  1.8452
28112SOL     OW89273   4.936   2.523   4.514 -0.1228  0.4041 -0.7943
28112SOL    HW189274   4.866   2.585   4.537 -2.1798 -1.8789 -0.5213
28112SOL    HW289275   4.957   2.544   4.423 -2.5496  0.0072 -1.5282
28113SOL     OW89276   7.064   7.777   3.095  0.5568  0.3672 -0.8318
28113SOL    HW189277   7.150   7.774   3.136 -0.0487 -0.2354  0.4779
28113SOL    HW289278   7.081   7.780   3.001  2.0262  2.2257 -0.5718
28114SOL     OW89279  10.116   6.085   1.014 -0.3005 -0.3093  0.5761
28114SOL    HW189280  10.067   6.166   0.998 -0.0829 -0.2837  0.0198
28114SOL    HW289281  10.195   6.093   0.961 -0.6082 -1.1876 -0.0482
28115SOL     OW89282   1.245   0.668  10.161 -0.1465 -0.0375 -0.4876
28115SOL    HW189283   1.177   0.729  10.190  0.0489  1.3830 -2.8065
28115SOL    HW289284   1.212   0.582  10.188 -1.8980  0.7881  0.1994
28116SOL     OW89285   9.716   2.553   7.215 -0.6310 -0.3804 -0.0456
28116SOL    HW189286   9.787   2.507   7.261 -0.1958 -0.5177 -0.8308
28116SOL    HW289287   9.756   2.635   7.186 -1.2905  0.3296  0.9905
28117SOL     OW89288   5.636   7.313   6.612 -0.2436  0.0568 -0.5712
28117SOL    HW189289   5.616   7.363   6.533 -1.1983  0.8429  0.1394
28117SOL    HW289290   5.625   7.221   6.586 -3.6949  0.3541 -0.6056
28118SOL     OW89291   6.275   0.222   6.165  0.7163  0.2994  0.7569
28118SOL    HW189292   6.286   0.272   6.084 -0.4109  0.6820  0.8339
28118SOL    HW289293   6.190   0.249   6.200 -0.3672 -2.2902  0.3643
28119SOL     OW89294   0.379   5.820   2.945  0.0287  0.6380 -0.1053
28119SOL    HW189295   0.343   5.800   2.859 -1.8387 -1.0763  0.9771
28119SOL    HW289296   0.460   5.771   2.950 -1.3377 -1.7556  0.1345
28120SOL     OW89297   0.073   8.475  10.014 -0.0066  0.1004  0.2067
28120SOL    HW189298  -0.013   8.515  10.028  0.0083  0.3774 -0.4404
28120SOL    HW289299   0.128   8.511  10.083  0.4844  2.6579 -1.3592
28121SOL     OW89300   0.018   1.465   3.447  0.2810 -0.1118 -0.7001
28121SOL    HW189301   0.098   1.469   3.394 -0.4598 -0.2255 -1.8656
28121SOL    HW289302  -0.053   1.462   3.383 -0.7750  1.8521  0.2984
28122SOL     OW89303   9.546   1.428   3.002  0.0718 -0.0636 -0.3137
28122SOL    HW189304   9.632   1.447   2.963  0.7625 -0.4072  0.9577
28122SOL    HW289305   9.492   1.398   2.929  0.7722  0.9714 -1.2940
28123SOL     OW89306   8.350   8.016   6.277  0.1624  0.0257 -0.4746
28123SOL    HW189307   8.406   7.949   6.238  0.3196 -1.2009  1.7456
28123SOL    HW289308   8.261   7.981   6.268  0.1939 -0.2366  0.1917
28124SOL     OW89309   5.746   0.995   9.522 -0.1288  0.0861 -0.0462
28124SOL    HW189310   5.776   0.992   9.612  1.1854 -0.9281 -0.4766
28124SOL    HW289311   5.820   1.031   9.473  0.3820 -2.2174 -1.1049
28125SOL     OW89312  11.141   4.141   6.321 -0.1757 -0.3804 -0.2078
28125SOL    HW189313  11.078   4.178   6.383 -0.9568 -0.7014 -0.7887
28125SOL    HW289314  11.190   4.077   6.372 -0.2172 -0.0148  0.2940
28126SOL     OW89315   5.529   7.485   3.464  0.0995  0.3494 -0.1424
28126SOL    HW189316   5.621   7.466   3.443  0.2728 -1.1459  1.7161
28126SOL    HW289317   5.532   7.525   3.551 -1.0421 -0.2980  0.2150
28127SOL     OW89318  11.410   2.651   3.578  0.3276 -0.1239 -0.2935
28127SOL    HW189319  11.495   2.647   3.534 -0.3852 -0.2410 -1.7102
28127SOL    HW289320  11.403   2.741   3.609  0.3912  0.2764 -1.3953
28128SOL     OW89321   2.841   5.809   1.774  0.1801 -0.0847 -0.7257
28128SOL    HW189322   2.746   5.796   1.768  0.3639 -2.6981  0.3042
28128SOL    HW289323   2.856   5.896   1.738 -2.6743  0.6881 -0.3265
28129SOL     OW89324   9.580   7.786   1.572  0.4684  0.9723 -0.0081
28129SOL    HW189325   9.531   7.844   1.630 -1.5162  0.8832 -1.4871
28129SOL    HW289326   9.551   7.810   1.484  1.4708 -0.5977 -0.8150
28130SOL     OW89327   9.982   9.306   3.326 -0.0840 -0.2945  0.3974
28130SOL    HW189328  10.028   9.226   3.300 -0.4906 -0.5995  0.5930
28130SOL    HW289329   9.891   9.278   3.339 -0.8555  0.7249 -2.1683
28131SOL     OW89330  10.626   5.862   0.121  0.2041 -0.5135  0.2485
28131SOL    HW189331  10.690   5.793   0.111  0.3403 -0.1634 -1.6408
28131SOL    HW289332  10.573   5.836   0.197  2.3002 -0.9878  1.6055
28132SOL     OW89333   2.656   2.686   3.881  0.8622 -0.0157  0.3928
28132SOL    HW189334   2.620   2.647   3.800  0.0645  0.8372  0.3144
28132SOL    HW289335   2.745   2.653   3.885  0.2269 -1.8855  0.3560
28133SOL     OW89336  11.536   5.607   6.553  0.6848  0.4336  0.1270
28133SOL    HW189337  11.540   5.610   6.457 -1.8213  1.5484 -0.0263
28133SOL    HW289338  11.605   5.545   6.578  0.0061 -1.5902 -2.5169
28134SOL     OW89339   2.986   7.710   8.000  0.3312  0.1785  0.2843
28134SOL    HW189340   2.994   7.746   8.089 -0.2950  1.5327 -0.1840
28134SOL    HW289341   2.956   7.621   8.014  1.3195 -0.0102  1.4723
28135SOL     OW89342   7.931   8.294   6.752 -0.6927 -0.0932  0.5560
28135SOL    HW189343   7.945   8.315   6.660  0.1095 -0.6431  0.5367
28135SOL    HW289344   7.979   8.362   6.800  0.4257 -0.8348  0.5234
28136SOL     OW89345   0.724   9.517  10.383 -0.1005 -0.1705  0.4822
28136SOL    HW189346   0.729   9.493  10.476  0.4030 -2.7275 -0.1176
28136SOL    HW289347   0.712   9.433  10.338  1.7919  0.7274 -1.9205
28137SOL     OW89348   3.357   8.252   5.626  0.0468 -0.5285 -0.0214
28137SOL    HW189349   3.341   8.224   5.716 -2.0861  3.4508  1.0653
28137SOL    HW289350   3.276   8.230   5.579 -0.7244  1.4469  0.2875
28138SOL     OW89351  10.657   8.799   6.815  0.1705 -0.1703 -0.8555
28138SOL    HW189352  10.599   8.875   6.807  0.6365  0.3945  0.7340
28138SOL    HW289353  10.657   8.778   6.908  3.5509  0.7403 -0.4828
28139SOL     OW89354  10.378   6.863   8.431 -0.0197 -0.3259  0.3073
28139SOL    HW189355  10.464   6.903   8.426  0.8806 -2.2611 -1.0466
28139SOL    HW289356  10.317   6.936   8.435  1.6469  1.0849  1.0039
28140SOL     OW89357   2.763   4.321   6.037 -0.0595  0.1889 -0.0855
28140SOL    HW189358   2.710   4.400   6.035 -1.1809 -0.4683  1.4022
28140SOL    HW289359   2.805   4.323   6.124 -1.0380 -1.3970  0.4591
28141SOL     OW89360   7.605   0.574   4.691  0.5234  0.2715 -0.0634
28141SOL    HW189361   7.589   0.667   4.704 -1.3374  0.1919 -1.4161
28141SOL    HW289362   7.537   0.546   4.630 -1.0476 -2.6350  2.7000
28142SOL     OW89363   7.642   4.385   4.100 -0.0294 -0.5339  0.2479
28142SOL    HW189364   7.674   4.475   4.097 -2.2623  0.3257  0.4386
28142SOL    HW289365   7.672   4.352   4.185  2.4349 -0.7035 -0.5974
28143SOL     OW89366   7.674  10.560   9.170  0.4394  0.8588 -0.5872
28143SOL    HW189367   7.728  10.482   9.186 -3.1352 -1.5849  1.0754
28143SOL    HW289368   7.734  10.634   9.182  3.3985 -1.5620  1.0405
28144SOL     OW89369   9.239  10.182   8.751 -0.3209 -0.2618  0.3440
28144SOL    HW189370   9.243  10.254   8.814 -1.6236  0.9556 -0.9065
28144SOL    HW289371   9.242  10.103   8.806  0.1704  0.7207  1.8071
28145SOL     OW89372   0.639   0.633   7.739 -0.6955 -0.1293 -0.0751
28145SOL    HW189373   0.701   0.687   7.690  1.0804 -0.0082  2.1600
28145SOL    HW289374   0.568   0.693   7.763  0.2625  0.7504  0.6573
28146SOL     OW89375   3.125   8.047   4.011  0.6939  0.1510 -0.3842
28146SOL    HW189376   3.040   8.082   3.984  1.7001  1.0181 -2.7096
28146SOL    HW289377   3.107   7.999   4.091 -2.1042 -0.2184 -1.1327
28147SOL     OW89378   7.516   7.410   8.297  0.5221  0.4995  0.6505
28147SOL    HW189379   7.459   7.471   8.250  1.6949  0.4423 -0.9354
28147SOL    HW289380   7.566   7.466   8.357 -0.7715  0.6176  1.6508
28148SOL     OW89381   2.062   6.753   7.605  0.0309  0.5738  0.0162
28148SOL    HW189382   2.017   6.835   7.585 -2.9716 -1.1661 -0.8988
28148SOL    HW289383   2.043   6.737   7.698 -1.7550 -0.3487 -0.4591
28149SOL     OW89384  11.554   7.185   4.805  0.7841 -0.2642  0.8856
28149SOL    HW189385  11.551   7.090   4.820  0.1799 -0.4930 -0.4654
28149SOL    HW289386  11.646   7.208   4.809  1.0515 -1.1351  0.0658
28150SOL     OW89387   5.621   0.360  10.430  0.5078 -0.8610 -0.3082
28150SOL    HW189388   5.713   0.388  10.436  1.2905 -3.3265  0.0217
28150SOL    HW289389   5.585   0.381  10.516  0.9381 -0.4985 -0.2072
28151SOL     OW89390  10.686   9.756   4.821  0.5157 -0.0722 -0.2603
28151SOL    HW189391  10.691   9.818   4.894  1.6172 -0.5057  0.0601
28151SOL    HW289392  10.674   9.811   4.744  0.4177  0.4680  0.1323
28152SOL     OW89393   3.025   9.905   8.078  0.1602 -0.2297  0.1577
28152SOL    HW189394   3.050   9.855   8.156 -0.8331 -0.1223  0.5618
28152SOL    HW289395   2.977   9.980   8.112 -0.1927 -0.1217 -0.5499
28153SOL     OW89396   9.324  10.622   1.037 -0.0652 -0.2027 -0.0332
28153SOL    HW189397   9.359  10.588   1.120 -2.4762  0.0441  1.1649
28153SOL    HW289398   9.333  10.717   1.044 -1.3907 -0.1051  0.5115
28154SOL     OW89399   9.116   1.945   0.710  0.1111  0.6115  0.3926
28154SOL    HW189400   9.027   1.966   0.681  0.8661  0.4658 -2.3150
28154SOL    HW289401   9.173   1.977   0.639  2.1711  0.1205  1.7356
28155SOL     OW89402   4.083   0.367   1.285  0.2152 -0.1935  0.4872
28155SOL    HW189403   4.029   0.397   1.358  1.2717 -0.7159  1.5244
28155SOL    HW289404   4.131   0.292   1.321  2.2928  0.7942 -0.0842
28156SOL     OW89405   3.147   0.974   2.374  0.2881 -0.5932  0.2920
28156SOL    HW189406   3.180   0.887   2.397  0.2306 -1.1742 -1.6077
28156SOL    HW289407   3.079   0.957   2.308 -0.6834  0.8293  0.8817
28157SOL     OW89408   9.050   0.673  10.388  0.0473 -0.0928 -0.0305
28157SOL    HW189409   9.005   0.706  10.310  1.2294  2.5007  0.2986
28157SOL    HW289410   8.980   0.654  10.450 -0.7783 -0.0386 -0.9236
28158SOL     OW89411   3.460   2.943   8.775 -0.0823  0.2306  0.1467
28158SOL    HW189412   3.421   2.881   8.836  2.5614 -2.2734 -0.4940
28158SOL    HW289413   3.486   2.889   8.700  0.0553  2.5790 -1.6047
28159SOL     OW89414   0.867   9.217   3.175 -0.3149 -0.2947 -0.3440
28159SOL    HW189415   0.905   9.129   3.165  0.8889  0.3795 -2.1181
28159SOL    HW289416   0.901   9.248   3.259  0.4162 -0.9701 -0.3775
28160SOL     OW89417   1.807   6.369   3.287 -0.9358 -0.1098 -0.3084
28160SOL    HW189418   1.720   6.334   3.306 -0.9628  0.0009 -0.2241
28160SOL    HW289419   1.796   6.464   3.288 -0.6548 -0.0757  0.4920
28161SOL     OW89420  10.998   6.584   4.628 -0.5408  0.1046 -0.4853
28161SOL    HW189421  10.954   6.501   4.648  1.7503 -1.0796  0.0147
28161SOL    HW289422  11.042   6.607   4.710  1.3710  0.1455 -1.4721
28162SOL     OW89423   3.842   4.118   7.334 -0.6983  0.1756 -0.7417
28162SOL    HW189424   3.931   4.133   7.304 -1.3197 -1.4618 -3.7930
28162SOL    HW289425   3.842   4.027   7.365 -1.4279 -0.0975 -1.4907
28163SOL     OW89426   4.634   1.965   9.622 -0.6878 -0.2069  1.1690
28163SOL    HW189427   4.667   1.929   9.541 -0.9004 -0.5708  1.2432
28163SOL    HW289428   4.648   2.060   9.614  0.7682 -0.3840  1.3869
28164SOL     OW89429   8.712  10.263   6.817 -0.4951  0.0155 -0.6299
28164SOL    HW189430   8.781  10.197   6.810 -0.6010  0.0256 -2.0817
28164SOL    HW289431   8.633  10.218   6.785 -0.2327  1.2700 -3.3947
28165SOL     OW89432   6.093   5.607   9.045  0.2278  0.1343  0.6886
28165SOL    HW189433   6.041   5.584   8.968  0.6305  0.6658  0.2499
28165SOL    HW289434   6.182   5.619   9.011  0.6175 -0.6230  1.4062
28166SOL     OW89435   7.552   3.465   4.133 -0.5408  0.4932  0.5815
28166SOL    HW189436   7.501   3.427   4.062 -1.2679 -0.0045  1.3495
28166SOL    HW289437   7.630   3.411   4.138 -0.8402  0.0605  0.6456
28167SOL     OW89438   4.576  10.362   5.849 -0.0150  0.2176 -0.1947
28167SOL    HW189439   4.484  10.390   5.843 -0.0324  0.8729  2.1506
28167SOL    HW289440   4.578  10.279   5.801 -2.2691 -0.7058  1.1087
28168SOL     OW89441   7.081   7.628   0.227 -0.2551 -0.0466  0.0974
28168SOL    HW189442   7.097   7.696   0.292  2.0876 -0.1982 -0.2541
28168SOL    HW289443   7.069   7.548   0.278 -0.2898  0.1498  0.3981
28169SOL     OW89444   9.435   9.717   6.200  0.2178  0.2075 -0.1951
28169SOL    HW189445   9.434   9.734   6.106  1.3901 -2.2799 -0.7400
28169SOL    HW289446   9.505   9.772   6.234  0.7900  0.0471 -1.0662
28170SOL     OW89447   4.328   3.935   1.052  0.0193  0.1156 -0.3657
28170SOL    HW189448   4.420   3.936   1.023  0.5703 -1.3534  1.1652
28170SOL    HW289449   4.278   3.918   0.972  1.1179  0.4632 -1.1462
28171SOL     OW89450   5.533   4.457   2.486 -0.2662 -0.1938  0.3243
28171SOL    HW189451   5.495   4.444   2.398  1.6150 -0.2488 -0.5234
28171SOL    HW289452   5.548   4.368   2.518  2.8576 -0.3284 -1.0997
28172SOL     OW89453   9.058   0.389   1.942  0.4502  0.1047 -0.1927
28172SOL    HW189454   9.055   0.451   2.015 -0.3369 -0.2951  0.1202
28172SOL    HW289455   9.149   0.393   1.912  0.9956 -0.3259  1.3123
28173SOL     OW89456   0.215   4.012   0.277 -0.0699 -0.9210  0.3405
28173SOL    HW189457   0.286   3.975   0.330  1.4151  0.9337 -0.2513
28173SOL    HW289458   0.226   3.971   0.192  0.4314 -0.5100  0.2000
28174SOL     OW89459   8.011  10.365   6.254  0.5136  0.3713  0.0021
28174SOL    HW189460   8.013  10.347   6.348 -2.0303  2.5355  0.6002
28174SOL    HW289461   8.024  10.279   6.213  2.1853 -0.5435  2.2666
28175SOL     OW89462   7.107   1.634   6.722  0.4980 -0.3278 -0.0615
28175SOL    HW189463   7.076   1.636   6.813 -0.6232 -0.3287 -0.4312
28175SOL    HW289464   7.053   1.567   6.680  1.6664 -1.0179 -0.5089
28176SOL     OW89465   8.324   7.976   1.526 -0.2495 -0.6877 -0.3619
28176SOL    HW189466   8.318   7.967   1.621 -0.8601  3.9529  0.2911
28176SOL    HW289467   8.234   7.972   1.495 -0.2251 -0.3459 -0.4789
28177SOL     OW89468   8.581   0.406   0.637 -0.2189  0.4031  0.1126
28177SOL    HW189469   8.539   0.341   0.581 -0.0743 -0.4981  1.0261
28177SOL    HW289470   8.517   0.423   0.706 -0.3141  1.3517 -0.1978
28178SOL     OW89471   7.567   1.753   3.826 -0.6124 -0.1891 -0.5183
28178SOL    HW189472   7.602   1.669   3.854  1.5417  0.6009 -0.6047
28178SOL    HW289473   7.545   1.799   3.907 -3.2333 -1.3026 -0.4888
28179SOL     OW89474  10.683   0.200   2.668 -0.0133 -0.5650  0.0302
28179SOL    HW189475  10.756   0.200   2.731  0.5705  0.0258 -0.6299
28179SOL    HW289476  10.705   0.131   2.606  0.5207  0.2864 -0.7543
28180SOL     OW89477   6.207   7.392   8.058 -0.1460  0.4002 -0.3093
28180SOL    HW189478   6.234   7.484   8.062  1.6684 -0.0924 -0.2506
28180SOL    HW289479   6.209   7.362   8.149 -0.6927  0.2777 -0.3323
28181SOL     OW89480   4.920   4.927   8.934 -0.1975  0.2684 -0.1445
28181SOL    HW189481   4.992   4.895   8.988  0.6668  2.4137  0.0881
28181SOL    HW289482   4.884   4.849   8.893  2.2252 -0.9082 -0.2088
28182SOL     OW89483   9.114  10.595   4.462 -0.1743  0.2760  0.6133
28182SOL    HW189484   9.030  10.635   4.483  0.4936  1.6954  0.7629
28182SOL    HW289485   9.128  10.616   4.369  0.1486  0.3494  0.6749
28183SOL     OW89486   2.626  10.656   6.125 -0.5973  0.0842  0.0430
28183SOL    HW189487   2.661  10.675   6.038 -2.2378  0.8230 -0.5020
28183SOL    HW289488   2.666  10.572   6.149  2.0366  1.1629 -0.1821
28184SOL     OW89489   0.030   3.574   5.030 -0.0640  0.1284  0.1829
28184SOL    HW189490   0.116   3.538   5.008  0.0117  1.8423 -2.9508
28184SOL    HW289491   0.041   3.609   5.118  1.6200 -1.9612  0.9061
28185SOL     OW89492   5.772   0.102   4.921 -0.0884 -0.1577  0.5047
28185SOL    HW189493   5.727   0.170   4.871  0.8258  0.5044  0.5389
28185SOL    HW289494   5.829   0.058   4.858 -0.3559 -0.6031  0.5719
28186SOL     OW89495   1.903   9.104   0.138 -0.1713 -0.1333 -0.6652
28186SOL    HW189496   1.946   9.029   0.097 -0.9590 -0.5813 -0.6938
28186SOL    HW289497   1.867   9.154   0.065 -0.1264 -0.0280 -0.6156
28187SOL     OW89498   5.509  11.115   3.285  0.6011  0.2609  0.3785
28187SOL    HW189499   5.472  11.140   3.201  0.7427 -1.3889 -0.2173
28187SOL    HW289500   5.444  11.144   3.349 -0.2438  0.1713 -0.4112
28188SOL     OW89501   4.113   1.585   7.466 -0.5134  0.2715  0.1197
28188SOL    HW189502   4.019   1.599   7.465 -0.6917 -0.8378  0.5602
28188SOL    HW289503   4.127   1.516   7.530  0.3800 -1.0553 -1.4144
28189SOL     OW89504   1.119   5.494   1.970 -0.2761  0.5447  0.0875
28189SOL    HW189505   1.109   5.447   1.888 -1.0334  1.0459 -0.1140
28189SOL    HW289506   1.101   5.586   1.949 -1.0858  0.5977  0.9151
28190SOL     OW89507  11.075   4.592   3.887  0.3316 -0.0200 -0.2895
28190SOL    HW189508  11.121   4.530   3.944 -0.4953 -0.3275  0.0615
28190SOL    HW289509  11.104   4.678   3.917  0.4236 -0.2023  0.1506
28191SOL     OW89510   9.736   8.795   8.534  0.4789 -0.1733  0.1113
28191SOL    HW189511   9.651   8.835   8.517  0.7578  0.8806  1.0330
28191SOL    HW289512   9.718   8.728   8.600  0.7603  2.3974  3.0712
28192SOL     OW89513   8.583   1.207  10.617  0.1747  0.1161 -0.4294
28192SOL    HW189514   8.596   1.277  10.681 -2.9769  0.0820  0.4249
28192SOL    HW289515   8.611   1.245  10.534  1.9452  1.0517  0.5212
28193SOL     OW89516   9.150   3.078   0.472  0.1383  0.4074  0.2693
28193SOL    HW189517   9.099   3.127   0.536 -1.6557  0.2169 -0.9345
28193SOL    HW289518   9.198   3.145   0.423 -2.6255  1.1592 -1.6573
28194SOL     OW89519  10.616   2.878  10.745 -0.0333  0.0726  0.0407
28194SOL    HW189520  10.655   2.964  10.760 -1.7028  0.5071  2.4121
28194SOL    HW289521  10.623   2.833  10.828 -2.0943 -0.8187 -0.1990
28195SOL     OW89522   0.955   2.486   3.624  0.0637 -0.2053 -0.3604
28195SOL    HW189523   0.940   2.461   3.715  1.3174  1.3760  0.3179
28195SOL    HW289524   0.947   2.404   3.575 -0.8226 -1.0447  1.1300
28196SOL     OW89525   3.092   9.748  11.602  0.0163  0.4593 -0.1295
28196SOL    HW189526   3.102   9.670  11.655 -0.4682  0.6348  0.2215
28196SOL    HW289527   3.102   9.717  11.512  1.4896  0.2669  0.0787
28197SOL     OW89528   4.586   3.401   4.740  0.0486 -0.3169  0.1319
28197SOL    HW189529   4.502   3.434   4.772 -0.3765  0.8707 -2.0610
28197SOL    HW289530   4.640   3.478   4.727  0.8833 -0.9218 -0.1046
28198SOL     OW89531   2.718   3.620   0.409  0.1374 -0.1964  0.5566
28198SOL    HW189532   2.625   3.638   0.400  0.4009  2.0678  1.5884
28198SOL    HW289533   2.748   3.604   0.319 -0.8205  1.5100 -0.1052
28199SOL     OW89534   9.363  10.716   4.494 -0.0180 -0.0173  0.4195
28199SOL    HW189535   9.422  10.650   4.531 -1.7341 -1.4452  0.7410
28199SOL    HW289536   9.276  10.678   4.503 -0.8049  0.9227 -2.3460
28200SOL     OW89537   1.492   4.105   2.681 -0.1300  0.6625 -0.3168
28200SOL    HW189538   1.536   4.137   2.602 -0.4105  0.0510 -0.7252
28200SOL    HW289539   1.445   4.027   2.653  0.9875 -0.4603  0.7692
28201SOL     OW89540   4.482   3.739   3.011 -1.0468  0.8405 -0.4649
28201SOL    HW189541   4.439   3.783   3.085 -0.7870 -0.1074  0.2719
28201SOL    HW289542   4.410   3.720   2.950 -1.6374 -0.3251  0.5496
28202SOL     OW89543   3.388   2.244   6.575  0.1085  0.3849  0.0370
28202SOL    HW189544   3.387   2.269   6.668  0.0682 -0.7208  0.3528
28202SOL    HW289545   3.307   2.194   6.563  1.0157 -1.0912 -0.1123
28203SOL     OW89546   3.426  10.660   1.359 -0.4274  0.0224  0.7388
28203SOL    HW189547   3.494  10.725   1.379 -0.2824 -0.1357  0.7581
28203SOL    HW289548   3.467  10.601   1.296 -0.8412  0.4508  0.0502
28204SOL     OW89549  10.270  10.782   9.843 -0.1127 -0.2061  0.5878
28204SOL    HW189550  10.261  10.701   9.793  1.0821 -0.2888  0.4627
28204SOL    HW289551  10.302  10.754   9.929  0.1240  0.1159  0.6079
28205SOL     OW89552   0.984   4.823  10.761  0.1427  0.1331 -0.0873
28205SOL    HW189553   0.915   4.757  10.759  0.0753  0.1943  0.1324
28205SOL    HW289554   0.975   4.863  10.848 -0.2696  0.9050 -0.4739
28206SOL     OW89555   3.154   3.285   5.632  0.6172  0.5210 -0.2080
28206SOL    HW189556   3.237   3.330   5.649  0.9766  0.5627 -1.8625
28206SOL    HW289557   3.180   3.201   5.594 -0.0957 -0.2005  0.8358
28207SOL     OW89558  11.179   4.552   2.698 -0.8107  0.3540 -0.1974
28207SOL    HW189559  11.142   4.635   2.666 -1.0613  0.3491  0.0691
28207SOL    HW289560  11.226   4.577   2.778 -1.3527  0.1550  0.1869
28208SOL     OW89561   9.647   4.134   6.244 -0.7845 -0.1714 -0.0686
28208SOL    HW189562   9.711   4.087   6.296 -2.5797 -1.2587  1.2888
28208SOL    HW289563   9.690   4.147   6.159  0.8528 -1.6840  0.4618
28209SOL     OW89564   2.501   8.775  10.443  0.1372  0.2017 -0.1023
28209SOL    HW189565   2.458   8.754  10.360  0.1119 -0.8137  0.1471
28209SOL    HW289566   2.561   8.701  10.458  1.0114  0.9564  0.2023
28210SOL     OW89567   9.737   2.878   0.019  0.1752 -0.2815  0.7500
28210SOL    HW189568   9.737   2.962  -0.028  1.3596 -0.0175  1.1780
28210SOL    HW289569   9.749   2.902   0.111 -0.2946 -0.8864  0.9742
28211SOL     OW89570   1.300  10.681   4.926  0.5856 -0.1080 -0.6996
28211SOL    HW189571   1.368  10.746   4.943  2.5752 -1.5300 -2.6249
28211SOL    HW289572   1.311  10.659   4.834 -0.3892 -2.7376 -0.2670
28212SOL     OW89573   2.047   4.529   9.606  0.0081 -0.2031  0.3179
28212SOL    HW189574   1.967   4.581   9.615 -0.4143 -1.0011  1.3527
28212SOL    HW289575   2.019   4.439   9.624  0.8831 -0.6850 -0.6160
28213SOL     OW89576   7.743   3.174   2.958  0.3694  0.4157  0.2290
28213SOL    HW189577   7.695   3.099   2.921  1.6267  0.1171 -0.8826
28213SOL    HW289578   7.775   3.221   2.881  1.4539  0.8626  0.9420
28214SOL     OW89579   4.668   5.533   3.501  0.6565  0.2277  0.8299
28214SOL    HW189580   4.576   5.531   3.528  0.1583  0.6795 -0.7538
28214SOL    HW289581   4.699   5.443   3.515  0.1491  0.1967  1.8798
28215SOL     OW89582   4.500   5.381   1.913  0.1649  0.2475  0.4652
28215SOL    HW189583   4.448   5.362   1.991  0.0203  0.1750  0.3526
28215SOL    HW289584   4.448   5.344   1.841 -0.9726  2.5591  0.0112
28216SOL     OW89585  10.984   7.099   6.028  0.4580 -0.2782 -0.1873
28216SOL    HW189586  10.923   7.055   5.970 -0.7483  0.4360  0.4987
28216SOL    HW289587  10.993   7.040   6.103  2.2135 -1.3214 -1.1361
28217SOL     OW89588   7.600   7.899   6.404 -0.3581  0.3923  0.5835
28217SOL    HW189589   7.651   7.941   6.335 -2.3092 -1.6937 -2.3644
28217SOL    HW289590   7.659   7.834   6.443  0.1778  0.1262 -0.6415
28218SOL     OW89591   2.903   9.033   1.794 -0.2902 -0.4288  0.1547
28218SOL    HW189592   2.874   8.986   1.716  2.1798 -2.5588  0.3384
28218SOL    HW289593   2.845   9.002   1.864 -1.9858  0.8590 -0.6399
28219SOL     OW89594   2.528   2.683   8.134 -0.1283 -0.1522  0.3448
28219SOL    HW189595   2.524   2.750   8.203 -2.8130  0.0273  0.1372
28219SOL    HW289596   2.611   2.698   8.090 -0.0579  2.1959  1.1470
28220SOL     OW89597   3.679   7.121  10.201  0.0455  0.1468 -0.1420
28220SOL    HW189598   3.627   7.155  10.129 -0.4654 -0.3070  0.0080
28220SOL    HW289599   3.750   7.184  10.212  1.2966 -0.7732 -2.3495
28221SOL     OW89600   3.028   8.811   2.021 -0.3045 -0.0577  0.1156
28221SOL    HW189601   3.070   8.738   2.066 -1.4503 -0.4424  0.6173
28221SOL    HW289602   3.020   8.782   1.930 -1.9922 -1.1873  0.5715
28222SOL     OW89603   6.493   6.289  11.634 -0.1868  0.0116  0.5412
28222SOL    HW189604   6.515   6.381  11.644  0.7524 -0.2034  0.5015
28222SOL    HW289605   6.435   6.286  11.558  0.8727  0.4031 -0.2999
28223SOL     OW89606  10.271   2.190   1.682  0.1284 -0.1994  0.0271
28223SOL    HW189607  10.187   2.186   1.636 -0.4448 -0.8888  1.0823
28223SOL    HW289608  10.333   2.151   1.621 -0.8022 -2.0524  0.1930
28224SOL     OW89609   3.246   0.251  11.260 -0.6353 -0.5129  0.0933
28224SOL    HW189610   3.309   0.312  11.221 -1.3823  0.4392  0.3640
28224SOL    HW289611   3.278   0.237  11.349 -1.2297  0.6016  0.4968
28225SOL     OW89612   6.573   6.216   3.422 -0.2571  0.0702  0.2853
28225SOL    HW189613   6.500   6.225   3.484 -1.4034 -0.9044 -0.8547
28225SOL    HW289614   6.532   6.180   3.343  1.8476 -3.0215  0.4607
28226SOL     OW89615   4.811   2.018   4.964 -0.2092  0.5683  0.1053
28226SOL    HW189616   4.833   1.937   4.917 -0.0225 -0.5224  1.9813
28226SOL    HW289617   4.796   1.990   5.054 -1.3090  2.4757  0.5698
28227SOL     OW89618   3.530   5.575   6.266 -0.3780  0.1685  0.0509
28227SOL    HW189619   3.491   5.624   6.193 -0.7236 -1.0694 -0.6333
28227SOL    HW289620   3.623   5.598   6.262 -0.5555  0.8961 -0.1422
28228SOL     OW89621   5.899   3.335   1.195 -0.5124  0.2195  0.1839
28228SOL    HW189622   5.806   3.343   1.172 -0.7167  0.0710  0.9244
28228SOL    HW289623   5.906   3.381   1.279  0.7175  2.9975 -1.2956
28229SOL     OW89624   8.451   2.891   6.820  0.0902 -0.0866  0.0991
28229SOL    HW189625   8.505   2.845   6.756  0.5185 -0.2450  0.5721
28229SOL    HW289626   8.381   2.829   6.843 -2.1760  1.1508 -2.7959
28230SOL     OW89627  10.986   0.991   3.381  0.0742 -0.1815  0.3853
28230SOL    HW189628  10.991   0.994   3.285 -0.4188 -0.7763  0.3381
28230SOL    HW289629  10.926   1.062   3.404 -0.6087 -0.6881  0.1857
28231SOL     OW89630   8.336   9.496   7.713  0.3046 -0.5718 -0.7869
28231SOL    HW189631   8.259   9.519   7.662  0.4851 -0.8076 -1.1691
28231SOL    HW289632   8.409   9.504   7.652  0.5533 -0.6121 -0.4988
28232SOL     OW89633  10.851   2.859   7.447  0.7764 -0.0317 -0.0325
28232SOL    HW189634  10.794   2.923   7.404  1.0255  1.5988  1.9083
28232SOL    HW289635  10.798   2.821   7.516  1.1452 -0.7288 -0.1196
28233SOL     OW89636   5.007   4.414   5.192 -0.0874 -0.2575  0.5267
28233SOL    HW189637   4.982   4.342   5.134  1.9694 -0.3658 -0.2984
28233SOL    HW289638   4.924   4.455   5.215 -1.3039 -2.6796  0.7776
28234SOL     OW89639   5.622   6.582   3.163 -0.4570 -0.0109 -0.3443
28234SOL    HW189640   5.583   6.652   3.111 -1.5057  0.3074  0.8362
28234SOL    HW289641   5.694   6.624   3.210 -0.0416 -0.1138 -0.8732
28235SOL     OW89642   8.071   0.977   9.915 -0.0520  0.2455  0.1305
28235SOL    HW189643   8.046   0.890   9.947 -0.1806  0.1632 -0.1868
28235SOL    HW289644   8.106   0.960   9.827  2.7596  0.1030  1.1787
28236SOL     OW89645   4.628  10.633   8.313 -0.5546 -0.7058 -0.3214
28236SOL    HW189646   4.535  10.633   8.336 -0.3388  1.1328  0.8224
28236SOL    HW289647   4.668  10.691   8.378  1.2404 -0.6731 -1.3892
28237SOL     OW89648   8.332   0.178  10.016 -0.3410  0.5554 -0.1381
28237SOL    HW189649   8.314   0.084  10.015  1.2223  0.2067  0.8441
28237SOL    HW289650   8.422   0.186   9.985  0.1284  1.5446  1.3352
28238SOL     OW89651   3.357   4.269   6.949  0.0563 -0.5078 -0.1676
28238SOL    HW189652   3.431   4.209   6.939  1.4640  1.0773  0.2028
28238SOL    HW289653   3.306   4.259   6.869 -0.6542 -3.2729  0.5222
28239SOL     OW89654   2.610   7.768  10.458  0.0341 -0.5836  0.7829
28239SOL    HW189655   2.650   7.809  10.534  1.0987 -0.9062  0.4165
28239SOL    HW289656   2.579   7.841  10.404 -1.1163 -0.3597  1.7016
28240SOL     OW89657  11.581   5.094  11.241  0.0890 -0.0580  0.3173
28240SOL    HW189658  11.672   5.125  11.243 -0.0180  0.3038 -0.1773
28240SOL    HW289659  11.529   5.174  11.234 -0.2723 -0.2590  0.7196
28241SOL     OW89660   4.765   1.077   0.130  0.7533  0.6132 -0.3514
28241SOL    HW189661   4.808   1.129   0.198  0.6529 -0.6497  0.7198
28241SOL    HW289662   4.797   1.114   0.047  1.9748  1.2849  0.3963
28242SOL     OW89663  10.859   2.247   7.604 -0.3765  1.0567 -0.2370
28242SOL    HW189664  10.833   2.192   7.530 -2.4312  0.9489  0.5005
28242SOL    HW289665  10.857   2.336   7.569  0.5015  0.8753 -0.7803
28243SOL     OW89666   4.906   9.692   7.691  0.3383  0.7134  0.4473
28243SOL    HW189667   4.820   9.715   7.655  0.2438 -2.5165 -1.7952
28243SOL    HW289668   4.962   9.682   7.613  2.1452  0.4796  1.7103
28244SOL     OW89669   4.638   6.932   0.099 -0.3336  0.0714 -0.3753
28244SOL    HW189670   4.569   6.910   0.036  0.4386  0.7730 -1.5144
28244SOL    HW289671   4.636   7.027   0.104 -0.9020 -0.0050  1.3104
28245SOL     OW89672   6.389   3.143  10.589 -0.1899 -0.1027  0.1906
28245SOL    HW189673   6.341   3.214  10.632  0.5932  0.3006  0.4371
28245SOL    HW289674   6.402   3.078  10.658  1.2180  0.6213  0.6561
28246SOL     OW89675  10.645   7.359   7.387 -0.8112  0.1915  0.5936
28246SOL    HW189676  10.648   7.301   7.311 -0.4934 -0.0691  0.8039
28246SOL    HW289677  10.554   7.356   7.415 -1.4518  1.9731 -1.0575
28247SOL     OW89678   8.315   1.553  10.816  0.6183  0.5099  0.2328
28247SOL    HW189679   8.325   1.645  10.788 -0.2634  0.2718 -0.9485
28247SOL    HW289680   8.223   1.545  10.841  0.9807  0.2446  1.5777
28248SOL     OW89681   8.780   1.268   2.338  0.0650 -0.0732  0.0177
28248SOL    HW189682   8.872   1.289   2.352 -0.2896  0.4582  1.8221
28248SOL    HW289683   8.777   1.172   2.334  0.7601 -0.0730 -0.7664
28249SOL     OW89684   8.788   4.050  10.368 -0.2190 -0.4028 -0.2529
28249SOL    HW189685   8.759   4.056  10.278 -0.5292  1.6447 -0.0554
28249SOL    HW289686   8.877   4.086  10.367  0.3303 -1.7037  0.0330
28250SOL     OW89687   1.422   0.057   5.701  0.0495  0.5272 -0.3918
28250SOL    HW189688   1.467   0.035   5.783 -0.4238 -0.1014 -0.2916
28250SOL    HW289689   1.491   0.052   5.634  0.6421  1.9859  0.0862
28251SOL     OW89690   7.507   8.669   6.518  0.2723 -0.4786 -0.9394
28251SOL    HW189691   7.470   8.730   6.454  1.8842  0.9011 -0.6302
28251SOL    HW289692   7.568   8.615   6.467 -1.4630 -2.1991 -1.2955
28252SOL     OW89693   8.413   5.432   4.575  0.1072  0.4364  0.2922
28252SOL    HW189694   8.392   5.423   4.482  0.7917  0.7512  0.1014
28252SOL    HW289695   8.347   5.379   4.619 -0.7646  0.9822 -0.3155
28253SOL     OW89696   8.640   7.039   4.291  0.1525  0.5195 -0.3434
28253SOL    HW189697   8.585   7.033   4.369  1.9299  0.5118  0.9925
28253SOL    HW289698   8.636   7.132   4.266 -1.8569  0.1946 -1.4007
28254SOL     OW89699  10.185   9.560  10.515  0.0965 -0.1040  0.2681
28254SOL    HW189700  10.232   9.545  10.433  1.5593 -3.7639  1.5637
28254SOL    HW289701  10.096   9.531  10.498 -0.3082  1.5188 -0.6227
28255SOL     OW89702   3.193   9.571   5.282 -0.0165 -0.0408  0.3647
28255SOL    HW189703   3.114   9.518   5.266  0.5894 -1.1622  0.9793
28255SOL    HW289704   3.241   9.522   5.349  1.5825  0.2221 -0.5480
28256SOL     OW89705  10.590   2.774   0.135 -0.1682  0.0429  0.5087
28256SOL    HW189706  10.604   2.773   0.229  1.7391  2.1358  0.3342
28256SOL    HW289707  10.670   2.813   0.099 -0.6668 -1.0492 -2.0193
28257SOL     OW89708   1.420   9.414   7.489 -0.7176  0.1927 -0.4241
28257SOL    HW189709   1.469   9.331   7.488 -0.8659  0.1062 -0.4295
28257SOL    HW289710   1.354   9.403   7.421  0.8915  1.2894 -2.2836
28258SOL     OW89711   0.295   6.732   8.647  0.0476  0.4458 -0.2403
28258SOL    HW189712   0.330   6.766   8.729 -1.4368  0.5664  0.3777
28258SOL    HW289713   0.345   6.652   8.631  0.5118  0.5390  0.6742
28259SOL     OW89714   3.356   9.494   8.295  0.3071 -0.8691 -0.2204
28259SOL    HW189715   3.323   9.500   8.384  0.0162 -2.5304 -0.1841
28259SOL    HW289716   3.290   9.442   8.249  0.1016  0.5287 -1.6056
28260SOL     OW89717   3.958   6.731   1.064  0.7517 -0.4753  0.1891
28260SOL    HW189718   3.971   6.799   0.998  1.9409 -0.0212  0.8595
28260SOL    HW289719   4.020   6.662   1.041 -1.2510 -1.9343 -1.1751
28261SOL     OW89720   4.264   7.661   7.006  0.1980 -0.1497  0.2637
28261SOL    HW189721   4.258   7.565   7.008  0.1894 -0.1364  0.8961
28261SOL    HW289722   4.175   7.691   7.022  0.3623 -0.0326  0.9949
28262SOL     OW89723   5.164   6.213   6.089 -0.0886 -0.2543  0.3742
28262SOL    HW189724   5.152   6.256   6.174  0.5453 -0.7781  0.7411
28262SOL    HW289725   5.151   6.120   6.108 -0.4486 -0.3248 -0.2120
28263SOL     OW89726   5.669   5.148   7.101  0.3543  0.3413  0.3331
28263SOL    HW189727   5.633   5.157   7.189 -0.9453  0.1311 -0.1514
28263SOL    HW289728   5.592   5.134   7.045  1.1792  0.1539 -0.7894
28264SOL     OW89729   9.111   3.634   1.027 -0.1051 -0.0663 -0.0293
28264SOL    HW189730   9.121   3.610   1.119  3.0222  1.6441  0.2195
28264SOL    HW289731   9.118   3.551   0.979  0.2897 -0.7477  1.1728
28265SOL     OW89732   2.499   0.680   4.999  0.8150 -0.2929  0.3565
28265SOL    HW189733   2.490   0.683   5.094 -1.9319 -1.5463  0.2351
28265SOL    HW289734   2.541   0.596   4.981  1.7915  0.1603  0.4403
28266SOL     OW89735   8.512   3.303   6.716 -0.3533 -0.0021  0.5329
28266SOL    HW189736   8.439   3.363   6.704 -0.4356 -0.2400 -0.2008
28266SOL    HW289737   8.495   3.260   6.799 -0.3396  0.9212  1.0270
28267SOL     OW89738   9.903   7.849  10.832  0.0175  0.1516 -0.0108
28267SOL    HW189739   9.817   7.823  10.865 -0.3046  2.1393  0.9303
28267SOL    HW289740   9.889   7.867  10.739 -0.7520  0.9798  0.2486
28268SOL     OW89741   9.288   2.363   2.126  0.2946 -0.0504  0.4137
28268SOL    HW189742   9.286   2.434   2.190  0.3648  1.5164 -1.2491
28268SOL    HW289743   9.376   2.364   2.091  0.7197 -1.8975  1.2996
28269SOL     OW89744  11.430   3.215   2.245  0.3986  0.2671  0.5368
28269SOL    HW189745  11.393   3.249   2.327  1.6580  1.4981  0.6334
28269SOL    HW289746  11.488   3.285   2.214 -0.2220 -0.0776 -1.5374
28270SOL     OW89747   9.389   7.951  11.048  0.3127  0.7399  0.5897
28270SOL    HW189748   9.425   7.961  11.136  1.7613 -0.2255  0.1572
28270SOL    HW289749   9.463   7.970  10.990 -0.1568 -0.2339 -0.3706
28271SOL     OW89750  10.218   5.642   8.632  0.2882 -0.1113  0.0668
28271SOL    HW189751  10.174   5.574   8.580 -2.3493  1.3960  0.1522
28271SOL    HW289752  10.265   5.695   8.568  1.0328 -1.0572 -0.1845
28272SOL     OW89753   1.302   8.952   0.986 -0.9869 -0.5428 -0.0576
28272SOL    HW189754   1.268   8.971   1.073 -3.0640  1.3802 -1.1894
28272SOL    HW289755   1.312   8.857   0.984 -0.6040 -0.6055  2.3326
28273SOL     OW89756   5.981   0.192   7.813  0.0339 -0.0774 -0.3490
28273SOL    HW189757   5.975   0.266   7.873  3.1926 -0.4425  0.6043
28273SOL    HW289758   5.949   0.117   7.864  0.5476  0.0045  0.1090
28274SOL     OW89759   4.152   3.061   8.833  0.6543  0.5967  0.3713
28274SOL    HW189760   4.067   3.105   8.843  0.2285  0.1094 -0.8971
28274SOL    HW289761   4.166   3.017   8.917 -0.4012  0.6096  0.5726
28275SOL     OW89762   1.405   8.912   4.016 -0.1593 -0.1813 -0.1847
28275SOL    HW189763   1.400   8.995   3.969 -1.7724 -0.0051  0.2523
28275SOL    HW289764   1.319   8.872   4.005  0.5047 -1.6985 -0.1804
28276SOL     OW89765   7.991   6.354   6.556  0.7862 -0.2145  0.0848
28276SOL    HW189766   7.979   6.285   6.491 -0.6012  0.2204 -0.1570
28276SOL    HW289767   7.964   6.434   6.511  0.7858  0.2462  0.8863
28277SOL     OW89768   0.350   2.427   0.454  0.1787  0.2506 -0.0732
28277SOL    HW189769   0.325   2.474   0.533  2.4490  0.5905  0.5280
28277SOL    HW289770   0.319   2.337   0.469  0.6758  0.2713  1.3166
28278SOL     OW89771   2.154  11.686   4.585 -0.3625 -0.4472  0.0320
28278SOL    HW189772   2.112  11.768   4.612  1.5880  0.8989 -0.8072
28278SOL    HW289773   2.172  11.640   4.667 -1.7609 -0.2000  0.4983
28279SOL     OW89774   3.855   8.323   7.415 -0.9281 -0.2036 -0.2627
28279SOL    HW189775   3.903   8.240   7.419 -2.0892 -0.9109 -0.5600
28279SOL    HW289776   3.899   8.379   7.478 -0.3327 -1.1576  0.1911
28280SOL     OW89777  11.561   6.925   1.112 -0.3331 -0.0880 -0.6572
28280SOL    HW189778  11.615   6.980   1.056 -1.4039  0.6026 -1.0420
28280SOL    HW289779  11.611   6.919   1.194  1.2397 -1.0969 -1.6304
28281SOL     OW89780   1.205  10.660  10.795  0.7331 -0.0114 -0.3540
28281SOL    HW189781   1.168  10.596  10.856 -0.6998  0.0031 -1.1695
28281SOL    HW289782   1.292  10.627  10.775 -0.3326 -2.3206 -1.5870
28282SOL     OW89783   8.290  10.164   4.509  0.5227  0.6353 -0.4828
28282SOL    HW189784   8.197  10.187   4.520  0.4981  1.2081 -1.8325
28282SOL    HW289785   8.322  10.156   4.599 -1.4386 -2.1350  0.1111
28283SOL     OW89786   9.479   6.471   7.067  0.4632  0.0907  0.1182
28283SOL    HW189787   9.463   6.458   6.974  0.4011  1.2615 -0.0503
28283SOL    HW289788   9.421   6.409   7.110 -1.3012  1.1635 -0.5871
28284SOL     OW89789   8.669   8.753   2.467  0.1696 -0.6810  0.2921
28284SOL    HW189790   8.629   8.734   2.552  0.6326 -0.9647  0.4524
28284SOL    HW289791   8.605   8.722   2.403 -1.1131  1.3967  0.4780
28285SOL     OW89792   5.163   9.173   7.613 -0.0282  0.4076  0.6594
28285SOL    HW189793   5.244   9.138   7.575  0.4087  0.1556  1.7880
28285SOL    HW289794   5.191   9.215   7.695 -0.9967  0.6015  0.9021
28286SOL     OW89795   5.161  10.072   0.800  0.6058 -0.3886  0.2538
28286SOL    HW189796   5.154  10.159   0.840 -0.9388  0.5729 -1.8889
28286SOL    HW289797   5.245  10.038   0.831  0.9193  1.5531  1.7303
28287SOL     OW89798   1.410   4.762   9.069 -0.2619  0.1468  0.1879
28287SOL    HW189799   1.457   4.806   9.139  0.1992  0.9529 -0.6038
28287SOL    HW289800   1.370   4.685   9.110  0.6196  0.1978  1.1525
28288SOL     OW89801   8.916   8.094   5.448 -0.1511  0.7057  0.3384
28288SOL    HW189802   8.864   8.014   5.461  0.6093  0.1335 -0.0565
28288SOL    HW289803   8.894   8.122   5.359 -0.7043  1.1531  0.6141
28289SOL     OW89804   0.105   7.856  11.595 -0.5733 -0.6098  0.2263
28289SOL    HW189805   0.097   7.922  11.526  0.5372  0.4052  1.0505
28289SOL    HW289806   0.040   7.790  11.571  0.3540 -0.7359 -2.2875
28290SOL     OW89807   4.975   8.020   3.322 -0.2110  0.2831  0.6142
28290SOL    HW189808   4.912   8.092   3.323 -0.0193  0.4483  1.9516
28290SOL    HW289809   5.016   8.023   3.408  2.5019  0.9310 -0.6072
28291SOL     OW89810   8.361  10.804  10.773 -0.0592 -0.3126 -0.4091
28291SOL    HW189811   8.423  10.799  10.700  1.5378 -0.8909  0.9438
28291SOL    HW289812   8.414  10.826  10.849 -1.8465  1.4540  0.4226
28292SOL     OW89813   7.421   4.787   6.161  0.0833  0.0386  0.2811
28292SOL    HW189814   7.397   4.868   6.207 -0.6833  0.7152 -1.2326
28292SOL    HW289815   7.346   4.769   6.104  0.0403 -2.0149  0.9051
28293SOL     OW89816   6.460   4.138  11.510  0.4348  0.7317 -0.1050
28293SOL    HW189817   6.424   4.092  11.586 -1.7323  0.4203 -1.2586
28293SOL    HW289818   6.401   4.211  11.496  2.2990  2.3306  0.0342
28294SOL     OW89819   1.453   1.634   6.913  0.3136  0.2025 -0.0160
28294SOL    HW189820   1.525   1.574   6.931  1.1905  0.3403 -2.6966
28294SOL    HW289821   1.483   1.719   6.945  0.5640 -0.0722  0.4954
28295SOL     OW89822   4.809   7.774   4.563  0.2550  0.0412  0.2969
28295SOL    HW189823   4.739   7.713   4.582 -0.5157  0.3299 -1.3798
28295SOL    HW289824   4.869   7.766   4.637 -1.7433  0.1218  2.0199
28296SOL     OW89825   3.402   2.553   0.176  0.5149  0.2197 -0.2449
28296SOL    HW189826   3.473   2.588   0.230 -0.0633 -0.7202  1.2001
28296SOL    HW289827   3.326   2.552   0.234 -0.2188 -0.5373 -1.1720
28297SOL     OW89828   0.305   9.213   1.789  0.3181 -0.8133  0.0962
28297SOL    HW189829   0.304   9.145   1.722  0.1998 -0.6785 -0.0379
28297SOL    HW289830   0.364   9.178   1.857  0.9790 -0.6533 -0.3800
28298SOL     OW89831   0.214   2.958   4.606 -0.1133 -0.1225 -0.2697
28298SOL    HW189832   0.162   3.007   4.542  1.0186 -0.2653 -1.3317
28298SOL    HW289833   0.300   3.000   4.604  1.4460 -3.0816 -2.4629
28299SOL     OW89834   6.011   5.870   0.157  0.1173 -0.1429  0.3266
28299SOL    HW189835   5.946   5.912   0.100  0.7790  0.8694  0.2914
28299SOL    HW289836   6.068   5.821   0.097 -1.1458 -1.8415  0.4364
28300SOL     OW89837  10.898   7.127   3.714 -0.3750 -0.4853 -0.1570
28300SOL    HW189838  10.881   7.155   3.804 -1.0322 -0.2432 -0.3476
28300SOL    HW289839  10.974   7.177   3.686  1.0975 -2.0155  0.9264
28301SOL     OW89840  11.421   8.930   9.990 -0.0875  0.2718  0.0950
28301SOL    HW189841  11.385   8.976   9.914  0.4946 -0.3560 -0.5771
28301SOL    HW289842  11.426   8.996  10.058 -0.7525  0.8133 -0.3705
28302SOL     OW89843   0.880   2.411  10.707 -0.0733  0.1277  0.1771
28302SOL    HW189844   0.881   2.494  10.659  0.5353 -0.3774 -0.7276
28302SOL    HW289845   0.803   2.416  10.763 -1.0293  0.6118 -1.1314
28303SOL     OW89846   6.268   6.644   7.406  0.0604  0.0712 -0.8248
28303SOL    HW189847   6.246   6.721   7.354 -1.1173  0.1086 -0.3027
28303SOL    HW289848   6.255   6.571   7.347  1.7199  0.2855 -1.4914
28304SOL     OW89849   0.365   0.235   9.526 -0.1205 -0.4151  0.3520
28304SOL    HW189850   0.337   0.261   9.438  0.6527 -0.5505  0.0572
28304SOL    HW289851   0.305   0.165   9.550  0.1692 -0.9418 -0.4107
28305SOL     OW89852   8.466   1.251   6.027  0.0560 -0.3129 -0.0383
28305SOL    HW189853   8.513   1.169   6.016 -0.1600 -0.6524  1.3501
28305SOL    HW289854   8.428   1.268   5.941 -0.4708 -2.0385 -0.1978
28306SOL     OW89855  10.437   8.138   5.821  0.3202  0.3642 -0.6865
28306SOL    HW189856  10.494   8.177   5.755  0.6689 -2.3557 -2.1048
28306SOL    HW289857  10.420   8.210   5.882  2.7914  2.0705 -1.8227
28307SOL     OW89858   6.605   5.625  10.877 -0.3792 -0.4929 -0.3993
28307SOL    HW189859   6.550   5.686  10.827  2.0470  1.1277 -1.3216
28307SOL    HW289860   6.622   5.553  10.816 -2.4255 -1.6422  0.3323
28308SOL     OW89861   0.774  11.259   3.081  0.5474 -0.4181  0.2142
28308SOL    HW189862   0.807  11.169   3.091 -0.0726 -0.6677  0.1072
28308SOL    HW289863   0.826  11.297   3.011  0.7200 -0.7476  0.1633
28309SOL     OW89864   2.282   2.499   3.927 -0.0730  0.4151  0.1831
28309SOL    HW189865   2.351   2.454   3.878 -1.2957 -1.1638 -0.1581
28309SOL    HW289866   2.304   2.484   4.019 -0.2527 -0.5631  0.0747
28310SOL     OW89867   3.286  10.692   7.493  0.1055  0.1251  0.5425
28310SOL    HW189868   3.376  10.682   7.523  1.0007 -1.2229 -2.1810
28310SOL    HW289869   3.278  10.785   7.469  1.2119  0.0258 -0.2925
28311SOL     OW89870   4.018   7.453   7.908 -0.7456  0.1037 -0.1881
28311SOL    HW189871   3.943   7.467   7.967 -0.7422  0.9575 -0.3638
28311SOL    HW289872   3.978   7.430   7.824 -0.7454 -1.3131  0.1712
28312SOL     OW89873   7.753   9.801   1.635  0.0273  0.2803  0.2013
28312SOL    HW189874   7.754   9.722   1.582 -1.0801  0.9097 -0.8164
28312SOL    HW289875   7.826   9.853   1.602 -1.3495  1.1941 -1.6421
28313SOL     OW89876   8.008   2.245   9.806 -0.3202  0.2751 -0.1153
28313SOL    HW189877   8.071   2.305   9.844  1.4804 -1.6395  0.1438
28313SOL    HW289878   8.000   2.174   9.870 -0.0073 -1.2153 -1.6229
28314SOL     OW89879   5.378   7.764   4.768 -0.8169 -0.7580  0.1575
28314SOL    HW189880   5.401   7.748   4.677  0.1019 -0.5982  0.3536
28314SOL    HW289881   5.450   7.726   4.819 -1.0530 -0.3723  0.7958
28315SOL     OW89882   3.330   0.020  10.873 -0.4101 -0.0304 -0.2043
28315SOL    HW189883   3.264   0.059  10.930 -0.7523 -0.8340 -0.0494
28315SOL    HW289884   3.287  -0.055  10.833  0.9390 -1.7158  1.3388
28316SOL     OW89885   9.415   9.610   3.188 -0.3327  0.5563  0.1154
28316SOL    HW189886   9.333   9.653   3.211  0.0582  0.3157  2.1201
28316SOL    HW289887   9.417   9.532   3.242  0.6385 -0.1243 -0.8632
28317SOL     OW89888   5.449   7.472   2.246  0.8521  0.5462  0.0087
28317SOL    HW189889   5.455   7.404   2.314  1.7439 -0.1855 -0.7759
28317SOL    HW289890   5.379   7.442   2.188 -1.0875  2.0006  1.4395
28318SOL     OW89891   0.803   6.959   1.092  0.2107  0.3182  0.1441
28318SOL    HW189892   0.879   6.903   1.083  0.0158  0.2504 -1.3236
28318SOL    HW289893   0.761   6.930   1.173 -0.5346 -2.4947 -1.1446
28319SOL     OW89894   2.495   4.747   1.456  0.1405 -0.0722  0.4414
28319SOL    HW189895   2.417   4.801   1.468 -0.0352  0.1346 -1.2883
28319SOL    HW289896   2.558   4.779   1.521 -1.3924 -0.6756  2.3123
28320SOL     OW89897  10.587   8.822   9.624  0.3423 -0.4312  0.1031
28320SOL    HW189898  10.617   8.853   9.710  0.5052 -3.5347  1.3003
28320SOL    HW289899  10.567   8.729   9.638 -1.3090 -0.6299 -2.8368
28321SOL     OW89900   3.502   1.263   6.113  0.1595 -0.3987  0.1737
28321SOL    HW189901   3.448   1.280   6.191  2.7613  0.3364  1.9536
28321SOL    HW289902   3.592   1.280   6.142  1.3745 -1.3369 -2.6849
28322SOL     OW89903   1.866   0.197   6.422 -0.3069  0.0495 -0.1930
28322SOL    HW189904   1.822   0.244   6.493  2.9724 -0.0391  2.1034
28322SOL    HW289905   1.876   0.108   6.456  0.9913 -0.0982 -0.9289
28323SOL     OW89906   9.795   5.022   3.222  0.3278  0.7675 -0.2801
28323SOL    HW189907   9.771   4.937   3.186 -1.6620  1.5386 -0.8709
28323SOL    HW289908   9.889   5.031   3.202  0.1230 -0.4325 -1.9566
28324SOL     OW89909   5.148   1.112   3.858  0.5139 -0.6931  0.4362
28324SOL    HW189910   5.107   1.198   3.851 -0.6285 -1.2513 -0.0986
28324SOL    HW289911   5.103   1.059   3.792  1.8937 -1.4343  0.0470
28325SOL     OW89912   3.769   4.145   6.382 -0.0277 -0.0498 -0.5965
28325SOL    HW189913   3.784   4.207   6.453  0.1242 -0.3358 -0.3733
28325SOL    HW289914   3.702   4.085   6.416  0.7126 -0.7462 -0.3287
28326SOL     OW89915   5.611  11.080  11.119  0.9332  0.1642  0.4534
28326SOL    HW189916   5.677  11.130  11.070  1.0437 -0.5774 -0.1655
28326SOL    HW289917   5.550  11.147  11.151 -0.6748  0.5581 -2.9632
28327SOL     OW89918   6.903  10.620   5.758 -0.1235 -0.6457 -0.4367
28327SOL    HW189919   6.809  10.629   5.741  0.0095 -1.5838 -1.8507
28327SOL    HW289920   6.908  10.570   5.840 -0.8248  0.7650  0.5030
28328SOL     OW89921   9.539   9.609   7.193 -0.9487  0.4568 -0.2810
28328SOL    HW189922   9.496   9.590   7.276  0.7805 -0.2254  0.5157
28328SOL    HW289923   9.604   9.676   7.215 -0.6599  0.4730 -1.1454
28329SOL     OW89924   3.621   2.635  10.873  0.0695 -0.2505 -0.0739
28329SOL    HW189925   3.620   2.603  10.783 -1.8963  0.5568 -0.3868
28329SOL    HW289926   3.587   2.563  10.925  0.1017 -0.3095 -0.1340
28330SOL     OW89927   8.089   6.571   8.866  0.2171 -0.2276 -0.2849
28330SOL    HW189928   8.068   6.638   8.801  1.2593  1.2117  0.7862
28330SOL    HW289929   8.005   6.552   8.908  0.1335  1.7429  0.5725
28331SOL     OW89930  10.434   9.537   4.276  0.0761 -0.6553 -0.5622
28331SOL    HW189931  10.345   9.509   4.254 -0.6684  0.5276  0.7866
28331SOL    HW289932  10.487   9.510   4.201 -1.5266 -0.8498 -1.6686
28332SOL     OW89933   0.723   3.791   6.032 -0.0359  0.0901 -0.1101
28332SOL    HW189934   0.692   3.737   5.959 -3.6695  0.2113  1.1190
28332SOL    HW289935   0.698   3.880   6.008 -3.2831 -0.0882  1.9778
28333SOL     OW89936  11.379   6.632  11.652 -0.2339 -0.7200 -0.5564
28333SOL    HW189937  11.429   6.562  11.695  0.7202 -0.2162 -0.8059
28333SOL    HW289938  11.445   6.683  11.606 -1.0148 -0.1104 -1.0268
28334SOL     OW89939   2.280   4.711   7.352 -0.2384  0.0791  0.8709
28334SOL    HW189940   2.219   4.783   7.335 -0.2217  0.0436  0.6538
28334SOL    HW289941   2.293   4.670   7.266  1.6159  1.2728  0.5174
28335SOL     OW89942   0.568   4.652   8.599  0.5066  0.1080 -0.3766
28335SOL    HW189943   0.609   4.568   8.614 -2.8181 -1.8912 -1.3630
28335SOL    HW289944   0.560   4.658   8.503  1.1822  1.8331 -0.3542
28336SOL     OW89945  10.503   7.357   8.108 -0.0858  0.0885 -0.2138
28336SOL    HW189946  10.467   7.374   8.195 -0.7158  0.7362 -0.5943
28336SOL    HW289947  10.438   7.301   8.065  0.2643 -0.3017 -0.2405
28337SOL     OW89948   7.183   1.777   3.050 -0.7686 -0.1572 -0.0614
28337SOL    HW189949   7.248   1.723   3.004  0.7468 -0.2859  2.1103
28337SOL    HW289950   7.193   1.864   3.012  1.4040  0.0517  0.8534
28338SOL     OW89951   4.990   7.602   8.245  0.2790  0.0117  0.6537
28338SOL    HW189952   5.055   7.541   8.210 -0.0269  0.4406 -0.7250
28338SOL    HW289953   5.042   7.671   8.286  0.7255  0.3541 -0.4424
28339SOL     OW89954   9.259   8.853  11.322 -0.1735 -0.1480 -0.1700
28339SOL    HW189955   9.195   8.880  11.255  0.2276  1.6254  0.1147
28339SOL    HW289956   9.344   8.859  11.278 -0.1250 -2.4156 -0.5184
28340SOL     OW89957   1.075   4.499  11.633 -0.3343  0.1031  0.1179
28340SOL    HW189958   1.078   4.404  11.639 -0.1427 -0.1008 -2.1914
28340SOL    HW289959   1.165   4.527  11.647 -0.3439 -0.0678  0.5298
28341SOL     OW89960   9.017   5.537  11.626 -0.0525  0.1772 -0.0863
28341SOL    HW189961   9.074   5.604  11.589  1.3615 -0.7007  0.4102
28341SOL    HW289962   8.973   5.581  11.699 -0.3688  0.9886 -0.7452
28342SOL     OW89963   3.951   7.243   4.979  0.3728  0.0854 -0.0509
28342SOL    HW189964   4.045   7.246   4.960  0.3912  0.1115  0.0402
28342SOL    HW289965   3.918   7.171   4.927  0.2590  0.7168 -0.8747
28343SOL     OW89966  11.505   2.472   1.864 -0.6449  0.9065 -0.1852
28343SOL    HW189967  11.526   2.427   1.946 -0.3477 -0.0897 -0.7883
28343SOL    HW289968  11.412   2.456   1.851 -0.4990  0.2717 -0.4987
28344SOL     OW89969   2.192   2.569   0.934 -0.3040 -0.0674  0.0643
28344SOL    HW189970   2.243   2.541   1.010 -0.7542  3.3149  1.7663
28344SOL    HW289971   2.121   2.504   0.928  0.2973 -0.9645  1.9241
28345SOL     OW89972   8.926   9.846   4.811 -0.2333 -0.0545  0.3214
28345SOL    HW189973   9.005   9.813   4.768 -0.2517  0.3252 -0.0043
28345SOL    HW289974   8.956   9.924   4.857 -0.2751 -0.2996  0.7689
28346SOL     OW89975   8.744   7.751   0.450 -0.2601  0.1741 -0.3945
28346SOL    HW189976   8.833   7.747   0.415  0.0695  2.6333  0.0019
28346SOL    HW289977   8.692   7.787   0.379 -0.3998  1.2216  0.2213
28347SOL     OW89978   4.158   6.664   2.885 -0.0744  0.6439 -0.5746
28347SOL    HW189979   4.249   6.642   2.903  0.3291  1.5723 -1.4576
28347SOL    HW289980   4.161   6.737   2.824 -1.4031 -0.1841 -1.7145
28348SOL     OW89981  10.064   3.737   4.539  0.2512  0.0282 -0.1961
28348SOL    HW189982  10.050   3.817   4.591  2.0104 -0.2505  0.7991
28348SOL    HW289983   9.985   3.685   4.553  0.3195  0.3243  1.5931
28349SOL     OW89984   3.639   4.983   9.673  0.6379 -0.8074  0.3474
28349SOL    HW189985   3.545   4.977   9.657  1.1086 -2.1199 -2.6752
28349SOL    HW289986   3.652   5.070   9.711 -1.6980 -0.3467  0.2393
28350SOL     OW89987   9.844   6.843   0.960 -0.2204 -0.6144  0.9710
28350SOL    HW189988   9.882   6.848   1.048  0.0619  0.7495  0.7877
28350SOL    HW289989   9.851   6.932   0.926  1.5675 -1.5108 -1.2356
28351SOL     OW89990   3.204   2.335   6.122  0.4512  0.1365  0.9580
28351SOL    HW189991   3.275   2.344   6.186  1.1558  0.0842  0.2045
28351SOL    HW289992   3.124   2.349   6.172  0.9938  0.1371  1.8381
28352SOL     OW89993   2.639   9.925  10.446 -0.0657  0.1268  0.6633
28352SOL    HW189994   2.691   9.847  10.428 -1.8580 -0.9319 -0.2464
28352SOL    HW289995   2.597   9.906  10.530 -0.4558  0.1276  0.4713
28353SOL     OW89996   8.692   0.637   1.970 -0.1423  0.3884  0.7981
28353SOL    HW189997   8.598   0.632   1.989  0.1066 -0.1693  1.9471
28353SOL    HW289998   8.699   0.705   1.903 -1.6439 -1.3979 -1.3171
28354SOL     OW89999   9.533   8.074   1.382 -0.2076 -0.0734 -0.0257
28354SOL    HW190000   9.607   8.059   1.323 -1.3246 -1.1063 -1.2329
28354SOL    HW290001   9.509   8.166   1.367  0.3511  0.0469 -0.1964
28355SOL     OW90002   4.500   9.887   0.641  0.2803  0.2242 -0.0170
28355SOL    HW190003   4.588   9.921   0.624  0.6034 -1.2310 -1.5793
28355SOL    HW290004   4.441   9.960   0.624  1.1881  1.5927  2.2328
28356SOL     OW90005   2.618   4.071   3.060 -0.0340  0.6364 -0.1015
28356SOL    HW190006   2.663   4.045   3.139  0.1472  1.5842  0.1239
28356SOL    HW290007   2.595   3.989   3.016  2.4903  0.1160 -0.5615
28357SOL     OW90008   2.736   3.138   6.477  0.0656 -0.2181  0.0257
28357SOL    HW190009   2.651   3.094   6.475 -1.2744  2.2175 -0.9160
28357SOL    HW290010   2.759   3.142   6.570 -0.5464 -1.3866  0.2511
28358SOL     OW90011   8.097   8.109   8.283 -0.1487  0.1119  0.2113
28358SOL    HW190012   8.119   8.035   8.225 -0.6170 -0.6107  0.9270
28358SOL    HW290013   8.170   8.115   8.344 -0.4047 -0.1808  0.5521
28359SOL     OW90014   0.024   8.141  10.259  0.2954  0.3146 -0.3690
28359SOL    HW190015   0.083   8.210  10.228  0.4582 -0.0651 -0.9320
28359SOL    HW290016  -0.064   8.179  10.253  0.3847  0.4707 -0.7020
28360SOL     OW90017   8.305   1.080   8.018  0.3577 -0.0951 -0.3796
28360SOL    HW190018   8.356   1.141   8.071  1.3338  0.3112 -1.7362
28360SOL    HW290019   8.255   1.136   7.958  0.1922 -0.5813 -0.7031
28361SOL     OW90020   4.565  10.530  11.477 -0.4562 -0.6783 -0.3929
28361SOL    HW190021   4.598  10.479  11.403  0.6755  0.6607 -0.8423
28361SOL    HW290022   4.594  10.620  11.459 -2.6142  0.2059  0.2299
28362SOL     OW90023   8.324   2.563   6.610  0.5453  0.1758  0.2110
28362SOL    HW190024   8.393   2.626   6.588  1.1372 -0.7300 -0.6386
28362SOL    HW290025   8.320   2.563   6.705  1.6608  0.3241  0.2744
28363SOL     OW90026   2.878   2.546   1.910  0.0329  0.2049  0.6250
28363SOL    HW190027   2.963   2.590   1.915 -0.6873  1.8855 -0.9601
28363SOL    HW290028   2.884   2.492   1.831 -0.1420 -0.2450  0.9130
28364SOL     OW90029   6.105  10.683   4.664 -0.1038  0.3558 -0.0395
28364SOL    HW190030   6.063  10.725   4.588 -0.0914 -0.9522 -0.7921
28364SOL    HW290031   6.037  10.628   4.702  0.1539  0.3169  0.3739
28365SOL     OW90032   0.188   9.791  10.782  0.2682 -0.1410  0.5512
28365SOL    HW190033   0.215   9.877  10.815  1.6311  0.4887 -1.9719
28365SOL    HW290034   0.133   9.755  10.852  2.9200  1.0243  3.4947
28366SOL     OW90035   7.059  11.522   4.308  0.2299  0.3127  0.3155
28366SOL    HW190036   7.058  11.607   4.264  0.5801  0.9881  1.5831
28366SOL    HW290037   6.975  11.516   4.352 -0.1805 -0.4321 -0.5164
28367SOL     OW90038   3.307   2.614   5.552 -0.2179  0.4100  0.0043
28367SOL    HW190039   3.282   2.654   5.469 -1.9579  1.5523  1.0002
28367SOL    HW290040   3.362   2.681   5.595 -0.1133  0.2196  0.1693
28368SOL     OW90041   6.381   8.059   4.809  0.0465 -0.7188 -0.5280
28368SOL    HW190042   6.296   8.035   4.773  0.4632 -1.8482 -0.7955
28368SOL    HW290043   6.367   8.060   4.904 -0.5116  0.1313 -0.6048
28369SOL     OW90044   2.108   0.343   4.769 -0.7631 -0.0187  0.1012
28369SOL    HW190045   2.042   0.282   4.804 -1.5925  0.9606  0.3089
28369SOL    HW290046   2.064   0.384   4.695  0.0060 -0.0973 -0.3987
28370SOL     OW90047   1.968   6.464   3.681  0.3094 -0.3717  0.0648
28370SOL    HW190048   1.916   6.545   3.678 -0.3199 -0.6965  1.3474
28370SOL    HW290049   2.057   6.493   3.701  0.1172  0.0282  0.3660
28371SOL     OW90050  10.644   0.359   7.410 -0.6608  0.2227 -0.2111
28371SOL    HW190051  10.552   0.341   7.431 -0.5624 -1.4931 -1.0701
28371SOL    HW290052  10.642   0.401   7.324 -0.6257 -0.2053 -0.4229
28372SOL     OW90053   6.894   6.160   4.998 -0.1822 -0.3580 -0.5337
28372SOL    HW190054   6.886   6.231   5.062 -2.4130 -0.7780 -0.2632
28372SOL    HW290055   6.965   6.188   4.940  1.3966  0.4057  1.6326
28373SOL     OW90056   5.715  11.154   3.869  0.3287 -0.5136  0.0029
28373SOL    HW190057   5.696  11.146   3.776  0.7576 -2.3877  0.0424
28373SOL    HW290058   5.688  11.071   3.907 -4.0123  1.6134  2.3964
28374SOL     OW90059   4.673  10.076   9.276  0.7304 -0.3671 -0.3085
28374SOL    HW190060   4.659  10.031   9.193  0.4339 -0.5460 -0.1665
28374SOL    HW290061   4.628  10.021   9.341  0.1937  0.2335 -0.1594
28375SOL     OW90062   9.635  10.976   6.699  0.2071 -0.1494  0.8002
28375SOL    HW190063   9.704  11.024   6.653 -0.6182  0.1950 -0.1157
28375SOL    HW290064   9.622  11.024   6.780  1.4508 -0.5687  1.2606
28376SOL     OW90065  11.018   1.353   3.056 -0.0382 -0.3251  0.1970
28376SOL    HW190066  10.934   1.374   3.097  0.3963 -0.1484  1.0085
28376SOL    HW290067  11.003   1.268   3.014 -0.0725 -1.2331  1.9730
28377SOL     OW90068   1.405   3.770   8.619 -0.3156  0.1931  0.2709
28377SOL    HW190069   1.398   3.854   8.664 -1.0566  0.1848  0.1870
28377SOL    HW290070   1.449   3.713   8.683 -1.7062  0.0751  1.1599
28378SOL     OW90071   7.074   2.258   6.145 -0.0800  0.3862  0.3680
28378SOL    HW190072   7.070   2.187   6.210  1.7210 -0.1857 -0.0819
28378SOL    HW290073   7.161   2.249   6.106 -0.6775  1.4568 -1.2993
28379SOL     OW90074   6.314   5.469   9.652 -0.3078 -0.0474 -0.2813
28379SOL    HW190075   6.399   5.443   9.616  0.4535  0.9381  0.7426
28379SOL    HW290076   6.250   5.432   9.592  0.7871 -2.1527 -0.2357
28380SOL     OW90077   9.714   4.356   0.395  0.4190  0.1593 -0.6438
28380SOL    HW190078   9.679   4.419   0.332 -0.9898 -0.2648 -0.3059
28380SOL    HW290079   9.674   4.272   0.371 -1.2062  0.2173  1.5973
28381SOL     OW90080   1.972   7.665   5.437  0.0948  0.0761  1.0089
28381SOL    HW190081   1.930   7.583   5.413 -0.0787  0.7158 -1.0700
28381SOL    HW290082   2.065   7.645   5.440  0.0868 -0.1182  0.1065
28382SOL     OW90083   3.072  10.747   2.545  0.3543  0.0539  0.2367
28382SOL    HW190084   3.153  10.709   2.579  0.8147 -0.1122 -1.0035
28382SOL    HW290085   3.025  10.673   2.507 -1.5955 -0.3435  3.0834
28383SOL     OW90086   1.415   3.459   4.162  0.7434  0.1819 -0.2951
28383SOL    HW190087   1.504   3.437   4.189  1.7903  0.1050 -3.4415
28383SOL    HW290088   1.410   3.433   4.070 -2.2807  0.9914 -0.4878
28384SOL     OW90089  11.324   3.111   6.726 -0.4613  0.2559 -0.1885
28384SOL    HW190090  11.392   3.110   6.659  1.0550  1.0350  1.2349
28384SOL    HW290091  11.358   3.052   6.794 -2.2062 -0.9412 -0.2906
28385SOL     OW90092   2.750   2.485   1.594  0.3508 -0.0042  0.3276
28385SOL    HW190093   2.804   2.406   1.606  1.1750  0.7800  2.2197
28385SOL    HW290094   2.813   2.554   1.576  0.1280  1.0107  2.9755
28386SOL     OW90095   6.778   2.103  10.555 -0.0709 -0.2301 -0.1228
28386SOL    HW190096   6.814   2.054  10.629 -1.5844 -0.5386  0.4329
28386SOL    HW290097   6.699   2.144  10.590 -0.1194  0.6737 -1.2385
28387SOL     OW90098   6.386  11.672   6.222 -0.2424  0.2890  0.0935
28387SOL    HW190099   6.335  11.751   6.207 -1.0290 -0.1226  0.5665
28387SOL    HW290100   6.387  11.627   6.138 -0.7945  0.2173  0.1270
28388SOL     OW90101   7.031   9.985   8.802 -0.3543  0.5285 -0.0243
28388SOL    HW190102   6.949   9.949   8.834  0.7354 -1.3282  0.8327
28388SOL    HW290103   7.013  10.011   8.712 -1.6645 -0.5654 -0.1034
28389SOL     OW90104   6.688   5.939   6.435 -0.3147 -0.5696  0.1686
28389SOL    HW190105   6.659   6.030   6.431  0.4917 -0.3061  0.0676
28389SOL    HW290106   6.642   5.903   6.510 -0.3891  0.0194  0.4148
28390SOL     OW90107   3.858  11.161  10.830  0.1152 -0.8663  0.4520
28390SOL    HW190108   3.948  11.168  10.800 -0.7227  0.0151 -2.1836
28390SOL    HW290109   3.823  11.086  10.783 -0.4570 -1.4541  1.7601
28391SOL     OW90110  11.027   3.954   8.268  0.1844 -0.1561 -0.4051
28391SOL    HW190111  10.962   4.014   8.306 -0.7359 -0.5338 -1.3385
28391SOL    HW290112  11.088   4.012   8.223  1.6321  0.3537  2.0281
28392SOL     OW90113   3.200   0.117   6.544 -0.0072  0.2651  0.3714
28392SOL    HW190114   3.197   0.202   6.498  0.9013  0.4923  0.7143
28392SOL    HW290115   3.119   0.115   6.595  0.2142  1.1849  0.7954
28393SOL     OW90116   4.499   0.867  10.239 -0.1667  0.3342 -0.0773
28393SOL    HW190117   4.431   0.875  10.171  1.1322  1.5092 -1.2998
28393SOL    HW290118   4.581   0.867  10.191  0.7384 -2.0772  1.2996
28394SOL     OW90119  10.461   3.561   6.280 -0.4476  0.3521 -0.0084
28394SOL    HW190120  10.388   3.528   6.226 -0.1551 -0.4700  0.0758
28394SOL    HW290121  10.419   3.589   6.361 -0.4532 -2.4255  1.0537
28395SOL     OW90122   2.812   7.612  11.237  0.2794  0.4541  0.1846
28395SOL    HW190123   2.730   7.597  11.190 -0.7903 -0.1776  2.1329
28395SOL    HW290124   2.863   7.670  11.180  0.3598 -2.5048 -3.1303
28396SOL     OW90125   6.216   0.609   3.892 -0.0065  0.2558  0.0970
28396SOL    HW190126   6.186   0.700   3.896 -1.2456 -0.1503  0.1660
28396SOL    HW290127   6.229   0.593   3.799  0.5174  0.5910  0.1062
28397SOL     OW90128   7.613   1.081   8.442 -0.0833  0.1371  0.0666
28397SOL    HW190129   7.577   1.046   8.523 -0.2291  0.4905  0.1569
28397SOL    HW290130   7.646   1.168   8.465 -0.3483  0.3417 -0.3008
28398SOL     OW90131   5.590   8.958   7.320 -0.6561  0.4189  0.0333
28398SOL    HW190132   5.557   8.918   7.240 -1.3355 -0.6053  0.8065
28398SOL    HW290133   5.664   9.012   7.291  1.3024 -2.5289 -0.9024
28399SOL     OW90134   7.990  11.143   3.735 -0.1437 -0.0558 -0.1569
28399SOL    HW190135   7.953  11.232   3.729  1.3211  0.5665 -0.4214
28399SOL    HW290136   8.079  11.152   3.702  1.0375 -1.0044  2.4688
28400SOL     OW90137  10.362   2.880   8.791  0.3498 -0.3579  0.3522
28400SOL    HW190138  10.428   2.950   8.785  0.2475 -0.2360  0.6509
28400SOL    HW290139  10.413   2.799   8.784  0.3013 -0.2573 -1.7889
28401SOL     OW90140   7.281  10.446   9.998  0.4323 -0.6004 -0.2895
28401SOL    HW190141   7.232  10.444  10.080  0.6411  0.3155 -0.1326
28401SOL    HW290142   7.237  10.381   9.943 -1.0645  0.2847 -0.2092
28402SOL     OW90143   4.268   5.199   6.684 -0.1309 -0.0054 -0.2428
28402SOL    HW190144   4.350   5.151   6.679 -0.9429 -1.3493 -1.8146
28402SOL    HW290145   4.282   5.276   6.630  0.1671 -0.1234 -0.3357
28403SOL     OW90146   8.912   4.686   0.795 -0.1442 -0.4669 -0.0998
28403SOL    HW190147   8.884   4.716   0.708  2.2584  2.6870  0.0251
28403SOL    HW290148   8.993   4.636   0.778  0.4900  0.4064  0.3023
28404SOL     OW90149   7.357   0.051  10.471 -0.2632 -0.3605 -0.0284
28404SOL    HW190150   7.304   0.010  10.403 -0.7532 -0.3890  0.3606
28404SOL    HW290151   7.415  -0.019  10.502  0.9302 -0.0071 -1.3332
28405SOL     OW90152   3.069   8.106  10.315  0.1565  0.0459  0.3673
28405SOL    HW190153   3.120   8.135  10.239  0.3158  1.6335  1.0272
28405SOL    HW290154   3.121   8.034  10.352  0.9172  0.3392 -0.0944
28406SOL     OW90155   4.228  10.880   1.819  1.0723 -0.4798 -0.8676
28406SOL    HW190156   4.280  10.902   1.896  0.4675 -0.7663 -0.3806
28406SOL    HW290157   4.271  10.802   1.784 -0.1554 -1.8865  0.6419
28407SOL     OW90158   5.458   5.443  10.217  0.2714 -0.3348  0.4700
28407SOL    HW190159   5.508   5.363  10.200  0.6820  0.5088 -2.9328
28407SOL    HW290160   5.375   5.430  10.172 -0.0523  0.7907  0.7096
28408SOL     OW90161   4.455   1.163   0.142 -0.1199  0.4570 -0.0510
28408SOL    HW190162   4.543   1.142   0.174 -0.4083 -1.2614 -0.2615
28408SOL    HW290163   4.409   1.198   0.218  0.9821  2.2718 -0.1608
28409SOL     OW90164   6.262   4.354   5.284  0.2679  0.5919  0.1222
28409SOL    HW190165   6.193   4.400   5.238 -1.7829 -1.6070  0.8002
28409SOL    HW290166   6.285   4.280   5.228  2.2176  1.3325 -0.1446
28410SOL     OW90167  10.340   3.967   3.892  0.1304  0.2496 -0.3520
28410SOL    HW190168  10.351   4.048   3.842  0.5822  0.7270  0.5018
28410SOL    HW290169  10.284   3.992   3.966 -0.3806 -0.4049 -0.5130
28411SOL     OW90170   6.253  11.258   7.670 -0.2622 -0.1164  0.1452
28411SOL    HW190171   6.199  11.233   7.595  0.9035 -0.0468 -0.7440
28411SOL    HW290172   6.341  11.268   7.634  0.4443 -0.6852  1.6446
28412SOL     OW90173   6.149   3.831   7.172 -0.0263 -0.9666  0.0678
28412SOL    HW190174   6.182   3.812   7.084  0.1450 -0.7510  0.0823
28412SOL    HW290175   6.094   3.909   7.160 -2.6778 -2.7915 -0.4069
28413SOL     OW90176  10.177   1.703   0.659 -0.0524 -0.0309 -0.1966
28413SOL    HW190177  10.207   1.700   0.568 -2.8266 -1.3962 -1.1910
28413SOL    HW290178  10.085   1.728   0.653  0.1177  1.5265  2.4124
28414SOL     OW90179   2.319   2.758   3.507 -0.2834  0.2216 -0.5463
28414SOL    HW190180   2.274   2.678   3.532 -0.2350  0.1978 -0.5350
28414SOL    HW290181   2.254   2.827   3.517 -0.7875 -0.0089 -2.0082
28415SOL     OW90182   6.791   3.276   2.472 -0.0190 -0.0620  0.4177
28415SOL    HW190183   6.708   3.264   2.518  0.8160  1.0262  2.3253
28415SOL    HW290184   6.770   3.338   2.402 -1.1376 -1.0898 -0.1979
28416SOL     OW90185   3.754   7.762  11.143 -0.0140 -0.7240 -0.3176
28416SOL    HW190186   3.797   7.724  11.066  1.9231 -0.3457  0.5110
28416SOL    HW290187   3.780   7.854  11.141  0.9552 -0.9247  1.3231
28417SOL     OW90188   1.036   7.860   1.448  0.1968 -0.2654 -0.2180
28417SOL    HW190189   0.964   7.906   1.491 -0.3527 -1.5583  0.2862
28417SOL    HW290190   1.021   7.768   1.468  2.1652 -0.5380  0.1279
28418SOL     OW90191   0.381   3.899   2.703  0.1265  0.2806  0.2363
28418SOL    HW190192   0.373   3.839   2.778  1.6275 -0.2473  0.0140
28418SOL    HW290193   0.383   3.841   2.627  1.0475  0.6266 -0.0187
28419SOL     OW90194   7.004   5.091  10.058 -0.0246 -0.1424 -0.0185
28419SOL    HW190195   7.060   5.037  10.001  0.1097 -0.8417  0.7565
28419SOL    HW290196   7.064   5.148  10.104  0.1945 -1.5625  1.5372
28420SOL     OW90197  10.265   3.390   0.197 -0.3107 -0.1510 -0.2200
28420SOL    HW190198  10.270   3.311   0.251  1.3940 -0.6566 -1.0391
28420SOL    HW290199  10.343   3.440   0.222  0.6962 -0.5327 -2.3299
28421SOL     OW90200   3.922   5.012   0.239  0.0368 -0.2387 -0.7633
28421SOL    HW190201   4.017   5.009   0.243  0.1220  1.6615 -0.2034
28421SOL    HW290202   3.892   4.954   0.308  0.7554 -1.4452 -1.4426
28422SOL     OW90203   4.106   6.698   5.412 -0.6350  0.4622  0.0126
28422SOL    HW190204   4.030   6.642   5.423 -0.3932  0.2331  0.5162
28422SOL    HW290205   4.175   6.658   5.465 -0.2919  0.9129 -0.0785
28423SOL     OW90206   9.410   1.591   4.827 -0.0827 -0.0387  0.0445
28423SOL    HW190207   9.440   1.631   4.909 -0.0645 -0.9210  0.4856
28423SOL    HW290208   9.488   1.550   4.790  0.6477  2.9009 -2.0240
28424SOL     OW90209   6.476   5.994   2.981  0.3496 -0.7894  0.0048
28424SOL    HW190210   6.486   5.900   2.967  0.3356 -0.8231  0.2067
28424SOL    HW290211   6.427   6.025   2.906  0.6728 -0.8823 -0.2461
28425SOL     OW90212   9.500   5.072   7.486  0.4368 -0.0114  0.5587
28425SOL    HW190213   9.465   5.130   7.553  2.8502  1.3189  0.7970
28425SOL    HW290214   9.475   4.984   7.514 -0.1998  0.6434  2.1763
28426SOL     OW90215   9.442   8.345   8.842 -0.2443  0.2066  0.3010
28426SOL    HW190216   9.373   8.299   8.795 -0.3359 -2.1101  2.4845
28426SOL    HW290217   9.474   8.282   8.907  1.3011  2.4712  1.9308
28427SOL     OW90218   0.117   7.463   1.472  0.3273  0.2036  0.3225
28427SOL    HW190219   0.142   7.391   1.529  1.2498  0.2181 -0.0499
28427SOL    HW290220   0.190   7.472   1.411 -1.0206 -0.4402 -1.4877
28428SOL     OW90221   7.057   4.196   3.174  0.0940  0.0318  0.3401
28428SOL    HW190222   7.111   4.191   3.095  1.1860 -2.9824  1.1382
28428SOL    HW290223   7.112   4.241   3.238 -0.2857  1.3150 -0.2171
28429SOL     OW90224   6.925  11.613   3.164  0.0936 -0.4119  0.0896
28429SOL    HW190225   6.961  11.560   3.093 -0.4277  0.5511 -0.9241
28429SOL    HW290226   6.848  11.565   3.193 -0.2897 -0.2991 -0.7176
28430SOL     OW90227   5.093   4.156  10.818  0.5741  0.4193 -0.1638
28430SOL    HW190228   5.185   4.181  10.825  0.7897 -0.5119  0.4969
28430SOL    HW290229   5.074   4.108  10.899 -1.1129  2.5256  0.7894
28431SOL     OW90230  11.684   6.233  10.637  0.1237 -0.2385  0.2284
28431SOL    HW190231  11.701   6.192  10.722 -1.0595  0.3123  0.7591
28431SOL    HW290232  11.621   6.175  10.594  0.2602 -0.2076 -0.0135
28432SOL     OW90233   6.893   2.267   4.620 -0.1924  0.2666 -0.2007
28432SOL    HW190234   6.837   2.236   4.691 -1.9054 -0.4138 -1.7654
28432SOL    HW290235   6.847   2.343   4.584  1.0996  1.1625 -0.0653
28433SOL     OW90236   6.888   4.711   4.780 -0.0052  0.2578 -0.7585
28433SOL    HW190237   6.829   4.772   4.824  0.8827  0.7138 -0.1749
28433SOL    HW290238   6.831   4.640   4.749 -1.0581  1.4054 -1.5258
28434SOL     OW90239   4.601   6.300   6.916 -0.1868  0.3462 -0.0270
28434SOL    HW190240   4.678   6.265   6.961  0.6332 -0.5647 -2.0419
28434SOL    HW290241   4.562   6.224   6.873 -0.3278  1.3207 -1.6894
28435SOL     OW90242   0.165   5.313   1.315  0.3992  0.3045 -0.0218
28435SOL    HW190243   0.260   5.299   1.307  0.0927 -2.1742 -0.2009
28435SOL    HW290244   0.143   5.276   1.400 -0.4030  1.0082  0.0830
28436SOL     OW90245   1.035   5.625   2.740 -0.3235  0.2519 -0.1781
28436SOL    HW190246   1.119   5.670   2.739  0.6179 -1.3611  0.9409
28436SOL    HW290247   0.995   5.650   2.823 -0.9170  0.9273 -0.6575
28437SOL     OW90248   8.156   0.476   0.011  0.6999 -0.1617  0.3391
28437SOL    HW190249   8.112   0.412  -0.045  0.8208  1.0357 -1.1863
28437SOL    HW290250   8.248   0.450   0.011  0.4727 -1.0170  1.2158
28438SOL     OW90251   2.855   8.129   4.013  0.1933 -0.8825 -0.3755
28438SOL    HW190252   2.822   8.203   4.064  2.9365  0.1139  0.1377
28438SOL    HW290253   2.828   8.052   4.064 -0.3081 -0.0976  0.5956
28439SOL     OW90254   3.932   7.059   4.775 -0.3990 -0.4375 -0.0429
28439SOL    HW190255   4.010   7.034   4.726 -0.9427  0.0066 -1.1811
28439SOL    HW290256   3.868   6.991   4.754 -0.5507 -0.3978  0.2824
28440SOL     OW90257   7.890  11.381   2.774 -0.0292  0.3243 -0.4268
28440SOL    HW190258   7.854  11.343   2.854 -1.5299 -0.0496 -1.2445
28440SOL    HW290259   7.912  11.471   2.798  0.7036 -0.1297  0.7140
28441SOL     OW90260   6.376   8.812   0.400 -0.5203 -0.1264 -0.5663
28441SOL    HW190261   6.360   8.802   0.494 -0.6741 -0.7910 -0.6561
28441SOL    HW290262   6.354   8.904   0.382  1.7282  0.6769  0.4563
28442SOL     OW90263   9.312   0.134   7.510  0.0517  0.0334  0.3373
28442SOL    HW190264   9.293   0.046   7.544 -0.5484 -0.0577 -0.2142
28442SOL    HW290265   9.301   0.191   7.586 -1.8198 -0.0983  0.2148
28443SOL     OW90266   0.465   6.814  11.506 -0.0313  0.3401 -0.6198
28443SOL    HW190267   0.390   6.873  11.516  1.0176  1.5589  0.4495
28443SOL    HW290268   0.537   6.859  11.551  0.5775 -2.2758  1.2548
28444SOL     OW90269   1.507   3.970   1.946 -0.7940  0.5692 -0.9568
28444SOL    HW190270   1.417   3.939   1.936 -1.0846  1.7701 -2.6157
28444SOL    HW290271   1.535   3.990   1.857  1.1254  0.2520 -0.4660
28445SOL     OW90272   7.819   1.602   0.974 -0.1658  0.5018  0.1836
28445SOL    HW190273   7.788   1.659   0.904 -0.8981 -0.3999 -0.2563
28445SOL    HW290274   7.749   1.537   0.985 -0.2331  0.8363  2.0219
28446SOL     OW90275   4.394   4.293   9.255  0.5814 -0.2396 -0.0909
28446SOL    HW190276   4.396   4.369   9.312  2.2820 -0.3700  0.0730
28446SOL    HW290277   4.339   4.229   9.301  2.2791 -0.5215  1.6892
28447SOL     OW90278  10.328   4.217   2.130  0.1769 -0.3840  0.2388
28447SOL    HW190279  10.325   4.305   2.092  0.7832 -0.1923  0.6184
28447SOL    HW290280  10.415   4.185   2.109  0.5462 -0.2504  1.4848
28448SOL     OW90281   6.725   6.393  10.094  0.0298  0.2872  0.0402
28448SOL    HW190282   6.787   6.359  10.159 -0.1280 -1.1410 -0.5192
28448SOL    HW290283   6.661   6.323  10.083 -1.6130  1.6469  0.4664
28449SOL     OW90284   5.613   8.092   5.686  0.1339 -0.1786  0.3127
28449SOL    HW190285   5.703   8.085   5.654  0.0766 -1.0931  0.3272
28449SOL    HW290286   5.584   8.002   5.696 -1.4247  0.0572 -1.5079
28450SOL     OW90287   5.807   3.310   9.740 -0.5448  0.2934  0.3520
28450SOL    HW190288   5.867   3.236   9.747 -1.4708 -0.6569 -1.2499
28450SOL    HW290289   5.756   3.307   9.821 -0.3724 -0.6276  0.4332
28451SOL     OW90290   4.307  11.399   4.152 -0.3364  0.2488  0.1194
28451SOL    HW190291   4.338  11.322   4.199 -0.5225 -0.5632 -1.0377
28451SOL    HW290292   4.214  11.382   4.137  0.0071 -0.2644 -1.8313
28452SOL     OW90293   2.728   7.434   9.674 -0.1503  0.1482 -0.1223
28452SOL    HW190294   2.704   7.413   9.583  0.2370 -0.1722 -0.1566
28452SOL    HW290295   2.788   7.363   9.699  1.1786  1.2007 -0.2236
28453SOL     OW90296   4.557   2.128   1.529  0.0725  0.6485  0.3433
28453SOL    HW190297   4.513   2.118   1.614 -1.1288  0.0276 -0.3295
28453SOL    HW290298   4.551   2.042   1.488 -0.8059  1.3156 -1.0228
28454SOL     OW90299   8.306   2.873   5.282  0.5065 -0.1182 -0.6211
28454SOL    HW190300   8.371   2.942   5.293 -0.0306  0.4446 -0.9472
28454SOL    HW290301   8.266   2.891   5.197 -1.0242  0.3420  0.1728
28455SOL     OW90302   6.160   6.197   1.187 -0.4297  0.4792  0.9527
28455SOL    HW190303   6.123   6.270   1.236 -0.5009  0.6783  0.6070
28455SOL    HW290304   6.202   6.238   1.111 -0.1931  0.1883  0.9226
28456SOL     OW90305  10.759   7.786   2.763 -0.6656 -0.2271 -0.3150
28456SOL    HW190306  10.768   7.718   2.829  1.1768  0.1237 -0.1512
28456SOL    HW290307  10.691   7.844   2.797  0.3141 -0.0012  1.3360
28457SOL     OW90308   5.442   9.694   2.562  0.1349  0.1649 -0.3991
28457SOL    HW190309   5.422   9.674   2.471  0.2210 -1.9271  0.0084
28457SOL    HW290310   5.362   9.673   2.610 -0.1374  1.8660 -0.0222
28458SOL     OW90311   7.176   2.067  10.577 -0.3098 -0.2486  0.3220
28458SOL    HW190312   7.215   1.983  10.601 -0.6462 -1.3694 -2.5720
28458SOL    HW290313   7.214   2.086  10.491 -0.7913  2.2381  0.6047
28459SOL     OW90314  10.425   8.448   4.574 -0.2003  0.2920  0.5031
28459SOL    HW190315  10.461   8.384   4.636  1.9009  0.7492 -0.1697
28459SOL    HW290316  10.464   8.531   4.601 -1.0654  0.8908 -0.0573
28460SOL     OW90317   4.512   3.000   5.904 -0.0445  0.6138 -0.3295
28460SOL    HW190318   4.426   2.963   5.927 -0.0210  0.6704 -0.1491
28460SOL    HW290319   4.569   2.923   5.897 -0.3249  0.4980 -1.3949
28461SOL     OW90320   7.266   3.080   9.788  0.2201  0.0512 -0.2475
28461SOL    HW190321   7.331   3.137   9.829  0.3576  0.3654 -0.8892
28461SOL    HW290322   7.204   3.059   9.858  1.2380 -0.6070  0.4976
28462SOL     OW90323   2.218   5.427   7.445  0.3134  0.1977  0.2961
28462SOL    HW190324   2.208   5.456   7.536  0.4463 -2.0100  1.0546
28462SOL    HW290325   2.131   5.395   7.421  0.6694 -0.7030  0.1962
28463SOL     OW90326   2.425   6.808   3.333 -0.1656 -0.5991 -0.2306
28463SOL    HW190327   2.479   6.859   3.273  0.4895 -1.4153 -0.3612
28463SOL    HW290328   2.339   6.849   3.330 -0.4030 -1.1475 -2.4042
28464SOL     OW90329   8.570   6.417   9.903 -0.6344 -0.0907  0.1149
28464SOL    HW190330   8.624   6.449   9.975  0.0684  1.5596 -1.0852
28464SOL    HW290331   8.498   6.479   9.898  0.0984  0.6909 -1.4816
28465SOL     OW90332   4.627   2.504  10.849 -0.5011  0.9201 -0.0439
28465SOL    HW190333   4.708   2.553  10.842  0.3592 -0.2779  1.0097
28465SOL    HW290334   4.648   2.431  10.908 -2.0596  0.0065 -0.5536
28466SOL     OW90335   0.119   3.788   0.058 -0.1578 -0.0812 -0.1639
28466SOL    HW190336   0.181   3.732   0.010 -0.1409 -0.4633  0.2933
28466SOL    HW290337   0.129   3.761   0.149 -2.4634 -1.6210 -0.2930
28467SOL     OW90338  11.047  11.508   3.369 -0.4841  0.5762 -0.2555
28467SOL    HW190339  10.962  11.464   3.363 -0.3282  0.1818  0.3304
28467SOL    HW290340  11.071  11.527   3.279 -0.0292 -1.5578 -0.6319
28468SOL     OW90341   2.695   6.063   6.108  0.0138  0.1612  0.1655
28468SOL    HW190342   2.646   6.138   6.144 -1.2474 -0.5586  0.0312
28468SOL    HW290343   2.639   5.988   6.128  1.4321 -0.8002  0.6265
28469SOL     OW90344   6.387   7.717   0.701  0.3208  0.3428  0.5273
28469SOL    HW190345   6.299   7.756   0.701  0.0849 -0.0797  2.2668
28469SOL    HW290346   6.420   7.732   0.613 -1.8918 -0.3886 -0.5057
28470SOL     OW90347   3.919   2.144   4.413 -0.0498  0.1287  0.2066
28470SOL    HW190348   3.866   2.201   4.469 -2.4548 -1.8378  0.0812
28470SOL    HW290349   3.873   2.141   4.330 -0.2776 -2.2820  0.3352
28471SOL     OW90350   5.975  11.331   4.623  0.2838 -0.2191 -0.4130
28471SOL    HW190351   5.989  11.281   4.703  0.3633  0.3685 -0.0494
28471SOL    HW290352   5.934  11.413   4.653  0.9498  0.3016 -0.8911
28472SOL     OW90353   9.567  10.494  10.745  0.0794 -0.2952  0.0910
28472SOL    HW190354   9.657  10.473  10.723  0.5218  0.4696  1.1358
28472SOL    HW290355   9.566  10.589  10.757 -0.8061 -0.3300  0.3723
28473SOL     OW90356  11.314  11.607   7.521 -0.0909 -0.2255  0.6722
28473SOL    HW190357  11.282  11.698   7.521 -0.9770 -0.5102 -0.1957
28473SOL    HW290358  11.246  11.558   7.566 -1.3685 -0.9587 -1.8330
28474SOL     OW90359   4.043   9.129   7.163 -0.3504 -0.3754  0.4522
28474SOL    HW190360   3.948   9.143   7.151 -0.1842  0.2251 -0.2691
28474SOL    HW290361   4.081   9.151   7.078  0.6204  1.1074  1.2273
28475SOL     OW90362   0.165   0.964   9.059  0.3883  0.3401 -0.4483
28475SOL    HW190363   0.077   0.942   9.089  1.0571 -1.0127  0.6793
28475SOL    HW290364   0.190   1.041   9.110 -1.1093  2.5221 -2.7606
28476SOL     OW90365   0.946   7.888   8.941  0.1313  0.1396  0.6011
28476SOL    HW190366   0.941   7.934   8.857  0.2580 -1.8933 -0.5931
28476SOL    HW290367   0.862   7.905   8.983  0.2503  1.5769  0.2950
28477SOL     OW90368   8.215   9.250   2.522 -0.3203 -0.4913  0.0871
28477SOL    HW190369   8.145   9.315   2.531  1.3543  1.4541  0.0122
28477SOL    HW290370   8.204   9.215   2.434 -1.6492 -0.8197  0.3641
28478SOL     OW90371   8.905   0.478   8.251  0.7182 -0.0901  0.4786
28478SOL    HW190372   8.853   0.557   8.263 -0.5700 -1.0320  1.3990
28478SOL    HW290373   8.996   0.508   8.259  0.4623  1.8027 -2.4073
28479SOL     OW90374   6.811   3.583   8.781  0.0975  0.0587 -0.1272
28479SOL    HW190375   6.898   3.597   8.743 -0.6117  1.0953 -1.4492
28479SOL    HW290376   6.755   3.647   8.738 -1.1410  0.1033  1.4415
28480SOL     OW90377   0.786   6.536   5.540 -0.4439  0.1405 -0.0486
28480SOL    HW190378   0.814   6.469   5.603 -0.0768 -0.6437 -1.0143
28480SOL    HW290379   0.695   6.513   5.520  0.2241 -1.2470 -1.7772
28481SOL     OW90380   6.766   5.365   4.291 -0.0202  0.8283  0.0598
28481SOL    HW190381   6.688   5.350   4.344  0.4182  1.0831  0.7981
28481SOL    HW290382   6.837   5.323   4.340  0.1616 -0.2897 -1.1017
28482SOL     OW90383   9.766   6.529   9.960  0.0489 -0.4883 -0.5555
28482SOL    HW190384   9.706   6.481   9.903  0.8981 -1.9557 -0.2848
28482SOL    HW290385   9.803   6.462  10.018  1.0396  0.5629  0.0871
28483SOL     OW90386   0.687  11.579   2.128  0.1976  0.4647 -0.2357
28483SOL    HW190387   0.746  11.639   2.173  2.4769 -0.4835 -1.7998
28483SOL    HW290388   0.601  11.597   2.166  1.5143  1.6304  2.4368
28484SOL     OW90389   0.936   3.614   3.567  0.3918 -0.4276 -0.3527
28484SOL    HW190390   0.883   3.546   3.525  0.0063  0.3827 -1.2080
28484SOL    HW290391   0.890   3.632   3.649  0.7875 -1.5556  0.1385
28485SOL     OW90392   3.365   3.281  11.663  0.1258 -1.0761 -0.3183
28485SOL    HW190393   3.344   3.283  11.756  0.9404  0.6964 -0.1514
28485SOL    HW290394   3.282   3.301  11.619 -0.0621 -1.0254  0.0605
28486SOL     OW90395   1.070   8.404   8.722 -0.5948 -0.2975  0.3682
28486SOL    HW190396   1.062   8.407   8.627  1.4102  0.0565  0.1494
28486SOL    HW290397   1.024   8.482   8.753  1.9695  1.8188 -0.7023
28487SOL     OW90398   7.378   2.811  10.224  0.8220  0.4704 -0.6139
28487SOL    HW190399   7.354   2.793  10.133 -2.3610  1.4661 -0.1095
28487SOL    HW290400   7.367   2.906  10.233  0.8735  0.3611  0.8233
28488SOL     OW90401  11.305   0.746   2.521 -0.3067  0.1662 -0.8684
28488SOL    HW190402  11.364   0.686   2.566 -0.8696  0.8798  0.8966
28488SOL    HW290403  11.275   0.697   2.444 -1.0653 -1.9939  0.7149
28489SOL     OW90404   9.111   7.055   1.002  0.2858  0.0302 -0.2979
28489SOL    HW190405   9.024   7.041   0.965 -0.8453  1.0181  1.7880
28489SOL    HW290406   9.146   6.966   1.014 -2.0146 -0.7043  2.1514
28490SOL     OW90407   8.853   0.629   4.978 -0.4363  0.1776  0.4035
28490SOL    HW190408   8.932   0.625   5.031 -0.6413  1.7725  0.8787
28490SOL    HW290409   8.806   0.706   5.010 -1.3992  0.1993 -0.9523
28491SOL     OW90410  11.404  11.546   1.495  0.2728 -0.2321 -0.2457
28491SOL    HW190411  11.410  11.479   1.427 -0.0046  0.0293 -0.5322
28491SOL    HW290412  11.495  11.568   1.516  0.3867  0.8632 -1.7135
28492SOL     OW90413   7.962   1.433   1.369  0.2386  0.2460 -0.0771
28492SOL    HW190414   7.920   1.519   1.367 -2.5550 -0.9241  2.0023
28492SOL    HW290415   8.025   1.438   1.440 -0.7215  0.2856  0.7898
28493SOL     OW90416   7.386   1.075   2.126  0.5095 -0.1115  0.4197
28493SOL    HW190417   7.384   1.055   2.219  1.7484  2.1123  1.0001
28493SOL    HW290418   7.312   1.133   2.111  0.7160  0.0986  0.1831
28494SOL     OW90419   2.789   0.719   2.102 -0.0926 -0.0238 -0.2062
28494SOL    HW190420   2.705   0.703   2.143  0.2886 -1.8427 -0.0660
28494SOL    HW290421   2.774   0.701   2.009  0.1325 -0.3002 -0.1882
28495SOL     OW90422   6.597  10.966   1.656 -0.2910 -0.3872  0.3187
28495SOL    HW190423   6.649  10.886   1.645  1.0794  0.1208  2.5461
28495SOL    HW290424   6.580  10.971   1.750 -1.9903  0.9774 -0.0095
28496SOL     OW90425   7.063   5.385   3.463  0.4177 -0.2098  0.2093
28496SOL    HW190426   7.157   5.392   3.483 -0.1924 -0.6080  4.1259
28496SOL    HW290427   7.036   5.303   3.506 -1.8318  0.2466 -0.2337
28497SOL     OW90428   7.666  10.803   8.542  0.2055  0.0768 -0.7305
28497SOL    HW190429   7.704  10.865   8.480  0.8376  0.1723 -0.2484
28497SOL    HW290430   7.610  10.857   8.598  1.7026  0.4298  0.4696
28498SOL     OW90431   7.429  10.777   9.043 -0.0607  0.9167 -0.3129
28498SOL    HW190432   7.457  10.689   9.019 -1.1847  0.8716 -1.6560
28498SOL    HW290433   7.510  10.823   9.067  0.6265 -0.2690 -0.2929
28499SOL     OW90434   0.654   8.188   9.977  0.0864 -0.1559 -0.3991
28499SOL    HW190435   0.705   8.209  10.055 -0.2016 -0.7580 -0.0434
28499SOL    HW290436   0.599   8.265   9.962 -0.6696 -0.4765  0.6511
28500SOL     OW90437   7.732   8.220  11.142 -0.6744  0.4872  0.0623
28500SOL    HW190438   7.742   8.149  11.206  1.2582  0.3647 -0.3255
28500SOL    HW290439   7.820   8.234  11.108 -1.3150  1.9744 -1.0707
28501SOL     OW90440   7.701   9.867  11.033 -0.5984  0.1370 -0.1979
28501SOL    HW190441   7.788   9.908  11.024 -0.5817  0.0032 -0.6347
28501SOL    HW290442   7.709   9.783  10.988 -1.0994  0.3348 -0.6599
28502SOL     OW90443   1.080   4.312  11.206  0.3515 -0.1264  0.1184
28502SOL    HW190444   1.028   4.392  11.202 -0.0174 -0.2301  1.8806
28502SOL    HW290445   1.123   4.306  11.121  0.8758  2.2621  0.1683
28503SOL     OW90446  11.148   8.209   7.923 -0.0394 -0.0988  0.2722
28503SOL    HW190447  11.230   8.258   7.925  1.7101 -2.7139 -1.0711
28503SOL    HW290448  11.126   8.196   8.015  0.0776  2.0535  0.6554
28504SOL     OW90449   1.296   1.342   0.220  0.3276 -0.0041  0.7967
28504SOL    HW190450   1.278   1.307   0.307 -0.8456 -0.2045  0.4903
28504SOL    HW290451   1.216   1.324   0.170  0.7346  0.6957 -0.1315
28505SOL     OW90452   4.716   0.777   0.805  0.1285 -0.1310 -0.3554
28505SOL    HW190453   4.741   0.756   0.895  1.0807  0.7577 -0.3903
28505SOL    HW290454   4.786   0.835   0.774  0.4936 -1.4412 -2.0962
28506SOL     OW90455   3.458   8.102   3.287  0.0039 -0.3461  0.3442
28506SOL    HW190456   3.457   8.120   3.193 -1.8068 -1.0425  0.1800
28506SOL    HW290457   3.480   8.186   3.328  0.4170  0.0538 -0.6812
28507SOL     OW90458  11.353   3.303   3.935 -0.5122  0.2587  0.0853
28507SOL    HW190459  11.441   3.331   3.959 -1.0488  1.8912  0.2595
28507SOL    HW290460  11.347   3.213   3.967  1.2222 -0.0484 -0.3283
28508SOL     OW90461   8.092   1.471   7.240 -0.0594 -0.0425 -0.5312
28508SOL    HW190462   8.122   1.388   7.275  0.4835  0.7277  0.9338
28508SOL    HW290463   8.012   1.450   7.192  0.8700 -1.6080 -1.4804
28509SOL     OW90464   9.549   7.867   9.477 -0.2033  1.0191 -0.1835
28509SOL    HW190465   9.478   7.918   9.439 -1.6718 -0.9542 -0.2606
28509SOL    HW290466   9.505   7.796   9.525  1.6587 -1.2825 -1.6368
28510SOL     OW90467   0.431  10.476   8.600  0.4642 -0.0165  0.2016
28510SOL    HW190468   0.377  10.396   8.606 -0.1424  0.3897  0.2861
28510SOL    HW290469   0.411  10.524   8.680  0.4978  0.4223 -0.0503
28511SOL     OW90470   9.460   6.980  10.349 -0.0084 -0.3979 -0.2652
28511SOL    HW190471   9.517   7.057  10.338  0.9623 -1.1171 -0.3720
28511SOL    HW290472   9.389   7.012  10.405  1.8977 -0.1467  2.2150
28512SOL     OW90473  11.615   2.984   6.921  0.0826 -0.0262 -0.4613
28512SOL    HW190474  11.665   3.029   6.989  0.5095  0.4529 -1.0825
28512SOL    HW290475  11.674   2.980   6.846 -0.7047  0.3140 -1.1217
28513SOL     OW90476   6.241   8.380   0.322  0.4731  0.0503  0.0613
28513SOL    HW190477   6.337   8.375   0.325  0.8063  2.7416 -2.2077
28513SOL    HW290478   6.223   8.466   0.285 -2.7385 -1.7237 -3.0954
28514SOL     OW90479   5.273   6.896   1.360  0.0674 -0.3879  0.2884
28514SOL    HW190480   5.298   6.804   1.369  2.9395 -0.0555 -2.5267
28514SOL    HW290481   5.343   6.945   1.403 -0.9844  0.5374  1.0037
28515SOL     OW90482   1.715   5.124   4.032  0.2278 -0.4619  0.1926
28515SOL    HW190483   1.718   5.029   4.025  1.3233 -0.3515 -1.2346
28515SOL    HW290484   1.669   5.153   3.953  1.6176  0.2800 -0.3648
28516SOL     OW90485   7.050   6.797   7.931 -0.2453 -0.0025  0.1902
28516SOL    HW190486   7.092   6.765   7.851  1.0996  2.3776 -0.1561
28516SOL    HW290487   7.059   6.725   7.993  0.7195 -1.0761 -1.1151
28517SOL     OW90488   5.697   9.747   3.904 -0.6060 -0.7852  0.2441
28517SOL    HW190489   5.628   9.769   3.967 -0.4225  0.3568  0.0596
28517SOL    HW290490   5.757   9.821   3.907 -0.3405 -0.9309 -0.9274
28518SOL     OW90491   8.313   9.382   6.532 -0.5201  0.3514  0.0152
28518SOL    HW190492   8.379   9.375   6.464  0.2849 -1.4008  0.9078
28518SOL    HW290493   8.310   9.475   6.554  2.5907  0.3636  0.7984
28519SOL     OW90494   5.466   2.777  11.083 -0.2784 -0.8240 -0.3596
28519SOL    HW190495   5.473   2.871  11.065  0.0297 -0.5437  1.0697
28519SOL    HW290496   5.548   2.740  11.051  0.5655 -0.2358  1.0388
28520SOL     OW90497   3.674   6.985   4.090  0.1496  0.3432  0.0367
28520SOL    HW190498   3.695   7.078   4.085  1.2403  0.1069  0.0660
28520SOL    HW290499   3.599   6.981   4.150 -1.5884  1.4208 -1.9175
28521SOL     OW90500   1.780   7.392   8.772 -0.0147 -0.2364  0.1044
28521SOL    HW190501   1.854   7.335   8.750 -0.5499 -1.4837  1.4052
28521SOL    HW290502   1.708   7.359   8.718  0.3787  1.1240 -1.3355
28522SOL     OW90503   6.273  10.632   2.033  0.1996 -0.5990  0.0161
28522SOL    HW190504   6.285  10.608   1.941  2.4371  1.2734 -0.2642
28522SOL    HW290505   6.204  10.699   2.031  0.5436 -0.2507 -0.3604
28523SOL     OW90506  10.038   2.519   2.769  0.1510  0.6691 -0.5562
28523SOL    HW190507   9.999   2.591   2.819 -0.8859  1.0851 -1.9292
28523SOL    HW290508  10.122   2.554   2.739  0.9798  0.2783  1.1614
28524SOL     OW90509  10.505   4.771   7.049 -0.0679  0.0110  0.3709
28524SOL    HW190510  10.542   4.781   6.961 -1.6827  0.2641 -0.3133
28524SOL    HW290511  10.530   4.851   7.095 -1.0000  0.8606 -0.5565
28525SOL     OW90512   0.574   8.488   6.438  0.1900  0.1669 -0.4562
28525SOL    HW190513   0.651   8.449   6.395 -0.2402  1.0636 -2.1019
28525SOL    HW290514   0.547   8.559   6.380  0.0152  1.9602  1.6989
28526SOL     OW90515   3.270   0.006   4.204  0.0280  0.2508 -0.1384
28526SOL    HW190516   3.357  -0.011   4.168  1.3379  0.9068  2.4234
28526SOL    HW290517   3.236   0.078   4.153  1.2483  0.3562 -0.8499
28527SOL     OW90518   0.559   8.192   9.054  0.4166  0.6623  0.0882
28527SOL    HW190519   0.500   8.264   9.035 -0.7986 -0.2194  0.3503
28527SOL    HW290520   0.621   8.191   8.982 -0.5222  0.9938 -0.7523
28528SOL     OW90521   2.226   4.902   3.057  0.7145 -0.2833 -0.4213
28528SOL    HW190522   2.268   4.899   2.971  1.9490  0.2538  0.1459
28528SOL    HW290523   2.298   4.894   3.119  0.0901  1.4300  0.5926
28529SOL     OW90524   1.473   8.388   0.521 -0.0458 -0.1681  0.0626
28529SOL    HW190525   1.561   8.394   0.483 -0.7331 -0.7406 -1.7096
28529SOL    HW290526   1.483   8.423   0.610  2.0153 -0.4541 -0.0063
28530SOL     OW90527   3.624   1.861   9.433 -0.4520 -0.4348  0.4390
28530SOL    HW190528   3.629   1.789   9.370  3.5522  0.3016 -0.3670
28530SOL    HW290529   3.701   1.850   9.489 -0.3450  2.4920  1.0487
28531SOL     OW90530   2.188   6.070   5.352 -0.0628 -0.1871 -0.1450
28531SOL    HW190531   2.206   6.013   5.427 -1.3101 -1.8417 -1.0306
28531SOL    HW290532   2.113   6.122   5.379  1.3915  1.4815  0.8571
28532SOL     OW90533   7.803   3.991   7.550 -0.6601 -0.5020 -0.6716
28532SOL    HW190534   7.876   3.942   7.587  0.1823  2.0813  1.4022
28532SOL    HW290535   7.737   3.924   7.531  1.1976 -2.6339 -0.1139
28533SOL     OW90536   7.143   6.843   1.580  0.0681  0.2027  0.8291
28533SOL    HW190537   7.167   6.888   1.498  0.4237 -0.8079  0.3705
28533SOL    HW290538   7.057   6.879   1.602  0.4391  1.2744  0.5973
28534SOL     OW90539  11.601   6.235   7.888 -0.0699 -0.5792  0.0925
28534SOL    HW190540  11.579   6.179   7.813 -1.4100 -0.2583  0.2078
28534SOL    HW290541  11.559   6.193   7.963 -0.0925 -0.0659  0.3779
28535SOL     OW90542   8.874   1.015  10.422  0.0388 -0.1483  0.0696
28535SOL    HW190543   8.901   0.942  10.367  0.0295  0.1109 -0.2794
28535SOL    HW290544   8.806   1.060  10.372  1.1984  1.0689 -0.4706
28536SOL     OW90545   6.250   3.373   7.270 -0.3261 -0.6086  0.4820
28536SOL    HW190546   6.342   3.358   7.289 -0.8410 -4.2241  0.8243
28536SOL    HW290547   6.230   3.457   7.310  2.7780  0.2659  0.3944
28537SOL     OW90548  10.355   1.663   7.471  0.5193  0.1608 -0.6255
28537SOL    HW190549  10.338   1.570   7.479 -1.2226  0.3774 -1.3900
28537SOL    HW290550  10.377   1.676   7.379 -0.7363  0.7082 -0.8597
28538SOL     OW90551   8.010   8.470   0.495  0.5536  0.2580 -0.0508
28538SOL    HW190552   7.971   8.386   0.470  0.3529  0.3769 -0.1401
28538SOL    HW290553   8.013   8.520   0.413 -0.6949  0.8884  0.2660
28539SOL     OW90554   7.376   7.901   8.041 -0.3300  0.3503  0.2637
28539SOL    HW190555   7.425   7.922   7.961 -0.6680  0.9209  0.2048
28539SOL    HW290556   7.364   7.985   8.085 -2.1653  0.3797 -0.2281
28540SOL     OW90557   5.553   8.898   8.426  0.0756 -0.5631  0.4538
28540SOL    HW190558   5.646   8.919   8.431  0.1648 -0.9702  0.5427
28540SOL    HW290559   5.509   8.983   8.431  0.3738 -0.4747  2.4309
28541SOL     OW90560   6.641   2.317   0.221 -0.1484  0.6966  0.4703
28541SOL    HW190561   6.555   2.285   0.245 -0.6756  0.3597 -1.6505
28541SOL    HW290562   6.702   2.255   0.261 -1.0193 -0.6645 -0.2299
28542SOL     OW90563   3.087   5.125   3.490  0.8022 -0.1844 -0.1283
28542SOL    HW190564   3.095   5.213   3.455 -2.1836  0.3806  0.3557
28542SOL    HW290565   3.042   5.076   3.420  0.3504 -0.6776  0.4962
28543SOL     OW90566   6.570   1.778   2.097  0.2581  0.3806 -0.1098
28543SOL    HW190567   6.592   1.850   2.157 -0.2807 -0.5018  1.1877
28543SOL    HW290568   6.646   1.771   2.039  0.3526  1.9329 -0.2096
28544SOL     OW90569   2.765   8.707  11.148  0.4525 -0.5810 -0.7485
28544SOL    HW190570   2.784   8.614  11.158  1.7193 -0.2378  0.3456
28544SOL    HW290571   2.821   8.736  11.076  2.5285 -0.0529  0.9733
28545SOL     OW90572   7.189   1.817   6.398 -0.3762  0.4081 -0.2417
28545SOL    HW190573   7.163   1.725   6.404 -0.2001  0.4379  1.2479
28545SOL    HW290574   7.271   1.816   6.348 -1.0661 -0.0832 -1.4159
28546SOL     OW90575   9.252   2.326   3.478 -0.0969 -0.1324 -0.1412
28546SOL    HW190576   9.299   2.372   3.548  1.4702 -0.0293 -1.1932
28546SOL    HW290577   9.187   2.390   3.447 -0.0306  0.2345  0.4513
28547SOL     OW90578   1.373  11.322   8.619  0.2714  0.2949  0.8250
28547SOL    HW190579   1.425  11.257   8.572  0.7580  1.7761 -0.8255
28547SOL    HW290580   1.423  11.339   8.699  1.3089  0.2505  0.2064
28548SOL     OW90581   9.621   7.288   4.349 -0.2486 -0.3965 -0.1079
28548SOL    HW190582   9.679   7.329   4.285 -0.3127 -0.5773 -0.2823
28548SOL    HW290583   9.556   7.355   4.370  0.7839  0.2731  1.0771
28549SOL     OW90584   5.209   8.228   7.481 -0.0001  0.0137  0.1831
28549SOL    HW190585   5.249   8.143   7.497  1.5804  1.0050  1.9240
28549SOL    HW290586   5.205   8.269   7.567  0.8519  2.3335 -0.7882
28550SOL     OW90587   8.127   8.724   7.150  0.5385  0.1678 -0.0837
28550SOL    HW190588   8.106   8.653   7.091  0.0869 -0.1405  0.4461
28550SOL    HW290589   8.222   8.733   7.144  0.6649 -0.8341  0.2428
28551SOL     OW90590   7.818   1.666   1.253  0.1781 -0.0919  0.0948
28551SOL    HW190591   7.725   1.685   1.246  0.5782  1.5288 -1.3821
28551SOL    HW290592   7.848   1.657   1.163  1.6289  0.3383  0.5076
28552SOL     OW90593   6.675   0.956   5.969 -0.0420 -0.0654 -0.1330
28552SOL    HW190594   6.657   0.915   6.054  1.1594  0.8503  0.5949
28552SOL    HW290595   6.757   0.918   5.940 -0.6519 -0.6804 -1.1157
28553SOL     OW90596   7.780   5.114   3.784 -0.0356 -0.7207  0.3454
28553SOL    HW190597   7.822   5.053   3.844  1.1883  2.1169  2.6017
28553SOL    HW290598   7.690   5.120   3.814 -0.4925 -2.1508 -0.6090
28554SOL     OW90599   4.104   4.520  10.042  0.1891 -0.1019  0.1933
28554SOL    HW190600   4.011   4.521  10.066  0.6683  2.0032  2.3352
28554SOL    HW290601   4.108   4.573   9.962 -0.2902  1.2852  1.0541
28555SOL     OW90602   6.430   7.454   9.550 -0.2342 -0.0320  0.4532
28555SOL    HW190603   6.489   7.488   9.483 -1.0096  1.5606  0.5221
28555SOL    HW290604   6.488   7.421   9.618  0.6225  1.8064  0.6827
28556SOL     OW90605   7.426   0.834  10.586  0.4497  0.5975 -0.1211
28556SOL    HW190606   7.346   0.797  10.624  0.9638 -2.0136 -1.3267
28556SOL    HW290607   7.448   0.775  10.514  3.3316  1.3451  0.0021
28557SOL     OW90608   5.493  10.250   0.436 -0.0996 -0.1483  0.3385
28557SOL    HW190609   5.496  10.154   0.442 -1.6226 -0.2288  0.1653
28557SOL    HW290610   5.503  10.268   0.342 -1.1071 -0.2258  0.2042
28558SOL     OW90611   1.290  11.569  10.740  0.6682  0.1089 -0.2190
28558SOL    HW190612   1.285  11.582  10.835 -0.1701 -0.3151 -0.2003
28558SOL    HW290613   1.202  11.590  10.709  0.7295 -0.5027 -0.8098
28559SOL     OW90614  10.804   1.122  10.984  0.6758 -0.2185  0.2938
28559SOL    HW190615  10.771   1.132  11.074 -3.8562 -1.0226 -1.0233
28559SOL    HW290616  10.809   1.211  10.950  1.3106  0.0142  0.9774
28560SOL     OW90617   1.459   3.720  11.456  0.4438 -0.3402 -0.3149
28560SOL    HW190618   1.495   3.699  11.542 -0.0189  0.5801  0.1190
28560SOL    HW290619   1.519   3.785  11.419 -0.9867  1.6346  0.6499
28561SOL     OW90620   0.641   2.728  10.441 -0.4788 -0.5907  0.6450
28561SOL    HW190621   0.615   2.771  10.523  0.9810 -0.9837  1.3650
28561SOL    HW290622   0.583   2.765  10.375  1.2423  3.2271  1.0079
28562SOL     OW90623   9.103   3.954   0.588 -0.6911 -0.2588 -0.6233
28562SOL    HW190624   9.124   3.916   0.673  0.1426  1.3181 -0.0762
28562SOL    HW290625   9.060   3.884   0.540  0.9974 -1.9542  0.2144
28563SOL     OW90626   9.846   3.055   5.209  0.7067 -0.1219  0.3967
28563SOL    HW190627   9.900   3.015   5.141  2.8099  0.2442  1.7667
28563SOL    HW290628   9.759   3.018   5.195  1.0193 -0.0132 -2.5041
28564SOL     OW90629   7.875   2.510   0.882  0.0358  0.0766  0.0292
28564SOL    HW190630   7.839   2.598   0.880  1.0492  0.4986 -0.1550
28564SOL    HW290631   7.945   2.511   0.817  0.0967 -0.8471  0.0672
28565SOL     OW90632   0.368   5.935   2.313  0.4415  0.1216  0.0446
28565SOL    HW190633   0.381   5.907   2.222 -0.2676 -0.4130  0.0966
28565SOL    HW290634   0.392   5.859   2.365  2.5218  0.9770  0.4177
28566SOL     OW90635   4.796   6.198   3.915 -0.2601  0.0697  0.0457
28566SOL    HW190636   4.855   6.128   3.889  0.5776  1.1815 -1.1415
28566SOL    HW290637   4.755   6.227   3.834 -0.0412  1.4280  0.3929
28567SOL     OW90638   4.724   7.315   3.921  0.0590  0.3044 -0.5514
28567SOL    HW190639   4.686   7.269   3.996  1.4786 -1.2383 -0.7172
28567SOL    HW290640   4.805   7.268   3.902  1.3390  2.5895 -1.1184
28568SOL     OW90641   3.058   5.266   2.027 -0.9546  0.5222 -0.1499
28568SOL    HW190642   3.043   5.212   2.105  0.0400 -0.5187 -0.6585
28568SOL    HW290643   3.037   5.355   2.056  0.4774  0.3459  1.6583
28569SOL     OW90644   8.167   4.119   9.077 -0.0044  0.2322 -0.5607
28569SOL    HW190645   8.081   4.160   9.072 -0.1855  0.1800  1.5318
28569SOL    HW290646   8.151   4.028   9.053 -0.4197  0.3511 -0.7535
28570SOL     OW90647   8.686   9.411   9.342  0.5253  0.1073  0.3054
28570SOL    HW190648   8.603   9.424   9.387  1.1384 -1.4951  2.0321
28570SOL    HW290649   8.751   9.452   9.400  0.8580  3.1378 -1.9570
28571SOL     OW90650   6.331   7.706   5.903 -0.5306  0.1538  0.2115
28571SOL    HW190651   6.361   7.691   5.813 -0.1084  1.9658  0.0257
28571SOL    HW290652   6.361   7.629   5.951 -0.1039 -0.4844 -1.0397
28572SOL     OW90653   7.971   0.686   4.865  0.0885 -0.0979  0.2073
28572SOL    HW190654   8.060   0.721   4.858 -0.2652  0.7824 -0.0523
28572SOL    HW290655   7.983   0.592   4.871  1.0217 -0.0163 -0.1586
28573SOL     OW90656   6.775   8.338   5.010  0.0149 -0.0840  0.3944
28573SOL    HW190657   6.718   8.301   5.077 -0.2244 -2.3372 -0.9578
28573SOL    HW290658   6.723   8.409   4.971 -1.8039 -1.8110 -0.5213
28574SOL     OW90659   4.752   9.866   1.412 -0.1921  0.2166  0.0645
28574SOL    HW190660   4.751   9.962   1.416 -0.3023  0.1790  1.3133
28574SOL    HW290661   4.737   9.838   1.502 -1.5449 -0.9837 -0.4879
28575SOL     OW90662   7.515   2.122   5.278 -0.4881  0.0020 -0.3810
28575SOL    HW190663   7.538   2.188   5.344 -0.6303  0.3425 -0.6699
28575SOL    HW290664   7.565   2.146   5.201  2.0347 -2.1117  0.4525
28576SOL     OW90665  11.345   8.907   3.189  0.1989  0.3597 -0.0157
28576SOL    HW190666  11.315   8.831   3.139  0.6285  1.2438 -1.6817
28576SOL    HW290667  11.275   8.924   3.251  0.1126 -1.4067  0.4308
28577SOL     OW90668   4.050   1.833  10.542 -0.1439  0.1444 -0.4118
28577SOL    HW190669   4.085   1.761  10.490 -1.0025  0.0433 -0.8730
28577SOL    HW290670   3.974   1.863  10.493 -1.1964 -0.1776  0.9718
28578SOL     OW90671   0.080   3.273   0.956 -0.1167  0.4072 -0.0164
28578SOL    HW190672   0.114   3.199   0.906 -0.4140 -1.1834  2.0125
28578SOL    HW290673   0.037   3.328   0.890 -1.2902 -2.0305 -1.4206
28579SOL     OW90674   1.387   8.272   4.285 -0.0745 -0.0892  0.7004
28579SOL    HW190675   1.348   8.186   4.300 -2.2463  0.6530 -0.1770
28579SOL    HW290676   1.365   8.323   4.363 -0.7126  0.2719  0.2962
28580SOL     OW90677  10.296   8.588  10.900 -0.2147 -0.0199  0.1481
28580SOL    HW190678  10.313   8.673  10.858  1.6990 -0.1831  0.4965
28580SOL    HW290679  10.318   8.602  10.992 -1.4112 -0.4955  0.5171
28581SOL     OW90680   5.330  10.842   7.007  0.2550  0.2357  0.0138
28581SOL    HW190681   5.384  10.818   7.082 -0.2408  1.2816  0.7208
28581SOL    HW290682   5.391  10.881   6.945  0.6245 -0.4017 -0.0351
28582SOL     OW90683   8.185   3.168   8.673 -0.4703 -0.2794 -0.2412
28582SOL    HW190684   8.278   3.181   8.654 -0.4896 -2.0485 -1.7929
28582SOL    HW290685   8.184   3.119   8.755 -0.1143  0.9401  0.5216
28583SOL     OW90686   2.990   6.404  11.346  0.1745 -0.1686  0.0473
28583SOL    HW190687   3.014   6.315  11.322  0.5781  0.0008 -0.1841
28583SOL    HW290688   3.041   6.460  11.288 -0.7329  0.2068 -0.4070
28584SOL     OW90689   7.644   5.749   3.006 -0.0362  0.3034 -0.2998
28584SOL    HW190690   7.676   5.798   2.930  0.9274  0.9250  0.4751
28584SOL    HW290691   7.721   5.701   3.037  0.2250  1.8054  1.5939
28585SOL     OW90692   8.411   6.627  11.330 -0.3247 -0.1476 -0.2695
28585SOL    HW190693   8.395   6.717  11.301  3.4761  0.8717  0.2339
28585SOL    HW290694   8.394   6.629  11.424  0.1206  0.1784 -0.1916
28586SOL     OW90695   2.656   9.693   7.897  0.0308 -0.1180  0.5209
28586SOL    HW190696   2.677   9.619   7.840 -0.5463  0.8838 -1.0390
28586SOL    HW290697   2.562   9.685   7.914 -0.1547  0.5532 -0.1297
28587SOL     OW90698  11.575   3.136   7.920  0.4011  0.0639 -0.3103
28587SOL    HW190699  11.619   3.119   7.837 -0.3497  1.6684 -1.0833
28587SOL    HW290700  11.482   3.123   7.902  0.3919 -2.6472  1.1386
28588SOL     OW90701  10.288   2.526  11.451 -0.3268  0.3537 -0.2345
28588SOL    HW190702  10.253   2.441  11.477 -0.5353  0.7746  0.9320
28588SOL    HW290703  10.376   2.528  11.488 -0.2798  0.5990 -0.3568
28589SOL     OW90704   9.018   1.568   8.627  0.3094  0.0560 -0.3818
28589SOL    HW190705   8.930   1.583   8.663  1.3173  1.0407  1.8627
28589SOL    HW290706   9.039   1.650   8.581  0.8339  0.6373  0.8659
28590SOL     OW90707   8.483  10.783   1.634 -0.4091  0.4199  0.2730
28590SOL    HW190708   8.568  10.758   1.670 -1.2073 -0.5789  1.5539
28590SOL    HW290709   8.436  10.822   1.708 -2.0135 -1.4824  0.3517
28591SOL     OW90710   4.736   6.600   5.756 -0.2670  0.2308 -0.0260
28591SOL    HW190711   4.659   6.564   5.801 -0.5654  1.1040  0.1884
28591SOL    HW290712   4.734   6.694   5.777  0.7860  0.2865 -0.1272
28592SOL     OW90713   4.570   9.481   9.640 -0.2768  0.1795  0.0856
28592SOL    HW190714   4.569   9.495   9.735 -1.8413 -1.1929  0.3226
28592SOL    HW290715   4.563   9.386   9.630  0.9737  0.2137 -1.4268
28593SOL     OW90716   2.027   5.965   8.659  0.1110  0.0397  0.3423
28593SOL    HW190717   1.971   5.981   8.583 -0.1859  0.5539  0.6651
28593SOL    HW290718   2.015   5.873   8.679  0.1551 -0.0901 -0.2032
28594SOL     OW90719  10.890   3.314   6.985  0.4732  0.1051 -0.9308
28594SOL    HW190720  10.835   3.392   6.995  1.3359  0.6061  0.1303
28594SOL    HW290721  10.980   3.348   6.983  0.8459 -0.8407 -0.7749
28595SOL     OW90722   8.595   8.979  10.132 -0.0557  0.0447  0.4560
28595SOL    HW190723   8.505   8.989  10.102 -0.2468 -1.2660  0.5250
28595SOL    HW290724   8.599   9.029  10.214 -0.3839  1.0718 -0.1403
28596SOL     OW90725   7.433   8.323   2.824  0.3537 -0.2882 -0.2322
28596SOL    HW190726   7.365   8.371   2.777  1.2567  0.7371 -0.5583
28596SOL    HW290727   7.387   8.251   2.867 -1.1034  0.9364  0.3680
28597SOL     OW90728   0.386  11.043   8.078 -0.8164 -0.0515 -0.0504
28597SOL    HW190729   0.456  10.981   8.061 -1.1938 -0.5988  0.3261
28597SOL    HW290730   0.362  11.027   8.170 -0.9325  0.6344  0.0429
28598SOL     OW90731   7.348   5.991   0.032  0.0344  0.3042 -0.0991
28598SOL    HW190732   7.388   6.052   0.094 -2.5137 -0.4374  2.5112
28598SOL    HW290733   7.346   6.039  -0.051  1.5763  2.2409  0.8951
28599SOL     OW90734   1.512  10.415   5.058 -0.1263  0.0863 -0.4690
28599SOL    HW190735   1.451  10.404   4.985  0.1501  0.0720 -0.6973
28599SOL    HW290736   1.469  10.477   5.116 -0.1556  0.4237 -0.8518
28600SOL     OW90737   2.177   9.002  10.991 -0.9576  0.7373  0.3522
28600SOL    HW190738   2.109   9.000  11.059 -2.2611 -1.6378 -0.9052
28600SOL    HW290739   2.252   9.044  11.034 -2.1263  0.4817  2.8378
28601SOL     OW90740   2.144   7.172   5.390 -0.5352 -0.0876  0.1431
28601SOL    HW190741   2.225   7.164   5.339 -0.9412 -0.5602 -0.4585
28601SOL    HW290742   2.075   7.174   5.323 -0.9258  2.3808  0.5270
28602SOL     OW90743   3.676   4.701  11.157 -0.4511  0.2325  0.6563
28602SOL    HW190744   3.611   4.658  11.211 -2.0523 -0.9443 -2.0305
28602SOL    HW290745   3.728   4.630  11.120  0.8317  1.0166  0.8828
28603SOL     OW90746   7.152   8.925   8.942  0.1586  0.8552  0.3261
28603SOL    HW190747   7.062   8.902   8.965  0.3592  0.8174  1.0925
28603SOL    HW290748   7.206   8.856   8.982  0.5611  1.1242  0.2523
28604SOL     OW90749   4.673   5.390   9.599  0.2808  0.1622  0.1346
28604SOL    HW190750   4.736   5.348   9.658 -0.5130  1.2520  1.8453
28604SOL    HW290751   4.588   5.372   9.639 -0.1309  2.8967  0.6783
28605SOL     OW90752   5.311   7.437   8.695  0.1011 -0.1485 -0.6974
28605SOL    HW190753   5.393   7.389   8.681 -1.0558 -2.1620 -1.0510
28605SOL    HW290754   5.273   7.445   8.607 -0.0273  0.9053 -0.5556
28606SOL     OW90755   0.102   4.512   8.230  0.1524 -0.1275 -0.0916
28606SOL    HW190756   0.140   4.440   8.280 -0.5023  0.3790  1.1803
28606SOL    HW290757   0.067   4.571   8.297  1.6130  1.9106 -1.0189
28607SOL     OW90758   7.983  11.559   9.836  0.1969  0.4188 -0.0738
28607SOL    HW190759   8.076  11.576   9.824  0.5238 -0.5709  0.8218
28607SOL    HW290760   7.963  11.487   9.776  0.2970 -0.1239  0.5205
28608SOL     OW90761   9.130   4.693   0.505 -0.3087 -0.6333 -1.0372
28608SOL    HW190762   9.181   4.771   0.483  0.1384 -0.4555  0.4643
28608SOL    HW290763   9.039   4.721   0.498 -0.1807  0.6584  1.2688
28609SOL     OW90764   7.867   8.497   4.634  0.5404 -0.5208 -0.4012
28609SOL    HW190765   7.909   8.499   4.548  2.5537 -1.3866  0.5020
28609SOL    HW290766   7.800   8.429   4.626  0.6365 -0.5165 -1.3154
28610SOL     OW90767   6.127   3.011   0.678  0.4487 -0.0947 -0.7364
28610SOL    HW190768   6.172   3.065   0.744  2.8078 -1.6085 -1.0158
28610SOL    HW290769   6.126   3.066   0.599  0.2569  0.5975 -0.2654
28611SOL     OW90770   4.512   5.606   8.533 -0.2652  0.2068 -0.3526
28611SOL    HW190771   4.491   5.553   8.609 -0.4350  0.7714  0.0055
28611SOL    HW290772   4.427   5.637   8.502 -0.1547  0.4240 -0.4417
28612SOL     OW90773  10.417   9.855   5.362 -0.0904  0.0911  0.2401
28612SOL    HW190774  10.377   9.769   5.375 -0.3654  0.3147  0.9267
28612SOL    HW290775  10.384   9.908   5.435  1.1030  0.4139  0.5538
28613SOL     OW90776   2.116   0.108   8.903 -0.0995  0.2909 -0.1902
28613SOL    HW190777   2.168   0.089   8.981 -0.6582 -0.5394 -0.0082
28613SOL    HW290778   2.173   0.082   8.830  0.1018  0.2782 -0.0296
28614SOL     OW90779   3.008   4.546   8.471 -0.5425  0.3739  0.6138
28614SOL    HW190780   2.915   4.523   8.470 -0.4544 -0.0517  1.3147
28614SOL    HW290781   3.020   4.594   8.553  0.1388 -0.8812  1.2983
28615SOL     OW90782   1.258   9.836  10.676 -1.1278 -0.3296  0.5673
28615SOL    HW190783   1.180   9.802  10.632  0.0487 -1.6151 -0.5690
28615SOL    HW290784   1.301   9.890  10.610 -1.2122  0.6803  1.3108
28616SOL     OW90785   6.116   2.362   3.860 -0.1051  0.0880 -1.2241
28616SOL    HW190786   6.149   2.445   3.825  0.6186  0.1870 -0.3590
28616SOL    HW290787   6.119   2.302   3.786  2.5268 -0.0215 -1.1246
28617SOL     OW90788   9.951   8.989   8.084  0.2318  0.0476  0.2255
28617SOL    HW190789   9.877   8.952   8.133 -0.1998  0.5004 -0.0758
28617SOL    HW290790   9.929   9.081   8.073  0.8836  0.2006  0.1961
28618SOL     OW90791   9.561   3.123  10.048  0.3664 -0.1999  0.8149
28618SOL    HW190792   9.600   3.051  10.098 -0.0778 -0.0502  1.4012
28618SOL    HW290793   9.468   3.101  10.044 -0.1626  1.3446  2.8363
28619SOL     OW90794   3.695   9.400   2.776  0.1703  0.7350  0.6777
28619SOL    HW190795   3.688   9.313   2.816 -0.0107  1.1216  1.5056
28619SOL    HW290796   3.770   9.440   2.818 -0.2370  1.2814  0.8944
28620SOL     OW90797   9.967   5.789   3.039  0.0064 -0.7710 -0.0830
28620SOL    HW190798  10.041   5.733   3.015  1.0455  0.4830  0.0903
28620SOL    HW290799   9.934   5.823   2.956  3.5963  3.5646 -0.0725
28621SOL     OW90800   7.582   6.573  10.125 -0.2448  0.0964  0.1446
28621SOL    HW190801   7.525   6.538  10.056  0.0313 -0.2682  0.0991
28621SOL    HW290802   7.533   6.646  10.161 -1.1332 -0.7472  0.7024
28622SOL     OW90803   7.025   5.696   2.571 -0.1425  0.0087 -0.9215
28622SOL    HW190804   7.019   5.673   2.664 -2.0666  0.3572 -0.9201
28622SOL    HW290805   6.949   5.655   2.531 -0.9313  2.1589 -1.8005
28623SOL     OW90806   3.325   4.508   8.544  0.2653 -0.1020  0.1140
28623SOL    HW190807   3.395   4.476   8.486  0.1545 -0.9020  0.4146
28623SOL    HW290808   3.288   4.429   8.583 -0.0047  0.3999  0.8882
28624SOL     OW90809   0.069   6.085   6.162  0.0231  0.1885 -0.0819
28624SOL    HW190810   0.069   6.007   6.219  1.4974  1.0523  1.1827
28624SOL    HW290811   0.142   6.138   6.194 -2.1240  3.0753  0.4141
28625SOL     OW90812   3.368   5.810   5.181 -0.1835 -0.5752  0.0145
28625SOL    HW190813   3.331   5.834   5.266  1.7120  0.1260  0.6847
28625SOL    HW290814   3.416   5.729   5.197  0.9933  0.0732 -0.1419
28626SOL     OW90815   2.757   1.576   0.278 -0.7675 -0.2364 -0.0105
28626SOL    HW190816   2.777   1.483   0.270 -3.0718 -0.7205 -0.7781
28626SOL    HW290817   2.705   1.583   0.359  2.0757  0.9640  1.8954
28627SOL     OW90818   0.318   2.937   2.861 -0.2088 -0.4154  0.4810
28627SOL    HW190819   0.368   2.996   2.918 -0.9456 -1.1644  1.9746
28627SOL    HW290820   0.359   2.852   2.874  0.4066 -0.3903 -1.1232
28628SOL     OW90821   2.100   0.582  10.979  0.4621  0.3281 -0.9594
28628SOL    HW190822   2.162   0.628  10.922  2.7332 -0.3303  0.8329
28628SOL    HW290823   2.062   0.651  11.034  1.9166  0.4292 -0.0340
28629SOL     OW90824   1.367   5.101   1.807  1.1490 -0.1291  0.6532
28629SOL    HW190825   1.314   5.145   1.873  1.1150 -1.1652  1.3473
28629SOL    HW290826   1.332   5.131   1.723  0.5029  0.3938  1.1065
28630SOL     OW90827   2.983   0.923  11.275  0.0030  0.7151  0.0835
28630SOL    HW190828   3.031   1.005  11.263  0.1945  0.5204 -0.5384
28630SOL    HW290829   3.051   0.857  11.284 -0.1450  0.7068  1.2695
28631SOL     OW90830   9.865   4.795   0.022 -0.1076 -0.1417  0.3518
28631SOL    HW190831   9.870   4.705   0.055  0.4645  0.7540  3.0211
28631SOL    HW290832   9.916   4.846   0.085 -1.8222  2.2979 -0.0736
28632SOL     OW90833   2.269   9.995  10.856 -0.0424  0.3396  0.1106
28632SOL    HW190834   2.327  10.060  10.894 -0.0572  0.9917 -0.9455
28632SOL    HW290835   2.237   9.944  10.931 -2.3491  3.3660  1.4059
28633SOL     OW90836   4.746   9.221   8.734  0.4338  0.3690  0.2516
28633SOL    HW190837   4.758   9.248   8.825 -0.0796  1.2574  0.0626
28633SOL    HW290838   4.654   9.192   8.730  0.2703  0.9184 -0.1195
28634SOL     OW90839   5.141   8.826   4.908 -0.3828  0.3695 -0.1683
28634SOL    HW190840   5.141   8.795   4.999  1.3235 -0.4339 -0.3986
28634SOL    HW290841   5.188   8.909   4.912  1.7629 -0.7508 -0.5801
28635SOL     OW90842   4.594   0.238   8.717 -0.2719  0.0011  0.4324
28635SOL    HW190843   4.546   0.191   8.649  1.4761 -0.1013 -0.8087
28635SOL    HW290844   4.538   0.313   8.739 -0.7868  0.1567 -1.2945
28636SOL     OW90845   7.095   3.945   2.409 -0.8453  0.5587  0.3373
28636SOL    HW190846   7.001   3.957   2.422 -0.8601 -0.3568  1.1661
28636SOL    HW290847   7.131   4.034   2.415 -1.7662  1.0605 -1.1057
28637SOL     OW90848   4.722  11.586   2.895  0.5420  0.9924 -0.2903
28637SOL    HW190849   4.747  11.604   2.986  0.3408  1.2289 -0.2820
28637SOL    HW290850   4.744  11.667   2.848  1.7535  0.4656 -0.6762
28638SOL     OW90851   4.721   6.868   2.111  0.4949  0.4500  0.7887
28638SOL    HW190852   4.662   6.877   2.185  1.4407 -0.8197  1.7371
28638SOL    HW290853   4.783   6.940   2.121 -1.0913  2.1041 -0.4951
28639SOL     OW90854   4.821   7.885   5.789 -0.1533 -0.7689  0.1889
28639SOL    HW190855   4.755   7.898   5.721  1.3853  0.0239 -1.2174
28639SOL    HW290856   4.811   7.960   5.847 -3.4170 -2.8496  2.6884
28640SOL     OW90857   3.434   0.886  10.599 -0.0439 -0.6810  0.5320
28640SOL    HW190858   3.346   0.912  10.626 -0.4754 -1.2801 -0.2260
28640SOL    HW290859   3.421   0.845  10.513  0.8987 -1.2808  0.6613
28641SOL     OW90860  10.924   1.746   3.633 -0.4245 -0.1881  0.5794
28641SOL    HW190861  10.969   1.812   3.686 -1.1377 -0.1217  1.1259
28641SOL    HW290862  10.912   1.672   3.692 -0.0297 -0.6348  0.1019
28642SOL     OW90863   4.041   1.210   7.455  0.1156 -0.9627 -0.0589
28642SOL    HW190864   3.981   1.283   7.441 -0.8408 -1.6370  0.3824
28642SOL    HW290865   4.112   1.245   7.509 -0.6283 -0.5008  0.6308
28643SOL     OW90866   1.017   6.181   7.661 -0.1850 -0.2392 -0.2052
28643SOL    HW190867   1.018   6.186   7.565  1.4755 -0.6911 -0.2436
28643SOL    HW290868   0.931   6.144   7.682 -0.4799 -0.3606 -1.5386
28644SOL     OW90869   1.271   5.525   2.440 -0.0951 -0.3509 -0.7139
28644SOL    HW190870   1.331   5.464   2.398  1.5521  0.6697  0.0491
28644SOL    HW290871   1.303   5.534   2.529 -2.6138 -1.2908  0.3659
28645SOL     OW90872   4.256   3.027   8.220 -0.4208 -0.6755 -0.0120
28645SOL    HW190873   4.275   2.938   8.191 -1.2105 -1.1553  0.8701
28645SOL    HW290874   4.196   3.061   8.154  3.2060  0.8823 -2.8732
28646SOL     OW90875   9.481   5.613   4.750 -0.4544 -0.0885  0.2601
28646SOL    HW190876   9.476   5.688   4.691 -2.5973 -1.9545 -2.2400
28646SOL    HW290877   9.568   5.577   4.735 -1.0068 -0.6356 -2.1278
28647SOL     OW90878   2.037   2.762   6.016 -0.0948  0.3505 -0.0640
28647SOL    HW190879   1.964   2.754   6.078 -0.9102 -0.0473 -1.0425
28647SOL    HW290880   2.002   2.728   5.934  1.4938 -0.6942 -0.3424
28648SOL     OW90881   3.533   3.111  10.565 -0.0135 -0.4612  0.2577
28648SOL    HW190882   3.442   3.141  10.560 -0.1493 -0.7425  0.9530
28648SOL    HW290883   3.532   3.025  10.523  0.2078  0.0884 -0.9453
28649SOL     OW90884   4.919   4.242   7.359 -0.2967  0.9003 -0.1646
28649SOL    HW190885   4.830   4.228   7.328  0.1115  0.6901 -1.2743
28649SOL    HW290886   4.974   4.185   7.306  0.6859  2.1882 -0.6159
28650SOL     OW90887   0.798   1.407  11.423 -0.3778 -0.0866  0.2906
28650SOL    HW190888   0.712   1.376  11.395 -0.7183  0.7671  0.3415
28650SOL    HW290889   0.861   1.349  11.381 -0.9752 -0.5408  0.0234
28651SOL     OW90890   8.909   6.458   9.012 -0.3005 -0.0632  0.1791
28651SOL    HW190891   8.815   6.470   9.002 -0.4811 -1.3244  0.2181
28651SOL    HW290892   8.934   6.401   8.940  0.4483  0.2603  0.1708
28652SOL     OW90893  10.260   2.238   2.540  0.0907  0.3463  0.4474
28652SOL    HW190894  10.343   2.193   2.554  0.4356  1.1635  1.1276
28652SOL    HW290895  10.273   2.288   2.459  0.7634  1.5614  1.2842
28653SOL     OW90896   6.769  10.635   8.113 -0.1484  0.0026 -0.8726
28653SOL    HW190897   6.792  10.682   8.194 -4.2123 -0.0188  0.5463
28653SOL    HW290898   6.832  10.563   8.109  1.1083  0.8321  1.4837
28654SOL     OW90899   6.209   9.916   4.447 -0.2225 -0.1898 -0.1952
28654SOL    HW190900   6.229   9.842   4.505 -2.1431 -0.4447  0.2176
28654SOL    HW290901   6.183   9.986   4.507  1.2014  0.7144 -0.6094
28655SOL     OW90902   0.648   6.813   5.447 -0.4999  0.0638 -0.2271
28655SOL    HW190903   0.732   6.789   5.486 -0.1262  1.2210 -0.2994
28655SOL    HW290904   0.605   6.867   5.512 -0.1703  1.4241 -1.1035
28656SOL     OW90905  11.004   0.297   8.015  0.1759 -0.1421  0.0552
28656SOL    HW190906  10.914   0.331   8.018  0.2846  0.1439  0.1322
28656SOL    HW290907  11.042   0.335   7.936  0.8510  1.3522  1.0458
28657SOL     OW90908   3.333   5.868   5.448 -0.1653  0.2151  0.4723
28657SOL    HW190909   3.384   5.853   5.528  0.9162  2.8269  0.3573
28657SOL    HW290910   3.265   5.930   5.474  0.3187  1.2412 -0.6642
28658SOL     OW90911   0.526   7.088   2.396  0.0741 -0.0949  0.3770
28658SOL    HW190912   0.569   7.158   2.347  1.3681 -2.6535 -2.4755
28658SOL    HW290913   0.434   7.116   2.402  0.0256  0.8331 -2.8332
28659SOL     OW90914   1.938   8.790   6.602 -0.3535  0.0607 -0.0461
28659SOL    HW190915   1.873   8.719   6.612 -0.7345  0.5072  0.7398
28659SOL    HW290916   2.000   8.756   6.538 -0.6297 -0.9216  0.1841
28660SOL     OW90917   8.798   6.274  10.914 -0.3771  0.5228 -0.0353
28660SOL    HW190918   8.811   6.368  10.897 -0.5939  0.6399  0.4315
28660SOL    HW290919   8.794   6.235  10.827 -1.7096  1.1437 -0.2859
28661SOL     OW90920   4.969   0.255   3.616  0.1926 -0.4817  0.0469
28661SOL    HW190921   4.914   0.330   3.595 -0.0564 -0.7663 -0.3238
28661SOL    HW290922   4.908   0.182   3.625  0.4753 -0.7334 -0.0449
28662SOL     OW90923   8.159   2.599   7.186 -0.0249  0.4029 -0.5174
28662SOL    HW190924   8.252   2.623   7.190  0.3905 -1.1828  0.3173
28662SOL    HW290925   8.125   2.620   7.273  0.3613 -1.9092  0.2462
28663SOL     OW90926   0.986   2.390   1.458 -0.5873 -0.2520  0.3124
28663SOL    HW190927   0.923   2.383   1.530 -1.8541  0.3950 -0.6738
28663SOL    HW290928   1.023   2.302   1.448 -0.8622 -0.4892  1.3319
28664SOL     OW90929   8.797   7.442   9.465  0.3144 -0.1074  0.1920
28664SOL    HW190930   8.789   7.348   9.446 -0.4855 -0.1862  0.8861
28664SOL    HW290931   8.888   7.462   9.445  0.2903 -0.8544 -0.7528
28665SOL     OW90932   2.115  11.570  10.825  0.5621  0.3703 -0.1787
28665SOL    HW190933   2.034  11.536  10.787  1.1257  1.5411 -2.7090
28665SOL    HW290934   2.178  11.498  10.817 -0.0164 -0.3098  1.1549
28666SOL     OW90935   0.368   2.668   2.141 -0.3704  0.3744  0.1765
28666SOL    HW190936   0.438   2.703   2.196 -0.9410  0.2215  1.0347
28666SOL    HW290937   0.403   2.670   2.052  1.2637 -1.0282  0.7363
28667SOL     OW90938   5.259   0.998   1.601 -0.0850 -0.1905 -0.1381
28667SOL    HW190939   5.278   1.086   1.568  1.6447 -0.6650 -0.5351
28667SOL    HW290940   5.229   0.950   1.524 -2.5463  0.3917  0.3690
28668SOL     OW90941   1.448   5.133   8.954 -0.4370 -0.3603  0.2682
28668SOL    HW190942   1.502   5.209   8.974 -0.9274 -0.0784  0.5682
28668SOL    HW290943   1.374   5.141   9.014 -0.2363 -1.3553  0.6692
28669SOL     OW90944   7.315   4.677   8.145  0.3606 -0.5063  0.0242
28669SOL    HW190945   7.393   4.729   8.161 -0.3735  0.3040  1.1040
28669SOL    HW290946   7.292   4.696   8.054 -0.8495  2.4794  0.8339
28670SOL     OW90947   4.229   9.007   9.287  0.7271 -0.2668 -0.1863
28670SOL    HW190948   4.148   8.963   9.312  0.6976 -1.0173 -1.5134
28670SOL    HW290949   4.280   9.012   9.369 -0.5984  0.1415  0.6450
28671SOL     OW90950   1.699   2.960  10.547 -0.7557  0.1768  0.1863
28671SOL    HW190951   1.640   2.930  10.478 -1.2075  1.4013  0.0132
28671SOL    HW290952   1.783   2.974  10.502  0.2956 -3.3559  0.7752
28672SOL     OW90953  10.435   2.773   4.596  0.0280 -1.0050 -0.4043
28672SOL    HW190954  10.485   2.698   4.628  0.6699  0.1732  1.5325
28672SOL    HW290955  10.389   2.806   4.674 -0.9721  0.0682 -1.4050
28673SOL     OW90956  10.121   2.138  10.855  0.1848  0.1928  0.0146
28673SOL    HW190957  10.050   2.089  10.813  0.8427 -0.8187  0.0506
28673SOL    HW290958  10.199   2.085  10.839  0.4252 -0.4737  2.8067
28674SOL     OW90959   7.649   1.745   3.446  0.0624  0.1278 -1.3386
28674SOL    HW190960   7.718   1.691   3.485 -0.2941 -0.3925 -1.4145
28674SOL    HW290961   7.692   1.829   3.428  0.3974  0.1842 -0.3847
28675SOL     OW90962   9.596   2.434   6.536 -0.2902 -0.1163 -0.1821
28675SOL    HW190963   9.624   2.359   6.485 -1.4306 -0.5129 -0.2671
28675SOL    HW290964   9.548   2.489   6.474  0.6036  0.7291 -0.1402
28676SOL     OW90965   0.427   8.781   8.553 -0.6149 -0.0895 -0.2741
28676SOL    HW190966   0.362   8.848   8.529 -2.0599 -1.6482 -0.9097
28676SOL    HW290967   0.472   8.761   8.471 -1.3081 -1.0233 -0.4421
28677SOL     OW90968   3.577   6.599   8.506 -0.2075 -0.0612 -0.5552
28677SOL    HW190969   3.566   6.692   8.484 -1.4083 -0.3551 -1.2283
28677SOL    HW290970   3.489   6.568   8.524  0.3861 -0.5607  1.8721
28678SOL     OW90971   3.449   5.608   8.173  0.5261 -0.0389 -0.1590
28678SOL    HW190972   3.470   5.639   8.261  0.8301  0.9053 -0.5580
28678SOL    HW290973   3.508   5.534   8.159  0.6096 -0.0732  0.3460
28679SOL     OW90974   7.433  11.199   5.506 -0.6017 -0.2140  0.5812
28679SOL    HW190975   7.348  11.222   5.543 -0.6138 -0.4528  0.6988
28679SOL    HW290976   7.488  11.275   5.526 -1.2129  0.6805 -0.9592
28680SOL     OW90977  11.168   8.018   0.653  0.2027  0.2397  0.1451
28680SOL    HW190978  11.174   8.016   0.748 -0.0774 -0.8358  0.1517
28680SOL    HW290979  11.098   8.080   0.634  2.4316  3.0424  0.5003
28681SOL     OW90980  10.189   2.656   0.763  0.9332  0.1377 -0.0223
28681SOL    HW190981  10.212   2.675   0.672 -0.2405  0.2151 -0.3147
28681SOL    HW290982  10.165   2.563   0.762  2.5591 -0.3299  0.5669
28682SOL     OW90983   9.802   6.207   1.024  0.1847  0.1428  0.1341
28682SOL    HW190984   9.823   6.116   1.045  1.5123  0.7114  1.4671
28682SOL    HW290985   9.839   6.221   0.937 -0.2516 -0.6585 -0.1842
28683SOL     OW90986   4.848   5.283  11.404  0.1172 -0.2841  0.0491
28683SOL    HW190987   4.804   5.264  11.321  1.5380 -1.1319 -0.5391
28683SOL    HW290988   4.879   5.198  11.435 -2.8290 -0.5044  2.9735
28684SOL     OW90989   5.518   0.349   9.742 -0.1476 -0.9384 -0.3533
28684SOL    HW190990   5.455   0.394   9.798 -0.2153 -2.8626  1.2350
28684SOL    HW290991   5.602   0.359   9.788  0.2152 -0.7536 -1.0323
28685SOL     OW90992  10.470  10.116   2.081 -0.0712  0.2676 -0.4996
28685SOL    HW190993  10.462  10.211   2.079 -0.3348  0.2357 -1.7505
28685SOL    HW290994  10.480  10.094   2.173  1.2407  1.6108 -0.2869
28686SOL     OW90995   8.170   9.689   8.278 -0.0347  0.1055 -0.0656
28686SOL    HW190996   8.175   9.603   8.319 -0.8686  0.1681  0.1747
28686SOL    HW290997   8.260   9.706   8.249  1.2165  1.0892  3.7935
28687SOL     OW90998   4.326   1.294  10.409  0.3467 -0.2879 -1.0075
28687SOL    HW190999   4.356   1.316  10.498 -0.3748 -2.0930 -0.2465
28687SOL    HW291000   4.248   1.239  10.424  1.1861 -2.0499 -2.6735
28688SOL     OW91001   6.937   1.939   4.740  0.0394  0.1862  0.0251
28688SOL    HW191002   6.866   1.921   4.801  0.4389  0.9226  0.7178
28688SOL    HW291003   6.895   1.937   4.654 -1.0982  1.8196  0.4855
28689SOL     OW91004   6.991  11.431   8.311 -0.5931 -0.1866 -0.0014
28689SOL    HW191005   6.965  11.400   8.397  3.8636  2.4389  2.7126
28689SOL    HW291006   6.947  11.515   8.301  0.1218  0.2723  0.5752
28690SOL     OW91007   0.580   2.666  10.975 -0.1309  0.0810  0.1026
28690SOL    HW191008   0.656   2.609  10.988 -1.6061 -2.2648 -0.8983
28690SOL    HW291009   0.617   2.754  10.973  2.9993 -1.0471 -3.1062
28691SOL     OW91010   1.177   5.026   3.551 -0.4765 -0.0162 -0.3600
28691SOL    HW191011   1.148   5.107   3.595  0.0462 -0.5568  1.0615
28691SOL    HW291012   1.232   5.057   3.479 -2.2593  0.9409 -1.3888
28692SOL     OW91013   4.446   8.447   7.085 -0.8212  0.4385  0.1370
28692SOL    HW191014   4.455   8.508   7.158  0.9697  0.1750  0.1871
28692SOL    HW291015   4.485   8.492   7.010  0.6205 -0.6014  0.1983
28693SOL     OW91016   5.681  10.912   2.484  0.1385 -0.2009  0.1451
28693SOL    HW191017   5.605  10.901   2.541 -0.4224  0.2037 -0.5062
28693SOL    HW291018   5.751  10.942   2.542 -0.9900  2.3184  0.3030
28694SOL     OW91019   6.277  10.614   7.629 -0.4531  0.0557 -0.3744
28694SOL    HW191020   6.247  10.695   7.668 -0.1540 -0.3125  0.6651
28694SOL    HW291021   6.221  10.601   7.553 -1.0359  0.8129 -0.0832
28695SOL     OW91022   4.573  11.216   9.317  0.2099 -1.1561 -0.1792
28695SOL    HW191023   4.650  11.178   9.274  1.2419  0.0851  0.5061
28695SOL    HW291024   4.593  11.309   9.323 -2.3397 -0.3933 -1.9920
28696SOL     OW91025   7.516   3.784   6.965 -0.4484  0.0997 -0.4592
28696SOL    HW191026   7.488   3.855   7.023 -0.4588 -1.2760  1.3105
28696SOL    HW291027   7.611   3.780   6.975 -0.6026 -1.3206  1.0098
28697SOL     OW91028   7.045   6.526   1.609  0.3937 -0.8154  0.2683
28697SOL    HW191029   6.958   6.551   1.641  0.1149  1.6060 -2.0176
28697SOL    HW291030   7.098   6.605   1.622  1.5298 -1.3764 -0.7603
28698SOL     OW91031   3.168  10.659   8.431 -0.4109  0.4496  0.0782
28698SOL    HW191032   3.149  10.748   8.403 -1.9449  0.1844  0.2006
28698SOL    HW291033   3.171  10.663   8.527 -3.6314 -0.1195  0.3197
28699SOL     OW91034   9.970   4.124   6.030  0.2982 -0.3874 -0.0734
28699SOL    HW191035   9.887   4.161   5.998  1.6302  2.4076 -0.5699
28699SOL    HW291036   9.944   4.045   6.078 -2.6664  0.4780 -0.0619
28700SOL     OW91037   4.677   6.634   9.612 -0.4759 -0.1952  0.3459
28700SOL    HW191038   4.666   6.632   9.518 -3.0395  0.0487  0.5854
28700SOL    HW291039   4.737   6.562   9.631 -0.3159 -0.5620 -1.4010
28701SOL     OW91040   6.800   4.057   3.234  0.1266 -0.3004  0.3412
28701SOL    HW191041   6.710   4.088   3.228  0.2289 -0.0062  0.3141
28701SOL    HW291042   6.849   4.132   3.268  0.2923 -0.5810  0.7307
28702SOL     OW91043   3.945   1.263   5.538 -0.3006 -0.4672  0.3027
28702SOL    HW191044   3.980   1.332   5.481 -1.8863 -0.7351 -1.0656
28702SOL    HW291045   4.018   1.239   5.594  0.4724  1.9244  0.4245
28703SOL     OW91046   6.319   6.012  11.028  0.2811  0.1484 -0.0592
28703SOL    HW191047   6.405   5.993  11.066 -1.0569 -2.0828  2.1484
28703SOL    HW291048   6.283   6.080  11.086 -1.5992 -2.9746  2.7957
28704SOL     OW91049   1.289   1.787   6.084  0.6149 -0.0950 -0.0490
28704SOL    HW191050   1.288   1.831   6.169 -0.3357  0.2641 -0.2326
28704SOL    HW291051   1.369   1.819   6.041  0.1835  1.1307  0.0021
28705SOL     OW91052   5.632   4.787   5.905  0.2479 -0.2947  0.6563
28705SOL    HW191053   5.693   4.726   5.947  1.2638  1.2437  1.5247
28705SOL    HW291054   5.636   4.866   5.959 -1.0649  0.5319 -0.3903
28706SOL     OW91055   4.625   3.327   8.389  0.1247 -0.3416 -0.2725
28706SOL    HW191056   4.602   3.242   8.351 -0.2272 -0.1743 -0.4343
28706SOL    HW291057   4.621   3.388   8.316 -2.1660  0.2768  0.3073
28707SOL     OW91058   4.798   6.428   9.199  0.1894  0.1219 -0.2778
28707SOL    HW191059   4.864   6.482   9.242 -1.8319  0.2038  3.1246
28707SOL    HW291060   4.823   6.338   9.219 -0.8394  0.1643  1.4042
28708SOL     OW91061   1.529   0.996   3.875 -0.1340  0.5776 -0.5989
28708SOL    HW191062   1.479   1.024   3.798 -1.4283 -0.1661 -0.0662
28708SOL    HW291063   1.563   0.910   3.851  0.4192  0.8335 -0.7452
28709SOL     OW91064   2.985   8.866  10.370  0.7568  0.4113  0.0752
28709SOL    HW191065   2.944   8.937  10.419  0.8823  2.8380 -3.0579
28709SOL    HW291066   2.914   8.826  10.321  0.9308 -0.7476  0.7333
28710SOL     OW91067   3.600   5.317   6.370 -0.2473  0.7898 -0.8020
28710SOL    HW191068   3.554   5.381   6.315  0.6423  2.0725 -0.1012
28710SOL    HW291069   3.563   5.329   6.457 -0.3957 -0.0003 -0.7494
28711SOL     OW91070   8.120   7.292   5.363  0.4033  0.0502 -0.3812
28711SOL    HW191071   8.069   7.296   5.444 -0.1567  0.6128 -0.7517
28711SOL    HW291072   8.176   7.369   5.366  0.9100 -0.3175 -0.1958
28712SOL     OW91073   3.205   5.411   9.158 -0.0131  0.2389 -0.5547
28712SOL    HW191074   3.197   5.473   9.231 -1.4347 -1.5146  0.8603
28712SOL    HW291075   3.273   5.350   9.186  0.0801  0.0746 -1.1271
28713SOL     OW91076   1.030   0.727  10.543  0.1150  0.3587 -0.3288
28713SOL    HW191077   0.979   0.807  10.557 -0.1740  0.0194  0.6349
28713SOL    HW291078   1.080   0.716  10.625 -0.7479 -1.0863  0.0292
28714SOL     OW91079   7.190   0.381   9.488 -0.4683  0.0940 -0.2458
28714SOL    HW191080   7.176   0.290   9.515  1.5222  0.1552  1.2544
28714SOL    HW291081   7.195   0.377   9.392 -1.3902 -1.1995 -0.2682
28715SOL     OW91082   9.845   6.583   5.265  0.1107  0.2987  0.0988
28715SOL    HW191083   9.804   6.613   5.184  1.0054  2.5872  0.4448
28715SOL    HW291084   9.784   6.609   5.334  0.5909  0.7166  0.3631
28716SOL     OW91085   7.404   0.851  10.035  0.3653 -0.1421  0.2892
28716SOL    HW191086   7.320   0.815  10.063  0.7734 -0.8823  0.5856
28716SOL    HW291087   7.431   0.908  10.107 -0.0956  0.4809 -0.0136
28717SOL     OW91088   7.034   0.229   0.462  0.1273  0.5021 -0.1875
28717SOL    HW191089   6.994   0.316   0.449  0.3029  0.9230  1.8497
28717SOL    HW291090   7.127   0.247   0.470  0.0549  0.2994  1.3891
28718SOL     OW91091   3.245   7.686   9.454 -0.3715 -0.0158  0.3936
28718SOL    HW191092   3.296   7.660   9.531  1.6649 -0.5446 -1.0389
28718SOL    HW291093   3.179   7.618   9.445  0.9871 -1.3864  0.2715
28719SOL     OW91094   4.931   1.562   1.954 -0.3426  0.2870  0.0351
28719SOL    HW191095   4.960   1.472   1.938  1.5814  0.3124  2.6517
28719SOL    HW291096   4.986   1.616   1.897  0.0580 -0.1014  0.0502
28720SOL     OW91097   2.602   3.387   6.184  0.0812  0.4812 -0.3318
28720SOL    HW191098   2.629   3.477   6.165  2.7008 -0.6288 -2.6094
28720SOL    HW291099   2.529   3.371   6.123 -0.7737  1.1876  0.4793
28721SOL     OW91100   2.750   7.751   8.483  0.3910 -0.3182 -0.0331
28721SOL    HW191101   2.705   7.763   8.566 -0.6925 -2.5384 -0.2448
28721SOL    HW291102   2.747   7.838   8.442 -2.4748 -0.0425  0.5713
28722SOL     OW91103   1.486   2.627   4.411  0.1653 -0.3523  0.1013
28722SOL    HW191104   1.423   2.670   4.353 -0.4081 -1.1183  0.1451
28722SOL    HW291105   1.572   2.656   4.379 -0.1804  0.1511 -0.3938
28723SOL     OW91106   1.487   2.740   0.191 -0.3760  0.0276  0.0934
28723SOL    HW191107   1.546   2.757   0.117 -0.3165  0.5327  0.2548
28723SOL    HW291108   1.462   2.649   0.180  0.5460 -0.2407  0.0922
28724SOL     OW91109   1.876   5.658  11.556 -0.7358  0.4591 -0.0713
28724SOL    HW191110   1.839   5.746  11.549 -0.5123  0.5573 -0.0214
28724SOL    HW291111   1.843   5.612  11.479 -0.7078  0.6413 -0.1931
28725SOL     OW91112   9.096   8.700   6.897  0.0923  0.5153  1.0064
28725SOL    HW191113   9.060   8.708   6.985  0.7148 -1.2988  1.4819
28725SOL    HW291114   9.190   8.711   6.908  0.2968 -0.8460  0.7810
28726SOL     OW91115   7.682   0.343   8.516  0.2762  0.1343 -0.1753
28726SOL    HW191116   7.691   0.423   8.568 -2.6557  1.2707 -1.2551
28726SOL    HW291117   7.761   0.342   8.461  0.8005  1.7815  0.4767
28727SOL     OW91118   7.742   2.251   5.078  0.3189  0.1953  0.3495
28727SOL    HW191119   7.829   2.289   5.093  0.5382  0.6025 -1.7198
28727SOL    HW291120   7.706   2.303   5.006  0.8749 -3.7940 -3.1889
28728SOL     OW91121   6.484   2.957   1.612  0.0499  0.1561  0.2140
28728SOL    HW191122   6.564   2.962   1.560 -0.9297  0.4853 -1.3341
28728SOL    HW291123   6.441   2.876   1.583 -0.4314  0.2457  0.6571
28729SOL     OW91124   1.796   0.835   4.394  0.3543 -1.0460  0.3597
28729SOL    HW191125   1.752   0.795   4.319  1.1500 -2.1536  0.4594
28729SOL    HW291126   1.888   0.836   4.370  0.4055  0.3694  0.5441
28730SOL     OW91127   0.460   3.396   7.945  0.5705  0.3892  0.0118
28730SOL    HW191128   0.522   3.411   7.874 -0.9814 -0.4343 -1.5728
28730SOL    HW291129   0.412   3.478   7.952  0.8037  0.5118  0.2245
28731SOL     OW91130   4.308   3.222   4.614 -0.1694 -0.2935 -0.0313
28731SOL    HW191131   4.260   3.241   4.534 -0.7868 -0.4389  0.3021
28731SOL    HW291132   4.346   3.135   4.600  0.2662 -0.0412 -0.4205
28732SOL     OW91133  10.014   7.626  10.063 -0.0616  0.3329 -0.0423
28732SOL    HW191134  10.089   7.684  10.052 -2.0206  2.8537 -1.0610
28732SOL    HW291135   9.998   7.589   9.977 -1.1078  1.3727 -0.3288
28733SOL     OW91136   9.882   9.337   2.752 -0.6762  0.8179 -0.1830
28733SOL    HW191137   9.816   9.405   2.743 -0.3187  1.0444 -1.1554
28733SOL    HW291138   9.960   9.382   2.785 -1.1180  0.4689  1.4652
28734SOL     OW91139   9.702   7.504   9.446  0.2962 -0.1182 -0.3116
28734SOL    HW191140   9.655   7.487   9.364  1.3168 -1.2933 -0.6837
28734SOL    HW291141   9.634   7.512   9.512 -0.4729 -0.9251 -0.9812
28735SOL     OW91142   7.470   4.351   3.374  0.7759  0.2436 -0.0962
28735SOL    HW191143   7.528   4.286   3.413 -0.0106 -1.8748 -2.2138
28735SOL    HW291144   7.530   4.414   3.332  1.5418  0.1040  0.7543
28736SOL     OW91145  10.767   7.738   7.842 -0.0593 -0.1073  0.2082
28736SOL    HW191146  10.682   7.694   7.846 -0.5994  0.9888  1.5306
28736SOL    HW291147  10.830   7.667   7.830 -1.1156 -0.9754 -0.3983
28737SOL     OW91148   9.364   5.395   4.658  0.2767  0.0722  0.3972
28737SOL    HW191149   9.389   5.474   4.706  0.8972 -0.4049  0.8691
28737SOL    HW291150   9.447   5.353   4.635  0.0242  0.4673 -1.4236
28738SOL     OW91151   4.634  10.044   1.989  0.3661 -0.4196  0.1511
28738SOL    HW191152   4.625   9.949   1.983  0.8087 -0.6916  2.7815
28738SOL    HW291153   4.568  10.070   2.052 -0.1130  1.1403 -0.9375
28739SOL     OW91154   0.033   7.069   0.939  0.2298 -0.0848  0.2141
28739SOL    HW191155   0.114   7.051   0.986  0.0296  0.3781  0.7655
28739SOL    HW291156   0.039   7.162   0.915 -1.8702  1.2713  3.9983
28740SOL     OW91157   0.112   5.448   5.497  0.1286  0.3904 -0.1427
28740SOL    HW191158   0.116   5.420   5.589 -0.8771 -1.2107 -0.5407
28740SOL    HW291159   0.052   5.523   5.497  1.0636  1.1665  0.6436
28741SOL     OW91160   6.572   6.261   2.399 -0.3155  0.5696 -0.4596
28741SOL    HW191161   6.664   6.263   2.373  0.3097  0.3626  1.5996
28741SOL    HW291162   6.561   6.340   2.452 -0.7220 -0.5308  1.1374
28742SOL     OW91163   3.480  11.404  10.590 -0.4244 -0.1799 -0.1368
28742SOL    HW191164   3.527  11.370  10.666  0.5176  1.7515  0.2257
28742SOL    HW291165   3.545  11.457  10.543 -1.7801  1.2314 -0.5297
28743SOL     OW91166   1.675   6.186   8.570  0.2174 -0.3547  0.0828
28743SOL    HW191167   1.683   6.270   8.525  2.4462 -0.5407  0.0269
28743SOL    HW291168   1.694   6.206   8.662 -0.8147 -0.5604  0.3557
28744SOL     OW91169   0.268  10.620  11.678  0.5650  0.4445 -0.5103
28744SOL    HW191170   0.296  10.537  11.638 -1.3549 -0.9093  0.7678
28744SOL    HW291171   0.345  10.650  11.726  0.5919 -2.0531  1.2134
28745SOL     OW91172   6.352   5.142   4.457  0.1258  0.1102  0.5139
28745SOL    HW191173   6.364   5.058   4.412 -2.3397 -0.4867  0.8252
28745SOL    HW291174   6.294   5.122   4.530  1.1671  1.7439  1.8536
28746SOL     OW91175   2.688   9.413   8.537  0.2656 -0.3750 -0.5525
28746SOL    HW191176   2.651   9.432   8.451 -0.6957 -2.2083 -0.5818
28746SOL    HW291177   2.626   9.353   8.578  0.0815  1.3472  1.9304
28747SOL     OW91178   2.749   0.005   5.376 -0.0567  0.3589  0.1776
28747SOL    HW191179   2.792   0.062   5.440 -0.0011  0.7582 -0.2089
28747SOL    HW291180   2.701   0.064   5.318  0.1782  0.0352 -0.3645
28748SOL     OW91181   7.552   0.770   0.200  0.5227  0.3358  0.0812
28748SOL    HW191182   7.645   0.778   0.182  0.4511  0.5187 -0.2292
28748SOL    HW291183   7.545   0.769   0.295  0.8216  0.5424  0.1067
28749SOL     OW91184  11.634   4.518   3.497  0.5181 -0.2391 -0.1682
28749SOL    HW191185  11.621   4.579   3.424  0.9280 -1.2247 -1.0952
28749SOL    HW291186  11.726   4.528   3.521  0.6522 -0.6535 -0.4896
28750SOL     OW91187   0.034   7.646  10.137  0.2585 -0.0628 -0.4233
28750SOL    HW191188   0.103   7.617  10.196  0.9168  0.5676 -0.8804
28750SOL    HW291189   0.058   7.735  10.113 -0.8625  0.2702 -0.3657
28751SOL     OW91190  10.683   9.265   4.167  0.2233 -0.7450  0.5023
28751SOL    HW191191  10.616   9.264   4.099 -1.1932  0.1986  1.8026
28751SOL    HW291192  10.643   9.218   4.240  0.4689  0.8717  1.7253
28752SOL     OW91193  11.376   0.095   9.189 -0.1872  0.7590  0.0193
28752SOL    HW191194  11.457   0.112   9.238 -0.4608  1.2695  0.3044
28752SOL    HW291195  11.339   0.182   9.173 -0.6057  0.5374 -0.2333
28753SOL     OW91196   4.141   1.532   8.481  0.5778  0.2011 -0.5044
28753SOL    HW191197   4.101   1.503   8.398  0.8288  0.7931 -0.8346
28753SOL    HW291198   4.067   1.548   8.539  0.4358 -1.9489 -0.0071
28754SOL     OW91199   4.914   0.459   3.190  0.1159  0.1804  0.1931
28754SOL    HW191200   4.867   0.531   3.149 -2.0948 -0.3678  1.5701
28754SOL    HW291201   4.933   0.398   3.119  0.5779  1.3434 -0.7123
28755SOL     OW91202   9.820   9.682   2.139  0.2908 -0.0419 -0.1617
28755SOL    HW191203   9.869   9.757   2.174 -0.0831  0.1210  0.0163
28755SOL    HW291204   9.879   9.644   2.074  0.8662 -0.1589  0.4141
28756SOL     OW91205   4.841   3.662   7.761 -0.2033  0.0963 -0.2075
28756SOL    HW191206   4.906   3.607   7.718 -0.2163  1.1650 -1.6938
28756SOL    HW291207   4.773   3.675   7.694 -0.7064  1.0309  0.4636
28757SOL     OW91208   4.729   8.997   5.601  0.4028  0.8564 -0.9366
28757SOL    HW191209   4.766   9.053   5.669  0.4499  0.7278 -0.8571
28757SOL    HW291210   4.794   8.928   5.589 -0.3238  0.0013 -0.0099
28758SOL     OW91211   9.281   6.941   0.139 -0.1224  0.1322 -0.2866
28758SOL    HW191212   9.203   6.987   0.108  0.4223  1.1968 -0.1359
28758SOL    HW291213   9.251   6.895   0.218 -0.7688 -0.0764 -0.6471
28759SOL     OW91214   9.193   8.828   2.378 -0.0066  0.3035  0.1210
28759SOL    HW191215   9.170   8.911   2.421 -1.8392 -0.4061  0.6149
28759SOL    HW291216   9.181   8.762   2.447  0.9481 -0.4394 -0.4069
28760SOL     OW91217  10.073   9.699   2.667  0.5209  0.3804  0.0897
28760SOL    HW191218  10.051   9.651   2.746 -1.1442  1.2382  0.1730
28760SOL    HW291219  10.045   9.641   2.595  0.1489  0.4829  0.1549
28761SOL     OW91220   8.262   2.173   0.963 -0.0228 -0.3437  0.2044
28761SOL    HW191221   8.326   2.105   0.986 -0.9355 -1.3729 -0.2322
28761SOL    HW291222   8.201   2.129   0.904  0.9904  1.6072 -2.4849
28762SOL     OW91223   4.985   3.572   5.193  0.0075 -0.6005 -0.3579
28762SOL    HW191224   5.064   3.582   5.139 -0.9753 -0.1686 -1.7834
28762SOL    HW291225   4.992   3.641   5.259  2.5636 -2.8045  1.9296
28763SOL     OW91226   2.550   8.301   1.378 -0.1788 -0.7535 -0.1835
28763SOL    HW191227   2.506   8.324   1.296  0.2028 -0.6640 -0.3636
28763SOL    HW291228   2.591   8.217   1.361 -0.2641 -0.8300 -0.0186
28764SOL     OW91229   4.196   8.229   9.197  0.3980 -0.2392 -0.1150
28764SOL    HW191230   4.277   8.266   9.162  0.0196  0.6668 -0.0528
28764SOL    HW291231   4.204   8.240   9.292 -0.7522  1.9754 -0.1991
28765SOL     OW91232   9.513   1.918   4.933  0.3327 -0.1165 -0.3694
28765SOL    HW191233   9.497   1.827   4.957 -0.5488 -0.2300 -1.3183
28765SOL    HW291234   9.474   1.969   5.004 -0.8948 -0.4633 -0.7689
28766SOL     OW91235   1.516   4.294   1.831  0.3208 -0.2851  0.2731
28766SOL    HW191236   1.475   4.300   1.745 -0.2557 -2.1220  0.3762
28766SOL    HW291237   1.599   4.340   1.821  0.0472 -0.0377 -1.1178
28767SOL     OW91238   7.850   1.553  10.097 -0.1635 -0.5294 -0.7473
28767SOL    HW191239   7.763   1.560  10.058 -0.3676 -0.1054 -0.2225
28767SOL    HW291240   7.838   1.498  10.175 -0.4080  1.2847  0.5698
28768SOL     OW91241   2.960   1.682   9.452  0.3106  0.7032 -0.3225
28768SOL    HW191242   2.943   1.749   9.518  0.3814  1.6724 -1.2632
28768SOL    HW291243   2.874   1.660   9.417  0.0499 -1.0655  1.2109
28769SOL     OW91244  11.630   8.617   1.849 -0.1208 -0.5018  0.5770
28769SOL    HW191245  11.548   8.569   1.860  0.2301 -0.9371  1.4576
28769SOL    HW291246  11.696   8.548   1.840  0.1675 -0.1558  0.0027
28770SOL     OW91247   7.464   8.684   6.200  0.8949  0.2502  0.1095
28770SOL    HW191248   7.445   8.774   6.226  0.1939  0.4268 -0.9268
28770SOL    HW291249   7.379   8.650   6.169  1.1068 -0.8338  0.6926
28771SOL     OW91250   3.831   3.425  10.100 -0.3706 -0.4917  0.1976
28771SOL    HW191251   3.893   3.469  10.158 -1.7489  0.8269  0.7242
28771SOL    HW291252   3.748   3.428  10.147 -1.8897  1.8244 -2.3283
28772SOL     OW91253   7.079  10.504   5.300  0.1412 -0.1659  0.0663
28772SOL    HW191254   7.027  10.473   5.226 -1.4823  2.2708  0.0867
28772SOL    HW291255   7.155  10.546   5.261  0.1126 -0.3159 -0.1495
28773SOL     OW91256   6.185   0.240   1.010 -0.4119  0.3412 -0.4554
28773SOL    HW191257   6.169   0.243   1.104  0.4351 -1.2377 -0.2244
28773SOL    HW291258   6.248   0.168   0.999  0.6099  1.4201 -2.0721
28774SOL     OW91259   8.912   8.666   5.312 -0.2438  0.6443  0.8528
28774SOL    HW191260   8.817   8.653   5.318 -0.0942 -0.7844  0.4166
28774SOL    HW291261   8.948   8.578   5.311  1.0515  1.1619  0.2319
28775SOL     OW91262   2.399   5.445   5.675  0.1367 -0.6222  0.0284
28775SOL    HW191263   2.405   5.487   5.589  0.5826  1.5904  1.0550
28775SOL    HW291264   2.464   5.491   5.728 -0.3696 -1.6954  1.6421
28776SOL     OW91265   9.266   4.350   5.228 -0.5033  0.0045  0.1794
28776SOL    HW191266   9.179   4.382   5.253 -1.0385 -0.8137 -0.5434
28776SOL    HW291267   9.294   4.297   5.302 -0.2818  0.8742  0.7305
28777SOL     OW91268   8.979   1.494  10.419 -0.3287  0.4447  0.5047
28777SOL    HW191269   9.067   1.475  10.387  0.3463  1.6599  1.5360
28777SOL    HW291270   8.991   1.569  10.478 -1.5837 -1.2117  3.0629
28778SOL     OW91271   1.752   4.996   8.202 -0.0001  1.1655 -0.8047
28778SOL    HW191272   1.680   5.059   8.194 -0.4005  0.9072  0.6002
28778SOL    HW291273   1.763   4.983   8.296  0.0339 -0.9123 -1.0385
28779SOL     OW91274   3.898   6.315  10.248 -1.0266  0.0219 -0.9111
28779SOL    HW191275   3.895   6.313  10.152  0.0833 -1.8507 -0.9501
28779SOL    HW291276   3.939   6.232  10.272 -1.8211  0.2014  1.2192
28780SOL     OW91277   2.251  10.099   6.962 -0.0305  0.4239  0.2826
28780SOL    HW191278   2.235  10.013   7.000  0.2174  0.2532  0.0047
28780SOL    HW291279   2.268  10.081   6.870  3.1093  0.4293  0.7541
28781SOL     OW91280   6.303   9.238   4.475 -0.4982 -0.6914  0.2743
28781SOL    HW191281   6.291   9.310   4.537 -0.5055 -0.4379 -0.0216
28781SOL    HW291282   6.358   9.275   4.406  0.9321 -1.4584  0.9599
28782SOL     OW91283   1.770   5.683   9.409  0.4761 -0.7119 -0.2337
28782SOL    HW191284   1.829   5.642   9.472  1.2301 -1.2919 -1.2812
28782SOL    HW291285   1.821   5.690   9.328  0.2445  1.9387 -0.2404
28783SOL     OW91286   6.507   9.806   3.907  0.2765  0.3559 -0.1826
28783SOL    HW191287   6.418   9.779   3.929  0.3598  0.3440  0.1496
28783SOL    HW291288   6.556   9.723   3.903  0.5460  0.4468  0.9012
28784SOL     OW91289   0.427   4.906   6.038 -0.1060  0.5419 -0.4048
28784SOL    HW191290   0.364   4.927   6.106  0.7810  0.5193  0.4445
28784SOL    HW291291   0.453   4.815   6.056  1.1916  0.9982  0.1066
28785SOL     OW91292   7.149   0.345   1.537  0.2391 -0.2084 -0.1545
28785SOL    HW191293   7.155   0.322   1.444 -0.2038 -0.9040 -0.0223
28785SOL    HW291294   7.095   0.424   1.539 -0.4982 -0.6962 -0.4280
28786SOL     OW91295   9.018   9.073   4.506  0.5905  0.6211 -0.3935
28786SOL    HW191296   9.077   9.124   4.451  1.4520 -0.5864 -0.6451
28786SOL    HW291297   8.960   9.029   4.444  0.5917  0.4214 -0.2542
28787SOL     OW91298   5.438   6.180  10.703 -0.2953 -0.5498 -0.1540
28787SOL    HW191299   5.349   6.171  10.669 -0.1641 -0.8275 -0.4251
28787SOL    HW291300   5.453   6.100  10.753 -0.5003 -0.1276  0.5940
28788SOL     OW91301   4.214   3.048   1.456 -0.4718  0.2656  0.2270
28788SOL    HW191302   4.130   3.034   1.498 -1.1059 -1.7856 -1.5538
28788SOL    HW291303   4.221   3.143   1.446 -1.1020  0.7040  3.1392
28789SOL     OW91304   7.109   5.315   4.736  0.6198 -0.5014  0.0061
28789SOL    HW191305   7.023   5.343   4.704  0.1684 -1.2043  0.5411
28789SOL    HW291306   7.126   5.370   4.812  0.4135 -0.6824  0.1851
28790SOL     OW91307   8.060   6.172   7.761  0.3559 -0.1786 -0.5690
28790SOL    HW191308   8.085   6.263   7.746 -0.3337  0.1153 -0.0122
28790SOL    HW291309   7.964   6.174   7.765  0.3703 -0.6840  0.8486
28791SOL     OW91310   0.057   7.204   8.871 -0.1029  0.0786  0.4734
28791SOL    HW191311   0.101   7.138   8.924 -1.3187  0.0559  1.4975
28791SOL    HW291312   0.097   7.287   8.899 -0.2875  0.0067  0.9568
28792SOL     OW91313   0.595   4.615   1.605  0.3281 -0.3505 -0.3029
28792SOL    HW191314   0.509   4.593   1.570  0.7308  0.0588 -1.5957
28792SOL    HW291315   0.604   4.559   1.683 -1.7391  0.7546  0.8200
28793SOL     OW91316   8.624   9.487   1.912  0.3013 -0.8385  0.5896
28793SOL    HW191317   8.569   9.456   1.840 -0.4557  1.1308  0.2512
28793SOL    HW291318   8.562   9.515   1.979  0.9867 -1.8133  1.6436
28794SOL     OW91319  11.087   8.775   1.133  0.4076 -0.0053  0.3710
28794SOL    HW191320  11.034   8.740   1.061  0.1198  1.3744 -0.1357
28794SOL    HW291321  11.176   8.775   1.100  0.1711  1.3968 -0.3468
28795SOL     OW91322   4.250   9.248   0.658 -0.4002  0.4222 -0.8943
28795SOL    HW191323   4.328   9.236   0.604  0.1117  0.4811 -0.1812
28795SOL    HW291324   4.250   9.173   0.718  1.0034  2.1042  1.3835
28796SOL     OW91325  10.637   9.725   2.344  0.4429 -0.3911 -0.1782
28796SOL    HW191326  10.629   9.631   2.362 -0.0779 -0.3077  0.0229
28796SOL    HW291327  10.729   9.744   2.361  0.2936 -0.6190  0.9565
28797SOL     OW91328  11.431   4.763   5.178  0.1661 -0.2281  0.0604
28797SOL    HW191329  11.357   4.762   5.239  0.0829 -1.7172 -0.0135
28797SOL    HW291330  11.482   4.685   5.201  2.3070  1.3028  0.7768
28798SOL     OW91331  10.279   8.154   7.396  0.2501  0.1376 -0.2986
28798SOL    HW191332  10.207   8.205   7.360  0.6093 -0.1020 -1.4039
28798SOL    HW291333  10.358   8.193   7.357  0.8913  1.4777  2.1764
28799SOL     OW91334   7.139   9.153   2.717 -0.7588 -0.0383  1.0856
28799SOL    HW191335   7.082   9.228   2.697 -1.4729 -0.8561 -0.0249
28799SOL    HW291336   7.085   9.076   2.701  0.5750 -0.8375  0.2130
28800SOL     OW91337   7.228   3.647   9.590 -0.7067 -0.5978 -0.1108
28800SOL    HW191338   7.258   3.668   9.501  1.5537 -0.0433  0.7007
28800SOL    HW291339   7.307   3.617   9.635 -1.8452 -1.0847  1.6551
28801SOL     OW91340   6.905   5.465   9.999  0.3470  0.6458 -0.1330
28801SOL    HW191341   6.893   5.443   9.906  0.0438  0.4978 -0.0610
28801SOL    HW291342   6.964   5.540   9.999  0.5073  0.5217 -0.4370
28802SOL     OW91343   7.230   2.254   5.473 -0.4535 -0.4822 -0.8706
28802SOL    HW191344   7.199   2.183   5.416 -0.4444 -1.3997  0.2324
28802SOL    HW291345   7.168   2.325   5.457  0.2432 -0.2758 -2.8909
28803SOL     OW91346   3.990   9.622   4.644 -0.5061 -0.0826  0.3412
28803SOL    HW191347   3.958   9.555   4.584 -2.4626 -0.6164  1.8653
28803SOL    HW291348   4.080   9.594   4.665 -0.7359 -1.3551 -0.2728
28804SOL     OW91349   9.127   7.714   6.688 -0.1568  0.4049  0.8476
28804SOL    HW191350   9.039   7.742   6.662  0.6499  1.8877 -0.3931
28804SOL    HW291351   9.185   7.780   6.652  1.4921 -0.5397  1.6715
28805SOL     OW91352   6.974  11.260   9.412  0.0193  0.0797 -0.4214
28805SOL    HW191353   7.014  11.197   9.352 -1.4355 -0.5866 -0.7386
28805SOL    HW291354   6.941  11.330   9.356 -2.4955 -1.1679 -0.6078
28806SOL     OW91355   8.603   6.091   4.259 -0.1757  0.2018 -0.1032
28806SOL    HW191356   8.558   6.158   4.310  0.2418  1.1275 -0.9043
28806SOL    HW291357   8.640   6.032   4.324  0.1366  1.2130  0.6632
28807SOL     OW91358   3.623   3.284   5.234  0.1944 -0.0477  0.0438
28807SOL    HW191359   3.705   3.239   5.253  0.8168  0.6670 -0.8837
28807SOL    HW291360   3.578   3.225   5.172 -0.5220 -0.9749  1.4038
28808SOL     OW91361   9.243  10.305   1.713  0.0887  0.5919  0.0084
28808SOL    HW191362   9.329  10.288   1.675  1.4299  1.3822  2.4274
28808SOL    HW291363   9.249  10.270   1.802 -2.2144  0.4398  0.1642
28809SOL     OW91364   5.397   9.883   1.360  0.1278 -0.0645  0.0721
28809SOL    HW191365   5.459   9.817   1.391 -0.4917 -0.5611  0.2656
28809SOL    HW291366   5.348   9.908   1.438 -1.1749 -1.0344 -0.4119
28810SOL     OW91367   6.079   6.566   3.088 -0.0082  0.1404  0.0192
28810SOL    HW191368   6.124   6.629   3.032 -1.1993  2.1530  1.1881
28810SOL    HW291369   6.060   6.492   3.031  3.7303 -0.4125 -0.8094
28811SOL     OW91370   0.794   0.931   9.708  0.7155  0.4258  0.3287
28811SOL    HW191371   0.853   1.006   9.715  2.0793 -0.7096  1.5475
28811SOL    HW291372   0.709   0.966   9.734  1.5122  1.3664  1.8189
28812SOL     OW91373   1.287   8.465  10.427  0.5379  0.2601  0.0931
28812SOL    HW191374   1.209   8.455  10.483  0.4801 -2.7079 -0.3901
28812SOL    HW291375   1.261   8.429  10.343  1.5166  2.1172 -1.0522
28813SOL     OW91376   0.991   8.037  10.852  0.0068  0.3353 -0.0827
28813SOL    HW191377   1.075   8.084  10.852 -1.1963  2.7232 -2.2384
28813SOL    HW291378   1.000   7.973  10.923  3.0713  1.4951  0.7615
28814SOL     OW91379   3.149   2.285   1.916  0.3440  0.4341  0.2653
28814SOL    HW191380   3.158   2.224   1.843  0.4314  1.2690 -0.4370
28814SOL    HW291381   3.073   2.252   1.965  0.8146 -0.6282  0.3014
28815SOL     OW91382   3.526  10.702   3.753 -0.4806  0.1132 -0.0908
28815SOL    HW191383   3.593  10.733   3.693 -0.2917  0.1280  0.1259
28815SOL    HW291384   3.575  10.662   3.825 -0.6722  0.9633  0.5278
28816SOL     OW91385   3.117   8.304   0.641  0.3219  0.1142  0.4219
28816SOL    HW191386   3.088   8.214   0.628  0.7001  0.0781 -0.2243
28816SOL    HW291387   3.151   8.331   0.556  1.7962  0.2834  1.0325
28817SOL     OW91388  10.400   0.802   8.606  0.3852 -0.0506 -0.3548
28817SOL    HW191389  10.397   0.716   8.647  0.0646  0.7193  1.3305
28817SOL    HW291390  10.484   0.805   8.561  0.0505 -1.5290 -1.1288
28818SOL     OW91391   7.189  11.610   9.679  0.0873  0.3374 -0.0704
28818SOL    HW191392   7.113  11.556   9.657  1.2745 -1.0797 -0.8496
28818SOL    HW291393   7.204  11.593   9.772 -0.1163  0.0759 -0.0846
28819SOL     OW91394   0.028   7.315  11.077 -0.0852  0.5364  0.1516
28819SOL    HW191395   0.027   7.222  11.101 -1.6826  0.1400 -1.2231
28819SOL    HW291396   0.063   7.359  11.154 -0.0364 -1.1345  1.1438
28820SOL     OW91397   5.626  10.178   3.737 -0.1382  0.3519 -0.1408
28820SOL    HW191398   5.638  10.258   3.686 -1.5832  0.9883  0.4367
28820SOL    HW291399   5.607  10.111   3.672  4.1888 -0.3448 -0.9340
28821SOL     OW91400   2.262   6.065   8.545 -0.1657  0.1719 -0.2155
28821SOL    HW191401   2.304   6.117   8.613 -0.8032 -0.2163  0.4838
28821SOL    HW291402   2.169   6.070   8.564 -0.4520  0.9064 -1.6675
28822SOL     OW91403  11.517   4.575   0.750 -0.3018 -0.0835 -0.2585
28822SOL    HW191404  11.589   4.628   0.782 -0.7194 -0.0428  0.6485
28822SOL    HW291405  11.557   4.490   0.729  0.0024 -0.0628  0.2393
28823SOL     OW91406   8.580   0.754  10.943  0.3246  0.2444 -0.3477
28823SOL    HW191407   8.639   0.747  11.018  0.6249 -0.5357 -0.6541
28823SOL    HW291408   8.596   0.675  10.891 -1.7603 -0.5723  0.1305
28824SOL     OW91409  10.927   5.949   8.908 -0.6667  0.0769 -0.0511
28824SOL    HW191410  10.868   5.933   8.981 -0.1319  1.0360  0.6171
28824SOL    HW291411  11.015   5.945   8.946 -0.2817 -1.2129 -1.0038
28825SOL     OW91412  11.420   7.624   4.667 -0.6781  0.2912  0.7022
28825SOL    HW191413  11.355   7.555   4.678  0.0685 -0.2675  1.8050
28825SOL    HW291414  11.412   7.678   4.746 -0.4841  0.7971  0.3816
28826SOL     OW91415   2.510   3.117   2.080 -0.2832  0.2299  0.0765
28826SOL    HW191416   2.535   3.032   2.042  2.3397  0.2544  1.4791
28826SOL    HW291417   2.496   3.174   2.005  3.4269 -0.0543 -1.0239
28827SOL     OW91418  10.988   1.364   7.427 -0.0795  0.1912  0.0877
28827SOL    HW191419  10.961   1.284   7.382  0.5468 -1.1630  1.9619
28827SOL    HW291420  10.929   1.369   7.503 -0.1625  1.5695 -0.0445
28828SOL     OW91421   5.856   8.185   9.406 -0.3934  0.0923  0.2809
28828SOL    HW191422   5.929   8.157   9.461  0.2619  2.4847  0.7400
28828SOL    HW291423   5.810   8.249   9.459 -1.2337  0.6046 -1.0303
28829SOL     OW91424   6.668   1.236   2.925 -0.1609  0.1568 -0.8033
28829SOL    HW191425   6.675   1.282   3.009  0.7304  1.5407 -1.5938
28829SOL    HW291426   6.575   1.239   2.904 -0.1294  1.7145 -0.8594
28830SOL     OW91427   6.967   8.769   4.624  0.3491  0.0873 -0.7354
28830SOL    HW191428   6.881   8.727   4.626 -1.1830  2.9699 -1.1632
28830SOL    HW291429   6.991   8.768   4.531  0.8504 -0.7930 -0.6056
28831SOL     OW91430   1.672   6.673  10.206  0.2666  0.2200  0.1385
28831SOL    HW191431   1.747   6.655  10.263 -1.0629 -0.4360  1.7971
28831SOL    HW291432   1.608   6.714  10.265 -0.7558  0.5512 -1.1689
28832SOL     OW91433  10.109   8.948   0.298 -0.0294 -0.5453  0.3401
28832SOL    HW191434  10.039   8.940   0.363 -0.3283 -1.2972 -0.0589
28832SOL    HW291435  10.089   9.030   0.252  0.2553  0.0640  1.2569
28833SOL     OW91436   2.879   8.910  11.374 -0.0092 -0.3816 -0.2254
28833SOL    HW191437   2.796   8.916  11.327 -0.0955  2.8649  0.1099
28833SOL    HW291438   2.940   8.963  11.322 -0.0730  3.2586  3.0052
28834SOL     OW91439   4.031   2.838   8.315  0.3634 -0.2846 -0.5728
28834SOL    HW191440   4.014   2.795   8.231  0.3103  0.4606 -0.9620
28834SOL    HW291441   4.114   2.801   8.345  0.8185  0.0436 -1.3814
28835SOL     OW91442   5.846  10.740   8.364  0.4156  0.2917 -0.1771
28835SOL    HW191443   5.850  10.724   8.459  0.1515 -0.2561 -0.2503
28835SOL    HW291444   5.797  10.821   8.355  0.5584  0.4180  0.1615
28836SOL     OW91445   8.550   0.829   8.202  0.3981 -0.4740  0.3645
28836SOL    HW191446   8.574   0.873   8.120 -0.2933 -0.4655  0.1649
28836SOL    HW291447   8.471   0.874   8.231 -0.6859 -1.9600 -0.1518
28837SOL     OW91448   2.705   0.331   5.845 -0.6064 -0.3998  0.3716
28837SOL    HW191449   2.670   0.281   5.772 -0.3501 -1.4650  0.9674
28837SOL    HW291450   2.646   0.313   5.918  0.3425 -1.0745  0.9987
28838SOL     OW91451   7.690   7.520   9.204 -0.2286 -1.1252 -0.1895
28838SOL    HW191452   7.721   7.545   9.290 -1.4342 -2.0983  0.5634
28838SOL    HW291453   7.770   7.506   9.153  0.5490  2.7366 -0.3190
28839SOL     OW91454   9.592   5.318  11.337 -0.5548 -0.2818 -0.2973
28839SOL    HW191455   9.515   5.266  11.313 -1.8120  2.1156 -1.9165
28839SOL    HW291456   9.654   5.304  11.265 -0.3928 -0.5329 -0.1049
28840SOL     OW91457   8.703   3.448   7.139  0.0977 -0.3873 -0.0618
28840SOL    HW191458   8.704   3.511   7.211  1.5393  0.1560 -0.5170
28840SOL    HW291459   8.751   3.491   7.069  0.4943 -1.7194 -0.6376
28841SOL     OW91460   8.974   5.060   3.587 -0.5713  0.1497  0.1401
28841SOL    HW191461   8.982   5.114   3.666 -2.0965 -0.4237  0.7193
28841SOL    HW291462   8.998   4.972   3.615  0.2280  0.1856 -0.3916
28842SOL     OW91463   6.365   7.545   6.927  0.2987  0.2775  0.0158
28842SOL    HW191464   6.459   7.541   6.909  0.3214  1.7069 -0.3082
28842SOL    HW291465   6.324   7.553   6.841 -0.2185 -1.4219  0.0795
28843SOL     OW91466   0.844  10.080   6.518  0.1889 -0.2426 -0.1799
28843SOL    HW191467   0.927  10.093   6.473  1.1481  0.7638  1.7215
28843SOL    HW291468   0.869  10.045   6.604 -1.3128  0.4055  0.5624
28844SOL     OW91469   0.826   0.805   7.994 -0.8257 -0.6029  0.1698
28844SOL    HW191470   0.762   0.737   8.015 -0.9012 -0.4846  0.3275
28844SOL    HW291471   0.774   0.879   7.962 -0.7973 -0.3831  0.6247
28845SOL     OW91472   7.710   2.794   6.453  0.0018  0.2298 -0.2903
28845SOL    HW191473   7.665   2.709   6.447 -1.0268  0.8024 -1.1802
28845SOL    HW291474   7.746   2.808   6.365 -1.1402  1.3713 -0.6121
28846SOL     OW91475   0.166   3.938  11.481 -0.2494 -0.3015 -0.2593
28846SOL    HW191476   0.239   3.900  11.529 -0.3896 -1.4028 -0.8738
28846SOL    HW291477   0.167   4.031  11.504  2.8417  0.2388 -2.1586
28847SOL     OW91478   0.024   7.669  10.769  0.2864 -0.1715  0.1541
28847SOL    HW191479   0.076   7.697  10.693 -1.5101 -1.0443 -1.4887
28847SOL    HW291480   0.055   7.580  10.787  0.8715  0.1183  0.6199
28848SOL     OW91481   4.273   0.940   8.719  0.3067 -0.2411  0.0606
28848SOL    HW191482   4.347   0.956   8.659  0.1345  0.0877 -0.0675
28848SOL    HW291483   4.196   0.939   8.662  0.1598 -0.0997  0.2563
28849SOL     OW91484   0.425   5.398   9.789  0.6568  0.3460 -0.2921
28849SOL    HW191485   0.339   5.359   9.772  1.0238 -1.7870  2.0694
28849SOL    HW291486   0.424   5.480   9.740 -3.0051  0.7784  0.1927
28850SOL     OW91487   8.558   7.590   4.408  0.2139  0.6207  0.0994
28850SOL    HW191488   8.553   7.551   4.495  0.5751  1.9637  0.7575
28850SOL    HW291489   8.472   7.630   4.395 -0.0616 -0.1360 -0.4465
28851SOL     OW91490  10.733   7.050  11.050  0.5653 -0.4685  0.0154
28851SOL    HW191491  10.801   7.037  11.115  0.2956 -0.1296  0.3687
28851SOL    HW291492  10.669   7.106  11.093  0.2355 -0.4932 -0.4352
28852SOL     OW91493   1.975   6.959   0.847 -0.0505  0.0923  0.4113
28852SOL    HW191494   2.052   6.947   0.901 -0.9615  1.2805  2.0466
28852SOL    HW291495   1.918   6.885   0.869 -0.1800  0.2622  0.6485
28853SOL     OW91496   0.711   3.130   3.167 -0.6714 -0.6896 -0.4732
28853SOL    HW191497   0.784   3.191   3.178 -0.9508 -0.0169 -2.1479
28853SOL    HW291498   0.750   3.044   3.183 -0.3556 -0.1195  2.2883
28854SOL     OW91499  11.442   5.809  10.577  0.1372  0.2353 -0.1024
28854SOL    HW191500  11.511   5.768  10.524  1.0024  1.1909  0.2608
28854SOL    HW291501  11.407   5.737  10.629 -0.5351 -0.6686 -1.7324
28855SOL     OW91502   7.151   2.675   1.012 -0.8569 -0.0964 -0.1289
28855SOL    HW191503   7.160   2.755   1.063  1.2623 -0.3423 -0.0584
28855SOL    HW291504   7.193   2.694   0.928  0.0057 -1.2429  0.0234
28856SOL     OW91505   4.741   5.271   5.021  0.2839 -0.4097  0.1688
28856SOL    HW191506   4.794   5.293   4.944  0.6009 -0.5713  0.3384
28856SOL    HW291507   4.776   5.325   5.091 -0.6182  0.4304 -0.0067
28857SOL     OW91508   6.072   9.705   2.358  0.0319  0.0520  0.2864
28857SOL    HW191509   6.075   9.801   2.364  2.4185  0.1215 -0.8761
28857SOL    HW291510   6.152   9.681   2.312  1.2779 -2.7351  3.4945
28858SOL     OW91511   1.847   2.922   2.251  0.2535 -0.4889 -0.1372
28858SOL    HW191512   1.869   2.943   2.161  0.7758  0.7028  0.2498
28858SOL    HW291513   1.857   2.827   2.257  0.6385 -0.5275 -1.2100
28859SOL     OW91514   6.121   8.452   7.739  0.3577 -0.3605 -0.1366
28859SOL    HW191515   6.145   8.500   7.659  1.8119 -1.4162 -0.3604
28859SOL    HW291516   6.099   8.520   7.802 -2.5209  0.5141 -1.8784
28860SOL     OW91517   5.074  10.958   2.688  0.2376  0.2809 -0.0775
28860SOL    HW191518   5.112  10.879   2.649 -0.5180 -0.2469  0.2180
28860SOL    HW291519   5.144  11.023   2.686  0.4565  0.0189 -1.5557
28861SOL     OW91520   3.652   7.439   8.111 -0.1716  0.2773  0.4946
28861SOL    HW191521   3.642   7.375   8.182  1.2263 -1.4758 -0.7819
28861SOL    HW291522   3.575   7.425   8.056 -0.2587  0.2380  0.6263
28862SOL     OW91523   5.626   9.687   4.619  0.1372 -0.1751 -0.5355
28862SOL    HW191524   5.721   9.691   4.606  0.2119 -0.9946 -0.2803
28862SOL    HW291525   5.615   9.654   4.709 -0.3910  0.7172 -0.2560
28863SOL     OW91526   8.198   1.735   4.182 -0.3518  0.4956 -0.5729
28863SOL    HW191527   8.288   1.748   4.210 -0.5734 -0.3822  0.6694
28863SOL    HW291528   8.188   1.640   4.177 -1.0988  0.5924 -1.0340
28864SOL     OW91529   8.935   2.237  10.085 -0.0188 -0.2016 -0.1634
28864SOL    HW191530   8.942   2.326  10.120 -1.5937  0.0749 -0.4892
28864SOL    HW291531   8.936   2.249   9.990  0.5209 -0.6111 -0.2120
28865SOL     OW91532   9.613   8.489   3.545  0.0024 -0.1273 -0.2464
28865SOL    HW191533   9.689   8.462   3.596 -0.5246 -2.1002 -0.4034
28865SOL    HW291534   9.609   8.584   3.556  0.3717 -0.3596  2.7035
28866SOL     OW91535   7.718  11.383   0.861  0.2487 -0.6356 -0.3532
28866SOL    HW191536   7.780  11.311   0.845 -0.0954 -0.8933 -0.5363
28866SOL    HW291537   7.653  11.374   0.792 -0.5341 -0.9549  0.4132
28867SOL     OW91538   7.891   3.156   5.789  0.4380 -0.1709  0.1522
28867SOL    HW191539   7.978   3.117   5.793  1.2020  1.4476  0.1529
28867SOL    HW291540   7.869   3.176   5.880 -0.5317 -1.7770  0.2967
28868SOL     OW91541   4.531   0.065  11.612  0.4403 -0.1595  0.3253
28868SOL    HW191542   4.624   0.044  11.618  0.7564  1.2144  0.4647
28868SOL    HW291543   4.503   0.074  11.703  0.4047  0.4001  0.2599
28869SOL     OW91544   8.629   6.820   7.618 -0.5327  0.8408  0.2376
28869SOL    HW191545   8.638   6.746   7.558  2.2678  0.7550  0.5985
28869SOL    HW291546   8.579   6.785   7.692 -1.6657  0.1637 -0.8211
28870SOL     OW91547   6.014   2.974   6.645  0.0412  0.1946  0.2382
28870SOL    HW191548   5.982   3.022   6.569 -0.1029 -1.1162 -0.5614
28870SOL    HW291549   6.107   2.997   6.650 -0.1220  0.8881  0.1322
28871SOL     OW91550   3.527   4.662   8.746 -0.4656 -0.8825  0.6833
28871SOL    HW191551   3.622   4.667   8.741 -0.2681 -3.9632 -2.1043
28871SOL    HW291552   3.509   4.620   8.830  0.5940 -0.4063  1.1654
28872SOL     OW91553   6.024  11.073   3.534 -0.2682 -0.5125 -0.0816
28872SOL    HW191554   6.039  11.151   3.481 -1.1001 -0.6801 -0.5775
28872SOL    HW291555   6.102  11.019   3.520  0.7238  0.5709  0.9353
28873SOL     OW91556   2.856  10.143   8.962 -0.0895  0.2618 -0.5378
28873SOL    HW191557   2.926  10.108   9.017  0.6735  1.0391 -1.0006
28873SOL    HW291558   2.812  10.208   9.017  0.1320  0.4214 -0.5467
28874SOL     OW91559   1.520   1.820   3.030  0.3400 -0.0583  0.3368
28874SOL    HW191560   1.472   1.740   3.051  0.1714 -0.0140  0.1269
28874SOL    HW291561   1.480   1.887   3.086  1.7250 -0.4786  1.9136
28875SOL     OW91562   9.630  10.807   2.469 -0.5156  0.0553 -0.7586
28875SOL    HW191563   9.663  10.730   2.422  0.6730 -0.5619  0.9909
28875SOL    HW291564   9.603  10.773   2.554  0.5322  1.6565  0.2478
28876SOL     OW91565   9.650   6.100   7.101  0.4911 -0.4706 -0.4789
28876SOL    HW191566   9.711   6.043   7.147 -0.9092 -1.8622 -0.2393
28876SOL    HW291567   9.565   6.055   7.108 -0.0691  0.0029 -3.1343
28877SOL     OW91568   8.390   5.983  11.126  0.3148  0.1451 -0.0798
28877SOL    HW191569   8.369   6.076  11.126 -0.9290 -0.1010  1.1601
28877SOL    HW291570   8.355   5.950  11.208  0.5440 -1.4696 -0.5815
28878SOL     OW91571   4.792  10.939   4.418 -0.1788  0.4153 -0.3003
28878SOL    HW191572   4.797  11.034   4.432  1.1916  0.0838  1.8924
28878SOL    HW291573   4.883  10.913   4.401 -0.7098 -0.3817 -2.2364
28879SOL     OW91574   9.142   4.380   7.652  0.2025  0.4037 -0.1459
28879SOL    HW191575   9.222   4.409   7.606  0.1344  1.6754  0.4929
28879SOL    HW291576   9.120   4.453   7.709 -0.9973 -0.2562  0.2594
28880SOL     OW91577   9.495   3.955   1.848 -0.2558  0.0454 -0.3144
28880SOL    HW191578   9.483   4.049   1.863 -0.3370  0.1216 -0.8406
28880SOL    HW291579   9.526   3.949   1.757 -0.2824 -0.4386 -0.2939
28881SOL     OW91580   7.787  11.585   4.511  0.1238 -0.2520 -0.3662
28881SOL    HW191581   7.831  11.503   4.488 -1.7184 -1.6102  0.7378
28881SOL    HW291582   7.756  11.619   4.427 -3.1424 -3.1559 -0.5335
28882SOL     OW91583   8.940  10.657  11.088 -0.0829  0.4545 -0.2094
28882SOL    HW191584   8.847  10.654  11.110 -0.0945 -0.4040 -0.3626
28882SOL    HW291585   8.964  10.567  11.069  1.3570  0.2607  2.1234
28883SOL     OW91586   3.375   9.619   0.995  0.8557  0.1186 -0.4392
28883SOL    HW191587   3.412   9.701   1.029  1.7626  0.0039 -1.1255
28883SOL    HW291588   3.420   9.551   1.044  1.9549 -0.0389 -1.6457
28884SOL     OW91589   9.042   9.228   5.514 -0.2079  0.4201  0.1615
28884SOL    HW191590   9.114   9.291   5.504 -0.0704  0.1848 -0.3584
28884SOL    HW291591   9.057   9.189   5.600 -0.0419  0.7874  0.3006
28885SOL     OW91592   3.507   7.156   9.120  0.2095  0.2075 -0.1304
28885SOL    HW191593   3.424   7.191   9.087  0.1088 -0.9487 -1.1791
28885SOL    HW291594   3.486   7.126   9.209 -0.5761 -0.3219 -0.4838
28886SOL     OW91595   7.498  10.847  10.058 -0.2646 -0.1831  0.6244
28886SOL    HW191596   7.449  10.862  10.139 -0.5016 -2.2284  0.9021
28886SOL    HW291597   7.560  10.777  10.080  1.6243  1.1464 -0.2086
28887SOL     OW91598   9.505  10.616   2.175  0.2813 -0.0878 -0.0809
28887SOL    HW191599   9.475  10.565   2.250 -0.7407 -0.5943 -0.8128
28887SOL    HW291600   9.579  10.567   2.141  0.8355  0.2138  0.6576
28888SOL     OW91601  10.574   3.667  10.479 -0.0983  0.4321  0.4218
28888SOL    HW191602  10.511   3.730  10.515 -0.4808  0.5919 -0.4938
28888SOL    HW291603  10.561   3.673  10.384  0.6202 -0.2487  0.2779
28889SOL     OW91604   4.595   8.282   2.021 -0.1412 -0.1226 -0.4643
28889SOL    HW191605   4.520   8.276   2.079 -0.5179 -0.9407 -1.0185
28889SOL    HW291606   4.608   8.376   2.007 -2.0328  0.0184 -1.5877
28890SOL     OW91607   0.948   7.194   2.377 -0.3923  0.0721  0.3291
28890SOL    HW191608   0.906   7.122   2.424 -1.1421  0.3526  0.1094
28890SOL    HW291609   0.898   7.271   2.403 -0.6885  0.2659 -0.7382
28891SOL     OW91610   2.362   2.844   5.854 -0.2471 -0.5096 -0.0060
28891SOL    HW191611   2.337   2.863   5.944 -0.6497 -0.9558 -0.0182
28891SOL    HW291612   2.436   2.785   5.861 -0.5968 -0.9506  0.0404
28892SOL     OW91613   5.470   0.839  11.306 -0.7067  0.2945  0.7705
28892SOL    HW191614   5.378   0.852  11.328 -0.5577  0.2256  1.4439
28892SOL    HW291615   5.518   0.895  11.366 -0.2210 -1.0664  1.7184
28893SOL     OW91616   2.178   1.328   5.652 -0.0489 -0.0063 -0.3130
28893SOL    HW191617   2.175   1.339   5.557 -0.7997 -0.0214 -0.2971
28893SOL    HW291618   2.129   1.403   5.687  1.3143  0.7108  0.1306
28894SOL     OW91619   4.033   0.693  10.290 -0.1794  0.3182  0.4253
28894SOL    HW191620   3.958   0.680  10.232  0.1161 -0.9999  0.3010
28894SOL    HW291621   4.045   0.788  10.292  0.6942  0.4178 -2.8580
28895SOL     OW91622   1.976   9.401  11.420 -0.1391 -0.2113  0.5945
28895SOL    HW191623   1.983   9.461  11.494 -1.3392  0.9729 -0.2251
28895SOL    HW291624   1.894   9.353  11.435 -2.0307  2.1535 -1.4054
28896SOL     OW91625   9.894   8.516   4.709 -0.0753 -0.3216  0.1650
28896SOL    HW191626   9.916   8.605   4.737 -0.5469 -0.6115  1.5362
28896SOL    HW291627   9.979   8.476   4.690  0.1024  0.6224 -1.1994
28897SOL     OW91628   4.413   3.922   5.109 -0.1721  0.0610  0.0926
28897SOL    HW191629   4.328   3.962   5.127 -0.4261 -0.3257 -0.2235
28897SOL    HW291630   4.464   3.937   5.188  0.3352  2.5214 -0.6034
28898SOL     OW91631   1.933   0.434  10.086 -0.2624 -0.0442 -0.2689
28898SOL    HW191632   1.851   0.385  10.095 -0.4988  0.4812  0.5150
28898SOL    HW291633   1.988   0.402  10.158 -0.1905  0.3957 -0.1254
28899SOL     OW91634   1.616   4.244   1.192 -0.4980  0.1479  0.0190
28899SOL    HW191635   1.542   4.241   1.253 -0.1334  0.6775  0.4976
28899SOL    HW291636   1.576   4.260   1.107 -1.0405 -0.9544  0.0563
28900SOL     OW91637   9.993   9.772   0.407  0.6142  0.1152  0.1107
28900SOL    HW191638  10.021   9.854   0.448  1.2960 -0.2340  0.3600
28900SOL    HW291639   9.905   9.756   0.442  1.0560 -0.0075  1.2026
28901SOL     OW91640   6.417   4.009   3.277  0.4306  0.2683 -0.0113
28901SOL    HW191641   6.385   4.051   3.198 -0.0126  0.0502  0.0453
28901SOL    HW291642   6.349   3.945   3.299  1.4198 -0.9958 -0.5040
28902SOL     OW91643   2.558   4.827  10.207 -0.7115 -0.4335  0.0673
28902SOL    HW191644   2.605   4.751  10.175 -1.3480 -0.0322 -2.0084
28902SOL    HW291645   2.553   4.815  10.301  1.1025 -1.8404  0.0343
28903SOL     OW91646   2.317   2.016   7.349  0.3140 -0.4006  0.0943
28903SOL    HW191647   2.290   1.925   7.356  1.0773 -0.7984 -1.5543
28903SOL    HW291648   2.410   2.015   7.368  0.0747  0.2718  1.4026
28904SOL     OW91649   8.576   2.242   2.491 -0.6386 -0.4027 -0.1071
28904SOL    HW191650   8.668   2.224   2.512 -0.9824  0.3893  2.3526
28904SOL    HW291651   8.547   2.302   2.559 -2.6398  0.4501 -1.6109
28905SOL     OW91652   8.950   0.401   1.208  0.0273 -0.4305 -0.0279
28905SOL    HW191653   8.917   0.312   1.194 -0.0652 -0.2591 -1.0381
28905SOL    HW291654   9.043   0.390   1.228 -0.2026 -0.8077  0.8279
28906SOL     OW91655   8.513   3.854   4.582  0.1378 -0.8484 -0.2387
28906SOL    HW191656   8.492   3.787   4.647 -0.5290 -0.5818 -0.1620
28906SOL    HW291657   8.435   3.910   4.581  1.4062  1.0549  1.0917
28907SOL     OW91658   1.432   5.750   7.303 -0.1302  0.0966 -0.2085
28907SOL    HW191659   1.375   5.825   7.319  0.3876 -0.0253  2.6795
28907SOL    HW291660   1.375   5.674   7.315 -0.0232 -0.0074 -0.3511
28908SOL     OW91661  10.082   8.143   6.851  0.4998  0.0183  0.2426
28908SOL    HW191662  10.079   8.157   6.945  0.3108 -0.1161  0.2585
28908SOL    HW291663   9.992   8.159   6.821  0.3062 -0.9939  0.2436
28909SOL     OW91664   8.754   4.415   5.434  0.2861  0.4311 -0.0380
28909SOL    HW191665   8.754   4.511   5.441  2.2994  0.5203 -0.7613
28909SOL    HW291666   8.758   4.398   5.340  0.3707 -0.3584  0.1032
28910SOL     OW91667   1.037   1.424   7.683 -0.3894 -0.0190  0.2822
28910SOL    HW191668   0.951   1.381   7.686 -0.2810 -0.3112 -0.5225
28910SOL    HW291669   1.097   1.353   7.660 -0.2341  0.5907 -1.2972
28911SOL     OW91670   2.749   5.710   3.238 -0.0788 -0.2960  0.5220
28911SOL    HW191671   2.697   5.787   3.258  1.0641  0.6611 -0.0415
28911SOL    HW291672   2.813   5.741   3.174 -0.4421 -2.0352 -0.7586
28912SOL     OW91673   8.180   8.959   5.899  0.1349 -0.7003  0.3581
28912SOL    HW191674   8.273   8.981   5.908 -0.0376  0.5166 -0.6292
28912SOL    HW291675   8.167   8.886   5.960  2.1320 -2.1174 -0.7914
28913SOL     OW91676   0.242   3.133   7.311  0.8015 -0.5389 -0.2605
28913SOL    HW191677   0.217   3.208   7.364  0.5162  0.1291 -1.3032
28913SOL    HW291678   0.187   3.062   7.342 -0.2905  0.1690 -0.5210
28914SOL     OW91679  11.083   9.190   5.482  0.0076  0.6097  1.0858
28914SOL    HW191680  11.136   9.145   5.416  0.0858 -1.0174  2.1738
28914SOL    HW291681  11.107   9.282   5.474  0.4429  0.3801 -0.7281
28915SOL     OW91682  11.217  10.909   7.495 -0.2880 -0.5780 -0.2410
28915SOL    HW191683  11.299  10.890   7.540 -0.1706 -2.2574 -1.1080
28915SOL    HW291684  11.232  10.993   7.452  1.1373 -1.0711 -0.7618
28916SOL     OW91685   9.835   6.526   6.202 -0.5854  0.6272  0.4809
28916SOL    HW191686   9.830   6.440   6.161 -0.5628  1.5001 -1.4448
28916SOL    HW291687   9.910   6.520   6.261 -1.4124 -1.0667  1.4526
28917SOL     OW91688  11.606   4.442  10.812  0.5054 -0.8855  0.8755
28917SOL    HW191689  11.680   4.396  10.773  0.4143 -0.1052 -0.2749
28917SOL    HW291690  11.541   4.446  10.742  0.7354  1.4551  0.7134
28918SOL     OW91691   2.627   2.559   6.243 -0.0478 -0.3424  0.0614
28918SOL    HW191692   2.706   2.532   6.289 -0.4782  0.3348  1.2453
28918SOL    HW291693   2.651   2.641   6.200 -0.3759  0.4165  1.2825
28919SOL     OW91694  10.037   0.608  11.655  0.2167 -0.0914 -0.4867
28919SOL    HW191695  10.026   0.620  11.749  1.5497 -1.1206 -0.1743
28919SOL    HW291696   9.947   0.598  11.622 -0.1805 -1.8828  0.9870
28920SOL     OW91697   8.654   9.886   4.710  0.5318  0.0215 -0.0801
28920SOL    HW191698   8.585   9.916   4.769  0.4830 -1.0869  0.4560
28920SOL    HW291699   8.725   9.858   4.768  0.8015 -0.3210 -0.5649
28921SOL     OW91700   4.805   7.454   5.118  0.3162 -0.4163 -0.4125
28921SOL    HW191701   4.765   7.510   5.053  0.9440 -0.6434 -1.0104
28921SOL    HW291702   4.893   7.436   5.084  1.5422  1.3320  1.5763
28922SOL     OW91703   2.434   7.905   2.996 -0.2216  0.4564  0.2089
28922SOL    HW191704   2.380   7.884   3.072 -0.2499 -0.5748 -0.0860
28922SOL    HW291705   2.523   7.885   3.024 -0.0654  1.4432  0.4428
28923SOL     OW91706   7.654   4.420   6.517 -0.2336  0.0277 -0.2681
28923SOL    HW191707   7.670   4.432   6.611  0.8593 -0.6356 -0.3451
28923SOL    HW291708   7.649   4.508   6.482 -1.1172  0.2898  0.4847
28924SOL     OW91709   1.247   3.007   1.478  0.2145  0.4084 -0.5981
28924SOL    HW191710   1.190   3.039   1.548  0.6999  0.8166 -0.3825
28924SOL    HW291711   1.280   3.086   1.436  0.6331  0.1798 -0.7085
28925SOL     OW91712   0.604   2.911   1.299  0.1820 -0.3952  0.1035
28925SOL    HW191713   0.693   2.876   1.298 -0.4203 -1.9866 -0.8960
28925SOL    HW291714   0.606   2.980   1.365  1.9640 -0.9022  0.6232
28926SOL     OW91715  10.266   8.697   5.680 -0.0042 -0.1866 -0.3127
28926SOL    HW191716  10.258   8.605   5.706  1.3512 -0.6142 -1.3156
28926SOL    HW291717  10.344   8.728   5.724 -1.0322  0.8340  0.8706
28927SOL     OW91718   3.789   4.789   8.463  0.4440 -0.4291 -0.2364
28927SOL    HW191719   3.780   4.773   8.557 -0.8818  0.2414 -0.2380
28927SOL    HW291720   3.756   4.709   8.423  0.1719 -0.3649 -0.1421
28928SOL     OW91721   6.351   3.872   9.821  0.1899 -0.4475 -0.2831
28928SOL    HW191722   6.320   3.895   9.908  0.2503 -1.8216  0.1331
28928SOL    HW291723   6.381   3.954   9.783 -1.0324  0.3826  0.4900
28929SOL     OW91724   0.605   3.738   9.243 -0.0244  0.4850  0.4352
28929SOL    HW191725   0.682   3.734   9.186 -0.9180  0.5567 -0.8336
28929SOL    HW291726   0.559   3.656   9.228 -0.5517  0.7369  0.6348
28930SOL     OW91727   0.898   6.277   0.658 -0.0512  0.2584  0.6575
28930SOL    HW191728   0.843   6.267   0.580  0.4048 -2.5853  0.6141
28930SOL    HW291729   0.980   6.313   0.625 -1.2826  3.3403  0.5504
28931SOL     OW91730   3.977   1.190   2.785  0.3569 -0.4054  0.4867
28931SOL    HW191731   4.004   1.271   2.742 -2.0499  0.0868 -0.2592
28931SOL    HW291732   3.990   1.206   2.878  0.4538  0.6088  0.3060
28932SOL     OW91733   4.115   0.664   2.046 -0.7254 -0.4799 -0.5442
28932SOL    HW191734   4.098   0.598   1.979 -1.4547 -1.3690  0.4685
28932SOL    HW291735   4.165   0.617   2.113 -1.7553 -0.1877  0.4620
28933SOL     OW91736   3.276   4.866   6.956  0.1904  0.0115  0.2300
28933SOL    HW191737   3.252   4.939   7.013 -0.1672 -0.0356  0.1480
28933SOL    HW291738   3.246   4.788   7.003  1.2009 -0.1357  0.6331
28934SOL     OW91739   2.205   1.153  11.268 -0.0746  0.4083  0.3113
28934SOL    HW191740   2.228   1.221  11.331 -2.3664  1.9750 -0.4150
28934SOL    HW291741   2.138   1.193  11.213 -0.6241 -2.0593 -0.9478
28935SOL     OW91742   4.734   8.457   9.093  0.8885 -0.5570  0.1499
28935SOL    HW191743   4.743   8.378   9.040  0.5879 -1.1480  0.9574
28935SOL    HW291744   4.806   8.452   9.156  0.4703 -0.5394  0.6355
28936SOL     OW91745   7.412   6.136  10.160 -0.1763  0.0975 -0.3540
28936SOL    HW191746   7.332   6.092  10.188 -1.0505  0.0073 -2.7415
28936SOL    HW291747   7.381   6.216  10.116  1.1097  0.5934 -0.4190
28937SOL     OW91748   0.642   6.836   2.223  0.0184 -0.0753 -0.2740
28937SOL    HW191749   0.578   6.769   2.198  0.0920 -0.1690 -0.2104
28937SOL    HW291750   0.620   6.857   2.314 -0.0912  0.0860 -0.3367
28938SOL     OW91751   5.385   5.648   5.271  0.6272  0.0195  0.0541
28938SOL    HW191752   5.312   5.632   5.211  0.3648 -0.3461  0.4613
28938SOL    HW291753   5.377   5.740   5.295 -0.3641 -0.2706  0.9341
28939SOL     OW91754   6.681  10.209   6.105 -0.0691 -0.5159  0.0705
28939SOL    HW191755   6.672  10.259   6.024 -1.4204  0.3055  0.7015
28939SOL    HW291756   6.620  10.249   6.166  0.6695 -1.3286  1.4155
28940SOL     OW91757  11.667   1.714   2.616  0.3868 -0.1737 -0.0336
28940SOL    HW191758  11.648   1.795   2.568  0.3090  1.1718  2.1431
28940SOL    HW291759  11.760   1.722   2.639  0.4637 -0.8719 -0.0862
28941SOL     OW91760   9.028   5.304   8.770  0.2323 -0.3240 -0.4312
28941SOL    HW191761   8.970   5.379   8.761 -0.1180 -0.0488  2.8911
28941SOL    HW291762   9.104   5.338   8.817  0.1833 -1.9470  0.9127
28942SOL     OW91763   1.322   6.258   8.769  0.3748  0.1907 -0.2596
28942SOL    HW191764   1.250   6.195   8.773 -0.1437  0.7825 -0.0240
28942SOL    HW291765   1.301   6.313   8.694 -0.0733  1.1145  0.5144
28943SOL     OW91766   1.285   9.223   0.847  0.4805 -0.0412  0.5074
28943SOL    HW191767   1.250   9.140   0.880  1.3596 -0.7986 -0.4108
28943SOL    HW291768   1.208   9.271   0.818 -0.1054 -0.2366  1.6783
28944SOL     OW91769   2.911   3.931   8.502 -0.8034  0.0118 -0.3044
28944SOL    HW191770   2.835   3.985   8.482 -1.5855 -0.8182  0.3770
28944SOL    HW291771   2.905   3.857   8.442  0.0329  0.4484 -0.9438
28945SOL     OW91772   6.669   1.770  10.724 -0.3327 -0.7254  0.2748
28945SOL    HW191773   6.750   1.802  10.684 -0.3742 -0.9262  0.0242
28945SOL    HW291774   6.600   1.817  10.677 -0.3152  1.0391  1.9037
28946SOL     OW91775   6.549   7.700   2.687  0.3839  0.2394  0.0266
28946SOL    HW191776   6.586   7.762   2.625 -0.0406 -0.4867 -0.9801
28946SOL    HW291777   6.597   7.716   2.769  0.8228  1.3338 -0.4237
28947SOL     OW91778   6.816   0.768   1.070  0.6179  0.3884 -0.4208
28947SOL    HW191779   6.753   0.839   1.069 -2.8679 -2.3071  2.1145
28947SOL    HW291780   6.775   0.699   1.018  2.9171 -0.5351 -1.1259
28948SOL     OW91781   8.589   5.725   6.236 -0.6784 -0.2274 -0.5220
28948SOL    HW191782   8.567   5.804   6.286 -1.3790 -1.1617  0.6908
28948SOL    HW291783   8.505   5.690   6.208 -0.4089 -0.8733 -0.5338
28949SOL     OW91784   1.766   3.385   9.196 -0.2926 -0.3038 -0.0450
28949SOL    HW191785   1.844   3.350   9.239 -0.4282 -1.4723 -0.7188
28949SOL    HW291786   1.740   3.459   9.251  0.6405 -0.5787  0.8030
28950SOL     OW91787   0.765   5.961   3.751 -0.6053  0.5813 -0.2291
28950SOL    HW191788   0.791   5.966   3.659  4.0705  0.0222  0.8032
28950SOL    HW291789   0.745   5.869   3.765  4.1580 -0.6141  0.2671
28951SOL     OW91790  11.091   3.898   1.976  0.4291  0.2122  0.3725
28951SOL    HW191791  11.074   3.822   2.033  1.5666 -0.5868 -0.3212
28951SOL    HW291792  11.183   3.890   1.952  0.2546  1.1597 -0.6862
28952SOL     OW91793   1.239   8.491   6.036 -0.5469  0.1712  0.1917
28952SOL    HW191794   1.226   8.414   6.091  0.0261  0.2473  0.4416
28952SOL    HW291795   1.334   8.501   6.030 -0.5302 -0.7457 -2.0861
28953SOL     OW91796   7.732   3.496   9.359  0.0232  0.5520 -0.5056
28953SOL    HW191797   7.739   3.434   9.431  1.8948  0.2883 -0.8516
28953SOL    HW291798   7.790   3.461   9.292  1.0542  2.5847 -0.7467
28954SOL     OW91799   1.523   4.789   9.346  0.4750  0.1987  0.2714
28954SOL    HW191800   1.592   4.856   9.337 -1.5396  2.4505  0.6011
28954SOL    HW291801   1.562   4.710   9.310  3.1920  1.3848  0.3379
28955SOL     OW91802   5.803   5.582   1.525  0.3080 -0.3817 -0.9171
28955SOL    HW191803   5.737   5.561   1.460 -0.1514  1.0380 -0.9393
28955SOL    HW291804   5.886   5.569   1.479 -0.0041  0.2915 -1.7094
28956SOL     OW91805   2.240   6.639   6.258 -0.5713  0.4466 -0.2594
28956SOL    HW191806   2.229   6.664   6.349 -0.1959 -1.2076  0.2711
28956SOL    HW291807   2.331   6.609   6.251 -1.1993 -1.5636 -0.5882
28957SOL     OW91808   6.646  11.314   6.741  0.2863 -0.2642  0.1569
28957SOL    HW191809   6.627  11.406   6.755 -0.4621 -0.1897 -1.1764
28957SOL    HW291810   6.560  11.273   6.729  0.6873 -0.6955 -1.6045
28958SOL     OW91811   1.592  10.256   6.440 -0.1841  0.5775 -0.3010
28958SOL    HW191812   1.668  10.261   6.382 -0.2301 -0.6862 -0.4870
28958SOL    HW291813   1.597  10.337   6.492  1.1265  0.6490 -0.5027
28959SOL     OW91814   7.190   6.215   5.648  0.3553 -0.0985  0.0306
28959SOL    HW191815   7.128   6.188   5.716  0.0183  0.2275 -0.1415
28959SOL    HW291816   7.194   6.140   5.588 -0.6871  0.2691 -0.5244
28960SOL     OW91817   8.883   2.441   5.336 -0.0251 -0.1126  0.2363
28960SOL    HW191818   8.964   2.430   5.285  0.7347 -0.9522  1.5375
28960SOL    HW291819   8.854   2.351   5.353  0.4786  0.0598  2.3308
28961SOL     OW91820   5.767   7.551   9.897 -0.0577 -0.4496 -0.2382
28961SOL    HW191821   5.846   7.547   9.844  0.4464 -1.0672  0.5228
28961SOL    HW291822   5.742   7.643   9.897 -0.4110 -0.5215 -1.9994
28962SOL     OW91823  11.531   4.419   9.564 -0.6455  0.0974  0.4032
28962SOL    HW191824  11.496   4.366   9.635 -1.5196 -1.5852 -1.1838
28962SOL    HW291825  11.561   4.499   9.606 -2.1021 -0.3762  2.5022
28963SOL     OW91826   1.935   4.371   0.978 -0.2979 -0.2564 -0.2904
28963SOL    HW191827   1.965   4.280   0.973  1.0402  0.1778 -0.7826
28963SOL    HW291828   1.884   4.384   0.898 -0.4654 -0.5665 -0.2352
28964SOL     OW91829   3.727  10.112   7.488 -0.5654 -0.5544 -0.0930
28964SOL    HW191830   3.649  10.058   7.476 -1.0629  0.2818 -0.7123
28964SOL    HW291831   3.795  10.068   7.438 -0.7118 -1.1405  0.2219
28965SOL     OW91832  10.379   1.455   3.119 -0.1099  0.3413 -0.0053
28965SOL    HW191833  10.403   1.443   3.027  0.5132 -0.7240  0.2756
28965SOL    HW291834  10.417   1.540   3.142  1.5192 -0.2894 -0.1949
28966SOL     OW91835  10.738   7.388   5.488 -0.2471  0.0454 -0.0476
28966SOL    HW191836  10.790   7.388   5.569  1.8414  1.5929 -1.2695
28966SOL    HW291837  10.739   7.296   5.460  0.0775 -0.3017  1.0302
28967SOL     OW91838   2.576   3.084   9.608 -0.1762 -0.0561  0.2214
28967SOL    HW191839   2.669   3.062   9.601 -0.1999 -0.0859  0.0096
28967SOL    HW291840   2.533   3.000   9.627 -0.4845 -0.5427 -2.3569
28968SOL     OW91841   0.991   1.590   6.174  0.0186 -0.2202  0.0997
28968SOL    HW191842   0.924   1.610   6.240 -1.9897  1.4501 -2.2449
28968SOL    HW291843   1.018   1.676   6.141  1.5109 -0.9842 -0.7348
28969SOL     OW91844   7.413   5.497   4.263 -0.8040 -0.3891 -0.3856
28969SOL    HW191845   7.472   5.522   4.334  0.1916 -1.1442 -0.9313
28969SOL    HW291846   7.325   5.502   4.301 -0.3513  0.2106  0.5917
28970SOL     OW91847   2.048   3.770   2.320 -0.3964  0.0287  0.2489
28970SOL    HW191848   2.012   3.731   2.399  0.8140 -0.2237  0.6914
28970SOL    HW291849   2.072   3.859   2.346  0.0836 -0.0824  0.2069
28971SOL     OW91850   8.226   9.915   8.565  0.1549 -0.3024 -0.2802
28971SOL    HW191851   8.201   9.840   8.618 -0.4649  0.4542  0.5380
28971SOL    HW291852   8.155   9.924   8.501  0.1010 -0.2674 -0.2158
28972SOL     OW91853   3.004  10.306   8.271 -0.5044  0.5227 -0.1535
28972SOL    HW191854   2.916  10.292   8.305 -0.0555 -2.8137 -0.0158
28972SOL    HW291855   3.061  10.299   8.348  0.0757 -0.7855 -0.6736
28973SOL     OW91856  10.927   9.211   1.814 -0.4944 -0.5200 -0.3948
28973SOL    HW191857  10.944   9.283   1.875 -0.7162 -0.5669 -0.2743
28973SOL    HW291858  10.998   9.216   1.750  0.7602 -1.5409  0.8459
28974SOL     OW91859   0.841   3.252   5.944  0.4983 -0.1262  0.6080
28974SOL    HW191860   0.768   3.199   5.974 -0.4300  0.1916 -0.9613
28974SOL    HW291861   0.867   3.305   6.020 -1.1444  0.0170  1.0904
28975SOL     OW91862   1.331   6.477   1.468  0.3811 -0.3732 -0.1814
28975SOL    HW191863   1.256   6.418   1.480  0.2056  0.0860  1.0399
28975SOL    HW291864   1.304   6.534   1.396 -0.2207 -0.5712 -0.1229
28976SOL     OW91865   6.645   8.209  10.013 -0.3255 -0.3333  0.1789
28976SOL    HW191866   6.559   8.174   9.993 -1.9282  2.2902  1.8839
28976SOL    HW291867   6.649   8.293   9.967  1.6628 -0.7147 -0.4651
28977SOL     OW91868   9.866   8.340   7.448  0.1646 -0.4419  0.2600
28977SOL    HW191869   9.863   8.244   7.450 -1.1081 -0.4136  1.3480
28977SOL    HW291870   9.908   8.364   7.530 -0.3168 -0.0731  0.4052
28978SOL     OW91871  10.025   7.355   6.786 -0.4604  0.1447 -0.2308
28978SOL    HW191872  10.115   7.374   6.810 -0.2121 -1.4960  0.2622
28978SOL    HW291873  10.001   7.425   6.726  0.8543  1.0751  0.2811
28979SOL     OW91874   5.452   9.453   4.734 -0.3284  0.0895  0.6772
28979SOL    HW191875   5.533   9.489   4.770  0.4200 -1.7529  0.9488
28979SOL    HW291876   5.481   9.384   4.675 -1.7050 -0.0554  0.1337
28980SOL     OW91877   0.525   2.049  10.895  1.0841  0.2887 -0.1130
28980SOL    HW191878   0.580   2.125  10.918 -0.7981  1.4655  0.7080
28980SOL    HW291879   0.568   2.012  10.818  2.4065  1.8351 -0.1870
28981SOL     OW91880   3.872   7.455   2.616 -0.4451  0.0082 -0.4403
28981SOL    HW191881   3.847   7.381   2.561 -1.8516 -0.7109  1.0716
28981SOL    HW291882   3.958   7.483   2.582 -0.4273 -1.5442 -1.7840
28982SOL     OW91883   1.323   7.741   3.958 -0.0583 -0.2631 -1.3250
28982SOL    HW191884   1.227   7.741   3.951 -0.2687 -0.0194  0.8289
28982SOL    HW291885   1.343   7.821   4.007  1.2675 -0.2481 -1.8649
28983SOL     OW91886   0.673   9.881   6.395  0.7092  0.2578 -0.2140
28983SOL    HW191887   0.728   9.931   6.455 -0.2673 -0.0285  0.9560
28983SOL    HW291888   0.604   9.942   6.369  0.2709 -0.0713  0.1620
28984SOL     OW91889  11.420   8.770  10.566  0.1891 -0.7927 -0.0339
28984SOL    HW191890  11.481   8.726  10.625 -0.5095 -0.2542  1.1159
28984SOL    HW291891  11.361   8.819  10.623 -1.5342 -1.5253 -1.0686
28985SOL     OW91892   5.264   4.642   8.494 -0.2736 -0.3291  0.2831
28985SOL    HW191893   5.302   4.582   8.558 -1.3161 -0.6342  0.6368
28985SOL    HW291894   5.323   4.638   8.419  1.7670  1.0671  1.6842
28986SOL     OW91895   2.202  10.016   3.041 -0.6030 -0.4332 -0.1655
28986SOL    HW191896   2.175  10.108   3.038  1.4910  0.1964 -1.0807
28986SOL    HW291897   2.296  10.018   3.027 -0.4772 -2.7298  0.0152
28987SOL     OW91898   6.772   3.147   7.009 -0.0016 -0.3643 -0.1367
28987SOL    HW191899   6.731   3.094   6.940  0.6008 -0.5779 -0.3409
28987SOL    HW291900   6.737   3.235   6.995 -0.9725 -0.6828  0.1691
28988SOL     OW91901   0.498   6.825   2.465  0.2115  0.7796  0.6640
28988SOL    HW191902   0.577   6.799   2.512  0.5863 -0.3953 -0.5382
28988SOL    HW291903   0.516   6.914   2.435  0.6311  0.9240  1.3344
28989SOL     OW91904   5.635   9.438   2.793  0.4768 -0.0661 -1.2406
28989SOL    HW191905   5.616   9.374   2.724  1.2730  0.0645 -1.5972
28989SOL    HW291906   5.630   9.523   2.750 -2.7769  0.3487 -0.2934
28990SOL     OW91907   1.711  11.593   5.837  0.2444 -0.7653 -0.5300
28990SOL    HW191908   1.624  11.597   5.877 -0.3487 -0.4947 -1.8059
28990SOL    HW291909   1.765  11.651   5.892 -0.9170  0.8208 -0.9780
28991SOL     OW91910   4.521   6.336   2.974 -0.0991 -0.2307 -0.0237
28991SOL    HW191911   4.614   6.315   2.972 -0.1906 -0.6185 -0.2043
28991SOL    HW291912   4.517   6.431   2.958  0.2215 -0.3214 -0.6420
28992SOL     OW91913   4.350   2.379   2.841 -0.2475 -0.3321 -0.1262
28992SOL    HW191914   4.296   2.408   2.768  1.8226  1.5309 -1.0171
28992SOL    HW291915   4.363   2.458   2.894  2.2113 -0.4681 -0.4087
28993SOL     OW91916   7.347   2.125   5.672  0.3084 -0.2490  0.1668
28993SOL    HW191917   7.291   2.185   5.623  1.8774 -0.7147 -2.3962
28993SOL    HW291918   7.332   2.040   5.631 -0.5395 -1.3055  2.5498
28994SOL     OW91919   5.299   1.069   5.782  0.2969 -0.1209  0.5172
28994SOL    HW191920   5.320   1.075   5.688 -0.1654 -0.5648  0.3849
28994SOL    HW291921   5.306   0.976   5.802 -1.9515 -0.3813  0.3664
28995SOL     OW91922   2.625   4.078   6.048  0.2089  0.4866 -0.2028
28995SOL    HW191923   2.534   4.090   6.022  0.0753  2.0041  0.8630
28995SOL    HW291924   2.666   4.163   6.034  1.1044  0.2309  0.7018
28996SOL     OW91925   7.465   3.289  10.376 -0.4396  0.2880 -0.0081
28996SOL    HW191926   7.519   3.267  10.452  0.5629 -0.6961 -0.9811
28996SOL    HW291927   7.526   3.330  10.314 -0.6490 -1.2601 -1.3131
28997SOL     OW91928   1.091   3.660   0.613  0.1817  0.0512 -0.1708
28997SOL    HW191929   1.154   3.686   0.680 -0.2143 -2.3032  1.2174
28997SOL    HW291930   1.029   3.734   0.609 -0.4597 -0.1667  2.9860
28998SOL     OW91931   5.354  11.537   4.472  0.0225  0.4757  0.3402
28998SOL    HW191932   5.312  11.603   4.417  0.2826 -1.8552 -2.9458
28998SOL    HW291933   5.444  11.566   4.480 -0.4916  1.8674  1.3005
28999SOL     OW91934   6.166   0.214   8.505  0.5107 -0.4918  0.0191
28999SOL    HW191935   6.212   0.153   8.563 -1.1798 -1.6563  0.2172
28999SOL    HW291936   6.092   0.163   8.471  0.3908  0.7487 -1.6991
29000SOL     OW91937   5.855  11.228   5.551 -0.2850 -0.5408 -0.3673
29000SOL    HW191938   5.782  11.217   5.491 -1.1067 -0.1591  0.5393
29000SOL    HW291939   5.933  11.210   5.498 -0.6966  2.8794 -2.4447
29001SOL     OW91940   3.056   8.411   4.415  0.0356  0.3370  0.1804
29001SOL    HW191941   3.055   8.332   4.469  2.7420 -0.8377 -1.3105
29001SOL    HW291942   2.990   8.394   4.347  0.5161 -0.6150 -0.0637
29002SOL     OW91943   8.146   4.640   6.032  0.5883 -0.8957 -0.2179
29002SOL    HW191944   8.209   4.622   6.102  0.0879 -0.9098  0.2411
29002SOL    HW291945   8.165   4.575   5.965  1.1973 -0.7657 -0.1703
29003SOL     OW91946   6.694  11.238   8.072 -0.3458  0.0449  0.2963
29003SOL    HW191947   6.660  11.236   7.983 -0.9490 -0.6902  0.5214
29003SOL    HW291948   6.626  11.194   8.124 -1.0711  2.4049  1.4969
29004SOL     OW91949   4.403   8.524   8.000  0.3632 -0.0535 -0.2227
29004SOL    HW191950   4.481   8.580   8.006  0.7644 -0.7338  1.4272
29004SOL    HW291951   4.406   8.470   8.079 -2.0229  0.2180  0.1514
29005SOL     OW91952   9.195   1.198   1.105 -0.9302  0.3558  0.0340
29005SOL    HW191953   9.167   1.278   1.060 -1.8976 -1.5831 -3.1265
29005SOL    HW291954   9.269   1.166   1.053 -0.0485 -0.4478  1.7059
29006SOL     OW91955  10.213   9.479  10.867  0.0183  0.5106  0.2495
29006SOL    HW191956  10.243   9.553  10.814 -0.9505 -0.3460 -1.5912
29006SOL    HW291957  10.279   9.471  10.936  0.1112  3.0996  0.5513
29007SOL     OW91958   4.771   1.424  10.253 -0.2669 -0.5951 -0.0983
29007SOL    HW191959   4.694   1.457  10.207 -1.4749 -1.9644  0.8598
29007SOL    HW291960   4.765   1.329  10.245  1.1172 -0.7449  0.3450
29008SOL     OW91961   2.867   7.790   9.548  0.1062  0.2920 -0.0296
29008SOL    HW191962   2.774   7.770   9.546  0.0960  0.3600 -1.1130
29008SOL    HW291963   2.871   7.882   9.575  0.0945 -0.6410  3.7304
29009SOL     OW91964   8.535   3.533   2.751  0.1239  0.3744 -0.6738
29009SOL    HW191965   8.629   3.549   2.750  0.2405 -0.2844 -1.8153
29009SOL    HW291966   8.525   3.453   2.803  0.3103 -0.1378 -1.4079
29010SOL     OW91967   0.586   0.438   4.631 -0.0808 -0.3297 -0.3165
29010SOL    HW191968   0.666   0.468   4.589  0.2486 -0.8577 -0.0712
29010SOL    HW291969   0.539   0.392   4.561  0.3738 -1.0329 -0.1617
29011SOL     OW91970   8.537   5.629   4.766  0.5018  0.1082 -0.1631
29011SOL    HW191971   8.477   5.570   4.721  0.5320  0.1650 -0.2765
29011SOL    HW291972   8.501   5.717   4.751  0.6964  0.1545 -0.3592
29012SOL     OW91973  11.448   4.824  11.471  0.2638 -0.4857  0.1833
29012SOL    HW191974  11.372   4.772  11.495  0.5551 -1.2361 -0.4660
29012SOL    HW291975  11.420   4.875  11.395 -0.0300  0.3450  0.8370
29013SOL     OW91976   7.951   0.467  10.553  0.0881 -0.3466 -0.5990
29013SOL    HW191977   8.001   0.443  10.476  1.1691  1.3327 -0.4708
29013SOL    HW291978   7.962   0.561  10.561 -2.3583 -0.0360 -0.0107
29014SOL     OW91979   0.109   7.003   6.430  0.1164  0.0228  0.1962
29014SOL    HW191980   0.191   6.986   6.477  0.6768  3.1348  0.5748
29014SOL    HW291981   0.100   7.098   6.433 -2.4928 -0.0840 -1.6311
29015SOL     OW91982  10.970   8.635  10.246  0.0111  0.2401  0.0681
29015SOL    HW191983  10.909   8.690  10.197  0.9281  0.9943 -0.2598
29015SOL    HW291984  11.055   8.653  10.206  0.3958 -1.0889  0.2576
29016SOL     OW91985   5.596   8.529  10.749  0.0757  0.5486 -0.0748
29016SOL    HW191986   5.645   8.607  10.722 -0.6305  0.4048 -1.9084
29016SOL    HW291987   5.639   8.457  10.703 -0.4033  0.1047  0.1693
29017SOL     OW91988  10.366  10.962   6.212 -0.2265  0.0240  0.1807
29017SOL    HW191989  10.415  10.942   6.133 -0.7949 -0.5469 -0.0384
29017SOL    HW291990  10.298  11.023   6.183 -1.3034 -1.2489 -0.0763
29018SOL     OW91991   9.868   0.267   0.114 -0.1869 -0.1806  0.1732
29018SOL    HW191992   9.892   0.220   0.194  0.4124  0.5843  0.4648
29018SOL    HW291993   9.773   0.263   0.111 -0.1796 -0.8072  0.5570
29019SOL     OW91994   0.157   6.949   7.417  0.6680  0.3887 -0.5215
29019SOL    HW191995   0.245   6.959   7.380  0.6334 -0.2648 -0.7847
29019SOL    HW291996   0.100   6.994   7.355  0.8977  1.5082  0.0554
29020SOL     OW91997   9.757   2.678   3.368 -0.1062  0.2648  0.4602
29020SOL    HW191998   9.739   2.736   3.294 -2.0099  0.4904  1.0357
29020SOL    HW291999   9.750   2.735   3.445 -0.2249 -0.3563  0.9208
29021SOL     OW92000   4.142  10.217   8.842 -0.3454 -0.3906  0.0625
29021SOL    HW192001   4.198  10.159   8.790 -0.9373  0.6625 -1.8457
29021SOL    HW292002   4.074  10.246   8.781 -1.6351  0.1892  1.7017
29022SOL     OW92003   2.939   3.631   7.226  0.0980  0.5365  0.4927
29022SOL    HW192004   2.997   3.693   7.181  0.7915  0.4006  1.1888
29022SOL    HW292005   2.976   3.621   7.313 -1.7845  1.5672  1.4798
29023SOL     OW92006  10.899   8.744   2.432  0.0042  0.2089  0.9042
29023SOL    HW192007  10.897   8.651   2.409 -0.5723  0.0606  1.5259
29023SOL    HW292008  10.992   8.765   2.439  0.3153  0.5629 -2.6551
29024SOL     OW92009   9.984   9.934   5.797  0.0993  0.0812  0.0570
29024SOL    HW192010   9.892   9.953   5.778 -0.4034 -1.6720  0.5353
29024SOL    HW292011   9.983   9.847   5.836  1.3803  1.8070  4.7371
29025SOL     OW92012   7.752   3.750   5.935 -0.0177  0.0103 -0.4999
29025SOL    HW192013   7.819   3.744   6.003  1.9401 -1.0074 -2.4127
29025SOL    HW292014   7.691   3.680   5.955 -0.3044  0.6459  0.9985
29026SOL     OW92015   7.554   1.274   8.047 -0.8478  0.2094  0.5019
29026SOL    HW192016   7.487   1.207   8.052  0.1219 -0.7548  1.0197
29026SOL    HW292017   7.615   1.242   7.980  1.3487 -1.1027  2.9637
29027SOL     OW92018   8.533   1.119   2.451 -0.5826 -0.3860  0.5194
29027SOL    HW192019   8.598   1.060   2.415  0.0727  1.1937 -0.9923
29027SOL    HW292020   8.571   1.150   2.533 -0.7766 -1.7164  1.1412
29028SOL     OW92021   8.285   1.024   0.624 -0.2181  0.3899  0.7341
29028SOL    HW192022   8.350   1.093   0.637 -0.2278  0.9302 -1.5192
29028SOL    HW292023   8.284   0.975   0.706  1.9430  1.2553  1.3435
29029SOL     OW92024   3.014   0.522  11.215  0.0487  0.4500  0.4721
29029SOL    HW192025   3.071   0.511  11.290  0.6548 -0.3005 -0.0816
29029SOL    HW292026   3.072   0.543  11.142  0.2614 -4.1934 -1.0204
29030SOL     OW92027   7.559   3.799  10.923  0.2489 -0.8151  0.4085
29030SOL    HW192028   7.561   3.743  10.846  1.9956  0.9038 -0.8789
29030SOL    HW292029   7.649   3.831  10.932 -0.6835  1.9490  0.9175
29031SOL     OW92030   7.219   1.639   8.381 -0.1944  0.2876 -0.4614
29031SOL    HW192031   7.212   1.688   8.299  0.3940  0.9701 -0.1245
29031SOL    HW292032   7.169   1.691   8.444 -1.5555 -0.8023 -0.6178
29032SOL     OW92033   0.070   3.289   2.028 -0.5263  0.0400  0.3578
29032SOL    HW192034   0.070   3.221   1.961  1.0687  1.9993 -1.7937
29032SOL    HW292035   0.158   3.285   2.067 -0.6724  0.3962  0.7365
29033SOL     OW92036   8.599   9.917   8.192  0.1910  0.5718 -0.2849
29033SOL    HW192037   8.593  10.012   8.206  1.3528  0.5975  0.1626
29033SOL    HW292038   8.691   9.896   8.209 -0.1263 -0.6957 -0.0089
29034SOL     OW92039   4.949   9.379   0.982 -0.1964  0.1481 -0.5889
29034SOL    HW192040   5.031   9.366   1.030 -0.1074  0.5696 -0.6174
29034SOL    HW292041   4.884   9.327   1.030 -0.2766  1.1804  0.4685
29035SOL     OW92042   9.961   6.154   8.283 -0.3758 -0.2177  0.1754
29035SOL    HW192043   9.901   6.223   8.257  2.3025  1.8561 -1.0279
29035SOL    HW292044  10.025   6.198   8.340  0.6303 -2.0363  0.5349
29036SOL     OW92045   5.919   6.971   7.966 -0.1883 -0.4727 -0.1293
29036SOL    HW192046   5.991   6.932   8.016  0.0469 -2.3856 -1.8281
29036SOL    HW292047   5.919   7.063   7.991  2.4839 -0.5470  0.3793
29037SOL     OW92048   9.496  10.435   2.730  0.0892 -0.2259 -0.4555
29037SOL    HW192049   9.509  10.529   2.739  1.1359 -0.3478 -0.5477
29037SOL    HW292050   9.458  10.408   2.814  0.1808  0.2126 -0.2731
29038SOL     OW92051   1.582   5.955   7.639 -0.6147 -0.0640  0.6779
29038SOL    HW192052   1.667   5.948   7.682 -0.6030 -0.8032  0.5478
29038SOL    HW292053   1.560   6.047   7.645  0.1363  0.1129  0.8333
29039SOL     OW92054   6.137   4.053   9.506  0.3077 -0.0909  0.0064
29039SOL    HW192055   6.140   4.063   9.601 -1.1610  1.1240 -0.0538
29039SOL    HW292056   6.098   3.966   9.492  3.1086 -1.5501  0.4626
29040SOL     OW92057   2.306  10.283   2.378  0.4356 -0.3244  0.5395
29040SOL    HW192058   2.292  10.198   2.336 -0.1994  0.2934 -0.5427
29040SOL    HW292059   2.218  10.318   2.390  0.7458  0.8704 -0.5088
29041SOL     OW92060   4.232   4.288   5.019 -0.4172  0.3164  0.0544
29041SOL    HW192061   4.144   4.325   5.010 -0.2643  0.4479 -1.1112
29041SOL    HW292062   4.229   4.237   5.100 -1.1355  1.4803  0.7821
29042SOL     OW92063   1.841   3.014  11.133  0.5759 -0.1563 -0.0901
29042SOL    HW192064   1.890   3.036  11.054 -0.4067 -0.1641 -0.7136
29042SOL    HW292065   1.750   3.038  11.113 -0.0501 -2.0402  0.2687
29043SOL     OW92066   2.072   5.328   3.569 -0.0351 -0.8731 -0.1700
29043SOL    HW192067   2.062   5.327   3.474  2.1005 -2.6296 -0.4662
29043SOL    HW292068   2.120   5.409   3.588  1.4688 -1.5610 -0.8932
29044SOL     OW92069  10.264   1.913   0.143  0.5868  0.3868  0.7222
29044SOL    HW192070  10.266   1.836   0.087  0.1841  0.1607  1.0169
29044SOL    HW292071  10.289   1.880   0.229  1.5408  0.7918  0.6179
29045SOL     OW92072   7.203   1.536   1.174  0.3014 -0.3551 -0.4879
29045SOL    HW192073   7.238   1.479   1.106  2.0539  0.4259 -0.2916
29045SOL    HW292074   7.280   1.568   1.222 -0.6194  1.7708 -0.2771
29046SOL     OW92075   8.554   7.434   5.108  0.0729  0.2490 -0.2038
29046SOL    HW192076   8.571   7.392   5.024  0.1735 -1.4044  0.6198
29046SOL    HW292077   8.639   7.438   5.151 -0.1774 -0.0198  0.3198
29047SOL     OW92078   8.980   1.671   4.874 -0.2807  0.2268  0.1126
29047SOL    HW192079   8.943   1.746   4.922 -0.2107  0.2770  0.0876
29047SOL    HW292080   8.906   1.635   4.825 -0.6059 -0.4671  1.0767
29048SOL     OW92081   1.930  10.423   3.727  0.3209  0.0601  0.0804
29048SOL    HW192082   2.006  10.381   3.687  0.2540 -1.9660  1.8851
29048SOL    HW292083   1.936  10.515   3.699  3.0945 -0.1441 -0.3180
29049SOL     OW92084   8.884   6.950  10.882  0.5376  0.6296 -0.5969
29049SOL    HW192085   8.964   6.900  10.868  1.0047  1.1481  0.1687
29049SOL    HW292086   8.879   6.962  10.977 -0.3711  0.7276 -0.6455
29050SOL     OW92087  10.712  10.504   5.371 -0.7599  0.6100 -0.2273
29050SOL    HW192088  10.635  10.457   5.403 -0.3582 -0.1274 -0.3028
29050SOL    HW292089  10.694  10.521   5.279  1.2230 -4.2918 -1.8601
29051SOL     OW92090   5.931   0.664   8.878  0.4662  0.2622 -0.2752
29051SOL    HW192091   5.906   0.598   8.814  0.3874  0.5158 -0.5042
29051SOL    HW292092   5.888   0.745   8.849 -1.9091 -0.1981  1.5922
29052SOL     OW92093  11.183   4.668   5.713 -0.2338 -0.2134 -0.3148
29052SOL    HW192094  11.178   4.715   5.797  2.4415  0.0233 -0.2077
29052SOL    HW292095  11.193   4.737   5.648 -1.8506 -0.4267 -0.8468
29053SOL     OW92096   4.341   8.731   7.007 -0.7252 -0.2112 -0.7667
29053SOL    HW192097   4.401   8.663   6.976  0.8796  0.8536 -0.0974
29053SOL    HW292098   4.392   8.783   7.069 -1.0205  3.1590 -3.0597
29054SOL     OW92099   5.050   6.309   5.820  0.0102 -0.2693  0.0925
29054SOL    HW192100   5.119   6.299   5.886  0.7796  0.2683 -0.6141
29054SOL    HW292101   4.969   6.299   5.869  0.5818 -1.7728  0.8036
29055SOL     OW92102  10.589   8.762   7.063 -0.1915  0.2850 -0.5236
29055SOL    HW192103  10.660   8.774   7.127 -1.2367  1.1307  0.5201
29055SOL    HW292104  10.535   8.692   7.100  1.2868 -2.0926 -2.4721
29056SOL     OW92105   8.558   9.319   6.993  0.1450 -0.0118  0.2719
29056SOL    HW192106   8.536   9.278   6.910 -1.3102  1.3738 -0.0918
29056SOL    HW292107   8.584   9.408   6.970  0.5868  0.1204  1.2263
29057SOL     OW92108   4.704   3.247   2.601  0.1685  0.6341 -0.1673
29057SOL    HW192109   4.619   3.215   2.630 -0.2143  1.0377 -0.7908
29057SOL    HW292110   4.724   3.319   2.661 -0.0536  0.7022 -0.1729
29058SOL     OW92111   9.599   1.447   9.660  0.4010 -0.3818  0.2156
29058SOL    HW192112   9.673   1.439   9.600  0.2991  0.1764  0.0029
29058SOL    HW292113   9.522   1.434   9.604  0.2571  1.1865 -0.0175
29059SOL     OW92114   1.397   1.934   3.259  0.6849 -0.0692  0.0260
29059SOL    HW192115   1.443   2.003   3.305 -1.4646 -0.0944  2.4060
29059SOL    HW292116   1.395   1.860   3.320 -1.6314 -0.3671 -0.2987
29060SOL     OW92117   8.187  10.802   8.065  0.2677 -0.4970 -0.1864
29060SOL    HW192118   8.119  10.767   8.006 -0.3284 -0.6895  0.6044
29060SOL    HW292119   8.142  10.816   8.148  1.1608 -0.4618  0.3019
29061SOL     OW92120   5.627   4.885  11.293 -0.0525  0.2767  0.2484
29061SOL    HW192121   5.535   4.896  11.315  0.1188  1.5047  0.4263
29061SOL    HW292122   5.643   4.947  11.222  0.2068 -1.2613 -1.0743
29062SOL     OW92123   7.304   4.729  11.487  0.6298  0.4927 -0.8214
29062SOL    HW192124   7.354   4.683  11.420 -0.7159 -0.9364 -0.9155
29062SOL    HW292125   7.228   4.673  11.503 -1.8571  3.3134 -1.8807
29063SOL     OW92126   5.715   6.246   2.699 -0.3621  0.0468  0.0038
29063SOL    HW192127   5.689   6.269   2.788 -0.3996  1.4027 -0.3296
29063SOL    HW292128   5.726   6.331   2.655 -0.6543 -0.5950 -1.3616
29064SOL     OW92129  10.138   5.853  11.091 -0.1940  0.2185 -0.2381
29064SOL    HW192130  10.232   5.832  11.088 -0.2091  0.1946 -0.5221
29064SOL    HW292131  10.105   5.830  11.004 -1.0333 -2.4306  0.7088
29065SOL     OW92132   7.513   7.759  10.319  0.0298 -0.5262  0.4972
29065SOL    HW192133   7.500   7.673  10.358 -1.0263 -0.5408  0.1231
29065SOL    HW292134   7.437   7.773  10.263 -0.3679  1.1091  1.3764
29066SOL     OW92135   3.721  10.616   3.063 -0.0544  0.2850  0.9356
29066SOL    HW192136   3.663  10.571   3.125  1.2788 -0.5867  1.5812
29066SOL    HW292137   3.803  10.568   3.067  0.1800  0.3723 -1.3141
29067SOL     OW92138   0.380   7.232   8.304 -0.8492  0.6677 -0.1473
29067SOL    HW192139   0.428   7.151   8.287 -0.5913  1.0411 -1.3401
29067SOL    HW292140   0.303   7.205   8.353 -1.7083 -0.5804 -2.0633
29068SOL     OW92141   1.688   8.681   4.147  0.2930 -0.4868  0.1612
29068SOL    HW192142   1.780   8.666   4.127  0.2644 -0.8011  0.2728
29068SOL    HW292143   1.689   8.750   4.213  0.4918 -1.2072  0.9207
29069SOL     OW92144   2.273   5.911   5.560 -0.3506  0.2012  0.7858
29069SOL    HW192145   2.262   5.834   5.616 -0.1686 -0.6804 -0.3681
29069SOL    HW292146   2.334   5.967   5.608  0.7699 -1.1019  0.9156
29070SOL     OW92147   5.572   5.165   7.337  0.3180 -0.6903 -0.3045
29070SOL    HW192148   5.553   5.259   7.338  0.1903 -0.7155  0.3083
29070SOL    HW292149   5.637   5.153   7.405  0.8646 -0.9487 -0.8672
29071SOL     OW92150   9.267   9.253   9.998  0.0837 -0.2382  0.0357
29071SOL    HW192151   9.247   9.172  10.044  1.6247 -0.2252  0.7687
29071SOL    HW292152   9.334   9.228   9.934 -0.7682  0.1043 -1.0318
29072SOL     OW92153   8.526   6.498   6.182 -0.5370  0.2363 -0.0931
29072SOL    HW192154   8.615   6.494   6.217 -0.3247  0.8326 -0.5517
29072SOL    HW292155   8.484   6.571   6.229 -0.9938 -0.4409  0.5759
29073SOL     OW92156   3.100   6.920   5.889 -0.0513  0.5430  1.0877
29073SOL    HW192157   3.172   6.943   5.830  0.3595  0.8468  1.7053
29073SOL    HW292158   3.082   7.000   5.939 -0.3309  0.2586  1.4487
29074SOL     OW92159   6.722   1.950   8.481  0.2050 -0.5074  0.0083
29074SOL    HW192160   6.715   1.939   8.386 -0.3815 -0.8754  0.0920
29074SOL    HW292161   6.799   2.006   8.493 -1.1466  1.6830 -0.8444
29075SOL     OW92162   2.053   6.867  10.983  0.0142  0.4847 -0.1391
29075SOL    HW192163   2.016   6.781  10.963  0.2353  0.0758  1.1703
29075SOL    HW292164   2.011   6.926  10.919  1.2686 -0.8502 -2.3235
29076SOL     OW92165   5.971   4.953   1.947 -0.0123 -0.0600 -0.4526
29076SOL    HW192166   5.962   4.913   1.860  0.8787  1.3518 -1.2417
29076SOL    HW292167   5.883   4.951   1.984 -0.6510  0.3783 -1.8820
29077SOL     OW92168   8.336   1.825  10.721  0.0720 -0.0313  0.1933
29077SOL    HW192169   8.415   1.840  10.670  1.5156  0.4468  2.4266
29077SOL    HW292170   8.265   1.824  10.657  1.9431 -1.2140 -1.9713
29078SOL     OW92171   3.337  11.676   0.999 -0.0389 -0.2414 -0.0738
29078SOL    HW192172   3.330  11.753   1.057  0.7015  0.9846 -1.5430
29078SOL    HW292173   3.383  11.611   1.052 -1.4881 -0.0438  1.5318
29079SOL     OW92174   6.806   5.597   5.697  0.2002  0.6976  0.0945
29079SOL    HW192175   6.874   5.566   5.757  0.2887  2.2991  0.8543
29079SOL    HW292176   6.854   5.618   5.616  0.1209 -1.1766 -0.4811
29080SOL     OW92177   1.913   8.808   0.645  0.5193 -0.0834  0.4147
29080SOL    HW192178   1.940   8.812   0.736  3.8048  3.6099 -0.4106
29080SOL    HW292179   1.996   8.807   0.596 -1.0969 -0.2958 -2.5120
29081SOL     OW92180   8.209   3.507  11.122  0.4100 -0.4773  0.0157
29081SOL    HW192181   8.238   3.498  11.213 -1.1959  0.5669  0.6754
29081SOL    HW292182   8.212   3.602  11.106 -1.3068 -0.4437 -0.2988
29082SOL     OW92183   8.265   2.656   9.432 -0.6341  0.6512 -0.0620
29082SOL    HW192184   8.344   2.660   9.378  0.5787  2.0033  1.6906
29082SOL    HW292185   8.237   2.565   9.426  0.9702  0.1619 -0.8382
29083SOL     OW92186   5.246   6.916   6.780 -0.5592 -0.2594  0.5697
29083SOL    HW192187   5.276   6.834   6.820  0.1387 -0.0250  0.5439
29083SOL    HW292188   5.218   6.890   6.692  1.7578 -0.1549 -0.2692
29084SOL     OW92189   1.149   1.599   7.029  0.2496  0.1482  0.1044
29084SOL    HW192190   1.230   1.583   6.980  0.1811 -0.7572  0.2621
29084SOL    HW292191   1.176   1.596   7.121  0.2851  1.3165  0.1523
29085SOL     OW92192   2.470   6.079   5.704 -0.0634  0.0429  0.2473
29085SOL    HW192193   2.539   6.114   5.648  0.5011  0.3089  1.0820
29085SOL    HW292194   2.414   6.154   5.723 -0.9923 -0.3055 -0.9639
29086SOL     OW92195   1.086   1.257   4.651 -0.5606  0.3409 -0.5420
29086SOL    HW192196   1.042   1.180   4.615 -0.1131  0.3988 -1.2180
29086SOL    HW292197   1.073   1.325   4.586  1.0962  0.1780 -1.0707
29087SOL     OW92198   6.926   1.240   7.201  0.2089  1.0461  0.2499
29087SOL    HW192199   7.007   1.229   7.153  0.6075 -1.2989  1.2777
29087SOL    HW292200   6.921   1.333   7.220  2.2674  1.3537 -0.4873
29088SOL     OW92201   9.204   7.600   0.729  0.1952  0.1176 -0.0881
29088SOL    HW192202   9.129   7.633   0.779  0.3191 -0.1516  0.2752
29088SOL    HW292203   9.224   7.670   0.667  0.9750  1.1019  1.2183
29089SOL     OW92204   2.448   9.410  10.530 -0.1814 -0.0859 -0.1905
29089SOL    HW192205   2.516   9.393  10.464 -0.0825  0.1887 -0.1625
29089SOL    HW292206   2.483   9.484  10.581 -0.6724  0.3093 -0.4190
29090SOL     OW92207   7.761   2.503   3.843  0.0176  0.0985 -0.5494
29090SOL    HW192208   7.699   2.433   3.863 -0.8301  0.7775 -0.6965
29090SOL    HW292209   7.819   2.507   3.919  0.0666 -0.7396 -0.5341
29091SOL     OW92210   1.023  11.278   5.432 -0.2148 -0.4096  0.6051
29091SOL    HW192211   1.019  11.373   5.417 -1.1569 -0.4951  0.2252
29091SOL    HW292212   0.936  11.247   5.409  0.7267 -1.6937 -1.5642
29092SOL     OW92213   8.572  10.605   6.480  0.4147 -0.1922 -0.5321
29092SOL    HW192214   8.616  10.687   6.460  0.0571 -0.3138 -1.9572
29092SOL    HW292215   8.628  10.563   6.546 -0.2928  1.9102  1.5443
29093SOL     OW92216   2.641  11.280   6.551 -0.4660  0.9613 -0.3207
29093SOL    HW192217   2.655  11.375   6.542  2.1671  0.6451 -0.3538
29093SOL    HW292218   2.697  11.241   6.484  0.0233 -0.6555  0.9682
29094SOL     OW92219   4.466  11.414   3.331  0.0786  0.0189 -0.3921
29094SOL    HW192220   4.453  11.487   3.391  0.5153  0.1495 -0.4487
29094SOL    HW292221   4.473  11.337   3.387  1.0362  0.2128 -0.2297
29095SOL     OW92222   3.627  11.520   3.255 -0.9565 -0.2516 -0.1057
29095SOL    HW192223   3.598  11.610   3.239  0.9620  0.4193 -0.1546
29095SOL    HW292224   3.566  11.485   3.319 -1.5426  1.2017  0.1613
29096SOL     OW92225   3.666   9.135   4.777  0.3798  0.0997 -0.1055
29096SOL    HW192226   3.698   9.132   4.867  1.9873 -1.9782 -0.6665
29096SOL    HW292227   3.657   9.043   4.752 -2.7688  0.5904 -1.2117
29097SOL     OW92228   5.005   3.732   5.922  0.1010  0.1524  0.4522
29097SOL    HW192229   5.081   3.733   5.864 -0.0198  1.0016  0.3051
29097SOL    HW292230   4.931   3.753   5.866  0.1054  1.9934  1.0695
29098SOL     OW92231   4.509   3.485   5.859 -0.2522  0.3601  0.5588
29098SOL    HW192232   4.476   3.499   5.770  0.2577  0.7480  0.4298
29098SOL    HW292233   4.451   3.418   5.895  0.2356 -0.6299 -0.4533
29099SOL     OW92234   2.474   9.414   9.973 -0.6526 -0.7856 -0.4507
29099SOL    HW192235   2.437   9.372   9.895 -0.6940 -2.2682  0.3135
29099SOL    HW292236   2.414   9.389  10.044 -0.5283  0.4049  0.0927
29100SOL     OW92237   7.460   9.091   9.068 -0.2330 -0.6637 -0.5870
29100SOL    HW192238   7.488   9.180   9.046 -1.4531 -0.5825 -1.9831
29100SOL    HW292239   7.382   9.102   9.121 -0.6203 -0.8994 -1.1019
29101SOL     OW92240   1.640   9.784  11.136 -0.4672 -0.5182  0.4072
29101SOL    HW192241   1.725   9.827  11.136 -0.3523 -0.7189  1.4387
29101SOL    HW292242   1.625   9.760  11.045  1.1814 -1.6397  0.3917
29102SOL     OW92243   2.213   2.534   3.607  0.7818 -0.6515 -0.1793
29102SOL    HW192244   2.125   2.497   3.601  1.2491 -1.6614 -1.2998
29102SOL    HW292245   2.244   2.510   3.694 -0.3128  0.3725  0.5202
29103SOL     OW92246   7.675   6.653   6.285 -0.4111  0.5634  0.2592
29103SOL    HW192247   7.716   6.739   6.278  0.6636  0.0312 -0.2232
29103SOL    HW292248   7.660   6.626   6.194 -1.9832  0.8004  0.4293
29104SOL     OW92249  10.593   5.301   5.361  0.1434  0.2700  0.7059
29104SOL    HW192250  10.651   5.285   5.287  1.2217  2.3483  1.0326
29104SOL    HW292251  10.538   5.223   5.365  1.4559 -0.8205 -0.9609
29105SOL     OW92252   2.409   1.960   3.997  0.2408 -0.0119  0.0148
29105SOL    HW192253   2.426   1.881   4.049 -0.8300 -0.7780 -0.7565
29105SOL    HW292254   2.318   1.952   3.970 -0.1511  1.9133  0.6055
29106SOL     OW92255   0.160   0.587   8.575 -0.7539 -0.5580 -0.0908
29106SOL    HW192256   0.140   0.495   8.562  1.0672 -1.1758  1.0528
29106SOL    HW292257   0.181   0.619   8.487 -1.1559 -1.2904 -0.4616
29107SOL     OW92258  11.533   8.373   9.315 -0.2475  0.1966 -0.2980
29107SOL    HW192259  11.597   8.329   9.372 -1.3220  1.0616  1.6891
29107SOL    HW292260  11.495   8.302   9.264 -1.7368 -1.3110  2.6081
29108SOL     OW92261   8.760   4.306  10.669  0.1655  0.0849 -0.0320
29108SOL    HW192262   8.760   4.211  10.671 -0.7634  0.0681 -0.2806
29108SOL    HW292263   8.723   4.332  10.753  0.4846  0.2275  0.0650
29109SOL     OW92264   6.657   8.682   4.702 -0.3010 -0.1910  0.1597
29109SOL    HW192265   6.679   8.643   4.787  1.0330  0.3897  0.1060
29109SOL    HW292266   6.607   8.761   4.724  0.8845  0.4995  0.4800
29110SOL     OW92267  10.687   9.830   5.364 -0.1525 -0.3273 -0.0272
29110SOL    HW192268  10.601   9.871   5.352  1.0225  2.0470 -1.1094
29110SOL    HW292269  10.685   9.795   5.452 -2.2885 -0.4908 -0.0855
29111SOL     OW92270   6.886   3.456   1.551  0.0555  0.2303 -0.5615
29111SOL    HW192271   6.857   3.530   1.497  0.3881  1.9221  1.4658
29111SOL    HW292272   6.884   3.490   1.641  2.1616 -1.5947  0.2449
29112SOL     OW92273   6.878   6.386   5.212 -0.2744 -0.3368  0.1435
29112SOL    HW192274   6.906   6.392   5.304 -0.0148  1.2888 -0.0109
29112SOL    HW292275   6.795   6.434   5.208  1.0329  2.0066 -0.9321
29113SOL     OW92276   4.124   6.970   0.005  0.2012 -0.0955  0.5806
29113SOL    HW192277   4.163   6.886   0.029  1.6640  0.5605  0.6513
29113SOL    HW292278   4.030   6.958   0.017  0.4743 -1.3695  1.6905
29114SOL     OW92279   6.305   2.286  11.455 -0.4831 -0.1383 -0.5941
29114SOL    HW192280   6.321   2.333  11.373  3.1227  2.0972  1.1318
29114SOL    HW292281   6.252   2.346  11.507 -2.2798 -1.3165 -0.9635
29115SOL     OW92282   3.677   7.470  11.675  0.0941 -0.0691  0.5839
29115SOL    HW192283   3.608   7.476  11.741  0.5281  1.3075  0.9548
29115SOL    HW292284   3.669   7.382  11.639  0.1346 -1.0547  2.8076
29116SOL     OW92285   1.769   8.300   4.120 -0.1267  0.1161 -0.3057
29116SOL    HW192286   1.679   8.325   4.100 -0.2044  0.4031  0.3773
29116SOL    HW292287   1.773   8.206   4.102 -0.4931  0.1551 -0.5799
29117SOL     OW92288  10.345   6.332  10.155  0.0751  0.2793 -0.4622
29117SOL    HW192289  10.307   6.253  10.116  1.9589 -0.2919 -1.2661
29117SOL    HW292290  10.437   6.309  10.170  0.5605  2.1784 -0.2968
29118SOL     OW92291   6.028   6.993   0.251 -0.1175  0.0622  0.0049
29118SOL    HW192292   5.959   6.932   0.278 -1.4931  0.9435 -1.4261
29118SOL    HW292293   5.982   7.071   0.221  1.5401  0.9420 -0.3723
29119SOL     OW92294   2.665  11.108   0.476  0.1338 -0.3649  0.3127
29119SOL    HW192295   2.635  11.191   0.513  3.1745  2.2046 -2.4550
29119SOL    HW292296   2.722  11.071   0.543 -0.8372 -0.0179  1.3633
29120SOL     OW92297   9.344   4.507   7.007 -0.8451 -0.0358  0.1438
29120SOL    HW192298   9.293   4.497   7.087  0.5633  0.7835  1.1902
29120SOL    HW292299   9.434   4.487   7.033 -0.6250 -1.7902 -1.7277
29121SOL     OW92300  10.561   5.868   4.901  0.2228  0.2372  0.1674
29121SOL    HW192301  10.541   5.901   4.813 -2.7679  0.0723  0.6774
29121SOL    HW292302  10.521   5.782   4.904  1.1048 -0.1555  1.4203
29122SOL     OW92303   4.375  11.002   0.092 -0.0810  0.2410  0.2910
29122SOL    HW192304   4.337  10.995   0.004  3.3307 -0.9454 -1.2549
29122SOL    HW292305   4.321  10.943   0.146 -1.7410  0.3449 -1.1521
29123SOL     OW92306  10.492   6.463   1.043  0.2488  0.0004  0.1631
29123SOL    HW192307  10.401   6.479   1.019  0.6549  1.1273 -0.7161
29123SOL    HW292308  10.526   6.550   1.066  1.2267 -0.3309  0.0136
29124SOL     OW92309   6.135   3.491   5.929 -0.3917  0.2900  0.3031
29124SOL    HW192310   6.158   3.401   5.951  1.3113  0.4594 -0.6070
29124SOL    HW292311   6.089   3.484   5.845 -2.2937  0.1056  1.3114
29125SOL     OW92312   3.492   3.877  10.772 -0.2546 -0.0288  0.0718
29125SOL    HW192313   3.437   3.827  10.833 -0.9567  0.1379 -0.4091
29125SOL    HW292314   3.544   3.810  10.726  0.9564 -0.0963  1.4701
29126SOL     OW92315   8.777  10.632   7.046  0.5447  0.5174  0.2863
29126SOL    HW192316   8.754  10.548   7.085 -0.1019  0.6742  0.2554
29126SOL    HW292317   8.814  10.610   6.961 -0.0357  0.2854  0.0919
29127SOL     OW92318   7.836   3.934   0.473  0.2322 -0.3819  0.0054
29127SOL    HW192319   7.922   3.965   0.500  1.3483 -1.5795 -1.9468
29127SOL    HW292320   7.815   3.864   0.535  1.3836 -1.1027 -0.3857
29128SOL     OW92321  11.055   3.332  11.088  0.0854  0.3231 -0.5020
29128SOL    HW192322  11.026   3.325  11.178  1.4919 -1.2996 -0.1294
29128SOL    HW292323  11.050   3.426  11.068 -1.5850  0.5386  0.7579
29129SOL     OW92324  10.135   2.433   8.199 -0.2893  0.3816  0.0495
29129SOL    HW192325  10.212   2.468   8.244 -1.6284 -0.9787  3.8538
29129SOL    HW292326  10.163   2.346   8.170  0.5471  1.2141 -1.7854
29130SOL     OW92327   7.262   9.638   1.456 -0.0794  0.0211 -0.0365
29130SOL    HW192328   7.314   9.699   1.509  0.5249  0.7615 -1.4377
29130SOL    HW292329   7.324   9.568   1.434  0.2428  0.6809 -1.3355
29131SOL     OW92330   6.224  10.876   7.724 -0.2091 -0.2061  0.7674
29131SOL    HW192331   6.160  10.916   7.783  0.6060 -0.3869  1.7942
29131SOL    HW292332   6.305  10.923   7.740 -0.4947  1.4132 -2.0003
29132SOL     OW92333   8.879  10.197   4.339  0.6223  0.2422 -0.8978
29132SOL    HW192334   8.961  10.243   4.355 -0.7574  1.7616  3.2011
29132SOL    HW292335   8.858  10.155   4.423 -4.3387  2.8417 -0.4154
29133SOL     OW92336   5.431   0.856   1.976  0.1058 -0.6016  0.4001
29133SOL    HW192337   5.459   0.803   1.901 -2.4718 -0.6260 -0.6537
29133SOL    HW292338   5.407   0.941   1.937 -1.8701 -0.8207  1.0121
29134SOL     OW92339   8.139   1.743   7.219 -0.3588 -0.1016  0.8038
29134SOL    HW192340   8.142   1.650   7.242  1.0333 -0.4098 -0.5069
29134SOL    HW292341   8.229   1.773   7.229 -0.8642  1.2176  1.5507
29135SOL     OW92342   8.621   8.435   7.607  0.2604  1.3118 -0.3754
29135SOL    HW192343   8.714   8.424   7.624  0.1759  1.3697  0.1450
29135SOL    HW292344   8.578   8.384   7.676 -0.0900  1.2097 -0.6679
29136SOL     OW92345   9.022  11.628   7.620 -0.2606  0.1839  0.1601
29136SOL    HW192346   9.014  11.541   7.582 -0.7590  0.0216  0.6185
29136SOL    HW292347   9.083  11.617   7.694 -0.5050  0.1742  0.3610
29137SOL     OW92348   3.233   8.891   3.042  0.4828  0.2747  0.3311
29137SOL    HW192349   3.285   8.826   3.089 -0.1233  1.5284  2.9073
29137SOL    HW292350   3.212   8.957   3.108 -2.9724  0.6953 -1.0027
29138SOL     OW92351   7.238   3.426  10.415  0.0808  0.0010  0.2185
29138SOL    HW192352   7.316   3.372  10.401  0.2070  0.1599  0.2969
29138SOL    HW292353   7.173   3.366  10.449  0.2554 -0.0805  0.4116
29139SOL     OW92354   4.022   1.973  11.580 -0.2228 -0.5361  0.1148
29139SOL    HW192355   4.016   1.952  11.487  0.3266  0.5749 -0.1934
29139SOL    HW292356   4.082   2.048  11.584 -3.5782  2.3986  0.8505
29140SOL     OW92357   3.008   1.750  10.671  0.2440  0.5464 -0.7541
29140SOL    HW192358   3.001   1.838  10.633  1.7827  0.2836 -1.7596
29140SOL    HW292359   3.099   1.743  10.698 -0.0776 -0.4321  0.1417
29141SOL     OW92360  10.823   2.242   1.836  0.8130  0.0892 -0.2514
29141SOL    HW192361  10.763   2.239   1.910 -0.8389 -0.6966 -1.5581
29141SOL    HW292362  10.794   2.317   1.785  0.2069 -0.9321 -1.4545
29142SOL     OW92363   8.415   4.977   5.893  0.1220 -0.2623 -0.0842
29142SOL    HW192364   8.430   4.883   5.892  1.7615 -0.0414 -2.1709
29142SOL    HW292365   8.490   5.014   5.939 -0.6447  0.0561  0.9669
29143SOL     OW92366   7.653   7.393   2.015  0.0808 -0.2501 -0.4104
29143SOL    HW192367   7.746   7.374   2.014  0.6407  2.1174  0.2926
29143SOL    HW292368   7.647   7.488   2.022 -2.3293 -0.4249  2.0956
29144SOL     OW92369  10.053   3.397   0.894 -0.2910  0.1883  0.1757
29144SOL    HW192370  10.122   3.416   0.957  2.6110 -3.2866 -1.5614
29144SOL    HW292371  10.041   3.479   0.846  2.6269  0.9821  0.6114
29145SOL     OW92372   9.080   4.460   9.508  0.1358  0.0217 -0.5201
29145SOL    HW192373   9.082   4.365   9.497  0.6259 -0.0822  0.4237
29145SOL    HW292374   8.994   4.478   9.546  1.0480 -0.3460  1.8248
29146SOL     OW92375   9.928   9.972   1.217  0.1461  0.0889  0.2346
29146SOL    HW192376   9.884   9.984   1.133  0.7097 -0.1590 -0.1042
29146SOL    HW292377   9.902   9.885   1.246  0.4243 -0.0665  0.0238
29147SOL     OW92378  10.230   1.817   2.016 -0.4327 -0.0361 -0.0604
29147SOL    HW192379  10.264   1.893   2.064  0.3946  0.3695 -1.2297
29147SOL    HW292380  10.272   1.742   2.057  2.3233  0.4762 -1.6892
29148SOL     OW92381   9.512   6.730   7.596  0.5028 -0.4907 -0.0327
29148SOL    HW192382   9.507   6.703   7.688  1.6186 -0.4102  0.0750
29148SOL    HW292383   9.422   6.751   7.571  0.5410  3.0079  2.0930
29149SOL     OW92384  11.428   9.212   6.542  0.3096  0.4104  0.3653
29149SOL    HW192385  11.432   9.170   6.628  3.3417  0.4070  0.3080
29149SOL    HW292386  11.490   9.284   6.548 -1.0279  1.7749 -1.1867
29150SOL     OW92387   9.258   9.739   8.554 -0.6646 -0.0620 -1.0423
29150SOL    HW192388   9.227   9.791   8.628 -0.8588  2.1546 -2.5722
29150SOL    HW292389   9.321   9.677   8.592 -1.2293  0.5692  1.0277
29151SOL     OW92390   1.334  10.347   4.885  0.3911 -0.5176 -0.4986
29151SOL    HW192391   1.332  10.252   4.873  1.4826 -0.6452  0.2391
29151SOL    HW292392   1.279  10.381   4.814  0.4622 -1.6610 -1.1239
29152SOL     OW92393  11.098  10.497   4.353 -0.3800 -0.5069 -0.1762
29152SOL    HW192394  11.025  10.483   4.413  0.7062 -1.6245  0.9524
29152SOL    HW292395  11.057  10.515   4.268 -1.9684  1.5549  0.9476
29153SOL     OW92396   6.222   1.933   8.860 -0.1313  0.3941 -0.5194
29153SOL    HW192397   6.280   1.954   8.788  0.9183  0.0037  0.1774
29153SOL    HW292398   6.221   2.011   8.915 -0.9640  0.7076 -0.9715
29154SOL     OW92399   1.131   9.011  10.726  0.0418  0.2482  0.5653
29154SOL    HW192400   1.148   9.078  10.792  1.3168  0.3869  0.1161
29154SOL    HW292401   1.214   8.963  10.718 -0.1032  0.2061 -0.8870
29155SOL     OW92402   8.571   8.090   6.045 -0.5453  0.1843 -0.1709
29155SOL    HW192403   8.569   8.148   6.121  0.4574  0.3557 -0.2655
29155SOL    HW292404   8.519   8.014   6.072  1.0333 -0.4474  1.2619
29156SOL     OW92405   8.593   8.046   9.599  0.0248  0.2801 -0.7015
29156SOL    HW192406   8.661   8.107   9.570 -0.2070  0.4035 -0.9952
29156SOL    HW292407   8.511   8.088   9.574 -0.2673  0.9745  1.2304
29157SOL     OW92408   6.845   0.664   9.025  0.2457 -0.7625 -0.5094
29157SOL    HW192409   6.900   0.742   9.022  1.1289 -1.3908 -1.3517
29157SOL    HW292410   6.784   0.674   8.952 -0.7294 -0.1185  0.3572
29158SOL     OW92411   9.715  10.427   0.868  0.2969 -0.0771 -0.4000
29158SOL    HW192412   9.620  10.440   0.869  0.0353 -1.6414 -1.5992
29158SOL    HW292413   9.749  10.504   0.913 -1.5109  0.7127 -0.2645
29159SOL     OW92414   5.218   5.532   2.287  0.7803 -0.4843 -0.4396
29159SOL    HW192415   5.183   5.448   2.317  0.8067  0.1688  1.5404
29159SOL    HW292416   5.147   5.595   2.300  1.6102  0.2661  0.6340
29160SOL     OW92417   4.751   3.640   9.365 -0.1710 -0.2293  0.6467
29160SOL    HW192418   4.818   3.644   9.433  0.8302 -0.3679 -0.3194
29160SOL    HW292419   4.705   3.557   9.382  2.6478 -2.3433 -1.1626
29161SOL     OW92420   4.752   3.027   6.052 -0.0895 -0.4658  0.2570
29161SOL    HW192421   4.660   3.015   6.028  0.1351  1.0383 -1.6763
29161SOL    HW292422   4.800   2.998   5.974  0.8013  3.0439 -0.6668
29162SOL     OW92423   1.452   4.128   5.607  0.1724  0.1435  0.4716
29162SOL    HW192424   1.440   4.182   5.528  0.9382  1.2440  1.0834
29162SOL    HW292425   1.396   4.169   5.672  0.2966 -0.1688  0.7723
29163SOL     OW92426   6.470   8.976   1.994  0.0285  0.0906 -0.2944
29163SOL    HW192427   6.454   9.036   2.067 -2.3624  0.0722 -0.7331
29163SOL    HW292428   6.493   9.034   1.921 -0.1727  0.3153 -0.1816
29164SOL     OW92429   7.937  10.032  11.333  0.2297 -0.5743  0.4969
29164SOL    HW192430   8.018  10.000  11.295  0.2562 -0.0771  0.1320
29164SOL    HW292431   7.901  10.093  11.269  1.6140  2.3520  2.2915
29165SOL     OW92432  10.751   8.830   1.102 -0.1066 -0.0805  0.0095
29165SOL    HW192433  10.780   8.914   1.138 -0.1770 -0.2010  0.3493
29165SOL    HW292434  10.815   8.811   1.033 -0.5251  0.6151 -0.5835
29166SOL     OW92435   4.124   5.546   8.376 -0.1969  0.1568 -0.3734
29166SOL    HW192436   4.143   5.634   8.409 -1.0483  0.8942 -1.7212
29166SOL    HW292437   4.209   5.509   8.354  0.0992  1.2722 -1.2368
29167SOL     OW92438   9.249   7.774   2.209  0.4049 -0.2542  0.2377
29167SOL    HW192439   9.271   7.685   2.183  2.2634 -1.0523  3.9559
29167SOL    HW292440   9.155   7.782   2.192  0.2213 -2.8641 -0.3096
29168SOL     OW92441   0.937   0.630   4.145  0.1619  0.6950 -0.4468
29168SOL    HW192442   0.949   0.720   4.176  1.8059 -0.3770  2.4031
29168SOL    HW292443   0.988   0.626   4.064  1.1290  2.0393  0.0513
29169SOL     OW92444   7.864   2.197   7.845  0.1663  0.3337  0.7844
29169SOL    HW192445   7.866   2.290   7.867  1.1464  0.3448  0.6673
29169SOL    HW292446   7.915   2.190   7.764 -0.5692 -0.1988  0.3482
29170SOL     OW92447   4.716   3.912   9.335 -0.4801  0.0725  0.7728
29170SOL    HW192448   4.719   3.817   9.351 -0.4593 -0.1289 -0.3022
29170SOL    HW292449   4.673   3.920   9.249 -3.0574  1.2064  2.0555
29171SOL     OW92450   1.509   8.581   6.776  0.4166 -0.3186 -0.0262
29171SOL    HW192451   1.575   8.591   6.845  0.5793  0.2168 -0.2573
29171SOL    HW292452   1.464   8.500   6.799  0.1681  0.0829  0.9684
29172SOL     OW92453   4.087   0.877   5.027 -0.1370  0.2435 -0.6465
29172SOL    HW192454   4.161   0.936   5.042 -0.2133  0.0732  0.5377
29172SOL    HW292455   4.126   0.790   5.019 -0.2332  0.0566  0.6753
29173SOL     OW92456   0.999  10.241   4.325  0.2005 -0.2801 -0.0805
29173SOL    HW192457   0.997  10.175   4.394 -0.0636 -2.3016 -1.9277
29173SOL    HW292458   1.091  10.266   4.317  0.2567 -0.1592  0.8485
29174SOL     OW92459   2.684  10.966  10.894 -0.3414 -0.3976 -0.2125
29174SOL    HW192460   2.721  11.054  10.899  0.9051 -0.8504 -1.0909
29174SOL    HW292461   2.685  10.934  10.984  0.4385 -0.0109 -0.0795
29175SOL     OW92462  10.017   4.479   8.040 -0.4725 -0.3026 -0.1485
29175SOL    HW192463   9.979   4.391   8.030 -0.3500 -0.5360  1.1595
29175SOL    HW292464  10.112   4.465   8.035 -0.4848 -0.0051 -1.4697
29176SOL     OW92465   0.735  10.171   0.099 -0.5629  0.4461  0.0961
29176SOL    HW192466   0.666  10.107   0.117  0.1105 -0.4643 -0.5384
29176SOL    HW292467   0.744  10.219   0.182 -1.5692  0.2126  0.3575
29177SOL     OW92468  10.062   5.173   5.953 -0.5602  0.2627 -0.0847
29177SOL    HW192469  10.133   5.164   6.017 -0.9598  2.0143  0.6585
29177SOL    HW292470  10.009   5.095   5.965 -0.1203  0.1220  1.0962
29178SOL     OW92471   7.896   4.560   7.350 -0.0063  0.2954 -0.3674
29178SOL    HW192472   7.803   4.551   7.329  0.1396  1.9330 -2.0677
29178SOL    HW292473   7.940   4.546   7.266  1.2895 -0.4038  0.4031
29179SOL     OW92474  11.451   9.701   8.263 -0.2962 -0.3584  0.0231
29179SOL    HW192475  11.421   9.784   8.299  1.4747  1.1780 -1.8350
29179SOL    HW292476  11.543   9.694   8.290  0.6182  0.0683 -2.6171
29180SOL     OW92477   4.418   1.554   2.799 -0.3550  0.0061 -0.4414
29180SOL    HW192478   4.399   1.470   2.842 -1.6399 -0.5415 -1.9538
29180SOL    HW292479   4.336   1.604   2.807 -0.1819  0.4059 -1.0646
29181SOL     OW92480   7.454   6.913  11.654 -0.1044  0.7437  0.4015
29181SOL    HW192481   7.416   6.918  11.566  0.4575  0.1728  0.1256
29181SOL    HW292482   7.378   6.906  11.712 -0.4990  1.5347  0.0004
29182SOL     OW92483   3.818   0.715   3.227  0.1625  0.1656 -0.1802
29182SOL    HW192484   3.884   0.670   3.280  1.3970  0.7302 -1.1706
29182SOL    HW292485   3.750   0.649   3.214 -0.3191  0.0936  2.2650
29183SOL     OW92486   1.350   2.705   9.532  0.1088 -0.2424  0.0225
29183SOL    HW192487   1.398   2.777   9.573 -0.1019 -0.1456  0.1030
29183SOL    HW292488   1.375   2.627   9.581 -0.4494 -0.0679  0.5993
29184SOL     OW92489   3.811   6.280   1.852 -0.5509  0.5206 -0.2591
29184SOL    HW192490   3.896   6.246   1.826 -0.4847 -0.6424  1.3484
29184SOL    HW292491   3.828   6.369   1.880  0.4140 -0.0864  1.2373
29185SOL     OW92492   5.417   7.605   6.205  0.1259  0.3322  0.4122
29185SOL    HW192493   5.441   7.628   6.115  0.4910  0.6679  0.5908
29185SOL    HW292494   5.369   7.681   6.237 -0.4496  0.0085  0.3408
29186SOL     OW92495   2.819   1.032   3.629  0.4964 -0.0191 -0.3766
29186SOL    HW192496   2.906   1.069   3.644  0.1584  1.5153 -1.9842
29186SOL    HW292497   2.836   0.947   3.588  1.2300 -0.5211  0.9025
29187SOL     OW92498   1.788   5.697   3.145 -0.1875  0.0213 -0.2668
29187SOL    HW192499   1.748   5.673   3.061  3.1816 -0.1308 -2.0035
29187SOL    HW292500   1.826   5.783   3.130  0.7306 -0.1374  0.9646
29188SOL     OW92501   8.081  10.781  10.631  0.2655 -0.2582  0.6153
29188SOL    HW192502   8.054  10.701  10.585 -0.9788  0.1229  0.6692
29188SOL    HW292503   8.173  10.765  10.653 -0.2238 -2.1078  1.5085
29189SOL     OW92504   4.497   8.633  10.294 -0.2779 -0.7465 -0.2813
29189SOL    HW192505   4.564   8.651  10.228 -1.5191  0.0406 -1.3814
29189SOL    HW292506   4.508   8.540  10.314  1.0721 -0.6505 -0.5009
29190SOL     OW92507   7.177   1.614   5.286  0.3278  0.0964  0.0032
29190SOL    HW192508   7.252   1.561   5.313 -0.1335 -0.5624  0.0344
29190SOL    HW292509   7.146   1.573   5.206 -1.2343 -0.9158  1.0767
29191SOL     OW92510   5.826   6.477   3.793  0.5412 -0.6376  0.1866
29191SOL    HW192511   5.733   6.498   3.781  0.4038 -1.5536 -0.4702
29191SOL    HW292512   5.835   6.461   3.886  0.3028  0.6376  0.4490
29192SOL     OW92513   5.705   6.333   3.358 -1.0524  0.1923 -0.0626
29192SOL    HW192514   5.795   6.344   3.388 -1.2168 -0.7066  0.8389
29192SOL    HW292515   5.663   6.417   3.376 -0.2035  0.8948 -1.2636
29193SOL     OW92516  10.866   2.332   9.344  0.0819 -0.3156  0.1163
29193SOL    HW192517  10.918   2.341   9.423 -0.1021  1.8023  0.0292
29193SOL    HW292518  10.917   2.375   9.276 -1.6654  1.7020  0.0025
29194SOL     OW92519   3.890  10.603   5.417 -0.2880  0.1823  0.3783
29194SOL    HW192520   3.801  10.571   5.402  0.0607 -1.3113  1.2854
29194SOL    HW292521   3.909  10.580   5.508  1.8432 -1.6625 -0.4414
29195SOL     OW92522   5.525   8.188   0.872 -0.3771 -0.3781  0.2580
29195SOL    HW192523   5.469   8.261   0.897 -0.4724 -0.3549 -0.0190
29195SOL    HW292524   5.583   8.224   0.805  0.5676 -0.1645  1.1642
29196SOL     OW92525   5.277   4.813   5.955 -0.0965  0.0731 -0.3710
29196SOL    HW192526   5.364   4.783   5.928  0.7200  1.2059  0.9136
29196SOL    HW292527   5.228   4.732   5.971  1.0042 -0.5859 -0.2314
29197SOL     OW92528  10.737   8.345   4.274 -0.4510 -0.5126 -0.0114
29197SOL    HW192529  10.764   8.263   4.234  0.5228 -0.0669 -0.2948
29197SOL    HW292530  10.724   8.324   4.366  1.3468 -0.6634  0.2421
29198SOL     OW92531   2.787   8.942   4.133  0.0997 -0.0295 -0.7882
29198SOL    HW192532   2.789   9.014   4.196 -2.4563  0.5007 -1.1769
29198SOL    HW292533   2.817   8.866   4.182 -0.6602  0.6121  0.7394
29199SOL     OW92534  11.187   3.258   7.695  0.7574 -0.5431  0.1375
29199SOL    HW192535  11.114   3.303   7.737 -1.1772 -2.2921 -1.1208
29199SOL    HW292536  11.245   3.328   7.665 -0.7293  0.9673  0.6315
29200SOL     OW92537   7.751   1.637   2.989  0.0000  0.4506  0.4857
29200SOL    HW192538   7.749   1.729   2.962 -1.1442  1.0779  2.4970
29200SOL    HW292539   7.663   1.621   3.025  0.4166 -1.2163  0.8350
29201SOL     OW92540   9.844   3.795   2.468  0.0764  0.4711  0.2008
29201SOL    HW192541   9.811   3.794   2.558  3.1856 -0.6126  1.4567
29201SOL    HW292542   9.924   3.847   2.471 -0.2758  1.3060 -2.2297
29202SOL     OW92543   6.239   0.654   9.601 -0.4568  0.1578 -0.1040
29202SOL    HW192544   6.230   0.689   9.513 -1.3260 -0.7715 -0.4068
29202SOL    HW292545   6.326   0.683   9.630 -0.3314  0.8118 -1.0980
29203SOL     OW92546   9.689  10.097   6.494  0.0394  0.0184 -0.3032
29203SOL    HW192547   9.614  10.144   6.530 -0.8099 -1.3782 -0.1453
29203SOL    HW292548   9.756  10.101   6.562 -0.0752  0.8234 -0.2310
29204SOL     OW92549   5.609   1.704   8.921  0.0019  0.2984 -0.3902
29204SOL    HW192550   5.535   1.745   8.875 -0.3697 -0.7604 -0.7841
29204SOL    HW292551   5.665   1.671   8.850  1.6168  2.3040 -0.1331
29205SOL     OW92552   9.736   3.484  10.182  0.2059 -0.3506  0.4885
29205SOL    HW192553   9.660   3.506  10.237  0.1999 -0.7977  0.6646
29205SOL    HW292554   9.776   3.569  10.162 -0.2674 -0.1200  0.5010
29206SOL     OW92555  11.353  11.007   1.672 -0.4347 -0.4217  0.5480
29206SOL    HW192556  11.405  11.057   1.734  0.0499 -0.0613 -0.1354
29206SOL    HW292557  11.322  11.071   1.609  1.2565 -1.1001 -1.0755
29207SOL     OW92558   1.686   2.326   4.246 -0.9678  0.2399  0.6287
29207SOL    HW192559   1.611   2.267   4.246 -0.1763 -0.8502 -1.3146
29207SOL    HW292560   1.687   2.365   4.159  0.6986  0.2110  0.5974
29208SOL     OW92561   8.388   5.358   7.484  0.2361  0.3921 -0.6025
29208SOL    HW192562   8.337   5.416   7.427 -0.6257  0.8886  0.6380
29208SOL    HW292563   8.460   5.328   7.428 -0.5434  0.8984 -1.9302
29209SOL     OW92564   3.954  10.893   6.066  0.3315 -0.2927  1.1857
29209SOL    HW192565   3.971  10.984   6.041 -0.4800 -0.1506  1.1349
29209SOL    HW292566   3.896  10.899   6.141  1.6403 -0.7526  2.2620
29210SOL     OW92567   8.250   4.039   9.765 -0.2684 -0.4780 -0.8104
29210SOL    HW192568   8.318   4.105   9.781  1.0742 -2.5297  3.7063
29210SOL    HW292569   8.296   3.969   9.718  0.2175 -0.9526  0.3389
29211SOL     OW92570   4.920  10.682  11.397  0.6282 -0.3970  0.3753
29211SOL    HW192571   5.005  10.654  11.365  0.3522 -1.0047  0.1615
29211SOL    HW292572   4.936  10.768  11.436  1.4411 -0.7342  0.8088
29212SOL     OW92573   6.490  11.196   0.116  0.4528 -0.5033 -0.0259
29212SOL    HW192574   6.501  11.112   0.160  1.9815 -0.2874  0.0509
29212SOL    HW292575   6.475  11.173   0.024  0.5879 -0.8614  0.0414
29213SOL     OW92576   0.142   8.903   8.107 -0.3499 -0.4954  0.2468
29213SOL    HW192577   0.186   8.818   8.101  1.2566  0.2290  1.1628
29213SOL    HW292578   0.168   8.937   8.192 -1.1797  0.8168 -0.0043
29214SOL     OW92579   4.678   5.646  11.228  0.0146  0.7796  0.9666
29214SOL    HW192580   4.686   5.741  11.220  0.3965  0.7296  0.7233
29214SOL    HW292581   4.735   5.624  11.302 -1.0810  0.8830  1.8639
29215SOL     OW92582   0.105   8.044   3.026 -0.2904  0.6659  0.0916
29215SOL    HW192583   0.167   7.995   3.080  0.2838  0.5582 -0.6475
29215SOL    HW292584   0.025   8.048   3.078 -0.8929 -2.3956 -0.4498
29216SOL     OW92585  10.093   4.266   0.852  0.1002 -0.1336  0.3128
29216SOL    HW192586  10.071   4.334   0.788  1.9316  0.8788  0.6946
29216SOL    HW292587  10.186   4.277   0.867  0.3095 -2.3323  0.9122
29217SOL     OW92588  11.031   2.390   3.324 -0.0803 -0.1527  0.4067
29217SOL    HW192589  11.082   2.455   3.371  0.1306 -0.0314  0.0195
29217SOL    HW292590  11.000   2.435   3.246  1.9716 -1.0854 -1.0529
29218SOL     OW92591   6.987   9.950   5.635  0.1695  0.2655 -0.2546
29218SOL    HW192592   6.979  10.043   5.652  0.9655  0.5782 -1.4945
29218SOL    HW292593   6.959   9.939   5.544 -0.9410 -0.8755  0.1778
29219SOL     OW92594   0.562   3.739   3.487 -0.7043 -0.2813 -0.8999
29219SOL    HW192595   0.619   3.793   3.541  0.1168  0.8069 -2.7670
29219SOL    HW292596   0.619   3.668   3.456 -1.1412 -0.8428 -0.4378
29220SOL     OW92597   8.434  10.213   2.898  0.0304 -0.0294 -0.2642
29220SOL    HW192598   8.354  10.201   2.949  0.4463 -0.6113  0.2596
29220SOL    HW292599   8.430  10.304   2.869 -1.0165 -0.1619 -0.5895
29221SOL     OW92600   2.633   0.621  11.024  0.3141 -0.4447  0.2341
29221SOL    HW192601   2.579   0.597  11.100  0.1338 -2.0026 -0.3580
29221SOL    HW292602   2.704   0.673  11.062  0.3349 -1.3366  1.5166
29222SOL     OW92603   3.862   6.958   8.295  1.1798 -0.1745 -0.3105
29222SOL    HW192604   3.844   7.052   8.302  0.6273 -0.3770  1.1461
29222SOL    HW292605   3.792   6.924   8.239 -0.7319 -0.2699  1.9967
29223SOL     OW92606   7.595  10.421  11.410  0.1620  0.1315 -0.0710
29223SOL    HW192607   7.627  10.420  11.499  0.2790  1.1219 -0.0969
29223SOL    HW292608   7.519  10.479  11.412 -0.4591 -0.6471 -0.4083
29224SOL     OW92609   2.053   9.243   1.185  0.1654 -0.2639 -0.3346
29224SOL    HW192610   2.036   9.174   1.250  1.8671  0.0036  0.4475
29224SOL    HW292611   2.003   9.216   1.108 -1.2560 -1.0280  0.7970
29225SOL     OW92612   1.174  11.289   3.224 -0.0842  0.2114 -0.3698
29225SOL    HW192613   1.248  11.229   3.219  0.0667  0.4688 -1.5702
29225SOL    HW292614   1.104  11.237   3.262 -0.0812 -0.8854 -1.7722
29226SOL     OW92615   2.546   1.009  10.032  0.4553 -0.0848 -0.0582
29226SOL    HW192616   2.620   1.021  10.091 -0.7504  2.3639  1.1232
29226SOL    HW292617   2.501   0.931  10.064  2.0485 -1.1671 -0.3444
29227SOL     OW92618   8.578   8.722   0.041  0.1193 -0.3796  0.1158
29227SOL    HW192619   8.498   8.774   0.044  1.3756  1.6072  1.7119
29227SOL    HW292620   8.627   8.756  -0.034  2.1789  2.9653  2.6750
29228SOL     OW92621   4.740   1.927   3.372  0.3202 -0.1783 -0.4886
29228SOL    HW192622   4.784   1.844   3.353  0.0847 -0.5547  0.5705
29228SOL    HW292623   4.659   1.902   3.417 -0.4667  0.5623 -1.4275
29229SOL     OW92624  10.731   6.132   3.905  0.0409 -0.5524 -0.3721
29229SOL    HW192625  10.672   6.060   3.927 -0.6139  0.2310  0.5629
29229SOL    HW292626  10.801   6.126   3.971 -0.8412  0.5664  0.7301
29230SOL     OW92627   5.642   7.729   4.227  0.0976 -0.3236 -0.6573
29230SOL    HW192628   5.713   7.696   4.171 -0.4787 -1.3677 -0.7972
29230SOL    HW292629   5.592   7.651   4.250 -0.8013  0.3574 -0.2666
29231SOL     OW92630   4.214   8.136   5.507  0.4427  0.7247 -0.0866
29231SOL    HW192631   4.299   8.181   5.504  0.1601  1.2274 -1.1267
29231SOL    HW292632   4.234   8.048   5.538  1.2956  0.9562  0.0412
29232SOL     OW92633   6.382   7.453   0.799  0.1125 -0.3053 -0.3455
29232SOL    HW192634   6.363   7.540   0.764  0.5473  0.1875  0.6232
29232SOL    HW292635   6.377   7.396   0.722  1.1961  0.7769 -1.2779
29233SOL     OW92636   4.337   0.099   3.037  0.0875  0.3034  0.1139
29233SOL    HW192637   4.405   0.126   2.976 -1.3637  2.0900 -0.8134
29233SOL    HW292638   4.362   0.011   3.064  3.8750  1.6072  1.4905
29234SOL     OW92639   7.693   3.010   8.228  0.3401 -0.0254 -0.2253
29234SOL    HW192640   7.728   2.975   8.146  0.0819  0.6812 -0.6408
29234SOL    HW292641   7.598   2.997   8.221 -0.1088  3.1008 -1.5745
29235SOL     OW92642   5.103   2.592  11.638  0.2649  0.2304 -0.1370
29235SOL    HW192643   5.156   2.660  11.680 -0.5029  1.3276 -0.8726
29235SOL    HW292644   5.139   2.585  11.549  0.4555 -0.4627 -0.0067
29236SOL     OW92645   3.322   8.969   7.126  0.0108  0.5828 -0.0804
29236SOL    HW192646   3.348   8.972   7.034  3.5963 -0.7785  0.7265
29236SOL    HW292647   3.334   8.878   7.152 -0.6071  0.9988  1.8563
29237SOL     OW92648   9.187   9.492   7.898 -0.1939 -0.7288  0.2639
29237SOL    HW192649   9.232   9.570   7.931 -0.7011 -0.6749  0.8462
29237SOL    HW292650   9.124   9.470   7.966 -0.1602 -1.5695  0.0412
29238SOL     OW92651   3.358   4.830   5.140  0.3737 -0.2306  0.2106
29238SOL    HW192652   3.449   4.813   5.164  0.0919 -1.2788  0.5868
29238SOL    HW292653   3.319   4.743   5.131 -0.8357  0.1995  1.0398
29239SOL     OW92654   3.872   8.676   7.878 -0.5659 -0.1902  0.0099
29239SOL    HW192655   3.933   8.750   7.874 -0.9566  0.2122  1.2007
29239SOL    HW292656   3.878   8.635   7.792 -1.4588  2.1283 -1.2407
29240SOL     OW92657   9.924   1.497   0.333 -0.4117  0.2871  0.3526
29240SOL    HW192658   9.848   1.535   0.289 -1.4383 -1.5269  0.4635
29240SOL    HW292659   9.997   1.513   0.274 -1.6250 -1.5248 -1.7652
29241SOL     OW92660  10.613   5.431   8.005  0.4262  0.2334  0.3488
29241SOL    HW192661  10.655   5.346   8.017  0.6121  0.3866  0.7944
29241SOL    HW292662  10.584   5.456   8.092  0.2302  0.5533  0.1916
29242SOL     OW92663   8.977   9.864   0.709  0.9409  0.4109  0.5199
29242SOL    HW192664   9.070   9.849   0.726  1.5429  0.9206 -1.8819
29242SOL    HW292665   8.946   9.780   0.674  0.6328  0.4082  0.7983
29243SOL     OW92666   0.714   8.740   8.625 -0.3829 -0.1686  0.0393
29243SOL    HW192667   0.644   8.684   8.657 -0.0345 -0.7263 -0.1630
29243SOL    HW292668   0.745   8.698   8.545 -1.1075  1.1088 -0.9519
29244SOL     OW92669   6.758   6.089   9.615 -0.3806 -0.3577 -0.2844
29244SOL    HW192670   6.840   6.039   9.621 -0.4015 -0.3620 -0.0317
29244SOL    HW292671   6.783   6.179   9.632 -0.5819 -0.4950  0.8173
29245SOL     OW92672  10.538   3.298   4.409  0.1429  0.1710 -0.0176
29245SOL    HW192673  10.629   3.324   4.398  0.5036 -0.2516  1.6256
29245SOL    HW292674  10.543   3.204   4.429 -0.6405  0.1447  0.0779
29246SOL     OW92675   1.011   1.984   9.239  0.4409 -0.2554 -0.9404
29246SOL    HW192676   1.075   1.944   9.299  0.1800 -0.7227 -0.9651
29246SOL    HW292677   1.051   1.977   9.153  1.0478  0.8919 -0.7676
29247SOL     OW92678   3.113   7.125   9.142  0.5838  0.0125 -0.1022
29247SOL    HW192679   3.041   7.066   9.163  0.3412  0.3205 -0.0570
29247SOL    HW292680   3.147   7.152   9.227  0.6868 -0.0574 -0.1224
29248SOL     OW92681   7.901   4.289   8.782 -0.0910 -0.5850 -0.1518
29248SOL    HW192682   7.994   4.298   8.761  0.6803  0.4154  3.0974
29248SOL    HW292683   7.899   4.271   8.876 -3.2372  1.3019  0.2996
29249SOL     OW92684   4.179  10.398   6.953 -0.6668  0.7548  0.3632
29249SOL    HW192685   4.138  10.447   7.025 -1.7461  1.2727 -0.5684
29249SOL    HW292686   4.120  10.324   6.938 -0.7348  0.9388 -0.3170
29250SOL     OW92687   9.907   4.810   7.206 -0.7032  0.2195  0.3634
29250SOL    HW192688   9.846   4.815   7.279 -1.1792 -2.0472  0.1753
29250SOL    HW292689   9.923   4.901   7.183 -3.6982  0.9387  0.6745
29251SOL     OW92690   1.384   7.758   2.963 -0.1898 -0.0373 -0.3741
29251SOL    HW192691   1.345   7.800   3.039 -0.3596 -1.0977  0.1397
29251SOL    HW292692   1.321   7.773   2.892 -1.2980 -1.2361  0.3113
29252SOL     OW92693   7.250   4.345   9.978 -0.2061  0.8137 -0.1107
29252SOL    HW192694   7.343   4.357   9.999  0.2898  0.0118 -1.6614
29252SOL    HW292695   7.231   4.416   9.916 -0.3396  0.3629 -0.5878
29253SOL     OW92696   0.859   3.888   3.362 -0.1481  0.3061 -0.1472
29253SOL    HW192697   0.895   3.868   3.276 -0.5087  1.3265 -0.5606
29253SOL    HW292698   0.931   3.871   3.423 -0.0335 -0.8675 -0.5935
29254SOL     OW92699   2.019  10.913   7.956 -0.1982  0.1571  0.3550
29254SOL    HW192700   1.960  10.885   8.027 -0.4533  0.9617  0.4716
29254SOL    HW292701   2.020  11.008   7.963 -1.2488  0.3500 -1.5242
29255SOL     OW92702  10.065  11.149   2.044  0.1620 -0.1318  0.3532
29255SOL    HW192703  10.069  11.177   1.952  0.8266 -0.1318  0.3775
29255SOL    HW292704  10.006  11.073   2.043  1.8966 -1.5535 -0.4629
29256SOL     OW92705   6.930   6.636   5.812 -0.6091  0.4233  0.0412
29256SOL    HW192706   6.863   6.676   5.756  1.0653  3.0623 -0.2462
29256SOL    HW292707   6.977   6.577   5.754 -0.9824  0.6184 -0.4730
29257SOL     OW92708   5.797   7.869   5.961 -0.2462  0.3086  0.0810
29257SOL    HW192709   5.848   7.900   6.035  0.5851  0.6270 -0.6080
29257SOL    HW292710   5.853   7.885   5.885 -0.6504 -0.9617 -0.5112
29258SOL     OW92711   1.118   3.103   3.008  0.2343  0.9030  0.3964
29258SOL    HW192712   1.122   3.012   2.977 -1.6285  0.4603  1.2594
29258SOL    HW292713   1.180   3.150   2.954 -1.5650 -0.1231 -2.8198
29259SOL     OW92714   2.051   8.682   7.442  0.2676  0.3123 -0.3741
29259SOL    HW192715   2.077   8.775   7.439  0.8005  0.1628 -0.4431
29259SOL    HW292716   2.121   8.636   7.397  0.2916 -0.1868  0.1559
29260SOL     OW92717   5.203   5.173   9.799  0.0314  0.2193  0.2416
29260SOL    HW192718   5.271   5.207   9.741 -0.2237  0.3584  0.0148
29260SOL    HW292719   5.242   5.097   9.842  0.6892  0.9426  0.9381
29261SOL     OW92720   6.685   3.642   4.292  0.0265 -0.2819  0.3589
29261SOL    HW192721   6.625   3.691   4.235 -0.4958 -1.0622  0.2247
29261SOL    HW292722   6.757   3.702   4.307 -0.7624  0.6639  0.4798
29262SOL     OW92723   8.183   8.435   6.262  0.0299  0.5494  0.0859
29262SOL    HW192724   8.209   8.414   6.172 -2.3440  0.0684 -0.5539
29262SOL    HW292725   8.239   8.508   6.287  0.2508  1.1826 -2.0603
29263SOL     OW92726   1.150   8.631   6.313  0.9549  0.1357  0.4005
29263SOL    HW192727   1.189   8.714   6.339  2.0974  0.1168 -1.1117
29263SOL    HW292728   1.219   8.586   6.265 -0.3991 -0.6504 -0.9032
29264SOL     OW92729   1.564   7.977  10.900  0.5118 -0.6126 -0.1849
29264SOL    HW192730   1.628   7.947  10.965 -0.1427 -0.9487  0.3167
29264SOL    HW292731   1.543   8.067  10.926  1.1031 -0.3490 -0.6078
29265SOL     OW92732   9.684   6.416  10.254  0.1048 -0.9816 -0.1336
29265SOL    HW192733   9.769   6.376  10.234  0.2703  0.0886 -1.7101
29265SOL    HW292734   9.623   6.373  10.195 -0.2417 -0.9014  0.1632
29266SOL     OW92735   1.822   3.381   9.659  0.4208  0.3211 -0.0448
29266SOL    HW192736   1.871   3.416   9.586  0.2845 -1.1641 -0.8954
29266SOL    HW292737   1.833   3.286   9.653 -1.6156 -0.0044  0.3792
29267SOL     OW92738   7.504  10.801   3.714  0.1138 -0.0305 -0.5317
29267SOL    HW192739   7.553  10.784   3.634 -0.8029  1.5555 -1.4793
29267SOL    HW292740   7.571  10.809   3.782  0.9288 -0.9751 -1.1877
29268SOL     OW92741   0.373   4.711   1.014  0.3021  0.1459  0.2223
29268SOL    HW192742   0.442   4.644   1.013 -1.0751 -1.3518 -0.9086
29268SOL    HW292743   0.355   4.727   0.921  0.6597  2.2069  0.4653
29269SOL     OW92744   9.969   8.430  10.658  0.3355  0.5912 -0.7975
29269SOL    HW192745  10.051   8.438  10.609  0.5196  0.3862 -0.5268
29269SOL    HW292746   9.994   8.437  10.750 -0.0915  1.6079 -0.7456
29270SOL     OW92747   5.590   3.265   1.534 -0.0071  0.0375  0.1880
29270SOL    HW192748   5.640   3.200   1.484  1.7827 -0.6272  2.6274
29270SOL    HW292749   5.503   3.227   1.544  0.0066 -0.4090 -1.2547
29271SOL     OW92750   4.277   6.574   9.457 -0.1081  0.3993 -0.4810
29271SOL    HW192751   4.251   6.527   9.536  0.0575 -0.5942 -0.9991
29271SOL    HW292752   4.318   6.507   9.402 -0.7685  0.9237 -1.6593
29272SOL     OW92753   8.879   3.157   4.953  0.5959  0.6935 -0.2493
29272SOL    HW192754   8.926   3.077   4.977 -0.0684  1.0426  2.6690
29272SOL    HW292755   8.933   3.227   4.990  0.3194  1.4857 -1.3095
29273SOL     OW92756  10.458   8.398  11.323 -0.1835 -0.3271 -0.4119
29273SOL    HW192757  10.469   8.426  11.415  0.4101  2.0621 -1.1327
29273SOL    HW292758  10.442   8.304  11.329 -1.8848  0.0047  2.2591
29274SOL     OW92759   8.395   2.260   6.362 -0.0590 -0.1931 -0.3623
29274SOL    HW192760   8.472   2.308   6.391 -0.9075  1.5063 -0.7668
29274SOL    HW292761   8.352   2.233   6.443  0.0888  0.3243 -0.1062
29275SOL     OW92762   2.573   0.474   7.147  0.1382  0.1676  0.8149
29275SOL    HW192763   2.506   0.406   7.138 -0.2690  0.1949  3.0835
29275SOL    HW292764   2.656   0.429   7.131 -0.3181 -0.0927 -0.9860
29276SOL     OW92765  10.602   6.494   9.678 -0.1962  0.1781  0.8347
29276SOL    HW192766  10.507   6.506   9.686 -0.1005  0.9803  0.8320
29276SOL    HW292767  10.631   6.467   9.765 -0.3153  0.7334  1.0481
29277SOL     OW92768  11.060  11.607   8.800  0.1994  0.7505 -0.8400
29277SOL    HW192769  11.079  11.597   8.706 -0.3136 -1.8322 -0.7283
29277SOL    HW292770  11.106  11.535   8.842 -2.4258 -0.2931  0.4735
29278SOL     OW92771   4.916   9.564   7.254  0.2201  0.2883 -0.8263
29278SOL    HW192772   4.859   9.505   7.305 -0.5279  0.9490 -0.8832
29278SOL    HW292773   4.873   9.571   7.169  1.0536 -0.1864 -1.2987
29279SOL     OW92774   6.416   8.482   2.914  0.4605 -0.0364 -0.2409
29279SOL    HW192775   6.367   8.516   2.990  0.9854  2.1729 -0.8054
29279SOL    HW292776   6.384   8.393   2.903 -1.3736  0.3790  1.1306
29280SOL     OW92777   8.763   4.517   6.722 -0.3486  0.1167 -0.1624
29280SOL    HW192778   8.729   4.517   6.811  1.2755  0.7265  0.4963
29280SOL    HW292779   8.704   4.574   6.673 -0.1913  1.3165  0.9884
29281SOL     OW92780   5.772   4.204   6.488 -0.2375 -0.0383  0.6747
29281SOL    HW192781   5.707   4.178   6.422  0.3728 -0.6075  0.2927
29281SOL    HW292782   5.734   4.176   6.571 -0.3474 -0.6431  0.4258
29282SOL     OW92783   9.987   7.362  11.634 -0.2466  0.5099  0.1179
29282SOL    HW192784  10.040   7.438  11.661  0.5408 -0.1709  0.5204
29282SOL    HW292785   9.962   7.320  11.716  0.7784 -0.6493 -0.1504
29283SOL     OW92786   4.696   9.555  10.409  0.1499  0.2371  0.0940
29283SOL    HW192787   4.735   9.479  10.451 -0.0023 -0.1366 -0.4455
29283SOL    HW292788   4.661   9.607  10.482 -1.1257 -0.9608  0.3728
29284SOL     OW92789   1.081   6.173   4.559  0.9329 -0.5990 -0.9218
29284SOL    HW192790   1.002   6.121   4.576  0.7128  0.3318  1.3358
29284SOL    HW292791   1.142   6.146   4.628  1.3144  1.1030 -0.5479
29285SOL     OW92792   7.715   2.316   1.689 -0.6685 -0.4644 -0.3273
29285SOL    HW192793   7.808   2.314   1.666 -0.8460  1.0920 -1.3326
29285SOL    HW292794   7.672   2.268   1.617 -0.8363  0.7954 -1.0876
29286SOL     OW92795   5.117   1.931   1.998 -0.0636  0.5957 -0.4308
29286SOL    HW192796   5.063   1.976   2.063 -0.6916 -0.2465 -0.3577
29286SOL    HW292797   5.163   2.001   1.953 -1.3857  1.3590 -0.6379
29287SOL     OW92798   7.212   9.966   9.373 -0.2212  0.2493  0.2156
29287SOL    HW192799   7.306   9.984   9.379  0.0059 -0.5054 -0.7358
29287SOL    HW292800   7.197   9.900   9.441 -0.0863  0.4538  0.4471
29288SOL     OW92801   5.722   6.799  11.081  0.3154  0.2671  0.5658
29288SOL    HW192802   5.691   6.886  11.106 -0.9355  0.5993 -1.8614
29288SOL    HW292803   5.646   6.743  11.092  0.7598 -0.2748  0.9046
29289SOL     OW92804   4.819   6.260   0.112  0.6431 -0.4830  0.7340
29289SOL    HW192805   4.767   6.326   0.157  0.7145 -0.2631  0.4964
29289SOL    HW292806   4.863   6.212   0.183  2.4182  1.2148  0.8742
29290SOL     OW92807   8.308  11.266   8.677  0.1860  0.3109  0.0498
29290SOL    HW192808   8.356  11.211   8.738 -0.1946  0.0017  0.0697
29290SOL    HW292809   8.373  11.329   8.646  0.7650 -0.4971 -0.4098
29291SOL     OW92810   1.246   7.444   1.014  0.6758  0.4092  0.6077
29291SOL    HW192811   1.334   7.465   1.044  1.2006 -0.3286 -0.3638
29291SOL    HW292812   1.190   7.509   1.057  1.9576  2.4547 -0.6355
29292SOL     OW92813   2.963  10.456  10.113  0.2504 -0.0744 -0.2157
29292SOL    HW192814   2.954  10.411  10.196 -0.8463  0.3749 -0.0635
29292SOL    HW292815   3.018  10.399  10.059  1.0162 -0.3370  0.8291
29293SOL     OW92816   1.313  11.113   6.316 -0.1336  0.0752  0.5399
29293SOL    HW192817   1.306  11.188   6.375 -0.9476  1.3039 -1.0251
29293SOL    HW292818   1.328  11.038   6.373  1.6495  1.5357  2.1190
29294SOL     OW92819   5.309   9.244   2.681  0.4828 -0.4607 -0.5533
29294SOL    HW192820   5.393   9.224   2.640  0.2436 -2.3876 -0.2069
29294SOL    HW292821   5.282   9.162   2.721 -0.1814  0.8775  1.9108
29295SOL     OW92822   5.620   1.506   2.049 -0.1202 -0.1315 -0.1098
29295SOL    HW192823   5.626   1.417   2.013 -1.0183  0.7765 -2.7375
29295SOL    HW292824   5.575   1.495   2.133 -0.4730 -2.1314 -0.5157
29296SOL     OW92825   7.628   6.449   2.279 -0.3241  0.0094 -0.1459
29296SOL    HW192826   7.545   6.486   2.248 -0.5686 -1.3855 -1.3075
29296SOL    HW292827   7.602   6.383   2.343 -0.1682 -0.6628 -0.7523
29297SOL     OW92828   2.864  11.561   2.249  0.0842 -0.2194 -0.0485
29297SOL    HW192829   2.906  11.500   2.188 -0.3180 -1.0034  0.4432
29297SOL    HW292830   2.864  11.515   2.333 -1.0849  0.0623  0.1193
29298SOL     OW92831   2.290  11.379  10.824 -0.3210  0.4629  0.4485
29298SOL    HW192832   2.297  11.318  10.898  0.4388  0.6980  0.5824
29298SOL    HW292833   2.286  11.322  10.747  1.4087  0.2124  0.4912
29299SOL     OW92834   8.596   1.566   4.483 -0.0118 -0.3536 -0.0208
29299SOL    HW192835   8.643   1.501   4.535  2.2847  1.0114 -0.2366
29299SOL    HW292836   8.520   1.519   4.448 -0.2625 -1.9795  2.4848
29300SOL     OW92837   3.196   2.592   7.450  0.1956 -0.2680  0.5143
29300SOL    HW192838   3.158   2.549   7.374  2.9460 -0.0130 -1.1397
29300SOL    HW292839   3.172   2.536   7.524 -0.0555 -2.2009 -0.9533
29301SOL     OW92840   0.554   5.753   1.570 -0.4916  0.3504 -0.4323
29301SOL    HW192841   0.508   5.680   1.527 -0.2694 -0.2725  0.3580
29301SOL    HW292842   0.521   5.752   1.660 -0.7530  1.4667 -0.5002
29302SOL     OW92843   7.063   4.704  10.269  1.1896 -0.5256 -0.0761
29302SOL    HW192844   7.156   4.681  10.280  1.5773  0.7997 -0.4417
29302SOL    HW292845   7.061   4.799  10.278  0.1670 -0.3028 -2.1258
29303SOL     OW92846   1.989   5.217   1.682  0.1124 -0.4013 -0.0215
29303SOL    HW192847   1.987   5.156   1.608 -2.5151 -0.1682 -0.2412
29303SOL    HW292848   1.913   5.273   1.668  2.2452  2.8284  0.3061
29304SOL     OW92849  11.391   4.264   3.421 -0.3118  0.3921  0.2188
29304SOL    HW192850  11.348   4.191   3.377  0.3676  1.2701 -2.0714
29304SOL    HW292851  11.336   4.340   3.401  0.3023  0.9076  0.4296
29305SOL     OW92852   1.054   9.993   2.755  0.4664 -0.0781  0.1155
29305SOL    HW192853   1.039   9.904   2.722 -0.4717 -0.4049  1.3309
29305SOL    HW292854   1.035   9.987   2.849 -0.4835  1.5948  0.0690
29306SOL     OW92855  10.813   9.559   2.609  0.0232 -0.9636  0.2819
29306SOL    HW192856  10.739   9.608   2.645  1.0258  0.1538  0.8938
29306SOL    HW292857  10.788   9.467   2.618  0.1123 -0.7681  3.7710
29307SOL     OW92858   7.427   7.592   7.211  0.5447 -0.3658  0.1584
29307SOL    HW192859   7.399   7.512   7.166  2.1623 -0.9563  0.1351
29307SOL    HW292860   7.426   7.659   7.143 -0.4425 -0.4267  0.0904
29308SOL     OW92861   4.774  10.227   8.882  0.3815 -0.7886  0.1145
29308SOL    HW192862   4.795  10.179   8.962 -0.3278  0.1490  0.8796
29308SOL    HW292863   4.831  10.303   8.885 -0.7027  0.0302  0.5087
29309SOL     OW92864  11.683   1.693   4.037 -0.2693 -0.1766 -0.2230
29309SOL    HW192865  11.723   1.631   3.976  2.2875 -0.2116  1.3283
29309SOL    HW292866  11.719   1.777   4.012 -0.2631  0.0100  0.4107
29310SOL     OW92867   0.550   9.255   0.472 -0.2536 -0.1588 -0.2414
29310SOL    HW192868   0.632   9.219   0.505 -0.2135  1.1290  1.1483
29310SOL    HW292869   0.552   9.236   0.378  1.6068 -0.1931 -0.2335
29311SOL     OW92870   5.356   9.082  10.376  0.1863  0.4040 -0.9098
29311SOL    HW192871   5.282   9.059  10.320 -1.0951 -0.0843  0.8908
29311SOL    HW292872   5.347   9.025  10.452  1.7034  1.2262 -0.0649
29312SOL     OW92873   8.482   1.848   3.381 -0.3695 -0.3535 -0.4543
29312SOL    HW192874   8.402   1.897   3.364 -1.6275 -2.4849 -1.1077
29312SOL    HW292875   8.528   1.849   3.297  0.6048  1.3067  0.0556
29313SOL     OW92876   5.755   3.488   6.652 -0.3402 -0.8638  0.0172
29313SOL    HW192877   5.747   3.583   6.658 -3.1440 -0.9291 -1.1038
29313SOL    HW292878   5.841   3.474   6.611  0.0468  1.1595  0.0132
29314SOL     OW92879  11.494   7.434  10.109  0.9353 -0.2896  0.2727
29314SOL    HW192880  11.399   7.447  10.111  1.1726  2.0420 -0.5449
29314SOL    HW292881  11.509   7.360  10.168 -1.2764  0.0254  1.3433
29315SOL     OW92882   3.870  11.427   9.155 -0.6280 -0.3828 -0.0478
29315SOL    HW192883   3.934  11.393   9.218  0.3625  1.1116 -0.2056
29315SOL    HW292884   3.921  11.441   9.075 -1.5134 -0.6666 -0.6657
29316SOL     OW92885   7.303   3.273   3.230 -0.1988  0.4431 -0.1194
29316SOL    HW192886   7.282   3.185   3.261  1.6989 -0.3976 -1.0406
29316SOL    HW292887   7.341   3.318   3.305 -3.1623  1.2948  0.9830
29317SOL     OW92888  10.408   7.760   9.157 -0.1173  0.6653 -0.1705
29317SOL    HW192889  10.436   7.845   9.123 -0.2066  0.3986 -0.9312
29317SOL    HW292890  10.322   7.776   9.194 -0.1476  0.9064 -0.3419
29318SOL     OW92891   6.451   5.893   4.989 -0.0465 -0.3656 -0.0222
29318SOL    HW192892   6.381   5.910   4.925 -0.4909  0.0818  0.5743
29318SOL    HW292893   6.532   5.901   4.938 -0.3884  0.1102 -0.5048
29319SOL     OW92894   9.939   7.069   8.823  0.4141 -0.3054 -0.2619
29319SOL    HW192895   9.856   7.116   8.814 -0.2586 -1.7060 -2.3411
29319SOL    HW292896   9.940   7.038   8.913  0.0698  2.1108  0.6418
29320SOL     OW92897   4.949  11.598   9.987  0.4393  0.7310 -0.1214
29320SOL    HW192898   5.043  11.588  10.001  0.3224  1.2085  1.1424
29320SOL    HW292899   4.923  11.520   9.939  1.3940  0.3214  0.0178
29321SOL     OW92900   7.666   9.739   5.848  0.5977  0.2509 -0.2850
29321SOL    HW192901   7.606   9.724   5.920  0.7173  1.6926  0.1470
29321SOL    HW292902   7.646   9.670   5.785 -1.5181  0.6999 -0.1554
29322SOL     OW92903   4.579  11.503   4.541  0.1777  0.4444  0.0058
29322SOL    HW192904   4.506  11.561   4.519  0.7288  0.8364 -0.8243
29322SOL    HW292905   4.539  11.416   4.546 -0.7412  0.9136  1.7149
29323SOL     OW92906   4.520   4.141   7.879 -0.1230 -0.2432  0.4173
29323SOL    HW192907   4.529   4.051   7.848  0.4504  0.0240 -0.2155
29323SOL    HW292908   4.437   4.142   7.927  0.5296 -1.4463  1.6474
29324SOL     OW92909   2.389   0.054   2.154 -0.6940  0.0743 -0.2157
29324SOL    HW192910   2.398  -0.041   2.144  0.4001 -0.1039  1.8406
29324SOL    HW292911   2.471   0.089   2.120 -0.1623  0.0623  0.9866
29325SOL     OW92912   8.924   8.416   6.354  0.0675 -0.6009  0.1823
29325SOL    HW192913   8.902   8.429   6.447 -0.6518 -1.0894  0.0927
29325SOL    HW292914   8.848   8.452   6.307  0.6246  0.0437 -0.2349
29326SOL     OW92915   2.006   1.651  10.519 -0.1323  0.0782 -1.0663
29326SOL    HW192916   1.951   1.623  10.593 -0.3678 -1.3454 -1.7438
29326SOL    HW292917   2.028   1.742  10.539 -1.4407  0.1989  0.0080
29327SOL     OW92918   4.755   1.350   9.499  0.1846 -0.1850  0.7182
29327SOL    HW192919   4.691   1.405   9.543  1.1801  2.1509 -0.5668
29327SOL    HW292920   4.840   1.383   9.530  0.8229 -1.5163  0.4680
29328SOL     OW92921   3.116  10.541   7.626  0.2502  0.1561  0.8102
29328SOL    HW192922   3.173  10.525   7.702  0.8890  1.0346  0.5372
29328SOL    HW292923   3.169  10.595   7.568 -0.3500 -0.2521 -0.1312
29329SOL     OW92924   5.326  11.551   2.852 -0.5566  0.0460  0.3698
29329SOL    HW192925   5.329  11.468   2.805 -0.6559  0.3500 -0.1787
29329SOL    HW292926   5.239  11.585   2.835 -0.4284  0.3848  0.3838
29330SOL     OW92927   4.954   4.577   1.111  0.9840  0.2312 -0.1564
29330SOL    HW192928   4.972   4.671   1.114  1.2070  0.1814  0.1220
29330SOL    HW292929   4.947   4.552   1.204 -0.7058  0.2905 -0.2265
29331SOL     OW92930   9.435   4.134   8.362  0.1296  0.7958 -0.3916
29331SOL    HW192931   9.408   4.226   8.355 -1.7630  0.2874 -0.3863
29331SOL    HW292932   9.385   4.100   8.436 -0.4532 -0.6263 -1.3862
29332SOL     OW92933   3.414   7.465  11.503 -0.2538 -0.1863 -0.4955
29332SOL    HW192934   3.322   7.490  11.517 -0.3221  1.2959 -3.0201
29332SOL    HW292935   3.425   7.386  11.556 -2.6936  0.1273  0.6489
29333SOL     OW92936   1.064   6.256   6.853 -0.1667  0.8190  0.1565
29333SOL    HW192937   1.136   6.281   6.795 -0.9933  2.0676 -0.3752
29333SOL    HW292938   0.985   6.274   6.802 -0.9134  1.5873  1.5311
29334SOL     OW92939  10.030   5.365   3.512 -0.0563 -1.0973  0.5096
29334SOL    HW192940  10.050   5.412   3.431  0.9876 -0.1610  1.2726
29334SOL    HW292941   9.956   5.308   3.490 -2.3733  1.8972 -0.1369
29335SOL     OW92942   7.853  11.183   4.022 -0.1945  0.3284 -0.1652
29335SOL    HW192943   7.897  11.193   3.937  0.9855 -2.0537  0.0705
29335SOL    HW292944   7.913  11.223   4.084 -0.6606  1.3279 -0.3465
29336SOL     OW92945   5.837   0.844   7.037 -0.3473  0.5002  0.6292
29336SOL    HW192946   5.878   0.773   7.087  0.2855  1.5375  1.6262
29336SOL    HW292947   5.855   0.822   6.945  0.8065 -0.0625  0.9701
29337SOL     OW92948   0.273   4.122   9.450 -0.0041  0.5758 -0.2974
29337SOL    HW192949   0.306   4.101   9.537  2.1067  2.4941 -0.5230
29337SOL    HW292950   0.220   4.201   9.462  0.2094  0.7879 -0.6904
29338SOL     OW92951   1.221   8.776  10.224 -0.4744 -0.2726  0.0466
29338SOL    HW192952   1.148   8.740  10.274  1.5396 -1.8810  2.0703
29338SOL    HW292953   1.217   8.731  10.140 -1.5537 -0.6273  0.2719
29339SOL     OW92954   1.592   5.846   7.980 -0.8077  0.1031 -0.3280
29339SOL    HW192955   1.682   5.872   7.961 -1.4822  1.2370 -2.2396
29339SOL    HW292956   1.584   5.854   8.075  0.6829  1.3814 -0.2758
29340SOL     OW92957   8.449   3.446   1.366 -0.1832 -0.2614 -0.6846
29340SOL    HW192958   8.430   3.478   1.278  1.2516 -1.4223 -1.4708
29340SOL    HW292959   8.461   3.352   1.354 -0.4913 -0.5161  0.8671
29341SOL     OW92960   2.469   9.632  11.684  0.0290  0.1016 -0.5249
29341SOL    HW192961   2.386   9.667  11.652 -0.2064  1.1914  1.1658
29341SOL    HW292962   2.536   9.691  11.649 -0.0133 -0.0265 -0.8271
29342SOL     OW92963   0.725   1.672   9.711 -0.5742 -0.7088 -0.3969
29342SOL    HW192964   0.818   1.686   9.732 -0.9128  1.5621 -0.1792
29342SOL    HW292965   0.717   1.700   9.620 -1.1730 -0.1683 -0.1858
29343SOL     OW92966   8.844  10.015   0.138 -0.3932 -0.2590  0.3993
29343SOL    HW192967   8.865  10.102   0.172  1.3629 -0.3217 -0.3760
29343SOL    HW292968   8.855   9.957   0.214  2.2874 -0.2440  0.1203
29344SOL     OW92969   1.591   5.348   7.247 -0.0756  0.2927  0.1488
29344SOL    HW192970   1.591   5.317   7.338 -0.8749  0.4036  0.1901
29344SOL    HW292971   1.648   5.286   7.201  0.4621  0.3257  0.7528
29345SOL     OW92972   6.941  10.591   4.782  0.2200 -0.1694 -0.0614
29345SOL    HW192973   6.966  10.576   4.690  1.8210 -4.1453  0.8472
29345SOL    HW292974   7.002  10.658   4.812  1.9338 -1.2057 -1.0793
29346SOL     OW92975   6.067   6.365   8.840  0.0652  0.7907  0.1255
29346SOL    HW192976   6.045   6.331   8.754 -0.0491  0.5858  0.2349
29346SOL    HW292977   6.043   6.295   8.901 -0.3428  1.1374  0.3676
29347SOL     OW92978   1.854   0.058   5.140 -0.3671  0.2087  0.5675
29347SOL    HW192979   1.906  -0.020   5.160 -0.8756 -0.6482 -1.2493
29347SOL    HW292980   1.800   0.032   5.065 -0.7799  2.2220  0.1249
29348SOL     OW92981   3.055  11.613   1.684  0.3303 -0.1438 -0.1024
29348SOL    HW192982   3.142  11.591   1.649  0.1115  0.2792 -0.9303
29348SOL    HW292983   2.994  11.577   1.620 -0.0642  1.6342 -0.7877
29349SOL     OW92984  10.279   3.147  11.688  0.0496  0.1196  0.2354
29349SOL    HW192985  10.280   3.224  11.744 -0.5290  0.2182  0.1179
29349SOL    HW292986  10.336   3.084  11.732 -1.9161 -0.5558  2.0262
29350SOL     OW92987   5.156   3.718   2.099  0.3312 -0.0295  0.1922
29350SOL    HW192988   5.177   3.730   2.191  1.0461  1.7759 -0.1492
29350SOL    HW292989   5.119   3.630   2.093  0.0954 -0.1038  2.2148
29351SOL     OW92990   8.100   2.298   2.697  0.0831  0.1239  0.1159
29351SOL    HW192991   8.143   2.223   2.740 -0.0230  0.3871  0.6901
29351SOL    HW292992   8.039   2.332   2.763 -1.0606 -0.2738 -0.6992
29352SOL     OW92993   4.586   7.500   3.577  0.0096  0.4025 -0.1989
29352SOL    HW192994   4.534   7.462   3.647  1.7179 -1.1053  0.3433
29352SOL    HW292995   4.530   7.567   3.538 -0.4691  2.4640  3.5938
29353SOL     OW92996   7.555   4.285   6.774  0.0203  0.4053 -1.0572
29353SOL    HW192997   7.623   4.226   6.807  0.4213  1.1059 -0.5981
29353SOL    HW292998   7.504   4.232   6.714 -0.8651 -0.9958  0.8273
29354SOL     OW92999   7.964   7.544   0.503  0.3485  0.1401 -0.2604
29354SOL    HW193000   7.962   7.543   0.407 -1.6727 -2.1648 -0.2750
29354SOL    HW293001   8.057   7.533   0.525  0.6394 -1.2902 -1.9938
29355SOL     OW93002   0.015   7.654   3.172  0.1060 -0.8236  0.2409
29355SOL    HW193003   0.044   7.605   3.249 -2.2446 -2.3631  0.2611
29355SOL    HW293004  -0.001   7.743   3.204 -0.6665 -1.4023  1.5181
29356SOL     OW93005   6.476   8.476   1.469 -0.0871 -0.2280 -0.1060
29356SOL    HW193006   6.386   8.485   1.437  0.0732 -0.6746 -0.7154
29356SOL    HW293007   6.486   8.545   1.533 -1.0448 -0.5151  0.3723
29357SOL     OW93008   7.262   6.162   9.046 -0.5256  0.4714 -0.7103
29357SOL    HW193009   7.201   6.217   9.095 -0.5171  2.9722 -3.2725
29357SOL    HW293010   7.220   6.077   9.042 -2.1092  1.1423  0.6488
29358SOL     OW93011   4.861   4.799   2.080  0.2179 -0.5392  0.1059
29358SOL    HW193012   4.904   4.731   2.028  0.0488 -0.2013 -0.4779
29358SOL    HW293013   4.933   4.854   2.111  0.1717  0.6727 -1.7751
29359SOL     OW93014   1.964   0.384   9.808  0.4743 -0.2531 -0.0107
29359SOL    HW193015   1.965   0.471   9.769 -0.5139 -0.0134  0.4544
29359SOL    HW293016   1.944   0.399   9.901  1.6988 -0.8862  0.3785
29360SOL     OW93017   0.587  11.651  11.155  0.6063 -0.5030 -0.2117
29360SOL    HW193018   0.645  11.642  11.079  0.0008  0.1018 -0.7546
29360SOL    HW293019   0.618  11.584  11.217  1.8371 -0.2280 -0.5126
29361SOL     OW93020   4.079   4.629   0.520  0.6614  0.1701  0.5327
29361SOL    HW193021   4.172   4.649   0.517  0.6580  0.1362  0.1475
29361SOL    HW293022   4.062   4.605   0.612  1.0416  0.1098  0.5874
29362SOL     OW93023  10.847  11.351   8.744  0.6244 -0.3664  0.0102
29362SOL    HW193024  10.781  11.419   8.759 -1.0508 -1.8942 -0.1909
29362SOL    HW293025  10.824  11.281   8.804  1.2884 -1.4625 -0.9745
29363SOL     OW93026   4.991   1.574   5.903 -0.8577  0.3108 -0.3076
29363SOL    HW193027   5.006   1.631   5.828 -0.6933  1.5595  0.6370
29363SOL    HW293028   5.059   1.598   5.966  2.3613 -4.1625 -1.5310
29364SOL     OW93029   2.494  10.743   5.488 -0.2885 -0.3179  0.1809
29364SOL    HW193030   2.480  10.824   5.438 -2.7263  0.2700  1.6118
29364SOL    HW293031   2.569  10.702   5.447 -0.3133  1.6003 -1.9992
29365SOL     OW93032   5.080   4.953   3.182 -0.0503 -0.4777  0.1503
29365SOL    HW193033   5.144   4.981   3.117 -1.4112 -0.0856 -1.0527
29365SOL    HW293034   5.132   4.904   3.246  1.3125 -0.9170 -1.2308
29366SOL     OW93035   0.763   3.482  11.015  0.0678 -0.0901  0.0691
29366SOL    HW193036   0.805   3.507  10.934 -0.5777 -0.2545 -0.3280
29366SOL    HW293037   0.690   3.543  11.025 -1.7745 -1.9546 -1.1190
29367SOL     OW93038   3.594  11.487   7.932 -0.4734  0.4061 -0.6002
29367SOL    HW193039   3.636  11.401   7.944 -0.7659 -0.1062 -2.8589
29367SOL    HW293040   3.539  11.497   8.010 -0.8271 -1.7036 -0.5056
29368SOL     OW93041   2.349   3.199   1.044 -0.0364 -0.3854  0.0166
29368SOL    HW193042   2.361   3.182   0.951  0.2382  2.0444 -0.4590
29368SOL    HW293043   2.317   3.289   1.049 -0.1193 -0.4664  2.2651
29369SOL     OW93044   8.123   1.324  10.450 -0.5713  0.5393  0.4637
29369SOL    HW193045   8.128   1.233  10.480  0.0283  0.4323  0.0645
29369SOL    HW293046   8.036   1.333  10.411 -0.3719 -0.0633 -0.1290
29370SOL     OW93047   0.133  10.319   3.611 -0.6297  0.1469 -0.4684
29370SOL    HW193048   0.130  10.263   3.689  0.6215  0.6257 -0.0485
29370SOL    HW293049   0.072  10.391   3.631 -0.7865 -0.0578 -0.1990
29371SOL     OW93050   0.589   9.110  11.324 -0.0143  0.6167  0.0544
29371SOL    HW193051   0.635   9.065  11.253 -1.0264  0.3220 -0.4313
29371SOL    HW293052   0.606   9.057  11.401 -1.1299 -0.5841 -0.4943
29372SOL     OW93053   1.218   1.771  10.635 -0.3778  0.2358 -0.2244
29372SOL    HW193054   1.232   1.708  10.564 -0.2655  0.7484 -0.6667
29372SOL    HW293055   1.302   1.775  10.681 -0.4203 -0.0260 -0.1276
29373SOL     OW93056   1.082   4.683   9.243  0.4729 -0.3444  0.3029
29373SOL    HW193057   1.154   4.674   9.305 -0.0662  0.0527  0.9986
29373SOL    HW293058   1.085   4.603   9.191  3.4750  0.9920 -1.9179
29374SOL     OW93059   7.659   7.676   0.911 -0.1527  0.2003 -0.3213
29374SOL    HW193060   7.626   7.680   1.001 -0.6805 -0.0655 -0.5003
29374SOL    HW293061   7.691   7.765   0.894 -0.5313  0.3920 -0.0494
29375SOL     OW93062  10.125   8.968   5.883 -0.0517 -0.2529 -0.1379
29375SOL    HW193063  10.211   8.929   5.898 -0.4188 -0.6643  1.0191
29375SOL    HW293064  10.076   8.901   5.835 -0.1144 -0.5310  0.3038
29376SOL     OW93065   1.191  11.670   9.754  0.0821  0.4675  0.9032
29376SOL    HW193066   1.154  11.759   9.756 -0.6198  0.2013  0.2325
29376SOL    HW293067   1.193  11.643   9.846  2.6256  2.0892  1.4309
29377SOL     OW93068   8.192   8.318  11.238 -0.4548  0.1684 -0.0208
29377SOL    HW193069   8.271   8.310  11.292  0.1603  0.0739 -0.9014
29377SOL    HW293070   8.197   8.244  11.177 -1.0252  0.3868 -0.3428
29378SOL     OW93071  10.979  11.630  10.950  0.7461  0.4554 -0.3382
29378SOL    HW193072  11.024  11.710  10.979 -0.4492  1.4104 -1.0288
29378SOL    HW293073  11.015  11.613  10.863 -0.8971  1.8428 -1.3625
29379SOL     OW93074   8.616   4.320   0.809  0.0084 -0.6525  0.3175
29379SOL    HW193075   8.590   4.228   0.803 -1.0339 -0.5905  2.7198
29379SOL    HW293076   8.543   4.362   0.855 -0.1184  1.6795 -1.8182
29380SOL     OW93077   0.784   1.101   0.647  0.3838 -0.3930 -0.2253
29380SOL    HW193078   0.735   1.019   0.643  1.2682 -0.9115 -0.4923
29380SOL    HW293079   0.793   1.128   0.555 -0.5335  0.3880 -0.0974
29381SOL     OW93080   6.146   4.807   1.006 -0.6463  0.3774 -0.4212
29381SOL    HW193081   6.226   4.813   0.953 -1.1084  2.2155 -0.9830
29381SOL    HW293082   6.100   4.730   0.972  1.6234 -1.8287  1.0765
29382SOL     OW93083   9.079   3.542   9.264 -0.2415 -0.4836 -0.3199
29382SOL    HW193084   9.054   3.611   9.202 -0.3807 -0.1359  0.1193
29382SOL    HW293085   9.005   3.536   9.324 -0.7216 -1.7827 -0.9879
29383SOL     OW93086   3.866   3.759  11.489 -0.1950  0.4682 -0.0578
29383SOL    HW193087   3.889   3.708  11.567 -0.1876  3.5818  2.1725
29383SOL    HW293088   3.771   3.760  11.488 -0.2165  1.4157  0.7166
29384SOL     OW93089   1.501   0.855   6.113 -0.2687 -0.0314 -0.3416
29384SOL    HW193090   1.424   0.813   6.152 -0.1610  0.2153  0.1392
29384SOL    HW293091   1.551   0.783   6.076 -0.9551 -0.1536 -1.0698
29385SOL     OW93092  10.652   5.194   0.464 -0.3366 -0.2993  0.4705
29385SOL    HW193093  10.680   5.248   0.390 -2.4319 -0.9129 -0.8467
29385SOL    HW293094  10.734   5.170   0.508  0.7567  3.1019  0.5823
29386SOL     OW93095  10.079   8.930  10.600 -0.2958  0.4985 -0.1948
29386SOL    HW193096  10.034   9.001  10.555 -2.1670 -1.7532 -2.1839
29386SOL    HW293097  10.151   8.972  10.647 -0.6985  3.5318 -2.0582
29387SOL     OW93098   9.280   3.304  11.172 -0.4858  0.1763  0.3007
29387SOL    HW193099   9.373   3.326  11.168 -0.6577  0.7757 -0.6134
29387SOL    HW293100   9.245   3.358  11.244 -0.3318  0.7456 -0.0473
29388SOL     OW93101   4.255   0.224   3.827  0.7187  0.0448  0.4033
29388SOL    HW193102   4.197   0.295   3.799  0.4296  0.2486  1.4541
29388SOL    HW293103   4.323   0.267   3.879  3.8067  0.2772 -3.3980
29389SOL     OW93104  11.084  10.808   0.319 -0.1409  0.3222  0.0468
29389SOL    HW193105  11.152  10.752   0.281  0.1009 -0.1096  1.0791
29389SOL    HW293106  11.070  10.876   0.254  0.7612 -0.0064 -0.5091
29390SOL     OW93107   7.352   2.105   6.352  0.3790  0.3129 -0.3871
29390SOL    HW193108   7.346   2.013   6.379 -2.3983  0.4034 -0.4180
29390SOL    HW293109   7.268   2.123   6.311  0.8761  2.8767 -0.4027
29391SOL     OW93110   6.905  11.396   9.080  0.0031 -0.1572  0.4251
29391SOL    HW193111   6.835  11.461   9.085 -0.0068 -0.1063 -0.2773
29391SOL    HW293112   6.986  11.448   9.083  0.0405  0.2157 -2.8386
29392SOL     OW93113   9.808   3.254   2.319 -0.4158  0.9038 -0.2455
29392SOL    HW193114   9.730   3.200   2.334  0.1403  0.2106  0.2339
29392SOL    HW293115   9.850   3.261   2.405  0.8837 -0.0787 -0.7476
29393SOL     OW93116   5.864   0.722   9.134  0.4119 -0.0284  0.4368
29393SOL    HW193117   5.830   0.645   9.181 -0.7938 -0.4233 -1.0005
29393SOL    HW293118   5.880   0.690   9.045  2.2910  0.7921  0.4396
29394SOL     OW93119   0.642  10.936   2.890 -0.1795  0.7023 -0.5935
29394SOL    HW193120   0.646  10.841   2.881  0.0916  0.6611 -0.1059
29394SOL    HW293121   0.725  10.967   2.855 -0.1657  0.7407 -0.5267
29395SOL     OW93122   3.948   1.034   6.559  0.4615 -0.0746  0.6770
29395SOL    HW193123   3.989   1.039   6.646  0.2617 -0.2249  0.7801
29395SOL    HW293124   3.993   1.101   6.508  2.0736 -1.3907  0.2693
29396SOL     OW93125   4.091   9.895  11.455  0.4253 -0.2206 -0.8928
29396SOL    HW193126   4.154   9.944  11.508  0.4704 -1.4565  0.2368
29396SOL    HW293127   4.126   9.806  11.451 -0.6442 -0.6424 -1.2681
29397SOL     OW93128   7.997   2.280   1.676 -0.6694  0.6575 -0.2949
29397SOL    HW193129   8.046   2.360   1.653  1.5178 -1.4363 -3.8276
29397SOL    HW293130   8.062   2.223   1.716 -1.5559 -0.3743 -0.2973
29398SOL     OW93131   7.356   7.755   7.443  0.0523  0.5290 -0.2372
29398SOL    HW193132   7.261   7.754   7.450  0.0780  0.0190  0.0300
29398SOL    HW293133   7.374   7.718   7.356  0.0879 -1.6325  0.6330
29399SOL     OW93134  10.471   9.228  11.313 -0.1574 -0.7738  0.2878
29399SOL    HW193135  10.525   9.166  11.265  2.6497  0.6745  1.3594
29399SOL    HW293136  10.520   9.310  11.310 -3.1597  1.2014 -0.1155
29400SOL     OW93137  11.430   1.953   4.177 -0.0131 -0.1946  0.2690
29400SOL    HW193138  11.369   1.970   4.249 -0.2319 -0.8745  0.2532
29400SOL    HW293139  11.380   1.975   4.098 -1.0502 -2.8131  0.1073
29401SOL     OW93140  10.051   6.305   9.963 -0.2618  0.4730 -0.7663
29401SOL    HW193141  10.036   6.381   9.908 -1.0410  0.0944 -1.1005
29401SOL    HW293142  10.134   6.269   9.933 -0.1704  0.8709 -0.9897
29402SOL     OW93143   9.382   8.123   9.321 -0.7343 -0.8326 -0.4507
29402SOL    HW193144   9.373   8.136   9.227 -0.6674 -0.8135 -0.4551
29402SOL    HW293145   9.301   8.080   9.348 -1.5092  0.6900 -0.2282
29403SOL     OW93146   3.009   5.574   1.790 -0.0683 -0.1505  0.4665
29403SOL    HW193147   2.961   5.644   1.745 -0.7896  0.5649  2.2399
29403SOL    HW293148   3.078   5.620   1.839 -0.0463 -0.7590  1.0227
29404SOL     OW93149   5.228   8.213  10.072 -0.1274 -0.0102 -0.2718
29404SOL    HW193150   5.132   8.211  10.070 -0.1943 -0.5680  1.5332
29404SOL    HW293151   5.252   8.147  10.137  1.4943  0.1674 -0.6403
29405SOL     OW93152   5.109   1.921   7.808  0.1135  0.4187  0.5306
29405SOL    HW193153   5.179   1.984   7.827 -0.0272  0.3497  1.3320
29405SOL    HW293154   5.032   1.975   7.789  0.2762  0.4944  0.0976
29406SOL     OW93155   7.620   2.031   0.530 -0.0369 -0.5782 -0.5426
29406SOL    HW193156   7.611   2.112   0.479 -0.8811  0.5405  1.2736
29406SOL    HW293157   7.576   1.965   0.478  0.6099  0.1202 -2.0469
29407SOL     OW93158   3.745   1.053   0.577 -0.4809  0.6136  0.1431
29407SOL    HW193159   3.811   1.109   0.617 -0.3039  0.4262  0.1112
29407SOL    HW293160   3.711   1.105   0.504 -0.5556  0.8134  0.3176
29408SOL     OW93161   0.292   5.780   0.863  0.5728 -0.3294 -0.0887
29408SOL    HW193162   0.213   5.729   0.883  0.2908  0.3737  0.6680
29408SOL    HW293163   0.320   5.748   0.778 -1.7080  0.7973 -1.3731
29409SOL     OW93164   8.336  11.549   1.199  0.1802 -0.1610  0.2819
29409SOL    HW193165   8.417  11.502   1.181  0.4537  0.8016 -1.1338
29409SOL    HW293166   8.266  11.487   1.178  0.5397 -0.0155 -1.5108
29410SOL     OW93167   1.206   5.689   5.732 -0.0527 -0.1649  0.0365
29410SOL    HW193168   1.147   5.701   5.658  1.0366 -1.6950 -1.1677
29410SOL    HW293169   1.157   5.720   5.808 -0.9196  2.1810 -1.3940
29411SOL     OW93170   5.838   1.749   5.373  0.3553 -0.0495  0.1976
29411SOL    HW193171   5.927   1.774   5.347  0.1329  0.2667 -0.2722
29411SOL    HW293172   5.840   1.654   5.376  0.9395 -0.0188  1.0248
29412SOL     OW93173  11.187   5.773   2.549 -0.1807  0.1034  0.6022
29412SOL    HW193174  11.135   5.694   2.564  1.7053 -1.1884  0.6474
29412SOL    HW293175  11.230   5.789   2.633  0.3909  0.4764  0.2362
29413SOL     OW93176   3.100   5.946   0.906 -0.1522 -0.4771  0.2583
29413SOL    HW193177   3.187   5.928   0.872 -0.5625  0.4947 -1.4216
29413SOL    HW293178   3.068   5.861   0.937 -0.5413 -2.0355 -3.8224
29414SOL     OW93179   7.133   1.177  11.092  0.1654  0.0696 -0.2377
29414SOL    HW193180   7.226   1.199  11.106  0.1998  0.0407 -0.4281
29414SOL    HW293181   7.099   1.250  11.039  0.7422 -1.2555 -2.5610
29415SOL     OW93182   3.162   3.549   8.972 -0.5115 -0.0078  0.2411
29415SOL    HW193183   3.247   3.589   8.957 -0.8916 -0.1050 -2.7996
29415SOL    HW293184   3.181   3.464   9.011  0.9338 -0.6754 -1.7810
29416SOL     OW93185   2.690   0.069   8.625  0.0052 -0.0406  0.6576
29416SOL    HW193186   2.660  -0.016   8.595  0.6623 -0.5124  1.3042
29416SOL    HW293187   2.659   0.131   8.558 -0.6375 -0.7544  0.2861
29417SOL     OW93188   0.563   6.175   4.510 -0.3749 -0.5359  0.4404
29417SOL    HW193189   0.610   6.230   4.572  0.9356 -0.6397 -0.4136
29417SOL    HW293190   0.620   6.099   4.498 -1.2762 -1.1855  0.1855
29418SOL     OW93191   0.559   8.489   4.519 -0.1159  0.5006  0.4026
29418SOL    HW193192   0.505   8.460   4.446 -1.4408  1.1559  1.0929
29418SOL    HW293193   0.555   8.585   4.515  0.8020  0.5574  0.6181
29419SOL     OW93194   9.472  11.122   3.690 -0.4964 -0.1007 -0.4386
29419SOL    HW193195   9.474  11.113   3.786 -1.3013  1.2307 -0.2709
29419SOL    HW293196   9.551  11.077   3.661 -0.3655 -0.7553  0.8304
29420SOL     OW93197   8.178  11.517  10.228 -0.1173  0.1050  0.0133
29420SOL    HW193198   8.103  11.547  10.176 -0.8547  0.9539  1.5074
29420SOL    HW293199   8.236  11.593  10.233 -0.3509  0.2301  0.9477
29421SOL     OW93200  11.576   8.606  10.381  0.1442  0.1053  0.4204
29421SOL    HW193201  11.648   8.572  10.435  0.8283  0.8473 -0.0067
29421SOL    HW293202  11.523   8.656  10.443  0.5746  0.4223  0.5425
29422SOL     OW93203   1.615  10.941   9.039  0.0637  0.0195 -0.2615
29422SOL    HW193204   1.646  10.903   9.121  0.8359  2.1933  0.5492
29422SOL    HW293205   1.521  10.926   9.039  0.2435 -1.2236  0.3178
29423SOL     OW93206   2.221   4.568   3.260  0.2750  0.0770 -0.2187
29423SOL    HW193207   2.125   4.571   3.263  0.2665 -0.8663  1.3544
29423SOL    HW293208   2.247   4.657   3.236 -0.9879  0.3397 -0.6698
29424SOL     OW93209   4.895   7.061  10.106 -0.4274 -0.3935 -0.6412
29424SOL    HW193210   4.843   7.129  10.063 -1.8370 -0.3873  0.9752
29424SOL    HW293211   4.893   7.085  10.199  0.2389 -1.8865 -0.2200
29425SOL     OW93212   0.624   3.749   2.077  0.3480 -1.0470 -0.0771
29425SOL    HW193213   0.676   3.795   2.011  0.9622 -1.4825  0.0980
29425SOL    HW293214   0.570   3.818   2.117 -0.4842 -0.8650 -1.4401
29426SOL     OW93215   8.792   0.367   0.061 -0.3384 -0.2957  0.0435
29426SOL    HW193216   8.885   0.354   0.042 -0.5421 -0.2759 -1.0325
29426SOL    HW293217   8.766   0.440   0.004 -1.5771 -1.8616 -1.4829
29427SOL     OW93218  10.512   4.876  10.115  0.1391  0.4386 -0.6052
29427SOL    HW193219  10.500   4.873  10.020  0.9435  1.3244 -0.7480
29427SOL    HW293220  10.464   4.800  10.147 -0.7487  0.5205 -1.6506
29428SOL     OW93221   1.563   3.436   0.384  0.0872 -0.0212 -0.5992
29428SOL    HW193222   1.607   3.361   0.343  2.9561  0.0421  2.0268
29428SOL    HW293223   1.482   3.399   0.419 -1.1856 -0.6098 -3.7538
29429SOL     OW93224   3.302   8.184   2.141  0.3375 -0.0427 -0.2153
29429SOL    HW193225   3.231   8.164   2.202  1.1516  0.6444  1.0023
29429SOL    HW293226   3.343   8.263   2.177  1.9352 -0.6273 -0.6803
29430SOL     OW93227   1.234   1.247   0.460  0.5891  0.2976 -0.4906
29430SOL    HW193228   1.221   1.153   0.452 -0.7455  0.5442 -1.7950
29430SOL    HW293229   1.234   1.264   0.554 -0.3090 -0.8764 -0.2569
29431SOL     OW93230  11.357   4.421   3.073  0.4447 -0.0141 -0.4065
29431SOL    HW193231  11.386   4.341   3.031  1.7516  0.2755 -0.0783
29431SOL    HW293232  11.317   4.473   3.003 -1.8507 -1.5672 -0.3508
29432SOL     OW93233   8.711   1.446   2.898  0.4357  0.0746  0.8888
29432SOL    HW193234   8.696   1.527   2.850  0.0120 -0.5114 -0.0029
29432SOL    HW293235   8.666   1.458   2.981  0.4351  0.7721  0.7932
29433SOL     OW93236   9.096   2.696   0.367  0.3754  0.3379 -0.2181
29433SOL    HW193237   9.003   2.678   0.381  0.9211 -1.7920  1.1293
29433SOL    HW293238   9.110   2.687   0.273 -0.8285  1.0581 -0.4788
29434SOL     OW93239  10.463   8.531  11.641  0.1440  0.7840  0.3497
29434SOL    HW193240  10.372   8.527  11.670  0.8472  0.8445  2.8439
29434SOL    HW293241  10.505   8.456  11.683  1.3685  1.1000 -0.2646
29435SOL     OW93242   1.011   3.885  11.056 -0.2021  0.6833  0.3937
29435SOL    HW193243   1.017   3.909  10.964 -0.0672 -1.3013 -0.1739
29435SOL    HW293244   1.098   3.901  11.092  0.2263 -0.0673 -0.2679
29436SOL     OW93245  10.952   8.421   9.960 -0.1195 -0.3101  0.0753
29436SOL    HW193246  11.000   8.348   9.922 -1.4805 -1.5278  0.5821
29436SOL    HW293247  10.904   8.383  10.034 -1.4521  0.9204 -0.0943
29437SOL     OW93248   9.059   5.341   9.358  0.5827 -0.0847  0.2455
29437SOL    HW193249   9.074   5.279   9.429 -1.5499 -0.0528  0.7797
29437SOL    HW293250   9.020   5.417   9.401  1.9396  1.1275 -0.5883
29438SOL     OW93251   5.824   0.574   1.502 -0.2991 -0.0632 -0.0872
29438SOL    HW193252   5.892   0.508   1.489  0.0344  0.6306 -2.3657
29438SOL    HW293253   5.743   0.531   1.476 -0.5380 -0.4330  1.2114
29439SOL     OW93254   7.239   6.360   0.777  0.4278 -0.3738  0.2970
29439SOL    HW193255   7.253   6.448   0.810  1.9830 -0.2875 -0.4799
29439SOL    HW293256   7.150   6.361   0.741  0.7000  1.1041 -0.3752
29440SOL     OW93257   6.121   3.038   1.421  0.2388 -0.3281  0.0924
29440SOL    HW193258   6.204   3.082   1.436  0.4732 -0.8092  0.2434
29440SOL    HW293259   6.144   2.961   1.369 -0.0519 -0.6840  0.4771
29441SOL     OW93260   8.231   3.766   2.625  0.0904 -0.3259 -0.0969
29441SOL    HW193261   8.260   3.816   2.701 -1.0179  0.9582 -0.4843
29441SOL    HW293262   8.259   3.676   2.644 -1.1017 -0.2666  2.3635
29442SOL     OW93263  10.595   3.645   7.506  0.0615 -0.3887  0.3651
29442SOL    HW193264  10.609   3.628   7.413  2.3257  0.2894  0.5102
29442SOL    HW293265  10.648   3.578   7.551  1.3675  1.0580  1.0708
29443SOL     OW93266   0.910  10.435   4.148  0.2274 -0.8689 -0.1267
29443SOL    HW193267   0.940  10.366   4.207  0.4708  1.3007  2.4648
29443SOL    HW293268   0.819  10.413   4.129  0.3959 -2.0637  0.3922
29444SOL     OW93269   0.994  11.445   7.381 -0.2827 -0.3045 -0.4454
29444SOL    HW193270   0.907  11.408   7.398  0.4621 -1.7723  0.3194
29444SOL    HW293271   1.019  11.412   7.295  0.6890 -2.3163  0.5380
29445SOL     OW93272   4.972  10.109   1.204 -0.0934  0.4751 -0.1193
29445SOL    HW193273   5.040  10.173   1.181  0.7328  0.0313  1.0062
29445SOL    HW293274   4.992  10.032   1.151 -0.9062  1.0273 -1.2486
29446SOL     OW93275   0.560   1.458   7.599  0.2034 -0.0635  0.6485
29446SOL    HW193276   0.591   1.487   7.514 -0.3773 -1.5779 -0.1212
29446SOL    HW293277   0.522   1.371   7.583 -2.3910  0.7347  1.9076
29447SOL     OW93278   4.430   0.553   0.442 -0.2118 -0.3061  0.3395
29447SOL    HW193279   4.336   0.558   0.461 -0.2908 -2.7521  0.8889
29447SOL    HW293280   4.470   0.615   0.504 -1.5019  1.8630 -0.8612
29448SOL     OW93281   8.735  10.406   3.252  0.0545 -0.1149 -0.1901
29448SOL    HW193282   8.737  10.381   3.159  0.0228 -1.2857  0.1123
29448SOL    HW293283   8.779  10.491   3.254  2.2709 -1.1635 -0.9664
29449SOL     OW93284  10.766  11.174   4.300 -0.5919 -0.0849  0.0714
29449SOL    HW193285  10.824  11.205   4.370 -0.9491  2.2030 -0.5404
29449SOL    HW293286  10.823  11.170   4.223 -0.9193  0.7611 -0.2211
29450SOL     OW93287   2.939   0.023   6.935 -0.2043  0.9857 -0.7029
29450SOL    HW193288   2.862   0.047   6.986  0.3027  2.2740 -0.4875
29450SOL    HW293289   2.936  -0.072   6.929 -1.4852  0.9779 -0.1970
29451SOL     OW93290   8.574   5.886   0.842  0.1897 -0.4455 -0.0627
29451SOL    HW193291   8.548   5.945   0.771  1.2783  1.3207  0.9246
29451SOL    HW293292   8.493   5.868   0.889 -0.7426 -2.4730 -2.2583
29452SOL     OW93293   1.018   4.643  10.005  0.0363 -0.0510 -0.1367
29452SOL    HW193294   1.111   4.619  10.006  0.3448  1.0500  0.1377
29452SOL    HW293295   1.003   4.676   9.916  0.6328  2.2488  0.5447
29453SOL     OW93296  11.637   9.681   3.352 -0.7730 -0.1823  0.6047
29453SOL    HW193297  11.609   9.761   3.397  1.1013  0.2389  1.0997
29453SOL    HW293298  11.674   9.712   3.269  0.6146 -0.4464  1.1098
29454SOL     OW93299  11.023   5.425   6.934  0.6173  0.5975 -0.3049
29454SOL    HW193300  11.061   5.340   6.955 -0.4194  0.3727  0.8412
29454SOL    HW293301  10.977   5.412   6.851 -0.0649 -0.1638  0.1702
29455SOL     OW93302   2.399   6.940   5.682  0.2928  0.2120 -0.1375
29455SOL    HW193303   2.420   6.962   5.773 -0.1623 -0.1586  0.0604
29455SOL    HW293304   2.443   7.008   5.630  0.0907  0.7509  0.3883
29456SOL     OW93305   7.859  11.491   8.666 -0.3976 -0.4754 -0.6727
29456SOL    HW193306   7.877  11.444   8.585  1.6205  0.1927 -0.6593
29456SOL    HW293307   7.853  11.423   8.733  1.1185 -0.8507 -0.8829
29457SOL     OW93308  10.480   5.350   8.946 -0.4360  0.0358 -0.1596
29457SOL    HW193309  10.412   5.313   8.889 -0.1490  1.5775 -1.5704
29457SOL    HW293310  10.473   5.444   8.933  1.1395  0.2881  0.6640
29458SOL     OW93311   0.733   0.553   2.201 -0.3609  0.1627 -0.2840
29458SOL    HW193312   0.738   0.502   2.282  0.4910 -0.8568 -0.9656
29458SOL    HW293313   0.650   0.527   2.162 -0.1758 -0.3174 -0.3667
29459SOL     OW93314  10.504   9.477   7.429  0.8429 -0.1097  0.5142
29459SOL    HW193315  10.449   9.401   7.412  0.1388  0.6642 -0.9283
29459SOL    HW293316  10.526   9.471   7.522 -0.5582 -1.1792  0.8123
29460SOL     OW93317   6.452  11.584   9.053 -0.5601 -0.2152  0.0527
29460SOL    HW193318   6.398  11.542   8.987 -1.6585  0.4157  0.5141
29460SOL    HW293319   6.406  11.666   9.073  0.7649  0.5226  0.2078
29461SOL     OW93320   2.308   6.172  10.433 -0.7031 -0.1967  0.5260
29461SOL    HW193321   2.302   6.147  10.525 -1.5369  0.1149  0.5697
29461SOL    HW293322   2.399   6.158  10.410 -0.3045  0.4702  1.6264
29462SOL     OW93323   9.816   0.049   9.588  0.3024  0.1748 -0.3165
29462SOL    HW193324   9.880  -0.008   9.546 -0.0821  0.7764 -1.7948
29462SOL    HW293325   9.861   0.133   9.596  1.2173 -0.4876  2.7498
29463SOL     OW93326   3.794   2.304  11.619 -0.6399  0.6879  0.6080
29463SOL    HW193327   3.752   2.262  11.544  1.4113 -0.8057  0.2260
29463SOL    HW293328   3.769   2.250  11.694  1.5592 -1.0449  0.1902
29464SOL     OW93329   5.318   2.317  11.443  0.6288 -0.2531  0.3553
29464SOL    HW193330   5.235   2.293  11.402  0.4724  0.6464  0.1163
29464SOL    HW293331   5.305   2.297  11.536  0.2713 -0.4449  0.2678
29465SOL     OW93332   3.164   4.266   9.377 -0.8445 -0.1145  0.2260
29465SOL    HW193333   3.179   4.218   9.295 -0.1028  0.2904  0.1132
29465SOL    HW293334   3.209   4.349   9.364 -2.0324  0.5849  0.4558
29466SOL     OW93335   1.773   7.513   5.779  0.0771 -0.6014  0.0890
29466SOL    HW193336   1.685   7.505   5.815 -0.3657 -1.4597 -1.1614
29466SOL    HW293337   1.767   7.583   5.714  0.1207 -1.2154 -0.5823
29467SOL     OW93338   2.653   4.525   2.179 -0.4130  0.3472  0.4793
29467SOL    HW193339   2.676   4.508   2.270 -2.7039 -0.2765  0.9928
29467SOL    HW293340   2.565   4.563   2.183 -0.9630 -0.5917 -1.5109
29468SOL     OW93341  11.674   4.846   3.638  0.2882 -0.3926 -0.5080
29468SOL    HW193342  11.670   4.940   3.658 -1.1640 -0.3283 -0.9244
29468SOL    HW293343  11.757   4.835   3.591  0.3599  0.7407 -0.6794
29469SOL     OW93344   4.105   4.514   4.199  0.1115 -0.1825 -0.0095
29469SOL    HW193345   4.084   4.510   4.292 -1.3968 -0.7158 -0.3580
29469SOL    HW293346   4.157   4.594   4.190  0.4197 -0.2096  1.3024
29470SOL     OW93347   5.501  10.753   5.297 -0.6265 -0.4309 -0.4719
29470SOL    HW193348   5.445  10.732   5.223  1.0774  2.6078 -2.8391
29470SOL    HW293349   5.590  10.745   5.262  0.2220  1.7946  0.9761
29471SOL     OW93350   1.562  10.850   4.062 -0.0528 -0.1324  0.2508
29471SOL    HW193351   1.551  10.765   4.104  2.0883 -0.6494 -0.0986
29471SOL    HW293352   1.527  10.838   3.974 -0.0861 -0.5484  0.3179
29472SOL     OW93353   2.509   7.202   0.373  0.1711  0.0464  0.0464
29472SOL    HW193354   2.496   7.111   0.402  0.3967  0.0217  0.0704
29472SOL    HW293355   2.593   7.227   0.411  0.0254  0.3263  0.1902
29473SOL     OW93356   7.272   8.016   7.340  0.0795 -0.6938 -0.2613
29473SOL    HW193357   7.230   7.954   7.281 -0.9245 -0.0124 -0.2922
29473SOL    HW293358   7.233   8.101   7.318 -0.4880 -0.4425  1.5163
29474SOL     OW93359  11.621   0.703   0.863  0.2868 -0.2585 -0.5854
29474SOL    HW193360  11.527   0.691   0.878  0.5236 -1.5606  0.0081
29474SOL    HW293361  11.637   0.662   0.779  0.4099 -0.4732 -0.4569
29475SOL     OW93362   1.779   7.073  11.075  0.0529 -0.1579  0.6246
29475SOL    HW193363   1.727   7.122  11.139  2.3466  0.2408  2.3101
29475SOL    HW293364   1.863   7.118  11.073  0.4091 -0.8146 -1.9535
29476SOL     OW93365  10.375   5.832   0.690  0.0105  0.6444 -0.0952
29476SOL    HW193366  10.298   5.786   0.656 -0.4161  1.1730  0.1414
29476SOL    HW293367  10.391   5.793   0.776 -0.8083  1.4366  0.4321
29477SOL     OW93368   7.415   8.676   1.634 -0.0815  0.0974  0.2141
29477SOL    HW193369   7.476   8.742   1.602  0.2789 -0.7466 -0.9194
29477SOL    HW293370   7.342   8.679   1.573 -0.7160  0.3796  0.9614
29478SOL     OW93371   6.965   1.949   2.746 -0.3199 -0.3738 -0.5615
29478SOL    HW193372   6.914   2.008   2.802  0.4917 -1.0366  0.9281
29478SOL    HW293373   6.911   1.870   2.738 -0.0951 -0.5863 -0.0314
29479SOL     OW93374   4.034   4.442   2.805  0.3357 -0.1410 -0.3663
29479SOL    HW193375   4.043   4.537   2.811  1.6115 -0.3102  0.7544
29479SOL    HW293376   4.086   4.417   2.729 -0.5849  0.0999 -1.1017
29480SOL     OW93377   1.404   2.522   2.363  0.4824  0.0563  0.6910
29480SOL    HW193378   1.437   2.518   2.452  1.2111  1.5831  0.5098
29480SOL    HW293379   1.480   2.541   2.309 -0.4043  2.2247  0.1049
29481SOL     OW93380   1.686   0.049   9.399 -0.6016 -0.5493  0.0941
29481SOL    HW193381   1.702   0.090   9.484 -1.1499 -1.1730  0.5101
29481SOL    HW293382   1.652   0.120   9.344  0.2437 -0.0208  0.2325
29482SOL     OW93383   2.026   0.134  10.179  0.5963 -0.3583 -0.0672
29482SOL    HW193384   2.063   0.124  10.267  1.4584 -4.0935 -0.6693
29482SOL    HW293385   1.934   0.158  10.194  0.3793 -2.1264  1.9678
29483SOL     OW93386   9.641  10.576   9.051  0.0048  0.3830  0.4051
29483SOL    HW193387   9.676  10.583   9.140  0.2220  2.7854  0.2059
29483SOL    HW293388   9.668  10.490   9.022 -2.2087 -1.5750  3.4918
29484SOL     OW93389   8.034   1.771   6.069  0.0391  0.4159  0.2075
29484SOL    HW193390   8.015   1.857   6.108  0.2882  0.0209  1.2249
29484SOL    HW293391   7.991   1.773   5.984 -0.3365  1.3853  0.4135
29485SOL     OW93392   2.750   6.148   8.599  0.6043  0.2806 -0.1982
29485SOL    HW193393   2.738   6.121   8.690 -0.3311  0.4569 -0.2669
29485SOL    HW293394   2.768   6.066   8.553 -1.8237 -0.2512 -0.3370
29486SOL     OW93395   5.820   8.335   4.053  0.3076  0.0245  0.1270
29486SOL    HW193396   5.766   8.256   4.059 -1.4265  1.2207  1.2020
29486SOL    HW293397   5.781   8.396   4.117  0.8116  2.1973 -1.5160
29487SOL     OW93398   0.668   1.265   3.003  0.0488 -0.4041 -0.6587
29487SOL    HW193399   0.735   1.269   3.071 -0.5110 -0.5266 -0.0967
29487SOL    HW293400   0.684   1.182   2.958  0.5225 -0.2464 -0.7869
29488SOL     OW93401  11.557   8.010  10.011 -0.2603 -0.5079 -0.0131
29488SOL    HW193402  11.572   8.037  10.102 -2.5353  0.3887  0.1716
29488SOL    HW293403  11.628   7.949   9.992  0.4585 -0.4830  2.2615
29489SOL     OW93404   9.491   2.896   2.193 -0.1802  0.2928 -0.1523
29489SOL    HW193405   9.489   2.853   2.107  0.6174  0.5312 -0.3072
29489SOL    HW293406   9.564   2.853   2.238 -1.1754 -0.4794  0.7731
29490SOL     OW93407   3.593   2.408   9.934  0.1078  0.5069  0.3352
29490SOL    HW193408   3.649   2.484   9.916 -0.0491  0.5991  0.2326
29490SOL    HW293409   3.505   2.444   9.943  0.0192  0.3297  0.2052
29491SOL     OW93410   6.737   2.410   5.211  0.7032 -0.1412 -0.1128
29491SOL    HW193411   6.657   2.408   5.159  1.4641 -0.4303 -1.3354
29491SOL    HW293412   6.807   2.421   5.146  1.5975  0.9295  0.9902
29492SOL     OW93413   5.621   8.041  11.192  0.4131  0.1850  0.5719
29492SOL    HW193414   5.708   8.080  11.201  0.1594  0.6982  0.8121
29492SOL    HW293415   5.594   8.021  11.281  0.2157  0.1745  0.5089
29493SOL     OW93416   8.944   7.692   3.167  0.0930 -0.3420  0.1477
29493SOL    HW193417   8.867   7.745   3.144  1.3158  1.5879  0.2557
29493SOL    HW293418   8.922   7.604   3.137 -1.6155  0.4280 -1.0383
29494SOL     OW93419   8.197  10.397   0.415 -0.1451  0.1819 -0.1086
29494SOL    HW193420   8.257  10.351   0.474 -0.5705 -0.3548 -0.0888
29494SOL    HW293421   8.249  10.415   0.337 -0.3923 -1.7050 -0.7438
29495SOL     OW93422   1.847   8.420   3.008  0.0069  0.7460 -0.6865
29495SOL    HW193423   1.760   8.385   3.026  1.3258 -2.3914  0.3585
29495SOL    HW293424   1.853   8.422   2.912 -0.7573 -0.4298 -0.7849
29496SOL     OW93425   4.881  10.085   9.081  0.4988  0.3534 -0.1907
29496SOL    HW193426   4.937  10.011   9.103 -0.3897 -0.6245 -1.1195
29496SOL    HW293427   4.821  10.093   9.155  1.3079  0.8941  0.4321
29497SOL     OW93428   0.781   4.125   1.419 -0.3496  0.5318  0.1468
29497SOL    HW193429   0.769   4.131   1.324  0.6835  1.0267  0.0376
29497SOL    HW293430   0.873   4.147   1.433 -1.2136  3.9144  1.5332
29498SOL     OW93431  11.508   2.404  10.006 -0.1086  0.3323 -0.2640
29498SOL    HW193432  11.566   2.453   9.948 -2.4590  4.0321  0.1603
29498SOL    HW293433  11.532   2.433  10.094  0.8985 -2.3094  0.4194
29499SOL     OW93434   1.828   8.441   1.755 -0.6534  0.0198  0.6693
29499SOL    HW193435   1.771   8.509   1.792 -0.4465  0.8115 -0.4126
29499SOL    HW293436   1.903   8.489   1.720 -0.6078 -0.7462 -0.3203
29500SOL     OW93437   6.525   5.863   5.977  0.0073 -0.0471  0.2677
29500SOL    HW193438   6.478   5.817   5.908 -1.6358 -0.5113  1.6352
29500SOL    HW293439   6.524   5.955   5.949  0.0310 -0.3255 -0.6762
29501SOL     OW93440   5.479   7.534   7.027 -0.6058 -0.2822  0.4183
29501SOL    HW193441   5.560   7.486   7.006 -0.3565  1.0553 -1.9330
29501SOL    HW293442   5.490   7.558   7.119  2.1022  0.6029 -0.0389
29502SOL     OW93443  10.818   4.657   6.879  0.5041 -0.3683  0.1451
29502SOL    HW193444  10.810   4.588   6.814  1.7728 -0.9128  0.5397
29502SOL    HW293445  10.760   4.727   6.847  0.2839 -1.0440 -0.9890
29503SOL     OW93446   8.280   2.859   4.822 -0.8749  0.0523  0.7876
29503SOL    HW193447   8.225   2.794   4.867  0.2813 -0.5623  1.3457
29503SOL    HW293448   8.332   2.898   4.891  0.3010 -0.2778  0.1102
29504SOL     OW93449   1.895   2.951   1.299  0.1118  0.2532 -0.1097
29504SOL    HW193450   1.810   2.927   1.263 -0.0241  0.1337  0.2797
29504SOL    HW293451   1.880   3.034   1.345  0.0366 -0.1187  0.5579
29505SOL     OW93452   4.548   7.038   0.527  0.1781  0.0097 -0.1137
29505SOL    HW193453   4.456   7.047   0.504 -0.0596 -0.8527  0.4240
29505SOL    HW293454   4.595   7.089   0.462 -0.5799 -0.8677 -1.3810
29506SOL     OW93455  10.693  10.676  10.750  0.3973  0.1924 -0.1340
29506SOL    HW193456  10.604  10.706  10.735  0.2410 -0.5277 -0.6808
29506SOL    HW293457  10.742  10.706  10.674  0.4051 -0.2471 -0.3091
29507SOL     OW93458   1.311   2.193  10.088 -0.0288 -0.3467  0.1511
29507SOL    HW193459   1.238   2.177  10.147 -0.5414  1.5274  0.1117
29507SOL    HW293460   1.385   2.148  10.128 -1.1433 -2.1418  0.2757
29508SOL     OW93461   2.318   2.957   2.455 -0.4158  0.1139  0.2835
29508SOL    HW193462   2.353   3.042   2.432 -0.4596  0.6992  2.2190
29508SOL    HW293463   2.290   2.919   2.371  0.7888  1.4313 -0.7579
29509SOL     OW93464  11.302   1.009  11.337 -0.0016 -0.4734 -0.2113
29509SOL    HW193465  11.292   0.918  11.365  1.4280  0.2767  3.1437
29509SOL    HW293466  11.232   1.056  11.381  1.1337  0.4884  0.6162
29510SOL     OW93467   8.311   2.920  11.182  0.0433  0.4233 -0.6091
29510SOL    HW193468   8.264   2.916  11.099 -0.8800 -0.9105 -0.0606
29510SOL    HW293469   8.398   2.953  11.159 -1.3586  4.0351 -1.5280
29511SOL     OW93470  10.320   6.320   3.355  0.4732  0.1059 -0.4916
29511SOL    HW193471  10.365   6.359   3.430 -0.3406  0.3762 -0.1236
29511SOL    HW293472  10.338   6.226   3.363  0.5350  0.1506 -0.0521
29512SOL     OW93473   3.221   2.838   8.509  0.1926 -0.1509 -0.0945
29512SOL    HW193474   3.176   2.766   8.466 -0.6082 -0.9255  1.8786
29512SOL    HW293475   3.293   2.796   8.557 -0.3858  0.2934  1.2124
29513SOL     OW93476   3.074   1.056   8.175 -0.1561  0.2102  0.0668
29513SOL    HW193477   3.029   1.105   8.244  0.9359  2.6363 -0.8078
29513SOL    HW293478   3.027   0.973   8.169 -3.1926  1.7730  0.5477
29514SOL     OW93479   7.992   8.382   6.495 -0.2707 -0.2089  0.2863
29514SOL    HW193480   8.048   8.350   6.424  0.6728  0.0044  0.9067
29514SOL    HW293481   7.985   8.476   6.480 -1.4256 -0.3849 -0.4265
29515SOL     OW93482   5.627   1.788   6.711 -0.2262  0.8243 -0.1297
29515SOL    HW193483   5.629   1.693   6.723 -1.4891  0.9098  1.0004
29515SOL    HW293484   5.698   1.822   6.765 -0.5071  0.5999  0.3819
29516SOL     OW93485   7.598   7.308   0.509 -0.1276  0.3808 -0.2288
29516SOL    HW193486   7.629   7.296   0.599  1.1809  0.8306 -0.5989
29516SOL    HW293487   7.506   7.332   0.519  0.0703  0.7144  1.0173
29517SOL     OW93488   7.465   5.367  10.590 -0.2957  0.5629  0.1043
29517SOL    HW193489   7.500   5.429  10.526 -0.0330  1.5231  1.1346
29517SOL    HW293490   7.384   5.335  10.552  1.0519 -0.7776 -1.7984
29518SOL     OW93491   7.851   0.912   4.825  0.3566 -0.1533  0.1797
29518SOL    HW193492   7.845   0.949   4.912 -2.4645 -0.5125  0.2162
29518SOL    HW293493   7.898   0.829   4.837 -3.5698 -2.3814  2.2813
29519SOL     OW93494   1.260   8.894   2.054 -0.1675 -0.1411  0.6952
29519SOL    HW193495   1.351   8.920   2.039 -0.0973  0.0710  1.4451
29519SOL    HW293496   1.264   8.837   2.132 -0.7808  0.5769  1.2601
29520SOL     OW93497   6.718   3.095   5.247  0.2803  0.5549  0.2949
29520SOL    HW193498   6.701   3.012   5.202 -0.2165  1.3847 -1.1110
29520SOL    HW293499   6.799   3.127   5.208  0.1351  1.0299  0.3755
29521SOL     OW93500   8.166   2.532   1.862  0.2102 -0.2122  0.3161
29521SOL    HW193501   8.168   2.542   1.767  0.6282 -2.0358  0.0893
29521SOL    HW293502   8.254   2.556   1.891  0.0070  0.5931  0.2845
29522SOL     OW93503   3.181  10.782  11.504  0.1211 -0.7430 -0.1195
29522SOL    HW193504   3.219  10.856  11.550 -0.6552  0.0655 -0.7495
29522SOL    HW293505   3.089  10.783  11.529  0.6692 -3.6172  2.6586
29523SOL     OW93506  11.611   5.712   9.878  0.1986 -0.1560 -0.2303
29523SOL    HW193507  11.583   5.804   9.872 -2.8164 -0.9047  0.5021
29523SOL    HW293508  11.618   5.683   9.787 -0.9474  0.2784 -0.4772
29524SOL     OW93509   8.743  11.214   6.816  0.0142  0.0505  0.2594
29524SOL    HW193510   8.768  11.286   6.758  1.1916  0.4360  1.2001
29524SOL    HW293511   8.659  11.241   6.853 -0.7011 -0.1564 -1.1530
29525SOL     OW93512   7.263   5.716   3.044 -0.1306  0.6743  0.3637
29525SOL    HW193513   7.243   5.735   3.136  0.1578  0.9930  0.3619
29525SOL    HW293514   7.274   5.802   3.004 -1.4199  0.5875 -0.2317
29526SOL     OW93515   5.284   5.343   0.628 -0.0379 -0.0751  0.4039
29526SOL    HW193516   5.291   5.431   0.590  2.3817 -0.5533 -0.4514
29526SOL    HW293517   5.333   5.349   0.710 -0.5932 -0.4173  0.7608
29527SOL     OW93518   4.978   9.810   4.399 -0.4300 -0.1949  0.7868
29527SOL    HW193519   4.882   9.812   4.408 -0.5357 -0.2676 -0.1930
29527SOL    HW293520   5.000   9.894   4.359 -0.2675 -0.8019 -0.4458
29528SOL     OW93521   4.341   6.071   4.218 -0.2190  0.2205  0.1707
29528SOL    HW193522   4.300   6.145   4.172 -0.8724 -0.3003 -0.0969
29528SOL    HW293523   4.420   6.108   4.257  0.3047  0.7080 -1.2863
29529SOL     OW93524   0.927   5.828   4.041  0.0934  0.5476  0.2532
29529SOL    HW193525   0.846   5.879   4.036 -1.2281 -1.4895 -0.9605
29529SOL    HW293526   0.942   5.797   3.952  3.5023  2.5725 -0.0422
29530SOL     OW93527   5.856   8.526   5.997 -0.5285  0.0196 -0.8224
29530SOL    HW193528   5.914   8.588   5.953 -1.5930 -0.1854 -2.5970
29530SOL    HW293529   5.769   8.568   5.994 -0.5864  0.2680  1.6755
29531SOL     OW93530   3.735   5.267   7.326 -0.0197 -0.2450  0.4315
29531SOL    HW193531   3.687   5.193   7.363  0.4883 -0.6965  0.1883
29531SOL    HW293532   3.810   5.228   7.282 -0.8590  0.2337 -1.5304
29532SOL     OW93533   4.090   4.371   7.513  0.1793  0.0057 -0.5572
29532SOL    HW193534   4.017   4.322   7.551 -0.7439  2.6168  1.2575
29532SOL    HW293535   4.143   4.303   7.470 -0.6044 -2.6812  2.3288
29533SOL     OW93536  10.635   6.388   0.521  0.3552 -0.1538 -0.1065
29533SOL    HW193537  10.545   6.387   0.488  0.0773 -0.7395  0.6096
29533SOL    HW293538  10.628   6.344   0.606  1.4191 -0.7272 -0.3059
29534SOL     OW93539   7.881   2.831   2.212 -1.4288  0.0524  0.2478
29534SOL    HW193540   7.907   2.828   2.304  0.2222  0.5706 -0.1617
29534SOL    HW293541   7.938   2.767   2.169 -0.7287  1.2784 -0.7144
29535SOL     OW93542   3.146   2.021   9.311  0.0213  0.2884 -0.4319
29535SOL    HW193543   3.240   2.037   9.320 -0.0800  1.1002 -0.7830
29535SOL    HW293544   3.135   1.987   9.222  0.3114 -2.4522  0.4865
29536SOL     OW93545   7.520  11.045   0.852  0.6589 -0.5126 -0.5185
29536SOL    HW193546   7.597  11.100   0.867  0.6677 -0.8789  0.9142
29536SOL    HW293547   7.545  10.987   0.780  1.7916 -0.7465  0.0531
29537SOL     OW93548   4.139   5.007   4.820  0.3862  0.4558 -0.5266
29537SOL    HW193549   4.102   4.945   4.757  0.0062  0.2551 -0.1098
29537SOL    HW293550   4.151   4.956   4.900  1.3782  0.5713 -0.5881
29538SOL     OW93551   2.618  10.646   3.568 -0.1313 -0.1646 -0.4538
29538SOL    HW193552   2.631  10.739   3.551 -0.2016 -0.2986 -1.2500
29538SOL    HW293553   2.599  10.608   3.483  0.3957 -0.9955 -0.2082
29539SOL     OW93554   5.694   1.478   8.427  0.3347  0.0672  0.0485
29539SOL    HW193555   5.644   1.441   8.354  0.5398  1.8427 -1.0515
29539SOL    HW293556   5.785   1.466   8.402  0.4277 -0.3474  0.5703
29540SOL     OW93557   4.566   7.952   9.844  0.5021 -0.1551  0.5344
29540SOL    HW193558   4.589   7.859   9.850  0.0489 -0.2839  0.3491
29540SOL    HW293559   4.650   7.998   9.843  0.7297 -0.5637  0.6024
29541SOL     OW93560   8.024   1.783   0.712 -0.2991 -0.7323 -0.6255
29541SOL    HW193561   7.999   1.797   0.621 -1.8165  0.8926  0.0025
29541SOL    HW293562   7.942   1.779   0.760  0.4992 -0.5511  0.8224
29542SOL     OW93563  11.261   6.498   1.020  0.1359 -0.7826  0.0990
29542SOL    HW193564  11.190   6.435   1.014 -0.9834  0.5358 -1.2725
29542SOL    HW293565  11.284   6.517   0.928  0.2524  0.9773  0.4536
29543SOL     OW93566  10.689  10.416   6.771  0.0635 -0.5085  0.2636
29543SOL    HW193567  10.613  10.464   6.738 -0.0394  0.6477  2.0480
29543SOL    HW293568  10.762  10.478   6.762  0.5837 -1.1907 -0.3414
29544SOL     OW93569   8.014  10.648   9.172  0.0113 -0.4177 -0.2927
29544SOL    HW193570   8.098  10.693   9.185  0.2775 -1.4463  1.9960
29544SOL    HW293571   8.037  10.556   9.166 -0.7971 -0.5463 -2.0483
29545SOL     OW93572   8.494   4.032   3.749  0.1994 -0.6803  0.3897
29545SOL    HW193573   8.409   3.990   3.758 -0.4896  0.2176 -1.4057
29545SOL    HW293574   8.501   4.088   3.827 -0.5903 -1.1805  0.8344
29546SOL     OW93575   4.779   6.939   1.563  0.1552 -0.0371 -0.0562
29546SOL    HW193576   4.742   6.965   1.647 -0.2858 -1.0397  0.0753
29546SOL    HW293577   4.751   7.008   1.502  1.5393  1.3496  0.8449
29547SOL     OW93578   6.250   5.991   6.715  0.0811  0.4818  0.0149
29547SOL    HW193579   6.192   5.915   6.703 -2.0019  2.0503 -0.3824
29547SOL    HW293580   6.204   6.047   6.778  1.9779  1.0648  0.9552
29548SOL     OW93581   7.933  10.239   5.012  0.1194 -0.2997 -0.2039
29548SOL    HW193582   8.013  10.187   5.021 -0.4663 -1.1703  0.1725
29548SOL    HW293583   7.881  10.193   4.946  0.0764  0.4602 -0.7111
29549SOL     OW93584   9.163  10.547   2.926 -0.0174 -0.1385  0.3357
29549SOL    HW193585   9.168  10.640   2.949 -1.8565 -0.0099  0.3413
29549SOL    HW293586   9.098  10.543   2.856  0.8152 -1.3134 -0.4062
29550SOL     OW93587   4.329  10.014   1.902 -0.1882  0.2717  0.3172
29550SOL    HW193588   4.359  10.100   1.872 -0.7174 -0.0525 -1.2155
29550SOL    HW293589   4.396   9.986   1.965  2.0802  0.1596 -1.9913
29551SOL     OW93590  11.096   8.072   0.026  0.6120 -0.3082  0.4388
29551SOL    HW193591  11.101   7.989   0.073  1.1936 -0.5171  0.0186
29551SOL    HW293592  11.145   8.134   0.081  1.5235 -0.6135 -0.0068
29552SOL     OW93593   7.581   7.558   3.729  1.0312 -0.3793  0.3411
29552SOL    HW193594   7.631   7.638   3.746  0.4428  0.3091 -0.9587
29552SOL    HW293595   7.647   7.489   3.721  1.9243  0.6654 -2.2158
29553SOL     OW93596   6.925   1.794   5.366 -0.1048  0.0932  0.4716
29553SOL    HW193597   6.971   1.734   5.306  0.3403  0.5970  0.3023
29553SOL    HW293598   6.850   1.743   5.397  0.0976 -0.4500  0.0953
29554SOL     OW93599   6.892   6.876   3.129  0.7143 -0.1312  0.0588
29554SOL    HW193600   6.932   6.821   3.197  1.1853  1.3984  1.0703
29554SOL    HW293601   6.917   6.833   3.047  0.9672 -1.4832  0.8054
29555SOL     OW93602   1.611   8.615   7.421 -0.5220 -0.4794  0.0267
29555SOL    HW193603   1.519   8.603   7.400 -1.1065  2.1480  0.7713
29555SOL    HW293604   1.613   8.628   7.516  0.5040  0.2138 -0.0744
29556SOL     OW93605  10.115   3.845   5.265 -0.3873  0.0669  0.5871
29556SOL    HW193606  10.074   3.766   5.230 -2.2679  0.5816  1.4778
29556SOL    HW293607  10.153   3.818   5.349  0.4464 -0.2306  0.1288
29557SOL     OW93608   5.406  10.681   6.774  0.3621 -0.2030  0.0847
29557SOL    HW193609   5.482  10.739   6.776 -0.1649  0.4927  1.9018
29557SOL    HW293610   5.372  10.690   6.685  0.5051  2.0537  0.2002
29558SOL     OW93611   8.819   6.498   0.945  0.0072  0.1948  0.2821
29558SOL    HW193612   8.771   6.419   0.969  0.8178 -0.5501 -0.4657
29558SOL    HW293613   8.910   6.469   0.939  0.4388  1.3866  0.8584
29559SOL     OW93614   1.669   5.471   1.076  0.0862  0.5700  0.0159
29559SOL    HW193615   1.693   5.555   1.038 -1.1471  0.2855 -1.5016
29559SOL    HW293616   1.716   5.407   1.023 -1.1012  0.1948 -0.6142
29560SOL     OW93617   2.372   4.910   9.970  0.0798 -0.0562 -0.1279
29560SOL    HW193618   2.420   4.881  10.047 -0.9006 -0.8095  0.2235
29560SOL    HW293619   2.280   4.904   9.995 -0.2311  2.4226 -0.3901
29561SOL     OW93620   7.354   9.774  11.301 -0.5733 -0.2858 -0.1750
29561SOL    HW193621   7.321   9.855  11.341  0.7697  1.2305 -1.9561
29561SOL    HW293622   7.276   9.733  11.264 -1.3648 -0.1616  1.2442
29562SOL     OW93623   2.047   7.878  10.870  0.3239  0.2210  0.2243
29562SOL    HW193624   2.069   7.836  10.953 -2.1446 -0.8569  0.4215
29562SOL    HW293625   2.107   7.952  10.864  2.3605 -1.2058  1.6454
29563SOL     OW93626   6.592   3.494   3.228  0.5583  0.0323  0.0946
29563SOL    HW193627   6.571   3.567   3.286  1.4443 -0.5909  1.2331
29563SOL    HW293628   6.666   3.450   3.270  1.4864 -0.2183 -1.7102
29564SOL     OW93629   6.938   9.696   5.399 -0.1561 -0.2875 -0.1255
29564SOL    HW193630   6.871   9.632   5.419  2.6180 -2.7546  2.3441
29564SOL    HW293631   6.992   9.655   5.332 -0.2380  1.0063 -1.0206
29565SOL     OW93632   4.399  11.502   3.072  0.2992 -0.1542  0.0274
29565SOL    HW193633   4.393  11.461   3.158 -1.0445 -0.9602 -0.4163
29565SOL    HW293634   4.473  11.561   3.079  1.1613 -1.3160  1.2637
29566SOL     OW93635   8.735   6.949   8.649 -0.0786 -0.2486 -0.0737
29566SOL    HW193636   8.701   7.034   8.677 -0.6402  0.0445 -1.5566
29566SOL    HW293637   8.714   6.890   8.721 -1.5419  0.4500  0.1093
29567SOL     OW93638   6.734   1.597   0.854  0.0093 -0.2324  0.5988
29567SOL    HW193639   6.723   1.646   0.773 -1.8994  2.3216  2.2461
29567SOL    HW293640   6.823   1.618   0.883 -0.2141  0.9792  0.4523
29568SOL     OW93641   0.303   4.925   3.297  0.4757  0.0153 -0.0600
29568SOL    HW193642   0.277   5.014   3.321 -0.0616 -0.2309  0.3008
29568SOL    HW293643   0.289   4.873   3.377 -0.9758 -0.7432 -0.7583
29569SOL     OW93644   8.018   6.133   4.020  0.1211 -0.4428  0.4963
29569SOL    HW193645   8.076   6.118   4.094 -0.4827 -1.3774  0.7931
29569SOL    HW293646   7.931   6.146   4.059 -0.0202  0.1492  0.0113
29570SOL     OW93647   8.234   2.155   8.480  0.9189 -0.0164  0.2817
29570SOL    HW193648   8.306   2.218   8.479  0.8110  0.1369 -1.3886
29570SOL    HW293649   8.271   2.076   8.439  0.5522 -0.4349  0.7529
29571SOL     OW93650  10.373   4.404   8.309 -0.1433 -0.3171  0.2280
29571SOL    HW193651  10.374   4.421   8.215 -0.5085 -0.1841  0.2461
29571SOL    HW293652  10.416   4.481   8.348 -0.1150 -0.3080  0.1783
29572SOL     OW93653   5.091   7.022   2.411 -0.1541  0.1117  0.4890
29572SOL    HW193654   5.032   7.081   2.365 -0.6015 -0.5285  0.2452
29572SOL    HW293655   5.127   7.076   2.482  0.2949  1.0102 -0.3885
29573SOL     OW93656   0.211  10.318   9.395  0.2820 -0.2396 -0.3449
29573SOL    HW193657   0.196  10.307   9.489 -0.5791  1.6375 -0.2338
29573SOL    HW293658   0.266  10.396   9.388  2.1462 -1.5540 -1.3306
29574SOL     OW93659   2.599   8.105   9.960 -0.4517 -0.2145  0.2808
29574SOL    HW193660   2.552   8.121  10.042  0.7348  2.3096  0.5837
29574SOL    HW293661   2.659   8.033   9.980 -1.7844 -1.1658  0.9160
29575SOL     OW93662   2.499  10.854   0.636  0.1053 -0.7100  0.1136
29575SOL    HW193663   2.458  10.907   0.568 -0.5887  1.4424  2.1063
29575SOL    HW293664   2.475  10.764   0.612 -2.9239  0.1854 -0.7126
29576SOL     OW93665   1.260   3.086   8.961  0.3696 -0.1078 -0.7181
29576SOL    HW193666   1.193   3.025   8.991 -0.3241  0.3810 -1.2344
29576SOL    HW293667   1.343   3.046   8.987 -0.1564 -0.1614  0.9957
29577SOL     OW93668   1.353   9.963   8.203 -0.0075 -0.4503 -0.1008
29577SOL    HW193669   1.331   9.895   8.267  0.8767  0.2191  0.9644
29577SOL    HW293670   1.392   9.915   8.130 -1.6520 -1.2910 -0.4567
29578SOL     OW93671   5.436   4.668   5.111 -0.1967  0.7949 -0.5959
29578SOL    HW193672   5.445   4.586   5.159 -2.8069  1.8999  2.1219
29578SOL    HW293673   5.498   4.727   5.152 -0.5480  1.0255 -0.3953
29579SOL     OW93674   4.576  10.927  10.442  0.6809  0.5723  0.4020
29579SOL    HW193675   4.649  10.965  10.491  1.1211 -0.5034  0.6101
29579SOL    HW293676   4.535  10.866  10.504  0.1474  0.5252  0.0054
29580SOL     OW93677   9.004   1.237   0.220 -0.1447  0.6288 -0.0500
29580SOL    HW193678   8.927   1.264   0.269 -0.3039 -0.3002  0.2272
29580SOL    HW293679   8.991   1.273   0.132 -0.5835  1.0069  0.1656
29581SOL     OW93680   5.996   3.636   5.130  0.2964  0.6704 -0.6919
29581SOL    HW193681   6.008   3.544   5.107 -1.6068  0.4882 -1.1136
29581SOL    HW293682   6.084   3.674   5.122  1.1319 -1.0952 -0.4653
29582SOL     OW93683   9.420   8.142   2.074  0.1785  0.2894 -0.1075
29582SOL    HW193684   9.478   8.100   2.011  0.7305 -0.2262  0.7261
29582SOL    HW293685   9.436   8.095   2.156 -2.0029 -0.4466 -0.0215
29583SOL     OW93686   8.092  10.134   7.409 -0.3500  0.0158  0.9143
29583SOL    HW193687   8.046  10.156   7.490 -0.1181  2.6861  0.4008
29583SOL    HW293688   8.170  10.189   7.410  0.8057 -1.5279 -0.1214
29584SOL     OW93689   3.758   5.105   0.058  0.0695 -0.3808  0.0899
29584SOL    HW193690   3.816   5.093   0.134 -1.0286 -1.2900  0.8247
29584SOL    HW293691   3.814   5.090  -0.018  1.6178  2.1998  0.5947
29585SOL     OW93692   8.697  10.231   7.786  0.0613  0.0823  0.0928
29585SOL    HW193693   8.707  10.148   7.833 -0.8568  0.0969  0.3267
29585SOL    HW293694   8.616  10.269   7.821 -0.3245  0.3695 -1.0775
29586SOL     OW93695   1.008   7.975   3.783 -0.1907 -0.1918  0.6467
29586SOL    HW193696   1.068   7.956   3.710 -0.1636  0.3018  0.5367
29586SOL    HW293697   1.012   7.897   3.838  1.5459  0.3190  1.3179
29587SOL     OW93698   4.056   0.870   8.553 -0.3096 -0.7964  0.5070
29587SOL    HW193699   3.961   0.875   8.545 -0.2114 -1.0578 -1.1033
29587SOL    HW293700   4.086   0.829   8.472  1.3279  0.9542  0.1434
29588SOL     OW93701   7.301   9.541   5.378  0.1566  0.0562 -0.4993
29588SOL    HW193702   7.289   9.599   5.303 -1.1007 -0.0657 -0.4211
29588SOL    HW293703   7.303   9.599   5.454 -1.7694  0.0019 -0.3583
29589SOL     OW93704  11.087   3.111   4.165 -0.3184 -0.0809  0.6747
29589SOL    HW193705  11.067   3.137   4.256 -0.8887  2.2399 -0.0384
29589SOL    HW293706  11.002   3.109   4.122 -0.1428 -2.0479  0.3527
29590SOL     OW93707   3.735   6.137  11.016 -1.0385 -1.0486  0.2808
29590SOL    HW193708   3.654   6.085  11.020 -0.8982 -1.2283  0.8767
29590SOL    HW293709   3.803   6.074  10.994 -1.1702 -0.7588 -1.0545
29591SOL     OW93710   6.133   5.629  10.875 -0.3473  0.2630 -0.3792
29591SOL    HW193711   6.207   5.568  10.868 -1.8309 -2.6581  4.2477
29591SOL    HW293712   6.172   5.714  10.890  1.9161 -0.2877 -2.5805
29592SOL     OW93713   5.189   2.175   2.525 -0.0978 -0.3745 -0.4431
29592SOL    HW193714   5.216   2.214   2.442 -1.1211  0.7904 -0.2460
29592SOL    HW293715   5.116   2.117   2.502 -0.9081  0.5581 -0.2660
29593SOL     OW93716   8.304   9.093   4.665  0.2399  0.0158 -0.4220
29593SOL    HW193717   8.358   9.040   4.724  1.1276  0.7137 -0.5705
29593SOL    HW293718   8.329   9.184   4.685 -2.8498  0.6091  1.4196
29594SOL     OW93719   4.456   4.850   2.029  0.6966 -0.3635  0.1737
29594SOL    HW193720   4.438   4.903   2.106  1.3252  1.0387 -0.6176
29594SOL    HW293721   4.448   4.759   2.060 -2.2267  0.1237  1.1343
29595SOL     OW93722   7.405   3.358   2.967 -0.1472 -0.3301  0.3747
29595SOL    HW193723   7.367   3.368   3.054  0.2391  0.7857  0.4280
29595SOL    HW293724   7.331   3.334   2.911 -0.4888 -0.5452  0.9040
29596SOL     OW93725   7.516   1.725   8.425  0.5753  0.1779  0.2143
29596SOL    HW193726   7.547   1.666   8.356 -0.1944  0.7856 -0.6649
29596SOL    HW293727   7.422   1.712   8.427  0.5200  0.6391  0.7119
29597SOL     OW93728   6.617   2.993   2.753 -0.2230 -0.3867 -0.0540
29597SOL    HW193729   6.616   3.041   2.835 -0.1309 -1.4097  0.5617
29597SOL    HW293730   6.689   3.032   2.703  1.8024 -1.7623  1.6066
29598SOL     OW93731   7.061   9.439   8.878 -0.0475 -0.5716 -0.0685
29598SOL    HW193732   7.014   9.511   8.921 -0.9873 -1.3159  0.1719
29598SOL    HW293733   7.141   9.480   8.845 -1.7291  1.2390 -2.2915
29599SOL     OW93734   1.135  10.571   6.606  0.3302 -0.0664  0.5024
29599SOL    HW193735   1.121  10.645   6.546  1.2333 -0.0848  0.2444
29599SOL    HW293736   1.149  10.612   6.691  0.9175  0.0778  0.3438
29600SOL     OW93737   8.943   7.131   9.692  0.0403 -0.4742  0.0374
29600SOL    HW193738   8.905   7.213   9.724  0.1295 -0.7374  0.8562
29600SOL    HW293739   8.941   7.073   9.768 -0.9824 -1.5898 -0.8028
29601SOL     OW93740   5.563   0.494   3.727 -0.3327  0.0730  0.1715
29601SOL    HW193741   5.516   0.431   3.782  1.5140 -0.8241  0.7822
29601SOL    HW293742   5.497   0.560   3.705 -1.3239  0.1070  2.8950
29602SOL     OW93743   4.331   7.199   2.421  0.3080 -0.1078  0.3742
29602SOL    HW193744   4.407   7.256   2.436 -0.3681  0.9404 -0.1292
29602SOL    HW293745   4.362   7.135   2.356  1.0307 -0.2567  0.8505
29603SOL     OW93746  10.256   2.237   5.743 -0.0936  0.3622 -0.0083
29603SOL    HW193747  10.316   2.308   5.721  0.4344 -0.3263 -0.9044
29603SOL    HW293748  10.288   2.162   5.691 -0.9629 -0.3684  0.4767
29604SOL     OW93749   5.638   5.611   9.587 -0.0912  0.0813  0.6528
29604SOL    HW193750   5.610   5.679   9.648  1.3713  0.8653  0.4761
29604SOL    HW293751   5.581   5.622   9.511  0.7460  1.7729  0.2259
29605SOL     OW93752   3.818  11.259   5.023 -0.2476  0.6122  0.1818
29605SOL    HW193753   3.837  11.184   5.079 -0.1235  0.4903 -0.0210
29605SOL    HW293754   3.723  11.261   5.015 -0.1925 -0.4104 -1.0095
29606SOL     OW93755  10.325   1.486   1.023  0.0073 -0.1292  0.5646
29606SOL    HW193756  10.391   1.449   1.081 -0.6543  0.4226  1.7128
29606SOL    HW293757  10.362   1.569   0.994 -1.2566  1.6819  3.5852
29607SOL     OW93758   0.668   2.020   4.637 -0.0541  0.4696 -0.4588
29607SOL    HW193759   0.609   1.945   4.635  1.1229 -0.4900 -0.4873
29607SOL    HW293760   0.658   2.062   4.551 -0.0509 -0.1942 -0.7846
29608SOL     OW93761   1.607  10.776   5.775  0.3710 -0.1286 -0.6650
29608SOL    HW193762   1.577  10.694   5.735 -0.5174  0.0313 -0.3641
29608SOL    HW293763   1.633  10.751   5.864 -0.6909  0.0387 -0.2929
29609SOL     OW93764   7.709   6.734   7.049  0.4058  0.2977  0.2034
29609SOL    HW193765   7.804   6.735   7.043  0.3354  0.1383 -1.7408
29609SOL    HW293766   7.686   6.823   7.075  1.0604  0.5359 -0.0078
29610SOL     OW93767   0.185  11.325   9.877  0.1840 -0.7247 -0.4106
29610SOL    HW193768   0.186  11.326   9.781  2.6707 -3.1320 -0.5151
29610SOL    HW293769   0.255  11.385   9.903 -0.2869 -0.3098 -0.0707
29611SOL     OW93770  11.103  10.257   3.695 -0.8552 -0.3009  0.4993
29611SOL    HW193771  11.083  10.348   3.718  2.3463  0.4459  0.7188
29611SOL    HW293772  11.186  10.261   3.647 -1.1143 -3.0370 -0.3643
29612SOL     OW93773   5.573   9.261   3.283  0.8872  0.1547 -0.2716
29612SOL    HW193774   5.520   9.337   3.257 -0.9773 -1.0551 -0.1944
29612SOL    HW293775   5.615   9.233   3.202  0.3849  0.3745 -0.6171
29613SOL     OW93776   7.885   3.219  10.548  0.4513  0.3679  0.8781
29613SOL    HW193777   7.795   3.231  10.577  0.2677  2.0486 -0.2406
29613SOL    HW293778   7.879   3.222  10.452  1.4882 -1.2786  0.7312
29614SOL     OW93779   4.529   6.954   8.202 -0.0710 -0.3078 -0.2406
29614SOL    HW193780   4.616   6.919   8.226  0.2948  0.1639 -0.8561
29614SOL    HW293781   4.531   6.961   8.107 -1.2878 -1.5612 -0.3832
29615SOL     OW93782   2.810   1.555   1.558 -0.0189 -0.2658  0.5453
29615SOL    HW193783   2.843   1.643   1.575  0.9679 -0.5095 -0.0078
29615SOL    HW293784   2.805   1.549   1.462 -2.2329 -0.0656  0.6041
29616SOL     OW93785   4.905   0.339   4.828 -0.2033  0.2820  0.1664
29616SOL    HW193786   4.856   0.391   4.765 -1.6386 -2.6537 -1.3177
29616SOL    HW293787   4.845   0.326   4.901 -1.0549 -1.7264 -0.8192
29617SOL     OW93788   1.640   1.320  10.806 -0.0649 -0.5270  0.0215
29617SOL    HW193789   1.563   1.331  10.750  2.0227 -0.5722 -3.1363
29617SOL    HW293790   1.704   1.276  10.750  3.8412  3.4802  0.7901
29618SOL     OW93791   2.299  10.994   1.583  0.4467  0.6263  0.4578
29618SOL    HW193792   2.310  11.073   1.636 -0.2915  1.0773 -0.0490
29618SOL    HW293793   2.249  11.023   1.507  0.4740 -0.2616  0.0928
29619SOL     OW93794   5.372   9.123   2.391 -0.4995  0.1758  0.2771
29619SOL    HW193795   5.404   9.120   2.301 -1.8890  1.2192 -0.3014
29619SOL    HW293796   5.395   9.038   2.428  2.6131  0.7374 -0.1308
29620SOL     OW93797   0.701   2.828   5.740  0.0752 -0.0202 -0.1463
29620SOL    HW193798   0.784   2.869   5.716 -0.4681  1.2488  0.0019
29620SOL    HW293799   0.648   2.834   5.661 -0.7343  1.5478  0.4659
29621SOL     OW93800   6.948   6.766   9.696 -0.7393 -0.0768 -0.5712
29621SOL    HW193801   6.934   6.703   9.625 -0.3287  0.7461 -1.4159
29621SOL    HW293802   6.937   6.852   9.654 -1.2988  0.4228  0.5486
29622SOL     OW93803   3.640   8.453   8.255  0.2737 -0.1232 -0.0708
29622SOL    HW193804   3.697   8.453   8.178  0.4172 -1.0906  0.0149
29622SOL    HW293805   3.551   8.448   8.220  0.3076  0.0864 -0.1848
29623SOL     OW93806   3.698   6.422  11.062 -0.2122 -0.3561 -0.4782
29623SOL    HW193807   3.714   6.327  11.059 -0.3066 -0.3550 -1.6266
29623SOL    HW293808   3.619   6.434  11.008 -1.6471  0.1162  1.6157
29624SOL     OW93809   3.802   6.803   6.494  0.0393 -0.0914 -0.6673
29624SOL    HW193810   3.743   6.868   6.532  0.3733  0.1855 -0.6194
29624SOL    HW293811   3.764   6.783   6.408  0.0420  0.3046 -0.7613
29625SOL     OW93812   4.492   0.988   3.575 -0.0121  0.1659  0.0995
29625SOL    HW193813   4.555   1.056   3.553 -1.1001  0.8522 -1.0413
29625SOL    HW293814   4.534   0.906   3.548  1.6421  0.2504  2.2242
29626SOL     OW93815   3.898  11.532   3.157 -0.1451 -0.3024 -0.2536
29626SOL    HW193816   3.881  11.461   3.095  0.7124 -0.6958 -0.0519
29626SOL    HW293817   3.813  11.550   3.196 -0.6083 -0.3783 -1.1876
29627SOL     OW93818   9.345   5.142   0.955 -0.0388 -0.3001  0.4506
29627SOL    HW193819   9.430   5.163   0.917 -0.2110 -1.3259 -0.5413
29627SOL    HW293820   9.281   5.179   0.894 -0.3051 -0.8763  0.3672
29628SOL     OW93821   0.520   3.776   6.848 -0.2298 -0.3076  0.1349
29628SOL    HW193822   0.518   3.687   6.881  0.3048 -0.7047 -0.8731
29628SOL    HW293823   0.485   3.770   6.759  0.2154  0.4056 -0.1005
29629SOL     OW93824   8.883  11.582   1.442 -0.0259  0.2850  0.4987
29629SOL    HW193825   8.821  11.512   1.460 -1.7477  1.5050 -0.4364
29629SOL    HW293826   8.839  11.638   1.377  2.4295  0.6802 -0.9631
29630SOL     OW93827   9.514   7.427  10.498  0.1533  0.1436  0.8279
29630SOL    HW193828   9.565   7.500  10.463 -0.0172 -0.6088 -1.1406
29630SOL    HW293829   9.424   7.460  10.503 -0.0908 -0.1680 -0.9434
29631SOL     OW93830   4.739   6.693   7.632 -0.0907 -0.4064 -0.8197
29631SOL    HW193831   4.672   6.730   7.573  0.5914 -1.3730 -2.2576
29631SOL    HW293832   4.821   6.730   7.601  0.0150  1.8727  1.7960
29632SOL     OW93833   1.054   1.949   2.467 -0.3248 -0.1408  0.1479
29632SOL    HW193834   1.067   1.859   2.497 -1.4475 -0.4466 -0.2447
29632SOL    HW293835   0.996   1.941   2.392 -1.4113  0.9956  0.8342
29633SOL     OW93836   8.742   1.420   6.531  0.4052 -0.1646 -0.4818
29633SOL    HW193837   8.651   1.407   6.504 -0.2468 -0.5047  1.7381
29633SOL    HW293838   8.776   1.331   6.542  0.3575 -0.0464  0.6950
29634SOL     OW93839   5.636   8.805   7.700 -0.4950 -0.5475  0.0120
29634SOL    HW193840   5.673   8.843   7.779 -1.3209 -0.1083  0.2006
29634SOL    HW293841   5.674   8.857   7.628 -1.8123  0.8567  0.2791
29635SOL     OW93842   2.075   5.727   9.893  0.4435  0.2104 -0.2489
29635SOL    HW193843   2.099   5.793   9.958  0.4093 -1.1984  1.2486
29635SOL    HW293844   1.982   5.710   9.911  0.9643 -1.7666  0.8508
29636SOL     OW93845   0.518   2.483   3.741 -0.4859  0.0602  0.2290
29636SOL    HW193846   0.466   2.422   3.794 -0.6694  1.1122  1.2917
29636SOL    HW293847   0.606   2.476   3.777 -0.1246 -0.8027 -0.7633
29637SOL     OW93848   0.727   6.520   0.087 -0.0673 -0.1801 -0.2233
29637SOL    HW193849   0.695   6.465   0.016  0.0329 -0.0246 -0.3904
29637SOL    HW293850   0.802   6.566   0.049 -0.4700  0.4707 -0.2527
29638SOL     OW93851   4.198   1.998   4.770  0.0454 -0.5934  0.0976
29638SOL    HW193852   4.166   2.012   4.681  0.0347 -1.8245 -0.1112
29638SOL    HW293853   4.240   2.081   4.794  1.8351 -0.8900 -1.8021
29639SOL     OW93854  10.228   1.093   4.191 -0.5568  0.2815  0.3755
29639SOL    HW193855  10.297   1.126   4.135 -1.2629  0.4957 -0.3905
29639SOL    HW293856  10.266   1.093   4.279  1.1583 -1.6751 -0.2929
29640SOL     OW93857   7.891   3.645   5.483 -0.5348 -0.3919 -0.4917
29640SOL    HW193858   7.945   3.642   5.404  2.0468  1.6372  1.0504
29640SOL    HW293859   7.923   3.571   5.536 -2.1056 -1.6108 -1.1576
29641SOL     OW93860   7.843   9.268  10.452 -0.1003  0.0692 -0.1146
29641SOL    HW193861   7.917   9.216  10.422 -0.0357  0.6575 -1.0337
29641SOL    HW293862   7.867   9.296  10.540  0.9215  0.5150 -0.5168
29642SOL     OW93863   2.454   7.856   4.106  0.4997  0.4954 -0.1807
29642SOL    HW193864   2.422   7.797   4.174 -1.1330  1.4327 -0.0800
29642SOL    HW293865   2.543   7.880   4.134 -0.2260  1.0546  1.7923
29643SOL     OW93866   7.568   7.347   7.051  0.3378  0.0702  0.1259
29643SOL    HW193867   7.603   7.281   6.991  1.0848 -1.1904  1.8377
29643SOL    HW293868   7.474   7.331   7.051  0.4583 -0.7196  0.1556
29644SOL     OW93869   4.746  11.170   9.056 -0.2836 -0.5449  0.5433
29644SOL    HW193870   4.728  11.235   8.988  0.8476 -0.2944  0.4549
29644SOL    HW293871   4.684  11.099   9.039 -0.4841 -0.1782 -0.3175
29645SOL     OW93872  10.794   9.201   4.695  0.6113  0.1196 -0.1463
29645SOL    HW193873  10.859   9.190   4.625 -0.1314 -1.1874 -0.6626
29645SOL    HW293874  10.766   9.112   4.717 -1.1924  0.6428 -0.1237
29646SOL     OW93875   0.200   0.373   0.186  0.0203  0.5104 -0.3146
29646SOL    HW193876   0.265   0.304   0.173  0.3072  0.4784  1.1505
29646SOL    HW293877   0.137   0.361   0.115  0.3160 -0.9725 -0.3398
29647SOL     OW93878   3.640   0.300   5.143  0.1885  0.2812 -0.0809
29647SOL    HW193879   3.548   0.320   5.127  0.4812  2.0135  0.1874
29647SOL    HW293880   3.683   0.317   5.059  0.4529  0.8276  0.1611
29648SOL     OW93881   4.021  11.071   1.537 -0.2933  0.5137 -0.8254
29648SOL    HW193882   4.089  11.007   1.519 -0.2787  0.8583 -2.0879
29648SOL    HW293883   3.939  11.023   1.526 -0.2821  0.2416  0.1425
29649SOL     OW93884   3.841   3.220   7.507 -0.0180 -0.3937  0.1689
29649SOL    HW193885   3.831   3.217   7.412  0.3925  1.0280  0.0542
29649SOL    HW293886   3.783   3.291   7.535  0.7381 -0.0181  0.8337
29650SOL     OW93887   9.379  10.342   5.431  0.2054 -0.2361 -0.1498
29650SOL    HW193888   9.303  10.299   5.395  0.0897 -0.6305  0.5472
29650SOL    HW293889   9.351  10.433   5.446 -0.2073 -0.4419  0.3387
29651SOL     OW93890   6.771   9.007   9.221  0.2472 -0.4018  0.5402
29651SOL    HW193891   6.742   8.997   9.312 -2.6517 -0.1742 -0.2421
29651SOL    HW293892   6.767   8.918   9.185 -2.0146 -0.0884 -0.1735
29652SOL     OW93893  10.431   5.824   8.177  0.2023 -0.0586  0.0843
29652SOL    HW193894  10.421   5.907   8.130 -0.9764 -0.4159 -0.3513
29652SOL    HW293895  10.451   5.760   8.109 -2.1415 -0.6978 -0.0966
29653SOL     OW93896   2.399  10.781   5.751 -0.3931 -0.5702 -0.1583
29653SOL    HW193897   2.481  10.745   5.785  0.3771  0.2766 -1.0622
29653SOL    HW293898   2.405  10.767   5.656 -0.3437  1.3088 -0.4768
29654SOL     OW93899   0.772   9.729   5.773  0.1805  0.2760 -0.1431
29654SOL    HW193900   0.702   9.665   5.759  0.6970 -0.1327 -0.9593
29654SOL    HW293901   0.846   9.676   5.804  0.1143  0.7169  0.7973
29655SOL     OW93902   7.303   8.527  10.185  0.5405  0.4293  0.4187
29655SOL    HW193903   7.344   8.533  10.099 -4.0648 -1.8194 -2.3677
29655SOL    HW293904   7.336   8.444  10.221  2.0670  1.1006  0.6245
29656SOL     OW93905  11.468   2.018   9.816 -0.0545  0.2651  0.1867
29656SOL    HW193906  11.422   1.944   9.778  0.5767 -0.1967  0.2978
29656SOL    HW293907  11.486   2.076   9.742  0.3936 -0.2079 -0.0826
29657SOL     OW93908   6.540   3.090   8.832  0.7246  0.5744 -0.1285
29657SOL    HW193909   6.581   3.108   8.748 -0.4185  1.4344 -0.5309
29657SOL    HW293910   6.454   3.056   8.810  0.7071  0.0587  0.6941
29658SOL     OW93911   9.989   3.301   1.447 -0.5281  0.1646 -0.3062
29658SOL    HW193912   9.937   3.225   1.422 -2.1587  1.3675 -0.7710
29658SOL    HW293913  10.050   3.268   1.513 -0.8950 -1.6151 -0.8055
29659SOL     OW93914   8.092   5.677   9.063  0.0401 -0.2529  0.3352
29659SOL    HW193915   8.158   5.643   9.123  0.8133  1.0681  0.2645
29659SOL    HW293916   8.010   5.673   9.112  0.1091 -2.0295  0.3798
29660SOL     OW93917  10.183   5.874   2.654 -0.5918 -0.2734 -0.6886
29660SOL    HW193918  10.146   5.795   2.693 -1.8204 -0.0028 -1.2596
29660SOL    HW293919  10.173   5.941   2.721  2.2548 -0.9712  0.5818
29661SOL     OW93920   1.917   5.821   0.714 -0.0888 -0.8383 -0.2389
29661SOL    HW193921   1.903   5.864   0.798 -0.5343 -1.1712 -0.1417
29661SOL    HW293922   2.004   5.851   0.686 -1.3999  2.3234 -1.4532
29662SOL     OW93923   3.465   0.572   3.002  0.2083 -0.1644 -0.6642
29662SOL    HW193924   3.546   0.537   2.963 -0.3187 -1.1505 -0.8975
29662SOL    HW293925   3.448   0.515   3.077 -2.1836 -2.3084 -2.6487
29663SOL     OW93926   0.794   0.041   0.532  0.3633 -0.4777  0.1896
29663SOL    HW193927   0.806   0.036   0.437 -0.8667 -2.1444  0.0861
29663SOL    HW293928   0.865   0.099   0.562  0.7485  0.1137 -1.7241
29664SOL     OW93929   4.206   8.663   6.075  0.4153  0.1894  0.3383
29664SOL    HW193930   4.249   8.747   6.088 -0.7857  1.2197 -1.9207
29664SOL    HW293931   4.114   8.684   6.060 -0.1538 -1.6437  0.9353
29665SOL     OW93932   5.899  10.633   7.240  0.4159 -0.3218 -0.2011
29665SOL    HW193933   5.933  10.611   7.153  1.4843  0.6891 -0.0640
29665SOL    HW293934   5.890  10.728   7.239 -2.4607 -0.5104 -0.2018
29666SOL     OW93935   3.740   5.849   3.531 -0.5547 -0.2580  0.4758
29666SOL    HW193936   3.744   5.782   3.462  0.4939  1.3288 -1.0747
29666SOL    HW293937   3.831   5.866   3.552 -0.8389  0.2656  1.2960
29667SOL     OW93938   2.970   2.748   6.041 -0.7896 -0.7199  0.7095
29667SOL    HW193939   3.057   2.768   6.007 -1.3173  0.0636 -0.2078
29667SOL    HW293940   2.929   2.833   6.057 -0.6594 -1.0315  3.1397
29668SOL     OW93941   3.637   0.678   1.973  0.4221 -0.5401  0.2694
29668SOL    HW193942   3.601   0.605   1.923  1.1039 -1.3770  0.9496
29668SOL    HW293943   3.660   0.639   2.058  2.2322  0.0966  0.1076
29669SOL     OW93944   6.242   3.557  10.623 -0.2287  0.4927  0.1329
29669SOL    HW193945   6.152   3.540  10.651  0.0063  0.1351  0.7007
29669SOL    HW293946   6.292   3.484  10.660  0.3778  0.9753  0.2837
29670SOL     OW93947   8.779   1.097   8.158  0.2807  0.1235 -0.2974
29670SOL    HW193948   8.847   1.029   8.166 -0.2373 -0.6253 -1.8185
29670SOL    HW293949   8.723   1.065   8.088 -1.4555  0.9155  0.6818
29671SOL     OW93950   2.055   1.549   5.736 -0.5897  0.2384  0.3641
29671SOL    HW193951   1.970   1.528   5.773  0.2255  0.6557  2.6460
29671SOL    HW293952   2.047   1.641   5.709 -0.3658  0.8889  2.3368
29672SOL     OW93953  11.607  10.964  10.710  0.0818 -0.1965  0.1510
29672SOL    HW193954  11.561  10.916  10.779  2.1976 -0.1937  1.6628
29672SOL    HW293955  11.537  10.999  10.655 -1.7334 -0.1801  2.3072
29673SOL     OW93956   9.215   8.456   8.987 -0.0238  0.4591 -0.0939
29673SOL    HW193957   9.230   8.549   9.003  1.5045  0.4549 -1.3482
29673SOL    HW293958   9.295   8.425   8.945 -0.9666 -1.1566 -0.7969
29674SOL     OW93959  10.461   6.950   2.823  0.4399 -0.7007  0.1362
29674SOL    HW193960  10.466   7.012   2.896  1.2901 -0.5041 -0.0758
29674SOL    HW293961  10.514   6.876   2.850 -1.3317 -1.7905  0.7833
29675SOL     OW93962   8.887   4.713   0.385  0.2257  0.8073 -0.1973
29675SOL    HW193963   8.818   4.650   0.364  1.6749 -1.0679  0.3433
29675SOL    HW293964   8.843   4.782   0.434 -1.7794  1.2972 -2.5231
29676SOL     OW93965   6.522   9.889  10.106  0.6539 -0.1094  0.0611
29676SOL    HW193966   6.554   9.961  10.161  0.5393  0.1799 -0.2528
29676SOL    HW293967   6.435   9.868  10.141  0.8079 -0.2974  0.3402
29677SOL     OW93968   2.857   0.350   3.814  0.3559 -0.7120  0.0937
29677SOL    HW193969   2.837   0.433   3.769  0.7177 -1.0639 -0.7292
29677SOL    HW293970   2.817   0.360   3.901  2.9657  1.5565  1.1737
29678SOL     OW93971   8.262   7.471  11.169  0.0995 -0.2951 -0.1773
29678SOL    HW193972   8.237   7.440  11.082  0.6127  0.7455 -0.7165
29678SOL    HW293973   8.353   7.500  11.159 -0.0580  0.4947  0.5187
29679SOL     OW93974  10.608   3.811   1.694  0.3929 -0.1944 -0.4254
29679SOL    HW193975  10.630   3.861   1.616  2.5338  1.1646  0.9306
29679SOL    HW293976  10.675   3.835   1.758 -1.7902 -0.4643  2.1793
29680SOL     OW93977   4.052   6.157   1.760  0.3590 -0.1723  0.1069
29680SOL    HW193978   4.087   6.125   1.677  3.6343  1.0579  0.8400
29680SOL    HW293979   4.047   6.079   1.815 -0.2752 -0.7455 -0.7458
29681SOL     OW93980   6.952  11.207   5.089 -0.2131 -0.1575 -0.9355
29681SOL    HW193981   6.910  11.147   5.152 -0.0704 -0.3962 -1.0695
29681SOL    HW293982   6.961  11.156   5.009  2.2140 -0.8002 -0.3180
29682SOL     OW93983   8.015   3.269   1.103  0.7809 -0.1330 -0.1641
29682SOL    HW193984   8.014   3.312   1.018 -1.6687  0.2466 -0.0178
29682SOL    HW293985   7.944   3.311   1.152  0.3185 -2.2333  1.0851
29683SOL     OW93986   2.074   5.360   6.807  0.0583  0.0355  0.3720
29683SOL    HW193987   2.067   5.265   6.794 -0.1539 -0.1424  1.6360
29683SOL    HW293988   2.104   5.394   6.723 -1.7347 -0.9293 -0.7069
29684SOL     OW93989  10.169  10.378   0.635 -0.2620 -0.0098 -0.0438
29684SOL    HW193990  10.184  10.285   0.655  0.3574  0.0196 -0.3619
29684SOL    HW293991  10.078  10.381   0.605 -0.2128 -0.5530 -0.2665
29685SOL     OW93992   9.009   7.458   0.021  0.1280  0.5570 -0.0489
29685SOL    HW193993   8.965   7.465  -0.064 -0.9351  1.6270  0.5466
29685SOL    HW293994   9.101   7.476   0.002 -0.2039  1.4767 -0.8889
29686SOL     OW93995   2.488   0.756   9.273  0.4910  0.2043  0.0836
29686SOL    HW193996   2.545   0.696   9.224  0.7373  0.1691  0.4087
29686SOL    HW293997   2.401   0.718   9.264  0.6218 -0.1155  0.1543
29687SOL     OW93998   3.370   1.176  10.755  0.3758  0.0509  0.4088
29687SOL    HW193999   3.301   1.241  10.757 -0.5897 -0.9564  0.7343
29687SOL    HW294000   3.325   1.093  10.739  1.7152 -0.3729 -1.4535
29688SOL     OW94001   2.467   9.811   4.713 -0.0759 -0.1364 -0.1764
29688SOL    HW194002   2.560   9.787   4.719 -0.4085 -1.2093  0.9299
29688SOL    HW294003   2.423   9.731   4.686 -1.0083 -0.4398  2.0436
29689SOL     OW94004   3.094   6.516   4.726 -0.1188  0.0089 -0.2239
29689SOL    HW194005   3.164   6.579   4.744 -0.4163  0.2052  0.2881
29689SOL    HW294006   3.074   6.528   4.633  0.0327  0.4651 -0.2002
29690SOL     OW94007   3.103   2.107   3.958  0.3656  0.4542 -0.0895
29690SOL    HW194008   3.117   2.162   3.880  0.2453  0.1704 -0.3128
29690SOL    HW294009   3.009   2.109   3.973 -0.1917 -2.5939 -2.2805
29691SOL     OW94010  10.058   5.168   1.952 -0.0262 -0.1417  0.0143
29691SOL    HW194011  10.087   5.196   1.865  0.2090 -1.0918 -0.2203
29691SOL    HW294012  10.139   5.148   1.999 -0.0251  2.1283  1.1032
29692SOL     OW94013   9.975   8.573   7.943 -0.1830 -0.0636  0.8331
29692SOL    HW194014  10.047   8.514   7.963 -0.3462 -0.8160 -0.6900
29692SOL    HW294015  10.017   8.659   7.931  0.5579 -0.5783 -0.4925
29693SOL     OW94016   8.192   0.763   5.603 -0.0136 -0.0380  0.1590
29693SOL    HW194017   8.233   0.677   5.614  4.0894  1.9788  2.9357
29693SOL    HW294018   8.173   0.793   5.692 -2.3296  1.6267 -0.7862
29694SOL     OW94019   4.209   6.378   0.672  0.0544  0.3836 -0.2487
29694SOL    HW194020   4.258   6.420   0.743 -2.0399  1.9053  0.3916
29694SOL    HW294021   4.125   6.355   0.710 -0.3155 -0.8117 -1.6865
29695SOL     OW94022   6.764   4.306   2.537 -0.1868 -0.1894  0.4561
29695SOL    HW194023   6.693   4.356   2.577 -0.2039  1.4653 -1.4997
29695SOL    HW294024   6.831   4.370   2.516  1.3941 -1.5439  1.1028
29696SOL     OW94025   4.774   5.096   2.820 -0.0435  0.4136 -0.1267
29696SOL    HW194026   4.718   5.174   2.818 -0.4122  0.1417 -0.4373
29696SOL    HW294027   4.847   5.117   2.761  1.0947  1.4313  1.5393
29697SOL     OW94028   0.836   8.436   8.109  0.1205 -0.3437 -0.0077
29697SOL    HW194029   0.859   8.397   8.194  0.7833  0.2786  0.1110
29697SOL    HW294030   0.865   8.371   8.045  1.3515 -0.0179  0.1845
29698SOL     OW94031  11.044   9.605   8.904  0.0173 -0.1534 -0.2199
29698SOL    HW194032  11.042   9.672   8.972 -0.3927  0.7493 -1.1011
29698SOL    HW294033  11.136   9.582   8.896  0.0291 -0.5329  0.8839
29699SOL     OW94034   8.583   7.918   6.864 -0.0118 -0.4190  0.5854
29699SOL    HW194035   8.540   7.964   6.936  0.9785 -0.2428  1.0803
29699SOL    HW294036   8.538   7.951   6.786 -0.6316 -0.0865  1.0645
29700SOL     OW94037   6.181   0.241   7.174  0.4108  0.1030 -0.6431
29700SOL    HW194038   6.240   0.314   7.154  1.2329 -0.2190  0.4631
29700SOL    HW294039   6.097   0.283   7.193  0.8435  0.7747 -0.1314
29701SOL     OW94040   1.919   4.340   3.425  0.5433  0.0719 -0.1538
29701SOL    HW194041   1.908   4.434   3.415  0.4666  0.0366 -0.4017
29701SOL    HW294042   1.831   4.307   3.444  0.6658  0.1236  0.5311
29702SOL     OW94043  11.067   0.664   1.340 -0.7282 -0.7897 -0.4023
29702SOL    HW194044  11.156   0.651   1.308  0.3805  1.4708  1.4717
29702SOL    HW294045  11.048   0.586   1.391 -0.1825 -1.6773 -1.5215
29703SOL     OW94046   2.144   0.512   3.609 -0.3969  0.0230 -0.2837
29703SOL    HW194047   2.083   0.536   3.679  0.7190 -0.5580  0.9298
29703SOL    HW294048   2.106   0.551   3.530 -1.0440  1.7702  0.8310
29704SOL     OW94049   9.927   1.346   1.788  0.0730  0.7662 -0.7219
29704SOL    HW194050   9.887   1.301   1.863  0.2622  0.1494 -0.9954
29704SOL    HW294051   9.945   1.277   1.725  2.0412  0.9566 -0.4155
29705SOL     OW94052  10.759   3.752   9.762 -0.0435 -0.1730  0.2153
29705SOL    HW194053  10.724   3.801   9.687 -0.5647  0.6064  0.9495
29705SOL    HW294054  10.837   3.709   9.728 -0.4822 -0.1501 -0.8827
29706SOL     OW94055   7.114   6.625   3.554  0.1573 -0.7377  0.3075
29706SOL    HW194056   7.051   6.587   3.616  0.2192 -0.8109  0.3250
29706SOL    HW294057   7.198   6.586   3.578  0.5447  0.6822  1.4420
29707SOL     OW94058  10.736   9.551   3.123 -0.3052 -0.4756  0.1252
29707SOL    HW194059  10.699   9.487   3.062 -2.4558  0.8724 -0.0940
29707SOL    HW294060  10.721   9.513   3.209 -1.2750 -0.4243 -0.0125
29708SOL     OW94061   9.237  10.917   2.696 -0.6980  0.1068  0.0489
29708SOL    HW194062   9.311  10.975   2.713 -1.5834  1.3808 -0.2831
29708SOL    HW294063   9.255  10.840   2.749  0.3903  0.7867  0.7243
29709SOL     OW94064   5.593   1.375   8.153  0.4438 -0.2498  0.4041
29709SOL    HW194065   5.581   1.353   8.061  0.8673 -0.8732  0.4907
29709SOL    HW294066   5.516   1.429   8.175  0.9210  0.8779 -0.5992
29710SOL     OW94067  10.114  10.028   6.487 -0.0509  0.4418 -0.1291
29710SOL    HW194068  10.063  10.109   6.489 -0.5813  0.1098 -0.0346
29710SOL    HW294069  10.082   9.981   6.410  0.5424  0.5042 -0.4166
29711SOL     OW94070   5.377   2.993   1.882 -0.0270  0.4594  0.2293
29711SOL    HW194071   5.437   3.061   1.851 -0.8133  2.5990  3.0006
29711SOL    HW294072   5.416   2.911   1.852  2.3316  1.9643 -1.1179
29712SOL     OW94073   1.419   4.327   6.451  0.3015  0.3283  0.1556
29712SOL    HW194074   1.474   4.376   6.512 -0.3537 -0.0319  1.0465
29712SOL    HW294075   1.476   4.310   6.376  2.0836 -1.8061  1.8660
29713SOL     OW94076   2.129   3.111   5.246 -0.1678 -0.5963  0.1003
29713SOL    HW194077   2.141   3.029   5.198  2.5438  0.3332 -1.0052
29713SOL    HW294078   2.146   3.089   5.337  0.9983 -1.2189 -0.2489
29714SOL     OW94079   8.973  10.568   3.362 -0.1549  0.7767  0.3059
29714SOL    HW194080   9.019  10.502   3.415  0.9722  1.3860  0.1048
29714SOL    HW294081   8.908  10.604   3.422 -1.0658 -0.7560  0.3161
29715SOL     OW94082   5.986   4.910   2.916  0.0791 -0.2232  0.3525
29715SOL    HW194083   6.062   4.890   2.862 -0.0201  1.6084 -0.5668
29715SOL    HW294084   5.941   4.981   2.868 -2.2224 -1.2623  0.8470
29716SOL     OW94085   2.844   2.471   8.987  0.1915  0.2136  0.2276
29716SOL    HW194086   2.910   2.405   9.008  0.3793  0.5679  0.7845
29716SOL    HW294087   2.880   2.553   9.022 -0.7920  0.3159  1.0682
29717SOL     OW94088   9.706  10.967   0.812 -0.4730  0.2296  0.5185
29717SOL    HW194089   9.732  11.059   0.821 -0.3182  0.0302  2.6535
29717SOL    HW294090   9.617  10.964   0.848 -0.3194 -0.5119  0.8385
29718SOL     OW94091   7.635   4.553   7.247  0.0949  0.2689  0.5723
29718SOL    HW194092   7.592   4.521   7.168  0.6898 -0.9246  0.7076
29718SOL    HW294093   7.574   4.530   7.318 -0.1331  0.7385  0.5313
29719SOL     OW94094   6.448   4.300   4.214  0.1429 -0.0659 -0.1292
29719SOL    HW194095   6.510   4.228   4.224  0.8130  0.6874  1.6043
29719SOL    HW294096   6.367   4.258   4.185  0.3776 -1.6141  1.2614
29720SOL     OW94097   6.900   3.170   9.061 -0.3392 -0.1722  0.3712
29720SOL    HW194098   6.850   3.099   9.021 -0.3495  0.1920 -0.2695
29720SOL    HW294099   6.876   3.248   9.011  1.2802 -0.0713 -0.3249
29721SOL     OW94100   9.358   7.607   3.865  0.2086  0.6869 -0.1434
29721SOL    HW194101   9.275   7.652   3.849 -1.4540 -1.8278  0.8509
29721SOL    HW294102   9.391   7.584   3.778 -1.2341 -0.1339 -0.4865
29722SOL     OW94103   4.634   8.389   5.877  0.0707 -0.4364  0.4263
29722SOL    HW194104   4.633   8.391   5.781  2.7265 -2.6581  0.2418
29722SOL    HW294105   4.564   8.449   5.903 -0.7175  0.2521 -2.8788
29723SOL     OW94106   9.634   2.104   9.478  0.3744  0.1119 -0.3656
29723SOL    HW194107   9.543   2.094   9.447  1.2631  0.9428 -3.5966
29723SOL    HW294108   9.675   2.020   9.458  0.0552 -0.8909  2.6282
29724SOL     OW94109   5.039   0.621   9.139  0.6175 -0.0403 -0.2933
29724SOL    HW194110   4.961   0.566   9.135 -0.4738  1.4881 -2.0603
29724SOL    HW294111   5.108   0.569   9.097 -0.2194 -0.3073 -1.3595
29725SOL     OW94112   2.215   8.893   5.045 -0.2253 -0.1530  0.0594
29725SOL    HW194113   2.189   8.803   5.068  1.7091 -0.7344  0.1740
29725SOL    HW294114   2.238   8.933   5.128  0.9303 -0.2713 -0.1792
29726SOL     OW94115   3.013  11.038   3.411 -0.1320 -0.0121 -0.1973
29726SOL    HW194116   2.962  10.986   3.349 -1.5471  0.7200  0.2927
29726SOL    HW294117   3.002  10.993   3.495  1.7158 -0.9577 -0.4072
29727SOL     OW94118  10.953   6.057   0.133  0.0986  0.1837 -0.7154
29727SOL    HW194119  10.905   6.138   0.118 -0.3705  0.0264 -0.1016
29727SOL    HW294120  11.022   6.080   0.193 -1.4628 -0.3101  1.3922
29728SOL     OW94121   4.698   4.420   7.652  0.6545 -0.1516 -0.0163
29728SOL    HW194122   4.785   4.455   7.669  1.5595 -0.4535 -3.2167
29728SOL    HW294123   4.671   4.464   7.571 -1.5281 -1.1899  0.0795
29729SOL     OW94124   1.536   6.757  10.443  0.1002 -0.5070 -0.1891
29729SOL    HW194125   1.548   6.807  10.524  0.3722 -1.5464  0.4380
29729SOL    HW294126   1.452   6.713  10.454  1.2140 -2.5774  0.6428
29730SOL     OW94127   0.596   9.329   9.472  0.0820  0.2135  0.6904
29730SOL    HW194128   0.647   9.394   9.424  1.1583 -2.7008 -2.5220
29730SOL    HW294129   0.657   9.292   9.534  2.0062 -2.6718 -2.5632
29731SOL     OW94130   0.017   0.044   3.757 -0.7846 -0.8516 -0.0892
29731SOL    HW194131  -0.070   0.077   3.735 -0.8423  0.8464  2.3284
29731SOL    HW294132   0.007   0.007   3.844  1.1840  0.8943  0.9749
29732SOL     OW94133   8.121   4.663   9.585  1.0088 -0.0040 -0.1704
29732SOL    HW194134   8.207   4.671   9.625  1.0741  1.6695 -0.5607
29732SOL    HW294135   8.060   4.659   9.659  1.3007  0.7214  0.1204
29733SOL     OW94136   0.449  10.183   1.331  0.5754  0.4148 -0.2409
29733SOL    HW194137   0.363  10.185   1.289  0.3313 -0.9592  0.1246
29733SOL    HW294138   0.492  10.264   1.303 -1.3546  1.8536  0.7019
29734SOL     OW94139   9.852  11.201   6.892 -0.1734 -0.1637 -0.1704
29734SOL    HW194140   9.890  11.261   6.956  0.2951  0.0389 -0.6295
29734SOL    HW294141   9.835  11.256   6.815 -0.7437 -0.4015 -0.2199
29735SOL     OW94142   6.699   6.505   4.853 -0.0593 -0.3131 -0.1053
29735SOL    HW194143   6.635   6.476   4.788 -2.3214  0.2379  1.7514
29735SOL    HW294144   6.712   6.429   4.910 -1.6198  0.4888  1.4094
29736SOL     OW94145   8.365   6.357   8.022  0.3437 -0.0353  0.4877
29736SOL    HW194146   8.347   6.316   7.938  0.7816 -1.6958  1.1603
29736SOL    HW294147   8.289   6.415   8.038 -1.5245 -2.3535  0.5454
29737SOL     OW94148   3.342   4.115   9.836  0.0634  0.0651  0.7487
29737SOL    HW194149   3.358   4.183   9.772  0.4249 -0.2751  0.4731
29737SOL    HW294150   3.313   4.039   9.784  2.2001 -0.8354  0.7656
29738SOL     OW94151   8.290   8.680   6.402  0.1624 -0.1183  0.4917
29738SOL    HW194152   8.260   8.770   6.410  2.7493  1.0979 -1.6591
29738SOL    HW294153   8.332   8.661   6.486 -0.7639  0.5208  1.1151
29739SOL     OW94154  11.029  11.016   4.309  0.9752  0.8817 -0.3724
29739SOL    HW194155  11.071  10.958   4.373  2.4151  1.4017 -0.8113
29739SOL    HW294156  11.087  11.092   4.304  0.1247  1.4989 -1.2415
29740SOL     OW94157   7.798  10.306   9.159 -0.5109 -0.0820 -0.5156
29740SOL    HW194158   7.857  10.234   9.137 -1.4617 -1.0603  0.0468
29740SOL    HW294159   7.710  10.268   9.152 -1.0151  0.9032  0.2307
29741SOL     OW94160   2.197  10.879   8.599  0.2255  0.1816  0.3266
29741SOL    HW194161   2.194  10.818   8.525 -1.8622  0.9504 -0.3008
29741SOL    HW294162   2.289  10.878   8.627  1.1409 -0.0103 -2.3736
29742SOL     OW94163   7.871   2.555   8.492  0.4331 -0.4941  0.4250
29742SOL    HW194164   7.838   2.468   8.513  0.2723 -0.5378 -0.0002
29742SOL    HW294165   7.945   2.539   8.432 -0.5946 -0.2894 -0.9543
29743SOL     OW94166   9.823   1.941   2.329  0.0970 -0.1330 -0.5077
29743SOL    HW194167   9.908   1.965   2.294  0.1783 -0.9060 -0.8584
29743SOL    HW294168   9.832   1.849   2.354 -0.5495 -0.1473 -0.3034
29744SOL     OW94169   6.038   4.171   6.542  0.4218 -0.2823  1.0491
29744SOL    HW194170   5.951   4.198   6.513 -0.5054 -2.6301  1.4582
29744SOL    HW294171   6.093   4.177   6.464 -0.5540 -0.5481  0.3253
29745SOL     OW94172   0.479   8.489   4.820 -0.2938  1.0886  0.2682
29745SOL    HW194173   0.503   8.465   4.730 -1.7063  1.0962 -0.1404
29745SOL    HW294174   0.504   8.413   4.872 -0.2915  0.7120 -0.2694
29746SOL     OW94175   4.764   3.990   4.641  0.2660  0.1660  0.2466
29746SOL    HW194176   4.751   3.984   4.546  0.9756  2.4491 -0.0372
29746SOL    HW294177   4.847   3.944   4.656 -0.3035 -1.0224 -0.0594
29747SOL     OW94178   9.814   8.350   1.736  0.2540 -0.4079  0.1716
29747SOL    HW194179   9.799   8.337   1.829  1.3010  1.4344  0.6601
29747SOL    HW294180   9.897   8.307   1.718  0.4796 -0.0254  0.2918
29748SOL     OW94181   6.830   4.671   8.761 -0.2362 -0.2289 -0.5756
29748SOL    HW194182   6.910   4.721   8.777 -1.5276  1.7467  0.1093
29748SOL    HW294183   6.761   4.720   8.807 -2.1503 -0.8472 -2.5995
29749SOL     OW94184   3.733   3.262   4.779 -0.5369  0.3488 -0.4358
29749SOL    HW194185   3.659   3.322   4.792 -2.1463 -1.3504 -1.2963
29749SOL    HW294186   3.770   3.287   4.695 -0.3581  0.9674 -0.1789
29750SOL     OW94187   6.240   7.975   0.272  0.3337 -0.1606  0.4903
29750SOL    HW194188   6.270   7.993   0.183 -2.5084  1.5468 -0.2665
29750SOL    HW294189   6.195   7.891   0.265 -0.0372  0.0526  0.2289
29751SOL     OW94190   7.932   1.624   7.422 -0.5193 -0.1722 -0.2884
29751SOL    HW194191   7.902   1.675   7.347 -1.2840  0.0660  0.1717
29751SOL    HW294192   7.991   1.559   7.384 -2.2703 -1.2104 -1.3560
29752SOL     OW94193   6.198   6.726   7.062 -0.1257 -0.3841  0.7143
29752SOL    HW194194   6.287   6.750   7.033  0.3920 -2.0259  0.8460
29752SOL    HW294195   6.149   6.714   6.981 -0.5558  1.4854  0.6358
29753SOL     OW94196   1.098   8.763   5.466  0.4276  0.1321 -0.2454
29753SOL    HW194197   1.017   8.794   5.424  1.6005 -1.7073 -4.4637
29753SOL    HW294198   1.074   8.680   5.506  0.1316 -0.3448 -1.3695
29754SOL     OW94199   4.864   7.023   2.864  0.0661 -0.4399  0.5333
29754SOL    HW194200   4.936   6.974   2.903 -1.2124 -0.7768  2.6434
29754SOL    HW294201   4.883   7.114   2.886  1.6758 -0.0344 -2.1161
29755SOL     OW94202   9.863   7.819   6.347  0.3292 -0.1707 -0.1939
29755SOL    HW194203   9.951   7.784   6.360 -0.0462 -0.9036  0.4683
29755SOL    HW294204   9.831   7.775   6.268 -0.2610 -1.6339  0.8143
29756SOL     OW94205   8.905   1.126   0.876  0.3347  0.3024 -0.8819
29756SOL    HW194206   8.877   1.211   0.909 -0.6444 -0.5339  0.5760
29756SOL    HW294207   8.887   1.129   0.782 -1.8355  0.9344 -0.5103
29757SOL     OW94208   6.873  11.292  10.100 -0.2954 -0.0385 -0.0121
29757SOL    HW194209   6.957  11.270  10.140  0.1525  1.7093  0.0914
29757SOL    HW294210   6.896  11.349  10.026 -1.2822 -1.0761 -1.1692
29758SOL     OW94211   5.204   4.525   1.623  0.6573  0.0147 -0.1992
29758SOL    HW194212   5.200   4.527   1.527 -0.1205 -0.8550 -0.1918
29758SOL    HW294213   5.285   4.477   1.643  0.7989  0.1607 -0.4166
29759SOL     OW94214   2.106   1.949   8.368 -0.3841 -0.1724 -0.1994
29759SOL    HW194215   2.081   1.874   8.422 -0.1747 -0.1336 -0.0463
29759SOL    HW294216   2.118   1.913   8.281 -1.2301 -0.1440 -0.3343
29760SOL     OW94217   7.603   2.758   6.066  0.0788  0.0770 -0.0058
29760SOL    HW194218   7.694   2.781   6.084  0.0249  0.6792 -0.4379
29760SOL    HW294219   7.555   2.790   6.143  0.0643  1.0538 -0.3995
29761SOL     OW94220  11.596   5.923   4.400  0.4334  0.0718 -0.1994
29761SOL    HW194221  11.635   5.839   4.423  0.4208  0.0259 -0.3458
29761SOL    HW294222  11.581   5.967   4.484 -1.2607 -0.8199 -0.0037
29762SOL     OW94223   7.406   5.776   2.658 -0.8672 -0.0843  0.0100
29762SOL    HW194224   7.404   5.748   2.566  0.7821 -1.0699  0.2432
29762SOL    HW294225   7.371   5.702   2.707  0.5734 -0.5663  0.3603
29763SOL     OW94226   7.513  11.435   2.042 -0.1873 -0.5121  0.4180
29763SOL    HW194227   7.466  11.494   2.101 -1.7067 -0.6733 -0.5828
29763SOL    HW294228   7.445  11.398   1.986  1.2513  0.0842 -1.8464
29764SOL     OW94229   0.271   3.523   9.114  1.3429  0.1280 -0.2227
29764SOL    HW194230   0.261   3.615   9.087  0.7533  0.1437  0.0337
29764SOL    HW294231   0.287   3.476   9.032 -2.5370 -0.1287 -1.0449
29765SOL     OW94232   7.747   8.501   9.545  0.0003 -0.1215  0.2723
29765SOL    HW194233   7.774   8.411   9.525  0.6447 -0.1354  1.1381
29765SOL    HW294234   7.743   8.504   9.641 -2.0269  0.2120  0.2257
29766SOL     OW94235   7.644   3.998   4.190  0.0419 -0.1649  0.7094
29766SOL    HW194236   7.681   4.035   4.109  3.5254  0.0271  2.2028
29766SOL    HW294237   7.605   3.915   4.162 -1.7247  1.3143 -1.6014
29767SOL     OW94238   3.744   6.559   0.071 -0.5952 -0.2031  0.1399
29767SOL    HW194239   3.693   6.576   0.149 -0.6287  0.2579  0.0206
29767SOL    HW294240   3.683   6.516   0.011 -1.6437  2.5922 -0.9806
29768SOL     OW94241   5.093  11.356   9.916 -0.0604 -0.1770 -0.5533
29768SOL    HW194242   5.015  11.318   9.875  0.9408 -1.8914 -0.9906
29768SOL    HW294243   5.165  11.333   9.856  0.7647  1.6931 -0.3716
29769SOL     OW94244   3.099  11.463  10.224 -0.2472  0.3090  0.0576
29769SOL    HW194245   3.171  11.455  10.287 -0.5934  0.8155  0.5342
29769SOL    HW294246   3.100  11.381  10.175  0.9468  0.5085 -0.2662
29770SOL     OW94247   3.603   9.276   5.685 -0.1425 -0.1514 -0.2009
29770SOL    HW194248   3.694   9.251   5.671 -0.4414 -1.6196  0.2448
29770SOL    HW294249   3.557   9.192   5.692 -1.3248  0.5617  0.8421
29771SOL     OW94250   4.882  10.291   0.577 -0.3622  0.5550  0.5091
29771SOL    HW194251   4.870  10.197   0.586 -0.5420  0.5739  0.4602
29771SOL    HW294252   4.794  10.326   0.564 -0.1498  0.4931 -1.5332
29772SOL     OW94253   2.959   3.179   8.374 -0.0164  0.3674  0.7568
29772SOL    HW194254   2.941   3.111   8.440 -0.1321 -0.4192 -0.0717
29772SOL    HW294255   2.914   3.257   8.408  0.8966  0.3078  2.1936
29773SOL     OW94256   0.534   0.571   3.343  0.1557 -0.4602  0.4044
29773SOL    HW194257   0.458   0.590   3.398  0.1268 -1.1910  0.6255
29773SOL    HW294258   0.610   0.598   3.396  0.0997 -0.6640  0.5902
29774SOL     OW94259   3.827   2.097   3.704  0.0665 -0.4106  0.2581
29774SOL    HW194260   3.919   2.120   3.714  0.4053 -2.1110  1.4947
29774SOL    HW294261   3.826   2.001   3.705 -1.7650 -0.4227  0.8375
29775SOL     OW94262   7.397   5.978   8.678 -0.3629 -0.2805 -0.2338
29775SOL    HW194263   7.370   6.057   8.724  0.6570 -0.5468  0.8877
29775SOL    HW294264   7.474   5.947   8.727 -1.1848 -2.3656 -0.1740
29776SOL     OW94265   6.818   3.748   3.249  0.4208  0.4578 -0.4515
29776SOL    HW194266   6.817   3.843   3.260 -0.4748  0.5350 -1.0823
29776SOL    HW294267   6.758   3.715   3.316 -0.3389  0.4588 -1.1124
29777SOL     OW94268   7.606   5.510   6.897  0.1774  0.2698  0.2186
29777SOL    HW194269   7.647   5.566   6.962 -1.0655  1.7604 -0.2176
29777SOL    HW294270   7.595   5.426   6.941  0.1995  0.9727  1.6221
29778SOL     OW94271   0.484   5.256   2.875  0.2741  0.3903  0.1122
29778SOL    HW194272   0.540   5.182   2.850  1.8772  1.2904  0.8414
29778SOL    HW294273   0.450   5.289   2.792 -0.9770 -1.4957 -0.1865
29779SOL     OW94274   1.453   0.834  11.398  0.2801  0.3656 -0.1601
29779SOL    HW194275   1.526   0.802  11.450 -0.5101 -3.4627 -1.0353
29779SOL    HW294276   1.477   0.813  11.308 -1.0934  0.7654 -0.6503
29780SOL     OW94277   6.031   4.970  10.940  0.9451 -0.2749  0.0740
29780SOL    HW194278   6.013   4.879  10.962 -0.8220 -0.2588 -1.1228
29780SOL    HW294279   6.030   5.016  11.024  1.3335 -1.2686  0.6320
29781SOL     OW94280   9.088   1.204   2.389 -0.2382 -0.6924 -0.3585
29781SOL    HW194281   9.134   1.255   2.322 -1.1089 -0.2305 -0.6338
29781SOL    HW294282   9.080   1.117   2.351  1.3147 -1.0851  0.1401
29782SOL     OW94283   4.003   5.785   1.230  0.0905  0.1454  0.2441
29782SOL    HW194284   3.965   5.781   1.318 -1.1232  1.7683 -0.1377
29782SOL    HW294285   4.060   5.862   1.232 -0.1061  0.3199 -0.4258
29783SOL     OW94286   0.077   9.102   3.179 -0.1009  0.3829 -0.7263
29783SOL    HW194287   0.118   9.017   3.169 -1.3978 -0.6190  1.7641
29783SOL    HW294288   0.101   9.130   3.267 -2.2849  1.1170 -0.3217
29784SOL     OW94289   1.151   3.389   7.874 -0.3481 -0.3085 -0.4050
29784SOL    HW194290   1.163   3.392   7.969 -0.1475 -0.4278 -0.4255
29784SOL    HW294291   1.206   3.316   7.846 -2.0716 -1.6970 -0.3525
29785SOL     OW94292  10.870   8.118   3.131 -0.2201  0.3898  0.3465
29785SOL    HW194293  10.915   8.170   3.064 -1.6003  0.9868 -0.1529
29785SOL    HW294294  10.915   8.139   3.213  1.9685 -0.9068 -0.4540
29786SOL     OW94295   5.068  10.801   2.252  0.2022 -0.4901 -0.5628
29786SOL    HW194296   4.982  10.759   2.260 -0.0873  0.2654  0.5625
29786SOL    HW294297   5.050  10.882   2.203  0.1581 -0.0259  0.2152
29787SOL     OW94298   6.309   4.376   5.823 -0.3114  0.2589  0.4174
29787SOL    HW194299   6.213   4.382   5.819 -0.3634 -0.6718 -0.1837
29787SOL    HW294300   6.328   4.359   5.915 -0.7343  0.2865  0.5146
29788SOL     OW94301   7.660   4.722   8.748 -1.0374  0.1743 -0.0734
29788SOL    HW194302   7.620   4.773   8.676 -3.0784  0.9152  1.4689
29788SOL    HW294303   7.597   4.730   8.820  1.3352  0.2147  2.1255
29789SOL     OW94304   8.017   5.236   7.913 -0.2522  0.0483 -0.4121
29789SOL    HW194305   7.968   5.259   7.834  0.0272  0.0018 -0.6001
29789SOL    HW294306   8.096   5.193   7.881 -0.3865 -0.4481 -0.0895
29790SOL     OW94307   9.563   9.802  10.842  0.0722  0.2409  0.1381
29790SOL    HW194308   9.585   9.759  10.925 -0.2128 -0.2284 -0.0229
29790SOL    HW294309   9.506   9.874  10.868 -0.6382 -0.3592  0.3004
29791SOL     OW94310   2.249   9.918   7.347  0.1738 -0.4889 -0.0896
29791SOL    HW194311   2.331   9.869   7.337  0.9749  0.9616 -0.8789
29791SOL    HW294312   2.275   9.999   7.391 -0.5555  0.6769 -1.7352
29792SOL     OW94313   8.063   3.363  10.254 -0.0323  0.5010 -0.0767
29792SOL    HW194314   8.141   3.394  10.209  0.1071  0.3942  0.0952
29792SOL    HW294315   7.999   3.433  10.240  0.6323  1.4215  1.3196
29793SOL     OW94316   6.214   4.996   7.283  0.8487 -0.6680 -0.3627
29793SOL    HW194317   6.270   4.993   7.361 -0.8841 -0.6045  0.9578
29793SOL    HW294318   6.251   4.931   7.224  2.2249 -0.7050  0.4950
29794SOL     OW94319   2.961   8.153   7.257 -0.1146  0.2830  0.4157
29794SOL    HW194320   2.988   8.064   7.281 -0.9095 -0.1579 -0.2648
29794SOL    HW294321   2.880   8.141   7.207 -0.3979  1.4148  0.5753
29795SOL     OW94322   2.194   8.480   8.430  0.0872  0.4379  0.3654
29795SOL    HW194323   2.271   8.450   8.478 -0.0864  0.4853  0.6726
29795SOL    HW294324   2.121   8.435   8.471 -0.2214  1.5372  1.0685
29796SOL     OW94325   4.161   2.094   4.115  0.6144  0.4212 -0.4461
29796SOL    HW194326   4.231   2.150   4.150 -0.1896  1.2730 -0.1640
29796SOL    HW294327   4.102   2.154   4.070 -0.4629 -0.1415  0.1700
29797SOL     OW94328   4.038  11.396   5.451 -0.0567 -0.1922  0.1056
29797SOL    HW194329   4.048  11.344   5.371  2.0873 -0.2041  0.3234
29797SOL    HW294330   3.956  11.443   5.439 -0.2170 -0.8566 -1.7251
29798SOL     OW94331   7.118   5.174  11.467 -0.5610 -0.3976 -0.6900
29798SOL    HW194332   7.099   5.093  11.421 -1.9466 -0.5944  0.1736
29798SOL    HW294333   7.034   5.202  11.503  0.1884  0.5536  0.4196
29799SOL     OW94334   6.350   2.344   0.365  0.4644 -0.2693 -0.0893
29799SOL    HW194335   6.404   2.416   0.333 -2.5511  1.4727 -1.8396
29799SOL    HW294336   6.275   2.343   0.305 -2.2886 -1.3235  3.0587
29800SOL     OW94337  10.337   2.770   8.183 -0.0797 -0.1203 -0.4206
29800SOL    HW194338  10.345   2.865   8.174 -1.5863  0.0546 -0.1326
29800SOL    HW294339  10.349   2.754   8.276 -0.5547 -0.1211 -0.3569
29801SOL     OW94340   7.913   3.016   4.135  0.3807 -0.0606  0.2365
29801SOL    HW194341   7.952   2.976   4.213 -1.1396 -1.9249  0.1186
29801SOL    HW294342   7.918   2.947   4.069  1.4161  1.4082 -1.2932
29802SOL     OW94343   1.619  11.628  10.830 -0.4311 -0.0198 -0.2077
29802SOL    HW194344   1.530  11.660  10.816 -0.0910  0.3804 -1.6273
29802SOL    HW294345   1.668  11.704  10.860 -0.7262 -0.4357  1.4220
29803SOL     OW94346   3.508   4.584  11.336  0.4099  0.3749  0.5092
29803SOL    HW194347   3.437   4.648  11.345  1.1416  1.3754 -0.5722
29803SOL    HW294348   3.466   4.506  11.300 -0.4732  0.2629  1.7174
29804SOL     OW94349   2.174   8.710   2.987 -0.3805 -0.1138  0.2235
29804SOL    HW194350   2.126   8.673   2.913  1.7515  0.8592 -1.7851
29804SOL    HW294351   2.200   8.633   3.039  1.6246 -1.3413 -2.3525
29805SOL     OW94352   5.824   9.569   3.474  0.7105 -0.1546 -0.1746
29805SOL    HW194353   5.867   9.576   3.560  1.5425 -0.7694 -0.5324
29805SOL    HW294354   5.809   9.475   3.462  0.0358 -0.0195 -0.4408
29806SOL     OW94355   9.544   8.679   4.737 -0.4525  0.2350 -0.2162
29806SOL    HW194356   9.449   8.692   4.740 -0.4828 -0.0548  0.1524
29806SOL    HW294357   9.556   8.584   4.742 -0.1614  0.2350 -0.8155
29807SOL     OW94358   2.456   3.957   4.326 -0.6654  0.3772  0.3897
29807SOL    HW194359   2.436   3.970   4.233  0.2126  0.1801  0.1696
29807SOL    HW294360   2.449   3.862   4.338 -1.3723  0.4581  0.6708
29808SOL     OW94361   5.433   6.863   5.825  0.1278  0.2130 -0.2506
29808SOL    HW194362   5.364   6.800   5.803 -0.7225  0.8598  0.4574
29808SOL    HW294363   5.407   6.898   5.910  0.8540  1.1403 -0.3925
29809SOL     OW94364   4.340   3.018   0.820 -0.0653  0.0896 -0.3901
29809SOL    HW194365   4.360   2.938   0.771 -2.9600 -1.1402  0.2006
29809SOL    HW294366   4.351   2.994   0.912 -0.2011  0.6091 -0.2355
29810SOL     OW94367   3.799   4.876   3.851  0.0456 -0.3364  0.9618
29810SOL    HW194368   3.878   4.924   3.829 -0.6695  0.9142  1.0149
29810SOL    HW294369   3.729   4.921   3.803 -0.4798 -2.1945 -0.1232
29811SOL     OW94370  11.516   4.449   3.828  0.5756 -0.0683 -0.1715
29811SOL    HW194371  11.569   4.374   3.801  0.6807  0.0165 -0.1982
29811SOL    HW294372  11.460   4.414   3.898  2.4948  0.4621  1.7372
29812SOL     OW94373   6.911   4.350   6.913  0.5669 -0.8329 -0.1667
29812SOL    HW194374   6.955   4.298   6.845  0.0277 -0.3919 -0.8680
29812SOL    HW294375   6.817   4.342   6.892  0.4923  0.7136 -0.5149
29813SOL     OW94376   0.032   5.644   0.549  0.5528  0.2537  0.1773
29813SOL    HW194377   0.013   5.737   0.537 -1.4319 -0.0723  0.3991
29813SOL    HW294378  -0.020   5.618   0.625 -0.8197 -1.5045 -1.2422
29814SOL     OW94379   2.727   3.591   5.962 -0.0296  0.0489 -0.5068
29814SOL    HW194380   2.744   3.675   6.005  0.1184 -0.7895  1.2010
29814SOL    HW294381   2.636   3.595   5.936 -0.1562  0.5789 -0.0167
29815SOL     OW94382   2.860   4.360   1.299 -0.1919  0.5552 -0.1741
29815SOL    HW194383   2.765   4.352   1.292 -0.2130  0.8482 -0.2387
29815SOL    HW294384   2.887   4.284   1.351 -0.4817  0.5730  0.0048
29816SOL     OW94385   7.534  11.356   1.662  0.3646  0.0135  0.7270
29816SOL    HW194386   7.605  11.403   1.707 -0.7343  3.3019 -0.6854
29816SOL    HW294387   7.462  11.419   1.660 -1.8307 -2.3647  0.0047
29817SOL     OW94388   9.471   9.037   3.981 -0.3346 -0.1265  0.1967
29817SOL    HW194389   9.437   8.990   3.905  0.0033  0.1790 -0.1453
29817SOL    HW294390   9.410   9.110   3.994 -1.1856 -0.9685  1.0762
29818SOL     OW94391   8.331   1.278  10.994  0.2863 -0.3234 -0.4816
29818SOL    HW194392   8.308   1.186  11.010  1.9712 -0.6611  0.2242
29818SOL    HW294393   8.324   1.288  10.899  0.8901 -1.4225 -0.6615
29819SOL     OW94394   9.329   0.617   3.025 -0.4018 -0.6075  0.4383
29819SOL    HW194395   9.362   0.675   3.093 -2.2289  1.2675 -0.1704
29819SOL    HW294396   9.328   0.530   3.065  1.7496 -0.1484  1.6213
29820SOL     OW94397   1.300   7.142   5.144  0.2618 -0.1417  0.2099
29820SOL    HW194398   1.388   7.138   5.182 -0.0030 -1.7631  0.7613
29820SOL    HW294399   1.297   7.066   5.085 -0.4715  0.4194 -0.4877
29821SOL     OW94400   6.855   3.988  10.784 -0.3098 -0.0497 -0.0591
29821SOL    HW194401   6.812   3.969  10.701 -1.2643 -0.5670  0.5366
29821SOL    HW294402   6.795   3.955  10.851  0.4165  0.3947  0.8449
29822SOL     OW94403   6.091   5.891   5.464 -0.3039  0.3479 -0.4085
29822SOL    HW194404   6.123   5.968   5.511  1.8030 -0.1769 -0.8828
29822SOL    HW294405   6.020   5.858   5.518  0.3163  1.2655  1.0269
29823SOL     OW94406   6.959  11.676   1.425  0.2913 -0.4444 -0.1280
29823SOL    HW194407   6.863  11.670   1.429  0.2093  1.0651  1.4875
29823SOL    HW294408   6.976  11.760   1.382  0.9023 -0.6582 -0.3186
29824SOL     OW94409   3.463  10.789   6.659 -0.3739 -0.2933  0.1396
29824SOL    HW194410   3.464  10.753   6.570 -1.3178  1.4353 -0.6211
29824SOL    HW294411   3.541  10.752   6.701  1.8548  1.1626 -2.3954
29825SOL     OW94412  11.589  11.165   4.356 -0.1745  0.7948 -0.4717
29825SOL    HW194413  11.534  11.166   4.434 -0.7734  0.2168 -0.8707
29825SOL    HW294414  11.615  11.256   4.343 -0.6643  1.0021 -0.0136
29826SOL     OW94415   8.726  10.404   0.714  0.1200  0.4845 -0.4108
29826SOL    HW194416   8.820  10.422   0.705  0.0253  1.0347 -0.3110
29826SOL    HW294417   8.701  10.448   0.795 -0.2748  0.5367 -0.5590
29827SOL     OW94418   0.191   6.519   0.786  0.6712 -0.4918 -0.2550
29827SOL    HW194419   0.276   6.477   0.770  0.5093 -1.4216  1.1578
29827SOL    HW294420   0.127   6.455   0.753  0.4786 -0.4098 -0.0401
29828SOL     OW94421   8.514   2.775   1.260  0.3235  0.4448 -0.4643
29828SOL    HW194422   8.573   2.708   1.293 -1.0795 -0.6106  0.0189
29828SOL    HW294423   8.570   2.849   1.239  1.5028  0.6777  2.9030
29829SOL     OW94424   2.427   6.347   2.777 -0.0167 -0.5874  0.1108
29829SOL    HW194425   2.437   6.290   2.853 -1.4479 -0.1562  0.6480
29829SOL    HW294426   2.482   6.306   2.710  0.5746 -1.4630  1.0934
29830SOL     OW94427   0.566   1.640   4.992  0.4997 -0.2064  0.2623
29830SOL    HW194428   0.526   1.641   4.905 -0.9109 -2.4081  0.7972
29830SOL    HW294429   0.492   1.625   5.051  1.3289  1.8470  1.9460
29831SOL     OW94430   1.560   1.390   9.312  0.4406  0.0289 -0.6608
29831SOL    HW194431   1.630   1.345   9.264 -0.4988 -1.8304 -0.3917
29831SOL    HW294432   1.560   1.479   9.277  1.8079 -0.4061 -1.8711
29832SOL     OW94433   0.372   0.849   2.285 -0.3826 -0.4597  0.2642
29832SOL    HW194434   0.396   0.757   2.295  1.7301 -0.1285 -1.0835
29832SOL    HW294435   0.373   0.864   2.190 -0.1217  1.0634  0.4779
29833SOL     OW94436   2.475   4.427   5.568 -0.2624 -0.7646 -0.6221
29833SOL    HW194437   2.559   4.468   5.588 -1.2192  0.7394  0.5295
29833SOL    HW294438   2.462   4.444   5.475  0.7777 -1.1905 -0.8639
29834SOL     OW94439   7.546   8.036   2.017  0.4934 -0.1186 -0.3740
29834SOL    HW194440   7.470   8.094   2.017  1.1668  0.7884  0.3003
29834SOL    HW294441   7.537   7.985   1.936 -1.4573 -0.8830  0.2669
29835SOL     OW94442   4.659   3.256   7.929  0.1026  0.5018 -0.0318
29835SOL    HW194443   4.701   3.251   8.015 -0.7431  0.2508  0.3737
29835SOL    HW294444   4.717   3.207   7.872 -0.1000 -0.6596  0.7195
29836SOL     OW94445   1.212   4.394   6.190  0.3815  0.2004 -0.4704
29836SOL    HW194446   1.278   4.460   6.171  0.0741  0.5808 -0.2338
29836SOL    HW294447   1.239   4.357   6.274  0.2533  0.4101 -0.3359
29837SOL     OW94448   7.750  10.542   5.345  0.4611  0.0209 -0.1151
29837SOL    HW194449   7.837  10.535   5.383  0.9109  0.0514 -1.0983
29837SOL    HW294450   7.714  10.453   5.351  0.6311 -0.0312  0.1408
29838SOL     OW94451   6.305   5.103   0.433  0.2333 -0.2308 -0.1429
29838SOL    HW194452   6.217   5.090   0.398 -0.4536  2.3206  0.3975
29838SOL    HW294453   6.297   5.081   0.526 -0.3747  1.6546  0.3054
29839SOL     OW94454   5.583  11.211   6.077  0.5672  0.5034  0.0847
29839SOL    HW194455   5.517  11.197   6.145  0.9369  1.0996  0.5777
29839SOL    HW294456   5.533  11.220   5.996  0.1964 -1.8925 -0.0276
29840SOL     OW94457  10.980   6.138   6.314  0.7606 -0.2178  0.6499
29840SOL    HW194458  10.932   6.175   6.388  1.0060 -1.4301  1.4264
29840SOL    HW294459  11.072   6.161   6.331  0.7294  0.1958  0.2931
29841SOL     OW94460  11.121   0.467   2.047 -0.7178  0.1512  0.8628
29841SOL    HW194461  11.203   0.424   2.072 -1.5935 -0.6106  2.5955
29841SOL    HW294462  11.060   0.396   2.031 -1.4084  0.7334  0.8485
29842SOL     OW94463   6.283  11.110   1.830 -0.3615  0.9189 -0.4728
29842SOL    HW194464   6.347  11.058   1.878  0.4491  0.5716 -1.8958
29842SOL    HW294465   6.323  11.197   1.822  0.8146  0.2454 -2.8969
29843SOL     OW94466   4.757   1.534  10.539 -0.5089  0.2405  0.0386
29843SOL    HW194467   4.797   1.448  10.549 -3.0812 -1.2800 -1.5183
29843SOL    HW294468   4.765   1.554  10.445  1.0727  2.3247  0.5329
29844SOL     OW94469  11.055   2.305   0.288 -0.0964 -0.3494 -0.0677
29844SOL    HW194470  10.967   2.304   0.250 -0.4363  2.1327  0.5105
29844SOL    HW294471  11.111   2.341   0.220  0.7771 -2.9185 -0.8361
29845SOL     OW94472   0.133   7.354   4.418  0.2656  0.2328  0.2393
29845SOL    HW194473   0.114   7.269   4.456  0.9540  0.2538  0.6480
29845SOL    HW294474   0.164   7.335   4.330 -0.3016  0.1118  0.0648
29846SOL     OW94475   5.950   2.457   6.728  0.0572 -0.6214  0.2222
29846SOL    HW194476   5.924   2.549   6.729 -0.3646 -0.7451  0.9853
29846SOL    HW294477   5.870   2.409   6.706 -0.1630 -0.9276  1.5981
29847SOL     OW94478   1.837   2.418   8.411 -0.4941  0.1381 -0.2449
29847SOL    HW194479   1.804   2.470   8.484 -0.5347 -2.3120  1.5908
29847SOL    HW294480   1.928   2.446   8.402  0.1798 -0.9778  2.2410
29848SOL     OW94481   5.791   0.043   1.587  0.1772  0.6910  0.0705
29848SOL    HW194482   5.828   0.064   1.672  0.2441  0.3236  0.1340
29848SOL    HW294483   5.867   0.032   1.529  0.1197  3.0228 -0.5684
29849SOL     OW94484   5.497   4.383   8.959  0.6382 -0.2273 -0.3877
29849SOL    HW194485   5.527   4.355   8.872  1.9862  0.4584 -0.1708
29849SOL    HW294486   5.573   4.370   9.015 -0.1381 -0.3955  0.6415
29850SOL     OW94487   2.366   9.320   9.732  0.0283 -0.5424  0.0359
29850SOL    HW194488   2.367   9.389   9.665 -2.3126 -0.4291  0.0278
29850SOL    HW294489   2.326   9.245   9.688  1.2984 -1.5102  0.4588
29851SOL     OW94490   7.080   9.343   9.526 -0.2317  0.3372  0.0661
29851SOL    HW194491   7.051   9.404   9.459 -1.5712  2.4811  2.4315
29851SOL    HW294492   7.124   9.398   9.591  0.2490 -1.5110  1.3871
29852SOL     OW94493   5.293   1.398   9.660  0.1905  0.6097 -0.4974
29852SOL    HW194494   5.350   1.474   9.656  0.5288  0.4726  1.0206
29852SOL    HW294495   5.353   1.324   9.671 -0.2007  0.2720 -0.6224
29853SOL     OW94496   1.979   5.468   9.601 -0.3872 -0.1550  0.1911
29853SOL    HW194497   2.061   5.445   9.558 -0.2426  0.9888 -0.1939
29853SOL    HW294498   1.980   5.564   9.605 -1.7624 -0.1107  0.0586
29854SOL     OW94499   9.311   3.290   5.270 -0.2216 -0.9383 -0.3792
29854SOL    HW194500   9.397   3.307   5.232  0.2300 -0.5698  0.7456
29854SOL    HW294501   9.278   3.376   5.294 -1.6425 -0.9180 -2.2573
29855SOL     OW94502   9.833   9.424   6.927  0.4956  0.1156 -0.1394
29855SOL    HW194503   9.862   9.364   6.858 -0.4416 -0.3948 -0.0969
29855SOL    HW294504   9.739   9.435   6.912  0.4688  0.7793  0.4661
29856SOL     OW94505   8.659   4.661   3.533 -0.1061  0.3714  0.0233
29856SOL    HW194506   8.585   4.630   3.481 -1.2257  1.5298  0.8799
29856SOL    HW294507   8.672   4.594   3.600 -0.9355  0.5680  0.3848
29857SOL     OW94508   6.489   6.673   9.444  0.5550  0.5530  0.4379
29857SOL    HW194509   6.439   6.694   9.523 -0.6315  4.4129 -1.0972
29857SOL    HW294510   6.423   6.639   9.383  0.9439  0.1462  0.2445
29858SOL     OW94511   2.470   2.123   2.083  0.4975 -0.6739 -0.0194
29858SOL    HW194512   2.423   2.042   2.066  1.0833 -0.9907 -0.1796
29858SOL    HW294513   2.554   2.095   2.120  0.9820 -0.1876 -0.6982
29859SOL     OW94514   1.370   6.433   4.091 -0.6960 -0.0193  0.3455
29859SOL    HW194515   1.444   6.376   4.109  0.4000  1.6264  1.3673
29859SOL    HW294516   1.377   6.453   3.998  1.5086  1.8271  0.8271
29860SOL     OW94517   4.830   9.609   2.739  0.0380 -0.0523 -0.2117
29860SOL    HW194518   4.795   9.695   2.716 -0.9196 -0.4447 -0.2546
29860SOL    HW294519   4.754   9.560   2.770  0.8438 -0.3521  1.3858
29861SOL     OW94520   4.174   0.156   6.369 -0.8202  0.4509  0.2779
29861SOL    HW194521   4.182   0.249   6.390 -0.1387  0.1938  1.2115
29861SOL    HW294522   4.217   0.111   6.441 -0.9933 -0.5917 -0.2467
29862SOL     OW94523   0.186   6.133   2.212  0.8151  0.1871 -0.2019
29862SOL    HW194524   0.246   6.104   2.281  1.8506 -0.5880 -1.3925
29862SOL    HW294525   0.099   6.130   2.253  1.4390  0.1011  1.1682
29863SOL     OW94526   5.235   4.908   8.495 -0.1622  0.0492  0.0742
29863SOL    HW194527   5.165   4.935   8.555  1.9115 -1.1057  3.2647
29863SOL    HW294528   5.235   4.813   8.501  0.2350 -0.0897 -1.7301
29864SOL     OW94529   0.133   3.010   0.281 -0.0665 -0.1834  0.2749
29864SOL    HW194530   0.132   2.926   0.327  1.2281  0.1059  0.8863
29864SOL    HW294531   0.196   2.997   0.210  0.1436  0.2782  0.3766
29865SOL     OW94532  11.261   4.719   1.330  0.0485  0.2741  0.1752
29865SOL    HW194533  11.318   4.697   1.257  0.2690 -2.1556  1.0063
29865SOL    HW294534  11.173   4.699   1.298 -0.0861  1.3181 -0.1419
29866SOL     OW94535   1.120   9.263   5.037  0.0843  0.7389  0.6692
29866SOL    HW194536   1.127   9.169   5.020  1.4585  0.6390  1.6028
29866SOL    HW294537   1.145   9.305   4.955  2.4233  0.2675  1.0706
29867SOL     OW94538   8.897  10.027   7.421  0.2900 -0.7824  0.1958
29867SOL    HW194539   8.818  10.004   7.372 -0.0460  0.0065  0.3508
29867SOL    HW294540   8.901   9.963   7.492 -0.9240 -0.0578  0.9390
29868SOL     OW94541   1.206   8.789   8.680 -0.4537  0.6015  0.2531
29868SOL    HW194542   1.266   8.736   8.734 -0.6390  0.0293 -0.0888
29868SOL    HW294543   1.251   8.872   8.668  1.4508 -0.6198 -2.0319
29869SOL     OW94544   3.358   7.926   3.505  0.5671  0.2780  0.7162
29869SOL    HW194545   3.353   7.927   3.601  0.7929  1.0762  0.7267
29869SOL    HW294546   3.406   8.006   3.483 -1.9434  1.6248 -0.2082
29870SOL     OW94547   9.266   0.673   2.112 -0.2089  0.4242 -0.0923
29870SOL    HW194548   9.305   0.612   2.174  0.8060  0.5727 -0.5641
29870SOL    HW294549   9.279   0.632   2.027 -0.2141  0.9323 -0.3407
29871SOL     OW94550   2.197  10.813   4.587  0.2727 -0.2401  0.2569
29871SOL    HW194551   2.110  10.831   4.623  0.5493 -2.4759  2.2943
29871SOL    HW294552   2.243  10.898   4.592 -1.0274  0.4310  1.4566
29872SOL     OW94553   1.121   3.750   3.784 -0.2429 -0.0557 -0.2710
29872SOL    HW194554   1.142   3.833   3.826 -2.0832  0.1616  0.3439
29872SOL    HW294555   1.066   3.774   3.709  1.1599 -0.5932 -1.5200
29873SOL     OW94556   1.117   4.169   9.393  0.0374 -0.4185 -0.3149
29873SOL    HW194557   1.128   4.235   9.461 -0.8166  0.5224 -1.0494
29873SOL    HW294558   1.137   4.214   9.312 -0.9581 -0.9345 -0.8723
29874SOL     OW94559  10.625   4.649   9.105  0.2933  0.4192 -0.4406
29874SOL    HW194560  10.582   4.667   9.189 -1.8277  0.1239 -1.4085
29874SOL    HW294561  10.572   4.580   9.065  1.9091 -0.2259 -1.5759
29875SOL     OW94562   0.570  10.700   5.670  0.2241 -0.1076 -0.0069
29875SOL    HW194563   0.477  10.713   5.691 -0.3204 -0.4065 -1.9482
29875SOL    HW294564   0.577  10.607   5.650  1.0753 -0.1858  0.6276
29876SOL     OW94565   6.497  11.491   6.973 -0.3785 -0.5260  1.0150
29876SOL    HW194566   6.454  11.497   6.888 -0.6963 -2.5168  0.9836
29876SOL    HW294567   6.501  11.582   7.004  0.3412  0.3500 -1.3804
29877SOL     OW94568   7.018  11.096   1.622  0.2969  0.3558  0.6921
29877SOL    HW194569   6.978  11.054   1.546  0.7047  0.0838  0.6254
29877SOL    HW294570   7.106  11.120   1.593  0.5006  0.1316  1.1153
29878SOL     OW94571   7.929   7.129   9.006 -0.0327  0.1601  0.1936
29878SOL    HW194572   8.017   7.123   8.970 -0.6380  1.4933 -1.6893
29878SOL    HW294573   7.920   7.221   9.031 -1.0829  0.1696 -0.1863
29879SOL     OW94574  10.233   7.730   9.718 -0.2006 -0.0759  0.2086
29879SOL    HW194575  10.180   7.651   9.709 -0.1470 -0.3883  2.1484
29879SOL    HW294576  10.313   7.700   9.762  0.0934  0.9508  0.4059
29880SOL     OW94577  11.680   8.012   0.761  1.1441 -0.2799  0.3717
29880SOL    HW194578  11.591   8.008   0.727  1.4833  0.4154 -0.6521
29880SOL    HW294579  11.696   7.924   0.797 -0.4015 -0.0236  1.8051
29881SOL     OW94580   8.422   5.369   9.871 -0.1434 -0.0805 -0.3668
29881SOL    HW194581   8.372   5.287   9.875  0.7017 -0.5877 -0.0797
29881SOL    HW294582   8.357   5.434   9.844 -0.9833 -0.7078  0.0655
29882SOL     OW94583  10.997  11.581  10.692  0.0837  0.7905 -0.7473
29882SOL    HW194584  11.048  11.588  10.611 -1.6616  0.7788 -1.9185
29882SOL    HW294585  10.961  11.492  10.690  0.1460  0.7376  0.1362
29883SOL     OW94586   7.519   1.742   7.150 -0.4962 -0.0458 -0.1112
29883SOL    HW194587   7.438   1.780   7.115  0.8036  2.0018 -1.0650
29883SOL    HW294588   7.586   1.764   7.085  0.8778 -1.5248  0.7464
29884SOL     OW94589   8.535   7.842   1.365  0.0609  0.4070 -0.0121
29884SOL    HW194590   8.450   7.868   1.400  0.9440  1.6971  1.3108
29884SOL    HW294591   8.589   7.921   1.374  1.8480 -0.8340  0.6955
29885SOL     OW94592   8.557   6.293  11.291  0.9929  0.0095 -0.2499
29885SOL    HW194593   8.514   6.270  11.209 -1.1494 -1.2603  1.1295
29885SOL    HW294594   8.609   6.216  11.313  0.2984 -0.3035  0.3370
29886SOL     OW94595   1.562   7.147   9.670  0.1185  0.5972 -0.0621
29886SOL    HW194596   1.514   7.162   9.752 -0.0750 -2.1572  0.4290
29886SOL    HW294597   1.505   7.091   9.618  1.8475 -1.0790 -0.3163
29887SOL     OW94598   6.899   8.197   3.017 -0.3674  0.2671 -0.0801
29887SOL    HW194599   6.806   8.195   2.996 -0.3178  0.8882 -0.4030
29887SOL    HW294600   6.938   8.132   2.960 -0.5843  0.1241 -0.0649
29888SOL     OW94601   1.117   3.479   4.480  0.2707  0.0298 -0.4169
29888SOL    HW194602   1.109   3.574   4.484  0.7428  0.0209  2.4199
29888SOL    HW294603   1.211   3.462   4.487  0.0468 -0.6287  2.0994
29889SOL     OW94604   1.878   1.419  10.900 -0.0788  0.1631 -0.0599
29889SOL    HW194605   1.909   1.431  10.990  0.3116 -0.0904 -0.1566
29889SOL    HW294606   1.790   1.385  10.909 -0.5192  1.3141  0.2276
29890SOL     OW94607   2.975   0.141   3.673 -0.2142 -0.2408 -0.2284
29890SOL    HW194608   2.933   0.197   3.739  0.2842  0.2960 -0.3583
29890SOL    HW294609   2.909   0.074   3.653 -0.8074  0.2719 -0.0388
29891SOL     OW94610   0.254   4.406   3.380 -0.5861  0.3482 -0.2084
29891SOL    HW194611   0.232   4.334   3.439  0.3613  0.2249  0.0216
29891SOL    HW294612   0.350   4.408   3.380 -0.4916 -0.5234 -2.7705
29892SOL     OW94613   6.926   1.620   8.792 -0.1720  0.2141  0.4442
29892SOL    HW194614   6.860   1.683   8.764  1.4384  1.2551 -1.2908
29892SOL    HW294615   6.919   1.548   8.730 -0.6035 -0.3384  1.1265
29893SOL     OW94616   7.939   5.916   8.337 -0.5616  0.1819 -0.2717
29893SOL    HW194617   7.940   5.825   8.307 -1.2464 -0.4021  1.3879
29893SOL    HW294618   8.019   5.954   8.301  0.4617 -1.4731  0.1484
29894SOL     OW94619   7.654   7.890  10.552  0.4571 -0.1252 -0.9074
29894SOL    HW194620   7.600   7.969  10.559  1.3116  0.4719 -0.8209
29894SOL    HW294621   7.604   7.831  10.496 -0.9497 -0.1828  0.3599
29895SOL     OW94622   4.561   9.050   1.635 -0.0498  0.7472 -0.0845
29895SOL    HW194623   4.535   9.050   1.543  2.1526  2.4929 -0.8253
29895SOL    HW294624   4.493   9.100   1.679 -0.3238  1.2871 -1.0849
29896SOL     OW94625   6.578   0.353   0.511 -0.0958 -0.0283  0.5535
29896SOL    HW194626   6.502   0.302   0.538 -0.6633  0.3197 -0.3688
29896SOL    HW294627   6.542   0.433   0.473  0.7307  0.2183  0.2631
29897SOL     OW94628   7.326   1.272   0.161 -0.5801  0.1606 -0.1262
29897SOL    HW194629   7.391   1.233   0.219 -0.0066  0.0451 -0.8389
29897SOL    HW294630   7.327   1.365   0.183  0.8307  0.3920 -1.0816
29898SOL     OW94631   3.753  11.354   2.974 -0.0171  0.4386 -0.1296
29898SOL    HW194632   3.666  11.360   3.014 -0.4136  2.8895 -1.1781
29898SOL    HW294633   3.745  11.283   2.909 -0.5643 -0.7606  1.2019
29899SOL     OW94634   8.000   0.519   3.775  0.2517 -0.6146 -1.1866
29899SOL    HW194635   8.083   0.489   3.738  0.4874 -0.3206 -0.9060
29899SOL    HW294636   7.999   0.482   3.863  0.3002 -0.2387 -1.0265
29900SOL     OW94637   9.785   8.238   2.046  0.1153  0.2220  0.5507
29900SOL    HW194638   9.852   8.303   2.066  0.1869 -0.1174  1.4842
29900SOL    HW294639   9.794   8.172   2.115 -0.0790 -0.6877 -0.2621
29901SOL     OW94640   7.631   9.872   3.695 -0.8480  0.0225  0.1779
29901SOL    HW194641   7.612   9.795   3.641 -0.3035 -0.9020  1.2496
29901SOL    HW294642   7.715   9.905   3.661 -1.3649  0.5037 -0.6564
29902SOL     OW94643   6.570   4.606   7.681  0.0879  0.5057 -0.2134
29902SOL    HW194644   6.517   4.527   7.679  1.5554 -0.5322  0.2661
29902SOL    HW294645   6.609   4.607   7.769  1.2284  0.9504 -0.7004
29903SOL     OW94646   0.098   7.321   4.952  0.3415 -0.4036  0.8562
29903SOL    HW194647   0.092   7.413   4.926 -1.3420  0.1091  2.8112
29903SOL    HW294648   0.087   7.321   5.047  1.4936 -2.5532  1.0572
29904SOL     OW94649   9.739   5.629   3.350  0.6027  0.2255  0.2452
29904SOL    HW194650   9.831   5.624   3.376  0.0852 -0.5702  1.9983
29904SOL    HW294651   9.731   5.565   3.279  0.7117 -2.2072  2.3129
29905SOL     OW94652   5.368   1.816   6.638  0.0690 -0.4819 -0.3820
29905SOL    HW194653   5.330   1.893   6.681  0.0658  0.0738 -1.3667
29905SOL    HW294654   5.460   1.817   6.665 -0.0161 -0.3643 -0.0826
29906SOL     OW94655  10.056   7.190   0.203 -0.7436 -0.0609 -0.4017
29906SOL    HW194656  10.057   7.176   0.298  0.3415  2.7149  0.0844
29906SOL    HW294657  10.148   7.200   0.179 -1.0973  1.2467 -1.3587
29907SOL     OW94658   0.280   0.696   9.008 -0.1022 -0.0937  0.3240
29907SOL    HW194659   0.271   0.787   8.979  1.3739  0.5183  1.6064
29907SOL    HW294660   0.224   0.690   9.086 -0.8174 -0.5240 -0.2176
29908SOL     OW94661   8.922  10.163   5.326  0.5289 -0.2497 -0.3690
29908SOL    HW194662   8.842  10.197   5.365  1.0750 -0.4167  0.9437
29908SOL    HW294663   8.893  10.089   5.273 -0.1771 -0.4262  0.2439
29909SOL     OW94664   8.008   5.649   3.641  0.0919 -0.1737 -0.3988
29909SOL    HW194665   7.960   5.690   3.713  1.9785  0.4285  0.5802
29909SOL    HW294666   7.987   5.556   3.648 -0.6874  0.0365  0.1843
29910SOL     OW94667   7.368  11.586   5.053  0.2223 -0.0911  0.6870
29910SOL    HW194668   7.385  11.492   5.063 -1.4423 -0.4160  0.6944
29910SOL    HW294669   7.400  11.624   5.136  0.8279 -0.6439  0.7206
29911SOL     OW94670   1.912  11.295   1.770  0.6120  0.0002 -0.6894
29911SOL    HW194671   1.863  11.226   1.725  1.5101 -1.1319  0.0243
29911SOL    HW294672   1.883  11.288   1.861 -0.1562  1.3548 -0.8062
29912SOL     OW94673  10.825   3.486   2.167  0.0669  0.8783 -0.0040
29912SOL    HW194674  10.889   3.539   2.120 -0.3055 -0.7800 -2.5833
29912SOL    HW294675  10.851   3.396   2.149 -2.1595  0.1708  0.0731
29913SOL     OW94676   0.179   0.100   8.033 -0.4437  0.3074  0.1458
29913SOL    HW194677   0.198   0.135   8.120  1.4600 -0.5743  0.1464
29913SOL    HW294678   0.089   0.069   8.038 -0.0897 -0.5475  2.0968
29914SOL     OW94679   9.211   5.404   5.372 -0.1915 -0.3016 -0.7760
29914SOL    HW194680   9.188   5.461   5.299 -0.1088  2.6953  1.3639
29914SOL    HW294681   9.306   5.398   5.369 -0.1867 -0.1458 -0.9282
29915SOL     OW94682   8.033   0.779  11.563 -0.0651 -0.5540 -0.4802
29915SOL    HW194683   8.050   0.761  11.655  0.1427  0.6019 -0.2805
29915SOL    HW294684   8.065   0.701  11.517  0.5666 -0.7970  0.3564
29916SOL     OW94685   2.841   7.983   8.373  0.3355 -0.2511  0.0864
29916SOL    HW194686   2.797   8.039   8.309 -0.1698 -0.3803  0.3185
29916SOL    HW294687   2.850   8.039   8.451 -0.9712 -0.7662  0.6223
29917SOL     OW94688   5.875   8.625   2.514  0.0410 -0.0598  0.8107
29917SOL    HW194689   5.861   8.538   2.553 -1.9496 -0.1772 -0.0296
29917SOL    HW294690   5.877   8.684   2.589 -0.2253 -0.6573  1.3039
29918SOL     OW94691   0.365   1.939   5.154 -0.7651 -0.6804  0.0406
29918SOL    HW194692   0.367   1.979   5.068 -0.4480 -0.7802 -0.0019
29918SOL    HW294693   0.327   2.005   5.211 -1.1794 -0.6967 -0.2151
29919SOL     OW94694   2.026   2.535   9.701  0.0596  0.1022  0.1674
29919SOL    HW194695   2.107   2.491   9.674  0.3781  0.0472  1.1663
29919SOL    HW294696   2.054   2.622   9.728 -0.6303  1.1565 -2.2225
29920SOL     OW94697   3.426   9.644   0.324 -0.1077  0.0526 -0.1483
29920SOL    HW194698   3.407   9.736   0.309 -0.3787 -0.1371 -1.0589
29920SOL    HW294699   3.520   9.636   0.308 -0.1342  0.1252 -0.3468
29921SOL     OW94700  10.478   2.822   7.400 -0.4236 -0.1776 -0.1508
29921SOL    HW194701  10.546   2.873   7.444 -3.1230  3.6608  0.1841
29921SOL    HW294702  10.518   2.792   7.319  2.6303 -1.3591  1.6460
29922SOL     OW94703   0.635   1.671   0.483 -0.1761 -0.1623  0.6916
29922SOL    HW194704   0.619   1.649   0.574 -1.3639 -0.9290  0.3181
29922SOL    HW294705   0.548   1.688   0.446  0.4018  1.9980  0.1431
29923SOL     OW94706  10.813   4.119   2.630  0.2554  0.0673  0.1675
29923SOL    HW194707  10.825   4.169   2.711  1.2862  1.8090 -0.9927
29923SOL    HW294708  10.718   4.122   2.614  0.2134  1.0140  0.5322
29924SOL     OW94709   8.369  10.367   0.044 -1.1234  0.4435  0.3897
29924SOL    HW194710   8.312  10.290   0.038 -0.1906 -0.1983 -0.5738
29924SOL    HW294711   8.430  10.346   0.115 -0.4204 -0.0398 -0.3363
29925SOL     OW94712   3.683  10.614  10.372  0.7557  0.1527 -0.3610
29925SOL    HW194713   3.659  10.642  10.284 -1.8840  2.3382  0.9404
29925SOL    HW294714   3.690  10.695  10.422 -1.2765 -1.1303  2.2105
29926SOL     OW94715   8.221   0.297  10.685  0.3877 -0.4850  0.0045
29926SOL    HW194716   8.135   0.265  10.658 -0.8722  1.8073  1.0058
29926SOL    HW294717   8.231   0.381  10.640  0.2710  1.1889  2.8649
29927SOL     OW94718   2.260   6.828   4.546  0.7392 -0.0843  0.1135
29927SOL    HW194719   2.283   6.754   4.491 -0.2568  0.3973 -0.9957
29927SOL    HW294720   2.165   6.836   4.538  0.8582  1.5338 -0.1128
29928SOL     OW94721   3.150   8.001   9.660  0.2993  0.0519  0.2023
29928SOL    HW194722   3.158   7.961   9.747  0.0604  0.1342  0.2625
29928SOL    HW294723   3.199   8.084   9.667  0.1938  0.1067  0.2888
29929SOL     OW94724   7.088   9.880   8.361 -0.3648 -0.2548 -0.4184
29929SOL    HW194725   7.058   9.963   8.324 -0.7289  0.0219  0.4561
29929SOL    HW294726   7.168   9.859   8.313  0.3187  1.1464  0.0346
29930SOL     OW94727   3.938   1.662   3.137 -0.1422 -1.2061 -0.0716
29930SOL    HW194728   3.911   1.593   3.077  0.4925 -2.3361  0.8985
29930SOL    HW294729   3.906   1.633   3.223  1.0405 -0.8240  0.5193
29931SOL     OW94730   5.396   6.047   7.982 -0.7425 -0.3430 -0.0305
29931SOL    HW194731   5.325   6.049   7.918  0.0697  0.1663 -0.9398
29931SOL    HW294732   5.393   6.133   8.025 -0.6944 -0.3311 -0.0503
29932SOL     OW94733   0.929   6.596   6.772  0.1919  0.1156  0.4278
29932SOL    HW194734   1.007   6.650   6.771 -0.7571  1.6480  2.1457
29932SOL    HW294735   0.914   6.572   6.681  2.5568 -0.1236  0.0636
29933SOL     OW94736   5.423   1.889   5.323  0.6402  0.9157 -0.4288
29933SOL    HW194737   5.409   1.951   5.395  1.8229  0.6354  0.0779
29933SOL    HW294738   5.354   1.824   5.333  1.5570  0.1476  1.2948
29934SOL     OW94739   4.227  11.156  10.107  0.0483  0.2332 -0.1232
29934SOL    HW194740   4.286  11.136  10.180  0.3695 -0.2341 -0.5042
29934SOL    HW294741   4.227  11.251  10.102  0.8418  0.2344 -0.1765
29935SOL     OW94742   6.701   1.824   4.632  0.1215  0.2942  0.1350
29935SOL    HW194743   6.651   1.879   4.691  0.0876 -0.9761  1.3434
29935SOL    HW294744   6.640   1.801   4.562 -0.6915 -0.4145  1.0593
29936SOL     OW94745   0.731   6.855   7.887 -0.3025 -0.0775  0.4596
29936SOL    HW194746   0.719   6.775   7.835 -0.0876  0.4727 -0.4697
29936SOL    HW294747   0.717   6.827   7.978  1.2950 -1.5124  0.3208
29937SOL     OW94748   7.678   0.627   9.859  0.0575  0.0777 -0.1518
29937SOL    HW194749   7.703   0.714   9.831 -0.0919  0.3567  0.5404
29937SOL    HW294750   7.751   0.571   9.834 -1.1051 -0.2000 -3.4112
29938SOL     OW94751  10.175   7.068   8.502 -0.2059  0.1340 -0.1446
29938SOL    HW194752  10.115   7.047   8.430 -0.9651 -0.8083  0.7355
29938SOL    HW294753  10.177   7.164   8.505 -3.2576  0.2565  1.0668
29939SOL     OW94754   2.665   1.790  10.857 -0.3650  0.5945  0.3117
29939SOL    HW194755   2.644   1.847  10.931  3.1990  1.5243  0.7633
29939SOL    HW294756   2.667   1.849  10.782 -1.4734  0.0962 -0.1364
29940SOL     OW94757   3.686   7.687   0.605 -0.6238  0.0626  0.8474
29940SOL    HW194758   3.755   7.639   0.559 -1.4493 -0.3352  0.0088
29940SOL    HW294759   3.610   7.629   0.601 -0.5603 -0.2848  3.3074
29941SOL     OW94760   3.953   5.161   1.780  0.0950  0.9743  0.1922
29941SOL    HW194761   3.937   5.101   1.852  0.9605 -1.0195 -1.2028
29941SOL    HW294762   4.040   5.197   1.797 -0.2223  1.4881  0.7689
29942SOL     OW94763   0.498   3.976   4.476 -0.0188 -0.2519 -0.3955
29942SOL    HW194764   0.406   4.001   4.465 -0.0020  0.0285  0.0730
29942SOL    HW294765   0.519   3.927   4.397 -0.2044  0.7847 -1.1143
29943SOL     OW94766   9.986   1.107   2.570 -0.1951 -0.1785 -0.1240
29943SOL    HW194767  10.066   1.133   2.616 -0.6490  0.7205  0.1720
29943SOL    HW294768   9.957   1.028   2.616  1.1310 -1.1744 -0.9513
29944SOL     OW94769   1.253   3.541   9.876  0.4721 -0.0877  0.3570
29944SOL    HW194770   1.306   3.465   9.901  1.8077  0.7846  0.3121
29944SOL    HW294771   1.172   3.504   9.841  1.1158 -1.4862  0.2816
29945SOL     OW94772   1.782  10.726   8.874  0.4556  0.0666 -0.9536
29945SOL    HW194773   1.743  10.809   8.904  0.3842 -0.1036 -0.5681
29945SOL    HW294774   1.864  10.752   8.833  0.4928  0.3188 -0.7244
29946SOL     OW94775  10.360  10.038   1.148 -0.3906 -0.1523 -0.7683
29946SOL    HW194776  10.394   9.975   1.084 -0.1474  0.2518 -1.0439
29946SOL    HW294777  10.428  10.105   1.153 -0.6062  0.0394 -0.4049
29947SOL     OW94778   1.788   2.467   9.551 -0.5306  0.3365  0.3352
29947SOL    HW194779   1.850   2.469   9.624 -1.3492 -1.2680  1.1335
29947SOL    HW294780   1.839   2.434   9.477 -0.1047  0.3243  0.6298
29948SOL     OW94781   8.242  11.689   8.258 -0.1674  0.2994 -0.7250
29948SOL    HW194782   8.196  11.708   8.340  0.3861 -0.6768 -0.1594
29948SOL    HW294783   8.173  11.667   8.196 -0.6011  1.1163 -0.5519
29949SOL     OW94784   7.071   0.409   2.572 -0.0811  0.6266  0.1819
29949SOL    HW194785   7.001   0.413   2.637 -0.4918  1.2677 -0.2794
29949SOL    HW294786   7.051   0.480   2.512  0.7671  0.5778 -0.1698
29950SOL     OW94787   4.053   3.069   9.478 -0.0399 -0.4247 -0.3366
29950SOL    HW194788   4.137   3.113   9.494  0.0425 -0.4162 -0.7658
29950SOL    HW294789   3.993   3.107   9.542 -0.3677  1.4326 -1.6636
29951SOL     OW94790   9.916   4.729   6.246  0.5856  0.1734 -0.0188
29951SOL    HW194791   9.848   4.666   6.221  0.8182 -0.3413  0.6045
29951SOL    HW294792   9.989   4.675   6.275  1.5398  0.7058 -1.3276
29952SOL     OW94793   3.427   4.681   1.802  0.6158  0.0928  0.6409
29952SOL    HW194794   3.482   4.631   1.742 -0.3048  0.7727 -0.8409
29952SOL    HW294795   3.420   4.626   1.880 -0.4782 -2.2123 -0.9680
29953SOL     OW94796   4.711   5.952   9.123 -0.1989 -0.1125  0.1981
29953SOL    HW194797   4.712   6.034   9.073  0.4807  0.0758  0.5041
29953SOL    HW294798   4.798   5.914   9.107 -0.2691 -0.4398  0.5954
29954SOL     OW94799   3.890   7.340   7.692 -0.0767  0.1409 -0.2272
29954SOL    HW194800   3.907   7.336   7.598  0.6980  1.8456 -0.1827
29954SOL    HW294801   3.913   7.252   7.724 -0.4886 -0.4986 -1.6295
29955SOL     OW94802   8.656   0.325   6.900 -0.4653 -0.3375  0.1018
29955SOL    HW194803   8.714   0.283   6.963 -1.0366 -0.7766  0.3485
29955SOL    HW294804   8.610   0.393   6.951  0.1346  0.3024 -0.1926
29956SOL     OW94805   3.541   3.506   5.119  0.0478  0.4866  0.0610
29956SOL    HW194806   3.546   3.452   5.040  0.0239  0.9082 -0.2349
29956SOL    HW294807   3.537   3.444   5.191 -0.4927  0.0911 -0.3060
29957SOL     OW94808   3.740  10.483   8.092  0.0572 -0.1002 -0.8385
29957SOL    HW194809   3.742  10.473   8.188  0.0972  0.6872 -0.7501
29957SOL    HW294810   3.696  10.403   8.061 -0.7650  0.0401 -0.0978
29958SOL     OW94811   1.750  10.668   6.475 -0.2379  0.2273 -0.5650
29958SOL    HW194812   1.770  10.580   6.507  1.4841  0.4525 -0.8691
29958SOL    HW294813   1.809  10.725   6.525  1.5543  0.7218 -3.0323
29959SOL     OW94814  10.361   5.202   2.850 -0.0131 -0.5905  0.6219
29959SOL    HW194815  10.433   5.183   2.909 -0.1494  0.6949  1.2467
29959SOL    HW294816  10.402   5.211   2.763  0.5934  0.1376  0.9713
29960SOL     OW94817   4.227   5.009   0.250  0.5468 -0.0701  0.7815
29960SOL    HW194818   4.189   5.090   0.217  1.0876 -0.1246  0.0012
29960SOL    HW294819   4.320   5.029   0.262  0.9589 -0.9394 -0.7048
29961SOL     OW94820   4.266  11.105   4.728  0.5122 -0.1257 -0.1733
29961SOL    HW194821   4.229  11.017   4.725 -0.2655 -0.0121  2.7231
29961SOL    HW294822   4.189  11.162   4.737  1.1257  0.5510  0.9791
29962SOL     OW94823   3.188   1.093  11.358  0.3142  0.0429 -0.3006
29962SOL    HW194824   3.195   1.174  11.409  0.2329  0.6602 -1.2454
29962SOL    HW294825   3.157   1.028  11.421 -1.3756  1.1474  0.0892
29963SOL     OW94826   7.469   9.646  10.761  0.1955 -0.1000  0.7393
29963SOL    HW194827   7.408   9.663  10.832 -1.6974 -2.0944 -0.2926
29963SOL    HW294828   7.442   9.704  10.690 -0.6057 -1.0348  0.2563
29964SOL     OW94829   0.544   8.878   5.867  0.1728  0.3870 -0.1580
29964SOL    HW194830   0.466   8.869   5.922 -1.4821  1.2196 -2.2217
29964SOL    HW294831   0.581   8.964   5.891  0.4190  0.0420  0.7380
29965SOL     OW94832   5.674   3.076   3.288  0.4464  0.4945 -0.3940
29965SOL    HW194833   5.722   3.158   3.277 -0.6205  1.0183 -1.4419
29965SOL    HW294834   5.630   3.063   3.204 -1.6719  0.3707  0.6523
29966SOL     OW94835   0.324   8.567   5.239 -0.7645  0.4437  0.1477
29966SOL    HW194836   0.277   8.523   5.310  1.9342 -0.2885  1.6410
29966SOL    HW294837   0.340   8.655   5.271 -0.0188  0.2800  0.2560
29967SOL     OW94838   4.180   6.818   8.692 -0.4373  0.5188  0.2590
29967SOL    HW194839   4.122   6.792   8.764  1.7382 -1.4275  1.4705
29967SOL    HW294840   4.186   6.741   8.636 -0.9170  1.5180 -1.2420
29968SOL     OW94841   0.671   9.086   9.052  0.0605  0.7617 -0.5891
29968SOL    HW194842   0.657   9.038   9.133 -0.5600  1.2517 -0.3937
29968SOL    HW294843   0.695   9.019   8.988  1.1277  0.4329  0.1155
29969SOL     OW94844   1.487   6.902   6.577  0.0210 -0.0662 -0.8471
29969SOL    HW194845   1.412   6.953   6.545 -2.4433  1.5864  5.7885
29969SOL    HW294846   1.455   6.812   6.578 -1.1786  0.3329 -0.0569
29970SOL     OW94847   6.754   3.175   4.063 -0.0872 -0.0091  0.7340
29970SOL    HW194848   6.849   3.166   4.058  0.0057  0.9690  0.6218
29970SOL    HW294849   6.723   3.088   4.091  0.8317 -0.3229  0.8044
29971SOL     OW94850   5.977   5.935   6.344 -0.3305 -0.1547  0.3896
29971SOL    HW194851   5.983   5.902   6.434  2.0018  0.8239  0.6666
29971SOL    HW294852   6.060   5.911   6.304 -1.9874 -2.2175 -2.1895
29972SOL     OW94853   1.329   4.106   6.585  0.2466 -0.3028  0.4215
29972SOL    HW194854   1.385   4.175   6.551  1.2913 -0.7032  1.2649
29972SOL    HW294855   1.364   4.088   6.672 -0.5903 -1.2438  0.5776
29973SOL     OW94856  11.211   7.548   8.721 -0.1362 -0.5788 -0.6174
29973SOL    HW194857  11.187   7.638   8.745 -0.5986 -1.0161  0.6556
29973SOL    HW294858  11.135   7.496   8.746 -0.0023 -1.2998 -1.6419
29974SOL     OW94859   5.033   6.684   9.273 -0.6592  0.0812  0.3768
29974SOL    HW194860   4.998   6.773   9.265 -1.5536 -0.1848  1.1170
29974SOL    HW294861   5.046   6.672   9.367 -1.8945 -1.0551  0.4258
29975SOL     OW94862   9.068   0.208   9.659 -0.9128 -0.1367 -0.4321
29975SOL    HW194863   9.151   0.169   9.689 -1.1175  0.4102  0.9190
29975SOL    HW294864   9.070   0.297   9.694 -1.6927  0.1623 -1.1248
29976SOL     OW94865  11.628   4.417  11.254  0.1416  0.0242 -0.3880
29976SOL    HW194866  11.718   4.413  11.221  0.1248 -0.4287 -0.3879
29976SOL    HW294867  11.615   4.509  11.275  0.5344  0.1328 -0.5884
29977SOL     OW94868   1.731   9.900   4.681 -0.3947  0.0081 -0.3258
29977SOL    HW194869   1.779   9.951   4.746 -0.8711 -1.3740  1.1872
29977SOL    HW294870   1.643   9.890   4.717 -0.6169 -0.9597 -1.0768
29978SOL     OW94871   2.976   4.523   5.358 -0.5593  0.5501  0.4294
29978SOL    HW194872   3.013   4.583   5.293  0.5294 -0.7001 -0.1692
29978SOL    HW294873   2.918   4.577   5.411 -0.9014  1.7713 -1.1238
29979SOL     OW94874   1.242   9.190   3.134  0.4462 -0.0983 -0.0435
29979SOL    HW194875   1.283   9.234   3.209  2.1062  0.0432 -1.0045
29979SOL    HW294876   1.172   9.250   3.107  0.0201 -0.0079  1.1682
29980SOL     OW94877   3.523   4.337   3.939 -0.1948 -0.3715 -0.1298
29980SOL    HW194878   3.487   4.380   3.862 -1.9322 -1.1531  0.1775
29980SOL    HW294879   3.592   4.280   3.905  1.9253  2.2903 -0.5703
29981SOL     OW94880   2.048   5.978   3.445 -0.0301 -0.9730  0.6232
29981SOL    HW194881   1.968   5.929   3.426 -0.4935 -0.5718  1.4800
29981SOL    HW294882   2.037   6.009   3.535  1.2336 -1.1722  0.8663
29982SOL     OW94883  11.358  10.074  11.327  0.2286 -0.0615 -0.5201
29982SOL    HW194884  11.318  10.113  11.404  0.1240 -0.1018 -0.5530
29982SOL    HW294885  11.417  10.142  11.293 -0.3164  0.2486 -0.8553
29983SOL     OW94886   3.008  11.525   5.355 -0.5074  0.6033 -0.1210
29983SOL    HW194887   2.988  11.432   5.371 -0.8004  0.7475  0.3706
29983SOL    HW294888   2.922  11.567   5.353 -0.4103  0.7747 -0.9384
29984SOL     OW94889   9.503  10.454   4.630 -1.0258 -0.7105 -0.4667
29984SOL    HW194890   9.594  10.471   4.608 -0.6075  0.4459  1.8408
29984SOL    HW294891   9.498  10.360   4.647 -0.2776 -0.7938 -0.7004
29985SOL     OW94892   0.487   8.494   0.620 -0.0895 -0.0426  0.6669
29985SOL    HW194893   0.450   8.416   0.660  0.9097  0.4467  2.6236
29985SOL    HW294894   0.549   8.528   0.684  1.4857  0.8893 -1.2393
29986SOL     OW94895   6.332  11.080   5.546  0.3086  0.6169 -0.6752
29986SOL    HW194896   6.378  11.133   5.480  1.6657 -0.0552 -0.3101
29986SOL    HW294897   6.344  10.990   5.516  0.6756  0.3226  0.3267
29987SOL     OW94898   8.314   0.890  11.341 -0.1689  0.3685 -0.6996
29987SOL    HW194899   8.400   0.851  11.325  0.1420  0.7846 -0.0676
29987SOL    HW294900   8.253   0.816  11.342  0.4926 -0.1914  1.1277
29988SOL     OW94901   8.770   9.395  10.215 -0.0792  0.0546 -0.1397
29988SOL    HW194902   8.791   9.372  10.305  0.1914 -0.5913 -0.3604
29988SOL    HW294903   8.784   9.489  10.211 -0.2490  0.1163  0.5308
29989SOL     OW94904   5.830   7.640   6.795  0.2016 -0.0908  0.3142
29989SOL    HW194905   5.810   7.547   6.804 -0.3945  0.1218  1.3608
29989SOL    HW294906   5.747   7.681   6.773  0.6182  0.1102 -0.9907
29990SOL     OW94907   2.259   1.729  11.049  0.2113  0.2826 -0.4109
29990SOL    HW194908   2.219   1.678  10.979 -0.3031  0.3187 -0.1435
29990SOL    HW294909   2.190   1.738  11.115 -0.1337  2.4684 -1.0180
29991SOL     OW94910   0.338   7.966   5.775 -0.2290 -0.2906 -0.2416
29991SOL    HW194911   0.375   8.051   5.797 -0.4595 -0.0155 -0.8900
29991SOL    HW294912   0.411   7.905   5.783  0.0950  0.0684 -0.4065
29992SOL     OW94913   0.307   2.010  11.533  0.2319  0.0816  0.0909
29992SOL    HW194914   0.311   2.054  11.618 -0.2009 -0.4696  0.4019
29992SOL    HW294915   0.312   1.917  11.554  2.3861 -0.0279 -0.6295
29993SOL     OW94916   3.243   2.690  10.203 -0.3167  0.7949 -0.3788
29993SOL    HW194917   3.273   2.677  10.113 -0.4578  1.2508 -0.4960
29993SOL    HW294918   3.164   2.636  10.210 -0.5767  1.1234 -0.6833
29994SOL     OW94919   3.616   0.541   7.896 -0.2701 -0.0412 -0.2497
29994SOL    HW194920   3.562   0.593   7.835 -1.4380 -0.9778 -0.0638
29994SOL    HW294921   3.705   0.549   7.862 -0.7053  0.5433 -1.3132
29995SOL     OW94922  10.825   6.047   7.219  0.3453 -0.3212 -0.0329
29995SOL    HW194923  10.815   6.124   7.276 -2.3921  0.5748 -1.5606
29995SOL    HW294924  10.916   6.050   7.192  0.2211  2.7906 -0.5162
29996SOL     OW94925   2.238   4.275   4.704  0.2285 -0.1657  0.4212
29996SOL    HW194926   2.328   4.245   4.693  0.6055  0.8126  0.7555
29996SOL    HW294927   2.240   4.329   4.783 -0.3611  0.9187 -0.2790
29997SOL     OW94928   8.648   5.596  11.069  0.6450  0.3988  0.4800
29997SOL    HW194929   8.555   5.615  11.059  0.5433  0.5711  1.6613
29997SOL    HW294930   8.660   5.512  11.025  0.3128  1.2149 -1.3026
29998SOL     OW94931   5.556   7.747   7.231  0.4404  0.5397 -0.2188
29998SOL    HW194932   5.632   7.710   7.276  0.1867  2.0229  1.5019
29998SOL    HW294933   5.593   7.792   7.155  1.1475  0.3080 -0.0192
29999SOL     OW94934   2.584   9.025   1.023  0.1992 -0.2966  0.4408
29999SOL    HW194935   2.672   9.054   1.049  0.1989 -0.6282  0.8163
29999SOL    HW294936   2.526   9.093   1.056  0.5172  1.6301 -2.5062
30000SOL     OW94937   5.024   1.793   0.812  0.4448  0.1123 -0.1954
30000SOL    HW194938   5.009   1.759   0.724 -0.0995  0.8442 -0.3949
30000SOL    HW294939   5.081   1.869   0.800 -0.6125  0.9544 -0.0617
30001SOL     OW94940   1.677  11.264   8.598  0.2934  0.2743  0.1561
30001SOL    HW194941   1.686  11.325   8.671 -1.0087  0.7499 -0.0522
30001SOL    HW294942   1.708  11.313   8.522  0.8160  0.0847  0.2413
30002SOL     OW94943  10.546   5.381   7.564 -0.1695 -0.4248  0.3854
30002SOL    HW194944  10.628   5.403   7.608  1.0781 -1.4461 -1.2856
30002SOL    HW294945  10.511   5.466   7.535  0.1593  0.0482  1.3339
30003SOL     OW94946   5.345   8.046   1.469  0.2870 -0.0205 -0.5698
30003SOL    HW194947   5.253   8.072   1.471 -0.0328 -1.0913 -0.6490
30003SOL    HW294948   5.370   8.053   1.377 -0.1389 -1.0725 -0.7853
30004SOL     OW94949   0.754   5.591   0.739 -0.5619  0.2207  0.1003
30004SOL    HW194950   0.781   5.518   0.795  1.1669  0.9104  0.2300
30004SOL    HW294951   0.713   5.549   0.664 -0.6606 -0.8214  0.7088
30005SOL     OW94952   7.307  10.029   0.652 -0.2055  0.3561  0.1430
30005SOL    HW194953   7.290  10.107   0.706 -0.4578 -0.1606  0.8377
30005SOL    HW294954   7.219   9.998   0.628 -0.1033  0.3183 -0.1867
30006SOL     OW94955  10.616  11.380   1.197 -0.2554  0.0494  0.2922
30006SOL    HW194956  10.624  11.322   1.121 -0.3769  0.6304 -0.1683
30006SOL    HW294957  10.598  11.321   1.270  0.3485 -0.5603 -0.0419
30007SOL     OW94958   6.860   8.946   3.895 -0.2414  0.5445 -0.0785
30007SOL    HW194959   6.904   8.862   3.882  0.0444  0.7783 -0.6615
30007SOL    HW294960   6.931   9.006   3.920 -0.2938  0.8243 -0.5902
30008SOL     OW94961  10.484   3.762   4.451 -0.1609  0.4810 -0.4829
30008SOL    HW194962  10.460   3.741   4.361  1.4767 -2.2717 -0.4025
30008SOL    HW294963  10.426   3.709   4.505  0.2589  0.4809 -0.0126
30009SOL     OW94964  11.169  10.128   9.985  0.4673 -0.3308  0.2070
30009SOL    HW194965  11.229  10.089   9.921 -2.4115 -1.1489 -2.2693
30009SOL    HW294966  11.165  10.220   9.960 -0.9608 -0.7275 -1.1787
30010SOL     OW94967   3.285  10.558   3.917  0.8175  0.2694  0.0489
30010SOL    HW194968   3.377  10.537   3.904  1.2721  2.1354 -0.0114
30010SOL    HW294969   3.280  10.591   4.006 -0.1815 -1.5404  0.7302
30011SOL     OW94970  11.117   8.131   9.487  0.3063  0.0241  0.4153
30011SOL    HW194971  11.165   8.057   9.449  0.6968  0.0336  0.8892
30011SOL    HW294972  11.058   8.091   9.551 -1.8416 -0.2226 -1.5802
30012SOL     OW94973   8.097   2.055   0.785  0.1651 -0.2502  0.3054
30012SOL    HW194974   8.012   2.066   0.742  2.4237 -0.3774 -5.0676
30012SOL    HW294975   8.117   1.962   0.775  0.6536 -0.4197  2.3811
30013SOL     OW94976   4.980   9.334   2.974  0.0665 -0.0220 -0.0806
30013SOL    HW194977   4.929   9.291   3.042  2.1533 -1.7056  0.5052
30013SOL    HW294978   5.023   9.407   3.019  1.3944 -1.0950  0.4684
30014SOL     OW94979   8.032   3.501  11.528 -0.2592  0.4604 -0.1751
30014SOL    HW194980   7.949   3.479  11.487 -0.3559  0.5808 -0.0470
30014SOL    HW294981   8.019   3.483  11.621  0.8256 -2.4293 -0.4944
30015SOL     OW94982   6.991   1.668   1.023 -0.3271 -0.4264  0.3185
30015SOL    HW194983   7.072   1.677   1.072  0.0167 -0.4537 -0.2363
30015SOL    HW294984   6.947   1.592   1.062  0.0665 -0.6094  0.4075
30016SOL     OW94985   0.851   3.963   9.604 -0.1562 -0.4789 -0.0888
30016SOL    HW194986   0.871   4.044   9.651 -2.2573 -0.4254  0.8277
30016SOL    HW294987   0.916   3.900   9.635  0.7761  0.5306  0.0604
30017SOL     OW94988   9.407   5.290   8.253 -0.4259 -0.0436  0.4518
30017SOL    HW194989   9.497   5.315   8.271 -0.2273 -0.3348 -0.1154
30017SOL    HW294990   9.362   5.301   8.337  0.5014 -1.4755  1.1749
30018SOL     OW94991   1.642   7.440   7.449  0.3044  0.3622 -0.0012
30018SOL    HW194992   1.578   7.494   7.403 -1.8718 -1.4475  0.7420
30018SOL    HW294993   1.653   7.483   7.534 -1.1281 -0.1020  0.4483
30019SOL     OW94994   1.347   1.911   0.939  0.0939  0.0929 -0.6412
30019SOL    HW194995   1.403   1.872   1.005 -1.5821 -0.7096  0.3875
30019SOL    HW294996   1.359   2.005   0.949 -0.4148  0.0070  1.1130
30020SOL     OW94997   9.834   5.918   2.796  0.0727 -0.1018  0.3525
30020SOL    HW194998   9.870   5.942   2.710  2.7782  0.3283  1.5115
30020SOL    HW294999   9.800   6.001   2.832 -1.4969 -0.3642 -0.4086
30021SOL     OW95000   8.048   6.649   7.860 -0.4673 -0.1527  0.3765
30021SOL    HW195001   7.994   6.636   7.782 -2.4009 -1.5551  1.8596
30021SOL    HW295002   7.988   6.681   7.926  0.2134 -2.6127  2.3681
30022SOL     OW95003   3.223   5.893   9.102  0.1777  0.0313  0.1051
30022SOL    HW195004   3.151   5.848   9.146 -0.4468 -0.2925 -1.1884
30022SOL    HW295005   3.298   5.881   9.160 -0.8698  0.6775  1.6593
30023SOL     OW95006   5.510   6.306   4.792  0.0667  0.6737  0.0032
30023SOL    HW195007   5.561   6.279   4.715  0.2917  0.2518  0.2948
30023SOL    HW295008   5.436   6.355   4.756 -1.1260 -1.4957 -0.6660
30024SOL     OW95009   2.367  10.552  11.390  0.4158 -0.2500  0.1008
30024SOL    HW195010   2.272  10.542  11.379  0.2008 -0.0544  1.5606
30024SOL    HW295011   2.401  10.555  11.300 -0.8763 -1.0102 -0.4487
30025SOL     OW95012   7.166   2.947   6.510 -0.3189 -0.0569 -0.3179
30025SOL    HW195013   7.203   2.859   6.513 -1.4161 -0.5216 -0.0349
30025SOL    HW295014   7.086   2.941   6.562  0.1477  1.3862  0.6421
30026SOL     OW95015   8.805   1.727   9.697 -0.0025  0.2412  0.0045
30026SOL    HW195016   8.838   1.805   9.741 -2.1112  0.3645  1.4898
30026SOL    HW295017   8.723   1.754   9.657 -0.4615 -1.0537 -0.0010
30027SOL     OW95018   7.413   3.464   7.501 -0.5892  0.3355 -0.0592
30027SOL    HW195019   7.332   3.413   7.515  0.1552 -0.6221  0.9304
30027SOL    HW295020   7.422   3.516   7.581  1.0286 -1.3988  0.9753
30028SOL     OW95021   5.821   4.766   8.773  0.5462 -0.9982  0.2465
30028SOL    HW195022   5.755   4.752   8.706  1.4563  0.9705 -1.1712
30028SOL    HW295023   5.894   4.711   8.747  0.9835 -0.0705 -0.5734
30029SOL     OW95024   8.807   3.626   7.706  0.5180  0.0377 -0.1561
30029SOL    HW195025   8.871   3.691   7.735 -0.3566  0.7360  0.2575
30029SOL    HW295026   8.829   3.610   7.614  0.0927  1.7501 -0.5978
30030SOL     OW95027   3.078   0.932   1.902 -0.2044 -0.2628 -0.2979
30030SOL    HW195028   3.156   0.890   1.937 -0.5190 -1.3377 -0.8325
30030SOL    HW295029   3.005   0.886   1.943 -0.5666  0.7390  0.2046
30031SOL     OW95030   6.116   5.304  10.080 -0.3074 -0.0783 -0.2822
30031SOL    HW195031   6.179   5.328  10.012 -1.0885 -3.2396 -2.3057
30031SOL    HW295032   6.169   5.258  10.146  0.1976  1.6434  0.5785
30032SOL     OW95033   1.706   7.677  10.949 -0.3755  0.1089 -0.1487
30032SOL    HW195034   1.746   7.759  10.977  1.1698 -0.3929 -0.7998
30032SOL    HW295035   1.640   7.658  11.016  2.7738 -0.8142  2.9472
30033SOL     OW95036   1.302   4.894   1.584  0.5079 -0.0540 -0.3717
30033SOL    HW195037   1.351   4.894   1.666  0.5262 -1.4603 -0.3585
30033SOL    HW295038   1.231   4.831   1.598  0.8949 -0.8197 -1.6401
30034SOL     OW95039  10.348   7.544   3.578  0.0900 -0.5018 -0.0205
30034SOL    HW195040  10.354   7.470   3.638 -2.7197 -0.5961  0.2711
30034SOL    HW295041  10.321   7.505   3.495  1.0088 -0.0400 -0.5491
30035SOL     OW95042   2.325  11.182   0.984  0.6744  0.0536  0.2627
30035SOL    HW195043   2.260  11.162   1.052 -1.8518  1.0814 -1.7053
30035SOL    HW295044   2.322  11.107   0.925  0.5573  0.5487 -0.3654
30036SOL     OW95045   4.487   1.657  11.005 -0.0056  0.1826  0.1653
30036SOL    HW195046   4.455   1.587  10.949 -2.4135 -1.0644  2.7923
30036SOL    HW295047   4.442   1.735  10.974 -0.6302 -0.3050 -0.1739
30037SOL     OW95048  10.091   6.110  10.224 -0.1508  0.1172  0.0725
30037SOL    HW195049  10.071   6.173  10.293  2.3986 -0.0084  1.0050
30037SOL    HW295050  10.084   6.160  10.143 -0.7583  0.9021  0.5898
30038SOL     OW95051   3.661   5.659   5.555  0.2397  0.0374 -0.5573
30038SOL    HW195052   3.664   5.625   5.465  1.4885  0.5518 -0.7438
30038SOL    HW295053   3.753   5.664   5.581 -0.1485 -1.2137  1.2012
30039SOL     OW95054   5.182   5.028   4.707 -0.3537 -0.1221  0.0152
30039SOL    HW195055   5.193   5.059   4.797 -0.3321 -0.4777  0.1355
30039SOL    HW295056   5.097   5.064   4.679 -0.6397 -0.5046  0.3839
30040SOL     OW95057   9.020   0.368   2.332  0.1191 -0.0029  0.3754
30040SOL    HW195058   8.989   0.336   2.417 -2.6041  0.0948 -0.5116
30040SOL    HW295059   8.985   0.456   2.326  1.0356  0.3132 -0.5185
30041SOL     OW95060   0.729   8.582   3.480  0.4445  0.3930 -0.0159
30041SOL    HW195061   0.779   8.622   3.410  0.1937 -0.9076 -0.9628
30041SOL    HW295062   0.668   8.522   3.436  0.4748 -0.6662  1.3004
30042SOL     OW95063   5.927  10.935   2.932  0.0251  0.0738  0.6725
30042SOL    HW195064   5.963  10.847   2.919  1.0123  0.2687  1.8915
30042SOL    HW295065   5.905  10.939   3.025  0.3555  1.2423  0.7171
30043SOL     OW95066   5.060  10.060   7.354  0.6525  0.3560  0.0339
30043SOL    HW195067   5.032  10.145   7.388 -0.8567  0.1070 -0.5338
30043SOL    HW295068   5.143  10.079   7.309  0.6739  1.3982  0.4779
30044SOL     OW95069   7.665   6.298  10.852  0.1629 -0.1347  0.1315
30044SOL    HW195070   7.606   6.273  10.922  0.7522  0.1482  0.7455
30044SOL    HW295071   7.701   6.215  10.820 -0.0214 -0.2566  0.2385
30045SOL     OW95072  10.873   4.173   8.384  0.0908  0.6341  0.8646
30045SOL    HW195073  10.795   4.175   8.329  0.1139  0.2842  0.8130
30045SOL    HW295074  10.841   4.151   8.471  0.0408  1.3168  1.0178
30046SOL     OW95075  10.654   9.541  10.500  0.1502 -0.3870  0.4241
30046SOL    HW195076  10.675   9.506  10.587 -0.5359  0.1022  0.7943
30046SOL    HW295077  10.670   9.635  10.508  0.5209 -0.3981 -0.1202
30047SOL     OW95078   2.771   3.615   1.415  0.0184  0.0416 -0.2495
30047SOL    HW195079   2.705   3.600   1.483  1.0634  1.0216  1.0342
30047SOL    HW295080   2.802   3.528   1.392 -1.9600 -0.4581 -1.1427
30048SOL     OW95081  11.441   7.216   0.709  0.4938 -0.8151  0.9898
30048SOL    HW195082  11.367   7.258   0.753  0.2824 -0.9557  0.7673
30048SOL    HW295083  11.491   7.288   0.671  0.4599 -0.7228  1.1203
30049SOL     OW95084   9.350   5.775   8.071 -0.0018 -0.3056 -0.3030
30049SOL    HW195085   9.294   5.816   8.136 -0.0661  1.6383 -1.5067
30049SOL    HW295086   9.364   5.842   8.005 -0.3164 -2.3077 -2.5647
30050SOL     OW95087   7.458   0.291   8.310 -0.2869  0.2085 -0.2558
30050SOL    HW195088   7.364   0.309   8.308 -0.1996  0.6340 -1.8522
30050SOL    HW295089   7.500   0.378   8.308  0.1719  0.0456  0.9556
30051SOL     OW95090   8.952   2.134   2.664 -0.0456  0.1711 -0.2305
30051SOL    HW195091   8.917   2.073   2.729 -0.1341  1.3655  0.8803
30051SOL    HW295092   9.040   2.102   2.645  0.9063  1.0789  2.2741
30052SOL     OW95093   0.986   0.173   6.436 -0.5400 -0.0597 -0.1351
30052SOL    HW195094   1.074   0.168   6.474  0.0031  3.4489 -0.5549
30052SOL    HW295095   0.935   0.220   6.502 -1.6907 -0.6437 -0.5789
30053SOL     OW95096   7.953   2.820   6.860  0.2912  0.2604 -0.0201
30053SOL    HW195097   7.949   2.778   6.774  1.7209  0.6401 -0.2937
30053SOL    HW295098   7.913   2.906   6.846 -0.2480  0.0039 -0.0913
30054SOL     OW95099   8.623   4.995   5.645 -0.0773 -0.0258  0.3122
30054SOL    HW195100   8.672   4.954   5.716 -0.0897  1.1812  1.0435
30054SOL    HW295101   8.545   4.939   5.636 -0.7177  0.4794  2.1359
30055SOL     OW95102   9.233   5.739  11.050 -0.5365 -0.1787  0.0267
30055SOL    HW195103   9.291   5.687  10.993  0.9587  1.3645  0.0635
30055SOL    HW295104   9.262   5.719  11.139 -0.4677  0.1257  0.0743
30056SOL     OW95105  11.417  10.939  11.367  0.0425  0.3480 -0.0559
30056SOL    HW195106  11.384  10.936  11.277 -0.5576  2.0028  0.0727
30056SOL    HW295107  11.488  11.003  11.365  0.2333  0.1671  0.5886
30057SOL     OW95108   1.285   5.498   7.313  0.1624  0.1869 -0.2058
30057SOL    HW195109   1.347   5.425   7.307 -0.7332 -0.6620  0.4259
30057SOL    HW295110   1.208   5.467   7.265  0.1152  1.1220 -0.7629
30058SOL     OW95111   2.609  11.075   1.993  0.0435  0.5223 -0.2051
30058SOL    HW195112   2.537  11.119   2.038  0.9194  0.0359  1.8208
30058SOL    HW295113   2.647  11.018   2.060  3.6390  2.3357 -0.4457
30059SOL     OW95114   5.289   9.890  11.225  0.2006 -0.0887  0.3162
30059SOL    HW195115   5.255   9.975  11.198 -0.3465 -0.2292  0.5368
30059SOL    HW295116   5.222   9.856  11.285  0.1079 -0.9418 -0.2578
30060SOL     OW95117   4.112   9.469   0.540 -0.1883 -0.4153  0.0140
30060SOL    HW195118   4.166   9.547   0.533  0.1793 -0.6841 -0.1806
30060SOL    HW295119   4.172   9.400   0.567 -0.9085 -0.1684  2.5209
30061SOL     OW95120   9.202   8.071   0.791  0.3268 -0.0910 -0.2192
30061SOL    HW195121   9.208   8.054   0.697 -0.1547  1.4691 -0.5538
30061SOL    HW295122   9.158   8.155   0.798  0.1210 -0.2969  1.4286
30062SOL     OW95123   9.732   9.151   0.089 -0.3590 -0.5448  0.3709
30062SOL    HW195124   9.812   9.168   0.040 -0.9928  1.7653  0.0204
30062SOL    HW295125   9.748   9.068   0.134  1.6527 -0.8506 -0.8161
30063SOL     OW95126   1.515   4.168   7.093 -0.2669 -0.4527 -0.2411
30063SOL    HW195127   1.428   4.148   7.130 -0.6492 -0.1791 -0.9678
30063SOL    HW295128   1.554   4.229   7.156  0.3092 -2.2621  1.2343
30064SOL     OW95129   3.898   4.087   9.504 -0.1794 -0.0599  0.1735
30064SOL    HW195130   3.953   4.009   9.510  0.0374 -0.1584 -2.1922
30064SOL    HW295131   3.944   4.145   9.445 -1.1871  1.1518  0.5247
30065SOL     OW95132   9.898   6.711   6.421  0.5737 -0.1288 -0.0210
30065SOL    HW195133   9.934   6.625   6.443  0.5752 -0.6622 -1.9347
30065SOL    HW295134   9.816   6.717   6.470 -0.7039 -2.3219 -1.7550
30066SOL     OW95135   1.079   2.896   7.419  0.0980  0.1056  0.1194
30066SOL    HW195136   1.162   2.888   7.373  0.5981 -0.6773  1.1243
30066SOL    HW295137   1.099   2.872   7.509 -1.2475 -0.2018  0.3561
30067SOL     OW95138   2.054   2.100   2.209 -0.2452  0.2856  0.2007
30067SOL    HW195139   1.966   2.076   2.236 -0.8786  2.2253  0.0572
30067SOL    HW295140   2.105   2.100   2.290 -0.1939 -1.3904  0.2056
30068SOL     OW95141   8.696  11.026   9.687 -0.5460  0.1383  0.2923
30068SOL    HW195142   8.773  11.074   9.717 -0.2987 -1.3175  2.2491
30068SOL    HW295143   8.716  11.002   9.597  0.7299  0.8756  0.3581
30069SOL     OW95144   8.362   3.811   5.753 -0.1247  0.0904  0.2152
30069SOL    HW195145   8.302   3.745   5.718 -0.0877 -0.3328  0.9362
30069SOL    HW295146   8.320   3.844   5.832  1.0282 -0.9443  1.3033
30070SOL     OW95147   5.741   6.646   1.047 -0.5880 -0.0731 -0.3633
30070SOL    HW195148   5.743   6.553   1.070  0.8769 -0.2285 -1.0206
30070SOL    HW295149   5.747   6.647   0.951  0.0568  0.7133 -0.3228
30071SOL     OW95150   1.760   9.933   7.302 -0.1206 -0.2421 -0.5547
30071SOL    HW195151   1.788   9.882   7.226  0.1697  0.0605 -0.6530
30071SOL    HW295152   1.769   9.872   7.375 -3.2065 -1.5152 -1.1039
30072SOL     OW95153   6.906   5.152   8.520 -0.3668 -0.1729 -0.3718
30072SOL    HW195154   6.935   5.243   8.532 -0.2169  0.0392 -2.0440
30072SOL    HW295155   6.813   5.154   8.542 -0.0156  0.0102  1.1952
30073SOL     OW95156   1.396   4.783   7.845 -0.1914 -0.0368  0.2452
30073SOL    HW195157   1.354   4.744   7.768  0.3016  0.3841 -0.2399
30073SOL    HW295158   1.459   4.717   7.874  0.6434  0.3774 -0.5775
30074SOL     OW95159  10.491   4.232   5.387 -0.6107 -0.4011 -0.1914
30074SOL    HW195160  10.490   4.146   5.345 -0.6469 -0.1305 -0.7535
30074SOL    HW295161  10.436   4.222   5.465 -0.6436 -0.8782 -0.2765
30075SOL     OW95162  10.017   0.947   1.621 -0.0079 -0.1409 -0.7259
30075SOL    HW195163  10.100   0.975   1.657  0.2505 -2.4514  0.7062
30075SOL    HW295164   9.972   0.905   1.695 -0.7604 -2.3641 -2.3273
30076SOL     OW95165  11.531   9.351   0.457 -0.2423 -0.2216  0.2016
30076SOL    HW195166  11.617   9.319   0.428 -0.1070  1.1206 -0.9771
30076SOL    HW295167  11.551   9.429   0.508 -0.6498 -1.1752  1.8634
30077SOL     OW95168  10.628   1.955   9.997 -0.0768  0.3680 -1.0205
30077SOL    HW195169  10.583   1.871   9.987  0.4572  0.0602 -0.8962
30077SOL    HW295170  10.685   1.942  10.073  1.8457  0.0159 -2.4695
30078SOL     OW95171   8.957   0.569   3.039 -0.0400  0.3166  0.1219
30078SOL    HW195172   8.994   0.520   2.965 -1.1228 -1.1170  0.4793
30078SOL    HW295173   8.862   0.562   3.027 -0.2348  0.0010  1.6695
30079SOL     OW95174   6.859   8.412   0.048  0.0407  0.2621  0.5384
30079SOL    HW195175   6.948   8.377   0.049  0.3459  1.0384  1.0455
30079SOL    HW295176   6.869   8.505   0.067 -0.8746  0.3766  0.5168
30080SOL     OW95177   8.530   3.519   2.475  0.5171  0.0231  0.5079
30080SOL    HW195178   8.529   3.427   2.449  0.0692 -0.1871  1.2482
30080SOL    HW295179   8.519   3.517   2.570  2.9767  0.7299  0.8768
30081SOL     OW95180  10.832   2.758  10.295  0.1822  0.0530  0.2128
30081SOL    HW195181  10.778   2.816  10.348 -0.8471  0.6863 -1.4720
30081SOL    HW295182  10.809   2.779  10.204  0.3684 -2.4201 -0.4763
30082SOL     OW95183   8.376  10.909   3.704 -0.0147 -0.2449 -0.1236
30082SOL    HW195184   8.461  10.873   3.680  0.4015  0.4696  0.2509
30082SOL    HW295185   8.339  10.846   3.766  0.5710 -0.1773  0.2954
30083SOL     OW95186   5.982   9.530   9.610 -0.4071 -0.4501 -0.0703
30083SOL    HW195187   5.977   9.583   9.690 -1.7746  1.1476 -1.1333
30083SOL    HW295188   6.065   9.556   9.569 -0.7630  0.4460 -0.2591
30084SOL     OW95189   1.208   3.100   3.926 -0.0604  0.2811 -0.3846
30084SOL    HW195190   1.244   3.166   3.866  0.5132 -0.2888 -0.6843
30084SOL    HW295191   1.136   3.060   3.878  1.2758 -1.1419 -1.2859
30085SOL     OW95192   8.678   4.893   9.673 -0.0523  0.4321  0.0339
30085SOL    HW195193   8.679   4.822   9.736 -1.8846  0.2424 -0.0955
30085SOL    HW295194   8.686   4.850   9.588 -0.2566  0.4513  0.0037
30086SOL     OW95195   8.630   3.906   1.874 -0.3426 -0.3681  0.5905
30086SOL    HW195196   8.660   3.816   1.880 -1.2894 -0.6578  1.1882
30086SOL    HW295197   8.666   3.948   1.953  2.8624  0.6776 -1.2521
30087SOL     OW95198   7.970   3.785   2.536  0.9766  0.4624  0.1661
30087SOL    HW195199   8.054   3.788   2.582 -0.4533 -0.1577  3.0124
30087SOL    HW295200   7.928   3.869   2.555  0.9822  0.8893 -1.4771
30088SOL     OW95201   8.659   8.241  10.813 -0.1910 -0.4636 -0.2161
30088SOL    HW195202   8.564   8.251  10.811 -0.4824 -1.9185  1.9401
30088SOL    HW295203   8.681   8.242  10.907  1.7606 -1.2562 -0.6100
30089SOL     OW95204   5.353   2.410   2.062  0.3590  0.0358 -0.2257
30089SOL    HW195205   5.311   2.476   2.006 -1.2429  0.1033  1.0004
30089SOL    HW295206   5.441   2.445   2.077 -0.1928  1.5167 -0.2591
30090SOL     OW95207   2.443   0.106   5.770 -0.3900  0.6189  0.3053
30090SOL    HW195208   2.417   0.072   5.856 -1.6706 -0.0504 -0.3191
30090SOL    HW295209   2.533   0.074   5.758 -0.6376 -0.3311  0.8631
30091SOL     OW95210   9.756   6.372   5.830 -0.1477 -0.4000 -0.3965
30091SOL    HW195211   9.751   6.307   5.900 -1.2070  0.3469  0.2531
30091SOL    HW295212   9.848   6.369   5.801  0.1708 -1.1262  0.6255
30092SOL     OW95213  11.115   2.045   9.888  0.1102 -0.3393  0.2323
30092SOL    HW195214  11.023   2.072   9.886  0.4252  0.7412 -0.6944
30092SOL    HW295215  11.139   2.049   9.981  0.0980  2.6143  0.1954
30093SOL     OW95216   5.862  10.349   1.469  0.0731 -0.1676 -0.2464
30093SOL    HW195217   5.865  10.299   1.550 -1.1843 -0.2405 -0.2386
30093SOL    HW295218   5.845  10.439   1.497  1.9068  0.2348 -0.2892
30094SOL     OW95219  10.365   3.862   6.075 -0.6986 -0.6185 -0.3643
30094SOL    HW195220  10.321   3.799   6.132 -1.4144  1.3769  1.4329
30094SOL    HW295221  10.294   3.905   6.027 -0.2294 -1.1119 -1.5264
30095SOL     OW95222   7.107   1.245   6.995 -0.3202 -0.4034 -0.4197
30095SOL    HW195223   7.115   1.207   6.908 -1.3134 -0.9723 -0.2907
30095SOL    HW295224   7.099   1.339   6.980  2.4404 -0.1619 -0.7304
30096SOL     OW95225   2.218   1.492  10.332  0.0000 -0.2164 -0.1367
30096SOL    HW195226   2.154   1.512  10.265 -1.5200 -0.7509  1.0993
30096SOL    HW295227   2.182   1.530  10.413  1.0353 -0.8661  0.6679
30097SOL     OW95228   5.014   0.373   1.271  0.1413  0.4072  0.2106
30097SOL    HW195229   5.077   0.351   1.340  1.6820 -0.8014 -1.4908
30097SOL    HW295230   4.964   0.293   1.256  0.5624  0.3177 -0.7982
30098SOL     OW95231   7.044   8.704   3.248  0.1637 -0.4881 -0.8782
30098SOL    HW195232   7.030   8.776   3.310 -1.1369  0.5731 -2.3357
30098SOL    HW295233   7.123   8.660   3.280 -1.0829 -0.7231  2.2042
30099SOL     OW95234   6.178   8.869   7.130  0.2056 -0.0398 -0.4907
30099SOL    HW195235   6.136   8.801   7.076 -1.1345 -0.3932  0.9112
30099SOL    HW295236   6.242   8.821   7.183 -0.0983 -0.0859 -0.1558
30100SOL     OW95237   5.257   4.141   1.914  0.3972  0.2384 -0.1604
30100SOL    HW195238   5.176   4.123   1.867  0.2487  1.5538 -0.4571
30100SOL    HW295239   5.325   4.143   1.847  0.7332 -1.0547  0.1115
30101SOL     OW95240  11.127   9.781   6.280 -0.4644  0.9069  0.2588
30101SOL    HW195241  11.048   9.834   6.267 -0.8588  0.1416 -0.6970
30101SOL    HW295242  11.096   9.703   6.326 -0.2601  0.6555 -0.0179
30102SOL     OW95243   5.776   8.387  11.417  0.2325  0.0176 -0.4326
30102SOL    HW195244   5.857   8.383  11.366  0.7848 -2.6275  0.5180
30102SOL    HW295245   5.706   8.392  11.351  1.0864  1.7951 -1.2689
30103SOL     OW95246   1.698   0.599  11.337 -0.5702 -0.1106  0.3164
30103SOL    HW195247   1.741   0.577  11.254 -1.8027 -0.3471 -0.2751
30103SOL    HW295248   1.680   0.515  11.378  0.4008  0.0171  1.0349
30104SOL     OW95249   7.170   9.686   4.803 -0.1470  0.2400  0.0861
30104SOL    HW195250   7.151   9.734   4.723 -0.7671 -0.1980 -0.0346
30104SOL    HW295251   7.207   9.751   4.863  0.7523  0.4846 -0.7027
30105SOL     OW95252   0.233  10.692   9.958 -0.3321  0.1955  0.0843
30105SOL    HW195253   0.207  10.610   9.915  1.0413 -1.4150  2.1212
30105SOL    HW295254   0.171  10.702  10.030 -0.3421  0.8543 -0.0109
30106SOL     OW95255   0.387   5.821   5.997  0.2669  0.0502  0.2154
30106SOL    HW195256   0.348   5.840   5.912 -0.1059  1.7882  0.7545
30106SOL    HW295257   0.319   5.773   6.044 -0.4466  1.2263  0.4012
30107SOL     OW95258   9.012   8.095   7.653  0.6734  0.2380 -0.0462
30107SOL    HW195259   9.044   8.180   7.622  0.5912 -0.3421 -1.8604
30107SOL    HW295260   9.057   8.031   7.598  0.4470 -0.8866  1.0402
30108SOL     OW95261   5.380  10.929   8.416 -0.2831 -0.1722 -0.5112
30108SOL    HW195262   5.397  10.900   8.505  0.2779 -1.7939 -1.1054
30108SOL    HW295263   5.467  10.949   8.380 -0.4277 -0.2460 -0.9113
30109SOL     OW95264  11.550   6.677   6.626 -0.1226 -0.0494 -0.0953
30109SOL    HW195265  11.609   6.742   6.663  0.1495  1.1938 -2.4869
30109SOL    HW295266  11.530   6.618   6.698  0.6654  1.9358  1.8504
30110SOL     OW95267   6.372   3.417   6.228 -0.4055  0.0052  0.4649
30110SOL    HW195268   6.359   3.396   6.135 -0.0941  2.7101 -0.2956
30110SOL    HW295269   6.326   3.348   6.275  1.0433 -2.5838 -1.6046
30111SOL     OW95270   0.509   4.053   8.679  0.5242  0.0379  0.5412
30111SOL    HW195271   0.524   4.091   8.593 -0.3588  1.3823  0.9526
30111SOL    HW295272   0.561   4.107   8.739 -0.2332  0.2060  1.0595
30112SOL     OW95273   6.045   8.362   9.272  0.3038 -0.3154  0.1306
30112SOL    HW195274   6.048   8.415   9.351  1.0394  1.1199 -0.8309
30112SOL    HW295275   5.972   8.301   9.287  0.3458  0.0206  1.8357
30113SOL     OW95276   0.671  11.114  10.369  0.0613 -0.5140  0.1365
30113SOL    HW195277   0.716  11.139  10.450 -2.2053  1.2329  0.9753
30113SOL    HW295278   0.643  11.024  10.384  1.0526 -0.7546  0.6197
30114SOL     OW95279   6.723   0.334   0.177  0.1021  0.7868 -0.6696
30114SOL    HW195280   6.632   0.360   0.161  0.2364  1.7156  0.0387
30114SOL    HW295281   6.716   0.249   0.220 -0.5103  1.5641  0.8355
30115SOL     OW95282   8.368   0.171   2.765  0.0420  0.3273 -0.0190
30115SOL    HW195283   8.377   0.089   2.715  1.4743  0.2951  0.2594
30115SOL    HW295284   8.282   0.204   2.740  0.0535 -0.5106 -1.2827
30116SOL     OW95285   3.469   2.470   8.359  0.0747 -0.1723 -0.3417
30116SOL    HW195286   3.407   2.525   8.310 -0.9343 -0.2869  0.7495
30116SOL    HW295287   3.493   2.524   8.435  0.6945 -0.4478 -0.3392
30117SOL     OW95288   6.220   5.666  10.095 -0.0498  0.6949  0.3741
30117SOL    HW195289   6.235   5.595  10.157 -0.2638  1.1520  0.9563
30117SOL    HW295290   6.139   5.641  10.050  1.7242 -1.2471 -2.0383
30118SOL     OW95291   4.522   1.357  10.600 -0.1428 -0.4293 -0.4164
30118SOL    HW195292   4.565   1.430  10.555 -1.5790  0.2784 -0.6943
30118SOL    HW295293   4.594   1.300  10.627  0.9215  0.4380 -1.3247
30119SOL     OW95294   2.029   8.329   7.729 -0.2707 -0.3995 -0.0040
30119SOL    HW195295   2.004   8.280   7.650 -2.2075 -0.6335  0.7048
30119SOL    HW295296   2.082   8.268   7.780 -1.8169 -1.4438  0.4016
30120SOL     OW95297   9.367   6.081   9.463  0.6524  0.2907 -0.0588
30120SOL    HW195298   9.420   6.023   9.408  1.3059 -0.0759  0.9313
30120SOL    HW295299   9.326   6.023   9.527  0.6556  0.8138  0.4259
30121SOL     OW95300  10.916   7.790   8.052 -0.5210 -0.0368  0.4249
30121SOL    HW195301  10.879   7.715   8.099  2.3285 -1.6835  0.3067
30121SOL    HW295302  10.865   7.795   7.971 -1.1110 -1.5506  0.6746
30122SOL     OW95303   0.545   7.608   3.114  0.1140  0.5557 -0.4816
30122SOL    HW195304   0.507   7.669   3.177 -1.3108 -1.2721  0.5448
30122SOL    HW295305   0.533   7.650   3.029 -0.6682  1.7559  0.1875
30123SOL     OW95306   7.959   5.417  10.180  0.0276 -0.8778 -0.0342
30123SOL    HW195307   7.919   5.330  10.183  2.8466 -2.3730 -1.3130
30123SOL    HW295308   8.048   5.403  10.211  0.6477  1.5188 -0.5178
30124SOL     OW95309   4.044   4.995   7.942  0.2011  0.0418  0.1771
30124SOL    HW195310   4.123   5.021   7.989 -0.5667  1.3602  0.7930
30124SOL    HW295311   3.990   4.952   8.009  1.1091 -2.5818 -0.6410
30125SOL     OW95312  11.007   9.932  10.255  0.3014  0.1677  0.0494
30125SOL    HW195313  10.988   9.847  10.214 -0.4556  0.2433  0.2309
30125SOL    HW295314  10.937   9.990  10.224  1.7842  1.2182 -1.4982
30126SOL     OW95315   2.478   0.622  11.616 -0.1572 -0.5434 -0.4253
30126SOL    HW195316   2.553   0.567  11.640 -0.0352 -0.3888 -0.4491
30126SOL    HW295317   2.404   0.582  11.662  0.3923  0.8827  1.9094
30127SOL     OW95318  10.966  11.466   0.744  0.1855 -0.0398  0.5393
30127SOL    HW195319  10.977  11.401   0.675 -1.8373 -2.5780  2.3814
30127SOL    HW295320  11.055  11.495   0.764  0.8242  1.3581 -3.4266
30128SOL     OW95321   3.800   0.641   5.149 -0.4271 -0.0043 -0.0076
30128SOL    HW195322   3.827   0.731   5.168  2.3052 -0.4564 -1.3882
30128SOL    HW295323   3.814   0.595   5.232  0.8730  0.2946 -0.0348
30129SOL     OW95324   3.253  10.598   1.958  0.5052  0.3195 -0.0271
30129SOL    HW195325   3.159  10.614   1.950  0.1936 -1.8819 -1.7743
30129SOL    HW295326   3.292  10.643   1.882  0.7966  0.7331  0.3635
30130SOL     OW95327  11.320   9.699   9.656  0.3543 -0.5019 -0.2458
30130SOL    HW195328  11.353   9.725   9.742 -0.1124 -1.8683  0.3800
30130SOL    HW295329  11.226   9.686   9.669  0.3050 -0.8807 -0.9091
30131SOL     OW95330   1.576   7.801   6.555 -0.0903  0.0139 -0.3476
30131SOL    HW195331   1.568   7.727   6.495  0.4665 -0.7616  0.5137
30131SOL    HW295332   1.621   7.766   6.631 -2.1663  0.5513  1.2293
30132SOL     OW95333   8.742   8.230   9.216 -0.0656 -0.4299 -0.2836
30132SOL    HW195334   8.770   8.248   9.306 -2.3620  3.1487 -0.1418
30132SOL    HW295335   8.818   8.255   9.162  0.6806 -0.8808  0.5288
30133SOL     OW95336  10.396   3.714   0.916 -0.2758 -0.4561 -0.4591
30133SOL    HW195337  10.486   3.717   0.948  0.4127  0.2408 -2.3208
30133SOL    HW295338  10.356   3.795   0.949 -0.5020 -1.1694  1.0739
30134SOL     OW95339   7.307   5.706  10.159 -0.1964 -0.4655 -0.0124
30134SOL    HW195340   7.394   5.697  10.120 -0.0150 -0.5788  0.4174
30134SOL    HW295341   7.323   5.728  10.250 -0.6229 -0.1460 -0.0095
30135SOL     OW95342   0.293   7.040   1.068  0.6092 -0.0673  0.5175
30135SOL    HW195343   0.248   7.062   1.149  1.6276  0.2493  1.0182
30135SOL    HW295344   0.365   7.103   1.063  0.0096  0.5257 -1.1129
30136SOL     OW95345  11.200   7.521   7.027  0.0127  0.6430 -0.3551
30136SOL    HW195346  11.168   7.462   6.959  1.3441 -0.7823  0.2045
30136SOL    HW295347  11.267   7.574   6.983  0.2112  0.3708 -0.3811
30137SOL     OW95348   8.344   9.734   2.788  0.3539  0.0171 -0.6800
30137SOL    HW195349   8.338   9.821   2.750  0.2255 -0.0350 -0.7797
30137SOL    HW295350   8.278   9.735   2.858  0.0652 -0.1329 -0.9462
30138SOL     OW95351   6.035  11.296   2.560 -0.1467  0.0379 -0.3338
30138SOL    HW195352   6.072  11.239   2.492 -0.5782 -1.3707  0.5942
30138SOL    HW295353   6.085  11.377   2.551  0.3127 -0.3687 -1.8452
30139SOL     OW95354   8.519   7.131  10.953  0.7176  0.0444  0.1910
30139SOL    HW195355   8.565   7.079  11.018  0.5672 -0.3196  0.0089
30139SOL    HW295356   8.564   7.113  10.870  0.4303 -0.0950  0.0622
30140SOL     OW95357   2.047   0.923   8.825 -0.0575  0.1727  0.1713
30140SOL    HW195358   1.994   0.961   8.895  0.9083  0.4712  0.7584
30140SOL    HW295359   2.018   0.967   8.746  0.5501  1.6274  0.7355
30141SOL     OW95360   0.947   6.782   2.922  1.0180 -0.2714 -0.1653
30141SOL    HW195361   0.952   6.692   2.890  0.2297 -0.3544 -0.0626
30141SOL    HW295362   0.875   6.782   2.985 -0.2463  0.8435 -1.5433
30142SOL     OW95363   9.369   6.391  11.491 -0.7881 -0.0592 -0.2922
30142SOL    HW195364   9.289   6.378  11.541 -0.0900  0.4452  0.9990
30142SOL    HW295365   9.432   6.428  11.554  0.1476  0.5276 -1.5081
30143SOL     OW95366   0.481   7.804   1.412  0.4062  0.1902 -0.0839
30143SOL    HW195367   0.400   7.781   1.368  0.3165  0.9753 -0.3357
30143SOL    HW295368   0.467   7.778   1.503  0.9700 -2.4302 -0.6419
30144SOL     OW95369   0.433   9.408  11.453  0.2905  0.1734  0.4588
30144SOL    HW195370   0.485   9.334  11.486 -0.0505  0.4019  1.5600
30144SOL    HW295371   0.376   9.431  11.526  0.9453  2.0317  0.4345
30145SOL     OW95372  10.996   5.756   3.288 -0.6601  0.3541  0.1655
30145SOL    HW195373  10.952   5.829   3.243 -1.9198 -1.7782 -2.3645
30145SOL    HW295374  10.939   5.734   3.361  0.4113  2.6460  1.8002
30146SOL     OW95375   3.509   6.763  11.182 -0.2839 -0.6531  0.7352
30146SOL    HW195376   3.471   6.804  11.105  0.5673  0.1117  0.7096
30146SOL    HW295377   3.510   6.831  11.249  0.1797 -0.9250  1.0195
30147SOL     OW95378  10.697   5.305   6.795  0.6525 -0.1227 -0.4145
30147SOL    HW195379  10.667   5.222   6.757 -0.7354  0.3396 -0.3842
30147SOL    HW295380  10.769   5.332   6.739  2.2064 -2.1198  0.4977
30148SOL     OW95381   8.279   8.090   3.987 -0.7705 -0.4454 -0.4077
30148SOL    HW195382   8.210   8.135   4.036  0.6403  1.5003 -0.0988
30148SOL    HW295383   8.233   8.051   3.913 -2.0244  2.2820 -1.2133
30149SOL     OW95384   5.181   8.943   8.540 -0.1246  0.2154  0.2315
30149SOL    HW195385   5.201   8.883   8.612 -1.5579 -0.6404 -0.0500
30149SOL    HW295386   5.109   8.997   8.572  0.9941  1.6992  0.3981
30150SOL     OW95387  10.070   3.620   5.094  0.2690  0.2411 -0.3749
30150SOL    HW195388  10.059   3.581   5.180 -1.6186  0.1097 -0.6303
30150SOL    HW295389  10.087   3.546   5.036 -1.2100 -0.0245 -0.5178
30151SOL     OW95390   0.431   0.783   4.362 -0.2041 -0.0680  0.1011
30151SOL    HW195391   0.470   0.818   4.442  0.2230  0.3408 -0.2847
30151SOL    HW295392   0.505   0.747   4.313 -0.4550 -0.2412 -0.1556
30152SOL     OW95393   5.197   9.005   8.867  0.3599 -0.0631  0.6619
30152SOL    HW195394   5.224   9.076   8.808 -0.3705  0.5852  1.0860
30152SOL    HW295395   5.103   9.019   8.880  0.5009 -0.2044  1.9759
30153SOL     OW95396  10.301   1.399   2.633  0.3822 -0.0679 -0.0963
30153SOL    HW195397  10.351   1.445   2.566  0.4680  0.9726  0.6705
30153SOL    HW295398  10.236   1.463   2.664 -0.4014 -0.8952  0.0215
30154SOL     OW95399   9.185   3.313   2.795  0.3761 -0.0358  0.0099
30154SOL    HW195400   9.119   3.371   2.757  0.7057  0.3591  0.0300
30154SOL    HW295401   9.143   3.277   2.873  0.3048  0.4866  0.2183
30155SOL     OW95402   7.241   3.956   4.092  0.4770  0.4321  0.1675
30155SOL    HW195403   7.179   3.896   4.050  0.6353  2.0473 -2.6547
30155SOL    HW295404   7.186   4.020   4.137  0.0509  1.2443 -1.4318
30156SOL     OW95405   7.448   3.989   4.577  0.7097  0.3886  0.4409
30156SOL    HW195406   7.377   3.945   4.531  0.6898  0.6974  0.1675
30156SOL    HW295407   7.405   4.041   4.645  0.7369 -0.0459  0.7962
30157SOL     OW95408  11.610   6.376   1.205  0.4710 -0.3303 -0.7507
30157SOL    HW195409  11.689   6.420   1.174  0.1090  0.7592 -0.2033
30157SOL    HW295410  11.580   6.324   1.131  0.8770  0.4209 -1.4526
30158SOL     OW95411   9.597  11.472  10.661 -0.0699 -0.1661 -0.2800
30158SOL    HW195412   9.617  11.534  10.591 -0.4275 -0.2468 -0.4599
30158SOL    HW295413   9.669  11.409  10.659  0.3942  0.3531  0.0340
30159SOL     OW95414   6.538   3.193  11.477  0.0481 -0.4364  0.3135
30159SOL    HW195415   6.608   3.146  11.433  0.0210 -0.2731  0.0978
30159SOL    HW295416   6.515   3.137  11.552 -0.0229 -0.7930  0.0263
30160SOL     OW95417   3.029   5.866   2.469  0.2323 -0.2876 -0.2513
30160SOL    HW195418   2.958   5.892   2.411  0.4799  0.2107 -0.3383
30160SOL    HW295419   2.995   5.878   2.557  0.1537 -0.2100 -0.2928
30161SOL     OW95420   0.314   0.825   3.663 -0.3453  0.0452  0.3433
30161SOL    HW195421   0.376   0.856   3.597 -1.6915  1.1555 -0.4376
30161SOL    HW295422   0.344   0.867   3.744 -0.4862  1.1622 -0.1652
30162SOL     OW95423   0.425  11.442   1.286  0.7350  0.0763  0.1381
30162SOL    HW195424   0.519  11.422   1.278  0.7710  0.8249 -1.8993
30162SOL    HW295425   0.398  11.465   1.197 -1.3576  0.0670  0.7246
30163SOL     OW95426   7.187   9.241   3.889 -0.0784 -0.2093 -0.8152
30163SOL    HW195427   7.262   9.294   3.917  0.7842 -2.3451  1.2470
30163SOL    HW295428   7.116   9.305   3.877  0.9333  1.4609  1.3884
30164SOL     OW95429   0.570   6.694   4.679  0.1597  0.3235  0.2208
30164SOL    HW195430   0.607   6.708   4.767 -0.2796 -0.1914  0.4988
30164SOL    HW295431   0.497   6.634   4.694  1.4836 -1.6528 -0.7750
30165SOL     OW95432   1.356   0.844   8.762  0.0315  0.5803 -0.2370
30165SOL    HW195433   1.407   0.845   8.681  0.1122  0.4492 -0.1878
30165SOL    HW295434   1.309   0.928   8.761  0.4132  0.8018 -0.1758
30166SOL     OW95435   6.340   3.496   5.666  0.2385 -0.2359 -0.5483
30166SOL    HW195436   6.328   3.511   5.572 -0.4604 -2.4736 -0.8898
30166SOL    HW295437   6.251   3.480   5.699  0.4333  0.8894  0.6009
30167SOL     OW95438  11.311   5.799   1.131 -0.0200 -0.6358  0.4732
30167SOL    HW195439  11.398   5.759   1.140  0.5093  0.3864  0.0950
30167SOL    HW295440  11.318   5.881   1.179 -0.5442 -0.2009 -0.1792
30168SOL     OW95441  11.018   0.723   2.082  0.1218 -0.2529 -0.2797
30168SOL    HW195442  10.983   0.783   2.016 -0.8779 -1.8369 -1.2301
30168SOL    HW295443  11.062   0.655   2.032  0.6785 -0.6795  0.7569
30169SOL     OW95444   0.716  11.455   8.916 -0.2758  0.2553 -0.3725
30169SOL    HW195445   0.747  11.456   9.007 -2.0883 -0.7847  0.3131
30169SOL    HW295446   0.788  11.493   8.866  1.2714 -0.2369  1.3455
30170SOL     OW95447  11.642  11.261  11.540  0.0696  0.4525 -0.3264
30170SOL    HW195448  11.725  11.301  11.564  0.4745 -0.5223 -0.0423
30170SOL    HW295449  11.630  11.191  11.605 -0.4801 -0.0460 -0.9534
30171SOL     OW95450   7.430   1.599   8.690 -0.0345  0.2087 -0.5882
30171SOL    HW195451   7.390   1.514   8.669 -0.4414  0.1810  0.2636
30171SOL    HW295452   7.468   1.628   8.608 -0.2535 -0.6115 -0.9920
30172SOL     OW95453   3.685   4.560   9.400 -0.7518 -0.1791  0.1015
30172SOL    HW195454   3.597   4.554   9.363 -1.1297  0.5258  0.8317
30172SOL    HW295455   3.727   4.477   9.378 -2.3446 -1.4674  1.5820
30173SOL     OW95456   9.163   2.501  11.166 -0.5241 -0.1523 -0.4867
30173SOL    HW195457   9.117   2.556  11.103 -0.0775 -0.9165 -1.5163
30173SOL    HW295458   9.220   2.561  11.213 -0.1747  0.3097 -1.4616
30174SOL     OW95459  10.992  10.972   0.144 -0.1263  0.3550  0.0277
30174SOL    HW195460  10.974  11.061   0.114  2.4600  0.8085 -0.4295
30174SOL    HW295461  11.007  10.922   0.064  3.2647  0.7397  0.2744
30175SOL     OW95462   1.081   8.620   5.861 -0.2724  0.5113  0.0941
30175SOL    HW195463   1.125   8.703   5.846 -0.4291  0.6055  0.1492
30175SOL    HW295464   1.142   8.569   5.914 -0.0166  0.4460 -0.2590
30176SOL     OW95465   2.396   8.068   9.749 -0.6437  0.8337 -0.5645
30176SOL    HW195466   2.447   8.060   9.830 -1.9982  0.8700  0.3309
30176SOL    HW295467   2.311   8.029   9.771 -0.6776 -0.1957 -2.3329
30177SOL     OW95468   4.629   0.497   0.660  0.2986  0.2927 -0.7011
30177SOL    HW195469   4.630   0.589   0.684 -0.1991  0.1242  0.0184
30177SOL    HW295470   4.720   0.469   0.667  0.5820  0.9239 -1.7514
30178SOL     OW95471   7.866   5.411   7.430 -0.2014  0.1512  0.6624
30178SOL    HW195472   7.788   5.466   7.418 -1.0253 -0.9185  0.9496
30178SOL    HW295473   7.930   5.447   7.368 -1.6058 -0.1955 -1.1040
30179SOL     OW95474  10.903   2.672   8.969 -0.0880 -0.0558 -0.2909
30179SOL    HW195475  10.889   2.765   8.953 -1.5172 -0.0655  0.7598
30179SOL    HW295476  10.835   2.628   8.919 -0.1009 -0.4649  0.0766
30180SOL     OW95477   4.791   5.197   0.660 -0.7240 -0.6054  0.4863
30180SOL    HW195478   4.886   5.196   0.645 -0.1410 -0.6292  3.6654
30180SOL    HW295479   4.762   5.279   0.618  1.0130  0.3377  1.0053
30181SOL     OW95480   5.674   8.100   8.613 -0.2715 -0.4049  0.5775
30181SOL    HW195481   5.713   8.054   8.687 -0.0527 -0.1701  0.6114
30181SOL    HW295482   5.711   8.059   8.536 -0.9146 -1.0125  0.5841
30182SOL     OW95483  10.218   0.388   9.596 -0.1371 -0.1031  0.7357
30182SOL    HW195484  10.129   0.363   9.570  0.0430  0.1319 -0.1655
30182SOL    HW295485  10.255   0.428   9.517  0.7072 -0.0340  1.1563
30183SOL     OW95486   1.246   5.839   8.688  0.1374  0.2062 -0.1076
30183SOL    HW195487   1.260   5.857   8.781 -1.6009  1.4566 -0.0315
30183SOL    HW295488   1.214   5.749   8.686 -0.7923  0.5068  0.6246
30184SOL     OW95489  10.616   5.931   4.044 -0.1734  0.2364 -0.0007
30184SOL    HW195490  10.530   5.895   4.067 -0.4909  0.6110 -0.5648
30184SOL    HW295491  10.678   5.861   4.064 -0.4997  0.2908  1.3048
30185SOL     OW95492   7.220   2.010   4.974 -0.0160 -0.1026 -0.0284
30185SOL    HW195493   7.188   1.939   4.918 -1.4383  0.2986  0.2263
30185SOL    HW295494   7.172   2.087   4.944 -0.5874  0.1837  1.5191
30186SOL     OW95495   5.732   7.866   2.123 -0.3026  0.1639  0.3503
30186SOL    HW195496   5.785   7.846   2.200  0.5478 -0.4651 -0.3690
30186SOL    HW295497   5.660   7.803   2.126 -0.8659  0.8342  1.1843
30187SOL     OW95498   3.737   2.109   4.201 -0.5653 -0.3792 -0.5359
30187SOL    HW195499   3.700   2.181   4.150  0.0597 -0.1310 -0.6478
30187SOL    HW295500   3.777   2.052   4.136 -0.5867 -0.5513 -0.3990
30188SOL     OW95501  10.686   3.114   6.656  0.9741 -0.3320  0.4529
30188SOL    HW195502  10.647   3.187   6.608  0.0456 -1.2548 -0.2502
30188SOL    HW295503  10.651   3.121   6.745  0.4305 -0.2582  0.2316
30189SOL     OW95504   6.795   9.045   2.832 -0.6364 -0.3669 -0.3436
30189SOL    HW195505   6.794   9.105   2.758 -3.0629  0.6615  0.4096
30189SOL    HW295506   6.762   8.963   2.796  0.3272 -0.5399 -0.8540
30190SOL     OW95507   8.486  11.431   8.358 -0.2379  0.2088  0.1589
30190SOL    HW195508   8.551  11.372   8.397  1.4179  1.4078 -0.6619
30190SOL    HW295509   8.416  11.372   8.328  0.9528 -1.2584  0.1288
30191SOL     OW95510   2.481   1.357  11.238 -0.1184 -0.8282 -0.0783
30191SOL    HW195511   2.457   1.283  11.182 -1.1558 -0.3425 -0.3081
30191SOL    HW295512   2.489   1.431  11.178 -1.8646 -0.1583  0.4355
30192SOL     OW95513  10.215   2.405   3.404  0.2944  0.7043 -0.0712
30192SOL    HW195514  10.196   2.335   3.467  1.0183 -1.1726 -1.8249
30192SOL    HW295515  10.310   2.416   3.408  0.0815  2.5893  1.1167
30193SOL     OW95516   5.878  11.117  10.927  0.0198  0.4452  0.1373
30193SOL    HW195517   5.821  11.041  10.938 -2.0030  2.0142  1.5910
30193SOL    HW295518   5.869  11.142  10.835 -1.4341  0.4241  0.2455
30194SOL     OW95519   7.709   2.727   1.378 -0.0329 -0.0392  0.3435
30194SOL    HW195520   7.630   2.690   1.417  0.1483 -0.0203  0.7299
30194SOL    HW295521   7.679   2.805   1.332 -0.2298  0.0040  0.5450
30195SOL     OW95522   8.492  11.263   3.569  0.0191  0.2409 -0.1759
30195SOL    HW195523   8.580  11.282   3.602  0.4120  1.1106 -1.6118
30195SOL    HW295524   8.496  11.285   3.475 -1.0685 -1.9817 -0.8096
30196SOL     OW95525   5.210   3.442   5.684  0.1015 -0.4091  0.2635
30196SOL    HW195526   5.118   3.427   5.660 -0.5433  3.0291  0.1076
30196SOL    HW295527   5.254   3.457   5.600 -0.3267  2.8255  0.4922
30197SOL     OW95528   4.909   6.212  10.605  0.3361 -0.2331  0.3067
30197SOL    HW195529   4.965   6.135  10.595 -0.7499 -0.8982 -0.9966
30197SOL    HW295530   4.889   6.239  10.515 -1.2115  0.1242  0.7215
30198SOL     OW95531   3.972   6.989   2.455 -0.4524 -0.3320 -0.1620
30198SOL    HW195532   3.921   6.910   2.433  1.1205 -1.4437  0.0437
30198SOL    HW295533   4.001   7.023   2.371 -1.1680  0.0824 -0.2540
30199SOL     OW95534   5.619   6.096   9.267 -0.3974  0.1133 -0.1569
30199SOL    HW195535   5.590   6.080   9.177 -0.2068 -0.0439 -0.1905
30199SOL    HW295536   5.547   6.144   9.307 -0.8029 -0.4573 -0.1818
30200SOL     OW95537  11.314   1.621  10.594 -0.5193 -0.5530 -0.4904
30200SOL    HW195538  11.365   1.651  10.518 -1.8932  1.1785 -0.8080
30200SOL    HW295539  11.226   1.608  10.560 -1.1160  0.0599  0.7492
30201SOL     OW95540   6.546   7.836   8.203  0.2044 -0.3156  0.0206
30201SOL    HW195541   6.584   7.782   8.133  1.1778  0.3646  0.0091
30201SOL    HW295542   6.532   7.921   8.163 -1.5024 -0.5738 -0.0114
30202SOL     OW95543   9.140   4.819   2.384 -0.0632 -0.4847  0.8619
30202SOL    HW195544   9.145   4.780   2.297  0.8216 -0.8901  1.0833
30202SOL    HW295545   9.057   4.788   2.420  0.5142 -1.9910  0.9452
30203SOL     OW95546   5.891   4.847  11.399 -0.0039  0.1844 -0.2224
30203SOL    HW195547   5.816   4.876  11.347 -0.1407  0.1996 -0.0199
30203SOL    HW295548   5.853   4.824  11.484  0.0833 -0.7195 -0.4196
30204SOL     OW95549   3.391   4.478   1.981 -0.7185 -0.5422  0.5479
30204SOL    HW195550   3.360   4.455   2.068 -1.7366 -1.2976 -0.0026
30204SOL    HW295551   3.457   4.413   1.960  0.6577  0.5344  1.3482
30205SOL     OW95552   9.996   8.358  11.649 -0.1275 -0.2114  0.2198
30205SOL    HW195553   9.993   8.265  11.628 -1.1804 -0.0211 -0.5425
30205SOL    HW295554   9.909   8.378  11.685 -0.1491  0.6132 -0.2599
30206SOL     OW95555  10.823  11.502  11.136  0.3069 -0.0912 -0.2527
30206SOL    HW195556  10.844  11.576  11.193  2.0300  0.3772 -1.4081
30206SOL    HW295557  10.877  11.516  11.058 -0.1165 -2.0140 -0.9470
30207SOL     OW95558  10.646   4.321   1.523 -0.6678 -0.3586 -1.0682
30207SOL    HW195559  10.615   4.410   1.503 -2.4727  0.0156  2.6082
30207SOL    HW295560  10.737   4.333   1.550 -1.7094  1.0910  2.4356
30208SOL     OW95561   3.216   0.884   5.582 -0.1522  0.4271  0.0141
30208SOL    HW195562   3.220   0.791   5.562 -0.4999  0.4349 -0.0969
30208SOL    HW295563   3.274   0.895   5.657 -1.8709 -0.2618  1.5030
30209SOL     OW95564   7.684   2.338   0.735  0.1621  0.4196 -0.5149
30209SOL    HW195565   7.719   2.422   0.766  0.1786  0.0159  0.6288
30209SOL    HW295566   7.761   2.281   0.730  0.1410  0.4508 -1.2193
30210SOL     OW95567  10.958   1.318   4.400  0.2344 -0.4361  0.3378
30210SOL    HW195568  11.016   1.285   4.332 -0.7847 -1.8411  0.1071
30210SOL    HW295569  10.875   1.335   4.355 -0.3149 -0.9503  1.1391
30211SOL     OW95570   2.656   2.994   7.857 -0.0303 -0.0140 -0.3589
30211SOL    HW195571   2.686   2.959   7.941  1.7801 -1.0420 -1.3867
30211SOL    HW295572   2.596   2.927   7.823 -0.8107  0.4301  0.1156
30212SOL     OW95573   2.768   2.509   0.348 -0.4138  0.5725  0.0130
30212SOL    HW195574   2.794   2.418   0.336  0.7127  0.6372  1.6057
30212SOL    HW295575   2.793   2.529   0.438 -4.0707  1.3373  1.0373
30213SOL     OW95576   5.080   6.612   9.999 -0.4394  0.0601 -0.1608
30213SOL    HW195577   5.141   6.685   9.990 -0.8160  0.3653 -0.2783
30213SOL    HW295578   5.121   6.540   9.952  0.1010  0.0937  0.2555
30214SOL     OW95579   6.832   4.926   3.518  0.3468  0.1102 -0.2231
30214SOL    HW195580   6.891   5.001   3.530  0.3660  0.3347 -1.5661
30214SOL    HW295581   6.820   4.920   3.424 -2.1444  0.3198  0.0275
30215SOL     OW95582   4.676   3.120   3.862  0.1831  0.0561 -0.0429
30215SOL    HW195583   4.737   3.102   3.790 -0.4590  0.2635 -0.6443
30215SOL    HW295584   4.733   3.133   3.938  0.9894  1.6154 -0.8562
30216SOL     OW95585   9.968   3.047   7.488  0.5178  0.3567  0.0933
30216SOL    HW195586   9.946   2.959   7.457  1.0661  0.4167 -0.5076
30216SOL    HW295587  10.064   3.051   7.481  0.3778  1.6439 -1.6836
30217SOL     OW95588   4.597   3.699   6.243 -0.2455 -0.2606 -0.2859
30217SOL    HW195589   4.652   3.771   6.211  0.6335 -0.7836  0.0029
30217SOL    HW295590   4.615   3.696   6.337 -1.1278 -0.1477 -0.1122
30218SOL     OW95591   7.530   1.413   4.840 -0.3364  0.0243 -0.4066
30218SOL    HW195592   7.530   1.373   4.753  1.4735 -0.2573 -0.3139
30218SOL    HW295593   7.610   1.380   4.881  1.7724  4.2693 -0.5935
30219SOL     OW95594   1.746   7.971   9.485  0.2182  0.1249 -0.4801
30219SOL    HW195595   1.737   7.930   9.399 -0.5312 -0.0736 -0.3135
30219SOL    HW295596   1.840   7.990   9.493  0.7562 -2.2278 -0.2817
30220SOL     OW95597   3.536   0.095   5.915 -0.8825 -0.7931  0.1549
30220SOL    HW195598   3.506   0.184   5.932 -0.5457 -0.1561 -2.1954
30220SOL    HW295599   3.488   0.041   5.977 -3.8397  0.6408 -0.7171
30221SOL     OW95600   0.026   8.848   4.601 -0.0201 -0.0904 -0.4594
30221SOL    HW195601   0.121   8.851   4.587 -0.1574  1.6331 -1.3340
30221SOL    HW295602   0.010   8.764   4.642  1.7654 -0.8983 -1.3224
30222SOL     OW95603   8.596   7.919   9.878  0.1641 -0.0964 -0.0752
30222SOL    HW195604   8.672   7.870   9.845  1.2336  1.9542 -0.8147
30222SOL    HW295605   8.585   7.991   9.816 -1.8437  0.1829  0.5431
30223SOL     OW95606   0.580   6.725   6.146 -0.6748  0.4440  0.0990
30223SOL    HW195607   0.625   6.666   6.086 -0.3821  0.2779  0.4822
30223SOL    HW295608   0.575   6.808   6.097 -1.0000  0.1371 -0.3965
30224SOL     OW95609   6.559   6.446   5.879 -0.9035  0.5023 -0.5204
30224SOL    HW195610   6.506   6.398   5.943 -1.0251 -1.5039 -2.0210
30224SOL    HW295611   6.498   6.465   5.808 -0.0538 -0.2458 -1.4751
30225SOL     OW95612   4.933   1.776   2.447 -0.2987  0.5582  0.2697
30225SOL    HW195613   4.898   1.711   2.507 -1.2007  0.3967 -0.4017
30225SOL    HW295614   4.973   1.724   2.376  0.6608  0.7434  0.6638
30226SOL     OW95615   7.747   5.816   5.649  0.3695 -0.7500  0.2604
30226SOL    HW195616   7.707   5.824   5.736 -0.0578 -0.1621  0.0133
30226SOL    HW295617   7.841   5.813   5.667  0.2437 -1.8627  0.8236
30227SOL     OW95618   1.005   3.450   8.605 -0.8748 -0.0117 -0.2112
30227SOL    HW195619   0.937   3.452   8.672  1.0772  0.0875  1.8995
30227SOL    HW295620   1.009   3.358   8.577  0.3598 -0.7423  2.1530
30228SOL     OW95621   5.562   0.306   8.209 -0.0888  0.2537 -0.0062
30228SOL    HW195622   5.543   0.336   8.298 -0.7463 -1.2540  0.3892
30228SOL    HW295623   5.540   0.213   8.210 -0.9873  0.4111 -2.0018
30229SOL     OW95624   6.753   5.253   5.195  0.8776  0.1407 -0.2068
30229SOL    HW195625   6.698   5.205   5.133  1.7162  1.5296 -2.0894
30229SOL    HW295626   6.694   5.273   5.268 -0.1126 -1.5676 -0.4693
30230SOL     OW95627  10.293   5.041   2.069 -0.1305 -0.6843 -0.3275
30230SOL    HW195628  10.372   5.060   2.120 -0.5101  1.5642 -0.4800
30230SOL    HW295629  10.318   4.966   2.015  0.9105 -1.9037  1.6973
30231SOL     OW95630   2.787   6.297   5.009  0.3217  0.1089  0.0694
30231SOL    HW195631   2.762   6.359   4.940  0.3881  1.8181  1.5190
30231SOL    HW295632   2.806   6.352   5.085 -0.5956 -1.7517  1.7361
30232SOL     OW95633   0.094   3.679   5.315 -0.5402  0.5257 -0.1171
30232SOL    HW195634   0.186   3.655   5.310 -0.4346  0.6052  1.1466
30232SOL    HW295635   0.094   3.774   5.317 -0.6804  0.5362 -0.5213
30233SOL     OW95636   4.083  11.072   8.426  0.1916  0.0106 -0.2256
30233SOL    HW195637   4.099  10.989   8.380 -0.4120 -0.4808  0.4297
30233SOL    HW295638   4.074  11.136   8.356  2.2458 -0.1532 -0.7262
30234SOL     OW95639   3.713   2.832   2.948  0.1360  0.0876 -0.3216
30234SOL    HW195640   3.756   2.750   2.970  1.0517  0.7625  0.4330
30234SOL    HW295641   3.685   2.868   3.032 -0.4958  0.4356 -0.6705
30235SOL     OW95642   8.752   0.269   8.313  0.3464  0.6153  0.0569
30235SOL    HW195643   8.813   0.336   8.283  0.6426  0.1160 -0.4955
30235SOL    HW295644   8.732   0.292   8.404  1.4489  0.7210  0.2812
30236SOL     OW95645   1.504   2.996   8.166 -0.1139 -0.3990 -0.3854
30236SOL    HW195646   1.562   2.962   8.235 -0.5495 -0.2813  0.0435
30236SOL    HW295647   1.454   2.919   8.138 -0.6346 -0.2554  0.1262
30237SOL     OW95648  11.310   3.866   6.962 -0.0791 -0.1709  0.0862
30237SOL    HW195649  11.369   3.928   7.004  1.8658 -0.7487 -1.6483
30237SOL    HW295650  11.252   3.836   7.033  0.9027  1.3292  1.5838
30238SOL     OW95651  11.190  11.633   9.755  0.1182  0.1416  0.8045
30238SOL    HW195652  11.281  11.658   9.737 -0.6030  2.3308 -0.1035
30238SOL    HW295653  11.167  11.572   9.685  1.3253 -1.7291  1.9482
30239SOL     OW95654  11.079  11.618   9.132  0.4178  0.6942  0.3359
30239SOL    HW195655  11.118  11.532   9.120  1.1209  0.9416  0.7919
30239SOL    HW295656  10.992  11.611   9.093  0.7849  0.0293 -0.3728
30240SOL     OW95657   2.207   8.269   8.087  0.2613  0.1276  0.2284
30240SOL    HW195658   2.169   8.198   8.139 -0.4402  1.3306  1.3964
30240SOL    HW295659   2.193   8.242   7.996  0.9927 -1.7333  0.6115
30241SOL     OW95660   2.610   9.201   7.552  0.0281 -0.3680  0.0415
30241SOL    HW195661   2.666   9.191   7.474 -1.1836 -0.5764 -0.8242
30241SOL    HW295662   2.532   9.150   7.532  0.5404 -2.2239  2.2944
30242SOL     OW95663   0.389   3.214   4.364  0.4520  0.3236  0.0345
30242SOL    HW195664   0.314   3.212   4.304 -2.0610  0.1834  2.9347
30242SOL    HW295665   0.443   3.286   4.332  0.4580 -1.0655 -3.5779
30243SOL     OW95666   8.452   2.169   0.535 -0.1938 -0.2156  0.1651
30243SOL    HW195667   8.369   2.208   0.561  0.0284  1.4790 -1.4565
30243SOL    HW295668   8.446   2.158   0.440  1.4903  0.1757 -0.0332
30244SOL     OW95669   1.320   9.777   3.075  0.3991 -0.2019  0.0592
30244SOL    HW195670   1.314   9.681   3.079  0.0792 -0.1690  0.4027
30244SOL    HW295671   1.296   9.806   3.163  0.9940  0.1705  0.1001
30245SOL     OW95672   9.620   7.381   3.869  0.1690 -0.0973  0.0651
30245SOL    HW195673   9.622   7.402   3.776  0.8538 -0.3260  0.0211
30245SOL    HW295674   9.537   7.334   3.882 -1.2561  2.2844  0.1083
30246SOL     OW95675   3.151  11.298   5.729  0.1784 -0.5202 -0.0016
30246SOL    HW195676   3.063  11.325   5.703  0.0183  0.6450  1.6065
30246SOL    HW295677   3.209  11.344   5.668 -0.2646  0.0326 -0.0170
30247SOL     OW95678   6.667   5.180  10.529  0.6395 -0.0993  0.1802
30247SOL    HW195679   6.726   5.243  10.487 -1.9462  1.8108 -0.8332
30247SOL    HW295680   6.677   5.100  10.478  0.7290  0.8733 -1.3868
30248SOL     OW95681  11.446   0.219   0.349  0.3436  0.3882 -0.0845
30248SOL    HW195682  11.391   0.160   0.297  0.0437  0.4093  0.2017
30248SOL    HW295683  11.532   0.178   0.350 -0.3148 -1.1180  1.7591
30249SOL     OW95684   2.107  11.421   1.116 -0.0821 -0.4135 -0.0613
30249SOL    HW195685   2.051  11.426   1.039 -1.3081 -0.1447  0.8273
30249SOL    HW295686   2.196  11.420   1.080 -0.6008  0.2141 -1.4574
30250SOL     OW95687   1.720  10.361   7.433  0.2193 -0.1379  0.5124
30250SOL    HW195688   1.688  10.283   7.478 -0.6746  0.3310  0.7193
30250SOL    HW295689   1.744  10.331   7.345  0.2662 -0.7130  0.7209
30251SOL     OW95690   0.676   5.717   0.978 -0.1771  0.0882 -0.5100
30251SOL    HW195691   0.708   5.663   0.906  0.6572 -1.1712  0.7432
30251SOL    HW295692   0.727   5.688   1.054 -0.2667  2.1092  0.3897
30252SOL     OW95693   9.772   8.315  10.278 -0.3410  0.2906  0.1337
30252SOL    HW195694   9.739   8.293  10.191 -0.5821 -0.7099  0.4617
30252SOL    HW295695   9.775   8.231  10.324 -0.8446  0.8868  1.3051
30253SOL     OW95696  11.264   5.178   5.577  0.0632 -0.2000  0.0381
30253SOL    HW195697  11.185   5.157   5.526  0.7515 -0.5858 -0.9081
30253SOL    HW295698  11.319   5.099   5.570  1.6731  0.9778 -1.5808
30254SOL     OW95699   2.617   9.801   7.106  0.1572  0.0762 -0.0748
30254SOL    HW195700   2.701   9.756   7.099  0.8079  1.4875 -3.1264
30254SOL    HW295701   2.640   9.894   7.113 -1.1859  0.3347  1.5804
30255SOL     OW95702   3.879  10.962   8.667 -0.3191  0.1674  0.0822
30255SOL    HW195703   3.881  11.025   8.740 -4.9603 -0.5822  1.1528
30255SOL    HW295704   3.953  10.904   8.683  0.3049  1.5466  2.7340
30256SOL     OW95705   3.551   2.856   7.073 -0.0903  0.4111  0.0498
30256SOL    HW195706   3.476   2.818   7.118 -0.2329 -0.4814 -0.9080
30256SOL    HW295707   3.614   2.876   7.143 -0.3499 -0.8256  0.6601
30257SOL     OW95708   4.052  11.370   7.477  0.0076  0.4189 -0.2858
30257SOL    HW195709   4.080  11.460   7.493 -1.7433  0.8648  0.5806
30257SOL    HW295710   4.063  11.326   7.561 -2.2870  0.7723  0.2707
30258SOL     OW95711   9.345   3.630   7.774  0.2334  0.0488  0.1871
30258SOL    HW195712   9.267   3.682   7.751 -1.0310 -1.7429  0.1998
30258SOL    HW295713   9.327   3.600   7.863  0.9084 -0.4483  0.1567
30259SOL     OW95714   7.979  11.657  10.088  0.4128 -0.4705  0.1639
30259SOL    HW195715   7.973  11.617  10.001  1.6725  1.5275 -0.9268
30259SOL    HW295716   7.892  11.645  10.126  0.1267 -2.2866 -0.9270
30260SOL     OW95717   3.548   8.705  10.357 -0.1339 -0.0998 -0.1919
30260SOL    HW195718   3.597   8.728  10.279  2.1272  1.6576  1.5922
30260SOL    HW295719   3.601   8.637  10.400  0.5838  1.4382  1.5007
30261SOL     OW95720   0.920   3.955   7.366 -0.8329  0.0242 -0.2523
30261SOL    HW195721   0.887   4.041   7.340 -0.5896  0.0932 -0.3357
30261SOL    HW295722   0.951   3.915   7.285 -0.4388  0.0801 -0.1336
30262SOL     OW95723   2.542   8.788   0.601  0.2077 -0.4367 -0.2223
30262SOL    HW195724   2.481   8.818   0.669 -0.6276 -1.3930 -0.5104
30262SOL    HW295725   2.486   8.740   0.539  1.1153 -0.4758 -1.0310
30263SOL     OW95726   6.370   2.766   6.591  0.7588 -0.2056 -0.4177
30263SOL    HW195727   6.278   2.739   6.587  0.1699  1.0217  2.7426
30263SOL    HW295728   6.418   2.683   6.598 -0.0361 -0.8531 -1.9382
30264SOL     OW95729   7.362   6.696   4.998 -0.1521 -0.2078 -0.2577
30264SOL    HW195730   7.297   6.753   5.039 -0.8862 -1.9234  1.1354
30264SOL    HW295731   7.409   6.657   5.072  1.0244 -0.6110 -1.1964
30265SOL     OW95732   7.592   4.598   9.036 -0.0549  0.5116 -0.5864
30265SOL    HW195733   7.531   4.671   9.038  0.0778  0.6060  1.6920
30265SOL    HW295734   7.545   4.526   9.079  1.1537  0.3699  0.5280
30266SOL     OW95735   6.348  11.142   4.886 -0.3003 -0.1060  0.0895
30266SOL    HW195736   6.319  11.053   4.906 -0.9158 -0.2974 -1.4743
30266SOL    HW295737   6.443  11.138   4.891 -0.2652 -1.1290 -0.9015
30267SOL     OW95738   6.566   9.380   7.021  0.2203  0.1711 -0.1094
30267SOL    HW195739   6.662   9.372   7.019  0.5285  2.6548 -3.2691
30267SOL    HW295740   6.551   9.456   7.078 -0.0203 -0.8077  1.1828
30268SOL     OW95741   5.843   9.432   6.636 -0.3185 -0.1692 -0.0002
30268SOL    HW195742   5.762   9.386   6.660 -0.4179  0.6973  1.4826
30268SOL    HW295743   5.898   9.425   6.714  0.7568 -0.1241 -0.7380
30269SOL     OW95744   3.359   6.192   8.951 -0.4298  0.1922  0.6574
30269SOL    HW195745   3.294   6.184   8.881  0.6639  1.9428 -0.6345
30269SOL    HW295746   3.413   6.113   8.943 -0.8614 -0.0515  0.1108
30270SOL     OW95747   5.881   1.387   0.937  0.7562  0.7614  0.7571
30270SOL    HW195748   5.930   1.458   0.895 -0.0337  0.6575 -0.3709
30270SOL    HW295749   5.793   1.393   0.900  0.5606 -0.5527  0.9627
30271SOL     OW95750   5.638   8.130   3.531  0.0654  0.2233 -0.1231
30271SOL    HW195751   5.717   8.130   3.476 -0.3985  0.3014 -0.8065
30271SOL    HW295752   5.587   8.055   3.499  0.1459 -0.1998  0.7329
30272SOL     OW95753   7.578   7.906   6.841 -0.4978 -0.0681 -0.5969
30272SOL    HW195754   7.673   7.892   6.832 -0.0564  1.6107  0.7936
30272SOL    HW295755   7.570   7.998   6.868 -2.3446 -0.8389  1.8226
30273SOL     OW95756   6.418  10.731   1.287 -0.1476 -0.0393 -0.1618
30273SOL    HW195757   6.325  10.707   1.287 -0.1790 -0.0042 -1.6709
30273SOL    HW295758   6.426  10.792   1.360 -0.5727 -2.6024  2.1945
30274SOL     OW95759   8.618   8.157  10.043 -0.1592 -0.1310 -0.7000
30274SOL    HW195760   8.619   8.080   9.986  1.1702  0.6925 -1.8432
30274SOL    HW295761   8.700   8.202  10.024 -0.5716  1.1895  0.4918
30275SOL     OW95762   6.299  11.379   0.877 -0.0657  0.0446  0.3467
30275SOL    HW195763   6.329  11.319   0.809 -0.8958  0.9523 -0.8589
30275SOL    HW295764   6.379  11.407   0.921  0.5838  0.1404 -0.8591
30276SOL     OW95765   1.318   8.928  11.133  0.3873 -0.5106  0.1755
30276SOL    HW195766   1.316   8.916  11.228  0.3508  0.2136  0.2706
30276SOL    HW295767   1.411   8.938  11.113  0.3642 -0.2881  0.1820
30277SOL     OW95768  11.000   2.723  10.795 -0.0055  0.5186  0.1079
30277SOL    HW195769  11.075   2.783  10.796  0.0487  0.4665 -0.6122
30277SOL    HW295770  10.972   2.719  10.887 -0.8091  2.6475  0.0279
30278SOL     OW95771   0.431   2.558   1.151 -0.6355  0.0974  0.0916
30278SOL    HW195772   0.382   2.637   1.175 -0.6908 -0.2494  1.1715
30278SOL    HW295773   0.500   2.553   1.216 -1.3136 -1.3674  0.7275
30279SOL     OW95774   6.403   4.690   4.069 -0.6382 -0.1198  0.1587
30279SOL    HW195775   6.478   4.632   4.082  1.3150  1.5008 -2.8159
30279SOL    HW295776   6.352   4.648   4.000 -3.0441 -1.5593  2.6067
30280SOL     OW95777   2.989   0.143   6.703  0.2302  0.8209 -0.2351
30280SOL    HW195778   2.970   0.094   6.783  1.2852  0.4621 -0.2007
30280SOL    HW295779   2.982   0.235   6.728 -2.8431  0.7778 -0.5417
30281SOL     OW95780   6.218   6.771   6.772 -0.0266 -0.0334 -0.0791
30281SOL    HW195781   6.288   6.789   6.709  0.5606 -0.9314  0.2997
30281SOL    HW295782   6.216   6.676   6.779 -3.2229 -0.2981 -2.2418
30282SOL     OW95783   2.938  10.163   7.802  0.6134  0.1194 -0.1647
30282SOL    HW195784   3.021  10.186   7.843  0.0338 -1.1671  1.8823
30282SOL    HW295785   2.950  10.073   7.771  0.2951  0.2671 -0.7298
30283SOL     OW95786   7.064   8.733   6.351 -0.1609 -0.8778  0.0206
30283SOL    HW195787   7.101   8.693   6.429 -0.1053  1.2301  1.1439
30283SOL    HW295788   7.064   8.827   6.369  0.4389 -0.2455 -2.7698
30284SOL     OW95789   7.130   3.954   0.373  0.8167 -0.7443 -0.0488
30284SOL    HW195790   7.049   3.986   0.412  0.6288  0.2283 -1.2120
30284SOL    HW295791   7.180   4.033   0.353  0.5443 -1.1443 -2.5567
30285SOL     OW95792   3.020   3.446   8.214 -0.6858  0.1646 -0.5458
30285SOL    HW195793   3.057   3.428   8.300  0.1184 -0.8587 -1.0698
30285SOL    HW295794   3.048   3.535   8.194  0.8642 -0.2907 -0.5718
30286SOL     OW95795   2.500   4.803  11.073 -0.3712  0.0916  0.5295
30286SOL    HW195796   2.481   4.716  11.109  0.8993  0.2187  1.5504
30286SOL    HW295797   2.461   4.864  11.136  0.1368  0.2882  0.6555
30287SOL     OW95798   9.878   2.208   9.367  0.6876  0.1771  0.2912
30287SOL    HW195799   9.792   2.185   9.403  0.0055  1.1277 -0.6793
30287SOL    HW295800   9.940   2.180   9.434 -0.1798 -2.6667  0.0196
30288SOL     OW95801  11.408   8.817   0.560 -0.5308  0.1564 -0.3111
30288SOL    HW195802  11.493   8.790   0.526 -0.7993  1.2396 -1.9172
30288SOL    HW295803  11.409   8.789   0.652  0.7196 -1.6940 -0.8444
30289SOL     OW95804   2.888   4.897   6.560  0.2842  0.0641 -0.7101
30289SOL    HW195805   2.869   4.982   6.519  0.3305  0.1914 -0.4691
30289SOL    HW295806   2.829   4.892   6.635  1.0106  0.3598 -0.0951
30290SOL     OW95807   9.119   4.796   6.238  0.2487  0.0473 -0.4385
30290SOL    HW195808   9.114   4.705   6.210  0.8718 -0.0398 -0.2837
30290SOL    HW295809   9.198   4.800   6.293 -0.5132  0.3750  0.6718
30291SOL     OW95810   1.439   4.154   0.249 -0.0523 -0.0279  0.1533
30291SOL    HW195811   1.462   4.121   0.336  1.0491 -0.7140 -0.3692
30291SOL    HW295812   1.359   4.205   0.263 -0.3594 -0.8037  1.4299
30292SOL     OW95813   2.573   9.094   2.473  0.0768  0.0480  0.4042
30292SOL    HW195814   2.601   9.133   2.390 -2.4721  1.8156  0.2478
30292SOL    HW295815   2.623   9.142   2.540 -0.8558  1.5863  0.0491
30293SOL     OW95816  10.945   4.389  10.652 -0.0542  0.0900  0.4173
30293SOL    HW195817  10.965   4.340  10.731  0.7917 -0.9634 -0.4222
30293SOL    HW295818  10.990   4.472  10.663 -1.2936  0.6415  1.7442
30294SOL     OW95819   9.700   7.515   1.277 -0.2422 -0.0738 -0.8663
30294SOL    HW195820   9.618   7.563   1.282 -1.3412 -1.9488  0.5592
30294SOL    HW295821   9.753   7.551   1.348 -0.0981  0.6501 -1.3334
30295SOL     OW95822  11.478   6.594   9.848  0.6534 -0.0772  0.1374
30295SOL    HW195823  11.385   6.573   9.834  0.9607 -1.1172 -0.4864
30295SOL    HW295824  11.487   6.684   9.818  0.1100 -0.4094 -1.1079
30296SOL     OW95825  11.181   7.139   8.854 -0.1442 -0.1925 -0.3864
30296SOL    HW195826  11.157   7.162   8.764 -0.1699 -1.9912 -0.8656
30296SOL    HW295827  11.253   7.198   8.875  0.5057 -0.3887 -1.9498
30297SOL     OW95828   6.070   7.037   5.404 -0.4146  0.5002 -0.2865
30297SOL    HW195829   6.133   6.966   5.403 -0.2460  0.6190  0.5135
30297SOL    HW295830   5.985   6.994   5.401 -0.3043  0.2988 -0.5173
30298SOL     OW95831   0.057   4.657  10.604  0.4111 -0.4597  0.0270
30298SOL    HW195832   0.131   4.715  10.592  0.2887 -0.1199  0.8207
30298SOL    HW295833   0.035   4.665  10.697 -1.1897  0.1582 -0.3608
30299SOL     OW95834   1.062  10.156   1.968  0.7347  0.0838  0.1159
30299SOL    HW195835   0.969  10.178   1.972  0.7858  0.2198  0.5832
30299SOL    HW295836   1.070  10.102   1.889  0.3156  0.3224 -0.0940
30300SOL     OW95837   3.367   9.813   7.107 -0.3152 -0.2599  0.0202
30300SOL    HW195838   3.383   9.723   7.136 -0.1930 -0.3660 -0.3731
30300SOL    HW295839   3.374   9.809   7.012 -0.5991  0.1114 -0.0152
30301SOL     OW95840   9.330   3.711   1.765 -0.4209  0.5387 -0.2689
30301SOL    HW195841   9.245   3.724   1.723  0.2724  1.6817 -1.4155
30301SOL    HW295842   9.352   3.796   1.803  0.6437  0.5654 -0.8835
30302SOL     OW95843   1.625   9.962   2.123 -0.6716 -0.3003  0.0384
30302SOL    HW195844   1.707   9.940   2.167 -0.8817 -0.4914  0.3384
30302SOL    HW295845   1.636   9.929   2.033  0.3187  1.3423 -0.4989
30303SOL     OW95846   0.036   8.413   7.287  0.7866 -0.4307 -0.4207
30303SOL    HW195847  -0.035   8.355   7.261 -0.0459  0.9221 -1.3334
30303SOL    HW295848   0.105   8.397   7.222  0.0685  0.4473 -1.4462
30304SOL     OW95849   9.135   6.255   5.316 -0.5349 -0.1236  0.4148
30304SOL    HW195850   9.100   6.225   5.232 -0.5647 -0.6077  0.5968
30304SOL    HW295851   9.206   6.195   5.335 -0.6487 -0.1289  0.8268
30305SOL     OW95852   5.896   0.504   9.534 -0.2757 -0.4259 -0.3296
30305SOL    HW195853   5.862   0.566   9.598 -1.8795 -1.3106 -0.2768
30305SOL    HW295854   5.872   0.418   9.569  0.1713 -0.9902 -1.3640
30306SOL     OW95855   2.775   9.486   7.667  0.4930  0.0022 -0.0010
30306SOL    HW195856   2.714   9.442   7.608 -0.6278 -0.2732  1.3313
30306SOL    HW295857   2.803   9.418   7.728  0.5100  0.6066  0.6763
30307SOL     OW95858  10.043   4.872   2.114  0.3444 -0.4267 -0.2423
30307SOL    HW195859  10.085   4.867   2.200 -1.0360  0.9022  0.5729
30307SOL    HW295860  10.102   4.926   2.061  0.5878 -0.1650  0.2847
30308SOL     OW95861   7.142   5.290   1.416 -0.3401  0.0130 -0.1623
30308SOL    HW195862   7.089   5.368   1.398 -0.6596 -0.1563  0.0369
30308SOL    HW295863   7.117   5.228   1.347 -0.4755 -0.1020 -0.0109
30309SOL     OW95864  11.275   2.970  11.546  0.0085 -0.1857  0.6438
30309SOL    HW195865  11.349   2.917  11.516  0.5824 -0.2345  2.0959
30309SOL    HW295866  11.270   3.042  11.483  2.1307  0.5317  1.2340
30310SOL     OW95867   0.308   4.571   2.823  0.5973 -0.0488 -0.4079
30310SOL    HW195868   0.395   4.608   2.837  0.3854  0.1459  0.4514
30310SOL    HW295869   0.248   4.638   2.856  0.1987 -1.0505  1.0076
30311SOL     OW95870   8.159   8.862   5.640  0.0671  0.4138  0.4942
30311SOL    HW195871   8.082   8.916   5.623 -0.0459  0.2350  0.4266
30311SOL    HW295872   8.183   8.883   5.730  0.5114  1.1694  0.2076
30312SOL     OW95873   0.950   5.248   3.634 -0.4925 -0.1828 -0.1245
30312SOL    HW195874   0.911   5.321   3.587 -0.4736 -0.4577 -0.5721
30312SOL    HW295875   0.938   5.173   3.576  2.6114  0.0872 -1.3302
30313SOL     OW95876   2.426   0.950   4.981  0.1810 -0.1813  0.0480
30313SOL    HW195877   2.482   0.960   5.058 -2.4928  1.9934  1.9146
30313SOL    HW295878   2.403   1.039   4.955 -0.0224 -0.8976 -2.5374
30314SOL     OW95879   3.936   7.219  10.962 -0.0552 -0.1631 -0.1812
30314SOL    HW195880   3.889   7.301  10.946 -0.2079 -0.2642 -0.2523
30314SOL    HW295881   3.909   7.193  11.049  0.4342  0.1570  0.0734
30315SOL     OW95882   3.418   2.278  11.299  0.5268  0.2045  0.4567
30315SOL    HW195883   3.438   2.306  11.211  3.0390 -1.2602  0.4809
30315SOL    HW295884   3.396   2.185  11.290  3.2270 -0.6266  1.5684
30316SOL     OW95885   9.721   2.508   1.857 -0.2426 -0.1090  0.2389
30316SOL    HW195886   9.726   2.549   1.944  2.4221  0.2924 -0.0318
30316SOL    HW295887   9.800   2.537   1.812 -0.8370 -1.4891 -1.8299
30317SOL     OW95888   9.922   7.123   4.216 -0.1730 -0.0331 -0.1829
30317SOL    HW195889   9.915   7.143   4.123  0.1604 -1.1810 -0.4648
30317SOL    HW295890   9.860   7.183   4.258 -2.1448 -1.1183 -1.3636
30318SOL     OW95891   0.555   1.627  11.389 -0.2582 -0.4804  0.9369
30318SOL    HW195892   0.549   1.621  11.294 -0.2679  1.0361  0.8170
30318SOL    HW295893   0.495   1.560  11.421 -1.0064 -0.3434 -0.1318
30319SOL     OW95894  10.780   1.207   6.067  0.1750  0.3404  0.5846
30319SOL    HW195895  10.734   1.226   6.149  0.9870 -0.3540  1.2215
30319SOL    HW295896  10.812   1.118   6.078 -0.8217 -0.2513 -1.0370
30320SOL     OW95897   0.385  10.490  10.201  0.1076  0.4708 -0.5206
30320SOL    HW195898   0.464  10.443  10.173  0.2043  0.6488 -0.5448
30320SOL    HW295899   0.405  10.582  10.186  0.4266  0.6292  0.7960
30321SOL     OW95900   2.230   9.806   5.689  0.1613  0.4878  0.3677
30321SOL    HW195901   2.215   9.713   5.670 -0.3720 -0.0617  3.0246
30321SOL    HW295902   2.257   9.807   5.781 -0.0815  3.0026  0.4742
30322SOL     OW95903   5.719   2.428   7.206 -0.2748 -0.0341  0.0214
30322SOL    HW195904   5.705   2.376   7.127  1.4686  0.1295 -0.4420
30322SOL    HW295905   5.786   2.379   7.255 -0.5188  0.4407  0.8413
30323SOL     OW95906  10.864   4.368   4.331 -0.4504 -0.1799  0.6943
30323SOL    HW195907  10.874   4.392   4.423 -0.2832  1.7741  0.1954
30323SOL    HW295908  10.931   4.301   4.316 -0.0040  0.0074  1.8000
30324SOL     OW95909   9.253   3.379  10.265 -0.1718  0.3492 -0.4118
30324SOL    HW195910   9.187   3.355  10.330 -0.2784 -0.2969 -0.7506
30324SOL    HW295911   9.330   3.402  10.317 -0.7286  1.3548 -0.0047
30325SOL     OW95912   7.962   2.387   0.516  0.1087 -0.2198  0.0183
30325SOL    HW195913   8.011   2.410   0.436 -1.1281  0.2627 -0.6300
30325SOL    HW295914   7.886   2.339   0.484 -0.9448  0.8675  0.7891
30326SOL     OW95915   4.876   3.224   4.019 -0.2775 -0.5536 -0.1057
30326SOL    HW195916   4.816   3.290   4.053  0.1816 -0.5420  0.6947
30326SOL    HW295917   4.907   3.261   3.936 -1.0331 -0.3677 -0.3145
30327SOL     OW95918   1.416  10.853   9.777 -0.8676  0.2960 -0.1018
30327SOL    HW195919   1.365  10.919   9.731 -0.6225  0.8079  0.3435
30327SOL    HW295920   1.473  10.903   9.836  0.6402 -0.2189 -1.0642
30328SOL     OW95921   0.716   6.542   6.002  0.3180  0.4441  0.5261
30328SOL    HW195922   0.797   6.547   5.952  1.4718  0.7700  2.3562
30328SOL    HW295923   0.651   6.511   5.938  1.7205  0.7354 -1.1268
30329SOL     OW95924   6.903   6.807   3.945 -0.2398 -0.0098 -0.4203
30329SOL    HW195925   6.919   6.878   3.882 -1.2311  2.0921  1.5387
30329SOL    HW295926   6.847   6.746   3.898 -1.7347  1.9583 -1.3738
30330SOL     OW95927   5.189   4.212   1.465  0.1549 -0.3582 -0.2681
30330SOL    HW195928   5.194   4.259   1.382 -0.3184 -0.1680 -0.1942
30330SOL    HW295929   5.108   4.244   1.506  0.4990 -0.2862  0.3656
30331SOL     OW95930   6.981   1.436   3.087 -0.0874 -0.1717 -0.3268
30331SOL    HW195931   6.986   1.531   3.097  0.5313 -0.4285  2.6968
30331SOL    HW295932   7.067   1.403   3.114 -0.7593 -1.6525  0.1674
30332SOL     OW95933   5.478   8.336   5.727 -0.0361 -0.1065 -0.1966
30332SOL    HW195934   5.458   8.356   5.636  0.0454 -0.4098 -0.2823
30332SOL    HW295935   5.497   8.242   5.728  0.5684  0.0099  0.0189
30333SOL     OW95936   2.031   9.144   1.680 -0.2982  0.0423 -0.9380
30333SOL    HW195937   2.106   9.098   1.717 -0.4391  0.3365 -0.2592
30333SOL    HW295938   2.069   9.222   1.638 -0.2774  0.6093  0.0884
30334SOL     OW95939   0.074   5.532   5.190  0.2363  0.0068  0.2113
30334SOL    HW195940   0.062   5.540   5.285 -0.6473 -0.0967  0.1178
30334SOL    HW295941   0.049   5.618   5.156 -1.7941 -0.6520 -0.1178
30335SOL     OW95942  10.814  10.970   3.309  0.0759 -0.4473  0.0209
30335SOL    HW195943  10.882  10.966   3.242  1.4017  0.9296  1.1751
30335SOL    HW295944  10.800  10.879   3.335 -0.3476 -0.9864 -1.9511
30336SOL     OW95945   0.355   4.196  10.942  0.2732 -0.3331 -0.0721
30336SOL    HW195946   0.358   4.143  11.022 -2.6339 -0.9288 -0.2569
30336SOL    HW295947   0.428   4.163  10.889  0.6245 -1.7817  1.2300
30337SOL     OW95948   3.412  10.344   8.034 -0.0164 -0.0011  0.0501
30337SOL    HW195949   3.491  10.335   8.087 -0.1074 -0.1722  0.1593
30337SOL    HW295950   3.443  10.346   7.943  0.2008  1.0056  0.1368
30338SOL     OW95951   3.590   7.244   5.229  0.2613  0.2916  0.0220
30338SOL    HW195952   3.589   7.236   5.134  0.0211 -0.9112  0.1177
30338SOL    HW295953   3.682   7.257   5.252  0.4288 -0.3366 -0.2993
30339SOL     OW95954  10.524   1.720   7.249 -0.7101  0.1374 -0.8116
30339SOL    HW195955  10.549   1.806   7.217 -0.8038  0.2421 -0.6074
30339SOL    HW295956  10.579   1.659   7.199 -1.4116  0.2393 -1.7247
30340SOL     OW95957   0.458   0.271   8.572 -0.1388  0.0538 -0.1327
30340SOL    HW195958   0.438   0.194   8.518 -0.9008  0.4075 -0.3699
30340SOL    HW295959   0.553   0.280   8.566  0.0355 -1.2399  0.4178
30341SOL     OW95960   4.903   7.962   5.106  0.2830 -0.1083 -0.2533
30341SOL    HW195961   4.948   7.887   5.066 -1.9245 -1.6280 -0.1189
30341SOL    HW295962   4.896   7.938   5.198 -0.7279  0.0961 -0.2713
30342SOL     OW95963   6.227   8.749   8.581 -0.8713 -0.1199 -0.6169
30342SOL    HW195964   6.221   8.721   8.672 -0.8669  0.0346 -0.5674
30342SOL    HW295965   6.234   8.668   8.530 -0.9436 -0.2085 -0.4854
30343SOL     OW95966   4.333   8.291   4.896 -0.3777  0.0063 -0.3907
30343SOL    HW195967   4.393   8.363   4.918 -0.5176 -0.0092  0.0440
30343SOL    HW295968   4.389   8.225   4.856  0.0661 -0.3758  0.8005
30344SOL     OW95969   1.072   9.804   9.749  0.5933 -0.5071  0.0341
30344SOL    HW195970   1.095   9.767   9.834 -0.1572  1.2578  1.0599
30344SOL    HW295971   1.055   9.896   9.767 -0.6702 -0.3157 -1.8383
30345SOL     OW95972   3.366   0.433   3.208  0.0148  0.4087  0.1098
30345SOL    HW195973   3.296   0.372   3.231 -1.9975  2.3254 -0.6655
30345SOL    HW295974   3.336   0.518   3.240  1.3326  1.5421 -1.5103
30346SOL     OW95975   7.072  10.755   2.870 -0.3802  0.0522  0.2772
30346SOL    HW195976   7.033  10.840   2.889 -0.1218  0.4546 -0.9517
30346SOL    HW295977   7.013  10.715   2.806 -0.8326 -0.9736  1.2875
30347SOL     OW95978   1.223   8.837   8.998  0.1568 -0.0037  0.1062
30347SOL    HW195979   1.302   8.888   9.015  1.0234 -0.4956 -2.0912
30347SOL    HW295980   1.159   8.870   9.061  1.5390  1.7467  0.6750
30348SOL     OW95981   1.068   3.356   4.123  0.1219 -0.0451  0.1149
30348SOL    HW195982   1.118   3.325   4.198  0.2127  0.9772  0.4934
30348SOL    HW295983   1.121   3.331   4.047  1.1553  0.8865  0.5001
30349SOL     OW95984  11.027   4.124   5.473  0.1462  0.6427  0.4413
30349SOL    HW195985  11.048   4.083   5.389  0.2164  1.2079  0.1758
30349SOL    HW295986  10.935   4.151   5.464 -0.4207 -0.8906  1.2144
30350SOL     OW95987   6.383   9.948   0.067  0.2358  1.1274  0.3033
30350SOL    HW195988   6.388   9.972  -0.025 -1.6972  0.7003  0.0544
30350SOL    HW295989   6.364   9.854   0.067  1.0103  0.9520  1.1644
30351SOL     OW95990  10.965   4.498   6.405  0.4669  0.3254 -0.2017
30351SOL    HW195991  11.031   4.554   6.447  1.6063 -1.1728  0.0941
30351SOL    HW295992  11.002   4.480   6.318  0.6674 -0.8551  0.1132
30352SOL     OW95993   9.801   8.542   1.534 -0.0595  1.0493 -0.1572
30352SOL    HW195994   9.840   8.497   1.609  1.0164  0.3124 -1.1325
30352SOL    HW295995   9.844   8.505   1.458 -1.8616  1.0381 -1.2375
30353SOL     OW95996   4.812   6.545   4.006 -0.1604 -0.5719  0.4332
30353SOL    HW195997   4.720   6.519   4.002 -0.8701  1.7306  0.4891
30353SOL    HW295998   4.839   6.527   4.096 -0.8150 -0.4583  0.6513
30354SOL     OW95999  10.268   3.939   1.005  0.3810 -0.1853  0.1908
30354SOL    HW196000  10.295   4.029   0.988  0.8248 -0.6289 -1.7198
30354SOL    HW296001  10.184   3.930   0.960 -0.5467 -0.2594  1.8635
30355SOL     OW96002   2.328  11.280   5.336  0.0290 -0.3393 -0.0419
30355SOL    HW196003   2.362  11.211   5.280 -0.8293 -0.3974 -0.4988
30355SOL    HW296004   2.243  11.247   5.367  1.1672 -1.0368  2.6407
30356SOL     OW96005   2.851  11.656  11.338 -0.8232 -0.4873  0.1700
30356SOL    HW196006   2.943  11.651  11.364 -0.0131  0.5956 -2.2065
30356SOL    HW296007   2.853  11.694  11.250 -3.6719  1.7654  0.9225
30357SOL     OW96008   7.949   2.463   3.374  0.1635 -0.5082  0.6058
30357SOL    HW196009   7.904   2.427   3.450 -0.6975 -0.1823  0.2677
30357SOL    HW296010   7.951   2.557   3.389 -1.1713 -0.2967 -0.3509
30358SOL     OW96011   4.488  10.145   4.548  0.0934  0.2189 -0.1992
30358SOL    HW196012   4.478  10.078   4.480 -0.7632 -0.5447  0.6305
30358SOL    HW296013   4.398  10.162   4.577  0.4727  0.1213  1.0999
30359SOL     OW96014   4.375   1.878   0.207  0.0898 -0.2250  0.2260
30359SOL    HW196015   4.416   1.958   0.239 -0.3609  0.1741 -0.1676
30359SOL    HW296016   4.301   1.909   0.154  0.6884 -0.8485 -1.0264
30360SOL     OW96017   4.636   3.350   5.497  0.0704  0.2647 -0.6764
30360SOL    HW196018   4.571   3.420   5.489  1.0594  1.2555 -0.3642
30360SOL    HW296019   4.597   3.288   5.558 -0.9194  0.4259 -1.1249
30361SOL     OW96020   8.294   0.925  10.862 -0.3885 -0.1944 -0.1490
30361SOL    HW196021   8.224   0.884  10.914  0.2081 -0.7237  0.2387
30361SOL    HW296022   8.247   0.978  10.798 -1.2213 -2.4520 -1.5071
30362SOL     OW96023   5.388   2.554   8.842 -0.5827  0.5046  0.1322
30362SOL    HW196024   5.481   2.530   8.842 -0.9623 -1.0774 -0.8199
30362SOL    HW296025   5.387   2.645   8.812  0.6072  0.2593 -0.7191
30363SOL     OW96026   3.883   6.440   6.863 -0.5402  0.1473  0.0286
30363SOL    HW196027   3.925   6.473   6.784  0.4812 -0.4396  0.3114
30363SOL    HW296028   3.912   6.499   6.933  1.7897 -1.5928  0.6472
30364SOL     OW96029   2.134   1.811   8.148 -0.2630  0.0899  0.2126
30364SOL    HW196030   2.110   1.828   8.057  1.2964  0.0277 -0.2441
30364SOL    HW296031   2.095   1.726   8.168 -1.6048  0.6393  0.0006
30365SOL     OW96032  10.002   0.601   2.214 -0.9477  0.4753 -0.2856
30365SOL    HW196033   9.993   0.696   2.214  2.9622  1.0147  1.3194
30365SOL    HW296034  10.090   0.585   2.180 -1.7627 -2.6751 -1.2354
30366SOL     OW96035   1.598   8.983  10.046  0.1700  0.1567  0.4288
30366SOL    HW196036   1.634   8.895  10.039 -0.7698 -0.3733  1.7514
30366SOL    HW296037   1.570   8.991  10.137  3.1577  3.0335  1.3244
30367SOL     OW96038  11.109   9.993   7.994  0.3886  1.1645 -0.0218
30367SOL    HW196039  11.024   9.960   8.024 -0.2008  0.2375 -2.4936
30367SOL    HW296040  11.169   9.967   8.064 -0.8223 -1.1695  0.2780
30368SOL     OW96041   3.118   9.585   0.908  0.0863 -0.2051  0.6066
30368SOL    HW196042   3.207   9.600   0.938  0.9060 -0.8142 -1.3129
30368SOL    HW296043   3.076   9.538   0.979  0.6590  1.7772  2.3498
30369SOL     OW96044   7.324   4.363   7.775 -0.1298  0.5544 -0.8690
30369SOL    HW196045   7.318   4.335   7.867 -1.6853  1.0483 -0.7914
30369SOL    HW296046   7.377   4.443   7.778  1.6113 -0.5403 -0.6995
30370SOL     OW96047   9.142   4.239   7.121  0.5173 -0.2638 -0.0758
30370SOL    HW196048   9.206   4.309   7.129  0.5851 -0.2412 -0.8306
30370SOL    HW296049   9.104   4.231   7.209 -0.1985  1.3705 -0.2113
30371SOL     OW96050   8.110   2.898   8.345 -0.0594 -0.0457 -0.0240
30371SOL    HW196051   8.200   2.909   8.312  0.1489  0.6477  0.7443
30371SOL    HW296052   8.061   2.867   8.270  0.6915  0.1935 -0.6298
30372SOL     OW96053   0.368   9.090   7.637 -0.0552  0.2609  0.2815
30372SOL    HW196054   0.372   9.089   7.542  3.0232  2.1422  0.2292
30372SOL    HW296055   0.348   9.182   7.659  0.1696  0.0525  1.4308
30373SOL     OW96056  10.879   2.200   4.791  0.0588  0.2583 -0.3103
30373SOL    HW196057  10.861   2.273   4.732 -0.2200 -0.9266 -1.7673
30373SOL    HW296058  10.800   2.145   4.785  1.0650 -1.2003 -0.9091
30374SOL     OW96059   7.715   7.447   5.341  0.0344  0.2027 -0.4645
30374SOL    HW196060   7.677   7.389   5.407 -0.7314 -0.6621 -1.6352
30374SOL    HW296061   7.781   7.498   5.389 -1.2227  0.3488  1.1878
30375SOL     OW96062   6.860   9.222   6.701 -0.2909  0.2203 -0.5878
30375SOL    HW196063   6.892   9.132   6.707 -0.6589  0.1183 -0.1033
30375SOL    HW296064   6.772   9.214   6.664 -2.4111 -0.1238  3.8723
30376SOL     OW96065   6.146   4.082   8.419  0.5783 -0.1560  0.2151
30376SOL    HW196066   6.186   4.090   8.506  0.2696  0.9028  0.2749
30376SOL    HW296067   6.133   3.988   8.407 -0.1756 -0.2749  1.6986
30377SOL     OW96068   1.493   5.329   3.447  0.2773  0.0787  0.1310
30377SOL    HW196069   1.487   5.425   3.442 -2.1903  0.0212  0.6519
30377SOL    HW296070   1.456   5.298   3.364  2.8079 -0.4812 -0.8792
30378SOL     OW96071   2.365   5.396   8.232  0.0335 -0.2535  0.4273
30378SOL    HW196072   2.361   5.345   8.313  0.0638  0.0891  0.6520
30378SOL    HW296073   2.338   5.335   8.163 -0.4792 -0.4176  0.7599
30379SOL     OW96074   4.271   5.756   8.488  0.4733  0.4198  0.1218
30379SOL    HW196075   4.247   5.839   8.447  2.1689  1.1146  0.4450
30379SOL    HW296076   4.233   5.760   8.576 -1.8226 -0.3939 -0.7760
30380SOL     OW96077   8.725  10.065  11.098  0.3660  0.3478 -0.2841
30380SOL    HW196078   8.684  10.084  11.182  0.9357 -0.2057  0.1265
30380SOL    HW296079   8.716  10.146  11.047 -0.1560  0.6188  0.2316
30381SOL     OW96080   7.278   7.373   2.310 -0.4865  0.0293  0.1156
30381SOL    HW196081   7.317   7.286   2.311  2.5154  1.2371  1.5858
30381SOL    HW296082   7.309   7.412   2.228  0.9922  0.7580  0.9725
30382SOL     OW96083   8.009   3.375   6.696  0.3387  0.1071 -0.5749
30382SOL    HW196084   8.054   3.290   6.696  1.3494  0.6234  0.0606
30382SOL    HW296085   8.025   3.410   6.784 -2.1367 -0.0885  0.0270
30383SOL     OW96086   6.483   4.112   3.745  0.6764  0.6016  0.0963
30383SOL    HW196087   6.417   4.043   3.747  1.5643 -0.3638 -1.6080
30383SOL    HW296088   6.438   4.189   3.781 -0.7991 -0.4546  0.6307
30384SOL     OW96089  10.035   9.784   4.085  0.1600 -0.1913  0.3003
30384SOL    HW196090  10.025   9.874   4.115  1.7414  0.2791 -0.4509
30384SOL    HW296091   9.995   9.783   3.998  1.2024  0.1266 -0.1995
30385SOL     OW96092   9.420  11.562   1.598 -0.7288 -0.4358  0.6193
30385SOL    HW196093   9.349  11.497   1.595 -0.6590 -0.6169  1.9237
30385SOL    HW296094   9.495  11.517   1.559 -1.2821 -0.2898 -0.6513
30386SOL     OW96095   3.867   5.658   0.537 -0.0750  0.5100  0.4689
30386SOL    HW196096   3.774   5.670   0.520  0.2616  1.4581 -0.8679
30386SOL    HW296097   3.900   5.614   0.458  0.5533 -0.1052  1.0622
30387SOL     OW96098   0.065   5.109  10.554 -0.7882  0.0203 -0.2404
30387SOL    HW196099   0.018   5.192  10.561  0.3169  0.5854  0.7561
30387SOL    HW296100   0.079   5.081  10.644  1.1946  0.1336 -0.4602
30388SOL     OW96101  10.838   0.281   6.484  0.2575 -0.7475  0.5447
30388SOL    HW196102  10.850   0.204   6.427 -0.8763 -1.0793  0.7313
30388SOL    HW296103  10.881   0.257   6.566  0.2340 -1.0387  0.4731
30389SOL     OW96104   2.713  10.346   9.127 -0.3043  0.1557 -0.4501
30389SOL    HW196105   2.629  10.387   9.146  0.1063  1.8973 -2.0794
30389SOL    HW296106   2.776  10.397   9.178  0.1060  1.1189 -1.8332
30390SOL     OW96107   8.280   6.333   1.623 -0.1526 -0.3745 -0.0567
30390SOL    HW196108   8.303   6.267   1.557 -1.5203  0.0447 -1.0027
30390SOL    HW296109   8.350   6.398   1.617  0.0766 -0.6597 -0.6451
30391SOL     OW96110   0.524   6.022   9.589 -0.4155  0.2134 -0.5837
30391SOL    HW196111   0.539   5.992   9.499  0.4011  0.3704 -0.5103
30391SOL    HW296112   0.501   5.942   9.637  2.4359 -0.5179 -0.2357
30392SOL     OW96113   8.213   8.976   3.756 -0.0809  0.0288 -0.7650
30392SOL    HW196114   8.256   9.012   3.834 -0.8735 -1.3083  0.3302
30392SOL    HW296115   8.194   9.053   3.702  1.4548  0.8773 -0.1543
30393SOL     OW96116   5.311  10.665   5.122  0.3034  0.3837 -0.0875
30393SOL    HW196117   5.314  10.569   5.132  0.4246  0.3907 -0.0523
30393SOL    HW296118   5.334  10.680   5.031  2.7280  0.4976  0.4739
30394SOL     OW96119  10.397   5.652   7.496 -0.1354 -0.3604  0.0718
30394SOL    HW196120  10.368   5.727   7.548 -0.9907  0.3271 -1.3399
30394SOL    HW296121  10.411   5.687   7.408  1.2242 -1.5044 -0.2090
30395SOL     OW96122  10.000   6.073   5.667 -0.1445 -0.2345 -0.4535
30395SOL    HW196123  10.017   6.000   5.608 -1.0124 -0.5984 -0.2696
30395SOL    HW296124   9.992   6.149   5.610  0.1537 -0.3829 -0.6983
30396SOL     OW96125   0.462   2.628   5.128 -0.7809  0.2407  0.1407
30396SOL    HW196126   0.370   2.653   5.130 -0.5315  1.2112  0.4282
30396SOL    HW296127   0.464   2.537   5.156 -1.6101  0.3596  0.5910
30397SOL     OW96128   1.845   5.565   3.597  0.5234 -0.0006  0.2122
30397SOL    HW196129   1.800   5.483   3.617 -0.2329  0.6409  1.2263
30397SOL    HW296130   1.926   5.561   3.647 -0.4934  0.7714  2.0192
30398SOL     OW96131   3.154   5.384   3.364 -0.3834 -0.5256 -0.1834
30398SOL    HW196132   3.158   5.330   3.286 -2.5821 -2.0687  0.6620
30398SOL    HW296133   3.093   5.455   3.342  0.1582 -0.1014 -0.3320
30399SOL     OW96134   5.441   3.367   8.355  0.4932 -0.2959 -0.3371
30399SOL    HW196135   5.474   3.448   8.317  1.5357  0.4716  2.0036
30399SOL    HW296136   5.351   3.388   8.382  1.1434  0.5489  1.3373
30400SOL     OW96137   4.637  10.642   1.764 -0.6915 -0.3082 -0.2040
30400SOL    HW196138   4.680  10.579   1.705  1.3324 -0.2081  1.0810
30400SOL    HW296139   4.700  10.713   1.772 -1.4884  0.2725  1.0768
30401SOL     OW96140   6.050  11.113  10.053  0.3371 -0.3406  0.0444
30401SOL    HW196141   6.097  11.197  10.052  1.4630 -0.9536 -0.7829
30401SOL    HW296142   6.074  11.074  10.137  1.7106 -0.8386 -0.5465
30402SOL     OW96143   0.685  10.236   8.175  0.5643 -0.3324 -0.1389
30402SOL    HW196144   0.637  10.191   8.245  0.2615 -1.3366 -0.9734
30402SOL    HW296145   0.618  10.287   8.129  0.6924  0.0012  0.0389
30403SOL     OW96146   4.153   4.080  10.749  0.1592 -0.5097 -0.1170
30403SOL    HW196147   4.073   4.108  10.793  0.9382  3.4116 -0.7505
30403SOL    HW296148   4.222   4.097  10.813  0.8339  0.4649 -1.0670
30404SOL     OW96149   1.332   9.849   0.152  0.0184 -0.2136  0.1604
30404SOL    HW196150   1.251   9.894   0.180  0.5058  1.4033 -0.8713
30404SOL    HW296151   1.311   9.814   0.066  0.6929  1.1124 -0.5726
30405SOL     OW96152   3.545   3.708   3.008  0.1865  0.0034 -0.6374
30405SOL    HW196153   3.518   3.782   2.954 -0.0738  0.4470  0.0806
30405SOL    HW296154   3.477   3.702   3.075  1.8906  1.2182  1.3071
30406SOL     OW96155   7.876  11.603   0.859 -0.2234 -0.3232  0.8825
30406SOL    HW196156   7.829  11.525   0.831 -2.2943  1.8374 -2.3041
30406SOL    HW296157   7.835  11.627   0.942 -0.3349 -1.9506  1.3331
30407SOL     OW96158   4.466   1.700   0.596  0.3873  0.5909 -0.1222
30407SOL    HW196159   4.434   1.783   0.560  2.6648  1.3871 -0.4790
30407SOL    HW296160   4.488   1.720   0.687  0.8923  0.3593 -0.1936
30408SOL     OW96161  11.076   6.094   5.134 -0.2914 -0.4698  0.3277
30408SOL    HW196162  11.021   6.127   5.063  0.7329  1.6074  0.4147
30408SOL    HW296163  11.019   6.096   5.211 -0.7667 -0.6321 -0.0117
30409SOL     OW96164   8.440   2.675   9.674 -0.0781 -0.5042  0.2320
30409SOL    HW196165   8.456   2.603   9.612 -1.7082 -0.7054 -0.0013
30409SOL    HW296166   8.362   2.719   9.640  0.8901  1.4242  0.3615
30410SOL     OW96167   3.068   5.237   7.068 -0.3515  0.2322  0.2359
30410SOL    HW196168   3.069   5.302   6.998  0.3648  0.8273  0.7836
30410SOL    HW296169   3.141   5.178   7.048 -1.2234 -0.6494 -0.4620
30411SOL     OW96170  11.090   9.870  10.499  0.4749 -0.0347  0.0154
30411SOL    HW196171  11.075   9.775  10.496 -2.5230  0.3656 -1.3439
30411SOL    HW296172  11.074   9.900  10.410  0.6788  1.8382  0.5646
30412SOL     OW96173   3.052   7.579   7.351 -0.9757  0.2259 -0.2894
30412SOL    HW196174   3.075   7.602   7.441 -0.9884  1.5381 -0.6034
30412SOL    HW296175   3.136   7.552   7.312 -0.5498  1.7617 -0.4838
30413SOL     OW96176   5.061   5.408   0.995  0.1034 -0.0728  0.3938
30413SOL    HW196177   4.966   5.402   1.002  0.2403 -2.4046  0.7666
30413SOL    HW296178   5.076   5.495   0.958 -2.2464 -0.2890 -1.2880
30414SOL     OW96179   3.622   7.675   5.006  0.4565 -0.4227 -0.6194
30414SOL    HW196180   3.717   7.690   5.000  0.5368  0.0505  1.3497
30414SOL    HW296181   3.583   7.756   4.974  0.7559  0.1940  0.5485
30415SOL     OW96182   1.552   6.575   9.375  0.3025 -0.0146  0.1583
30415SOL    HW196183   1.586   6.502   9.323 -0.8380 -0.8266  0.5178
30415SOL    HW296184   1.517   6.636   9.310  2.1498  0.7390 -0.2098
30416SOL     OW96185   8.446   5.584   0.881  1.0012 -0.1490  0.2147
30416SOL    HW196186   8.364   5.594   0.832  1.5174  0.7822 -0.4762
30416SOL    HW296187   8.421   5.534   0.958  0.3008 -2.4510 -1.3736
30417SOL     OW96188   9.285   8.528   6.483 -0.2047  0.4038 -0.6753
30417SOL    HW196189   9.303   8.581   6.405  0.1190  0.4599 -0.5626
30417SOL    HW296190   9.317   8.440   6.459  2.1573  0.9376  0.2571
30418SOL     OW96191   0.021   8.705   4.319 -0.7310  0.1155 -0.3983
30418SOL    HW196192   0.062   8.624   4.349 -1.5435 -0.9195 -1.9452
30418SOL    HW296193  -0.020   8.742   4.397  0.8520 -0.1957  0.6240
30419SOL     OW96194   3.716   0.658   9.027 -0.0415 -0.1510 -0.4222
30419SOL    HW196195   3.651   0.712   9.071 -0.5511 -0.8092 -0.3588
30419SOL    HW296196   3.719   0.691   8.937 -0.9755 -0.5798 -0.6125
30420SOL     OW96197   2.766   3.419   3.125 -0.7036  0.0496 -0.2272
30420SOL    HW196198   2.715   3.363   3.066  0.1210 -1.2045  0.1895
30420SOL    HW296199   2.701   3.469   3.174 -1.4554 -0.1908 -0.9620
30421SOL     OW96200   3.182   7.869   4.834  0.3272 -0.0820  0.2520
30421SOL    HW196201   3.200   7.837   4.746 -0.5748 -1.5386  0.5707
30421SOL    HW296202   3.202   7.963   4.829 -0.2858  0.0027 -1.6649
30422SOL     OW96203   3.017   4.844   1.877  0.2491  0.6847  0.6091
30422SOL    HW196204   3.036   4.822   1.786  0.0951  0.8914  0.5252
30422SOL    HW296205   2.976   4.930   1.873 -1.1034  0.0869  0.7262
30423SOL     OW96206   8.412   4.435  10.853 -0.0333  0.1249 -0.0757
30423SOL    HW196207   8.437   4.446  10.945  1.0787  1.7966 -0.5180
30423SOL    HW296208   8.452   4.352  10.827 -0.8227 -0.6418  1.0674
30424SOL     OW96209   2.229   7.118   7.913  0.8971 -0.4166  0.5015
30424SOL    HW196210   2.312   7.089   7.950  0.8115 -0.1118  0.9360
30424SOL    HW296211   2.162   7.078   7.968  0.7793  0.9684  1.4232
30425SOL     OW96212   8.523   3.279   7.697 -0.0612  0.0567  0.0599
30425SOL    HW196213   8.501   3.318   7.613  0.8078  3.9090  1.4178
30425SOL    HW296214   8.546   3.353   7.753  1.0594 -2.4375  3.2369
30426SOL     OW96215   6.563   7.455   7.946  0.2321  0.3603  0.1686
30426SOL    HW196216   6.582   7.548   7.936 -0.1588  0.7502  2.5225
30426SOL    HW296217   6.645   7.411   7.923 -0.5393  0.8753 -4.6797
30427SOL     OW96218   8.971   0.760   1.819 -0.2348  0.4866  0.5550
30427SOL    HW196219   8.968   0.667   1.798  2.5940  0.7237 -1.5234
30427SOL    HW296220   8.883   0.792   1.800 -0.6457 -1.3728 -0.9601
30428SOL     OW96221   3.540   2.761   7.915 -0.0764 -0.1362 -0.1141
30428SOL    HW196222   3.484   2.685   7.932 -2.3205  1.4469  0.0599
30428SOL    HW296223   3.562   2.755   7.822 -2.6607  0.4442 -0.8415
30429SOL     OW96224   4.528   5.377   6.143 -0.4014  0.0707 -0.1951
30429SOL    HW196225   4.538   5.326   6.062  0.9322 -1.1578  0.6803
30429SOL    HW296226   4.508   5.311   6.210  0.6955  0.7624  0.8595
30430SOL     OW96227   4.266   2.547   6.030 -0.3069 -0.0474 -0.0964
30430SOL    HW196228   4.254   2.452   6.028  0.0398 -0.0936 -2.4756
30430SOL    HW296229   4.356   2.559   6.059 -0.1307 -0.4810 -0.4470
30431SOL     OW96230   8.204   9.687   2.577  0.3101 -0.1283 -0.2684
30431SOL    HW196231   8.245   9.657   2.658 -1.1466  0.5495  0.7712
30431SOL    HW296232   8.158   9.767   2.602 -0.2068  0.0743 -1.7695
30432SOL     OW96233   1.562   5.279   7.900  0.5167 -0.6560 -0.4837
30432SOL    HW196234   1.470   5.297   7.917  0.3362  0.4721 -2.3239
30432SOL    HW296235   1.562   5.195   7.854  0.1901  0.1412 -2.0083
30433SOL     OW96236   8.819   2.276   1.600  0.0076  0.4173 -0.4236
30433SOL    HW196237   8.886   2.237   1.544 -0.9562 -0.2411 -1.1636
30433SOL    HW296238   8.861   2.351   1.640  1.2965 -0.1960 -0.5782
30434SOL     OW96239   4.784   1.037   6.319 -0.1405  0.0874  0.1000
30434SOL    HW196240   4.705   1.060   6.367  0.1993  0.0350  0.7045
30434SOL    HW296241   4.770   0.947   6.289 -0.2853  0.0580  0.2580
30435SOL     OW96242   4.371   2.265   4.161 -0.0710 -0.0608 -0.0549
30435SOL    HW196243   4.434   2.335   4.177  0.0571  0.0276 -0.8739
30435SOL    HW296244   4.346   2.276   4.069 -2.4866  0.8759  0.6220
30436SOL     OW96245   2.682   5.542   9.236 -0.3547 -0.3149  0.2734
30436SOL    HW196246   2.754   5.483   9.215  1.0245  1.7928 -1.3629
30436SOL    HW296247   2.694   5.563   9.328  2.5393  1.6467 -0.4436
30437SOL     OW96248   7.271   2.880   4.073  0.4898  0.3144  0.0114
30437SOL    HW196249   7.286   2.972   4.096  1.1866  0.5295 -1.1923
30437SOL    HW296250   7.296   2.831   4.152  1.2766  1.0965  0.2593
30438SOL     OW96251   1.347   1.348   9.152 -0.0742 -0.5734  0.6561
30438SOL    HW196252   1.390   1.270   9.116 -0.3842 -0.3882 -0.1348
30438SOL    HW296253   1.405   1.377   9.223  1.5853  0.1817 -0.9386
30439SOL     OW96254  10.670   0.954  10.723 -0.3894  0.2420 -0.0511
30439SOL    HW196255  10.582   0.920  10.736  0.0979 -0.1452  2.7162
30439SOL    HW296256  10.701   0.976  10.810  1.1157  3.4306 -1.2089
30440SOL     OW96257   4.954   6.907   9.764 -0.2059 -0.0317  0.5543
30440SOL    HW196258   5.001   6.988   9.783  3.6144 -1.6478 -1.0191
30440SOL    HW296259   4.925   6.875   9.849  0.8143  1.5521  1.5390
30441SOL     OW96260   9.817   5.656   5.705 -0.4807  0.1708  0.6778
30441SOL    HW196261   9.770   5.713   5.644 -3.3032 -3.6977 -1.2220
30441SOL    HW296262   9.752   5.631   5.770  0.4935 -1.1193  1.2008
30442SOL     OW96263   4.958   8.689   4.780 -0.1857 -0.2306  0.1362
30442SOL    HW196264   5.020   8.746   4.826 -0.3395  1.2577 -1.4060
30442SOL    HW296265   4.884   8.746   4.758  0.5168 -0.4144 -3.2304
30443SOL     OW96266   7.339   2.867   1.226 -0.4532 -0.5283  0.0146
30443SOL    HW196267   7.427   2.884   1.259 -0.3109 -0.2222 -0.5031
30443SOL    HW296268   7.285   2.936   1.265  0.1165  1.1955 -2.0506
30444SOL     OW96269   1.775   9.211  11.461  0.9445  0.5864  0.5521
30444SOL    HW196270   1.854   9.159  11.471  0.0111 -0.9839  0.1977
30444SOL    HW296271   1.704   9.146  11.465 -0.2898  1.8928  0.4409
30445SOL     OW96272   2.346   8.762   6.953  0.9144 -0.3495 -0.6462
30445SOL    HW196273   2.262   8.768   6.999  1.4625  0.5581  0.2636
30445SOL    HW296274   2.378   8.675   6.975  1.3746  0.2275  1.1020
30446SOL     OW96275   5.526   6.713   0.381 -0.4068  0.1604  0.0767
30446SOL    HW196276   5.548   6.662   0.459 -1.4638  2.7539  2.2739
30446SOL    HW296277   5.435   6.691   0.362  0.0707 -1.0244 -0.9520
30447SOL     OW96278   0.069   4.406  10.490  0.8259 -0.3074  0.0263
30447SOL    HW196279   0.157   4.385  10.459  0.7499  0.4918 -0.7944
30447SOL    HW296280   0.077   4.494  10.527  0.9421 -1.3011  2.5273
30448SOL     OW96281   2.793   2.487   8.519  0.7057  0.3076  0.3596
30448SOL    HW196282   2.755   2.575   8.510 -0.7769 -0.2320  0.9375
30448SOL    HW296283   2.771   2.461   8.608  1.9987 -0.2783  0.5276
30449SOL     OW96284   3.602   6.335   3.893 -0.4540  0.0319 -0.4316
30449SOL    HW196285   3.641   6.249   3.908 -0.7693  0.1802  1.5425
30449SOL    HW296286   3.677   6.394   3.885 -0.2400 -0.1716  0.0224
30450SOL     OW96287   8.924   0.808  11.075  0.5599 -0.5831  0.3088
30450SOL    HW196288   9.018   0.793  11.070  0.6761  0.1150  0.3286
30450SOL    HW296289   8.911   0.895  11.037 -0.2643 -1.3199 -1.1488
30451SOL     OW96290   8.612   0.519   9.142 -0.1448  0.4058 -0.5885
30451SOL    HW196291   8.703   0.511   9.114 -0.3612 -3.8497 -0.6608
30451SOL    HW296292   8.563   0.525   9.060 -0.0536  0.8748 -0.6117
30452SOL     OW96293   8.306   0.668   2.858 -0.1179 -0.4362  0.5424
30452SOL    HW196294   8.356   0.748   2.873  1.1978 -0.6278 -2.0561
30452SOL    HW296295   8.218   0.686   2.891 -0.7911  3.3063 -2.6087
30453SOL     OW96296   5.575   7.646  10.177  0.1628  0.3921  0.3851
30453SOL    HW196297   5.599   7.561  10.140 -5.3599 -1.7186  0.6083
30453SOL    HW296298   5.575   7.706  10.103  0.9098 -0.6416 -0.4733
30454SOL     OW96299   2.361   6.079   9.779  0.1119 -0.1486 -0.2896
30454SOL    HW196300   2.340   6.081   9.873 -0.8834  0.9241 -0.5102
30454SOL    HW296301   2.305   6.146   9.741  0.9924 -0.1091 -1.5675
30455SOL     OW96302   0.208   9.722   9.048 -0.4835  0.2359 -0.0204
30455SOL    HW196303   0.246   9.639   9.019  1.7503  0.7252  1.3137
30455SOL    HW296304   0.114   9.712   9.031 -0.2281 -2.3893 -0.3057
30456SOL     OW96305   8.159   9.196   9.932 -0.2666  0.2784  0.3201
30456SOL    HW196306   8.097   9.163   9.867 -0.5248 -1.1925  1.2725
30456SOL    HW296307   8.151   9.291   9.927 -2.8966  0.1509  0.6909
30457SOL     OW96308   0.241   6.214   6.866 -0.2519 -0.7369  0.0368
30457SOL    HW196309   0.309   6.271   6.903 -1.5249  1.0359 -0.2237
30457SOL    HW296310   0.179   6.274   6.824 -0.2946 -2.4671 -2.6715
30458SOL     OW96311   6.688   3.057   3.160  0.0068 -0.4403  0.2901
30458SOL    HW196312   6.629   3.129   3.138  0.0483 -0.6616 -0.5814
30458SOL    HW296313   6.715   3.075   3.250  1.5004  1.6684 -0.4953
30459SOL     OW96314   0.767  11.172   2.688 -0.0425 -0.3946  0.6801
30459SOL    HW196315   0.685  11.221   2.690  1.0677  1.5912  0.1414
30459SOL    HW296316   0.830  11.232   2.647  2.2662 -0.9136  3.1679
30460SOL     OW96317   8.512   6.400   0.431 -0.0055  0.3939 -0.2862
30460SOL    HW196318   8.455   6.380   0.505  2.0583 -0.0983  1.2561
30460SOL    HW296319   8.547   6.487   0.451 -1.3171  1.3853 -1.9980
30461SOL     OW96320   2.241   3.986   6.702 -0.9028 -0.1234 -0.0332
30461SOL    HW196321   2.255   3.893   6.716 -0.8829 -0.1828 -0.4544
30461SOL    HW296322   2.312   4.028   6.751 -1.2132 -0.3028  0.5908
30462SOL     OW96323   2.028   3.103   9.849  0.2599 -0.2958  0.5591
30462SOL    HW196324   2.042   3.089   9.943  0.5203  1.1577  0.7648
30462SOL    HW296325   2.102   3.059   9.807  0.7715  0.0227  1.1092
30463SOL     OW96326  11.447   9.398   9.119  0.4549 -0.0047  0.2606
30463SOL    HW196327  11.403   9.319   9.151  0.8985  0.1697  1.3263
30463SOL    HW296328  11.537   9.391   9.153 -0.0241  1.9259  2.1204
30464SOL     OW96329  10.966  10.300   6.836 -0.6464 -0.3512  0.1333
30464SOL    HW196330  11.054  10.328   6.861 -0.4631  0.6216 -1.4497
30464SOL    HW296331  10.939  10.363   6.769 -1.4723 -2.1817 -1.3519
30465SOL     OW96332   2.442   6.920   7.624  0.5335  0.0591 -0.2930
30465SOL    HW196333   2.428   7.004   7.579  0.4574  0.1577 -0.0839
30465SOL    HW296334   2.378   6.861   7.583  1.6476 -0.3182 -1.5491
30466SOL     OW96335   3.629   1.537   8.636 -0.1823 -0.6287 -0.1214
30466SOL    HW196336   3.539   1.514   8.616 -0.0998 -0.3097 -0.9034
30466SOL    HW296337   3.634   1.632   8.621  0.0935 -0.5118  0.6595
30467SOL     OW96338   1.641  10.811   7.402  0.0828 -0.5067  0.2051
30467SOL    HW196339   1.625  10.738   7.462 -1.7126 -1.3525 -1.1985
30467SOL    HW296340   1.568  10.871   7.417 -1.7331 -1.8126 -2.5760
30468SOL     OW96341  10.453   9.091   2.467  0.4888 -0.0446  0.0049
30468SOL    HW196342  10.440   9.129   2.380  0.8564 -2.4925 -1.2066
30468SOL    HW296343  10.539   9.122   2.495  0.4150  0.6777 -0.5562
30469SOL     OW96344   3.637   7.026  10.827 -0.2146 -0.7688 -0.0213
30469SOL    HW196345   3.580   6.984  10.891 -0.3057 -1.7481 -0.7144
30469SOL    HW296346   3.651   7.114  10.861  0.2995 -1.4670  1.7082
30470SOL     OW96347  10.779   0.654  10.077 -0.1073  0.0590  0.0280
30470SOL    HW196348  10.758   0.615  10.161  0.0551 -1.8464 -0.7463
30470SOL    HW296349  10.720   0.611  10.015  0.7054  0.4062 -1.0197
30471SOL     OW96350   5.998   4.330   3.487  0.4198  0.3186  0.0803
30471SOL    HW196351   6.013   4.290   3.401 -0.6662 -1.6867  0.7481
30471SOL    HW296352   6.046   4.273   3.548 -0.1810  0.7425  0.9670
30472SOL     OW96353   6.793   2.242   7.852 -0.1593 -0.2036 -0.4796
30472SOL    HW196354   6.742   2.161   7.841  1.5675 -1.2677 -1.1755
30472SOL    HW296355   6.823   2.263   7.763 -1.0247  1.5547 -0.3941
30473SOL     OW96356   5.158   6.617   4.210  0.0587  0.2599 -0.1073
30473SOL    HW196357   5.107   6.694   4.235 -1.5154 -1.0787  1.0073
30473SOL    HW296358   5.148   6.611   4.115 -1.4118  0.3549  0.0249
30474SOL     OW96359   1.538   1.512   5.401 -0.2711  0.1388 -0.2718
30474SOL    HW196360   1.579   1.589   5.441 -0.0539  0.0407 -0.3014
30474SOL    HW296361   1.500   1.544   5.319 -0.2621  0.2358 -0.2374
30475SOL     OW96362   5.850   6.939   7.025 -0.0176 -0.3175 -0.4372
30475SOL    HW196363   5.777   6.885   6.998 -0.3865  0.9203 -2.0850
30475SOL    HW296364   5.909   6.940   6.950  0.3163  0.9579 -0.1886
30476SOL     OW96365   3.356   8.858   3.414  0.4348  0.3779 -0.0055
30476SOL    HW196366   3.389   8.858   3.504  0.0503  0.6173  0.1390
30476SOL    HW296367   3.266   8.824   3.422  0.5283  0.0534 -0.3463
30477SOL     OW96368   0.186   4.438   4.926 -0.3766 -0.0700 -0.0174
30477SOL    HW196369   0.152   4.477   4.845 -1.0767  0.0640  0.3326
30477SOL    HW296370   0.172   4.505   4.993 -0.7085 -0.5501  0.4029
30478SOL     OW96371   5.343   9.484   9.402 -0.1295 -0.3128  1.0327
30478SOL    HW196372   5.366   9.498   9.310  0.2119 -2.5435  0.7223
30478SOL    HW296373   5.383   9.400   9.424 -1.3085 -0.4537  2.8496
30479SOL     OW96374   2.721   7.441   9.960  0.2816 -0.3849  0.2416
30479SOL    HW196375   2.697   7.456   9.869  2.2347  0.8514 -0.1095
30479SOL    HW296376   2.678   7.512  10.008  1.3658  0.5135 -0.0884
30480SOL     OW96377  10.737   6.729   8.977  0.6391  0.4156  0.5393
30480SOL    HW196378  10.818   6.693   9.014  0.5406 -0.0878  0.2890
30480SOL    HW296379  10.740   6.822   8.998  0.6255  0.1675  1.7303
30481SOL     OW96380   5.714   4.432   9.711 -0.6410  0.1221  0.2327
30481SOL    HW196381   5.791   4.387   9.746 -1.1892 -0.4271  0.7421
30481SOL    HW296382   5.751   4.496   9.650  0.4117  1.7006  2.3969
30482SOL     OW96383   7.788  10.231   3.920 -0.2266  0.2956  0.5551
30482SOL    HW196384   7.793  10.304   3.981 -0.6289  0.8040 -0.0018
30482SOL    HW296385   7.695  10.225   3.896  0.2451  1.9555 -2.1445
30483SOL     OW96386  10.650   5.376   6.151  0.2635 -0.3369  0.3376
30483SOL    HW196387  10.647   5.281   6.136 -0.1950 -0.2230 -0.3528
30483SOL    HW296388  10.561   5.398   6.180  0.0174  0.0496 -0.6522
30484SOL     OW96389   3.077   8.437   1.583  0.2758  0.2376 -0.1447
30484SOL    HW196390   3.163   8.450   1.542 -0.2127 -1.5874 -1.9051
30484SOL    HW296391   3.074   8.343   1.604 -1.7863 -0.0450 -1.4213
30485SOL     OW96392   4.225   2.727   4.969  0.6147  0.0662 -0.1384
30485SOL    HW196393   4.190   2.802   4.922  1.1685 -0.9084 -2.2279
30485SOL    HW296394   4.311   2.755   4.999  0.9710  0.1850 -1.2234
30486SOL     OW96395   9.759   7.252   1.317 -0.0115  0.1409 -0.3644
30486SOL    HW196396   9.834   7.214   1.270  0.2080 -0.7794  0.6750
30486SOL    HW296397   9.747   7.338   1.278  0.8138 -0.1860 -1.3883
30487SOL     OW96398  11.324   4.763   0.171 -0.0798  0.3625 -0.3659
30487SOL    HW196399  11.318   4.680   0.125 -3.5874  0.0266  0.3984
30487SOL    HW296400  11.418   4.774   0.190  0.7154 -2.4016 -2.1865
30488SOL     OW96401   1.989  10.077   8.937 -0.5542 -0.3615 -0.0406
30488SOL    HW196402   1.986  10.144   9.006 -2.0414 -0.8270  0.3924
30488SOL    HW296403   2.080  10.077   8.908 -0.7514  2.9526 -1.1505
30489SOL     OW96404   2.167   2.492   8.881  0.0074  0.3154 -0.0941
30489SOL    HW196405   2.102   2.498   8.812 -0.6384  0.2939  0.5056
30489SOL    HW296406   2.156   2.573   8.932 -0.5625 -0.3609  0.8831
30490SOL     OW96407   2.248   7.627   2.521  0.0427 -0.3669  0.0375
30490SOL    HW196408   2.196   7.691   2.570  0.6706  0.6041 -0.5318
30490SOL    HW296409   2.308   7.680   2.469  0.5325 -1.4297 -0.5059
30491SOL     OW96410   6.748   5.870   8.365 -0.7597 -0.4553  0.3258
30491SOL    HW196411   6.812   5.844   8.430 -1.8427 -0.8773  1.2554
30491SOL    HW296412   6.664   5.865   8.410 -1.6887 -1.9758 -1.4190
30492SOL     OW96413   9.609   0.230   2.705 -0.1638  0.1653 -0.9523
30492SOL    HW196414   9.698   0.230   2.672  0.3892 -0.7911  0.4770
30492SOL    HW296415   9.600   0.315   2.750 -0.4921  0.9004 -2.3443
30493SOL     OW96416  10.259   3.754   4.946 -0.5565  0.1306  0.6309
30493SOL    HW196417  10.264   3.726   4.855  2.9395  0.5859  0.5301
30493SOL    HW296418  10.199   3.693   4.988 -0.3899 -1.5794 -1.4981
30494SOL     OW96419   5.236   1.050   6.677  0.0485 -0.5691 -0.0843
30494SOL    HW196420   5.206   1.029   6.589 -1.0524  0.5510 -0.0214
30494SOL    HW296421   5.241   1.146   6.677  3.1684 -0.6599  0.1135
30495SOL     OW96422  10.793   0.703  11.542  0.1413  0.0838  0.6472
30495SOL    HW196423  10.861   0.768  11.559  0.9777 -0.3252 -0.9957
30495SOL    HW296424  10.735   0.744  11.479  0.2580 -0.4716  0.1704
30496SOL     OW96425   0.790   4.719   2.097 -0.1216 -0.1327  0.8791
30496SOL    HW196426   0.699   4.690   2.108 -0.8004  1.9124  1.0670
30496SOL    HW296427   0.793   4.754   2.008  0.0661  1.1184  1.3585
30497SOL     OW96428   6.447  10.911   2.988 -0.1018 -0.4036 -0.3851
30497SOL    HW196429   6.416  10.864   2.911 -1.9558 -0.2260  0.1979
30497SOL    HW296430   6.367  10.940   3.033  0.9347  0.5107  0.9830
30498SOL     OW96431   5.119   8.778   1.761  0.2769  0.3622  0.3472
30498SOL    HW196432   5.163   8.719   1.700  0.6952  0.5677  0.4480
30498SOL    HW296433   5.085   8.720   1.829 -0.1298  0.1387 -0.0346
30499SOL     OW96434   0.694   8.405   1.029  0.1588 -0.2770 -0.0610
30499SOL    HW196435   0.616   8.356   1.054  0.8148 -0.8288  0.9846
30499SOL    HW296436   0.762   8.338   1.018  0.2092  0.0443 -2.2669
30500SOL     OW96437   0.029   3.316  11.158  0.3391  0.0991  0.0983
30500SOL    HW196438   0.040   3.234  11.205  0.7633  1.3378  2.3229
30500SOL    HW296439   0.071   3.301  11.073 -0.6385 -2.3070 -0.0412
30501SOL     OW96440   7.936   5.894   2.803 -0.5180 -0.2028 -0.1858
30501SOL    HW196441   7.862   5.838   2.779 -0.2811 -1.2270  1.2907
30501SOL    HW296442   8.010   5.834   2.814 -0.0237  0.5099  0.5419
30502SOL     OW96443   5.398   0.601   2.495  0.2809  0.5804 -0.2594
30502SOL    HW196444   5.451   0.522   2.503  0.1104  0.5395  0.5874
30502SOL    HW296445   5.373   0.604   2.402  1.6889  0.5722 -0.6583
30503SOL     OW96446   6.544   9.774   1.701 -0.5044 -0.5248 -0.0175
30503SOL    HW196447   6.516   9.866   1.696 -0.4606 -0.5069  0.0593
30503SOL    HW296448   6.619   9.775   1.760 -1.1452 -0.7560  0.8279
30504SOL     OW96449  10.278   1.417   7.548  0.3120 -0.1924  0.2068
30504SOL    HW196450  10.244   1.473   7.619  0.7219 -0.1776  0.3989
30504SOL    HW296451  10.335   1.354   7.593  1.4975  0.5312 -0.2106
30505SOL     OW96452   5.048   9.874   9.160 -0.0936 -0.1837 -0.2369
30505SOL    HW196453   4.981   9.815   9.126  1.8874 -1.5188 -2.0036
30505SOL    HW296454   5.098   9.821   9.222  0.0602  0.4706  0.2128
30506SOL     OW96455   4.755  11.622  11.214 -0.6148 -0.3519  0.0707
30506SOL    HW196456   4.813  11.588  11.282 -0.4937  2.9813  1.8311
30506SOL    HW296457   4.731  11.710  11.245 -1.1715  1.0576 -3.8400
30507SOL     OW96458   5.704  11.686   6.686  0.7470 -0.4223  0.0027
30507SOL    HW196459   5.686  11.764   6.634  1.2839  0.1418  0.6559
30507SOL    HW296460   5.747  11.718   6.765  3.7959 -1.5977 -1.0186
30508SOL     OW96461   8.043   1.869   5.309 -0.0741 -0.4277 -0.0246
30508SOL    HW196462   7.960   1.843   5.269 -0.1165  0.0744 -0.2744
30508SOL    HW296463   8.055   1.960   5.281  0.7100 -0.5924 -0.2368
30509SOL     OW96464   5.853   8.123  11.292  0.0100 -0.0630  0.0658
30509SOL    HW196465   5.917   8.192  11.274 -1.1372  0.8615 -0.5664
30509SOL    HW296466   5.799   8.158  11.363 -0.5584 -0.3168 -0.2331
30510SOL     OW96467   3.632   3.360   1.941  0.6133  0.1673  0.0985
30510SOL    HW196468   3.569   3.429   1.962  1.2324  0.0182  2.8169
30510SOL    HW296469   3.716   3.394   1.972  1.1909 -1.1766  0.0759
30511SOL     OW96470  11.424   3.625   4.336 -0.2284  0.3698 -0.2029
30511SOL    HW196471  11.385   3.644   4.251  1.0567 -0.8666 -1.1319
30511SOL    HW296472  11.519   3.631   4.321  0.0295  0.0750  1.1223
30512SOL     OW96473   8.805   2.703   4.528  0.1734  0.3833 -0.3285
30512SOL    HW196474   8.738   2.659   4.581  0.5270  0.8831  0.5575
30512SOL    HW296475   8.756   2.767   4.476 -0.0322  0.9609  0.5422
30513SOL     OW96476   4.524   4.661   1.168  0.3485  0.8232 -0.4486
30513SOL    HW196477   4.546   4.677   1.077 -1.0944 -0.5746 -1.0925
30513SOL    HW296478   4.584   4.591   1.195  1.2542  1.7223 -0.0875
30514SOL     OW96479   1.971   6.590   9.357  0.1339  0.2622 -0.1593
30514SOL    HW196480   1.948   6.499   9.337  0.1596  0.0062  0.9343
30514SOL    HW296481   1.909   6.616   9.425  0.4985  0.8744 -0.0543
30515SOL     OW96482   8.284   0.873   9.677  0.4584 -0.0011  0.2443
30515SOL    HW196483   8.336   0.843   9.751  1.3624 -1.7714 -1.0400
30515SOL    HW296484   8.331   0.842   9.599 -0.6692  1.4156 -1.0867
30516SOL     OW96485  11.457   0.837  11.527  0.6287 -0.5009  0.2916
30516SOL    HW196486  11.473   0.918  11.576  0.3487 -1.7908  2.6839
30516SOL    HW296487  11.486   0.767  11.587  0.0742 -2.2151 -1.3413
30517SOL     OW96488   4.152   7.879  10.054  0.0666 -0.3514 -0.6581
30517SOL    HW196489   4.194   7.817  10.115 -0.8543  0.0235  0.3832
30517SOL    HW296490   4.216   7.950  10.046  0.1332 -0.3182  0.0253
30518SOL     OW96491  11.312   7.926   5.579 -0.0914 -0.6117 -0.1605
30518SOL    HW196492  11.291   7.882   5.660 -0.2402 -0.1573  0.0521
30518SOL    HW296493  11.319   8.019   5.603  1.0736 -0.6073 -0.4230
30519SOL     OW96494   9.410  10.474   6.074  0.5886  0.4108  0.5138
30519SOL    HW196495   9.364  10.553   6.045  0.1773  1.6004  3.9344
30519SOL    HW296496   9.346  10.427   6.127  1.1162 -1.8494 -0.7230
30520SOL     OW96497   4.077   5.463   4.413 -0.0583 -0.5693  0.5747
30520SOL    HW196498   4.011   5.464   4.344 -0.1322 -0.6417  0.6453
30520SOL    HW296499   4.036   5.418   4.486 -0.0006 -0.4422  0.6875
30521SOL     OW96500   2.288   6.276   7.630 -0.2586  0.0736  0.0719
30521SOL    HW196501   2.358   6.317   7.580  0.7628 -2.1707 -0.4589
30521SOL    HW296502   2.208   6.299   7.583  0.5385 -0.6649 -1.7235
30522SOL     OW96503   5.993   4.034   1.969 -0.3574 -0.0963 -0.7053
30522SOL    HW196504   5.979   4.083   2.049 -2.2306 -2.9818  0.9149
30522SOL    HW296505   5.976   4.097   1.898  0.2690  2.2352  1.0990
30523SOL     OW96506   9.258   1.239   1.410 -0.3521 -0.2034  0.2914
30523SOL    HW196507   9.220   1.152   1.397  1.1768 -1.0037  0.9510
30523SOL    HW296508   9.335   1.240   1.353 -0.5859  0.8989 -0.0324
30524SOL     OW96509   1.815   0.345  10.851 -0.0741 -0.0519  0.3328
30524SOL    HW196510   1.799   0.370  10.760 -1.9219  0.8975  0.8578
30524SOL    HW296511   1.755   0.271  10.866 -0.3848  0.3221  0.9834
30525SOL     OW96512   6.480   8.744   7.619 -0.4227 -0.1084  0.0499
30525SOL    HW196513   6.475   8.798   7.540  0.5679 -0.2682 -0.1366
30525SOL    HW296514   6.472   8.654   7.588 -0.8642 -0.1344  0.2297
30526SOL     OW96515  10.491   1.705   0.927  0.3905  0.2738  0.0605
30526SOL    HW196516  10.481   1.754   1.009 -0.5517  0.4155 -0.1245
30526SOL    HW296517  10.575   1.661   0.936  1.2171  1.8078  0.2973
30527SOL     OW96518   3.015   1.677   4.043 -0.1128  0.0378 -0.4657
30527SOL    HW196519   3.029   1.731   3.965  1.4583  1.8401  0.9678
30527SOL    HW296520   3.103   1.657   4.075 -0.7178 -0.1670  1.1680
30528SOL     OW96521   2.412   7.567   5.030 -0.2458  0.1449  0.7600
30528SOL    HW196522   2.474   7.495   5.044  0.1561  0.3692  0.1946
30528SOL    HW296523   2.352   7.534   4.964 -0.2168  0.2323  0.6897
30529SOL     OW96524   1.011   6.466   9.232  0.2574 -0.1866  0.1103
30529SOL    HW196525   1.010   6.388   9.286  1.9053 -0.3980 -0.1183
30529SOL    HW296526   1.074   6.524   9.274  0.6360  0.1462 -0.8911
30530SOL     OW96527   1.025   0.381   6.110  0.0457 -0.4875 -0.3219
30530SOL    HW196528   0.951   0.442   6.106 -1.1223 -1.8354 -0.0608
30530SOL    HW296529   1.078   0.402   6.033 -1.0085  0.0022 -0.9267
30531SOL     OW96530   8.652   0.991   8.485 -0.6463 -0.6838 -0.2875
30531SOL    HW196531   8.725   1.044   8.453 -0.7347 -0.0535  0.5048
30531SOL    HW296532   8.583   1.004   8.420 -0.9042  0.7720  0.2293
30532SOL     OW96533   2.704   7.771   2.339  0.4279 -0.3416 -0.2047
30532SOL    HW196534   2.636   7.796   2.402  0.1399 -0.1306 -0.5933
30532SOL    HW296535   2.735   7.686   2.370  0.9760  0.1976  0.7756
30533SOL     OW96536   1.151   5.503  11.147 -0.6153  0.1628 -0.0502
30533SOL    HW196537   1.175   5.497  11.239  0.5785 -1.2841 -0.4194
30533SOL    HW296538   1.172   5.417  11.110 -2.0042  0.3695 -1.4703
30534SOL     OW96539   7.503   6.851   2.843 -0.5513 -0.4151 -0.1949
30534SOL    HW196540   7.537   6.786   2.905  1.7405  0.1879 -0.7019
30534SOL    HW296541   7.428   6.890   2.887 -0.1936 -1.3863  1.3624
30535SOL     OW96542   0.831   3.551   8.207 -0.3239 -0.2707  0.8225
30535SOL    HW196543   0.790   3.472   8.173  1.4940 -0.8733 -0.0969
30535SOL    HW296544   0.883   3.585   8.135 -0.6914  1.5300  1.3498
30536SOL     OW96545  10.848   5.542   1.889 -0.8303 -0.1511 -0.0716
30536SOL    HW196546  10.846   5.463   1.943 -1.1563 -0.3360 -0.3475
30536SOL    HW296547  10.927   5.534   1.837 -0.5596 -0.0132  0.3156
30537SOL     OW96548   6.052   5.120   9.706  0.7755 -0.3488  0.0737
30537SOL    HW196549   6.072   5.029   9.728 -2.6078 -1.1374  0.3897
30537SOL    HW296550   5.976   5.142   9.760  1.0363  2.4673 -0.5361
30538SOL     OW96551   9.035   2.150   9.790 -0.2086  0.2333 -0.2127
30538SOL    HW196552   9.074   2.065   9.810 -0.6075  0.3187  1.0435
30538SOL    HW296553   9.088   2.212   9.840 -1.0054  0.5127  0.2960
30539SOL     OW96554   6.138   2.137   1.202 -0.4026  0.2346  0.1490
30539SOL    HW196555   6.095   2.129   1.117 -1.2379  4.1657  0.0092
30539SOL    HW296556   6.230   2.154   1.182 -0.6063  1.1959 -0.0219
30540SOL     OW96557   4.670   4.726   6.393 -0.8665  0.0282 -0.1434
30540SOL    HW196558   4.627   4.655   6.440 -1.1058  0.4733  0.3210
30540SOL    HW296559   4.764   4.707   6.401 -0.9546 -1.4327 -1.9193
30541SOL     OW96560   8.702   5.683   5.537  0.3903 -0.3968  0.0948
30541SOL    HW196561   8.771   5.640   5.587 -0.2809 -0.0987  1.3106
30541SOL    HW296562   8.620   5.658   5.581 -0.0924  1.3130  0.2569
30542SOL     OW96563   1.064   4.561   8.092  0.5203 -0.1211  0.3499
30542SOL    HW196564   1.130   4.626   8.115 -1.7040  2.6144 -0.4335
30542SOL    HW296565   0.982   4.598   8.123 -1.0359 -2.0093 -1.1974
30543SOL     OW96566   6.686   4.137   7.182 -0.4037  0.4993  0.0121
30543SOL    HW196567   6.630   4.133   7.259 -1.4347  1.1556 -0.6857
30543SOL    HW296568   6.629   4.166   7.112  0.8327  1.2629 -0.7094
30544SOL     OW96569   4.731   9.483   5.077 -0.3922 -0.0133  0.8888
30544SOL    HW196570   4.802   9.438   5.123 -1.8590 -1.4638  1.8930
30544SOL    HW296571   4.662   9.416   5.070 -1.2242  0.9869 -1.0914
30545SOL     OW96572   4.249   3.997   3.765 -0.0491 -0.7824  0.2277
30545SOL    HW196573   4.173   3.940   3.754 -0.8220  0.4277 -1.2289
30545SOL    HW296574   4.211   4.083   3.784  1.0192 -0.4546  0.9487
30546SOL     OW96575   7.637   3.874   9.631  0.0186  0.4337 -0.5900
30546SOL    HW196576   7.549   3.873   9.667  0.0181 -1.3242 -0.5701
30546SOL    HW296577   7.628   3.916   9.545  0.0026  4.6328  1.1897
30547SOL     OW96578   3.026  11.195  11.636 -0.3968  0.1012 -0.1406
30547SOL    HW196579   3.046  11.170  11.546  3.0135 -0.6117  0.6691
30547SOL    HW296580   3.062  11.284  11.644  1.1350 -0.5806  0.9856
30548SOL     OW96581   6.177  10.671   4.016  0.3957  0.6235 -0.0571
30548SOL    HW196582   6.208  10.585   4.043  0.4360  0.7170  0.1970
30548SOL    HW296583   6.160  10.717   4.098 -3.1748 -0.3673 -0.0805
30549SOL     OW96584   6.567   9.180   2.918  0.8762  0.1739  0.4316
30549SOL    HW196585   6.547   9.216   2.831  1.4452  0.9600  0.6135
30549SOL    HW296586   6.652   9.138   2.907  0.0554 -1.5259  0.1272
30550SOL     OW96587   6.396   4.979   4.065  0.1519 -0.4896  0.4331
30550SOL    HW196588   6.452   4.996   3.989 -1.4782 -0.8513 -0.8964
30550SOL    HW296589   6.412   4.886   4.085  0.8534 -0.3007  0.7801
30551SOL     OW96590   2.901   0.442   7.420  0.6159  0.9809  0.3083
30551SOL    HW196591   2.887   0.523   7.468 -2.5141 -0.3818  2.0458
30551SOL    HW296592   2.818   0.426   7.374  0.9550 -1.3740  0.3460
30552SOL     OW96593   4.463   2.560  11.330  0.1390 -0.0510 -0.4428
30552SOL    HW196594   4.484   2.594  11.243  1.1506  1.3573  0.3061
30552SOL    HW296595   4.375   2.591  11.349 -0.5911 -1.4109 -1.4270
30553SOL     OW96596   6.382   9.864   3.648 -0.1691 -0.0513 -0.1938
30553SOL    HW196597   6.404   9.866   3.741  0.2528 -1.3177 -0.2423
30553SOL    HW296598   6.392   9.772   3.623 -0.9437  0.1463 -1.3360
30554SOL     OW96599  11.200   9.912   8.242 -0.1395  0.1670  0.5011
30554SOL    HW196600  11.200   9.939   8.334  0.3684 -0.6840  0.7554
30554SOL    HW296601  11.122   9.857   8.233  0.5975 -0.9546  0.7956
30555SOL     OW96602  11.592   5.055   3.076 -0.4918 -0.3525  0.1637
30555SOL    HW196603  11.663   5.117   3.060 -1.7891  1.2512  0.2858
30555SOL    HW296604  11.579   5.059   3.171 -2.2373  1.1871 -0.0855
30556SOL     OW96605   9.985   9.992   2.917  0.0317 -0.4053 -0.4272
30556SOL    HW196606   9.924   9.994   2.990 -0.7025 -0.2140 -1.0287
30556SOL    HW296607  10.071   9.979   2.957 -0.5151 -1.7266  0.3657
30557SOL     OW96608   1.091  10.196  10.360 -0.6230 -0.0508  0.3179
30557SOL    HW196609   1.052  10.263  10.304 -1.8239 -1.2133 -0.3052
30557SOL    HW296610   1.139  10.140  10.298  1.1253  0.7016  0.9352
30558SOL     OW96611   5.663  11.106   5.385  0.5497 -0.1999  0.0318
30558SOL    HW196612   5.596  11.058   5.434  0.1325 -1.7896 -2.0018
30558SOL    HW296613   5.614  11.170   5.333  0.3935 -2.1264 -2.3342
30559SOL     OW96614   1.795   8.826   7.776  0.0376 -0.5964 -0.2173
30559SOL    HW196615   1.845   8.894   7.729 -0.1351  0.5958  1.2390
30559SOL    HW296616   1.705   8.837   7.745 -0.3470  1.1460  1.3495
30560SOL     OW96617   9.304   9.965   9.030  0.0224  0.1448  0.1670
30560SOL    HW196618   9.321  10.054   9.062  0.3865 -0.1475  0.8131
30560SOL    HW296619   9.262   9.921   9.103  2.6856 -1.1364  1.0736
30561SOL     OW96620   4.009   0.889   3.908  0.4941  0.2248 -0.7181
30561SOL    HW196621   3.965   0.829   3.968  1.4769  0.4478  0.2611
30561SOL    HW296622   3.961   0.972   3.917 -0.2363 -0.1228 -1.3184
30562SOL     OW96623   6.341  10.829   5.407 -0.2991 -0.4810  0.1680
30562SOL    HW196624   6.374  10.740   5.404  0.4151 -0.3205  2.1113
30562SOL    HW296625   6.245  10.819   5.407 -0.2356 -1.1864 -0.4531
30563SOL     OW96626   2.238   7.339   3.201  0.2661  0.1650  0.3555
30563SOL    HW196627   2.207   7.286   3.128  1.1901 -1.4814  1.0708
30563SOL    HW296628   2.325   7.368   3.175 -0.1599  1.1993  0.0479
30564SOL     OW96629  11.283   9.132   7.111  0.6835 -0.2655 -0.3840
30564SOL    HW196630  11.304   9.141   7.018  2.3828 -0.9865 -0.1154
30564SOL    HW296631  11.189   9.147   7.116  0.6232  0.1970 -2.1573
30565SOL     OW96632   5.258   4.262   7.245 -0.0065  0.3698  0.1136
30565SOL    HW196633   5.225   4.352   7.246  0.0339  0.3900 -0.2228
30565SOL    HW296634   5.284   4.247   7.154  1.4705  0.5521  0.4768
30566SOL     OW96635  10.147   7.624   4.187  0.3444 -0.2593  0.3584
30566SOL    HW196636  10.073   7.679   4.163  0.3477 -0.7180 -0.7709
30566SOL    HW296637  10.122   7.584   4.271 -0.3371  0.2033  0.3816
30567SOL     OW96638   8.696  11.031   7.253  0.5122  0.2338  0.1329
30567SOL    HW196639   8.663  10.967   7.316  0.6872 -0.3098 -0.3195
30567SOL    HW296640   8.770  10.987   7.211  0.8323  0.8541  0.0400
30568SOL     OW96641   5.951   9.124   4.886  0.0339 -0.2397  0.2521
30568SOL    HW196642   6.038   9.109   4.923  0.0898 -0.8520 -0.1234
30568SOL    HW296643   5.968   9.147   4.794 -0.0248  2.2997  0.7921
30569SOL     OW96644   4.052  10.671   1.323 -0.3818  0.2683 -0.0047
30569SOL    HW196645   4.111  10.619   1.268  1.1862  2.3801 -0.4062
30569SOL    HW296646   3.994  10.606   1.362  0.0824 -1.5781 -2.1496
30570SOL     OW96647   9.143   2.835   3.775  0.1489 -0.3701 -1.0803
30570SOL    HW196648   9.092   2.843   3.856  0.6283 -2.3674 -0.5291
30570SOL    HW296649   9.196   2.915   3.773 -0.5521  0.1585  0.0895
30571SOL     OW96650   7.279   0.011   0.973 -0.1861 -0.2699 -0.1490
30571SOL    HW196651   7.206  -0.044   0.946 -0.6631  0.2613  0.0405
30571SOL    HW296652   7.298  -0.015   1.063 -0.2252 -0.3197 -0.1556
30572SOL     OW96653   1.820   5.430   3.228  0.1638 -0.5600  0.1179
30572SOL    HW196654   1.787   5.412   3.140  2.0620  1.6252 -1.1758
30572SOL    HW296655   1.812   5.525   3.237  2.1229 -0.4676  1.3535
30573SOL     OW96656   1.360   7.731   6.186 -0.1512 -0.4804  0.1162
30573SOL    HW196657   1.306   7.746   6.109 -0.4494  1.4715  0.6598
30573SOL    HW296658   1.301   7.693   6.251 -0.0251 -1.6092 -0.4073
30574SOL     OW96659   5.349   3.734   1.326 -0.1561  0.4615  0.2074
30574SOL    HW196660   5.293   3.803   1.292  2.1610  1.4506 -1.8633
30574SOL    HW296661   5.329   3.658   1.271 -0.7058  0.2855  0.6432
30575SOL     OW96662   1.950   1.138  11.601 -0.5310  0.1535  0.4408
30575SOL    HW196663   1.934   1.204  11.534  0.1866 -0.2105 -0.1145
30575SOL    HW296664   2.044   1.146  11.620 -0.2649 -1.1807 -0.1837
30576SOL     OW96665   3.615   3.285   3.211 -0.1199  0.1252  0.1422
30576SOL    HW196666   3.700   3.309   3.174 -0.0358  0.7029  0.6907
30576SOL    HW296667   3.619   3.190   3.219  0.9884  0.2373  1.3339
30577SOL     OW96668   6.662   1.816   9.697 -1.0681  0.7620 -0.4887
30577SOL    HW196669   6.688   1.907   9.711 -0.8357  0.3756  1.8839
30577SOL    HW296670   6.599   1.820   9.625 -0.5504  2.6954 -0.8849
30578SOL     OW96671   4.005   6.400   0.049 -0.5335 -0.5133  0.0305
30578SOL    HW196672   3.912   6.415   0.035 -0.3392  1.0255  0.2049
30578SOL    HW296673   4.048   6.471   0.001  0.5194 -0.8716  0.4188
30579SOL     OW96674   9.671   9.636   4.695  0.2844  0.6772  0.5872
30579SOL    HW196675   9.582   9.670   4.692  0.0567  0.0347 -0.4570
30579SOL    HW296676   9.664   9.554   4.743 -0.4116 -1.2672 -2.5342
30580SOL     OW96677  10.219   3.479   6.157  0.2738 -0.0830 -0.2141
30580SOL    HW196678  10.177   3.442   6.079  0.0559  1.9359 -1.1121
30580SOL    HW296679  10.177   3.564   6.169  1.4786  0.3633  1.1285
30581SOL     OW96680  10.807   9.913   7.969  0.0492 -0.2132 -0.1202
30581SOL    HW196681  10.779   9.878   7.884  0.6383 -0.6703 -0.1303
30581SOL    HW296682  10.830   9.835   8.020  1.5632  0.1648 -0.2091
30582SOL     OW96683   5.058   3.655  10.895 -0.0578 -0.0384  0.2748
30582SOL    HW196684   5.142   3.616  10.869  0.7938  1.7668  0.1336
30582SOL    HW296685   5.074   3.689  10.983 -1.3270 -1.5124  1.1135
30583SOL     OW96686   7.884   4.256   9.379  0.1115 -0.4916 -0.7491
30583SOL    HW196687   7.913   4.296   9.297 -0.8455  2.2477  0.1144
30583SOL    HW296688   7.800   4.216   9.359 -0.4778  0.8247 -0.9907
30584SOL     OW96689   4.348   1.661   4.548 -0.2600 -0.3020  0.6059
30584SOL    HW196690   4.307   1.610   4.478 -0.0780 -0.7549  0.8262
30584SOL    HW296691   4.275   1.696   4.599 -0.3943  0.0240  0.1973
30585SOL     OW96692   7.333   1.956   3.519 -0.6511 -0.0939 -0.0452
30585SOL    HW196693   7.376   1.874   3.542 -0.5167 -0.4358 -1.3887
30585SOL    HW296694   7.402   2.007   3.475 -1.2827 -0.1643 -1.1578
30586SOL     OW96695  10.685   0.424   8.834  0.4296 -0.2022  0.0527
30586SOL    HW196696  10.685   0.496   8.770  2.6398 -0.9869 -0.9221
30586SOL    HW296697  10.592   0.405   8.847 -0.1460  0.7244 -2.1242
30587SOL     OW96698   6.758   9.381   6.038 -0.1723  0.0751 -0.0600
30587SOL    HW196699   6.823   9.451   6.046 -0.3143  0.6535 -2.8490
30587SOL    HW296700   6.676   9.420   6.070  0.7547 -0.8607  4.1039
30588SOL     OW96701   2.808   5.607   0.989  0.6181  0.1443  0.7461
30588SOL    HW196702   2.818   5.512   0.976  2.0039  0.3802 -0.1603
30588SOL    HW296703   2.725   5.628   0.946  0.1075 -0.7147  1.2930
30589SOL     OW96704   7.450   3.558   5.139 -0.2621 -0.2354  0.2658
30589SOL    HW196705   7.508   3.499   5.089 -0.8136  0.3559 -1.1350
30589SOL    HW296706   7.398   3.602   5.072 -0.4038  1.2844  1.3252
30590SOL     OW96707   4.977  10.784   5.354  0.4890  0.1958 -0.2641
30590SOL    HW196708   4.882  10.781   5.362  0.2950  0.2014 -2.1965
30590SOL    HW296709   5.007  10.701   5.392 -0.0694  1.0303  2.2156
30591SOL     OW96710   4.043   6.796   8.407  0.1807 -0.4435 -0.4447
30591SOL    HW196711   4.121   6.821   8.357 -1.5125  0.3544 -2.8835
30591SOL    HW296712   3.977   6.861   8.383 -1.6199 -1.8092  0.5321
30592SOL     OW96713   0.671   8.558   7.496  0.1494 -0.0291  0.3636
30592SOL    HW196714   0.656   8.482   7.552 -1.4268  0.3401  0.4964
30592SOL    HW296715   0.583   8.594   7.480  0.6702  0.6400 -1.2717
30593SOL     OW96716   2.081   7.976   6.294  0.4714  0.2461 -0.3033
30593SOL    HW196717   2.163   7.928   6.281 -0.1618 -0.4526 -2.0118
30593SOL    HW296718   2.028   7.954   6.218 -0.0625  3.2560 -0.9521
30594SOL     OW96719   2.901   4.295   5.610 -0.2420 -0.4966 -0.1425
30594SOL    HW196720   2.833   4.266   5.549 -0.9093  0.6900  0.0005
30594SOL    HW296721   2.882   4.388   5.625  0.7941 -0.3993  0.7203
30595SOL     OW96722   8.552   5.111   7.848  0.2329  0.3907 -0.3246
30595SOL    HW196723   8.636   5.132   7.808  0.6461 -1.9628 -0.8519
30595SOL    HW296724   8.566   5.026   7.890 -1.5534  0.5138  0.6342
30596SOL     OW96725  10.478   1.624  11.445  0.3245  0.8656 -0.1786
30596SOL    HW196726  10.537   1.568  11.395 -0.6007 -0.6687  0.3661
30596SOL    HW296727  10.521   1.709  11.446  2.6045 -0.2117  0.3506
30597SOL     OW96728   8.890   6.383   7.260  0.0897  0.2042 -0.0810
30597SOL    HW196729   8.928   6.462   7.221  2.2437 -0.0074  1.4392
30597SOL    HW296730   8.879   6.404   7.352  0.0255 -1.0464  0.2117
30598SOL     OW96731   7.171   5.802   7.459  0.0935  0.4181 -0.2233
30598SOL    HW196732   7.150   5.785   7.367  1.5239  0.9301 -0.6771
30598SOL    HW296733   7.264   5.780   7.467 -0.1490 -0.2246  1.2657
30599SOL     OW96734   7.392   7.290   8.968 -0.3883 -0.1910  0.4003
30599SOL    HW196735   7.355   7.375   8.993  0.7005 -0.0050  1.4681
30599SOL    HW296736   7.448   7.309   8.893 -1.1824 -0.2110 -0.2171
30600SOL     OW96737   9.720   8.440   6.462 -0.0481  0.2493 -0.5197
30600SOL    HW196738   9.816   8.443   6.465  0.0496  0.0424 -2.4231
30600SOL    HW296739   9.699   8.348   6.476 -0.0232  0.3552  0.3143
30601SOL     OW96740   3.735   0.893   8.528  0.1230  0.3304 -0.5434
30601SOL    HW196741   3.741   0.819   8.469 -0.9331  0.8043 -1.2714
30601SOL    HW296742   3.664   0.947   8.493 -0.9936  0.3015  1.4973
30602SOL     OW96743  10.187   6.352   1.972  0.1794  0.3703 -0.6396
30602SOL    HW196744  10.142   6.341   1.888 -1.6968 -0.4837  0.3936
30602SOL    HW296745  10.119   6.334   2.037  2.0595 -1.0640  1.0539
30603SOL     OW96746   9.435  10.428   2.369  0.3795 -0.2639 -0.3795
30603SOL    HW196747   9.452  10.375   2.447 -2.8947 -1.8984 -0.5799
30603SOL    HW296748   9.342  10.452   2.377 -0.3193 -1.1865 -4.0843
30604SOL     OW96749   3.256   9.189   2.528  0.1512  0.5772 -0.3120
30604SOL    HW196750   3.240   9.271   2.481 -0.8696  0.3484 -0.3731
30604SOL    HW296751   3.289   9.130   2.460  0.4334  0.7868 -0.3632
30605SOL     OW96752   3.835   3.467  10.803 -0.2253 -1.4597 -0.2697
30605SOL    HW196753   3.798   3.400  10.746  0.8355 -1.9906 -0.3539
30605SOL    HW296754   3.893   3.517  10.746  1.2571 -2.3261  0.4300
30606SOL     OW96755   5.609   7.028   5.251 -0.2219  0.3234  0.1443
30606SOL    HW196756   5.516   7.049   5.254 -0.1373  0.6127  1.2517
30606SOL    HW296757   5.626   7.006   5.159 -1.3524  0.3626 -0.0889
30607SOL     OW96758   4.619   6.181   6.596  0.2528 -0.8187  0.5332
30607SOL    HW196759   4.538   6.132   6.606  1.0415 -2.1816  0.5401
30607SOL    HW296760   4.598   6.269   6.627 -1.5320 -0.8012 -0.6125
30608SOL     OW96761   8.031   8.353   3.840 -0.0726  0.2984  0.2964
30608SOL    HW196762   7.937   8.372   3.840  0.1022  1.1813  0.0648
30608SOL    HW296763   8.043   8.288   3.771 -0.3560  1.0130 -0.4405
30609SOL     OW96764  11.121   4.186   1.651 -0.6548 -0.2563  0.0814
30609SOL    HW196765  11.104   4.093   1.662 -2.9521 -0.2818 -2.6455
30609SOL    HW296766  11.182   4.191   1.577 -0.3961  0.4003  0.3324
30610SOL     OW96767   1.500  10.146   9.477 -0.2843  0.3172 -0.2308
30610SOL    HW196768   1.516  10.155   9.383 -0.0703  1.7820 -0.0857
30610SOL    HW296769   1.522  10.055   9.497 -0.6826 -0.1101 -1.6533
30611SOL     OW96770   2.150   2.976   5.762 -0.8376 -0.7227 -0.0143
30611SOL    HW196771   2.234   2.931   5.768 -0.2309  0.2266 -0.9446
30611SOL    HW296772   2.085   2.910   5.786  0.0636 -1.9145 -0.7549
30612SOL     OW96773   0.622   3.996   0.650  0.5561  0.6372 -0.0308
30612SOL    HW196774   0.553   3.997   0.716  0.8705 -1.2750  0.3985
30612SOL    HW296775   0.575   4.002   0.567  0.1154  2.4220  0.3222
30613SOL     OW96776  10.782  11.617   3.104 -0.1730 -0.2031 -0.2843
30613SOL    HW196777  10.825  11.575   3.179  0.4617 -0.2458 -0.6645
30613SOL    HW296778  10.736  11.693   3.142  0.9795  0.3679  0.0131
30614SOL     OW96779   1.578   5.989   0.590  0.1429  0.0243 -0.5071
30614SOL    HW196780   1.595   5.903   0.550  0.9604  0.7783 -1.8151
30614SOL    HW296781   1.550   5.968   0.679 -0.3577 -1.6379 -1.0129
30615SOL     OW96782   6.349   6.920  10.903  0.2266 -0.4179  0.0059
30615SOL    HW196783   6.383   6.971  10.830 -0.1107  1.2987  0.9912
30615SOL    HW296784   6.269   6.965  10.929  0.7545 -0.4826  1.9259
30616SOL     OW96785  10.847   4.612   2.940  0.3839  0.2134  0.6716
30616SOL    HW196786  10.888   4.572   3.017 -1.3291 -2.0020  0.5437
30616SOL    HW296787  10.775   4.664   2.976  2.6502  3.4610  0.8413
30617SOL     OW96788  10.431   0.307   8.838  0.1035  0.1997  0.2185
30617SOL    HW196789  10.379   0.268   8.908 -1.2464  0.2902 -0.6930
30617SOL    HW296790  10.437   0.239   8.772 -1.6711  1.2343 -1.0851
30618SOL     OW96791   4.010   2.744   8.041  0.0243  0.3938 -0.0884
30618SOL    HW196792   3.999   2.693   7.961 -0.5500  0.5445 -0.1069
30618SOL    HW296793   4.021   2.834   8.011 -0.3937  0.4789  0.0089
30619SOL     OW96794   2.422   3.286   3.726 -0.2635 -0.0606 -0.0530
30619SOL    HW196795   2.429   3.295   3.631 -0.9323 -0.9634 -0.2052
30619SOL    HW296796   2.485   3.349   3.761  1.2009 -0.8618 -1.1286
30620SOL     OW96797   9.816   4.208   8.378  0.1108 -0.1553  0.4597
30620SOL    HW196798   9.849   4.292   8.409  0.8688 -0.1256 -0.3861
30620SOL    HW296799   9.878   4.143   8.413 -0.2292 -0.3259  0.7536
30621SOL     OW96800   9.085   9.982   8.262 -0.1747 -0.1045 -0.6782
30621SOL    HW196801   9.149  10.048   8.234  0.1467  0.0572  0.3966
30621SOL    HW296802   9.000  10.025   8.254  0.0205  0.3869 -0.1542
30622SOL     OW96803   2.373   1.444   7.076  0.2505 -0.2789  0.1622
30622SOL    HW196804   2.291   1.443   7.126 -0.2526 -0.7655 -0.6503
30622SOL    HW296805   2.347   1.472   6.988  0.8811 -0.8758 -0.2207
30623SOL     OW96806  11.399   2.478   7.615  0.2113 -0.1139  0.0838
30623SOL    HW196807  11.429   2.392   7.645 -1.4400 -0.8028 -0.1511
30623SOL    HW296808  11.406   2.473   7.519 -0.1150 -0.0785  0.0574
30624SOL     OW96809   6.970   0.904   0.283 -0.7656  0.4202 -0.5694
30624SOL    HW196810   7.058   0.867   0.289 -0.5587  1.1770  2.2792
30624SOL    HW296811   6.943   0.885   0.193  1.7919 -0.9316 -1.1624
30625SOL     OW96812   0.744   7.560   1.295  0.4063 -0.2749 -0.1031
30625SOL    HW196813   0.693   7.554   1.376 -2.6190 -0.4834 -1.8525
30625SOL    HW296814   0.763   7.653   1.286 -0.0083 -0.1346  0.4048
30626SOL     OW96815  10.273   2.696   6.041 -0.0362  0.6186  0.2081
30626SOL    HW196816  10.342   2.759   6.063 -0.7134  1.0340  1.2300
30626SOL    HW296817  10.310   2.611   6.061 -0.5607  0.9499  3.0519
30627SOL     OW96818   1.280   5.707   2.242 -0.1014  0.1037 -0.2219
30627SOL    HW196819   1.290   5.799   2.267 -1.1615  0.8412 -2.3124
30627SOL    HW296820   1.256   5.663   2.324  0.9943  1.5543  0.9361
30628SOL     OW96821   7.664   0.507   0.938  0.0453 -0.1311  0.3129
30628SOL    HW196822   7.578   0.550   0.935  0.0557 -0.1796 -1.2960
30628SOL    HW296823   7.655   0.442   1.008 -0.1351  2.0617  2.4736
30629SOL     OW96824   8.902   8.317   1.052 -0.0565  0.1960 -0.0349
30629SOL    HW196825   8.926   8.410   1.049  1.4395  0.0771  3.4145
30629SOL    HW296826   8.985   8.272   1.070 -1.1598 -1.4597  1.2169
30630SOL     OW96827   0.218   6.390   9.120  0.2567 -0.2574  0.3321
30630SOL    HW196828   0.241   6.400   9.028  0.2393 -3.0684 -0.0656
30630SOL    HW296829   0.297   6.356   9.161 -0.3761 -1.1221  0.8758
30631SOL     OW96830   2.880   6.186   5.302  0.6827 -0.4521  0.6774
30631SOL    HW196831   2.962   6.214   5.344  0.5085  0.3743  0.4781
30631SOL    HW296832   2.814   6.200   5.370  0.3101  1.4312 -0.0115
30632SOL     OW96833   0.912   1.194   5.131 -0.2029  0.2643  0.2275
30632SOL    HW196834   0.905   1.214   5.037  3.0358  0.0717 -0.1588
30632SOL    HW296835   0.904   1.099   5.135  0.0269  0.2397  0.1048
30633SOL     OW96836   8.364   3.978   7.014  0.3244 -0.2929  0.2036
30633SOL    HW196837   8.455   3.997   7.036  0.5909 -2.0371  0.8460
30633SOL    HW296838   8.314   4.049   7.055  1.4358  1.4409 -1.2971
30634SOL     OW96839   3.741   9.511   4.835 -0.8988  0.7588  0.7566
30634SOL    HW196840   3.789   9.444   4.786  1.0980  1.5234  1.5942
30634SOL    HW296841   3.714   9.575   4.769  0.3628  0.9623  0.4281
30635SOL     OW96842   3.455   5.441  10.459 -0.9104 -0.4351 -0.3424
30635SOL    HW196843   3.437   5.362  10.408 -0.1579  0.8400 -2.7709
30635SOL    HW296844   3.538   5.474  10.423 -1.6868  1.9661 -0.1368
30636SOL     OW96845   2.959  11.255   5.269  0.0750  0.2295  0.3486
30636SOL    HW196846   3.039  11.217   5.304 -0.5541 -1.0508  0.4297
30636SOL    HW296847   2.892  11.236   5.334 -0.6975 -0.4549 -0.6199
30637SOL     OW96848   9.413   4.980   4.748 -0.3451 -0.3141  0.0407
30637SOL    HW196849   9.378   4.922   4.680 -1.4432  0.6944 -0.2811
30637SOL    HW296850   9.344   5.045   4.762  0.4749  0.3622  1.0709
30638SOL     OW96851   4.872   5.174   7.698 -0.2842 -0.1374 -0.0156
30638SOL    HW196852   4.946   5.173   7.758 -0.8256 -1.7458  0.6920
30638SOL    HW296853   4.879   5.257   7.651  2.0549 -0.3484 -0.1138
30639SOL     OW96854   0.076   2.297  11.038 -0.1118  0.2280  0.0863
30639SOL    HW196855   0.044   2.239  11.107  1.1248  0.7817  1.1748
30639SOL    HW296856   0.172   2.288  11.042  0.2590  3.3735  1.3335
30640SOL     OW96857   2.217   5.157   2.519 -0.4200  0.5723 -0.2343
30640SOL    HW196858   2.149   5.092   2.534  0.2872 -0.2017 -0.3511
30640SOL    HW296859   2.300   5.110   2.532  0.1443  1.0364 -1.9044
30641SOL     OW96860   4.609   7.549   3.059 -0.1272  0.9363  0.4525
30641SOL    HW196861   4.523   7.530   3.022  0.3654 -1.0152  0.1677
30641SOL    HW296862   4.609   7.501   3.142  1.4503 -1.0928 -0.6143
30642SOL     OW96863   7.729   5.668   7.388 -0.4428  0.0565 -0.7337
30642SOL    HW196864   7.742   5.689   7.295  0.2033  0.9255 -0.4573
30642SOL    HW296865   7.793   5.722   7.434 -0.5571 -0.5882  0.2020
30643SOL     OW96866   2.565   1.381   4.195 -0.6985  0.2075 -0.0815
30643SOL    HW196867   2.568   1.407   4.287  2.5556  0.0449 -0.0095
30643SOL    HW296868   2.576   1.463   4.147 -1.0982  0.1440 -0.2851
30644SOL     OW96869   5.603   9.354   5.060  0.2598  0.1226 -0.0199
30644SOL    HW196870   5.539   9.308   5.113  0.4937  1.1053  1.1443
30644SOL    HW296871   5.688   9.331   5.098  0.3633  1.7862  0.8528
30645SOL     OW96872   5.396   3.617   2.523 -0.3345  0.5399  0.6593
30645SOL    HW196873   5.339   3.549   2.487  1.5144 -0.7927  0.0469
30645SOL    HW296874   5.377   3.695   2.472  0.5221 -0.6818 -1.6922
30646SOL     OW96875  11.018  11.430   7.724  0.0941 -0.7312 -0.0684
30646SOL    HW196876  10.953  11.398   7.787 -0.9611 -0.0865 -0.8085
30646SOL    HW296877  10.994  11.388   7.641 -0.7999  1.2274 -0.8692
30647SOL     OW96878   2.921   7.027   0.359 -0.2215  0.1147 -0.4004
30647SOL    HW196879   3.010   7.043   0.327  0.2356  0.4053  0.9261
30647SOL    HW296880   2.866   7.087   0.309  0.6672  1.6331  0.3606
30648SOL     OW96881   6.089   1.884   5.434 -0.2124 -0.5144  0.2458
30648SOL    HW196882   6.081   1.903   5.340 -1.6310 -0.9577  0.2544
30648SOL    HW296883   6.080   1.970   5.476  2.4161 -0.0082 -0.0609
30649SOL     OW96884  10.556   6.717   1.099 -0.3421  0.2368 -0.4793
30649SOL    HW196885  10.560   6.713   1.195  1.5921  1.3551 -0.4743
30649SOL    HW296886  10.562   6.810   1.078 -2.7147  0.1925 -1.6891
30650SOL     OW96887   2.982   1.511   3.028  0.6040  0.1755 -0.0817
30650SOL    HW196888   3.048   1.507   3.098  1.2897 -1.8068 -0.7738
30650SOL    HW296889   2.936   1.427   3.034 -0.0967  0.4583 -1.2765
30651SOL     OW96890   2.493   0.035   8.185  0.6166 -0.3218  0.3154
30651SOL    HW196891   2.446  -0.045   8.208 -1.8923  0.9779  0.0478
30651SOL    HW296892   2.454   0.063   8.102  3.1106 -0.0415 -0.8502
30652SOL     OW96893   4.584   2.826   7.371  0.5242 -0.0594  0.0640
30652SOL    HW196894   4.668   2.872   7.374 -1.1531  3.3229 -0.2857
30652SOL    HW296895   4.553   2.839   7.281 -1.0107  0.0806  0.5865
30653SOL     OW96896   6.755   0.338   7.522  0.1268 -0.2316  0.8312
30653SOL    HW196897   6.793   0.401   7.583 -2.6171  0.6577  1.7632
30653SOL    HW296898   6.788   0.366   7.436  1.6840  0.3123  1.5579
30654SOL     OW96899   6.774   4.987   4.291 -0.2808  0.3159 -0.0335
30654SOL    HW196900   6.850   4.969   4.347 -0.9438  0.4422  0.9249
30654SOL    HW296901   6.756   4.903   4.249  0.3137  0.2542 -0.1765
30655SOL     OW96902  11.503   5.789  10.977 -0.4908  0.1631 -0.4431
30655SOL    HW196903  11.449   5.820  11.050 -0.8519 -1.5417  0.0687
30655SOL    HW296904  11.475   5.699  10.963  0.1340  0.1943 -2.1888
30656SOL     OW96905   6.699   6.382   5.501 -0.2058 -0.0822  0.5842
30656SOL    HW196906   6.652   6.306   5.466  2.1906 -1.3677 -0.0936
30656SOL    HW296907   6.635   6.452   5.502 -1.6839 -1.2685 -1.8866
30657SOL     OW96908   0.459   7.931   7.207  0.2595  0.1933  0.3700
30657SOL    HW196909   0.365   7.952   7.208  0.0357 -0.6341 -0.8343
30657SOL    HW296910   0.498   7.999   7.153  0.2248  0.1086  0.2369
30658SOL     OW96911   6.345   9.865   4.183  0.2745  0.3770 -0.5220
30658SOL    HW196912   6.291   9.817   4.121 -0.1566 -0.6169  0.5959
30658SOL    HW296913   6.302   9.853   4.267  0.1103  2.7947 -0.1785
30659SOL     OW96914  10.434   8.818   4.503  0.2004  0.0594 -0.3060
30659SOL    HW196915  10.381   8.755   4.552  1.6687 -0.9458  0.0186
30659SOL    HW296916  10.468   8.769   4.429 -0.3505  1.0511 -1.2446
30660SOL     OW96917   7.240   2.781   4.636 -0.4202 -0.0515 -0.1519
30660SOL    HW196918   7.334   2.767   4.642 -0.7688 -2.2055  1.2742
30660SOL    HW296919   7.226   2.867   4.677  0.8280 -0.2056  0.6459
30661SOL     OW96920   0.900   3.330   5.340  0.1700  0.0388 -0.5791
30661SOL    HW196921   0.878   3.260   5.401 -0.4943 -0.5053 -1.4083
30661SOL    HW296922   0.837   3.399   5.359  0.1433 -0.0186 -0.4610
30662SOL     OW96923   8.442   3.369   0.861  0.1259  0.3824 -0.1067
30662SOL    HW196924   8.401   3.294   0.818  2.1958 -1.0129  0.2344
30662SOL    HW296925   8.374   3.402   0.920 -0.6701 -1.5705  0.1476
30663SOL     OW96926   5.823   1.395   9.510  0.0479  0.2679  0.8689
30663SOL    HW196927   5.877   1.463   9.551  1.6241 -1.0149  1.0251
30663SOL    HW296928   5.838   1.405   9.416  0.9518 -0.3551  0.9309
30664SOL     OW96929  10.650   3.416  11.669 -0.0636 -0.1858 -0.2695
30664SOL    HW196930  10.635   3.322  11.684  0.5689 -0.6151 -2.0422
30664SOL    HW296931  10.565   3.457  11.686 -0.2809 -1.0279  0.7977
30665SOL     OW96932   2.878   7.786   4.800  0.3210  0.6522 -0.4109
30665SOL    HW196933   2.945   7.736   4.847  1.6447 -0.0240 -2.8773
30665SOL    HW296934   2.804   7.727   4.794  1.1287 -0.2881 -1.4971
30666SOL     OW96935   8.686   8.598   4.717 -0.2891 -0.3447 -0.2022
30666SOL    HW196936   8.757   8.659   4.736  0.3278 -0.1073 -2.8322
30666SOL    HW296937   8.607   8.651   4.724 -0.0703 -0.1651  1.0118
30667SOL     OW96938   4.268   1.319   8.600 -0.1507  0.3901 -0.5235
30667SOL    HW196939   4.362   1.330   8.588 -0.2694  1.3186 -0.6439
30667SOL    HW296940   4.229   1.397   8.561 -0.9427  0.2398 -0.0577
30668SOL     OW96941   0.729   1.958   3.216  0.4408 -1.0025  0.2042
30668SOL    HW196942   0.778   1.878   3.232  0.9054 -0.7938 -0.1438
30668SOL    HW296943   0.791   2.015   3.171 -0.8434 -1.6407 -2.5564
30669SOL     OW96944   3.331  10.953   7.291 -0.2511 -0.2155  0.1741
30669SOL    HW196945   3.339  10.917   7.203  0.3592 -0.4519  0.3167
30669SOL    HW296946   3.384  11.033   7.289 -0.1699 -0.2630  0.3445
30670SOL     OW96947   5.522   9.359  11.148  0.1900 -0.3858  0.4404
30670SOL    HW196948   5.470   9.439  11.158 -0.9868 -1.0710  0.0059
30670SOL    HW296949   5.582   9.377  11.076 -0.4084 -0.0607  0.0183
30671SOL     OW96950   0.967   9.376   1.807 -0.3314 -0.2005 -0.3184
30671SOL    HW196951   0.947   9.282   1.802  0.3613 -0.2899 -2.4072
30671SOL    HW296952   1.050   9.385   1.760 -0.6382  1.5138 -0.5904
30672SOL     OW96953   4.818   8.553   1.663  0.3081  0.0908  0.1202
30672SOL    HW196954   4.860   8.540   1.579  0.6174 -0.6508  0.3842
30672SOL    HW296955   4.724   8.547   1.644  0.3956 -2.0726  0.1118
30673SOL     OW96956   0.085   0.812   1.950  0.0426  0.4552 -0.0455
30673SOL    HW196957   0.180   0.822   1.958 -0.1888  2.2289  1.1469
30673SOL    HW296958   0.060   0.875   1.882 -0.3827  0.6742  0.3116
30674SOL     OW96959   8.737   5.638   0.808 -0.2099  0.3827 -0.1736
30674SOL    HW196960   8.697   5.725   0.813 -0.6735  0.1552  0.1607
30674SOL    HW296961   8.665   5.577   0.826  0.3886 -0.0158  1.0036
30675SOL     OW96962   8.209   8.914  10.694  0.1463 -0.2958 -0.5762
30675SOL    HW196963   8.143   8.858  10.736 -0.4838 -0.7942 -2.1424
30675SOL    HW296964   8.159   8.987  10.657  0.9448  1.2800  1.2901
30676SOL     OW96965   2.035  10.495   0.055  0.4513 -0.6520  0.2581
30676SOL    HW196966   1.992  10.430   0.111 -1.2948  2.0437  2.2785
30676SOL    HW296967   1.973  10.509  -0.017  0.6180 -0.8639  0.0709
30677SOL     OW96968   2.950   2.181  11.312  0.3185 -0.0831 -0.0310
30677SOL    HW196969   2.929   2.216  11.226  0.2534  1.9605  0.7393
30677SOL    HW296970   2.867   2.152  11.348  0.0253  0.8231  0.0481
30678SOL     OW96971   1.910  10.240   6.961  0.0289 -0.7072  0.4604
30678SOL    HW196972   1.947  10.166   6.912 -1.6700 -1.5681  0.3919
30678SOL    HW296973   1.816  10.224   6.961 -0.1914  0.2002  2.5158
30679SOL     OW96974   9.141   1.493   4.753  0.2783 -0.8833  0.3371
30679SOL    HW196975   9.097   1.566   4.797  0.3826 -0.0313 -0.9203
30679SOL    HW296976   9.233   1.504   4.775  0.2744 -0.7136  0.2745
30680SOL     OW96977   4.757   7.925   0.897  0.2982  0.1051  0.7336
30680SOL    HW196978   4.677   7.872   0.897 -0.1476  0.7708  0.8511
30680SOL    HW296979   4.823   7.867   0.858 -0.1750 -0.5381  0.8578
30681SOL     OW96980   6.938   9.084  10.565  0.0878  0.1853  0.1706
30681SOL    HW196981   6.908   9.131  10.488  0.3676 -0.5307 -0.3865
30681SOL    HW296982   6.865   9.089  10.626 -0.2625  0.4724 -0.2650
30682SOL     OW96983   7.031   3.894   8.919  0.1746 -0.3035 -0.0343
30682SOL    HW196984   6.952   3.849   8.948  1.1442 -1.2186  1.2843
30682SOL    HW296985   7.057   3.948   8.993  0.8445 -0.1154 -0.3973
30683SOL     OW96986   9.996   6.530   6.969 -0.1805 -0.5688 -0.0721
30683SOL    HW196987   9.919   6.475   6.983 -0.8939 -0.1926 -2.2340
30683SOL    HW296988  10.060   6.471   6.930  0.6030 -0.8227  1.5038
30684SOL     OW96989   6.932   2.680   5.180  0.0984 -0.5285 -0.0556
30684SOL    HW196990   6.995   2.737   5.136  0.7330 -0.1764  1.2628
30684SOL    HW296991   6.967   2.592   5.168  0.2535 -0.4368 -0.2766
30685SOL     OW96992   0.432   0.170   6.402  0.0502  0.0075  0.2800
30685SOL    HW196993   0.414   0.140   6.313  0.2848  0.5067  0.0602
30685SOL    HW296994   0.460   0.092   6.449  0.2617 -0.1956 -0.1774
30686SOL     OW96995   7.195   4.594   6.590 -0.6107  0.4353  0.2650
30686SOL    HW196996   7.216   4.591   6.497  0.3214  0.7061  0.4592
30686SOL    HW296997   7.099   4.589   6.593 -0.6136 -0.2620 -0.6640
30687SOL     OW96998   0.782  10.935   6.943 -0.2999  0.2288 -0.5792
30687SOL    HW196999   0.833  10.854   6.939  0.1333  0.4811 -0.2203
30687SOL    HW297000   0.799  10.970   7.030 -3.2350 -1.0935  0.6692
30688SOL     OW97001   7.209   0.753   0.333 -0.0929 -0.7402  0.5169
30688SOL    HW197002   7.301   0.732   0.349 -0.3632 -1.5276  1.1119
30688SOL    HW297003   7.173   0.674   0.292  0.3380  0.8441 -3.3079
30689SOL     OW97004   4.340   5.848  11.672  0.1791  0.5449  0.2732
30689SOL    HW197005   4.380   5.780  11.726  1.4644  0.1981 -1.0809
30689SOL    HW297006   4.271   5.802  11.624 -0.8596  0.8218  1.4249
30690SOL     OW97007   2.347   6.262   1.813 -0.7309  0.7681  0.4417
30690SOL    HW197008   2.439   6.263   1.787 -0.4550 -0.3061  1.3176
30690SOL    HW297009   2.301   6.225   1.738 -0.5171  1.6930 -0.1611
30691SOL     OW97010   2.699  11.502  10.213 -0.3817 -0.3469 -0.0384
30691SOL    HW197011   2.774  11.558  10.232  0.3174 -1.4865  0.7181
30691SOL    HW297012   2.668  11.474  10.299 -0.7943 -1.0063 -0.3974
30692SOL     OW97013   2.774   9.170   5.107  0.2559 -0.3841  0.7585
30692SOL    HW197014   2.809   9.118   5.034  0.5903  0.3142  0.4101
30692SOL    HW297015   2.850   9.219   5.139 -0.4664  1.5229 -0.3182
30693SOL     OW97016   2.613  11.610   8.421 -0.1747 -0.6712  0.4676
30693SOL    HW197017   2.584  11.676   8.358 -0.8685 -1.3900  0.0135
30693SOL    HW297018   2.533  11.586   8.469 -0.2889 -2.3894 -0.5226
30694SOL     OW97019   9.626   8.371   1.191  0.1563  0.0255 -0.3368
30694SOL    HW197020   9.620   8.317   1.112  1.2143  1.3410 -1.3550
30694SOL    HW297021   9.564   8.442   1.176 -0.2614 -0.1686  0.4155
30695SOL     OW97022   8.886   8.692   9.981  0.1463 -0.1323  0.3426
30695SOL    HW197023   8.892   8.598   9.964 -1.7288 -0.3673  0.7713
30695SOL    HW297024   8.867   8.731   9.895 -0.9615 -0.3669  0.4749
30696SOL     OW97025   2.795   2.161   4.003  0.1271  0.0523  0.0509
30696SOL    HW197026   2.768   2.092   4.064  0.9525 -0.7522 -0.4688
30696SOL    HW297027   2.724   2.225   4.005 -0.3411 -0.4876  1.0462
30697SOL     OW97028   1.577   7.146   7.750  0.3599  0.3835  0.2432
30697SOL    HW197029   1.574   7.146   7.846 -0.4065  0.6781  0.2288
30697SOL    HW297030   1.511   7.210   7.724 -0.8884 -1.1037 -0.4935
30698SOL     OW97031   4.609  11.215   4.340 -0.2162  0.2615 -0.6903
30698SOL    HW197032   4.557  11.197   4.418 -0.2235  1.3951 -0.4263
30698SOL    HW297033   4.700  11.206   4.369 -0.2284 -0.7682 -0.9224
30699SOL     OW97034   0.656   8.260  10.568  0.2684 -0.4087  0.2734
30699SOL    HW197035   0.672   8.171  10.535 -0.7056 -0.2219 -0.7441
30699SOL    HW297036   0.567   8.258  10.603 -0.2918  0.5030 -1.0185
30700SOL     OW97037   4.115   3.032  10.353  0.0712  0.1691 -0.4253
30700SOL    HW197038   4.121   2.959  10.292 -1.3931  0.1892 -0.6324
30700SOL    HW297039   4.105   3.110  10.297  0.6166  0.4166 -0.1868
30701SOL     OW97040   7.247  11.211   1.533 -0.0712 -0.2497 -0.1688
30701SOL    HW197041   7.219  11.289   1.485 -0.5861  0.4846  1.2650
30701SOL    HW297042   7.283  11.154   1.465 -0.8691  0.6786 -1.4433
30702SOL     OW97043  10.625   7.311   1.923  0.5905  0.0900 -0.1936
30702SOL    HW197044  10.663   7.341   1.840  0.0960  0.6702 -0.2197
30702SOL    HW297045  10.616   7.216   1.912 -0.5506  0.2839 -1.2751
30703SOL     OW97046   8.894   8.472   7.689 -0.6059  0.1054 -0.4019
30703SOL    HW197047   8.921   8.564   7.690  0.6867 -0.2052 -1.9409
30703SOL    HW297048   8.970   8.425   7.655 -1.9978 -1.2330 -1.8376
30704SOL     OW97049   9.282   5.865   1.793  0.0364  0.1696  0.7406
30704SOL    HW197050   9.315   5.894   1.878 -0.0121 -0.8483  1.1203
30704SOL    HW297051   9.353   5.811   1.757 -0.5946 -0.7699  0.8798
30705SOL     OW97052   9.438   2.450   9.901 -0.4038 -0.4959 -0.3242
30705SOL    HW197053   9.503   2.486   9.840  1.6798  0.6485  2.3819
30705SOL    HW297054   9.375   2.521   9.912  1.5750  1.0812  1.9836
30706SOL     OW97055   2.417  10.016   3.346  0.1266 -0.2398 -0.1741
30706SOL    HW197056   2.421   9.924   3.321 -0.2767 -1.6692  4.1242
30706SOL    HW297057   2.508  10.046   3.343  0.7982 -1.9000  1.5243
30707SOL     OW97058  11.088   3.423   3.948  0.2026 -0.1551 -0.5238
30707SOL    HW197059  11.163   3.367   3.927 -0.9627 -1.4041 -1.5019
30707SOL    HW297060  11.019   3.363   3.974 -0.6383  0.9362 -0.1635
30708SOL     OW97061  10.230   4.093   4.669  0.3753 -0.3342 -0.0050
30708SOL    HW197062  10.293   4.064   4.735  0.9421 -0.8087 -0.7232
30708SOL    HW297063  10.263   4.178   4.640  1.7843 -1.3753 -1.6783
30709SOL     OW97064   2.885   1.571   5.574  0.0687  0.6422  0.2851
30709SOL    HW197065   2.838   1.625   5.638  2.0910  0.5182  1.9786
30709SOL    HW297066   2.825   1.498   5.556 -1.5597  1.9701  0.0784
30710SOL     OW97067   3.746   9.663   8.263  0.3231  0.5618 -0.4127
30710SOL    HW197068   3.811   9.731   8.281  1.2362  0.0562 -1.6725
30710SOL    HW297069   3.730   9.622   8.348  0.2217  1.9150  0.2536
30711SOL     OW97070  10.782   4.393   3.423  0.1841 -0.1914  0.1836
30711SOL    HW197071  10.805   4.472   3.471  0.8372 -0.8500  0.9818
30711SOL    HW297072  10.865   4.360   3.389 -0.2758  0.3680 -1.6229
30712SOL     OW97073   0.089   9.583   0.407 -0.5886 -0.3288 -0.4559
30712SOL    HW197074   0.132   9.499   0.390 -0.4422 -0.0381 -1.5784
30712SOL    HW297075   0.149   9.648   0.371 -0.0749  0.3792  1.5311
30713SOL     OW97076   8.847   5.106  10.399 -0.2447 -0.3688  0.2671
30713SOL    HW197077   8.892   5.055  10.467  1.4590 -0.2495 -0.7194
30713SOL    HW297078   8.818   5.041  10.335 -1.8576 -0.4817  1.0422
30714SOL     OW97079   1.627   2.688   7.702  0.1591  0.0383  0.4932
30714SOL    HW197080   1.548   2.671   7.650 -0.0150  2.1825 -0.0241
30714SOL    HW297081   1.619   2.629   7.777 -2.2552  0.6077  0.7746
30715SOL     OW97082   8.737   9.484   2.685  0.0124 -0.1963  0.7019
30715SOL    HW197083   8.803   9.465   2.751 -0.7307  0.1521  1.5640
30715SOL    HW297084   8.675   9.542   2.729 -0.1555  0.5667 -0.4989
30716SOL     OW97085   6.304   4.483   1.075  0.0904 -0.1251  0.0213
30716SOL    HW197086   6.256   4.412   1.032 -0.7320  0.3474  0.1254
30716SOL    HW297087   6.371   4.508   1.012 -0.6950  0.1264 -0.7407
30717SOL     OW97088   9.263   4.904   1.089  0.0246  0.6196 -0.0120
30717SOL    HW197089   9.237   4.955   1.013  0.4728  1.9069  0.6685
30717SOL    HW297090   9.357   4.918   1.096  0.0902  0.0083  0.4236
30718SOL     OW97091   3.696   3.523   5.870 -0.8596 -0.5473 -0.3084
30718SOL    HW197092   3.768   3.467   5.901  0.5492  1.4868  0.2721
30718SOL    HW297093   3.660   3.562   5.950 -1.7858 -0.5515 -0.7117
30719SOL     OW97094  11.510   5.324   5.631 -0.4633 -0.2602 -0.0953
30719SOL    HW197095  11.540   5.305   5.542  1.3625 -0.9736  0.6356
30719SOL    HW297096  11.426   5.278   5.637 -0.0224 -1.2630 -1.0560
30720SOL     OW97097   2.624   4.321   0.965  0.6548 -0.6792  0.4332
30720SOL    HW197098   2.534   4.315   0.931  1.3371 -1.1537 -1.4007
30720SOL    HW297099   2.677   4.341   0.888  1.9582  1.3125  1.7464
30721SOL     OW97100   7.754   8.105   7.544  0.2571  0.2636  0.4538
30721SOL    HW197101   7.744   8.198   7.521 -0.1899 -0.1345 -1.1426
30721SOL    HW297102   7.687   8.061   7.491  2.5944 -1.2950 -1.3816
30722SOL     OW97103   1.557   8.577  10.289  0.1053  0.1951  0.3058
30722SOL    HW197104   1.501   8.634  10.342 -1.0947 -1.3916  0.8559
30722SOL    HW297105   1.499   8.543  10.221  0.9285  0.0559 -0.3473
30723SOL     OW97106   5.989  11.185   0.304 -0.5794  0.1516  0.3467
30723SOL    HW197107   6.020  11.159   0.391  2.4609  1.6344 -0.1578
30723SOL    HW297108   6.042  11.132   0.244 -0.0774  1.6552 -0.5859
30724SOL     OW97109   9.076   2.127   2.973  0.0922  0.0803  0.4667
30724SOL    HW197110   8.981   2.128   2.983  0.0787  0.5213  0.3130
30724SOL    HW297111   9.091   2.175   2.892  0.3676 -1.0376 -0.1616
30725SOL     OW97112   3.838   8.056   8.928 -0.3437  0.0815  0.7775
30725SOL    HW197113   3.890   8.011   8.995  1.3956 -0.3885 -0.7855
30725SOL    HW297114   3.900   8.071   8.856 -1.8489  1.5819 -0.2740
30726SOL     OW97115   1.865  10.553   5.313  0.0215 -0.5684  0.0648
30726SOL    HW197116   1.853  10.476   5.257 -0.4300 -0.7160  0.3539
30726SOL    HW297117   1.936  10.529   5.373 -0.1305 -0.7715  0.1659
30727SOL     OW97118   3.782  10.286   8.865 -0.4065  0.1645 -0.1044
30727SOL    HW197119   3.835  10.264   8.941 -0.6335  0.1905  0.0630
30727SOL    HW297120   3.787  10.382   8.859 -0.1832  0.1448 -0.2747
30728SOL     OW97121   3.693   4.070   4.469  0.3270 -0.4444  0.5720
30728SOL    HW197122   3.705   4.116   4.386 -0.8348  0.1237  0.7050
30728SOL    HW297123   3.633   3.999   4.449  0.9363 -0.9989  0.6903
30729SOL     OW97124   4.887  10.375   3.903 -0.0887 -0.1833 -0.7380
30729SOL    HW197125   4.837  10.375   3.984 -0.8660  0.9951 -1.1918
30729SOL    HW297126   4.927  10.462   3.899  0.6378 -0.5275 -1.2024
30730SOL     OW97127   2.287   4.727   9.619 -0.2085 -0.4302  0.0631
30730SOL    HW197128   2.240   4.653   9.659  0.3391 -1.1689 -0.6312
30730SOL    HW297129   2.366   4.736   9.672 -0.0864 -0.6080 -0.0839
30731SOL     OW97130   0.527   8.135   2.205 -0.5120  0.5228 -0.2726
30731SOL    HW197131   0.495   8.225   2.202  0.1343  0.8180  1.0747
30731SOL    HW297132   0.610   8.138   2.158 -0.2811  0.7356  0.1405
30732SOL     OW97133   3.597   9.883   0.038  0.3412  0.4831  0.5113
30732SOL    HW197134   3.677   9.916  -0.003 -0.2125 -0.0362 -1.0690
30732SOL    HW297135   3.531   9.888  -0.031 -0.6582 -0.3353  1.3788
30733SOL     OW97136   7.633   4.825   9.982  0.2253  1.0338  0.0366
30733SOL    HW197137   7.610   4.741  10.020 -0.1182  1.4857  0.8544
30733SOL    HW297138   7.672   4.875  10.054  0.8119  1.4243 -0.5390
30734SOL     OW97139   7.873   5.618   5.984 -0.4868 -0.8040 -0.1532
30734SOL    HW197140   7.907   5.650   5.901 -2.1418 -1.9169 -1.3203
30734SOL    HW297141   7.876   5.523   5.976  0.4963 -0.9743  1.6055
30735SOL     OW97142   2.937   9.246   9.405 -0.1787 -0.1809 -0.0818
30735SOL    HW197143   3.005   9.196   9.450 -1.3792 -0.7169  1.2166
30735SOL    HW297144   2.871   9.263   9.472 -0.6944  1.5465 -0.9555
30736SOL     OW97145   0.976   6.515   3.094  0.4414 -0.7619 -0.6922
30736SOL    HW197146   1.025   6.559   3.163 -1.3140  1.0230 -0.4943
30736SOL    HW297147   0.913   6.459   3.140 -1.5648  1.3392 -0.6649
30737SOL     OW97148   7.483   0.691   3.313 -0.1312  0.0570  0.3068
30737SOL    HW197149   7.563   0.744   3.315 -0.6150  0.9421 -1.7792
30737SOL    HW297150   7.452   0.691   3.404  1.0809  1.4820  0.7591
30738SOL     OW97151   3.052   9.338  11.332  0.5638  0.4383 -0.1522
30738SOL    HW197152   3.015   9.302  11.252  0.6467  1.0347 -0.4596
30738SOL    HW297153   2.996   9.303  11.402  1.3546 -1.2541 -0.3232
30739SOL     OW97154   2.108   2.841   9.550  0.1644  0.3204  0.0310
30739SOL    HW197155   2.141   2.881   9.630  0.5775 -0.7586  0.4193
30739SOL    HW297156   2.066   2.913   9.502  2.0516  1.5160  0.0683
30740SOL     OW97157   3.909   8.861   6.705 -0.0119 -0.5483 -0.1247
30740SOL    HW197158   3.986   8.846   6.761 -1.7486 -2.7323  1.8641
30740SOL    HW297159   3.868   8.939   6.742  0.3120 -0.3993 -0.0760
30741SOL     OW97160   0.962  11.616   8.182 -0.2419  0.1710 -0.5349
30741SOL    HW197161   0.886  11.566   8.212 -0.3122 -0.3160 -1.5007
30741SOL    HW297162   0.973  11.591   8.091  1.5367 -0.3537 -0.2243
30742SOL     OW97163   6.478   2.504   6.618  0.0894  0.0185  0.9054
30742SOL    HW197164   6.572   2.490   6.625 -0.2062 -1.7585  1.9513
30742SOL    HW297165   6.440   2.417   6.630 -1.8057  1.0905  3.8380
30743SOL     OW97166   4.266   0.336   4.247  0.5956  0.0193 -0.3396
30743SOL    HW197167   4.303   0.419   4.279  2.2791 -0.9728  0.3921
30743SOL    HW297168   4.341   0.277   4.240 -0.8092 -2.0929  1.1417
30744SOL     OW97169   4.483   5.093  11.631 -0.1022 -0.4551  0.4223
30744SOL    HW197170   4.488   5.000  11.651  0.7227 -0.4844  0.1259
30744SOL    HW297171   4.566   5.129  11.662  0.2313 -0.0966 -0.8379
30745SOL     OW97172   9.061  11.491   9.762  0.0054 -0.4447 -0.8354
30745SOL    HW197173   9.086  11.407   9.802  1.6094  1.9295  3.8367
30745SOL    HW297174   8.965  11.491   9.764 -0.0049 -1.8040 -0.0219
30746SOL     OW97175   1.712   1.302   0.812 -0.9160  0.9677 -0.2903
30746SOL    HW197176   1.747   1.359   0.744 -0.5756  1.1872  0.0669
30746SOL    HW297177   1.659   1.360   0.867 -0.2958  1.0091  0.2687
30747SOL     OW97178   3.550  11.043   4.127 -0.4367  0.5192 -0.2867
30747SOL    HW197179   3.642  11.068   4.137 -0.3209  0.0684 -0.2336
30747SOL    HW297180   3.530  11.062   4.035 -0.4733  1.2163 -0.1402
30748SOL     OW97181   6.568   2.800   7.902  0.8252  0.2941  0.3806
30748SOL    HW197182   6.516   2.777   7.979  0.0306 -1.6239 -0.6566
30748SOL    HW297183   6.515   2.864   7.855 -1.5976 -2.7752 -1.4965
30749SOL     OW97184  10.554   0.348  11.661  0.2275 -0.1815 -0.1756
30749SOL    HW197185  10.486   0.415  11.652 -0.2955 -0.7254 -0.2821
30749SOL    HW297186  10.598   0.370  11.743  0.8031  0.9626 -0.7653
30750SOL     OW97187  10.396   4.762   5.038  0.2211 -0.1649 -0.0252
30750SOL    HW197188  10.330   4.826   5.066  0.3430  1.7821 -3.5311
30750SOL    HW297189  10.465   4.769   5.103 -1.4583  0.4020  1.8015
30751SOL     OW97190   6.208   5.654   0.347 -0.1753 -0.3885 -0.2282
30751SOL    HW197191   6.265   5.580   0.369  0.8357  0.5768  0.5296
30751SOL    HW297192   6.201   5.651   0.252  0.8548 -0.7653 -0.3080
30752SOL     OW97193  10.083  10.451   8.537 -0.4164 -0.1364  0.0882
30752SOL    HW197194   9.989  10.457   8.518 -0.7557  1.4530  1.9504
30752SOL    HW297195  10.091  10.478   8.628  1.9181  0.1060 -0.1244
30753SOL     OW97196   3.828   4.511   5.439  0.4076  0.1047 -0.1066
30753SOL    HW197197   3.896   4.557   5.488  1.6255 -2.2610  0.5809
30753SOL    HW297198   3.854   4.419   5.442 -1.8879 -0.6771 -1.3930
30754SOL     OW97199   6.918   7.671  10.761 -0.6012  0.1073  0.1437
30754SOL    HW197200   7.013   7.682  10.752 -0.6985 -0.3301 -1.7860
30754SOL    HW297201   6.906   7.577  10.774 -0.7574  0.1852  0.5508
30755SOL     OW97202   6.054   1.233   7.349  0.1404  0.0019 -0.7484
30755SOL    HW197203   6.049   1.322   7.314 -0.2341 -0.5556 -2.1349
30755SOL    HW297204   6.051   1.246   7.444 -2.2672  1.3393 -0.9139
30756SOL     OW97205   5.251   0.032   1.901 -0.0521 -0.3488  0.9379
30756SOL    HW197206   5.330   0.023   1.953  1.1433 -0.9615 -0.9081
30756SOL    HW297207   5.198  -0.045   1.924  0.5103 -0.6845  1.1315
30757SOL     OW97208   4.101   3.067   0.152  0.1459 -0.8398 -0.0527
30757SOL    HW197209   4.125   3.073   0.244  1.6448 -2.3506 -0.2952
30757SOL    HW297210   4.022   3.120   0.144  1.2909  1.2598  1.5972
30758SOL     OW97211   1.536   6.930   6.882  0.4546 -1.0137  0.2507
30758SOL    HW197212   1.532   6.953   6.789 -0.8600 -2.5089 -0.1061
30758SOL    HW297213   1.478   6.993   6.925  0.6298 -0.6676 -0.0138
30759SOL     OW97214   6.374   8.115   1.040 -0.5218 -0.6748 -0.0736
30759SOL    HW197215   6.326   8.180   1.091 -2.5783 -1.2942 -1.1141
30759SOL    HW297216   6.459   8.107   1.085 -0.1257  2.7312  0.0374
30760SOL     OW97217   3.840   6.124  11.577 -0.4029  0.8502 -0.6341
30760SOL    HW197218   3.932   6.111  11.600  0.3807  1.8399 -2.9599
30760SOL    HW297219   3.800   6.037  11.588  0.2489  0.8288  2.3986
30761SOL     OW97220   5.729   8.965   3.730 -0.4732 -0.0905 -0.2143
30761SOL    HW197221   5.778   9.047   3.726 -0.5692 -0.0789 -1.9099
30761SOL    HW297222   5.657   8.978   3.668 -0.5939 -1.3803 -0.3604
30762SOL     OW97223  11.686   5.593   7.278  0.6823 -0.0965  0.4128
30762SOL    HW197224  11.693   5.683   7.243  1.7297  0.2175  1.3803
30762SOL    HW297225  11.748   5.591   7.351 -1.2150 -0.8428  2.0585
30763SOL     OW97226   4.830   1.935   1.226 -0.0108  0.9556  0.6501
30763SOL    HW197227   4.840   1.923   1.320 -1.0696 -0.9818  0.5732
30763SOL    HW297228   4.917   1.918   1.190  0.0243 -0.0377  1.1587
30764SOL     OW97229   8.828  10.287   8.346 -0.1540  0.0102  0.1971
30764SOL    HW197230   8.803  10.238   8.425 -1.7328  0.6940  0.1704
30764SOL    HW297231   8.901  10.341   8.373  0.5080 -1.0909  0.6931
30765SOL     OW97232   8.540   4.086   4.246  0.7217  0.0104 -0.6428
30765SOL    HW197233   8.524   4.028   4.172 -1.1781 -0.0403 -0.2480
30765SOL    HW297234   8.626   4.124   4.229  1.4654 -1.9535 -1.5304
30766SOL     OW97235   7.783   5.190   7.254  0.2180 -0.0154 -0.0267
30766SOL    HW197236   7.818   5.230   7.334  0.8636 -1.6227  0.5263
30766SOL    HW297237   7.855   5.197   7.190  0.4380 -0.5544  0.1614
30767SOL     OW97238   5.132   0.642   8.021  0.3715 -0.5911 -0.2977
30767SOL    HW197239   5.043   0.630   8.054  0.2055  1.1396  0.0051
30767SOL    HW297240   5.133   0.596   7.937 -1.8687  2.0115 -1.9173
30768SOL     OW97241   2.985   4.970   5.514 -0.3814 -0.2143  0.7080
30768SOL    HW197242   3.014   5.023   5.588  1.7644 -0.1722 -0.1108
30768SOL    HW297243   3.029   4.886   5.525  0.7166  0.0813 -0.9338
30769SOL     OW97244   4.506   0.583  11.373 -0.4702 -0.8815 -0.1725
30769SOL    HW197245   4.542   0.496  11.388 -1.3721 -0.9003  2.1637
30769SOL    HW297246   4.528   0.633  11.451  0.1978  1.1029 -1.5332
30770SOL     OW97247  10.176   6.945   7.855 -0.0540 -0.0932  0.8581
30770SOL    HW197248  10.110   7.014   7.852 -0.8546 -0.6511  3.1108
30770SOL    HW297249  10.126   6.864   7.843  0.4188 -0.4410  1.2039
30771SOL     OW97250  11.173  11.428  11.323  0.0243 -0.3973 -0.3105
30771SOL    HW197251  11.226  11.483  11.380 -1.2627  0.2136  0.3314
30771SOL    HW297252  11.085  11.463  11.331 -0.4668 -1.3180 -1.4410
30772SOL     OW97253   9.043   6.314   8.743  0.2353 -0.0355  0.4643
30772SOL    HW197254   8.981   6.333   8.672  0.0799 -2.1168 -0.0256
30772SOL    HW297255   9.027   6.221   8.764  1.4560  0.0857  2.0681
30773SOL     OW97256   4.091   2.372  11.673  0.3036 -0.0756  0.4489
30773SOL    HW197257   3.999   2.352  11.656  0.6077 -1.3382  0.1189
30773SOL    HW297258   4.092   2.412  11.760 -0.6900  1.2501 -0.1279
30774SOL     OW97259   0.373   0.207   2.191 -0.1980 -0.1437  0.1613
30774SOL    HW197260   0.446   0.153   2.220 -0.6046 -1.5850 -1.3146
30774SOL    HW297261   0.324   0.226   2.271  0.8015 -0.6715  0.9227
30775SOL     OW97262   3.709   5.026   8.815  0.1224 -0.3003  0.4378
30775SOL    HW197263   3.772   4.955   8.811 -0.1170 -0.5415  0.9116
30775SOL    HW297264   3.762   5.106   8.817  0.3857 -0.4433 -0.4377
30776SOL     OW97265   0.559   4.742   0.194  0.2089  0.1649 -0.1065
30776SOL    HW197266   0.500   4.790   0.137  0.9704 -0.3199 -1.3325
30776SOL    HW297267   0.646   4.776   0.173  0.5886 -0.6301  0.1420
30777SOL     OW97268   5.066  10.832   8.536 -0.5234  0.2940 -0.4824
30777SOL    HW197269   5.074  10.798   8.447 -0.3200 -0.0079 -0.3495
30777SOL    HW297270   5.090  10.924   8.528 -1.4950  0.5264 -0.9205
30778SOL     OW97271   8.954   1.757  11.090 -0.1343 -0.3846 -0.3941
30778SOL    HW197272   8.897   1.829  11.116  0.4482 -0.2968  0.7154
30778SOL    HW297273   8.970   1.771  10.997 -2.2490 -0.6591 -0.8489
30779SOL     OW97274  10.394   3.203   5.257  0.5061  0.1298  0.2350
30779SOL    HW197275  10.350   3.118   5.247  1.2252 -0.1931 -0.2609
30779SOL    HW297276  10.411   3.232   5.167  1.4434  0.1738  0.4171
30780SOL     OW97277   4.788   7.575   6.516 -0.0502 -0.4649 -0.1525
30780SOL    HW197278   4.844   7.498   6.527  0.2120 -0.6446 -2.4440
30780SOL    HW297279   4.846   7.649   6.536  0.2003 -0.7739  0.2870
30781SOL     OW97280   6.302   0.808   2.519 -0.4602 -0.0009 -0.7005
30781SOL    HW197281   6.288   0.846   2.606  0.2989  1.9966 -1.3921
30781SOL    HW297282   6.214   0.798   2.483 -0.6962  1.7515 -0.7043
30782SOL     OW97283  10.096   0.267  11.628 -0.6757 -0.1433  0.3396
30782SOL    HW197284  10.141   0.187  11.655  0.4578  0.0815 -0.7600
30782SOL    HW297285  10.013   0.266  11.675 -1.0275 -2.3652 -0.2258
30783SOL     OW97286   6.878   9.645   6.828  0.2166  0.4875  0.2242
30783SOL    HW197287   6.907   9.571   6.774  0.8031 -0.0790  1.2771
30783SOL    HW297288   6.950   9.659   6.890 -0.3015  1.3183  0.6642
30784SOL     OW97289   0.997   7.885   1.030 -0.1186  0.0428 -0.2507
30784SOL    HW197290   0.973   7.976   1.047 -1.7944 -0.3543 -0.3205
30784SOL    HW297291   1.084   7.876   1.068  0.9146  2.1647 -1.8875
30785SOL     OW97292  10.841  10.049   6.817  0.1143  0.6197  0.6807
30785SOL    HW197293  10.860   9.999   6.897  3.3248  1.5073  0.6451
30785SOL    HW297294  10.889  10.131   6.830 -1.1580  1.7320 -1.2397
30786SOL     OW97295   8.699   6.626   0.322 -0.1916 -0.4445  0.6859
30786SOL    HW197296   8.783   6.670   0.307 -1.5820  2.1241 -0.0985
30786SOL    HW297297   8.716   6.534   0.299  3.0248 -0.6103  3.0202
30787SOL     OW97298   6.493   2.057   5.122  0.2166  0.5319  0.1273
30787SOL    HW197299   6.577   2.069   5.166 -1.0529 -0.3192  3.0287
30787SOL    HW297300   6.433   2.113   5.170 -0.9047  1.2849 -2.0319
30788SOL     OW97301   0.533   4.404   8.059  0.8154 -0.7689 -0.3082
30788SOL    HW197302   0.591   4.455   8.003 -0.2248 -0.2528 -0.9429
30788SOL    HW297303   0.445   4.429   8.032  0.2636 -2.7717 -0.5232
30789SOL     OW97304   8.706   0.266   1.019 -0.2622  0.7441 -0.2328
30789SOL    HW197305   8.724   0.260   0.925 -2.8356 -0.5387 -0.7283
30789SOL    HW297306   8.732   0.182   1.054  2.6518  1.9121  0.6939
30790SOL     OW97307   3.165   5.440   1.048 -0.1503  0.6741  0.1092
30790SOL    HW197308   3.250   5.411   1.015  0.1861  1.4820  0.2383
30790SOL    HW297309   3.144   5.377   1.117 -0.0893 -0.0630 -0.5345
30791SOL     OW97310   8.734   3.109   5.335  0.5677  0.0738  0.0138
30791SOL    HW197311   8.805   3.059   5.376  0.9019  0.6500  0.1493
30791SOL    HW297312   8.760   3.200   5.346 -0.6036  0.3271  0.8196
30792SOL     OW97313  10.083   2.102  11.131  0.2972  0.0292 -0.1427
30792SOL    HW197314   9.991   2.084  11.111  0.8704 -1.3441 -1.7739
30792SOL    HW297315  10.123   2.121  11.047  2.0525 -2.1704  0.0993
30793SOL     OW97316  10.302   4.461   8.053  0.1726  0.6612  0.2042
30793SOL    HW197317  10.333   4.552   8.054  1.0658  0.3680  0.1693
30793SOL    HW297318  10.368   4.414   8.002 -0.0282 -0.0910  0.6268
30794SOL     OW97319   9.549   4.112   7.545 -0.1577  0.2826 -0.6121
30794SOL    HW197320   9.531   4.168   7.620 -4.3393 -0.0824 -1.0880
30794SOL    HW297321   9.591   4.035   7.583 -0.4037  0.9233  1.0643
30795SOL     OW97322   6.814   6.380   2.817  0.0963 -0.0541  0.0029
30795SOL    HW197323   6.785   6.441   2.749  0.9972 -0.3069 -0.6252
30795SOL    HW297324   6.784   6.294   2.786  0.9389 -0.2358 -0.3414
30796SOL     OW97325   5.197   7.389   9.444 -0.5918  0.7286 -0.3436
30796SOL    HW197326   5.176   7.340   9.364  0.0940 -0.6298  0.2740
30796SOL    HW297327   5.291   7.379   9.454 -1.0027 -1.9331  2.3225
30797SOL     OW97328   5.450   8.430   9.000  0.3290  0.0093 -1.0491
30797SOL    HW197329   5.440   8.349   9.049 -1.0786  0.6276 -0.2915
30797SOL    HW297330   5.485   8.402   8.915 -3.0607 -1.8079 -2.0177
30798SOL     OW97331   0.913   5.966   6.615  0.4942 -0.1655 -0.0464
30798SOL    HW197332   0.913   5.949   6.520  0.4275 -2.1866  0.2741
30798SOL    HW297333   0.878   6.055   6.623 -1.8999 -0.8440 -1.8153
30799SOL     OW97334   9.185   5.531   2.238 -0.0608 -0.2677  0.2283
30799SOL    HW197335   9.234   5.454   2.268  0.8968  0.1794 -0.1355
30799SOL    HW297336   9.107   5.533   2.294  0.1855 -1.1640  0.6304
30800SOL     OW97337   9.867   2.947   1.599 -0.3079  0.2268 -0.6961
30800SOL    HW197338   9.932   2.976   1.663  0.9009 -2.2356 -0.6749
30800SOL    HW297339   9.803   2.897   1.650 -0.7210  0.3512 -1.0821
30801SOL     OW97340   2.482   9.502   6.575 -0.1070  0.1499 -0.2399
30801SOL    HW197341   2.499   9.477   6.484  1.0137 -0.2988  0.0778
30801SOL    HW297342   2.566   9.534   6.608 -1.1083  2.9453 -0.1393
30802SOL     OW97343   2.658   3.860  11.494  0.1029 -0.4738 -0.0940
30802SOL    HW197344   2.691   3.776  11.460  1.0913 -0.5573  1.0135
30802SOL    HW297345   2.672   3.854  11.588 -1.2968  0.3117  0.1782
30803SOL     OW97346  10.779   7.895   5.266  0.1287 -0.0276 -0.3846
30803SOL    HW197347  10.770   7.801   5.282  2.1341 -0.4111 -1.1952
30803SOL    HW297348  10.705   7.917   5.209 -1.0729 -0.8119  0.7986
30804SOL     OW97349   5.391   8.912   5.797 -0.1817 -0.4030  0.6287
30804SOL    HW197350   5.370   8.902   5.889  0.9191 -0.7977  0.8576
30804SOL    HW297351   5.310   8.943   5.757 -0.7886 -0.6118  1.6512
30805SOL     OW97352   3.211   7.050  11.084 -0.2066 -0.2210  0.4363
30805SOL    HW197353   3.186   7.117  11.020  0.6302  0.1347  0.4759
30805SOL    HW297354   3.240   7.100  11.161  0.1797 -0.6274  0.5570
30806SOL     OW97355   8.418   0.190   4.048  0.2023 -0.1723 -0.2180
30806SOL    HW197356   8.384   0.272   4.083 -0.8889 -0.7626  0.1587
30806SOL    HW297357   8.480   0.216   3.980  1.8594  1.0052  1.6295
30807SOL     OW97358   9.521   6.715   3.460 -0.2780 -0.3285 -0.2468
30807SOL    HW197359   9.569   6.775   3.517 -3.1784  1.0305  0.9963
30807SOL    HW297360   9.528   6.755   3.373  0.2801  0.1820  0.0217
30808SOL     OW97361   5.487   8.769   0.094 -0.5494 -0.0690 -0.1489
30808SOL    HW197362   5.430   8.696   0.070  0.2253 -0.4954 -0.7343
30808SOL    HW297363   5.428   8.832   0.137 -1.5846 -0.2031 -1.3025
30809SOL     OW97364   4.406  10.202  11.062  0.3621 -0.1631 -0.2143
30809SOL    HW197365   4.417  10.129  11.122 -0.4754 -0.9989 -1.0323
30809SOL    HW297366   4.482  10.258  11.076  0.4123 -0.5790  1.2711
30810SOL     OW97367   6.050  11.193   2.939  0.6284  0.1358  0.2672
30810SOL    HW197368   6.124  11.180   2.998 -0.5065 -0.5080  1.6031
30810SOL    HW297369   6.038  11.108   2.897  3.0992  1.2243 -3.0425
30811SOL     OW97370   7.181  11.026   4.268  0.3848  0.7064  0.2911
30811SOL    HW197371   7.268  11.045   4.303  0.8748 -0.1642 -0.4187
30811SOL    HW297372   7.133  11.109   4.275  1.8328  1.6997 -0.9368
30812SOL     OW97373   6.710   9.476   6.435 -0.3377 -0.2208 -0.7159
30812SOL    HW197374   6.715   9.381   6.421 -1.8323 -0.1707 -1.9070
30812SOL    HW297375   6.718   9.487   6.530 -1.4506 -1.6705 -0.4186
30813SOL     OW97376   7.445   8.193   5.405 -0.0019 -0.1146  0.9326
30813SOL    HW197377   7.509   8.258   5.436  2.2103 -0.3999 -2.5213
30813SOL    HW297378   7.425   8.221   5.316 -2.3894 -1.8257  0.8638
30814SOL     OW97379   8.880   7.823   6.594  0.7316  0.0559  0.7256
30814SOL    HW197380   8.877   7.860   6.506  0.7091  0.2646  0.8135
30814SOL    HW297381   8.798   7.775   6.603  0.3176  0.7927  0.9617
30815SOL     OW97382   4.152   8.793   8.234  0.2601 -0.2033  0.5556
30815SOL    HW197383   4.071   8.843   8.248  0.6488  0.1460  1.6072
30815SOL    HW297384   4.148   8.768   8.141 -0.1631  1.3936  0.1080
30816SOL     OW97385   2.199   8.998   3.267  0.4979  0.0785 -0.2964
30816SOL    HW197386   2.283   8.961   3.295 -0.4782 -1.7556  0.3962
30816SOL    HW297387   2.136   8.929   3.287 -1.0315  0.9890 -1.8334
30817SOL     OW97388   9.431   5.155  11.054 -0.5451 -1.0049 -0.1317
30817SOL    HW197389   9.343   5.153  11.091 -1.3977 -1.4187 -2.0383
30817SOL    HW297390   9.419   5.126  10.964  1.3605  0.1515 -0.8143
30818SOL     OW97391   6.970   6.891   6.740 -0.2731  0.2263  0.1250
30818SOL    HW197392   7.034   6.866   6.673 -1.7599 -0.9635 -0.9444
30818SOL    HW297393   6.894   6.919   6.690 -1.1369  0.0835  1.3316
30819SOL     OW97394  11.626   0.025   8.455 -0.1866 -0.2618  0.5463
30819SOL    HW197395  11.684   0.101   8.462 -1.8947  1.1068  0.6018
30819SOL    HW297396  11.600   0.007   8.546 -0.4843 -0.3368  0.4465
30820SOL     OW97397   9.835   9.746   6.280 -0.5274 -0.3084 -0.0513
30820SOL    HW197398   9.799   9.833   6.296  0.9538  0.2754  0.3226
30820SOL    HW297399   9.930   9.760   6.277 -0.3506 -1.5685 -2.1551
30821SOL     OW97400   0.010   7.665   3.568 -0.2967  0.3819  0.3857
30821SOL    HW197401   0.002   7.651   3.662  2.3910  1.6155  0.9201
30821SOL    HW297402   0.079   7.604   3.541 -2.1616 -1.1444 -1.1847
30822SOL     OW97403   0.566  10.083   7.678  0.5298  0.0026  0.5477
30822SOL    HW197404   0.556  10.019   7.749  1.0827 -1.5171 -0.6925
30822SOL    HW297405   0.477  10.098   7.647  0.4072 -0.2664  0.7629
30823SOL     OW97406   1.054  11.558  11.569  0.9027  0.0446  0.1358
30823SOL    HW197407   0.978  11.615  11.582  0.6220 -0.0678 -0.8765
30823SOL    HW297408   1.016  11.470  11.561  1.0525  0.0745 -1.1029
30824SOL     OW97409   1.728  10.221   1.015  0.1922 -0.6493  0.4120
30824SOL    HW197410   1.670  10.145   1.028 -1.3520  0.5285  0.7570
30824SOL    HW297411   1.793  10.191   0.951 -1.0331 -1.9171 -0.2985
30825SOL     OW97412   3.136  10.244   0.307 -0.0069 -0.1654 -0.0031
30825SOL    HW197413   3.207  10.306   0.290 -0.1641  0.5493  1.6958
30825SOL    HW297414   3.180  10.164   0.336  0.1842 -0.7845 -1.8984
30826SOL     OW97415   2.350   4.391   2.559  0.4188  0.1009  0.7372
30826SOL    HW197416   2.255   4.383   2.566  0.5157 -1.5443  0.6265
30826SOL    HW297417   2.367   4.485   2.570 -1.2434  0.4954  0.2806
30827SOL     OW97418   3.477   0.713  10.368 -0.0760 -0.0484  0.1807
30827SOL    HW197419   3.563   0.752  10.352  0.9309 -1.6214  1.4740
30827SOL    HW297420   3.446   0.688  10.281  0.2983  1.4276 -0.4059
30828SOL     OW97421   6.884   5.885   8.619  0.2196  0.0105 -0.0442
30828SOL    HW197422   6.880   5.875   8.714  0.2791 -1.8262 -0.2031
30828SOL    HW297423   6.936   5.810   8.588  0.8132  0.9592 -1.4745
30829SOL     OW97424   7.405   5.356   2.762  0.3241  0.1395  0.7139
30829SOL    HW197425   7.359   5.344   2.679  0.8379  4.0525 -0.3277
30829SOL    HW297426   7.386   5.446   2.787  0.9273 -0.6316  4.4507
30830SOL     OW97427   5.824   1.725  10.447 -0.2069  0.4092 -0.3714
30830SOL    HW197428   5.789   1.704  10.533  0.8571  0.8871  0.2015
30830SOL    HW297429   5.801   1.651  10.392  0.5748 -0.7076  0.7564
30831SOL     OW97430   6.603   5.777   7.450  0.0692 -0.1983  0.0357
30831SOL    HW197431   6.652   5.853   7.482  0.3315 -0.6270  0.6749
30831SOL    HW297432   6.560   5.808   7.370 -1.0379  1.0678  1.0721
30832SOL     OW97433   4.812   7.407   0.216 -0.1666 -0.1554 -0.4231
30832SOL    HW197434   4.845   7.494   0.240 -0.4612 -0.7464  2.5537
30832SOL    HW297435   4.717   7.418   0.211 -0.1582 -0.1864 -0.6600
30833SOL     OW97436   0.865  10.168   9.514 -0.1245  0.3632 -0.0641
30833SOL    HW197437   0.862  10.201   9.604  0.4775  0.9733 -0.2628
30833SOL    HW297438   0.947  10.118   9.510 -0.6035 -0.4468 -0.0165
30834SOL     OW97439   4.369   2.593   4.060 -0.0166  0.7767  0.1850
30834SOL    HW197440   4.442   2.558   4.112 -0.4436  1.6713  1.4163
30834SOL    HW297441   4.290   2.565   4.108 -0.4043  1.8851  0.2171
30835SOL     OW97442   2.240   4.652   5.257  0.1565 -0.6307  0.3324
30835SOL    HW197443   2.270   4.729   5.306 -1.2954  0.8724 -0.9880
30835SOL    HW297444   2.279   4.662   5.170 -0.4498 -1.0904 -0.0064
30836SOL     OW97445   4.393   8.183   7.422  0.1284 -0.2193  0.5357
30836SOL    HW197446   4.487   8.172   7.436  0.5602 -0.0792 -1.7912
30836SOL    HW297447   4.381   8.169   7.327 -2.1340  0.1761  0.7008
30837SOL     OW97448   3.254   9.776   2.239 -0.6801 -0.5334  0.4069
30837SOL    HW197449   3.339   9.803   2.274 -0.4378 -1.4871  0.5789
30837SOL    HW297450   3.254   9.809   2.149 -0.7684  0.7847  0.8667
30838SOL     OW97451   3.048  11.521   7.159 -0.3087 -0.2900 -0.6494
30838SOL    HW197452   3.135  11.498   7.126 -0.2857 -0.3091 -0.5775
30838SOL    HW297453   2.987  11.484   7.095 -0.3148 -1.7615  0.1527
30839SOL     OW97454   0.487   9.830   7.284 -0.1102  0.4310 -0.0055
30839SOL    HW197455   0.408   9.883   7.284  0.0042  0.6085 -0.4934
30839SOL    HW297456   0.466   9.756   7.341 -1.2180 -0.3747 -1.3783
30840SOL     OW97457   0.015   5.698   7.790 -0.2955 -0.1454 -0.4981
30840SOL    HW197458   0.102   5.735   7.804  0.2358 -1.0704 -1.2150
30840SOL    HW297459   0.023   5.606   7.816 -0.9089 -0.3725 -1.0690
30841SOL     OW97460   6.987   7.577   5.567 -0.1543 -0.3554  0.4590
30841SOL    HW197461   6.911   7.522   5.544  0.1238 -0.6902  0.3304
30841SOL    HW297462   6.950   7.665   5.579 -0.3829 -0.2511 -0.8537
30842SOL     OW97463   6.881   7.967   5.376  0.4017  0.5309  0.0734
30842SOL    HW197464   6.952   8.014   5.334 -0.0894 -0.1030 -1.5279
30842SOL    HW297465   6.803   8.019   5.357  0.1827  0.3016  0.3278
30843SOL     OW97466   8.364   0.041  10.940 -0.3166  0.1701  0.2405
30843SOL    HW197467   8.290   0.102  10.931  0.6966  1.2789 -1.1144
30843SOL    HW297468   8.436   0.095  10.973  0.5552 -0.2977 -0.8239
30844SOL     OW97469  10.256   4.437   3.693  0.5195  0.1529  0.9622
30844SOL    HW197470  10.264   4.514   3.750  1.8654  0.4921  0.3505
30844SOL    HW297471  10.169   4.402   3.713 -0.6034  2.4675  0.4581
30845SOL     OW97472   7.313   3.167   4.152 -0.1122  0.5250  0.3560
30845SOL    HW197473   7.308   3.211   4.237  1.8297 -1.7675  1.7626
30845SOL    HW297474   7.364   3.226   4.097  2.3994  0.1687  2.1709
30846SOL     OW97475   9.714  10.080   1.714  0.0158  0.0313 -0.6135
30846SOL    HW197476   9.729  10.165   1.757  1.6414  0.9973 -2.8755
30846SOL    HW297477   9.792  10.029   1.735 -0.6295 -0.6689  0.1342
30847SOL     OW97478   2.271  10.298   7.764  0.4033 -0.2407 -0.2071
30847SOL    HW197479   2.285  10.210   7.799  0.5704 -0.0137  0.3119
30847SOL    HW297480   2.209  10.339   7.825 -0.1013 -0.1835 -0.7542
30848SOL     OW97481   8.943   9.013   5.184  0.1232  0.4570 -0.2121
30848SOL    HW197482   9.020   8.956   5.188 -0.4880 -0.4652 -1.0353
30848SOL    HW297483   8.924   9.033   5.276 -0.8742 -2.4624  0.3493
30849SOL     OW97484   5.500   4.223   4.779  0.4594 -0.2743 -0.2405
30849SOL    HW197485   5.473   4.156   4.842  0.5810 -0.9900 -0.9398
30849SOL    HW297486   5.444   4.299   4.799 -1.7287 -1.5213 -1.2869
30850SOL     OW97487   1.604   6.997   0.955 -0.4676  0.1325 -0.0369
30850SOL    HW197488   1.555   7.013   0.874  0.7957  0.4807 -0.7644
30850SOL    HW297489   1.586   7.073   1.010 -0.2309  0.5743 -0.5663
30851SOL     OW97490   9.928   8.497   6.784  0.5198  0.4335  0.0165
30851SOL    HW197491   9.976   8.580   6.778 -1.7094  1.6974 -1.5691
30851SOL    HW297492   9.945   8.454   6.700  1.0225 -0.3721  0.5205
30852SOL     OW97493   5.157   4.608   5.058  0.3679 -0.5488  0.0530
30852SOL    HW197494   5.245   4.603   5.095 -0.2870 -0.5058  1.7123
30852SOL    HW297495   5.112   4.531   5.092 -0.0980 -0.8546 -1.2110
30853SOL     OW97496   8.206   6.459  11.262  0.5391 -0.0082  0.4014
30853SOL    HW197497   8.182   6.441  11.353 -0.9071  0.8219  0.2173
30853SOL    HW297498   8.273   6.527  11.269  0.5483 -0.0564  0.8440
30854SOL     OW97499   7.096  10.844   7.346  0.1014  0.5940 -0.1703
30854SOL    HW197500   7.182  10.804   7.360  0.2481  1.0140  0.1699
30854SOL    HW297501   7.084  10.840   7.251 -0.4207 -1.2945 -0.0549
30855SOL     OW97502   0.134   8.607   7.982 -0.2560 -0.4444  0.3024
30855SOL    HW197503   0.196   8.604   8.054  0.5553 -2.5614 -0.4006
30855SOL    HW297504   0.189   8.614   7.903 -0.9430 -1.3047 -0.2710
30856SOL     OW97505  10.874   8.959   6.985  0.3466 -0.1990 -0.4257
30856SOL    HW197506  10.823   8.988   6.909 -0.1500  0.0301 -0.0070
30856SOL    HW297507  10.924   8.883   6.953 -0.8617 -0.9341 -0.6353
30857SOL     OW97508   5.888   6.645   3.264 -0.1980  0.4962  0.4791
30857SOL    HW197509   5.948   6.611   3.198  0.6838  1.6099  0.6866
30857SOL    HW297510   5.932   6.627   3.348 -0.6468  0.3843  0.6967
30858SOL     OW97511   9.602   8.414   5.046  0.2234  0.0941  0.0255
30858SOL    HW197512   9.610   8.509   5.046 -1.1270  0.2309 -0.2697
30858SOL    HW297513   9.621   8.388   4.955 -0.9116  0.2439 -0.2634
30859SOL     OW97514   1.632   0.636   9.150 -0.1352 -0.1854  0.2073
30859SOL    HW197515   1.562   0.686   9.109  1.5935  2.4392  0.2380
30859SOL    HW297516   1.712   0.666   9.107  1.1299 -2.2014  0.9805
30860SOL     OW97517   7.869   2.494   7.878 -0.3469  0.2394 -0.0883
30860SOL    HW197518   7.809   2.475   7.951  0.7419  1.6448  1.2354
30860SOL    HW297519   7.831   2.571   7.835 -0.6119 -0.1656 -0.5904
30861SOL     OW97520   4.022   7.452  11.607 -0.8142  0.6632  0.1663
30861SOL    HW197521   4.067   7.491  11.533 -1.9801  1.2747 -0.2449
30861SOL    HW297522   4.091   7.435  11.671  0.5338 -1.6535 -1.7423
30862SOL     OW97523   8.776  10.073  10.752 -0.0168 -0.2525  0.3211
30862SOL    HW197524   8.718  10.081  10.828 -0.1925  0.4258  0.1190
30862SOL    HW297525   8.762  10.153  10.702 -2.4860 -2.0990 -2.2894
30863SOL     OW97526   6.084   9.294   7.272  0.2201  0.1831  0.3657
30863SOL    HW197527   6.145   9.220   7.267 -0.4859 -0.4345  0.6187
30863SOL    HW297528   6.076   9.325   7.182  1.4458  0.7349  0.4279
30864SOL     OW97529  10.935   6.384   3.203 -0.2350  0.6151 -0.4142
30864SOL    HW197530  10.884   6.368   3.124  1.4009  1.8329 -1.8086
30864SOL    HW297531  11.017   6.422   3.171  0.7585  0.5441  1.8391
30865SOL     OW97532   7.553   3.985   7.198 -0.1501 -0.7372 -0.2576
30865SOL    HW197533   7.556   4.049   7.269  1.0182 -0.2922 -0.6972
30865SOL    HW297534   7.527   3.903   7.241  0.6703 -0.5054  0.7083
30866SOL     OW97535   3.912  10.615   1.090 -0.5633  0.2426  0.1710
30866SOL    HW197536   3.964  10.696   1.093  0.2780 -0.2956  0.2284
30866SOL    HW297537   3.897  10.600   0.996  0.8006 -0.4750  0.0353
30867SOL     OW97538   7.051   8.156  10.942  0.0452  0.4498  0.7436
30867SOL    HW197539   7.098   8.079  10.972  0.1152  0.8384  1.6668
30867SOL    HW297540   6.964   8.148  10.983 -0.3209  0.3016 -0.0475
30868SOL     OW97541   4.240   9.932   8.498  0.4354 -0.2371 -0.5027
30868SOL    HW197542   4.272  10.008   8.546  1.7585 -0.4373 -1.0365
30868SOL    HW297543   4.303   9.862   8.519 -0.1586 -0.8936 -0.8557
30869SOL     OW97544  10.024  11.465   3.244 -0.3103 -0.3230 -0.2430
30869SOL    HW197545   9.995  11.414   3.168 -1.0822  1.0179 -0.8808
30869SOL    HW297546  10.068  11.541   3.207 -0.8300  0.4318  0.6238
30870SOL     OW97547   2.597   7.334   6.465 -0.3968  0.3187 -0.0234
30870SOL    HW197548   2.610   7.408   6.406 -1.6118 -0.5535 -1.4798
30870SOL    HW297549   2.502   7.331   6.479 -0.8122 -2.5509 -2.3391
30871SOL     OW97550   8.688   5.271   0.153  0.2692 -0.2841  0.0486
30871SOL    HW197551   8.784   5.265   0.154  0.1977 -1.6336  0.7472
30871SOL    HW297552   8.670   5.364   0.138  1.6663 -0.2383 -1.7098
30872SOL     OW97553   0.657   8.897   2.897 -0.0245  0.9050  0.0441
30872SOL    HW197554   0.693   8.986   2.891  0.2222  0.7494 -0.7729
30872SOL    HW297555   0.566   8.906   2.868 -1.0475  1.4940  3.0638
30873SOL     OW97556   3.956   7.629  11.007 -0.4090 -0.0155 -0.3926
30873SOL    HW197557   4.023   7.607  10.943 -0.8410 -0.1064 -0.8233
30873SOL    HW297558   4.001   7.627  11.091  0.2219  0.3251 -0.7125
30874SOL     OW97559   3.866   4.265  10.374 -0.2709  0.4910 -0.2189
30874SOL    HW197560   3.807   4.227  10.309 -1.2607  2.2815 -0.4280
30874SOL    HW297561   3.815   4.334  10.417  0.5011 -0.3257  2.1767
30875SOL     OW97562  10.932   4.206   3.691  0.3630  0.0663  0.3155
30875SOL    HW197563  10.945   4.264   3.616 -1.4515  1.8320  1.2813
30875SOL    HW297564  10.912   4.121   3.653 -1.9055  1.2301 -1.3001
30876SOL     OW97565   3.925   6.752   0.062 -0.6900  0.4365 -0.1396
30876SOL    HW197566   4.010   6.721   0.029 -0.7500  2.2069 -2.1570
30876SOL    HW297567   3.877   6.671   0.081  0.8114 -0.6374 -0.6339
30877SOL     OW97568   2.876   4.877   4.140 -0.0302 -0.1359  0.2802
30877SOL    HW197569   2.927   4.886   4.060  0.0008 -0.4794  0.2611
30877SOL    HW297570   2.787   4.902   4.115 -0.5404 -2.4632 -0.4543
30878SOL     OW97571   6.121   0.255   1.269  0.1378  0.0704  0.4739
30878SOL    HW197572   6.155   0.172   1.304 -0.5053 -0.6271 -0.5052
30878SOL    HW297573   6.034   0.263   1.306 -0.9306 -1.1516 -1.5972
30879SOL     OW97574   2.173   3.032   4.385  0.1771  0.2485 -0.3195
30879SOL    HW197575   2.177   2.940   4.413 -1.9027  0.2046 -0.0242
30879SOL    HW297576   2.165   3.082   4.466  0.9849  0.6704 -0.4978
30880SOL     OW97577   0.272   7.645   1.883 -0.1055  0.0780 -0.5906
30880SOL    HW197578   0.188   7.603   1.866 -0.1232  1.2454 -4.2385
30880SOL    HW297579   0.285   7.635   1.978 -2.9090 -2.6637 -0.3334
30881SOL     OW97580   6.133   2.845  10.741 -0.0023  0.5104 -0.6119
30881SOL    HW197581   6.206   2.790  10.711 -0.3420 -0.3565  0.1117
30881SOL    HW297582   6.118   2.906  10.669  0.4733 -0.2635 -1.3818
30882SOL     OW97583   8.357   7.476   7.811 -0.3006 -0.2769 -0.0676
30882SOL    HW197584   8.421   7.525   7.864 -0.2491 -0.7169  0.2873
30882SOL    HW297585   8.295   7.543   7.781 -0.2477  0.0086  0.4322
30883SOL     OW97586   7.274   6.166   1.954  0.3738  0.0543  0.0097
30883SOL    HW197587   7.180   6.185   1.952  0.2974 -0.3198 -0.2041
30883SOL    HW297588   7.315   6.248   1.979  0.0402  0.4130 -0.5878
30884SOL     OW97589  10.980   8.827   3.923  0.2213 -0.3163  0.3773
30884SOL    HW197590  10.949   8.912   3.892 -0.2608 -1.2737 -1.9998
30884SOL    HW297591  10.902   8.771   3.920  0.8372 -1.1959  0.4964
30885SOL     OW97592  10.977   6.081   8.501 -0.0745 -0.4208  0.2705
30885SOL    HW197593  10.895   6.034   8.487 -0.8416  1.2681 -1.2928
30885SOL    HW297594  10.985   6.138   8.425  2.5171 -0.4441  0.4319
30886SOL     OW97595   3.916   9.540   3.261  0.1041  0.0606  0.3527
30886SOL    HW197596   3.829   9.564   3.295  0.2611  0.6605  0.3440
30886SOL    HW297597   3.976   9.563   3.331  0.6511  3.1350 -0.9675
30887SOL     OW97598   5.019   0.271   9.973  0.1664  0.0891  0.3774
30887SOL    HW197599   4.941   0.216   9.982  0.0454  0.3146  0.7092
30887SOL    HW297600   4.989   0.347   9.922  0.4412 -0.3576 -0.4817
30888SOL     OW97601   0.292  11.011  10.206 -0.0391  0.4053 -0.0324
30888SOL    HW197602   0.348  11.088  10.203  2.0803 -0.9829 -4.1555
30888SOL    HW297603   0.241  11.015  10.125 -0.0484 -2.3166 -0.2601
30889SOL     OW97604   6.618   1.117   2.314 -0.0762  0.1264 -0.3716
30889SOL    HW197605   6.606   1.027   2.346 -0.2840  0.6348  1.0491
30889SOL    HW297606   6.713   1.126   2.303 -0.1328 -0.6538 -1.7785
30890SOL     OW97607   0.175   7.780   9.357  0.0120  0.1288  0.0449
30890SOL    HW197608   0.155   7.695   9.318  0.4975  0.0780 -0.1022
30890SOL    HW297609   0.186   7.838   9.282  0.4549  0.1417  0.1134
30891SOL     OW97610   4.284   2.509   7.759 -0.0581  0.1155 -0.0209
30891SOL    HW197611   4.229   2.586   7.745 -1.1812 -0.2531  1.9710
30891SOL    HW297612   4.225   2.434   7.744  0.8493 -0.3857 -1.2948
30892SOL     OW97613   9.934   4.839   5.446  0.6187  0.0357 -0.1131
30892SOL    HW197614   9.986   4.883   5.379  0.5895  0.6393  0.2536
30892SOL    HW297615   9.954   4.747   5.435  1.1582  0.1922 -0.4942
30893SOL     OW97616   0.204   8.510   6.021 -0.4682  1.0665 -0.2837
30893SOL    HW197617   0.252   8.449   6.076 -3.5815 -1.7875 -0.4568
30893SOL    HW297618   0.171   8.576   6.082 -0.3214  0.3757  0.5675
30894SOL     OW97619   5.915   1.419   4.882 -0.1560  0.6383 -0.2352
30894SOL    HW197620   5.966   1.496   4.859  3.8267 -2.2753 -2.4385
30894SOL    HW297621   5.919   1.414   4.977  1.3405  2.0182 -0.1943
30895SOL     OW97622   7.535   1.087   7.487 -0.4263 -0.8099 -0.5390
30895SOL    HW197623   7.566   1.044   7.566 -0.7701 -0.0859  0.0024
30895SOL    HW297624   7.614   1.119   7.444 -0.3272  0.1987  0.3498
30896SOL     OW97625   3.353   4.587   0.513  0.7342 -0.1909 -0.4009
30896SOL    HW197626   3.258   4.577   0.521  0.7634  0.9670  2.6345
30896SOL    HW297627   3.364   4.674   0.474  0.4959  0.5467  1.1099
30897SOL     OW97628  10.434   0.220   3.233 -0.3587  0.1976  0.3106
30897SOL    HW197629  10.396   0.132   3.233  0.2424 -0.0630  0.0395
30897SOL    HW297630  10.412   0.255   3.320  0.3524 -0.6374  0.8426
30898SOL     OW97631   1.882  10.882   8.365  0.4251  0.4027  0.7634
30898SOL    HW197632   1.910  10.951   8.426  0.2098  1.0404  0.1496
30898SOL    HW297633   1.789  10.871   8.382  0.0166  1.6694 -0.4834
30899SOL     OW97634   1.329   4.171   7.295 -0.0024 -0.2533  0.7649
30899SOL    HW197635   1.248   4.209   7.330  0.4054 -0.0539  1.5222
30899SOL    HW297636   1.387   4.164   7.371  0.2322 -1.6264  0.4898
30900SOL     OW97637   6.836   6.906   1.956 -0.8398  0.3043 -0.3209
30900SOL    HW197638   6.929   6.903   1.978 -1.0951 -0.6161  0.7131
30900SOL    HW297639   6.832   6.954   1.873  0.5400  0.4273 -0.3312
30901SOL     OW97640   2.347  11.345   6.093 -0.4261 -0.3307  0.2954
30901SOL    HW197641   2.437  11.316   6.104 -0.2265 -0.2220 -0.8884
30901SOL    HW297642   2.307  11.278   6.038  0.2029  1.7637 -3.0168
30902SOL     OW97643   4.618   5.813   6.978 -0.1237  0.5780  0.0315
30902SOL    HW197644   4.535   5.851   7.004 -2.1020 -1.7374 -2.2340
30902SOL    HW297645   4.648   5.868   6.905 -1.3885 -0.3235 -1.2267
30903SOL     OW97646   6.747   5.278   8.083  0.0195 -0.3929 -0.2224
30903SOL    HW197647   6.738   5.242   7.994 -3.6424 -1.5344  0.4267
30903SOL    HW297648   6.803   5.214   8.129  0.7415 -0.5639 -1.3031
30904SOL     OW97649   5.307   5.604   1.923 -0.0025  0.3496  0.4805
30904SOL    HW197650   5.282   5.598   1.831 -0.0300  0.5799  0.4739
30904SOL    HW297651   5.267   5.527   1.963  0.6472 -0.1763  0.1565
30905SOL     OW97652   5.173   4.148   9.590  0.0249  0.1422  0.7394
30905SOL    HW197653   5.225   4.068   9.584  1.7496  0.9937  3.0236
30905SOL    HW297654   5.187   4.193   9.507  1.3640 -0.5909  0.5538
30906SOL     OW97655   8.421   9.710   8.208 -0.1547  0.1571 -0.7413
30906SOL    HW197656   8.469   9.627   8.215 -0.5553 -0.0341 -0.1296
30906SOL    HW297657   8.487   9.775   8.186  0.2803 -0.2122 -0.5319
30907SOL     OW97658   3.966   6.250   4.414 -0.8147 -0.1469 -0.4336
30907SOL    HW197659   4.017   6.170   4.429 -0.0112  0.5541  0.7292
30907SOL    HW297660   3.940   6.279   4.501 -3.2229 -0.4396 -0.9720
30908SOL     OW97661  10.018   9.430   7.954 -0.5012 -0.2433  0.5493
30908SOL    HW197662  10.108   9.461   7.949 -0.4591 -0.0925  1.8422
30908SOL    HW297663   9.972   9.480   7.886 -0.0801  1.4598  1.4518
30909SOL     OW97664   2.710   1.365   5.678 -0.3524  0.0243  0.4165
30909SOL    HW197665   2.750   1.347   5.763  0.1891 -0.9289 -0.0160
30909SOL    HW297666   2.616   1.356   5.692 -0.3644  1.2224  1.2071
30910SOL     OW97667   2.139   8.958   0.932 -0.5500  0.7137 -0.2347
30910SOL    HW197668   2.124   9.034   0.876 -0.8192  2.1246  1.6426
30910SOL    HW297669   2.062   8.956   0.990 -1.4334 -2.0704 -1.3284
30911SOL     OW97670   9.254   2.690   4.257 -0.0055 -0.3606 -0.1311
30911SOL    HW197671   9.173   2.650   4.227 -0.4361  0.3077  0.1148
30911SOL    HW297672   9.323   2.643   4.210 -0.4986 -1.2515  0.0125
30912SOL     OW97673   2.076   4.320   6.840 -0.0751 -0.1794 -0.0278
30912SOL    HW197674   2.121   4.256   6.785  1.4782  1.3380 -0.6052
30912SOL    HW297675   2.069   4.277   6.925  0.7239 -1.2014 -0.4499
30913SOL     OW97676   8.924   0.675   8.620  0.3031 -0.2629 -0.9547
30913SOL    HW197677   8.956   0.761   8.592  0.7184  0.1294  0.5945
30913SOL    HW297678   8.844   0.662   8.569  0.1483  1.1229 -1.1221
30914SOL     OW97679   6.913   1.315   2.084 -0.3336  0.0059 -0.3352
30914SOL    HW197680   6.882   1.335   1.996  1.7211 -0.1399 -1.1528
30914SOL    HW297681   6.872   1.382   2.139 -2.6749 -0.6686 -1.1310
30915SOL     OW97682   3.649  11.117   9.624 -0.0889  0.6670 -0.7350
30915SOL    HW197683   3.569  11.066   9.638 -0.3532  0.5748 -2.3886
30915SOL    HW297684   3.717  11.050   9.613  0.5327  0.7355  1.9494
30916SOL     OW97685   6.230   6.914   4.225 -0.0393 -0.0476  0.2313
30916SOL    HW197686   6.166   6.843   4.234  0.0258 -0.1912 -0.4084
30916SOL    HW297687   6.286   6.887   4.153 -0.3700  0.9304 -0.4109
30917SOL     OW97688   0.127   6.834   7.829 -0.7103  0.0857 -0.4103
30917SOL    HW197689   0.218   6.803   7.830 -1.6457 -2.9968 -0.7419
30917SOL    HW297690   0.075   6.756   7.809 -3.4476  1.7813 -0.4324
30918SOL     OW97691  10.237   0.938   3.883 -0.1152  0.3944  0.2542
30918SOL    HW197692  10.152   0.970   3.913  0.3766  1.4653  0.5565
30918SOL    HW297693  10.298   1.010   3.901  0.9680 -0.5721  0.6039
30919SOL     OW97694   3.905  11.095   5.455 -0.5437  0.2953 -0.7383
30919SOL    HW197695   3.998  11.076   5.441 -0.3717  1.3247 -1.0972
30919SOL    HW297696   3.866  11.093   5.367 -0.5199  1.5048 -0.7933
30920SOL     OW97697   2.578  10.965   0.256 -0.2213 -0.2579 -0.7812
30920SOL    HW197698   2.594  10.990   0.347 -2.0574 -2.9038  0.3843
30920SOL    HW297699   2.559  11.048   0.212 -0.7312  0.9781  1.5760
30921SOL     OW97700   1.275   3.275   8.766  0.0844 -0.4979  0.1284
30921SOL    HW197701   1.246   3.208   8.827  0.6133 -0.9251 -0.0887
30921SOL    HW297702   1.234   3.356   8.798 -0.0616 -0.8108  0.7383
30922SOL     OW97703   7.728   9.209   3.025  0.5474 -0.5791 -0.1185
30922SOL    HW197704   7.660   9.147   2.997 -2.5770  2.1611  0.6529
30922SOL    HW297705   7.764   9.244   2.944 -1.3073  0.1684 -0.6712
30923SOL     OW97706   5.456  10.960   5.470  0.5210 -0.7774  0.0290
30923SOL    HW197707   5.489  10.877   5.437  0.3122 -1.3625  1.2469
30923SOL    HW297708   5.363  10.959   5.448 -0.3236 -2.5222  3.1002
30924SOL     OW97709  10.909   8.829   9.808  0.4546  1.0048 -0.1448
30924SOL    HW197710  10.829   8.859   9.851  0.8270  0.3380  1.0705
30924SOL    HW297711  10.948   8.908   9.772 -1.1368  1.2379 -1.4751
30925SOL     OW97712   2.144   0.067   8.306 -0.0790  1.0930  0.4344
30925SOL    HW197713   2.104   0.107   8.228 -2.3969  1.8041  1.8856
30925SOL    HW297714   2.130  -0.027   8.293 -1.2405  1.2580  0.3525
30926SOL     OW97715   7.394   9.421   1.402 -0.2252  0.0874 -1.0715
30926SOL    HW197716   7.347   9.341   1.380  0.9608 -1.1010  0.4390
30926SOL    HW297717   7.470   9.420   1.344  0.4551 -0.5928 -0.2031
30927SOL     OW97718   0.593   2.161   0.849 -0.3197 -0.0158  0.5771
30927SOL    HW197719   0.593   2.210   0.767 -1.2495 -0.6524  0.1745
30927SOL    HW297720   0.643   2.215   0.910 -1.6609  1.6295  0.2863
30928SOL     OW97721   9.308   8.153   6.652 -0.5286 -0.3207  0.1266
30928SOL    HW197722   9.222   8.124   6.682 -0.8776  1.7848  1.3890
30928SOL    HW297723   9.321   8.238   6.695  2.7911 -1.1730  1.1545
30929SOL     OW97724   1.651   0.657   0.084 -0.4379 -0.2974 -0.3467
30929SOL    HW197725   1.708   0.698   0.148 -1.7026 -1.0920  1.3488
30929SOL    HW297726   1.594   0.728   0.054  0.3271  0.1320 -0.8210
30930SOL     OW97727  10.808   9.565   1.685 -0.5813 -0.0578 -0.1080
30930SOL    HW197728  10.741   9.541   1.620 -0.9251  0.0964  0.1848
30930SOL    HW297729  10.770   9.538   1.769  0.4432 -1.5789 -0.0797
30931SOL     OW97730   5.287  11.379   7.793  0.4260 -0.0618  0.3981
30931SOL    HW197731   5.316  11.344   7.709 -1.8872 -0.3127 -0.3726
30931SOL    HW297732   5.351  11.446   7.814  0.7128  0.4743 -1.9083
30932SOL     OW97733   5.724   8.301   6.716 -0.6056  0.5915 -0.2647
30932SOL    HW197734   5.804   8.249   6.708 -1.0517  0.1211 -2.5166
30932SOL    HW297735   5.653   8.238   6.703 -1.3111  1.1964  0.5066
30933SOL     OW97736   0.099   4.904   4.914 -0.1116 -0.1745 -0.5747
30933SOL    HW197737   0.167   4.944   4.968 -0.6606 -0.2163  0.1566
30933SOL    HW297738   0.147   4.850   4.852  0.5795  0.7273 -0.8432
30934SOL     OW97739   3.749   4.621   4.341 -0.0816 -0.4380 -0.0317
30934SOL    HW197740   3.687   4.694   4.336  0.4332 -0.0123 -0.2957
30934SOL    HW297741   3.734   4.573   4.260  0.6374  0.2503 -0.5899
30935SOL     OW97742   6.658  11.142   3.536 -0.1545  0.6197 -0.1562
30935SOL    HW197743   6.596  11.070   3.527  0.6367 -0.0060 -0.8566
30935SOL    HW297744   6.613  11.218   3.499 -1.3254  0.7040  1.3870
30936SOL     OW97745   0.825   7.657  10.519 -0.3903 -0.1862 -0.1889
30936SOL    HW197746   0.853   7.580  10.468  0.9173 -0.5822  1.0735
30936SOL    HW297747   0.839   7.731  10.459  1.8753 -0.5488 -0.2179
30937SOL     OW97748   8.146   1.473   9.460  0.0719 -0.2848 -0.0606
30937SOL    HW197749   8.241   1.466   9.456  0.1304  0.8557 -1.8742
30937SOL    HW297750   8.128   1.567   9.449 -1.2998 -0.7378 -2.4984
30938SOL     OW97751   2.394   4.799   5.451 -0.6319  0.3290 -0.5413
30938SOL    HW197752   2.482   4.810   5.416 -1.0725  1.4760 -1.3740
30938SOL    HW297753   2.381   4.877   5.506 -1.4912  0.7327 -1.2805
30939SOL     OW97754   0.408  11.266   8.405 -0.4964 -0.0065 -0.6136
30939SOL    HW197755   0.442  11.330   8.467  0.1562 -0.7703 -0.1509
30939SOL    HW297756   0.425  11.181   8.447 -1.2997 -0.4891 -1.2190
30940SOL     OW97757   2.219   6.728   5.636  0.1022  0.5535 -0.4219
30940SOL    HW197758   2.279   6.802   5.648 -0.4389  0.6946  1.9116
30940SOL    HW297759   2.157   6.736   5.709 -0.7064 -1.5069 -0.8341
30941SOL     OW97760   3.150   3.818   2.333 -0.4828  0.0276 -0.0606
30941SOL    HW197761   3.166   3.805   2.240  0.7526  4.0360 -0.5836
30941SOL    HW297762   3.088   3.891   2.337  1.2904  1.5449  2.1898
30942SOL     OW97763   4.256   3.596   1.645 -0.0237  0.0601  0.5080
30942SOL    HW197764   4.167   3.563   1.637 -0.6763  0.8116  3.4298
30942SOL    HW297765   4.245   3.688   1.669  1.4636 -0.1050  2.0438
30943SOL     OW97766   0.080   1.650   1.899  0.0615 -0.1280  0.1131
30943SOL    HW197767   0.141   1.724   1.908 -0.9490  0.7732 -0.2701
30943SOL    HW297768   0.006   1.685   1.850 -1.0574 -1.0309  1.0848
30944SOL     OW97769   0.125  10.850   8.018  0.5416  0.4524  0.2493
30944SOL    HW197770   0.138  10.933   8.063 -1.0854  0.6003  0.4951
30944SOL    HW297771   0.068  10.871   7.944 -0.3627 -0.5249  0.6455
30945SOL     OW97772   4.087   9.136   7.961 -0.0592 -0.3831 -0.4333
30945SOL    HW197773   4.091   9.225   7.927  0.5059 -0.8079 -1.5193
30945SOL    HW297774   4.154   9.088   7.912 -0.7886 -1.5572 -0.3292
30946SOL     OW97775   0.492   1.090   0.553 -0.8408 -0.0271  0.0493
30946SOL    HW197776   0.457   1.154   0.616 -1.2081 -0.0557 -0.1254
30946SOL    HW297777   0.566   1.136   0.512 -1.2438  0.3754 -0.2407
30947SOL     OW97778   4.240   1.355   9.063  0.6511 -0.3214 -0.5493
30947SOL    HW197779   4.265   1.447   9.057  1.6948 -0.5026  0.5240
30947SOL    HW297780   4.144   1.356   9.066  0.6623  0.8888  1.2379
30948SOL     OW97781   5.629   6.067  11.056  0.0527  0.0264  0.7779
30948SOL    HW197782   5.715   6.089  11.020 -1.4429  2.2226 -1.8354
30948SOL    HW297783   5.631   6.103  11.145  1.3996  1.2482  0.3024
30949SOL     OW97784   8.856   0.941   4.119  0.2302 -0.7042 -0.1840
30949SOL    HW197785   8.871   1.018   4.174  2.3611 -0.9952 -0.2788
30949SOL    HW297786   8.909   0.872   4.158 -0.9484 -1.9041 -0.6213
30950SOL     OW97787   4.427   2.945   7.126 -0.5407  0.8114 -0.3974
30950SOL    HW197788   4.380   2.867   7.153  0.5468  0.0946 -0.5019
30950SOL    HW297789   4.453   2.927   7.036  0.3678  0.9580 -0.1784
30951SOL     OW97790   6.508   1.346   4.633 -0.2498  0.0722 -0.8259
30951SOL    HW197791   6.442   1.339   4.702  0.2224 -1.4795 -0.4996
30951SOL    HW297792   6.492   1.432   4.594 -0.9674  0.7121  0.7649
30952SOL     OW97793   4.158   5.690   2.176  0.6887 -0.2296  0.0956
30952SOL    HW197794   4.221   5.761   2.166  0.6265 -0.1543  0.2353
30952SOL    HW297795   4.151   5.677   2.270  0.7126 -0.4340  0.0698
30953SOL     OW97796   9.971   5.075   9.758 -0.2622  0.7129  0.3905
30953SOL    HW197797   9.963   5.147   9.821 -0.3077  0.3557  0.8031
30953SOL    HW297798   9.944   4.997   9.808  0.4279  0.3090  0.1517
30954SOL     OW97799   2.761   6.394   9.606  0.2772 -0.4021  0.1287
30954SOL    HW197800   2.764   6.470   9.665 -0.5375 -2.3943  2.9728
30954SOL    HW297801   2.709   6.330   9.654 -2.4833 -1.4728 -3.8451
30955SOL     OW97802   3.392   3.693  10.992  0.2407 -0.1641  0.0682
30955SOL    HW197803   3.391   3.678  11.086  1.9503  1.7944  0.4941
30955SOL    HW297804   3.466   3.642  10.960  0.2653 -0.0562 -0.0477
30956SOL     OW97805   8.190   6.639   1.491 -0.1455  0.4773 -0.4299
30956SOL    HW197806   8.277   6.628   1.454 -0.7451 -0.7864 -1.5527
30956SOL    HW297807   8.131   6.605   1.424 -1.5170  1.3344  0.2886
30957SOL     OW97808   0.762   3.404   9.479 -0.0240 -0.8672  0.5636
30957SOL    HW197809   0.803   3.484   9.512  0.2027 -0.3093 -1.0052
30957SOL    HW297810   0.812   3.382   9.401 -1.2678 -1.4767 -0.0865
30958SOL     OW97811   4.951   4.369  10.227 -0.3478 -0.4166  0.2823
30958SOL    HW197812   4.999   4.404  10.302 -2.5041  0.0749  1.5410
30958SOL    HW297813   4.877   4.323  10.266 -1.9992  0.5344 -1.5522
30959SOL     OW97814  10.507   4.011   6.641  0.7182 -0.9134  0.0533
30959SOL    HW197815  10.513   3.915   6.646 -0.6350 -1.0373 -0.3835
30959SOL    HW297816  10.442   4.035   6.707  2.0700 -0.1299  1.1687
30960SOL     OW97817   3.637   4.031   0.142  0.0340 -0.1354 -0.0890
30960SOL    HW197818   3.634   4.072   0.228 -0.8899  2.5706 -1.2752
30960SOL    HW297819   3.677   3.946   0.157 -0.0151  0.2651  2.9704
30961SOL     OW97820   5.925   2.896   5.798  0.2293 -0.0287 -0.3261
30961SOL    HW197821   6.008   2.851   5.809  1.2768  1.5726 -1.3123
30961SOL    HW297822   5.859   2.834   5.830  1.7056 -1.6831 -0.3711
30962SOL     OW97823   6.132   1.168   7.895  0.0975 -0.5017 -0.1558
30962SOL    HW197824   6.185   1.218   7.832 -1.2304  1.1590 -0.0206
30962SOL    HW297825   6.089   1.101   7.842  0.6251 -0.4652 -0.6440
30963SOL     OW97826   8.757   5.247   7.316 -0.2206 -0.5781 -0.0234
30963SOL    HW197827   8.679   5.192   7.324 -1.7729  1.4898  0.0623
30963SOL    HW297828   8.807   5.209   7.244 -2.0684 -1.1238 -1.0828
30964SOL     OW97829   7.446   1.040   6.515 -0.6144 -0.2750 -0.2797
30964SOL    HW197830   7.424   0.973   6.450  0.9530 -0.6333 -0.4683
30964SOL    HW297831   7.531   1.014   6.549 -0.3164  1.2312  0.1920
30965SOL     OW97832  11.028   0.627  11.155  0.2988 -0.1976  0.3582
30965SOL    HW197833  11.110   0.665  11.121 -1.3093  1.7788 -1.5956
30965SOL    HW297834  11.014   0.549  11.101 -0.1621  0.6634 -0.8015
30966SOL     OW97835   0.309   6.669   1.266 -0.3211 -0.2110 -0.1326
30966SOL    HW197836   0.401   6.647   1.252  0.2221  2.2243 -0.8690
30966SOL    HW297837   0.265   6.645   1.184  0.6220  2.8315 -1.7142
30967SOL     OW97838  11.326   4.146   1.447 -0.1022 -0.8673 -0.6764
30967SOL    HW197839  11.371   4.177   1.369  1.0029 -1.9807 -0.5158
30967SOL    HW297840  11.253   4.094   1.414 -1.8515  1.6052 -0.9463
30968SOL     OW97841   6.672   4.874   1.732 -0.2873  0.0235 -0.2818
30968SOL    HW197842   6.699   4.959   1.768 -0.5401  0.0378 -0.1264
30968SOL    HW297843   6.638   4.826   1.807 -1.7090  0.4100 -0.6504
30969SOL     OW97844   1.406   6.969   0.264 -0.0385  0.5625 -0.1501
30969SOL    HW197845   1.427   7.063   0.257  0.6809  0.3595 -0.9412
30969SOL    HW297846   1.348   6.963   0.340  0.8641  1.5006  0.6550
30970SOL     OW97847   6.234   3.392   6.669 -0.3924 -0.2335  0.3745
30970SOL    HW197848   6.286   3.373   6.746 -0.4378  2.0099  1.0143
30970SOL    HW297849   6.290   3.368   6.595  0.2508 -0.8982  1.0644
30971SOL     OW97850   8.263   5.070   8.790  0.3977  0.4148 -0.2567
30971SOL    HW197851   8.245   5.012   8.716 -3.2688  0.0680  0.7127
30971SOL    HW297852   8.299   5.149   8.751  0.0013 -0.3380 -2.2332
30972SOL     OW97853   0.172   7.964   3.909 -0.1797  0.1806 -0.6341
30972SOL    HW197854   0.220   8.034   3.952 -0.3534  1.5425 -2.5039
30972SOL    HW297855   0.226   7.941   3.833 -1.2532 -0.0289 -1.3632
30973SOL     OW97856   1.499   5.299   3.946 -0.1531  0.2949  0.5086
30973SOL    HW197857   1.442   5.285   4.022  0.8182 -2.3480  0.8530
30973SOL    HW297858   1.448   5.267   3.871  0.7177 -2.0736  0.8173
30974SOL     OW97859   3.959   8.710   3.131 -0.2125  1.2160  0.0404
30974SOL    HW197860   3.990   8.783   3.078  0.5148  1.6439  1.0116
30974SOL    HW297861   4.000   8.633   3.092 -0.7817  1.3471 -0.8332
30975SOL     OW97862  10.265   3.999   2.748  0.0399  0.2640  0.4090
30975SOL    HW197863  10.305   3.930   2.801  0.9716  1.3163  1.1171
30975SOL    HW297864  10.264   4.076   2.805  2.1925  1.7904 -1.4126
30976SOL     OW97865   2.561   1.479   5.038 -0.1383  0.9338  0.9946
30976SOL    HW197866   2.559   1.566   5.078  0.8852  1.0462  0.8340
30976SOL    HW297867   2.493   1.481   4.971  0.7796  2.0699  0.0698
30977SOL     OW97868   0.064   2.994   3.828 -0.0924  0.3285  0.4614
30977SOL    HW197869   0.015   2.976   3.908 -1.2128  0.2960 -0.2239
30977SOL    HW297870   0.007   3.050   3.776  2.0823  3.4791  1.1999
30978SOL     OW97871   7.603   3.625   5.630 -0.5103 -0.0442  0.0931
30978SOL    HW197872   7.545   3.561   5.590  0.7946 -1.9635  1.0975
30978SOL    HW297873   7.670   3.642   5.563 -0.8943  0.3404 -0.1978
30979SOL     OW97874   2.006  10.270   7.338  0.2241  0.1856  0.2377
30979SOL    HW197875   1.991  10.312   7.253  0.3182  0.9364  0.5833
30979SOL    HW297876   2.013  10.343   7.400 -0.5837 -0.3726  1.0164
30980SOL     OW97877   2.138   8.795   0.496 -0.3732  0.4422  0.2077
30980SOL    HW197878   2.201   8.730   0.465 -1.7174 -1.4560  1.2147
30980SOL    HW297879   2.166   8.877   0.456  2.1268 -0.4992 -0.1496
30981SOL     OW97880   7.172   2.272  11.679  0.1458 -0.1160  0.0292
30981SOL    HW197881   7.150   2.323  11.757 -1.1585  0.5238 -0.7399
30981SOL    HW297882   7.266   2.255  11.688  0.3393  1.2915  0.9519
30982SOL     OW97883   9.151   4.498   6.181 -0.2581  0.2050  0.0192
30982SOL    HW197884   9.085   4.439   6.144  0.5026 -1.8402  1.7196
30982SOL    HW297885   9.233   4.471   6.142 -0.2004  1.9528 -1.1747
30983SOL     OW97886   4.257   6.280   3.058  0.0983 -0.8003  0.1562
30983SOL    HW197887   4.214   6.268   2.974  0.2162 -1.9450  0.2454
30983SOL    HW297888   4.343   6.315   3.037 -0.4350  0.4114 -0.0917
30984SOL     OW97889   6.275   5.418   5.890  0.0850  0.3442  0.0344
30984SOL    HW197890   6.344   5.483   5.893 -1.6273  2.2312  1.0917
30984SOL    HW297891   6.281   5.372   5.974 -0.7647  1.4827  0.7525
30985SOL     OW97892   2.618  11.344   0.643  0.0293 -0.1224  0.1704
30985SOL    HW197893   2.533  11.351   0.685  0.8070  2.2406  1.5643
30985SOL    HW297894   2.622  11.419   0.584  0.8358 -0.6728 -0.4929
30986SOL     OW97895   4.773   3.525   1.347  0.6415 -0.3193 -0.1345
30986SOL    HW197896   4.714   3.553   1.277  0.1580  0.4305  0.5533
30986SOL    HW297897   4.838   3.470   1.303  1.3998  1.5434 -1.4946
30987SOL     OW97898   6.188   2.726   4.322  0.4395 -0.3723  0.5069
30987SOL    HW197899   6.109   2.764   4.285  0.1909 -0.3817  1.0140
30987SOL    HW297900   6.159   2.686   4.404  0.7693 -1.3325  0.1581
30988SOL     OW97901  11.063   3.532   1.168 -0.1958 -0.3196 -0.3675
30988SOL    HW197902  11.048   3.626   1.182 -0.5115 -0.6285  1.8362
30988SOL    HW297903  10.985   3.501   1.123 -1.1926  0.0866  1.0232
30989SOL     OW97904   4.192   2.180  11.262  0.0388  0.3679  0.0854
30989SOL    HW197905   4.111   2.231  11.260  0.8681  1.7507 -0.3389
30989SOL    HW297906   4.236   2.203  11.180  1.9986  1.6408  1.4055
30990SOL     OW97907   1.491   2.189   4.708 -0.5832  0.4081 -0.1674
30990SOL    HW197908   1.445   2.156   4.631 -0.5563  1.0085 -0.4501
30990SOL    HW297909   1.472   2.283   4.709  1.3280  0.8531 -0.7990
30991SOL     OW97910   1.966   9.998   2.421 -0.3149 -0.2123  0.0766
30991SOL    HW197911   1.877   9.988   2.455  0.2552 -1.6905  1.2334
30991SOL    HW297912   2.022   9.953   2.484  1.3148  0.9230 -0.4627
30992SOL     OW97913   2.817   8.871   1.300  0.3987 -0.2387 -0.2934
30992SOL    HW197914   2.888   8.818   1.264 -0.1568 -0.7419 -0.6782
30992SOL    HW297915   2.796   8.934   1.231  0.4646 -0.0938 -0.1826
30993SOL     OW97916   9.769   7.835   9.695  0.3200  0.8015  0.1894
30993SOL    HW197917   9.700   7.866   9.637  1.1035  1.8913 -0.2039
30993SOL    HW297918   9.751   7.877   9.779  0.0823  0.4766  0.3045
30994SOL     OW97919   5.676   7.489   8.924 -0.2048  0.0261 -0.4367
30994SOL    HW197920   5.605   7.497   8.860 -1.2697  1.0839  0.8281
30994SOL    HW297921   5.669   7.399   8.956 -1.2012  0.2239 -0.0787
30995SOL     OW97922   8.771   4.209   4.211 -0.0862  0.1891  0.0389
30995SOL    HW197923   8.854   4.162   4.209  0.1132  0.5564 -0.9286
30995SOL    HW297924   8.793   4.298   4.181 -0.8060  0.3290 -0.0969
30996SOL     OW97925   8.522   5.008  10.183 -0.0041  0.9134  0.4357
30996SOL    HW197926   8.472   4.982  10.261 -1.8298 -1.9460 -1.4963
30996SOL    HW297927   8.508   5.102  10.176 -3.4633  0.6079  1.2030
30997SOL     OW97928   0.133   0.270  10.964  0.0638  0.2762 -0.2050
30997SOL    HW197929   0.065   0.292  10.901  0.0915  0.0452 -0.3134
30997SOL    HW297930   0.100   0.193  11.010  1.2803 -1.3003 -1.8676
30998SOL     OW97931  10.741   5.991   0.413 -0.1258 -0.0182 -0.5528
30998SOL    HW197932  10.828   5.950   0.415 -0.4563 -0.7996 -1.6914
30998SOL    HW297933  10.726   6.019   0.504  0.6288 -1.3045 -0.0080
30999SOL     OW97934  11.381   2.443   7.328  0.3384 -0.3719 -0.0364
30999SOL    HW197935  11.363   2.537   7.326  0.8247 -0.2893 -0.9299
30999SOL    HW297936  11.396   2.419   7.237 -0.6111 -1.4875  0.0828
31000SOL     OW97937   0.041   7.220   9.329 -0.2085  0.4072 -0.0282
31000SOL    HW197938  -0.006   7.158   9.385 -2.2125  0.2781 -1.7419
31000SOL    HW297939   0.028   7.305   9.372 -0.4220  0.1187  0.4904
31001SOL     OW97940   1.650   7.907   0.352 -0.4282  0.5222  0.0233
31001SOL    HW197941   1.643   7.974   0.420 -1.5806  1.5507 -1.0620
31001SOL    HW297942   1.683   7.954   0.275 -2.2350  0.1205 -1.0566
31002SOL     OW97943   4.125   5.115   0.988  0.1890 -0.1700 -0.1494
31002SOL    HW197944   4.185   5.041   0.993 -0.8182 -0.9572  1.1810
31002SOL    HW297945   4.038   5.074   0.982 -0.4705  0.8485  1.7487
31003SOL     OW97946   5.832   4.657   6.105  0.3392 -0.7518 -0.5185
31003SOL    HW197947   5.868   4.745   6.096  0.7154 -0.9076 -0.5532
31003SOL    HW297948   5.764   4.665   6.172  1.0435 -0.6329  0.1966
31004SOL     OW97949   6.975   1.632   4.698  0.4460  0.0515 -0.9028
31004SOL    HW197950   6.897   1.583   4.672  0.4731 -0.0624 -0.7708
31004SOL    HW297951   6.949   1.676   4.779  0.9635 -1.1018 -0.0978
31005SOL     OW97952   6.069   4.638   3.449 -0.2456  0.5298  0.3479
31005SOL    HW197953   6.047   4.619   3.541  0.2267  0.4760  0.4519
31005SOL    HW297954   6.094   4.554   3.412 -0.4308  0.5533  0.1686
31006SOL     OW97955  11.533   5.509   2.097  0.0957  0.6297  0.0235
31006SOL    HW197956  11.559   5.563   2.023 -0.6464  1.0737  0.0781
31006SOL    HW297957  11.461   5.557   2.138  0.5641  0.4400  1.0898
31007SOL     OW97958   7.395   8.263   5.116 -0.2199 -0.2295  0.8570
31007SOL    HW197959   7.339   8.322   5.166 -1.8986 -0.8267 -0.2134
31007SOL    HW297960   7.468   8.318   5.087 -0.5942  0.7508  1.7254
31008SOL     OW97961   6.297   2.909   5.273  0.0964  0.3719  0.0696
31008SOL    HW197962   6.206   2.935   5.265  0.3183  1.1214 -0.1294
31008SOL    HW297963   6.338   2.979   5.323  0.5979  0.1212  0.0227
31009SOL     OW97964   7.823   4.936   3.536  0.1088  0.1522  1.1271
31009SOL    HW197965   7.749   4.876   3.525 -1.4335  2.1565 -0.0615
31009SOL    HW297966   7.808   4.976   3.622 -0.2438  0.5889  0.8686
31010SOL     OW97967   1.281   3.188   9.677  0.2030 -0.2519  0.1829
31010SOL    HW197968   1.219   3.217   9.610 -1.7530  1.3691  2.4872
31010SOL    HW297969   1.360   3.240   9.662 -0.5861  0.8660 -0.2455
31011SOL     OW97970   4.705  11.207  10.428 -0.6009 -0.2713 -0.2479
31011SOL    HW197971   4.769  11.279  10.433 -1.1009  0.2285 -0.8274
31011SOL    HW297972   4.665  11.205  10.515 -0.7118  0.2842 -0.2792
31012SOL     OW97973   8.650   7.714   4.026 -0.3291  0.0490 -0.4194
31012SOL    HW197974   8.724   7.657   4.009  0.8424  0.7924  1.7710
31012SOL    HW297975   8.669   7.753   4.111 -1.7005  2.7069 -1.2098
31013SOL     OW97976   5.640   9.849   5.044  0.5860  0.2697  0.2554
31013SOL    HW197977   5.601   9.787   4.983  2.8514 -0.7481 -0.2587
31013SOL    HW297978   5.631   9.935   5.001 -2.3813  0.3932  0.8803
31014SOL     OW97979   7.430   6.972   4.016 -0.5161  0.5262 -0.0475
31014SOL    HW197980   7.498   6.909   3.991 -0.9482 -0.8480  1.9947
31014SOL    HW297981   7.369   6.921   4.069 -2.0093  2.2231 -0.0622
31015SOL     OW97982  10.362   9.809   8.565  0.2487  0.1191 -0.3670
31015SOL    HW197983  10.442   9.806   8.617 -0.2280  0.0536  0.3761
31015SOL    HW297984  10.341   9.717   8.548 -0.3802  0.0697  0.5758
31016SOL     OW97985   7.175   9.643   1.093  0.3344  0.2084 -0.1479
31016SOL    HW197986   7.155   9.553   1.121  1.2602 -0.3506 -1.2258
31016SOL    HW297987   7.095   9.673   1.050  0.0157 -0.0865  0.2237
31017SOL     OW97988   2.922   4.484  10.540 -0.0760 -0.2114 -0.2963
31017SOL    HW197989   2.828   4.475  10.552 -0.6638 -0.0981 -3.8877
31017SOL    HW297990   2.936   4.578  10.528 -0.0561 -0.4945 -2.9310
31018SOL     OW97991   2.410   1.292   8.339 -0.4627  0.2975  0.0687
31018SOL    HW197992   2.442   1.203   8.323 -1.1077 -0.1046  0.9606
31018SOL    HW297993   2.481   1.348   8.308  0.1071 -0.5279 -0.1740
31019SOL     OW97994   2.219   3.599   2.223 -0.1910  0.5114 -0.2833
31019SOL    HW197995   2.296   3.648   2.193  0.0940  1.3519  1.6431
31019SOL    HW297996   2.156   3.667   2.248 -0.5127 -0.1105  0.6529
31020SOL     OW97997   9.458   9.437   9.182  0.3131  0.2305 -0.5391
31020SOL    HW197998   9.418   9.352   9.164  1.2191 -0.3201 -0.0702
31020SOL    HW297999   9.550   9.416   9.199  0.4420  1.2508  0.0926
31021SOL     OW98000  11.308   6.308   1.489  0.7606 -0.2370 -0.2837
31021SOL    HW198001  11.263   6.232   1.525  1.1367  0.2866  1.3632
31021SOL    HW298002  11.257   6.332   1.411  0.8370 -2.3562 -1.0505
31022SOL     OW98003   7.444  10.158   7.604 -0.2424 -0.2029  0.0613
31022SOL    HW198004   7.528  10.113   7.615 -0.8338 -0.9060  2.0388
31022SOL    HW298005   7.381  10.088   7.589 -0.7014  0.2087  0.0339
31023SOL     OW98006   4.681   8.414  10.896 -0.2039 -0.2546 -0.3660
31023SOL    HW198007   4.590   8.385  10.886 -0.5870  1.1129 -1.2878
31023SOL    HW298008   4.720   8.398  10.810  0.4373 -0.8690  0.0389
31024SOL     OW98009   3.683   9.671   0.706 -0.2022 -0.2315 -1.2627
31024SOL    HW198010   3.677   9.667   0.802 -0.6234 -1.2241 -1.3209
31024SOL    HW298011   3.741   9.745   0.689 -1.5038  1.0791 -0.2824
31025SOL     OW98012   3.011   2.475   0.863  0.2817  0.1467 -0.3432
31025SOL    HW198013   3.101   2.480   0.894  0.1909  0.7817 -0.1751
31025SOL    HW298014   2.976   2.563   0.875 -0.9037 -0.4762  1.2451
31026SOL     OW98015   1.682   4.478   7.300  0.0099 -0.0343  0.3266
31026SOL    HW198016   1.590   4.489   7.322 -0.0281 -3.3315  2.5797
31026SOL    HW298017   1.684   4.471   7.205 -1.8791  0.9844  0.1596
31027SOL     OW98018   2.689   5.743   6.349  0.1995  0.4888 -0.4054
31027SOL    HW198019   2.633   5.677   6.308  0.5698  0.8704 -1.5576
31027SOL    HW298020   2.670   5.735   6.443 -0.6216 -0.4479 -0.6304
31028SOL     OW98021   4.978   7.298   9.240  0.7286 -0.0613  0.3009
31028SOL    HW198022   4.912   7.249   9.191  1.9431  0.0984 -1.6104
31028SOL    HW298023   5.062   7.266   9.207  1.6053  0.7017  1.6690
31029SOL     OW98024   8.102  10.428  10.182  0.0936  0.1124 -0.2485
31029SOL    HW198025   8.015  10.399  10.156  0.3181 -1.2856  0.4951
31029SOL    HW298026   8.160  10.357  10.156  0.9656  0.8267 -0.3024
31030SOL     OW98027  11.207   1.269  10.830  0.0110 -0.0710 -0.2700
31030SOL    HW198028  11.156   1.344  10.858 -0.1084  0.5389 -2.0177
31030SOL    HW298029  11.235   1.227  10.912 -0.1951  1.6604  0.7342
31031SOL     OW98030  10.128   7.820  11.632  0.3887  0.6406 -0.1765
31031SOL    HW198031  10.111   7.900  11.681  1.7744  0.6074  0.3758
31031SOL    HW298032  10.044   7.800  11.590  0.0949  2.5352 -0.5804
31032SOL     OW98033   4.195   0.613   4.210  0.1368 -0.8652 -0.0657
31032SOL    HW198034   4.232   0.653   4.131  1.5492 -1.1191  0.4254
31032SOL    HW298035   4.114   0.571   4.180 -0.5125  0.9004 -0.9140
31033SOL     OW98036   5.220  11.169   3.673 -0.6097  0.2915 -0.2373
31033SOL    HW198037   5.242  11.205   3.587  0.1744  0.4028  0.0023
31033SOL    HW298038   5.264  11.084   3.675  1.2905  1.2321  0.8972
31034SOL     OW98039   8.166   9.054  11.357  0.8082  0.7048  0.2485
31034SOL    HW198040   8.210   8.968  11.359 -0.2443  0.0876 -1.0439
31034SOL    HW298041   8.237   9.116  11.341  1.3887 -0.1418 -0.6470
31035SOL     OW98042   6.594  10.574   5.102 -0.2127 -0.5599 -0.3376
31035SOL    HW198043   6.597  10.552   5.009 -0.9359 -0.5475 -0.3713
31035SOL    HW298044   6.627  10.663   5.107  2.8167 -1.5804 -0.1947
31036SOL     OW98045   5.165   4.424   3.737  0.2091  0.2009 -0.4396
31036SOL    HW198046   5.072   4.444   3.745  0.4098  0.9040  0.3726
31036SOL    HW298047   5.209   4.505   3.765  1.0573 -0.4693  0.2364
31037SOL     OW98048   0.370   7.021  10.045  0.4920 -0.1209  0.2856
31037SOL    HW198049   0.413   6.946  10.004 -1.0968 -1.0342  0.2070
31037SOL    HW298050   0.276   7.006  10.030 -0.0059  0.7219  2.2201
31038SOL     OW98051   6.563   1.646  11.247  0.2494  0.6258 -0.2516
31038SOL    HW198052   6.484   1.607  11.285  0.1738  1.0989  0.0813
31038SOL    HW298053   6.632   1.582  11.266  0.2265  0.8814  0.7510
31039SOL     OW98054   5.891   6.112   2.937 -0.0109  0.1737 -0.0352
31039SOL    HW198055   5.852   6.103   3.024  0.7504  0.6652  0.3608
31039SOL    HW298056   5.831   6.063   2.880  0.8695 -2.4908  1.1295
31040SOL     OW98057   5.890   2.736   3.893  0.0138 -0.5153  0.3641
31040SOL    HW198058   5.805   2.772   3.868  0.7613  1.2952  0.2222
31040SOL    HW298059   5.926   2.700   3.812  0.3868  0.9591 -0.1668
31041SOL     OW98060   1.919   3.074   0.308  1.1273 -0.4145  0.1782
31041SOL    HW198061   1.831   3.084   0.344  0.8673 -1.4125 -0.1402
31041SOL    HW298062   1.905   3.036   0.221  1.9314 -1.9769  0.7006
31042SOL     OW98063   0.639   5.413   1.530  0.2637 -0.1972 -0.0665
31042SOL    HW198064   0.728   5.432   1.500  0.6246 -0.9499  0.4903
31042SOL    HW298065   0.650   5.345   1.597 -0.5285  1.3042  1.6548
31043SOL     OW98066  10.391   2.376   8.779 -0.8702  0.0377  0.0735
31043SOL    HW198067  10.311   2.378   8.831 -0.5173  0.9334  0.6014
31043SOL    HW298068  10.462   2.375   8.844 -0.4182 -2.2383 -0.3368
31044SOL     OW98069   3.547  11.292   9.471 -0.0931  0.1911  0.3300
31044SOL    HW198070   3.460  11.253   9.467 -0.2205  0.2496  2.0737
31044SOL    HW298071   3.601  11.227   9.515  0.5711  0.4906 -0.0176
31045SOL     OW98072   4.832   3.442   7.442  1.0454 -0.2872 -0.4310
31045SOL    HW198073   4.903   3.441   7.506  0.6700  0.1502 -0.0016
31045SOL    HW298074   4.786   3.359   7.456  0.4012  0.2122  0.5189
31046SOL     OW98075   3.732   7.851   1.304  0.0408  0.6998  0.2740
31046SOL    HW198076   3.643   7.879   1.329 -0.4742 -0.6816  0.0446
31046SOL    HW298077   3.723   7.822   1.214  1.0976  2.0537 -0.3098
31047SOL     OW98078   3.756   1.138   7.759 -0.1350  0.0907 -0.0719
31047SOL    HW198079   3.663   1.149   7.779 -0.1404  0.3225 -0.2246
31047SOL    HW298080   3.787   1.226   7.740  0.6483  0.3653  2.2004
31048SOL     OW98081   7.540   3.837   5.031  0.2125  0.0150  0.6077
31048SOL    HW198082   7.519   3.929   5.016  0.2948 -0.0544  0.0069
31048SOL    HW298083   7.468   3.789   4.989  1.1573 -0.2104 -0.8399
31049SOL     OW98084   8.922   6.149   4.460  0.0544  0.4230 -0.2245
31049SOL    HW198085   8.828   6.134   4.467  0.0991  0.2995  0.1075
31049SOL    HW298086   8.947   6.186   4.545  0.0997  1.5730 -0.7189
31050SOL     OW98087   1.123   8.196   2.611  0.4748  1.0496  0.3830
31050SOL    HW198088   1.145   8.103   2.619 -1.4340  0.6466  1.7330
31050SOL    HW298089   1.071   8.202   2.531 -0.4388  0.7077  0.9402
31051SOL     OW98090  10.690   6.090   8.554  0.0114  0.1559  0.3668
31051SOL    HW198091  10.670   6.076   8.647 -0.5512 -1.4909  0.0421
31051SOL    HW298092  10.622   6.149   8.523 -1.9155 -1.9691  0.2725
31052SOL     OW98093   7.141   3.266  11.673 -0.5023 -0.2891  0.5620
31052SOL    HW198094   7.065   3.295  11.622  1.5577  1.2801 -1.8704
31052SOL    HW298095   7.139   3.321  11.751 -1.2428  0.5298 -0.0090
31053SOL     OW98096   1.395   6.569  10.175 -0.4883  0.3423  0.2091
31053SOL    HW198097   1.393   6.474  10.174 -1.3280  0.3505 -0.0892
31053SOL    HW298098   1.485   6.592  10.152 -0.0359 -0.3797  1.1779
31054SOL     OW98099   7.274   2.429   8.764 -0.2739 -0.3750 -0.0289
31054SOL    HW198100   7.233   2.511   8.737  2.3308  0.7907 -0.6850
31054SOL    HW298101   7.347   2.455   8.820  0.1632 -2.3014  0.3833
31055SOL     OW98102  10.995   8.739   9.105 -0.0447 -0.1192 -0.4068
31055SOL    HW198103  10.901   8.722   9.096 -0.1022  0.4102 -0.8148
31055SOL    HW298104  11.014   8.808   9.041 -0.0300  2.1034  1.8359
31056SOL     OW98105   2.169   7.033   1.357  0.1910 -0.0441  0.6499
31056SOL    HW198106   2.199   7.115   1.395  0.7939 -0.2374  0.5934
31056SOL    HW298107   2.085   7.016   1.400 -0.5724  1.2471 -0.2561
31057SOL     OW98108   8.318   3.695   4.323 -0.3979 -0.7906  0.4816
31057SOL    HW198109   8.258   3.650   4.263  1.6091 -1.6666 -0.9924
31057SOL    HW298110   8.367   3.625   4.365 -0.4781 -0.0985  1.7669
31058SOL     OW98111   7.043  10.279   2.601  0.4162  0.2554  0.7648
31058SOL    HW198112   7.120  10.335   2.592  1.4392 -0.8983  1.8678
31058SOL    HW298113   7.052  10.239   2.688  0.2645 -2.3053 -0.2874
31059SOL     OW98114  10.937   3.755   8.467 -0.2217  0.7659  0.0163
31059SOL    HW198115  11.008   3.794   8.416 -0.2545  1.5890  0.5864
31059SOL    HW298116  10.981   3.690   8.522 -0.1263  0.1905 -0.7251
31060SOL     OW98117   8.345   4.073   5.361 -0.1769 -0.5160 -0.7279
31060SOL    HW198118   8.435   4.103   5.372 -0.5986 -0.0197  2.1894
31060SOL    HW298119   8.342   3.990   5.409 -1.7051  0.5029  1.0797
31061SOL     OW98120   4.016   8.379   2.016 -0.0805 -0.9739 -0.1566
31061SOL    HW198121   4.096   8.421   2.047  0.1884 -2.3863  1.1569
31061SOL    HW298122   3.945   8.432   2.053  0.1185  1.1664 -2.5035
31062SOL     OW98123   6.026   8.902   4.260  0.2378 -0.0229 -0.4397
31062SOL    HW198124   6.037   8.929   4.169  0.0899 -0.9217 -0.7406
31062SOL    HW298125   6.072   8.818   4.265  1.6701  0.7870  0.7473
31063SOL     OW98126   5.698   8.215   7.891  0.5735 -0.4615  0.1510
31063SOL    HW198127   5.663   8.187   7.975  1.4648  0.1986  0.7639
31063SOL    HW298128   5.770   8.274   7.914 -0.8720  1.9040 -1.0378
31064SOL     OW98129  11.354   7.428   6.106  0.1190  0.1474  0.1558
31064SOL    HW198130  11.363   7.496   6.039  0.7522  0.5001  0.5876
31064SOL    HW298131  11.329   7.349   6.058  0.1503  0.4992 -0.4418
31065SOL     OW98132   5.659   1.267   4.340 -0.2515 -0.0599 -0.3147
31065SOL    HW198133   5.708   1.207   4.397  0.4035 -0.1310 -0.9442
31065SOL    HW298134   5.722   1.295   4.274 -0.7197  0.8450 -0.3979
31066SOL     OW98135  10.674   7.716   8.903  0.1839  0.3761 -0.0270
31066SOL    HW198136  10.627   7.633   8.902  1.5405 -0.4540  1.4616
31066SOL    HW298137  10.765   7.692   8.921  1.4546  1.8448 -3.6708
31067SOL     OW98138   7.022   2.961   8.025  0.1653 -0.6543  0.4823
31067SOL    HW198139   7.056   2.879   8.058 -2.8040 -1.9549  0.6621
31067SOL    HW298140   7.023   2.951   7.929  1.4609 -0.1323  0.4300
31068SOL     OW98141   5.406   5.328  10.951  0.0746  0.5107  0.3821
31068SOL    HW198142   5.453   5.326  11.034  0.3802  0.3688  0.2066
31068SOL    HW298143   5.313   5.330  10.975  0.1790  1.7662  0.7528
31069SOL     OW98144  11.282   5.498   6.658 -0.0323  0.0753  0.0293
31069SOL    HW198145  11.338   5.555   6.605  1.0167 -1.2005 -0.3077
31069SOL    HW298146  11.227   5.453   6.594 -1.1277  0.9639  0.3225
31070SOL     OW98147   9.426   1.749   2.934 -0.0296 -0.5818 -0.2776
31070SOL    HW198148   9.450   1.661   2.904 -1.3933 -1.0439 -0.1225
31070SOL    HW298149   9.482   1.764   3.010  1.8194 -0.3485 -1.6213
31071SOL     OW98150  10.205   3.742   7.637 -0.1822 -0.0055  0.4853
31071SOL    HW198151  10.250   3.713   7.717  2.0631 -0.1761 -0.7677
31071SOL    HW298152  10.186   3.660   7.590 -1.2028  0.1190  0.6488
31072SOL     OW98153  10.810   7.210   1.498  0.0591  0.3018 -0.6779
31072SOL    HW198154  10.887   7.158   1.475  0.2576 -0.5186  1.5009
31072SOL    HW298155  10.736   7.154   1.474  0.2019  0.2410 -0.9778
31073SOL     OW98156  10.784   4.920   3.240 -0.1985 -0.0093  0.5643
31073SOL    HW198157  10.734   4.859   3.184 -1.9665  1.9261 -0.0890
31073SOL    HW298158  10.856   4.948   3.185 -0.0105 -0.6452  0.4723
31074SOL     OW98159   7.889  11.123   3.108  0.4806  0.4907  0.0685
31074SOL    HW198160   7.954  11.110   3.039 -1.2377 -2.2578 -1.2043
31074SOL    HW298161   7.929  11.087   3.186  1.8469  2.2314  0.2514
31075SOL     OW98162   3.459   7.149   0.329  0.1343  0.3279 -0.4394
31075SOL    HW198163   3.459   7.134   0.423 -1.8838  1.2091 -0.2451
31075SOL    HW298164   3.549   7.171   0.308  0.4439  1.0382  1.4506
31076SOL     OW98165   6.629  10.491   2.939  0.0294  0.1547  0.1784
31076SOL    HW198166   6.607  10.487   2.846 -1.7649  1.0730  0.5232
31076SOL    HW298167   6.714  10.536   2.942 -1.3814  3.2249 -0.9182
31077SOL     OW98168   4.027  10.597   6.039 -0.1147 -0.4238 -0.3247
31077SOL    HW198169   3.981  10.679   6.050  2.0730  0.9363 -0.6397
31077SOL    HW298170   3.976  10.549   5.974 -1.7249  0.4196  0.2810
31078SOL     OW98171   8.762   5.506   7.376  0.1926  0.4707  0.3294
31078SOL    HW198172   8.802   5.512   7.463  0.0541 -2.4972  0.6969
31078SOL    HW298173   8.776   5.415   7.349 -2.0132  0.6186 -1.6475
31079SOL     OW98174   6.532   6.006   6.920  0.1088  0.5689  0.2804
31079SOL    HW198175   6.533   6.084   6.863  0.1296 -0.6169 -1.4213
31079SOL    HW298176   6.557   5.934   6.862 -0.4228 -0.8064  1.6941
31080SOL     OW98177  11.575   0.342  10.822  0.0663 -0.4518  0.3309
31080SOL    HW198178  11.483   0.318  10.828 -0.3324  0.7985 -0.4534
31080SOL    HW298179  11.598   0.327  10.730 -0.0514  1.5533 -0.0640
31081SOL     OW98180   1.595   3.268  10.134  0.3818 -0.1727 -0.2051
31081SOL    HW198181   1.666   3.326  10.160 -0.3755  0.0425  1.4973
31081SOL    HW298182   1.585   3.207  10.207 -1.3422 -0.0288 -0.2859
31082SOL     OW98183   5.149   3.816   0.346 -0.6816 -0.0837 -0.2345
31082SOL    HW198184   5.163   3.819   0.441 -0.2070  0.9430 -0.3209
31082SOL    HW298185   5.180   3.730   0.320 -0.0169 -0.0592  0.4295
31083SOL     OW98186   3.324   1.106   3.823 -0.8656 -0.3361 -0.2838
31083SOL    HW198187   3.398   1.097   3.883  0.1493  1.9173 -1.0816
31083SOL    HW298188   3.330   1.030   3.765  1.4076  0.2123 -0.8772
31084SOL     OW98189   5.404  11.544   6.706 -0.2846 -0.0817  0.0580
31084SOL    HW198190   5.396  11.544   6.801  1.0876 -0.5489  0.2008
31084SOL    HW298191   5.317  11.567   6.674 -0.2984  2.0186  1.4554
31085SOL     OW98192   4.428   1.266  10.017  0.3692  0.1086  0.4633
31085SOL    HW198193   4.444   1.321  10.094  2.2912  3.0824 -1.8429
31085SOL    HW298194   4.337   1.237  10.026  0.3328  0.8769  3.4806
31086SOL     OW98195   3.986   7.914   4.916 -0.1143 -0.3571  0.1753
31086SOL    HW198196   4.060   7.950   4.867 -0.7421 -0.0389 -0.5508
31086SOL    HW298197   3.936   7.865   4.851 -2.0698  1.7366 -0.0121
31087SOL     OW98198   7.341   9.712   1.889 -0.3755 -0.1872  0.5302
31087SOL    HW198199   7.373   9.745   1.805 -0.8181 -2.2306 -0.5156
31087SOL    HW298200   7.371   9.776   1.954  0.6994  1.0062 -1.0804
31088SOL     OW98201   2.207   2.756   4.474  0.6122  0.4248  0.9032
31088SOL    HW198202   2.149   2.793   4.540 -1.4851 -2.0368  0.5916
31088SOL    HW298203   2.248   2.681   4.517 -1.4266 -1.7445 -0.6670
31089SOL     OW98204   9.276   5.682   2.484  0.0892 -0.5242 -0.7739
31089SOL    HW198205   9.291   5.679   2.390 -1.5450  0.7881 -1.1176
31089SOL    HW298206   9.188   5.718   2.494  0.5390  0.1636  1.2673
31090SOL     OW98207   7.120   3.355   8.191 -0.3567  0.0467 -0.1852
31090SOL    HW198208   7.049   3.417   8.172  0.9258  1.9538  0.8313
31090SOL    HW298209   7.175   3.402   8.254  0.8225 -2.0891  0.4557
31091SOL     OW98210   8.071  10.215   2.114 -0.0662 -0.2212  0.3895
31091SOL    HW198211   8.090  10.122   2.117  2.3786  0.0581 -2.1911
31091SOL    HW298212   8.148  10.257   2.152 -0.0039  0.7795 -0.7851
31092SOL     OW98213   3.826   8.524   5.269 -0.0048 -0.2148 -0.0697
31092SOL    HW198214   3.913   8.491   5.290 -0.9763 -2.5966  0.5658
31092SOL    HW298215   3.839   8.580   5.192  2.1421 -0.0287  0.3811
31093SOL     OW98216   2.747   0.006   0.682  0.6350 -0.2555  0.2947
31093SOL    HW198217   2.750   0.022   0.587 -0.7069  0.7716  0.3844
31093SOL    HW298218   2.813  -0.061   0.698  0.7674 -0.5642 -1.3970
31094SOL     OW98219   8.523   0.392   2.190  0.1634 -0.6241 -0.2984
31094SOL    HW198220   8.607   0.380   2.144  0.0679 -0.5040 -0.5046
31094SOL    HW298221   8.472   0.450   2.133  0.9304  1.5307  1.0713
31095SOL     OW98222   9.758  10.286   1.919  0.4970  0.5315 -0.6263
31095SOL    HW198223   9.848  10.271   1.947  0.1551 -0.3917  0.0483
31095SOL    HW298224   9.719  10.339   1.988  0.1533 -0.2270 -0.2261
31096SOL     OW98225   1.321   7.426   0.241 -0.3687 -0.4504  0.6418
31096SOL    HW198226   1.348   7.450   0.329  0.1011 -0.2525  0.4467
31096SOL    HW298227   1.226   7.428   0.243 -0.3614 -0.7057  1.2159
31097SOL     OW98228  11.011   3.535  11.296 -0.1497  0.6386 -0.2213
31097SOL    HW198229  10.947   3.556  11.227 -0.8296 -0.9045 -0.1171
31097SOL    HW298230  10.963   3.478  11.356  1.6924 -1.8827 -0.9507
31098SOL     OW98231   6.030   2.362  10.942 -0.3335  0.1312 -0.0161
31098SOL    HW198232   6.050   2.388  10.852 -1.7020 -0.1117 -0.4228
31098SOL    HW298233   6.073   2.427  10.997  2.2538 -0.8651 -0.7306
31099SOL     OW98234   1.511   8.027   8.149  0.0015  0.4448  0.3371
31099SOL    HW198235   1.566   8.102   8.128  1.4593 -0.6575  0.1194
31099SOL    HW298236   1.566   7.951   8.134 -1.6031 -0.7143  0.0652
31100SOL     OW98237   0.564   2.707   4.589 -0.1609  0.3804  0.0836
31100SOL    HW198238   0.496   2.650   4.554  1.3828 -1.1923 -0.5212
31100SOL    HW298239   0.543   2.715   4.682  0.1910 -2.1999  0.4528
31101SOL     OW98240   1.587   8.572   2.376  0.1260 -0.5239  0.7091
31101SOL    HW198241   1.557   8.563   2.286 -1.7147  0.9365  1.1202
31101SOL    HW298242   1.593   8.482   2.409 -0.3298 -1.0135 -0.5051
31102SOL     OW98243   3.343   9.803  11.027 -0.0681  0.2472 -0.2388
31102SOL    HW198244   3.273   9.769  11.084  0.6443 -0.7793  0.0570
31102SOL    HW298245   3.314   9.891  11.003 -1.0733  0.1459  0.5387
31103SOL     OW98246  11.241  11.617   7.986 -0.1124  0.1404 -0.0167
31103SOL    HW198247  11.330  11.613   7.949  0.2505  0.3619  0.8111
31103SOL    HW298248  11.234  11.705   8.022 -0.5671  0.0231  0.1782
31104SOL     OW98249  10.639   5.984  11.268  0.3722 -0.9350  0.2052
31104SOL    HW198250  10.680   5.949  11.346 -0.0763 -0.1049  0.8240
31104SOL    HW298251  10.590   6.061  11.298  1.0039 -0.0017 -1.0501
31105SOL     OW98252   3.634   7.577   3.112  0.2976 -0.0171 -0.0924
31105SOL    HW198253   3.694   7.649   3.092 -0.7987  0.7497 -0.7706
31105SOL    HW298254   3.599   7.551   3.026  0.0241 -0.7593  0.2377
31106SOL     OW98255  10.219   5.297   7.289  0.5770  0.3439 -0.2578
31106SOL    HW198256  10.224   5.360   7.217  1.9108 -1.1295 -1.5485
31106SOL    HW298257  10.206   5.351   7.368 -0.1567  2.0577 -1.4884
31107SOL     OW98258   8.978   7.091   6.546  0.1839  0.1482 -0.0871
31107SOL    HW198259   8.981   7.014   6.603  1.9154 -0.0690 -0.4123
31107SOL    HW298260   9.059   7.138   6.565 -0.0607  1.0231 -1.0982
31108SOL     OW98261  10.553   8.426   1.671 -0.0606  0.1673  0.4695
31108SOL    HW198262  10.575   8.350   1.727  1.7661  0.6799  0.5263
31108SOL    HW298263  10.633   8.441   1.620 -1.0520  0.9028 -0.9078
31109SOL     OW98264   1.693   9.095   5.294  0.3508  0.0799  0.4173
31109SOL    HW198265   1.781   9.059   5.306  0.4011  0.2188  0.4698
31109SOL    HW298266   1.707   9.179   5.250  0.2315  0.0189  0.2635
31110SOL     OW98267   6.473  10.206   5.079  0.2703  0.1111  0.1214
31110SOL    HW198268   6.537  10.242   5.019 -0.6346  1.2353 -0.1954
31110SOL    HW298269   6.439  10.129   5.034  0.5525  0.1782 -0.2146
31111SOL     OW98270   8.533   5.836  10.913  0.4991  0.1544 -0.6877
31111SOL    HW198271   8.619   5.878  10.919 -0.2337  1.8479 -1.3229
31111SOL    HW298272   8.489   5.859  10.995  0.3040  0.1025 -0.7762
31112SOL     OW98273   0.416   7.709   6.271 -0.2746  0.1638  0.3206
31112SOL    HW198274   0.465   7.783   6.236 -0.2276  0.4246  0.9247
31112SOL    HW298275   0.478   7.636   6.273 -0.1529  0.2676  0.2757
31113SOL     OW98276   6.529   2.517   7.731 -0.1554  0.2780  0.5229
31113SOL    HW198277   6.523   2.574   7.808 -2.2899  2.6324 -1.1877
31113SOL    HW298278   6.553   2.576   7.659  1.1446 -1.7114 -0.7740
31114SOL     OW98279   7.562   5.453   5.963  0.3018  0.3100  0.4389
31114SOL    HW198280   7.617   5.376   5.945 -0.3144 -0.1418  0.4343
31114SOL    HW298281   7.517   5.469   5.880 -3.0248 -2.1649  1.5438
31115SOL     OW98282   9.897   2.541  11.277  0.0688 -0.3412  0.2790
31115SOL    HW198283   9.959   2.468  11.285 -0.4480 -0.8424 -0.1670
31115SOL    HW298284   9.939   2.602  11.217 -0.2425 -1.1020 -0.7488
31116SOL     OW98285   3.477   9.969   5.631 -0.3326  0.3800 -0.7239
31116SOL    HW198286   3.488   9.875   5.641 -0.9804  0.2082 -1.5340
31116SOL    HW298287   3.422   9.995   5.705 -1.7989 -0.2231 -1.5598
31117SOL     OW98288   2.051   0.409   3.074 -0.0342 -0.1445 -0.4211
31117SOL    HW198289   2.106   0.488   3.077 -0.3837  0.0640  0.5434
31117SOL    HW298290   2.103   0.346   3.023  1.1028  0.0501  0.4685
31118SOL     OW98291  10.696   9.542   0.101 -0.2005 -0.4932 -0.2177
31118SOL    HW198292  10.742   9.459   0.114  0.7992  0.3270  1.9361
31118SOL    HW298293  10.608   9.527   0.135 -0.2819 -0.8912 -0.5938
31119SOL     OW98294   8.911   2.603   3.922 -0.0412 -0.4540  0.5052
31119SOL    HW198295   8.833   2.649   3.952 -0.3452 -0.4513 -0.2452
31119SOL    HW298296   8.981   2.667   3.929 -0.2060 -0.2988  0.7314
31120SOL     OW98297   7.132   3.286   9.345 -0.2304 -0.6795  0.5871
31120SOL    HW198298   7.174   3.364   9.308 -0.0368 -0.7850  0.5854
31120SOL    HW298299   7.152   3.291   9.439 -0.1747 -0.7531  0.5796
31121SOL     OW98300   5.027   3.886   4.658  0.2487  0.1498  0.0348
31121SOL    HW198301   5.046   3.849   4.744 -0.2746 -0.7746 -0.2355
31121SOL    HW298302   5.083   3.836   4.598 -1.7664 -1.5118 -0.5660
31122SOL     OW98303   0.664   4.435   5.553  0.1750 -0.4349 -0.6033
31122SOL    HW198304   0.648   4.519   5.510  1.3554 -0.2097 -0.6378
31122SOL    HW298305   0.756   4.415   5.533 -0.0436 -1.6642 -0.4738
31123SOL     OW98306  10.714   8.726   3.945  0.4127 -0.5494  0.4069
31123SOL    HW198307  10.714   8.801   4.005 -0.3263  0.2566 -0.5669
31123SOL    HW298308  10.687   8.652   3.999 -0.1084  0.1360  1.1108
31124SOL     OW98309   3.164   5.909   6.798  0.1448  0.0008  0.4165
31124SOL    HW198310   3.246   5.868   6.825 -0.0251  0.1818  1.2203
31124SOL    HW298311   3.186   6.002   6.786 -0.2062  0.3087  1.9065
31125SOL     OW98312   6.806   4.637  11.289  0.4476 -0.3135 -0.4405
31125SOL    HW198313   6.768   4.702  11.348 -1.4641 -1.7357 -0.0267
31125SOL    HW298314   6.762   4.652  11.206 -0.1093 -1.1548 -0.3025
31126SOL     OW98315   5.676   0.532  11.057 -0.0627 -0.0285  0.2311
31126SOL    HW198316   5.625   0.451  11.058 -2.2516  1.2917  1.4154
31126SOL    HW298317   5.737   0.523  11.130 -1.6666  0.1789  1.6340
31127SOL     OW98318   5.661   6.294  10.350  0.0108 -0.2196 -0.1416
31127SOL    HW198319   5.701   6.380  10.356  0.1249 -0.3398  0.9884
31127SOL    HW298320   5.589   6.296  10.414  0.2068 -1.0588  0.1200
31128SOL     OW98321   2.028  11.395   5.503  0.1237  0.6856 -0.6533
31128SOL    HW198322   2.072  11.426   5.582 -0.4892  1.1074 -0.4710
31128SOL    HW298323   1.979  11.471   5.472 -1.0977  0.0144 -0.4116
31129SOL     OW98324   0.088   4.296   3.210  0.3461  0.1837  0.1144
31129SOL    HW198325   0.163   4.306   3.151  0.6406 -0.4214  0.3721
31129SOL    HW298326   0.119   4.329   3.295 -0.4646  2.1959 -0.3232
31130SOL     OW98327   0.493   0.539   9.219  0.2253 -0.6980 -0.1963
31130SOL    HW198328   0.448   0.591   9.152  0.7517  0.8638  0.6054
31130SOL    HW298329   0.432   0.468   9.239 -0.3434 -0.6539 -1.6308
31131SOL     OW98330   4.689   3.178   7.469 -0.0960  0.2661 -0.3433
31131SOL    HW198331   4.688   3.154   7.376 -1.1037 -1.1680  0.0125
31131SOL    HW298332   4.708   3.097   7.515  0.4177  0.9715  0.7239
31132SOL     OW98333  10.491   7.517  10.635 -0.0860 -0.8784  0.7822
31132SOL    HW198334  10.478   7.477  10.549 -1.7767 -0.0643  0.6109
31132SOL    HW298335  10.544   7.453  10.683  1.1162 -1.2384 -0.9168
31133SOL     OW98336   3.847   7.227   2.434  0.1490  0.0241 -0.3508
31133SOL    HW198337   3.855   7.133   2.448  1.7768  0.0046 -1.2138
31133SOL    HW298338   3.937   7.260   2.441  0.1471  1.0052 -3.4322
31134SOL     OW98339  10.626   9.118   4.380 -0.5998  0.2303 -0.7318
31134SOL    HW198340  10.576   9.174   4.439  1.0707  0.7048  0.3163
31134SOL    HW298341  10.686   9.071   4.437 -0.2657 -0.7797 -1.8720
31135SOL     OW98342   2.831   9.137   4.355 -0.3560  0.6328 -0.5445
31135SOL    HW198343   2.767   9.083   4.400  0.1892 -0.2472 -0.8073
31135SOL    HW298344   2.915   9.115   4.395 -0.0100  0.6084 -1.2556
31136SOL     OW98345   4.009   6.563   7.297  0.5331 -0.0430  0.0352
31136SOL    HW198346   4.042   6.635   7.351  0.4049  0.4782 -0.5725
31136SOL    HW298347   3.966   6.505   7.359 -0.8599  1.2495  0.3614
31137SOL     OW98348   9.267   8.500   4.824  0.2082 -0.4067 -0.9694
31137SOL    HW198349   9.307   8.430   4.774 -0.8648 -0.4473 -1.8211
31137SOL    HW298350   9.178   8.505   4.790 -1.4745 -2.1228  2.6173
31138SOL     OW98351   7.239  10.720  10.845 -0.4582 -0.0169  0.4739
31138SOL    HW198352   7.222  10.705  10.938  2.3630 -0.7479  0.9387
31138SOL    HW298353   7.188  10.799  10.825 -1.0195  0.2593  2.6522
31139SOL     OW98354   5.686   3.666   6.336 -0.3795 -0.1944 -0.7395
31139SOL    HW198355   5.614   3.722   6.364  0.8491  1.5573 -0.8952
31139SOL    HW298356   5.650   3.577   6.339 -1.8709  0.3906  1.2727
31140SOL     OW98357   0.316   9.930   2.332  0.2320 -0.0928  0.4080
31140SOL    HW198358   0.332   9.857   2.272  1.1872  1.2784 -1.0974
31140SOL    HW298359   0.400   9.976   2.336 -0.7087  1.7328  0.1581
31141SOL     OW98360   1.072   5.484   0.502 -0.1052 -0.1385  0.0998
31141SOL    HW198361   0.980   5.492   0.477  0.0878  1.6687 -0.1356
31141SOL    HW298362   1.084   5.550   0.570  0.8194 -0.9722  0.7774
31142SOL     OW98363   8.228   5.082   0.164 -0.2564  0.1979  0.0186
31142SOL    HW198364   8.239   4.987   0.157 -0.0182  0.2852 -0.8047
31142SOL    HW298365   8.315   5.118   0.146 -0.2647  0.5644  0.6662
31143SOL     OW98366  11.039   3.918   8.876  0.0775  0.0279 -0.1500
31143SOL    HW198367  11.007   3.831   8.900 -1.1571  0.5799  0.2828
31143SOL    HW298368  11.092   3.904   8.799 -1.9144 -0.8605 -1.4312
31144SOL     OW98369   5.042   0.625   8.756 -0.2137  0.4493 -0.1179
31144SOL    HW198370   4.978   0.581   8.811  1.2276  1.1915  2.3248
31144SOL    HW298371   5.033   0.718   8.777  3.1845  0.4313  2.3323
31145SOL     OW98372   7.145   3.055   8.846  0.1765 -0.2927 -0.2777
31145SOL    HW198373   7.168   3.139   8.886  1.7157  0.9975 -3.5283
31145SOL    HW298374   7.055   3.068   8.814 -0.1412 -0.4608  0.5168
31146SOL     OW98375   0.702   0.771   3.132 -0.1413  0.1032 -0.1356
31146SOL    HW198376   0.786   0.751   3.172 -0.0308  1.4152  0.3187
31146SOL    HW298377   0.638   0.756   3.202 -0.1865  0.1119 -0.1753
31147SOL     OW98378   7.570   9.598  10.009  0.1788 -0.1537  0.2310
31147SOL    HW198379   7.658   9.577   9.976  0.2161 -0.2472  0.3906
31147SOL    HW298380   7.573   9.692  10.028  0.1181 -0.0720 -0.1542
31148SOL     OW98381   9.836   6.754   5.930 -0.0796  0.1277  0.4557
31148SOL    HW198382   9.789   6.837   5.936  0.6835  0.4931  2.0562
31148SOL    HW298383   9.889   6.751   6.010  2.4210 -0.4000 -1.1216
31149SOL     OW98384   1.562  11.498   3.333  0.1521 -0.6064 -0.3399
31149SOL    HW198385   1.610  11.443   3.395  0.7562 -1.0241 -1.1385
31149SOL    HW298386   1.615  11.577   3.326  0.7349 -1.0475 -1.1849
31150SOL     OW98387  10.077   0.345   3.049 -0.5374  0.1462  0.0453
31150SOL    HW198388  10.157   0.301   3.022 -0.6452 -0.0377  0.0211
31150SOL    HW298389  10.102   0.396   3.126  0.1019  1.7849 -1.1888
31151SOL     OW98390   0.082   4.488   7.132  0.1212 -0.1825 -0.2125
31151SOL    HW198391   0.163   4.536   7.148 -0.2703  0.7879 -0.9942
31151SOL    HW298392   0.013   4.547   7.160 -0.3365 -0.8048 -0.0092
31152SOL     OW98393   8.872   7.709  11.187  1.0550 -0.0737  0.4951
31152SOL    HW198394   8.800   7.690  11.128  1.0069 -1.1431  0.8811
31152SOL    HW298395   8.848   7.666  11.269  2.4827 -1.1226  0.4026
31153SOL     OW98396   5.678   4.861  10.795 -0.3457 -0.1679  0.5636
31153SOL    HW198397   5.670   4.956  10.783 -0.5794 -0.0955  1.2695
31153SOL    HW298398   5.653   4.824  10.710 -1.6078  0.3474  0.6936
31154SOL     OW98399   2.186   2.096   2.442 -0.1687  0.0216  0.2001
31154SOL    HW198400   2.206   2.017   2.493 -1.1759 -0.3443  0.0495
31154SOL    HW298401   2.231   2.167   2.489  0.9426 -0.6638  0.2097
31155SOL     OW98402   6.645   7.156   0.147  0.2423  0.3868  0.2292
31155SOL    HW198403   6.685   7.072   0.170 -1.7184 -0.8833 -0.6728
31155SOL    HW298404   6.710   7.200   0.092  0.7356 -1.2555 -0.5832
31156SOL     OW98405  10.205   3.430   2.489 -0.2507 -0.7539  0.6875
31156SOL    HW198406  10.211   3.438   2.584 -1.3949  0.5566  0.6863
31156SOL    HW298407  10.130   3.484   2.465  0.6884 -0.1343 -1.0797
31157SOL     OW98408   9.098  10.566   6.534 -0.4309  0.6803  0.1678
31157SOL    HW198409   9.163  10.496   6.539  0.5752  1.5606 -0.0744
31157SOL    HW298410   9.014  10.521   6.524  0.1338 -0.4873  0.4827
31158SOL     OW98411   2.409   3.058  10.960  0.6794 -0.5432  0.0559
31158SOL    HW198412   2.422   3.112  10.882 -3.2420 -0.8992 -1.0644
31158SOL    HW298413   2.341   3.103  11.010  2.0150 -1.1393  2.5559
31159SOL     OW98414   9.154   3.845   0.851 -0.5201 -0.1439 -0.3396
31159SOL    HW198415   9.144   3.914   0.917  1.9907 -1.6649  1.8763
31159SOL    HW298416   9.156   3.764   0.902  0.7498 -1.4756 -2.3549
31160SOL     OW98417  10.294   8.593   1.022 -0.3469 -0.1598  0.0958
31160SOL    HW198418  10.253   8.508   1.041 -1.6723  0.6526  1.0786
31160SOL    HW298419  10.311   8.631   1.108 -0.0507  0.6932 -0.3316
31161SOL     OW98420   3.207   1.016   6.039  0.0147 -0.3585  0.2405
31161SOL    HW198421   3.124   1.060   6.054 -0.5577 -0.5498 -2.0252
31161SOL    HW298422   3.268   1.058   6.099 -1.6236  0.0006  1.7137
31162SOL     OW98423   7.442   5.253   6.631  0.2768 -0.3816  0.1033
31162SOL    HW198424   7.351   5.265   6.659  0.2646 -0.0845 -0.0551
31162SOL    HW298425   7.458   5.160   6.640 -0.2494 -0.5350 -0.4981
31163SOL     OW98426   2.055   2.510  11.341  0.1060  0.1943  0.1143
31163SOL    HW198427   2.128   2.517  11.402 -0.8573  1.1520  1.2088
31163SOL    HW298428   2.053   2.594  11.294 -0.6333  0.4141  0.5184
31164SOL     OW98429   1.304   1.100   4.288 -0.1714  0.5561 -0.9734
31164SOL    HW198430   1.356   1.180   4.299 -1.1429  1.2678 -1.3306
31164SOL    HW298431   1.328   1.045   4.362 -0.7169  1.9059  0.2773
31165SOL     OW98432   5.696   7.267  10.361  0.0946  0.2784 -0.1878
31165SOL    HW198433   5.645   7.288  10.439  1.0953  0.2214  0.4953
31165SOL    HW298434   5.759   7.339  10.353  1.1461 -0.5829  0.0775
31166SOL     OW98435   4.282   3.813   2.379 -0.2591 -0.4319 -0.6069
31166SOL    HW198436   4.352   3.821   2.315  0.9048  0.9360  0.7543
31166SOL    HW298437   4.228   3.891   2.366  0.2158  0.0726  0.2741
31167SOL     OW98438   5.268   4.142   5.288 -0.6198 -0.4578  0.4503
31167SOL    HW198439   5.207   4.201   5.332  1.5797  1.8280  0.6420
31167SOL    HW298440   5.320   4.104   5.358  0.0707 -0.1044  0.1477
31168SOL     OW98441   3.283   1.110   1.311 -0.2726 -0.0169 -0.2107
31168SOL    HW198442   3.268   1.120   1.404  2.6750 -1.5337  0.5683
31168SOL    HW298443   3.297   1.199   1.278  2.3398  0.3613  1.6223
31169SOL     OW98444   5.414   0.678   8.122 -0.0255 -0.8161  0.2360
31169SOL    HW198445   5.328   0.684   8.079  0.8409  0.2254 -1.4474
31169SOL    HW298446   5.459   0.607   8.075  1.3355  1.0522 -1.4248
31170SOL     OW98447   6.340   4.842   9.925  0.0605  0.4121 -0.2704
31170SOL    HW198448   6.372   4.884  10.005 -1.3595  1.0548 -0.0002
31170SOL    HW298449   6.385   4.888   9.854  0.2426  0.8360  0.1174
31171SOL     OW98450   1.575   2.400   4.506 -0.2727  0.5556  0.3288
31171SOL    HW198451   1.528   2.466   4.455  0.1438  0.4060 -0.2653
31171SOL    HW298452   1.588   2.328   4.445  1.4249  0.9180  0.2240
31172SOL     OW98453   7.957   3.547   1.704  0.8380 -0.5419  0.2724
31172SOL    HW198454   7.867   3.577   1.692  0.8810  0.0398  1.3050
31172SOL    HW298455   7.957   3.504   1.789  1.4706 -0.8163  0.1390
31173SOL     OW98456   3.468   1.658   7.877  0.0670  0.8578  0.3228
31173SOL    HW198457   3.408   1.678   7.805  0.6595  1.5034 -0.0069
31173SOL    HW298458   3.411   1.647   7.953 -0.4585  1.6662  0.0572
31174SOL     OW98459   9.120  11.159   3.258  0.2678  0.6345 -0.8297
31174SOL    HW198460   9.058  11.122   3.321  0.6969  0.4728 -0.4966
31174SOL    HW298461   9.066  11.185   3.183 -0.3096  1.2899 -0.1929
31175SOL     OW98462   4.571   0.763  11.603  0.1671  0.1994 -0.5960
31175SOL    HW198463   4.652   0.764  11.654 -0.1793 -0.2839 -0.0153
31175SOL    HW298464   4.503   0.792  11.665 -0.2782 -0.5011 -0.7435
31176SOL     OW98465   5.509   8.093   4.830  0.5453  0.0944 -0.2330
31176SOL    HW198466   5.529   8.006   4.796 -0.2475 -0.6679  1.1474
31176SOL    HW298467   5.413   8.097   4.832  0.5722  0.8720  0.0260
31177SOL     OW98468   2.134   1.467   5.044 -0.4242  0.4426  0.2081
31177SOL    HW198469   2.187   1.432   5.115  0.7947 -0.5242 -1.1283
31177SOL    HW298470   2.095   1.547   5.080  0.5013  0.2023  1.8136
31178SOL     OW98471   9.289   6.594   3.437 -0.2800 -0.1779  0.7274
31178SOL    HW198472   9.280   6.597   3.342 -2.9280 -0.4263  0.8797
31178SOL    HW298473   9.375   6.631   3.455  0.6870 -1.0370 -1.7999
31179SOL     OW98474   1.708   6.933   4.794 -0.2846 -0.7837 -0.0261
31179SOL    HW198475   1.630   6.968   4.839  0.4271  1.1102 -0.1655
31179SOL    HW298476   1.757   6.888   4.863 -0.5716 -0.3244  0.4909
31180SOL     OW98477   6.563   3.364  10.041  0.6048  0.3242 -1.3118
31180SOL    HW198478   6.522   3.286  10.003  0.9155 -0.7557  0.4146
31180SOL    HW298479   6.524   3.371  10.128  0.2396  2.4236 -1.5853
31181SOL     OW98480   8.470   0.927   4.150  0.5037 -0.1280  0.5235
31181SOL    HW198481   8.524   0.868   4.097 -0.5527 -2.2969  1.7578
31181SOL    HW298482   8.388   0.934   4.103  0.0448 -0.9863  1.1687
31182SOL     OW98483   3.705   0.678   8.375  0.3456 -0.2456 -0.1738
31182SOL    HW198484   3.634   0.621   8.405 -0.5101  0.3974 -0.9128
31182SOL    HW298485   3.668   0.723   8.299  0.9746  1.3225  0.4050
31183SOL     OW98486   8.530   7.173   7.304 -0.3455 -0.4726  0.8030
31183SOL    HW198487   8.527   7.199   7.396 -1.5211 -1.2835  1.0191
31183SOL    HW298488   8.573   7.087   7.304  0.2438 -0.1886  0.5060
31184SOL     OW98489   2.437   1.348   0.168 -0.0513  0.0616 -0.6256
31184SOL    HW198490   2.417   1.270   0.219  0.0473  0.1554 -0.4411
31184SOL    HW298491   2.411   1.421   0.224  4.4721  0.4132  1.5029
31185SOL     OW98492   2.045   2.869   4.667 -0.1859  1.1399  0.2436
31185SOL    HW198493   1.988   2.837   4.736 -2.8047 -0.2908 -2.3855
31185SOL    HW298494   2.001   2.947   4.634 -1.3184 -0.4840 -2.4160
31186SOL     OW98495   0.288   3.523   2.666  0.3483  0.0139 -0.4416
31186SOL    HW198496   0.322   3.590   2.607  1.1313 -2.4079 -2.9900
31186SOL    HW298497   0.361   3.462   2.677 -0.0413 -0.0567  2.5225
31187SOL     OW98498   5.294   0.276   9.983  0.3736  0.9929 -0.1663
31187SOL    HW198499   5.199   0.275   9.999  0.5535 -0.7298  1.0698
31187SOL    HW298500   5.332   0.273  10.071  1.5134 -1.3213 -0.6636
31188SOL     OW98501   6.843   4.463   1.213 -0.1421 -0.1765 -0.0625
31188SOL    HW198502   6.891   4.463   1.296 -0.3330  0.7393  0.0567
31188SOL    HW298503   6.769   4.404   1.228 -1.1150  1.2411  0.9962
31189SOL     OW98504   6.488   0.490   0.993  0.2175  0.0387  0.4275
31189SOL    HW198505   6.416   0.463   0.935 -0.6474 -0.3758  1.6473
31189SOL    HW298506   6.557   0.426   0.976  0.4184  0.5760 -0.9331
31190SOL     OW98507  10.658   8.350   4.846 -0.2731 -0.3814 -0.0256
31190SOL    HW198508  10.710   8.428   4.868  1.4340 -1.9457  1.8587
31190SOL    HW298509  10.720   8.292   4.802 -1.3756 -0.9444 -0.8931
31191SOL     OW98510  11.231   6.553   3.463 -0.5374 -0.1207  0.4149
31191SOL    HW198511  11.160   6.617   3.465 -0.7766 -0.3846  0.4567
31191SOL    HW298512  11.284   6.573   3.540 -0.8752 -0.2689  0.6889
31192SOL     OW98513   3.267   8.210   1.846 -0.4688 -0.6076 -0.6437
31192SOL    HW198514   3.348   8.207   1.796 -0.4605 -1.4735 -0.5948
31192SOL    HW298515   3.289   8.171   1.931 -0.7228 -0.0461 -0.3154
31193SOL     OW98516   6.277   4.417  11.083  0.1608  0.5451  0.3170
31193SOL    HW198517   6.258   4.340  11.028 -1.0722  1.3794 -0.4846
31193SOL    HW298518   6.371   4.430  11.075  0.0587  0.4479 -1.3767
31194SOL     OW98519   9.408   4.446   7.896 -0.1488 -0.1652 -0.4050
31194SOL    HW198520   9.447   4.362   7.872 -0.5474 -0.3103 -0.5497
31194SOL    HW298521   9.332   4.422   7.950 -0.1024  0.1117 -0.2163
31195SOL     OW98522   4.136   3.231   7.549  0.1238 -0.7469 -0.0924
31195SOL    HW198523   4.051   3.191   7.533 -0.2512 -0.1424  0.3432
31195SOL    HW298524   4.163   3.267   7.464  0.4701 -1.9085 -0.4878
31196SOL     OW98525   4.904   7.896   4.192 -0.0169  0.2838  0.7961
31196SOL    HW198526   4.848   7.870   4.119 -1.3751  2.8055  0.8204
31196SOL    HW298527   4.852   7.877   4.270  0.4217 -0.1446  0.9889
31197SOL     OW98528  10.202  10.074   2.023 -0.0569  0.0411 -0.1727
31197SOL    HW198529  10.291  10.088   2.055 -0.1841  2.2116 -0.6168
31197SOL    HW298530  10.146  10.113   2.091 -0.6133 -0.3203 -0.4165
31198SOL     OW98531   3.435   1.386   6.416  0.1623 -0.2679  0.3458
31198SOL    HW198532   3.527   1.374   6.438 -0.1100  0.6006  2.0520
31198SOL    HW298533   3.424   1.480   6.404  0.1122 -0.5754 -2.9864
31199SOL     OW98534   8.964   7.958   1.449 -0.1309  0.2863  0.1655
31199SOL    HW198535   8.964   7.864   1.469  0.9367  0.3317  0.4441
31199SOL    HW298536   9.037   7.970   1.389 -0.7746  0.8240 -0.5356
31200SOL     OW98537   1.228   8.076   0.800 -0.2597  0.0236 -0.4703
31200SOL    HW198538   1.321   8.095   0.795 -0.1499 -0.6612 -1.4538
31200SOL    HW298539   1.211   8.060   0.892  0.7795 -0.6937 -0.3862
31201SOL     OW98540   0.099   1.208  10.751 -0.0325 -0.2442  0.2974
31201SOL    HW198541   0.006   1.192  10.736 -0.1967 -0.1715  1.1867
31201SOL    HW298542   0.117   1.289  10.704 -0.6451  0.2496  0.8949
31202SOL     OW98543   4.982   4.485  11.635 -0.1492  0.0107 -0.1454
31202SOL    HW198544   4.947   4.572  11.617 -0.1335  0.0331 -0.0675
31202SOL    HW298545   5.013   4.490  11.726 -1.0634 -0.3775  0.1959
31203SOL     OW98546   1.070   5.955   0.491 -0.1639 -0.1427  0.3705
31203SOL    HW198547   1.150   5.968   0.441  0.0860 -0.6324  0.6314
31203SOL    HW298548   1.078   5.867   0.527 -0.8144 -0.1939  0.4132
31204SOL     OW98549   6.479   4.596   3.375 -0.2383  0.9063  0.5662
31204SOL    HW198550   6.456   4.591   3.468 -0.0332 -1.5058  0.5611
31204SOL    HW298551   6.570   4.626   3.374  0.9414 -2.2342  1.4560
31205SOL     OW98552   3.734   3.075   8.660  0.4020  0.4398 -0.2324
31205SOL    HW198553   3.647   3.115   8.655  0.4527  0.6598  0.4998
31205SOL    HW298554   3.739   3.018   8.583 -0.7316 -0.2588  0.1873
31206SOL     OW98555   1.751   5.896  10.468 -0.1340 -0.7199  0.1817
31206SOL    HW198556   1.793   5.897  10.554  0.1725  0.5139  0.0297
31206SOL    HW298557   1.729   5.804  10.454  3.2781 -1.6554 -0.0823
31207SOL     OW98558   1.154   3.773   1.531  0.5229  0.1251 -0.4756
31207SOL    HW198559   1.063   3.794   1.550  0.1899  1.0860 -2.8320
31207SOL    HW298560   1.150   3.701   1.469  1.3863 -0.1406 -0.2388
31208SOL     OW98561   8.311   6.444   4.226 -0.5241  0.7994 -0.3440
31208SOL    HW198562   8.349   6.522   4.266 -1.5014  0.7982  0.6645
31208SOL    HW298563   8.367   6.424   4.152  0.3990  1.7905  0.0695
31209SOL     OW98564   2.571   2.186   5.039 -0.0615  0.3545 -0.2567
31209SOL    HW198565   2.518   2.150   5.111  1.1992 -2.1628 -0.4655
31209SOL    HW298566   2.549   2.130   4.965  1.4690  0.4856 -0.8263
31210SOL     OW98567   8.736   5.023   8.787 -0.2494 -0.4343  0.0160
31210SOL    HW198568   8.778   5.046   8.870  0.2254 -0.2843 -0.2651
31210SOL    HW298569   8.643   5.015   8.809 -0.6084  2.5924 -0.0236
31211SOL     OW98570   1.147   0.127   7.937  0.3524 -0.0905  0.5024
31211SOL    HW198571   1.158   0.144   7.844  0.8640  0.3084  0.6316
31211SOL    HW298572   1.103   0.042   7.941 -0.0542  0.0888 -0.1067
31212SOL     OW98573   4.974   4.621  10.494 -0.3756  0.0800  0.1055
31212SOL    HW198574   4.989   4.528  10.511 -0.3279 -0.0922 -0.8236
31212SOL    HW298575   5.055   4.663  10.523 -0.2485 -0.2133  0.1858
31213SOL     OW98576   8.433   4.844   6.301  0.1734 -0.1894 -0.1257
31213SOL    HW198577   8.525   4.825   6.285  0.6285  1.0495  0.8918
31213SOL    HW298578   8.431   4.937   6.323 -1.2974 -0.2423  0.0631
31214SOL     OW98579   8.974   8.315   0.375  0.3367 -0.1194 -0.0974
31214SOL    HW198580   8.967   8.220   0.372  0.9901 -0.1993  0.5860
31214SOL    HW298581   9.067   8.331   0.391  0.2950  0.6451 -0.5761
31215SOL     OW98582   0.391   5.336  11.404 -0.0407  0.7746  0.5248
31215SOL    HW198583   0.420   5.382  11.325  0.5390  1.0752  0.9018
31215SOL    HW298584   0.312   5.288  11.377  0.7220  0.0518 -0.4944
31216SOL     OW98585   7.583   2.685   8.475 -0.0622 -0.7171 -0.5981
31216SOL    HW198586   7.674   2.662   8.492  0.1300 -0.1306 -0.8371
31216SOL    HW298587   7.555   2.622   8.409 -0.3368 -1.9797  0.6769
31217SOL     OW98588   9.754   2.266   0.903  0.5874  0.1194 -0.5590
31217SOL    HW198589   9.662   2.244   0.917  1.0764 -1.1619  0.8817
31217SOL    HW298590   9.784   2.301   0.987  1.6955 -0.5614 -0.6411
31218SOL     OW98591   7.680   3.465   7.467  0.2781 -0.8219  0.6457
31218SOL    HW198592   7.606   3.513   7.504  2.0372  2.6275  0.0862
31218SOL    HW298593   7.639   3.401   7.408 -2.2644  0.7031  0.5801
31219SOL     OW98594   0.535   7.335   8.515 -0.5293  0.2909 -0.2694
31219SOL    HW198595   0.565   7.363   8.428  2.7198 -2.1608 -0.1505
31219SOL    HW298596   0.468   7.270   8.497 -2.7131  2.5376 -0.7189
31220SOL     OW98597   3.161   6.039   4.924 -0.3568 -0.6518 -0.1749
31220SOL    HW198598   3.106   5.966   4.896 -0.1670 -0.3049 -1.5557
31220SOL    HW298599   3.126   6.114   4.877  1.3535 -0.4575 -1.2304
31221SOL     OW98600  10.097   3.640   8.558 -0.3677 -0.6693 -0.0467
31221SOL    HW198601  10.039   3.568   8.581 -0.3532 -1.4819 -2.3136
31221SOL    HW298602  10.186   3.605   8.570 -0.3578 -0.7799 -0.4431
31222SOL     OW98603   0.156   5.147  11.591 -0.2595  0.0689  0.0018
31222SOL    HW198604   0.215   5.127  11.664 -0.6709  0.5470  0.4750
31222SOL    HW298605   0.090   5.078  11.596  1.1088 -1.4381 -1.5261
31223SOL     OW98606   1.282   0.926  10.633  1.0053 -0.1227  0.3992
31223SOL    HW198607   1.299   0.953  10.543 -0.0767 -1.2005 -0.1623
31223SOL    HW298608   1.326   0.842  10.641 -0.5235 -0.9867  0.2086
31224SOL     OW98609   5.624  10.317   7.860 -0.0212 -0.4002 -0.0551
31224SOL    HW198610   5.652  10.315   7.768 -0.4225  1.2294 -0.2379
31224SOL    HW298611   5.705  10.307   7.909  0.2318 -1.0152 -0.5729
31225SOL     OW98612   8.845   5.416   5.033  0.0306 -0.2522 -0.1863
31225SOL    HW198613   8.872   5.468   5.109 -0.0625 -0.2430 -0.1599
31225SOL    HW298614   8.801   5.478   4.975 -1.7127 -0.6531  0.6618
31226SOL     OW98615   0.728   9.600   7.206  0.4079 -0.9688 -0.3751
31226SOL    HW198616   0.796   9.552   7.254  0.1608 -1.0900 -0.1453
31226SOL    HW298617   0.777   9.663   7.153  0.7687 -1.8087 -1.0556
31227SOL     OW98618   6.923   1.145   3.336 -0.4344  0.0554  0.3084
31227SOL    HW198619   6.894   1.123   3.248  2.0977  0.7422 -0.7814
31227SOL    HW298620   6.848   1.188   3.376 -2.6011 -2.7075 -0.4714
31228SOL     OW98621   9.265  10.673   9.028 -0.4880 -0.6470 -0.2390
31228SOL    HW198622   9.329  10.646   9.095  1.3759 -1.6306 -2.2709
31228SOL    HW298623   9.319  10.703   8.955 -2.4266 -0.0281 -1.4774
31229SOL     OW98624   0.869   6.798  11.004 -0.0281  0.8561 -0.6442
31229SOL    HW198625   0.868   6.892  11.025 -1.7268  0.2978  2.3792
31229SOL    HW298626   0.784   6.782  10.963  0.2505  0.6295 -1.1358
31230SOL     OW98627  10.125   7.765   4.971 -1.0914 -0.1422 -0.0607
31230SOL    HW198628  10.034   7.741   4.989 -0.7846  0.5731  3.1925
31230SOL    HW298629  10.139   7.740   4.880 -5.3384  2.2865 -1.6622
31231SOL     OW98630   3.988   9.861   8.408  0.5792 -0.2828 -0.0383
31231SOL    HW198631   3.910   9.887   8.457  0.2098 -1.7863  0.2027
31231SOL    HW298632   4.061   9.894   8.460  0.1445  1.5486 -0.4991
31232SOL     OW98633   1.148   2.050   6.666  0.0391  0.2546 -0.0307
31232SOL    HW198634   1.068   2.097   6.638 -0.2729 -0.9494 -1.2609
31232SOL    HW298635   1.219   2.112   6.650 -0.7425  2.1061  2.9037
31233SOL     OW98636   1.439   6.205   0.228  0.1117 -0.6925 -0.4180
31233SOL    HW198637   1.510   6.204   0.164 -1.2485  0.1723 -1.9963
31233SOL    HW298638   1.359   6.206   0.176 -1.0557  0.3249  1.2835
31234SOL     OW98639  11.199   8.775   3.752 -0.3174 -0.6800 -0.2958
31234SOL    HW198640  11.126   8.783   3.813 -0.6904 -1.3200 -0.6494
31234SOL    HW298641  11.162   8.733   3.674  0.9566 -3.7464  0.5786
31235SOL     OW98642   1.832   9.175   2.674 -0.9463  0.4239  0.1726
31235SOL    HW198643   1.800   9.206   2.590  0.4252 -1.2731 -1.0464
31235SOL    HW298644   1.752   9.159   2.726 -2.2413 -2.9552 -2.4629
31236SOL     OW98645   2.953   8.321   3.655 -0.0850 -0.6080  0.1340
31236SOL    HW198646   2.926   8.383   3.723  0.7586 -0.8537  0.7177
31236SOL    HW298647   2.905   8.240   3.675  0.0526 -0.6354  0.3627
31237SOL     OW98648   6.332   9.864   2.200 -0.1012  0.1495 -0.7074
31237SOL    HW198649   6.411   9.810   2.199  1.2144  1.9197  0.8216
31237SOL    HW298650   6.357   9.945   2.156 -1.6650  0.0697 -1.8431
31238SOL     OW98651   1.101   9.751   1.449  0.5233 -0.0651 -0.5322
31238SOL    HW198652   1.146   9.727   1.368  0.0374 -2.8159 -0.0845
31238SOL    HW298653   1.142   9.698   1.517 -1.1457 -0.1658  0.4718
31239SOL     OW98654   4.672   2.405   0.665 -0.3620  0.0309  0.3502
31239SOL    HW198655   4.634   2.491   0.681 -0.0822  0.4469 -1.0704
31239SOL    HW298656   4.698   2.407   0.573  0.1895 -1.3674  0.4492
31240SOL     OW98657   6.116   0.545   5.177  0.4601 -0.7042 -0.1942
31240SOL    HW198658   6.075   0.465   5.144  1.2314 -0.7875 -0.9698
31240SOL    HW298659   6.094   0.612   5.113  0.8382 -0.5728 -0.1909
31241SOL     OW98660   8.168   3.211   9.674  0.2509 -0.2767  0.2128
31241SOL    HW198661   8.252   3.167   9.662  0.8909  0.9504 -0.0299
31241SOL    HW298662   8.128   3.166   9.748  0.4931 -1.7813 -0.5343
31242SOL     OW98663   6.223   7.718   9.206  0.2731  0.6133 -0.2046
31242SOL    HW198664   6.191   7.656   9.272 -1.8132  2.0419  0.2601
31242SOL    HW298665   6.275   7.781   9.256  1.1450  0.0955 -0.4361
31243SOL     OW98666   3.943   8.419   1.050  0.0933 -0.1751 -0.7847
31243SOL    HW198667   3.848   8.411   1.040 -0.1889  2.3140 -0.7505
31243SOL    HW298668   3.979   8.389   0.967 -0.6437 -1.7359 -0.5750
31244SOL     OW98669   8.943   0.309   3.639  0.3434  0.0981 -0.4047
31244SOL    HW198670   8.965   0.304   3.546 -0.0479 -0.1301 -0.4871
31244SOL    HW298671   8.935   0.217   3.666  1.0809  0.1435  0.0078
31245SOL     OW98672   0.790  10.205   8.555  0.3061 -0.0753  0.7407
31245SOL    HW198673   0.777  10.280   8.496  0.3417 -0.6958 -0.0806
31245SOL    HW298674   0.880  10.178   8.539 -0.1068 -1.1087  0.0238
31246SOL     OW98675   4.826   0.794   2.808 -0.4646 -0.1093 -0.2031
31246SOL    HW198676   4.783   0.844   2.738 -0.5629  1.3492  0.8531
31246SOL    HW298677   4.881   0.859   2.853 -0.2539 -1.0605  0.9518
31247SOL     OW98678   0.740   2.435   5.205 -0.5967  0.8338 -0.0311
31247SOL    HW198679   0.749   2.395   5.292  3.8024  1.5401  0.0732
31247SOL    HW298680   0.736   2.360   5.146 -0.2676  0.2745  0.6309
31248SOL     OW98681   8.872   7.113   3.450 -0.0893 -0.2223 -0.0233
31248SOL    HW198682   8.923   7.144   3.524  0.8710  0.5839 -0.9787
31248SOL    HW298683   8.842   7.193   3.407  0.7492 -0.6168 -1.4131
31249SOL     OW98684   9.156   7.345   4.408  0.0598 -0.2902 -0.1738
31249SOL    HW198685   9.077   7.293   4.394  0.4878 -0.8316 -0.6614
31249SOL    HW298686   9.217   7.315   4.340  0.2520  1.0048 -0.6162
31250SOL     OW98687   3.301   7.940   6.615 -0.3148  0.1531  0.0372
31250SOL    HW198688   3.356   7.867   6.641 -0.9068 -0.0910  0.6432
31250SOL    HW298689   3.287   7.989   6.697  1.7127  2.0991 -0.6809
31251SOL     OW98690  10.015   9.716   8.856 -0.3437  0.0508 -0.0597
31251SOL    HW198691   9.975   9.801   8.873 -2.6067 -0.9036 -0.1801
31251SOL    HW298692   9.974   9.657   8.920  1.0704 -0.9866 -0.0618
31252SOL     OW98693   7.504   3.503  11.245 -0.1979  0.8576 -0.2921
31252SOL    HW198694   7.457   3.562  11.305  0.3988 -0.6781  1.8123
31252SOL    HW298695   7.492   3.416  11.283  0.0701 -0.2401 -2.5668
31253SOL     OW98696   7.946   2.019  11.483 -0.4732  0.3532 -0.0309
31253SOL    HW198697   7.892   2.095  11.507 -0.7402 -0.6666  3.0546
31253SOL    HW298698   7.958   1.972  11.565 -0.1640 -2.9082 -1.8029
31254SOL     OW98699   5.846   7.702   8.857 -0.5218  0.1738 -0.3141
31254SOL    HW198700   5.792   7.624   8.871 -0.2933  0.3850  2.2529
31254SOL    HW298701   5.932   7.678   8.892 -0.6319  1.7387  1.1305
31255SOL     OW98702   7.478   3.904   0.544  0.0251 -0.1660 -0.3570
31255SOL    HW198703   7.435   3.984   0.514 -0.7065 -1.1262 -2.0377
31255SOL    HW298704   7.527   3.873   0.468 -2.6777 -3.2268 -1.0812
31256SOL     OW98705   6.823   1.424  10.572 -0.2600  0.9161  0.8338
31256SOL    HW198706   6.788   1.339  10.596 -0.1987  0.3568 -0.9336
31256SOL    HW298707   6.913   1.406  10.545 -0.5700  1.3405 -0.5696
31257SOL     OW98708   0.139   1.517   3.873 -0.3066  0.5407  0.5464
31257SOL    HW198709   0.207   1.483   3.816  0.1606  2.6093 -0.2306
31257SOL    HW298710   0.183   1.531   3.958 -0.2512  0.1259  0.5847
31258SOL     OW98711   5.109   6.976  11.533 -0.3681  0.0797 -0.2859
31258SOL    HW198712   5.154   7.025  11.464 -2.2112 -0.9062 -2.3212
31258SOL    HW298713   5.023   6.957  11.496 -0.8427 -1.9539  1.6732
31259SOL     OW98714   9.417   7.397   7.717 -0.0168  0.0139  0.1468
31259SOL    HW198715   9.437   7.490   7.709 -0.0133  0.0431  0.4619
31259SOL    HW298716   9.503   7.355   7.726  0.0770 -0.1768 -1.3946
31260SOL     OW98717   3.103   6.462   1.376 -0.4209 -0.8430  0.0006
31260SOL    HW198718   3.115   6.370   1.353 -0.6233 -0.3181 -2.4499
31260SOL    HW298719   3.187   6.488   1.415  0.2455 -1.6521 -0.8456
31261SOL     OW98720   5.930   0.361   5.465 -0.6675 -0.6787 -0.0704
31261SOL    HW198721   5.837   0.364   5.443 -0.6254 -0.6993 -0.2528
31261SOL    HW298722   5.963   0.448   5.440 -0.5403 -0.8326 -0.4443
31262SOL     OW98723   6.696   6.961   2.849  0.3657 -0.2554 -0.3297
31262SOL    HW198724   6.789   6.978   2.862  0.9410 -3.1974  0.2371
31262SOL    HW298725   6.665   7.034   2.795  2.7886  1.2086  0.1275
31263SOL     OW98726   0.978   7.497   9.479  0.2114  0.0344 -0.0006
31263SOL    HW198727   0.969   7.589   9.456 -2.9809 -0.0170  0.6045
31263SOL    HW298728   0.988   7.497   9.574 -0.0629 -0.2319  0.0318
31264SOL     OW98729   7.144   2.556   2.622  0.2680  0.1407 -0.1471
31264SOL    HW198730   7.094   2.619   2.674 -2.0394 -1.7460  0.1163
31264SOL    HW298731   7.087   2.535   2.548  1.4020 -0.8612 -0.7802
31265SOL     OW98732   0.579   9.864   6.047 -0.0953  0.2597 -0.7431
31265SOL    HW198733   0.656   9.857   6.103  0.6161  2.0458 -1.4151
31265SOL    HW298734   0.509   9.896   6.104  0.1812  0.4854 -0.5324
31266SOL     OW98735   8.642   1.635   0.629 -0.0932 -0.0094  0.7671
31266SOL    HW198736   8.579   1.590   0.686 -1.1328  1.6924  1.0285
31266SOL    HW298737   8.665   1.715   0.677  1.9854 -0.3854  0.4840
31267SOL     OW98738   3.047   3.949   6.827  0.0586 -0.0362 -0.2747
31267SOL    HW198739   3.112   3.973   6.761  0.9689  0.8861  0.9213
31267SOL    HW298740   2.963   3.974   6.789  0.8015  3.6490  0.2133
31268SOL     OW98741   4.799   9.425   6.271 -0.3590 -0.6179 -0.2019
31268SOL    HW198742   4.783   9.509   6.228 -0.3910  0.4099  1.7065
31268SOL    HW298743   4.720   9.409   6.322  0.7300 -0.3507  1.6650
31269SOL     OW98744   4.130   5.945  10.548  0.1891  0.3363 -0.0195
31269SOL    HW198745   4.143   6.001  10.471  1.5255 -0.2504 -0.2459
31269SOL    HW298746   4.111   5.859  10.512  1.1268 -0.0100  0.2921
31270SOL     OW98747   5.515   9.381   0.207  0.3134  0.2609 -0.1160
31270SOL    HW198748   5.532   9.465   0.165 -1.1303 -0.2113 -1.7718
31270SOL    HW298749   5.421   9.381   0.224  0.3996 -0.7610  0.4704
31271SOL     OW98750   1.100   6.785   0.589 -0.1222  0.0116  0.4072
31271SOL    HW198751   1.131   6.856   0.533 -2.6130 -0.5042 -1.8237
31271SOL    HW298752   1.159   6.712   0.570 -0.2741  0.1753 -0.8263
31272SOL     OW98753   2.475   0.141   0.474 -0.1840  0.2029 -0.3163
31272SOL    HW198754   2.473   0.168   0.382 -2.8967 -1.9241 -1.0172
31272SOL    HW298755   2.464   0.222   0.524  0.9166  1.3462 -1.8297
31273SOL     OW98756   7.634   5.875   1.816  0.1046  0.1637 -0.0200
31273SOL    HW198757   7.600   5.963   1.831 -0.9444 -0.0900 -0.8022
31273SOL    HW298758   7.636   5.867   1.720  0.1198 -0.6939  0.0479
31274SOL     OW98759   1.385   4.334  11.085 -0.7357 -0.0719 -0.4120
31274SOL    HW198760   1.393   4.306  11.176 -1.5082  1.2176  0.0753
31274SOL    HW298761   1.443   4.411  11.079 -1.5778  0.5531 -0.6812
31275SOL     OW98762   4.524   3.554   2.233 -0.1918  0.9995 -0.8622
31275SOL    HW198763   4.597   3.492   2.227 -0.6675  0.4477 -1.0141
31275SOL    HW298764   4.462   3.524   2.167 -1.6368 -0.0002  0.8483
31276SOL     OW98765   5.977   9.452  10.452 -0.3758 -0.1985  0.3234
31276SOL    HW198766   6.028   9.459  10.533 -1.6621  0.4658  1.1273
31276SOL    HW298767   5.948   9.361  10.450 -0.5535 -0.1556  0.7647
31277SOL     OW98768   1.173   9.632  10.368  0.5992  0.5704 -0.0929
31277SOL    HW198769   1.163   9.541  10.339  1.7936  0.8015 -1.3626
31277SOL    HW298770   1.127   9.636  10.451  0.8042 -1.2906  0.1533
31278SOL     OW98771   9.003   7.806   8.946 -0.3988 -0.2438 -0.4101
31278SOL    HW198772   8.945   7.851   9.008 -0.2292 -2.8544  1.8439
31278SOL    HW298773   8.968   7.717   8.942  0.9441 -0.7312 -2.4118
31279SOL     OW98774   9.436   9.124   3.520 -0.3549  0.2898 -0.0522
31279SOL    HW198775   9.514   9.137   3.574 -0.8859  1.3662  0.5012
31279SOL    HW298776   9.364   9.153   3.576 -1.1457 -0.5196 -0.6138
31280SOL     OW98777   1.790  10.254   2.760 -0.1174 -0.9368  0.4159
31280SOL    HW198778   1.784  10.186   2.827 -2.4430  0.3526  1.6650
31280SOL    HW298779   1.709  10.244   2.710 -0.1289  0.4191  0.1452
31281SOL     OW98780   1.733   5.571   9.750 -0.0670  0.0119 -0.2154
31281SOL    HW198781   1.787   5.555   9.827  0.6483  1.2774 -0.4384
31281SOL    HW298782   1.747   5.494   9.694 -0.3989 -0.7981  0.7791
31282SOL     OW98783   1.663   0.943   5.057 -0.4314 -0.4088  0.2138
31282SOL    HW198784   1.719   0.866   5.049 -0.6156 -0.4946 -0.2796
31282SOL    HW298785   1.679   0.975   5.146 -1.9612 -2.2847  1.2550
31283SOL     OW98786   3.741   8.082   0.228 -0.1908  0.1365 -0.3633
31283SOL    HW198787   3.664   8.135   0.250  1.0490  1.5054  0.9082
31283SOL    HW298788   3.735   8.005   0.284  0.0878  0.9443  0.8131
31284SOL     OW98789   9.785   5.702   4.054 -0.6510 -0.1209  0.4751
31284SOL    HW198790   9.862   5.704   3.998 -0.5813  0.9946  0.5780
31284SOL    HW298791   9.730   5.773   4.021 -1.9019 -1.2450  0.0490
31285SOL     OW98792   4.479   1.957   3.078 -0.0657 -0.0735 -0.0615
31285SOL    HW198793   4.498   2.023   3.011 -2.5048  1.7855  0.9260
31285SOL    HW298794   4.469   2.008   3.158  0.3071 -1.9654  1.2376
31286SOL     OW98795   5.523   7.505   9.683 -0.1700  0.7413  0.0762
31286SOL    HW198796   5.466   7.524   9.758  0.2324  0.2081  0.5274
31286SOL    HW298797   5.612   7.514   9.718  0.0404  2.0870 -0.7532
31287SOL     OW98798   2.403   8.566   4.717  0.0377  0.2638  0.4165
31287SOL    HW198799   2.420   8.658   4.739 -1.9570  0.3100  2.1255
31287SOL    HW298800   2.314   8.566   4.681  0.5977 -0.8404 -1.0856
31288SOL     OW98801   7.704   9.678   6.157  0.1934  0.2334  0.3829
31288SOL    HW198802   7.733   9.690   6.248 -0.3367  0.1963  0.5615
31288SOL    HW298803   7.766   9.615   6.121 -0.2422 -0.6035  1.0495
31289SOL     OW98804   9.860   0.866   3.516 -0.1452 -0.5809  0.1818
31289SOL    HW198805   9.770   0.874   3.486 -0.4982  1.5362  1.5714
31289SOL    HW298806   9.912   0.910   3.449 -0.3193 -0.5417  0.0751
31290SOL     OW98807   0.270  10.979   3.569 -0.4147  0.1249  0.1731
31290SOL    HW198808   0.347  11.023   3.606  0.7926 -0.2428 -1.8051
31290SOL    HW298809   0.222  11.049   3.524 -0.7388  0.1557  0.5505
31291SOL     OW98810   0.348  11.429   3.135  0.4134  0.3451 -0.1438
31291SOL    HW198811   0.424  11.438   3.078  0.2130 -0.7604 -0.6125
31291SOL    HW298812   0.378  11.462   3.220  2.2683 -2.3203  0.3682
31292SOL     OW98813   8.519   4.026   4.953  0.2736  0.0352 -0.2601
31292SOL    HW198814   8.492   4.073   4.874  2.1504  1.1097 -0.3009
31292SOL    HW298815   8.437   4.013   5.002 -0.7952  0.1335 -1.9321
31293SOL     OW98816   4.649   0.756   3.464  0.0995 -0.0489  0.2246
31293SOL    HW198817   4.608   0.712   3.389 -0.4377 -0.1887  0.5997
31293SOL    HW298818   4.739   0.773   3.435 -0.5549  1.4718 -1.1317
31294SOL     OW98819   4.807   6.528   7.340 -0.0764  0.0625  0.5880
31294SOL    HW198820   4.853   6.612   7.333 -1.3428  0.7331 -0.1936
31294SOL    HW298821   4.751   6.538   7.417 -2.2259  1.0315 -0.9869
31295SOL     OW98822   6.716   0.470   6.095 -0.3429  0.7736 -0.5965
31295SOL    HW198823   6.689   0.557   6.065 -1.8167  0.3853 -0.4614
31295SOL    HW298824   6.780   0.488   6.164 -1.7152  1.8108  0.4728
31296SOL     OW98825   3.578  11.101   3.073 -0.0380  0.1275 -0.3970
31296SOL    HW198826   3.540  11.053   3.147  0.5054  0.9582  0.4487
31296SOL    HW298827   3.604  11.034   3.011 -0.1021 -0.6137  0.3649
31297SOL     OW98828   6.150   9.560   6.064 -0.0591  0.1118  0.3444
31297SOL    HW198829   6.170   9.484   6.119  0.6839 -0.2420 -0.3825
31297SOL    HW298830   6.145   9.633   6.125 -1.0103 -0.5551  1.0813
31298SOL     OW98831  10.463   3.011   0.168 -0.8693 -0.0071  0.6141
31298SOL    HW198832  10.528   3.065   0.122 -1.3911 -0.2646 -0.4621
31298SOL    HW298833  10.473   2.924   0.130 -0.1868 -0.6469  2.1839
31299SOL     OW98834   2.289   4.333   2.842  0.1118 -0.2452 -0.4026
31299SOL    HW198835   2.341   4.261   2.880 -0.0002  0.1178  0.4536
31299SOL    HW298836   2.288   4.314   2.748  0.1880 -1.2984 -0.2042
31300SOL     OW98837   2.770   3.546   3.522  0.7620 -0.4365  0.3549
31300SOL    HW198838   2.777   3.591   3.607  0.0743 -1.2734  0.8752
31300SOL    HW298839   2.750   3.616   3.459  1.6607  0.2523  0.8074
31301SOL     OW98840   9.094   8.125   7.911 -0.1046 -0.3887 -0.0364
31301SOL    HW198841   9.067   8.101   7.822  0.6946  1.0000 -0.6883
31301SOL    HW298842   9.115   8.219   7.905 -0.6398 -0.1275  1.7682
31302SOL     OW98843   3.771   8.528  10.410  0.2459  0.0792  0.0726
31302SOL    HW198844   3.852   8.575  10.390  0.1069  0.6756  0.8588
31302SOL    HW298845   3.800   8.449  10.457  0.3049  1.4606  2.5542
31303SOL     OW98846   4.827  10.705   1.174  0.0713 -0.0787 -0.4451
31303SOL    HW198847   4.864  10.620   1.150  0.0490  0.0283 -0.8735
31303SOL    HW298848   4.779  10.733   1.096  0.6276  0.6270 -0.5511
31304SOL     OW98849   6.225   8.470   4.752 -0.0398  0.4579  0.1152
31304SOL    HW198850   6.164   8.398   4.769 -1.4040  1.6266  0.4239
31304SOL    HW298851   6.311   8.436   4.774 -0.4825 -1.4714 -0.9476
31305SOL     OW98852   8.909   2.510   6.030  0.2375  0.5378 -0.0791
31305SOL    HW198853   8.838   2.456   5.997 -0.7515  1.1598  0.9839
31305SOL    HW298854   8.962   2.530   5.953 -0.5031 -0.2799 -0.8102
31306SOL     OW98855  11.045   3.967  11.295 -0.2742 -0.4650  0.1128
31306SOL    HW198856  10.969   3.933  11.248  0.1027  0.6373 -1.3694
31306SOL    HW298857  11.091   3.888  11.325 -1.2168 -1.1787 -0.2518
31307SOL     OW98858   3.786  10.902   1.257  0.0675 -0.3568 -0.7734
31307SOL    HW198859   3.800  10.879   1.166 -0.6830  0.9337 -1.2515
31307SOL    HW298860   3.824  10.990   1.266  0.8225 -0.7782  0.3640
31308SOL     OW98861   2.177   5.297   9.523 -0.2872  0.2804 -0.5463
31308SOL    HW198862   2.102   5.265   9.472 -0.7206  0.9182 -0.3210
31308SOL    HW298863   2.205   5.221   9.574 -1.3830  0.2729  0.0802
31309SOL     OW98864   5.957   3.808   6.247 -0.2346 -0.4579 -0.3954
31309SOL    HW198865   5.957   3.786   6.340  2.0826 -0.0327 -0.2181
31309SOL    HW298866   5.881   3.763   6.211 -1.5925 -0.0616  1.8068
31310SOL     OW98867   3.087  10.846   1.892  0.2870 -0.1633 -0.1556
31310SOL    HW198868   3.048  10.889   1.968  0.4741  0.1962 -0.2627
31310SOL    HW298869   3.163  10.900   1.870 -0.1616  0.1448 -1.0254
31311SOL     OW98870   6.340   2.603  10.907  0.1110  0.3291  0.3996
31311SOL    HW198871   6.363   2.690  10.937  0.4117  1.3720 -2.5533
31311SOL    HW298872   6.245   2.603  10.902  0.1248  0.6016  0.1246
31312SOL     OW98873   4.472   9.252   1.336  0.1250 -0.6941 -0.0921
31312SOL    HW198874   4.435   9.299   1.262  1.7634 -0.0892 -0.5817
31312SOL    HW298875   4.535   9.192   1.297 -0.9695 -2.3679  0.6370
31313SOL     OW98876   7.743   3.583   4.831  0.1342  0.0337  0.0205
31313SOL    HW198877   7.745   3.487   4.829 -0.3771  0.0118  0.2585
31313SOL    HW298878   7.694   3.608   4.753  0.8731  0.1329 -0.4166
31314SOL     OW98879   0.565   9.577   7.597 -0.2370 -0.2079 -0.1100
31314SOL    HW198880   0.648   9.572   7.644  0.2444 -0.8497 -1.0043
31314SOL    HW298881   0.546   9.671   7.593 -0.4792 -0.1398  1.6391
31315SOL     OW98882   7.353   7.525   7.941  0.0472  0.5742  0.2131
31315SOL    HW198883   7.378   7.447   7.990  0.6011  0.4827 -0.2018
31315SOL    HW298884   7.313   7.584   8.006 -2.8585 -1.0844  0.1151
31316SOL     OW98885   7.604   5.460   7.995  0.4600  0.0583 -0.7267
31316SOL    HW198886   7.535   5.411   7.949  0.3992  0.5461 -1.1607
31316SOL    HW298887   7.656   5.392   8.038  0.2505 -0.3771 -1.1431
31317SOL     OW98888   9.787   2.006  10.094 -0.5665 -0.4568  0.1160
31317SOL    HW198889   9.796   1.929  10.037  0.1281 -0.1300 -0.2304
31317SOL    HW298890   9.825   2.077  10.043  1.4963 -0.4290  1.5895
31318SOL     OW98891   3.962   5.286  10.090  0.7349  0.0069 -0.2527
31318SOL    HW198892   3.886   5.228  10.103 -0.0930  1.2283  0.5723
31318SOL    HW298893   3.964   5.301   9.996 -0.7180  0.7783 -0.2013
31319SOL     OW98894   1.377   4.629   3.773 -0.0245  0.2035  0.2748
31319SOL    HW198895   1.470   4.619   3.796 -0.1651 -1.8429  0.1388
31319SOL    HW298896   1.374   4.616   3.679 -0.4607  0.1145  0.3006
31320SOL     OW98897   1.042  10.914  10.892 -0.7659  0.5692  0.0987
31320SOL    HW198898   1.065  10.824  10.868  0.6952  1.1670 -0.9427
31320SOL    HW298899   1.028  10.911  10.986 -0.3106 -0.6731  0.1427
31321SOL     OW98900  11.278  11.298   5.293 -0.1537  0.4677  0.1880
31321SOL    HW198901  11.242  11.224   5.245  0.4205 -1.1224  2.0839
31321SOL    HW298902  11.365  11.312   5.254 -0.0929 -0.1399  0.1012
31322SOL     OW98903   9.153   4.711   9.331 -0.3687 -0.0836 -0.1622
31322SOL    HW198904   9.245   4.699   9.308 -0.4397  0.3686 -0.7003
31322SOL    HW298905   9.131   4.634   9.383  0.0226 -0.7164 -0.9205
31323SOL     OW98906   1.749   7.852   1.891  0.7778 -0.6788 -0.0163
31323SOL    HW198907   1.775   7.859   1.983  1.6979 -0.5839 -0.2759
31323SOL    HW298908   1.660   7.888   1.888  0.4191 -1.4490  0.9745
31324SOL     OW98909  10.943   6.215   6.059  0.1828 -0.0942 -0.2694
31324SOL    HW198910  10.965   6.170   6.141 -0.2419  1.3450  0.6756
31324SOL    HW298911  11.019   6.270   6.042  0.1177 -0.1287 -0.6657
31325SOL     OW98912   0.234   0.895   4.703  0.3798 -0.0165  0.1538
31325SOL    HW198913   0.272   0.979   4.676 -1.1678  0.9385  0.8217
31325SOL    HW298914   0.145   0.897   4.667  0.5673 -1.7527 -0.5142
31326SOL     OW98915   2.514   0.441   3.139 -0.1524 -0.2630 -0.2538
31326SOL    HW198916   2.504   0.346   3.129  0.7620 -0.8849  3.4840
31326SOL    HW298917   2.608   0.455   3.146  0.0635  1.5218 -4.0900
31327SOL     OW98918   5.389  11.624   1.607 -0.3891  0.0884 -0.2682
31327SOL    HW198919   5.295  11.616   1.588 -0.9987  2.0680  1.5352
31327SOL    HW298920   5.392  11.662   1.695  2.0938  1.1957 -0.7569
31328SOL     OW98921   4.104   3.625   9.380 -0.0195  0.1471 -0.0455
31328SOL    HW198922   4.096   3.542   9.332  0.2190 -0.5310  1.0566
31328SOL    HW298923   4.197   3.648   9.370 -0.1326  0.4112 -0.5400
31329SOL     OW98924   1.560  10.298   3.327  0.1631 -0.3751  0.1076
31329SOL    HW198925   1.612  10.353   3.385  0.1031 -0.3297  0.1192
31329SOL    HW298926   1.594  10.316   3.239 -0.6733  0.6253 -0.0338
31330SOL     OW98927   5.441  10.324   7.508 -0.3588 -0.4844  0.3894
31330SOL    HW198928   5.353  10.319   7.470 -0.9132  0.3000  1.5033
31330SOL    HW298929   5.441  10.255   7.575 -0.0477 -0.6284  0.2407
31331SOL     OW98930   1.106   0.534   0.348 -0.2665  0.4233  0.0686
31331SOL    HW198931   1.140   0.620   0.323  0.1216 -0.1237 -1.3840
31331SOL    HW298932   1.184   0.485   0.374 -0.2837  0.0419 -0.5798
31332SOL     OW98933  11.253   6.468   4.242 -0.5271  0.8393  0.0700
31332SOL    HW198934  11.313   6.483   4.169  0.0911  0.1017  0.4110
31332SOL    HW298935  11.179   6.422   4.203  0.6365 -1.2529  0.1859
31333SOL     OW98936   1.935   5.681  11.189  0.2440  0.2764 -0.2099
31333SOL    HW198937   2.030   5.684  11.192  0.2459  0.0042 -0.0717
31333SOL    HW298938   1.915   5.670  11.096  0.4210 -2.6158  0.0230
31334SOL     OW98939   0.506  10.961   0.062 -0.0281  0.5322 -0.1798
31334SOL    HW198940   0.466  10.880   0.095 -0.6391  1.4198  1.3382
31334SOL    HW298941   0.450  10.987  -0.011 -1.1265  0.7211  0.7011
31335SOL     OW98942  11.572   0.642  11.677  0.1215  0.4736 -0.0605
31335SOL    HW198943  11.545   0.550  11.682  1.2074  0.0770 -0.9453
31335SOL    HW298944  11.601   0.664  11.765  0.9898 -0.4254 -0.1038
31336SOL     OW98945   2.098  11.380   3.234 -0.2681 -0.4984 -0.0366
31336SOL    HW198946   2.180  11.388   3.283 -0.7022  0.9515  0.5111
31336SOL    HW298947   2.112  11.431   3.154 -0.9499  0.6357  0.5349
31337SOL     OW98948   6.908   8.478   6.557  0.2363 -0.3826  0.1374
31337SOL    HW198949   7.000   8.499   6.572  0.3265 -1.3947  1.0782
31337SOL    HW298950   6.904   8.383   6.555 -0.5282 -0.3691 -1.7127
31338SOL     OW98951   3.221   2.909   3.315  0.1701  0.6065 -0.4881
31338SOL    HW198952   3.208   2.849   3.388  0.7432  0.7146 -0.2907
31338SOL    HW298953   3.307   2.950   3.332  0.7633 -0.0732 -1.7105
31339SOL     OW98954   5.973   5.362   2.256 -0.2038  0.0948 -0.1159
31339SOL    HW198955   5.949   5.290   2.199 -0.6831 -2.4586  3.0486
31339SOL    HW298956   5.893   5.383   2.305  0.9009 -0.1229  1.9110
31340SOL     OW98957   1.764   0.406   4.899 -0.4028  0.4733 -0.6107
31340SOL    HW198958   1.672   0.425   4.919 -0.5661 -0.5569 -0.3486
31340SOL    HW298959   1.799   0.367   4.979  0.1324  0.4070 -0.8738
31341SOL     OW98960   9.783  10.747  11.108 -0.3740  0.4718 -0.2433
31341SOL    HW198961   9.713  10.687  11.135  1.2615 -0.0640  3.4327
31341SOL    HW298962   9.822  10.705  11.032 -1.3175 -1.4988  0.2885
31342SOL     OW98963   8.910   5.606   5.718  0.5162  0.1200 -0.4112
31342SOL    HW198964   9.005   5.597   5.711  0.4927  0.0133 -0.5991
31342SOL    HW298965   8.895   5.629   5.810  0.5393 -2.4310  0.3106
31343SOL     OW98966   4.896   3.224   9.329  0.1990 -0.2550 -0.8169
31343SOL    HW198967   4.878   3.154   9.266  0.9879 -0.9857 -0.2495
31343SOL    HW298968   4.985   3.252   9.309  1.1698 -1.7527  1.0942
31344SOL     OW98969   2.212  11.334   8.475  0.2551 -0.0611 -0.1643
31344SOL    HW198970   2.203  11.249   8.432 -0.8774 -1.3379  2.4268
31344SOL    HW298971   2.172  11.323   8.561  0.4678  2.9906  0.4545
31345SOL     OW98972   3.139   9.591   7.543  0.3665 -0.4588  0.2233
31345SOL    HW198973   3.232   9.590   7.566  0.2637 -1.0199  0.6530
31345SOL    HW298974   3.110   9.680   7.563  0.4574 -0.7182  1.6169
31346SOL     OW98975   3.512   6.331  10.629  0.1981  0.2962 -0.1325
31346SOL    HW198976   3.459   6.286  10.563  0.1638 -2.5227  1.6296
31346SOL    HW298977   3.595   6.284  10.629  0.7204  1.1819  0.8258
31347SOL     OW98978   1.842  11.226   0.221  0.2758 -0.5516  0.1464
31347SOL    HW198979   1.769  11.287   0.214  0.0040 -0.8146  0.6177
31347SOL    HW298980   1.916  11.280   0.249  0.0995 -0.3965  0.3123
31348SOL     OW98981   3.597   8.564   8.851 -0.1070  0.0854 -0.4934
31348SOL    HW198982   3.661   8.621   8.893  1.1637 -0.9706 -0.9423
31348SOL    HW298983   3.600   8.588   8.759 -0.3833  0.0399 -0.5173
31349SOL     OW98984   1.818   0.730   3.191 -0.5610 -0.1251  0.1269
31349SOL    HW198985   1.801   0.677   3.113  2.3939  0.5973 -1.1229
31349SOL    HW298986   1.886   0.683   3.238 -1.8474 -0.2149  2.0084
31350SOL     OW98987   2.224   5.291   1.027  0.0299  0.2689 -0.0609
31350SOL    HW198988   2.294   5.251   1.078  2.0003  2.7087 -0.6486
31350SOL    HW298989   2.252   5.282   0.936 -0.9653  0.3799 -0.3932
31351SOL     OW98990   1.830   2.775  11.460  0.1527  0.2247 -0.1437
31351SOL    HW198991   1.920   2.758  11.491 -0.3088 -0.8711  0.6905
31351SOL    HW298992   1.841   2.821  11.377  1.4889  0.1917 -0.0067
31352SOL     OW98993   7.609   0.129  10.684  0.2068 -0.3141 -0.0175
31352SOL    HW198994   7.565   0.205  10.722 -1.9315  0.3288 -3.3173
31352SOL    HW298995   7.562   0.053  10.720  0.8495  0.0106  1.5539
31353SOL     OW98996   6.894   8.760   3.015  0.3065 -0.3122 -0.2140
31353SOL    HW198997   6.849   8.677   3.033 -0.0720  0.1885  1.3645
31353SOL    HW298998   6.950   8.773   3.092  1.9869 -0.1315 -1.4167
31354SOL     OW98999   7.138   2.439   9.142 -0.0631 -0.6907  0.3002
31354SOL    HW199000   7.217   2.405   9.184  0.2631 -0.0353  0.2259
31354SOL    HW299001   7.090   2.361   9.114  1.2410 -1.0758 -0.9302
31355SOL     OW99002   6.579   5.651   2.599 -0.1883 -0.2665 -0.0596
31355SOL    HW199003   6.674   5.649   2.593 -0.2159 -1.0994 -0.4514
31355SOL    HW299004   6.553   5.733   2.557  0.3720  0.0786  0.2743
31356SOL     OW99005   0.293   4.045   6.838 -0.7575  0.1629  0.6119
31356SOL    HW199006   0.245   3.975   6.880 -0.0935 -0.4890  0.3073
31356SOL    HW299007   0.225   4.104   6.804 -1.4324 -1.5739 -1.2643
31357SOL     OW99008   5.576   0.248   2.651  0.0249 -0.4693 -0.0862
31357SOL    HW199009   5.608   0.291   2.731 -1.3244 -0.9572  0.7471
31357SOL    HW299010   5.611   0.159   2.657  0.9784 -0.1477 -0.6977
31358SOL     OW99011   0.015   4.664   0.006  0.3043 -0.3723 -0.2669
31358SOL    HW199012  -0.029   4.710   0.078  2.4589 -0.3472  1.1414
31358SOL    HW299013   0.026   4.729  -0.062  0.0149  0.1781  0.2071
31359SOL     OW99014   9.761   9.838   4.310 -0.4367  0.0418 -0.0711
31359SOL    HW199015   9.712   9.779   4.367 -1.1596 -0.0004 -0.7192
31359SOL    HW299016   9.803   9.779   4.247 -1.0381  0.1921 -0.6265
31360SOL     OW99017   1.358   4.336   3.466 -0.7540  0.0419 -0.9947
31360SOL    HW199018   1.308   4.316   3.387 -1.0438  1.7420 -1.2760
31360SOL    HW299019   1.374   4.430   3.461  1.7516 -0.2841 -0.4716
31361SOL     OW99020  10.779   5.916   9.140 -0.7110  0.4159  0.3067
31361SOL    HW199021  10.831   5.872   9.208  0.8739  0.6165 -0.7159
31361SOL    HW299022  10.741   5.992   9.185 -0.5441 -0.0144  1.2095
31362SOL     OW99023  10.817   3.581   6.882  0.3372  0.0092 -0.2559
31362SOL    HW199024  10.826   3.668   6.920 -1.7382  0.2387 -0.1587
31362SOL    HW299025  10.730   3.582   6.841  0.4401 -1.8840 -0.6062
31363SOL     OW99026   9.094   5.018  11.400  0.2241 -0.5165 -0.1915
31363SOL    HW199027   9.077   5.109  11.423  1.6036 -0.1879 -0.4001
31363SOL    HW299028   9.107   4.974  11.484 -3.1917 -1.1670  0.1121
31364SOL     OW99029   6.492   6.409   8.592 -0.3209 -0.1223  0.1046
31364SOL    HW199030   6.426   6.347   8.561  0.4084 -2.2433  2.4289
31364SOL    HW299031   6.573   6.382   8.548 -0.1974 -0.2190  0.3852
31365SOL     OW99032   4.966   4.780   6.243 -0.2084 -0.0027 -1.0454
31365SOL    HW199033   5.040   4.809   6.190  0.1928  0.6386 -0.1570
31365SOL    HW299034   4.998   4.699   6.285  0.2799  0.6788 -0.0716
31366SOL     OW99035   3.299   9.610  10.232 -0.1377 -0.6491  0.1575
31366SOL    HW199036   3.364   9.598  10.302 -0.5174  1.9619  1.0731
31366SOL    HW299037   3.215   9.599  10.276 -0.3583 -1.1048 -0.3791
31367SOL     OW99038   7.601   7.448   4.095 -0.2217 -0.1491 -0.7682
31367SOL    HW199039   7.574   7.409   4.011 -0.2698  1.7781 -1.7081
31367SOL    HW299040   7.518   7.468   4.139 -0.1954 -1.3110 -0.1568
31368SOL     OW99041   5.528   7.344  10.547 -0.1385 -0.0616 -0.6447
31368SOL    HW199042   5.490   7.432  10.539  0.1460  0.3283  1.6701
31368SOL    HW299043   5.472   7.300  10.612  1.3507 -0.6093  0.3198
31369SOL     OW99044   6.523   8.159   8.311  0.4931  0.5399 -1.0750
31369SOL    HW199045   6.524   8.239   8.363 -0.2191 -0.9323  1.3285
31369SOL    HW299046   6.603   8.112   8.337 -0.2941 -0.6012 -0.6175
31370SOL     OW99047   5.519   6.768   6.181  0.0112 -0.5338  0.2232
31370SOL    HW199048   5.492   6.858   6.165 -0.7842 -0.9423 -0.8464
31370SOL    HW299049   5.447   6.714   6.148  1.2167 -1.6012 -0.7890
31371SOL     OW99050   1.703   8.696   4.607 -0.4647 -0.0326  0.7887
31371SOL    HW199051   1.762   8.646   4.664  1.4650  0.1924 -0.8955
31371SOL    HW299052   1.650   8.629   4.564 -0.4015 -0.3542  1.1932
31372SOL     OW99053   5.184   1.693   1.851 -0.2926  0.4659 -0.5123
31372SOL    HW199054   5.241   1.673   1.925 -0.7711  1.3430  0.1127
31372SOL    HW299055   5.151   1.781   1.870 -2.8624 -0.4914 -0.1814
31373SOL     OW99056   8.117   9.597   7.485 -0.0912 -0.5070  0.3223
31373SOL    HW199057   8.078   9.599   7.572 -0.5398 -2.1414  0.1924
31373SOL    HW299058   8.168   9.678   7.480 -1.4139  0.4436  1.4482
31374SOL     OW99059   1.105   3.146   2.144 -0.6663  0.0994 -0.3338
31374SOL    HW199060   1.107   3.080   2.214 -0.7982 -0.8064 -1.1647
31374SOL    HW299061   1.187   3.194   2.154  1.0208 -2.3111 -1.6714
31375SOL     OW99062   1.831   1.258   7.843 -0.1166  0.1793  0.7021
31375SOL    HW199063   1.909   1.283   7.793  0.7761 -1.1774  1.3404
31375SOL    HW299064   1.866   1.218   7.923 -1.3824 -1.9497  0.2846
31376SOL     OW99065   3.523   9.663   3.694 -0.2294 -0.3697  0.4408
31376SOL    HW199066   3.513   9.706   3.779 -1.0760 -1.1107  0.7338
31376SOL    HW299067   3.586   9.717   3.647 -0.2549  0.4260  1.2929
31377SOL     OW99068   1.988   9.090   2.080 -0.4181 -0.1263 -0.1475
31377SOL    HW199069   2.075   9.088   2.119 -1.0571 -1.2671  1.3013
31377SOL    HW299070   1.940   9.156   2.130  0.3000  2.5598 -2.6881
31378SOL     OW99071   2.487   3.434   9.015 -0.1006  0.5270 -0.0975
31378SOL    HW199072   2.408   3.488   9.006  0.9865  1.8881 -2.5480
31378SOL    HW299073   2.559   3.495   9.000  1.4729 -0.7064  1.9417
31379SOL     OW99074   6.726   0.299   5.889 -0.2620  0.3133 -0.0120
31379SOL    HW199075   6.746   0.227   5.949  4.6822  1.9900  0.8389
31379SOL    HW299076   6.711   0.374   5.947 -0.5091  0.9424 -0.8785
31380SOL     OW99077   0.804   1.793   5.114  0.3562  0.0196 -0.4220
31380SOL    HW199078   0.779   1.785   5.206  0.5761  1.8952 -0.1434
31380SOL    HW299079   0.734   1.749   5.066 -0.1727 -0.3028  0.6023
31381SOL     OW99080  11.198   5.971   1.951  0.7896 -0.2853 -0.2008
31381SOL    HW199081  11.223   6.029   2.023 -0.5413  0.2101 -0.1039
31381SOL    HW299082  11.255   5.997   1.878  1.7243 -0.3738  0.4805
31382SOL     OW99083   8.063   4.392   4.621  0.1745 -0.9323  0.4478
31382SOL    HW199084   8.149   4.433   4.607  0.2598 -1.3481 -0.2721
31382SOL    HW299085   8.027   4.439   4.696 -0.3653  1.5317 -1.2219
31383SOL     OW99086   1.452   7.018   9.950 -0.7477  0.2215  0.0560
31383SOL    HW199087   1.392   7.017   9.876  0.1679  0.8344 -0.7192
31383SOL    HW299088   1.412   7.079  10.012 -0.7414  0.9545 -0.6388
31384SOL     OW99089   1.908   7.176   4.725  0.0111  0.0960 -0.0685
31384SOL    HW199090   1.881   7.092   4.763 -1.3822 -0.4255 -2.0512
31384SOL    HW299091   1.866   7.242   4.781 -0.0002 -0.5642  0.7167
31385SOL     OW99092   7.268   7.657   8.631  0.2373 -0.1159 -0.6344
31385SOL    HW199093   7.260   7.640   8.725 -0.6968  0.2484 -0.6347
31385SOL    HW299094   7.277   7.752   8.624  0.2437 -0.1352 -0.9181
31386SOL     OW99095   1.265   1.249   9.805 -0.2081 -0.0707  0.1769
31386SOL    HW199096   1.301   1.229   9.892 -3.1764 -2.4743  1.0321
31386SOL    HW299097   1.341   1.251   9.748  1.7163  0.0975  2.5713
31387SOL     OW99098   7.598   6.755   8.915 -0.3605  0.2015  0.0708
31387SOL    HW199099   7.590   6.749   8.820 -1.5923  0.0461  0.1724
31387SOL    HW299100   7.510   6.779   8.945 -0.7775 -2.6494  1.4174
31388SOL     OW99101   6.246   7.159   0.392 -0.2156  0.2805  0.0144
31388SOL    HW199102   6.325   7.151   0.339 -0.6548  1.3755 -0.8411
31388SOL    HW299103   6.178   7.117   0.340 -0.3977  0.2546  0.2735
31389SOL     OW99104   7.598  10.377   9.693  0.1010 -0.5197  0.4100
31389SOL    HW199105   7.526  10.440   9.696  0.0411 -0.5916  0.5179
31389SOL    HW299106   7.668  10.422   9.646  0.1167 -0.3108  0.6299
31390SOL     OW99107   7.578   6.208   9.231 -0.0280 -0.1218 -0.0350
31390SOL    HW199108   7.611   6.119   9.216 -0.2089 -0.6000  2.0438
31390SOL    HW299109   7.509   6.219   9.166  1.0037 -0.9181 -1.3164
31391SOL     OW99110   6.502   3.435   1.436  0.0741 -0.1921 -0.8690
31391SOL    HW199111   6.553   3.391   1.504  1.2199  1.4796 -0.6114
31391SOL    HW299112   6.446   3.496   1.483  1.5744  1.6891 -1.4189
31392SOL     OW99113   4.018   9.692   4.326 -0.2712  0.0384  0.0559
31392SOL    HW199114   3.960   9.710   4.400  0.8970  1.1772  0.7292
31392SOL    HW299115   3.977   9.618   4.281 -3.1660  1.7974 -0.4637
31393SOL     OW99116   8.989   2.425   9.062  0.3187 -0.3686 -0.4512
31393SOL    HW199117   9.056   2.479   9.103 -0.5823  0.7818 -0.4395
31393SOL    HW299118   8.906   2.454   9.102 -0.1710 -1.9633 -0.2413
31394SOL     OW99119   5.228   9.816   1.642  0.7175 -0.1330  0.1283
31394SOL    HW199120   5.295   9.759   1.678  0.6290 -0.1781  0.2209
31394SOL    HW299121   5.152   9.759   1.628  0.0719  0.2741  1.7512
31395SOL     OW99122  10.917   8.075   0.556  0.0679 -0.6426  0.0009
31395SOL    HW199123  10.875   8.118   0.481  1.5025 -1.1758 -1.1538
31395SOL    HW299124  10.847   8.022   0.595 -0.7159 -0.3594 -0.9736
31396SOL     OW99125   5.513   2.958   8.493  0.0635  0.2933  0.2543
31396SOL    HW199126   5.521   3.010   8.413  0.8328  0.5519  0.4915
31396SOL    HW299127   5.554   3.012   8.561  0.3018 -0.3479  0.6303
31397SOL     OW99128   2.781   6.024   5.077 -0.4131 -0.2425  0.2445
31397SOL    HW199129   2.819   6.107   5.105 -1.1897  0.8390 -1.6803
31397SOL    HW299130   2.705   6.012   5.135 -0.3053  0.3886  0.5251
31398SOL     OW99131   8.898   5.663  10.269  0.1283 -0.0900  0.7200
31398SOL    HW199132   8.953   5.740  10.255 -0.6795  0.6067  1.2276
31398SOL    HW299133   8.832   5.693  10.332 -1.6721 -0.4511 -0.8791
31399SOL     OW99134   6.092  10.340   6.642  0.1985  0.8004 -0.1296
31399SOL    HW199135   6.042  10.270   6.599  1.1526  0.1444 -0.1864
31399SOL    HW299136   6.089  10.318   6.735 -1.0743  1.7180  0.0826
31400SOL     OW99137   9.238   8.587   3.030 -0.2521  0.4278  1.0653
31400SOL    HW199138   9.175   8.571   3.101 -0.2420 -1.4805  0.6954
31400SOL    HW299139   9.184   8.621   2.959 -0.6798 -0.0556  1.1499
31401SOL     OW99140   7.818   7.443   0.012 -0.4183  0.5635  0.3658
31401SOL    HW199141   7.741   7.431   0.066 -0.4177  1.7325  0.6361
31401SOL    HW299142   7.784   7.447  -0.078 -0.3823 -1.7880  0.1735
31402SOL     OW99143   7.786  10.216   0.698 -0.5011  0.3926  0.1210
31402SOL    HW199144   7.712  10.159   0.719  0.5055 -1.4072 -0.9722
31402SOL    HW299145   7.758  10.263   0.619 -1.0365  0.8939  0.5919
31403SOL     OW99146   6.438   2.406   6.913 -0.3899 -0.1071 -0.4503
31403SOL    HW199147   6.469   2.457   6.838 -0.8850 -1.3639 -1.5799
31403SOL    HW299148   6.513   2.351   6.937 -0.3813 -0.0527 -0.3553
31404SOL     OW99149   5.866   2.494   4.093  0.2552  0.1622  0.0251
31404SOL    HW199150   5.884   2.554   4.021 -0.6596 -0.3164 -0.6213
31404SOL    HW299151   5.794   2.534   4.141 -0.7367 -0.6625 -0.7357
31405SOL     OW99152   3.937   4.240   4.946 -0.7439  0.5400 -0.2133
31405SOL    HW199153   3.972   4.172   4.889 -2.5358  1.1852 -2.2371
31405SOL    HW299154   3.873   4.194   5.000  0.3401  0.0803  0.7172
31406SOL     OW99155   0.863   4.279   1.854 -0.4256 -0.2944 -0.0039
31406SOL    HW199156   0.905   4.362   1.831  2.1437 -1.6690 -0.6994
31406SOL    HW299157   0.824   4.249   1.772 -2.5047  0.7515  0.5346
31407SOL     OW99158  10.170   2.183   8.494  0.0040 -0.3170  0.1279
31407SOL    HW199159  10.238   2.157   8.556  1.0020  2.3576  0.2908
31407SOL    HW299160  10.198   2.148   8.410  2.2561  1.6248 -0.0254
31408SOL     OW99161   3.668   5.123  10.839 -0.4274 -0.2440  0.0227
31408SOL    HW199162   3.683   5.051  10.900  0.8728 -1.0231 -1.1668
31408SOL    HW299163   3.580   5.107  10.804 -0.7547 -0.3783  0.8713
31409SOL     OW99164   2.463   3.971   8.215  0.1004 -0.2031  0.0446
31409SOL    HW199165   2.422   4.022   8.145 -1.7619 -1.1194  0.4080
31409SOL    HW299166   2.477   3.884   8.176  0.6072 -0.2495  0.3150
31410SOL     OW99167   1.421   0.165   8.807  0.3653  0.0360 -0.1149
31410SOL    HW199168   1.376   0.157   8.892  1.4887  0.2942  0.5268
31410SOL    HW299169   1.469   0.248   8.813  2.0910 -0.9110 -0.1792
31411SOL     OW99170   3.093   0.779   3.033 -0.1677  0.2757 -0.2651
31411SOL    HW199171   3.000   0.798   3.017 -1.0056 -1.9236  1.2966
31411SOL    HW299172   3.098   0.770   3.128  1.6656  0.3333 -0.3364
31412SOL     OW99173   4.694  10.431   3.730 -0.2008  0.1515 -0.0445
31412SOL    HW199174   4.621  10.458   3.786 -2.3709 -3.4080 -0.8072
31412SOL    HW299175   4.766  10.416   3.790 -1.1703  0.4377  1.2296
31413SOL     OW99176   5.543   4.995   9.475 -0.2552 -0.6027  0.3314
31413SOL    HW199177   5.520   5.010   9.567  0.4580  0.9733  0.2868
31413SOL    HW299178   5.549   5.083   9.437  0.8889 -1.1662 -0.8720
31414SOL     OW99179   2.722   2.968   4.659 -0.4245  0.1808  0.1180
31414SOL    HW199180   2.677   2.996   4.738  1.4633 -0.5099  1.5241
31414SOL    HW299181   2.727   2.873   4.666  0.3667  0.1629 -0.4830
31415SOL     OW99182   3.056   4.093   2.669  0.0103 -0.0286  0.3925
31415SOL    HW199183   3.071   4.000   2.686 -1.7008 -0.4817 -0.4325
31415SOL    HW299184   2.964   4.099   2.647  0.2330  1.7866 -0.1787
31416SOL     OW99185   5.751   9.327   1.315  0.0381 -0.1961  0.3088
31416SOL    HW199186   5.727   9.235   1.306 -0.5747 -0.3629  2.7544
31416SOL    HW299187   5.845   9.326   1.331  0.1129 -0.3535 -0.1356
31417SOL     OW99188   6.565   6.882   3.998  0.4152 -0.1144 -0.4618
31417SOL    HW199189   6.604   6.967   3.977 -0.4435 -0.0495 -1.9091
31417SOL    HW299190   6.573   6.876   4.093 -0.5790  2.1458 -0.1457
31418SOL     OW99191   2.328   4.886   0.402 -0.1832  0.2087  0.6460
31418SOL    HW199192   2.257   4.903   0.340  2.5788  4.0158 -1.9367
31418SOL    HW299193   2.360   4.799   0.379 -0.9906  0.4189 -1.4809
31419SOL     OW99194   1.825   6.491  11.113 -0.5836 -0.4762  0.1828
31419SOL    HW199195   1.763   6.418  11.115  0.6719 -1.5464  1.5619
31419SOL    HW299196   1.895   6.462  11.054 -0.2911 -0.2166  0.3976
31420SOL     OW99197   7.231   3.199   2.050 -0.2037 -0.1056 -0.2080
31420SOL    HW199198   7.326   3.194   2.039 -0.3650 -0.8376 -1.4066
31420SOL    HW299199   7.217   3.171   2.141  0.7837  0.9774  0.3038
31421SOL     OW99200   4.911  10.725  10.909 -0.0346  0.2138  0.1992
31421SOL    HW199201   4.962  10.798  10.875 -1.2967  0.9252 -0.2601
31421SOL    HW299202   4.876  10.682  10.831 -0.3213 -0.1066  0.5025
31422SOL     OW99203  10.684   0.468  10.297 -0.3297  0.2500  0.5638
31422SOL    HW199204  10.625   0.430  10.232 -0.4799 -0.6525  1.2100
31422SOL    HW299205  10.706   0.395  10.356 -0.5112  1.1304  1.7619
31423SOL     OW99206   1.174   4.929   7.611 -0.8051  0.6734 -0.3944
31423SOL    HW199207   1.085   4.945   7.582 -0.7869  2.1788  0.2858
31423SOL    HW299208   1.217   5.015   7.606  0.8332 -0.1476 -1.4126
31424SOL     OW99209   6.458   3.301   9.032  0.1007  0.1063  0.1654
31424SOL    HW199210   6.490   3.248   8.959  0.6574  1.2951 -0.4793
31424SOL    HW299211   6.472   3.392   9.004  2.0731  0.6078  2.4995
31425SOL     OW99212   1.544   5.720   8.400 -0.0363 -0.7637 -0.2676
31425SOL    HW199213   1.600   5.795   8.420 -0.7884 -0.6036  1.3747
31425SOL    HW299214   1.604   5.653   8.367  0.9577 -0.2046  0.3688
31426SOL     OW99215   0.126   5.081   5.623  0.4622  0.3238 -0.0938
31426SOL    HW199216   0.177   5.041   5.693  1.0450  0.2789 -0.5357
31426SOL    HW299217   0.097   5.007   5.569 -0.8010  0.2659  0.6104
31427SOL     OW99218   3.067   4.584   0.560 -0.2073  0.0343  0.3574
31427SOL    HW199219   3.000   4.644   0.593  0.1799  0.4916  0.3222
31427SOL    HW299220   3.038   4.562   0.472  0.7630  1.9485 -0.5172
31428SOL     OW99221   0.877   1.669   1.695 -0.1196  0.3221  0.4137
31428SOL    HW199222   0.881   1.609   1.621 -0.1882 -1.0242  1.4509
31428SOL    HW299223   0.814   1.629   1.755  0.3780  1.0499  1.4600
31429SOL     OW99224   6.179   3.673   7.728 -0.0066  0.0968 -0.3918
31429SOL    HW199225   6.196   3.751   7.676  0.3666  0.3162  0.0544
31429SOL    HW299226   6.084   3.666   7.730 -0.1324  1.5684  1.0437
31430SOL     OW99227   3.272   1.309   1.013 -0.5557  0.6732 -0.1839
31430SOL    HW199228   3.311   1.314   1.100  0.7196 -0.5455 -0.6332
31430SOL    HW299229   3.177   1.303   1.029 -0.3528  0.6542  1.1021
31431SOL     OW99230   9.227   3.143   3.457  0.1061  0.3913 -0.3949
31431SOL    HW199231   9.250   3.180   3.542  0.1210 -0.1991 -0.1432
31431SOL    HW299232   9.307   3.152   3.405  0.1666  0.5401 -0.2774
31432SOL     OW99233   2.826   6.139   4.247 -0.4955  0.1963 -0.0175
31432SOL    HW199234   2.796   6.060   4.292 -1.1835 -0.1042 -0.9586
31432SOL    HW299235   2.918   6.123   4.229 -0.9474 -1.0550 -1.4637
31433SOL     OW99236   2.567   2.203   6.379 -0.1489 -0.3213  0.2752
31433SOL    HW199237   2.487   2.255   6.381  1.3957  2.1736  0.6515
31433SOL    HW299238   2.638   2.266   6.387  1.9342 -2.3490 -0.8168
31434SOL     OW99239   0.005   2.475   1.344 -0.2696  0.4631 -0.2364
31434SOL    HW199240   0.051   2.420   1.406  0.6901  1.8562  0.3296
31434SOL    HW299241   0.028   2.440   1.258 -0.2026 -0.3948  0.1238
31435SOL     OW99242   9.013   7.108   8.325  0.2718  0.3602 -0.2674
31435SOL    HW199243   9.014   7.154   8.409 -2.1294  1.0174 -0.5393
31435SOL    HW299244   9.071   7.160   8.269  0.6865  0.7809  0.5319
31436SOL     OW99245   2.503   4.798   0.112 -0.5848 -0.1360  0.5033
31436SOL    HW199246   2.507   4.775   0.019  1.5648 -0.4682  0.6403
31436SOL    HW299247   2.450   4.728   0.151 -0.1502 -0.8953 -0.2317
31437SOL     OW99248   1.729   9.520   8.507  0.1641  0.0505  0.3709
31437SOL    HW199249   1.758   9.609   8.527  0.7657  0.3666 -1.6721
31437SOL    HW299250   1.807   9.476   8.472 -0.8176 -0.2994 -1.5093
31438SOL     OW99251   3.595  10.618  11.184 -0.5402 -0.0881 -0.0203
31438SOL    HW199252   3.559  10.608  11.272  0.7586  0.7746  0.6546
31438SOL    HW299253   3.625  10.709  11.182 -0.4771 -0.1246 -1.3383
31439SOL     OW99254   7.761   7.352   3.677 -0.4538 -0.2674  0.0404
31439SOL    HW199255   7.805   7.386   3.600 -0.8104 -3.0940 -1.5741
31439SOL    HW299256   7.831   7.326   3.736 -0.0087 -1.2430 -0.8784
31440SOL     OW99257   2.169   5.474   9.012  0.3383  0.0402  0.2079
31440SOL    HW199258   2.110   5.431   9.074 -0.5497 -1.4711 -1.5951
31440SOL    HW299259   2.216   5.402   8.971  0.1970  0.9224 -1.5667
31441SOL     OW99260   5.851  10.804   9.482  0.3648 -0.1402 -0.0320
31441SOL    HW199261   5.897  10.821   9.564 -0.1302  2.6421 -0.2561
31441SOL    HW299262   5.915  10.757   9.428  1.6346  0.3893  0.9597
31442SOL     OW99263   6.330   9.658   0.978 -0.5736  0.6513 -0.1179
31442SOL    HW199264   6.301   9.661   0.887 -4.7894  2.5340  1.0744
31442SOL    HW299265   6.376   9.741   0.992 -1.1267  0.9713 -0.1918
31443SOL     OW99266   5.371   7.001   7.794 -0.1157 -0.1377  0.4116
31443SOL    HW199267   5.354   6.963   7.708 -1.5120 -1.4996  1.2184
31443SOL    HW299268   5.431   6.940   7.836  1.1850  0.9279  0.1632
31444SOL     OW99269   7.037  10.743   0.253  0.6848  0.0589  0.2861
31444SOL    HW199270   7.116  10.715   0.206  0.3335  0.7010 -0.7221
31444SOL    HW299271   6.965  10.698   0.208  0.1871  1.8773 -0.8790
31445SOL     OW99272   3.405   6.031   6.496  0.3030 -0.2395  0.7243
31445SOL    HW199273   3.407   6.113   6.546  1.5969 -0.7177  1.5353
31445SOL    HW299274   3.433   5.964   6.559  3.4134 -0.6841 -0.9346
31446SOL     OW99275   6.797   0.261  11.346 -0.6166 -0.1762 -0.2660
31446SOL    HW199276   6.782   0.173  11.380  1.4617  0.5608  3.0573
31446SOL    HW299277   6.724   0.313  11.380 -1.1059 -0.3453 -1.0510
31447SOL     OW99278   3.497   9.455   6.387 -0.1696  0.0410 -0.0019
31447SOL    HW199279   3.499   9.396   6.462  1.3399 -0.3299 -0.3021
31447SOL    HW299280   3.508   9.399   6.311  1.2622  0.6640 -0.2928
31448SOL     OW99281   1.023   0.899   9.912 -0.3168 -0.0710 -0.1048
31448SOL    HW199282   0.954   0.912   9.847 -0.3931 -2.3311 -0.5687
31448SOL    HW299283   1.099   0.870   9.862  0.3901  0.5300  0.5900
31449SOL     OW99284  11.554   6.329   7.516  0.1032 -0.0477  0.1613
31449SOL    HW199285  11.599   6.306   7.435  1.3226  0.2326  0.7344
31449SOL    HW299286  11.618   6.311   7.585  0.5265  3.2441  0.8044
31450SOL     OW99287   2.572   7.726   6.658 -0.1980 -0.3111 -0.7585
31450SOL    HW199288   2.512   7.735   6.584 -2.4040  0.5226  1.0350
31450SOL    HW299289   2.656   7.760   6.625 -1.4653  1.3826 -2.4388
31451SOL     OW99290   1.374  10.318  10.193 -0.2086 -0.0537 -0.1590
31451SOL    HW199291   1.435  10.312  10.267  0.5859 -3.3395 -0.9325
31451SOL    HW299292   1.352  10.228  10.172 -1.3692  0.8017 -3.1915
31452SOL     OW99293   1.994   3.329   7.165 -0.1310 -0.2376  0.0476
31452SOL    HW199294   2.046   3.322   7.085  0.9610  0.4736  0.6777
31452SOL    HW299295   1.958   3.242   7.178  2.7633 -1.4270  0.8155
31453SOL     OW99296   3.014   0.368   9.639  0.1388 -0.1336  0.3146
31453SOL    HW199297   3.105   0.343   9.654 -0.0839 -0.7061  0.7427
31453SOL    HW299298   3.019   0.456   9.601  0.7927  0.8313  2.4920
31454SOL     OW99299   4.655   1.696  11.225 -0.1992 -0.1291 -0.5238
31454SOL    HW199300   4.625   1.692  11.134  1.4317  2.9907 -1.3568
31454SOL    HW299301   4.734   1.643  11.228 -1.7504 -2.5574 -0.1104
31455SOL     OW99302   9.957   4.780   1.075 -0.1424 -0.1659  0.1517
31455SOL    HW199303   9.955   4.848   1.008  1.1184  0.9582  1.2079
31455SOL    HW299304   9.898   4.712   1.041  0.2849  0.4467 -1.9779
31456SOL     OW99305  11.256   9.611   5.025 -0.3025  0.2882 -0.0934
31456SOL    HW199306  11.212   9.688   4.988 -1.0595  0.8234  1.7753
31456SOL    HW299307  11.193   9.578   5.090  0.4387 -1.3202 -0.1721
31457SOL     OW99308   3.000   3.637   7.706 -0.2127 -0.4133  0.4850
31457SOL    HW199309   2.966   3.550   7.683 -0.2134 -0.8166  1.9085
31457SOL    HW299310   2.978   3.648   7.799 -0.3574  1.1899  0.2929
31458SOL     OW99311   1.350   2.292   7.314 -0.3248  0.0202 -0.0744
31458SOL    HW199312   1.276   2.346   7.284  0.0052  0.3182 -0.3522
31458SOL    HW299313   1.360   2.225   7.247  0.1200  0.4148 -0.4101
31459SOL     OW99314   4.785   6.830   4.940 -0.5376 -0.7644 -0.0074
31459SOL    HW199315   4.781   6.748   4.989  0.1244 -0.0490  1.3118
31459SOL    HW299316   4.820   6.893   5.003  1.1201  0.0266 -1.6231
31460SOL     OW99317   1.131   1.627   2.841 -0.3630  0.0812 -1.1275
31460SOL    HW199318   1.170   1.548   2.879 -1.3869 -0.0696 -0.3680
31460SOL    HW299319   1.202   1.691   2.842 -0.3834  0.1318  1.2068
31461SOL     OW99320   6.534   2.905  10.674 -0.3876 -0.3202  0.3655
31461SOL    HW199321   6.598   2.836  10.662 -1.3319 -1.0321 -0.7800
31461SOL    HW299322   6.586   2.984  10.690  0.7552 -0.9571 -0.1198
31462SOL     OW99323   4.616   2.670   5.301 -0.4451  0.5105  0.7955
31462SOL    HW199324   4.609   2.589   5.250 -2.9856  0.4001  1.1856
31462SOL    HW299325   4.698   2.660   5.350 -1.9007 -3.1269  2.8773
31463SOL     OW99326  10.593   5.832   2.146 -0.1202 -0.1932 -0.3953
31463SOL    HW199327  10.549   5.912   2.118  0.2337  0.0091 -0.3669
31463SOL    HW299328  10.621   5.790   2.065 -0.9776 -0.6771 -0.4571
31464SOL     OW99329  11.040   5.558   8.833 -0.3851 -0.3935 -0.2159
31464SOL    HW199330  11.099   5.611   8.887 -0.0158  0.3958 -1.3462
31464SOL    HW299331  10.968   5.616   8.811  0.5496  0.0686 -2.3590
31465SOL     OW99332  10.442   9.527   0.213 -0.2005  0.0486  0.2558
31465SOL    HW199333  10.378   9.459   0.193  0.3591 -0.7922  1.2252
31465SOL    HW299334  10.395   9.590   0.268  0.5246 -2.1449  3.6198
31466SOL     OW99335   3.798   1.467   5.880 -0.3484  0.0446 -0.2815
31466SOL    HW199336   3.851   1.546   5.871 -1.8416  1.1045 -0.1837
31466SOL    HW299337   3.806   1.444   5.973 -0.5159  0.5396 -0.1408
31467SOL     OW99338   1.983   5.468   0.192  0.0046 -0.9619 -0.2411
31467SOL    HW199339   1.978   5.556   0.229 -0.2403  0.4047 -3.1976
31467SOL    HW299340   1.969   5.410   0.266  2.5673  1.3441  2.3501
31468SOL     OW99341   1.251   4.928  11.069 -0.3067 -0.9950 -0.1047
31468SOL    HW199342   1.193   4.991  11.112  1.2019  1.7746 -1.8661
31468SOL    HW299343   1.329   4.926  11.124  0.5005  0.3937 -1.1485
31469SOL     OW99344   2.056   8.949   3.814 -0.3918  0.3112 -0.7742
31469SOL    HW199345   2.107   8.929   3.736 -1.6227 -0.1340 -1.4855
31469SOL    HW299346   1.996   9.019   3.786  0.9417  2.0636  0.5116
31470SOL     OW99347   5.406   9.458   6.606  0.9157 -0.3469  0.0467
31470SOL    HW199348   5.430   9.522   6.539  3.1086 -1.5337 -0.3802
31470SOL    HW299349   5.371   9.511   6.678 -0.9721  0.9948 -1.7424
31471SOL     OW99350   5.499   8.842   9.604 -0.2962 -0.3252 -0.1011
31471SOL    HW199351   5.419   8.868   9.648  0.2123  1.5164 -0.2074
31471SOL    HW299352   5.554   8.806   9.674 -0.1768  0.9277  0.4703
31472SOL     OW99353   7.969   9.704  10.981  0.5414 -0.1485 -0.4749
31472SOL    HW199354   7.892   9.651  10.960  0.1233 -0.0934  0.7836
31472SOL    HW299355   8.042   9.660  10.938 -0.0456 -0.8043 -0.8142
31473SOL     OW99356   5.121   1.417  10.799  0.3323 -0.2135  0.2445
31473SOL    HW199357   5.050   1.480  10.810  0.5515  0.1656 -0.4168
31473SOL    HW299358   5.181   1.434  10.871  0.4012  0.3551  0.0578
31474SOL     OW99359   5.307   5.295  11.608  0.0356 -0.0166  0.1456
31474SOL    HW199360   5.282   5.383  11.636  1.3660  0.3566  0.1873
31474SOL    HW299361   5.242   5.237  11.649 -1.3678  0.9929 -0.5655
31475SOL     OW99362   9.834   3.236   4.717 -0.0079 -0.6820 -0.1383
31475SOL    HW199363   9.794   3.172   4.658  1.3379 -1.9836  0.2942
31475SOL    HW299364   9.840   3.317   4.665 -2.5313 -0.6040 -0.4089
31476SOL     OW99365   0.232   6.725   5.563 -0.0725  0.6806 -0.1130
31476SOL    HW199366   0.213   6.720   5.656  0.8741  0.1604  0.0669
31476SOL    HW299367   0.147   6.711   5.520 -0.2771 -0.6397  0.6524
31477SOL     OW99368   7.738   0.351  10.338 -0.0040  0.1306 -0.1621
31477SOL    HW199369   7.743   0.398  10.255 -1.3261 -0.5045 -0.6249
31477SOL    HW299370   7.770   0.263  10.318  0.2640  0.1526  0.1552
31478SOL     OW99371   5.260   2.419  10.981  0.4029  0.2720 -0.5707
31478SOL    HW199372   5.251   2.492  11.042  0.2423  0.3517 -0.6895
31478SOL    HW299373   5.215   2.346  11.022  1.1122  0.0563 -0.1528
31479SOL     OW99374   9.226   7.291   0.189  0.4111 -0.5271 -0.0699
31479SOL    HW199375   9.252   7.239   0.113  0.4623 -1.3185  0.4750
31479SOL    HW299376   9.167   7.358   0.153 -1.0425 -2.0035 -0.5967
31480SOL     OW99377   2.235  11.051  11.442 -0.1853  0.4215 -0.1123
31480SOL    HW199378   2.297  10.995  11.395 -1.1670 -0.4504 -0.4288
31480SOL    HW299379   2.205  10.997  11.515 -1.4273  0.3584 -0.6320
31481SOL     OW99380  11.078  10.285  11.141 -0.0351 -0.6243  0.0882
31481SOL    HW199381  11.044  10.205  11.181 -1.2433  0.3517  1.1155
31481SOL    HW299382  11.084  10.347  11.214  1.3487  0.0811 -0.5956
31482SOL     OW99383  11.367   5.153   2.031 -0.1899  0.0169  0.3368
31482SOL    HW199384  11.403   5.066   2.009 -1.5369 -0.2154 -1.1164
31482SOL    HW299385  11.396   5.168   2.121  1.2164 -1.3322  0.1703
31483SOL     OW99386   1.544  10.251   2.616 -0.2543 -0.0132 -0.1513
31483SOL    HW199387   1.499  10.331   2.642  1.4922  1.0145 -0.1497
31483SOL    HW299388   1.474  10.187   2.606 -1.9319  1.9509 -1.9532
31484SOL     OW99389   2.380   6.353   3.439  0.0887  1.1399  0.1351
31484SOL    HW199390   2.294   6.320   3.411  0.5029  0.2712 -0.1356
31484SOL    HW299391   2.399   6.424   3.378 -0.7239  1.7693  0.5937
31485SOL     OW99392   6.600   8.117   5.429  0.1427 -0.3007  0.0233
31485SOL    HW199393   6.620   8.179   5.499 -1.3753  0.3081 -0.0638
31485SOL    HW299394   6.622   8.032   5.466  0.9628  0.1465  0.6173
31486SOL     OW99395  10.968   9.717   5.551 -0.1679 -0.3040 -0.0716
31486SOL    HW199396  10.978   9.811   5.564  2.3973 -0.6149  0.8940
31486SOL    HW299397  10.893   9.693   5.605 -0.3276  1.0574  0.3448
31487SOL     OW99398  11.667   5.743   3.328  0.3536  0.3818  0.5719
31487SOL    HW199399  11.599   5.739   3.260 -0.1942  3.1016  0.8286
31487SOL    HW299400  11.749   5.732   3.280 -0.0653  1.4188 -0.4540
31488SOL     OW99401   7.204   8.644   6.115 -0.0121 -0.4332  0.0532
31488SOL    HW199402   7.179   8.680   6.030 -0.7584 -0.6974  0.1543
31488SOL    HW299403   7.147   8.689   6.177  0.4094 -0.3721  0.3980
31489SOL     OW99404   9.233   2.037   3.199 -0.2186 -0.1788  0.1096
31489SOL    HW199405   9.318   2.054   3.158  1.3271  2.5655  3.8947
31489SOL    HW299406   9.169   2.063   3.133  1.7760 -1.5991 -2.6099
31490SOL     OW99407   7.597   7.171   2.164  0.2593  0.8353  0.3644
31490SOL    HW199408   7.595   7.201   2.255  0.3155 -0.1751  0.7090
31490SOL    HW299409   7.626   7.247   2.115 -1.0750  1.8143  1.0223
31491SOL     OW99410   8.023   3.069   4.719 -0.5793 -0.7539 -0.3517
31491SOL    HW199411   8.098   3.035   4.671  0.5496  2.7115 -1.3206
31491SOL    HW299412   7.947   3.035   4.672  0.4137 -1.9986 -1.1191
31492SOL     OW99413   8.925   7.450   0.930  0.2389 -0.1898  0.1913
31492SOL    HW199414   8.978   7.396   0.871 -1.9281 -1.4365 -0.7695
31492SOL    HW299415   8.841   7.403   0.936 -1.1600  2.1808  0.7194
31493SOL     OW99416   3.918   7.313   7.422 -0.1520 -0.2683  0.1553
31493SOL    HW199417   3.869   7.252   7.368 -1.4166 -0.0061  0.9557
31493SOL    HW299418   3.863   7.392   7.425  0.5061  0.1803  0.7561
31494SOL     OW99419   5.500   5.398   7.199  0.0557  0.2978 -0.2567
31494SOL    HW199420   5.436   5.340   7.158  1.1620 -0.6882 -0.6393
31494SOL    HW299421   5.554   5.430   7.127  0.3470  0.6822  0.1208
31495SOL     OW99422   7.334   1.316   2.865 -0.4505  0.5402  0.4631
31495SOL    HW199423   7.245   1.282   2.857 -0.2086 -0.0085  0.0041
31495SOL    HW299424   7.364   1.284   2.951 -0.5099  0.2787  0.3869
31496SOL     OW99425   6.806   2.670   1.623  0.4143  0.5749 -0.1039
31496SOL    HW199426   6.805   2.742   1.685  2.5810 -0.8938  1.8232
31496SOL    HW299427   6.725   2.622   1.639  1.1063  0.0069  1.9694
31497SOL     OW99428   5.403   6.258   2.879 -0.9487  0.1109  0.8020
31497SOL    HW199429   5.345   6.258   2.804  0.6738  1.7891 -0.5495
31497SOL    HW299430   5.447   6.343   2.876  1.4168 -0.9707  1.8494
31498SOL     OW99431  11.638   9.299   6.324  0.3613 -0.3313 -0.1849
31498SOL    HW199432  11.558   9.304   6.271  0.3437 -1.2648 -0.2782
31498SOL    HW299433  11.613   9.333   6.409  0.7419  2.5279 -1.1109
31499SOL     OW99434   3.517   4.656   7.172 -0.0590  0.7809 -0.0094
31499SOL    HW199435   3.607   4.633   7.196 -0.2556  0.3693  0.3555
31499SOL    HW299436   3.482   4.575   7.135  1.0226  1.9974 -4.2175
31500SOL     OW99437   5.638   4.767   6.318 -0.7347  0.5705 -0.7117
31500SOL    HW199438   5.593   4.828   6.377 -0.1395  0.4439 -0.1211
31500SOL    HW299439   5.615   4.680   6.352 -0.2632  0.5001 -0.5705
31501SOL     OW99440   1.226   7.840   5.976  0.0791 -0.0009  0.0000
31501SOL    HW199441   1.221   7.820   5.882  1.2573 -4.0439  0.6159
31501SOL    HW299442   1.136   7.864   6.000 -0.6993 -0.8827 -1.8007
31502SOL     OW99443   1.789   0.186   7.761 -0.0047 -0.4492 -0.0288
31502SOL    HW199444   1.737   0.266   7.774 -0.0913 -0.4393 -0.4018
31502SOL    HW299445   1.727   0.125   7.720  0.8921  0.4018 -2.9420
31503SOL     OW99446   0.398   8.907   5.640  0.1466  0.0671 -0.1329
31503SOL    HW199447   0.414   8.985   5.587 -0.4130  1.8155  2.1073
31503SOL    HW299448   0.471   8.905   5.702  0.0948 -1.1651 -0.0902
31504SOL     OW99449   2.846   3.629   8.046 -0.0818 -0.4636 -0.2532
31504SOL    HW199450   2.936   3.598   8.044  0.7782  1.8453 -1.7932
31504SOL    HW299451   2.840   3.692   7.974 -1.8839  2.1666  1.9510
31505SOL     OW99452   3.850   1.787  10.187 -0.1099  0.6864  0.6707
31505SOL    HW199453   3.783   1.806  10.253 -0.5400 -0.9086  0.7442
31505SOL    HW299454   3.912   1.730  10.232  0.2812  0.6259  0.0675
31506SOL     OW99455   1.762   6.440   6.121 -0.0903 -0.0406 -0.0043
31506SOL    HW199456   1.855   6.459   6.113 -0.2836  0.3034 -2.2476
31506SOL    HW299457   1.733   6.491   6.196  1.2702  1.0010 -0.1426
31507SOL     OW99458   2.347   0.374   9.351  0.5707 -0.2538 -0.5453
31507SOL    HW199459   2.262   0.334   9.368 -0.3005  1.6709 -0.0788
31507SOL    HW299460   2.393   0.311   9.295 -1.1412 -1.3414 -0.7847
31508SOL     OW99461   5.229   9.608  11.395  0.4046 -0.3421 -0.2460
31508SOL    HW199462   5.171   9.683  11.385  1.3569  0.5293  0.5523
31508SOL    HW299463   5.269   9.596  11.309 -1.9859 -1.8948 -1.2495
31509SOL     OW99464   3.182   2.716   3.511 -0.1787  0.3312 -0.6913
31509SOL    HW199465   3.090   2.692   3.528 -0.3218 -0.7584 -2.6612
31509SOL    HW299466   3.225   2.704   3.596 -1.5575 -0.7190 -0.0803
31510SOL     OW99467   7.535   0.378   5.281 -0.0827 -0.2830 -0.3604
31510SOL    HW199468   7.466   0.337   5.229  1.1891 -0.2523 -2.1439
31510SOL    HW299469   7.605   0.396   5.219  1.3209  0.2182  1.2873
31511SOL     OW99470   2.963   9.709   7.901 -0.0242  0.7816  0.0598
31511SOL    HW199471   2.869   9.703   7.882 -0.4638 -0.9796  2.3293
31511SOL    HW299472   2.970   9.776   7.968 -0.2067 -1.3149  2.3150
31512SOL     OW99473   3.615   4.054   2.076  0.2073  0.6269  0.2205
31512SOL    HW199474   3.555   4.118   2.039 -0.8976  0.2595  1.3267
31512SOL    HW299475   3.702   4.085   2.050 -0.3711  1.9497 -0.2112
31513SOL     OW99476   0.756   2.924   7.234 -0.6185  0.0211  0.4309
31513SOL    HW199477   0.818   2.859   7.266  0.5384  1.1378  0.5214
31513SOL    HW299478   0.755   2.912   7.139 -2.7040 -2.1004  0.6405
31514SOL     OW99479   1.783  11.514   7.056  0.1874 -0.1388 -0.0536
31514SOL    HW199480   1.701  11.509   7.104  0.3016  2.9185  0.7162
31514SOL    HW299481   1.842  11.561   7.115  1.7094 -0.1273 -1.5002
31515SOL     OW99482   5.027   7.750  11.653  0.0411 -0.0861 -0.0215
31515SOL    HW199483   4.968   7.809  11.606 -0.4894 -0.8274 -0.2954
31515SOL    HW299484   5.046   7.680  11.591  0.5859 -0.2679  0.3399
31516SOL     OW99485   1.513   1.202   4.042 -0.1300 -0.2233  0.1163
31516SOL    HW199486   1.518   1.129   3.980  0.7527  0.9303 -1.2368
31516SOL    HW299487   1.562   1.171   4.118  0.4909 -0.9374 -0.5450
31517SOL     OW99488   8.270   4.115   3.198 -0.3602 -0.2076  0.5477
31517SOL    HW199489   8.284   4.157   3.114 -3.4689 -0.9647 -0.5022
31517SOL    HW299490   8.348   4.062   3.213  1.0227  1.3243 -0.9516
31518SOL     OW99491   3.273   4.527   1.052 -0.3059 -0.1908 -0.2304
31518SOL    HW199492   3.232   4.613   1.061 -0.4763 -0.1968 -0.8876
31518SOL    HW299493   3.284   4.516   0.958  0.3016 -0.6199 -0.1174
31519SOL     OW99494   7.589   5.859  11.232  0.3456 -0.5997  0.0650
31519SOL    HW199495   7.654   5.791  11.249 -0.0020 -0.6995  1.0406
31519SOL    HW299496   7.614   5.932  11.289  0.1859 -0.2492 -0.3034
31520SOL     OW99497   3.444   7.447   4.964  0.2282 -0.2903 -0.0454
31520SOL    HW199498   3.397   7.464   5.046 -1.1535 -0.0459 -0.8785
31520SOL    HW299499   3.523   7.500   4.971  0.5909 -0.9444  1.5109
31521SOL     OW99500   6.498   2.834   5.535 -0.1306  0.1787 -0.3809
31521SOL    HW199501   6.537   2.821   5.449  1.0663  0.8718  0.0276
31521SOL    HW299502   6.484   2.746   5.569 -2.2537 -0.1671 -1.9436
31522SOL     OW99503   2.739   9.567   6.351  0.0923  0.2063 -0.2473
31522SOL    HW199504   2.721   9.652   6.312 -3.4895 -0.0309  0.5263
31522SOL    HW299505   2.781   9.587   6.434 -1.1626  1.3090  0.1553
31523SOL     OW99506   2.297   5.321   3.098 -0.3990 -0.0771  0.3582
31523SOL    HW199507   2.282   5.386   3.167 -1.1650  0.4622 -0.3032
31523SOL    HW299508   2.369   5.267   3.132  1.4061  2.0935  0.2748
31524SOL     OW99509   3.999   1.786   6.119  0.3163  0.0862 -0.0746
31524SOL    HW199510   3.935   1.795   6.048  2.0098 -0.0787 -1.6814
31524SOL    HW299511   3.948   1.752   6.192 -1.2119 -1.3513 -1.7096
31525SOL     OW99512   2.025   6.559  10.242 -0.8704 -0.3539  0.1204
31525SOL    HW199513   2.001   6.477  10.286 -2.3158  0.6044  1.2108
31525SOL    HW299514   1.969   6.625  10.283 -0.4031  1.0294 -1.3953
31526SOL     OW99515   7.918  10.496   5.083  0.2201  0.1030  0.0706
31526SOL    HW199516   7.922  10.495   5.179 -0.7868  1.1807  0.1496
31526SOL    HW299517   7.926  10.404   5.058  1.0213 -0.1537  1.1548
31527SOL     OW99518   4.538   8.360   4.563  0.3579 -0.2427  0.3745
31527SOL    HW199519   4.456   8.407   4.547  0.6613  0.8473  1.8983
31527SOL    HW299520   4.601   8.427   4.587  1.6637 -1.1009 -0.5027
31528SOL     OW99521   7.821   9.633   3.643  0.2631 -0.6629 -0.7564
31528SOL    HW199522   7.812   9.710   3.587 -0.2134  0.4719  0.8221
31528SOL    HW299523   7.915   9.625   3.658  0.2073  0.7469  0.5468
31529SOL     OW99524   7.969  10.638   5.714 -0.7369  0.0425  0.0428
31529SOL    HW199525   8.063  10.621   5.711 -0.9993 -1.5655 -0.0311
31529SOL    HW299526   7.956  10.710   5.653  0.6736  1.6337  1.4807
31530SOL     OW99527   1.745   9.897   3.194 -0.1037  0.2137  0.7184
31530SOL    HW199528   1.824   9.847   3.215 -0.2025  0.2470  1.1776
31530SOL    HW299529   1.676   9.831   3.188  0.5611 -0.4183 -3.5526
31531SOL     OW99530   7.734   1.362   1.719  0.0894 -0.4878 -0.7762
31531SOL    HW199531   7.752   1.291   1.657  1.0999 -1.1403  0.2379
31531SOL    HW299532   7.665   1.327   1.775  0.7219 -0.7527 -0.1561
31532SOL     OW99533   6.776  10.946   9.991 -0.1702  0.3285  0.7584
31532SOL    HW199534   6.836  10.933   9.918  0.5523  0.2091  1.3503
31532SOL    HW299535   6.715  11.013   9.961  1.4656  1.9359  0.8176
31533SOL     OW99536   8.877   6.709   2.706  0.0114 -0.0004  0.0462
31533SOL    HW199537   8.958   6.746   2.740  0.5120 -0.7652 -0.2768
31533SOL    HW299538   8.900   6.619   2.681 -1.1332 -0.5138  0.7320
31534SOL     OW99539   3.722  11.181  11.451 -0.2523 -0.2935  0.7331
31534SOL    HW199540   3.648  11.218  11.500 -1.5158 -1.0212 -0.5366
31534SOL    HW299541   3.711  11.086  11.460 -0.0730 -0.4220 -0.2880
31535SOL     OW99542   7.955  10.603   6.352 -0.2308 -0.1736  0.3863
31535SOL    HW199543   7.873  10.649   6.332 -0.4321 -0.9011 -0.5852
31535SOL    HW299544   7.954  10.527   6.294  1.6905  0.4205 -0.5195
31536SOL     OW99545   9.256   0.169   0.650  0.1795  0.7037 -0.0093
31536SOL    HW199546   9.200   0.243   0.627  1.9941  2.6205  1.3521
31536SOL    HW299547   9.302   0.197   0.729  0.5170 -2.1587  0.9606
31537SOL     OW99548   8.615   1.061   9.053 -0.4235 -0.7107  0.3067
31537SOL    HW199549   8.564   0.998   9.001  1.5013 -1.4228 -0.8122
31537SOL    HW299550   8.626   1.136   8.995  1.2480 -1.2797 -0.1737
31538SOL     OW99551   2.525   0.471   4.228 -0.4129  0.8340 -0.2326
31538SOL    HW199552   2.576   0.552   4.224 -0.0813  0.6137 -0.4938
31538SOL    HW299553   2.468   0.483   4.303  1.3660  0.2971  1.2774
31539SOL     OW99554   2.161   7.922   5.161 -0.0315  0.4066  0.2588
31539SOL    HW199555   2.097   7.929   5.090 -0.2889 -0.5487  0.3803
31539SOL    HW299556   2.141   7.995   5.219 -1.2058 -0.0462  0.4529
31540SOL     OW99557   2.920   1.857   7.787 -0.2629 -0.4908  0.3024
31540SOL    HW199558   2.946   1.868   7.696  0.3088  0.5492  0.5825
31540SOL    HW299559   2.986   1.797   7.823  0.3742  0.2531  0.3974
31541SOL     OW99560   0.293   0.137   0.079 -0.2115  0.7271 -0.3755
31541SOL    HW199561   0.387   0.143   0.062 -0.5505  2.9208 -1.8238
31541SOL    HW299562   0.252   0.187   0.009 -2.4217  0.7669  0.8411
31542SOL     OW99563   3.690   3.795   9.910  0.0319  0.4211 -0.0744
31542SOL    HW199564   3.767   3.764   9.863  0.3818  2.1925 -0.7049
31542SOL    HW299565   3.618   3.742   9.875  0.9251 -1.4346  0.7010
31543SOL     OW99566  10.821   3.606   9.045 -0.0730 -0.0552  0.3317
31543SOL    HW199567  10.866   3.609   9.129  0.2033 -2.4083  0.3306
31543SOL    HW299568  10.730   3.585   9.067  0.1798 -1.5622  0.0456
31544SOL     OW99569   3.376  11.323   6.356  0.1458 -0.1725 -0.3603
31544SOL    HW199570   3.451  11.287   6.403 -0.4534 -0.8792  0.0767
31544SOL    HW299571   3.394  11.306   6.264  0.8704  0.3446 -0.3258
31545SOL     OW99572  10.933  11.327  10.120  0.1618  0.1373 -0.0874
31545SOL    HW199573  10.933  11.343  10.026  0.6989 -0.6622 -0.2366
31545SOL    HW299574  10.841  11.311  10.142  0.3262 -2.8014 -1.0758
31546SOL     OW99575   5.146   0.754  11.090 -0.3443  0.0573  0.0265
31546SOL    HW199576   5.149   0.843  11.055 -0.7886 -0.5475 -1.6002
31546SOL    HW299577   5.060   0.721  11.066 -0.5868 -0.4738  1.5247
31547SOL     OW99578   6.912   5.093   3.074 -0.2225  0.1203 -0.0676
31547SOL    HW199579   6.972   5.117   3.004  0.1955 -1.4877 -0.2861
31547SOL    HW299580   6.862   5.173   3.090  0.3668  0.8169 -1.4894
31548SOL     OW99581   4.079   7.126   8.940 -0.2433 -0.0194  0.1806
31548SOL    HW199582   4.081   7.133   9.036 -1.4007 -2.3420  0.4699
31548SOL    HW299583   4.025   7.048   8.924  1.5653 -0.8785 -2.2980
31549SOL     OW99584   7.812   3.154   1.710  0.2868 -0.4788 -0.2788
31549SOL    HW199585   7.791   3.147   1.617  1.1083  0.0423 -0.5233
31549SOL    HW299586   7.837   3.066   1.736 -2.9003 -1.3378  0.2519
31550SOL     OW99587   0.689  10.683   0.506 -0.2351 -0.0583  0.8505
31550SOL    HW199588   0.630  10.743   0.552 -1.0968 -0.9374  0.9400
31550SOL    HW299589   0.732  10.634   0.576 -0.5352 -0.4528  0.7689
31551SOL     OW99590   1.099   6.196   0.366  0.4746  0.5819 -0.2192
31551SOL    HW199591   1.047   6.132   0.416  0.8678  1.1270  0.9221
31551SOL    HW299592   1.059   6.197   0.279 -1.2906  0.8144  0.5525
31552SOL     OW99593   6.354   0.730   6.314 -0.3338  0.2316  0.0629
31552SOL    HW199594   6.412   0.740   6.389 -0.7797  2.0088  0.2296
31552SOL    HW299595   6.275   0.779   6.339 -0.6240  0.5590 -1.4085
31553SOL     OW99596   1.174   9.165   7.879  0.1221 -0.3520 -0.0599
31553SOL    HW199597   1.206   9.248   7.844  1.6058  0.2387  2.5018
31553SOL    HW299598   1.082   9.183   7.900  0.1645  0.3423 -0.4192
31554SOL     OW99599  10.467   0.649   9.251 -0.3477 -0.1077 -0.1034
31554SOL    HW199600  10.527   0.578   9.226  0.8309  0.6521  0.4982
31554SOL    HW299601  10.482   0.717   9.186 -1.8557 -0.5677 -0.9903
31555SOL     OW99602   2.854   2.709   5.069 -0.8638 -0.0871  0.2064
31555SOL    HW199603   2.875   2.707   4.975 -0.3986 -1.2157  0.3214
31555SOL    HW299604   2.916   2.772   5.105 -0.6289 -0.1097 -0.1474
31556SOL     OW99605   6.094  11.025   7.509  0.1565 -0.5388 -0.1604
31556SOL    HW199606   5.998  11.030   7.503  0.1461 -0.8615 -0.3147
31556SOL    HW299607   6.111  10.955   7.571  0.2945  0.3350  0.8119
31557SOL     OW99608   2.838  11.195   2.961  0.2592  0.0537 -0.2114
31557SOL    HW199609   2.794  11.274   2.992  0.7865  0.2086  0.1683
31557SOL    HW299610   2.768  11.141   2.924 -1.0457 -1.4893  3.8890
31558SOL     OW99611   3.765   2.463   5.265  0.0218  0.0019 -0.1072
31558SOL    HW199612   3.683   2.487   5.308  0.3506 -0.3910  0.7524
31558SOL    HW299613   3.810   2.407   5.328  0.4930 -0.6291 -0.9754
31559SOL     OW99614  10.624   3.641   8.775 -0.1465  0.1678  0.1343
31559SOL    HW199615  10.559   3.612   8.839 -1.1593 -0.0409 -0.9536
31559SOL    HW299616  10.611   3.584   8.700  1.5142 -0.0687 -0.0088
31560SOL     OW99617   8.522   6.293   4.444  0.5052  0.5037  0.3309
31560SOL    HW199618   8.428   6.288   4.431  0.4473  1.1581  0.4932
31560SOL    HW299619   8.534   6.276   4.537  0.6167 -0.3631  0.1672
31561SOL     OW99620   2.812   6.410   8.522  0.1566  0.1357  0.4458
31561SOL    HW199621   2.811   6.430   8.428 -0.6385  0.3873  0.5019
31561SOL    HW299622   2.789   6.317   8.526 -0.3363  0.2528  0.4146
31562SOL     OW99623   2.251   9.749   2.979  0.0693  0.2117 -0.1843
31562SOL    HW199624   2.193   9.825   2.983 -0.1306  0.0118  1.0013
31562SOL    HW299625   2.200   9.678   3.019  1.8169  0.5037  2.8029
31563SOL     OW99626   5.333   4.834   7.336 -0.8561  0.3459  0.0051
31563SOL    HW199627   5.338   4.844   7.431 -2.7299  2.7687 -0.0531
31563SOL    HW299628   5.409   4.882   7.303 -0.8247  0.4644  0.2508
31564SOL     OW99629   9.840   6.090  11.406  0.3646  0.3743  0.6821
31564SOL    HW199630   9.891   6.104  11.326 -0.9579 -0.3300 -0.3380
31564SOL    HW299631   9.800   6.175  11.425  1.5109  0.8097  1.2212
31565SOL     OW99632   4.192   8.397   3.231  0.5031  0.4205  0.3061
31565SOL    HW199633   4.143   8.326   3.192 -1.5080  1.5030  0.7197
31565SOL    HW299634   4.259   8.419   3.166  0.7519 -1.3660 -0.0932
31566SOL     OW99635   8.418   6.442   2.505 -0.5291 -0.3922  0.1384
31566SOL    HW199636   8.415   6.451   2.410  0.4266 -0.4618  0.0971
31566SOL    HW299637   8.464   6.360   2.521 -2.6867 -1.5816  0.6446
31567SOL     OW99638   9.426   9.148   8.610  0.2310  0.2279 -1.1208
31567SOL    HW199639   9.375   9.198   8.546  1.6219  2.6656 -0.4670
31567SOL    HW299640   9.402   9.186   8.695  0.7162 -0.8203 -0.4960
31568SOL     OW99641  10.847   6.125   2.945  0.2234 -0.0422 -0.0392
31568SOL    HW199642  10.845   6.220   2.953  0.2765 -0.0424 -0.0226
31568SOL    HW299643  10.759   6.102   2.915 -0.3347 -0.1353  1.5691
31569SOL     OW99644   3.772   0.760   8.779 -0.3980  0.1716 -0.5093
31569SOL    HW199645   3.850   0.801   8.817  0.6534 -1.0873 -1.2449
31569SOL    HW299646   3.764   0.802   8.693  0.4286 -0.7984 -1.0857
31570SOL     OW99647   6.141   2.946   7.395 -0.7845 -0.0154 -0.1307
31570SOL    HW199648   6.143   3.030   7.348 -0.5812  0.0734  0.0356
31570SOL    HW299649   6.059   2.948   7.443 -0.3953  0.4521  0.5312
31571SOL     OW99650   3.279   3.379   5.348 -0.0478 -0.1396  0.1180
31571SOL    HW199651   3.281   3.474   5.339  1.0062 -0.1374  0.2417
31571SOL    HW299652   3.207   3.362   5.410  0.9252  0.7157  1.5543
31572SOL     OW99653   6.393   1.640   0.569  0.3202  0.1819 -0.2057
31572SOL    HW199654   6.458   1.695   0.525  0.2912 -0.5208 -1.1547
31572SOL    HW299655   6.443   1.564   0.598 -0.0632 -0.3471 -0.9085
31573SOL     OW99656   6.368   9.982   0.728  0.2874  0.3453  0.2445
31573SOL    HW199657   6.332  10.008   0.814  1.2826  1.2678  0.3950
31573SOL    HW299658   6.457   9.954   0.747  0.3451  0.0643 -0.4300
31574SOL     OW99659   0.250   2.281   3.072  0.5009 -0.0046  0.0082
31574SOL    HW199660   0.317   2.240   3.126 -0.2295 -0.7255  0.3922
31574SOL    HW299661   0.177   2.218   3.072 -0.4718  1.0890  0.2379
31575SOL     OW99662   9.077  10.612   8.199  0.2716  0.0755 -0.0795
31575SOL    HW199663   9.170  10.624   8.214 -0.0069  0.4920  1.4622
31575SOL    HW299664   9.050  10.691   8.152  0.4969  0.4612  0.4328
31576SOL     OW99665   9.415   1.018   3.391 -0.3176 -0.3878 -0.1554
31576SOL    HW199666   9.363   1.098   3.389  0.6567  0.2821 -2.3673
31576SOL    HW299667   9.354   0.949   3.367 -0.4916  0.2147 -1.5503
31577SOL     OW99668   2.398   3.291   4.420  0.0920  0.3534 -0.4308
31577SOL    HW199669   2.457   3.216   4.410  0.3953  0.2485  1.7107
31577SOL    HW299670   2.423   3.351   4.349  1.7014 -0.3963 -0.5349
31578SOL     OW99671  11.328   4.515   5.445  0.1463 -0.1592  0.2856
31578SOL    HW199672  11.271   4.485   5.515  1.6721 -0.8403  1.2880
31578SOL    HW299673  11.304   4.606   5.431 -2.0275 -0.7560 -0.2193
31579SOL     OW99674   0.608   6.033  10.666  0.5705 -0.3140 -0.0658
31579SOL    HW199675   0.566   6.009  10.584 -0.5270  0.7464  0.1593
31579SOL    HW299676   0.683   5.974  10.673  0.9405 -0.1204 -2.0365
31580SOL     OW99677   8.640  10.544   2.184 -0.3064 -0.3048  0.0533
31580SOL    HW199678   8.558  10.582   2.153  0.3808 -0.0148 -1.5058
31580SOL    HW299679   8.647  10.575   2.275 -0.4112  2.3330 -0.7365
31581SOL     OW99680   5.894   7.243   6.717  0.2224  0.4047  0.2009
31581SOL    HW199681   5.880   7.167   6.774 -0.6081  0.2247 -0.2237
31581SOL    HW299682   5.822   7.239   6.654 -0.5318  2.2151  0.8816
31582SOL     OW99683   4.157   5.354   9.582  0.1707 -0.1539  0.9214
31582SOL    HW199684   4.104   5.291   9.533  0.9603 -0.8957  1.0014
31582SOL    HW299685   4.117   5.439   9.563  0.0544 -0.5017 -0.4808
31583SOL     OW99686   4.551  11.280   3.556  0.1573  0.1132 -0.3301
31583SOL    HW199687   4.596  11.197   3.565  2.0154  1.2063  1.0531
31583SOL    HW299688   4.527  11.304   3.645 -1.8248  0.3341 -0.8720
31584SOL     OW99689   3.030   1.499   5.954  0.0164  0.1571 -0.4526
31584SOL    HW199690   3.021   1.489   5.859  0.7741 -1.4426 -0.3963
31584SOL    HW299691   2.956   1.450   5.990 -0.1963  0.6538 -0.2090
31585SOL     OW99692   4.313   2.711   7.173 -0.4759 -0.3962 -0.1670
31585SOL    HW199693   4.286   2.650   7.242  1.3653 -2.6864 -1.3202
31585SOL    HW299694   4.252   2.693   7.101  1.9404 -3.3900 -1.6760
31586SOL     OW99695   3.003  11.596   1.242 -0.2827 -0.0391 -0.1485
31586SOL    HW199696   3.003  11.500   1.233  1.5021  0.0114 -1.0737
31586SOL    HW299697   3.095  11.620   1.247 -0.5938  1.7899 -1.9669
31587SOL     OW99698   1.873   4.347  10.366 -0.2469 -0.1147 -0.2277
31587SOL    HW199699   1.779   4.360  10.355  0.0243  1.6128 -0.8375
31587SOL    HW299700   1.881   4.303  10.451 -1.6353 -1.1191 -0.5891
31588SOL     OW99701   8.292   6.828   9.909  0.1520  0.2002  0.5967
31588SOL    HW199702   8.307   6.911   9.863 -1.4592 -0.0163 -0.3945
31588SOL    HW299703   8.198   6.829   9.930  0.2893 -0.9886  1.3683
31589SOL     OW99704   5.343   1.379   4.804 -0.2448 -0.3488 -0.1528
31589SOL    HW199705   5.435   1.404   4.799  0.2321 -1.9413 -0.0716
31589SOL    HW299706   5.296   1.445   4.754  0.6213  1.9161  1.8272
31590SOL     OW99707  11.503   9.144   3.121 -0.4846 -0.0744  0.2538
31590SOL    HW199708  11.462   9.069   3.163 -0.9762  0.2832  0.4186
31590SOL    HW299709  11.597   9.132   3.137 -0.3627 -1.6889 -1.4337
31591SOL     OW99710  10.049  10.708   7.954 -0.1687  0.3622 -1.0157
31591SOL    HW199711  10.116  10.644   7.976 -0.5161 -0.0631 -1.1799
31591SOL    HW299712   9.989  10.662   7.895 -1.7728  0.0610  0.7698
31592SOL     OW99713   2.643   4.746   5.783  0.1707 -0.3107 -0.4058
31592SOL    HW199714   2.637   4.831   5.740  0.4407 -1.4869 -2.9322
31592SOL    HW299715   2.552   4.720   5.797  0.0868  0.4548  0.6061
31593SOL     OW99716   5.205   1.055   8.576 -0.4023  0.2462 -0.4245
31593SOL    HW199717   5.282   1.112   8.583 -0.7378  0.7478 -0.7284
31593SOL    HW299718   5.215   1.011   8.492  0.3662 -0.9144  0.2582
31594SOL     OW99719   0.178   8.924   0.404  0.3779 -0.1777 -0.3852
31594SOL    HW199720   0.091   8.900   0.373 -0.2618  2.1671 -0.5755
31594SOL    HW299721   0.235   8.907   0.329 -0.0617 -0.7978 -0.5878
31595SOL     OW99722   1.885   2.313   1.436 -0.4035  0.0760 -0.1138
31595SOL    HW199723   1.943   2.255   1.483 -0.9561  0.9698  1.7595
31595SOL    HW299724   1.902   2.294   1.343  2.6224  0.1132  0.3414
31596SOL     OW99725   8.202   6.849   2.570 -0.2916  0.0238  0.0088
31596SOL    HW199726   8.184   6.834   2.662 -0.1483  1.3273  0.2694
31596SOL    HW299727   8.118   6.835   2.526 -0.6885  0.7593  0.5215
31597SOL     OW99728   7.456   4.624  11.261 -0.3327 -0.3235 -0.3628
31597SOL    HW199729   7.527   4.560  11.258 -0.1158 -0.2943  2.3288
31597SOL    HW299730   7.377   4.574  11.240  0.1780 -0.8295 -1.1327
31598SOL     OW99731   3.384   7.368   8.903 -0.1470  0.2525 -0.0070
31598SOL    HW199732   3.301   7.411   8.922 -0.4675 -0.1096 -0.5577
31598SOL    HW299733   3.360   7.281   8.872  0.4010  0.3588 -0.7808
31599SOL     OW99734   9.073  10.807  11.279  0.0026 -0.1274 -0.4017
31599SOL    HW199735   9.051  10.762  11.198 -1.4469 -0.1676 -0.0154
31599SOL    HW299736   9.077  10.737  11.345 -1.3794  0.1487  0.0267
31600SOL     OW99737   0.739   1.002   4.230  0.1781  1.2030 -0.0970
31600SOL    HW199738   0.825   0.977   4.262 -0.2146  0.8286  0.7040
31600SOL    HW299739   0.698   0.920   4.203  0.2385  1.4332 -0.9230
31601SOL     OW99740   5.529   2.988   1.560 -0.4629  0.2140 -0.8255
31601SOL    HW199741   5.584   2.963   1.486 -0.0439 -1.8158  0.1078
31601SOL    HW299742   5.484   2.907   1.584 -1.4337  1.1002  0.4555
31602SOL     OW99743   5.852   1.327   1.906  0.2306 -0.3561 -0.2759
31602SOL    HW199744   5.939   1.288   1.913  0.0802 -0.4670  1.3906
31602SOL    HW299745   5.798   1.276   1.966 -0.6304  0.6358 -0.1787
31603SOL     OW99746   4.639   9.460   7.915  0.0318 -0.3823 -0.1055
31603SOL    HW199747   4.552   9.500   7.925 -0.9438 -2.1970 -0.8601
31603SOL    HW299748   4.627   9.393   7.849  1.6467 -1.7533  0.8999
31604SOL     OW99749  11.143  11.449   4.146 -0.1507 -0.1337 -0.2443
31604SOL    HW199750  11.062  11.476   4.188 -0.4749 -2.8189  1.0800
31604SOL    HW299751  11.116  11.412   4.062 -0.1877 -0.1469 -0.2262
31605SOL     OW99752   6.448   8.495   6.461 -1.1884  0.0268 -0.5855
31605SOL    HW199753   6.481   8.405   6.464 -1.6030 -0.1003  0.6718
31605SOL    HW299754   6.508   8.540   6.402 -1.3313 -1.2082 -1.7328
31606SOL     OW99755   2.401  10.347   9.996 -0.1366  0.9860 -0.1737
31606SOL    HW199756   2.379  10.254   9.999 -0.2908  0.9434 -1.6002
31606SOL    HW299757   2.319  10.390   9.970  0.3912  1.2783 -1.4454
31607SOL     OW99758   6.733   2.657  10.162 -0.1222  0.6619  0.0598
31607SOL    HW199759   6.646   2.694  10.150  0.7213  3.0797  0.7689
31607SOL    HW299760   6.782   2.724  10.209  2.0748 -0.7182 -0.0676
31608SOL     OW99761   0.097   6.523   7.201 -0.4212  0.6987  0.0654
31608SOL    HW199762   0.013   6.491   7.234 -1.1896  1.0177 -1.4653
31608SOL    HW299763   0.089   6.618   7.202 -0.1923  0.7265 -0.3459
31609SOL     OW99764   2.458   0.470   2.682 -0.4765  0.1733  0.2373
31609SOL    HW199765   2.488   0.504   2.767 -0.1870 -1.4920  0.8400
31609SOL    HW299766   2.538   0.460   2.631 -0.1538 -2.1460  1.0583
31610SOL     OW99767   7.891   5.291   1.006 -0.3918 -0.2030  0.0942
31610SOL    HW199768   7.849   5.364   1.053 -1.5692  0.0433 -1.2934
31610SOL    HW299769   7.953   5.255   1.070 -2.2047 -0.1405  2.0119
31611SOL     OW99770   2.689   3.490  10.275  0.2484 -0.6242 -0.1811
31611SOL    HW199771   2.748   3.493  10.200  0.8051 -0.1784  0.2752
31611SOL    HW299772   2.682   3.397  10.296 -1.1124 -0.9242 -1.7209
31612SOL     OW99773   3.722   6.698   3.714  0.0687 -0.6737  0.3363
31612SOL    HW199774   3.674   6.761   3.767  3.8101  2.4913  0.4153
31612SOL    HW299775   3.770   6.644   3.777  0.9757  0.0291  0.2667
31613SOL     OW99776  11.427   1.234  11.299  0.1743 -0.9810 -0.1506
31613SOL    HW199777  11.392   1.149  11.324 -0.8868 -0.4597  0.1890
31613SOL    HW299778  11.473   1.264  11.378  2.2705 -2.0557 -0.8697
31614SOL     OW99779  10.592   6.176  11.441 -0.5745  0.0096 -0.0996
31614SOL    HW199780  10.500   6.183  11.466 -0.0978  0.9351  1.5841
31614SOL    HW299781  10.639   6.172  11.524  0.9341 -0.0330 -0.9148
31615SOL     OW99782   3.870   5.799   2.197 -0.2088 -0.1400 -0.0021
31615SOL    HW199783   3.862   5.710   2.162 -1.9532 -0.6705  1.5408
31615SOL    HW299784   3.947   5.796   2.253 -1.3493 -1.3313  1.6058
31616SOL     OW99785  11.172  10.660   5.448  0.1344 -0.4296 -0.0711
31616SOL    HW199786  11.104  10.723   5.425 -0.3576 -0.3696  1.4409
31616SOL    HW299787  11.153  10.583   5.395 -1.4986 -0.6316  0.7423
31617SOL     OW99788  11.206   3.668   2.528 -0.2971  0.1628  0.6433
31617SOL    HW199789  11.248   3.739   2.480 -1.1785  0.4305  0.2544
31617SOL    HW299790  11.268   3.647   2.598  0.3629  0.7233  0.2420
31618SOL     OW99791   0.055   0.926   3.876  0.0949 -0.5025 -0.0729
31618SOL    HW199792   0.095   0.999   3.828 -1.1550  0.2677  0.0153
31618SOL    HW299793   0.085   0.938   3.967  0.0270 -0.1859 -0.0901
31619SOL     OW99794   4.910   5.178   5.697  0.0392  0.5141 -0.5904
31619SOL    HW199795   4.896   5.155   5.605 -2.7080 -2.2525  0.3151
31619SOL    HW299796   4.973   5.113   5.729  1.9233  2.2139 -0.7167
31620SOL     OW99797   7.479   7.305  11.049  0.3720  0.1188  0.4481
31620SOL    HW199798   7.502   7.219  11.016 -0.0871  0.2690 -0.2672
31620SOL    HW299799   7.395   7.326  11.009  0.9318  1.3150 -0.1828
31621SOL     OW99800   4.736   7.732   6.938 -0.5020  0.4083  0.1775
31621SOL    HW199801   4.701   7.645   6.923 -0.1536  0.1643  0.7247
31621SOL    HW299802   4.809   7.740   6.877  1.0448 -0.6578  1.7858
31622SOL     OW99803   2.618   9.361   0.971 -0.2243 -0.2999 -0.0113
31622SOL    HW199804   2.694   9.302   0.975  0.3086  0.3574 -0.3425
31622SOL    HW299805   2.594   9.364   0.879 -0.1662  0.1125 -0.0140
31623SOL     OW99806   1.168   6.156   6.402 -0.5819  0.4143  0.4427
31623SOL    HW199807   1.132   6.069   6.386  1.1677  0.0161 -1.8773
31623SOL    HW299808   1.096   6.216   6.384 -0.7467 -0.4305 -2.1114
31624SOL     OW99809   5.539   7.774   1.718 -0.4255 -0.3473  0.0471
31624SOL    HW199810   5.500   7.711   1.778  0.3178 -0.7934  0.0829
31624SOL    HW299811   5.581   7.839   1.774  1.6279 -1.6019  0.0982
31625SOL     OW99812   2.773  10.410   6.190  0.3308 -0.3248  0.3414
31625SOL    HW199813   2.717  10.334   6.178  1.3683 -1.1380  0.5634
31625SOL    HW299814   2.830  10.388   6.264  0.3094  0.8686  0.7372
31626SOL     OW99815   9.514   5.791   2.221  0.0532  0.0275  0.3725
31626SOL    HW199816   9.504   5.810   2.314  0.1420 -0.8668  0.5777
31626SOL    HW299817   9.579   5.721   2.217  2.1372  1.8880 -0.5644
31627SOL     OW99818   9.873   5.223  10.402 -0.2039  0.1758  0.1874
31627SOL    HW199819   9.873   5.234  10.497  2.1145  1.0657  0.1526
31627SOL    HW299820   9.904   5.134  10.388  2.8384  1.0755  0.3413
31628SOL     OW99821   3.979   4.372   4.003 -0.0155 -0.1564  0.8827
31628SOL    HW199822   3.921   4.438   3.965 -0.2092  0.6466  2.4746
31628SOL    HW299823   4.011   4.413   4.084 -0.9886 -2.4182  2.4936
31629SOL     OW99824   1.606  10.613   7.600 -0.8446  0.4434 -0.3835
31629SOL    HW199825   1.526  10.598   7.650 -1.0931 -2.5594 -1.4761
31629SOL    HW299826   1.626  10.528   7.561  2.2049  1.3991 -1.1735
31630SOL     OW99827   5.893  10.573   7.734  0.0451 -0.5989  0.4582
31630SOL    HW199828   5.897  10.669   7.738  0.4839 -0.4102 -2.4819
31630SOL    HW299829   5.851  10.555   7.650  1.2054 -3.0100  0.3406
31631SOL     OW99830   7.759   2.353   0.339 -0.2893  0.1208 -0.0881
31631SOL    HW199831   7.735   2.386   0.252  0.0807  2.5860  0.6669
31631SOL    HW299832   7.676   2.323   0.377 -0.4542 -0.9872 -1.2499
31632SOL     OW99833   3.157   9.977   4.535 -0.1766  0.4545 -0.0172
31632SOL    HW199834   3.110  10.053   4.501 -0.6699 -0.1819 -0.7906
31632SOL    HW299835   3.248   9.991   4.509  0.2883  2.0769  2.1514
31633SOL     OW99836   5.142  11.256   2.009 -0.1706 -0.2538 -0.1898
31633SOL    HW199837   5.235  11.241   2.024  0.4122  2.4124 -0.7799
31633SOL    HW299838   5.130  11.241   1.915 -0.6500 -1.8117  0.0843
31634SOL     OW99839   7.601   7.988   1.618 -0.0119 -1.1045 -0.1129
31634SOL    HW199840   7.651   8.054   1.668 -0.0732 -0.7071 -0.5721
31634SOL    HW299841   7.664   7.919   1.599  0.5134 -0.3670 -1.1384
31635SOL     OW99842  11.556   1.962   5.804  0.0119 -0.1699 -0.0138
31635SOL    HW199843  11.552   2.027   5.875  0.0516 -0.3776  0.1788
31635SOL    HW299844  11.574   2.014   5.725 -1.2555  0.2197 -0.0813
31636SOL     OW99845   0.995   0.937   2.664 -0.9435  0.3766 -0.1880
31636SOL    HW199846   0.965   0.923   2.754  0.0236 -0.9530 -0.0315
31636SOL    HW299847   1.088   0.960   2.672 -0.5930 -0.6838 -0.8508
31637SOL     OW99848   0.337   3.491   7.011 -0.0799  0.5406 -0.1262
31637SOL    HW199849   0.325   3.583   7.035 -2.9802  1.2666 -3.4630
31637SOL    HW299850   0.359   3.448   7.093 -0.3477  3.9241  1.9386
31638SOL     OW99851   8.088   1.200   9.415  0.0466  0.9184  0.4543
31638SOL    HW199852   8.033   1.222   9.340  0.1634 -0.5635 -0.0991
31638SOL    HW299853   8.109   1.285   9.455  1.0588  1.9008 -1.9374
31639SOL     OW99854   8.167  10.264  10.649 -0.6237 -0.0206 -0.0746
31639SOL    HW199855   8.110  10.228  10.718 -0.6465 -0.4970 -0.3349
31639SOL    HW299856   8.245  10.294  10.695 -0.9559  0.3553  0.2499
31640SOL     OW99857  10.436  10.867   0.659  0.3151 -0.1583 -0.3162
31640SOL    HW199858  10.531  10.864   0.673  0.2988 -0.1741 -0.2054
31640SOL    HW299859  10.399  10.864   0.748  0.1955 -0.9184 -0.3866
31641SOL     OW99860   3.476   1.494   2.234 -0.0700  0.0233  0.2756
31641SOL    HW199861   3.569   1.498   2.213 -0.4136  0.2250 -1.3184
31641SOL    HW299862   3.453   1.402   2.221 -0.5729  0.3809 -1.7137
31642SOL     OW99863   9.699   4.488   4.355  0.4213  0.5984 -0.3797
31642SOL    HW199864   9.719   4.437   4.433  0.7302  1.1814 -0.0725
31642SOL    HW299865   9.775   4.544   4.342 -0.5769  2.1829  0.2626
31643SOL     OW99866   9.294  10.854   6.825 -0.1318  0.4413  0.2282
31643SOL    HW199867   9.306  10.943   6.857 -0.4650  0.4120  0.4318
31643SOL    HW299868   9.340  10.852   6.741 -0.6077  0.9699 -0.0503
31644SOL     OW99869   5.660   4.051   8.793  0.1917 -0.3708  0.2008
31644SOL    HW199870   5.585   3.992   8.795 -0.0431 -0.0852  0.0056
31644SOL    HW299871   5.734   3.996   8.816  0.2276 -1.1274 -1.5676
31645SOL     OW99872   4.167   2.583   7.379 -0.1898 -0.1466  0.1538
31645SOL    HW199873   4.178   2.653   7.444  0.6125 -0.1623  0.0429
31645SOL    HW299874   4.137   2.508   7.430  0.4649 -0.1687  0.5156
31646SOL     OW99875   5.118   0.466  11.474 -0.6542  0.1545 -0.0324
31646SOL    HW199876   5.141   0.553  11.505  1.5535 -1.1784  2.5118
31646SOL    HW299877   5.043   0.439  11.527 -1.5511  0.5722 -1.0476
31647SOL     OW99878   5.847   6.582   4.063 -0.4486  0.9327  0.3816
31647SOL    HW199879   5.899   6.645   4.112  0.6968  0.2118  0.1280
31647SOL    HW299880   5.783   6.636   4.015 -0.6959  1.7366  1.5722
31648SOL     OW99881   3.773   4.219  11.230 -0.4775  0.6361 -0.4923
31648SOL    HW199882   3.836   4.229  11.301  0.7746  1.5229 -1.6620
31648SOL    HW299883   3.764   4.124  11.219 -0.1574  0.4961  0.3843
31649SOL     OW99884   1.982   4.138   5.016 -0.4970 -0.0709 -0.8559
31649SOL    HW199885   1.997   4.218   5.066  0.2382 -0.7261  0.0034
31649SOL    HW299886   2.033   4.071   5.062 -2.3609 -1.3930 -0.5838
31650SOL     OW99887   3.597  11.577   9.020 -0.0134  0.2533  0.5251
31650SOL    HW199888   3.623  11.486   9.030 -2.3501 -0.4800  0.5541
31650SOL    HW299889   3.664  11.615   8.963  0.4930 -1.7326 -0.3014
31651SOL     OW99890   0.673   8.159   5.736  0.4827  0.3512 -0.1022
31651SOL    HW199891   0.731   8.091   5.773 -0.3441 -0.3014  0.0161
31651SOL    HW299892   0.718   8.187   5.656  0.1761 -1.3619 -0.9271
31652SOL     OW99893  11.150   9.244   6.188 -0.1513  0.3792  1.0715
31652SOL    HW199894  11.089   9.181   6.227  0.2995 -0.8531 -0.1510
31652SOL    HW299895  11.125   9.328   6.227 -1.6637 -0.3203  1.7065
31653SOL     OW99896   1.332   3.302   0.455  0.0895 -0.1031  0.0837
31653SOL    HW199897   1.349   3.330   0.545  0.3415 -0.6224  0.1990
31653SOL    HW299898   1.249   3.255   0.460  0.3897 -0.6258  0.1453
31654SOL     OW99899   7.973   6.767   4.336 -0.4708  0.4133 -0.1921
31654SOL    HW199900   7.969   6.690   4.279  0.5776  0.4073 -0.2774
31654SOL    HW299901   8.066   6.789   4.341 -0.5133  0.3717  1.5680
31655SOL     OW99902  11.356   0.536  10.626  0.6415  0.2272  0.1141
31655SOL    HW199903  11.401   0.620  10.635  2.2600 -0.1788 -2.6922
31655SOL    HW299904  11.427   0.474  10.608 -0.6102 -1.5605  1.1365
31656SOL     OW99905   4.153  11.346   4.473 -0.3634  0.2273  0.6647
31656SOL    HW199906   4.075  11.291   4.480  0.0550 -0.4713 -0.0496
31656SOL    HW299907   4.215  11.294   4.422  0.9771  0.3193  2.1095
31657SOL     OW99908   1.259   8.272   3.300  0.0940 -0.3288 -0.2319
31657SOL    HW199909   1.172   8.311   3.306 -1.1527 -2.5288 -2.1995
31657SOL    HW299910   1.278   8.270   3.206  2.8460  1.1571  0.2055
31658SOL     OW99911   1.723  10.535   4.939 -0.6847  0.1616  0.1444
31658SOL    HW199912   1.637  10.508   4.971 -1.1389  0.5705 -0.7034
31658SOL    HW299913   1.784  10.472   4.978 -0.8327  2.0747  3.9029
31659SOL     OW99914  11.312  10.841   8.271 -0.0143  0.1269 -0.1810
31659SOL    HW199915  11.336  10.917   8.324  1.0290 -0.2504 -0.0831
31659SOL    HW299916  11.344  10.862   8.184  0.3651 -0.2316 -0.1315
31660SOL     OW99917  10.729   1.612   8.009 -0.2843 -0.6663 -0.4885
31660SOL    HW199918  10.722   1.562   7.928 -2.7287 -0.1108 -0.7119
31660SOL    HW299919  10.645   1.597   8.054  0.1383  0.7725  0.8899
31661SOL     OW99920   9.474   4.964   2.096 -0.0224 -0.3700  0.1696
31661SOL    HW199921   9.478   5.025   2.023  0.0292  0.2563  0.6831
31661SOL    HW299922   9.381   4.943   2.105  0.0969 -1.3634 -0.8055
31662SOL     OW99923   9.528   3.945   3.182  0.3724 -0.8968 -0.2391
31662SOL    HW199924   9.482   3.986   3.255 -0.9721  0.6316 -1.8429
31662SOL    HW299925   9.583   4.015   3.146  0.4803 -1.4164 -1.1232
31663SOL     OW99926  11.442   1.527   2.195  0.1112 -0.1746 -0.3809
31663SOL    HW199927  11.444   1.546   2.288 -0.0554 -0.1178 -0.3882
31663SOL    HW299928  11.391   1.446   2.188 -1.1552  0.6152 -0.5510
31664SOL     OW99929   6.358   4.077   0.111 -0.6383 -0.1929  0.6690
31664SOL    HW199930   6.359   3.987   0.077  0.6176 -0.4892  1.4501
31664SOL    HW299931   6.382   4.068   0.203  0.2997  1.0210  0.5564
31665SOL     OW99932   4.637   4.823  11.677  0.0325 -0.2930 -0.1581
31665SOL    HW199933   4.692   4.756  11.637 -1.4370 -0.4377 -2.0891
31665SOL    HW299934   4.580   4.775  11.737 -0.2756 -0.6367 -0.7172
31666SOL     OW99935   8.056   7.591  11.636  0.1130  0.2002  0.9451
31666SOL    HW199936   8.138   7.622  11.597 -0.7938 -0.6912 -1.9328
31666SOL    HW299937   8.004   7.560  11.561 -2.8079  0.5708  2.6760
31667SOL     OW99938   6.426   9.971  11.488  0.7988  0.1585 -0.4623
31667SOL    HW199939   6.508   9.922  11.480  1.0932  0.2877  1.2956
31667SOL    HW299940   6.447  10.059  11.456  1.0572 -0.1033 -1.0059
31668SOL     OW99941   7.728   6.197   0.615  0.2309 -0.0258 -0.5084
31668SOL    HW199942   7.752   6.284   0.582  0.7483  0.2844  0.6327
31668SOL    HW299943   7.791   6.180   0.685 -1.3260 -0.2911  0.8836
31669SOL     OW99944  11.368   0.608   0.466 -0.2613 -0.1143  0.2188
31669SOL    HW199945  11.293   0.646   0.512 -0.9485 -1.7532  0.4976
31669SOL    HW299946  11.417   0.562   0.533 -0.9664 -2.0555 -0.5177
31670SOL     OW99947   9.088  11.106   5.028 -0.0797 -0.4943 -0.0286
31670SOL    HW199948   9.030  11.032   5.048 -1.0262  0.3512  0.4637
31670SOL    HW299949   9.117  11.090   4.938 -0.7603 -1.1557 -0.1384
31671SOL     OW99950   7.390   6.790   3.346  0.0252  0.4709  0.2325
31671SOL    HW199951   7.357   6.830   3.266 -0.2798  0.4830  0.3641
31671SOL    HW299952   7.333   6.824   3.415 -0.4046 -0.4017  0.3117
31672SOL     OW99953   1.327   4.328   3.102  0.3624 -0.0102  0.2845
31672SOL    HW199954   1.406   4.381   3.094 -0.4889  1.3217  0.4482
31672SOL    HW299955   1.300   4.312   3.012 -0.5947  1.7609  0.2116
31673SOL     OW99956   0.484   3.298   4.895  0.2449 -0.2104  0.2638
31673SOL    HW199957   0.543   3.372   4.877  0.6023 -0.6024 -0.1953
31673SOL    HW299958   0.510   3.269   4.983 -0.1834  0.4726  0.6240
31674SOL     OW99959   3.175  10.711   4.202 -0.3133 -0.2827  0.2499
31674SOL    HW199960   3.138  10.717   4.291  0.0537 -0.2911  0.4025
31674SOL    HW299961   3.264  10.743   4.211 -0.0052 -1.0711  0.0441
31675SOL     OW99962   7.727   1.167   1.498  0.4538  0.0659 -0.0276
31675SOL    HW199963   7.757   1.185   1.409 -0.3776  1.1651 -0.1211
31675SOL    HW299964   7.667   1.093   1.489 -0.5429  0.9028 -0.6024
31676SOL     OW99965   3.840   5.562   1.224 -0.2629 -0.0810  0.1837
31676SOL    HW199966   3.795   5.539   1.143 -3.3139  1.9773  1.1309
31676SOL    HW299967   3.881   5.647   1.204 -0.8111  0.3097  0.7181
31677SOL     OW99968   7.180   8.330   5.818  0.4418  0.5821 -0.1540
31677SOL    HW199969   7.103   8.374   5.855  0.0927  2.0500 -2.4656
31677SOL    HW299970   7.247   8.339   5.886 -0.5618  1.8618  0.7267
31678SOL     OW99971   0.116   4.489   0.458  0.5465  0.0025 -0.1251
31678SOL    HW199972   0.199   4.442   0.464 -0.2438 -1.7280 -1.6578
31678SOL    HW299973   0.082   4.468   0.370 -1.6613  0.3641  0.5666
31679SOL     OW99974   1.759   8.494  11.643  0.3253  0.5170 -0.5246
31679SOL    HW199975   1.703   8.459  11.712  0.3279  0.6745 -0.4434
31679SOL    HW299976   1.805   8.568  11.683  0.2772  0.6500 -0.7128
31680SOL     OW99977   3.699   9.246   9.947 -0.3729 -0.3148  0.5145
31680SOL    HW199978   3.679   9.315  10.010 -0.0260 -0.7176  1.0691
31680SOL    HW299979   3.743   9.292   9.875 -0.7586  0.1422  0.5628
31681SOL     OW99980   0.479   3.642   0.743  0.5329  0.2771 -0.3679
31681SOL    HW199981   0.520   3.588   0.675 -1.5919 -0.5596 -1.0749
31681SOL    HW299982   0.404   3.681   0.699 -0.2466  0.6135  1.2225
31682SOL     OW99983   8.688  10.956   6.770  0.5426  0.1858  0.1084
31682SOL    HW199984   8.783  10.944   6.777  0.3286 -0.7185  2.0704
31682SOL    HW299985   8.675  11.050   6.779  1.2329  0.3160 -0.1523
31683SOL     OW99986   7.490   5.156   0.620 -0.0351 -0.0637 -0.2165
31683SOL    HW199987   7.526   5.068   0.616 -1.3197 -0.6152 -0.0034
31683SOL    HW299988   7.560   5.212   0.585  0.4582 -1.2575 -1.1899
31684SOL     OW99989   1.318   1.434   7.740 -0.4988  0.0589  0.3020
31684SOL    HW199990   1.350   1.437   7.650  1.7976  2.3035  1.0818
31684SOL    HW299991   1.250   1.502   7.743 -0.6577 -0.0967  0.2419
31685SOL     OW99992   5.168   5.301   1.483 -0.1387 -0.5911  0.5904
31685SOL    HW199993   5.246   5.356   1.492 -0.4294 -0.1963  0.7728
31685SOL    HW299994   5.147   5.305   1.389 -0.9594  0.7720  0.7976
31686SOL     OW99995   4.568  11.422  10.187 -0.0898  0.4663  0.6278
31686SOL    HW199996   4.527  11.409  10.272  1.4718  0.0718  1.3539
31686SOL    HW299997   4.573  11.334  10.149 -1.2208  0.6974 -0.1147
31687SOL     OW99998   9.195   7.672   2.496 -0.0801  0.1775  0.1577
31687SOL    HW199999   9.214   7.583   2.527  0.7779  0.3745  0.2122
31687SOL    HW2    0   9.195   7.664   2.400  0.2078  0.1557  0.1581
31688SOL     OW    1   6.468   3.385   2.261  0.6386  0.4835 -0.1495
31688SOL    HW1    2   6.399   3.400   2.326  0.3716 -3.1936  0.6122
31688SOL    HW2    3   6.549   3.406   2.307  0.3916 -1.2289  1.1781
31689SOL     OW    4   0.876   6.447   7.831 -0.2312  0.5520 -0.3202
31689SOL    HW1    5   0.964   6.416   7.853 -0.2459  0.2016 -0.7598
31689SOL    HW2    6   0.819   6.404   7.894 -0.3111 -0.7015 -1.2302
31690SOL     OW    7   2.386   2.205   0.783  0.4148 -0.0373 -0.1778
31690SOL    HW1    8   2.464   2.261   0.784  0.1867  0.2863 -0.1184
31690SOL    HW2    9   2.322   2.253   0.730 -0.1357  0.2584  0.7175
31691SOL     OW   10  11.258   6.531   9.070  0.2895 -0.0432  0.5865
31691SOL    HW1   11  11.285   6.470   9.139 -0.6071 -1.6030 -0.4040
31691SOL    HW2   12  11.263   6.480   8.989 -1.1096  1.0000 -0.1936
31692SOL     OW   13   9.120   8.315   7.265  0.0490 -0.3895 -0.2882
31692SOL    HW1   14   9.173   8.242   7.233 -0.2123 -0.3075 -0.9158
31692SOL    HW2   15   9.099   8.366   7.187  1.4901  1.2065  0.3001
31693SOL     OW   16   9.244   4.775   3.064 -0.2249  0.0842  0.3088
31693SOL    HW1   17   9.257   4.811   3.152 -0.6826 -0.1476  0.4734
31693SOL    HW2   18   9.150   4.754   3.060  0.0026 -0.9701  0.1725
31694SOL     OW   19   4.704   2.342   6.384 -0.8962  0.2697  0.5432
31694SOL    HW1   20   4.690   2.251   6.411  2.5337 -0.4598  0.3854
31694SOL    HW2   21   4.740   2.334   6.295  1.2854  1.5631  1.2423
31695SOL     OW   22   4.916   9.973  10.233  0.1963  0.1851  0.1588
31695SOL    HW1   23   4.839   9.917  10.235 -0.3122  0.8771  0.3553
31695SOL    HW2   24   4.901  10.031  10.158  0.3873  0.5119  0.3728
31696SOL     OW   25   1.728   3.581   3.732 -0.1741  0.8787  0.4964
31696SOL    HW1   26   1.674   3.646   3.687 -0.7311 -0.6940 -1.2624
31696SOL    HW2   27   1.818   3.610   3.716 -0.3904  2.8919  2.4772
31697SOL     OW   28   3.553  10.571   5.845  0.2754 -0.0010  0.0392
31697SOL    HW1   29   3.555  10.505   5.776  2.1192  1.3297 -1.2732
31697SOL    HW2   30   3.480  10.627   5.823  0.0885 -0.3031 -0.1143
31698SOL     OW   31   4.821   5.725   1.548 -0.4730 -0.4377 -0.3046
31698SOL    HW1   32   4.823   5.821   1.555  1.1762 -0.3166 -1.7216
31698SOL    HW2   33   4.869   5.695   1.625  1.5886  0.0522 -1.3265
31699SOL     OW   34   1.649   6.067   3.154  0.1320 -0.0506  0.3364
31699SOL    HW1   35   1.601   6.014   3.091  0.4134  0.3395 -0.2223
31699SOL    HW2   36   1.741   6.043   3.141  0.4810  1.8614 -1.2369
31700SOL     OW   37   7.408  10.786   2.794  0.1406 -0.1938  0.9428
31700SOL    HW1   38   7.316  10.811   2.799  0.0185 -0.7488  1.8921
31700SOL    HW2   39   7.417  10.744   2.709  0.0950  1.9928 -0.1871
31701SOL     OW   40   1.971   3.089   9.399 -0.4523  0.3009  0.1438
31701SOL    HW1   41   1.896   3.076   9.456 -0.7404 -0.3765 -0.3710
31701SOL    HW2   42   1.996   3.180   9.412 -1.6342  0.6648  0.0098
31702SOL     OW   43   0.701   0.490   0.173  0.0964  0.8768  1.1200
31702SOL    HW1   44   0.749   0.503   0.255  1.3981 -0.6197  0.6529
31702SOL    HW2   45   0.609   0.497   0.198  0.4141 -0.7903  2.9960
31703SOL     OW   46   0.190   9.302   9.021  0.3521 -0.0423  0.3704
31703SOL    HW1   47   0.281   9.284   8.997  0.4937  1.1496 -0.0177
31703SOL    HW2   48   0.195   9.335   9.111  0.5924  2.2527 -0.4190
31704SOL     OW   49   1.366   5.250  10.555  0.3126 -0.1234 -0.2254
31704SOL    HW1   50   1.411   5.226  10.474  2.2540  0.7241  0.5349
31704SOL    HW2   51   1.307   5.177  10.573 -0.0804 -0.3823 -2.3124
31705SOL     OW   52   3.735   0.951   1.870 -0.6605 -0.2870 -0.1070
31705SOL    HW1   53   3.725   0.860   1.898 -0.8617 -0.8244 -1.7931
31705SOL    HW2   54   3.646   0.985   1.866 -0.5263  0.3837  1.6213
31706SOL     OW   55   0.110   9.761   2.003  0.6493  0.9508 -0.6498
31706SOL    HW1   56   0.158   9.686   1.970 -0.4903  0.3602 -1.0311
31706SOL    HW2   57   0.176   9.830   2.013  1.5455  0.1860 -1.1746
31707SOL     OW   58   6.034  11.242   0.801 -0.3112 -0.0694 -0.2199
31707SOL    HW1   59   5.947  11.279   0.814  0.6113  2.0899  0.3018
31707SOL    HW2   60   6.090  11.288   0.863  0.9560 -2.6333  0.6925
31708SOL     OW   61   7.788   5.467  11.233  0.0386  0.2550  0.0522
31708SOL    HW1   62   7.743   5.523  11.296 -0.2366 -0.5466  0.5708
31708SOL    HW2   63   7.752   5.380  11.248 -0.2320  0.0912 -1.3883
31709SOL     OW   64   3.642   4.341   1.244 -0.6135 -0.1257  0.1505
31709SOL    HW1   65   3.580   4.414   1.238  0.0198  0.3246 -1.3721
31709SOL    HW2   66   3.712   4.373   1.301 -0.3001  0.5047 -0.5748
31710SOL     OW   67   9.322   0.999   2.503  0.2047  0.0907 -0.0567
31710SOL    HW1   68   9.262   0.995   2.428 -0.1285  0.7540  0.1663
31710SOL    HW2   69   9.385   0.929   2.486  0.7677  0.8932 -1.4944
31711SOL     OW   70   5.665   7.262   8.400  0.0173  0.4534 -0.5511
31711SOL    HW1   71   5.758   7.242   8.390 -0.0587 -0.8842  1.0416
31711SOL    HW2   72   5.634   7.279   8.311  0.8097 -3.7244 -1.8104
31712SOL     OW   73   4.249   1.679  11.549  0.2406 -0.0247 -0.3096
31712SOL    HW1   74   4.284   1.626  11.478 -0.2118  0.5667 -0.9881
31712SOL    HW2   75   4.227   1.763  11.508 -1.2636 -0.1127  0.2367
31713SOL     OW   76   4.971   6.319  10.350 -0.3129  0.0307  0.4321
31713SOL    HW1   77   4.945   6.300  10.260  0.5252  0.0287  0.1824
31713SOL    HW2   78   5.048   6.375  10.342 -0.6813  0.6800  1.1543
31714SOL     OW   79   9.055   2.854   5.035 -0.0504 -0.5316  0.2760
31714SOL    HW1   80   9.114   2.924   5.062 -0.6883 -0.1265  0.6491
31714SOL    HW2   81   9.112   2.789   4.993  0.9769 -1.0721  2.3645
31715SOL     OW   82   6.099   3.751   3.685 -0.1713 -0.5982  0.4614
31715SOL    HW1   83   6.030   3.792   3.737 -1.5162 -0.9057 -0.9990
31715SOL    HW2   84   6.084   3.657   3.695  0.7266 -0.6937  0.9907
31716SOL     OW   85   4.823   6.839   4.183  0.1407 -0.0900 -0.2475
31716SOL    HW1   86   4.770   6.766   4.214  0.7257  0.5275  2.4039
31716SOL    HW2   87   4.880   6.799   4.116 -0.2295 -1.8515  0.4144
31717SOL     OW   88   9.983   6.530   9.018  0.0752  0.2576  0.0312
31717SOL    HW1   89  10.076   6.532   9.039  0.0836  0.9554 -0.0604
31717SOL    HW2   90   9.941   6.494   9.097  0.4365 -0.2901 -0.0195
31718SOL     OW   91   9.502   6.164   5.717 -0.4763  0.4951 -0.9330
31718SOL    HW1   92   9.452   6.188   5.796 -0.4077 -0.4861 -0.5792
31718SOL    HW2   93   9.569   6.104   5.749  0.9981  1.8470 -1.3962
31719SOL     OW   94   4.969   3.575   3.135 -0.0488 -0.7904 -0.3175
31719SOL    HW1   95   4.954   3.482   3.146  0.9780 -0.7493  1.8026
31719SOL    HW2   96   5.056   3.582   3.096 -0.4275 -0.7033 -1.1850
31720SOL     OW   97   2.403   2.658   5.010 -0.2294  0.4255  0.3281
31720SOL    HW1   98   2.314   2.627   4.994 -0.1629  0.0135  0.7302
31720SOL    HW2   99   2.448   2.646   4.926 -0.6403  0.9556  0.0281
31721SOL     OW  100   4.519   2.327   1.987  0.2552  0.5199 -0.2306
31721SOL    HW1  101   4.564   2.245   1.968  0.2535  0.4638  0.0014
31721SOL    HW2  102   4.427   2.303   1.995  0.2679  0.5274 -0.0623
31722SOL     OW  103   6.674   3.291   1.602 -0.1582 -0.4934  0.2249
31722SOL    HW1  104   6.738   3.352   1.639  0.2811 -1.2619  0.7557
31722SOL    HW2  105   6.634   3.248   1.677 -1.7496  0.3755 -0.0657
31723SOL     OW  106   5.945   2.132   6.403  0.7699 -0.2063 -0.2631
31723SOL    HW1  107   5.905   2.205   6.356  1.7126 -0.5270 -1.6234
31723SOL    HW2  108   5.872   2.085   6.442 -0.0190  0.2847 -1.1157
31724SOL     OW  109   9.076   6.615   5.180  0.0984  1.2326  0.6414
31724SOL    HW1  110   9.137   6.681   5.147 -0.8627  1.2185 -1.3047
31724SOL    HW2  111   9.112   6.531   5.150  0.3256  1.0169  1.4911
31725SOL     OW  112   9.744  11.443  10.386 -0.1245  0.5722  0.0519
31725SOL    HW1  113   9.782  11.355  10.382  0.2132  0.7626 -1.9773
31725SOL    HW2  114   9.798  11.489  10.450 -1.9895 -1.3779  3.2893
31726SOL     OW  115   6.656   2.594   9.257  0.1977  0.0630 -1.0391
31726SOL    HW1  116   6.748   2.572   9.273  0.3103  0.1245 -1.5881
31726SOL    HW2  117   6.635   2.657   9.327  0.5690  0.0440 -0.9052
31727SOL     OW  118  11.219   3.966   6.523 -0.2665 -0.0721 -0.1710
31727SOL    HW1  119  11.214   4.036   6.588  1.0605 -0.1346  0.0198
31727SOL    HW2  120  11.240   3.887   6.573 -2.3136 -0.7632 -0.3094
31728SOL     OW  121   9.459   2.077   6.119 -0.2863 -0.0086  0.3718
31728SOL    HW1  122   9.546   2.118   6.122 -0.3504  0.1749 -0.2150
31728SOL    HW2  123   9.449   2.049   6.028 -2.9127  4.5503 -1.0479
31729SOL     OW  124   2.876   8.631   9.425 -0.8451 -0.5357  0.2948
31729SOL    HW1  125   2.942   8.577   9.468  0.0250  0.1557 -0.1343
31729SOL    HW2  126   2.858   8.587   9.343  0.1369 -0.0004 -0.2215
31730SOL     OW  127   7.096   0.332   4.681 -0.3771 -0.0425  0.3922
31730SOL    HW1  128   7.007   0.353   4.707 -0.3320  0.0508  0.4720
31730SOL    HW2  129   7.088   0.300   4.591 -0.2885  1.5783 -0.2169
31731SOL     OW  130   9.651   5.127  10.261 -0.4741 -0.0964 -0.2209
31731SOL    HW1  131   9.728   5.177  10.288  1.2538 -1.8469 -1.6577
31731SOL    HW2  132   9.604   5.185  10.202  0.3470  0.6053 -0.1967
31732SOL     OW  133  10.056   1.619   1.733 -0.2735 -0.2556 -0.0894
31732SOL    HW1  134   9.999   1.566   1.679 -0.3488 -1.4051  1.0859
31732SOL    HW2  135  10.131   1.562   1.753  0.4259  0.6190 -0.1278
31733SOL     OW  136   3.124   9.286   3.736  0.0285 -0.0457 -0.4422
31733SOL    HW1  137   3.185   9.280   3.663 -0.9648  0.5694 -1.3722
31733SOL    HW2  138   3.051   9.339   3.701  0.2350  1.6309  1.4872
31734SOL     OW  139  10.128   1.603   2.736  0.3534 -0.2779  0.6026
31734SOL    HW1  140  10.049   1.637   2.694  0.4550 -0.5488  0.1885
31734SOL    HW2  141  10.114   1.619   2.829 -0.8614 -1.6311  0.6975
31735SOL     OW  142   9.045   4.124   4.942  0.0456  0.1693  0.2389
31735SOL    HW1  143   9.041   4.214   4.910  0.5327 -0.0838 -0.5574
31735SOL    HW2  144   8.956   4.105   4.972 -0.2015  0.7164 -0.1350
31736SOL     OW  145   0.310   8.782   3.356  0.1022  0.6954 -0.3910
31736SOL    HW1  146   0.225   8.797   3.398 -0.0474 -1.2001  0.0416
31736SOL    HW2  147   0.373   8.825   3.414 -0.4050  0.7388  0.1407
31737SOL     OW  148   6.583   7.893   5.601 -0.3322  0.4227 -0.1246
31737SOL    HW1  149   6.611   7.920   5.689 -2.2938  0.3742  0.5709
31737SOL    HW2  150   6.493   7.861   5.614 -1.8675  3.3045 -2.6454
31738SOL     OW  151   8.531   4.218   2.221 -0.8771 -0.1802 -0.4293
31738SOL    HW1  152   8.625   4.204   2.231 -0.5231  1.2294 -1.4431
31738SOL    HW2  153   8.502   4.149   2.161 -0.1141  0.4473 -1.5646
31739SOL     OW  154   3.536   2.534   5.383 -0.2143 -0.0245 -0.2856
31739SOL    HW1  155   3.514   2.627   5.375  0.9714  0.5358  2.1667
31739SOL    HW2  156   3.453   2.491   5.402 -0.8545  0.4135 -1.9153
31740SOL     OW  157   9.028   7.037   0.150  0.1203  0.0337 -0.6966
31740SOL    HW1  158   9.071   7.068   0.230  0.8680  1.8200 -1.7258
31740SOL    HW2  159   8.939   7.072   0.155 -1.1923 -3.1579  1.1445
31741SOL     OW  160   9.275   9.616   0.385  0.1740  0.5486 -0.1960
31741SOL    HW1  161   9.308   9.561   0.455 -1.5344  1.7863  1.7062
31741SOL    HW2  162   9.192   9.576   0.359  0.6320  0.2843 -1.3460
31742SOL     OW  163  10.573   2.611   8.093  0.3506  0.2640  0.4603
31742SOL    HW1  164  10.492   2.661   8.104  0.1418  0.3626 -1.2649
31742SOL    HW2  165  10.573   2.551   8.168 -1.4330  0.1026  0.3876
31743SOL     OW  166   1.439  10.616   5.246 -0.3165 -0.1323  0.3574
31743SOL    HW1  167   1.344  10.627   5.258 -0.6468  1.3647 -2.7903
31743SOL    HW2  168   1.475  10.704   5.258  0.4479 -0.3728 -0.1173
31744SOL     OW  169   8.189   3.316   7.422 -0.6304  0.4476 -0.0625
31744SOL    HW1  170   8.276   3.355   7.416 -0.4180  0.0730  0.4579
31744SOL    HW2  171   8.131   3.389   7.441 -0.4827  0.7505 -0.7505
31745SOL     OW  172  10.090   3.712  11.684  0.3691  0.3961 -0.2027
31745SOL    HW1  173  10.002   3.677  11.670  0.4921  0.1907 -0.4517
31745SOL    HW2  174  10.105   3.701  11.778  0.9419 -1.4759 -0.4706
31746SOL     OW  175   3.486   8.883   6.181 -0.4300  0.3918  0.4020
31746SOL    HW1  176   3.428   8.873   6.106  0.7570 -0.7737 -0.4025
31746SOL    HW2  177   3.574   8.880   6.143  0.1835  0.5671  1.7631
31747SOL     OW  178  11.160  10.373   9.224  0.4365  0.0119  0.2079
31747SOL    HW1  179  11.230  10.405   9.281  0.7481 -0.1274 -0.0884
31747SOL    HW2  180  11.079  10.405   9.264  0.7933  3.1787 -1.2500
31748SOL     OW  181   9.580   4.118   1.162 -0.4625  0.0248 -0.0123
31748SOL    HW1  182   9.613   4.158   1.242 -0.2797  1.3096 -0.7011
31748SOL    HW2  183   9.586   4.023   1.178  0.1026  0.2545  1.2541
31749SOL     OW  184   6.274   9.719   7.526  0.4260 -0.3939  0.3798
31749SOL    HW1  185   6.202   9.741   7.585 -0.8668 -1.6748 -0.6359
31749SOL    HW2  186   6.248   9.635   7.487  2.0483 -0.4406 -0.7019
31750SOL     OW  187   1.077   6.320  11.047 -0.6277 -0.8587 -0.4445
31750SOL    HW1  188   1.094   6.385  10.980 -0.3238  0.4107  0.8143
31750SOL    HW2  189   0.990   6.342  11.081 -0.9478 -1.7240 -0.6679
31751SOL     OW  190   5.815  11.555  10.362  0.2946 -0.8295  0.0004
31751SOL    HW1  191   5.751  11.602  10.416 -0.5328 -1.0717 -0.7372
31751SOL    HW2  192   5.896  11.556  10.414 -0.5141 -1.2085  1.3224
31752SOL     OW  193   4.049  10.008   7.931 -0.4463  0.9983 -0.3208
31752SOL    HW1  194   4.029   9.941   7.996 -0.7050 -0.2396 -1.6037
31752SOL    HW2  195   4.048  10.091   7.979  2.9239 -0.1020  1.9822
31753SOL     OW  196   1.089   5.366   1.405  0.2586 -0.1981 -0.1149
31753SOL    HW1  197   1.142   5.311   1.463  0.0027 -0.5974 -0.2581
31753SOL    HW2  198   1.120   5.455   1.422 -0.1563 -0.2538  1.0184
31754SOL     OW  199   1.407  10.821   2.723  0.1160 -0.4960  0.0073
31754SOL    HW1  200   1.474  10.804   2.658  0.3053 -1.4629  0.4380
31754SOL    HW2  201   1.406  10.917   2.732  1.5565 -0.4668  0.1273
31755SOL     OW  202   6.792   3.711  10.665 -0.7036 -0.4575 -0.8042
31755SOL    HW1  203   6.864   3.757  10.708 -1.6494 -0.6252  1.0612
31755SOL    HW2  204   6.823   3.694  10.576  1.0423  0.5927 -0.4259
31756SOL     OW  205   5.276   5.996   0.491 -0.0029  0.5471 -0.4164
31756SOL    HW1  206   5.337   6.062   0.458 -0.1655  0.5183 -0.7710
31756SOL    HW2  207   5.197   6.045   0.513 -0.7997  0.2282 -2.4186
31757SOL     OW  208   7.111   5.432   6.254  0.4384  0.2798 -0.2051
31757SOL    HW1  209   7.054   5.385   6.193 -1.3928  0.4196  1.3269
31757SOL    HW2  210   7.191   5.379   6.257  0.4780  0.0983 -2.4348
31758SOL     OW  211   6.233   4.154   4.220  0.1459  0.5084  0.1735
31758SOL    HW1  212   6.255   4.062   4.204 -0.3472  0.4536 -0.2010
31758SOL    HW2  213   6.150   4.150   4.269  0.1211  0.7566  0.1524
31759SOL     OW  214   3.008   6.997   4.106 -0.1182  1.0234  0.2675
31759SOL    HW1  215   3.037   7.054   4.177 -0.6929  1.7815 -0.0938
31759SOL    HW2  216   2.914   6.986   4.120  0.0186 -0.0293  0.4604
31760SOL     OW  217   7.038   8.113   0.472 -0.2355  0.0726  0.1800
31760SOL    HW1  218   7.012   8.095   0.382  0.7829  1.0692 -0.3364
31760SOL    HW2  219   6.996   8.196   0.493  1.4789  1.0842 -0.2478
31761SOL     OW  220   4.181   4.788   8.496  0.1258 -0.6342  0.7089
31761SOL    HW1  221   4.255   4.848   8.480 -0.6825  0.4417  0.9034
31761SOL    HW2  222   4.211   4.731   8.567 -0.2677  1.7206  2.8921
31762SOL     OW  223   4.041   9.769  11.013 -0.3845 -0.0524  0.0098
31762SOL    HW1  224   3.979   9.710  11.056 -1.1287  1.1918  0.7313
31762SOL    HW2  225   4.104   9.791  11.081  0.4957 -0.8208 -0.5484
31763SOL     OW  226   8.260   9.855   7.488 -0.0109 -0.5076  0.1451
31763SOL    HW1  227   8.222   9.910   7.556 -3.0396  0.0417 -1.7949
31763SOL    HW2  228   8.338   9.902   7.459 -1.2746  1.6348  0.0616
31764SOL     OW  229   7.938   8.597   5.882 -0.3453 -0.8259  0.0006
31764SOL    HW1  230   7.866   8.642   5.925  0.1066  0.2489 -0.3094
31764SOL    HW2  231   8.016   8.625   5.930 -0.1246 -2.0671  0.4114
31765SOL     OW  232   0.654   7.264   6.060 -0.5138  0.2724  0.3301
31765SOL    HW1  233   0.685   7.299   5.977 -0.0220 -0.9379 -0.0241
31765SOL    HW2  234   0.562   7.241   6.044 -0.2204 -0.6467 -0.1333
31766SOL     OW  235   6.140   2.219   1.832 -0.5656 -0.4885 -0.2447
31766SOL    HW1  236   6.167   2.190   1.919 -2.0543 -0.5239  0.2318
31766SOL    HW2  237   6.147   2.141   1.778  0.3342 -0.4759 -0.1623
31767SOL     OW  238   8.499   5.032   3.151 -0.6655  0.4667 -0.1788
31767SOL    HW1  239   8.516   5.009   3.242  0.5984  0.0693 -0.4943
31767SOL    HW2  240   8.410   5.001   3.135 -1.5680  2.0886  1.3861
31768SOL     OW  241   0.023   4.633   6.030  0.0364 -0.4113 -0.4935
31768SOL    HW1  242  -0.041   4.687   5.984  0.1682  0.9918  0.9111
31768SOL    HW2  243  -0.017   4.546   6.034 -0.6533 -0.1854 -1.8298
31769SOL     OW  244  10.978   8.969   3.551 -0.1731 -0.2106  0.0607
31769SOL    HW1  245  11.021   8.999   3.631 -0.3534 -0.3944  0.2285
31769SOL    HW2  246  10.885   8.962   3.575 -0.1040 -1.1362  0.1007
31770SOL     OW  247   6.925   4.148   8.579  0.0884  0.7001 -0.2579
31770SOL    HW1  248   6.894   4.140   8.669 -0.6819 -1.8786 -0.6612
31770SOL    HW2  249   7.013   4.185   8.586  0.9674 -1.5517  1.7773
31771SOL     OW  250   2.722   1.192   8.820  0.1263 -0.2118  0.5406
31771SOL    HW1  251   2.782   1.179   8.746  0.8073  0.7847  0.9113
31771SOL    HW2  252   2.727   1.110   8.869 -0.4952 -0.9693 -0.6227
31772SOL     OW  253   7.228   3.297   7.611  0.1091  0.0634 -0.7068
31772SOL    HW1  254   7.246   3.254   7.695 -1.4125  0.2634 -0.2488
31772SOL    HW2  255   7.166   3.239   7.567  0.4440  0.2545 -1.4590
31773SOL     OW  256   6.911   6.525   8.287 -0.6969  0.1214 -0.5992
31773SOL    HW1  257   7.001   6.505   8.313 -1.0264 -0.0397  0.4947
31773SOL    HW2  258   6.915   6.615   8.255 -0.3714  0.6262  0.7748
31774SOL     OW  259   3.173   6.870   6.190 -0.1166 -0.3658 -0.4794
31774SOL    HW1  260   3.236   6.853   6.120 -0.1010 -2.0242 -0.1155
31774SOL    HW2  261   3.185   6.962   6.211  0.2914  0.0209 -2.2423
31775SOL     OW  262   9.584   2.929  11.139  0.2462 -0.4330 -0.3836
31775SOL    HW1  263   9.586   2.963  11.049  1.3016  0.4912 -0.0195
31775SOL    HW2  264   9.632   2.993  11.191  0.7509 -1.5976  0.6331
31776SOL     OW  265   5.648   8.719   9.797  0.8285 -0.5078 -0.2126
31776SOL    HW1  266   5.610   8.753   9.878  1.0515 -1.4336  0.2965
31776SOL    HW2  267   5.650   8.625   9.810  1.9016 -0.5824 -0.8442
31777SOL     OW  268   6.668   3.993  10.576 -0.1493 -0.5247  0.4764
31777SOL    HW1  269   6.578   3.975  10.549 -0.2350 -0.3350  0.6346
31777SOL    HW2  270   6.721   3.967  10.501 -0.3016 -1.0639  0.5502
31778SOL     OW  271   5.716   6.632   9.188  0.1966  0.1822 -0.0536
31778SOL    HW1  272   5.630   6.652   9.151 -0.9880  3.2979  3.6087
31778SOL    HW2  273   5.773   6.701   9.154  0.0868  0.7318  0.8531
31779SOL     OW  274   1.900   3.110   1.539  0.1976  0.1289  0.0442
31779SOL    HW1  275   1.977   3.057   1.558 -0.1849 -0.3422  0.3162
31779SOL    HW2  276   1.826   3.051   1.552 -0.1951  0.4445 -0.6656
31780SOL     OW  277   1.749   2.767   8.035  0.3920 -0.7146  0.1074
31780SOL    HW1  278   1.828   2.715   8.047  1.4874  1.1637  1.5002
31780SOL    HW2  279   1.777   2.843   7.985 -0.3676  0.2705  1.1190
31781SOL     OW  280   3.676   7.178   7.915  0.3661  0.2976  0.0953
31781SOL    HW1  281   3.607   7.208   7.973 -0.4086  0.9165 -1.1073
31781SOL    HW2  282   3.757   7.194   7.963 -0.3311 -0.9723  1.7572
31782SOL     OW  283  10.867  10.601  11.251 -0.2258 -0.3126  0.0909
31782SOL    HW1  284  10.867  10.612  11.156  2.2274  2.8062  0.2953
31782SOL    HW2  285  10.790  10.648  11.281  0.5871  1.3188 -0.2507
31783SOL     OW  286   5.374   2.184   3.095 -0.6194 -0.2734 -0.4709
31783SOL    HW1  287   5.457   2.146   3.066 -0.5421 -2.4946  2.2405
31783SOL    HW2  288   5.307   2.132   3.051 -0.5896  0.1146 -0.9917
31784SOL     OW  289   2.173   8.514   1.237 -0.5641 -0.4812  0.3981
31784SOL    HW1  290   2.181   8.574   1.311 -2.2305  0.5493 -0.2074
31784SOL    HW2  291   2.152   8.570   1.162  0.3336 -1.5734 -0.7273
31785SOL     OW  292   6.934   6.504   5.468 -0.1778 -0.7598  0.6277
31785SOL    HW1  293   6.846   6.484   5.501 -0.0044 -0.8623  1.0350
31785SOL    HW2  294   6.993   6.480   5.539  0.5658 -4.8305 -1.0669
31786SOL     OW  295   6.974   9.917   6.528  0.3030 -0.2547  0.1012
31786SOL    HW1  296   6.965   9.982   6.598 -0.3420 -0.2173 -0.0051
31786SOL    HW2  297   7.042   9.951   6.471 -0.5039  0.6858 -0.3262
31787SOL     OW  298   2.349   6.272   4.353 -0.6743 -0.5498 -0.2349
31787SOL    HW1  299   2.362   6.179   4.332 -1.7298 -0.6767 -0.3849
31787SOL    HW2  300   2.369   6.278   4.447  2.7142 -0.2427 -0.8623
31788SOL     OW  301   8.999   9.081   3.846 -0.3670  0.3510  0.0126
31788SOL    HW1  302   9.076   9.036   3.812 -0.7406 -1.3161  1.2289
31788SOL    HW2  303   8.930   9.062   3.781 -0.3735 -0.3519  0.2178
31789SOL     OW  304   6.249   6.135   7.088  0.2293  0.0261  0.3011
31789SOL    HW1  305   6.212   6.086   7.015  0.2155  2.8021 -1.7232
31789SOL    HW2  306   6.196   6.215   7.093  2.9221  1.9462  0.3996
31790SOL     OW  307   6.411   6.686   0.971 -0.8312 -0.0933 -0.0435
31790SOL    HW1  308   6.462   6.694   1.052  0.8393 -1.6336 -0.8637
31790SOL    HW2  309   6.457   6.743   0.909 -2.5122  1.6394  0.2048
31791SOL     OW  310   3.002   6.705   1.282  0.4993 -0.0668  0.3616
31791SOL    HW1  311   3.002   6.628   1.338 -0.0859 -0.0071  0.4507
31791SOL    HW2  312   3.021   6.672   1.194  2.9528  0.0133  0.7965
31792SOL     OW  313  11.110   4.285   7.547 -0.1143 -0.3921  0.3338
31792SOL    HW1  314  11.188   4.236   7.573 -0.0211 -0.0648  0.6874
31792SOL    HW2  315  11.067   4.308   7.630  1.1320  2.2363  0.3600
31793SOL     OW  316  10.070   7.463  11.182 -0.4756 -0.5215 -0.0442
31793SOL    HW1  317  10.114   7.529  11.129 -0.2732  0.2029  0.9857
31793SOL    HW2  318  10.122   7.458  11.262 -2.2518  0.3878  1.2441
31794SOL     OW  319   4.628   9.966   5.510  0.1214 -0.5264 -0.6752
31794SOL    HW1  320   4.651   9.920   5.591  0.0351 -0.6849 -0.7415
31794SOL    HW2  321   4.644  10.058   5.531  1.3425 -0.6710 -0.8895
31795SOL     OW  322   1.629   6.620   5.228 -0.6179 -0.4358  0.2715
31795SOL    HW1  323   1.601   6.623   5.320 -0.0743 -3.0152  0.5792
31795SOL    HW2  324   1.724   6.612   5.232 -0.3150  1.8426 -0.6423
31796SOL     OW  325   6.297   3.930   2.834  0.3085 -0.2037  0.5730
31796SOL    HW1  326   6.277   3.859   2.772 -2.0955  1.0343 -0.2024
31796SOL    HW2  327   6.386   3.912   2.863  0.0050 -3.2129 -0.0081
31797SOL     OW  328   5.779   3.439   8.175 -0.5537  0.3098  0.4432
31797SOL    HW1  329   5.789   3.351   8.212 -0.6272 -0.7775 -1.9655
31797SOL    HW2  330   5.832   3.438   8.096  0.5116  2.9138  1.0392
31798SOL     OW  331  11.234   9.867   0.836  0.1256 -0.2894  0.1417
31798SOL    HW1  332  11.206   9.958   0.839 -0.5075 -0.5193  1.7259
31798SOL    HW2  333  11.240   9.840   0.927 -1.1715 -2.2698 -0.2947
31799SOL     OW  334   2.341   6.974   9.821  0.2391 -0.4379 -0.8064
31799SOL    HW1  335   2.410   6.941   9.763 -0.6401 -0.2836 -1.9799
31799SOL    HW2  336   2.354   7.069   9.822  1.4463 -0.5733  0.8536
31800SOL     OW  337  11.043  10.448   4.720  0.1808 -0.1789 -1.0489
31800SOL    HW1  338  10.969  10.469   4.663  0.1198  0.7742 -0.6397
31800SOL    HW2  339  11.100  10.525   4.715  1.4381 -1.1037 -1.7776
31801SOL     OW  340   1.467  10.821   3.814 -0.5140  0.1583 -0.4092
31801SOL    HW1  341   1.376  10.795   3.800 -1.2627  1.6221  1.2331
31801SOL    HW2  342   1.498  10.848   3.728 -1.5131 -0.7120 -1.0631
31802SOL     OW  343   2.465   1.603   9.566  0.8324  0.6768 -0.5033
31802SOL    HW1  344   2.534   1.580   9.628  0.9229  0.7131 -0.5919
31802SOL    HW2  345   2.392   1.631   9.621  0.9713  0.8697 -0.4173
31803SOL     OW  346   5.416   3.064   1.151 -0.0219  0.4156 -0.0125
31803SOL    HW1  347   5.386   2.973   1.152 -0.7130  0.6121  2.4394
31803SOL    HW2  348   5.354   3.111   1.207 -0.2772  2.6455 -2.0114
31804SOL     OW  349   3.722   7.496   4.237  0.0533  0.6961  0.3999
31804SOL    HW1  350   3.794   7.445   4.276 -0.1140  0.1365 -0.0161
31804SOL    HW2  351   3.702   7.451   4.155 -0.2981  1.2660  0.1675
31805SOL     OW  352   7.552   4.193   0.527 -0.1448 -0.3978  0.1229
31805SOL    HW1  353   7.633   4.181   0.578  0.0043 -1.0655 -0.2570
31805SOL    HW2  354   7.486   4.215   0.593  0.1946 -0.5487  0.5213
31806SOL     OW  355  10.009   6.091  11.189 -0.0268  0.2054 -0.0698
31806SOL    HW1  356  10.043   6.007  11.158 -0.5387  0.1790 -0.5572
31806SOL    HW2  357  10.045   6.155  11.128 -0.2372  0.2622 -0.1326
31807SOL     OW  358   7.581   4.652   8.001 -0.6447  0.4692 -0.1154
31807SOL    HW1  359   7.651   4.590   8.019 -1.9412 -0.7993  0.7749
31807SOL    HW2  360   7.581   4.711   8.077  0.0993  1.1026 -0.6006
31808SOL     OW  361   8.288   4.483   8.447  0.4693 -0.0666 -0.0287
31808SOL    HW1  362   8.350   4.434   8.392  1.1626 -0.3021  0.9369
31808SOL    HW2  363   8.331   4.488   8.532 -1.4846 -1.5215  1.1106
31809SOL     OW  364   9.946  10.154   5.014  0.5601  0.1802  0.4326
31809SOL    HW1  365   9.855  10.155   5.044 -0.2242  1.4677 -1.7549
31809SOL    HW2  366   9.996  10.186   5.088 -0.9800  0.9921  1.1675
31810SOL     OW  367   1.209   8.467   5.415 -0.0439  0.2949  0.0111
31810SOL    HW1  368   1.218   8.559   5.392  0.1162  1.0577  2.7799
31810SOL    HW2  369   1.165   8.468   5.500 -0.5388 -2.2160 -0.1490
31811SOL     OW  370  10.978   3.221   5.954  0.5243  0.3666  0.8771
31811SOL    HW1  371  10.949   3.215   6.045  1.4982  0.7936  1.2272
31811SOL    HW2  372  10.898   3.240   5.904 -0.2160 -0.9780  1.4905
31812SOL     OW  373   3.047   0.299   7.247  0.4748 -0.0754 -0.7186
31812SOL    HW1  374   2.998   0.344   7.315  0.1722  1.5839 -1.9850
31812SOL    HW2  375   3.107   0.241   7.295 -1.1232 -0.4810  0.8847
31813SOL     OW  376  11.183   8.126  11.316  0.1923 -0.0761 -0.7869
31813SOL    HW1  377  11.127   8.058  11.352  0.7776 -0.2736 -0.2465
31813SOL    HW2  378  11.222   8.087  11.238  1.5848 -0.8708  0.2522
31814SOL     OW  379   0.730   8.341   5.129  0.0882 -0.2943 -0.0846
31814SOL    HW1  380   0.657   8.286   5.158  0.0767 -0.4096 -0.3270
31814SOL    HW2  381   0.692   8.428   5.117  0.0029 -0.3395 -0.1478
31815SOL     OW  382   1.926   5.002   1.481 -0.5045  0.5127  0.2356
31815SOL    HW1  383   1.985   4.969   1.414 -1.0089  0.7090 -0.3117
31815SOL    HW2  384   1.840   4.967   1.457 -0.4554 -0.6502  1.6101
31816SOL     OW  385   0.312   6.765   6.352 -0.3712 -0.1495 -0.5086
31816SOL    HW1  386   0.324   6.818   6.274  0.4930 -0.5412 -0.6528
31816SOL    HW2  387   0.337   6.823   6.424 -0.3126 -0.0733 -0.5904
31817SOL     OW  388   3.073   7.466  11.061 -0.1179  0.2630 -0.2774
31817SOL    HW1  389   3.147   7.525  11.056 -1.0964  1.4917 -0.8938
31817SOL    HW2  390   3.006   7.515  11.110 -1.3531  0.1586 -1.7869
31818SOL     OW  391   6.907   9.507  10.946  0.4685  0.0381 -0.3378
31818SOL    HW1  392   6.983   9.449  10.944 -0.1405 -0.7835 -0.2027
31818SOL    HW2  393   6.851   9.471  11.014  0.3954  1.2110  0.2469
31819SOL     OW  394   4.519   7.663   7.422 -0.3689  0.4497  0.3278
31819SOL    HW1  395   4.611   7.639   7.412 -0.5089 -0.5284  1.1889
31819SOL    HW2  396   4.515   7.709   7.506 -0.9430 -1.3128  1.3405
31820SOL     OW  397   6.491  11.500  10.206  0.2171 -0.1696 -0.3945
31820SOL    HW1  398   6.463  11.589  10.187 -0.1266 -0.3336 -0.6755
31820SOL    HW2  399   6.586  11.503  10.201  0.3061  0.5513  1.2409
31821SOL     OW  400   1.680   1.643   0.275  0.7028 -0.0120  0.2074
31821SOL    HW1  401   1.754   1.695   0.306 -0.2360  0.0614  2.5415
31821SOL    HW2  402   1.645   1.693   0.202  2.7405  0.0895 -0.7626
31822SOL     OW  403   3.584   5.671  10.614  0.3010 -0.2085  0.3032
31822SOL    HW1  404   3.559   5.738  10.550  1.1269 -0.3291 -0.1571
31822SOL    HW2  405   3.679   5.666  10.608  0.5557  0.7601  2.5425
31823SOL     OW  406   5.802   9.542   8.370  0.3294  0.4329  0.3323
31823SOL    HW1  407   5.840   9.593   8.298 -0.1543  0.2772 -0.0337
31823SOL    HW2  408   5.856   9.463   8.374  0.3191  0.4158  0.1075
31824SOL     OW  409   4.741  10.929   7.000 -0.3359  1.1778  0.2215
31824SOL    HW1  410   4.749  10.926   7.095 -0.2481  2.2087  0.2661
31824SOL    HW2  411   4.827  10.960   6.970  0.1196 -0.5263 -0.3118
31825SOL     OW  412   8.849  10.089   8.161  0.0700  0.5482 -0.5992
31825SOL    HW1  413   8.831  10.177   8.196  0.4022  0.5658 -0.4635
31825SOL    HW2  414   8.773  10.068   8.108 -1.0125  0.0188  1.0843
31826SOL     OW  415   8.985   2.548   5.027 -0.0658  0.0054 -0.5296
31826SOL    HW1  416   9.005   2.586   4.942 -0.3016  0.3304 -0.4437
31826SOL    HW2  417   8.945   2.620   5.077 -0.0310 -0.2104 -0.1843
31827SOL     OW  418   9.695   5.368   3.730  0.3623  0.2711  0.1762
31827SOL    HW1  419   9.643   5.289   3.713 -0.5910 -0.4166  4.8146
31827SOL    HW2  420   9.780   5.334   3.760  1.5755  1.2578 -1.9359
31828SOL     OW  421   4.198   4.922   1.952  0.3194 -0.3208 -0.0490
31828SOL    HW1  422   4.135   4.930   2.024 -1.2737  1.0754 -1.5008
31828SOL    HW2  423   4.283   4.937   1.993 -0.6139  1.4304  1.4101
31829SOL     OW  424   8.777   6.541   6.538 -0.0126 -0.1092 -0.2820
31829SOL    HW1  425   8.760   6.592   6.617  0.4443 -0.6635  0.1904
31829SOL    HW2  426   8.694   6.497   6.520  0.1963 -0.9352  0.6213
31830SOL     OW  427  10.172   4.419   9.185 -0.2461 -0.3655  0.6014
31830SOL    HW1  428  10.110   4.456   9.121 -0.3447 -1.3875  0.0916
31830SOL    HW2  429  10.160   4.473   9.263  0.0886  1.0910 -0.3216
31831SOL     OW  430   2.954   9.414   1.524  0.2117  0.2377  0.5231
31831SOL    HW1  431   3.000   9.354   1.582  1.5571  2.3958  1.8172
31831SOL    HW2  432   3.022   9.471   1.488 -0.7338 -0.2976 -2.3757
31832SOL     OW  433   1.993   4.797   9.711  0.2377 -0.1785  0.1565
31832SOL    HW1  434   1.983   4.738   9.786 -2.0410 -1.8853 -1.3207
31832SOL    HW2  435   1.999   4.738   9.635 -0.5760  1.4626 -1.2678
31833SOL     OW  436   1.446   2.874   2.137  0.0452  0.0389  0.6671
31833SOL    HW1  437   1.460   2.943   2.072 -0.3436 -1.0272 -0.6076
31833SOL    HW2  438   1.524   2.819   2.131  0.1821  0.1486  1.3901
31834SOL     OW  439  11.677  10.811   4.878  0.4588 -0.1116 -0.0908
31834SOL    HW1  440  11.730  10.821   4.799  0.1303 -1.6255 -0.5555
31834SOL    HW2  441  11.721  10.863   4.944  0.2204  1.9750 -1.4948
31835SOL     OW  442  10.596   8.054   0.797 -0.2636 -0.0884 -0.4442
31835SOL    HW1  443  10.643   8.132   0.766  2.0432 -1.2750 -0.1295
31835SOL    HW2  444  10.631   8.038   0.884 -3.3022  0.5029  1.0287
31836SOL     OW  445   9.751   2.181   6.555 -0.0864 -0.3528  0.0245
31836SOL    HW1  446   9.778   2.096   6.588  0.3358 -0.2818 -0.1279
31836SOL    HW2  447   9.826   2.239   6.573 -0.1140 -0.1625 -0.4468
31837SOL     OW  448   0.912   0.374   5.078  0.1676  0.4845  0.1992
31837SOL    HW1  449   0.884   0.291   5.116 -0.2921  0.2746 -0.5804
31837SOL    HW2  450   0.897   0.363   4.984  0.5125  1.2916  0.0479
31838SOL     OW  451   4.991  10.705   6.340  0.7356  0.7502  0.1681
31838SOL    HW1  452   4.905  10.743   6.351 -0.5561 -2.0093  0.5408
31838SOL    HW2  453   5.003  10.696   6.246  0.3259  0.5404  0.1374
31839SOL     OW  454   4.058   0.535   5.467 -0.0579  0.2936  0.0279
31839SOL    HW1  455   4.037   0.626   5.486  1.3131  0.4260  1.0243
31839SOL    HW2  456   4.071   0.495   5.553  0.6835 -0.5005 -0.4412
31840SOL     OW  457   2.883   2.254   0.397  0.0048  0.1083  0.0728
31840SOL    HW1  458   2.939   2.299   0.460 -0.1405  2.1038 -1.1246
31840SOL    HW2  459   2.938   2.184   0.363  0.3442 -0.5165  1.8122
31841SOL     OW  460   0.040   4.329   1.459 -0.6219  0.0568 -0.3686
31841SOL    HW1  461  -0.006   4.257   1.416  0.1253 -0.3761 -0.4566
31841SOL    HW2  462   0.046   4.301   1.551 -1.5232  0.6259 -0.1236
31842SOL     OW  463   1.108   8.481   0.149 -0.1515  0.0682 -0.2769
31842SOL    HW1  464   1.196   8.463   0.116  0.1627  0.3522  0.3969
31842SOL    HW2  465   1.103   8.433   0.232 -1.2158 -1.3072 -1.0881
31843SOL     OW  466   9.461   4.093  10.016 -0.3694 -0.4854  0.1475
31843SOL    HW1  467   9.427   4.119  10.101  0.7365 -0.9184  0.7471
31843SOL    HW2  468   9.406   4.019   9.989 -0.7271 -0.3416  0.4793
31844SOL     OW  469   4.973   2.235   0.378 -0.0052 -0.1754 -0.0478
31844SOL    HW1  470   5.044   2.293   0.354 -1.0127  0.2659 -2.0958
31844SOL    HW2  471   4.975   2.165   0.313 -1.3847 -0.2083 -0.0856
31845SOL     OW  472   7.572   0.057   3.417  0.3391 -0.1608 -0.1326
31845SOL    HW1  473   7.643   0.111   3.381  1.0293 -2.2006 -2.0574
31845SOL    HW2  474   7.495   0.082   3.367  0.9219 -1.7298 -1.9166
31846SOL     OW  475  11.440   5.441   3.629 -0.3246  0.0946 -0.0876
31846SOL    HW1  476  11.487   5.520   3.600  1.4708 -1.0774 -0.5023
31846SOL    HW2  477  11.454   5.438   3.724 -1.9346  1.1970  0.2345
31847SOL     OW  478   5.369   1.979   8.437 -0.4386 -0.0811  0.0724
31847SOL    HW1  479   5.368   2.064   8.393 -0.8844 -0.7297 -1.2427
31847SOL    HW2  480   5.284   1.940   8.416 -0.4610 -0.6343  1.1075
31848SOL     OW  481   0.203   5.257   7.234  0.0538  0.4083 -0.2174
31848SOL    HW1  482   0.227   5.227   7.322  1.0070  0.6857 -0.3806
31848SOL    HW2  483   0.107   5.249   7.232  0.0508  0.0786  0.7254
31849SOL     OW  484   7.490   3.104   9.003 -0.1741  0.2558  0.0182
31849SOL    HW1  485   7.422   3.114   9.070 -0.2697  2.6320 -0.3485
31849SOL    HW2  486   7.467   3.169   8.936  0.5349 -1.2935 -1.8196
31850SOL     OW  487   2.199   0.538   1.861 -0.3401 -0.0804  0.1524
31850SOL    HW1  488   2.185   0.627   1.895 -1.2225 -0.7132  1.5782
31850SOL    HW2  489   2.125   0.488   1.895  0.6171 -1.5712  0.1437
31851SOL     OW  490   8.763   7.174   0.122 -0.6762  0.1802 -0.0128
31851SOL    HW1  491   8.674   7.152   0.148 -1.2555  1.7620 -0.6080
31851SOL    HW2  492   8.780   7.259   0.163  0.0680  0.5198 -0.9964
31852SOL     OW  493  10.935   1.826   3.236 -0.1811 -0.4859 -0.3933
31852SOL    HW1  494  10.907   1.910   3.273 -0.8132 -0.5626 -0.6769
31852SOL    HW2  495  11.010   1.847   3.182  0.2060 -0.2375  0.2325
31853SOL     OW  496   6.841   2.316   3.006 -0.3547 -0.6087 -0.2823
31853SOL    HW1  497   6.784   2.384   2.969 -0.1690 -1.0562 -1.4279
31853SOL    HW2  498   6.830   2.241   2.948  2.7854 -0.1475 -1.6840
31854SOL     OW  499  11.552   3.749   7.671 -0.7585  0.4843  0.1587
31854SOL    HW1  500  11.463   3.745   7.635 -0.8097  0.4209  0.2896
31854SOL    HW2  501  11.539   3.759   7.765 -0.6254  0.7230  0.1508
31855SOL     OW  502   6.793   3.365  11.188  0.5634 -0.3919  0.8342
31855SOL    HW1  503   6.753   3.403  11.266 -0.6691  1.0831 -0.4658
31855SOL    HW2  504   6.720   3.325  11.140  1.0620 -0.0960 -0.2093
31856SOL     OW  505   4.270   3.257   6.614  0.3222  0.8697  0.4857
31856SOL    HW1  506   4.202   3.258   6.547 -1.7593 -0.1670  2.4418
31856SOL    HW2  507   4.293   3.349   6.626  0.4966  1.1084 -1.3382
31857SOL     OW  508   5.217   3.264   3.775 -0.6486 -0.5071  0.1036
31857SOL    HW1  509   5.205   3.196   3.709 -1.8861 -1.3157  1.1069
31857SOL    HW2  510   5.214   3.217   3.859 -2.0694  0.8102  0.8435
31858SOL     OW  511   2.308   5.400  10.680 -1.0307 -0.1653  0.0446
31858SOL    HW1  512   2.378   5.390  10.745 -1.3229  2.0470  0.7794
31858SOL    HW2  513   2.350   5.383  10.596  0.4414  1.1797  0.4626
31859SOL     OW  514   5.389   6.339   8.604  0.4205 -0.1963 -0.1210
31859SOL    HW1  515   5.356   6.320   8.516 -1.5599 -2.3592  0.9795
31859SOL    HW2  516   5.323   6.395   8.643  0.4515 -0.5874  0.5081
31860SOL     OW  517  10.906   2.761   8.187 -0.3296 -0.3987 -0.0942
31860SOL    HW1  518  10.948   2.681   8.218 -1.7785 -1.1118  0.1286
31860SOL    HW2  519  10.978   2.821   8.169  0.7236 -0.8918  2.0971
31861SOL     OW  520  10.963   8.363   1.886  0.1776 -0.6604  0.0884
31861SOL    HW1  521  10.890   8.423   1.900  2.4597  2.2699  0.4902
31861SOL    HW2  522  10.965   8.309   1.966 -1.3516 -0.6650  0.1604
31862SOL     OW  523  10.786   1.715  10.686 -0.1164  0.0805  0.8101
31862SOL    HW1  524  10.753   1.719  10.597  2.3535  0.2550 -0.1889
31862SOL    HW2  525  10.752   1.632  10.721 -2.3244  0.7092  0.2739
31863SOL     OW  526   1.477   4.851   7.301  0.1778 -0.5280  0.8557
31863SOL    HW1  527   1.420   4.905   7.246  0.5392  0.4174  1.3817
31863SOL    HW2  528   1.433   4.766   7.304 -0.9369  0.0246  0.8264
31864SOL     OW  529  11.583   6.819   7.273  0.4208  0.1081  0.1215
31864SOL    HW1  530  11.625   6.905   7.265 -1.3189  1.2612  2.1585
31864SOL    HW2  531  11.572   6.807   7.367 -0.6407 -1.7010 -0.1951
31865SOL     OW  532   5.243   4.156   6.704 -0.1873 -0.2908 -0.6922
31865SOL    HW1  533   5.261   4.065   6.679 -0.6289 -0.4050 -0.5948
31865SOL    HW2  534   5.153   4.155   6.738 -0.4161  0.3007 -1.2715
31866SOL     OW  535   7.802   2.491  11.314  0.3153  0.0650  0.4297
31866SOL    HW1  536   7.835   2.550  11.246 -0.7652  1.4701  1.0741
31866SOL    HW2  537   7.877   2.477  11.373  0.6222  0.6818  0.1906
31867SOL     OW  538   7.016   4.794   2.723 -0.4296  0.2793  0.4714
31867SOL    HW1  539   6.967   4.734   2.779 -1.1646  1.2891  0.9430
31867SOL    HW2  540   6.964   4.875   2.724  1.4972  1.5719  1.3853
31868SOL     OW  541   5.253  10.637   8.654 -0.2388  0.4560 -0.1827
31868SOL    HW1  542   5.186  10.701   8.629 -1.3460 -0.9395 -0.9616
31868SOL    HW2  543   5.270  10.587   8.574  1.1950  0.2794  0.2018
31869SOL     OW  544   1.937  10.842   1.525 -0.3543  0.3892 -0.1642
31869SOL    HW1  545   2.002  10.833   1.595 -0.1837  0.1585 -0.3521
31869SOL    HW2  546   1.978  10.900   1.462 -0.7939  1.1858  0.2621
31870SOL     OW  547   2.270   1.170   8.554 -0.2883 -0.2244  0.0169
31870SOL    HW1  548   2.319   1.196   8.632  0.2069 -1.1665  0.0365
31870SOL    HW2  549   2.328   1.193   8.481  0.1575 -1.2452  0.0350
31871SOL     OW  550   9.749   6.493   6.617 -0.0959  0.2076  0.3646
31871SOL    HW1  551   9.690   6.427   6.580  1.0166  1.9287 -5.4258
31871SOL    HW2  552   9.692   6.568   6.634 -0.2935  0.3752 -0.9232
31872SOL     OW  553   8.268   6.514   8.393 -0.5621 -0.1288  0.1319
31872SOL    HW1  554   8.346   6.470   8.359 -0.4010  0.3381 -0.1228
31872SOL    HW2  555   8.284   6.524   8.486 -1.3709 -2.1773  0.5452
31873SOL     OW  556   4.224   6.988   1.112 -0.5902  0.2805  0.0576
31873SOL    HW1  557   4.136   7.025   1.102 -0.3446  0.5622 -1.2714
31873SOL    HW2  558   4.281   7.064   1.122 -0.4158  0.1276  0.2242
31874SOL     OW  559   7.088   3.774   6.357  0.3949 -0.6909  0.0720
31874SOL    HW1  560   7.066   3.729   6.276  0.2643 -1.0559  0.3058
31874SOL    HW2  561   7.154   3.838   6.332 -0.6544  0.1866 -0.5956
31875SOL     OW  562   5.794   1.213   7.430 -0.2781 -0.5561  0.2535
31875SOL    HW1  563   5.879   1.240   7.395 -0.8092 -0.2032 -0.8032
31875SOL    HW2  564   5.793   1.118   7.421  0.2199 -0.6202  0.8004
31876SOL     OW  565   2.612   1.283   1.968 -0.6258  0.4139 -0.5581
31876SOL    HW1  566   2.625   1.189   1.976  0.7504  0.4574 -1.7765
31876SOL    HW2  567   2.638   1.319   2.053 -0.0779 -0.2027 -0.4625
31877SOL     OW  568   0.390  11.320  11.549 -0.2214  0.2214 -0.2263
31877SOL    HW1  569   0.327  11.366  11.605 -2.3132 -0.5326 -1.7973
31877SOL    HW2  570   0.351  11.324  11.461  0.7270 -2.3529 -0.8564
31878SOL     OW  571   8.984   0.689  10.733 -0.2898  0.1701 -0.3688
31878SOL    HW1  572   9.027   0.773  10.752  0.3386 -0.4390  1.0034
31878SOL    HW2  573   9.037   0.624  10.779 -2.5588 -0.6580  1.2296
31879SOL     OW  574   7.868   0.613   3.073 -0.1942 -0.2544  0.1856
31879SOL    HW1  575   7.922   0.596   3.151  0.6268  1.4880  0.0441
31879SOL    HW2  576   7.922   0.671   3.019 -0.9427 -1.0426 -1.4833
31880SOL     OW  577   5.459   6.577   9.944 -0.3321  0.3818  0.0307
31880SOL    HW1  578   5.429   6.539   9.862 -1.9360  0.5929  0.4868
31880SOL    HW2  579   5.519   6.511   9.980  0.9809  0.6016 -1.6012
31881SOL     OW  580  10.596   2.199   2.764  0.1058 -0.4880 -0.1176
31881SOL    HW1  581  10.541   2.270   2.730  1.0633  0.1570 -0.3375
31881SOL    HW2  582  10.661   2.243   2.819  1.8820 -0.9526 -1.7424
31882SOL     OW  583   9.223   0.857  11.455 -0.2842 -0.3202 -0.0427
31882SOL    HW1  584   9.150   0.888  11.510  0.7943 -0.7135  1.6730
31882SOL    HW2  585   9.193   0.771  11.424 -0.3860 -0.7032  1.0506
31883SOL     OW  586   3.616  11.038   0.137  0.2344 -0.0154 -0.2546
31883SOL    HW1  587   3.534  11.001   0.170 -1.3089  1.9079 -1.7225
31883SOL    HW2  588   3.652  11.086   0.212 -0.1281 -0.5996  0.3112
31884SOL     OW  589   7.356   9.455   5.945 -0.1881  0.4670 -0.3228
31884SOL    HW1  590   7.288   9.388   5.937  0.3203 -0.7580  3.3817
31884SOL    HW2  591   7.309   9.533   5.975 -0.2194  0.2302  0.2560
31885SOL     OW  592   6.217   3.015   4.662 -0.3518  0.1747  0.0049
31885SOL    HW1  593   6.293   3.043   4.611 -0.0329  1.7027  1.2686
31885SOL    HW2  594   6.143   3.057   4.619 -0.4267 -0.6686 -0.7394
31886SOL     OW  595   7.437   8.759   2.874  0.6344 -0.5634 -0.0867
31886SOL    HW1  596   7.345   8.783   2.887  1.1859  1.4931  0.3861
31886SOL    HW2  597   7.472   8.754   2.963  1.2814 -0.0017 -0.3053
31887SOL     OW  598   4.122   8.096   2.962  0.0345  0.0705 -0.3674
31887SOL    HW1  599   4.072   8.042   2.901  1.5081 -0.4829 -1.1331
31887SOL    HW2  600   4.196   8.041   2.988  0.5026  1.0194  0.3853
31888SOL     OW  601  10.852   0.312   0.525 -0.1993  0.5669 -0.5854
31888SOL    HW1  602  10.780   0.371   0.544 -1.0109 -0.5677 -0.0477
31888SOL    HW2  603  10.882   0.338   0.438  0.0217  2.3004 -0.0123
31889SOL     OW  604   8.858   8.248   1.869  0.3277 -0.2971  0.3251
31889SOL    HW1  605   8.797   8.281   1.803 -1.8436 -0.9796  1.8851
31889SOL    HW2  606   8.905   8.325   1.899 -0.7169  0.4771  0.0157
31890SOL     OW  607   3.700   1.124  10.143 -0.3596  0.3790  0.1026
31890SOL    HW1  608   3.717   1.109  10.236 -1.2101  0.5793  0.3015
31890SOL    HW2  609   3.674   1.215  10.137 -0.3984  0.3437 -0.3197
31891SOL     OW  610   5.733   3.204   9.281  0.1926  0.1109 -0.3922
31891SOL    HW1  611   5.671   3.148   9.235 -0.9902  2.8108 -2.3708
31891SOL    HW2  612   5.699   3.209   9.371  0.1071 -1.8762 -0.2695
31892SOL     OW  613   4.643   4.619   9.496  0.0171  0.5831  0.1270
31892SOL    HW1  614   4.681   4.574   9.571  1.2402  1.4607  0.0545
31892SOL    HW2  615   4.708   4.610   9.427 -1.0616 -0.1546 -0.8496
31893SOL     OW  616  11.085   2.830   7.572 -0.4082  0.3532 -0.3166
31893SOL    HW1  617  11.003   2.862   7.535 -0.8610  0.2512  0.5872
31893SOL    HW2  618  11.112   2.761   7.511 -1.4544 -0.2213 -0.1569
31894SOL     OW  619   4.441   6.522   9.727 -0.6951 -0.0680 -0.1818
31894SOL    HW1  620   4.458   6.446   9.671  0.7603 -0.7453  1.1076
31894SOL    HW2  621   4.504   6.588   9.698  0.3234 -0.5495  0.8151
31895SOL     OW  622   5.484   6.044   5.666 -0.9105 -0.2706 -0.8319
31895SOL    HW1  623   5.535   5.981   5.615  1.2802  1.1937 -0.6048
31895SOL    HW2  624   5.411   6.068   5.610 -0.4675 -1.2561 -1.8627
31896SOL     OW  625   9.183   9.281   1.341  0.3412  0.1348 -0.6185
31896SOL    HW1  626   9.236   9.313   1.414  1.5704  0.3780 -1.5676
31896SOL    HW2  627   9.181   9.186   1.353  0.1398  0.2138 -0.0159
31897SOL     OW  628   4.046   2.713   7.022 -0.0370 -0.4072  0.3997
31897SOL    HW1  629   4.089   2.741   6.941  0.5112  0.1604  0.8716
31897SOL    HW2  630   4.043   2.617   7.016 -1.1617 -0.3229 -0.8559
31898SOL     OW  631   5.068   5.937   3.550 -0.2323 -0.3733  0.1127
31898SOL    HW1  632   5.100   5.894   3.471 -0.6021 -0.3391 -0.0592
31898SOL    HW2  633   5.087   6.029   3.537 -0.9861 -0.2662 -0.2832
31899SOL     OW  634   1.225   0.100   0.618  0.5212 -0.3437 -0.6317
31899SOL    HW1  635   1.158   0.036   0.594 -1.1382  0.7071  0.9515
31899SOL    HW2  636   1.258   0.133   0.534 -3.3815  1.5424 -1.6744
31900SOL     OW  637   2.946   3.206   2.448  0.3261  0.2341  0.3491
31900SOL    HW1  638   2.994   3.288   2.438 -0.4247  0.6869  0.3906
31900SOL    HW2  639   2.858   3.233   2.473 -0.0176 -0.5751  0.0304
31901SOL     OW  640   9.012   2.840  11.596 -0.2505  0.2468  0.2725
31901SOL    HW1  641   9.031   2.874  11.508 -0.7180  0.9328  0.4282
31901SOL    HW2  642   8.945   2.899  11.630 -0.0963 -0.0379  1.0806
31902SOL     OW  643  11.323   0.053   8.920  0.4618 -0.0560 -0.1773
31902SOL    HW1  644  11.341   0.038   9.013  0.2104 -0.9129 -0.2584
31902SOL    HW2  645  11.236   0.016   8.907  1.2429 -1.6197 -1.1501
31903SOL     OW  646  11.537   7.381   3.201  0.0318 -0.4337  0.0532
31903SOL    HW1  647  11.606   7.374   3.134 -0.0106 -0.0490 -0.0319
31903SOL    HW2  648  11.488   7.299   3.194  0.5820 -0.7828  0.2229
31904SOL     OW  649   8.515   7.859   8.571  0.5374 -0.1558 -0.0747
31904SOL    HW1  650   8.495   7.865   8.478  0.1713 -1.2876 -0.0890
31904SOL    HW2  651   8.527   7.949   8.600 -1.5140  0.3822 -0.7460
31905SOL     OW  652   1.716   9.268  11.169  0.1986 -0.1004 -0.1681
31905SOL    HW1  653   1.632   9.249  11.211  0.9365 -0.7649  1.0849
31905SOL    HW2  654   1.758   9.332  11.228  0.3277  0.6960 -1.1028
31906SOL     OW  655   6.242   9.660   3.067 -0.8009  0.0308  0.3109
31906SOL    HW1  656   6.287   9.689   3.147 -0.6519 -1.4130  0.7747
31906SOL    HW2  657   6.303   9.680   2.996 -0.0770 -0.4903  0.7757
31907SOL     OW  658   9.559   4.877   2.434 -0.3060  0.2569 -0.5933
31907SOL    HW1  659   9.618   4.947   2.463 -1.8161  1.2026  0.3510
31907SOL    HW2  660   9.614   4.799   2.429  1.0023  1.0904  0.2778
31908SOL     OW  661   4.327  10.788  10.763 -0.2038 -0.1224  0.1436
31908SOL    HW1  662   4.419  10.811  10.769 -0.2437  1.8553 -3.8648
31908SOL    HW2  663   4.290  10.815  10.847  2.4411  1.2525  0.9657
31909SOL     OW  664   6.420   8.730   7.216 -0.9804 -0.1959 -0.0046
31909SOL    HW1  665   6.514   8.741   7.198 -0.3979 -2.8610  0.9215
31909SOL    HW2  666   6.409   8.765   7.304 -0.4225 -1.4624  0.5987
31910SOL     OW  667   6.363   0.033   0.952 -0.6169 -0.5458  0.0962
31910SOL    HW1  668   6.433   0.009   0.892  0.6907 -1.1551  1.7761
31910SOL    HW2  669   6.283   0.000   0.910  0.4328 -2.4726 -0.5226
31911SOL     OW  670  11.374  11.116   2.492 -0.0031 -0.3779 -0.5137
31911SOL    HW1  671  11.306  11.082   2.549 -0.7477  1.9485  0.1296
31911SOL    HW2  672  11.418  11.182   2.545  1.6941 -0.6822 -1.4694
31912SOL     OW  673   8.990   5.111   4.627  0.6688 -0.2975  0.1585
31912SOL    HW1  674   9.037   5.084   4.549 -1.7656  0.3783 -1.6396
31912SOL    HW2  675   8.933   5.037   4.648  1.8001 -0.7689  1.8032
31913SOL     OW  676   6.859  10.216   0.462 -0.0167  0.0719  0.5891
31913SOL    HW1  677   6.919  10.252   0.528  1.6317 -0.0684 -0.7662
31913SOL    HW2  678   6.909  10.146   0.420 -0.7381  0.6098 -1.2663
31914SOL     OW  679   1.168  10.418  11.378  0.2115 -0.5156  0.3140
31914SOL    HW1  680   1.090  10.461  11.413  0.1528 -0.7597  0.4815
31914SOL    HW2  681   1.134  10.346  11.325  0.2440  0.5196 -1.1912
31915SOL     OW  682   3.012   5.364   5.068  0.6633  0.1731  0.3564
31915SOL    HW1  683   3.108   5.367   5.075  0.6969  1.2600 -0.1759
31915SOL    HW2  684   2.993   5.279   5.030  1.5504  0.4973 -0.8972
31916SOL     OW  685   8.717   6.600   5.859 -0.0358 -0.1034 -0.1735
31916SOL    HW1  686   8.741   6.585   5.767 -1.2095 -1.3023 -0.3107
31916SOL    HW2  687   8.726   6.695   5.871 -1.5617  0.3370 -2.0430
31917SOL     OW  688   7.781   1.226   9.848 -0.1322  0.1714 -0.1573
31917SOL    HW1  689   7.788   1.308   9.799  1.3007 -0.5587 -1.2442
31917SOL    HW2  690   7.852   1.231   9.913 -0.2867 -0.0309  0.0281
31918SOL     OW  691   0.891   8.716   7.985 -0.6489  0.3872  0.3482
31918SOL    HW1  692   0.830   8.681   7.920  0.1321 -3.0101  1.2611
31918SOL    HW2  693   0.968   8.741   7.934 -0.6140 -0.8210 -0.2259
31919SOL     OW  694   7.272  11.262   3.679 -0.3871  0.0745  0.0190
31919SOL    HW1  695   7.269  11.168   3.700 -0.5571  0.2460  0.8148
31919SOL    HW2  696   7.299  11.266   3.587 -2.8470 -0.8576 -0.8173
31920SOL     OW  697   2.851   9.990   1.686  0.5479  0.4627 -0.2266
31920SOL    HW1  698   2.882   9.900   1.679  1.9836  0.5705  2.9098
31920SOL    HW2  699   2.759   9.987   1.661  0.3850 -2.0429  0.4567
31921SOL     OW  700   6.579   2.589   2.561 -0.3330  0.4300  0.0289
31921SOL    HW1  701   6.524   2.548   2.495  0.9612 -1.4082  0.0282
31921SOL    HW2  702   6.666   2.593   2.522 -0.2408  2.5926  0.3149
31922SOL     OW  703   9.508   5.840   1.421  0.5989 -0.0629 -0.0488
31922SOL    HW1  704   9.502   5.810   1.511 -0.1500  1.5509  0.4797
31922SOL    HW2  705   9.595   5.881   1.415  0.4088  0.3783  0.1381
31923SOL     OW  706   7.885   8.515  11.367  0.5311 -0.0514 -0.5270
31923SOL    HW1  707   7.891   8.475  11.280 -0.1948 -1.4179  0.0179
31923SOL    HW2  708   7.925   8.451  11.426  1.2662  0.9793  0.1323
31924SOL     OW  709   6.770  11.452   1.302  0.4753  0.3600  0.1789
31924SOL    HW1  710   6.729  11.367   1.286  0.9617 -0.1014  1.3059
31924SOL    HW2  711   6.725  11.512   1.241 -2.3573  0.0493  1.7887
31925SOL     OW  712   4.620  10.712   0.584 -0.3665  0.8439  0.1601
31925SOL    HW1  713   4.556  10.783   0.581 -1.2281  0.1077  0.6909
31925SOL    HW2  714   4.582  10.648   0.645  0.3398 -0.1189 -0.3914
31926SOL     OW  715   5.081   6.756   2.318  0.1940 -0.5020 -0.1343
31926SOL    HW1  716   5.040   6.689   2.371  1.0047 -2.1049 -1.4487
31926SOL    HW2  717   5.060   6.838   2.363 -0.5418 -1.6299  1.6960
31927SOL     OW  718   5.506  10.175  10.779  0.1451  0.5863  0.2579
31927SOL    HW1  719   5.441  10.164  10.848 -1.4193  0.0425 -1.2267
31927SOL    HW2  720   5.524  10.086  10.748  1.8221  0.7036  0.8165
31928SOL     OW  721   3.739   6.426   5.841 -0.0570 -0.1269  0.7028
31928SOL    HW1  722   3.685   6.497   5.806 -1.4294 -1.3436  0.2036
31928SOL    HW2  723   3.677   6.372   5.891  1.2253 -0.2280  2.2505
31929SOL     OW  724   5.945   8.750   7.404  0.3361 -0.4392 -0.1758
31929SOL    HW1  725   5.862   8.717   7.439 -0.0649  0.2062 -0.5093
31929SOL    HW2  726   5.962   8.695   7.327 -0.0512 -0.2339 -0.4105
31930SOL     OW  727   8.021   8.888   1.573  0.0393 -0.4258 -0.9939
31930SOL    HW1  728   8.111   8.918   1.591 -0.4262  0.8331 -0.6123
31930SOL    HW2  729   7.978   8.890   1.658 -0.4335 -0.7511 -1.2234
31931SOL     OW  730   6.956   9.884   3.966 -0.0012  0.0131  0.2048
31931SOL    HW1  731   6.901   9.962   3.961 -0.9673 -0.5723  1.2184
31931SOL    HW2  732   7.007   9.885   3.885  0.5227  2.0612  0.5061
31932SOL     OW  733   9.696   7.053  10.528 -0.5747 -0.2897 -0.0031
31932SOL    HW1  734   9.690   6.970  10.575  2.2681  0.1434  1.3095
31932SOL    HW2  735   9.724   7.028  10.439  2.1667 -0.7744  0.8862
31933SOL     OW  736  11.147   5.673   9.089 -0.3511  0.0807 -1.0060
31933SOL    HW1  737  11.161   5.765   9.066  1.3274  0.2456  0.4675
31933SOL    HW2  738  11.168   5.668   9.182 -1.8581 -1.5301 -0.7029
31934SOL     OW  739  11.190  10.907   2.563 -0.5390 -0.1234  0.1838
31934SOL    HW1  740  11.244  10.831   2.585 -0.4683 -0.3333 -0.7067
31934SOL    HW2  741  11.131  10.876   2.494  0.2370  0.9181 -0.9910
31935SOL     OW  742   4.575   2.330   8.256  0.2628  0.0050 -0.0341
31935SOL    HW1  743   4.554   2.237   8.248  1.0588 -0.2646  0.7847
31935SOL    HW2  744   4.515   2.363   8.323 -0.2128  0.1513 -0.5289
31936SOL     OW  745   6.326   7.209   7.880 -0.0511  0.4190 -0.0588
31936SOL    HW1  746   6.284   7.265   7.945  0.3030  0.1155  0.4424
31936SOL    HW2  747   6.355   7.133   7.929 -0.0373  0.0463 -0.6325
31937SOL     OW  748   7.298   6.435   8.476 -0.3247 -0.2764  0.0322
31937SOL    HW1  749   7.388   6.411   8.498 -0.3170 -0.7870 -0.5326
31937SOL    HW2  750   7.279   6.512   8.530  0.2160 -0.5801  0.6633
31938SOL     OW  751   3.336   8.494   8.669  0.1437 -0.2733 -0.1496
31938SOL    HW1  752   3.346   8.541   8.586 -0.1436  0.9910  0.5156
31938SOL    HW2  753   3.386   8.545   8.732  0.3356 -1.2103  0.4790
31939SOL     OW  754   3.548   6.511   6.620 -0.4689 -0.1651 -0.0009
31939SOL    HW1  755   3.580   6.522   6.709 -0.9290 -1.1154  0.2953
31939SOL    HW2  756   3.510   6.596   6.597 -2.0140 -0.4242  1.3939
31940SOL     OW  757  10.554   3.615   9.139  0.0689  0.5804 -0.4127
31940SOL    HW1  758  10.480   3.560   9.165 -2.8064  1.8720 -4.7642
31940SOL    HW2  759  10.519   3.704   9.137  2.2948  1.5201 -1.0694
31941SOL     OW  760   6.112   9.657   6.778  0.3568  0.0352  0.2317
31941SOL    HW1  761   6.185   9.689   6.830 -0.0675  2.7563 -0.6839
31941SOL    HW2  762   6.151   9.630   6.695  0.6150 -1.1968  0.7263
31942SOL     OW  763   8.768   8.571  11.154  0.9961 -0.1564 -0.3366
31942SOL    HW1  764   8.715   8.645  11.125 -0.6935 -0.5475  1.4942
31942SOL    HW2  765   8.856   8.606  11.165  0.3496  1.4419 -0.0687
31943SOL     OW  766   2.509   7.210   8.417  0.2018 -0.1952  0.1308
31943SOL    HW1  767   2.554   7.284   8.457 -0.1689  0.4963 -0.7045
31943SOL    HW2  768   2.572   7.174   8.355  0.3753 -0.5717  0.5236
31944SOL     OW  769   2.779   3.859   6.022  0.0907  0.6204  0.4225
31944SOL    HW1  770   2.841   3.845   6.093 -1.5137  0.1162  1.8010
31944SOL    HW2  771   2.738   3.943   6.041 -2.4333 -0.7956  1.8662
31945SOL     OW  772   6.652  10.984   8.582  0.3548  0.0998  0.0453
31945SOL    HW1  773   6.709  11.002   8.656 -0.2986  2.4848  0.0731
31945SOL    HW2  774   6.712  10.966   8.509  1.2447  2.5845  0.0553
31946SOL     OW  775   6.511   9.765   2.477 -0.2260 -0.0811 -0.3109
31946SOL    HW1  776   6.444   9.720   2.528  0.3863 -1.2190 -0.4558
31946SOL    HW2  777   6.523   9.710   2.399 -0.5383  1.1663 -1.2742
31947SOL     OW  778   1.496   2.276   6.370  0.2339 -0.1260  0.9853
31947SOL    HW1  779   1.418   2.277   6.315  1.5089 -2.7275 -1.0662
31947SOL    HW2  780   1.535   2.363   6.359 -1.0015  0.3292  0.0045
31948SOL     OW  781   6.329   1.196   3.946 -0.0048 -0.1623 -0.0278
31948SOL    HW1  782   6.379   1.117   3.966  2.1449  0.6747 -1.5753
31948SOL    HW2  783   6.238   1.171   3.957  0.6648 -2.2438  1.4888
31949SOL     OW  784  10.755   3.693   1.169  0.0052 -0.1139 -0.0822
31949SOL    HW1  785  10.758   3.700   1.264  2.3283 -0.5999 -0.0713
31949SOL    HW2  786  10.743   3.600   1.152 -0.2883 -0.0420 -0.2835
31950SOL     OW  787   5.793   1.387   5.590 -0.2209 -0.2747  0.2309
31950SOL    HW1  788   5.783   1.319   5.656 -2.8848  0.3024  0.5376
31950SOL    HW2  789   5.709   1.389   5.545  0.2361  1.9053 -0.6533
31951SOL     OW  790   3.651   7.131   1.720 -0.6107 -0.0996  0.3353
31951SOL    HW1  791   3.632   7.222   1.698 -0.2790  0.0349  0.5904
31951SOL    HW2  792   3.698   7.136   1.803 -1.4887 -0.5699  0.8805
31952SOL     OW  793   9.212   1.002   3.852 -0.0188 -0.2921 -0.0388
31952SOL    HW1  794   9.176   0.917   3.826 -0.7849 -0.0967  0.3642
31952SOL    HW2  795   9.224   0.995   3.947  1.7876 -0.6393 -0.2520
31953SOL     OW  796   4.304   6.531   5.989 -0.0023  0.0358  0.2186
31953SOL    HW1  797   4.395   6.522   6.017  0.4949 -0.0180 -1.3384
31953SOL    HW2  798   4.288   6.456   5.932 -1.6042 -0.9471  1.8315
31954SOL     OW  799   9.874   0.341   9.642  0.1053 -0.3101 -0.5552
31954SOL    HW1  800   9.805   0.374   9.584 -0.4591 -0.2156  0.1509
31954SOL    HW2  801   9.913   0.420   9.680 -0.4165 -0.3994  0.1926
31955SOL     OW  802   0.183   8.583   1.312 -0.4750  0.1848  0.5487
31955SOL    HW1  803   0.259   8.554   1.262 -0.7019  1.1546 -0.4145
31955SOL    HW2  804   0.202   8.560   1.402  1.0935  0.6598  0.3636
31956SOL     OW  805   0.825   6.344   5.730 -0.0472  0.3058  0.0877
31956SOL    HW1  806   0.914   6.349   5.765  0.4435 -0.2460 -1.0108
31956SOL    HW2  807   0.779   6.283   5.788  0.8135 -0.7787 -0.3376
31957SOL     OW  808   3.582   7.820   6.867  0.2127  0.1236 -0.3650
31957SOL    HW1  809   3.543   7.788   6.785  1.2760  0.2088 -0.9216
31957SOL    HW2  810   3.561   7.913   6.869  0.9872  0.3273 -1.0387
31958SOL     OW  811  10.746   3.800   4.359 -0.1353 -0.5786 -0.5024
31958SOL    HW1  812  10.662   3.758   4.378  0.4476 -1.7060 -0.2965
31958SOL    HW2  813  10.782   3.821   4.444  0.0329 -0.6050 -0.5662
31959SOL     OW  814  10.248   9.798   4.659  0.0618  0.0704 -0.2539
31959SOL    HW1  815  10.187   9.795   4.733 -0.3517 -1.9107 -0.6257
31959SOL    HW2  816  10.322   9.745   4.688  0.1113 -0.3154 -1.0842
31960SOL     OW  817   3.441   1.912   0.390  0.3759 -0.1646 -0.0768
31960SOL    HW1  818   3.362   1.967   0.385  0.7032  0.4112  0.7496
31960SOL    HW2  819   3.513   1.974   0.398  0.7785 -0.6988  0.6280
31961SOL     OW  820   4.314  10.484  10.559 -0.2044 -0.2318 -0.3418
31961SOL    HW1  821   4.322  10.493  10.464 -0.0922  0.7631 -0.2545
31961SOL    HW2  822   4.269  10.564  10.587  0.3011 -0.2237  0.5025
31962SOL     OW  823   5.362   9.040   6.582 -0.5659  0.6089 -0.3998
31962SOL    HW1  824   5.293   8.997   6.531 -0.2729  0.9981 -1.1398
31962SOL    HW2  825   5.441   8.989   6.564 -0.3801  0.9807 -0.6674
31963SOL     OW  826   6.835  10.775   1.919  0.1597 -0.3736  0.0578
31963SOL    HW1  827   6.885  10.795   1.997  0.6284 -1.3740  0.0299
31963SOL    HW2  828   6.825  10.680   1.920 -0.1123 -0.3719 -0.9161
31964SOL     OW  829   7.965   2.879   7.527  0.1394 -0.8822  0.0494
31964SOL    HW1  830   8.037   2.868   7.589  0.9891  1.3295 -0.4317
31964SOL    HW2  831   7.997   2.945   7.465 -2.0425 -0.3313 -0.5805
31965SOL     OW  832   3.682   0.201   5.492 -0.1252  0.1699 -0.0877
31965SOL    HW1  833   3.600   0.226   5.536  0.3644  1.1786  0.2794
31965SOL    HW2  834   3.669   0.227   5.400  0.0394  1.0089  0.1132
31966SOL     OW  835   0.990  11.146  10.755  0.0632  0.3330  0.1467
31966SOL    HW1  836   0.997  11.069  10.811 -0.7318  0.5703  0.5828
31966SOL    HW2  837   1.049  11.127  10.681 -1.5402 -1.5538 -0.7479
31967SOL     OW  838   9.043   6.306  10.060  0.2005 -0.5877  0.1224
31967SOL    HW1  839   9.039   6.364   9.984  3.6328 -0.6888 -0.2790
31967SOL    HW2  840   8.987   6.347  10.125 -0.1700  1.3183 -1.3161
31968SOL     OW  841   4.709   9.647  10.981  0.4814 -0.0022 -0.0727
31968SOL    HW1  842   4.797   9.613  10.966  1.0819 -0.4850  3.6013
31968SOL    HW2  843   4.721   9.742  10.991  0.3672  0.0770 -0.6233
31969SOL     OW  844   0.947  10.689  10.546 -0.4581  0.5760  0.6823
31969SOL    HW1  845   0.906  10.695  10.459  1.1364  2.4940  0.0045
31969SOL    HW2  846   1.038  10.666  10.528  0.0172  1.4828  1.8041
31970SOL     OW  847   0.465   1.187   6.914 -0.9878 -0.5111 -0.4883
31970SOL    HW1  848   0.459   1.093   6.930 -0.0030 -0.3780  0.7824
31970SOL    HW2  849   0.395   1.224   6.969  1.0279 -0.2364  2.0899
31971SOL     OW  850   5.708   2.363  11.424  0.3998  0.0826 -0.2228
31971SOL    HW1  851   5.672   2.289  11.375 -2.0259  1.9385 -1.4451
31971SOL    HW2  852   5.796   2.334  11.449 -0.4697 -3.2089 -0.5283
31972SOL     OW  853   9.769   3.201   2.937 -0.4882 -0.2849  0.3970
31972SOL    HW1  854   9.854   3.244   2.937  1.1316 -3.2523 -0.0705
31972SOL    HW2  855   9.719   3.245   2.868  0.8379  1.1284  0.3018
31973SOL     OW  856   0.399  10.813   4.695 -0.7391 -0.3919 -0.3571
31973SOL    HW1  857   0.383  10.839   4.786  1.6768 -0.8707  0.2913
31973SOL    HW2  858   0.382  10.718   4.694 -0.3585 -0.4644 -0.2740
31974SOL     OW  859   3.484   6.052   4.463 -0.3261  0.1474  0.4435
31974SOL    HW1  860   3.483   6.135   4.512  0.4250  0.0162  0.6944
31974SOL    HW2  861   3.417   5.999   4.506 -0.7365  0.5844  0.3531
31975SOL     OW  862   2.068   0.418   9.188 -0.8123 -0.4753 -0.4050
31975SOL    HW1  863   1.990   0.456   9.229 -0.9295 -1.1705  0.0371
31975SOL    HW2  864   2.035   0.371   9.112 -0.9710 -1.5686  0.3066
31976SOL     OW  865   7.284   6.776   6.641  0.0734  0.4533  0.6337
31976SOL    HW1  866   7.221   6.731   6.584  1.0380 -0.8819  0.5796
31976SOL    HW2  867   7.304   6.857   6.594 -0.6034  0.2827  0.0233
31977SOL     OW  868   9.904  11.484   1.525  0.1591  0.0655 -0.0241
31977SOL    HW1  869   9.965  11.512   1.457 -0.4302  1.8276  0.1330
31977SOL    HW2  870   9.960  11.456   1.597  0.8552  2.2062  0.3443
31978SOL     OW  871   2.847   5.861   4.072 -0.3629 -0.2388 -0.6402
31978SOL    HW1  872   2.761   5.854   4.113 -0.3523 -2.3377 -0.8802
31978SOL    HW2  873   2.884   5.943   4.107 -1.7262 -0.2000  0.8147
31979SOL     OW  874   2.778   9.721  10.977  0.5229 -0.4692  0.2398
31979SOL    HW1  875   2.831   9.670  11.038  0.2626  0.3478  1.1646
31979SOL    HW2  876   2.802   9.812  10.993 -0.2806 -0.1699 -0.1690
31980SOL     OW  877   2.961   3.818   3.430  0.6504  0.1190 -0.1231
31980SOL    HW1  878   3.053   3.807   3.454  1.1150  0.0941 -1.7898
31980SOL    HW2  879   2.913   3.779   3.503  2.0028 -1.6721 -0.1108
31981SOL     OW  880  10.013   8.054   0.109 -0.1305  0.1157  0.0880
31981SOL    HW1  881   9.935   8.089   0.065 -1.0454  0.5550  1.9422
31981SOL    HW2  882  10.059   8.132   0.140 -0.9099 -0.1803  2.1464
31982SOL     OW  883   3.112   3.864   1.134 -0.0885 -0.2525  0.1375
31982SOL    HW1  884   3.182   3.920   1.167 -1.0165  2.2680 -1.8271
31982SOL    HW2  885   3.050   3.857   1.207  0.3284  0.8280  0.6149
31983SOL     OW  886  10.833   6.899   1.629 -0.4116  0.2782 -0.1739
31983SOL    HW1  887  10.856   6.821   1.579  1.8074  0.2277  0.8085
31983SOL    HW2  888  10.823   6.968   1.563  4.3627  0.6821 -0.8091
31984SOL     OW  889  10.467   0.053   2.737  0.1252 -0.0504  0.1751
31984SOL    HW1  890  10.541   0.102   2.700 -0.0058  1.3633  1.6525
31984SOL    HW2  891  10.407   0.043   2.664  1.4761 -0.6622 -0.9033
31985SOL     OW  892   9.795   2.106  11.095 -0.2948  0.6335 -0.0521
31985SOL    HW1  893   9.740   2.080  11.022 -1.9570  1.3877  0.8746
31985SOL    HW2  894   9.768   2.195  11.115  2.6048  1.7858 -0.7242
31986SOL     OW  895   9.220  10.310   6.645  0.3588 -0.1911 -0.0209
31986SOL    HW1  896   9.180  10.274   6.724 -0.1170 -0.2086 -0.2666
31986SOL    HW2  897   9.252  10.234   6.597 -0.5110 -0.2926 -0.4669
31987SOL     OW  898   9.091   4.005   4.381 -0.0753 -0.5824  0.2512
31987SOL    HW1  899   9.087   4.074   4.315  0.2605  1.0588  1.8438
31987SOL    HW2  900   9.175   3.961   4.366  0.3123  0.2302 -0.0033
31988SOL     OW  901  10.717  10.729   3.359 -0.5360  0.0699 -0.0986
31988SOL    HW1  902  10.683  10.714   3.271  0.9238 -0.3416 -0.6246
31988SOL    HW2  903  10.641  10.717   3.417 -1.3998 -0.1764 -1.2432
31989SOL     OW  904  11.129   7.831   4.679 -0.6509 -0.0830 -1.0446
31989SOL    HW1  905  11.128   7.739   4.650  0.5486 -0.1016 -1.0458
31989SOL    HW2  906  11.205   7.869   4.636 -1.7095  1.2001 -1.8682
31990SOL     OW  907   8.296   4.510   9.920 -0.1345  0.7663 -0.1344
31990SOL    HW1  908   8.288   4.433   9.863 -0.9298  0.3773  0.4759
31990SOL    HW2  909   8.354   4.481   9.991 -1.3015  0.3388  0.6834
31991SOL     OW  910  11.612   4.510   8.462  0.2245 -0.0090 -0.1336
31991SOL    HW1  911  11.628   4.600   8.490  1.6275 -0.3220  0.1436
31991SOL    HW2  912  11.613   4.459   8.543 -3.3548  0.0182  0.0722
31992SOL     OW  913   4.430   8.843   4.478  0.6646 -0.1575  0.7921
31992SOL    HW1  914   4.417   8.814   4.388  0.3963 -0.4289  0.9177
31992SOL    HW2  915   4.347   8.824   4.522 -0.4867  3.1374  0.2836
31993SOL     OW  916   3.693  10.034   8.373 -0.3649  0.0351  0.0769
31993SOL    HW1  917   3.692   9.962   8.436  0.9352  0.1747  0.2822
31993SOL    HW2  918   3.611  10.082   8.390  0.1808  0.3671  2.0161
31994SOL     OW  919   7.084   8.002   4.561  0.1717 -0.1724 -0.2084
31994SOL    HW1  920   6.995   7.967   4.571  0.5863 -0.8922  1.3394
31994SOL    HW2  921   7.075   8.096   4.579 -0.1504 -0.3945  0.8567
31995SOL     OW  922  11.423   4.987   9.122 -0.5361 -0.5342 -0.3988
31995SOL    HW1  923  11.440   5.071   9.166  1.4799 -1.6456  1.1164
31995SOL    HW2  924  11.338   4.960   9.155 -0.7264  0.4134 -0.0746
31996SOL     OW  925   3.994   2.227   1.093 -0.3544  0.0105 -0.0893
31996SOL    HW1  926   4.031   2.140   1.111  0.4386  0.2477 -0.5019
31996SOL    HW2  927   3.969   2.224   1.001  0.0538  0.3453 -0.2147
31997SOL     OW  928   5.923   5.045   7.033  0.1832 -0.3577 -0.2329
31997SOL    HW1  929   5.941   5.006   7.119 -2.0850 -0.9492  0.0507
31997SOL    HW2  930   5.833   5.077   7.041  0.5710  1.2633 -1.8230
31998SOL     OW  931   6.046   5.894   5.853  0.6590  0.4246 -0.3584
31998SOL    HW1  932   5.952   5.899   5.865  0.8327  0.9795  0.9305
31998SOL    HW2  933   6.060   5.916   5.761 -0.4352  0.6903 -0.4730
31999SOL     OW  934   5.236  10.317   7.322  0.4960 -0.3871 -0.4271
31999SOL    HW1  935   5.255  10.251   7.256  1.3903 -0.7788  0.2081
31999SOL    HW2  936   5.271  10.398   7.286  2.3215 -0.8666  0.1761
32000SOL     OW  937   5.701   0.566   5.808 -0.2644  0.4766 -0.3938
32000SOL    HW1  938   5.696   0.471   5.807 -0.5590  0.4597  1.0469
32000SOL    HW2  939   5.791   0.585   5.782  0.2724 -0.2687  0.8300
32001SOL     OW  940   3.439   5.896   6.820  0.6132 -0.1098  0.2274
32001SOL    HW1  941   3.453   5.854   6.735 -0.0778 -0.6561  0.3702
32001SOL    HW2  942   3.523   5.936   6.842  0.7370  0.2046 -0.8063
32002SOL     OW  943   4.870   9.806   4.865 -0.0713 -0.3211 -0.1199
32002SOL    HW1  944   4.934   9.743   4.898  0.1646 -0.8650 -1.5382
32002SOL    HW2  945   4.914   9.849   4.791 -0.7691  0.4557 -0.1050
32003SOL     OW  946   2.964   7.880   3.040 -0.0024  0.1970  0.0849
32003SOL    HW1  947   2.986   7.810   3.102 -0.1734  0.4709  0.4581
32003SOL    HW2  948   3.032   7.946   3.054  0.4820 -0.1283 -0.6581
32004SOL     OW  949   9.333  10.219   4.224  0.1865  0.4447 -0.2210
32004SOL    HW1  950   9.346  10.124   4.222  0.1889  0.3817  1.3950
32004SOL    HW2  951   9.302  10.241   4.136 -0.5185 -1.1598 -0.4018
32005SOL     OW  952   1.861   7.110   5.939 -0.3448 -0.4635  0.6409
32005SOL    HW1  953   1.886   7.189   5.988 -1.3535 -0.4764  1.1989
32005SOL    HW2  954   1.895   7.038   5.993  1.0828 -0.4281 -0.1549
32006SOL     OW  955   0.425   6.309  10.389 -0.0052  0.1799  0.4402
32006SOL    HW1  956   0.520   6.306  10.405 -0.0756  1.2576  1.1789
32006SOL    HW2  957   0.417   6.296  10.294  0.9866  1.3254  0.1614
32007SOL     OW  958   6.246   9.109   7.613  0.2891  0.2008  0.3675
32007SOL    HW1  959   6.321   9.113   7.553 -1.7140  0.8025 -2.2545
32007SOL    HW2  960   6.239   9.017   7.637  0.9397 -0.1176 -0.6071
32008SOL     OW  961   0.192   7.189  10.634 -0.1559  0.4578 -0.4253
32008SOL    HW1  962   0.240   7.154  10.709  1.3245  1.7354 -0.7320
32008SOL    HW2  963   0.128   7.121  10.613  1.0919 -1.0372  0.4111
32009SOL     OW  964   7.169  10.832   0.470  0.3424 -0.2690  0.1337
32009SOL    HW1  965   7.168  10.745   0.511 -1.4883  0.7396  2.4813
32009SOL    HW2  966   7.110  10.824   0.396  0.7194 -1.1852 -0.0894
32010SOL     OW  967   2.742   0.965  11.602 -0.4714 -0.3441  0.4761
32010SOL    HW1  968   2.730   0.877  11.566  0.1542  0.2229 -1.1841
32010SOL    HW2  969   2.730   0.953  11.696 -1.4147 -2.0157  0.1916
32011SOL     OW  970  11.102   9.907  10.757 -0.0491  0.0628 -0.0217
32011SOL    HW1  971  11.119   9.900  10.663 -0.5617  1.1773 -0.2129
32011SOL    HW2  972  11.031   9.845  10.774 -0.8235  0.7671 -0.6191
32012SOL     OW  973   6.186   6.721   2.872 -0.2339  0.2521  0.3165
32012SOL    HW1  974   6.251   6.666   2.829 -0.3130 -0.2233  0.7984
32012SOL    HW2  975   6.217   6.810   2.858 -0.5453  0.1484 -1.1987
32013SOL     OW  976   0.656   7.819  11.369  0.0352 -0.5787 -0.1279
32013SOL    HW1  977   0.691   7.835  11.282 -0.5951 -0.7010 -0.4069
32013SOL    HW2  978   0.733   7.820  11.426  0.3985 -0.0545 -0.6198
32014SOL     OW  979  11.094   6.024   2.699  0.3010 -0.3626  0.2444
32014SOL    HW1  980  11.013   5.994   2.740 -1.0219  0.8463 -1.3585
32014SOL    HW2  981  11.121   5.952   2.642  0.1318 -0.6098  0.4749
32015SOL     OW  982   1.044   5.538   4.761 -0.1606  0.3385  0.5235
32015SOL    HW1  983   0.999   5.583   4.833 -1.8677  0.3951 -0.5143
32015SOL    HW2  984   1.000   5.453   4.756 -0.9351  0.7963 -1.2141
32016SOL     OW  985  11.599   4.270   3.630  0.2675 -0.4818 -0.4463
32016SOL    HW1  986  11.514   4.245   3.592  1.1928 -1.6311 -1.8439
32016SOL    HW2  987  11.614   4.359   3.599 -0.9345  0.2167  0.8060
32017SOL     OW  988   6.514   0.202  11.122  0.0090  0.5161  0.0006
32017SOL    HW1  989   6.470   0.174  11.202  1.0444  0.7869  0.6861
32017SOL    HW2  990   6.448   0.254  11.076 -0.2530  1.3610  1.2559
32018SOL     OW  991   0.193   5.220   7.500 -0.4121  0.2281 -0.1993
32018SOL    HW1  992   0.235   5.207   7.585 -2.6124  0.5274  1.0063
32018SOL    HW2  993   0.107   5.255   7.521 -0.2497  2.4110 -2.6667
32019SOL     OW  994   5.807   7.798   8.618 -0.0782 -0.0355  0.2641
32019SOL    HW1  995   5.899   7.806   8.591  0.0260 -2.2512 -0.2416
32019SOL    HW2  996   5.810   7.752   8.702 -0.6600  2.2202  1.5921
32020SOL     OW  997   1.199   2.685   5.588 -0.1054  0.2787  0.0336
32020SOL    HW1  998   1.258   2.696   5.662 -0.0476 -0.8411  0.1785
32020SOL    HW2  999   1.257   2.672   5.513 -0.1563  2.0300 -0.3353
32021SOL     OW 1000   3.807   9.145   1.434 -0.5382  0.3176 -0.0719
32021SOL    HW1 1001   3.745   9.120   1.503  0.1565  1.3792  0.9785
32021SOL    HW2 1002   3.765   9.118   1.353 -0.0472 -3.9538  0.8488
32022SOL     OW 1003  11.317   2.813   4.034 -0.1644 -0.1972 -0.7033
32022SOL    HW1 1004  11.377   2.744   4.060 -0.0672  0.1538  0.0472
32022SOL    HW2 1005  11.249   2.812   4.101 -0.4869  0.0386 -1.0214
32023SOL     OW 1006  11.406   6.066   4.844  0.0293 -0.1703  0.1819
32023SOL    HW1 1007  11.337   6.020   4.795  0.7057 -1.5038  0.4141
32023SOL    HW2 1008  11.358   6.123   4.905 -0.8661 -0.6818 -0.0215
32024SOL     OW 1009   5.386   5.776   8.039 -0.1816  0.2276 -0.0667
32024SOL    HW1 1010   5.421   5.862   8.014  0.8710 -0.1594 -0.0102
32024SOL    HW2 1011   5.440   5.749   8.113 -1.9472  0.4692  1.3667
32025SOL     OW 1012   8.581   3.186   0.142  0.5354 -0.0347 -0.3015
32025SOL    HW1 1013   8.583   3.214   0.051  0.8220 -0.6541 -0.4878
32025SOL    HW2 1014   8.554   3.094   0.139  0.5712 -0.0672  0.2318
32026SOL     OW 1015   9.661   3.091   8.483  0.1964 -0.4219  0.3691
32026SOL    HW1 1016   9.705   3.016   8.522  0.4027  0.3011  1.5659
32026SOL    HW2 1017   9.711   3.167   8.512 -0.3012  0.2302 -0.4136
32027SOL     OW 1018   5.269   1.109   4.732 -0.1035 -0.5370  0.0523
32027SOL    HW1 1019   5.204   1.178   4.747  0.9680  0.1321  1.9250
32027SOL    HW2 1020   5.309   1.132   4.649  0.7156  1.5696  0.9482
32028SOL     OW 1021   3.743   1.934   6.021  0.2061 -0.0909 -0.2349
32028SOL    HW1 1022   3.763   2.004   5.959 -1.3168 -0.2257 -0.9006
32028SOL    HW2 1023   3.688   1.873   5.973  1.9055 -2.0680  0.1757
32029SOL     OW 1024   9.977   4.251   1.295 -0.1918  0.4414 -0.7417
32029SOL    HW1 1025   9.907   4.236   1.359 -0.9698  0.3057 -1.5864
32029SOL    HW2 1026  10.046   4.190   1.320 -0.0552  1.1133  0.5605
32030SOL     OW 1027   4.352   3.251   5.960 -0.0687  0.9503 -0.4083
32030SOL    HW1 1028   4.434   3.203   5.957  0.4190  1.8251 -1.6621
32030SOL    HW2 1029   4.285   3.184   5.975  0.7204  0.0528 -0.8232
32031SOL     OW 1030  11.419   2.177   7.655  0.6565  0.5948  0.1037
32031SOL    HW1 1031  11.453   2.099   7.698  0.1652  0.8469  0.9588
32031SOL    HW2 1032  11.324   2.173   7.667  0.7319  2.2796  1.8842
32032SOL     OW 1033   6.190  11.606   3.016  0.5076  0.4112  0.2545
32032SOL    HW1 1034   6.206  11.608   2.922  1.2685  3.3108  0.3389
32032SOL    HW2 1035   6.276  11.591   3.054  0.3528  0.1767  0.5159
32033SOL     OW 1036   0.613  11.211   7.138 -0.2754  0.3242 -0.1553
32033SOL    HW1 1037   0.556  11.226   7.062 -2.6485 -0.7320  1.3193
32033SOL    HW2 1038   0.555  11.220   7.213  1.2588 -1.9472  1.3980
32034SOL     OW 1039   5.964   4.084   2.456  0.0853  0.2580  0.4936
32034SOL    HW1 1040   5.886   4.048   2.413  0.5433  0.5145 -0.5925
32034SOL    HW2 1041   6.027   4.012   2.457 -0.2088 -0.0032  1.5357
32035SOL     OW 1042   7.571   5.968   2.340  0.1126 -0.2847  0.0435
32035SOL    HW1 1043   7.617   5.929   2.414  1.1239  0.6000 -0.0831
32035SOL    HW2 1044   7.570   5.900   2.273  1.3740 -0.2998  0.0104
32036SOL     OW 1045  11.605   8.073   2.033 -0.1078 -0.3564  0.1168
32036SOL    HW1 1046  11.616   7.988   2.077  1.1793 -1.1561 -1.6446
32036SOL    HW2 1047  11.524   8.063   1.982  0.2109 -0.6469 -0.3357
32037SOL     OW 1048   5.699   0.912   8.566 -0.3310 -0.4961 -0.6900
32037SOL    HW1 1049   5.611   0.916   8.604  0.9151  1.7194  2.3020
32037SOL    HW2 1050   5.754   0.877   8.635  1.4190 -0.4231 -1.9775
32038SOL     OW 1051   4.370   9.718   9.754 -0.6335 -0.5937  0.1778
32038SOL    HW1 1052   4.335   9.766   9.829  0.1261  0.5943 -0.2001
32038SOL    HW2 1053   4.437   9.661   9.790 -0.2981 -0.0544  0.4060
32039SOL     OW 1054   7.080   2.836   7.157  0.8432 -0.2342 -0.4130
32039SOL    HW1 1055   7.049   2.762   7.209  0.2274  0.8534  0.8284
32039SOL    HW2 1056   7.128   2.891   7.219 -1.2473  1.9166 -0.5175
32040SOL     OW 1057   2.978  10.522   9.513 -0.3392  0.1983  0.0930
32040SOL    HW1 1058   2.946  10.529   9.603  0.6596  0.0082  0.4772
32040SOL    HW2 1059   2.992  10.613   9.485 -2.5563  0.3923 -0.6188
32041SOL     OW 1060   6.319   5.434  10.294  0.5949 -0.3338  0.3504
32041SOL    HW1 1061   6.297   5.347  10.327 -0.0203 -0.2500  0.1862
32041SOL    HW2 1062   6.410   5.448  10.320  0.9077 -1.2881 -0.1816
32042SOL     OW 1063   5.647   5.539   1.307 -0.4486 -0.1210 -0.2473
32042SOL    HW1 1064   5.695   5.538   1.225  0.6364  0.7959  0.3460
32042SOL    HW2 1065   5.626   5.632   1.321  1.2500  0.0582  1.5372
32043SOL     OW 1066   5.155   4.800  11.315 -0.4978  0.1103  0.1063
32043SOL    HW1 1067   5.147   4.829  11.224  3.9550  0.6931 -0.3199
32043SOL    HW2 1068   5.076   4.748  11.330 -1.9484  0.8495 -3.7065
32044SOL     OW 1069   2.666   0.441  10.047  0.0483 -0.4738 -0.2553
32044SOL    HW1 1070   2.679   0.452   9.952 -0.2082  0.2975 -0.2088
32044SOL    HW2 1071   2.732   0.498  10.086  0.5216 -1.2136  0.0455
32045SOL     OW 1072   5.800   5.139   4.078  0.2188 -0.2718 -0.6641
32045SOL    HW1 1073   5.802   5.062   4.135 -0.2314 -1.0523 -1.6780
32045SOL    HW2 1074   5.828   5.211   4.135  1.5386 -1.3122  0.0817
32046SOL     OW 1075   0.978   1.363   4.382 -0.1825 -0.1183  0.2296
32046SOL    HW1 1076   0.915   1.407   4.325 -1.9802 -0.3561  1.9287
32046SOL    HW2 1077   0.972   1.271   4.359 -0.7867 -0.1937  0.6767
32047SOL     OW 1078   2.876  11.317   2.113  0.0493  0.0762 -0.0783
32047SOL    HW1 1079   2.892  11.254   2.043 -0.5846  0.8588 -0.9473
32047SOL    HW2 1080   2.863  11.263   2.191 -3.6233 -1.1344 -1.3484
32048SOL     OW 1081   9.054   4.402   1.922  0.1674 -0.1899 -0.0550
32048SOL    HW1 1082   9.110   4.479   1.911 -0.5450  0.3732  0.1657
32048SOL    HW2 1083   9.087   4.359   2.000  1.0022 -0.4970 -0.5576
32049SOL     OW 1084   1.888   4.489   3.050  0.0076 -0.4234 -0.0155
32049SOL    HW1 1085   1.919   4.578   3.034 -0.8553  0.0052  0.6088
32049SOL    HW2 1086   1.875   4.485   3.145 -0.1733 -1.1389 -0.0656
32050SOL     OW 1087  10.181   5.763   2.394 -0.2679  0.2661 -0.3406
32050SOL    HW1 1088  10.191   5.825   2.466 -1.1516 -1.1943  1.1115
32050SOL    HW2 1089  10.096   5.784   2.356 -0.7868 -0.3042  0.4572
32051SOL     OW 1090  10.953   6.407   6.443  0.3332  0.5044  0.3651
32051SOL    HW1 1091  11.046   6.424   6.459  0.2724 -0.2414  1.6042
32051SOL    HW2 1092  10.930   6.338   6.505 -1.1333  0.9085  0.2991
32052SOL     OW 1093   1.532   5.256   2.274 -0.1045  0.3702  0.3156
32052SOL    HW1 1094   1.446   5.248   2.234 -0.8473  1.3417  1.6467
32052SOL    HW2 1095   1.579   5.318   2.218  0.2214 -1.1312 -1.1469
32053SOL     OW 1096   0.598   6.922   5.682  0.5084  0.0248 -0.4919
32053SOL    HW1 1097   0.576   7.011   5.711  0.5834 -0.1704  0.1772
32053SOL    HW2 1098   0.693   6.917   5.688  0.4096 -0.6522  1.1835
32054SOL     OW 1099   1.214  10.420   8.847 -0.2696  0.4185  0.3252
32054SOL    HW1 1100   1.207  10.487   8.780  0.4131 -0.1542 -0.3498
32054SOL    HW2 1101   1.292  10.370   8.822 -1.0746 -0.9623  0.4953
32055SOL     OW 1102   9.814   3.791  10.031 -1.0235 -0.3440  0.0330
32055SOL    HW1 1103   9.775   3.843   9.960 -4.0177 -1.8182  0.4350
32055SOL    HW2 1104   9.775   3.827  10.111  3.3603  2.2574  1.3383
32056SOL     OW 1105   8.710   7.258   2.451 -0.5100  0.7370  0.2944
32056SOL    HW1 1106   8.630   7.205   2.446 -0.9749  1.2835  1.5395
32056SOL    HW2 1107   8.762   7.229   2.376 -0.1741 -2.4099  1.5722
32057SOL     OW 1108   9.578  10.406   1.695 -0.0607  0.0558 -0.0447
32057SOL    HW1 1109   9.581  10.501   1.702 -0.8651  0.0935 -0.1498
32057SOL    HW2 1110   9.628  10.376   1.771 -1.5184  0.5654  1.1962
32058SOL     OW 1111   7.101   6.282  10.158  0.1342 -0.2426  0.1038
32058SOL    HW1 1112   7.014   6.271  10.196  0.0749  1.5974  0.6117
32058SOL    HW2 1113   7.135   6.193  10.147 -1.6921 -0.9736  0.1550
32059SOL     OW 1114   1.425   9.396  10.128  0.1792  0.4471  0.1960
32059SOL    HW1 1115   1.415   9.334  10.056 -0.7286  0.5270  0.2363
32059SOL    HW2 1116   1.464   9.344  10.199  0.5460  0.2252 -0.1645
32060SOL     OW 1117   0.887   8.985   5.688  0.1741 -0.1482  0.6368
32060SOL    HW1 1118   0.966   9.021   5.727  1.9324 -1.3054 -1.6418
32060SOL    HW2 1119   0.867   8.908   5.741  2.3176 -1.5093 -0.3960
32061SOL     OW 1120  11.523   2.159   1.891 -0.2129  0.7412 -0.4128
32061SOL    HW1 1121  11.461   2.146   1.962 -0.0064 -0.8154 -0.4747
32061SOL    HW2 1122  11.469   2.177   1.814 -0.6837 -1.1656 -0.5940
32062SOL     OW 1123   6.792   1.003   4.037  0.4265  0.2018  0.0684
32062SOL    HW1 1124   6.718   0.942   4.042 -0.7497  1.5751  0.1673
32062SOL    HW2 1125   6.828   1.004   4.126 -0.1653  0.3890  0.3090
32063SOL     OW 1126  10.242   3.884   9.183  0.4082  0.0335  0.0334
32063SOL    HW1 1127  10.336   3.891   9.198  0.4347  2.8633 -0.8478
32063SOL    HW2 1128  10.227   3.933   9.102 -2.0244  1.4004  1.1859
32064SOL     OW 1129   0.136  10.658   7.731 -0.0662  0.3260  0.2529
32064SOL    HW1 1130   0.077  10.734   7.736 -0.8848 -0.1875 -1.0038
32064SOL    HW2 1131   0.080  10.583   7.750  0.4103 -0.0795  0.0733
32065SOL     OW 1132   3.565   0.063   2.265  0.3718 -0.2757  0.1274
32065SOL    HW1 1133   3.657   0.039   2.257  0.2819 -0.6164  0.1038
32065SOL    HW2 1134   3.565   0.141   2.320  0.9341  1.5013 -2.2236
32066SOL     OW 1135   0.364   9.703   4.345 -0.0973  0.2686 -0.0355
32066SOL    HW1 1136   0.438   9.763   4.335 -0.5176  0.5698 -1.8099
32066SOL    HW2 1137   0.343   9.705   4.438  1.1639  1.3417  0.2548
32067SOL     OW 1138   6.481   9.430   0.906  0.1423 -0.2119  0.4304
32067SOL    HW1 1139   6.530   9.422   0.988 -1.4553  0.2940  1.4762
32067SOL    HW2 1140   6.402   9.479   0.930 -1.0572 -1.3068 -1.1259
32068SOL     OW 1141   9.643   2.808   1.700  0.5716 -1.2725  0.1729
32068SOL    HW1 1142   9.583   2.867   1.653 -0.0762 -1.0143  1.2865
32068SOL    HW2 1143   9.621   2.721   1.667 -0.7000 -1.2215  0.8405
32069SOL     OW 1144   5.345   9.533   1.670  0.0193 -0.4793  0.0104
32069SOL    HW1 1145   5.435   9.503   1.654  1.9122  3.6720  1.4228
32069SOL    HW2 1146   5.333   9.523   1.765 -0.8697 -0.5823 -0.1064
32070SOL     OW 1147   7.864   8.333  10.555 -0.0418  0.1644  0.3330
32070SOL    HW1 1148   7.912   8.391  10.496 -1.5099  1.6042  0.4829
32070SOL    HW2 1149   7.817   8.273  10.497  0.9774 -0.4893  0.1595
32071SOL     OW 1150  10.546   0.607   8.373  0.0773  0.2005  0.3425
32071SOL    HW1 1151  10.584   0.589   8.287  0.2232 -1.9139  0.7772
32071SOL    HW2 1152  10.455   0.576   8.365 -0.1497  0.7573  0.7147
32072SOL     OW 1153  10.672   6.155   0.009  0.1437 -0.0510 -0.5417
32072SOL    HW1 1154  10.645   6.064   0.015  2.7063 -0.9451 -1.2759
32072SOL    HW2 1155  10.671   6.187   0.099 -0.1862 -0.9813 -0.2070
32073SOL     OW 1156   9.698   9.637   3.228 -0.4216  0.1237 -0.0135
32073SOL    HW1 1157   9.703   9.628   3.323  1.3059 -0.3876 -0.1304
32073SOL    HW2 1158   9.604   9.635   3.209 -0.8188  0.7428  1.7104
32074SOL     OW 1159   2.836   4.814   7.362  0.4992 -0.4283  0.6292
32074SOL    HW1 1160   2.820   4.735   7.414  2.4360 -1.4552 -0.1950
32074SOL    HW2 1161   2.750   4.840   7.331 -0.4706 -0.9000  2.7378
32075SOL     OW 1162   7.250   5.092   0.749  0.2265 -0.4284  0.3642
32075SOL    HW1 1163   7.284   5.074   0.837 -0.1494 -0.1869  0.5567
32075SOL    HW2 1164   7.324   5.132   0.703  0.0291  0.6580  0.9651
32076SOL     OW 1165   0.438   7.272   2.968 -0.3661 -0.1923  0.6847
32076SOL    HW1 1166   0.399   7.211   3.031 -1.1024 -0.5450 -0.0867
32076SOL    HW2 1167   0.365   7.328   2.940 -0.2631 -0.5750 -0.4430
32077SOL     OW 1168   1.829   4.345   1.998  0.2732 -0.3085  0.6724
32077SOL    HW1 1169   1.743   4.371   2.030 -0.0427 -2.1697  1.4416
32077SOL    HW2 1170   1.819   4.253   1.972  1.8743 -0.3970  0.2320
32078SOL     OW 1171   1.649   6.118   2.605  0.1712  0.1928  0.1668
32078SOL    HW1 1172   1.636   6.152   2.517 -0.1027 -0.1831  0.0560
32078SOL    HW2 1173   1.584   6.163   2.658 -0.1243 -0.0747  0.0398
32079SOL     OW 1174   3.449   2.018   1.900 -0.0910  0.7404 -0.2632
32079SOL    HW1 1175   3.528   2.073   1.906 -0.5692  1.5577 -1.3109
32079SOL    HW2 1176   3.409   2.024   1.987 -0.1818  2.1377 -0.3857
32080SOL     OW 1177   1.755   0.640   4.733  0.0700  0.3940 -0.1890
32080SOL    HW1 1178   1.754   0.599   4.647 -1.2554 -0.0771  0.0137
32080SOL    HW2 1179   1.761   0.567   4.794 -0.4137  0.6228  0.1398
32081SOL     OW 1180   1.561   6.969  10.934  0.2061 -0.2170  0.2059
32081SOL    HW1 1181   1.636   6.985  10.990  0.1236 -1.0633  0.5696
32081SOL    HW2 1182   1.513   6.898  10.976  0.1373 -0.8715 -0.9246
32082SOL     OW 1183  10.276   7.402   6.835 -0.0386 -0.0835 -0.1257
32082SOL    HW1 1184  10.303   7.491   6.814  0.4090 -0.4555 -1.2022
32082SOL    HW2 1185  10.344   7.370   6.895  0.5000 -0.1162 -0.7400
32083SOL     OW 1186   0.926   4.506   1.721 -0.3008 -0.2011  0.3117
32083SOL    HW1 1187   0.975   4.587   1.727  1.2320 -1.0731  0.2273
32083SOL    HW2 1188   0.876   4.513   1.639 -0.7714  0.9296  0.6859
32084SOL     OW 1189   1.186   2.665   0.123  0.8465  0.3895 -0.3592
32084SOL    HW1 1190   1.261   2.696   0.173  0.5448  0.3181  0.1444
32084SOL    HW2 1191   1.203   2.695   0.034  1.7505 -0.1380 -0.3707
32085SOL     OW 1192   8.776   9.757   2.164 -0.8057  0.0589  0.4509
32085SOL    HW1 1193   8.705   9.786   2.106 -1.9822 -1.9669  0.7645
32085SOL    HW2 1194   8.811   9.679   2.121  1.6344  1.2875  0.0623
32086SOL     OW 1195   3.547   1.084   9.309 -0.2093  0.5949 -0.3038
32086SOL    HW1 1196   3.518   1.057   9.396 -0.0874  0.9380 -0.1534
32086SOL    HW2 1197   3.642   1.069   9.310 -0.4127 -0.9029 -0.9309
32087SOL     OW 1198   0.540   5.595   6.313 -0.1859  0.3419 -0.1486
32087SOL    HW1 1199   0.481   5.548   6.255 -1.0345  2.3245 -1.0107
32087SOL    HW2 1200   0.506   5.581   6.401 -1.2672  0.5061 -0.5335
32088SOL     OW 1201   1.482   9.541   4.802 -0.1600 -0.1567 -0.4210
32088SOL    HW1 1202   1.503   9.490   4.723  0.4121 -2.5589  1.1659
32088SOL    HW2 1203   1.387   9.533   4.811 -0.1287 -0.6076 -0.4366
32089SOL     OW 1204  11.223   3.534   7.799 -0.1723  0.0809 -0.3891
32089SOL    HW1 1205  11.172   3.613   7.784 -0.4014 -0.3368 -1.9925
32089SOL    HW2 1206  11.254   3.542   7.889 -2.0038  0.9445  0.2047
32090SOL     OW 1207   3.620   6.211   5.954 -0.4306 -0.2995  0.4078
32090SOL    HW1 1208   3.572   6.256   6.024 -1.7218  0.6966 -1.0453
32090SOL    HW2 1209   3.651   6.130   5.995 -2.1944 -0.3347  1.8021
32091SOL     OW 1210   3.819   7.129   8.686 -0.3717 -0.2816  0.4224
32091SOL    HW1 1211   3.731   7.094   8.676 -0.7129  0.6311  0.1295
32091SOL    HW2 1212   3.871   7.054   8.715 -1.3395 -0.7094  1.1131
32092SOL     OW 1213   4.057   1.294   1.528  0.3342 -0.2272 -0.0584
32092SOL    HW1 1214   3.963   1.301   1.514  0.6137  0.2301 -2.0262
32092SOL    HW2 1215   4.070   1.206   1.562 -0.7300 -0.6362 -0.6431
32093SOL     OW 1216   8.179   8.962   2.020  0.0147 -0.0030  0.3911
32093SOL    HW1 1217   8.164   8.869   2.003 -0.6037  0.3711 -1.3575
32093SOL    HW2 1218   8.124   9.007   1.956  2.4692  1.5280 -0.8000
32094SOL     OW 1219  10.187   6.441   4.441  0.1559 -0.3378  0.5131
32094SOL    HW1 1220  10.228   6.371   4.391 -1.2920 -0.5310 -0.4765
32094SOL    HW2 1221  10.241   6.449   4.520  1.8071 -0.8218 -0.5172
32095SOL     OW 1222   4.068   0.945  10.245  0.1730  0.0528 -0.1907
32095SOL    HW1 1223   4.055   1.022  10.301  2.5102 -0.0877  0.6875
32095SOL    HW2 1224   4.132   0.974  10.180  0.7529 -0.9942 -0.1161
32096SOL     OW 1225   2.472   3.700   0.713  0.5379  0.3090 -0.1094
32096SOL    HW1 1226   2.445   3.616   0.676 -0.6742  0.4819  0.3444
32096SOL    HW2 1227   2.422   3.708   0.794 -0.8028  2.3183 -1.0712
32097SOL     OW 1228   4.592   8.976   3.052  0.1940 -0.1428  0.0487
32097SOL    HW1 1229   4.526   8.918   3.015  0.8760 -0.9929  0.1442
32097SOL    HW2 1230   4.637   8.922   3.117  2.3201 -0.2215 -1.4139
32098SOL     OW 1231   2.683   3.400   9.509 -0.1934  0.0845 -0.1273
32098SOL    HW1 1232   2.608   3.453   9.483  0.7408  0.8423 -1.3649
32098SOL    HW2 1233   2.710   3.354   9.429  0.6529 -0.1765  0.2915
32099SOL     OW 1234   0.359   7.906   2.497 -0.5825 -0.5486  0.1036
32099SOL    HW1 1235   0.358   7.818   2.535 -0.1416 -1.1095 -1.1186
32099SOL    HW2 1236   0.327   7.894   2.407 -0.2684  0.4869 -0.1637
32100SOL     OW 1237   1.165   2.861   5.850  0.1689 -0.2574 -0.2859
32100SOL    HW1 1238   1.100   2.920   5.888 -0.2505 -0.4054 -0.7777
32100SOL    HW2 1239   1.216   2.916   5.791  0.5602 -0.1197  0.1717
32101SOL     OW 1240   6.626  10.834  11.141  0.4691  0.0089  0.9232
32101SOL    HW1 1241   6.670  10.759  11.181  0.7092 -1.9446 -2.5512
32101SOL    HW2 1242   6.680  10.856  11.065 -1.5759  1.2294 -0.2708
32102SOL     OW 1243   3.022   4.974   5.253 -0.2021 -0.3761  0.5511
32102SOL    HW1 1244   3.023   4.884   5.221 -0.6641 -0.1433 -0.1258
32102SOL    HW2 1245   2.996   4.967   5.345 -2.9581 -0.7440 -0.1802
32103SOL     OW 1246   8.030   8.692  10.767 -0.1829 -0.1184  0.5339
32103SOL    HW1 1247   8.072   8.606  10.765 -0.2187 -0.1335  0.3684
32103SOL    HW2 1248   7.942   8.676  10.734  0.2904  0.2336 -1.0202
32104SOL     OW 1249   2.284  11.669   3.828  0.2264 -0.4093  0.1330
32104SOL    HW1 1250   2.304  11.756   3.864  0.1441 -0.2015 -0.3145
32104SOL    HW2 1251   2.201  11.645   3.868 -1.0620  0.8249 -1.6147
32105SOL     OW 1252   7.819   6.910   5.268 -0.6828  0.0994 -0.3516
32105SOL    HW1 1253   7.840   7.003   5.262  1.6365 -0.3529 -0.1393
32105SOL    HW2 1254   7.793   6.897   5.359 -0.6363  0.4645 -0.2833
32106SOL     OW 1255   2.442   4.936   8.385 -0.3264  0.1272  0.1284
32106SOL    HW1 1256   2.537   4.928   8.375 -0.4187 -0.2806 -0.4771
32106SOL    HW2 1257   2.423   4.892   8.468 -0.1066 -0.7204 -0.2622
32107SOL     OW 1258  10.861   8.669   9.578 -0.0573 -0.2945  0.3004
32107SOL    HW1 1259  10.769   8.645   9.569 -0.3450  0.5393  0.8698
32107SOL    HW2 1260  10.865   8.717   9.661  0.5516  1.3128 -0.6307
32108SOL     OW 1261   5.619   0.690   8.925  0.0833  0.4326 -0.5048
32108SOL    HW1 1262   5.610   0.608   8.876 -1.2124  0.7631 -0.8417
32108SOL    HW2 1263   5.618   0.663   9.017 -0.1972  0.0514 -0.6176
32109SOL     OW 1264   7.177   3.457   0.164 -0.5084 -0.1909  0.1380
32109SOL    HW1 1265   7.216   3.544   0.176  0.3317 -0.4471 -0.6291
32109SOL    HW2 1266   7.233   3.398   0.214 -0.8616 -0.3446  0.3538
32110SOL     OW 1267  11.060  10.415  10.249 -0.4395  0.1156 -0.1916
32110SOL    HW1 1268  11.118  10.486  10.277  1.8150 -1.1034 -1.4183
32110SOL    HW2 1269  10.998  10.457  10.190 -0.2711  1.3443  0.4641
32111SOL     OW 1270   7.142   3.886  11.241 -0.0053  0.0893 -0.2653
32111SOL    HW1 1271   7.164   3.973  11.205 -0.3906  0.5643  0.6140
32111SOL    HW2 1272   7.112   3.836  11.165 -0.9947  1.1424 -0.5955
32112SOL     OW 1273   4.044   6.030   6.752 -0.2287  0.1570 -0.1347
32112SOL    HW1 1274   4.040   5.936   6.736  2.3357 -0.0836  0.2878
32112SOL    HW2 1275   4.008   6.041   6.840  1.0851 -0.7108  0.5450
32113SOL     OW 1276   6.525   1.503   1.946  0.5422  0.1953 -0.4764
32113SOL    HW1 1277   6.481   1.420   1.962  1.2076 -0.4987 -2.0615
32113SOL    HW2 1278   6.517   1.551   2.029 -4.4023  0.7348 -1.0210
32114SOL     OW 1279   5.363   1.726   2.984 -0.4673  0.7513  0.5277
32114SOL    HW1 1280   5.394   1.749   3.072  1.4435  0.8259 -0.1357
32114SOL    HW2 1281   5.273   1.697   2.998 -0.1545  0.6017  2.5402
32115SOL     OW 1282   3.250   6.815   8.374  0.0045  0.1640  0.8139
32115SOL    HW1 1283   3.255   6.895   8.322 -1.6343  0.5576  1.1897
32115SOL    HW2 1284   3.285   6.839   8.460 -1.8352  0.9624  1.3978
32116SOL     OW 1285   4.327   1.703   5.664 -0.2129  0.5052  0.2466
32116SOL    HW1 1286   4.292   1.761   5.731  0.5583  1.8406 -0.4648
32116SOL    HW2 1287   4.251   1.671   5.616 -0.6129  1.4254  0.2638
32117SOL     OW 1288   2.571   0.532   1.385  0.1582  0.4060 -0.3513
32117SOL    HW1 1289   2.630   0.458   1.370  0.3364  0.8537 -2.0081
32117SOL    HW2 1290   2.485   0.500   1.359  0.1917  0.6838 -0.8209
32118SOL     OW 1291   9.729   6.002   0.345 -0.7171 -0.1475  0.1010
32118SOL    HW1 1292   9.805   6.060   0.349 -1.2761  0.6411 -0.2414
32118SOL    HW2 1293   9.737   5.959   0.260 -0.2248 -0.6864  0.4159
32119SOL     OW 1294  11.371   4.916  11.218 -0.0737 -0.3633  0.7290
32119SOL    HW1 1295  11.448   4.971  11.205  0.2475 -1.3917 -2.8446
32119SOL    HW2 1296  11.389   4.838  11.165 -2.0734 -2.2757  2.6701
32120SOL     OW 1297   6.320   5.157   8.515  0.2002  0.3496 -0.1290
32120SOL    HW1 1298   6.369   5.161   8.433  0.2397  1.2896 -0.0751
32120SOL    HW2 1299   6.321   5.065   8.539  0.9853  0.1921 -0.7117
32121SOL     OW 1300   1.949   7.571   9.320  0.4169  0.0741 -0.0311
32121SOL    HW1 1301   1.892   7.619   9.381  1.7960  1.2836  0.3768
32121SOL    HW2 1302   2.020   7.633   9.301  1.1734 -1.0964 -1.1317
32122SOL     OW 1303  10.465   2.786   6.408  0.1023 -0.3327  0.0924
32122SOL    HW1 1304  10.501   2.800   6.496 -0.6224  1.0535  0.2097
32122SOL    HW2 1305  10.468   2.692   6.396 -2.3218 -0.9129  2.7649
32123SOL     OW 1306   2.228  10.455   5.732  0.1354  0.2024 -0.0718
32123SOL    HW1 1307   2.265  10.480   5.648  2.0858 -0.3976  0.5568
32123SOL    HW2 1308   2.301  10.459   5.793 -1.3566  1.2777  1.7787
32124SOL     OW 1309   9.968   9.677  11.061 -0.5399  0.0299  0.0316
32124SOL    HW1 1310   9.969   9.581  11.054  1.6445 -0.2215  2.4307
32124SOL    HW2 1311   9.942   9.694  11.151 -0.6734  1.7391 -0.2933
32125SOL     OW 1312   2.169   8.700   5.337  0.0900 -0.2221  0.3715
32125SOL    HW1 1313   2.213   8.772   5.383  0.0004  0.0005  0.1131
32125SOL    HW2 1314   2.240   8.641   5.311  0.5298  1.2104 -1.9706
32126SOL     OW 1315   3.505   9.729   2.043  0.2046 -0.1352  0.1129
32126SOL    HW1 1316   3.476   9.646   2.081  0.3731  0.6369  2.0004
32126SOL    HW2 1317   3.600   9.724   2.041  0.2461  0.2569  0.8387
32127SOL     OW 1318   6.430   1.017   5.529  0.2045  0.7396  0.7245
32127SOL    HW1 1319   6.504   0.957   5.536  0.2801  0.3598 -2.1162
32127SOL    HW2 1320   6.471   1.104   5.521  0.2783  0.6997  0.6688
32128SOL     OW 1321   8.503   2.673   3.549 -0.2045 -0.3874 -0.3747
32128SOL    HW1 1322   8.408   2.679   3.560 -0.0893 -1.3078  1.2998
32128SOL    HW2 1323   8.514   2.629   3.464 -1.2291  0.8022 -1.1671
32129SOL     OW 1324   4.534   5.559   9.878  0.0175 -0.0156 -0.0691
32129SOL    HW1 1325   4.499   5.475   9.908  1.1930 -0.1436  1.0449
32129SOL    HW2 1326   4.625   5.560   9.910 -0.3638  2.2594  1.2120
32130SOL     OW 1327   9.185   7.166   3.823  0.2478  0.0853  0.5473
32130SOL    HW1 1328   9.278   7.161   3.843  0.1600 -0.4913  0.8232
32130SOL    HW2 1329   9.152   7.237   3.878  0.6074  0.5918  0.1174
32131SOL     OW 1330   5.664   6.728  11.628 -0.3682  0.2783  0.0426
32131SOL    HW1 1331   5.576   6.692  11.635 -0.4933  0.8004  1.2746
32131SOL    HW2 1332   5.661   6.783  11.549 -1.1328  0.2939  0.0765
32132SOL     OW 1333   9.152   8.680  10.734 -0.4275  0.4318 -0.0267
32132SOL    HW1 1334   9.125   8.756  10.787  0.6774  1.0869 -0.3763
32132SOL    HW2 1335   9.099   8.608  10.768 -0.5457  1.0697  1.2176
32133SOL     OW 1336   8.582   3.995   5.695 -0.1298 -1.0103 -0.0908
32133SOL    HW1 1337   8.547   4.027   5.778  0.2663 -2.2410  0.5806
32133SOL    HW2 1338   8.518   3.930   5.666  0.0024 -0.9631 -0.4945
32134SOL     OW 1339   3.596   1.671  10.411 -0.0640  0.6774  0.0508
32134SOL    HW1 1340   3.666   1.607  10.407  0.6872  1.4592  0.3732
32134SOL    HW2 1341   3.549   1.661  10.328 -0.5896 -0.9651  0.5108
32135SOL     OW 1342   8.130   8.459   4.295  0.5354  0.5903  0.0573
32135SOL    HW1 1343   8.134   8.553   4.277 -1.8379  0.6454 -0.4990
32135SOL    HW2 1344   8.174   8.449   4.380 -2.3680  2.8233  2.0292
32136SOL     OW 1345  10.826   3.394   0.832  0.0409  0.0315  0.2194
32136SOL    HW1 1346  10.758   3.327   0.831  0.7738 -0.7239 -0.9202
32136SOL    HW2 1347  10.894   3.361   0.773  1.3499  0.8161  1.2194
32137SOL     OW 1348   4.480  10.602  10.070 -0.5570  0.0723  0.0151
32137SOL    HW1 1349   4.422  10.653  10.013  0.8320  3.4847  1.3886
32137SOL    HW2 1350   4.524  10.668  10.124  1.4397 -2.6696  1.9838
32138SOL     OW 1351   9.178   4.839  11.595 -0.1612 -0.8486  0.4504
32138SOL    HW1 1352   9.259   4.876  11.630 -0.5563  1.0343 -0.4907
32138SOL    HW2 1353   9.120   4.832  11.671  0.0573  0.1774  0.7292
32139SOL     OW 1354   9.908   0.146   1.178 -0.1203  0.3081  0.5431
32139SOL    HW1 1355   9.865   0.063   1.156  0.5789  0.1647 -0.3915
32139SOL    HW2 1356   9.955   0.128   1.259  2.2389 -1.1032 -1.0064
32140SOL     OW 1357   2.113   5.039   3.290  0.3570 -0.4171  0.2141
32140SOL    HW1 1358   2.075   5.124   3.265 -0.4249 -0.7128  0.3810
32140SOL    HW2 1359   2.143   5.001   3.207  3.4102  1.2620  0.4062
32141SOL     OW 1360  10.490   6.686   2.324  0.7398  0.2831  0.0598
32141SOL    HW1 1361  10.570   6.633   2.329  0.8902  0.5497  0.6174
32141SOL    HW2 1362  10.422   6.631   2.363  0.4596 -0.2800 -1.1933
32142SOL     OW 1363   2.185   4.523   5.653 -0.2892 -0.3565  0.1217
32142SOL    HW1 1364   2.248   4.567   5.710 -0.0956 -0.3421 -0.1005
32142SOL    HW2 1365   2.238   4.476   5.589 -0.5006  0.2906 -0.5486
32143SOL     OW 1366   5.217   6.618   7.419  0.4379  0.7615 -0.1395
32143SOL    HW1 1367   5.203   6.631   7.513  0.6970  0.0319  0.0036
32143SOL    HW2 1368   5.263   6.698   7.391 -2.1705  2.3224 -0.2505
32144SOL     OW 1369   4.090   7.073   9.483  0.8944 -0.2802  0.0422
32144SOL    HW1 1370   4.153   7.007   9.511  1.0669  0.5619  1.7405
32144SOL    HW2 1371   4.041   7.095   9.562  0.3563  1.0888 -0.6387
32145SOL     OW 1372   0.761   4.797   1.828  0.1901 -0.1352  0.1510
32145SOL    HW1 1373   0.704   4.728   1.795  0.3021  0.3773 -1.1761
32145SOL    HW2 1374   0.843   4.786   1.779  0.1765  0.9660 -0.1485
32146SOL     OW 1375   6.293   0.478   0.753 -0.6051  0.0119  0.5347
32146SOL    HW1 1376   6.221   0.439   0.704 -0.7398 -0.3152  0.9887
32146SOL    HW2 1377   6.372   0.445   0.709 -0.6931  2.2492 -1.4555
32147SOL     OW 1378   4.568   4.472   0.208  0.1180 -0.2022 -0.2367
32147SOL    HW1 1379   4.610   4.393   0.175  0.6743  0.1774 -0.4459
32147SOL    HW2 1380   4.578   4.467   0.303 -3.8468 -2.6644  0.2635
32148SOL     OW 1381   5.404   6.906  10.931 -0.0646  0.0511  0.1482
32148SOL    HW1 1382   5.329   6.954  10.896  1.5823  1.4888 -1.5797
32148SOL    HW2 1383   5.416   6.833  10.871  1.9848  1.8091 -1.7569
32149SOL     OW 1384   0.266   9.098   3.874 -0.9221 -0.5150  0.2848
32149SOL    HW1 1385   0.293   9.149   3.797 -0.5353  0.6668  1.1774
32149SOL    HW2 1386   0.210   9.029   3.838  0.1383 -0.6672 -1.1791
32150SOL     OW 1387   5.142   3.773   3.640  0.1827  0.6719  0.4914
32150SOL    HW1 1388   5.058   3.818   3.627  0.8377  2.0332  0.8531
32150SOL    HW2 1389   5.178   3.764   3.552  0.1300  1.0257  0.4312
32151SOL     OW 1390   6.663   0.834  11.635 -0.1282 -0.3986 -0.2415
32151SOL    HW1 1391   6.744   0.871  11.670 -0.6817  0.6722 -0.0313
32151SOL    HW2 1392   6.618   0.909  11.595  0.8421 -1.6441 -4.0903
32152SOL     OW 1393   9.431   7.799   3.437  0.3147 -0.2280 -0.5755
32152SOL    HW1 1394   9.473   7.785   3.352  1.5800  0.9498 -0.1827
32152SOL    HW2 1395   9.503   7.824   3.496 -0.8221  1.0681  0.3228
32153SOL     OW 1396   4.551   4.951   5.693 -0.2440 -0.1754  0.2804
32153SOL    HW1 1397   4.528   4.942   5.600 -0.8622  0.9576  0.3108
32153SOL    HW2 1398   4.622   5.015   5.693 -2.2986  2.2519  0.7971
32154SOL     OW 1399   2.609  10.574   3.836 -0.0393  0.1645 -0.6318
32154SOL    HW1 1400   2.683  10.532   3.881 -0.9204 -1.9522 -1.0421
32154SOL    HW2 1401   2.643  10.594   3.749 -0.0264 -1.1499 -0.9499
32155SOL     OW 1402  10.289   3.747   9.861 -0.0054 -0.4682 -0.2749
32155SOL    HW1 1403  10.195   3.734   9.869 -0.5530  2.8206  0.2431
32155SOL    HW2 1404  10.327   3.661   9.880 -2.7021 -1.0100  4.1710
32156SOL     OW 1405   1.476   1.207   7.287  0.1160 -0.2714  0.2764
32156SOL    HW1 1406   1.413   1.166   7.228 -1.5545  2.0995  0.2429
32156SOL    HW2 1407   1.430   1.214   7.371  0.6138  0.7700  0.4763
32157SOL     OW 1408   6.983   1.113   5.718 -0.1286 -0.2210  0.1821
32157SOL    HW1 1409   6.943   1.117   5.631  0.6557  0.9090 -0.1488
32157SOL    HW2 1410   7.075   1.090   5.701  0.1717  0.6015  0.6590
32158SOL     OW 1411   5.113   7.209  10.893  0.0876  0.0035  0.1041
32158SOL    HW1 1412   5.074   7.122  10.886 -2.1733  0.9156  0.5845
32158SOL    HW2 1413   5.094   7.238  10.982 -0.2396  1.4475 -0.3992
32159SOL     OW 1414  11.126  10.120   8.480 -0.3604  0.4107 -0.1761
32159SOL    HW1 1415  11.111  10.061   8.554 -0.3388  0.3430 -0.2255
32159SOL    HW2 1416  11.186  10.187   8.514  1.6995 -1.0101 -0.7972
32160SOL     OW 1417   3.001   4.605  10.174  0.1459 -0.4472 -0.2604
32160SOL    HW1 1418   3.043   4.623  10.090  1.8018  0.3335  0.7099
32160SOL    HW2 1419   3.025   4.514  10.194 -0.1526 -0.5944 -0.5428
32161SOL     OW 1420   0.964  10.354   2.560  0.2397 -0.2321  0.0263
32161SOL    HW1 1421   1.035  10.408   2.527  0.0011 -0.2661 -0.5402
32161SOL    HW2 1422   1.005  10.268   2.574 -0.0905 -0.7624 -2.0164
32162SOL     OW 1423   4.234  11.178   0.745  0.2201 -0.0778  0.7501
32162SOL    HW1 1424   4.140  11.170   0.732  0.6690 -1.2496 -3.1989
32162SOL    HW2 1425   4.252  11.271   0.734 -0.3844 -0.0248  0.0684
32163SOL     OW 1426   1.406   4.649   2.669 -0.3152  0.4142  0.1220
32163SOL    HW1 1427   1.323   4.644   2.716 -0.3673  0.4518  0.0348
32163SOL    HW2 1428   1.441   4.735   2.690 -0.4930  0.5577 -0.1638
32164SOL     OW 1429   7.942   5.292   9.812 -0.9251 -0.2407 -0.5459
32164SOL    HW1 1430   7.992   5.212   9.794 -2.1625 -1.7084  2.0022
32164SOL    HW2 1431   7.854   5.262   9.830 -1.5939  1.8017 -0.1122
32165SOL     OW 1432   3.730   2.953   1.384 -0.4910 -0.4581  0.9279
32165SOL    HW1 1433   3.759   3.040   1.413  2.2295 -1.0109  0.1495
32165SOL    HW2 1434   3.735   2.899   1.463 -1.1077 -0.1663  1.1722
32166SOL     OW 1435   2.627   2.865   1.998  0.0526 -0.6428 -0.5789
32166SOL    HW1 1436   2.698   2.905   2.047  0.1451 -0.4533 -0.8696
32166SOL    HW2 1437   2.670   2.800   1.942  0.1198  0.2180 -1.5417
32167SOL     OW 1438   1.518   3.512   1.913 -0.0058 -0.3102 -0.6130
32167SOL    HW1 1439   1.493   3.571   1.984 -2.1370 -0.0953 -1.4516
32167SOL    HW2 1440   1.522   3.567   1.835  1.7833 -0.6367 -0.7943
32168SOL     OW 1441  10.451   6.251   7.454  0.0149 -0.0883  0.4778
32168SOL    HW1 1442  10.394   6.328   7.458  0.2543  0.3046 -2.1711
32168SOL    HW2 1443  10.409   6.194   7.389  1.5632 -0.7082 -0.0090
32169SOL     OW 1444   2.145   7.531   8.217 -0.4916  0.1911 -0.6979
32169SOL    HW1 1445   2.142   7.482   8.135  1.7819  0.8739 -1.2837
32169SOL    HW2 1446   2.239   7.539   8.236 -0.9457 -0.1537  2.1309
32170SOL     OW 1447   2.633   1.298   5.258 -0.4308  0.1422  0.0412
32170SOL    HW1 1448   2.606   1.298   5.166 -1.4826  1.9834  0.3078
32170SOL    HW2 1449   2.558   1.333   5.306  1.0963  2.0246  1.2404
32171SOL     OW 1450   0.671   7.963   9.816  0.3307 -0.0064 -0.0447
32171SOL    HW1 1451   0.699   8.032   9.877 -1.0471 -0.2755  0.9495
32171SOL    HW2 1452   0.640   8.011   9.739  2.6428  0.3227 -0.8656
32172SOL     OW 1453   9.164   1.501   6.015  0.7471 -0.8040  0.3260
32172SOL    HW1 1454   9.180   1.554   6.092  0.4670 -1.2876  0.7238
32172SOL    HW2 1455   9.074   1.471   6.025  0.2162  0.2824 -0.8956
32173SOL     OW 1456   5.724   5.170  10.874  0.0078  0.6967  0.4086
32173SOL    HW1 1457   5.761   5.255  10.900  0.9003  0.5309 -0.2407
32173SOL    HW2 1458   5.710   5.123  10.956 -1.8095  1.9684  0.8847
32174SOL     OW 1459   9.334  10.498   0.762 -0.1431 -0.1645  1.0554
32174SOL    HW1 1460   9.297  10.409   0.762  1.5225 -0.9810 -1.4530
32174SOL    HW2 1461   9.342  10.520   0.855 -1.2659 -2.3459  1.7606
32175SOL     OW 1462   7.637   8.974   8.501 -0.0809 -0.6761  0.0857
32175SOL    HW1 1463   7.729   8.957   8.482 -0.3604 -2.7060  0.3286
32175SOL    HW2 1464   7.590   8.902   8.458 -1.2920 -1.5105  2.6096
32176SOL     OW 1465   5.478   1.637   6.265 -0.6209 -0.0501  0.4602
32176SOL    HW1 1466   5.464   1.728   6.290  0.2009 -0.3755  2.2936
32176SOL    HW2 1467   5.407   1.589   6.308 -0.2640 -0.4163  0.6564
32177SOL     OW 1468   3.372   2.254   1.237 -0.2596 -0.4859  0.0749
32177SOL    HW1 1469   3.385   2.273   1.144 -1.2975  1.0285  0.1955
32177SOL    HW2 1470   3.360   2.340   1.278  0.7100 -1.0764  1.7120
32178SOL     OW 1471   8.039  11.111   4.580  0.0067  0.2621 -0.1833
32178SOL    HW1 1472   8.092  11.187   4.605  0.6641 -0.1045 -0.4451
32178SOL    HW2 1473   8.059  11.045   4.645 -0.5429  0.2901  0.0251
32179SOL     OW 1474   0.339   8.649   2.416  0.1979 -0.3552  0.2224
32179SOL    HW1 1475   0.317   8.739   2.437  1.3658  0.0795 -0.3459
32179SOL    HW2 1476   0.281   8.626   2.344 -0.0790 -0.0492  0.3479
32180SOL     OW 1477   6.012   6.584   0.702 -0.7744  0.1675 -0.3632
32180SOL    HW1 1478   6.106   6.568   0.710 -0.9460 -1.4371 -1.1425
32180SOL    HW2 1479   6.005   6.679   0.693  0.6590  0.4323  0.8837
32181SOL     OW 1480   7.106   7.167  10.874  0.2009 -0.1826  0.7276
32181SOL    HW1 1481   7.162   7.168  10.796  0.3965  2.1712  0.8359
32181SOL    HW2 1482   7.128   7.085  10.918  0.7888 -1.1040 -1.1886
32182SOL     OW 1483  11.661   8.225   5.792  0.3571  0.2546 -0.3280
32182SOL    HW1 1484  11.655   8.301   5.850  1.4834 -1.1128  1.6974
32182SOL    HW2 1485  11.605   8.248   5.718  1.0273  3.2566 -0.0633
32183SOL     OW 1486   5.122   0.939  10.167  0.6908  0.3979  0.3224
32183SOL    HW1 1487   5.117   0.874  10.096  1.5513  0.2606  0.3765
32183SOL    HW2 1488   5.069   0.901  10.237  2.1725 -0.8710  0.8230
32184SOL     OW 1489   9.796   3.804   5.329  0.3430  0.0468 -0.3330
32184SOL    HW1 1490   9.868   3.741   5.330  0.9741  0.6274 -2.6631
32184SOL    HW2 1491   9.741   3.779   5.403  1.8607 -1.6877  0.2823
32185SOL     OW 1492   0.257   3.675   4.011 -0.0354 -0.2997 -0.2257
32185SOL    HW1 1493   0.256   3.602   3.948  2.2502 -0.2611 -0.3824
32185SOL    HW2 1494   0.234   3.751   3.958 -0.5392 -0.6149 -0.4756
32186SOL     OW 1495   8.408  11.390   2.307 -0.1248  0.1045  0.3892
32186SOL    HW1 1496   8.316  11.365   2.292 -0.1638  0.0513  0.7205
32186SOL    HW2 1497   8.428  11.357   2.394  0.2617 -0.0240  0.2539
32187SOL     OW 1498   4.343   0.516   0.876 -0.4285 -0.0915 -0.1860
32187SOL    HW1 1499   4.372   0.590   0.823 -0.1855  0.1118  0.2280
32187SOL    HW2 1500   4.424   0.473   0.904 -0.5022  0.4844  0.9815
32188SOL     OW 1501  11.296  10.368   8.526 -0.4201 -0.2927 -0.5114
32188SOL    HW1 1502  11.246  10.447   8.549 -1.6333 -0.8303 -1.2404
32188SOL    HW2 1503  11.368  10.401   8.473  0.1294  0.5123  0.6883
32189SOL     OW 1504   2.291   2.432  10.310  0.1224  0.3221 -0.7273
32189SOL    HW1 1505   2.276   2.514  10.358  1.0988  0.9763 -1.4863
32189SOL    HW2 1506   2.381   2.439  10.279  0.5215 -1.4500 -0.0749
32190SOL     OW 1507   8.594  10.644   2.582 -0.4047 -0.2498 -0.1680
32190SOL    HW1 1508   8.519  10.692   2.546  0.3040  0.9282 -0.1011
32190SOL    HW2 1509   8.653  10.631   2.508  1.1795  2.4104  0.4831
32191SOL     OW 1510   7.435   5.216   5.646 -0.7996  0.0504  0.3154
32191SOL    HW1 1511   7.393   5.182   5.725 -1.7204  0.3788 -0.0180
32191SOL    HW2 1512   7.395   5.165   5.575 -0.0823 -0.1462  0.0423
32192SOL     OW 1513   6.371  10.835   4.842  0.1030  0.3485  0.6497
32192SOL    HW1 1514   6.334  10.747   4.834  0.4913 -0.0791  2.9434
32192SOL    HW2 1515   6.466  10.821   4.841  0.2047  0.9661 -0.7537
32193SOL     OW 1516  10.629   3.600   7.243  0.2466 -0.0646 -0.4913
32193SOL    HW1 1517  10.614   3.507   7.224  0.4597 -0.1253 -0.3650
32193SOL    HW2 1518  10.581   3.647   7.175 -1.1938 -0.2356  0.3721
32194SOL     OW 1519   3.654  11.476   0.815  0.5667  0.0085 -0.2215
32194SOL    HW1 1520   3.615  11.544   0.759 -0.1800  0.1089  0.4017
32194SOL    HW2 1521   3.711  11.523   0.875 -2.3656  0.5979  2.3803
32195SOL     OW 1522   3.709   9.170   6.015  0.2231  0.3650  0.3499
32195SOL    HW1 1523   3.798   9.183   5.982 -0.3006  1.0604 -0.8736
32195SOL    HW2 1524   3.710   9.081   6.049  0.6416 -0.7780 -2.3467
32196SOL     OW 1525   7.910   3.615   5.027  0.0096 -0.2797 -0.1754
32196SOL    HW1 1526   7.861   3.643   5.104  0.2517  2.7267 -0.9874
32196SOL    HW2 1527   7.845   3.611   4.957  0.0193 -1.6892 -0.1182
32197SOL     OW 1528  10.972   3.171  11.311 -0.1630  0.1005 -0.0169
32197SOL    HW1 1529  10.949   3.087  11.270 -0.1034 -0.0770  0.3093
32197SOL    HW2 1530  10.898   3.228  11.291  0.7578  0.6723 -2.1727
32198SOL     OW 1531   7.784   7.733   6.511  0.0312  0.0793 -0.1370
32198SOL    HW1 1532   7.800   7.765   6.600  1.0797  0.2036 -0.3508
32198SOL    HW2 1533   7.858   7.675   6.493 -1.8101 -2.5716  0.2570
32199SOL     OW 1534   8.148   9.058   6.304  0.0864  0.4015  0.0730
32199SOL    HW1 1535   8.152   9.004   6.383  0.2515 -0.4629 -0.5141
32199SOL    HW2 1536   8.076   9.022   6.254 -0.0577  0.9877 -0.1562
32200SOL     OW 1537   4.270   3.417   9.734  0.2752 -0.2325  0.0288
32200SOL    HW1 1538   4.354   3.430   9.691 -0.5707  0.9984 -1.3665
32200SOL    HW2 1539   4.253   3.501   9.778  0.1150 -0.7301  0.9377
32201SOL     OW 1540   1.179   8.063   0.381  0.1083  0.1473 -0.1242
32201SOL    HW1 1541   1.270   8.065   0.412 -0.0310 -1.4802  0.4902
32201SOL    HW2 1542   1.128   8.041   0.459 -0.5203 -1.6181 -0.9868
32202SOL     OW 1543   0.902   7.752   8.565 -0.0001  0.0710 -0.1183
32202SOL    HW1 1544   0.811   7.737   8.540 -0.1795  0.0580  0.5300
32202SOL    HW2 1545   0.907   7.844   8.588 -0.7159 -0.5995  3.2288
32203SOL     OW 1546   3.456  10.622   2.172  0.3760  0.0502  0.2907
32203SOL    HW1 1547   3.379  10.618   2.115 -0.2990 -0.1302  1.1944
32203SOL    HW2 1548   3.525  10.660   2.117  0.4238 -2.2945 -1.3921
32204SOL     OW 1549   0.222   8.369   5.071  0.4643 -0.0829  0.2080
32204SOL    HW1 1550   0.200   8.294   5.126 -1.5839  0.3377  0.0339
32204SOL    HW2 1551   0.256   8.434   5.133  1.8499 -0.9508  0.4101
32205SOL     OW 1552   7.999   7.274   9.461 -0.1127  0.5250  0.1446
32205SOL    HW1 1553   8.029   7.338   9.526 -0.5867  0.0297  0.8627
32205SOL    HW2 1554   7.970   7.327   9.387 -0.1971  1.1250  0.5983
32206SOL     OW 1555   1.937   7.668   5.112  0.8485 -0.0822  0.0617
32206SOL    HW1 1556   1.972   7.717   5.038  1.0937 -0.1636  0.1235
32206SOL    HW2 1557   1.894   7.734   5.166 -1.9208 -0.3582 -1.5866
32207SOL     OW 1558   0.529   7.647   4.916 -0.2110  0.0519 -0.3298
32207SOL    HW1 1559   0.564   7.637   4.827 -1.0042  1.4175 -0.8313
32207SOL    HW2 1560   0.595   7.607   4.972  0.6056 -0.2837 -1.4801
32208SOL     OW 1561   1.018   1.373   6.010 -0.1902 -0.0472  0.2474
32208SOL    HW1 1562   0.989   1.439   6.073  2.8079 -0.9764  2.8811
32208SOL    HW2 1563   0.972   1.293   6.035 -1.6951  0.3268 -1.1498
32209SOL     OW 1564   4.829   0.556  11.532  0.0457  0.0437  0.6008
32209SOL    HW1 1565   4.833   0.615  11.457 -1.1329  1.4677  1.6023
32209SOL    HW2 1566   4.825   0.614  11.608 -0.5432 -1.3299  1.6664
32210SOL     OW 1567   0.135   8.693  11.268 -0.3371 -0.0639 -0.1519
32210SOL    HW1 1568   0.105   8.735  11.348 -0.5369  1.0661 -0.7974
32210SOL    HW2 1569   0.189   8.620  11.298 -1.1600 -0.2226  1.0051
32211SOL     OW 1570   0.218   9.736   0.092  0.1110  0.1835  0.3904
32211SOL    HW1 1571   0.166   9.770   0.165  0.4424 -0.3760  0.8963
32211SOL    HW2 1572   0.251   9.652   0.123  0.8644  0.2766 -0.1310
32212SOL     OW 1573   3.079   5.161  10.317 -0.3746 -0.0122  0.7570
32212SOL    HW1 1574   3.167   5.125  10.307 -0.1922  1.0800 -3.1543
32212SOL    HW2 1575   3.022   5.085  10.320  0.6073 -0.7621  3.9270
32213SOL     OW 1576   7.138   1.740   8.649  0.7635 -0.1265  0.2706
32213SOL    HW1 1577   7.059   1.703   8.689  1.2070 -0.9521  0.4196
32213SOL    HW2 1578   7.208   1.680   8.676  1.3055  0.1237 -0.5424
32214SOL     OW 1579   1.281   1.914   4.138 -0.1931 -0.6038 -0.1486
32214SOL    HW1 1580   1.245   1.853   4.202 -2.2263 -1.8185 -2.2790
32214SOL    HW2 1581   1.375   1.908   4.149 -0.4478 -1.4102  2.0987
32215SOL     OW 1582   7.372   9.706   3.190  0.0978  0.3911 -0.4683
32215SOL    HW1 1583   7.292   9.674   3.149  1.2747 -0.4167 -2.2252
32215SOL    HW2 1584   7.442   9.650   3.155  1.4005  0.8070  1.3250
32216SOL     OW 1585   6.479   0.438   5.559  0.1222  0.1114 -0.0015
32216SOL    HW1 1586   6.392   0.407   5.584  0.8297 -0.7893  1.5070
32216SOL    HW2 1587   6.470   0.465   5.468 -1.9543  0.9278  0.3801
32217SOL     OW 1588   1.269   5.468  11.377  0.6094  0.0440  0.7301
32217SOL    HW1 1589   1.262   5.500  11.467  1.6708 -0.2542  0.9403
32217SOL    HW2 1590   1.363   5.470  11.359  0.2715  2.1765 -1.1554
32218SOL     OW 1591   9.634   5.685   0.783 -0.7798  0.3753 -0.1362
32218SOL    HW1 1592   9.702   5.737   0.740 -1.2719  2.2962  1.2756
32218SOL    HW2 1593   9.552   5.725   0.754 -1.2540 -0.5695 -0.1405
32219SOL     OW 1594  10.930   1.324   1.917  0.3945 -0.9625 -0.5484
32219SOL    HW1 1595  10.975   1.251   1.962  1.0866  0.6666  1.5828
32219SOL    HW2 1596  10.897   1.379   1.988 -0.5175  0.5833 -2.0954
32220SOL     OW 1597   4.613  11.084   2.563 -0.2380 -0.3258  0.2995
32220SOL    HW1 1598   4.665  11.017   2.519 -0.5436  0.7688 -1.9001
32220SOL    HW2 1599   4.677  11.144   2.601  0.0899 -0.3552 -0.1935
32221SOL     OW 1600   9.083  11.389   4.367  0.1586  0.4638  0.2146
32221SOL    HW1 1601   9.178  11.379   4.358  0.2073  1.0388  0.0391
32221SOL    HW2 1602   9.058  11.439   4.289 -0.4632 -0.7267 -0.3802
32222SOL     OW 1603  11.500   3.814   5.753 -0.1565 -0.3195 -0.0545
32222SOL    HW1 1604  11.517   3.893   5.804 -1.8262 -0.9916  1.6743
32222SOL    HW2 1605  11.469   3.847   5.668  0.8464  0.8344 -0.0015
32223SOL     OW 1606   4.009   6.418   4.091 -0.7631  0.7795 -0.1396
32223SOL    HW1 1607   3.959   6.337   4.088  1.9687 -1.0347 -0.7874
32223SOL    HW2 1608   4.020   6.436   4.184 -1.6733  0.6190  0.0087
32224SOL     OW 1609  10.589   5.840   4.443 -0.3103  0.5226 -0.2898
32224SOL    HW1 1610  10.554   5.754   4.421 -0.8196  0.8883 -0.9606
32224SOL    HW2 1611  10.680   5.824   4.467  0.4765  0.1196 -3.1940
32225SOL     OW 1612   0.585   1.547   2.374  0.4205  0.0626 -0.6666
32225SOL    HW1 1613   0.674   1.560   2.342  0.8191 -0.9619 -0.0132
32225SOL    HW2 1614   0.588   1.572   2.466  0.1514 -0.4551 -0.5146
32226SOL     OW 1615   9.845  10.177  11.463 -0.2480  0.1984  0.5007
32226SOL    HW1 1616   9.831  10.107  11.526  0.7762  0.2790  0.8278
32226SOL    HW2 1617   9.853  10.132  11.379 -1.6564  0.0962  0.4035
32227SOL     OW 1618   3.167   9.509   0.616 -0.1495  0.6533 -0.3891
32227SOL    HW1 1619   3.141   9.511   0.708 -0.9876 -1.2562 -0.5455
32227SOL    HW2 1620   3.260   9.532   0.617 -0.2285  0.9859  0.8839
32228SOL     OW 1621   9.229   2.023   4.288  0.0009  0.7828  0.4393
32228SOL    HW1 1622   9.287   2.025   4.363  0.5403 -1.0256  0.1238
32228SOL    HW2 1623   9.248   1.940   4.245 -2.0085  0.6606 -0.3273
32229SOL     OW 1624  11.065   3.023   8.831 -1.2481 -0.2135 -0.2130
32229SOL    HW1 1625  11.031   3.104   8.793  1.4550  1.2705  0.2928
32229SOL    HW2 1626  11.070   2.963   8.757  1.0004  1.6215 -1.6899
32230SOL     OW 1627   9.488   9.609   2.915  0.5833  0.2582 -0.1714
32230SOL    HW1 1628   9.578   9.639   2.912  0.3080  1.0263 -0.9161
32230SOL    HW2 1629   9.457   9.634   3.003  1.0973 -0.0438  0.0982
32231SOL     OW 1630   6.268   0.062   5.566  0.1537  0.0862  0.0098
32231SOL    HW1 1631   6.361   0.080   5.557  0.4998 -1.3446  0.3795
32231SOL    HW2 1632   6.235   0.131   5.623  1.0765  0.3700  0.2065
32232SOL     OW 1633   1.477   0.351   2.457  0.6777 -0.0496 -0.6112
32232SOL    HW1 1634   1.381   0.353   2.453  0.6686  1.2527 -0.1289
32232SOL    HW2 1635   1.499   0.396   2.538  1.6152 -3.8587  1.5179
32233SOL     OW 1636   0.926  11.090   1.025 -0.2588 -0.2415  0.6390
32233SOL    HW1 1637   0.882  11.154   0.969  0.3118  0.9435  1.4908
32233SOL    HW2 1638   1.012  11.079   0.986 -0.7640 -1.4251 -0.1829
32234SOL     OW 1639  11.138   2.822   3.582  0.0529 -0.4847  0.4525
32234SOL    HW1 1640  11.217   2.826   3.636  0.7767  0.4630 -0.6336
32234SOL    HW2 1641  11.142   2.736   3.541  1.8704  0.4334 -1.4919
32235SOL     OW 1642   7.167   9.626  10.653  0.5440  0.6645 -0.8816
32235SOL    HW1 1643   7.199   9.642  10.741 -0.5832 -1.2232 -0.0671
32235SOL    HW2 1644   7.205   9.542  10.628 -0.2052  0.5347 -1.6526
32236SOL     OW 1645   4.992   9.041   9.971  0.2704 -0.5004 -0.0592
32236SOL    HW1 1646   5.038   9.045   9.887 -0.0205  1.5509 -0.1652
32236SOL    HW2 1647   4.966   8.949   9.979  0.9339 -0.8964 -1.8532
32237SOL     OW 1648   3.763   1.577   9.303 -0.0247  0.1500  0.1134
32237SOL    HW1 1649   3.813   1.636   9.246  0.4344  0.2763  0.6451
32237SOL    HW2 1650   3.769   1.492   9.259 -1.2306  0.5925 -1.0035
32238SOL     OW 1651   1.875   1.567   8.819 -0.2182 -0.1779  0.7118
32238SOL    HW1 1652   1.856   1.513   8.743  2.2314  1.0213 -0.9091
32238SOL    HW2 1653   1.800   1.556   8.876 -2.7282 -0.3413 -2.3273
32239SOL     OW 1654   5.402   2.060   1.243  0.3007 -0.7069 -0.0045
32239SOL    HW1 1655   5.356   2.133   1.284  1.2675  0.4620 -0.9400
32239SOL    HW2 1656   5.451   2.019   1.315 -0.0966 -0.3257  0.4884
32240SOL     OW 1657   6.813   1.382   4.380  0.6952 -0.1425 -0.3127
32240SOL    HW1 1658   6.754   1.308   4.362  2.0761 -1.4342  0.2926
32240SOL    HW2 1659   6.773   1.425   4.456  0.1193 -0.5547 -0.3711
32241SOL     OW 1660   5.480   9.614   1.983 -0.1558  0.0007  0.3474
32241SOL    HW1 1661   5.466   9.707   2.004  1.5039  0.1918  0.8212
32241SOL    HW2 1662   5.571   9.611   1.953 -0.6088 -1.2805 -0.9621
32242SOL     OW 1663   2.097   8.992   7.325 -0.1681  0.1801 -0.2831
32242SOL    HW1 1664   2.118   9.059   7.390 -0.2501 -0.5354  0.4947
32242SOL    HW2 1665   2.031   9.033   7.269 -1.4729  0.1962  1.1907
32243SOL     OW 1666   2.221  10.575   6.199 -0.2462 -0.3938  0.6473
32243SOL    HW1 1667   2.277  10.650   6.220  1.6231 -1.5312 -0.0379
32243SOL    HW2 1668   2.200  10.586   6.107  0.1843 -0.7950  0.4986
32244SOL     OW 1669   4.705   6.275   8.172  0.1125  0.1913  0.4153
32244SOL    HW1 1670   4.664   6.289   8.087 -0.4184  1.0953  0.7989
32244SOL    HW2 1671   4.741   6.187   8.168 -2.2894 -0.8704  0.1977
32245SOL     OW 1672   6.207   4.497   7.267  0.2678  0.0653 -0.4673
32245SOL    HW1 1673   6.135   4.444   7.300  0.4671 -1.1405 -1.8463
32245SOL    HW2 1674   6.166   4.577   7.236 -0.1822  0.2954  0.6870
32246SOL     OW 1675   4.052   5.383  11.368 -0.1958  0.0678 -0.3867
32246SOL    HW1 1676   4.046   5.294  11.402  0.2037  0.0997 -0.2169
32246SOL    HW2 1677   3.964   5.419  11.377 -0.0520  0.1598  0.8881
32247SOL     OW 1678   6.336   6.787   9.632  0.1007 -0.1124  0.0385
32247SOL    HW1 1679   6.340   6.881   9.615 -0.3191 -0.1254 -0.1405
32247SOL    HW2 1680   6.361   6.778   9.724 -0.2180  0.2093  0.1594
32248SOL     OW 1681   9.361  10.572   6.924  0.0457 -0.0222 -0.0871
32248SOL    HW1 1682   9.324  10.655   6.894 -0.6366 -0.0528  0.6188
32248SOL    HW2 1683   9.284  10.517   6.943  0.4072 -0.0118  1.6035
32249SOL     OW 1684   7.779   2.525   8.759 -0.6355  0.2019 -0.4677
32249SOL    HW1 1685   7.840   2.534   8.832 -0.1079  0.3062 -0.9156
32249SOL    HW2 1686   7.822   2.570   8.686 -0.9212 -0.3396 -0.9775
32250SOL     OW 1687   4.382   6.022   4.589  0.0884 -0.0675 -0.5708
32250SOL    HW1 1688   4.454   5.992   4.533  0.2128 -0.5155 -0.1783
32250SOL    HW2 1689   4.418   6.095   4.639  0.9706 -1.6203  1.1899
32251SOL     OW 1690   2.630   0.243   5.277 -0.4442  1.0997  0.2525
32251SOL    HW1 1691   2.631   0.289   5.361  2.3978  1.7998 -0.0426
32251SOL    HW2 1692   2.618   0.312   5.212 -0.6720  0.8151 -0.0138
32252SOL     OW 1693   8.538   9.778  10.650  0.2199  0.3042 -0.2798
32252SOL    HW1 1694   8.559   9.797  10.741 -1.7127  0.0348  0.2558
32252SOL    HW2 1695   8.543   9.864  10.606  0.9361  0.4688  0.1067
32253SOL     OW 1696   1.999   5.149   5.754 -0.4496  0.3611 -0.4526
32253SOL    HW1 1697   1.952   5.201   5.820  0.5577  0.7264 -0.0037
32253SOL    HW2 1698   2.004   5.206   5.678 -0.7509  0.3119 -0.5105
32254SOL     OW 1699   9.020   2.467   6.275 -0.4661  0.1053  0.5737
32254SOL    HW1 1700   9.005   2.376   6.249  1.6893 -0.4857  1.1625
32254SOL    HW2 1701   9.010   2.517   6.194  1.3489 -1.0929 -0.4743
32255SOL     OW 1702   0.854   9.326  10.959  0.2124 -0.1473  0.4366
32255SOL    HW1 1703   0.927   9.388  10.964 -0.2455  0.4624 -0.3232
32255SOL    HW2 1704   0.784   9.366  11.010  0.3264 -0.6453  1.0044
32256SOL     OW 1705   6.485   4.348  10.548 -0.1251  0.5009  0.4934
32256SOL    HW1 1706   6.527   4.416  10.497  1.1843 -0.0651  0.7769
32256SOL    HW2 1707   6.404   4.388  10.580 -0.4633  1.1836 -1.1410
32257SOL     OW 1708   7.989   5.642   1.775 -0.3666  0.1308 -0.1956
32257SOL    HW1 1709   7.976   5.551   1.799 -0.1165 -0.2092 -1.2962
32257SOL    HW2 1710   7.926   5.657   1.704  2.5699 -0.5372 -3.2065
32258SOL     OW 1711   3.298  10.982   3.557 -0.0442 -0.0561 -0.5999
32258SOL    HW1 1712   3.297  10.984   3.653  0.7597  1.3905 -0.5905
32258SOL    HW2 1713   3.271  10.893   3.535 -0.9252 -0.2114  0.9503
32259SOL     OW 1714   4.465   3.195   2.741  0.1548 -0.0091  0.3164
32259SOL    HW1 1715   4.377   3.162   2.755 -0.0280  0.8982  1.4387
32259SOL    HW2 1716   4.519   3.148   2.804  0.5387 -0.7215 -0.5154
32260SOL     OW 1717   6.170   0.699   4.598  0.0319  0.7293 -0.0664
32260SOL    HW1 1718   6.239   0.675   4.659  0.5538 -3.5458 -1.9739
32260SOL    HW2 1719   6.090   0.697   4.651  0.7268 -0.4857  1.0129
32261SOL     OW 1720   9.132  11.618   2.299  0.5263  0.1729 -0.2936
32261SOL    HW1 1721   9.209  11.582   2.255 -0.2645 -1.4020 -0.4483
32261SOL    HW2 1722   9.068  11.547   2.297 -1.2344  1.6923 -0.9034
32262SOL     OW 1723   5.991   7.342   2.085  0.1159 -0.2535  0.1152
32262SOL    HW1 1724   5.897   7.358   2.076  0.1395 -0.7423 -1.3551
32262SOL    HW2 1725   6.032   7.422   2.053  0.2104  0.0801  1.0509
32263SOL     OW 1726   7.817  10.790   4.919  0.4642  0.3782 -0.2774
32263SOL    HW1 1727   7.748  10.790   4.852 -2.0957  1.8649  2.1877
32263SOL    HW2 1728   7.859  10.704   4.909 -1.8684 -0.6930 -1.7466
32264SOL     OW 1729   0.268   4.110   1.273 -0.0054 -0.2326 -0.3873
32264SOL    HW1 1730   0.358   4.076   1.263  0.3211  0.3243  0.5434
32264SOL    HW2 1731   0.218   4.036   1.306 -0.9436 -1.9070 -4.8596
32265SOL     OW 1732   7.034   9.866  10.219 -0.2118  0.4204  0.5952
32265SOL    HW1 1733   7.023   9.772  10.231  3.9831 -0.2810  0.4643
32265SOL    HW2 1734   6.979   9.887  10.143 -1.0535 -1.9344  0.4680
32266SOL     OW 1735   8.695  10.709   1.173 -0.3338  1.0305  0.0939
32266SOL    HW1 1736   8.684  10.660   1.255  2.5138 -0.9712 -0.5526
32266SOL    HW2 1737   8.776  10.758   1.185 -1.2582  2.8306 -0.6343
32267SOL     OW 1738   5.799   5.427   4.564 -0.0746  0.2152  0.3141
32267SOL    HW1 1739   5.749   5.506   4.585  0.5928  0.9692 -0.8052
32267SOL    HW2 1740   5.866   5.422   4.632 -0.9832 -0.2004  1.2012
32268SOL     OW 1741   9.662   9.891   5.159 -0.0430 -0.1116 -0.4425
32268SOL    HW1 1742   9.630   9.872   5.071 -1.6198  1.2354 -0.2079
32268SOL    HW2 1743   9.723   9.964   5.148 -0.4853  0.2703 -0.4007
32269SOL     OW 1744   1.258   0.102   6.483  0.0085 -0.2262 -0.0332
32269SOL    HW1 1745   1.267   0.009   6.463 -0.4144 -0.3489  0.3317
32269SOL    HW2 1746   1.311   0.115   6.561 -0.0686 -0.2003  0.0152
32270SOL     OW 1747   1.964   2.777   1.958 -0.3199 -0.4833  0.5004
32270SOL    HW1 1748   2.028   2.707   1.973  0.2992 -0.1443 -0.4241
32270SOL    HW2 1749   2.014   2.858   1.969 -0.7695 -0.1991  0.4802
32271SOL     OW 1750   0.852   4.970   3.801 -0.3045 -0.4408 -0.2138
32271SOL    HW1 1751   0.834   4.995   3.711  1.8321  0.7363 -0.3740
32271SOL    HW2 1752   0.920   5.031   3.830  1.2727 -2.7013  1.1839
32272SOL     OW 1753  11.641   5.395   1.608 -0.9407  0.0950  0.4671
32272SOL    HW1 1754  11.618   5.483   1.578  0.5477  0.3715  0.0063
32272SOL    HW2 1755  11.562   5.343   1.596 -2.0146  1.4873  1.2654
32273SOL     OW 1756   7.851   2.849   6.184 -1.0463 -0.2066  0.3222
32273SOL    HW1 1757   7.841   2.928   6.237 -1.6651  0.4706 -0.7639
32273SOL    HW2 1758   7.945   2.843   6.166 -0.8447 -0.3799  1.3630
32274SOL     OW 1759   9.553   4.589   5.433 -0.0323 -0.1586  0.0648
32274SOL    HW1 1760   9.539   4.589   5.339  1.2405 -1.1255 -0.1492
32274SOL    HW2 1761   9.631   4.535   5.446 -0.1323  0.0287  1.6632
32275SOL     OW 1762   7.744   6.405   1.785  0.2057  0.0277  0.2705
32275SOL    HW1 1763   7.795   6.418   1.705 -0.6542 -0.4479 -0.3718
32275SOL    HW2 1764   7.685   6.481   1.789 -0.2819 -0.3310  0.0297
32276SOL     OW 1765   9.855   5.715   9.475  0.0970  0.3007 -0.1135
32276SOL    HW1 1766   9.776   5.678   9.437  0.9888 -1.7055 -0.1145
32276SOL    HW2 1767   9.844   5.705   9.569  0.4263 -0.1478 -0.1218
32277SOL     OW 1768   9.727   8.941   6.085  0.3637  0.6023  0.4821
32277SOL    HW1 1769   9.656   8.877   6.081  2.1144 -1.4153 -0.3171
32277SOL    HW2 1770   9.703   8.999   6.158  0.1068 -2.8143  3.3780
32278SOL     OW 1771   4.828   0.341   2.893 -0.0228 -0.4667 -0.3144
32278SOL    HW1 1772   4.746   0.334   2.943  0.3106  2.1857  0.7649
32278SOL    HW2 1773   4.894   0.303   2.950 -0.3557 -2.0250 -0.9181
32279SOL     OW 1774  10.606   3.174   1.652  0.4809  0.1651 -0.0305
32279SOL    HW1 1775  10.687   3.145   1.612  0.1720 -2.7815  1.2188
32279SOL    HW2 1776  10.624   3.173   1.746 -0.2907  1.9968  0.1870
32280SOL     OW 1777   6.412   2.228   6.646  0.2002  0.0000 -0.0697
32280SOL    HW1 1778   6.428   2.141   6.611 -0.9775  0.2436 -1.3101
32280SOL    HW2 1779   6.362   2.212   6.726 -1.1998 -0.4603 -0.9943
32281SOL     OW 1780   7.486  11.339   5.077 -0.0505  0.2772 -0.9785
32281SOL    HW1 1781   7.532  11.294   5.007 -0.4011 -1.4318 -0.1604
32281SOL    HW2 1782   7.511  11.293   5.157 -2.1864  0.0496 -0.3616
32282SOL     OW 1783   1.146   1.707   1.740 -0.0644 -0.2490  0.3935
32282SOL    HW1 1784   1.181   1.763   1.809 -2.1419  0.6989  0.7834
32282SOL    HW2 1785   1.051   1.714   1.751 -0.4177 -1.2637 -1.6398
32283SOL     OW 1786   2.148   8.366   7.101 -0.4909  0.0040  0.2434
32283SOL    HW1 1787   2.123   8.274   7.093 -2.2228  0.4164  0.5152
32283SOL    HW2 1788   2.068   8.414   7.083  0.1036  1.4319  1.2415
32284SOL     OW 1789   2.489   8.195   5.328 -0.0052 -0.4733  0.1138
32284SOL    HW1 1790   2.454   8.274   5.370  2.5080  0.1205  1.2396
32284SOL    HW2 1791   2.453   8.197   5.240 -0.8707  1.3366  0.4656
32285SOL     OW 1792   9.543   0.913  11.152 -0.1091 -0.1746  0.7536
32285SOL    HW1 1793   9.592   0.938  11.231 -0.2584 -0.0103  0.7934
32285SOL    HW2 1794   9.503   0.829  11.175  2.2760 -1.6854 -0.1613
32286SOL     OW 1795   9.944   4.124   3.835 -0.0008  0.5322  0.0846
32286SOL    HW1 1796   9.877   4.055   3.835 -1.3328  1.7295  1.3086
32286SOL    HW2 1797   9.997   4.107   3.757  0.5557 -2.6059  0.9981
32287SOL     OW 1798   5.764   8.502   8.903 -0.4274  0.2062  0.5258
32287SOL    HW1 1799   5.841   8.467   8.858 -0.2286  1.6604 -0.3349
32287SOL    HW2 1800   5.689   8.468   8.854 -0.2270  1.2126 -0.5343
32288SOL     OW 1801   3.628  11.317   9.176 -0.5076  0.1469 -0.3086
32288SOL    HW1 1802   3.606  11.309   9.269 -0.7062  0.0799 -0.3624
32288SOL    HW2 1803   3.715  11.358   9.176 -0.2588 -0.3701 -0.0747
32289SOL     OW 1804  10.854   3.446   7.321 -0.0897 -0.0119 -0.1116
32289SOL    HW1 1805  10.932   3.457   7.265  0.9606  1.9691  1.6206
32289SOL    HW2 1806  10.794   3.515   7.293 -0.2936 -0.1272  0.0379
32290SOL     OW 1807   4.913  11.378   9.203 -0.0100 -0.2729  0.6239
32290SOL    HW1 1808   4.893  11.440   9.132  1.5574  0.7835  1.0502
32290SOL    HW2 1809   4.878  11.295   9.172 -0.4473  0.4155 -0.8528
32291SOL     OW 1810   7.935   3.800   8.144  0.6404 -0.2007  0.6219
32291SOL    HW1 1811   7.868   3.821   8.208  1.2713 -0.4534  1.3870
32291SOL    HW2 1812   7.996   3.743   8.191  2.2556  1.3065  0.4514
32292SOL     OW 1813  10.626   4.749   3.057 -0.5310 -0.3061  0.0901
32292SOL    HW1 1814  10.561   4.709   3.114  0.0359 -0.1758  0.8329
32292SOL    HW2 1815  10.575   4.783   2.983 -1.8278  2.6470  2.1284
32293SOL     OW 1816   8.160   9.309   3.852 -0.3069 -0.6857  0.8044
32293SOL    HW1 1817   8.142   9.387   3.800  0.3453 -1.1390 -0.1199
32293SOL    HW2 1818   8.096   9.244   3.823  0.8565 -1.3547 -0.3982
32294SOL     OW 1819   9.292   7.986   1.532 -0.5642  0.1825 -0.2772
32294SOL    HW1 1820   9.272   8.077   1.512 -0.5079  0.3162  0.2678
32294SOL    HW2 1821   9.332   7.952   1.451 -1.9565  0.2131 -1.0032
32295SOL     OW 1822   4.851  10.336   6.998 -0.3595 -0.1248 -0.5692
32295SOL    HW1 1823   4.932  10.326   6.949 -0.2151  1.1199 -0.6043
32295SOL    HW2 1824   4.782  10.337   6.931 -0.3146 -0.1246 -0.6148
32296SOL     OW 1825  10.168  11.520   2.032  0.2673 -0.7392 -0.1404
32296SOL    HW1 1826  10.153  11.614   2.028  0.0519 -0.7543  0.3201
32296SOL    HW2 1827  10.086  11.482   1.999  0.4464 -0.7649 -0.5659
32297SOL     OW 1828   6.911   3.516   8.128 -0.0772  1.0290 -0.0741
32297SOL    HW1 1829   6.875   3.546   8.044 -1.7026  2.9569  1.2235
32297SOL    HW2 1830   6.863   3.566   8.194  2.6751  1.2270  1.9515
32298SOL     OW 1831   4.747  10.933   2.005  0.4547  0.4136 -0.4942
32298SOL    HW1 1832   4.692  11.009   1.984 -0.1488 -0.2519 -1.3866
32298SOL    HW2 1833   4.799  10.919   1.926  3.0074  1.8816  0.7810
32299SOL     OW 1834  10.540   8.224   0.412 -0.5819 -0.2973 -0.2562
32299SOL    HW1 1835  10.544   8.319   0.407  1.3764 -0.1090  2.7408
32299SOL    HW2 1836  10.449   8.205   0.436 -1.5446  0.5583 -2.8469
32300SOL     OW 1837   3.549  10.989   0.921 -0.2980  0.4030  0.5067
32300SOL    HW1 1838   3.556  10.950   0.833  0.7074 -0.5388  0.9747
32300SOL    HW2 1839   3.521  11.079   0.905  2.9731  1.3054 -1.0693
32301SOL     OW 1840   9.054   0.323   7.314 -0.0508  0.1473  0.5658
32301SOL    HW1 1841   8.965   0.338   7.345  0.1986  1.2949  0.7546
32301SOL    HW2 1842   9.052   0.234   7.278 -1.2026  0.0686  0.7906
32302SOL     OW 1843  10.819   4.373   0.817  0.2261  0.2523  0.2468
32302SOL    HW1 1844  10.898   4.320   0.826 -0.6799 -1.0892  0.6083
32302SOL    HW2 1845  10.824   4.408   0.728  0.4733 -1.1382 -0.3227
32303SOL     OW 1846   9.572   6.488   9.245 -0.1335  0.3694  0.4499
32303SOL    HW1 1847   9.581   6.572   9.289 -0.7624 -0.6483  2.6499
32303SOL    HW2 1848   9.538   6.429   9.312 -4.4700 -0.5527 -2.1629
32304SOL     OW 1849   0.982  11.362  11.216  0.1357  0.2808  0.8575
32304SOL    HW1 1850   0.922  11.315  11.157  2.4401  0.2103 -1.6407
32304SOL    HW2 1851   0.970  11.319  11.301 -2.0129 -0.8841  0.0667
32305SOL     OW 1852   7.646   5.927   0.585 -0.2857 -0.6531 -0.2113
32305SOL    HW1 1853   7.583   5.919   0.657  0.2848  1.1749  0.5314
32305SOL    HW2 1854   7.679   6.016   0.591  0.0016 -0.5308 -2.5941
32306SOL     OW 1855   5.991   0.243   6.565  0.3823 -0.2428  0.1553
32306SOL    HW1 1856   6.039   0.222   6.646  0.5724 -2.3597 -0.4498
32306SOL    HW2 1857   5.989   0.161   6.517 -0.6591  0.7281 -1.5359
32307SOL     OW 1858  10.518   3.113   3.001  0.0705 -0.2545 -0.5203
32307SOL    HW1 1859  10.477   3.199   3.004 -1.6713 -1.0040 -1.5555
32307SOL    HW2 1860  10.498   3.074   3.086 -0.0764 -0.0379 -0.4548
32308SOL     OW 1861   8.833   5.199   7.778  0.5879 -0.4232  0.1907
32308SOL    HW1 1862   8.876   5.284   7.780 -0.2324  0.0236  2.5432
32308SOL    HW2 1863   8.904   5.137   7.763  1.6982  0.4838  1.4083
32309SOL     OW 1864   2.387   3.178   8.768 -0.4642  0.1576  0.3403
32309SOL    HW1 1865   2.482   3.172   8.759 -0.4395 -0.0380  0.6898
32309SOL    HW2 1866   2.360   3.088   8.789 -0.8619 -0.0373 -0.9451
32310SOL     OW 1867   0.657   8.998   9.592 -0.0153 -0.7195 -0.1210
32310SOL    HW1 1868   0.668   8.907   9.565  1.1102  0.2739 -3.4010
32310SOL    HW2 1869   0.569   9.022   9.565  0.6274 -0.1244 -1.8169
32311SOL     OW 1870   7.556  10.850   7.016  0.2688 -0.1614  0.8809
32311SOL    HW1 1871   7.636  10.812   7.053  0.0183 -0.4335  1.1477
32311SOL    HW2 1872   7.549  10.936   7.057  0.7526  0.1100  0.3966
32312SOL     OW 1873   1.827   4.896   4.415 -0.1026  0.0524  0.2923
32312SOL    HW1 1874   1.747   4.930   4.375 -0.6438 -2.1210 -0.6272
32312SOL    HW2 1875   1.814   4.908   4.509 -2.1216 -1.3441  0.2657
32313SOL     OW 1876   2.424  11.617   0.160  0.5390 -0.2053 -0.1573
32313SOL    HW1 1877   2.471  11.577   0.087  0.3048  0.5800 -0.7551
32313SOL    HW2 1878   2.382  11.694   0.122 -1.0340 -0.7409  0.4137
32314SOL     OW 1879  10.938   7.842   6.195 -0.1361  0.1719 -0.0749
32314SOL    HW1 1880  10.997   7.914   6.173  0.2794 -0.1568 -0.0401
32314SOL    HW2 1881  10.986   7.790   6.259 -0.7396  0.2794  0.4785
32315SOL     OW 1882  11.464   7.433   7.626 -0.4471  0.3394  0.2622
32315SOL    HW1 1883  11.502   7.478   7.701 -1.0883  0.2196  0.6656
32315SOL    HW2 1884  11.464   7.499   7.556 -0.2636  0.5924  0.4989
32316SOL     OW 1885   0.066  11.339   0.958  0.0262 -0.5804 -0.9475
32316SOL    HW1 1886   0.041  11.381   1.040  1.1555  0.8015 -1.2622
32316SOL    HW2 1887   0.006  11.265   0.949 -1.0006  0.0420  0.4341
32317SOL     OW 1888   4.881   1.158   4.597 -0.3783  0.5040  0.1606
32317SOL    HW1 1889   4.942   1.157   4.523 -1.1539  1.4875 -0.5080
32317SOL    HW2 1890   4.904   1.236   4.647  0.6941 -0.5939  1.4742
32318SOL     OW 1891   8.582   1.632  11.577  0.1240  0.3027  0.1941
32318SOL    HW1 1892   8.664   1.584  11.572 -0.1895 -0.2567  0.4285
32318SOL    HW2 1893   8.519   1.569  11.612 -0.5410  0.5535 -0.5380
32319SOL     OW 1894   6.647   8.415   4.570  0.3344  0.1513  0.5539
32319SOL    HW1 1895   6.680   8.362   4.643 -0.5739  1.3147  1.8585
32319SOL    HW2 1896   6.653   8.505   4.600  2.0535  0.8889 -1.7117
32320SOL     OW 1897   2.779   0.461   4.475  0.3312 -0.0327 -0.0524
32320SOL    HW1 1898   2.795   0.550   4.445 -0.7884  0.3310  0.3847
32320SOL    HW2 1899   2.685   0.449   4.467  0.5604 -1.5162 -0.9951
32321SOL     OW 1900  10.535  10.422   2.057 -0.4819 -0.3116 -0.2327
32321SOL    HW1 1901  10.576  10.413   2.144  0.2573 -2.5101 -0.7457
32321SOL    HW2 1902  10.586  10.492   2.015  0.0367 -0.1520  0.6172
32322SOL     OW 1903   2.581   4.583   3.166 -0.3239  0.3652 -0.4826
32322SOL    HW1 1904   2.624   4.595   3.250  2.3428 -0.9341 -1.5237
32322SOL    HW2 1905   2.501   4.635   3.171  0.3480  1.2647  2.3830
32323SOL     OW 1906   6.750   8.125   2.691 -0.2235  0.3283  0.2390
32323SOL    HW1 1907   6.687   8.190   2.661 -0.5347 -0.6642 -1.4336
32323SOL    HW2 1908   6.835   8.160   2.665 -0.3713  0.2079 -0.4367
32324SOL     OW 1909   6.202   5.405   0.961  0.0510  0.0897 -0.2284
32324SOL    HW1 1910   6.296   5.391   0.973 -0.1737 -0.3975  1.1506
32324SOL    HW2 1911   6.196   5.483   0.906  1.2640  0.2893 -0.1034
32325SOL     OW 1912  10.144   9.259   2.440 -0.2005 -0.2229  0.6775
32325SOL    HW1 1913  10.176   9.339   2.399 -1.4470 -0.2053 -0.2958
32325SOL    HW2 1914  10.211   9.194   2.420 -0.1847  0.0890 -0.3162
32326SOL     OW 1915   3.077   9.148   7.995 -0.7780  0.0749 -0.0872
32326SOL    HW1 1916   3.070   9.125   8.088 -0.8239  1.0997  0.1764
32326SOL    HW2 1917   3.016   9.089   7.951  0.0034 -1.1222  0.3994
32327SOL     OW 1918   2.606   8.407   6.478  0.3711 -0.2847 -0.2808
32327SOL    HW1 1919   2.683   8.435   6.429  0.1564 -0.0858 -0.5119
32327SOL    HW2 1920   2.637   8.338   6.535  1.2563  1.4502  1.4469
32328SOL     OW 1921   3.940   8.598   9.847 -1.0075 -0.6615  0.1908
32328SOL    HW1 1922   4.021   8.647   9.831 -0.0393 -2.5059 -0.8673
32328SOL    HW2 1923   3.969   8.507   9.859 -2.8362 -1.1910  0.8608
32329SOL     OW 1924   6.914   1.219   0.688 -0.1672 -0.4023  0.2677
32329SOL    HW1 1925   6.954   1.150   0.634 -1.5121 -0.8526 -0.1964
32329SOL    HW2 1926   6.860   1.268   0.626  0.9447  1.2379  0.5508
32330SOL     OW 1927   0.004   2.862  10.467  0.1851 -0.0748 -0.3352
32330SOL    HW1 1928   0.083   2.869  10.413  0.3685  0.2245 -0.0360
32330SOL    HW2 1929   0.025   2.793  10.530  0.7534  0.9239  0.6201
32331SOL     OW 1930   7.121   8.005   3.478  0.5289 -0.1506  0.2421
32331SOL    HW1 1931   7.091   7.988   3.568 -0.8062  1.9984  0.2788
32331SOL    HW2 1932   7.070   8.080   3.450  1.9035  0.0758 -1.8597
32332SOL     OW 1933   1.991   3.289  11.565 -0.0312  0.4206 -0.5053
32332SOL    HW1 1934   1.995   3.348  11.489 -2.1025 -0.5067 -1.4010
32332SOL    HW2 1935   2.036   3.210  11.536  2.3631  1.3132  0.5484
32333SOL     OW 1936   9.442   0.917   2.187 -0.0685 -0.1095 -0.3839
32333SOL    HW1 1937   9.413   0.828   2.164  0.4135 -0.1553 -0.8347
32333SOL    HW2 1938   9.535   0.918   2.163  0.0728  0.3261  0.1834
32334SOL     OW 1939   4.490   0.801  11.000 -0.5235  0.2070 -0.0181
32334SOL    HW1 1940   4.460   0.726  11.051 -0.1468 -0.4442 -0.7330
32334SOL    HW2 1941   4.449   0.789  10.914 -1.6702  1.6304  0.2983
32335SOL     OW 1942   4.794   3.191   2.877 -0.0533 -0.6533  0.6985
32335SOL    HW1 1943   4.740   3.229   2.947 -1.6429 -0.2016 -0.7153
32335SOL    HW2 1944   4.736   3.129   2.834  0.3992  0.1537 -1.1496
32336SOL     OW 1945   2.764   5.831   7.804  0.0134 -0.1814  0.4027
32336SOL    HW1 1946   2.767   5.759   7.742 -0.9981 -0.3989  0.5897
32336SOL    HW2 1947   2.842   5.820   7.859 -0.2855 -1.3078  0.6236
32337SOL     OW 1948   6.568  10.546   4.056  0.7747  0.4854 -0.0985
32337SOL    HW1 1949   6.636  10.532   4.122  0.5800 -1.9008 -0.3016
32337SOL    HW2 1950   6.520  10.463   4.054 -1.2726  1.6143 -0.9510
32338SOL     OW 1951  10.141   8.018   2.522  0.2434 -0.4392 -0.4110
32338SOL    HW1 1952  10.135   7.954   2.450 -1.6049  1.0763 -1.7056
32338SOL    HW2 1953  10.137   7.965   2.601 -1.0399 -1.9729 -1.4400
32339SOL     OW 1954   5.273   2.374   8.051 -0.0059  0.1694  0.2197
32339SOL    HW1 1955   5.223   2.453   8.074 -0.1157  0.0866  0.2706
32339SOL    HW2 1956   5.364   2.399   8.062  0.0065  0.6003 -0.7495
32340SOL     OW 1957   9.040   9.220   7.787 -0.0232  0.4259  0.2243
32340SOL    HW1 1958   9.092   9.294   7.755  1.6300 -0.0777  1.5556
32340SOL    HW2 1959   8.951   9.255   7.795  0.7546  2.3841  1.0882
32341SOL     OW 1960   4.066  11.261   8.171 -0.0832  0.2374  0.2832
32341SOL    HW1 1961   4.151  11.230   8.139 -1.2235  0.7746 -3.8381
32341SOL    HW2 1962   4.006  11.188   8.156 -0.9799  1.0466 -0.1370
32342SOL     OW 1963   6.198  10.987   9.849 -0.0211 -0.7533  0.0365
32342SOL    HW1 1964   6.147  11.047   9.902 -0.7405 -0.0504 -1.4238
32342SOL    HW2 1965   6.249  10.937   9.913  0.3675  1.1632  1.3133
32343SOL     OW 1966   3.727   3.969   6.869 -0.1308 -0.4050  0.1513
32343SOL    HW1 1967   3.792   4.031   6.901 -0.5252  0.1595 -0.1317
32343SOL    HW2 1968   3.765   3.932   6.790  1.6519 -3.1346  2.1316
32344SOL     OW 1969   3.875   3.913  10.681  0.0850 -0.4958 -0.0918
32344SOL    HW1 1970   3.922   3.838  10.645 -1.6564 -1.3691 -0.6589
32344SOL    HW2 1971   3.879   3.901  10.776  2.2692  0.3064 -0.0048
32345SOL     OW 1972   7.646   4.389   7.601  0.4231 -0.0594  0.3303
32345SOL    HW1 1973   7.589   4.330   7.650  0.0500  0.9536  1.1346
32345SOL    HW2 1974   7.589   4.429   7.535  0.8725 -1.2412 -0.8319
32346SOL     OW 1975   4.623   7.676   9.868 -0.0325 -0.5838 -0.1165
32346SOL    HW1 1976   4.675   7.626   9.931 -0.2578 -0.0642  0.4904
32346SOL    HW2 1977   4.681   7.689   9.793  1.1454  1.0333  1.0317
32347SOL     OW 1978   2.634   3.476   3.828 -0.0072 -0.1231 -0.5567
32347SOL    HW1 1979   2.619   3.557   3.876  0.4447 -0.1529 -0.3625
32347SOL    HW2 1980   2.727   3.457   3.841  0.0393 -0.3203 -1.1452
32348SOL     OW 1981  10.340   9.182  10.822 -0.0935  0.0768 -0.2644
32348SOL    HW1 1982  10.379   9.122  10.885 -1.4301 -0.2037  0.3357
32348SOL    HW2 1983  10.315   9.259  10.874  0.1297  0.4797 -0.7340
32349SOL     OW 1984   4.284  10.179   7.680 -0.7781 -0.2698 -0.3489
32349SOL    HW1 1985   4.321  10.217   7.760  1.0695 -1.5590 -0.5489
32349SOL    HW2 1986   4.262  10.089   7.704 -0.4235 -0.5992 -1.2338
32350SOL     OW 1987   1.175  10.362   2.154 -0.4883  0.5498 -0.1093
32350SOL    HW1 1988   1.117  10.293   2.123  0.4030 -0.0785 -0.4119
32350SOL    HW2 1989   1.237  10.318   2.211  0.7213  0.9023 -1.1098
32351SOL     OW 1990   0.620   6.197   1.929 -0.6864 -0.2509  0.3055
32351SOL    HW1 1991   0.686   6.266   1.927 -1.3686  0.4133 -1.0862
32351SOL    HW2 1992   0.653   6.134   1.993  1.0741  0.2629 -0.0346
32352SOL     OW 1993   6.131   9.094  10.293  0.0338 -0.9951 -0.2847
32352SOL    HW1 1994   6.133   9.106  10.388 -0.1192  1.8020 -0.5518
32352SOL    HW2 1995   6.067   9.025  10.279 -2.8165  1.0548  1.5368
32353SOL     OW 1996  10.452   2.899   7.824  0.0949  0.0210  0.3766
32353SOL    HW1 1997  10.384   2.948   7.871 -0.8647 -0.4190 -0.5168
32353SOL    HW2 1998  10.500   2.964   7.774 -0.7063  0.1385 -0.2391
32354SOL     OW 1999   2.687   6.998   0.682 -0.1419 -0.0314 -0.3263
32354SOL    HW1 2000   2.591   7.005   0.685 -0.1355 -0.2770  1.7564
32354SOL    HW2 2001   2.707   6.917   0.729  1.0517 -0.8840 -2.1775
32355SOL     OW 2002   1.164  11.628   1.638  0.1257  0.2617 -0.5798
32355SOL    HW1 2003   1.142  11.640   1.545  0.7951  0.9167 -0.6711
32355SOL    HW2 2004   1.241  11.571   1.637  0.6352  0.9337 -0.4843
32356SOL     OW 2005   0.206   6.286   0.516 -0.1963  0.3517  0.0969
32356SOL    HW1 2006   0.293   6.296   0.554 -0.5063 -2.6595  1.9381
32356SOL    HW2 2007   0.150   6.259   0.590 -1.8540 -1.3342 -1.6523
32357SOL     OW 2008   6.377  11.535   5.973  0.3306  0.0698  0.0443
32357SOL    HW1 2009   6.446  11.571   5.916  0.8592 -0.4146  0.3731
32357SOL    HW2 2010   6.397  11.442   5.979 -1.4729 -0.4648 -1.4109
32358SOL     OW 2011  10.182   0.171  11.367  0.6443  0.1469  0.0732
32358SOL    HW1 2012  10.175   0.243  11.429 -0.9273  0.5379 -0.5157
32358SOL    HW2 2013  10.221   0.210  11.289  0.6155  0.1556  0.0635
32359SOL     OW 2014   2.403   8.997   5.826 -0.2222  0.3755  0.3848
32359SOL    HW1 2015   2.391   8.946   5.906 -0.2069 -0.2738 -0.0225
32359SOL    HW2 2016   2.422   9.086   5.857  1.5971 -0.2374  1.1227
32360SOL     OW 2017   6.251   6.688   0.362 -0.0135  0.0056 -0.4307
32360SOL    HW1 2018   6.312   6.713   0.293  0.1033  0.2293 -0.2492
32360SOL    HW2 2019   6.258   6.592   0.366  2.3928  0.1438  1.4202
32361SOL     OW 2020   0.266  10.585   5.937 -0.2397  0.2245 -0.3354
32361SOL    HW1 2021   0.220  10.554   5.859 -2.7189  1.8169  0.3822
32361SOL    HW2 2022   0.297  10.672   5.914 -3.2236  1.8176  1.1071
32362SOL     OW 2023   2.514   5.396  10.355  0.3240  0.0244 -0.1785
32362SOL    HW1 2024   2.501   5.311  10.313  0.7531  0.3981 -1.0868
32362SOL    HW2 2025   2.442   5.450  10.323  0.9701  0.4760 -0.8982
32363SOL     OW 2026   6.642  11.646   3.596 -0.2380  0.2143 -0.0457
32363SOL    HW1 2027   6.648  11.672   3.504  0.5551  0.6626  0.1282
32363SOL    HW2 2028   6.729  11.613   3.617 -1.0758 -2.2591 -0.1438
32364SOL     OW 2029   5.439   7.539   5.099 -0.3626  0.3186 -0.6751
32364SOL    HW1 2030   5.507   7.568   5.038  0.7686 -1.1545 -0.1899
32364SOL    HW2 2031   5.365   7.517   5.043 -0.3800  1.7330 -1.2385
32365SOL     OW 2032   6.987  11.182   8.087  0.1667 -0.1871 -0.2356
32365SOL    HW1 2033   7.014  11.099   8.125  1.2592 -0.0132 -0.5667
32365SOL    HW2 2034   6.895  11.191   8.109 -0.2913 -2.0386 -1.1759
32366SOL     OW 2035   8.667   6.490   0.709  0.5078  0.5059 -0.5756
32366SOL    HW1 2036   8.714   6.496   0.792 -0.0027 -2.7426  0.0774
32366SOL    HW2 2037   8.583   6.534   0.725  1.0825  1.3876  0.0615
32367SOL     OW 2038   3.069   6.055   4.160 -0.5195 -0.0560  0.0187
32367SOL    HW1 2039   3.142   6.007   4.200  0.6675 -0.0094 -1.9502
32367SOL    HW2 2040   3.109   6.137   4.129 -1.2956 -0.1983 -1.4388
32368SOL     OW 2041   0.029  11.429   6.125 -0.1012 -0.5534  0.2045
32368SOL    HW1 2042   0.124  11.436   6.120 -0.1963  2.4931  0.4600
32368SOL    HW2 2043   0.005  11.486   6.199 -2.1477 -0.4769 -0.4605
32369SOL     OW 2044   2.985   2.085   4.861  0.3517 -0.4825  0.1684
32369SOL    HW1 2045   3.059   2.068   4.803 -0.1210  0.4451 -0.7511
32369SOL    HW2 2046   2.951   1.998   4.884  1.7067 -0.9170  0.6130
32370SOL     OW 2047   6.354   0.579   4.784 -0.2914  0.2585  0.1042
32370SOL    HW1 2048   6.392   0.521   4.849  0.3447  0.2323 -0.2812
32370SOL    HW2 2049   6.346   0.526   4.705 -3.1373 -0.3978  0.6934
32371SOL     OW 2050   9.315   9.321   8.408  0.0676 -0.2602 -0.0196
32371SOL    HW1 2051   9.263   9.400   8.397  1.8934  0.8748 -1.0437
32371SOL    HW2 2052   9.382   9.327   8.340  0.6062 -2.4189  0.2496
32372SOL     OW 2053   8.382   7.464  10.326  0.7215 -0.4852 -0.2029
32372SOL    HW1 2054   8.405   7.531  10.262  0.8656 -0.9667 -0.6628
32372SOL    HW2 2055   8.310   7.501  10.376  0.8487  0.0406 -0.4076
32373SOL     OW 2056   8.090   6.841   3.661 -0.5814  0.6752 -0.1835
32373SOL    HW1 2057   8.127   6.895   3.591 -1.1342  1.6099  0.2285
32373SOL    HW2 2058   8.000   6.871   3.670 -1.1593 -0.8693 -0.4606
32374SOL     OW 2059   6.214   0.384   4.361 -0.7794 -0.3788  0.1548
32374SOL    HW1 2060   6.181   0.428   4.283  0.9747  1.2223  0.2503
32374SOL    HW2 2061   6.236   0.296   4.332  1.4916  0.6848 -1.6551
32375SOL     OW 2062   3.190   6.518   3.864  0.0478 -0.0675 -0.5272
32375SOL    HW1 2063   3.254   6.589   3.861  1.4579 -1.2583  0.1453
32375SOL    HW2 2064   3.206   6.467   3.785 -0.2425 -0.2532 -0.4685
32376SOL     OW 2065   1.233  11.230   5.230 -0.0884  0.0278 -0.0160
32376SOL    HW1 2066   1.239  11.279   5.148  1.9731 -0.0585  0.0246
32376SOL    HW2 2067   1.160  11.271   5.277 -0.6323  0.7686 -1.4294
32377SOL     OW 2068  11.322   9.330   7.929  0.1390  0.5593  0.4665
32377SOL    HW1 2069  11.318   9.264   7.998  2.2765  1.2819  1.3702
32377SOL    HW2 2070  11.386   9.297   7.867 -1.5339  0.0721 -1.0886
32378SOL     OW 2071   5.673   0.922   5.390 -0.0465  0.5827 -0.3467
32378SOL    HW1 2072   5.648   0.945   5.480  1.3097  0.7154  0.0174
32378SOL    HW2 2073   5.686   0.827   5.392  0.6691  0.6804 -0.2202
32379SOL     OW 2074  10.717   9.620   1.248  0.2698 -0.1156 -0.2571
32379SOL    HW1 2075  10.708   9.575   1.332  0.0159 -0.7560 -0.6190
32379SOL    HW2 2076  10.732   9.712   1.272 -0.0282 -0.2478  0.4834
32380SOL     OW 2077   2.556  10.568  11.143 -0.1266  0.2904  0.0249
32380SOL    HW1 2078   2.640  10.522  11.140 -0.1778  0.2294 -0.6705
32380SOL    HW2 2079   2.497  10.513  11.091 -0.1552  1.2117 -0.9367
32381SOL     OW 2080  10.472   9.718   5.077 -0.0423 -0.2288  0.0347
32381SOL    HW1 2081  10.526   9.795   5.058 -0.2909  0.3055  1.3674
32381SOL    HW2 2082  10.523   9.668   5.140  0.1037 -1.1668 -0.8068
32382SOL     OW 2083   6.137   0.612   3.125 -0.4556 -0.6413 -0.3381
32382SOL    HW1 2084   6.183   0.550   3.182  0.1473 -0.6725 -0.8400
32382SOL    HW2 2085   6.045   0.587   3.131 -0.0480 -2.8935 -2.0449
32383SOL     OW 2086   3.786  11.642   0.948 -0.1154  0.0795 -0.4231
32383SOL    HW1 2087   3.757  11.728   0.976  1.3431  0.6028 -0.4197
32383SOL    HW2 2088   3.835  11.658   0.867  0.1900 -0.7422 -0.4173
32384SOL     OW 2089   1.825   9.047   2.966  0.1168 -0.3678  0.0674
32384SOL    HW1 2090   1.889   9.074   2.901  0.3752 -0.1384  0.4118
32384SOL    HW2 2091   1.775   8.977   2.924 -1.2157  1.2689 -1.1889
32385SOL     OW 2092   9.780   7.601   4.631 -0.1854 -0.0564  0.4625
32385SOL    HW1 2093   9.872   7.623   4.616 -0.2673 -0.3961 -0.6271
32385SOL    HW2 2094   9.779   7.505   4.638 -0.5945 -0.1463 -0.6691
32386SOL     OW 2095  10.538   3.907   5.543  0.6538  0.0351 -0.4661
32386SOL    HW1 2096  10.605   3.962   5.584  0.1102 -0.0135  0.5297
32386SOL    HW2 2097  10.496   3.964   5.479 -1.2500  1.5300  1.9078
32387SOL     OW 2098   5.408  10.641   3.224  0.0094 -0.1172  0.1070
32387SOL    HW1 2099   5.369  10.649   3.312 -1.2236  0.6804 -0.4736
32387SOL    HW2 2100   5.476  10.709   3.222 -0.0482 -0.0475  0.4025
32388SOL     OW 2101   2.102   0.151   9.787 -0.6957  0.0870  0.5505
32388SOL    HW1 2102   2.062   0.237   9.798  2.5137  1.9615 -1.2436
32388SOL    HW2 2103   2.168   0.146   9.856 -1.3856 -1.3504  1.1499
32389SOL     OW 2104   6.639   9.011   7.983 -0.1690 -0.1014  0.4264
32389SOL    HW1 2105   6.665   9.068   8.055  0.0284 -0.1779  0.4148
32389SOL    HW2 2106   6.687   8.930   7.997 -1.1429 -0.6088  0.9588
32390SOL     OW 2107   5.917   3.823   0.902  0.6150 -0.4516  0.4424
32390SOL    HW1 2108   5.929   3.729   0.919  1.7882 -0.4027 -0.0775
32390SOL    HW2 2109   5.898   3.828   0.808 -0.4534 -0.2383  0.6518
32391SOL     OW 2110   8.081   5.641   4.600  0.1151 -0.1841 -0.1543
32391SOL    HW1 2111   8.139   5.604   4.667  2.7983  0.4203 -1.9393
32391SOL    HW2 2112   8.018   5.694   4.649  1.2007 -0.7199  1.9576
32392SOL     OW 2113   4.592   3.067   6.714 -0.9266  0.2535  0.4392
32392SOL    HW1 2114   4.648   3.099   6.785 -0.3285  0.8865 -0.2920
32392SOL    HW2 2115   4.608   3.128   6.642 -1.1148 -0.6702 -0.4140
32393SOL     OW 2116   2.113   6.923   3.824 -0.1681 -0.1154  0.4720
32393SOL    HW1 2117   2.087   6.995   3.766 -0.5746 -0.8374 -0.2545
32393SOL    HW2 2118   2.188   6.883   3.780  1.6153  1.3032  2.0439
32394SOL     OW 2119  11.381   2.872   7.048 -0.5540  0.3496 -0.1760
32394SOL    HW1 2120  11.338   2.940   7.100 -2.5445 -0.3267 -0.8570
32394SOL    HW2 2121  11.452   2.918   7.003 -1.5309  1.8716 -0.2385
32395SOL     OW 2122   2.655   9.862   1.502 -0.0416  0.8284 -0.0667
32395SOL    HW1 2123   2.680   9.772   1.482  0.0462  0.2767  2.1901
32395SOL    HW2 2124   2.687   9.913   1.428  0.2543 -0.9329 -1.2193
32396SOL     OW 2125   4.763   6.788   3.014  0.5656 -0.3968 -0.1518
32396SOL    HW1 2126   4.670   6.809   3.021  0.6404  0.0198 -0.3676
32396SOL    HW2 2127   4.806   6.872   2.997  0.9277 -0.6549 -0.5438
32397SOL     OW 2128   0.228  11.179   3.374 -0.0010 -0.1474  0.6662
32397SOL    HW1 2129   0.160  11.245   3.387 -0.5300 -0.5851  0.1827
32397SOL    HW2 2130   0.308  11.221   3.404 -0.7003 -0.1138  2.6079
32398SOL     OW 2131   9.041   4.276  11.239 -0.9021 -0.2728  0.0906
32398SOL    HW1 2132   9.029   4.323  11.322  0.7846 -1.1387  0.8759
32398SOL    HW2 2133   9.097   4.202  11.261  0.5303  0.0977 -2.0179
32399SOL     OW 2134  10.206   4.855   0.546 -0.1739  0.1434  0.1193
32399SOL    HW1 2135  10.136   4.840   0.482  0.9480  0.2562 -1.1827
32399SOL    HW2 2136  10.242   4.940   0.522  0.4305  0.0705  0.7578
32400SOL     OW 2137   4.206   6.873   6.662 -0.5064  0.0462  0.0068
32400SOL    HW1 2138   4.208   6.959   6.706 -1.4122  0.0501  0.0679
32400SOL    HW2 2139   4.157   6.889   6.581  0.4039 -0.1511 -0.5847
32401SOL     OW 2140   1.798   7.143   4.184 -0.1489  0.3724  0.2149
32401SOL    HW1 2141   1.829   7.055   4.162  2.1384  0.7383  1.6516
32401SOL    HW2 2142   1.808   7.149   4.279 -1.1414  1.8870  0.2495
32402SOL     OW 2143   3.518   2.134   8.915  0.0361 -0.0684  0.5916
32402SOL    HW1 2144   3.568   2.056   8.888 -0.3554  0.1574 -0.8620
32402SOL    HW2 2145   3.579   2.207   8.901 -0.3724  0.1133 -0.3266
32403SOL     OW 2146   6.439   4.839   6.343  0.8857 -0.2648 -0.0102
32403SOL    HW1 2147   6.400   4.752   6.331  0.6034 -0.2154  0.5306
32403SOL    HW2 2148   6.508   4.844   6.277 -0.4966 -0.0714 -1.5189
32404SOL     OW 2149   6.969   7.080   2.196 -0.1884 -0.2908 -0.3942
32404SOL    HW1 2150   7.046   7.023   2.185  0.6149  0.5566  0.5841
32404SOL    HW2 2151   6.936   7.093   2.108  0.0552 -1.6628 -0.7147
32405SOL     OW 2152   4.280   8.635   1.671  0.0128 -0.3301 -0.0581
32405SOL    HW1 2153   4.307   8.669   1.756 -0.9574 -0.8636  0.4661
32405SOL    HW2 2154   4.250   8.546   1.688 -0.1906 -0.4449 -0.9575
32406SOL     OW 2155   0.878   2.074  10.862  0.5117  0.1649 -0.5101
32406SOL    HW1 2156   0.971   2.057  10.851  0.6734 -1.5046  2.4722
32406SOL    HW2 2157   0.839   1.988  10.877 -1.2927  0.9445 -0.4797
32407SOL     OW 2158   6.249   6.741  11.436 -0.6546  0.3598 -0.3972
32407SOL    HW1 2159   6.311   6.798  11.481  0.3329 -1.0523  0.0829
32407SOL    HW2 2160   6.180   6.800  11.406 -0.3480  1.6100  1.2462
32408SOL     OW 2161   9.620   6.071   8.383  0.6102 -0.1814 -0.2775
32408SOL    HW1 2162   9.626   5.987   8.428 -1.6668 -0.4374 -0.3151
32408SOL    HW2 2163   9.671   6.132   8.437 -0.6109 -0.8503  1.7109
32409SOL     OW 2164   6.986   7.633   7.983  0.0494 -1.0388  0.5545
32409SOL    HW1 2165   7.033   7.712   7.958 -1.8614  0.3430  1.1027
32409SOL    HW2 2166   7.002   7.624   8.077 -0.5702 -0.6877  0.6991
32410SOL     OW 2167   8.193   2.766   5.675  0.4314  0.0994  0.8001
32410SOL    HW1 2168   8.239   2.686   5.650  0.5290 -0.0723  1.5024
32410SOL    HW2 2169   8.161   2.802   5.593 -2.3922 -2.2925  0.7012
32411SOL     OW 2170   5.503   7.802   3.138  0.1129 -0.0956 -0.3438
32411SOL    HW1 2171   5.434   7.747   3.100 -0.9429 -0.2128  1.6069
32411SOL    HW2 2172   5.562   7.739   3.180  0.2486  0.1211 -0.2103
32412SOL     OW 2173  11.360   5.154   1.606  0.2053  0.6599 -0.4599
32412SOL    HW1 2174  11.431   5.098   1.576  0.5031 -1.4284  3.6118
32412SOL    HW2 2175  11.281   5.115   1.569  0.7438 -0.0640 -0.8637
32413SOL     OW 2176   7.462   2.386   7.273 -0.5028 -0.2714  0.0136
32413SOL    HW1 2177   7.514   2.318   7.316 -2.5114 -2.8562 -1.4097
32413SOL    HW2 2178   7.439   2.446   7.344  2.5054 -0.1651  1.0704
32414SOL     OW 2179   0.895   2.619   2.696 -0.3444  0.0880  0.1679
32414SOL    HW1 2180   0.873   2.629   2.788  0.2874 -0.1249  0.3465
32414SOL    HW2 2181   0.859   2.534   2.672  1.3887 -0.8714  0.8112
32415SOL     OW 2182   1.886   7.287   1.626 -0.3928 -0.0033 -0.1697
32415SOL    HW1 2183   1.922   7.339   1.554 -0.2256 -1.4422 -1.1476
32415SOL    HW2 2184   1.831   7.349   1.674 -0.4828  0.9940 -1.5067
32416SOL     OW 2185   7.326  10.867  10.268 -0.0518  0.0432  0.1321
32416SOL    HW1 2186   7.314  10.780  10.305 -1.4187  1.7244  4.2389
32416SOL    HW2 2187   7.257  10.876  10.203 -0.7338 -1.4554  0.6257
32417SOL     OW 2188   0.024  10.388   8.793  0.6936 -0.4702 -0.0003
32417SOL    HW1 2189  -0.055  10.442   8.790 -1.6458 -3.4665  1.8443
32417SOL    HW2 2190   0.080  10.432   8.857  0.1594  1.1962 -0.6114
32418SOL     OW 2191  11.647   3.111   1.731  0.4516  0.7794  0.3088
32418SOL    HW1 2192  11.655   3.205   1.745  1.2183  0.8909 -0.7252
32418SOL    HW2 2193  11.622   3.103   1.639  3.3080 -0.0761 -0.4938
32419SOL     OW 2194   8.786   7.501   9.151 -0.2151  0.7107  0.2660
32419SOL    HW1 2195   8.776   7.460   9.237 -0.1764  1.1569  0.4889
32419SOL    HW2 2196   8.841   7.578   9.168 -0.6435  1.0947 -0.0696
32420SOL     OW 2197   0.506   4.092   7.389  0.1348  0.5515 -0.5500
32420SOL    HW1 2198   0.450   4.030   7.435 -0.8719  1.5994 -0.3138
32420SOL    HW2 2199   0.586   4.098   7.443  0.1429 -0.3352 -0.4539
32421SOL     OW 2200   8.339   6.654   6.279 -0.5162  0.2004  0.0297
32421SOL    HW1 2201   8.377   6.614   6.357 -1.4897 -1.9570 -0.5133
32421SOL    HW2 2202   8.245   6.655   6.296 -0.7015  0.0959 -0.9229
32422SOL     OW 2203   0.907   3.914   2.886  0.2194  0.2310  0.2970
32422SOL    HW1 2204   0.872   4.003   2.887  0.3743  0.3240  2.2295
32422SOL    HW2 2205   0.847   3.865   2.830 -1.4293  0.9925  1.2943
32423SOL     OW 2206   0.358   4.588   6.426 -0.0226  0.1881  0.0137
32423SOL    HW1 2207   0.364   4.492   6.434 -0.6954 -0.2631 -3.4210
32423SOL    HW2 2208   0.268   4.604   6.399  0.5384  1.6018 -1.1718
32424SOL     OW 2209   1.323   1.734  11.087  0.2929  0.0828  0.1426
32424SOL    HW1 2210   1.365   1.799  11.031 -0.7353  0.3998 -0.2859
32424SOL    HW2 2211   1.305   1.659  11.029 -1.3998  0.6796 -0.1655
32425SOL     OW 2212   7.413   9.877   8.676  0.1482  0.0035 -0.0609
32425SOL    HW1 2213   7.472   9.896   8.603  1.6420  1.5438  1.4336
32425SOL    HW2 2214   7.463   9.814   8.730  0.4193  1.2027  1.1412
32426SOL     OW 2215  10.853   3.999   3.519  0.0666 -0.1722 -0.3650
32426SOL    HW1 2216  10.904   3.925   3.488 -0.9797 -0.7153 -0.8205
32426SOL    HW2 2217  10.766   3.985   3.483 -1.6060 -1.4556  3.6133
32427SOL     OW 2218   4.305   8.794   0.183 -0.2675 -0.3665 -0.4969
32427SOL    HW1 2219   4.335   8.877   0.222 -0.3895 -0.6849  0.2873
32427SOL    HW2 2220   4.386   8.750   0.156 -0.0557 -0.8632  0.8812
32428SOL     OW 2221   4.987   5.962   9.113 -0.1970  0.0474  0.1897
32428SOL    HW1 2222   5.055   5.947   9.179 -1.1321 -0.1816  1.1233
32428SOL    HW2 2223   5.002   5.895   9.047  1.8833  1.3991 -0.7985
32429SOL     OW 2224   6.646   5.400   8.595 -0.1877  0.0272 -0.7171
32429SOL    HW1 2225   6.724   5.399   8.539 -0.4387  3.0380 -1.2532
32429SOL    HW2 2226   6.642   5.489   8.630 -3.0021 -0.2232 -0.1428
32430SOL     OW 2227   5.273   6.364   7.335  0.2255 -0.1326 -0.2345
32430SOL    HW1 2228   5.248   6.453   7.357 -0.1862 -0.0538 -0.9736
32430SOL    HW2 2229   5.230   6.347   7.251 -0.0346 -1.1709  0.0938
32431SOL     OW 2230   8.006   1.237   9.998 -0.4905 -0.9169 -0.6588
32431SOL    HW1 2231   8.050   1.193   9.925  0.0740 -0.3599 -0.6679
32431SOL    HW2 2232   8.008   1.173  10.069  0.5818 -0.8121 -0.5821
32432SOL     OW 2233   9.737   8.149   5.113  0.0833 -0.5873 -0.1267
32432SOL    HW1 2234   9.786   8.224   5.079 -0.3747 -0.5687 -0.7723
32432SOL    HW2 2235   9.802   8.096   5.160  0.2474  0.6366  1.0678
32433SOL     OW 2236   5.546   3.408   1.179  0.4986  0.0060  0.2176
32433SOL    HW1 2237   5.472   3.356   1.211 -0.2424  0.1915 -1.1215
32433SOL    HW2 2238   5.565   3.469   1.251 -0.5914 -0.0992  0.6185
32434SOL     OW 2239   5.686   3.860  11.524  0.5320  0.2893  0.4332
32434SOL    HW1 2240   5.714   3.948  11.547 -0.6220  0.5629  0.8585
32434SOL    HW2 2241   5.720   3.805  11.594 -0.8914  0.7799  1.5620
32435SOL     OW 2242   4.926   0.166   1.598 -0.6739 -0.0956 -0.1191
32435SOL    HW1 2243   5.010   0.151   1.554 -0.7104 -0.3506 -0.1019
32435SOL    HW2 2244   4.904   0.082   1.638  0.8960  0.8528  3.1064
32436SOL     OW 2245   4.209   6.118  11.078 -0.1417 -0.3914 -0.4580
32436SOL    HW1 2246   4.199   6.141  10.986  1.2427  3.8929  0.2143
32436SOL    HW2 2247   4.119   6.120  11.113 -0.5187 -0.3708 -1.4151
32437SOL     OW 2248   5.593   7.673   4.893 -0.5897  0.0189 -0.1888
32437SOL    HW1 2249   5.669   7.731   4.903  0.0848 -0.3458 -2.4875
32437SOL    HW2 2250   5.627   7.598   4.844 -3.0862  1.7136 -5.2536
32438SOL     OW 2251  10.628  11.338   1.694  0.2439  0.0702 -0.3205
32438SOL    HW1 2252  10.681  11.283   1.752  0.1624  0.2201 -0.1017
32438SOL    HW2 2253  10.557  11.281   1.664  0.9252 -0.3491 -1.1945
32439SOL     OW 2254   5.534  11.223   5.805  0.4291  0.2274 -0.6986
32439SOL    HW1 2255   5.476  11.148   5.814 -0.6160  1.1258  0.2640
32439SOL    HW2 2256   5.499  11.272   5.731  0.5581  0.2570 -0.7406
32440SOL     OW 2257   1.135  10.052   5.472  0.3160  0.3513  0.0240
32440SOL    HW1 2258   1.151  10.130   5.419  0.9939  0.7453  0.7715
32440SOL    HW2 2259   1.116  10.087   5.559  2.5198 -0.3229  0.8508
32441SOL     OW 2260  10.635  10.205   1.715  0.2925 -0.1321  0.5743
32441SOL    HW1 2261  10.685  10.201   1.797  0.4491 -0.0178  0.4851
32441SOL    HW2 2262  10.606  10.297   1.710 -0.0140 -0.2195  0.6759
32442SOL     OW 2263   9.049   8.893  10.142  0.4523  0.3615 -0.0808
32442SOL    HW1 2264   9.106   8.936  10.078  0.0106  0.8951 -0.1200
32442SOL    HW2 2265   9.018   8.814  10.097 -0.2226  0.9753 -0.6940
32443SOL     OW 2266   2.885   9.691   7.118  0.1966 -0.4053 -0.3621
32443SOL    HW1 2267   2.976   9.707   7.142 -0.2343  0.3620  0.8475
32443SOL    HW2 2268   2.844   9.656   7.197 -0.5489 -0.8118 -0.9082
32444SOL     OW 2269   8.957   1.989   0.202  0.0982 -0.0027  0.4850
32444SOL    HW1 2270   8.987   1.943   0.280 -1.3600 -2.0330 -0.0694
32444SOL    HW2 2271   8.882   2.040   0.232  1.7748  2.2626  1.1212
32445SOL     OW 2272   0.081   1.659   3.641 -0.1689 -0.5238  0.5037
32445SOL    HW1 2273   0.073   1.622   3.729 -2.8244  0.7725  0.9226
32445SOL    HW2 2274   0.059   1.586   3.583 -1.0146 -0.7369  1.0728
32446SOL     OW 2275   1.240   2.234   9.126  0.5441 -0.2458 -0.6503
32446SOL    HW1 2276   1.192   2.314   9.106 -1.7535  0.0392  4.3551
32446SOL    HW2 2277   1.200   2.167   9.071 -1.6252  1.0938 -0.8250
32447SOL     OW 2278   5.172   7.198   3.171  0.2161 -0.0490 -0.2747
32447SOL    HW1 2279   5.240   7.252   3.210 -1.2370  2.0728 -0.5535
32447SOL    HW2 2280   5.189   7.202   3.077 -0.5622  0.9141 -0.3866
32448SOL     OW 2281   5.229   3.916   2.901  0.0294 -0.4012 -0.2394
32448SOL    HW1 2282   5.211   3.993   2.955  0.1050 -1.1977  0.9540
32448SOL    HW2 2283   5.193   3.843   2.951 -3.4229 -0.8627 -2.9723
32449SOL     OW 2284   8.410   5.317   2.735 -0.3874  0.2593 -0.5694
32449SOL    HW1 2285   8.393   5.382   2.803  1.1273  0.8583 -0.7271
32449SOL    HW2 2286   8.324   5.279   2.716 -1.2454  1.9311 -0.1941
32450SOL     OW 2287   7.468   3.402   0.022 -0.2053  0.1971  0.6885
32450SOL    HW1 2288   7.374   3.389   0.008 -0.0908  1.3824 -1.5220
32450SOL    HW2 2289   7.511   3.342  -0.038  0.4760 -0.0922  1.4366
32451SOL     OW 2290   0.605  10.294   4.331  0.0247 -0.2477  0.2515
32451SOL    HW1 2291   0.574  10.242   4.257  1.4070  0.7237 -1.0531
32451SOL    HW2 2292   0.693  10.259   4.350  0.3272  0.5647  0.3827
32452SOL     OW 2293   0.471   1.429  10.187 -0.4403  0.6824  0.3554
32452SOL    HW1 2294   0.557   1.444  10.147  0.7366 -0.4333  2.2860
32452SOL    HW2 2295   0.410   1.430  10.114  1.2542  1.1504 -1.1322
32453SOL     OW 2296   2.037   1.307   8.663  0.3643  0.0424 -0.1491
32453SOL    HW1 2297   2.091   1.232   8.638  0.7434 -0.3338  1.6525
32453SOL    HW2 2298   2.073   1.336   8.747 -0.9108  1.1146  0.0625
32454SOL     OW 2299   6.833   9.228  10.348 -0.4770  0.0378 -0.9136
32454SOL    HW1 2300   6.826   9.174  10.269  1.1130  1.9557 -2.4596
32454SOL    HW2 2301   6.757   9.286  10.344 -0.0747  0.5436 -1.3909
32455SOL     OW 2302   8.109   6.798  10.231  0.0433  0.5703 -0.3126
32455SOL    HW1 2303   8.184   6.815  10.288  1.0529  1.4233 -1.8118
32455SOL    HW2 2304   8.087   6.707  10.247  1.5158  0.2538  0.0622
32456SOL     OW 2305   6.993   2.936   0.552  0.2084 -0.1665  0.4523
32456SOL    HW1 2306   7.053   2.880   0.502 -0.6742  0.1028 -0.9462
32456SOL    HW2 2307   7.051   2.992   0.603  1.1218 -1.0986  0.4885
32457SOL     OW 2308   5.909   2.553   4.935  0.1856 -0.5883  0.4328
32457SOL    HW1 2309   5.831   2.501   4.955 -0.3885 -0.3839 -1.1424
32457SOL    HW2 2310   5.878   2.621   4.875  1.7892 -1.3053 -1.3031
32458SOL     OW 2311   3.910   3.423   2.886 -0.2896  0.5621  0.1749
32458SOL    HW1 2312   3.964   3.463   2.818 -2.6174  1.5546 -1.2134
32458SOL    HW2 2313   3.832   3.392   2.840 -0.4000 -2.0169  1.8643
32459SOL     OW 2314   5.651   7.331  11.012 -0.5998  0.4571 -0.6298
32459SOL    HW1 2315   5.631   7.237  11.008 -1.4842  0.4748  1.8705
32459SOL    HW2 2316   5.569   7.374  10.991 -0.8758  0.6273  0.7456
32460SOL     OW 2317   4.933   8.967   8.912  0.4345 -0.3161 -0.0504
32460SOL    HW1 2318   4.866   8.906   8.882  0.0402  1.3098 -2.7359
32460SOL    HW2 2319   4.888   9.022   8.977 -0.3339 -0.3498 -0.5494
32461SOL     OW 2320   8.966   3.268   2.457 -0.0908 -0.4733  0.8505
32461SOL    HW1 2321   8.879   3.233   2.438 -0.1847 -0.3324  1.0219
32461SOL    HW2 2322   8.993   3.310   2.376  0.3195 -1.5436  0.4079
32462SOL     OW 2323   7.902   5.858   4.085  0.6478  0.3139 -0.2227
32462SOL    HW1 2324   7.971   5.898   4.031 -0.4035 -1.3633 -3.0593
32462SOL    HW2 2325   7.820   5.883   4.042 -0.4270  0.5071  1.8133
32463SOL     OW 2326   9.074   2.677   3.568 -0.7774 -0.2877  0.2321
32463SOL    HW1 2327   9.096   2.731   3.644 -0.4907  1.9391 -1.3253
32463SOL    HW2 2328   8.982   2.695   3.551 -0.6865 -0.2904 -0.2905
32464SOL     OW 2329   1.473   1.125   6.011 -0.1016 -0.2245 -0.0057
32464SOL    HW1 2330   1.476   1.037   6.047  0.1357  0.2073  1.0593
32464SOL    HW2 2331   1.418   1.117   5.933  1.7540 -1.7619 -1.2368
32465SOL     OW 2332   9.371   6.530   6.165  0.3852  0.1016 -0.1206
32465SOL    HW1 2333   9.308   6.505   6.097  0.3898 -0.3543  0.0350
32465SOL    HW2 2334   9.328   6.600   6.213  0.7565  1.0682 -1.1643
32466SOL     OW 2335   7.190   4.166   9.651 -0.1649 -0.1213  0.3046
32466SOL    HW1 2336   7.186   4.129   9.739  0.9460 -2.2426 -0.4832
32466SOL    HW2 2337   7.100   4.158   9.617 -0.7738  1.3819  1.4445
32467SOL     OW 2338   1.544   8.242   3.405  0.1871  0.3101 -0.6719
32467SOL    HW1 2339   1.557   8.274   3.494  1.4687 -0.5186 -0.5418
32467SOL    HW2 2340   1.450   8.255   3.389  0.1041  1.2896  0.4586
32468SOL     OW 2341   5.343   7.665   1.528 -0.1315  0.3202  0.2414
32468SOL    HW1 2342   5.279   7.734   1.510 -1.3249 -0.7859  0.0323
32468SOL    HW2 2343   5.402   7.704   1.593 -1.4897  1.1543  1.0542
32469SOL     OW 2344   9.733   7.022   8.167  0.4394  0.1863 -0.2320
32469SOL    HW1 2345   9.685   7.028   8.085  1.3762 -1.0594 -0.9020
32469SOL    HW2 2346   9.719   7.107   8.209  0.4712  1.1042 -1.9767
32470SOL     OW 2347  11.331  10.726  10.829 -0.8602 -0.5603 -0.4535
32470SOL    HW1 2348  11.245  10.733  10.870 -1.8202  1.0322 -2.5835
32470SOL    HW2 2349  11.315  10.682  10.745  0.1795  0.7665 -1.3944
32471SOL     OW 2350   4.990   6.863   7.898 -0.5024 -0.4481  1.1010
32471SOL    HW1 2351   4.969   6.956   7.903 -1.2632 -0.5730  0.4220
32471SOL    HW2 2352   4.944   6.824   7.972  0.8351 -0.1334  2.1522
32472SOL     OW 2353   7.771   9.201   8.182  0.1014 -0.2827  0.3665
32472SOL    HW1 2354   7.682   9.172   8.204  0.3868 -1.3580  0.1533
32472SOL    HW2 2355   7.758   9.275   8.123 -0.6484  0.1429  1.0376
32473SOL     OW 2356   5.682  10.015   8.110  0.5706  0.0813  0.1350
32473SOL    HW1 2357   5.723   9.971   8.185  0.8863  0.2917  0.0902
32473SOL    HW2 2358   5.706  10.107   8.121 -2.0064  0.6920  1.5170
32474SOL     OW 2359   0.496   8.430   7.076 -0.0861 -0.6518 -0.6490
32474SOL    HW1 2360   0.527   8.505   7.024  0.4953 -1.3459 -1.3367
32474SOL    HW2 2361   0.421   8.464   7.125 -0.6384  0.0485 -1.9294
32475SOL     OW 2362   7.393   0.467   1.263 -0.5880 -0.1048  0.6477
32475SOL    HW1 2363   7.436   0.403   1.320 -1.7453  0.7143  2.5299
32475SOL    HW2 2364   7.455   0.540   1.257 -0.6988  0.0497  1.3506
32476SOL     OW 2365   3.869   6.925   7.202 -0.5750  0.2115  0.2103
32476SOL    HW1 2366   3.861   7.008   7.249  0.4364 -0.3912  1.5278
32476SOL    HW2 2367   3.918   6.869   7.262 -0.6821 -1.1339 -0.9207
32477SOL     OW 2368   3.613  11.154   1.633 -0.4727  0.4224 -0.1515
32477SOL    HW1 2369   3.616  11.183   1.542 -1.5594 -1.1149 -0.7200
32477SOL    HW2 2370   3.649  11.066   1.632 -2.8000 -0.6297  0.4155
32478SOL     OW 2371   1.704   5.925   8.453  0.2478 -0.3102  0.1591
32478SOL    HW1 2372   1.794   5.957   8.441  0.2895 -0.6276 -0.4176
32478SOL    HW2 2373   1.655   6.001   8.483  0.2911  0.3857 -1.4468
32479SOL     OW 2374   8.933   9.244   6.524  0.0058  0.1290 -0.0844
32479SOL    HW1 2375   8.940   9.157   6.562 -1.4869  0.5403  1.2178
32479SOL    HW2 2376   8.851   9.242   6.475 -0.6436  1.1529  0.9349
32480SOL     OW 2377   9.065  10.760   2.022 -0.1356 -0.3269  0.3452
32480SOL    HW1 2378   9.146  10.773   2.071  0.4838  0.6935 -0.8976
32480SOL    HW2 2379   8.996  10.770   2.087  0.7288 -1.5756  1.4993
32481SOL     OW 2380   7.241   9.413   7.412  0.0349 -0.4780 -0.1939
32481SOL    HW1 2381   7.180   9.463   7.466  0.4107 -0.4874  0.2428
32481SOL    HW2 2382   7.212   9.322   7.419 -0.1774 -0.4234 -0.3600
32482SOL     OW 2383   6.007  10.720   0.673  0.5430 -0.0230  0.3796
32482SOL    HW1 2384   6.021  10.758   0.760  0.0122 -1.1902  0.9923
32482SOL    HW2 2385   5.969  10.791   0.622  0.1621  0.4578  1.3109
32483SOL     OW 2386   5.442  11.324  10.611 -0.0787  0.1499  0.3157
32483SOL    HW1 2387   5.426  11.383  10.684 -1.0076  0.2564  0.0356
32483SOL    HW2 2388   5.534  11.299  10.620  0.1915  1.2520  0.7158
32484SOL     OW 2389   3.729  10.164   2.168  0.1084  0.0139  0.0023
32484SOL    HW1 2390   3.754  10.236   2.227  0.3112 -0.2818  0.2799
32484SOL    HW2 2391   3.724  10.088   2.225 -1.7306  0.1048  0.0277
32485SOL     OW 2392   4.416   4.967   7.616 -0.1807  0.4666 -0.2097
32485SOL    HW1 2393   4.474   5.036   7.584 -1.7228  1.0570 -1.8879
32485SOL    HW2 2394   4.428   4.895   7.554  1.5148 -0.9489  1.5920
32486SOL     OW 2395   0.146   1.947   0.938  0.2054 -0.6704 -0.7563
32486SOL    HW1 2396   0.229   1.903   0.952  0.2777 -0.8687 -1.7495
32486SOL    HW2 2397   0.103   1.896   0.869 -0.4671 -0.2045 -0.6915
32487SOL     OW 2398  11.578   6.112   4.610  0.3132 -0.1831 -0.2015
32487SOL    HW1 2399  11.587   6.206   4.596 -0.1939  0.0915  1.2022
32487SOL    HW2 2400  11.522   6.104   4.687  0.9362 -1.6256  0.1425
32488SOL     OW 2401   8.333   9.666   6.545 -0.0320  0.6774 -0.3968
32488SOL    HW1 2402   8.333   9.722   6.623 -0.9757 -0.4044  0.4285
32488SOL    HW2 2403   8.250   9.683   6.503 -0.3058 -0.0349 -0.1668
32489SOL     OW 2404   9.520   3.972  10.510 -0.3670 -0.4099 -0.1776
32489SOL    HW1 2405   9.606   3.935  10.492  0.7617  1.7950  0.4430
32489SOL    HW2 2406   9.537   4.060  10.544 -2.6888 -1.1449  3.4272
32490SOL     OW 2407   9.411  11.030   4.470 -0.1227  0.0811 -0.2175
32490SOL    HW1 2408   9.405  10.934   4.474  1.3473 -0.0361 -0.3177
32490SOL    HW2 2409   9.421  11.057   4.561  1.0479 -0.0094 -0.3005
32491SOL     OW 2410   9.473   7.566   9.916 -0.2846  0.1967  0.4592
32491SOL    HW1 2411   9.559   7.599   9.887 -0.8895 -0.1651 -2.0519
32491SOL    HW2 2412   9.410   7.623   9.872 -1.3416  0.1347  1.8642
32492SOL     OW 2413   4.136   2.519   4.185  0.3419 -0.5062  0.5976
32492SOL    HW1 2414   4.054   2.557   4.218  0.3311 -0.1879  0.2078
32492SOL    HW2 2415   4.115   2.427   4.169  0.1298 -0.4831  0.7437
32493SOL     OW 2416   4.818   4.672   1.414  0.2380 -0.4964 -0.2441
32493SOL    HW1 2417   4.761   4.740   1.379 -0.1249 -0.5346  0.2542
32493SOL    HW2 2418   4.846   4.705   1.499  0.3244 -0.8238 -0.1421
32494SOL     OW 2419   6.009   3.363   5.073 -0.4962 -0.1119  0.8799
32494SOL    HW1 2420   6.046   3.310   5.002  0.9281  2.8258 -0.7950
32494SOL    HW2 2421   6.016   3.309   5.151  2.3481 -1.7684 -0.3941
32495SOL     OW 2422   0.022   1.805  10.966 -0.0490  0.3857 -0.0588
32495SOL    HW1 2423   0.062   1.774  10.884  0.5975 -0.0248  0.4010
32495SOL    HW2 2424   0.059   1.892  10.979 -0.4973  0.6342 -0.4327
32496SOL     OW 2425  11.357  10.269   3.536  0.1659  0.1003 -0.0662
32496SOL    HW1 2426  11.310  10.192   3.503  0.5694 -0.0653 -0.2531
32496SOL    HW2 2427  11.330  10.340   3.477  1.4770 -0.3515 -1.2694
32497SOL     OW 2428   6.943   9.492   9.326  0.1527 -0.3049  0.1146
32497SOL    HW1 2429   6.931   9.407   9.283  0.7493 -0.8113  0.9189
32497SOL    HW2 2430   6.973   9.551   9.257 -0.2493 -0.7519 -0.4445
32498SOL     OW 2431   1.844  11.524   3.208  0.0849 -0.6805 -0.6788
32498SOL    HW1 2432   1.794  11.464   3.152  0.1526  0.1446 -1.6679
32498SOL    HW2 2433   1.898  11.467   3.262  0.5135 -1.5220 -1.9336
32499SOL     OW 2434   7.610   4.271   0.910 -0.0994  0.2712 -0.1047
32499SOL    HW1 2435   7.616   4.365   0.894  0.1494  0.1421 -0.8076
32499SOL    HW2 2436   7.565   4.237   0.832  1.2917 -0.4023 -0.6448
32500SOL     OW 2437   1.581   9.991   5.598  0.3953 -0.4801  0.0977
32500SOL    HW1 2438   1.568   9.897   5.586 -0.6379 -0.4108  0.5064
32500SOL    HW2 2439   1.673  10.006   5.575  0.2342 -1.3658 -1.2233
32501SOL     OW 2440   4.242   1.491   4.349 -0.3331  0.2690  0.1498
32501SOL    HW1 2441   4.181   1.429   4.388 -1.7414  1.7415  0.3629
32501SOL    HW2 2442   4.209   1.505   4.261  1.4978 -1.2318 -0.8685
32502SOL     OW 2443   8.106   6.157   0.031 -0.0928  0.3794 -0.6872
32502SOL    HW1 2444   8.176   6.101   0.067 -1.0097  0.3289  1.1507
32502SOL    HW2 2445   8.066   6.105  -0.038  0.2839 -0.4840 -0.2674
32503SOL     OW 2446   0.840  11.507   1.480  0.1395 -0.1158 -0.2241
32503SOL    HW1 2447   0.821  11.600   1.490 -2.3120 -0.7675  2.1825
32503SOL    HW2 2448   0.883  11.483   1.562  0.2382 -1.2528 -0.5985
32504SOL     OW 2449   8.348   2.278   1.978 -0.1831  0.3439  0.0182
32504SOL    HW1 2450   8.327   2.372   1.979 -2.5639 -0.1066  2.2792
32504SOL    HW2 2451   8.392   2.263   2.062  1.3585 -0.3776 -0.8882
32505SOL     OW 2452   7.872   8.211   5.132 -0.0207  0.4958 -0.4192
32505SOL    HW1 2453   7.957   8.251   5.113 -0.1649  0.7103 -0.6236
32505SOL    HW2 2454   7.811   8.285   5.133 -0.2410  0.3150 -0.4937
32506SOL     OW 2455   8.465   2.039   1.876  0.1408  0.4476  0.3948
32506SOL    HW1 2456   8.425   2.125   1.890 -0.5516  0.5653 -1.8672
32506SOL    HW2 2457   8.559   2.058   1.868  0.0479  0.9336  0.4180
32507SOL     OW 2458   9.030   2.934   6.584  0.1348  0.2364  0.4334
32507SOL    HW1 2459   9.045   3.027   6.601 -0.3842  0.7113 -1.4394
32507SOL    HW2 2460   9.056   2.923   6.492  0.1806 -1.4742  0.6346
32508SOL     OW 2461   0.459  10.810  10.734  0.0841 -0.3065  0.1794
32508SOL    HW1 2462   0.464  10.715  10.745 -3.8150 -0.5415  1.4319
32508SOL    HW2 2463   0.427  10.821  10.644  1.8351 -0.0471 -0.4396
32509SOL     OW 2464   3.676   6.265   4.537  0.2826 -0.8606  0.6907
32509SOL    HW1 2465   3.643   6.287   4.449  2.3748  1.7352  0.4310
32509SOL    HW2 2466   3.731   6.188   4.523  1.3517  0.0809 -0.5125
32510SOL     OW 2467   3.105   9.029   5.258 -0.0872  0.1370  0.1287
32510SOL    HW1 2468   3.034   8.966   5.248  0.2493 -0.5223  1.6103
32510SOL    HW2 2469   3.130   9.022   5.350  1.4663  0.8216 -0.2126
32511SOL     OW 2470  11.219   2.606   7.767 -0.1099 -0.1230  1.2763
32511SOL    HW1 2471  11.277   2.541   7.727  0.8018 -0.0092  2.3747
32511SOL    HW2 2472  11.135   2.561   7.775 -0.5002  0.0067 -1.1747
32512SOL     OW 2473   2.286   7.333   0.279 -0.4342  0.3317  0.5325
32512SOL    HW1 2474   2.238   7.329   0.361 -1.0808 -1.0587  0.1205
32512SOL    HW2 2475   2.373   7.301   0.301  0.7665  3.8457  1.5100
32513SOL     OW 2476   2.029   2.352   5.237  0.0057  0.5695  0.2107
32513SOL    HW1 2477   2.003   2.404   5.161 -0.3545 -0.3954 -0.3463
32513SOL    HW2 2478   1.972   2.384   5.307 -2.6539 -1.2752 -0.9123
32514SOL     OW 2479   4.126   9.971   4.569  0.2083 -0.3399  0.1435
32514SOL    HW1 2480   4.189   9.903   4.594  1.3876  0.0790 -1.5116
32514SOL    HW2 2481   4.098   9.947   4.481  0.4437  1.1381 -0.3692
32515SOL     OW 2482  10.614   9.724  11.250  0.6346  0.2815 -0.3406
32515SOL    HW1 2483  10.575   9.782  11.185 -0.8928 -2.0189 -1.5973
32515SOL    HW2 2484  10.693   9.690  11.207  0.8714  0.4789 -0.0711
32516SOL     OW 2485   8.956   0.101   4.414  0.1518  0.4450  0.0036
32516SOL    HW1 2486   9.039   0.115   4.459  0.5786  1.5647 -1.0724
32516SOL    HW2 2487   8.919   0.023   4.455  1.8141 -0.1785  0.3735
32517SOL     OW 2488   8.019   9.087   8.165 -0.2499  0.2717 -0.9526
32517SOL    HW1 2489   7.927   9.113   8.165 -0.2713  0.2684  0.3868
32517SOL    HW2 2490   8.062   9.150   8.223  0.4943 -0.0530 -1.1369
32518SOL     OW 2491   8.436   2.166   3.573 -0.3210 -0.8443  0.0730
32518SOL    HW1 2492   8.461   2.250   3.611  0.8253 -1.4195  0.6402
32518SOL    HW2 2493   8.413   2.112   3.648 -1.3323 -0.9649 -0.3084
32519SOL     OW 2494   0.938   1.938  10.351  0.2557  0.2785 -0.5847
32519SOL    HW1 2495   0.858   1.895  10.322  0.3126 -0.0898 -0.2192
32519SOL    HW2 2496   0.940   1.922  10.446  1.4303 -0.8660 -0.7772
32520SOL     OW 2497   2.311   7.470   8.905  0.2480  0.3197  0.2820
32520SOL    HW1 2498   2.309   7.446   8.998 -2.4105 -0.3620  0.1338
32520SOL    HW2 2499   2.320   7.565   8.905 -1.2221  0.4908  1.3191
32521SOL     OW 2500  10.361  10.725   1.161  0.8373  0.1199 -0.3967
32521SOL    HW1 2501  10.395  10.656   1.218 -2.5989 -0.2772  1.4614
32521SOL    HW2 2502  10.359  10.803   1.217  0.7952  0.6725 -1.1514
32522SOL     OW 2503  11.410  10.716   7.628 -0.6859  0.8782 -0.1943
32522SOL    HW1 2504  11.450  10.639   7.588  0.2250  1.3310 -0.1866
32522SOL    HW2 2505  11.320  10.689   7.649 -0.6883  0.1320 -1.0837
32523SOL     OW 2506   7.279  11.309   9.282 -0.1965 -0.2950 -0.6250
32523SOL    HW1 2507   7.202  11.258   9.258 -0.5001 -0.2456  0.2167
32523SOL    HW2 2508   7.263  11.395   9.244 -0.9479 -0.0445  0.2290
32524SOL     OW 2509   9.436   3.203   4.687  0.7643 -0.0654  0.3429
32524SOL    HW1 2510   9.382   3.252   4.624 -0.2761 -0.0396  1.2262
32524SOL    HW2 2511   9.480   3.271   4.738 -0.1578 -0.0371  1.1250
32525SOL     OW 2512  10.747   4.343   7.312  0.1165 -0.1015 -0.4513
32525SOL    HW1 2513  10.747   4.333   7.407 -1.2349  0.1237 -0.3973
32525SOL    HW2 2514  10.831   4.309   7.284  0.5310 -0.1889  0.8242
32526SOL     OW 2515   3.303   7.612  11.109 -0.0747  0.0924  0.0906
32526SOL    HW1 2516   3.379   7.620  11.167  0.2939  1.9704 -0.5657
32526SOL    HW2 2517   3.340   7.593  11.023 -0.2380  1.7284 -0.3788
32527SOL     OW 2518   9.261   0.008   0.030  0.2393 -1.4326 -0.0206
32527SOL    HW1 2519   9.296   0.093   0.005  0.6908 -1.2023  1.3485
32527SOL    HW2 2520   9.275   0.002   0.124 -2.5602 -1.7174  0.4770
32528SOL     OW 2521  11.266   6.879   3.761  0.4430  0.1438  0.1044
32528SOL    HW1 2522  11.222   6.801   3.726 -0.0391 -0.0626  1.1187
32528SOL    HW2 2523  11.308   6.847   3.841  1.3087  0.6500 -0.1457
32529SOL     OW 2524   7.927   0.589   5.134  0.5287 -0.2570 -0.3803
32529SOL    HW1 2525   7.964   0.624   5.054  0.6096  0.3451 -0.0833
32529SOL    HW2 2526   7.842   0.553   5.108  0.4413  0.1682 -0.6909
32530SOL     OW 2527   2.570   0.819   0.846 -0.0991 -0.1544  0.5427
32530SOL    HW1 2528   2.548   0.770   0.924 -0.0855 -0.8103  0.1399
32530SOL    HW2 2529   2.506   0.890   0.843 -0.2204 -0.2398  1.0391
32531SOL     OW 2530   1.400   6.444   7.330  0.2548 -0.7297 -0.3042
32531SOL    HW1 2531   1.384   6.486   7.414 -1.1611  0.1829 -0.9935
32531SOL    HW2 2532   1.319   6.395   7.312  0.6847 -1.2213 -0.9679
32532SOL     OW 2533   0.548   4.075  10.258 -0.5719 -0.0595 -0.3823
32532SOL    HW1 2534   0.561   3.997  10.205  0.2534  0.3198 -0.7546
32532SOL    HW2 2535   0.523   4.143  10.195 -1.1929  0.0011 -0.0752
32533SOL     OW 2536   2.885   8.578   5.412 -0.2778 -0.1709  0.5403
32533SOL    HW1 2537   2.955   8.569   5.477  0.6101  0.5832 -0.2811
32533SOL    HW2 2538   2.921   8.536   5.333 -0.4852  0.7827 -0.0720
32534SOL     OW 2539   1.400   0.984   1.692  0.2192 -0.0018 -0.1308
32534SOL    HW1 2540   1.395   1.065   1.742 -0.4243 -0.2362  0.1982
32534SOL    HW2 2541   1.377   0.916   1.756  0.4776 -0.4141 -0.4732
32535SOL     OW 2542   9.101  11.388   6.511 -0.3143  0.2609 -0.5618
32535SOL    HW1 2543   9.008  11.400   6.529 -0.8428 -1.1654 -2.0502
32535SOL    HW2 2544   9.108  11.297   6.482  1.5422  0.3592 -0.5328
32536SOL     OW 2545   2.184   3.695   7.761  0.0552  0.2725 -0.5406
32536SOL    HW1 2546   2.278   3.715   7.758  0.1965 -0.1650  0.3445
32536SOL    HW2 2547   2.170   3.637   7.686  0.6712 -0.3002 -0.2336
32537SOL     OW 2548   5.575   5.819   1.368 -0.4016 -0.5165 -0.4152
32537SOL    HW1 2549   5.660   5.841   1.330  0.4362  0.1170  1.6853
32537SOL    HW2 2550   5.514   5.879   1.327  0.7648  1.3547  0.4279
32538SOL     OW 2551   2.737   1.621   7.049  0.5845 -0.5848 -0.2864
32538SOL    HW1 2552   2.714   1.632   7.142 -0.8699 -0.1376 -0.6773
32538SOL    HW2 2553   2.833   1.616   7.049  0.7914  1.6595  1.0263
32539SOL     OW 2554   7.090   9.972   6.094  0.4787  0.0137  0.1314
32539SOL    HW1 2555   7.007   9.926   6.085  0.5852 -0.5757  1.8118
32539SOL    HW2 2556   7.117   9.991   6.005 -3.1333  3.3528 -0.5277
32540SOL     OW 2557   1.272   3.784   4.989  0.6555 -0.0222  0.2192
32540SOL    HW1 2558   1.320   3.746   4.916  0.0891 -0.1931 -0.0662
32540SOL    HW2 2559   1.340   3.812   5.050  1.1320  0.1570 -0.3854
32541SOL     OW 2560   4.126   3.284  11.636 -0.0199  0.2756  0.7551
32541SOL    HW1 2561   4.042   3.261  11.676 -1.3065  0.6410 -1.5806
32541SOL    HW2 2562   4.147   3.370  11.673 -1.9977  1.3505 -0.4688
32542SOL     OW 2563  10.039   3.324   7.775  0.1302  0.2388 -0.3818
32542SOL    HW1 2564   9.948   3.355   7.775  0.4450  1.1916 -0.3748
32542SOL    HW2 2565  10.071   3.345   7.863  0.8633  1.4695 -0.9265
32543SOL     OW 2566   7.225  10.138  11.390 -0.5874  0.3095  0.1242
32543SOL    HW1 2567   7.193  10.101  11.307 -0.6889  0.8685 -0.0914
32543SOL    HW2 2568   7.146  10.142  11.445 -0.5051 -0.1331  0.2801
32544SOL     OW 2569   4.550   2.739   3.332  0.2594 -0.3218 -0.2511
32544SOL    HW1 2570   4.562   2.804   3.402 -0.2730 -0.2719 -0.2053
32544SOL    HW2 2571   4.637   2.731   3.293  0.6409 -0.5747  0.6142
32545SOL     OW 2572   7.336   4.158   6.114 -0.1897 -0.2285  0.3371
32545SOL    HW1 2573   7.325   4.155   6.209  2.4340  1.2782  0.7932
32545SOL    HW2 2574   7.377   4.074   6.092 -1.3637 -0.8421  0.3898
32546SOL     OW 2575   2.301   9.040   7.964 -0.1730 -0.5350  0.9602
32546SOL    HW1 2576   2.245   9.056   8.039  0.2155  0.8248  0.9857
32546SOL    HW2 2577   2.378   8.994   8.000 -0.7078 -1.3357  1.1087
32547SOL     OW 2578  11.388   3.285   0.949  0.4548 -0.3823  0.2154
32547SOL    HW1 2579  11.458   3.311   0.888 -0.2387 -0.0674 -0.4715
32547SOL    HW2 2580  11.364   3.196   0.922  0.8515 -0.6405  0.7025
32548SOL     OW 2581   4.442   3.036   3.962 -0.7874  0.6257 -0.7339
32548SOL    HW1 2582   4.435   2.947   3.926  0.4883 -0.3358  1.2377
32548SOL    HW2 2583   4.526   3.068   3.928 -2.0573  1.8798 -2.9395
32549SOL     OW 2584   2.572   6.888  11.032 -0.1086 -0.1595  0.2817
32549SOL    HW1 2585   2.503   6.907  10.967 -0.5175 -0.1312  0.7211
32549SOL    HW2 2586   2.610   6.805  11.002  0.2802  0.2856 -0.4753
32550SOL     OW 2587   8.880   0.482   0.340 -0.0164 -0.6948 -0.3973
32550SOL    HW1 2588   8.902   0.575   0.343  0.5394 -0.8528  1.1295
32550SOL    HW2 2589   8.790   0.480   0.306  0.8734  0.1932 -3.1131
32551SOL     OW 2590   2.527   9.854  10.706 -0.6821 -0.1877  0.0461
32551SOL    HW1 2591   2.553   9.932  10.755 -0.2109  0.7217 -1.5894
32551SOL    HW2 2592   2.493   9.795  10.773  2.5561 -0.1789  1.9025
32552SOL     OW 2593   2.437   7.902   1.801  0.1173  0.7677  0.3438
32552SOL    HW1 2594   2.394   7.922   1.885  1.5943 -0.6394  1.5217
32552SOL    HW2 2595   2.369   7.860   1.749 -0.0715 -1.3085  2.1155
32553SOL     OW 2596   6.835   1.357   9.419 -0.0820  0.3158  0.0876
32553SOL    HW1 2597   6.886   1.360   9.338  4.0034 -0.3858  2.3526
32553SOL    HW2 2598   6.845   1.444   9.457  0.0128 -0.0139  0.8486
32554SOL     OW 2599   7.861  10.933  10.000 -0.0036  0.1644 -0.0854
32554SOL    HW1 2600   7.934  10.994  10.004 -0.4730  0.7337 -0.0264
32554SOL    HW2 2601   7.839  10.916  10.092 -0.2790  0.4009 -0.1074
32555SOL     OW 2602   4.636  10.200   7.155  0.5693 -0.6191 -0.2161
32555SOL    HW1 2603   4.713  10.234   7.109  0.5675  0.3601  0.4770
32555SOL    HW2 2604   4.570  10.269   7.145  0.0657 -1.0766 -0.0741
32556SOL     OW 2605   0.977   4.411   9.197 -0.0351 -0.1243  0.1747
32556SOL    HW1 2606   0.970   4.430   9.291 -0.5342  0.5978 -0.0013
32556SOL    HW2 2607   0.903   4.353   9.179 -1.1649  1.3590 -0.1567
32557SOL     OW 2608   3.823   1.081   9.298 -0.1497 -0.0884 -0.4511
32557SOL    HW1 2609   3.883   1.050   9.366  0.7217  1.7409 -0.3215
32557SOL    HW2 2610   3.868   1.062   9.216 -0.6292 -1.1394 -0.4866
32558SOL     OW 2611   8.834   5.088  11.584 -0.1100 -0.7901 -0.2588
32558SOL    HW1 2612   8.870   5.174  11.604 -2.5632  0.2163  0.2468
32558SOL    HW2 2613   8.836   5.041  11.667  0.9018 -1.1244 -0.4576
32559SOL     OW 2614   5.981   5.738   4.841  0.2998 -0.2006  0.1835
32559SOL    HW1 2615   6.050   5.772   4.783 -0.2415  0.1445 -0.2821
32559SOL    HW2 2616   5.948   5.660   4.796 -0.2517  0.1762 -0.0801
32560SOL     OW 2617   4.251   9.812  10.530  0.3914  0.8714  0.3420
32560SOL    HW1 2618   4.291   9.800  10.616 -0.3897  2.6674  1.0155
32560SOL    HW2 2619   4.310   9.870  10.484  0.7137  0.0580 -0.2845
32561SOL     OW 2620   1.615   9.601   1.385  0.3484 -0.0159 -0.5507
32561SOL    HW1 2621   1.705   9.589   1.356  0.6871 -0.6973  0.6744
32561SOL    HW2 2622   1.565   9.535   1.337  0.4258  0.5852 -1.4843
32562SOL     OW 2623   3.512   1.884  11.091 -0.3021 -0.2809 -0.0731
32562SOL    HW1 2624   3.524   1.871  10.997 -0.2640 -0.1709 -0.0829
32562SOL    HW2 2625   3.433   1.937  11.098  0.2290  0.5209 -0.0839
32563SOL     OW 2626   6.491   9.664   8.699 -0.4056  0.3121 -0.3429
32563SOL    HW1 2627   6.529   9.750   8.682  0.0429  0.0863 -0.4998
32563SOL    HW2 2628   6.519   9.610   8.626  0.1339 -0.2282  0.2464
32564SOL     OW 2629   7.764   0.143   4.912  0.0940  0.0339  0.7406
32564SOL    HW1 2630   7.674   0.111   4.906  0.4656 -0.8698 -0.1445
32564SOL    HW2 2631   7.781   0.147   5.006 -0.4983 -0.8819  0.9024
32565SOL     OW 2632   8.298   8.483   7.334  0.0412  0.0785 -0.1346
32565SOL    HW1 2633   8.394   8.480   7.339  0.0175  1.2212  2.1552
32565SOL    HW2 2634   8.274   8.567   7.373 -1.9285 -0.4413 -0.1228
32566SOL     OW 2635   7.905   0.457  11.342 -0.1886  0.5018  0.3009
32566SOL    HW1 2636   7.963   0.522  11.383  0.2148 -0.0211  0.5681
32566SOL    HW2 2637   7.819   0.500  11.341  0.5679  2.1584 -2.0686
32567SOL     OW 2638   7.179   2.158   8.274  0.0204 -0.1062  0.0761
32567SOL    HW1 2639   7.089   2.142   8.244 -0.1295 -0.2923  0.6067
32567SOL    HW2 2640   7.169   2.183   8.366  0.4826  0.2795  0.0239
32568SOL     OW 2641   4.694   0.014   4.869  0.0784  0.1281 -0.4444
32568SOL    HW1 2642   4.736  -0.034   4.798  0.8386 -0.6780  0.5029
32568SOL    HW2 2643   4.724  -0.032   4.948 -0.8356  0.9212  0.3759
32569SOL     OW 2644   3.010   9.793   5.564 -0.1489 -0.0178  0.4444
32569SOL    HW1 2645   3.095   9.765   5.598  0.3739  1.4075  0.3571
32569SOL    HW2 2646   2.952   9.788   5.640  0.2981  0.1966  0.8042
32570SOL     OW 2647   3.906   8.439  11.641  0.0360 -0.1052  0.1214
32570SOL    HW1 2648   3.968   8.509  11.620 -0.1554  0.3828  1.1572
32570SOL    HW2 2649   3.899   8.389  11.559  0.0157  1.1856 -0.6948
32571SOL     OW 2650  10.940  10.001   6.324  0.2964 -0.6392 -0.1309
32571SOL    HW1 2651  10.925  10.094   6.309  0.9995 -0.5280 -0.1687
32571SOL    HW2 2652  10.965   9.995   6.417  0.8945 -0.7118 -0.2981
32572SOL     OW 2653   1.333   6.796   5.227  0.5015 -0.2322 -0.0024
32572SOL    HW1 2654   1.333   6.826   5.136  0.1163 -1.4726 -0.4209
32572SOL    HW2 2655   1.276   6.858   5.272  1.0107  0.6299 -0.5091
32573SOL     OW 2656   3.714   6.440   7.327  0.1511 -0.0984  0.6519
32573SOL    HW1 2657   3.653   6.387   7.378  0.8248  0.3814  2.0149
32573SOL    HW2 2658   3.724   6.520   7.378  1.4141  0.0997  0.1275
32574SOL     OW 2659  11.332  11.324   1.020 -0.2928 -0.5879 -0.0200
32574SOL    HW1 2660  11.383  11.363   1.090 -2.2210  0.3809  0.9381
32574SOL    HW2 2661  11.245  11.364   1.029 -1.2261 -2.1407 -1.5385
32575SOL     OW 2662   9.313   4.100   3.964  0.2554  0.8012 -0.0483
32575SOL    HW1 2663   9.380   4.060   3.908 -0.8040 -1.0817 -0.0357
32575SOL    HW2 2664   9.241   4.037   3.964 -0.6774  1.8061  1.6273
32576SOL     OW 2665   5.727   0.937   3.037  0.1751  0.0037  0.2172
32576SOL    HW1 2666   5.814   0.928   2.999  1.5984  0.1097  3.1408
32576SOL    HW2 2667   5.736   0.903   3.126 -3.1987 -1.4352  0.1720
32577SOL     OW 2668   5.070   3.770   6.391  0.1968 -0.0394 -0.2066
32577SOL    HW1 2669   4.975   3.762   6.376  0.4254 -1.1420 -1.2685
32577SOL    HW2 2670   5.107   3.778   6.303  0.9285  2.9720  0.2940
32578SOL     OW 2671   0.535   1.296   1.266  0.2239  0.5039  0.2256
32578SOL    HW1 2672   0.599   1.361   1.237  0.4422  0.2004  0.0246
32578SOL    HW2 2673   0.570   1.212   1.235  0.6518  0.1216  1.7017
32579SOL     OW 2674   4.747   8.633   3.024 -0.1205  0.1457  0.4180
32579SOL    HW1 2675   4.722   8.697   3.091 -1.2585  1.6351 -1.3381
32579SOL    HW2 2676   4.839   8.653   3.005 -0.1962  0.6371  0.5524
32580SOL     OW 2677   1.210   0.289   2.892  0.0412 -0.2509 -0.1088
32580SOL    HW1 2678   1.136   0.293   2.831  0.4026  1.0826 -0.5019
32580SOL    HW2 2679   1.174   0.250   2.971 -0.4575 -1.9774 -1.1319
32581SOL     OW 2680   5.763   7.325   2.727  0.2172 -0.2950  0.0521
32581SOL    HW1 2681   5.673   7.353   2.705  0.5109  1.1830  0.6221
32581SOL    HW2 2682   5.792   7.277   2.649 -1.3242 -1.4776  0.1511
32582SOL     OW 2683   7.894   6.549   6.402  0.2599  0.8867 -0.0775
32582SOL    HW1 2684   7.957   6.615   6.372 -0.9090  1.8367 -0.5622
32582SOL    HW2 2685   7.809   6.583   6.373 -0.3252 -1.2358 -1.0169
32583SOL     OW 2686   6.082   6.056   9.935  0.3197 -0.5257 -0.2384
32583SOL    HW1 2687   6.159   6.000   9.937 -1.0081 -2.4661  0.4877
32583SOL    HW2 2688   6.050   6.049   9.845 -1.3846 -3.3700  0.4448
32584SOL     OW 2689   0.100   0.843   3.255  0.1116  0.0832 -0.0542
32584SOL    HW1 2690   0.023   0.812   3.206  0.5154  1.2887 -1.5421
32584SOL    HW2 2691   0.169   0.781   3.231  0.0596  0.0857 -0.2161
32585SOL     OW 2692   9.778   3.325  11.194 -0.4054  0.0760 -0.0085
32585SOL    HW1 2693   9.838   3.285  11.131 -1.8505  0.3164 -1.6146
32585SOL    HW2 2694   9.822   3.405  11.221  1.4748 -1.3622  1.4717
32586SOL     OW 2695   9.383  10.049   6.083  0.3493 -0.1402  0.5481
32586SOL    HW1 2696   9.426   9.975   6.041  1.0166  0.2211  0.5847
32586SOL    HW2 2697   9.312  10.072   6.022  1.2649  0.3290 -0.3660
32587SOL     OW 2698   8.514   9.467   7.243 -0.5494 -0.3562 -0.7156
32587SOL    HW1 2699   8.502   9.407   7.169 -0.8638  0.0552 -1.0014
32587SOL    HW2 2700   8.445   9.443   7.305  0.5906 -1.6501  0.0896
32588SOL     OW 2701   9.565  10.260   9.815 -0.1317 -0.5067  0.2940
32588SOL    HW1 2702   9.489  10.216   9.776  0.3938 -0.7263 -0.4959
32588SOL    HW2 2703   9.557  10.242   9.909  0.0512 -2.2847  0.0139
32589SOL     OW 2704   7.832   2.175   8.931 -0.3123  0.0563 -0.2709
32589SOL    HW1 2705   7.804   2.120   8.858 -1.1376  0.0499  0.0461
32589SOL    HW2 2706   7.913   2.134   8.961  0.1185  0.1432 -1.2678
32590SOL     OW 2707   4.607   5.123   8.734  0.0538 -0.3880 -0.0041
32590SOL    HW1 2708   4.653   5.050   8.693  0.5921 -0.7847  1.2740
32590SOL    HW2 2709   4.630   5.199   8.680 -0.4747 -1.1301 -1.3176
32591SOL     OW 2710   3.981   6.347   7.841 -0.0342 -0.6023 -0.4172
32591SOL    HW1 2711   3.886   6.358   7.845 -0.1294 -0.9946 -1.4487
32591SOL    HW2 2712   4.010   6.356   7.932 -0.8831  0.9736 -0.2711
32592SOL     OW 2713   3.962   4.777   4.361 -0.3991  1.1574  0.0090
32592SOL    HW1 2714   3.894   4.711   4.376 -1.9633  2.9493  1.3416
32592SOL    HW2 2715   3.938   4.816   4.277  0.8409 -0.2402 -1.0515
32593SOL     OW 2716  11.542   8.650   4.970  0.2271 -0.2296  0.1232
32593SOL    HW1 2717  11.530   8.557   4.955  1.7244 -0.1753 -1.9335
32593SOL    HW2 2718  11.608   8.656   5.039 -0.0462 -0.6942  0.4223
32594SOL     OW 2719  10.971   5.425   6.297 -0.5298  0.0186  0.3548
32594SOL    HW1 2720  10.877   5.437   6.310 -0.9302 -0.8791 -1.3232
32594SOL    HW2 2721  10.997   5.494   6.237 -0.5448 -0.8577 -0.6906
32595SOL     OW 2722   9.885   6.045   2.131  0.4778  0.5271 -0.3012
32595SOL    HW1 2723   9.896   6.127   2.082  0.9046 -0.4438 -1.8968
32595SOL    HW2 2724   9.810   6.003   2.090 -0.8527  0.8566  1.6414
32596SOL     OW 2725   3.974   7.424   1.222 -0.3536 -0.2257  0.0205
32596SOL    HW1 2726   3.887   7.392   1.245  0.6903 -1.5951  2.4331
32596SOL    HW2 2727   4.005   7.363   1.155 -0.4939 -0.9717  0.6252
32597SOL     OW 2728   3.778   5.099   6.331  0.2893 -0.2841  0.3324
32597SOL    HW1 2729   3.728   5.175   6.361  2.2852  1.4530 -0.5089
32597SOL    HW2 2730   3.798   5.050   6.411  1.4370  1.6834  1.3316
32598SOL     OW 2731  11.180   0.409   4.162  0.1762  0.6968 -0.1431
32598SOL    HW1 2732  11.220   0.427   4.247 -0.4619  1.8087 -0.0606
32598SOL    HW2 2733  11.248   0.432   4.098  0.2911  0.8691  0.0406
32599SOL     OW 2734   7.103   2.107  10.295 -0.0291  0.3277  0.3609
32599SOL    HW1 2735   7.014   2.112  10.260  0.6630 -2.0549 -2.0610
32599SOL    HW2 2736   7.148   2.183  10.258 -0.8728  1.2855  1.2275
32600SOL     OW 2737   9.830  11.679   2.559  0.5667 -0.3914 -0.3276
32600SOL    HW1 2738   9.903  11.632   2.600  1.1124  1.1839  0.6044
32600SOL    HW2 2739   9.858  11.771   2.559 -0.5394 -0.0189 -1.9023
32601SOL     OW 2740   7.548   2.915   9.789 -0.0730 -0.3798 -0.1879
32601SOL    HW1 2741   7.542   2.926   9.694  1.4821 -0.1473 -0.2823
32601SOL    HW2 2742   7.513   2.997   9.824  1.2199  0.3840 -0.6261
32602SOL     OW 2743   5.403  10.346   3.947 -0.2740 -0.5615  0.2455
32602SOL    HW1 2744   5.370  10.301   3.869  0.3708 -0.7683  0.0901
32602SOL    HW2 2745   5.327  10.353   4.004 -0.7455 -0.4585 -0.3762
32603SOL     OW 2746   1.865   8.598  11.137  0.1354  0.3851 -0.0746
32603SOL    HW1 2747   1.934   8.536  11.159  1.2850  1.9635  1.0221
32603SOL    HW2 2748   1.876   8.669  11.200 -1.9743  1.0856 -0.4211
32604SOL     OW 2749   2.764   1.070   6.876  0.0551  0.0933  0.0862
32604SOL    HW1 2750   2.844   1.019   6.865  0.2804  0.6104 -0.8350
32604SOL    HW2 2751   2.748   1.108   6.789 -0.4097  1.1184  0.5968
32605SOL     OW 2752  11.273   3.166   8.381 -0.8193 -0.1358  0.6217
32605SOL    HW1 2753  11.366   3.158   8.363 -0.8707  1.0169 -0.2908
32605SOL    HW2 2754  11.250   3.254   8.352 -2.0699 -0.1612  1.4087
32606SOL     OW 2755   7.938   9.055   5.885 -0.0684 -0.1450 -0.0169
32606SOL    HW1 2756   8.023   9.011   5.896 -0.0678 -0.8306 -2.2691
32606SOL    HW2 2757   7.957   9.127   5.825 -0.9400  0.1548  0.0617
32607SOL     OW 2758   1.828   7.895   8.693  0.9139 -0.4954  0.3540
32607SOL    HW1 2759   1.863   7.806   8.693 -0.3421 -1.0475 -1.4870
32607SOL    HW2 2760   1.733   7.883   8.705  0.4982  0.4212 -1.5994
32608SOL     OW 2761   5.043   4.062   2.378 -0.2360  0.4335  0.4657
32608SOL    HW1 2762   5.024   3.968   2.371 -2.9164  0.9472 -0.2112
32608SOL    HW2 2763   5.066   4.075   2.470 -0.5469 -0.7770  0.7358
32609SOL     OW 2764   2.074  10.449   1.399  0.1865  0.0862 -0.3508
32609SOL    HW1 2765   2.022  10.373   1.425 -1.0990  0.5954 -1.2964
32609SOL    HW2 2766   2.088  10.497   1.481  0.6000 -0.9150  0.1753
32610SOL     OW 2767   3.605   2.753   4.463  0.3066 -0.4767  0.0641
32610SOL    HW1 2768   3.623   2.685   4.398 -1.0621 -0.8968  0.0928
32610SOL    HW2 2769   3.594   2.833   4.412  1.7302 -0.2886  0.0125
32611SOL     OW 2770   9.525   3.936   8.216  0.4186  0.0141  0.3291
32611SOL    HW1 2771   9.489   4.010   8.265  1.0208  0.9235 -0.5646
32611SOL    HW2 2772   9.578   3.977   8.147 -1.7357 -1.1471 -2.2063
32612SOL     OW 2773   8.168  10.650   3.511 -0.5492  0.2022  0.3317
32612SOL    HW1 2774   8.210  10.659   3.596  1.1664 -0.2498 -0.4102
32612SOL    HW2 2775   8.174  10.557   3.491 -0.5799  0.3587 -0.4376
32613SOL     OW 2776   0.855   2.782   1.348  0.8009 -0.1433 -0.2117
32613SOL    HW1 2777   0.861   2.693   1.383 -2.1571 -0.9332 -1.3627
32613SOL    HW2 2778   0.942   2.801   1.314  2.0970 -1.7015  1.9817
32614SOL     OW 2779   8.302   1.662   0.208  0.0667  0.4101  0.0157
32614SOL    HW1 2780   8.289   1.570   0.228 -1.5228  0.8616  1.2688
32614SOL    HW2 2781   8.332   1.701   0.290 -0.5839  1.2311 -0.1210
32615SOL     OW 2782   1.739  10.763  10.231  0.3188 -0.5663  0.0719
32615SOL    HW1 2783   1.683  10.736  10.158 -1.0299 -0.3623  0.9795
32615SOL    HW2 2784   1.678  10.800  10.295  1.1975 -2.2555  2.0172
32616SOL     OW 2785   8.787  10.316   2.705  0.1178  0.2747 -0.2285
32616SOL    HW1 2786   8.719  10.250   2.703 -0.1317  0.4942  0.6459
32616SOL    HW2 2787   8.857  10.280   2.650 -0.2718 -0.4161 -0.2827
32617SOL     OW 2788   0.614   8.544   9.375 -0.1274  0.2202  0.0647
32617SOL    HW1 2789   0.630   8.598   9.453 -1.8441  2.0680 -0.7776
32617SOL    HW2 2790   0.658   8.590   9.304 -0.0748 -0.4819 -0.3663
32618SOL     OW 2791   0.810   6.000   0.435 -0.2726 -0.1541  0.3280
32618SOL    HW1 2792   0.745   6.023   0.502 -0.2479  1.3951 -0.1334
32618SOL    HW2 2793   0.889   5.980   0.485  0.2297  2.5655  0.7917
32619SOL     OW 2794   5.948   5.833   6.945  0.2690 -0.4748 -0.1869
32619SOL    HW1 2795   6.006   5.757   6.954 -0.8514 -1.1199  2.5178
32619SOL    HW2 2796   5.879   5.803   6.887 -0.3244 -1.7154  1.0781
32620SOL     OW 2797   9.478   7.944   2.269 -0.3100 -0.0599  0.2296
32620SOL    HW1 2798   9.533   7.931   2.346 -0.2906  0.2143  0.2621
32620SOL    HW2 2799   9.392   7.913   2.295 -0.4620  0.6397  0.5787
32621SOL     OW 2800  10.183   8.333   1.046  0.1488 -0.3393 -0.4393
32621SOL    HW1 2801  10.088   8.342   1.040 -0.0174 -0.8469  0.9979
32621SOL    HW2 2802  10.197   8.279   1.124  1.6912  1.3615  0.5360
32622SOL     OW 2803   2.645   3.106   8.712  0.0239  0.4208 -0.2601
32622SOL    HW1 2804   2.647   3.046   8.787  2.0636 -0.0116 -0.6128
32622SOL    HW2 2805   2.661   3.049   8.637 -0.8960  1.0225 -0.9294
32623SOL     OW 2806   7.846  11.550   8.098  0.6621 -0.3302  0.1228
32623SOL    HW1 2807   7.827  11.572   8.007  0.6225  1.0403  0.4401
32623SOL    HW2 2808   7.767  11.506   8.129  0.9658 -1.5092 -0.6986
32624SOL     OW 2809  10.646   5.548   2.355  0.3708  0.4206  0.5694
32624SOL    HW1 2810  10.624   5.463   2.393 -0.4777  1.6076  2.9663
32624SOL    HW2 2811  10.564   5.597   2.357  0.6766  1.1089 -1.4539
32625SOL     OW 2812   7.146   6.208   0.322 -0.0063  0.0986  0.1715
32625SOL    HW1 2813   7.167   6.187   0.413  1.2025  1.3685  0.2202
32625SOL    HW2 2814   7.144   6.123   0.278  1.1759 -0.4132  1.0440
32626SOL     OW 2815   4.950  11.604   5.259 -0.5024  0.0199 -0.0142
32626SOL    HW1 2816   5.039  11.596   5.223 -1.4335 -0.0815 -2.4481
32626SOL    HW2 2817   4.926  11.695   5.241 -0.6647  0.2603  1.3064
32627SOL     OW 2818   3.295   9.841   3.242 -0.5233 -0.0435 -0.1919
32627SOL    HW1 2819   3.217   9.871   3.288 -0.2015 -1.8979  1.7227
32627SOL    HW2 2820   3.268   9.758   3.202  0.2945 -0.4037 -0.0100
32628SOL     OW 2821   5.207  10.222   2.394  0.0703 -0.6170  0.0358
32628SOL    HW1 2822   5.148  10.229   2.319  0.1174 -0.7853 -0.0183
32628SOL    HW2 2823   5.274  10.159   2.366 -0.2483 -1.1453  0.4343
32629SOL     OW 2824   1.740   6.451   1.381 -0.1454 -0.4578  0.4202
32629SOL    HW1 2825   1.817   6.474   1.329 -0.8055 -0.5529 -0.6221
32629SOL    HW2 2826   1.697   6.381   1.332 -2.1228  1.1079 -0.2246
32630SOL     OW 2827   1.624  10.553   5.465 -0.0974  0.3266 -0.1456
32630SOL    HW1 2828   1.692  10.593   5.409 -0.9964  3.2842  0.6921
32630SOL    HW2 2829   1.546  10.551   5.410 -0.3003  0.6129  0.1343
32631SOL     OW 2830   1.945   8.043   2.535 -0.7795  0.3746  0.0315
32631SOL    HW1 2831   2.014   8.091   2.488 -2.0567  1.0285 -1.2261
32631SOL    HW2 2832   1.947   8.080   2.623  0.6063  0.2312  0.0927
32632SOL     OW 2833   7.324   3.770   1.018  0.1991 -0.0179 -0.3937
32632SOL    HW1 2834   7.361   3.683   1.034 -0.1892  0.1324  1.6329
32632SOL    HW2 2835   7.290   3.766   0.929  0.6057 -1.7961 -0.4981
32633SOL     OW 2836   2.243   0.033   2.751  0.0213  0.2496 -0.0776
32633SOL    HW1 2837   2.326   0.069   2.721  0.5993  0.0244  1.1776
32633SOL    HW2 2838   2.227  -0.041   2.693 -0.0967  1.2104 -1.3073
32634SOL     OW 2839   2.609   0.957   7.948 -0.1087  0.3338  0.2538
32634SOL    HW1 2840   2.614   1.031   8.009 -0.9332  0.8952 -0.3380
32634SOL    HW2 2841   2.694   0.914   7.954 -0.1865  0.3351  1.8533
32635SOL     OW 2842   4.391   0.389   5.338  0.2811 -0.2625  0.2219
32635SOL    HW1 2843   4.418   0.298   5.339  0.6219 -0.1678  1.5889
32635SOL    HW2 2844   4.296   0.386   5.345  0.3738 -0.5155  1.6730
32636SOL     OW 2845   7.472   3.808   8.215  0.5251  0.1857  0.8103
32636SOL    HW1 2846   7.383   3.840   8.198  1.4629  2.5903  0.0437
32636SOL    HW2 2847   7.465   3.765   8.300 -1.5597 -0.5371  0.3382
32637SOL     OW 2848   8.866   0.231   4.167  1.0009 -0.1747  0.0150
32637SOL    HW1 2849   8.949   0.279   4.167  1.1603 -0.3047  2.6651
32637SOL    HW2 2850   8.867   0.182   4.249 -0.9877 -1.4888 -0.6896
32638SOL     OW 2851   3.058   5.851   3.384 -0.3073 -0.4783 -0.0346
32638SOL    HW1 2852   3.052   5.909   3.308 -1.1940  0.0916  0.4558
32638SOL    HW2 2853   2.980   5.872   3.436  0.1267 -1.0874  0.8734
32639SOL     OW 2854  11.421   9.358   7.240 -0.0630 -0.1842 -0.4407
32639SOL    HW1 2855  11.424   9.430   7.176  0.7750 -0.6766 -0.9735
32639SOL    HW2 2856  11.362   9.294   7.201 -0.3726 -0.0262 -0.2289
32640SOL     OW 2857   1.306  10.775   6.088 -0.4491  0.0016  0.1181
32640SOL    HW1 2858   1.280  10.733   6.006  2.0258 -0.3412 -0.5980
32640SOL    HW2 2859   1.324  10.702   6.147 -0.9429  0.2075  0.5201
32641SOL     OW 2860   6.526   3.910   3.490 -0.3974 -0.5858  0.3413
32641SOL    HW1 2861   6.494   3.938   3.404 -2.2887 -2.0264  0.4970
32641SOL    HW2 2862   6.534   3.991   3.541 -0.7980  0.1353 -0.7051
32642SOL     OW 2863   8.783   0.971  11.406 -0.4453 -0.0366  0.7124
32642SOL    HW1 2864   8.726   0.897  11.388  0.2216 -0.8721  1.9108
32642SOL    HW2 2865   8.867   0.947  11.367 -0.8073  1.1180 -0.9036
32643SOL     OW 2866   7.634   7.929  11.012 -0.3503  0.0274 -0.7293
32643SOL    HW1 2867   7.711   7.985  11.000 -0.2276  0.1180  0.3834
32643SOL    HW2 2868   7.560   7.982  10.982 -0.2021  0.6982  0.0533
32644SOL     OW 2869   2.375   9.393   7.408 -0.7245 -0.5777  0.3977
32644SOL    HW1 2870   2.348   9.301   7.398  0.4749 -0.6847 -3.8030
32644SOL    HW2 2871   2.466   9.395   7.379 -0.9173  2.0017 -0.3136
32645SOL     OW 2872  10.104   2.847  10.638  0.0300  0.1884  0.2015
32645SOL    HW1 2873  10.028   2.814  10.590  0.2277  0.8821 -0.6182
32645SOL    HW2 2874  10.107   2.940  10.618  0.2691  0.4508  1.3942
32646SOL     OW 2875   7.753   3.159   1.447  0.0539 -0.0838  0.4158
32646SOL    HW1 2876   7.741   3.248   1.415 -0.4224  0.3109  1.6357
32646SOL    HW2 2877   7.840   3.134   1.417 -0.1158  0.5028 -0.5879
32647SOL     OW 2878   0.632   1.222  10.961  0.1996  0.0699  0.5771
32647SOL    HW1 2879   0.638   1.257  10.872 -0.2879 -1.1408  0.0445
32647SOL    HW2 2880   0.722   1.224  10.993  0.2029  1.7155  0.5623
32648SOL     OW 2881   4.644   6.696   9.057  0.4688 -0.5476  0.6116
32648SOL    HW1 2882   4.716   6.758   9.042  0.0966 -0.5943 -1.6696
32648SOL    HW2 2883   4.666   6.620   9.003 -1.8367 -0.0924 -1.1178
32649SOL     OW 2884   8.889   7.335   2.121 -0.2873 -0.0188 -0.4675
32649SOL    HW1 2885   8.845   7.258   2.087 -1.0811  1.0988 -2.1058
32649SOL    HW2 2886   8.936   7.371   2.045  0.6986  0.6795  0.4418
32650SOL     OW 2887   0.029   9.957   9.855 -0.2960  0.3130 -0.0756
32650SOL    HW1 2888  -0.018   9.974   9.774 -1.0123 -1.4848 -0.0747
32650SOL    HW2 2889  -0.039   9.946   9.921  0.0551 -1.8378  0.0170
32651SOL     OW 2890   6.461   8.581   8.748  0.2336 -0.0912 -0.2769
32651SOL    HW1 2891   6.374   8.544   8.732  0.5700 -1.6232  1.1112
32651SOL    HW2 2892   6.488   8.618   8.664 -0.2111 -2.9641 -1.8329
32652SOL     OW 2893   5.263   9.677   8.004 -0.2893 -0.3378 -0.6042
32652SOL    HW1 2894   5.229   9.592   8.033 -1.1487  0.0349 -0.4748
32652SOL    HW2 2895   5.202   9.741   8.042  0.0344  0.3018 -1.1458
32653SOL     OW 2896   1.408   0.120   4.448  0.2746 -0.1809 -0.2458
32653SOL    HW1 2897   1.433   0.201   4.404  2.2397  0.1057  1.2411
32653SOL    HW2 2898   1.316   0.132   4.471 -0.4138  0.2393 -2.8703
32654SOL     OW 2899  10.307   7.837   3.270 -0.1777  0.2382 -0.1687
32654SOL    HW1 2900  10.350   7.893   3.335  1.2483 -0.1967 -0.6973
32654SOL    HW2 2901  10.369   7.832   3.198 -2.4377  2.1843 -2.4608
32655SOL     OW 2902   3.006   5.693   6.690  0.4258  0.1259 -0.0127
32655SOL    HW1 2903   3.064   5.759   6.728  0.0190 -1.2816  3.3404
32655SOL    HW2 2904   3.062   5.645   6.629  1.5417  1.5472 -0.1677
32656SOL     OW 2905   3.399   7.261   8.588 -0.2227 -0.4466 -0.3911
32656SOL    HW1 2906   3.397   7.334   8.525  1.8975 -0.7605 -0.9070
32656SOL    HW2 2907   3.324   7.277   8.645  0.1754  2.1654 -0.4625
32657SOL     OW 2908   0.372  10.111   0.038 -0.5736  0.1863  0.2009
32657SOL    HW1 2909   0.375  10.062  -0.044 -2.1262  0.3887  0.0007
32657SOL    HW2 2910   0.368  10.203   0.011  0.7258  0.3634  0.5503
32658SOL     OW 2911   3.647   1.158   3.331  0.5022  0.2250 -0.2327
32658SOL    HW1 2912   3.697   1.207   3.267 -0.3675 -0.2479 -1.3024
32658SOL    HW2 2913   3.558   1.190   3.322  0.5582  1.0309  1.6218
32659SOL     OW 2914   8.157   0.637  10.837 -0.2095 -0.1133  0.5712
32659SOL    HW1 2915   8.065   0.660  10.824  0.2073  1.5462  0.4187
32659SOL    HW2 2916   8.191   0.622  10.749  0.1913  1.4669  0.4324
32660SOL     OW 2917   5.707  10.427   3.629  0.2557 -0.1854 -0.1760
32660SOL    HW1 2918   5.654  10.479   3.689  0.6808 -0.1988  0.2114
32660SOL    HW2 2919   5.731  10.488   3.559 -0.5864 -0.2738 -0.5631
32661SOL     OW 2920  10.949   6.961   9.660  0.1785  0.2622 -0.3480
32661SOL    HW1 2921  10.937   7.055   9.651 -0.2310  0.0401 -2.7659
32661SOL    HW2 2922  10.868   6.929   9.699 -0.6424  0.6839 -1.6410
32662SOL     OW 2923   7.724   8.682  10.054 -0.0556  0.0042 -0.4481
32662SOL    HW1 2924   7.726   8.597  10.099  0.1867  0.0216 -0.4227
32662SOL    HW2 2925   7.778   8.669   9.976  3.3219  1.1822  1.4697
32663SOL     OW 2926   4.015   0.806   5.517  0.1595 -0.0876  0.1147
32663SOL    HW1 2927   4.021   0.844   5.429 -1.6791 -0.8757 -0.3803
32663SOL    HW2 2928   3.958   0.866   5.565 -0.7037 -0.8579  0.0756
32664SOL     OW 2929   0.663   2.993   5.970 -0.2881 -0.1033  0.1443
32664SOL    HW1 2930   0.580   3.041   5.971 -0.8737 -1.0713 -0.2786
32664SOL    HW2 2931   0.668   2.957   5.882  0.3618 -0.4430  0.3174
32665SOL     OW 2932   0.265  10.720   1.348 -0.7452  0.3431 -0.4814
32665SOL    HW1 2933   0.327  10.716   1.275 -0.7805  1.7351 -0.6170
32665SOL    HW2 2934   0.316  10.690   1.423  0.2061  1.6970 -0.5424
32666SOL     OW 2935   5.999   9.491  11.543  0.2684 -0.2850 -0.2057
32666SOL    HW1 2936   6.079   9.442  11.563  0.4023 -0.2703 -0.6955
32666SOL    HW2 2937   5.929   9.443  11.588  0.9130  1.4573  2.9675
32667SOL     OW 2938   5.042   7.133   8.085  0.4073 -0.3075  0.1132
32667SOL    HW1 2939   4.946   7.130   8.080  0.4632 -0.7122 -0.8435
32667SOL    HW2 2940   5.061   7.137   8.179 -0.5151 -1.3388  0.3622
32668SOL     OW 2941   8.065   9.598   4.406 -0.3557  0.0784  0.1735
32668SOL    HW1 2942   8.028   9.670   4.458  1.5020  0.7576  0.6506
32668SOL    HW2 2943   8.144   9.573   4.454 -1.0554 -2.4483  0.1146
32669SOL     OW 2944   2.124   3.258   8.781 -0.5559 -0.4154 -0.0222
32669SOL    HW1 2945   2.078   3.179   8.752 -0.1621 -0.2281 -1.2196
32669SOL    HW2 2946   2.217   3.236   8.773 -0.4414  0.2682 -0.7011
32670SOL     OW 2947   1.966   7.125   1.092 -0.4337  0.1745  0.3507
32670SOL    HW1 2948   1.963   7.030   1.078  1.4752  0.1726 -0.3358
32670SOL    HW2 2949   1.899   7.159   1.032  0.2584 -0.6259 -0.9361
32671SOL     OW 2950   7.598   2.136   6.211 -0.2174  0.0197  0.2125
32671SOL    HW1 2951   7.587   2.120   6.117  0.9402  0.5428 -0.0300
32671SOL    HW2 2952   7.509   2.132   6.246 -0.5240 -1.9067 -0.6071
32672SOL     OW 2953   7.777   1.520   6.505 -0.0492  0.2270 -0.0506
32672SOL    HW1 2954   7.807   1.547   6.419 -0.2635 -2.3202 -1.0116
32672SOL    HW2 2955   7.830   1.572   6.566  1.4240  0.7573 -1.6859
32673SOL     OW 2956   4.222  10.608   2.944 -0.5554 -0.3843 -0.3692
32673SOL    HW1 2957   4.294  10.639   2.999 -1.1262  0.5117 -0.1122
32673SOL    HW2 2958   4.235  10.513   2.939 -1.4609 -0.8179  2.8390
32674SOL     OW 2959   4.207  10.850   8.307 -0.3670  0.2238 -0.1401
32674SOL    HW1 2960   4.238  10.780   8.364  1.5320  0.1167 -1.2156
32674SOL    HW2 2961   4.273  10.856   8.238 -1.9321  1.1830 -1.6457
32675SOL     OW 2962  10.496   6.747   3.384  0.4290 -0.2477  0.5963
32675SOL    HW1 2963  10.521   6.655   3.396 -0.8748 -1.1317 -2.3759
32675SOL    HW2 2964  10.569   6.785   3.335  0.7436  0.1745  1.3865
32676SOL     OW 2965   1.893   3.384  11.216  0.7694 -0.5390 -0.4955
32676SOL    HW1 2966   1.987   3.373  11.234  0.4624 -0.0465  1.6197
32676SOL    HW2 2967   1.878   3.478  11.223  0.1202 -0.6060 -0.9263
32677SOL     OW 2968   7.500   9.050   7.253 -0.4877  0.2772 -0.6297
32677SOL    HW1 2969   7.555   8.990   7.202 -1.7649 -0.9238 -0.6772
32677SOL    HW2 2970   7.559   9.120   7.280  1.5415 -1.8482  0.8896
32678SOL     OW 2971  10.743   9.259   0.071  0.1839  0.1519  0.2324
32678SOL    HW1 2972  10.650   9.238   0.081  0.0710  0.5625  0.0833
32678SOL    HW2 2973  10.781   9.243   0.157 -0.1339  0.5004  0.4405
32679SOL     OW 2974   2.897   6.835  10.915 -0.1512  0.3069  0.1885
32679SOL    HW1 2975   2.924   6.849  10.824  1.5052  0.3084  0.6498
32679SOL    HW2 2976   2.911   6.920  10.957 -1.0842  0.3544  0.4280
32680SOL     OW 2977   3.268   5.206  11.205  0.4808  0.4233 -0.8354
32680SOL    HW1 2978   3.356   5.216  11.242  0.6593  0.8910 -1.3760
32680SOL    HW2 2979   3.243   5.294  11.178 -0.7548  0.5521  0.6146
32681SOL     OW 2980   9.905   9.305   9.281 -0.1596 -0.1871  0.2745
32681SOL    HW1 2981   9.942   9.368   9.219 -3.3447  1.3554 -0.2966
32681SOL    HW2 2982   9.821   9.280   9.241 -0.5863 -2.0840  2.2100
32682SOL     OW 2983   1.904  10.526  10.699 -0.1989  0.0458  0.5646
32682SOL    HW1 2984   1.842  10.569  10.640  0.1347  0.7735  0.7311
32682SOL    HW2 2985   1.949  10.599  10.742  3.0889 -0.2984 -1.9034
32683SOL     OW 2986   9.448  11.562   3.414 -0.8804 -0.5652  0.2218
32683SOL    HW1 2987   9.486  11.483   3.454 -3.3732 -1.4218  1.0882
32683SOL    HW2 2988   9.398  11.530   3.339  0.3834  0.5776 -1.1712
32684SOL     OW 2989   1.454   5.578   3.927 -0.7412  0.3667 -0.4906
32684SOL    HW1 2990   1.509   5.615   3.996 -1.4058 -0.9030  0.7908
32684SOL    HW2 2991   1.480   5.486   3.922 -1.4331  0.1936 -1.1864
32685SOL     OW 2992   4.312   4.729  10.128 -0.3311  0.0410  0.0666
32685SOL    HW1 2993   4.256   4.769  10.062 -0.1136  2.6556  1.3682
32685SOL    HW2 2994   4.256   4.722  10.206 -0.1278 -1.5677  0.1050
32686SOL     OW 2995   8.237   0.666  10.282  0.4228 -0.1537 -0.5216
32686SOL    HW1 2996   8.144   0.672  10.301  0.3840  1.5194 -1.0527
32686SOL    HW2 2997   8.280   0.706  10.358  0.7275 -1.0314 -0.2216
32687SOL     OW 2998  10.724   7.628  10.957  0.5416 -0.4704 -0.0111
32687SOL    HW1 2999  10.667   7.700  10.985 -0.2612 -1.5267  1.1588
32687SOL    HW2 3000  10.774   7.605  11.035 -0.2283 -2.0922  0.0326
32688SOL     OW 3001   2.477   7.958  10.303  0.0943  0.5330 -0.3363
32688SOL    HW1 3002   2.398   7.930  10.256 -1.5671  1.5424  1.7093
32688SOL    HW2 3003   2.503   8.039  10.260 -0.8119  0.9271 -0.1604
32689SOL     OW 3004   5.086   6.226   1.383 -0.2765 -0.0596 -0.3181
32689SOL    HW1 3005   5.115   6.148   1.336  0.0805 -0.1175 -0.0134
32689SOL    HW2 3006   5.027   6.270   1.323 -0.9420 -0.8649 -0.2747
32690SOL     OW 3007   4.925  11.459   6.770 -0.0242  0.2264  0.4003
32690SOL    HW1 3008   4.988  11.531   6.763 -1.6086  1.5455 -1.9144
32690SOL    HW2 3009   4.850  11.489   6.719 -0.8627 -2.9735 -0.4773
32691SOL     OW 3010   1.762   9.647   5.400  0.0179 -0.1809  0.2846
32691SOL    HW1 3011   1.726   9.682   5.319  0.4858 -1.7439 -0.6597
32691SOL    HW2 3012   1.855   9.673   5.398  0.3575 -1.3485 -0.4007
32692SOL     OW 3013  10.079   2.149  11.524 -0.1914 -0.1136 -0.2638
32692SOL    HW1 3014  10.021   2.130  11.598 -0.5124  0.4053 -0.3714
32692SOL    HW2 3015  10.166   2.153  11.563  0.0265 -2.5185 -0.3571
32693SOL     OW 3016   1.359   2.707   4.639  0.0325  0.1518  0.5004
32693SOL    HW1 3017   1.415   2.684   4.565 -1.2329 -0.5861 -0.2704
32693SOL    HW2 3018   1.418   2.748   4.702  1.3990 -0.4481 -0.3376
32694SOL     OW 3019   1.774   3.756   7.252 -0.2526 -0.0467  0.1981
32694SOL    HW1 3020   1.744   3.701   7.325 -1.2669  0.6508  0.3243
32694SOL    HW2 3021   1.694   3.800   7.221  0.5590  1.4917  0.2158
32695SOL     OW 3022  10.078   2.729   9.692  0.3529 -0.4379  0.2236
32695SOL    HW1 3023   9.985   2.714   9.706  0.4834 -0.6757  0.9183
32695SOL    HW2 3024  10.115   2.733   9.781  0.6597  1.9269  0.0565
32696SOL     OW 3025   2.345   4.153   4.967  0.6431 -0.2202  0.1882
32696SOL    HW1 3026   2.414   4.172   4.904  1.7912 -0.2678  1.3858
32696SOL    HW2 3027   2.339   4.057   4.967  1.9642 -0.3345  1.4714
32697SOL     OW 3028  10.085   7.610   9.428  0.5277  0.0607 -0.3289
32697SOL    HW1 3029  10.125   7.694   9.406  0.0665  0.2822 -0.3438
32697SOL    HW2 3030  10.009   7.605   9.370  0.1715 -0.0556  0.1419
32698SOL     OW 3031   6.724   5.770   0.320  0.1698 -0.7276  0.2774
32698SOL    HW1 3032   6.742   5.838   0.385 -0.7426  1.1172 -1.3052
32698SOL    HW2 3033   6.664   5.710   0.365 -1.7442  1.3810  0.6788
32699SOL     OW 3034  11.100   3.773   7.134  0.2316  0.2390  0.4519
32699SOL    HW1 3035  11.008   3.780   7.160 -0.1116 -1.7235 -0.0293
32699SOL    HW2 3036  11.135   3.701   7.187  0.6898 -0.9283 -1.3047
32700SOL     OW 3037   6.817   8.792   5.092 -0.7302 -0.4017  0.2736
32700SOL    HW1 3038   6.804   8.883   5.121 -1.0113 -0.4549  0.3177
32700SOL    HW2 3039   6.887   8.798   5.027  0.3054 -0.3484  1.3514
32701SOL     OW 3040   0.871   5.019   3.498  0.2167 -0.0538 -0.1238
32701SOL    HW1 3041   0.894   4.948   3.437 -2.7139 -1.0709 -0.1959
32701SOL    HW2 3042   0.776   5.023   3.494  0.2060  2.7707  1.2325
32702SOL     OW 3043   3.294   5.961   4.270 -0.1876 -0.3156 -0.1653
32702SOL    HW1 3044   3.321   5.935   4.182  1.4657 -0.2888  0.2988
32702SOL    HW2 3045   3.376   5.979   4.316 -1.0448  0.2707  1.2055
32703SOL     OW 3046   3.267   9.936   2.669 -0.0399  0.1844  0.1165
32703SOL    HW1 3047   3.227   9.932   2.756  1.8173 -0.7590  0.9816
32703SOL    HW2 3048   3.202   9.894   2.612 -0.0633 -1.9605  1.5873
32704SOL     OW 3049   1.165   9.320   9.163 -0.2450  0.4616  0.4098
32704SOL    HW1 3050   1.142   9.365   9.082  0.8259 -0.6389 -0.5509
32704SOL    HW2 3051   1.107   9.358   9.230 -2.1909  0.3600 -1.1396
32705SOL     OW 3052   3.953  10.420   8.418 -0.3657 -0.3644  0.2143
32705SOL    HW1 3053   3.985  10.498   8.372  1.4837 -1.8473 -1.2397
32705SOL    HW2 3054   3.858  10.425   8.411 -0.3263  2.0366  0.7055
32706SOL     OW 3055   4.153   8.382   1.714  0.4728 -0.4571 -0.3814
32706SOL    HW1 3056   4.108   8.341   1.640 -0.9886 -0.3537  0.4116
32706SOL    HW2 3057   4.130   8.327   1.789  2.1284 -0.6988 -0.0019
32707SOL     OW 3058   9.561   7.219   1.789 -0.6963  0.3808 -0.5121
32707SOL    HW1 3059   9.580   7.220   1.695  1.6411  1.9152 -0.1167
32707SOL    HW2 3060   9.611   7.145   1.823 -1.3055  0.0016 -0.4412
32708SOL     OW 3061   8.016   6.955   5.946  0.1727 -0.4709 -0.0921
32708SOL    HW1 3062   8.101   6.999   5.934  0.1985 -0.8468 -1.4111
32708SOL    HW2 3063   7.965   6.979   5.868 -1.0885  0.0688  0.8714
32709SOL     OW 3064   3.796   1.277   0.374  0.4506 -0.1410 -0.4212
32709SOL    HW1 3065   3.804   1.315   0.462 -0.7937 -1.1622  0.1788
32709SOL    HW2 3066   3.715   1.315   0.339  0.9739  0.3089 -1.1714
32710SOL     OW 3067   5.234   3.878   7.647 -0.2111 -0.3701 -0.3085
32710SOL    HW1 3068   5.270   3.900   7.561  2.8472  1.0608  1.2097
32710SOL    HW2 3069   5.161   3.940   7.659 -1.5049 -1.3920 -2.2648
32711SOL     OW 3070   3.132   2.833  10.736 -0.2013 -0.2914  0.0152
32711SOL    HW1 3071   3.134   2.848  10.830  2.7289  1.2008 -0.1567
32711SOL    HW2 3072   3.222   2.852  10.707 -1.0805 -0.3461 -3.1158
32712SOL     OW 3073   1.916  10.546   2.985  0.3567  0.0231  0.4561
32712SOL    HW1 3074   1.933  10.476   3.047  0.4330  0.4155  0.8813
32712SOL    HW2 3075   1.995  10.601   2.988 -0.9092  1.8860  2.4794
32713SOL     OW 3076   9.440   8.449   9.609 -0.1698  0.4171  0.2303
32713SOL    HW1 3077   9.393   8.487   9.683 -0.3219  1.7733 -0.5383
32713SOL    HW2 3078   9.531   8.449   9.636 -0.2646  0.5586  0.5596
32714SOL     OW 3079  10.577   5.624   8.843  0.3151  0.2720  0.3621
32714SOL    HW1 3080  10.597   5.667   8.926 -2.9604 -0.1106  1.4745
32714SOL    HW2 3081  10.650   5.648   8.786  1.6157  2.3184  2.6767
32715SOL     OW 3082   3.504   6.941   0.996  0.5089 -0.3961  0.1834
32715SOL    HW1 3083   3.456   7.004   0.941  0.9846  0.4208  0.6778
32715SOL    HW2 3084   3.436   6.901   1.051  0.3431  0.6206  0.7527
32716SOL     OW 3085   6.742   0.869  10.720  0.2446  0.0175 -0.6034
32716SOL    HW1 3086   6.762   0.905  10.806 -0.6427 -0.3213 -0.2407
32716SOL    HW2 3087   6.662   0.818  10.733 -0.4379  0.7178 -1.8131
32717SOL     OW 3088   9.905   8.062   6.295 -0.0791 -0.1180  0.0535
32717SOL    HW1 3089   9.817   8.100   6.301 -0.4204 -0.1788 -3.0548
32717SOL    HW2 3090   9.893   7.969   6.313 -0.9469 -0.3583 -1.5403
32718SOL     OW 3091   0.903   1.119   8.523  0.0480  0.3249 -0.7609
32718SOL    HW1 3092   0.835   1.185   8.536 -0.4440 -0.0848 -1.2490
32718SOL    HW2 3093   0.982   1.170   8.506 -0.0945  0.8045 -0.0348
32719SOL     OW 3094   0.521   2.377   4.871  1.0747  0.1059  0.0949
32719SOL    HW1 3095   0.525   2.339   4.783  0.5669  0.1502  0.0516
32719SOL    HW2 3096   0.456   2.447   4.864  1.3891  0.4326  0.3886
32720SOL     OW 3097   2.492   6.990   8.894  0.1550  0.5189 -0.0271
32720SOL    HW1 3098   2.536   7.005   8.977  0.4220  2.2287 -0.4340
32720SOL    HW2 3099   2.562   6.995   8.829 -0.0715 -0.6553 -0.3863
32721SOL     OW 3100   2.481  10.209   1.727  0.2231  0.5702  0.3972
32721SOL    HW1 3101   2.456  10.241   1.640 -0.6235  1.4299  0.9340
32721SOL    HW2 3102   2.451  10.118   1.729 -2.1588  1.2997  0.6949
32722SOL     OW 3103   1.448   6.096  10.752  0.5087  0.0180 -0.1533
32722SOL    HW1 3104   1.440   6.110  10.657 -3.0124  0.9765  0.1167
32722SOL    HW2 3105   1.370   6.046  10.775  0.8472  0.5073  2.3471
32723SOL     OW 3106   2.343   2.772   1.992  0.5185 -0.3483 -0.0106
32723SOL    HW1 3107   2.336   2.792   1.899 -0.3057  1.5745  0.4130
32723SOL    HW2 3108   2.431   2.800   2.016  0.1426  0.7796  0.1128
32724SOL     OW 3109   1.700  10.045   2.519 -0.4037  0.6483 -0.3449
32724SOL    HW1 3110   1.642  10.120   2.532 -1.5050 -0.1838 -0.3749
32724SOL    HW2 3111   1.672   9.981   2.584  0.3365  0.1385 -0.5164
32725SOL     OW 3112   8.492   3.695   3.720 -0.2077  0.3927  0.4746
32725SOL    HW1 3113   8.406   3.735   3.706  0.4302  1.7618  0.3693
32725SOL    HW2 3114   8.555   3.763   3.696  0.9166 -0.6510  0.3752
32726SOL     OW 3115   7.527   6.178   7.917 -0.1053  0.3228 -0.1318
32726SOL    HW1 3116   7.502   6.087   7.933  1.9321  0.0232  1.6997
32726SOL    HW2 3117   7.497   6.195   7.827  0.0514 -2.3687 -0.7865
32727SOL     OW 3118   1.093   6.460  10.808 -0.0580  0.1017  0.3518
32727SOL    HW1 3119   1.167   6.458  10.747 -0.1981 -1.1340  0.1937
32727SOL    HW2 3120   1.055   6.547  10.797 -0.1172 -0.1047 -1.3811
32728SOL     OW 3121   1.235   2.299   2.375  0.4526  0.3369  0.2139
32728SOL    HW1 3122   1.145   2.331   2.379  0.1906 -0.3710  0.1797
32728SOL    HW2 3123   1.288   2.377   2.359 -0.1064  0.8239  0.7274
32729SOL     OW 3124   3.103   4.931  10.071  0.0434  0.8113  0.8163
32729SOL    HW1 3125   3.124   4.887   9.989  1.4882  2.0446  0.4967
32729SOL    HW2 3126   3.075   5.018  10.046  1.7234  1.6417  1.6581
32730SOL     OW 3127   4.312  10.480   1.526  0.2985  0.5316 -0.4488
32730SOL    HW1 3128   4.337  10.543   1.594 -1.5355  1.1900 -0.3370
32730SOL    HW2 3129   4.239  10.431   1.563 -0.6852  0.8329 -1.8670
32731SOL     OW 3130   7.967   6.423   8.484 -0.6389 -0.1289 -0.3301
32731SOL    HW1 3131   7.915   6.397   8.408 -0.7678  0.4141 -0.4380
32731SOL    HW2 3132   8.007   6.506   8.458 -0.2533 -0.2051  0.0003
32732SOL     OW 3133   2.921   6.668   6.506 -0.0797  0.1744  0.0639
32732SOL    HW1 3134   2.875   6.750   6.523  0.2336  0.4169 -0.2335
32732SOL    HW2 3135   2.854   6.601   6.511 -0.3756  0.4728  0.1197
32733SOL     OW 3136   9.444   1.332  10.951 -0.0327  0.0413  0.3689
32733SOL    HW1 3137   9.442   1.240  10.922  2.7068 -0.7886  2.3916
32733SOL    HW2 3138   9.449   1.382  10.870  4.1434 -1.9871 -0.9307
32734SOL     OW 3139   9.411   9.892   0.070  0.2775  0.3318 -0.0488
32734SOL    HW1 3140   9.412   9.957   0.140  1.7222 -0.2337  0.4940
32734SOL    HW2 3141   9.493   9.906   0.023 -0.6311  0.6480 -1.6170
32735SOL     OW 3142   5.624   7.295   5.374 -0.2140 -0.2312  0.1584
32735SOL    HW1 3143   5.649   7.231   5.307  1.7306  0.2105  0.3832
32735SOL    HW2 3144   5.582   7.366   5.325 -0.6655 -0.8182 -0.3235
32736SOL     OW 3145   5.727   9.357   6.413 -0.1814 -0.0230 -0.1775
32736SOL    HW1 3146   5.686   9.273   6.436 -0.4587  0.2901  0.5037
32736SOL    HW2 3147   5.763   9.390   6.495  0.3216  0.3213 -0.5255
32737SOL     OW 3148   2.370   8.315   4.269 -0.8265 -0.0890  0.3156
32737SOL    HW1 3149   2.407   8.394   4.309  0.7302 -0.6503  0.0260
32737SOL    HW2 3150   2.397   8.244   4.326  0.2837 -0.7459 -0.9793
32738SOL     OW 3151   6.295   3.490   3.317 -0.4595  0.4281 -0.1662
32738SOL    HW1 3152   6.255   3.560   3.265  1.0526  2.0888  0.7927
32738SOL    HW2 3153   6.375   3.467   3.269  1.0971  2.1745  1.4491
32739SOL     OW 3154   7.635   1.677   6.834 -0.4821 -0.2322  0.0779
32739SOL    HW1 3155   7.629   1.581   6.831 -1.9109 -0.1489 -0.5799
32739SOL    HW2 3156   7.665   1.701   6.746  3.5698 -0.2143  1.2766
32740SOL     OW 3157   5.762   8.194   4.494 -0.3535 -0.1127 -0.4348
32740SOL    HW1 3158   5.827   8.153   4.438  0.4720  0.7550 -0.1557
32740SOL    HW2 3159   5.765   8.144   4.576  1.2873  0.9629  0.2317
32741SOL     OW 3160   2.290   0.006   7.059  0.3404  0.1549  0.5721
32741SOL    HW1 3161   2.338   0.073   7.010  0.9367  2.0946  3.5352
32741SOL    HW2 3162   2.203   0.004   7.018  1.0762  0.9296 -1.1276
32742SOL     OW 3163   3.422   2.478   7.142  0.2974 -0.1812 -0.0129
32742SOL    HW1 3164   3.473   2.420   7.086 -1.7145 -1.8555 -0.2188
32742SOL    HW2 3165   3.375   2.535   7.082 -0.2136 -0.5217  0.0661
32743SOL     OW 3166   3.678   0.463   4.619 -0.2163  0.2770  0.4787
32743SOL    HW1 3167   3.770   0.443   4.634 -0.2895  0.4020  1.1237
32743SOL    HW2 3168   3.675   0.559   4.612 -0.0912  0.2043 -1.0539
32744SOL     OW 3169   9.897  10.641   4.161 -0.1730 -0.1299  0.2268
32744SOL    HW1 3170   9.814  10.611   4.125  0.9258 -2.7167 -0.3799
32744SOL    HW2 3171   9.962  10.579   4.127  1.8758  1.2087  1.4649
32745SOL     OW 3172   9.428   7.453   5.909  0.0336 -0.1085  0.2225
32745SOL    HW1 3173   9.343   7.446   5.953 -0.7356 -1.2645 -1.3428
32745SOL    HW2 3174   9.488   7.404   5.964 -0.2981  0.7200  1.3535
32746SOL     OW 3175   4.549   5.475   0.826  0.2709 -0.3264 -0.0772
32746SOL    HW1 3176   4.519   5.513   0.908 -0.9402 -0.4263 -0.4571
32746SOL    HW2 3177   4.489   5.403   0.808  0.9423 -0.7548 -0.7018
32747SOL     OW 3178   7.102   3.101   3.406 -0.1841  0.2569 -0.4889
32747SOL    HW1 3179   7.072   3.175   3.459  3.2569  0.7477  1.0703
32747SOL    HW2 3180   7.085   3.024   3.461 -0.3726  0.2979 -0.4879
32748SOL     OW 3181   4.958   6.213   8.967 -0.5755  0.6777  0.3041
32748SOL    HW1 3182   5.008   6.228   8.886 -2.1093 -1.2655 -1.1127
32748SOL    HW2 3183   5.021   6.173   9.027  0.0624  0.0310 -0.7574
32749SOL     OW 3184   0.284   3.303   3.633 -0.6837  0.2168 -0.0314
32749SOL    HW1 3185   0.370   3.274   3.601 -0.6555  1.3769 -1.0708
32749SOL    HW2 3186   0.241   3.340   3.556 -1.7087  0.5978  0.7035
32750SOL     OW 3187   7.004   8.252   4.646  0.8304 -0.0294 -0.3997
32750SOL    HW1 3188   6.919   8.249   4.690  0.9477  0.0904 -0.1628
32750SOL    HW2 3189   7.031   8.343   4.653  0.8285 -0.0020 -0.7647
32751SOL     OW 3190   0.694   2.923   8.019  0.4880 -0.3219  0.1335
32751SOL    HW1 3191   0.715   2.832   8.036  0.3430 -0.0964  1.6936
32751SOL    HW2 3192   0.776   2.970   8.032  0.3167 -0.1137  0.5088
32752SOL     OW 3193   1.452   1.323   4.304  0.5357 -0.0461  0.1219
32752SOL    HW1 3194   1.528   1.292   4.352  0.7280 -0.3445 -0.3664
32752SOL    HW2 3195   1.477   1.318   4.212 -0.6551 -1.7877 -0.1612
32753SOL     OW 3196   5.756   4.661   3.861 -0.3197 -0.0994  0.2136
32753SOL    HW1 3197   5.818   4.661   3.934  0.4820  0.8389 -0.4475
32753SOL    HW2 3198   5.723   4.751   3.857  1.6881  0.6561 -2.2202
32754SOL     OW 3199   3.160   2.520   0.358 -0.4791 -0.4735 -0.0593
32754SOL    HW1 3200   3.139   2.492   0.447  2.5649 -0.7641  0.6710
32754SOL    HW2 3201   3.154   2.440   0.306 -1.2983 -0.4896  0.0362
32755SOL     OW 3202   6.471   6.798  10.180  0.5296  0.3272  0.0338
32755SOL    HW1 3203   6.507   6.886  10.172  1.0936  0.2249  1.2394
32755SOL    HW2 3204   6.425   6.799  10.264  0.0372 -0.3606 -0.2203
32756SOL     OW 3205   1.774   1.777   3.399 -0.3575 -0.3098  0.0176
32756SOL    HW1 3206   1.749   1.758   3.309 -0.9190 -0.1714  0.1448
32756SOL    HW2 3207   1.793   1.871   3.398 -0.9878 -0.1782  0.1877
32757SOL     OW 3208  11.521   5.689   0.098  0.3809 -0.2348 -0.2636
32757SOL    HW1 3209  11.587   5.656   0.158  0.2156  1.3187  0.8501
32757SOL    HW2 3210  11.447   5.628   0.107  0.8401 -0.7340  0.1476
32758SOL     OW 3211   7.476   1.479   9.110 -0.2295 -0.5985  0.3966
32758SOL    HW1 3212   7.476   1.466   9.205 -0.1948 -2.0629  0.2202
32758SOL    HW2 3213   7.508   1.397   9.074 -1.0066 -0.3661 -0.9236
32759SOL     OW 3214  11.523   2.757   1.287  0.5093  0.2761 -0.1410
32759SOL    HW1 3215  11.497   2.665   1.293 -0.4102  0.4214 -1.5450
32759SOL    HW2 3216  11.568   2.774   1.370  1.1382 -1.5643 -0.0425
32760SOL     OW 3217   9.571   3.401   0.677 -0.3452  0.1361 -0.2563
32760SOL    HW1 3218   9.638   3.369   0.738 -0.5389 -1.0674 -0.6442
32760SOL    HW2 3219   9.562   3.494   0.698 -0.4290 -0.2495  1.5695
32761SOL     OW 3220   0.355  11.454   7.626 -0.1015 -0.7186  1.0364
32761SOL    HW1 3221   0.387  11.543   7.613 -0.6001 -0.4603  1.5330
32761SOL    HW2 3222   0.354  11.442   7.721 -0.0260 -1.2611  0.9757
32762SOL     OW 3223   0.481   3.583   8.612 -0.1704 -0.1106  0.0991
32762SOL    HW1 3224   0.409   3.594   8.549  0.0217 -0.8765 -0.2591
32762SOL    HW2 3225   0.546   3.531   8.566  0.3424  0.0247  0.6516
32763SOL     OW 3226   4.805   9.886  11.581 -0.3897  0.1335  0.3514
32763SOL    HW1 3227   4.859   9.963  11.562  1.0162 -0.5981  1.1912
32763SOL    HW2 3228   4.740   9.918  11.644 -0.7888  0.9697 -0.4601
32764SOL     OW 3229   6.630  10.327  10.128 -0.1272  0.4609 -0.7000
32764SOL    HW1 3230   6.583  10.274  10.063 -0.8444  0.1162  0.0865
32764SOL    HW2 3231   6.565  10.344  10.196  1.4350 -1.9204  1.5550
32765SOL     OW 3232   7.462   9.826   6.291 -0.3935  0.9282  0.1441
32765SOL    HW1 3233   7.485   9.910   6.251  0.4698  0.0257 -1.3517
32765SOL    HW2 3234   7.523   9.816   6.364  2.2637 -0.1066 -2.0303
32766SOL     OW 3235   4.470   9.500  11.225 -0.2914 -0.4384 -0.1103
32766SOL    HW1 3236   4.561   9.471  11.229 -0.2671 -0.3765 -0.2129
32766SOL    HW2 3237   4.437   9.487  11.314 -0.2403 -0.6496 -0.1216
32767SOL     OW 3238   3.246   0.949   7.271  0.4002 -0.0792  0.7899
32767SOL    HW1 3239   3.309   1.020   7.275  0.8261 -0.4990  1.8715
32767SOL    HW2 3240   3.187   0.973   7.199  0.3671  1.4957  1.3087
32768SOL     OW 3241   0.760   5.364   6.470  0.1703 -0.8251  0.3146
32768SOL    HW1 3242   0.769   5.276   6.506  0.2941 -0.9748 -0.0803
32768SOL    HW2 3243   0.803   5.360   6.384  0.8604 -0.1805  0.6116
32769SOL     OW 3244   2.275   4.567   4.807  0.6996 -0.3261  0.5511
32769SOL    HW1 3245   2.192   4.613   4.822 -0.0174 -1.3794 -0.0052
32769SOL    HW2 3246   2.334   4.602   4.873 -0.2237  0.3701  1.0344
32770SOL     OW 3247   8.333   5.672  10.461 -0.0940 -0.3885 -0.5180
32770SOL    HW1 3248   8.349   5.676  10.556 -1.0101 -0.0458 -0.3707
32770SOL    HW2 3249   8.343   5.579  10.439  2.0620 -0.2139 -0.4528
32771SOL     OW 3250   7.041   2.648   1.990  0.3208  0.5438  0.6769
32771SOL    HW1 3251   6.989   2.583   1.942  0.0884 -0.8317  2.6697
32771SOL    HW2 3252   7.041   2.725   1.933 -1.4613 -0.3832 -0.6891
32772SOL     OW 3253   1.952   2.582   2.553 -0.0731  0.2850 -0.0623
32772SOL    HW1 3254   1.977   2.591   2.461 -2.8728  4.3524 -0.6797
32772SOL    HW2 3255   2.019   2.631   2.601 -0.0897  0.5011 -0.2590
32773SOL     OW 3256   8.686   2.056   3.494 -0.6463  0.4191  0.2306
32773SOL    HW1 3257   8.612   2.105   3.530 -1.6952  0.2057 -1.5059
32773SOL    HW2 3258   8.646   1.992   3.435  0.9247  0.2741 -0.7447
32774SOL     OW 3259   6.474   4.863  10.750 -0.0877  0.0206  0.3786
32774SOL    HW1 3260   6.553   4.851  10.696 -0.4894  1.6932 -0.6566
32774SOL    HW2 3261   6.504   4.918  10.822  0.1331 -1.0825  1.1576
32775SOL     OW 3262   3.109   4.104   9.990 -0.3923  0.4688  0.3470
32775SOL    HW1 3263   3.178   4.108   9.924 -1.3376  0.2905 -0.6728
32775SOL    HW2 3264   3.041   4.163   9.958 -1.3016 -0.3884  0.6511
32776SOL     OW 3265   4.595   5.917   8.123  0.7469  0.4706  0.0589
32776SOL    HW1 3266   4.507   5.955   8.122  0.6278  0.1923 -1.0466
32776SOL    HW2 3267   4.581   5.824   8.108  1.2803  0.5519 -1.0179
32777SOL     OW 3268   7.674   4.711  10.927  0.4124  0.3150  0.1299
32777SOL    HW1 3269   7.611   4.648  10.892  0.2455  0.2761  0.4939
32777SOL    HW2 3270   7.629   4.795  10.924  0.3739  0.3017  0.3054
32778SOL     OW 3271   4.850   8.545   5.422 -0.0077  0.1938 -0.0597
32778SOL    HW1 3272   4.878   8.572   5.334  2.1227 -3.2418 -0.5813
32778SOL    HW2 3273   4.777   8.486   5.407  1.2542 -1.5281  0.2896
32779SOL     OW 3274   4.011   8.263   9.461  0.0101  0.0618  0.3209
32779SOL    HW1 3275   4.023   8.196   9.529  0.2914  3.0536  3.4887
32779SOL    HW2 3276   4.097   8.304   9.452 -0.2153  0.2184 -1.3530
32780SOL     OW 3277   0.283   1.778   1.281 -0.0144 -0.4194  0.2336
32780SOL    HW1 3278   0.244   1.860   1.312  0.4810 -0.2719  0.4729
32780SOL    HW2 3279   0.221   1.710   1.307  0.0691 -0.2253  0.9580
32781SOL     OW 3280   7.920  11.520  11.573  0.8455 -0.2222 -0.0367
32781SOL    HW1 3281   7.911  11.538  11.480  1.4026 -0.8117 -0.2133
32781SOL    HW2 3282   7.830  11.514  11.605  0.6441  1.1000 -0.2990
32782SOL     OW 3283   4.297   2.660   9.096  0.0795  0.5945  0.1092
32782SOL    HW1 3284   4.308   2.722   9.023  3.1411 -1.8024 -1.6614
32782SOL    HW2 3285   4.374   2.673   9.150  0.7240 -1.5216 -0.2391
32783SOL     OW 3286   3.734   1.100  10.429 -0.2162 -0.4748  0.0074
32783SOL    HW1 3287   3.824   1.128  10.443 -0.2038  0.5842 -1.9184
32783SOL    HW2 3288   3.682   1.178  10.446 -0.6307 -0.6424 -0.4851
32784SOL     OW 3289  11.388   9.459   1.768  0.0329  0.1991  0.5123
32784SOL    HW1 3290  11.454   9.522   1.798  0.8076 -0.7071  0.7532
32784SOL    HW2 3291  11.307   9.486   1.812  0.6139  0.3344  1.5252
32785SOL     OW 3292   8.899   3.759   9.928 -0.4583 -0.3560  0.1572
32785SOL    HW1 3293   8.953   3.838   9.925 -1.3160  0.2102 -0.8707
32785SOL    HW2 3294   8.834   3.776   9.996 -0.4849 -0.2897  0.1142
32786SOL     OW 3295   7.969   1.814   3.632 -0.2398 -0.4249  0.1998
32786SOL    HW1 3296   8.002   1.752   3.696 -1.1136  0.0809  1.1660
32786SOL    HW2 3297   7.887   1.846   3.669  0.9894  2.6307  0.6384
32787SOL     OW 3298   5.089   4.545   7.070  0.5972 -0.4424 -0.4868
32787SOL    HW1 3299   5.162   4.528   7.129 -0.1652  0.3187  0.7084
32787SOL    HW2 3300   5.119   4.510   6.985  1.9067 -1.1046  0.2068
32788SOL     OW 3301   5.255   1.200   7.293 -0.4668  0.2386 -0.1253
32788SOL    HW1 3302   5.164   1.221   7.313 -0.2474  0.1130  1.0399
32788SOL    HW2 3303   5.306   1.261   7.347  0.1430 -0.6027  0.2577
32789SOL     OW 3304   1.656   6.018   3.443  0.4606 -0.2745  0.1225
32789SOL    HW1 3305   1.605   6.022   3.361 -1.1238  1.6634  1.1034
32789SOL    HW2 3306   1.737   6.064   3.422  0.3196 -0.3149 -0.5412
32790SOL     OW 3307   4.875   5.094   5.451  0.8338  0.5310 -0.6839
32790SOL    HW1 3308   4.794   5.110   5.403  0.4613  0.6161 -0.0350
32790SOL    HW2 3309   4.933   5.054   5.387 -1.2635 -4.0983 -0.0667
32791SOL     OW 3310   6.241   0.210   8.034 -0.0461  0.1665 -0.2382
32791SOL    HW1 3311   6.324   0.203   7.987 -0.2379  0.2081 -0.5887
32791SOL    HW2 3312   6.220   0.303   8.032 -0.8148 -0.0085 -1.4185
32792SOL     OW 3313  11.325  10.871  10.321  0.3884 -0.4646 -0.1778
32792SOL    HW1 3314  11.269  10.886  10.245  1.5269 -2.0202 -1.4053
32792SOL    HW2 3315  11.407  10.916  10.300  0.1970  0.3843  0.8404
32793SOL     OW 3316   2.861   7.873   2.767 -0.1493  0.0146  0.4256
32793SOL    HW1 3317   2.870   7.908   2.855  0.8483  1.7275 -0.3115
32793SOL    HW2 3318   2.944   7.830   2.749  0.1608  0.8402 -0.1542
32794SOL     OW 3319   0.117  11.317   7.829 -0.1140 -0.2275 -0.3092
32794SOL    HW1 3320   0.035  11.355   7.798 -0.8978 -0.8897  0.8515
32794SOL    HW2 3321   0.169  11.391   7.860 -0.4754  0.1531 -0.6181
32795SOL     OW 3322   2.273   0.530   3.244  0.1271  0.1996 -0.6986
32795SOL    HW1 3323   2.355   0.483   3.225  0.1877 -0.2925  0.7021
32795SOL    HW2 3324   2.246   0.564   3.159  2.1051  0.9078 -1.0981
32796SOL     OW 3325   6.172   5.688   6.961  0.3260  0.5237 -0.2111
32796SOL    HW1 3326   6.241   5.749   6.986  1.1941 -0.7764  0.6914
32796SOL    HW2 3327   6.212   5.602   6.967 -1.2298 -0.2380 -0.1887
32797SOL     OW 3328   5.643   1.923   3.446 -0.1068 -0.1606  0.4674
32797SOL    HW1 3329   5.649   1.827   3.440  0.0607 -0.1542  0.5569
32797SOL    HW2 3330   5.728   1.955   3.415 -0.5692  0.0001 -0.6992
32798SOL     OW 3331   3.419   6.584  10.596  0.3873  0.5646  0.2085
32798SOL    HW1 3332   3.403   6.636  10.675 -0.4438  0.6129  0.0238
32798SOL    HW2 3333   3.458   6.503  10.627  1.5157  1.2184  0.5223
32799SOL     OW 3334   5.146  11.241   4.790 -0.5623  0.1538 -0.6565
32799SOL    HW1 3335   5.161  11.146   4.783 -1.0410  0.0346 -0.0949
32799SOL    HW2 3336   5.052  11.251   4.782 -0.3517  0.7834 -2.7535
32800SOL     OW 3337   9.461   1.691  11.557  0.1607 -0.2882  0.1673
32800SOL    HW1 3338   9.428   1.669  11.470 -2.5263  0.7311  0.8397
32800SOL    HW2 3339   9.537   1.747  11.541 -1.9999  2.3650 -1.6512
32801SOL     OW 3340   6.090  10.538  11.298 -0.3014  0.3942 -0.6261
32801SOL    HW1 3341   6.180  10.545  11.267  0.0328 -1.5021 -0.2359
32801SOL    HW2 3342   6.060  10.628  11.304  1.4568  1.0649 -1.0777
32802SOL     OW 3343   4.565   6.071   2.245 -0.6184 -0.1028 -0.1873
32802SOL    HW1 3344   4.537   6.106   2.160  1.1678  0.8919 -0.4153
32802SOL    HW2 3345   4.649   6.030   2.227 -0.4182 -0.2583  1.0283
32803SOL     OW 3346   8.210   8.798   8.995 -0.0714  0.1964  0.3883
32803SOL    HW1 3347   8.267   8.757   9.060 -0.6234 -1.0928  0.0982
32803SOL    HW2 3348   8.122   8.787   9.030 -0.3802 -0.5368 -0.5540
32804SOL     OW 3349   6.871  10.313   1.668 -0.1607  0.1180 -0.0603
32804SOL    HW1 3350   6.822  10.358   1.600 -1.6827  0.3582  1.1310
32804SOL    HW2 3351   6.867  10.373   1.743  1.5013 -0.1119  0.2674
32805SOL     OW 3352   6.902   2.403   4.982  0.2313 -0.1310 -0.2391
32805SOL    HW1 3353   6.991   2.434   4.965 -0.0511  0.5734 -0.4898
32805SOL    HW2 3354   6.894   2.323   4.931  0.6165 -0.0249 -0.4681
32806SOL     OW 3355   9.402   5.115   5.971  0.7267 -0.3736 -0.1690
32806SOL    HW1 3356   9.486   5.133   6.013  0.8667  0.3787 -0.7544
32806SOL    HW2 3357   9.401   5.172   5.894 -0.8667  0.5757  0.5206
32807SOL     OW 3358  10.676   0.594   8.601  0.1006 -0.2276 -0.4285
32807SOL    HW1 3359  10.626   0.561   8.526 -1.0106 -0.2972  0.3201
32807SOL    HW2 3360  10.673   0.690   8.591 -1.2179 -0.1750  0.2289
32808SOL     OW 3361   0.170   9.805   5.153  0.1334 -0.0032  0.5398
32808SOL    HW1 3362   0.136   9.866   5.219  0.1583 -0.0070  0.5559
32808SOL    HW2 3363   0.217   9.861   5.091  0.4004 -0.0378  0.7104
32809SOL     OW 3364   1.103   3.802   7.535 -0.0292  0.4152 -0.0190
32809SOL    HW1 3365   1.083   3.721   7.488  0.8560 -0.0617  0.3893
32809SOL    HW2 3366   1.044   3.867   7.497  1.1833  0.2553 -2.4102
32810SOL     OW 3367   5.692   6.243   4.615 -0.3363  0.0840 -0.5562
32810SOL    HW1 3368   5.763   6.279   4.668  0.1731 -1.2250 -0.3045
32810SOL    HW2 3369   5.721   6.254   4.525 -0.4520  0.8097 -0.5107
32811SOL     OW 3370   9.841   6.299   9.514  0.3968 -0.0914 -0.2903
32811SOL    HW1 3371   9.849   6.374   9.572 -1.7720 -1.1617  1.5719
32811SOL    HW2 3372   9.747   6.282   9.509  0.7662 -2.3386 -1.0920
32812SOL     OW 3373   9.263   4.631   0.963 -0.0509  0.2173  0.3567
32812SOL    HW1 3374   9.329   4.662   0.901 -0.0852 -0.2925  0.0578
32812SOL    HW2 3375   9.272   4.688   1.039  0.1942  0.6583  0.0003
32813SOL     OW 3376   2.269   1.358   4.441  0.5139  0.2661 -0.1132
32813SOL    HW1 3377   2.331   1.352   4.513  0.5739 -0.1775 -0.1978
32813SOL    HW2 3378   2.283   1.278   4.390  1.0976  0.9862 -1.1240
32814SOL     OW 3379   6.813   5.283  11.546  0.0493  0.0819 -0.3536
32814SOL    HW1 3380   6.768   5.367  11.534 -1.6473 -0.4616  1.6412
32814SOL    HW2 3381   6.786   5.253  11.633  1.6031 -1.9654 -0.4901
32815SOL     OW 3382   1.679   1.361   0.213  0.0735 -0.5231 -0.2656
32815SOL    HW1 3383   1.664   1.341   0.121  1.0271  0.4746 -0.6641
32815SOL    HW2 3384   1.689   1.456   0.215 -0.5732 -0.4676  0.9740
32816SOL     OW 3385   7.665  11.542   2.807  0.2673  0.6464  0.1948
32816SOL    HW1 3386   7.719  11.463   2.810 -0.0203  0.2040 -2.8020
32816SOL    HW2 3387   7.719  11.610   2.846  1.1154 -0.7092  1.4924
32817SOL     OW 3388   2.147   1.252   0.290  0.5386  0.0749 -0.5485
32817SOL    HW1 3389   2.182   1.248   0.379 -2.7468  0.4390  0.9149
32817SOL    HW2 3390   2.089   1.328   0.290  0.9125  0.4602 -3.2503
32818SOL     OW 3391   5.821   6.682   7.335  0.0282  0.0041 -0.6680
32818SOL    HW1 3392   5.878   6.756   7.356 -0.4850 -0.5608  3.6695
32818SOL    HW2 3393   5.880   6.609   7.322  0.4116  0.3861 -1.0992
32819SOL     OW 3394  10.426   0.092   0.066  0.1756 -0.2739  0.5431
32819SOL    HW1 3395  10.510   0.137   0.073 -1.0260  1.9328  1.8465
32819SOL    HW2 3396  10.419   0.042   0.148 -0.0703  0.0992  0.7522
32820SOL     OW 3397   6.465  11.171  10.792 -0.0925  0.2829 -0.4852
32820SOL    HW1 3398   6.458  11.186  10.697  1.5242  0.8321 -0.5620
32820SOL    HW2 3399   6.420  11.246  10.831  1.9646  1.8231 -0.8739
32821SOL     OW 3400   1.061   6.706   8.790  0.1068  0.6886 -0.3154
32821SOL    HW1 3401   1.102   6.768   8.851 -1.2542  0.7373  0.5946
32821SOL    HW2 3402   1.002   6.759   8.737 -3.3071 -0.0475  2.3937
32822SOL     OW 3403   9.647   8.423   4.768  0.0046  0.9552 -0.0586
32822SOL    HW1 3404   9.637   8.378   4.685  0.7869  0.1307  0.2782
32822SOL    HW2 3405   9.738   8.452   4.770  0.3421 -0.0846  0.9976
32823SOL     OW 3406   7.843   4.638   2.479  0.4392 -0.3528 -0.0339
32823SOL    HW1 3407   7.759   4.633   2.433  1.7387 -1.5546 -2.5018
32823SOL    HW2 3408   7.869   4.546   2.490  1.7924  0.0113 -0.0475
32824SOL     OW 3409   4.012  11.340   5.737  0.1174  0.0085  0.8130
32824SOL    HW1 3410   3.960  11.264   5.763  0.6465 -0.4817  0.4564
32824SOL    HW2 3411   4.004  11.343   5.642 -1.3535  1.4659  0.9141
32825SOL     OW 3412  11.595   4.968   8.735 -0.0914 -0.0981  0.0707
32825SOL    HW1 3413  11.561   5.053   8.706 -0.4022 -0.2801 -0.1100
32825SOL    HW2 3414  11.689   4.971   8.715 -0.1814  0.0392 -0.3341
32826SOL     OW 3415   4.496  10.676   2.089  0.2413  0.1776  0.4399
32826SOL    HW1 3416   4.538  10.738   2.148 -0.6116  0.7544  0.4647
32826SOL    HW2 3417   4.567  10.621   2.057  0.7210 -0.2157  2.0711
32827SOL     OW 3418   5.241   4.270   8.178  0.2125 -0.0780  0.4108
32827SOL    HW1 3419   5.212   4.281   8.087 -1.4854 -0.6804  0.8466
32827SOL    HW2 3420   5.298   4.193   8.175 -1.7788 -1.6413  0.1936
32828SOL     OW 3421   6.464   7.497   6.550  0.1947 -0.2435 -0.1251
32828SOL    HW1 3422   6.370   7.490   6.536 -0.0362  0.1067  1.1092
32828SOL    HW2 3423   6.476   7.585   6.587  1.2100  0.3449 -1.6923
32829SOL     OW 3424   1.896   5.469   4.801 -0.0985  0.1628 -0.0886
32829SOL    HW1 3425   1.855   5.424   4.726 -0.4537 -0.2657  0.3569
32829SOL    HW2 3426   1.824   5.517   4.842  0.1680  0.6757 -0.2264
32830SOL     OW 3427   1.335   7.334   3.019  0.2435  0.5430 -0.1655
32830SOL    HW1 3428   1.413   7.390   3.014  0.5143  0.1022 -0.9403
32830SOL    HW2 3429   1.274   7.383   3.073  1.4371  0.4579  1.3466
32831SOL     OW 3430   3.716   2.423   2.895 -0.2479 -0.0243 -0.4672
32831SOL    HW1 3431   3.648   2.486   2.871  1.1171  1.2847 -1.0450
32831SOL    HW2 3432   3.700   2.347   2.839 -1.2762  0.2276 -0.5250
32832SOL     OW 3433   9.125   3.910   3.880  0.5617 -0.3592 -0.2888
32832SOL    HW1 3434   9.094   3.927   3.791 -1.2422  0.3296  0.4162
32832SOL    HW2 3435   9.045   3.904   3.932  1.6143  0.7175  1.5528
32833SOL     OW 3436   1.610   5.093   0.307 -0.3200 -0.3507  0.2528
32833SOL    HW1 3437   1.611   5.111   0.401 -0.1771  0.4318  0.1069
32833SOL    HW2 3438   1.670   5.157   0.269 -2.5140  1.2495 -0.6891
32834SOL     OW 3439   5.337   6.625   2.272  0.1791  0.7352  0.1299
32834SOL    HW1 3440   5.256   6.649   2.318 -0.5988 -1.2630 -0.0798
32834SOL    HW2 3441   5.377   6.558   2.327  1.4423  1.3268 -0.0375
32835SOL     OW 3442   6.570   8.295   1.794 -0.3754 -0.2561 -0.0221
32835SOL    HW1 3443   6.619   8.373   1.769 -2.1662  0.7990 -0.4731
32835SOL    HW2 3444   6.579   8.236   1.719  0.8562 -0.4390  0.2535
32836SOL     OW 3445   9.581   5.544   6.455  0.1859 -0.1946 -0.0075
32836SOL    HW1 3446   9.557   5.526   6.546  0.9397  0.9608  0.4452
32836SOL    HW2 3447   9.674   5.522   6.451  0.0397 -0.7173 -0.6469
32837SOL     OW 3448   0.582   7.242   1.556  0.3709 -0.0681  0.4304
32837SOL    HW1 3449   0.502   7.255   1.608  1.1506 -1.3643  2.0237
32837SOL    HW2 3450   0.637   7.187   1.611  1.9508 -0.0589 -1.0946
32838SOL     OW 3451   6.789   8.464  10.900  0.0662  0.3446 -0.0220
32838SOL    HW1 3452   6.795   8.513  10.818 -1.1225  0.1316 -0.2592
32838SOL    HW2 3453   6.782   8.373  10.873 -3.2541  0.4163  0.0785
32839SOL     OW 3454   1.171   3.905   0.372 -0.0734  0.3059  0.5161
32839SOL    HW1 3455   1.110   3.973   0.403 -0.7035 -0.4589  0.9695
32839SOL    HW2 3456   1.141   3.885   0.283 -1.1183 -0.7725  1.0891
32840SOL     OW 3457  10.749  10.705   9.046 -0.2565  0.3321 -0.1711
32840SOL    HW1 3458  10.735  10.782   8.991 -2.6107 -0.6760 -1.0971
32840SOL    HW2 3459  10.705  10.634   9.000  1.0251 -1.4020  1.1332
32841SOL     OW 3460   6.347  10.123   6.074 -0.1247  0.3114  0.3573
32841SOL    HW1 3461   6.351  10.109   6.169  1.0340  3.4118  0.8919
32841SOL    HW2 3462   6.438  10.111   6.045 -0.0560  1.4753  0.0490
32842SOL     OW 3463   9.583   9.160   7.468 -0.3529  0.7693  0.0302
32842SOL    HW1 3464   9.671   9.153   7.505 -0.8266 -1.1935  0.9643
32842SOL    HW2 3465   9.593   9.214   7.390  1.8178  0.0021 -0.2854
32843SOL     OW 3466   2.264   6.843   8.952  0.2052  0.0609  0.0288
32843SOL    HW1 3467   2.351   6.869   8.922  0.4215 -0.8529 -0.1474
32843SOL    HW2 3468   2.252   6.892   9.034  0.5488  0.7979 -0.3503
32844SOL     OW 3469   1.616   6.980   2.127 -0.4139 -0.2708 -0.1887
32844SOL    HW1 3470   1.541   7.039   2.118 -0.1710  0.1550  0.4667
32844SOL    HW2 3471   1.625   6.939   2.041 -0.6400  0.5968 -0.6414
32845SOL     OW 3472   2.263   4.423  10.294 -0.3424  0.2768 -0.1630
32845SOL    HW1 3473   2.286   4.338  10.332 -0.9683  0.2026  0.0627
32845SOL    HW2 3474   2.252   4.481  10.370  0.1384  0.5776 -0.3183
32846SOL     OW 3475   5.921   8.949   5.677  0.6116 -0.5570 -0.0749
32846SOL    HW1 3476   5.833   8.937   5.713 -0.0067  1.3131 -0.8413
32846SOL    HW2 3477   5.955   9.027   5.721  1.7366 -1.0208 -0.0946
32847SOL     OW 3478   7.173   5.462  11.077  0.3208 -0.1388  0.0811
32847SOL    HW1 3479   7.102   5.526  11.083  0.7498  0.3397  0.0563
32847SOL    HW2 3480   7.204   5.469  10.987  3.3748  2.8785  1.1749
32848SOL     OW 3481   7.253   3.061   4.475  0.0001  0.6180 -0.1152
32848SOL    HW1 3482   7.229   2.980   4.432 -0.5458  1.3131 -1.1600
32848SOL    HW2 3483   7.348   3.065   4.468  0.2143 -0.7266  1.4497
32849SOL     OW 3484   0.629   5.026   2.801 -0.2255  0.3554 -0.5539
32849SOL    HW1 3485   0.716   4.996   2.827  0.4533  0.7576 -2.2548
32849SOL    HW2 3486   0.617   4.993   2.712 -1.7706  0.4296 -0.4096
32850SOL     OW 3487   5.968   0.105  11.387 -0.0235 -0.3270  0.2884
32850SOL    HW1 3488   5.879   0.087  11.416  0.3378 -0.3112  1.4729
32850SOL    HW2 3489   5.959   0.131  11.295 -1.5183  2.0785  1.0260
32851SOL     OW 3490   7.770   8.914   9.237  0.4321  0.2526  0.8265
32851SOL    HW1 3491   7.731   8.959   9.312  0.2636  1.3049  0.1257
32851SOL    HW2 3492   7.709   8.931   9.164  0.6875 -0.5909  0.4089
32852SOL     OW 3493   8.391   2.806   7.234  0.3347 -0.3260 -0.4393
32852SOL    HW1 3494   8.395   2.813   7.329 -0.3063  1.4038 -0.5140
32852SOL    HW2 3495   8.312   2.853   7.209  1.3761  0.7072 -1.9396
32853SOL     OW 3496   9.790   8.889   0.170  0.1243 -0.0816 -0.0793
32853SOL    HW1 3497   9.827   8.875   0.082  0.3417  1.4170 -0.2692
32853SOL    HW2 3498   9.754   8.805   0.195  0.8953 -0.7858 -1.2241
32854SOL     OW 3499   2.469   6.651  11.292 -0.0193  0.3492 -0.1143
32854SOL    HW1 3500   2.444   6.729  11.244  1.7502 -0.3321 -2.2739
32854SOL    HW2 3501   2.531   6.682  11.358  0.4484  0.8135 -0.7676
32855SOL     OW 3502  10.323   6.006  11.686 -0.4879 -0.3991 -0.0079
32855SOL    HW1 3503  10.281   6.052  11.614  1.4225 -0.8334 -1.4741
32855SOL    HW2 3504  10.323   5.914  11.660  0.0432 -0.5946  0.6457
32856SOL     OW 3505  10.264   8.024   0.531 -0.3452 -0.3058 -0.1627
32856SOL    HW1 3506  10.287   7.970   0.606 -0.1754 -0.5307 -0.3717
32856SOL    HW2 3507  10.218   8.099   0.568  0.3501 -0.0670  0.2183
32857SOL     OW 3508   1.754  10.433   2.476  0.0615 -0.1523  0.2964
32857SOL    HW1 3509   1.693  10.372   2.518  0.1076 -0.0545  0.5072
32857SOL    HW2 3510   1.754  10.407   2.384 -1.0269  0.4512  0.1068
32858SOL     OW 3511   1.171  10.122   5.080  0.2033  0.1791 -0.0324
32858SOL    HW1 3512   1.092  10.125   5.134  0.5389 -0.6905  0.5435
32858SOL    HW2 3513   1.150  10.174   5.003 -1.3195 -0.8971 -0.4048
32859SOL     OW 3514   6.868   0.569   9.749 -0.4499 -0.7292  0.4894
32859SOL    HW1 3515   6.961   0.557   9.767 -0.3083  0.2318  0.4666
32859SOL    HW2 3516   6.823   0.526   9.822  0.0124 -1.0852  0.5683
32860SOL     OW 3517   2.376   6.578   4.514 -0.1796  0.2469 -0.0088
32860SOL    HW1 3518   2.281   6.572   4.501 -0.0414 -0.2620 -0.8368
32860SOL    HW2 3519   2.413   6.561   4.428  0.7221 -1.3067  0.6452
32861SOL     OW 3520   2.711   4.102   8.737 -0.0538 -0.2831  0.6680
32861SOL    HW1 3521   2.787   4.062   8.780  0.0051 -0.4630  0.4012
32861SOL    HW2 3522   2.645   4.033   8.738 -0.5153  0.1579  1.6764
32862SOL     OW 3523   5.929  10.572   6.976  0.2529  0.1998 -0.4109
32862SOL    HW1 3524   6.023  10.560   6.965  0.2633 -0.6719  0.4665
32862SOL    HW2 3525   5.894  10.575   6.887  0.7904 -2.3141 -0.7956
32863SOL     OW 3526   6.738  10.373   1.185  0.3683 -0.0860 -0.4214
32863SOL    HW1 3527   6.796  10.444   1.211  0.5995 -0.7503  0.9994
32863SOL    HW2 3528   6.778  10.294   1.222 -0.9660 -0.6720 -0.1534
32864SOL     OW 3529   9.538   9.408   4.832 -0.3055  0.2109 -0.2651
32864SOL    HW1 3530   9.506   9.323   4.800  0.7579  0.5555 -2.4009
32864SOL    HW2 3531   9.605   9.385   4.896  0.3820 -0.6015 -1.2374
32865SOL     OW 3532  11.475   3.807   2.457 -0.2884 -0.0228  0.1512
32865SOL    HW1 3533  11.501   3.751   2.531  0.4256 -0.3102 -0.3065
32865SOL    HW2 3534  11.525   3.773   2.383 -1.9742 -0.5737 -0.7735
32866SOL     OW 3535   6.592   3.971   1.918 -0.0192 -0.0541  0.1331
32866SOL    HW1 3536   6.614   4.015   1.836 -0.6377  0.9627  0.4994
32866SOL    HW2 3537   6.497   3.971   1.921  0.0051  0.3853  1.0956
32867SOL     OW 3538   9.986   4.821   0.300 -0.6183 -0.0261  0.1145
32867SOL    HW1 3539   9.953   4.911   0.301  0.6711  0.4713  1.3081
32867SOL    HW2 3540   9.912   4.768   0.331 -1.5494  0.5277 -1.0693
32868SOL     OW 3541   9.538   3.156   0.542 -0.6589 -0.0185  0.5478
32868SOL    HW1 3542   9.559   3.227   0.481 -0.5760  1.2524  1.9933
32868SOL    HW2 3543   9.619   3.140   0.589 -1.2841  0.6915  1.9477
32869SOL     OW 3544   3.003   3.662   5.438  0.3102  0.1201  0.6375
32869SOL    HW1 3545   2.970   3.631   5.522 -1.2484 -0.4983 -0.1562
32869SOL    HW2 3546   2.946   3.620   5.373  1.1907  0.9228 -0.7071
32870SOL     OW 3547   5.465   6.330   2.030 -0.1205 -0.1201  0.6350
32870SOL    HW1 3548   5.538   6.392   2.037  0.2305 -0.1550 -1.8346
32870SOL    HW2 3549   5.500   6.257   1.978 -1.5059 -0.8031  0.6242
32871SOL     OW 3550   1.488   1.915   0.293 -0.9656  0.5018 -0.3794
32871SOL    HW1 3551   1.448   1.843   0.245 -1.5248  0.2389  0.4609
32871SOL    HW2 3552   1.510   1.980   0.225  1.2221 -1.1715 -1.3799
32872SOL     OW 3553   2.570   1.453   4.460 -0.6922 -0.3469 -0.0359
32872SOL    HW1 3554   2.565   1.539   4.503  0.7781  0.5809 -1.6330
32872SOL    HW2 3555   2.639   1.407   4.508 -2.9353 -1.5711  2.2578
32873SOL     OW 3556   3.676  11.337   4.531  0.2550 -0.0961  0.5910
32873SOL    HW1 3557   3.620  11.391   4.587 -0.4559  0.4400 -0.5775
32873SOL    HW2 3558   3.647  11.358   4.442  1.5494 -0.6843  0.0053
32874SOL     OW 3559   0.416   9.961   6.239 -0.3648 -0.6903  0.0341
32874SOL    HW1 3560   0.385   9.912   6.316 -1.3613 -0.2649 -0.0742
32874SOL    HW2 3561   0.376  10.047   6.249  0.2826 -0.3287 -0.4724
32875SOL     OW 3562   9.466   3.975   2.857  0.2329 -0.2318 -0.1534
32875SOL    HW1 3563   9.511   4.026   2.925 -2.8907  2.6835 -0.0037
32875SOL    HW2 3564   9.487   4.021   2.776 -2.1881  1.1617 -0.0842
32876SOL     OW 3565   8.413   2.526  11.368  0.2659 -0.1783  0.4997
32876SOL    HW1 3566   8.508   2.525  11.381  0.3687 -0.5358 -0.2019
32876SOL    HW2 3567   8.381   2.447  11.412  0.1053  0.6473  1.9294
32877SOL     OW 3568   0.487   0.333   4.401  0.7011 -0.6643  0.1681
32877SOL    HW1 3569   0.439   0.411   4.371  1.4213 -0.4804 -0.5329
32877SOL    HW2 3570   0.479   0.272   4.328  1.6884 -0.5643 -0.0295
32878SOL     OW 3571   1.793   5.588   7.205  0.3130 -0.0592 -0.5059
32878SOL    HW1 3572   1.731   5.516   7.193 -1.6934  1.7858 -2.0621
32878SOL    HW2 3573   1.853   5.581   7.131  0.7831 -0.7119 -0.0737
32879SOL     OW 3574   1.882   6.813   5.018  0.3698 -0.0159 -0.4276
32879SOL    HW1 3575   1.942   6.887   5.023  0.5413 -0.1386 -0.6538
32879SOL    HW2 3576   1.939   6.736   5.018  0.1431 -0.2949  2.3226
32880SOL     OW 3577   3.470   6.664   4.434  0.5097 -0.2402  0.1786
32880SOL    HW1 3578   3.465   6.731   4.365  0.9630  1.1037  1.3959
32880SOL    HW2 3579   3.563   6.645   4.441  0.7343  1.1362  1.7336
32881SOL     OW 3580   3.555   2.024   6.787  0.3348 -0.1336 -0.3999
32881SOL    HW1 3581   3.526   2.034   6.697  0.6589  2.8967 -0.2586
32881SOL    HW2 3582   3.476   2.038   6.840  0.9062  2.8641 -0.1720
32882SOL     OW 3583   2.256   8.805   6.222  0.1545  0.3394  0.0279
32882SOL    HW1 3584   2.321   8.830   6.156 -1.8312  1.2303 -1.7337
32882SOL    HW2 3585   2.221   8.888   6.253 -0.3577 -0.1211  0.6978
32883SOL     OW 3586   2.800   8.718   6.826 -0.0294  0.3356  0.1932
32883SOL    HW1 3587   2.849   8.801   6.827  2.6142 -1.0476  2.7498
32883SOL    HW2 3588   2.860   8.655   6.786 -1.1500 -0.7611  0.1639
32884SOL     OW 3589   5.845   8.361   7.303  0.1356  0.3033 -0.2453
32884SOL    HW1 3590   5.926   8.410   7.288  0.7433  0.5824  3.0876
32884SOL    HW2 3591   5.776   8.417   7.268  1.2871  0.1439 -3.0037
32885SOL     OW 3592   9.082   2.840  10.032  0.1133 -0.1298  0.4317
32885SOL    HW1 3593   9.096   2.821  10.125  0.2022 -1.4465  0.1715
32885SOL    HW2 3594   8.990   2.819  10.016 -0.0902  0.7714  0.3629
32886SOL     OW 3595   1.336   2.230   2.623  0.6197 -0.1973 -0.7097
32886SOL    HW1 3596   1.301   2.253   2.537  1.5383  0.2132 -0.9825
32886SOL    HW2 3597   1.388   2.306   2.649  1.1184 -0.7005 -0.2177
32887SOL     OW 3598   4.292   1.830   8.622  0.0824 -0.6840  0.0558
32887SOL    HW1 3599   4.311   1.844   8.529 -0.4104 -0.1017  0.0355
32887SOL    HW2 3600   4.350   1.890   8.668 -1.7312  1.2350 -0.0152
32888SOL     OW 3601   7.415   4.030   6.363 -0.3525  0.3763 -0.1806
32888SOL    HW1 3602   7.504   4.064   6.356  0.0042  0.5562  3.1937
32888SOL    HW2 3603   7.426   3.944   6.404 -1.7191  0.3577  0.1879
32889SOL     OW 3604   4.029   4.548   5.610  0.5564 -0.3089  0.0506
32889SOL    HW1 3605   3.971   4.488   5.657  0.9381 -0.6845  0.0414
32889SOL    HW2 3606   4.088   4.492   5.561 -1.7465 -0.0077 -3.3920
32890SOL     OW 3607   6.706   6.466   3.614 -0.1028  0.4984  0.1808
32890SOL    HW1 3608   6.638   6.509   3.562 -1.7241 -1.7147  0.3085
32890SOL    HW2 3609   6.664   6.446   3.698  0.5852 -1.1122  0.1925
32891SOL     OW 3610   2.873   1.218   4.985  0.0050 -0.8366  0.0336
32891SOL    HW1 3611   2.866   1.177   5.071  0.2377  1.1040  1.0446
32891SOL    HW2 3612   2.961   1.197   4.954 -0.1176 -1.6288  0.2077
32892SOL     OW 3613   3.109   3.641   7.965  0.0207  0.3910  0.3527
32892SOL    HW1 3614   3.161   3.623   7.887 -1.4837 -0.9660 -0.3935
32892SOL    HW2 3615   3.168   3.690   8.022  1.3535  0.9205 -1.3788
32893SOL     OW 3616   4.970   9.116   4.866 -0.5174 -0.4925  0.3422
32893SOL    HW1 3617   4.963   9.211   4.878  1.3361 -0.2070 -0.5400
32893SOL    HW2 3618   4.990   9.083   4.953  0.0587  0.0693  0.4268
32894SOL     OW 3619   6.436   7.404  10.471  0.0543 -0.0615 -0.2399
32894SOL    HW1 3620   6.494   7.355  10.529  1.9471  3.9535  1.6053
32894SOL    HW2 3621   6.477   7.400  10.385  1.1440 -0.1898  0.2798
32895SOL     OW 3622   9.711   9.757   0.426 -0.1383  0.4473 -0.2852
32895SOL    HW1 3623   9.702   9.850   0.404 -0.1561  0.5346  0.0959
32895SOL    HW2 3624   9.622   9.728   0.445 -0.1743  0.2750 -0.7091
32896SOL     OW 3625   4.161   6.319   8.920  0.0176  0.4671  0.1702
32896SOL    HW1 3626   4.156   6.258   8.993  1.1013 -0.6364 -0.6241
32896SOL    HW2 3627   4.130   6.269   8.845 -0.2243  1.2905 -0.2954
32897SOL     OW 3628   1.137   6.710  11.061 -0.0568 -0.4988 -0.1622
32897SOL    HW1 3629   1.130   6.702  11.156  2.4340  0.3834  0.1615
32897SOL    HW2 3630   1.056   6.755  11.035 -0.1246  0.6004  1.7597
32898SOL     OW 3631   5.881   5.575   5.636  0.3233  0.0839 -0.1712
32898SOL    HW1 3632   5.831   5.497   5.610  0.4585 -0.1980  0.3900
32898SOL    HW2 3633   5.972   5.554   5.616  0.1330  1.1086 -2.4392
32899SOL     OW 3634   1.533   5.545   9.956  0.2767 -0.3036  0.2830
32899SOL    HW1 3635   1.568   5.617   9.904 -1.2786 -1.1194 -2.0617
32899SOL    HW2 3636   1.559   5.466   9.908  0.5440 -1.2427  1.8980
32900SOL     OW 3637  11.097   7.580   7.784  1.2169  0.4947  0.1492
32900SOL    HW1 3638  11.112   7.625   7.701  0.3063  0.5769  0.0237
32900SOL    HW2 3639  11.151   7.628   7.847 -0.1263  2.1421  0.1271
32901SOL     OW 3640   8.967   7.141  11.345  0.0855  0.0193 -0.0242
32901SOL    HW1 3641   8.875   7.115  11.340 -0.2137  1.1058 -0.4487
32901SOL    HW2 3642   9.005   7.083  11.411 -0.9216 -0.3769  0.2248
32902SOL     OW 3643   3.795   2.373   7.269  0.2006 -0.1989  0.4914
32902SOL    HW1 3644   3.847   2.415   7.201  1.2027 -0.8170  0.8457
32902SOL    HW2 3645   3.754   2.298   7.225 -1.5069  1.0260 -0.1147
32903SOL     OW 3646   3.430   6.572  11.624  0.3796 -0.4426  0.3136
32903SOL    HW1 3647   3.434   6.616  11.709  1.3755 -0.1947  0.1501
32903SOL    HW2 3648   3.379   6.492  11.640  0.1172 -0.1371  1.0200
32904SOL     OW 3649   3.866   4.116   1.976  0.7491 -0.2604 -0.4968
32904SOL    HW1 3650   3.884   4.194   2.029 -0.1270 -0.3374 -0.0611
32904SOL    HW2 3651   3.942   4.059   1.990  2.0455  1.0404 -1.8665
32905SOL     OW 3652   7.029   3.647   2.627  0.0856 -0.4881 -0.1979
32905SOL    HW1 3653   7.083   3.720   2.598 -0.3665 -0.2893 -0.5531
32905SOL    HW2 3654   7.091   3.577   2.647  0.4451 -0.4692 -1.2028
32906SOL     OW 3655   5.359   6.273   0.453  0.1233  0.5886 -0.0719
32906SOL    HW1 3656   5.328   6.354   0.411  3.6739  1.1166 -2.0946
32906SOL    HW2 3657   5.436   6.300   0.502 -0.2041 -1.2116  1.5461
32907SOL     OW 3658   6.811   2.979   8.207 -0.0244 -0.9243  0.1473
32907SOL    HW1 3659   6.894   2.972   8.161 -0.4116  0.2490 -0.7908
32907SOL    HW2 3660   6.778   3.066   8.183 -0.4091 -0.3924  2.3923
32908SOL     OW 3661   8.289   4.231   6.510 -0.9816 -0.6223 -0.1435
32908SOL    HW1 3662   8.273   4.222   6.603  1.2479  2.5435  0.7212
32908SOL    HW2 3663   8.212   4.276   6.475 -1.0632 -0.1991  0.5715
32909SOL     OW 3664   5.191   0.364  10.438  0.2879 -0.5337 -0.2508
32909SOL    HW1 3665   5.261   0.346  10.375  0.1755 -1.1531 -0.2049
32909SOL    HW2 3666   5.210   0.306  10.512  1.5346  1.5414  1.1700
32910SOL     OW 3667   6.964   4.052   2.696  0.0470 -0.5279  0.1696
32910SOL    HW1 3668   6.896   4.066   2.630  0.9612 -1.0068 -0.9135
32910SOL    HW2 3669   6.918   4.008   2.768 -1.7178  2.9540  1.4050
32911SOL     OW 3670   4.624   0.233   1.706 -0.0682 -0.1866 -0.2187
32911SOL    HW1 3671   4.668   0.205   1.625 -0.3486 -0.6274 -0.2235
32911SOL    HW2 3672   4.534   0.250   1.679  0.0188  0.4141 -0.1461
32912SOL     OW 3673   5.367   3.521   7.019  0.3360  0.4171 -0.6945
32912SOL    HW1 3674   5.391   3.458   7.087 -0.1598  1.3235  0.3410
32912SOL    HW2 3675   5.378   3.607   7.060  1.1604  1.0362 -2.1361
32913SOL     OW 3676   4.408   7.473   9.812  0.2911  0.3646  0.4867
32913SOL    HW1 3677   4.484   7.529   9.828  0.6110 -0.6003  2.6257
32913SOL    HW2 3678   4.445   7.387   9.792 -0.2177 -0.1385  1.6456
32914SOL     OW 3679   7.250   8.978   8.691  0.4654  0.3602 -1.0420
32914SOL    HW1 3680   7.204   8.973   8.775 -0.1831 -0.4785 -1.4322
32914SOL    HW2 3681   7.215   9.057   8.649  0.5548  0.6029 -0.6695
32915SOL     OW 3682   5.975   9.892  10.437  0.4280  0.1189 -0.2610
32915SOL    HW1 3683   6.012   9.835  10.504  1.4555  0.4246 -0.5564
32915SOL    HW2 3684   5.950   9.833  10.366  3.6448  0.1659 -1.5735
32916SOL     OW 3685   5.705   9.397  10.951 -0.0849  0.3544  0.1481
32916SOL    HW1 3686   5.795   9.374  10.972  0.3457  2.5500  0.8991
32916SOL    HW2 3687   5.711   9.480  10.904 -1.6903  0.2734 -0.2640
32917SOL     OW 3688   1.587   2.107   9.839 -0.3415  0.1882  0.8285
32917SOL    HW1 3689   1.630   2.086   9.756  0.4648 -1.6362  1.6343
32917SOL    HW2 3690   1.541   2.189   9.823  1.2924  0.8375 -0.8724
32918SOL     OW 3691   9.729   2.867   9.715  0.2263 -0.6402  0.4058
32918SOL    HW1 3692   9.776   2.930   9.769 -0.1210 -0.4338  0.4677
32918SOL    HW2 3693   9.649   2.912   9.689  0.9890 -0.2343 -1.3817
32919SOL     OW 3694   8.797   6.472   6.235  0.2245  0.2025  0.5167
32919SOL    HW1 3695   8.846   6.490   6.155  0.3087 -1.1072  0.2499
32919SOL    HW2 3696   8.850   6.510   6.305  1.0950 -0.2801  0.1300
32920SOL     OW 3697   2.076   4.147   2.685 -0.2350 -0.4277  0.0679
32920SOL    HW1 3698   2.011   4.171   2.752 -0.5474 -0.7317 -0.1241
32920SOL    HW2 3699   2.110   4.063   2.714 -0.2011 -0.4500 -0.0361
32921SOL     OW 3700   7.850   9.834   2.458 -0.3254 -0.0952 -0.1068
32921SOL    HW1 3701   7.903   9.906   2.493 -0.5259 -0.6959  1.5382
32921SOL    HW2 3702   7.899   9.802   2.383  0.3936  0.9414 -0.1030
32922SOL     OW 3703   3.529   9.349   4.572 -0.4028  0.4598  0.3934
32922SOL    HW1 3704   3.564   9.272   4.617  1.5187  0.1944 -1.4275
32922SOL    HW2 3705   3.503   9.408   4.643 -0.5362 -1.2382  1.8241
32923SOL     OW 3706   0.050   4.992   1.929  0.2338 -0.4249 -0.8188
32923SOL    HW1 3707   0.023   4.997   1.837  0.6426 -1.5177 -1.0149
32923SOL    HW2 3708  -0.003   5.058   1.973  0.5702  0.6388 -1.9626
32924SOL     OW 3709   5.520   5.976   7.391  0.1908 -0.3058  0.6188
32924SOL    HW1 3710   5.562   6.052   7.432  2.1800 -1.5346  1.0180
32924SOL    HW2 3711   5.484   6.010   7.309  0.5873  1.1657  1.0234
32925SOL     OW 3712   5.667   3.072   8.688 -0.1081 -0.1666 -0.0643
32925SOL    HW1 3713   5.707   3.082   8.775  1.6991  0.1200 -0.8858
32925SOL    HW2 3714   5.634   3.159   8.666  1.3817  0.3247 -0.5284
32926SOL     OW 3715   2.994   0.944   6.890  0.0512  0.2243  0.2567
32926SOL    HW1 3716   2.965   0.907   6.973 -0.2291  1.2482  0.6335
32926SOL    HW2 3717   3.069   0.891   6.864 -0.5139 -0.7781  0.6137
32927SOL     OW 3718   6.756   5.077   4.587  0.3395 -0.5199 -0.1587
32927SOL    HW1 3719   6.822   5.032   4.533 -0.0276 -0.7262 -0.4399
32927SOL    HW2 3720   6.678   5.079   4.532  0.6383  1.4122 -0.5734
32928SOL     OW 3721  10.536   1.150   0.973 -0.1250 -0.3345  0.1258
32928SOL    HW1 3722  10.553   1.188   0.887 -0.5764 -0.1439  0.1229
32928SOL    HW2 3723  10.593   1.073   0.976  0.4331  0.0643 -0.0545
32929SOL     OW 3724   5.441   4.598   0.998  0.0585  0.5769 -0.2012
32929SOL    HW1 3725   5.426   4.690   0.977  0.1825  1.1604  2.0206
32929SOL    HW2 3726   5.358   4.555   0.979 -0.0952  1.1975 -0.9680
32930SOL     OW 3727   2.105   8.951   8.722 -0.5403  0.1767 -0.2178
32930SOL    HW1 3728   2.011   8.962   8.740 -0.6520  1.7309 -1.4670
32930SOL    HW2 3729   2.113   8.861   8.690 -1.4949 -0.1768  0.5034
32931SOL     OW 3730   5.313   7.231   2.938  0.4126  0.0276  0.4179
32931SOL    HW1 3731   5.350   7.284   2.867 -1.0933  0.6223  0.0220
32931SOL    HW2 3732   5.386   7.216   2.998  1.5145  0.2562 -0.8113
32932SOL     OW 3733   8.843   9.416   6.255  0.0665  0.0391  0.3838
32932SOL    HW1 3734   8.802   9.347   6.202 -0.3821  1.1273 -0.7172
32932SOL    HW2 3735   8.771   9.454   6.305 -0.0188  0.8565 -0.3277
32933SOL     OW 3736  10.432   5.793   3.614  0.4917  0.1432 -0.0677
32933SOL    HW1 3737  10.490   5.796   3.537  0.8320 -1.8651  0.0696
32933SOL    HW2 3738  10.490   5.768   3.686 -0.4263 -1.3231  0.1797
32934SOL     OW 3739   6.829   3.672   6.877 -0.5244 -0.5360 -0.8136
32934SOL    HW1 3740   6.783   3.731   6.817  1.0426  0.7431 -0.8004
32934SOL    HW2 3741   6.772   3.668   6.955 -0.4914  1.2670 -0.6664
32935SOL     OW 3742   2.191   7.636   3.612  0.0693 -0.2412 -0.0285
32935SOL    HW1 3743   2.165   7.724   3.640 -1.2593 -0.0409 -1.7543
32935SOL    HW2 3744   2.111   7.585   3.614  0.8158 -1.4403  0.8973
32936SOL     OW 3745   9.971   3.394  10.598  0.1406 -0.1018  0.3264
32936SOL    HW1 3746  10.065   3.408  10.585 -0.1624  0.9402 -0.9715
32936SOL    HW2 3747   9.962   3.381  10.693  1.8631 -2.7382  0.2317
32937SOL     OW 3748   9.290   7.717   4.269 -0.3939  0.0398  0.4234
32937SOL    HW1 3749   9.201   7.685   4.287  0.2529 -1.6136  0.8431
32937SOL    HW2 3750   9.287   7.743   4.177 -0.7808 -2.0540 -0.2162
32938SOL     OW 3751   7.949   5.437   9.492 -0.0338 -0.9098 -0.1498
32938SOL    HW1 3752   7.947   5.491   9.571  2.3775 -0.1321 -0.5290
32938SOL    HW2 3753   7.908   5.492   9.425  0.8607 -0.2299 -0.1519
32939SOL     OW 3754   3.398   1.057   4.476 -0.1827 -0.4404 -0.2270
32939SOL    HW1 3755   3.396   1.080   4.383 -0.8029 -2.7170 -0.8244
32939SOL    HW2 3756   3.316   1.092   4.510 -0.1532  0.0328 -0.6254
32940SOL     OW 3757   6.475   3.955   1.530 -0.6089 -0.0795 -0.3052
32940SOL    HW1 3758   6.446   3.885   1.472 -3.6838  0.6643  0.1908
32940SOL    HW2 3759   6.510   3.909   1.607 -0.2561 -1.0243 -0.9990
32941SOL     OW 3760   0.337   3.806   8.269 -0.1398  0.3964  0.1616
32941SOL    HW1 3761   0.274   3.750   8.224  0.8075 -1.3389  0.9060
32941SOL    HW2 3762   0.414   3.807   8.212  0.2407  0.0326  0.6554
32942SOL     OW 3763   0.422   4.051  11.183  0.3694  0.1768 -0.1313
32942SOL    HW1 3764   0.476   3.993  11.237 -0.2260  0.8735  1.2589
32942SOL    HW2 3765   0.450   4.139  11.208 -0.1038  0.5151 -0.7740
32943SOL     OW 3766   0.906   5.694   4.981 -0.6365  0.0668  0.7120
32943SOL    HW1 3767   0.986   5.712   5.031  0.0597 -1.2435  0.1222
32943SOL    HW2 3768   0.853   5.772   4.992  0.7999  1.0390  0.9842
32944SOL     OW 3769   5.230   3.495   5.989  0.6803  0.2283 -0.2427
32944SOL    HW1 3770   5.263   3.485   6.079  1.4992 -2.1517 -0.7375
32944SOL    HW2 3771   5.136   3.505   5.999  0.2739 -3.4546  0.8465
32945SOL     OW 3772  11.116   7.996   5.118  0.2779  0.7494  0.9036
32945SOL    HW1 3773  11.067   8.008   5.199 -0.5944 -0.2013  0.5511
32945SOL    HW2 3774  11.075   7.920   5.077  0.0321  1.7932 -0.9011
32946SOL     OW 3775   1.392   9.987   9.883 -0.6846 -0.0891 -0.6009
32946SOL    HW1 3776   1.478  10.026   9.891 -1.4041  1.3589  0.5646
32946SOL    HW2 3777   1.408   9.897   9.852  1.1801  0.2568 -0.7087
32947SOL     OW 3778   8.356   4.717  10.754  0.2373 -0.0154  0.0640
32947SOL    HW1 3779   8.346   4.811  10.745 -0.7827 -0.0525  0.5965
32947SOL    HW2 3780   8.444   4.705  10.789 -0.0163  0.8213  1.0378
32948SOL     OW 3781   5.958   6.637   1.212 -0.0223 -0.1966  0.1408
32948SOL    HW1 3782   6.031   6.670   1.160  0.0724  1.1418  1.0524
32948SOL    HW2 3783   5.880   6.653   1.158 -0.0601  2.3063  0.8317
32949SOL     OW 3784   3.118  10.784   2.195  0.2317 -0.3897  0.3509
32949SOL    HW1 3785   3.152  10.718   2.255 -0.2354 -0.8253  0.1469
32949SOL    HW2 3786   3.169  10.771   2.115  2.6077  1.8104  1.3624
32950SOL     OW 3787  11.066   7.301   9.378  0.1941 -0.4853 -0.3118
32950SOL    HW1 3788  11.040   7.300   9.470  1.4074  2.7024  0.1945
32950SOL    HW2 3789  11.001   7.246   9.334 -2.4534  0.5374  2.0104
32951SOL     OW 3790   9.841  10.269   4.188 -0.0713 -0.1332  0.9592
32951SOL    HW1 3791   9.760  10.315   4.168  0.4952  1.1687  1.5318
32951SOL    HW2 3792   9.838  10.190   4.135 -0.8379  0.8280 -0.4776
32952SOL     OW 3793   3.508   8.074   3.703 -0.3696  0.4417  0.0211
32952SOL    HW1 3794   3.552   8.030   3.775 -0.6363  0.0376 -0.0583
32952SOL    HW2 3795   3.428   8.110   3.741 -1.1628 -0.8859 -0.3339
32953SOL     OW 3796   6.362   0.447   7.115 -0.0518 -0.0007  0.2759
32953SOL    HW1 3797   6.450   0.448   7.152 -0.9614 -0.3647  2.5703
32953SOL    HW2 3798   6.334   0.538   7.117  0.6836  0.3116 -1.6306
32954SOL     OW 3799   1.764   3.795  11.554  0.3571 -0.5397  0.1460
32954SOL    HW1 3800   1.831   3.850  11.594  0.0785 -0.3179  0.3161
32954SOL    HW2 3801   1.713   3.856  11.499  1.1202 -0.9495 -1.0498
32955SOL     OW 3802  11.304   4.477   4.079  0.2409  0.7349  0.0047
32955SOL    HW1 3803  11.282   4.495   4.171  0.4266  0.4078  0.1127
32955SOL    HW2 3804  11.324   4.384   4.076 -0.2392  0.6394 -0.4647
32956SOL     OW 3805   7.603   3.805   7.520  0.1495  0.7850 -0.5555
32956SOL    HW1 3806   7.594   3.771   7.609  0.9853  0.4691 -0.5846
32956SOL    HW2 3807   7.513   3.814   7.489 -0.1619  1.0859  0.3878
32957SOL     OW 3808   5.320   2.732   5.407  0.4036 -0.1727  0.2872
32957SOL    HW1 3809   5.367   2.733   5.490  1.1668 -2.0861 -0.0762
32957SOL    HW2 3810   5.231   2.759   5.429  0.9911  0.8924  1.4392
32958SOL     OW 3811   3.549   3.544   8.699  0.2104  0.3426  0.1790
32958SOL    HW1 3812   3.549   3.531   8.794 -1.1167 -0.1133  0.1398
32958SOL    HW2 3813   3.628   3.499   8.669 -0.0589 -0.6753  0.9355
32959SOL     OW 3814   7.836   4.658  11.617 -0.4553  0.0202  0.5522
32959SOL    HW1 3815   7.894   4.583  11.634 -0.0471  0.1039 -0.3878
32959SOL    HW2 3816   7.748   4.621  11.615 -0.3285 -0.3014  0.8442
32960SOL     OW 3817   8.163   2.433  10.762 -0.3795  0.0742 -0.0994
32960SOL    HW1 3818   8.141   2.512  10.811 -0.1790 -0.6437  1.1873
32960SOL    HW2 3819   8.085   2.413  10.710 -1.9109 -1.0042  2.4568
32961SOL     OW 3820   5.262   1.454   6.283  0.1740  0.8095 -0.2270
32961SOL    HW1 3821   5.280   1.360   6.291 -0.1253  0.8434  1.3649
32961SOL    HW2 3822   5.166   1.460   6.280  0.1051  1.1105  1.3887
32962SOL     OW 3823   6.426   3.890   0.351 -0.3968 -0.0915 -0.6239
32962SOL    HW1 3824   6.331   3.896   0.361 -0.1389  1.0081  1.9437
32962SOL    HW2 3825   6.455   3.836   0.424  1.1758  2.1960  0.5675
32963SOL     OW 3826   8.059   3.565   4.248  0.8165 -0.8505  0.0211
32963SOL    HW1 3827   8.008   3.498   4.293  1.3656 -0.1101  1.8450
32963SOL    HW2 3828   8.037   3.646   4.293  1.8917 -0.1690 -0.6329
32964SOL     OW 3829   3.411   9.080   9.918  0.2805  0.0063 -0.5474
32964SOL    HW1 3830   3.475   9.150   9.929  0.4286  0.1827 -2.2457
32964SOL    HW2 3831   3.457   9.001   9.945 -0.0912  0.5752  2.0175
32965SOL     OW 3832   6.139   7.728   9.901  0.2709  0.2844 -0.0491
32965SOL    HW1 3833   6.131   7.795   9.834 -0.5417  0.6208  0.3819
32965SOL    HW2 3834   6.188   7.770   9.972 -0.2231  0.4126  0.2137
32966SOL     OW 3835   8.672  10.863   5.047  0.4288 -0.3152  0.2168
32966SOL    HW1 3836   8.608  10.872   4.977  1.0920 -1.5496 -0.5856
32966SOL    HW2 3837   8.660  10.942   5.101 -2.8311 -1.1781  1.0237
32967SOL     OW 3838   2.139   1.496   6.185  0.1279  0.0787  0.0424
32967SOL    HW1 3839   2.198   1.444   6.239 -0.4901 -0.8399 -0.1399
32967SOL    HW2 3840   2.070   1.435   6.159 -0.3832  0.8824 -0.5478
32968SOL     OW 3841   4.919   1.462   6.304 -0.1229 -0.0715 -0.4418
32968SOL    HW1 3842   4.855   1.429   6.367  1.3677 -0.8337  0.7508
32968SOL    HW2 3843   4.899   1.417   6.222 -0.9322 -0.4846 -0.0259
32969SOL     OW 3844   0.141   7.462   8.904 -0.5670 -0.0974  0.0844
32969SOL    HW1 3845   0.229   7.499   8.914 -1.0963  0.8231  1.9028
32969SOL    HW2 3846   0.087   7.537   8.879 -0.6789 -0.9076 -2.3717
32970SOL     OW 3847   1.881   8.489   9.328  0.0068  0.0335 -0.1317
32970SOL    HW1 3848   1.853   8.398   9.338 -0.1623 -0.0436 -1.1934
32970SOL    HW2 3849   1.967   8.493   9.370 -0.7883 -0.1444  1.6152
32971SOL     OW 3850  11.479   5.343   3.285 -0.5054  0.1729  0.2499
32971SOL    HW1 3851  11.542   5.310   3.349 -0.7354 -2.8766 -0.9410
32971SOL    HW2 3852  11.456   5.431   3.317  0.3317 -0.6903  3.5940
32972SOL     OW 3853   6.878   4.055   6.135  0.0365  0.3946 -0.6370
32972SOL    HW1 3854   6.903   3.985   6.196  1.4613  1.5424  0.1628
32972SOL    HW2 3855   6.884   4.015   6.048 -0.4076 -0.8150 -0.1224
32973SOL     OW 3856   2.306   8.727   9.054 -0.6721 -0.1269  0.1511
32973SOL    HW1 3857   2.293   8.801   8.995 -2.0085  0.4316  1.0941
32973SOL    HW2 3858   2.376   8.676   9.013 -0.6021  0.9668 -1.1796
32974SOL     OW 3859   4.548   2.468   7.826 -0.3607 -0.6723 -0.5126
32974SOL    HW1 3860   4.578   2.505   7.743 -0.7927  2.8453  0.7444
32974SOL    HW2 3861   4.454   2.486   7.828  0.0780  1.9956  1.8607
32975SOL     OW 3862  11.565   5.231   8.960 -0.8024 -0.6452 -0.0881
32975SOL    HW1 3863  11.578   5.227   9.055 -1.1800  1.9418  0.1639
32975SOL    HW2 3864  11.636   5.180   8.923 -0.1861 -1.0449  1.5850
32976SOL     OW 3865   8.624   6.204   2.946 -0.2281 -0.3584 -0.0780
32976SOL    HW1 3866   8.540   6.170   2.915  1.0803 -1.0715 -3.2604
32976SOL    HW2 3867   8.675   6.126   2.966 -0.1905  0.0622  1.5509
32977SOL     OW 3868  11.219   0.161   5.839 -0.2561  0.2559 -0.1108
32977SOL    HW1 3869  11.185   0.211   5.765 -0.8409  1.5973  1.0146
32977SOL    HW2 3870  11.252   0.228   5.900 -1.1176 -0.7009  1.4770
32978SOL     OW 3871  11.340   0.021   2.200 -0.3895  0.2393 -0.0834
32978SOL    HW1 3872  11.378  -0.041   2.139  0.4940 -0.7496  1.4023
32978SOL    HW2 3873  11.248  -0.005   2.207  0.1135 -1.3865  1.0294
32979SOL     OW 3874   5.519   8.440  11.284  0.2811 -0.0917 -0.2574
32979SOL    HW1 3875   5.504   8.368  11.223 -0.4428  0.3670 -0.6256
32979SOL    HW2 3876   5.454   8.427  11.354  2.4205 -1.8151  1.5634
32980SOL     OW 3877   1.122   8.559   3.251  0.3390  0.3885 -0.0417
32980SOL    HW1 3878   1.190   8.587   3.313 -1.2407  2.0401  1.0351
32980SOL    HW2 3879   1.149   8.596   3.167  0.7558  1.0517  0.3772
32981SOL     OW 3880  11.056   9.688   0.431  0.2513  0.1193 -0.1793
32981SOL    HW1 3881  11.136   9.696   0.482 -1.3088  0.4781  2.4035
32981SOL    HW2 3882  10.989   9.729   0.485 -1.6582  0.0578 -2.3482
32982SOL     OW 3883   3.190   1.472   0.712 -0.0876  0.3254 -0.0832
32982SOL    HW1 3884   3.283   1.448   0.704  0.5667  2.0521  1.5579
32982SOL    HW2 3885   3.146   1.390   0.734  1.4843 -0.1076  1.7125
32983SOL     OW 3886   8.141   4.645   0.322  0.4889  0.3434  0.0172
32983SOL    HW1 3887   8.196   4.567   0.332  1.9470  1.2266 -0.6486
32983SOL    HW2 3888   8.192   4.702   0.263 -1.1873  1.1996 -0.6638
32984SOL     OW 3889   8.840   3.022   6.909  0.3599 -0.0419  0.4996
32984SOL    HW1 3890   8.805   3.079   6.977 -1.5350 -1.2535  0.6007
32984SOL    HW2 3891   8.918   3.068   6.877 -0.5986  2.1609  1.1557
32985SOL     OW 3892   8.287   5.215  11.315  0.0713 -0.6962 -0.1889
32985SOL    HW1 3893   8.193   5.230  11.306  0.2896  1.6294  0.7721
32985SOL    HW2 3894   8.297   5.169  11.398 -0.1526  0.2130  0.3550
32986SOL     OW 3895   5.371   8.219   2.208  0.0116  0.3936  0.1511
32986SOL    HW1 3896   5.379   8.265   2.292 -0.5133  0.7551  0.0136
32986SOL    HW2 3897   5.329   8.283   2.150  2.3268  0.9394 -1.0248
32987SOL     OW 3898   5.411   8.091   8.391 -0.0497 -0.3417 -0.1909
32987SOL    HW1 3899   5.493   8.141   8.390 -1.1836  1.6410 -0.4381
32987SOL    HW2 3900   5.426   8.018   8.332  1.4228  0.1775 -0.5075
32988SOL     OW 3901   8.618   4.164   5.371  0.1220 -0.0257  0.0460
32988SOL    HW1 3902   8.657   4.238   5.419  1.7324  0.3414 -1.6875
32988SOL    HW2 3903   8.620   4.192   5.279 -0.9369 -1.5083 -0.4577
32989SOL     OW 3904   6.576  10.324   2.016  0.5473  0.2314 -0.1340
32989SOL    HW1 3905   6.502  10.348   1.960 -0.0904 -2.8357 -0.7658
32989SOL    HW2 3906   6.580  10.394   2.082 -1.7244  1.4200 -1.1433
32990SOL     OW 3907   0.608   3.381   8.451  0.0415 -0.1267  0.0454
32990SOL    HW1 3908   0.566   3.387   8.366  0.5039 -2.0353 -0.3513
32990SOL    HW2 3909   0.685   3.326   8.437  0.6746  0.3228  1.5003
32991SOL     OW 3910   6.621  10.617   3.637  0.0548 -0.2024  0.0921
32991SOL    HW1 3911   6.714  10.607   3.618  0.1585  0.0762  0.4517
32991SOL    HW2 3912   6.578  10.612   3.551  0.4166 -0.1680 -0.0909
32992SOL     OW 3913   5.326   9.537  11.656 -0.8844  0.4546 -0.0819
32992SOL    HW1 3914   5.313   9.556  11.563 -0.3065  2.3336  0.1748
32992SOL    HW2 3915   5.240   9.508  11.687 -1.3804  0.9466 -0.9615
32993SOL     OW 3916   6.456  11.606   3.124  0.0415 -0.5091  0.4713
32993SOL    HW1 3917   6.457  11.700   3.140  1.8179 -0.7636  2.3363
32993SOL    HW2 3918   6.526  11.592   3.061  1.1502 -0.7309  1.6976
32994SOL     OW 3919  10.017  11.671   2.832  0.4696  0.0706  0.4442
32994SOL    HW1 3920  10.102  11.708   2.855  0.1860  0.6227  0.6286
32994SOL    HW2 3921  10.037  11.601   2.770  0.9360  1.3723 -0.9204
32995SOL     OW 3922   5.221   5.774   0.325  0.5704 -0.5140 -0.7534
32995SOL    HW1 3923   5.251   5.803   0.239  2.0595  1.3380  0.3085
32995SOL    HW2 3924   5.246   5.845   0.385 -1.9941 -0.9231  0.9687
32996SOL     OW 3925   5.304  10.904  10.517 -0.2139 -0.0735  0.0252
32996SOL    HW1 3926   5.309  10.956  10.597 -0.7946 -1.0217  0.7095
32996SOL    HW2 3927   5.395  10.884  10.495 -0.0603 -0.0090  0.5975
32997SOL     OW 3928  11.575   6.751  11.517  0.7162  0.3241  0.1036
32997SOL    HW1 3929  11.519   6.748  11.440 -0.2711  1.0440  0.7634
32997SOL    HW2 3930  11.636   6.823  11.500 -0.0970  1.0957  0.3634
32998SOL     OW 3931   8.543   1.989   5.062 -0.0084  0.1708  0.3902
32998SOL    HW1 3932   8.586   1.945   4.988 -1.2587  0.8303 -0.7767
32998SOL    HW2 3933   8.452   1.998   5.035 -0.5459  0.2669  2.1150
32999SOL     OW 3934   0.351   8.777   6.042 -0.4530 -0.1040 -0.0375
32999SOL    HW1 3935   0.267   8.820   6.059 -0.6481 -0.5494  0.1292
32999SOL    HW2 3936   0.330   8.685   6.033  0.1718 -0.3979  1.2395
33000SOL     OW 3937   3.872  10.791  11.622 -0.0797 -0.2196  0.1209
33000SOL    HW1 3938   3.909  10.742  11.695  2.1186 -2.1538 -2.1255
33000SOL    HW2 3939   3.812  10.730  11.579  0.7134 -0.0807 -1.2242
33001SOL     OW 3940   3.520   7.392  10.404 -0.0596 -0.5087 -0.1311
33001SOL    HW1 3941   3.585   7.423  10.341  2.0623 -0.0198  2.1542
33001SOL    HW2 3942   3.485   7.471  10.444 -0.7683 -0.8359 -0.0875
33002SOL     OW 3943   7.756   1.705   7.834  0.4400  0.3904 -0.2877
33002SOL    HW1 3944   7.698   1.673   7.765 -0.2797  1.8282 -0.3805
33002SOL    HW2 3945   7.839   1.659   7.818 -0.6951 -1.9154  0.0118
33003SOL     OW 3946   1.791   5.878   4.206  0.4478  0.3532 -0.4677
33003SOL    HW1 3947   1.869   5.837   4.167 -0.0958  0.2764 -1.5144
33003SOL    HW2 3948   1.826   5.934   4.275  1.1848 -2.3812  1.5426
33004SOL     OW 3949   6.223   5.708   8.490  0.1862 -0.6441  0.1343
33004SOL    HW1 3950   6.156   5.757   8.538  1.3596 -0.5011  1.7262
33004SOL    HW2 3951   6.189   5.619   8.486 -1.4562 -0.0052 -1.8039
33005SOL     OW 3952   6.159   1.310   2.149 -0.1839  0.5901  0.1032
33005SOL    HW1 3953   6.200   1.325   2.063 -1.0645 -2.0997 -0.8645
33005SOL    HW2 3954   6.199   1.376   2.206  0.7532  2.1813 -2.2467
33006SOL     OW 3955   7.316   2.792   6.990 -0.0798  0.1009 -0.3252
33006SOL    HW1 3956   7.262   2.811   7.066  0.3865 -2.5441  0.7883
33006SOL    HW2 3957   7.377   2.725   7.020  0.2220 -0.9520 -2.9953
33007SOL     OW 3958   6.161   4.860   2.116 -0.4140  0.0285 -0.3054
33007SOL    HW1 3959   6.110   4.792   2.161  0.5230 -0.0122  0.7371
33007SOL    HW2 3960   6.097   4.902   2.058 -1.5775 -0.2208  0.7330
33008SOL     OW 3961   9.331  10.255  11.085  0.4043  0.4108 -0.3608
33008SOL    HW1 3962   9.316  10.349  11.082  0.7214  0.4847  0.2199
33008SOL    HW2 3963   9.245  10.218  11.103  0.0115  0.4812 -1.9430
33009SOL     OW 3964   9.677   9.649   3.515  0.0360 -0.4794 -0.3511
33009SOL    HW1 3965   9.626   9.677   3.591 -0.3213 -1.1215 -0.3471
33009SOL    HW2 3966   9.767   9.674   3.535 -0.1466 -0.1368  0.0335
33010SOL     OW 3967   8.545   6.202   2.438 -0.4489 -0.0181  0.0086
33010SOL    HW1 3968   8.520   6.185   2.347 -0.4731 -2.5750  0.4040
33010SOL    HW2 3969   8.565   6.115   2.474  2.2112  1.1721  1.7096
33011SOL     OW 3970   0.834   1.409   9.755  0.2941 -0.3833  0.1409
33011SOL    HW1 3971   0.750   1.399   9.709  0.1353 -2.1159  0.7259
33011SOL    HW2 3972   0.858   1.500   9.740 -0.3003 -0.5472 -2.4226
33012SOL     OW 3973  10.111   6.378  11.137 -0.1443  0.8701 -0.6950
33012SOL    HW1 3974  10.200   6.402  11.162 -0.0527 -0.8854  0.9218
33012SOL    HW2 3975  10.117   6.354  11.045  0.8996  1.3938 -0.7774
33013SOL     OW 3976   2.843   2.448   4.866 -0.5281 -0.3317  0.9146
33013SOL    HW1 3977   2.763   2.462   4.916 -1.6197  1.8562 -1.2615
33013SOL    HW2 3978   2.821   2.379   4.803 -0.2984 -0.5846  1.1091
33014SOL     OW 3979   6.671   0.820   5.114 -0.1145 -0.0928 -0.5140
33014SOL    HW1 3980   6.601   0.821   5.049 -0.2678  0.9037 -0.3440
33014SOL    HW2 3981   6.694   0.912   5.125  0.0048 -0.2647  0.7391
33015SOL     OW 3982   0.394   0.268   2.678  0.1794  0.0654  0.2326
33015SOL    HW1 3983   0.460   0.316   2.729  1.4549 -0.4978 -0.8358
33015SOL    HW2 3984   0.400   0.178   2.709 -0.1875  0.0308  0.2102
33016SOL     OW 3985  10.382   3.376   0.477  0.6979 -0.0065 -0.0679
33016SOL    HW1 3986  10.361   3.296   0.430  1.1869  0.9308 -2.0045
33016SOL    HW2 3987  10.297   3.415   0.498  0.4726 -0.5228 -0.0138
33017SOL     OW 3988   0.532   1.203   7.497  0.6989 -0.4851 -0.7732
33017SOL    HW1 3989   0.544   1.109   7.500  1.2815 -0.3875  0.4077
33017SOL    HW2 3990   0.502   1.221   7.408 -1.5949 -2.0271 -0.3810
33018SOL     OW 3991   5.589   9.898   2.651  0.1998  0.7298  0.0106
33018SOL    HW1 3992   5.527   9.827   2.632 -1.2798  1.3047  2.1907
33018SOL    HW2 3993   5.673   9.854   2.664 -0.2926 -0.3882 -0.4784
33019SOL     OW 3994   5.386   7.138   6.838  0.0127  0.7933  0.5036
33019SOL    HW1 3995   5.355   7.051   6.814 -0.7233  1.3508 -0.6987
33019SOL    HW2 3996   5.410   7.178   6.754 -0.8415  2.1768  0.8910
33020SOL     OW 3997   2.604   8.926  10.154  0.5081  0.6460  0.3657
33020SOL    HW1 3998   2.592   8.973  10.236  1.7660 -1.3006  1.7440
33020SOL    HW2 3999   2.548   8.849  10.162  0.3804  0.5969 -0.7674
33021SOL     OW 4000   4.592   6.033   2.961  0.4432  0.2080 -0.3557
33021SOL    HW1 4001   4.565   6.122   2.984  0.2360  0.2739 -0.8328
33021SOL    HW2 4002   4.623   6.040   2.871  0.3711 -0.2125 -0.4162
33022SOL     OW 4003  11.244   4.513   6.959 -0.2582 -0.2808  0.5180
33022SOL    HW1 4004  11.282   4.489   7.044  0.2356 -0.0538  0.3624
33022SOL    HW2 4005  11.313   4.494   6.896 -0.0413  1.0545  0.3339
33023SOL     OW 4006  11.127   2.441   6.978  1.2113  0.1539  0.5804
33023SOL    HW1 4007  11.156   2.493   7.053 -0.8809  0.7683  1.0527
33023SOL    HW2 4008  11.072   2.501   6.927  0.4933 -0.9853 -0.0278
33024SOL     OW 4009   7.626   7.175   6.845 -0.0263 -0.4302 -0.0701
33024SOL    HW1 4010   7.669   7.197   6.763 -0.4119  2.8043  0.4905
33024SOL    HW2 4011   7.535   7.158   6.821  0.4350 -2.4424 -0.6088
33025SOL     OW 4012   4.496   3.833   2.201 -0.4703  0.1504 -0.1075
33025SOL    HW1 4013   4.486   3.738   2.196 -0.4535  0.1149  0.4783
33025SOL    HW2 4014   4.578   3.846   2.248 -0.1827  0.4562 -0.6844
33026SOL     OW 4015   9.689   3.120  10.907  0.2087  0.1107  0.6572
33026SOL    HW1 4016   9.630   3.172  10.851  0.0982  1.1029  1.6641
33026SOL    HW2 4017   9.767   3.107  10.854 -1.2149 -2.0754 -1.1006
33027SOL     OW 4018   6.669   0.132   3.059 -0.2348 -0.4440 -0.0857
33027SOL    HW1 4019   6.636   0.083   2.983 -1.3074  3.1234 -2.1963
33027SOL    HW2 4020   6.747   0.176   3.027 -0.5445  0.9173  0.9480
33028SOL     OW 4021   4.321   4.361   2.602 -0.0029  0.4618 -0.1447
33028SOL    HW1 4022   4.365   4.413   2.670  0.3507 -0.2257  0.1680
33028SOL    HW2 4023   4.263   4.302   2.651 -1.9915  1.9593 -0.5876
33029SOL     OW 4024   1.649   5.362   1.745 -0.1706 -0.7870  0.1144
33029SOL    HW1 4025   1.583   5.429   1.764  1.3139  0.3214  1.5488
33029SOL    HW2 4026   1.723   5.410   1.708  1.0304 -1.5695  1.4216
33030SOL     OW 4027   8.210   4.297  11.434 -0.1954 -0.1533 -0.1380
33030SOL    HW1 4028   8.184   4.226  11.375 -2.4494  1.4627 -1.2401
33030SOL    HW2 4029   8.170   4.275  11.518  0.8485 -1.1541  0.1280
33031SOL     OW 4030   9.060   7.744   5.879 -0.3268  0.4419 -0.0152
33031SOL    HW1 4031   9.100   7.754   5.965 -2.4901 -0.9277  1.2368
33031SOL    HW2 4032   9.005   7.666   5.886 -2.7184  1.8164 -1.7401
33032SOL     OW 4033   6.039   6.385   1.304  0.3603  0.2874  0.1942
33032SOL    HW1 4034   5.962   6.364   1.357  0.0020 -0.1792 -0.4850
33032SOL    HW2 4035   6.011   6.457   1.248 -0.2792 -1.2077 -1.4979
33033SOL     OW 4036   6.832   3.823   4.575  0.1731  0.1174 -0.3483
33033SOL    HW1 4037   6.802   3.737   4.606 -0.6707  0.4635 -0.1749
33033SOL    HW2 4038   6.893   3.853   4.643 -1.2411  0.6261  0.7647
33034SOL     OW 4039  11.433   9.489   9.470 -0.4087  0.2803  0.3499
33034SOL    HW1 4040  11.492   9.428   9.426 -0.2718  1.0518 -0.5638
33034SOL    HW2 4041  11.439   9.466   9.562 -0.1662 -0.9162  0.0452
33035SOL     OW 4042   2.652   1.942   0.162  0.2661 -0.2772  0.1070
33035SOL    HW1 4043   2.680   1.882   0.232 -2.8554  0.7770  2.4350
33035SOL    HW2 4044   2.685   2.028   0.189 -1.7432  0.2974  0.8642
33036SOL     OW 4045   4.860   6.396  11.574  0.1764  0.1484  0.5025
33036SOL    HW1 4046   4.870   6.359  11.662 -0.2638  1.6162  1.2055
33036SOL    HW2 4047   4.765   6.401  11.561  0.1988  1.5639  0.6963
33037SOL     OW 4048   3.988   0.638   0.234  0.4137 -0.9098 -0.0820
33037SOL    HW1 4049   4.038   0.648   0.153  0.9778 -1.9079  0.1291
33037SOL    HW2 4050   3.983   0.543   0.248  1.3572 -0.7363  1.6775
33038SOL     OW 4051   8.705   8.200   4.041  0.7282  0.4697  0.5121
33038SOL    HW1 4052   8.785   8.159   4.008 -1.1662 -3.2918  0.0110
33038SOL    HW2 4053   8.650   8.126   4.069 -2.5873  2.8160  0.7865
33039SOL     OW 4054   0.227  10.567   3.373 -0.2202  0.6361 -0.2909
33039SOL    HW1 4055   0.149  10.528   3.333  0.9260  0.6608 -2.8075
33039SOL    HW2 4056   0.206  10.577   3.465 -1.8235 -2.8001 -0.1577
33040SOL     OW 4057  11.630   2.395   0.219  0.0218 -0.2671 -0.2048
33040SOL    HW1 4058  11.607   2.457   0.150  0.0475 -2.0690 -1.8950
33040SOL    HW2 4059  11.559   2.331   0.219  0.6591 -0.9920  0.5838
33041SOL     OW 4060   7.439   1.621   8.179 -0.2438 -0.9784  0.3884
33041SOL    HW1 4061   7.417   1.606   8.087 -1.5908 -0.7235  0.6594
33041SOL    HW2 4062   7.441   1.716   8.189  1.1850 -0.9716  0.3505
33042SOL     OW 4063  10.505   5.558   1.989  0.5447 -0.0633  0.2628
33042SOL    HW1 4064  10.469   5.625   1.931 -1.3462 -0.3416  1.0190
33042SOL    HW2 4065  10.455   5.567   2.070  3.6871  0.8942  2.2806
33043SOL     OW 4066   5.422   1.964   2.362  0.0616 -0.4236  0.2791
33043SOL    HW1 4067   5.412   1.958   2.457  0.9324  0.7850  0.4732
33043SOL    HW2 4068   5.492   2.028   2.350 -0.4425 -0.1276 -1.1957
33044SOL     OW 4069   6.934   3.881   9.334 -0.0573  0.4312 -0.3110
33044SOL    HW1 4070   6.947   3.858   9.426 -0.6995  0.9107 -0.0977
33044SOL    HW2 4071   6.844   3.855   9.315  0.5995 -1.2909 -1.2998
33045SOL     OW 4072   2.050   0.190   7.800  0.3389 -0.6648 -0.0547
33045SOL    HW1 4073   1.954   0.190   7.796  0.2791 -1.7859  0.7609
33045SOL    HW2 4074   2.072   0.265   7.856 -0.0558 -0.4168 -0.2286
33046SOL     OW 4075  10.205   0.414   1.905 -0.0617 -0.4091  0.1350
33046SOL    HW1 4076  10.232   0.416   1.997 -0.7359 -1.0847  0.3546
33046SOL    HW2 4077  10.239   0.331   1.872 -1.2951 -0.9721  0.2431
33047SOL     OW 4078   9.247   8.413   5.819  0.2437 -0.2880  0.1218
33047SOL    HW1 4079   9.165   8.427   5.865  0.4913 -0.5698  0.6694
33047SOL    HW2 4080   9.308   8.385   5.888  1.0427  0.8181 -0.1070
33048SOL     OW 4081   8.739   2.697  10.803 -0.9183  0.1432  0.3758
33048SOL    HW1 4082   8.653   2.682  10.843 -1.7786 -1.0100 -1.7501
33048SOL    HW2 4083   8.726   2.774  10.747 -1.3472 -1.4682 -1.8629
33049SOL     OW 4084   4.420   4.559  11.660  0.1062  0.0935 -0.1536
33049SOL    HW1 4085   4.457   4.507  11.589  1.1328  0.3173  0.1967
33049SOL    HW2 4086   4.453   4.518  11.740  0.2029  0.7358  0.1496
33050SOL     OW 4087   5.907   7.242   7.741  0.1303 -0.6194  0.1776
33050SOL    HW1 4088   5.853   7.215   7.666 -0.0286  1.1062 -0.3725
33050SOL    HW2 4089   5.989   7.272   7.701 -0.3104  1.2172  0.5876
33051SOL     OW 4090   5.943   1.947   3.761  0.3885 -0.1204  1.0244
33051SOL    HW1 4091   5.954   1.942   3.856 -0.3003 -0.2494  1.0986
33051SOL    HW2 4092   5.874   2.011   3.747 -0.7013 -1.3246  0.6971
33052SOL     OW 4093   4.760   0.408   7.721 -0.0809 -0.6973 -0.2492
33052SOL    HW1 4094   4.785   0.489   7.765  0.7419 -0.7751 -0.5738
33052SOL    HW2 4095   4.759   0.430   7.628 -0.2136 -0.9724 -0.3138
33053SOL     OW 4096   8.905   1.498   1.740  0.4075  0.0360 -0.5590
33053SOL    HW1 4097   8.888   1.414   1.696  1.4073  1.1618 -3.3042
33053SOL    HW2 4098   8.849   1.496   1.817  0.8422 -3.4009 -0.1609
33054SOL     OW 4099   7.696   9.877  11.590 -0.0116 -0.0739 -0.2038
33054SOL    HW1 4100   7.662   9.955  11.546  0.3831  0.0019 -0.3746
33054SOL    HW2 4101   7.668   9.887  11.681 -0.1860  0.1352 -0.2781
33055SOL     OW 4102   1.489   8.134   0.856 -0.2071 -0.6563 -0.1220
33055SOL    HW1 4103   1.518   8.133   0.947 -2.5774 -0.2644  0.7344
33055SOL    HW2 4104   1.539   8.205   0.816  0.1950 -0.1889  1.1493
33056SOL     OW 4105   7.499   1.860   0.730  0.4429 -0.5157  0.0696
33056SOL    HW1 4106   7.557   1.887   0.659  0.4376 -1.6004 -0.3658
33056SOL    HW2 4107   7.417   1.838   0.686  0.5325 -1.4768  0.3778
33057SOL     OW 4108   2.282   2.009   3.322 -0.3421  0.5400 -0.5707
33057SOL    HW1 4109   2.227   2.073   3.276 -0.3606  0.8779 -0.0887
33057SOL    HW2 4110   2.223   1.934   3.338  0.6059 -1.3166 -4.5019
33058SOL     OW 4111   8.325   6.662  11.614  0.5763 -0.5502  0.7608
33058SOL    HW1 4112   8.317   6.736  11.675 -0.2359 -0.8456  1.0320
33058SOL    HW2 4113   8.414   6.630  11.628  1.4450  1.2298 -0.3845
33059SOL     OW 4114  11.240  10.036   6.059  0.4567 -0.9650  0.1333
33059SOL    HW1 4115  11.318  10.029   6.114  0.2521 -1.3285  0.3764
33059SOL    HW2 4116  11.271  10.013   5.971  0.4911 -1.7738  0.3441
33060SOL     OW 4117   3.458   8.507  11.549 -0.1339  0.2469 -0.2910
33060SOL    HW1 4118   3.515   8.457  11.491  0.3067 -0.3133  0.5980
33060SOL    HW2 4119   3.412   8.441  11.601 -1.5581  0.6877 -0.9342
33061SOL     OW 4120   9.394   8.562  10.178  0.0711  0.6515 -0.2448
33061SOL    HW1 4121   9.438   8.528  10.255 -0.2325 -0.3634 -0.5148
33061SOL    HW2 4122   9.301   8.564  10.202  0.0354  0.8598 -0.3946
33062SOL     OW 4123   2.283   6.110   0.389  0.0485  0.3874 -0.2328
33062SOL    HW1 4124   2.225   6.126   0.463  0.0512 -0.0916 -0.1254
33062SOL    HW2 4125   2.357   6.168   0.404 -0.5535  1.2589 -0.5547
33063SOL     OW 4126   6.398   3.949   7.778 -0.1143 -0.5013  0.1648
33063SOL    HW1 4127   6.363   3.956   7.866 -0.0482 -1.0059  0.2322
33063SOL    HW2 4128   6.438   3.862   7.774  0.3698 -0.2729 -0.1832
33064SOL     OW 4129   5.557   2.154   6.740 -0.4944 -0.0624  0.2283
33064SOL    HW1 4130   5.651   2.167   6.755 -0.3995 -0.9387  0.4966
33064SOL    HW2 4131   5.533   2.085   6.803 -0.7563 -1.6968 -1.5663
33065SOL     OW 4132   9.125   1.185   5.937  0.4356  0.0659 -0.5244
33065SOL    HW1 4133   9.197   1.228   5.983  2.1924  0.0540 -3.0976
33065SOL    HW2 4134   9.167   1.120   5.881 -1.5288  0.4321 -2.5601
33066SOL     OW 4135   7.246   4.601   9.455  0.7046 -0.7807  0.0566
33066SOL    HW1 4136   7.178   4.639   9.511  1.3697 -0.7552  0.8594
33066SOL    HW2 4137   7.199   4.576   9.375 -0.6378 -2.4284  1.2708
33067SOL     OW 4138   0.147   4.392   0.139 -0.3827  0.3219  0.3089
33067SOL    HW1 4139   0.134   4.321   0.076 -0.0191 -1.0439  1.7053
33067SOL    HW2 4140   0.242   4.406   0.139 -0.4016  0.4507  0.4130
33068SOL     OW 4141  10.836   4.060   8.686  0.1098  0.3867 -0.0153
33068SOL    HW1 4142  10.804   3.993   8.746  0.0872  0.7538  0.3897
33068SOL    HW2 4143  10.924   4.081   8.718 -1.0081  2.7543  1.7858
33069SOL     OW 4144   0.919   9.956   6.746  0.1889  0.6679 -0.4602
33069SOL    HW1 4145   1.014   9.964   6.750  0.6196 -1.7156 -2.8051
33069SOL    HW2 4146   0.889   9.977   6.834  2.9930  0.2637  0.6825
33070SOL     OW 4147   9.243   6.489   5.893  0.1684  0.0186 -0.0890
33070SOL    HW1 4148   9.194   6.491   5.810  0.8675 -0.5530 -0.5235
33070SOL    HW2 4149   9.328   6.453   5.869  0.1381 -0.8120  1.0167
33071SOL     OW 4150   3.644   0.905   1.377  0.0636  0.0692  0.4023
33071SOL    HW1 4151   3.627   0.964   1.304  1.0129 -3.4591 -2.9712
33071SOL    HW2 4152   3.558   0.890   1.416 -1.3335 -1.0843 -2.7661
33072SOL     OW 4153   4.795   9.589  11.348 -0.4366 -0.0764 -0.2632
33072SOL    HW1 4154   4.843   9.664  11.313 -1.1732  0.4546 -0.1619
33072SOL    HW2 4155   4.815   9.590  11.442 -1.4091  0.7431 -0.0477
33073SOL     OW 4156   5.495  11.553   5.220  0.2143  0.3096 -0.4423
33073SOL    HW1 4157   5.401  11.568   5.211  0.0483  1.4597  2.2095
33073SOL    HW2 4158   5.535  11.627   5.174 -0.3546  1.8820  1.4046
33074SOL     OW 4159   2.233   6.475  10.453  0.5373  0.0628 -0.1594
33074SOL    HW1 4160   2.254   6.384  10.430 -0.6521 -0.5647  1.0982
33074SOL    HW2 4161   2.149   6.492  10.410 -0.3155 -0.1876  1.3454
33075SOL     OW 4162  10.104  10.015   9.405  0.2919 -0.3645 -0.2137
33075SOL    HW1 4163  10.103  10.109   9.387  2.8336 -0.2119  0.1629
33075SOL    HW2 4164  10.029  10.001   9.463  0.6340  1.6590  0.8065
33076SOL     OW 4165   5.551  10.494   4.915  0.0327 -0.0842  0.1582
33076SOL    HW1 4166   5.486  10.423   4.917  0.5375 -0.5681 -0.2532
33076SOL    HW2 4167   5.620  10.464   4.974 -1.0686  1.4071  2.3477
33077SOL     OW 4168   7.049   4.798   7.291  0.3290 -0.3484  0.5885
33077SOL    HW1 4169   7.111   4.726   7.297  0.4367 -0.2118  1.2068
33077SOL    HW2 4170   7.084   4.865   7.350  1.3939  1.1081 -1.5909
33078SOL     OW 4171   6.020   1.283   3.173  0.2524  0.3700  0.2930
33078SOL    HW1 4172   5.939   1.236   3.155 -0.2270  1.6514 -1.1927
33078SOL    HW2 4173   6.006   1.326   3.257 -0.6138  0.5278  0.0768
33079SOL     OW 4174   2.192   1.127   2.580 -0.3223  0.6351  0.0089
33079SOL    HW1 4175   2.253   1.168   2.519 -0.2407 -0.2143 -0.5043
33079SOL    HW2 4176   2.247   1.067   2.631 -0.9406 -1.4727 -1.6507
33080SOL     OW 4177  11.095  10.795   6.636 -0.4428 -0.1983 -0.5217
33080SOL    HW1 4178  11.153  10.737   6.587 -2.1026 -3.4835  1.0283
33080SOL    HW2 4179  11.152  10.845   6.693  1.0243 -2.9486  0.6121
33081SOL     OW 4180   7.428   1.111   5.437  0.4797 -0.1808 -0.3424
33081SOL    HW1 4181   7.460   1.150   5.518  1.3886 -0.0741 -0.7434
33081SOL    HW2 4182   7.493   1.136   5.371  0.0713 -0.7795 -0.9837
33082SOL     OW 4183   9.725   9.040  10.063 -0.0962 -0.1703 -0.0804
33082SOL    HW1 4184   9.753   8.949  10.067 -2.2539 -0.8664  0.6699
33082SOL    HW2 4185   9.715   9.059   9.970 -1.1397 -1.2269 -0.2058
33083SOL     OW 4186   7.577   2.361  11.306  0.2443 -0.4170  0.4501
33083SOL    HW1 4187   7.588   2.378  11.213  1.3841 -0.1340  0.6160
33083SOL    HW2 4188   7.643   2.416  11.349 -0.6620 -0.0874  1.4686
33084SOL     OW 4189   8.341   6.088   5.375 -0.3094  0.0155  0.2332
33084SOL    HW1 4190   8.396   6.158   5.341 -1.7087  1.1007  0.0850
33084SOL    HW2 4191   8.346   6.098   5.470  1.8541 -1.6218  0.3512
33085SOL     OW 4192  10.111   2.931   5.003  0.4174  0.0842  0.3248
33085SOL    HW1 4193  10.100   3.024   4.985 -1.9130 -0.5202 -1.9204
33085SOL    HW2 4194  10.023   2.894   4.992  1.3505 -2.4583  0.7670
33086SOL     OW 4195   9.369   6.773   4.280  0.1493  0.6151 -0.0308
33086SOL    HW1 4196   9.403   6.739   4.362 -0.7239 -0.2605 -0.0043
33086SOL    HW2 4197   9.379   6.701   4.217  0.4365  1.1310 -0.5901
33087SOL     OW 4198   4.957   5.667   4.170 -0.6629 -0.7753  0.1626
33087SOL    HW1 4199   4.862   5.665   4.181 -0.7565 -1.0125 -0.5811
33087SOL    HW2 4200   4.988   5.587   4.213 -0.8731 -1.0235 -0.1408
33088SOL     OW 4201   0.138  10.785   6.501  0.5682 -0.1857 -0.2074
33088SOL    HW1 4202   0.132  10.751   6.412  0.1367 -0.0763 -0.2218
33088SOL    HW2 4203   0.161  10.709   6.555 -0.6903 -0.5668 -0.1975
33089SOL     OW 4204   4.876   8.192   2.570 -0.4415 -0.2400  0.7307
33089SOL    HW1 4205   4.931   8.259   2.611  0.7287 -1.2628  0.8958
33089SOL    HW2 4206   4.894   8.201   2.476  0.4045 -0.8764  0.8174
33090SOL     OW 4207   2.964   4.402  10.943  0.6417 -0.0072  0.2072
33090SOL    HW1 4208   2.940   4.314  10.912  1.5887 -0.7470  1.4757
33090SOL    HW2 4209   3.059   4.398  10.953  0.6150  0.9503  0.9225
33091SOL     OW 4210   7.512   1.335   2.172  0.3070  0.1276 -0.1936
33091SOL    HW1 4211   7.550   1.373   2.094  0.0957 -1.4449 -1.1055
33091SOL    HW2 4212   7.435   1.287   2.141  0.4389 -0.8518  0.9090
33092SOL     OW 4213   8.760   8.223   4.489 -0.2652  0.0833 -0.2568
33092SOL    HW1 4214   8.705   8.268   4.554 -0.8497 -0.5823 -0.2777
33092SOL    HW2 4215   8.750   8.276   4.409 -2.1711 -0.8751 -0.7129
33093SOL     OW 4216   3.555  10.697   7.667 -0.1087 -0.0214 -0.0482
33093SOL    HW1 4217   3.563  10.607   7.637  1.1046  1.1235 -3.5900
33093SOL    HW2 4218   3.625  10.744   7.623 -1.4322  2.9063  0.7217
33094SOL     OW 4219   8.303   9.862   0.112  0.3290 -0.8986 -0.3874
33094SOL    HW1 4220   8.262   9.793   0.163  1.2663 -1.4643 -0.3706
33094SOL    HW2 4221   8.390   9.872   0.151 -0.6523  2.1978  1.4091
33095SOL     OW 4222  10.183   0.459  10.123  0.0866 -0.2898 -0.9157
33095SOL    HW1 4223  10.104   0.406  10.113  0.0254 -0.7918  1.4893
33095SOL    HW2 4224  10.151   0.550  10.119 -0.0830 -0.4134 -3.1689
33096SOL     OW 4225   4.267  11.331   9.323 -0.0676  0.3270 -0.3455
33096SOL    HW1 4226   4.325  11.315   9.249 -1.3355 -0.8048 -1.1533
33096SOL    HW2 4227   4.304  11.279   9.394  1.6415  2.0900  0.1231
33097SOL     OW 4228   9.493   8.424   7.141  0.2295 -0.0095  0.1558
33097SOL    HW1 4229   9.474   8.505   7.093  1.5989  0.7308  0.7978
33097SOL    HW2 4230   9.521   8.454   7.228  1.0290 -1.1580  0.3113
33098SOL     OW 4231   3.900   7.481   7.115  0.0843  0.0100 -0.1255
33098SOL    HW1 4232   3.833   7.520   7.058 -0.2538 -0.7141 -0.2261
33098SOL    HW2 4233   3.858   7.473   7.200  1.1856  2.8884  0.8107
33099SOL     OW 4234   1.456   9.360   2.487 -0.0597  0.0973 -0.0836
33099SOL    HW1 4235   1.404   9.437   2.513  0.7117  0.3876  0.6619
33099SOL    HW2 4236   1.476   9.316   2.570 -1.1654 -1.3655 -0.5722
33100SOL     OW 4237  11.285   4.351   5.027  0.4026 -0.2292 -0.1837
33100SOL    HW1 4238  11.259   4.441   5.043  1.4069  0.5286 -2.4626
33100SOL    HW2 4239  11.233   4.300   5.089 -0.2511  1.8758  1.1032
33101SOL     OW 4240  10.017   5.751  10.849 -0.2700  0.4675 -0.2009
33101SOL    HW1 4241   9.987   5.662  10.865  3.5705 -1.7274 -3.1748
33101SOL    HW2 4242   9.978   5.775  10.765  1.4221 -0.0534 -1.2035
33102SOL     OW 4243   4.020   1.263   2.204  0.1991 -0.0264  0.0575
33102SOL    HW1 4244   4.091   1.319   2.173 -0.4898  0.8873  0.1005
33102SOL    HW2 4245   4.065   1.189   2.246  1.1252 -0.2020 -1.1717
33103SOL     OW 4246   0.662   5.538   9.524  0.4551  0.3167  0.2393
33103SOL    HW1 4247   0.689   5.471   9.461 -1.6730 -2.0469  1.6631
33103SOL    HW2 4248   0.589   5.583   9.482 -0.8819 -1.1768  0.8686
33104SOL     OW 4249   5.673  10.188   1.117  0.1265  0.4728 -0.3904
33104SOL    HW1 4250   5.627  10.106   1.100  2.6291 -0.7332 -1.9395
33104SOL    HW2 4251   5.733  10.168   1.189  2.0199  0.3041 -1.9223
33105SOL     OW 4252   2.184   3.829   5.140 -0.2089 -0.1373  0.0072
33105SOL    HW1 4253   2.188   3.734   5.128 -0.1672 -0.0971 -0.3107
33105SOL    HW2 4254   2.233   3.864   5.066 -1.2471  0.1741 -0.5522
33106SOL     OW 4255   6.738   1.666   3.225  0.3812  0.7020  0.0272
33106SOL    HW1 4256   6.810   1.728   3.213  1.5628 -0.6917 -0.5855
33106SOL    HW2 4257   6.660   1.712   3.195  1.2224  1.8693 -0.4397
33107SOL     OW 4258   6.860   0.181   3.742 -0.3867 -0.5431  0.0110
33107SOL    HW1 4259   6.794   0.232   3.695 -0.4224  0.0817  0.7059
33107SOL    HW2 4260   6.809   0.130   3.805 -0.2613 -0.5759  0.0847
33108SOL     OW 4261   4.352   7.126   4.283 -0.2813  0.1886  0.7380
33108SOL    HW1 4262   4.436   7.098   4.317  0.7584  1.9896 -0.1829
33108SOL    HW2 4263   4.360   7.117   4.188 -0.6156  1.6044  0.5472
33109SOL     OW 4264   9.340   4.142   2.643  0.0281  0.6632 -0.2334
33109SOL    HW1 4265   9.320   4.064   2.592  0.1268  0.4202  0.0914
33109SOL    HW2 4266   9.287   4.211   2.604 -1.4670  0.0425  0.6126
33110SOL     OW 4267   9.449   4.945   2.788 -0.3068  0.4843  0.0654
33110SOL    HW1 4268   9.361   4.910   2.776 -0.5172  1.2815 -0.8794
33110SOL    HW2 4269   9.452   4.970   2.881 -0.9614  0.1521  0.1826
33111SOL     OW 4270   7.230   1.200   9.323 -0.3687  0.0034  0.1836
33111SOL    HW1 4271   7.290   1.127   9.341 -0.4636  0.3610  2.0770
33111SOL    HW2 4272   7.145   1.168   9.351 -0.3954  0.8675  1.1155
33112SOL     OW 4273   3.237   8.826  10.282 -0.0664  0.1760 -0.3223
33112SOL    HW1 4274   3.261   8.902  10.227 -0.3031 -0.3783 -1.2128
33112SOL    HW2 4275   3.154   8.852  10.322  0.0141  0.5199 -0.3679
33113SOL     OW 4276   6.403   7.400   4.684 -0.1274  0.6162  0.5682
33113SOL    HW1 4277   6.498   7.392   4.672 -0.2637  1.0510 -0.9959
33113SOL    HW2 4278   6.365   7.346   4.615 -1.0135  1.2957  0.4980
33114SOL     OW 4279   4.812   8.922   0.703  0.9087  0.0350  0.3465
33114SOL    HW1 4280   4.802   9.016   0.719  4.7461  0.6351  0.0715
33114SOL    HW2 4281   4.895   8.914   0.657 -0.8621 -3.2906 -2.7564
33115SOL     OW 4282  10.747   6.164   2.210  0.2742  0.3246  0.3132
33115SOL    HW1 4283  10.786   6.078   2.228 -0.9497 -0.0831  1.1248
33115SOL    HW2 4284  10.755   6.174   2.116 -0.5737 -1.2111  0.0350
33116SOL     OW 4285  11.491   0.643  10.893  0.5680 -0.4504  0.2723
33116SOL    HW1 4286  11.540   0.561  10.886 -0.5841 -1.0463 -1.5644
33116SOL    HW2 4287  11.468   0.665  10.802 -0.7837  0.8787  0.8939
33117SOL     OW 4288   2.520   5.215   7.164  0.0356  0.0300 -0.8091
33117SOL    HW1 4289   2.494   5.246   7.077  1.0971 -0.5122 -1.3327
33117SOL    HW2 4290   2.610   5.246   7.175 -0.1760  0.3219  0.2149
33118SOL     OW 4291   0.437   8.327   4.324  1.0693  0.6164  0.1702
33118SOL    HW1 4292   0.469   8.324   4.234 -1.9170  3.1211 -1.1776
33118SOL    HW2 4293   0.450   8.239   4.358  0.8365 -0.8707 -3.2916
33119SOL     OW 4294   1.088   1.591   4.033 -0.4388 -0.5128 -0.1972
33119SOL    HW1 4295   0.996   1.568   4.047 -0.0344 -0.7134  2.5624
33119SOL    HW2 4296   1.108   1.653   4.103  1.1118  0.8712 -1.7798
33120SOL     OW 4297   5.417   6.398   9.734 -0.0799  0.1285  0.5489
33120SOL    HW1 4298   5.460   6.462   9.679  0.4715 -0.4067  0.3532
33120SOL    HW2 4299   5.464   6.316   9.718 -2.0356 -0.8184 -0.7502
33121SOL     OW 4300  10.167   3.886   7.389 -0.3793  0.3670  0.4032
33121SOL    HW1 4301  10.150   3.858   7.479 -1.1829 -1.3975 -0.2566
33121SOL    HW2 4302  10.082   3.918   7.357 -1.1679 -2.7068 -0.9284
33122SOL     OW 4303   5.621   6.617   8.572  0.0035  0.8198 -0.4618
33122SOL    HW1 4304   5.592   6.587   8.659 -0.4328 -0.4888 -1.0369
33122SOL    HW2 4305   5.565   6.692   8.553 -2.2081 -0.8518 -0.9775
33123SOL     OW 4306   8.287   6.192  11.477  0.0036  0.2484 -0.1307
33123SOL    HW1 4307   8.380   6.187  11.457 -0.3035  2.4348 -2.7351
33123SOL    HW2 4308   8.284   6.224  11.567  1.7890  0.5718 -0.1452
33124SOL     OW 4309   8.038   9.864   5.239  0.0594  0.1089 -0.6864
33124SOL    HW1 4310   8.021   9.832   5.150  2.1764 -1.1107 -0.7220
33124SOL    HW2 4311   7.957   9.846   5.287 -0.5810 -0.6290 -1.9910
33125SOL     OW 4312  11.098   1.749   1.307  0.6595  0.2174 -0.0854
33125SOL    HW1 4313  11.034   1.814   1.279 -1.2148 -2.3713 -2.4368
33125SOL    HW2 4314  11.180   1.778   1.267  0.1549  1.7359 -0.0645
33126SOL     OW 4315   5.900  11.446   8.139 -0.3342 -0.1435 -0.4067
33126SOL    HW1 4316   5.952  11.500   8.080 -1.4269  3.2486  1.4573
33126SOL    HW2 4317   5.962  11.382   8.175  1.9627  2.0830 -0.1842
33127SOL     OW 4318   4.735   0.686   5.590  0.3688  0.3719  0.1601
33127SOL    HW1 4319   4.769   0.772   5.566  0.3540  0.4119  0.2825
33127SOL    HW2 4320   4.660   0.673   5.532  0.8151  0.1223 -0.3715
33128SOL     OW 4321   8.204   0.662   8.378  0.1394 -0.7369  0.1171
33128SOL    HW1 4322   8.127   0.716   8.363  1.0460  0.3025 -1.0067
33128SOL    HW2 4323   8.187   0.582   8.328  0.4492  0.1508 -1.4692
33129SOL     OW 4324   2.795   6.448   8.257  0.4116  0.5680  0.1679
33129SOL    HW1 4325   2.785   6.450   8.162 -0.0427 -0.5098  0.1825
33129SOL    HW2 4326   2.721   6.395   8.288 -0.5076  2.3733  1.2801
33130SOL     OW 4327   7.112   8.302   7.371  0.3553  0.0257 -0.0777
33130SOL    HW1 4328   7.116   8.382   7.424  0.9710 -0.6029  0.8415
33130SOL    HW2 4329   7.047   8.247   7.416  0.1116 -0.0940 -0.5713
33131SOL     OW 4330   5.451   8.109   1.211 -0.3944  0.0473  0.2326
33131SOL    HW1 4331   5.498   8.052   1.151  0.1844  1.4587 -0.7052
33131SOL    HW2 4332   5.381   8.147   1.158 -1.6038 -0.7633  1.1823
33132SOL     OW 4333  10.965   8.700  11.027  0.0149 -0.3727 -0.5121
33132SOL    HW1 4334  10.897   8.635  11.042 -0.4509  0.2048 -0.0794
33132SOL    HW2 4335  10.918   8.777  10.995  0.4646  0.0366 -0.2002
33133SOL     OW 4336   5.569   4.202   5.774 -1.0011  0.0278 -0.8220
33133SOL    HW1 4337   5.526   4.268   5.828 -1.9314 -0.4158 -1.0150
33133SOL    HW2 4338   5.528   4.119   5.799  0.0709 -0.4724 -0.6643
33134SOL     OW 4339   8.486  10.150   6.765  0.6822 -0.0697 -0.0918
33134SOL    HW1 4340   8.432  10.098   6.705 -0.0002  2.0096 -1.4033
33134SOL    HW2 4341   8.425  10.177   6.834  0.9200 -0.6109  0.3343
33135SOL     OW 4342   3.203   4.464   8.237 -0.8995 -0.1349 -0.0362
33135SOL    HW1 4343   3.190   4.379   8.279  3.0814 -0.8580  0.0940
33135SOL    HW2 4344   3.214   4.525   8.310 -1.2226  0.0028 -0.1028
33136SOL     OW 4345   6.456   6.938   7.933 -0.3721  0.0610  0.1834
33136SOL    HW1 4346   6.517   7.006   7.904 -0.0517 -0.8423 -1.3774
33136SOL    HW2 4347   6.510   6.859   7.938 -1.1603 -0.4961 -0.0274
33137SOL     OW 4348   4.309   0.504   2.180  0.0578  0.9518 -1.4980
33137SOL    HW1 4349   4.375   0.472   2.242 -1.3102  0.6157 -0.1590
33137SOL    HW2 4350   4.347   0.486   2.094  1.2531 -0.2032 -0.7764
33138SOL     OW 4351   3.670   2.507   0.623 -0.8524 -0.0034  0.0662
33138SOL    HW1 4352   3.764   2.522   0.636 -0.8050 -1.0030  0.9681
33138SOL    HW2 4353   3.664   2.417   0.592 -1.4771  0.2749 -0.6569
33139SOL     OW 4354   8.886   4.758   5.709  0.3043  0.0053  0.2030
33139SOL    HW1 4355   8.833   4.734   5.785  0.5511 -0.7920  0.1290
33139SOL    HW2 4356   8.965   4.797   5.747 -0.0644  0.6533  0.3238
33140SOL     OW 4357   6.809   8.872  11.063  0.2135 -0.0138  0.1510
33140SOL    HW1 4358   6.868   8.846  10.992  0.5037 -0.0120  0.3850
33140SOL    HW2 4359   6.856   8.942  11.108 -1.0181  1.6861 -1.1073
33141SOL     OW 4360   1.885   2.945   0.084  0.0428 -0.3084 -0.6835
33141SOL    HW1 4361   1.953   2.924   0.019  0.0644 -0.3999 -0.6325
33141SOL    HW2 4362   1.859   2.859   0.119 -0.8911 -0.3794 -1.5005
33142SOL     OW 4363   2.672   3.702   0.998  0.0308 -0.0591  0.2263
33142SOL    HW1 4364   2.686   3.727   1.089  0.9590 -1.2467  0.4407
33142SOL    HW2 4365   2.744   3.743   0.950 -0.4120  0.5013  0.0381
33143SOL     OW 4366   2.411  11.473   8.248 -0.1838 -0.0457 -0.1476
33143SOL    HW1 4367   2.475  11.406   8.227 -2.2629 -2.9699  1.9434
33143SOL    HW2 4368   2.367  11.440   8.327 -2.8049  2.7845 -0.2231
33144SOL     OW 4369   8.865   9.707   1.775  0.6178  0.4638 -0.3991
33144SOL    HW1 4370   8.780   9.710   1.819 -0.8561 -3.7627 -2.4375
33144SOL    HW2 4371   8.924   9.669   1.841  0.5430  1.6562  0.3997
33145SOL     OW 4372   3.191   8.628   0.888  0.0683 -0.2238  0.0507
33145SOL    HW1 4373   3.171   8.602   0.977  2.5782 -0.3668  0.6637
33145SOL    HW2 4374   3.171   8.551   0.835  1.5598 -1.3129  0.9846
33146SOL     OW 4375   2.407   7.557   6.016 -0.6055  0.0161  0.0796
33146SOL    HW1 4376   2.461   7.510   6.079 -0.8494 -0.8486 -0.3381
33146SOL    HW2 4377   2.456   7.637   5.997  0.6209 -0.8323 -0.4375
33147SOL     OW 4378   4.216   3.379   5.375 -0.5757  0.2289  0.1513
33147SOL    HW1 4379   4.270   3.338   5.307 -1.1411 -0.9611  0.3864
33147SOL    HW2 4380   4.278   3.422   5.433  0.0480 -0.3533 -0.0813
33148SOL     OW 4381   2.387   6.356   0.087  0.2963  0.0855 -0.4936
33148SOL    HW1 4382   2.449   6.388   0.021 -0.3555  0.5197 -0.9040
33148SOL    HW2 4383   2.412   6.400   0.168  1.0159 -0.3425 -0.4795
33149SOL     OW 4384   1.264   2.873   2.946  0.2782  0.2264  0.6721
33149SOL    HW1 4385   1.286   2.787   2.981 -1.3403 -0.2629  0.5868
33149SOL    HW2 4386   1.280   2.865   2.852  0.8364  0.2641  0.7609
33150SOL     OW 4387   2.840   2.425   6.353  0.7526  0.3323 -0.6564
33150SOL    HW1 4388   2.914   2.439   6.412  0.7936  2.1318 -1.0887
33150SOL    HW2 4389   2.878   2.423   6.265  0.3572  0.6420 -0.8390
33151SOL     OW 4390   1.033   7.954  11.209 -0.0844 -0.3842  0.4318
33151SOL    HW1 4391   0.944   7.953  11.174  0.5484 -1.1369 -1.2771
33151SOL    HW2 4392   1.067   7.866  11.190  0.7488 -0.3905  1.8128
33152SOL     OW 4393   2.691   8.889   2.319 -0.1476 -0.4817 -0.0482
33152SOL    HW1 4394   2.623   8.821   2.312 -1.2343  0.3524  1.7048
33152SOL    HW2 4395   2.649   8.959   2.368  1.8966  0.2093  0.8008
33153SOL     OW 4396   3.641   2.510   3.577  0.2110  0.3233  0.4833
33153SOL    HW1 4397   3.725   2.540   3.540 -0.4720  0.4049 -1.0693
33153SOL    HW2 4398   3.586   2.588   3.577 -1.4860 -0.6596 -3.3033
33154SOL     OW 4399   2.687  11.361   4.621  0.5153 -0.0771  0.8697
33154SOL    HW1 4400   2.653  11.445   4.651  2.0879  0.4818  1.1891
33154SOL    HW2 4401   2.773  11.382   4.585  0.8326 -1.5187  0.7482
33155SOL     OW 4402   8.239   2.704  10.016 -0.0209 -0.1292  0.1094
33155SOL    HW1 4403   8.190   2.764   9.960  1.6728 -1.0082 -2.5072
33155SOL    HW2 4404   8.307   2.759  10.055 -1.2656  0.5068  1.4963
33156SOL     OW 4405   1.094   2.946   3.626  0.0713 -0.5618  0.3377
33156SOL    HW1 4406   1.047   2.872   3.666  0.5504  0.2990  2.6817
33156SOL    HW2 4407   1.187   2.922   3.635  0.2295  0.3172  1.1559
33157SOL     OW 4408   4.362   1.098   2.936  0.5152 -0.2480  0.1423
33157SOL    HW1 4409   4.289   1.055   2.980 -0.6045  1.2354 -0.1548
33157SOL    HW2 4410   4.400   1.030   2.880 -2.5626 -0.4276 -2.0172
33158SOL     OW 4411   8.329   3.589   8.069  0.4255  0.7562  0.0531
33158SOL    HW1 4412   8.352   3.678   8.043  0.2225  1.2793  1.5581
33158SOL    HW2 4413   8.413   3.550   8.097  0.5192  0.4526 -0.6273
33159SOL     OW 4414   3.812   0.820   6.753  0.3676  0.2419 -0.2153
33159SOL    HW1 4415   3.829   0.884   6.822 -0.6694 -1.1112  1.3779
33159SOL    HW2 4416   3.726   0.844   6.718  0.5336  0.4473 -0.4866
33160SOL     OW 4417   0.886  10.850  11.153 -0.0448  0.2288  0.0653
33160SOL    HW1 4418   0.813  10.874  11.211 -0.1419 -1.8533  0.8617
33160SOL    HW2 4419   0.880  10.755  11.144  0.7790  0.3324 -2.3216
33161SOL     OW 4420   3.619  11.013   8.373  0.0989  0.4745 -0.1742
33161SOL    HW1 4421   3.564  11.084   8.339  0.2030  1.2338  1.1802
33161SOL    HW2 4422   3.561  10.937   8.373 -0.4925  0.9078 -0.2312
33162SOL     OW 4423   9.888   2.625   8.340  0.7537 -0.0609  0.0367
33162SOL    HW1 4424   9.932   2.576   8.271  2.6852  1.6712 -0.0710
33162SOL    HW2 4425   9.960   2.661   8.393 -0.6006  1.1964  1.1085
33163SOL     OW 4426  10.341   7.647   2.629  0.1117 -0.3395  0.2078
33163SOL    HW1 4427  10.279   7.695   2.574  1.3425  0.2695 -0.6695
33163SOL    HW2 4428  10.425   7.689   2.615  0.3402  0.5497  3.3783
33164SOL     OW 4429   4.933   4.008   5.418  0.3323  0.8907  0.0504
33164SOL    HW1 4430   4.997   3.938   5.407 -1.0678 -0.4225 -0.1503
33164SOL    HW2 4431   4.893   4.018   5.332 -0.5379  0.8536  0.4372
33165SOL     OW 4432   0.613  10.563  10.995  0.0667 -0.0698 -0.3630
33165SOL    HW1 4433   0.541  10.520  11.041  0.7601 -0.3481  0.4818
33165SOL    HW2 4434   0.580  10.577  10.906 -0.7480 -0.8889 -0.1999
33166SOL     OW 4435   3.843   9.144   5.697  0.0561 -0.1010 -0.9821
33166SOL    HW1 4436   3.901   9.217   5.677  0.6874 -0.0972  0.6382
33166SOL    HW2 4437   3.896   9.087   5.754 -1.1714 -0.6328 -0.3293
33167SOL     OW 4438   5.160   2.855   3.081  0.3353 -0.4314 -0.1617
33167SOL    HW1 4439   5.213   2.932   3.059 -0.7897  0.6436  0.7265
33167SOL    HW2 4440   5.184   2.834   3.171 -2.2814  1.5082  1.1156
33168SOL     OW 4441   6.269   4.600   3.846 -0.1416 -0.2678  0.0727
33168SOL    HW1 4442   6.213   4.674   3.869 -1.9755 -1.5405 -0.1473
33168SOL    HW2 4443   6.225   4.559   3.771  2.4729  0.2035 -1.8914
33169SOL     OW 4444   5.993   4.853   0.046  0.1479 -0.3994  0.5548
33169SOL    HW1 4445   6.067   4.840   0.106  1.5851 -0.5350 -1.1745
33169SOL    HW2 4446   5.991   4.773  -0.007 -0.7041 -0.0168 -0.0137
33170SOL     OW 4447   4.605  10.345  10.163 -0.0174 -0.2563 -0.5628
33170SOL    HW1 4448   4.567  10.260  10.142 -0.7410 -0.5808  1.7920
33170SOL    HW2 4449   4.551  10.408  10.116 -0.2853 -1.0053 -1.2767
33171SOL     OW 4450   2.926   5.251   6.100 -0.4012 -0.0677 -0.9293
33171SOL    HW1 4451   2.970   5.198   6.166 -0.9968 -0.6833 -1.0140
33171SOL    HW2 4452   2.991   5.317   6.074  0.1959 -0.4806 -0.5022
33172SOL     OW 4453  11.609   0.948   4.632  0.5887  0.1678  0.5022
33172SOL    HW1 4454  11.576   1.035   4.653  0.3095 -0.3059  2.2339
33172SOL    HW2 4455  11.599   0.940   4.537 -0.7998  1.4445  0.5039
33173SOL     OW 4456   6.100   8.275   2.030 -0.6599  0.5056  0.3264
33173SOL    HW1 4457   6.140   8.299   1.947 -1.8598 -0.7006 -0.6370
33173SOL    HW2 4458   6.006   8.273   2.013 -0.9432  0.3164  1.7266
33174SOL     OW 4459   5.124   9.544   5.617 -0.2290 -0.6919  0.2867
33174SOL    HW1 4460   5.171   9.466   5.644 -2.1369 -1.8328  0.4886
33174SOL    HW2 4461   5.114   9.535   5.522  0.5573 -0.0683  0.1260
33175SOL     OW 4462   1.899   0.085   3.010  0.4022  0.2172  0.1335
33175SOL    HW1 4463   1.842   0.027   2.959  0.1652  0.7128 -0.1822
33175SOL    HW2 4464   1.943   0.138   2.944  0.7040  0.3135  0.4123
33176SOL     OW 4465  11.248   5.632   6.373 -0.6749 -0.3024 -0.0643
33176SOL    HW1 4466  11.157   5.637   6.402 -0.4330  1.3334  0.5053
33176SOL    HW2 4467  11.266   5.719   6.337  0.8168 -0.4462  0.3017
33177SOL     OW 4468   5.230   2.018   6.742  0.0402  0.2953 -0.0530
33177SOL    HW1 4469   5.184   2.079   6.685 -0.3096  1.5117  1.4644
33177SOL    HW2 4470   5.176   2.013   6.821  1.3068 -0.0894  0.8321
33178SOL     OW 4471   5.032   6.519   7.670  0.0156  0.3887  0.1861
33178SOL    HW1 4472   4.950   6.470   7.664 -0.0885  0.6119 -0.3885
33178SOL    HW2 4473   5.006   6.610   7.654  0.5106  0.3296 -1.1065
33179SOL     OW 4474   3.296   7.553   4.615 -0.0865  0.3762 -0.2796
33179SOL    HW1 4475   3.229   7.500   4.571  0.2915  0.8915 -1.5234
33179SOL    HW2 4476   3.278   7.642   4.586  0.2515  0.7229  0.5444
33180SOL     OW 4477   8.757  10.902  10.831 -0.0302 -0.1384  0.3675
33180SOL    HW1 4478   8.822  10.859  10.775 -1.0249 -0.3198 -0.6840
33180SOL    HW2 4479   8.767  10.995  10.813 -0.0385 -0.1656  0.2237
33181SOL     OW 4480  10.175   4.744   1.215  0.2823  0.2246 -0.3853
33181SOL    HW1 4481  10.098   4.771   1.164 -0.3434 -0.9670 -0.1113
33181SOL    HW2 4482  10.149   4.661   1.254  2.0745 -0.6968 -1.0582
33182SOL     OW 4483  10.255   0.480  11.588  0.0494  0.3196  0.1833
33182SOL    HW1 4484  10.185   0.522  11.638  0.4984 -0.8224  1.8706
33182SOL    HW2 4485  10.233   0.387  11.590  0.8768  0.0968 -0.5048
33183SOL     OW 4486   5.233   0.226   3.687  0.3038  1.1476 -0.5222
33183SOL    HW1 4487   5.234   0.131   3.676 -0.3677  0.9935  0.6172
33183SOL    HW2 4488   5.143   0.252   3.666  0.7529  1.6842 -1.8825
33184SOL     OW 4489   8.173   5.202   2.658  0.1979  0.6916  0.3932
33184SOL    HW1 4490   8.187   5.147   2.582 -1.2328 -0.6061  1.0096
33184SOL    HW2 4491   8.156   5.289   2.622 -1.0102 -0.0044 -0.8286
33185SOL     OW 4492   2.297   2.259   5.114  0.2111 -0.2580  0.4023
33185SOL    HW1 4493   2.370   2.310   5.151  0.2211  1.4728 -1.7726
33185SOL    HW2 4494   2.221   2.288   5.163  0.6692 -0.6041  1.3563
33186SOL     OW 4495   5.342   7.028   5.211 -0.2433 -0.2553  0.2786
33186SOL    HW1 4496   5.288   7.020   5.133  1.5773  0.3160 -1.1104
33186SOL    HW2 4497   5.357   7.122   5.221 -2.9057  0.0404  3.1749
33187SOL     OW 4498  11.396   5.584   3.333 -0.1133 -0.0954  0.0229
33187SOL    HW1 4499  11.303   5.564   3.324 -0.2074  0.2409  0.2120
33187SOL    HW2 4500  11.398   5.656   3.396  0.3300 -0.6986  0.7180
33188SOL     OW 4501   6.141   5.191   2.671 -0.1015  0.2119 -0.2254
33188SOL    HW1 4502   6.071   5.234   2.719 -1.4074 -1.3924 -0.5985
33188SOL    HW2 4503   6.154   5.244   2.593 -1.4851  0.1070 -0.5454
33189SOL     OW 4504   1.060  11.544   5.381 -0.2222  0.4084 -0.4118
33189SOL    HW1 4505   1.054  11.614   5.446  0.4052 -1.4705  1.8242
33189SOL    HW2 4506   1.152  11.545   5.353  0.1186 -0.2622  0.5964
33190SOL     OW 4507  10.958  11.289  10.677  0.0963 -0.3497  0.0077
33190SOL    HW1 4508  11.021  11.251  10.738  0.4557 -0.0914 -0.2059
33190SOL    HW2 4509  10.907  11.213  10.647  1.2122 -0.7685 -0.8868
33191SOL     OW 4510   9.056   8.794   3.965 -0.3730  0.5584  0.0910
33191SOL    HW1 4511   9.130   8.733   3.961 -1.2648 -0.5320 -0.3863
33191SOL    HW2 4512   9.073   8.848   4.042  0.3040 -0.5020  0.6985
33192SOL     OW 4513   3.941   3.782   7.096 -0.0807 -0.1382 -0.1283
33192SOL    HW1 4514   3.865   3.792   7.153  0.0486  1.1382 -0.1436
33192SOL    HW2 4515   3.919   3.708   7.039  0.0596 -1.8957  1.9628
33193SOL     OW 4516   2.137   7.740   9.205 -0.1539 -0.4093  0.3937
33193SOL    HW1 4517   2.059   7.783   9.170 -1.6559 -3.6968 -0.6436
33193SOL    HW2 4518   2.196   7.734   9.131  0.5383  0.7411  0.8179
33194SOL     OW 4519  11.247   3.155  11.370  0.4298 -0.7625  0.1919
33194SOL    HW1 4520  11.288   3.200  11.297  0.0331  1.6477  1.3601
33194SOL    HW2 4521  11.154   3.155  11.350  0.2504  0.4567  0.9297
33195SOL     OW 4522   9.151   4.839   5.552  0.6622 -0.0421  0.4544
33195SOL    HW1 4523   9.071   4.815   5.506  0.1772  0.5057  1.0144
33195SOL    HW2 4524   9.122   4.885   5.630  1.4995 -0.4539  1.0258
33196SOL     OW 4525   8.545   2.535   9.017 -0.2207 -0.6682 -0.2850
33196SOL    HW1 4526   8.520   2.482   9.094 -0.3396 -2.2095 -1.3345
33196SOL    HW2 4527   8.462   2.572   8.987 -0.0643  0.6172  0.7690
33197SOL     OW 4528   3.367   4.872  10.106  0.0307  0.7005  0.2769
33197SOL    HW1 4529   3.395   4.807  10.170  0.8499  0.8570  0.0881
33197SOL    HW2 4530   3.273   4.878  10.118 -0.0810 -0.6262  0.1965
33198SOL     OW 4531   7.418   5.158   2.327  0.1018  0.0618  0.0204
33198SOL    HW1 4532   7.498   5.210   2.339  1.2320 -1.4326 -0.8243
33198SOL    HW2 4533   7.421   5.094   2.398 -0.4624  0.1251  0.1016
33199SOL     OW 4534   8.149   2.064  11.297 -0.1934 -0.4372  1.1018
33199SOL    HW1 4535   8.074   2.038  11.351  0.1892 -2.2985  0.8061
33199SOL    HW2 4536   8.195   1.982  11.279  0.7657  0.3946 -0.4575
33200SOL     OW 4537   5.805   1.160  11.393  0.1904 -0.3455 -0.2514
33200SOL    HW1 4538   5.843   1.202  11.315  0.4981 -0.9457 -0.4275
33200SOL    HW2 4539   5.711   1.169  11.381  0.2220  1.9064  0.5887
33201SOL     OW 4540   1.056   5.327   6.560 -0.3673  0.0213 -0.4139
33201SOL    HW1 4541   1.076   5.415   6.593 -1.0083  0.9010 -2.2013
33201SOL    HW2 4542   0.993   5.291   6.622  0.1292  0.6983  0.5061
33202SOL     OW 4543  10.065   4.381   4.614 -0.2766 -0.1966  0.7732
33202SOL    HW1 4544  10.027   4.469   4.614 -0.3370 -0.2217  0.2887
33202SOL    HW2 4545  10.106   4.372   4.528 -0.8577 -0.8957  0.5596
33203SOL     OW 4546   7.575   9.954   9.938  0.2291  0.7552  0.7998
33203SOL    HW1 4547   7.482   9.935   9.955  0.4410 -1.7258 -0.4245
33203SOL    HW2 4548   7.578  10.049   9.929 -1.8774  1.0735  2.5441
33204SOL     OW 4549   6.309   9.768   6.204  0.3571  0.0625 -0.2374
33204SOL    HW1 4550   6.313   9.859   6.234  1.0159  0.1469 -0.5750
33204SOL    HW2 4551   6.381   9.759   6.142 -0.4848 -0.3458 -1.1843
33205SOL     OW 4552   8.957   1.336   0.516 -0.2199 -0.1356  0.1298
33205SOL    HW1 4553   8.865   1.362   0.510 -0.6320 -1.5370 -0.0196
33205SOL    HW2 4554   9.006   1.415   0.495 -1.3863  0.6920  0.4444
33206SOL     OW 4555  10.206   9.249  11.432 -0.4498 -0.3952  0.8245
33206SOL    HW1 4556  10.191   9.260  11.526 -0.1017 -1.8539  1.0812
33206SOL    HW2 4557  10.301   9.245  11.423 -0.3592  1.9751  0.0905
33207SOL     OW 4558   1.383  11.366   8.905 -0.2932 -0.0932 -0.5004
33207SOL    HW1 4559   1.349  11.425   8.972  0.0714 -0.4954  0.0563
33207SOL    HW2 4560   1.471  11.343   8.936  0.2450  0.4213 -1.5812
33208SOL     OW 4561   4.107   6.449   1.173  0.2348  0.3761  0.4828
33208SOL    HW1 4562   4.041   6.383   1.154 -0.9926  1.7680 -0.3256
33208SOL    HW2 4563   4.159   6.455   1.093 -0.2268  0.9890  0.2159
33209SOL     OW 4564   8.578   1.213   0.281 -0.0765  0.2684 -0.2290
33209SOL    HW1 4565   8.580   1.288   0.222 -1.1030  0.3133 -0.2222
33209SOL    HW2 4566   8.595   1.137   0.225 -0.2848  0.3855 -0.4529
33210SOL     OW 4567   0.957  10.460   0.266 -0.4663 -0.2511 -0.2803
33210SOL    HW1 4568   1.022  10.448   0.197  0.8750 -1.1501  1.0827
33210SOL    HW2 4569   1.005  10.443   0.347 -2.3755 -0.8203  0.7853
33211SOL     OW 4570   3.581   1.462   8.186  0.7914  0.6354 -0.9217
33211SOL    HW1 4571   3.638   1.466   8.263  0.5834 -1.2299 -0.6257
33211SOL    HW2 4572   3.495   1.487   8.219  0.9535  1.0991 -0.8403
33212SOL     OW 4573  10.643   8.358   7.578 -0.3289  0.7582  0.0324
33212SOL    HW1 4574  10.617   8.400   7.660  1.5543  1.0453  0.5113
33212SOL    HW2 4575  10.668   8.269   7.604 -1.8899  0.0768 -0.6130
33213SOL     OW 4576   9.071   5.366   4.010 -0.1781 -0.3080 -0.0315
33213SOL    HW1 4577   9.061   5.440   3.950 -1.2645 -1.1850 -0.9892
33213SOL    HW2 4578   9.104   5.404   4.091 -2.5431  1.5515  0.1684
33214SOL     OW 4579   5.924   6.191  10.089 -0.1588 -0.0637  0.9370
33214SOL    HW1 4580   5.862   6.125  10.121 -1.0098  0.5100  0.4952
33214SOL    HW2 4581   5.991   6.140  10.043 -0.9856 -0.5960  0.3071
33215SOL     OW 4582   9.842   1.945   3.072  0.0884 -0.4600  0.3149
33215SOL    HW1 4583   9.877   1.917   2.988 -0.0641 -0.6559  0.3161
33215SOL    HW2 4584   9.789   2.023   3.051 -1.5106 -1.5962 -0.0684
33216SOL     OW 4585   3.590  10.351  10.407 -0.1129 -0.0335  0.2617
33216SOL    HW1 4586   3.620  10.442  10.401 -0.8678  0.1083 -3.3924
33216SOL    HW2 4587   3.499  10.354  10.377  0.6785 -2.2671 -2.7898
33217SOL     OW 4588   1.137   1.877   7.010  0.7681 -0.0189  0.3025
33217SOL    HW1 4589   1.139   1.782   6.998  1.2437 -0.0971  0.9846
33217SOL    HW2 4590   1.156   1.890   7.102 -0.5961  0.6816  0.5126
33218SOL     OW 4591   1.964   3.409   8.996 -0.6009 -0.2826  0.1589
33218SOL    HW1 4592   1.988   3.316   8.994 -0.9996 -0.3747 -0.9232
33218SOL    HW2 4593   1.895   3.414   9.062  0.2060 -0.5416  1.0545
33219SOL     OW 4594   2.375   1.567   0.391  0.1318 -0.5377 -0.0080
33219SOL    HW1 4595   2.319   1.626   0.443 -0.2911 -2.8027  2.2886
33219SOL    HW2 4596   2.460   1.571   0.434  0.5052 -0.5233 -0.7345
33220SOL     OW 4597   9.767  10.609   3.790  0.0976 -0.4486 -0.1139
33220SOL    HW1 4598   9.750  10.596   3.697  0.3492  0.4566 -0.2977
33220SOL    HW2 4599   9.734  10.530   3.832  0.2559 -1.0015 -1.0028
33221SOL     OW 4600  10.967   0.315   8.890  0.3046  0.8568 -0.2409
33221SOL    HW1 4601  11.042   0.289   8.836  0.3893 -0.3475  0.4224
33221SOL    HW2 4602  10.899   0.338   8.827  0.3723 -0.5955 -0.8699
33222SOL     OW 4603   0.937  10.198   5.255  0.0967  0.0836  0.5990
33222SOL    HW1 4604   0.907  10.278   5.299 -1.0711  0.8951 -1.5559
33222SOL    HW2 4605   0.860  10.141   5.254 -0.9666  1.3448 -3.1054
33223SOL     OW 4606   2.802   9.722  10.390  0.3417 -0.4538  0.3711
33223SOL    HW1 4607   2.883   9.698  10.345  0.8386 -0.7293  1.3821
33223SOL    HW2 4608   2.815   9.693  10.481 -1.0644 -0.9165  0.4544
33224SOL     OW 4609   1.305   7.427   8.271  0.1162  0.1146 -0.1887
33224SOL    HW1 4610   1.278   7.508   8.313 -1.1034 -0.1247 -0.4679
33224SOL    HW2 4611   1.308   7.363   8.342 -0.5861  0.0269 -0.2298
33225SOL     OW 4612   9.932   0.711  10.843 -0.2315  0.4068 -0.2377
33225SOL    HW1 4613   9.883   0.652  10.900 -0.2558  1.2134  0.6006
33225SOL    HW2 4614  10.007   0.659  10.814 -1.3196 -0.6943 -1.1855
33226SOL     OW 4615   2.480   6.557   6.329  0.0806  0.4170 -0.1516
33226SOL    HW1 4616   2.476   6.608   6.410 -2.4682  2.5308 -1.4427
33226SOL    HW2 4617   2.549   6.599   6.277 -2.2812  3.1162 -1.3829
33227SOL     OW 4618   2.281   7.307   1.446  0.3933 -0.2727  0.0372
33227SOL    HW1 4619   2.200   7.319   1.396  0.3343 -0.6551  0.0381
33227SOL    HW2 4620   2.294   7.391   1.491  0.8254  0.3263 -1.1660
33228SOL     OW 4621   9.061   2.722   9.710 -0.1085 -0.1937  0.4697
33228SOL    HW1 4622   9.048   2.631   9.683  0.8459 -0.0970 -0.3561
33228SOL    HW2 4623   8.986   2.741   9.766 -1.0800 -1.0531 -0.4817
33229SOL     OW 4624   8.334   9.301   8.609  0.0516 -0.4371 -0.3691
33229SOL    HW1 4625   8.403   9.240   8.634  0.0382  0.1222  1.0990
33229SOL    HW2 4626   8.253   9.252   8.618  0.1605 -0.7626 -1.0501
33230SOL     OW 4627   3.695   6.949   5.773  0.1603  0.6462  0.2661
33230SOL    HW1 4628   3.720   7.041   5.775  0.4574  0.5623  0.5967
33230SOL    HW2 4629   3.720   6.919   5.686 -1.2763  1.2317 -0.3798
33231SOL     OW 4630   4.419   8.731   7.452  0.6618 -0.2857  0.7831
33231SOL    HW1 4631   4.408   8.639   7.429  0.6125 -0.5700  1.9023
33231SOL    HW2 4632   4.449   8.773   7.371 -1.4997 -0.8451 -0.3845
33232SOL     OW 4633  10.031   0.363   3.719  0.1143  0.1532  0.4488
33232SOL    HW1 4634  10.079   0.303   3.775  0.6880 -0.6503 -0.8474
33232SOL    HW2 4635  10.052   0.334   3.630 -2.0666  0.3511 -0.1762
33233SOL     OW 4636   6.851  10.044   1.688 -0.1253  0.0739 -0.1849
33233SOL    HW1 4637   6.919  10.019   1.751 -0.6357  0.8597  0.7075
33233SOL    HW2 4638   6.856  10.139   1.684 -0.7187  0.0918 -0.6414
33234SOL     OW 4639   8.834   3.678   1.300 -0.2217  0.2301 -0.2023
33234SOL    HW1 4640   8.809   3.616   1.232 -1.2198  1.1644 -0.7085
33234SOL    HW2 4641   8.858   3.758   1.252 -3.1378  1.6870  0.5677
33235SOL     OW 4642   0.919   7.355   4.393  0.5564  0.5799  0.4623
33235SOL    HW1 4643   0.967   7.415   4.337  1.1802  1.6902  2.0996
33235SOL    HW2 4644   0.834   7.397   4.406  1.0424  1.2557  1.7203
33236SOL     OW 4645   9.381   6.170   9.861 -0.1951  0.4715  0.4397
33236SOL    HW1 4646   9.395   6.081   9.829 -1.0932 -0.1442  1.6774
33236SOL    HW2 4647   9.309   6.204   9.809  0.4730  0.6790 -0.3757
33237SOL     OW 4648   7.621   9.382   8.992 -0.0708 -0.5849  0.0599
33237SOL    HW1 4649   7.692   9.436   8.957 -0.3007  0.0444  0.5388
33237SOL    HW2 4650   7.661   9.297   9.007  0.9497  0.0848  1.4952
33238SOL     OW 4651  11.036   2.457   0.054 -0.5386 -0.0611 -0.2783
33238SOL    HW1 4652  11.015   2.542   0.016 -1.4017  0.6391  1.6634
33238SOL    HW2 4653  11.109   2.425   0.001  0.0103  2.0057 -0.8740
33239SOL     OW 4654   7.127   1.090   7.558  0.2578 -0.3825  0.1290
33239SOL    HW1 4655   7.186   1.096   7.483  0.6302 -0.8329  0.3803
33239SOL    HW2 4656   7.185   1.071   7.632 -0.3377 -2.3545  0.1457
33240SOL     OW 4657   0.629   7.290   7.236 -0.0576  0.1556  0.1916
33240SOL    HW1 4658   0.662   7.212   7.281 -3.6589 -1.0108  1.1631
33240SOL    HW2 4659   0.656   7.363   7.292  0.2322 -0.7663  1.2929
33241SOL     OW 4660   8.367   5.617   5.468  0.1668  0.2294  0.6820
33241SOL    HW1 4661   8.392   5.583   5.382 -1.5715  0.3944  0.0612
33241SOL    HW2 4662   8.432   5.582   5.528  0.3526 -1.4369 -0.4230
33242SOL     OW 4663   4.879   8.898   5.232  0.8837 -0.1190  0.1684
33242SOL    HW1 4664   4.807   8.947   5.273 -0.8433 -1.6500 -0.8870
33242SOL    HW2 4665   4.920   8.850   5.304  0.6093  0.4634  0.7230
33243SOL     OW 4666  10.887   5.368  10.495 -0.4058  0.2706  0.5019
33243SOL    HW1 4667  10.877   5.291  10.551 -0.8409  0.2845  0.4466
33243SOL    HW2 4668  10.961   5.415  10.533  0.6455 -0.7808 -0.1811
33244SOL     OW 4669   7.327   7.849   3.894 -0.3670  0.0715 -0.1635
33244SOL    HW1 4670   7.275   7.904   3.836  1.6866  0.5598 -1.6423
33244SOL    HW2 4671   7.417   7.876   3.878  0.4338 -1.3353  1.6568
33245SOL     OW 4672  11.214  10.656   9.598  0.1817  0.2462  0.4178
33245SOL    HW1 4673  11.163  10.679   9.675  1.3221 -1.4295  1.7436
33245SOL    HW2 4674  11.254  10.738   9.569  0.4831  0.7569  2.1908
33246SOL     OW 4675   7.560  11.250   6.727 -0.3225 -0.1476  0.0512
33246SOL    HW1 4676   7.472  11.240   6.762 -1.7762  1.0353 -2.9329
33246SOL    HW2 4677   7.550  11.312   6.655  3.3099  1.5216  0.7885
33247SOL     OW 4678   8.885   7.421   3.127 -0.1746 -0.5143  0.8258
33247SOL    HW1 4679   8.951   7.380   3.071  0.2411  0.5875  0.4758
33247SOL    HW2 4680   8.803   7.378   3.104 -0.1234  0.3001 -1.0670
33248SOL     OW 4681   0.788   3.927   4.131 -0.2897 -0.1681 -0.5343
33248SOL    HW1 4682   0.809   3.994   4.066 -1.0667 -0.6154 -1.2609
33248SOL    HW2 4683   0.847   3.854   4.111  0.2564  0.1224 -0.0141
33249SOL     OW 4684   3.598   4.737  10.498  0.0481  0.6593  0.1232
33249SOL    HW1 4685   3.631   4.805  10.557  0.3195  0.1481  0.5608
33249SOL    HW2 4686   3.526   4.696  10.546  0.7252 -0.2290  0.3850
33250SOL     OW 4687   4.389   1.326   9.520 -0.1102 -0.1686 -0.6242
33250SOL    HW1 4688   4.421   1.250   9.471 -1.5693 -0.8333 -0.6006
33250SOL    HW2 4689   4.308   1.296   9.561  0.4518  0.7046  1.2872
33251SOL     OW 4690   3.286   6.106   3.291  0.2805  0.6176 -0.1215
33251SOL    HW1 4691   3.261   6.179   3.347  0.1235  0.4211  0.0703
33251SOL    HW2 4692   3.359   6.065   3.337 -0.3424 -0.0052  0.3388
33252SOL     OW 4693   8.269   5.049   1.358  0.1124 -0.1526 -0.2522
33252SOL    HW1 4694   8.338   4.986   1.337  1.3840  1.5816 -1.5447
33252SOL    HW2 4695   8.190   5.012   1.317  1.0210 -0.4996 -1.7821
33253SOL     OW 4696   8.141   1.715   2.533  0.5509 -0.4641 -0.3489
33253SOL    HW1 4697   8.080   1.754   2.595 -0.2268  0.7062 -1.7693
33253SOL    HW2 4698   8.225   1.756   2.553  0.3808 -0.3446  0.1297
33254SOL     OW 4699   2.444  10.416   6.062  0.0992  0.2683  0.1537
33254SOL    HW1 4700   2.466  10.411   5.968  2.5364  2.1470  0.5230
33254SOL    HW2 4701   2.442  10.510   6.081  1.4116 -0.0776  2.3006
33255SOL     OW 4702   5.328   8.628   1.651  0.1691 -0.0694 -0.2712
33255SOL    HW1 4703   5.368   8.585   1.575  0.8045  2.1752 -1.2711
33255SOL    HW2 4704   5.388   8.609   1.723  1.6184  0.9500 -1.1645
33256SOL     OW 4705   4.558   5.373   2.343  0.1077 -0.5244  0.3536
33256SOL    HW1 4706   4.635   5.343   2.295  0.1970 -2.0635  1.4115
33256SOL    HW2 4707   4.573   5.467   2.355  1.4244 -0.6445 -0.1674
33257SOL     OW 4708   3.385   1.417  10.101 -0.2868  0.1654  0.1936
33257SOL    HW1 4709   3.299   1.443  10.134 -0.7222 -1.4795  0.4275
33257SOL    HW2 4710   3.442   1.419  10.178 -0.5411 -0.4842  0.4033
33258SOL     OW 4711   7.862   8.103   4.251  0.0100  0.4667 -0.4592
33258SOL    HW1 4712   7.884   8.017   4.214  0.7365  0.4195  0.0432
33258SOL    HW2 4713   7.917   8.165   4.203 -1.6411  0.8764 -1.9013
33259SOL     OW 4714   2.105  11.275   5.112  0.8207  0.1594 -0.0962
33259SOL    HW1 4715   2.079  11.191   5.150  0.0391 -0.5211 -2.0423
33259SOL    HW2 4716   2.199  11.268   5.101  0.7702 -0.4309 -0.1839
33260SOL     OW 4717  10.974   1.590   5.471  0.2084  0.1497  0.0830
33260SOL    HW1 4718  10.920   1.669   5.466 -1.6851 -1.1092 -0.2524
33260SOL    HW2 4719  10.950   1.538   5.394  0.2968 -1.4189  1.0608
33261SOL     OW 4720  11.445   9.202   8.494  0.1860  0.3340  0.3847
33261SOL    HW1 4721  11.463   9.248   8.412  1.0274  0.4420  0.6226
33261SOL    HW2 4722  11.510   9.235   8.555 -0.2446  0.0278  1.0135
33262SOL     OW 4723   1.214   1.839  11.306 -0.3601  0.3159  0.3755
33262SOL    HW1 4724   1.246   1.813  11.219  0.3908  1.8468  0.1384
33262SOL    HW2 4725   1.197   1.933  11.297  0.3303  0.6337  2.0503
33263SOL     OW 4726   8.535  11.624   3.992  0.3718  0.2357  0.1427
33263SOL    HW1 4727   8.513  11.712   4.021  1.7771  0.5239  0.3527
33263SOL    HW2 4728   8.497  11.619   3.904 -0.8230  0.5810  0.6131
33264SOL     OW 4729   8.042   5.365   5.782 -0.1389  0.0583  0.1576
33264SOL    HW1 4730   8.135   5.385   5.777 -0.2113  0.0784 -1.9564
33264SOL    HW2 4731   8.038   5.285   5.834  1.6174 -2.5594 -3.2633
33265SOL     OW 4732   0.896   6.608   2.396  0.3111 -0.0871 -0.2141
33265SOL    HW1 4733   0.859   6.647   2.476 -1.8913  0.4891 -1.4302
33265SOL    HW2 4734   0.843   6.530   2.381  0.4585  0.0028 -1.2928
33266SOL     OW 4735   1.392   3.660   9.265  0.5102 -0.4537 -0.0798
33266SOL    HW1 4736   1.387   3.672   9.170 -2.0753 -0.0805  0.0406
33266SOL    HW2 4737   1.324   3.596   9.285  2.8722 -2.7421  1.2744
33267SOL     OW 4738   6.708   1.021   1.411 -0.3956 -0.3986 -0.2609
33267SOL    HW1 4739   6.780   1.076   1.443  0.1110 -0.7622 -0.7453
33267SOL    HW2 4740   6.727   0.934   1.446 -0.0666 -0.7074 -1.1746
33268SOL     OW 4741   5.484   1.974   2.105  0.1614  0.1761 -0.2686
33268SOL    HW1 4742   5.415   2.031   2.138 -0.4073 -0.5428 -0.2013
33268SOL    HW2 4743   5.527   1.941   2.184 -1.0032 -1.3019 -0.2088
33269SOL     OW 4744   0.841   5.001   8.304  0.1589  0.4510  0.6608
33269SOL    HW1 4745   0.907   5.070   8.305 -0.4012  1.0995 -1.6480
33269SOL    HW2 4746   0.790   5.016   8.384  0.1092  2.6951  0.2807
33270SOL     OW 4747   7.511   7.481   6.414 -0.2122 -0.0890  0.0336
33270SOL    HW1 4748   7.478   7.570   6.403 -0.6771 -0.2659 -0.0540
33270SOL    HW2 4749   7.495   7.460   6.506  1.1595  0.4040  0.4070
33271SOL     OW 4750  11.194   4.845   1.924  0.2607 -0.1877  0.1867
33271SOL    HW1 4751  11.155   4.859   2.011 -2.6739  1.1401 -1.2136
33271SOL    HW2 4752  11.268   4.906   1.922  1.1765 -1.1346  2.1386
33272SOL     OW 4753   3.846   9.009   9.926  0.0401 -0.1780 -0.2102
33272SOL    HW1 4754   3.777   9.074   9.942  0.5225  0.0516  1.1102
33272SOL    HW2 4755   3.805   8.925   9.945  0.3557  0.0290  1.5491
33273SOL     OW 4756   1.107   0.034   6.785  0.0066  0.2266 -0.0420
33273SOL    HW1 4757   1.176  -0.031   6.779 -0.1910  0.0877 -0.8716
33273SOL    HW2 4758   1.035  -0.002   6.734 -1.1622 -0.2016  1.8040
33274SOL     OW 4759  11.190   6.250   4.791 -0.1498 -0.1114  0.8668
33274SOL    HW1 4760  11.214   6.293   4.709 -2.0981  0.2530  0.4454
33274SOL    HW2 4761  11.164   6.162   4.766 -1.4133  0.2096  0.9451
33275SOL     OW 4762  10.828   3.080   3.233  0.4237 -0.2540  0.0180
33275SOL    HW1 4763  10.815   3.174   3.231 -0.6753 -0.3657  0.9360
33275SOL    HW2 4764  10.860   3.058   3.146 -0.8623  0.7468 -0.7332
33276SOL     OW 4765   9.237   1.963   9.837  0.2285  0.1824 -0.4513
33276SOL    HW1 4766   9.201   1.979   9.924 -0.6235 -2.0990 -0.3170
33276SOL    HW2 4767   9.326   1.999   9.840  0.9064 -1.4785  2.0057
33277SOL     OW 4768   4.341   3.389   0.519  0.6225 -0.0419 -0.8671
33277SOL    HW1 4769   4.423   3.340   0.513  0.2916 -1.1217  1.9071
33277SOL    HW2 4770   4.351   3.444   0.596 -1.6229 -1.0689  0.2613
33278SOL     OW 4771   0.893   8.303   8.364  0.1311 -0.7021 -0.0518
33278SOL    HW1 4772   0.959   8.353   8.412  0.7764 -1.4757 -0.1177
33278SOL    HW2 4773   0.810   8.326   8.406  0.3660  0.6098 -0.2395
33279SOL     OW 4774   3.214   9.091   6.316  0.1721  0.1059 -0.1879
33279SOL    HW1 4775   3.159   9.021   6.351 -0.5959 -1.3565 -3.9155
33279SOL    HW2 4776   3.189   9.169   6.366 -1.7653 -1.4750  1.4654
33280SOL     OW 4777   4.595   8.913   6.864 -0.2537  0.2837  0.0467
33280SOL    HW1 4778   4.618   8.861   6.941 -1.4174 -0.4213 -0.0444
33280SOL    HW2 4779   4.673   8.912   6.809 -0.5538 -2.4287 -0.5091
33281SOL     OW 4780  10.647   2.674  10.034 -0.2764 -0.0854  0.2932
33281SOL    HW1 4781  10.698   2.697   9.956  1.3688 -1.7241  0.8132
33281SOL    HW2 4782  10.586   2.747  10.045 -1.7474 -0.5041 -3.4428
33282SOL     OW 4783   6.768   4.266  11.165 -0.2684  0.3550  0.1685
33282SOL    HW1 4784   6.743   4.344  11.116  1.7788  0.9066 -0.0907
33282SOL    HW2 4785   6.854   4.243  11.131 -0.3341 -1.3613  1.0559
33283SOL     OW 4786   3.278   5.211   1.881  0.4378 -0.0064  0.6326
33283SOL    HW1 4787   3.197   5.223   1.929 -0.1405 -2.0743  0.2746
33283SOL    HW2 4788   3.254   5.154   1.807  2.3819 -1.5808  1.1300
33284SOL     OW 4789   2.474   3.842   0.129 -0.0662  0.4468  0.4881
33284SOL    HW1 4790   2.569   3.850   0.127  0.0268 -0.7120 -0.6748
33284SOL    HW2 4791   2.457   3.778   0.199 -0.0059  0.6929  0.7312
33285SOL     OW 4792   4.550   9.903   1.183 -0.2080  0.3953  0.3031
33285SOL    HW1 4793   4.497   9.981   1.202  0.6344  0.6917  1.5706
33285SOL    HW2 4794   4.551   9.855   1.266  0.3249 -0.3336 -0.1163
33286SOL     OW 4795   3.211   8.911   4.367 -0.0127  0.0060  0.2928
33286SOL    HW1 4796   3.203   8.819   4.393  0.5596 -0.1039  0.1113
33286SOL    HW2 4797   3.254   8.907   4.281 -2.0534  0.3320 -0.8041
33287SOL     OW 4798   0.981   3.638   8.404  0.1273  0.2429 -0.1239
33287SOL    HW1 4799   0.914   3.640   8.335  0.2993  0.0010 -0.3045
33287SOL    HW2 4800   0.975   3.550   8.440  0.6927  0.0467 -0.4940
33288SOL     OW 4801   4.757   0.247   8.345  0.7990  0.4810  0.2032
33288SOL    HW1 4802   4.836   0.247   8.400  2.0195  1.0129 -1.4619
33288SOL    HW2 4803   4.711   0.327   8.367  0.5775  0.0433  1.3712
33289SOL     OW 4804   0.759   9.154   1.237  0.0015  0.2544 -0.2150
33289SOL    HW1 4805   0.710   9.077   1.210  1.4949 -2.1670  3.2495
33289SOL    HW2 4806   0.850   9.125   1.237  0.6887  2.2570  0.4906
33290SOL     OW 4807   7.059   3.146  10.708 -0.0071 -0.2738  0.8381
33290SOL    HW1 4808   7.012   3.226  10.685  0.6310  0.5083  2.1344
33290SOL    HW2 4809   7.135   3.177  10.758  1.1480 -1.5862 -0.0292
33291SOL     OW 4810   4.306   2.720   6.549  0.2398  0.3593 -0.2700
33291SOL    HW1 4811   4.372   2.715   6.618 -0.5035 -1.1756  0.3636
33291SOL    HW2 4812   4.322   2.805   6.507  1.3169  0.9025  1.1541
33292SOL     OW 4813   0.274   3.866   8.522  0.3496 -0.6421 -0.3468
33292SOL    HW1 4814   0.356   3.915   8.529  0.3464 -0.4688 -1.3540
33292SOL    HW2 4815   0.282   3.818   8.440 -0.4983 -0.7480 -0.3726
33293SOL     OW 4816   1.057   2.294   4.450 -0.5080  0.8860  0.2530
33293SOL    HW1 4817   1.102   2.371   4.487  1.4090 -0.7587  1.6076
33293SOL    HW2 4818   1.103   2.220   4.488 -0.4657 -1.0057 -3.0881
33294SOL     OW 4819   8.544   8.796   4.618  0.0208  0.2426 -0.1236
33294SOL    HW1 4820   8.466   8.835   4.657  0.1327  0.0292  0.3217
33294SOL    HW2 4821   8.607   8.868   4.615 -0.7673  0.9170 -2.1949
33295SOL     OW 4822   9.019  11.026   3.912  0.1517 -0.3894 -0.4016
33295SOL    HW1 4823   9.065  11.094   3.962  0.2590 -0.5247 -0.3156
33295SOL    HW2 4824   9.089  10.975   3.871  0.0463  0.3698 -1.5679
33296SOL     OW 4825   8.096   4.668   3.188 -0.0904  0.0284 -0.2165
33296SOL    HW1 4826   8.159   4.740   3.188  0.4327 -0.4133 -0.6410
33296SOL    HW2 4827   8.016   4.705   3.150  0.2738  0.3046 -0.7316
33297SOL     OW 4828  11.012   2.793   6.614 -0.0100 -0.2503  0.1202
33297SOL    HW1 4829  11.054   2.818   6.696  1.3414  1.2137 -0.9743
33297SOL    HW2 4830  10.970   2.873   6.583 -1.0973 -0.9597 -0.3149
33298SOL     OW 4831   7.443   6.152   7.091  0.1965 -0.1203 -0.1161
33298SOL    HW1 4832   7.350   6.133   7.085 -0.6639  1.7295  3.9060
33298SOL    HW2 4833   7.448   6.248   7.085  1.7797 -0.1657  0.0551
33299SOL     OW 4834   7.419   7.942   0.719 -0.0997  0.4933 -0.0031
33299SOL    HW1 4835   7.398   7.891   0.797  1.7705  0.3343  0.4204
33299SOL    HW2 4836   7.492   7.895   0.678 -1.8424 -0.2043 -2.6268
33300SOL     OW 4837  11.655  11.583   7.529 -0.5978  0.4133 -0.0984
33300SOL    HW1 4838  11.641  11.657   7.470 -0.7534 -0.9167 -1.8108
33300SOL    HW2 4839  11.714  11.525   7.480 -0.9724 -0.8772  0.9337
33301SOL     OW 4840   6.235   5.725  10.415  0.2687 -0.7327  0.3101
33301SOL    HW1 4841   6.145   5.738  10.386  0.1544 -0.5036  0.7577
33301SOL    HW2 4842   6.244   5.630  10.425 -0.0075 -0.7339  0.5398
33302SOL     OW 4843   6.730   6.282   7.888  0.6291 -0.5344 -0.6058
33302SOL    HW1 4844   6.652   6.238   7.855  0.5435  0.0540 -1.2235
33302SOL    HW2 4845   6.784   6.212   7.923  0.2990 -1.0812 -1.1589
33303SOL     OW 4846  10.610   2.071   1.665 -0.4699 -0.9242  0.2023
33303SOL    HW1 4847  10.704   2.060   1.678 -0.4231  0.3038  1.1279
33303SOL    HW2 4848  10.570   2.013   1.730 -0.3154 -0.3469  0.8292
33304SOL     OW 4849   5.952  10.078   6.267 -0.8432  0.7077 -0.4831
33304SOL    HW1 4850   6.013  10.080   6.194  2.9287  2.2646  2.3377
33304SOL    HW2 4851   5.951   9.987   6.296 -3.1550 -0.1269 -2.8738
33305SOL     OW 4852  11.592  10.164   8.851  0.4813 -0.3917 -0.2433
33305SOL    HW1 4853  11.506  10.173   8.810  1.5423  1.4717 -2.2808
33305SOL    HW2 4854  11.643  10.238   8.817  2.6997 -1.0322  1.4204
33306SOL     OW 4855   6.821   4.612   2.447  0.4334  0.2191  0.1043
33306SOL    HW1 4856   6.745   4.670   2.445  1.1160  1.1219 -1.0766
33306SOL    HW2 4857   6.873   4.644   2.521 -0.0548 -0.0408  0.5655
33307SOL     OW 4858   0.562   9.594   5.954 -0.0604 -0.2988 -0.0457
33307SOL    HW1 4859   0.571   9.689   5.966 -0.0210 -0.3237  0.1301
33307SOL    HW2 4860   0.614   9.556   6.025  0.1231 -0.4539 -0.2625
33308SOL     OW 4861   4.226   6.594   5.648  0.4224  0.7851  0.2369
33308SOL    HW1 4862   4.184   6.657   5.706  2.3225  2.2840  0.0823
33308SOL    HW2 4863   4.239   6.517   5.703 -0.6923  0.9942  0.8366
33309SOL     OW 4864   4.346   9.433  11.453  0.1120  0.0202  0.0638
33309SOL    HW1 4865   4.295   9.415  11.532 -1.3433  3.2495  0.0253
33309SOL    HW2 4866   4.409   9.360  11.447 -0.8900 -1.2477  3.1577
33310SOL     OW 4867   8.480   9.441   5.874 -0.3514  0.6159  0.1998
33310SOL    HW1 4868   8.394   9.483   5.869  0.5448  2.5635  0.1723
33310SOL    HW2 4869   8.522   9.480   5.950  0.4727 -0.4141  0.3034
33311SOL     OW 4870   8.238   8.346   2.720  0.8924  0.5386  0.1816
33311SOL    HW1 4871   8.329   8.316   2.724  0.3234 -1.3397 -0.0295
33311SOL    HW2 4872   8.227   8.375   2.629  1.1131  0.1335  0.0177
33312SOL     OW 4873   3.193   7.717   2.385 -0.1467  0.2475 -0.4886
33312SOL    HW1 4874   3.267   7.777   2.377  0.9436 -0.6989  1.7494
33312SOL    HW2 4875   3.220   7.639   2.336 -1.5083  1.3636 -3.2807
33313SOL     OW 4876   7.737  10.571   9.505 -0.0294  0.4991 -0.5805
33313SOL    HW1 4877   7.797  10.500   9.482 -0.8039 -0.7648  1.0899
33313SOL    HW2 4878   7.794  10.645   9.527  0.8554 -0.1213 -0.7452
33314SOL     OW 4879   2.940   8.172   4.496 -0.0028  0.1280 -0.2297
33314SOL    HW1 4880   2.966   8.080   4.483 -0.8653 -0.0101 -1.0914
33314SOL    HW2 4881   2.909   8.174   4.587  0.5840 -0.2933 -0.0117
33315SOL     OW 4882   6.044  11.621   8.760 -0.3518  0.1725 -0.3183
33315SOL    HW1 4883   5.992  11.541   8.747 -2.1090  0.8919  1.7423
33315SOL    HW2 4884   5.979  11.690   8.770  1.1039  1.5794 -0.2902
33316SOL     OW 4885  11.615   8.913   8.396 -0.3007 -0.8507  0.2927
33316SOL    HW1 4886  11.526   8.923   8.363  0.4633 -0.7181 -1.8977
33316SOL    HW2 4887  11.635   8.820   8.382 -0.2445 -0.9977  1.2621
33317SOL     OW 4888  10.112   6.797   7.307 -0.6774 -0.1532 -0.1541
33317SOL    HW1 4889  10.165   6.840   7.374 -0.8547 -1.1738  0.6753
33317SOL    HW2 4890  10.033   6.769   7.354 -1.1042 -0.3003 -0.9488
33318SOL     OW 4891   0.132   7.751   9.628  0.3333 -0.3809 -0.6907
33318SOL    HW1 4892   0.152   7.767   9.536 -0.7812 -3.4300 -1.6015
33318SOL    HW2 4893   0.216   7.730   9.668  0.5018 -2.1097 -1.8303
33319SOL     OW 4894  10.581   1.168  10.207  0.1877 -0.4417 -0.1352
33319SOL    HW1 4895  10.576   1.114  10.286  0.1915  0.7412  0.7105
33319SOL    HW2 4896  10.492   1.166  10.171  0.2280 -1.1315 -0.2161
33320SOL     OW 4897  10.284   0.434   7.754  0.0745  0.1715 -0.5644
33320SOL    HW1 4898  10.378   0.415   7.759  0.1880  0.3637 -1.7632
33320SOL    HW2 4899  10.245   0.354   7.721 -0.2587 -0.0713  0.3881
33321SOL     OW 4900  10.821   3.812   4.623 -0.2196 -1.0145  0.2211
33321SOL    HW1 4901  10.901   3.861   4.606  0.0643 -0.3665  2.9935
33321SOL    HW2 4902  10.850   3.732   4.666 -0.9777 -1.5409 -0.2168
33322SOL     OW 4903   7.620   8.489   0.830  0.4683  0.0368 -0.3808
33322SOL    HW1 4904   7.698   8.508   0.777  0.2369  0.8042 -0.4506
33322SOL    HW2 4905   7.555   8.458   0.767 -0.1431  1.9122 -0.7272
33323SOL     OW 4906   9.084   6.460   0.990 -0.5271 -0.2920 -0.5560
33323SOL    HW1 4907   9.152   6.527   0.989  0.2819 -1.0962 -1.6914
33323SOL    HW2 4908   9.131   6.378   0.975 -1.6985 -0.9146 -0.9064
33324SOL     OW 4909   8.153   9.696   0.283  0.1942  0.6902 -0.2721
33324SOL    HW1 4910   8.100   9.622   0.254  0.1009  0.6150  0.0893
33324SOL    HW2 4911   8.131   9.707   0.375  0.8651  0.6071 -0.0971
33325SOL     OW 4912   8.522   4.623   6.892 -0.0215  0.2030  0.0616
33325SOL    HW1 4913   8.492   4.534   6.873 -0.6952  0.7102 -1.3944
33325SOL    HW2 4914   8.446   4.678   6.876  0.6225  1.1331  0.1258
33326SOL     OW 4915   7.441   6.721   2.601 -0.0197 -0.1742 -0.2259
33326SOL    HW1 4916   7.497   6.763   2.535 -1.0521  2.9953  0.7280
33326SOL    HW2 4917   7.473   6.756   2.684 -1.1411 -1.1420  0.6289
33327SOL     OW 4918   1.416   6.003   5.951  0.2481 -0.3133 -0.5790
33327SOL    HW1 4919   1.391   5.966   6.036  0.9465 -1.2660 -0.7819
33327SOL    HW2 4920   1.484   6.067   5.972 -1.2388  1.2117 -0.1844
33328SOL     OW 4921   4.897  10.543   0.751 -0.0338  0.4938 -0.1759
33328SOL    HW1 4922   4.859  10.490   0.680  0.9319 -1.0262  0.3740
33328SOL    HW2 4923   4.852  10.514   0.830  1.4648 -0.6227  0.3388
33329SOL     OW 4924   8.851   5.192   8.103 -0.3714  0.7089 -0.0854
33329SOL    HW1 4925   8.893   5.220   8.184 -0.5224  0.8031 -0.0398
33329SOL    HW2 4926   8.870   5.098   8.097 -2.5279  0.1057  1.4109
33330SOL     OW 4927   5.965   6.070   0.772  0.5544 -0.3661 -0.3537
33330SOL    HW1 4928   5.904   6.033   0.709 -0.6559  1.4467 -0.3288
33330SOL    HW2 4929   6.047   6.025   0.755 -0.0715 -0.8810 -2.3268
33331SOL     OW 4930   7.664   8.365   6.846 -0.1035  0.1041 -0.5815
33331SOL    HW1 4931   7.757   8.351   6.828  0.0216  0.8935 -0.5917
33331SOL    HW2 4932   7.642   8.298   6.911  1.0972  1.4708  1.3103
33332SOL     OW 4933   2.812   3.303   9.742  0.5003  0.2668 -0.1956
33332SOL    HW1 4934   2.765   3.344   9.815  0.4190 -0.8081  0.3811
33332SOL    HW2 4935   2.756   3.318   9.666 -1.6667 -2.2381  0.7039
33333SOL     OW 4936   5.289   8.708   0.729  0.0743 -0.0949 -0.1132
33333SOL    HW1 4937   5.264   8.656   0.805  0.5121 -1.5662 -0.9418
33333SOL    HW2 4938   5.267   8.653   0.653 -0.8562  1.5426 -1.1051
33334SOL     OW 4939   4.449   7.490   7.975 -0.5410  0.2638  0.2553
33334SOL    HW1 4940   4.362   7.521   7.950 -0.9438  0.3836  1.6964
33334SOL    HW2 4941   4.481   7.555   8.038 -0.2900 -0.8393  1.3030
33335SOL     OW 4942   4.382   1.494  10.827  0.3257 -0.1448  0.1935
33335SOL    HW1 4943   4.299   1.502  10.780 -0.5762 -0.5174  1.6793
33335SOL    HW2 4944   4.438   1.443  10.768 -0.7838 -0.6351 -0.4618
33336SOL     OW 4945   2.174  11.520   7.424 -0.0291 -0.0598  0.1686
33336SOL    HW1 4946   2.258  11.481   7.446 -0.1742 -0.5525 -0.1195
33336SOL    HW2 4947   2.110  11.467   7.471 -0.0849  1.4683  1.9207
33337SOL     OW 4948   6.145   8.720  11.148 -0.3670 -0.2844  0.1549
33337SOL    HW1 4949   6.201   8.645  11.162 -1.1265 -0.9961 -0.4977
33337SOL    HW2 4950   6.155   8.773  11.227 -0.2712 -1.3662  0.8865
33338SOL     OW 4951   7.343   8.824   2.154  0.1163 -0.0408 -0.4454
33338SOL    HW1 4952   7.391   8.782   2.225 -2.3105 -0.0531  1.3147
33338SOL    HW2 4953   7.408   8.877   2.109  2.2572 -1.9292  0.2457
33339SOL     OW 4954   7.207   3.702   2.412 -0.3136 -0.4862 -0.4222
33339SOL    HW1 4955   7.196   3.655   2.329  2.2313 -0.4764 -0.8602
33339SOL    HW2 4956   7.180   3.792   2.393  0.9936 -0.2915 -1.5281
33340SOL     OW 4957   8.908   7.287   1.595  0.0393 -0.1103 -0.1420
33340SOL    HW1 4958   8.999   7.302   1.571  0.1149 -0.5219 -0.1352
33340SOL    HW2 4959   8.873   7.234   1.523  0.2310 -1.2454  0.5626
33341SOL     OW 4960   7.930   8.924  11.467  0.5666  0.5128  0.4185
33341SOL    HW1 4961   7.878   8.846  11.486 -0.6174  0.7493 -1.5867
33341SOL    HW2 4962   8.021   8.895  11.473  0.2429 -0.2760  2.5109
33342SOL     OW 4963   0.416   6.367   0.938 -0.4268  0.0259 -0.3779
33342SOL    HW1 4964   0.503   6.363   0.898  0.1555  0.6530  0.7881
33342SOL    HW2 4965   0.381   6.278   0.928  0.2331 -0.1665 -1.0704
33343SOL     OW 4966   7.152   6.724   1.130  0.0231 -0.0947  0.1532
33343SOL    HW1 4967   7.108   6.638   1.130  1.3405 -0.8001  0.4027
33343SOL    HW2 4968   7.095   6.780   1.078 -1.1425 -0.9767  0.4337
33344SOL     OW 4969   5.489   9.556   5.900 -1.0059  0.1426  0.1053
33344SOL    HW1 4970   5.478   9.591   5.989 -0.2705 -0.3084  0.3916
33344SOL    HW2 4971   5.540   9.622   5.855  0.0419 -0.3494  0.5278
33345SOL     OW 4972   9.590   3.581   8.475 -0.5063  0.4947 -0.1051
33345SOL    HW1 4973   9.641   3.661   8.482 -0.2131  0.4861 -1.7748
33345SOL    HW2 4974   9.644   3.514   8.517 -0.0818  0.8815 -0.0258
33346SOL     OW 4975   6.954   7.017   3.801 -0.3293  0.0765  0.4846
33346SOL    HW1 4976   7.029   7.074   3.818 -0.8766  1.3193 -1.0075
33346SOL    HW2 4977   6.887   7.075   3.764 -1.3344 -1.3374 -0.0283
33347SOL     OW 4978   7.285  11.000   8.128 -0.0677 -0.5264  0.3478
33347SOL    HW1 4979   7.203  10.954   8.109  0.2430 -0.5571 -1.0739
33347SOL    HW2 4980   7.313  10.965   8.212 -0.6917 -1.7073  0.0948
33348SOL     OW 4981  10.036   9.098   8.400 -0.4764 -0.2649  0.5652
33348SOL    HW1 4982  10.018   9.004   8.400 -0.0864 -0.3777 -1.6367
33348SOL    HW2 4983   9.969   9.135   8.343  0.3570  0.5747  0.1150
33349SOL     OW 4984  10.007  10.223   7.225 -0.3452 -0.4607  0.4633
33349SOL    HW1 4985   9.915  10.231   7.249 -0.3743 -0.0230  0.2020
33349SOL    HW2 4986  10.030  10.307   7.185 -0.3559 -1.2206 -1.2267
33350SOL     OW 4987   6.474   1.340   5.845  0.0050 -0.4926  0.5206
33350SOL    HW1 4988   6.470   1.410   5.780 -1.9199  0.8650  1.9837
33350SOL    HW2 4989   6.557   1.296   5.827  0.0708  0.5187 -2.0963
33351SOL     OW 4990   8.943   3.565  11.212 -0.0315 -0.4783 -0.1440
33351SOL    HW1 4991   8.930   3.511  11.290 -1.9121 -0.9870 -0.7803
33351SOL    HW2 4992   8.866   3.550  11.158 -0.4217  2.4690 -0.5740
33352SOL     OW 4993   6.520   9.936   1.334 -0.3437  0.5752  0.6950
33352SOL    HW1 4994   6.605   9.967   1.302  0.7810  0.8884  3.6404
33352SOL    HW2 4995   6.486   9.882   1.263  2.0053  0.9613 -0.8519
33353SOL     OW 4996  10.075   0.780   3.226 -0.6291  0.6308  0.1483
33353SOL    HW1 4997  10.075   0.861   3.277  1.6691 -1.4170  3.8146
33353SOL    HW2 4998  10.158   0.782   3.177 -1.2496  1.0466 -0.9344
33354SOL     OW 4999   1.457  11.463   3.087 -0.1400 -0.1963 -0.1237
33354SOL    HW1 5000   1.496  11.478   3.173 -1.7157 -1.2779  0.8191
33354SOL    HW2 5001   1.392  11.532   3.077  0.6868  0.5089 -0.9085
33355SOL     OW 5002   5.457   5.525  10.774  0.2514  0.1794  0.0855
33355SOL    HW1 5003   5.473   5.574  10.854  0.9005 -0.0946  0.1321
33355SOL    HW2 5004   5.448   5.434  10.803 -1.5768  0.3172  0.0748
33356SOL     OW 5005   1.371   8.086   0.033 -0.2152 -0.4610  0.3900
33356SOL    HW1 5006   1.391   7.994   0.048  0.3105 -0.0885  2.2031
33356SOL    HW2 5007   1.289   8.085  -0.016  0.7015 -1.8884 -1.2389
33357SOL     OW 5008   3.870   9.980  10.680 -0.0892  0.6091 -0.8304
33357SOL    HW1 5009   3.922   9.972  10.600  0.2444 -2.6841 -0.3956
33357SOL    HW2 5010   3.934  10.008  10.746  0.8390 -1.5932 -0.7048
33358SOL     OW 5011   4.115   2.652   2.972 -0.0697  0.2452 -0.2589
33358SOL    HW1 5012   4.140   2.701   3.051 -0.5873  1.0731 -0.5947
33358SOL    HW2 5013   4.023   2.630   2.986 -0.5838  1.6205 -1.2138
33359SOL     OW 5014   1.613   6.663  11.024  0.4996 -0.5546  0.2016
33359SOL    HW1 5015   1.687   6.621  11.067  0.8895  0.7978  0.9345
33359SOL    HW2 5016   1.555   6.688  11.097  0.7269  0.9481 -0.0900
33360SOL     OW 5017   7.223   1.202  11.605 -0.0765 -0.1808  0.5350
33360SOL    HW1 5018   7.198   1.109  11.606  2.0498 -0.8122 -0.3528
33360SOL    HW2 5019   7.269   1.216  11.688 -0.3167  0.0806  0.6278
33361SOL     OW 5020   5.595   4.846   5.242 -0.3173 -0.1796  0.1189
33361SOL    HW1 5021   5.660   4.899   5.196  1.7699 -1.5531  1.3160
33361SOL    HW2 5022   5.610   4.863   5.335 -0.5343 -1.7599  0.4817
33362SOL     OW 5023   1.231   6.120   5.209 -0.1929  0.0379 -0.3661
33362SOL    HW1 5024   1.245   6.037   5.254  0.1633  1.1598  1.7304
33362SOL    HW2 5025   1.229   6.186   5.279  0.7902  1.9713 -2.0372
33363SOL     OW 5026   0.354  10.976   8.935 -0.5178 -0.3221  0.1478
33363SOL    HW1 5027   0.440  10.964   8.895  0.1500  1.7366  0.8199
33363SOL    HW2 5028   0.305  11.028   8.871 -0.7017 -0.1139  0.4557
33364SOL     OW 5029   4.497  11.268   1.896  0.3468 -0.8217 -0.3850
33364SOL    HW1 5030   4.461  11.351   1.865  0.6623 -0.8399 -0.8089
33364SOL    HW2 5031   4.564  11.294   1.960  0.3014 -0.7539 -0.3649
33365SOL     OW 5032  10.221   6.199  11.429 -0.4426 -0.1454 -0.3892
33365SOL    HW1 5033  10.191   6.249  11.505  1.3747  1.0802 -0.3965
33365SOL    HW2 5034  10.179   6.240  11.354 -1.1086 -0.4235 -0.1723
33366SOL     OW 5035   0.915   8.933  11.342 -0.4189 -0.8906 -0.1298
33366SOL    HW1 5036   0.849   8.905  11.278 -0.6677 -1.0038  0.1727
33366SOL    HW2 5037   0.976   8.859  11.346  1.7460  0.5138 -3.0002
33367SOL     OW 5038   0.757   3.916  11.007 -0.3234  1.0914 -0.2650
33367SOL    HW1 5039   0.831   3.875  11.052 -1.0118  0.6457  0.4856
33367SOL    HW2 5040   0.771   4.010  11.018  0.1443  1.0111 -0.1530
33368SOL     OW 5041   9.908   7.524   3.398  0.2632 -0.0378 -0.5706
33368SOL    HW1 5042   9.970   7.554   3.465 -0.8996  1.1670  0.0288
33368SOL    HW2 5043   9.887   7.604   3.349 -0.1043 -0.6157 -1.3605
33369SOL     OW 5044   4.650   4.551   7.365 -0.4588 -0.2841  0.0121
33369SOL    HW1 5045   4.619   4.480   7.309  1.5720 -0.6222 -0.7878
33369SOL    HW2 5046   4.746   4.545   7.360 -0.2342  1.4149  1.3417
33370SOL     OW 5047  11.224   9.021   7.583  0.0562  0.0474 -0.4507
33370SOL    HW1 5048  11.277   9.028   7.503 -3.0604 -2.4477 -3.0676
33370SOL    HW2 5049  11.245   8.935   7.618 -0.0838  0.2763  0.1986
33371SOL     OW 5050   4.893   3.871   6.751 -0.1500 -0.2690  0.4191
33371SOL    HW1 5051   4.828   3.803   6.767 -1.9307  0.7463 -1.8737
33371SOL    HW2 5052   4.917   3.902   6.838 -1.1180 -2.1557  1.4077
33372SOL     OW 5053   7.483  10.547   6.641 -0.0041  0.1337  0.1369
33372SOL    HW1 5054   7.565  10.499   6.655 -0.5357 -0.6931  0.5431
33372SOL    HW2 5055   7.450  10.564   6.729 -1.4813 -1.7402  0.0217
33373SOL     OW 5056   9.260   3.255   1.266 -0.1554 -0.0858 -0.3749
33373SOL    HW1 5057   9.265   3.159   1.273  0.2850 -0.0815 -0.5816
33373SOL    HW2 5058   9.328   3.287   1.326  1.1933  0.0323 -1.8997
33374SOL     OW 5059   4.826   6.867   8.916  0.0572 -0.1754 -0.6307
33374SOL    HW1 5060   4.830   6.943   8.973  0.0045 -1.2533  0.8789
33374SOL    HW2 5061   4.918   6.844   8.900  0.0997 -1.1517  0.8563
33375SOL     OW 5062   7.361   2.644   0.363 -0.1547 -0.1550 -0.4258
33375SOL    HW1 5063   7.448   2.632   0.401 -0.1141  1.3155 -0.0019
33375SOL    HW2 5064   7.372   2.715   0.299 -0.6971 -1.1108 -1.6390
33376SOL     OW 5065   0.797   5.672   6.028 -0.0377 -0.2009 -0.7086
33376SOL    HW1 5066   0.754   5.716   6.101  0.4493 -1.2996  0.2651
33376SOL    HW2 5067   0.730   5.669   5.960 -1.7136 -2.2177  0.9012
33377SOL     OW 5068   0.916   6.544   8.437  0.0362  0.1788  0.1317
33377SOL    HW1 5069   0.977   6.531   8.510  1.1856 -1.5514 -1.0614
33377SOL    HW2 5070   0.967   6.526   8.359 -1.7754 -0.4606 -0.9843
33378SOL     OW 5071   9.076   6.553  11.158 -0.0106  0.3620  0.2018
33378SOL    HW1 5072   9.043   6.626  11.210  0.1370  0.2396  0.4720
33378SOL    HW2 5073   9.168   6.546  11.182  0.9467  2.3427 -2.4700
33379SOL     OW 5074   4.148   9.667   9.602  0.5630  0.2805  0.1324
33379SOL    HW1 5075   4.148   9.691   9.509  2.5441 -0.9247 -0.2309
33379SOL    HW2 5076   4.230   9.701   9.636  1.3240 -1.8959  0.6553
33380SOL     OW 5077  11.391   4.085   1.862 -0.5254  0.5612 -0.2669
33380SOL    HW1 5078  11.401   4.158   1.802  2.8155  0.9026  0.5231
33380SOL    HW2 5079  11.414   4.121   1.948 -1.8253 -0.7262  0.6862
33381SOL     OW 5080   7.823   8.017  10.768  0.2249  0.1358  0.2266
33381SOL    HW1 5081   7.793   7.971  10.690  0.3908 -0.0660  0.2811
33381SOL    HW2 5082   7.875   7.953  10.815  2.2105  0.9498 -0.7249
33382SOL     OW 5083   7.285   3.284  10.817  0.2397 -0.1270  0.2752
33382SOL    HW1 5084   7.299   3.313  10.908  1.7888  1.5997 -0.4402
33382SOL    HW2 5085   7.368   3.247  10.791  0.8256  2.0656 -1.2960
33383SOL     OW 5086   1.202   2.857   7.967  0.2653 -0.1958 -0.2929
33383SOL    HW1 5087   1.118   2.861   8.014  0.4239 -0.5288  0.0216
33383SOL    HW2 5088   1.264   2.823   8.031  1.0453  1.7046  0.0311
33384SOL     OW 5089   8.550   9.642  11.328 -0.0329  0.0652 -0.2711
33384SOL    HW1 5090   8.510   9.681  11.406  0.5304  1.5007 -0.6765
33384SOL    HW2 5091   8.478   9.636  11.265 -0.3695 -0.6083  0.1646
33385SOL     OW 5092  11.080  10.844   5.248  0.3882  0.1027  0.5399
33385SOL    HW1 5093  11.104  10.786   5.175 -0.8463 -0.6932  0.7465
33385SOL    HW2 5094  10.999  10.807   5.282 -1.8117  3.2775 -0.8156
33386SOL     OW 5095   6.496   7.104   7.146  0.3042 -0.6605 -0.3466
33386SOL    HW1 5096   6.447   7.101   7.063 -0.0167 -1.3968 -0.1383
33386SOL    HW2 5097   6.515   7.196   7.159  0.3330 -0.5314 -1.2358
33387SOL     OW 5098  10.700   7.577   2.930  0.1617  0.6752 -0.2398
33387SOL    HW1 5099  10.775   7.566   2.989 -0.0380 -0.3224 -0.1530
33387SOL    HW2 5100  10.712   7.509   2.863 -0.7513  0.3899 -0.1214
33388SOL     OW 5101   4.415  10.137  10.138 -0.1129 -0.0768  0.4919
33388SOL    HW1 5102   4.436  10.102  10.051 -1.9582 -1.0077  0.3523
33388SOL    HW2 5103   4.321  10.157  10.133 -0.7398 -1.8886  2.7814
33389SOL     OW 5104   2.976   1.991   1.728 -0.4300 -0.7629 -0.3578
33389SOL    HW1 5105   3.006   1.924   1.790  0.0013 -0.0519  0.2123
33389SOL    HW2 5106   3.057   2.029   1.694 -0.6238  0.9973  0.9990
33390SOL     OW 5107   7.319   2.476   5.702 -0.4978 -0.6561  0.1531
33390SOL    HW1 5108   7.246   2.535   5.684 -0.6284  0.2644  3.1702
33390SOL    HW2 5109   7.293   2.393   5.662 -1.2505  0.6976 -2.3921
33391SOL     OW 5110   9.231  10.135   7.062 -0.0599  0.5151  0.5131
33391SOL    HW1 5111   9.226  10.115   7.155  1.2036  2.8835  1.1474
33391SOL    HW2 5112   9.318  10.105   7.035 -0.7995 -1.1141 -0.2088
33392SOL     OW 5113   9.547   5.245   7.026  0.2991  0.3136  0.0926
33392SOL    HW1 5114   9.469   5.295   7.049  0.7849  0.7024  0.9306
33392SOL    HW2 5115   9.524   5.154   7.045  0.3909  0.5329  1.3473
33393SOL     OW 5116   7.588   2.292   1.313 -0.5243  0.0232  0.2458
33393SOL    HW1 5117   7.554   2.300   1.224  0.3849  0.4994 -0.0787
33393SOL    HW2 5118   7.679   2.322   1.306 -0.7421  1.0658  1.5464
33394SOL     OW 5119   0.586  10.580  11.307  0.2916  0.0251  0.0930
33394SOL    HW1 5120   0.514  10.551  11.251  2.3211  0.1717 -2.8564
33394SOL    HW2 5121   0.568  10.541  11.392 -3.8216  1.0160 -0.1085
33395SOL     OW 5122   7.507   1.446   2.418  0.3150  0.1688 -0.1405
33395SOL    HW1 5123   7.494   1.393   2.339 -0.5641  0.4630 -0.2031
33395SOL    HW2 5124   7.468   1.393   2.488  1.2545 -0.1762  0.1453
33396SOL     OW 5125   4.148  10.217  10.102 -0.2970  0.2630  0.4049
33396SOL    HW1 5126   4.182  10.306  10.095 -0.0074  0.3897  2.7427
33396SOL    HW2 5127   4.061  10.222  10.062  0.5238  1.0628 -1.3613
33397SOL     OW 5128  10.980   1.444   0.528  0.9235  0.5890  0.3951
33397SOL    HW1 5129  11.074   1.463   0.531  0.6329  2.1108  0.3811
33397SOL    HW2 5130  10.954   1.438   0.620  0.8688  1.0713  0.4138
33398SOL     OW 5131   1.158   0.737   9.313  0.0554 -0.1874  0.5421
33398SOL    HW1 5132   1.224   0.799   9.280 -0.6183 -0.0738 -0.6283
33398SOL    HW2 5133   1.083   0.792   9.337 -0.3130 -0.4922  0.0963
33399SOL     OW 5134   7.078   7.899   5.922 -0.0403  0.3357  0.1128
33399SOL    HW1 5135   7.043   7.968   5.979 -2.3385 -1.4089  0.9580
33399SOL    HW2 5136   7.020   7.825   5.936  0.7723 -0.9724 -2.7502
33400SOL     OW 5137   4.796  10.091   3.560  0.5182 -0.0532  0.3065
33400SOL    HW1 5138   4.881  10.129   3.585  0.4468  0.2770  0.0538
33400SOL    HW2 5139   4.736  10.119   3.628  0.2065  1.2913 -0.4817
33401SOL     OW 5140   2.866  11.420   9.494 -0.0828  0.0269 -0.0561
33401SOL    HW1 5141   2.840  11.461   9.577 -0.3947 -1.4399  0.6067
33401SOL    HW2 5142   2.784  11.412   9.445 -0.2228 -0.8052  0.2939
33402SOL     OW 5143   7.843   9.787   0.213 -0.1248 -0.3930 -0.3964
33402SOL    HW1 5144   7.886   9.832   0.140  2.0048 -0.1769  0.9224
33402SOL    HW2 5145   7.878   9.698   0.209  0.7126 -0.1392  0.8704
33403SOL     OW 5146   6.901   4.530   5.553 -0.3224  0.0803 -0.0678
33403SOL    HW1 5147   6.917   4.587   5.479  1.8176  0.6854  0.8042
33403SOL    HW2 5148   6.964   4.459   5.544  0.4016  0.4745  1.4289
33404SOL     OW 5149   2.704   9.945   2.739  0.4703  0.2108  0.4066
33404SOL    HW1 5150   2.793   9.959   2.770  0.0364  1.7236  1.0708
33404SOL    HW2 5151   2.708   9.863   2.690  2.2185  0.2556  0.4166
33405SOL     OW 5152   5.117   5.486   9.777  0.2309  0.4620 -0.3943
33405SOL    HW1 5153   5.080   5.399   9.760  1.8302 -0.9210  2.3380
33405SOL    HW2 5154   5.210   5.469   9.793  0.2156  2.2868  2.3743
33406SOL     OW 5155   2.544   5.044   1.779  0.2603  0.1062  0.1000
33406SOL    HW1 5156   2.593   5.066   1.859 -0.2618  2.1761 -0.0959
33406SOL    HW2 5157   2.464   5.002   1.811  0.8170 -0.6362  0.5589
33407SOL     OW 5158   9.845   5.252  11.166  0.3422  0.1844  0.2791
33407SOL    HW1 5159   9.910   5.320  11.147 -0.0802  0.3489 -0.6625
33407SOL    HW2 5160   9.896   5.179  11.200  1.6978 -1.2923 -4.2462
33408SOL     OW 5161   6.686   0.557   4.430  0.0308 -0.2776 -0.1561
33408SOL    HW1 5162   6.657   0.604   4.508  1.1891  0.2839 -0.0334
33408SOL    HW2 5163   6.779   0.580   4.422 -0.3096  0.4887 -2.2840
33409SOL     OW 5164   5.661   2.888   9.367  0.4012  0.2866  0.5754
33409SOL    HW1 5165   5.586   2.829   9.377  0.4257  0.5313  2.7305
33409SOL    HW2 5166   5.735   2.829   9.355 -0.1835  0.0491 -3.1828
33410SOL     OW 5167  10.920   7.046  11.223 -0.4056  0.0955 -0.0310
33410SOL    HW1 5168  10.922   7.036  11.318 -0.1347 -0.4273 -0.0913
33410SOL    HW2 5169  10.956   7.134  11.208  1.8329 -0.7132  0.2319
33411SOL     OW 5170   1.137   1.245   8.515 -0.0806 -0.2529 -0.7785
33411SOL    HW1 5171   1.178   1.326   8.485 -0.0376  0.2457  0.5714
33411SOL    HW2 5172   1.199   1.207   8.577 -1.3748  0.2590  0.9129
33412SOL     OW 5173   0.025   9.541   4.689  0.3994  0.2624 -0.0303
33412SOL    HW1 5174  -0.036   9.594   4.740  0.4125  1.0403 -0.8199
33412SOL    HW2 5175  -0.025   9.513   4.612  0.1349 -1.5573  0.7417
33413SOL     OW 5176   9.351   6.207  11.279  0.0351 -0.1478  0.1958
33413SOL    HW1 5177   9.380   6.132  11.330  1.7616 -0.7770 -1.5782
33413SOL    HW2 5178   9.373   6.283  11.332  1.5192 -0.7810  0.5416
33414SOL     OW 5179   1.938   4.683   5.882  0.3297  0.0829  0.0138
33414SOL    HW1 5180   1.982   4.681   5.797  2.6406 -0.5728  1.1612
33414SOL    HW2 5181   1.871   4.751   5.872  0.1285 -0.3866 -2.4941
33415SOL     OW 5182   6.255   4.060   6.144  0.2289 -0.1186 -0.0832
33415SOL    HW1 5183   6.234   4.021   6.059 -0.0906  0.4550 -0.2763
33415SOL    HW2 5184   6.312   3.996   6.186 -0.2666 -0.7797 -0.3962
33416SOL     OW 5185   2.690   3.005  11.069 -0.5526  0.1140 -0.5110
33416SOL    HW1 5186   2.755   2.970  11.007 -0.7510  0.2247 -0.7832
33416SOL    HW2 5187   2.619   3.037  11.014 -1.6774 -1.6360 -0.1453
33417SOL     OW 5188   7.537   2.530   7.752  0.2004 -0.5360 -0.3802
33417SOL    HW1 5189   7.605   2.596   7.767  2.1124 -2.3628 -0.5577
33417SOL    HW2 5190   7.505   2.549   7.664  1.3325 -0.3410 -0.7685
33418SOL     OW 5191   9.300   1.451   4.253 -0.6205  0.9350 -0.3300
33418SOL    HW1 5192   9.364   1.382   4.270 -0.4548  0.9545 -0.8530
33418SOL    HW2 5193   9.283   1.490   4.339 -1.5091 -0.4403  0.1637
33419SOL     OW 5194  10.542   7.762  11.666  0.2058 -0.2609 -0.1710
33419SOL    HW1 5195  10.507   7.740  11.752  0.6067  1.7750  0.5551
33419SOL    HW2 5196  10.523   7.855  11.655  3.3664  0.4466 -0.6782
33420SOL     OW 5197  10.472   9.301   6.539  0.0098 -0.3698  0.1048
33420SOL    HW1 5198  10.462   9.209   6.565 -1.3110 -0.1164  0.5846
33420SOL    HW2 5199  10.403   9.347   6.587  0.7573  0.9100  0.0012
33421SOL     OW 5200   1.454   5.259   1.572 -0.4326 -0.2701 -0.0747
33421SOL    HW1 5201   1.505   5.195   1.523  0.5747 -0.5380  1.2888
33421SOL    HW2 5202   1.512   5.289   1.642 -1.5394  0.7335  0.4573
33422SOL     OW 5203   1.608   3.206   0.892 -0.1017 -0.1152 -0.6942
33422SOL    HW1 5204   1.702   3.186   0.892 -0.1430 -0.3834  0.5482
33422SOL    HW2 5205   1.567   3.125   0.863  0.0143 -0.2398 -0.5153
33423SOL     OW 5206   1.189   1.989  10.258  0.2416  0.3588  0.1526
33423SOL    HW1 5207   1.103   1.957  10.283 -0.3880  1.3689 -0.6253
33423SOL    HW2 5208   1.226   2.025  10.338  0.2902 -0.7934  0.6671
33424SOL     OW 5209   0.594   6.523   3.877  0.1994 -0.7600  0.1900
33424SOL    HW1 5210   0.561   6.495   3.792  1.5781  0.7301 -0.8902
33424SOL    HW2 5211   0.561   6.612   3.888  2.5260  0.2106 -0.2473
33425SOL     OW 5212   5.247   2.620  11.154 -0.2117 -0.4120 -0.0806
33425SOL    HW1 5213   5.210   2.703  11.186 -0.6009 -0.7537  0.3583
33425SOL    HW2 5214   5.341   2.638  11.146 -0.1349 -0.2339  1.0244
33426SOL     OW 5215  11.410   8.871   5.520 -0.1300  0.5023 -0.4435
33426SOL    HW1 5216  11.321   8.869   5.555  0.3686  0.5371  0.9008
33426SOL    HW2 5217  11.450   8.947   5.561  0.3640  0.8205 -1.4819
33427SOL     OW 5218   8.971   6.476   6.854  0.0898  0.2448  0.0230
33427SOL    HW1 5219   8.981   6.492   6.948  0.3855  0.6120 -0.0673
33427SOL    HW2 5220   9.034   6.535   6.813  0.4980 -0.4478 -0.3721
33428SOL     OW 5221   9.299   3.287   8.378 -0.6160 -0.2739  0.0503
33428SOL    HW1 5222   9.242   3.249   8.445  1.6373 -0.8575  1.7488
33428SOL    HW2 5223   9.286   3.382   8.388 -1.0098 -0.3825  0.6452
33429SOL     OW 5224   1.453   0.206   9.587 -0.0407  0.0067 -0.1946
33429SOL    HW1 5225   1.412   0.219   9.501 -1.1132 -1.5054  0.0474
33429SOL    HW2 5226   1.466   0.112   9.593  2.0194  0.2888  0.4544
33430SOL     OW 5227   3.303   2.697   0.948  0.0600  0.1879  0.0143
33430SOL    HW1 5228   3.361   2.772   0.962  0.0562  0.2926 -0.5038
33430SOL    HW2 5229   3.334   2.658   0.866 -1.3057  0.9246 -0.8966
33431SOL     OW 5230   1.068   5.132   3.270 -0.4272  0.4639 -0.1248
33431SOL    HW1 5231   1.002   5.077   3.312  0.6906  0.1693  1.3288
33431SOL    HW2 5232   1.033   5.221   3.277 -1.0799  0.2151 -0.1840
33432SOL     OW 5233  10.004   9.312   8.657 -0.4565 -0.3289 -0.6812
33432SOL    HW1 5234  10.001   9.234   8.601 -1.7944  0.6280 -2.0074
33432SOL    HW2 5235  10.027   9.383   8.598  1.6408  0.2129  0.6737
33433SOL     OW 5236   7.703   6.455  11.203 -0.1359  0.4081 -0.0372
33433SOL    HW1 5237   7.692   6.550  11.193 -0.4455  0.2725 -1.1907
33433SOL    HW2 5238   7.645   6.432  11.275  1.8339  1.4299  1.9910
33434SOL     OW 5239   3.263  11.600   3.866  0.2590 -0.3856  0.0611
33434SOL    HW1 5240   3.197  11.598   3.936  0.8100 -0.8072  0.5809
33434SOL    HW2 5241   3.272  11.509   3.839 -1.1817 -0.0336 -1.7668
33435SOL     OW 5242   0.229   3.843   0.740 -0.4143 -0.0761 -0.2377
33435SOL    HW1 5243   0.251   3.820   0.650  0.4640 -4.2679  0.8274
33435SOL    HW2 5244   0.286   3.917   0.761  0.6588 -0.1778 -2.5278
33436SOL     OW 5245   8.827   7.220   7.368 -0.0067  0.0741 -0.2513
33436SOL    HW1 5246   8.774   7.144   7.392 -1.1480  0.1881 -2.1898
33436SOL    HW2 5247   8.817   7.280   7.442  0.0198 -1.1921  0.8219
33437SOL     OW 5248   9.198   5.931   3.961 -0.5290  0.2184 -0.8695
33437SOL    HW1 5249   9.256   5.857   3.981 -0.7188 -1.0660 -4.3997
33437SOL    HW2 5250   9.127   5.892   3.910 -2.4393  2.4092 -0.0420
33438SOL     OW 5251  10.410  11.126   2.591 -0.3955  0.0209 -0.1742
33438SOL    HW1 5252  10.488  11.149   2.539  0.7039  1.3667  1.9170
33438SOL    HW2 5253  10.444  11.076   2.665 -1.4882  0.6907  0.8194
33439SOL     OW 5254  10.582   7.066   5.067  0.3519  0.3514  0.0734
33439SOL    HW1 5255  10.538   7.086   4.984  0.3301  1.9021  0.4228
33439SOL    HW2 5256  10.578   6.971   5.074  1.9043 -0.0123 -2.5648
33440SOL     OW 5257   2.389   2.116   1.739 -0.3163  0.1655 -0.2613
33440SOL    HW1 5258   2.346   2.179   1.681 -0.3895  0.3297 -0.0305
33440SOL    HW2 5259   2.482   2.135   1.730 -0.3237  0.1567 -0.3627
33441SOL     OW 5260   0.741   0.302   8.534  0.0402 -0.0537 -0.0368
33441SOL    HW1 5261   0.749   0.374   8.597 -1.5846  0.3222 -0.2132
33441SOL    HW2 5262   0.741   0.344   8.448  1.0126 -0.4539 -0.2446
33442SOL     OW 5263  11.360   4.221   1.169  0.4754 -0.1879 -0.2486
33442SOL    HW1 5264  11.276   4.199   1.129  0.2599 -0.5694  0.4106
33442SOL    HW2 5265  11.401   4.280   1.106 -0.8620  1.1088  0.0471
33443SOL     OW 5266   8.468   3.694   7.031  0.2195 -0.2331  0.0225
33443SOL    HW1 5267   8.563   3.689   7.020  0.5703  0.9656  1.9478
33443SOL    HW2 5268   8.446   3.784   7.006 -0.4825 -0.6044 -0.7416
33444SOL     OW 5269   0.004   1.830   7.872 -0.1322 -0.1574 -0.1489
33444SOL    HW1 5270   0.058   1.761   7.833  0.6023 -0.0402  0.6152
33444SOL    HW2 5271  -0.002   1.806   7.964 -0.3334  0.5002  0.0128
33445SOL     OW 5272   5.014   2.286  10.515 -0.3492  0.0981  0.3088
33445SOL    HW1 5273   5.092   2.338  10.535  0.9130  0.5730 -4.5549
33445SOL    HW2 5274   5.021   2.210  10.572  3.0492  0.7162  0.9379
33446SOL     OW 5275   5.189  10.941   5.435  0.0550  0.3569 -0.0660
33446SOL    HW1 5276   5.169  10.990   5.515 -1.7669 -0.5439  0.1041
33446SOL    HW2 5277   5.131  10.865   5.439  1.0423 -0.5240 -1.5050
33447SOL     OW 5278   1.097   3.049  10.746  0.0509  0.0272  0.5786
33447SOL    HW1 5279   1.028   3.069  10.683 -0.6076 -1.3312  0.8308
33447SOL    HW2 5280   1.117   2.957  10.731  1.3620  0.2210  0.9627
33448SOL     OW 5281   7.202   4.982   3.708  0.0091 -0.0184 -0.3727
33448SOL    HW1 5282   7.209   5.020   3.795 -0.5756 -1.8576  0.5336
33448SOL    HW2 5283   7.288   4.996   3.668  0.6483 -0.1301  0.9346
33449SOL     OW 5284   1.035   7.982   4.223 -0.1393 -0.0991  0.0463
33449SOL    HW1 5285   1.054   7.936   4.140 -0.6634 -2.0193  0.9289
33449SOL    HW2 5286   0.940   7.978   4.231 -0.1004  0.1736  0.6917
33450SOL     OW 5287   5.853   4.525  10.603 -0.4648  0.1254  0.2964
33450SOL    HW1 5288   5.934   4.525  10.552 -1.1415  1.4069 -0.8538
33450SOL    HW2 5289   5.882   4.508  10.693  1.0733  0.4716 -0.0898
33451SOL     OW 5290   4.067   8.439  10.252  0.1406  0.0652  0.0957
33451SOL    HW1 5291   4.078   8.346  10.234  0.1949  0.2252 -0.7141
33451SOL    HW2 5292   4.074   8.446  10.348 -0.2839 -0.8121  0.1975
33452SOL     OW 5293   4.257  10.108   0.781  0.1400 -0.1404 -0.0154
33452SOL    HW1 5294   4.192  10.066   0.836 -0.4584 -0.7358 -1.1315
33452SOL    HW2 5295   4.210  10.129   0.700  1.1456  0.0861 -0.5575
33453SOL     OW 5296   5.943  11.009   2.249  0.2738 -0.2116 -0.0850
33453SOL    HW1 5297   5.947  11.098   2.213  0.0648 -0.1771 -0.0220
33453SOL    HW2 5298   6.003  10.959   2.194 -0.7692 -0.3799 -1.1030
33454SOL     OW 5299  10.716   8.890   4.169 -0.1512 -0.5774  0.0474
33454SOL    HW1 5300  10.723   8.830   4.244  0.7954 -0.1648  0.3026
33454SOL    HW2 5301  10.672   8.967   4.203  0.5630 -0.2606  0.2688
33455SOL     OW 5302   7.102   4.547   7.045 -0.0026 -0.1620 -0.7282
33455SOL    HW1 5303   7.077   4.604   6.972 -0.6594 -0.2654 -0.5925
33455SOL    HW2 5304   7.041   4.473   7.039  0.5785 -0.6510 -0.6591
33456SOL     OW 5305   4.899   8.756   7.347 -0.0588 -0.0826  0.8469
33456SOL    HW1 5306   4.902   8.805   7.265  0.3155  1.6479  1.8620
33456SOL    HW2 5307   4.976   8.786   7.396 -1.3265  0.4017  2.6400
33457SOL     OW 5308   7.088   7.378   0.369 -0.1312 -0.2337 -0.0498
33457SOL    HW1 5309   7.003   7.386   0.412  0.5904 -0.5438  1.4888
33457SOL    HW2 5310   7.109   7.285   0.372  1.5224  0.1122  2.2357
33458SOL     OW 5311   9.299   0.174   9.147  0.4442 -0.8299 -0.1067
33458SOL    HW1 5312   9.217   0.166   9.195  0.7203 -2.4450  0.1585
33458SOL    HW2 5313   9.274   0.215   9.064 -0.9507 -2.7346 -0.7006
33459SOL     OW 5314   1.302   8.299   8.341  0.3549  0.6882  0.0759
33459SOL    HW1 5315   1.350   8.228   8.384 -0.8046 -0.7661 -0.9325
33459SOL    HW2 5316   1.365   8.338   8.281  0.1085 -1.9075 -2.0533
33460SOL     OW 5317  11.436  10.492   1.264 -0.6787 -0.6602 -0.1418
33460SOL    HW1 5318  11.463  10.439   1.339 -2.9624  1.2634  2.2430
33460SOL    HW2 5319  11.492  10.569   1.268 -2.1037  0.3809  0.9310
33461SOL     OW 5320   6.791   5.688   9.670 -0.1452 -0.4104 -0.1502
33461SOL    HW1 5321   6.781   5.726   9.583  0.0936  1.2689  0.5051
33461SOL    HW2 5322   6.730   5.738   9.725  1.5079  0.3234  1.1214
33462SOL     OW 5323   8.758   6.947  11.613  0.0633  0.2933 -0.5780
33462SOL    HW1 5324   8.843   6.913  11.588 -0.2180 -0.3379 -0.6969
33462SOL    HW2 5325   8.776   7.033  11.651  0.7400  0.1890 -0.6631
33463SOL     OW 5326   3.127   7.414   8.949  0.0799 -0.0943  0.2344
33463SOL    HW1 5327   3.097   7.485   9.007 -0.1187  0.1896 -0.2119
33463SOL    HW2 5328   3.118   7.335   9.002 -1.4564 -0.0277  0.1316
33464SOL     OW 5329   6.285   9.392   4.698  0.5754  0.0490  0.5295
33464SOL    HW1 5330   6.329   9.346   4.769 -3.0521 -1.8200  1.8289
33464SOL    HW2 5331   6.216   9.443   4.741 -1.5896 -0.9262 -1.5527
33465SOL     OW 5332   5.101   2.014   7.261  0.3243  0.9093 -0.7288
33465SOL    HW1 5333   5.092   2.047   7.171  0.2546  0.3836 -0.9186
33465SOL    HW2 5334   5.187   2.044   7.289  0.1952  1.3903 -0.8402
33466SOL     OW 5335   7.417   4.138   8.308 -0.4657  0.0205  0.1619
33466SOL    HW1 5336   7.497   4.138   8.256  0.5155 -0.8179  1.5959
33466SOL    HW2 5337   7.445   4.163   8.396 -2.1415  1.7912  0.2535
33467SOL     OW 5338  10.808   8.249   0.880 -0.4609 -0.4175 -0.3651
33467SOL    HW1 5339  10.887   8.275   0.927 -2.4618  0.6217  2.7195
33467SOL    HW2 5340  10.791   8.322   0.820  1.1264 -0.8972 -1.4637
33468SOL     OW 5341   4.040   2.586   2.702 -0.4416  0.0369  0.4767
33468SOL    HW1 5342   4.084   2.615   2.782 -0.0285 -0.0381  0.2764
33468SOL    HW2 5343   3.989   2.662   2.674 -0.4178  0.1333  0.6903
33469SOL     OW 5344   3.839   6.558   5.361  0.8540  0.5688 -0.2140
33469SOL    HW1 5345   3.780   6.627   5.330  1.4601  1.6802  1.0322
33469SOL    HW2 5346   3.782   6.482   5.374  0.4422  0.1717 -3.3511
33470SOL     OW 5347   0.970   3.285   1.402 -0.5254  0.1575  0.0316
33470SOL    HW1 5348   0.960   3.213   1.464  0.4919  1.4404  1.8102
33470SOL    HW2 5349   0.984   3.243   1.317  1.9486 -1.8243  1.2793
33471SOL     OW 5350   7.162   7.931   2.085  0.0424  0.1073  0.0990
33471SOL    HW1 5351   7.163   7.999   2.017  1.5097  0.3604  0.3378
33471SOL    HW2 5352   7.117   7.857   2.044 -0.3123  0.7214 -0.6645
33472SOL     OW 5353   1.188  10.169   3.135 -0.0170  0.0397  0.5711
33472SOL    HW1 5354   1.125  10.110   3.094 -0.7363  1.9785 -1.2459
33472SOL    HW2 5355   1.172  10.160   3.229 -2.5080 -0.0762  0.1958
33473SOL     OW 5356   0.447  10.918   8.619  0.1498 -0.3022  0.3523
33473SOL    HW1 5357   0.359  10.888   8.595  0.0626 -0.3695  0.7607
33473SOL    HW2 5358   0.499  10.901   8.540 -0.2891  0.1266 -0.0422
33474SOL     OW 5359   8.606   5.356   2.557 -0.0609  0.4196  0.5186
33474SOL    HW1 5360   8.562   5.291   2.502  2.3312 -1.6016  0.8101
33474SOL    HW2 5361   8.541   5.382   2.622 -1.3552 -1.0224 -0.1543
33475SOL     OW 5362   5.944   7.030   5.825 -0.4032  0.2945 -0.3607
33475SOL    HW1 5363   6.021   7.086   5.814 -0.3270  0.1186 -0.7625
33475SOL    HW2 5364   5.875   7.074   5.774  0.1162 -0.8489 -2.1586
33476SOL     OW 5365  10.288   8.033   4.880  0.0117  0.4626 -0.0114
33476SOL    HW1 5366  10.243   7.957   4.844 -0.9839  1.0463 -0.0252
33476SOL    HW2 5367  10.221   8.078   4.932  1.2091 -0.0084  2.0894
33477SOL     OW 5368   3.883   8.790   1.682  0.0720 -1.0274  0.5918
33477SOL    HW1 5369   3.870   8.706   1.725 -1.9518 -0.2397  1.6380
33477SOL    HW2 5370   3.838   8.783   1.598 -0.7514 -0.7522  1.0055
33478SOL     OW 5371   4.998   0.028   9.391  0.5820  0.2185 -0.5458
33478SOL    HW1 5372   4.983   0.120   9.412  0.0188  0.4308 -1.8119
33478SOL    HW2 5373   4.949  -0.021   9.458  0.9167  0.8278  0.1535
33479SOL     OW 5374   0.155   2.422  10.495  0.0553 -0.3529  0.1883
33479SOL    HW1 5375   0.223   2.357  10.478 -0.7863 -0.7114 -2.2092
33479SOL    HW2 5376   0.176   2.495  10.436 -1.2863 -0.2285 -0.1821
33480SOL     OW 5377   7.749  11.486   5.949  0.3305  0.3893 -0.2824
33480SOL    HW1 5378   7.716  11.402   5.980  0.6488  1.0590  2.0893
33480SOL    HW2 5379   7.676  11.523   5.899 -0.2885 -0.7303 -0.2496
33481SOL     OW 5380  11.427   1.872   3.767 -1.0576 -0.3162  0.5433
33481SOL    HW1 5381  11.432   1.780   3.742  0.2325  0.0095 -0.5395
33481SOL    HW2 5382  11.368   1.911   3.703 -1.7134 -0.4044  1.0858
33482SOL     OW 5383   5.375   8.877   3.123 -0.3048  0.4527  0.4306
33482SOL    HW1 5384   5.422   8.900   3.203 -0.0121  1.0192  0.0958
33482SOL    HW2 5385   5.405   8.940   3.058 -2.3083  1.5093  0.4610
33483SOL     OW 5386   4.770   5.742   7.593  0.1507  0.4552  0.4324
33483SOL    HW1 5387   4.749   5.733   7.500  0.6829 -2.7822  0.5009
33483SOL    HW2 5388   4.864   5.724   7.599 -0.1481 -0.9083  1.6959
33484SOL     OW 5389   2.420   2.866   3.007  0.0182 -0.4668 -0.2191
33484SOL    HW1 5390   2.495   2.913   2.970 -0.3951 -0.7263 -1.4294
33484SOL    HW2 5391   2.434   2.870   3.102  0.3851  1.4446 -0.3139
33485SOL     OW 5392   5.873   9.573   3.759  0.4216 -0.5224 -0.1135
33485SOL    HW1 5393   5.962   9.589   3.791  0.7953  1.2640 -1.8654
33485SOL    HW2 5394   5.818   9.634   3.808  0.4870 -0.1500 -0.4999
33486SOL     OW 5395   0.712   2.873  10.136  0.4154 -0.3174 -0.1127
33486SOL    HW1 5396   0.749   2.924  10.064  0.4594 -0.4375 -0.1757
33486SOL    HW2 5397   0.773   2.886  10.209  0.0091  0.3671  0.1195
33487SOL     OW 5398   6.619   1.036   4.397  0.2705 -0.1770 -0.1772
33487SOL    HW1 5399   6.524   1.042   4.386  0.2860  1.5388  0.2840
33487SOL    HW2 5400   6.633   1.038   4.491  0.7697 -0.1903 -0.2474
33488SOL     OW 5401   2.925   1.002   4.675 -0.1967 -0.1154  0.2828
33488SOL    HW1 5402   3.006   1.009   4.725  0.4486 -0.9019 -0.6184
33488SOL    HW2 5403   2.954   0.980   4.586 -1.3791  0.0263 -0.1553
33489SOL     OW 5404  10.437   0.262   6.859  0.1998 -0.3308 -0.2648
33489SOL    HW1 5405  10.355   0.238   6.816 -0.0366 -1.1075  0.5889
33489SOL    HW2 5406  10.505   0.226   6.801 -0.0908 -0.7054 -0.3773
33490SOL     OW 5407   6.995   8.215   6.536  0.6588  0.5543 -0.2187
33490SOL    HW1 5408   7.069   8.183   6.485  2.4863  2.9620  0.7265
33490SOL    HW2 5409   7.029   8.224   6.625 -0.8322  1.5468  0.2965
33491SOL     OW 5410   4.454   7.085  10.845 -0.2604 -0.2902  0.4704
33491SOL    HW1 5411   4.409   7.020  10.790 -1.3903  0.6923  0.1849
33491SOL    HW2 5412   4.385   7.148  10.868  0.5347  0.1243  1.7822
33492SOL     OW 5413   9.786  11.007  10.838  0.0901 -0.2311  0.1347
33492SOL    HW1 5414   9.819  10.919  10.816 -1.7849 -1.1418  0.7517
33492SOL    HW2 5415   9.700  10.991  10.875  0.2871  1.7992  1.5939
33493SOL     OW 5416   0.069   3.652   8.241  0.6634 -0.1030 -0.1770
33493SOL    HW1 5417   0.048   3.704   8.163  0.1580 -0.5068 -0.3150
33493SOL    HW2 5418   0.032   3.704   8.313  0.3554 -0.1538 -0.2930
33494SOL     OW 5419   4.666  10.740   0.932 -0.1126  0.1398  0.2084
33494SOL    HW1 5420   4.618  10.821   0.914 -0.0336  0.0817 -0.2598
33494SOL    HW2 5421   4.616  10.672   0.888  1.6183  0.3592 -2.3261
33495SOL     OW 5422  11.673   6.387   1.776 -0.4276 -0.2030  0.0756
33495SOL    HW1 5423  11.620   6.323   1.729 -0.6445  0.9166 -1.2527
33495SOL    HW2 5424  11.734   6.334   1.827  0.8694 -1.5547 -2.6319
33496SOL     OW 5425   1.531   8.856   7.642 -0.4584  0.1107 -0.6563
33496SOL    HW1 5426   1.477   8.882   7.568 -0.1820  0.7233 -0.6498
33496SOL    HW2 5427   1.494   8.903   7.716  1.1575  1.9663 -0.9616
33497SOL     OW 5428   7.106   0.440   3.659  0.3126 -0.8180  0.4058
33497SOL    HW1 5429   7.029   0.401   3.618  1.4260 -1.9213 -0.7197
33497SOL    HW2 5430   7.135   0.376   3.723  1.0692 -1.0299 -0.1329
33498SOL     OW 5431   2.843  10.611   3.271  0.3369  0.0678 -0.1965
33498SOL    HW1 5432   2.749  10.605   3.256  0.2224 -1.0578  0.8334
33498SOL    HW2 5433   2.864  10.704   3.259 -0.9552  0.3835 -0.0713
33499SOL     OW 5434   0.777   3.833   2.455 -0.6612  0.2030 -0.5883
33499SOL    HW1 5435   0.755   3.924   2.476 -1.1293 -0.0625  0.1243
33499SOL    HW2 5436   0.762   3.785   2.537  0.3443 -0.3887 -0.7294
33500SOL     OW 5437  10.502  10.021  10.506  0.4375  0.0676  0.0474
33500SOL    HW1 5438  10.479  10.112  10.485  1.4293  0.8442  2.1454
33500SOL    HW2 5439  10.579  10.003  10.452  1.0909  0.9649  0.6616
33501SOL     OW 5440   7.775   5.909   7.693  0.2402 -0.2766  0.2643
33501SOL    HW1 5441   7.782   5.824   7.737 -0.4856 -0.6935 -0.3890
33501SOL    HW2 5442   7.844   5.907   7.627  1.5986  0.5188  1.6223
33502SOL     OW 5443   8.947   6.070   4.183 -0.1792  0.1147  0.3136
33502SOL    HW1 5444   8.950   6.101   4.273 -0.4721 -0.2575  0.4536
33502SOL    HW2 5445   9.038   6.051   4.161 -0.2030 -0.5822  0.8121
33503SOL     OW 5446   5.094   7.413   5.032  0.2180 -0.0149 -0.6643
33503SOL    HW1 5447   5.122   7.457   4.951  2.7266 -3.0693 -1.6642
33503SOL    HW2 5448   5.150   7.336   5.038 -0.5199 -0.4478  3.5739
33504SOL     OW 5449   3.596   4.088   7.776  0.1671 -0.0397  0.4188
33504SOL    HW1 5450   3.617   4.171   7.734 -1.6721  0.4594  0.4163
33504SOL    HW2 5451   3.674   4.034   7.762  1.2415  1.5310  0.0853
33505SOL     OW 5452   4.297  10.987   9.550  0.5321 -0.2763 -0.9999
33505SOL    HW1 5453   4.282  10.952   9.462  1.1802 -0.4141 -1.0625
33505SOL    HW2 5454   4.309  10.910   9.604 -1.1724 -0.2450 -0.5193
33506SOL     OW 5455   7.128   4.116  11.064  0.7594  0.5207 -0.3478
33506SOL    HW1 5456   7.110   4.149  10.975 -3.1454 -0.1478  0.0035
33506SOL    HW2 5457   7.118   4.193  11.120 -0.8457  0.2213 -0.1864
33507SOL     OW 5458   3.147   8.250   5.424 -0.7188  0.0944  0.1144
33507SOL    HW1 5459   3.164   8.162   5.388 -0.6580 -0.4950  1.5376
33507SOL    HW2 5460   3.182   8.310   5.357  0.5528 -0.9813 -0.2332
33508SOL     OW 5461  11.196   3.214   9.178 -0.4172  0.2435 -0.1505
33508SOL    HW1 5462  11.126   3.188   9.237  0.7379  0.8313  1.5458
33508SOL    HW2 5463  11.276   3.179   9.218  0.6503  2.4808 -0.1727
33509SOL     OW 5464   0.182  10.627   3.637  0.7885 -0.4706 -0.5828
33509SOL    HW1 5465   0.258  10.653   3.689  0.0722  0.9132 -0.1577
33509SOL    HW2 5466   0.110  10.680   3.672 -0.4744 -2.0553 -0.6901
33510SOL     OW 5467   5.837   5.945   7.178  0.0761 -0.1888 -0.2043
33510SOL    HW1 5468   5.897   5.916   7.110 -1.8801 -0.5815 -1.8588
33510SOL    HW2 5469   5.766   5.881   7.176 -0.6624  0.5214  1.3402
33511SOL     OW 5470  11.614   2.254  10.465  0.1218  0.2702 -0.4352
33511SOL    HW1 5471  11.637   2.188  10.531 -0.8307  0.6275  0.2823
33511SOL    HW2 5472  11.684   2.319  10.470 -0.6801  1.0658  1.3130
33512SOL     OW 5473   0.437   4.723   3.750  0.2686 -0.1013 -0.2761
33512SOL    HW1 5474   0.448   4.628   3.743 -1.5826 -0.4256  0.6527
33512SOL    HW2 5475   0.421   4.738   3.843  1.8547  1.3108 -0.1970
33513SOL     OW 5476  11.431  10.461  10.934 -0.5143 -0.5604  0.0586
33513SOL    HW1 5477  11.406  10.368  10.939 -2.8417 -0.0943 -1.2964
33513SOL    HW2 5478  11.362  10.506  10.982  1.1328  0.4610  1.5664
33514SOL     OW 5479   5.880   4.063   6.201 -0.3341 -0.1632  0.5201
33514SOL    HW1 5480   5.815   4.046   6.134  0.7730 -2.0478 -0.1359
33514SOL    HW2 5481   5.896   3.978   6.242  2.5254 -0.0535 -0.1333
33515SOL     OW 5482   2.335  10.768   4.193 -0.1179  0.0640  0.4643
33515SOL    HW1 5483   2.278  10.696   4.219 -1.9093  1.5481  0.8403
33515SOL    HW2 5484   2.345  10.758   4.099 -1.1380 -0.1467  0.3663
33516SOL     OW 5485   0.589   1.748   9.954  0.2761  0.7485 -0.1834
33516SOL    HW1 5486   0.622   1.713   9.871 -0.6532  1.4486 -0.8743
33516SOL    HW2 5487   0.578   1.842   9.938 -1.8881  0.5770  0.0362
33517SOL     OW 5488   2.450   3.632   7.875 -0.2276  0.4167  0.0366
33517SOL    HW1 5489   2.518   3.564   7.870 -0.3127  0.3306  0.0356
33517SOL    HW2 5490   2.367   3.583   7.866 -0.2493  0.7076 -2.0113
33518SOL     OW 5491   2.136   2.654   4.930 -0.4097  0.0239  0.0692
33518SOL    HW1 5492   2.067   2.594   4.959  0.8628 -2.6366 -1.9608
33518SOL    HW2 5493   2.122   2.662   4.836 -0.1183  2.4721  0.1857
33519SOL     OW 5494   5.478   5.799   7.634  0.2717 -0.3268  0.0810
33519SOL    HW1 5495   5.477   5.869   7.568  0.5068 -0.7158 -0.3422
33519SOL    HW2 5496   5.546   5.826   7.696  1.3029 -0.8170 -0.7992
33520SOL     OW 5497   2.394   6.002   4.411  0.4096  0.2266  0.2887
33520SOL    HW1 5498   2.484   5.972   4.424  0.6788  0.1521 -1.4083
33520SOL    HW2 5499   2.389   6.021   4.317 -1.4099  0.0259  0.3068
33521SOL     OW 5500   5.714   9.180  11.573  0.0893  0.7896  0.3796
33521SOL    HW1 5501   5.719   9.211  11.483 -2.0647  0.4815  0.0968
33521SOL    HW2 5502   5.746   9.090  11.569  3.5661  1.8491  0.6833
33522SOL     OW 5503   6.763   6.013   9.954 -0.1398 -0.4809  1.1564
33522SOL    HW1 5504   6.727   5.926   9.966  1.3509 -1.3417 -0.2485
33522SOL    HW2 5505   6.686   6.071   9.952 -1.5805 -2.2619 -2.2626
33523SOL     OW 5506  10.115   9.469   2.835  0.5798  0.4890 -0.2014
33523SOL    HW1 5507  10.205   9.438   2.826  0.1004 -0.8889 -0.3398
33523SOL    HW2 5508  10.097   9.461   2.928  1.0672  2.1937  0.0881
33524SOL     OW 5509   3.019   9.086  10.698 -0.2220 -0.3213  0.6424
33524SOL    HW1 5510   3.077   9.050  10.631 -1.6298 -2.3424  0.3813
33524SOL    HW2 5511   2.931   9.073  10.662 -0.9326  3.3769  0.6451
33525SOL     OW 5512   4.679   3.626   6.799  0.5026 -0.0834 -0.2100
33525SOL    HW1 5513   4.601   3.571   6.797  0.6302 -0.2446 -2.4706
33525SOL    HW2 5514   4.744   3.573   6.847 -0.0492 -0.9392 -0.3813
33526SOL     OW 5515   1.759   9.317   0.021  0.5109  0.4226 -0.2662
33526SOL    HW1 5516   1.709   9.399   0.019 -1.6443 -0.8082  0.6366
33526SOL    HW2 5517   1.753   9.283  -0.068 -0.8810 -0.0264 -0.0253
33527SOL     OW 5518   1.307   3.429   5.771 -0.3405 -0.7599  0.2944
33527SOL    HW1 5519   1.235   3.485   5.740  0.7299 -0.2404 -1.4164
33527SOL    HW2 5520   1.303   3.352   5.714 -1.2140 -2.0619  2.0137
33528SOL     OW 5521   8.418  10.672   7.932 -0.3018  0.2737 -0.1636
33528SOL    HW1 5522   8.473  10.619   7.875 -1.0729 -0.5423 -0.1794
33528SOL    HW2 5523   8.342  10.616   7.951 -1.3908  1.5449 -0.5784
33529SOL     OW 5524   6.958   1.839   5.649 -0.5945  0.7198  0.4287
33529SOL    HW1 5525   6.927   1.824   5.560  0.3267  1.6420 -0.0670
33529SOL    HW2 5526   6.951   1.933   5.662 -0.2945  0.6522  1.1683
33530SOL     OW 5527   0.836   2.673   7.995 -0.0811  0.4872  0.0283
33530SOL    HW1 5528   0.883   2.679   7.912 -0.9642 -0.0672 -0.5315
33530SOL    HW2 5529   0.778   2.598   7.984 -1.5498  1.5090  0.4547
33531SOL     OW 5530   0.515   2.576   5.446  0.0899 -0.2834  0.5299
33531SOL    HW1 5531   0.442   2.567   5.384  2.3956 -1.3812 -2.2725
33531SOL    HW2 5532   0.503   2.505   5.509 -0.4527 -1.4781 -0.8553
33532SOL     OW 5533   4.531   9.393   3.402 -0.3808 -0.3980 -0.3467
33532SOL    HW1 5534   4.558   9.399   3.493 -0.3897 -1.0955 -0.2960
33532SOL    HW2 5535   4.436   9.378   3.406 -0.5655  0.6270 -0.4974
33533SOL     OW 5536   3.863   6.159   5.376 -0.3774  0.3973 -0.1399
33533SOL    HW1 5537   3.902   6.087   5.326 -0.4653 -0.4726  1.0045
33533SOL    HW2 5538   3.932   6.226   5.379  0.2324 -0.2302  0.0079
33534SOL     OW 5539   6.009   1.987   0.410 -0.3033 -0.0805 -0.0200
33534SOL    HW1 5540   6.067   2.038   0.354 -0.2605 -0.3981 -0.2666
33534SOL    HW2 5541   5.926   1.985   0.363 -0.8251  1.2315  0.8013
33535SOL     OW 5542   5.060   9.038   9.319 -0.2642 -0.3115  0.4769
33535SOL    HW1 5543   4.974   9.080   9.329 -0.1021 -0.1596  1.2668
33535SOL    HW2 5544   5.041   8.945   9.316 -0.5334 -0.2393 -0.2323
33536SOL     OW 5545   6.089  10.529   0.345 -0.1090  0.1506  0.7334
33536SOL    HW1 5546   6.097  10.484   0.429 -1.3290 -0.4146  0.5539
33536SOL    HW2 5547   6.176  10.519   0.305  0.6262  0.7882  2.0725
33537SOL     OW 5548   1.901   7.250   8.066 -0.4828 -0.2443  0.0745
33537SOL    HW1 5549   1.924   7.200   7.988  1.7398  1.7819 -0.6985
33537SOL    HW2 5550   1.985   7.286   8.097 -1.6725  1.2621  1.7616
33538SOL     OW 5551   7.842   5.857   0.165 -0.5208 -0.2017 -0.1596
33538SOL    HW1 5552   7.760   5.901   0.141  0.0727  1.0644  0.0291
33538SOL    HW2 5553   7.842   5.856   0.260  0.3531  1.1991 -0.1121
33539SOL     OW 5554   1.669   4.203   5.241 -0.1434 -0.1064 -0.2188
33539SOL    HW1 5555   1.643   4.112   5.223  0.0404 -0.6671  2.0793
33539SOL    HW2 5556   1.586   4.248   5.258 -0.0969 -0.4282  0.9528
33540SOL     OW 5557  10.610   3.540   6.720 -0.2828  0.1468  0.1630
33540SOL    HW1 5558  10.654   3.604   6.664 -0.5536 -0.0415 -0.2728
33540SOL    HW2 5559  10.581   3.472   6.659 -1.4260  0.4040  0.3980
33541SOL     OW 5560   2.103   7.316   1.209  0.0406  0.1233 -0.1481
33541SOL    HW1 5561   2.033   7.371   1.245  0.6886 -0.0901  1.5220
33541SOL    HW2 5562   2.057   7.242   1.170 -0.6918 -0.0749  1.0408
33542SOL     OW 5563   0.008   2.645   3.543 -0.0172  0.7019  0.1034
33542SOL    HW1 5564   0.092   2.643   3.590 -0.6100 -0.3890  1.1845
33542SOL    HW2 5565   0.008   2.566   3.490 -0.2551  0.8309 -0.0882
33543SOL     OW 5566   6.605   3.332   5.966 -0.2757 -0.1692  0.4967
33543SOL    HW1 5567   6.581   3.401   5.905  2.2515 -1.0576 -1.6897
33543SOL    HW2 5568   6.668   3.277   5.918  0.5399 -1.9530  3.3127
33544SOL     OW 5569   9.465  11.143   6.495 -0.3788  0.8669  0.0316
33544SOL    HW1 5570   9.488  11.236   6.495  0.6243  0.6765  2.3857
33544SOL    HW2 5571   9.545  11.098   6.518 -0.8415 -0.6294 -1.1402
33545SOL     OW 5572   1.605   8.699   3.071 -0.6025 -0.0208 -0.2575
33545SOL    HW1 5573   1.584   8.614   3.034 -0.7406  0.1323 -0.5294
33545SOL    HW2 5574   1.693   8.688   3.106 -0.7064 -0.3413 -0.0913
33546SOL     OW 5575   6.871   9.564   1.851 -0.1101  0.2326 -0.3257
33546SOL    HW1 5576   6.876   9.657   1.873  3.5315  0.7815 -2.6556
33546SOL    HW2 5577   6.925   9.521   1.918  0.6713  0.2432 -0.9360
33547SOL     OW 5578   6.781  10.392   0.899  0.1095  0.3147 -0.1049
33547SOL    HW1 5579   6.874  10.412   0.910 -0.1942  1.6853  0.1733
33547SOL    HW2 5580   6.748  10.376   0.987 -0.7304  3.8764  0.3806
33548SOL     OW 5581   2.720   5.013   1.185  0.3142 -0.2261 -0.3646
33548SOL    HW1 5582   2.676   4.987   1.266  1.1642  2.1570  0.9926
33548SOL    HW2 5583   2.660   4.987   1.115  0.0613 -3.3976  0.8885
33549SOL     OW 5584   5.040  11.079  11.325 -0.1305  0.1772  0.4865
33549SOL    HW1 5585   5.047  11.000  11.272  2.4874  0.2896  0.5665
33549SOL    HW2 5586   5.028  11.046  11.414 -0.9912 -0.0669  0.2924
33550SOL     OW 5587   4.738   6.767  10.735 -0.2021  0.1456 -0.3865
33550SOL    HW1 5588   4.680   6.735  10.804 -0.5486 -1.1929 -1.2643
33550SOL    HW2 5589   4.701   6.731  10.654  1.0538  0.4289 -1.1064
33551SOL     OW 5590   6.135   1.359   9.153  0.1742  0.0984  0.4930
33551SOL    HW1 5591   6.179   1.356   9.068 -1.4947 -0.6249 -0.4134
33551SOL    HW2 5592   6.161   1.278   9.197  0.2978  0.0167  0.2708
33552SOL     OW 5593   8.560   4.303   5.947  0.4064 -0.2567 -0.8966
33552SOL    HW1 5594   8.533   4.211   5.951 -0.9091  0.1525  0.8175
33552SOL    HW2 5595   8.628   4.311   6.014 -0.6699  0.3616  0.1397
33553SOL     OW 5596   6.015   5.338   1.187 -0.5685 -0.4263  0.0395
33553SOL    HW1 5597   6.082   5.346   1.255 -1.6416  0.6361  1.0195
33553SOL    HW2 5598   6.064   5.335   1.105  0.7836 -1.9434  0.8238
33554SOL     OW 5599  11.070   6.054   1.225 -0.1831  0.3149 -0.0964
33554SOL    HW1 5600  11.060   6.045   1.131 -0.3272 -1.2380  0.0479
33554SOL    HW2 5601  11.147   6.111   1.236 -1.0950  1.8234 -1.1220
33555SOL     OW 5602   5.341   6.642   1.410  0.0292 -0.0802 -0.5147
33555SOL    HW1 5603   5.373   6.571   1.466  0.3904  0.7014  0.3085
33555SOL    HW2 5604   5.285   6.599   1.346  1.0007 -1.2234 -0.6376
33556SOL     OW 5605   4.702   8.411  10.610  0.0111  0.2521 -0.1174
33556SOL    HW1 5606   4.757   8.443  10.538  1.0282  0.6676  0.8147
33556SOL    HW2 5607   4.616   8.398  10.570  0.9231 -1.0714 -1.7866
33557SOL     OW 5608  11.354   2.526   1.107  0.0550  0.1387  0.2093
33557SOL    HW1 5609  11.414   2.593   1.074 -0.3603  0.8894  0.9453
33557SOL    HW2 5610  11.393   2.496   1.189 -0.7422  0.8960  0.8826
33558SOL     OW 5611   7.501   0.165   4.146  0.1332 -0.1930 -0.2461
33558SOL    HW1 5612   7.556   0.120   4.082 -1.1747 -2.5259  0.1908
33558SOL    HW2 5613   7.456   0.233   4.095  1.1292 -0.2385 -1.2208
33559SOL     OW 5614   5.086   7.602   4.280  0.6696 -0.3461  0.2192
33559SOL    HW1 5615   5.072   7.682   4.331 -0.1569 -0.4031  0.0964
33559SOL    HW2 5616   5.109   7.632   4.193 -0.5098 -0.2230 -0.0644
33560SOL     OW 5617   4.083   9.876   3.894 -0.2728  0.5840  0.3074
33560SOL    HW1 5618   4.070   9.807   3.830  0.9548 -0.3926  1.0635
33560SOL    HW2 5619   4.038   9.845   3.972 -0.5779  1.1167  0.3468
33561SOL     OW 5620  11.267   4.894   7.775  0.2486  0.2393  1.0103
33561SOL    HW1 5621  11.322   4.960   7.732  0.1836  0.0698  0.6626
33561SOL    HW2 5622  11.268   4.918   7.867  1.4558 -0.1525  1.1154
33562SOL     OW 5623  10.842   7.935   8.447 -0.4487 -0.2548 -0.7751
33562SOL    HW1 5624  10.803   7.987   8.378 -0.9044  0.9275  0.3303
33562SOL    HW2 5625  10.933   7.921   8.419 -0.7267 -0.1234 -1.7639
33563SOL     OW 5626   8.641   6.546   2.807  0.2499 -0.1884  0.1819
33563SOL    HW1 5627   8.718   6.501   2.842  0.9635  0.1351 -0.9291
33563SOL    HW2 5628   8.674   6.597   2.734 -1.0408 -0.1013 -0.3715
33564SOL     OW 5629  11.584   4.938   0.947 -0.5863  0.3309  0.3447
33564SOL    HW1 5630  11.667   4.981   0.966 -0.2014 -1.6099  3.7706
33564SOL    HW2 5631  11.521   5.010   0.938  1.0744  1.7530 -0.4269
33565SOL     OW 5632   5.828   2.965   4.662  0.6357  0.4771 -0.0118
33565SOL    HW1 5633   5.901   3.026   4.666  0.2399  0.9461  0.0958
33565SOL    HW2 5634   5.764   3.008   4.606 -0.6012  1.1936  1.8642
33566SOL     OW 5635   6.876   0.748   1.628  0.8609  0.4462 -0.0621
33566SOL    HW1 5636   6.823   0.820   1.661  1.3189  0.8642 -0.2361
33566SOL    HW2 5637   6.842   0.731   1.540  0.7137  0.4053  0.0019
33567SOL     OW 5638   0.714   8.162   4.893  0.4559  0.3001  0.1126
33567SOL    HW1 5639   0.712   8.225   4.965 -0.1715  0.5698 -0.1304
33567SOL    HW2 5640   0.766   8.205   4.825  0.4735  0.3361  0.1488
33568SOL     OW 5641   8.960   4.327   3.897 -0.4726 -0.3150 -0.4435
33568SOL    HW1 5642   8.913   4.364   3.972 -0.0298 -1.6848  0.5501
33568SOL    HW2 5643   9.052   4.345   3.914  0.0111 -3.6193  1.2143
33569SOL     OW 5644   9.510   7.154   1.285  0.1003 -0.0100  0.7989
33569SOL    HW1 5645   9.453   7.226   1.256  1.9489  0.1896 -2.8878
33569SOL    HW2 5646   9.595   7.196   1.302  0.9165 -1.1338 -0.3641
33570SOL     OW 5647   2.021   0.500   6.356  0.1442  0.2084  0.0418
33570SOL    HW1 5648   2.087   0.533   6.417  1.9681  1.4344 -2.4170
33570SOL    HW2 5649   2.058   0.418   6.323 -1.1798 -0.8378  1.0983
33571SOL     OW 5650   1.588   9.889   1.385  0.6310  0.9202  0.2206
33571SOL    HW1 5651   1.507   9.870   1.433  0.5008  0.8464 -0.0263
33571SOL    HW2 5652   1.614   9.805   1.347  0.2725  1.1309 -0.5339
33572SOL     OW 5653   9.651  10.118   6.133 -0.1022 -0.0008 -0.2589
33572SOL    HW1 5654   9.675  10.186   6.070 -0.8273 -0.7957 -1.4385
33572SOL    HW2 5655   9.555  10.120   6.134 -0.2552  2.4211  3.5672
33573SOL     OW 5656   2.955   5.265  10.641  0.2235 -0.1956  0.1033
33573SOL    HW1 5657   2.962   5.197  10.574  0.8861  0.5809 -0.6371
33573SOL    HW2 5658   2.935   5.345  10.593  1.2827  0.4885  0.7450
33574SOL     OW 5659   8.907  11.181   9.396  0.5324 -0.5360  0.0615
33574SOL    HW1 5660   9.002  11.172   9.389  0.3439 -1.5947 -1.7396
33574SOL    HW2 5661   8.883  11.240   9.325 -0.4354 -2.9546 -1.7816
33575SOL     OW 5662   4.815   7.324   6.964  0.2591  0.0830  0.0647
33575SOL    HW1 5663   4.896   7.333   6.913  0.2789 -0.1142  0.0593
33575SOL    HW2 5664   4.782   7.237   6.941  1.0889 -0.6763  1.5690
33576SOL     OW 5665   5.502   0.470   2.151  0.0159  0.1555 -0.2338
33576SOL    HW1 5666   5.480   0.462   2.244  0.3634 -0.2652 -0.1851
33576SOL    HW2 5667   5.417   0.475   2.107 -0.1534  1.9391  0.2232
33577SOL     OW 5668  11.549  11.374   8.157 -0.1440 -0.6691  0.5150
33577SOL    HW1 5669  11.457  11.350   8.142 -0.2923 -0.0400  0.3605
33577SOL    HW2 5670  11.574  11.422   8.077  0.6800 -1.8266  0.0539
33578SOL     OW 5671  11.014   3.729   8.092 -0.6163 -0.3378 -0.1834
33578SOL    HW1 5672  11.047   3.749   8.004 -2.3653  2.3202 -0.3657
33578SOL    HW2 5673  11.048   3.799   8.147 -1.2290 -0.7983  0.8078
33579SOL     OW 5674   7.171   8.662   5.817  0.9257 -0.3058 -0.2071
33579SOL    HW1 5675   7.231   8.592   5.788  0.9208 -0.2322 -0.3971
33579SOL    HW2 5676   7.090   8.645   5.770  0.9138 -0.1900 -0.2284
33580SOL     OW 5677   0.946   2.828   2.507 -0.5576 -0.3035  0.1771
33580SOL    HW1 5678   0.914   2.761   2.567  0.1727 -1.3450 -0.5720
33580SOL    HW2 5679   0.867   2.863   2.466 -1.0245  0.0596  1.3434
33581SOL     OW 5680  11.015   1.197   0.853 -0.5187 -0.0742 -0.3208
33581SOL    HW1 5681  10.995   1.228   0.942  0.7518  3.1367 -1.0236
33581SOL    HW2 5682  11.108   1.214   0.842 -0.7881  0.2969 -2.4910
33582SOL     OW 5683  11.210   9.194  10.503 -0.0845  0.4002 -0.3386
33582SOL    HW1 5684  11.287   9.222  10.454  0.3234  0.3228  0.2465
33582SOL    HW2 5685  11.240   9.187  10.594  0.0784 -2.7460 -0.5240
33583SOL     OW 5686   9.600   5.580  10.592  0.3324  0.5286  0.0372
33583SOL    HW1 5687   9.623   5.651  10.653 -1.1223  0.1548  1.0629
33583SOL    HW2 5688   9.511   5.601  10.564 -0.9231 -1.8972  1.9025
33584SOL     OW 5689   6.582   7.715   1.773 -0.0555  0.3305  0.4067
33584SOL    HW1 5690   6.606   7.791   1.826  0.2232  1.2930 -1.0643
33584SOL    HW2 5691   6.626   7.728   1.690 -0.9113 -0.8790 -0.2699
33585SOL     OW 5692   0.968   8.259   7.121  0.3613  0.4963 -0.1630
33585SOL    HW1 5693   0.918   8.255   7.039  1.4138 -0.9603 -0.7862
33585SOL    HW2 5694   0.972   8.352   7.142 -0.8536  0.8130 -1.1777
33586SOL     OW 5695   8.504   0.684   2.310  0.4898  0.0591  0.3217
33586SOL    HW1 5696   8.516   0.612   2.248 -0.4487  1.4898 -1.6353
33586SOL    HW2 5697   8.544   0.760   2.267  1.6532  0.7253  2.4172
33587SOL     OW 5698  10.544   0.104   6.186 -0.0422  0.2702 -0.3687
33587SOL    HW1 5699  10.518   0.192   6.211  0.0535  0.3651 -0.6062
33587SOL    HW2 5700  10.632   0.113   6.152  0.7525 -0.2098  1.4332
33588SOL     OW 5701   1.013   7.324   7.711 -0.7910 -0.2025  0.4607
33588SOL    HW1 5702   1.038   7.279   7.630 -0.9919 -0.9888  0.8188
33588SOL    HW2 5703   1.091   7.319   7.765  0.0023  2.0418 -0.3759
33589SOL     OW 5704   1.918   3.315   0.659 -0.8592 -0.0168  0.4853
33589SOL    HW1 5705   1.985   3.373   0.696 -1.0657  0.0856  0.6967
33589SOL    HW2 5706   1.902   3.250   0.727  1.4762 -2.1057 -0.7885
33590SOL     OW 5707   2.320  10.633   9.900  0.0739 -0.6387 -0.1511
33590SOL    HW1 5708   2.402  10.586   9.883  1.6846  1.4767  1.1347
33590SOL    HW2 5709   2.289  10.597   9.983 -1.2346 -2.5332 -1.3848
33591SOL     OW 5710   5.866   1.712   9.075 -0.1134  0.3394  0.0044
33591SOL    HW1 5711   5.838   1.779   9.138 -1.4828 -2.0887  2.2081
33591SOL    HW2 5712   5.785   1.688   9.030  0.2393 -0.2262 -0.3262
33592SOL     OW 5713   4.943   9.235  10.831  0.1957 -0.4008 -0.0724
33592SOL    HW1 5714   4.972   9.288  10.905 -0.4425 -0.0562 -0.0665
33592SOL    HW2 5715   4.869   9.185  10.864 -1.1352  0.9512 -0.8996
33593SOL     OW 5716  10.877   3.032   6.868  0.2811  0.3965 -0.2171
33593SOL    HW1 5717  10.873   3.106   6.929 -1.3068  0.2057 -0.0424
33593SOL    HW2 5718  10.865   3.071   6.782 -3.2312  0.1902  0.0474
33594SOL     OW 5719  11.315   5.282   2.763 -0.2499  0.9905 -0.1544
33594SOL    HW1 5720  11.232   5.299   2.807  0.1501  1.0343  0.6117
33594SOL    HW2 5721  11.355   5.211   2.814  0.1418  0.9098 -0.5654
33595SOL     OW 5722   2.993  10.907   3.647 -0.2343  0.5824 -0.1904
33595SOL    HW1 5723   2.933  10.891   3.720 -0.5710  1.4970 -0.2528
33595SOL    HW2 5724   3.079  10.885   3.682 -0.3229  1.4978  0.6598
33596SOL     OW 5725   9.247   2.931   7.325  0.5516  0.0957  0.0156
33596SOL    HW1 5726   9.155   2.911   7.341  0.6145 -0.1017  0.1299
33596SOL    HW2 5727   9.294   2.851   7.349  0.6329 -0.2926 -1.3577
33597SOL     OW 5728   7.613   4.867   8.514 -0.6854 -0.0930 -0.0261
33597SOL    HW1 5729   7.671   4.806   8.469 -0.6173  0.7318 -1.1148
33597SOL    HW2 5730   7.526   4.849   8.477 -0.6505  0.5097 -0.4184
33598SOL     OW 5731  10.521  10.206   1.003 -0.3899 -0.3872  0.4811
33598SOL    HW1 5732  10.535  10.140   0.935 -1.1121 -1.2618  1.1436
33598SOL    HW2 5733  10.608  10.241   1.021  0.2126 -2.0559  0.9816
33599SOL     OW 5734   6.373  10.156   5.632 -0.5352  0.3647 -0.0729
33599SOL    HW1 5735   6.372  10.106   5.550 -0.3946 -1.3727  0.9517
33599SOL    HW2 5736   6.281  10.173   5.651 -0.5522  1.1086 -0.7732
33600SOL     OW 5737   9.682   7.716   5.881 -0.2235  0.1997 -0.3087
33600SOL    HW1 5738   9.664   7.800   5.839 -0.7038 -0.1649 -0.8437
33600SOL    HW2 5739   9.735   7.667   5.817  0.7224  0.3796  0.3137
33601SOL     OW 5740   2.723   0.777   3.320 -0.4295  0.8088  0.6049
33601SOL    HW1 5741   2.637   0.748   3.349  0.2282 -1.3537  0.5698
33601SOL    HW2 5742   2.749   0.713   3.253  1.4081  1.0986  0.9829
33602SOL     OW 5743   8.322  10.220   1.543 -0.5067  0.3410 -0.2945
33602SOL    HW1 5744   8.301  10.218   1.636  1.1173 -3.1332  0.1551
33602SOL    HW2 5745   8.406  10.265   1.538 -0.8310  0.9714 -0.1780
33603SOL     OW 5746   5.462   7.047   1.669  0.6843 -0.3206 -0.4647
33603SOL    HW1 5747   5.547   7.034   1.628  1.4189  1.0270  0.5208
33603SOL    HW2 5748   5.463   6.988   1.745  0.6913 -0.3958 -0.5233
33604SOL     OW 5749   8.848   2.062  11.387 -0.6554  0.0274 -0.1692
33604SOL    HW1 5750   8.939   2.033  11.380 -0.7548 -1.0687  2.2116
33604SOL    HW2 5751   8.851   2.155  11.368  1.1499  0.2190  0.8685
33605SOL     OW 5752   7.924   4.400   6.773  0.3658  0.0066  0.5044
33605SOL    HW1 5753   7.884   4.392   6.859 -1.0226 -0.1605 -0.1254
33605SOL    HW2 5754   7.928   4.495   6.757 -1.0108  0.0128  0.0542
33606SOL     OW 5755  10.760   3.933   9.973  0.0161 -0.0232  0.4634
33606SOL    HW1 5756  10.744   3.852   9.925  0.6580  0.0308  0.1505
33606SOL    HW2 5757  10.686   3.990   9.950 -0.1832 -0.3433  0.3079
33607SOL     OW 5758   5.096   4.503   4.371 -0.1511  0.0320 -0.0880
33607SOL    HW1 5759   5.029   4.447   4.410 -0.5219  1.9158  2.2087
33607SOL    HW2 5760   5.057   4.532   4.288 -1.2312 -0.6713  0.1479
33608SOL     OW 5761   2.729   9.892  10.132 -0.3075  0.0121  0.1681
33608SOL    HW1 5762   2.707   9.827  10.065 -1.0106  1.2191 -0.8012
33608SOL    HW2 5763   2.682   9.863  10.210  0.2005 -1.1907  0.0420
33609SOL     OW 5764   2.050   2.208   3.463  0.0358  0.1608 -0.7378
33609SOL    HW1 5765   1.961   2.212   3.497 -0.3380 -0.6245 -1.5798
33609SOL    HW2 5766   2.040   2.178   3.373  1.1995 -0.7183 -0.6025
33610SOL     OW 5767   6.430   1.792   6.318  1.1527 -0.1055 -0.7700
33610SOL    HW1 5768   6.421   1.790   6.222 -3.6366  1.2469 -0.6074
33610SOL    HW2 5769   6.416   1.701   6.345  0.9208 -0.2278 -1.2822
33611SOL     OW 5770  11.617   1.708  10.506  0.0855  0.6623  0.0110
33611SOL    HW1 5771  11.680   1.693  10.435 -0.2779  0.8666 -0.3579
33611SOL    HW2 5772  11.671   1.733  10.581  0.5377 -0.2894  0.0243
33612SOL     OW 5773   1.138   6.858   3.665  0.0143 -0.1116  0.8811
33612SOL    HW1 5774   1.078   6.931   3.655 -2.1739 -1.9268 -0.1805
33612SOL    HW2 5775   1.224   6.893   3.641 -1.3573  1.4550 -2.3352
33613SOL     OW 5776  10.728   9.808   6.308  0.2123 -0.8929  0.1274
33613SOL    HW1 5777  10.805   9.862   6.289 -0.1958 -0.7516 -1.1906
33613SOL    HW2 5778  10.679   9.859   6.372  0.6292 -0.4376  0.0928
33614SOL     OW 5779   3.489  10.456   7.515  0.1913 -0.5989 -0.1101
33614SOL    HW1 5780   3.444  10.486   7.436  0.1143  0.5206  0.3455
33614SOL    HW2 5781   3.574  10.425   7.485  0.2540  0.0545 -0.5962
33615SOL     OW 5782   1.870   9.836   9.599  0.4926 -0.4273  0.5053
33615SOL    HW1 5783   1.877   9.927   9.572  0.8908 -0.8314 -0.8387
33615SOL    HW2 5784   1.960   9.807   9.612  0.4689 -1.0304 -0.5525
33616SOL     OW 5785   1.468   6.556   7.605  0.1006  0.5214 -0.6066
33616SOL    HW1 5786   1.400   6.544   7.671 -0.2315  0.8711 -0.8829
33616SOL    HW2 5787   1.447   6.640   7.564  0.0155  0.0871 -1.4771
33617SOL     OW 5788   1.960   2.165   5.880  0.2234  0.0737  0.1710
33617SOL    HW1 5789   1.892   2.100   5.861 -2.4457  2.6085  0.3850
33617SOL    HW2 5790   1.976   2.155   5.974 -1.2563  0.6148  0.5148
33618SOL     OW 5791   7.198   6.685   6.882 -0.5255  0.7875  0.5787
33618SOL    HW1 5792   7.192   6.709   6.789 -0.5192 -2.8674 -0.5664
33618SOL    HW2 5793   7.292   6.677   6.898 -0.5320 -0.8542  0.0796
33619SOL     OW 5794   6.224   5.919  10.774  0.2826  0.3734 -0.8009
33619SOL    HW1 5795   6.232   5.971  10.854 -2.0167 -1.9068  1.0812
33619SOL    HW2 5796   6.148   5.957  10.730 -0.0895 -0.0196 -0.5082
33620SOL     OW 5797   5.212   2.859   9.399 -0.1648 -0.8105 -0.5789
33620SOL    HW1 5798   5.218   2.934   9.458  0.7299 -1.0447 -0.3522
33620SOL    HW2 5799   5.122   2.827   9.410 -0.9902  0.9864 -1.6510
33621SOL     OW 5800  11.110  10.168   0.328  0.0697  0.4725 -0.2597
33621SOL    HW1 5801  11.073  10.254   0.310 -1.4476 -0.0125  0.3305
33621SOL    HW2 5802  11.143  10.175   0.418 -1.7175 -0.0183  0.5033
33622SOL     OW 5803   0.044   6.122   2.828  0.1231 -0.1435  0.1440
33622SOL    HW1 5804   0.064   6.029   2.828  1.5832  0.1412  0.5723
33622SOL    HW2 5805   0.092   6.157   2.903 -1.3031  0.7851  0.6703
33623SOL     OW 5806   2.374  11.438   5.012 -0.4472  0.2480  0.1424
33623SOL    HW1 5807   2.436  11.492   5.062 -1.6422  0.3777  1.5702
33623SOL    HW2 5808   2.392  11.349   5.040  0.1267  0.1106 -0.6357
33624SOL     OW 5809   3.143   3.239   8.014  0.1181  0.3179 -0.0391
33624SOL    HW1 5810   3.131   3.311   8.076 -0.3216 -1.1217  1.6523
33624SOL    HW2 5811   3.071   3.248   7.952 -0.3707  0.9148  0.6027
33625SOL     OW 5812  10.876   7.519  11.130 -0.0479 -0.6117 -0.0378
33625SOL    HW1 5813  10.906   7.534  11.219  0.0200 -1.0013  0.0038
33625SOL    HW2 5814  10.849   7.427  11.128  1.2093 -0.9907 -0.7659
33626SOL     OW 5815   0.798  10.806   9.717 -0.0494 -0.1114  0.3147
33626SOL    HW1 5816   0.747  10.817   9.637  1.9325  0.4261 -0.9636
33626SOL    HW2 5817   0.800  10.893   9.757 -0.3179 -0.1847  0.4892
33627SOL     OW 5818  10.132   0.093   0.699  0.1758  0.8427 -0.2559
33627SOL    HW1 5819  10.154   0.113   0.790 -1.8675 -0.3921  0.5821
33627SOL    HW2 5820  10.193   0.024   0.673 -1.2551 -1.1639  1.3573
33628SOL     OW 5821   8.078   8.623   0.217  0.2262  0.0809 -0.1341
33628SOL    HW1 5822   8.001   8.680   0.207  0.1760  0.0383  0.0075
33628SOL    HW2 5823   8.049   8.539   0.182  0.9693  0.6848 -2.3185
33629SOL     OW 5824   5.115  11.526   1.506 -0.1012 -0.0814 -0.0130
33629SOL    HW1 5825   5.059  11.475   1.447  0.5224  0.9952 -1.6144
33629SOL    HW2 5826   5.058  11.547   1.580 -0.8790 -1.5924 -0.1266
33630SOL     OW 5827   8.056   9.035   9.708  0.3177 -0.0783  0.4957
33630SOL    HW1 5828   8.024   9.025   9.618 -0.3631 -2.8236  0.9502
33630SOL    HW2 5829   8.132   8.978   9.713 -0.9150 -1.6774  2.1949
33631SOL     OW 5830   9.089   4.194  10.542 -0.0480 -0.5704  0.1166
33631SOL    HW1 5831   9.130   4.215  10.626  2.7075 -0.4459 -1.1519
33631SOL    HW2 5832   9.062   4.102  10.552  1.2021 -0.8867  0.7886
33632SOL     OW 5833  11.646  10.631   0.969  0.2619  0.2716  0.3178
33632SOL    HW1 5834  11.583  10.559   0.972 -1.2578  1.5129 -0.5222
33632SOL    HW2 5835  11.622  10.686   1.044  1.3878 -0.0611  0.9354
33633SOL     OW 5836  11.272   7.973   7.995 -0.3272  0.2568 -0.7822
33633SOL    HW1 5837  11.235   8.043   7.940  1.1839  2.0603  0.3486
33633SOL    HW2 5838  11.367   7.991   7.994  0.1611 -2.0857 -0.8055
33634SOL     OW 5839   5.985   7.298  10.025  0.2207  0.3873  0.0418
33634SOL    HW1 5840   5.994   7.263  10.113  0.5956  0.3650 -0.0019
33634SOL    HW2 5841   5.891   7.310  10.012  0.1129 -0.3295  0.1617
33635SOL     OW 5842   3.973  11.288   8.612 -0.0965 -0.1361 -0.1673
33635SOL    HW1 5843   3.987  11.249   8.698  1.8885  0.3352 -0.2385
33635SOL    HW2 5844   4.031  11.239   8.554 -0.4068  0.4422 -0.9802
33636SOL     OW 5845   6.010   1.119  10.112  0.2030 -0.1984  0.6685
33636SOL    HW1 5846   5.996   1.212  10.093 -0.2008 -0.6079 -1.1570
33636SOL    HW2 5847   5.969   1.106  10.198 -3.1026  0.5247 -0.6733
33637SOL     OW 5848   8.299   7.025   0.760 -0.3068  0.0908  0.0935
33637SOL    HW1 5849   8.361   7.020   0.688 -1.4951  0.7817 -1.0227
33637SOL    HW2 5850   8.275   6.934   0.777  0.9147 -0.1738  0.4801
33638SOL     OW 5851   5.988   5.906  10.186  0.4593 -0.0980 -0.1973
33638SOL    HW1 5852   5.981   5.888  10.092 -0.8176  0.7947 -0.3003
33638SOL    HW2 5853   6.080   5.930  10.199  1.4081 -3.0563 -0.6565
33639SOL     OW 5854   2.296   9.844   5.397  0.1598  0.2451  0.3924
33639SOL    HW1 5855   2.278   9.859   5.490 -0.8801 -0.7890  0.3874
33639SOL    HW2 5856   2.305   9.749   5.390 -1.0474  0.1941 -0.7625
33640SOL     OW 5857   6.976   2.566   3.728  0.5724 -0.6015 -0.2621
33640SOL    HW1 5858   6.885   2.552   3.756  0.7497  0.2889  0.8599
33640SOL    HW2 5859   7.015   2.616   3.800  1.7281 -0.2707 -1.0932
33641SOL     OW 5860   3.616   8.472   3.127 -0.2984  0.4758 -0.0912
33641SOL    HW1 5861   3.701   8.498   3.090 -0.4100 -0.1401 -0.8065
33641SOL    HW2 5862   3.638   8.421   3.205 -0.0078  0.1280 -0.4005
33642SOL     OW 5863   6.873  10.603   3.002 -0.4395 -0.5180  0.3372
33642SOL    HW1 5864   6.931  10.680   3.002 -0.0333 -0.8190  0.5374
33642SOL    HW2 5865   6.923  10.537   3.050 -1.1677 -0.6206  0.9714
33643SOL     OW 5866   0.009  10.361   6.028  0.3096 -0.2207 -0.3371
33643SOL    HW1 5867   0.093  10.321   6.051 -0.2230 -1.2691 -0.1598
33643SOL    HW2 5868   0.032  10.442   5.983  1.4273 -0.8523 -0.9271
33644SOL     OW 5869   5.597   0.208   6.039 -0.2092  0.0853 -0.4857
33644SOL    HW1 5870   5.627   0.240   5.955  0.7692  0.2160 -0.0943
33644SOL    HW2 5871   5.653   0.251   6.103 -1.0181  0.0861  0.2496
33645SOL     OW 5872  10.420   9.095   9.271  0.3262  1.1205 -0.1045
33645SOL    HW1 5873  10.373   9.177   9.288 -1.4515  0.0175  0.6385
33645SOL    HW2 5874  10.461   9.074   9.355  1.1835  1.4701 -0.4262
33646SOL     OW 5875   5.766   3.655   5.664  0.5268 -0.2930  0.5406
33646SOL    HW1 5876   5.749   3.569   5.702 -0.8005  0.3243  1.4250
33646SOL    HW2 5877   5.836   3.691   5.717  1.5371 -1.0450 -0.2299
33647SOL     OW 5878   9.108   0.087   6.493  0.2187 -0.5960  0.8933
33647SOL    HW1 5879   9.202   0.079   6.477  0.5465  0.6365  2.0069
33647SOL    HW2 5880   9.083   0.004   6.535  0.1756 -2.1192 -1.9403
33648SOL     OW 5881   0.052   8.146   3.655  1.1987 -0.2111  0.1049
33648SOL    HW1 5882  -0.020   8.208   3.647  1.5489  0.2365  0.3557
33648SOL    HW2 5883   0.026   8.088   3.726  0.2619 -1.2012 -1.0191
33649SOL     OW 5884  10.769  10.903   1.202 -0.0278 -0.3846  0.2865
33649SOL    HW1 5885  10.740  10.926   1.114  1.1797  0.3916  0.0619
33649SOL    HW2 5886  10.859  10.874   1.191  0.2183 -0.0623  1.2975
33650SOL     OW 5887   2.645  10.313   7.039  0.1722 -0.2488  0.1364
33650SOL    HW1 5888   2.629  10.356   6.955 -0.6966 -0.6791  0.0718
33650SOL    HW2 5889   2.725  10.353   7.072 -1.1485  2.2097  0.5801
33651SOL     OW 5890   1.835   9.117  10.115  0.3265  0.3722  0.4714
33651SOL    HW1 5891   1.752   9.097  10.072  0.1140  0.5512  0.7981
33651SOL    HW2 5892   1.815   9.191  10.172  0.6674  0.2873  0.7001
33652SOL     OW 5893   0.255   8.221   8.586 -0.8593 -0.7054 -0.4801
33652SOL    HW1 5894   0.301   8.145   8.620 -0.2134 -0.6271 -1.1447
33652SOL    HW2 5895   0.324   8.280   8.556 -1.3445  0.2656  0.2621
33653SOL     OW 5896   3.369  11.471   9.217  0.4062 -0.2311  0.0937
33653SOL    HW1 5897   3.372  11.455   9.311 -1.8527 -1.3398  0.0325
33653SOL    HW2 5898   3.455  11.509   9.197  1.1373 -0.4366  2.4860
33654SOL     OW 5899  11.087   5.036   0.253  0.1247 -0.0451  0.6551
33654SOL    HW1 5900  11.109   4.975   0.324  0.3973  0.6326  1.1651
33654SOL    HW2 5901  11.070   4.980   0.177 -1.3672 -0.8550  1.5457
33655SOL     OW 5902   9.212   0.804  11.003 -0.3924 -0.1708 -0.4885
33655SOL    HW1 5903   9.250   0.780  10.918  0.2766 -0.0020 -0.2420
33655SOL    HW2 5904   9.186   0.720  11.042  1.3408 -0.4850  0.0848
33656SOL     OW 5905   7.400   1.139   7.081 -0.7064 -0.2974 -0.3227
33656SOL    HW1 5906   7.491   1.150   7.053 -0.6748  0.9817  0.2227
33656SOL    HW2 5907   7.355   1.216   7.046 -1.3447 -0.3736  0.3129
33657SOL     OW 5908   6.543   4.814   8.575 -0.8902  0.1510  0.1334
33657SOL    HW1 5909   6.604   4.841   8.644 -1.0544  1.1082 -0.0788
33657SOL    HW2 5910   6.456   4.832   8.610 -0.9476  1.9133 -0.7940
33658SOL     OW 5911   3.974   9.080   6.246 -0.1086 -0.7625 -0.0187
33658SOL    HW1 5912   4.035   9.133   6.298  0.4643 -1.9362  0.5384
33658SOL    HW2 5913   3.958   9.002   6.299 -0.6798 -1.3064 -0.9595
33659SOL     OW 5914   8.588   1.002   7.978 -0.4604 -0.8867 -0.2945
33659SOL    HW1 5915   8.553   1.085   8.011  0.7490 -0.7288  0.6908
33659SOL    HW2 5916   8.577   1.007   7.883 -1.4568 -0.1023 -0.1495
33660SOL     OW 5917   7.268   4.491   3.964 -0.0579  0.3674  0.0088
33660SOL    HW1 5918   7.354   4.504   4.004  0.0907  0.0349 -0.2024
33660SOL    HW2 5919   7.225   4.428   4.021 -0.4620  1.1148  0.5553
33661SOL     OW 5920  11.507   2.564   4.902 -0.9736 -0.3912  0.7073
33661SOL    HW1 5921  11.456   2.483   4.907  0.0005 -1.2203 -1.2280
33661SOL    HW2 5922  11.574   2.545   4.835 -2.1780  2.7833 -1.6701
33662SOL     OW 5923   5.807   0.680   5.515 -0.0949  0.0438 -0.1042
33662SOL    HW1 5924   5.808   0.727   5.599  1.3440 -1.4154  0.7660
33662SOL    HW2 5925   5.893   0.638   5.511 -0.7933 -1.3361 -1.4943
33663SOL     OW 5926   6.037   0.824   4.378 -0.1285 -0.1907  0.5647
33663SOL    HW1 5927   6.103   0.764   4.412 -0.2817 -0.5850  0.1753
33663SOL    HW2 5928   6.062   0.909   4.413  0.2283 -0.4385  0.9260
33664SOL     OW 5929   0.918  11.424   1.750 -0.0773 -0.2256  0.6670
33664SOL    HW1 5930   0.829  11.396   1.774  0.2850 -0.3930  1.9229
33664SOL    HW2 5931   0.975  11.358   1.790  0.6397  0.3227  0.5734
33665SOL     OW 5932   0.474   6.785  11.191  0.0043 -0.3854  0.5376
33665SOL    HW1 5933   0.515   6.701  11.213 -1.5432 -0.8641  1.8148
33665SOL    HW2 5934   0.476   6.834  11.273 -0.9838 -0.0142  0.3530
33666SOL     OW 5935   6.611   5.250   2.963 -0.6547 -0.3668  0.2591
33666SOL    HW1 5936   6.598   5.173   3.018  0.8602 -1.7886 -1.2603
33666SOL    HW2 5937   6.607   5.216   2.874 -1.5277  1.6166 -0.5094
33667SOL     OW 5938  10.863   5.964   5.502  0.0118 -0.0226 -0.4059
33667SOL    HW1 5939  10.771   5.960   5.526 -0.4997 -2.3826 -2.3958
33667SOL    HW2 5940  10.865   5.935   5.411  2.7148  0.1742 -0.4851
33668SOL     OW 5941   6.011   9.293   2.333  0.1498  0.2102 -0.1165
33668SOL    HW1 5942   6.062   9.283   2.253 -1.6454 -0.3674 -1.2449
33668SOL    HW2 5943   5.967   9.377   2.322 -0.4949 -0.1055  0.0266
33669SOL     OW 5944  10.609   6.168  10.925  0.2995 -0.1688  0.1569
33669SOL    HW1 5945  10.585   6.219  11.003  2.5152  2.2652 -0.5899
33669SOL    HW2 5946  10.690   6.123  10.949  1.7000  1.5880 -1.0070
33670SOL     OW 5947   9.088   6.086   5.719 -0.3959  0.3710  0.6000
33670SOL    HW1 5948   9.144   6.120   5.789 -0.6601 -0.4228  1.2195
33670SOL    HW2 5949   9.004   6.071   5.761 -0.4031 -0.6475  0.2605
33671SOL     OW 5950   0.690   3.088  11.571  0.3761  0.2338  0.3770
33671SOL    HW1 5951   0.609   3.037  11.576  1.0583 -0.9837 -0.4642
33671SOL    HW2 5952   0.694   3.118  11.480  2.3279 -2.2988 -0.4704
33672SOL     OW 5953   0.646  10.960   5.674  0.4604  0.1146 -0.0344
33672SOL    HW1 5954   0.590  10.883   5.680 -0.3702  0.7829  1.1886
33672SOL    HW2 5955   0.735  10.925   5.677  0.0971 -0.8184  0.1145
33673SOL     OW 5956  10.253   0.692   0.946  0.2349 -0.0151  0.2819
33673SOL    HW1 5957  10.221   0.619   0.893 -2.0376 -0.0728  1.5982
33673SOL    HW2 5958  10.197   0.766   0.921  2.0879  1.1860 -0.5711
33674SOL     OW 5959   4.492   6.912   4.037 -0.7678 -0.6353  0.1260
33674SOL    HW1 5960   4.484   6.956   3.952 -1.6787  1.0341  1.0095
33674SOL    HW2 5961   4.573   6.947   4.073 -1.5831  0.5241  0.9061
33675SOL     OW 5962   4.170   4.594   8.889  0.1124 -0.5077  0.0183
33675SOL    HW1 5963   4.252   4.603   8.840 -0.3114 -0.6649 -0.7337
33675SOL    HW2 5964   4.184   4.516   8.943 -0.2845 -1.8286 -1.6722
33676SOL     OW 5965   6.144   7.823   0.590  0.2540  0.4150  0.4197
33676SOL    HW1 5966   6.201   7.897   0.608  1.2016 -0.1562 -0.1671
33676SOL    HW2 5967   6.081   7.823   0.662 -0.3857  2.3673 -0.0863
33677SOL     OW 5968   4.592   6.221  10.440  0.8827  0.6765  0.1105
33677SOL    HW1 5969   4.670   6.179  10.404  1.7794  1.9648  0.4919
33677SOL    HW2 5970   4.603   6.314  10.420 -0.8313  0.8312 -0.3108
33678SOL     OW 5971   8.477  11.658   2.334 -0.3237  0.3339  0.0140
33678SOL    HW1 5972   8.534  11.704   2.272  0.9474 -1.1973 -0.0168
33678SOL    HW2 5973   8.471  11.569   2.300 -2.6440  0.3751  0.1185
33679SOL     OW 5974   9.115   0.895   4.357  0.1541  0.3007 -0.3197
33679SOL    HW1 5975   9.183   0.881   4.423 -0.6034  2.0707  0.9235
33679SOL    HW2 5976   9.036   0.859   4.396 -0.1579  0.6862 -0.5871
33680SOL     OW 5977   5.635   7.949   0.224  0.2869  0.1723  0.3796
33680SOL    HW1 5978   5.724   7.956   0.258  0.2750 -1.4191  0.8142
33680SOL    HW2 5979   5.642   7.980   0.134  1.5050 -0.8404  0.0941
33681SOL     OW 5980   2.851   6.307   6.348  0.0658  0.7197  0.3125
33681SOL    HW1 5981   2.870   6.222   6.389  1.4962  0.5504 -0.6529
33681SOL    HW2 5982   2.933   6.333   6.307 -0.9212  1.5659 -1.2248
33682SOL     OW 5983   0.875   5.847  10.662 -0.1250 -0.4956 -0.1826
33682SOL    HW1 5984   0.914   5.804  10.586 -1.0890 -0.6356 -0.6180
33682SOL    HW2 5985   0.825   5.778  10.705  0.6121 -0.4788  0.7371
33683SOL     OW 5986  10.401   6.316   0.397 -0.4683  0.1748 -0.3304
33683SOL    HW1 5987  10.345   6.369   0.340 -2.1451  0.5925  1.5538
33683SOL    HW2 5988  10.398   6.228   0.359 -0.5887  0.6603 -1.4952
33684SOL     OW 5989   3.432   0.659   7.717 -0.3487  0.4068  0.2518
33684SOL    HW1 5990   3.363   0.605   7.678 -0.1116  0.1386  0.2035
33684SOL    HW2 5991   3.391   0.745   7.728 -0.7071  0.2352  0.2741
33685SOL     OW 5992   8.809   2.539   0.014 -0.1232  0.5004  0.3583
33685SOL    HW1 5993   8.817   2.632   0.035  0.8275  0.4340  0.3261
33685SOL    HW2 5994   8.889   2.499   0.048  0.4003  0.0224 -1.3371
33686SOL     OW 5995   1.385   0.728   9.929  0.6412  0.0409 -0.1722
33686SOL    HW1 5996   1.415   0.643   9.895  0.3182  0.1986 -0.8540
33686SOL    HW2 5997   1.343   0.706  10.012 -0.0578 -0.5629 -0.6714
33687SOL     OW 5998   9.560   4.163   0.280 -0.0180  0.2202 -0.5946
33687SOL    HW1 5999   9.476   4.207   0.293  0.3008  0.5222  0.5082
33687SOL    HW2 6000   9.560   4.092   0.343  0.5971  0.2809 -0.5255
33688SOL     OW 6001  11.426   8.550   6.226 -0.5047  0.6595  0.0607
33688SOL    HW1 6002  11.434   8.559   6.131  0.2690  1.9411  0.2160
33688SOL    HW2 6003  11.418   8.456   6.241 -1.6465  0.5017 -1.3294
33689SOL     OW 6004   4.410   3.428  11.305 -0.4041 -0.4500  0.1315
33689SOL    HW1 6005   4.504   3.416  11.289 -0.2196  0.8098  0.1386
33689SOL    HW2 6006   4.376   3.464  11.224 -0.6712  0.0658  0.4651
33690SOL     OW 6007   6.018   2.530   7.105 -0.1339  0.0135 -0.1443
33690SOL    HW1 6008   6.012   2.529   7.200 -1.7784  0.0997 -0.2200
33690SOL    HW2 6009   6.051   2.443   7.082 -1.1246 -0.5429  0.4470
33691SOL     OW 6010   2.062   3.604   3.196 -0.0063 -0.1879 -0.6018
33691SOL    HW1 6011   2.056   3.694   3.162  0.6768 -1.2436 -3.8414
33691SOL    HW2 6012   1.993   3.557   3.149 -1.1154 -1.2037  1.8927
33692SOL     OW 6013   1.268   0.966  11.148  0.3787 -0.8315  0.1688
33692SOL    HW1 6014   1.341   0.905  11.158  1.0528 -0.0051  0.3436
33692SOL    HW2 6015   1.255   1.003  11.236  0.8975  0.3122 -0.2265
33693SOL     OW 6016   8.021   7.972   8.964  0.0075 -0.2073 -0.3308
33693SOL    HW1 6017   7.967   7.899   8.995 -0.0947  0.3921  0.9353
33693SOL    HW2 6018   7.988   7.989   8.876  0.5007 -2.1337 -0.9532
33694SOL     OW 6019   8.863   4.034   5.676 -0.1151 -0.3730 -0.0948
33694SOL    HW1 6020   8.883   4.116   5.631  0.7174  0.5537  1.8177
33694SOL    HW2 6021   8.769   4.038   5.692  0.1597  1.1808  1.5892
33695SOL     OW 6022   3.076  11.422   6.403 -0.3339 -0.1275 -0.3448
33695SOL    HW1 6023   3.047  11.509   6.430  0.1571 -0.0344 -0.1041
33695SOL    HW2 6024   3.116  11.436   6.317 -0.0398 -0.0703 -0.2012
33696SOL     OW 6025   5.228   9.952  10.907 -0.7888  0.5303  0.1240
33696SOL    HW1 6026   5.218   9.978  10.816  1.4975  0.9023 -0.0683
33696SOL    HW2 6027   5.251  10.033  10.953  0.5925 -0.0847  0.5669
33697SOL     OW 6028   6.667   2.068   9.236 -0.5292  0.1268 -0.0926
33697SOL    HW1 6029   6.751   2.025   9.256 -0.7943 -0.9581 -1.1564
33697SOL    HW2 6030   6.641   2.110   9.318 -1.0061 -3.0768  1.5580
33698SOL     OW 6031   7.865  10.638   5.958 -0.3888 -0.0171 -0.6517
33698SOL    HW1 6032   7.881  10.635   5.863 -1.9976 -1.2386 -0.9462
33698SOL    HW2 6033   7.804  10.565   5.973 -0.5622  0.4855  1.2483
33699SOL     OW 6034   1.249   3.694   4.116 -0.4670 -0.2916 -0.3375
33699SOL    HW1 6035   1.338   3.713   4.088 -0.3154 -0.1405  0.2238
33699SOL    HW2 6036   1.252   3.603   4.146  0.6835  0.9431  4.0056
33700SOL     OW 6037   1.620   0.992   0.936 -0.0084 -0.3593  0.4596
33700SOL    HW1 6038   1.551   1.042   0.893  0.2313  0.0699  0.5690
33700SOL    HW2 6039   1.573   0.923   0.983 -0.6941  1.6841  3.0340
33701SOL     OW 6040   9.845   2.727  10.841 -0.3438  0.1689  0.7708
33701SOL    HW1 6041   9.881   2.792  10.902  0.3527 -0.0206  0.5737
33701SOL    HW2 6042   9.806   2.778  10.771 -1.3361  0.3969  1.4567
33702SOL     OW 6043   3.179   6.899   1.381  0.2618 -0.0862  0.5401
33702SOL    HW1 6044   3.214   6.932   1.298 -0.2431  0.5803  0.5857
33702SOL    HW2 6045   3.116   6.832   1.355 -1.7430  1.8126  0.2359
33703SOL     OW 6046   7.713   1.063   0.219 -0.4031  0.5673  0.5946
33703SOL    HW1 6047   7.719   1.141   0.163  2.2469  0.8975  1.2125
33703SOL    HW2 6048   7.747   0.992   0.164 -1.5046  0.0958  0.5028
33704SOL     OW 6049   7.769   2.920   0.132  0.0526  0.2304 -0.4899
33704SOL    HW1 6050   7.800   2.840   0.175  1.3171  0.9162 -0.0649
33704SOL    HW2 6051   7.709   2.889   0.065 -0.5302 -0.9907  0.5430
33705SOL     OW 6052   4.930   8.773   6.271  0.0285 -0.2021  0.5613
33705SOL    HW1 6053   5.004   8.826   6.243 -1.0807  0.8796 -0.4561
33705SOL    HW2 6054   4.880   8.830   6.329 -0.1022 -0.8613  1.1087
33706SOL     OW 6055  10.855  11.099   6.201  0.5406 -0.9306 -0.4117
33706SOL    HW1 6056  10.860  11.006   6.177 -2.4426 -0.6612 -2.6782
33706SOL    HW2 6057  10.781  11.103   6.261  0.6963 -0.0233 -0.2765
33707SOL     OW 6058   4.042  11.428   4.020 -0.3682 -0.0790  0.2678
33707SOL    HW1 6059   4.081  11.390   3.941 -0.7886 -1.1378  0.5621
33707SOL    HW2 6060   3.997  11.507   3.988  1.2911  0.7366 -0.2049
33708SOL     OW 6061   0.938   5.173  10.888 -0.1762 -0.0076  0.6728
33708SOL    HW1 6062   1.009   5.212  10.836  0.5019 -1.5383  0.3887
33708SOL    HW2 6063   0.889   5.120  10.826 -0.5143 -0.3581  1.2297
33709SOL     OW 6064   7.923   6.558   1.986 -0.1882 -0.0965 -0.3289
33709SOL    HW1 6065   7.858   6.625   2.009 -0.0836  0.1662 -0.7779
33709SOL    HW2 6066   7.895   6.529   1.899  0.2558 -0.0323 -0.4931
33710SOL     OW 6067  10.910   5.172   7.448  0.2804 -0.2533 -0.2639
33710SOL    HW1 6068  10.897   5.213   7.533  0.5388  1.6354 -1.1014
33710SOL    HW2 6069  11.004   5.154   7.443  0.0799 -1.6164  0.3613
33711SOL     OW 6070   1.156  10.546   3.280 -0.0574 -0.0096  0.4790
33711SOL    HW1 6071   1.239  10.499   3.287 -0.5785 -1.4388 -1.8850
33711SOL    HW2 6072   1.111  10.528   3.362  0.8498 -1.4945  0.6826
33712SOL     OW 6073   4.302   1.007   3.789  0.5083 -0.3375  0.5341
33712SOL    HW1 6074   4.252   1.088   3.805  0.9602  0.1437 -0.4263
33712SOL    HW2 6075   4.362   1.030   3.719 -1.2832 -2.3044 -1.8054
33713SOL     OW 6076  11.503   4.725   9.492  0.3520 -0.1613 -0.0126
33713SOL    HW1 6077  11.594   4.712   9.465 -0.0512 -0.9809 -1.0464
33713SOL    HW2 6078  11.459   4.758   9.414 -0.8701 -2.6913 -0.4884
33714SOL     OW 6079   8.992   0.200   9.989  0.0323 -0.1834 -0.0672
33714SOL    HW1 6080   8.916   0.145  10.007 -0.7775  1.1021  0.5886
33714SOL    HW2 6081   9.062   0.138   9.969 -0.9587 -1.4259  0.1766
33715SOL     OW 6082   2.348   1.568   6.631  0.2807  0.4608 -0.2214
33715SOL    HW1 6083   2.352   1.595   6.539 -3.0146 -1.6578 -1.1438
33715SOL    HW2 6084   2.423   1.510   6.642  0.0441 -0.2506 -1.9859
33716SOL     OW 6085   7.142   1.566   3.472  0.2270 -0.7983  0.3866
33716SOL    HW1 6086   7.175   1.581   3.560  2.4626  1.6868 -0.7400
33716SOL    HW2 6087   7.218   1.538   3.422 -1.1465 -2.8667 -0.6614
33717SOL     OW 6088   8.681   4.383   9.797 -0.1212  0.1155  0.4427
33717SOL    HW1 6089   8.756   4.388   9.857 -0.9317 -0.1767  1.5063
33717SOL    HW2 6090   8.720   4.366   9.712  0.9746 -1.2123  1.1684
33718SOL     OW 6091   3.324  10.730   9.010 -0.3861 -0.2194 -0.1485
33718SOL    HW1 6092   3.305  10.818   8.977 -1.8907 -0.6771 -0.6066
33718SOL    HW2 6093   3.398  10.700   8.958 -0.0685  0.6493 -0.2086
33719SOL     OW 6094   7.922   5.367   1.805  0.2277  0.0713  0.2735
33719SOL    HW1 6095   7.867   5.295   1.836 -0.6538  0.8268  0.4974
33719SOL    HW2 6096   8.008   5.348   1.841  0.3568 -1.6012 -0.8006
33720SOL     OW 6097   3.875   3.433   9.490  0.3558 -0.3498  0.3798
33720SOL    HW1 6098   3.969   3.447   9.499  0.1528  0.4268  1.5809
33720SOL    HW2 6099   3.836   3.503   9.542 -0.8672 -1.6554  1.2798
33721SOL     OW 6100   7.031   5.698   8.448 -0.2420  0.4975 -0.1594
33721SOL    HW1 6101   7.112   5.705   8.498  0.8945 -0.7442 -1.7454
33721SOL    HW2 6102   7.057   5.710   8.357 -0.7542 -4.9970 -1.3784
33722SOL     OW 6103   6.087   8.505   0.081 -0.1485 -0.0850  0.2852
33722SOL    HW1 6104   6.104   8.525  -0.011  0.8499  1.2776  0.7402
33722SOL    HW2 6105   6.158   8.547   0.129 -1.1748  0.0701  1.7659
33723SOL     OW 6106   1.531   5.815  11.635  0.2829  0.6796 -0.0014
33723SOL    HW1 6107   1.612   5.778  11.671 -0.2420 -1.1556 -0.6037
33723SOL    HW2 6108   1.549   5.824  11.541  0.1512  1.3032  0.0321
33724SOL     OW 6109   4.456   8.666   9.906  0.8990 -0.8015 -0.1444
33724SOL    HW1 6110   4.426   8.740   9.854  0.8518 -0.9816 -0.3761
33724SOL    HW2 6111   4.379   8.638   9.956  1.0547 -0.3530  0.3599
33725SOL     OW 6112   8.998  11.117   8.242  0.4915  0.2288  0.6205
33725SOL    HW1 6113   9.033  11.033   8.271  0.5210  0.1351  0.3118
33725SOL    HW2 6114   8.950  11.097   8.161  1.5158  0.7131 -0.1232
33726SOL     OW 6115   2.381   4.706   5.834 -0.2287  0.1642  0.3798
33726SOL    HW1 6116   2.352   4.776   5.775 -1.8407 -1.7221 -1.1868
33726SOL    HW2 6117   2.365   4.741   5.922  1.4728  2.7319 -0.2039
33727SOL     OW 6118   2.634  10.167  10.309  0.4113  0.0817 -0.3128
33727SOL    HW1 6119   2.627  10.079  10.346 -1.2743 -0.4103 -1.6495
33727SOL    HW2 6120   2.568  10.217  10.357 -0.9789 -0.2779 -1.7246
33728SOL     OW 6121   3.254   2.769   5.971 -0.0468 -0.6820  0.4823
33728SOL    HW1 6122   3.311   2.692   5.963  1.3517  0.2920  0.7348
33728SOL    HW2 6123   3.309   2.842   5.943 -0.7067  0.4913  2.1210
33729SOL     OW 6124   4.605   9.813  11.376 -0.3200  0.2279  0.1999
33729SOL    HW1 6125   4.625   9.719  11.372 -2.4263 -0.2999  0.9376
33729SOL    HW2 6126   4.655   9.844  11.452  0.8247 -0.1474 -0.3685
33730SOL     OW 6127  10.116   5.101   2.912  0.6445 -0.5808 -0.4773
33730SOL    HW1 6128  10.202   5.142   2.910  2.2559 -3.4949  1.0542
33730SOL    HW2 6129  10.134   5.008   2.928 -2.7569 -1.5850 -1.4879
33731SOL     OW 6130   7.355   5.839   5.232  0.2298 -0.0833 -0.7439
33731SOL    HW1 6131   7.290   5.889   5.182 -1.5744  0.7566  2.1691
33731SOL    HW2 6132   7.306   5.763   5.264  0.4859  0.6796  1.7008
33732SOL     OW 6133   9.156  10.051  10.006 -0.0828  0.2211 -0.5132
33732SOL    HW1 6134   9.151   9.972  10.060  0.3048 -0.5777 -1.6133
33732SOL    HW2 6135   9.163  10.123  10.069 -0.3352 -0.6273  0.5033
33733SOL     OW 6136   0.250   7.120   3.124 -0.0414  0.2922  0.5245
33733SOL    HW1 6137   0.216   7.087   3.207 -0.6270  1.0493  0.5965
33733SOL    HW2 6138   0.188   7.087   3.058  1.4198 -1.8814  0.1169
33734SOL     OW 6139  10.420   9.473  10.373 -0.6084 -0.9761 -0.0885
33734SOL    HW1 6140  10.502   9.506  10.409 -0.6954  1.1018 -1.5874
33734SOL    HW2 6141  10.396   9.400  10.430  0.5812  0.4104  2.3478
33735SOL     OW 6142   3.646   3.421  10.314  0.1697 -0.0967  0.1407
33735SOL    HW1 6143   3.564   3.413  10.364 -0.5979  1.2401 -0.8376
33735SOL    HW2 6144   3.702   3.477  10.367  2.2456 -4.2661  2.8932
33736SOL     OW 6145   6.316   4.989  10.563 -0.1271 -0.3796 -0.0523
33736SOL    HW1 6146   6.339   5.080  10.583  0.1238 -0.3159 -0.6203
33736SOL    HW2 6147   6.382   4.937  10.608 -1.6507 -0.4204  2.3551
33737SOL     OW 6148   1.282   4.043   0.007  0.1492  0.4232 -0.7585
33737SOL    HW1 6149   1.251   3.953   0.018 -0.4205  0.6381 -0.5482
33737SOL    HW2 6150   1.325   4.063   0.090  3.8154 -0.9666 -2.1388
33738SOL     OW 6151   3.787   5.081   3.345 -0.4436 -0.1107 -0.2941
33738SOL    HW1 6152   3.875   5.107   3.371 -0.9771 -0.0776  1.6063
33738SOL    HW2 6153   3.731   5.154   3.372 -1.1876 -0.5806 -0.5198
33739SOL     OW 6154   0.700  10.005   9.070  0.9404 -0.5930  0.0142
33739SOL    HW1 6155   0.661  10.070   9.011  0.4115  1.5231  2.4902
33739SOL    HW2 6156   0.777  10.049   9.106  0.6473 -1.3451  1.6536
33740SOL     OW 6157   8.254   3.214   7.129  0.4748  0.5874 -0.1601
33740SOL    HW1 6158   8.192   3.235   7.200  0.8890  0.1810  0.3239
33740SOL    HW2 6159   8.296   3.298   7.110 -0.2174  0.8702 -0.4947
33741SOL     OW 6160   5.276   5.289   7.796  0.2673 -0.1177 -0.1622
33741SOL    HW1 6161   5.297   5.246   7.713 -0.0116  3.0669 -2.0699
33741SOL    HW2 6162   5.358   5.288   7.845  0.3348 -2.4351 -0.2211
33742SOL     OW 6163   2.692   4.751   9.903  0.1941  0.0658 -0.1167
33742SOL    HW1 6164   2.604   4.723   9.877  0.2409  0.0643 -0.2772
33742SOL    HW2 6165   2.697   4.731   9.997 -1.3384  3.5817  0.8420
33743SOL     OW 6166   3.550   9.087   1.917  0.2883 -0.1784  0.7479
33743SOL    HW1 6167   3.481   9.066   1.853  0.2837  1.0089  0.3355
33743SOL    HW2 6168   3.591   9.003   1.936  2.5094 -0.2675 -3.3812
33744SOL     OW 6169   3.820   9.397   1.519  0.1527  0.6189 -0.6703
33744SOL    HW1 6170   3.831   9.315   1.473  1.4658 -0.2226  1.0052
33744SOL    HW2 6171   3.737   9.433   1.488 -1.9787 -2.7499  0.6445
33745SOL     OW 6172   2.636   0.793   4.016  0.1263  0.8398  0.1989
33745SOL    HW1 6173   2.624   0.777   4.110 -0.8009 -0.9301 -0.1814
33745SOL    HW2 6174   2.719   0.751   3.995  0.6442  1.7737  0.3226
33746SOL     OW 6175   6.954   0.796  10.548  0.1670 -0.0188 -0.4343
33746SOL    HW1 6176   6.991   0.708  10.539 -0.6642 -0.3186 -0.9999
33746SOL    HW2 6177   6.896   0.790  10.624 -0.8545 -0.3173 -1.2121
33747SOL     OW 6178   1.415   4.169   4.611  0.0193  0.3109  0.2105
33747SOL    HW1 6179   1.357   4.102   4.574  1.5435 -1.0246  0.1297
33747SOL    HW2 6180   1.379   4.252   4.581 -0.3688 -0.6022 -1.9939
33748SOL     OW 6181   5.514   4.610   0.194 -0.4141 -0.3198  0.3987
33748SOL    HW1 6182   5.513   4.706   0.192 -1.1670 -0.2798  1.7358
33748SOL    HW2 6183   5.605   4.588   0.215 -0.2374  0.0998  0.0836
33749SOL     OW 6184   4.227   1.049   3.202  0.4341 -0.4183 -0.0071
33749SOL    HW1 6185   4.277   1.094   3.271 -0.5508 -0.4537  0.7581
33749SOL    HW2 6186   4.249   0.957   3.213 -0.0798 -0.4803  0.5932
33750SOL     OW 6187   6.788   4.321   3.029 -0.1055 -0.0908  0.3736
33750SOL    HW1 6188   6.850   4.324   3.102  0.4707 -1.8658 -0.0075
33750SOL    HW2 6189   6.843   4.308   2.952 -0.9328 -1.9190  0.0465
33751SOL     OW 6190   7.668  10.496   7.262  0.5689  0.5730 -0.5573
33751SOL    HW1 6191   7.749  10.468   7.307 -0.0867 -0.4218  0.0599
33751SOL    HW2 6192   7.601  10.436   7.296 -0.4018  1.2956 -1.1684
33752SOL     OW 6193   2.182   0.405   0.343 -0.1177  0.2318  0.7393
33752SOL    HW1 6194   2.203   0.312   0.338 -0.0167  0.2347 -4.6137
33752SOL    HW2 6195   2.091   0.410   0.316  0.3866  1.7120 -0.8457
33753SOL     OW 6196   3.344   4.938   2.012  0.0530  0.1772 -0.1948
33753SOL    HW1 6197   3.421   4.987   1.983  0.0432 -0.0373 -0.5926
33753SOL    HW2 6198   3.318   4.888   1.935 -1.4279  1.4272 -0.5574
33754SOL     OW 6199   8.674   2.216  10.437 -0.1595 -0.0568 -0.2857
33754SOL    HW1 6200   8.622   2.144  10.472  1.8838 -1.6057 -0.1962
33754SOL    HW2 6201   8.743   2.229  10.502  0.1780  1.1678 -0.8664
33755SOL     OW 6202   8.182   5.775   5.960  0.5175 -0.2282  0.0630
33755SOL    HW1 6203   8.135   5.855   5.938 -0.0534 -0.3355  0.8284
33755SOL    HW2 6204   8.134   5.706   5.914  1.3150 -0.0848 -1.0095
33756SOL     OW 6205   6.689   3.739   8.560 -0.1743  0.5094 -0.0497
33756SOL    HW1 6206   6.676   3.782   8.645  2.7715 -2.1076  1.9533
33756SOL    HW2 6207   6.606   3.695   8.542 -0.8031  0.9679  1.5710
33757SOL     OW 6208   7.672   0.232   0.278  0.0824 -0.0114 -0.2920
33757SOL    HW1 6209   7.734   0.169   0.240  1.4883  1.5312 -0.6336
33757SOL    HW2 6210   7.688   0.313   0.231 -1.1395  0.8386  0.6985
33758SOL     OW 6211   6.550   3.858   3.871 -0.1402 -0.2547  0.2693
33758SOL    HW1 6212   6.616   3.924   3.850 -0.3025  0.2327  1.2532
33758SOL    HW2 6213   6.470   3.890   3.831  0.2152 -0.8972 -1.0168
33759SOL     OW 6214   1.409   8.033   6.071 -0.3346  0.3439  0.1676
33759SOL    HW1 6215   1.342   7.975   6.036  1.6027 -1.7577 -0.2664
33759SOL    HW2 6216   1.423   8.099   6.003 -0.7918 -0.1799 -0.4355
33760SOL     OW 6217  11.469   4.804   8.903 -0.2577  0.0668  0.1460
33760SOL    HW1 6218  11.503   4.861   8.834  0.6622  0.1823  0.6705
33760SOL    HW2 6219  11.467   4.859   8.981  1.9881 -0.9381  0.9969
33761SOL     OW 6220   2.036   9.798  10.980 -0.1367 -0.0779  0.0892
33761SOL    HW1 6221   2.073   9.765  11.062 -1.3690 -2.4996 -0.2376
33761SOL    HW2 6222   1.958   9.846  11.007  0.2023  0.2998  0.4089
33762SOL     OW 6223   2.523   8.037  11.062  0.2192 -0.3172  0.3321
33762SOL    HW1 6224   2.521   8.052  10.967  0.3447  0.2334  0.4092
33762SOL    HW2 6225   2.577   7.959  11.073  0.1752 -0.4053 -0.0496
33763SOL     OW 6226   3.883   4.177   4.595  0.2469  0.1188  0.3445
33763SOL    HW1 6227   3.807   4.143   4.548 -0.6044  1.4257  0.7140
33763SOL    HW2 6228   3.911   4.104   4.650 -2.3767  0.3319  2.1537
33764SOL     OW 6229   6.751   9.565   9.522  0.4631 -0.5563  0.5734
33764SOL    HW1 6230   6.822   9.559   9.458  1.3123  1.4826  1.2257
33764SOL    HW2 6231   6.792   9.546   9.606 -0.4024 -2.0895  0.6909
33765SOL     OW 6232   8.688  11.541   1.667 -0.4946  0.1990  0.0779
33765SOL    HW1 6233   8.700  11.521   1.760 -0.4902  0.7584  0.1976
33765SOL    HW2 6234   8.683  11.455   1.625 -0.5456 -0.0570  0.5997
33766SOL     OW 6235   4.057   5.757   1.773  0.2759  0.2862 -0.0163
33766SOL    HW1 6236   4.044   5.664   1.793  0.0499  0.5183  0.9299
33766SOL    HW2 6237   4.150   5.763   1.750  0.6786  0.0904  1.4775
33767SOL     OW 6238   4.084   0.567  10.646  0.4923 -0.6921 -0.2452
33767SOL    HW1 6239   4.103   0.660  10.629  1.6514 -0.7192  0.7278
33767SOL    HW2 6240   3.989   0.563  10.656  0.1692  0.0017 -2.4468
33768SOL     OW 6241   8.228   6.993  11.454  0.4153  0.7276  0.2760
33768SOL    HW1 6242   8.258   7.059  11.391 -0.0429 -0.3418 -1.1407
33768SOL    HW2 6243   8.305   6.937  11.468 -0.0083 -0.2188 -0.9650
33769SOL     OW 6244   4.250   1.171   1.761  0.0251  0.3793 -0.4848
33769SOL    HW1 6245   4.184   1.147   1.827  1.5292  0.7381  1.2401
33769SOL    HW2 6246   4.247   1.101   1.697 -1.1803 -0.2414  0.2232
33770SOL     OW 6247   4.690   5.005   1.999  0.1276  0.4482 -0.1272
33770SOL    HW1 6248   4.605   4.961   1.996 -0.2666  1.2476 -2.5827
33770SOL    HW2 6249   4.754   4.934   2.006 -0.4745 -0.7449 -4.1960
33771SOL     OW 6250   0.307   7.449   0.491  0.3894  0.8336 -0.7262
33771SOL    HW1 6251   0.333   7.530   0.448 -2.0725  1.9548 -0.2953
33771SOL    HW2 6252   0.266   7.397   0.422  1.3712  0.2225 -0.8608
33772SOL     OW 6253   1.942  10.960   7.066  0.1069  0.2214  0.4060
33772SOL    HW1 6254   1.911  11.051   7.075  1.2333  0.6114  0.5567
33772SOL    HW2 6255   1.926  10.921   7.152  1.9334  1.0539  1.1682
33773SOL     OW 6256   2.103   9.557   4.294  0.2440  0.0402 -0.0223
33773SOL    HW1 6257   2.077   9.648   4.305  1.9111  0.6628 -0.8220
33773SOL    HW2 6258   2.067   9.531   4.209  0.5177  0.2580 -0.2079
33774SOL     OW 6259   3.460   8.642   5.719  0.2636 -0.2770  0.7573
33774SOL    HW1 6260   3.496   8.578   5.656  2.5294  0.9672  0.6667
33774SOL    HW2 6261   3.379   8.672   5.679  0.4691 -1.2385 -0.4393
33775SOL     OW 6262   6.386   6.602   5.282  0.0776 -0.4769  0.1450
33775SOL    HW1 6263   6.333   6.537   5.236  0.2228 -0.1455 -0.5100
33775SOL    HW2 6264   6.333   6.682   5.278  0.8514  0.0004 -1.0054
33776SOL     OW 6265   5.050  11.111   1.544  0.8389  0.3872  0.0519
33776SOL    HW1 6266   5.086  11.043   1.601 -2.1923 -0.7006  0.8221
33776SOL    HW2 6267   5.057  11.074   1.456  0.9750 -0.0868  0.2586
33777SOL     OW 6268   1.443  11.588  11.611  0.0112 -0.2022 -0.4414
33777SOL    HW1 6269   1.425  11.495  11.627 -0.6201  0.1609  1.2435
33777SOL    HW2 6270   1.378  11.634  11.664  0.9214  1.1980 -0.4946
33778SOL     OW 6271   3.116   5.962   5.231 -0.0076 -0.2834  0.0482
33778SOL    HW1 6272   3.127   6.057   5.241 -0.1432 -0.2881  0.2575
33778SOL    HW2 6273   3.159   5.941   5.148 -1.3952  0.2126 -0.8281
33779SOL     OW 6274   6.560   9.387   3.110  0.0141  0.2583  0.1292
33779SOL    HW1 6275   6.648   9.361   3.136 -0.4511 -0.5842  0.9527
33779SOL    HW2 6276   6.535   9.322   3.044  0.4164  1.1666 -0.9453
33780SOL     OW 6277   4.817   4.412   0.937 -0.1774 -0.4027  0.2237
33780SOL    HW1 6278   4.789   4.442   0.851 -0.2405 -0.2312  0.3042
33780SOL    HW2 6279   4.878   4.479   0.967 -0.0240 -0.5500  0.2392
33781SOL     OW 6280   4.148   4.750   2.893  0.3409  0.1002  0.4289
33781SOL    HW1 6281   4.220   4.741   2.956 -0.0070 -1.2890  0.6500
33781SOL    HW2 6282   4.070   4.759   2.947  0.3789  2.5575  0.2035
33782SOL     OW 6283   0.283   7.629   7.026 -0.4167 -0.2150 -0.0465
33782SOL    HW1 6284   0.236   7.584   7.096  0.6428  0.5843  1.2308
33782SOL    HW2 6285   0.375   7.608   7.041 -0.1103  0.4725 -0.8355
33783SOL     OW 6286   1.578   7.628   9.714  0.2214 -0.2653 -0.1785
33783SOL    HW1 6287   1.562   7.536   9.736 -0.0866 -0.2290 -0.2558
33783SOL    HW2 6288   1.502   7.655   9.664 -0.3606  0.4384  1.0457
33784SOL     OW 6289   8.979   5.687   0.932 -0.2924  0.4810 -0.2304
33784SOL    HW1 6290   8.976   5.783   0.932  0.7250  0.5272  0.6925
33784SOL    HW2 6291   8.910   5.662   0.870 -0.0600  1.8152 -1.0963
33785SOL     OW 6292   7.174   5.795   0.832  0.5803 -0.1817 -0.3618
33785SOL    HW1 6293   7.105   5.849   0.792  0.0086 -0.4516  0.2387
33785SOL    HW2 6294   7.145   5.705   0.817  0.3528 -0.2888  0.6566
33786SOL     OW 6295   9.347  10.968   9.932 -0.0084  0.2487  0.2198
33786SOL    HW1 6296   9.289  11.039   9.905 -1.1944 -0.8873 -0.3128
33786SOL    HW2 6297   9.312  10.938  10.016  0.3300  0.1261  0.3202
33787SOL     OW 6298   5.577   0.019   0.602 -0.0289  0.0908  0.1274
33787SOL    HW1 6299   5.538  -0.059   0.562  0.4923 -0.1007 -0.0138
33787SOL    HW2 6300   5.670   0.013   0.581  0.1145  0.4350  0.6356
33788SOL     OW 6301   7.697   3.897   6.603  0.0440  0.2352 -0.2765
33788SOL    HW1 6302   7.721   3.987   6.626  1.3107 -0.2674  0.4541
33788SOL    HW2 6303   7.728   3.845   6.676 -1.1757 -0.7562 -0.4362
33789SOL     OW 6304   8.752   3.233  10.332  0.6378 -0.1728 -0.3010
33789SOL    HW1 6305   8.716   3.280  10.257  0.7034  0.4608  0.0535
33789SOL    HW2 6306   8.677   3.220  10.390  0.5658 -0.7589 -0.5264
33790SOL     OW 6307   6.354  11.008   6.547  0.1960  0.4268 -0.6654
33790SOL    HW1 6308   6.408  10.940   6.587 -1.6664 -1.6053 -1.4027
33790SOL    HW2 6309   6.404  11.036   6.470  1.1601  0.1833 -0.1434
33791SOL     OW 6310   5.956   2.856   5.402 -0.1436 -0.0490 -0.7372
33791SOL    HW1 6311   6.025   2.793   5.422  0.5087  0.8217 -0.1919
33791SOL    HW2 6312   5.968   2.877   5.310  0.6227  0.4509 -0.5288
33792SOL     OW 6313   2.114   7.486   4.310 -0.1470  0.2868  0.3812
33792SOL    HW1 6314   2.047   7.430   4.270  0.6993  0.5626 -1.5285
33792SOL    HW2 6315   2.064   7.553   4.357 -1.2314  0.2800 -0.7081
33793SOL     OW 6316   0.161   6.607   6.581  0.4733 -0.4710 -0.4192
33793SOL    HW1 6317   0.151   6.656   6.500  0.9601 -0.3644 -0.4206
33793SOL    HW2 6318   0.075   6.568   6.597  0.2522 -0.1217 -0.7422
33794SOL     OW 6319   5.788   5.785   1.988 -0.1508 -0.3415 -0.7102
33794SOL    HW1 6320   5.799   5.694   2.016  0.5181 -0.2390 -0.6149
33794SOL    HW2 6321   5.869   5.805   1.941 -0.7310 -0.1054 -1.6089
33795SOL     OW 6322   3.370   8.253   6.625  0.3022 -0.4664  0.0952
33795SOL    HW1 6323   3.406   8.320   6.683  1.4351 -0.0965 -0.9754
33795SOL    HW2 6324   3.434   8.182   6.629  0.2527 -0.5448 -0.4918
33796SOL     OW 6325   0.422  10.654   8.843 -0.5452 -0.1084  0.2548
33796SOL    HW1 6326   0.512  10.669   8.814 -1.2900  0.4622 -1.9603
33796SOL    HW2 6327   0.431  10.602   8.924  1.7287 -0.8282 -0.3880
33797SOL     OW 6328   4.331   5.049   8.010  0.6829 -0.5694 -0.0722
33797SOL    HW1 6329   4.297   5.078   8.095 -1.0246 -2.8049  0.1063
33797SOL    HW2 6330   4.423   5.074   8.011  0.0066  2.2422  1.1109
33798SOL     OW 6331   2.008   3.530   7.347 -0.5000  0.2858 -0.3179
33798SOL    HW1 6332   1.973   3.603   7.295 -1.4603  0.3437  0.3723
33798SOL    HW2 6333   1.979   3.451   7.301 -0.7889  0.3382 -0.2263
33799SOL     OW 6334   9.740   6.684   6.980 -0.2868 -0.0768 -0.2833
33799SOL    HW1 6335   9.753   6.597   7.017  1.3446 -0.2570 -1.1445
33799SOL    HW2 6336   9.823   6.703   6.935 -1.6104  0.7146 -2.5525
33800SOL     OW 6337   1.426   0.080   4.056  0.1324  0.3824 -0.0913
33800SOL    HW1 6338   1.345   0.051   4.098  0.2066  1.6120  0.9790
33800SOL    HW2 6339   1.398   0.140   3.987  0.1292  0.9650  0.4112
33801SOL     OW 6340   3.926   4.763   3.057 -0.1675 -0.1423 -0.0084
33801SOL    HW1 6341   3.832   4.745   3.063 -0.2326 -0.2882 -1.1740
33801SOL    HW2 6342   3.936   4.850   3.095 -0.4307 -0.9705  2.0776
33802SOL     OW 6343   2.854   6.612   1.021  0.3450  0.2843 -0.7738
33802SOL    HW1 6344   2.899   6.529   1.006  1.5670  1.2166 -2.5904
33802SOL    HW2 6345   2.817   6.604   1.109  2.2554 -1.3486 -0.0599
33803SOL     OW 6346   3.766   0.773   1.632 -0.7160  0.0604 -0.6206
33803SOL    HW1 6347   3.748   0.845   1.692  0.3705  1.7166 -2.1534
33803SOL    HW2 6348   3.699   0.780   1.564 -0.4676 -0.2459 -0.9039
33804SOL     OW 6349   2.370   2.405   5.843  0.3604 -0.3382 -0.1074
33804SOL    HW1 6350   2.338   2.477   5.896  0.0653 -1.9826  2.0928
33804SOL    HW2 6351   2.291   2.360   5.814  0.5596 -0.2331 -0.8328
33805SOL     OW 6352   8.743   7.102   8.396 -0.2068  0.4858  0.2495
33805SOL    HW1 6353   8.834   7.098   8.367  0.3271  0.5569  1.8334
33805SOL    HW2 6354   8.741   7.050   8.477 -1.8737 -0.6577 -0.4722
33806SOL     OW 6355  10.866   6.806   0.544 -0.6126 -0.8983 -0.0473
33806SOL    HW1 6356  10.855   6.877   0.606 -0.2278 -1.3386  0.5379
33806SOL    HW2 6357  10.949   6.826   0.499 -0.4977 -0.9798  0.1264
33807SOL     OW 6358   0.099   1.852   5.416  0.0301  0.0467  0.2494
33807SOL    HW1 6359   0.053   1.769   5.421  1.4066 -0.8003 -0.5279
33807SOL    HW2 6360   0.179   1.833   5.367  1.0186  1.5390  1.1767
33808SOL     OW 6361   5.123   1.767  10.410 -0.1910 -0.3071  0.3880
33808SOL    HW1 6362   5.061   1.737  10.476  1.6507 -2.5466  1.2367
33808SOL    HW2 6363   5.085   1.739  10.327 -1.1860  0.0548  0.7067
33809SOL     OW 6364   5.114   3.421   3.499  0.3481  0.1618  0.1945
33809SOL    HW1 6365   5.176   3.381   3.439  1.2688  0.3340  1.0132
33809SOL    HW2 6366   5.167   3.453   3.572 -0.5963  1.0860  0.5075
33810SOL     OW 6367  10.553   9.388   6.274  0.0210  0.4757  0.4835
33810SOL    HW1 6368  10.485   9.427   6.218  0.0004 -1.2104 -0.7368
33810SOL    HW2 6369  10.504   9.332   6.334  0.3116 -1.0712 -0.6722
33811SOL     OW 6370   1.959   4.601   3.319  0.0468 -0.8672  0.2157
33811SOL    HW1 6371   1.969   4.657   3.396  1.7983 -0.4303 -0.2814
33811SOL    HW2 6372   1.912   4.656   3.255  1.3695 -0.0611 -0.1138
33812SOL     OW 6373   2.235   4.723  11.587 -0.0466 -0.2328 -0.2760
33812SOL    HW1 6374   2.217   4.629  11.599 -2.0978  0.0860 -0.5581
33812SOL    HW2 6375   2.240   4.758  11.676  0.2528 -0.5096 -0.1795
33813SOL     OW 6376   3.389   3.148   4.187  0.1870 -0.1236 -0.4402
33813SOL    HW1 6377   3.421   3.197   4.263 -1.8316  0.4271  0.1254
33813SOL    HW2 6378   3.295   3.142   4.201 -0.2524  0.0064 -2.9268
33814SOL     OW 6379  10.786   8.832   0.559  0.3974 -0.8803 -0.1033
33814SOL    HW1 6380  10.707   8.813   0.609  1.8318  0.2119  2.7932
33814SOL    HW2 6381  10.758   8.894   0.492 -1.4248 -1.5310  0.0144
33815SOL     OW 6382   5.864   4.602   5.134  0.3336 -0.1981  0.8511
33815SOL    HW1 6383   5.811   4.575   5.209 -0.9171  0.5624  0.2677
33815SOL    HW2 6384   5.816   4.571   5.058  1.3836 -0.6011  0.3315
33816SOL     OW 6385   6.849   0.616   0.709 -0.0838  0.4905 -0.1911
33816SOL    HW1 6386   6.794   0.670   0.765  1.2890  0.9518  0.7727
33816SOL    HW2 6387   6.822   0.638   0.620  1.0974  3.6529  0.0911
33817SOL     OW 6388   8.639   5.909   9.863  0.0808 -0.1883  0.3486
33817SOL    HW1 6389   8.635   5.854   9.941 -0.0716 -0.3129  0.2519
33817SOL    HW2 6390   8.549   5.916   9.832 -0.2211  1.7270  1.4797
33818SOL     OW 6391  10.105   6.783   9.189 -0.3166 -0.0578  0.5221
33818SOL    HW1 6392  10.167   6.847   9.226  0.2688 -0.5613  0.4307
33818SOL    HW2 6393  10.141   6.765   9.102 -0.9679  0.1421  0.2068
33819SOL     OW 6394   1.620   6.883   1.620 -0.3515 -0.1964  0.5694
33819SOL    HW1 6395   1.595   6.819   1.554 -1.3451 -0.6328  1.3544
33819SOL    HW2 6396   1.716   6.884   1.617 -0.3687 -0.0214 -1.0397
33820SOL     OW 6397   9.939   1.834   0.083  0.4940  0.0405 -0.2423
33820SOL    HW1 6398  10.021   1.814   0.127  0.3400  0.3313  0.1795
33820SOL    HW2 6399   9.949   1.796  -0.004  1.0750  0.0789 -0.1957
33821SOL     OW 6400   1.838   0.799   1.630 -0.4672  0.3800 -0.1424
33821SOL    HW1 6401   1.791   0.733   1.581 -1.5712  1.1234 -0.1289
33821SOL    HW2 6402   1.803   0.793   1.719 -1.2056  1.5154 -0.3305
33822SOL     OW 6403   6.225   6.842   0.770 -0.1460  0.2943 -0.4186
33822SOL    HW1 6404   6.151   6.853   0.710 -0.5121  0.3088  0.0255
33822SOL    HW2 6405   6.261   6.756   0.749 -2.2195 -1.1369  1.4238
33823SOL     OW 6406  10.963   1.124   2.157  0.1044 -0.7573  0.0292
33823SOL    HW1 6407  11.050   1.086   2.147  1.5194  1.8354  1.4462
33823SOL    HW2 6408  10.925   1.077   2.232  1.3935 -0.1409  1.0996
33824SOL     OW 6409   1.274   5.892   5.403  0.3111 -0.1902  0.1722
33824SOL    HW1 6410   1.336   5.952   5.444  1.0220 -1.4486  0.9971
33824SOL    HW2 6411   1.244   5.835   5.474 -0.8990 -0.3668 -0.4489
33825SOL     OW 6412   0.007   0.841   6.018 -0.1318  0.1919  0.5310
33825SOL    HW1 6413  -0.081   0.824   5.987 -0.0578 -1.1267  1.0064
33825SOL    HW2 6414   0.009   0.935   6.035 -0.8443  0.5739 -1.3007
33826SOL     OW 6415   1.687   9.306   5.785  0.0643 -0.0209 -0.1916
33826SOL    HW1 6416   1.688   9.341   5.696  1.1971  1.3616  0.3282
33826SOL    HW2 6417   1.664   9.381   5.840 -0.3902 -0.8020  0.7069
33827SOL     OW 6418   6.434   9.465   7.846  0.8216 -0.4390 -0.3129
33827SOL    HW1 6419   6.510   9.521   7.859 -0.5097  1.2886  0.5814
33827SOL    HW2 6420   6.394   9.497   7.765  0.4456 -0.5912 -0.1911
33828SOL     OW 6421   5.941   8.641   1.373  0.2856  0.0921 -0.0111
33828SOL    HW1 6422   5.967   8.719   1.325  0.4774 -0.8769 -1.5439
33828SOL    HW2 6423   5.900   8.674   1.453  2.2735  1.7200  0.4178
33829SOL     OW 6424   3.150   2.760   8.112 -0.5359  0.5327 -0.3106
33829SOL    HW1 6425   3.244   2.768   8.095 -0.3639  0.7633  0.6442
33829SOL    HW2 6426   3.119   2.850   8.117 -0.8199  0.4549 -0.6799
33830SOL     OW 6427  10.418  11.203   4.236 -0.4466  0.0254  0.2917
33830SOL    HW1 6428  10.416  11.152   4.155 -1.4980 -0.9567  0.8987
33830SOL    HW2 6429  10.331  11.190   4.274 -0.5469  1.8311  0.7614
33831SOL     OW 6430   6.877   6.599   9.995 -0.4444  0.0794 -0.5453
33831SOL    HW1 6431   6.819   6.535  10.036 -2.0312  1.2837 -0.8011
33831SOL    HW2 6432   6.832   6.624   9.914  1.6697 -0.7936 -2.0976
33832SOL     OW 6433   0.464   7.633   7.645  0.1837 -0.2613 -0.1292
33832SOL    HW1 6434   0.403   7.699   7.677 -0.7739  0.7132 -3.4788
33832SOL    HW2 6435   0.546   7.681   7.630  0.6835 -0.7445  0.9444
33833SOL     OW 6436   6.222   5.935   6.237  0.1545  0.5078 -0.1735
33833SOL    HW1 6437   6.259   6.024   6.236  0.6055  0.3254  0.2214
33833SOL    HW2 6438   6.292   5.880   6.271 -0.3222  0.0857  0.1318
33834SOL     OW 6439   0.129   1.986   2.422  0.0832 -0.0018 -0.1080
33834SOL    HW1 6440   0.132   2.053   2.353 -0.3669 -0.6903 -0.8083
33834SOL    HW2 6441   0.039   1.990   2.456  0.0984 -0.1502 -0.0484
33835SOL     OW 6442   6.323   2.566   1.236  0.6691 -0.3197  0.3343
33835SOL    HW1 6443   6.322   2.487   1.290  0.6153  0.4009  1.4156
33835SOL    HW2 6444   6.396   2.552   1.175  2.4445 -0.0735  2.2909
33836SOL     OW 6445   0.706   5.796   6.267  0.3414  0.5797 -0.0118
33836SOL    HW1 6446   0.635   5.733   6.279 -1.9161  2.9958  0.2629
33836SOL    HW2 6447   0.774   5.768   6.328 -0.9251 -1.0798  0.7143
33837SOL     OW 6448   3.304  11.478   6.993  0.2584  0.0276 -0.3176
33837SOL    HW1 6449   3.295  11.553   6.934  1.6422  1.3727  1.1082
33837SOL    HW2 6450   3.388  11.491   7.036  0.0083 -1.7664  0.7941
33838SOL     OW 6451   8.570  11.214  10.378 -0.3664  0.1329 -0.3150
33838SOL    HW1 6452   8.494  11.256  10.338 -0.0137 -1.2573 -2.6521
33838SOL    HW2 6453   8.533  11.160  10.448 -1.3416  0.6732 -0.3964
33839SOL     OW 6454   9.728  10.809   7.842  0.8020 -0.0382 -0.2441
33839SOL    HW1 6455   9.667  10.810   7.768  0.4462 -0.0309  0.0419
33839SOL    HW2 6456   9.785  10.734   7.826 -0.3488 -1.0653  0.3227
33840SOL     OW 6457  10.042   3.713   8.276 -0.0500  0.6985 -0.1679
33840SOL    HW1 6458  10.098   3.785   8.304 -0.8140  1.3031 -0.1833
33840SOL    HW2 6459  10.050   3.648   8.346  0.2322  1.0119  0.0944
33841SOL     OW 6460  10.968   0.557   3.734  0.5706  0.2915  0.6939
33841SOL    HW1 6461  10.898   0.509   3.779  0.2004  0.0798 -0.0880
33841SOL    HW2 6462  10.923   0.603   3.662  1.1301  0.7125  0.6057
33842SOL     OW 6463   6.617   7.387   6.747  0.5882  0.3962 -0.3225
33842SOL    HW1 6464   6.696   7.337   6.726 -0.2576 -0.8486 -0.6158
33842SOL    HW2 6465   6.576   7.403   6.663  0.5034  1.0091 -0.1671
33843SOL     OW 6466   0.513   5.012   9.947 -0.2771 -0.1874 -0.3010
33843SOL    HW1 6467   0.607   5.006   9.966 -0.1989  0.4728 -0.4767
33843SOL    HW2 6468   0.477   5.063  10.019 -0.8978 -2.2997  0.9981
33844SOL     OW 6469   2.031   1.416   9.682 -0.1460  0.0321 -0.0755
33844SOL    HW1 6470   2.110   1.471   9.687 -1.2504  1.6537  0.0691
33844SOL    HW2 6471   2.051   1.341   9.737  0.7990  1.0775  1.0697
33845SOL     OW 6472   5.488   3.801   5.868 -0.1831  0.1250 -0.1449
33845SOL    HW1 6473   5.569   3.752   5.881 -0.4075 -0.4316 -0.7898
33845SOL    HW2 6474   5.466   3.787   5.776 -1.6683 -0.7673  0.2981
33846SOL     OW 6475   1.142  11.513   3.910  0.0516 -0.3942 -0.3137
33846SOL    HW1 6476   1.124  11.443   3.973  1.0503 -0.4786 -0.1111
33846SOL    HW2 6477   1.082  11.495   3.838 -0.0831 -1.1491 -0.0274
33847SOL     OW 6478   8.729   8.991   4.628 -0.0695 -0.7540 -0.3063
33847SOL    HW1 6479   8.768   9.028   4.708  0.1263 -1.5325 -0.0333
33847SOL    HW2 6480   8.796   9.003   4.561  1.0033 -2.7968  0.3375
33848SOL     OW 6481   4.082   3.326   0.432 -0.1079 -0.4311  0.3420
33848SOL    HW1 6482   4.048   3.415   0.431  1.3856  0.2706 -2.7016
33848SOL    HW2 6483   4.176   3.337   0.447  0.0640 -1.4956  0.1064
33849SOL     OW 6484   7.824   6.440   7.985 -0.1970  0.4349 -0.2001
33849SOL    HW1 6485   7.812   6.360   7.933  0.2585  0.1681  0.0977
33849SOL    HW2 6486   7.860   6.504   7.922 -2.1979  0.9714 -0.8745
33850SOL     OW 6487   4.770  11.349   5.021 -0.4602 -0.2294  0.1049
33850SOL    HW1 6488   4.843  11.306   5.064 -0.5474 -0.3605  0.1217
33850SOL    HW2 6489   4.718  11.278   4.983 -1.0866 -0.2022  0.8981
33851SOL     OW 6490   6.297   9.154   1.615  0.5095  0.3247  0.2120
33851SOL    HW1 6491   6.287   9.075   1.667  2.5053 -0.3303 -0.2964
33851SOL    HW2 6492   6.231   9.146   1.546 -0.1990 -0.2159  0.9346
33852SOL     OW 6493   6.542   6.624   7.549 -0.6322  0.3296 -0.6291
33852SOL    HW1 6494   6.464   6.653   7.502 -1.0427  0.6364  0.2294
33852SOL    HW2 6495   6.576   6.704   7.590  2.4238  1.1246 -4.1366
33853SOL     OW 6496   1.655  11.382   2.010  0.1888  0.0021  0.4089
33853SOL    HW1 6497   1.651  11.389   2.105 -0.4870 -1.1499  0.4765
33853SOL    HW2 6498   1.708  11.305   1.993  0.6793  0.4567 -0.1662
33854SOL     OW 6499   5.844  11.667   2.853  0.0771 -0.6773 -0.7031
33854SOL    HW1 6500   5.926  11.716   2.853 -0.2214 -0.1679 -1.0210
33854SOL    HW2 6501   5.870  11.576   2.844  0.6044 -0.5202 -0.7945
33855SOL     OW 6502   1.866   7.490  10.858  0.0943  0.1123 -0.1370
33855SOL    HW1 6503   1.791   7.548  10.873 -0.3000 -0.1478 -1.0169
33855SOL    HW2 6504   1.914   7.530  10.786  1.0532  0.5007  0.7093
33856SOL     OW 6505   6.304   0.034   6.825 -0.3128 -0.0389 -0.4871
33856SOL    HW1 6506   6.376   0.058   6.882 -1.5858  0.7607  0.8608
33856SOL    HW2 6507   6.344  -0.016   6.754  1.4874  0.0890  0.4028
33857SOL     OW 6508   1.852  11.486  10.725 -0.5869  0.3542 -0.2022
33857SOL    HW1 6509   1.781  11.540  10.761 -0.6772 -0.9612  1.7468
33857SOL    HW2 6510   1.817  11.397  10.727  1.3754 -0.4595  1.6640
33858SOL     OW 6511   5.543   8.151   7.092  0.4660 -0.3869 -0.5019
33858SOL    HW1 6512   5.510   8.126   7.179 -0.5100 -0.6375 -0.9394
33858SOL    HW2 6513   5.465   8.160   7.038  0.8468  2.2985 -0.7424
33859SOL     OW 6514   7.012   8.909   1.649 -0.3400 -0.1886  0.0444
33859SOL    HW1 6515   7.025   8.861   1.567 -0.2700 -0.4928  0.2311
33859SOL    HW2 6516   7.040   8.998   1.629  1.5072 -0.6920  0.2722
33860SOL     OW 6517   8.791   1.843   9.226 -0.1792  0.3343  0.4575
33860SOL    HW1 6518   8.712   1.860   9.278  0.8195  1.8581  1.5722
33860SOL    HW2 6519   8.859   1.828   9.292  0.7135  0.2254 -0.4768
33861SOL     OW 6520   4.925   4.497   1.682  0.1887  0.6427  0.2475
33861SOL    HW1 6521   4.949   4.456   1.766  0.6252  3.6466  1.7334
33861SOL    HW2 6522   5.006   4.538   1.652 -0.2846  0.6789 -1.0371
33862SOL     OW 6523   3.311   4.538   0.771  0.6155 -0.3818 -0.0768
33862SOL    HW1 6524   3.398   4.498   0.780  0.6361 -0.8449 -1.8619
33862SOL    HW2 6525   3.308   4.568   0.680 -0.3083  1.5989  0.5606
33863SOL     OW 6526   8.158   1.169   5.602 -0.1551 -0.3556 -0.5320
33863SOL    HW1 6527   8.102   1.206   5.671  1.1878  3.0136 -1.0410
33863SOL    HW2 6528   8.104   1.174   5.523 -1.1066 -2.6652 -0.0959
33864SOL     OW 6529  10.779  11.468   3.884 -0.1963  0.3007 -0.2865
33864SOL    HW1 6530  10.684  11.482   3.880 -0.1672  0.7300  0.3676
33864SOL    HW2 6531  10.813  11.548   3.925  0.4326  0.0963 -0.4112
33865SOL     OW 6532   0.223   4.879   2.584  0.2799 -0.0049 -0.3489
33865SOL    HW1 6533   0.198   4.855   2.674 -1.4280  1.0008 -0.5131
33865SOL    HW2 6534   0.249   4.796   2.544 -2.9478 -1.2496 -0.1490
33866SOL     OW 6535   7.381   6.749   0.402 -0.3054 -0.2271 -0.5786
33866SOL    HW1 6536   7.393   6.669   0.351 -0.7843 -0.8115  0.2118
33866SOL    HW2 6537   7.411   6.727   0.490  2.1668  1.2874 -0.9504
33867SOL     OW 6538   8.135   5.204   6.980  0.3031  0.3369 -0.2506
33867SOL    HW1 6539   8.138   5.131   6.918  0.3093 -0.1980  0.3637
33867SOL    HW2 6540   8.226   5.234   6.985  0.5309 -0.4408  0.4447
33868SOL     OW 6541   9.221   3.951   7.706  0.1567  0.2908 -0.0418
33868SOL    HW1 6542   9.164   4.028   7.716 -0.4281 -0.0490 -0.6423
33868SOL    HW2 6543   9.259   3.960   7.619  0.2211 -0.0121 -0.0459
33869SOL     OW 6544  11.026   8.994  11.419 -0.7965  0.0489 -0.1170
33869SOL    HW1 6545  10.962   9.060  11.445 -1.6331 -0.8379  0.0788
33869SOL    HW2 6546  10.979   8.911  11.421 -0.5496 -0.2861 -2.9987
33870SOL     OW 6547   1.827   1.606   9.573 -0.0525  0.6594  0.1881
33870SOL    HW1 6548   1.890   1.540   9.600  1.0417  0.5636 -2.3711
33870SOL    HW2 6549   1.742   1.569   9.597  0.6440 -0.8610  0.3964
33871SOL     OW 6550   0.672   7.638   8.865 -0.7927  0.4521 -0.2755
33871SOL    HW1 6551   0.710   7.657   8.951 -1.2275  1.3237 -0.2718
33871SOL    HW2 6552   0.745   7.599   8.815 -0.5285 -0.0347  0.4658
33872SOL     OW 6553   1.119   8.497  10.925  0.0812 -0.5654  0.1051
33872SOL    HW1 6554   1.079   8.449  10.996  0.0119  3.2709  2.9827
33872SOL    HW2 6555   1.212   8.476  10.931  0.1805  0.2148  1.8808
33873SOL     OW 6556   6.766   5.244   7.828  0.4547 -0.2913  0.4944
33873SOL    HW1 6557   6.773   5.188   7.750 -1.0198 -0.7231  0.6409
33873SOL    HW2 6558   6.851   5.288   7.834  0.9726 -1.0801 -0.7253
33874SOL     OW 6559   5.946  10.980   0.924  0.6344 -0.4330 -0.1831
33874SOL    HW1 6560   6.009  11.044   0.892  2.5408 -1.9279  0.3722
33874SOL    HW2 6561   5.940  10.996   1.018  0.7684 -0.7434 -0.1176
33875SOL     OW 6562  10.222   4.728   4.248  0.0188 -0.2785  0.4273
33875SOL    HW1 6563  10.302   4.730   4.300 -0.5096 -2.2893  1.3699
33875SOL    HW2 6564  10.219   4.640   4.211 -2.6675 -0.9138  1.9207
33876SOL     OW 6565   3.296   9.585   6.482  0.0873  0.3360 -0.0626
33876SOL    HW1 6566   3.312   9.679   6.486  2.3354 -0.0391  1.1200
33876SOL    HW2 6567   3.346   9.555   6.406  2.9485 -0.4299  1.9734
33877SOL     OW 6568   5.797  10.587   4.212  0.3783  0.0191 -0.1380
33877SOL    HW1 6569   5.767  10.529   4.142  1.6117  1.1747 -1.6907
33877SOL    HW2 6570   5.869  10.539   4.253 -0.2896 -0.6241  0.3158
33878SOL     OW 6571   3.871   0.953   9.994 -0.3252 -0.3555 -0.5012
33878SOL    HW1 6572   3.900   1.030   9.946 -2.6893 -0.0061 -1.4916
33878SOL    HW2 6573   3.866   0.982  10.085  0.2048  0.2215 -0.6508
33879SOL     OW 6574  10.373   5.335   6.839 -0.5310  0.4999  0.0167
33879SOL    HW1 6575  10.443   5.371   6.785 -0.8593 -0.3503 -1.0048
33879SOL    HW2 6576  10.383   5.240   6.832 -1.3612  0.3728  0.4293
33880SOL     OW 6577  10.764   6.434   4.378 -0.4975 -0.0648 -0.5128
33880SOL    HW1 6578  10.820   6.502   4.417 -1.8014  0.8127 -0.1037
33880SOL    HW2 6579  10.680   6.445   4.422 -0.8396 -1.7335 -0.7045
33881SOL     OW 6580   7.361   5.896   6.559 -0.4755 -0.1372  0.0516
33881SOL    HW1 6581   7.392   5.920   6.646  0.3119  0.3019 -0.3379
33881SOL    HW2 6582   7.380   5.803   6.551 -1.8701 -0.5215  0.8807
33882SOL     OW 6583   0.722   4.455   6.359 -0.6049 -0.1360 -0.4079
33882SOL    HW1 6584   0.713   4.408   6.276 -0.5211 -0.0007 -0.4954
33882SOL    HW2 6585   0.816   4.452   6.378 -0.9029 -2.4703  1.0433
33883SOL     OW 6586   4.289   9.792   4.707  0.3738  0.1673  0.3561
33883SOL    HW1 6587   4.329   9.837   4.781 -1.7889  0.7825  1.2236
33883SOL    HW2 6588   4.272   9.704   4.738 -1.5669  0.7409  1.0552
33884SOL     OW 6589   2.439   6.602   9.843 -0.1072 -0.2627 -0.3656
33884SOL    HW1 6590   2.394   6.677   9.881 -1.4378 -0.6130 -1.1949
33884SOL    HW2 6591   2.402   6.526   9.887  1.0059 -0.4697  0.2436
33885SOL     OW 6592   9.820   3.296   5.527 -0.2525  0.2587 -0.3947
33885SOL    HW1 6593   9.864   3.254   5.601 -0.7104  1.1070  0.3793
33885SOL    HW2 6594   9.892   3.321   5.468  0.2148  0.5654  0.2896
33886SOL     OW 6595   3.027   1.201   3.127  0.6088  0.0715  0.4739
33886SOL    HW1 6596   3.081   1.279   3.112  2.9693 -1.1236  2.0637
33886SOL    HW2 6597   3.048   1.175   3.216 -0.7914 -1.8961  0.2807
33887SOL     OW 6598   6.233  10.868   5.936 -0.1596 -0.0335  0.3120
33887SOL    HW1 6599   6.189  10.790   5.904 -0.1751 -0.1103  0.5147
33887SOL    HW2 6600   6.162  10.923   5.971 -0.3702  0.8721 -1.4311
33888SOL     OW 6601   1.249   9.989   6.662  0.8824  0.3178  0.1465
33888SOL    HW1 6602   1.278   9.975   6.572  1.3952 -0.4901  0.4276
33888SOL    HW2 6603   1.249  10.084   6.673  0.3625  0.4413 -0.8466
33889SOL     OW 6604   5.411  10.240  11.557 -0.0719  0.1020  0.0378
33889SOL    HW1 6605   5.429  10.329  11.528  1.3600 -0.4048 -0.7451
33889SOL    HW2 6606   5.321  10.243  11.590 -0.1922  1.7262 -0.3473
33890SOL     OW 6607   5.116   0.601   4.895  0.1112 -0.3058  0.4617
33890SOL    HW1 6608   5.107   0.669   4.829  0.6190  0.7242  1.4173
33890SOL    HW2 6609   5.111   0.519   4.846 -1.7320  0.3737 -0.5717
33891SOL     OW 6610   5.024   2.816   8.572  0.1690 -0.2138 -0.3357
33891SOL    HW1 6611   4.998   2.772   8.491  1.4883 -1.5633 -0.0713
33891SOL    HW2 6612   5.099   2.765   8.604  0.0066  0.6056  1.4622
33892SOL     OW 6613   6.869   6.375   2.325  0.1066  0.1302  0.2413
33892SOL    HW1 6614   6.931   6.318   2.280  0.2649 -0.0263  0.6479
33892SOL    HW2 6615   6.902   6.379   2.415 -0.2635  0.3528  0.3693
33893SOL     OW 6616   4.632   2.434   5.169 -0.5866 -0.3761 -0.1410
33893SOL    HW1 6617   4.718   2.419   5.208 -0.7582  0.9033  0.7982
33893SOL    HW2 6618   4.633   2.383   5.088  1.5727  0.6827 -0.8618
33894SOL     OW 6619   8.565   7.634   1.759  0.3170  0.4180 -0.4002
33894SOL    HW1 6620   8.607   7.589   1.832  0.4521 -0.3013 -0.9077
33894SOL    HW2 6621   8.580   7.727   1.776  0.8982  0.2307  0.1459
33895SOL     OW 6622   5.355   5.329  11.344  0.1739  0.3366 -0.4648
33895SOL    HW1 6623   5.306   5.405  11.314 -0.0905 -0.2237 -1.5253
33895SOL    HW2 6624   5.317   5.308  11.429 -3.5751 -1.7632 -2.3399
33896SOL     OW 6625   4.192   4.046   5.866  0.3039 -0.0823  0.4012
33896SOL    HW1 6626   4.259   4.010   5.924  0.0302 -0.8149  0.2818
33896SOL    HW2 6627   4.209   4.140   5.864  0.2426 -0.0239  1.7646
33897SOL     OW 6628   2.505   0.987   7.631 -0.1339  0.0212 -0.2116
33897SOL    HW1 6629   2.481   1.045   7.559 -0.1769 -0.2671 -0.4304
33897SOL    HW2 6630   2.520   0.902   7.590 -0.5008 -0.2300  0.1634
33898SOL     OW 6631   5.648   5.423   9.953  0.6186  0.2489  0.0869
33898SOL    HW1 6632   5.594   5.359  10.000  0.2173  0.3926 -0.1794
33898SOL    HW2 6633   5.587   5.470   9.897  1.1249 -0.0951 -0.7754
33899SOL     OW 6634   0.330   1.792   0.662 -0.3358 -0.0982 -0.0625
33899SOL    HW1 6635   0.269   1.855   0.699  0.6480  0.7956  0.0733
33899SOL    HW2 6636   0.378   1.841   0.595  0.6914 -0.5827  0.2959
33900SOL     OW 6637   0.197  11.458   8.827 -0.2342 -0.2890 -0.3563
33900SOL    HW1 6638   0.151  11.535   8.862  0.5501 -0.2724  0.6764
33900SOL    HW2 6639   0.129  11.408   8.782 -0.9356  0.5634 -0.2604
33901SOL     OW 6640   2.813   4.529  11.577  0.2030  0.6760  0.2921
33901SOL    HW1 6641   2.872   4.483  11.518  0.3164 -0.2522  1.1044
33901SOL    HW2 6642   2.736   4.549  11.524  0.9369  1.2663 -0.5780
33902SOL     OW 6643   2.508   1.588  11.064  0.0999 -0.3537 -0.0315
33902SOL    HW1 6644   2.429   1.634  11.093  0.3862 -0.3697  0.8281
33902SOL    HW2 6645   2.580   1.647  11.089  0.5287 -1.6186  1.9059
33903SOL     OW 6646   7.176   7.022   1.359  0.1865  0.0921 -0.0894
33903SOL    HW1 6647   7.259   7.040   1.315  1.3527 -3.0305  0.5226
33903SOL    HW2 6648   7.123   6.978   1.293  1.1527 -2.7042  0.8230
33904SOL     OW 6649   4.184   5.427   7.004  0.0331  0.0853  0.0615
33904SOL    HW1 6650   4.255   5.455   6.946 -0.0716  0.2212 -0.0019
33904SOL    HW2 6651   4.227   5.372   7.070  0.1230 -0.2385 -0.2644
33905SOL     OW 6652  11.643   0.855   9.896 -0.0128 -0.3697  0.3178
33905SOL    HW1 6653  11.573   0.877   9.835  0.7484  1.1068 -0.0865
33905SOL    HW2 6654  11.683   0.776   9.859 -1.2037 -1.0147  0.3613
33906SOL     OW 6655   3.362   8.555   0.581 -0.3896 -0.3908 -0.0043
33906SOL    HW1 6656   3.410   8.551   0.663  0.1123 -0.0312 -0.2698
33906SOL    HW2 6657   3.387   8.476   0.534  1.6803  0.8083 -1.0553
33907SOL     OW 6658   4.807   6.494   2.770  0.4462 -0.1375  0.1967
33907SOL    HW1 6659   4.825   6.540   2.689  0.1685 -2.1912 -1.0956
33907SOL    HW2 6660   4.755   6.556   2.822 -1.2064  0.5025 -2.0512
33908SOL     OW 6661   8.451   3.111  10.013 -0.0855  0.3165  0.5583
33908SOL    HW1 6662   8.450   3.040  10.077 -2.0509  0.2392  0.4889
33908SOL    HW2 6663   8.376   3.095   9.957  1.2814  0.6998 -1.4819
33909SOL     OW 6664   9.709  11.431   2.660  0.2055  0.2674  0.6949
33909SOL    HW1 6665   9.625  11.469   2.684  0.0621 -0.0129  0.6488
33909SOL    HW2 6666   9.763  11.505   2.632 -0.0926  0.4230  0.5315
33910SOL     OW 6667  11.287  10.652   0.162 -0.1325 -0.2586  0.4924
33910SOL    HW1 6668  11.337  10.599   0.100  0.5110 -0.2923  1.0380
33910SOL    HW2 6669  11.333  10.735   0.167 -0.2321 -0.2229  0.8613
33911SOL     OW 6670   8.981   6.224   1.722  0.2127  0.2105 -0.3583
33911SOL    HW1 6671   8.888   6.204   1.730 -0.1452  1.3718 -1.3282
33911SOL    HW2 6672   9.007   6.253   1.810 -0.4399  0.2509 -0.1737
33912SOL     OW 6673   6.784   1.639   9.928 -0.1687 -0.2128  0.4323
33912SOL    HW1 6674   6.743   1.636   9.841 -0.6679 -0.0287  0.6606
33912SOL    HW2 6675   6.730   1.699   9.978  0.5355  0.2437  0.6590
33913SOL     OW 6676   9.200   5.912  10.351  0.0686 -0.0759  0.2632
33913SOL    HW1 6677   9.130   5.898  10.287 -0.3481 -0.3396  0.7655
33913SOL    HW2 6678   9.163   5.972  10.415  0.5044  0.2297  0.2364
33914SOL     OW 6679   1.168   5.030   5.966 -0.0652  0.3550 -0.3151
33914SOL    HW1 6680   1.157   5.064   5.877  0.6007  1.4268 -0.0176
33914SOL    HW2 6681   1.153   5.106   6.022  0.6789 -0.0297  0.4258
33915SOL     OW 6682   4.476   0.724   2.588 -0.0603 -0.1011  0.5009
33915SOL    HW1 6683   4.401   0.723   2.529 -0.5957 -0.3607  1.1702
33915SOL    HW2 6684   4.549   0.694   2.535 -0.5864 -0.5881  0.0364
33916SOL     OW 6685   0.920  10.379   8.225  0.0153  0.2219  0.3151
33916SOL    HW1 6686   0.838  10.332   8.212  0.4545 -0.3670 -0.4044
33916SOL    HW2 6687   0.973  10.357   8.149 -0.8734  4.3853 -1.8192
33917SOL     OW 6688   0.105   7.542   9.238 -0.4875 -0.2760 -0.0693
33917SOL    HW1 6689   0.066   7.480   9.177 -0.6393  0.3933 -0.6653
33917SOL    HW2 6690   0.164   7.489   9.292  0.4356 -0.7382 -1.4687
33918SOL     OW 6691   7.132  10.192   7.070 -0.2034  0.1298 -0.2122
33918SOL    HW1 6692   7.132  10.241   6.988  3.4784  0.1652 -0.3555
33918SOL    HW2 6693   7.068  10.121   7.056 -0.2283  0.5760 -2.8026
33919SOL     OW 6694   9.419  11.444   4.655  0.0350 -0.3444  0.0925
33919SOL    HW1 6695   9.366  11.523   4.663  0.1262 -0.3644  0.9258
33919SOL    HW2 6696   9.380  11.382   4.716 -1.1525 -1.5997 -1.8172
33920SOL     OW 6697   0.206  10.792   9.396 -0.0894 -0.6135 -0.2402
33920SOL    HW1 6698   0.278  10.826   9.344  0.1891 -2.5167 -1.1945
33920SOL    HW2 6699   0.139  10.769   9.331 -1.2740  0.4196  0.5715
33921SOL     OW 6700   6.107   9.556   5.509  0.2498  0.1101  0.1929
33921SOL    HW1 6701   6.063   9.491   5.454  0.3069 -0.4951  0.8575
33921SOL    HW2 6702   6.199   9.530   5.509  0.4047  0.6284 -0.1361
33922SOL     OW 6703  10.583   4.259   6.366  0.2848 -0.0241 -0.1834
33922SOL    HW1 6704  10.667   4.251   6.411  0.7110  1.8451 -0.5707
33922SOL    HW2 6705  10.558   4.169   6.345  2.0517 -0.6270  0.1843
33923SOL     OW 6706   6.996   1.693  11.253  0.7533 -0.3352  0.2886
33923SOL    HW1 6707   7.022   1.770  11.202  1.7638 -2.1188 -2.0793
33923SOL    HW2 6708   6.903   1.707  11.272  0.1873  0.2644 -2.4829
33924SOL     OW 6709   9.112   7.432  10.709 -0.0302 -0.2015 -0.2083
33924SOL    HW1 6710   9.162   7.425  10.791  0.0792 -0.5196 -0.2999
33924SOL    HW2 6711   9.021   7.426  10.737 -0.0312  0.6093 -0.0177
33925SOL     OW 6712   2.560   7.159  11.062 -0.4178  0.4925  0.2270
33925SOL    HW1 6713   2.578   7.067  11.043  1.5435  0.9383 -0.2837
33925SOL    HW2 6714   2.470   7.159  11.096 -1.1755 -1.3412 -1.5554
33926SOL     OW 6715   4.877   1.557  11.384  0.1676  0.1057 -0.2016
33926SOL    HW1 6716   4.790   1.578  11.417  0.4797  0.5182  0.3747
33926SOL    HW2 6717   4.935   1.620  11.428  0.6107  0.6049 -1.4574
33927SOL     OW 6718   2.816   2.258   2.266 -0.5187  0.0484 -0.4282
33927SOL    HW1 6719   2.779   2.344   2.249  0.4237  0.9309  1.5967
33927SOL    HW2 6720   2.910   2.273   2.275 -0.1391 -1.4500 -1.3861
33928SOL     OW 6721   4.377   3.519   3.840  0.0902 -0.2321  0.1335
33928SOL    HW1 6722   4.357   3.426   3.854 -0.0728  0.0244  1.7965
33928SOL    HW2 6723   4.337   3.564   3.915  1.0609  1.0602 -0.0873
33929SOL     OW 6724   9.171   7.922   1.243 -0.2937  0.1777  0.0098
33929SOL    HW1 6725   9.112   7.951   1.175  0.4703  1.1799 -0.2423
33929SOL    HW2 6726   9.256   7.959   1.220  0.6984 -2.0172 -0.1738
33930SOL     OW 6727   2.648   0.393  11.545  0.1085  0.1760 -0.3304
33930SOL    HW1 6728   2.560   0.376  11.513 -0.0321  1.0829 -0.4514
33930SOL    HW2 6729   2.702   0.400  11.466  0.0569  0.8255 -0.3152
33931SOL     OW 6730   3.788   8.202   4.258  0.1314 -0.0677 -0.1447
33931SOL    HW1 6731   3.847   8.278   4.252 -0.2456  0.2325 -0.0917
33931SOL    HW2 6732   3.702   8.237   4.235 -0.2244 -0.2626  0.8726
33932SOL     OW 6733   9.240   6.352   8.210 -0.3701  0.3115 -0.3934
33932SOL    HW1 6734   9.176   6.340   8.280  0.7735 -1.0453  0.4773
33932SOL    HW2 6735   9.201   6.307   8.135 -0.2132 -1.0506  0.3055
33933SOL     OW 6736   6.127   4.037   3.024 -0.5522 -0.1631  0.3288
33933SOL    HW1 6737   6.169   4.122   3.039 -1.0117  0.1128  0.0733
33933SOL    HW2 6738   6.179   3.998   2.953 -1.0915  0.4440 -0.4137
33934SOL     OW 6739   0.332   3.140  11.075 -0.1965 -0.0170  0.6833
33934SOL    HW1 6740   0.416   3.185  11.070 -0.2585  0.0022 -0.5924
33934SOL    HW2 6741   0.268   3.205  11.044 -0.2537 -0.9961 -1.4321
33935SOL     OW 6742  11.110  11.430   5.998 -0.7780  0.3651  0.3594
33935SOL    HW1 6743  11.122  11.478   6.080  0.7215  0.2616  0.2445
33935SOL    HW2 6744  11.160  11.480   5.934  0.8361 -1.2776  0.2332
33936SOL     OW 6745   4.056   0.481   9.434  0.1373 -0.3150  0.0716
33936SOL    HW1 6746   4.066   0.401   9.381  2.4185  1.1954 -1.9749
33936SOL    HW2 6747   3.994   0.534   9.383 -1.2523 -0.6416  1.3534
33937SOL     OW 6748   5.902   3.929   5.149 -0.2816 -0.4696  0.7563
33937SOL    HW1 6749   5.964   3.977   5.095 -0.5371 -0.4206  0.5064
33937SOL    HW2 6750   5.912   3.838   5.122  0.7937 -0.6919  1.8015
33938SOL     OW 6751   9.018   4.933   9.438  0.3832 -0.0573 -0.1790
33938SOL    HW1 6752   9.047   4.843   9.422 -0.3443 -0.6115  1.3902
33938SOL    HW2 6753   8.931   4.938   9.396  1.5150  0.7973 -2.6054
33939SOL     OW 6754   7.439  10.062   3.670  0.1276 -0.4040 -0.2191
33939SOL    HW1 6755   7.510  10.007   3.639 -0.0072 -1.1060  0.6558
33939SOL    HW2 6756   7.367  10.001   3.688 -0.0248  0.0334  0.7793
33940SOL     OW 6757   0.223  10.983   1.335  0.5719 -0.1819  0.4635
33940SOL    HW1 6758   0.299  11.014   1.286  0.4614 -1.0122 -0.2693
33940SOL    HW2 6759   0.248  10.896   1.366 -0.6022 -1.1837 -1.1809
33941SOL     OW 6760   8.772   1.834   1.384 -0.0466  0.8254 -0.3336
33941SOL    HW1 6761   8.720   1.908   1.415  0.8396  1.6604 -0.8013
33941SOL    HW2 6762   8.748   1.762   1.442 -1.1670  1.3857 -0.0789
33942SOL     OW 6763   0.226   6.936   6.118 -0.1616  0.2311  0.0953
33942SOL    HW1 6764   0.198   7.020   6.154 -0.2802  1.0291 -1.7501
33942SOL    HW2 6765   0.152   6.909   6.063  0.9000  0.2089 -1.3671
33943SOL     OW 6766  10.081  11.353   3.511 -0.2171  0.6978 -0.2247
33943SOL    HW1 6767  10.063  11.355   3.417  0.5637 -0.3239 -0.4060
33943SOL    HW2 6768  10.117  11.440   3.529  0.6011  0.5534 -1.0801
33944SOL     OW 6769   0.330  10.681  10.426  0.0319  0.1662 -0.4382
33944SOL    HW1 6770   0.373  10.598  10.446  0.4443  0.4505 -0.1248
33944SOL    HW2 6771   0.237  10.663  10.435  0.0630 -0.5356 -1.4230
33945SOL     OW 6772   9.401   9.777   8.336 -0.4791  0.3629 -0.3929
33945SOL    HW1 6773   9.356   9.789   8.420 -1.4270  0.5157 -0.9037
33945SOL    HW2 6774   9.335   9.800   8.271  1.1530  3.4534 -1.1441
33946SOL     OW 6775   5.351   7.738   0.370  0.5886 -0.0668 -0.5588
33946SOL    HW1 6776   5.368   7.756   0.277  0.4097  0.2098 -0.5406
33946SOL    HW2 6777   5.261   7.708   0.372  0.5381  0.0913 -0.4543
33947SOL     OW 6778   1.800   1.861  11.673 -0.0136 -0.1909 -0.6581
33947SOL    HW1 6779   1.747   1.941  11.671  0.4333  0.1095 -0.5760
33947SOL    HW2 6780   1.736   1.790  11.663 -0.4126  0.1744 -0.7444
33948SOL     OW 6781   2.227   5.135  11.493 -0.2829 -0.2370  0.1531
33948SOL    HW1 6782   2.210   5.229  11.482 -0.5559 -0.1830  0.9202
33948SOL    HW2 6783   2.323   5.129  11.495 -0.2605 -0.0004 -0.0928
33949SOL     OW 6784   7.586   5.039   2.791 -0.7532  0.1552  0.4623
33949SOL    HW1 6785   7.649   4.977   2.753  1.9933  2.2200  1.2779
33949SOL    HW2 6786   7.536   4.987   2.854 -0.3669 -1.7513 -0.7257
33950SOL     OW 6787   0.078   8.810   2.578  0.5968  0.1181  0.0906
33950SOL    HW1 6788   0.057   8.877   2.643  0.1597  0.0613  0.0123
33950SOL    HW2 6789   0.142   8.852   2.520  0.3628  0.4543  0.0716
33951SOL     OW 6790   0.498  11.050   6.482 -0.1210  0.4342  0.2673
33951SOL    HW1 6791   0.464  11.115   6.420 -0.6221 -0.4286 -0.3820
33951SOL    HW2 6792   0.424  11.029   6.539 -0.3146 -0.4507 -0.2917
33952SOL     OW 6793   6.316   7.068   1.957  0.2706  0.3296  0.1668
33952SOL    HW1 6794   6.274   7.129   1.896  1.2353  0.7726 -0.0800
33952SOL    HW2 6795   6.310   6.983   1.913 -1.2572  0.1723  0.6024
33953SOL     OW 6796   9.457   3.899   5.212 -0.2698 -0.0523  0.4240
33953SOL    HW1 6797   9.397   3.944   5.152  1.6973  0.9730 -0.9074
33953SOL    HW2 6798   9.408   3.822   5.242 -2.4312  1.0367 -0.0992
33954SOL     OW 6799   8.600   2.739   5.494 -0.2605 -0.4566  0.0655
33954SOL    HW1 6800   8.638   2.728   5.582 -0.2280  0.1244  0.1286
33954SOL    HW2 6801   8.663   2.696   5.436  0.4951  0.4482  0.1749
33955SOL     OW 6802   7.104   5.976   2.576 -0.3559  0.8134  0.2895
33955SOL    HW1 6803   7.048   5.901   2.599 -0.6501  1.0181  0.2542
33955SOL    HW2 6804   7.165   5.942   2.511 -0.3662  0.5560  0.4156
33956SOL     OW 6805  11.452   5.585   1.809  0.2629  0.8291 -0.1293
33956SOL    HW1 6806  11.434   5.586   1.715  1.8066  0.0416 -0.4739
33956SOL    HW2 6807  11.436   5.495   1.836 -2.1176  1.4635  0.8343
33957SOL     OW 6808   0.952  11.306   8.553 -0.3267  0.2150  0.0415
33957SOL    HW1 6809   0.906  11.371   8.500  1.6743  1.2026 -0.5544
33957SOL    HW2 6810   0.897  11.228   8.546 -1.8058  1.2648 -0.7792
33958SOL     OW 6811   0.583   2.259  10.457 -0.0361 -0.4903 -0.1553
33958SOL    HW1 6812   0.634   2.202  10.514 -1.0116  0.4324  1.7446
33958SOL    HW2 6813   0.638   2.336  10.443  0.0125 -0.5060 -0.0465
33959SOL     OW 6814   1.482   7.218   0.204  0.1180 -0.1006  0.8425
33959SOL    HW1 6815   1.567   7.252   0.177  0.2195 -0.7297  0.3645
33959SOL    HW2 6816   1.426   7.296   0.208  0.0420  0.0443 -1.4080
33960SOL     OW 6817  11.297   1.819   9.782  0.0114  0.2537 -0.2757
33960SOL    HW1 6818  11.307   1.725   9.797  1.5162  0.3060 -0.7693
33960SOL    HW2 6819  11.213   1.841   9.822  0.0625 -1.1276  0.6592
33961SOL     OW 6820   8.656   5.317   6.839 -0.2601 -0.2507  0.5117
33961SOL    HW1 6821   8.622   5.377   6.772  1.5288 -1.8417 -2.0002
33961SOL    HW2 6822   8.691   5.243   6.789  1.8514 -1.2159  3.1728
33962SOL     OW 6823   1.731   1.488   7.719  0.2935  0.4178  0.5739
33962SOL    HW1 6824   1.757   1.461   7.630  0.8322  0.7877  0.6109
33962SOL    HW2 6825   1.716   1.406   7.766 -1.8347  0.2025 -0.3633
33963SOL     OW 6826   2.294   3.240   9.504  0.4474  0.3245 -0.7946
33963SOL    HW1 6827   2.355   3.269   9.572  0.0411 -0.3736 -0.1103
33963SOL    HW2 6828   2.210   3.281   9.529 -0.0507 -1.1048 -0.0108
33964SOL     OW 6829   5.206   3.482   8.110 -0.1828  0.0640 -0.6863
33964SOL    HW1 6830   5.136   3.504   8.171  0.7585  0.0200  0.4647
33964SOL    HW2 6831   5.202   3.387   8.101 -0.5166  0.1010 -0.9443
33965SOL     OW 6832   5.996   4.302   8.313  0.0085  0.0010  0.3215
33965SOL    HW1 6833   6.070   4.344   8.268  0.8424 -1.0327  0.7062
33965SOL    HW2 6834   6.032   4.222   8.350 -1.6601 -1.3643 -0.8187
33966SOL     OW 6835  11.434   6.890   9.912 -0.3235 -0.0633  0.5300
33966SOL    HW1 6836  11.457   6.859   9.999 -0.4711  0.3543  0.7193
33966SOL    HW2 6837  11.347   6.927   9.921  0.5899  2.2208  0.7831
33967SOL     OW 6838   0.776   6.067   4.031  0.4183 -0.3865 -0.2597
33967SOL    HW1 6839   0.793   6.126   3.957 -1.4657 -0.0958 -0.4915
33967SOL    HW2 6840   0.710   6.113   4.084  2.3943 -0.1037  2.2045
33968SOL     OW 6841   2.794   6.320   6.974  0.0088  0.2221 -0.2299
33968SOL    HW1 6842   2.791   6.365   6.889  0.9110 -0.1526 -0.4768
33968SOL    HW2 6843   2.888   6.310   6.992 -0.1687 -0.9315  0.1414
33969SOL     OW 6844   2.840   2.163   0.063 -0.0497  0.8686  0.1220
33969SOL    HW1 6845   2.799   2.148  -0.022 -2.1255 -0.3767  1.2538
33969SOL    HW2 6846   2.840   2.259   0.072  1.4675  1.1180 -1.7797
33970SOL     OW 6847   5.778   8.638   7.189 -0.3293  0.5519 -0.3272
33970SOL    HW1 6848   5.731   8.639   7.105  0.5593 -1.3720 -0.9066
33970SOL    HW2 6849   5.716   8.675   7.252 -1.9441 -0.2456 -1.3939
33971SOL     OW 6850   3.581   5.465  10.947  0.2547 -0.1150 -0.1052
33971SOL    HW1 6851   3.650   5.438  10.886  1.0945  0.0993  0.7123
33971SOL    HW2 6852   3.508   5.406  10.929  0.1066  0.5639 -1.9662
33972SOL     OW 6853   8.990  10.399   0.888  0.1696  0.3685 -0.2330
33972SOL    HW1 6854   9.030  10.339   0.825 -1.5114 -0.2606 -0.7461
33972SOL    HW2 6855   8.964  10.344   0.962 -1.7059  0.3367 -0.8585
33973SOL     OW 6856   0.635  10.125   9.702 -0.4858  0.4007  0.1441
33973SOL    HW1 6857   0.544  10.148   9.684 -0.1994  1.2224 -0.3001
33973SOL    HW2 6858   0.648  10.043   9.654 -0.4539  1.2906 -1.4665
33974SOL     OW 6859   1.300   1.211   4.796  0.0460  0.7788  0.4041
33974SOL    HW1 6860   1.214   1.225   4.757 -0.6326  0.1109  1.6099
33974SOL    HW2 6861   1.282   1.173   4.882  1.5738 -0.6065  0.1736
33975SOL     OW 6862   6.810   4.519   7.155 -0.6519  0.0675 -0.0865
33975SOL    HW1 6863   6.893   4.559   7.180  0.0753 -0.6922 -1.2000
33975SOL    HW2 6864   6.831   4.464   7.080 -1.4630 -2.7223  1.5431
33976SOL     OW 6865   1.981   8.480   6.117  0.3226  0.0761  0.2778
33976SOL    HW1 6866   1.980   8.398   6.068 -0.7009  0.8321 -1.0366
33976SOL    HW2 6867   2.051   8.532   6.077  0.6377  0.0398  0.7767
33977SOL     OW 6868   9.884   7.980   9.142  0.6150 -0.0035 -0.2345
33977SOL    HW1 6869   9.882   8.044   9.212 -0.8520 -1.1744  0.8757
33977SOL    HW2 6870   9.825   8.015   9.076  0.7372  0.3344 -0.1692
33978SOL     OW 6871   7.691  10.599   3.279  0.3865  0.2449  0.4247
33978SOL    HW1 6872   7.683  10.600   3.183  1.9326 -0.0663  0.2608
33978SOL    HW2 6873   7.766  10.541   3.296 -1.0816 -1.3106  1.9448
33979SOL     OW 6874   4.848   4.992  11.688  0.9441  0.1507 -0.0195
33979SOL    HW1 6875   4.772   4.945  11.654  1.2861 -0.5301  0.1498
33979SOL    HW2 6876   4.849   4.972  11.781  2.1746 -1.0710 -0.2606
33980SOL     OW 6877   1.297   5.267   6.195 -0.2806  0.2512  0.4644
33980SOL    HW1 6878   1.234   5.208   6.236 -1.1286 -0.0096 -1.1606
33980SOL    HW2 6879   1.383   5.229   6.216 -0.7589 -0.7841  0.5988
33981SOL     OW 6880   1.779   2.307  11.440 -0.1085 -0.2606 -0.2842
33981SOL    HW1 6881   1.849   2.324  11.377  1.8572 -1.5805  1.3795
33981SOL    HW2 6882   1.735   2.391  11.451  0.9542  0.5286 -1.7156
33982SOL     OW 6883   9.365   0.525  11.494  0.6536  0.0913  0.1315
33982SOL    HW1 6884   9.292   0.465  11.477  0.8151 -0.1708  0.3627
33982SOL    HW2 6885   9.401   0.544  11.407  0.0053  0.6075 -0.0326
33983SOL     OW 6886   2.326   7.791  11.155 -0.5182  0.0617  0.2553
33983SOL    HW1 6887   2.275   7.750  11.225  0.4542  0.7244  1.3714
33983SOL    HW2 6888   2.405   7.738  11.149 -0.3218  0.3747  0.0753
33984SOL     OW 6889   8.322  11.288   6.561 -0.1228  0.4214 -0.0058
33984SOL    HW1 6890   8.269  11.358   6.599  0.4923  0.2485  1.2309
33984SOL    HW2 6891   8.383  11.332   6.503 -0.8698  0.7292 -0.5771
33985SOL     OW 6892   7.804  10.955   8.396  0.5940 -0.3330  0.4387
33985SOL    HW1 6893   7.853  10.971   8.476  1.8584  0.4381 -0.4442
33985SOL    HW2 6894   7.814  11.035   8.345  0.4287 -1.0643 -0.7889
33986SOL     OW 6895  10.184   4.449   7.679  0.2558 -0.4924  0.4111
33986SOL    HW1 6896  10.096   4.489   7.676  0.5800  0.4344  2.0616
33986SOL    HW2 6897  10.243   4.524   7.683  1.1328 -1.1275 -0.3099
33987SOL     OW 6898   2.321   7.737   6.509  0.3221 -0.3942 -0.1300
33987SOL    HW1 6899   2.250   7.683   6.472  1.3593 -0.6059 -1.9637
33987SOL    HW2 6900   2.309   7.823   6.469 -1.8033  1.1441  3.3931
33988SOL     OW 6901   4.185  10.563   6.260  0.2771 -0.1871 -0.0964
33988SOL    HW1 6902   4.186  10.593   6.169  1.0977 -1.0417 -0.3905
33988SOL    HW2 6903   4.173  10.642   6.311 -3.2781  0.0233 -1.0129
33989SOL     OW 6904   7.727   3.944   1.206 -0.5714  0.3655 -0.0445
33989SOL    HW1 6905   7.781   3.987   1.272 -0.6495  0.6126 -0.1403
33989SOL    HW2 6906   7.662   4.009   1.182 -0.1494  0.5134 -0.8326
33990SOL     OW 6907   8.393   1.039   5.296 -0.2408  0.0328  0.1417
33990SOL    HW1 6908   8.443   1.029   5.377  0.1079  1.9418  0.1940
33990SOL    HW2 6909   8.311   1.080   5.323 -1.0732 -1.3370 -0.2059
33991SOL     OW 6910   7.875  11.615   5.690 -0.3539  0.1550 -0.7887
33991SOL    HW1 6911   7.891  11.691   5.634  3.5202  0.8636  0.8859
33991SOL    HW2 6912   7.954  11.561   5.680 -0.4114 -0.7049  2.2978
33992SOL     OW 6913   0.341   2.415   3.542  0.1364 -0.0329  0.0286
33992SOL    HW1 6914   0.268   2.466   3.576  0.3391  1.0327 -1.0643
33992SOL    HW2 6915   0.411   2.427   3.607  0.2176  1.2011 -0.2587
33993SOL     OW 6916   4.713   5.263   4.610  0.0920 -0.5076 -0.1905
33993SOL    HW1 6917   4.647   5.266   4.679  0.8481  0.0323  0.5172
33993SOL    HW2 6918   4.671   5.308   4.536 -0.0593  0.5333  0.5040
33994SOL     OW 6919   4.916   3.867   9.848  0.2412 -0.0805  0.0161
33994SOL    HW1 6920   4.931   3.842   9.939  1.7072  0.4491 -0.0520
33994SOL    HW2 6921   4.919   3.785   9.799  0.3610 -0.2639  0.3317
33995SOL     OW 6922  10.306   7.469   4.050 -0.2759  0.2722 -0.7192
33995SOL    HW1 6923  10.255   7.532   4.101 -1.2898 -0.4920 -0.7335
33995SOL    HW2 6924  10.246   7.440   3.981 -0.0273 -1.0636 -0.4155
33996SOL     OW 6925  10.251  10.362   2.660 -0.5081 -0.1445 -0.3097
33996SOL    HW1 6926  10.201  10.303   2.717 -0.7437  1.7616  1.5665
33996SOL    HW2 6927  10.332  10.379   2.708 -0.0551  0.3816 -1.2249
33997SOL     OW 6928   7.466  10.634   2.010 -0.2084  0.3613  0.1981
33997SOL    HW1 6929   7.466  10.546   1.973  0.7030 -0.4164  1.8974
33997SOL    HW2 6930   7.374  10.660   2.011 -0.3564  0.0220 -1.5806
33998SOL     OW 6931   1.936   2.306   6.708 -0.0477  0.2570 -0.1115
33998SOL    HW1 6932   1.932   2.391   6.753 -0.2006 -0.2784  0.9185
33998SOL    HW2 6933   1.862   2.309   6.647  1.9127  2.2034 -2.6321
33999SOL     OW 6934   2.834   4.624  10.880 -0.4006  0.0119  0.2095
33999SOL    HW1 6935   2.899   4.689  10.854 -0.3505  0.7563  2.0585
33999SOL    HW2 6936   2.883   4.543  10.890 -0.5803 -0.5887 -2.8403
34000SOL     OW 6937   5.599   4.556   7.455  0.6253  0.1743 -0.3641
34000SOL    HW1 6938   5.652   4.547   7.533 -1.5204 -0.3945  1.1308
34000SOL    HW2 6939   5.586   4.466   7.424  0.7439  0.3270 -0.8681
34001SOL     OW 6940  10.592   1.222   6.404 -0.6038 -0.1077 -0.2998
34001SOL    HW1 6941  10.561   1.269   6.482  2.2670  1.0348  0.2829
34001SOL    HW2 6942  10.573   1.280   6.331 -2.8167 -0.9498 -0.4868
34002SOL     OW 6943   7.680   2.768  10.022 -0.3680  0.5507  0.3943
34002SOL    HW1 6944   7.724   2.767   9.937 -0.2499  1.6982  0.4322
34002SOL    HW2 6945   7.607   2.828  10.011 -1.0872 -0.2263  0.7615
34003SOL     OW 6946   4.933   2.980   4.490  0.4985  0.0847 -0.1641
34003SOL    HW1 6947   4.986   2.921   4.437 -1.5009 -2.6248  0.6042
34003SOL    HW2 6948   4.849   2.985   4.444 -0.3953 -0.2239  1.3443
34004SOL     OW 6949   6.214   6.049   1.456 -0.8859 -1.1582 -0.0763
34004SOL    HW1 6950   6.229   6.088   1.369  0.5912  0.3978  0.8219
34004SOL    HW2 6951   6.120   6.060   1.470 -1.0323 -0.8090 -1.2050
34005SOL     OW 6952   9.290   3.097  11.353 -0.1573  1.2845  0.0814
34005SOL    HW1 6953   9.214   3.040  11.362  0.0719  1.0920  0.8747
34005SOL    HW2 6954   9.267   3.156  11.282 -0.2100 -0.0867 -1.0695
34006SOL     OW 6955   6.705   7.872   1.264 -0.1169  0.0501  0.6039
34006SOL    HW1 6956   6.639   7.831   1.209  0.9253  1.3449 -1.7542
34006SOL    HW2 6957   6.682   7.964   1.265  0.4911  0.2092  1.4925
34007SOL     OW 6958   8.356  11.317  10.265 -0.8861  0.1249 -0.1586
34007SOL    HW1 6959   8.384  11.313  10.174 -2.2775 -1.3704 -0.5613
34007SOL    HW2 6960   8.307  11.399  10.272  0.0668  0.7428 -0.4626
34008SOL     OW 6961   8.408   1.887   8.906  0.7345  0.9292  0.3652
34008SOL    HW1 6962   8.392   1.978   8.878 -3.1257  0.8825  1.7516
34008SOL    HW2 6963   8.424   1.894   9.000  2.5188  0.2619  0.1399
34009SOL     OW 6964   7.194  10.550   6.480 -0.4576 -0.1173 -0.0103
34009SOL    HW1 6965   7.289  10.537   6.476 -0.1309  2.1956 -1.3095
34009SOL    HW2 6966   7.158  10.465   6.455  1.2960 -0.7161 -0.6955
34010SOL     OW 6967   1.240   5.916   2.446  0.1486  0.1684 -0.0779
34010SOL    HW1 6968   1.311   5.925   2.510  2.2887  1.0871 -2.4581
34010SOL    HW2 6969   1.218   6.005   2.421 -0.8484 -0.1662 -0.4624
34011SOL     OW 6970  11.063   4.126  10.795  0.0790  0.5586 -0.1398
34011SOL    HW1 6971  11.144   4.094  10.836  1.1025  0.7385 -1.9008
34011SOL    HW2 6972  11.053   4.071  10.717 -1.6628  0.3895  0.1548
34012SOL     OW 6973   1.570   9.548  11.628  0.2349 -0.0333  0.1499
34012SOL    HW1 6974   1.626   9.619  11.657  0.1907  0.1446 -0.1915
34012SOL    HW2 6975   1.518   9.586  11.557 -0.3196 -0.1977  0.4694
34013SOL     OW 6976   6.565   5.756   9.920 -0.4244  0.3512 -0.1950
34013SOL    HW1 6977   6.556   5.677   9.973  0.4732 -1.9261 -3.1898
34013SOL    HW2 6978   6.478   5.771   9.884 -0.4411  0.3721 -0.1469
34014SOL     OW 6979   8.620   0.844   8.829 -0.0787 -0.9995  0.0859
34014SOL    HW1 6980   8.688   0.834   8.895  0.7964  0.6489 -0.5047
34014SOL    HW2 6981   8.558   0.773   8.847  0.9388 -1.5367  1.6660
34015SOL     OW 6982  11.518   1.659  10.078  0.2848  0.4712 -0.1421
34015SOL    HW1 6983  11.495   1.694  10.164 -0.0094  0.7806 -0.3448
34015SOL    HW2 6984  11.545   1.569  10.096  1.1863  0.8432  0.3955
34016SOL     OW 6985   7.426  10.423   3.688  0.3406 -0.2912 -0.4708
34016SOL    HW1 6986   7.490  10.371   3.736  0.3097 -1.0116 -1.1828
34016SOL    HW2 6987   7.479  10.475   3.627  0.3450  0.2589 -0.0074
34017SOL     OW 6988   3.042   8.952   6.479  0.0188  0.2050  0.3025
34017SOL    HW1 6989   2.952   8.929   6.455 -0.6168  0.3202  2.3880
34017SOL    HW2 6990   3.083   8.869   6.503  0.9996 -0.0718 -2.0605
34018SOL     OW 6991   7.702   6.059   5.212  0.8261  0.2809 -0.5011
34018SOL    HW1 6992   7.773   6.037   5.273 -0.0036  0.0082  0.3865
34018SOL    HW2 6993   7.735   6.134   5.162  0.7549  1.8556  1.7024
34019SOL     OW 6994   0.277  10.010   1.580 -0.7144 -0.2872 -0.2286
34019SOL    HW1 6995   0.233  10.022   1.496  0.5879  3.3025 -0.5993
34019SOL    HW2 6996   0.278  10.098   1.619  2.5988 -0.9002  1.4811
34020SOL     OW 6997   6.297   1.233   3.396  0.3362 -0.4116  0.2447
34020SOL    HW1 6998   6.287   1.320   3.358 -0.0140 -0.5811 -0.0546
34020SOL    HW2 6999   6.321   1.249   3.487  2.1612  0.0164 -0.2610
34021SOL     OW 7000   3.497   1.012   6.025 -0.4021 -0.0017  0.6097
34021SOL    HW1 7001   3.509   1.102   6.054  0.7080 -0.4929  1.7914
34021SOL    HW2 7002   3.586   0.980   6.010 -0.8197 -0.6303 -0.7395
34022SOL     OW 7003   1.422   2.119  11.504  0.4819 -0.0243  0.7226
34022SOL    HW1 7004   1.497   2.125  11.444 -0.4990 -0.7494 -0.6176
34022SOL    HW2 7005   1.369   2.196  11.483 -0.9856 -1.4067 -0.9847
34023SOL     OW 7006   0.166  10.527   7.321  0.9113 -0.0008 -0.6589
34023SOL    HW1 7007   0.088  10.549   7.270  1.4624 -2.6063 -2.8540
34023SOL    HW2 7008   0.132  10.501   7.407 -0.1380  3.3738  0.1072
34024SOL     OW 7009   0.807   9.117   0.430 -0.5695  0.0297  0.6814
34024SOL    HW1 7010   0.859   9.163   0.496  0.8979  1.4689 -1.3426
34024SOL    HW2 7011   0.826   9.025   0.443  2.6083  0.4899  0.0243
34025SOL     OW 7012  11.135   9.317   6.502  0.1180  0.1263 -0.0785
34025SOL    HW1 7013  11.195   9.242   6.504 -0.7789 -0.6130  1.8140
34025SOL    HW2 7014  11.048   9.279   6.515 -0.5270  1.3662 -0.6241
34026SOL     OW 7015   7.598   7.387   2.840 -0.6969 -0.3948 -0.0953
34026SOL    HW1 7016   7.653   7.339   2.778 -0.3553  3.1781 -2.9470
34026SOL    HW2 7017   7.514   7.398   2.795 -1.2391  0.4145  1.0409
34027SOL     OW 7018   0.020  10.595   8.150  0.3167 -0.1912  0.1345
34027SOL    HW1 7019   0.010  10.513   8.101 -1.5763 -0.0004  0.1080
34027SOL    HW2 7020   0.017  10.663   8.084 -0.0655 -0.0323  0.3085
34028SOL     OW 7021   6.301   7.174   5.092 -0.2573  0.5668 -0.5348
34028SOL    HW1 7022   6.396   7.183   5.103 -0.4371  1.8131  0.3144
34028SOL    HW2 7023   6.277   7.244   5.032 -0.7653  0.9762  0.1271
34029SOL     OW 7024   1.413   6.512   8.873 -0.3820  0.7424  0.0380
34029SOL    HW1 7025   1.462   6.546   8.798  0.0966 -0.9308 -0.4383
34029SOL    HW2 7026   1.350   6.451   8.836 -2.2662  2.1651  0.7454
34030SOL     OW 7027   5.388   9.693   7.774  0.1878 -0.5014  0.2974
34030SOL    HW1 7028   5.392   9.784   7.745 -0.0652 -0.6397 -0.1871
34030SOL    HW2 7029   5.332   9.694   7.851  1.4400 -0.0175  1.2473
34031SOL     OW 7030   7.416  10.461   5.359  0.4469 -0.1579 -0.2144
34031SOL    HW1 7031   7.372  10.544   5.340  1.5895  0.3401 -0.7620
34031SOL    HW2 7032   7.474  10.446   5.284  3.6267  0.8577  1.8065
34032SOL     OW 7033   8.913   2.270   8.812 -0.0352 -0.0564  0.1113
34032SOL    HW1 7034   8.867   2.187   8.802 -1.6585  0.8212 -0.0838
34032SOL    HW2 7035   8.920   2.283   8.907  4.7535 -2.7191  0.4223
34033SOL     OW 7036   4.926   2.399   3.870  0.3570 -0.1863 -0.6873
34033SOL    HW1 7037   4.913   2.388   3.776 -0.8099  2.1056 -0.8626
34033SOL    HW2 7038   4.878   2.325   3.909 -1.3352  0.2416 -1.8433
34034SOL     OW 7039   7.126   6.975   5.990  0.2432  0.4002  0.6975
34034SOL    HW1 7040   7.034   6.957   5.976  0.3082  0.6832 -0.1143
34034SOL    HW2 7041   7.128   7.063   6.028  0.2554  1.0062 -0.6685
34035SOL     OW 7042   6.168   5.648   0.649 -0.1233  0.4129 -0.3447
34035SOL    HW1 7043   6.252   5.655   0.695 -0.1916 -0.6445 -0.0142
34035SOL    HW2 7044   6.189   5.664   0.557  0.4100  0.3705 -0.2317
34036SOL     OW 7045   1.158  10.381   9.846 -0.4596 -0.3866  0.0868
34036SOL    HW1 7046   1.199  10.318   9.788 -0.8942 -0.4851 -0.1131
34036SOL    HW2 7047   1.072  10.398   9.808 -0.7962 -0.5369  0.7537
34037SOL     OW 7048   8.948   1.946   3.303 -0.1037 -0.0598 -0.1794
34037SOL    HW1 7049   9.040   1.935   3.327 -0.2485 -1.4603 -0.2413
34037SOL    HW2 7050   8.935   2.041   3.303  1.2863  0.1466  0.0165
34038SOL     OW 7051   5.550   9.942   1.115  0.2004 -0.3478  1.3238
34038SOL    HW1 7052   5.589   9.859   1.141  1.6491  0.3478  1.5079
34038SOL    HW2 7053   5.482   9.958   1.180  1.9157  0.0166  3.1418
34039SOL     OW 7054   2.532   9.688   5.810 -0.6775  0.2879 -0.1040
34039SOL    HW1 7055   2.525   9.636   5.729 -1.0023  0.0259  0.0890
34039SOL    HW2 7056   2.442   9.693   5.842 -0.2247 -2.2672  1.9063
34040SOL     OW 7057   0.811   5.977   3.458  0.0227 -0.3962  0.3480
34040SOL    HW1 7058   0.864   5.907   3.420  1.8091 -0.8494  3.2867
34040SOL    HW2 7059   0.837   6.056   3.410 -1.4567 -1.5003 -2.4937
34041SOL     OW 7060   6.752  11.492  10.233 -0.1633  0.1593 -0.3923
34041SOL    HW1 7061   6.814  11.560  10.261 -0.1169 -0.8146  2.2079
34041SOL    HW2 7062   6.803  11.436  10.175  1.0061  0.1956  0.5491
34042SOL     OW 7063   8.224  10.509  11.141 -0.2053 -0.2382 -1.1473
34042SOL    HW1 7064   8.290  10.458  11.094 -0.7564 -0.9050 -1.2166
34042SOL    HW2 7065   8.161  10.534  11.073 -0.2887 -0.0357 -0.9964
34043SOL     OW 7066   1.224   2.265   5.692 -0.1243 -0.0346 -0.5688
34043SOL    HW1 7067   1.257   2.180   5.663 -0.4541 -0.0152 -1.0023
34043SOL    HW2 7068   1.177   2.245   5.773  0.4609 -0.1459 -0.2491
34044SOL     OW 7069  10.945   7.110   6.501 -0.0950 -0.4141  0.4877
34044SOL    HW1 7070  10.946   7.185   6.561 -0.2689 -0.3621  0.4283
34044SOL    HW2 7071  10.862   7.067   6.519  0.6436 -1.4310  1.5407
34045SOL     OW 7072   0.505   9.043   2.509 -0.0321  0.4113  0.0959
34045SOL    HW1 7073   0.597   9.016   2.507 -0.3625 -1.2962  2.8457
34045SOL    HW2 7074   0.508   9.137   2.526  1.1928  0.3701  0.1895
34046SOL     OW 7075   8.424   0.652   8.549 -0.0054 -0.3829  0.3880
34046SOL    HW1 7076   8.442   0.739   8.586  2.4699  0.1213 -1.6609
34046SOL    HW2 7077   8.349   0.666   8.491  0.7872  0.6016 -0.4448
34047SOL     OW 7078   9.994   3.221   1.920  0.2797 -0.1448  0.2826
34047SOL    HW1 7079   9.911   3.263   1.941  0.6256  0.7990 -0.1714
34047SOL    HW2 7080  10.045   3.289   1.876  0.8306 -1.0653 -0.5505
34048SOL     OW 7081   3.098   0.156   1.386 -0.2282 -0.1798  0.0728
34048SOL    HW1 7082   3.022   0.144   1.329 -0.3493 -2.8798  0.6706
34048SOL    HW2 7083   3.143   0.071   1.384  1.3328  0.5328  1.7990
34049SOL     OW 7084   6.465   2.403   9.177 -0.4361 -0.0370 -0.4713
34049SOL    HW1 7085   6.511   2.484   9.152 -0.7133 -0.3728 -2.2538
34049SOL    HW2 7086   6.509   2.334   9.127 -0.0758 -1.0378  1.1833
34050SOL     OW 7087   4.229  10.682   9.905  0.3566  0.0423  0.1607
34050SOL    HW1 7088   4.264  10.770   9.896  0.4734 -0.1309 -1.3022
34050SOL    HW2 7089   4.215  10.652   9.815 -0.9130 -0.9435  0.6501
34051SOL     OW 7090   9.776   9.120   5.812  0.2721  0.3193  0.2904
34051SOL    HW1 7091   9.735   9.038   5.841 -2.3728  2.1173  2.1035
34051SOL    HW2 7092   9.831   9.147   5.885 -0.0234  0.8678  0.3148
34052SOL     OW 7093   4.707   5.275  11.642 -0.1474  0.4648  0.0183
34052SOL    HW1 7094   4.787   5.318  11.673 -0.9968  2.0500  0.0623
34052SOL    HW2 7095   4.718   5.272  11.547 -0.5426  1.7681 -0.0840
34053SOL     OW 7096   4.045  10.210   7.463  0.5426  0.3656  0.2677
34053SOL    HW1 7097   4.139  10.199   7.450 -0.0588 -0.9926 -4.9819
34053SOL    HW2 7098   4.006  10.128   7.433 -2.4376  1.4576  0.7772
34054SOL     OW 7099   9.459   4.678  10.183  0.5241  0.1703  0.1482
34054SOL    HW1 7100   9.436   4.636  10.101  0.4397  0.0041  0.2574
34054SOL    HW2 7101   9.478   4.769  10.159 -1.6653  0.7049  0.2583
34055SOL     OW 7102   8.906   0.085   1.189 -0.0604  0.3257  0.0264
34055SOL    HW1 7103   8.916  -0.006   1.160 -0.5347  0.2155  0.1960
34055SOL    HW2 7104   8.968   0.094   1.261  1.1864  0.6270 -1.0520
34056SOL     OW 7105   6.429   7.364  10.857  0.0821  0.3445  0.0719
34056SOL    HW1 7106   6.393   7.386  10.943 -0.2860  3.4368 -0.7652
34056SOL    HW2 7107   6.524   7.368  10.868  0.0672  3.4763 -0.1662
34057SOL     OW 7108   8.281   1.879   1.083 -0.1170 -0.5883  0.1034
34057SOL    HW1 7109   8.187   1.884   1.102 -0.5966 -0.3968 -2.0672
34057SOL    HW2 7110   8.323   1.884   1.169 -2.0620 -0.1682  1.0894
34058SOL     OW 7111   4.588   7.303   6.349 -0.9901  0.1724 -0.2029
34058SOL    HW1 7112   4.629   7.269   6.429 -0.6057 -1.4915 -1.0568
34058SOL    HW2 7113   4.496   7.310   6.371 -0.5897  2.0810  1.1246
34059SOL     OW 7114  11.304   5.487   2.549  0.0324 -0.3948 -0.5818
34059SOL    HW1 7115  11.291   5.395   2.572 -1.2371 -0.7714 -2.5228
34059SOL    HW2 7116  11.228   5.509   2.495  1.2865  1.2154 -1.8039
34060SOL     OW 7117   5.095   8.936   3.609  0.4004  0.2361  0.5225
34060SOL    HW1 7118   5.092   8.841   3.611 -1.5560  0.2677  0.9912
34060SOL    HW2 7119   5.141   8.960   3.690  1.4796 -0.2935  0.0828
34061SOL     OW 7120   7.051   2.911   7.685  0.2320  0.4098  0.4270
34061SOL    HW1 7121   7.037   2.962   7.604  2.1639  1.7607  0.8539
34061SOL    HW2 7122   6.965   2.876   7.706 -0.4175  0.3117 -2.0147
34062SOL     OW 7123   5.530   9.843  11.069  1.1419  0.0296 -0.2487
34062SOL    HW1 7124   5.477   9.828  10.991  1.5978  0.7378 -0.6974
34062SOL    HW2 7125   5.482   9.911  11.118  0.3162 -1.1311  0.6179
34063SOL     OW 7126   6.117   0.044  10.866 -0.2291 -0.2113  0.2781
34063SOL    HW1 7127   6.086  -0.046  10.858 -1.6984  0.2257  0.7822
34063SOL    HW2 7128   6.095   0.084  10.782  0.5410 -0.3272  0.0049
34064SOL     OW 7129   7.642   7.867   6.092  0.2876  0.0077 -0.6243
34064SOL    HW1 7130   7.565   7.853   6.037 -2.7156  1.0778  2.9154
34064SOL    HW2 7131   7.670   7.956   6.072 -0.8053  0.4054 -0.4726
34065SOL     OW 7132   4.253   5.545   0.293 -0.7294 -0.1935  0.4314
34065SOL    HW1 7133   4.316   5.489   0.247 -1.5704 -1.6184  0.9373
34065SOL    HW2 7134   4.173   5.539   0.241 -0.6474  1.1260  0.1202
34066SOL     OW 7135  10.035   5.484   6.039  0.0520  0.0560  0.7344
34066SOL    HW1 7136  10.052   5.571   6.002 -0.0458  0.3945  1.4615
34066SOL    HW2 7137   9.945   5.489   6.072 -0.8908 -1.1519 -1.4872
34067SOL     OW 7138   9.033   9.330   2.147  0.1980 -0.2167  0.5256
34067SOL    HW1 7139   8.970   9.342   2.218  0.2268  0.0579  0.5026
34067SOL    HW2 7140   9.103   9.393   2.166  0.1342 -0.0381  0.1666
34068SOL     OW 7141   1.864   2.446   2.026  0.1612 -0.1479 -0.4862
34068SOL    HW1 7142   1.843   2.463   1.935  2.0857  0.8048 -0.7920
34068SOL    HW2 7143   1.910   2.362   2.025  0.4811  0.0286 -0.4208
34069SOL     OW 7144  10.969   6.231   0.610  0.6579 -0.5792 -0.5122
34069SOL    HW1 7145  10.952   6.312   0.562  1.0207 -1.3520 -2.0076
34069SOL    HW2 7146  11.060   6.210   0.589 -0.1272 -2.6627 -2.2485
34070SOL     OW 7147   8.143   6.516   2.554  0.6887  0.1545  0.2779
34070SOL    HW1 7148   8.092   6.467   2.489  1.0465  1.6871 -1.2177
34070SOL    HW2 7149   8.233   6.508   2.525  0.7788  1.4934  0.1314
34071SOL     OW 7150  11.103   0.769  11.404 -0.1663 -0.4303 -0.1843
34071SOL    HW1 7151  11.141   0.684  11.426  0.8153 -0.0396 -0.3319
34071SOL    HW2 7152  11.053   0.754  11.324  0.9225 -0.6354 -0.8360
34072SOL     OW 7153   3.373   4.081   8.974  0.2668 -0.9311  0.2819
34072SOL    HW1 7154   3.452   4.027   8.981  0.3342 -1.1176 -1.4053
34072SOL    HW2 7155   3.397   4.149   8.911 -0.9035 -0.9696 -0.2239
34073SOL     OW 7156   7.540   5.836   9.774 -0.6513 -0.2553  0.4111
34073SOL    HW1 7157   7.459   5.786   9.772 -0.7357 -0.1646  1.1330
34073SOL    HW2 7158   7.540   5.879   9.860 -0.2853  0.4910  0.0527
34074SOL     OW 7159   3.504   6.729   8.003  0.6531  0.1802 -0.4018
34074SOL    HW1 7160   3.446   6.800   8.032  2.2663  0.6927  1.7598
34074SOL    HW2 7161   3.569   6.772   7.948  0.2993 -0.0296 -0.9934
34075SOL     OW 7162  11.509   5.268   4.723  0.3596 -0.1176 -0.0772
34075SOL    HW1 7163  11.450   5.319   4.667 -0.9282 -0.4061  0.9551
34075SOL    HW2 7164  11.497   5.305   4.810  1.8943 -0.0636  0.1384
34076SOL     OW 7165   6.466   4.915   2.592  0.5404  0.1723 -0.0853
34076SOL    HW1 7166   6.489   4.922   2.499 -0.5523 -1.5385 -0.5219
34076SOL    HW2 7167   6.372   4.930   2.595  0.2993 -1.2550  0.5123
34077SOL     OW 7168   2.454   0.381   6.699  0.0163 -0.2381  0.7879
34077SOL    HW1 7169   2.533   0.327   6.694  0.0706 -0.0717 -0.5165
34077SOL    HW2 7170   2.486   0.467   6.728  0.2157 -0.3532  0.9101
34078SOL     OW 7171   0.449   4.892   9.516  0.1701  0.8438 -0.0954
34078SOL    HW1 7172   0.531   4.855   9.482 -0.5233  0.4500 -1.4126
34078SOL    HW2 7173   0.475   4.937   9.596  1.3663 -0.9299  0.5995
34079SOL     OW 7174   5.360   9.662  10.603 -0.0169 -0.3247  0.2489
34079SOL    HW1 7175   5.356   9.725  10.531  0.0610 -0.9411 -0.2984
34079SOL    HW2 7176   5.447   9.624  10.597  0.1824 -0.0176  0.9932
34080SOL     OW 7177   6.023   5.989   5.200  0.6813 -0.3579 -0.6404
34080SOL    HW1 7178   5.994   5.909   5.155  2.1257 -1.7576  0.7800
34080SOL    HW2 7179   6.033   5.962   5.291  1.0904  1.5124 -0.1053
34081SOL     OW 7180   6.224   9.883   4.947  0.1176  0.2889 -0.1960
34081SOL    HW1 7181   6.305   9.881   5.000  0.2947 -1.4896 -0.4749
34081SOL    HW2 7182   6.248   9.839   4.866 -1.1165 -0.1964 -0.3082
34082SOL     OW 7183   4.255   1.815   7.631  0.9218  0.3025 -0.5352
34082SOL    HW1 7184   4.282   1.878   7.565 -0.1140  0.8097 -0.4925
34082SOL    HW2 7185   4.219   1.742   7.582  0.5198  0.5087 -0.5574
34083SOL     OW 7186   0.250   1.083   3.230  0.9188  1.0196 -0.0360
34083SOL    HW1 7187   0.199   1.006   3.257 -2.4949  2.9695 -0.2596
34083SOL    HW2 7188   0.240   1.086   3.135 -0.8092  2.7376  0.1251
34084SOL     OW 7189   1.328   4.874   6.512  0.0910 -0.0164  0.0479
34084SOL    HW1 7190   1.325   4.885   6.417 -0.8749  0.5542  0.1325
34084SOL    HW2 7191   1.252   4.922   6.544 -0.1074 -0.9523  1.0399
34085SOL     OW 7192  11.485   0.041   1.051  0.3948  0.4982 -0.5824
34085SOL    HW1 7193  11.445   0.048   1.138  1.2854  1.1645 -0.2110
34085SOL    HW2 7194  11.543  -0.035   1.057 -1.2568 -0.8941 -1.3307
34086SOL     OW 7195  11.566   6.028   9.512 -0.0988  0.1370 -0.5169
34086SOL    HW1 7196  11.635   5.962   9.508  0.1711  0.4410 -0.9037
34086SOL    HW2 7197  11.532   6.032   9.423 -0.7482 -0.1447 -0.2865
34087SOL     OW 7198   2.336   4.919   1.901 -0.2908 -0.2361 -0.5742
34087SOL    HW1 7199   2.322   4.962   1.986  1.6103 -0.2162 -0.2076
34087SOL    HW2 7200   2.252   4.881   1.879 -0.7473 -0.5773  1.5345
34088SOL     OW 7201   8.488   6.367   8.274  0.0157 -0.1802  0.0607
34088SOL    HW1 7202   8.425   6.381   8.204 -1.3630 -2.0584  0.8296
34088SOL    HW2 7203   8.480   6.273   8.294  2.4388 -0.2934  0.7922
34089SOL     OW 7204   5.151   3.009   8.292 -0.0693  0.2060  0.0740
34089SOL    HW1 7205   5.184   3.034   8.378  1.1366  0.7109 -0.5041
34089SOL    HW2 7206   5.056   3.008   8.302  0.0532  0.2458  1.4072
34090SOL     OW 7207   9.616   4.422   8.844 -0.1130 -0.0203  0.0376
34090SOL    HW1 7208   9.675   4.497   8.833  0.6384 -0.4376  1.0388
34090SOL    HW2 7209   9.628   4.370   8.764 -0.8937  1.0678 -0.8235
34091SOL     OW 7210   0.622   6.468   6.499  0.0370 -0.1643 -0.1278
34091SOL    HW1 7211   0.573   6.460   6.417  0.2295 -0.8135 -0.1820
34091SOL    HW2 7212   0.554   6.471   6.567 -0.1231  0.4126 -0.3128
34092SOL     OW 7213   9.151   6.956   3.630  0.2297 -0.0548 -0.1039
34092SOL    HW1 7214   9.115   7.012   3.699  1.6432  0.8657 -0.0639
34092SOL    HW2 7215   9.094   6.879   3.628 -1.6624  1.2842 -0.0180
34093SOL     OW 7216   0.136   4.128  10.381 -0.1013 -0.1521 -0.5692
34093SOL    HW1 7217   0.080   4.169  10.315 -3.3314 -0.5277  1.7147
34093SOL    HW2 7218   0.150   4.196  10.446  0.4341 -0.6674 -0.1353
34094SOL     OW 7219   8.848   7.307   5.571  0.8797  0.2289 -0.4108
34094SOL    HW1 7220   8.872   7.399   5.579  0.9799  0.2653 -1.1398
34094SOL    HW2 7221   8.755   7.305   5.596  0.6318  0.6716 -1.2416
34095SOL     OW 7222   8.455   9.007  10.617  0.5325  0.1536  0.0524
34095SOL    HW1 7223   8.531   8.981  10.669  1.3979 -0.7701 -1.6031
34095SOL    HW2 7224   8.380   8.969  10.663  1.3898 -1.7960 -0.0799
34096SOL     OW 7225   3.497   6.768   1.316 -0.4150  0.2954 -0.3409
34096SOL    HW1 7226   3.585   6.746   1.287 -0.3532  0.4590 -0.2766
34096SOL    HW2 7227   3.496   6.863   1.323 -0.3956  0.2580  0.2862
34097SOL     OW 7228   2.196   6.876   0.341  0.5665 -0.2501  0.2853
34097SOL    HW1 7229   2.262   6.924   0.392  0.2263 -0.7717  1.2440
34097SOL    HW2 7230   2.200   6.786   0.376 -0.0331 -0.4925 -0.2582
34098SOL     OW 7231   2.167   9.290   1.467 -0.2134  0.5177  0.3082
34098SOL    HW1 7232   2.169   9.341   1.548  0.0557  0.5147  0.3049
34098SOL    HW2 7233   2.210   9.347   1.403  0.1546  0.2592  0.3206
34099SOL     OW 7234   6.202   0.704   1.673  0.1333  0.0763  0.3668
34099SOL    HW1 7235   6.172   0.766   1.606  1.3802  0.3168 -0.0016
34099SOL    HW2 7236   6.122   0.666   1.708 -0.6836  1.8367  0.5386
34100SOL     OW 7237   2.390   9.518   4.336 -0.1000  0.7650  0.2629
34100SOL    HW1 7238   2.430   9.464   4.267  0.2314  0.5097  0.6526
34100SOL    HW2 7239   2.307   9.547   4.298  0.4142  1.2331 -0.5228
34101SOL     OW 7240   0.635  10.752   7.131  0.2291 -0.1138  0.0909
34101SOL    HW1 7241   0.646  10.834   7.084  1.9497 -0.5945 -0.4314
34101SOL    HW2 7242   0.563  10.768   7.192 -0.1353  1.4395 -0.7134
34102SOL     OW 7243   0.856   2.467   0.672 -0.1337  0.3172 -0.0790
34102SOL    HW1 7244   0.783   2.442   0.730 -0.6390 -0.2888 -0.9420
34102SOL    HW2 7245   0.827   2.439   0.585  0.9435  0.4996 -0.5050
34103SOL     OW 7246   8.538   0.120   2.980 -0.2691  0.4240  0.4878
34103SOL    HW1 7247   8.486   0.191   2.944  1.2144  1.8616  1.0936
34103SOL    HW2 7248   8.540   0.055   2.910  0.3690  2.0162 -1.0343
34104SOL     OW 7249  10.183  10.099   5.856 -0.1167  0.2316 -0.0456
34104SOL    HW1 7250  10.150  10.105   5.945  1.8420  0.3201  0.7170
34104SOL    HW2 7251  10.151  10.015   5.823  1.5501 -1.2221  1.8137
34105SOL     OW 7252   1.572   8.322   9.112 -0.2038  0.0733 -0.1940
34105SOL    HW1 7253   1.631   8.282   9.048 -0.5276 -1.3876  0.3818
34105SOL    HW2 7254   1.488   8.277   9.100 -0.6942  0.8557  0.2206
34106SOL     OW 7255   3.442   1.748   4.607  0.3813 -0.1693  0.4159
34106SOL    HW1 7256   3.517   1.806   4.618  0.3969 -0.3608  1.3368
34106SOL    HW2 7257   3.395   1.752   4.690 -1.4901  1.1230 -0.6384
34107SOL     OW 7258   2.263  10.563   0.457  0.0132 -0.8085 -0.5675
34107SOL    HW1 7259   2.337  10.598   0.507 -0.8931  1.0708 -0.4467
34107SOL    HW2 7260   2.266  10.469   0.473 -0.0084 -0.3812  2.8463
34108SOL     OW 7261   1.873   5.094   2.826 -0.3712 -0.2697 -0.0822
34108SOL    HW1 7262   1.841   5.005   2.841  2.6431 -1.8525 -1.9451
34108SOL    HW2 7263   1.858   5.109   2.733 -0.4812  1.0402  0.1291
34109SOL     OW 7264   3.621   1.005   2.885 -0.7863  0.4879 -0.0495
34109SOL    HW1 7265   3.702   0.964   2.915  0.5571  2.6326 -0.5601
34109SOL    HW2 7266   3.586   0.943   2.821  1.4633  0.3354 -1.2358
34110SOL     OW 7267  10.379   6.377   3.054 -0.1129 -0.2796 -0.0727
34110SOL    HW1 7268  10.356   6.361   3.146  0.9045 -2.2494 -0.1246
34110SOL    HW2 7269  10.414   6.466   3.054  1.9420 -0.9775  1.9151
34111SOL     OW 7270   3.701   6.397   0.656  0.1711  0.0268  0.7770
34111SOL    HW1 7271   3.744   6.476   0.689  0.0500  0.5015 -0.1615
34111SOL    HW2 7272   3.717   6.400   0.561  1.5521 -1.9158  0.8961
34112SOL     OW 7273   0.791   2.147  10.615 -0.2248 -0.5372  0.0446
34112SOL    HW1 7274   0.846   2.225  10.613 -1.0013  0.0481  0.6487
34112SOL    HW2 7275   0.787   2.123  10.708 -2.7818  0.7808  0.3649
34113SOL     OW 7276   4.017  11.554   1.697  0.2209 -0.0411  0.0856
34113SOL    HW1 7277   4.041  11.463   1.677  0.3677 -0.5453  2.3396
34113SOL    HW2 7278   4.101  11.601   1.700  0.1034  0.3508 -1.6915
34114SOL     OW 7279  11.357   7.088   7.280 -0.6153 -0.1738 -0.6275
34114SOL    HW1 7280  11.291   7.108   7.347  0.8571  0.5768  0.6502
34114SOL    HW2 7281  11.313   7.106   7.197 -2.7039 -1.7357  0.0449
34115SOL     OW 7282  11.337   5.509   0.108  0.6728 -0.0477 -0.0476
34115SOL    HW1 7283  11.381   5.433   0.147 -0.7800 -0.9466 -0.1064
34115SOL    HW2 7284  11.338   5.490   0.014  0.8673  0.3158 -0.1178
34116SOL     OW 7285   0.907  10.837   1.077 -0.4130  0.3983 -0.3385
34116SOL    HW1 7286   0.896  10.931   1.066 -2.0440  0.2237 -0.5417
34116SOL    HW2 7287   0.996  10.826   1.110 -0.0379  1.9631 -0.7778
34117SOL     OW 7288   3.819   0.310   1.965 -0.4567 -0.1432 -0.0808
34117SOL    HW1 7289   3.899   0.281   2.010 -0.2539  0.6847  0.1181
34117SOL    HW2 7290   3.783   0.377   2.022 -0.3619  0.7084 -0.9940
34118SOL     OW 7291   8.980   0.657   0.731  0.4129 -0.5895 -0.5933
34118SOL    HW1 7292   8.974   0.701   0.816  2.5429 -0.7154 -0.3160
34118SOL    HW2 7293   9.008   0.726   0.670  1.9614 -1.1038 -0.5200
34119SOL     OW 7294   7.239  11.434   7.742 -0.4064  0.1246 -0.0099
34119SOL    HW1 7295   7.290  11.356   7.719  1.5699  1.3189  0.1508
34119SOL    HW2 7296   7.153  11.399   7.768  0.7672 -2.1160  1.1557
34120SOL     OW 7297   3.862   2.218   2.357  0.6532 -0.5816 -0.0772
34120SOL    HW1 7298   3.897   2.261   2.280  0.3977 -1.1100 -0.4976
34120SOL    HW2 7299   3.768   2.235   2.354  0.4188 -1.8715 -0.7243
34121SOL     OW 7300   4.476   5.756   5.052 -0.3081  0.1352  0.6490
34121SOL    HW1 7301   4.497   5.839   5.009  0.0531 -0.5129 -0.4839
34121SOL    HW2 7302   4.407   5.718   4.997 -1.8068  0.5072  2.1962
34122SOL     OW 7303   3.557  10.880  11.451 -0.4585  0.0760 -0.0033
34122SOL    HW1 7304   3.601  10.870  11.366  0.4028  1.2053  0.2939
34122SOL    HW2 7305   3.609  10.827  11.511  0.7862  1.7123  0.4272
34123SOL     OW 7306   8.029   9.040   9.131  0.4021 -0.2878  0.0440
34123SOL    HW1 7307   8.119   9.051   9.162  0.0997  0.2987  0.7421
34123SOL    HW2 7308   7.978   9.023   9.211 -0.2900  0.5827 -0.1992
34124SOL     OW 7309   0.156   4.565   8.655  0.1099  0.1438 -0.7528
34124SOL    HW1 7310   0.167   4.471   8.639  0.2459  0.2304 -1.1862
34124SOL    HW2 7311   0.155   4.573   8.750 -2.1233 -0.5584 -0.6515
34125SOL     OW 7312   9.125   4.215   3.496 -0.0764 -0.1170  0.5845
34125SOL    HW1 7313   9.062   4.266   3.547 -0.4891 -0.1629  0.1301
34125SOL    HW2 7314   9.208   4.228   3.540 -0.1589  1.0376  0.4241
34126SOL     OW 7315   5.088  10.523   5.377 -0.4333  0.1421 -0.1472
34126SOL    HW1 7316   5.137  10.522   5.459 -0.7860 -2.1605  0.1157
34126SOL    HW2 7317   5.152  10.553   5.312  0.7066 -0.6617  0.5442
34127SOL     OW 7318   2.970   1.772   3.044  0.2096  0.2685  0.0910
34127SOL    HW1 7319   2.912   1.783   3.119  1.0510  1.4117  0.6121
34127SOL    HW2 7320   2.949   1.686   3.009 -1.1075  0.2593  0.8483
34128SOL     OW 7321   5.543  11.450   8.167  0.1774 -0.6045  0.0886
34128SOL    HW1 7322   5.632  11.454   8.132 -0.2838 -0.8674 -1.1644
34128SOL    HW2 7323   5.520  11.357   8.162 -0.4848 -0.4227 -0.4618
34129SOL     OW 7324   2.222   6.531   1.856 -0.4695  0.4612  0.0309
34129SOL    HW1 7325   2.299   6.517   1.800  0.9966  0.6296  1.9056
34129SOL    HW2 7326   2.226   6.459   1.920 -2.0304  0.3361  0.0220
34130SOL     OW 7327   7.136  10.926  10.068  0.5501 -0.7667  0.2367
34130SOL    HW1 7328   7.058  10.876  10.048 -0.7508  1.2992 -0.1779
34130SOL    HW2 7329   7.168  10.955   9.982  0.5722  0.0864  0.5220
34131SOL     OW 7330   8.301   0.193  10.342  0.4303  0.1481 -0.0806
34131SOL    HW1 7331   8.236   0.225  10.280  1.5438 -0.8255 -1.8353
34131SOL    HW2 7332   8.378   0.248  10.327  0.7631 -0.1949  0.3471
34132SOL     OW 7333  11.347   9.774   8.552 -0.9694  0.4411 -0.2512
34132SOL    HW1 7334  11.413   9.720   8.594  0.2591  2.1077  0.0795
34132SOL    HW2 7335  11.292   9.713   8.504  1.5206 -0.9273 -1.5368
34133SOL     OW 7336   6.689   8.068   5.824  0.3868 -0.3399 -0.4380
34133SOL    HW1 7337   6.714   8.128   5.753 -0.3177  0.6294  0.1108
34133SOL    HW2 7338   6.752   8.085   5.894 -0.2381  0.2799 -0.0155
34134SOL     OW 7339   7.391   2.630  10.785  0.5275  0.1862 -0.1103
34134SOL    HW1 7340   7.340   2.691  10.733 -0.7045 -1.5992 -1.1190
34134SOL    HW2 7341   7.477   2.670  10.793 -0.2630  2.0660 -0.6340
34135SOL     OW 7342   7.525   2.839   5.829 -0.3964 -0.2548 -0.2966
34135SOL    HW1 7343   7.559   2.795   5.906  0.1224 -0.9025 -0.8795
34135SOL    HW2 7344   7.431   2.848   5.845 -0.5300 -1.6287 -0.1805
34136SOL     OW 7345   7.147   8.624   3.572 -0.0929  0.1023 -0.1091
34136SOL    HW1 7346   7.226   8.582   3.604 -1.2881 -1.3352  1.0577
34136SOL    HW2 7347   7.127   8.579   3.490 -0.0153  0.0640 -0.1067
34137SOL     OW 7348   3.789   3.416   8.568 -0.1482  0.1886 -0.0162
34137SOL    HW1 7349   3.747   3.331   8.581  0.8837 -0.3157  0.0612
34137SOL    HW2 7350   3.745   3.452   8.491 -1.3780  0.1019  0.6144
34138SOL     OW 7351   7.924   5.468   8.810  0.0825  0.8132  0.0552
34138SOL    HW1 7352   7.931   5.498   8.900  1.8845  1.0444 -0.1362
34138SOL    HW2 7353   7.899   5.376   8.817  0.7534  0.6864  0.8006
34139SOL     OW 7354   7.012   4.218   3.884  0.1173  0.0469 -0.2714
34139SOL    HW1 7355   7.100   4.188   3.864  0.2845  0.6755 -0.5205
34139SOL    HW2 7356   7.017   4.246   3.976 -0.1511 -1.0670  0.0903
34140SOL     OW 7357   8.100   5.967   1.208  0.1675  0.8040 -0.1466
34140SOL    HW1 7358   8.068   6.021   1.280 -1.4411 -0.0833 -0.1605
34140SOL    HW2 7359   8.133   6.030   1.144 -1.7487  1.8123 -0.2192
34141SOL     OW 7360   6.295   1.801   4.662 -0.0284  0.2076 -0.6307
34141SOL    HW1 7361   6.303   1.870   4.728  2.0761 -0.4904 -0.0687
34141SOL    HW2 7362   6.287   1.721   4.713 -0.2457 -0.1788 -1.2677
34142SOL     OW 7363   7.665   7.993   8.791  0.1517 -0.3125 -0.5379
34142SOL    HW1 7364   7.605   8.018   8.861  1.1962  2.2230 -0.4310
34142SOL    HW2 7365   7.607   7.968   8.718 -0.9446 -2.3262  0.9118
34143SOL     OW 7366  10.208   1.556  11.460  0.1881  0.0565 -0.1864
34143SOL    HW1 7367  10.302   1.573  11.469  0.0040  0.4189  1.4366
34143SOL    HW2 7368  10.199   1.462  11.475  0.2130  0.1500  0.4186
34144SOL     OW 7369   9.375   4.964   5.462 -0.3490 -0.2771  0.9420
34144SOL    HW1 7370   9.415   4.934   5.544 -1.3050  0.9558  1.9142
34144SOL    HW2 7371   9.283   4.938   5.470 -0.2330 -1.1197 -0.2627
34145SOL     OW 7372   6.984   9.446   6.645 -0.6157 -0.1478 -0.1099
34145SOL    HW1 7373   6.923   9.373   6.657  0.9874 -1.3631  0.9410
34145SOL    HW2 7374   7.071   9.407   6.648  0.2722  1.5221 -1.7829
34146SOL     OW 7375   6.647   1.582   0.028  0.1847 -0.3417  0.3170
34146SOL    HW1 7376   6.621   1.497   0.066 -1.0886 -0.0812  0.0596
34146SOL    HW2 7377   6.580   1.643   0.058  0.7025  0.4415 -0.0960
34147SOL     OW 7378   6.438   7.000   7.442 -0.0231 -0.2932  0.2688
34147SOL    HW1 7379   6.361   7.040   7.402  0.7028 -1.1872 -2.2300
34147SOL    HW2 7380   6.420   6.906   7.439  1.4154 -0.5552 -1.0104
34148SOL     OW 7381   5.642   7.207   1.808 -0.3778 -0.3652  0.4638
34148SOL    HW1 7382   5.713   7.147   1.830  0.8049  0.9674  0.4181
34148SOL    HW2 7383   5.567   7.150   1.791  0.8791 -1.8669 -0.3191
34149SOL     OW 7384   3.828   5.721  10.018 -1.0650  0.0076  0.3167
34149SOL    HW1 7385   3.899   5.665  10.049 -0.6264  0.2610 -0.2117
34149SOL    HW2 7386   3.754   5.661  10.007 -1.3460 -0.0272  2.1402
34150SOL     OW 7387   0.185   1.028   1.463  0.3739 -0.1198  0.1307
34150SOL    HW1 7388   0.229   1.111   1.445  1.0940 -0.2380  1.2413
34150SOL    HW2 7389   0.092   1.050   1.467  0.5169  0.5355 -0.0926
34151SOL     OW 7390   5.206   3.104   0.398 -0.4538  0.5108 -0.3142
34151SOL    HW1 7391   5.283   3.149   0.364  1.2197 -0.1442  2.3277
34151SOL    HW2 7392   5.234   3.013   0.409 -1.0029  0.5744  2.1969
34152SOL     OW 7393   6.474   6.433   6.306  0.4296  0.2109 -0.6126
34152SOL    HW1 7394   6.499   6.474   6.389 -0.1474  0.8943 -0.7602
34152SOL    HW2 7395   6.470   6.505   6.244  0.9113 -0.3052 -1.2612
34153SOL     OW 7396   5.303   6.497   4.781  0.6812 -0.0988 -0.1883
34153SOL    HW1 7397   5.221   6.469   4.741  0.8004  2.1092 -2.2091
34153SOL    HW2 7398   5.278   6.531   4.867 -0.5901  0.7289 -0.8551
34154SOL     OW 7399  11.040   3.807   0.622 -0.6478 -0.8855 -0.4100
34154SOL    HW1 7400  11.011   3.896   0.603 -0.7881 -0.9426 -0.4633
34154SOL    HW2 7401  10.964   3.764   0.660  0.0864 -0.2851  1.9397
34155SOL     OW 7402   7.795   6.202   7.319 -0.6215  0.1895  0.7296
34155SOL    HW1 7403   7.826   6.267   7.256 -2.6217  0.2809 -0.2388
34155SOL    HW2 7404   7.833   6.119   7.289 -1.1517  0.3151 -0.3284
34156SOL     OW 7405   5.188   8.619   6.710 -0.1280  0.9247 -0.3421
34156SOL    HW1 7406   5.126   8.583   6.772  0.2610  2.1922  0.8187
34156SOL    HW2 7407   5.245   8.545   6.687 -0.3570  0.4171  0.6957
34157SOL     OW 7408   8.165   8.033  10.163 -0.0965  0.3124  0.4245
34157SOL    HW1 7409   8.221   8.106  10.136 -0.8604  0.1917 -1.7140
34157SOL    HW2 7410   8.226   7.962  10.181  0.5210  0.5254 -0.7192
34158SOL     OW 7411  10.962   9.171   4.473  0.1811 -0.3028 -0.3240
34158SOL    HW1 7412  10.999   9.203   4.390 -0.0187 -0.5934 -0.5292
34158SOL    HW2 7413  10.911   9.094   4.448 -1.5241  0.7497 -0.2346
34159SOL     OW 7414   6.881   7.679   7.667  0.2224  0.0585  0.2760
34159SOL    HW1 7415   6.829   7.601   7.682  0.7023  0.0540  2.0504
34159SOL    HW2 7416   6.933   7.690   7.747  0.2505  2.1220  0.0214
34160SOL     OW 7417   2.446   6.277   4.626 -0.3217  0.2792  0.0146
34160SOL    HW1 7418   2.523   6.231   4.659 -1.2574 -0.3428  1.4546
34160SOL    HW2 7419   2.437   6.354   4.682  0.6757  1.7657 -1.7696
34161SOL     OW 7420   5.700   5.139   0.312  0.2233 -0.2108 -0.2894
34161SOL    HW1 7421   5.723   5.177   0.397  1.8822 -1.1987 -0.2619
34161SOL    HW2 7422   5.711   5.212   0.250 -0.1526  0.2838  0.2104
34162SOL     OW 7423   2.433   9.166   4.904 -0.0021 -0.2443  0.2538
34162SOL    HW1 7424   2.356   9.113   4.885 -0.6290  0.9574 -0.6760
34162SOL    HW2 7425   2.482   9.115   4.969 -0.5432 -1.9698 -0.6406
34163SOL     OW 7426  10.593   5.598   9.886 -0.1676 -0.3550  0.0998
34163SOL    HW1 7427  10.529   5.647   9.834 -0.3438 -0.1522  0.5013
34163SOL    HW2 7428  10.648   5.554   9.821 -0.1540  0.1879 -0.2695
34164SOL     OW 7429   1.032   5.421   7.159 -0.2812  0.1249  0.1059
34164SOL    HW1 7430   1.046   5.356   7.090 -3.0438  0.3533 -0.7786
34164SOL    HW2 7431   0.937   5.419   7.174 -0.0781  2.0543  1.9593
34165SOL     OW 7432   2.874   5.440   7.455 -0.6632 -0.1331  0.1106
34165SOL    HW1 7433   2.830   5.509   7.506 -0.8178 -0.2067  0.0771
34165SOL    HW2 7434   2.918   5.487   7.384 -1.0067 -0.0990 -0.0780
34166SOL     OW 7435   5.931   2.774   9.378 -0.1083  0.3490  0.5588
34166SOL    HW1 7436   5.924   2.791   9.284 -0.2802 -0.7863  0.3484
34166SOL    HW2 7437   6.021   2.744   9.390 -0.3751 -0.5076  0.5581
34167SOL     OW 7438   0.395   3.794   7.825  0.0488  0.4770 -0.0403
34167SOL    HW1 7439   0.374   3.884   7.847 -0.6163  0.2211  0.4015
34167SOL    HW2 7440   0.328   3.742   7.869 -0.9302 -0.1067 -2.0794
34168SOL     OW 7441   7.516   7.764   4.612 -0.4432  0.3291 -0.7822
34168SOL    HW1 7442   7.561   7.824   4.671 -0.4739  0.9384 -1.3700
34168SOL    HW2 7443   7.467   7.821   4.553 -0.2206 -0.2683 -1.5555
34169SOL     OW 7444   5.461   1.113  10.721 -0.6345 -0.2653 -0.2594
34169SOL    HW1 7445   5.532   1.143  10.664 -0.0236 -0.3815  0.4386
34169SOL    HW2 7446   5.431   1.031  10.681 -1.0984  0.3218 -1.1507
34170SOL     OW 7447   7.067  10.348   0.642 -0.4659  0.3334  0.3065
34170SOL    HW1 7448   7.129  10.394   0.585  0.3272  0.0650  0.9443
34170SOL    HW2 7449   7.057  10.406   0.718  0.3782 -0.4335  1.0177
34171SOL     OW 7450   8.251   5.072  10.307  0.3089 -0.5657  0.3382
34171SOL    HW1 7451   8.185   5.002  10.308  0.3015 -0.5674 -0.0401
34171SOL    HW2 7452   8.307   5.054  10.382 -1.0597  0.3414  1.6501
34172SOL     OW 7453   6.682  11.341   3.923 -0.3268 -0.0576  0.4606
34172SOL    HW1 7454   6.659  11.248   3.919  1.5953 -0.6128  1.1192
34172SOL    HW2 7455   6.604  11.387   3.890 -0.7880 -1.9539 -1.3029
34173SOL     OW 7456   8.469   3.140   3.245  0.2750 -0.0410 -0.4265
34173SOL    HW1 7457   8.479   3.070   3.180  1.7215  0.7827 -1.1596
34173SOL    HW2 7458   8.387   3.184   3.221 -1.7094 -2.5755  1.2186
34174SOL     OW 7459   8.613   3.285  11.547  0.3117  0.4053 -0.1113
34174SOL    HW1 7460   8.704   3.279  11.517  0.0727 -0.6602 -0.6664
34174SOL    HW2 7461   8.575   3.353  11.493  0.4154 -0.1177 -0.8512
34175SOL     OW 7462   6.737   6.638   9.297 -0.2748  0.1383 -0.0668
34175SOL    HW1 7463   6.653   6.680   9.312  0.3211  0.9409  1.0897
34175SOL    HW2 7464   6.791   6.706   9.257  0.7043  0.5441  1.8416
34176SOL     OW 7465  10.200   3.967   5.905 -0.2239 -0.7734  0.3927
34176SOL    HW1 7466  10.170   4.051   5.940  0.0128 -0.2926 -0.5130
34176SOL    HW2 7467  10.159   3.960   5.819  0.5479 -1.1033  0.0328
34177SOL     OW 7468   0.391   9.093  11.627  0.1416 -0.0106  0.1935
34177SOL    HW1 7469   0.324   9.090  11.558  0.2664 -1.6972  0.1062
34177SOL    HW2 7470   0.465   9.046  11.590  1.6161  2.2145  0.1177
34178SOL     OW 7471   9.022   7.785  11.565 -0.2968 -0.1516 -0.3679
34178SOL    HW1 7472   9.074   7.771  11.486  0.3952 -0.0207  0.0552
34178SOL    HW2 7473   9.085   7.776  11.637 -0.3574  2.2487  0.0760
34179SOL     OW 7474   2.300   2.288   4.844  0.1792 -0.7652 -0.2126
34179SOL    HW1 7475   2.206   2.292   4.825 -0.2566  0.3933  1.8783
34179SOL    HW2 7476   2.305   2.270   4.938  2.0312 -0.1322 -0.1411
34180SOL     OW 7477   3.285   5.245   2.801 -0.9590 -0.2615  0.0163
34180SOL    HW1 7478   3.317   5.328   2.835 -1.6950 -0.3562  1.0033
34180SOL    HW2 7479   3.263   5.263   2.709  0.8625  0.0591 -0.3985
34181SOL     OW 7480   2.623   6.381   3.252  0.5047  0.0325 -0.5450
34181SOL    HW1 7481   2.540   6.414   3.218 -1.0104  0.3474  3.0924
34181SOL    HW2 7482   2.599   6.303   3.301  2.3208  0.2581  0.7828
34182SOL     OW 7483   5.786   2.407   7.683  0.2543  0.1137 -0.0871
34182SOL    HW1 7484   5.774   2.462   7.605  2.4493 -0.8418 -1.1875
34182SOL    HW2 7485   5.861   2.447   7.728  1.1176 -1.2368 -0.2716
34183SOL     OW 7486   7.655  10.193   1.780  0.2780 -0.3490  0.0450
34183SOL    HW1 7487   7.562  10.168   1.780 -0.0400  0.7519 -0.0903
34183SOL    HW2 7488   7.675  10.211   1.872  0.2401 -0.2081  0.0267
34184SOL     OW 7489   9.451   0.572   1.351  0.6611  0.2856 -0.1239
34184SOL    HW1 7490   9.522   0.565   1.288  1.1661 -1.7342  0.6077
34184SOL    HW2 7491   9.444   0.666   1.368  2.4927  0.6151 -0.9334
34185SOL     OW 7492   8.685   0.286   9.604 -0.5821 -0.6820  0.2166
34185SOL    HW1 7493   8.732   0.328   9.676 -0.5644  0.1879 -0.2992
34185SOL    HW2 7494   8.731   0.202   9.592  0.4484 -0.1176  0.1338
34186SOL     OW 7495   7.034   0.856   9.037 -0.2272 -0.2210 -0.2122
34186SOL    HW1 7496   6.977   0.910   9.092 -2.0143 -1.6077 -0.6127
34186SOL    HW2 7497   7.037   0.901   8.953  0.0956  0.3698  0.1097
34187SOL     OW 7498   5.628   6.230   0.526 -0.1641 -0.4595 -0.7411
34187SOL    HW1 7499   5.655   6.241   0.617 -0.7959  0.5690 -0.6630
34187SOL    HW2 7500   5.680   6.293   0.477  1.0398 -1.8290 -1.2904
34188SOL     OW 7501  10.265   8.362   6.700 -0.6159  0.5476 -0.3616
34188SOL    HW1 7502  10.193   8.318   6.746 -0.5448 -0.0344 -0.7969
34188SOL    HW2 7503  10.243   8.353   6.607 -0.0921  0.5701 -0.4890
34189SOL     OW 7504   4.714   1.476   0.117 -0.6177  0.3870  0.2588
34189SOL    HW1 7505   4.719   1.452   0.210 -2.1105 -1.6363 -0.1152
34189SOL    HW2 7506   4.767   1.410   0.072 -1.2469  0.3466 -0.4542
34190SOL     OW 7507   1.596   2.313   1.339 -0.0381  0.5830 -0.6254
34190SOL    HW1 7508   1.535   2.386   1.348  0.5790  1.2003 -1.3224
34190SOL    HW2 7509   1.678   2.345   1.376 -0.2156 -0.3672  0.6240
34191SOL     OW 7510   0.281   0.469   1.275 -0.3873 -0.3973 -0.1125
34191SOL    HW1 7511   0.220   0.446   1.345  0.1621 -2.4986 -0.2650
34191SOL    HW2 7512   0.227   0.507   1.207 -0.9797  1.3805  1.2804
34192SOL     OW 7513  10.002   8.363   8.996 -0.0733 -0.0861 -0.6740
34192SOL    HW1 7514  10.021   8.306   9.070 -1.0479  2.0163  1.3278
34192SOL    HW2 7515  10.063   8.335   8.927  0.8815 -2.1139  0.9041
34193SOL     OW 7516   8.245   4.529   5.639  0.5050  0.4703 -0.0613
34193SOL    HW1 7517   8.267   4.532   5.732  1.7239  0.4275 -0.3280
34193SOL    HW2 7518   8.322   4.490   5.597  0.6272  1.9281 -1.2737
34194SOL     OW 7519   7.940  10.124   9.624 -0.4935 -0.1922  0.4319
34194SOL    HW1 7520   7.900  10.056   9.570 -1.9716  1.0631 -0.1404
34194SOL    HW2 7521   8.009  10.161   9.569 -0.8976 -0.0257  0.0309
34195SOL     OW 7522   6.997   9.400   8.178  0.5557  0.9595 -0.2576
34195SOL    HW1 7523   6.923   9.444   8.136  0.4552  0.6318 -0.4249
34195SOL    HW2 7524   6.984   9.414   8.271 -0.3173 -0.0392 -0.2186
34196SOL     OW 7525   4.515   5.125   4.788  0.1357 -0.0685 -0.1809
34196SOL    HW1 7526   4.506   5.158   4.877 -0.8065 -1.3950  0.2288
34196SOL    HW2 7527   4.597   5.075   4.789  0.4047  0.3654 -0.2133
34197SOL     OW 7528   5.517  11.467   0.448  0.7532  0.3859 -0.1954
34197SOL    HW1 7529   5.568  11.466   0.367  1.0700  1.4630 -0.0284
34197SOL    HW2 7530   5.560  11.402   0.503  0.5859 -0.2972 -0.8568
34198SOL     OW 7531   5.596   4.442   3.836 -0.4382 -0.6195  0.0690
34198SOL    HW1 7532   5.675   4.392   3.813  0.9035  0.4003  2.0867
34198SOL    HW2 7533   5.630   4.521   3.878 -2.5457  0.7879 -0.7375
34199SOL     OW 7534   8.902   9.619   7.779  0.2370  0.0843  0.2556
34199SOL    HW1 7535   8.909   9.651   7.689  0.6510  1.2797  0.6963
34199SOL    HW2 7536   8.946   9.685   7.832 -1.4961  0.2763  1.5489
34200SOL     OW 7537   7.366   6.626   3.679  0.6121  0.4238  0.6165
34200SOL    HW1 7538   7.408   6.639   3.595 -1.5623 -0.5633 -0.7148
34200SOL    HW2 7539   7.420   6.559   3.723  0.9203 -0.1979 -0.6577
34201SOL     OW 7540   0.518   3.851  10.910 -0.0017  0.2796 -0.0593
34201SOL    HW1 7541   0.516   3.931  10.857 -1.8716  0.3515  0.0216
34201SOL    HW2 7542   0.578   3.871  10.981 -0.7535  1.8033  0.1974
34202SOL     OW 7543   6.584   5.916  11.071 -0.6904  0.2527 -0.9924
34202SOL    HW1 7544   6.652   5.873  11.123 -1.6659  0.7946  0.8054
34202SOL    HW2 7545   6.580   5.865  10.990  0.7650 -0.7221 -0.4983
34203SOL     OW 7546  11.537   5.645   9.610  0.2657 -0.3039 -0.0281
34203SOL    HW1 7547  11.600   5.680   9.547  1.9824 -1.2846  1.0501
34203SOL    HW2 7548  11.511   5.561   9.573 -0.7370  0.2683 -0.6569
34204SOL     OW 7549   6.376   6.524  11.384  0.2618 -0.3259  0.2965
34204SOL    HW1 7550   6.313   6.597  11.380  0.7069  0.0310 -0.5746
34204SOL    HW2 7551   6.458   6.562  11.353  0.7469 -0.9623  0.7740
34205SOL     OW 7552   5.345   8.047   7.876 -0.1283 -0.1028 -0.3545
34205SOL    HW1 7553   5.262   8.090   7.893 -0.7075 -0.7861 -1.3682
34205SOL    HW2 7554   5.378   8.022   7.963 -1.5217 -0.8040 -0.0019
34206SOL     OW 7555   2.646   3.402   6.448  0.1578  0.2966 -0.9509
34206SOL    HW1 7556   2.687   3.319   6.471 -2.4415 -0.6323  0.6868
34206SOL    HW2 7557   2.627   3.395   6.354  0.4295 -0.7144 -0.9366
34207SOL     OW 7558   5.360   6.844   0.678 -0.1557  0.1708  0.5115
34207SOL    HW1 7559   5.299   6.772   0.697  1.0839 -0.7058  1.3254
34207SOL    HW2 7560   5.337   6.871   0.589 -1.9230  0.0960  0.9021
34208SOL     OW 7561   8.637  10.902   3.542 -0.0347 -0.0922  0.0633
34208SOL    HW1 7562   8.608  10.948   3.463 -0.8346 -2.8402 -1.3454
34208SOL    HW2 7563   8.692  10.966   3.588 -0.4689  1.9744 -2.1160
34209SOL     OW 7564   5.030   5.787  10.334  0.5154 -0.1318 -0.1849
34209SOL    HW1 7565   4.953   5.730  10.337  0.2708  0.2222  2.4327
34209SOL    HW2 7566   5.089   5.744  10.272 -1.1162 -1.2700 -1.0227
34210SOL     OW 7567   9.115  10.917   8.645 -0.4488  0.4585  0.4782
34210SOL    HW1 7568   9.062  10.899   8.567  0.3613 -0.6101  0.1366
34210SOL    HW2 7569   9.199  10.946   8.610  1.6590 -4.4532  0.5716
34211SOL     OW 7570  11.348  11.554  10.872  0.4727  0.3839  0.3178
34211SOL    HW1 7571  11.395  11.489  10.820  0.5164  1.3434 -0.8898
34211SOL    HW2 7572  11.265  11.566  10.827  0.4274  1.0828  0.5754
34212SOL     OW 7573   2.354   9.541   0.213 -0.4161  0.8694  0.1587
34212SOL    HW1 7574   2.286   9.539   0.145 -0.9296  1.3649  0.6475
34212SOL    HW2 7575   2.435   9.561   0.166 -1.0775  3.3194 -0.0869
34213SOL     OW 7576   8.793  11.265   3.360  0.5206  0.0238 -0.1543
34213SOL    HW1 7577   8.724  11.299   3.417 -0.9329 -3.2629  0.2061
34213SOL    HW2 7578   8.784  11.315   3.279 -0.4280  1.5271  0.8278
34214SOL     OW 7579   1.963  11.119   3.229 -0.0787  0.0204 -0.7490
34214SOL    HW1 7580   2.034  11.058   3.210 -0.0428 -0.8355  1.7786
34214SOL    HW2 7581   2.006  11.205   3.232  1.3710 -0.6604  2.5546
34215SOL     OW 7582   3.906   9.143   3.846 -0.1083  0.3915  0.1363
34215SOL    HW1 7583   3.916   9.213   3.781  0.4735 -0.2125 -0.4422
34215SOL    HW2 7584   3.811   9.134   3.855 -0.1937  1.2179  0.1838
34216SOL     OW 7585   0.534  10.405   5.196 -0.2130  0.9597 -0.2158
34216SOL    HW1 7586   0.593  10.415   5.122 -1.9039  0.8694 -1.6624
34216SOL    HW2 7587   0.493  10.320   5.183 -0.6475  1.0072  0.7490
34217SOL     OW 7588   6.742   5.973   1.316 -0.1220 -0.3616 -0.2932
34217SOL    HW1 7589   6.823   6.021   1.297 -0.1935 -0.5770 -1.1971
34217SOL    HW2 7590   6.769   5.898   1.368  0.0898  0.2632  0.5038
34218SOL     OW 7591   9.024   1.328   5.357  0.1829 -0.1222 -0.3055
34218SOL    HW1 7592   8.957   1.272   5.395 -0.0018 -0.4622 -1.1230
34218SOL    HW2 7593   9.101   1.314   5.412 -0.8872  1.6579  1.7983
34219SOL     OW 7594   1.672   2.825   5.055  0.1453  0.7857 -0.1288
34219SOL    HW1 7595   1.732   2.898   5.039  0.4808  1.0942  2.1631
34219SOL    HW2 7596   1.697   2.793   5.142 -1.4820 -0.6148 -0.1364
34220SOL     OW 7597   9.507   5.908   2.481 -0.0096 -0.2660 -0.3030
34220SOL    HW1 7598   9.545   5.995   2.480  0.8321 -0.6241 -1.6140
34220SOL    HW2 7599   9.520   5.877   2.571  1.8785  0.0394 -0.4395
34221SOL     OW 7600   7.336   6.730  11.091 -0.1112  0.2928  0.2979
34221SOL    HW1 7601   7.429   6.736  11.066 -0.3734 -2.2357 -1.6473
34221SOL    HW2 7602   7.319   6.636  11.097 -2.3547  0.7302  1.5285
34222SOL     OW 7603   6.611   7.706   7.901 -0.2756 -0.5018 -0.0164
34222SOL    HW1 7604   6.542   7.772   7.907  2.8237  2.9128  2.3356
34222SOL    HW2 7605   6.661   7.730   7.823  0.6113 -0.2902  0.5994
34223SOL     OW 7606   0.779  10.705   0.247 -0.8733 -0.1474  0.0499
34223SOL    HW1 7607   0.747  10.710   0.336 -0.4933  1.8793  0.1218
34223SOL    HW2 7608   0.864  10.661   0.255 -0.4024  0.8774  0.8272
34224SOL     OW 7609   0.740   0.550   8.703  1.1125 -0.1157  0.4136
34224SOL    HW1 7610   0.672   0.539   8.770  0.6019 -0.5671 -0.1669
34224SOL    HW2 7611   0.745   0.644   8.689  0.0005 -0.1263 -0.1352
34225SOL     OW 7612   4.976   1.502   0.344 -0.9881  0.3263 -0.4544
34225SOL    HW1 7613   4.897   1.482   0.394 -0.8746  0.1342 -0.3503
34225SOL    HW2 7614   4.944   1.525   0.257 -1.1331 -0.1581 -0.5331
34226SOL     OW 7615  11.344   5.565   5.801 -0.1774 -0.2053  0.1418
34226SOL    HW1 7616  11.397   5.616   5.740 -1.3297  1.0386  0.1141
34226SOL    HW2 7617  11.346   5.616   5.882 -0.4326 -0.7084  0.4681
34227SOL     OW 7618   8.467   5.798   2.929 -0.1365  0.0831  0.1875
34227SOL    HW1 7619   8.398   5.866   2.925  0.3846  0.6114  0.0390
34227SOL    HW2 7620   8.544   5.845   2.961  0.7980  0.0450 -1.8792
34228SOL     OW 7621  10.811   4.427  10.403  0.3034 -0.0469 -0.3935
34228SOL    HW1 7622  10.874   4.451  10.471 -0.8652 -0.1407  0.7424
34228SOL    HW2 7623  10.776   4.343  10.431 -0.8907  0.3667 -0.6003
34229SOL     OW 7624   3.887   4.278   0.206 -0.4195  0.6251 -0.2821
34229SOL    HW1 7625   3.976   4.260   0.236 -0.1480  0.3130 -1.2515
34229SOL    HW2 7626   3.852   4.340   0.270 -0.0937 -0.5052  1.0368
34230SOL     OW 7627  11.312   9.850   5.618  0.0605  0.4215 -0.3011
34230SOL    HW1 7628  11.372   9.896   5.677 -1.2404  0.4907  1.0160
34230SOL    HW2 7629  11.230   9.899   5.624 -0.4002 -0.1864 -1.3854
34231SOL     OW 7630  10.567   3.110   7.706  0.1250  0.0513 -0.0891
34231SOL    HW1 7631  10.539   3.188   7.753 -1.0092 -0.8499  0.7846
34231SOL    HW2 7632  10.661   3.123   7.692  0.0941  1.2417  0.6610
34232SOL     OW 7633   3.749   9.790   7.023  0.8442 -0.3087  0.0409
34232SOL    HW1 7634   3.663   9.783   6.983  0.3444  2.6971  0.3600
34232SOL    HW2 7635   3.733   9.775   7.117  0.7135  0.0542  0.0751
34233SOL     OW 7636   9.640   4.269   9.675  0.1088 -0.1644 -0.4866
34233SOL    HW1 7637   9.686   4.272   9.591  1.8853 -0.5737  0.4300
34233SOL    HW2 7638   9.709   4.259   9.740 -1.1480  1.1034  1.1309
34234SOL     OW 7639   7.528   9.370   7.169  0.1322  0.3281  0.0826
34234SOL    HW1 7640   7.548   9.460   7.144 -0.8232  0.6821  0.5110
34234SOL    HW2 7641   7.582   9.316   7.112  0.9456  1.1766  0.0245
34235SOL     OW 7642   0.302  10.163   3.463  0.1401 -0.5667 -0.2125
34235SOL    HW1 7643   0.256  10.221   3.523  0.1708 -0.3549 -0.3919
34235SOL    HW2 7644   0.350  10.103   3.520  1.0461  0.3132  0.0030
34236SOL     OW 7645   6.497   0.735   8.773 -0.0254 -0.3233  0.0573
34236SOL    HW1 7646   6.470   0.665   8.832  0.0750  2.0473  3.1791
34236SOL    HW2 7647   6.458   0.814   8.810  0.4631  1.4325 -2.8524
34237SOL     OW 7648   7.546   9.601   8.156  0.4974  0.2733  0.2179
34237SOL    HW1 7649   7.494   9.648   8.090 -0.7064  0.0652  0.9878
34237SOL    HW2 7650   7.577   9.670   8.215 -0.1214  0.2496  0.5739
34238SOL     OW 7651   7.130  10.236  11.045 -1.2217  0.1435 -0.1552
34238SOL    HW1 7652   7.153  10.314  10.994 -0.4263  0.3478  0.4825
34238SOL    HW2 7653   7.042  10.253  11.077 -1.9148 -0.1834 -1.7980
34239SOL     OW 7654   7.387   5.446   9.528  0.5741  0.2454 -0.0997
34239SOL    HW1 7655   7.405   5.495   9.608 -1.9293 -0.3600  0.9283
34239SOL    HW2 7656   7.441   5.368   9.534 -0.7764 -0.6007  1.8754
34240SOL     OW 7657   8.561   7.221   6.734  0.2615 -0.1533 -0.5208
34240SOL    HW1 7658   8.555   7.194   6.825 -2.7646  0.7288 -0.3675
34240SOL    HW2 7659   8.574   7.316   6.738  1.1072 -0.2294 -1.0550
34241SOL     OW 7660   7.699   7.360   3.097 -0.7651 -0.2846  0.4424
34241SOL    HW1 7661   7.674   7.389   3.010  0.7527 -0.0712  0.0470
34241SOL    HW2 7662   7.654   7.276   3.108  0.5696 -1.3210 -1.3920
34242SOL     OW 7663   8.946   6.563   2.075 -0.1794  0.3600  0.7312
34242SOL    HW1 7664   8.858   6.540   2.043  0.0379  0.0108  0.3721
34242SOL    HW2 7665   8.946   6.535   2.166 -1.5009  3.2000  1.7223
34243SOL     OW 7666   2.242   6.867  11.166  0.1184  0.2575  0.0889
34243SOL    HW1 7667   2.254   6.958  11.141  2.0810  0.1945  0.6768
34243SOL    HW2 7668   2.166   6.838  11.115 -0.6825  2.2576  0.0793
34244SOL     OW 7669   0.715   6.228   1.304  0.3132 -0.9420  0.0215
34244SOL    HW1 7670   0.668   6.170   1.244  0.6157  0.2860 -1.4478
34244SOL    HW2 7671   0.777   6.170   1.348 -0.6174 -2.0618 -0.0580
34245SOL     OW 7672   4.276   9.209   4.673 -0.0912 -0.4911 -0.3389
34245SOL    HW1 7673   4.296   9.172   4.759 -0.0254 -1.2526 -0.6807
34245SOL    HW2 7674   4.238   9.137   4.623 -1.5097  0.3098 -0.4776
34246SOL     OW 7675   3.268   9.433   4.263 -0.0879  0.1756 -0.5254
34246SOL    HW1 7676   3.319   9.503   4.223 -1.6239  0.9651 -1.1417
34246SOL    HW2 7677   3.221   9.392   4.191 -2.6668  1.4295  0.3301
34247SOL     OW 7678  10.301   2.932   5.218  0.9831 -0.0680 -0.1585
34247SOL    HW1 7679  10.365   2.861   5.213  1.5972  0.5026 -0.6700
34247SOL    HW2 7680  10.248   2.922   5.139  0.2631 -0.6918  0.3908
34248SOL     OW 7681  11.124   3.562   8.611 -0.1444  0.2654  0.0323
34248SOL    HW1 7682  11.189   3.499   8.642  0.0469 -0.5645 -1.8895
34248SOL    HW2 7683  11.066   3.576   8.686  0.8977 -0.7624  1.0673
34249SOL     OW 7684   7.866   8.400   9.016  0.1327 -0.0222  0.2763
34249SOL    HW1 7685   7.949   8.356   9.035 -0.1305  0.5444  3.2350
34249SOL    HW2 7686   7.890   8.477   8.965  1.3479 -0.1684  0.6105
34250SOL     OW 7687   7.167   0.929   2.484  0.3114  0.0316  0.3384
34250SOL    HW1 7688   7.160   0.858   2.421 -0.9545 -0.1208  0.6291
34250SOL    HW2 7689   7.081   0.933   2.526  0.9298  0.5270  1.6201
34251SOL     OW 7690   4.945   2.001   3.916  0.3201 -0.5596  0.5776
34251SOL    HW1 7691   4.885   2.054   3.968 -0.6426 -1.2849  0.2353
34251SOL    HW2 7692   4.951   1.918   3.964  1.5588 -0.2959  0.9383
34252SOL     OW 7693   2.644   4.968   0.315 -0.3296 -0.1186 -0.1318
34252SOL    HW1 7694   2.596   4.909   0.257  0.0342 -0.9024  0.3594
34252SOL    HW2 7695   2.597   4.964   0.398 -0.1440  0.0805 -0.0145
34253SOL     OW 7696   7.670   2.958   9.243 -0.0725  0.2211  0.7034
34253SOL    HW1 7697   7.676   2.924   9.153 -0.9410 -0.2245  0.8093
34253SOL    HW2 7698   7.625   3.042   9.234 -0.5381 -0.0207  0.7674
34254SOL     OW 7699   0.095   4.783  11.440  0.1701 -0.1104 -0.8555
34254SOL    HW1 7700   0.150   4.713  11.475  0.6068  0.6690  0.0438
34254SOL    HW2 7701   0.150   4.861  11.440 -0.6283  0.4744 -0.8539
34255SOL     OW 7702   5.781  11.618   5.803  0.1565  0.0716 -0.1534
34255SOL    HW1 7703   5.706  11.630   5.745  0.7450  0.1777 -0.9226
34255SOL    HW2 7704   5.744  11.613   5.891 -1.2198 -4.1314 -0.7587
34256SOL     OW 7705  10.399   6.089   7.230  0.4774  0.5865 -0.1475
34256SOL    HW1 7706  10.447   6.105   7.148 -0.8584 -2.1517 -1.5939
34256SOL    HW2 7707  10.309   6.115   7.210  0.0467 -0.5369  0.2597
34257SOL     OW 7708  11.283   6.215   6.346 -0.2492 -0.0746  0.0539
34257SOL    HW1 7709  11.318   6.285   6.402  1.9802 -0.6056 -0.5726
34257SOL    HW2 7710  11.332   6.222   6.265 -0.1998 -2.1513 -0.1531
34258SOL     OW 7711   5.753  10.613   3.068  0.4770 -0.0143  0.2472
34258SOL    HW1 7712   5.692  10.674   3.109 -0.8708 -0.7486 -0.5951
34258SOL    HW2 7713   5.836  10.626   3.116  0.1600  2.2140  0.2920
34259SOL     OW 7714   5.508   8.345   7.748  0.5402  0.2533  0.4938
34259SOL    HW1 7715   5.439   8.366   7.812  0.6324 -0.8486  0.9876
34259SOL    HW2 7716   5.566   8.285   7.795  1.4894  0.6706 -0.1296
34260SOL     OW 7717  10.798   2.398  10.975  0.0503 -0.2530 -0.3503
34260SOL    HW1 7718  10.781   2.338  11.048  2.4348 -0.2992  0.2417
34260SOL    HW2 7719  10.829   2.478  11.016 -2.8255  1.4345 -1.1502
34261SOL     OW 7720   1.580  10.900   5.031 -0.1077  0.1096 -0.4398
34261SOL    HW1 7721   1.588  10.870   5.121 -2.1624 -0.1204 -0.2981
34261SOL    HW2 7722   1.664  10.877   4.991  0.5389 -0.5092  1.1802
34262SOL     OW 7723   0.582   1.174  10.019  0.3987  0.8010  0.0390
34262SOL    HW1 7724   0.490   1.200  10.016  0.2778  0.4060  0.3396
34262SOL    HW2 7725   0.594   1.135  10.105 -0.0094 -2.2637 -1.1961
34263SOL     OW 7726  10.669   9.508   5.814 -0.4909  0.0532 -0.2260
34263SOL    HW1 7727  10.679   9.555   5.897 -0.5749 -0.1774 -0.0838
34263SOL    HW2 7728  10.588   9.458   5.825  0.6144 -1.7043  0.4012
34264SOL     OW 7729   7.250   9.974   7.627 -0.5049  0.1246  0.2519
34264SOL    HW1 7730   7.201   9.968   7.545 -0.9403  0.6686  0.4649
34264SOL    HW2 7731   7.206   9.913   7.686 -0.1016 -0.3753  0.0368
34265SOL     OW 7732   7.146  11.544  11.488  0.0509 -0.1288  0.1621
34265SOL    HW1 7733   7.145  11.589  11.404 -0.6947  0.4075  0.4556
34265SOL    HW2 7734   7.074  11.481  11.483 -0.3668  0.3040  0.6084
34266SOL     OW 7735   1.586   9.013   8.020  0.1897 -0.5549  0.0751
34266SOL    HW1 7736   1.569   9.065   8.098  0.9205 -0.9690  0.5246
34266SOL    HW2 7737   1.505   8.965   8.004 -0.5908  0.8942 -0.4980
34267SOL     OW 7738   2.420   2.373   8.943 -0.1916  0.5576  0.0392
34267SOL    HW1 7739   2.330   2.391   8.915 -0.5565 -0.8278  0.2343
34267SOL    HW2 7740   2.410   2.336   9.031  0.5355 -0.1056 -0.1495
34268SOL     OW 7741   3.315  10.248   7.316 -0.5499 -0.5446 -0.6117
34268SOL    HW1 7742   3.268  10.274   7.237  1.0713 -0.2667 -1.5287
34268SOL    HW2 7743   3.375  10.179   7.288  0.0283 -0.4753  0.3852
34269SOL     OW 7744   5.669  10.063   1.386  0.2931  0.0044 -0.3977
34269SOL    HW1 7745   5.710  10.028   1.465  1.3257 -0.0781 -0.9426
34269SOL    HW2 7746   5.577  10.039   1.393  0.4387 -0.2882  0.6168
34270SOL     OW 7747   8.374   6.895   6.985 -0.3593  0.1027  0.1441
34270SOL    HW1 7748   8.307   6.953   7.021 -0.1233 -0.4094  1.4543
34270SOL    HW2 7749   8.448   6.953   6.965  0.1398  0.2048  2.1096
34271SOL     OW 7750   7.897  10.170   0.338 -0.4330  0.0777  0.4660
34271SOL    HW1 7751   7.879  10.262   0.317 -2.5531 -0.3783  0.0255
34271SOL    HW2 7752   7.885  10.124   0.255 -0.0412 -0.6900  0.8236
34272SOL     OW 7753   6.462   8.957   1.190 -0.0166 -0.1440 -0.5988
34272SOL    HW1 7754   6.388   9.013   1.212  1.3905  1.6170 -0.1177
34272SOL    HW2 7755   6.430   8.900   1.120 -1.4795  1.3327 -1.1825
34273SOL     OW 7756   7.706   3.242   2.189  0.0079 -0.3528  0.1717
34273SOL    HW1 7757   7.647   3.289   2.130 -1.6408 -0.2070  1.8289
34273SOL    HW2 7758   7.758   3.311   2.230 -1.0405 -0.0962  1.1438
34274SOL     OW 7759  10.531  10.535  10.203  0.5437 -0.2170  0.2184
34274SOL    HW1 7760  10.547  10.458  10.149 -0.1241  0.5391 -1.1287
34274SOL    HW2 7761  10.474  10.504  10.274 -1.2772 -0.6447 -1.3412
34275SOL     OW 7762   8.776   0.340   9.864 -0.5156 -0.8254  0.5410
34275SOL    HW1 7763   8.775   0.418   9.919 -1.8424 -2.4028  2.9148
34275SOL    HW2 7764   8.869   0.316   9.858 -0.1613  0.5108  0.3186
34276SOL     OW 7765  11.635   9.474   3.709  0.2023  0.0231 -0.7456
34276SOL    HW1 7766  11.646   9.569   3.714  1.8778 -0.1214 -0.9186
34276SOL    HW2 7767  11.724   9.440   3.722 -0.3112 -1.5071 -1.1007
34277SOL     OW 7768   5.598   1.203   6.040  0.3181 -0.0055 -0.2221
34277SOL    HW1 7769   5.517   1.154   6.054  0.7989 -0.4522  1.1700
34277SOL    HW2 7770   5.575   1.294   6.060  0.0419 -0.0541 -0.3191
34278SOL     OW 7771   1.191   6.115   4.782 -0.6284  0.5783 -0.0448
34278SOL    HW1 7772   1.258   6.155   4.838 -0.2342  0.3306 -0.3321
34278SOL    HW2 7773   1.188   6.024   4.810 -0.8741  0.5993 -0.0063
34279SOL     OW 7774   8.518   2.658   8.689  0.0853 -0.2205 -0.6996
34279SOL    HW1 7775   8.557   2.571   8.694  0.5968  0.0555  0.2106
34279SOL    HW2 7776   8.442   2.653   8.746  0.1140 -0.0665 -0.6476
34280SOL     OW 7777   3.039   2.530   4.714  0.6484  0.3269  0.1243
34280SOL    HW1 7778   3.104   2.525   4.784  0.5310 -2.8566  0.1188
34280SOL    HW2 7779   2.955   2.542   4.759  0.7099 -0.4410  0.4409
34281SOL     OW 7780   6.470   8.616   4.360  0.0854  0.0226  0.7118
34281SOL    HW1 7781   6.438   8.545   4.305 -1.8179  0.3552  1.3249
34281SOL    HW2 7782   6.414   8.615   4.437  1.2140  1.0238  1.5871
34282SOL     OW 7783   8.165   3.392   9.459 -0.3576  0.5206  0.1887
34282SOL    HW1 7784   8.155   3.339   9.539 -0.1914  0.4717  0.1776
34282SOL    HW2 7785   8.122   3.340   9.391 -0.5587  0.5937  0.2588
34283SOL     OW 7786   7.334   5.388   9.147  0.3281 -0.1293 -0.6106
34283SOL    HW1 7787   7.381   5.319   9.101  1.3975 -0.8689  1.4795
34283SOL    HW2 7788   7.287   5.343   9.217  0.7944  1.2212  0.6212
34284SOL     OW 7789   8.792   5.986  10.955  0.3679  0.2688 -0.2243
34284SOL    HW1 7790   8.781   6.081  10.947 -0.9723  0.2074  0.5514
34284SOL    HW2 7791   8.878   5.976  10.996 -0.5987  1.3237  2.2716
34285SOL     OW 7792   6.027   1.869   5.161  1.0711  0.0352  0.0372
34285SOL    HW1 7793   5.981   1.889   5.079  1.1756 -1.5966 -0.4555
34285SOL    HW2 7794   6.115   1.844   5.134  1.1034 -0.5280  0.6473
34286SOL     OW 7795   1.518   8.365   4.058 -0.4606 -0.3625 -0.3995
34286SOL    HW1 7796   1.472   8.345   4.140 -0.5078  0.4765 -0.2096
34286SOL    HW2 7797   1.486   8.452   4.033 -0.0044 -0.3575 -1.0007
34287SOL     OW 7798   0.997   7.370   0.562 -0.2166 -0.6480  0.9481
34287SOL    HW1 7799   0.920   7.318   0.585 -0.5306  0.3846  2.4137
34287SOL    HW2 7800   0.994   7.445   0.623  1.6940 -0.3471  0.7283
34288SOL     OW 7801   4.699   4.012   2.986 -0.3228  0.3973 -0.5578
34288SOL    HW1 7802   4.647   3.950   2.935 -0.7552  0.5637 -0.3205
34288SOL    HW2 7803   4.770   3.959   3.022 -0.3781  0.1509 -0.8114
34289SOL     OW 7804  11.194  11.293   3.590  0.3730  0.1569  0.0665
34289SOL    HW1 7805  11.149  11.377   3.581 -0.9330 -0.5736 -0.5123
34289SOL    HW2 7806  11.183  11.251   3.505  0.5240 -0.8281  0.5209
34290SOL     OW 7807   8.580  10.071   3.075 -0.4639 -0.3896 -0.6555
34290SOL    HW1 7808   8.559  10.142   3.014  1.3397  0.5639 -0.2432
34290SOL    HW2 7809   8.510  10.075   3.141 -0.7824  0.5346 -1.0362
34291SOL     OW 7810   7.360   5.845   9.090 -0.1398 -0.2176  0.2154
34291SOL    HW1 7811   7.337   5.808   9.005  0.6768  0.4221 -0.2990
34291SOL    HW2 7812   7.298   5.806   9.151 -0.9845 -0.3850 -0.7352
34292SOL     OW 7813   7.514   9.282   9.470  0.2794 -0.1378 -0.6651
34292SOL    HW1 7814   7.433   9.298   9.421  0.5711 -1.6274 -1.6821
34292SOL    HW2 7815   7.564   9.363   9.459  0.3272 -0.4219 -2.8364
34293SOL     OW 7816   1.688  11.266   6.442 -0.1021 -0.1768  0.4834
34293SOL    HW1 7817   1.770  11.315   6.451  1.3146 -2.1033 -0.8988
34293SOL    HW2 7818   1.694  11.224   6.356 -2.5656 -0.4050  0.3502
34294SOL     OW 7819   7.599   2.039   0.921  0.2539 -0.1892  0.3201
34294SOL    HW1 7820   7.558   2.000   0.844 -1.0190 -1.6328  1.6668
34294SOL    HW2 7821   7.588   1.974   0.990 -0.1428  1.7293  2.1666
34295SOL     OW 7822   2.970   8.084   2.563 -0.3776  0.2436  0.1821
34295SOL    HW1 7823   2.920   8.002   2.558  0.4206 -0.4221  2.0648
34295SOL    HW2 7824   2.911   8.146   2.604 -0.4805  0.1639  0.1553
34296SOL     OW 7825   0.520   5.161   2.113 -0.8240 -0.3138 -0.0649
34296SOL    HW1 7826   0.604   5.121   2.138 -0.0412  1.2357 -0.1066
34296SOL    HW2 7827   0.500   5.122   2.028 -0.6325 -1.3951  0.3675
34297SOL     OW 7828   8.359   7.800   9.884  0.2151  0.0385 -0.4590
34297SOL    HW1 7829   8.345   7.740   9.957 -1.1285 -2.0111 -2.2713
34297SOL    HW2 7830   8.453   7.819   9.886  0.3544 -0.6846  1.2405
34298SOL     OW 7831   0.518   3.607   7.456  0.1234  0.3106 -0.1299
34298SOL    HW1 7832   0.532   3.673   7.388 -1.0623 -0.6980 -1.4250
34298SOL    HW2 7833   0.599   3.556   7.455  1.3713  2.1357  1.4275
34299SOL     OW 7834   3.227   4.207  11.207 -0.0665 -0.0727 -0.6101
34299SOL    HW1 7835   3.230   4.111  11.203 -0.8629 -0.1340 -0.0664
34299SOL    HW2 7836   3.202   4.234  11.119 -1.5963 -0.4823 -0.3394
34300SOL     OW 7837   7.678   8.266   8.600 -0.6703 -0.0411 -0.1884
34300SOL    HW1 7838   7.751   8.220   8.559  0.1877  1.0349  0.0678
34300SOL    HW2 7839   7.604   8.205   8.596  0.2046 -1.0869 -0.6003
34301SOL     OW 7840   2.831   0.863   4.997 -0.1259  0.2819  0.3320
34301SOL    HW1 7841   2.836   0.946   4.949 -2.1855  0.3010  0.0397
34301SOL    HW2 7842   2.810   0.798   4.930 -0.3235 -0.1609  0.8183
34302SOL     OW 7843  10.884   5.485   0.091 -0.3186  0.3199  0.1573
34302SOL    HW1 7844  10.919   5.400   0.065 -0.9701 -0.0628  0.5044
34302SOL    HW2 7845  10.940   5.549   0.046  0.0023 -0.2918 -0.3300
34303SOL     OW 7846   6.026   5.070   5.391  0.2180  0.2287  0.0681
34303SOL    HW1 7847   6.087   5.005   5.425 -0.7864 -1.3156 -0.9658
34303SOL    HW2 7848   5.998   5.035   5.307 -0.8910  1.6850 -0.2076
34304SOL     OW 7849   8.894  10.484   3.957  0.3018  0.6591  1.1910
34304SOL    HW1 7850   8.864  10.394   3.950  0.2730  0.5425  2.5612
34304SOL    HW2 7851   8.817  10.536   3.931  0.4496  0.3047 -0.0100
34305SOL     OW 7852   8.107   3.531   4.851  0.1354 -0.2049 -0.2648
34305SOL    HW1 7853   8.169   3.479   4.901  0.5429  0.7800  0.2843
34305SOL    HW2 7854   8.057   3.579   4.917 -0.6783 -0.3867 -0.7348
34306SOL     OW 7855   3.230  10.770   0.221 -0.0257  0.0591 -0.0404
34306SOL    HW1 7856   3.271  10.792   0.305 -1.0322 -1.5694  0.9453
34306SOL    HW2 7857   3.156  10.714   0.245 -1.7415  1.4068 -1.8626
34307SOL     OW 7858   4.159   1.055  11.168  0.7974 -0.5524  0.1771
34307SOL    HW1 7859   4.251   1.037  11.185  1.0406  1.2515  0.9788
34307SOL    HW2 7860   4.150   1.049  11.073  2.7141  3.1145 -0.4002
34308SOL     OW 7861  11.166   2.710   7.034 -0.2388 -0.6920 -0.1357
34308SOL    HW1 7862  11.153   2.758   6.953 -0.5445 -1.4340 -0.5371
34308SOL    HW2 7863  11.252   2.738   7.065 -0.9877  1.1548  0.3826
34309SOL     OW 7864   4.543   8.523   1.909 -0.4347 -0.8037  0.2135
34309SOL    HW1 7865   4.566   8.562   1.825  1.2497 -0.5746  0.7354
34309SOL    HW2 7866   4.496   8.592   1.955 -0.0931 -0.4229 -0.0013
34310SOL     OW 7867   9.617   1.345   1.091 -0.1812  0.2796  0.3384
34310SOL    HW1 7868   9.596   1.432   1.056  0.6319  1.1196  1.8341
34310SOL    HW2 7869   9.693   1.359   1.147  1.0076 -1.7144 -0.6750
34311SOL     OW 7870   1.108   0.101  10.482  0.3628 -0.1952  0.1002
34311SOL    HW1 7871   1.062   0.035  10.533 -1.6511  0.1418 -1.1670
34311SOL    HW2 7872   1.084   0.082  10.391 -0.5127  2.3930 -0.3002
34312SOL     OW 7873   8.505   8.628   7.949 -0.3267 -0.2960  0.2750
34312SOL    HW1 7874   8.432   8.618   7.889 -1.2260  1.6962  0.9376
34312SOL    HW2 7875   8.573   8.672   7.897 -0.8102  0.7172  0.4790
34313SOL     OW 7876   2.858   3.131   3.099  0.3403 -0.2113  0.4194
34313SOL    HW1 7877   2.818   3.215   3.119 -0.2392 -0.5386  0.6672
34313SOL    HW2 7878   2.950   3.151   3.082  0.6191  0.2384  2.2622
34314SOL     OW 7879   3.312   3.444   3.382 -0.0114  0.8710  0.6293
34314SOL    HW1 7880   3.216   3.444   3.377 -0.0091 -0.8700  0.0314
34314SOL    HW2 7881   3.334   3.361   3.424  1.2700  0.9311  0.1202
34315SOL     OW 7882   9.903   6.695   8.160 -0.4038 -0.6928  0.2869
34315SOL    HW1 7883   9.956   6.732   8.230  0.2654 -0.7570 -0.1733
34315SOL    HW2 7884   9.822   6.668   8.203 -0.6719  0.7460  0.7315
34316SOL     OW 7885   0.405   1.798   3.458  0.6139 -0.2295  0.1693
34316SOL    HW1 7886   0.449   1.877   3.427  0.8679 -0.6140 -0.4435
34316SOL    HW2 7887   0.448   1.778   3.541  1.2436 -0.3124 -0.1774
34317SOL     OW 7888   5.434   6.913  10.225 -0.2854  0.1018  0.3030
34317SOL    HW1 7889   5.503   6.901  10.160  0.6982 -0.1545  1.3530
34317SOL    HW2 7890   5.353   6.920  10.174  0.5199  0.5120 -0.9654
34318SOL     OW 7891  10.159   7.082  10.928  0.1147 -0.2689 -0.6310
34318SOL    HW1 7892  10.114   7.131  10.996 -1.1680 -0.8862 -1.0126
34318SOL    HW2 7893  10.101   7.086  10.852  1.4164  0.2199 -1.6514
34319SOL     OW 7894   8.106   6.242   3.672 -0.0454  0.0442 -0.1347
34319SOL    HW1 7895   8.178   6.181   3.654  0.8981  0.6282  1.4741
34319SOL    HW2 7896   8.146   6.329   3.663 -0.3911  0.3727  1.3226
34320SOL     OW 7897   3.920   2.649   5.131  0.5568 -0.2172  0.5125
34320SOL    HW1 7898   3.939   2.608   5.047 -4.3880 -0.7467 -0.6011
34320SOL    HW2 7899   3.879   2.579   5.183 -1.1425  1.3825  1.4050
34321SOL     OW 7900  10.116  10.378   3.122  0.3506  0.2666  0.0936
34321SOL    HW1 7901  10.193  10.424   3.089 -0.5802  1.5064 -0.4114
34321SOL    HW2 7902  10.082  10.434   3.192 -0.8439  0.4156 -0.5846
34322SOL     OW 7903   0.803   9.178   4.711 -0.1601 -0.5218  0.2063
34322SOL    HW1 7904   0.713   9.197   4.683 -0.4258 -0.1889  1.2699
34322SOL    HW2 7905   0.857   9.214   4.640 -0.7548  1.8544  0.8544
34323SOL     OW 7906   0.358   5.735  11.426  0.2319 -0.3881  0.1062
34323SOL    HW1 7907   0.428   5.671  11.440 -0.1373 -0.5794  1.2309
34323SOL    HW2 7908   0.325   5.716  11.338  0.7598 -1.1185  0.0571
34324SOL     OW 7909   3.699   3.816   3.719 -0.0529  0.2777 -0.5625
34324SOL    HW1 7910   3.717   3.811   3.626 -0.6482  0.6132 -0.7000
34324SOL    HW2 7911   3.656   3.734   3.740 -0.3046  0.3798 -0.6736
34325SOL     OW 7912   6.786   1.021   8.774 -0.1657 -0.3263  0.5488
34325SOL    HW1 7913   6.762   0.995   8.685  0.1260 -3.6261  1.3166
34325SOL    HW2 7914   6.881   1.011   8.777 -0.1512 -0.0570  1.1826
34326SOL     OW 7915   8.037   3.672   2.268  0.7046  0.2620 -0.3389
34326SOL    HW1 7916   8.036   3.709   2.356  2.9724  0.6771 -0.4275
34326SOL    HW2 7917   8.022   3.747   2.211  1.5618  0.4135 -0.3760
34327SOL     OW 7918   0.480   6.900   5.949  0.3571 -0.1098 -0.4343
34327SOL    HW1 7919   0.486   6.913   5.855  1.2310 -0.0929 -0.3847
34327SOL    HW2 7920   0.414   6.964   5.978  0.9241  0.7018 -0.8832
34328SOL     OW 7921   0.751  10.803   4.875  0.3366  0.1478  0.1446
34328SOL    HW1 7922   0.772  10.714   4.847 -0.1813  0.2332 -0.5474
34328SOL    HW2 7923   0.835  10.842   4.898  0.8651  0.2380 -1.8019
34329SOL     OW 7924   0.811   1.296  10.009  0.0972 -0.4193  0.0962
34329SOL    HW1 7925   0.822   1.347   9.928 -1.7942 -0.8254 -0.4750
34329SOL    HW2 7926   0.727   1.251   9.997 -0.1077 -0.6768  2.2064
34330SOL     OW 7927   9.014  11.432   3.445 -0.3133  0.5191 -0.3264
34330SOL    HW1 7928   9.053  11.400   3.526 -0.3673  1.6691  0.1775
34330SOL    HW2 7929   8.939  11.375   3.430  1.1175 -1.2912 -0.9331
34331SOL     OW 7930   5.176   8.460  10.718  0.1043 -0.0875  0.3320
34331SOL    HW1 7931   5.129   8.522  10.774  1.0056  2.1154 -1.2477
34331SOL    HW2 7932   5.126   8.459  10.636 -0.1249 -1.8078  0.4554
34332SOL     OW 7933   0.992   5.601   3.550 -0.9182 -0.1584 -0.4824
34332SOL    HW1 7934   1.007   5.685   3.506  0.6509 -0.3633 -0.3764
34332SOL    HW2 7935   0.927   5.557   3.496  0.3591 -0.0681 -2.1651
34333SOL     OW 7936   8.249   9.267   1.639 -0.0444  0.9913 -0.0475
34333SOL    HW1 7937   8.284   9.323   1.570 -1.1319 -1.2565 -2.5673
34333SOL    HW2 7938   8.155   9.266   1.625 -0.1426 -0.7521  0.4837
34334SOL     OW 7939   6.188   8.284   6.547 -0.2629  0.2237 -0.1250
34334SOL    HW1 7940   6.177   8.271   6.452 -1.9889 -0.1373  0.0964
34334SOL    HW2 7941   6.212   8.376   6.556 -0.7692  0.4385 -0.8675
34335SOL     OW 7942   3.299   2.228   4.845 -0.2757  0.9067  0.6707
34335SOL    HW1 7943   3.312   2.152   4.901  1.6505  1.2011  0.6843
34335SOL    HW2 7944   3.269   2.192   4.762  1.7834 -0.0131  0.2758
34336SOL     OW 7945   4.230  10.976   5.396 -0.9151 -0.4021 -0.4530
34336SOL    HW1 7946   4.201  10.918   5.466 -1.0159 -0.5102 -0.5821
34336SOL    HW2 7947   4.303  11.025   5.434 -0.8612 -0.5772 -0.3239
34337SOL     OW 7948   8.011   5.022  10.020 -0.1810  0.1902 -0.8544
34337SOL    HW1 7949   8.062   4.942  10.027 -1.5627 -0.6672 -0.1926
34337SOL    HW2 7950   7.975   5.020   9.931 -0.1299  0.1201 -0.8727
34338SOL     OW 7951   0.887   1.745   3.236  0.0544 -0.4763 -0.3939
34338SOL    HW1 7952   0.894   1.689   3.159  2.1951  0.8670 -1.2598
34338SOL    HW2 7953   0.971   1.736   3.280 -0.7578 -0.4080  1.2713
34339SOL     OW 7954   2.385   4.240   7.716  0.0498 -0.4230  0.0098
34339SOL    HW1 7955   2.302   4.282   7.739  0.7334  0.3600  1.1818
34339SOL    HW2 7956   2.363   4.147   7.706 -0.9593 -0.2278  0.2818
34340SOL     OW 7957   7.655   8.632   8.091 -0.6321  0.0597  0.3740
34340SOL    HW1 7958   7.746   8.631   8.060 -1.2773  0.4751 -1.6856
34340SOL    HW2 7959   7.621   8.717   8.063 -1.6782 -0.0871  1.1366
34341SOL     OW 7960   2.022   5.156   4.811 -0.1668  0.5497 -0.4587
34341SOL    HW1 7961   1.947   5.216   4.812 -1.3149 -0.8152 -0.3580
34341SOL    HW2 7962   2.098   5.212   4.825 -1.1733  1.9765 -0.4361
34342SOL     OW 7963   2.228   9.780  11.583 -0.6531  0.6406 -0.3344
34342SOL    HW1 7964   2.254   9.799  11.492  1.0698 -0.8773 -0.2163
34342SOL    HW2 7965   2.275   9.845  11.635  0.8123 -0.3802 -0.3351
34343SOL     OW 7966   1.881   2.452   9.012  0.6182 -0.1415 -0.1685
34343SOL    HW1 7967   1.801   2.406   8.988 -0.1889 -0.5675  2.9800
34343SOL    HW2 7968   1.948   2.413   8.956 -0.7938 -2.1068 -0.5948
34344SOL     OW 7969   0.019   1.134   0.205 -0.5904  0.0635 -1.2324
34344SOL    HW1 7970   0.070   1.079   0.264 -2.6346 -0.1529  0.4421
34344SOL    HW2 7971   0.066   1.217   0.204 -0.0804 -0.1757  0.1189
34345SOL     OW 7972   1.834   3.146   5.210  0.3845  0.8836  0.0111
34345SOL    HW1 7973   1.812   3.144   5.303  1.1170 -3.0051  0.2389
34345SOL    HW2 7974   1.929   3.150   5.207  0.5043 -1.3410 -0.4493
34346SOL     OW 7975   0.334   7.575   3.893 -0.2469 -0.1455 -0.2154
34346SOL    HW1 7976   0.327   7.484   3.865 -0.9876 -0.0674 -0.3200
34346SOL    HW2 7977   0.428   7.592   3.899 -0.1010 -0.7789 -0.6489
34347SOL     OW 7978   4.120   7.055   4.576 -0.0226 -0.3854  0.3301
34347SOL    HW1 7979   4.177   6.980   4.559 -3.4563 -3.0265 -0.4225
34347SOL    HW2 7980   4.089   7.082   4.490 -0.3992  0.6185  0.7604
34348SOL     OW 7981   2.712  10.919  11.527  0.2381  0.2420 -0.2178
34348SOL    HW1 7982   2.665  10.989  11.572  1.0949  1.1371 -0.6973
34348SOL    HW2 7983   2.655  10.842  11.537  0.6707  0.2092  2.9395
34349SOL     OW 7984   9.694   2.407  10.612  0.4697  0.1843 -0.1279
34349SOL    HW1 7985   9.599   2.421  10.610  0.4260 -0.1921 -0.7832
34349SOL    HW2 7986   9.719   2.399  10.520  0.9453 -0.9872  0.0918
34350SOL     OW 7987   8.852   8.846  10.982 -0.1397 -0.5326  0.3524
34350SOL    HW1 7988   8.871   8.933  10.949 -0.3105 -0.6854 -0.1642
34350SOL    HW2 7989   8.761   8.851  11.012 -0.6469 -0.9053 -1.0242
34351SOL     OW 7990   0.279   1.593   9.457 -0.1759  0.1983 -0.4681
34351SOL    HW1 7991   0.190   1.626   9.458 -0.2872  0.0045  1.6014
34351SOL    HW2 7992   0.326   1.649   9.519  0.5627 -1.0709  0.1796
34352SOL     OW 7993   1.715   3.426   6.460 -0.2267  0.3941  0.1690
34352SOL    HW1 7994   1.756   3.509   6.434 -0.4327  0.5716  0.4051
34352SOL    HW2 7995   1.625   3.432   6.426 -0.0487 -0.0072 -0.3747
34353SOL     OW 7996   2.607   6.906   3.110  0.4847  0.4377 -0.2310
34353SOL    HW1 7997   2.551   6.922   3.035  0.1465 -1.1574 -0.3669
34353SOL    HW2 7998   2.645   6.819   3.093 -0.1054 -0.2524  1.7140
34354SOL     OW 7999   8.039   4.753  11.196  0.0177  0.6084 -0.3608
34354SOL    HW1 8000   7.947   4.750  11.167  0.2827  1.1603 -1.3205
34354SOL    HW2 8001   8.043   4.692  11.269 -0.7630 -0.6390 -1.3051
34355SOL     OW 8002   1.668   4.237   0.062 -0.2371 -0.3079 -0.3184
34355SOL    HW1 8003   1.590   4.184   0.074 -2.0233  1.8518 -1.5787
34355SOL    HW2 8004   1.712   4.235   0.147 -2.1697 -0.8041  0.7373
34356SOL     OW 8005  10.743   1.233   1.304 -0.3963 -0.5715 -0.1325
34356SOL    HW1 8006  10.709   1.249   1.392  0.4016 -1.2870  0.3146
34356SOL    HW2 8007  10.785   1.147   1.309  1.6605  0.3582 -0.6116
34357SOL     OW 8008   9.708   3.897   7.653  0.0837  0.4537 -0.4309
34357SOL    HW1 8009   9.698   3.841   7.729 -1.1737 -1.1265 -1.6801
34357SOL    HW2 8010   9.721   3.836   7.580  0.1235  1.8531 -1.6405
34358SOL     OW 8011   2.551  11.599   6.784 -0.3423 -0.2645  0.0662
34358SOL    HW1 8012   2.545  11.620   6.877  1.3033 -0.1848  0.1910
34358SOL    HW2 8013   2.474  11.544   6.766 -0.0557 -1.2847  1.7643
34359SOL     OW 8014   6.393   8.953   7.833  0.1348  0.3493  0.4702
34359SOL    HW1 8015   6.384   8.886   7.766 -0.6991  1.1896 -0.2921
34359SOL    HW2 8016   6.487   8.956   7.852  0.4122  0.2537 -0.8236
34360SOL     OW 8017   6.481  10.867  11.381  0.0228 -0.7480 -0.4381
34360SOL    HW1 8018   6.515  10.868  11.292 -0.8317  0.1687 -0.7708
34360SOL    HW2 8019   6.402  10.920  11.377  0.2871 -0.2118  0.9955
34361SOL     OW 8020  10.053   6.241   6.579 -0.2795 -0.4266  0.2242
34361SOL    HW1 8021  10.082   6.206   6.494 -0.1139 -1.1365  0.5688
34361SOL    HW2 8022   9.984   6.182   6.608 -0.3089 -0.2083  0.6066
34362SOL     OW 8023  10.031   7.096   0.476 -0.3473  0.6475  0.1131
34362SOL    HW1 8024  10.074   7.101   0.561  1.1366 -0.6273 -0.5138
34362SOL    HW2 8025   9.990   7.010   0.474 -0.9800  0.9437 -0.2109
34363SOL     OW 8026   9.187   3.285   3.710 -0.3137 -0.1780  0.1977
34363SOL    HW1 8027   9.224   3.328   3.787 -0.3120  0.6443 -0.2460
34363SOL    HW2 8028   9.111   3.340   3.686 -1.2633 -1.3056  0.5372
34364SOL     OW 8029   9.496   7.019   4.075  0.2267 -0.0519 -0.3702
34364SOL    HW1 8030   9.455   6.941   4.035 -3.4677  0.7849  1.3453
34364SOL    HW2 8031   9.489   7.086   4.007 -0.8477 -0.0839 -0.3171
34365SOL     OW 8032   8.771   8.847   6.105 -0.5429 -0.3964 -0.1103
34365SOL    HW1 8033   8.785   8.775   6.043 -1.0779 -2.1930  1.7422
34365SOL    HW2 8034   8.830   8.827   6.178 -0.4999  1.2108  0.3151
34366SOL     OW 8035   6.173   5.441   4.531 -0.0406 -0.7441  0.2755
34366SOL    HW1 8036   6.191   5.508   4.465 -0.9776  1.0549  1.7610
34366SOL    HW2 8037   6.202   5.359   4.490  0.4820  0.4397 -1.8871
34367SOL     OW 8038   2.404   2.671   1.450  0.4499 -0.2757  0.0026
34367SOL    HW1 8039   2.468   2.733   1.414  0.1478  2.2564  3.3755
34367SOL    HW2 8040   2.320   2.713   1.435 -0.2966 -2.1875 -1.7230
34368SOL     OW 8041  11.605   5.300   7.543  0.2449 -0.1604 -0.0630
34368SOL    HW1 8042  11.603   5.250   7.462 -0.6995  2.9821 -2.1896
34368SOL    HW2 8043  11.519   5.342   7.548  1.2475  1.9341  1.0346
34369SOL     OW 8044   9.767   1.444   0.605  0.1021  0.1840  0.2133
34369SOL    HW1 8045   9.800   1.435   0.516  1.0785  2.4000  0.3009
34369SOL    HW2 8046   9.702   1.514   0.599 -1.3616 -1.0433  0.9117
34370SOL     OW 8047   4.541   5.587   6.780 -0.2215 -0.1305  0.6982
34370SOL    HW1 8048   4.562   5.497   6.807  0.2550 -0.1240  0.3583
34370SOL    HW2 8049   4.578   5.642   6.848 -0.3596 -0.1829  0.8168
34371SOL     OW 8050   9.666   5.661   1.055 -0.4295  0.4300  0.1372
34371SOL    HW1 8051   9.655   5.690   0.964  0.4560 -1.7320 -0.7143
34371SOL    HW2 8052   9.760   5.647   1.064 -0.4315  1.1712  1.6137
34372SOL     OW 8053   5.679   9.798   6.411 -0.2295 -0.1562 -0.1841
34372SOL    HW1 8054   5.679   9.890   6.387  1.4019  0.3952  1.6262
34372SOL    HW2 8055   5.744   9.758   6.354 -1.1842 -0.3054 -1.2106
34373SOL     OW 8056   3.923   3.335   0.801  0.0690 -0.6261 -0.5018
34373SOL    HW1 8057   3.988   3.282   0.755  1.3025  0.3099  0.0926
34373SOL    HW2 8058   3.904   3.407   0.741  1.0896  0.1659  0.0800
34374SOL     OW 8059   5.166  11.377   0.228  0.2543 -0.1577  0.5239
34374SOL    HW1 8060   5.164  11.473   0.228 -2.6528 -0.1082 -1.1616
34374SOL    HW2 8061   5.174  11.354   0.321  0.3649  1.7081  1.0322
34375SOL     OW 8062   8.660   1.042  10.233 -0.1486 -0.4906  0.2344
34375SOL    HW1 8063   8.668   1.066  10.141 -1.4775  1.7416  0.6243
34375SOL    HW2 8064   8.569   1.016  10.245 -0.0487 -0.5560  0.9443
34376SOL     OW 8065   5.722   8.357  10.532  0.7408 -0.2708  0.2726
34376SOL    HW1 8066   5.713   8.376  10.438 -1.4282  0.6440  0.6226
34376SOL    HW2 8067   5.811   8.387  10.553  0.6276  1.2202 -1.1302
34377SOL     OW 8068   9.106   8.922   7.370 -0.2667  0.3996 -0.3249
34377SOL    HW1 8069   9.141   8.845   7.414 -0.8590  0.0538 -0.4391
34377SOL    HW2 8070   9.163   8.935   7.294  1.4138  1.6373  1.0870
34378SOL     OW 8071   1.012   1.389   2.162  0.1219 -0.3039  0.4032
34378SOL    HW1 8072   1.022   1.381   2.067  2.2820 -0.6714  0.6318
34378SOL    HW2 8073   0.926   1.351   2.180  0.0851 -1.1106 -1.2925
34379SOL     OW 8074   3.103   5.799  10.077  0.0252 -0.2286  0.0743
34379SOL    HW1 8075   3.187   5.792  10.033  0.1522  1.8201 -0.1048
34379SOL    HW2 8076   3.118   5.762  10.164  0.9822 -0.2956 -0.1170
34380SOL     OW 8077  10.715   3.524   8.309  0.1595  0.6701 -0.1476
34380SOL    HW1 8078  10.773   3.464   8.356 -0.0298  0.1185 -0.6021
34380SOL    HW2 8079  10.769   3.557   8.237  0.6591  2.0150  0.7965
34381SOL     OW 8080  11.063   8.969  10.449  0.0806 -0.8086  0.6960
34381SOL    HW1 8081  11.113   8.932  10.376  0.1290  3.6736 -1.8866
34381SOL    HW2 8082  11.114   9.046  10.477 -2.2414  0.2769  2.3086
34382SOL     OW 8083   6.882   9.229   6.377  0.2978 -0.5434 -0.0329
34382SOL    HW1 8084   6.957   9.239   6.435 -0.7839 -0.1580  1.3817
34382SOL    HW2 8085   6.892   9.299   6.313 -0.2447  1.3334  1.8119
34383SOL     OW 8086   3.642   7.527  10.200 -0.0822 -0.1072 -0.0166
34383SOL    HW1 8087   3.594   7.607  10.222  0.0455  0.9547 -3.1834
34383SOL    HW2 8088   3.648   7.528  10.105  1.9916 -2.7270 -0.0126
34384SOL     OW 8089  11.681   4.978   9.412 -0.0840  0.5979  0.4933
34384SOL    HW1 8090  11.689   4.883   9.416  0.0624  0.4768 -1.4474
34384SOL    HW2 8091  11.719   5.002   9.327 -0.6129  2.3294  0.6919
34385SOL     OW 8092   4.759   2.283   7.581 -0.5620  0.0311 -0.1340
34385SOL    HW1 8093   4.783   2.375   7.595 -0.6025  0.3649 -2.0435
34385SOL    HW2 8094   4.842   2.236   7.581 -0.2945  0.4514 -1.6135
34386SOL     OW 8095   7.929   4.823   8.779  0.4297  0.0491 -0.0394
34386SOL    HW1 8096   7.934   4.821   8.874  0.2796  1.5914  0.0257
34386SOL    HW2 8097   7.838   4.799   8.760  0.7232 -1.3057  0.1179
34387SOL     OW 8098   8.988   0.461   9.102 -0.0872  0.0104  0.5409
34387SOL    HW1 8099   8.976   0.511   9.183  1.1882  1.2750 -0.0268
34387SOL    HW2 8100   8.944   0.377   9.119 -1.4722  0.9547  1.8479
34388SOL     OW 8101   4.113  10.736   8.790 -0.0311 -0.1563 -0.1975
34388SOL    HW1 8102   4.059  10.760   8.866 -2.0461  0.3183 -1.7038
34388SOL    HW2 8103   4.148  10.820   8.759  0.9341 -0.3709  0.2574
34389SOL     OW 8104   3.884   2.665   8.917  0.0468 -0.7699 -0.7215
34389SOL    HW1 8105   3.901   2.583   8.871  1.1730 -0.4569 -0.8764
34389SOL    HW2 8106   3.935   2.731   8.870 -0.1196 -0.1367 -0.0422
34390SOL     OW 8107   1.285   9.395   7.778 -0.1744 -0.5752 -0.3597
34390SOL    HW1 8108   1.346   9.469   7.780 -0.5790 -0.2441 -0.1322
34390SOL    HW2 8109   1.318   9.339   7.708  0.5641 -0.5467 -0.0430
34391SOL     OW 8110   4.111   6.036  10.245  0.2139 -0.2929  0.1858
34391SOL    HW1 8111   4.197   6.058  10.281  0.8270 -2.4375  0.2168
34391SOL    HW2 8112   4.130   6.007  10.155 -0.9882  2.6385 -1.1364
34392SOL     OW 8113   7.766   9.583   0.957  0.0942 -0.3255 -0.2355
34392SOL    HW1 8114   7.851   9.557   0.992 -0.3915 -0.5629  0.7991
34392SOL    HW2 8115   7.729   9.502   0.922  0.9279  0.0533 -2.1487
34393SOL     OW 8116   7.264   0.032   4.552  0.1247 -0.1209  0.5033
34393SOL    HW1 8117   7.202   0.056   4.482 -1.0873 -0.3831  1.4577
34393SOL    HW2 8118   7.309   0.114   4.572  0.3455  0.0050 -0.4372
34394SOL     OW 8119   9.607  11.517  11.569 -0.1959 -0.1969  0.0886
34394SOL    HW1 8120   9.626  11.506  11.476  0.7949 -0.4638  0.3120
34394SOL    HW2 8121   9.688  11.494  11.613 -0.6347 -0.0077  1.0230
34395SOL     OW 8122  11.491   2.939   3.162 -0.0140 -0.0781 -0.2282
34395SOL    HW1 8123  11.586   2.928   3.169  0.0101  0.4667  0.4557
34395SOL    HW2 8124  11.479   2.984   3.078  0.3093 -0.3808 -0.4417
34396SOL     OW 8125   6.127  10.249   7.952  0.3543  0.4228  0.7868
34396SOL    HW1 8126   6.122  10.299   8.033 -1.5738  0.8036  0.4860
34396SOL    HW2 8127   6.166  10.309   7.889  0.8059  0.5119  1.1449
34397SOL     OW 8128   2.224   8.058  11.011 -0.6501  0.6461 -0.7453
34397SOL    HW1 8129   2.178   7.993  11.064 -2.2400  1.2805 -1.3136
34397SOL    HW2 8130   2.317   8.041  11.030 -1.0220 -1.4638 -0.5085
34398SOL     OW 8131   1.519  10.136   0.652 -0.0719 -0.4653  0.2688
34398SOL    HW1 8132   1.519  10.217   0.601  1.2700 -2.3761 -3.0701
34398SOL    HW2 8133   1.428  10.106   0.649  0.0452 -0.7509 -1.5016
34399SOL     OW 8134   0.495   7.548   3.540  0.5358 -0.4423 -0.3384
34399SOL    HW1 8135   0.480   7.466   3.588  1.6404 -0.5937 -0.2183
34399SOL    HW2 8136   0.569   7.589   3.586 -1.6626  1.9960  1.3450
34400SOL     OW 8137   3.636   7.033  11.397  0.0267 -0.1602 -0.4045
34400SOL    HW1 8138   3.577   6.962  11.424  1.2795 -1.6878 -1.4643
34400SOL    HW2 8139   3.719   7.012  11.440  0.5753  0.3518 -1.1923
34401SOL     OW 8140   5.029   2.077   9.531 -0.4740 -0.1179  0.3591
34401SOL    HW1 8141   5.003   2.169   9.538 -1.3201 -0.3111 -0.1519
34401SOL    HW2 8142   4.950   2.032   9.499 -1.0497 -1.4945  3.3239
34402SOL     OW 8143   6.655   3.256   3.831 -0.4142 -0.2966  0.0478
34402SOL    HW1 8144   6.698   3.210   3.903 -1.0414 -0.0653  0.5827
34402SOL    HW2 8145   6.704   3.338   3.823  0.2957 -0.7661 -0.4737
34403SOL     OW 8146   1.476   6.243  10.395 -0.0265  0.2446 -0.1783
34403SOL    HW1 8147   1.469   6.326  10.441 -0.1552  0.3550 -0.3965
34403SOL    HW2 8148   1.453   6.264  10.304 -0.5696 -0.1291 -0.1313
34404SOL     OW 8149   7.100   0.968   6.342 -0.0468  0.0639 -0.7686
34404SOL    HW1 8150   7.031   1.014   6.389  0.6232  0.1937  0.1040
34404SOL    HW2 8151   7.132   0.903   6.404  1.1317  0.5157 -0.8822
34405SOL     OW 8152   9.012   0.907  11.600 -0.8857 -0.1132 -0.8943
34405SOL    HW1 8153   9.010   0.819  11.637 -1.2816  0.6422  0.9847
34405SOL    HW2 8154   8.950   0.957  11.653  1.3692  1.9805 -0.0489
34406SOL     OW 8155   0.825   9.707  10.221  0.5448 -0.3859  0.1837
34406SOL    HW1 8156   0.878   9.651  10.164 -2.5213 -1.6493 -1.7145
34406SOL    HW2 8157   0.767   9.647  10.267 -1.1746  0.9965 -0.0448
34407SOL     OW 8158   6.047   8.088   6.988 -0.4227 -0.7974  0.5164
34407SOL    HW1 8159   5.977   8.117   7.046 -1.3193 -0.6955 -0.5775
34407SOL    HW2 8160   6.044   7.993   6.993 -2.3525 -0.9166 -1.3941
34408SOL     OW 8161   6.728  10.072   1.200 -0.2407  0.2508  0.2475
34408SOL    HW1 8162   6.793  10.070   1.271 -0.1286  1.0072  0.1670
34408SOL    HW2 8163   6.779  10.052   1.122 -0.6282 -2.2422  0.5425
34409SOL     OW 8164   8.792  10.535   7.319 -0.0636 -0.2268  0.2154
34409SOL    HW1 8165   8.780  10.475   7.393  0.2934  2.0148  2.1979
34409SOL    HW2 8166   8.863  10.495   7.268  0.2679 -1.4165  1.5451
34410SOL     OW 8167   7.078  11.135  10.924  0.5941  0.3007  0.4451
34410SOL    HW1 8168   7.153  11.153  10.980  0.2986 -1.0625  1.3360
34410SOL    HW2 8169   7.002  11.151  10.980  0.2228  1.0446 -0.2519
34411SOL     OW 8170   8.942   1.315   2.942  0.2492  0.2193 -0.0816
34411SOL    HW1 8171   8.980   1.357   3.019  0.0472  1.6354 -0.7277
34411SOL    HW2 8172   8.875   1.376   2.912  0.7555 -0.0029 -1.7506
34412SOL     OW 8173   2.738  10.856   8.814  0.4566  0.1050 -0.0041
34412SOL    HW1 8174   2.723  10.793   8.883  0.8787  1.0150  0.9467
34412SOL    HW2 8175   2.780  10.806   8.744 -0.1668 -0.8654  0.2955
34413SOL     OW 8176   5.253   9.433   8.599  0.0487  0.1728 -0.6000
34413SOL    HW1 8177   5.316   9.505   8.606  0.5330 -0.1747 -1.3427
34413SOL    HW2 8178   5.260   9.403   8.508 -1.1941  0.1358 -0.7019
34414SOL     OW 8179   5.407  10.618   1.945 -0.4840  0.2676  0.4092
34414SOL    HW1 8180   5.403  10.558   1.871  0.2403 -0.2885  0.8112
34414SOL    HW2 8181   5.476  10.583   2.000 -2.8353 -0.9748  2.7959
34415SOL     OW 8182  10.405   6.445   1.668 -0.0216  0.1642  0.4521
34415SOL    HW1 8183  10.342   6.399   1.612 -0.3823  0.4040  0.6533
34415SOL    HW2 8184  10.467   6.378   1.695  0.0002 -0.0084 -0.0184
34416SOL     OW 8185   6.108   9.772   4.072 -0.0333 -0.2653  0.5439
34416SOL    HW1 8186   6.060   9.689   4.068 -1.2793  0.4680 -0.9733
34416SOL    HW2 8187   6.052   9.829   4.124 -1.0901  0.6977 -1.5101
34417SOL     OW 8188   4.722   6.481  10.364  0.2433  0.1404  0.1573
34417SOL    HW1 8189   4.700   6.472  10.271  1.9464 -0.2022 -0.2590
34417SOL    HW2 8190   4.815   6.460  10.368  0.0595 -0.4978  2.0617
34418SOL     OW 8191   5.323  11.285   9.764  0.6220  0.0567 -0.0063
34418SOL    HW1 8192   5.359  11.237   9.690  1.2084  0.4021  0.0509
34418SOL    HW2 8193   5.398  11.327   9.804 -0.0094  2.0552 -0.7882
34419SOL     OW 8194  11.284  11.192  11.201  0.7421  0.6777 -0.2449
34419SOL    HW1 8195  11.272  11.252  11.274  1.2489  0.3608  0.1056
34419SOL    HW2 8196  11.367  11.218  11.161  0.7679  0.4696 -0.3298
34420SOL     OW 8197  11.559   4.724   5.649 -0.5344 -0.1830 -0.0893
34420SOL    HW1 8198  11.486   4.662   5.641 -0.3898 -0.2381 -1.0338
34420SOL    HW2 8199  11.571   4.733   5.744 -0.0326 -2.2167  0.0888
34421SOL     OW 8200  10.642  10.376   6.306  0.4535 -0.2646  0.0085
34421SOL    HW1 8201  10.589  10.318   6.361  0.6532  1.1088  1.7415
34421SOL    HW2 8202  10.731  10.368   6.341  0.5522  0.7909  0.0202
34422SOL     OW 8203   2.304   5.559   0.786 -0.5026 -0.2156  0.1012
34422SOL    HW1 8204   2.213   5.585   0.770 -0.4878  0.0141  0.3814
34422SOL    HW2 8205   2.298   5.475   0.831 -0.5411 -1.0355 -1.3689
34423SOL     OW 8206   7.842   9.162   5.245 -0.3937  0.0717  0.0713
34423SOL    HW1 8207   7.819   9.229   5.309 -0.4980  0.5869 -0.4880
34423SOL    HW2 8208   7.926   9.191   5.209 -0.6586  0.1476 -0.4974
34424SOL     OW 8209   5.854   8.845   6.481 -0.0034 -0.1233  0.8046
34424SOL    HW1 8210   5.942   8.879   6.496  0.4443 -0.4181 -0.9355
34424SOL    HW2 8211   5.867   8.764   6.433 -1.2427  0.1677 -0.0817
34425SOL     OW 8212   9.472  10.350   6.433 -0.1987 -0.4774 -0.1691
34425SOL    HW1 8213   9.400  10.340   6.371 -1.3903 -0.2238  1.1366
34425SOL    HW2 8214   9.443  10.305   6.512 -0.1368  1.9323  1.3228
34426SOL     OW 8215   8.214  10.106   0.905  0.4222  0.3996 -0.3310
34426SOL    HW1 8216   8.152  10.124   0.835  0.2071  1.3225  0.0882
34426SOL    HW2 8217   8.261  10.188   0.918  1.3121 -0.1098 -0.2188
34427SOL     OW 8218   9.641   9.922   8.338 -0.3927 -0.1539 -0.0803
34427SOL    HW1 8219   9.722   9.884   8.304 -0.5548  0.2906 -1.0044
34427SOL    HW2 8220   9.581   9.848   8.348 -0.2793 -0.3162 -0.5949
34428SOL     OW 8221   1.717   7.547   0.398  0.1586 -0.2599  0.1268
34428SOL    HW1 8222   1.664   7.468   0.389  1.1634 -0.9952  0.4677
34428SOL    HW2 8223   1.666   7.603   0.457 -1.0032 -0.2305 -0.8616
34429SOL     OW 8224  10.924   3.802   2.373 -0.6019 -0.2691 -0.2975
34429SOL    HW1 8225  10.932   3.897   2.384 -0.5393 -0.4515  1.3682
34429SOL    HW2 8226  10.952   3.765   2.456  0.4297 -1.8286 -1.2879
34430SOL     OW 8227   2.461   6.130   5.231 -0.0732  0.0727 -0.1195
34430SOL    HW1 8228   2.472   6.185   5.154 -0.7734 -1.8720 -1.6916
34430SOL    HW2 8229   2.367   6.134   5.250 -0.0402 -0.1483  0.1047
34431SOL     OW 8230   4.028   8.892   6.467 -0.2859  0.2304  0.3230
34431SOL    HW1 8231   3.982   8.858   6.544 -0.7100  1.3133  0.5825
34431SOL    HW2 8232   4.092   8.954   6.502  1.5439 -1.3826 -0.0307
34432SOL     OW 8233   3.643   8.097   6.560 -0.2323  0.3322 -0.4214
34432SOL    HW1 8234   3.723   8.053   6.530  1.8191  2.9112  0.8136
34432SOL    HW2 8235   3.615   8.149   6.485  0.6851  1.2476 -0.1501
34433SOL     OW 8236   9.769   2.892   9.158 -1.0573  0.2835 -0.0299
34433SOL    HW1 8237   9.839   2.908   9.095 -1.9505 -0.0277 -1.1472
34433SOL    HW2 8238   9.688   2.909   9.109 -1.8365 -1.4480  0.5559
34434SOL     OW 8239   0.937   9.961   5.779  0.1782 -0.0548 -0.1077
34434SOL    HW1 8240   0.893   9.878   5.764  1.3863 -1.0382  1.3974
34434SOL    HW2 8241   0.878  10.010   5.835  0.5102 -0.9687  1.0965
34435SOL     OW 8242   6.053  11.028   6.044  0.1615  0.0390 -0.2817
34435SOL    HW1 8243   5.980  11.074   6.085  0.3744  2.2017 -2.1834
34435SOL    HW2 8244   6.117  11.015   6.115 -0.5150  1.4210  0.6049
34436SOL     OW 8245   6.262  10.116  11.156  0.1678 -0.0683  0.4411
34436SOL    HW1 8246   6.308  10.184  11.108 -1.1285 -0.8304 -2.0279
34436SOL    HW2 8247   6.184  10.160  11.191  0.1012  0.0556  0.1393
34437SOL     OW 8248   9.038   0.971   9.671  0.0458  0.1228 -0.0069
34437SOL    HW1 8249   8.948   0.999   9.654  0.2694  0.4370 -0.7122
34437SOL    HW2 8250   9.091   1.025   9.612  0.6530 -0.4123  0.0465
34438SOL     OW 8251   4.997   2.682   7.413  0.1637 -0.2754  0.5918
34438SOL    HW1 8252   5.089   2.657   7.420  0.1268 -0.6945 -0.4189
34438SOL    HW2 8253   4.952   2.604   7.381 -0.5645 -0.0987  1.1422
34439SOL     OW 8254   4.690   1.022   9.328  0.1581 -0.3621  0.2571
34439SOL    HW1 8255   4.743   1.098   9.351 -0.2023  0.1117 -0.4300
34439SOL    HW2 8256   4.732   0.986   9.250 -0.8890  0.4265 -0.7108
34440SOL     OW 8257  10.236  10.590   9.653  0.0667 -0.0020  0.1894
34440SOL    HW1 8258  10.148  10.553   9.648 -0.3497  0.6188  2.1684
34440SOL    HW2 8259  10.236  10.659   9.586 -0.9074 -0.0863  0.0772
34441SOL     OW 8260   0.681  11.387   1.274  0.5108 -0.5624 -0.2679
34441SOL    HW1 8261   0.691  11.292   1.279  2.8180 -0.4593 -1.4659
34441SOL    HW2 8262   0.714  11.419   1.358  1.4998 -0.7618 -0.5629
34442SOL     OW 8263   0.941   2.593   5.660  0.6155 -0.0734  0.3933
34442SOL    HW1 8264   0.886   2.618   5.586 -0.8748 -1.4465  0.9709
34442SOL    HW2 8265   1.019   2.646   5.651 -0.8540  2.0822 -0.3895
34443SOL     OW 8266   6.866  10.420  10.190  0.7155  0.4728  0.4414
34443SOL    HW1 8267   6.788  10.368  10.170  1.3690 -0.2877 -0.1684
34443SOL    HW2 8268   6.851  10.503  10.146  1.0528 -0.3199 -1.2445
34444SOL     OW 8269   6.083   6.905  10.099  0.0670 -0.0296 -0.1617
34444SOL    HW1 8270   6.112   6.980  10.151 -0.6009 -0.1264  0.3652
34444SOL    HW2 8271   6.107   6.828  10.152  2.7401 -0.3562 -1.6518
34445SOL     OW 8272   4.556   6.700   3.867 -0.1277  0.1335 -0.4464
34445SOL    HW1 8273   4.640   6.741   3.847 -1.0414  1.3204 -2.1005
34445SOL    HW2 8274   4.524   6.749   3.943  0.9691 -0.8516  0.7126
34446SOL     OW 8275   1.761   4.690  11.302  0.2749  0.5121  0.2344
34446SOL    HW1 8276   1.806   4.742  11.235 -1.3671 -0.5971 -1.8163
34446SOL    HW2 8277   1.769   4.743  11.382  1.4384  2.3657 -1.0242
34447SOL     OW 8278   1.708  10.611   1.546  0.3910  0.8279 -0.0236
34447SOL    HW1 8279   1.665  10.537   1.502  2.4618 -1.2150  1.1437
34447SOL    HW2 8280   1.658  10.688   1.518 -1.1545 -0.8479 -2.2713
34448SOL     OW 8281  10.856   6.594   6.028  0.1031 -0.4921  0.5102
34448SOL    HW1 8282  10.891   6.683   6.019  3.0727 -1.3345  2.3443
34448SOL    HW2 8283  10.847   6.564   5.937 -0.3004  1.4185 -0.1344
34449SOL     OW 8284  11.470   8.512   2.959 -0.0933 -0.1861 -0.1373
34449SOL    HW1 8285  11.509   8.516   2.872 -2.1104  0.3549 -1.0667
34449SOL    HW2 8286  11.439   8.422   2.968  1.9428 -0.8688  0.9478
34450SOL     OW 8287  10.412   8.731  10.196 -0.1365  0.5116 -0.7103
34450SOL    HW1 8288  10.486   8.672  10.207 -1.0018 -0.7066 -1.2621
34450SOL    HW2 8289  10.429   8.803  10.258  0.6359 -0.6023  0.4119
34451SOL     OW 8290  10.982  11.524   2.042 -0.2436 -0.1396 -0.8994
34451SOL    HW1 8291  10.986  11.526   1.946 -0.3335  0.4633 -0.8988
34451SOL    HW2 8292  10.889  11.536   2.062 -0.2807 -0.6636 -0.7391
34452SOL     OW 8293   0.530   4.126   0.090 -0.0609  0.1264 -0.6107
34452SOL    HW1 8294   0.621   4.138   0.063  1.1330  1.1893  3.1925
34452SOL    HW2 8295   0.481   4.193   0.042  0.9605 -0.8932 -3.2289
34453SOL     OW 8296   3.542   9.438   2.532  0.0693 -0.8001 -0.0462
34453SOL    HW1 8297   3.603   9.426   2.604  1.1237  3.3837  0.0500
34453SOL    HW2 8298   3.461   9.397   2.561  0.9002 -0.5914  2.8621
34454SOL     OW 8299   1.169   8.281   3.671 -0.0700 -0.2676 -0.0015
34454SOL    HW1 8300   1.217   8.199   3.655 -0.4122 -0.5478  0.3856
34454SOL    HW2 8301   1.083   8.265   3.632  0.2729  0.3821 -1.0552
34455SOL     OW 8302   3.451   4.045   8.674 -0.3317 -0.1878 -0.1334
34455SOL    HW1 8303   3.487   3.956   8.671 -1.4850 -0.8508  2.6335
34455SOL    HW2 8304   3.357   4.032   8.688 -0.3464  1.4475  1.5489
34456SOL     OW 8305   0.685  10.568   9.341  0.1861 -0.2619  0.0868
34456SOL    HW1 8306   0.675  10.479   9.375  0.5369 -0.1627  0.4529
34456SOL    HW2 8307   0.736  10.558   9.261 -0.6363 -0.4949 -0.4285
34457SOL     OW 8308   1.543   3.054   9.859 -0.1850 -0.3761  0.3250
34457SOL    HW1 8309   1.627   3.072   9.900  0.4698  3.0573 -2.0391
34457SOL    HW2 8310   1.486   3.023   9.930  2.1829  0.2512  2.6106
34458SOL     OW 8311   8.395   1.432   0.390  0.2353 -0.8301  0.3494
34458SOL    HW1 8312   8.430   1.353   0.351  0.4366 -1.0952  1.0474
34458SOL    HW2 8313   8.471   1.489   0.402  0.1316 -0.6371  0.0915
34459SOL     OW 8314   9.902   1.248  10.044  0.2977  0.0406  0.0307
34459SOL    HW1 8315   9.836   1.298   9.996 -1.5008 -1.2594  1.0419
34459SOL    HW2 8316   9.983   1.297  10.031 -1.0165  2.2122 -0.5058
34460SOL     OW 8317   2.392   8.574  11.298  1.0101 -0.4886  0.2061
34460SOL    HW1 8318   2.306   8.575  11.339  1.3349  0.1731  0.8952
34460SOL    HW2 8319   2.411   8.481  11.285 -0.1171 -0.6240 -0.6478
34461SOL     OW 8320   5.924   9.940   0.638 -0.3361 -0.3216  0.1726
34461SOL    HW1 8321   5.930   9.960   0.732 -0.6273 -1.4823  0.4588
34461SOL    HW2 8322   5.831   9.949   0.618 -0.2347  0.2073 -0.0815
34462SOL     OW 8323   4.741   0.492   1.225 -0.0935  0.6312  1.3038
34462SOL    HW1 8324   4.665   0.448   1.263 -1.0146  1.9015  0.9887
34462SOL    HW2 8325   4.808   0.424   1.221 -1.2039 -0.5246  1.5829
34463SOL     OW 8326   5.519   0.923   4.114  0.3555  0.0405 -0.1786
34463SOL    HW1 8327   5.448   0.878   4.069 -0.2660  0.8914 -0.0698
34463SOL    HW2 8328   5.584   0.855   4.132 -0.9760 -0.9932  0.8426
34464SOL     OW 8329   7.121   5.416   2.237  0.4194  0.5488 -0.1313
34464SOL    HW1 8330   7.031   5.445   2.220 -0.1506  0.5432  2.5062
34464SOL    HW2 8331   7.165   5.494   2.272  0.1884 -0.4447  2.5868
34465SOL     OW 8332   2.738   2.779   2.468 -0.2362 -0.1984  0.0891
34465SOL    HW1 8333   2.670   2.838   2.501  0.9716 -0.5964  3.6922
34465SOL    HW2 8334   2.714   2.693   2.501  0.7159 -0.8212 -0.7657
34466SOL     OW 8335   6.505   3.706  10.125  0.1761 -0.5347  0.4382
34466SOL    HW1 8336   6.574   3.652  10.087  1.7001  0.0892  2.1613
34466SOL    HW2 8337   6.425   3.656  10.111  0.5437 -0.3292 -3.5422
34467SOL     OW 8338   2.627   5.547   6.884 -0.1474  0.1998  0.1358
34467SOL    HW1 8339   2.641   5.623   6.828 -0.4553  1.8332  2.1403
34467SOL    HW2 8340   2.714   5.529   6.921  0.0864 -0.9603 -0.9228
34468SOL     OW 8341   6.058   2.257   0.741  0.0623  0.8199  0.4316
34468SOL    HW1 8342   6.104   2.177   0.716 -0.6961  0.9502 -1.5471
34468SOL    HW2 8343   6.118   2.328   0.718 -0.3767  0.9134 -0.4671
34469SOL     OW 8344  10.466   8.685   3.089 -0.3973 -0.2475  0.2168
34469SOL    HW1 8345  10.523   8.646   3.023 -1.2994 -2.2651  0.5528
34469SOL    HW2 8346  10.414   8.612   3.122  0.1375  0.5940  3.2933
34470SOL     OW 8347   6.705   0.741   3.177 -0.1296  0.1976  0.4061
34470SOL    HW1 8348   6.635   0.683   3.146 -1.8649  2.3569 -0.0478
34470SOL    HW2 8349   6.692   0.746   3.272  0.2918 -0.4697  0.5006
34471SOL     OW 8350   0.059   5.842   6.317  0.1756  0.7612 -0.7240
34471SOL    HW1 8351   0.066   5.747   6.328  0.7124  0.8427 -0.2580
34471SOL    HW2 8352   0.097   5.878   6.397  1.7253  1.3853 -1.6852
34472SOL     OW 8353   7.404   7.006  10.153  0.0064 -0.2795  0.2600
34472SOL    HW1 8354   7.310   6.989  10.155  0.2029 -1.7892 -1.3450
34472SOL    HW2 8355   7.440   6.934  10.102  1.8268  1.2242 -0.6817
34473SOL     OW 8356   8.299   6.007   2.990  0.3697  0.1399  1.1437
34473SOL    HW1 8357   8.209   6.038   2.996 -0.0528 -0.3345 -1.6049
34473SOL    HW2 8358   8.352   6.078   3.028 -0.9627  1.7749  0.0653
34474SOL     OW 8359   2.485   0.170   3.118 -0.0891 -0.4786  0.2790
34474SOL    HW1 8360   2.563   0.128   3.083 -0.1333  0.0884 -0.5169
34474SOL    HW2 8361   2.427   0.098   3.142  0.6372 -0.9008  0.7965
34475SOL     OW 8362   6.862   5.475   8.411 -0.1657  0.7523  0.1505
34475SOL    HW1 8363   6.927   5.541   8.434 -0.0619  0.8735 -0.4753
34475SOL    HW2 8364   6.889   5.443   8.324 -0.2883 -0.0197  0.3861
34476SOL     OW 8365   4.059   2.159   5.103  0.1241  0.2484 -0.9830
34476SOL    HW1 8366   4.129   2.199   5.052  0.4135  3.7276  1.7338
34476SOL    HW2 8367   3.979   2.182   5.056  0.5434  0.3887 -1.6441
34477SOL     OW 8368   9.420   1.837   0.138 -0.0991  0.6087  0.7897
34477SOL    HW1 8369   9.450   1.811   0.051 -1.5180 -0.1243  0.4807
34477SOL    HW2 8370   9.500   1.858   0.187  0.6882  1.9032 -0.9348
34478SOL     OW 8371   0.840   5.137   6.145 -0.3098 -0.0557 -0.6217
34478SOL    HW1 8372   0.755   5.169   6.174  0.1078 -0.0510  0.6428
34478SOL    HW2 8373   0.825   5.109   6.054 -1.4564  0.6730 -0.6785
34479SOL     OW 8374   4.317   6.263   2.261  0.1410  0.3673 -0.4335
34479SOL    HW1 8375   4.294   6.194   2.200  1.4633 -0.3305 -0.1922
34479SOL    HW2 8376   4.336   6.339   2.206 -1.8504  0.7332 -0.6679
34480SOL     OW 8377  11.523   4.620   7.198  0.2469 -0.2148  0.7888
34480SOL    HW1 8378  11.506   4.526   7.201 -0.1380 -0.1426  0.9830
34480SOL    HW2 8379  11.502   4.651   7.286  0.3223  0.0625  0.7103
34481SOL     OW 8380   5.257   0.035   7.947  0.3240 -0.2355 -0.3302
34481SOL    HW1 8381   5.314   0.020   7.871 -0.1359 -0.5925 -0.6121
34481SOL    HW2 8382   5.314   0.078   8.011  0.2718  1.7000 -1.5108
34482SOL     OW 8383   0.883   2.671  10.605  0.2520  0.1445  0.7081
34482SOL    HW1 8384   0.885   2.687  10.511  1.7610  1.4966  0.9276
34482SOL    HW2 8385   0.812   2.725  10.637 -1.3810 -1.5899  0.1875
34483SOL     OW 8386   5.978   0.673   5.780 -0.3334 -0.2594 -0.6712
34483SOL    HW1 8387   6.054   0.719   5.745 -0.7861 -0.4023 -1.9030
34483SOL    HW2 8388   6.012   0.588   5.807  0.2567  0.2973  0.3903
34484SOL     OW 8389   5.171   4.283   7.915 -0.5325 -0.1989 -0.5024
34484SOL    HW1 8390   5.171   4.315   7.825 -0.0357 -1.0651 -0.8211
34484SOL    HW2 8391   5.087   4.312   7.951 -0.3042  1.0267 -0.9222
34485SOL     OW 8392   9.485   6.733   5.699  0.1005  0.6207  0.1924
34485SOL    HW1 8393   9.435   6.804   5.658  0.6262  0.8072 -0.1370
34485SOL    HW2 8394   9.526   6.774   5.775 -0.5649  0.3688  0.6950
34486SOL     OW 8395   9.749   2.005   8.268 -0.5632  0.2438 -0.0277
34486SOL    HW1 8396   9.664   1.960   8.275  0.2198 -1.0864  1.8112
34486SOL    HW2 8397   9.786   1.976   8.185 -1.3178 -0.2443 -0.2000
34487SOL     OW 8398   0.471   3.044   2.123 -0.1326 -0.0122 -0.1968
34487SOL    HW1 8399   0.537   3.113   2.132 -0.6846  0.4010  0.9430
34487SOL    HW2 8400   0.490   3.003   2.039 -0.1517  1.9127 -1.2007
34488SOL     OW 8401   3.428  11.495   0.355 -0.3491 -0.0673  0.0237
34488SOL    HW1 8402   3.402  11.478   0.265  1.6178 -0.3611 -0.5545
34488SOL    HW2 8403   3.412  11.588   0.368 -0.0825  0.1153 -0.8660
34489SOL     OW 8404   9.841   7.590   2.592  0.3621  0.1517  0.0059
34489SOL    HW1 8405   9.765   7.617   2.644 -0.7505 -1.9536 -0.4173
34489SOL    HW2 8406   9.828   7.497   2.577  2.4413 -0.0213 -1.1250
34490SOL     OW 8407   7.008  10.748   5.399 -1.1306 -0.3510 -0.8421
34490SOL    HW1 8408   7.045  10.660   5.400  0.0053  0.0385  1.7629
34490SOL    HW2 8409   6.916  10.736   5.421 -0.5767 -0.8594  1.4921
34491SOL     OW 8410   1.339  11.675   8.095 -0.0248 -0.0159  0.4504
34491SOL    HW1 8411   1.374  11.712   8.176 -0.4925 -0.4438  0.8564
34491SOL    HW2 8412   1.322  11.751   8.039  2.4422  0.1625 -0.1515
34492SOL     OW 8413   8.124   8.842   7.831  0.4672  0.3352 -0.2572
34492SOL    HW1 8414   8.074   8.905   7.779  1.3920  1.3267  0.0202
34492SOL    HW2 8415   8.214   8.855   7.803  0.6740 -0.9027 -0.2092
34493SOL     OW 8416   5.601  10.827   3.199 -0.3281 -0.5802  0.0625
34493SOL    HW1 8417   5.628  10.852   3.288  0.0410 -2.0399  0.3905
34493SOL    HW2 8418   5.621  10.904   3.146 -0.1838  0.1807  1.1778
34494SOL     OW 8419   1.747   6.963   2.380  0.6754 -0.1903  0.3553
34494SOL    HW1 8420   1.827   6.932   2.337  1.2701  0.0684  1.2484
34494SOL    HW2 8421   1.685   6.977   2.308  1.9005  1.0256 -0.5070
34495SOL     OW 8422   0.753   8.237   8.870 -0.3633  0.2587 -0.7850
34495SOL    HW1 8423   0.807   8.313   8.889  0.6264 -0.6657  0.3256
34495SOL    HW2 8424   0.817   8.167   8.851 -1.1401 -0.8245  0.4265
34496SOL     OW 8425   6.525   3.713   7.762 -0.7305 -0.5159 -0.3177
34496SOL    HW1 8426   6.582   3.681   7.692 -0.4977 -3.1946  1.0021
34496SOL    HW2 8427   6.584   3.749   7.828 -0.8292  0.1055 -0.5582
34497SOL     OW 8428   2.612   7.564   1.354 -0.0751 -0.2542 -0.5856
34497SOL    HW1 8429   2.541   7.512   1.393  0.8843 -0.3956  1.0542
34497SOL    HW2 8430   2.691   7.511   1.368  0.7289  1.0366 -0.0369
34498SOL     OW 8431   9.579   7.117   9.035  0.4332  0.1414  0.2118
34498SOL    HW1 8432   9.601   7.168   8.957  0.5104  0.8769  0.6981
34498SOL    HW2 8433   9.624   7.163   9.107  1.1298 -1.0524  0.5605
34499SOL     OW 8434   8.178   2.136   4.275  0.3580  0.0782 -0.2180
34499SOL    HW1 8435   8.105   2.182   4.317  1.5722  2.1901 -0.2863
34499SOL    HW2 8436   8.229   2.101   4.348  1.2058  1.7474  0.0361
34500SOL     OW 8437   5.482   5.388   4.632 -0.3134  0.9943 -0.1160
34500SOL    HW1 8438   5.511   5.479   4.621  1.7079  0.2877 -1.0596
34500SOL    HW2 8439   5.507   5.366   4.721 -1.5788  1.5879  0.4120
34501SOL     OW 8440   1.900  10.028   8.674  0.1214 -0.2457 -0.3132
34501SOL    HW1 8441   1.914  10.122   8.663 -1.4453  0.1930  1.1412
34501SOL    HW2 8442   1.903  10.014   8.768  0.9877 -1.8047 -0.5328
34502SOL     OW 8443  11.586   9.603   1.862  0.6424 -0.6748  0.5373
34502SOL    HW1 8444  11.643   9.542   1.816  0.9224  1.1530 -1.7158
34502SOL    HW2 8445  11.644   9.672   1.894  0.0093 -0.1842  0.6472
34503SOL     OW 8446   0.137   7.402   0.011 -0.5645 -0.3678  0.1988
34503SOL    HW1 8447   0.197   7.341  -0.033 -2.5615 -2.3172 -0.0345
34503SOL    HW2 8448   0.050   7.371  -0.014 -1.7225  2.9404 -0.2954
34504SOL     OW 8449   7.025   6.866   7.354 -0.8873 -0.0377  0.0969
34504SOL    HW1 8450   7.025   6.819   7.271 -0.9299 -0.7767  0.5063
34504SOL    HW2 8451   6.934   6.891   7.368 -0.9891 -0.4828  0.2356
34505SOL     OW 8452   7.575  10.243   7.989  0.3728  0.2206 -0.1837
34505SOL    HW1 8453   7.644  10.191   8.032  1.0730  0.2223 -1.2477
34505SOL    HW2 8454   7.620  10.284   7.915 -1.0824 -0.9099 -1.7622
34506SOL     OW 8455   2.683   4.874   6.723  0.0052  0.4477 -0.5089
34506SOL    HW1 8456   2.599   4.834   6.699 -1.7135  2.4405  1.7207
34506SOL    HW2 8457   2.715   4.823   6.797  0.4821  0.0573 -0.9758
34507SOL     OW 8458   5.142  11.213   0.529  0.0235  0.1074  0.1945
34507SOL    HW1 8459   5.128  11.126   0.566  1.3679 -0.7981 -1.3052
34507SOL    HW2 8460   5.055  11.253   0.528 -0.6091 -1.1793  0.9525
34508SOL     OW 8461   4.991   4.191   6.779 -0.2886  0.8569  0.3136
34508SOL    HW1 8462   4.962   4.282   6.776 -1.1970  0.5588 -1.8231
34508SOL    HW2 8463   4.928   4.144   6.724  0.5408 -0.9699  0.8410
34509SOL     OW 8464   6.339   0.521   8.925 -0.3621 -0.4664  0.0488
34509SOL    HW1 8465   6.418   0.497   8.973 -0.7060 -0.5048  0.6063
34509SOL    HW2 8466   6.341   0.466   8.846 -0.8357 -1.9422  1.0258
34510SOL     OW 8467  11.235   7.370   3.385 -0.1723  0.4134  0.1760
34510SOL    HW1 8468  11.144   7.355   3.358 -0.4784  1.1419  0.7937
34510SOL    HW2 8469  11.269   7.433   3.322  0.3983 -0.9774 -0.9860
34511SOL     OW 8470   1.927   0.147   8.139  0.6848  0.9178 -0.2482
34511SOL    HW1 8471   1.882   0.090   8.078 -0.1145  2.5114 -1.2236
34511SOL    HW2 8472   1.861   0.170   8.204  1.2444  0.0528  0.6404
34512SOL     OW 8473   7.231   7.464   4.745 -0.7772  0.0978 -0.4036
34512SOL    HW1 8474   7.187   7.451   4.829  1.3902  0.3733  0.8602
34512SOL    HW2 8475   7.307   7.519   4.766 -0.5041  0.7025 -2.6708
34513SOL     OW 8476   2.618   2.889   1.380 -0.1775  0.0348  0.2891
34513SOL    HW1 8477   2.711   2.867   1.373 -0.2901 -0.0030 -1.3643
34513SOL    HW2 8478   2.617   2.984   1.395  0.1316  0.1176 -0.1860
34514SOL     OW 8479   2.761   6.539   0.586  0.0513 -0.0113 -0.0121
34514SOL    HW1 8480   2.739   6.456   0.543 -0.4235  0.6104 -1.0251
34514SOL    HW2 8481   2.831   6.517   0.647  1.3101 -0.8204 -1.6518
34515SOL     OW 8482   9.328   9.207   1.962  0.1941 -0.7473 -0.7508
34515SOL    HW1 8483   9.287   9.216   1.876 -0.0944 -0.8691 -0.6282
34515SOL    HW2 8484   9.283   9.272   2.016 -0.9277 -1.9308 -0.2163
34516SOL     OW 8485   2.625   7.602   2.053  0.3129  0.3732  0.1121
34516SOL    HW1 8486   2.580   7.521   2.075 -2.0651  0.7304 -2.7847
34516SOL    HW2 8487   2.598   7.663   2.122 -2.3760  0.0718 -0.5543
34517SOL     OW 8488   9.174  11.604   0.574 -0.2242 -0.3076  0.4199
34517SOL    HW1 8489   9.087  11.603   0.535  0.8045 -0.7518 -2.0164
34517SOL    HW2 8490   9.183  11.693   0.608 -1.4405 -0.1131  0.2818
34518SOL     OW 8491   9.652   4.815   4.440  1.1600 -0.2639  0.4813
34518SOL    HW1 8492   9.674   4.796   4.531  0.4701 -0.5890  0.5898
34518SOL    HW2 8493   9.705   4.891   4.417  0.5238  0.5103  1.5091
34519SOL     OW 8494  11.351   5.148   0.399  0.3199 -0.4600  0.3426
34519SOL    HW1 8495  11.355   5.184   0.488 -3.2307 -0.3215  0.5925
34519SOL    HW2 8496  11.265   5.106   0.394  0.8753 -1.5018 -2.6936
34520SOL     OW 8497   8.415   4.657   0.968  0.6537  0.2487 -0.1468
34520SOL    HW1 8498   8.396   4.568   0.998  0.1874  0.0956 -0.8721
34520SOL    HW2 8499   8.331   4.690   0.935  0.6430  1.2400  0.7828
34521SOL     OW 8500   1.843   0.461   6.965  0.3391 -0.2776 -0.2272
34521SOL    HW1 8501   1.762   0.416   6.987 -0.1353 -0.2171 -1.7665
34521SOL    HW2 8502   1.821   0.516   6.890  1.7752 -0.1967 -0.6196
34522SOL     OW 8503   9.544   9.641   5.708 -0.1010  0.0437 -0.5100
34522SOL    HW1 8504   9.547   9.736   5.697  0.2063  0.2228  0.9959
34522SOL    HW2 8505   9.451   9.622   5.724  0.0051  0.2403  0.3672
34523SOL     OW 8506   5.672  11.449  11.030 -0.2730  0.0698  0.3668
34523SOL    HW1 8507   5.762  11.417  11.038 -0.5463 -0.7992  0.0648
34523SOL    HW2 8508   5.658  11.501  11.109  1.6077  3.1190 -1.1156
34524SOL     OW 8509   9.818   7.644   1.525  0.4627  0.1995 -0.0823
34524SOL    HW1 8510   9.728   7.670   1.547 -0.2066 -1.8832 -0.1878
34524SOL    HW2 8511   9.863   7.727   1.508 -1.2742  1.3285  0.5482
34525SOL     OW 8512   6.588   9.067   6.902 -0.2001  0.4552 -0.1358
34525SOL    HW1 8513   6.503   9.025   6.915 -0.1068 -0.5505 -2.3248
34525SOL    HW2 8514   6.568   9.150   6.860 -0.1705  1.0029  0.9050
34526SOL     OW 8515   4.441  10.534   0.029 -0.2145  0.0687  0.1333
34526SOL    HW1 8516   4.485  10.497  -0.047  0.4528 -0.0469  0.5714
34526SOL    HW2 8517   4.348  10.532   0.006  0.0252  0.6655 -0.9546
34527SOL     OW 8518   7.506   3.344   0.281 -0.1940 -0.0980  0.4732
34527SOL    HW1 8519   7.516   3.378   0.192 -0.7057  0.1670  0.5156
34527SOL    HW2 8520   7.562   3.399   0.335  1.2961 -1.1916  0.1032
34528SOL     OW 8521   9.434   7.357   1.145 -0.3763 -0.1758  0.1834
34528SOL    HW1 8522   9.506   7.408   1.181  0.9391 -1.2436 -0.8732
34528SOL    HW2 8523   9.442   7.366   1.050 -3.1837  1.7604 -0.0120
34529SOL     OW 8524   8.716   8.182   2.852  0.0204  0.0873 -0.5943
34529SOL    HW1 8525   8.731   8.208   2.943  0.3598 -1.1240 -0.2909
34529SOL    HW2 8526   8.804   8.171   2.816 -0.1208  0.0073 -0.9131
34530SOL     OW 8527   8.215   1.469   6.953 -0.1605 -0.3617 -0.3533
34530SOL    HW1 8528   8.227   1.497   7.044 -0.6835 -0.5416 -0.2243
34530SOL    HW2 8529   8.286   1.511   6.905 -0.5492  0.6692 -0.0528
34531SOL     OW 8530   5.120   2.011  10.199  0.6933 -0.5989  0.1956
34531SOL    HW1 8531   5.067   2.091  10.197 -0.4878 -1.3528 -1.0033
34531SOL    HW2 8532   5.117   1.983  10.290 -0.3630 -0.2038  0.3083
34532SOL     OW 8533  10.680   2.768   3.517  0.0231  0.1838  0.8213
34532SOL    HW1 8534  10.655   2.854   3.483 -1.3105 -0.6647 -0.4856
34532SOL    HW2 8535  10.763   2.748   3.473 -0.8312 -0.1603 -0.7138
34533SOL     OW 8536   2.196   6.408   8.866  1.0909  0.3316  0.1626
34533SOL    HW1 8537   2.240   6.476   8.814  0.8070  0.0526 -0.4533
34533SOL    HW2 8538   2.256   6.334   8.865  0.4575 -0.1816 -0.9963
34534SOL     OW 8539   3.990   8.073   5.125 -0.2253  0.5578 -0.7791
34534SOL    HW1 8540   4.040   8.021   5.189 -1.3475 -0.3344 -0.5848
34534SOL    HW2 8541   3.967   8.010   5.056  0.9733  1.5032 -2.1057
34535SOL     OW 8542   6.298   9.659   2.605  0.4354 -0.3964 -0.2892
34535SOL    HW1 8543   6.308   9.671   2.700 -1.8707 -1.1160  0.1143
34535SOL    HW2 8544   6.253   9.575   2.596 -1.8756  0.8732 -1.8023
34536SOL     OW 8545   5.047   3.423  11.584  0.2476 -0.5379  0.8113
34536SOL    HW1 8546   5.085   3.349  11.632 -1.3954 -0.4179  2.4257
34536SOL    HW2 8547   5.104   3.497  11.605  0.5633 -0.8632  1.1220
34537SOL     OW 8548   5.657   6.389   7.005 -0.0713 -0.2722  0.4806
34537SOL    HW1 8549   5.733   6.342   6.971  0.5878  0.8974  0.2606
34537SOL    HW2 8550   5.687   6.480   7.012 -1.1317  0.0296  1.3810
34538SOL     OW 8551  11.011   6.700   9.053  0.1889  0.9197 -0.4442
34538SOL    HW1 8552  11.093   6.655   9.075 -0.3725  0.8016  1.6651
34538SOL    HW2 8553  11.035   6.793   9.048  0.2477  1.0908  1.7862
34539SOL     OW 8554   0.510   5.533   0.540  0.1442  0.2896  0.8912
34539SOL    HW1 8555   0.447   5.585   0.590  0.2286  0.8623  0.3975
34539SOL    HW2 8556   0.539   5.590   0.470 -1.0600 -0.9834 -0.7295
34540SOL     OW 8557   7.153   8.838   2.921  0.2942 -0.2159 -0.4827
34540SOL    HW1 8558   7.126   8.920   2.962  0.2899 -1.2066  1.6209
34540SOL    HW2 8559   7.072   8.787   2.912  0.0796  0.4218 -2.9677
34541SOL     OW 8560   5.733   4.193  10.936  0.2024  0.1892  0.2161
34541SOL    HW1 8561   5.654   4.141  10.919  0.8344 -0.3400 -1.2382
34541SOL    HW2 8562   5.713   4.280  10.903  0.0508  0.1914  0.3126
34542SOL     OW 8563   2.272   9.951   9.734 -0.1128 -0.2253 -0.3352
34542SOL    HW1 8564   2.200   9.919   9.789  1.0823 -1.3300  0.6467
34542SOL    HW2 8565   2.347   9.955   9.793  0.8414  0.0974 -1.5328
34543SOL     OW 8566   4.853  11.064   0.860 -0.3433 -0.9196  0.3714
34543SOL    HW1 8567   4.897  10.980   0.845  1.0956 -0.4078  1.4581
34543SOL    HW2 8568   4.834  11.097   0.772  1.3017 -1.2776 -0.1555
34544SOL     OW 8569   9.959   3.282   9.871  0.3435  0.2839 -0.0852
34544SOL    HW1 8570  10.000   3.308   9.954  0.4041  0.1488 -0.0732
34544SOL    HW2 8571  10.030   3.242   9.821 -0.1170 -1.4698  0.5777
34545SOL     OW 8572   2.213   0.686  10.710 -0.1788  0.1109 -0.3281
34545SOL    HW1 8573   2.199   0.671  10.616 -0.3492 -1.1705 -0.1160
34545SOL    HW2 8574   2.307   0.702  10.719 -0.0182 -0.6505 -0.6135
34546SOL     OW 8575   5.910   4.755   3.128  0.1066  0.2458  0.2293
34546SOL    HW1 8576   5.816   4.747   3.140  0.1877  0.8315  1.3711
34546SOL    HW2 8577   5.920   4.822   3.060 -0.2906  1.0211  0.9171
34547SOL     OW 8578   4.917   1.356   6.936  0.0583  0.4128  0.3397
34547SOL    HW1 8579   4.993   1.320   6.983 -0.4489 -1.0685  0.0571
34547SOL    HW2 8580   4.952   1.381   6.850  0.6095  1.5167  0.8550
34548SOL     OW 8581   4.353   0.232   5.634  0.2988 -0.0748 -0.0679
34548SOL    HW1 8582   4.342   0.252   5.727 -0.0759 -0.5172 -0.0114
34548SOL    HW2 8583   4.379   0.315   5.594 -1.5681  0.6368  0.0876
34549SOL     OW 8584   1.476  11.193   6.128  0.1298 -0.0765 -0.0418
34549SOL    HW1 8585   1.411  11.172   6.195  0.3852  0.3576  0.3520
34549SOL    HW2 8586   1.487  11.112   6.079 -1.1462 -0.0005 -0.4936
34550SOL     OW 8587   8.883   7.065   3.812 -0.2385 -0.3039 -0.1730
34550SOL    HW1 8588   8.793   7.034   3.806  0.0973 -0.9149 -3.3246
34550SOL    HW2 8589   8.875   7.155   3.845 -1.8122 -0.9229  1.2577
34551SOL     OW 8590   2.111  10.476  11.303 -0.9033  0.1182  0.6604
34551SOL    HW1 8591   2.039  10.538  11.291 -1.1662 -0.2377  0.4069
34551SOL    HW2 8592   2.069  10.390  11.309 -0.4092 -0.2477 -0.7931
34552SOL     OW 8593   5.146   5.025   0.342 -0.1748  0.3108  0.5370
34552SOL    HW1 8594   5.106   5.063   0.420  1.9528  1.0593  1.3330
34552SOL    HW2 8595   5.239   5.050   0.348  0.4501 -1.3879 -1.1599
34553SOL     OW 8596   4.545   8.890   9.444 -0.3703 -0.4544 -0.3714
34553SOL    HW1 8597   4.482   8.960   9.461  0.2148 -0.0508  0.1593
34553SOL    HW2 8598   4.608   8.928   9.382  0.8007  0.0102  1.0568
34554SOL     OW 8599   7.143   7.035   4.301 -0.2816  0.1837  0.4020
34554SOL    HW1 8600   7.186   6.963   4.255 -1.1389  1.5569 -2.8312
34554SOL    HW2 8601   7.214   7.096   4.323  0.0925 -0.2934  0.5162
34555SOL     OW 8602   3.267   3.738   1.852  0.0098 -0.2174  0.1806
34555SOL    HW1 8603   3.271   3.646   1.823  0.4416  0.5123 -2.3089
34555SOL    HW2 8604   3.343   3.748   1.910  0.7125 -1.1182 -0.5480
34556SOL     OW 8605   7.503   2.788  10.489  0.5175  0.4027 -0.1231
34556SOL    HW1 8606   7.428   2.762  10.542  1.0812 -1.0988 -0.0318
34556SOL    HW2 8607   7.467   2.801  10.401  0.0759  0.1582  0.0213
34557SOL     OW 8608   7.813   0.291   4.275  0.1638  0.2916  0.1221
34557SOL    HW1 8609   7.766   0.208   4.273  1.0160 -0.1832 -0.2330
34557SOL    HW2 8610   7.905   0.268   4.270  0.4168  1.2546  0.0814
34558SOL     OW 8611   7.965  10.833   7.660  0.6062  0.0785  0.2150
34558SOL    HW1 8612   7.949  10.806   7.569  0.3452  0.3879  0.1670
34558SOL    HW2 8613   8.000  10.755   7.702  2.3587  0.4058 -0.5663
34559SOL     OW 8614   2.283  11.136  10.679 -0.1278  0.5894  0.1520
34559SOL    HW1 8615   2.255  11.070  10.615 -1.9923  0.9459  0.5525
34559SOL    HW2 8616   2.366  11.102  10.712 -0.1621 -0.6567 -0.9327
34560SOL     OW 8617   4.132   4.614   5.159 -0.6158  0.3522 -0.5904
34560SOL    HW1 8618   4.160   4.670   5.086 -2.2531 -1.4250 -2.7507
34560SOL    HW2 8619   4.061   4.561   5.122  1.6444 -4.1244  0.7559
34561SOL     OW 8620   2.557   1.889  10.340  0.6228 -0.6578  0.1401
34561SOL    HW1 8621   2.483   1.897  10.399  1.0479  1.0634  0.4888
34561SOL    HW2 8622   2.518   1.894  10.252  0.3151  0.3158  0.3205
34562SOL     OW 8623   5.363  10.134   4.509  0.5861 -0.0928 -0.0893
34562SOL    HW1 8624   5.327  10.212   4.466  0.6853  0.1246  0.2189
34562SOL    HW2 8625   5.350  10.063   4.445  0.0963  0.0876 -0.1940
34563SOL     OW 8626   8.992   3.803   0.388  0.3845 -0.0496 -0.4248
34563SOL    HW1 8627   9.072   3.795   0.336 -0.4525 -0.2318 -1.7305
34563SOL    HW2 8628   8.926   3.830   0.325 -0.4629  0.6803  0.7543
34564SOL     OW 8629   9.285   3.737   8.207 -0.3263  0.2246  0.0419
34564SOL    HW1 8630   9.208   3.789   8.229  1.2510  1.3188  3.8800
34564SOL    HW2 8631   9.341   3.796   8.157 -0.1827  0.9611  1.0391
34565SOL     OW 8632   1.106   5.404   4.381 -0.1678  0.3380 -0.1041
34565SOL    HW1 8633   1.061   5.476   4.426 -0.9083 -0.2816  0.1616
34565SOL    HW2 8634   1.065   5.325   4.415  1.0864 -0.2541  0.0947
34566SOL     OW 8635   6.848   8.553   0.372 -0.2866 -0.9161  0.2500
34566SOL    HW1 8636   6.764   8.573   0.332 -1.0112 -2.2737  0.9967
34566SOL    HW2 8637   6.904   8.527   0.300 -0.2356  0.7696 -0.3523
34567SOL     OW 8638   1.576   9.151   1.561  0.0411 -0.6527  0.1834
34567SOL    HW1 8639   1.522   9.073   1.575  0.5651 -1.0214  0.1549
34567SOL    HW2 8640   1.561   9.205   1.639  0.4921 -1.2581  0.6888
34568SOL     OW 8641   2.354   9.784   1.155 -0.5966  0.1067  0.1104
34568SOL    HW1 8642   2.293   9.782   1.081  0.4251  2.5500 -0.8830
34568SOL    HW2 8643   2.398   9.699   1.151 -1.9124 -0.5780 -0.8603
34569SOL     OW 8644   6.319   5.134   9.233 -0.0234 -0.5529  0.4890
34569SOL    HW1 8645   6.339   5.066   9.169 -0.1260  0.7945 -1.0459
34569SOL    HW2 8646   6.224   5.147   9.226  0.1025  0.2982  0.1427
34570SOL     OW 8647   7.451   8.085  10.589 -0.6774 -0.2255  0.4001
34570SOL    HW1 8648   7.411   8.171  10.604 -1.3637 -0.4867  0.0927
34570SOL    HW2 8649   7.381   8.033  10.549 -1.2050 -1.7843  3.1260
34571SOL     OW 8650   3.418  10.900   7.827  0.4144  0.2263 -0.7450
34571SOL    HW1 8651   3.471  10.889   7.906 -1.5613 -1.5944  0.4333
34571SOL    HW2 8652   3.456  10.840   7.764  0.7202  0.1023 -0.4448
34572SOL     OW 8653  11.291  10.024   1.904 -0.0114 -0.6347  0.4417
34572SOL    HW1 8654  11.376  10.013   1.861 -1.1248 -0.4077 -1.9812
34572SOL    HW2 8655  11.294   9.965   1.979  2.3041 -0.5582  0.4770
34573SOL     OW 8656  10.765  10.490   3.491 -0.3384 -0.5462 -0.3224
34573SOL    HW1 8657  10.821  10.512   3.565  1.0264 -0.8529 -1.2361
34573SOL    HW2 8658  10.777  10.561   3.428 -0.2123 -1.0973 -0.9371
34574SOL     OW 8659   2.161   3.842   5.880 -0.1848 -0.4054 -0.2438
34574SOL    HW1 8660   2.090   3.849   5.816  0.6510  0.3528 -1.1074
34574SOL    HW2 8661   2.228   3.902   5.849  0.4181 -0.3248  1.1299
34575SOL     OW 8662   8.937   4.227   5.540 -0.3301 -0.1523  0.4111
34575SOL    HW1 8663   8.924   4.321   5.527  1.9909  0.1660  0.0840
34575SOL    HW2 8664   8.974   4.197   5.457  0.2994 -1.0690  1.0119
34576SOL     OW 8665   9.676   1.408   2.175 -0.5354  0.0156  0.0941
34576SOL    HW1 8666   9.767   1.388   2.151 -0.2517  0.5093  0.7183
34576SOL    HW2 8667   9.623   1.356   2.115  0.1620 -0.1673 -0.3711
34577SOL     OW 8668   2.875   9.520   9.136 -0.1769  0.7437  0.1042
34577SOL    HW1 8669   2.851   9.428   9.140  0.5231  0.5919  1.1761
34577SOL    HW2 8670   2.893   9.537   9.044  1.3382 -0.6292  0.1150
34578SOL     OW 8671   8.364  10.237   0.685 -0.5464  0.1152 -0.4392
34578SOL    HW1 8672   8.380  10.295   0.759  0.5707  1.2724 -1.5391
34578SOL    HW2 8673   8.269  10.234   0.677 -0.6646  0.5029  0.6032
34579SOL     OW 8674  10.170   8.158   5.747 -0.3071 -0.1444  0.0064
34579SOL    HW1 8675  10.126   8.120   5.823 -1.4650 -1.6028 -1.3173
34579SOL    HW2 8676  10.257   8.118   5.746 -0.4218 -0.4041  0.3335
34580SOL     OW 8677   9.717   6.964   3.888  0.1076 -0.0460 -1.0098
34580SOL    HW1 8678   9.676   6.950   3.973 -0.7335 -0.6532 -1.5004
34580SOL    HW2 8679   9.800   6.918   3.893 -0.5989 -1.3800 -1.0097
34581SOL     OW 8680   3.182   2.799   0.288 -0.4593  0.5732  0.5460
34581SOL    HW1 8681   3.102   2.828   0.244 -0.4764  1.0674  0.8919
34581SOL    HW2 8682   3.159   2.715   0.327 -0.2540 -0.2038 -0.9190
34582SOL     OW 8683   0.180   4.180   3.538  0.3810 -0.3096 -0.6343
34582SOL    HW1 8684   0.099   4.200   3.585  0.3538  0.6547 -1.0642
34582SOL    HW2 8685   0.232   4.128   3.600  0.3323  0.9019  0.4652
34583SOL     OW 8686  11.030   6.258   8.691 -0.0800  0.0348  0.4257
34583SOL    HW1 8687  10.956   6.310   8.660 -0.0386 -0.0144  0.2439
34583SOL    HW2 8688  11.018   6.172   8.650 -0.6473 -0.3871  1.4445
34584SOL     OW 8689   7.104  11.178  10.226 -0.4126  0.5738 -0.0377
34584SOL    HW1 8690   7.096  11.090  10.191  0.6764  0.2337  0.5333
34584SOL    HW2 8691   7.197  11.189  10.242 -0.3956  2.1908 -1.0055
34585SOL     OW 8692   5.916   8.802   5.413 -0.0113  0.0443 -0.7469
34585SOL    HW1 8693   5.903   8.870   5.479  1.4206  0.1112 -0.5119
34585SOL    HW2 8694   5.936   8.723   5.464 -0.1631 -0.2049 -1.0680
34586SOL     OW 8695   7.829   2.775   4.335  0.3984  0.6574  0.5299
34586SOL    HW1 8696   7.796   2.802   4.420  1.9701  2.9322  0.4922
34586SOL    HW2 8697   7.922   2.754   4.350  0.9485  1.9973 -0.7428
34587SOL     OW 8698   7.651   3.985   5.557  0.1678  0.3196 -0.0921
34587SOL    HW1 8699   7.711   3.925   5.601 -0.2633  0.4600  0.6861
34587SOL    HW2 8700   7.584   3.928   5.519  1.4020  0.0334 -2.0246
34588SOL     OW 8701   0.491   6.507   0.270 -0.1301  0.8974 -0.0757
34588SOL    HW1 8702   0.549   6.546   0.204  1.4445  0.7540  1.1446
34588SOL    HW2 8703   0.413   6.563   0.269  0.1199  1.2826 -1.5735
34589SOL     OW 8704   2.503   7.307   7.771  0.0807 -0.3785 -0.0068
34589SOL    HW1 8705   2.575   7.350   7.725  0.1062 -0.9243 -0.4777
34589SOL    HW2 8706   2.530   7.216   7.779 -1.1521 -0.8984 -1.4044
34590SOL     OW 8707   4.868   8.481   1.174 -1.0391 -0.0806 -0.0281
34590SOL    HW1 8708   4.834   8.420   1.239 -1.7869  0.5695  0.2018
34590SOL    HW2 8709   4.893   8.426   1.100 -1.3797 -0.6963  0.3094
34591SOL     OW 8710   7.900   1.336   9.253  0.1086  0.0112 -0.1718
34591SOL    HW1 8711   7.832   1.270   9.241  0.0328  0.2834 -1.3246
34591SOL    HW2 8712   7.860   1.403   9.308  0.9347 -1.9618  3.1043
34592SOL     OW 8713   8.406  11.586  10.019  0.1832 -0.2715  0.6521
34592SOL    HW1 8714   8.423  11.494  10.041  0.3562 -0.3534  0.1833
34592SOL    HW2 8715   8.417  11.633  10.102  0.5092 -0.6209  0.8080
34593SOL     OW 8716   5.035   8.786   5.414  0.4836 -0.4252 -0.8684
34593SOL    HW1 8717   5.129   8.771   5.414  0.7299  0.8533  0.5836
34593SOL    HW2 8718   5.008   8.768   5.505 -0.5382 -0.0735 -1.0911
34594SOL     OW 8719   2.640  11.442   2.011  0.4517 -0.3384  0.3108
34594SOL    HW1 8720   2.721  11.399   2.038  0.8700 -0.6485 -1.3081
34594SOL    HW2 8721   2.657  11.535   2.024  2.3724 -0.0808 -2.9770
34595SOL     OW 8722  10.123   7.972   2.144 -0.1912 -0.4710  0.0668
34595SOL    HW1 8723  10.147   8.064   2.156  0.7475 -0.8511  1.3379
34595SOL    HW2 8724  10.027   7.972   2.139 -0.1704  0.6345 -0.7183
34596SOL     OW 8725  11.018   5.383  10.113  0.3008 -0.0333 -0.0796
34596SOL    HW1 8726  11.075   5.392  10.036  0.2869 -0.8387 -0.1854
34596SOL    HW2 8727  11.066   5.428  10.183  0.8421 -0.2907 -0.2829
34597SOL     OW 8728  10.083   6.498   5.365 -0.2918  0.1043  0.3252
34597SOL    HW1 8729  10.061   6.486   5.457 -0.2878 -0.2555  0.2821
34597SOL    HW2 8730  10.000   6.520   5.322  0.2055  3.9568  0.9696
34598SOL     OW 8731   3.718   3.774   0.106  0.2713 -0.3932 -0.6850
34598SOL    HW1 8732   3.693   3.792   0.016 -1.2946 -1.2937 -0.4761
34598SOL    HW2 8733   3.716   3.679   0.113  0.2902 -0.3370  0.3074
34599SOL     OW 8734   6.790   8.859   3.597  0.2661 -0.5769  0.1212
34599SOL    HW1 8735   6.707   8.900   3.620  1.4598  2.1667 -0.0842
34599SOL    HW2 8736   6.772   8.813   3.514 -0.2821  3.0669 -1.9875
34600SOL     OW 8737   7.620   8.735   2.682  0.1641  0.3042  0.4727
34600SOL    HW1 8738   7.648   8.817   2.643 -3.0339  1.8029  1.0027
34600SOL    HW2 8739   7.545   8.758   2.738 -0.0123 -2.7734  1.7673
34601SOL     OW 8740   7.224   7.001   3.120 -0.1438  0.1881  0.2197
34601SOL    HW1 8741   7.179   6.917   3.127 -0.8069  0.3237 -1.9548
34601SOL    HW2 8742   7.158   7.066   3.144 -0.2798  0.2228 -0.2511
34602SOL     OW 8743   5.174   3.912  11.288  0.3152 -0.3457  0.0537
34602SOL    HW1 8744   5.147   3.881  11.374  1.9079 -1.0326  0.3427
34602SOL    HW2 8745   5.263   3.944  11.300  0.1810  0.5576 -1.1235
34603SOL     OW 8746  10.529   2.044   1.419 -0.0855  0.6612  0.0220
34603SOL    HW1 8747  10.576   2.061   1.500 -0.3327 -1.6370  0.7170
34603SOL    HW2 8748  10.524   1.949   1.413 -3.2563  0.7575 -0.7991
34604SOL     OW 8749   1.631  11.092   4.692 -0.0501  0.1501 -0.0984
34604SOL    HW1 8750   1.666  11.057   4.610  0.5363  0.5253 -0.0138
34604SOL    HW2 8751   1.702  11.080   4.756 -0.0706  0.9041  0.0810
34605SOL     OW 8752   7.016   4.258   0.491 -0.3880 -0.3217  0.5771
34605SOL    HW1 8753   6.940   4.204   0.513 -0.7791  0.5827  1.5211
34605SOL    HW2 8754   7.048   4.291   0.575  1.0336 -0.6356  0.1946
34606SOL     OW 8755   2.228   5.682   8.799 -0.0775 -0.2980  0.3667
34606SOL    HW1 8756   2.224   5.643   8.886  0.1728 -0.9000  0.1128
34606SOL    HW2 8757   2.140   5.669   8.763 -0.2129  0.0503  0.5712
34607SOL     OW 8758   7.810   4.877   2.669  0.6083  0.3826 -0.4729
34607SOL    HW1 8759   7.889   4.898   2.719  1.0570 -0.7372 -0.6801
34607SOL    HW2 8760   7.825   4.916   2.583  0.5953  0.8246 -0.2777
34608SOL     OW 8761   1.721   4.137   6.406  0.8353 -0.1442 -0.2139
34608SOL    HW1 8762   1.731   4.103   6.495  0.6344 -0.1404 -0.1883
34608SOL    HW2 8763   1.774   4.079   6.352  0.6502 -0.3814 -0.1434
34609SOL     OW 8764   7.939   2.534   4.636  0.1414  0.1398 -0.0945
34609SOL    HW1 8765   8.027   2.496   4.644 -0.3898 -1.0380  0.3467
34609SOL    HW2 8766   7.954   2.629   4.631  1.4186 -0.0320  0.1694
34610SOL     OW 8767   3.021   0.488   4.176  0.8180 -0.0444 -0.6287
34610SOL    HW1 8768   3.078   0.415   4.154  1.4150  1.1935 -3.6365
34610SOL    HW2 8769   2.947   0.448   4.222  1.7258 -2.3481 -1.0566
34611SOL     OW 8770   4.894   8.635   1.929  0.2803  0.2869 -0.1896
34611SOL    HW1 8771   4.875   8.575   1.856 -0.3355  0.7591 -0.4274
34611SOL    HW2 8772   4.845   8.714   1.908  0.5499  0.6341  0.4631
34612SOL     OW 8773   1.454   4.091   6.837  0.9605  0.2013 -0.5848
34612SOL    HW1 8774   1.497   4.108   6.921  1.7804  0.4347 -1.0432
34612SOL    HW2 8775   1.494   4.010   6.806  1.5855  0.7866 -1.3433
34613SOL     OW 8776   1.610   2.481   7.893 -0.0849  0.4922  0.2443
34613SOL    HW1 8777   1.608   2.416   7.824  0.9075  1.4060 -0.6777
34613SOL    HW2 8778   1.549   2.448   7.960  0.4389 -1.3721 -0.1681
34614SOL     OW 8779  10.411   8.197   2.540  0.3140  0.0592 -0.5455
34614SOL    HW1 8780  10.339   8.246   2.501 -1.0754 -0.0916  1.6532
34614SOL    HW2 8781  10.416   8.116   2.489 -0.5783  0.4043 -1.2093
34615SOL     OW 8782   2.475   1.546   6.097  0.6443 -0.3470  0.5995
34615SOL    HW1 8783   2.431   1.561   6.013  2.4610 -0.9360 -0.5121
34615SOL    HW2 8784   2.443   1.616   6.153  1.7652  2.0717 -1.5583
34616SOL     OW 8785   9.189   5.267   4.492 -0.4657 -0.2432 -0.3480
34616SOL    HW1 8786   9.123   5.330   4.464  1.2818  0.7857 -2.4359
34616SOL    HW2 8787   9.254   5.320   4.539  0.9354 -0.4515 -1.9706
34617SOL     OW 8788   2.154   0.389  10.265  0.0109 -0.3956 -0.2325
34617SOL    HW1 8789   2.138   0.299  10.293  2.0904 -0.6323  0.3076
34617SOL    HW2 8790   2.236   0.385  10.217 -1.0069  0.8616 -2.1999
34618SOL     OW 8791   1.520   9.128   7.182 -0.5291  0.1954  0.1919
34618SOL    HW1 8792   1.572   9.071   7.239  1.1640  2.8278  1.4317
34618SOL    HW2 8793   1.536   9.094   7.094  1.1153 -0.7366  0.8001
34619SOL     OW 8794   6.459   5.374   2.507  0.2239  0.0035  0.1261
34619SOL    HW1 8795   6.488   5.451   2.555 -1.7577  1.6800 -1.1782
34619SOL    HW2 8796   6.364   5.385   2.498  0.1425 -1.5698 -1.8042
34620SOL     OW 8797   7.984   8.868  10.968  0.1188  0.0791  0.0791
34620SOL    HW1 8798   7.925   8.827  11.032  1.9196 -2.2072  0.3960
34620SOL    HW2 8799   8.005   8.798  10.907  2.0865  0.9646 -0.3134
34621SOL     OW 8800   4.711   9.170   7.491  0.3551 -0.4709 -0.3099
34621SOL    HW1 8801   4.742   9.220   7.416  0.3978  0.3124  0.2196
34621SOL    HW2 8802   4.668   9.094   7.453 -1.3611  0.8796 -1.2084
34622SOL     OW 8803   3.976   6.956   3.792  0.0098 -0.2343  0.1502
34622SOL    HW1 8804   4.012   6.985   3.708  1.6297  0.1907  0.9546
34622SOL    HW2 8805   3.884   6.983   3.789  0.4371  1.2491 -0.8320
34623SOL     OW 8806   7.473   1.391   6.941 -0.1023  0.0960  0.3871
34623SOL    HW1 8807   7.540   1.322   6.948  0.4190  0.5869  0.3140
34623SOL    HW2 8808   7.439   1.381   6.852  1.9165  1.6395 -0.6686
34624SOL     OW 8809   0.702   7.734   9.651 -0.2121  0.1139 -0.2999
34624SOL    HW1 8810   0.768   7.776   9.596  0.7712 -0.7785  0.1712
34624SOL    HW2 8811   0.666   7.805   9.703  1.7984  0.3627  0.8665
34625SOL     OW 8812   3.578   1.215   6.987  0.1589 -0.4900 -0.2375
34625SOL    HW1 8813   3.581   1.124   6.958 -2.3512 -0.9827  0.7867
34625SOL    HW2 8814   3.591   1.266   6.907 -2.6295 -1.7919 -1.6844
34626SOL     OW 8815   6.068   8.344   5.994  0.4482  0.4423  0.0532
34626SOL    HW1 8816   5.992   8.388   6.032 -0.3732 -0.2263 -0.7637
34626SOL    HW2 8817   6.041   8.322   5.905  1.6438  0.2819 -0.2933
34627SOL     OW 8818   2.032   2.209   4.078 -0.7010  0.4925 -0.0309
34627SOL    HW1 8819   2.043   2.301   4.099  0.8926  0.3009  0.1262
34627SOL    HW2 8820   1.960   2.179   4.134 -0.5298  1.3953  0.6887
34628SOL     OW 8821   6.732   5.808   0.830  0.2575 -0.0831 -0.1279
34628SOL    HW1 8822   6.803   5.856   0.873 -0.6645  0.0217  1.3720
34628SOL    HW2 8823   6.671   5.876   0.801 -1.5514 -0.2082  2.8900
34629SOL     OW 8824   1.787   5.255   1.367 -0.3111  0.0643 -0.1516
34629SOL    HW1 8825   1.773   5.347   1.345  0.6229  0.6109  1.3891
34629SOL    HW2 8826   1.873   5.234   1.331 -0.0161  0.1426  0.4956
34630SOL     OW 8827   5.420   4.746   9.389 -0.7664 -0.1268  0.3602
34630SOL    HW1 8828   5.442   4.839   9.390 -1.1608 -0.0281  0.1432
34630SOL    HW2 8829   5.448   4.715   9.302  0.9397 -0.6095  1.0416
34631SOL     OW 8830   6.864   1.624   9.537 -0.3442 -0.5643 -0.0588
34631SOL    HW1 8831   6.769   1.625   9.523 -0.3844  0.2849  0.2153
34631SOL    HW2 8832   6.881   1.700   9.593  0.5821 -0.2585 -0.7206
34632SOL     OW 8833   1.959  11.331   2.577  0.3360  0.2246  0.5691
34632SOL    HW1 8834   2.022  11.290   2.517  0.3591 -0.7821  1.2651
34632SOL    HW2 8835   1.941  11.417   2.537  0.4699 -0.3487 -0.8009
34633SOL     OW 8836   4.798   0.875   5.057 -0.5000  0.2873  0.7426
34633SOL    HW1 8837   4.762   0.898   4.972 -1.2666 -0.5883  0.8098
34633SOL    HW2 8838   4.792   0.956   5.108  0.3690  0.9321 -0.1471
34634SOL     OW 8839   6.942   8.621   8.049 -0.0619 -0.0458 -0.3078
34634SOL    HW1 8840   6.876   8.631   8.118  0.4230  0.6826  0.0697
34634SOL    HW2 8841   6.952   8.527   8.038  0.2804 -0.1893  1.0520
34635SOL     OW 8842   1.256   5.274   4.741  1.0655 -0.2111  0.1142
34635SOL    HW1 8843   1.287   5.285   4.831 -0.2961  2.0731  0.3793
34635SOL    HW2 8844   1.161   5.265   4.749  1.0844 -1.7883 -1.0111
34636SOL     OW 8845   4.195   0.313  11.109  0.1485 -0.6112 -0.0852
34636SOL    HW1 8846   4.147   0.353  11.181 -0.2266 -1.5325  0.1943
34636SOL    HW2 8847   4.258   0.255  11.151  1.1265  0.1442 -0.4664
34637SOL     OW 8848   4.693   3.009   2.147  0.8337 -0.4006  0.8208
34637SOL    HW1 8849   4.730   2.922   2.129  1.9315  0.2338 -0.1753
34637SOL    HW2 8850   4.645   3.031   2.067 -1.3205 -0.9704  1.8855
34638SOL     OW 8851   9.733   5.011   7.366 -0.2692  1.1407  0.4099
34638SOL    HW1 8852   9.665   5.065   7.407 -1.6821 -0.0050 -0.3031
34638SOL    HW2 8853   9.746   4.938   7.426 -2.3287 -0.5303 -1.0109
34639SOL     OW 8854   1.976   1.883   9.168  0.0922  0.3744  0.0109
34639SOL    HW1 8855   1.996   1.807   9.224  1.6322  0.9118  0.2462
34639SOL    HW2 8856   1.987   1.850   9.079  2.0072  0.5868  0.1270
34640SOL     OW 8857   3.087   9.263   7.323  0.0532 -0.2857 -0.2558
34640SOL    HW1 8858   3.127   9.311   7.251  0.3012  0.8415  0.5993
34640SOL    HW2 8859   3.117   9.173   7.312  0.0751 -0.1368 -1.5543
34641SOL     OW 8860   3.105  10.367   9.051 -0.3841  0.6287  0.3278
34641SOL    HW1 8861   3.037  10.329   9.108 -0.4281 -1.5189 -1.0274
34641SOL    HW2 8862   3.157  10.422   9.109 -1.8323  0.3853  1.9294
34642SOL     OW 8863   4.497   0.664   7.575 -0.0360 -0.2601  0.2424
34642SOL    HW1 8864   4.460   0.576   7.567  0.0468 -0.5390  2.4043
34642SOL    HW2 8865   4.465   0.711   7.498 -1.6701 -1.6189  0.0482
34643SOL     OW 8866  11.350   9.377  11.211 -0.0728 -0.3069  0.4498
34643SOL    HW1 8867  11.289   9.318  11.255 -0.2955  0.5167  1.2912
34643SOL    HW2 8868  11.402   9.415  11.282  0.3871  0.1447 -0.1184
34644SOL     OW 8869   6.512   1.151   3.697 -0.2972 -0.3371  0.8742
34644SOL    HW1 8870   6.510   1.058   3.674 -0.9162 -0.0545 -0.2708
34644SOL    HW2 8871   6.442   1.162   3.761  0.6016 -0.8822  1.9953
34645SOL     OW 8872   6.011   9.698   2.934  0.6219  0.0125  0.7420
34645SOL    HW1 8873   5.979   9.616   2.896 -0.5607 -0.2118  2.1258
34645SOL    HW2 8874   6.090   9.673   2.981 -0.5814 -0.7127  2.4893
34646SOL     OW 8875   1.670   3.941   2.821  0.3868  0.1664  0.5291
34646SOL    HW1 8876   1.675   3.983   2.906  0.0618 -0.2136  0.7411
34646SOL    HW2 8877   1.598   3.985   2.776 -1.4007 -1.5197  1.5464
34647SOL     OW 8878   6.172   5.651   0.047 -0.5306  0.3451  0.2010
34647SOL    HW1 8879   6.267   5.651   0.036 -0.5982  1.7085 -0.6254
34647SOL    HW2 8880   6.139   5.689  -0.035 -1.7967 -0.2482  0.4153
34648SOL     OW 8881   3.746   7.096   1.097 -0.1023  0.1066 -0.5766
34648SOL    HW1 8882   3.710   7.148   1.025  0.3543 -0.2138 -1.0421
34648SOL    HW2 8883   3.693   7.017   1.098  0.0410  0.0087 -0.7115
34649SOL     OW 8884   3.160   7.678   1.448  0.5679 -0.0398 -0.1295
34649SOL    HW1 8885   3.252   7.652   1.448  0.4272 -0.6547  1.3940
34649SOL    HW2 8886   3.113   7.600   1.478 -0.1484  1.0867  1.8810
34650SOL     OW 8887   9.749   8.051   1.237 -0.6312 -0.3764  0.2441
34650SOL    HW1 8888   9.826   7.999   1.216 -1.4891 -1.6950  0.2570
34650SOL    HW2 8889   9.759   8.131   1.185  1.7274  0.4259  1.7706
34651SOL     OW 8890   0.652   4.730  11.145 -0.0728  0.0733 -0.0137
34651SOL    HW1 8891   0.582   4.723  11.080 -0.1292  0.6595 -0.0161
34651SOL    HW2 8892   0.646   4.819  11.179  0.1769 -0.1149  0.5503
34652SOL     OW 8893   1.826   2.959   7.837  0.3985 -0.1182 -0.3073
34652SOL    HW1 8894   1.904   2.910   7.811  0.5027  0.5780 -1.3527
34652SOL    HW2 8895   1.800   3.007   7.758 -2.3149 -1.9143 -0.6645
34653SOL     OW 8896   2.191   4.003   7.835 -0.0818 -0.3561 -0.0263
34653SOL    HW1 8897   2.257   3.955   7.785  0.0977  0.1553 -0.2911
34653SOL    HW2 8898   2.123   3.938   7.855  0.3715 -0.8207  0.0140
34654SOL     OW 8899   8.167   2.939   7.153 -0.6370 -0.1042 -0.2623
34654SOL    HW1 8900   8.154   3.030   7.124  1.3230  0.9839  2.0058
34654SOL    HW2 8901   8.137   2.938   7.244  0.8766 -1.3004  0.2548
34655SOL     OW 8902   6.436   0.510  10.679 -0.0293  0.4730  0.2097
34655SOL    HW1 8903   6.409   0.446  10.744 -2.0656  1.1835  0.1344
34655SOL    HW2 8904   6.354   0.538  10.638  1.1697 -0.2287 -2.9616
34656SOL     OW 8905   7.965  11.623  11.328 -0.1043 -0.1767  0.0167
34656SOL    HW1 8906   7.976  11.717  11.339 -0.4257  0.0273 -1.2427
34656SOL    HW2 8907   7.997  11.605  11.239 -3.5029 -0.6298 -1.2388
34657SOL     OW 8908   3.941  10.536   5.700 -0.0877 -0.0146  0.1496
34657SOL    HW1 8909   3.879  10.504   5.766 -0.9550  0.1063 -0.6007
34657SOL    HW2 8910   3.949  10.629   5.718 -0.8479  0.1496 -0.3297
34658SOL     OW 8911   7.503   2.135   3.393  0.2959 -0.4288 -0.0853
34658SOL    HW1 8912   7.412   2.154   3.369  0.0901  1.4497  1.8458
34658SOL    HW2 8913   7.552   2.213   3.368  0.8940 -0.3856  1.1222
34659SOL     OW 8914  10.752  11.189   0.119 -0.4517 -0.2171  0.1860
34659SOL    HW1 8915  10.809  11.195   0.195 -1.4133  0.1647  0.8947
34659SOL    HW2 8916  10.666  11.170   0.155 -1.2446  1.5281 -0.6550
34660SOL     OW 8917   8.850   0.109   0.407 -0.1873  0.2361  0.4131
34660SOL    HW1 8918   8.906   0.186   0.422  0.7950 -0.4140  0.2061
34660SOL    HW2 8919   8.883   0.044   0.468  1.1109 -1.0653 -1.5541
34661SOL     OW 8920   1.370   6.348   9.414  0.7775 -0.4104 -0.2352
34661SOL    HW1 8921   1.457   6.349   9.373  1.8353  0.2692  1.8962
34661SOL    HW2 8922   1.386   6.324   9.505 -1.3174 -0.5153  0.1643
34662SOL     OW 8923   6.877   0.998   4.295 -1.0116  0.0337 -0.6006
34662SOL    HW1 8924   6.929   1.043   4.362 -1.8496  0.2197 -0.0543
34662SOL    HW2 8925   6.788   0.997   4.330 -1.1468 -1.4979 -0.8782
34663SOL     OW 8926  10.826   8.565   6.762  0.2201 -0.1603  0.4600
34663SOL    HW1 8927  10.840   8.556   6.856  1.2586  2.7550  0.6819
34663SOL    HW2 8928  10.747   8.618   6.754 -0.8454 -1.7890 -0.4171
34664SOL     OW 8929   1.607   6.302   7.424  0.0147  0.2772  0.0443
34664SOL    HW1 8930   1.526   6.339   7.387  0.0861  1.5476  1.0656
34664SOL    HW2 8931   1.617   6.218   7.380 -0.6888  1.0481 -1.6935
34665SOL     OW 8932   8.013   9.045  10.547 -0.3064 -0.5024  0.5365
34665SOL    HW1 8933   8.018   8.964  10.496  0.6592 -0.2223  0.1607
34665SOL    HW2 8934   7.925   9.045  10.583 -0.6019 -1.3047 -0.1511
34666SOL     OW 8935   2.091   7.298   0.473  0.0504  0.1061  0.0711
34666SOL    HW1 8936   2.099   7.220   0.528 -2.5512 -0.7836 -0.6764
34666SOL    HW2 8937   2.061   7.366   0.534 -1.4195 -0.5097  0.0870
34667SOL     OW 8938  11.304   4.041  10.896  0.1099 -0.0006 -0.0671
34667SOL    HW1 8939  11.380   3.986  10.880 -0.6516 -0.6486 -1.6394
34667SOL    HW2 8940  11.338   4.115  10.947  1.7518 -0.3483 -0.6000
34668SOL     OW 8941   6.752   8.139  10.264  0.1010 -0.5461 -0.0768
34668SOL    HW1 8942   6.839   8.100  10.265 -1.1115 -3.5659 -1.5650
34668SOL    HW2 8943   6.728   8.144  10.172 -1.9344 -1.4274  0.3415
34669SOL     OW 8944   5.830   3.253   8.483 -0.5489 -0.0432  0.1532
34669SOL    HW1 8945   5.895   3.287   8.545  1.0177 -1.1107 -0.8308
34669SOL    HW2 8946   5.749   3.247   8.534  0.5327 -0.2935  1.9234
34670SOL     OW 8947  10.814  10.035   1.573 -0.1734 -0.0671 -0.5900
34670SOL    HW1 8948  10.818  10.106   1.509 -0.4697  0.4542 -0.0391
34670SOL    HW2 8949  10.785  10.077   1.654  2.3457 -0.2973  0.5159
34671SOL     OW 8950   4.109  11.175   5.273  0.7745  0.0782  0.0582
34671SOL    HW1 8951   4.146  11.182   5.185  1.6048 -0.6522  0.3311
34671SOL    HW2 8952   4.152  11.098   5.311  0.8463  0.6903  1.2891
34672SOL     OW 8953   2.640   2.856   8.563  0.6509  0.0544 -0.1173
34672SOL    HW1 8954   2.561   2.827   8.517  0.4778  1.0212 -0.4384
34672SOL    HW2 8955   2.630   2.821   8.651 -0.1824  0.2385 -0.1321
34673SOL     OW 8956   2.982   5.911   7.965 -0.7126  0.0781 -0.2193
34673SOL    HW1 8957   2.985   5.905   8.060 -0.5406 -0.5566 -0.2565
34673SOL    HW2 8958   3.025   5.994   7.944  1.4656 -0.8827  0.1364
34674SOL     OW 8959   1.625  10.046   6.639 -0.4313 -0.3074 -1.0281
34674SOL    HW1 8960   1.616  10.094   6.557 -1.1490  0.6536 -0.4161
34674SOL    HW2 8961   1.574  10.098   6.702  1.4518 -0.1149  0.4156
34675SOL     OW 8962   8.360   2.629  10.614  0.1546  0.1090  0.5284
34675SOL    HW1 8963   8.281   2.666  10.654  0.1351 -0.1360  0.7189
34675SOL    HW2 8964   8.341   2.536  10.605  0.2394  0.1295  0.1354
34676SOL     OW 8965   1.148   2.862   7.688  0.6284  0.6846  0.6250
34676SOL    HW1 8966   1.215   2.797   7.668  0.0374 -0.2660  1.6475
34676SOL    HW2 8967   1.153   2.875   7.783 -1.5136 -0.4363  0.9574
34677SOL     OW 8968   1.788   0.475   3.041 -0.2859  0.2522  0.1830
34677SOL    HW1 8969   1.744   0.436   2.966  0.5100 -0.3460  0.0221
34677SOL    HW2 8970   1.878   0.445   3.035  0.5497  2.6112 -0.3178
34678SOL     OW 8971   9.565   9.936   6.327 -0.1772  0.3113 -0.1331
34678SOL    HW1 8972   9.609   9.987   6.395  2.1740 -0.6090 -0.8599
34678SOL    HW2 8973   9.593   9.977   6.245 -2.5055  1.0415 -0.6585
34679SOL     OW 8974   3.285   0.230   1.099  0.0392  0.0852  0.6521
34679SOL    HW1 8975   3.265   0.315   1.060 -0.2654  0.0498  0.7278
34679SOL    HW2 8976   3.334   0.251   1.179 -0.6124  0.2211  1.0221
34680SOL     OW 8977   6.297   4.998   3.684 -0.4978 -0.6030  0.2173
34680SOL    HW1 8978   6.233   4.983   3.754 -0.0659  0.1636  0.7882
34680SOL    HW2 8979   6.373   4.946   3.709 -0.4981 -0.6600  0.1009
34681SOL     OW 8980   1.211   5.739   0.622 -0.4792  0.8352 -0.4249
34681SOL    HW1 8981   1.196   5.721   0.715  0.3030  3.2620  0.2677
34681SOL    HW2 8982   1.293   5.692   0.602 -1.0706 -0.3566 -0.1429
34682SOL     OW 8983   4.752   7.305   0.497  0.9991  0.4740  0.5060
34682SOL    HW1 8984   4.689   7.326   0.428  0.8208 -0.3147  0.4139
34682SOL    HW2 8985   4.701   7.309   0.578  1.1253  1.0470  0.5619
34683SOL     OW 8986   6.703   8.783   1.978  0.2452  0.0446  0.3911
34683SOL    HW1 8987   6.761   8.750   2.046  1.5646  1.9359  0.2646
34683SOL    HW2 8988   6.627   8.816   2.025  0.5347  0.0966  0.8241
34684SOL     OW 8989   8.050   1.105   2.562  0.0264 -0.1016  0.7424
34684SOL    HW1 8990   7.988   1.077   2.629 -1.0366  0.0667 -0.1400
34684SOL    HW2 8991   8.136   1.096   2.603 -0.3883 -2.5976  1.2155
34685SOL     OW 8992   2.573   4.534   2.870 -0.0215  0.0733 -0.2511
34685SOL    HW1 8993   2.596   4.574   2.954  1.6639 -2.4101  0.5628
34685SOL    HW2 8994   2.582   4.440   2.884  0.6623 -0.4395 -3.3137
34686SOL     OW 8995   8.923   4.884   5.366  0.5730 -0.0787 -0.2305
34686SOL    HW1 8996   8.990   4.931   5.318  0.8125 -0.6483 -0.4647
34686SOL    HW2 8997   8.856   4.950   5.385  0.7731  0.2908 -0.7864
34687SOL     OW 8998   0.611  11.020   8.796  0.2210 -0.6782 -0.1507
34687SOL    HW1 8999   0.593  11.113   8.811  0.2495 -0.6622 -0.2101
34687SOL    HW2 9000   0.540  10.991   8.738 -0.0354 -0.8002  0.2184
34688SOL     OW 9001   8.101   5.548   4.190  0.4615 -0.4407  0.6134
34688SOL    HW1 9002   8.102   5.565   4.096  0.0550 -0.4875  0.5994
34688SOL    HW2 9003   8.070   5.630   4.229  1.4883 -0.1239  0.7724
34689SOL     OW 9004   8.370   7.905   2.290 -0.3336 -0.0913 -0.3812
34689SOL    HW1 9005   8.465   7.909   2.293 -0.2924 -0.8501 -0.3790
34689SOL    HW2 9006   8.351   7.825   2.241 -0.9530 -1.6900  2.2790
34690SOL     OW 9007  11.547   8.649   7.664  0.2708 -1.3787  0.2135
34690SOL    HW1 9008  11.615   8.598   7.620  0.7519 -0.5436 -0.0438
34690SOL    HW2 9009  11.525   8.718   7.602  0.5795 -0.5009  1.0506
34691SOL     OW 9010   7.968   5.252  11.578  0.7770  0.1559 -0.3840
34691SOL    HW1 9011   7.988   5.345  11.570  1.1342  0.0077 -1.3851
34691SOL    HW2 9012   8.054   5.209  11.572  1.2530 -0.0673  4.5925
34692SOL     OW 9013  11.114   7.410   0.461 -0.1491  0.1639 -0.1460
34692SOL    HW1 9014  11.122   7.318   0.486 -1.3901  0.1290  0.2105
34692SOL    HW2 9015  11.165   7.458   0.527 -1.1702 -0.1325  0.8963
34693SOL     OW 9016   8.021   7.920   7.208 -0.4025  0.0241 -0.1540
34693SOL    HW1 9017   8.063   8.003   7.185 -0.6895 -0.4836 -2.8026
34693SOL    HW2 9018   7.928   7.938   7.203 -0.6257  0.3946  2.9232
34694SOL     OW 9019   4.204   4.207   1.322  0.1447  0.2274  0.5626
34694SOL    HW1 9020   4.129   4.265   1.312 -0.8445 -0.5291  3.0378
34694SOL    HW2 9021   4.168   4.124   1.353  1.8853 -0.5994  0.5299
34695SOL     OW 9022   5.851   9.323   7.527 -0.0298 -0.0109 -0.5171
34695SOL    HW1 9023   5.775   9.368   7.562  1.8030  1.7358  1.5085
34695SOL    HW2 9024   5.902   9.297   7.604  0.8855 -2.1905 -1.7573
34696SOL     OW 9025   5.640  11.003   2.984  0.3615  0.4404  0.3551
34696SOL    HW1 9026   5.581  11.073   2.956  1.2509  0.0169 -2.9373
34696SOL    HW2 9027   5.727  11.041   2.979  0.6804 -0.2065  0.9073
34697SOL     OW 9028   1.089   0.305   8.128  0.9979  0.3812  0.5208
34697SOL    HW1 9029   1.117   0.252   8.054  3.6570  0.1303  1.5851
34697SOL    HW2 9030   1.012   0.260   8.163  0.4258 -0.1403 -1.3165
34698SOL     OW 9031   7.043   2.785   8.807 -0.4721 -0.1334 -0.6568
34698SOL    HW1 9032   7.063   2.744   8.891 -1.7931 -0.2598 -0.3797
34698SOL    HW2 9033   7.090   2.868   8.809 -1.3672  0.3737  0.6953
34699SOL     OW 9034   9.841  10.172   1.395  0.3219  0.6667  0.0949
34699SOL    HW1 9035   9.920  10.199   1.442 -0.5125 -0.4879  2.3202
34699SOL    HW2 9036   9.870  10.100   1.339  0.9631  0.7093  0.3563
34700SOL     OW 9037  10.962   2.741   0.246  0.5412  0.1586  0.0292
34700SOL    HW1 9038  11.052   2.708   0.239  0.0108 -1.1123 -1.6254
34700SOL    HW2 9039  10.916   2.674   0.297 -0.1304 -0.8543 -1.8047
34701SOL     OW 9040   8.431   4.972   9.716 -0.0714 -0.2396  0.4116
34701SOL    HW1 9041   8.422   5.010   9.804 -0.1129  0.2762  0.1867
34701SOL    HW2 9042   8.525   4.956   9.706  0.2031  1.5161 -0.1872
34702SOL     OW 9043   1.271   8.546   4.767  0.7069 -0.1970  0.1592
34702SOL    HW1 9044   1.215   8.475   4.797  0.3409  0.3108  0.7053
34702SOL    HW2 9045   1.212   8.604   4.719  1.1304 -0.5863 -0.8636
34703SOL     OW 9046   7.918   3.235   8.920  0.1205 -0.0964 -0.2087
34703SOL    HW1 9047   7.985   3.294   8.885  1.6750 -0.0715  2.5202
34703SOL    HW2 9048   7.930   3.154   8.870  1.0361  0.4623 -0.9391
34704SOL     OW 9049   9.300   7.097   9.028 -0.4383 -0.2044  0.0653
34704SOL    HW1 9050   9.283   7.012   8.988  1.1971 -0.1892 -0.7531
34704SOL    HW2 9051   9.394   7.111   9.016 -0.5584  1.4412  0.7335
34705SOL     OW 9052   2.002  10.382   0.410 -0.4143  0.0286 -0.0505
34705SOL    HW1 9053   1.940  10.341   0.471 -0.9931  2.2222  0.9537
34705SOL    HW2 9054   2.003  10.324   0.334 -2.9736 -0.6302  0.3168
34706SOL     OW 9055  10.519   7.151   2.395  0.2952  0.0394  0.2917
34706SOL    HW1 9056  10.525   7.092   2.320 -0.2667  0.0716  0.2205
34706SOL    HW2 9057  10.474   7.100   2.462  0.3469  0.1834  0.4369
34707SOL     OW 9058   5.025   1.116   1.452 -0.2410 -0.2537 -0.2061
34707SOL    HW1 9059   5.084   1.163   1.511 -1.3139  1.8440 -0.7178
34707SOL    HW2 9060   5.052   1.144   1.364 -2.2988  1.2331 -0.4360
34708SOL     OW 9061   0.715   5.075   1.510  0.4566  0.3938  0.7537
34708SOL    HW1 9062   0.758   5.135   1.449  2.1302  0.7418  2.2150
34708SOL    HW2 9063   0.786   5.032   1.556 -0.4209 -4.8879 -2.0156
34709SOL     OW 9064   6.884   0.155   8.768 -0.4283  0.3617  0.1705
34709SOL    HW1 9065   6.905   0.192   8.854 -1.3463 -1.1222  1.0731
34709SOL    HW2 9066   6.943   0.080   8.759  0.5970  1.2680 -1.1207
34710SOL     OW 9067  10.810   3.583   5.011 -0.1121  0.0616 -0.2874
34710SOL    HW1 9068  10.887   3.605   5.064  0.6811 -2.5241 -0.2403
34710SOL    HW2 9069  10.845   3.566   4.924 -0.4636 -1.9603 -0.0737
34711SOL     OW 9070   3.320   5.770   6.397 -0.4309 -0.4195  0.2018
34711SOL    HW1 9071   3.288   5.847   6.350  0.4934  0.2936  0.6983
34711SOL    HW2 9072   3.386   5.732   6.339 -0.1983 -0.2733  0.3679
34712SOL     OW 9073  11.377   1.113  11.041  0.7588 -0.0461 -0.4341
34712SOL    HW1 9074  11.406   1.184  11.097 -0.1361  0.4149 -0.5311
34712SOL    HW2 9075  11.452   1.054  11.034  0.8055 -0.2663  1.4640
34713SOL     OW 9076   3.850  10.389   0.189  0.0366 -0.2474  0.0177
34713SOL    HW1 9077   3.915  10.340   0.239 -0.3302 -0.9781 -0.2036
34713SOL    HW2 9078   3.884  10.479   0.186  1.1277 -0.6589 -0.2654
34714SOL     OW 9079   5.066   1.712   9.983  0.0126 -0.0670 -0.2350
34714SOL    HW1 9080   5.151   1.754   9.990  0.8925 -1.3040 -2.3832
34714SOL    HW2 9081   5.083   1.631   9.934 -2.3119 -0.5945 -0.2999
34715SOL     OW 9082   9.954   6.408  10.186 -0.1093  0.1675  0.4343
34715SOL    HW1 9083   9.977   6.368  10.103 -2.8991 -0.1308 -0.3105
34715SOL    HW2 9084  10.028   6.465  10.207  0.2750  1.0333 -2.7803
34716SOL     OW 9085  11.410   8.593   9.228 -0.2591 -0.3138 -0.2067
34716SOL    HW1 9086  11.449   8.506   9.236 -0.9015 -0.6903 -1.0689
34716SOL    HW2 9087  11.467   8.649   9.280  1.1729 -0.9268 -1.0474
34717SOL     OW 9088   8.238   7.545   8.265 -0.0293  1.0243 -0.2108
34717SOL    HW1 9089   8.279   7.460   8.252  2.0276  2.0565 -0.9392
34717SOL    HW2 9090   8.198   7.567   8.181 -1.9545  0.1538  0.4137
34718SOL     OW 9091   8.666   5.717   1.385  0.0114  0.4287 -0.2807
34718SOL    HW1 9092   8.624   5.630   1.385  0.4602  0.1961  0.6047
34718SOL    HW2 9093   8.733   5.711   1.318  0.0337  0.0888 -0.2328
34719SOL     OW 9094   6.194   7.262   4.511 -0.3024 -0.1496 -0.0939
34719SOL    HW1 9095   6.171   7.349   4.479  1.7247  0.4713 -0.0006
34719SOL    HW2 9096   6.191   7.206   4.433  1.0468  0.5942 -0.7109
34720SOL     OW 9097   3.166   7.968  10.810  0.0094  0.5578 -0.2401
34720SOL    HW1 9098   3.075   7.990  10.827 -0.3991 -0.4810 -0.9561
34720SOL    HW2 9099   3.212   8.052  10.810 -1.1241  1.1964 -0.9193
34721SOL     OW 9100   8.447   7.379   4.081 -0.5348 -0.2517  0.2945
34721SOL    HW1 9101   8.379   7.365   4.147 -1.0790  0.4708 -0.0989
34721SOL    HW2 9102   8.422   7.461   4.038 -1.1942 -1.5817 -2.0045
34722SOL     OW 9103   1.183  10.246  10.618 -0.2582  0.0177 -0.5816
34722SOL    HW1 9104   1.143  10.238  10.532 -0.8051 -0.6780 -0.2665
34722SOL    HW2 9105   1.266  10.198  10.611  0.3187  1.0486 -1.0860
34723SOL     OW 9106   5.873   9.532   2.368 -0.0784  0.1386  0.3196
34723SOL    HW1 9107   5.790   9.576   2.347  0.2504 -0.2004 -1.9947
34723SOL    HW2 9108   5.933   9.603   2.389 -0.7904  0.4259  1.4348
34724SOL     OW 9109   5.839   4.139   7.308 -0.3492 -0.6871  0.6458
34724SOL    HW1 9110   5.759   4.108   7.265 -0.5212 -1.3477  1.4160
34724SOL    HW2 9111   5.890   4.060   7.322  1.2413 -0.1168 -1.3417
34725SOL     OW 9112  11.500   4.368   6.853  0.2798  0.3775 -0.0684
34725SOL    HW1 9113  11.503   4.331   6.942  1.6687 -1.5137 -0.8234
34725SOL    HW2 9114  11.590   4.397   6.836  0.2387 -0.0869 -1.1542
34726SOL     OW 9115   8.563   8.587   4.420 -0.0893  0.0798 -0.2049
34726SOL    HW1 9116   8.557   8.659   4.483  0.2893  1.0557 -1.2566
34726SOL    HW2 9117   8.482   8.537   4.433  0.7580 -0.7984  2.2708
34727SOL     OW 9118   4.793   0.717   0.053 -0.4114  0.3355 -0.4803
34727SOL    HW1 9119   4.853   0.773   0.102  1.2925 -0.7702 -1.2113
34727SOL    HW2 9120   4.758   0.657   0.118 -0.7064  0.9656 -0.0511
34728SOL     OW 9121   2.776   2.507   8.099  0.1913 -0.2513 -0.3419
34728SOL    HW1 9122   2.817   2.584   8.059 -1.9049  1.3646  0.4679
34728SOL    HW2 9123   2.814   2.502   8.187 -0.0301  0.1431 -0.2256
34729SOL     OW 9124   5.210   8.359   6.216 -0.2417 -0.1930  0.4062
34729SOL    HW1 9125   5.305   8.352   6.204 -0.3553 -0.7461 -0.2330
34729SOL    HW2 9126   5.193   8.453   6.207  0.3435  0.0200  1.3772
34730SOL     OW 9127   1.207   5.132   1.173 -0.1703 -0.0052  0.9970
34730SOL    HW1 9128   1.279   5.069   1.178  0.5340  0.5301 -1.3077
34730SOL    HW2 9129   1.248   5.216   1.196 -0.6872 -0.0616  2.2200
34731SOL     OW 9130   9.643   6.655   8.303 -0.3631  0.1908 -0.0259
34731SOL    HW1 9131   9.679   6.664   8.391  1.1502  0.3108 -0.6128
34731SOL    HW2 9132   9.572   6.592   8.312  0.5468 -0.7266  1.0872
34732SOL     OW 9133   1.966   1.343  10.436 -0.4815 -0.7230  0.1204
34732SOL    HW1 9134   1.930   1.316  10.351  3.2201 -0.3566 -1.8166
34732SOL    HW2 9135   1.969   1.438  10.432  1.2469 -0.7557 -0.1539
34733SOL     OW 9136   7.481   3.259   5.898 -0.2147 -0.3183 -0.2589
34733SOL    HW1 9137   7.501   3.209   5.977  0.1194 -1.0453 -0.7963
34733SOL    HW2 9138   7.556   3.244   5.840 -0.7695 -0.3390 -0.9820
34734SOL     OW 9139   5.768   0.411   4.300  0.1897 -0.1534 -0.0617
34734SOL    HW1 9140   5.737   0.340   4.356 -0.8807  0.0639 -0.3519
34734SOL    HW2 9141   5.802   0.368   4.222  1.9844 -0.4752  0.8691
34735SOL     OW 9142   1.687   2.028   6.826  0.0143  0.3524 -0.5883
34735SOL    HW1 9143   1.595   2.003   6.821  0.1727 -0.3732 -0.0282
34735SOL    HW2 9144   1.699   2.092   6.756 -0.6869 -0.2658 -1.2791
34736SOL     OW 9145  11.470  11.375   3.055  0.3174 -0.2645  0.5234
34736SOL    HW1 9146  11.489  11.451   2.999 -2.3286  0.4035  0.4158
34736SOL    HW2 9147  11.460  11.302   2.994 -2.8601  0.5189 -0.0725
34737SOL     OW 9148   0.332   4.806   6.613 -0.4328 -0.8056  0.3918
34737SOL    HW1 9149   0.342   4.733   6.550  0.5416 -1.0485  0.8076
34737SOL    HW2 9150   0.253   4.851   6.584  0.7469 -0.0500 -1.9095
34738SOL     OW 9151   8.713   3.403  10.649 -0.3627  0.4227  0.3388
34738SOL    HW1 9152   8.629   3.439  10.677 -1.1016 -0.2126 -0.9629
34738SOL    HW2 9153   8.746   3.465  10.585 -1.3389 -0.8163 -1.4393
34739SOL     OW 9154   1.656   1.041   1.991 -0.9682 -0.4895 -0.1438
34739SOL    HW1 9155   1.570   1.071   1.961 -0.3553  0.6830 -0.8085
34739SOL    HW2 9156   1.638   0.990   2.069 -2.2036  0.4818  0.2307
34740SOL     OW 9157  10.941   9.332  10.507  0.3869 -0.2169 -0.0527
34740SOL    HW1 9158  11.018   9.320  10.452  0.5724  0.8238 -0.0416
34740SOL    HW2 9159  10.976   9.342  10.596  0.2569  0.4521 -0.0744
34741SOL     OW 9160   2.166   5.921   0.659 -0.1506 -0.2065  0.6842
34741SOL    HW1 9161   2.210   5.992   0.705 -0.2130 -0.7982  1.7025
34741SOL    HW2 9162   2.117   5.964   0.589  2.0953  0.4637 -0.5620
34742SOL     OW 9163   1.529  10.929   6.063  0.0384  0.1689 -0.6310
34742SOL    HW1 9164   1.592  10.903   6.130 -0.5546  1.4969  0.5081
34742SOL    HW2 9165   1.463  10.860   6.064  1.7350 -1.6065 -2.3322
34743SOL     OW 9166   7.634   7.191   5.761 -0.8370 -0.3870 -0.3204
34743SOL    HW1 9167   7.543   7.207   5.786 -0.4763 -0.7314  1.2719
34743SOL    HW2 9168   7.674   7.278   5.759 -0.7259 -0.3963  0.9375
34744SOL     OW 9169   8.107   9.734   6.364  0.6359  0.4241  0.2419
34744SOL    HW1 9170   8.110   9.748   6.270  1.4074  1.5046  0.4166
34744SOL    HW2 9171   8.020   9.696   6.380  0.4451  0.3711 -0.8754
34745SOL     OW 9172   1.248   0.234   8.499 -0.2695  0.3512 -0.6787
34745SOL    HW1 9173   1.251   0.142   8.476 -0.3063  0.5701 -1.6011
34745SOL    HW2 9174   1.217   0.278   8.420 -1.8642  0.9922  0.2609
34746SOL     OW 9175   2.377  10.518   5.517 -0.3273 -0.3271 -0.8513
34746SOL    HW1 9176   2.409  10.608   5.522 -0.5496 -0.2851 -0.0549
34746SOL    HW2 9177   2.396  10.490   5.427 -0.2749  0.5188 -1.1090
34747SOL     OW 9178   3.238   3.214   8.896 -0.2327  0.1587  0.4768
34747SOL    HW1 9179   3.178   3.228   8.970 -1.0373 -0.6382  0.0022
34747SOL    HW2 9180   3.181   3.190   8.823  0.5503  0.9902 -0.4298
34748SOL     OW 9181   9.061   3.398   4.236  0.1168  0.1705  0.3550
34748SOL    HW1 9182   9.129   3.338   4.265  1.6026  1.5304 -0.2113
34748SOL    HW2 9183   8.989   3.341   4.209 -0.2325 -1.2557  3.7767
34749SOL     OW 9184  11.214   0.609   9.208  0.2152  0.1593  0.7725
34749SOL    HW1 9185  11.206   0.559   9.127  0.7840 -0.2499  0.9616
34749SOL    HW2 9186  11.130   0.598   9.252  0.4622 -0.9561  0.9898
34750SOL     OW 9187   6.190   3.940   5.878 -0.8692 -0.4769 -0.2148
34750SOL    HW1 9188   6.270   3.959   5.828 -0.2869  0.7953  1.1092
34750SOL    HW2 9189   6.123   3.994   5.836 -0.4283  0.4375  0.2152
34751SOL     OW 9190   4.428  10.766   3.084  0.0294  0.4028 -0.1929
34751SOL    HW1 9191   4.379  10.812   3.152 -2.8944 -1.9338 -0.5131
34751SOL    HW2 9192   4.514  10.808   3.083 -0.9255  2.7081  2.5895
34752SOL     OW 9193   5.997   2.155   8.215 -0.0629  0.2350 -0.2682
34752SOL    HW1 9194   6.031   2.230   8.167  1.4266  0.3677  0.9164
34752SOL    HW2 9195   6.029   2.078   8.167 -0.9898  0.3406 -1.0766
34753SOL     OW 9196   2.654  10.772   4.496  0.4085  0.1628 -0.0258
34753SOL    HW1 9197   2.663  10.744   4.405 -0.0172  0.4024 -0.1414
34753SOL    HW2 9198   2.744  10.792   4.524  0.6155 -0.5073 -0.1994
34754SOL     OW 9199   3.318   0.574  10.190 -0.8315  0.6635  0.1334
34754SOL    HW1 9200   3.258   0.522  10.138  0.7979 -1.0806 -0.1377
34754SOL    HW2 9201   3.306   0.664  10.160 -2.3330  0.1710 -0.8014
34755SOL     OW 9202   1.456   4.189   3.737  0.3884 -0.3265  0.3954
34755SOL    HW1 9203   1.458   4.116   3.675 -2.0268 -1.0045  1.0445
34755SOL    HW2 9204   1.446   4.267   3.681 -1.8298 -0.9314 -0.1201
34756SOL     OW 9205   3.496   3.664   4.553  0.0895  0.5126 -0.2384
34756SOL    HW1 9206   3.588   3.680   4.572 -0.0486 -0.2081  1.1639
34756SOL    HW2 9207   3.495   3.622   4.467  0.8980  2.3455 -1.1983
34757SOL     OW 9208   2.387   2.759  11.607 -0.0111 -0.1782  0.4255
34757SOL    HW1 9209   2.389   2.777  11.701 -0.8340 -0.3010  0.4772
34757SOL    HW2 9210   2.462   2.806  11.572 -1.5685  2.7820  0.6692
34758SOL     OW 9211   1.659   3.575   7.426  0.7308  0.2887 -0.5063
34758SOL    HW1 9212   1.708   3.514   7.482 -0.3635  1.5153  1.9620
34758SOL    HW2 9213   1.574   3.533   7.413  0.5503  0.5449 -0.1752
34759SOL     OW 9214   9.906   3.267   2.565  0.1867 -0.2281 -0.2570
34759SOL    HW1 9215   9.899   3.273   2.660 -2.2753 -0.4194 -0.3586
34759SOL    HW2 9216   9.967   3.195   2.550  0.9586  0.0843  1.1420
34760SOL     OW 9217   1.263  10.464   7.335  0.1390  0.3034 -0.1099
34760SOL    HW1 9218   1.177  10.430   7.356 -0.7608  0.9982 -2.3586
34760SOL    HW2 9219   1.304  10.395   7.283 -0.7452  1.5263 -2.5889
34761SOL     OW 9220  11.256   4.608   1.799 -0.6693 -0.1815  0.2900
34761SOL    HW1 9221  11.227   4.676   1.860 -0.7819 -0.5909  0.6961
34761SOL    HW2 9222  11.191   4.610   1.729 -2.1437 -1.6023  1.5558
34762SOL     OW 9223   2.804  10.401   1.127 -0.2746 -0.5003  0.6598
34762SOL    HW1 9224   2.812  10.428   1.036 -1.2552  1.1633  1.0109
34762SOL    HW2 9225   2.717  10.362   1.132 -0.0924 -0.8855  0.8139
34763SOL     OW 9226   2.693   4.659  10.624 -0.5568  0.3235  0.1875
34763SOL    HW1 9227   2.750   4.735  10.633  1.3908 -0.9446 -0.8085
34763SOL    HW2 9228   2.707   4.608  10.703 -0.5328  0.1556  0.0750
34764SOL     OW 9229   0.573   7.580  11.234  0.1506  0.0632 -0.0237
34764SOL    HW1 9230   0.502   7.630  11.195 -0.7888  0.7098  2.3292
34764SOL    HW2 9231   0.599   7.632  11.310  1.2882 -1.5060  0.7078
34765SOL     OW 9232   5.133   3.599  11.168  0.2488 -0.1332 -0.1130
34765SOL    HW1 9233   5.136   3.655  11.246 -0.1308  0.9060 -0.8283
34765SOL    HW2 9234   5.197   3.530  11.186 -0.8573 -0.7471  1.7269
34766SOL     OW 9235   1.062   5.393   3.846  0.1995 -0.6633  0.8071
34766SOL    HW1 9236   1.144   5.386   3.798 -0.0693 -0.3246  0.2898
34766SOL    HW2 9237   0.995   5.368   3.783 -0.1686 -0.0893  0.9595
34767SOL     OW 9238   7.007   8.308   9.150  0.2855  0.7247  0.0758
34767SOL    HW1 9239   7.101   8.302   9.170  0.0049 -1.0063  1.0885
34767SOL    HW2 9240   7.000   8.382   9.090  2.7605 -1.0494 -2.7093
34768SOL     OW 9241   9.977  11.516  10.867 -0.0488  0.0514 -0.3403
34768SOL    HW1 9242  10.066  11.548  10.879 -0.0866 -0.0397  0.2086
34768SOL    HW2 9243   9.923  11.572  10.923 -0.2364 -0.3621 -0.1024
34769SOL     OW 9244  10.788   2.101   3.587  0.3346 -0.1886  0.3389
34769SOL    HW1 9245  10.733   2.023   3.590 -1.2715  0.8403 -0.6913
34769SOL    HW2 9246  10.791   2.131   3.678  0.0396 -0.8240  0.5642
34770SOL     OW 9247  10.155   9.982   7.240 -0.5274  0.2980  0.1812
34770SOL    HW1 9248  10.240  10.026   7.239  0.2381 -1.1052  0.3933
34770SOL    HW2 9249  10.092  10.050   7.215  0.5237  1.6164  1.0099
34771SOL     OW 9250   0.902   0.321  10.809  0.2355 -0.2546 -0.2299
34771SOL    HW1 9251   0.923   0.393  10.750 -0.3349 -0.2276 -0.3992
34771SOL    HW2 9252   0.844   0.265  10.759  3.0171 -2.4840 -1.2284
34772SOL     OW 9253   9.860   7.356   0.566 -0.3364 -0.2352  0.3590
34772SOL    HW1 9254   9.943   7.390   0.533 -0.5620 -0.1977 -0.1669
34772SOL    HW2 9255   9.882   7.320   0.652  0.1740  0.0033  0.3317
34773SOL     OW 9256   4.268   8.388   0.114 -0.6033  0.3967  0.1001
34773SOL    HW1 9257   4.346   8.443   0.108  2.5435 -3.6472 -0.4330
34773SOL    HW2 9258   4.251   8.361   0.024  0.3568 -2.2966  0.6382
34774SOL     OW 9259   5.807   1.109   1.063  0.1157 -0.3841  0.2537
34774SOL    HW1 9260   5.776   1.097   1.153  1.8587 -0.4725  0.8761
34774SOL    HW2 9261   5.809   1.204   1.051  0.1661 -0.3631  0.4216
34775SOL     OW 9262   4.415   8.883   0.547 -0.2994 -0.2970  0.5171
34775SOL    HW1 9263   4.328   8.861   0.578 -0.4422  0.6023  0.7785
34775SOL    HW2 9264   4.468   8.806   0.569 -0.7078 -0.2611  1.6939
34776SOL     OW 9265   9.664   6.309   0.255 -0.1180 -0.9817  0.3530
34776SOL    HW1 9266   9.670   6.272   0.343 -0.4132 -0.4032  0.6183
34776SOL    HW2 9267   9.734   6.374   0.252  0.5944 -1.7397 -0.2143
34777SOL     OW 9268   9.639   2.895   7.398  0.4767  0.0311  0.4323
34777SOL    HW1 9269   9.630   2.962   7.330  0.4843 -0.9751 -0.6033
34777SOL    HW2 9270   9.562   2.839   7.387  0.2189  0.1418  1.5981
34778SOL     OW 9271   2.970   6.898   8.678  0.2455 -0.3925  0.3476
34778SOL    HW1 9272   2.938   6.944   8.755 -1.2157 -0.5676 -0.1121
34778SOL    HW2 9273   3.050   6.944   8.653 -0.3413  0.9198  0.8054
34779SOL     OW 9274  11.248   3.579   9.039  0.8219 -0.2885  0.5056
34779SOL    HW1 9275  11.221   3.593   9.129  0.0223  0.2249  0.1977
34779SOL    HW2 9276  11.335   3.539   9.045  1.6328  1.5295  1.4668
34780SOL     OW 9277   3.216  11.133   8.557 -0.1425 -1.1023  0.9123
34780SOL    HW1 9278   3.262  11.177   8.628  1.3262 -2.6454  0.9763
34780SOL    HW2 9279   3.125  11.127   8.587  0.2867 -0.9891  2.2861
34781SOL     OW 9280   2.636  11.009   4.127  0.4699  0.2707 -0.4260
34781SOL    HW1 9281   2.594  10.979   4.047  1.0234  2.0244 -1.4131
34781SOL    HW2 9282   2.596  11.093   4.146  2.3818  1.2721 -0.5429
34782SOL     OW 9283   5.147   3.999   0.146 -0.3938  0.8113  0.4334
34782SOL    HW1 9284   5.152   3.941   0.222 -0.3138  0.1400 -0.0773
34782SOL    HW2 9285   5.237   4.004   0.113 -0.9732 -2.1395 -1.9823
34783SOL     OW 9286   7.017   4.574   1.593  0.1117  0.2081  0.5695
34783SOL    HW1 9287   6.964   4.654   1.590  1.6713  1.2834  0.1543
34783SOL    HW2 9288   7.036   4.555   1.501  0.8117  0.1204  0.7275
34784SOL     OW 9289   1.954   1.336   6.104 -0.3891  0.6354 -0.2427
34784SOL    HW1 9290   1.864   1.325   6.138 -0.3149 -0.1462 -0.2730
34784SOL    HW2 9291   1.991   1.248   6.108  1.7519  1.5040  3.5853
34785SOL     OW 9292   3.067   4.089   3.433 -0.0537  0.2621  0.4231
34785SOL    HW1 9293   3.154   4.118   3.457  1.1246 -1.3631 -1.5799
34785SOL    HW2 9294   3.055   4.006   3.481  0.6962 -0.9375 -1.3509
34786SOL     OW 9295   6.419  10.324   3.674 -0.3749  0.3263 -0.3239
34786SOL    HW1 9296   6.379  10.258   3.731  0.0759 -0.4338 -0.8659
34786SOL    HW2 9297   6.425  10.403   3.728  1.3074 -0.7519  1.1668
34787SOL     OW 9298   1.857   9.006  10.598  0.4676 -0.3243  0.0127
34787SOL    HW1 9299   1.782   8.964  10.555 -0.4208  1.8204 -0.6907
34787SOL    HW2 9300   1.924   9.013  10.529 -0.1516  1.1453 -0.5001
34788SOL     OW 9301   4.849   8.738   5.649  0.1147  0.5672  0.1655
34788SOL    HW1 9302   4.763   8.749   5.690  0.0279  0.9148 -0.1077
34788SOL    HW2 9303   4.890   8.668   5.700 -0.6696 -0.2184 -0.2527
34789SOL     OW 9304   7.933   7.754   2.720 -0.1124  0.0681  0.1078
34789SOL    HW1 9305   8.005   7.691   2.714 -1.3883 -1.7208  1.9633
34789SOL    HW2 9306   7.962   7.819   2.783  0.5156  0.3213 -0.4357
34790SOL     OW 9307   6.379   0.708   7.105  0.5235 -0.3005 -0.1566
34790SOL    HW1 9308   6.291   0.742   7.090 -0.3681 -1.8721  1.2282
34790SOL    HW2 9309   6.410   0.756   7.181  0.4835 -0.4080 -0.0721
34791SOL     OW 9310   4.598   6.077  10.675  0.0650  0.5780 -0.1923
34791SOL    HW1 9311   4.517   6.035  10.704  0.3769  0.3226  0.3143
34791SOL    HW2 9312   4.570   6.135  10.604 -0.6522  0.9518  0.3805
34792SOL     OW 9313   1.886   7.905  10.655  0.4858 -0.2072  0.9533
34792SOL    HW1 9314   1.938   7.882  10.732  0.5927  2.1162  1.6483
34792SOL    HW2 9315   1.929   7.982  10.618 -0.7272 -0.0644 -0.2552
34793SOL     OW 9316   4.297  10.288   6.238  0.0014  0.0318  0.2566
34793SOL    HW1 9317   4.251  10.368   6.262 -2.1792 -0.7346 -1.0831
34793SOL    HW2 9318   4.256  10.219   6.290  1.6487 -0.3226  1.1705
34794SOL     OW 9319   2.331   1.129  10.751  0.4515 -0.1950  0.6195
34794SOL    HW1 9320   2.356   1.120  10.659  1.4933  1.4764  0.7004
34794SOL    HW2 9321   2.267   1.201  10.751  0.3627 -0.2693  1.1835
34795SOL     OW 9322   7.282  10.652   5.193 -0.0142 -0.9291 -0.1217
34795SOL    HW1 9323   7.346  10.607   5.137  0.3667 -1.2296  0.5365
34795SOL    HW2 9324   7.278  10.741   5.158  0.6213 -0.9593 -0.2989
34796SOL     OW 9325   5.548   3.493   5.111  0.7474  0.8403  0.0866
34796SOL    HW1 9326   5.474   3.433   5.123  2.1767 -1.1538 -0.5816
34796SOL    HW2 9327   5.508   3.571   5.072 -0.8881 -0.6023 -1.3532
34797SOL     OW 9328   8.554   3.882  10.795 -0.2042 -0.1353 -0.9259
34797SOL    HW1 9329   8.544   3.844  10.882  0.9184 -1.0052 -1.1508
34797SOL    HW2 9330   8.556   3.807  10.736 -0.5980  0.4249 -1.6739
34798SOL     OW 9331   8.823   9.302  11.147  0.0341  0.1580  1.0682
34798SOL    HW1 9332   8.733   9.276  11.130  0.2345  1.0757 -2.1777
34798SOL    HW2 9333   8.822   9.338  11.236 -2.8528  0.3972  1.0308
34799SOL     OW 9334   0.201  11.270   4.474  0.5822  0.3121 -0.1312
34799SOL    HW1 9335   0.256  11.213   4.420  0.6375 -0.7090  0.9444
34799SOL    HW2 9336   0.254  11.285   4.553 -0.1601  0.3735  0.3663
34800SOL     OW 9337   5.975  11.570   4.414  0.6468 -0.4425  0.5248
34800SOL    HW1 9338   5.958  11.663   4.428  1.7192 -0.5504  3.0628
34800SOL    HW2 9339   5.892  11.534   4.384  0.7333  1.6263 -2.7008
34801SOL     OW 9340  10.328   3.469   5.343  0.0187 -0.0379 -0.3966
34801SOL    HW1 9341  10.369   3.384   5.325  1.7318  0.8940 -1.0715
34801SOL    HW2 9342  10.360   3.493   5.430  3.2003  1.9090 -1.9761
34802SOL     OW 9343   1.342   8.337   8.810  0.1108  0.5408 -0.1011
34802SOL    HW1 9344   1.328   8.394   8.885  0.8896 -2.0160  2.1492
34802SOL    HW2 9345   1.264   8.349   8.755 -0.5756  2.3580  1.1941
34803SOL     OW 9346   1.646   5.863   6.133 -0.0423 -0.0657 -0.3695
34803SOL    HW1 9347   1.603   5.877   6.048 -0.6739  0.1035 -0.0263
34803SOL    HW2 9348   1.596   5.791   6.172 -1.3500  1.4618  0.9089
34804SOL     OW 9349  10.482   3.987   6.296 -0.1739  0.1180  0.2757
34804SOL    HW1 9350  10.387   3.986   6.284 -0.3508 -1.5358  1.5454
34804SOL    HW2 9351  10.515   3.931   6.226 -0.2485 -0.4617  0.7074
34805SOL     OW 9352   2.533   8.142   0.704 -0.0730  0.2666 -0.1300
34805SOL    HW1 9353   2.483   8.128   0.624 -0.8562  2.4194 -0.0692
34805SOL    HW2 9354   2.622   8.160   0.675 -0.0627 -0.2121 -0.4144
34806SOL     OW 9355   7.340   0.243   3.511  0.4254  0.4735 -0.0443
34806SOL    HW1 9356   7.319   0.291   3.591  1.5388 -1.4932  1.5196
34806SOL    HW2 9357   7.271   0.177   3.504  0.7349  0.1727 -0.2797
34807SOL     OW 9358   4.345   4.670   2.487 -0.0187 -0.7825  0.0571
34807SOL    HW1 9359   4.340   4.739   2.552  0.3519 -0.0041 -0.7295
34807SOL    HW2 9360   4.426   4.623   2.506 -0.7474 -1.6498  1.1986
34808SOL     OW 9361   2.360   0.376   0.588  0.2020  0.5735  0.0762
34808SOL    HW1 9362   2.332   0.415   0.505  1.5629  1.0641 -0.1738
34808SOL    HW2 9363   2.283   0.382   0.644 -0.0980  2.2355 -0.4607
34809SOL     OW 9364   3.435   7.917   5.447 -0.5153  0.0705  0.2973
34809SOL    HW1 9365   3.472   7.829   5.455 -0.8653 -0.2858 -1.6325
34809SOL    HW2 9366   3.505   7.968   5.406  0.0529  1.0026  2.2752
34810SOL     OW 9367   6.631  11.365   1.588 -0.5843  0.1179  0.3189
34810SOL    HW1 9368   6.615  11.454   1.620 -0.8200 -0.1619  1.0111
34810SOL    HW2 9369   6.725  11.362   1.572 -0.0448 -0.3168  2.9994
34811SOL     OW 9370   7.939   1.489   6.963  0.2893 -0.0407 -0.6236
34811SOL    HW1 9371   7.932   1.584   6.972 -0.6291  0.1354 -2.7492
34811SOL    HW2 9372   8.033   1.473   6.957  0.6026  0.4553  1.7852
34812SOL     OW 9373   5.404   5.146   0.328 -0.2999 -0.1614 -0.1981
34812SOL    HW1 9374   5.418   5.062   0.371 -0.5908 -1.2074 -2.0305
34812SOL    HW2 9375   5.488   5.165   0.286  0.5535  1.7050  2.0859
34813SOL     OW 9376   7.997  10.973   9.560  0.0974  0.1008  0.1266
34813SOL    HW1 9377   8.008  11.048   9.619  0.3105  0.4735 -0.3762
34813SOL    HW2 9378   8.086  10.951   9.533 -0.0454  0.3938 -0.6140
34814SOL     OW 9379   2.116   0.656   5.382  0.0135 -0.2513  0.4711
34814SOL    HW1 9380   2.028   0.655   5.422  0.4709  1.9420  1.7068
34814SOL    HW2 9381   2.166   0.715   5.437  2.1404 -0.9876 -0.5723
34815SOL     OW 9382   1.572  11.102   0.285  0.7437  0.2666 -0.0927
34815SOL    HW1 9383   1.662  11.117   0.258  0.8812  1.7117  1.0332
34815SOL    HW2 9384   1.543  11.187   0.320 -0.7301 -0.4233  0.4424
34816SOL     OW 9385   1.979   8.149   3.706 -0.7500  0.5286  0.6635
34816SOL    HW1 9386   1.927   8.229   3.699 -0.3478  0.8220  0.9629
34816SOL    HW2 9387   1.982   8.115   3.616 -1.1800  0.6847  0.5901
34817SOL     OW 9388   2.428   8.419   0.263  0.3630  0.2351 -0.1173
34817SOL    HW1 9389   2.511   8.411   0.309  0.2441 -0.5994 -0.0403
34817SOL    HW2 9390   2.439   8.367   0.184 -0.8295 -1.8137  0.9676
34818SOL     OW 9391   7.640  11.078  10.182 -0.8818  0.2504 -0.2794
34818SOL    HW1 9392   7.623  11.040  10.096 -1.3068 -0.9171  0.2876
34818SOL    HW2 9393   7.687  11.009  10.229 -0.9671  0.7363  0.5311
34819SOL     OW 9394   8.383  11.447   8.927 -0.6370 -0.2860  0.5941
34819SOL    HW1 9395   8.299  11.466   8.970 -1.0572 -1.2974  0.2555
34819SOL    HW2 9396   8.379  11.497   8.845 -1.1623 -0.7569  0.3202
34820SOL     OW 9397   6.758   9.966   8.236 -0.3122 -0.3954  0.2502
34820SOL    HW1 9398   6.841   9.943   8.277 -0.1473  2.0132  1.4855
34820SOL    HW2 9399   6.692   9.921   8.288 -0.0595  2.0530  2.9516
34821SOL     OW 9400   3.354   9.396   1.478 -0.7077  0.6093 -0.0690
34821SOL    HW1 9401   3.281   9.456   1.469 -1.9054 -0.6774  0.6689
34821SOL    HW2 9402   3.365   9.385   1.572 -0.2770 -0.0343 -0.1852
34822SOL     OW 9403   7.603   9.065   5.999  0.1259  0.2510 -0.5556
34822SOL    HW1 9404   7.570   8.978   5.977 -0.5546  0.4902 -0.5015
34822SOL    HW2 9405   7.698   9.056   5.994  0.0485  0.1170 -2.8880
34823SOL     OW 9406   3.972   9.502   7.013  0.0450 -0.2235 -0.6195
34823SOL    HW1 9407   3.987   9.471   7.103 -1.4816  1.0869  0.1320
34823SOL    HW2 9408   4.056   9.488   6.969  0.9882 -0.4571  1.1438
34824SOL     OW 9409   3.761   6.493   2.314  0.0287  0.1288 -0.2563
34824SOL    HW1 9410   3.691   6.495   2.379  0.6010 -1.9610  0.4852
34824SOL    HW2 9411   3.750   6.410   2.268  3.0323 -1.1992  1.1334
34825SOL     OW 9412   7.578   0.930   1.493 -0.0348  0.1082  0.0025
34825SOL    HW1 9413   7.483   0.928   1.502 -0.0283  0.5279  0.1716
34825SOL    HW2 9414   7.611   0.894   1.575 -0.0482 -0.1140 -0.0891
34826SOL     OW 9415   9.155  10.873  10.374  0.3321  0.5641  0.4198
34826SOL    HW1 9416   9.077  10.817  10.370  0.3967  0.5000  0.0388
34826SOL    HW2 9417   9.129  10.945  10.432 -0.2998  0.9772 -0.3492
34827SOL     OW 9418   7.355  11.176  10.331  0.3050  0.0744  0.4982
34827SOL    HW1 9419   7.374  11.193  10.424 -2.3373 -0.0810  1.1327
34827SOL    HW2 9420   7.334  11.083  10.327 -0.0078  0.1684 -0.1997
34828SOL     OW 9421   8.335   1.372   3.892  0.2165 -0.5352  0.1296
34828SOL    HW1 9422   8.269   1.346   3.957 -0.1773  2.7732  1.2684
34828SOL    HW2 9423   8.286   1.384   3.811  0.3095 -2.4836 -0.2613
34829SOL     OW 9424   7.794   1.818   4.123  0.2803 -0.1931  0.3989
34829SOL    HW1 9425   7.837   1.889   4.170 -0.2294  0.4079 -0.0255
34829SOL    HW2 9426   7.703   1.846   4.114  0.8521  1.0524 -3.3165
34830SOL     OW 9427   7.216   7.930   9.625  0.0804  0.5807  0.7623
34830SOL    HW1 9428   7.250   7.959   9.540 -0.0199 -0.1971  0.4397
34830SOL    HW2 9429   7.147   7.992   9.646 -0.5884  0.2076 -0.2320
34831SOL     OW 9430   7.424   6.724   1.176  0.0595 -0.0483 -0.0727
34831SOL    HW1 9431   7.333   6.733   1.150  0.4369 -1.3692 -2.0206
34831SOL    HW2 9432   7.432   6.633   1.205  0.6316  0.2372  0.7038
34832SOL     OW 9433   8.374   5.847   4.734  0.9846  0.3202 -0.2542
34832SOL    HW1 9434   8.283   5.824   4.751  0.7727 -0.2717 -2.0661
34832SOL    HW2 9435   8.373   5.895   4.651  2.4111 -0.4804 -0.7725
34833SOL     OW 9436   9.432   6.270   7.976 -0.5354  0.4404  0.2540
34833SOL    HW1 9437   9.440   6.293   8.069 -0.5258  3.5180 -0.3937
34833SOL    HW2 9438   9.374   6.338   7.940 -0.1095 -0.3695 -2.0987
34834SOL     OW 9439  10.332   2.431   5.233  0.1608 -0.3210 -0.3124
34834SOL    HW1 9440  10.276   2.497   5.273 -0.4713 -0.0541 -1.5953
34834SOL    HW2 9441  10.272   2.361   5.207  0.7441 -1.1555  0.4845
34835SOL     OW 9442   6.445  10.796   0.937  0.2277 -0.6013 -0.3255
34835SOL    HW1 9443   6.502  10.720   0.950 -0.1717 -0.8300  0.1269
34835SOL    HW2 9444   6.466  10.855   1.009  0.7100 -0.1754 -0.8163
34836SOL     OW 9445   5.592   9.107   5.464  0.2951 -0.3230 -0.1750
34836SOL    HW1 9446   5.595   9.058   5.547 -0.8526  1.0205  0.6953
34836SOL    HW2 9447   5.664   9.169   5.470 -0.6045  0.6802  0.4222
34837SOL     OW 9448   3.499   3.599   2.734  0.3831 -0.9639 -0.3650
34837SOL    HW1 9449   3.572   3.607   2.672 -0.1517  0.2436 -0.8595
34837SOL    HW2 9450   3.541   3.576   2.817  1.6285  2.0596 -0.0462
34838SOL     OW 9451   0.763  11.089   0.035 -0.0026  0.0015  0.2659
34838SOL    HW1 9452   0.672  11.067   0.057  0.0924  0.2738  0.9362
34838SOL    HW2 9453   0.799  11.008  -0.000 -0.2690 -0.3356  0.7563
34839SOL     OW 9454  11.120   2.412  10.386  0.0198  0.3761  0.3227
34839SOL    HW1 9455  11.048   2.417  10.323 -0.9581 -0.4576  1.3345
34839SOL    HW2 9456  11.194   2.379  10.335 -0.6591  0.0355 -0.4619
34840SOL     OW 9457   5.888   8.591   0.313  0.3640  0.5283  0.4515
34840SOL    HW1 9458   5.795   8.608   0.295  0.5549  0.5785 -0.5451
34840SOL    HW2 9459   5.904   8.504   0.277  1.1732  1.3385 -1.2655
34841SOL     OW 9460   9.487   8.076   5.575 -0.3641 -0.0453 -0.0647
34841SOL    HW1 9461   9.398   8.104   5.593 -0.3821 -0.9303  1.4254
34841SOL    HW2 9462   9.500   8.094   5.482 -1.8413  0.7452 -0.1438
34842SOL     OW 9463  10.364  10.368  10.992  0.8858 -0.1527 -0.3036
34842SOL    HW1 9464  10.397  10.347  11.079  0.0058  1.4654  0.4751
34842SOL    HW2 9465  10.384  10.461  10.981 -3.0223  0.8710  0.1050
34843SOL     OW 9466   5.264   9.356   0.238  0.5403 -0.7203 -0.0933
34843SOL    HW1 9467   5.195   9.423   0.238  0.4107 -0.8520 -0.8392
34843SOL    HW2 9468   5.237   9.294   0.306 -0.6971 -1.3979 -1.1464
34844SOL     OW 9469   5.280   2.374   5.773  0.3287 -0.2953 -0.2494
34844SOL    HW1 9470   5.334   2.310   5.726  0.6000 -0.8461  0.7802
34844SOL    HW2 9471   5.343   2.430   5.818  0.1114 -1.8486  2.1689
34845SOL     OW 9472  10.845   0.042   0.559 -0.2182 -0.8484 -0.2689
34845SOL    HW1 9473  10.849   0.136   0.541 -1.0965 -0.9920 -1.3272
34845SOL    HW2 9474  10.788   0.007   0.491 -0.3641 -2.0728  0.4506
34846SOL     OW 9475   3.368   3.237   3.551 -0.4539  0.1734  0.0357
34846SOL    HW1 9476   3.411   3.154   3.532 -0.8685 -0.7127  2.6219
34846SOL    HW2 9477   3.314   3.219   3.628 -4.4796  1.5612 -2.1773
34847SOL     OW 9478   9.836   7.283   6.041 -0.4026 -0.0237 -0.5769
34847SOL    HW1 9479   9.830   7.355   6.104  1.4702  0.0617 -0.4154
34847SOL    HW2 9480   9.822   7.204   6.092 -1.6614  0.1725 -0.5997
34848SOL     OW 9481   1.680   2.435   6.633 -0.6499 -0.0698  0.5878
34848SOL    HW1 9482   1.662   2.354   6.587 -1.8984  0.4539  0.1200
34848SOL    HW2 9483   1.595   2.464   6.665 -0.1029  0.6438  1.4466
34849SOL     OW 9484   1.702   1.080   7.417 -0.0498 -0.9777  0.4941
34849SOL    HW1 9485   1.618   1.117   7.390  0.1569 -2.0731 -1.8406
34849SOL    HW2 9486   1.679   1.012   7.480 -0.8976 -1.0811  0.0796
34850SOL     OW 9487   1.812   2.416   5.952 -0.3321  0.1430  0.0007
34850SOL    HW1 9488   1.796   2.407   5.859  0.5133  0.9017 -0.2360
34850SOL    HW2 9489   1.826   2.327   5.983 -0.6947 -0.1199 -0.5789
34851SOL     OW 9490   9.303   0.886   1.052  0.1307 -0.1062  0.1527
34851SOL    HW1 9491   9.363   0.957   1.031 -0.7352  0.5903 -0.0222
34851SOL    HW2 9492   9.258   0.915   1.132 -2.6196  1.1449 -1.6829
34852SOL     OW 9493   4.780   3.457   6.013 -0.0272 -0.3615 -0.0082
34852SOL    HW1 9494   4.733   3.459   5.930 -1.2495 -0.2354  0.6717
34852SOL    HW2 9495   4.826   3.373   6.012  1.0761  0.2151 -1.3827
34853SOL     OW 9496   1.734   4.576   3.545 -0.0027  0.3240 -0.3409
34853SOL    HW1 9497   1.811   4.626   3.571 -1.0278  0.9080  1.8471
34853SOL    HW2 9498   1.715   4.520   3.621 -0.0208 -2.0128 -1.9733
34854SOL     OW 9499   1.329   6.879  11.468 -0.1969 -0.2518  0.2885
34854SOL    HW1 9500   1.303   6.904  11.557 -1.4279 -0.4751  0.0099
34854SOL    HW2 9501   1.405   6.822  11.481  0.8798  1.2832  1.0721
34855SOL     OW 9502   8.293  11.124   4.980  0.1513 -0.6916 -0.5581
34855SOL    HW1 9503   8.354  11.187   4.942 -0.1096 -1.0961 -1.6605
34855SOL    HW2 9504   8.217  11.176   5.005  0.9342 -0.1698  0.8924
34856SOL     OW 9505   5.116   8.767   7.641  0.6540 -0.7482  0.3013
34856SOL    HW1 9506   5.142   8.802   7.556  0.4589 -3.5268 -1.0138
34856SOL    HW2 9507   5.197   8.766   7.692  0.9416  0.1846 -0.1188
34857SOL     OW 9508   7.540   3.444   8.014  0.5460  0.6847 -0.1225
34857SOL    HW1 9509   7.476   3.439   8.085 -1.0394 -1.3168 -1.5953
34857SOL    HW2 9510   7.612   3.388   8.042 -2.5745 -5.3085 -2.2413
34858SOL     OW 9511   6.713   3.966   2.171 -0.0802  0.3672  0.8367
34858SOL    HW1 9512   6.671   3.966   2.085 -1.3378  1.7468  1.4096
34858SOL    HW2 9513   6.778   4.037   2.167  0.8552 -0.4777  0.5973
34859SOL     OW 9514   5.196   9.746   0.422  0.1575 -0.5817  0.4156
34859SOL    HW1 9515   5.219   9.769   0.512 -2.2032 -0.4556  1.0613
34859SOL    HW2 9516   5.124   9.804   0.400 -0.4031 -1.7380 -0.9595
34860SOL     OW 9517   9.476   6.122   0.708 -0.0140 -0.1959  0.4320
34860SOL    HW1 9518   9.488   6.191   0.643 -1.5931  0.9579  1.3000
34860SOL    HW2 9519   9.507   6.161   0.790 -2.0219 -0.0352  1.1584
34861SOL     OW 9520   7.785   2.206   2.619  0.6955 -0.2038 -0.3306
34861SOL    HW1 9521   7.825   2.264   2.683 -0.4090  1.8592 -1.3998
34861SOL    HW2 9522   7.857   2.180   2.561  1.3992 -0.8098  0.7960
34862SOL     OW 9523   6.959   7.004  10.647 -0.3309 -0.0748 -0.1370
34862SOL    HW1 9524   7.005   6.921  10.633 -1.8692 -0.8457 -0.8000
34862SOL    HW2 9525   7.029   7.070  10.650  0.9169 -1.3902  0.4572
34863SOL     OW 9526   1.905   7.395   9.128 -0.3066 -0.1856  0.6993
34863SOL    HW1 9527   1.836   7.450   9.091 -1.4504 -1.2129  1.2301
34863SOL    HW2 9528   1.924   7.435   9.213 -1.4621 -0.8284  1.2864
34864SOL     OW 9529   6.525   8.911   9.673 -0.1795  0.0156  0.2303
34864SOL    HW1 9530   6.447   8.863   9.647  0.0562 -0.2298 -0.0368
34864SOL    HW2 9531   6.494   8.977   9.736 -0.3933 -0.9909  1.1990
34865SOL     OW 9532   0.496   8.511   2.591 -0.1499  0.1811 -0.0565
34865SOL    HW1 9533   0.570   8.566   2.566  0.6641 -1.2785 -0.9709
34865SOL    HW2 9534   0.425   8.536   2.531 -0.1423  0.9697  0.2514
34866SOL     OW 9535  10.434   7.086   6.599 -0.1637 -0.2104 -0.0080
34866SOL    HW1 9536  10.386   7.169   6.606  1.3353  0.5353  3.1896
34866SOL    HW2 9537  10.414   7.040   6.680  1.7969 -1.3822 -0.1381
34867SOL     OW 9538   1.135  10.400   1.164  0.9184 -0.2548 -0.4949
34867SOL    HW1 9539   1.153  10.397   1.070 -0.3682 -2.4748 -0.7428
34867SOL    HW2 9540   1.041  10.385   1.171  0.9022  0.4000  1.1443
34868SOL     OW 9541   5.482   8.987   9.032  0.0642  0.6194 -0.4972
34868SOL    HW1 9542   5.519   8.956   9.115  1.2465  0.4722 -1.0548
34868SOL    HW2 9543   5.458   9.077   9.049 -1.1119  0.1574  0.4331
34869SOL     OW 9544   5.238   7.465   8.435  0.2298  0.5488  0.6319
34869SOL    HW1 9545   5.204   7.554   8.439 -0.6977  0.4640 -2.6686
34869SOL    HW2 9546   5.293   7.463   8.357 -1.4140 -2.2114 -0.6052
34870SOL     OW 9547   2.493   3.637   4.421  0.4158 -0.6903  0.5186
34870SOL    HW1 9548   2.575   3.596   4.393  0.7427 -0.2591  0.8398
34870SOL    HW2 9549   2.509   3.664   4.511 -0.0327 -0.4727  0.5352
34871SOL     OW 9550  10.382  10.130   0.556 -0.0623  0.2333 -0.2152
34871SOL    HW1 9551  10.450  10.074   0.520 -0.6462 -1.4435  1.1840
34871SOL    HW2 9552  10.429  10.201   0.600  0.6756  0.8604 -1.9140
34872SOL     OW 9553   0.743   2.190   5.356 -0.2562 -0.1838 -0.1806
34872SOL    HW1 9554   0.661   2.208   5.309  0.4245 -2.5626 -2.6074
34872SOL    HW2 9555   0.731   2.101   5.390  0.7876 -0.0093  0.6737
34873SOL     OW 9556   3.799   0.919   7.963 -0.9565  0.1253  0.0166
34873SOL    HW1 9557   3.832   0.838   7.924  0.9492  0.4247  0.9091
34873SOL    HW2 9558   3.794   0.980   7.890  0.0087 -0.0848 -0.2372
34874SOL     OW 9559   4.476   7.215   9.786 -0.2246  0.3759 -0.0871
34874SOL    HW1 9560   4.538   7.183   9.721  0.7998  0.2084  0.9499
34874SOL    HW2 9561   4.439   7.136   9.825  0.6901  0.4464  0.9542
34875SOL     OW 9562   6.745   2.619  11.294 -0.3336 -0.3702 -0.4466
34875SOL    HW1 9563   6.752   2.622  11.199  0.9937  2.3286 -0.3657
34875SOL    HW2 9564   6.809   2.683  11.325  0.1289 -2.0228  2.3528
34876SOL     OW 9565   2.516   4.520   9.338 -0.0511  0.1921  0.1107
34876SOL    HW1 9566   2.468   4.602   9.347  0.1653  0.2994  0.2930
34876SOL    HW2 9567   2.605   4.546   9.314 -0.0701 -0.0040 -0.1848
34877SOL     OW 9568   2.937   2.499   1.343 -0.0485 -0.0226 -0.4756
34877SOL    HW1 9569   3.023   2.488   1.303 -0.9685  0.3378 -2.6654
34877SOL    HW2 9570   2.956   2.520   1.435  2.1316 -1.4588 -0.5128
34878SOL     OW 9571  11.229   3.842   1.434 -0.4467 -0.6683  0.4208
34878SOL    HW1 9572  11.246   3.748   1.438 -0.0089 -0.7275 -1.5467
34878SOL    HW2 9573  11.171   3.852   1.359  1.7323  0.8533 -1.1968
34879SOL     OW 9574  11.120   0.861   2.960  0.1194  0.3734 -0.0885
34879SOL    HW1 9575  11.097   0.770   2.942 -0.3893  0.3904  0.4405
34879SOL    HW2 9576  11.202   0.856   3.009 -0.3268  0.1469  0.6581
34880SOL     OW 9577   5.078  10.912  10.794 -0.0662 -0.1195  0.4288
34880SOL    HW1 9578   5.157  10.966  10.787 -0.9669  1.1977 -0.0811
34880SOL    HW2 9579   5.033  10.925  10.710 -0.7724 -0.9316  0.6683
34881SOL     OW 9580  10.334  10.084   1.732 -0.6764  0.5230  0.0743
34881SOL    HW1 9581  10.419  10.129   1.735 -0.5889  0.4356 -0.6692
34881SOL    HW2 9582  10.303  10.084   1.822 -0.3721  1.4959  0.1912
34882SOL     OW 9583   8.527   4.842   7.516 -0.5126  0.3374 -0.3471
34882SOL    HW1 9584   8.444   4.853   7.563 -0.3278  0.1978  0.0202
34882SOL    HW2 9585   8.594   4.856   7.584 -0.2316 -2.4588  0.0459
34883SOL     OW 9586   2.714   8.383   4.418 -0.5796  0.5497 -0.5424
34883SOL    HW1 9587   2.736   8.321   4.348 -2.7062 -1.8685  0.7741
34883SOL    HW2 9588   2.743   8.340   4.498 -1.2657  1.7125  0.3593
34884SOL     OW 9589   3.184   7.285   9.337 -0.4077  0.4382  0.3849
34884SOL    HW1 9590   3.233   7.346   9.392 -0.4685 -0.0529  0.9993
34884SOL    HW2 9591   3.093   7.311   9.349 -0.5564 -0.5484  1.6701
34885SOL     OW 9592   8.403   1.545   0.828 -0.2343 -0.3493  0.5097
34885SOL    HW1 9593   8.436   1.613   0.886  0.9377 -0.8603  0.4586
34885SOL    HW2 9594   8.418   1.463   0.876 -2.6371 -0.5591  1.0738
34886SOL     OW 9595   8.332   0.860  10.482  0.4093 -0.0065  0.1357
34886SOL    HW1 9596   8.404   0.874  10.543 -0.1737 -0.5243  0.9747
34886SOL    HW2 9597   8.256   0.899  10.525 -0.0579 -0.5864 -0.1409
34887SOL     OW 9598   8.238   1.601  11.189 -0.5937 -0.3340 -0.4102
34887SOL    HW1 9599   8.267   1.672  11.246 -1.8255  0.0573 -0.2281
34887SOL    HW2 9600   8.310   1.538  11.190  0.4080  0.7719 -0.3453
34888SOL     OW 9601  11.413   8.004   5.091  0.5268  0.5100 -0.4507
34888SOL    HW1 9602  11.321   7.997   5.120  0.1448  1.0393 -1.4848
34888SOL    HW2 9603  11.461   8.028   5.171 -0.3308  0.8909 -0.0311
34889SOL     OW 9604   1.116  10.888   3.534  0.1187 -0.8676  0.5826
34889SOL    HW1 9605   1.155  10.835   3.465 -1.0838 -0.2801 -0.5829
34889SOL    HW2 9606   1.139  10.843   3.615  1.5443 -1.5798 -0.1801
34890SOL     OW 9607   1.793   5.038   1.129  0.5898  0.1036  0.0810
34890SOL    HW1 9608   1.847   5.095   1.184  1.5228  0.0340 -0.7296
34890SOL    HW2 9609   1.848   5.019   1.053 -0.4100 -0.3696 -0.5451
34891SOL     OW 9610   2.656   2.400   6.911  0.6300  0.3538 -0.3049
34891SOL    HW1 9611   2.710   2.386   6.834  1.4681  1.6690  0.0104
34891SOL    HW2 9612   2.670   2.321   6.964  0.3413 -0.3869 -1.2983
34892SOL     OW 9613   5.119  11.479   5.663 -0.7014  0.2310  0.0095
34892SOL    HW1 9614   5.154  11.564   5.636  0.7833 -0.7154 -1.2480
34892SOL    HW2 9615   5.163  11.461   5.746  1.3204 -0.5753 -1.1575
34893SOL     OW 9616   6.588   7.120   2.025 -0.3387 -0.1861 -0.4723
34893SOL    HW1 9617   6.498   7.113   1.994 -0.3203 -0.4727 -0.4562
34893SOL    HW2 9618   6.638   7.144   1.946 -0.7419  2.1942 -0.0720
34894SOL     OW 9619   6.114   3.977   1.241 -0.1365 -0.0185 -0.0132
34894SOL    HW1 9620   6.038   3.925   1.216  0.2117 -0.4972 -0.0843
34894SOL    HW2 9621   6.189   3.923   1.217  0.2351  0.6994 -0.4719
34895SOL     OW 9622   3.021   7.444   6.513  0.5655 -0.4882 -0.0415
34895SOL    HW1 9623   2.983   7.361   6.488  0.4017 -0.4862  0.1949
34895SOL    HW2 9624   3.102   7.421   6.558  0.7313 -0.5014 -0.3436
34896SOL     OW 9625   5.456   0.666  11.601 -0.5048  0.0814  0.1125
34896SOL    HW1 9626   5.525   0.698  11.543  0.0572 -1.3956 -0.0575
34896SOL    HW2 9627   5.463   0.721  11.679 -0.4033  1.2070 -0.6703
34897SOL     OW 9628   5.520   5.824   1.890  0.1738 -0.3436  0.1662
34897SOL    HW1 9629   5.450   5.769   1.925  0.4029 -1.1699 -0.6427
34897SOL    HW2 9630   5.601   5.780   1.915  0.4074  0.3917  0.7405
34898SOL     OW 9631   3.201   6.729  10.099  0.1587 -0.0791 -0.2391
34898SOL    HW1 9632   3.219   6.755  10.189 -1.5639 -0.0209  0.1202
34898SOL    HW2 9633   3.151   6.647  10.107  0.2007 -0.2006 -1.1416
34899SOL     OW 9634   0.323   9.994  10.889  0.9587  0.0949  0.3888
34899SOL    HW1 9635   0.386  10.064  10.874 -0.3522  1.9870  2.9618
34899SOL    HW2 9636   0.375   9.924  10.929  2.1767 -0.2679 -1.6803
34900SOL     OW 9637  11.266   5.829   6.601  0.4251  0.0462 -0.1245
34900SOL    HW1 9638  11.175   5.828   6.628  0.2300  0.7768 -0.7016
34900SOL    HW2 9639  11.316   5.829   6.682 -0.0640 -1.2173  0.1897
34901SOL     OW 9640   2.882  10.091   9.612  0.1112  0.1032  0.3929
34901SOL    HW1 9641   2.821  10.137   9.554  1.1935  0.5766 -0.3892
34901SOL    HW2 9642   2.841  10.097   9.698 -0.7787  0.7144 -0.0541
34902SOL     OW 9643   6.814   9.019   3.258  0.2570 -0.2118 -0.3426
34902SOL    HW1 9644   6.752   8.950   3.282  1.3200 -1.6984 -1.6638
34902SOL    HW2 9645   6.894   8.997   3.305  0.2252  0.9176  0.2748
34903SOL     OW 9646   9.053   1.820   1.298 -0.4937 -0.0237  0.0705
34903SOL    HW1 9647   8.961   1.811   1.321 -0.0500 -2.4343  1.2847
34903SOL    HW2 9648   9.078   1.732   1.269  1.9366 -0.0381  1.9062
34904SOL     OW 9649   6.447   5.547   8.900 -0.2225 -0.5103  0.1453
34904SOL    HW1 9650   6.393   5.620   8.868  2.3865  0.4919 -2.4187
34904SOL    HW2 9651   6.416   5.471   8.851 -0.5666 -0.3905  0.1696
34905SOL     OW 9652   5.305   1.518   7.091  0.5483  0.1313  0.4549
34905SOL    HW1 9653   5.274   1.547   7.006  2.4228  1.1048  0.0667
34905SOL    HW2 9654   5.226   1.514   7.145 -0.7269 -0.8269 -1.3789
34906SOL     OW 9655   3.689   8.585   3.801 -0.3074 -0.4719  0.1441
34906SOL    HW1 9656   3.769   8.563   3.752  0.1876  0.5607  0.4499
34906SOL    HW2 9657   3.649   8.500   3.820  0.3210 -0.9735 -0.6651
34907SOL     OW 9658   5.497   1.130   8.691 -0.0120  0.1434 -0.4883
34907SOL    HW1 9659   5.511   1.074   8.767  3.8337 -0.8246 -1.7236
34907SOL    HW2 9660   5.450   1.206   8.726  1.2811 -0.3980  2.7754
34908SOL     OW 9661   7.853   9.572   7.351 -0.0582 -0.1397  0.0944
34908SOL    HW1 9662   7.932   9.565   7.405 -0.3294 -0.4808  0.4487
34908SOL    HW2 9663   7.797   9.500   7.380 -1.0790  0.9002  0.8198
34909SOL     OW 9664   7.348   2.272   3.798  0.1334  0.2582 -1.1257
34909SOL    HW1 9665   7.436   2.299   3.824  0.4033 -1.0036 -0.6627
34909SOL    HW2 9666   7.351   2.176   3.799 -0.8883  0.1921 -2.3528
34910SOL     OW 9667   2.400   5.396   3.488  0.2686 -0.3359  0.4691
34910SOL    HW1 9668   2.415   5.372   3.579 -2.3110 -0.7799  0.8371
34910SOL    HW2 9669   2.454   5.473   3.475  0.1038  0.2075  2.6121
34911SOL     OW 9670   0.442   5.493   8.669 -0.2787  0.4632 -0.2397
34911SOL    HW1 9671   0.510   5.536   8.617  0.6784  1.7452  1.9198
34911SOL    HW2 9672   0.475   5.496   8.759 -1.8347 -1.6529  0.4967
34912SOL     OW 9673   9.002  11.152   1.669 -0.2528 -0.4936 -0.0893
34912SOL    HW1 9674   8.961  11.134   1.584  0.4784 -0.9602 -0.3608
34912SOL    HW2 9675   9.021  11.065   1.705  2.0353 -0.3329 -0.7613
34913SOL     OW 9676   1.347   0.349   5.708  0.0410 -0.2648 -0.0060
34913SOL    HW1 9677   1.435   0.387   5.706  0.4654 -1.1757  0.6645
34913SOL    HW2 9678   1.361   0.255   5.722 -1.0669 -0.2326  1.6044
34914SOL     OW 9679   0.076  11.325   9.281 -0.6505 -0.3142 -0.6662
34914SOL    HW1 9680   0.013  11.393   9.258 -1.5115 -0.8214  0.0869
34914SOL    HW2 9681   0.105  11.289   9.197  1.8792  2.7178 -1.2434
34915SOL     OW 9682   9.068   1.252   6.545 -0.0873  0.3263  0.0604
34915SOL    HW1 9683   9.014   1.244   6.466  0.0392  0.2915 -0.0219
34915SOL    HW2 9684   9.157   1.265   6.512  0.1325 -0.7558  0.1896
34916SOL     OW 9685   6.690  11.517  11.685 -0.4223  0.1220  0.2098
34916SOL    HW1 9686   6.784  11.535  11.679 -0.4361  0.2129  0.2662
34916SOL    HW2 9687   6.674  11.504  11.779 -0.4946  0.2667  0.2178
34917SOL     OW 9688  10.843  10.864   1.664  0.2978  0.4593 -0.6399
34917SOL    HW1 9689  10.883  10.951   1.665 -1.0824  1.1168 -1.0951
34917SOL    HW2 9690  10.752  10.879   1.642  0.0007 -1.1059 -0.6147
34918SOL     OW 9691   3.526   5.051   4.971 -0.1329 -0.6684 -0.2916
34918SOL    HW1 9692   3.564   4.988   5.032  0.3773 -1.3948 -1.3302
34918SOL    HW2 9693   3.496   4.998   4.898 -1.1783  0.1369 -0.4725
34919SOL     OW 9694  11.189   8.672   4.349 -0.7059 -0.4935  0.4116
34919SOL    HW1 9695  11.221   8.642   4.264  0.5410  0.9146  0.3421
34919SOL    HW2 9696  11.097   8.645   4.351 -0.2259 -2.3497 -0.5028
34920SOL     OW 9697  10.196   8.191   5.406 -0.0959 -0.4614 -0.3938
34920SOL    HW1 9698  10.123   8.252   5.412 -0.6754 -1.2569  1.5958
34920SOL    HW2 9699  10.266   8.241   5.365 -1.1247  0.9431 -0.5171
34921SOL     OW 9700   0.216   7.493   7.502 -0.3281 -0.1875 -0.3695
34921SOL    HW1 9701   0.298   7.467   7.460  1.1925  2.7376  0.5646
34921SOL    HW2 9702   0.199   7.423   7.565  1.1867 -1.0779 -0.8912
34922SOL     OW 9703   3.765   3.953  11.293  0.1055  0.0853  0.8043
34922SOL    HW1 9704   3.768   3.896  11.216  0.3530 -0.1477  0.9856
34922SOL    HW2 9705   3.777   3.895  11.367 -4.6548 -0.4514  1.4752
34923SOL     OW 9706   3.025   5.445  11.577  0.8462  0.1250  0.5423
34923SOL    HW1 9707   2.942   5.487  11.555  1.0700 -0.0640 -0.7696
34923SOL    HW2 9708   3.060   5.416  11.492  1.4110 -1.3622  1.2518
34924SOL     OW 9709   8.243   9.894   0.526 -0.1311 -0.1703 -0.1883
34924SOL    HW1 9710   8.281   9.897   0.614 -0.8795 -0.8430  0.1760
34924SOL    HW2 9711   8.316   9.915   0.467  0.9788 -1.9487  0.4444
34925SOL     OW 9712   5.400   9.709   2.262 -0.7363  0.3111 -0.3339
34925SOL    HW1 9713   5.421   9.618   2.241 -1.1967  0.1315 -0.0415
34925SOL    HW2 9714   5.307   9.707   2.283 -1.1416  1.1385 -1.9134
34926SOL     OW 9715  10.012   5.618  10.106  0.5276  0.5532 -0.5965
34926SOL    HW1 9716  10.021   5.539  10.159  1.1123  1.5096  0.7663
34926SOL    HW2 9717  10.086   5.614  10.045 -0.3116 -0.6919 -1.5959
34927SOL     OW 9718  10.506   7.679   1.315 -0.4322 -0.4316  0.0447
34927SOL    HW1 9719  10.428   7.732   1.301 -0.5669  0.0298  2.2096
34927SOL    HW2 9720  10.569   7.739   1.355  0.9573 -0.8804 -1.3706
34928SOL     OW 9721   3.352   1.486   8.623 -0.0053  0.8529 -0.3730
34928SOL    HW1 9722   3.332   1.393   8.616  1.3996  0.5689 -0.7837
34928SOL    HW2 9723   3.278   1.522   8.673 -0.3931 -0.5267  0.0911
34929SOL     OW 9724  11.030   6.750   3.638  0.3295 -0.1668  0.5058
34929SOL    HW1 9725  10.975   6.673   3.652 -1.1801  0.9285  0.8263
34929SOL    HW2 9726  10.980   6.803   3.575  0.5993  1.2594  1.4630
34930SOL     OW 9727   4.889   5.930   0.695 -0.1241  0.6399  0.3015
34930SOL    HW1 9728   4.824   5.905   0.630 -0.0921 -1.3026  0.9520
34930SOL    HW2 9729   4.846   5.917   0.779  1.2402 -1.3207  0.7665
34931SOL     OW 9730   5.426   9.401   2.292 -0.5996 -0.6583 -0.2329
34931SOL    HW1 9731   5.443   9.354   2.210 -0.5040 -2.6928  0.8840
34931SOL    HW2 9732   5.419   9.332   2.358 -0.5056  0.9272  1.5182
34932SOL     OW 9733   3.381   0.647   1.684  0.2603 -0.0653 -0.1042
34932SOL    HW1 9734   3.387   0.700   1.605  0.6893 -2.5275 -1.8457
34932SOL    HW2 9735   3.471   0.619   1.701  0.1517  0.3019  1.1891
34933SOL     OW 9736   6.963   5.198  10.475 -0.2881  0.5849 -0.4077
34933SOL    HW1 9737   7.059   5.189  10.477 -0.1422  1.6244 -1.4813
34933SOL    HW2 9738   6.948   5.292  10.482 -1.1959  0.4949 -0.9810
34934SOL     OW 9739  11.421   9.052   0.028 -0.2065 -0.0819  0.3294
34934SOL    HW1 9740  11.393   8.979   0.083 -1.2132  0.7080  0.9116
34934SOL    HW2 9741  11.372   9.127   0.062  1.0043  0.9236 -0.0720
34935SOL     OW 9742   7.309   9.919   4.642  0.5354  0.4130 -0.4380
34935SOL    HW1 9743   7.268   9.988   4.694 -1.6818 -0.1884 -1.2541
34935SOL    HW2 9744   7.276   9.933   4.553  0.8385 -1.0841 -0.8253
34936SOL     OW 9745   6.895   8.544   4.178 -0.0878 -0.0220  0.3404
34936SOL    HW1 9746   6.833   8.508   4.114  0.8506 -0.8273 -0.1451
34936SOL    HW2 9747   6.958   8.593   4.124  0.0749  0.2386  0.7641
34937SOL     OW 9748   2.865   1.834   0.625  0.3925 -0.8787  0.7171
34937SOL    HW1 9749   2.922   1.910   0.635 -0.6218 -0.0631  0.5110
34937SOL    HW2 9750   2.797   1.847   0.691 -0.8140 -0.6346 -0.5404
34938SOL     OW 9751   3.630   2.541   6.451  0.0957 -0.0893 -0.6735
34938SOL    HW1 9752   3.679   2.595   6.514  1.9797 -0.0834 -2.0681
34938SOL    HW2 9753   3.643   2.451   6.482 -0.8144  0.0300  0.1306
34939SOL     OW 9754   3.022   3.488   3.153  0.1390  0.0818 -0.2784
34939SOL    HW1 9755   2.929   3.465   3.152 -0.5311  2.4572 -0.8065
34939SOL    HW2 9756   3.043   3.498   3.245 -0.7025  1.3454 -0.1889
34940SOL     OW 9757  10.298   9.295   7.465  0.4079  0.0224 -0.2525
34940SOL    HW1 9758  10.271   9.231   7.530 -1.8662  0.5844 -0.5741
34940SOL    HW2 9759  10.221   9.350   7.450  1.8034  1.9086 -1.0987
34941SOL     OW 9760   2.319  10.259   3.409 -0.2155  0.2010 -0.3586
34941SOL    HW1 9761   2.342  10.169   3.388 -2.6939 -0.2688 -1.4975
34941SOL    HW2 9762   2.390  10.312   3.373  0.7783 -1.2316 -0.5746
34942SOL     OW 9763   5.831   3.219   7.364  0.0645  0.6560  0.0485
34942SOL    HW1 9764   5.833   3.150   7.431 -1.8410  1.5512  1.1117
34942SOL    HW2 9765   5.842   3.300   7.413 -0.5698  1.2749 -0.8017
34943SOL     OW 9766   9.552   3.787   3.549 -0.1604 -0.3312  0.1261
34943SOL    HW1 9767   9.590   3.737   3.622  0.6887 -1.7305 -1.2229
34943SOL    HW2 9768   9.475   3.737   3.523  0.4279 -0.7208 -0.9315
34944SOL     OW 9769   7.892   1.604   6.262  0.3667 -0.3785 -0.1762
34944SOL    HW1 9770   7.973   1.564   6.294  0.5920  1.2603  1.4579
34944SOL    HW2 9771   7.919   1.656   6.186  0.8914  0.2488  0.4283
34945SOL     OW 9772   6.733   9.113   4.386  0.0469  0.1658 -0.4526
34945SOL    HW1 9773   6.676   9.042   4.416 -1.4722  1.7689  0.6636
34945SOL    HW2 9774   6.787   9.074   4.318 -2.0434 -1.5805 -1.2068
34946SOL     OW 9775   8.278   2.163   8.763  0.2216 -0.0284  0.4623
34946SOL    HW1 9776   8.348   2.225   8.744 -1.0641  1.3116 -0.0449
34946SOL    HW2 9777   8.234   2.150   8.679 -1.1731  0.4779  1.0825
34947SOL     OW 9778   2.343   2.213   1.437 -0.4323 -0.1144  0.2240
34947SOL    HW1 9779   2.402   2.286   1.459 -0.1675 -0.2528 -0.0266
34947SOL    HW2 9780   2.315   2.231   1.347 -0.4351 -0.2763  0.1926
34948SOL     OW 9781   6.627   7.281   0.401 -0.7109  0.1196  0.3228
34948SOL    HW1 9782   6.630   7.247   0.312 -1.2584  1.2703 -0.1552
34948SOL    HW2 9783   6.647   7.206   0.456  0.4357 -0.4320 -0.7953
34949SOL     OW 9784   8.539   5.527   8.329  0.0427 -0.0606  0.0146
34949SOL    HW1 9785   8.452   5.529   8.368 -0.0351  2.2064 -0.1277
34949SOL    HW2 9786   8.530   5.578   8.249  1.3957 -0.2087 -0.2483
34950SOL     OW 9787  10.866   7.187   2.791  0.0960  0.7279  0.7120
34950SOL    HW1 9788  10.832   7.123   2.728 -0.1915  0.1704  1.4142
34950SOL    HW2 9789  10.833   7.271   2.759 -1.6782  0.2419  1.1595
34951SOL     OW 9790   0.456   5.375   9.321  0.5276  0.1102 -0.0306
34951SOL    HW1 9791   0.418   5.292   9.295  1.5291 -0.5968  0.6833
34951SOL    HW2 9792   0.384   5.423   9.362  0.1960 -0.8513  0.5410
34952SOL     OW 9793   4.106   8.443   7.661 -0.2734  0.6906 -0.1235
34952SOL    HW1 9794   4.169   8.471   7.727 -0.5591 -0.5931  0.7325
34952SOL    HW2 9795   4.137   8.356   7.633 -0.1212  1.2225 -1.7368
34953SOL     OW 9796   7.447   9.239   7.988  1.3961  0.3935  0.2779
34953SOL    HW1 9797   7.375   9.302   7.994  1.1368  0.1444 -0.1177
34953SOL    HW2 9798   7.490   9.260   7.905 -0.7462 -2.0357 -1.6439
34954SOL     OW 9799   1.680   7.391  11.571 -0.0082 -0.0390 -0.0924
34954SOL    HW1 9800   1.686   7.390  11.667  1.2326 -0.2314 -0.1538
34954SOL    HW2 9801   1.736   7.464  11.544  3.0804 -2.4383 -0.8055
34955SOL     OW 9802  11.495  11.064   5.127 -0.2137 -0.1137  0.9127
34955SOL    HW1 9803  11.423  11.044   5.186 -0.5028 -1.1229  0.2408
34955SOL    HW2 9804  11.559  10.994   5.142  0.2116  0.2507  0.8334
34956SOL     OW 9805   7.400  10.069   4.107 -0.4344  0.0334  0.2649
34956SOL    HW1 9806   7.454  10.038   4.180  0.5517  0.6508 -0.1878
34956SOL    HW2 9807   7.406   9.999   4.042 -1.4113 -0.5741  0.7890
34957SOL     OW 9808   9.215   1.935  10.501 -0.7017 -0.2770 -0.5839
34957SOL    HW1 9809   9.217   2.031  10.496  2.5277 -0.2499 -1.6772
34957SOL    HW2 9810   9.295   1.913  10.549 -1.4455 -2.4210 -0.2534
34958SOL     OW 9811   9.627   9.447  11.264 -0.1084  0.0646  0.6887
34958SOL    HW1 9812   9.598   9.481  11.349 -0.8120 -1.0735  0.9232
34958SOL    HW2 9813   9.596   9.357  11.263 -0.3369  0.1433 -0.9051
34959SOL     OW 9814   9.354   1.426   9.406  0.2879 -0.1160  0.0525
34959SOL    HW1 9815   9.261   1.424   9.430  0.9206 -0.6122  2.9014
34959SOL    HW2 9816   9.362   1.503   9.350 -1.7913  0.0914 -0.0677
34960SOL     OW 9817   1.771  10.033   4.244  0.8384 -0.1964 -0.1668
34960SOL    HW1 9818   1.722   9.976   4.303  0.0661 -0.7214 -1.2803
34960SOL    HW2 9819   1.715  10.042   4.167  2.0071  0.1093 -1.0059
34961SOL     OW 9820   2.448   1.076   3.172 -0.3745  0.4161 -0.1323
34961SOL    HW1 9821   2.446   0.984   3.145  0.0781  0.1358  0.7468
34961SOL    HW2 9822   2.488   1.075   3.259 -0.7202  1.4120  0.0540
34962SOL     OW 9823  10.048   2.613   7.008 -0.3155  0.5522 -0.0232
34962SOL    HW1 9824  10.109   2.540   7.000  1.0793  1.5999  0.5996
34962SOL    HW2 9825  10.012   2.605   7.096  0.0410  0.7656  0.1423
34963SOL     OW 9826   8.549   8.386   6.096  0.0083  0.3554 -0.0222
34963SOL    HW1 9827   8.537   8.357   6.187  1.3700 -0.5395 -0.0850
34963SOL    HW2 9828   8.462   8.410   6.066 -1.6146 -4.6576 -0.2527
34964SOL     OW 9829   6.312   1.517   3.300  0.0694  0.1027  0.5069
34964SOL    HW1 9830   6.328   1.550   3.389 -1.0829  1.8523  0.1080
34964SOL    HW2 9831   6.257   1.583   3.259  1.4470 -0.1175 -1.9103
34965SOL     OW 9832   6.778  10.976  10.263 -0.0524  0.4968 -0.1151
34965SOL    HW1 9833   6.698  11.030  10.267 -0.6699 -0.3789 -0.2794
34965SOL    HW2 9834   6.790  10.960  10.169 -1.9759 -2.6195  0.0267
34966SOL     OW 9835   5.688   4.725   2.922 -0.0997  0.4131  0.0064
34966SOL    HW1 9836   5.686   4.640   2.878 -1.5214  0.0752  0.6593
34966SOL    HW2 9837   5.599   4.736   2.957  0.9781  0.5360  3.0128
34967SOL     OW 9838   9.730   0.428  10.121 -0.2472  0.8026  0.3729
34967SOL    HW1 9839   9.775   0.500  10.077  0.1007  0.3146 -0.0892
34967SOL    HW2 9840   9.676   0.470  10.187  0.4243  1.4464  0.5255
34968SOL     OW 9841   4.658   2.404   1.574 -0.2627  0.0836  0.3388
34968SOL    HW1 9842   4.579   2.360   1.541 -0.0838  0.5315 -0.7556
34968SOL    HW2 9843   4.628   2.490   1.601  0.0364  0.7736 -1.3748
34969SOL     OW 9844   2.947   2.834   0.158  0.3985  0.3070  0.2398
34969SOL    HW1 9845   2.987   2.768   0.100 -0.2296  0.7680 -0.7435
34969SOL    HW2 9846   2.933   2.910   0.102 -0.3744  0.7204  0.9708
34970SOL     OW 9847  10.086   2.868   8.793 -0.1561  0.0959  0.3389
34970SOL    HW1 9848  10.089   2.784   8.838  0.9455  0.7919  1.6641
34970SOL    HW2 9849  10.178   2.896   8.789 -0.0345 -0.4382 -3.4347
34971SOL     OW 9850   6.308   9.357   2.964 -0.5364 -0.1483  0.5037
34971SOL    HW1 9851   6.334   9.399   3.046 -0.3101  1.0735 -0.1693
34971SOL    HW2 9852   6.327   9.265   2.977  2.7689  0.4130  0.6396
34972SOL     OW 9853   0.163   3.007   2.212  0.5128 -0.1674 -0.3621
34972SOL    HW1 9854   0.132   3.060   2.138  2.4050  0.4840 -0.7374
34972SOL    HW2 9855   0.253   3.035   2.225  0.0326  0.2249  2.6855
34973SOL     OW 9856   1.740  11.403   3.722  0.8317  0.2002 -0.3572
34973SOL    HW1 9857   1.691  11.460   3.780  0.0208 -0.3140 -0.5073
34973SOL    HW2 9858   1.785  11.341   3.780 -1.0272 -1.1572 -0.2530
34974SOL     OW 9859   3.659   1.693   5.542 -0.4397  1.0025 -0.0077
34974SOL    HW1 9860   3.629   1.684   5.452  1.3258  0.8054 -0.6227
34974SOL    HW2 9861   3.694   1.782   5.547  1.7363  0.2451 -0.3158
34975SOL     OW 9862   1.533  10.417   1.446 -0.7398  0.1449  0.0469
34975SOL    HW1 9863   1.439  10.418   1.464 -0.5267 -0.4140  1.2884
34975SOL    HW2 9864   1.539  10.419   1.351 -1.9965  0.6992 -0.0373
34976SOL     OW 9865   1.325   0.445   1.149  0.6221 -0.0876 -0.2793
34976SOL    HW1 9866   1.272   0.487   1.082  1.0663  0.0031 -0.5799
34976SOL    HW2 9867   1.409   0.429   1.107  1.0328  0.3073  0.3607
34977SOL     OW 9868   3.935   5.389   0.048 -0.4833 -0.6116  0.5168
34977SOL    HW1 9869   3.878   5.435   0.109 -0.7048 -0.7514  0.4202
34977SOL    HW2 9870   3.924   5.436  -0.035  0.2339 -0.0884  0.7148
34978SOL     OW 9871   1.401   8.845   0.236 -0.0785  0.5023  0.6068
34978SOL    HW1 9872   1.394   8.813   0.146 -0.2408  2.1505  0.0036
34978SOL    HW2 9873   1.319   8.892   0.251  0.5855  1.5497  1.0710
34979SOL     OW 9874  11.603  10.500   7.201  0.5439  0.1842  0.0480
34979SOL    HW1 9875  11.553  10.515   7.120 -1.3896 -1.4310  0.8535
34979SOL    HW2 9876  11.650  10.418   7.185  1.6262  0.8209 -0.0828
34980SOL     OW 9877  10.823   4.179  11.686 -0.2101  0.1184 -0.0217
34980SOL    HW1 9878  10.754   4.206  11.625 -1.8247 -1.3601  1.0232
34980SOL    HW2 9879  10.897   4.155  11.631 -1.2992 -0.2689 -1.3576
34981SOL     OW 9880  10.841   5.539  10.972  0.1732 -0.0306 -0.3745
34981SOL    HW1 9881  10.817   5.611  11.030  1.1644 -0.1048  0.1447
34981SOL    HW2 9882  10.778   5.544  10.900 -0.8982  0.2382  0.5540
34982SOL     OW 9883   8.952  10.759   7.490 -0.1226 -0.1706 -0.2307
34982SOL    HW1 9884   8.900  10.705   7.431  0.8414 -1.2047 -0.1694
34982SOL    HW2 9885   8.942  10.717   7.576  0.4603 -0.1394 -0.1423
34983SOL     OW 9886   3.548   2.433  11.025  0.6319 -0.0945  0.0817
34983SOL    HW1 9887   3.581   2.479  11.102 -2.6051  0.6030  1.2041
34983SOL    HW2 9888   3.565   2.340  11.044  1.1738  0.1613  0.9283
34984SOL     OW 9889   6.514   5.864   6.633 -0.3551 -0.0425 -0.0975
34984SOL    HW1 9890   6.439   5.903   6.678  0.7959  0.5895  1.3500
34984SOL    HW2 9891   6.525   5.778   6.673  0.0874  0.1348  0.1710
34985SOL     OW 9892   5.357   4.941  11.405  0.1413  0.3738  0.1550
34985SOL    HW1 9893   5.282   4.886  11.382 -0.2629  1.4799 -1.2324
34985SOL    HW2 9894   5.340   4.967  11.496  0.2810 -1.6408  0.8110
34986SOL     OW 9895   3.993   2.642  11.111 -0.3177  0.3903  0.1402
34986SOL    HW1 9896   4.051   2.703  11.156 -0.0879 -1.2458  2.2055
34986SOL    HW2 9897   3.908   2.686  11.110  0.4630  1.9864 -1.1877
34987SOL     OW 9898   1.858   3.508   3.026 -0.4892  0.4161  0.5395
34987SOL    HW1 9899   1.762   3.504   3.028 -0.6124 -0.0411 -2.2105
34987SOL    HW2 9900   1.885   3.416   3.029 -0.2388  0.4549 -0.2640
34988SOL     OW 9901   1.467  11.433   4.721  0.2601  0.3559  0.3792
34988SOL    HW1 9902   1.452  11.428   4.816  0.7332  0.8351  0.4797
34988SOL    HW2 9903   1.522  11.358   4.701  1.2292  0.9752  0.6948
34989SOL     OW 9904   0.725   8.551   5.647 -0.4871  0.4985 -0.2026
34989SOL    HW1 9905   0.754   8.608   5.576 -1.0430  0.5387 -0.4045
34989SOL    HW2 9906   0.698   8.470   5.604 -1.2771  0.6906 -0.1041
34990SOL     OW 9907   9.068   5.213   9.783 -0.6066 -0.2528 -0.0070
34990SOL    HW1 9908   9.130   5.167   9.841  1.8022  0.8202 -1.5806
34990SOL    HW2 9909   9.018   5.143   9.741  2.2806 -1.5234 -1.6148
34991SOL     OW 9910   6.170   9.153   7.928 -0.5525 -0.4409 -0.0170
34991SOL    HW1 9911   6.249   9.114   7.890 -1.3845 -1.2423 -0.9748
34991SOL    HW2 9912   6.099   9.096   7.899 -1.4948  0.2819  0.8112
34992SOL     OW 9913   4.529   8.891  10.941  0.2315 -0.2443 -0.4237
34992SOL    HW1 9914   4.548   8.808  10.985  1.7831  0.4401  0.2838
34992SOL    HW2 9915   4.461   8.932  10.996  1.4507  0.1661  0.8419
34993SOL     OW 9916   2.209   6.745   9.566 -0.5731  0.4870  0.1380
34993SOL    HW1 9917   2.161   6.791   9.636 -1.8244  0.6418 -0.7973
34993SOL    HW2 9918   2.292   6.721   9.607 -0.0501  3.1488  0.8275
34994SOL     OW 9919   1.016   5.767   9.575  0.3327  0.1919  0.5468
34994SOL    HW1 9920   1.067   5.687   9.584  0.7313  0.5393  1.4692
34994SOL    HW2 9921   0.930   5.746   9.611  0.4330  0.1662  0.7744
34995SOL     OW 9922  10.838   7.016   5.593 -0.5218  0.2983  0.0397
34995SOL    HW1 9923  10.807   7.019   5.683 -1.9481  1.3301 -0.4606
34995SOL    HW2 9924  10.768   7.055   5.542  0.4363  0.1005 -1.4821
34996SOL     OW 9925   3.181   3.395   9.390  0.7413 -0.0137  0.0074
34996SOL    HW1 9926   3.096   3.423   9.423  0.4814  0.5788 -1.1161
34996SOL    HW2 9927   3.244   3.457   9.428  0.5456  0.1949 -0.0127
34997SOL     OW 9928  10.104   7.956  10.450  0.5520 -0.6935 -0.7339
34997SOL    HW1 9929  10.083   8.025  10.388  0.0129 -0.5780 -0.4323
34997SOL    HW2 9930  10.200   7.953  10.452  0.6035  0.6070 -0.1503
34998SOL     OW 9931   4.922   1.391   4.766 -0.0232 -0.4904  0.5647
34998SOL    HW1 9932   4.871   1.467   4.792 -0.5765 -0.5554 -0.2887
34998SOL    HW2 9933   4.881   1.317   4.811  0.0437 -0.3853  0.7977
34999SOL     OW 9934   7.989   7.624   3.686 -0.0619  0.6226 -0.4140
34999SOL    HW1 9935   7.968   7.582   3.603 -0.0781 -0.8129  0.2824
34999SOL    HW2 9936   8.061   7.683   3.666  0.7679 -0.6204 -1.2140
35000SOL     OW 9937   3.740   0.606  11.289 -0.2242 -0.0296 -0.1911
35000SOL    HW1 9938   3.686   0.665  11.341 -0.3064  0.8769 -1.2606
35000SOL    HW2 9939   3.761   0.533  11.348 -2.1870 -0.1688  0.3936
35001SOL     OW 9940   2.358   0.808  10.993 -0.0690  0.2283  0.1894
35001SOL    HW1 9941   2.299   0.819  11.067  0.5839  0.1164  0.7318
35001SOL    HW2 9942   2.432   0.758  11.028  0.3957  0.4548 -0.4520
35002SOL     OW 9943   8.887   0.744   0.343 -0.0095 -0.3179 -0.5698
35002SOL    HW1 9944   8.957   0.788   0.392 -0.2541 -0.4704 -0.0771
35002SOL    HW2 9945   8.807   0.786   0.373 -0.2218 -0.9287 -0.2825
35003SOL     OW 9946  10.072  10.910   0.538 -0.8130 -0.1997  0.0010
35003SOL    HW1 9947  10.060  10.837   0.599  1.6164  0.5762  1.5509
35003SOL    HW2 9948  10.059  10.988   0.592  1.0848  0.5093 -0.4917
35004SOL     OW 9949   6.245   9.265   9.147 -0.2910  0.2550 -0.5403
35004SOL    HW1 9950   6.250   9.338   9.209  0.7361 -0.2250 -0.0390
35004SOL    HW2 9951   6.183   9.204   9.187  0.0454  0.1415 -0.1877
35005SOL     OW 9952  11.041   5.419   8.023  0.0322 -0.2516  0.0200
35005SOL    HW1 9953  10.982   5.487   8.057  0.5423 -0.4275  1.3360
35005SOL    HW2 9954  11.063   5.448   7.935  1.3101  2.0302  0.9979
35006SOL     OW 9955   4.198   7.787  10.507  0.0070 -0.1020  0.3902
35006SOL    HW1 9956   4.221   7.812  10.597 -0.3818  0.4472  0.3397
35006SOL    HW2 9957   4.159   7.700  10.516  0.7727 -0.4303  0.6429
35007SOL     OW 9958  10.170   0.318   6.469 -0.0623 -0.3853 -0.5003
35007SOL    HW1 9959  10.196   0.245   6.414 -0.1364 -0.3117 -0.6332
35007SOL    HW2 9960  10.076   0.309   6.478 -0.0017 -0.6052 -0.0846
35008SOL     OW 9961   0.918   6.059   1.401 -0.4313 -0.0759  0.5457
35008SOL    HW1 9962   0.874   6.010   1.471 -2.9310  0.7946 -0.3025
35008SOL    HW2 9963   0.934   5.994   1.333 -0.1976 -0.4612  0.9636
35009SOL     OW 9964   9.777   4.783   3.054 -0.6847 -0.2306  0.6651
35009SOL    HW1 9965   9.790   4.697   3.095  0.0802 -0.0870  0.7425
35009SOL    HW2 9966   9.753   4.764   2.964  1.2800 -0.5413  0.1545
35010SOL     OW 9967   5.717   3.903   8.315  0.4063 -0.2260 -0.1396
35010SOL    HW1 9968   5.777   3.830   8.329  1.1153  0.5486  1.1135
35010SOL    HW2 9969   5.630   3.863   8.311  0.9552 -1.3585 -1.9314
35011SOL     OW 9970   9.729   7.986   9.953 -0.1294 -0.5631 -0.4643
35011SOL    HW1 9971   9.786   8.040  10.008 -1.3837 -1.7832  2.2306
35011SOL    HW2 9972   9.648   8.036   9.945 -1.3246 -1.8770  2.1066
35012SOL     OW 9973   6.737   1.173   1.703  0.0327 -0.5451 -0.1953
35012SOL    HW1 9974   6.699   1.233   1.639  0.5376 -0.5400 -0.4911
35012SOL    HW2 9975   6.753   1.227   1.781 -2.3867 -0.9408  0.6627
35013SOL     OW 9976  10.238   2.242   7.501 -0.2002  0.2569  0.3901
35013SOL    HW1 9977  10.297   2.300   7.549 -0.2629 -1.0715  2.1600
35013SOL    HW2 9978  10.245   2.157   7.546 -1.6049 -0.5893 -0.8820
35014SOL     OW 9979   2.289   0.508   0.099 -0.4823  0.2559  0.1865
35014SOL    HW1 9980   2.300   0.477   0.189 -1.9219  2.5237  1.2398
35014SOL    HW2 9981   2.236   0.587   0.107  0.4383  1.2808 -2.5660
35015SOL     OW 9982  10.781   8.338   9.596  0.3733  0.6871 -0.0115
35015SOL    HW1 9983  10.733   8.420   9.607 -3.2458 -1.0354 -1.4504
35015SOL    HW2 9984  10.753   8.283   9.668 -0.3542 -0.5619 -1.2018
35016SOL     OW 9985   1.071   2.284  10.342 -0.1181  0.2254 -0.0458
35016SOL    HW1 9986   1.038   2.220  10.406  0.5398  0.1718  0.2506
35016SOL    HW2 9987   1.129   2.341  10.393 -1.9925  2.1380  0.0764
35017SOL     OW 9988   7.589   8.324   1.196 -0.3009  0.7139 -0.4219
35017SOL    HW1 9989   7.672   8.370   1.191 -0.7427  1.5477 -0.1617
35017SOL    HW2 9990   7.555   8.343   1.283  0.6765 -2.1632  0.7172
35018SOL     OW 9991   8.701   1.821   5.493  0.3730  0.1884  0.3464
35018SOL    HW1 9992   8.692   1.743   5.437 -0.6970 -0.8956  1.9320
35018SOL    HW2 9993   8.721   1.892   5.432 -2.1009 -0.6439 -1.6133
35019SOL     OW 9994   9.217  10.020   5.556  0.3478 -0.3367 -0.0747
35019SOL    HW1 9995   9.196   9.956   5.488 -1.2005  1.0640 -0.9966
35019SOL    HW2 9996   9.164  10.097   5.534  0.9385  0.7065  1.8818
35020SOL     OW 9997   3.352  11.590   9.558  0.0037 -0.4878  0.2624
35020SOL    HW1 9998   3.262  11.562   9.545 -0.6221  0.9468  1.1787
35020SOL    HW2 9999   3.358  11.673   9.509  0.1847  0.4676  1.8417
35021SOL     OW10000   6.370   2.369  10.450 -0.1580  0.1582  0.0029
35021SOL    HW110001   6.422   2.443  10.419 -0.2773 -0.0919 -0.8079
35021SOL    HW210002   6.314   2.346  10.377  2.4675 -3.0999 -1.2634
35022SOL     OW10003   9.460   8.728   2.658  0.5682  0.1876 -0.2595
35022SOL    HW110004   9.542   8.777   2.650  0.6261  0.0064 -0.7870
35022SOL    HW210005   9.402   8.769   2.593  0.4422 -0.0898 -0.3214
35023SOL     OW10006   3.523   7.879   8.268  0.0951  0.2736 -0.3086
35023SOL    HW110007   3.584   7.861   8.340 -0.5160  1.4917  0.5667
35023SOL    HW210008   3.547   7.966   8.237  1.0549 -0.6658 -2.3706
35024SOL     OW10009   4.267   6.765   0.924 -0.2405 -0.1513 -0.4449
35024SOL    HW110010   4.319   6.784   0.846 -1.2024  1.3203 -0.7703
35024SOL    HW210011   4.253   6.851   0.965 -0.0437 -0.8541  1.1771
35025SOL     OW10012  10.721  11.112   1.363 -0.0181 -0.5471 -0.2105
35025SOL    HW110013  10.745  11.030   1.322  0.7718 -0.1183 -0.6195
35025SOL    HW210014  10.802  11.163   1.366 -0.3345 -0.0594  0.6905
35026SOL     OW10015   2.617   7.802   2.650 -0.0482 -0.0799 -0.5791
35026SOL    HW110016   2.697   7.802   2.702 -0.7954  0.5386  0.6384
35026SOL    HW210017   2.579   7.715   2.665 -0.2085  0.0593 -0.1428
35027SOL     OW10018   1.514   7.639   5.842 -0.3361 -0.3247 -0.0476
35027SOL    HW110019   1.490   7.645   5.935 -0.0461 -2.7205  0.2462
35027SOL    HW210020   1.440   7.596   5.801 -0.6851  1.1761 -1.0826
35028SOL     OW10021   8.480   1.694   1.033 -0.4474  0.3610  0.0496
35028SOL    HW110022   8.539   1.759   1.072 -0.5683  0.2559  0.4138
35028SOL    HW210023   8.393   1.723   1.058 -0.5693  0.6977 -0.7676
35029SOL     OW10024   9.060   2.973   2.016 -0.1200  0.3016  0.5905
35029SOL    HW110025   9.032   2.960   1.925  0.8266  0.8292  0.2114
35029SOL    HW210026   8.982   3.007   2.060 -0.7454 -0.4583  0.1093
35030SOL     OW10027   9.842   5.268   2.061  0.5350 -0.6775 -0.5596
35030SOL    HW110028   9.927   5.233   2.036  0.8936 -1.1833  1.2615
35030SOL    HW210029   9.797   5.195   2.103  0.0340  0.1690  0.4056
35031SOL     OW10030   8.001   5.098   9.297 -0.3667  0.2745  0.0235
35031SOL    HW110031   7.953   5.016   9.306 -0.5365  0.4496  0.8401
35031SOL    HW210032   8.049   5.107   9.380 -0.1909  0.8944 -0.1348
35032SOL     OW10033   8.745   6.191   4.058 -0.1480 -0.5756 -0.2036
35032SOL    HW110034   8.675   6.145   4.105  0.8237 -1.3880  0.4713
35032SOL    HW210035   8.824   6.172   4.107  0.3797  1.4494 -0.1875
35033SOL     OW10036  10.135   3.629   0.262 -0.1273  0.4974  0.6686
35033SOL    HW110037  10.199   3.682   0.310  0.4066 -0.0236  0.5406
35033SOL    HW210038  10.178   3.545   0.249 -0.5625  0.3790 -0.0656
35034SOL     OW10039   4.306   8.750   7.701  0.0381  0.6100  0.3095
35034SOL    HW110040   4.349   8.718   7.621  0.5062  1.0530  0.3710
35034SOL    HW210041   4.368   8.730   7.771  0.2806  1.4936  0.3658
35035SOL     OW10042   4.929   6.670   8.079  0.0436  0.5280  0.0225
35035SOL    HW110043   4.973   6.594   8.118  1.3586  0.9274 -0.6470
35035SOL    HW210044   4.878   6.633   8.007 -0.4525  0.1144  0.5667
35036SOL     OW10045   2.457   6.890  10.060  0.4575 -0.4538 -0.0592
35036SOL    HW110046   2.395   6.907   9.989  0.7784 -2.3270 -0.8399
35036SOL    HW210047   2.412   6.830  10.119 -0.3966  2.2395  2.2730
35037SOL     OW10048   6.743   8.212  10.738  0.4076 -0.9960  0.0953
35037SOL    HW110049   6.691   8.133  10.724 -1.5883  0.1820  0.5368
35037SOL    HW210050   6.728   8.265  10.660  0.3193 -0.3029  0.5771
35038SOL     OW10051   6.370   3.483   4.916  0.2035  0.5046 -0.3998
35038SOL    HW110052   6.285   3.479   4.871  0.3551  1.6763 -0.8404
35038SOL    HW210053   6.404   3.394   4.911 -1.2546 -0.1277  0.3105
35039SOL     OW10054   9.213   5.100   5.034 -0.3106 -0.2068 -0.1233
35039SOL    HW110055   9.241   5.164   5.100 -1.3458 -0.4133  0.5309
35039SOL    HW210056   9.225   5.145   4.950  0.9160  0.0993  0.1917
35040SOL     OW10057  10.158   5.139  11.661  0.7653 -0.6965  0.0771
35040SOL    HW110058  10.241   5.126  11.616  1.0665 -1.0838  0.7261
35040SOL    HW210059  10.092   5.105  11.601  1.1266 -0.8642 -0.2275
35041SOL     OW10060   9.194  11.500   4.130  0.2744 -0.5279 -0.0650
35041SOL    HW110061   9.194  11.584   4.085  0.3663  0.2552  1.3300
35041SOL    HW210062   9.256  11.511   4.202 -2.4643 -0.4086  2.4897
35042SOL     OW10063   0.076  11.603   4.015 -0.3856 -0.0081  0.3442
35042SOL    HW110064   0.145  11.571   4.074 -0.7051  0.5333  1.0302
35042SOL    HW210065   0.010  11.534   4.016 -1.9795  1.3804  3.3490
35043SOL     OW10066   1.059   2.392   5.491  0.4015  0.4417 -0.7545
35043SOL    HW110067   1.123   2.359   5.555  0.0362 -0.5444 -0.8707
35043SOL    HW210068   1.014   2.463   5.536  0.2369 -0.1555  0.0489
35044SOL     OW10069   8.465   0.303   4.742 -0.3982  0.1393 -0.1370
35044SOL    HW110070   8.525   0.235   4.710 -0.1947 -0.0492  0.6215
35044SOL    HW210071   8.504   0.385   4.713 -1.2514 -0.0968 -2.0754
35045SOL     OW10072   7.744   0.101   2.879 -0.5481  0.2143 -0.1342
35045SOL    HW110073   7.813   0.127   2.941  0.7915 -0.0197 -1.4475
35045SOL    HW210074   7.711   0.184   2.844  0.0024  0.3054 -0.4524
35046SOL     OW10075  11.136   3.479   7.208 -0.2946  1.1556  0.0009
35046SOL    HW110076  11.182   3.466   7.125 -0.3787 -3.3434  0.3754
35046SOL    HW210077  11.205   3.494   7.272  0.8016 -3.1467  0.1589
35047SOL     OW10078   4.943  11.426   5.477 -0.2033  0.1007  0.5390
35047SOL    HW110079   4.967  11.487   5.407 -1.4179  0.0073  0.0282
35047SOL    HW210080   5.019  11.427   5.536  0.3340  1.1021 -0.1382
35048SOL     OW10081   2.377   5.151   3.343 -0.0281 -0.3761 -0.5361
35048SOL    HW110082   2.287   5.119   3.348 -0.1079 -0.5512 -2.3302
35048SOL    HW210083   2.376   5.233   3.392 -1.1319 -0.4472 -0.4118
35049SOL     OW10084   3.619   1.917   0.968 -0.4042  0.0400  0.0788
35049SOL    HW110085   3.638   1.825   0.950 -0.0568  0.3942 -1.4916
35049SOL    HW210086   3.608   1.921   1.063  0.7105 -1.4140  0.3067
35050SOL     OW10087   1.766  11.029  11.223  0.2255 -0.4524 -0.2529
35050SOL    HW110088   1.696  10.967  11.241  0.8200 -0.9892  0.1933
35050SOL    HW210089   1.783  11.072  11.306 -0.2839  0.4300 -0.5871
35051SOL     OW10090   1.005   4.189   2.738 -0.7789 -0.1608  0.4751
35051SOL    HW110091   1.092   4.175   2.776 -0.5326 -0.4150 -0.1640
35051SOL    HW210092   0.946   4.196   2.813 -0.1295  0.5533  0.9262
35052SOL     OW10093   5.959   3.205   5.789  0.0521 -0.1119  0.0354
35052SOL    HW110094   6.024   3.213   5.860  0.4848  1.6634 -0.5017
35052SOL    HW210095   5.932   3.114   5.792  1.6150 -0.5938  1.1368
35053SOL     OW10096   9.810   7.891   6.815  0.3740 -0.0820 -0.2169
35053SOL    HW110097   9.833   7.967   6.762  3.7497 -0.5342  0.3832
35053SOL    HW210098   9.715   7.897   6.827  0.0445  2.1152 -3.0265
35054SOL     OW10099   5.503   9.540   3.929  0.2800 -1.4001  0.3880
35054SOL    HW110100   5.507   9.522   4.023  0.5639  1.1830  0.9458
35054SOL    HW210101   5.584   9.587   3.910 -0.1661 -1.1310 -0.9948
35055SOL     OW10102   1.752   7.616   3.918 -0.3771 -0.5734 -0.4857
35055SOL    HW110103   1.843   7.612   3.889  0.2839 -0.1523  1.4011
35055SOL    HW210104   1.704   7.650   3.843  1.2293  0.4451 -1.0913
35056SOL     OW10105   0.811   5.866   7.425  0.0294  0.6308  0.1321
35056SOL    HW110106   0.868   5.901   7.356  0.0288  2.1002  0.8259
35056SOL    HW210107   0.785   5.780   7.393  2.2679  0.0718 -0.4274
35057SOL     OW10108   5.697   7.214  11.418 -0.1185 -0.1141 -0.7443
35057SOL    HW110109   5.714   7.262  11.337  1.0790  0.3623 -0.2294
35057SOL    HW210110   5.767   7.149  11.422 -0.3366 -0.3215 -0.2256
35058SOL     OW10111   7.945   3.121   0.097  0.3259 -0.2170  0.1869
35058SOL    HW110112   7.991   3.124   0.013  1.3057 -0.8988  0.6814
35058SOL    HW210113   7.885   3.046   0.090 -1.2652  1.0710 -0.7051
35059SOL     OW10114   3.873   3.305   3.125 -0.3453 -0.1225  0.1453
35059SOL    HW110115   3.895   3.212   3.117  1.7519  0.4362 -1.7037
35059SOL    HW210116   3.890   3.341   3.038  2.0085  2.5484  1.5278
35060SOL     OW10117   7.326   0.145   1.644  0.4758 -0.4437 -0.4032
35060SOL    HW110118   7.273   0.224   1.642 -0.0330 -0.7619  0.3582
35060SOL    HW210119   7.307   0.101   1.561  0.0925 -0.2009 -0.4439
35061SOL     OW10120  10.950   6.362   1.085 -0.2534  0.6594 -0.0877
35061SOL    HW110121  10.983   6.312   1.010  0.5040 -2.1121  1.9267
35061SOL    HW210122  10.875   6.312   1.117 -0.7477  1.9341  0.8459
35062SOL     OW10123   6.647   1.572   3.665  0.7237  0.7015 -0.6209
35062SOL    HW110124   6.728   1.610   3.632  1.0525  0.2769 -0.3046
35062SOL    HW210125   6.652   1.479   3.641  1.6931  0.0128  1.9392
35063SOL     OW10126   5.022   0.772   9.727  0.2965  0.4566  0.2669
35063SOL    HW110127   5.099   0.819   9.695  1.1228 -0.2826  1.1218
35063SOL    HW210128   4.960   0.842   9.750  0.7677  1.0656 -0.2494
35064SOL     OW10129   6.035   1.857  11.029  1.0272  0.0856 -0.4682
35064SOL    HW110130   6.063   1.906  10.951  1.1681 -0.0137 -0.4804
35064SOL    HW210131   6.077   1.771  11.019  0.2862 -0.2533 -0.7613
35065SOL     OW10132   4.188   6.031   1.558  0.6652  0.0009 -0.4618
35065SOL    HW110133   4.272   6.062   1.524  0.9674 -0.0627  0.2259
35065SOL    HW210134   4.199   5.937   1.567  0.4686 -0.0264 -0.4951
35066SOL     OW10135   3.873   4.614   7.918 -0.2265 -0.5871 -0.0213
35066SOL    HW110136   3.852   4.593   7.827 -0.4914 -0.5116  0.0230
35066SOL    HW210137   3.964   4.584   7.929  0.0711  0.1109 -0.5266
35067SOL     OW10138   1.536   5.033   5.836  0.0709  0.0177 -0.5221
35067SOL    HW110139   1.462   4.977   5.861  0.5063  0.2793  1.5387
35067SOL    HW210140   1.612   4.976   5.844  0.4093  0.5962  0.6055
35068SOL     OW10141   0.149   5.334   0.359  0.0537  0.2762 -0.0243
35068SOL    HW110142   0.193   5.291   0.286 -0.2509 -2.3611  1.2113
35068SOL    HW210143   0.219   5.368   0.413  0.4270 -0.5366  0.0165
35069SOL     OW10144   6.013   6.360   0.096 -0.3204  0.2728 -0.1680
35069SOL    HW110145   6.092   6.406   0.068  0.1817 -0.1871  0.4567
35069SOL    HW210146   6.007   6.284   0.039 -1.5682  1.4776 -1.7032
35070SOL     OW10147   0.308   7.269   5.557  0.1463  0.0801  0.0387
35070SOL    HW110148   0.327   7.315   5.476 -1.2268  1.4530  0.4521
35070SOL    HW210149   0.219   7.236   5.545  0.2218 -0.3854  0.6963
35071SOL     OW10150   4.181   9.578   1.169  0.6541  0.0888 -0.3646
35071SOL    HW110151   4.130   9.591   1.250 -0.0179  0.6730 -0.8699
35071SOL    HW210152   4.181   9.664   1.127  0.9965 -0.2150 -0.9943
35072SOL     OW10153   4.017   7.208   1.085  0.9456  0.0230  0.3075
35072SOL    HW110154   3.938   7.175   1.128  0.9623 -1.5265 -0.7510
35072SOL    HW210155   4.018   7.163   1.000  1.8808  1.5807 -0.5499
35073SOL     OW10156   1.056   9.191   0.632 -0.1949 -0.7558 -0.1700
35073SOL    HW110157   1.068   9.286   0.631  0.1107 -0.7736  0.7342
35073SOL    HW210158   1.061   9.165   0.540 -0.4661  0.1204 -0.4429
35074SOL     OW10159  11.206   0.725   0.672 -0.6274  0.5766  0.0124
35074SOL    HW110160  11.215   0.817   0.648 -0.4600  0.2879 -1.1078
35074SOL    HW210161  11.114   0.704   0.652 -0.6012  0.4426  0.0307
35075SOL     OW10162   1.061   4.630   2.063  0.0893  0.8619  0.1299
35075SOL    HW110163   0.972   4.648   2.093 -0.5408 -0.1457 -1.0111
35075SOL    HW210164   1.060   4.652   1.970  0.6834 -0.2710 -0.1639
35076SOL     OW10165   5.527   6.109   3.877  0.2019  0.7780 -0.4995
35076SOL    HW110166   5.534   6.122   3.972  0.5888  1.2705 -0.5929
35076SOL    HW210167   5.435   6.128   3.857  0.5875  2.8990 -0.5399
35077SOL     OW10168   3.421   2.572   9.714 -0.6411 -0.0516 -0.2083
35077SOL    HW110169   3.368   2.577   9.634  0.4494  1.4999 -0.8809
35077SOL    HW210170   3.503   2.617   9.691 -0.7296  1.4534  2.0977
35078SOL     OW10171  11.449   9.626   9.252  0.6979  0.3174 -0.0254
35078SOL    HW110172  11.450   9.613   9.347  2.4538 -0.8940 -0.1478
35078SOL    HW210173  11.423   9.541   9.216  0.7510  0.5511 -0.6297
35079SOL     OW10174   1.848   7.087   3.852 -0.1505  0.0722 -0.0253
35079SOL    HW110175   1.888   7.174   3.857  2.1997 -0.9616  0.6328
35079SOL    HW210176   1.881   7.041   3.929 -0.3186 -1.8089 -1.0191
35080SOL     OW10177  10.683   2.771   7.659  0.5324  0.4010  0.5502
35080SOL    HW110178  10.591   2.746   7.659 -0.1846  2.7521 -0.7084
35080SOL    HW210179  10.702   2.795   7.750 -0.2733  0.4443  0.7105
35081SOL     OW10180   6.092   8.835   9.574 -0.2686  0.5707  0.2362
35081SOL    HW110181   6.105   8.925   9.605  1.0461  0.9531 -1.2946
35081SOL    HW210182   6.165   8.786   9.612 -1.4136 -0.0817  1.7170
35082SOL     OW10183   9.121  10.882   3.619 -0.0472 -0.0863  0.3389
35082SOL    HW110184   9.179  10.881   3.695 -0.8391  1.1858  0.9931
35082SOL    HW210185   9.119  10.974   3.591 -0.7344 -0.3253 -0.4518
35083SOL     OW10186  10.787   2.348   0.180  0.5158  0.1256  0.1547
35083SOL    HW110187  10.727   2.294   0.129  0.2984 -0.2404  0.7851
35083SOL    HW210188  10.864   2.358   0.124  1.2573 -2.2112  0.6669
35084SOL     OW10189   4.113   0.724   8.323  0.1508 -0.4702  0.3624
35084SOL    HW110190   4.185   0.697   8.265 -0.2852 -0.3891 -0.2269
35084SOL    HW210191   4.066   0.643   8.343  0.3569 -0.5114  0.6811
35085SOL     OW10192   0.970   3.447   6.120 -0.0167  0.0697 -0.6804
35085SOL    HW110193   1.055   3.430   6.081  0.4261 -0.3926  0.4402
35085SOL    HW210194   0.950   3.538   6.096  0.7867  0.1846 -0.9535
35086SOL     OW10195   1.947   1.945   9.946  0.2846  0.3646  0.3011
35086SOL    HW110196   1.898   2.028   9.947  0.0368  0.2304 -0.5253
35086SOL    HW210197   1.981   1.937  10.035 -0.8210  0.6888  0.7709
35087SOL     OW10198   8.349   2.576   6.896 -0.7913  0.1897 -0.0879
35087SOL    HW110199   8.423   2.576   6.956 -1.0207  0.7903  0.2147
35087SOL    HW210200   8.309   2.662   6.908 -3.4610 -1.2092  2.1714
35088SOL     OW10201  10.878   7.541  10.004 -0.6610 -0.0350 -0.0608
35088SOL    HW110202  10.835   7.508  10.083  0.5200 -0.2498  0.5204
35088SOL    HW210203  10.953   7.591  10.037  2.4367 -3.6197 -1.0028
35089SOL     OW10204   4.004   6.054   2.369 -0.1820 -0.1780 -0.2257
35089SOL    HW110205   4.070   6.041   2.300 -0.6496 -1.8512 -0.3937
35089SOL    HW210206   3.969   6.142   2.352 -0.0280 -0.4007 -1.9085
35090SOL     OW10207   8.668   5.060   5.964 -1.1829 -0.1901  0.0831
35090SOL    HW110208   8.713   5.134   5.924 -1.3779 -0.3706 -0.4745
35090SOL    HW210209   8.736   5.016   6.016 -0.8407 -0.1715 -0.3476
35091SOL     OW10210  11.407   0.807   7.872 -0.6506  0.3362  0.2648
35091SOL    HW110211  11.487   0.844   7.835 -0.9868  0.0865 -0.7742
35091SOL    HW210212  11.336   0.854   7.828 -1.1390 -2.3755 -2.2610
35092SOL     OW10213   1.691   3.124   2.338 -0.4006  0.0721  0.1884
35092SOL    HW110214   1.745   3.045   2.333 -0.9579 -0.3459  0.6584
35092SOL    HW210215   1.741   3.190   2.290 -0.3725 -0.8141 -1.0429
35093SOL     OW10216   1.499   0.743   0.506  0.1886 -0.0851 -0.1113
35093SOL    HW110217   1.544   0.689   0.441 -1.8529 -1.7615 -0.2376
35093SOL    HW210218   1.458   0.813   0.455  0.1534 -0.3008 -0.3805
35094SOL     OW10219   0.949   4.137   0.214 -0.0240  0.4266 -0.2057
35094SOL    HW110220   0.902   4.196   0.154 -0.5468 -0.2471 -0.4694
35094SOL    HW210221   0.986   4.070   0.158  0.2131  0.2666  0.1404
35095SOL     OW10222   7.571  10.766   7.958  0.1963  0.6947 -0.4601
35095SOL    HW110223   7.586  10.834   7.893  3.0692 -0.2601 -0.9605
35095SOL    HW210224   7.637  10.784   8.026 -0.1031 -0.6115  0.2048
35096SOL     OW10225  10.292   3.163   0.343  0.0461 -0.2988  0.2443
35096SOL    HW110226  10.368   3.126   0.297  1.6575  1.1703  1.5440
35096SOL    HW210227  10.216   3.122   0.302  1.4268 -0.3134 -2.5618
35097SOL     OW10228   8.274   5.554   8.416  0.1648  0.0955  0.1606
35097SOL    HW110229   8.183   5.537   8.392 -0.2397 -0.4348  1.9215
35097SOL    HW210230   8.272   5.635   8.466  0.9694  1.1291 -1.4049
35098SOL     OW10231   2.413   7.204   3.624 -0.3221  0.2974 -0.7376
35098SOL    HW110232   2.367   7.196   3.540 -3.2691  2.4238  0.5194
35098SOL    HW210233   2.346   7.231   3.686  2.4666  2.7302  1.5210
35099SOL     OW10234   3.187   7.186  10.123 -0.8061  0.1122  0.6903
35099SOL    HW110235   3.138   7.240  10.061 -1.3016 -1.5371 -0.4416
35099SOL    HW210236   3.276   7.221  10.121 -1.3987  1.7200  1.0564
35100SOL     OW10237   4.992   5.908   8.051 -0.2117 -0.2912 -0.0108
35100SOL    HW110238   4.939   5.831   8.073 -1.6648  0.2513 -1.3895
35100SOL    HW210239   4.934   5.982   8.068  0.4140  0.3759 -0.7070
35101SOL     OW10240   0.810   0.928   8.352  0.2822  0.0954  0.2509
35101SOL    HW110241   0.783   0.996   8.291 -2.3894 -0.2442  0.9323
35101SOL    HW210242   0.822   0.973   8.436 -0.4056 -0.0998  0.4566
35102SOL     OW10243   5.014   8.351   4.690 -0.2729 -0.1096  0.4978
35102SOL    HW110244   4.922   8.323   4.688 -0.0756 -0.8160  0.8685
35102SOL    HW210245   5.026   8.385   4.779 -0.2873  0.3784  0.3132
35103SOL     OW10246   2.380   3.406   8.210 -0.1363 -0.1472 -0.3244
35103SOL    HW110247   2.437   3.482   8.224 -1.5655  0.6510  1.5855
35103SOL    HW210248   2.388   3.354   8.290 -0.7149 -0.9730 -0.7840
35104SOL     OW10249   8.761   6.245   8.108 -0.3010  0.1361  0.1155
35104SOL    HW110250   8.673   6.232   8.141 -0.7714 -0.6640 -1.3747
35104SOL    HW210251   8.796   6.157   8.095  0.3452  0.4342 -0.2530
35105SOL     OW10252   9.544   4.385   1.670  0.5004 -0.5119 -0.2035
35105SOL    HW110253   9.489   4.339   1.734 -1.1260  1.2845 -0.2455
35105SOL    HW210254   9.572   4.464   1.715 -0.6085  0.7464 -1.6435
35106SOL     OW10255   0.012   4.964   6.818  0.1018  0.1815 -0.2372
35106SOL    HW110256  -0.039   5.037   6.854 -2.4242 -0.9070 -1.3795
35106SOL    HW210257  -0.028   4.946   6.733  0.6221 -2.4956 -0.0047
35107SOL     OW10258  10.804   1.630   9.943  0.4162 -0.4210 -0.2094
35107SOL    HW110259  10.887   1.637   9.989  0.0877 -1.0868  0.5097
35107SOL    HW210260  10.796   1.712   9.895  1.4535 -0.3284 -0.2368
35108SOL     OW10261  10.264   8.563   8.401 -0.2662  0.0045 -0.1211
35108SOL    HW110262  10.225   8.574   8.487  1.7028  2.3695  0.5838
35108SOL    HW210263  10.212   8.494   8.360 -2.7353  0.3901  2.0639
35109SOL     OW10264  10.321   4.289   6.482  0.4048  0.0686 -0.2862
35109SOL    HW110265  10.405   4.292   6.437  0.6525  0.1708  0.1757
35109SOL    HW210266  10.310   4.378   6.517  1.0341 -0.4484  1.3197
35110SOL     OW10267   5.544   9.319   7.339  0.6712 -0.2659  0.3940
35110SOL    HW110268   5.504   9.385   7.282 -1.4369 -2.9746 -1.5261
35110SOL    HW210269   5.630   9.303   7.301  0.5338  0.1957 -0.1287
35111SOL     OW10270   6.921   2.738   5.477 -0.3521 -0.3910 -0.7289
35111SOL    HW110271   6.883   2.824   5.496  0.9513  0.2866 -1.0109
35111SOL    HW210272   6.957   2.747   5.388 -0.4242 -1.3192 -0.8637
35112SOL     OW10273   8.777   4.689   5.472 -0.7833 -0.5973  0.5321
35112SOL    HW110274   8.832   4.751   5.424 -1.7954  0.6954  0.9595
35112SOL    HW210275   8.811   4.691   5.562  0.2428 -1.9694  0.1958
35113SOL     OW10276  10.270   2.466   9.189 -0.8087 -0.1146 -0.2355
35113SOL    HW110277  10.257   2.530   9.119 -1.2788 -0.8283 -0.8102
35113SOL    HW210278  10.256   2.517   9.270 -0.2678  0.7073 -0.6420
35114SOL     OW10279   7.913   2.701   5.834 -0.3495  0.0865  0.1250
35114SOL    HW110280   7.838   2.719   5.778 -0.4656 -0.0985  0.2228
35114SOL    HW210281   7.989   2.714   5.777 -0.4790 -0.4407 -0.1664
35115SOL     OW10282   5.244   7.670   5.303  0.5142 -0.5456 -0.4984
35115SOL    HW110283   5.277   7.692   5.391  0.9223 -1.1377 -0.4973
35115SOL    HW210284   5.251   7.752   5.254  1.8670 -0.6183 -0.4536
35116SOL     OW10285  10.160   4.363  10.452 -0.0377 -0.2807  0.0253
35116SOL    HW110286  10.103   4.404  10.387 -0.3659  1.9815  1.5881
35116SOL    HW210287  10.173   4.274  10.421 -1.4266  0.2443 -2.2905
35117SOL     OW10288   9.554   4.251   7.079 -0.4293 -0.1293 -0.2231
35117SOL    HW110289   9.530   4.160   7.063 -0.0062  0.1167 -2.4840
35117SOL    HW210290   9.628   4.245   7.140  0.0179 -1.3297 -0.8539
35118SOL     OW10291   9.363   5.918   2.049 -0.1124  0.1325  0.3394
35118SOL    HW110292   9.281   5.908   2.098  0.0925  1.7207  1.0637
35118SOL    HW210293   9.423   5.857   2.092  0.0098  1.3675  2.0104
35119SOL     OW10294   9.420   9.085   5.244  0.2361  0.0626  0.6049
35119SOL    HW110295   9.489   9.149   5.262  0.9321 -0.1479 -1.1412
35119SOL    HW210296   9.423   9.024   5.318  1.0346  0.8014  1.1924
35120SOL     OW10297   7.871   2.134  10.540 -0.3556 -0.1841  0.1146
35120SOL    HW110298   7.922   2.062  10.576  0.4791 -1.0856 -2.6057
35120SOL    HW210299   7.915   2.213  10.572  0.8471 -0.9223  0.3359
35121SOL     OW10300   4.959   7.602   7.763  0.3710 -0.3132  0.3848
35121SOL    HW110301   4.917   7.590   7.849 -0.5611 -0.0175 -0.0124
35121SOL    HW210302   5.011   7.681   7.773  2.8260 -1.9453  1.6079
35122SOL     OW10303   7.246   7.942   8.607 -0.3514 -0.5406  0.0102
35122SOL    HW110304   7.178   7.925   8.672 -0.7578 -4.7339 -1.1802
35122SOL    HW210305   7.198   7.958   8.525  0.1247 -0.3208 -0.2314
35123SOL     OW10306   9.460  11.553   9.784  0.0545  0.5086 -0.1836
35123SOL    HW110307   9.389  11.611   9.813  0.3519  0.8882 -0.2095
35123SOL    HW210308   9.486  11.588   9.699 -0.2089 -0.0673 -0.5057
35124SOL     OW10309   0.448  10.335   3.695 -0.2531  0.7316 -0.5649
35124SOL    HW110310   0.459  10.395   3.622  0.8766 -0.2845 -1.2761
35124SOL    HW210311   0.353  10.329   3.707 -0.5241  0.1942 -2.6004
35125SOL     OW10312   9.554  10.559   3.202  0.1995  0.7638 -0.5356
35125SOL    HW110313   9.503  10.520   3.273  0.7615 -0.5290 -0.8092
35125SOL    HW210314   9.519  10.519   3.123 -0.9856  2.8161 -1.1165
35126SOL     OW10315  11.104   5.738   2.965  0.1484  0.4913  0.1447
35126SOL    HW110316  11.144   5.777   3.043  0.8633 -0.5672  0.3294
35126SOL    HW210317  11.177   5.730   2.903  0.5559 -2.5135  0.8867
35127SOL     OW10318   7.676   8.810   4.453 -0.0590  0.0341  0.4616
35127SOL    HW110319   7.754   8.850   4.491  0.2645  0.1210 -0.2692
35127SOL    HW210320   7.649   8.870   4.384  0.0565 -0.6824 -0.2236
35128SOL     OW10321   9.655  10.228   3.059  0.8917  0.0972  0.0972
35128SOL    HW110322   9.598  10.189   2.993  0.7344  0.3062  0.1099
35128SOL    HW210323   9.684  10.310   3.020  0.0522  0.6801  0.6560
35129SOL     OW10324   4.571   1.980   1.154  0.1612  0.4248 -0.0264
35129SOL    HW110325   4.666   1.971   1.163  0.1672  1.3010  0.9253
35129SOL    HW210326   4.552   1.941   1.068  1.1863 -1.0353  0.3633
35130SOL     OW10327   6.545   5.408   9.469  0.1482 -0.2279 -0.1609
35130SOL    HW110328   6.520   5.398   9.377 -0.0437  2.3689 -0.4551
35130SOL    HW210329   6.641   5.414   9.466  0.3949 -2.7226  0.1701
35131SOL     OW10330   1.160   2.738   5.240 -0.3585 -0.3225  0.0211
35131SOL    HW110331   1.216   2.741   5.163 -0.0201  1.2278  0.2916
35131SOL    HW210332   1.211   2.691   5.306  1.2581  2.1718  0.6899
35132SOL     OW10333  10.574   3.354   1.297 -0.3311 -0.3517 -0.5094
35132SOL    HW110334  10.617   3.363   1.382  0.4731  0.9264 -1.0228
35132SOL    HW210335  10.513   3.428   1.293 -2.3441 -1.8859  0.0241
35133SOL     OW10336   7.247   1.331  11.355  0.6464  0.2600  0.2480
35133SOL    HW110337   7.237   1.266  11.424  0.4456  0.4084  0.3574
35133SOL    HW210338   7.312   1.292  11.296 -0.0251 -0.3826 -0.0926
35134SOL     OW10339   9.002   1.823   9.402 -0.7061 -0.1721  0.5441
35134SOL    HW110340   8.982   1.881   9.475 -1.1222 -0.8173  0.9502
35134SOL    HW210341   9.087   1.786   9.423 -1.6504 -1.8328  1.6918
35135SOL     OW10342   3.517   6.644   9.394 -0.2799 -0.3354  0.3485
35135SOL    HW110343   3.609   6.616   9.391 -0.4961 -0.9272 -1.2070
35135SOL    HW210344   3.480   6.597   9.468  0.5361 -0.4859  0.6721
35136SOL     OW10345   6.894   3.992   2.944  0.6908 -0.0003  0.2482
35136SOL    HW110346   6.869   4.042   3.021 -0.2915  1.1393 -0.7646
35136SOL    HW210347   6.978   3.953   2.967  0.4414  0.3406  1.8605
35137SOL     OW10348   3.215   4.707   4.765 -0.1723 -0.1815 -0.2481
35137SOL    HW110349   3.286   4.647   4.789 -0.5325 -0.3625  0.3770
35137SOL    HW210350   3.239   4.790   4.806  0.0163 -0.0588 -0.6022
35138SOL     OW10351   0.984   1.703   9.087 -0.3062 -0.1176 -0.3461
35138SOL    HW110352   1.026   1.712   9.173  1.0759  2.8881 -1.1936
35138SOL    HW210353   0.895   1.734   9.100  0.3385  1.8221 -0.2313
35139SOL     OW10354   3.513   5.567   5.231  0.0091  0.1523  0.2307
35139SOL    HW110355   3.595   5.574   5.279 -0.2076  0.1597  0.6038
35139SOL    HW210356   3.505   5.474   5.212  0.2379  0.1873 -0.0474
35140SOL     OW10357   5.729   4.446  10.039  0.3837  0.2697 -0.0258
35140SOL    HW110358   5.702   4.381   9.973 -0.8051  0.9244 -0.2263
35140SOL    HW210359   5.684   4.526  10.012 -1.8167  0.0981  2.6736
35141SOL     OW10360   2.342   7.050  10.450 -1.2216  0.0059 -0.8865
35141SOL    HW110361   2.356   7.073  10.358 -1.8907 -0.0722 -1.0076
35141SOL    HW210362   2.371   7.128  10.498 -2.9310  0.9132 -1.2698
35142SOL     OW10363   6.357   9.273  10.373  0.2748  0.0896  0.1341
35142SOL    HW110364   6.287   9.225  10.327  1.3194 -0.7772 -0.6058
35142SOL    HW210365   6.436   9.223  10.354  1.4178  2.0964 -0.6376
35143SOL     OW10366   3.016   5.208   6.414  0.0851  0.4847  0.3687
35143SOL    HW110367   3.069   5.129   6.427  0.1438  0.5168  0.3236
35143SOL    HW210368   2.926   5.177   6.416 -0.0211  0.7402  2.9124
35144SOL     OW10369   0.103  11.218  10.734 -0.3606  0.5461  0.6167
35144SOL    HW110370   0.054  11.275  10.675  1.3704  2.4931  0.9567
35144SOL    HW210371   0.180  11.192  10.683 -1.3000 -1.9223  0.3198
35145SOL     OW10372   0.949   8.470   9.315 -0.2249  0.3971  1.0427
35145SOL    HW110373   0.986   8.474   9.228  0.5609  1.5446  1.4172
35145SOL    HW210374   0.874   8.411   9.306 -0.0057  0.2970 -0.3347
35146SOL     OW10375   5.493   7.915  10.981 -0.9028 -0.0988  0.0224
35146SOL    HW110376   5.553   7.916  10.906 -1.1311  0.0954 -0.1576
35146SOL    HW210377   5.533   7.974  11.044 -0.4289 -0.6774  0.2751
35147SOL     OW10378   2.800   6.218   3.955 -0.5326 -0.5008 -0.3489
35147SOL    HW110379   2.804   6.205   4.049 -1.2380 -1.2373 -0.4126
35147SOL    HW210380   2.715   6.258   3.939 -0.2886 -0.0853 -0.6483
35148SOL     OW10381   1.093   0.057   1.421  0.4195 -0.0182  0.1089
35148SOL    HW110382   1.179   0.083   1.390  1.1548 -0.3781  1.7229
35148SOL    HW210383   1.074   0.119   1.492  0.1601 -1.0254  0.9384
35149SOL     OW10384   9.496   6.362   2.670  0.0667  0.5015 -0.4201
35149SOL    HW110385   9.493   6.329   2.760  0.6884  0.7939 -0.2860
35149SOL    HW210386   9.405   6.382   2.648 -0.0239  0.9257  0.3332
35150SOL     OW10387   4.957   7.738   6.749 -0.3143  0.6705 -0.1868
35150SOL    HW110388   5.002   7.657   6.774 -0.0400  0.7800 -0.3210
35150SOL    HW210389   4.998   7.763   6.666 -0.7692  0.6598 -0.4142
35151SOL     OW10390   8.103   3.213   1.768  0.6895 -0.3461 -1.2126
35151SOL    HW110391   8.189   3.177   1.744  0.9959 -1.0766  0.7436
35151SOL    HW210392   8.047   3.136   1.778  0.7441 -0.1817  0.7881
35152SOL     OW10393  10.645   5.372  11.636  0.8972  0.4834 -0.9381
35152SOL    HW110394  10.578   5.418  11.686  0.4222 -0.7382 -0.4028
35152SOL    HW210395  10.727   5.390  11.683  0.4865 -0.4928  0.2100
35153SOL     OW10396   1.183   9.042   3.452 -0.0368 -0.5765  0.2283
35153SOL    HW110397   1.268   9.021   3.491 -0.7351  0.4346  2.4768
35153SOL    HW210398   1.120   8.996   3.507 -1.0214 -0.7933 -1.0285
35154SOL     OW10399   6.014   7.716   3.851  0.2139  0.1041  0.0548
35154SOL    HW110400   6.093   7.661   3.853  1.8745  2.3531  1.6098
35154SOL    HW210401   6.023   7.768   3.771 -1.2493 -1.6128 -1.3042
35155SOL     OW10402   8.551   1.396  10.814 -0.2917 -0.5814  0.3212
35155SOL    HW110403   8.473   1.449  10.800  0.6370  0.7375 -0.0624
35155SOL    HW210404   8.537   1.354  10.899 -1.5453 -0.6232  0.1132
35156SOL     OW10405   9.261   8.940   8.109 -0.1232  0.3667 -0.2723
35156SOL    HW110406   9.295   8.877   8.173 -2.3353 -0.7050 -0.0448
35156SOL    HW210407   9.237   9.017   8.161 -2.3401 -0.6709  0.3763
35157SOL     OW10408   8.822   2.117   5.075  0.3575  0.5508 -0.3061
35157SOL    HW110409   8.908   2.124   5.116  1.2858  1.5262 -2.3037
35157SOL    HW210410   8.801   2.206   5.048 -0.6323  0.0875 -1.1400
35158SOL     OW10411   6.422   4.387   7.854 -0.1001 -1.0901 -0.2585
35158SOL    HW110412   6.475   4.387   7.935 -0.0115  2.3670 -0.1569
35158SOL    HW210413   6.472   4.333   7.793  0.9265 -2.0527  1.3485
35159SOL     OW10414  11.644   4.869   4.103 -0.0043 -0.2005 -0.1039
35159SOL    HW110415  11.720   4.915   4.066 -0.1092 -0.7256 -1.0131
35159SOL    HW210416  11.598   4.833   4.026 -2.4196  1.9517  0.1845
35160SOL     OW10417   5.400   2.024  11.115  0.1316  0.0566 -0.3115
35160SOL    HW110418   5.355   2.106  11.093 -0.4960 -0.4390 -0.9089
35160SOL    HW210419   5.425   2.034  11.207  0.4855  1.1095 -0.5013
35161SOL     OW10420   1.086   2.686   8.168 -0.0933 -0.7018 -0.2818
35161SOL    HW110421   1.146   2.612   8.156 -1.5436 -1.9968  0.0975
35161SOL    HW210422   1.013   2.668   8.108 -0.7402  0.1201  0.2297
35162SOL     OW10423   6.753   7.495   0.179  0.2249  0.2552  0.0345
35162SOL    HW110424   6.668   7.493   0.222  1.0221 -0.0309  1.6892
35162SOL    HW210425   6.808   7.545   0.239  1.4336 -0.2705 -0.6048
35163SOL     OW10426   3.783   0.604  10.655 -0.2325 -0.1517 -0.0999
35163SOL    HW110427   3.739   0.546  10.593  1.7212 -2.6805  0.6885
35163SOL    HW210428   3.727   0.682  10.660 -2.3679 -1.4350 -2.1569
35164SOL     OW10429   7.695   7.558  10.731 -0.1386 -0.3154 -0.3375
35164SOL    HW110430   7.711   7.488  10.794 -0.6212 -0.4797 -0.3929
35164SOL    HW210431   7.623   7.609  10.769 -0.4510 -0.4309 -0.7641
35165SOL     OW10432   0.571   7.893  10.849 -0.2114  0.5726  0.1248
35165SOL    HW110433   0.532   7.957  10.790 -0.5782  0.8279  0.6404
35165SOL    HW210434   0.498   7.839  10.877  0.3275 -1.3393 -1.7955
35166SOL     OW10435  10.962   5.812   6.942  0.5905  0.0144  0.4526
35166SOL    HW110436  11.055   5.792   6.939  0.8488  0.7484  2.4853
35166SOL    HW210437  10.920   5.737   6.900  1.9577 -1.3966  1.5297
35167SOL     OW10438   4.904   9.202   0.719  0.1043 -0.1715 -0.5989
35167SOL    HW110439   4.890   9.273   0.656  1.8786  1.1552  0.4230
35167SOL    HW210440   4.975   9.151   0.682  0.5287  0.0717 -0.1253
35168SOL     OW10441   7.722  11.027   0.373  0.4140 -0.0522  0.1317
35168SOL    HW110442   7.721  10.943   0.419 -0.6524  0.0072  0.2433
35168SOL    HW210443   7.661  11.016   0.300 -1.2984  1.2032  1.2816
35169SOL     OW10444   8.048   3.917   1.356  0.3237  0.5253 -0.0866
35169SOL    HW110445   8.138   3.913   1.387  0.2645  1.4715  0.2638
35169SOL    HW210446   8.023   4.009   1.368 -0.1722  0.6229 -1.6636
35170SOL     OW10447   4.479   8.084   2.416 -0.2673 -0.3964 -0.1144
35170SOL    HW110448   4.409   8.065   2.478  1.1805  0.0379  1.7525
35170SOL    HW210449   4.436   8.134   2.346 -1.6171  0.9946  1.6013
35171SOL     OW10450   3.742   5.235   9.294 -0.0419 -0.0495  0.2318
35171SOL    HW110451   3.720   5.293   9.221  0.9680  1.8994  1.4015
35171SOL    HW210452   3.725   5.287   9.372  1.2990 -1.1861  1.3280
35172SOL     OW10453   5.584   5.452   1.789  0.5660  0.1294 -0.3520
35172SOL    HW110454   5.617   5.480   1.874  0.7717  1.4755 -0.8533
35172SOL    HW210455   5.593   5.357   1.790  0.3947  0.1054  1.1903
35173SOL     OW10456   4.701   3.472   4.071 -0.2801  0.1993  0.2598
35173SOL    HW110457   4.658   3.425   4.000  1.3847 -1.6522  0.4044
35173SOL    HW210458   4.686   3.565   4.051 -0.7632 -0.2983 -1.9099
35174SOL     OW10459   8.317   1.489   3.277  0.8012  0.9109  0.1129
35174SOL    HW110460   8.307   1.399   3.309  1.6538  0.8544  0.2230
35174SOL    HW210461   8.367   1.534   3.345 -1.0500  1.9514  0.8837
35175SOL     OW10462   8.107  10.728   5.067 -0.1029  0.2970  0.2188
35175SOL    HW110463   8.043  10.657   5.057 -0.4429  0.7040 -0.5939
35175SOL    HW210464   8.069  10.785   5.134 -1.3244  1.2808 -1.2325
35176SOL     OW10465   1.448   2.165   4.314 -0.5789 -0.0476 -0.7164
35176SOL    HW110466   1.385   2.136   4.380  0.6516  0.6071  0.8030
35176SOL    HW210467   1.469   2.085   4.265 -1.2699 -0.6098 -0.1306
35177SOL     OW10468   7.097  11.618   9.029  0.2681  0.8552 -0.4125
35177SOL    HW110469   7.176  11.633   9.081 -0.2422  0.7573  0.4132
35177SOL    HW210470   7.123  11.638   8.939  1.1118  1.2551 -0.0908
35178SOL     OW10471   3.117  10.318   5.082  0.0451  0.0283 -0.0383
35178SOL    HW110472   3.028  10.317   5.115  0.1671 -1.5114  0.3134
35178SOL    HW210473   3.163  10.381   5.137 -0.9272  1.2016 -0.5473
35179SOL     OW10474   5.858   4.265   8.549 -0.5652  0.3221 -0.3079
35179SOL    HW110475   5.917   4.319   8.497  0.3420  0.5351  0.8904
35179SOL    HW210476   5.915   4.222   8.613 -1.6710  0.3650  0.7512
35180SOL     OW10477   7.220   9.001   3.726 -0.1271 -0.0974  0.8864
35180SOL    HW110478   7.173   9.049   3.794 -2.1028  0.7969 -1.0104
35180SOL    HW210479   7.305   9.045   3.720 -0.0135 -0.0278  2.5277
35181SOL     OW10480   1.658   3.452   3.954  0.0425 -0.1799 -0.2182
35181SOL    HW110481   1.682   3.525   4.011  1.3346 -1.0539  0.3954
35181SOL    HW210482   1.684   3.481   3.866  2.0980 -0.5194  0.2361
35182SOL     OW10483   2.725  10.205   0.243 -0.0825 -0.1287 -0.4026
35182SOL    HW110484   2.712  10.116   0.209 -0.4195 -0.2438  0.0074
35182SOL    HW210485   2.776  10.193   0.323 -0.4869  0.0074 -0.1217
35183SOL     OW10486   6.106   8.518   4.079 -0.4538 -0.4984 -0.5107
35183SOL    HW110487   6.111   8.552   4.168 -1.7597 -0.8886 -0.2596
35183SOL    HW210488   6.067   8.431   4.089 -1.3672 -0.2246 -1.5204
35184SOL     OW10489   1.070   8.703  10.778  0.7911 -0.0319  0.0444
35184SOL    HW110490   1.080   8.620  10.825 -1.4910 -0.3636  0.0436
35184SOL    HW210491   1.054   8.768  10.846 -0.3138 -0.1303 -0.0987
35185SOL     OW10492   3.349   7.258   6.825 -0.0559  0.1625  0.2061
35185SOL    HW110493   3.310   7.271   6.738  0.8414 -1.4996 -0.5010
35185SOL    HW210494   3.325   7.168   6.848  0.9159  0.1056  1.0311
35186SOL     OW10495   2.298  11.063   3.387 -0.0646  0.3809 -0.3510
35186SOL    HW110496   2.268  10.973   3.394 -2.4719  1.1076 -0.3097
35186SOL    HW210497   2.323  11.073   3.296 -0.0462 -0.2425 -0.4182
35187SOL     OW10498   8.245   2.866   1.376 -0.3064 -0.4594  0.2239
35187SOL    HW110499   8.306   2.816   1.321 -1.9031 -2.3511  0.0648
35187SOL    HW210500   8.301   2.923   1.429  1.5196 -1.4655 -0.5429
35188SOL     OW10501   8.121   6.528   3.491 -0.1050  0.2915 -0.5844
35188SOL    HW110502   8.097   6.441   3.459 -0.0419 -0.4136  1.1278
35188SOL    HW210503   8.176   6.565   3.423 -1.2427 -0.4509 -1.9610
35189SOL     OW10504   2.207  11.251   1.712 -0.1675 -0.1534  0.4142
35189SOL    HW110505   2.251  11.188   1.770 -0.6074 -0.8044  0.0476
35189SOL    HW210506   2.118  11.257   1.746 -0.7230 -1.3212 -0.8028
35190SOL     OW10507   7.397   9.762   2.714  0.0635  0.0212 -0.8407
35190SOL    HW110508   7.365   9.850   2.736 -1.3028 -0.3024 -1.3911
35190SOL    HW210509   7.492   9.768   2.720 -0.0236  1.4612 -0.5999
35191SOL     OW10510   2.992   9.297   2.208 -0.0047 -0.6624 -0.3515
35191SOL    HW110511   3.051   9.367   2.233 -0.2109 -0.3135 -0.8184
35191SOL    HW210512   3.049   9.226   2.180  0.2587  0.5009 -3.1057
35192SOL     OW10513   1.363   1.664   3.315  0.0412 -0.3236  0.0903
35192SOL    HW110514   1.438   1.622   3.357  0.6512  0.5236 -0.1244
35192SOL    HW210515   1.357   1.622   3.229  1.0396  0.4561 -0.3716
35193SOL     OW10516   7.861   8.603   4.179  0.4247 -0.4043 -0.7859
35193SOL    HW110517   7.862   8.695   4.204  0.8624  0.2615 -2.9936
35193SOL    HW210518   7.867   8.555   4.262 -0.2982  1.5188  0.4452
35194SOL     OW10519   5.306  10.172   5.707  0.0898 -0.2152  0.1705
35194SOL    HW110520   5.217  10.175   5.672  1.2402  2.4118 -3.0092
35194SOL    HW210521   5.320  10.080   5.729 -2.8635 -0.9768 -0.6068
35195SOL     OW10522  10.125   9.637   1.078  0.1584 -0.2516  0.2224
35195SOL    HW110523  10.205   9.612   1.032 -0.5350  0.9364 -1.7597
35195SOL    HW210524  10.152   9.706   1.139  0.8819 -0.9483  0.7019
35196SOL     OW10525   6.561   9.667   3.566 -0.2558  0.0827  0.0798
35196SOL    HW110526   6.616   9.742   3.547 -0.0876  0.0496  0.4288
35196SOL    HW210527   6.547   9.624   3.481 -0.5584  0.6455 -0.1572
35197SOL     OW10528   4.926   8.655   3.739  0.0041 -0.7854  0.4192
35197SOL    HW110529   4.880   8.573   3.722 -1.1153  0.3860 -3.0334
35197SOL    HW210530   5.002   8.652   3.681 -0.9008  1.1853 -0.9918
35198SOL     OW10531   1.573   8.459   9.347  0.4067  0.1916  0.0347
35198SOL    HW110532   1.598   8.415   9.266  3.1409 -0.3182  1.0648
35198SOL    HW210533   1.510   8.526   9.319  2.1795  0.8690 -2.7243
35199SOL     OW10534  10.907   3.037   9.075 -0.9693  0.1862 -0.0067
35199SOL    HW110535  10.996   3.038   9.040 -0.4128 -0.0316  1.3276
35199SOL    HW210536  10.881   3.129   9.076  0.7699  0.7990  3.1674
35200SOL     OW10537   5.678   1.589   6.924 -0.0576  0.4348 -0.0778
35200SOL    HW110538   5.694   1.537   7.002 -0.7307  1.2586  0.6225
35200SOL    HW210539   5.667   1.679   6.956 -1.9193  0.5591 -0.9185
35201SOL     OW10540   6.646   0.301   5.138  0.0966 -0.4053  0.0959
35201SOL    HW110541   6.572   0.243   5.155  0.9934 -1.3624  0.9209
35201SOL    HW210542   6.660   0.347   5.221  1.3680 -1.3829  0.4613
35202SOL     OW10543   1.232   2.066   2.104 -0.0344  0.0391  0.0459
35202SOL    HW110544   1.170   2.016   2.158  1.0105  1.5036  2.7792
35202SOL    HW210545   1.185   2.145   2.080 -0.1421 -0.1229 -0.2796
35203SOL     OW10546   9.630  10.537   9.743 -0.3888 -0.0006 -0.3570
35203SOL    HW110547   9.577  10.460   9.764  0.5466 -0.4561  0.4000
35203SOL    HW210548   9.659  10.570   9.828  3.7260 -2.0568 -0.7058
35204SOL     OW10549   2.129   4.161   1.132 -0.4787  0.2636 -0.0095
35204SOL    HW110550   2.209   4.152   1.081 -1.2541 -0.6579 -1.1343
35204SOL    HW210551   2.155   4.209   1.210  1.2953 -0.6054 -0.0226
35205SOL     OW10552   7.895   7.175   4.817 -0.1563 -0.2414  0.4380
35205SOL    HW110553   7.957   7.105   4.797 -0.8327 -0.8707  0.4841
35205SOL    HW210554   7.818   7.154   4.763  0.2487  1.4155 -0.8704
35206SOL     OW10555  11.181   5.967   4.697 -0.1363  0.4672  0.3420
35206SOL    HW110556  11.172   5.872   4.694 -1.3073  0.5385  0.9335
35206SOL    HW210557  11.132   5.998   4.620  0.0411  0.6044  0.2838
35207SOL     OW10558   1.838   6.215   1.786 -0.3677 -0.1332  0.0023
35207SOL    HW110559   1.821   6.131   1.828 -0.9117 -0.7261 -1.3311
35207SOL    HW210560   1.865   6.273   1.857  0.0638 -1.4422  0.9418
35208SOL     OW10561   5.493   7.202   8.810 -0.2232  0.7228 -0.1344
35208SOL    HW110562   5.547   7.243   8.743  0.5636  1.3511  0.8592
35208SOL    HW210563   5.545   7.129   8.842 -1.1746 -0.4411 -1.1455
35209SOL     OW10564  11.171   6.425  10.915  0.2876 -0.5244  0.2905
35209SOL    HW110565  11.087   6.461  10.944  0.4125  0.2395 -0.2658
35209SOL    HW210566  11.236   6.470  10.968  0.4320 -0.0736 -0.2609
35210SOL     OW10567   2.653   9.965   7.863  0.0636 -0.3087  0.2497
35210SOL    HW110568   2.619   9.878   7.884 -1.3022 -0.3070 -1.7038
35210SOL    HW210569   2.735   9.948   7.817 -0.9921 -0.7229 -1.6011
35211SOL     OW10570   9.737   4.326   4.567  0.3122 -0.1524  0.2907
35211SOL    HW110571   9.731   4.329   4.662 -0.5828 -0.2845  0.2371
35211SOL    HW210572   9.790   4.248   4.549 -1.4990 -1.5120  0.6025
35212SOL     OW10573   6.563   7.340   8.502  0.6853 -0.1588  0.0845
35212SOL    HW110574   6.547   7.368   8.412  0.4057 -0.3027  0.0890
35212SOL    HW210575   6.592   7.249   8.494  2.4334  0.3587 -0.0011
35213SOL     OW10576   4.564   4.023   1.949 -0.0316  0.4405  0.1680
35213SOL    HW110577   4.593   3.970   2.023  0.7945 -0.8131 -1.0181
35213SOL    HW210578   4.636   4.084   1.933  0.3039 -0.0773 -0.3297
35214SOL     OW10579   6.328   0.041   8.683 -0.4574  0.7785 -0.2930
35214SOL    HW110580   6.324   0.020   8.777 -0.2885  0.3718 -0.3766
35214SOL    HW210581   6.282  -0.031   8.640  0.9824  0.0583 -0.6571
35215SOL     OW10582  11.545   4.109   8.336  0.2624 -0.0774 -0.2312
35215SOL    HW110583  11.609   4.117   8.406  0.0891 -1.3416  0.0917
35215SOL    HW210584  11.469   4.159   8.366  0.4071 -0.1248  0.2123
35216SOL     OW10585   5.141   8.481   9.084 -0.2801  0.1772  0.0912
35216SOL    HW110586   5.178   8.559   9.127  0.0342 -0.3286  0.7533
35216SOL    HW210587   5.212   8.417   9.086 -0.2159  0.1849 -1.3257
35217SOL     OW10588   8.302   1.859  10.995 -0.1749  0.7399  0.0537
35217SOL    HW110589   8.289   1.836  10.903  0.1328  1.2270 -0.1179
35217SOL    HW210590   8.271   1.783  11.043 -1.4234  0.9345 -0.4018
35218SOL     OW10591   0.479   5.197   5.226 -0.2702 -0.5839 -0.1609
35218SOL    HW110592   0.430   5.279   5.229  2.1778  0.9563  0.4062
35218SOL    HW210593   0.460   5.155   5.310 -1.6524 -0.7104 -0.5167
35219SOL     OW10594   8.584   8.399   9.027  0.3802 -0.4462 -0.4658
35219SOL    HW110595   8.584   8.356   9.112  1.0720  2.0458  0.9015
35219SOL    HW210596   8.677   8.405   9.003  0.3233  0.3834 -0.5245
35220SOL     OW10597   5.322  11.048   2.627 -0.1820 -0.2058  0.3968
35220SOL    HW110598   5.339  11.072   2.535  2.5094  0.1224  0.8794
35220SOL    HW210599   5.376  10.970   2.642  0.1286  0.2666  1.9127
35221SOL     OW10600   9.911   6.886   5.531 -0.3128 -0.4662  0.0864
35221SOL    HW110601   9.875   6.816   5.585 -0.3834 -1.3248 -1.0535
35221SOL    HW210602  10.005   6.879   5.541 -0.2898  2.0784  3.4558
35222SOL     OW10603   2.317   3.118   3.379 -1.1062  0.2756  0.6471
35222SOL    HW110604   2.279   3.039   3.417  2.1477 -1.4369  0.7743
35222SOL    HW210605   2.311   3.105   3.285 -0.3494 -0.2925  0.6684
35223SOL     OW10606   6.200   4.674   4.272 -0.2634  0.0566  0.0227
35223SOL    HW110607   6.285   4.698   4.234 -0.7773  1.6437 -0.2363
35223SOL    HW210608   6.214   4.680   4.367 -0.6875  3.0146  0.0074
35224SOL     OW10609   4.751   7.070   6.929 -0.1162 -0.3421 -0.7352
35224SOL    HW110610   4.841   7.040   6.936 -0.5045 -1.5323 -0.7167
35224SOL    HW210611   4.709   7.008   6.870 -1.3006 -0.7284  0.4623
35225SOL     OW10612  10.563   8.299   5.626  0.0677  0.0840  0.6872
35225SOL    HW110613  10.598   8.270   5.541 -0.9985  2.0614 -0.4955
35225SOL    HW210614  10.630   8.358   5.660 -0.4080  0.9413  0.1841
35226SOL     OW10615   7.768   2.049   9.490 -0.0001  0.1782  0.1863
35226SOL    HW110616   7.678   2.019   9.504 -0.3429  2.0774  2.7511
35226SOL    HW210617   7.759   2.130   9.440  0.4249 -0.3505 -0.7770
35227SOL     OW10618   4.886   9.961   6.355  0.1365 -0.0023 -0.2166
35227SOL    HW110619   4.810  10.011   6.384  0.1112  0.4975 -1.0968
35227SOL    HW210620   4.865   9.934   6.265  0.9843  0.1335 -0.4705
35228SOL     OW10621   1.950  10.345   5.823  0.9920 -0.3895  0.1148
35228SOL    HW110622   1.898  10.334   5.744  1.0259 -0.3172  0.0828
35228SOL    HW210623   2.032  10.385   5.793  1.6919 -1.8707 -0.0641
35229SOL     OW10624   5.996   9.116   1.514  0.3505 -0.5320  0.1042
35229SOL    HW110625   5.903   9.106   1.495  0.1263  0.4160  0.6521
35229SOL    HW210626   6.001   9.192   1.572  1.5217 -0.1952 -0.4037
35230SOL     OW10627   4.949   4.613   3.005  0.2644 -0.1171  0.2355
35230SOL    HW110628   4.892   4.665   3.062 -0.5160 -0.9318  0.2070
35230SOL    HW210629   4.892   4.547   2.967  1.4239 -1.7044  1.1119
35231SOL     OW10630   0.711   0.812   1.362 -0.4493  0.0857 -0.6897
35231SOL    HW110631   0.617   0.832   1.361 -0.9315 -1.8158  1.1449
35231SOL    HW210632   0.718   0.729   1.314  0.1873 -0.1453 -0.1993
35232SOL     OW10633   0.766   0.625   3.507  0.0142 -0.1955 -0.6340
35232SOL    HW110634   0.710   0.573   3.565  2.4037 -2.2009  0.0268
35232SOL    HW210635   0.855   0.611   3.541  1.0447  2.1657 -2.1434
35233SOL     OW10636   7.806   1.956   7.972  0.3045 -0.1359  0.3752
35233SOL    HW110637   7.833   2.026   7.913 -1.3993 -0.2464 -0.5925
35233SOL    HW210638   7.774   1.887   7.915  0.6615 -1.1589  1.3726
35234SOL     OW10639   9.791   8.762  10.124  0.5131  0.4496 -0.2387
35234SOL    HW110640   9.799   8.682  10.174  0.8556  0.7603  0.2100
35234SOL    HW210641   9.730   8.740  10.053  1.9808 -0.7332 -1.1936
35235SOL     OW10642   1.821  10.510   8.506  0.3059 -0.3942 -0.7207
35235SOL    HW110643   1.910  10.542   8.494  0.8573 -1.7061 -0.2945
35235SOL    HW210644   1.815  10.433   8.449 -0.6694 -0.1413 -0.9866
35236SOL     OW10645  11.500   4.088   7.003  0.6371 -0.1159 -0.0018
35236SOL    HW110646  11.568   4.150   7.029  0.0513  0.9605 -0.9785
35236SOL    HW210647  11.534   4.047   6.924  0.1586  0.4289 -0.4951
35237SOL     OW10648   7.241   1.375   8.325 -0.1408  0.1749 -0.0082
35237SOL    HW110649   7.208   1.317   8.395 -3.0671  0.0304 -1.3418
35237SOL    HW210650   7.236   1.462   8.363 -0.3671 -0.0257  0.4344
35238SOL     OW10651   2.759   5.111   6.435 -0.2782  0.1195  0.4375
35238SOL    HW110652   2.703   5.170   6.384 -1.1219 -0.2264  0.9403
35238SOL    HW210653   2.715   5.026   6.430 -1.2204  0.3873  2.9475
35239SOL     OW10654   2.199   7.604   0.784 -0.3233  0.0083  0.8879
35239SOL    HW110655   2.239   7.591   0.698 -1.2888  3.5928 -0.2671
35239SOL    HW210656   2.124   7.545   0.785 -0.8105  0.5256 -1.1403
35240SOL     OW10657   1.822   6.086   5.966  0.2587 -0.1000  0.4360
35240SOL    HW110658   1.791   6.101   5.877  0.8445 -1.2388  0.0250
35240SOL    HW210659   1.745   6.106   6.021 -0.9599 -1.9296 -0.5005
35241SOL     OW10660   1.609   4.965  10.721 -0.5914 -0.5460  0.4541
35241SOL    HW110661   1.588   4.967  10.628  1.4138 -0.6910 -0.0392
35241SOL    HW210662   1.688   5.018  10.730 -0.1783 -1.3281  1.9036
35242SOL     OW10663   8.815   2.103   0.753 -0.7173 -0.2114 -0.8413
35242SOL    HW110664   8.775   2.168   0.810 -2.3515  0.2906 -2.4620
35242SOL    HW210665   8.854   2.154   0.681  1.4212 -0.8109 -0.1762
35243SOL     OW10666   3.745   0.504   0.656 -0.1112 -0.3093 -0.2265
35243SOL    HW110667   3.762   0.569   0.588 -0.9431  0.1633 -0.0050
35243SOL    HW210668   3.782   0.542   0.736  0.8990 -0.8806 -0.4089
35244SOL     OW10669   9.367   5.094   9.352  0.1884 -0.4526 -0.4172
35244SOL    HW110670   9.297   5.150   9.385  0.8190  0.3210 -0.3548
35244SOL    HW210671   9.416   5.067   9.430  0.4517 -0.3100 -0.5309
35245SOL     OW10672  10.124  10.800   5.058  0.0441  0.2236  0.0248
35245SOL    HW110673  10.166  10.714   5.056  0.0002  0.1809  0.8002
35245SOL    HW210674  10.152  10.842   4.976 -1.9191 -1.4398 -1.5772
35246SOL     OW10675   9.899   3.499   3.824 -0.1498  0.4816  0.1003
35246SOL    HW110676   9.833   3.505   3.893  0.6789  1.9111  0.8171
35246SOL    HW210677   9.917   3.405   3.817 -0.6360  0.2510  1.4708
35247SOL     OW10678   7.188   1.568   8.923  0.3358  0.4057 -0.3851
35247SOL    HW110679   7.249   1.639   8.941  0.3344  0.4370 -0.5016
35247SOL    HW210680   7.109   1.591   8.972  0.1636  0.7309 -0.8042
35248SOL     OW10681   5.793   9.895   0.344 -0.3728  0.2452  0.0056
35248SOL    HW110682   5.770   9.891   0.251 -0.3237  2.3844 -0.1504
35248SOL    HW210683   5.861   9.962   0.349 -1.2433  1.0465  1.7373
35249SOL     OW10684   4.368   4.247   1.130  0.1813  0.5362  0.1713
35249SOL    HW110685   4.353   4.183   1.061 -0.7376  1.4921 -0.5478
35249SOL    HW210686   4.308   4.222   1.200  1.8118 -1.0318  1.1061
35250SOL     OW10687   9.252   7.960   9.573 -0.3302 -0.1292 -0.3176
35250SOL    HW110688   9.223   7.964   9.664  0.6988 -0.9955  0.0740
35250SOL    HW210689   9.318   8.029   9.565 -2.9690  2.4518 -1.4489
35251SOL     OW10690   1.644   8.866   3.910  0.1889 -0.2795  0.4465
35251SOL    HW110691   1.551   8.884   3.928  0.6349  0.1411  2.6123
35251SOL    HW210692   1.673   8.815   3.985  2.6441  2.8952  1.8847
35252SOL     OW10693   2.194   4.482   1.019  0.5425  0.3943 -0.5903
35252SOL    HW110694   2.230   4.476   0.931 -0.4453  0.5888 -1.0227
35252SOL    HW210695   2.115   4.429   1.017  0.5196  0.3797  0.1898
35253SOL     OW10696   3.003   4.518   0.845 -0.6218 -0.3965  0.2155
35253SOL    HW110697   3.080   4.549   0.797  0.1077 -0.7302  1.1282
35253SOL    HW210698   3.036   4.499   0.933 -1.1637 -2.9761 -0.0608
35254SOL     OW10699   5.089   5.121   3.570  0.6575  0.5135 -0.7444
35254SOL    HW110700   5.038   5.182   3.516 -1.6230  0.5729  1.2784
35254SOL    HW210701   5.109   5.171   3.650 -2.1883 -1.4843  1.4383
35255SOL     OW10702   6.094  10.681   8.866 -0.0593 -0.3264  0.2192
35255SOL    HW110703   6.056  10.727   8.791  0.8558 -0.1710 -0.1707
35255SOL    HW210704   6.079  10.589   8.847  1.8896 -0.4286 -1.1922
35256SOL     OW10705   2.895   8.415   8.752 -0.3544 -0.3878 -0.2887
35256SOL    HW110706   2.978   8.377   8.782 -1.2031 -0.9070  1.5613
35256SOL    HW210707   2.913   8.508   8.743  0.3579 -0.4439  0.4455
35257SOL     OW10708  10.245   5.435   5.563  0.2329  0.0524  0.3264
35257SOL    HW110709  10.253   5.409   5.472  1.0275 -0.4105  0.5187
35257SOL    HW210710  10.153   5.462   5.573  0.9948  3.9117 -1.5544
35258SOL     OW10711   1.865   0.927   6.362  0.1236 -0.6727 -0.0945
35258SOL    HW110712   1.936   0.992   6.355 -0.5885  0.4550  2.1262
35258SOL    HW210713   1.785   0.979   6.359 -0.7045 -1.9492 -2.7378
35259SOL     OW10714   0.666   4.004   2.760 -0.1975 -0.3911  0.6670
35259SOL    HW110715   0.573   3.986   2.749  0.0097 -0.6994 -0.6936
35259SOL    HW210716   0.691   4.053   2.682  0.9768 -1.1098  0.5668
35260SOL     OW10717   6.423   4.753   1.403 -0.0170  0.1419 -0.0629
35260SOL    HW110718   6.371   4.710   1.471  1.4220  0.9897  1.6164
35260SOL    HW210719   6.463   4.680   1.354 -1.5191 -0.4811 -0.4320
35261SOL     OW10720  11.041   2.867   2.466 -0.0987 -0.5499 -0.0684
35261SOL    HW110721  11.018   2.960   2.459 -2.8293 -1.1952 -0.6408
35261SOL    HW210722  11.082   2.846   2.382  1.3617  0.2833  0.3949
35262SOL     OW10723   8.049   6.905   2.844 -0.1269  1.0810  0.1573
35262SOL    HW110724   7.986   6.972   2.872  0.2110  1.3652  0.2356
35262SOL    HW210725   7.994   6.835   2.808 -0.4260  2.4959 -2.4022
35263SOL     OW10726   1.995   1.758   2.779  0.4378  0.0209 -0.8405
35263SOL    HW110727   1.902   1.751   2.803  0.3637  0.4019 -1.0128
35263SOL    HW210728   2.015   1.675   2.736  0.4245 -0.4502  0.0372
35264SOL     OW10729   1.978   3.065   2.753  0.0113 -0.4759 -0.4925
35264SOL    HW110730   2.042   3.135   2.766 -1.2408  0.5743  0.1131
35264SOL    HW210731   1.998   3.031   2.666  3.4199 -2.3306  0.8064
35265SOL     OW10732   5.558   1.380   5.462  0.1319  0.1658  0.1986
35265SOL    HW110733   5.491   1.391   5.529  0.6828  0.1180  0.7694
35265SOL    HW210734   5.535   1.298   5.418 -0.8961  0.7937 -0.4554
35266SOL     OW10735  10.331   7.824   2.176 -0.3794  0.4050  0.5055
35266SOL    HW110736  10.303   7.746   2.224 -1.8095  0.2390 -0.5177
35266SOL    HW210737  10.249   7.866   2.150  0.3689  1.4848 -0.1739
35267SOL     OW10738   7.233   9.200   1.252  0.4103 -0.1531 -0.2034
35267SOL    HW110739   7.297   9.173   1.187 -1.1358 -3.0160 -0.6883
35267SOL    HW210740   7.168   9.251   1.203 -0.0754 -1.2038 -0.6671
35268SOL     OW10741   4.346   4.937   3.803  0.0359  0.2477 -0.2333
35268SOL    HW110742   4.293   4.865   3.835 -0.8079  0.8938 -0.1321
35268SOL    HW210743   4.333   4.936   3.708 -2.0547  1.7898 -0.0428
35269SOL     OW10744   6.373   9.839   5.825  0.1028  0.2053 -0.3381
35269SOL    HW110745   6.409   9.925   5.848  1.3815  0.3425 -2.5497
35269SOL    HW210746   6.434   9.776   5.862  1.6770  0.4032 -2.4391
35270SOL     OW10747   7.924   8.114  11.678 -0.1611 -0.2826 -0.5595
35270SOL    HW110748   7.865   8.157  11.616 -1.2404  0.1299  0.7044
35270SOL    HW210749   7.935   8.177  11.749  3.1233  0.3167 -1.4450
35271SOL     OW10750   2.191   7.550   4.017 -0.0489  0.2452 -0.5171
35271SOL    HW110751   2.231   7.546   4.103  3.4915 -2.2740 -2.0592
35271SOL    HW210752   2.118   7.488   4.021  0.9835 -0.9421  0.3018
35272SOL     OW10753   4.767   7.082   1.810 -0.2603  0.0414 -0.6807
35272SOL    HW110754   4.732   7.093   1.899 -1.8194 -2.1968 -0.9398
35272SOL    HW210755   4.840   7.022   1.820  0.1679  0.5313 -0.8175
35273SOL     OW10756   1.162   1.834   1.482 -0.0621 -0.1962  0.4680
35273SOL    HW110757   1.252   1.825   1.452 -0.3686 -0.9491 -0.2894
35273SOL    HW210758   1.158   1.783   1.563  0.4127  0.6167  1.0106
35274SOL     OW10759   3.597   4.478   0.807  0.6481 -0.2884  0.2296
35274SOL    HW110760   3.673   4.419   0.799  2.2394  1.5910  0.7104
35274SOL    HW210761   3.578   4.479   0.901  1.4931  0.9343  0.4110
35275SOL     OW10762   6.009   6.082   8.836 -0.1286 -0.5939 -0.2880
35275SOL    HW110763   5.936   6.023   8.818 -0.4141  0.0823 -1.4214
35275SOL    HW210764   6.069   6.030   8.890 -1.8816 -0.8516  1.5412
35276SOL     OW10765   3.867   1.375   8.809 -0.0813 -0.3176 -0.3651
35276SOL    HW110766   3.876   1.293   8.760 -0.6745 -0.0707 -0.9088
35276SOL    HW210767   3.773   1.382   8.827  0.0241  0.0170  0.0785
35277SOL     OW10768   0.971   4.267   5.188 -0.5043 -0.1210 -0.2458
35277SOL    HW110769   1.066   4.263   5.185 -0.3681  1.3911  0.8393
35277SOL    HW210770   0.946   4.308   5.105 -0.2731 -1.0049 -0.7661
35278SOL     OW10771   3.689   3.313   8.151 -0.2036 -0.2153  0.7538
35278SOL    HW110772   3.714   3.245   8.212  2.3247  1.0785  1.2867
35278SOL    HW210773   3.720   3.282   8.066  1.4803  0.4359  1.0847
35279SOL     OW10774  10.034   6.235  10.920 -0.3916 -0.3816  0.6659
35279SOL    HW110775  10.106   6.193  10.872 -0.8666  1.5476 -1.9749
35279SOL    HW210776   9.958   6.181  10.901 -0.7781  0.9008 -1.7575
35280SOL     OW10777   3.893   1.072   1.072  0.0341  0.2054 -0.0064
35280SOL    HW110778   3.805   1.060   1.106 -0.4247 -1.9310 -1.7202
35280SOL    HW210779   3.885   1.144   1.010 -0.3248  0.5526  0.4395
35281SOL     OW10780   3.943   8.778   5.985 -0.0794  0.0443  0.0174
35281SOL    HW110781   3.997   8.856   5.973  0.9892 -0.7879 -0.7481
35281SOL    HW210782   3.928   8.745   5.896  0.5147 -1.3010  0.4043
35282SOL     OW10783   3.458   3.310   6.112  0.3257  0.0644  0.1216
35282SOL    HW110784   3.433   3.259   6.189  0.7943 -0.0473  0.2050
35282SOL    HW210785   3.377   3.351   6.082 -0.2695 -1.4704 -0.5034
35283SOL     OW10786   8.006   1.747   6.956 -0.3634  0.6255 -0.3235
35283SOL    HW110787   8.033   1.819   6.900 -0.9853  1.8914  0.9550
35283SOL    HW210788   8.000   1.785   7.044 -0.0937 -1.1329  0.4986
35284SOL     OW10789   2.652   3.186   5.389  0.2663  0.3748 -0.1520
35284SOL    HW110790   2.606   3.148   5.314  1.3389  0.7559 -1.0321
35284SOL    HW210791   2.713   3.117   5.417 -1.5043 -0.5367  1.6845
35285SOL     OW10792   8.556   9.889   8.735 -0.0928  0.6491  0.2301
35285SOL    HW110793   8.559   9.885   8.639 -0.1944 -1.1340  0.2703
35285SOL    HW210794   8.478   9.839   8.759 -1.0702  2.5396  1.2191
35286SOL     OW10795   1.987   6.481   2.220  0.1552 -0.8028 -0.3458
35286SOL    HW110796   1.935   6.523   2.289  1.2247  0.5479 -0.3020
35286SOL    HW210797   2.007   6.553   2.159 -0.0589 -1.7985 -1.6291
35287SOL     OW10798   5.528  11.529   3.956 -0.5795  0.0200 -0.4464
35287SOL    HW110799   5.460  11.573   4.007 -1.3128  0.1717 -1.5025
35287SOL    HW210800   5.578  11.600   3.917  0.4809 -0.0918  0.6836
35288SOL     OW10801   8.220   3.812   6.804  0.6502  0.1841  0.5087
35288SOL    HW110802   8.299   3.809   6.749  0.1403  0.7332 -0.2746
35288SOL    HW210803   8.250   3.852   6.886  1.3919 -0.5277  0.6046
35289SOL     OW10804   2.873   9.682   3.153 -0.2281  0.0422 -0.3982
35289SOL    HW110805   2.900   9.751   3.092 -3.3383  1.1914 -0.6546
35289SOL    HW210806   2.825   9.728   3.221  1.0410 -1.5132  1.6522
35290SOL     OW10807  10.165   7.419   9.612 -1.1482  0.0677  0.4395
35290SOL    HW110808  10.142   7.483   9.544 -1.3686 -0.3247  0.1402
35290SOL    HW210809  10.259   7.427   9.622 -1.4357  2.2167  2.1874
35291SOL     OW10810   6.289   0.505   1.287 -0.7140 -0.2328 -0.0445
35291SOL    HW110811   6.247   0.555   1.217 -2.1008  0.4355  1.2251
35291SOL    HW210812   6.251   0.417   1.281  1.2007 -1.0435 -1.8177
35292SOL     OW10813   4.022   8.546   5.021  0.2618 -1.0153  0.1082
35292SOL    HW110814   4.066   8.600   4.955 -0.6400  0.2585  0.5165
35292SOL    HW210815   3.953   8.602   5.056 -1.8684 -2.9675 -0.6456
35293SOL     OW10816   6.575   9.610   2.258  0.1104 -0.4943 -0.9388
35293SOL    HW110817   6.660   9.567   2.245  0.3416 -0.2645 -0.1826
35293SOL    HW210818   6.537   9.612   2.170  1.0343 -0.2799 -1.3488
35294SOL     OW10819   5.499  11.066   4.901 -0.7286  0.2438  0.5670
35294SOL    HW110820   5.558  11.020   4.961  2.0144 -0.6833 -2.4820
35294SOL    HW210821   5.548  11.144   4.875 -1.1462 -0.0689 -1.3803
35295SOL     OW10822   5.980   2.222   5.297 -0.5354 -0.2758 -0.6025
35295SOL    HW110823   6.048   2.185   5.240 -0.5139  0.6817 -1.2227
35295SOL    HW210824   5.972   2.314   5.269 -0.3479  0.2956  1.1171
35296SOL     OW10825   2.585   1.649   1.189  0.2533 -0.5122 -0.2738
35296SOL    HW110826   2.649   1.661   1.118  0.6109 -0.7129  0.0123
35296SOL    HW210827   2.521   1.587   1.154 -1.1118  1.4225 -1.4396
35297SOL     OW10828  10.838   3.520   9.470 -0.3740 -0.5498  0.2955
35297SOL    HW110829  10.871   3.552   9.555  2.2191 -1.3593 -0.3189
35297SOL    HW210830  10.854   3.592   9.409  0.3570 -0.9840 -0.0309
35298SOL     OW10831   5.735   5.937   4.467  0.3458 -0.0265 -0.1703
35298SOL    HW110832   5.777   5.962   4.549 -0.2673  1.4674 -0.2815
35298SOL    HW210833   5.643   5.923   4.490  0.3186 -0.3659 -0.4727
35299SOL     OW10834   1.431   0.298   1.671  0.2960  0.3490 -0.1299
35299SOL    HW110835   1.364   0.258   1.726  0.4725 -1.3813 -1.0664
35299SOL    HW210836   1.499   0.327   1.732  1.0747 -2.6478  0.6040
35300SOL     OW10837   2.221   6.776   3.584 -0.4545  0.0052  0.2260
35300SOL    HW110838   2.277   6.822   3.521  0.4446  0.6600  1.4596
35300SOL    HW210839   2.132   6.787   3.549  0.1694 -1.3594 -1.9617
35301SOL     OW10840   5.001   4.521   8.297  0.3517 -0.1427 -0.2166
35301SOL    HW110841   4.975   4.612   8.289  3.6672  0.9684 -0.0736
35301SOL    HW210842   4.992   4.486   8.208 -1.2253  0.1754 -0.2148
35302SOL     OW10843   1.525   3.726   1.735 -0.5374 -0.1350  0.0451
35302SOL    HW110844   1.583   3.802   1.735 -0.0211 -0.4976  1.3182
35302SOL    HW210845   1.566   3.666   1.672  1.4856 -1.0591  2.0919
35303SOL     OW10846   5.641   2.735   9.735 -0.0616 -0.1495 -0.1321
35303SOL    HW110847   5.547   2.725   9.718  0.2965 -0.5369 -2.2284
35303SOL    HW210848   5.682   2.667   9.682  1.3976 -0.3342  1.1736
35304SOL     OW10849   2.784   5.441   4.660 -0.2501 -0.3244 -0.2553
35304SOL    HW110850   2.689   5.430   4.659 -0.4447  0.3167  2.3473
35304SOL    HW210851   2.804   5.464   4.751  2.3733 -0.1224 -0.8037
35305SOL     OW10852   9.075   4.189   6.367  0.3279 -0.4440  0.0429
35305SOL    HW110853   9.169   4.177   6.353  0.2053 -1.5090  0.0461
35305SOL    HW210854   9.061   4.165   6.458  0.0465 -0.3353  0.0297
35306SOL     OW10855   2.819   6.655   2.970 -0.6697  0.0836  0.3098
35306SOL    HW110856   2.751   6.603   2.927  0.6966 -1.3664 -0.1849
35306SOL    HW210857   2.830   6.614   3.056  1.0365 -1.1118 -0.4113
35307SOL     OW10858  10.477   1.844   1.148  0.3388 -0.0134 -0.0684
35307SOL    HW110859  10.480   1.828   1.242 -2.9106 -0.8958 -0.0038
35307SOL    HW210860  10.399   1.899   1.136  0.0069 -0.8917 -2.3250
35308SOL     OW10861   1.461   8.451  10.067  0.5267  0.6494 -0.1249
35308SOL    HW110862   1.423   8.455   9.979 -1.0526  0.4103  0.5069
35308SOL    HW210863   1.509   8.369  10.068 -0.6037 -0.0455 -0.3541
35309SOL     OW10864   8.169   7.936   3.797 -0.1041  0.3497 -0.2251
35309SOL    HW110865   8.134   7.859   3.842 -0.0673  1.4155  1.7054
35309SOL    HW210866   8.111   7.947   3.721 -0.4864 -1.1814 -0.1989
35310SOL     OW10867   7.118   4.969   9.536  0.2705  0.3430 -0.1798
35310SOL    HW110868   7.077   4.993   9.619  0.1503 -0.2814 -0.0533
35310SOL    HW210869   7.126   4.873   9.540  1.5534  0.4205 -0.2832
35311SOL     OW10870   6.904   3.054   2.120  0.5134 -0.3795  0.0015
35311SOL    HW110871   6.927   3.023   2.032 -0.5417  0.3205 -0.5396
35311SOL    HW210872   6.850   3.132   2.104 -1.5779 -1.5089  1.2017
35312SOL     OW10873   4.190   9.678  10.792 -0.3091 -0.2965 -0.1016
35312SOL    HW110874   4.142   9.713  10.867  0.7473 -0.6413  0.7539
35312SOL    HW210875   4.271   9.729  10.788  1.4268 -2.7130  1.3642
35313SOL     OW10876   1.245   5.576   4.150 -0.2987  0.3245  0.1378
35313SOL    HW110877   1.314   5.546   4.209 -0.4089 -1.5427 -0.6016
35313SOL    HW210878   1.281   5.565   4.062 -1.0768  0.5110 -0.2186
35314SOL     OW10879   4.871   7.687   0.699  0.1413 -0.2147  0.4322
35314SOL    HW110880   4.911   7.604   0.674  0.4392  0.2819 -0.8237
35314SOL    HW210881   4.933   7.727   0.759  1.0551  0.0717 -0.6734
35315SOL     OW10882   2.297   3.856   6.422 -0.5796 -0.2510  0.3906
35315SOL    HW110883   2.246   3.937   6.422 -0.9909 -0.4706 -1.5084
35315SOL    HW210884   2.342   3.857   6.507 -0.8901  1.7472  0.5985
35316SOL     OW10885   7.512   6.411   2.710  0.2229 -0.4189  0.4731
35316SOL    HW110886   7.502   6.493   2.662  1.8574 -0.0395  0.7303
35316SOL    HW210887   7.465   6.424   2.792 -2.3198 -0.9511 -0.7986
35317SOL     OW10888   5.465   2.452   9.841 -0.2044 -0.1519 -0.3758
35317SOL    HW110889   5.549   2.417   9.810  0.3932 -0.6343  1.6383
35317SOL    HW210890   5.417   2.374   9.870  0.9374  0.4208  3.7084
35318SOL     OW10891   1.832   7.564   2.277  0.0044 -0.0871  0.4097
35318SOL    HW110892   1.919   7.526   2.284 -0.0982 -0.1378  1.5449
35318SOL    HW210893   1.795   7.524   2.198  0.9395 -0.1844  0.0074
35319SOL     OW10894   2.754   3.550   4.340 -0.0561  0.2211  0.1422
35319SOL    HW110895   2.848   3.564   4.344 -0.0449  0.8607 -1.4969
35319SOL    HW210896   2.742   3.456   4.355  0.7857  0.2327  0.9149
35320SOL     OW10897   5.904   2.811   9.102  0.2597 -0.5791  0.2768
35320SOL    HW110898   5.968   2.848   9.041  1.3673  1.5040  2.4965
35320SOL    HW210899   5.820   2.827   9.061  0.8846  2.0282 -0.1699
35321SOL     OW10900  10.499   7.500   5.370 -0.2306 -0.4259  0.2055
35321SOL    HW110901  10.557   7.478   5.443 -0.1573 -1.0398 -0.0292
35321SOL    HW210902  10.442   7.423   5.361 -1.8889  0.6211  1.1952
35322SOL     OW10903   7.197   7.323   3.476 -0.3977 -0.0865  0.1317
35322SOL    HW110904   7.221   7.303   3.567 -2.4592 -1.0022  0.5238
35322SOL    HW210905   7.189   7.419   3.474  1.7477  0.1495  0.3130
35323SOL     OW10906   6.956   7.033   5.234  0.2445 -0.3792  0.5524
35323SOL    HW110907   6.923   7.033   5.324 -0.4877 -0.0825  0.2914
35323SOL    HW210908   6.913   6.957   5.193 -1.2203  0.7860 -0.1660
35324SOL     OW10909   5.996   9.748   5.196  0.2389 -0.4647 -0.8239
35324SOL    HW110910   5.910   9.768   5.234  0.2441 -2.1105  0.1161
35324SOL    HW210911   6.059   9.780   5.261  0.4612  2.0983 -2.1557
35325SOL     OW10912   5.061  10.215   6.261  0.7030 -0.0995  0.3778
35325SOL    HW110913   5.079  10.164   6.340  0.9035 -0.0249  0.3811
35325SOL    HW210914   4.975  10.255   6.278  1.0618  0.4825  0.8568
35326SOL     OW10915   2.550   4.218   4.797  0.1705 -0.3001 -0.1532
35326SOL    HW110916   2.575   4.140   4.747 -0.5039  1.4826 -3.5400
35326SOL    HW210917   2.579   4.291   4.743 -1.7917  1.8222  1.4861
35327SOL     OW10918   2.349  10.756   0.279 -0.1330  0.1104  0.0979
35327SOL    HW110919   2.442  10.776   0.274  0.1456 -0.8152  1.1483
35327SOL    HW210920   2.343  10.682   0.339 -1.6272  0.7247  0.7763
35328SOL     OW10921   2.280   7.381   6.714  0.3962 -0.2550 -0.0646
35328SOL    HW110922   2.277   7.418   6.802 -1.3413 -0.3024 -0.0816
35328SOL    HW210923   2.324   7.297   6.725 -0.9880 -0.8717  1.0208
35329SOL     OW10924   2.126   0.530   7.507 -0.9095  0.4105 -0.4405
35329SOL    HW110925   2.032   0.547   7.507 -1.3514 -1.5483 -2.4837
35329SOL    HW210926   2.138   0.461   7.442  1.9784  0.7082 -0.3643
35330SOL     OW10927   9.488   1.143   1.250 -0.0911  0.4773  0.5851
35330SOL    HW110928   9.500   1.207   1.179 -1.2633 -1.1558 -1.2066
35330SOL    HW210929   9.572   1.097   1.255  0.0065  0.6123  0.2499
35331SOL     OW10930   7.386   6.074   6.138  0.2201 -0.1546  0.2344
35331SOL    HW110931   7.292   6.061   6.125 -0.0227  0.5196  1.1977
35331SOL    HW210932   7.414   5.996   6.186  0.2867 -0.6352 -0.5573
35332SOL     OW10933   7.693   6.670  10.555  0.2884  0.4067 -0.3461
35332SOL    HW110934   7.688   6.585  10.511  2.1049  0.4336 -0.6602
35332SOL    HW210935   7.643   6.729  10.498 -1.1612 -0.4458 -0.0236
35333SOL     OW10936   3.331   9.615   8.792  0.7478  0.4327  0.2077
35333SOL    HW110937   3.275   9.649   8.723  1.4296  0.9409 -0.1133
35333SOL    HW210938   3.401   9.568   8.746  0.2008 -0.8280  0.6267
35334SOL     OW10939   2.841   4.397   6.294  0.3448  0.0141 -0.4941
35334SOL    HW110940   2.925   4.443   6.294  0.2779  0.1524  0.4305
35334SOL    HW210941   2.777   4.466   6.274  0.4662 -0.1526 -1.5317
35335SOL     OW10942   2.075   3.440  10.199  0.5928  0.3777 -0.4788
35335SOL    HW110943   2.153   3.446  10.144 -0.1617  1.5860 -1.4601
35335SOL    HW210944   2.102   3.383  10.271  2.5004  1.0814 -0.5671
35336SOL     OW10945   1.220   8.289   9.643  0.3168 -0.8819 -0.2119
35336SOL    HW110946   1.146   8.239   9.677 -0.2790 -0.3782 -0.7486
35336SOL    HW210947   1.183   8.373   9.618  1.3246 -0.1466  0.7245
35337SOL     OW10948   8.949   2.836   7.102 -0.6138  0.1944  0.3599
35337SOL    HW110949   8.907   2.878   7.028  0.1486 -1.3798 -1.0318
35337SOL    HW210950   8.896   2.758   7.120 -0.6234  0.4013  1.2894
35338SOL     OW10951  10.697   9.720  10.157 -0.4469  0.0269 -0.2744
35338SOL    HW110952  10.618   9.716  10.211 -0.2683  2.2924  0.2464
35338SOL    HW210953  10.671   9.768  10.079 -0.2256 -1.6243 -1.4191
35339SOL     OW10954   5.047   3.137   6.851  0.2498  0.2578  0.7492
35339SOL    HW110955   5.066   3.231   6.848  1.1532  0.0823  0.8133
35339SOL    HW210956   5.103   3.104   6.921 -1.9249  0.0736  2.5281
35340SOL     OW10957   7.320  11.193   6.825  0.0356  0.2725 -0.2792
35340SOL    HW110958   7.235  11.178   6.783 -0.3118  1.2149  0.0692
35340SOL    HW210959   7.299  11.214   6.916  0.6685  0.0514 -0.0803
35341SOL     OW10960  11.638  11.388   8.411 -0.6698 -0.1289 -0.2986
35341SOL    HW110961  11.602  11.383   8.322 -1.4772  1.5216 -0.1041
35341SOL    HW210962  11.644  11.481   8.429  0.3596 -0.4246  1.0620
35342SOL     OW10963   3.784   8.149  11.439 -0.2723 -0.0040  0.1514
35342SOL    HW110964   3.878   8.133  11.451  0.0668  1.6331 -0.1232
35342SOL    HW210965   3.741   8.083  11.494  0.9988 -1.5911 -0.6706
35343SOL     OW10966   3.541   8.182   6.310 -0.6384  0.2841  0.2055
35343SOL    HW110967   3.550   8.277   6.301 -0.2750  0.2112 -0.2178
35343SOL    HW210968   3.446   8.168   6.318 -0.6892  0.6835  0.3367
35344SOL     OW10969  10.268   7.038  10.061 -0.4116 -0.1255 -0.3031
35344SOL    HW110970  10.267   6.996   9.975 -0.1222  1.4172 -1.1045
35344SOL    HW210971  10.180   7.023  10.095 -0.3625 -1.2203 -0.6201
35345SOL     OW10972   4.813   2.757   3.264 -0.5909 -0.1679 -0.2482
35345SOL    HW110973   4.883   2.697   3.239 -0.3938  0.1621 -0.4960
35345SOL    HW210974   4.857   2.841   3.278 -1.0727  0.3267 -1.5067
35346SOL     OW10975   8.748   1.513  10.551 -0.3909 -0.2618 -0.2847
35346SOL    HW110976   8.673   1.559  10.514 -0.4478  1.8606  2.2047
35346SOL    HW210977   8.816   1.519  10.484 -0.9799  1.9819 -0.7651
35347SOL     OW10978   1.268  10.080   9.051 -0.0500  0.1600  0.4418
35347SOL    HW110979   1.275  10.144   9.122  2.6816 -1.0581  1.3851
35347SOL    HW210980   1.200  10.019   9.081 -2.0110  1.9791 -0.0466
35348SOL     OW10981   2.120   6.885   7.040  0.3642  0.8097  0.3822
35348SOL    HW110982   2.028   6.904   7.025  0.3467 -0.6946 -1.8260
35348SOL    HW210983   2.146   6.945   7.110 -1.8687  2.3544 -0.0262
35349SOL     OW10984  11.307  11.105   4.688  0.1989 -0.1991 -0.2151
35349SOL    HW110985  11.296  11.071   4.777  2.4994  1.8861  0.9649
35349SOL    HW210986  11.235  11.066   4.639 -0.9213 -1.7413  2.4461
35350SOL     OW10987   5.470   2.279   0.941  0.1367  0.4386 -0.1096
35350SOL    HW110988   5.393   2.326   0.973 -0.2494 -1.1418  1.4368
35350SOL    HW210989   5.490   2.320   0.857 -1.4586  1.8986  0.1733
35351SOL     OW10990   7.511   5.961   5.052 -0.6911  0.1283  0.1573
35351SOL    HW110991   7.594   5.982   5.093  0.1782 -0.5752 -1.1665
35351SOL    HW210992   7.467   5.904   5.115  1.5807 -2.8271 -0.6719
35352SOL     OW10993   1.261   6.499  10.604 -0.1884  0.3202  1.4234
35352SOL    HW110994   1.347   6.489  10.564 -0.1803 -0.8780  1.7231
35352SOL    HW210995   1.233   6.587  10.579  0.6074  0.2767  0.3330
35353SOL     OW10996  10.071   2.418   0.027  0.2468  0.1413  0.0598
35353SOL    HW110997  10.081   2.479   0.100 -0.0246  0.4938 -0.1938
35353SOL    HW210998  10.157   2.375   0.020 -0.1341 -0.9621  1.5070
35354SOL     OW10999   2.837   8.261   1.073  0.7683  0.2423 -0.4160
35354SOL    HW111000   2.882   8.177   1.074 -0.9106 -0.7149 -1.0791
35354SOL    HW211001   2.869   8.307   1.151  2.1058 -0.7790 -0.3324
35355SOL     OW11002   7.796   2.104  11.201  0.5176 -0.0835 -0.1740
35355SOL    HW111003   7.854   2.156  11.145 -0.0523  2.0210  1.0622
35355SOL    HW211004   7.709   2.115  11.161  0.6442 -1.6302 -0.9244
35356SOL     OW11005   2.466   6.061  10.906  0.7661 -0.4261 -0.0836
35356SOL    HW111006   2.516   6.140  10.885 -0.4887  0.1938 -0.8088
35356SOL    HW211007   2.402   6.090  10.971  0.8801 -1.0602  0.3207
35357SOL     OW11008   9.200   7.253   8.816  0.6987 -0.7181 -0.2075
35357SOL    HW111009   9.244   7.220   8.894  0.9894  0.8525  0.3176
35357SOL    HW211010   9.107   7.237   8.833  0.4236  2.2622  1.8868
35358SOL     OW11011   7.728   6.072   2.585 -0.4908 -0.2744 -0.2492
35358SOL    HW111012   7.716   5.991   2.634 -1.6417  1.3302  2.3851
35358SOL    HW211013   7.795   6.120   2.633 -1.6373  1.3621 -0.1710
35359SOL     OW11014   4.640   1.288   1.301  0.6004  0.2703  0.3353
35359SOL    HW111015   4.661   1.265   1.392  0.7283  0.2355  0.2960
35359SOL    HW211016   4.686   1.224   1.248 -3.4041 -2.9921  0.3142
35360SOL     OW11017   6.278   2.478   5.050 -0.1245 -0.3453  0.9201
35360SOL    HW111018   6.339   2.534   5.097 -1.4512  1.0976  1.0009
35360SOL    HW211019   6.277   2.512   4.961 -1.6247  0.3935  1.1867
35361SOL     OW11020   4.382   0.348   1.621  0.2617  0.6296 -0.1990
35361SOL    HW111021   4.384   0.434   1.579  1.8346  1.2996  1.1562
35361SOL    HW211022   4.314   0.356   1.688 -0.5166  0.3507 -0.9262
35362SOL     OW11023   4.395  10.708   1.670  0.1175  0.0097  0.4381
35362SOL    HW111024   4.487  10.692   1.695  0.1328  0.2117  0.5085
35362SOL    HW211025   4.399  10.778   1.606  0.0071  0.0497  0.4748
35363SOL     OW11026   7.406   4.095   5.142 -0.0230 -0.1308  0.7805
35363SOL    HW111027   7.370   4.063   5.225  0.3584 -0.9395  0.6447
35363SOL    HW211028   7.347   4.060   5.075 -1.5344  2.1771  0.7676
35364SOL     OW11029   9.816   9.411   8.840 -0.6987  0.1783 -0.5716
35364SOL    HW111030   9.744   9.387   8.781 -1.1305  0.8776 -0.3490
35364SOL    HW211031   9.895   9.388   8.792 -1.0592  0.0470 -1.1142
35365SOL     OW11032   9.185   3.578   1.289  0.4658  0.4614  0.0051
35365SOL    HW111033   9.178   3.541   1.377  1.8294  0.1876  0.0145
35365SOL    HW211034   9.271   3.551   1.259  0.1452  0.8444 -1.2910
35366SOL     OW11035   4.481  10.412   7.114  0.3016 -1.3787 -0.4075
35366SOL    HW111036   4.515  10.499   7.131  1.7823 -2.1643  0.9311
35366SOL    HW211037   4.424  10.423   7.038 -0.5026  0.9361  0.4486
35367SOL     OW11038   0.768   8.662   2.255  0.2743  0.2063 -0.1539
35367SOL    HW111039   0.851   8.654   2.302  0.0205 -1.7160  0.0407
35367SOL    HW211040   0.704   8.682   2.323 -0.1559 -2.9361  0.4954
35368SOL     OW11041   5.158   0.474   7.786 -0.1493  0.4011 -0.5579
35368SOL    HW111042   5.248   0.486   7.754 -0.5802  0.7724 -1.6571
35368SOL    HW211043   5.149   0.379   7.795  0.2671  0.3442 -0.6965
35369SOL     OW11044  11.352  11.184  10.139  0.1059  0.2723  0.1861
35369SOL    HW111045  11.426  11.151  10.190 -0.5318  0.7092  1.4339
35369SOL    HW211046  11.360  11.279  10.144  0.8507  0.3517 -1.7855
35370SOL     OW11047  10.674  11.108  10.741  0.2449 -0.0704  0.1787
35370SOL    HW111048  10.749  11.068  10.696 -0.4170  0.5524 -1.5980
35370SOL    HW211049  10.645  11.178  10.682 -1.7191 -0.2745  0.8042
35371SOL     OW11050   6.245   3.684   3.925  0.4703  0.1266  0.3545
35371SOL    HW111051   6.161   3.700   3.969  0.7867 -0.3559  1.1471
35371SOL    HW211052   6.239   3.733   3.843 -0.6941 -0.1014  0.2834
35372SOL     OW11053  10.181   1.549   0.175 -0.2429 -0.2182 -0.5533
35372SOL    HW111054  10.160   1.465   0.135  1.1759 -1.3183  0.8628
35372SOL    HW211055  10.270   1.568   0.147 -1.7140  2.8475 -3.9995
35373SOL     OW11056   4.682   9.657   6.128 -0.1619  0.8741 -1.0674
35373SOL    HW111057   4.625   9.677   6.202  1.0810  0.8359 -0.0748
35373SOL    HW211058   4.743   9.731   6.123  1.7741 -0.5613 -0.0248
35374SOL     OW11059   4.845   8.546   0.693 -0.3057 -0.0978 -0.1299
35374SOL    HW111060   4.802   8.491   0.759 -1.0239 -0.3517 -0.7956
35374SOL    HW211061   4.794   8.532   0.613 -0.0749  1.0026 -0.4863
35375SOL     OW11062   9.860   3.216  10.168  0.0665  0.2518  0.2938
35375SOL    HW111063   9.830   3.307  10.175 -0.0468  0.1439  1.4247
35375SOL    HW211064   9.788   3.171  10.125 -0.7821  0.3160  1.5666
35376SOL     OW11065   4.212   6.276   5.539 -0.1632 -0.0066 -0.5911
35376SOL    HW111066   4.158   6.241   5.469 -0.0323  0.4044 -0.9008
35376SOL    HW211067   4.259   6.350   5.499 -0.7585  0.7953  0.1575
35377SOL     OW11068   2.539   0.444   8.556  0.3234  0.4792  0.5506
35377SOL    HW111069   2.515   0.360   8.516 -0.9952  1.3563 -0.6268
35377SOL    HW211070   2.492   0.445   8.639  0.8714 -0.2069  0.8785
35378SOL     OW11071   3.449  11.163   7.762 -0.1363  0.3515  0.2139
35378SOL    HW111072   3.442  11.088   7.821 -1.9510 -0.1484 -0.5691
35378SOL    HW211073   3.533  11.151   7.717  0.9558  0.3675  2.1200
35379SOL     OW11074   8.965   9.993   7.077  0.0245  0.4673 -0.0035
35379SOL    HW111075   9.049  10.039   7.080  0.7649 -0.8698  2.1592
35379SOL    HW211076   8.987   9.902   7.100 -1.7757 -0.3470 -1.2872
35380SOL     OW11077   0.225   9.671   9.589  0.4830  0.5434 -0.2205
35380SOL    HW111078   0.282   9.729   9.639  0.3929  0.6849 -0.2795
35380SOL    HW211079   0.270   9.660   9.505  0.0762  1.2548 -0.5513
35381SOL     OW11080   6.679   0.587  11.487  0.2500  0.4664  0.2754
35381SOL    HW111081   6.595   0.558  11.450  0.5956 -0.7445  0.3832
35381SOL    HW211082   6.656   0.664  11.540 -0.7314  0.3846 -0.0007
35382SOL     OW11083   4.119   3.503   2.279  0.4632 -0.2573 -0.3457
35382SOL    HW111084   4.161   3.577   2.236  0.4987 -0.8170 -1.2923
35382SOL    HW211085   4.190   3.445   2.302  0.2174 -2.1463 -3.6940
35383SOL     OW11086   4.288  10.643   5.167  0.1526  0.0156 -0.6195
35383SOL    HW111087   4.346  10.718   5.176  0.1485 -0.1939  1.9341
35383SOL    HW211088   4.311  10.604   5.083  1.6572  1.6131 -0.9894
35384SOL     OW11089   9.893   6.548   9.638 -0.6994 -0.2587 -0.0304
35384SOL    HW111090   9.968   6.536   9.696 -0.3479 -1.1751 -0.6570
35384SOL    HW211091   9.926   6.601   9.566 -0.1069 -2.2074 -1.2636
35385SOL     OW11092   9.112   7.580   4.600 -0.2172 -0.2546  0.0059
35385SOL    HW111093   9.126   7.504   4.544 -0.7506 -0.1921 -0.2174
35385SOL    HW211094   9.110   7.545   4.689 -0.0590 -0.4458 -0.0661
35386SOL     OW11095   5.717  10.447   5.125 -0.0875  0.6604  0.6151
35386SOL    HW111096   5.811  10.436   5.113 -0.4091 -2.9937  0.0306
35386SOL    HW211097   5.704  10.444   5.220  0.3198 -0.8112  0.6578
35387SOL     OW11098  10.581   2.770   5.415  0.2642  0.6074  0.4977
35387SOL    HW111099  10.511   2.718   5.456  1.0073 -1.1985 -0.3834
35387SOL    HW211100  10.620   2.819   5.487 -1.0492  0.6224  1.2272
35388SOL     OW11101   2.289   1.043   4.432 -0.5423  0.2040 -0.1116
35388SOL    HW111102   2.334   1.042   4.516 -0.6408 -1.0181 -0.0548
35388SOL    HW211103   2.200   1.014   4.452 -0.8896  1.0071 -0.4693
35389SOL     OW11104  11.204   6.106   4.184 -0.3811 -0.3668  0.0105
35389SOL    HW111105  11.232   6.022   4.220 -0.2459 -0.6958 -0.8489
35389SOL    HW211106  11.278   6.165   4.201 -0.3072 -0.5236  0.2387
35390SOL     OW11107  10.520   4.703   2.164  0.2402 -0.3078  0.3347
35390SOL    HW111108  10.549   4.780   2.116 -0.4059  0.0315  0.4769
35390SOL    HW211109  10.580   4.634   2.137  1.5225  0.4931  1.0466
35391SOL     OW11110   2.846   6.667   7.431  0.1553 -0.1906  0.3820
35391SOL    HW111111   2.806   6.580   7.422  1.1442 -0.6099 -0.0772
35391SOL    HW211112   2.870   6.692   7.342  0.4797  0.2613  0.5929
35392SOL     OW11113   7.238  11.443   9.973  0.3236  0.2622 -0.6605
35392SOL    HW111114   7.253  11.385  10.048  0.4370  0.2367 -0.7033
35392SOL    HW211115   7.243  11.385   9.897 -2.3302 -0.2205 -0.5713
35393SOL     OW11116   6.194   8.348   1.756  0.3145  0.5127 -0.0148
35393SOL    HW111117   6.109   8.389   1.744  1.0159  2.0772  0.1125
35393SOL    HW211118   6.194   8.274   1.696 -0.1004  2.1198 -2.1066
35394SOL     OW11119   6.685  11.138   9.436 -0.3786 -0.3258 -0.0049
35394SOL    HW111120   6.720  11.185   9.360  1.5014  1.5301  1.8910
35394SOL    HW211121   6.762  11.103   9.480 -1.0991  1.0684  2.5414
35395SOL     OW11122   4.357   5.356  11.462  0.0182 -0.2507 -0.0663
35395SOL    HW111123   4.440   5.353  11.416  0.8678  0.5935  1.3502
35395SOL    HW211124   4.379   5.387  11.550 -2.0437  2.4330 -0.3549
35396SOL     OW11125   5.547   2.178  11.318 -0.0801  0.1812  0.1541
35396SOL    HW111126   5.563   2.215  11.231 -0.4933 -0.2896 -0.1252
35396SOL    HW211127   5.471   2.226  11.351 -1.1403 -0.9746 -0.5520
35397SOL     OW11128   9.037  10.220   0.518  0.1160 -0.1975  0.0342
35397SOL    HW111129   9.013  10.298   0.467 -2.6919 -2.3719 -2.3311
35397SOL    HW211130   9.103  10.177   0.464  1.4631  0.3240  1.2111
35398SOL     OW11131   0.613  11.162   3.297  0.2265 -0.4578  0.3484
35398SOL    HW111132   0.684  11.199   3.243  0.6615 -1.2330  0.3681
35398SOL    HW211133   0.584  11.235   3.351 -1.3829  0.8386 -2.0732
35399SOL     OW11134  10.694  10.152   2.476  0.1648  0.4411  0.5642
35399SOL    HW111135  10.647  10.208   2.414  0.6122 -1.0059 -1.1456
35399SOL    HW211136  10.782  10.189   2.479 -0.0382  0.9073  0.8581
35400SOL     OW11137   5.996   8.690   5.842 -0.5884  0.1518 -0.0349
35400SOL    HW111138   6.057   8.711   5.771 -0.6010  0.0696 -0.0713
35400SOL    HW211139   5.970   8.775   5.877  1.5021  0.1448  1.6885
35401SOL     OW11140   3.895   9.396   8.751 -0.0680  0.5362 -0.5038
35401SOL    HW111141   3.918   9.488   8.762 -0.7799  0.7237 -0.5372
35401SOL    HW211142   3.955   9.364   8.684 -0.8089  1.3618 -1.5847
35402SOL     OW11143   0.673   7.970   5.110  0.2884 -0.0116 -0.8396
35402SOL    HW111144   0.613   8.041   5.084  0.8312  0.1906 -1.5892
35402SOL    HW211145   0.675   7.912   5.034 -0.1690 -0.8631 -0.2209
35403SOL     OW11146   7.722  10.905   0.057 -0.0006  0.4755  0.2024
35403SOL    HW111147   7.801  10.856   0.081 -0.6497  0.1204  1.7678
35403SOL    HW211148   7.671  10.843   0.004 -0.1433 -0.0344  0.9181
35404SOL     OW11149   2.986  10.909  11.691  0.0127  0.1369 -0.0386
35404SOL    HW111150   3.003  10.981  11.630  1.2844  0.0461  0.1909
35404SOL    HW211151   2.896  10.883  11.672 -0.3900  1.6184 -0.2877
35405SOL     OW11152   1.142  10.841   1.222 -0.2268  0.0140  0.0769
35405SOL    HW111153   1.098  10.809   1.301 -0.4923 -1.4859 -0.6471
35405SOL    HW211154   1.189  10.919   1.251 -0.8384 -0.1326  1.5687
35406SOL     OW11155   3.324   4.655   2.404  0.0549  0.1541  0.1455
35406SOL    HW111156   3.345   4.605   2.482  3.9210  1.6377  0.2678
35406SOL    HW211157   3.323   4.590   2.333  1.0853 -0.6433  0.8348
35407SOL     OW11158   1.160   6.193   2.340  0.2056 -0.0857 -0.3549
35407SOL    HW111159   1.162   6.213   2.246 -1.1879 -2.7265 -1.0559
35407SOL    HW211160   1.069   6.210   2.366  0.3399 -0.3106  0.2675
35408SOL     OW11161   8.376   5.969   9.882  0.0641 -0.2451 -0.4024
35408SOL    HW111162   8.368   6.062   9.860  2.5155 -0.0662 -0.7994
35408SOL    HW211163   8.345   5.923   9.803  1.5368  0.3082 -1.3487
35409SOL     OW11164   3.255   5.053   5.950  0.1163  0.0790  0.3638
35409SOL    HW111165   3.214   5.039   6.035  1.0111 -0.5475  0.7041
35409SOL    HW211166   3.303   5.136   5.960  0.5604 -0.2022  0.6144
35410SOL     OW11167   5.758   4.777   7.531 -0.0761  0.4466 -0.1692
35410SOL    HW111168   5.741   4.698   7.479  0.8751 -1.1922  1.8452
35410SOL    HW211169   5.853   4.785   7.531 -0.1191  0.9926  0.5258
35411SOL     OW11170   5.353   0.015   4.096 -0.1514  0.3361 -0.0326
35411SOL    HW111171   5.293   0.090   4.104 -0.3059  0.2384 -0.2572
35411SOL    HW211172   5.436   0.048   4.129 -0.3831  0.4100  0.4816
35412SOL     OW11173   5.743   6.723   9.728  0.5766  0.3629  0.0593
35412SOL    HW111174   5.736   6.740   9.822 -0.4639 -1.0183  0.2620
35412SOL    HW211175   5.782   6.803   9.692  2.0401  0.4966  1.7917
35413SOL     OW11176   8.619   0.035  11.076  0.2121  0.7514  0.0751
35413SOL    HW111177   8.664   0.027  10.992 -0.4174  0.8697 -0.2801
35413SOL    HW211178   8.621   0.129  11.095 -1.0780  0.9405 -0.6211
35414SOL     OW11179   0.338   8.765   4.300  0.0844 -0.7142 -0.7098
35414SOL    HW111180   0.325   8.701   4.230 -0.3211  0.7090 -1.9882
35414SOL    HW211181   0.250   8.785   4.332  0.2362 -1.0556 -0.0741
35415SOL     OW11182  10.198   4.848  11.059  0.0330 -0.3634  0.6019
35415SOL    HW111183  10.184   4.759  11.092 -0.5668 -0.6894 -0.4582
35415SOL    HW211184  10.237   4.835  10.972 -1.1491  0.3609 -0.0643
35416SOL     OW11185  10.290   3.903  11.632  0.5214  0.0430  0.3492
35416SOL    HW111186  10.274   3.989  11.672 -0.5971  0.2372 -0.4715
35416SOL    HW211187  10.205   3.860  11.633  0.8106 -0.5534 -0.4085
35417SOL     OW11188   7.490   7.653   2.317  0.4306 -0.1248 -0.5717
35417SOL    HW111189   7.432   7.666   2.392 -0.9576  0.0581 -1.6362
35417SOL    HW211190   7.431   7.643   2.242  1.7903  0.6755 -1.8126
35418SOL     OW11191  11.068   5.828   4.439  0.0039 -0.1837 -0.1907
35418SOL    HW111192  11.156   5.856   4.413 -0.2399 -0.7208 -1.6829
35418SOL    HW211193  11.079   5.789   4.526  1.1900 -0.0121 -0.2564
35419SOL     OW11194  11.503   7.374  10.546  0.0761 -0.1058  0.0072
35419SOL    HW111195  11.539   7.321  10.475 -2.1940 -0.9440 -0.6028
35419SOL    HW211196  11.516   7.321  10.625  0.6845 -0.1304 -0.1058
35420SOL     OW11197   9.107   4.482  10.311 -0.0323 -0.2836 -0.6079
35420SOL    HW111198   9.172   4.481  10.382 -0.5737  1.3867 -0.0342
35420SOL    HW211199   9.030   4.442  10.350 -0.9927  2.4211  0.5224
35421SOL     OW11200   7.258   9.549   3.443 -0.1990  0.2639  0.3501
35421SOL    HW111201   7.331   9.591   3.399 -0.4927 -0.0542 -0.4496
35421SOL    HW211202   7.253   9.462   3.404  1.1892 -1.0526  2.7991
35422SOL     OW11203   1.545   2.078   5.701 -0.5382  0.3420  0.3950
35422SOL    HW111204   1.545   2.058   5.607  0.6166 -1.1522  0.6616
35422SOL    HW211205   1.459   2.048   5.732 -0.8287  0.6150 -0.1384
35423SOL     OW11206   9.501   8.218   2.462 -0.7309 -0.9588  0.2850
35423SOL    HW111207   9.408   8.240   2.465 -0.2624  1.8734 -1.7514
35423SOL    HW211208   9.512   8.169   2.381 -0.2586  0.3100 -0.4601
35424SOL     OW11209   2.301  10.900   7.140 -0.3078 -0.0016 -0.2250
35424SOL    HW111210   2.345  10.837   7.197 -0.3084 -0.1189 -0.3528
35424SOL    HW211211   2.243  10.950   7.198 -0.7931 -0.5506 -0.2263
35425SOL     OW11212   3.976   2.902   7.195  0.1365  0.9486 -0.0155
35425SOL    HW111213   3.884   2.919   7.174 -0.2500  0.0246  0.8219
35425SOL    HW211214   4.002   2.832   7.135 -0.3648 -0.2770  1.1471
35426SOL     OW11215   5.840   5.142   4.514  0.1251 -0.8103  0.1336
35426SOL    HW111216   5.908   5.175   4.457 -0.0038 -0.2030  0.3261
35426SOL    HW211217   5.800   5.220   4.553 -1.3314 -1.0816 -0.7210
35427SOL     OW11218   6.732   6.941   7.071  0.3698  0.1099  0.1678
35427SOL    HW111219   6.667   6.997   7.116 -0.1188  1.3008 -1.8900
35427SOL    HW211220   6.715   6.853   7.106 -0.6205  0.7986  1.5647
35428SOL     OW11221   1.046   5.961   6.225  0.2807 -0.0720  0.5549
35428SOL    HW111222   0.972   5.981   6.282  0.5306 -0.0965  0.8890
35428SOL    HW211223   1.006   5.946   6.139 -0.4221 -2.7012  1.2316
35429SOL     OW11224   5.225   5.479   2.803 -0.3363 -0.0236  0.0243
35429SOL    HW111225   5.244   5.568   2.832  1.8300  0.3039 -2.1021
35429SOL    HW211226   5.276   5.423   2.861  0.5230  0.3325 -0.3716
35430SOL     OW11227   2.730   7.718   8.769 -0.4777  0.0139 -0.0255
35430SOL    HW111228   2.686   7.645   8.811 -0.7125  1.4392  2.3738
35430SOL    HW211229   2.819   7.686   8.752 -1.2826 -1.6274 -1.4455
35431SOL     OW11230  10.536   2.410   6.600 -0.2638 -0.1558  0.8833
35431SOL    HW111231  10.569   2.473   6.664  0.1534 -0.4036  0.9243
35431SOL    HW211232  10.559   2.447   6.515 -1.5785  0.5831  0.8404
35432SOL     OW11233   5.644   3.753   2.524  0.6725 -0.2487 -0.0385
35432SOL    HW111234   5.552   3.729   2.515  0.8145 -0.9081  0.2299
35432SOL    HW211235   5.643   3.837   2.568  0.1749  0.0666 -0.6405
35433SOL     OW11236   5.139   4.918   6.917  0.0630  0.0619  0.3301
35433SOL    HW111237   5.059   4.935   6.867  0.7354  1.0898 -0.4335
35433SOL    HW211238   5.109   4.906   7.007 -0.9614  0.2478  0.0257
35434SOL     OW11239   6.075   2.413   4.747  0.5071 -0.2773  0.4284
35434SOL    HW111240   6.075   2.321   4.775 -0.2861  0.1941  2.0244
35434SOL    HW211241   5.999   2.451   4.789  0.9865  1.1976  0.0029
35435SOL     OW11242   4.183   3.226   5.079  0.6217 -0.2519 -0.1290
35435SOL    HW111243   4.152   3.173   5.152 -0.0017  0.7281  0.3411
35435SOL    HW211244   4.230   3.299   5.121 -1.4512  1.4273 -0.5566
35436SOL     OW11245   7.213   4.539   7.406  0.7096  0.1633 -0.3816
35436SOL    HW111246   7.292   4.495   7.374  0.8969  0.1083  0.1495
35436SOL    HW211247   7.153   4.467   7.428  0.5752  0.2022 -0.6121
35437SOL     OW11248   9.716   5.601   3.628 -0.0631 -0.4750  0.6235
35437SOL    HW111249   9.686   5.599   3.537  2.7919 -0.4893 -0.4178
35437SOL    HW211250   9.726   5.509   3.652  2.5622 -0.5220 -0.3628
35438SOL     OW11251  11.462   0.192  10.298  0.1076 -0.1616 -0.0316
35438SOL    HW111252  11.390   0.140  10.262  0.0323 -0.0863  0.0099
35438SOL    HW211253  11.527   0.195  10.228 -0.3641  0.6379 -0.4507
35439SOL     OW11254  11.132   3.993   6.027 -0.1263 -0.3962 -0.3230
35439SOL    HW111255  11.040   3.982   6.052 -0.1826 -0.6590 -0.6350
35439SOL    HW211256  11.134   3.971   5.934  0.1219  0.3231 -0.4917
35440SOL     OW11257   6.107  10.470   8.230  0.1759  0.5418 -0.0185
35440SOL    HW111258   6.105  10.405   8.301 -0.0578  1.4241  0.8024
35440SOL    HW211259   6.176  10.531   8.256  0.9179  0.2169 -1.1692
35441SOL     OW11260   6.486   1.705   7.272  0.0283  0.1146 -0.1523
35441SOL    HW111261   6.577   1.698   7.302  0.1365  1.0367 -0.2525
35441SOL    HW211262   6.437   1.724   7.352  0.2236  1.8469 -0.4149
35442SOL     OW11263   9.269  10.154   8.187  0.1388  0.1261  0.4409
35442SOL    HW111264   9.283  10.234   8.238 -1.7038  1.2842 -0.7214
35442SOL    HW211265   9.292  10.179   8.097 -0.4467 -0.6331  0.0604
35443SOL     OW11266   4.701   3.367   3.412  0.3185 -0.3343  0.2129
35443SOL    HW111267   4.760   3.434   3.447  1.3537 -1.0423 -0.1143
35443SOL    HW211268   4.651   3.337   3.488 -1.2393  1.8273  0.1070
35444SOL     OW11269   4.707  11.389   7.666  0.2363 -0.3485 -0.5273
35444SOL    HW111270   4.718  11.371   7.759  0.5648 -0.9304 -0.6723
35444SOL    HW211271   4.659  11.313   7.633 -1.0278  0.4603 -0.5944
35445SOL     OW11272   5.281   7.750  10.062 -0.0473  0.1572  0.0933
35445SOL    HW111273   5.304   7.751  10.155 -0.0605  1.0851  0.0967
35445SOL    HW211274   5.351   7.800  10.020  0.3433 -0.8621 -0.5010
35446SOL     OW11275   0.136   8.004   7.699 -0.1805  0.5467  0.5073
35446SOL    HW111276   0.094   8.082   7.736  0.6167  0.9739  0.5327
35446SOL    HW211277   0.075   7.933   7.718 -0.0488  0.8396  2.1935
35447SOL     OW11278   2.990   9.135   8.265 -0.4354 -0.2240 -0.3867
35447SOL    HW111279   2.917   9.075   8.249 -0.9434  0.1798  0.3368
35447SOL    HW211280   2.966   9.181   8.346  0.2525  0.4815 -0.5697
35448SOL     OW11281   4.226   4.769   4.924 -0.1261  0.5370 -0.5711
35448SOL    HW111282   4.319   4.786   4.909  0.9658 -2.9640  1.2422
35448SOL    HW211283   4.204   4.698   4.864 -0.9705 -0.3097  0.7075
35449SOL     OW11284   6.681   0.865   7.987 -0.3001 -0.2681  0.1262
35449SOL    HW111285   6.704   0.946   7.940 -0.6813 -0.6488 -0.7392
35449SOL    HW211286   6.730   0.870   8.069  1.4489 -0.2004 -0.8766
35450SOL     OW11287   3.389   6.072   9.950 -0.2620 -0.5769  0.1239
35450SOL    HW111288   3.411   6.071  10.044 -0.7577  0.3959  0.2639
35450SOL    HW211289   3.300   6.105   9.947 -0.2932 -0.7295 -0.6882
35451SOL     OW11290   1.041   3.901   0.082 -0.6266 -0.2117 -0.4514
35451SOL    HW111291   1.092   3.821   0.072 -2.6567 -1.6596 -0.0461
35451SOL    HW211292   1.000   3.913  -0.004  1.1662  1.5750 -1.1249
35452SOL     OW11293   4.158   7.766   8.299 -0.0769 -0.1391 -0.0845
35452SOL    HW111294   4.096   7.826   8.339 -0.7906 -0.1340 -1.1601
35452SOL    HW211295   4.172   7.698   8.366 -1.3925 -0.2455  0.1100
35453SOL     OW11296   6.062   9.162   4.352  0.3441  0.1003 -0.2389
35453SOL    HW111297   6.048   9.074   4.317 -0.6262 -0.1006  0.5811
35453SOL    HW211298   6.148   9.159   4.393 -0.2360 -0.9070  0.9699
35454SOL     OW11299   7.360   0.593  11.257 -0.5726  0.2470 -0.0163
35454SOL    HW111300   7.302   0.547  11.317  0.9642  0.1500  1.4642
35454SOL    HW211301   7.370   0.534  11.183 -0.9740 -0.4945  0.5101
35455SOL     OW11302   4.037  11.015   9.693  0.1022  0.0371 -0.0184
35455SOL    HW111303   4.109  11.016   9.630 -0.1837  1.5348 -0.3513
35455SOL    HW211304   4.018  11.107   9.710 -0.5764 -0.3358  1.4140
35456SOL     OW11305  11.126   6.131   0.343  0.2051  0.1626 -0.4024
35456SOL    HW111306  11.086   6.215   0.321 -0.7820  0.0230  0.7032
35456SOL    HW211307  11.217   6.139   0.317 -0.2745  0.9321 -1.9290
35457SOL     OW11308   9.839   9.193   4.094 -0.2371  0.3258 -0.1317
35457SOL    HW111309   9.782   9.227   4.025 -0.0209 -1.4969 -1.2817
35457SOL    HW211310   9.918   9.247   4.090 -1.6717  2.7140  1.2999
35458SOL     OW11311   5.974   6.543   0.395  0.2724 -0.1287  0.0014
35458SOL    HW111312   5.983   6.477   0.463  0.1316 -1.5988 -1.3357
35458SOL    HW211313   6.053   6.534   0.342  0.6857  1.4225  0.2910
35459SOL     OW11314   6.050   9.016   6.606  0.0256 -0.2635  0.4939
35459SOL    HW111315   6.057   9.020   6.510  1.7648 -0.1889  0.5892
35459SOL    HW211316   6.082   9.101   6.635 -4.3225  1.4096  1.0745
35460SOL     OW11317   5.873  10.137   2.794 -0.3774 -0.0209 -0.4254
35460SOL    HW111318   5.887  10.198   2.721  2.2091  0.6908  0.5548
35460SOL    HW211319   5.784  10.154   2.823  0.2818  3.5544 -0.0432
35461SOL     OW11320   4.226   5.238  10.259 -0.3312 -0.8757  0.4287
35461SOL    HW111321   4.161   5.177  10.295 -1.4807 -0.2832 -0.5379
35461SOL    HW211322   4.197   5.251  10.169 -0.2846  1.3108  0.6948
35462SOL     OW11323   6.427   5.322  11.439 -0.2524 -0.6590 -0.7883
35462SOL    HW111324   6.482   5.400  11.441 -0.6891 -0.3370 -1.0591
35462SOL    HW211325   6.390   5.315  11.527 -0.4643 -0.3760 -0.8548
35463SOL     OW11326   9.352  11.614  10.417 -0.4096  0.3396 -0.4308
35463SOL    HW111327   9.385  11.541  10.365 -0.3047 -0.7651  1.1288
35463SOL    HW211328   9.276  11.646  10.368 -1.5037 -1.9179 -0.3261
35464SOL     OW11329   6.566   8.120  11.006 -0.3014  0.1525 -0.7358
35464SOL    HW111330   6.554   8.190  10.942 -0.1219 -0.7050 -1.7351
35464SOL    HW211331   6.650   8.139  11.047 -0.7406  1.0890 -0.2648
35465SOL     OW11332   2.912   7.289   9.367  0.0561 -0.2272 -0.1187
35465SOL    HW111333   2.850   7.271   9.438  1.2538  0.0617  1.0307
35465SOL    HW211334   2.889   7.226   9.299  0.5520 -2.3864  1.5839
35466SOL     OW11335   2.191   4.985   0.042 -0.2134 -0.4792  0.2939
35466SOL    HW111336   2.271   5.004   0.092 -1.0115  2.5668  0.5874
35466SOL    HW211337   2.209   5.018  -0.046 -0.7916 -0.7323  0.0728
35467SOL     OW11338   8.710   8.035  10.606 -0.3941  0.7704  0.0095
35467SOL    HW111339   8.706   7.941  10.622 -0.7635  1.2559  3.8357
35467SOL    HW211340   8.657   8.049  10.528  0.5445 -2.2605 -1.2917
35468SOL     OW11341   1.788   0.657   6.366 -0.0925  0.1440  0.4045
35468SOL    HW111342   1.874   0.616   6.375 -0.6442 -0.7662  2.0604
35468SOL    HW211343   1.806   0.745   6.334  1.5706  0.3463  1.7515
35469SOL     OW11344  11.487  10.763   2.446 -0.7066 -0.0340 -0.0802
35469SOL    HW111345  11.426  10.787   2.377 -1.7640 -2.7080 -0.2035
35469SOL    HW211346  11.435  10.765   2.526 -0.2218  0.3762  0.2283
35470SOL     OW11347   7.887   8.333   7.137 -0.4728 -0.2189 -0.5869
35470SOL    HW111348   7.955   8.367   7.080  0.0064 -1.6845 -0.9329
35470SOL    HW211349   7.933   8.270   7.194 -1.3036 -0.2818  0.0324
35471SOL     OW11350   3.282  11.418   6.640  0.0472  0.2821  0.1640
35471SOL    HW111351   3.244  11.343   6.685 -2.2987  0.5529 -1.2345
35471SOL    HW211352   3.281  11.393   6.548 -0.9691  2.1099 -0.3425
35472SOL     OW11353   7.075   1.242   5.001  0.3206 -0.6683  0.0113
35472SOL    HW111354   7.112   1.213   5.085  1.5700  0.4814 -0.1060
35472SOL    HW211355   7.149   1.239   4.941 -0.0338  0.6524 -0.5081
35473SOL     OW11356   1.648   7.369   3.086 -0.0030 -0.3015  0.0669
35473SOL    HW111357   1.597   7.407   3.015  1.2885 -1.5799 -1.6110
35473SOL    HW211358   1.728   7.338   3.045  0.4675 -1.7541  1.9395
35474SOL     OW11359  11.309   5.630   0.402 -0.1067  0.0754  0.0987
35474SOL    HW111360  11.289   5.568   0.333  0.1540 -0.4388  0.4757
35474SOL    HW211361  11.348   5.577   0.472  0.3146  0.6859  0.3435
35475SOL     OW11362   9.145   8.985   1.145 -0.7245  0.0737  0.4830
35475SOL    HW111363   9.082   9.005   1.215  0.2096 -2.4046  2.1954
35475SOL    HW211364   9.230   9.009   1.181 -0.3976  0.6861 -0.6535
35476SOL     OW11365   3.009   7.430   6.856  0.5287  0.1430  0.8022
35476SOL    HW111366   3.026   7.358   6.917 -0.1234 -0.7559 -0.0339
35476SOL    HW211367   3.095   7.472   6.845  1.0475 -0.8410  0.9146
35477SOL     OW11368   4.561   7.687   5.965 -0.4282  0.4840 -0.4705
35477SOL    HW111369   4.627   7.714   6.028  0.7350  0.0435 -1.4485
35477SOL    HW211370   4.518   7.768   5.938 -1.5443  0.6020  1.4695
35478SOL     OW11371   4.670  11.376   4.079  0.3456  0.2274  0.4399
35478SOL    HW111372   4.765  11.358   4.078  0.3730  0.3053  1.2367
35478SOL    HW211373   4.639  11.331   4.157 -0.6865 -1.7960 -1.0159
35479SOL     OW11374   7.917   7.340   2.009  0.6392 -0.1664  0.1224
35479SOL    HW111375   7.977   7.413   2.026 -0.8670  1.0176  0.5843
35479SOL    HW211376   7.954   7.296   1.932  2.1393  0.4492  0.4535
35480SOL     OW11377  10.513   3.876   9.243 -0.7784  0.1860 -0.1451
35480SOL    HW111378  10.468   3.829   9.313 -0.5995 -0.0125 -0.1602
35480SOL    HW211379  10.605   3.875   9.269 -0.9075  1.5136  0.4166
35481SOL     OW11380   6.121   9.232  11.661 -0.2435  0.3195 -0.0837
35481SOL    HW111381   6.142   9.269  11.747  0.0459  0.8011 -0.3583
35481SOL    HW211382   6.034   9.192  11.673  0.2802 -0.6425  0.7418
35482SOL     OW11383   1.940   6.594   0.874  0.2944  0.6049  0.0468
35482SOL    HW111384   1.948   6.678   0.919  1.9442  0.9419 -0.7738
35482SOL    HW211385   1.851   6.564   0.894  0.8802  0.7483  3.3848
35483SOL     OW11386  11.641   8.048   0.372 -0.4152  0.1340  0.3884
35483SOL    HW111387  11.691   7.968   0.357 -1.0827 -0.1033 -0.6885
35483SOL    HW211388  11.694   8.117   0.334 -0.7504 -0.0753 -0.4748
35484SOL     OW11389   5.673   3.028   0.704 -0.8401 -0.1925 -0.7367
35484SOL    HW111390   5.607   3.045   0.637 -2.4050  1.3403  1.1051
35484SOL    HW211391   5.642   3.074   0.782  2.0154 -0.0572  0.4614
35485SOL     OW11392   1.596   4.275  11.349  0.5461  0.1052 -0.9771
35485SOL    HW111393   1.669   4.267  11.411  0.2079  0.4086 -0.5295
35485SOL    HW211394   1.565   4.365  11.361 -1.5045 -0.7423  0.6717
35486SOL     OW11395   8.482   5.285  10.150 -0.1830 -0.1742  1.1546
35486SOL    HW111396   8.403   5.249  10.191  0.2751 -2.7321 -0.0582
35486SOL    HW211397   8.450   5.335  10.075 -0.6925 -1.0653  0.7617
35487SOL     OW11398   2.535   4.827   8.062 -0.4108  0.3516 -0.1070
35487SOL    HW111399   2.581   4.891   8.116  0.2357  0.6493 -0.9911
35487SOL    HW211400   2.482   4.777   8.124 -1.1921  1.9571  0.5643
35488SOL     OW11401   2.332   4.153  10.326  0.8239  0.0854  0.0990
35488SOL    HW111402   2.393   4.102  10.380  0.7811 -0.0844 -0.0093
35488SOL    HW211403   2.273   4.087  10.289 -0.2067  0.3767  1.1924
35489SOL     OW11404  10.134   3.265   8.020  1.3225  0.1676  0.0238
35489SOL    HW111405  10.176   3.347   8.047  0.6050  0.6647 -0.3138
35489SOL    HW211406  10.072   3.245   8.090  0.0425  1.0247 -0.8067
35490SOL     OW11407   9.088   9.397   9.205  0.1644 -0.1752 -0.4907
35490SOL    HW111408   9.178   9.391   9.171  0.5948  2.4002  0.0037
35490SOL    HW211409   9.097   9.441   9.289 -1.6424  1.3832 -1.0378
35491SOL     OW11410  11.166   0.092  11.644 -0.2325 -0.1349 -0.2100
35491SOL    HW111411  11.142   0.009  11.604  0.0309  0.3053 -1.2968
35491SOL    HW211412  11.115   0.158  11.596  0.4921  0.4525 -0.1873
35492SOL     OW11413   1.581   0.113   6.387  0.1227  0.1112  0.2917
35492SOL    HW111414   1.596   0.018   6.385  0.1491  0.1074  0.6504
35492SOL    HW211415   1.669   0.151   6.378  0.0000  0.1137 -1.0293
35493SOL     OW11416   4.814   8.826   0.969 -0.0634  0.2310  0.5578
35493SOL    HW111417   4.769   8.843   0.886  0.4850 -0.7347  0.0327
35493SOL    HW211418   4.873   8.901   0.980  1.4948 -0.6434 -1.1121
35494SOL     OW11419   0.980   4.708   1.002  0.2449  0.1038  0.5831
35494SOL    HW111420   1.067   4.675   0.982 -0.8202 -2.5967 -0.0749
35494SOL    HW211421   0.933   4.633   1.037 -2.5089  0.7788 -1.2926
35495SOL     OW11422   2.022   3.739   0.731  0.3828 -0.2168 -0.0588
35495SOL    HW111423   2.099   3.712   0.680  0.4588  1.2315 -0.7565
35495SOL    HW211424   2.003   3.827   0.701 -1.9382 -0.7444 -0.3326
35496SOL     OW11425   3.949   3.958   1.210 -0.0202 -0.0258 -0.1468
35496SOL    HW111426   3.864   3.985   1.177  0.1204  0.4511 -0.1385
35496SOL    HW211427   4.011   4.017   1.166  0.3351 -0.6024 -0.4215
35497SOL     OW11428   2.134   7.171   3.007  0.4658  0.0473 -0.0861
35497SOL    HW111429   2.135   7.219   2.925  0.3840  0.1253 -0.0415
35497SOL    HW211430   2.179   7.088   2.987  0.9972  0.3207 -0.0531
35498SOL     OW11431   1.427   5.467   1.412  0.5157  0.3078  0.0271
35498SOL    HW111432   1.407   5.379   1.444 -1.3704  0.3329 -0.9305
35498SOL    HW211433   1.344   5.514   1.418  1.2473  1.7174 -0.4581
35499SOL     OW11434   2.212   7.979   4.206 -0.1413  0.1305 -0.4106
35499SOL    HW111435   2.293   8.029   4.195 -0.1388  0.2579  0.1228
35499SOL    HW211436   2.207   7.922   4.129  0.0675  0.6611 -0.8208
35500SOL     OW11437   1.268   5.836   2.819 -0.7888  0.3782  0.3271
35500SOL    HW111438   1.313   5.906   2.770 -0.2868 -0.2609 -0.1460
35500SOL    HW211439   1.201   5.882   2.870  0.4265  1.3645  1.0984
35501SOL     OW11440   0.900  11.304   0.144 -0.0987 -0.3649 -0.0585
35501SOL    HW111441   0.849  11.224   0.130 -0.2027 -0.1077 -1.2509
35501SOL    HW211442   0.981  11.290   0.095  0.0162  0.1350 -0.0136
35502SOL     OW11443   4.088   2.251   5.863  0.3639  0.2455  0.3633
35502SOL    HW111444   4.000   2.217   5.852  0.4559  0.3740 -0.9619
35502SOL    HW211445   4.110   2.288   5.778  2.3288 -1.3099  0.1044
35503SOL     OW11446   9.670   8.534   0.765  0.4546 -0.3525  0.4228
35503SOL    HW111447   9.730   8.462   0.746  0.4650 -0.1037 -0.5554
35503SOL    HW211448   9.717   8.589   0.827  0.4808 -1.1440  1.1090
35504SOL     OW11449   9.652   7.105  11.679  0.2662  0.5522  0.0460
35504SOL    HW111450   9.745   7.083  11.689  0.4907  1.0799 -0.7248
35504SOL    HW211451   9.616   7.101  11.767  0.9225 -0.1182  0.2892
35505SOL     OW11452   3.405  11.087   4.348 -0.4582  0.3958  0.4637
35505SOL    HW111453   3.467  11.067   4.278  1.8283  2.3082  1.7679
35505SOL    HW211454   3.323  11.106   4.304  0.6021  0.4228 -1.6039
35506SOL     OW11455   4.858   9.336   3.237 -0.1237  0.1242 -0.2379
35506SOL    HW111456   4.927   9.330   3.303 -0.4066 -0.3978  0.0188
35506SOL    HW211457   4.776   9.330   3.287 -0.4202  2.6307 -0.3437
35507SOL     OW11458   0.008   7.621   6.047 -0.1333  0.9216  0.2530
35507SOL    HW111459  -0.028   7.703   6.011 -0.6977  0.1897 -0.9063
35507SOL    HW211460   0.056   7.649   6.125 -1.0802  2.2554  0.4062
35508SOL     OW11461   5.525   2.119   8.630 -0.5833 -0.3350 -0.0247
35508SOL    HW111462   5.465   2.089   8.561 -1.9113 -1.6926  1.6440
35508SOL    HW211463   5.553   2.206   8.600 -0.2080 -1.2890 -2.7912
35509SOL     OW11464   0.281   9.376   7.944  0.2768  0.2232 -0.1691
35509SOL    HW111465   0.260   9.465   7.971 -3.5305 -0.3034 -0.8705
35509SOL    HW211466   0.318   9.385   7.856  1.4248  1.1619  0.3927
35510SOL     OW11467   1.050   8.979   6.806  0.6845 -0.3280 -0.3198
35510SOL    HW111468   1.080   8.907   6.750 -0.1861 -2.2354  1.5488
35510SOL    HW211469   0.956   8.985   6.789  0.8688  1.0052 -1.0707
35511SOL     OW11470   5.300   7.967   2.716 -0.6146 -0.3185  0.1726
35511SOL    HW111471   5.226   8.019   2.746 -1.1609 -1.7057  1.4047
35511SOL    HW211472   5.274   7.876   2.736  1.3488 -0.8449  0.5390
35512SOL     OW11473   1.180   0.316   2.492  0.2606  0.5475 -0.0056
35512SOL    HW111474   1.116   0.307   2.563  0.0127 -0.5877 -0.3652
35512SOL    HW211475   1.142   0.381   2.434 -0.6635 -0.2423 -0.3028
35513SOL     OW11476  11.223   7.646   4.235 -0.0203  0.1053 -0.6320
35513SOL    HW111477  11.310   7.648   4.195  0.8441  0.8687  1.1698
35513SOL    HW211478  11.217   7.560   4.277 -1.0298 -0.7994 -2.5047
35514SOL     OW11479  10.861   7.630   6.890  0.6035  0.0659 -0.0356
35514SOL    HW111480  10.881   7.670   6.975 -0.3843 -3.9309  2.3323
35514SOL    HW211481  10.792   7.684   6.854  1.9612  2.6647  1.0003
35515SOL     OW11482   6.532   7.641   7.239 -0.3002 -0.2267 -0.3098
35515SOL    HW111483   6.445   7.642   7.201 -0.9150  0.4046  1.0635
35515SOL    HW211484   6.530   7.570   7.303  0.0475  0.1158  0.0829
35516SOL     OW11485   4.530   7.539   0.223  1.0004 -0.3238 -0.2188
35516SOL    HW111486   4.450   7.560   0.174  1.7906 -0.8005 -1.7935
35516SOL    HW211487   4.500   7.522   0.312 -0.7828 -1.4392 -0.9810
35517SOL     OW11488   8.444   1.983  11.223  0.2169 -0.2229  0.2663
35517SOL    HW111489   8.466   1.896  11.257 -0.7811 -0.1772  1.0935
35517SOL    HW211490   8.398   1.965  11.141 -1.3742 -0.5968  1.1878
35518SOL     OW11491   0.676   5.418   9.125  0.2005  0.0375  0.5108
35518SOL    HW111492   0.618   5.422   9.201 -0.2471  2.4668  0.1159
35518SOL    HW211493   0.763   5.430   9.161 -0.0714  1.9311  0.6329
35519SOL     OW11494   2.530   8.127   1.720 -0.5179 -0.5233  0.4821
35519SOL    HW111495   2.573   8.088   1.643 -1.9919 -1.0314 -0.1335
35519SOL    HW211496   2.473   8.057   1.752 -1.4669  0.3635  0.7766
35520SOL     OW11497   8.667   6.992  11.149  0.1947 -0.6515 -0.0537
35520SOL    HW111498   8.751   6.948  11.160 -0.3548 -1.3384  1.9927
35520SOL    HW211499   8.672   7.069  11.206 -0.5513 -0.7321  0.1405
35521SOL     OW11500   4.125   2.150   3.171  0.2599 -0.0574 -0.2077
35521SOL    HW111501   4.068   2.073   3.165 -1.0602  0.7834  0.8573
35521SOL    HW211502   4.136   2.179   3.081 -4.0243  1.7886 -0.3965
35522SOL     OW11503   3.963  11.563  11.034 -0.1813  0.1792  0.1006
35522SOL    HW111504   3.990  11.583  11.124  1.3171 -2.2728  0.2847
35522SOL    HW211505   3.898  11.630  11.013  0.5500  1.7380  2.4502
35523SOL     OW11506   0.259   3.777   9.012 -0.1890  0.1571  0.0312
35523SOL    HW111507   0.299   3.863   9.023  0.5861 -0.1741 -0.1386
35523SOL    HW211508   0.312   3.734   8.945 -0.0461 -0.7662  0.7122
35524SOL     OW11509   1.779   4.464  11.443  0.1929 -0.4029  0.1071
35524SOL    HW111510   1.848   4.414  11.400 -0.1300  0.0522 -0.9752
35524SOL    HW211511   1.768   4.542  11.388  0.1595  0.4945  1.3360
35525SOL     OW11512   6.085   6.185   7.672 -0.4548 -0.0229 -0.0800
35525SOL    HW111513   6.100   6.143   7.588  2.4264 -0.3865  0.4902
35525SOL    HW211514   6.004   6.234   7.661 -0.5610 -0.6671 -2.8052
35526SOL     OW11515   5.381   4.038   8.445  0.0246 -0.0962  0.4761
35526SOL    HW111516   5.460   4.090   8.435  0.8617 -1.2188  1.0383
35526SOL    HW211517   5.407   3.949   8.424 -1.6920 -0.1651 -1.7755
35527SOL     OW11518   3.936   3.302   2.522 -0.3479  0.0332  0.3676
35527SOL    HW111519   3.980   3.255   2.451  1.6477  1.0973  0.8155
35527SOL    HW211520   3.848   3.265   2.525  0.4478 -2.0866 -0.7248
35528SOL     OW11521   0.427   4.506   0.535 -0.4130  0.0805 -0.0072
35528SOL    HW111522   0.401   4.595   0.556  1.2007  0.6729 -0.3948
35528SOL    HW211523   0.409   4.456   0.615  0.4306  1.1551  0.8830
35529SOL     OW11524   8.694  10.576  11.139  0.5077 -0.6774 -0.1403
35529SOL    HW111525   8.651  10.520  11.203 -1.3489 -0.9530 -1.5393
35529SOL    HW211526   8.642  10.566  11.059  0.9068  1.9870 -0.8356
35530SOL     OW11527   7.727   4.168   2.862 -0.0543  0.2162 -0.0694
35530SOL    HW111528   7.773   4.174   2.778 -1.0153 -0.8831 -0.7134
35530SOL    HW211529   7.642   4.210   2.846 -0.3141 -0.1633  0.2900
35531SOL     OW11530   9.052   5.142   4.171 -0.1955  1.0663 -0.6076
35531SOL    HW111531   9.054   5.202   4.246 -0.0417 -0.2129  0.4343
35531SOL    HW211532   9.057   5.200   4.095 -2.3663  2.5535  0.2840
35532SOL     OW11533   8.265   0.346   8.848  0.0116 -0.1619  0.5978
35532SOL    HW111534   8.252   0.266   8.798 -0.2941  0.2819 -0.0441
35532SOL    HW211535   8.176   0.374   8.872  0.0511  0.4687  0.0363
35533SOL     OW11536  11.366   3.082   4.075 -0.2647  0.3278 -0.2960
35533SOL    HW111537  11.333   2.998   4.042  0.4343 -1.2084  2.5547
35533SOL    HW211538  11.294   3.116   4.130 -0.1877  1.1342 -0.6818
35534SOL     OW11539   7.355   1.070   3.461 -0.4726 -0.0021 -0.3804
35534SOL    HW111540   7.281   1.023   3.422 -0.6043 -0.8427  0.8303
35534SOL    HW211541   7.412   1.090   3.386 -0.2475 -2.4074 -0.9627
35535SOL     OW11542   5.795   7.373   4.372 -0.2009 -0.2266 -0.2554
35535SOL    HW111543   5.883   7.374   4.336 -0.4268 -1.5324 -0.8906
35535SOL    HW211544   5.805   7.338   4.460 -0.0389 -0.0288 -0.1950
35536SOL     OW11545   8.904   1.634  10.053  0.1568  0.0724 -0.3359
35536SOL    HW111546   8.964   1.626   9.979  0.7167 -1.6620  0.2510
35536SOL    HW211547   8.869   1.545  10.065  1.1667 -0.0442  2.3592
35537SOL     OW11548   8.506   3.786   0.197 -0.4689  0.3913  0.6558
35537SOL    HW111549   8.543   3.850   0.258  0.8467  0.1608  0.1510
35537SOL    HW211550   8.521   3.701   0.239 -0.5170  0.2991  0.4890
35538SOL     OW11551  10.609   6.509  11.513 -0.4864  0.0540  0.4138
35538SOL    HW111552  10.551   6.502  11.436 -1.1933  0.8691  0.8507
35538SOL    HW211553  10.551   6.538  11.583  0.5452  1.4055  0.7445
35539SOL     OW11554   4.412  11.394   7.459  0.4215  0.1282 -0.0365
35539SOL    HW111555   4.371  11.316   7.422 -2.1746  1.6331 -0.5806
35539SOL    HW211556   4.495  11.403   7.412  0.2565 -1.6820 -0.7165
35540SOL     OW11557   5.441   5.795   0.635 -0.2732 -0.3414 -0.0786
35540SOL    HW111558   5.394   5.716   0.606  0.4932 -0.1027 -2.1724
35540SOL    HW211559   5.386   5.867   0.603 -0.9454  0.0252  1.7849
35541SOL     OW11560   3.257  10.343  11.049  0.1277 -0.3635  0.3176
35541SOL    HW111561   3.306  10.399  10.990 -0.1605 -1.1838 -0.7326
35541SOL    HW211562   3.215  10.404  11.111  0.6635  0.4859 -0.1387
35542SOL     OW11563   9.848  10.112   0.122  0.3482  0.5375  0.6879
35542SOL    HW111564   9.895  10.095   0.204 -0.2880  0.5478  1.0571
35542SOL    HW211565   9.815  10.201   0.131  0.7203  0.7333  0.1944
35543SOL     OW11566   6.094   4.566  11.218  0.4663  0.0117 -0.3490
35543SOL    HW111567   6.160   4.510  11.177  1.5337  0.3687  0.8021
35543SOL    HW211568   6.111   4.653  11.184 -0.2242 -0.1065 -0.9994
35544SOL     OW11569   5.940   7.449  11.679 -0.2109  0.6455  0.0877
35544SOL    HW111570   6.020   7.501  11.674  1.2812 -1.2172  2.6783
35544SOL    HW211571   5.908   7.462  11.768 -0.2882 -2.0767  0.5337
35545SOL     OW11572   4.027  10.978   2.825  0.1591  0.4370  0.1221
35545SOL    HW111573   4.089  10.923   2.872 -2.3130 -0.3951  2.6729
35545SOL    HW211574   4.011  11.052   2.883  0.9755  2.2677 -1.8477
35546SOL     OW11575  10.883   7.314   5.718  0.1258 -0.1859 -0.2222
35546SOL    HW111576  10.974   7.299   5.694 -0.1708  1.2642 -2.6041
35546SOL    HW211577  10.888   7.360   5.802  1.6275  0.0691 -0.4229
35547SOL     OW11578   2.612   2.140   5.342 -0.0748  0.2466 -0.8563
35547SOL    HW111579   2.654   2.226   5.340 -1.0419  0.7261 -1.3716
35547SOL    HW211580   2.684   2.078   5.331  0.6514  0.9820 -0.3537
35548SOL     OW11581   6.724   0.984   0.866  0.4293 -0.1754  0.7333
35548SOL    HW111582   6.720   1.013   0.957  4.6695 -1.3442  1.5039
35548SOL    HW211583   6.714   1.064   0.815  0.8620  0.9762  2.3676
35549SOL     OW11584  10.486   4.036   2.312 -0.2073  0.2909  0.1007
35549SOL    HW111585  10.391   4.022   2.310 -0.3912  1.2423 -2.3219
35549SOL    HW211586  10.523   3.949   2.302 -0.9688  0.1185 -1.7452
35550SOL     OW11587   7.373  11.644   3.622  0.3232  0.5245 -0.0704
35550SOL    HW111588   7.449  11.608   3.667  1.4188  2.0768 -0.6037
35550SOL    HW211589   7.407  11.719   3.573 -1.3466  0.5592 -1.2509
35551SOL     OW11590   3.276  11.086   4.636  0.5097  0.4393  0.2603
35551SOL    HW111591   3.323  11.069   4.554  0.3460 -2.9372  0.7125
35551SOL    HW211592   3.346  11.097   4.701  0.9864 -3.8171  0.7908
35552SOL     OW11593   1.403   9.601  10.948 -0.3416 -0.1010  0.1213
35552SOL    HW111594   1.481   9.617  10.896  0.9773 -2.4220  1.2511
35552SOL    HW211595   1.387   9.683  10.993  1.8836  0.2302  0.4003
35553SOL     OW11596  11.061   6.529   5.072  0.0078 -0.0653 -0.0564
35553SOL    HW111597  11.007   6.457   5.041  1.5400 -1.2576 -0.0985
35553SOL    HW211598  11.045   6.600   5.010 -0.4595 -0.8557 -0.8652
35554SOL     OW11599  11.200   5.786   1.641 -0.0090 -0.8774  0.4762
35554SOL    HW111600  11.145   5.789   1.562  0.8102 -0.4503 -0.0913
35554SOL    HW211601  11.140   5.808   1.712  0.0028  3.0235 -0.4740
35555SOL     OW11602  10.749   4.177   9.766  0.1968 -0.5128 -0.1595
35555SOL    HW111603  10.799   4.248   9.806 -0.7867  0.7782 -1.1223
35555SOL    HW211604  10.670   4.170   9.819  0.1350 -0.6439 -0.2665
35556SOL     OW11605   8.492  11.296   0.489 -0.1555  0.5525  0.6131
35556SOL    HW111606   8.430  11.224   0.486 -1.7787  1.9389 -0.9057
35556SOL    HW211607   8.460  11.353   0.559  0.2463  0.5785  0.7831
35557SOL     OW11608   6.960   4.467   3.278  0.4682 -0.1977 -0.1353
35557SOL    HW111609   7.039   4.521   3.279  0.4164 -0.1130 -0.4260
35557SOL    HW211610   6.989   4.384   3.240  1.0186 -1.1344  2.1445
35558SOL     OW11611   4.053   9.394   7.248  0.6038 -0.1010 -0.1794
35558SOL    HW111612   4.058   9.301   7.225  1.5565  0.2714 -1.5790
35558SOL    HW211613   4.005   9.395   7.331 -1.2483 -1.6618 -1.1573
35559SOL     OW11614   3.914  10.237   7.148 -0.1172 -0.0995  0.2189
35559SOL    HW111615   3.965  10.191   7.215  1.2224 -0.6710 -1.1349
35559SOL    HW211616   3.955  10.322   7.141 -0.9463  0.3762  0.8515
35560SOL     OW11617  11.016   4.724   6.133  0.1411  0.5308 -0.3537
35560SOL    HW111618  11.015   4.768   6.218 -2.7994 -1.1971  0.6614
35560SOL    HW211619  11.035   4.633   6.154  0.3725  0.2596 -1.6792
35561SOL     OW11620   7.301   5.860   3.688  0.3608  0.0827 -0.0758
35561SOL    HW111621   7.293   5.923   3.760  0.1707  0.0539 -0.0713
35561SOL    HW211622   7.234   5.794   3.707 -0.2626  0.5173 -0.7276
35562SOL     OW11623   7.794   1.345  10.693  0.8679 -0.0778  0.2712
35562SOL    HW111624   7.862   1.325  10.757  1.0667  1.9239  0.7730
35562SOL    HW211625   7.836   1.403  10.630  0.2156 -0.6480 -0.7106
35563SOL     OW11626   3.332   7.400   4.032  0.5347 -0.2342  0.3820
35563SOL    HW111627   3.378   7.336   3.977  0.0386  0.9968 -1.5881
35563SOL    HW211628   3.250   7.357   4.056  1.4845 -1.4185  1.6231
35564SOL     OW11629   4.671   6.892   7.929  0.0770 -0.3050 -0.1546
35564SOL    HW111630   4.644   6.809   7.969  1.7872  0.2346  2.3450
35564SOL    HW211631   4.692   6.869   7.838 -0.3773 -2.3998  0.2057
35565SOL     OW11632   5.619   9.434   7.647 -0.1792  0.1921  0.1655
35565SOL    HW111633   5.550   9.423   7.580  1.2961  0.2640 -1.4357
35565SOL    HW211634   5.580   9.398   7.727 -0.9834 -2.7484 -1.3993
35566SOL     OW11635   5.429  10.531   4.647 -0.6435 -0.3985  0.1920
35566SOL    HW111636   5.482  10.461   4.685 -2.1386 -0.6058  2.0111
35566SOL    HW211637   5.469  10.612   4.678 -1.7010 -0.5622  2.1181
35567SOL     OW11638   5.764   4.100   0.695  0.3675 -0.0819  0.1880
35567SOL    HW111639   5.828   4.151   0.645 -1.2655  0.8397 -1.0923
35567SOL    HW211640   5.788   4.009   0.679  0.5944  0.2202 -1.3726
35568SOL     OW11641   4.174   7.592   8.500 -0.9844  0.1024 -0.3605
35568SOL    HW111642   4.258   7.614   8.541 -1.4473  0.3602  0.4673
35568SOL    HW211643   4.166   7.497   8.512 -0.9862  0.1350 -0.1118
35569SOL     OW11644   1.027   4.957   9.481  0.6416  0.6761  0.4232
35569SOL    HW111645   0.969   5.029   9.457  1.9387  1.2034 -1.3024
35569SOL    HW211646   1.101   4.999   9.525 -0.2590 -0.0017  2.7285
35570SOL     OW11647   8.223   8.864   8.134  0.7820  0.4153  0.0747
35570SOL    HW111648   8.168   8.942   8.144  0.5500  0.2733 -0.0847
35570SOL    HW211649   8.215   8.841   8.042 -0.0695 -0.4711  0.3586
35571SOL     OW11650   3.634  11.478   4.320  0.1638 -0.1425 -0.0284
35571SOL    HW111651   3.713  11.521   4.285 -0.2072 -0.1149 -0.8558
35571SOL    HW211652   3.589  11.546   4.369  0.3328  0.0174 -0.0949
35572SOL     OW11653   0.920   4.433   9.478  0.2283 -0.3752 -0.3303
35572SOL    HW111654   0.905   4.338   9.474  0.4847 -0.3842 -1.7712
35572SOL    HW211655   0.968   4.446   9.559  0.9327 -1.6141 -0.5118
35573SOL     OW11656   8.858   3.548  10.468  0.9707 -0.8513  0.3777
35573SOL    HW111657   8.813   3.543  10.383  0.4761 -1.8565  0.6947
35573SOL    HW211658   8.946   3.515  10.450  0.7857 -1.3155  0.3058
35574SOL     OW11659   2.495   0.837   3.045  0.0262 -0.5057 -0.3321
35574SOL    HW111660   2.466   0.804   2.960  1.5782 -0.1019 -1.0416
35574SOL    HW211661   2.589   0.850   3.035  0.3229 -0.9334  1.6187
35575SOL     OW11662   6.291   3.693   6.293 -0.0657  0.6498 -0.3507
35575SOL    HW111663   6.315   3.600   6.300 -0.8282  0.5401  1.6011
35575SOL    HW211664   6.251   3.701   6.207 -1.6771 -1.2969  0.1302
35576SOL     OW11665   2.097   2.063   3.696  0.6993  0.2257  0.3948
35576SOL    HW111666   2.051   2.139   3.733  0.8329  0.3156  0.3769
35576SOL    HW211667   2.116   2.088   3.606 -1.2790 -0.7150 -0.3387
35577SOL     OW11668   5.012   4.352   1.891  0.2854 -0.3964 -0.1558
35577SOL    HW111669   4.983   4.264   1.867  0.8523 -0.5614 -0.2384
35577SOL    HW211670   5.079   4.338   1.957  0.7876 -0.0492 -0.5815
35578SOL     OW11671   0.608   5.051   3.476  0.0899  0.1579  0.0773
35578SOL    HW111672   0.572   5.092   3.396  0.2361 -0.9587 -0.5771
35578SOL    HW211673   0.582   5.110   3.546  0.4819  1.5072 -0.8623
35579SOL     OW11674   2.800   0.566   5.126 -0.2433  0.3631 -0.6212
35579SOL    HW111675   2.836   0.643   5.081 -0.0214  0.2121 -0.7068
35579SOL    HW211676   2.877   0.515   5.149 -0.3130  0.7127  0.4422
35580SOL     OW11677   6.469   1.509   5.640  0.0632 -0.1854  0.1623
35580SOL    HW111678   6.409   1.583   5.629 -0.2150 -0.3281  0.6725
35580SOL    HW211679   6.547   1.534   5.592 -1.1380 -0.8849 -2.3145
35581SOL     OW11680  10.565   9.426   3.945 -0.4752 -0.0673  0.3839
35581SOL    HW111681  10.639   9.469   3.903 -2.0138  2.0494 -0.3488
35581SOL    HW211682  10.493   9.437   3.883 -1.8256 -0.5074  1.8129
35582SOL     OW11683  10.543  11.454   4.132 -0.0616 -0.1729 -0.5883
35582SOL    HW111684  10.478  11.403   4.180  0.0049 -0.0511 -0.3692
35582SOL    HW211685  10.626  11.431   4.172 -0.0560  0.2821 -0.3375
35583SOL     OW11686   7.115   9.753   1.729 -0.0361 -0.5894 -0.1015
35583SOL    HW111687   7.184   9.706   1.776  1.0360 -0.0313 -1.0467
35583SOL    HW211688   7.045   9.689   1.718  0.3909 -1.2262  0.7333
35584SOL     OW11689   4.164   3.690   4.956 -0.5790  0.6374  0.0029
35584SOL    HW111690   4.241   3.735   4.922  0.4826 -0.6463  0.6157
35584SOL    HW211691   4.186   3.597   4.947 -2.7004  0.1961 -1.2606
35585SOL     OW11692   6.308   5.964   8.042  0.8737 -1.0925  0.2750
35585SOL    HW111693   6.290   5.966   7.948  1.0600 -0.3966  0.2450
35585SOL    HW211694   6.389   5.915   8.051  0.4261 -1.8650  0.1506
35586SOL     OW11695   9.482  10.195   7.720 -0.1732  0.0173 -0.6099
35586SOL    HW111696   9.549  10.152   7.773 -0.0147  0.2707 -0.6068
35586SOL    HW211697   9.413  10.217   7.783 -0.6919 -1.0910 -0.7575
35587SOL     OW11698   2.030   6.209   6.558  0.4399 -0.7826 -0.1557
35587SOL    HW111699   1.974   6.256   6.496  0.7571 -1.2160 -0.7839
35587SOL    HW211700   2.019   6.117   6.535 -0.0825 -1.0173  0.9837
35588SOL     OW11701   9.246   9.960   4.842 -0.0034 -0.0754 -0.2225
35588SOL    HW111702   9.193  10.039   4.834 -1.5038 -0.7275  2.0702
35588SOL    HW211703   9.322   9.986   4.894 -0.3157 -0.0266  0.2201
35589SOL     OW11704   4.965   8.878   8.366 -0.1104  0.1848  0.3878
35589SOL    HW111705   5.042   8.886   8.422  0.2640  1.7313 -0.3136
35589SOL    HW211706   4.943   8.784   8.368  0.8176 -0.0218  1.8549
35590SOL     OW11707   2.387   9.097  11.114  0.5567 -0.1812  0.6553
35590SOL    HW111708   2.424   9.022  11.159 -1.4245 -1.2194  0.6797
35590SOL    HW211709   2.434   9.172  11.149  1.5146 -1.2679  1.7823
35591SOL     OW11710   7.012   4.726   3.654 -0.0012  0.1635  0.2295
35591SOL    HW111711   6.952   4.742   3.727 -0.8252  0.3454 -0.4712
35591SOL    HW211712   6.977   4.780   3.583  2.3276  2.1681  0.4687
35592SOL     OW11713   5.053   3.497  10.368  0.3396  0.0103  0.0782
35592SOL    HW111714   4.969   3.462  10.399  1.0426 -1.1048  0.8121
35592SOL    HW211715   5.046   3.592  10.380 -0.7690 -0.0876  0.2590
35593SOL     OW11716   1.203   0.348  11.343  0.0737  0.4279  0.4756
35593SOL    HW111717   1.122   0.398  11.355 -0.0007  0.5266 -0.3768
35593SOL    HW211718   1.175   0.257  11.348 -0.3349  0.4299 -1.1131
35594SOL     OW11719   0.935  10.690   6.965 -0.1407 -0.3344 -0.0874
35594SOL    HW111720   0.962  10.656   7.050  0.0941 -2.3106 -0.8882
35594SOL    HW211721   1.017  10.715   6.922  0.0853 -2.1620 -0.8237
35595SOL     OW11722   4.666  11.573   3.184 -0.3208 -0.3789 -0.7532
35595SOL    HW111723   4.611  11.531   3.250 -0.5406  1.6011  0.4173
35595SOL    HW211724   4.728  11.626   3.235  1.2926 -0.8985 -2.0954
35596SOL     OW11725   0.843   9.089   8.348 -0.4497 -0.0444  0.5912
35596SOL    HW111726   0.882   9.176   8.340 -2.5909  0.9334 -0.0208
35596SOL    HW211727   0.763   9.094   8.296 -0.0084 -2.7999 -0.5086
35597SOL     OW11728  10.581  11.494  10.356 -0.4424 -0.3282 -0.4831
35597SOL    HW111729  10.530  11.530  10.284 -1.2806  1.3850  0.8696
35597SOL    HW211730  10.619  11.571  10.399 -1.0936 -1.1441  1.6914
35598SOL     OW11731  10.911   3.013   6.495  0.1810 -0.0029  0.2479
35598SOL    HW111732  10.986   3.068   6.517 -0.3986  0.4625  1.1116
35598SOL    HW211733  10.837   3.054   6.540 -0.5018 -0.7486 -0.1664
35599SOL     OW11734   9.903   6.582   7.272 -0.3214 -0.2210 -0.1867
35599SOL    HW111735   9.808   6.595   7.264 -0.3312 -0.5484 -0.6210
35599SOL    HW211736   9.912   6.527   7.350 -0.5225 -0.5329 -0.3788
35600SOL     OW11737  10.906  10.073   0.711 -0.0968 -0.0322 -0.3049
35600SOL    HW111738  10.927  10.152   0.661  2.3502  0.5403  1.4192
35600SOL    HW211739  10.943  10.001   0.659  1.3038  0.4348 -0.0132
35601SOL     OW11740   7.315  10.961  10.650 -0.0483  0.5824  0.0313
35601SOL    HW111741   7.390  10.976  10.593 -0.4969  0.2636 -0.6615
35601SOL    HW211742   7.250  10.919  10.594  0.3860 -2.0491  1.3646
35602SOL     OW11743   2.531  11.186  11.193 -0.1926  0.0793 -0.1438
35602SOL    HW111744   2.600  11.121  11.196 -0.0057  0.2857  0.0470
35602SOL    HW211745   2.459  11.142  11.148 -0.6931 -0.8618  1.4767
35603SOL     OW11746   8.730   5.321   1.702  0.6582 -0.1103 -0.1548
35603SOL    HW111747   8.713   5.416   1.701 -0.4462 -0.2320  1.7289
35603SOL    HW211748   8.659   5.285   1.755  2.2085 -1.7660  0.8849
35604SOL     OW11749   1.615   3.796   2.512 -0.4466 -0.6563  0.1609
35604SOL    HW111750   1.521   3.795   2.496 -0.6345  1.3524  0.7925
35604SOL    HW211751   1.634   3.887   2.539  1.9798 -0.4631 -1.8049
35605SOL     OW11752   8.243  11.106   0.462  0.0128  0.0281  0.4393
35605SOL    HW111753   8.156  11.139   0.438 -0.0110 -0.5482 -0.3047
35605SOL    HW211754   8.229  11.014   0.481  0.4955 -0.1086  0.1350
35606SOL     OW11755   7.853   3.218  10.282 -0.6825 -0.2825 -0.2865
35606SOL    HW111756   7.828   3.178  10.199 -2.2905  1.0664 -0.4832
35606SOL    HW211757   7.934   3.265  10.263  1.1703 -3.1236 -0.0979
35607SOL     OW11758   5.376   3.938  10.438 -0.6400  0.0429 -0.3064
35607SOL    HW111759   5.308   3.987  10.392  1.4519  0.8142 -2.8675
35607SOL    HW211760   5.448   4.001  10.447 -0.2653 -0.6737  2.4995
35608SOL     OW11761   8.141   3.603   5.740 -0.0440 -0.3426 -0.0824
35608SOL    HW111762   8.062   3.549   5.738 -0.0244 -0.4101  0.7569
35608SOL    HW211763   8.165   3.613   5.648 -0.1600 -1.5986 -0.2642
35609SOL     OW11764   2.861   8.876   7.359 -0.3212 -0.1356  0.0153
35609SOL    HW111765   2.870   8.793   7.312  3.8797  1.1982 -1.9993
35609SOL    HW211766   2.902   8.859   7.444  0.4671 -0.2186 -0.3658
35610SOL     OW11767   6.068   2.067   3.152  0.8008  0.2488 -0.1364
35610SOL    HW111768   6.018   2.113   3.219  2.0539 -0.3857  1.3117
35610SOL    HW211769   6.158   2.097   3.165  1.5250 -1.9242  0.3135
35611SOL     OW11770   2.839   3.838   1.753  0.0327  0.5424  0.1094
35611SOL    HW111771   2.920   3.838   1.701  0.1477 -1.1483  0.2527
35611SOL    HW211772   2.860   3.789   1.832 -0.8346  1.0411  0.6736
35612SOL     OW11773   7.557  10.188   5.045  0.0077  0.2684 -0.3390
35612SOL    HW111774   7.619  10.181   4.972 -1.6127 -2.1394 -1.6201
35612SOL    HW211775   7.478  10.225   5.006  0.0760  1.8854  0.9434
35613SOL     OW11776   5.574   1.418   2.796  0.0371 -0.1155 -0.2639
35613SOL    HW111777   5.576   1.389   2.887 -0.7888  0.0825 -0.1748
35613SOL    HW211778   5.603   1.342   2.746 -1.1745 -0.8087  0.0398
35614SOL     OW11779   3.891   2.369   6.160 -0.5204 -0.3209  0.3007
35614SOL    HW111780   3.814   2.418   6.189  0.9286  1.0309  2.0965
35614SOL    HW211781   3.894   2.384   6.065 -1.6761  0.7665  0.4144
35615SOL     OW11782   5.466  11.017   6.835  0.1737 -0.1575  0.2692
35615SOL    HW111783   5.442  11.101   6.797 -0.7112  0.0972  1.3390
35615SOL    HW211784   5.554  11.030   6.869 -0.1728  0.5298  0.9299
35616SOL     OW11785   9.056   6.929   6.339  0.1296  0.2430  0.2179
35616SOL    HW111786   9.005   6.993   6.389  2.4371  3.2630 -0.9652
35616SOL    HW211787   8.997   6.901   6.269 -1.7188 -0.8471  2.0911
35617SOL     OW11788   9.735   2.116   9.774 -0.0049  0.5310  0.2035
35617SOL    HW111789   9.770   2.204   9.789 -1.0326  0.8230  0.9932
35617SOL    HW211790   9.714   2.114   9.681  1.4710  0.5633 -0.1610
35618SOL     OW11791   8.262   5.774   8.551 -0.0320 -0.0757  0.4544
35618SOL    HW111792   8.327   5.762   8.621 -0.5457 -0.0573  0.9470
35618SOL    HW211793   8.188   5.815   8.595  1.1068  3.8426 -0.8305
35619SOL     OW11794  10.653   9.491   1.479 -0.7213 -0.0721 -0.7468
35619SOL    HW111795  10.573   9.479   1.531 -0.6932 -1.4909 -1.0134
35619SOL    HW211796  10.665   9.408   1.433  1.1979 -0.0794 -0.3254
35620SOL     OW11797   7.781  10.106  10.738 -0.4998  0.0201  0.0929
35620SOL    HW111798   7.726  10.108  10.816 -1.0697  1.0673 -0.3207
35620SOL    HW211799   7.866  10.139  10.768 -0.5325 -0.1751  0.4038
35621SOL     OW11800   8.355   9.903   0.789 -0.4856  0.1770  0.2183
35621SOL    HW111801   8.442   9.879   0.819 -1.4882 -1.6437  1.9228
35621SOL    HW211802   8.337   9.988   0.830  0.1851  0.2147  0.4425
35622SOL     OW11803  11.453   3.077   5.473  0.0390  0.3672 -0.0206
35622SOL    HW111804  11.505   3.062   5.552  0.1813 -0.3719 -0.2428
35622SOL    HW211805  11.411   3.162   5.487  1.0203  0.8037  0.3199
35623SOL     OW11806   1.964   1.069   4.194  0.0247 -0.0405 -0.2388
35623SOL    HW111807   2.052   1.055   4.157  0.0785 -2.5884  0.6384
35623SOL    HW211808   1.979   1.072   4.288 -0.9037 -1.8173  0.0069
35624SOL     OW11809   6.554   2.405   2.184 -0.6118  0.5664 -0.3418
35624SOL    HW111810   6.646   2.419   2.160 -0.4296  1.1995  0.6398
35624SOL    HW211811   6.511   2.487   2.159 -0.7375  0.5937 -0.0343
35625SOL     OW11812   6.803  10.426   2.192 -0.0948  0.5015 -0.2160
35625SOL    HW111813   6.714  10.409   2.224  0.7883 -0.9754  1.6890
35625SOL    HW211814   6.829  10.507   2.236 -0.6848  1.2823 -1.2645
35626SOL     OW11815   3.662   1.283   1.938 -0.5992 -0.1029 -0.0995
35626SOL    HW111816   3.604   1.210   1.918  0.7474 -0.9581 -1.0684
35626SOL    HW211817   3.735   1.274   1.877  1.2775  0.0563  1.9609
35627SOL     OW11818   5.377  10.673   9.374  0.3829 -0.0170 -0.0081
35627SOL    HW111819   5.366  10.768   9.373  1.8500  0.1894  0.4339
35627SOL    HW211820   5.414  10.654   9.461  0.7038 -0.8999 -0.3275
35628SOL     OW11821   4.629  10.845   4.198 -0.3151  0.1605 -0.2653
35628SOL    HW111822   4.697  10.881   4.255 -1.4562  0.1858  1.1566
35628SOL    HW211823   4.580  10.921   4.168  0.6124  0.1924 -1.7738
35629SOL     OW11824  11.560   9.932   3.980  0.2598  0.1928 -0.1986
35629SOL    HW111825  11.542   9.845   3.944 -2.2575 -0.4979  2.3027
35629SOL    HW211826  11.474   9.974   3.986  1.1900  2.1252  0.4107
35630SOL     OW11827   5.413   4.762   4.143  0.4313  0.2488 -0.6837
35630SOL    HW111828   5.458   4.678   4.145 -2.1359 -1.2526 -1.4069
35630SOL    HW211829   5.427   4.800   4.229  1.2723 -1.1415 -0.1875
35631SOL     OW11830   5.853  11.266  10.396 -0.4117  0.1209  0.2808
35631SOL    HW111831   5.806  11.346  10.373 -0.1922  0.1286 -0.1290
35631SOL    HW211832   5.944  11.284  10.377 -0.3947 -0.3247 -0.0710
35632SOL     OW11833   9.663   2.552   5.221  0.6648 -0.2264  0.8188
35632SOL    HW111834   9.621   2.478   5.177  0.5800  1.0604 -1.4126
35632SOL    HW211835   9.620   2.556   5.307 -1.4681 -0.9651 -0.1433
35633SOL     OW11836   0.651   3.631   3.920 -0.3006 -0.4888 -0.2616
35633SOL    HW111837   0.619   3.589   4.000 -0.3665  0.2336  0.0970
35633SOL    HW211838   0.730   3.582   3.897  0.2485 -0.1129  0.7741
35634SOL     OW11839   7.694   4.108   9.832 -0.4250  0.7648  0.5893
35634SOL    HW111840   7.694   4.031   9.775 -2.1566  0.1603  1.3354
35634SOL    HW211841   7.711   4.181   9.774  1.8565 -0.1857 -0.0594
35635SOL     OW11842   7.383   6.510   0.143 -0.5575 -0.2051 -0.0415
35635SOL    HW111843   7.438   6.456   0.200 -0.7924 -0.3441  0.0528
35635SOL    HW211844   7.299   6.465   0.140 -0.6275 -0.0607 -0.2910
35636SOL     OW11845   1.748   0.836  11.480  0.6841  0.8400  0.5691
35636SOL    HW111846   1.788   0.900  11.421 -0.2708  1.4474  0.5450
35636SOL    HW211847   1.736   0.758  11.426  0.4207  1.1749  0.1258
35637SOL     OW11848   3.407   2.017   7.967 -0.0798  0.4484 -0.0534
35637SOL    HW111849   3.363   1.941   7.930  3.1996 -1.3308 -0.6039
35637SOL    HW211850   3.448   2.060   7.892  1.5766  0.2992  0.7215
35638SOL     OW11851   2.809   0.375   0.887  0.2130 -0.2200 -0.3071
35638SOL    HW111852   2.886   0.319   0.897 -1.2926 -2.2682  0.3721
35638SOL    HW211853   2.745   0.321   0.842 -1.6028  0.6554  1.1147
35639SOL     OW11854  10.372  10.459   3.064  0.2929 -0.3309  0.1147
35639SOL    HW111855  10.393  10.542   3.021 -0.8905  0.3231  0.7607
35639SOL    HW211856  10.434  10.397   3.026  2.5484  1.2241  1.0804
35640SOL     OW11857   1.135   9.209   6.954 -0.4884  0.2776  0.7956
35640SOL    HW111858   1.104   9.158   6.879  1.5763  0.5143 -0.2965
35640SOL    HW211859   1.186   9.146   7.006 -1.2482  0.3100  1.6045
35641SOL     OW11860  10.196  11.311   0.521  0.5992  0.5014 -0.0212
35641SOL    HW111861  10.245  11.228   0.522  0.2432  0.2708 -0.8388
35641SOL    HW211862  10.147  11.309   0.439  0.0375  1.2105  0.2849
35642SOL     OW11863  11.550   4.620   4.729  0.1198 -0.1194 -0.6699
35642SOL    HW111864  11.464   4.663   4.724  0.1777  0.0601 -0.1465
35642SOL    HW211865  11.544   4.549   4.666 -1.1984 -1.4832  0.8955
35643SOL     OW11866  10.460   7.872   6.551 -0.1402  0.0527 -0.4602
35643SOL    HW111867  10.519   7.915   6.613 -1.2841 -0.1104  0.7828
35643SOL    HW211868  10.436   7.941   6.489  0.9284  0.2462 -0.6934
35644SOL     OW11869   7.631  11.475   3.321 -0.0640  0.0449  0.4477
35644SOL    HW111870   7.593  11.504   3.238  0.0184  0.0434  0.4093
35644SOL    HW211871   7.602  11.540   3.385 -3.0005 -1.7339  1.1280
35645SOL     OW11872   4.562   9.053  10.314 -0.0039  0.3334  0.3083
35645SOL    HW111873   4.490   9.006  10.355 -0.5116  0.1090 -0.7991
35645SOL    HW211874   4.528   9.078  10.228  0.6596  1.7038  0.4187
35646SOL     OW11875   9.867  10.614   8.472 -0.6364 -0.1716 -0.6881
35646SOL    HW111876   9.827  10.651   8.551 -0.1516  1.3322 -1.1188
35646SOL    HW211877   9.792  10.588   8.417 -1.0157 -3.1062  1.0239
35647SOL     OW11878   2.973   4.140   2.370 -0.0701 -0.1110  0.1203
35647SOL    HW111879   3.057   4.131   2.415 -0.0321 -0.5340 -0.0320
35647SOL    HW211880   2.979   4.224   2.324 -0.9148  1.4039  2.5725
35648SOL     OW11881   0.356   2.745   9.518  0.1156  0.0888 -0.2593
35648SOL    HW111882   0.344   2.657   9.482  0.4288  0.0839 -0.3582
35648SOL    HW211883   0.443   2.742   9.557 -0.3694 -0.0223  0.8357
35649SOL     OW11884   4.181   1.372   0.769  0.1960  0.0991  0.2599
35649SOL    HW111885   4.274   1.394   0.773  0.3844 -0.6230  0.0062
35649SOL    HW211886   4.137   1.456   0.759  0.9121  0.3507 -0.9960
35650SOL     OW11887   2.009   3.928  11.287 -0.5609 -0.1508 -0.7189
35650SOL    HW111888   1.939   3.983  11.322 -0.0784  0.6342 -0.9604
35650SOL    HW211889   2.089   3.979  11.303 -0.0569 -0.9957 -0.5253
35651SOL     OW11890   4.844   2.368   5.843  0.5187  0.1589 -0.3674
35651SOL    HW111891   4.887   2.284   5.860 -2.2520 -1.1590  0.7548
35651SOL    HW211892   4.806   2.357   5.756  0.2586  0.3197 -0.2732
35652SOL     OW11893   8.799   4.344   7.324  0.3258 -0.2237 -0.2348
35652SOL    HW111894   8.738   4.329   7.397  0.3090 -2.1937 -0.5838
35652SOL    HW211895   8.880   4.302   7.353  1.2306  1.4840 -0.2037
35653SOL     OW11896   1.553   8.025  11.269 -0.8775 -0.3104  0.3082
35653SOL    HW111897   1.466   8.062  11.259 -0.7023  0.9322  2.6766
35653SOL    HW211898   1.541   7.948  11.324 -0.5146 -0.2976  0.4118
35654SOL     OW11899   2.033   7.841   0.742  0.0384 -0.6540 -0.1478
35654SOL    HW111900   1.983   7.767   0.707 -1.4508  0.1937  0.1099
35654SOL    HW211901   2.115   7.802   0.772 -0.9690 -2.3361  0.5825
35655SOL     OW11902   5.887   0.281   3.096  0.3764  0.7716 -0.2308
35655SOL    HW111903   5.793   0.263   3.093  0.4619 -0.0061  0.9557
35655SOL    HW211904   5.896   0.371   3.066 -0.8177  1.0850  0.3119
35656SOL     OW11905   6.452   0.161   6.474  0.8715 -0.3904 -0.2123
35656SOL    HW111906   6.487   0.166   6.385 -1.9505  0.7696 -1.3938
35656SOL    HW211907   6.383   0.094   6.468  0.2426  0.1366  0.9323
35657SOL     OW11908   0.642   6.986  11.659 -0.1419 -0.3837 -0.7015
35657SOL    HW111909   0.728   6.946  11.651 -1.0872 -2.3867 -1.6952
35657SOL    HW211910   0.609   6.955  11.743  1.5222  3.5717  1.6695
35658SOL     OW11911   9.884   6.151   9.070  0.0884 -0.2291  1.1364
35658SOL    HW111912   9.812   6.091   9.091 -0.1091  0.1866  1.6619
35658SOL    HW211913   9.918   6.118   8.987  1.9247 -2.9152  2.7918
35659SOL     OW11914  10.853   7.121   8.470 -0.1093  0.0045 -0.4053
35659SOL    HW111915  10.826   7.114   8.561  2.0433  1.9491  0.4902
35659SOL    HW211916  10.947   7.102   8.472 -0.4664 -2.8561 -2.7495
35660SOL     OW11917   9.528   9.709   1.314 -0.1489  0.2851 -0.2255
35660SOL    HW111918   9.489   9.792   1.287 -0.7911  0.3484  0.8516
35660SOL    HW211919   9.491   9.692   1.400  3.4308  1.1614  1.6764
35661SOL     OW11920   7.335   5.099  11.580 -0.0282  0.5032 -0.3872
35661SOL    HW111921   7.263   5.121  11.521  0.6170  0.4220 -1.2195
35661SOL    HW211922   7.292   5.061  11.657 -0.8091 -0.9971 -1.5088
35662SOL     OW11923  11.596  11.524   2.860  0.4090  0.9490 -0.3999
35662SOL    HW111924  11.690  11.505   2.869  0.2592  0.4166  0.1024
35662SOL    HW211925  11.570  11.479   2.780  0.2069 -0.4372  0.4145
35663SOL     OW11926  11.529   8.586   7.929  0.0934 -0.0439  0.0410
35663SOL    HW111927  11.540   8.602   7.835  2.0557 -0.5917  0.1172
35663SOL    HW211928  11.614   8.609   7.967 -0.5932 -0.0616  1.6584
35664SOL     OW11929   9.553   3.872   9.670 -0.0284  0.0627 -0.7343
35664SOL    HW111930   9.647   3.869   9.688 -0.2178  1.1159  0.6362
35664SOL    HW211931   9.542   3.952   9.619  0.1861 -1.7108 -3.8082
35665SOL     OW11932   7.946   8.825   9.910 -0.2518 -0.2339  0.7062
35665SOL    HW111933   7.958   8.868   9.994  1.4827  0.1354  0.3020
35665SOL    HW211934   7.943   8.897   9.847 -2.5768 -0.4408  0.5058
35666SOL     OW11935   6.104   2.169   3.668  0.1141  0.7854 -0.0399
35666SOL    HW111936   6.186   2.152   3.621 -0.0573  0.5391 -0.2511
35666SOL    HW211937   6.081   2.085   3.708 -0.0839  0.8303 -0.0581
35667SOL     OW11938   0.177   9.083   8.867  0.1089 -0.1447  0.1509
35667SOL    HW111939   0.179   9.167   8.912 -0.7401  0.4467 -0.8528
35667SOL    HW211940   0.085   9.070   8.845  0.5651 -0.0020 -2.0833
35668SOL     OW11941   5.043   9.862   7.927 -0.4424  0.3584  0.2926
35668SOL    HW111942   5.022   9.945   7.883 -0.8837 -0.4781 -1.1421
35668SOL    HW211943   5.009   9.795   7.868  0.3701 -0.8680  1.1868
35669SOL     OW11944   8.547   9.459   8.260  0.1522 -0.9223  0.0956
35669SOL    HW111945   8.510   9.371   8.261 -0.3892 -0.7696 -2.0421
35669SOL    HW211946   8.563   9.480   8.352  0.3550 -3.2674  0.6369
35670SOL     OW11947  11.607   3.837  11.560  0.3803 -0.0992  0.0524
35670SOL    HW111948  11.676   3.884  11.512  1.4613 -2.3816 -0.7986
35670SOL    HW211949  11.648   3.813  11.643  0.1744 -0.3664  0.0765
35671SOL     OW11950   7.619   1.337   2.846  0.0285  0.2262 -0.0038
35671SOL    HW111951   7.528   1.316   2.867  0.4794  0.3699  2.4010
35671SOL    HW211952   7.616   1.424   2.805 -1.0388 -0.6208 -1.8477
35672SOL     OW11953   5.038   5.743   3.101 -0.3999 -0.0896 -0.5965
35672SOL    HW111954   5.073   5.670   3.153 -1.8438 -0.8569 -0.6482
35672SOL    HW211955   4.947   5.720   3.087 -0.9440  1.8313 -0.4660
35673SOL     OW11956   6.583   1.054   0.224  0.8751  0.5744  0.3245
35673SOL    HW111957   6.504   1.089   0.183  0.9729 -0.9652 -1.3141
35673SOL    HW211958   6.640   1.130   0.236  0.9010  1.1315 -2.6286
35674SOL     OW11959   9.124   3.655   4.139 -0.0559 -0.2187  0.1311
35674SOL    HW111960   9.128   3.570   4.183  0.4986  0.6288  1.8067
35674SOL    HW211961   9.096   3.634   4.050  0.8642 -2.2289  0.2524
35675SOL     OW11962   1.297   1.835   1.952 -0.2237  0.6949 -0.1702
35675SOL    HW111963   1.340   1.764   1.999 -0.6708  0.6543  0.1799
35675SOL    HW211964   1.313   1.913   2.006  1.8364  1.2382 -1.4546
35676SOL     OW11965   0.322   3.747   9.320  0.1085 -0.6320  0.3133
35676SOL    HW111966   0.229   3.768   9.308  0.1491 -0.8911 -0.6071
35676SOL    HW211967   0.367   3.800   9.254  0.5279 -1.1247  0.1960
35677SOL     OW11968  11.656   3.613   1.191 -0.4192 -0.3217  0.3255
35677SOL    HW111969  11.737   3.564   1.178 -0.7006 -0.6461 -0.2092
35677SOL    HW211970  11.678   3.703   1.166 -0.3226 -0.4824 -0.1672
35678SOL     OW11971   3.648   5.291  11.567  0.4344  0.2473 -0.0572
35678SOL    HW111972   3.710   5.231  11.607  1.1255  0.6500 -0.5020
35678SOL    HW211973   3.618   5.347  11.639  1.1764  0.5521  0.0166
35679SOL     OW11974   9.339   4.626   5.933 -0.3017 -0.0398  0.2351
35679SOL    HW111975   9.360   4.618   5.840  1.3225  2.3672  0.3195
35679SOL    HW211976   9.295   4.711   5.940  2.2860  1.2672  2.0082
35680SOL     OW11977  10.127  10.556   4.381  0.1857  0.2008 -0.1018
35680SOL    HW111978  10.089  10.641   4.357 -0.1232 -0.1195 -0.7969
35680SOL    HW211979  10.052  10.496   4.379  0.1531  0.1313  1.6677
35681SOL     OW11980   4.735   4.769   3.254 -0.1104 -0.8006 -0.1291
35681SOL    HW111981   4.747   4.825   3.177 -0.7928 -1.3459 -0.6509
35681SOL    HW211982   4.696   4.689   3.219  0.7615 -1.5703  0.6164
35682SOL     OW11983   4.039   3.671   6.644 -0.4807 -0.4459  0.4769
35682SOL    HW111984   3.994   3.662   6.560  0.7334 -1.5171 -0.0881
35682SOL    HW211985   4.114   3.727   6.625 -0.3446 -0.4805  0.9013
35683SOL     OW11986   3.375   0.614   0.576  0.4603  0.3541 -0.3881
35683SOL    HW111987   3.464   0.638   0.548  0.6903 -0.1164 -0.0837
35683SOL    HW211988   3.389   0.550   0.646 -0.1186 -0.6262 -1.1499
35684SOL     OW11989   7.138   7.392   7.835 -0.5072  0.2142  0.0063
35684SOL    HW111990   7.172   7.331   7.899 -1.5724  0.0832  0.4626
35684SOL    HW211991   7.187   7.473   7.850 -0.2954 -0.0156  0.5462
35685SOL     OW11992  11.447   7.735   3.408 -0.8363  0.0966  0.2672
35685SOL    HW111993  11.519   7.708   3.466 -0.5129 -0.7432 -0.5023
35685SOL    HW211994  11.376   7.758   3.468  0.5693  2.5610  1.1141
35686SOL     OW11995   2.692   1.389  11.004 -0.0926  0.5936  0.3224
35686SOL    HW111996   2.627   1.458  11.011  0.9601  1.7554 -0.8270
35686SOL    HW211997   2.723   1.375  11.094 -0.9464  0.9773  0.6792
35687SOL     OW11998   7.044   7.738   5.297 -0.2142  0.3079 -0.1356
35687SOL    HW111999   7.049   7.688   5.379 -0.3242 -0.4291 -0.5717
35687SOL    HW212000   6.985   7.810   5.318 -1.7181 -0.8881 -0.0612
35688SOL     OW12001   5.110   6.315   6.346 -0.5371  0.0291 -0.3696
35688SOL    HW112002   5.034   6.372   6.336 -0.1744  0.8204  1.0928
35688SOL    HW212003   5.119   6.302   6.440  0.8660 -0.4265 -0.5339
35689SOL     OW12004   6.267   2.901   2.633 -0.0782 -0.3043  0.5230
35689SOL    HW112005   6.335   2.953   2.588 -0.7379  0.4011  0.3180
35689SOL    HW212006   6.290   2.907   2.726  1.9330 -2.6783  0.2885
35690SOL     OW12007   3.439   8.262   9.037 -0.1986 -0.2925  0.0698
35690SOL    HW112008   3.418   8.199   8.968 -0.8498 -0.7058  0.6433
35690SOL    HW212009   3.377   8.244   9.107 -3.1013  3.4566 -1.1877
35691SOL     OW12010   7.120   7.863   7.878 -0.0094  0.0521  0.5539
35691SOL    HW112011   7.209   7.886   7.903 -0.3203  0.2800  1.4943
35691SOL    HW212012   7.099   7.922   7.806  0.8046 -0.4115 -0.0786
35692SOL     OW12013   2.121  10.025  11.206  0.8216  0.0496 -0.4742
35692SOL    HW112014   2.200  10.050  11.158 -0.2477  0.2118 -2.2353
35692SOL    HW212015   2.146   9.945  11.251  1.5722 -0.7865 -2.2488
35693SOL     OW12016  10.980   2.252  10.578  0.0840  0.2047 -0.7512
35693SOL    HW112017  11.039   2.275  10.506  0.6377 -0.6473 -0.5749
35693SOL    HW212018  11.015   2.299  10.653  0.3063  0.0133 -0.7348
35694SOL     OW12019  10.472   9.026   7.094 -0.2183 -0.0020  0.2767
35694SOL    HW112020  10.532   8.955   7.069  1.2194  0.0541  3.0721
35694SOL    HW212021  10.525   9.105   7.088 -0.3769  0.2223  1.5096
35695SOL     OW12022   7.116   3.721   6.834 -0.7416 -0.2096  0.2575
35695SOL    HW112023   7.021   3.734   6.834 -0.6205  0.8826  1.0155
35695SOL    HW212024   7.137   3.706   6.927 -0.1575 -0.3170  0.1076
35696SOL     OW12025   8.614   3.253   1.754 -0.2330  0.0643  0.0216
35696SOL    HW112026   8.635   3.262   1.661 -1.7006 -0.4418 -0.3817
35696SOL    HW212027   8.698   3.267   1.798  0.7316 -0.8146 -1.4235
35697SOL     OW12028   1.564   4.983   5.552 -0.0954  0.3549 -0.0837
35697SOL    HW112029   1.641   5.026   5.514  0.0135 -0.0601 -0.3445
35697SOL    HW212030   1.571   5.000   5.646 -0.2483  1.2021 -0.2224
35698SOL     OW12031   1.491   1.447   8.537 -0.1557  0.0913  0.7219
35698SOL    HW112032   1.527   1.459   8.449  2.5598  1.9297  1.9696
35698SOL    HW212033   1.396   1.448   8.524  0.1476 -0.2454 -2.2092
35699SOL     OW12034   9.652   1.811   0.819  0.0169  0.2211 -0.5512
35699SOL    HW112035   9.696   1.768   0.893 -0.2852 -1.5349 -1.3446
35699SOL    HW212036   9.721   1.826   0.755 -0.1875 -0.9831 -1.0943
35700SOL     OW12037  10.528   5.536   9.603  0.0443  0.5630 -0.3877
35700SOL    HW112038  10.446   5.499   9.570 -0.1252 -0.4638  1.0847
35700SOL    HW212039  10.506   5.626   9.628 -1.2694 -0.3051  1.9718
35701SOL     OW12040   2.654   3.441   7.918  0.0875 -0.0842  0.2217
35701SOL    HW112041   2.592   3.376   7.950 -0.6816  1.1615  1.3478
35701SOL    HW212042   2.699   3.472   7.997  1.4632 -0.2391 -0.4631
35702SOL     OW12043   5.088   1.731   0.558 -0.7601 -0.5204  0.5517
35702SOL    HW112044   5.058   1.661   0.500  0.0757 -1.4112  1.1690
35702SOL    HW212045   5.150   1.782   0.504 -0.1571 -1.2114  0.5806
35703SOL     OW12046  11.062   8.601   3.559 -0.1616  0.0761  0.1917
35703SOL    HW112047  10.968   8.603   3.543 -0.4763 -1.0680  1.7691
35703SOL    HW212048  11.081   8.511   3.584  1.8282 -0.4160 -2.5752
35704SOL     OW12049   2.058   5.989   9.416  0.1849 -0.3551 -0.1970
35704SOL    HW112050   1.997   6.043   9.366 -0.3335  0.3412  1.1218
35704SOL    HW212051   2.139   6.040   9.418 -0.3841  0.5679  1.2746
35705SOL     OW12052   2.626   7.433  10.659  0.2485  0.1269 -0.1747
35705SOL    HW112053   2.614   7.499  10.727 -0.6158 -1.0697  0.8858
35705SOL    HW212054   2.592   7.473  10.580  0.1928  1.1307  0.3428
35706SOL     OW12055   1.305   4.842   9.798  0.2338  0.0944 -0.6899
35706SOL    HW112056   1.293   4.836   9.892  0.2942 -0.3303 -0.7040
35706SOL    HW212057   1.307   4.750   9.769  2.2688  0.1417 -0.8393
35707SOL     OW12058   4.571   8.350   0.295 -0.0263  0.3780 -0.4472
35707SOL    HW112059   4.580   8.322   0.204  0.4511  1.4489 -0.7435
35707SOL    HW212060   4.505   8.291   0.332 -0.1528 -0.1278 -1.4590
35708SOL     OW12061   7.267   4.431   9.697 -0.0121  0.3117 -0.1423
35708SOL    HW112062   7.229   4.344   9.705 -1.1020  0.8331  0.4680
35708SOL    HW212063   7.311   4.430   9.612 -1.5732 -0.2551 -0.9780
35709SOL     OW12064   3.276  10.819   0.539 -0.4080  0.2224 -0.5343
35709SOL    HW112065   3.344  10.868   0.585 -1.2280  1.2478 -0.3615
35709SOL    HW212066   3.319  10.739   0.510  0.3134 -0.1833  1.4679
35710SOL     OW12067   3.386   5.246   9.850 -0.8412  0.3429  0.0964
35710SOL    HW112068   3.327   5.294   9.908  0.2665  0.2348  1.3673
35710SOL    HW212069   3.342   5.162   9.835 -1.3696  0.5671  0.3732
35711SOL     OW12070   8.128   8.287   1.775  0.2955  0.0647 -0.0931
35711SOL    HW112071   8.153   8.370   1.816  1.2774 -0.1602 -0.1946
35711SOL    HW212072   8.084   8.238   1.845 -2.2704  1.4720 -0.5963
35712SOL     OW12073   0.869   5.882   5.759 -1.0216  0.4707  0.1536
35712SOL    HW112074   0.883   5.788   5.768  0.5898  0.7134  0.3949
35712SOL    HW212075   0.940   5.912   5.702 -0.8741  1.7133  0.9536
35713SOL     OW12076   4.673  10.599   5.432 -0.0135 -0.1566 -0.0987
35713SOL    HW112077   4.724  10.586   5.512 -1.2212  0.5195  0.8146
35713SOL    HW212078   4.581  10.594   5.461 -0.5160 -1.6393 -1.7340
35714SOL     OW12079   9.625   3.385   9.069 -0.0054  0.5524 -0.8774
35714SOL    HW112080   9.608   3.423   8.983 -1.5362 -0.0014 -0.8541
35714SOL    HW212081   9.665   3.300   9.050  0.1784  0.6754 -1.0341
35715SOL     OW12082  10.071   9.898  11.508 -0.3301 -0.2655  0.0985
35715SOL    HW112083   9.977   9.887  11.492 -0.6114  1.0745  0.6990
35715SOL    HW212084  10.112   9.823  11.464 -1.7684 -1.6373  0.9828
35716SOL     OW12085   5.527   3.255   3.841  0.6648 -0.0871  0.2481
35716SOL    HW112086   5.448   3.271   3.893 -0.1661 -0.0384 -1.0045
35716SOL    HW212087   5.557   3.342   3.815  0.1063 -0.1805 -0.7519
35717SOL     OW12088   7.669  10.944   2.889 -0.5401 -0.0723  0.2330
35717SOL    HW112089   7.611  10.871   2.909  0.4304 -1.4997 -1.7787
35717SOL    HW212090   7.611  11.020   2.884 -1.7231 -0.8480  1.4123
35718SOL     OW12091   2.293   4.988  10.957 -0.1806  0.1409  0.0397
35718SOL    HW112092   2.198   4.999  10.963 -0.2261  0.6735 -1.3741
35718SOL    HW212093   2.304   4.897  10.928 -0.2768  0.2378 -0.3009
35719SOL     OW12094   7.281   0.447   8.534  0.3075  0.4267 -0.0819
35719SOL    HW112095   7.226   0.394   8.476 -1.1225  0.5392  1.1238
35719SOL    HW212096   7.262   0.414   8.621  1.6122  0.9971  0.4454
35720SOL     OW12097  10.855   6.051  11.024 -0.4633 -0.6258 -0.1029
35720SOL    HW112098  10.877   6.071  11.115  0.7101 -1.2472 -0.2315
35720SOL    HW212099  10.939   6.052  10.978 -0.8591 -1.6900 -0.9010
35721SOL     OW12100   8.372   8.499   9.356  0.1914  0.1554  0.4069
35721SOL    HW112101   8.442   8.460   9.408  0.4758 -0.5656 -0.4990
35721SOL    HW212102   8.417   8.564   9.301  0.0337  0.2360  0.3731
35722SOL     OW12103   6.780  10.766  10.933 -0.3015 -0.4007 -0.5153
35722SOL    HW112104   6.846  10.808  10.878 -0.7026  0.0610 -0.6561
35722SOL    HW212105   6.806  10.674  10.937 -0.0707 -0.3688 -1.1883
35723SOL     OW12106  11.251   7.393   6.375  0.3947  0.0383  0.1378
35723SOL    HW112107  11.284   7.396   6.285 -1.3458 -1.2608 -0.6098
35723SOL    HW212108  11.275   7.306   6.406 -2.4966 -1.1529 -0.6033
35724SOL     OW12109   8.771   0.603   1.034 -0.2208  0.1176 -0.0183
35724SOL    HW112110   8.831   0.537   1.068 -1.2762 -0.6843  0.3207
35724SOL    HW212111   8.757   0.578   0.943  0.4603  0.6995 -0.3013
35725SOL     OW12112   9.511   9.405   2.470 -0.1065 -0.0613  0.1949
35725SOL    HW112113   9.434   9.453   2.439  0.7223  0.4101 -1.1782
35725SOL    HW212114   9.585   9.462   2.452  0.5378 -0.2147  2.1459
35726SOL     OW12115  11.616   1.970   2.200  0.0480  0.0368  0.2418
35726SOL    HW112116  11.616   1.878   2.224 -0.0294 -0.1990 -0.6044
35726SOL    HW212117  11.708   1.991   2.183 -0.0908 -0.3255 -1.0914
35727SOL     OW12118   3.415   5.151   3.253 -0.4949  0.1093  0.1686
35727SOL    HW112119   3.327   5.148   3.215 -0.3080  2.5466 -0.6490
35727SOL    HW212120   3.414   5.228   3.310  1.2321  0.5299 -0.2840
35728SOL     OW12121   7.910   9.058  11.217 -0.0626  0.0669 -0.2284
35728SOL    HW112122   7.998   9.067  11.180 -0.1436 -0.0195 -0.4480
35728SOL    HW212123   7.919   8.988  11.282  0.0859  0.2324 -0.0684
35729SOL     OW12124  10.636   3.130   2.208  0.9877 -0.3899  0.0921
35729SOL    HW112125  10.542   3.143   2.200  0.7888 -1.3682  0.6196
35729SOL    HW212126  10.674   3.216   2.193  0.0234 -0.0165 -0.3002
35730SOL     OW12127   0.771  11.062   9.817  0.2280 -0.1259 -0.0483
35730SOL    HW112128   0.790  11.099   9.903  0.9111 -2.1715  0.7358
35730SOL    HW212129   0.676  11.055   9.814  0.1424  0.8889  0.1190
35731SOL     OW12130   5.452   2.745   9.486 -0.0900  0.0347  0.1658
35731SOL    HW112131   5.359   2.749   9.462 -0.1835 -0.5892  0.3991
35731SOL    HW212132   5.470   2.651   9.494  0.8721  0.0868 -1.1038
35732SOL     OW12133   8.918   5.989   2.803  0.2172 -0.0605 -0.5169
35732SOL    HW112134   8.892   5.974   2.894 -1.5466 -1.5977 -1.1987
35732SOL    HW212135   9.003   5.946   2.794 -0.4978 -1.6582 -0.0465
35733SOL     OW12136   5.153  10.075   1.654 -0.0561 -0.2051  0.2915
35733SOL    HW112137   5.162   9.980   1.653  0.6329 -0.1480  0.2998
35733SOL    HW212138   5.213  10.104   1.722 -2.0741  0.0901  2.0468
35734SOL     OW12139   7.852   8.967   4.592  0.1458 -0.1397 -0.2732
35734SOL    HW112140   7.828   9.046   4.640  0.9199  1.4206 -2.2722
35734SOL    HW212141   7.921   8.996   4.532  0.8870 -2.5001 -0.6628
35735SOL     OW12142   9.833   3.901   1.900  0.6153  0.6103 -0.1794
35735SOL    HW112143   9.857   3.844   1.828  0.7491  0.4775 -0.0299
35735SOL    HW212144   9.824   3.988   1.861 -1.7421  0.1300 -0.8451
35736SOL     OW12145  10.194   1.750   9.487 -0.2682  0.4330 -0.2775
35736SOL    HW112146  10.197   1.830   9.433  0.2955  1.3171  1.0192
35736SOL    HW212147  10.241   1.774   9.567 -2.6329 -0.2538  1.4255
35737SOL     OW12148   6.294   6.818   1.214 -0.1005  0.3024 -0.5466
35737SOL    HW112149   6.335   6.871   1.145 -0.3065 -0.3800 -1.1987
35737SOL    HW212150   6.250   6.747   1.168  1.7783 -1.5914  0.3673
35738SOL     OW12151   1.122   8.720   3.628  0.1452 -0.3072 -0.1340
35738SOL    HW112152   1.036   8.720   3.670 -0.2793  0.7340 -0.9651
35738SOL    HW212153   1.183   8.743   3.699  0.0296 -2.9015  0.9203
35739SOL     OW12154   4.933   0.565   2.736 -0.6596  0.5686  0.0680
35739SOL    HW112155   4.901   0.488   2.783  3.0491  0.5289  3.0334
35739SOL    HW212156   4.871   0.634   2.759 -2.2040 -0.7632  0.1003
35740SOL     OW12157   7.041   8.974   5.858 -0.6900  0.2809  0.2100
35740SOL    HW112158   7.127   8.970   5.817 -2.5502 -1.3691 -4.1196
35740SOL    HW212159   7.036   8.895   5.911  1.2698  1.7815  2.9395
35741SOL     OW12160   6.397  11.350   1.876 -0.6454  0.2277 -0.3122
35741SOL    HW112161   6.404  11.446   1.879 -1.3189  0.3962 -2.3987
35741SOL    HW212162   6.486  11.319   1.890 -0.5211  1.1008  1.0356
35742SOL     OW12163   1.073   0.493   2.324  0.6589  0.4378 -0.3564
35742SOL    HW112164   1.094   0.580   2.291 -0.3238  1.0791  0.6717
35742SOL    HW212165   1.066   0.439   2.245 -0.6733  1.7174 -1.1517
35743SOL     OW12166  11.005   6.236   8.276  0.7146 -1.1137 -0.2523
35743SOL    HW112167  10.991   6.203   8.187 -0.6100 -2.6587  0.4663
35743SOL    HW212168  10.916   6.254   8.309  1.1949 -0.3422  0.6727
35744SOL     OW12169   3.106   1.052   9.493 -0.2145  0.8706  0.0871
35744SOL    HW112170   3.118   1.021   9.582 -0.9688 -0.9624 -0.4012
35744SOL    HW212171   3.118   0.974   9.438 -1.8788  1.4718 -1.2451
35745SOL     OW12172   4.047   0.201   4.836 -0.4330  0.8981 -0.4514
35745SOL    HW112173   4.046   0.116   4.791  1.4061  1.8204 -2.4372
35745SOL    HW212174   4.110   0.188   4.907  0.1454  0.6644 -0.9859
35746SOL     OW12175   5.346   5.085  11.126 -0.6302  0.0229 -0.0386
35746SOL    HW112176   5.402   5.008  11.113 -0.4741 -0.0541  1.0319
35746SOL    HW212177   5.349   5.102  11.220 -2.4131  0.0326  0.0517
35747SOL     OW12178   3.343   8.482   6.935 -0.1793  0.0350 -0.0739
35747SOL    HW112179   3.421   8.481   6.880 -1.0215 -3.7688 -1.5292
35747SOL    HW212180   3.376   8.488   7.025  1.6261  0.1736 -0.7167
35748SOL     OW12181   6.745   4.793   3.736 -0.6023 -0.0765 -0.3854
35748SOL    HW112182   6.770   4.831   3.652  0.6085 -1.5229 -0.7140
35748SOL    HW212183   6.728   4.869   3.792 -1.1826  0.9150 -1.8409
35749SOL     OW12184   5.637   4.677   2.210 -0.0048 -0.6114 -0.6511
35749SOL    HW112185   5.558   4.642   2.251  0.1239 -1.1943 -0.8835
35749SOL    HW212186   5.704   4.671   2.277 -0.4201  1.0488 -0.0298
35750SOL     OW12187   6.174   3.827  11.457  0.2819  0.5974 -0.1039
35750SOL    HW112188   6.223   3.746  11.439 -2.2550 -0.9642 -0.4390
35750SOL    HW212189   6.149   3.860  11.370 -2.0914 -0.5610  0.0493
35751SOL     OW12190  11.646   6.589   3.079  0.2639  0.3663  0.0557
35751SOL    HW112191  11.671   6.664   3.133 -0.5805  0.0694  0.8705
35751SOL    HW212192  11.651   6.514   3.137 -0.2806 -0.0151 -0.3757
35752SOL     OW12193   5.421   1.454   1.812 -0.4952  0.0037 -0.1665
35752SOL    HW112194   5.507   1.482   1.782 -0.6073 -0.0008 -0.4962
35752SOL    HW212195   5.396   1.518   1.878 -0.2455  0.0111 -0.0775
35753SOL     OW12196   3.277   4.679   6.162  0.0783  0.1576 -0.3642
35753SOL    HW112197   3.349   4.683   6.224  0.7187  2.3139 -1.1604
35753SOL    HW212198   3.310   4.722   6.083 -1.9414  0.9480 -0.8616
35754SOL     OW12199   5.278  10.084   7.175  0.0931  0.2817  0.9112
35754SOL    HW112200   5.240   9.999   7.154 -0.0149  0.4113  0.5744
35754SOL    HW212201   5.360  10.086   7.125 -1.4587  1.7199 -1.8037
35755SOL     OW12202  10.131   4.043   3.637  0.5436  0.0665  0.4229
35755SOL    HW112203  10.201   4.077   3.581  0.6185  0.3482  0.6820
35755SOL    HW212204  10.159   3.954   3.658 -0.0389 -0.4507 -0.9031
35756SOL     OW12205   2.082   6.258   8.343 -0.0811 -0.1972  0.5451
35756SOL    HW112206   2.079   6.315   8.267  0.3980  0.3938  0.9562
35756SOL    HW212207   2.125   6.311   8.411  1.0517 -1.2978  0.7159
35757SOL     OW12208   5.321   2.732   3.928 -0.0998  0.7277 -0.3722
35757SOL    HW112209   5.247   2.676   3.906  0.3594 -0.4884  1.0068
35757SOL    HW212210   5.397   2.688   3.889  0.1301  0.9979 -0.2345
35758SOL     OW12211   2.797  11.426   4.270 -1.1019  0.4104  0.6814
35758SOL    HW112212   2.829  11.429   4.360 -0.8898 -0.5965  0.6539
35758SOL    HW212213   2.719  11.482   4.271 -0.6706  1.0220  1.2999
35759SOL     OW12214   2.545   1.221  10.274  0.0593  0.3967  0.1033
35759SOL    HW112215   2.522   1.314  10.266  2.6971  1.1613  0.4285
35759SOL    HW212216   2.603   1.204  10.201 -1.7130 -1.5472 -0.9607
35760SOL     OW12217  11.381   7.148   6.431 -0.5058  0.0403 -0.2770
35760SOL    HW112218  11.452   7.085   6.415 -0.1523  0.0818  1.0059
35760SOL    HW212219  11.311   7.096   6.470 -1.1442  0.0271 -1.4078
35761SOL     OW12220   1.369   7.789   0.482  0.4551 -0.2012  0.1397
35761SOL    HW112221   1.355   7.817   0.572 -0.8081  2.3896 -0.7578
35761SOL    HW212222   1.464   7.774   0.476  0.7331  0.8086  1.5613
35762SOL     OW12223   8.204   2.398   4.625 -0.1124  0.1806  0.2140
35762SOL    HW112224   8.270   2.443   4.572  1.6833 -0.5674  1.7055
35762SOL    HW212225   8.238   2.402   4.714 -2.0178 -0.4182  1.0155
35763SOL     OW12226   6.234   7.128   1.399  0.6185 -0.6340  0.1566
35763SOL    HW112227   6.150   7.113   1.355 -1.3961 -0.4826  3.5613
35763SOL    HW212228   6.258   7.217   1.373 -2.0138  0.5796  1.4977
35764SOL     OW12229   1.404   1.242  10.025  0.1487  0.1835 -0.1382
35764SOL    HW112230   1.395   1.308  10.093 -0.7127  0.4712 -0.5270
35764SOL    HW212231   1.498   1.221  10.025  0.3562  1.0691  0.2882
35765SOL     OW12232   8.315   7.072   9.760  0.3040 -0.5256  0.3439
35765SOL    HW112233   8.282   7.059   9.672  1.3735 -1.3601  0.0477
35765SOL    HW212234   8.387   7.135   9.750 -0.6949  0.7606  0.8895
35766SOL     OW12235   3.151   7.521  11.538  0.7959 -0.1519  0.7075
35766SOL    HW112236   3.117   7.592  11.593  1.0608  0.2791  0.3262
35766SOL    HW212237   3.076   7.495  11.484  1.3983  1.8587 -1.2458
35767SOL     OW12238   9.664   2.188   3.611  0.2378 -0.0837  0.4192
35767SOL    HW112239   9.612   2.268   3.622  0.0562  0.1128 -1.4731
35767SOL    HW212240   9.605   2.118   3.639 -0.2263  0.3118  0.4468
35768SOL     OW12241   8.508  11.075  11.154  0.9206  0.2748  0.4119
35768SOL    HW112242   8.421  11.062  11.117  1.4582 -0.1767 -0.7170
35768SOL    HW212243   8.552  11.132  11.093  1.0356  1.5309  1.6183
35769SOL     OW12244   0.465   2.794  10.225  0.4088  0.4935 -0.0058
35769SOL    HW112245   0.533   2.837  10.174  0.7301  0.2678  0.2324
35769SOL    HW212246   0.429   2.728  10.165 -0.3594  1.3469 -0.5098
35770SOL     OW12247   7.759   5.730   8.993 -0.5033 -0.1599 -0.1927
35770SOL    HW112248   7.821   5.803   8.995 -1.3017  0.6449 -2.1957
35770SOL    HW212249   7.745   5.713   8.900 -1.1077 -2.2375  0.2214
35771SOL     OW12250   4.766   7.294   7.457  0.1493 -0.0233  0.5119
35771SOL    HW112251   4.773   7.389   7.443  0.6784  0.4491  3.4662
35771SOL    HW212252   4.790   7.281   7.548  0.2370 -3.0639  0.1520
35772SOL     OW12253   7.056   5.583  10.722  0.0407 -0.0531 -0.0613
35772SOL    HW112254   6.986   5.646  10.741 -1.5355 -2.0531  1.1078
35772SOL    HW212255   7.129   5.611  10.778 -1.0910  0.0236  1.4381
35773SOL     OW12256   6.965   1.045   1.991 -0.3331 -0.4748  0.0775
35773SOL    HW112257   7.005   1.061   1.905  0.7696  0.6148  0.7545
35773SOL    HW212258   6.934   1.131   2.020 -0.5290 -0.7918  0.8355
35774SOL     OW12259   5.871   3.083   6.440  0.2724 -0.2380 -0.8131
35774SOL    HW112260   5.803   3.042   6.386 -1.2479  2.3280 -1.0152
35774SOL    HW212261   5.824   3.144   6.497  2.0560 -1.1877  1.8985
35775SOL     OW12262  11.217   4.911  10.623  0.1327  0.7025 -0.3607
35775SOL    HW112263  11.168   4.978  10.574  1.7621  1.4216 -1.0562
35775SOL    HW212264  11.308   4.925  10.599  1.2579  1.8651  3.7282
35776SOL     OW12265   4.303   4.845   2.691  0.3953  0.1169  0.3024
35776SOL    HW112266   4.329   4.934   2.711 -2.1384  0.9066  0.4693
35776SOL    HW212267   4.252   4.817   2.768 -0.1848 -0.8652 -0.4123
35777SOL     OW12268   6.464  11.305   5.410 -0.0742 -0.0683 -0.4518
35777SOL    HW112269   6.515  11.385   5.421 -0.6800  0.4475 -1.2476
35777SOL    HW212270   6.516  11.251   5.351 -0.1010  0.1352 -0.6611
35778SOL     OW12271   9.851   4.471   3.993 -0.1506  0.4861 -0.7007
35778SOL    HW112272   9.847   4.443   4.084  0.2817  0.2428 -0.7544
35778SOL    HW212273   9.814   4.560   3.993 -1.5842 -0.0885 -0.5374
35779SOL     OW12274   5.584   4.877   0.199  0.5240 -0.0070  0.1197
35779SOL    HW112275   5.528   4.936   0.149  0.7859 -0.3425 -0.5744
35779SOL    HW212276   5.651   4.935   0.238  1.1573  0.0888 -1.0706
35780SOL     OW12277   8.526   8.520   8.642 -0.0991 -0.5016 -0.5676
35780SOL    HW112278   8.457   8.455   8.652 -0.6694  0.3196  1.4105
35780SOL    HW212279   8.482   8.595   8.601 -0.2081 -0.2861 -0.0727
35781SOL     OW12280   1.105   7.010   8.476  0.4158 -0.2341  0.1235
35781SOL    HW112281   1.154   7.010   8.559  0.0174  1.2782  0.3996
35781SOL    HW212282   1.016   6.984   8.501  0.0204  1.2754  0.3935
35782SOL     OW12283   2.888   4.652   0.106  0.4321 -0.3930  0.2775
35782SOL    HW112284   2.887   4.738   0.065  0.6179 -0.5382 -0.0264
35782SOL    HW212285   2.847   4.594   0.042  0.5714 -0.5869  0.3654
35783SOL     OW12286   8.015   6.210   4.333 -0.1137  0.0205 -0.0149
35783SOL    HW112287   7.949   6.198   4.265  0.9458 -2.7058 -0.6770
35783SOL    HW212288   8.021   6.125   4.377  3.0488  0.0739 -0.1276
35784SOL     OW12289   2.059   9.638   9.826 -0.4033  0.3792  0.1078
35784SOL    HW112290   2.029   9.717   9.871  1.4691  0.8414  0.6322
35784SOL    HW212291   2.064   9.572   9.895 -1.4662 -0.0795 -0.2343
35785SOL     OW12292   2.587   8.429   7.966 -0.4596  0.3535 -0.2645
35785SOL    HW112293   2.507   8.422   8.017 -0.8700  0.1793 -0.9211
35785SOL    HW212294   2.574   8.506   7.910 -0.7718 -0.4765 -1.3817
35786SOL     OW12295   9.968   2.977   9.004 -0.5601  0.4900 -0.1089
35786SOL    HW112296   9.978   2.923   8.926 -2.0125  1.5254 -1.0719
35786SOL    HW212297  10.055   3.012   9.021 -0.1901  0.1376 -1.2019
35787SOL     OW12298   4.484   3.451   2.781  0.0894  0.0442 -0.1507
35787SOL    HW112299   4.464   3.492   2.697  0.8055  1.5008  0.3687
35787SOL    HW212300   4.460   3.359   2.769 -0.4767  0.3741 -1.7126
35788SOL     OW12301   3.519  11.638   8.406 -0.2819  0.1279 -0.3043
35788SOL    HW112302   3.483  11.613   8.321  0.5931  0.5824 -0.8255
35788SOL    HW212303   3.517  11.558   8.458 -1.3372 -0.0271 -0.5569
35789SOL     OW12304   4.976   2.618   1.772 -0.0461 -0.4200 -0.0923
35789SOL    HW112305   4.990   2.698   1.721  1.0514 -0.9318 -0.6344
35789SOL    HW212306   4.881   2.603   1.767  0.1043 -1.1254 -3.1050
35790SOL     OW12307   3.155   5.506   2.257 -0.2422  0.5132 -0.9219
35790SOL    HW112308   3.189   5.417   2.264  0.2543  0.8297  2.0202
35790SOL    HW212309   3.060   5.495   2.250 -0.3709 -0.3266  1.1863
35791SOL     OW12310   6.281   6.200   0.879 -0.5483 -0.6511 -0.9009
35791SOL    HW112311   6.245   6.113   0.863 -1.0397 -0.5769 -0.2327
35791SOL    HW212312   6.209   6.261   0.859  0.1076 -0.3131 -2.3998
35792SOL     OW12313   4.808   2.817   5.483 -0.8904  0.4130 -0.2028
35792SOL    HW112314   4.809   2.904   5.523 -0.0123  0.7162 -0.8433
35792SOL    HW212315   4.783   2.834   5.392 -1.4251 -0.0998 -0.1600
35793SOL     OW12316   3.442   1.172  11.629 -0.3209 -0.0202  0.0206
35793SOL    HW112317   3.370   1.215  11.581 -1.0043 -1.6231 -0.4751
35793SOL    HW212318   3.398   1.112  11.688  0.6089 -0.3453  0.3908
35794SOL     OW12319   1.287   6.709   1.295 -0.1356  0.3196 -0.3891
35794SOL    HW112320   1.198   6.673   1.302 -0.0284  0.3258  2.1616
35794SOL    HW212321   1.274   6.804   1.291 -0.2724  0.2862 -0.7065
35795SOL     OW12322   8.223  11.613   7.187 -0.1473  0.3264  0.3555
35795SOL    HW112323   8.196  11.600   7.278  2.0216 -0.0298  1.0104
35795SOL    HW212324   8.251  11.704   7.183 -2.6060  1.1137 -0.6835
35796SOL     OW12325   7.523   3.138   6.145 -0.5399 -0.4308  0.0584
35796SOL    HW112326   7.482   3.058   6.177 -3.6264  0.6219 -0.9210
35796SOL    HW212327   7.488   3.207   6.202  2.5753  0.2791  1.3337
35797SOL     OW12328   2.921   8.406   3.400 -0.3821 -0.1360  0.1159
35797SOL    HW112329   2.920   8.366   3.487 -0.0511 -1.5533 -0.5015
35797SOL    HW212330   2.961   8.340   3.343  1.7603  1.6989 -0.6753
35798SOL     OW12331   7.475   2.455   8.323 -0.8449 -0.0151 -0.5756
35798SOL    HW112332   7.480   2.381   8.384  1.5213 -1.6072 -2.4855
35798SOL    HW212333   7.451   2.415   8.240  0.8930  1.2357 -1.7529
35799SOL     OW12334   5.898   1.818   6.818  0.0863 -0.3347  0.1238
35799SOL    HW112335   5.961   1.872   6.770  0.4215 -0.1177  0.8025
35799SOL    HW212336   5.941   1.733   6.826 -0.3021 -0.6102 -0.6514
35800SOL     OW12337   4.783  10.917   1.733 -0.1974 -0.3565 -0.5471
35800SOL    HW112338   4.838  10.914   1.655  0.7752  2.2983 -0.0932
35800SOL    HW212339   4.697  10.945   1.702 -0.1449 -0.4738 -0.7976
35801SOL     OW12340   9.814   0.173   0.673 -0.6276 -0.1986 -0.2480
35801SOL    HW112341   9.773   0.242   0.724  0.0775 -0.0585  0.1404
35801SOL    HW212342   9.902   0.165   0.709 -0.5426 -0.9809 -0.5951
35802SOL     OW12343   2.583   2.586   5.484  0.1865  0.2393  0.5870
35802SOL    HW112344   2.657   2.571   5.424 -0.3080  0.6795 -0.1446
35802SOL    HW212345   2.558   2.677   5.470  1.1060  0.8613  2.6797
35803SOL     OW12346   8.148   7.201   6.714  0.0829 -0.0435 -0.3197
35803SOL    HW112347   8.068   7.226   6.668  0.2295 -0.2231 -0.6738
35803SOL    HW212348   8.127   7.212   6.806  0.0955  1.2752 -0.4498
35804SOL     OW12349   8.488   4.944   0.523 -0.3878  0.3615 -0.1917
35804SOL    HW112350   8.483   5.008   0.453 -1.1542  0.0106 -0.4697
35804SOL    HW212351   8.398   4.914   0.536  0.1296 -1.9467 -1.3030
35805SOL     OW12352   8.380   1.858   1.331 -0.0372  0.4278  0.7178
35805SOL    HW112353   8.472   1.831   1.342  0.2748  1.0020 -0.3401
35805SOL    HW212354   8.351   1.879   1.419  0.0294 -2.2531  1.4883
35806SOL     OW12355   7.782   6.494   2.926 -0.4979  0.1061 -0.1991
35806SOL    HW112356   7.853   6.546   2.888  0.6248 -1.6289 -0.6292
35806SOL    HW212357   7.781   6.414   2.874 -2.3352 -0.2205  0.2583
35807SOL     OW12358   6.291   2.078   2.059  0.8179  0.0168 -0.3481
35807SOL    HW112359   6.353   2.104   2.128 -0.1791 -1.9893  1.4632
35807SOL    HW212360   6.342   2.023   2.001  1.3669  0.6204 -0.4459
35808SOL     OW12361   9.883   6.046   3.901  0.8660  0.2832  0.1576
35808SOL    HW112362   9.874   5.981   3.832  3.4953 -0.7054  0.6136
35808SOL    HW212363   9.803   6.038   3.953  1.0147 -2.5070  0.1032
35809SOL     OW12364  10.248   6.756   8.962 -0.4006  0.2272  0.0470
35809SOL    HW112365  10.326   6.810   8.948  1.0768 -1.6196  0.7986
35809SOL    HW212366  10.200   6.763   8.880  0.7721  1.0414 -0.6090
35810SOL     OW12367  10.032  11.426   1.121 -0.3436  0.2529 -0.1771
35810SOL    HW112368  10.093  11.405   1.050  1.2639  0.1002  1.1955
35810SOL    HW212369   9.965  11.358   1.116  0.1965 -0.2275 -1.0344
35811SOL     OW12370   8.295   0.218   2.302 -0.2565 -0.0570 -0.0653
35811SOL    HW112371   8.344   0.285   2.254  0.4258  1.1865  2.2544
35811SOL    HW212372   8.360   0.150   2.322 -0.7715 -1.0959 -1.7113
35812SOL     OW12373  10.544   4.986   1.628 -0.1090  0.2439 -0.0083
35812SOL    HW112374  10.460   4.994   1.582  0.3503  0.0469 -0.9084
35812SOL    HW212375  10.554   5.070   1.673 -1.5878 -0.3614  1.5393
35813SOL     OW12376   9.893   5.793   7.769 -0.5341  0.1307 -0.0461
35813SOL    HW112377   9.935   5.765   7.851  0.6716  0.2934 -0.5819
35813SOL    HW212378   9.967   5.813   7.711 -1.3791  0.4754 -1.0133
35814SOL     OW12379   6.582   6.928   5.452 -0.4585  0.5928 -0.4525
35814SOL    HW112380   6.492   6.898   5.456 -1.0467  2.3311  0.2320
35814SOL    HW212381   6.597   6.947   5.359 -0.6050 -0.1652 -0.6426
35815SOL     OW12382   5.040   3.776  10.152 -0.1525  0.2173  0.0399
35815SOL    HW112383   5.029   3.764  10.246  0.2692  0.5640  0.1372
35815SOL    HW212384   5.127   3.738  10.134  0.1296  0.8985 -0.0646
35816SOL     OW12385   5.503   7.853   3.465  0.6196  0.5858 -0.4319
35816SOL    HW112386   5.574   7.805   3.507 -0.3143 -0.3869  0.0752
35816SOL    HW212387   5.469   7.793   3.399 -1.8136 -0.3361  1.4722
35817SOL     OW12388   7.681  10.678   5.567  0.0060 -0.2218  0.1674
35817SOL    HW112389   7.712  10.608   5.510  0.5165  1.1895 -1.3929
35817SOL    HW212390   7.627  10.733   5.510 -0.6359  0.4868  1.4176
35818SOL     OW12391   0.531   2.123   5.730  0.6908  0.2114  0.3359
35818SOL    HW112392   0.458   2.069   5.701  0.5074  0.9036 -0.5090
35818SOL    HW212393   0.493   2.210   5.742  0.4279 -0.2492  3.9668
35819SOL     OW12394   5.555   3.345  10.251  0.5670 -0.5817  0.2622
35819SOL    HW112395   5.609   3.412  10.294 -0.3726 -0.2575  0.9624
35819SOL    HW212396   5.521   3.292  10.323  0.9552 -1.5693 -0.2578
35820SOL     OW12397   6.031   8.077   7.625  0.8390  0.1105  0.1892
35820SOL    HW112398   5.959   8.134   7.599 -0.3169 -1.9905 -1.5640
35820SOL    HW212399   6.110   8.126   7.603 -0.0938  1.1075 -1.0915
35821SOL     OW12400  10.685   5.716   1.752 -0.2158  0.1402 -0.4989
35821SOL    HW112401  10.721   5.650   1.811 -0.4296 -0.4707 -1.0318
35821SOL    HW212402  10.595   5.728   1.782  0.0534  0.7812  0.0859
35822SOL     OW12403   5.756   4.449   7.673 -0.3138  0.5642 -0.3774
35822SOL    HW112404   5.686   4.456   7.737 -0.3648  2.1471 -0.5772
35822SOL    HW212405   5.832   4.487   7.717  0.9611 -2.6387  0.4897
35823SOL     OW12406   2.399  11.158   8.869  0.3982 -0.4700 -0.0152
35823SOL    HW112407   2.397  11.252   8.853 -0.5293 -0.2737  1.1329
35823SOL    HW212408   2.364  11.148   8.957  1.2038 -1.8385  0.1740
35824SOL     OW12409   4.215   4.614  10.700  0.0370  0.0770 -0.1506
35824SOL    HW112410   4.164   4.654  10.772 -0.0255 -1.0649  0.4539
35824SOL    HW212411   4.149   4.568  10.647  0.4785 -2.2155  1.1658
35825SOL     OW12412   7.748  10.649  10.568  0.1265 -0.3675 -0.8405
35825SOL    HW112413   7.731  10.693  10.651  2.1183  0.9485 -1.0606
35825SOL    HW212414   7.756  10.556  10.591 -1.7644 -0.3658  0.0071
35826SOL     OW12415  10.841   6.535   5.764 -0.7321 -0.2872 -0.2064
35826SOL    HW112416  10.893   6.578   5.695  0.7801  0.1326  1.1260
35826SOL    HW212417  10.754   6.525   5.726 -0.1624  0.6780 -1.8728
35827SOL     OW12418   2.836  10.550   2.921 -0.1579  0.5256  0.6678
35827SOL    HW112419   2.744  10.525   2.923 -0.3051  1.0009  0.0341
35827SOL    HW212420   2.836  10.645   2.938 -0.0156  1.0640 -1.9896
35828SOL     OW12421   6.196   5.396  11.240  0.2987 -0.1038 -0.4894
35828SOL    HW112422   6.272   5.373  11.293 -0.4482  0.4885  0.8750
35828SOL    HW212423   6.169   5.313  11.200  1.5587 -0.3442 -0.8992
35829SOL     OW12424   1.598   1.460   2.954 -0.0206 -0.4040 -0.1146
35829SOL    HW112425   1.690   1.472   2.932 -0.1460 -0.1767 -0.5175
35829SOL    HW212426   1.599   1.400   3.029  0.4558 -0.3447 -0.0695
35830SOL     OW12427   8.150  11.122   4.291  0.1487 -0.0620  0.1528
35830SOL    HW112428   8.173  11.038   4.251  0.5381  0.0026  0.2356
35830SOL    HW212429   8.149  11.105   4.385 -0.2713 -0.0920  0.1477
35831SOL     OW12430   9.268   1.397  11.425 -0.1505  0.3305 -0.5473
35831SOL    HW112431   9.349   1.370  11.382  0.4327  1.7894 -0.4119
35831SOL    HW212432   9.229   1.462  11.367  0.3720  1.9248  0.7812
35832SOL     OW12433   5.410   0.610   3.449 -0.0197  0.7091 -0.8185
35832SOL    HW112434   5.415   0.524   3.490 -0.3641  0.5053 -1.1980
35832SOL    HW212435   5.401   0.592   3.356  2.9843  1.1676 -1.3015
35833SOL     OW12436   3.796   0.332  11.064 -0.5365 -0.5562  0.1822
35833SOL    HW112437   3.833   0.411  11.024 -0.9038 -0.8583 -0.7802
35833SOL    HW212438   3.701   0.345  11.058 -0.6353 -1.7520 -1.4412
35834SOL     OW12439  10.999   5.335   9.357 -0.7445  0.5720 -0.2581
35834SOL    HW112440  11.086   5.312   9.389  0.1617  2.6495 -1.0572
35834SOL    HW212441  10.949   5.254   9.363  1.2717 -0.7093  0.1071
35835SOL     OW12442  10.848   3.919  10.358  0.0701  0.2913  0.7285
35835SOL    HW112443  10.878   3.946  10.445  0.3946  1.5908  0.2438
35835SOL    HW212444  10.828   4.002  10.313 -2.1645 -0.4321  0.2779
35836SOL     OW12445   6.813   8.106  11.130 -0.1282 -0.0919 -0.0807
35836SOL    HW112446   6.873   8.031  11.127 -0.0720 -0.0375 -2.1800
35836SOL    HW212447   6.852   8.165  11.194  0.2411 -1.4920  1.0482
35837SOL     OW12448   1.030   9.393   6.573  0.3436  0.2502  0.4076
35837SOL    HW112449   1.105   9.338   6.550  0.0767  0.6131 -1.4925
35837SOL    HW212450   1.068   9.479   6.589  0.2423  0.8819 -2.2952
35838SOL     OW12451   0.805   1.420   3.891  0.5032 -0.4545 -0.0703
35838SOL    HW112452   0.791   1.368   3.970  2.2271 -1.5951 -0.4603
35838SOL    HW212453   0.735   1.391   3.831 -0.0293 -0.5214  0.5773
35839SOL     OW12454   0.661   4.062   3.290  0.0396  0.6280  0.3137
35839SOL    HW112455   0.720   4.137   3.293  0.3683  0.3795  3.7058
35839SOL    HW212456   0.712   3.990   3.325 -1.6705 -0.0166  1.6334
35840SOL     OW12457   0.573   5.069   3.100 -0.1543 -0.1021 -0.3753
35840SOL    HW112458   0.658   5.103   3.071  0.0070 -1.7243 -2.0029
35840SOL    HW212459   0.509   5.121   3.049 -0.0366 -0.2933 -0.7234
35841SOL     OW12460   0.285   4.244   7.690  0.1140  0.1040  0.5677
35841SOL    HW112461   0.301   4.316   7.628  0.2421 -0.0439  0.4282
35841SOL    HW212462   0.194   4.218   7.672  0.1169  0.1307  0.5122
35842SOL     OW12463   9.789   5.701   9.760 -0.1191 -0.1656 -0.0729
35842SOL    HW112464   9.779   5.766   9.829 -1.0071 -0.0771 -0.2624
35842SOL    HW212465   9.797   5.618   9.806 -0.0784 -0.0377  0.1521
35843SOL     OW12466   0.475   2.934   7.314  0.0645  0.2285  0.0480
35843SOL    HW112467   0.478   2.984   7.396  0.2224 -1.7362  1.3287
35843SOL    HW212468   0.560   2.949   7.273 -0.0396  1.2885  0.1952
35844SOL     OW12469   4.006  10.375   7.664  0.4625  0.5945 -0.4163
35844SOL    HW112470   4.094  10.401   7.690 -0.0957  2.6744 -0.4251
35844SOL    HW212471   4.015  10.345   7.574  1.3431 -0.4385 -0.0049
35845SOL     OW12472   4.898   4.454   3.678  0.6166 -0.0051  0.3697
35845SOL    HW112473   4.824   4.466   3.738 -1.7368 -2.2909 -1.8149
35845SOL    HW212474   4.877   4.508   3.602  2.3037  0.9513  0.5433
35846SOL     OW12475   4.712   0.731   4.199  0.1147  0.0434 -0.4405
35846SOL    HW112476   4.749   0.747   4.112  2.4743 -2.3141 -0.0090
35846SOL    HW212477   4.767   0.782   4.258  0.0830 -0.2441 -0.1560
35847SOL     OW12478  11.242  11.174   9.754  0.0678 -0.4444 -0.0524
35847SOL    HW112479  11.299  11.118   9.807  1.3672  0.4782 -0.4392
35847SOL    HW212480  11.244  11.134   9.667 -1.3164 -1.4133  0.3156
35848SOL     OW12481  10.347   9.586   1.327 -0.7344 -0.0617  0.3100
35848SOL    HW112482  10.335   9.647   1.254  0.1981  0.1351  0.3138
35848SOL    HW212483  10.368   9.502   1.285  1.8504  0.4836  0.3190
35849SOL     OW12484   2.294   7.857  10.123 -0.3543 -0.1198 -0.1825
35849SOL    HW112485   2.233   7.783  10.113 -0.5748 -0.3513  2.2802
35849SOL    HW212486   2.262   7.922  10.061 -1.3801 -1.3191 -0.9784
35850SOL     OW12487   1.357   7.994   7.436 -0.0505 -1.0057  0.0945
35850SOL    HW112488   1.281   8.049   7.455 -0.8218 -1.6727 -0.9558
35850SOL    HW212489   1.404   7.989   7.519  0.3874  1.7058  0.0971
35851SOL     OW12490  10.253   0.285   1.174 -0.3657 -0.2940  0.1681
35851SOL    HW112491  10.342   0.314   1.153 -0.8183  0.2867 -1.0995
35851SOL    HW212492  10.230   0.333   1.253  0.6139 -0.8265  0.8011
35852SOL     OW12493  10.406  11.211   7.600  0.2869 -0.2108 -1.1095
35852SOL    HW112494  10.457  11.172   7.530 -0.7657 -2.9712 -0.4695
35852SOL    HW212495  10.467  11.216   7.674  0.0636 -2.1470 -0.7619
35853SOL     OW12496   0.010   1.253   2.748 -0.1231 -0.1682  0.4311
35853SOL    HW112497  -0.072   1.302   2.764  0.5003  0.9849  0.2120
35853SOL    HW212498   0.057   1.258   2.831 -0.0631 -0.4206  0.4128
35854SOL     OW12499   7.197   6.845  10.471 -0.3233  0.0143  0.3038
35854SOL    HW112500   7.119   6.807  10.432  0.8279 -4.3574  1.7072
35854SOL    HW212501   7.186   6.832  10.565  1.5491  0.4236  0.6254
35855SOL     OW12502  10.164   6.113   7.760 -0.2953 -0.0038  0.4095
35855SOL    HW112503  10.253   6.144   7.777  0.1886 -1.7169  1.1453
35855SOL    HW212504  10.126   6.102   7.847 -0.4357 -1.4452  0.1829
35856SOL     OW12505   0.102  10.681   5.194 -0.3259  0.4396  0.4218
35856SOL    HW112506   0.094  10.761   5.245 -2.3381 -0.1149  1.0873
35856SOL    HW212507   0.012  10.658   5.170  0.0615 -2.0449  0.9774
35857SOL     OW12508   8.674  11.322   8.681  0.0675  0.2266  0.1144
35857SOL    HW112509   8.664  11.347   8.773 -0.2355  0.8817 -0.0868
35857SOL    HW212510   8.740  11.253   8.681  0.3042  0.4497  0.7914
35858SOL     OW12511   1.180   6.401   7.153 -0.0437 -0.1236  0.5983
35858SOL    HW112512   1.113   6.468   7.144  0.3677  0.5081  2.1063
35858SOL    HW212513   1.224   6.401   7.068 -0.6151  0.8995  0.2810
35859SOL     OW12514   1.349   3.005   3.239  0.0997  0.3024 -0.1691
35859SOL    HW112515   1.328   2.965   3.324  1.4714 -0.1721 -0.0296
35859SOL    HW212516   1.264   3.012   3.195 -0.2336 -3.2311 -0.4092
35860SOL     OW12517  10.111   2.698   3.215 -0.0339  0.7129 -0.2404
35860SOL    HW112518  10.090   2.774   3.161  0.7767  0.6520 -0.6536
35860SOL    HW212519  10.206   2.689   3.208 -0.3049 -1.8219 -2.2529
35861SOL     OW12520   5.757   8.550   0.654 -0.2389 -0.6568 -0.9938
35861SOL    HW112521   5.673   8.559   0.608  0.6805 -0.9747 -2.8618
35861SOL    HW212522   5.808   8.626   0.627  0.0101 -0.3243  0.3401
35862SOL     OW12523   6.673  10.195   2.946  0.0623  0.0403  0.0053
35862SOL    HW112524   6.645  10.174   2.857 -1.1854  1.6413 -0.0298
35862SOL    HW212525   6.769  10.192   2.942  0.0070 -1.8301 -0.8612
35863SOL     OW12526   7.980   3.613  10.068 -0.0099  0.1753 -0.1439
35863SOL    HW112527   7.966   3.597   9.975 -0.1249  1.0372 -0.2835
35863SOL    HW212528   8.042   3.686  10.071  2.5439 -1.8676  0.4652
35864SOL     OW12529   4.727   4.822   3.639  0.5813 -0.1024  0.5968
35864SOL    HW112530   4.684   4.906   3.657 -0.5077 -0.5761  0.2744
35864SOL    HW212531   4.791   4.843   3.571 -1.2723  0.0762 -1.1821
35865SOL     OW12532   4.781   4.372   2.474 -0.4847  0.3674  0.6077
35865SOL    HW112533   4.752   4.292   2.432  0.9008  0.4307 -0.5301
35865SOL    HW212534   4.863   4.394   2.431 -1.1029  2.7060  0.5029
35866SOL     OW12535   1.251   6.554   7.807 -0.0045  0.5223 -0.5353
35866SOL    HW112536   1.220   6.614   7.875  0.5441  0.1790  0.0328
35866SOL    HW212537   1.237   6.467   7.845  1.9963  0.3538 -0.0797
35867SOL     OW12538   9.087   3.368   5.576  0.2660  0.4637 -0.0306
35867SOL    HW112539   9.015   3.402   5.523 -1.7113 -2.0688  0.7856
35867SOL    HW212540   9.087   3.422   5.655 -0.2725  0.9271 -0.3430
35868SOL     OW12541   3.286  11.663   6.772  0.1477 -0.5609 -0.0544
35868SOL    HW112542   3.253  11.735   6.718 -0.1930  0.2587  1.2048
35868SOL    HW212543   3.287  11.587   6.713 -3.4034 -0.5220 -0.4002
35869SOL     OW12544  11.081  11.314   5.613  0.0036 -0.0916 -0.3514
35869SOL    HW112545  11.138  11.391   5.611  0.1559 -0.1779  0.2515
35869SOL    HW212546  11.108  11.267   5.693 -1.3064  0.1729  0.2747
35870SOL     OW12547   5.735   8.488  11.027  0.3117  0.3543 -0.8372
35870SOL    HW112548   5.727   8.399  10.993 -2.2258 -0.8198  2.3331
35870SOL    HW212549   5.647   8.525  11.019  1.0448  2.1627 -0.9788
35871SOL     OW12550   7.478   8.533   3.213  0.0853 -0.4090  0.1983
35871SOL    HW112551   7.556   8.542   3.158 -0.2698  2.1550 -0.0093
35871SOL    HW212552   7.500   8.462   3.274  1.2963 -1.9302 -1.8741
35872SOL     OW12553   4.068   5.662  10.427 -0.0619  0.1699  0.2029
35872SOL    HW112554   4.135   5.612  10.382 -0.2192  0.6863 -0.6232
35872SOL    HW212555   4.011   5.695  10.358 -0.6377  0.5078  0.8187
35873SOL     OW12556   4.380  10.055   6.557 -0.0702 -0.2701  0.1724
35873SOL    HW112557   4.380   9.967   6.595 -0.4822 -0.2903  0.1333
35873SOL    HW212558   4.331  10.045   6.475  0.3761 -0.1210 -0.1117
35874SOL     OW12559   2.767   8.526   0.943  0.2005  0.7037 -0.1359
35874SOL    HW112560   2.774   8.452   1.003 -0.7886 -0.3691 -1.2861
35874SOL    HW212561   2.841   8.516   0.883 -0.5422 -0.0123 -0.9606
35875SOL     OW12562   2.978  10.629   6.094  0.3693 -0.1397 -0.0104
35875SOL    HW112563   3.062  10.624   6.140  0.3581  0.9299  0.1674
35875SOL    HW212564   2.921  10.569   6.141  0.0125  1.7720  2.2044
35876SOL     OW12565   6.742  10.883   3.722  0.4653  0.6282  0.5108
35876SOL    HW112566   6.682  10.812   3.698  0.2795  0.5490  1.1921
35876SOL    HW212567   6.717  10.956   3.665  0.7704  0.1036 -0.3130
35877SOL     OW12568   3.736   7.641   2.753  1.0479 -0.5465  0.1371
35877SOL    HW112569   3.660   7.595   2.789  0.3324 -1.4940 -2.3179
35877SOL    HW212570   3.791   7.572   2.716  0.8768  0.3780 -1.9956
35878SOL     OW12571   3.751   9.228   1.945 -0.1000  0.2592  0.0583
35878SOL    HW112572   3.676   9.169   1.934 -0.8143  1.1494 -0.0022
35878SOL    HW212573   3.783   9.211   2.033 -1.7375  1.3827  0.9066
35879SOL     OW12574   6.355   9.651   1.561 -0.2037 -0.1327  0.3067
35879SOL    HW112575   6.297   9.711   1.513  0.4556 -0.2282 -0.6368
35879SOL    HW212576   6.415   9.708   1.608  0.8097 -0.0314 -1.0708
35880SOL     OW12577   3.613  10.112   0.809 -0.2833  0.0405 -0.1860
35880SOL    HW112578   3.571  10.171   0.872  0.5572 -0.5010  0.9116
35880SOL    HW212579   3.542  10.059   0.775 -0.5532 -0.8184  1.5975
35881SOL     OW12580   1.311   2.616  10.893 -0.3196 -0.0678  0.3518
35881SOL    HW112581   1.378   2.613  10.824 -0.7023  0.8462 -0.0609
35881SOL    HW212582   1.298   2.524  10.916  1.9338 -0.2343  1.2782
35882SOL     OW12583   0.246   1.784   0.261 -0.2531 -0.6645  0.0268
35882SOL    HW112584   0.184   1.810   0.193  0.1369 -0.3656 -0.2173
35882SOL    HW212585   0.199   1.718   0.313  0.2578 -2.6520 -1.9128
35883SOL     OW12586   8.487   4.965   8.917  0.4547 -0.3410 -0.4466
35883SOL    HW112587   8.519   5.051   8.945 -1.9746 -0.1714  2.2720
35883SOL    HW212588   8.400   4.982   8.880 -0.0419 -1.5812  0.0892
35884SOL     OW12589   9.610  10.990   1.162  0.1200 -0.0383 -0.0458
35884SOL    HW112590   9.657  10.908   1.157 -0.9771 -0.7074  0.2328
35884SOL    HW212591   9.675  11.057   1.140  0.5529 -1.1337 -2.4153
35885SOL     OW12592   4.808   3.633   2.377 -0.8727 -0.6537 -0.3880
35885SOL    HW112593   4.779   3.595   2.460  1.1796  0.0485  0.6982
35885SOL    HW212594   4.790   3.565   2.312 -3.2007 -0.9426  0.4505
35886SOL     OW12595   0.649   4.464   4.965  0.3187 -0.3375 -0.3661
35886SOL    HW112596   0.575   4.467   4.905  0.3610 -0.5863 -0.4320
35886SOL    HW212597   0.662   4.555   4.992 -0.1948 -0.3337 -0.1237
35887SOL     OW12598   9.912   3.451   8.362  0.0397  0.6771 -0.0518
35887SOL    HW112599   9.955   3.368   8.343 -0.5807  0.1864  0.6302
35887SOL    HW212600   9.845   3.460   8.295 -0.1578  0.4195  0.1074
35888SOL     OW12601  10.046   4.049   8.489  0.0218 -0.2341 -0.1579
35888SOL    HW112602  10.081   4.138   8.479 -0.4048 -0.0057  0.3349
35888SOL    HW212603  10.106   3.994   8.439  1.0025  0.1694  0.5316
35889SOL     OW12604   2.968   5.104  10.862  0.1756 -0.1981  0.3854
35889SOL    HW112605   2.955   5.174  10.799 -0.0736  0.8211  1.5270
35889SOL    HW212606   2.885   5.100  10.911  0.2114 -1.2354  0.3977
35890SOL     OW12607   0.275   2.610   0.744 -0.4880  0.0419  0.7357
35890SOL    HW112608   0.237   2.566   0.820 -0.2486  1.0939  1.4866
35890SOL    HW212609   0.249   2.701   0.754  0.7045  0.4480  0.2855
35891SOL     OW12610   8.447   3.813   7.928 -0.5002  0.0174 -0.3436
35891SOL    HW112611   8.469   3.906   7.934  2.1420 -0.5045 -0.5561
35891SOL    HW212612   8.457   3.792   7.835 -1.4911 -0.4227 -0.3707
35892SOL     OW12613   6.133   9.301   6.662 -0.5605 -0.0294  0.0565
35892SOL    HW112614   6.090   9.304   6.576 -1.3950  2.7336  0.4476
35892SOL    HW212615   6.204   9.365   6.655 -0.6987  0.3025  1.4130
35893SOL     OW12616  10.258   5.060   5.047 -0.2336  0.0238  0.2446
35893SOL    HW112617  10.346   5.091   5.028  0.2573 -1.0235  0.7324
35893SOL    HW212618  10.222   5.035   4.961  0.3668 -0.6113  0.1728
35894SOL     OW12619   2.311   0.308   0.977 -0.3922 -0.3678  0.3546
35894SOL    HW112620   2.263   0.353   1.047 -2.0019 -0.4286 -0.6673
35894SOL    HW212621   2.337   0.378   0.917  1.0600 -0.3053  1.0132
35895SOL     OW12622   4.531   1.623   2.160 -0.0714 -0.8136 -0.1855
35895SOL    HW112623   4.532   1.541   2.209  1.9105 -0.4464  0.4798
35895SOL    HW212624   4.603   1.674   2.198 -0.1464  0.5297 -1.7515
35896SOL     OW12625   8.792   6.015   2.561 -0.1557 -0.2265 -0.1138
35896SOL    HW112626   8.771   5.928   2.529 -1.9436  0.1769 -0.1279
35896SOL    HW212627   8.847   6.000   2.637  0.7744 -1.3041 -0.9531
35897SOL     OW12628   4.551   2.142   9.359 -0.5452  0.6699  0.3187
35897SOL    HW112629   4.486   2.132   9.290 -0.1895  0.3524  0.0174
35897SOL    HW212630   4.634   2.119   9.317 -0.5633 -1.5887  1.3550
35898SOL     OW12631  10.436   4.252   8.567 -0.4027 -0.0388 -0.7839
35898SOL    HW112632  10.427   4.302   8.486 -0.1929 -1.7003 -1.8653
35898SOL    HW212633  10.529   4.260   8.589  0.1073 -1.6244 -2.1296
35899SOL     OW12634   7.161   8.643  10.937 -0.5292  0.1427  0.8879
35899SOL    HW112635   7.148   8.551  10.917 -4.7718  0.8066 -0.3988
35899SOL    HW212636   7.250   8.663  10.906 -0.1266 -3.0768 -0.3287
35900SOL     OW12637  10.114   8.687  10.456 -0.0661  0.3656 -0.3487
35900SOL    HW112638  10.168   8.631  10.511  0.4491 -0.4072 -1.6029
35900SOL    HW212639  10.062   8.739  10.518 -0.7242 -1.6440  0.8535
35901SOL     OW12640   0.545   5.266   0.151 -0.7805 -0.0090 -0.2735
35901SOL    HW112641   0.557   5.213   0.073 -1.8352 -0.4181 -0.1749
35901SOL    HW212642   0.490   5.213   0.208 -2.2690  1.3725 -0.3659
35902SOL     OW12643   3.011   7.677   5.674 -0.1811  0.4169 -0.6938
35902SOL    HW112644   3.076   7.653   5.740 -0.0474 -1.2629 -1.3953
35902SOL    HW212645   3.061   7.724   5.607 -0.2661  1.8646  0.2215
35903SOL     OW12646   9.687   7.096   7.279 -0.0220 -0.1313 -0.2072
35903SOL    HW112647   9.775   7.100   7.241 -0.2431 -1.5722 -0.9663
35903SOL    HW212648   9.690   7.020   7.337 -0.7121 -0.0872 -0.1047
35904SOL     OW12649  10.020  11.082   4.630  0.2867 -0.3647  0.5598
35904SOL    HW112650   9.937  11.055   4.590  1.1305  0.5599 -1.9971
35904SOL    HW212651  10.014  11.050   4.720 -3.5707  1.1751  1.0513
35905SOL     OW12652   6.944   8.469   0.707 -0.1745  0.2178  0.5233
35905SOL    HW112653   6.952   8.564   0.721  0.5034  0.2393  0.0622
35905SOL    HW212654   6.952   8.431   0.794  0.8371  0.5208  0.5806
35906SOL     OW12655   5.782   5.337   5.558  0.0681  0.1315  0.2632
35906SOL    HW112656   5.872   5.307   5.570 -0.0546  0.6905  3.8979
35906SOL    HW212657   5.734   5.258   5.533  1.2239 -0.6377  0.3843
35907SOL     OW12658  10.223   6.760   0.866  0.9776  0.4019 -0.0428
35907SOL    HW112659  10.246   6.725   0.952  0.4344 -0.2537 -0.1593
35907SOL    HW212660  10.259   6.849   0.866 -1.6261  1.5829  2.0319
35908SOL     OW12661  11.535   3.785   9.585  0.6819 -0.0201  0.1514
35908SOL    HW112662  11.533   3.754   9.675  0.0844  0.8665  0.4532
35908SOL    HW212663  11.526   3.880   9.591 -1.8827 -0.0866 -0.8924
35909SOL     OW12664   2.300   2.531   4.608  0.3146  0.0346  0.2593
35909SOL    HW112665   2.208   2.520   4.633  1.0173 -2.1558  2.1319
35909SOL    HW212666   2.328   2.445   4.577  1.7957  0.6411 -0.2020
35910SOL     OW12667   6.646  10.048  10.307  0.3255 -0.3508  0.9640
35910SOL    HW112668   6.726  10.088  10.341 -0.6112  1.8399  0.7613
35910SOL    HW212669   6.584  10.121  10.300 -1.4283 -1.8339  0.3243
35911SOL     OW12670   4.232   1.408   1.347  0.1390  0.4090  0.4698
35911SOL    HW112671   4.174   1.389   1.420 -1.4478  1.1703 -0.5470
35911SOL    HW212672   4.274   1.491   1.371 -0.7994  0.9489  0.2958
35912SOL     OW12673   8.615   9.440   0.307 -0.0454 -0.1026  0.1043
35912SOL    HW112674   8.686   9.471   0.250  0.2546  0.5138  0.7984
35912SOL    HW212675   8.650   9.361   0.348  0.8021  0.9547  1.5027
35913SOL     OW12676  10.164   6.289   2.896  0.4490 -0.4952 -0.3159
35913SOL    HW112677  10.102   6.360   2.912  0.1449 -0.9935  0.8511
35913SOL    HW212678  10.237   6.307   2.956  0.8959 -0.5463 -0.8406
35914SOL     OW12679   9.135   5.279   0.428 -0.1120  0.4261  0.1576
35914SOL    HW112680   9.170   5.240   0.348  0.8707  1.2553  0.1625
35914SOL    HW212681   9.162   5.370   0.425 -0.2729  0.5372  1.3157
35915SOL     OW12682   2.872   8.740   4.875 -0.0190 -0.0670  0.7603
35915SOL    HW112683   2.815   8.758   4.801  0.9403  0.3801  0.1142
35915SOL    HW212684   2.898   8.826   4.907  2.4666 -0.1892 -0.6870
35916SOL     OW12685   3.753  10.376   7.478 -0.1733  0.4236  0.4787
35916SOL    HW112686   3.835  10.390   7.431 -1.9802  0.5290 -2.9312
35916SOL    HW212687   3.741  10.281   7.478  0.1810  0.3682  1.4857
35917SOL     OW12688   7.657   4.217   2.144  0.1255  0.3982 -0.1325
35917SOL    HW112689   7.691   4.306   2.136  1.3603 -0.1151 -0.9262
35917SOL    HW212690   7.677   4.176   2.060  0.0683 -0.7872  0.4079
35918SOL     OW12691   6.315  10.565   4.823 -0.4520  0.0338 -0.0893
35918SOL    HW112692   6.403  10.536   4.798 -0.9220 -0.6177 -1.0766
35918SOL    HW212693   6.262  10.546   4.746 -1.7823 -1.0445  1.0414
35919SOL     OW12694   4.224   7.822   6.633 -0.3407  0.1022 -0.2977
35919SOL    HW112695   4.264   7.884   6.695 -2.1858  0.5279  0.5578
35919SOL    HW212696   4.281   7.824   6.556  0.6296  1.5067  0.4123
35920SOL     OW12697   6.432  11.667  11.661 -0.3400 -0.3428 -0.2086
35920SOL    HW112698   6.476  11.621  11.732 -1.1320 -1.9233 -0.7051
35920SOL    HW212699   6.350  11.619  11.648 -1.4382  1.4910 -0.4427
35921SOL     OW12700   3.279   7.120   8.932 -0.5880 -0.1379  0.4175
35921SOL    HW112701   3.323   7.041   8.963 -1.0604 -0.7200 -0.3517
35921SOL    HW212702   3.211   7.136   8.998 -2.4585 -2.1285 -0.8561
35922SOL     OW12703   6.086   7.765   6.321 -0.0723 -0.3037 -0.1631
35922SOL    HW112704   6.091   7.776   6.226 -2.1660 -0.5590 -0.3563
35922SOL    HW212705   6.068   7.853   6.354 -0.1188 -0.3471 -0.0743
35923SOL     OW12706   5.105  10.845  11.167  0.0396 -0.0745 -0.2238
35923SOL    HW112707   5.125  10.768  11.221  0.7433  0.4990  0.3429
35923SOL    HW212708   5.175  10.847  11.101 -0.4076 -0.3472 -0.7193
35924SOL     OW12709   4.417  10.543   8.981 -0.0502 -0.1864  0.6276
35924SOL    HW112710   4.329  10.518   9.008 -0.6747  0.7403 -0.4875
35924SOL    HW212711   4.408  10.633   8.949  0.6339 -1.1218 -2.5194
35925SOL     OW12712   1.735  11.566   8.231 -0.1457  0.5657 -0.1236
35925SOL    HW112713   1.769  11.603   8.150 -0.0729 -0.2960 -0.5006
35925SOL    HW212714   1.641  11.588   8.230 -0.4548 -0.6889 -1.1792
35926SOL     OW12715   9.636   3.686   5.573 -0.0684 -0.1460  0.1538
35926SOL    HW112716   9.625   3.594   5.596  1.5376 -1.0497 -2.2538
35926SOL    HW212717   9.549   3.714   5.545 -0.4521 -1.1030  0.3391
35927SOL     OW12718   5.599   7.152   0.138 -0.5183  0.1667 -1.0852
35927SOL    HW112719   5.665   7.092   0.102  1.1842  0.1698  1.7261
35927SOL    HW212720   5.536   7.094   0.181 -0.6491  0.2782 -1.1281
35928SOL     OW12721   2.639   7.458   4.718  0.4060  0.0632  0.4676
35928SOL    HW112722   2.548   7.433   4.734  0.2043  0.3110 -0.2507
35928SOL    HW212723   2.685   7.433   4.798 -0.5168  1.0748  1.3519
35929SOL     OW12724  11.539  10.266   5.795  0.0247 -0.0363 -0.2242
35929SOL    HW112725  11.578  10.287   5.880 -0.2029 -1.3978  0.2457
35929SOL    HW212726  11.495  10.346   5.768  0.0712  0.4049  0.9597
35930SOL     OW12727   0.483  10.431   5.468  0.5973  0.6664 -0.1717
35930SOL    HW112728   0.395  10.468   5.474  0.7252  1.0442 -0.5814
35930SOL    HW212729   0.510  10.446   5.377  1.4686  1.4471  0.1940
35931SOL     OW12730   4.906   4.256   8.323  0.4169 -0.6144  0.2007
35931SOL    HW112731   4.982   4.313   8.338 -0.3828  0.2376  1.1614
35931SOL    HW212732   4.943   4.178   8.283  1.7804 -0.1360  0.4506
35932SOL     OW12733   3.185   7.422   5.963  0.0245  0.3242 -1.0034
35932SOL    HW112734   3.090   7.413   5.958 -0.0918  0.3650  0.6143
35932SOL    HW212735   3.202   7.515   5.951 -0.3691  0.6983  1.0129
35933SOL     OW12736   9.913   1.198   2.316  0.5658 -0.1892  0.0723
35933SOL    HW112737   9.969   1.183   2.239 -0.1019  1.7993 -0.8718
35933SOL    HW212738   9.973   1.191   2.391  1.8089  0.4983 -0.8226
35934SOL     OW12739   7.526   1.422   6.452  0.4725 -0.6480  0.0646
35934SOL    HW112740   7.613   1.455   6.475  0.1890 -0.3110  0.6964
35934SOL    HW212741   7.465   1.480   6.498 -0.1176 -0.2944 -1.1322
35935SOL     OW12742   2.785   7.139   3.690  0.4870  0.3547 -0.4765
35935SOL    HW112743   2.701   7.137   3.737  0.5861 -0.9830 -0.3024
35935SOL    HW212744   2.832   7.063   3.723  1.1286  0.1760 -1.7390
35936SOL     OW12745   5.210  11.232  11.152 -0.0666  0.5843  0.3310
35936SOL    HW112746   5.188  11.178  11.228 -2.3935  1.7634  0.5934
35936SOL    HW212747   5.291  11.277  11.176  0.3580 -0.6064  1.2294
35937SOL     OW12748  10.944   8.534   9.297 -0.4130 -0.4953  0.7013
35937SOL    HW112749  10.957   8.617   9.251 -0.1640 -0.2375  1.2323
35937SOL    HW212750  10.849   8.523   9.299 -0.4547 -0.1243  0.8066
35938SOL     OW12751  11.277   8.070   7.144  0.0747  0.1648 -0.5600
35938SOL    HW112752  11.323   8.134   7.197 -0.4674  0.2150 -0.1378
35938SOL    HW212753  11.199   8.047   7.195 -0.2195 -0.1362 -1.1200
35939SOL     OW12754  10.017   4.975   4.832  0.1806  0.4597  0.0932
35939SOL    HW112755   9.997   4.922   4.755 -1.2916  0.8762  0.1640
35939SOL    HW212756  10.001   4.916   4.906  1.9698 -0.0661  0.1247
35940SOL     OW12757   8.348   3.033   3.877 -0.3651  0.4211 -0.3581
35940SOL    HW112758   8.284   2.963   3.889 -0.0999  0.1448 -0.5732
35940SOL    HW212759   8.428   2.989   3.849  0.5518  0.5226  1.8848
35941SOL     OW12760   9.933   2.239   0.308  0.0757 -0.5239 -0.3930
35941SOL    HW112761  10.003   2.206   0.252  1.5920  0.3123  0.9215
35941SOL    HW212762   9.976   2.304   0.364 -1.7194 -0.1337  0.6033
35942SOL     OW12763  11.645   0.085   9.304 -0.0705 -0.4204  0.2147
35942SOL    HW112764  11.703   0.010   9.310  1.1734  0.5582  1.0447
35942SOL    HW212765  11.682   0.139   9.235 -0.2668 -0.0178  0.4190
35943SOL     OW12766   5.687   2.777  10.326 -0.2906 -0.3261  0.0273
35943SOL    HW112767   5.774   2.739  10.334  1.1349  2.3091 -1.6167
35943SOL    HW212768   5.660   2.756  10.237  0.0890  1.4810 -0.5585
35944SOL     OW12769   9.808  10.107   4.417  0.4072 -0.1467  0.2801
35944SOL    HW112770   9.793  10.018   4.384 -1.7992  0.3651 -0.2263
35944SOL    HW212771   9.839  10.156   4.340 -2.2847  0.4343 -0.5255
35945SOL     OW12772   4.841   9.751   8.977 -0.4713  0.1284  0.1923
35945SOL    HW112773   4.895   9.676   8.954  0.5037  1.0924 -0.7877
35945SOL    HW212774   4.819   9.738   9.069  0.3898 -0.9138  0.2657
35946SOL     OW12775   1.426  10.905   4.722  0.6226  0.0097  0.2448
35946SOL    HW112776   1.495  10.967   4.698  0.7617  0.2663  1.2779
35946SOL    HW212777   1.408  10.923   4.814  0.4520 -1.2768  0.4845
35947SOL     OW12778   1.002  10.861   1.486  0.1058 -0.1828  0.3950
35947SOL    HW112779   0.968  10.950   1.497  1.2812  0.1168  1.8217
35947SOL    HW212780   0.924  10.809   1.468 -0.9115  0.7729  1.7879
35948SOL     OW12781   4.581   0.500   4.278 -0.4116 -0.2776  0.1082
35948SOL    HW112782   4.597   0.504   4.372 -0.4399 -0.8542  0.1375
35948SOL    HW212783   4.597   0.590   4.247 -2.1800  0.3731  0.9539
35949SOL     OW12784   6.856   4.737  10.074 -0.2268  0.2162 -0.2309
35949SOL    HW112785   6.945   4.727  10.107  0.0996 -0.6031 -1.2955
35949SOL    HW212786   6.816   4.802  10.132  1.0281  0.5330  0.3180
35950SOL     OW12787   0.913   1.566   3.017  0.5242 -0.3904  0.4923
35950SOL    HW112788   0.904   1.483   2.970  1.0972  1.0377 -2.3654
35950SOL    HW212789   0.980   1.614   2.969  0.4836  1.6240  2.2739
35951SOL     OW12790  10.624   7.457   8.847 -0.0007 -0.0701 -0.3779
35951SOL    HW112791  10.663   7.489   8.766 -1.1567 -1.5183 -1.5537
35951SOL    HW212792  10.551   7.401   8.819 -0.9457  0.0337  1.6726
35952SOL     OW12793   7.037   5.690  10.063 -0.3907 -0.2657 -0.7017
35952SOL    HW112794   6.980   5.736  10.125  0.7397 -1.0508  1.0058
35952SOL    HW212795   7.126   5.716  10.088  0.1495 -1.4256 -1.2978
35953SOL     OW12796  11.365  11.327   4.531  0.1980  0.4994 -0.0159
35953SOL    HW112797  11.348  11.269   4.605 -0.2588 -0.6216 -0.9641
35953SOL    HW212798  11.393  11.409   4.571  0.9600 -0.3871  1.3847
35954SOL     OW12799   8.858   1.961   5.633  0.1911  0.1139 -0.3219
35954SOL    HW112800   8.799   1.898   5.592 -0.8178  0.5575  0.4242
35954SOL    HW212801   8.802   2.033   5.662  0.8359 -0.1334  1.7668
35955SOL     OW12802   7.030   0.809   3.982 -0.2244 -0.6455 -0.4217
35955SOL    HW112803   6.950   0.858   4.000  0.1405 -0.2394  0.1268
35955SOL    HW212804   7.095   0.876   3.958  0.1086 -0.9103 -0.2801
35956SOL     OW12805   0.220   4.495   1.009 -0.1543  0.2445 -0.4932
35956SOL    HW112806   0.268   4.574   1.035 -1.4811  1.3918 -1.4012
35956SOL    HW212807   0.145   4.527   0.960 -0.3268 -1.6356 -1.5649
35957SOL     OW12808   6.372   4.182   1.144  0.1413 -0.0275 -0.3424
35957SOL    HW112809   6.417   4.098   1.150 -0.7586 -0.5577 -0.8208
35957SOL    HW212810   6.297   4.165   1.088 -0.6182  0.8578  0.3856
35958SOL     OW12811   9.856  10.861   7.187  0.0288  0.3255 -0.4025
35958SOL    HW112812   9.864  10.835   7.278  0.1499  0.4190 -0.3871
35958SOL    HW212813   9.844  10.956   7.190 -1.5611  0.1632 -0.3852
35959SOL     OW12814   6.529   5.107   4.746 -0.2779  0.4053 -0.1289
35959SOL    HW112815   6.553   5.191   4.786 -0.9348 -0.0687  1.3287
35959SOL    HW212816   6.610   5.056   4.747 -0.2367  0.4700  0.4632
35960SOL     OW12817   7.671   1.211   5.540  0.0095 -0.0508 -0.5039
35960SOL    HW112818   7.698   1.139   5.597 -1.7441 -0.7337 -0.4788
35960SOL    HW212819   7.671   1.174   5.452  1.4626  0.6414 -0.8270
35961SOL     OW12820   8.422   1.296   1.247 -0.3145 -0.4003  0.4727
35961SOL    HW112821   8.390   1.206   1.242  0.6225 -0.9122  2.6905
35961SOL    HW212822   8.366   1.338   1.312 -1.6156  1.0911 -1.4762
35962SOL     OW12823   3.970   9.398   4.126  0.3997 -0.0459 -0.6580
35962SOL    HW112824   3.890   9.404   4.075 -0.9839  2.0948  1.5117
35962SOL    HW212825   3.980   9.305   4.144 -0.5959 -0.5393 -2.4260
35963SOL     OW12826  10.279   6.948   9.312 -0.7262  0.0986 -0.4758
35963SOL    HW112827  10.282   7.042   9.333 -3.2832  0.3796 -1.1113
35963SOL    HW212828  10.356   6.934   9.257  0.8287  1.3607  1.2361
35964SOL     OW12829   2.916   8.965   6.907 -0.3054 -0.0204  0.1870
35964SOL    HW112830   3.001   9.004   6.931 -0.9338  0.2224  2.2352
35964SOL    HW212831   2.864   9.038   6.875 -0.7067  0.4394  1.8017
35965SOL     OW12832   4.259   1.372   3.576  0.2787  0.2448 -0.3716
35965SOL    HW112833   4.226   1.462   3.578 -0.8921 -0.1637 -0.6277
35965SOL    HW212834   4.253   1.342   3.667  1.6592  0.7434 -0.0835
35966SOL     OW12835   3.474   9.970   6.156 -0.5220 -0.3350  0.5915
35966SOL    HW112836   3.386  10.005   6.171  0.0052  1.1750  0.3388
35966SOL    HW212837   3.463   9.875   6.161 -1.9877 -0.1559  1.5348
35967SOL     OW12838   2.664   2.525   7.853 -0.4252 -0.3026  1.2511
35967SOL    HW112839   2.732   2.459   7.838 -0.5692 -0.2995  0.5601
35967SOL    HW212840   2.671   2.546   7.946 -0.9657 -1.9303  1.6851
35968SOL     OW12841   3.762   2.942  11.499 -0.1967 -0.3616  0.2703
35968SOL    HW112842   3.823   3.015  11.484 -0.0395 -0.3690  0.8288
35968SOL    HW212843   3.729   2.920  11.412  0.4750 -0.2466 -0.0203
35969SOL     OW12844   8.352   2.578   1.141 -0.5236 -0.4781  0.4217
35969SOL    HW112845   8.344   2.518   1.214 -0.2043 -1.6468 -0.4765
35969SOL    HW212846   8.413   2.645   1.171  0.5033 -1.5720  0.8404
35970SOL     OW12847   4.776   9.624   4.111  0.3474 -0.7280 -0.8459
35970SOL    HW112848   4.718   9.548   4.103 -0.5309 -0.1780  0.0319
35970SOL    HW212849   4.856   9.589   4.152  0.6471 -1.4817 -2.0285
35971SOL     OW12850   7.582   6.994   7.102 -0.7096  0.2935 -0.7118
35971SOL    HW112851   7.606   7.086   7.086  2.1607 -0.3206 -0.4173
35971SOL    HW212852   7.524   6.972   7.029  0.5227  1.6731 -2.1860
35972SOL     OW12853  11.504  11.550   4.583 -0.5919 -0.6225 -0.0231
35972SOL    HW112854  11.460  11.625   4.543 -1.5880 -1.1452  0.0525
35972SOL    HW212855  11.551  11.508   4.510  0.3691  0.3287  0.0276
35973SOL     OW12856   4.345   3.548   7.746  0.6757  0.1737  0.3017
35973SOL    HW112857   4.266   3.526   7.697  1.3330 -1.4167 -0.1223
35973SOL    HW212858   4.408   3.481   7.720  1.9799  1.0580  1.0822
35974SOL     OW12859   7.006   8.356   5.603  0.1531 -0.5297 -0.3541
35974SOL    HW112860   7.077   8.309   5.646 -0.1723 -1.1625 -0.4914
35974SOL    HW212861   6.997   8.437   5.653  1.7290  0.0995 -1.0391
35975SOL     OW12862   6.058   3.400   2.456 -0.1579  0.5232 -0.0551
35975SOL    HW112863   5.988   3.444   2.407 -0.9936 -1.2388 -0.5049
35975SOL    HW212864   6.089   3.331   2.397  0.2527 -0.2991  1.0913
35976SOL     OW12865   4.253   2.036   1.134  0.0143 -0.0399 -0.1263
35976SOL    HW112866   4.344   2.031   1.160  0.5216 -1.0772 -1.9080
35976SOL    HW212867   4.253   2.092   1.056 -0.8330 -0.1894 -0.2473
35977SOL     OW12868   1.815  10.163  10.358 -0.2126  0.0192 -0.1840
35977SOL    HW112869   1.871  10.226  10.405  0.9531  1.7689 -3.5988
35977SOL    HW212870   1.864  10.081  10.362  1.1668  0.7830 -0.5148
35978SOL     OW12871  10.507   7.755   4.565 -0.1025 -0.1170 -0.2869
35978SOL    HW112872  10.588   7.745   4.516 -0.0640 -2.9575  0.1656
35978SOL    HW212873  10.450   7.806   4.507  1.7713  1.5137 -0.8133
35979SOL     OW12874   3.519   3.804   5.153 -0.3700 -0.1293 -0.7036
35979SOL    HW112875   3.429   3.816   5.125 -0.5257  0.1589 -0.1075
35979SOL    HW212876   3.535   3.710   5.141 -1.0739 -0.3669  0.0837
35980SOL     OW12877   6.997   0.925   3.001  0.2166  0.4887 -0.5734
35980SOL    HW112878   6.998   0.894   3.092 -0.2172 -0.8140 -0.9925
35980SOL    HW212879   6.922   0.984   2.997 -1.2298 -1.2582 -0.6192
35981SOL     OW12880   3.117  10.019   7.338  0.5947  0.1722 -0.2056
35981SOL    HW112881   3.110   9.962   7.415 -0.8480 -0.3244 -0.6719
35981SOL    HW212882   3.179  10.087   7.364 -0.3046  0.3521  1.6265
35982SOL     OW12883   1.948   1.088  11.054 -0.4445  0.1296 -0.0747
35982SOL    HW112884   1.907   1.173  11.069 -2.0606 -0.6667  0.1889
35982SOL    HW212885   1.899   1.050  10.982  0.0214 -0.7467  0.0648
35983SOL     OW12886   9.343   1.402   0.925 -0.2055  1.0057  0.0300
35983SOL    HW112887   9.398   1.324   0.928 -2.8499 -1.0080  3.4962
35983SOL    HW212888   9.396   1.470   0.967  1.3071  0.5139 -1.0108
35984SOL     OW12889   3.711   1.879   9.943 -0.1774 -0.4698  0.2820
35984SOL    HW112890   3.700   1.974   9.939  0.2810 -0.4154  0.2533
35984SOL    HW212891   3.747   1.862  10.030  2.7353 -0.2798 -0.7636
35985SOL     OW12892   2.003   9.322   3.026  0.6752 -0.1536  0.3537
35985SOL    HW112893   2.008   9.399   2.969 -1.3958  0.8234  1.3799
35985SOL    HW212894   2.093   9.292   3.034  1.8052  3.0803  1.0917
35986SOL     OW12895   8.998   8.811  11.561 -0.5505  0.3414 -0.3147
35986SOL    HW112896   9.082   8.777  11.530 -0.8742 -0.4157 -0.3840
35986SOL    HW212897   8.944   8.733  11.574 -1.9310  0.8992 -2.2720
35987SOL     OW12898  10.996  11.184   1.358  0.8682 -0.7002 -0.2458
35987SOL    HW112899  10.984  11.187   1.263  0.2182 -1.8819 -0.2106
35987SOL    HW212900  11.048  11.105   1.373  1.9492  0.0803  0.3053
35988SOL     OW12901   1.088   6.788   7.711 -0.3966 -0.2475 -0.0428
35988SOL    HW112902   1.182   6.787   7.727 -0.7315  0.6854  2.2691
35988SOL    HW212903   1.072   6.707   7.662  1.3060 -1.5672  1.4436
35989SOL     OW12904   3.244   7.708   8.725 -0.4343  0.6632 -0.2372
35989SOL    HW112905   3.283   7.695   8.811  0.2132  0.7820 -0.5072
35989SOL    HW212906   3.316   7.692   8.663 -0.8937  0.5582 -0.7569
35990SOL     OW12907   9.410   1.181   9.643  0.4874  0.3327 -0.4478
35990SOL    HW112908   9.407   1.134   9.726  0.1534 -0.7124 -1.0223
35990SOL    HW212909   9.499   1.216   9.638 -0.1235  2.2994  1.3243
35991SOL     OW12910   2.031   5.123   8.119  0.2175  0.6206 -0.3798
35991SOL    HW112911   1.953   5.138   8.066  1.3346 -0.5008 -2.4295
35991SOL    HW212912   1.997   5.084   8.200 -1.3234 -0.3413 -1.4413
35992SOL     OW12913   0.970  11.635   5.983 -0.0568  0.3516  0.1664
35992SOL    HW112914   0.963  11.540   5.993  0.9861  0.1453 -0.9017
35992SOL    HW212915   0.988  11.648   5.890  0.7629  1.5366  0.4673
35993SOL     OW12916   0.030   7.484  11.291 -0.1425  0.3577 -0.3216
35993SOL    HW112917   0.109   7.499  11.344 -0.5758  0.8427  0.2038
35993SOL    HW212918   0.008   7.570  11.256 -0.4723  0.2373 -0.4172
35994SOL     OW12919   0.456   3.070   4.667 -0.0561  0.2037 -0.2009
35994SOL    HW112920   0.510   3.138   4.625 -0.4445  0.2643 -0.6119
35994SOL    HW212921   0.485   3.070   4.758 -1.1820  2.1021  0.2228
35995SOL     OW12922   2.841   6.367   3.531 -0.3032 -0.9761  0.1236
35995SOL    HW112923   2.900   6.380   3.606 -0.4607 -1.4934  0.3474
35995SOL    HW212924   2.758   6.405   3.559 -0.4680 -1.4945  0.3690
35996SOL     OW12925   7.958   4.825   5.766  0.0069  0.2609  0.2662
35996SOL    HW112926   8.010   4.858   5.839  0.4487 -2.8134  1.5076
35996SOL    HW212927   7.873   4.804   5.805  0.2141 -1.3250 -0.0832
35997SOL     OW12928   4.720   3.830   0.474  0.3463  0.1243 -0.1824
35997SOL    HW112929   4.792   3.833   0.537  0.2750  0.9975 -0.1232
35997SOL    HW212930   4.752   3.883   0.400 -0.5098  1.1644  0.1651
35998SOL     OW12931   3.212   4.025   2.956  0.3161  0.6326  0.1428
35998SOL    HW112932   3.118   4.016   2.941  0.2485  0.8236  0.4348
35998SOL    HW212933   3.219   4.065   3.043  0.6777 -0.0212  0.4289
35999SOL     OW12934  10.899  10.964   7.513  0.1081  0.0191  1.0804
35999SOL    HW112935  10.856  10.968   7.599 -0.0694 -0.7518  1.0339
35999SOL    HW212936  10.851  11.026   7.459 -0.2801 -0.0596  1.3292
36000SOL     OW12937   7.418   3.370   4.361 -0.0035 -0.1077 -0.2666
36000SOL    HW112938   7.466   3.411   4.289 -0.8682  0.8684 -0.3102
36000SOL    HW212939   7.398   3.442   4.421  0.6629 -0.8878  0.9553
36001SOL     OW12940   7.899  10.564   6.978  0.5075 -0.5291  0.1708
36001SOL    HW112941   7.845  10.634   7.016 -1.9758 -1.8309 -0.7709
36001SOL    HW212942   7.913  10.503   7.050 -1.4085 -1.3677 -0.1092
36002SOL     OW12943   8.103  10.870   1.808  0.1080 -0.1668 -0.1228
36002SOL    HW112944   8.100  10.831   1.720 -2.0810 -0.4600  0.0268
36002SOL    HW212945   8.041  10.942   1.804  0.8193  0.5360  0.9061
36003SOL     OW12946   5.370   5.906   3.274  0.0707 -0.2416 -0.6726
36003SOL    HW112947   5.292   5.942   3.232  1.7461  0.1192 -3.7917
36003SOL    HW212948   5.413   5.982   3.313 -0.0584 -0.0694 -0.8618
36004SOL     OW12949   1.009   2.190   5.908 -0.0592  0.2825  0.3643
36004SOL    HW112950   0.945   2.259   5.927 -0.4054  0.3715 -1.0070
36004SOL    HW212951   0.958   2.124   5.861  0.9197  0.5607 -1.1555
36005SOL     OW12952  11.147   3.111  10.995  0.5479 -0.1630 -0.0359
36005SOL    HW112953  11.105   3.182  11.043  0.4797 -0.6811  0.6884
36005SOL    HW212954  11.080   3.079  10.934  0.2874 -0.1870  0.2624
36006SOL     OW12955   2.180   3.226  11.052  0.0374 -0.3707  0.0077
36006SOL    HW112956   2.155   3.167  11.123  2.0790  0.6935  1.7113
36006SOL    HW212957   2.097   3.251  11.012 -1.5004  0.8089  3.5175
36007SOL     OW12958   6.223   2.929  10.219  0.2947  0.0024  0.2993
36007SOL    HW112959   6.160   2.862  10.247  0.5190 -0.4591 -0.2774
36007SOL    HW212960   6.184   2.967  10.140  0.0796  0.6946  0.7269
36008SOL     OW12961   2.429   1.899   0.003 -0.4287 -0.6737 -0.2306
36008SOL    HW112962   2.375   1.865   0.075  0.8244  0.5546  1.3959
36008SOL    HW212963   2.511   1.926   0.046  0.3785  0.0997 -2.1416
36009SOL     OW12964   8.719   9.927   6.641 -0.4725 -0.1321 -0.3945
36009SOL    HW112965   8.709   9.833   6.626  1.0962 -0.2242 -1.0622
36009SOL    HW212966   8.740   9.935   6.734  0.5287 -0.5646 -0.5711
36010SOL     OW12967   8.839   3.065   3.652  0.7058 -0.6787  0.4535
36010SOL    HW112968   8.812   3.141   3.600 -0.9569 -1.6957 -0.2584
36010SOL    HW212969   8.890   3.011   3.591  0.1289 -1.1058  0.3446
36011SOL     OW12970   9.516   8.838   5.323  0.4979  0.4269  0.4177
36011SOL    HW112971   9.531   8.766   5.384 -0.5155  1.6430  2.1739
36011SOL    HW212972   9.425   8.827   5.296  0.9549 -0.1417 -1.0065
36012SOL     OW12973   9.916   2.453   1.575  0.3900 -0.3363  0.1756
36012SOL    HW112974   9.992   2.397   1.595 -0.4604 -1.6996 -0.2982
36012SOL    HW212975   9.840   2.399   1.597 -0.4575  0.8204  0.1414
36013SOL     OW12976  10.575   5.481   7.075  0.0507  0.0315  0.3119
36013SOL    HW112977  10.631   5.419   7.121  0.5579 -1.0283 -1.6086
36013SOL    HW212978  10.538   5.431   7.002 -1.5979  1.3213  0.2069
36014SOL     OW12979   8.957   8.233   0.690  0.0939 -0.4164  0.3483
36014SOL    HW112980   8.868   8.200   0.696 -0.3431  0.8088  0.7434
36014SOL    HW212981   8.964   8.269   0.601  0.0859 -0.2084  0.4311
36015SOL     OW12982   3.347   7.144  10.409 -0.2262  0.0049 -0.3273
36015SOL    HW112983   3.386   7.221  10.367  1.5839 -1.5769 -1.7445
36015SOL    HW212984   3.418   7.106  10.460 -0.4487 -1.8602 -1.3335
36016SOL     OW12985   8.859   5.538   7.638 -0.4021  0.1006  0.0624
36016SOL    HW112986   8.904   5.623   7.639 -0.0397 -0.0815 -0.4143
36016SOL    HW212987   8.872   5.503   7.726  0.3081  0.0970 -0.0390
36017SOL     OW12988   4.631   6.186   1.128 -0.6412  0.7349  0.2391
36017SOL    HW112989   4.542   6.152   1.118 -1.0977  1.6910  0.9192
36017SOL    HW212990   4.687   6.108   1.127 -1.5497  0.0692  0.5529
36018SOL     OW12991   9.750   2.774   3.892  0.3162  1.2632 -0.1792
36018SOL    HW112992   9.673   2.810   3.849 -0.9510 -1.1407 -0.0452
36018SOL    HW212993   9.752   2.816   3.978 -1.7933  0.2437  0.4217
36019SOL     OW12994   1.730   3.859   8.846 -0.6681  0.4260 -0.6847
36019SOL    HW112995   1.751   3.938   8.795  1.2801  1.0004  0.9104
36019SOL    HW212996   1.669   3.889   8.913  2.0801  1.2676  1.5834
36020SOL     OW12997   0.058  11.102   0.621  0.7273  0.0048 -0.0458
36020SOL    HW112998   0.025  11.085   0.709 -0.0518 -1.8501 -0.6435
36020SOL    HW212999   0.002  11.173   0.588  0.1700 -0.1762  0.4829
36021SOL     OW13000   9.560   3.346   1.446 -0.0372 -0.1272 -0.0459
36021SOL    HW113001   9.614   3.381   1.517 -0.5780 -2.4922  1.6311
36021SOL    HW213002   9.619   3.290   1.396 -0.3592 -0.7948  0.3205
36022SOL     OW13003   8.086   1.575   5.288  0.2171 -0.4368  0.0201
36022SOL    HW113004   8.060   1.667   5.287 -1.3778 -0.8333 -2.1358
36022SOL    HW213005   8.073   1.547   5.378 -2.4827  0.6348  0.0442
36023SOL     OW13006   9.524   1.366   4.680  0.4197 -0.0892 -0.3880
36023SOL    HW113007   9.438   1.332   4.653 -0.2194  0.3543  0.9831
36023SOL    HW213008   9.560   1.405   4.601 -1.2810  0.9951 -0.6846
36024SOL     OW13009   4.949   0.653   3.760  0.0280  0.1751  0.3378
36024SOL    HW113010   4.971   0.675   3.850 -1.6346  0.6577  0.6407
36024SOL    HW213011   4.898   0.727   3.728 -0.5938 -0.6141 -0.5461
36025SOL     OW13012   7.127   0.314   8.311  0.0292  0.0436  0.3423
36025SOL    HW113013   7.079   0.241   8.272 -1.0164  1.1681 -0.5650
36025SOL    HW213014   7.087   0.392   8.272 -1.0811  1.2778  3.6003
36026SOL     OW13015   5.318   0.147   2.967  0.4338  0.1352 -0.0768
36026SOL    HW113016   5.399   0.098   2.979  0.2071 -0.9793 -2.4626
36026SOL    HW213017   5.315   0.167   2.873 -1.1256  1.8592  0.2670
36027SOL     OW13018   0.611  10.893   8.007 -0.2501 -0.3525 -0.0466
36027SOL    HW113019   0.652  10.829   8.066  1.8221  0.3792 -0.6052
36027SOL    HW213020   0.681  10.955   7.987 -0.4967 -1.1214 -4.1275
36028SOL     OW13021   6.397   2.883   3.579 -0.2957  0.3922 -0.3012
36028SOL    HW113022   6.303   2.873   3.589 -0.4788  2.6376  0.7634
36028SOL    HW213023   6.408   2.968   3.535  1.2330  0.5604  0.3463
36029SOL     OW13024   9.013   8.067   4.261 -0.2582 -0.1632 -0.0762
36029SOL    HW113025   8.988   8.069   4.169 -1.5962  0.2310  0.2706
36029SOL    HW213026   9.108   8.078   4.260 -0.4897  2.5895 -1.3328
36030SOL     OW13027   4.639   1.564   1.875 -0.1958  0.0372  0.5492
36030SOL    HW113028   4.726   1.567   1.915 -0.0132 -0.4352  0.1857
36030SOL    HW213029   4.579   1.563   1.950  0.1092  0.4241  0.7994
36031SOL     OW13030   1.688   3.691   6.105 -0.7797 -0.2726  0.2211
36031SOL    HW113031   1.728   3.733   6.029 -0.4951 -1.4689 -0.3136
36031SOL    HW213032   1.749   3.708   6.176 -0.3111 -0.3796 -0.1478
36032SOL     OW13033   5.457  11.571  10.109  0.5794 -0.0174  0.0592
36032SOL    HW113034   5.363  11.551  10.101  0.4635  0.4136  0.2970
36032SOL    HW213035   5.468  11.651  10.059  1.0612 -0.7172 -0.9903
36033SOL     OW13036   3.790   7.242   8.320  0.4884  0.1640 -0.5004
36033SOL    HW113037   3.726   7.184   8.361  2.8671 -1.9811  0.4358
36033SOL    HW213038   3.819   7.299   8.391 -0.7059  1.5496 -1.0630
36034SOL     OW13039   1.504   5.988   3.828  0.1841  0.1940 -0.1766
36034SOL    HW113040   1.469   6.077   3.819  0.7097  0.5176  0.8187
36034SOL    HW213041   1.579   5.998   3.886 -0.7863 -1.1431  1.4058
36035SOL     OW13042   3.319   0.330   5.016  0.5074 -0.0631 -0.1475
36035SOL    HW113043   3.297   0.403   5.074  0.9603  0.8550 -1.0809
36035SOL    HW213044   3.369   0.371   4.945  1.7693 -1.4612 -0.1088
36036SOL     OW13045   2.158  10.530  10.096 -0.5121  0.2980  0.0808
36036SOL    HW113046   2.150  10.459  10.159 -1.2541  0.5616  0.2948
36036SOL    HW213047   2.072  10.535  10.054  0.6494 -1.6207 -2.8900
36037SOL     OW13048   3.395   5.124   0.501 -0.3174 -0.3771 -0.5179
36037SOL    HW113049   3.410   5.159   0.589  0.1864  2.4201 -1.6317
36037SOL    HW213050   3.467   5.063   0.487 -0.9762 -1.6941  1.3371
36038SOL     OW13051   2.780   4.780  11.110  0.5464  0.6872  0.2210
36038SOL    HW113052   2.684   4.783  11.109  0.5673  1.5465 -0.1669
36038SOL    HW213053   2.804   4.738  11.028  0.4997  0.5800  0.2631
36039SOL     OW13054   5.477   9.316   3.790 -0.3523  0.4407 -0.0158
36039SOL    HW113055   5.487   9.245   3.853 -1.0517  1.3421  1.1443
36039SOL    HW213056   5.485   9.396   3.842 -0.0154  1.2203 -1.2255
36040SOL     OW13057   6.917  11.241   0.956 -0.3045 -0.4897 -0.2906
36040SOL    HW113058   6.963  11.257   0.874  1.6307  0.0742  0.8330
36040SOL    HW213059   6.850  11.177   0.934  0.1367 -0.3386 -2.2998
36041SOL     OW13060   5.043  10.695   4.175 -0.1527 -0.3076  0.0746
36041SOL    HW113061   4.998  10.703   4.091  1.6297 -0.3412 -0.9204
36041SOL    HW213062   4.972  10.684   4.239 -1.5391 -0.3741 -1.4121
36042SOL     OW13063   8.373   5.305   9.516  0.2986 -0.3898 -0.0055
36042SOL    HW113064   8.382   5.397   9.492  0.4035 -0.5516 -0.6079
36042SOL    HW213065   8.389   5.303   9.610 -2.1571  0.5355  0.4828
36043SOL     OW13066  11.358  10.440   7.910  0.0134 -0.5863 -0.7192
36043SOL    HW113067  11.333  10.430   8.001  1.8930  0.3784 -0.0467
36043SOL    HW213068  11.313  10.519   7.880  0.6922  0.0341 -0.1173
36044SOL     OW13069   6.117   8.397   3.801  0.1618  0.2511 -0.6539
36044SOL    HW113070   6.188   8.335   3.815  0.6255  1.1284  1.2119
36044SOL    HW213071   6.126   8.460   3.872 -1.5122  1.3136 -1.3211
36045SOL     OW13072  10.750  11.315   8.487 -0.2710 -0.1191 -0.2492
36045SOL    HW113073  10.792  11.305   8.572 -0.6176 -1.2131 -0.1898
36045SOL    HW213074  10.656  11.312   8.506 -0.3493 -0.9377 -0.7157
36046SOL     OW13075   4.964   7.918   5.379 -0.2315 -0.3577  0.2762
36046SOL    HW113076   5.042   7.972   5.366 -0.2950 -0.5034 -0.7876
36046SOL    HW213077   4.909   7.969   5.438 -0.9598  1.4563 -1.8700
36047SOL     OW13078  10.820   5.093   2.114 -0.5628  0.2371  0.6283
36047SOL    HW113079  10.797   5.179   2.079  0.5743  1.1131  1.9206
36047SOL    HW213080  10.876   5.112   2.189 -0.4708 -1.6405  1.0837
36048SOL     OW13081   0.492   7.714   2.875  0.4556  0.0720  0.3659
36048SOL    HW113082   0.545   7.676   2.805 -1.9137  0.8137 -2.0253
36048SOL    HW213083   0.452   7.791   2.835 -0.4719  0.9352  2.7959
36049SOL     OW13084   9.551  11.670   9.568  0.2571  0.6148  0.8691
36049SOL    HW113085   9.508  11.684   9.484 -0.1200  1.0539  1.1280
36049SOL    HW213086   9.638  11.708   9.557  1.3627 -2.0172 -0.3106
36050SOL     OW13087  11.191   3.299   2.059  0.0876  0.0472  0.3350
36050SOL    HW113088  11.257   3.281   1.991  0.1339  1.6741 -0.0715
36050SOL    HW213089  11.228   3.260   2.139  1.3701  0.5856  0.0269
36051SOL     OW13090  11.195   6.129   2.444  0.1759 -0.2250 -0.8580
36051SOL    HW113091  11.129   6.169   2.387 -0.1570 -0.3695 -0.5788
36051SOL    HW213092  11.157   6.133   2.531  0.6664 -0.0470 -0.6480
36052SOL     OW13093   1.649   1.173  11.644 -0.4132 -0.3736 -0.2288
36052SOL    HW113094   1.744   1.159  11.640 -0.0381  1.8298 -0.0893
36052SOL    HW213095   1.627   1.211  11.558 -0.5689  2.1334  0.8406
36053SOL     OW13096   9.203   2.059   6.211  0.6614  0.1493 -0.8636
36053SOL    HW113097   9.296   2.080   6.210  0.3510  2.2475  2.1919
36053SOL    HW213098   9.198   1.971   6.250  1.3468  1.0011  1.3000
36054SOL     OW13099   2.696   1.943   9.446 -0.5942  0.3967 -0.4365
36054SOL    HW113100   2.649   1.995   9.381 -2.4755 -0.4397  0.1799
36054SOL    HW213101   2.629   1.916   9.509  0.6006 -1.4034  0.1585
36055SOL     OW13102   3.245   8.889   0.853  0.2371 -0.7756 -0.4256
36055SOL    HW113103   3.216   8.798   0.865 -0.5506 -0.4053  0.6478
36055SOL    HW213104   3.324   8.882   0.799  1.0795 -2.2180  0.9109
36056SOL     OW13105  10.306  10.850   9.583 -0.1728  0.3131  0.1144
36056SOL    HW113106  10.396  10.817   9.586 -0.3069 -0.0159  0.7859
36056SOL    HW213107  10.267  10.820   9.666 -0.7249  0.9480  0.0885
36057SOL     OW13108   9.516   7.093   0.232  0.0652 -0.4493  0.4405
36057SOL    HW113109   9.541   7.048   0.313  0.4423  0.7586  1.0260
36057SOL    HW213110   9.435   7.051   0.204  0.3161 -1.3613  1.0525
36058SOL     OW13111   2.559   8.232   7.712 -0.2737 -0.1733  0.6526
36058SOL    HW113112   2.496   8.285   7.663  0.3023  1.0870  1.2325
36058SOL    HW213113   2.566   8.276   7.797  0.5419 -0.9448  0.9951
36059SOL     OW13114   0.453   5.776   6.565 -0.0129 -0.2356 -0.0390
36059SOL    HW113115   0.535   5.789   6.614 -0.2501  0.8821  0.0879
36059SOL    HW213116   0.405   5.712   6.617  0.7185 -0.8111 -0.0448
36060SOL     OW13117   4.788   4.190   7.946 -0.1738  0.3075  0.1500
36060SOL    HW113118   4.698   4.209   7.922 -0.6875 -1.7096  0.2978
36060SOL    HW213119   4.790   4.096   7.961  1.9783  0.2845  0.1171
36061SOL     OW13120   2.949   3.736   3.949 -0.3565 -0.3537  0.0485
36061SOL    HW113121   3.024   3.793   3.960 -1.2295  1.0876 -1.1427
36061SOL    HW213122   2.983   3.648   3.965  1.5323  0.2698 -0.3027
36062SOL     OW13123   1.205   9.805   8.906  0.3274 -0.1437 -0.1686
36062SOL    HW113124   1.235   9.868   8.841  0.9685  1.2819  1.4491
36062SOL    HW213125   1.152   9.743   8.856  2.1351 -0.0830 -2.3380
36063SOL     OW13126   8.795  11.258   0.874  0.0402 -0.7129  0.1023
36063SOL    HW113127   8.822  11.250   0.783 -0.5550  0.1615 -0.1609
36063SOL    HW213128   8.813  11.349   0.896 -0.9388 -0.6079  0.4914
36064SOL     OW13129   3.487   1.898   6.542 -0.6377 -0.0322  0.1796
36064SOL    HW113130   3.578   1.929   6.540 -1.1286  1.5807  0.8908
36064SOL    HW213131   3.467   1.877   6.451  0.2126  0.3388 -0.1050
36065SOL     OW13132   1.324   3.297  10.134 -0.5308  0.5609  0.1784
36065SOL    HW113133   1.297   3.218  10.180 -0.7861  0.8185  0.4689
36065SOL    HW213134   1.419   3.287  10.123 -0.6520 -0.0800 -0.3529
36066SOL     OW13135   4.609   3.185   2.365 -0.4631  1.0441  0.7237
36066SOL    HW113136   4.669   3.172   2.291 -2.4411 -3.3623 -0.4242
36066SOL    HW213137   4.666   3.213   2.436  2.8481 -1.3856 -0.6575
36067SOL     OW13138  10.235   8.040   6.171  0.0334  0.4525 -0.2820
36067SOL    HW113139  10.176   7.984   6.221 -1.1484  0.3618 -1.7052
36067SOL    HW213140  10.196   8.043   6.083  1.1516  1.8939 -0.7639
36068SOL     OW13141   8.400   8.281   4.215  0.1625  0.0563 -0.2362
36068SOL    HW113142   8.331   8.321   4.163  0.9821  0.9063 -0.6974
36068SOL    HW213143   8.424   8.202   4.166 -0.5407 -0.2951 -0.0198
36069SOL     OW13144   4.395   8.288   2.198  0.4787  0.1625  0.6935
36069SOL    HW113145   4.356   8.375   2.203  1.5025  0.6328  0.7084
36069SOL    HW213146   4.325   8.232   2.163  0.4915  1.4489 -1.6155
36070SOL     OW13147   4.918   9.309   5.204 -0.4610  0.2854 -0.2532
36070SOL    HW113148   4.985   9.255   5.162  1.0270  1.5880  0.3223
36070SOL    HW213149   4.916   9.279   5.295 -0.1815  0.6558 -0.1192
36071SOL     OW13150   9.717   5.593   2.972 -0.0391 -0.7888 -0.0230
36071SOL    HW113151   9.725   5.630   2.884 -2.4999  1.6901  0.6246
36071SOL    HW213152   9.744   5.664   3.030 -1.4787 -1.2209  1.2452
36072SOL     OW13153   2.584   8.239   3.780  0.1745 -0.1381  0.7754
36072SOL    HW113154   2.576   8.320   3.831 -0.3010  0.8365 -0.7770
36072SOL    HW213155   2.676   8.216   3.786  0.4066  0.7766  0.8860
36073SOL     OW13156   1.448   1.853   8.584  0.0318  0.3003  0.6772
36073SOL    HW113157   1.495   1.770   8.592  0.9816  0.3667 -2.6629
36073SOL    HW213158   1.514   1.916   8.555 -1.4782  1.0967 -1.2976
36074SOL     OW13159  10.740   9.347  10.319  0.1567  0.1390 -0.2293
36074SOL    HW113160  10.710   9.437  10.336 -1.7767 -0.7381  1.5133
36074SOL    HW213161  10.798   9.327  10.392 -0.3126 -0.3883  0.0018
36075SOL     OW13162  10.213  11.646  10.908 -0.1311  0.2751  0.2382
36075SOL    HW113163  10.296  11.663  10.953 -0.2272 -0.0077  0.5197
36075SOL    HW213164  10.179  11.734  10.886 -1.0212  0.5242  2.4017
36076SOL     OW13165   4.936   6.712  11.285 -0.0681  0.2692  0.1533
36076SOL    HW113166   4.899   6.625  11.295 -0.5534  0.4925  0.3351
36076SOL    HW213167   4.860   6.771  11.284  0.1936  0.6129 -0.9278
36077SOL     OW13168   5.625   7.826   5.752  0.0779 -0.8034 -0.4159
36077SOL    HW113169   5.612   7.731   5.757 -1.3566 -0.6026  0.7564
36077SOL    HW213170   5.679   7.846   5.828  1.1791 -0.7717 -1.1928
36078SOL     OW13171   6.337   7.211   4.137 -0.4639  0.4129 -0.1322
36078SOL    HW113172   6.367   7.122   4.120  0.2369  0.4041  1.0420
36078SOL    HW213173   6.355   7.258   4.055 -0.9066 -0.5290 -0.7866
36079SOL     OW13174   9.886   2.572   9.097  0.1060 -0.3989 -0.7663
36079SOL    HW113175   9.817   2.601   9.158  0.5081 -1.1547  0.0715
36079SOL    HW213176   9.948   2.525   9.153  0.9816 -0.2671 -1.6201
36080SOL     OW13177  10.332   2.908   2.875 -0.7620  0.5353 -0.4271
36080SOL    HW113178  10.405   2.900   2.936 -0.0297  2.0518 -1.0419
36080SOL    HW213179  10.274   2.973   2.915 -0.2690  1.5529 -1.3014
36081SOL     OW13180   4.948   4.816   9.297  0.1461  0.0366  0.1097
36081SOL    HW113181   4.963   4.771   9.380 -0.9925 -0.2344  0.1900
36081SOL    HW213182   4.868   4.867   9.312  0.2740  0.4704 -0.6310
36082SOL     OW13183   5.316   0.940   7.313  0.0768  0.0577  0.3397
36082SOL    HW113184   5.280   1.026   7.292 -0.4005 -0.1921  0.1100
36082SOL    HW213185   5.408   0.945   7.285  0.2048  0.6713  0.8476
36083SOL     OW13186   1.510  10.184   9.196  0.1336  0.6749 -0.0456
36083SOL    HW113187   1.480  10.151   9.111  0.8823  2.4462 -1.0452
36083SOL    HW213188   1.601  10.210   9.180  0.2033  1.2715  1.2379
36084SOL     OW13189  10.012  10.964   1.074 -0.4821  0.6567 -0.4564
36084SOL    HW113190   9.958  11.042   1.087 -1.4310  0.1419 -1.1620
36084SOL    HW213191  10.065  10.984   0.997 -2.0314 -0.0350 -1.7727
36085SOL     OW13192   3.627   8.912   0.344  0.0905  0.5837 -0.4274
36085SOL    HW113193   3.572   8.987   0.321  0.4231  1.2163  0.7448
36085SOL    HW213194   3.693   8.948   0.404 -0.5657 -0.8809  1.2651
36086SOL     OW13195   1.279   8.291  10.212 -0.4937  0.0009 -0.1834
36086SOL    HW113196   1.352   8.337  10.169 -0.1552 -1.6733 -1.5102
36086SOL    HW213197   1.280   8.204  10.174 -3.2424 -0.0811 -0.2750
36087SOL     OW13198   8.137   7.113   7.919  0.0598 -0.3273 -0.1932
36087SOL    HW113199   8.101   7.199   7.938 -0.0508 -0.3849 -0.1449
36087SOL    HW213200   8.232   7.124   7.928 -0.0642 -0.8318  2.3689
36088SOL     OW13201   1.994   9.843   6.059 -0.0245  0.2296  0.0356
36088SOL    HW113202   1.983   9.937   6.043 -1.3090  0.2359  0.7729
36088SOL    HW213203   1.969   9.831   6.150  3.5234 -0.3511  1.0590
36089SOL     OW13204   8.571   4.423  10.248 -0.5420 -0.4899  0.0610
36089SOL    HW113205   8.479   4.403  10.232 -0.0068 -1.7971 -1.7161
36089SOL    HW213206   8.574   4.452  10.339 -2.6324 -0.7831  0.2731
36090SOL     OW13207   7.191  11.616  11.228  0.2356 -0.5527 -0.1093
36090SOL    HW113208   7.140  11.551  11.179 -0.0323 -0.1167 -0.4227
36090SOL    HW213209   7.281  11.602  11.200  0.3102 -1.4254  0.5537
36091SOL     OW13210   6.610   7.808   5.233 -0.4045 -0.1099  0.2931
36091SOL    HW113211   6.673   7.779   5.298 -1.4041  1.1735  1.9131
36091SOL    HW213212   6.655   7.879   5.186  0.5461 -1.4504 -0.9278
36092SOL     OW13213   7.136  11.366   2.542  0.1198  0.0667 -0.2570
36092SOL    HW113214   7.106  11.449   2.580  2.0382  0.8721 -0.3953
36092SOL    HW213215   7.188  11.392   2.466 -0.5740 -1.3723 -1.2830
36093SOL     OW13216   1.501   1.809   1.174  1.0582 -0.1622  0.3244
36093SOL    HW113217   1.530   1.898   1.193 -0.5823  0.5051 -0.1241
36093SOL    HW213218   1.450   1.783   1.251  1.2133 -0.5780  0.2917
36094SOL     OW13219   8.823  10.953   2.621  0.0150 -0.1120 -0.0353
36094SOL    HW113220   8.729  10.966   2.610  0.0836 -0.0993 -0.6083
36094SOL    HW213221   8.863  11.006   2.553  0.3529 -1.8745 -1.2738
36095SOL     OW13222   2.458  10.085   2.594 -0.3443  0.0317  0.0929
36095SOL    HW113223   2.453  10.024   2.668  1.1780 -0.8355 -0.4857
36095SOL    HW213224   2.407  10.161   2.622  0.1363 -0.3136  1.9934
36096SOL     OW13225   3.109   0.202  10.293 -0.1277 -0.1731 -0.1608
36096SOL    HW113226   3.112   0.298  10.293 -1.5015 -0.1172 -0.8169
36096SOL    HW213227   3.201   0.176  10.301  0.3274  1.1930 -0.6110
36097SOL     OW13228   0.747   2.489  10.364 -0.5304  0.1300  0.3365
36097SOL    HW113229   0.840   2.512  10.366 -0.5528  0.2087  0.4794
36097SOL    HW213230   0.703   2.566  10.400 -0.4844 -0.8364  2.5843
36098SOL     OW13231   3.805   4.441   6.831  0.2634 -0.5793 -0.0515
36098SOL    HW113232   3.846   4.490   6.761  2.1765 -0.0956  1.3442
36098SOL    HW213233   3.863   4.452   6.907 -1.3242 -1.6833  1.4182
36099SOL     OW13234   7.502   0.872   5.802  0.1789  0.5087 -0.4308
36099SOL    HW113235   7.545   0.795   5.841  0.1042  0.4811 -0.4029
36099SOL    HW213236   7.457   0.838   5.725 -1.0672  0.2526  0.3843
36100SOL     OW13237   4.959   8.683  11.253  0.1992 -0.2360 -0.2172
36100SOL    HW113238   5.007   8.731  11.321 -0.1426  0.6763 -0.5975
36100SOL    HW213239   4.894   8.632  11.300  0.4435 -0.1764  0.1868
36101SOL     OW13240   8.054  10.826   0.561 -0.4234 -0.1984  0.2974
36101SOL    HW113241   8.053  10.873   0.645 -2.2836 -1.8019  1.2606
36101SOL    HW213242   8.117  10.755   0.575  0.9324  0.8106 -0.4818
36102SOL     OW13243   8.558   3.758   7.681 -0.6277  0.0693  0.0440
36102SOL    HW113244   8.606   3.828   7.636  0.2347 -0.7569 -0.3863
36102SOL    HW213245   8.627   3.701   7.715 -1.3104 -0.4672  0.5467
36103SOL     OW13246   1.841   6.709   1.579 -0.5786  0.0301  0.0340
36103SOL    HW113247   1.821   6.615   1.571  1.9883 -0.4991 -1.0802
36103SOL    HW213248   1.910   6.712   1.646  1.0252  0.8001 -1.5863
36104SOL     OW13249   0.306   3.338  11.562  0.0610  0.2234 -0.2434
36104SOL    HW113250   0.280   3.262  11.510 -0.0492 -0.8688  1.3602
36104SOL    HW213251   0.267   3.323  11.648  1.6529  1.1352  0.6824
36105SOL     OW13252   3.396  10.913   6.284 -0.3068 -0.3765  0.2415
36105SOL    HW113253   3.364  10.872   6.204 -3.7182  0.4459  1.0291
36105SOL    HW213254   3.325  10.971   6.312  0.9786 -0.1427  3.5473
36106SOL     OW13255  11.315   5.397   8.609 -0.3250 -0.0326  0.2312
36106SOL    HW113256  11.382   5.392   8.678  0.7869  0.7311 -0.7524
36106SOL    HW213257  11.311   5.308   8.574  0.4502 -0.0168  0.0730
36107SOL     OW13258   9.971   5.442   0.080  0.0596 -0.4955 -0.6850
36107SOL    HW113259  10.020   5.514   0.038 -0.3350  1.0224  1.3123
36107SOL    HW213260   9.882   5.451   0.046 -0.2540  0.7142  0.3602
36108SOL     OW13261  10.755   7.171  10.152  0.3142 -0.0472 -0.0745
36108SOL    HW113262  10.731   7.178  10.060 -1.0569 -2.5008  0.0213
36108SOL    HW213263  10.848   7.194  10.154  0.3191  0.2905 -2.0008
36109SOL     OW13264   1.940   7.077   3.467  0.0376 -0.2482 -0.5787
36109SOL    HW113265   1.873   7.133   3.506  0.4439 -0.3568  0.3163
36109SOL    HW213266   2.016   7.135   3.458  0.7690 -0.8550  1.2573
36110SOL     OW13267   6.768   7.583   9.948  0.4100  0.2783  0.0125
36110SOL    HW113268   6.675   7.588   9.925  0.5135 -1.1690 -0.8294
36110SOL    HW213269   6.809   7.538   9.874  1.8509  1.1606  0.2386
36111SOL     OW13270   2.163   3.482   7.563 -0.5627 -0.1576 -0.1982
36111SOL    HW113271   2.122   3.509   7.481  1.7013 -1.5273 -1.9127
36111SOL    HW213272   2.254   3.465   7.539  0.4112  0.2713  2.8279
36112SOL     OW13273   9.623   9.494   4.040 -0.6577  0.0765  0.4416
36112SOL    HW113274   9.543   9.519   4.086 -0.3818 -0.2119  1.0826
36112SOL    HW213275   9.692   9.504   4.105 -0.0816  0.8578 -0.2609
36113SOL     OW13276   7.082   4.742  10.945  0.0694  0.5290 -0.3790
36113SOL    HW113277   7.104   4.790  10.866 -2.3965  1.1084 -0.8168
36113SOL    HW213278   7.053   4.809  11.007  2.6944  0.1822  1.3927
36114SOL     OW13279   9.381  11.303  10.731  0.0424 -0.0399 -0.1778
36114SOL    HW113280   9.378  11.325  10.825  2.0687  0.7939 -0.2530
36114SOL    HW213281   9.438  11.370  10.693 -0.9462 -0.2210 -2.0819
36115SOL     OW13282  11.248   3.615   9.370 -0.1295  0.4168 -0.0659
36115SOL    HW113283  11.341   3.591   9.372  0.1902  1.6502  0.7658
36115SOL    HW213284  11.246   3.707   9.399 -1.7352  0.0261  1.2062
36116SOL     OW13285   2.546  10.122   2.917 -0.1552 -0.3393 -0.3335
36116SOL    HW113286   2.587  10.053   2.864  1.0546  1.4106 -1.7983
36116SOL    HW213287   2.472  10.152   2.865 -0.1444  0.0711 -0.1176
36117SOL     OW13288   2.493   3.608   3.583 -0.7160  0.1330  0.4503
36117SOL    HW113289   2.458   3.533   3.535 -1.1516  0.7601 -0.2456
36117SOL    HW213290   2.569   3.574   3.630 -1.1581 -0.8329  0.4895
36118SOL     OW13291   1.305   8.651   3.444  0.1359 -0.3146  0.1145
36118SOL    HW113292   1.338   8.736   3.415  0.1188 -0.5422 -0.6082
36118SOL    HW213293   1.244   8.671   3.515  0.9008  0.1959  0.6358
36119SOL     OW13294   3.641   3.801  10.192  0.1385 -0.0909 -0.7365
36119SOL    HW113295   3.651   3.775  10.100  0.3392  1.2815 -1.1273
36119SOL    HW213296   3.560   3.852  10.193 -1.5849 -2.6049  0.4767
36120SOL     OW13297   6.273   7.281   9.226  0.6605 -0.1211  0.1766
36120SOL    HW113298   6.262   7.368   9.263 -0.2756 -0.0441 -0.2489
36120SOL    HW213299   6.200   7.271   9.165  0.3734 -1.4470  0.6898
36121SOL     OW13300   6.543   5.567   5.821  0.3897 -0.3922 -0.3062
36121SOL    HW113301   6.633   5.556   5.792  1.0658  1.2343  0.9784
36121SOL    HW213302   6.498   5.609   5.747  1.1597  0.4034 -0.3362
36122SOL     OW13303   0.197   6.980   3.716 -0.0946  0.5422 -0.5698
36122SOL    HW113304   0.274   6.923   3.713  0.5275  1.4088 -2.2030
36122SOL    HW213305   0.144   6.952   3.641  1.3146  3.4488 -2.8923
36123SOL     OW13306   7.532  11.687   4.877  0.6436  0.4304 -0.4278
36123SOL    HW113307   7.476  11.635   4.935 -0.0020  1.9858  0.4135
36123SOL    HW213308   7.475  11.712   4.804  0.8743  0.1851 -0.6946
36124SOL     OW13309  10.765   6.134   5.178 -0.6091  0.6181 -0.0077
36124SOL    HW113310  10.712   6.154   5.101  1.4552  0.3760 -1.5909
36124SOL    HW213311  10.773   6.038   5.178  0.9339  0.7109 -0.6534
36125SOL     OW13312   0.670   7.295   4.880 -0.0978  0.9210  0.4857
36125SOL    HW113313   0.577   7.316   4.878 -0.3557  0.2020  2.6735
36125SOL    HW213314   0.680   7.223   4.817 -0.9322  1.2386 -0.0283
36126SOL     OW13315   3.048  10.898   6.977 -0.0616 -0.4409 -0.1087
36126SOL    HW113316   2.967  10.861   7.013  0.7747 -0.9988  1.2815
36126SOL    HW213317   3.019  10.954   6.905 -1.7717  0.1061  0.9404
36127SOL     OW13318  11.123   9.264   2.716 -0.0254  0.0172 -0.0452
36127SOL    HW113319  11.130   9.224   2.803  1.8186  1.1620  0.3796
36127SOL    HW213320  11.131   9.358   2.732 -2.9377  0.5604 -1.1517
36128SOL     OW13321   1.413   9.695  11.448  0.1924 -0.2271  0.0105
36128SOL    HW113322   1.434   9.713  11.356  1.3668  0.1786  0.3395
36128SOL    HW213323   1.330   9.739  11.463 -0.7089 -1.4224 -1.2108
36129SOL     OW13324   3.382   2.524   1.395  0.2027  0.5808  0.8220
36129SOL    HW113325   3.472   2.534   1.366 -0.3401  1.8211 -0.5520
36129SOL    HW213326   3.363   2.606   1.442  0.4352 -0.5687  3.0849
36130SOL     OW13327   0.354  10.513   7.837 -0.2653  0.4946  0.7214
36130SOL    HW113328   0.351  10.567   7.916 -1.3112  1.1992  0.2272
36130SOL    HW213329   0.280  10.544   7.784 -1.2863 -1.8099  0.6830
36131SOL     OW13330   3.163   9.383   9.427 -0.1970  0.2442  0.2781
36131SOL    HW113331   3.208   9.402   9.344  0.9169  0.6605  0.9553
36131SOL    HW213332   3.072   9.369   9.402  0.0507  0.7350 -0.9776
36132SOL     OW13333   4.396   9.371  10.078 -0.7069  0.1514  0.4858
36132SOL    HW113334   4.321   9.421  10.045 -1.0806  0.6792  2.0669
36132SOL    HW213335   4.469   9.399  10.023 -1.1563  1.5589  0.5752
36133SOL     OW13336   0.810   9.218   5.033  0.3443  0.4691  0.1740
36133SOL    HW113337   0.792   9.160   4.958 -1.1172 -2.3258  2.4746
36133SOL    HW213338   0.894   9.187   5.067  0.7693  1.4141  0.0017
36134SOL     OW13339   6.918   2.019   9.280  0.1684  0.3593  0.3933
36134SOL    HW113340   6.927   2.097   9.225 -0.8179  1.3717  1.6265
36134SOL    HW213341   7.002   1.973   9.269 -0.2944  0.0452 -2.6003
36135SOL     OW13342  11.577   5.927   2.255  0.4753  0.3546  0.3432
36135SOL    HW113343  11.596   5.931   2.349  1.2355 -0.7508  0.2638
36135SOL    HW213344  11.482   5.927   2.250  0.4254  0.3515  1.1278
36136SOL     OW13345   5.512   0.377   0.600  0.7090 -0.2518  0.4911
36136SOL    HW113346   5.433   0.412   0.559  1.1983  0.6382  0.2743
36136SOL    HW213347   5.581   0.392   0.535  0.9672 -1.5305  0.4423
36137SOL     OW13348   3.601   9.716   6.412  0.3195  0.2237  0.3159
36137SOL    HW113349   3.568   9.629   6.394  2.2387 -0.7117  1.0452
36137SOL    HW213350   3.561   9.772   6.345 -1.9621 -0.9262  0.6223
36138SOL     OW13351  11.442   8.996   6.382 -0.1542 -0.1993 -0.3483
36138SOL    HW113352  11.422   9.083   6.414  0.9858 -0.3346  0.8437
36138SOL    HW213353  11.430   8.939   6.459 -0.5555 -1.0444 -1.0197
36139SOL     OW13354   3.849   5.431   6.746 -0.6735  0.1890 -0.2039
36139SOL    HW113355   3.858   5.511   6.796  0.6831 -0.8626  1.3328
36139SOL    HW213356   3.910   5.369   6.787 -0.1335 -1.0209 -2.5998
36140SOL     OW13357   7.433   9.180   5.169  0.3233  0.0764  0.0643
36140SOL    HW113358   7.358   9.233   5.197 -0.6799 -0.7520 -0.9687
36140SOL    HW213359   7.421   9.096   5.212  0.8507  0.0422  0.1516
36141SOL     OW13360   0.093   7.998   1.111  0.4179 -0.3601 -0.0504
36141SOL    HW113361   0.058   8.082   1.080  0.5626  0.1066  0.9734
36141SOL    HW213362   0.061   7.933   1.049 -0.6734  0.3082 -0.2080
36142SOL     OW13363   2.542   9.953   9.492 -0.5498 -0.7761 -0.1132
36142SOL    HW113364   2.506  10.040   9.509 -1.9361 -1.7419  2.3846
36142SOL    HW213365   2.490   9.920   9.418 -1.4924 -0.2704  0.2979
36143SOL     OW13366   3.300   6.189   5.798  0.1167 -0.0034  0.3638
36143SOL    HW113367   3.336   6.277   5.786  3.5550 -1.1508  1.0837
36143SOL    HW213368   3.311   6.171   5.891 -0.1672 -1.3479  0.1600
36144SOL     OW13369   0.681   5.636   3.038 -0.1037 -0.3147 -0.2185
36144SOL    HW113370   0.611   5.578   3.071  0.6741 -1.3861 -0.3867
36144SOL    HW213371   0.662   5.721   3.078 -0.8855 -0.8527  0.6116
36145SOL     OW13372   6.314   0.737  11.616 -0.1977 -0.3250 -0.1748
36145SOL    HW113373   6.366   0.689  11.680  0.9048 -0.5400 -1.2034
36145SOL    HW213374   6.365   0.816  11.597  0.3160 -1.0299 -1.9625
36146SOL     OW13375   7.356   5.235   5.204  0.1902 -0.1647  0.5001
36146SOL    HW113376   7.294   5.282   5.148  0.8033 -1.9343 -1.8066
36146SOL    HW213377   7.302   5.200   5.275 -1.0841  0.0169 -0.3477
36147SOL     OW13378   5.330   0.349   7.086  0.5993  0.0230  0.0262
36147SOL    HW113379   5.375   0.430   7.109 -1.6304  1.4029 -0.1719
36147SOL    HW213380   5.335   0.344   6.991  0.7521 -0.0849  0.0399
36148SOL     OW13381   4.832  10.378   5.953  0.6956 -0.0103  0.1307
36148SOL    HW113382   4.753  10.358   5.903  1.5883 -4.1831 -0.0432
36148SOL    HW213383   4.801  10.398   6.041 -0.6165  0.8209 -0.4920
36149SOL     OW13384   3.040   6.266   4.781 -0.3339  0.7436 -0.2383
36149SOL    HW113385   3.010   6.290   4.869 -1.3804  0.5939 -0.5383
36149SOL    HW213386   3.052   6.350   4.737 -0.0321  0.8141 -0.0244
36150SOL     OW13387   2.653   5.027   2.530 -0.4257  0.1917  0.1295
36150SOL    HW113388   2.678   5.004   2.620 -0.2390 -1.3672 -0.2974
36150SOL    HW213389   2.725   4.995   2.476 -0.8407  0.5216 -0.6359
36151SOL     OW13390   7.591   0.858   4.814  0.0117  0.0227  0.1864
36151SOL    HW113391   7.667   0.904   4.778 -0.3219 -1.0656 -2.1427
36151SOL    HW213392   7.516   0.912   4.789 -0.1602 -0.2886  0.0163
36152SOL     OW13393   4.566   4.309   6.294 -0.4061  0.2252 -0.4605
36152SOL    HW113394   4.485   4.332   6.339  0.0834  1.7370 -0.3060
36152SOL    HW213395   4.550   4.331   6.202 -0.9636 -1.6876 -0.8678
36153SOL     OW13396   1.345  11.350   0.038 -0.8450 -0.7769 -0.2710
36153SOL    HW113397   1.367  11.262   0.069  0.1294 -0.2432  0.6173
36153SOL    HW213398   1.249  11.350   0.031 -0.9318 -1.5864  0.7191
36154SOL     OW13399   9.305  11.067   8.018  0.4679 -0.6698 -0.1076
36154SOL    HW113400   9.369  11.132   7.990 -0.1362  0.2968  0.6661
36154SOL    HW213401   9.255  11.047   7.939 -0.0713  0.6772 -0.1345
36155SOL     OW13402   7.501   9.036   5.608  0.3230  0.0205 -0.1242
36155SOL    HW113403   7.569   8.988   5.656 -0.3270 -2.0041 -1.0988
36155SOL    HW213404   7.539   9.122   5.591  2.2235 -0.7009  0.2800
36156SOL     OW13405   6.737   1.321   8.780  0.1183 -0.1322  0.4105
36156SOL    HW113406   6.769   1.243   8.826  0.7287 -0.0564  0.1209
36156SOL    HW213407   6.643   1.305   8.769  0.0959 -0.4712  1.0444
36157SOL     OW13408  10.140  10.662   3.561  0.0200  0.4655  0.6549
36157SOL    HW113409  10.111  10.669   3.652 -0.5698  0.5008  0.4655
36157SOL    HW213410  10.207  10.729   3.552  0.9858 -0.3503  1.4094
36158SOL     OW13411   6.911   2.722   4.278 -0.3943  0.1303  0.2339
36158SOL    HW113412   6.825   2.732   4.317 -0.5272 -0.4676  0.0977
36158SOL    HW213413   6.922   2.628   4.267  1.5745 -0.0966  3.1609
36159SOL     OW13414   8.519   0.542   4.039  0.1673 -0.2482 -0.0317
36159SOL    HW113415   8.576   0.499   4.103 -0.9784 -1.3019  0.3167
36159SOL    HW213416   8.558   0.629   4.028  0.7052 -0.2253  1.7013
36160SOL     OW13417   0.942   2.345   7.254  0.3464  0.8068 -0.3772
36160SOL    HW113418   0.891   2.273   7.218  1.8347  0.0969 -1.1317
36160SOL    HW213419   0.881   2.419   7.255 -0.5394  0.1306 -1.7457
36161SOL     OW13420   2.609   5.611   3.497  0.4638  0.0506 -0.1173
36161SOL    HW113421   2.686   5.616   3.553 -1.2082  1.5605  2.2668
36161SOL    HW213422   2.601   5.699   3.460 -1.0227  0.4675  1.0906
36162SOL     OW13423   7.629   3.395   1.618 -0.2031 -0.1978  0.8511
36162SOL    HW113424   7.705   3.348   1.652 -0.8586 -2.0471 -0.1388
36162SOL    HW213425   7.663   3.439   1.540  0.3375  0.8045  1.6171
36163SOL     OW13426   6.187   8.956   5.581  0.2502  0.0989 -0.1486
36163SOL    HW113427   6.184   9.045   5.547  0.1170  0.0439 -0.2832
36163SOL    HW213428   6.107   8.947   5.632  1.2422  0.7385  1.6025
36164SOL     OW13429  10.487   2.837   6.133  0.2107  0.6150 -0.4646
36164SOL    HW113430  10.554   2.775   6.105 -0.5824  0.5077 -2.1941
36164SOL    HW213431  10.491   2.834   6.229  0.5899 -1.6427 -0.5077
36165SOL     OW13432   2.518   2.399   8.191 -0.2957 -0.3536  0.0665
36165SOL    HW113433   2.516   2.327   8.129  0.2966 -0.3374  0.0201
36165SOL    HW213434   2.535   2.476   8.137  2.6169 -0.6215  0.4381
36166SOL     OW13435   8.684   0.581   2.755 -0.1194 -0.6807  0.1153
36166SOL    HW113436   8.605   0.612   2.710 -0.2983  0.7733  1.3615
36166SOL    HW213437   8.756   0.615   2.701 -0.3060 -1.7740 -0.8698
36167SOL     OW13438   0.144   3.952   5.384  0.7237  0.1907  0.5580
36167SOL    HW113439   0.188   3.996   5.457  0.2061  0.5605  0.6518
36167SOL    HW213440   0.078   4.015   5.355  1.1239  0.1681 -0.4259
36168SOL     OW13441   3.909   5.638   0.260 -0.5254  0.5835  0.7480
36168SOL    HW113442   3.975   5.661   0.195 -0.8223  1.6390  0.7942
36168SOL    HW213443   3.845   5.710   0.255 -2.8936 -1.4713 -0.8789
36169SOL     OW13444   5.827   5.153   3.138 -0.3303 -0.9276  0.3343
36169SOL    HW113445   5.911   5.197   3.125 -0.6875 -0.8165 -2.1347
36169SOL    HW213446   5.846   5.082   3.199  1.1534  0.1049  1.1487
36170SOL     OW13447   6.856  10.610   1.259  0.0787 -0.8522 -0.4504
36170SOL    HW113448   6.948  10.608   1.285 -0.6373  0.1598  2.5098
36170SOL    HW213449   6.840  10.701   1.235  0.1046 -1.2830 -2.2337
36171SOL     OW13450   1.953   7.651   4.491  0.0030  0.2727 -0.6304
36171SOL    HW113451   1.890   7.718   4.518  0.5513  0.9452 -0.9875
36171SOL    HW213452   1.989   7.618   4.573  0.2227  0.9088 -0.4623
36172SOL     OW13453   7.803   0.775   3.903  0.0212 -0.0923  0.2058
36172SOL    HW113454   7.779   0.691   3.943 -0.8557  1.2789  2.8371
36172SOL    HW213455   7.771   0.769   3.813 -0.1777 -2.4743  0.3674
36173SOL     OW13456   4.302   0.605   9.530 -0.9777  0.3405 -0.3150
36173SOL    HW113457   4.215   0.567   9.519 -0.5183 -0.1164 -3.0360
36173SOL    HW213458   4.288   0.699   9.524 -1.3880  0.3403  0.4273
36174SOL     OW13459   3.971   5.765   1.480  0.5650 -0.4558  0.2359
36174SOL    HW113460   3.890   5.793   1.524  1.2792 -0.3130  1.4938
36174SOL    HW213461   4.013   5.706   1.542  2.2772  0.8240  0.3480
36175SOL     OW13462   6.082   6.425   6.248  0.1226  0.0954  0.3280
36175SOL    HW113463   6.117   6.467   6.170 -1.3346  0.9041  0.0748
36175SOL    HW213464   6.156   6.422   6.309  0.6703  1.6234 -0.2222
36176SOL     OW13465   9.366   7.165   0.843  0.3264  0.6493 -0.1405
36176SOL    HW113466   9.284   7.148   0.795  1.3134  0.8461 -2.0054
36176SOL    HW213467   9.366   7.259   0.858 -0.3505  0.4851  0.9946
36177SOL     OW13468   6.432   9.094   8.291  0.4285  0.7932  0.3928
36177SOL    HW113469   6.457   9.112   8.200  0.5880 -3.0283 -0.5078
36177SOL    HW213470   6.351   9.144   8.303 -0.4376  0.2730 -2.4124
36178SOL     OW13471   0.073   0.931   9.599 -0.7968 -0.2659 -0.7365
36178SOL    HW113472   0.138   0.860   9.594 -1.3107 -0.9841  1.6171
36178SOL    HW213473  -0.011   0.886   9.608 -1.0551  0.5292  1.7571
36179SOL     OW13474   2.173  10.675   7.945  0.2066 -0.6356  0.4272
36179SOL    HW113475   2.114  10.673   8.020  1.1883  1.5313  1.3475
36179SOL    HW213476   2.140  10.745   7.889  0.5430 -0.9990 -0.2446
36180SOL     OW13477   0.346   3.015   1.461 -0.8769 -0.2048 -0.3555
36180SOL    HW113478   0.367   2.922   1.449 -2.5493 -1.0242  2.2266
36180SOL    HW213479   0.331   3.024   1.555 -1.1898  2.6206 -0.5955
36181SOL     OW13480   9.617   1.861   1.424  0.2955 -0.5955 -0.0141
36181SOL    HW113481   9.529   1.868   1.462  0.9549 -0.3930  1.5445
36181SOL    HW213482   9.625   1.769   1.400 -0.0537 -0.7873  0.5876
36182SOL     OW13483   0.714   4.852   9.600  0.1768 -0.5790  0.9563
36182SOL    HW113484   0.774   4.808   9.539 -0.8263 -0.6184 -0.0613
36182SOL    HW213485   0.769   4.910   9.651  0.9969 -0.1029 -0.4078
36183SOL     OW13486   3.605  11.591  10.427 -0.2592 -0.4178 -0.1392
36183SOL    HW113487   3.677  11.609  10.366  1.6312  0.2059  2.1510
36183SOL    HW213488   3.602  11.668  10.484 -1.6321 -1.1781  0.8671
36184SOL     OW13489   0.382   1.072  10.950 -0.2062  0.4069  0.0535
36184SOL    HW113490   0.319   1.123  11.001 -0.2390  1.5003 -1.0368
36184SOL    HW213491   0.460   1.126  10.948  0.5674 -0.6266  0.7863
36185SOL     OW13492   1.783   4.088   6.684  0.0665 -0.6711  0.2890
36185SOL    HW113493   1.861   4.040   6.712 -0.3823 -2.1301 -0.7944
36185SOL    HW213494   1.711   4.029   6.704 -0.7380  0.4819  0.8843
36186SOL     OW13495  11.123   5.973  10.140  0.2830 -0.2321 -0.0454
36186SOL    HW113496  11.208   6.016  10.134  0.2738 -0.3048 -0.8778
36186SOL    HW213497  11.079   6.016  10.213 -0.5253  2.6699 -2.0608
36187SOL     OW13498   0.676   4.271   8.731 -0.4045  0.2071  0.0854
36187SOL    HW113499   0.686   4.284   8.637  0.5830 -0.7019  0.0471
36187SOL    HW213500   0.737   4.333   8.770 -0.3311  0.1215  0.1064
36188SOL     OW13501   6.936   8.928   0.241  0.2646 -0.3781 -0.2909
36188SOL    HW113502   6.967   9.004   0.192  0.5439 -0.1123  0.2959
36188SOL    HW213503   6.875   8.964   0.305 -0.7989 -0.8211 -1.0146
36189SOL     OW13504   2.850  11.661   2.613 -0.5526  0.0396 -0.0502
36189SOL    HW113505   2.758  11.648   2.591 -0.9075  2.4428 -0.2544
36189SOL    HW213506   2.854  11.649   2.708 -1.3367  1.1670  0.1344
36190SOL     OW13507  11.688   8.844  10.216  0.3359 -0.0999  0.2429
36190SOL    HW113508  11.702   8.927  10.261  2.2265 -1.3437  2.0980
36190SOL    HW213509  11.639   8.791  10.278 -2.0739 -0.0288 -1.4456
36191SOL     OW13510   1.773   3.664   0.848 -0.4599  0.1870  0.5453
36191SOL    HW113511   1.795   3.611   0.925  0.2395 -1.7483 -0.8854
36191SOL    HW213512   1.857   3.687   0.810 -0.7170  2.9993  1.4540
36192SOL     OW13513   7.778   0.081   8.518  0.1880 -0.7664 -0.2455
36192SOL    HW113514   7.776   0.029   8.598  0.3948 -0.6032 -0.1333
36192SOL    HW213515   7.871   0.098   8.502  0.0635  1.0731  0.7119
36193SOL     OW13516   4.629   5.106   4.352  0.3375  0.1221 -0.1433
36193SOL    HW113517   4.618   5.179   4.291  0.2602 -1.6918 -2.4688
36193SOL    HW213518   4.546   5.103   4.401 -0.2783  0.6586 -1.1156
36194SOL     OW13519   1.895   2.987  10.313 -0.2837  0.2306  0.1474
36194SOL    HW113520   1.965   2.923  10.326 -0.1689  0.5924  1.4396
36194SOL    HW213521   1.938   3.072  10.321 -0.2736  0.5403 -2.3966
36195SOL     OW13522   6.199   4.165   9.878 -0.1522 -0.2038  0.2630
36195SOL    HW113523   6.182   4.221   9.953 -0.7606  0.1244 -0.1149
36195SOL    HW213524   6.200   4.076   9.914  0.0181 -0.0129  0.7299
36196SOL     OW13525   8.400   3.463   7.398  0.0878 -0.4330  0.2678
36196SOL    HW113526   8.482   3.466   7.446 -0.8348 -0.1947  1.8983
36196SOL    HW213527   8.381   3.555   7.377 -0.2206 -0.3858  0.7331
36197SOL     OW13528   8.564   5.267   6.155  0.0160  0.1251 -0.0866
36197SOL    HW113529   8.590   5.346   6.202 -1.8823  1.5400 -1.2868
36197SOL    HW213530   8.508   5.220   6.217 -2.1434  1.7734 -0.6927
36198SOL     OW13531  10.791  10.097  11.467 -0.4093 -0.0964  0.2478
36198SOL    HW113532  10.723  10.165  11.465  0.8625  1.2387 -0.5547
36198SOL    HW213533  10.872  10.144  11.443  0.4761 -1.9608 -0.6373
36199SOL     OW13534   7.130   9.362   5.498  0.1135  0.5324  0.1079
36199SOL    HW113535   7.040   9.385   5.521 -0.5442  0.2587 -1.9663
36199SOL    HW213536   7.174   9.447   5.488 -0.1015  0.6888  0.4846
36200SOL     OW13537   8.171  11.368   2.590 -0.5465  0.0790  0.5974
36200SOL    HW113538   8.140  11.283   2.558  1.4576 -0.2827 -0.5605
36200SOL    HW213539   8.092  11.422   2.594 -1.3850 -0.7440 -2.2320
36201SOL     OW13540   3.992  10.298   5.406 -0.5809 -0.7840 -0.3478
36201SOL    HW113541   4.033  10.343   5.333 -1.9323  2.1777  0.5555
36201SOL    HW213542   4.062  10.286   5.470 -0.0915 -0.4402 -0.8134
36202SOL     OW13543   9.024   0.626   9.335 -0.2238  0.4344 -0.1421
36202SOL    HW113544   8.932   0.644   9.355 -0.5431 -0.6892 -0.5810
36202SOL    HW213545   9.071   0.657   9.413 -1.0833 -0.0628  0.5974
36203SOL     OW13546   4.829   2.762   2.248  0.5915 -0.2217 -0.0975
36203SOL    HW113547   4.753   2.705   2.235  1.3050 -1.3494  0.4785
36203SOL    HW213548   4.847   2.756   2.342  0.6500  1.0214 -0.0186
36204SOL     OW13549   6.914   1.370  10.102 -0.3347  0.1655  0.7605
36204SOL    HW113550   6.896   1.366  10.008 -0.7458 -0.7630  0.8668
36204SOL    HW213551   6.837   1.413  10.140 -1.2973 -1.5904  0.9251
36205SOL     OW13552   2.164   8.057  10.344 -0.0132  0.2119  0.0552
36205SOL    HW113553   2.235   8.051  10.281  1.5390  3.1579  1.3542
36205SOL    HW213554   2.090   8.090  10.294  0.5684  0.4482 -0.6605
36206SOL     OW13555   2.035   0.372   5.938 -0.3651  0.0716  0.0788
36206SOL    HW113556   2.122   0.356   5.901 -0.3965 -0.2100  0.1247
36206SOL    HW213557   2.037   0.327   6.023 -0.3125  0.6618  0.3970
36207SOL     OW13558   9.174  10.949   0.327  0.0530 -0.1069  0.1485
36207SOL    HW113559   9.176  11.022   0.390  1.7062 -1.1949  1.4318
36207SOL    HW213560   9.251  10.963   0.272  0.0321 -0.5389  0.0076
36208SOL     OW13561   9.941   4.543   9.090 -0.3072 -0.7499 -0.0113
36208SOL    HW113562   9.885   4.617   9.114  3.6823  1.7585  2.6731
36208SOL    HW213563   9.903   4.469   9.138 -2.0248  0.4883  0.6810
36209SOL     OW13564   3.924   4.970   7.689  0.2555 -0.2434  0.0535
36209SOL    HW113565   3.956   4.893   7.642  0.0957 -0.3628  0.1380
36209SOL    HW213566   3.965   4.963   7.776 -0.5325 -0.7669  0.3940
36210SOL     OW13567   7.263   3.865   9.394 -0.0691  0.4519 -0.2817
36210SOL    HW113568   7.171   3.890   9.392 -0.6229 -1.4582 -0.6308
36210SOL    HW213569   7.290   3.866   9.302 -0.3315 -0.8967 -0.3964
36211SOL     OW13570   7.462   9.673   9.663 -0.0937 -0.1115  0.1972
36211SOL    HW113571   7.459   9.582   9.694  0.3359 -0.8373 -1.7587
36211SOL    HW213572   7.551   9.702   9.681 -0.7745  0.6780  2.6868
36212SOL     OW13573   7.919  10.245   7.108 -0.2169 -0.0650 -0.1773
36212SOL    HW113574   7.878  10.227   7.024 -0.0688  0.3464 -0.3401
36212SOL    HW213575   7.846  10.243   7.171 -0.5352  0.8847 -0.4976
36213SOL     OW13576   9.764  11.252   7.740 -0.1908 -0.1907  0.2251
36213SOL    HW113577   9.760  11.166   7.697 -3.0105 -0.3277  0.5744
36213SOL    HW213578   9.701  11.305   7.693  0.2915  1.1891  1.0820
36214SOL     OW13579   1.657   9.462  10.798  0.0196 -0.0186  0.1256
36214SOL    HW113580   1.725   9.398  10.817 -1.0348 -1.3505 -0.4476
36214SOL    HW213581   1.578   9.410  10.784 -0.3507  1.1505 -2.8589
36215SOL     OW13582   6.453   6.555   0.012  0.3067 -0.2561 -0.0810
36215SOL    HW113583   6.360   6.535   0.023  0.2303 -0.3176 -0.8153
36215SOL    HW213584   6.464   6.641   0.053  0.1892 -0.7831  1.1097
36216SOL     OW13585   0.427   8.817   5.292  0.6184 -0.4041  0.2774
36216SOL    HW113586   0.362   8.843   5.227 -0.8547  0.2450  1.9184
36216SOL    HW213587   0.492   8.887   5.291  1.6977 -1.3505 -1.8047
36217SOL     OW13588   9.434   7.624   9.582  0.3796 -0.6793  0.3223
36217SOL    HW113589   9.468   7.541   9.615  0.4540 -2.2748 -3.3588
36217SOL    HW213590   9.345   7.628   9.615  0.6756 -1.7421  1.3199
36218SOL     OW13591   3.295   9.155   6.072 -0.3014 -0.0890 -0.4438
36218SOL    HW113592   3.294   9.068   6.032  3.6214 -0.6631  0.2379
36218SOL    HW213593   3.279   9.139   6.165  1.3239 -0.2962 -0.1671
36219SOL     OW13594   6.460  10.663   3.424 -0.3755 -0.4023  0.1359
36219SOL    HW113595   6.516  10.677   3.348  0.9643  0.5200  1.2409
36219SOL    HW213596   6.403  10.741   3.426 -0.1739 -0.2585  0.2729
36220SOL     OW13597   5.327   4.512   9.491 -0.4157 -0.2194  0.2547
36220SOL    HW113598   5.402   4.464   9.526 -1.0319 -0.8867  0.7037
36220SOL    HW213599   5.365   4.589   9.449  0.5595 -0.7866  0.0525
36221SOL     OW13600  11.684   6.343   5.963  0.2581  1.0473  0.2792
36221SOL    HW113601  11.612   6.396   5.996  0.4112  1.4458 -0.0180
36221SOL    HW213602  11.702   6.281   6.034  0.1936  1.5070  0.7089
36222SOL     OW13603   2.387   6.289   2.069  0.2320 -0.7183  0.1300
36222SOL    HW113604   2.383   6.282   1.973  0.5240 -2.1831  0.1964
36222SOL    HW213605   2.468   6.244   2.092  0.6233  0.4006  1.0270
36223SOL     OW13606   6.660   7.403   1.562 -0.1296 -0.1927  0.5084
36223SOL    HW113607   6.655   7.312   1.534  1.4058 -0.3127  0.5527
36223SOL    HW213608   6.627   7.402   1.652  1.9013 -1.1206  1.2960
36224SOL     OW13609   1.316   4.934  10.803 -0.0945  0.1122 -0.3661
36224SOL    HW113610   1.410   4.950  10.816 -0.0692 -2.0399  3.4423
36224SOL    HW213611   1.279   4.935  10.891 -3.1833 -1.7735 -1.4804
36225SOL     OW13612   7.968   9.757  10.253  0.7790  0.4285 -0.2354
36225SOL    HW113613   7.900   9.822  10.235 -0.0124 -0.3795 -0.2704
36225SOL    HW213614   8.003   9.781  10.339 -0.3730  0.1984  0.3272
36226SOL     OW13615   8.705   8.490   3.694  0.7367  0.1389 -0.2850
36226SOL    HW113616   8.650   8.499   3.772 -0.7965  0.1934 -1.3248
36226SOL    HW213617   8.794   8.489   3.728  0.1666  1.1208  1.3991
36227SOL     OW13618  10.297   1.923   2.883  0.2829 -0.0710 -0.3279
36227SOL    HW113619  10.296   1.870   2.803 -0.4411 -1.0773  0.3284
36227SOL    HW213620  10.236   1.994   2.866 -0.2576 -0.5681 -0.4833
36228SOL     OW13621   0.227   8.066   7.218 -0.4216  0.3853  0.0970
36228SOL    HW113622   0.235   8.081   7.124 -1.1237  0.4979  0.0470
36228SOL    HW213623   0.135   8.043   7.230 -0.3945  0.6283  0.7903
36229SOL     OW13624  11.044   2.220   3.545  0.1292 -0.1259 -0.3177
36229SOL    HW113625  11.046   2.275   3.466  0.6569  1.8060  0.9799
36229SOL    HW213626  10.951   2.213   3.567 -0.0671 -1.0478 -1.2922
36230SOL     OW13627   1.359   6.347   8.494 -0.5296 -0.4161  0.7801
36230SOL    HW113628   1.436   6.394   8.461 -0.6509 -0.8638 -0.1767
36230SOL    HW213629   1.387   6.255   8.499 -1.4317 -0.8271 -1.0180
36231SOL     OW13630   5.043   2.186   0.972 -0.2392 -0.3427  0.0861
36231SOL    HW113631   5.071   2.276   0.987 -0.5105 -0.3506  0.6701
36231SOL    HW213632   4.955   2.194   0.936 -0.8862 -0.3887  1.5556
36232SOL     OW13633   5.730   3.541  11.286 -0.0766  0.0864 -0.0052
36232SOL    HW113634   5.704   3.583  11.203 -1.6001  1.6845  1.1988
36232SOL    HW213635   5.704   3.450  11.275 -1.0011  0.4457 -1.0147
36233SOL     OW13636   2.999  10.205  11.346 -0.3891  0.4678  0.1717
36233SOL    HW113637   3.014  10.267  11.417  1.6509  1.2669 -0.8682
36233SOL    HW213638   2.909  10.223  11.317  0.1772  3.1086 -0.1849
36234SOL     OW13639   6.944   1.983   8.895 -0.3570  0.0502 -0.2763
36234SOL    HW113640   7.028   1.999   8.853 -0.4606 -0.6440 -0.7665
36234SOL    HW213641   6.953   1.898   8.938 -0.2772  0.7094  1.0802
36235SOL     OW13642   0.587   4.470   0.112 -0.2959 -0.5029  0.5458
36235SOL    HW113643   0.576   4.563   0.128 -0.0195 -0.2815 -0.4892
36235SOL    HW213644   0.519   4.428   0.166 -0.5059  0.2965  0.9120
36236SOL     OW13645   2.543   6.156  10.263 -0.2061  0.3822 -0.2038
36236SOL    HW113646   2.542   6.246  10.296 -1.1960  0.1352  0.4897
36236SOL    HW213647   2.626   6.120  10.292 -0.9749  0.2080  2.0036
36237SOL     OW13648   8.028   7.945   5.687 -0.0587  0.0915 -0.5251
36237SOL    HW113649   7.952   7.891   5.707 -0.6055  0.9695 -0.2063
36237SOL    HW213650   8.043   7.932   5.593  0.4670 -1.4157 -0.2664
36238SOL     OW13651   4.701  10.937   5.365 -0.9002 -0.3727  0.2739
36238SOL    HW113652   4.728  10.908   5.452  1.5823 -1.4589 -0.7565
36238SOL    HW213653   4.755  11.014   5.347 -0.0548 -1.2089 -0.9481
36239SOL     OW13654   1.372   2.755   0.873  0.8176 -0.2166  0.0983
36239SOL    HW113655   1.361   2.738   0.780  1.2589 -0.4234  0.0840
36239SOL    HW213656   1.313   2.693   0.916 -1.1796  1.4384 -0.1023
36240SOL     OW13657   8.228   2.027   5.787  0.0458 -0.5699 -0.1197
36240SOL    HW113658   8.257   1.966   5.720 -0.4392 -1.8192  0.7758
36240SOL    HW213659   8.140   2.053   5.761  0.3230 -0.0758 -0.5992
36241SOL     OW13660   3.036  11.276  10.643  0.4831  0.7946  0.2417
36241SOL    HW113661   2.972  11.285  10.573  0.4316 -1.7881 -0.1397
36241SOL    HW213662   3.109  11.229  10.603  0.7539 -0.1133  1.7335
36242SOL     OW13663   7.149   1.553   6.435 -0.1937 -0.1538 -0.1790
36242SOL    HW113664   7.222   1.506   6.474  0.8323  2.0541  0.7243
36242SOL    HW213665   7.076   1.538   6.495  0.6775  1.0470  1.2532
36243SOL     OW13666   5.304   0.569   6.194  0.0785 -0.1862  0.7780
36243SOL    HW113667   5.211   0.566   6.170  0.6045  1.3273 -1.7712
36243SOL    HW213668   5.343   0.494   6.149  0.2770 -0.1691  0.9223
36244SOL     OW13669   9.450   3.872   1.364 -0.3377 -0.5759 -0.7925
36244SOL    HW113670   9.492   3.867   1.278 -0.8378 -2.1200 -0.9914
36244SOL    HW213671   9.357   3.872   1.345 -0.5022 -2.5364 -0.2643
36245SOL     OW13672   4.913   1.803   5.353  0.2394  0.2761  0.0318
36245SOL    HW113673   4.880   1.784   5.441  2.1369 -0.4295  0.6581
36245SOL    HW213674   4.996   1.755   5.349  0.0475  0.0601 -2.2642
36246SOL     OW13675   5.903   2.063  11.129  0.0543 -0.4040  0.1919
36246SOL    HW113676   5.820   2.082  11.085  0.3179  0.5257  0.0583
36246SOL    HW213677   5.924   1.973  11.104 -0.2132 -0.1735 -0.9210
36247SOL     OW13678   3.105   2.794   9.510  0.1908  0.1539 -0.1972
36247SOL    HW113679   3.127   2.837   9.593  0.0631 -0.9961  0.4543
36247SOL    HW213680   3.013   2.770   9.519 -0.0422  0.7128 -1.0007
36248SOL     OW13681   8.901   7.817   5.193 -0.3862 -0.4006  0.6146
36248SOL    HW113682   8.952   7.767   5.129 -0.6694 -0.6884  0.6132
36248SOL    HW213683   8.846   7.874   5.140 -0.0558 -0.0802  0.6166
36249SOL     OW13684   6.268   4.620   1.612 -0.0935  0.0800 -0.0375
36249SOL    HW113685   6.179   4.599   1.583 -0.3437  1.8122 -0.6383
36249SOL    HW213686   6.256   4.688   1.678  0.7986  0.7422 -0.5439
36250SOL     OW13687   8.721   2.566   6.798  0.2867 -0.1012 -0.4371
36250SOL    HW113688   8.772   2.518   6.733 -1.1172 -1.1225 -0.8507
36250SOL    HW213689   8.715   2.655   6.764 -1.7315 -0.9473 -2.6228
36251SOL     OW13690  10.964   8.021   4.307  0.2702  0.1686 -0.5004
36251SOL    HW113691  10.912   7.952   4.348  0.1666  1.4813  1.7689
36251SOL    HW213692  10.905   8.063   4.245  0.0651 -1.1805 -1.2477
36252SOL     OW13693   6.583   2.245   4.030 -0.0239  0.3419  0.5886
36252SOL    HW113694   6.665   2.226   3.986  1.5702  1.9788  2.6480
36252SOL    HW213695   6.567   2.169   4.086  0.1691  0.0803  0.2871
36253SOL     OW13696   3.714   2.269  10.190 -0.5378  0.2168  0.3066
36253SOL    HW113697   3.783   2.333  10.172  0.5326 -0.5831  1.3936
36253SOL    HW213698   3.705   2.221  10.107 -0.4083  0.8875 -0.1044
36254SOL     OW13699   8.982   1.772   2.558  0.2490 -0.6094  0.3408
36254SOL    HW113700   8.981   1.830   2.482  0.2594 -0.0055  0.7905
36254SOL    HW213701   8.906   1.715   2.546  0.6618 -0.9961 -0.4795
36255SOL     OW13702  10.373   6.953   1.785 -0.5610  0.1046  0.3917
36255SOL    HW113703  10.366   7.017   1.715 -0.9075  1.2494  1.4469
36255SOL    HW213704  10.301   6.892   1.770 -0.6952  0.4032 -0.1806
36256SOL     OW13705   5.317   9.764   4.307  0.0171 -0.1376 -0.3227
36256SOL    HW113706   5.383   9.766   4.237 -0.1847 -0.3266 -0.5189
36256SOL    HW213707   5.233   9.771   4.262 -0.1550 -1.1182 -0.1675
36257SOL     OW13708  11.144   2.959   2.829  0.2631 -0.3304 -0.0850
36257SOL    HW113709  11.153   3.042   2.783 -0.3871  0.0561  0.4787
36257SOL    HW213710  11.234   2.935   2.853  0.6663 -0.7000 -1.7917
36258SOL     OW13711   0.850   4.584   5.216  0.2115  0.3685  0.2189
36258SOL    HW113712   0.863   4.508   5.159  0.0955 -0.9457  1.8615
36258SOL    HW213713   0.755   4.586   5.231 -0.3780  3.2624 -2.9091
36259SOL     OW13714   5.390   5.644   4.467  0.3308  0.0851  0.7564
36259SOL    HW113715   5.331   5.717   4.487  1.2468  0.6906  1.3019
36259SOL    HW213716   5.336   5.566   4.479 -0.4461  0.6417  0.9618
36260SOL     OW13717   5.500   6.856   9.163  0.1561 -0.1297 -0.5990
36260SOL    HW113718   5.441   6.807   9.219  0.5826  0.2193  0.1682
36260SOL    HW213719   5.578   6.870   9.217  0.4340  0.5118 -1.1599
36261SOL     OW13720   1.938   2.336   8.161  0.5289 -0.2778 -0.1446
36261SOL    HW113721   1.933   2.327   8.256 -0.5123 -2.0969 -0.3204
36261SOL    HW213722   2.024   2.301   8.138  1.3018  1.3224  0.2044
36262SOL     OW13723   3.818   6.027   4.533 -0.5238  0.3977  0.5202
36262SOL    HW113724   3.908   6.010   4.503 -1.1647  0.8199 -1.8566
36262SOL    HW213725   3.787   5.942   4.565 -0.5715 -0.8618 -2.4660
36263SOL     OW13726  11.507  11.468   5.876  0.1487 -0.3660  0.3519
36263SOL    HW113727  11.413  11.488   5.874  0.2789  0.1754 -0.8390
36263SOL    HW213728  11.548  11.540   5.829  1.2871 -0.0427  1.7488
36264SOL     OW13729   3.040   3.757   0.262 -0.5041  0.7083  0.0668
36264SOL    HW113730   3.094   3.727   0.335  0.6307  2.3136 -0.0846
36264SOL    HW213731   3.100   3.760   0.188 -0.9880  1.7361 -0.2927
36265SOL     OW13732   3.201   4.304   8.660  0.0834 -0.4452  0.2168
36265SOL    HW113733   3.185   4.211   8.646 -0.6128 -0.1257 -1.3093
36265SOL    HW213734   3.115   4.344   8.655  0.3990  0.3105  0.6856
36266SOL     OW13735   8.647  10.213   5.387 -0.1512  0.6580  0.0347
36266SOL    HW113736   8.574  10.162   5.350 -0.0007 -0.4265  1.1808
36266SOL    HW213737   8.637  10.300   5.347 -1.4764  0.2545 -0.5973
36267SOL     OW13738   5.154   8.597   8.243  0.3621  0.6825  0.2229
36267SOL    HW113739   5.244   8.568   8.260  0.4046  0.5556 -0.2018
36267SOL    HW213740   5.134   8.562   8.156 -0.3284  0.1532  0.5884
36268SOL     OW13741  10.840   7.536   5.903 -0.2381  0.0089  0.3052
36268SOL    HW113742  10.785   7.604   5.865  0.5280 -0.1724 -1.1994
36268SOL    HW213743  10.780   7.486   5.960 -1.4960  0.1610 -0.8303
36269SOL     OW13744   5.785   2.138   4.828 -0.1890  0.4168 -0.4828
36269SOL    HW113745   5.783   2.229   4.796 -0.9925 -0.0527 -1.8707
36269SOL    HW213746   5.694   2.119   4.852 -0.6086 -0.8341 -2.7679
36270SOL     OW13747   0.171   8.828   5.494 -0.7508 -0.0469 -0.4967
36270SOL    HW113748   0.247   8.854   5.546 -1.5120 -0.1157  0.6868
36270SOL    HW213749   0.207   8.802   5.410  0.5033  0.2224 -0.0591
36271SOL     OW13750   6.696   9.750   9.074  0.3037 -0.4379 -0.1407
36271SOL    HW113751   6.603   9.728   9.079  0.2668 -0.2347  0.0885
36271SOL    HW213752   6.709   9.816   9.143  0.7918 -1.0755  0.3810
36272SOL     OW13753   0.488   6.928   7.047 -0.2802 -0.1255 -0.2994
36272SOL    HW113754   0.583   6.921   7.054 -0.4533 -0.7967  2.7514
36272SOL    HW213755   0.458   6.838   7.040 -0.7662 -0.1878  1.8602
36273SOL     OW13756   5.254   1.425   3.620  0.4714  0.1189 -0.4842
36273SOL    HW113757   5.261   1.376   3.538  3.9560  0.3883 -0.5312
36273SOL    HW213758   5.344   1.426   3.654 -0.7574  0.2366  3.2482
36274SOL     OW13759   5.628   4.330   6.123  0.1322 -0.1943  0.1535
36274SOL    HW113760   5.612   4.240   6.095  2.5861 -0.5227 -0.4044
36274SOL    HW213761   5.592   4.384   6.053  0.9440 -0.8478 -0.7967
36275SOL     OW13762   2.030   4.488   2.763  0.1229  0.4713  0.6386
36275SOL    HW113763   1.993   4.531   2.840  2.3430 -0.6166  2.4147
36275SOL    HW213764   2.082   4.415   2.798  1.7096  0.2922 -1.8271
36276SOL     OW13765   6.452   1.823   1.370  0.1160  0.7481 -0.2057
36276SOL    HW113766   6.452   1.790   1.280  2.1570 -1.5484  0.5080
36276SOL    HW213767   6.379   1.778   1.412  0.2791  0.3747 -0.3079
36277SOL     OW13768  10.723  10.374  11.453 -0.6998 -0.1429  0.4042
36277SOL    HW113769  10.721  10.466  11.480 -2.6852 -0.1309  0.3531
36277SOL    HW213770  10.744  10.377  11.360  1.8080  0.0624  0.9080
36278SOL     OW13771   0.944   4.926   1.567  0.4876  0.4908 -0.0718
36278SOL    HW113772   0.981   4.874   1.638  0.3689  1.6120  0.8366
36278SOL    HW213773   0.916   4.861   1.502 -1.6798 -0.7677  1.9611
36279SOL     OW13774   0.708   8.701   5.394 -0.0825  0.0200 -0.2268
36279SOL    HW113775   0.631   8.738   5.351  0.4997  0.1708 -1.1624
36279SOL    HW213776   0.768   8.774   5.404  0.5934 -0.4061 -1.0113
36280SOL     OW13777   0.323   9.530   5.164  0.1193 -0.4017  0.1314
36280SOL    HW113778   0.294   9.616   5.135 -1.2598 -0.3041  1.6435
36280SOL    HW213779   0.242   9.481   5.179  0.8704 -2.3523 -1.6723
36281SOL     OW13780   6.149  10.273  10.828  0.5622  0.3060 -0.1142
36281SOL    HW113781   6.224  10.304  10.777  0.3370 -0.6468 -1.0531
36281SOL    HW213782   6.110  10.353  10.864  0.9885  0.9624 -1.0629
36282SOL     OW13783   0.944   9.621   1.669  0.1398  0.2812 -0.1554
36282SOL    HW113784   0.926   9.597   1.578 -1.7332 -1.6343  0.6223
36282SOL    HW213785   0.924   9.541   1.718  0.3435  1.5026  2.0086
36283SOL     OW13786   0.371   6.733   7.871 -0.3772  0.2881 -0.5346
36283SOL    HW113787   0.368   6.638   7.884 -1.8546  0.4955  1.0692
36283SOL    HW213788   0.456   6.759   7.906  0.3070 -0.4892 -1.5575
36284SOL     OW13789   1.371   9.180  11.557  0.1781  0.1223  0.9491
36284SOL    HW113790   1.276   9.184  11.568  0.2323  0.7264  1.1919
36284SOL    HW213791   1.406   9.179  11.646  0.4689  1.6171  0.8676
36285SOL     OW13792   6.385   2.332   0.914  0.7203  0.2932  0.3972
36285SOL    HW113793   6.431   2.412   0.940  1.2607  0.3291 -0.6579
36285SOL    HW213794   6.304   2.363   0.873  1.1260  0.3208 -0.3952
36286SOL     OW13795   7.898   7.045   5.707  1.2272 -0.4041 -0.5215
36286SOL    HW113796   7.899   6.979   5.638  0.8048 -0.9121 -0.0594
36286SOL    HW213797   7.807   7.073   5.712  1.4614  0.4453 -0.9206
36287SOL     OW13798   5.162   3.183   4.628  0.4085  0.3924  0.0398
36287SOL    HW113799   5.074   3.182   4.590 -0.0109  0.2976  0.9948
36287SOL    HW213800   5.201   3.264   4.595  0.3532 -0.0704 -1.2307
36288SOL     OW13801   6.512   7.308   3.551 -0.6477 -0.3704 -0.1917
36288SOL    HW113802   6.485   7.229   3.596  0.3463 -0.7044 -0.1554
36288SOL    HW213803   6.491   7.379   3.611  0.5441 -0.7986  0.7604
36289SOL     OW13804   4.952   7.245   1.538 -0.8065 -0.6839  0.0166
36289SOL    HW113805   5.031   7.217   1.584 -0.9791 -0.6179  0.3572
36289SOL    HW213806   4.888   7.260   1.607 -0.6597  0.7730 -0.1275
36290SOL     OW13807   3.785   3.675   9.637  0.1964  0.1481 -0.4599
36290SOL    HW113808   3.791   3.753   9.583  0.5744  0.3847 -0.0764
36290SOL    HW213809   3.861   3.679   9.694 -1.4857  1.2226  1.8630
36291SOL     OW13810   2.373  11.177   0.149 -0.0266  0.2794  0.4860
36291SOL    HW113811   2.391  11.216   0.235  0.0479  2.9385 -0.6242
36291SOL    HW213812   2.311  11.238   0.108  2.4581  1.0218 -2.5729
36292SOL     OW13813   8.287  11.661   0.928  0.7712 -0.0943 -0.4698
36292SOL    HW113814   8.322  11.593   0.870 -0.3571 -2.2167  1.1695
36292SOL    HW213815   8.316  11.636   1.015  0.7694  1.8851  0.1411
36293SOL     OW13816   6.334  11.508  11.356  0.1574  0.9185 -0.7534
36293SOL    HW113817   6.258  11.525  11.301 -0.0576  1.7362 -0.2321
36293SOL    HW213818   6.296  11.483  11.441  0.4817  0.1109 -0.8361
36294SOL     OW13819   5.051   0.730   5.492 -0.8359 -0.8395  0.1811
36294SOL    HW113820   4.997   0.808   5.507  1.0438  0.1934  2.0947
36294SOL    HW213821   5.121   0.762   5.434 -1.0298 -1.5794 -0.4678
36295SOL     OW13822   8.523  11.655  11.464 -0.3111  0.6290  0.0949
36295SOL    HW113823   8.596  11.716  11.474  1.4963 -1.1062 -1.6930
36295SOL    HW213824   8.547  11.579  11.518 -1.6927  0.7156  0.8969
36296SOL     OW13825   3.571   2.506  10.604  1.0107  0.2495  0.2089
36296SOL    HW113826   3.512   2.484  10.532  1.8281 -2.4210  0.2309
36296SOL    HW213827   3.657   2.515  10.563  0.9213  2.5137  0.3996
36297SOL     OW13828   2.165   4.138   4.091  0.8744 -0.2094 -0.0594
36297SOL    HW113829   2.143   4.044   4.092 -0.9494  0.1409 -1.5097
36297SOL    HW213830   2.117   4.175   4.165  0.9621 -0.3015  0.0436
36298SOL     OW13831   4.647   7.978   4.432 -0.3281  0.1375 -0.1278
36298SOL    HW113832   4.614   7.948   4.347 -0.0127 -1.2104  0.1926
36298SOL    HW213833   4.702   7.906   4.462  1.0764  1.3850  0.3764
36299SOL     OW13834  10.935   4.600   1.812  0.2961  0.1423 -0.1842
36299SOL    HW113835  10.958   4.659   1.884  1.1483  0.0552 -0.3798
36299SOL    HW213836  10.863   4.548   1.847  1.3842 -0.6277  1.0135
36300SOL     OW13837   7.950   0.431   3.439  0.3284  0.1371 -0.1894
36300SOL    HW113838   7.999   0.404   3.361  1.3258 -0.0541  0.4756
36300SOL    HW213839   7.948   0.526   3.435  0.3963  0.1280 -0.4449
36301SOL     OW13840  10.581   7.668  10.373  0.0672  0.3051 -0.0796
36301SOL    HW113841  10.489   7.657  10.399 -0.4169  0.2782 -1.6884
36301SOL    HW213842  10.611   7.579  10.356  0.9385  0.1318  2.0080
36302SOL     OW13843   6.101   7.682  11.239 -0.0819 -0.0781 -0.5627
36302SOL    HW113844   6.043   7.616  11.276 -0.3415  0.8579  0.7810
36302SOL    HW213845   6.054   7.765  11.251  1.8213  0.8264  1.3589
36303SOL     OW13846   4.338   4.742   3.074  0.2116 -0.1856 -0.0253
36303SOL    HW113847   4.281   4.704   3.141 -1.4118  0.3603 -1.0428
36303SOL    HW213848   4.346   4.834   3.098 -0.4251  0.0256 -0.5843
36304SOL     OW13849   2.373   4.855   8.626 -0.1681  0.4203 -0.6618
36304SOL    HW113850   2.309   4.923   8.647 -1.6691 -1.2197  0.3484
36304SOL    HW213851   2.449   4.877   8.680 -0.4440  1.5173 -0.6858
36305SOL     OW13852   0.551   0.073   2.418  0.1499 -0.1690  0.1170
36305SOL    HW113853   0.499  -0.008   2.429  0.1248 -0.3168 -0.9650
36305SOL    HW213854   0.630   0.057   2.469 -0.3501 -0.4050  0.8560
36306SOL     OW13855   4.615  10.757   8.841  0.0701 -0.1767 -0.4828
36306SOL    HW113856   4.707  10.783   8.845 -0.2281  0.7529  0.8278
36306SOL    HW213857   4.598  10.744   8.747  0.8358  2.2307 -1.0253
36307SOL     OW13858  11.313   1.642   4.876 -0.0582 -0.1934  0.0709
36307SOL    HW113859  11.266   1.721   4.848  1.2445  0.9480  0.9423
36307SOL    HW213860  11.392   1.641   4.823  0.0431 -0.7979  0.2288
36308SOL     OW13861   4.930   6.489  10.703 -0.5124 -0.5188 -0.8083
36308SOL    HW113862   4.858   6.548  10.726 -0.5206 -0.2602 -1.4676
36308SOL    HW213863   4.886   6.407  10.677 -0.5017 -0.8206  0.0951
36309SOL     OW13864   5.463   4.012   4.940 -0.1852  0.1680  0.0197
36309SOL    HW113865   5.532   3.993   5.003 -0.8141 -1.7422  0.1809
36309SOL    HW213866   5.494   3.974   4.858 -0.2372  0.9453 -0.3704
36310SOL     OW13867  10.683   7.743   0.326 -0.0105 -0.0051 -0.1184
36310SOL    HW113868  10.700   7.836   0.340  0.1843 -0.0312 -0.1825
36310SOL    HW213869  10.770   7.703   0.320 -0.0915 -0.3028  0.6368
36311SOL     OW13870   7.024   0.694   3.717  0.3287  0.2038 -0.0186
36311SOL    HW113871   7.039   0.705   3.811  1.6099 -0.0291 -0.1747
36311SOL    HW213872   7.040   0.601   3.701 -1.3305 -0.0604 -0.2355
36312SOL     OW13873   0.435   0.981   8.340  0.4166 -0.5812 -0.4190
36312SOL    HW113874   0.454   1.019   8.425  1.9077  1.0483 -1.4153
36312SOL    HW213875   0.343   0.955   8.345 -0.1266  1.4110  0.9685
36313SOL     OW13876   0.759   5.860   0.195 -0.8213  0.3504 -0.0200
36313SOL    HW113877   0.687   5.806   0.226 -0.6018 -0.4237 -0.8264
36313SOL    HW213878   0.790   5.907   0.273 -0.8843 -0.8390  0.7311
36314SOL     OW13879   4.467   4.893   6.313  0.0166  0.5134 -0.4480
36314SOL    HW113880   4.547   4.844   6.331  0.1745  1.6060  2.3474
36314SOL    HW213881   4.403   4.827   6.287  1.5082 -0.4935 -1.7665
36315SOL     OW13882   7.643   3.646   0.064 -0.6054  0.1731  0.2624
36315SOL    HW113883   7.681   3.680  -0.017  0.5937 -1.4495  0.0984
36315SOL    HW213884   7.572   3.590   0.035 -0.8558  0.4196  0.3967
36316SOL     OW13885   2.492   8.873   8.638  0.3048 -0.0644 -0.2614
36316SOL    HW113886   2.514   8.781   8.651  0.3611 -0.1076 -0.6445
36316SOL    HW213887   2.460   8.903   8.723 -1.5764 -0.9568 -0.6033
36317SOL     OW13888   9.296   1.093   0.832 -0.0015  0.2186 -0.1211
36317SOL    HW113889   9.335   1.054   0.753 -0.7058 -0.9478  0.0988
36317SOL    HW213890   9.229   1.152   0.798  1.0443  1.2594 -0.4529
36318SOL     OW13891   7.892   9.239   6.219  0.8285 -0.1656 -0.3345
36318SOL    HW113892   7.866   9.164   6.272  2.5234 -0.1504  0.5966
36318SOL    HW213893   7.846   9.313   6.258  1.4641 -0.2779  0.6466
36319SOL     OW13894   0.277  10.868   7.116  0.5370 -0.3238 -0.2183
36319SOL    HW113895   0.327  10.825   7.186  0.3654  0.8628  0.6702
36319SOL    HW213896   0.339  10.927   7.074  0.4241 -0.4192 -0.5235
36320SOL     OW13897   5.769   6.763   1.951  0.2517  0.4566  0.0669
36320SOL    HW113898   5.694   6.707   1.936  0.7895 -0.4997  0.8333
36320SOL    HW213899   5.845   6.707   1.937  0.8264  1.2610 -0.1517
36321SOL     OW13900   6.745   3.710   1.421  1.0479  0.1713  0.2501
36321SOL    HW113901   6.803   3.785   1.410  0.3703  0.9710  1.7636
36321SOL    HW213902   6.713   3.717   1.511 -0.3750 -0.9685 -0.1171
36322SOL     OW13903   6.375   1.183   2.427 -0.1352 -0.3363  1.0382
36322SOL    HW113904   6.300   1.132   2.398 -1.5888  2.0271  0.3178
36322SOL    HW213905   6.451   1.127   2.410 -1.6248 -2.3413  0.6632
36323SOL     OW13906   2.138   1.155   1.044  0.1964 -0.4052 -0.0663
36323SOL    HW113907   2.065   1.211   1.018  1.2116  0.6008 -0.8530
36323SOL    HW213908   2.118   1.130   1.134 -0.0512  1.6752  0.5152
36324SOL     OW13909   3.457  10.292   1.873  0.2294  0.2847 -0.5160
36324SOL    HW113910   3.488  10.202   1.870  0.3625  0.3193 -0.1663
36324SOL    HW213911   3.499  10.330   1.950 -2.6037 -0.3740  1.5253
36325SOL     OW13912   1.545   1.667   7.255 -0.1688 -0.0932  0.2216
36325SOL    HW113913   1.541   1.760   7.233 -1.6997 -0.5873 -1.9612
36325SOL    HW213914   1.624   1.635   7.211  0.5583  0.1981  1.2715
36326SOL     OW13915  10.146   7.910   8.268  0.3476  0.0763 -0.1114
36326SOL    HW113916  10.109   7.996   8.290 -0.2772  0.1093 -1.2209
36326SOL    HW213917  10.183   7.922   8.180 -3.5014 -1.8107 -2.2717
36327SOL     OW13918   5.570   6.008   0.387  0.6301 -0.0810 -0.3925
36327SOL    HW113919   5.512   6.034   0.315  0.4051  0.2216 -0.1065
36327SOL    HW213920   5.592   6.090   0.431  0.3700 -0.3053  0.1770
36328SOL     OW13921   1.171   0.568   9.616  0.1886 -0.0093  0.0724
36328SOL    HW113922   1.235   0.564   9.545  0.1154 -0.0858  0.0111
36328SOL    HW213923   1.087   0.546   9.575  0.4592 -2.3105  0.5814
36329SOL     OW13924  11.485   4.585   6.349 -0.6062 -0.4868 -0.0945
36329SOL    HW113925  11.416   4.521   6.366 -2.0951  1.4897  1.8212
36329SOL    HW213926  11.533   4.591   6.432 -2.6654  3.2183  1.0687
36330SOL     OW13927   8.450   0.820   0.378 -0.1884 -0.2474 -0.2238
36330SOL    HW113928   8.452   0.854   0.289 -1.1393 -0.2857 -0.2800
36330SOL    HW213929   8.533   0.848   0.417  0.8866 -1.4752 -1.5467
36331SOL     OW13930   3.809   8.083   0.631 -0.3649  0.0222  0.3639
36331SOL    HW113931   3.726   8.122   0.604 -0.1783 -0.1679 -0.5074
36331SOL    HW213932   3.801   8.073   0.726 -1.3252  0.0223  0.2904
36332SOL     OW13933   7.754   9.978   2.135 -0.2429  0.4069 -0.0256
36332SOL    HW113934   7.690   9.929   2.188 -2.1582  0.9917 -1.6619
36332SOL    HW213935   7.757   9.929   2.052  1.5098  0.3800  0.0284
36333SOL     OW13936   0.985   0.557   8.425  0.1324  0.4141 -0.0335
36333SOL    HW113937   1.026   0.619   8.485  0.4922 -0.0795  0.2360
36333SOL    HW213938   0.908   0.604   8.391  0.5327  1.0921 -0.0201
36334SOL     OW13939  10.518  11.040   0.205 -0.3667 -0.2729  0.0788
36334SOL    HW113940  10.545  10.979   0.137 -0.6731  0.3327 -0.6050
36334SOL    HW213941  10.519  10.989   0.285  1.5386 -0.6206 -0.1062
36335SOL     OW13942   7.509   9.414   7.415 -0.1512 -0.5031 -0.5045
36335SOL    HW113943   7.418   9.386   7.430 -0.0858 -0.6053 -0.2877
36335SOL    HW213944   7.529   9.384   7.327 -0.3913 -0.3124 -0.6240
36336SOL     OW13945  11.070  11.212   0.502  0.1667 -1.0327  0.6809
36336SOL    HW113946  11.101  11.130   0.539  0.8873 -0.1048  2.2582
36336SOL    HW213947  11.149  11.263   0.485 -0.2851 -0.4706  0.1801
36337SOL     OW13948   1.617   1.183   4.943 -0.5879 -0.4685  0.5058
36337SOL    HW113949   1.626   1.090   4.963  0.7859 -0.2686  0.8738
36337SOL    HW213950   1.583   1.185   4.853 -1.5195 -1.3112  0.8146
36338SOL     OW13951   2.431  11.264   2.079 -0.1909  0.2927  0.5591
36338SOL    HW113952   2.492  11.335   2.058 -2.7613  2.4144 -0.3616
36338SOL    HW213953   2.369  11.303   2.141 -0.4047 -1.8977  1.8281
36339SOL     OW13954   3.511   8.290   9.918 -0.0026  0.0378  0.2148
36339SOL    HW113955   3.548   8.327   9.998 -0.1184  0.6341 -0.0020
36339SOL    HW213956   3.577   8.228   9.888 -0.0906 -0.4164  0.9297
36340SOL     OW13957   5.818   5.591   6.225  0.6847  0.2000  0.5630
36340SOL    HW113958   5.749   5.623   6.284 -1.3646 -2.1016 -0.4059
36340SOL    HW213959   5.869   5.531   6.278  0.6063  0.2850  0.7350
36341SOL     OW13960   8.364   9.311   3.511  0.2641  0.0016 -0.1474
36341SOL    HW113961   8.426   9.279   3.577 -0.6570  0.3716  0.9431
36341SOL    HW213962   8.345   9.235   3.457 -1.2817 -1.1773  1.9109
36342SOL     OW13963   0.586   3.207   3.997 -0.2375 -0.4135  0.1559
36342SOL    HW113964   0.523   3.135   3.996 -0.5869 -0.1106  0.3531
36342SOL    HW213965   0.593   3.234   3.905  0.8120 -1.4851 -0.1095
36343SOL     OW13966   2.685  11.304   4.057  0.1834 -0.1934 -0.4096
36343SOL    HW113967   2.719  11.345   4.137  0.3959  0.9496 -1.0736
36343SOL    HW213968   2.603  11.264   4.085 -0.3219  1.1677  0.1586
36344SOL     OW13969   9.448   7.608   1.333  0.1974  0.2406 -0.2827
36344SOL    HW113970   9.353   7.600   1.336  0.1894  0.1630 -0.6622
36344SOL    HW213971   9.463   7.696   1.297  0.2713  0.4177  0.1758
36345SOL     OW13972   7.418   1.815   6.236  0.0493 -0.1309 -0.1019
36345SOL    HW113973   7.513   1.805   6.229  0.3076  1.2370  1.0191
36345SOL    HW213974   7.398   1.890   6.180 -0.0419  0.8962  1.2470
36346SOL     OW13975   9.170   7.618  11.345 -0.2099  0.3145 -0.2150
36346SOL    HW113976   9.094   7.560  11.352  0.6325 -0.7854  0.2162
36346SOL    HW213977   9.242   7.567  11.383  0.5431  1.7088  0.2798
36347SOL     OW13978   2.141   6.184   0.088  0.2642 -0.0862  0.2127
36347SOL    HW113979   2.228   6.224   0.096  0.0886  1.1651 -2.8023
36347SOL    HW213980   2.083   6.243   0.134  0.7836  0.0093  0.7568
36348SOL     OW13981   6.097   1.814   6.403  0.0613  0.3064  0.5634
36348SOL    HW113982   6.004   1.792   6.407  0.2870 -2.2280 -3.0931
36348SOL    HW213983   6.104   1.880   6.334  1.0046  0.4126  0.7391
36349SOL     OW13984   9.587   7.621   7.532 -0.4858  0.2659  0.0517
36349SOL    HW113985   9.658   7.556   7.536 -1.9653 -1.4185  0.4481
36349SOL    HW213986   9.632   7.705   7.524  1.6413 -0.4847  2.5961
36350SOL     OW13987   4.565   1.515   1.164 -0.0977  0.3905 -0.1982
36350SOL    HW113988   4.506   1.566   1.220 -1.2756 -0.1059 -0.9620
36350SOL    HW213989   4.583   1.436   1.214  0.4575  0.8210  0.3080
36351SOL     OW13990   2.205   9.191   2.217  0.4164 -0.2878 -0.2087
36351SOL    HW113991   2.151   9.248   2.272  1.7570 -0.7780  1.7222
36351SOL    HW213992   2.295   9.205   2.247  1.1986 -0.7652 -2.1559
36352SOL     OW13993  11.316   8.274   1.450  0.3277  0.1530 -0.0246
36352SOL    HW113994  11.362   8.305   1.528 -1.6354 -1.0181  1.7305
36352SOL    HW213995  11.383   8.230   1.398  1.5008 -0.0080  1.5523
36353SOL     OW13996   8.402  10.268  10.847 -0.1444  0.3522  0.9331
36353SOL    HW113997   8.351  10.349  10.846 -0.0114  0.4454 -0.2090
36353SOL    HW213998   8.470  10.282  10.781 -0.7848 -1.0825 -0.0831
36354SOL     OW13999  11.177   3.460  10.239  0.6721  0.0985 -0.1547
36354SOL    HW114000  11.227   3.423  10.312 -0.6454 -0.8244  0.3098
36354SOL    HW214001  11.129   3.532  10.278  1.7300  1.1048 -0.6445
36355SOL     OW14002   4.940   0.907  10.780  0.1392 -0.2159  0.6503
36355SOL    HW114003   4.994   0.859  10.717 -1.7678 -0.1929 -1.1283
36355SOL    HW214004   5.003   0.950  10.838  1.9592 -4.1557  1.9063
36356SOL     OW14005   4.960   7.941   6.251  0.5278  0.2441 -0.1148
36356SOL    HW114006   5.000   7.945   6.164  0.2226  0.9659 -0.2310
36356SOL    HW214007   4.974   8.029   6.288  0.9517 -0.1526  0.7026
36357SOL     OW14008   8.860   9.921   3.745  0.5936 -0.3387  0.5120
36357SOL    HW114009   8.859   9.941   3.838  0.3482 -0.2178  0.4819
36357SOL    HW214010   8.787   9.971   3.708  3.0693  2.9528 -0.4227
36358SOL     OW14011  11.327  10.624  11.153  0.0309  0.1652 -0.2867
36358SOL    HW114012  11.403  10.665  11.194 -0.9722  1.5192  0.3025
36358SOL    HW214013  11.287  10.694  11.101 -0.2851 -0.7877 -1.3663
36359SOL     OW14014   4.680   7.223  10.003  0.2938  0.6329  0.4001
36359SOL    HW114015   4.610   7.219   9.938 -1.6745 -0.1460  2.4276
36359SOL    HW214016   4.697   7.316  10.015 -1.7443  0.9642  1.1507
36360SOL     OW14017   8.220   3.394   5.057  0.2195 -0.1360  0.0811
36360SOL    HW114018   8.256   3.410   5.144 -0.2657  0.5121  0.1704
36360SOL    HW214019   8.162   3.319   5.069  3.0291 -2.5748 -0.4801
36361SOL     OW14020   4.670  10.512   9.093 -0.0665 -0.0579 -0.2359
36361SOL    HW114021   4.580  10.511   9.060 -0.5174 -0.6929  0.9622
36361SOL    HW214022   4.714  10.578   9.040 -1.2916  0.4168 -0.6919
36362SOL     OW14023  11.354   2.709   4.636  0.4752 -0.2189  0.2414
36362SOL    HW114024  11.346   2.750   4.723 -1.6781  0.3345 -0.1361
36362SOL    HW214025  11.341   2.616   4.653  0.9264 -0.2187  0.6109
36363SOL     OW14026   7.584   5.556   7.586  0.2450  0.0130  0.3763
36363SOL    HW114027   7.504   5.511   7.557  0.8167 -0.7967  0.0015
36363SOL    HW214028   7.629   5.580   7.505  2.6515 -3.6839  0.3500
36364SOL     OW14029   9.212   2.379   1.748 -0.3556  0.1041  0.0404
36364SOL    HW114030   9.288   2.430   1.775  0.7561 -1.3385 -0.2885
36364SOL    HW214031   9.235   2.289   1.768 -0.8277 -0.6762 -2.6030
36365SOL     OW14032   6.692   7.850   6.626  0.2846 -0.4094 -0.1050
36365SOL    HW114033   6.751   7.920   6.653 -0.5804  0.0441  0.6956
36365SOL    HW214034   6.687   7.792   6.703 -1.1250  0.1381  0.2417
36366SOL     OW14035   5.988   1.766   0.559  0.4941  0.5637  0.2523
36366SOL    HW114036   5.974   1.858   0.537  2.3745  0.7086 -0.5608
36366SOL    HW214037   5.983   1.720   0.476  0.3831  0.0427  0.5405
36367SOL     OW14038   1.665   5.804   2.095  0.0176  0.6090 -0.0565
36367SOL    HW114039   1.714   5.848   2.025  0.3311  2.8355  1.4961
36367SOL    HW214040   1.600   5.867   2.123 -0.6876 -0.5792  1.1046
36368SOL     OW14041   1.576   7.140  11.259 -0.4269  0.1542  0.1393
36368SOL    HW114042   1.484   7.130  11.282 -1.5564  0.2099 -3.5757
36368SOL    HW214043   1.621   7.071  11.308 -3.0189 -2.1724 -0.4495
36369SOL     OW14044   1.013   4.012  10.403  0.0051  0.1151 -0.3152
36369SOL    HW114045   1.009   4.006  10.499  0.4687 -1.7878 -0.3735
36369SOL    HW214046   0.923   4.030  10.377  0.2766  3.3505  0.5512
36370SOL     OW14047   1.379   3.611   6.471 -0.0232  0.0147  0.3630
36370SOL    HW114048   1.419   3.530   6.441 -0.5176 -0.6912  1.5243
36370SOL    HW214049   1.322   3.638   6.398  0.0958 -0.7174 -0.0145
36371SOL     OW14050   5.882   7.529   8.356  0.1717 -0.0577 -0.0307
36371SOL    HW114051   5.933   7.524   8.437  2.3102  1.0179 -1.2314
36371SOL    HW214052   5.851   7.439   8.341  1.6096 -0.7228  0.8357
36372SOL     OW14053   7.167   0.876   0.577  0.0638 -0.2160  0.0989
36372SOL    HW114054   7.204   0.837   0.499  0.2551 -0.7860  0.4724
36372SOL    HW214055   7.166   0.806   0.642  0.2091  0.3312  0.7121
36373SOL     OW14056   8.212   4.059   1.117 -0.2499  0.2456 -0.1707
36373SOL    HW114057   8.282   3.996   1.133  1.4113  1.9386 -0.4006
36373SOL    HW214058   8.133   4.016   1.149  0.9433 -1.5761  0.4867
36374SOL     OW14059   4.490   6.217  10.003  0.4773 -0.6159 -0.3772
36374SOL    HW114060   4.534   6.300  10.020  2.2907 -1.6723  0.3718
36374SOL    HW214061   4.397   6.239  10.003  0.7547  1.0447  2.2650
36375SOL     OW14062   1.234   7.906   5.166  0.1560 -0.0178  0.2333
36375SOL    HW114063   1.316   7.946   5.196  1.1188 -0.6846 -1.3474
36375SOL    HW214064   1.243   7.813   5.188 -0.3877 -0.0159  0.4722
36376SOL     OW14065   4.018   7.062   5.739  0.4036  0.0694  0.1368
36376SOL    HW114066   3.943   7.119   5.753  0.4177  0.0616  0.2428
36376SOL    HW214067   4.027   7.057   5.644  1.7476  2.0270  0.1122
36377SOL     OW14068   2.807  11.217   3.490 -0.1611  0.0319  0.2494
36377SOL    HW114069   2.870  11.288   3.502  1.1007 -1.4039  3.2752
36377SOL    HW214070   2.860  11.141   3.465 -1.0249 -0.6294  0.3708
36378SOL     OW14071   6.738   9.245   2.509  0.7714 -0.2789  0.0437
36378SOL    HW114072   6.644   9.235   2.493  1.3259 -2.3041 -2.7970
36378SOL    HW214073   6.766   9.309   2.444  1.2882  1.0557  1.5183
36379SOL     OW14074   8.215   6.862   1.828 -0.0381 -0.2237  0.1894
36379SOL    HW114075   8.142   6.803   1.805 -0.3038 -0.7060  2.1162
36379SOL    HW214076   8.249   6.892   1.744 -1.7948 -0.8189 -0.7800
36380SOL     OW14077  10.417   9.036   2.001  0.4610 -0.2634  0.7027
36380SOL    HW114078  10.412   8.958   2.057 -1.5032 -1.3158 -0.8003
36380SOL    HW214079  10.418   9.110   2.063  1.3386 -1.4263  2.1535
36381SOL     OW14080   5.290   1.229   9.979  0.2617  0.1503  0.6807
36381SOL    HW114081   5.235   1.250  10.055 -0.3141  1.5417 -0.0697
36381SOL    HW214082   5.363   1.290   9.985 -0.9716  1.9519 -1.0649
36382SOL     OW14083   9.533   5.339   2.196 -0.0318 -0.3996  0.3057
36382SOL    HW114084   9.596   5.268   2.183 -0.1153 -0.1772 -1.5662
36382SOL    HW214085   9.554   5.403   2.128 -1.5196  0.2252  0.3934
36383SOL     OW14086   5.207   3.010   1.416 -0.4471 -0.1856  0.2401
36383SOL    HW114087   5.170   3.099   1.417  1.5859  0.7255 -0.2850
36383SOL    HW214088   5.148   2.960   1.360 -2.1593  0.5652  1.2886
36384SOL     OW14089   0.179   5.159   4.285  0.6530  0.2126 -0.1433
36384SOL    HW114090   0.238   5.180   4.358  2.0900  1.1307 -1.5026
36384SOL    HW214091   0.237   5.147   4.210 -0.7703 -0.9660 -1.1106
36385SOL     OW14092   7.759   2.703   9.735  0.3217  0.8289 -1.1264
36385SOL    HW114093   7.668   2.679   9.719  0.6572 -1.1500 -0.3742
36385SOL    HW214094   7.794   2.723   9.648  0.3465 -3.0400 -2.2035
36386SOL     OW14095   7.827   1.605  10.470 -0.4170  0.1286  0.0631
36386SOL    HW114096   7.801   1.528  10.420  0.2520 -0.9445  1.2837
36386SOL    HW214097   7.745   1.648  10.494 -0.9377 -1.3948  1.1418
36387SOL     OW14098  10.947  11.184   7.176 -0.1393 -0.6576  0.8856
36387SOL    HW114099  10.877  11.174   7.241 -0.7839 -1.2682  0.1195
36387SOL    HW214100  10.958  11.279   7.167  0.2137 -0.5635  2.1412
36388SOL     OW14101   7.167   0.776  10.269 -0.1887  0.4450 -0.3483
36388SOL    HW114102   7.120   0.704  10.312  0.9565 -0.4655 -0.5653
36388SOL    HW214103   7.137   0.855  10.314 -0.3857 -0.3130  0.8949
36389SOL     OW14104   8.402   0.593   8.936  0.0553 -0.3335  0.1401
36389SOL    HW114105   8.351   0.647   8.996  0.1388 -1.1428  0.9616
36389SOL    HW214106   8.339   0.530   8.901  0.1154 -0.1837 -0.2455
36390SOL     OW14107   7.013   8.915   2.666 -0.0553  0.3583 -0.1327
36390SOL    HW114108   6.936   8.894   2.720 -0.0462  0.7586  0.0405
36390SOL    HW214109   7.079   8.852   2.693 -0.2891  0.0827 -0.2016
36391SOL     OW14110   4.353   1.104   5.538  0.1158  0.0108 -0.0645
36391SOL    HW114111   4.405   1.028   5.566 -1.0446 -0.4804  0.8266
36391SOL    HW214112   4.417   1.175   5.531  0.5719  0.2702  4.1283
36392SOL     OW14113   9.265   9.743  10.512  0.6304  0.2223 -0.0311
36392SOL    HW114114   9.304   9.663  10.478  0.5304  0.5078 -0.8393
36392SOL    HW214115   9.172   9.736  10.492  0.7605  0.9474 -0.9607
36393SOL     OW14116   7.749   5.673  11.640  0.2842  0.0904 -0.4153
36393SOL    HW114117   7.706   5.751  11.673  0.3964  0.0999 -0.2883
36393SOL    HW214118   7.697   5.646  11.564  0.3533  0.3943 -0.5715
36394SOL     OW14119   6.980   7.538   5.977  0.0325  0.4953 -0.3707
36394SOL    HW114120   7.019   7.515   5.892  0.7863  0.8908 -0.1477
36394SOL    HW214121   6.932   7.619   5.960 -0.7953 -0.0530 -0.6732
36395SOL     OW14122   0.552   5.011  11.084 -0.2337  0.5447 -0.3483
36395SOL    HW114123   0.579   4.959  11.009 -0.1423  1.1672 -0.7585
36395SOL    HW214124   0.634   5.042  11.123 -0.3148  1.5838 -0.9791
36396SOL     OW14125   0.410   5.941   3.966  0.5710 -0.0203 -0.3679
36396SOL    HW114126   0.455   6.019   3.932  0.0876  0.1170 -0.7033
36396SOL    HW214127   0.374   5.969   4.050 -1.9854  1.0114 -1.6954
36397SOL     OW14128   9.932   7.394   2.860 -0.1276  0.0812 -0.2936
36397SOL    HW114129  10.012   7.405   2.809  0.7915 -1.2098  0.8404
36397SOL    HW214130   9.943   7.453   2.935 -0.7846  0.7851 -0.7303
36398SOL     OW14131   2.767   2.874   3.510  0.6203 -0.1822 -0.5813
36398SOL    HW114132   2.704   2.873   3.582 -0.2722 -2.6551 -1.2986
36398SOL    HW214133   2.727   2.932   3.445  0.3359  0.2461 -0.0385
36399SOL     OW14134   9.887   1.520   4.123  0.6295 -0.5981  0.1877
36399SOL    HW114135   9.826   1.564   4.182  0.0484  0.2778 -1.0333
36399SOL    HW214136   9.973   1.556   4.146  0.1413  1.4155 -0.9526
36400SOL     OW14137   5.451   3.104   4.231 -0.8672  0.7335 -0.2099
36400SOL    HW114138   5.392   3.145   4.293 -0.8852  1.3317 -0.6221
36400SOL    HW214139   5.433   3.146   4.148 -0.4576  0.3226 -0.5146
36401SOL     OW14140  10.765  10.023  10.424 -0.5829  0.3022 -0.7172
36401SOL    HW114141  10.793   9.988  10.340  1.0084 -0.5778  0.1181
36401SOL    HW214142  10.816  10.103  10.436 -0.6043  0.2790 -0.4605
36402SOL     OW14143   0.678   9.832  11.523 -0.6214 -0.0845 -0.0599
36402SOL    HW114144   0.691   9.852  11.431  0.6362  2.0659  0.5116
36402SOL    HW214145   0.589   9.798  11.528 -0.3504 -1.2310 -2.1780
36403SOL     OW14146  10.313   3.033   0.594 -0.2583  0.0400  0.2923
36403SOL    HW114147  10.309   3.076   0.509 -1.4436 -1.4694 -0.4619
36403SOL    HW214148  10.227   3.048   0.634 -0.8107 -1.7983 -0.1197
36404SOL     OW14149   1.741   2.060   5.024 -0.3961 -0.3016 -0.7215
36404SOL    HW114150   1.720   1.966   5.029  0.1693 -0.3951 -0.0476
36404SOL    HW214151   1.836   2.063   5.019 -0.4336  0.2247 -1.3615
36405SOL     OW14152   8.580   6.093   0.099  0.0715  0.0043  0.0264
36405SOL    HW114153   8.612   6.183   0.095  1.6740 -0.4509  1.3883
36405SOL    HW214154   8.650   6.041   0.060 -0.1357 -0.7947  0.6880
36406SOL     OW14155   8.091   4.743   4.318  0.9185 -0.0370  0.0428
36406SOL    HW114156   8.040   4.792   4.384 -1.6415 -0.6442 -1.3492
36406SOL    HW214157   8.176   4.730   4.359 -0.5613 -0.4717  3.3142
36407SOL     OW14158   8.213   6.714   9.400 -0.7431  0.5877  0.4151
36407SOL    HW114159   8.228   6.619   9.394 -0.8433  0.5487  0.7301
36407SOL    HW214160   8.118   6.723   9.395 -0.6504  0.8100 -1.2917
36408SOL     OW14161   4.292  11.152   8.080 -0.1270 -0.0637  0.2263
36408SOL    HW114162   4.332  11.107   8.154 -0.8341 -2.6639 -0.8799
36408SOL    HW214163   4.340  11.119   8.004 -1.2373  0.4249 -0.7081
36409SOL     OW14164   6.637  11.233   1.176  0.4237 -0.2175  0.7512
36409SOL    HW114165   6.701  11.165   1.196 -0.0486 -1.1675 -0.7761
36409SOL    HW214166   6.553  11.187   1.174 -0.0671  0.6562  0.9479
36410SOL     OW14167  10.869   8.475   6.288  0.4879 -0.3210  0.1674
36410SOL    HW114168  10.855   8.570   6.291  1.6338 -0.1606  1.3359
36410SOL    HW214169  10.964   8.465   6.294  0.5333 -1.4992 -1.8581
36411SOL     OW14170   3.108  10.692  10.504  0.0642  0.5269  0.2542
36411SOL    HW114171   3.150  10.696  10.418  0.3821  0.1085  0.3915
36411SOL    HW214172   3.111  10.783  10.536  0.7327  0.5228  0.2049
36412SOL     OW14173   7.134   1.872   2.386  0.3047 -0.1408 -0.5712
36412SOL    HW114174   7.214   1.911   2.351  0.9639  1.4762  2.3385
36412SOL    HW214175   7.066   1.939   2.370  0.8980  1.2649  2.1484
36413SOL     OW14176   0.935   1.501   6.858 -0.2690  0.8696 -0.4463
36413SOL    HW114177   0.899   1.578   6.814 -0.9469  1.7750  1.5511
36413SOL    HW214178   0.997   1.538   6.922  0.3052 -0.3422 -0.2749
36414SOL     OW14179  11.016   5.323   1.050 -0.2246 -0.1012 -0.1806
36414SOL    HW114180  11.020   5.345   0.958  1.4649  0.0510 -0.1019
36414SOL    HW214181  11.040   5.404   1.096 -1.4773 -0.0486  0.4271
36415SOL     OW14182   3.404   7.429   9.461 -0.3122  0.2366  0.2862
36415SOL    HW114183   3.472   7.361   9.463  0.7733  1.2634 -0.5422
36415SOL    HW214184   3.444   7.504   9.505 -1.3401  0.5096  0.7934
36416SOL     OW14185   2.339   5.810  10.516 -0.6828  0.1587  0.3264
36416SOL    HW114186   2.321   5.894  10.559 -0.5085 -0.0478  0.8146
36416SOL    HW214187   2.371   5.833  10.429  2.2281  0.7470  1.4277
36417SOL     OW14188   4.714   9.469   7.054 -0.2664  0.2510  0.0607
36417SOL    HW114189   4.741   9.533   6.988  0.3053  0.3001  0.3275
36417SOL    HW214190   4.650   9.414   7.010 -2.4439  2.3188  0.4284
36418SOL     OW14191   5.080   6.952   8.799 -0.3917 -0.0013 -0.2434
36418SOL    HW114192   5.153   6.936   8.859  0.0317 -0.8705 -0.9640
36418SOL    HW214193   5.041   7.035   8.829  0.8716  0.4615  0.1671
36419SOL     OW14194   7.811   7.462   7.123  0.7624 -0.5454  0.0025
36419SOL    HW114195   7.729   7.412   7.125 -0.1824  0.9433  0.8983
36419SOL    HW214196   7.826   7.479   7.030  0.3903 -1.3535 -0.2138
36420SOL     OW14197   4.518   9.094   4.448 -0.1455  0.0438  0.0106
36420SOL    HW114198   4.552   9.110   4.536 -1.7259  1.0787  0.4918
36420SOL    HW214199   4.489   9.003   4.449  1.2982 -0.4366  0.0143
36421SOL     OW14200   4.288   0.378   3.061 -0.4022 -0.0105  0.2363
36421SOL    HW114201   4.306   0.372   3.155 -0.6228 -0.8889  0.2313
36421SOL    HW214202   4.276   0.288   3.033  1.4379  0.0747 -1.0049
36422SOL     OW14203  11.065   2.537   8.266  0.8637 -0.3242 -0.3366
36422SOL    HW114204  11.142   2.534   8.322  0.6553  0.5181  0.0088
36422SOL    HW214205  11.077   2.465   8.204  1.1557 -1.2086  0.7157
36423SOL     OW14206   9.737   9.336   2.145 -0.1705 -0.5204 -0.1688
36423SOL    HW114207   9.809   9.372   2.197 -0.3548 -0.1021 -0.1964
36423SOL    HW214208   9.770   9.332   2.056 -0.5964  0.8492 -0.4017
36424SOL     OW14209   3.562  10.219   3.858 -0.6428  0.3585 -0.1183
36424SOL    HW114210   3.493  10.212   3.924 -1.0519 -0.0449 -0.5786
36424SOL    HW214211   3.557  10.310   3.827 -1.1427  0.2619 -0.3305
36425SOL     OW14212  11.363   7.706   7.730 -0.1366  0.0137  0.0575
36425SOL    HW114213  11.297   7.706   7.661 -1.0666 -1.4121  0.9023
36425SOL    HW214214  11.313   7.704   7.812  0.9420  1.3099  0.7936
36426SOL     OW14215   4.477  10.547   6.051 -1.0491 -0.0520 -0.1099
36426SOL    HW114216   4.396  10.540   6.000 -0.9935 -2.1049 -0.0204
36426SOL    HW214217   4.504  10.456   6.065 -0.4970  0.4589  2.6921
36427SOL     OW14218   4.508   8.540   3.764 -0.6658  0.1556 -0.4534
36427SOL    HW114219   4.549   8.462   3.727  2.9003  0.5953  2.0108
36427SOL    HW214220   4.532   8.611   3.705  1.4585  0.2354  0.4265
36428SOL     OW14221   3.207   1.585   3.376  0.0130 -0.1938 -0.1141
36428SOL    HW114222   3.270   1.583   3.448 -1.4488  0.9573  1.2575
36428SOL    HW214223   3.196   1.678   3.356  1.1939 -0.5194 -2.6125
36429SOL     OW14224   0.866   7.757   4.737 -0.2783  0.4544  0.0383
36429SOL    HW114225   0.799   7.826   4.729 -1.3324 -0.7319 -2.3180
36429SOL    HW214226   0.816   7.676   4.740  0.9880 -0.3117  1.7039
36430SOL     OW14227   7.684   1.492   3.861 -0.6611 -0.1399 -0.0286
36430SOL    HW114228   7.768   1.513   3.901  0.1177 -0.8323 -1.2369
36430SOL    HW214229   7.699   1.409   3.816 -1.8642 -0.0326 -0.6641
36431SOL     OW14230   2.098   7.669   8.475  0.0980 -0.5707 -0.2030
36431SOL    HW114231   2.056   7.627   8.550 -0.5166 -0.3395 -0.4154
36431SOL    HW214232   2.156   7.602   8.440  2.3210  0.0522  1.9588
36432SOL     OW14233   4.165   5.994   0.702  0.5220 -0.2413  0.5005
36432SOL    HW114234   4.173   5.985   0.607  0.1110 -0.3356  0.4739
36432SOL    HW214235   4.080   5.955   0.722  0.4915  0.0191  0.8748
36433SOL     OW14236   0.353   7.630   4.677  0.4402  0.2751 -0.3758
36433SOL    HW114237   0.311   7.697   4.623  0.8489  1.3245  0.5743
36433SOL    HW214238   0.305   7.634   4.760 -0.2819 -1.4174 -0.6655
36434SOL     OW14239   9.078   4.274   6.047 -0.0425 -0.0387 -0.0008
36434SOL    HW114240   9.049   4.196   6.001 -0.3099  0.0736 -0.0259
36434SOL    HW214241   9.169   4.256   6.071 -0.5798 -1.0400  1.4488
36435SOL     OW14242   1.978   7.355  11.050  0.6231 -0.2064  0.3518
36435SOL    HW114243   1.928   7.389  10.976 -1.1148 -3.6103 -0.2066
36435SOL    HW214244   2.053   7.310  11.010 -1.3115 -3.7195  0.2694
36436SOL     OW14245   8.177   0.045   1.570  0.2739 -0.4350 -0.4268
36436SOL    HW114246   8.085   0.069   1.576 -0.1094 -1.5713 -1.4997
36436SOL    HW214247   8.206   0.037   1.661 -0.7041 -0.1827 -0.0839
36437SOL     OW14248   0.997   1.729   5.421  0.1036  0.1987  0.5641
36437SOL    HW114249   1.005   1.661   5.354  0.8552  0.6625  0.1769
36437SOL    HW214250   1.026   1.687   5.501  1.4028  0.2927  0.1668
36438SOL     OW14251   9.360  10.481   3.437  0.1496 -0.2222  0.5528
36438SOL    HW114252   9.379  10.394   3.402 -0.5612  0.1929 -0.9512
36438SOL    HW214253   9.281  10.470   3.489  0.1597 -0.5150  0.5064
36439SOL     OW14254   7.749   6.141   4.684 -0.7354 -0.2073 -0.0156
36439SOL    HW114255   7.702   6.081   4.742  0.0134 -1.0500 -0.2449
36439SOL    HW214256   7.684   6.170   4.620 -1.2313 -0.3721  0.4151
36440SOL     OW14257   0.476   5.001   2.562 -0.4370  0.0275 -0.0404
36440SOL    HW114258   0.433   5.066   2.506 -1.4565  0.9167  1.6984
36440SOL    HW214259   0.404   4.946   2.593  0.0614 -0.2233  0.6743
36441SOL     OW14260   1.991  10.028   6.811 -0.1460  0.2849  0.8065
36441SOL    HW114261   2.004  10.057   6.721  0.1968 -0.0319  0.7474
36441SOL    HW214262   1.926   9.958   6.805 -0.5444  0.6532  0.8752
36442SOL     OW14263   4.472   2.333  11.463 -0.0548 -0.2847  0.2253
36442SOL    HW114264   4.453   2.411  11.412  0.8559 -0.4539 -0.3888
36442SOL    HW214265   4.393   2.319  11.516 -1.5462 -0.8390 -2.0248
36443SOL     OW14266   9.701  11.207   8.085 -0.4358  0.4801 -0.0418
36443SOL    HW114267   9.782  11.220   8.136  0.4638  0.2441 -1.3548
36443SOL    HW214268   9.720  11.132   8.029 -1.5574  0.4768 -0.4337
36444SOL     OW14269   6.791  10.138   2.677  0.1222  0.1198  0.0410
36444SOL    HW114270   6.758  10.092   2.599 -0.4568  0.8796 -0.1718
36444SOL    HW214271   6.834  10.216   2.642  1.8306 -0.6434  0.3456
36445SOL     OW14272   2.224   5.920   3.035  0.3329 -0.0031  0.7284
36445SOL    HW114273   2.258   6.009   3.044  1.0072 -0.2965  1.0905
36445SOL    HW214274   2.277   5.881   2.965  1.5248 -0.8230  2.0485
36446SOL     OW14275   8.126   7.377   7.948 -0.0922 -0.0692  0.6272
36446SOL    HW114276   8.183   7.431   7.894 -2.3137  0.4910 -1.3297
36446SOL    HW214277   8.039   7.416   7.939 -0.9548 -1.1713  3.0628
36447SOL     OW14278   9.059   8.385   3.918  0.5661  1.1651 -0.1150
36447SOL    HW114279   9.074   8.361   4.009 -0.4616  1.8176  0.2447
36447SOL    HW214280   9.022   8.306   3.878 -0.6287  1.3859  0.4883
36448SOL     OW14281   7.623   5.501   3.351  0.3364  0.0808 -0.0241
36448SOL    HW114282   7.687   5.571   3.344  0.5978 -0.3408 -2.5104
36448SOL    HW214283   7.671   5.422   3.328 -0.7481 -0.4310 -0.5829
36449SOL     OW14284   0.365   8.973   0.193  0.4657 -0.1765 -0.3559
36449SOL    HW114285   0.403   9.044   0.244  1.1759 -0.3478 -0.6307
36449SOL    HW214286   0.363   9.006   0.103 -0.6192  0.0607 -0.2591
36450SOL     OW14287   8.523  10.948   4.825  0.3759 -0.6712  0.1872
36450SOL    HW114288   8.492  10.936   4.735  2.9241 -1.6546 -0.6379
36450SOL    HW214289   8.457  11.004   4.865 -0.3671  0.6340 -2.5736
36451SOL     OW14290   0.135   2.666   5.444 -0.1007  0.1915 -0.3263
36451SOL    HW114291   0.165   2.583   5.405  0.9354  0.6881 -0.6164
36451SOL    HW214292   0.180   2.670   5.528 -1.9064 -0.6101  0.7322
36452SOL     OW14293  11.404   9.525   8.700  0.2200  0.8150  0.2216
36452SOL    HW114294  11.357   9.447   8.670  0.0111  1.0734 -0.1265
36452SOL    HW214295  11.367   9.545   8.786  0.4628  0.3751  0.4332
36453SOL     OW14296  10.980   5.557   2.618 -0.2843 -0.0873  0.0078
36453SOL    HW114297  10.937   5.538   2.701  0.2393 -1.1564  0.0523
36453SOL    HW214298  10.983   5.473   2.572  1.8880 -0.1203  0.0754
36454SOL     OW14299   0.803   5.099   9.163  0.7152  0.0152 -0.3394
36454SOL    HW114300   0.787   5.083   9.070 -0.4332 -2.1096  0.1518
36454SOL    HW214301   0.893   5.130   9.167  0.4615  1.1272 -2.2325
36455SOL     OW14302  10.286   9.186  10.061 -0.3084  0.4998 -0.4566
36455SOL    HW114303  10.202   9.162  10.021 -0.9573 -0.0712  1.1567
36455SOL    HW214304  10.264   9.256  10.123  0.1854 -0.4390  0.8159
36456SOL     OW14305   9.082  10.112  11.645 -0.2403 -0.3442  0.4695
36456SOL    HW114306   9.081  10.199  11.684  2.2257 -1.1820  2.7532
36456SOL    HW214307   9.126  10.124  11.561 -1.1946  0.7888  0.1085
36457SOL     OW14308   4.569   4.361   5.256  0.3491 -0.1535 -0.7235
36457SOL    HW114309   4.483   4.402   5.263 -0.2985 -1.6170  0.3044
36457SOL    HW214310   4.567   4.314   5.173  0.1220 -0.2211 -0.6807
36458SOL     OW14311   9.973   2.169   1.607  0.2913 -0.2346 -0.1523
36458SOL    HW114312   9.881   2.175   1.584  0.0696  0.3535  0.8253
36458SOL    HW214313   9.991   2.075   1.608 -0.8528 -0.4846  1.6666
36459SOL     OW14314   6.812   9.418   7.395 -0.1190  0.4792 -0.1233
36459SOL    HW114315   6.716   9.421   7.396 -0.2333 -1.2929  2.1654
36459SOL    HW214316   6.833   9.333   7.356  0.4506  0.3277  0.4926
36460SOL     OW14317   6.607   6.483   6.789  0.5181  0.0244 -0.8281
36460SOL    HW114318   6.677   6.548   6.800  0.4364  0.0739 -0.5815
36460SOL    HW214319   6.586   6.456   6.879  1.4973 -1.3637 -0.9811
36461SOL     OW14320   1.247  11.682   3.044 -0.4112 -0.1906 -0.1473
36461SOL    HW114321   1.194  11.662   3.121 -0.3180  0.5560  0.1224
36461SOL    HW214322   1.198  11.644   2.971 -0.4351 -1.0212  0.2895
36462SOL     OW14323   7.404   1.003   9.345  0.0049 -0.4634 -0.3261
36462SOL    HW114324   7.480   1.058   9.363 -0.1709 -1.0331  2.6398
36462SOL    HW214325   7.432   0.915   9.368 -1.3192 -0.7781  0.1758
36463SOL     OW14326   6.686   8.451   2.835 -0.0739  0.3251 -0.2994
36463SOL    HW114327   6.594   8.463   2.859 -0.5567 -0.2444 -1.7872
36463SOL    HW214328   6.683   8.406   2.751  1.5827 -0.2593 -0.0705
36464SOL     OW14329   9.295   8.793   3.546 -0.0827 -0.1264  0.3746
36464SOL    HW114330   9.271   8.762   3.458 -0.4558  0.9905  0.0717
36464SOL    HW214331   9.390   8.779   3.551  0.3383  1.8238 -1.0670
36465SOL     OW14332   7.667   2.197   5.494 -0.6919 -0.7664  0.2387
36465SOL    HW114333   7.691   2.281   5.533 -0.8990 -0.0845 -1.0462
36465SOL    HW214334   7.665   2.136   5.568  0.3933  0.1400  1.0619
36466SOL     OW14335   8.475   2.968   4.243  0.2732  0.0548  0.0119
36466SOL    HW114336   8.415   2.913   4.192  0.4759 -0.1692  0.0166
36466SOL    HW214337   8.422   3.045   4.266  0.6678  0.9794 -1.9937
36467SOL     OW14338   8.323  10.523   8.236  0.0339 -0.1338  0.2363
36467SOL    HW114339   8.231  10.532   8.210  0.0813  0.1874  0.1758
36467SOL    HW214340   8.361  10.608   8.216  0.8372 -0.8869 -1.7064
36468SOL     OW14341   2.500   3.740   1.824 -0.5734 -0.3843  0.0731
36468SOL    HW114342   2.495   3.769   1.916 -2.2034 -3.0934  0.9411
36468SOL    HW214343   2.519   3.820   1.775  0.0374  1.2208  2.7107
36469SOL     OW14344   4.544   3.386   6.678 -0.0366  0.8067 -0.2921
36469SOL    HW114345   4.468   3.424   6.634 -0.4426  0.2144 -0.1173
36469SOL    HW214346   4.594   3.343   6.608 -0.3256  0.4477 -0.2809
36470SOL     OW14347   9.536  11.375   7.234  0.0375  0.7349  0.6919
36470SOL    HW114348   9.499  11.458   7.204 -0.8832  0.9800  2.3900
36470SOL    HW214349   9.463  11.331   7.277  0.7133 -0.6395  0.4627
36471SOL     OW14350   8.405   6.271   1.903  0.3483 -0.4357  0.1383
36471SOL    HW114351   8.440   6.302   1.819  0.2946  0.8530  0.5603
36471SOL    HW214352   8.333   6.331   1.922  1.8264  0.8116  2.2213
36472SOL     OW14353   5.152   7.201   8.384  0.1861 -0.0170  0.2080
36472SOL    HW114354   5.218   7.151   8.432 -0.6611 -1.0837  0.3073
36472SOL    HW214355   5.188   7.289   8.380  0.7858 -0.1357  1.8709
36473SOL     OW14356  11.601   0.438   8.004  0.2493 -0.3192  0.4689
36473SOL    HW114357  11.585   0.417   7.912  2.1895 -2.1287  0.4810
36473SOL    HW214358  11.686   0.482   8.003  1.3714 -2.3381  1.5533
36474SOL     OW14359   2.518   9.987   0.513 -0.5600 -0.1682  0.1434
36474SOL    HW114360   2.566  10.022   0.438 -1.1479  0.6491  0.1349
36474SOL    HW214361   2.506   9.894   0.493 -0.5584  0.0035 -0.6914
36475SOL     OW14362   8.248   5.645  10.094 -0.7089  0.2328  0.0395
36475SOL    HW114363   8.251   5.665  10.001  2.0622 -1.7592 -0.4333
36475SOL    HW214364   8.227   5.551  10.098  0.5979 -0.0464  1.2935
36476SOL     OW14365   9.529   0.722   3.257  0.2863  0.2751  0.2353
36476SOL    HW114366   9.541   0.763   3.343  1.6630  0.0688  0.1622
36476SOL    HW214367   9.614   0.732   3.214  0.6090 -2.4136  0.1160
36477SOL     OW14368   4.734   0.567   6.687 -0.3199  0.8283  0.1312
36477SOL    HW114369   4.650   0.565   6.732 -0.4004  1.9194  0.0537
36477SOL    HW214370   4.799   0.555   6.756 -0.5358 -0.5090  0.1326
36478SOL     OW14371   4.384   0.349  10.922  0.2267 -0.0523  0.1628
36478SOL    HW114372   4.309   0.363  10.979  0.2155  0.1304  0.1025
36478SOL    HW214373   4.350   0.295  10.851  0.2318 -0.2476  0.3060
36479SOL     OW14374  11.425   6.817  10.693  0.1591  0.5367 -0.5811
36479SOL    HW114375  11.342   6.858  10.668 -0.4446 -0.6211 -0.5414
36479SOL    HW214376  11.407   6.723  10.690  1.3558  0.2794 -0.1620
36480SOL     OW14377   6.237   6.142   3.392 -0.4326  0.1607  0.5094
36480SOL    HW114378   6.297   6.086   3.343 -1.3989 -0.7826  0.3502
36480SOL    HW214379   6.242   6.227   3.349 -1.8517 -0.8328 -1.8021
36481SOL     OW14380  11.366   8.521   9.569  0.1010  0.1054  0.6081
36481SOL    HW114381  11.456   8.491   9.583 -0.2659 -0.5121  1.7000
36481SOL    HW214382  11.335   8.470   9.494  1.5471  2.2920 -1.6294
36482SOL     OW14383   0.615  11.001   8.386 -0.0031  0.2113  0.3345
36482SOL    HW114384   0.611  11.048   8.303 -0.2892 -0.3382  0.0298
36482SOL    HW214385   0.699  11.025   8.424 -0.4265  1.4958  0.5059
36483SOL     OW14386   4.582   7.637   0.736 -0.4086  0.0038  0.9095
36483SOL    HW114387   4.582   7.689   0.817 -1.6473 -0.6712  1.3642
36483SOL    HW214388   4.643   7.684   0.678 -0.0255  0.8824  1.9803
36484SOL     OW14389   4.167   0.178   0.389 -0.0215  0.0887 -0.0755
36484SOL    HW114390   4.231   0.131   0.334  0.1807  0.8437 -0.5082
36484SOL    HW214391   4.219   0.244   0.434 -0.1621 -0.6244  1.1700
36485SOL     OW14392   2.879   5.385   2.255  0.3505 -0.0095 -0.8775
36485SOL    HW114393   2.904   5.295   2.234 -1.0329 -0.5891 -0.1713
36485SOL    HW214394   2.831   5.378   2.338  2.5654  1.7300  0.6598
36486SOL     OW14395   9.935   4.193   0.239  0.2458 -0.4427  0.5383
36486SOL    HW114396   9.984   4.213   0.318 -0.1522  1.4331  0.3671
36486SOL    HW214397   9.893   4.276   0.215  1.3143 -0.5932 -2.3060
36487SOL     OW14398   2.466  10.407   6.773  0.0298 -1.1097 -0.1574
36487SOL    HW114399   2.453  10.473   6.841  0.7273 -2.1135  0.9946
36487SOL    HW214400   2.558  10.414   6.749 -0.3772 -0.2360 -1.6143
36488SOL     OW14401   1.568   1.598   6.450 -0.1891 -0.3083  0.2463
36488SOL    HW114402   1.654   1.600   6.493 -0.3299  0.6522  0.4997
36488SOL    HW214403   1.578   1.657   6.375 -1.5586  2.5300  2.1304
36489SOL     OW14404   1.006   0.579   3.653  0.0243 -0.1328  0.1937
36489SOL    HW114405   1.025   0.575   3.746  1.0215 -0.3174 -0.0059
36489SOL    HW214406   1.061   0.650   3.620 -1.1526  0.6896 -0.0740
36490SOL     OW14407   5.647   1.635   1.744 -0.1772 -0.5688 -0.3107
36490SOL    HW114408   5.663   1.693   1.818  4.0956 -0.7539 -0.7898
36490SOL    HW214409   5.626   1.693   1.671 -0.2884 -0.0012  0.1724
36491SOL     OW14410   4.540   0.735   1.112  0.2742  0.6679  0.2125
36491SOL    HW114411   4.549   0.785   1.031  0.5920  1.4333  0.7059
36491SOL    HW214412   4.555   0.644   1.086 -2.0705  0.5403 -1.0526
36492SOL     OW14413   0.658   7.480   7.430  0.1806  0.7804  0.2787
36492SOL    HW114414   0.578   7.528   7.413  0.4757  1.1141 -0.1857
36492SOL    HW214415   0.635   7.418   7.500 -0.9228 -0.2901 -0.9861
36493SOL     OW14416   8.440   8.322   7.793 -0.0922 -0.0518  0.4273
36493SOL    HW114417   8.366   8.383   7.788  0.2602  0.3307 -0.2054
36493SOL    HW214418   8.474   8.332   7.881  1.0597  1.9633 -0.2086
36494SOL     OW14419   9.517   8.394  10.366 -0.2851  0.6796  0.8092
36494SOL    HW114420   9.612   8.378  10.364 -0.6836 -2.1267  0.1881
36494SOL    HW214421   9.497   8.408  10.458  0.4986 -0.6001  1.2018
36495SOL     OW14422   2.393   7.611   9.208 -0.0442  0.4294 -0.3394
36495SOL    HW114423   2.352   7.524   9.209  2.3064 -0.7407  0.4639
36495SOL    HW214424   2.334   7.665   9.261 -0.2289 -1.3611  1.3836
36496SOL     OW14425   8.436   6.468   0.092  0.3809  0.2941 -0.0237
36496SOL    HW114426   8.350   6.446   0.127 -1.7256  2.2382 -3.4261
36496SOL    HW214427   8.438   6.564   0.091  2.4180  0.2947 -0.4667
36497SOL     OW14428   1.990   5.322   5.555 -0.9090 -0.6698  0.2645
36497SOL    HW114429   2.058   5.362   5.500 -0.8404 -0.4207  0.5265
36497SOL    HW214430   1.909   5.363   5.525 -0.8785 -0.5758  0.3089
36498SOL     OW14431  10.605   7.956   5.048  0.4969  0.2322  0.2142
36498SOL    HW114432  10.518   7.924   5.073  0.0439  0.9533 -0.4031
36498SOL    HW214433  10.619   7.921   4.960 -0.7219  2.9995 -1.1822
36499SOL     OW14434   7.169   5.964   5.038  0.1598 -0.3587 -0.1596
36499SOL    HW114435   7.175   5.951   4.944 -1.6189 -0.0709 -0.3591
36499SOL    HW214436   7.193   6.056   5.051  0.1235 -0.3185 -0.3748
36500SOL     OW14437   0.374  10.585   0.465 -1.0719  0.9283  0.3115
36500SOL    HW114438   0.333  10.668   0.442 -0.2614  1.0833 -0.6455
36500SOL    HW214439   0.445  10.575   0.402 -1.1491 -0.4929  0.4160
36501SOL     OW14440   4.835   7.193   4.935  0.2516  0.5322  0.0508
36501SOL    HW114441   4.754   7.148   4.910  1.0702 -0.6019 -0.6685
36501SOL    HW214442   4.879   7.131   4.994  0.5049  1.2345  0.6149
36502SOL     OW14443   1.220   6.095   9.177  0.5903 -0.2162  0.3604
36502SOL    HW114444   1.266   6.021   9.217 -1.4461 -0.3299  2.7242
36502SOL    HW214445   1.290   6.153   9.146  2.3110 -1.2102  2.1595
36503SOL     OW14446   0.773   2.109  10.035 -0.7156 -0.3224  0.3623
36503SOL    HW114447   0.804   2.199  10.047 -0.6834 -0.3559  0.5376
36503SOL    HW214448   0.850   2.055  10.055 -0.2547 -0.3550 -1.3116
36504SOL     OW14449   5.212   8.784   4.238 -1.3222  0.3539 -0.3035
36504SOL    HW114450   5.162   8.845   4.183  0.7449  0.8558 -1.7598
36504SOL    HW214451   5.263   8.841   4.295 -0.7162 -0.0638 -0.4251
36505SOL     OW14452  10.973   6.817   7.323 -0.3623 -0.3794 -0.1517
36505SOL    HW114453  10.973   6.880   7.396 -1.7109  2.1770 -2.2128
36505SOL    HW214454  10.909   6.752   7.348 -1.6357  1.0617  0.5250
36506SOL     OW14455  10.431   8.766   9.395 -0.2902  0.1157  0.1807
36506SOL    HW114456  10.466   8.813   9.319  2.1007 -2.0949 -0.2481
36506SOL    HW214457  10.484   8.797   9.469  1.4742 -1.8310 -0.1423
36507SOL     OW14458   8.384   0.968  10.227 -1.2576  0.0542  0.0639
36507SOL    HW114459   8.379   0.953  10.321 -0.9244 -0.7513 -0.0401
36507SOL    HW214460   8.313   0.916  10.190 -0.0188 -1.4580 -0.3112
36508SOL     OW14461   9.233   4.359   8.848 -1.0671 -0.3159 -0.1874
36508SOL    HW114462   9.279   4.412   8.913 -0.1230 -2.0240  0.6013
36508SOL    HW214463   9.146   4.400   8.841 -0.2292  1.5957  0.0062
36509SOL     OW14464   2.463   9.346   1.732 -0.5667  0.6725 -0.0088
36509SOL    HW114465   2.483   9.330   1.640 -0.4980 -1.7437  0.3696
36509SOL    HW214466   2.413   9.270   1.760  1.9572 -0.2141  2.6713
36510SOL     OW14467   5.248   4.926   9.929  0.0077 -0.4108  0.4947
36510SOL    HW114468   5.165   4.934   9.977 -0.5422 -1.5454 -0.2214
36510SOL    HW214469   5.239   4.845   9.879  1.9521 -1.0731  1.1370
36511SOL     OW14470   0.721  10.522   4.608 -0.0406  0.0497 -0.3122
36511SOL    HW114471   0.751  10.436   4.578 -1.1961  0.6930 -3.6426
36511SOL    HW214472   0.629  10.510   4.628 -0.2906  0.5717 -1.1167
36512SOL     OW14473   4.766   0.153   3.992  0.4490 -0.3080  0.5879
36512SOL    HW114474   4.733   0.083   4.048 -0.4504 -0.3223  0.0614
36512SOL    HW214475   4.689   0.184   3.945  1.5663 -2.2278 -2.8615
36513SOL     OW14476   6.528   4.662  11.420 -0.0581  0.0770  0.4397
36513SOL    HW114477   6.578   4.719  11.361  0.9716 -3.6408 -2.6858
36513SOL    HW214478   6.437   4.689  11.408  0.2528  0.2731 -1.9742
36514SOL     OW14479   9.058  11.568   9.182  0.3512 -0.5214 -0.1174
36514SOL    HW114480   9.151  11.588   9.192  0.5130 -1.4806  0.4658
36514SOL    HW214481   9.046  11.556   9.088  0.2020  2.3103 -0.5485
36515SOL     OW14482   0.789   7.212   0.663 -0.1148  0.2643 -0.1951
36515SOL    HW114483   0.706   7.260   0.676 -0.6224 -0.5870 -0.2275
36515SOL    HW214484   0.821   7.196   0.752 -0.1839  0.2504 -0.1724
36516SOL     OW14485   5.999   0.060   8.382 -0.0948 -0.2929  0.3558
36516SOL    HW114486   6.009  -0.031   8.410  0.3901 -0.2026  0.4918
36516SOL    HW214487   5.960   0.054   8.295 -0.6828 -0.6082  0.6326
36517SOL     OW14488   5.723   6.279   7.789  0.2186 -0.3254  0.3813
36517SOL    HW114489   5.694   6.358   7.834  0.7240  0.1243 -0.0799
36517SOL    HW214490   5.777   6.310   7.717 -1.5451 -0.9471 -1.3080
36518SOL     OW14491  10.295   7.846   1.192 -0.1794 -0.0706 -0.5085
36518SOL    HW114492  10.269   7.937   1.205 -0.9732 -0.3420 -0.1295
36518SOL    HW214493  10.264   7.825   1.103  2.0836  0.7128 -1.5439
36519SOL     OW14494  11.478   2.185   1.392 -0.0848 -0.8146  0.2996
36519SOL    HW114495  11.484   2.174   1.297  1.8410  0.7939  0.1525
36519SOL    HW214496  11.475   2.096   1.426 -2.0605 -1.4190 -1.2853
36520SOL     OW14497   3.634  10.787   4.596 -0.4281  0.0813  0.1935
36520SOL    HW114498   3.541  10.795   4.575 -0.9721 -0.8103  2.0291
36520SOL    HW214499   3.646  10.695   4.619  1.0155  0.0944 -0.4153
36521SOL     OW14500   0.585   8.310   2.731  0.1194  0.4047  0.6215
36521SOL    HW114501   0.569   8.222   2.700 -1.3088  0.8411  0.0452
36521SOL    HW214502   0.546   8.367   2.665  0.1621  1.4407  1.4482
36522SOL     OW14503  11.420   7.764   8.868 -0.1498 -0.0714 -0.0427
36522SOL    HW114504  11.425   7.763   8.964  3.4550 -3.4866 -0.0119
36522SOL    HW214505  11.337   7.719   8.849  0.4590 -2.0926  1.6135
36523SOL     OW14506   2.115  10.954   4.227  0.2429  0.1648  0.3975
36523SOL    HW114507   2.203  10.989   4.244  1.1582 -1.6244 -0.3149
36523SOL    HW214508   2.131  10.873   4.178 -1.8246 -0.1699  0.1876
36524SOL     OW14509   6.108   8.959   5.274 -0.0354  0.6730 -0.8910
36524SOL    HW114510   6.036   8.909   5.312 -0.0296 -0.1016 -1.8789
36524SOL    HW214511   6.111   9.039   5.327 -0.1932 -0.2413  0.5810
36525SOL     OW14512  11.617   7.846   3.968 -0.3176 -0.5743  0.1611
36525SOL    HW114513  11.569   7.927   3.983  0.4127 -0.1758  0.4065
36525SOL    HW214514  11.702   7.874   3.934 -0.6663 -1.3127 -1.4122
36526SOL     OW14515   2.274  10.296  10.980  0.4311 -0.1129 -0.2706
36526SOL    HW114516   2.326  10.296  11.060  0.1914 -1.2657 -0.0853
36526SOL    HW214517   2.300  10.375  10.934  4.3083 -1.7822 -1.4074
36527SOL     OW14518  11.282   0.103   4.172  0.2634  0.3406 -0.4321
36527SOL    HW114519  11.289   0.033   4.108 -0.6433  0.8188 -1.0761
36527SOL    HW214520  11.325   0.178   4.131  0.6927  0.3380  0.0014
36528SOL     OW14521   3.229   6.973   1.117 -0.5777 -0.0041 -0.0324
36528SOL    HW114522   3.186   6.916   1.053  1.1646 -0.9957 -0.3927
36528SOL    HW214523   3.240   7.056   1.072 -0.3682 -0.3507 -0.6379
36529SOL     OW14524   3.817  11.303   6.787  0.3658 -0.0414 -0.1302
36529SOL    HW114525   3.879  11.332   6.854  0.2836  0.3039 -0.2007
36529SOL    HW214526   3.743  11.365   6.794  0.1461 -0.2918 -0.2190
36530SOL     OW14527   8.843   5.638   1.631  0.4796 -0.1240  0.3792
36530SOL    HW114528   8.809   5.619   1.719  0.0383  0.1177  0.2599
36530SOL    HW214529   8.772   5.682   1.587  0.7933 -0.0221 -0.0244
36531SOL     OW14530   2.687   5.738   5.496 -0.4671  0.6836  0.2531
36531SOL    HW114531   2.712   5.766   5.584  1.1502 -0.0333  0.0641
36531SOL    HW214532   2.756   5.774   5.440 -1.0947  0.5339 -0.6284
36532SOL     OW14533   9.785   7.332   0.190  0.0914 -0.8480  0.5162
36532SOL    HW114534   9.710   7.280   0.218 -0.2251  0.5333  2.4457
36532SOL    HW214535   9.860   7.273   0.197 -0.4909 -1.5443  0.9223
36533SOL     OW14536   4.799   2.302   6.144  0.3110 -0.0061  0.1729
36533SOL    HW114537   4.816   2.208   6.153 -0.5083 -0.1322  0.5126
36533SOL    HW214538   4.876   2.336   6.100  1.1797 -0.6370  1.1477
36534SOL     OW14539   5.245   2.317   4.864 -0.0657 -0.0620  0.6732
36534SOL    HW114540   5.202   2.240   4.899  1.2083 -0.0742  2.3390
36534SOL    HW214541   5.182   2.355   4.802 -1.9942 -0.6401  2.2066
36535SOL     OW14542   5.333   0.920  10.579  0.2718 -0.1316  0.0415
36535SOL    HW114543   5.351   0.829  10.600 -0.6893 -0.1678  0.7833
36535SOL    HW214544   5.259   0.917  10.519 -0.0465  0.1729  0.4139
36536SOL     OW14545   3.389   9.691   4.079  0.2868  0.4156 -0.1456
36536SOL    HW114546   3.385   9.748   4.002 -2.1081 -1.9383 -2.0035
36536SOL    HW214547   3.439   9.615   4.050  0.6685  0.1395  1.1632
36537SOL     OW14548   8.975   6.120   3.315 -0.3470  0.3785  0.0139
36537SOL    HW114549   8.988   6.149   3.405  1.2331  0.1090 -0.0865
36537SOL    HW214550   8.977   6.024   3.321  2.0917  0.3154 -0.5173
36538SOL     OW14551   9.917   9.049   5.582  0.1529  0.6182  0.1224
36538SOL    HW114552   9.860   9.010   5.515  0.4536 -0.1770  0.3152
36538SOL    HW214553   9.862   9.056   5.660  0.4121 -0.5198  0.4251
36539SOL     OW14554   0.503   0.733   3.925  0.3244  0.6477  0.0470
36539SOL    HW114555   0.505   0.637   3.935 -0.3618  0.4624 -1.2880
36539SOL    HW214556   0.451   0.764   3.998 -1.1661 -0.2157 -0.6029
36540SOL     OW14557   1.818  10.817   4.936  0.0611  0.4403  0.2897
36540SOL    HW114558   1.888  10.809   4.872 -1.1784  1.3309 -1.2543
36540SOL    HW214559   1.798  10.727   4.962  0.3222  0.0322 -0.8816
36541SOL     OW14560   2.864   6.440   2.724  0.0056  0.1987  0.0514
36541SOL    HW114561   2.847   6.439   2.629  1.0667  1.6459 -0.1807
36541SOL    HW214562   2.793   6.494   2.760  1.1263  1.9705 -0.2916
36542SOL     OW14563   9.670  11.247   9.762 -0.1433 -0.0421 -0.6073
36542SOL    HW114564   9.642  11.302   9.835 -0.6301 -1.3856  0.2666
36542SOL    HW214565   9.654  11.157   9.793  1.0898 -0.6936 -1.7850
36543SOL     OW14566   2.227   6.655   1.462  0.3633 -0.0162  0.7239
36543SOL    HW114567   2.316   6.662   1.496  1.2549  2.6193 -1.7306
36543SOL    HW214568   2.188   6.740   1.482 -0.8679 -0.3751 -0.0746
36544SOL     OW14569   4.963   3.296   5.669 -0.1219  0.2020 -0.0651
36544SOL    HW114570   5.006   3.221   5.629 -0.3072  0.0798 -0.0365
36544SOL    HW214571   4.870   3.274   5.669 -0.0886 -0.0129  0.8590
36545SOL     OW14572   4.391  11.617   3.779 -0.3560  0.2316  0.1863
36545SOL    HW114573   4.486  11.610   3.784 -0.3067 -0.1485 -1.0143
36545SOL    HW214574   4.365  11.656   3.862  0.8558  0.4062  0.4920
36546SOL     OW14575  11.423  11.162  10.911  0.2406  0.2543 -0.4937
36546SOL    HW114576  11.501  11.216  10.922  0.1255  0.5847 -1.2033
36546SOL    HW214577  11.410  11.157  10.816 -0.6309  0.2467 -0.3871
36547SOL     OW14578   4.826   7.304   7.765  0.1464 -0.0994  0.5134
36547SOL    HW114579   4.909   7.337   7.732  0.1599  0.5268  1.1607
36547SOL    HW214580   4.849   7.224   7.812  0.0826 -1.2212 -1.2467
36548SOL     OW14581   1.728   2.872   1.604  0.3588  0.1771 -0.4056
36548SOL    HW114582   1.709   2.783   1.577 -0.1419  0.2496 -0.3046
36548SOL    HW214583   1.653   2.923   1.572 -0.9470  0.0687  2.1927
36549SOL     OW14584   0.501   9.802  10.978 -0.0732  0.3355 -0.6209
36549SOL    HW114585   0.540   9.735  11.034  0.2836  0.9135 -0.1622
36549SOL    HW214586   0.554   9.800  10.898  0.7609  0.9301 -0.1082
36550SOL     OW14587   6.703   0.296   5.617  0.3341  0.2703  0.2843
36550SOL    HW114588   6.630   0.352   5.642 -0.1184 -0.2189  0.0992
36550SOL    HW214589   6.733   0.257   5.700 -0.9156 -1.0545  0.1649
36551SOL     OW14590   7.418   7.071   0.390 -0.3109  0.2107  0.2986
36551SOL    HW114591   7.455   6.983   0.398 -2.3872 -0.6863  0.4949
36551SOL    HW214592   7.439   7.113   0.474 -0.3100 -0.4972  0.6588
36552SOL     OW14593   4.799   5.689   0.902  0.4997  0.0044  0.2372
36552SOL    HW114594   4.751   5.761   0.862  0.8235  0.2075  0.2195
36552SOL    HW214595   4.732   5.641   0.951 -0.2261 -1.1583 -1.7736
36553SOL     OW14596   6.113   7.606   8.986 -0.6175 -0.0648 -0.0920
36553SOL    HW114597   6.162   7.633   9.063  0.4685 -0.2511 -0.7060
36553SOL    HW214598   6.036   7.562   9.021 -1.2936  1.8140  0.8978
36554SOL     OW14599   8.288   1.377   8.848  0.4027  0.2264 -0.0086
36554SOL    HW114600   8.245   1.453   8.809  2.4426  1.3253 -0.2774
36554SOL    HW214601   8.221   1.335   8.901 -1.4305  0.8492 -1.7323
36555SOL     OW14602   5.998   2.001   9.082  0.3878 -0.3907  0.5011
36555SOL    HW114603   6.048   1.919   9.078  1.5533  0.2648  1.1619
36555SOL    HW214604   5.950   1.996   9.165  0.4955 -0.3761  0.5637
36556SOL     OW14605   2.754   8.342   9.014 -0.0723 -0.1162 -0.3732
36556SOL    HW114606   2.675   8.291   9.032 -0.5102  1.2945  2.1307
36556SOL    HW214607   2.808   8.283   8.961 -1.3919 -2.3897  0.6410
36557SOL     OW14608   6.998   9.346   2.333  0.1881 -0.5216 -0.2299
36557SOL    HW114609   7.061   9.354   2.405  0.2659 -0.0458 -0.3476
36557SOL    HW214610   6.953   9.263   2.350 -0.2125 -0.1247  0.6948
36558SOL     OW14611   7.734   3.755   0.677 -0.1637 -0.1217 -0.5573
36558SOL    HW114612   7.671   3.789   0.740 -0.4021  0.3174 -1.0306
36558SOL    HW214613   7.689   3.682   0.636 -0.2521  0.0085 -0.6899
36559SOL     OW14614   5.274   8.031   0.813  0.0779 -0.0072 -0.4187
36559SOL    HW114615   5.298   7.964   0.748  1.5510 -0.5468  0.6269
36559SOL    HW214616   5.349   8.090   0.815 -1.7966  2.6808 -2.4339
36560SOL     OW14617  10.303  10.683   6.071  0.1823  0.0469 -0.4932
36560SOL    HW114618  10.375  10.731   6.031  1.2916 -1.2498 -0.1226
36560SOL    HW214619  10.247  10.751   6.108  2.8819  1.0763  2.0838
36561SOL     OW14620   6.607   9.629   4.344  0.0860 -0.0666  0.3170
36561SOL    HW114621   6.625   9.679   4.264 -0.6302  0.0866  0.2492
36561SOL    HW214622   6.677   9.563   4.347 -1.0247 -1.4513 -1.5729
36562SOL     OW14623   0.181   8.391   5.419  0.5243  0.4991  0.1843
36562SOL    HW114624   0.093   8.419   5.445  0.6180  0.8699  0.0998
36562SOL    HW214625   0.210   8.335   5.491  0.0666  0.0638  0.0299
36563SOL     OW14626   5.428   2.948   7.236 -0.2821  0.2600 -0.9484
36563SOL    HW114627   5.485   3.024   7.247 -1.0981  0.6422  1.0389
36563SOL    HW214628   5.488   2.877   7.212  1.2776  0.4355  1.9328
36564SOL     OW14629   3.334   3.048   7.351 -0.3910 -0.0499  0.4753
36564SOL    HW114630   3.383   2.974   7.315 -1.2139 -0.6698  0.5897
36564SOL    HW214631   3.298   3.015   7.433  0.3461  0.9235  1.2107
36565SOL     OW14632   7.441   2.883   7.512  0.7822  0.0349 -0.1498
36565SOL    HW114633   7.465   2.953   7.573  0.1789 -0.3666  0.5612
36565SOL    HW214634   7.524   2.857   7.472  1.0597  0.9118 -0.1538
36566SOL     OW14635   3.700  11.539   0.453 -0.5023  0.1158 -0.3351
36566SOL    HW114636   3.670  11.619   0.495  1.5582  1.1838 -0.7712
36566SOL    HW214637   3.626  11.510   0.400 -1.0591  2.1540 -0.7611
36567SOL     OW14638   2.172  10.723   6.507 -0.0113  0.0007 -0.1636
36567SOL    HW114639   2.160  10.806   6.461 -0.7561  0.9522  1.6441
36567SOL    HW214640   2.106  10.724   6.577  0.6602 -1.6450  0.5568
36568SOL     OW14641   8.626  10.607   8.271  0.1679 -0.2783 -0.3250
36568SOL    HW114642   8.547  10.580   8.318 -0.4309  1.8559  0.0298
36568SOL    HW214643   8.602  10.690   8.230  2.2029  0.4233 -0.2208
36569SOL     OW14644  10.409   8.910   2.688 -0.6041 -0.3206  0.2644
36569SOL    HW114645  10.497   8.890   2.720 -0.2475 -2.3892 -1.6878
36569SOL    HW214646  10.421   8.978   2.622 -0.9241  1.5298  2.0075
36570SOL     OW14647   6.587   8.678   0.303  0.4331  0.2949 -0.4632
36570SOL    HW114648   6.519   8.714   0.360  0.2626  0.8871 -1.0237
36570SOL    HW214649   6.599   8.744   0.234  0.9095 -0.2233 -0.8979
36571SOL     OW14650   6.524   3.275   3.036  0.0998 -0.2829  0.1654
36571SOL    HW114651   6.527   3.367   3.064  0.3103 -0.6357  1.3496
36571SOL    HW214652   6.454   3.273   2.970  0.8077  0.9184 -0.6568
36572SOL     OW14653   1.784   8.729   8.891 -0.1313 -0.7025 -0.2875
36572SOL    HW114654   1.847   8.700   8.958  0.0498 -0.4235 -0.3341
36572SOL    HW214655   1.699   8.705   8.926 -0.1438  0.5724  0.6422
36573SOL     OW14656   3.933   7.387   1.779 -0.0838 -0.8446 -0.3911
36573SOL    HW114657   3.906   7.306   1.823 -1.8714 -0.8612 -1.4216
36573SOL    HW214658   3.862   7.449   1.798 -0.0283 -0.3311 -1.7632
36574SOL     OW14659  11.364   6.890   8.709 -0.3002  0.8441  0.0979
36574SOL    HW114660  11.352   6.951   8.782 -1.0194  2.2732 -1.1706
36574SOL    HW214661  11.384   6.945   8.634  1.1151 -0.6399 -0.6937
36575SOL     OW14662   2.800  10.005   4.354 -0.3883  0.4272  1.0347
36575SOL    HW114663   2.852  10.056   4.291  0.8457 -0.8534  0.9588
36575SOL    HW214664   2.853   9.927   4.371 -2.0114 -0.6411  1.4689
36576SOL     OW14665   0.355   2.703   3.396 -0.1706  0.1417  0.4038
36576SOL    HW114666   0.326   2.692   3.486  1.7357 -1.6941  0.8908
36576SOL    HW214667   0.300   2.644   3.345  0.0934 -0.3802  0.7117
36577SOL     OW14668   4.333   5.786   4.250 -0.0338 -0.0407  0.2598
36577SOL    HW114669   4.364   5.733   4.177  0.5383  0.0621  0.4160
36577SOL    HW214670   4.334   5.876   4.216  0.3872  0.0250  0.4405
36578SOL     OW14671   0.968   8.987   3.603  0.0310  0.5883 -0.1426
36578SOL    HW114672   1.003   9.034   3.678 -2.2209  0.7330  0.9079
36578SOL    HW214673   0.941   8.902   3.639 -0.0604  0.2273 -1.0420
36579SOL     OW14674   8.604   5.245   8.199 -0.0544 -0.0062  0.1352
36579SOL    HW114675   8.609   5.333   8.235  1.9568 -0.1385  0.2868
36579SOL    HW214676   8.692   5.227   8.165 -0.9074 -1.2583 -1.5977
36580SOL     OW14677   5.910   5.804  11.116 -0.6421 -0.5765  0.7201
36580SOL    HW114678   5.933   5.718  11.152  2.1776 -0.0256  0.4091
36580SOL    HW214679   5.861   5.847  11.186 -1.2003 -2.0261  1.2635
36581SOL     OW14680   0.342   4.236   7.011 -0.0477  0.1958  0.3207
36581SOL    HW114681   0.369   4.167   6.949  0.6463 -1.3669  2.2499
36581SOL    HW214682   0.366   4.318   6.967  1.1400 -0.8706 -1.1527
36582SOL     OW14683   5.404   9.602   0.981 -0.1742  0.4580  0.0226
36582SOL    HW114684   5.414   9.576   0.889 -1.2043 -0.8343  0.2382
36582SOL    HW214685   5.444   9.530   1.030 -1.6461 -0.0001  0.6067
36583SOL     OW14686   8.402   1.847   7.240  0.5044  0.6429  0.0543
36583SOL    HW114687   8.489   1.863   7.277  0.5282 -0.2134  0.3905
36583SOL    HW214688   8.399   1.903   7.162  0.8588  1.6418  0.7492
36584SOL     OW14689   2.856   2.195   6.147  0.7063  0.4790 -0.1154
36584SOL    HW114690   2.835   2.288   6.136 -0.0046  0.8687  3.4467
36584SOL    HW214691   2.770   2.152   6.148  1.0556 -0.4141 -2.4936
36585SOL     OW14692   3.909   0.785   6.398  0.4689 -0.1908 -0.0763
36585SOL    HW114693   3.860   0.867   6.389  0.1004 -0.5588 -1.6607
36585SOL    HW214694   3.944   0.788   6.487 -0.1590  1.3402  0.1504
36586SOL     OW14695   5.523   7.300  11.605  0.1112  0.4430  0.0388
36586SOL    HW114696   5.549   7.258  11.687 -1.2612  0.9283  0.7662
36586SOL    HW214697   5.587   7.271  11.541  0.7168 -0.6412  1.1037
36587SOL     OW14698   6.932   9.152  11.596 -0.1673  0.2023 -0.1813
36587SOL    HW114699   7.003   9.157  11.660 -1.2685  0.1072  1.0957
36587SOL    HW214700   6.958   9.214  11.527  1.7124 -0.7253 -0.3721
36588SOL     OW14701   5.866   6.230   4.976 -0.3262 -0.5856 -0.6351
36588SOL    HW114702   5.940   6.209   5.032  0.0607 -2.1149 -1.6481
36588SOL    HW214703   5.797   6.258   5.037 -0.1474 -2.8137  0.6995
36589SOL     OW14704   0.136   6.784   2.798 -0.2917 -0.1240 -0.0871
36589SOL    HW114705   0.185   6.723   2.853 -3.1967 -2.6633 -0.0468
36589SOL    HW214706   0.181   6.781   2.713  0.1650 -1.6898  0.1772
36590SOL     OW14707   9.125   9.143   3.352 -0.5941  0.2076 -0.4974
36590SOL    HW114708   9.209   9.144   3.305  1.2669 -1.1523  2.5010
36590SOL    HW214709   9.114   9.233   3.383  0.7745  0.0416  0.5900
36591SOL     OW14710   3.568   0.862   3.275 -0.7357 -0.0897 -0.1558
36591SOL    HW114711   3.607   0.949   3.276 -2.5620  0.7838  1.1756
36591SOL    HW214712   3.630   0.808   3.226  0.6853  1.8290 -0.5758
36592SOL     OW14713   3.721   6.040   3.903  0.0857 -0.0442  0.2602
36592SOL    HW114714   3.679   6.055   3.988 -0.4463  0.4428 -0.0781
36592SOL    HW214715   3.706   5.947   3.886  1.5659 -0.5320  1.4053
36593SOL     OW14716   2.388   8.059   3.840  0.6178  0.1362  0.0227
36593SOL    HW114717   2.452   8.126   3.817  1.7107 -0.6868  0.5309
36593SOL    HW214718   2.321   8.106   3.891  0.3870  1.1545 -1.1765
36594SOL     OW14719   9.095   3.960   2.213  0.2709 -0.0011 -0.0525
36594SOL    HW114720   9.184   3.927   2.220 -0.2368 -1.1879  1.6781
36594SOL    HW214721   9.047   3.890   2.168 -0.2695 -0.5159  1.2703
36595SOL     OW14722   8.812   5.843   7.652  0.1134  0.6819 -0.1681
36595SOL    HW114723   8.869   5.908   7.612 -0.6457  1.8262  0.5235
36595SOL    HW214724   8.838   5.842   7.744 -0.5031  0.7060  0.0101
36596SOL     OW14725   7.923   5.156   0.228  0.6504 -0.2598  0.1350
36596SOL    HW114726   7.993   5.141   0.164  0.3208  2.2068 -0.9129
36596SOL    HW214727   7.943   5.242   0.265 -0.8489 -0.3121  1.1423
36597SOL     OW14728   9.230   3.728   6.682  0.3783  0.2154 -0.3709
36597SOL    HW114729   9.279   3.684   6.612  0.0812 -1.2848  0.3313
36597SOL    HW214730   9.162   3.777   6.636  1.3669  0.7992 -1.2416
36598SOL     OW14731   6.562   6.819   0.765 -0.1692 -0.8393 -0.1095
36598SOL    HW114732   6.645   6.776   0.743  0.7739 -0.3286  2.1148
36598SOL    HW214733   6.526   6.848   0.681  1.6445 -1.5436 -1.1773
36599SOL     OW14734   2.734   4.704   1.897  0.1635 -0.0704  0.8275
36599SOL    HW114735   2.689   4.620   1.896  0.7149 -0.3821  1.4511
36599SOL    HW214736   2.826   4.682   1.914  0.5937  0.5360 -0.5276
36600SOL     OW14737   4.307  10.357   4.337 -0.2518 -0.1156 -0.5148
36600SOL    HW114738   4.241  10.410   4.294 -1.1530  0.2121  1.1772
36600SOL    HW214739   4.339  10.411   4.409  0.9693 -0.7491 -0.5504
36601SOL     OW14740   5.950   9.382   1.636 -0.0932 -0.2771 -0.5095
36601SOL    HW114741   5.866   9.351   1.670  0.3992 -1.7476 -0.5235
36601SOL    HW214742   5.979   9.447   1.699 -2.0940  1.6920 -1.4987
36602SOL     OW14743   9.760   4.671   0.339  0.0409 -0.3544 -0.7786
36602SOL    HW114744   9.761   4.621   0.258  0.3719  0.1466 -1.0837
36602SOL    HW214745   9.680   4.723   0.334  0.3766  0.1483 -1.0804
36603SOL     OW14746   2.672   5.833   9.033 -0.4555  0.4317  0.2183
36603SOL    HW114747   2.749   5.777   9.020  0.7860  1.8750  1.0500
36603SOL    HW214748   2.604   5.773   9.066 -0.0766 -1.0758 -1.5879
36604SOL     OW14749   6.231   9.005   5.872  0.0274 -0.0874  0.1845
36604SOL    HW114750   6.206   8.941   5.806  0.7499 -0.4013  0.2131
36604SOL    HW214751   6.204   9.089   5.835 -1.7126 -0.4680  0.5215
36605SOL     OW14752   7.774   0.138   5.187  0.4012  0.2350 -0.3954
36605SOL    HW114753   7.840   0.181   5.241  0.1580 -1.1969  1.1082
36605SOL    HW214754   7.691   0.171   5.219  0.2151 -1.2128  0.7308
36606SOL     OW14755   6.886   6.148   4.517  0.0577 -0.6883  0.6779
36606SOL    HW114756   6.829   6.117   4.447  1.9259 -1.2297 -0.6749
36606SOL    HW214757   6.907   6.238   4.493 -0.9703 -0.1469  1.7043
36607SOL     OW14758   1.991   5.611   2.714  0.0569 -0.3580 -0.1729
36607SOL    HW114759   1.924   5.569   2.660 -0.2064  1.1203 -1.0634
36607SOL    HW214760   2.010   5.693   2.668 -0.2340  1.0141  2.0256
36608SOL     OW14761  11.247   1.839   2.844  0.0550  0.6041 -0.4335
36608SOL    HW114762  11.205   1.768   2.795 -1.6717  2.1393 -1.2879
36608SOL    HW214763  11.298   1.886   2.778 -0.1505  1.1268 -0.2193
36609SOL     OW14764   6.831   2.383   1.212 -0.0899  0.0779 -0.2476
36609SOL    HW114765   6.882   2.464   1.211 -0.2885  0.2007 -1.0393
36609SOL    HW214766   6.860   2.336   1.135  1.2326 -1.3864  1.0854
36610SOL     OW14767   1.983   1.068   4.475  0.1153  0.1555 -0.0459
36610SOL    HW114768   1.906   1.041   4.526 -0.3773  0.6550 -0.5127
36610SOL    HW214769   1.976   1.164   4.470  0.7695  0.2054 -0.0995
36611SOL     OW14770  10.669   2.789   8.288  0.3347 -0.3215 -0.1482
36611SOL    HW114771  10.759   2.784   8.256  1.0235 -1.1008  1.7535
36611SOL    HW214772  10.648   2.699   8.312 -0.8688 -0.0991 -0.3344
36612SOL     OW14773   9.379   4.540   4.040  0.1699 -0.1375  0.3065
36612SOL    HW114774   9.456   4.492   4.070  0.6109 -0.3532 -1.0891
36612SOL    HW214775   9.408   4.631   4.032  0.0087 -0.0519  0.6675
36613SOL     OW14776  10.447   5.616  11.266 -0.3139 -0.7261 -0.0151
36613SOL    HW114777  10.451   5.700  11.220  1.8584 -1.1262 -0.7210
36613SOL    HW214778  10.506   5.626  11.340  1.6056 -2.1635 -1.2285
36614SOL     OW14779   0.150   9.721   1.611  0.3343  0.1015 -0.3075
36614SOL    HW114780   0.197   9.804   1.612  1.4098 -0.4975  0.0193
36614SOL    HW214781   0.196   9.667   1.547  1.3991 -1.2044  1.4703
36615SOL     OW14782   4.747   9.490   4.406  0.5736 -0.1907  0.6257
36615SOL    HW114783   4.798   9.418   4.442  0.1282 -0.7301  0.1906
36615SOL    HW214784   4.656   9.459   4.410  0.4744 -0.0781 -0.5302
36616SOL     OW14785   3.089   7.305   4.098 -0.4179 -0.1888 -0.2732
36616SOL    HW114786   3.022   7.348   4.151 -1.9976  1.6729 -3.5246
36616SOL    HW214787   3.040   7.256   4.032  1.4437 -1.2293 -0.9573
36617SOL     OW14788   1.234   6.921   0.061  0.3787  0.3607  0.2258
36617SOL    HW114789   1.296   6.932   0.132 -0.5200  1.3409  0.8763
36617SOL    HW214790   1.172   6.855   0.093 -1.6707  2.7755  1.5839
36618SOL     OW14791   2.110   3.781   2.803  0.3002  0.1077  0.1945
36618SOL    HW114792   2.024   3.754   2.772 -0.2040  1.8178  0.0092
36618SOL    HW214793   2.172   3.729   2.752 -0.6016 -0.5432 -0.2537
36619SOL     OW14794   5.991   3.544   8.596 -0.1762 -0.1181 -0.1485
36619SOL    HW114795   6.047   3.613   8.632  1.2658 -1.6787  0.7217
36619SOL    HW214796   6.028   3.463   8.629 -0.9105 -1.4408 -2.3603
36620SOL     OW14797   4.053   4.896   7.363  0.0166 -0.4407 -0.2335
36620SOL    HW114798   4.057   4.855   7.450 -0.1119  0.9618  0.4625
36620SOL    HW214799   4.144   4.904   7.336  0.0252 -1.7207 -0.6691
36621SOL     OW14800   1.268   1.011   2.665 -0.2184  0.6783  0.1493
36621SOL    HW114801   1.326   1.038   2.736  0.7807  1.2820 -0.8550
36621SOL    HW214802   1.317   1.031   2.585 -1.6465  0.8178 -0.7365
36622SOL     OW14803  10.926   9.837   7.677  0.2618  0.2031  0.2694
36622SOL    HW114804  10.944   9.772   7.609  0.3615  1.6917 -1.2001
36622SOL    HW214805  11.009   9.884   7.687 -0.2752  1.2104  0.0583
36623SOL     OW14806  10.654   6.125  10.006  0.5858  0.1129 -0.0113
36623SOL    HW114807  10.726   6.080   9.961  1.7631  0.2358  1.6565
36623SOL    HW214808  10.650   6.084  10.092 -1.1945  0.3037  0.0281
36624SOL     OW14809  10.946   6.238   7.722  0.3819 -0.0454 -0.3068
36624SOL    HW114810  10.882   6.170   7.697  0.1554  0.6325 -1.6844
36624SOL    HW214811  11.029   6.207   7.686  0.3313  0.2588 -0.6962
36625SOL     OW14812   9.646   7.951  11.680 -0.4285  0.6428 -0.3841
36625SOL    HW114813   9.607   7.978  11.764 -1.3262  1.0088 -0.9074
36625SOL    HW214814   9.578   7.900  11.637  1.0701 -2.1409  0.3568
36626SOL     OW14815  10.172   1.966  10.499 -0.2786 -0.3175 -0.1570
36626SOL    HW114816  10.124   2.042  10.532 -1.0336 -0.5656 -0.6672
36626SOL    HW214817  10.243   2.003  10.447 -0.5883  0.0356 -0.3278
36627SOL     OW14818   3.036   5.675   5.656  0.2522  0.0957 -0.2017
36627SOL    HW114819   2.989   5.595   5.633  0.6971 -0.2555  0.0929
36627SOL    HW214820   2.970   5.744   5.650 -0.0996 -0.2659 -0.6088
36628SOL     OW14821  10.263   3.766   3.395  0.7185  0.3723 -0.1898
36628SOL    HW114822  10.249   3.796   3.485 -0.7897  1.3138 -0.6981
36628SOL    HW214823  10.217   3.682   3.391  0.0745  0.7183 -0.2801
36629SOL     OW14824   9.951   9.448  10.533 -0.0288  0.3419  0.3664
36629SOL    HW114825   9.938   9.456  10.627 -0.3240 -2.4332  0.6448
36629SOL    HW214826   9.880   9.392  10.503  0.7204  0.2180 -1.3195
36630SOL     OW14827   9.604   1.457   0.296 -0.0141  0.0849  0.5956
36630SOL    HW114828   9.563   1.528   0.344 -1.8813  0.3327 -1.2251
36630SOL    HW214829   9.634   1.498   0.214  0.3313 -0.9102  0.2042
36631SOL     OW14830   0.501   8.832   6.517 -0.3684  0.3475  0.3951
36631SOL    HW114831   0.507   8.797   6.428  1.1099 -0.5144  0.7882
36631SOL    HW214832   0.473   8.922   6.506 -6.0066 -1.1559 -0.6232
36632SOL     OW14833   3.944   9.401   5.662  0.2599  0.4627  0.7239
36632SOL    HW114834   3.856   9.407   5.698  0.3532 -1.1528  1.2651
36632SOL    HW214835   3.991   9.475   5.702 -0.8379  1.3950  0.3586
36633SOL     OW14836   4.650  10.320   6.833  0.7403 -0.0661  0.2531
36633SOL    HW114837   4.644  10.372   6.753  0.5187 -0.8332 -0.2449
36633SOL    HW214838   4.566  10.276   6.839  1.9158 -2.7416 -1.0384
36634SOL     OW14839   2.002   2.697   4.253 -0.2146 -0.5163  0.3962
36634SOL    HW114840   2.064   2.717   4.323 -1.6829 -0.6551  1.8051
36634SOL    HW214841   2.050   2.641   4.193  0.2037 -3.2395  3.0278
36635SOL     OW14842   2.609   2.132   2.412  0.6433 -0.8248 -0.0911
36635SOL    HW114843   2.602   2.060   2.349 -1.3174 -0.2634 -0.5606
36635SOL    HW214844   2.668   2.195   2.370  0.5836 -1.1482 -0.6719
36636SOL     OW14845   5.647   1.696   5.597 -0.2307  0.1282 -0.6444
36636SOL    HW114846   5.625   1.789   5.598  2.8511  0.9556  0.3897
36636SOL    HW214847   5.667   1.678   5.505 -0.6071  0.5127 -0.8092
36637SOL     OW14848   7.781   7.506   8.175  0.8047  0.3604  0.0730
36637SOL    HW114849   7.754   7.427   8.220  1.0396  0.1797 -0.0966
36637SOL    HW214850   7.835   7.553   8.239  1.0838  0.1366  0.0044
36638SOL     OW14851   0.588   6.328  11.555  0.5742 -0.6369 -0.2969
36638SOL    HW114852   0.516   6.338  11.616  0.3646  1.2356 -0.8037
36638SOL    HW214853   0.571   6.244  11.511 -0.9776 -0.4899 -0.0220
36639SOL     OW14854   4.612   7.506   6.916 -0.5218 -0.1485 -0.0918
36639SOL    HW114855   4.561   7.483   6.993 -1.1197  1.3866  0.0164
36639SOL    HW214856   4.699   7.468   6.931 -1.1547 -1.4236  0.4621
36640SOL     OW14857   1.545   3.657   3.334  0.7041  0.1278  0.2451
36640SOL    HW114858   1.604   3.714   3.284 -0.9492  1.0241 -0.7838
36640SOL    HW214859   1.586   3.571   3.329  2.0189  0.7412 -0.2713
36641SOL     OW14860   3.845  10.056   9.950  0.8239  0.2961 -0.4893
36641SOL    HW114861   3.798  10.067   9.867  2.4700  0.3352 -1.4454
36641SOL    HW214862   3.859  10.145   9.982  2.4215  0.4299 -1.4831
36642SOL     OW14863   5.619  11.230   8.035  0.4266 -0.0249  0.0152
36642SOL    HW114864   5.692  11.181   8.073 -0.5377 -0.2378  1.7209
36642SOL    HW214865   5.598  11.182   7.955  0.8055 -1.2384  0.6037
36643SOL     OW14866   4.663  11.604   6.961  0.3501  0.2072 -0.0884
36643SOL    HW114867   4.756  11.621   6.969  0.4077 -0.4015  0.5995
36643SOL    HW214868   4.649  11.586   6.868  0.8328  0.7433 -0.2689
36644SOL     OW14869   7.044   4.766  11.683 -0.1996  0.0978  0.2899
36644SOL    HW114870   7.117   4.782  11.743 -0.1740  0.5971  0.1344
36644SOL    HW214871   7.071   4.691  11.631 -0.5823 -0.8842  1.4677
36645SOL     OW14872   8.010   8.030  11.101  0.7739 -0.3108  0.3080
36645SOL    HW114873   8.073   8.091  11.063  0.2696  0.0993  0.1119
36645SOL    HW214874   8.028   7.947  11.058 -0.3190  0.3231 -1.4850
36646SOL     OW14875   6.969   7.556  10.155 -0.3363 -0.2502 -0.0559
36646SOL    HW114876   6.899   7.558  10.090 -1.7358  0.4583  1.3971
36646SOL    HW214877   6.930   7.513  10.231  0.9475 -0.2200  0.6508
36647SOL     OW14878   5.114   0.965   7.047 -0.0074 -0.7363 -0.1354
36647SOL    HW114879   5.182   0.900   7.064  1.2161  0.4449 -0.3016
36647SOL    HW214880   5.035   0.929   7.088  1.2853 -0.9797  2.3314
36648SOL     OW14881   3.796   0.969  11.407  0.1951 -0.5101  0.0770
36648SOL    HW114882   3.713   0.925  11.424 -0.9810  1.4152 -0.4019
36648SOL    HW214883   3.830   0.928  11.327 -2.2561  1.2130 -2.0004
36649SOL     OW14884   4.343   3.619  10.840  0.1000  0.4410  0.1655
36649SOL    HW114885   4.365   3.640  10.931  0.3577 -0.9245  0.4422
36649SOL    HW214886   4.424   3.583  10.804  0.1280  1.3974 -0.7520
36650SOL     OW14887   8.326  10.104   2.330 -0.1096 -0.2931 -0.5503
36650SOL    HW114888   8.420  10.110   2.348  0.0142  0.8505 -1.5059
36650SOL    HW214889   8.313  10.013   2.302  0.4745 -0.8086  0.7836
36651SOL     OW14890   7.001   9.873   9.196 -0.0886 -0.0825 -0.2236
36651SOL    HW114891   7.061   9.862   9.269 -0.4134 -2.4802 -0.2425
36651SOL    HW214892   6.921   9.908   9.236  0.3980  0.5558  0.2160
36652SOL     OW14893   1.783   6.881   5.726  0.0127 -0.4569  0.3350
36652SOL    HW114894   1.782   6.789   5.699 -0.5579  0.2708 -2.5951
36652SOL    HW214895   1.859   6.918   5.682 -1.0248  0.8759 -0.4425
36653SOL     OW14896   2.007   5.544  10.204  0.0648 -0.1694 -0.2130
36653SOL    HW114897   2.063   5.515  10.132  0.8517 -1.9251  1.0404
36653SOL    HW214898   2.048   5.507  10.282 -2.1160 -0.3848  0.8917
36654SOL     OW14899   4.797   0.695   1.050  0.3851  0.1987  0.0601
36654SOL    HW114900   4.893   0.689   1.047  0.5103  2.0213 -0.5053
36654SOL    HW214901   4.776   0.690   1.143  0.9688 -0.8479  0.1507
36655SOL     OW14902   8.233  11.506   4.087 -0.1215 -0.0030  0.6617
36655SOL    HW114903   8.250  11.474   3.999  0.7646  1.0818  0.4046
36655SOL    HW214904   8.319  11.507   4.129 -0.1608  1.6153  0.7742
36656SOL     OW14905   0.257   9.984  11.238 -0.3086 -0.3472  0.4266
36656SOL    HW114906   0.262   9.889  11.234  0.3493 -0.2868 -0.3750
36656SOL    HW214907   0.218  10.010  11.155  0.8300  0.1513  0.0243
36657SOL     OW14908   0.968   3.889   8.572  0.7374 -0.0502 -0.2454
36657SOL    HW114909   0.924   3.931   8.498 -0.9486 -0.2069  0.6257
36657SOL    HW214910   0.952   3.795   8.559 -0.2427 -0.0319  0.7038
36658SOL     OW14911   6.291   9.478  11.352  0.1866  0.4402 -0.1854
36658SOL    HW114912   6.264   9.568  11.335 -0.5538  0.1180 -0.7454
36658SOL    HW214913   6.210   9.427  11.349  0.7346 -0.4124 -1.0362
36659SOL     OW14914  10.573   6.324   6.085 -0.1015 -0.2568  0.1018
36659SOL    HW114915  10.563   6.290   5.996  0.1746  0.7657 -0.3289
36659SOL    HW214916  10.503   6.282   6.135  0.0614 -1.2459 -0.4663
36660SOL     OW14917   0.589   2.156   0.375 -0.2003  0.0282 -0.0928
36660SOL    HW114918   0.603   2.175   0.283  0.7124 -2.1487 -0.4787
36660SOL    HW214919   0.677   2.143   0.411 -0.4222  2.2509  1.4875
36661SOL     OW14920   6.284   6.578   0.724 -0.3912  0.4283 -0.4485
36661SOL    HW114921   6.324   6.522   0.657 -0.9890  0.3767 -0.7696
36661SOL    HW214922   6.346   6.576   0.797 -0.4548 -0.7581 -0.4081
36662SOL     OW14923  10.314   6.818  11.100  0.3442 -0.2623  0.4220
36662SOL    HW114924  10.386   6.827  11.163  0.8326  0.5191 -0.2337
36662SOL    HW214925  10.297   6.907  11.069  0.5893 -0.7143 -1.0822
36663SOL     OW14926   8.338   8.833   0.021  0.0029 -0.5524 -0.4011
36663SOL    HW114927   8.275   8.903   0.041 -1.0239 -2.2685  3.2633
36663SOL    HW214928   8.289   8.771  -0.032 -0.3097 -0.2568 -0.4640
36664SOL     OW14929   8.242   1.595   2.828  0.2712  0.2300  0.4173
36664SOL    HW114930   8.149   1.599   2.806 -0.2177 -0.9441  2.0508
36664SOL    HW214931   8.246   1.619   2.921  1.2904 -1.7599  0.9486
36665SOL     OW14932   9.162   3.407   1.963 -0.2864  0.5881  0.5249
36665SOL    HW114933   9.102   3.480   1.950 -0.6209  0.4489  1.2437
36665SOL    HW214934   9.243   3.448   1.994  0.4455  0.9002 -1.6415
36666SOL     OW14935  10.498   3.688   7.996 -0.1949 -0.0365 -0.4713
36666SOL    HW114936  10.559   3.762   7.989  0.4377 -0.6787 -2.4385
36666SOL    HW214937  10.505   3.660   8.088 -0.8448  2.6142  0.4844
36667SOL     OW14938   5.235   8.443   7.742 -0.5808 -0.1858 -0.4258
36667SOL    HW114939   5.280   8.436   7.826  1.2701 -0.4627 -1.3809
36667SOL    HW214940   5.252   8.533   7.713  0.4283 -0.6336 -1.3244
36668SOL     OW14941   6.010  10.143   8.223 -0.8431  0.2676 -0.3602
36668SOL    HW114942   6.032  10.194   8.300 -0.4177  0.6686 -0.7410
36668SOL    HW214943   5.992  10.055   8.256 -1.3947  0.6138  0.2790
36669SOL     OW14944   4.458   3.819   0.324  0.1136  0.4753 -0.1578
36669SOL    HW114945   4.538   3.783   0.362 -1.6242 -2.6582  0.8102
36669SOL    HW214946   4.489   3.875   0.253  3.1475 -1.2813 -0.3835
36670SOL     OW14947   9.250   5.096  10.262 -0.1103 -0.3363  0.8857
36670SOL    HW114948   9.251   5.163  10.330  0.7997  3.0592 -2.1334
36670SOL    HW214949   9.177   5.120  10.205  1.7159 -0.2836 -1.6388
36671SOL     OW14950   6.821   5.199   7.375  0.1551 -0.4403 -0.2642
36671SOL    HW114951   6.829   5.190   7.470 -1.6558  0.6890  0.0425
36671SOL    HW214952   6.728   5.188   7.357  0.3829 -0.0679 -1.8466
36672SOL     OW14953   3.474   8.994   7.865 -0.0084 -0.3906 -0.2753
36672SOL    HW114954   3.483   8.917   7.922 -0.3699  0.3951  0.8811
36672SOL    HW214955   3.514   8.967   7.782  1.2747 -1.3120  0.6036
36673SOL     OW14956  10.822   5.879   3.745  0.3854 -0.6591  0.2945
36673SOL    HW114957  10.791   5.969   3.757  0.1222 -0.8205  0.8528
36673SOL    HW214958  10.906   5.877   3.789  0.5069 -0.6224  0.0665
36674SOL     OW14959   5.768  10.240  10.876  0.6030  0.1163 -0.0216
36674SOL    HW114960   5.755  10.201  10.963 -0.4203  2.8412  1.1718
36674SOL    HW214961   5.683  10.230  10.833  0.4783  0.6300  0.1078
36675SOL     OW14962   6.942   2.130   1.442 -0.1412 -0.0394 -0.1149
36675SOL    HW114963   6.902   2.202   1.393  1.7003 -0.2250 -2.0364
36675SOL    HW214964   6.974   2.070   1.375  0.5453 -1.4438  1.3984
36676SOL     OW14965  11.585   3.878   8.813 -0.2242 -0.0862 -0.0099
36676SOL    HW114966  11.640   3.812   8.855 -0.9367 -1.3268 -0.9490
36676SOL    HW214967  11.505   3.831   8.789 -0.6270  1.0437 -1.0023
36677SOL     OW14968   0.780   7.185   0.384  0.8388 -0.3665 -0.5266
36677SOL    HW114969   0.778   7.191   0.480  3.2405 -0.2061 -0.4284
36677SOL    HW214970   0.853   7.127   0.365  1.0741  0.4363 -2.2809
36678SOL     OW14971   9.558   6.245   0.943 -0.2957  0.1664  0.4057
36678SOL    HW114972   9.649   6.223   0.957 -0.3976 -0.3550  0.2606
36678SOL    HW214973   9.559   6.337   0.915  0.2358 -0.0243 -0.2204
36679SOL     OW14974   3.495   5.213   1.597 -0.7348 -0.5750 -0.1574
36679SOL    HW114975   3.588   5.214   1.617 -1.0500  0.9051  1.5842
36679SOL    HW214976   3.466   5.303   1.612 -2.3166 -0.8077 -1.4302
36680SOL     OW14977   1.531   5.778   6.748  0.0331 -0.1597  0.4228
36680SOL    HW114978   1.521   5.802   6.840  1.4395  0.5277  0.4237
36680SOL    HW214979   1.491   5.851   6.700 -2.3530 -1.3520  0.4484
36681SOL     OW14980   6.084   8.243   4.533 -0.3343 -0.1529  0.3924
36681SOL    HW114981   6.173   8.278   4.524  0.6556 -2.3118  1.0424
36681SOL    HW214982   6.029   8.304   4.484  1.9450 -0.4805 -2.9665
36682SOL     OW14983   3.131   9.115   9.058  0.3242  0.3352  0.1879
36682SOL    HW114984   3.117   9.108   8.963  0.7047 -3.0674  0.2717
36682SOL    HW214985   3.049   9.152   9.091 -0.3660  0.2639 -1.3319
36683SOL     OW14986  11.579   8.628   2.727 -0.1599  0.5441  0.1468
36683SOL    HW114987  11.635   8.705   2.730 -1.5741  1.5898  0.4257
36683SOL    HW214988  11.639   8.556   2.708  1.4063  1.4772  1.3438
36684SOL     OW14989   5.933   8.037   8.777 -0.4025 -0.0759  0.0482
36684SOL    HW114990   5.980   8.029   8.860  0.8356  1.4850 -0.4628
36684SOL    HW214991   5.914   7.947   8.752 -0.3984 -0.6104  1.7820
36685SOL     OW14992   3.231   4.669   7.146 -0.5630 -0.6876 -0.0123
36685SOL    HW114993   3.222   4.574   7.143  1.2484 -0.9369  0.9489
36685SOL    HW214994   3.326   4.684   7.154 -0.8028  1.1956 -0.1763
36686SOL     OW14995   7.767   7.668   4.525 -0.4799 -0.1070 -0.1673
36686SOL    HW114996   7.816   7.734   4.574 -1.2270  0.2183  0.1606
36686SOL    HW214997   7.676   7.699   4.527 -0.7841 -0.9575 -0.3281
36687SOL     OW14998   6.858   4.948   6.419 -0.8086 -0.2765  0.2186
36687SOL    HW114999   6.808   5.024   6.449 -0.4814 -0.2221  0.6351
36687SOL    HW215000   6.870   4.894   6.497 -1.9953 -1.3254 -0.2742
36688SOL     OW15001   6.839   0.236   6.862 -0.2859  0.0044 -0.2774
36688SOL    HW115002   6.781   0.224   6.787 -1.3346  1.5367  0.2351
36688SOL    HW215003   6.891   0.313   6.841 -1.0678  0.8651  0.8309
36689SOL     OW15004   9.135   7.947   3.617  0.0993 -0.0016  0.0349
36689SOL    HW115005   9.123   8.042   3.614 -3.7390 -0.3465  0.3819
36689SOL    HW215006   9.087   7.914   3.541 -0.4949 -1.7901  1.1389
36690SOL     OW15007   8.947   5.597   6.538  0.1603 -0.7114  0.4895
36690SOL    HW115008   9.015   5.541   6.574 -0.2679 -0.4862  1.6974
36690SOL    HW215009   8.992   5.677   6.512  0.5202 -0.9795  0.2936
36691SOL     OW15010   2.236   9.805   4.094 -0.6608  0.3441 -0.5716
36691SOL    HW115011   2.197   9.893   4.099 -1.4015  0.1135 -1.7950
36691SOL    HW215012   2.301   9.803   4.164  0.5878  2.4897 -1.5473
36692SOL     OW15013   1.071   2.684   0.508 -0.4580 -0.0252  0.4930
36692SOL    HW115014   0.992   2.734   0.528 -0.4795 -0.7349  2.4088
36692SOL    HW215015   1.041   2.613   0.452 -1.1556 -0.1755  1.0431
36693SOL     OW15016   4.747   9.364   9.975 -0.4171  0.1478  0.2849
36693SOL    HW115017   4.815   9.368  10.043  1.0657  1.9075 -1.1815
36693SOL    HW215018   4.770   9.288   9.922  0.5726  0.8501 -0.3226
36694SOL     OW15019   7.335   5.638   8.882  0.1651  0.0451  0.1763
36694SOL    HW115020   7.412   5.581   8.890 -1.8272 -2.7312  0.9790
36694SOL    HW215021   7.324   5.651   8.788  0.5300 -1.1711 -0.0518
36695SOL     OW15022   6.737   0.116   2.177 -0.3676  0.3989  0.1664
36695SOL    HW115023   6.657   0.155   2.142 -0.3839 -0.0154 -0.2696
36695SOL    HW215024   6.808   0.173   2.145 -0.3428 -0.2247 -0.9388
36696SOL     OW15025   3.006   1.635   2.214 -0.3497  0.0308  0.4061
36696SOL    HW115026   3.088   1.600   2.249 -0.9845 -0.5564  1.3769
36696SOL    HW215027   2.994   1.718   2.261  0.4818  0.9291 -0.9185
36697SOL     OW15028   2.563   7.553   2.691 -0.3156 -0.0701 -0.0103
36697SOL    HW115029   2.645   7.506   2.706 -0.2905  0.1109  0.4055
36697SOL    HW215030   2.495   7.489   2.712 -0.2812  0.0208  0.3759
36698SOL     OW15031   0.496  10.372   2.759  0.2746  0.0407 -0.2433
36698SOL    HW115032   0.511  10.350   2.667 -0.1725  1.9946 -0.8379
36698SOL    HW215033   0.582  10.371   2.799  0.4056 -1.4366 -0.5117
36699SOL     OW15034   5.837  10.158  11.634 -0.0837 -0.2531 -0.4727
36699SOL    HW115035   5.831  10.140  11.727 -0.9722 -1.1171 -0.6749
36699SOL    HW215036   5.914  10.109  11.604 -0.9379 -1.6318 -0.5261
36700SOL     OW15037  10.174   5.694   3.649 -0.3560 -0.1265  0.2133
36700SOL    HW115038  10.235   5.761   3.618 -0.2823  0.2901  1.2185
36700SOL    HW215039  10.118   5.676   3.573 -0.9397  1.7040  0.1642
36701SOL     OW15040   3.325   0.131  11.518  0.7188 -0.2235 -0.8958
36701SOL    HW115041   3.420   0.143  11.517  0.3876  3.7254 -0.5861
36701SOL    HW215042   3.297   0.173  11.599 -1.3938 -0.0020 -1.6936
36702SOL     OW15043   2.024   4.057   4.454 -0.1644  0.1445  0.5896
36702SOL    HW115044   2.023   4.139   4.406  1.3188  0.5236  1.1414
36702SOL    HW215045   2.038   4.083   4.545 -0.6139 -0.6784  0.9058
36703SOL     OW15046   8.509   2.768   6.595 -0.1490  0.0681  0.2673
36703SOL    HW115047   8.448   2.794   6.526  0.7082 -0.7829 -0.8596
36703SOL    HW215048   8.592   2.809   6.570  0.2560 -0.5306  0.5964
36704SOL     OW15049  11.478   4.461  10.388 -0.5121 -0.2467  0.3735
36704SOL    HW115050  11.436   4.482  10.472  1.1632  1.8403  0.7931
36704SOL    HW215051  11.554   4.409  10.412  0.1885  0.6839  0.2396
36705SOL     OW15052   9.463  11.580   7.057  0.1924 -0.5740 -0.0379
36705SOL    HW115053   9.367  11.584   7.066  0.1921  0.0707 -0.3383
36705SOL    HW215054   9.493  11.667   7.084  0.5051  0.1059 -2.4086
36706SOL     OW15055   7.841   5.620   9.711 -0.3566 -0.1530 -0.0169
36706SOL    HW115056   7.799   5.535   9.695  0.1341 -0.5232  0.5809
36706SOL    HW215057   7.822   5.639   9.803 -0.9999  0.6972 -0.3189
36707SOL     OW15058  11.115   8.671   1.424  0.2594  0.6158 -0.2418
36707SOL    HW115059  11.140   8.596   1.371 -1.1482  0.7553 -1.1273
36707SOL    HW215060  11.146   8.747   1.375  0.5966  0.6758  0.0562
36708SOL     OW15061   2.634   8.953   9.196  0.4658 -0.0653  0.2970
36708SOL    HW115062   2.592   8.894   9.258  1.5930 -1.7730 -0.4887
36708SOL    HW215063   2.619   9.041   9.232 -0.5468 -0.8700  1.9423
36709SOL     OW15064   9.499   3.217   7.533  0.1589 -0.1285  0.2490
36709SOL    HW115065   9.554   3.155   7.580 -1.2298 -1.8620 -0.2761
36709SOL    HW215066   9.502   3.187   7.442 -1.1185  0.1266  0.1068
36710SOL     OW15067   1.417   5.369   4.283  0.1853 -0.1481 -0.3997
36710SOL    HW115068   1.501   5.324   4.289 -0.6847 -2.0156 -1.2957
36710SOL    HW215069   1.363   5.330   4.351 -1.1756 -1.9188 -2.3921
36711SOL     OW15070  11.487   7.443   2.562 -0.3633 -0.0861 -0.3448
36711SOL    HW115071  11.482   7.506   2.634  0.7625 -0.5855  0.2036
36711SOL    HW215072  11.439   7.366   2.593  0.9191 -0.6639  0.3062
36712SOL     OW15073   2.706   6.373   0.220 -0.0240  0.0831  0.2187
36712SOL    HW115074   2.680   6.458   0.183 -0.3728  0.2585  0.8532
36712SOL    HW215075   2.789   6.390   0.265  0.2103 -0.0477 -0.1600
36713SOL     OW15076  10.410   3.323   0.832 -0.2148  0.0168 -0.2766
36713SOL    HW115077  10.383   3.354   0.746  0.1475  1.6157  0.1625
36713SOL    HW215078  10.359   3.375   0.894  1.6077  0.9597  0.5065
36714SOL     OW15079   0.921   3.239   7.845  0.3390 -0.0556  0.1471
36714SOL    HW115080   0.922   3.174   7.774  2.1498  0.0601  0.0317
36714SOL    HW215081   0.991   3.300   7.823  1.1091 -0.1594  2.1628
36715SOL     OW15082   0.497   1.152   9.329  0.1817  0.4268 -0.1388
36715SOL    HW115083   0.456   1.068   9.346  0.4324  0.1978 -0.6666
36715SOL    HW215084   0.524   1.183   9.416 -1.0340  0.5624  0.2154
36716SOL     OW15085   6.156  11.199  10.684  0.3202  0.2968 -0.0428
36716SOL    HW115086   6.093  11.266  10.710  1.2529  1.2823 -0.2392
36716SOL    HW215087   6.217  11.245  10.627  0.7473 -0.8322 -0.5281
36717SOL     OW15088   6.720   0.866   6.643 -0.4881 -0.3413  0.3101
36717SOL    HW115089   6.672   0.947   6.627 -1.4137 -0.6116  1.5370
36717SOL    HW215090   6.660   0.797   6.616  0.6085 -0.6395 -1.5051
36718SOL     OW15091   2.669   2.067   1.735 -0.1714 -0.2664 -0.2871
36718SOL    HW115092   2.666   2.002   1.665 -0.5002 -0.5567 -0.0071
36718SOL    HW215093   2.698   2.019   1.812 -0.4241 -0.0849 -0.0767
36719SOL     OW15094   4.737   9.642   6.531 -0.0706 -0.1693  0.3117
36719SOL    HW115095   4.652   9.623   6.492 -0.0961 -2.0515  1.2141
36719SOL    HW215096   4.772   9.557   6.558  1.2705  0.7486  1.6707
36720SOL     OW15097   4.591   0.173   5.305  0.1205 -0.9384  0.1068
36720SOL    HW115098   4.643   0.207   5.232 -0.2174 -1.7164 -0.5194
36720SOL    HW215099   4.646   0.105   5.344  0.8694  0.3850  1.4658
36721SOL     OW15100   0.621   8.594  10.805  0.0882 -0.7784  0.2062
36721SOL    HW115101   0.641   8.679  10.766 -0.0732 -0.8640 -0.0610
36721SOL    HW215102   0.682   8.533  10.763 -1.7730 -1.3409 -1.8173
36722SOL     OW15103   9.761   3.774   2.746 -0.0968 -0.5514  0.0707
36722SOL    HW115104   9.786   3.846   2.804 -0.4185 -0.4627  0.1016
36722SOL    HW215105   9.729   3.706   2.806  0.1585 -0.7014  0.0386
36723SOL     OW15106   3.628   0.381   4.248  0.1721 -0.0101  0.4297
36723SOL    HW115107   3.710   0.422   4.276 -1.0556  0.6917  3.3925
36723SOL    HW215108   3.571   0.455   4.227 -0.5776 -0.3582  1.1832
36724SOL     OW15109   0.624   6.263   6.855  0.1854 -0.5675  0.7241
36724SOL    HW115110   0.564   6.233   6.923 -0.7602 -0.9473 -0.2525
36724SOL    HW215111   0.593   6.220   6.775  1.4954 -0.4291  0.1134
36725SOL     OW15112   3.444   9.540   0.635 -0.2174  0.0650  0.1164
36725SOL    HW115113   3.432   9.549   0.541 -1.5293  1.4627  0.3714
36725SOL    HW215114   3.528   9.581   0.653  0.2435 -0.5960 -0.4839
36726SOL     OW15115   8.708   0.426   2.967  0.0871 -0.3334  0.0085
36726SOL    HW115116   8.625   0.441   3.013  1.0061 -0.0690  1.6430
36726SOL    HW215117   8.700   0.477   2.886 -1.2075 -0.0204  0.3139
36727SOL     OW15118  10.363   3.561   7.801 -0.5754  0.4308  0.6423
36727SOL    HW115119  10.432   3.531   7.741 -1.3664  0.8902 -0.5316
36727SOL    HW215120  10.411   3.592   7.878  0.4618 -0.2956  0.3106
36728SOL     OW15121   3.763   6.098   0.213 -0.3005  0.4126  0.9756
36728SOL    HW115122   3.856   6.083   0.196 -0.4111  0.4012  0.3846
36728SOL    HW215123   3.756   6.190   0.235 -0.4204  0.8871 -0.9075
36729SOL     OW15124   2.119  10.647   1.954 -0.3351  0.2584 -0.3104
36729SOL    HW115125   2.053  10.591   1.914 -0.7003  1.1239 -0.9751
36729SOL    HW215126   2.200  10.596   1.950 -0.8780 -0.6725  0.1910
36730SOL     OW15127   0.676  11.130   5.128  0.4475 -0.0418  0.1456
36730SOL    HW115128   0.631  11.076   5.063  0.6677 -0.6409  0.4771
36730SOL    HW215129   0.698  11.211   5.082  0.9384 -0.6101 -0.6397
36731SOL     OW15130   7.451   3.544   0.920 -0.1139 -0.0715 -0.6158
36731SOL    HW115131   7.482   3.537   0.829  1.4896 -1.3900 -0.0226
36731SOL    HW215132   7.443   3.453   0.949  0.2233  0.3396  0.8267
36732SOL     OW15133  11.595   6.977   0.343  0.0434 -0.0801 -0.6626
36732SOL    HW115134  11.595   7.004   0.435 -0.5014 -1.4197 -0.2430
36732SOL    HW215135  11.526   6.911   0.338  2.6481 -2.9936 -1.1333
36733SOL     OW15136   2.008   9.608  11.635  0.1968  0.1037  0.0297
36733SOL    HW115137   2.037   9.558  11.712  0.4467 -0.2421 -0.2848
36733SOL    HW215138   2.084   9.661  11.611  0.5462 -0.6894 -0.7023
36734SOL     OW15139   2.753   3.906   2.141 -0.2927 -0.5092  0.1716
36734SOL    HW115140   2.698   3.877   2.213 -0.6651  0.4454  0.2872
36734SOL    HW215141   2.705   3.978   2.100  0.6094 -0.0036 -0.0522
36735SOL     OW15142   5.001   5.808   8.849 -0.1597  0.1074 -0.4322
36735SOL    HW115143   4.970   5.737   8.906 -1.2322 -0.1143 -1.2693
36735SOL    HW215144   4.922   5.840   8.806  0.4811  1.0591 -0.9126
36736SOL     OW15145   1.019   1.855   4.478  0.2696 -0.0041  0.6405
36736SOL    HW115146   1.028   1.798   4.554  2.9110 -1.8276 -0.9018
36736SOL    HW215147   1.092   1.916   4.484  2.4207 -2.0677 -1.7788
36737SOL     OW15148   9.894   8.114   5.362  0.1841  0.1055  0.3753
36737SOL    HW115149   9.962   8.175   5.332 -0.9703  0.2528 -2.2256
36737SOL    HW215150   9.922   8.029   5.329  1.0904 -0.6670  2.8433
36738SOL     OW15151  10.659  11.526   8.854 -0.4172 -0.1236 -0.4017
36738SOL    HW115152  10.575  11.514   8.899  0.3182 -0.3146  0.9832
36738SOL    HW215153  10.694  11.607   8.890 -0.5630  0.6344 -1.9144
36739SOL     OW15154   9.236   2.367   5.304 -0.0692  0.3247 -0.4706
36739SOL    HW115155   9.198   2.351   5.217  0.6171  0.1740 -0.7443
36739SOL    HW215156   9.229   2.283   5.349  0.9636 -0.0079 -0.9190
36740SOL     OW15157   8.566   6.818   2.241 -0.2243 -0.4548  0.2266
36740SOL    HW115158   8.528   6.892   2.195 -0.9551 -1.5891 -1.0991
36740SOL    HW215159   8.534   6.825   2.330  0.3417  1.2140  0.3321
36741SOL     OW15160   9.496   7.036   4.361 -0.1461  0.3846  0.5473
36741SOL    HW115161   9.479   6.986   4.281 -0.4121 -0.3872  1.0688
36741SOL    HW215162   9.555   7.106   4.333  1.1407 -0.8538 -0.0366
36742SOL     OW15163   2.869   9.054   6.199  0.3350 -0.1139  0.1536
36742SOL    HW115164   2.897   9.135   6.242 -0.9373  0.9525 -0.9317
36742SOL    HW215165   2.815   9.009   6.263 -0.3087  0.7276  0.2219
36743SOL     OW15166   2.903   4.539   0.341  0.3547  0.1615 -0.7694
36743SOL    HW115167   2.819   4.535   0.387  0.5824  3.7622  0.2949
36743SOL    HW215168   2.886   4.593   0.264  1.9269  2.4761  0.3913
36744SOL     OW15169   4.159   1.684   6.857  0.0469 -0.6618  0.3139
36744SOL    HW115170   4.153   1.731   6.774 -0.7752 -0.6609  0.3684
36744SOL    HW215171   4.080   1.631   6.861  0.3385 -1.0697  0.8521
36745SOL     OW15172  11.252   2.170   9.670 -0.3451  0.4978  0.2801
36745SOL    HW115173  11.262   2.221   9.750  0.7060 -3.3814  2.9056
36745SOL    HW215174  11.185   2.105   9.692 -0.7651 -0.0933 -2.4065
36746SOL     OW15175  10.433   0.415   9.822 -0.1780 -0.3859  0.0727
36746SOL    HW115176  10.365   0.445   9.762  0.4918  0.8929 -0.0738
36746SOL    HW215177  10.499   0.374   9.766 -0.6252 -1.2557  0.1738
36747SOL     OW15178   4.279   7.696   5.060 -0.3133 -0.0706 -0.1431
36747SOL    HW115179   4.281   7.780   5.106  1.3947 -0.6834  0.9701
36747SOL    HW215180   4.245   7.634   5.125 -1.3131 -0.3320 -0.8767
36748SOL     OW15181   4.236   3.244   9.973 -0.4768 -0.3676 -0.0452
36748SOL    HW115182   4.144   3.238   9.948 -0.1626 -1.0880 -1.0760
36748SOL    HW215183   4.274   3.305   9.910  0.3066 -2.1402 -1.3705
36749SOL     OW15184   1.868   0.872   2.025  1.2105  0.3249 -0.5315
36749SOL    HW115185   1.817   0.952   2.035  1.3601  0.5874 -1.7273
36749SOL    HW215186   1.807   0.810   1.984  1.0761 -0.1999  0.4424
36750SOL     OW15187   1.495   8.695  10.778 -0.0201 -0.5490  0.2998
36750SOL    HW115188   1.459   8.632  10.840  0.6991 -1.0376  0.2318
36750SOL    HW215189   1.582   8.715  10.812 -0.2298  0.3937  0.3103
36751SOL     OW15190   9.714   9.092  10.715  0.2742 -0.0164  0.5537
36751SOL    HW115191   9.620   9.089  10.697 -0.0638  0.4583  2.1549
36751SOL    HW215192   9.743   9.174  10.676  0.1072 -0.3209 -0.2422
36752SOL     OW15193   4.210   2.627   2.461 -0.1529 -0.4023 -0.2989
36752SOL    HW115194   4.147   2.598   2.526 -0.8111 -0.0368 -0.7586
36752SOL    HW215195   4.166   2.698   2.415  0.8894  0.3811 -0.1239
36753SOL     OW15196   9.668   7.321   7.757  0.1037 -0.3406  0.2264
36753SOL    HW115197   9.687   7.379   7.831  0.0567 -0.1684  0.1050
36753SOL    HW215198   9.744   7.331   7.699 -0.3128  0.3063 -0.2327
36754SOL     OW15199   3.594   2.113   6.203 -0.9564 -0.4216 -0.0622
36754SOL    HW115200   3.669   2.064   6.168  0.1585  1.6417 -0.7300
36754SOL    HW215201   3.583   2.186   6.142 -2.2752  0.4110  1.1115
36755SOL     OW15202   7.715   7.011   9.466  0.1423 -0.4123  0.4663
36755SOL    HW115203   7.697   7.103   9.486  1.1817  0.3850 -1.8792
36755SOL    HW215204   7.810   7.007   9.453  0.1707 -1.9183  0.9442
36756SOL     OW15205   1.930   9.701   4.731 -0.2754 -0.3801 -0.0754
36756SOL    HW115206   1.935   9.609   4.758 -1.0595 -0.7945 -1.2572
36756SOL    HW215207   1.836   9.716   4.717  0.0059 -0.0272 -1.8684
36757SOL     OW15208   3.337  11.216  11.251  0.4502  0.2485  0.0790
36757SOL    HW115209   3.329  11.311  11.248  1.1228  0.4001  1.8241
36757SOL    HW215210   3.424  11.198  11.215  0.3400  0.2881 -0.2105
36758SOL     OW15211   2.849  11.423   6.242  0.2214 -0.0495  0.2657
36758SOL    HW115212   2.925  11.419   6.300  0.8609 -0.5580 -0.5795
36758SOL    HW215213   2.878  11.477   6.168  0.3956 -1.6693 -0.9086
36759SOL     OW15214   9.659   1.162   2.343  0.1380  0.3731  0.0548
36759SOL    HW115215   9.755   1.164   2.341  0.1629  1.2309  1.2374
36759SOL    HW215216   9.632   1.222   2.273  0.3792 -1.8759 -2.1413
36760SOL     OW15217   3.744   0.566   5.995 -0.0529 -0.3257  0.6607
36760SOL    HW115218   3.720   0.475   6.012 -0.7060 -0.3140 -0.1339
36760SOL    HW215219   3.706   0.615   6.069 -0.2867 -0.6137  0.7341
36761SOL     OW15220   4.612  10.707   0.164  0.1205 -0.2815 -0.0591
36761SOL    HW115221   4.550  10.664   0.105 -0.8728  0.9453  0.0414
36761SOL    HW215222   4.689  10.651   0.164 -0.8653 -1.6817 -0.4553
36762SOL     OW15223   0.946   1.694  10.134  0.6362  0.0297  0.0379
36762SOL    HW115224   1.029   1.648  10.125 -0.0192 -0.9615 -1.1666
36762SOL    HW215225   0.968   1.787  10.123  1.7543 -0.0869  1.0887
36763SOL     OW15226   5.386   3.190   0.873  0.1885  0.0156 -0.4589
36763SOL    HW115227   5.363   3.135   0.948  0.5479  0.4785 -0.0010
36763SOL    HW215228   5.304   3.233   0.849  0.3764  1.0336  0.6452
36764SOL     OW15229   8.356   5.964   4.500 -0.2108 -0.1806 -0.7188
36764SOL    HW115230   8.325   6.054   4.493 -2.1504 -0.6282  1.1213
36764SOL    HW215231   8.302   5.915   4.439  1.3578 -0.0562 -2.2902
36765SOL     OW15232   0.760   9.281   3.846  0.1431  0.4000 -0.1271
36765SOL    HW115233   0.726   9.272   3.756 -1.2168 -2.3327  0.5348
36765SOL    HW215234   0.699   9.230   3.899  2.2282 -0.0154  2.0121
36766SOL     OW15235   0.119   7.969   8.847  0.0096 -0.1853 -0.1202
36766SOL    HW115236   0.046   8.023   8.815 -0.4340 -0.5810  0.2122
36766SOL    HW215237   0.183   7.972   8.776 -0.9713 -1.0676 -1.0833
36767SOL     OW15238   1.213   2.380   3.777 -0.8277 -0.1631 -0.3153
36767SOL    HW115239   1.249   2.297   3.749  3.1844  1.5157 -0.7701
36767SOL    HW215240   1.163   2.412   3.702 -1.6232 -1.6695 -0.4579
36768SOL     OW15241   9.624   3.014   7.680  0.2673 -0.0866 -0.5301
36768SOL    HW115242   9.652   2.944   7.621  0.5006  0.4926 -1.1273
36768SOL    HW215243   9.669   2.996   7.762  0.1604 -0.7482 -0.6118
36769SOL     OW15244   9.586   7.221  10.305  0.3056  0.4063 -0.0283
36769SOL    HW115245   9.681   7.213  10.294  0.4908 -1.4492  2.0864
36769SOL    HW215246   9.574   7.294  10.365  0.6057 -0.5360  1.2357
36770SOL     OW15247  10.562   0.661   0.480  0.0417 -0.1321 -0.2902
36770SOL    HW115248  10.483   0.715   0.482  0.4601  0.5004 -0.2920
36770SOL    HW215249  10.627   0.715   0.435  0.0620 -1.2406 -1.6690
36771SOL     OW15250   8.563   6.075   7.315  0.0789  0.6473  0.2536
36771SOL    HW115251   8.531   6.097   7.403  1.6794  1.3305  0.6966
36771SOL    HW215252   8.612   6.152   7.287  0.7379 -0.0877 -0.6693
36772SOL     OW15253   5.305   4.543   4.502 -0.6205  0.3597 -0.1182
36772SOL    HW115254   5.219   4.518   4.468  0.0927 -0.7136 -1.2255
36772SOL    HW215255   5.313   4.636   4.479 -0.5136 -0.1138 -2.2837
36773SOL     OW15256   0.668   0.138   4.914  0.3034 -0.1293  0.3967
36773SOL    HW115257   0.745   0.186   4.884 -0.8473  1.6656  0.1887
36773SOL    HW215258   0.685   0.121   5.007  0.5291  1.1763  0.6166
36774SOL     OW15259   3.945   1.487   2.709  0.1206 -0.0302  0.4851
36774SOL    HW115260   3.876   1.445   2.657 -0.1148  1.0610 -0.1139
36774SOL    HW215261   4.025   1.444   2.679 -0.2760 -1.3258  1.2060
36775SOL     OW15262   0.488   5.441  11.158 -0.2965 -0.0409 -0.2181
36775SOL    HW115263   0.500   5.364  11.102  0.7011  0.1078 -0.2237
36775SOL    HW215264   0.544   5.508  11.119 -0.9128  0.5908 -0.0242
36776SOL     OW15265   7.980   9.963  11.030 -0.0858 -0.0461  0.2706
36776SOL    HW115266   7.984   9.868  11.023 -1.5585 -0.0576 -0.7946
36776SOL    HW215267   8.045   9.985  11.096 -0.4990 -1.8867  1.3441
36777SOL     OW15268   2.428   0.526   9.749  0.4999  0.1693  0.7951
36777SOL    HW115269   2.519   0.521   9.719  0.5487 -1.3031  1.0966
36777SOL    HW215270   2.394   0.438   9.737 -1.7798  1.2877 -1.9332
36778SOL     OW15271   1.968  10.015  10.744 -0.0723  0.3395  0.0991
36778SOL    HW115272   2.051   9.990  10.786  0.7514  1.3937 -0.8302
36778SOL    HW215273   1.945  10.098  10.787 -2.1139 -1.2244  2.2745
36779SOL     OW15274   8.895   2.047   9.576 -0.4270  0.6564 -0.4217
36779SOL    HW115275   8.807   2.022   9.604 -0.6577  2.2234  0.3712
36779SOL    HW215276   8.933   2.090   9.653  1.3252 -0.6327 -0.4938
36780SOL     OW15277  11.589   5.323   2.627  0.1193 -0.1669  0.6463
36780SOL    HW115278  11.656   5.257   2.647 -0.2688 -0.0592  2.4618
36780SOL    HW215279  11.507   5.283   2.654 -0.2050  0.7963  1.1240
36781SOL     OW15280   9.870   8.567  10.299 -0.6436  0.3263 -0.1784
36781SOL    HW115281   9.955   8.534  10.330 -0.9785  0.4184  0.8929
36781SOL    HW215282   9.813   8.490  10.297 -0.6493  0.3378 -0.4834
36782SOL     OW15283   9.943   2.597  10.424 -0.4953  0.1054  0.5324
36782SOL    HW115284   9.933   2.504  10.446  1.4935 -0.4415 -0.6293
36782SOL    HW215285   9.864   2.619  10.375 -0.2562 -1.4792 -0.6598
36783SOL     OW15286   5.018   9.200   8.297 -0.4224 -0.7418  0.4701
36783SOL    HW115287   4.983   9.129   8.243  3.8702 -1.3652 -1.9639
36783SOL    HW215288   5.032   9.160   8.383  0.0924 -2.2872 -0.2925
36784SOL     OW15289   8.152   6.210  10.590  0.6968  0.3133  0.4112
36784SOL    HW115290   8.194   6.294  10.607  0.9600 -0.0267  1.5226
36784SOL    HW215291   8.189   6.150  10.655 -2.8887  0.4170  2.8614
36785SOL     OW15292   4.007   8.651   1.278  0.0588 -0.3765 -0.6797
36785SOL    HW115293   4.093   8.640   1.320  0.2311  0.8851 -0.6659
36785SOL    HW215294   4.001   8.578   1.217  1.9227  0.4762 -1.9759
36786SOL     OW15295   0.563   1.428   3.745 -0.1849 -0.3895  0.0665
36786SOL    HW115296   0.544   1.477   3.826  0.6324  1.3178 -0.7169
36786SOL    HW215297   0.478   1.420   3.702 -0.4766 -0.4476  0.6462
36787SOL     OW15298   3.970  10.385  10.610 -0.4449 -0.0198  0.5372
36787SOL    HW115299   4.011  10.472  10.609  0.2703 -0.3459  0.6792
36787SOL    HW215300   4.036  10.327  10.572 -1.1500 -0.4061 -0.1223
36788SOL     OW15301   5.214   6.202  10.506 -0.4034  0.3589 -0.2870
36788SOL    HW115302   5.256   6.137  10.450 -1.1279  0.2206 -0.6882
36788SOL    HW215303   5.132   6.222  10.461  0.5072  2.7518 -1.0442
36789SOL     OW15304   2.322   0.250   3.900  0.5105 -0.5779  0.4117
36789SOL    HW115305   2.317   0.344   3.921 -0.8003 -0.7540  0.9338
36789SOL    HW215306   2.414   0.237   3.875  0.7979  0.7758  0.6563
36790SOL     OW15307   2.510  10.211   5.109 -0.1660  0.5830 -0.5923
36790SOL    HW115308   2.584  10.225   5.051  1.0753  1.6853  1.1697
36790SOL    HW215309   2.440  10.266   5.072  0.2612  0.4696 -1.5965
36791SOL     OW15310   6.836   8.322   0.509  0.0433 -0.5517  0.4385
36791SOL    HW115311   6.884   8.350   0.587  1.6261  0.6506 -0.9047
36791SOL    HW215312   6.824   8.401   0.458 -0.1147 -1.4610 -0.9910
36792SOL     OW15313   7.956   5.283   7.655 -0.0605  0.2078 -0.4804
36792SOL    HW115314   8.050   5.300   7.656  0.1754 -1.0122 -0.0583
36792SOL    HW215315   7.922   5.335   7.582  0.9649  0.5492 -0.7188
36793SOL     OW15316   6.622   5.516   3.529 -0.3485 -0.1965  0.3882
36793SOL    HW115317   6.548   5.510   3.590 -1.1538 -2.6221 -0.7056
36793SOL    HW215318   6.698   5.490   3.581 -0.5226  0.6311  1.0785
36794SOL     OW15319  10.545   1.866   1.814 -0.7103 -0.2920  0.1628
36794SOL    HW115320  10.450   1.857   1.812 -1.3847  4.2132 -2.0057
36794SOL    HW215321  10.565   1.884   1.906 -2.0545 -0.5036  0.5259
36795SOL     OW15322   0.931   8.917   9.346 -0.4733  0.2685  0.1058
36795SOL    HW115323   0.950   8.964   9.427 -2.4134  1.4313 -0.0414
36795SOL    HW215324   1.003   8.938   9.288 -0.4449  1.7060  0.6254
36796SOL     OW15325  10.241   8.625   7.407  0.6907 -0.3159 -0.6313
36796SOL    HW115326  10.268   8.711   7.375  0.2908 -0.0721 -0.3174
36796SOL    HW215327  10.277   8.619   7.495 -1.8825  0.8504  0.6129
36797SOL     OW15328   5.947   8.720   0.546  0.4700 -0.3059  0.0485
36797SOL    HW115329   5.960   8.674   0.463 -0.1436  0.1796 -0.3226
36797SOL    HW215330   5.946   8.813   0.522 -1.8104 -0.2218  0.2774
36798SOL     OW15331   5.016   0.944   1.726 -0.1748  0.0626  0.4105
36798SOL    HW115332   4.975   0.863   1.697  0.1933 -0.3029  0.8825
36798SOL    HW215333   5.101   0.945   1.683 -0.1514  0.1591  0.4585
36799SOL     OW15334   5.108   5.445   7.982  0.0687  0.3098 -0.3738
36799SOL    HW115335   5.148   5.383   7.922 -1.9501 -1.2190 -0.2302
36799SOL    HW215336   5.141   5.420   8.068 -0.2400 -0.1652 -0.3903
36800SOL     OW15337   4.322   3.748   9.291  0.5379  0.0909  0.7857
36800SOL    HW115338   4.378   3.695   9.236  1.0011  0.8484  0.5132
36800SOL    HW215339   4.281   3.811   9.231 -1.4614 -1.1132  0.7843
36801SOL     OW15340   4.705   9.012  10.573  0.4816 -0.2083  0.5346
36801SOL    HW115341   4.679   9.036  10.484  0.3438 -1.5211  0.2026
36801SOL    HW215342   4.626   9.026  10.625  0.8553  1.5981  0.6880
36802SOL     OW15343   5.293   9.213  11.116  0.1227  0.0659  0.0863
36802SOL    HW115344   5.306   9.158  11.039  2.4796  1.6598 -0.7637
36802SOL    HW215345   5.378   9.255  11.131 -1.0538  2.0736  1.7684
36803SOL     OW15346   5.894   3.685   6.855 -0.5696  0.0402 -0.9924
36803SOL    HW115347   5.871   3.758   6.912 -3.1333 -0.9470 -0.5836
36803SOL    HW215348   5.844   3.611   6.891  0.7050 -1.5355 -2.2989
36804SOL     OW15349   5.751   7.170   5.604  0.0703  0.0404  0.0405
36804SOL    HW115350   5.762   7.253   5.649  0.6217  0.2977 -0.5627
36804SOL    HW215351   5.742   7.193   5.511  1.8243 -0.6373 -0.3482
36805SOL     OW15352   8.038   9.838   1.761  0.1115  0.3734 -0.5495
36805SOL    HW115353   8.061   9.746   1.775 -0.6358 -0.1640 -2.4913
36805SOL    HW215354   8.058   9.854   1.668  0.5753  2.2914 -0.1645
36806SOL     OW15355   1.162   9.314   9.601  0.2007  0.1712 -0.1542
36806SOL    HW115356   1.128   9.225   9.605  0.3731  0.1383  0.9674
36806SOL    HW215357   1.255   9.305   9.584  0.6265  0.0184  2.0135
36807SOL     OW15358   9.809   3.960   5.616  0.0409  0.7057  0.1312
36807SOL    HW115359   9.766   3.993   5.695 -1.8387  1.3221 -1.1063
36807SOL    HW215360   9.751   3.984   5.544  1.2169 -0.7034 -1.3763
36808SOL     OW15361  10.509   6.022   9.805  0.1858  0.0804 -0.1605
36808SOL    HW115362  10.585   6.006   9.749 -0.1539  0.4889 -0.7469
36808SOL    HW215363  10.546   6.054   9.888  0.7001 -0.7436 -0.0667
36809SOL     OW15364   8.928   9.090  10.947 -0.3851 -0.1120  0.3487
36809SOL    HW115365   8.904   9.107  10.856  2.1330  2.0243 -0.0450
36809SOL    HW215366   8.914   9.174  10.991  0.8746 -0.3931  1.3263
36810SOL     OW15367   5.422   1.600   1.132  0.3904 -0.2607  0.9938
36810SOL    HW115368   5.343   1.645   1.102  1.9653  1.0390 -1.6558
36810SOL    HW215369   5.412   1.510   1.101 -0.8213 -0.6163  2.3391
36811SOL     OW15370   0.415   5.515   4.428  0.3354  0.5448 -0.2700
36811SOL    HW115371   0.465   5.455   4.482  0.8624 -1.0813 -2.4479
36811SOL    HW215372   0.466   5.596   4.427  2.0288 -0.4913 -0.9712
36812SOL     OW15373   8.717   8.318  11.088 -0.4702  0.2877  0.3630
36812SOL    HW115374   8.718   8.411  11.114 -1.3354 -0.3774  3.0888
36812SOL    HW215375   8.806   8.287  11.106 -0.9168 -0.0321  2.2370
36813SOL     OW15376   9.965  11.503  10.594 -0.2022 -0.2594  0.3370
36813SOL    HW115377  10.045  11.552  10.575  1.1337 -1.4459  2.4556
36813SOL    HW215378   9.945  11.525  10.685 -2.6409  0.4085 -0.2934
36814SOL     OW15379   6.218   0.728   0.349  0.1242 -0.0845  0.7124
36814SOL    HW115380   6.225   0.794   0.280  1.3916  0.2981  1.1700
36814SOL    HW215381   6.126   0.728   0.373 -0.1219  0.6169 -0.1655
36815SOL     OW15382   7.151   4.410   2.601  0.6025 -0.0236  0.0307
36815SOL    HW115383   7.167   4.478   2.535 -0.4641 -0.5379 -0.7995
36815SOL    HW215384   7.236   4.393   2.640  1.1950  0.5570 -0.9736
36816SOL     OW15385   3.583   3.558   0.609  0.6937 -0.2264 -0.5842
36816SOL    HW115386   3.581   3.553   0.513 -1.0203 -0.3394 -0.5854
36816SOL    HW215387   3.573   3.468   0.638  0.4422 -0.1178 -0.3229
36817SOL     OW15388  10.770   1.397   7.218 -0.0723 -0.1624  0.1552
36817SOL    HW115389  10.854   1.408   7.261  0.1140  0.3653 -0.3288
36817SOL    HW215390  10.724   1.331   7.270  0.3723  0.0428  0.8140
36818SOL     OW15391   4.216  11.557   2.715  0.3839  0.2343  0.6302
36818SOL    HW115392   4.245  11.518   2.633  1.1783 -1.3446  1.6118
36818SOL    HW215393   4.294  11.600   2.750 -0.3642  2.3884 -0.2028
36819SOL     OW15394   0.953   6.379   9.584 -0.4816  0.3589 -0.5357
36819SOL    HW115395   0.869   6.338   9.565  0.6675 -4.0830  2.5585
36819SOL    HW215396   1.008   6.356   9.509 -0.8600 -0.6856 -0.5072
36820SOL     OW15397   8.508   8.018   4.084  0.1380  0.2298 -0.4166
36820SOL    HW115398   8.491   7.924   4.090 -1.4949  0.5676  0.9576
36820SOL    HW215399   8.433   8.053   4.036 -0.8052  1.1634  1.6189
36821SOL     OW15400   5.227   6.408   7.991  0.3978 -0.3732 -0.8444
36821SOL    HW115401   5.303   6.376   8.039  0.3301  2.0243  1.0980
36821SOL    HW215402   5.153   6.393   8.050 -0.1190  0.2739 -1.3085
36822SOL     OW15403   3.576   6.578   0.315 -0.1393 -0.1141  0.2142
36822SOL    HW115404   3.603   6.628   0.392  0.9358  0.1575 -0.3275
36822SOL    HW215405   3.533   6.642   0.259  1.2126  0.2310 -0.4669
36823SOL     OW15406   4.020  10.496   7.162  0.5174 -0.7243 -0.3713
36823SOL    HW115407   3.996  10.514   7.253 -1.2618 -0.4900 -0.8576
36823SOL    HW215408   3.998  10.576   7.115  4.4427  0.4162 -0.5965
36824SOL     OW15409  10.708   1.550   1.001  0.1330  0.1544  0.2902
36824SOL    HW115410  10.732   1.458   1.005  0.4871  0.2647  0.7671
36824SOL    HW215411  10.770   1.594   1.059  0.4353  0.7953 -0.4861
36825SOL     OW15412   9.156   9.849   9.237  0.1017  0.1967 -0.1944
36825SOL    HW115413   9.219   9.777   9.234 -0.2620 -0.1033 -1.1047
36825SOL    HW215414   9.129   9.854   9.328  0.6043 -0.4060 -0.0072
36826SOL     OW15415   1.800   7.765   1.648 -0.7154  0.8806  0.1179
36826SOL    HW115416   1.785   7.789   1.739 -0.5091 -0.1422  0.4358
36826SOL    HW215417   1.893   7.743   1.644 -0.7498  0.8082 -0.3137
36827SOL     OW15418   1.185   2.511   4.020 -0.2126 -0.2219 -0.1607
36827SOL    HW115419   1.189   2.434   4.077 -2.0094  0.3478  0.8186
36827SOL    HW215420   1.186   2.476   3.931  2.2339 -1.1543  0.1711
36828SOL     OW15421   8.865   6.930   4.557 -0.2858 -0.3159  0.3681
36828SOL    HW115422   8.952   6.895   4.577 -0.1356  0.1717  0.5648
36828SOL    HW215423   8.818   6.855   4.519  0.2433 -0.5600  0.1780
36829SOL     OW15424   2.758   6.005   0.191 -0.4939  0.2640  0.2618
36829SOL    HW115425   2.759   5.911   0.173  0.9121  0.1887  0.6618
36829SOL    HW215426   2.675   6.035   0.155 -1.0144 -1.1471  0.2202
36830SOL     OW15427   3.484  11.513   1.162 -0.4562 -0.1456  0.4904
36830SOL    HW115428   3.572  11.525   1.126 -1.1282  0.3455 -1.0818
36830SOL    HW215429   3.482  11.421   1.189  0.1837 -0.4669 -0.4965
36831SOL     OW15430   9.571   8.180  10.541 -0.1421  0.6405  0.2406
36831SOL    HW115431   9.588   8.099  10.493 -2.2083 -0.4927  1.3141
36831SOL    HW215432   9.484   8.169  10.578  1.0897  1.6076  3.8723
36832SOL     OW15433   9.062   8.202   9.741 -0.4518  0.4321  0.7162
36832SOL    HW115434   8.999   8.211   9.669  0.0141 -0.3723  0.1982
36832SOL    HW215435   9.067   8.108   9.757  0.3096  0.5197  1.0264
36833SOL     OW15436   9.787   1.697  10.570 -0.4831  0.2027  0.2030
36833SOL    HW115437   9.717   1.691  10.506 -1.1031 -0.0719  0.8955
36833SOL    HW215438   9.745   1.731  10.649  0.6460  2.4587 -0.0884
36834SOL     OW15439   2.755   9.897   4.003  0.7945 -0.3232  0.0158
36834SOL    HW115440   2.780   9.943   4.083 -1.1775  1.0399 -0.1065
36834SOL    HW215441   2.769   9.961   3.933 -3.2182  0.7650 -0.0202
36835SOL     OW15442   9.383   9.024   5.538  0.1693 -0.3132  0.1699
36835SOL    HW115443   9.295   8.989   5.524 -0.4419  1.7651 -1.8889
36835SOL    HW215444   9.379   9.064   5.624 -0.7806 -0.5624  0.2581
36836SOL     OW15445  10.459   3.304   5.007 -0.6503 -0.2585 -0.0422
36836SOL    HW115446  10.540   3.269   4.970 -0.5471  1.3217 -1.4072
36836SOL    HW215447  10.470   3.399   5.004 -2.3641 -0.0199  0.2155
36837SOL     OW15448   6.895   8.468   1.242  0.0204 -0.5129  0.1951
36837SOL    HW115449   6.882   8.563   1.253 -0.4605 -0.3081 -1.6906
36837SOL    HW215450   6.806   8.432   1.242 -0.0568 -0.4988 -2.2574
36838SOL     OW15451  11.014  11.253  11.165 -0.4590  0.2704  0.0207
36838SOL    HW115452  11.100  11.276  11.198 -0.7600 -0.5680  1.4657
36838SOL    HW215453  11.029  11.178  11.107 -0.1612  0.4972 -0.1986
36839SOL     OW15454   5.005   8.413   2.668  0.0641  0.5817 -0.7146
36839SOL    HW115455   5.042   8.500   2.685  0.9471 -0.1603  1.5339
36839SOL    HW215456   5.080   8.354   2.670 -0.7983 -0.5324  0.3325
36840SOL     OW15457   9.368   4.157   6.388  0.0816 -0.3118  0.3084
36840SOL    HW115458   9.432   4.228   6.384  0.7704 -0.9315  0.1034
36840SOL    HW215459   9.417   4.083   6.424 -0.7124 -0.5965  0.8305
36841SOL     OW15460   3.374   6.673   3.668 -0.0763  0.3752 -0.4150
36841SOL    HW115461   3.449   6.678   3.727 -0.7952  0.8096  0.4943
36841SOL    HW215462   3.372   6.758   3.624 -1.3754  1.2613  1.2795
36842SOL     OW15463   0.654   6.187   8.399 -0.1866  0.1365 -0.1308
36842SOL    HW115464   0.727   6.205   8.340 -0.0289  0.5120  0.1780
36842SOL    HW215465   0.691   6.127   8.464 -0.4377 -0.5091 -0.5729
36843SOL     OW15466   3.320   0.226   4.462  0.3576  0.5383 -0.1292
36843SOL    HW115467   3.311   0.231   4.557 -0.3410 -0.8672 -0.0916
36843SOL    HW215468   3.408   0.193   4.447  1.4507  3.2555 -0.0915
36844SOL     OW15469   8.323   1.329   5.409  0.4873 -0.4703 -0.2868
36844SOL    HW115470   8.249   1.333   5.349 -0.3081 -0.6726  0.6498
36844SOL    HW215471   8.287   1.289   5.489  1.4741 -0.0905  0.3724
36845SOL     OW15472  11.052   2.312   1.313 -0.4234 -0.8986  0.6076
36845SOL    HW115473  11.117   2.284   1.377  0.3497  1.5215  0.9707
36845SOL    HW215474  10.996   2.373   1.360  1.2002  2.3160 -1.2760
36846SOL     OW15475   8.555   6.225   3.502 -1.0132  0.1735  0.3937
36846SOL    HW115476   8.493   6.256   3.568 -2.8308 -0.8260 -0.7529
36846SOL    HW215477   8.530   6.133   3.487  1.2334 -0.4965  0.3824
36847SOL     OW15478   6.653   5.701   5.319  0.4489  0.0919  0.2496
36847SOL    HW115479   6.580   5.745   5.363  0.8018 -0.4848  1.4351
36847SOL    HW215480   6.666   5.621   5.369  1.8701  0.1660  0.0270
36848SOL     OW15481   2.721  10.905   3.526 -0.3690  0.2765  0.1342
36848SOL    HW115482   2.797  10.902   3.585 -0.1025 -0.4625 -0.2284
36848SOL    HW215483   2.645  10.903   3.584 -0.1537 -2.3825  0.4752
36849SOL     OW15484   9.925   7.432   3.760  0.6371 -0.1686  0.4939
36849SOL    HW115485   9.999   7.492   3.766  1.7158 -1.5139  1.2793
36849SOL    HW215486   9.944   7.364   3.824  0.2469 -2.2005 -1.4365
36850SOL     OW15487   1.337   9.379  11.096 -0.0348 -0.2570  0.0633
36850SOL    HW115488   1.336   9.407  11.188 -0.1426  1.1223 -0.3421
36850SOL    HW215489   1.350   9.459  11.046 -0.4463 -0.9233 -1.1635
36851SOL     OW15490   2.113   3.488   4.704 -0.2526 -0.4565  0.3833
36851SOL    HW115491   2.167   3.500   4.626 -1.8329 -0.4018 -0.7689
36851SOL    HW215492   2.087   3.395   4.701  0.3401 -0.6620  1.3147
36852SOL     OW15493   1.221  11.298   7.205  0.2309  0.2708  0.3650
36852SOL    HW115494   1.203  11.386   7.171  3.7236  1.3085  0.8355
36852SOL    HW215495   1.253  11.249   7.130 -2.1311 -0.8639  0.0017
36853SOL     OW15496   1.934   3.988   6.309  0.3414  0.0961 -0.2949
36853SOL    HW115497   1.978   3.983   6.224 -0.2372  0.9052 -0.6606
36853SOL    HW215498   2.002   4.016   6.370  0.6711 -0.1047 -0.5663
36854SOL     OW15499   4.253   8.466   4.145  0.2835 -0.9687  0.3135
36854SOL    HW115500   4.320   8.402   4.119 -0.6234 -2.2051  0.9407
36854SOL    HW215501   4.250   8.460   4.240  0.7353  0.6056  0.4560
36855SOL     OW15502  10.266   4.903   6.313  0.3321 -0.0920  0.0995
36855SOL    HW115503  10.200   4.849   6.357  0.6379 -2.0730 -1.7216
36855SOL    HW215504  10.349   4.878   6.355  0.4066 -0.6768 -0.3825
36856SOL     OW15505   6.659   1.468   9.714 -0.1867  0.2784 -0.0149
36856SOL    HW115506   6.625   1.518   9.640  0.9826  2.0635  0.5799
36856SOL    HW215507   6.582   1.432   9.756 -0.9854  0.5690 -1.1837
36857SOL     OW15508   1.534   5.391   8.197 -0.1888 -0.7875 -0.4321
36857SOL    HW115509   1.502   5.364   8.111  0.1333 -0.8060 -0.5495
36857SOL    HW215510   1.567   5.311   8.238  0.4530 -0.6432 -0.6443
36858SOL     OW15511   2.831   9.652   4.922 -0.3215 -0.1648  0.1816
36858SOL    HW115512   2.807   9.724   4.981 -0.5788  0.3127 -0.4904
36858SOL    HW215513   2.913   9.680   4.882 -0.4452 -0.2241 -0.1164
36859SOL     OW15514   9.599   9.109   7.054 -0.3816 -0.1841  0.3657
36859SOL    HW115515   9.543   9.109   6.977  0.4862  0.6583 -0.2866
36859SOL    HW215516   9.577   9.028   7.100 -1.1239 -0.5498 -0.6015
36860SOL     OW15517   9.613   2.817   5.873  0.2212 -0.0211 -0.1095
36860SOL    HW115518   9.601   2.858   5.787  0.5532 -0.5138 -0.3982
36860SOL    HW215519   9.525   2.803   5.906  0.0933  1.2898  0.1807
36861SOL     OW15520   9.255   2.527   1.249  0.4064 -0.1491  0.4240
36861SOL    HW115521   9.201   2.543   1.171  0.7394  3.1337  0.7365
36861SOL    HW215522   9.192   2.526   1.321  0.2070 -2.2740  0.2948
36862SOL     OW15523   4.440   6.531   2.048  0.3635  0.1983  0.4509
36862SOL    HW115524   4.368   6.587   2.018  0.2943  0.4217  1.0175
36862SOL    HW215525   4.493   6.517   1.970 -0.3997 -0.1362 -0.0266
36863SOL     OW15526   0.198   9.942   4.730  0.4038 -1.1205  0.4525
36863SOL    HW115527   0.105   9.965   4.726  0.8989  0.9098 -0.8804
36863SOL    HW215528   0.226   9.968   4.818 -0.0542 -0.7541  0.4895
36864SOL     OW15529  11.448   7.609   1.190 -0.2504  0.4341  0.0496
36864SOL    HW115530  11.490   7.532   1.228  0.0998 -0.2083 -1.5635
36864SOL    HW215531  11.365   7.577   1.155  0.4321  0.4752 -1.7175
36865SOL     OW15532  10.259   0.981   2.295  0.6440  0.3104 -0.5444
36865SOL    HW115533  10.168   1.008   2.310  0.0116 -0.2835 -2.8915
36865SOL    HW215534  10.271   0.988   2.200  3.6961  2.2375 -0.1552
36866SOL     OW15535   8.361  11.512   0.081  0.3036  0.1182 -0.4363
36866SOL    HW115536   8.316  11.523  -0.003  0.3313  0.7243 -0.3734
36866SOL    HW215537   8.382  11.418   0.084 -1.2037 -0.2386 -0.3335
36867SOL     OW15538   9.537   9.231  10.262  0.6005  0.1750  0.3182
36867SOL    HW115539   9.512   9.183  10.183 -0.1439 -0.8620  1.1607
36867SOL    HW215540   9.494   9.185  10.333  0.4189  1.7086  1.2457
36868SOL     OW15541   4.391   1.461   4.796  0.3755  0.5422  0.4201
36868SOL    HW115542   4.325   1.392   4.791  1.2585 -0.2603 -0.6929
36868SOL    HW215543   4.351   1.535   4.751 -0.6050  0.8173  1.6781
36869SOL     OW15544   3.556   7.457   2.860 -0.4901  0.5386  0.2427
36869SOL    HW115545   3.507   7.439   2.780 -2.1970  0.2856  1.2735
36869SOL    HW215546   3.596   7.373   2.883  0.6375  0.7909 -0.7081
36870SOL     OW15547   0.550   6.386   2.277  0.2090 -0.5740  0.1935
36870SOL    HW115548   0.548   6.342   2.192  0.4490 -1.9937  0.8924
36870SOL    HW215549   0.458   6.405   2.297 -0.1209 -2.5358  0.7379
36871SOL     OW15550   6.075   2.027   6.631  0.0409 -0.1198 -0.0586
36871SOL    HW115551   6.110   1.978   6.556  0.4056  0.5999 -0.3730
36871SOL    HW215552   6.052   2.112   6.594 -0.1278  0.1124  0.5786
36872SOL     OW15553   1.192  10.136   9.347  0.3963  0.1331 -0.0815
36872SOL    HW115554   1.172  10.155   9.438 -2.9667  0.8147 -0.8443
36872SOL    HW215555   1.208  10.042   9.345  0.4869  0.1094  1.1720
36873SOL     OW15556   0.237   2.462   5.294  0.1799 -0.2453 -0.3733
36873SOL    HW115557   0.259   2.431   5.382  0.8622 -0.3276 -0.5651
36873SOL    HW215558   0.229   2.381   5.242 -1.7346 -0.2876 -0.0645
36874SOL     OW15559   6.460   1.308   8.003 -0.1825 -0.2483  0.1439
36874SOL    HW115560   6.440   1.261   7.922  0.0362  0.5051 -0.3545
36874SOL    HW215561   6.545   1.348   7.988  0.3734 -0.9956  1.1584
36875SOL     OW15562   6.493   5.854   1.930  0.1461 -0.0970 -0.8685
36875SOL    HW115563   6.507   5.931   1.986 -0.6816  0.7443 -1.7605
36875SOL    HW215564   6.489   5.780   1.991 -0.9380  0.8161  0.2221
36876SOL     OW15565   9.539   4.026   5.440  0.2885 -0.6752 -0.1789
36876SOL    HW115566   9.470   4.092   5.452  1.1666 -0.0581  2.0114
36876SOL    HW215567   9.526   3.993   5.351  0.1455  2.8876 -1.6772
36877SOL     OW15568   6.795   5.064   7.632  0.2333  0.1562 -0.1986
36877SOL    HW115569   6.821   4.995   7.694 -2.2027  0.7771  1.6593
36877SOL    HW215570   6.723   5.026   7.582 -1.2190  1.3066  0.9243
36878SOL     OW15571   9.835   8.144  11.611  0.4867  0.4456 -0.0524
36878SOL    HW115572   9.780   8.068  11.631 -0.8661  1.4711  0.2334
36878SOL    HW215573   9.818   8.161  11.518  2.2801 -0.7268 -0.6690
36879SOL     OW15574  11.679  10.485   5.441  0.0794 -0.6467  0.0842
36879SOL    HW115575  11.649  10.398   5.469 -1.1816 -0.1029  0.5313
36879SOL    HW215576  11.603  10.524   5.398  1.0052 -0.2089 -1.2196
36880SOL     OW15577   0.916   0.102   8.521  0.3360  0.1752  0.1788
36880SOL    HW115578   0.966   0.078   8.599  1.3755  1.6294  0.0084
36880SOL    HW215579   0.866   0.179   8.548 -0.0717  0.0842 -0.3012
36881SOL     OW15580   7.491   9.438   6.811  0.4629 -0.0388  0.2658
36881SOL    HW115581   7.519   9.352   6.844  0.2035 -1.1174 -2.1079
36881SOL    HW215582   7.532   9.500   6.870  1.0880 -1.7849  1.7707
36882SOL     OW15583   2.420   8.571   5.152  0.1707 -0.1877  0.0124
36882SOL    HW115584   2.497   8.525   5.117  0.1777 -0.7641  0.7507
36882SOL    HW215585   2.400   8.525   5.234  1.3175  2.2570  1.8053
36883SOL     OW15586   0.942   9.129   0.864 -0.3187 -0.1084  0.2601
36883SOL    HW115587   0.988   9.139   0.781  0.4393 -0.9036  0.5618
36883SOL    HW215588   0.925   9.035   0.870  0.5411 -0.2066  1.4677
36884SOL     OW15589  10.456   5.642   3.296 -0.0049  0.1905 -0.3146
36884SOL    HW115590  10.415   5.723   3.266  1.2593  0.7513 -0.6272
36884SOL    HW215591  10.528   5.628   3.234 -1.0395 -1.9694 -1.1549
36885SOL     OW15592   7.692   6.713   2.017  0.3091 -0.3879  0.3631
36885SOL    HW115593   7.661   6.766   2.091  0.1977 -0.6867  0.5319
36885SOL    HW215594   7.654   6.626   2.032 -0.0758 -0.3355 -0.2740
36886SOL     OW15595   3.066   4.739  10.545 -0.6929 -0.0848 -0.0973
36886SOL    HW115596   3.058   4.737  10.641 -1.1140 -0.1962 -0.1347
36886SOL    HW215597   3.155   4.708  10.528  0.4485  2.7014  0.3955
36887SOL     OW15598   2.767   9.622   1.527  0.2456 -0.6934 -0.3451
36887SOL    HW115599   2.775   9.527   1.519  1.1960 -0.5200 -1.8611
36887SOL    HW215600   2.699   9.634   1.594  0.6163 -2.4133  0.4187
36888SOL     OW15601   5.303   1.723   9.510 -0.4557 -0.2295 -0.2242
36888SOL    HW115602   5.304   1.786   9.582 -0.4674  0.9522 -1.2259
36888SOL    HW215603   5.210   1.702   9.497 -0.3290 -2.0223  1.3988
36889SOL     OW15604   3.995   7.383   9.470 -0.4788 -0.2903 -0.0711
36889SOL    HW115605   4.008   7.354   9.560 -0.0736  0.3183  0.0759
36889SOL    HW215606   3.962   7.306   9.424  1.3179 -1.2201  0.1205
36890SOL     OW15607   6.103   2.781   8.429 -0.1719 -0.0104 -0.0407
36890SOL    HW115608   6.103   2.686   8.432  0.4288 -0.0143 -0.2270
36890SOL    HW215609   6.185   2.805   8.387  0.0052  0.6125  0.6321
36891SOL     OW15610   1.430   9.213   0.612 -0.5080 -0.5500 -0.8361
36891SOL    HW115611   1.384   9.206   0.696 -0.3270 -0.6658 -0.7468
36891SOL    HW215612   1.419   9.127   0.571 -0.1238 -0.6728 -0.6861
36892SOL     OW15613   2.913  11.424   7.401  0.4031 -0.0839 -0.1883
36892SOL    HW115614   2.952  11.446   7.316  1.4438 -0.6398  0.1334
36892SOL    HW215615   2.890  11.331   7.393  2.2503 -0.6803  0.7480
36893SOL     OW15616  11.672   2.109   0.498  0.1215  0.2362 -0.0126
36893SOL    HW115617  11.605   2.171   0.467 -0.3230 -0.7095 -1.0026
36893SOL    HW215618  11.648   2.091   0.589 -1.5801 -0.8241 -0.6206
36894SOL     OW15619   0.300   3.718   4.580  0.2030  0.0304 -0.4603
36894SOL    HW115620   0.328   3.800   4.621 -1.2534 -0.1452  0.9812
36894SOL    HW215621   0.361   3.652   4.614  0.0191  0.1638  0.1371
36895SOL     OW15622   4.635   6.551   3.655  0.6422  0.1926 -0.2126
36895SOL    HW115623   4.594   6.592   3.731 -0.9731  2.0815 -1.9897
36895SOL    HW215624   4.564   6.500   3.614  2.1584 -3.1290  0.9464
36896SOL     OW15625   4.248   9.472   6.972 -0.2157  0.6364  0.1789
36896SOL    HW115626   4.321   9.456   6.912  0.5664  0.4634  1.1559
36896SOL    HW215627   4.279   9.540   7.031 -0.1709 -0.6084  1.6730
36897SOL     OW15628   5.446   6.166   0.184 -0.0001  0.0530  0.4115
36897SOL    HW115629   5.355   6.173   0.155  0.6233 -0.0265 -1.8255
36897SOL    HW215630   5.485   6.251   0.161  0.8961 -0.5478 -0.3856
36898SOL     OW15631   4.417   9.415   0.359  0.4268  0.1055 -0.1646
36898SOL    HW115632   4.450   9.496   0.320  2.2551 -0.8671 -0.7531
36898SOL    HW215633   4.375   9.369   0.286  1.1221 -0.3378 -0.2911
36899SOL     OW15634  11.145   7.144   0.559 -0.3554  0.5241 -0.5707
36899SOL    HW115635  11.186   7.111   0.478 -0.4967  0.3210 -0.5613
36899SOL    HW215636  11.194   7.102   0.629  0.8581  1.9736 -0.4986
36900SOL     OW15637   2.016   6.723   4.166 -0.1156 -0.0180 -0.1374
36900SOL    HW115638   2.092   6.698   4.113 -1.5205 -0.9715 -1.8008
36900SOL    HW215639   1.949   6.658   4.144 -0.8200 -0.4389  2.8100
36901SOL     OW15640   2.572  11.685   2.903 -0.1633  0.6136  0.0040
36901SOL    HW115641   2.554  11.601   2.860 -1.5281 -0.1401  1.8918
36901SOL    HW215642   2.526  11.750   2.849 -1.9250 -0.3107  0.2954
36902SOL     OW15643   5.321   1.763   8.067  0.3952  0.2894  0.1867
36902SOL    HW115644   5.320   1.838   8.008 -0.2609  0.8678  0.9186
36902SOL    HW215645   5.245   1.711   8.041  0.5718  0.1246 -0.0035
36903SOL     OW15646   6.196   5.384   9.374  0.5775  0.0144  0.2005
36903SOL    HW115647   6.171   5.292   9.384 -0.8643  0.2895 -0.6835
36903SOL    HW215648   6.286   5.380   9.341 -0.1194 -1.1518 -1.7420
36904SOL     OW15649   1.515   9.572   8.896  0.2578  0.2566  0.3718
36904SOL    HW115650   1.545   9.516   8.968 -5.2492 -1.6255  1.7065
36904SOL    HW215651   1.489   9.654   8.939  2.2326  1.4460 -0.5629
36905SOL     OW15652   7.172   6.470   1.886 -0.2055  0.5055  0.2663
36905SOL    HW115653   7.095   6.494   1.937 -0.3475 -0.1146  0.3508
36905SOL    HW215654   7.137   6.433   1.805  0.0115  0.8153  0.0303
36906SOL     OW15655  10.598   4.952  11.363  0.6394 -0.0436  0.2749
36906SOL    HW115656  10.607   5.017  11.433  0.2435 -1.3742  1.6124
36906SOL    HW215657  10.568   4.873  11.407  0.5437 -0.9887 -1.3920
36907SOL     OW15658   6.511  10.305   4.712  0.2608  0.1040 -0.2850
36907SOL    HW115659   6.554  10.277   4.631  1.3834 -0.0117  0.3337
36907SOL    HW215660   6.429  10.254   4.714 -0.2288  0.7927 -1.7855
36908SOL     OW15661   9.434   8.374   0.759  0.0869 -0.0463  0.0759
36908SOL    HW115662   9.479   8.458   0.760 -0.6249  0.3854  2.4227
36908SOL    HW215663   9.359   8.386   0.817 -0.7729 -1.9229 -0.5684
36909SOL     OW15664   4.489   7.194   6.855  0.7310  0.2829 -0.1894
36909SOL    HW115665   4.514   7.216   6.945 -1.1926  1.2456  0.1583
36909SOL    HW215666   4.501   7.099   6.849 -1.0931 -0.1372  1.7842
36910SOL     OW15667   6.683   7.168   9.324 -0.1990  0.2408 -0.0994
36910SOL    HW115668   6.602   7.181   9.275 -1.3450  0.0621  1.6738
36910SOL    HW215669   6.745   7.134   9.259 -1.4589  0.6023 -1.5436
36911SOL     OW15670   2.293   2.697   5.388 -0.1853 -0.2020 -0.6589
36911SOL    HW115671   2.332   2.633   5.448 -2.1369 -0.2809  0.6441
36911SOL    HW215672   2.349   2.774   5.396 -0.5417 -0.0932  1.5977
36912SOL     OW15673   2.249   3.012   9.728  0.0009 -0.1904  0.4151
36912SOL    HW115674   2.305   3.088   9.709 -0.3022 -0.1933 -0.5767
36912SOL    HW215675   2.308   2.938   9.727 -0.1018 -0.3097 -1.5438
36913SOL     OW15676   7.134   7.193   6.389  0.0332 -0.1717  0.2839
36913SOL    HW115677   7.039   7.197   6.399  0.1105 -0.0584  0.9772
36913SOL    HW215678   7.166   7.274   6.430  0.2526  1.1285 -2.2230
36914SOL     OW15679   0.322   8.180   2.763 -0.1986  0.4024  0.0627
36914SOL    HW115680   0.386   8.228   2.816 -0.6855  0.9138  0.1965
36914SOL    HW215681   0.290   8.243   2.699 -0.6462  0.1900  0.0668
36915SOL     OW15682  10.466   5.246   9.900  0.1526 -0.6832 -0.3402
36915SOL    HW115683  10.514   5.274   9.978  0.5013 -0.9177 -0.4729
36915SOL    HW215684  10.400   5.185   9.934  0.8767 -1.4858 -0.3213
36916SOL     OW15685   4.648   8.790   2.466 -0.0972  0.3073 -0.5453
36916SOL    HW115686   4.724   8.734   2.449  0.2603 -1.0005  4.0292
36916SOL    HW215687   4.575   8.745   2.422  1.0329 -0.9948 -1.1564
36917SOL     OW15688   2.251   2.191   0.067  0.1064 -0.1209  0.2354
36917SOL    HW115689   2.191   2.205  -0.007  0.2742  0.1652  0.1518
36917SOL    HW215690   2.221   2.109   0.107 -0.3272  0.0091  0.1823
36918SOL     OW15691   3.833  10.159   5.262  0.3539  0.1394 -0.1898
36918SOL    HW115692   3.806  10.088   5.320 -1.0801  1.3967  0.7761
36918SOL    HW215693   3.900  10.206   5.311 -0.9734  1.2990  0.6088
36919SOL     OW15694   1.673   8.296  10.785 -0.2821  0.1263 -0.1779
36919SOL    HW115695   1.629   8.299  10.700 -0.0829  2.0278 -0.2566
36919SOL    HW215696   1.602   8.286  10.848 -0.6380  0.7818 -0.4585
36920SOL     OW15697   6.870  11.347   6.520 -0.0722  0.2600 -0.1029
36920SOL    HW115698   6.827  11.411   6.577 -0.9368  0.7465 -1.2609
36920SOL    HW215699   6.912  11.400   6.452  1.6478 -0.2567  0.4871
36921SOL     OW15700   7.350   3.576   8.815  0.2273  0.1754  0.5851
36921SOL    HW115701   7.407   3.501   8.794  0.5246  0.8590 -1.2352
36921SOL    HW215702   7.326   3.612   8.730 -1.2063  1.2156  1.3903
36922SOL     OW15703   5.029   2.566   6.871  0.4013 -0.1445  0.2092
36922SOL    HW115704   5.049   2.545   6.963 -1.0438 -0.9861  0.3547
36922SOL    HW215705   4.958   2.507   6.848 -0.1299  0.9446 -1.0634
36923SOL     OW15706   0.446   6.691   4.282  0.4561 -0.3604  0.4227
36923SOL    HW115707   0.515   6.634   4.250  1.5256  1.5024 -0.8376
36923SOL    HW215708   0.366   6.639   4.276  1.3003 -1.5619 -1.1676
36924SOL     OW15709   2.365   0.499   4.453 -0.5085  0.1807  0.4403
36924SOL    HW115710   2.410   0.578   4.483 -0.1403 -0.0099  0.3878
36924SOL    HW215711   2.369   0.439   4.527 -1.7403  0.5931  0.8791
36925SOL     OW15712   8.790  10.610   5.100  0.1931  0.4246  0.0578
36925SOL    HW115713   8.734  10.581   5.172  1.1708  0.8312  1.0093
36925SOL    HW215714   8.758  10.698   5.079  0.0681  0.4078  0.1727
36926SOL     OW15715   8.243   0.424   4.013  0.1818  0.1215 -0.0787
36926SOL    HW115716   8.328   0.467   4.015  0.5243 -0.5117 -0.4795
36926SOL    HW215717   8.186   0.479   4.067  1.2922 -0.3819  1.7099
36927SOL     OW15718  10.672   4.002  10.602 -0.0674  0.0541 -0.0328
36927SOL    HW115719  10.733   3.936  10.570 -0.6413  0.6372 -2.5751
36927SOL    HW215720  10.645   4.049  10.523  0.5287  3.5353  1.6402
36928SOL     OW15721   3.756   2.546   1.851  0.1793  0.3164 -0.2671
36928SOL    HW115722   3.687   2.566   1.787  0.6490  2.1833 -0.2460
36928SOL    HW215723   3.733   2.597   1.928  1.6305  1.0331 -0.2918
36929SOL     OW15724   1.510   9.345   2.204  0.2039  0.3079  0.3831
36929SOL    HW115725   1.515   9.391   2.287  0.4539  0.8487  0.0728
36929SOL    HW215726   1.503   9.253   2.228  0.7012  0.4233  0.9986
36930SOL     OW15727  11.649   7.285   2.962  0.2605  0.0379 -0.0466
36930SOL    HW115728  11.565   7.300   2.918  0.0741  1.1141  0.6520
36930SOL    HW215729  11.658   7.189   2.963 -0.6514 -0.0696 -0.6920
36931SOL     OW15730   3.394   5.284   9.305 -0.1008  0.3354  0.8595
36931SOL    HW115731   3.432   5.299   9.392  1.9319 -1.0436  0.2959
36931SOL    HW215732   3.437   5.204   9.274  0.6450  1.7651 -2.1694
36932SOL     OW15733   7.649   8.309   2.588  0.0850  0.2876  0.1058
36932SOL    HW115734   7.585   8.334   2.654 -2.1999 -1.5568 -1.2574
36932SOL    HW215735   7.597   8.281   2.513  2.5193 -0.4903 -1.4242
36933SOL     OW15736   9.790   6.602   0.364 -0.3514  0.8696  0.4767
36933SOL    HW115737   9.697   6.620   0.348 -0.3171  0.5473 -0.1270
36933SOL    HW215738   9.798   6.600   0.460 -0.8965  1.2476  0.5334
36934SOL     OW15739   0.197   0.413   2.096  0.4137  0.3509 -0.3979
36934SOL    HW115740   0.241   0.340   2.139 -1.0360  0.1276  0.8254
36934SOL    HW215741   0.192   0.388   2.004  1.3971 -0.3178 -0.2791
36935SOL     OW15742   4.991   4.625  10.930 -0.2371 -0.2174 -0.1879
36935SOL    HW115743   4.935   4.646  10.856 -0.7465 -2.7182 -0.6137
36935SOL    HW215744   4.936   4.640  11.007  0.0870  1.7726 -0.2977
36936SOL     OW15745  11.146   6.572  10.076  0.3579  0.4117 -0.5777
36936SOL    HW115746  11.115   6.637  10.139  0.7896  1.7382 -1.6810
36936SOL    HW215747  11.121   6.608   9.991  1.9050 -0.1360 -1.3005
36937SOL     OW15748  11.123   2.896   6.848  0.4822  0.0495  0.2641
36937SOL    HW115749  11.043   2.946   6.861  0.7234  0.5561 -0.1455
36937SOL    HW215750  11.181   2.956   6.800  1.5960  0.1812  1.6985
36938SOL     OW15751   1.502   3.383   1.084 -0.2298  0.3921 -0.1223
36938SOL    HW115752   1.540   3.348   1.003  2.1496 -0.2298  1.1744
36938SOL    HW215753   1.517   3.314   1.149 -0.9744  1.3706  1.1215
36939SOL     OW15754   9.984   8.292   0.279 -0.0029 -0.1619 -0.3956
36939SOL    HW115755   9.995   8.387   0.275 -0.8789 -0.0792 -1.5048
36939SOL    HW215756   9.890   8.279   0.288  0.3082 -0.9167  2.5048
36940SOL     OW15757  11.339   8.417   9.878  0.1186  0.2530  0.3106
36940SOL    HW115758  11.359   8.327   9.853  0.5341  0.5208 -0.3363
36940SOL    HW215759  11.413   8.445   9.931  1.0964  0.9558 -1.3669
36941SOL     OW15760   4.280  11.050   6.808 -0.4710  0.3942  0.4645
36941SOL    HW115761   4.291  10.958   6.786 -0.0049  0.3823  0.7382
36941SOL    HW215762   4.335  11.063   6.885 -1.1880  0.7017  0.9425
36942SOL     OW15763   1.724   8.875  10.417 -0.0159  0.3625  0.2648
36942SOL    HW115764   1.651   8.917  10.371  0.3304 -0.9472 -1.5441
36942SOL    HW215765   1.745   8.798  10.365  0.5531 -1.1102  2.5176
36943SOL     OW15766   0.986   3.114   2.601  0.6238  0.0261  0.0054
36943SOL    HW115767   1.048   3.087   2.534 -0.2607 -0.9759 -0.4319
36943SOL    HW215768   0.935   3.036   2.621 -0.3633  0.7634  0.5043
36944SOL     OW15769   4.676  10.056   0.311 -0.5984 -0.5935  0.0909
36944SOL    HW115770   4.701  10.000   0.385 -0.6272 -0.0161  0.5372
36944SOL    HW215771   4.719  10.139   0.327 -0.3264 -0.5635 -0.7241
36945SOL     OW15772   1.711   4.343   9.983  0.1464 -0.2017  0.5238
36945SOL    HW115773   1.695   4.384  10.068 -0.8205 -1.2361  0.8628
36945SOL    HW215774   1.648   4.271   9.979  0.8059 -0.7355 -0.6797
36946SOL     OW15775   7.577   0.592   3.019 -0.1517 -0.0189  0.0510
36946SOL    HW115776   7.665   0.590   3.058 -0.0977  0.6871 -0.0260
36946SOL    HW215777   7.540   0.675   3.049 -1.1647 -0.7463  0.8854
36947SOL     OW15778   4.660   1.430  11.073 -0.1705 -0.5721 -0.3855
36947SOL    HW115779   4.619   1.506  11.031 -0.3694  0.5059  1.6140
36947SOL    HW215780   4.634   1.356  11.019 -0.3572  0.7089 -2.1562
36948SOL     OW15781   8.689   4.033  10.107 -0.3852 -0.1915 -0.0188
36948SOL    HW115782   8.732   4.091  10.045  0.9396 -2.3258 -1.2292
36948SOL    HW215783   8.596   4.047  10.092 -0.0971  0.5598 -1.2930
36949SOL     OW15784   2.439   1.945   5.816 -0.1298 -0.4042 -0.0881
36949SOL    HW115785   2.514   1.990   5.779 -0.5604  0.7685  0.4234
36949SOL    HW215786   2.477   1.877   5.872  0.6349  1.5963  1.9502
36950SOL     OW15787   0.161   9.425   3.232  0.7847  0.1455  1.1526
36950SOL    HW115788   0.111   9.352   3.270 -0.4593  0.6994  0.5962
36950SOL    HW215789   0.168   9.404   3.139  0.5800  0.6597  1.0222
36951SOL     OW15790   9.549  10.209   5.854 -0.2722  0.2747  0.3192
36951SOL    HW115791   9.485  10.199   5.783 -1.3787  1.3764  1.1287
36951SOL    HW215792   9.587  10.296   5.840  2.0829 -0.8310 -0.9100
36952SOL     OW15793   2.892   3.656   0.638  0.7053 -0.7550 -0.8271
36952SOL    HW115794   2.890   3.713   0.715  1.7639  1.2154 -2.1763
36952SOL    HW215795   2.873   3.714   0.565  1.1341 -2.2963 -2.2146
36953SOL     OW15796   0.547  10.741  10.272  0.0268  0.2392 -0.0584
36953SOL    HW115797   0.464  10.744  10.319 -0.1367 -0.2704 -0.3096
36953SOL    HW215798   0.528  10.778  10.186  0.3776  1.3813  0.3424
36954SOL     OW15799   6.564   6.391   4.664  0.0686  0.0154  0.5389
36954SOL    HW115800   6.580   6.336   4.588 -1.4990  1.4384 -0.9125
36954SOL    HW215801   6.471   6.377   4.685 -0.6172  2.5129 -0.3477
36955SOL     OW15802   3.559   6.165   0.740  0.4635 -0.2378 -0.7419
36955SOL    HW115803   3.602   6.249   0.724 -0.6944  0.6728  0.6650
36955SOL    HW215804   3.542   6.130   0.653  1.1532  0.8737 -1.3571
36956SOL     OW15805  10.951   8.950   1.965 -0.0558  0.7871 -0.1019
36956SOL    HW115806  10.941   8.951   2.060  0.8071  1.1174 -0.0080
36956SOL    HW215807  11.019   9.015   1.947  1.7259 -1.1412 -0.7067
36957SOL     OW15808  10.239   5.996  10.644  0.1826  0.2076 -0.3895
36957SOL    HW115809  10.146   6.009  10.624  0.0634 -0.3133 -0.1770
36957SOL    HW215810  10.255   5.904  10.626  0.1908 -0.1763  1.4487
36958SOL     OW15811   1.742   7.196   3.615  0.0720 -0.8337 -0.5057
36958SOL    HW115812   1.797   7.185   3.692 -1.3704 -1.4542  0.4713
36958SOL    HW215813   1.668   7.249   3.645  1.6630  2.9354 -2.5756
36959SOL     OW15814   3.338  11.590   4.465 -0.0202 -0.6178 -0.0491
36959SOL    HW115815   3.296  11.658   4.411 -1.7617 -2.9739 -1.8585
36959SOL    HW215816   3.272  11.568   4.531  0.2453 -1.0767  0.0655
36960SOL     OW15817   7.691   6.951   0.252 -0.2880  0.3361 -0.3183
36960SOL    HW115818   7.638   7.024   0.220  0.5581  2.0864  2.0106
36960SOL    HW215819   7.779   6.969   0.220 -0.2692 -0.2521 -0.6116
36961SOL     OW15820   9.067   9.091   9.351 -0.1218 -0.3279  0.3759
36961SOL    HW115821   9.099   9.002   9.340 -0.8919 -0.5306 -0.2848
36961SOL    HW215822   9.004   9.086   9.422 -0.4944 -0.3923  0.0401
36962SOL     OW15823   5.126  11.523   8.959  0.2074  0.0051 -0.5918
36962SOL    HW115824   5.060  11.476   9.011  1.3270 -1.1659 -0.1880
36962SOL    HW215825   5.096  11.614   8.960 -0.6011 -0.2412  0.8538
36963SOL     OW15826   4.734   8.171   4.655  0.1455  0.2711 -0.1857
36963SOL    HW115827   4.656   8.145   4.704  0.7366 -1.8907 -0.2623
36963SOL    HW215828   4.807   8.144   4.711  0.9957  4.1346  0.8792
36964SOL     OW15829   1.643   3.125   2.628  0.1945  0.5513  0.2897
36964SOL    HW115830   1.651   3.104   2.535 -0.1008 -1.4370  0.6620
36964SOL    HW215831   1.706   3.196   2.642  0.2974  0.8316 -1.3981
36965SOL     OW15832   6.539   2.731   8.441  0.6134  0.4519 -0.6007
36965SOL    HW115833   6.625   2.729   8.400  0.6484 -2.1809 -0.5639
36965SOL    HW215834   6.551   2.686   8.525 -0.6523  0.6741 -0.2737
36966SOL     OW15835   5.456  11.598   7.443  0.3440 -0.0163 -0.3824
36966SOL    HW115836   5.533  11.563   7.398 -0.5214  0.1385 -2.0294
36966SOL    HW215837   5.412  11.520   7.479  1.3467 -0.0877  0.7613
36967SOL     OW15838   5.225   2.520   3.152 -0.2512  0.1541  0.6942
36967SOL    HW115839   5.202   2.474   3.071 -0.8369  1.4191  0.1087
36967SOL    HW215840   5.309   2.562   3.133  0.7628 -1.4035  1.5530
36968SOL     OW15841   2.274   4.181  11.607  0.1063  0.2214  0.1893
36968SOL    HW115842   2.368   4.192  11.621 -0.2481  1.3263  1.9713
36968SOL    HW215843   2.246   4.123  11.677 -0.7672  1.0491  0.5495
36969SOL     OW15844   1.680  11.537   8.663  0.5666 -0.4523  0.3344
36969SOL    HW115845   1.669  11.588   8.742  0.2456 -1.8940  1.2564
36969SOL    HW215846   1.593  11.533   8.624  0.2154 -1.6857  1.1786
36970SOL     OW15847  11.136   6.370   1.286 -0.1889 -0.0990 -0.0522
36970SOL    HW115848  11.089   6.380   1.203  0.6670 -1.5153 -0.7559
36970SOL    HW215849  11.146   6.459   1.319 -2.6505  0.3187 -0.2490
36971SOL     OW15850   6.499   3.579   7.378 -0.1031  0.0823  0.7898
36971SOL    HW115851   6.567   3.601   7.314 -0.1449 -1.3954  0.1922
36971SOL    HW215852   6.547   3.552   7.456 -0.0209  0.4736  0.8718
36972SOL     OW15853   8.603  10.624   8.673  0.7715  0.3781  0.3171
36972SOL    HW115854   8.682  10.622   8.620  1.5926 -0.5898  1.5250
36972SOL    HW215855   8.634  10.608   8.763 -0.8462 -0.5951  0.7357
36973SOL     OW15856   2.441   8.815   6.021 -0.3498  0.2686  0.3586
36973SOL    HW115857   2.535   8.822   6.010 -0.4664  0.7631 -0.4054
36973SOL    HW215858   2.417   8.733   5.977 -0.4438  0.8178 -0.6325
36974SOL     OW15859   8.318   9.975   3.507 -0.1433 -0.5732  0.1879
36974SOL    HW115860   8.301  10.056   3.555  2.0893 -0.3563  0.7043
36974SOL    HW215861   8.271   9.908   3.556  0.2836 -0.0189  1.3915
36975SOL     OW15862   4.919   4.634   3.429  0.0698  0.1005  0.5676
36975SOL    HW115863   4.945   4.703   3.490  3.3744  0.9913 -1.5402
36975SOL    HW215864   4.881   4.681   3.355  1.4248 -0.3256 -0.4496
36976SOL     OW15865   5.849  10.989  10.426  0.4160  0.1549  0.2206
36976SOL    HW115866   5.836  11.083  10.411 -1.0144  0.0553  0.6339
36976SOL    HW215867   5.811  10.947  10.349  0.8025 -0.0991  0.1649
36977SOL     OW15868   1.391   6.515   3.345  0.1795  0.1108  0.3639
36977SOL    HW115869   1.441   6.450   3.296 -0.1335  0.5082 -0.5061
36977SOL    HW215870   1.455   6.557   3.402  0.3131 -1.1911  1.1921
36978SOL     OW15871  10.110   7.073   1.427 -0.1630 -0.3547 -0.0821
36978SOL    HW115872  10.061   7.038   1.502 -0.0758 -0.0539  0.1171
36978SOL    HW215873  10.135   6.995   1.377 -1.2886 -0.4716 -0.4715
36979SOL     OW15874   2.010   2.412   7.524  0.1908  0.1382 -0.8731
36979SOL    HW115875   2.030   2.429   7.616  0.5437 -1.2732 -0.6741
36979SOL    HW215876   1.952   2.485   7.499 -0.6171  0.0862  0.6898
36980SOL     OW15877   3.899   2.740   7.407 -0.5077 -0.3763 -0.0851
36980SOL    HW115878   3.957   2.773   7.338 -1.1647  0.0083 -0.4620
36980SOL    HW215879   3.909   2.803   7.478 -0.4028 -0.3565 -0.1168
36981SOL     OW15880   0.149   2.775   1.619 -0.0839 -0.1893 -0.2937
36981SOL    HW115881   0.216   2.829   1.662 -0.0007 -0.2740 -0.3154
36981SOL    HW215882   0.146   2.696   1.672  0.5110 -0.5845 -0.8353
36982SOL     OW15883   9.633   4.851   6.348 -0.4761  0.4087 -0.0313
36982SOL    HW115884   9.720   4.821   6.375 -0.8520 -1.1922 -0.4759
36982SOL    HW215885   9.630   4.943   6.374  0.8635  0.1495  1.1913
36983SOL     OW15886   7.644   6.529   3.594 -0.4489  0.2301  0.2361
36983SOL    HW115887   7.606   6.488   3.517 -0.8698  1.9427 -0.5056
36983SOL    HW215888   7.733   6.551   3.567 -0.5221  0.6249  0.3193
36984SOL     OW15889   5.681   8.433   9.872 -0.3103 -0.1898 -0.1390
36984SOL    HW115890   5.771   8.403   9.889 -0.6820 -2.9483 -2.2616
36984SOL    HW215891   5.626   8.370   9.919 -1.1498  0.3362 -0.3966
36985SOL     OW15892   1.252   9.457  10.659 -0.6317  0.0538  0.7122
36985SOL    HW115893   1.302   9.378  10.676 -0.8165 -0.2667 -0.2021
36985SOL    HW215894   1.314   9.515  10.615 -0.9319 -0.1691 -0.0073
36986SOL     OW15895   8.536   6.249  10.992 -0.3545  0.3510 -0.5363
36986SOL    HW115896   8.625   6.241  10.959  0.1391 -0.2639  0.8578
36986SOL    HW215897   8.496   6.318  10.939  0.6330 -0.0356 -1.8207
36987SOL     OW15898   0.092   8.846   0.094 -0.1901  0.0118  0.0226
36987SOL    HW115899   0.170   8.865   0.147  0.0693 -1.4194  0.1955
36987SOL    HW215900   0.020   8.850   0.157  0.1457 -1.9371  0.5980
36988SOL     OW15901   0.406   7.436   6.829 -0.2402 -0.0204 -0.1840
36988SOL    HW115902   0.339   7.456   6.894  0.6759  1.0274  0.4770
36988SOL    HW215903   0.373   7.474   6.747  0.1609  1.7960  0.4436
36989SOL     OW15904   0.810   8.979  10.329 -0.0652  0.1205  1.0590
36989SOL    HW115905   0.857   8.896  10.341 -0.3633 -0.1728  0.3019
36989SOL    HW215906   0.820   9.025  10.412 -0.2646 -0.8724  1.6500
36990SOL     OW15907   8.388   0.648  10.049  0.4763  0.3615  0.4796
36990SOL    HW115908   8.337   0.654  10.129  0.9999 -0.8180  0.9275
36990SOL    HW215909   8.359   0.566  10.008 -1.1295  1.8269 -1.5252
36991SOL     OW15910   3.913   3.347   2.225  0.3112  0.4789  0.2386
36991SOL    HW115911   3.878   3.392   2.148  1.1263  1.3275  0.3495
36991SOL    HW215912   3.980   3.406   2.259 -0.7476  0.6211  2.2183
36992SOL     OW15913   7.650   1.147   3.837  0.4868  0.2394 -0.1404
36992SOL    HW115914   7.572   1.202   3.830  0.5370  0.5829  1.7040
36992SOL    HW215915   7.619   1.060   3.812 -0.4078  0.4443  0.2069
36993SOL     OW15916   6.836   4.232   2.118 -0.0729  0.0456 -0.3668
36993SOL    HW115917   6.841   4.296   2.189  0.3395 -1.3314  0.8930
36993SOL    HW215918   6.747   4.241   2.084 -1.0222 -0.6473  1.7232
36994SOL     OW15919   2.749   1.250   2.639  0.2442 -0.1573  0.6114
36994SOL    HW115920   2.824   1.215   2.592  0.7585 -1.1835  2.1023
36994SOL    HW215921   2.784   1.323   2.690  0.2705 -0.6504  1.3260
36995SOL     OW15922   9.443   5.134   1.894  0.0732  0.5677  0.0643
36995SOL    HW115923   9.517   5.194   1.885  2.4973 -2.2474 -0.2773
36995SOL    HW215924   9.387   5.154   1.819  1.4272  1.5776 -0.7374
36996SOL     OW15925   0.004   3.204   9.336 -0.0923 -0.8613  0.3943
36996SOL    HW115926  -0.058   3.209   9.263 -1.2039  2.4619  1.3851
36996SOL    HW215927   0.053   3.286   9.332  0.3723 -0.9251  2.8840
36997SOL     OW15928   3.859   9.698   9.039 -0.4276 -0.2104  0.5255
36997SOL    HW115929   3.812   9.657   9.111 -3.3096  2.5331  0.4341
36997SOL    HW215930   3.801   9.690   8.964  1.1473 -0.3007 -0.7541
36998SOL     OW15931   1.750   9.932   1.861  0.1729 -0.0316 -0.2656
36998SOL    HW115932   1.696   9.890   1.795  0.0428 -1.8378  0.9213
36998SOL    HW215933   1.824   9.969   1.812 -0.1649 -0.8868 -1.4601
36999SOL     OW15934   1.606   8.553   8.998  0.6158 -0.1149 -0.5632
36999SOL    HW115935   1.575   8.480   9.051 -1.1067 -0.0150 -1.3433
36999SOL    HW215936   1.619   8.515   8.911  1.0682  0.2273 -0.6506
37000SOL     OW15937   8.082   4.537   5.244 -0.2760 -0.4807 -0.4048
37000SOL    HW115938   8.098   4.442   5.246 -1.5755 -0.7081  0.3248
37000SOL    HW215939   8.157   4.575   5.289 -1.1381 -1.4093  1.9604
37001SOL     OW15940   3.369   5.366  10.753 -0.5302 -0.3328  0.2224
37001SOL    HW115941   3.288   5.407  10.781  0.2129  1.5328 -0.2105
37001SOL    HW215942   3.400   5.420  10.680  1.6422 -0.3178  1.0585
37002SOL     OW15943   8.749   6.995   1.863  0.4565 -0.0485 -0.0226
37002SOL    HW115944   8.832   6.977   1.907  1.1173 -0.1223 -1.2510
37002SOL    HW215945   8.721   6.910   1.830  0.3001  0.1115 -0.2997
37003SOL     OW15946   5.662   0.248   7.016 -0.5647  0.7281 -0.0180
37003SOL    HW115947   5.726   0.299   6.967 -0.3193  0.3910 -0.0569
37003SOL    HW215948   5.583   0.249   6.962  0.0621 -0.6433 -1.0348
37004SOL     OW15949   0.012   2.782  11.324  0.7132  0.1198  0.1916
37004SOL    HW115950  -0.018   2.697  11.294  0.2635 -0.5811  2.4352
37004SOL    HW215951   0.107   2.779  11.313  0.5709 -0.0537 -1.1478
37005SOL     OW15952   4.904   5.811   9.375  0.1771 -0.6490 -0.3801
37005SOL    HW115953   4.840   5.762   9.426  0.1497 -0.3590 -0.1309
37005SOL    HW215954   4.915   5.760   9.295  0.2438 -1.1237 -0.0706
37006SOL     OW15955   8.491   9.657  10.191 -0.5364  0.6618  0.1033
37006SOL    HW115956   8.427   9.621  10.252  0.2374  0.0751  0.5757
37006SOL    HW215957   8.448   9.735  10.155 -1.0812  0.8930  1.2302
37007SOL     OW15958   8.600   4.035   0.846 -0.5519 -0.2237 -0.3557
37007SOL    HW115959   8.691   4.006   0.852 -0.4782  0.0006 -0.3970
37007SOL    HW215960   8.557   3.993   0.920  0.0230  1.2972  0.9029
37008SOL     OW15961   7.527   2.239   2.737  0.4642 -0.4360  0.0230
37008SOL    HW115962   7.601   2.214   2.681 -1.2625 -2.1853 -1.6097
37008SOL    HW215963   7.472   2.161   2.740 -1.8217  1.1053  0.3707
37009SOL     OW15964   6.476   3.200   6.508 -0.6198  0.0172  0.1178
37009SOL    HW115965   6.514   3.287   6.518  0.5491 -0.0344 -2.9324
37009SOL    HW215966   6.543   3.140   6.539 -1.6791  0.0854  2.8724
37010SOL     OW15967   0.500   7.769  10.164  0.6390 -0.1689  0.5582
37010SOL    HW115968   0.445   7.843  10.139  1.6932  0.3327 -0.4133
37010SOL    HW215969   0.506   7.775  10.259  0.4370  0.8218  0.5234
37011SOL     OW15970  10.152   3.458   7.558 -0.0629  0.1636 -0.1732
37011SOL    HW115971  10.119   3.428   7.643 -2.9350 -0.1546 -1.2871
37011SOL    HW215972  10.220   3.394   7.535 -0.2395 -0.5809  1.2172
37012SOL     OW15973   0.429   6.440   6.869 -0.3120 -0.1055 -0.1775
37012SOL    HW115974   0.513   6.395   6.881 -0.7144 -0.8198  0.0055
37012SOL    HW215975   0.417   6.442   6.774  0.1576  0.4833 -0.2365
37013SOL     OW15976   0.758  10.094   7.492 -0.1153 -0.5560 -0.9230
37013SOL    HW115977   0.692  10.083   7.560  0.3515 -1.7115 -0.6154
37013SOL    HW215978   0.753  10.186   7.468  0.3505  0.1448  1.3608
37014SOL     OW15979   4.188   4.771   4.001  0.3405  0.3838 -0.2468
37014SOL    HW115980   4.093   4.779   4.013  0.4309  0.2274  0.5771
37014SOL    HW215981   4.226   4.799   4.084  0.9370 -1.2828  0.0915
37015SOL     OW15982   5.863   2.058  11.647 -0.1428 -0.5588  0.1011
37015SOL    HW115983   5.896   2.146  11.665  0.6720 -1.0728  1.2112
37015SOL    HW215984   5.864   2.051  11.551  0.6114  0.3231  0.0354
37016SOL     OW15985  10.997  10.254   1.757  0.2671 -0.3078  0.1658
37016SOL    HW115986  10.996  10.343   1.792 -1.0170 -1.3728  3.1749
37016SOL    HW215987  11.074  10.251   1.701  2.4271  1.7224  2.7572
37017SOL     OW15988   9.591   3.534   5.901  0.5499  0.9314 -0.6674
37017SOL    HW115989   9.520   3.539   5.837  0.7167  0.3119 -0.9120
37017SOL    HW215990   9.553   3.486   5.975  0.4620  1.3443 -0.4410
37018SOL     OW15991   8.909   4.315   9.906 -0.2920  0.0829 -0.0917
37018SOL    HW115992   9.002   4.339   9.910 -0.5039  0.8568  0.2987
37018SOL    HW215993   8.886   4.296   9.997 -0.0911 -1.8211 -0.3990
37019SOL     OW15994   0.256   6.177   4.135  0.2600  0.0290  0.0433
37019SOL    HW115995   0.216   6.106   4.186 -1.4714  0.5099 -0.5634
37019SOL    HW215996   0.236   6.256   4.184 -0.3603  0.3705 -0.7348
37020SOL     OW15997   9.076   4.917   5.812 -0.6602 -0.5731  0.2564
37020SOL    HW115998   9.017   4.985   5.845  1.4885  2.0175 -0.8403
37020SOL    HW215999   9.140   4.905   5.883  0.8138  1.0318 -0.7047
37021SOL     OW16000   3.976   2.135   9.118  0.1345 -0.5616 -0.4345
37021SOL    HW116001   3.882   2.143   9.101 -0.4062 -2.3139  1.4436
37021SOL    HW216002   3.996   2.208   9.176 -0.2105 -0.6067 -0.2588
37022SOL     OW16003  10.151   9.076   7.579 -0.3433  0.3634  0.6594
37022SOL    HW116004  10.122   9.109   7.664 -1.5258  1.0287  0.0276
37022SOL    HW216005  10.072   9.041   7.539  0.2896 -0.3715  0.0126
37023SOL     OW16006   5.844   1.746   8.707  0.4702 -0.2843  0.0033
37023SOL    HW116007   5.801   1.661   8.712 -1.4505  0.6973  1.9791
37023SOL    HW216008   5.934   1.729   8.732  1.1607 -2.2550 -3.2167
37024SOL     OW16009   4.932   4.047   7.016  0.2352  0.5013 -0.0065
37024SOL    HW116010   4.964   4.119   6.962 -1.5224  1.1875 -0.1831
37024SOL    HW216011   4.992   4.045   7.091  2.3515 -0.0728 -1.6022
37025SOL     OW16012  10.902   3.451   0.275 -0.9450 -0.2195  0.2123
37025SOL    HW116013  10.969   3.484   0.215 -1.3506  0.4932  0.1379
37025SOL    HW216014  10.888   3.361   0.248  0.4854 -0.6223  0.6790
37026SOL     OW16015   6.046   4.035  11.672  0.0101  0.4122 -0.0120
37026SOL    HW116016   6.085   3.951  11.649  1.5529  0.4351  2.1829
37026SOL    HW216017   6.006   4.066  11.591  1.3338 -1.3921 -1.4484
37027SOL     OW16018   6.591   7.632   4.216 -0.2921 -0.1166 -0.1567
37027SOL    HW116019   6.524   7.625   4.148 -0.3260 -1.0088 -0.0355
37027SOL    HW216020   6.556   7.582   4.290  0.2800 -0.1486  0.0973
37028SOL     OW16021   3.209   5.297   0.376  0.0395 -0.0755  0.2414
37028SOL    HW116022   3.216   5.282   0.282  0.9888 -0.1240  0.3060
37028SOL    HW216023   3.282   5.247   0.413  0.4777  0.9954  0.8761
37029SOL     OW16024   3.632   4.056   9.936  0.2938 -0.2617 -0.6453
37029SOL    HW116025   3.644   3.964   9.915 -0.2257  0.0894 -2.6205
37029SOL    HW216026   3.553   4.082   9.889 -0.1575  0.9619  0.6821
37030SOL     OW16027   3.995  10.744   2.989 -0.0379 -0.4466 -0.5266
37030SOL    HW116028   4.010  10.773   3.079  0.3117 -1.5749 -0.1970
37030SOL    HW216029   4.071  10.689   2.969 -0.5673 -0.9599 -1.1725
37031SOL     OW16030   8.932   7.996   0.399 -0.2174 -0.2715 -0.3832
37031SOL    HW116031   8.938   7.977   0.492  1.4119  0.4643 -0.3132
37031SOL    HW216032   8.839   8.012   0.384 -0.5440 -0.6766  1.0423
37032SOL     OW16033   0.144  10.923   1.053 -0.4972  0.0267  0.0020
37032SOL    HW116034   0.202  10.861   1.009  0.7002  0.5821  0.7494
37032SOL    HW216035   0.203  10.985   1.094 -1.5836 -0.1432  1.9111
37033SOL     OW16036   9.698  11.018   3.564 -0.1458  0.2821 -0.3698
37033SOL    HW116037   9.789  11.024   3.537 -0.0530  0.7971  0.0245
37033SOL    HW216038   9.666  10.937   3.525  1.1287 -1.1509  1.3916
37034SOL     OW16039   9.408   6.792   2.215  0.0480 -0.1564 -0.3503
37034SOL    HW116040   9.313   6.801   2.226  0.2951  1.8958  0.5588
37034SOL    HW216041   9.445   6.843   2.286  1.9077 -2.4772  0.4661
37035SOL     OW16042   1.072   8.835  11.062  0.1463  0.3749 -0.3023
37035SOL    HW116043   1.009   8.876  11.121 -0.3145  0.9434 -1.1665
37035SOL    HW216044   1.156   8.874  11.085  0.0515  0.2365  0.2908
37036SOL     OW16045  11.302   0.717  11.082  0.2724 -0.0449  0.2037
37036SOL    HW116046  11.370   0.685  11.022  1.1317  3.6368 -1.0727
37036SOL    HW216047  11.344   0.715  11.168  0.1251 -2.4612  0.2911
37037SOL     OW16048   7.271   6.324   2.490 -0.0476  0.2908 -0.4344
37037SOL    HW116049   7.360   6.294   2.470  0.1646  0.4416  0.2639
37037SOL    HW216050   7.258   6.303   2.582 -0.3363  1.2633 -0.2441
37038SOL     OW16051   8.255   6.135   1.050  0.0228  0.1103 -0.5108
37038SOL    HW116052   8.213   6.133   0.964 -0.5224 -0.3468 -0.2427
37038SOL    HW216053   8.260   6.228   1.073 -1.1835  0.1693 -0.3981
37039SOL     OW16054   4.966   0.056   5.881 -0.8011  0.1981  0.5669
37039SOL    HW116055   4.944   0.135   5.833 -1.0990  0.1926  0.6966
37039SOL    HW216056   5.059   0.041   5.861 -0.5749  0.9243  1.0364
37040SOL     OW16057   8.836   0.841   2.143  0.2592  0.2718 -0.5022
37040SOL    HW116058   8.742   0.856   2.142  0.2249  0.2947  1.0148
37040SOL    HW216059   8.854   0.796   2.061 -1.0706  0.2336 -0.7941
37041SOL     OW16060   7.356   3.590   7.241  0.1879  0.0060  0.2036
37041SOL    HW116061   7.359   3.507   7.290 -0.2287 -0.7244 -0.9755
37041SOL    HW216062   7.424   3.581   7.175 -0.9070 -0.0579 -0.9399
37042SOL     OW16063   6.098   4.449   0.249 -0.3026  0.2626  0.0627
37042SOL    HW116064   6.135   4.407   0.172 -0.4000 -0.9273  0.6357
37042SOL    HW216065   6.004   4.432   0.242 -0.1094 -1.6286  1.4372
37043SOL     OW16066   9.506   3.295   8.667 -0.1683 -0.0950 -0.1473
37043SOL    HW116067   9.573   3.335   8.612 -1.8415 -0.4251 -2.5800
37043SOL    HW216068   9.497   3.355   8.742  0.4165  1.7530 -1.4941
37044SOL     OW16069   5.075  10.345   1.880  0.1128 -0.1569 -0.1149
37044SOL    HW116070   5.024  10.275   1.839  0.0089 -1.1348  1.6036
37044SOL    HW216071   5.027  10.366   1.960  1.8125 -0.3493  0.9963
37045SOL     OW16072   4.174   5.531   0.776 -0.2553  0.5022 -0.4579
37045SOL    HW116073   4.097   5.480   0.801  0.2749  0.2369  0.6837
37045SOL    HW216074   4.216   5.554   0.860  2.2486 -1.4044 -1.0925
37046SOL     OW16075  10.530  11.228   0.447  0.2086 -0.2609 -0.1516
37046SOL    HW116076  10.566  11.192   0.366  0.1653 -0.6203 -0.0087
37046SOL    HW216077  10.436  11.214   0.441  0.3005 -1.1728  0.3972
37047SOL     OW16078   0.096  10.111   2.357  0.3507  0.4057  1.1564
37047SOL    HW116079   0.164  10.044   2.350  0.0917 -0.0945  2.9535
37047SOL    HW216080   0.119  10.175   2.290  1.3677 -0.8007  0.2943
37048SOL     OW16081   9.151   8.197  10.357  0.2589  0.0625  0.0173
37048SOL    HW116082   9.116   8.268  10.304 -1.1611 -1.0191 -0.5691
37048SOL    HW216083   9.238   8.181  10.321 -0.1941  0.1952 -1.1869
37049SOL     OW16084   6.198   6.489  11.635  0.8157  0.0493  0.2492
37049SOL    HW116085   6.257   6.441  11.577  0.2971  0.1874 -0.3993
37049SOL    HW216086   6.156   6.554  11.579 -1.1040 -1.0323  0.3342
37050SOL     OW16087   7.475   1.764   7.878  0.4284 -0.3965  0.0986
37050SOL    HW116088   7.478   1.859   7.868  0.4241 -0.3325  0.6479
37050SOL    HW216089   7.567   1.738   7.883  0.4157 -0.3261  0.7450
37051SOL     OW16090   2.014   9.157   0.380 -0.2451 -0.2017  0.3811
37051SOL    HW116091   2.093   9.104   0.373  0.6108  1.2043 -1.6300
37051SOL    HW216092   1.971   9.146   0.295 -1.6001 -0.0020  1.0217
37052SOL     OW16093   0.784  10.976   0.297  0.1445 -0.0462 -0.1098
37052SOL    HW116094   0.799  10.888   0.263 -0.3303 -0.0180 -0.4102
37052SOL    HW216095   0.771  11.030   0.219 -0.0748  0.1905  0.0895
37053SOL     OW16096   0.020  10.964   7.224  0.4529  0.2526 -0.0534
37053SOL    HW116097   0.093  10.925   7.177 -0.0613 -0.3453 -0.3716
37053SOL    HW216098   0.060  11.009   7.298  1.3396  1.7131 -1.3632
37054SOL     OW16099   7.584   4.118   3.512  0.3859 -0.0671  0.0365
37054SOL    HW116100   7.632   4.157   3.438  0.7707  1.1502  0.8960
37054SOL    HW216101   7.648   4.059   3.553  0.3358 -0.3499 -0.2833
37055SOL     OW16102   4.872   1.740   5.610  0.4440 -0.0109 -0.2741
37055SOL    HW116103   4.914   1.795   5.677 -1.0055  3.5886 -2.0330
37055SOL    HW216104   4.793   1.707   5.653  0.3803  0.8746  0.3208
37056SOL     OW16105   4.394   7.480   5.421  0.2947 -0.3816 -0.5530
37056SOL    HW116106   4.477   7.512   5.385  0.3233  0.6362  0.3550
37056SOL    HW216107   4.420   7.419   5.491  0.3270  0.7297  0.4390
37057SOL     OW16108   0.102  10.184   0.630 -0.1046  0.0819 -0.0985
37057SOL    HW116109   0.091  10.118   0.561  1.3330  1.3697 -1.6457
37057SOL    HW216110   0.152  10.254   0.589 -1.5915  2.2136  1.4593
37058SOL     OW16111   1.733   5.849   9.778  0.1021  0.1805 -0.7914
37058SOL    HW116112   1.798   5.893   9.723  0.3548 -0.2641 -0.8565
37058SOL    HW216113   1.748   5.755   9.761  0.0619  0.0459 -0.0997
37059SOL     OW16114   1.004   4.661  11.431  0.2796  0.1235 -0.4420
37059SOL    HW116115   0.969   4.750  11.438  0.7443  0.3595 -1.0139
37059SOL    HW216116   1.017   4.633  11.521  0.6762  0.8505 -0.2635
37060SOL     OW16117   1.605   0.802   9.414 -0.3036 -0.2424  0.0463
37060SOL    HW116118   1.535   0.850   9.370  0.5908  1.4139  0.3610
37060SOL    HW216119   1.607   0.717   9.370 -1.4394  0.2629 -1.0442
37061SOL     OW16120   2.603   1.441   3.827  0.2422  0.5704 -0.2334
37061SOL    HW116121   2.645   1.421   3.743  1.1017  0.3475  0.2389
37061SOL    HW216122   2.512   1.459   3.804  0.0068 -1.3703 -0.9993
37062SOL     OW16123   5.640   0.316   4.762 -0.1664  0.6839 -0.2259
37062SOL    HW116124   5.681   0.391   4.718  0.0331  0.9183  0.3548
37062SOL    HW216125   5.553   0.347   4.786 -0.1883  0.6340 -0.2406
37063SOL     OW16126   3.645   0.135   3.910  0.1402 -0.2187  0.2219
37063SOL    HW116127   3.627   0.229   3.911  1.9125  0.1905 -1.4044
37063SOL    HW216128   3.664   0.115   3.818  0.6595 -1.9958  0.6720
37064SOL     OW16129   6.457   2.898   3.839  0.1460  0.0545  0.1409
37064SOL    HW116130   6.377   2.874   3.886  0.7899 -3.1351 -0.1561
37064SOL    HW216131   6.437   2.882   3.747  1.2120 -1.2947  0.1076
37065SOL     OW16132   9.339   5.824   7.133  0.0652  0.4932  0.0117
37065SOL    HW116133   9.309   5.842   7.222 -0.1429  0.0007  0.0442
37065SOL    HW216134   9.293   5.744   7.108  1.8516 -0.6946  0.3297
37066SOL     OW16135   5.019   9.831   1.114 -0.1290 -0.2061  0.0995
37066SOL    HW116136   4.996   9.777   1.038 -0.3111 -0.5006  0.3639
37066SOL    HW216137   5.109   9.806   1.134  0.1508  0.3548 -0.4285
37067SOL     OW16138   7.340   9.937  10.138  0.2820 -0.0618 -0.8273
37067SOL    HW116139   7.399   9.941  10.214  0.6939  0.9857 -1.1903
37067SOL    HW216140   7.304   9.848  10.142 -1.4512  0.6497  1.8759
37068SOL     OW16141   7.482   1.001  10.247  0.1676 -0.0630 -0.5656
37068SOL    HW116142   7.508   1.078  10.197 -0.2777 -0.7121 -1.8471
37068SOL    HW216143   7.564   0.953  10.262  0.5538  0.9917  0.8777
37069SOL     OW16144   7.507   7.034   3.510  0.0488 -0.2486 -0.0178
37069SOL    HW116145   7.519   7.009   3.602 -0.2934 -0.0370  0.0840
37069SOL    HW216146   7.427   6.989   3.484 -0.4310  0.5359  0.0906
37070SOL     OW16147   8.937   7.739   8.674  0.1638 -0.2805  0.2274
37070SOL    HW116148   8.987   7.659   8.662  0.4670 -0.5105  2.4932
37070SOL    HW216149   8.957   7.766   8.764 -1.2644  1.3906  0.0935
37071SOL     OW16150   1.553   1.608   9.975  0.1117 -0.2370 -0.0856
37071SOL    HW116151   1.520   1.696   9.996 -0.7099 -0.7121  0.6607
37071SOL    HW216152   1.648   1.616   9.985  0.2145  0.9597 -1.5364
37072SOL     OW16153   0.810  11.003   7.241 -0.0039 -0.1462  0.0368
37072SOL    HW116154   0.906  10.994   7.240  0.1622  1.2049  1.4042
37072SOL    HW216155   0.795  11.098   7.242 -1.3310 -0.3486  1.1247
37073SOL     OW16156   7.942   7.637   9.242 -0.1091  0.0058  0.3062
37073SOL    HW116157   8.028   7.678   9.255 -0.3821  0.4771  0.6594
37073SOL    HW216158   7.897   7.650   9.326 -1.3782  1.8059 -0.5950
37074SOL     OW16159  11.182   5.744  11.362  0.1335 -0.3064  0.6772
37074SOL    HW116160  11.266   5.700  11.374 -0.3661 -1.4918 -0.0473
37074SOL    HW216161  11.152   5.717  11.275 -1.4164 -0.6227  1.2727
37075SOL     OW16162   9.545   9.821   1.946 -0.4706 -0.0872 -0.3872
37075SOL    HW116163   9.551   9.762   1.871  1.1291 -0.4874  0.0140
37075SOL    HW216164   9.611   9.790   2.007 -2.0033 -0.0324  1.4122
37076SOL     OW16165   4.625  10.584   3.152  0.1752  0.3718 -0.0126
37076SOL    HW116166   4.577  10.591   3.070  1.2958 -0.5956 -0.7935
37076SOL    HW216167   4.582  10.645   3.212 -0.8188  0.8958 -1.2440
37077SOL     OW16168   7.053   8.736   4.370  1.0207 -0.4464  0.0036
37077SOL    HW116169   7.025   8.662   4.317 -1.0608 -0.2473  0.7280
37077SOL    HW216170   6.999   8.809   4.340 -0.1544 -0.3028  2.2650
37078SOL     OW16171   1.259   3.413   8.131 -0.5453 -0.1671 -0.5398
37078SOL    HW116172   1.229   3.465   8.206 -0.5918 -0.6064 -0.2503
37078SOL    HW216173   1.324   3.469   8.088 -1.0644  0.3962 -0.6122
37079SOL     OW16174  10.277   6.086   1.270 -0.7260  0.1409 -0.2170
37079SOL    HW116175  10.241   6.075   1.182  0.5647 -0.3689 -0.7055
37079SOL    HW216176  10.306   6.177   1.273 -1.2002  0.2895 -0.1544
37080SOL     OW16177  10.665  10.588   8.327  0.4188  0.3260 -0.2813
37080SOL    HW116178  10.716  10.535   8.388 -0.2149 -1.3528 -1.1590
37080SOL    HW216179  10.575  10.583   8.359  0.4347  1.4660  0.0047
37081SOL     OW16180   4.641   7.604   5.348 -0.3923 -0.2241  0.2110
37081SOL    HW116181   4.676   7.543   5.283  0.1629  1.5823 -1.2612
37081SOL    HW216182   4.718   7.652   5.380 -1.0115  1.0698 -0.1488
37082SOL     OW16183   9.755   7.753   8.480  0.2537 -0.0649  0.4694
37082SOL    HW116184   9.822   7.813   8.447 -0.5980  0.9519  0.5602
37082SOL    HW216185   9.802   7.670   8.492  1.5436  0.6673  0.7101
37083SOL     OW16186   9.331   7.258   2.248 -0.3748  0.4277  0.0743
37083SOL    HW116187   9.346   7.249   2.154 -0.1320 -0.3881  0.1803
37083SOL    HW216188   9.387   7.191   2.288  0.2161  1.3648  0.8645
37084SOL     OW16189   7.991   8.990  10.129 -0.2352  0.2304 -0.4253
37084SOL    HW116190   8.002   8.932  10.205 -3.9971 -0.2704 -0.0413
37084SOL    HW216191   8.041   9.068  10.151 -1.5325  0.3051  2.9254
37085SOL     OW16192  10.119   8.287   7.217  0.0451  0.5880  0.0167
37085SOL    HW116193  10.030   8.294   7.181 -0.1518  0.2807  0.4443
37085SOL    HW216194  10.160   8.370   7.194 -0.7817  1.2872  0.9810
37086SOL     OW16195   5.274  10.045   5.126 -0.5327 -0.0362  0.1600
37086SOL    HW116196   5.218  10.019   5.199 -1.9182  0.6508 -0.6174
37086SOL    HW216197   5.267   9.973   5.064  0.8340 -0.7283  0.7695
37087SOL     OW16198   0.028   3.974   3.464 -0.1939 -0.5050 -0.3043
37087SOL    HW116199  -0.016   4.020   3.393  1.2681  1.3344 -0.0874
37087SOL    HW216200   0.096   4.034   3.494 -0.0433 -1.6557  1.9370
37088SOL     OW16201   2.553   4.956   7.535  0.5250 -0.4525  0.4737
37088SOL    HW116202   2.551   4.944   7.440 -0.5764 -0.1117  0.4445
37088SOL    HW216203   2.500   4.883   7.569 -2.3858  1.5359  0.5594
37089SOL     OW16204   9.301   7.634   8.691  0.0622 -0.7109  0.4579
37089SOL    HW116205   9.340   7.721   8.684  1.1225 -1.2623 -0.7245
37089SOL    HW216206   9.301   7.615   8.785 -0.7397  0.7867  0.7905
37090SOL     OW16207   6.027  10.574   6.466  0.6384  0.4983 -0.0187
37090SOL    HW116208   6.085  10.612   6.399  0.0624 -0.3413 -1.0365
37090SOL    HW216209   6.004  10.488   6.430 -0.8265  0.6146  0.5978
37091SOL     OW16210   5.789   6.858   9.042 -0.0248 -0.0575  0.0657
37091SOL    HW116211   5.831   6.933   9.084 -1.5757  0.5135  0.7009
37091SOL    HW216212   5.722   6.898   8.985 -0.3308 -0.9385 -0.2035
37092SOL     OW16213   6.233   0.563   7.505  0.5218 -0.4852  0.3549
37092SOL    HW116214   6.193   0.613   7.576  2.0538  1.2500  0.0799
37092SOL    HW216215   6.318   0.536   7.541  1.4421  0.6704 -0.8785
37093SOL     OW16216   5.489   2.845  11.459 -0.1081  0.0497  0.5363
37093SOL    HW116217   5.462   2.757  11.431 -1.3609  1.7865 -4.9361
37093SOL    HW216218   5.558   2.870  11.397 -0.4360  3.2242  1.2689
37094SOL     OW16219   6.323   7.686   4.609 -0.2382  0.1267 -0.6076
37094SOL    HW116220   6.391   7.740   4.648  1.1124  0.7034 -3.5143
37094SOL    HW216221   6.342   7.597   4.639  1.1370  0.4430 -0.4925
37095SOL     OW16222   4.319  11.098   3.950 -0.5774  0.2385  0.0373
37095SOL    HW116223   4.402  11.072   3.989 -0.4051  1.1508  0.3041
37095SOL    HW216224   4.343  11.164   3.885 -0.9830 -0.3615 -0.7296
37096SOL     OW16225   5.414   0.863   4.741 -0.1396 -0.1871  0.1949
37096SOL    HW116226   5.404   0.932   4.806 -0.9588  0.0131 -0.1393
37096SOL    HW216227   5.361   0.891   4.666 -1.1208 -1.5137  0.3478
37097SOL     OW16228   6.286   6.226   5.788 -0.2343 -0.2380  0.3994
37097SOL    HW116229   6.304   6.232   5.882  1.6246  0.0632  0.0524
37097SOL    HW216230   6.290   6.316   5.756 -0.6831 -0.3599 -0.0218
37098SOL     OW16231   5.789   3.211   6.809 -0.1341  0.2450 -0.3275
37098SOL    HW116232   5.881   3.193   6.790 -0.0261 -0.0413  0.4202
37098SOL    HW216233   5.761   3.138   6.864 -0.6472  0.6230 -0.0769
37099SOL     OW16234   0.739  11.412   9.434  0.2315  0.1148  0.3347
37099SOL    HW116235   0.655  11.386   9.396 -0.5388  1.4784  1.0302
37099SOL    HW216236   0.735  11.379   9.524  0.9470 -0.8170  0.0416
37100SOL     OW16237   7.604   3.331   7.215  0.2564 -0.2442 -0.1668
37100SOL    HW116238   7.549   3.253   7.206  1.2718 -0.9375 -0.6801
37100SOL    HW216239   7.624   3.357   7.125 -0.1513  0.6682  0.0062
37101SOL     OW16240   4.843   7.999   9.860 -0.5848  0.6321  0.6362
37101SOL    HW116241   4.878   7.963   9.942 -1.2824 -0.6100  0.4217
37101SOL    HW216242   4.910   7.979   9.795 -0.9022 -0.1608  0.5476
37102SOL     OW16243   7.841   9.770   3.924 -0.1954 -0.5750 -0.2229
37102SOL    HW116244   7.783   9.711   3.875  0.5232  0.8631 -3.0074
37102SOL    HW216245   7.924   9.768   3.877  0.9062  0.1248  1.5861
37103SOL     OW16246   3.823   5.987  10.069  0.9056 -0.2545 -0.2290
37103SOL    HW116247   3.740   5.956  10.106  0.2067 -0.2019 -1.7080
37103SOL    HW216248   3.868   5.908  10.041  0.7940 -0.1947 -0.5779
37104SOL     OW16249   7.689   0.130   5.800 -0.6446  0.1747 -0.2196
37104SOL    HW116250   7.635   0.054   5.823 -2.0183  1.3118  0.4833
37104SOL    HW216251   7.632   0.184   5.745  0.5020  0.4568 -1.1591
37105SOL     OW16252  11.661   6.445   8.722  0.0028 -0.2451  0.3986
37105SOL    HW116253  11.630   6.530   8.691  0.7484 -0.3149 -0.6012
37105SOL    HW216254  11.692   6.401   8.643 -1.1728 -1.8052  0.7848
37106SOL     OW16255   1.611   0.934   2.587  0.3332 -0.0882 -0.3797
37106SOL    HW116256   1.683   0.885   2.546  0.8913 -0.3822  0.9028
37106SOL    HW216257   1.550   0.950   2.515  0.7197 -1.5900 -1.0969
37107SOL     OW16258   4.247   9.189   6.265  0.2212  0.0104  0.3493
37107SOL    HW116259   4.305   9.235   6.204 -0.6296  0.0038 -0.4934
37107SOL    HW216260   4.185   9.256   6.293  0.6815  0.0425  1.3276
37108SOL     OW16261   0.000   0.212   1.483  0.2211  0.0888  0.5659
37108SOL    HW116262  -0.067   0.249   1.540 -1.6374 -1.3981 -0.5692
37108SOL    HW216263  -0.030   0.230   1.395 -0.7518 -3.8361 -0.0823
37109SOL     OW16264   3.404   5.546   2.097  0.3053 -0.8689  0.3001
37109SOL    HW116265   3.424   5.475   2.036  0.0118 -1.0204  0.3748
37109SOL    HW216266   3.322   5.518   2.139  0.6595 -0.9069  0.9738
37110SOL     OW16267   5.173   7.879   7.453  0.6834 -0.5400  0.2796
37110SOL    HW116268   5.210   7.887   7.365  0.0756 -0.5950  0.0138
37110SOL    HW216269   5.093   7.829   7.441  1.4103 -1.9444  1.1033
37111SOL     OW16270   3.898   0.877   5.262 -0.2278 -0.0104 -0.2129
37111SOL    HW116271   3.827   0.927   5.222 -0.4020  0.2269  0.3907
37111SOL    HW216272   3.975   0.899   5.209 -0.7014 -0.7061 -1.2257
37112SOL     OW16273   4.440   3.570  11.562 -0.1109 -0.0051  0.0140
37112SOL    HW116274   4.411   3.536  11.477 -0.0753  0.6223 -0.2554
37112SOL    HW216275   4.508   3.509  11.590  0.0503 -0.0762 -0.5237
37113SOL     OW16276   0.830   0.469  11.378 -0.0996 -0.7655 -0.0692
37113SOL    HW116277   0.784   0.411  11.318  1.6455 -2.3719  0.0536
37113SOL    HW216278   0.904   0.502  11.327 -1.2329  1.7026 -0.2485
37114SOL     OW16279   3.662   7.858   0.374  0.4859  0.1440 -0.3275
37114SOL    HW116280   3.572   7.860   0.406  1.1159  1.8298  1.4981
37114SOL    HW216281   3.714   7.833   0.450  1.6035 -0.8317 -1.3631
37115SOL     OW16282   5.913   3.530   6.144  0.2367 -0.2055  0.2824
37115SOL    HW116283   5.943   3.494   6.227  2.1004  2.4591  0.9092
37115SOL    HW216284   5.989   3.526   6.087 -0.3932 -0.0239 -0.5885
37116SOL     OW16285   0.771   5.837  11.589  1.0307 -0.6245  0.0647
37116SOL    HW116286   0.758   5.821  11.683 -0.7805 -0.6784 -0.1771
37116SOL    HW216287   0.814   5.923  11.586  2.1797 -1.1287  0.9638
37117SOL     OW16288   7.587   4.304   7.945  0.5011  0.2206  0.1046
37117SOL    HW116289   7.494   4.325   7.950  0.2379 -0.6910 -0.7201
37117SOL    HW216290   7.591   4.222   7.895  1.6672 -0.2967  0.9910
37118SOL     OW16291   0.760   0.134  11.324 -0.1688  0.7032 -0.4972
37118SOL    HW116292   0.836   0.082  11.298 -0.0839  0.7379 -0.3163
37118SOL    HW216293   0.707   0.141  11.244  0.1113  0.8437 -0.6702
37119SOL     OW16294   4.241   5.321   2.712 -0.0039  0.7924  0.0818
37119SOL    HW116295   4.250   5.343   2.619 -0.2381 -0.1283 -0.1670
37119SOL    HW216296   4.298   5.245   2.725  0.6431  1.4009  0.8846
37120SOL     OW16297   7.518   5.847   3.249  0.3167 -0.4756 -0.2704
37120SOL    HW116298   7.554   5.806   3.170  0.6210 -0.5222 -0.1107
37120SOL    HW216299   7.595   5.875   3.298  0.1139  0.0729 -0.2611
37121SOL     OW16300   5.276   3.019   6.715  0.5455  0.0719 -0.1457
37121SOL    HW116301   5.290   2.952   6.782  0.6556  1.7008  1.5555
37121SOL    HW216302   5.186   3.048   6.730  0.1627 -0.3203 -1.5064
37122SOL     OW16303   0.216   4.949   3.990 -0.1264 -0.0462  0.1392
37122SOL    HW116304   0.294   4.989   4.028  0.6926 -0.0453 -1.4611
37122SOL    HW216305   0.242   4.859   3.971 -0.4831 -0.0334 -0.4467
37123SOL     OW16306   7.552   9.091   4.840  0.1577  0.3600 -0.1762
37123SOL    HW116307   7.549   9.005   4.882 -0.6745  0.0708 -0.8103
37123SOL    HW216308   7.596   9.147   4.904 -0.9793 -0.0986  1.0553
37124SOL     OW16309   9.344   4.330   6.627 -0.5265  0.3324  0.3922
37124SOL    HW116310   9.338   4.235   6.624 -0.1758  0.2768  1.0717
37124SOL    HW216311   9.278   4.356   6.692 -0.5215  0.5384  0.3163
37125SOL     OW16312   8.007   8.165   9.206 -0.2933 -0.2158 -0.2289
37125SOL    HW116313   8.009   8.112   9.126  0.5472 -1.1020  0.3558
37125SOL    HW216314   8.054   8.245   9.183 -1.0175  0.0245 -0.9342
37126SOL     OW16315   9.412   7.434   0.861 -0.1433  0.1455  0.0342
37126SOL    HW116316   9.495   7.465   0.826  0.5139  0.4650  1.8156
37126SOL    HW216317   9.346   7.492   0.820  0.4335 -0.3195 -1.6323
37127SOL     OW16318   7.328   0.962   4.703 -0.6866 -0.0606  0.5562
37127SOL    HW116319   7.233   0.954   4.695 -0.7810 -2.9120  2.7457
37127SOL    HW216320   7.363   0.908   4.632 -0.5727  2.0216 -1.0630
37128SOL     OW16321   1.019   2.706  11.537  0.7804  0.3174 -0.3424
37128SOL    HW116322   1.058   2.743  11.458  2.2000  0.7927  0.5572
37128SOL    HW216323   0.976   2.780  11.580  0.0562  0.0707 -0.6302
37129SOL     OW16324   1.181   4.392   7.883 -0.0583 -0.1636  0.4750
37129SOL    HW116325   1.142   4.423   7.965  0.6721  1.7623  0.1297
37129SOL    HW216326   1.260   4.344   7.910 -0.4968 -0.6434  0.9410
37130SOL     OW16327   8.482   7.631   7.080  0.1281 -0.0872  0.0968
37130SOL    HW116328   8.542   7.617   7.007  0.0191  0.4632 -0.1058
37130SOL    HW216329   8.539   7.644   7.156  0.2558 -0.0199 -0.0098
37131SOL     OW16330   0.034   5.010   5.990  0.0677  0.0074  0.1861
37131SOL    HW116331  -0.048   5.009   5.941 -0.4429 -0.5189  1.0260
37131SOL    HW216332   0.102   5.016   5.923 -0.6712  1.3194 -0.4838
37132SOL     OW16333  10.255   1.873   9.738  0.1801 -0.0143 -0.9269
37132SOL    HW116334  10.306   1.899   9.814 -0.9650 -1.6896  0.4862
37132SOL    HW216335  10.222   1.956   9.703 -0.4861  0.7500  1.3151
37133SOL     OW16336   9.122   5.922   2.173  0.1167  0.0703  0.2582
37133SOL    HW116337   9.044   5.977   2.182  1.8192  2.9381 -1.1429
37133SOL    HW216338   9.091   5.843   2.129 -2.2370  0.4155  1.1810
37134SOL     OW16339   3.729   9.655   4.405  0.5551 -0.1893  0.2981
37134SOL    HW116340   3.688   9.680   4.487 -1.7675 -0.3594 -0.7339
37134SOL    HW216341   3.681   9.704   4.338  1.0261 -1.5711 -1.1291
37135SOL     OW16342   6.966   4.945   1.459  0.0913 -0.6982 -0.3060
37135SOL    HW116343   7.051   4.904   1.476  1.1228  1.8589  1.4106
37135SOL    HW216344   6.982   5.005   1.386 -0.0619  0.1349  0.3224
37136SOL     OW16345   6.956  10.933   6.587 -0.3402  0.3832 -0.2762
37136SOL    HW116346   6.912  10.866   6.638 -0.2505  1.0653  0.7241
37136SOL    HW216347   7.047  10.904   6.581 -0.9510 -1.3244 -2.8396
37137SOL     OW16348  11.498   9.850   0.406 -0.2712 -0.0231  0.2011
37137SOL    HW116349  11.544   9.791   0.466 -2.4112  0.0249  2.0120
37137SOL    HW216350  11.485   9.930   0.457 -1.0058  0.5173 -0.7982
37138SOL     OW16351   9.397   2.963  10.249  0.4074  0.0412 -0.5105
37138SOL    HW116352   9.345   2.883  10.242  0.6044  0.0131 -1.9698
37138SOL    HW216353   9.371   3.001  10.333  1.3553 -2.2599  0.9121
37139SOL     OW16354   6.368   3.155   1.425 -0.3718 -0.1879 -0.0299
37139SOL    HW116355   6.401   3.243   1.407  0.8825 -0.8922 -1.3718
37139SOL    HW216356   6.395   3.136   1.514  2.2259 -0.4086 -0.7934
37140SOL     OW16357   2.880   3.818   6.516 -0.0460 -0.6344  0.1033
37140SOL    HW116358   2.840   3.792   6.599  0.4485 -1.5409  0.0791
37140SOL    HW216359   2.854   3.749   6.454  0.4354 -0.5176 -0.2365
37141SOL     OW16360   6.839   2.909   8.939 -0.5209 -0.3572 -0.1728
37141SOL    HW116361   6.770   2.844   8.944  0.3627 -1.3272 -0.1228
37141SOL    HW216362   6.913   2.862   8.900  0.5126  0.2812  0.9418
37142SOL     OW16363   3.226   4.265   1.036 -0.0158  0.4884  0.1177
37142SOL    HW116364   3.239   4.358   1.051 -1.8694  0.8391 -0.1513
37142SOL    HW216365   3.241   4.224   1.121  3.1884  0.6579 -0.2386
37143SOL     OW16366   8.125   4.248   0.943 -0.0939  0.4855  0.1964
37143SOL    HW116367   8.150   4.181   1.007 -2.8501 -1.2061 -0.3430
37143SOL    HW216368   8.065   4.305   0.991 -0.3827  0.5578 -0.2451
37144SOL     OW16369   3.221   8.569   4.716 -0.3310 -0.4833  0.0634
37144SOL    HW116370   3.220   8.474   4.727  2.6670 -0.4535  1.5130
37144SOL    HW216371   3.198   8.603   4.803 -0.1064  0.1026 -0.1003
37145SOL     OW16372   4.519   1.907  10.491 -0.2457  0.1901 -0.5090
37145SOL    HW116373   4.591   1.876  10.436 -0.4522  0.2310 -0.8079
37145SOL    HW216374   4.452   1.935  10.428 -0.6977 -0.2672 -0.2349
37146SOL     OW16375   9.233   4.915  10.457 -0.3597 -0.4928  0.1857
37146SOL    HW116376   9.227   4.978  10.385  1.7309  0.9156  1.1451
37146SOL    HW216377   9.156   4.859  10.446 -1.0997  0.8218 -2.0319
37147SOL     OW16378   6.179   1.996   1.714 -0.0321 -0.3825 -0.3064
37147SOL    HW116379   6.251   1.936   1.733  0.4524 -0.2712 -1.6736
37147SOL    HW216380   6.100   1.947   1.738  0.3918 -1.2772 -0.6827
37148SOL     OW16381   0.491  10.035   4.243 -0.0978 -0.6275 -0.2084
37148SOL    HW116382   0.459  10.026   4.333  0.2980  2.0940  0.3111
37148SOL    HW216383   0.413  10.053   4.192 -0.2645 -1.6732 -0.3319
37149SOL     OW16384  10.785   1.455  11.008 -0.5240  0.2042  0.2405
37149SOL    HW116385  10.711   1.442  11.067 -0.0407 -2.0099  0.4604
37149SOL    HW216386  10.746   1.481  10.925 -1.3688  1.2427  0.9452
37150SOL     OW16387   8.182   5.059   5.645  0.3905 -0.2720 -0.2081
37150SOL    HW116388   8.236   5.137   5.655  1.6964 -1.0263 -1.2048
37150SOL    HW216389   8.096   5.085   5.679  1.1319  1.2072  0.6027
37151SOL     OW16390   0.246   5.313   3.184 -0.3122 -0.0002 -0.2381
37151SOL    HW116391   0.265   5.272   3.268 -0.5663 -0.3476 -0.3498
37151SOL    HW216392   0.153   5.296   3.169 -0.6960  1.5085  0.2012
37152SOL     OW16393   3.538   9.929   2.619 -0.2341 -0.3889  0.0108
37152SOL    HW116394   3.452   9.959   2.650 -0.2520  0.0195 -0.4313
37152SOL    HW216395   3.580  10.008   2.586  0.9032 -0.2929  1.5463
37153SOL     OW16396   9.769   5.942   1.075 -0.2795  0.2692 -0.1319
37153SOL    HW116397   9.734   5.936   0.986 -2.0435  0.3533  0.5143
37153SOL    HW216398   9.700   5.906   1.131  0.1189  1.6652  1.3509
37154SOL     OW16399   6.392   5.122   0.712 -0.9326 -0.0287 -0.5108
37154SOL    HW116400   6.479   5.108   0.750 -0.4022 -1.4072 -2.0978
37154SOL    HW216401   6.332   5.107   0.785  0.0729 -1.6268  0.0644
37155SOL     OW16402   9.198   5.549   0.408  0.0039  0.1654  0.1131
37155SOL    HW116403   9.148   5.621   0.369 -1.5962 -1.1579 -0.4013
37155SOL    HW216404   9.195   5.566   0.502 -0.9275  0.4378  0.0498
37156SOL     OW16405   3.986   4.500   9.586  0.7173 -0.0217  0.0795
37156SOL    HW116406   3.907   4.471   9.633  0.0160 -0.5510 -1.3588
37156SOL    HW216407   4.051   4.514   9.655 -0.2819 -0.7013  1.2086
37157SOL     OW16408   5.974   0.734   0.467  0.0184 -0.2965 -0.2589
37157SOL    HW116409   5.891   0.760   0.428 -0.3341 -0.4655  0.3589
37157SOL    HW216410   5.958   0.739   0.562  0.4883 -1.0122 -0.1378
37158SOL     OW16411   3.437   4.483   3.737 -0.1063 -0.1795 -0.4473
37158SOL    HW116412   3.376   4.456   3.668 -2.2209  0.7994  0.9271
37158SOL    HW216413   3.438   4.578   3.732  1.8921 -0.1762 -0.8435
37159SOL     OW16414  11.448   0.447   4.620 -0.2653  0.0719  0.0008
37159SOL    HW116415  11.464   0.381   4.687 -0.0619  1.2904  1.1961
37159SOL    HW216416  11.521   0.509   4.630 -0.3616  0.4030 -1.1979
37160SOL     OW16417   2.494  10.412   5.791  0.1953 -0.3570 -0.4431
37160SOL    HW116418   2.538  10.331   5.815  0.5809 -0.6214 -1.9620
37160SOL    HW216419   2.536  10.440   5.710 -0.9861  0.5352 -0.7818
37161SOL     OW16420   1.264   0.170   1.182  0.3597  0.3945 -0.2556
37161SOL    HW116421   1.265   0.265   1.169  1.6020  0.2590 -1.4413
37161SOL    HW216422   1.286   0.135   1.096 -0.7188 -1.0125  0.0069
37162SOL     OW16423   9.975   8.601   9.105  0.0897 -0.2395 -0.4704
37162SOL    HW116424  10.050   8.605   9.164  0.1183  0.7039 -0.5629
37162SOL    HW216425   9.984   8.515   9.062  1.6161  0.2083 -1.1225
37163SOL     OW16426  10.382  11.303  11.060 -0.2687 -0.1072  0.5145
37163SOL    HW116427  10.415  11.355  11.133  0.6641  3.0943 -1.9273
37163SOL    HW216428  10.287  11.312  11.064 -0.1147  2.4539 -0.1435
37164SOL     OW16429   7.077   1.344   4.456  0.0812  0.4968  0.1676
37164SOL    HW116430   6.984   1.363   4.443  0.0014  0.4310  0.6068
37164SOL    HW216431   7.080   1.250   4.470  0.0483  0.6604  1.4281
37165SOL     OW16432   4.908   1.174   6.525 -0.5031  0.8522 -0.2722
37165SOL    HW116433   4.895   1.134   6.439 -0.7178  2.1888 -0.8748
37165SOL    HW216434   4.939   1.102   6.580 -3.4519 -0.8326 -0.6053
37166SOL     OW16435  10.250   9.692   1.549  0.4068 -0.3340 -0.1686
37166SOL    HW116436  10.287   9.658   1.467  2.2445 -0.9027  0.8530
37166SOL    HW216437  10.323   9.735   1.592  0.2250 -2.4279  2.4646
37167SOL     OW16438   1.786   9.454   1.102  0.4801 -0.4409  0.3254
37167SOL    HW116439   1.830   9.390   1.046  1.5362  0.6952 -0.1885
37167SOL    HW216440   1.823   9.440   1.189 -1.3705 -2.4062  0.9024
37168SOL     OW16441   9.904   2.500   3.202  0.3268  0.1365  0.4052
37168SOL    HW116442   9.856   2.561   3.258  0.7252  0.0214  0.8751
37168SOL    HW216443   9.987   2.544   3.185 -0.0152  0.4235 -0.5691
37169SOL     OW16444   2.090   1.822   4.545  0.1127  0.4181 -0.0637
37169SOL    HW116445   2.125   1.840   4.457  1.6099  0.8573  0.5992
37169SOL    HW216446   1.997   1.840   4.537  0.2027  0.3965 -1.5832
37170SOL     OW16447   2.425  10.921   8.406 -0.1064 -0.0252 -0.5723
37170SOL    HW116448   2.365  10.995   8.393 -2.6354 -1.8868 -0.2745
37170SOL    HW216449   2.484  10.950   8.476 -1.6481  1.3806  0.2295
37171SOL     OW16450   5.067   0.697  10.626 -0.0587 -0.1482 -0.0367
37171SOL    HW116451   5.000   0.631  10.642 -1.2412  1.0516  0.1062
37171SOL    HW216452   5.147   0.659  10.661 -1.2106 -0.4346  2.5068
37172SOL     OW16453   3.345   8.893   5.947 -0.0844 -0.5081 -0.2814
37172SOL    HW116454   3.374   8.931   5.864 -0.2130 -0.7293 -0.4296
37172SOL    HW216455   3.275   8.832   5.922  0.6913 -1.4822 -0.1455
37173SOL     OW16456   5.839  11.631   2.388  0.2075 -0.0952 -0.0603
37173SOL    HW116457   5.762  11.624   2.444 -0.4311  0.3761 -0.8526
37173SOL    HW216458   5.888  11.706   2.422 -1.3969  1.7048 -1.5275
37174SOL     OW16459   5.408   8.446   1.470  0.6559 -0.2012  0.0917
37174SOL    HW116460   5.478   8.382   1.454  0.6393  0.0371 -1.0372
37174SOL    HW216461   5.373   8.465   1.383 -0.1000  0.4994  0.5340
37175SOL     OW16462   0.397   4.563   1.974 -0.1624  0.0326 -0.1068
37175SOL    HW116463   0.401   4.641   2.028 -0.8105  1.4237 -1.9434
37175SOL    HW216464   0.488   4.538   1.961  0.0595  0.5650  0.3942
37176SOL     OW16465   9.916   5.526   8.343 -0.8708 -0.2961  0.3294
37176SOL    HW116466   9.915   5.619   8.364  1.0755 -0.0447 -0.4858
37176SOL    HW216467   9.948   5.522   8.253 -2.1583 -1.7094 -0.1241
37177SOL     OW16468   8.538   8.428   5.358  0.2143 -0.0239 -0.4239
37177SOL    HW116469   8.574   8.508   5.397 -1.0187  0.1446  0.4116
37177SOL    HW216470   8.547   8.362   5.427 -0.1443 -0.2352 -0.5785
37178SOL     OW16471   4.694  10.074  10.745 -0.2697 -0.0262 -0.3949
37178SOL    HW116472   4.723   9.989  10.712  0.4380 -0.2815  0.8253
37178SOL    HW216473   4.755  10.137  10.706  0.5068 -0.3157  0.3304
37179SOL     OW16474   7.421   5.085   6.182  0.2421  0.3140 -0.3152
37179SOL    HW116475   7.482   5.155   6.206 -0.9534  0.5811  2.2534
37179SOL    HW216476   7.341   5.104   6.231 -0.4621 -2.3477 -0.2473
37180SOL     OW16477   4.207   1.103   0.697 -0.1243  0.2160 -0.0353
37180SOL    HW116478   4.284   1.101   0.640 -0.2281  0.0814 -0.1710
37180SOL    HW216479   4.204   1.192   0.731  0.9834 -0.1759  1.1723
37181SOL     OW16480   7.856   2.035   8.686  0.2931 -0.4737  0.2363
37181SOL    HW116481   7.926   2.088   8.648  1.2847 -2.0837 -0.2523
37181SOL    HW216482   7.892   1.947   8.692 -0.3512 -0.6692  3.4734
37182SOL     OW16483   6.926   4.112   7.051 -0.1462  0.3904 -0.2337
37182SOL    HW116484   6.944   4.195   7.008 -0.3237  0.7111  0.3032
37182SOL    HW216485   6.846   4.128   7.102 -0.2142 -0.1238 -0.1705
37183SOL     OW16486   8.808   2.713   9.523 -0.3736 -0.0448 -0.4308
37183SOL    HW116487   8.765   2.628   9.521 -0.8535  0.1187  1.3200
37183SOL    HW216488   8.873   2.705   9.593 -0.5955  1.0958 -0.0694
37184SOL     OW16489   6.129  10.127   4.964  0.5285  0.5213 -0.0283
37184SOL    HW116490   6.173  10.043   4.970  1.9893  1.2278 -0.3270
37184SOL    HW216491   6.058  10.122   5.028  0.9366 -0.7256  0.3439
37185SOL     OW16492   9.251   2.273   9.398  0.3076 -0.3625  0.6397
37185SOL    HW116493   9.158   2.271   9.421 -0.2350  1.4124 -1.1654
37185SOL    HW216494   9.292   2.322   9.469  0.0613 -1.8205  1.8588
37186SOL     OW16495   2.033   4.604   6.776 -0.1211 -0.1532 -0.2831
37186SOL    HW116496   2.021   4.643   6.863  0.0614 -0.8250  0.0545
37186SOL    HW216497   2.045   4.511   6.794 -2.1113 -0.6134 -1.1805
37187SOL     OW16498   1.587   9.136   5.552 -0.6085 -0.2283  0.0640
37187SOL    HW116499   1.614   9.226   5.567 -1.4596  0.0875 -0.2306
37187SOL    HW216500   1.610   9.118   5.461 -1.2766  0.0118 -0.1605
37188SOL     OW16501   7.472   3.168   6.610  0.4186  0.0907 -0.0042
37188SOL    HW116502   7.389   3.152   6.655  0.4257  0.6086  0.2000
37188SOL    HW216503   7.482   3.263   6.612 -0.9876  0.5022 -3.5064
37189SOL     OW16504  11.445   0.724  10.290  0.3368 -0.2705  0.0467
37189SOL    HW116505  11.380   0.781  10.329 -0.9067 -0.0375 -2.1933
37189SOL    HW216506  11.524   0.779  10.283 -0.1845  0.4797 -0.0789
37190SOL     OW16507   2.420   0.058   7.483 -0.4499 -0.1850 -0.0942
37190SOL    HW116508   2.444   0.038   7.573  0.8839  1.2359 -0.0935
37190SOL    HW216509   2.326   0.075   7.486 -0.5438 -0.8071  0.8882
37191SOL     OW16510   7.437   2.184   0.059 -0.0484  0.4162  0.9036
37191SOL    HW116511   7.450   2.091   0.073  0.8618  0.4320  0.2365
37191SOL    HW216512   7.464   2.199  -0.032 -4.5856  0.5167 -0.7113
37192SOL     OW16513   9.684   3.455   2.520  0.0613 -0.5249  0.1231
37192SOL    HW116514   9.671   3.472   2.613 -0.0585  1.2461 -0.1839
37192SOL    HW216515   9.747   3.382   2.517 -1.1508 -1.6980  1.5584
37193SOL     OW16516   0.419   4.355   0.287  0.0631  0.5999 -0.0472
37193SOL    HW116517   0.382   4.267   0.293 -0.0950  0.5304 -1.6326
37193SOL    HW216518   0.441   4.378   0.377  1.8456 -1.7971  0.2263
37194SOL     OW16519   7.046  10.774   0.908  0.3345 -0.2318 -0.1163
37194SOL    HW116520   6.957  10.796   0.935 -0.3455 -1.9635 -0.7642
37194SOL    HW216521   7.078  10.852   0.863 -1.6234 -0.2130 -1.6256
37195SOL     OW16522  10.072   9.202   7.800  0.1263  0.4490  0.3871
37195SOL    HW116523  10.127   9.179   7.876 -3.3917 -1.4887  2.6349
37195SOL    HW216524  10.017   9.273   7.832 -1.0493 -0.0338 -0.5232
37196SOL     OW16525  10.890   4.710  10.398 -0.0417  0.1701  0.3163
37196SOL    HW116526  10.825   4.648  10.365 -0.2100  0.7182 -0.3918
37196SOL    HW216527  10.922   4.756  10.321 -1.3451  2.3581  0.9774
37197SOL     OW16528  10.308   7.596   4.628  0.8897  0.2967 -0.0104
37197SOL    HW116529  10.391   7.638   4.607  0.6855  0.1429 -1.1828
37197SOL    HW216530  10.333   7.516   4.675  1.5700 -0.9800 -2.3944
37198SOL     OW16531   7.391   4.337   6.509 -0.1660 -0.6000  0.4569
37198SOL    HW116532   7.482   4.366   6.502 -0.7567  1.5732  0.8409
37198SOL    HW216533   7.353   4.396   6.574 -2.4645  0.2806 -1.5243
37199SOL     OW16534   9.020   5.454   3.554  0.7919 -0.5951  0.4252
37199SOL    HW116535   9.101   5.438   3.504  1.3334  2.2298  0.2395
37199SOL    HW216536   8.952   5.411   3.502  2.0762 -2.9218  0.5028
37200SOL     OW16537   6.926  10.302   7.405  0.6576 -0.3071  0.3039
37200SOL    HW116538   6.925  10.351   7.323 -0.9486 -2.6153 -1.1829
37200SOL    HW216539   6.954  10.365   7.471  3.1881  1.3706 -2.1620
37201SOL     OW16540   2.742   2.020  10.010 -0.5046  0.1188 -0.1022
37201SOL    HW116541   2.678   1.976   9.955 -1.5617  2.4578 -0.8566
37201SOL    HW216542   2.691   2.077  10.068  0.7456 -0.2001  1.4054
37202SOL     OW16543   8.244   3.444   8.525 -0.4017 -0.4153  0.2495
37202SOL    HW116544   8.329   3.439   8.569 -0.0312 -0.3228 -0.4262
37202SOL    HW216545   8.201   3.520   8.563  0.3890  0.3535 -0.3380
37203SOL     OW16546   7.277   9.868   9.672  0.0889 -0.4279  0.0724
37203SOL    HW116547   7.232   9.840   9.752 -1.0978 -0.2955 -0.5194
37203SOL    HW216548   7.335   9.795   9.650 -0.0330 -0.7252  0.7154
37204SOL     OW16549   3.539   4.859   2.471  0.2724 -0.4079  0.3878
37204SOL    HW116550   3.512   4.932   2.415  1.1642 -0.0177  0.4576
37204SOL    HW216551   3.470   4.794   2.460 -0.2946  0.2492 -0.0448
37205SOL     OW16552   5.306   8.524  10.333  0.2501 -0.2267  0.1812
37205SOL    HW116553   5.356   8.468  10.392  0.0657 -1.8062 -1.0998
37205SOL    HW216554   5.353   8.607  10.333  1.3328 -0.8170  1.0686
37206SOL     OW16555   3.956   2.646  11.594 -0.3030 -0.3337 -0.4809
37206SOL    HW116556   3.991   2.722  11.640 -2.0742  0.4436 -0.3636
37206SOL    HW216557   4.022   2.626  11.527  0.7543  0.5317  0.2705
37207SOL     OW16558   3.576   7.302  10.805 -0.0105 -0.6333 -0.3395
37207SOL    HW116559   3.639   7.331  10.738 -0.6627 -0.3395 -0.8395
37207SOL    HW216560   3.496   7.285  10.756 -0.1850 -1.4806  0.2221
37208SOL     OW16561   1.247   6.831   6.127  0.1175  0.1272 -0.0894
37208SOL    HW116562   1.314   6.773   6.092  0.9781  0.0306  1.5875
37208SOL    HW216563   1.290   6.916   6.135 -0.0013  0.1218  0.7883
37209SOL     OW16564   5.010   1.710   9.446 -0.2673 -0.2645 -0.4961
37209SOL    HW116565   4.949   1.784   9.452  1.7100  1.5733 -1.6893
37209SOL    HW216566   5.020   1.696   9.352 -0.3274 -1.8761 -0.2874
37210SOL     OW16567   3.482   4.530   2.631 -0.3198  0.3610 -0.2291
37210SOL    HW116568   3.565   4.543   2.676 -0.8004  2.4543  0.1331
37210SOL    HW216569   3.417   4.572   2.687 -1.2209  1.2407 -1.8706
37211SOL     OW16570   4.847  10.233  10.598  0.3178 -0.9087  0.0848
37211SOL    HW116571   4.779  10.257  10.535  0.1903  1.0599  0.9039
37211SOL    HW216572   4.928  10.264  10.560  0.1511  0.9921  1.1660
37212SOL     OW16573   2.585   7.246   3.863  0.0934  0.0544  0.4334
37212SOL    HW116574   2.557   7.271   3.775 -1.3580  1.3199  1.2072
37212SOL    HW216575   2.509   7.200   3.900  0.4954 -0.0010  1.2040
37213SOL     OW16576   8.023   9.809   4.959  0.0540 -0.0160  0.0058
37213SOL    HW116577   7.930   9.826   4.944  0.1291  1.8487  1.2698
37213SOL    HW216578   8.066   9.890   4.932  1.1564 -0.3291  0.7706
37214SOL     OW16579   5.426   7.230   5.577  0.5095  0.0097 -0.7319
37214SOL    HW116580   5.416   7.324   5.593  1.4953  0.0140 -0.0335
37214SOL    HW216581   5.477   7.224   5.496 -0.0478  0.0572 -1.0932
37215SOL     OW16582   5.438   0.696   5.576  0.2572 -0.4294  0.6252
37215SOL    HW116583   5.357   0.659   5.543 -0.4830  0.2758  1.6006
37215SOL    HW216584   5.507   0.638   5.543 -0.6863 -1.3674  0.2891
37216SOL     OW16585   4.919   3.351   8.856 -0.4029 -0.2274 -0.3051
37216SOL    HW116586   4.887   3.383   8.771 -0.3352 -1.7244 -0.9219
37216SOL    HW216587   4.888   3.416   8.919 -1.4874  0.2912 -1.3293
37217SOL     OW16588   2.493   2.802   3.292  0.2702 -0.4278  0.3642
37217SOL    HW116589   2.420   2.790   3.353 -1.6912 -0.1174 -1.7634
37217SOL    HW216590   2.531   2.886   3.316 -1.6394  0.5803  0.1113
37218SOL     OW16591   0.112   4.032   6.199 -0.7489 -0.7268 -0.2283
37218SOL    HW116592   0.113   4.080   6.117  0.6978 -1.5293 -0.7217
37218SOL    HW216593   0.131   3.941   6.174 -0.6529 -1.0497  0.9505
37219SOL     OW16594   6.332   4.696   8.148 -0.5720  0.1332 -0.1219
37219SOL    HW116595   6.426   4.717   8.145 -0.6270  0.6876  1.4449
37219SOL    HW216596   6.308   4.684   8.056  1.3527 -1.4821 -0.4759
37220SOL     OW16597   1.910   4.981   6.436  0.4774 -0.2297 -0.2192
37220SOL    HW116598   1.969   4.994   6.362 -1.3014 -0.1624 -1.7157
37220SOL    HW216599   1.835   4.935   6.398 -0.3445 -0.4921  1.6327
37221SOL     OW16600   1.613   3.070  10.774  0.2659 -0.0283 -0.1291
37221SOL    HW116601   1.660   3.031  10.701  0.9310  1.7022 -0.6815
37221SOL    HW216602   1.531   3.021  10.778  1.2644 -1.8187 -0.3891
37222SOL     OW16603   4.216   7.380   9.974  0.5562  0.7091 -0.0799
37222SOL    HW116604   4.283   7.406   9.911  1.1747 -0.1721  0.1790
37222SOL    HW216605   4.260   7.316  10.030 -1.2952 -2.3744 -1.8223
37223SOL     OW16606  10.999   3.095   1.722  0.1177  0.6356  0.6531
37223SOL    HW116607  10.983   3.038   1.796 -0.1070  3.1127  2.6480
37223SOL    HW216608  10.926   3.078   1.662  1.0822 -2.4580  0.1886
37224SOL     OW16609   2.737   9.336  10.073 -0.1783  0.6875  0.1379
37224SOL    HW116610   2.776   9.295   9.996 -0.9596 -1.9864  1.0458
37224SOL    HW216611   2.644   9.346  10.051 -0.2746  0.5464  0.4671
37225SOL     OW16612   9.992   8.123   4.340  0.0666  0.2407 -0.3539
37225SOL    HW116613  10.086   8.129   4.325 -0.0469 -1.4764 -2.0538
37225SOL    HW216614   9.952   8.153   4.258 -0.8263 -0.6278 -0.2596
37226SOL     OW16615   3.755  11.308   0.594  0.4622  0.0076 -0.0390
37226SOL    HW116616   3.670  11.279   0.627  0.1265 -0.3271 -1.1580
37226SOL    HW216617   3.735  11.383   0.538  1.1093  1.0788  1.1237
37227SOL     OW16618   8.894   1.826   3.066 -0.1182  0.1582 -0.5723
37227SOL    HW116619   8.901   1.856   3.157  1.9786 -1.3989 -0.1345
37227SOL    HW216620   8.975   1.855   3.026  0.1661 -1.4331 -1.1996
37228SOL     OW16621   4.295   1.085   4.571  1.0240 -0.8461  0.2264
37228SOL    HW116622   4.390   1.089   4.566  1.0253  1.7729  0.8005
37228SOL    HW216623   4.265   1.095   4.480  1.3544  2.0749  0.3336
37229SOL     OW16624   0.153   3.060   5.458 -0.4117 -0.3485  0.0534
37229SOL    HW116625   0.210   3.100   5.524  2.0282 -1.1019 -1.4349
37229SOL    HW216626   0.121   3.135   5.407  1.4276  0.0195 -0.6703
37230SOL     OW16627   7.091   4.928   6.037  0.4324 -0.5260 -0.3907
37230SOL    HW116628   7.074   4.855   6.097 -0.6334 -0.1110 -0.1678
37230SOL    HW216629   7.095   4.888   5.950  1.2265 -1.0253 -0.1393
37231SOL     OW16630   8.060   3.733   5.993 -0.0788 -0.5250 -0.1696
37231SOL    HW116631   8.126   3.797   5.966  0.2866 -0.1536  1.4862
37231SOL    HW216632   8.062   3.666   5.924 -0.1721  0.9994 -1.7185
37232SOL     OW16633  11.302   2.026   3.949  0.5347  0.1296 -0.1157
37232SOL    HW116634  11.343   1.984   3.874 -1.4626 -0.8797 -0.7371
37232SOL    HW216635  11.221   2.064   3.914 -0.1891  0.0939  1.4038
37233SOL     OW16636   9.655  11.538   0.902 -0.4205 -0.0252 -0.7382
37233SOL    HW116637   9.726  11.557   0.840 -0.1562  1.8269  0.0767
37233SOL    HW216638   9.581  11.590   0.871 -1.6499 -2.2876 -1.8420
37234SOL     OW16639   0.260   8.598   6.795  0.0776  0.6147  0.3145
37234SOL    HW116640   0.275   8.533   6.726  1.3230  0.4661  0.6994
37234SOL    HW216641   0.305   8.676   6.764  1.1991  0.3532  1.2322
37235SOL     OW16642   1.655   7.668   0.144  0.6101 -0.0850  0.1547
37235SOL    HW116643   1.658   7.693   0.237 -0.7821  0.3112  0.1133
37235SOL    HW216644   1.582   7.718   0.108 -1.0378 -2.7016 -0.4002
37236SOL     OW16645   5.736   8.573   7.492 -0.0590 -0.1917 -0.2089
37236SOL    HW116646   5.665   8.518   7.458 -1.5993  0.8498  1.1139
37236SOL    HW216647   5.738   8.554   7.586  0.7651  0.4905 -0.0760
37237SOL     OW16648   2.188   2.354   6.604  0.4086 -0.4289 -0.2941
37237SOL    HW116649   2.229   2.416   6.664 -0.0204 -0.7759  0.3578
37237SOL    HW216650   2.095   2.356   6.626  0.2678 -0.6668 -0.8481
37238SOL     OW16651   8.768   0.532   3.630  0.6330 -0.2081 -0.4372
37238SOL    HW116652   8.836   0.478   3.670 -1.6594 -2.0223  1.3497
37238SOL    HW216653   8.769   0.508   3.537  1.5950 -1.1342 -0.2003
37239SOL     OW16654   1.594   8.601   3.732 -0.1952 -0.0225  0.1492
37239SOL    HW116655   1.529   8.565   3.672  0.4733 -2.2030  0.6490
37239SOL    HW216656   1.543   8.629   3.808 -0.6482 -0.9142  0.1856
37240SOL     OW16657   6.296  10.854  10.247 -0.5799  0.7826  0.0407
37240SOL    HW116658   6.235  10.920  10.281  0.0958  2.4929 -1.8579
37240SOL    HW216659   6.268  10.840  10.157  0.3997 -0.2131 -0.1359
37241SOL     OW16660   3.352   0.521   9.166  0.1312  0.0296 -0.0613
37241SOL    HW116661   3.260   0.546   9.173 -0.0073 -0.2798 -0.6472
37241SOL    HW216662   3.400   0.590   9.211 -0.2847  1.0688 -1.1486
37242SOL     OW16663   3.719   3.062   8.276 -0.3909  0.1915  0.3387
37242SOL    HW116664   3.658   3.098   8.340 -0.1062  1.2403  0.0429
37242SOL    HW216665   3.677   2.983   8.243 -1.6712  0.9875  0.0176
37243SOL     OW16666   4.720   9.768  10.194  0.2266 -0.3691  0.4874
37243SOL    HW116667   4.704   9.707  10.266 -1.3369  0.2522  0.7207
37243SOL    HW216668   4.647   9.754  10.134  1.1145 -0.3527 -0.6343
37244SOL     OW16669   4.912   9.821   8.168  0.4136  0.3448  0.4019
37244SOL    HW116670   4.936   9.730   8.185  0.1003  0.2274  0.2305
37244SOL    HW216671   4.933   9.835   8.075  1.2950  0.7176  0.6416
37245SOL     OW16672  10.191  11.637   6.368 -0.1113  0.2133 -0.0793
37245SOL    HW116673  10.257  11.617   6.302  0.5123  0.8463  0.3423
37245SOL    HW216674  10.239  11.640   6.450 -0.5934  1.0331  0.1877
37246SOL     OW16675   9.741   8.239  10.738 -0.2234 -0.0734 -0.2491
37246SOL    HW116676   9.671   8.237  10.673  0.0958  1.3966 -0.6653
37246SOL    HW216677   9.817   8.273  10.691  0.7039 -1.3242  0.2847
37247SOL     OW16678   1.667   6.846   3.889  0.0660  0.0421 -0.1857
37247SOL    HW116679   1.732   6.909   3.857 -1.3508  1.1288 -1.0670
37247SOL    HW216680   1.686   6.837   3.982 -0.2044  2.4615  0.1609
37248SOL     OW16681   5.508   6.508   7.423 -0.4190 -0.0406  0.1598
37248SOL    HW116682   5.558   6.430   7.447  2.1010  1.2448 -0.5321
37248SOL    HW216683   5.430   6.475   7.380  0.8975 -2.1967 -0.7380
37249SOL     OW16684   1.947   3.363   1.147 -0.1749 -0.3599  0.3632
37249SOL    HW116685   2.003   3.424   1.194  0.1781  1.1889 -1.8900
37249SOL    HW216686   1.879   3.418   1.108 -0.2652 -1.4641 -1.1474
37250SOL     OW16687   3.821   1.393   9.947  0.4601 -0.1491 -0.2585
37250SOL    HW116688   3.911   1.399   9.979  0.7439  0.4171 -1.1410
37250SOL    HW216689   3.796   1.483   9.926 -0.4081 -0.2675  0.2018
37251SOL     OW16690   8.797   5.533   0.520  0.1818  0.5129  0.3636
37251SOL    HW116691   8.794   5.628   0.527 -0.2015  0.3894  3.0640
37251SOL    HW216692   8.707   5.505   0.534 -0.0483 -0.2410 -2.1895
37252SOL     OW16693   8.598  10.101  11.390 -0.1506 -0.4110 -0.1798
37252SOL    HW116694   8.662  10.109  11.462 -1.1905  2.0420  0.5817
37252SOL    HW216695   8.515  10.086  11.434 -0.7153  0.5407 -0.8913
37253SOL     OW16696   5.064   9.083   5.139  0.3891  0.1171 -0.4053
37253SOL    HW116697   5.136   9.084   5.202 -0.3427  1.7991  0.4778
37253SOL    HW216698   5.008   9.011   5.168  0.5114  0.3203  0.3601
37254SOL     OW16699   1.743   2.742   5.297 -0.2997  0.9268  0.1860
37254SOL    HW116700   1.813   2.771   5.356  0.3386 -1.1339  0.5218
37254SOL    HW216701   1.761   2.649   5.283 -0.8923  1.1612 -2.6616
37255SOL     OW16702   3.256  11.306   7.255  0.4115  0.8050  0.2337
37255SOL    HW116703   3.285  11.383   7.302  0.4856  1.6044 -1.0691
37255SOL    HW216704   3.216  11.250   7.322 -0.2749  2.2720  1.0912
37256SOL     OW16705   6.425   1.713   0.120 -0.2505 -0.6563  0.4443
37256SOL    HW116706   6.370   1.687   0.194 -1.1376 -1.9874 -0.6484
37256SOL    HW216707   6.402   1.805   0.105 -1.3252 -0.8603  0.7496
37257SOL     OW16708   3.242   5.938  11.354 -0.1612 -0.1811  0.5848
37257SOL    HW116709   3.314   5.875  11.341 -1.6885 -1.8048 -0.4412
37257SOL    HW216710   3.163   5.884  11.352 -1.4933  1.7130  0.3654
37258SOL     OW16711   6.742   1.921   7.382 -0.2135  0.3032 -0.6483
37258SOL    HW116712   6.649   1.920   7.405 -0.1422  0.3273 -0.3468
37258SOL    HW216713   6.787   1.920   7.467  0.0663 -0.2191 -0.8031
37259SOL     OW16714   1.544   9.477   4.520  0.9213 -0.4257 -0.1841
37259SOL    HW116715   1.634   9.459   4.548  1.3960  0.0139 -1.3449
37259SOL    HW216716   1.511   9.393   4.487  1.1364 -0.4460 -0.3493
37260SOL     OW16717   3.499   9.293   7.615  0.6024 -0.0519  0.0119
37260SOL    HW116718   3.449   9.256   7.688 -0.8136  1.9992  0.1542
37260SOL    HW216719   3.510   9.219   7.555 -0.4882 -1.1533  1.0986
37261SOL     OW16720  11.402  11.454  10.204  0.2884 -0.6468 -0.1288
37261SOL    HW116721  11.445  11.538  10.189  0.1657 -0.6152 -0.3047
37261SOL    HW216722  11.313  11.466  10.171  0.6316 -1.2397 -1.3586
37262SOL     OW16723  10.411   2.213  10.496  0.2446  0.7367  0.5518
37262SOL    HW116724  10.491   2.264  10.490 -0.4140  1.9356  1.3235
37262SOL    HW216725  10.344   2.268  10.455 -0.1883 -0.2455 -0.0936
37263SOL     OW16726  11.291   3.492   6.439 -0.4041 -0.0538  0.2272
37263SOL    HW116727  11.318   3.473   6.349 -0.4539 -1.9907  0.5843
37263SOL    HW216728  11.369   3.530   6.479 -0.4266  0.9785 -0.6603
37264SOL     OW16729   2.468   8.115   6.619  0.1423  0.1872  0.8606
37264SOL    HW116730   2.559   8.123   6.650  0.2416  0.1668  0.5776
37264SOL    HW216731   2.415   8.146   6.692  0.4423  1.7532  0.4575
37265SOL     OW16732   4.380   1.811   6.313  0.1793  0.3129  0.5396
37265SOL    HW116733   4.342   1.809   6.225  0.7251 -2.2203  0.2829
37265SOL    HW216734   4.353   1.895   6.349 -1.9047  0.4909 -1.2436
37266SOL     OW16735   5.555   3.246   1.942  0.3304 -0.4209  0.3650
37266SOL    HW116736   5.485   3.310   1.927  0.0983 -1.2835 -3.2116
37266SOL    HW216737   5.634   3.300   1.952 -0.2005  0.4765 -0.1263
37267SOL     OW16738   8.976   3.319   7.169  0.0472  0.1017  0.0473
37267SOL    HW116739   8.898   3.294   7.219  1.1243  0.6619  2.1441
37267SOL    HW216740   8.958   3.290   7.080 -1.7570 -1.5156  0.8637
37268SOL     OW16741   4.448   7.706   3.451  0.1857  0.0367  0.2676
37268SOL    HW116742   4.511   7.772   3.422  1.0665 -1.4916 -1.4728
37268SOL    HW216743   4.373   7.716   3.393  0.2775 -0.4102  0.0666
37269SOL     OW16744   5.943  10.066  10.128  0.0735 -0.0621  0.7279
37269SOL    HW116745   6.020  10.117  10.101  0.4158 -0.5296  0.8083
37269SOL    HW216746   5.938  10.080  10.223 -0.4689  0.6802  0.5972
37270SOL     OW16747   7.874   7.401   8.887 -0.3152 -0.0523  0.1890
37270SOL    HW116748   7.933   7.417   8.960 -0.0716  0.4346 -0.1079
37270SOL    HW216749   7.918   7.441   8.812 -1.0173  0.3099 -0.0339
37271SOL     OW16750   0.055   4.121   7.761 -0.3179 -0.3227  0.1155
37271SOL    HW116751  -0.029   4.145   7.798  0.7030  1.5858  1.3635
37271SOL    HW216752   0.099   4.071   7.830  0.6503  1.1451  0.5892
37272SOL     OW16753   0.266   4.165   4.535 -0.4718  0.1931  0.0704
37272SOL    HW116754   0.287   4.259   4.533  0.0937  0.0578 -0.6301
37272SOL    HW216755   0.227   4.148   4.449 -0.0263 -0.3308 -0.0314
37273SOL     OW16756  10.794   1.652   8.490 -0.1641 -0.2726  0.2227
37273SOL    HW116757  10.833   1.739   8.480 -1.4033  0.1185 -1.5998
37273SOL    HW216758  10.863   1.592   8.462  1.1411 -0.0415  2.6459
37274SOL     OW16759   9.128   9.849   1.056 -0.1317 -0.2232  0.2149
37274SOL    HW116760   9.036   9.824   1.063  0.1193 -0.9544  1.0464
37274SOL    HW216761   9.165   9.828   1.142  0.7525  0.3217 -0.0193
37275SOL     OW16762   6.809   4.472   0.362 -0.1291 -0.8101 -0.3303
37275SOL    HW116763   6.885   4.447   0.415 -1.9806 -0.7081  2.5837
37275SOL    HW216764   6.817   4.567   0.351 -1.4225 -0.1895  2.9464
37276SOL     OW16765   0.909  10.191   5.966 -0.4740 -0.0919 -0.1997
37276SOL    HW116766   0.940  10.263   5.912 -1.1138  0.2133 -0.1689
37276SOL    HW216767   0.819  10.177   5.938 -0.3870 -0.8191 -0.1406
37277SOL     OW16768   3.092   2.110   0.853  0.4853 -0.2279  0.3172
37277SOL    HW116769   3.141   2.192   0.854 -0.0336  0.0870  2.0245
37277SOL    HW216770   3.130   2.061   0.779  3.0875  0.1681  1.2646
37278SOL     OW16771   7.179  11.591   0.711 -0.1908  0.1657  0.0355
37278SOL    HW116772   7.164  11.601   0.617 -0.7640  0.8442  0.1911
37278SOL    HW216773   7.267  11.626   0.725  0.7282 -1.7685 -0.5356
37279SOL     OW16774   6.219   2.988   9.076  0.0118 -0.0499  0.1774
37279SOL    HW116775   6.217   2.919   9.142  1.2098 -1.3084 -1.0364
37279SOL    HW216776   6.312   3.006   9.063 -0.2582  3.1678  1.7737
37280SOL     OW16777  11.634   5.122   3.641  0.4060 -0.3276  0.0988
37280SOL    HW116778  11.643   5.117   3.736  1.1382 -0.8543  0.0088
37280SOL    HW216779  11.697   5.189   3.614 -1.8446  1.9971  0.2386
37281SOL     OW16780   8.096   8.220   0.970  0.0236  0.4007 -0.1337
37281SOL    HW116781   8.112   8.249   1.060 -0.3110  0.3994 -0.0728
37281SOL    HW216782   8.004   8.238   0.955 -0.1263 -0.3632 -0.1909
37282SOL     OW16783   8.550  10.149   1.745 -0.6069 -0.2944  0.3288
37282SOL    HW116784   8.487  10.086   1.710  0.5283 -1.0426 -0.4236
37282SOL    HW216785   8.633  10.124   1.705  0.0413  1.1171  0.7481
37283SOL     OW16786   6.694   2.326   8.108 -0.2751  0.3294  0.7731
37283SOL    HW116787   6.745   2.300   8.031 -2.8910 -0.1423 -0.9329
37283SOL    HW216788   6.680   2.420   8.097 -2.4393 -0.0896 -0.5743
37284SOL     OW16789   5.972   6.050   6.072  0.3263 -0.0148 -0.5322
37284SOL    HW116790   5.974   6.019   6.162 -1.1291 -0.5675 -0.6571
37284SOL    HW216791   6.048   6.010   6.030 -1.3712 -3.4416 -0.6593
37285SOL     OW16792   0.242   5.665  10.443 -0.7523 -0.4049  0.0794
37285SOL    HW116793   0.166   5.630  10.397  0.5766 -1.4705 -1.4387
37285SOL    HW216794   0.253   5.754  10.408  0.3581 -1.2672 -1.9512
37286SOL     OW16795  10.779   8.849   8.750  0.1326  0.6378 -0.2738
37286SOL    HW116796  10.724   8.925   8.729  0.5103  0.6156 -1.3975
37286SOL    HW216797  10.726   8.798   8.812 -0.9009  0.8906 -0.9160
37287SOL     OW16798   0.688  10.169   3.584  0.3977 -0.1065  0.2345
37287SOL    HW116799   0.666  10.175   3.491  1.1407 -0.2544  0.0438
37287SOL    HW216800   0.607  10.139   3.626 -0.7444  2.4067  0.0021
37288SOL     OW16801   1.089   7.279   8.862 -0.7924  0.3469 -0.3651
37288SOL    HW116802   1.139   7.204   8.831 -0.2717  0.5638 -0.0728
37288SOL    HW216803   1.108   7.349   8.800 -1.4968  0.1671 -0.7958
37289SOL     OW16804   8.388  10.312   5.637  0.5130  0.2484 -0.1187
37289SOL    HW116805   8.350  10.359   5.711  1.2501 -0.4286  0.7043
37289SOL    HW216806   8.414  10.381   5.575 -0.1874  0.8101  0.1958
37290SOL     OW16807  10.332   9.183   7.978  0.0647 -0.1499  0.5489
37290SOL    HW116808  10.423   9.191   7.950 -0.0200 -2.5186 -0.6794
37290SOL    HW216809  10.336   9.187   8.073  1.3461  0.6235  0.4858
37291SOL     OW16810   5.901   7.681   6.525  0.0914 -0.4473  0.1334
37291SOL    HW116811   5.981   7.731   6.509 -1.2610  1.5224 -0.6765
37291SOL    HW216812   5.897   7.674   6.621  0.0645  1.4465  0.2993
37292SOL     OW16813   1.569   5.307   5.862 -0.5498  0.7163 -0.3247
37292SOL    HW116814   1.494   5.344   5.909  0.0993  0.0059  1.3649
37292SOL    HW216815   1.547   5.215   5.849 -0.3335  0.6990 -0.5668
37293SOL     OW16816   2.743   2.055  11.458  0.4821 -0.2475 -0.6989
37293SOL    HW116817   2.720   1.965  11.482 -1.1821  0.7881  2.1837
37293SOL    HW216818   2.662   2.093  11.424  1.1493  0.2110 -1.8296
37294SOL     OW16819   2.849   4.190   4.035  0.0436 -0.0711  0.3336
37294SOL    HW116820   2.923   4.213   3.978 -1.1456  0.1881 -1.1761
37294SOL    HW216821   2.868   4.234   4.117  0.8409  1.2620 -0.5169
37295SOL     OW16822   1.967  10.041   7.479 -0.4715 -0.7502 -0.3206
37295SOL    HW116823   1.982  10.132   7.452 -0.8132 -0.4886  0.3491
37295SOL    HW216824   1.895  10.011   7.424 -1.1792 -0.2143  0.2913
37296SOL     OW16825  11.189   0.129   3.362  0.3322 -0.2900  0.2091
37296SOL    HW116826  11.255   0.132   3.293 -1.1589 -0.7327 -1.3105
37296SOL    HW216827  11.191   0.039   3.394 -0.0581 -0.5154 -0.3883
37297SOL     OW16828   9.140   9.043  10.717 -0.0774  0.3204 -0.5282
37297SOL    HW116829   9.059   9.081  10.684 -0.2918 -0.1968 -0.6104
37297SOL    HW216830   9.115   9.001  10.800  0.4539  1.5995  0.3039
37298SOL     OW16831   6.540  11.047   9.168 -0.1717  0.0392  0.7326
37298SOL    HW116832   6.491  11.123   9.200  0.1729  0.4400  0.3227
37298SOL    HW216833   6.631  11.074   9.173  0.0071 -0.6297  1.2990
37299SOL     OW16834   3.081   3.870   1.622  0.1001  0.4589  0.0496
37299SOL    HW116835   3.087   3.919   1.704  1.1277  0.8943 -0.2612
37299SOL    HW216836   3.164   3.824   1.616 -0.5015 -0.6276 -0.1085
37300SOL     OW16837   8.162   8.966   4.470 -0.1373 -0.2981  0.1150
37300SOL    HW116838   8.210   9.016   4.536 -0.0917 -0.2240  0.0261
37300SOL    HW216839   8.154   8.878   4.508  0.6043 -0.4765 -0.1317
37301SOL     OW16840   7.182   7.178   4.652  0.6138  0.0082 -0.7827
37301SOL    HW116841   7.123   7.187   4.577  0.5200  1.0628 -0.5886
37301SOL    HW216842   7.136   7.220   4.725  0.3296 -1.7299  0.0989
37302SOL     OW16843  11.597  10.751   5.697  0.4125 -0.1047  0.0245
37302SOL    HW116844  11.650  10.830   5.694  3.8291 -2.2197 -2.1072
37302SOL    HW216845  11.553  10.748   5.612 -2.0144  0.8064  1.1695
37303SOL     OW16846   9.922   4.227   8.011  0.0336 -0.4795  0.1177
37303SOL    HW116847   9.926   4.186   7.925 -1.9591 -2.8576  1.0509
37303SOL    HW216848   9.974   4.170   8.067 -1.2069 -0.7150  1.0624
37304SOL     OW16849   2.845  11.483   8.471  0.1600  0.1660  0.4953
37304SOL    HW116850   2.770  11.538   8.448  0.2042  0.0887  0.1576
37304SOL    HW216851   2.848  11.416   8.403  1.3931  1.0224 -0.3377
37305SOL     OW16852   1.072   5.988   2.953  0.4126  0.2074  0.0261
37305SOL    HW116853   1.012   6.035   2.895 -0.0280  0.4803  0.7040
37305SOL    HW216854   1.108   6.055   3.011 -1.1095 -0.4009  1.7851
37306SOL     OW16855   8.470   1.224   0.686  0.1936 -0.0077  0.2865
37306SOL    HW116856   8.418   1.283   0.739 -0.6084 -2.0018  1.8706
37306SOL    HW216857   8.517   1.170   0.749 -0.9012 -2.5876 -0.9484
37307SOL     OW16858   6.485   3.943   4.339 -0.2508 -0.0157 -0.1673
37307SOL    HW116859   6.569   3.930   4.295 -0.0606 -0.8193  0.3901
37307SOL    HW216860   6.419   3.916   4.275  0.0015 -0.7637 -0.1292
37308SOL     OW16861   5.298   7.846   3.939 -0.2131  0.3438  0.0775
37308SOL    HW116862   5.292   7.827   3.845 -0.4564 -1.1442  0.3653
37308SOL    HW216863   5.286   7.761   3.981 -0.3709  1.0323  1.4738
37309SOL     OW16864   0.066   7.217   5.245  0.2751 -0.1999 -0.2288
37309SOL    HW116865   0.060   7.204   5.340  0.9328  2.8810  0.3363
37309SOL    HW216866  -0.022   7.196   5.213  0.0740 -1.4290  0.9978
37310SOL     OW16867   6.038   0.081   5.352 -0.1848 -0.2943  0.3870
37310SOL    HW116868   6.020   0.038   5.269  0.0462  0.5785 -0.1292
37310SOL    HW216869   5.994   0.166   5.345  0.6810  0.1935  0.7508
37311SOL     OW16870  11.606   8.645   6.461 -0.0746 -0.6063 -0.3646
37311SOL    HW116871  11.575   8.722   6.509  0.1212 -0.7161 -0.0549
37311SOL    HW216872  11.537   8.580   6.472 -1.6365  0.4492 -3.0892
37312SOL     OW16873   5.166   2.793   4.748  0.5189  0.8478  0.0711
37312SOL    HW116874   5.119   2.713   4.769 -0.9597  1.4872 -0.6362
37312SOL    HW216875   5.174   2.840   4.831 -0.9786  1.1540  0.0675
37313SOL     OW16876   7.626  11.640   0.371  0.1578 -0.1596  0.3007
37313SOL    HW116877   7.658  11.550   0.362  1.9004  0.2484  1.9261
37313SOL    HW216878   7.669  11.687   0.299  0.8331 -0.2426  0.6389
37314SOL     OW16879   9.032   4.902   8.492 -0.2717 -0.0978 -0.6975
37314SOL    HW116880   9.054   4.913   8.400  1.9643  1.4472 -0.0657
37314SOL    HW216881   9.010   4.990   8.523  1.7505 -0.0251  0.7994
37315SOL     OW16882   3.495   0.540   5.385 -0.1286 -0.6168  0.3757
37315SOL    HW116883   3.476   0.565   5.295 -0.4322  0.1605  0.6477
37315SOL    HW216884   3.437   0.466   5.403 -1.2275  0.2505  0.4489
37316SOL     OW16885   5.243   7.285  11.586 -0.8591 -0.2749  0.4537
37316SOL    HW116886   5.216   7.221  11.520 -1.3402 -1.0267  1.3571
37316SOL    HW216887   5.339   7.284  11.583 -0.8267  1.4429 -1.8556
37317SOL     OW16888   6.394   2.943   4.999  0.3493  0.6265 -0.5831
37317SOL    HW116889   6.326   2.892   4.954  0.8670 -0.8926  0.2551
37317SOL    HW216890   6.388   2.916   5.091  0.8703  1.8668 -0.1601
37318SOL     OW16891   5.569   3.040   4.549  0.3829 -0.1350 -0.1197
37318SOL    HW116892   5.490   2.994   4.578  1.5655 -1.1336  1.7031
37318SOL    HW216893   5.543   3.132   4.547 -1.6437 -0.6495 -2.5444
37319SOL     OW16894   6.687   8.048   0.437 -0.4441  0.2898  0.5418
37319SOL    HW116895   6.738   8.120   0.400 -0.1622  0.7084  1.7137
37319SOL    HW216896   6.688   8.063   0.531 -0.2577 -1.3278  0.8311
37320SOL     OW16897   2.854   2.504   7.420 -0.5776  0.1911  0.1110
37320SOL    HW116898   2.904   2.437   7.374 -0.4424  0.1582  0.3073
37320SOL    HW216899   2.891   2.507   7.508 -0.6123  0.4920  0.1177
37321SOL     OW16900   2.210   2.848   2.233 -0.1670  0.5199  0.4512
37321SOL    HW116901   2.145   2.903   2.188 -0.5120  0.3560  0.7420
37321SOL    HW216902   2.247   2.794   2.163  0.6857  1.6040  0.0406
37322SOL     OW16903  10.319  10.935   1.339  0.1153 -0.0142 -0.1431
37322SOL    HW116904  10.314  11.014   1.284 -0.1333 -0.7644 -1.2284
37322SOL    HW216905  10.230  10.923   1.372  0.4596  0.9796  1.2615
37323SOL     OW16906  10.416   4.032   4.868 -0.4010 -0.1471  0.1640
37323SOL    HW116907  10.472   4.076   4.933 -1.0859  0.6936  0.1966
37323SOL    HW216908  10.447   3.941   4.868 -0.4664 -0.1913  1.7535
37324SOL     OW16909   8.963   8.188   6.129 -0.5753  0.6111  0.8955
37324SOL    HW116910   8.917   8.130   6.069  0.1963  0.4812  0.4245
37324SOL    HW216911   8.893   8.234   6.176 -1.1835  0.2690  0.3367
37325SOL     OW16912  11.494   0.947   2.513 -0.5305 -0.3100 -0.0571
37325SOL    HW116913  11.570   0.917   2.462  0.7903 -2.4717  2.9067
37325SOL    HW216914  11.426   0.882   2.495 -0.9402  0.3322 -0.9124
37326SOL     OW16915   1.243   0.352   3.448 -0.3999 -0.2101  0.5277
37326SOL    HW116916   1.284   0.299   3.381  1.8620  2.1569 -0.1189
37326SOL    HW216917   1.283   0.323   3.530 -1.2210 -1.3007  0.5688
37327SOL     OW16918   3.331  10.082  10.970  0.2245 -0.3716 -0.0353
37327SOL    HW116919   3.302  10.160  11.017  1.2122  0.0007 -0.0265
37327SOL    HW216920   3.403  10.112  10.915 -0.0295 -1.0758 -0.7928
37328SOL     OW16921  10.039  10.436   4.842 -0.1335 -0.1820  0.2800
37328SOL    HW116922   9.981  10.401   4.774  0.3021 -0.7341  0.1845
37328SOL    HW216923  10.115  10.379   4.840  0.0508  0.0308  0.9760
37329SOL     OW16924   7.098   0.985  10.432 -0.0920 -0.0882 -0.4742
37329SOL    HW116925   7.036   0.917  10.458 -1.6705  1.2940 -0.4617
37329SOL    HW216926   7.180   0.960  10.476  0.0511 -3.1061 -2.1634
37330SOL     OW16927   3.463   5.900   3.446  0.1943  0.4268 -0.1529
37330SOL    HW116928   3.474   5.823   3.389  0.1130  2.1549 -2.6794
37330SOL    HW216929   3.547   5.908   3.491  0.1549 -1.1900  0.2532
37331SOL     OW16930  10.246   3.564  10.792 -0.1909  0.2358 -0.3733
37331SOL    HW116931  10.181   3.562  10.862  1.5874  0.7313  1.3924
37331SOL    HW216932  10.279   3.654  10.793  0.9709 -0.1698 -0.7675
37332SOL     OW16933   5.300   8.519   4.928 -0.6519 -0.7506  0.1661
37332SOL    HW116934   5.220   8.570   4.920 -0.7556 -0.4328  2.6579
37332SOL    HW216935   5.336   8.544   5.013  2.2324 -0.7039 -0.9518
37333SOL     OW16936   4.541   1.989   0.864  0.1022  0.3749 -0.5937
37333SOL    HW116937   4.527   1.895   0.858  0.3404  0.4183 -2.1146
37333SOL    HW216938   4.603   2.009   0.794  1.0524  1.4889  0.5052
37334SOL     OW16939  10.949  11.093   5.514 -0.0483 -0.5029  0.5953
37334SOL    HW116940  10.954  11.090   5.419  2.7903  1.4727  0.5832
37334SOL    HW216941  10.975  11.182   5.537  4.2059 -2.1775  3.3419
37335SOL     OW16942   0.974   3.171   3.215 -0.0400  0.1988 -0.2133
37335SOL    HW116943   1.013   3.147   3.131  0.6436  0.7146 -0.0508
37335SOL    HW216944   1.009   3.107   3.277 -0.6235 -0.2446 -0.3266
37336SOL     OW16945   2.419   7.154   1.685 -0.3966  0.3109 -0.4558
37336SOL    HW116946   2.331   7.191   1.685 -0.2612  0.6470 -0.0247
37336SOL    HW216947   2.473   7.223   1.723 -0.2899 -0.7055  1.3104
37337SOL     OW16948  10.646   4.485   1.221 -0.3948  0.1687 -0.4020
37337SOL    HW116949  10.722   4.462   1.275 -0.4414 -0.6584 -0.6668
37337SOL    HW216950  10.683   4.523   1.142 -0.3478  2.1529  0.5337
37338SOL     OW16951   3.776   3.716  11.137  0.3696  0.3419 -0.0101
37338SOL    HW116952   3.682   3.708  11.156  0.4618  1.4002  0.9559
37338SOL    HW216953   3.819   3.662  11.202  0.4211 -0.6263 -0.8253
37339SOL     OW16954   4.228   5.158   7.656 -0.8575  0.2325 -0.7169
37339SOL    HW116955   4.186   5.152   7.742 -0.7316  3.2352 -0.3649
37339SOL    HW216956   4.289   5.083   7.654 -1.9197 -0.7567  1.1593
37340SOL     OW16957   5.030   4.269   6.375 -0.6959 -0.2403 -0.0225
37340SOL    HW116958   4.958   4.330   6.354  0.1267  0.9775  0.5782
37340SOL    HW216959   5.050   4.287   6.466  0.0957 -0.8813 -0.0630
37341SOL     OW16960  10.621   0.646  10.481  0.0833  0.5094 -0.2836
37341SOL    HW116961  10.641   0.576  10.419  0.8131  0.0832  0.4065
37341SOL    HW216962  10.697   0.704  10.478 -0.4325  1.1765 -0.7073
37342SOL     OW16963   1.212   9.304   2.686  0.2060  0.3526  0.0075
37342SOL    HW116964   1.191   9.214   2.709  2.3109 -0.6208 -1.5114
37342SOL    HW216965   1.244   9.343   2.767  0.0528 -0.5146  0.4925
37343SOL     OW16966   3.026   3.196   1.189 -0.3700 -0.0968  0.1123
37343SOL    HW116967   2.999   3.118   1.238  0.4037 -0.4035  0.0549
37343SOL    HW216968   3.031   3.168   1.098 -2.3527  0.6139 -0.2612
37344SOL     OW16969   8.200   9.116   2.227  0.2589  0.0365 -0.3854
37344SOL    HW116970   8.170   9.045   2.171 -0.0939  0.9345 -1.3541
37344SOL    HW216971   8.295   9.111   2.224  0.2572 -1.2755  0.7164
37345SOL     OW16972   6.838   9.164   7.281 -0.0649  0.1014  0.4582
37345SOL    HW116973   6.888   9.083   7.272  0.9193  0.3415  2.9414
37345SOL    HW216974   6.751   9.135   7.306 -0.3803 -0.2151 -0.9014
37346SOL     OW16975   9.585   5.400  11.018  0.4304 -0.4439  0.4119
37346SOL    HW116976   9.533   5.472  10.982  0.6634 -0.6400 -0.3194
37346SOL    HW216977   9.524   5.326  11.022  0.3940 -0.4112  0.4762
37347SOL     OW16978   6.607  10.059   6.383 -0.2807 -0.3474  0.1825
37347SOL    HW116979   6.699  10.043   6.366 -0.5654 -2.5681  0.4646
37347SOL    HW216980   6.602  10.081   6.476 -0.1194 -1.0654  0.3629
37348SOL     OW16981   9.292   9.693   2.759 -0.0462 -0.2418 -0.2031
37348SOL    HW116982   9.355   9.646   2.814 -1.8051 -0.8016  1.4544
37348SOL    HW216983   9.217   9.708   2.817 -0.5645  2.4070 -1.4210
37349SOL     OW16984   1.626   0.510   6.204 -0.1194 -0.1701  0.4643
37349SOL    HW116985   1.619   0.420   6.235  1.8436 -0.4219  0.3213
37349SOL    HW216986   1.678   0.555   6.271 -0.5405  0.6936  0.2263
37350SOL     OW16987   0.153  10.073   1.339  0.8035 -0.1939  0.1542
37350SOL    HW116988   0.149  10.135   1.266  1.8974  0.6707  0.8108
37350SOL    HW216989   0.157   9.987   1.297 -0.5676  0.1503 -0.7713
37351SOL     OW16990   2.646   0.010  11.511 -0.7051  0.0495  0.1813
37351SOL    HW116991   2.723   0.004  11.454 -1.2614  0.3784 -0.6337
37351SOL    HW216992   2.576   0.041  11.453 -2.2345 -3.1543  0.1387
37352SOL     OW16993   5.229  10.160   0.329 -0.3561  0.0042  0.1132
37352SOL    HW116994   5.251  10.088   0.271 -0.3147  0.8822 -1.0009
37352SOL    HW216995   5.304  10.167   0.389 -0.2829 -0.7501  0.1108
37353SOL     OW16996  11.683  10.470   6.383 -0.3988  0.3600 -0.2905
37353SOL    HW116997  11.730  10.507   6.308  1.1311 -0.0848  0.4038
37353SOL    HW216998  11.749  10.463   6.451 -0.9591 -2.2118  0.1046
37354SOL     OW16999   6.253   6.204  11.189  0.0113  0.5986 -0.3303
37354SOL    HW117000   6.269   6.298  11.176 -1.4713  1.1036  1.1080
37354SOL    HW217001   6.158   6.196  11.187  0.1052 -0.7961  0.0995
37355SOL     OW17002   6.572   5.318   4.910 -0.3024 -0.2411 -0.0409
37355SOL    HW117003   6.538   5.254   4.972 -1.7373  0.8134  0.3177
37355SOL    HW217004   6.600   5.392   4.964 -1.5319  0.6716 -0.5874
37356SOL     OW17005  10.632   3.080   3.423 -0.1389  0.4912  0.4630
37356SOL    HW117006  10.553   3.058   3.374 -1.0296 -1.3676  2.5432
37356SOL    HW217007  10.701   3.085   3.357 -1.7006  0.7035 -1.2363
37357SOL     OW17008   3.437   0.419   2.701 -0.6752 -0.2466 -0.2317
37357SOL    HW117009   3.467   0.328   2.700 -0.8941 -0.3145 -0.9995
37357SOL    HW217010   3.516   0.470   2.714 -0.6751 -0.5828  1.2989
37358SOL     OW17011   8.353   2.071   4.470  0.2268  0.3355 -0.3157
37358SOL    HW117012   8.442   2.105   4.462  0.6906 -1.2654 -3.9451
37358SOL    HW217013   8.363   1.988   4.516  0.3842  0.7635  0.4389
37359SOL     OW17014   8.188   4.062   9.489 -0.0424 -0.0527 -0.3907
37359SOL    HW117015   8.110   4.027   9.447 -1.6402  1.5305  1.1156
37359SOL    HW217016   8.219   3.991   9.545 -0.0805 -0.8586 -1.3655
37360SOL     OW17017   8.462   8.910   0.743 -0.3890  0.0567  0.1536
37360SOL    HW117018   8.477   8.831   0.690  1.0819  0.4541 -0.0816
37360SOL    HW217019   8.461   8.981   0.679  0.7616  0.4769  0.5782
37361SOL     OW17020   4.830   9.299   2.737  0.3249 -0.0792  0.6999
37361SOL    HW117021   4.874   9.311   2.821  1.9477 -2.9480  0.4204
37361SOL    HW217022   4.897   9.321   2.672 -0.4223  0.6335  0.1491
37362SOL     OW17023   1.742   8.063   7.760  0.3115 -0.3254  0.4711
37362SOL    HW117024   1.767   8.067   7.852 -0.4055  2.5108  0.6441
37362SOL    HW217025   1.825   8.055   7.712  0.6944 -1.6714  1.2988
37363SOL     OW17026   5.856   7.035   4.309 -0.3288  0.4084  0.1731
37363SOL    HW117027   5.928   7.096   4.290 -0.2760  1.3981  3.0724
37363SOL    HW217028   5.881   6.994   4.392 -2.9933  0.6569  1.1957
37364SOL     OW17029   8.878   4.237   8.762 -0.1380 -0.5532  0.1335
37364SOL    HW117030   8.787   4.211   8.748 -0.6535  1.9376 -1.9081
37364SOL    HW217031   8.873   4.330   8.784  1.8526 -0.7591  1.7741
37365SOL     OW17032   9.863   1.841   9.014  0.2091  0.0585  0.5540
37365SOL    HW117033   9.875   1.865   8.922  0.7686 -0.3062  0.5300
37365SOL    HW217034   9.838   1.923   9.057 -0.0310  0.2356  0.0843
37366SOL     OW17035   4.950   9.379   8.981 -0.3560 -0.8448  0.3604
37366SOL    HW117036   5.005   9.450   9.013 -1.4632 -0.9505  2.6928
37366SOL    HW217037   4.961   9.380   8.886  1.1472  1.1659  0.5139
37367SOL     OW17038   6.396   4.411   6.114  0.2520  0.2885 -0.1927
37367SOL    HW117039   6.379   4.363   6.195 -0.5815  0.5513 -0.2002
37367SOL    HW217040   6.375   4.502   6.136  0.4818  0.4350 -0.5733
37368SOL     OW17041   1.342   9.024   9.388 -0.1284  0.3368  0.4265
37368SOL    HW117042   1.287   9.055   9.460  0.9944  0.6085  1.1846
37368SOL    HW217043   1.394   8.954   9.425  0.6937  0.6924 -0.0218
37369SOL     OW17044   7.867   1.786   5.827  0.1612 -0.2435  0.3457
37369SOL    HW117045   7.872   1.691   5.829 -1.0145 -0.3327 -0.0304
37369SOL    HW217046   7.789   1.805   5.775  0.5582  0.9345  0.1382
37370SOL     OW17047   6.465  11.671   4.425  0.5231 -0.1113 -0.0470
37370SOL    HW117048   6.441  11.759   4.454 -1.0875 -0.5242 -0.0340
37370SOL    HW217049   6.381  11.627   4.411  1.2812 -0.9462 -2.2378
37371SOL     OW17050   1.679   6.497   0.754 -0.1000  0.1757 -0.4356
37371SOL    HW117051   1.604   6.555   0.767  0.1427  0.1027  1.6294
37371SOL    HW217052   1.649   6.412   0.785  1.2425  0.4707  1.9083
37372SOL     OW17053   1.469   8.262   9.512  0.3250 -0.1997  0.2253
37372SOL    HW117054   1.375   8.268   9.530  0.1929 -1.4053  0.0394
37372SOL    HW217055   1.490   8.342   9.465 -0.8916 -0.5146 -0.9147
37373SOL     OW17056   9.486   8.067   5.279  0.7977 -0.2155  1.2600
37373SOL    HW117057   9.540   7.988   5.288  0.4183 -0.7361 -0.6050
37373SOL    HW217058   9.401   8.035   5.250  1.1398  0.9061 -1.3422
37374SOL     OW17059   7.087   7.658   7.441  0.2108 -0.2648 -0.3328
37374SOL    HW117060   7.073   7.572   7.401  0.2638 -0.2895 -0.2986
37374SOL    HW217061   7.044   7.653   7.526  0.3288 -0.3027 -0.2748
37375SOL     OW17062   4.487   6.992   8.782  0.0625  0.6138 -0.1379
37375SOL    HW117063   4.536   6.978   8.701 -0.0553 -1.6566  0.1084
37375SOL    HW217064   4.416   6.928   8.778 -0.3526  0.9356  1.4350
37376SOL     OW17065   4.140   0.068   5.860 -0.1098  0.1987 -0.7602
37376SOL    HW117066   4.205   0.128   5.898  0.8341  0.0661 -2.0582
37376SOL    HW217067   4.068   0.066   5.923  2.1106 -1.4773  1.9261
37377SOL     OW17068   1.925   5.044   6.910  0.0297 -0.2087 -0.0119
37377SOL    HW117069   1.861   5.001   6.853 -0.2675  1.5328 -1.0812
37377SOL    HW217070   1.993   5.076   6.850  0.7678 -0.0932  0.8561
37378SOL     OW17071   0.573   5.991   6.432  0.3755 -0.6109  0.1851
37378SOL    HW117072   0.526   5.923   6.481  1.9966 -0.6854  1.7574
37378SOL    HW217073   0.583   5.954   6.345 -1.1114 -1.2260  0.2438
37379SOL     OW17074   4.527   5.729  10.508  0.4723 -0.0927  0.3855
37379SOL    HW117075   4.514   5.634  10.501  1.4850 -0.2572  0.5888
37379SOL    HW217076   4.537   5.744  10.602 -0.7041  0.3668  0.4479
37380SOL     OW17077   6.494   8.786   5.230 -0.1383  0.2615 -0.0639
37380SOL    HW117078   6.547   8.710   5.256  1.8095  1.1846 -1.1095
37380SOL    HW217079   6.439   8.753   5.159  1.4432  0.0182 -1.2326
37381SOL     OW17080   2.450   1.314   2.332  0.0433  0.2674 -0.2289
37381SOL    HW117081   2.500   1.386   2.294  0.3001 -1.1041 -2.6651
37381SOL    HW217082   2.483   1.307   2.422  2.1847  1.2351 -0.8773
37382SOL     OW17083   6.948   6.177   7.257 -0.3479  0.3191  0.5980
37382SOL    HW117084   6.982   6.145   7.341 -0.0396 -1.0559 -0.0223
37382SOL    HW217085   6.989   6.263   7.245  0.0199  0.2959  1.5990
37383SOL     OW17086   8.738   4.451  10.894  0.1697  0.1385 -0.7145
37383SOL    HW117087   8.798   4.487  10.960  0.4445  0.5818 -1.1957
37383SOL    HW217088   8.654   4.445  10.939 -0.0020  1.8286 -0.7492
37384SOL     OW17089   5.049   6.918   3.983  0.0862  0.4190  0.2395
37384SOL    HW117090   5.137   6.882   3.973 -0.2640 -0.2819 -0.3712
37384SOL    HW217091   5.063   7.005   4.022  1.1138  0.7586 -0.8398
37385SOL     OW17092  10.963   4.489   3.176  0.2384  0.3975  0.2323
37385SOL    HW117093  11.033   4.425   3.185  0.1086 -0.1401 -2.0159
37385SOL    HW217094  10.885   4.437   3.157 -0.4964  1.0681  1.2959
37386SOL     OW17095   4.904   1.307   2.872  0.0889 -0.5235  0.0239
37386SOL    HW117096   4.945   1.382   2.828 -1.3419  0.1465 -0.2281
37386SOL    HW217097   4.825   1.290   2.821 -1.1210 -0.3538  1.7592
37387SOL     OW17098  10.282   5.055   7.130  0.0189 -0.3702 -0.0026
37387SOL    HW117099  10.276   5.131   7.187 -1.0359 -0.0312 -0.5373
37387SOL    HW217100  10.283   4.980   7.189  0.8429  0.0428  0.5193
37388SOL     OW17101   5.057  10.950  10.443 -0.0877  0.1666 -0.0519
37388SOL    HW117102   5.141  10.921  10.480  1.2954  0.6422 -2.5523
37388SOL    HW217103   5.075  11.039  10.414 -2.4157  1.3984  1.9555
37389SOL     OW17104  10.776   5.433   9.649  0.5748  0.1184 -0.0336
37389SOL    HW117105  10.805   5.436   9.740  0.4932 -1.3029  0.0657
37389SOL    HW217106  10.697   5.487   9.647  0.7302  0.3748  0.6824
37390SOL     OW17107   6.832   6.445   4.120  0.4460 -0.0569 -0.2661
37390SOL    HW117108   6.743   6.425   4.093  0.0998  0.6054  0.3356
37390SOL    HW217109   6.822   6.493   4.202  1.4451 -2.2355  1.2425
37391SOL     OW17110   0.445   6.183   2.699  0.5166  0.5665  0.1624
37391SOL    HW117111   0.541   6.178   2.700  0.5926  1.4664 -0.8044
37391SOL    HW217112   0.418   6.103   2.653  0.7874  0.2191  0.5994
37392SOL     OW17113   9.797   9.788   9.251 -0.3714  0.1827  0.1100
37392SOL    HW117114   9.769   9.713   9.304 -1.2201  0.8459  0.6345
37392SOL    HW217115   9.856   9.751   9.185 -0.7256 -0.9305  0.4009
37393SOL     OW17116   1.267   6.451   9.784 -0.0370  0.3150  0.0712
37393SOL    HW117117   1.355   6.485   9.769 -0.7182  2.7275  1.0059
37393SOL    HW217118   1.281   6.360   9.811  2.3391  1.0654  1.7682
37394SOL     OW17119   4.238   8.981  11.475  0.5280  0.1771 -0.1808
37394SOL    HW117120   4.186   8.904  11.453  2.5020 -1.4964  0.6314
37394SOL    HW217121   4.225   9.041  11.402 -0.0668 -1.4609 -1.4673
37395SOL     OW17122   2.039   8.675   1.046 -0.4317 -0.1569  0.2294
37395SOL    HW117123   2.079   8.759   1.024 -0.1747 -0.3511 -0.0555
37395SOL    HW217124   1.945   8.691   1.040 -0.4350  0.4828  1.5572
37396SOL     OW17125   1.175  11.666   5.031  0.2615 -0.7359 -0.0689
37396SOL    HW117126   1.200  11.619   5.110  1.1392 -0.2537 -0.0549
37396SOL    HW217127   1.235  11.740   5.026 -1.1561  0.4558 -0.0408
37397SOL     OW17128   8.287   9.921   1.354  0.1241 -0.1119  0.1225
37397SOL    HW117129   8.348   9.871   1.300 -0.9145 -0.5922 -0.6457
37397SOL    HW217130   8.340   9.990   1.393  0.6866  1.2162 -2.7300
37398SOL     OW17131   5.038   7.360   1.157  0.2651 -0.1133  0.3107
37398SOL    HW117132   4.993   7.390   1.078  0.7192  1.1386  0.5080
37398SOL    HW217133   5.115   7.313   1.124 -0.5773 -1.3252 -0.0037
37399SOL     OW17134   0.697   9.209   0.196 -0.3575 -0.0675 -0.4075
37399SOL    HW117135   0.710   9.163   0.279 -0.1909 -2.6132 -1.7456
37399SOL    HW217136   0.786   9.235   0.169 -0.2155 -0.6627 -0.5316
37400SOL     OW17137   2.512   7.116   5.513  0.4200 -0.0846 -0.2970
37400SOL    HW117138   2.604   7.094   5.497  0.3466  0.2376 -1.2394
37400SOL    HW217139   2.480   7.147   5.428  0.0179  1.9040  0.5290
37401SOL     OW17140   3.688   5.997   4.241  0.1527 -0.4781 -0.3123
37401SOL    HW117141   3.749   5.924   4.253  0.0697 -0.8971 -2.1876
37401SOL    HW217142   3.637   5.998   4.322 -0.8385 -3.4809 -0.7582
37402SOL     OW17143  10.770   5.110  10.549 -0.0012  0.3949 -0.1789
37402SOL    HW117144  10.759   5.071  10.636  0.3390 -1.0956 -0.7579
37402SOL    HW217145  10.710   5.183  10.547  1.3213  1.6515  1.9715
37403SOL     OW17146   9.919   7.014   0.025 -0.1699  0.1963 -0.2033
37403SOL    HW117147   9.967   7.074   0.082  0.5974  0.5136 -1.1539
37403SOL    HW217148   9.968   6.931   0.031 -0.2858  0.1337 -0.1290
37404SOL     OW17149   3.216   1.352   5.481  0.3987  0.1650 -0.3189
37404SOL    HW117150   3.184   1.300   5.555  0.1520  0.4799 -0.2027
37404SOL    HW217151   3.167   1.434   5.487  0.4461  0.2284 -0.7769
37405SOL     OW17152   2.095   8.457   3.477  0.0322 -0.3991  0.5903
37405SOL    HW117153   2.088   8.520   3.405  2.6209 -0.5910  0.0755
37405SOL    HW217154   2.085   8.510   3.556  0.8733  0.4496  0.1459
37406SOL     OW17155   3.248   4.265   0.626  0.4743  0.2989  0.2611
37406SOL    HW117156   3.233   4.216   0.545 -1.8949  1.5305 -0.1328
37406SOL    HW217157   3.234   4.357   0.600 -0.2870  0.7156  2.0369
37407SOL     OW17158   2.390   4.287   1.773 -0.3489 -0.2656 -0.2152
37407SOL    HW117159   2.300   4.292   1.806  0.0315 -2.0146  1.2557
37407SOL    HW217160   2.398   4.363   1.715 -2.2781  0.8232  0.8125
37408SOL     OW17161   7.548  10.095   4.595  0.0324  0.0740  0.0015
37408SOL    HW117162   7.492  10.020   4.617 -0.5932 -0.3183 -2.5843
37408SOL    HW217163   7.592  10.069   4.514  2.4053  1.2228  0.8451
37409SOL     OW17164   2.831  10.828   7.411  0.0486 -0.1934  0.6174
37409SOL    HW117165   2.851  10.822   7.504  0.8307  0.6602  0.5148
37409SOL    HW217166   2.904  10.877   7.373 -0.7621  0.3697 -0.2808
37410SOL     OW17167   2.234   3.592   6.200  0.0261 -1.1070 -0.0894
37410SOL    HW117168   2.251   3.622   6.289 -2.5083  0.2617  0.0179
37410SOL    HW217169   2.141   3.569   6.199  0.2461 -2.1834 -2.1095
37411SOL     OW17170   8.043   9.098   0.712  0.4391  0.6011  0.2563
37411SOL    HW117171   8.088   9.032   0.765  1.0982  0.5637 -0.3390
37411SOL    HW217172   8.113   9.153   0.677 -0.1121  1.8282  0.9959
37412SOL     OW17173   2.558   7.812   4.774 -0.1266 -0.1633 -0.1810
37412SOL    HW117174   2.485   7.793   4.834 -0.2630  1.3893  0.2006
37412SOL    HW217175   2.620   7.862   4.828  0.7178 -0.5270 -0.7965
37413SOL     OW17176   0.529   9.861   9.939 -0.1881  0.2750 -0.5268
37413SOL    HW117177   0.611   9.815   9.921 -0.8508 -0.5736 -1.5328
37413SOL    HW217178   0.486   9.809  10.006  0.7184  1.5340  1.1133
37414SOL     OW17179   8.698   3.295   3.846 -0.0138  0.0101 -0.9627
37414SOL    HW117180   8.636   3.333   3.783  1.6674  1.1628 -1.9965
37414SOL    HW217181   8.745   3.228   3.796 -0.4837 -0.9491 -0.1517
37415SOL     OW17182   7.663   6.216   8.154 -0.2254 -0.2664 -0.7481
37415SOL    HW117183   7.623   6.268   8.084  1.6227  0.7878 -1.0950
37415SOL    HW217184   7.707   6.145   8.107 -0.9719 -0.9593 -0.4305
37416SOL     OW17185   7.172  10.703   5.655  0.3352 -0.0337 -0.1861
37416SOL    HW117186   7.082  10.696   5.688  1.1178 -0.8234  2.0038
37416SOL    HW217187   7.170  10.777   5.595 -1.9065 -0.4487 -0.7157
37417SOL     OW17188   7.650   6.895   2.485  0.7404 -0.4820  0.1451
37417SOL    HW117189   7.664   6.802   2.502 -1.2607 -0.5238  2.0899
37417SOL    HW217190   7.644   6.902   2.390  0.7498 -2.3516 -0.0290
37418SOL     OW17191   9.608   8.238   0.968  0.2533 -0.0749 -0.0555
37418SOL    HW117192   9.542   8.280   0.913 -0.0928 -0.3218  0.1695
37418SOL    HW217193   9.655   8.179   0.908 -0.7156 -1.0270  0.0884
37419SOL     OW17194   5.093   9.131   6.889 -0.7469 -0.0464 -0.3608
37419SOL    HW117195   5.079   9.045   6.850  1.7785 -0.5699 -0.2993
37419SOL    HW217196   5.161   9.171   6.835  0.4566  0.5693  1.5043
37420SOL     OW17197   9.343   0.340   0.847 -0.2009  0.2235  0.4554
37420SOL    HW117198   9.289   0.400   0.898  2.0507  1.6443  1.3289
37420SOL    HW217199   9.410   0.310   0.908  1.5559  0.6257 -1.1896
37421SOL     OW17200   7.214   2.400   3.608 -0.4101 -0.1417 -0.6019
37421SOL    HW117201   7.152   2.439   3.670 -0.7851  1.1032 -1.7155
37421SOL    HW217202   7.280   2.358   3.664 -0.6488  1.0677  0.6429
37422SOL     OW17203   4.653   6.644   4.239 -0.0919 -0.4274 -0.0930
37422SOL    HW117204   4.703   6.571   4.273 -0.7982 -0.5551  0.6975
37422SOL    HW217205   4.571   6.643   4.289  0.3074  1.5347  0.6748
37423SOL     OW17206   5.947   7.277   8.005 -0.0804  0.0088  0.2678
37423SOL    HW117207   5.947   7.250   7.913 -0.2521  0.2080  0.2084
37423SOL    HW217208   6.030   7.324   8.016 -0.3266  0.4968  0.0620
37424SOL     OW17209   7.943   7.727   2.180  0.2788  0.5023  0.9414
37424SOL    HW117210   7.970   7.738   2.271  0.6719 -0.3375  0.9353
37424SOL    HW217211   8.016   7.680   2.138 -0.9006 -1.3121  0.7838
37425SOL     OW17212  11.587   5.259   9.234  0.1874 -0.4241  0.0681
37425SOL    HW117213  11.576   5.350   9.263  1.0366 -0.3403  0.1431
37425SOL    HW217214  11.632   5.216   9.306 -0.5124 -0.9967  0.1723
37426SOL     OW17215  11.165   9.425   3.006  0.1625  0.6916  0.6322
37426SOL    HW117216  11.091   9.401   3.061 -0.9878 -1.1931 -1.5932
37426SOL    HW217217  11.221   9.348   3.006 -0.8514 -0.1585 -2.2953
37427SOL     OW17218   5.090   6.589   0.252  0.0036  0.5196 -0.2277
37427SOL    HW117219   5.074   6.654   0.320 -1.1036 -1.6081  1.7109
37427SOL    HW217220   5.020   6.601   0.189  0.7192  2.1678 -0.7665
37428SOL     OW17221   6.639   6.268   5.006 -0.3672 -0.3405 -0.1913
37428SOL    HW117222   6.564   6.235   4.957  0.4213 -3.2925  0.3794
37428SOL    HW217223   6.699   6.194   5.011  1.0174  0.7984  2.4526
37429SOL     OW17224   6.694   4.532   5.235 -0.4896  0.0557 -0.3543
37429SOL    HW117225   6.666   4.525   5.144  0.9305  1.1169 -0.9153
37429SOL    HW217226   6.787   4.556   5.229  0.0770 -1.5398  1.3827
37430SOL     OW17227   1.213   9.317   0.145  0.0290  0.1090  0.1230
37430SOL    HW117228   1.200   9.391   0.086  1.0346 -0.2480 -0.5659
37430SOL    HW217229   1.304   9.290   0.132 -0.2530 -1.1272  0.5039
37431SOL     OW17230   6.412   8.669   4.976 -0.8674 -0.3522  0.0697
37431SOL    HW117231   6.331   8.669   5.027 -0.0990 -1.6044  1.3916
37431SOL    HW217232   6.415   8.755   4.935 -0.6819  1.5679  3.6576
37432SOL     OW17233   1.438   7.072   6.035  0.2555  0.1260 -0.5832
37432SOL    HW117234   1.508   7.043   5.977  0.2662  0.1734 -0.5942
37432SOL    HW217235   1.406   7.154   5.996  0.0890  0.0236 -0.6623
37433SOL     OW17236   2.836  10.485  10.831 -0.5350 -0.6829 -0.0812
37433SOL    HW117237   2.783  10.557  10.797 -0.5982 -1.4177 -1.6593
37433SOL    HW217238   2.926  10.518  10.831 -0.7354 -0.1318  0.5933
37434SOL     OW17239   1.031   5.770   3.787  0.2562  0.4514  0.8386
37434SOL    HW117240   1.019   5.693   3.732 -1.8082  0.9371  0.5000
37434SOL    HW217241   1.122   5.765   3.816  1.1736 -0.3161 -1.8395
37435SOL     OW17242   1.579   6.453   2.512 -0.2110  0.0710 -0.5183
37435SOL    HW117243   1.559   6.417   2.426  0.7903  1.1917 -1.2438
37435SOL    HW217244   1.588   6.547   2.497 -1.2326  0.4511  1.0404
37436SOL     OW17245   3.771  11.650  10.218  0.3297 -0.2429  0.4437
37436SOL    HW117246   3.760  11.743  10.200 -0.1523 -0.7079 -1.8967
37436SOL    HW217247   3.835  11.621  10.154  0.8813 -1.4531  1.4962
37437SOL     OW17248   2.065   6.797   5.293 -0.3989  0.1672  0.6029
37437SOL    HW117249   2.042   6.873   5.240  0.7876 -1.7273 -2.9165
37437SOL    HW217250   2.159   6.784   5.278 -0.7978 -2.6881  0.0143
37438SOL     OW17251   7.260   6.370  11.258  0.0134  0.5173 -0.1710
37438SOL    HW117252   7.234   6.280  11.238  0.6723  0.6419 -1.6883
37438SOL    HW217253   7.325   6.392  11.191  0.5605  1.8053  0.7484
37439SOL     OW17254   5.376   9.891   0.889 -0.1235  0.3765  0.3447
37439SOL    HW117255   5.412   9.947   0.958 -1.0446 -0.5892  1.6572
37439SOL    HW217256   5.406   9.803   0.912 -0.8917 -0.0350 -0.1920
37440SOL     OW17257   0.758   4.150   3.961 -0.0837  0.1539  0.1081
37440SOL    HW117258   0.840   4.185   3.996 -0.1459 -0.9592  1.4494
37440SOL    HW217259   0.759   4.174   3.869  1.5679  0.4873  0.1876
37441SOL     OW17260   8.223   1.686   3.099  0.0324 -0.0795 -0.0227
37441SOL    HW117261   8.235   1.608   3.153 -0.1762  0.6474  1.0897
37441SOL    HW217262   8.135   1.718   3.121 -0.2504 -0.0280 -1.1391
37442SOL     OW17263   1.699   2.388   0.957 -0.1083  0.3222  0.6670
37442SOL    HW117264   1.669   2.316   1.012 -0.9265 -0.4323 -0.7393
37442SOL    HW217265   1.626   2.407   0.899  0.4897  1.5689  0.2647
37443SOL     OW17266  11.590   0.462   3.828  0.1178  0.0714  0.3108
37443SOL    HW117267  11.545   0.527   3.775  1.0190  1.3550  1.0336
37443SOL    HW217268  11.613   0.392   3.767 -1.1025  0.3096 -0.4417
37444SOL     OW17269   6.562  11.152   9.955  0.1137  0.0249  0.9006
37444SOL    HW117270   6.499  11.204  10.004  1.8450  3.4454 -0.1843
37444SOL    HW217271   6.571  11.197   9.871  2.9930 -1.0278  0.5055
37445SOL     OW17272  11.104   5.736  10.272  0.2896  0.6902  0.2828
37445SOL    HW117273  11.094   5.818  10.223 -0.2140  0.6330  0.2818
37445SOL    HW217274  11.038   5.743  10.342  0.1227  0.2078  0.1729
37446SOL     OW17275   2.537   1.575   0.020  0.0977 -0.4597  0.3453
37446SOL    HW117276   2.487   1.650   0.051 -1.5956 -1.2621 -0.2799
37446SOL    HW217277   2.491   1.499   0.056  0.7946 -1.2430 -0.3697
37447SOL     OW17278   5.921   6.173   5.794  0.1238  0.5068  0.1969
37447SOL    HW117279   5.949   6.264   5.803  0.1735  0.4994  0.1217
37447SOL    HW217280   5.960   6.144   5.711 -0.4817  0.6358 -0.1345
37448SOL     OW17281   1.957   6.011   9.742  0.0341 -0.3223 -0.1665
37448SOL    HW117282   1.954   6.089   9.686  0.2949 -0.2715 -0.1121
37448SOL    HW217283   1.986   6.043   9.827 -2.6598  0.0012  0.7178
37449SOL     OW17284   1.133   9.639   6.864 -0.0290  0.0786  0.6223
37449SOL    HW117285   1.196   9.574   6.895  0.8880  0.1239 -1.0602
37449SOL    HW217286   1.158   9.656   6.773 -2.8469 -0.3634 -0.3166
37450SOL     OW17287   7.476   5.239   8.965  0.1430  0.3796  0.0994
37450SOL    HW117288   7.543   5.175   8.989 -1.2537 -0.7662  1.1066
37450SOL    HW217289   7.525   5.321   8.953  1.5339 -0.0129  2.4076
37451SOL     OW17290   8.490   1.779  10.035 -0.0529  0.2628  0.3433
37451SOL    HW117291   8.579   1.777  10.069 -0.1609 -1.5356  0.6392
37451SOL    HW217292   8.460   1.689  10.042 -0.5577 -0.0207 -3.2732
37452SOL     OW17293  10.202   1.002   8.605  0.0008 -0.7484 -1.1070
37452SOL    HW117294  10.270   0.935   8.613  0.3815 -0.1811  2.2711
37452SOL    HW217295  10.121   0.957   8.628  0.2390 -0.2117  1.0374
37453SOL     OW17296   1.959   8.603   9.659  0.3045 -0.3298  0.2373
37453SOL    HW117297   1.935   8.511   9.664 -1.9038  0.1667 -0.0656
37453SOL    HW217298   1.997   8.623   9.745  1.6550 -1.6919  0.0026
37454SOL     OW17299   2.217   0.248   6.327 -0.5221 -0.6819  0.1597
37454SOL    HW117300   2.220   0.205   6.242  0.4839  1.0241 -0.7224
37454SOL    HW217301   2.262   0.188   6.386  0.3084 -1.1141 -0.8922
37455SOL     OW17302   6.561   4.535   2.156  0.0892 -0.2770 -0.4227
37455SOL    HW117303   6.512   4.490   2.088 -0.5890 -0.8243  0.4106
37455SOL    HW217304   6.585   4.467   2.218 -1.2071  0.5252  1.0168
37456SOL     OW17305   6.068   3.475   7.503 -0.2512 -0.4698 -0.3295
37456SOL    HW117306   6.118   3.394   7.494  0.9543  0.2523 -0.4312
37456SOL    HW217307   6.123   3.542   7.461 -1.0029  0.4756  0.1425
37457SOL     OW17308   4.110   2.985   4.909 -0.3657  0.0179  0.0387
37457SOL    HW117309   4.016   3.003   4.915  0.0058  1.8005  2.3313
37457SOL    HW217310   4.151   3.059   4.955  2.1338 -1.0035 -0.3852
37458SOL     OW17311   9.599   0.615   0.650  0.2254  0.0422 -0.0486
37458SOL    HW117312   9.596   0.530   0.693  2.4996  1.0060  2.3239
37458SOL    HW217313   9.567   0.676   0.717 -1.2198  1.1379 -1.6495
37459SOL     OW17314   9.219   4.103   1.364  0.3488 -0.0341  0.0163
37459SOL    HW117315   9.244   4.113   1.456  0.1957  0.1185  0.0416
37459SOL    HW217316   9.211   4.008   1.351  2.1634 -0.1886 -0.3156
37460SOL     OW17317   9.280   7.206   4.171 -0.5830  0.6488  0.3174
37460SOL    HW117318   9.364   7.170   4.200 -1.0766  0.2011  1.2276
37460SOL    HW217319   9.218   7.135   4.185 -1.1539  1.0513 -0.1536
37461SOL     OW17320  11.292   7.032   9.255 -0.0015  0.2028  0.2047
37461SOL    HW117321  11.313   7.119   9.289 -0.2983  0.9562 -1.4790
37461SOL    HW217322  11.377   6.993   9.234  0.1760 -0.2049  1.5558
37462SOL     OW17323   0.752   6.109   5.888 -0.0041  0.1246  0.3362
37462SOL    HW117324   0.697   6.062   5.951 -0.0556  0.2724  0.3999
37462SOL    HW217325   0.779   6.041   5.826  2.8547 -0.7846  2.3954
37463SOL     OW17326   2.408   7.983   6.403  0.5806  0.5782  0.2755
37463SOL    HW117327   2.391   8.049   6.470 -0.5013  0.7327 -0.1308
37463SOL    HW217328   2.427   8.034   6.324 -1.1436  0.4475 -0.2618
37464SOL     OW17329   2.139  10.142   5.497 -0.2889  0.4028  0.2660
37464SOL    HW117330   2.184  10.110   5.418  0.6536 -0.6753  1.1959
37464SOL    HW217331   2.104  10.063   5.538  1.2579  0.5940  2.1266
37465SOL     OW17332   3.208   2.672   1.980  0.2970 -0.4485 -0.8761
37465SOL    HW117333   3.288   2.719   2.001 -0.2378  0.0426  0.1844
37465SOL    HW217334   3.186   2.626   2.061 -0.1393 -1.1024 -1.3570
37466SOL     OW17335   7.963   8.736   7.354 -0.2530 -0.2298  0.4493
37466SOL    HW117336   8.034   8.757   7.294  1.1198 -0.8897  1.7581
37466SOL    HW217337   7.979   8.645   7.379 -0.5457  0.1143  2.0470
37467SOL     OW17338  11.250  11.466   1.710  0.0381 -0.7703 -0.2894
37467SOL    HW117339  11.317  11.477   1.777 -0.2130  0.4150 -0.2133
37467SOL    HW217340  11.297  11.482   1.627 -0.1983  0.4033 -0.2157
37468SOL     OW17341   2.958  11.435   3.519 -0.0676  0.1465 -0.3283
37468SOL    HW117342   2.982  11.515   3.474 -1.0183  0.8484  0.3768
37468SOL    HW217343   3.038  11.407   3.563 -0.0755  1.5645  0.6701
37469SOL     OW17344   7.979   0.256   2.185 -0.0930  0.5675  0.2528
37469SOL    HW117345   8.037   0.319   2.142  0.1445  0.2460  0.0924
37469SOL    HW217346   7.975   0.182   2.124 -2.1000  1.2964 -0.5686
37470SOL     OW17347   5.481   4.882  10.990 -0.0579  0.5140 -0.3149
37470SOL    HW117348   5.411   4.844  10.936 -2.0418  4.0002 -0.5203
37470SOL    HW217349   5.562   4.857  10.945 -1.3334 -1.0339 -1.9315
37471SOL     OW17350  11.027   8.098   6.301  0.0216 -0.3744 -0.2241
37471SOL    HW117351  11.087   8.138   6.238  0.5107 -0.6451  0.0671
37471SOL    HW217352  10.941   8.102   6.258  0.3857 -0.7613 -1.0044
37472SOL     OW17353   4.865   2.034   6.164  0.2336  0.3157  0.0846
37472SOL    HW117354   4.898   1.968   6.104 -1.0142  0.6189 -0.9770
37472SOL    HW217355   4.771   2.021   6.166 -0.0194  1.8907  0.0351
37473SOL     OW17356   2.347   5.560  10.212  0.5864 -0.4103  0.2077
37473SOL    HW117357   2.339   5.655  10.216 -1.0061 -0.5326  0.3535
37473SOL    HW217358   2.327   5.538  10.121 -0.3224 -0.6919  0.4646
37474SOL     OW17359   8.442   1.751   9.511  0.4845 -0.4731  0.2802
37474SOL    HW117360   8.403   1.772   9.596 -0.5311 -0.4575 -0.1732
37474SOL    HW217361   8.427   1.657   9.500 -0.3576 -0.2842 -0.3374
37475SOL     OW17362   0.073  11.653   3.147  0.0222  0.6369 -0.8195
37475SOL    HW117363   0.077  11.565   3.110 -0.9896  0.4079 -0.4292
37475SOL    HW217364   0.160  11.690   3.132  0.5968 -0.5849 -0.6115
37476SOL     OW17365   5.858   5.195   2.063  0.3452  0.2763 -0.0632
37476SOL    HW117366   5.776   5.181   2.014 -0.2983  0.3749  0.9595
37476SOL    HW217367   5.926   5.163   2.004 -0.4503 -0.0571 -0.8363
37477SOL     OW17368   3.786   6.653   1.623  0.4223  0.1059  0.0528
37477SOL    HW117369   3.813   6.562   1.635  0.4204  0.0669 -0.2348
37477SOL    HW217370   3.706   6.648   1.570  0.8170  0.3093 -0.5742
37478SOL     OW17371  11.091   0.432   3.060 -0.6155  0.2832  0.7456
37478SOL    HW117372  11.186   0.441   3.049 -0.4641 -1.9697 -0.5055
37478SOL    HW217373  11.054   0.480   2.986 -0.3100 -0.9425 -0.2259
37479SOL     OW17374   4.594   6.666  10.509  0.4068 -0.6309  0.3989
37479SOL    HW117375   4.501   6.678  10.491  1.1039  3.0250 -1.9284
37479SOL    HW217376   4.621   6.594  10.453 -0.6852 -0.3486 -0.5261
37480SOL     OW17377   5.301   8.940   9.808 -0.1688  0.3018 -0.5180
37480SOL    HW117378   5.225   8.985   9.846 -1.4781 -1.2418 -1.1969
37480SOL    HW217379   5.334   8.885   9.879 -0.3171  0.2161 -0.5134
37481SOL     OW17380   6.106   7.305   7.108  0.0652 -0.0294 -0.0513
37481SOL    HW117381   6.103   7.210   7.120 -3.2755  0.0971  1.0667
37481SOL    HW217382   6.105   7.317   7.013 -1.8210 -1.1717 -0.2263
37482SOL     OW17383   5.835   5.965   0.989 -0.6101  0.3462  0.0928
37482SOL    HW117384   5.857   6.022   0.916  0.3458 -0.5083 -0.2994
37482SOL    HW217385   5.757   5.918   0.960 -0.8163  0.7279  0.0241
37483SOL     OW17386   3.952   5.805   2.918  0.2401  0.4727  0.4943
37483SOL    HW117387   3.958   5.897   2.891  1.7596  0.4211  0.5516
37483SOL    HW217388   3.964   5.807   3.013 -1.3098  0.3307  0.7104
37484SOL     OW17389   0.283   6.669   1.701 -0.4288 -0.1112  0.0997
37484SOL    HW117390   0.374   6.692   1.681 -0.1372 -1.4235 -0.1640
37484SOL    HW217391   0.237   6.685   1.619 -0.3745  0.2332  0.1341
37485SOL     OW17392   8.534   4.475   9.190  0.3381 -0.0185  0.4774
37485SOL    HW117393   8.556   4.566   9.170  0.6610 -0.2248 -0.1323
37485SOL    HW217394   8.503   4.439   9.107  0.8953 -0.6620  0.5339
37486SOL     OW17395   6.108   8.099   8.564 -0.6452  0.0299  0.2614
37486SOL    HW117396   6.045   8.063   8.626 -1.0359  1.0302  0.4696
37486SOL    HW217397   6.185   8.119   8.617 -0.5445 -0.2080  0.2050
37487SOL     OW17398   3.386   5.783   3.071  0.2259  0.2421  0.4379
37487SOL    HW117399   3.342   5.855   3.026 -0.4424  0.0647  0.7919
37487SOL    HW217400   3.469   5.772   3.024 -0.2485  0.3715 -0.4413
37488SOL     OW17401   7.198   8.138   3.952  0.3006 -0.0550 -0.3645
37488SOL    HW117402   7.174   8.079   4.024 -0.9530 -0.4407 -1.0662
37488SOL    HW217403   7.180   8.226   3.986  0.7119 -0.1675  0.1538
37489SOL     OW17404   6.543   1.553   7.047  0.1175 -0.6226  0.2905
37489SOL    HW117405   6.538   1.598   7.131  1.8272 -0.8041  0.5249
37489SOL    HW217406   6.472   1.489   7.050 -1.6975  1.3108  0.3724
37490SOL     OW17407   7.429   3.738  11.601 -0.4123  0.0622  0.6436
37490SOL    HW117408   7.339   3.731  11.634  0.2494 -3.7657  2.1494
37490SOL    HW217409   7.423   3.710  11.509 -0.8324  0.5086  0.5318
37491SOL     OW17410   2.398   2.601   9.772  0.1291 -0.4508  0.0836
37491SOL    HW117411   2.361   2.532   9.718 -0.5349 -0.5592  0.6581
37491SOL    HW217412   2.472   2.560   9.817  0.9435 -0.2504 -1.0231
37492SOL     OW17413   1.210   3.996   9.646  0.3916 -0.3033 -0.0629
37492SOL    HW117414   1.300   3.967   9.631  1.1464  1.7836  0.0715
37492SOL    HW217415   1.178   4.022   9.560 -0.3499 -1.6293 -0.2193
37493SOL     OW17416   3.778  11.446   1.187 -0.0706  0.0081  0.6074
37493SOL    HW117417   3.820  11.527   1.158 -0.8188  0.1980  0.0193
37493SOL    HW217418   3.833  11.415   1.259 -0.1572  1.3878  1.2880
37494SOL     OW17419   9.925   2.548   3.568  0.5536  0.3832  0.2296
37494SOL    HW117420  10.018   2.544   3.546  0.0981  0.3160 -1.9031
37494SOL    HW217421   9.881   2.559   3.484 -1.3183  1.4948  1.2808
37495SOL     OW17422  11.483   2.171   3.040 -0.3111  0.4848  0.0626
37495SOL    HW117423  11.390   2.167   3.061 -0.2711  2.1739  0.7535
37495SOL    HW217424  11.503   2.086   3.002 -2.2727  0.3284 -0.7164
37496SOL     OW17425  11.472   3.723   0.662 -0.2759 -0.3719  0.4660
37496SOL    HW117426  11.477   3.817   0.675  0.1403 -0.3347  0.0615
37496SOL    HW217427  11.509   3.708   0.575  0.2236 -0.9681  0.7658
37497SOL     OW17428   1.722   0.042   3.340  0.0433  0.0929 -0.2925
37497SOL    HW117429   1.693   0.099   3.269 -0.3904 -1.1126 -1.1328
37497SOL    HW217430   1.770  -0.029   3.296 -0.6288 -0.9281  0.5494
37498SOL     OW17431   9.394   7.014   9.480 -0.3638  0.5705  0.1170
37498SOL    HW117432   9.438   6.930   9.465  0.1197  0.9341 -0.5465
37498SOL    HW217433   9.398   7.027   9.575  0.0136  0.0941  0.1703
37499SOL     OW17434   7.096   6.477   5.682  0.3267 -0.2642  0.2952
37499SOL    HW117435   7.145   6.399   5.655  0.2099  0.3244 -1.7985
37499SOL    HW217436   7.149   6.516   5.751  1.2589 -1.2713  0.1710
37500SOL     OW17437   4.805   2.098   9.260 -0.3341  0.5801  0.2692
37500SOL    HW117438   4.885   2.151   9.268 -0.6393  1.3519 -1.3658
37500SOL    HW217439   4.772   2.119   9.173 -0.8122 -1.8462 -0.1968
37501SOL     OW17440  11.203   5.080   5.218 -0.0111 -0.5811  0.7116
37501SOL    HW117441  11.165   5.167   5.209  1.2838  0.2071  2.1903
37501SOL    HW217442  11.289   5.088   5.177  0.8180 -0.5963  2.3403
37502SOL     OW17443   1.161   7.742   9.026  0.5120 -0.3850  0.6651
37502SOL    HW117444   1.148   7.647   9.023  0.4749 -0.3668 -0.1970
37502SOL    HW217445   1.092   7.776   8.969  2.2098 -0.0464 -1.3204
37503SOL     OW17446   4.942   3.814  10.718 -0.0229  0.1074  0.2945
37503SOL    HW117447   5.005   3.756  10.760  1.0298  3.3363  3.7148
37503SOL    HW217448   4.863   3.808  10.771  0.3868  2.2599  1.2426
37504SOL     OW17449   0.328  11.098   0.711  0.1237  0.1650 -0.0927
37504SOL    HW117450   0.250  11.131   0.667 -0.4350 -3.0456 -1.7670
37504SOL    HW217451   0.334  11.150   0.791 -1.3411  3.2780 -1.8228
37505SOL     OW17452   9.541  10.371   4.334  0.3970  0.2963 -0.3152
37505SOL    HW117453   9.469  10.325   4.290  1.2188 -0.9496 -0.4202
37505SOL    HW217454   9.546  10.331   4.421  0.6903  0.6585 -0.1604
37506SOL     OW17455  10.142   3.567   9.017 -0.5287  0.1370 -0.3060
37506SOL    HW117456  10.124   3.489   8.964 -1.0385  1.6870 -2.5637
37506SOL    HW217457  10.076   3.631   8.989 -0.2982  1.3126  1.6648
37507SOL     OW17458  11.289   8.699  10.112  0.3297  0.4213  0.7384
37507SOL    HW117459  11.347   8.768  10.083 -0.2992  0.6753  0.0397
37507SOL    HW217460  11.234   8.680  10.036 -0.6578  0.3596  1.4428
37508SOL     OW17461  10.328   3.265   7.442  0.0711 -0.3754 -0.0901
37508SOL    HW117462  10.342   3.189   7.499  0.4668 -0.1308  0.1396
37508SOL    HW217463  10.413   3.308   7.437 -0.8365  2.2148  2.9041
37509SOL     OW17464   3.566   2.641   4.941  0.3208  0.7647  0.7231
37509SOL    HW117465   3.626   2.567   4.938  0.5882  1.0107 -0.4869
37509SOL    HW217466   3.518   2.636   4.858 -0.6447  1.1393  1.2434
37510SOL     OW17467   3.425   3.758   3.380  0.2363  0.4216 -0.2619
37510SOL    HW117468   3.434   3.665   3.360  3.6268  0.7918 -1.0587
37510SOL    HW217469   3.381   3.795   3.303 -0.3445 -0.3455 -0.3144
37511SOL     OW17470   9.679   8.908   0.956 -0.5571  0.7391  0.8650
37511SOL    HW117471   9.650   8.999   0.956 -1.3259  0.5055  1.2021
37511SOL    HW217472   9.632   8.868   1.028  0.3509  0.2404  1.1960
37512SOL     OW17473   1.924   2.744  11.200  0.4321 -0.6166 -0.0188
37512SOL    HW117474   1.892   2.824  11.159 -0.5638 -0.9556  0.0809
37512SOL    HW217475   2.015   2.764  11.223 -0.2247  1.0384  1.4031
37513SOL     OW17476   5.395   8.596   3.095  0.7486 -0.0443 -0.2939
37513SOL    HW117477   5.341   8.593   3.016  2.0828  0.9825 -1.3086
37513SOL    HW217478   5.399   8.689   3.117 -0.1957 -0.3760  1.4571
37514SOL     OW17479   7.747   9.076   9.934 -0.7124  0.1822 -0.1304
37514SOL    HW117480   7.753   9.090  10.028  0.2539 -1.2326  0.0606
37514SOL    HW217481   7.681   9.007   9.925 -2.6024  1.9834 -0.7150
37515SOL     OW17482   5.896   6.864  10.890  0.1790  0.0671 -0.0881
37515SOL    HW117483   5.845   6.883  10.810 -1.0605 -2.0038  0.1379
37515SOL    HW217484   5.831   6.830  10.952  1.5477 -0.8325  0.9031
37516SOL     OW17485   4.504   2.935   2.487 -0.3652 -0.6670  0.0216
37516SOL    HW117486   4.553   3.002   2.439  0.6582 -1.3853  0.0347
37516SOL    HW217487   4.435   2.984   2.532 -0.0780  0.2825 -0.5316
37517SOL     OW17488   6.559   5.983   4.612 -0.0516 -0.3555 -0.5470
37517SOL    HW117489   6.581   5.961   4.703 -1.2524 -0.0721 -0.1683
37517SOL    HW217490   6.556   5.899   4.567  3.3254 -0.3393 -1.0434
37518SOL     OW17491  10.245  11.267   6.442  0.4689  0.4721 -0.0600
37518SOL    HW117492  10.302  11.323   6.495  0.4716  0.5138 -0.1074
37518SOL    HW217493  10.262  11.179   6.476 -0.9806  0.6915  1.3422
37519SOL     OW17494   0.126  10.770   6.914  0.0220  0.9279  0.0242
37519SOL    HW117495   0.194  10.727   6.862 -0.9932 -2.3085  1.1294
37519SOL    HW217496   0.174  10.817   6.982  1.2258 -0.6593  0.3312
37520SOL     OW17497   1.957   8.134   3.218  0.0305  0.6889  0.6186
37520SOL    HW117498   1.927   8.069   3.155  1.8295  1.7310 -1.4906
37520SOL    HW217499   2.049   8.150   3.193  0.0345  3.0350  1.8721
37521SOL     OW17500   8.058   1.916   4.583 -0.4966  0.6277  0.5144
37521SOL    HW117501   8.010   1.865   4.518  1.1337  1.9040 -1.7942
37521SOL    HW217502   8.108   1.850   4.632 -1.3767 -0.3044  0.2153
37522SOL     OW17503   9.877   7.913  10.590 -0.2924  0.1606 -0.0130
37522SOL    HW117504   9.941   7.894  10.521  0.2710 -1.6782  0.9517
37522SOL    HW217505   9.794   7.921  10.543  0.1721 -0.4963 -0.9878
37523SOL     OW17506   9.657   8.298   8.559  0.5577  0.2200  0.4475
37523SOL    HW117507   9.667   8.332   8.648  1.5740  1.1950 -0.0184
37523SOL    HW217508   9.623   8.372   8.509 -0.0431 -0.3330  0.0199
37524SOL     OW17509   0.015   2.902  11.016  0.5659  0.8235 -0.5603
37524SOL    HW117510   0.030   2.963  11.088 -0.9629 -0.3304  0.8262
37524SOL    HW217511   0.058   2.821  11.044 -1.1326 -0.0335 -0.2674
37525SOL     OW17512   1.691  11.030   9.439 -0.0118  0.4367 -0.0237
37525SOL    HW117513   1.763  10.977   9.405 -0.7159 -0.1766 -0.6092
37525SOL    HW217514   1.693  11.016   9.534  1.4075  1.4378  0.1154
37526SOL     OW17515   2.126   0.143  10.429  0.1822  0.1569  0.1837
37526SOL    HW117516   2.198   0.082  10.445 -0.6971 -0.9782 -0.0776
37526SOL    HW217517   2.093   0.164  10.516 -1.6847 -2.4660  0.2455
37527SOL     OW17518   3.625  11.506  11.313 -0.3493 -0.1246 -0.1896
37527SOL    HW117519   3.703  11.471  11.271 -0.8998 -0.0192 -1.3393
37527SOL    HW217520   3.580  11.554  11.244 -0.5419  1.3274  0.8898
37528SOL     OW17521   0.266   3.512   3.446  0.2653  0.1376 -0.7023
37528SOL    HW117522   0.211   3.590   3.456 -0.0782  0.0214 -1.5504
37528SOL    HW217523   0.268   3.496   3.352  1.3653 -0.1551 -0.6385
37529SOL     OW17524   5.356   9.900   8.795 -0.2879  0.4123  0.3716
37529SOL    HW117525   5.447   9.879   8.774  0.3874  2.9758  0.4410
37529SOL    HW217526   5.359   9.939   8.882 -1.5449  0.0475  0.6054
37530SOL     OW17527  10.431   2.718   8.466  0.7250  0.1527 -0.1002
37530SOL    HW117528  10.459   2.809   8.462 -1.1628  0.8349  1.0702
37530SOL    HW217529  10.448   2.692   8.557  0.3028 -0.3313 -0.1571
37531SOL     OW17530   6.712   6.968   2.256 -0.8382  0.2588  0.4361
37531SOL    HW117531   6.794   7.004   2.223 -0.9528 -0.6519 -0.9070
37531SOL    HW217532   6.644   7.013   2.206 -1.0475 -0.5479 -0.0267
37532SOL     OW17533   4.139   5.708   3.617  0.4635  0.4698 -0.1356
37532SOL    HW117534   4.075   5.658   3.668 -1.4625 -0.5715 -3.3131
37532SOL    HW217535   4.097   5.792   3.602  0.6153  0.4295 -0.7808
37533SOL     OW17536   3.414   7.847  10.741  0.0940 -0.2130  0.3507
37533SOL    HW117537   3.326   7.883  10.746  0.9089  1.7208  2.6858
37533SOL    HW217538   3.406   7.758  10.774 -1.2446 -0.7802 -1.3406
37534SOL     OW17539   3.977   8.736   2.417 -0.3990 -0.1443 -0.5769
37534SOL    HW117540   3.951   8.821   2.453  0.9886 -0.3647  1.1144
37534SOL    HW217541   4.021   8.756   2.335 -1.1905  0.6432 -0.8213
37535SOL     OW17542   7.109   9.665  11.361  0.0680 -0.0404  0.0038
37535SOL    HW117543   7.107   9.756  11.331  0.2745  0.2143  0.7600
37535SOL    HW217544   7.096   9.670  11.455 -1.1933 -0.8747 -0.0913
37536SOL     OW17545   9.582   8.705   6.142 -0.6703  0.2471  0.3589
37536SOL    HW117546   9.544   8.626   6.180  2.0925 -0.9829  0.7594
37536SOL    HW217547   9.585   8.688   6.048 -0.6530  0.1454  0.3777
37537SOL     OW17548   1.932   5.906   4.970  0.2264  0.2818  0.3857
37537SOL    HW117549   1.928   5.816   5.001 -1.4234  0.2210  0.0740
37537SOL    HW217550   1.850   5.946   5.000 -0.5980  0.7368 -2.1902
37538SOL     OW17551   3.515   2.609   2.882  0.4250 -0.6426 -0.4504
37538SOL    HW117552   3.424   2.637   2.893  0.5962 -0.7311  1.7145
37538SOL    HW217553   3.567   2.689   2.887  0.4441 -0.3370 -3.6000
37539SOL     OW17554   1.751   9.681   7.793 -0.1005 -0.1200 -0.2229
37539SOL    HW117555   1.841   9.653   7.775 -0.1513 -0.3669 -0.1072
37539SOL    HW217556   1.760   9.765   7.837  0.0653 -0.0282 -0.4308
37540SOL     OW17557   8.618  10.420   4.534 -0.5497  0.6159 -0.0215
37540SOL    HW117558   8.708  10.389   4.537 -0.1855  1.6917  1.5203
37540SOL    HW217559   8.570  10.361   4.592 -0.9288 -0.1172 -1.0414
37541SOL     OW17560   1.324  10.243   8.271 -0.5608  0.1006  0.1083
37541SOL    HW117561   1.347  10.304   8.202 -0.4002  1.9740  1.7322
37541SOL    HW217562   1.327  10.157   8.229 -1.7192  1.2354 -2.4919
37542SOL     OW17563   2.051   2.162   3.188 -0.2769  0.5192  0.3627
37542SOL    HW117564   2.001   2.087   3.157 -1.7533  1.5692  0.0860
37542SOL    HW217565   2.116   2.178   3.120 -0.5369  0.0530 -0.0017
37543SOL     OW17566   4.567   8.368   1.292 -0.2111  0.0187 -0.0779
37543SOL    HW117567   4.504   8.348   1.361  1.3461 -1.0539  1.1167
37543SOL    HW217568   4.532   8.446   1.249 -1.7509  0.1206  1.2614
37544SOL     OW17569   8.392   9.281   1.293 -0.1817 -0.2407 -0.3776
37544SOL    HW117570   8.424   9.192   1.280 -1.3097 -0.8698  0.8153
37544SOL    HW217571   8.308   9.283   1.246 -0.2723  0.1075 -0.2023
37545SOL     OW17572   7.845   6.544   6.810  0.2252  0.8365 -0.3796
37545SOL    HW117573   7.933   6.575   6.829  1.1980 -2.0778  0.4271
37545SOL    HW217574   7.857   6.484   6.736 -0.8299 -0.5342  0.5148
37546SOL     OW17575  11.391   7.167   7.657 -0.0105  0.1826  0.4825
37546SOL    HW117576  11.441   7.247   7.639  0.5065 -0.5327 -1.4222
37546SOL    HW217577  11.313   7.175   7.603  0.7743 -1.2710 -0.9212
37547SOL     OW17578   1.515  10.073   1.777 -0.0491  0.1131 -0.2307
37547SOL    HW117579   1.495   9.997   1.833 -0.1968 -1.1244 -1.9046
37547SOL    HW217580   1.466  10.145   1.817 -0.9680 -0.9650  0.6643
37548SOL     OW17581   0.964   9.276   3.428 -0.1441  0.3436 -0.5473
37548SOL    HW117582   0.996   9.362   3.454  1.0834 -0.1923 -0.2056
37548SOL    HW217583   0.976   9.222   3.506 -1.6130  0.0286 -0.5172
37549SOL     OW17584   4.643   8.663   8.058  0.2327  0.3289  0.5066
37549SOL    HW117585   4.647   8.614   8.140  1.6033  0.7330  0.7055
37549SOL    HW217586   4.728   8.649   8.017 -0.8367 -0.8074 -1.4437
37550SOL     OW17587  11.095   8.434  10.424 -0.3835 -0.2112 -0.5200
37550SOL    HW117588  11.127   8.473  10.505  1.4087  0.6551 -1.5832
37550SOL    HW217589  11.081   8.508  10.365  1.2171 -0.9501 -1.9465
37551SOL     OW17590   1.314   9.721   9.568 -0.5351 -0.5517  0.2058
37551SOL    HW117591   1.235   9.708   9.620 -1.2303  0.6771 -0.4692
37551SOL    HW217592   1.376   9.763   9.628 -1.2170  0.5658  0.1635
37552SOL     OW17593   6.226   9.157   0.437 -0.3483  0.4865  0.4354
37552SOL    HW117594   6.317   9.144   0.463 -0.5566 -0.5530  0.6823
37552SOL    HW217595   6.185   9.195   0.515  0.4423  3.6534 -0.5523
37553SOL     OW17596   8.153   9.870   3.200 -0.4946  0.4644  0.4818
37553SOL    HW117597   8.174   9.879   3.107  0.8595  0.0945  0.7265
37553SOL    HW217598   8.199   9.942   3.242  3.7745 -2.5086  1.4933
37554SOL     OW17599   7.896  11.341   1.230 -0.3083  0.4531  0.0581
37554SOL    HW117600   7.916  11.419   1.179  1.2847  1.3170  1.8723
37554SOL    HW217601   7.829  11.369   1.292 -0.4336  0.1026  0.0835
37555SOL     OW17602   7.819   8.183   7.917  0.0645 -0.2297  0.0242
37555SOL    HW117603   7.822   8.103   7.864  1.5008  0.5026 -1.0545
37555SOL    HW217604   7.726   8.204   7.924 -0.1701 -0.3590 -2.2148
37556SOL     OW17605   1.608   3.593   4.588  0.1955  0.0626 -0.3826
37556SOL    HW117606   1.627   3.623   4.499 -1.8797  2.8490 -0.0058
37556SOL    HW217607   1.685   3.620   4.638 -0.0962  1.6792 -0.7415
37557SOL     OW17608   5.377   4.927   6.792  0.4261  0.0661 -0.0774
37557SOL    HW117609   5.282   4.918   6.802  0.5276 -0.0356  0.8125
37557SOL    HW217610   5.413   4.909   6.878  1.1767  1.2749 -0.1102
37558SOL     OW17611  10.424   4.590   3.164  0.1034  0.1408  0.2136
37558SOL    HW117612  10.491   4.545   3.215  0.5139 -0.6351 -0.9644
37558SOL    HW217613  10.380   4.521   3.115 -0.4915  0.8199 -0.2431
37559SOL     OW17614   4.983   2.344   8.263 -0.7989  0.7367  0.1633
37559SOL    HW117615   5.010   2.277   8.327  1.5617  1.5487  0.1176
37559SOL    HW217616   4.977   2.296   8.180 -0.2538  0.3411  0.3421
37560SOL     OW17617   0.210   9.324   5.669  0.1642 -0.0744  0.0586
37560SOL    HW117618   0.176   9.278   5.746  1.2193 -2.0239 -0.5470
37560SOL    HW217619   0.258   9.398   5.704  1.0665 -1.2156  1.3562
37561SOL     OW17620  11.415  10.663   1.902 -0.5316 -0.4771 -0.6596
37561SOL    HW117621  11.474  10.714   1.957 -0.5037 -0.4450 -0.7191
37561SOL    HW217622  11.346  10.724   1.877 -1.0963 -0.7603  0.1806
37562SOL     OW17623   9.599   0.193   0.088  0.0723  0.8034  0.3885
37562SOL    HW117624   9.562   0.149   0.165  0.6712 -1.2652 -0.4265
37562SOL    HW217625   9.531   0.184   0.021 -0.1069  1.8350  0.4268
37563SOL     OW17626   4.167   5.445   6.214  0.7066  0.2777  0.7177
37563SOL    HW117627   4.212   5.369   6.177  1.1651 -0.1344  2.0597
37563SOL    HW217628   4.090   5.408   6.257  0.8078  0.6027  1.1773
37564SOL     OW17629   0.751  11.460   3.347  0.0588 -0.2972  0.1630
37564SOL    HW117630   0.822  11.417   3.396 -0.5359  0.8437  2.1262
37564SOL    HW217631   0.671  11.432   3.392 -0.3713  2.5319  1.3639
37565SOL     OW17632   6.717  10.096   8.995 -0.0343 -0.3556  0.4772
37565SOL    HW117633   6.783  10.145   9.044 -0.5112  0.8814 -0.0849
37565SOL    HW217634   6.638  10.099   9.050 -0.3685  0.4405 -0.0250
37566SOL     OW17635   7.815   7.971   2.139  0.6785 -0.3251  0.0178
37566SOL    HW117636   7.815   7.877   2.158 -0.0647 -0.8443 -2.2672
37566SOL    HW217637   7.734   7.986   2.092  1.4954  1.1754 -0.9851
37567SOL     OW17638   4.841   4.560   9.341 -0.0826 -0.0676  0.3520
37567SOL    HW117639   4.860   4.578   9.249  1.0780 -0.7743  0.4377
37567SOL    HW217640   4.923   4.526   9.376 -0.6067 -0.1051  1.5775
37568SOL     OW17641   8.311   9.250   8.211 -0.2030  0.1444 -0.3405
37568SOL    HW117642   8.333   9.194   8.137  0.6574  0.0813 -0.0448
37568SOL    HW217643   8.372   9.224   8.280 -1.6182 -0.4890  0.7338
37569SOL     OW17644   7.951   5.125   3.027 -0.9250 -0.0847 -0.3114
37569SOL    HW117645   7.871   5.170   3.055 -0.1537  0.4869  1.0998
37569SOL    HW217646   8.017   5.150   3.093  0.9629  1.0707 -2.4919
37570SOL     OW17647  10.381   7.942  10.387  0.0327 -0.3545  0.2824
37570SOL    HW117648  10.456   7.997  10.407  0.2972 -0.6491  0.1063
37570SOL    HW217649  10.396   7.862  10.436 -0.5401 -0.1286  0.8388
37571SOL     OW17650   8.636   5.720   8.537 -0.0364 -0.5303 -0.2632
37571SOL    HW117651   8.631   5.653   8.469 -0.4229 -0.4517 -0.3152
37571SOL    HW217652   8.558   5.706   8.590 -1.5884  1.5118 -1.8111
37572SOL     OW17653   5.108   7.573   6.271  0.1244  0.2386  0.5107
37572SOL    HW117654   5.169   7.640   6.301  1.5160 -1.0223  0.5904
37572SOL    HW217655   5.042   7.622   6.221  2.4430  1.4329 -1.5984
37573SOL     OW17656   9.050   6.298   1.967 -0.3848 -0.1395 -0.5325
37573SOL    HW117657   8.978   6.337   2.016 -0.2450  0.2765 -0.6563
37573SOL    HW217658   9.126   6.306   2.024 -0.7865 -2.2861  0.4080
37574SOL     OW17659   2.481   3.433   5.007  0.1120 -0.3345  0.0173
37574SOL    HW117660   2.560   3.379   5.008 -0.9335 -1.9751 -1.4343
37574SOL    HW217661   2.486   3.481   4.924 -0.2754 -0.2221  0.0590
37575SOL     OW17662   0.166   4.562   3.606 -0.3395 -0.2018  0.3006
37575SOL    HW117663   0.227   4.489   3.596 -1.4892 -1.0427 -0.9047
37575SOL    HW217664   0.165   4.579   3.701  2.9516  0.9625  0.2459
37576SOL     OW17665   7.880   6.665   5.149 -0.2936  0.1959 -0.5022
37576SOL    HW117666   7.811   6.640   5.087 -2.0839  0.4049  1.3162
37576SOL    HW217667   7.858   6.754   5.174  0.4238  0.1300  0.4102
37577SOL     OW17668   1.841   8.830   0.928 -0.0278 -0.1506  0.7025
37577SOL    HW117669   1.883   8.906   0.967 -0.0380  1.5530 -2.2790
37577SOL    HW217670   1.747   8.851   0.930 -0.1367 -0.6391  0.9136
37578SOL     OW17671  11.532   6.563   6.039  0.1619 -0.0085  1.1100
37578SOL    HW117672  11.552   6.656   6.052 -1.3644  0.1546  2.6801
37578SOL    HW217673  11.459   6.545   6.099 -0.5335 -1.8898 -0.1972
37579SOL     OW17674   8.112   8.712   6.070 -0.3749  0.2857 -0.3222
37579SOL    HW117675   8.072   8.698   6.156  0.3127 -1.8652 -0.2833
37579SOL    HW217676   8.182   8.648   6.066  1.2031  1.9939 -1.5601
37580SOL     OW17677  10.954   8.210   8.155  0.0200  0.4849  0.2737
37580SOL    HW117678  10.987   8.132   8.200 -0.5811  0.3226  0.4387
37580SOL    HW217679  10.938   8.274   8.225 -0.7337  0.2968  0.2794
37581SOL     OW17680   0.654   9.197   3.329  0.1634 -0.0647 -0.6977
37581SOL    HW117681   0.732   9.150   3.300  1.2869  1.9832 -1.2037
37581SOL    HW217682   0.657   9.280   3.281 -1.7624  0.4911  0.0603
37582SOL     OW17683   7.177   9.282   5.231 -0.0456  0.3226 -0.1622
37582SOL    HW117684   7.172   9.294   5.326  0.7714 -0.3395 -0.0276
37582SOL    HW217685   7.099   9.327   5.198 -1.0746 -0.5891  0.9210
37583SOL     OW17686   6.880   4.254   1.401  0.0190  0.1635 -0.3007
37583SOL    HW117687   6.901   4.218   1.487  0.0294 -0.2229 -0.4596
37583SOL    HW217688   6.786   4.238   1.391  0.1188 -0.2855 -0.5799
37584SOL     OW17689   9.513  11.670   2.800  0.6709  0.1634  0.3554
37584SOL    HW117690   9.556  11.755   2.797  0.5160  0.2211 -0.5631
37584SOL    HW217691   9.450  11.673   2.728  0.9887 -0.8973  0.0144
37585SOL     OW17692  10.760   7.427   0.867 -0.0951 -0.4202  0.1807
37585SOL    HW117693  10.695   7.394   0.805 -0.0049  0.7184 -0.5430
37585SOL    HW217694  10.733   7.517   0.886  0.7767 -0.2198  0.5545
37586SOL     OW17695   2.561   4.426  10.238 -0.1576  0.7911 -0.0484
37586SOL    HW117696   2.555   4.493  10.307  0.2441  1.1466 -0.3534
37586SOL    HW217697   2.499   4.359  10.265 -0.3163  1.1257  0.4439
37587SOL     OW17698   9.857   3.802   9.369  0.3810  0.0750  0.4162
37587SOL    HW117699   9.855   3.769   9.459  1.3772 -0.4682  0.2527
37587SOL    HW217700   9.784   3.758   9.325 -0.0558  0.2754  0.9321
37588SOL     OW17701   1.676   9.479  10.505 -0.1585  1.6251 -0.4214
37588SOL    HW117702   1.629   9.522  10.577  0.6584 -1.2253  1.9940
37588SOL    HW217703   1.759   9.452  10.544  0.7166  0.7538 -2.7458
37589SOL     OW17704   5.595   2.001   5.622 -0.1563 -0.5304  0.2712
37589SOL    HW117705   5.667   2.038   5.571 -1.3112 -0.0091 -1.0788
37589SOL    HW217706   5.635   1.970   5.702  1.3241  1.1803  0.2623
37590SOL     OW17707   1.520   7.454  10.112 -0.4357  0.3845 -0.5543
37590SOL    HW117708   1.559   7.527  10.160  1.1257  0.5007 -1.8941
37590SOL    HW217709   1.549   7.376  10.158  1.4079  0.4758 -1.4777
37591SOL     OW17710  10.030   2.648   6.582  0.4836  0.6241 -0.4042
37591SOL    HW117711  10.120   2.648   6.613  0.1269  0.5765  0.6805
37591SOL    HW217712   9.979   2.681   6.656 -0.5879 -1.0753 -0.3126
37592SOL     OW17713   2.645   5.665  10.292 -0.1390  0.0626 -0.0268
37592SOL    HW117714   2.615   5.579  10.261  0.0010  0.2506 -0.6944
37592SOL    HW217715   2.662   5.652  10.386  0.0254 -0.6788 -0.1509
37593SOL     OW17716   8.945   2.743   5.353 -0.2604  0.4625 -0.3423
37593SOL    HW117717   9.031   2.710   5.376 -0.4036  1.2015  1.3697
37593SOL    HW217718   8.887   2.667   5.357 -0.1647  0.4528  1.2150
37594SOL     OW17719   6.918   7.510   2.938  0.1661 -0.1357  0.1666
37594SOL    HW117720   6.945   7.421   2.961  0.7557 -0.2853 -1.0240
37594SOL    HW217721   7.000   7.558   2.927 -0.1282  1.1428  2.7799
37595SOL     OW17722   9.611   2.912   9.390  0.0964  1.0161 -0.0169
37595SOL    HW117723   9.664   2.970   9.445  2.2097  0.1072 -0.9648
37595SOL    HW217724   9.662   2.903   9.309 -0.9987 -0.7928 -0.5658
37596SOL     OW17725   0.487  11.600   9.443 -0.3418 -0.7458  0.3055
37596SOL    HW117726   0.529  11.666   9.388  0.7657 -0.8154  1.0249
37596SOL    HW217727   0.479  11.523   9.387  0.7096 -0.7968  0.2013
37597SOL     OW17728   5.788   1.550   4.601  0.4916 -0.5687 -0.2494
37597SOL    HW117729   5.859   1.607   4.630  0.5776 -0.0713 -1.3693
37597SOL    HW217730   5.739   1.530   4.680  0.0436  1.6672  0.0939
37598SOL     OW17731   6.068  10.841   5.490  0.0719 -0.5683  0.0754
37598SOL    HW117732   6.023  10.770   5.535 -0.8996 -0.4992 -0.7371
37598SOL    HW217733   6.027  10.921   5.523  0.4582 -0.4401  0.2436
37599SOL     OW17734   7.865   1.805   0.012 -0.2724  0.0795  0.3330
37599SOL    HW117735   7.828   1.774   0.094  0.3790  1.3133  1.1335
37599SOL    HW217736   7.903   1.891   0.033  3.9302 -1.4237 -0.1144
37600SOL     OW17737   9.981   7.892   1.245  0.0320  0.1956  0.2428
37600SOL    HW117738  10.005   7.816   1.191 -0.5235 -0.2905  0.6593
37600SOL    HW217739  10.015   7.871   1.332  1.7244  1.3848 -0.0902
37601SOL     OW17740   6.236  11.677  10.109  0.0936  0.3361 -0.2084
37601SOL    HW117741   6.312  11.734  10.105  1.1108 -0.9927 -0.3696
37601SOL    HW217742   6.173  11.718  10.050  0.8403  1.2149 -0.4213
37602SOL     OW17743   1.642   5.511   8.625 -0.7541 -0.5530  0.1932
37602SOL    HW117744   1.601   5.582   8.574 -1.1145  0.1690  1.4472
37602SOL    HW217745   1.579   5.439   8.619 -0.6439 -0.5904 -0.6409
37603SOL     OW17746   3.961   7.816   5.450 -0.0419  0.1857 -0.4243
37603SOL    HW117747   3.998   7.889   5.400 -0.1484 -0.9669 -2.2786
37603SOL    HW217748   3.933   7.753   5.383  0.2530 -1.6554  1.1105
37604SOL     OW17749   0.468   0.599   9.468 -0.1280  0.2323  0.2311
37604SOL    HW117750   0.481   0.584   9.374 -1.3212 -0.0838  0.0904
37604SOL    HW217751   0.550   0.637   9.499  1.9002 -3.3860 -0.1283
37605SOL     OW17752   4.945   7.796   2.212  0.1535 -0.1182  0.2310
37605SOL    HW117753   4.862   7.827   2.249  0.1035 -1.0400  0.9223
37605SOL    HW217754   5.011   7.821   2.277  0.3955  0.3726 -0.1922
37606SOL     OW17755   8.684   9.641   0.848 -0.1293 -0.0055 -0.2584
37606SOL    HW117756   8.701   9.588   0.926 -1.3416  0.5160  0.3753
37606SOL    HW217757   8.693   9.579   0.775  0.5892 -0.5911  0.3175
37607SOL     OW17758   4.904   5.277   4.018  0.0343 -0.2077 -0.1167
37607SOL    HW117759   4.913   5.334   3.942  0.5028 -0.5696 -0.3412
37607SOL    HW217760   4.855   5.328   4.081  0.5119  0.4739 -0.2837
37608SOL     OW17761   5.078  11.482  10.377  0.8719  0.7174  0.1462
37608SOL    HW117762   5.101  11.574  10.390  0.1140  0.9423 -0.0549
37608SOL    HW217763   5.024  11.459  10.453  1.6301  0.2339  0.5479
37609SOL     OW17764   6.258   9.368   1.828 -0.3619  0.0477  0.3037
37609SOL    HW117765   6.253   9.316   1.748 -3.4418  0.2521  0.2267
37609SOL    HW217766   6.245   9.458   1.799  2.4627  0.6715  0.7013
37610SOL     OW17767   7.492   0.416   3.689  0.1962  0.2749 -0.3266
37610SOL    HW117768   7.484   0.378   3.777  0.8631  1.7721  0.4126
37610SOL    HW217769   7.578   0.388   3.659 -0.5941 -1.4235 -1.1276
37611SOL     OW17770   0.485   6.950   3.418 -0.2056  0.1862 -0.3339
37611SOL    HW117771   0.570   6.954   3.374 -0.3184  0.1092 -0.5623
37611SOL    HW217772   0.442   7.033   3.396 -0.8911 -0.4961 -1.6747
37612SOL     OW17773   3.218   2.644   4.535  0.3410 -0.0075  0.2269
37612SOL    HW117774   3.147   2.695   4.495 -0.5572 -1.3471  0.0151
37612SOL    HW217775   3.173   2.576   4.585  1.4858  0.0258  1.3488
37613SOL     OW17776   9.430   2.440   1.894  0.3778 -0.1584 -0.1678
37613SOL    HW117777   9.396   2.528   1.912 -1.5127 -0.2863 -2.4508
37613SOL    HW217778   9.514   2.455   1.851  0.0748  0.5630 -0.5355
37614SOL     OW17779  11.571   5.608   4.564 -0.2486  0.8435 -0.5008
37614SOL    HW117780  11.660   5.573   4.566 -0.9758 -1.1533  1.3914
37614SOL    HW217781  11.569   5.674   4.633 -0.5396 -0.0560  0.3744
37615SOL     OW17782   2.331   3.735   6.758 -0.7481 -0.2069 -0.0264
37615SOL    HW117783   2.344   3.646   6.726  1.5623  0.3506 -0.8631
37615SOL    HW217784   2.418   3.764   6.786 -1.7949  1.1059  2.1528
37616SOL     OW17785   5.658   6.326   5.128  0.0350  0.2337  0.4862
37616SOL    HW117786   5.609   6.399   5.166 -0.0969  0.7567 -0.6447
37616SOL    HW217787   5.603   6.249   5.145  0.9035  0.1024  3.0536
37617SOL     OW17788   2.002   0.205   0.530  0.2264 -0.4204 -0.1262
37617SOL    HW117789   2.075   0.186   0.471 -1.3660 -0.8201 -2.0962
37617SOL    HW217790   1.944   0.262   0.478 -1.2014 -0.7064  1.0812
37618SOL     OW17791   8.103   7.647   5.610  0.0665  0.4130 -0.2554
37618SOL    HW117792   8.132   7.714   5.547  1.3062  0.3655  0.2348
37618SOL    HW217793   8.011   7.633   5.589  0.3841  0.5616 -1.9210
37619SOL     OW17794   0.742   6.074  10.258  0.2543 -0.0823 -0.4379
37619SOL    HW117795   0.678   6.035  10.318 -1.0866 -0.6970 -2.1858
37619SOL    HW217796   0.826   6.063  10.303 -0.5036 -1.8578  0.6823
37620SOL     OW17797   0.791   2.920   3.307 -0.5402 -0.0579  0.4723
37620SOL    HW117798   0.795   2.829   3.336 -1.3686 -0.4649 -0.6382
37620SOL    HW217799   0.864   2.962   3.352  0.8363 -1.6239 -0.2099
37621SOL     OW17800   5.137   3.881  11.551 -0.4764  0.3331 -0.8011
37621SOL    HW117801   5.219   3.855  11.593 -1.6930 -0.8339  0.9729
37621SOL    HW217802   5.124   3.972  11.576 -0.9450 -0.2067  1.0806
37622SOL     OW17803   8.942   2.425   6.950 -0.3897  0.2196 -0.1005
37622SOL    HW117804   9.011   2.376   6.995 -0.6351 -1.0242 -1.0427
37622SOL    HW217805   8.937   2.386   6.863 -2.9102 -0.3379  0.2185
37623SOL     OW17806  11.470   8.234   8.102  0.0135 -0.5439 -0.1192
37623SOL    HW117807  11.434   8.314   8.064 -1.4859 -1.4801 -0.7652
37623SOL    HW217808  11.527   8.265   8.173 -0.4810  1.0919 -0.3885
37624SOL     OW17809   5.989   8.088   2.400 -0.3289 -0.0451  0.9064
37624SOL    HW117810   5.916   8.030   2.421  1.1189 -1.7913  1.3568
37624SOL    HW217811   5.996   8.083   2.305 -1.6562  1.2698  0.7095
37625SOL     OW17812   2.476   7.339   8.727 -0.4193  0.1027  0.5016
37625SOL    HW117813   2.445   7.381   8.807  0.4897 -0.1262  1.0009
37625SOL    HW217814   2.427   7.257   8.722 -0.5796  0.1824  0.7532
37626SOL     OW17815   5.351   3.920   9.561 -0.0701 -0.1277  0.1670
37626SOL    HW117816   5.384   3.904   9.473  2.7571 -0.1151  1.1270
37626SOL    HW217817   5.317   3.836   9.590  0.8466 -0.6409 -0.2187
37627SOL     OW17818   8.375   6.489   7.586  0.1330 -0.1442  0.3883
37627SOL    HW117819   8.423   6.530   7.515 -1.7715 -0.9798 -1.4696
37627SOL    HW217820   8.441   6.476   7.655  1.8451  1.4415 -0.8559
37628SOL     OW17821   4.028   8.426  11.169  0.0032  0.0184  0.0679
37628SOL    HW117822   4.099   8.367  11.145  2.4597  1.8542  2.1137
37628SOL    HW217823   4.029   8.494  11.101 -0.1438 -0.2341 -0.1860
37629SOL     OW17824   1.818   9.791   7.065  0.1233 -0.2181 -0.8680
37629SOL    HW117825   1.871   9.713   7.085  0.5960  0.2310 -0.3245
37629SOL    HW217826   1.773   9.769   6.983  0.1753 -1.0994 -0.6772
37630SOL     OW17827   6.841   8.715   1.376 -0.4087 -0.2604  0.1688
37630SOL    HW117828   6.812   8.800   1.342  2.0694  0.2651 -0.8060
37630SOL    HW217829   6.816   8.717   1.468 -2.3545  0.5732 -0.3107
37631SOL     OW17830   2.338   4.149   1.495  0.2977  0.1024 -0.0744
37631SOL    HW117831   2.369   4.129   1.583 -0.3870  3.5461  1.1016
37631SOL    HW217832   2.246   4.122   1.496 -0.1143  1.4457  0.8312
37632SOL     OW17833   9.195   6.946   3.305 -0.0037 -0.0892  0.2394
37632SOL    HW117834   9.121   6.940   3.245  0.7030 -0.8952 -0.5762
37632SOL    HW217835   9.174   6.886   3.376 -0.3700  0.0910  0.2850
37633SOL     OW17836   5.808   8.348   2.433  0.2364  0.2890 -0.4320
37633SOL    HW117837   5.764   8.340   2.517  0.1806  1.1284 -0.3702
37633SOL    HW217838   5.862   8.269   2.426 -0.5184 -0.2678 -0.0694
37634SOL     OW17839   0.207   0.381   2.847 -0.3983  0.1104 -0.0621
37634SOL    HW117840   0.234   0.472   2.834 -0.1110 -0.1801 -1.7108
37634SOL    HW217841   0.240   0.335   2.770  0.4043 -1.6206  1.2484
37635SOL     OW17842   6.106   2.396   2.696  0.3409  0.1832 -0.0725
37635SOL    HW117843   6.181   2.438   2.655  0.7197 -0.6124 -0.2124
37635SOL    HW217844   6.037   2.400   2.629  0.9058 -0.9677 -0.7466
37636SOL     OW17845   9.359  11.418   4.339 -0.3531 -0.3369 -0.3047
37636SOL    HW117846   9.442  11.456   4.309  0.1261 -1.1844 -0.1049
37636SOL    HW217847   9.365  11.424   4.435 -0.4934 -0.4524 -0.2893
37637SOL     OW17848   5.298   8.965   2.756 -0.0485 -0.6758  0.0620
37637SOL    HW117849   5.262   8.878   2.738  0.0842 -0.6180 -0.5075
37637SOL    HW217850   5.228   9.010   2.803  0.3838 -1.5392  1.6053
37638SOL     OW17851   0.977   5.197   5.095 -0.3890 -0.1557 -0.3575
37638SOL    HW117852   0.997   5.288   5.113  0.1760 -0.7076  2.1162
37638SOL    HW217853   0.887   5.185   5.123 -0.2498 -0.5089 -0.0506
37639SOL     OW17854   4.260   9.117   0.900 -0.1706  0.4046 -0.0538
37639SOL    HW117855   4.325   9.172   0.945  0.2506 -1.4004  1.6618
37639SOL    HW217856   4.203   9.085   0.969  0.0697 -1.9286 -0.8362
37640SOL     OW17857   8.491   7.148  10.121 -0.1310 -0.5348  0.0317
37640SOL    HW117858   8.580   7.128  10.091 -0.3502 -0.4705 -0.6808
37640SOL    HW217859   8.472   7.081  10.187  0.0855 -1.1469 -0.5135
37641SOL     OW17860   1.909   7.376   3.827  0.4155 -0.3385 -0.7463
37641SOL    HW117861   1.941   7.368   3.737 -0.5949  0.6256 -1.2082
37641SOL    HW217862   1.815   7.392   3.818  0.3793  0.2367  0.4694
37642SOL     OW17863   1.674   6.353   5.415  0.0582 -0.2071  0.8661
37642SOL    HW117864   1.688   6.358   5.320  0.3788 -0.1692  0.9135
37642SOL    HW217865   1.714   6.433   5.449 -0.6833  0.1332  0.9650
37643SOL     OW17866   2.107   5.380  11.177  0.6699 -0.0404  0.0972
37643SOL    HW117867   2.117   5.286  11.190 -1.0656 -0.2683 -0.0325
37643SOL    HW217868   2.122   5.418  11.263  2.6054 -0.2850 -0.0874
37644SOL     OW17869  11.334  10.987  11.621  0.1951  0.1965 -0.4036
37644SOL    HW117870  11.401  10.950  11.562 -0.9823 -3.5393  0.3055
37644SOL    HW217871  11.252  10.972  11.575 -0.6092 -1.3591  1.4084
37645SOL     OW17872  10.350   9.503   2.261 -0.1590  0.0104  0.4987
37645SOL    HW117873  10.439   9.531   2.284 -0.3616 -0.7663  2.4072
37645SOL    HW217874  10.296   9.581   2.275  0.1930  0.4505 -0.5490
37646SOL     OW17875   4.743   2.248  10.594 -0.8544  0.8759  0.1219
37646SOL    HW117876   4.833   2.241  10.560 -0.6998  1.0198  0.4942
37646SOL    HW217877   4.742   2.332  10.641 -0.5909 -0.0146  1.8185
37647SOL     OW17878   4.215   5.539   8.971  0.0959 -0.2671 -0.2443
37647SOL    HW117879   4.126   5.558   8.941 -0.1630 -1.4873 -0.3023
37647SOL    HW217880   4.204   5.507   9.061  0.6777  1.4152  0.4723
37648SOL     OW17881   5.142   5.872   8.643  0.1197  0.6127  0.5388
37648SOL    HW117882   5.115   5.845   8.731  0.3868  0.5119  0.5922
37648SOL    HW217883   5.140   5.792   8.592 -3.1802  1.1523 -0.4072
37649SOL     OW17884   6.758   8.785   6.635  0.2601 -0.5713 -0.4136
37649SOL    HW117885   6.772   8.694   6.611  0.3195 -0.2547 -1.6904
37649SOL    HW217886   6.672   8.786   6.678 -0.5914 -0.9961 -2.0111
37650SOL     OW17887   8.932  11.247  11.414 -0.0276  0.1043 -0.6634
37650SOL    HW117888   8.851  11.285  11.381  1.1562  0.4967 -3.4767
37650SOL    HW217889   8.951  11.175  11.354  0.5330 -1.5295  1.3666
37651SOL     OW17890   9.113  11.372   0.723  0.0349 -0.0828  0.5337
37651SOL    HW117891   9.127  11.381   0.818  3.4601  1.7059  0.0379
37651SOL    HW217892   9.149  11.453   0.686 -0.1219 -1.2238 -2.3844
37652SOL     OW17893  10.182   2.655   3.501  0.3992  0.1611 -0.3344
37652SOL    HW117894  10.198   2.564   3.474  0.2289  0.1303 -0.3343
37652SOL    HW217895  10.147   2.697   3.422  0.1913  0.1488 -0.2494
37653SOL     OW17896   0.325   0.505   4.247 -0.4832 -0.6002 -0.8509
37653SOL    HW117897   0.282   0.478   4.166 -2.0985  0.4915 -0.4183
37653SOL    HW217898   0.253   0.529   4.305  0.6477 -1.2348  0.8773
37654SOL     OW17899  11.558   2.898   4.896 -0.6065  0.2288  0.6218
37654SOL    HW117900  11.647   2.925   4.874 -0.4433 -0.2395  0.6914
37654SOL    HW217901  11.568   2.810   4.933 -1.4306 -1.2567 -2.3951
37655SOL     OW17902   6.502   1.397   9.347  0.1372  0.2879 -0.4859
37655SOL    HW117903   6.554   1.349   9.283  2.4494  1.3083  0.5144
37655SOL    HW217904   6.421   1.347   9.355  0.4307 -0.7196 -2.9980
37656SOL     OW17905   9.069   6.230   6.739 -0.0287 -0.2067 -0.1588
37656SOL    HW117906   9.066   6.312   6.789  0.4315 -1.2985  1.7464
37656SOL    HW217907   8.981   6.195   6.744 -0.3475  0.3466 -1.3725
37657SOL     OW17908   0.497   6.619   3.597 -0.0294 -0.3700  0.1336
37657SOL    HW117909   0.419   6.566   3.579  0.6171 -1.2728 -0.0858
37657SOL    HW217910   0.550   6.611   3.518  0.8054 -0.7076  0.7175
37658SOL     OW17911   3.145   0.980   9.023 -0.0186 -0.4688  0.5772
37658SOL    HW117912   3.089   0.976   8.945  1.6503  1.6402 -0.8624
37658SOL    HW217913   3.201   0.903   9.016 -0.7015 -0.9619  0.3895
37659SOL     OW17914   9.252   9.817   5.107 -0.2923  0.4135  0.4262
37659SOL    HW117915   9.249   9.806   5.012 -1.5573 -1.6126  0.6420
37659SOL    HW217916   9.228   9.908   5.121 -1.2457  0.4506 -1.1579
37660SOL     OW17917   3.434   7.666   1.153  0.4454 -0.1010  0.2143
37660SOL    HW117918   3.431   7.687   1.247 -0.4577  0.0718  0.1536
37660SOL    HW217919   3.399   7.577   1.148 -1.4135  0.6084 -0.1496
37661SOL     OW17920   0.956   3.072   7.635 -0.0983  0.1454 -0.2142
37661SOL    HW117921   1.003   2.989   7.635  1.2375  0.8425  0.6653
37661SOL    HW217922   1.021   3.135   7.603 -1.2329  0.7917 -1.3238
37662SOL     OW17923   5.387   4.906   3.211  0.4421  0.6299  0.1872
37662SOL    HW117924   5.327   4.836   3.185 -0.2512  1.1428  0.4101
37662SOL    HW217925   5.462   4.859   3.249 -0.1006  0.0136  0.5163
37663SOL     OW17926   8.690   8.132   4.842 -0.5232 -0.2948  0.0264
37663SOL    HW117927   8.770   8.174   4.811  0.1683 -0.4447  1.5217
37663SOL    HW217928   8.680   8.054   4.786  0.7746 -0.6546  0.2711
37664SOL     OW17929   7.894   4.369   3.784  0.1956 -0.5308 -0.0189
37664SOL    HW117930   7.896   4.284   3.740 -1.5343 -0.1754 -0.8688
37664SOL    HW217931   7.894   4.347   3.877 -0.3263 -1.4795 -0.2259
37665SOL     OW17932   4.294   1.946  11.395 -0.0445 -0.0290  0.1419
37665SOL    HW117933   4.252   1.882  11.337 -1.2274 -0.5470  1.5202
37665SOL    HW217934   4.261   2.030  11.366 -0.7001 -0.2917  0.1194
37666SOL     OW17935   2.234   2.656   7.310  0.4083  0.1298 -0.4027
37666SOL    HW117936   2.158   2.601   7.292 -0.1970  0.5270  0.8259
37666SOL    HW217937   2.217   2.693   7.396  2.4018 -0.4499  0.2981
37667SOL     OW17938   3.898   0.807   4.760  0.2747 -0.0337 -0.3359
37667SOL    HW117939   3.842   0.862   4.706 -0.2573  0.6671  0.9130
37667SOL    HW217940   3.987   0.836   4.739  0.0890  0.1430 -0.9129
37668SOL     OW17941   3.031   9.027   2.890  0.4591 -0.4250 -0.1853
37668SOL    HW117942   3.119   8.995   2.911  0.8647  0.4485 -0.4684
37668SOL    HW217943   3.026   9.022   2.794 -0.1351 -1.2820 -0.1210
37669SOL     OW17944   8.303   3.684  10.679 -0.4184 -0.4205  0.6503
37669SOL    HW117945   8.279   3.770  10.713  1.8736  0.5714 -0.0197
37669SOL    HW217946   8.242   3.669  10.607 -1.1516  0.4054  1.0767
37670SOL     OW17947  10.049   3.625   2.002  0.4493  0.2773 -0.2526
37670SOL    HW117948  10.085   3.546   1.962 -2.0244 -0.5091 -1.0755
37670SOL    HW217949   9.960   3.602   2.025  1.1561  1.2209  4.3272
37671SOL     OW17950   1.734   2.058   7.793  0.7220  0.5198 -0.3861
37671SOL    HW117951   1.793   2.051   7.868 -1.6101 -0.8473  1.4596
37671SOL    HW217952   1.703   1.969   7.778 -1.5687  1.2672 -0.6049
37672SOL     OW17953  10.609   8.121   3.143  0.4565  0.0990 -0.1540
37672SOL    HW117954  10.704   8.110   3.153  0.5511 -0.6567 -1.5391
37672SOL    HW217955  10.590   8.082   3.057 -1.0270  0.7559 -0.1469
37673SOL     OW17956   7.199   7.270   8.385 -0.6513 -0.1476  0.3338
37673SOL    HW117957   7.182   7.345   8.442 -0.8831 -0.4261  0.6343
37673SOL    HW217958   7.280   7.231   8.419 -1.1812 -0.7431  0.9309
37674SOL     OW17959   9.894  11.057   8.290 -0.3503  0.1327 -0.5692
37674SOL    HW117960   9.852  10.982   8.248 -0.7302 -0.7510  1.2885
37674SOL    HW217961   9.857  11.059   8.378  0.4257  1.8905 -0.2483
37675SOL     OW17962   0.375   9.858   1.933 -0.2081 -0.1665 -0.3740
37675SOL    HW117963   0.434   9.784   1.918  0.5859  0.1645  0.9434
37675SOL    HW217964   0.407   9.926   1.875  0.0706 -0.3232 -0.4068
37676SOL     OW17965   2.617   7.317   9.456  0.1288 -0.1105  0.3606
37676SOL    HW117966   2.623   7.384   9.388 -2.4955 -0.2427 -0.0862
37676SOL    HW217967   2.544   7.261   9.430  1.3214 -2.3360  1.4736
37677SOL     OW17968   7.749   4.739   4.365 -0.0639  0.2220 -0.2157
37677SOL    HW117969   7.747   4.802   4.437 -1.6967 -0.8051  0.7185
37677SOL    HW217970   7.816   4.675   4.391 -0.0290  0.3324 -0.0299
37678SOL     OW17971   6.269   8.938   1.768 -0.3777 -0.3066  0.6104
37678SOL    HW117972   6.304   8.862   1.720 -0.1915  0.2889 -0.2236
37678SOL    HW217973   6.268   8.910   1.860  1.2999 -0.7423  0.5415
37679SOL     OW17974   5.031   6.111   4.205 -0.5861  0.5891  0.1935
37679SOL    HW117975   5.084   6.031   4.204  2.2694  2.3338 -0.4829
37679SOL    HW217976   5.094   6.181   4.222 -2.9365  2.7646  0.5764
37680SOL     OW17977   5.274   2.164   9.575 -0.1707 -0.3372 -0.4306
37680SOL    HW117978   5.274   2.243   9.520 -1.3460 -0.3339 -0.4616
37680SOL    HW217979   5.189   2.124   9.558  0.9393 -2.4142 -1.5190
37681SOL     OW17980   6.435   0.821  10.866 -0.1077 -0.2010  0.1472
37681SOL    HW117981   6.501   0.782  10.922 -0.8724  1.6079  2.4921
37681SOL    HW217982   6.356   0.825  10.920 -0.9898  1.3701 -1.1282
37682SOL     OW17983   0.288   5.283  10.492 -0.2896 -0.4996 -0.3760
37682SOL    HW117984   0.280   5.194  10.526 -1.6098 -0.3564 -0.2448
37682SOL    HW217985   0.286   5.272  10.396  2.7665 -0.8437 -0.4994
37683SOL     OW17986   2.879  11.499   9.773 -0.5119  0.2484  0.2716
37683SOL    HW117987   2.923  11.501   9.858 -0.2525 -0.7434  0.1609
37683SOL    HW217988   2.803  11.442   9.787 -1.2481  1.1830  0.2044
37684SOL     OW17989   4.112   8.238   1.388 -0.5937 -0.0740  0.0500
37684SOL    HW117990   4.126   8.283   1.305  0.7645  0.9237  0.7717
37684SOL    HW217991   4.022   8.205   1.383 -0.9390  0.9805 -1.3346
37685SOL     OW17992   2.040   0.466   4.547 -0.8892 -0.6003 -0.1959
37685SOL    HW117993   2.116   0.523   4.550  0.1716 -1.9788  2.0414
37685SOL    HW217994   1.978   0.511   4.490  1.5531  0.5940 -2.0768
37686SOL     OW17995   4.661   9.413   3.926 -0.1939 -0.0203  0.7524
37686SOL    HW117996   4.621   9.440   4.008  0.1609  0.0234  0.9143
37686SOL    HW217997   4.724   9.346   3.952  2.3895  2.3260  0.9786
37687SOL     OW17998   1.457  11.558   9.200  0.2484 -0.4631 -0.2199
37687SOL    HW117999   1.545  11.521   9.188  1.1702  1.4601  0.3189
37687SOL    HW218000   1.402  11.482   9.219  2.0562 -1.5732  0.8764
37688SOL     OW18001   6.051   8.692  10.117  0.3613 -0.7588 -0.1695
37688SOL    HW118002   6.005   8.729  10.042  1.7643  1.6949  0.0908
37688SOL    HW218003   6.036   8.755  10.187  1.1837 -1.7249  0.9011
37689SOL     OW18004   0.595   4.771   0.649  0.8276  0.2667  0.3527
37689SOL    HW118005   0.648   4.796   0.724  1.1867  0.1514  0.1404
37689SOL    HW218006   0.657   4.736   0.585  0.5743  0.6940 -0.1433
37690SOL     OW18007   0.614   4.321   4.520 -0.0246 -0.0714  0.2420
37690SOL    HW118008   0.590   4.253   4.582 -0.9027  0.4145  0.4522
37690SOL    HW218009   0.705   4.303   4.497 -0.7924 -2.5343 -1.2518
37691SOL     OW18010  10.651  10.364  10.495  0.0016  0.0760  0.1253
37691SOL    HW118011  10.691  10.359  10.582  0.7326  0.4333 -0.1858
37691SOL    HW218012  10.564  10.327  10.507 -0.8213  2.2669  1.5670
37692SOL     OW18013   3.646   1.089   1.163  0.0534 -0.0303 -0.2390
37692SOL    HW118014   3.616   1.176   1.139 -0.0867  0.0361  0.1705
37692SOL    HW218015   3.569   1.033   1.153  0.1069 -0.0842 -0.3623
37693SOL     OW18016   0.185   7.266   0.348 -0.2111 -0.3444 -0.1222
37693SOL    HW118017   0.144   7.221   0.274  1.1493 -0.5264 -0.7989
37693SOL    HW218018   0.170   7.208   0.423 -2.0152  0.0659 -0.1170
37694SOL     OW18019   7.074   3.644   3.204  0.0936  0.1683 -0.1137
37694SOL    HW118020   6.981   3.669   3.204  0.1978  0.5676 -0.5729
37694SOL    HW218021   7.074   3.554   3.173 -0.0695  0.4956 -1.1354
37695SOL     OW18022   3.427   2.079   9.318  0.3057 -0.4353 -0.5877
37695SOL    HW118023   3.496   2.016   9.342  0.7908  0.5492  0.7052
37695SOL    HW218024   3.452   2.160   9.363 -0.8687  0.3923 -1.3758
37696SOL     OW18025  11.050   3.969   7.407  0.2160 -0.1879 -0.1380
37696SOL    HW118026  11.031   3.876   7.406 -1.3570  0.1132 -0.8062
37696SOL    HW218027  10.999   4.004   7.480  1.1953  0.0870  0.4321
37697SOL     OW18028   0.876   8.870   0.914  0.7046 -0.2337  0.5117
37697SOL    HW118029   0.888   8.795   0.856 -0.7665 -0.6192  0.6549
37697SOL    HW218030   0.918   8.845   0.996  2.1297  0.0080 -0.1138
37698SOL     OW18031   2.888   7.127   7.753 -0.5517  0.1345  0.7897
37698SOL    HW118032   2.956   7.063   7.732  1.2643  1.9944  0.6512
37698SOL    HW218033   2.837   7.135   7.672  0.5453  0.4073  0.1010
37699SOL     OW18034   0.419   7.245  10.205 -0.3939  0.0954  0.1032
37699SOL    HW118035   0.440   7.301  10.131 -0.6007 -0.6032 -0.4914
37699SOL    HW218036   0.381   7.167  10.166 -0.2144 -0.4136  0.9281
37700SOL     OW18037   4.900   7.556   8.656 -0.3807 -0.0435  0.4751
37700SOL    HW118038   4.907   7.548   8.752  0.4244  0.6967  0.4934
37700SOL    HW218039   4.958   7.488   8.622  1.9591  1.7903  0.5730
37701SOL     OW18040   7.844   4.422  10.678 -0.4962 -0.7832 -0.1872
37701SOL    HW118041   7.763   4.370  10.679 -0.4570 -0.8432 -0.0324
37701SOL    HW218042   7.850   4.458  10.767 -0.3055 -0.8542 -0.1703
37702SOL     OW18043   5.691   1.569   7.584  0.0526 -0.3860  0.3015
37702SOL    HW118044   5.700   1.665   7.587  2.1701 -0.5081 -0.6066
37702SOL    HW218045   5.675   1.550   7.492  0.9090 -0.9997  0.2811
37703SOL     OW18046   5.834   8.718   2.164 -0.8852  0.0397  0.2539
37703SOL    HW118047   5.856   8.664   2.087 -1.2297  0.3633 -0.0761
37703SOL    HW218048   5.909   8.775   2.176 -1.2926  0.7547 -0.5249
37704SOL     OW18049   3.127   5.842   7.575  0.0405  0.0198  0.6186
37704SOL    HW118050   3.124   5.802   7.661 -0.2356  0.7681  0.9658
37704SOL    HW218051   3.192   5.912   7.582  0.5218 -0.3596  0.0218
37705SOL     OW18052   9.313  10.772   7.738  0.4914 -0.2629  0.1042
37705SOL    HW118053   9.395  10.775   7.689  0.2134 -2.0971 -0.5672
37705SOL    HW218054   9.273  10.857   7.723  1.8368  0.3142 -0.3327
37706SOL     OW18055   0.261   8.484  11.357 -0.3122  0.0664  0.5273
37706SOL    HW118056   0.266   8.443  11.444  0.4012 -1.8261 -0.3609
37706SOL    HW218057   0.353   8.495  11.331 -0.4682 -2.0122 -1.1290
37707SOL     OW18058   5.291   5.730   2.901 -0.0268  0.2545  0.4435
37707SOL    HW118059   5.303   5.822   2.925  1.4729  0.1792  0.1190
37707SOL    HW218060   5.378   5.691   2.914 -1.0709 -1.5882  2.5150
37708SOL     OW18061   9.792  10.049   2.489 -0.0994  0.1822  0.4497
37708SOL    HW118062   9.839  10.130   2.510  2.1495 -0.9413  0.1352
37708SOL    HW218063   9.809   9.991   2.563 -1.5944 -0.0780  0.6228
37709SOL     OW18064   0.135   8.533   7.038 -0.5269 -0.3114 -0.5415
37709SOL    HW118065   0.201   8.536   7.108 -1.5677 -1.5448  0.5542
37709SOL    HW218066   0.180   8.568   6.961  0.7741  0.7574  0.6468
37710SOL     OW18067   7.965   3.386   8.614 -0.1813 -0.5213  0.2620
37710SOL    HW118068   7.972   3.430   8.698 -0.9996 -0.8299  0.5021
37710SOL    HW218069   8.042   3.331   8.609 -0.7567 -1.4692  1.3918
37711SOL     OW18070  10.166   6.140   0.456  0.1611  0.0990 -0.5349
37711SOL    HW118071  10.228   6.120   0.386  2.4866 -0.4380  1.5220
37711SOL    HW218072  10.199   6.222   0.495  0.1701 -0.6445  1.1393
37712SOL     OW18073   1.153   4.677   8.453  0.7798 -0.6814 -0.4900
37712SOL    HW118074   1.231   4.631   8.483  1.1597 -1.3250 -2.3381
37712SOL    HW218075   1.168   4.692   8.360  0.4815  2.8701 -0.0923
37713SOL     OW18076   3.382   6.548   1.448 -0.2757  0.7464  0.4852
37713SOL    HW118077   3.463   6.513   1.484 -0.1721  1.4086  0.9084
37713SOL    HW218078   3.410   6.619   1.390 -0.4680  0.0055 -0.5495
37714SOL     OW18079   6.456   3.940  10.249 -0.1984  0.2136  0.6601
37714SOL    HW118080   6.484   3.866  10.196 -0.5103 -0.3092  1.2022
37714SOL    HW218081   6.528   4.003  10.244  0.3136 -0.3661  0.6443
37715SOL     OW18082   7.524  10.560   0.111  0.2660  0.0554 -0.3388
37715SOL    HW118083   7.515  10.471   0.144  1.7842  0.2501  0.6829
37715SOL    HW218084   7.592  10.554   0.044 -2.4238 -0.2414 -3.2878
37716SOL     OW18085  10.587   9.101   8.131 -0.2444 -0.0242  0.2642
37716SOL    HW118086  10.598   9.175   8.191  0.5816 -0.2282  0.3789
37716SOL    HW218087  10.665   9.102   8.077 -0.8295 -0.0505 -0.5941
37717SOL     OW18088   1.265   3.218   7.060  0.1471  0.0766 -0.2118
37717SOL    HW118089   1.330   3.285   7.039 -0.6642  0.7896 -0.5064
37717SOL    HW218090   1.183   3.251   7.023 -0.8807  0.2737  2.0431
37718SOL     OW18091   7.034   8.351   8.037 -0.4025 -0.5579 -0.4546
37718SOL    HW118092   7.053   8.287   8.106 -0.2657 -1.0171 -0.9207
37718SOL    HW218093   7.109   8.345   7.977 -0.6270 -0.3131 -0.7618
37719SOL     OW18094  10.577   4.680  11.484  0.1352  0.1760  0.2128
37719SOL    HW118095  10.673   4.680  11.492  0.1053  0.3871  0.6159
37719SOL    HW218096  10.560   4.641  11.398  0.6291  1.1607 -0.3497
37720SOL     OW18097   6.747   1.524   5.785 -0.0382  0.1063  0.1440
37720SOL    HW118098   6.686   1.505   5.713 -1.9875 -2.2187  2.2385
37720SOL    HW218099   6.826   1.475   5.763  0.4443  1.5801 -1.6532
37721SOL     OW18100   1.562   2.831   3.223  0.0824 -0.1228  0.1671
37721SOL    HW118101   1.624   2.887   3.177  1.2131  0.4688  2.2751
37721SOL    HW218102   1.480   2.879   3.222  1.0935  1.8359  2.1787
37722SOL     OW18103  11.624   2.247   3.879 -0.2412 -0.2711 -0.1210
37722SOL    HW118104  11.534   2.260   3.908 -0.4951 -0.6643 -0.7407
37722SOL    HW218105  11.648   2.160   3.911 -0.2368 -0.3575 -0.3574
37723SOL     OW18106   3.165  10.031   2.018  0.1257 -0.0643  0.1557
37723SOL    HW118107   3.241   9.983   1.985 -0.0813 -1.1928  1.2168
37723SOL    HW218108   3.188  10.123   2.010  1.9236 -0.3936  1.1215
37724SOL     OW18109   4.089   6.148  11.669  0.3321 -0.3498  0.9754
37724SOL    HW118110   4.050   6.232  11.693  0.1890 -0.5955  1.6249
37724SOL    HW218111   4.149   6.169  11.597 -2.1686 -0.1995 -1.2219
37725SOL     OW18112   4.931   4.163   1.212 -0.7920 -0.0378  0.1794
37725SOL    HW118113   4.965   4.223   1.278 -1.2681  0.2035  0.2071
37725SOL    HW218114   4.841   4.192   1.196 -1.0493 -0.7684  0.2347
37726SOL     OW18115   8.839   8.686   9.419 -0.2272 -0.1168 -0.4837
37726SOL    HW118116   8.862   8.706   9.329  0.8829  0.7953 -0.0167
37726SOL    HW218117   8.886   8.606   9.440 -1.3142 -0.9255 -1.0173
37727SOL     OW18118   5.781   7.703   5.283 -0.3382  0.0787  0.7440
37727SOL    HW118119   5.849   7.769   5.299  0.0639 -0.1298 -0.1015
37727SOL    HW218120   5.819   7.621   5.314  0.2394 -0.2337 -0.7155
37728SOL     OW18121   2.048   5.101   3.873 -0.3200  0.0258 -0.4783
37728SOL    HW118122   2.083   5.012   3.876 -1.0228 -0.2881 -1.3270
37728SOL    HW218123   1.963   5.094   3.916 -0.1893  0.3909 -0.1499
37729SOL     OW18124   8.232   8.012   4.933 -0.0642 -0.0274  0.3139
37729SOL    HW118125   8.289   8.013   5.010  0.3594  3.0406  0.0699
37729SOL    HW218126   8.179   7.933   4.944  0.5779 -0.1748  3.2880
37730SOL     OW18127   1.446  10.311   0.857  0.5174  0.1545  0.8640
37730SOL    HW118128   1.477  10.397   0.826 -2.1378  0.7498 -0.4079
37730SOL    HW218129   1.494  10.248   0.804 -0.7390  1.0551 -1.5240
37731SOL     OW18130   7.598   4.909   0.586  0.2038  0.3117  0.2314
37731SOL    HW118131   7.638   4.824   0.601 -1.2477 -0.4993 -0.2730
37731SOL    HW218132   7.671   4.967   0.563  1.1932 -0.8175  0.4743
37732SOL     OW18133   2.201   1.858   2.570 -0.2137 -0.4456 -0.4771
37732SOL    HW118134   2.114   1.851   2.532 -0.2451 -1.2531 -0.2620
37732SOL    HW218135   2.248   1.781   2.539  0.5658  0.1926 -0.9332
37733SOL     OW18136   4.119   5.897   6.313 -0.3760 -0.3167  0.0324
37733SOL    HW118137   4.138   5.956   6.386  0.0221  0.7795 -0.9328
37733SOL    HW218138   4.061   5.948   6.255  0.2188 -0.7463 -0.9715
37734SOL     OW18139   9.257   8.047   4.845 -0.5156  0.8355 -0.0987
37734SOL    HW118140   9.288   7.982   4.782 -1.3641 -0.8274  1.1246
37734SOL    HW218141   9.163   8.053   4.828 -0.7797  0.2468  1.0771
37735SOL     OW18142   7.873   1.682  10.986  0.3343 -0.2553  0.1575
37735SOL    HW118143   7.926   1.742  11.038 -0.0372 -1.9888  2.7175
37735SOL    HW218144   7.794   1.668  11.039 -1.5505  0.2764 -2.3616
37736SOL     OW18145  10.897   7.019  11.501  0.3846  0.0476  0.5761
37736SOL    HW118146  10.948   7.075  11.560  0.3818 -1.8873  2.5092
37736SOL    HW218147  10.877   6.941  11.552  0.5960 -1.8789 -2.0690
37737SOL     OW18148   5.622  10.567   0.711  0.1081  0.0532  0.5459
37737SOL    HW118149   5.655  10.634   0.771 -1.3825  1.2004  0.1540
37737SOL    HW218150   5.678  10.574   0.634  1.3468 -0.6922  1.3359
37738SOL     OW18151   0.428   8.804   7.163 -0.1056  0.1388 -0.0955
37738SOL    HW118152   0.484   8.752   7.105 -0.4425 -1.6102  1.0874
37738SOL    HW218153   0.368   8.849   7.103  0.4242 -0.5436 -1.1785
37739SOL     OW18154   5.058   3.588   4.590 -0.1352  0.4554 -0.0242
37739SOL    HW118155   5.000   3.634   4.651 -0.1706  0.7399 -0.2676
37739SOL    HW218156   5.106   3.659   4.546 -0.5583  0.2874 -0.7775
37740SOL     OW18157  11.103   1.829   0.299  0.3413  0.6109  0.2980
37740SOL    HW118158  11.111   1.737   0.275  1.1150  1.2921 -2.4471
37740SOL    HW218159  11.178   1.846   0.356  1.7884  0.1250 -1.3872
37741SOL     OW18160   9.506   9.201   2.686 -0.1186  0.3745 -0.4069
37741SOL    HW118161   9.533   9.270   2.626  0.8052  0.0897 -0.3376
37741SOL    HW218162   9.497   9.244   2.771 -1.0225  0.6956 -0.6580
37742SOL     OW18163   5.824   0.010   9.493 -0.0679 -0.4120 -0.8320
37742SOL    HW118164   5.743  -0.041   9.502 -0.5959  0.6660  0.9948
37742SOL    HW218165   5.886  -0.033   9.553 -0.1727  0.4097 -0.1205
37743SOL     OW18166   4.048   0.469   3.151  0.4024 -0.1835  0.1112
37743SOL    HW118167   4.060   0.533   3.081  0.0612 -0.8363 -0.5497
37743SOL    HW218168   4.119   0.406   3.138  1.1845  0.4358  1.2027
37744SOL     OW18169   0.289   9.016   8.571 -0.2665 -0.3789  0.2551
37744SOL    HW118170   0.210   9.031   8.623  0.2893  1.0080  0.7383
37744SOL    HW218171   0.358   9.001   8.636 -0.0877 -1.4331 -0.1617
37745SOL     OW18172   2.041   6.202   2.766 -0.2459  0.4065  0.0339
37745SOL    HW118173   1.987   6.163   2.834 -2.1820  2.6302 -0.1337
37745SOL    HW218174   2.058   6.291   2.797  1.5329  0.4520 -0.9541
37746SOL     OW18175   9.462   7.282   0.557  0.0285 -0.4434 -0.2719
37746SOL    HW118176   9.484   7.360   0.506  1.9109  0.2988  1.5365
37746SOL    HW218177   9.379   7.304   0.599  0.0775  0.2052 -0.4995
37747SOL     OW18178   5.706   4.313   3.440  0.3530  0.7308  0.1272
37747SOL    HW118179   5.796   4.291   3.464 -0.0730 -2.1692 -0.6135
37747SOL    HW218180   5.652   4.274   3.509 -0.3889  2.1362  0.3753
37748SOL     OW18181   3.646   1.878   2.872  0.2365 -0.3161  0.2576
37748SOL    HW118182   3.613   1.802   2.919  1.5781 -0.1120  1.5827
37748SOL    HW218183   3.604   1.872   2.785  2.0975 -3.8808 -0.5811
37749SOL     OW18184   4.428   8.914   2.144  0.6187  0.3766  0.3721
37749SOL    HW118185   4.336   8.899   2.164  0.6297  0.4201  0.4571
37749SOL    HW218186   4.435   8.904   2.049  0.6452 -0.2489  0.4389
37750SOL     OW18187   1.537  11.264   7.545 -0.5921  0.1375 -0.0805
37750SOL    HW118188   1.448  11.282   7.577 -0.6686 -0.8570  0.3062
37750SOL    HW218189   1.524  11.242   7.452 -0.9077 -1.0136  0.2097
37751SOL     OW18190   2.325   1.363   6.327 -0.1734 -0.0942  0.1957
37751SOL    HW118191   2.388   1.383   6.397 -0.1185 -0.7425  0.3346
37751SOL    HW218192   2.358   1.282   6.288  0.0902  0.5307 -0.9274
37752SOL     OW18193   6.864   1.854   7.132  0.5214  0.3658 -0.6532
37752SOL    HW118194   6.954   1.886   7.137 -0.0024  1.6621  0.9225
37752SOL    HW218195   6.822   1.884   7.212 -1.0423 -1.1539 -0.8337
37753SOL     OW18196   2.838   8.895   1.570  0.7562  0.0646 -0.0927
37753SOL    HW118197   2.846   8.802   1.590 -0.0619 -0.2708 -1.2108
37753SOL    HW218198   2.816   8.898   1.476 -1.9026  1.2289  0.4753
37754SOL     OW18199   4.810   5.840  10.666 -0.5356  0.4899  0.1983
37754SOL    HW118200   4.888   5.894  10.656 -0.5608  0.9539  2.2643
37754SOL    HW218201   4.742   5.887  10.618  0.2074  0.5136 -0.8924
37755SOL     OW18202  10.321   8.590   1.520  0.0006 -0.6339 -0.1118
37755SOL    HW118203  10.238   8.588   1.567 -0.2092 -0.7315 -0.4891
37755SOL    HW218204  10.368   8.512   1.552 -0.2890 -0.9014 -0.3343
37756SOL     OW18205   1.472   4.133   4.973 -0.1579 -0.4219 -0.3824
37756SOL    HW118206   1.498   4.203   4.914  0.0713 -0.0357  0.1655
37756SOL    HW218207   1.524   4.057   4.945  1.7849  0.3864  0.8223
37757SOL     OW18208   7.949   1.463   9.710  0.0441 -0.3575 -0.0605
37757SOL    HW118209   7.971   1.513   9.789 -1.1864 -1.5912  1.1283
37757SOL    HW218210   8.028   1.469   9.656  0.3964  1.7420  0.5824
37758SOL     OW18211   3.995  11.501  10.431 -0.0434 -0.1771 -0.2040
37758SOL    HW118212   4.037  11.469  10.511 -0.2527 -2.0057 -0.7710
37758SOL    HW218213   4.062  11.553  10.387  0.8542 -1.0696  0.0717
37759SOL     OW18214   1.471   2.782   5.559  0.1718 -0.1926 -0.5860
37759SOL    HW118215   1.486   2.864   5.607  0.9234 -0.4162 -0.4226
37759SOL    HW218216   1.469   2.808   5.467 -1.1434  0.2209 -0.4642
37760SOL     OW18217   0.292   9.712  10.565  0.1686  0.1178 -0.1133
37760SOL    HW118218   0.276   9.765  10.643  0.5628 -0.4526  0.3705
37760SOL    HW218219   0.209   9.711  10.519 -0.1072  0.3529  0.3731
37761SOL     OW18220  11.412   7.502   8.456  0.2318 -0.0619 -0.5244
37761SOL    HW118221  11.320   7.482   8.471  0.3179 -0.8360 -0.9980
37761SOL    HW218222  11.435   7.563   8.526 -0.1800 -1.2154  0.6395
37762SOL     OW18223  10.739   8.630   4.926  0.3595  0.0752 -0.2774
37762SOL    HW118224  10.753   8.703   4.986  0.0859 -0.3337  0.2875
37762SOL    HW218225  10.826   8.598   4.906  0.3976 -0.5448  0.8460
37763SOL     OW18226   9.136   5.580   7.466 -0.5093  0.2742  0.6064
37763SOL    HW118227   9.135   5.545   7.377  0.2100 -1.3609  1.1899
37763SOL    HW218228   9.165   5.506   7.520 -2.9564  0.5383  2.4804
37764SOL     OW18229   2.514   9.729   8.442 -0.2456 -0.3936  0.3453
37764SOL    HW118230   2.530   9.656   8.382  0.0901  0.1147 -0.1907
37764SOL    HW218231   2.534   9.807   8.391  0.0339  0.0489  1.1202
37765SOL     OW18232   5.939   6.726   5.268 -0.1783 -0.4183  0.3200
37765SOL    HW118233   5.882   6.739   5.192 -0.9545  0.0145  0.9620
37765SOL    HW218234   5.909   6.790   5.332  0.7239 -0.5131  0.8562
37766SOL     OW18235  10.303   8.857   4.862  0.1366  0.6709 -0.2070
37766SOL    HW118236  10.251   8.780   4.886 -0.3923  0.9077 -0.5741
37766SOL    HW218237  10.381   8.821   4.819 -1.1311  0.3691 -2.3948
37767SOL     OW18238  10.118   6.012   2.883  0.1276  0.9397 -0.1913
37767SOL    HW118239  10.145   6.103   2.870 -1.0317  1.1500 -1.3778
37767SOL    HW218240  10.045   6.018   2.946  1.2964  0.6034  1.2528
37768SOL     OW18241   5.283   0.765   9.165 -0.2754  0.5816 -0.1854
37768SOL    HW118242   5.212   0.705   9.144  1.1495 -1.2020 -0.1422
37768SOL    HW218243   5.355   0.739   9.108  0.2897  2.5281 -0.4414
37769SOL     OW18244  11.090   7.988   2.348 -0.4287 -0.0120  0.0944
37769SOL    HW118245  11.018   8.011   2.406 -1.1930 -1.3597 -0.2755
37769SOL    HW218246  11.061   8.016   2.261 -0.0963  0.2787  0.0714
37770SOL     OW18247   7.409   1.192  11.172  0.1129  0.3580  0.0125
37770SOL    HW118248   7.401   1.133  11.097 -1.3429  0.1947  0.2634
37770SOL    HW218249   7.502   1.214  11.175  0.6277 -1.5237 -0.3834
37771SOL     OW18250   3.496   5.865   7.226 -0.1820  0.0671 -0.2328
37771SOL    HW118251   3.540   5.949   7.228  0.1854 -0.1372  0.7555
37771SOL    HW218252   3.523   5.821   7.306 -0.5018 -0.9285 -0.6482
37772SOL     OW18253   7.352  10.240   6.362  0.1777 -0.4199 -0.0150
37772SOL    HW118254   7.401  10.210   6.439 -3.5302 -0.9893  2.3993
37772SOL    HW218255   7.369  10.335   6.359 -0.4308 -0.1605  2.2998
37773SOL     OW18256   9.578   9.445   1.384 -0.1613 -0.2162  0.0832
37773SOL    HW118257   9.542   9.510   1.323  0.7913  1.4228  1.1835
37773SOL    HW218258   9.600   9.370   1.328 -0.2395  0.8434 -1.4417
37774SOL     OW18259   7.319   3.211   2.332 -0.4048 -0.1822 -0.1292
37774SOL    HW118260   7.410   3.199   2.358 -0.9426 -0.2064  1.9354
37774SOL    HW218261   7.283   3.123   2.328 -0.9598 -0.0867  1.7013
37775SOL     OW18262   6.252   4.196   0.370 -0.0507  0.2326  0.3983
37775SOL    HW118263   6.199   4.223   0.445 -0.1208  2.3651 -0.3456
37775SOL    HW218264   6.342   4.198   0.402 -0.2526 -3.3262  1.6444
37776SOL     OW18265  11.285   8.670   3.049 -0.1550  0.2848  0.0121
37776SOL    HW118266  11.356   8.617   3.014  1.4305  2.1327  0.2164
37776SOL    HW218267  11.212   8.610   3.059  1.0154 -1.4520 -1.3146
37777SOL     OW18268   6.044   3.498   8.901 -0.3143  0.4600  0.0406
37777SOL    HW118269   5.971   3.441   8.925 -1.0614  0.8816 -1.1406
37777SOL    HW218270   6.037   3.572   8.962 -0.7598  0.4007  0.0683
37778SOL     OW18271   6.356   2.507   7.393  0.9794 -0.1464  0.5990
37778SOL    HW118272   6.444   2.530   7.422  0.2745  0.6368  2.2446
37778SOL    HW218273   6.308   2.590   7.394  0.8320 -0.0400 -2.8686
37779SOL     OW18274   0.196   8.499   2.202  0.3734  0.2345 -0.4966
37779SOL    HW118275   0.158   8.425   2.154  0.4857  0.5932 -1.1633
37779SOL    HW218276   0.120   8.553   2.226  0.1572 -0.7937  1.2379
37780SOL     OW18277  11.249   5.936   6.358 -0.5175 -0.2301 -0.2992
37780SOL    HW118278  11.227   5.911   6.447 -1.1332  0.1602 -0.3354
37780SOL    HW218279  11.248   6.032   6.359  0.5350 -0.1999 -0.4724
37781SOL     OW18280   3.534   9.036   5.811  0.1337 -0.3912 -0.3988
37781SOL    HW118281   3.586   9.080   5.878  0.9911  0.8658 -1.8483
37781SOL    HW218282   3.565   8.945   5.813  1.6201  0.0846 -0.4796
37782SOL     OW18283   6.707   0.385   7.118  0.5613  0.0546  0.5359
37782SOL    HW118284   6.750   0.465   7.145 -0.0474  0.9138 -0.9166
37782SOL    HW218285   6.709   0.387   7.022 -0.2146 -1.2457  0.4575
37783SOL     OW18286  10.603   7.729   8.196 -0.4053  0.0587 -0.2829
37783SOL    HW118287  10.657   7.659   8.159 -1.6517 -0.7068 -0.7071
37783SOL    HW218288  10.518   7.718   8.155 -1.0056  1.0127  0.6525
37784SOL     OW18289   5.203   6.010   2.147  0.1127  0.0464 -0.4575
37784SOL    HW118290   5.245   5.940   2.197 -1.2962 -0.2113  0.4488
37784SOL    HW218291   5.203   5.979   2.057  1.0121 -0.3479 -0.3271
37785SOL     OW18292   7.330   7.972   2.496 -0.1226 -0.1709  0.3624
37785SOL    HW118293   7.276   7.953   2.419  2.0075  0.7044 -1.4465
37785SOL    HW218294   7.373   8.055   2.476  2.4834 -1.1770  1.3182
37786SOL     OW18295   9.578   8.570   8.156 -0.0013 -0.9752  0.2704
37786SOL    HW118296   9.492   8.586   8.116  0.3842  1.0000  0.1337
37786SOL    HW218297   9.558   8.543   8.245 -0.7863 -0.6292  0.2163
37787SOL     OW18298   2.787   5.219   0.567  0.2566  0.0722 -0.5567
37787SOL    HW118299   2.880   5.237   0.584  0.3032  0.1005 -0.8219
37787SOL    HW218300   2.778   5.232   0.472 -0.0201  0.0759 -0.5299
37788SOL     OW18301   1.213   3.856  11.430  0.0007 -0.4862  0.3081
37788SOL    HW118302   1.261   3.778  11.456  1.6584  0.2371 -0.4625
37788SOL    HW218303   1.258   3.928  11.473 -0.8406  0.1527  0.1366
37789SOL     OW18304  11.219   9.604   3.758 -0.1000 -0.4168  0.4609
37789SOL    HW118305  11.126   9.611   3.779 -0.8492  0.4334 -2.5169
37789SOL    HW218306  11.233   9.511   3.743 -0.8515 -0.4233 -0.3220
37790SOL     OW18307   5.001   5.385   3.477  0.8664 -0.3709  0.4577
37790SOL    HW118308   5.017   5.465   3.527 -2.4941 -0.2294  1.5625
37790SOL    HW218309   4.967   5.416   3.393 -0.5527 -0.5653  0.9301
37791SOL     OW18310   9.789   6.168   0.063 -0.2854 -0.7480 -0.0788
37791SOL    HW118311   9.849   6.128   0.126 -0.4249 -1.2288 -0.2467
37791SOL    HW218312   9.724   6.214   0.117 -0.0785 -0.6787  0.1128
37792SOL     OW18313   5.516   8.224  10.030  0.0777 -0.7321  0.0504
37792SOL    HW118314   5.538   8.134  10.004 -0.6343 -0.5539 -1.2589
37792SOL    HW218315   5.429   8.216  10.069  0.5307 -0.7773  1.0791
37793SOL     OW18316   3.749   3.361   3.777 -0.1762  0.2430  0.0710
37793SOL    HW118317   3.822   3.411   3.741  0.5649 -0.0837  1.0565
37793SOL    HW218318   3.719   3.307   3.705 -0.1352  1.1416 -0.6430
37794SOL     OW18319   8.587   5.031   5.181  0.0786  0.4251  0.3717
37794SOL    HW118320   8.564   4.958   5.238 -1.0886  0.6113  0.1517
37794SOL    HW218321   8.653   5.080   5.231  2.0587 -1.5877 -0.1184
37795SOL     OW18322   9.179   6.663   9.757 -0.6173 -0.4756 -0.1679
37795SOL    HW118323   9.250   6.687   9.816  0.1848 -1.6036 -0.6282
37795SOL    HW218324   9.153   6.744   9.715  0.5894 -0.0931 -0.1910
37796SOL     OW18325   2.929   0.720   6.648  0.2242  0.0843  0.1724
37796SOL    HW118326   2.900   0.710   6.738  0.0913  1.5980  0.3363
37796SOL    HW218327   2.862   0.774   6.607 -0.5159 -1.8321 -1.2956
37797SOL     OW18328   3.333   3.806   4.742  0.0979 -0.5959  0.3192
37797SOL    HW118329   3.391   3.880   4.759 -0.8540  1.1754 -3.2203
37797SOL    HW218330   3.374   3.760   4.668 -1.1860 -1.3771  0.0657
37798SOL     OW18331  10.859   4.415  10.138  0.6288 -0.1959  0.0900
37798SOL    HW118332  10.853   4.502  10.098 -1.2072  0.4124  1.5624
37798SOL    HW218333  10.855   4.431  10.232 -1.2629 -1.9164  0.3701
37799SOL     OW18334   6.151   8.634   9.095  0.3901  0.4139  0.2452
37799SOL    HW118335   6.212   8.595   9.157  0.8662 -0.4523 -0.7277
37799SOL    HW218336   6.087   8.680   9.149 -0.5107 -2.1555  1.5266
37800SOL     OW18337   2.673   9.861   9.083 -0.1236 -0.2891 -0.2125
37800SOL    HW118338   2.740   9.901   9.139 -1.8296  2.0582  0.3053
37800SOL    HW218339   2.595   9.859   9.138 -1.3362  0.2014 -1.8575
37801SOL     OW18340  11.585   1.195   9.982  0.2575  0.1044 -0.0531
37801SOL    HW118341  11.678   1.217   9.975 -0.1961  2.8801  1.0797
37801SOL    HW218342  11.564   1.212  10.074 -1.9171  2.3955 -0.8645
37802SOL     OW18343   9.297  10.502  10.967 -0.6925  0.7590 -0.0717
37802SOL    HW118344   9.323  10.429  10.912 -0.9790  0.0875  0.6621
37802SOL    HW218345   9.269  10.570  10.905 -2.1850 -0.4157 -0.7629
37803SOL     OW18346   5.075   1.534   7.242 -1.0673  0.3522 -0.0776
37803SOL    HW118347   5.078   1.614   7.294 -0.2367 -0.3314  0.9650
37803SOL    HW218348   4.986   1.532   7.206 -1.4299  1.1914  0.7290
37804SOL     OW18349   5.982   8.189  10.488 -0.6216  0.2810 -0.2418
37804SOL    HW118350   6.018   8.277  10.500 -0.4891  0.3315 -0.9974
37804SOL    HW218351   6.007   8.142  10.568 -0.3219  0.8015 -0.0259
37805SOL     OW18352   0.364   5.233   2.349  0.3797  0.1698 -0.8472
37805SOL    HW118353   0.280   5.187   2.348  0.1694  0.5008  0.3758
37805SOL    HW218354   0.417   5.186   2.285  0.4800 -2.3860  0.9529
37806SOL     OW18355   6.241   2.192   8.971 -0.2829  0.4299 -0.2237
37806SOL    HW118356   6.330   2.160   8.987 -0.6240  0.1929  1.4036
37806SOL    HW218357   6.210   2.220   9.057 -1.6923  0.7521 -0.8104
37807SOL     OW18358   5.250   0.632  10.226  0.2268 -0.2954 -0.4476
37807SOL    HW118359   5.183   0.571  10.256 -1.5831  1.5987 -0.4287
37807SOL    HW218360   5.213   0.672  10.148  1.6751  0.2571 -0.8811
37808SOL     OW18361  10.165  11.003   8.767 -0.3903 -0.1738  0.3052
37808SOL    HW118362  10.233  10.986   8.832 -0.2924 -1.8217 -0.1780
37808SOL    HW218363  10.099  11.053   8.814  1.4618  2.1724  0.5809
37809SOL     OW18364  11.287   3.805   2.216 -0.2869 -0.0533  0.6158
37809SOL    HW118365  11.332   3.778   2.296 -0.2565  1.8435  1.2964
37809SOL    HW218366  11.337   3.881   2.185 -0.9106 -0.1308 -0.6420
37810SOL     OW18367   4.354   4.520   6.030 -0.4127 -0.0576 -0.1278
37810SOL    HW118368   4.380   4.462   5.958 -0.9847  0.5932 -0.8688
37810SOL    HW218369   4.392   4.605   6.008  3.2311 -0.7394  2.5350
37811SOL     OW18370   7.773   3.897   8.358  0.3991  0.4120 -0.6415
37811SOL    HW118371   7.714   3.967   8.329  1.5780  0.8575 -2.0918
37811SOL    HW218372   7.716   3.821   8.371 -0.8976  1.5615  0.8856
37812SOL     OW18373   0.639   3.447   4.589  0.0751 -0.4457 -0.1873
37812SOL    HW118374   0.719   3.456   4.640  1.3038 -0.9754 -1.9178
37812SOL    HW218375   0.638   3.354   4.563  0.1059  0.0346 -2.0070
37813SOL     OW18376   9.835   1.362   1.280 -0.1988 -0.1177  0.1010
37813SOL    HW118377   9.866   1.297   1.343 -0.4213  1.4231  1.8781
37813SOL    HW218378   9.915   1.400   1.244 -0.0431 -1.9953 -1.7299
37814SOL     OW18379   3.246   5.795   1.211 -0.3577 -0.1408  0.8090
37814SOL    HW118380   3.235   5.857   1.139 -1.2995  0.3566  1.3668
37814SOL    HW218381   3.339   5.773   1.210 -0.2913  0.1547 -0.3152
37815SOL     OW18382   5.309   0.139  10.586  0.2732 -0.4897 -0.0563
37815SOL    HW118383   5.251   0.085  10.638  0.5100 -1.7822 -1.0914
37815SOL    HW218384   5.333   0.085  10.511  0.6652  0.9855 -1.0485
37816SOL     OW18385   5.177   5.499  10.515 -0.6980 -0.0587  0.1568
37816SOL    HW118386   5.153   5.418  10.471 -2.0027  0.2980  0.1508
37816SOL    HW218387   5.168   5.480  10.609  1.0774 -0.5170  0.2711
37817SOL     OW18388   1.680   4.572   6.155  0.3613 -0.4649 -0.6534
37817SOL    HW118389   1.699   4.542   6.066  2.7115  0.3414 -0.5026
37817SOL    HW218390   1.765   4.570   6.199 -0.5696  0.1610  1.2693
37818SOL     OW18391   4.584   1.753   9.287 -0.2457 -0.4301  0.3813
37818SOL    HW118392   4.542   1.667   9.283 -0.1287 -0.5806  1.9392
37818SOL    HW218393   4.574   1.788   9.198  1.4541 -2.8444 -0.8572
37819SOL     OW18394   5.032   3.690   1.837 -0.4265 -0.6089 -0.0223
37819SOL    HW118395   5.032   3.595   1.848  2.7982 -0.7462 -0.4425
37819SOL    HW218396   5.076   3.723   1.915 -1.0713  0.5416 -0.1164
37820SOL     OW18397   8.287   8.988   8.809 -0.0793 -0.1269 -0.2026
37820SOL    HW118398   8.365   9.014   8.857 -0.1398 -0.7053  0.2203
37820SOL    HW218399   8.256   8.909   8.854 -0.0489 -0.7739 -1.2749
37821SOL     OW18400   1.592   9.563   2.790  0.0486  0.4425 -0.5352
37821SOL    HW118401   1.640   9.601   2.863 -0.3150  0.5556 -0.3506
37821SOL    HW218402   1.654   9.564   2.717  0.4351  0.2607 -0.2097
37822SOL     OW18403   8.613   5.570   2.861  0.3610  0.0490  0.2131
37822SOL    HW118404   8.575   5.636   2.919  1.6444  1.8631 -0.8786
37822SOL    HW218405   8.566   5.580   2.778  0.3391 -0.6689  0.1293
37823SOL     OW18406   2.140   5.276  10.025 -0.1740  0.7924 -0.0085
37823SOL    HW118407   2.073   5.266   9.957  0.0716  1.3018 -0.3284
37823SOL    HW218408   2.181   5.360  10.006  0.7656  0.3438  0.0032
37824SOL     OW18409   8.653   5.018   6.947  0.1206 -0.0247 -0.1633
37824SOL    HW118410   8.688   5.081   7.010 -0.9593  0.7150 -0.2818
37824SOL    HW218411   8.705   5.031   6.868  1.6303 -1.1095  0.6094
37825SOL     OW18412   8.642   7.671  10.206  0.4086 -0.0543 -0.0284
37825SOL    HW118413   8.724   7.684  10.159 -0.9563  0.1005 -2.5137
37825SOL    HW218414   8.601   7.595  10.164 -0.9411  0.1366  0.8625
37826SOL     OW18415   3.163   9.094   9.463 -0.1430 -0.1318  0.7912
37826SOL    HW118416   3.236   9.130   9.413 -0.9613  0.5021  0.0058
37826SOL    HW218417   3.150   9.006   9.426 -0.3644  0.1124  0.2707
37827SOL     OW18418   0.477   8.830   3.982  0.1130 -0.0632  0.1453
37827SOL    HW118419   0.394   8.796   4.014 -1.7292  3.6461 -0.1115
37827SOL    HW218420   0.457   8.864   3.895  1.1257  3.0889  1.0059
37828SOL     OW18421   0.163   8.156   1.368  0.1642 -0.2793 -0.3980
37828SOL    HW118422   0.193   8.078   1.323 -0.1772 -0.6164 -0.0532
37828SOL    HW218423   0.241   8.192   1.409 -0.0661 -1.9445  1.7114
37829SOL     OW18424   5.986  10.508   4.396  0.0227 -0.2041 -0.1546
37829SOL    HW118425   6.070  10.473   4.427  0.3820  1.0592  0.3671
37829SOL    HW218426   6.005  10.599   4.374 -1.0338 -0.1338 -0.8510
37830SOL     OW18427   9.938   8.791  11.295  0.1332 -0.0183  0.3144
37830SOL    HW118428   9.863   8.847  11.277 -0.6384 -1.7964 -2.4809
37830SOL    HW218429   9.902   8.716  11.343  0.4940 -0.0007  0.6254
37831SOL     OW18430   0.997   3.810   9.788 -0.4118  0.0955 -0.5884
37831SOL    HW118431   0.980   3.790   9.881 -1.3881 -0.6339 -0.9005
37831SOL    HW218432   1.088   3.784   9.775 -0.2330  0.2913  0.1909
37832SOL     OW18433   2.044   1.253   7.673  0.2611 -0.4383  0.6974
37832SOL    HW118434   2.126   1.257   7.723  0.0964  1.4106  0.8806
37832SOL    HW218435   2.070   1.213   7.590  0.9467 -1.6455  1.4626
37833SOL     OW18436   9.669   3.399   3.981  0.3633 -0.1836 -0.3928
37833SOL    HW118437   9.611   3.405   4.058  1.3763 -0.7540  0.4319
37833SOL    HW218438   9.610   3.377   3.909 -0.3402 -1.7984  0.6150
37834SOL     OW18439   5.041   5.060  10.576 -0.1312  0.1339  0.2857
37834SOL    HW118440   4.949   5.066  10.550 -0.5555  1.4993  1.8872
37834SOL    HW218441   5.037   5.047  10.671  1.3405 -0.8344  0.2428
37835SOL     OW18442  11.219   0.769  11.689 -0.1741  0.2130  0.0827
37835SOL    HW118443  11.235   0.683  11.648  0.7443  0.6151 -0.4348
37835SOL    HW218444  11.266   0.831  11.633 -0.8952  1.0719  0.4081
37836SOL     OW18445   8.679   6.539   8.355 -0.1337 -0.3293 -0.0318
37836SOL    HW118446   8.659   6.617   8.407 -0.1706 -0.0350 -0.4822
37836SOL    HW218447   8.593   6.503   8.332 -0.3080  1.6958 -3.1196
37837SOL     OW18448   7.623   4.148   6.182 -0.3208  0.0395  0.4101
37837SOL    HW118449   7.547   4.112   6.135 -1.2113  1.0247  1.0520
37837SOL    HW218450   7.646   4.227   6.132  1.3570 -1.1067 -0.7454
37838SOL     OW18451   9.162   7.686   6.955  0.5507  0.5774  0.1945
37838SOL    HW118452   9.091   7.640   7.000  1.2000 -0.7724 -0.1088
37838SOL    HW218453   9.135   7.687   6.863  1.1147 -0.3721  0.0010
37839SOL     OW18454   1.901   9.396   0.240  0.1871  0.2782  0.4081
37839SOL    HW118455   1.874   9.332   0.175  0.3951 -0.1052  0.6991
37839SOL    HW218456   1.821   9.446   0.259  0.1189  0.3654 -0.1070
37840SOL     OW18457   4.667   2.795   7.789 -0.4621  0.6395  0.8113
37840SOL    HW118458   4.591   2.813   7.845  0.6039 -3.4772  4.0461
37840SOL    HW218459   4.742   2.826   7.840  0.3230  0.5028 -0.2449
37841SOL     OW18460   6.230   2.109   7.924  0.3729  0.3332  0.0161
37841SOL    HW118461   6.247   2.181   7.985 -0.1839 -0.6337  1.3721
37841SOL    HW218462   6.225   2.031   7.980  0.5839 -0.7103 -1.3662
37842SOL     OW18463   2.393   1.934   8.395  0.2053  0.0297  0.0914
37842SOL    HW118464   2.454   1.860   8.394  1.3991  0.9220  1.7548
37842SOL    HW218465   2.311   1.898   8.363  0.6276 -2.1358  1.2397
37843SOL     OW18466   2.455   4.964   9.415 -0.2839  0.0143  0.1312
37843SOL    HW118467   2.449   4.922   9.501  1.8047  1.5968  1.1323
37843SOL    HW218468   2.365   4.988   9.394 -0.6440  1.8206  3.0978
37844SOL     OW18469   2.051   0.881   8.059  0.0799  0.2050 -0.5144
37844SOL    HW118470   2.121   0.901   8.121  0.0388 -2.4620  0.5135
37844SOL    HW218471   1.995   0.959   8.061  0.2428  0.3504  2.6138
37845SOL     OW18472  10.276   3.503   1.025 -0.1842  0.1468  0.3268
37845SOL    HW118473  10.316   3.497   1.112  1.0528 -1.9427 -0.3040
37845SOL    HW218474  10.311   3.584   0.987  1.6541 -0.4459  0.6802
37846SOL     OW18475   9.572   8.294   3.942 -0.1468  0.0301  0.1230
37846SOL    HW118476   9.603   8.296   4.033 -1.6525 -0.4390  0.6637
37846SOL    HW218477   9.643   8.250   3.894  0.4379 -0.1950  1.1542
37847SOL     OW18478   5.766   9.738   2.812  0.2399 -0.0362  0.3219
37847SOL    HW118479   5.855   9.736   2.849  0.1742 -0.1154  0.4793
37847SOL    HW218480   5.711   9.762   2.886  0.1508  0.1902  0.1799
37848SOL     OW18481   8.242   5.060   7.905 -0.2963  0.2688 -0.3518
37848SOL    HW118482   8.336   5.076   7.908 -0.3214  0.3114  1.2073
37848SOL    HW218483   8.228   4.984   7.961 -1.3268  1.1551  0.6677
37849SOL     OW18484   5.792   0.853   1.507 -0.6438  0.3778 -0.0706
37849SOL    HW118485   5.790   0.758   1.500  0.4073  0.4518 -1.7012
37849SOL    HW218486   5.827   0.870   1.595  1.6442 -0.7782 -0.6845
37850SOL     OW18487   5.446   8.020   4.322  0.3680  0.3011  0.5093
37850SOL    HW118488   5.364   8.032   4.273  0.0369 -0.1101  0.9490
37850SOL    HW218489   5.472   8.108   4.348  0.6890  0.5552 -0.6253
37851SOL     OW18490  10.421   4.596   8.667  0.0187 -0.1067 -0.3098
37851SOL    HW118491  10.337   4.557   8.690 -0.2614  0.4714 -0.3332
37851SOL    HW218492  10.482   4.562   8.732 -0.5670  0.7688  0.7299
37852SOL     OW18493   8.637   2.840   6.998 -0.5929  0.1868 -0.5955
37852SOL    HW118494   8.567   2.874   6.941 -1.4471  2.6106  1.6704
37852SOL    HW218495   8.715   2.888   6.971 -0.3234 -0.7661 -1.5547
37853SOL     OW18496   1.606   4.240   3.400 -0.3676  0.2896 -0.4538
37853SOL    HW118497   1.619   4.298   3.324 -2.6587  0.9482 -0.4149
37853SOL    HW218498   1.534   4.280   3.449 -0.1570 -1.1221  1.0987
37854SOL     OW18499   8.452  10.083   9.292  0.0820 -0.2995 -0.3966
37854SOL    HW118500   8.485  10.152   9.235  0.7682  0.9727  1.4372
37854SOL    HW218501   8.364  10.064   9.260 -0.4430  2.0252 -0.4834
37855SOL     OW18502   7.834   5.431   2.991  0.1422  0.2112 -0.0623
37855SOL    HW118503   7.901   5.471   2.936 -0.9671  0.5390 -1.2598
37855SOL    HW218504   7.781   5.379   2.929 -0.0047 -0.9908  1.0298
37856SOL     OW18505   5.444  11.441   3.692 -0.4238 -1.0847 -0.1811
37856SOL    HW118506   5.497  11.457   3.770 -0.1937  0.8617 -0.6783
37856SOL    HW218507   5.404  11.356   3.707  0.8270 -1.4436  1.3591
37857SOL     OW18508   8.051   8.290   1.502  0.9860  0.3606 -0.8777
37857SOL    HW118509   8.007   8.205   1.512 -1.9335  1.8602  0.4816
37857SOL    HW218510   8.088   8.308   1.588 -1.6429  1.9577  0.0483
37858SOL     OW18511   7.488   3.898   9.995 -0.0005  0.2047  0.3165
37858SOL    HW118512   7.457   3.942   9.916 -0.4194 -1.8304 -0.7128
37858SOL    HW218513   7.485   3.966  10.062 -3.1571  1.1210 -0.5520
37859SOL     OW18514  11.648  11.068   8.554  0.2319 -0.3075 -0.5301
37859SOL    HW118515  11.601  11.097   8.633  2.4967  0.1445  0.7521
37859SOL    HW218516  11.674  11.149   8.511 -1.6439 -0.5465 -2.2376
37860SOL     OW18517   6.940   7.966   6.884 -0.5871  0.4930  0.1800
37860SOL    HW118518   6.998   7.959   6.808 -2.7828  1.1658 -1.6663
37860SOL    HW218519   6.869   8.023   6.855 -2.5285 -0.8033  2.0845
37861SOL     OW18520   1.889   9.832   2.196 -0.2380  0.1661 -0.0150
37861SOL    HW118521   1.913   9.858   2.285  0.9618  0.0010 -0.2728
37861SOL    HW218522   1.932   9.897   2.140  1.6527 -1.4977 -0.6003
37862SOL     OW18523  10.654  10.694   6.260  0.6851  0.4151  0.1636
37862SOL    HW118524  10.713  10.630   6.298  1.3224  1.4389  0.9469
37862SOL    HW218525  10.711  10.758   6.218  0.1147  1.0133  0.2706
37863SOL     OW18526   5.553  10.299   6.253 -0.2077  0.0975  0.6643
37863SOL    HW118527   5.614  10.262   6.189 -1.1828 -0.7217  0.1798
37863SOL    HW218528   5.534  10.387   6.219 -0.2862 -0.1235  0.1269
37864SOL     OW18529   7.808  11.122   0.875  0.5229 -0.0842 -0.0345
37864SOL    HW118530   7.813  11.132   0.970  1.3759 -0.1619 -0.0655
37864SOL    HW218531   7.880  11.064   0.853 -0.3107 -0.9168 -0.6180
37865SOL     OW18532   5.362   4.138   3.141  0.2602  0.0600  0.2078
37865SOL    HW118533   5.343   4.133   3.235 -2.0868 -1.2106 -0.2649
37865SOL    HW218534   5.316   4.217   3.112 -1.2157 -0.9471 -0.2844
37866SOL     OW18535   9.274  11.405   7.680  0.3526 -0.3168 -0.7143
37866SOL    HW118536   9.197  11.352   7.662  0.6400 -1.3967  1.0022
37866SOL    HW218537   9.259  11.441   7.768  0.3271  2.2305 -1.6857
37867SOL     OW18538   2.798   6.218   2.446  0.5139 -0.4595  0.0183
37867SOL    HW118539   2.821   6.282   2.378 -1.8458 -1.1095 -1.5054
37867SOL    HW218540   2.797   6.134   2.400 -0.3370 -1.0298  1.0437
37868SOL     OW18541   8.080   3.588   6.393  0.2541 -0.0958 -0.0133
37868SOL    HW118542   8.043   3.654   6.334  0.6731 -1.0648 -1.3991
37868SOL    HW218543   8.054   3.617   6.481 -1.4958  0.6661 -0.7501
37869SOL     OW18544   3.864   8.284   1.659 -0.4011 -0.1554 -0.2890
37869SOL    HW118545   3.835   8.292   1.569 -0.4028 -1.4492 -0.4161
37869SOL    HW218546   3.864   8.374   1.692 -1.3697  0.2188 -1.2595
37870SOL     OW18547   9.628   9.254   3.915 -0.1686 -0.2056 -0.5613
37870SOL    HW118548   9.566   9.201   3.965  0.5899 -0.2331  0.3675
37870SOL    HW218549   9.613   9.343   3.947  1.4174 -0.4211  0.9406
37871SOL     OW18550   7.842   3.057   6.800 -0.4033 -0.5254  0.5030
37871SOL    HW118551   7.770   3.030   6.743  0.4452  0.0217 -0.8785
37871SOL    HW218552   7.820   3.146   6.828  0.2955  0.1408 -0.9534
37872SOL     OW18553   2.794   8.959  10.573  0.3915  0.0415 -0.2490
37872SOL    HW118554   2.743   9.021  10.624  2.1137  0.8723  0.5434
37872SOL    HW218555   2.747   8.876  10.582 -1.0464  0.8570  0.0391
37873SOL     OW18556   9.491  11.168  11.126 -0.4727  0.3756  0.0416
37873SOL    HW118557   9.421  11.138  11.184  0.2998 -1.5143  0.0507
37873SOL    HW218558   9.507  11.094  11.067  0.9302  1.0968 -0.5294
37874SOL     OW18559  11.643   9.835   5.847 -0.0316  0.3578 -0.2142
37874SOL    HW118560  11.692   9.891   5.907 -0.1548  1.9231 -1.5043
37874SOL    HW218561  11.666   9.746   5.873 -0.0093  0.9705  2.0582
37875SOL     OW18562   5.996   7.423  11.409  0.1048  0.4125 -0.3294
37875SOL    HW118563   5.920   7.480  11.396 -0.1395  0.2331  0.2825
37875SOL    HW218564   5.981   7.382  11.494  1.0710  0.6571 -0.0230
37876SOL     OW18565  10.656   6.662   6.729  0.0391  0.5774  0.1931
37876SOL    HW118566  10.567   6.662   6.763  0.0332  0.0246  0.1841
37876SOL    HW218567  10.649   6.618   6.644  0.5566 -0.8124  0.8416
37877SOL     OW18568   1.953   6.976   2.700 -0.0788  0.5722 -0.4461
37877SOL    HW118569   1.888   7.012   2.761  0.6509  0.6755  0.2993
37877SOL    HW218570   1.984   6.895   2.742  1.6315  1.4861  0.1748
37878SOL     OW18571   4.160   9.094   6.576  0.4637  0.3018  0.2789
37878SOL    HW118572   4.173   9.107   6.670 -0.6740  0.4559  0.4253
37878SOL    HW218573   4.125   9.178   6.545  1.2542  0.4034 -0.3749
37879SOL     OW18574  10.799   4.916   7.493  0.3749 -0.2108  0.4838
37879SOL    HW118575  10.848   4.875   7.421 -0.3791  0.4854 -0.4507
37879SOL    HW218576  10.827   5.008   7.492  0.7996 -0.3135  1.4776
37880SOL     OW18577   8.239   9.740   7.940 -0.0031 -0.0490 -0.5764
37880SOL    HW118578   8.269   9.724   7.850  2.3152 -1.5979  0.3538
37880SOL    HW218579   8.245   9.654   7.982 -1.5137  0.5502  0.9481
37881SOL     OW18580   9.766   4.273   2.124 -0.0922 -0.9213  0.3664
37881SOL    HW118581   9.833   4.314   2.179 -0.4536  0.9106 -0.5060
37881SOL    HW218582   9.693   4.256   2.184 -0.3727  0.7880  0.5475
37882SOL     OW18583   3.281   4.444   2.220  0.2307 -0.2635  0.8607
37882SOL    HW118584   3.338   4.375   2.253  0.8837 -1.0224 -1.6284
37882SOL    HW218585   3.193   4.407   2.225  0.4754 -0.9161  0.4396
37883SOL     OW18586   6.587   0.375   8.533  0.5811 -0.0519 -0.2550
37883SOL    HW118587   6.514   0.410   8.583  1.5214 -0.2109  1.3079
37883SOL    HW218588   6.580   0.416   8.447 -1.5434 -0.3538 -0.2790
37884SOL     OW18589   3.000   5.075   1.156  0.4088  0.0025 -0.3918
37884SOL    HW118590   3.028   5.080   1.065  1.1148 -0.7165 -0.2203
37884SOL    HW218591   2.908   5.050   1.152  0.4219  0.0295 -0.9041
37885SOL     OW18592   4.497   5.042   6.069  0.4917  0.0059 -0.1234
37885SOL    HW118593   4.405   5.070   6.072  0.3818 -0.2736 -0.6738
37885SOL    HW218594   4.509   4.988   6.148 -0.2949 -1.3588 -0.9013
37886SOL     OW18595   3.101   6.551   2.078 -0.1627  0.3959 -0.3444
37886SOL    HW118596   3.111   6.629   2.024 -0.1041  0.5586 -0.0998
37886SOL    HW218597   3.116   6.582   2.168  1.0652 -0.1305 -0.3576
37887SOL     OW18598  10.527   4.754   8.121 -0.0214 -0.3275  0.4217
37887SOL    HW118599  10.462   4.750   8.050 -1.1739  2.0227  1.2557
37887SOL    HW218600  10.607   4.783   8.078 -0.2092 -0.6817 -0.1883
37888SOL     OW18601   0.916   9.222   4.142 -0.6269  0.4802 -0.2887
37888SOL    HW118602   0.849   9.267   4.193  1.0415  0.3425  2.2084
37888SOL    HW218603   0.929   9.139   4.187  1.6674  0.8056 -0.2115
37889SOL     OW18604   8.603   3.557   3.419  0.0135  0.0460 -0.2666
37889SOL    HW118605   8.557   3.608   3.485 -0.1724 -1.4374  0.7986
37889SOL    HW218606   8.603   3.613   3.341  0.2315  1.8380  0.9504
37890SOL     OW18607   2.596   6.630   4.662  0.4286 -0.4456  0.0806
37890SOL    HW118608   2.506   6.603   4.647 -1.0063  2.1959  2.8245
37890SOL    HW218609   2.605   6.714   4.616  1.4797 -0.6218 -0.0720
37891SOL     OW18610   5.967  10.622   0.991 -0.2487  0.1851  0.1525
37891SOL    HW118611   5.909  10.546   0.985 -1.1365  0.7905  0.7655
37891SOL    HW218612   5.918  10.693   0.951  0.7642  0.3499 -0.8297
37892SOL     OW18613   2.551   0.474   7.970 -0.5616 -0.2017  0.3706
37892SOL    HW118614   2.509   0.425   8.040  0.8477 -2.0206  0.0172
37892SOL    HW218615   2.500   0.454   7.892 -0.6129 -0.2389  0.4137
37893SOL     OW18616   1.088   3.620   7.325  0.1595  0.0397 -0.4876
37893SOL    HW118617   1.166   3.595   7.276 -0.1881 -1.5937 -0.2472
37893SOL    HW218618   1.043   3.682   7.268  0.4034 -0.8581 -1.6925
37894SOL     OW18619   0.996   0.609   2.764  0.9748 -0.5106  0.1152
37894SOL    HW118620   1.066   0.608   2.829  2.0049 -1.2023 -0.9836
37894SOL    HW218621   0.998   0.697   2.727  2.4512 -1.0272 -1.1311
37895SOL     OW18622   0.543   2.638   2.591 -0.1851  0.0307 -0.1230
37895SOL    HW118623   0.546   2.599   2.503  2.1550  1.2153 -0.6374
37895SOL    HW218624   0.532   2.563   2.650  0.9239 -1.0945 -1.2760
37896SOL     OW18625   6.582   2.512   0.065 -0.4266  0.5276  0.8188
37896SOL    HW118626   6.592   2.423   0.098 -0.9017  0.6939  1.4330
37896SOL    HW218627   6.490   2.534   0.081 -0.5330  0.8224 -0.1226
37897SOL     OW18628   7.959   4.540  10.005 -0.2287  0.0018 -0.1976
37897SOL    HW118629   7.999   4.485   9.937 -0.3673 -1.6774  1.0068
37897SOL    HW218630   8.009   4.521  10.084 -0.3502  1.5842  0.2917
37898SOL     OW18631   8.661   7.798   2.395  0.1565 -0.3591  0.8312
37898SOL    HW118632   8.718   7.854   2.448  0.7935  1.7238 -1.8136
37898SOL    HW218633   8.721   7.754   2.334 -0.8018  0.4150 -0.7511
37899SOL     OW18634   7.894   8.508   5.452  0.2704  0.5503 -0.2214
37899SOL    HW118635   7.980   8.487   5.489 -0.4830  0.8668  1.8070
37899SOL    HW218636   7.912   8.523   5.359  2.0414 -1.5615 -0.3084
37900SOL     OW18637   6.211   9.404   9.998  0.2599 -0.1325 -0.2864
37900SOL    HW118638   6.296   9.442   9.979 -0.4397  1.9302  0.4868
37900SOL    HW218639   6.175   9.458  10.068 -1.2860 -1.5624  0.0835
37901SOL     OW18640   5.832  11.109   9.093 -0.0989  0.5867 -0.0636
37901SOL    HW118641   5.831  11.134   9.185  0.7727  0.5683 -0.0351
37901SOL    HW218642   5.841  11.014   9.094 -0.6879  0.5307 -0.1683
37902SOL     OW18643  10.961   8.636   0.632  0.2070 -0.8240 -0.2348
37902SOL    HW118644  10.904   8.710   0.610  0.5352 -0.5617 -0.2038
37902SOL    HW218645  11.046   8.659   0.593  0.6425 -0.6254  0.8152
37903SOL     OW18646   3.661   0.750   4.479 -0.2356 -0.0818  0.0593
37903SOL    HW118647   3.570   0.756   4.508 -0.9930 -0.3313 -2.1344
37903SOL    HW218648   3.657   0.705   4.395  1.7945  0.9818 -0.6721
37904SOL     OW18649  10.115   2.788   0.105 -0.4278  0.6699 -0.0205
37904SOL    HW118650  10.188   2.828   0.059  0.1435 -0.0147  0.2819
37904SOL    HW218651  10.063   2.747   0.037 -0.6104  1.2652 -0.2505
37905SOL     OW18652   5.655   4.353  10.300  0.5423  0.4712 -0.2157
37905SOL    HW118653   5.691   4.416  10.362 -0.5006 -0.2307  1.1363
37905SOL    HW218654   5.657   4.400  10.216  0.0064  2.2311  0.7046
37906SOL     OW18655   6.848   9.601   2.348  0.4923  0.0017 -0.8361
37906SOL    HW118656   6.907   9.527   2.364  1.7181  1.2460  0.8291
37906SOL    HW218657   6.828   9.634   2.435 -2.2507  0.0157 -1.3898
37907SOL     OW18658   5.355   6.990   6.076 -0.2153  0.2622 -0.0409
37907SOL    HW118659   5.270   7.020   6.108  0.2215  1.4247  0.0809
37907SOL    HW218660   5.385   7.059   6.018  0.2590 -0.5500 -0.7911
37908SOL     OW18661   0.899   8.772   3.022 -0.0848 -0.4805  0.7518
37908SOL    HW118662   0.985   8.780   2.981 -0.0072 -2.2958  0.4632
37908SOL    HW218663   0.839   8.814   2.960 -0.0535 -3.6800 -1.6902
37909SOL     OW18664   7.208   4.529   8.914 -0.2252  0.1394  0.8481
37909SOL    HW118665   7.217   4.532   8.818  2.3366  2.0513  1.0231
37909SOL    HW218666   7.181   4.618   8.938  0.8137  0.1766  1.9636
37910SOL     OW18667   2.563   0.216   8.413  0.1762  0.3252  0.3178
37910SOL    HW118668   2.480   0.177   8.441 -0.0876 -0.2955 -1.2173
37910SOL    HW218669   2.544   0.253   8.327  1.4726  0.2435 -0.0190
37911SOL     OW18670  11.280   9.654   4.418  0.8152  0.1346 -0.5868
37911SOL    HW118671  11.324   9.579   4.378  0.5093 -0.0402 -0.6028
37911SOL    HW218672  11.309   9.653   4.510 -0.8478 -1.3061 -0.0299
37912SOL     OW18673   3.643   1.439   1.152 -1.0957  0.1761  0.2192
37912SOL    HW118674   3.665   1.489   1.230 -0.1897 -0.0629  0.1326
37912SOL    HW218675   3.728   1.418   1.112 -1.4785 -0.9689 -0.0317
37913SOL     OW18676  10.372   7.722   8.066 -0.0270 -0.1518  0.3449
37913SOL    HW118677  10.320   7.647   8.095  0.6652 -0.8976 -0.3010
37913SOL    HW218678  10.355   7.729   7.972 -0.6836  0.9934  0.5316
37914SOL     OW18679   6.593   8.147   3.238  0.3806  0.1717  0.1479
37914SOL    HW118680   6.679   8.105   3.238  0.7039  0.8244 -0.0421
37914SOL    HW218681   6.577   8.166   3.331 -0.1337 -1.0898  0.3357
37915SOL     OW18682   3.553  10.669   0.876 -0.7764  0.1728 -0.5816
37915SOL    HW118683   3.461  10.693   0.887 -1.1877 -0.9147 -1.4758
37915SOL    HW218684   3.590  10.738   0.822 -0.3625  2.0486  1.9392
37916SOL     OW18685   6.357  10.528   9.880  0.1702  0.4346  0.1036
37916SOL    HW118686   6.311  10.536   9.796  0.6745 -1.7388 -0.4484
37916SOL    HW218687   6.436  10.580   9.869  0.4737 -0.2167 -0.9962
37917SOL     OW18688   7.255  10.505   9.504 -0.5683 -0.3689 -0.3303
37917SOL    HW118689   7.325  10.523   9.441  0.4923  1.1854  1.1559
37917SOL    HW218690   7.301  10.501   9.589 -2.0706 -1.2198  0.4795
37918SOL     OW18691  10.012   4.490   4.907  0.0150 -0.0836  0.1399
37918SOL    HW118692   9.930   4.473   4.954 -0.9165  3.6682  0.1823
37918SOL    HW218693  10.016   4.421   4.841 -0.2419 -3.6820  3.4601
37919SOL     OW18694   7.170   5.661   2.340  0.0547 -0.4295 -0.1121
37919SOL    HW118695   7.127   5.656   2.425 -2.0545 -2.1994 -1.1990
37919SOL    HW218696   7.187   5.754   2.328 -0.6297 -0.0172  1.7200
37920SOL     OW18697   5.302   7.360   3.812  0.3534  0.4867 -0.6465
37920SOL    HW118698   5.207   7.367   3.818  0.3782  1.1461 -0.9215
37920SOL    HW218699   5.327   7.426   3.747  0.9288 -0.1833 -1.1283
37921SOL     OW18700   9.259   7.355   6.107  0.3970  0.5433 -0.2163
37921SOL    HW118701   9.346   7.326   6.134  0.8080  0.7871 -1.2441
37921SOL    HW218702   9.204   7.340   6.184  1.2072 -0.2072  0.2358
37922SOL     OW18703  10.048   9.092   2.710  0.1051  0.2209 -0.0666
37922SOL    HW118704   9.976   9.150   2.735  0.5049  0.2976  0.9611
37922SOL    HW218705  10.079   9.127   2.627 -0.3876  0.7987 -0.0138
37923SOL     OW18706   9.674   9.523  10.009 -0.0719 -0.1954  0.8814
37923SOL    HW118707   9.700   9.560  10.094  1.5276  0.0248  0.3237
37923SOL    HW218708   9.757   9.500   9.967 -0.7613  0.6998 -1.0760
37924SOL     OW18709   4.975   9.507   1.886  0.8234  0.2053  1.0329
37924SOL    HW118710   4.931   9.449   1.949  1.2674  0.4398  1.5733
37924SOL    HW218711   5.016   9.448   1.823 -1.0653 -0.0069 -0.0698
37925SOL     OW18712   9.967   5.500   1.955 -0.2335  0.2729  0.1922
37925SOL    HW118713   9.897   5.522   2.016 -0.1356  0.9653  0.0650
37925SOL    HW218714  10.040   5.472   2.011 -1.0974 -2.0121  0.2771
37926SOL     OW18715   5.899   9.741   4.633 -0.2639 -0.0947 -0.3124
37926SOL    HW118716   5.964   9.676   4.607 -1.7491 -1.8636  0.2077
37926SOL    HW218717   5.917   9.756   4.726  1.2539  1.7236 -0.8359
37927SOL     OW18718   3.378  11.093   2.506 -0.0172  0.6783  0.4492
37927SOL    HW118719   3.297  11.105   2.555  0.3604  0.9345  1.0285
37927SOL    HW218720   3.406  11.004   2.527 -0.7892  0.1168 -0.7551
37928SOL     OW18721   8.893   8.092   3.688 -0.3974  0.0510  0.4390
37928SOL    HW118722   8.938   8.157   3.633 -1.8939 -0.8437 -2.0058
37928SOL    HW218723   8.818   8.064   3.636 -1.5936 -1.3490  2.7537
37929SOL     OW18724   0.732  10.184   1.889 -0.0473 -0.3417 -0.0601
37929SOL    HW118725   0.756  10.158   1.977  0.0441  0.6486  0.2213
37929SOL    HW218726   0.641  10.155   1.879  0.0431 -0.7324  0.2372
37930SOL     OW18727   4.875   0.247   6.823  0.0021  0.5883  0.2739
37930SOL    HW118728   4.894   0.155   6.841  1.2759  0.4617 -1.4674
37930SOL    HW218729   4.783   0.247   6.796 -0.3916  0.0462  1.5267
37931SOL     OW18730   7.497   4.784   1.876 -0.5418  0.1270  0.1973
37931SOL    HW118731   7.428   4.819   1.821  0.2312  0.3172 -0.6827
37931SOL    HW218732   7.479   4.820   1.963 -1.3027  0.5027 -0.1048
37932SOL     OW18733   1.873   1.468   2.908 -0.1481 -0.1932 -0.7901
37932SOL    HW118734   1.926   1.488   2.831  0.8757  0.7539  0.1077
37932SOL    HW218735   1.906   1.384   2.940 -0.7253 -0.6960 -1.4875
37933SOL     OW18736   4.003   0.286   4.433  0.0835  0.4078 -0.4648
37933SOL    HW118737   3.989   0.366   4.483 -1.9774 -0.1904  0.0293
37933SOL    HW218738   4.090   0.296   4.394  1.0446  1.6506  1.8204
37934SOL     OW18739   6.345   3.302   2.852 -0.6214 -0.2940  0.2743
37934SOL    HW118740   6.364   3.392   2.877  0.6071  0.2991 -2.3499
37934SOL    HW218741   6.274   3.309   2.788 -0.7569 -1.2190  0.3021
37935SOL     OW18742   9.036   4.963   6.948  0.2264 -0.2606  0.0718
37935SOL    HW118743   8.973   4.893   6.930  1.0222 -0.4660 -2.1431
37935SOL    HW218744   9.116   4.917   6.974  0.1252 -0.0717  0.7458
37936SOL     OW18745  10.566   5.144   6.550 -0.2313 -0.1372  0.4951
37936SOL    HW118746  10.486   5.187   6.521  0.4226 -0.6407 -2.3695
37936SOL    HW218747  10.536   5.072   6.605 -1.5209  1.5380  2.0773
37937SOL     OW18748   2.924   0.985   0.795  0.7805 -0.1657  0.6425
37937SOL    HW118749   2.881   1.015   0.715 -0.9915  0.1817  1.6517
37937SOL    HW218750   2.993   1.049   0.811  0.7822  0.0819 -0.2794
37938SOL     OW18751   1.921   9.769   1.374  0.4512 -0.6862  0.6597
37938SOL    HW118752   2.014   9.750   1.366  0.2835 -1.1728 -0.3873
37938SOL    HW218753   1.907   9.847   1.320  0.1367 -1.0247  0.2461
37939SOL     OW18754   6.573   1.820   9.201  0.2611 -0.1170  0.0592
37939SOL    HW118755   6.606   1.909   9.204  0.4994 -0.2311  1.6327
37939SOL    HW218756   6.621   1.779   9.129 -0.2864  1.1610 -1.0741
37940SOL     OW18757   4.092   1.005   8.076 -0.6406 -0.1511  0.6436
37940SOL    HW118758   4.031   1.059   8.126 -0.0275  1.0719  0.1455
37940SOL    HW218759   4.113   0.932   8.133 -1.6803  0.0276  1.2666
37941SOL     OW18760   3.728   2.717   0.947  0.3330 -0.8135  0.0440
37941SOL    HW118761   3.771   2.632   0.947  1.9942 -0.0334  1.6139
37941SOL    HW218762   3.751   2.756   1.031 -2.3748  0.2427  0.4067
37942SOL     OW18763   4.792   7.560   3.951 -0.1489 -0.8421  0.6481
37942SOL    HW118764   4.741   7.480   3.941 -1.8312  0.0133  1.9090
37942SOL    HW218765   4.853   7.560   3.877 -1.0151 -2.6136 -0.1010
37943SOL     OW18766  10.834  11.513   0.138 -0.1387  0.3647 -0.0179
37943SOL    HW118767  10.773  11.547   0.073  0.1640  0.3425 -0.3132
37943SOL    HW218768  10.822  11.418   0.136  0.3169  0.3159 -0.4859
37944SOL     OW18769   3.742   0.475   2.182 -0.4549  0.0074 -0.2292
37944SOL    HW118770   3.671   0.424   2.221 -1.7501  0.1115 -2.3102
37944SOL    HW218771   3.800   0.494   2.255 -2.1594 -0.7457  1.4104
37945SOL     OW18772   1.066   8.630   4.616 -0.5785  0.3905  1.0228
37945SOL    HW118773   0.988   8.577   4.601 -0.1702 -0.1346  0.7061
37945SOL    HW218774   1.053   8.707   4.562 -0.9413  0.3706  1.0792
37946SOL     OW18775   0.546   4.331   9.574  0.3490  0.1000 -0.2786
37946SOL    HW118776   0.605   4.393   9.530 -0.6749  1.3493  0.0525
37946SOL    HW218777   0.460   4.372   9.568 -0.5507 -1.7565 -0.8988
37947SOL     OW18778   6.884   4.630   9.413  0.6380 -0.1128 -0.1623
37947SOL    HW118779   6.907   4.554   9.466  0.3868  0.3445  0.6220
37947SOL    HW218780   6.822   4.597   9.349  2.1901 -1.0243 -1.2631
37948SOL     OW18781   9.910   6.238   7.210  0.1345  0.5474  0.8364
37948SOL    HW118782   9.852   6.221   7.285 -1.9288 -1.0142 -0.9855
37948SOL    HW218783   9.865   6.304   7.159  0.7473  0.4492  0.1569
37949SOL     OW18784   0.254   1.109   9.482 -0.3022  0.0643 -0.2831
37949SOL    HW118785   0.211   1.120   9.397  1.2367  0.4180 -1.0442
37949SOL    HW218786   0.190   1.060   9.535 -1.5916  0.4837 -1.3823
37950SOL     OW18787   8.208   7.194   3.263 -0.3780  0.2088  0.4008
37950SOL    HW118788   8.194   7.276   3.311 -1.5433  0.0562  0.3519
37950SOL    HW218789   8.266   7.218   3.191 -0.0541  0.8119  0.8509
37951SOL     OW18790   4.605   2.242  10.015  0.2183 -0.1981  0.4985
37951SOL    HW118791   4.536   2.236  10.082 -1.7921  2.1870 -1.1419
37951SOL    HW218792   4.563   2.211   9.935  0.6811  2.1360 -0.7324
37952SOL     OW18793   9.368   0.099   9.399  0.1835 -0.2341  0.1040
37952SOL    HW118794   9.359   0.120   9.306 -0.9822  1.5820  0.5664
37952SOL    HW218795   9.281   0.117   9.436  1.0846  0.8375  1.8485
37953SOL     OW18796   2.768   3.012   2.305  0.7510 -0.0833  0.1931
37953SOL    HW118797   2.783   2.920   2.323  1.9171  0.1686  0.6293
37953SOL    HW218798   2.702   3.039   2.369  1.5903 -0.2496  1.1576
37954SOL     OW18799   9.533  10.860   4.746  0.1142  0.1835  0.3610
37954SOL    HW118800   9.613  10.887   4.790 -0.6604  0.1120  1.8924
37954SOL    HW218801   9.479  10.939   4.743 -1.2250 -0.5283  2.7650
37955SOL     OW18802   7.624   7.614   8.818  0.8316  0.2422  0.5770
37955SOL    HW118803   7.615   7.519   8.807  1.4114  0.3360 -0.8694
37955SOL    HW218804   7.635   7.648   8.730  0.4488  1.6962  1.0556
37956SOL     OW18805   7.631   8.182   2.286  0.1254  0.0065 -0.2625
37956SOL    HW118806   7.549   8.231   2.294  1.0312  1.3280  1.3498
37956SOL    HW218807   7.621   8.132   2.205 -1.7362  1.1391 -0.7782
37957SOL     OW18808   9.782   2.856   3.616  0.6265  0.2405  0.6098
37957SOL    HW118809   9.796   2.776   3.667 -1.7675  0.4192  1.6647
37957SOL    HW218810   9.731   2.913   3.673  1.6614  2.2796 -0.3850
37958SOL     OW18811   5.796   8.651   6.713  0.2709  0.6109  0.4616
37958SOL    HW118812   5.747   8.675   6.791 -0.6805 -0.2484  0.1441
37958SOL    HW218813   5.819   8.735   6.673  0.3105  1.0487  1.3619
37959SOL     OW18814   1.133   2.762  10.745 -0.2212  0.4122  0.1360
37959SOL    HW118815   1.185   2.711  10.807  0.5511  0.9441 -0.0630
37959SOL    HW218816   1.127   2.706  10.668  2.2221  1.3106 -0.7928
37960SOL     OW18817   2.705   6.681   0.199  0.2689  0.2366  0.1319
37960SOL    HW118818   2.792   6.719   0.194  0.0062  0.6653 -1.5646
37960SOL    HW218819   2.652   6.748   0.243  0.2865  0.9552 -0.9220
37961SOL     OW18820   7.982   0.053  10.820  0.0797 -0.0720  0.3839
37961SOL    HW118821   8.023  -0.028  10.790 -1.7047 -0.9333  0.1179
37961SOL    HW218822   7.969   0.105  10.741  0.9449  0.3481  0.5127
37962SOL     OW18823   0.520   2.918   3.381 -0.4482  0.2782 -0.3254
37962SOL    HW118824   0.604   2.894   3.342 -0.5896 -0.9250  0.0548
37962SOL    HW218825   0.465   2.840   3.369 -0.4679 -0.2269  2.2754
37963SOL     OW18826   2.849  10.484   3.534 -0.2279 -0.3504 -0.7205
37963SOL    HW118827   2.882  10.498   3.445  1.5349  1.8275  0.1992
37963SOL    HW218828   2.798  10.562   3.553  1.1681  0.2203  0.8941
37964SOL     OW18829   9.278   7.339   3.259 -0.2537 -0.0375 -0.0880
37964SOL    HW118830   9.353   7.324   3.317 -0.6842  0.6707  0.6822
37964SOL    HW218831   9.244   7.425   3.286 -2.0395 -0.8417  0.3755
37965SOL     OW18832   4.638   1.097   5.135 -0.1278 -0.3176  0.0669
37965SOL    HW118833   4.624   1.100   5.040 -0.8865  0.3965  0.1886
37965SOL    HW218834   4.631   1.189   5.163  1.1081 -0.3834  0.6818
37966SOL     OW18835   5.793   9.920  10.724 -0.5216  0.0740 -0.8504
37966SOL    HW118836   5.824   9.833  10.699  0.5063 -0.4410  1.9083
37966SOL    HW218837   5.864   9.979  10.700  1.0190 -0.5795  1.7375
37967SOL     OW18838   7.289   7.225   9.400  0.4885 -0.0898 -0.2121
37967SOL    HW118839   7.356   7.289   9.378  2.8454 -1.7618  1.6540
37967SOL    HW218840   7.326   7.141   9.374 -0.0178 -1.2687  2.5438
37968SOL     OW18841  10.561   6.518   9.043  0.0324 -0.0337 -1.0691
37968SOL    HW118842  10.642   6.477   9.072 -1.7694 -1.0860  3.2760
37968SOL    HW218843  10.587   6.605   9.013  2.8083 -0.5270 -0.3250
37969SOL     OW18844   2.855   2.342   2.572 -0.2561 -0.0872 -0.0362
37969SOL    HW118845   2.881   2.410   2.634  0.6127  0.3957 -0.9077
37969SOL    HW218846   2.775   2.376   2.532 -2.5487 -1.6781  2.8170
37970SOL     OW18847   6.347  11.249   8.014  0.2514 -0.3556  0.1542
37970SOL    HW118848   6.384  11.167   7.981  0.7011  0.2478 -0.8855
37970SOL    HW218849   6.371  11.251   8.106  0.3470 -1.3284  0.1599
37971SOL     OW18850   1.620   1.946   8.062 -0.3426 -0.1133  0.5994
37971SOL    HW118851   1.692   2.008   8.058 -0.6436  0.1862 -0.6976
37971SOL    HW218852   1.552   1.985   8.007 -0.6235 -1.4711 -0.0595
37972SOL     OW18853   8.092   5.681  11.283 -0.2285 -0.1698  0.6631
37972SOL    HW118854   8.115   5.683  11.190 -0.6638  0.0308  0.5586
37972SOL    HW218855   8.167   5.639  11.325  1.4693  2.6588  0.6651
37973SOL     OW18856   7.370   1.188   4.135  0.0799 -0.8263 -0.7901
37973SOL    HW118857   7.460   1.211   4.154  0.4727 -3.3137  0.8532
37973SOL    HW218858   7.317   1.251   4.184  0.9964 -1.2563  0.7893
37974SOL     OW18859   0.266   0.328   9.250  0.1413  0.3655  0.5350
37974SOL    HW118860   0.293   0.338   9.158 -0.3505  1.2335  0.4712
37974SOL    HW218861   0.180   0.286   9.245 -0.2555  1.1640  0.5544
37975SOL     OW18862   6.435   5.660  11.672 -0.2115  0.3289 -0.1845
37975SOL    HW118863   6.495   5.710  11.617  0.5730  1.9550  2.0127
37975SOL    HW218864   6.490   5.591  11.710  0.1249  1.2606  1.1081
37976SOL     OW18865   6.455   9.509  10.770 -0.1054 -0.1668 -0.3326
37976SOL    HW118866   6.522   9.573  10.794 -0.3672 -0.2376  0.5985
37976SOL    HW218867   6.400   9.501  10.847  1.2278 -3.2543  0.4453
37977SOL     OW18868   8.771   0.422   3.392 -0.7197 -0.4519 -0.1196
37977SOL    HW118869   8.863   0.405   3.370 -1.0590 -2.0951 -0.4203
37977SOL    HW218870   8.728   0.337   3.382 -1.7782 -0.3264  2.5444
37978SOL     OW18871   9.837   8.603   4.163 -0.2652 -0.1423  0.4267
37978SOL    HW118872   9.746   8.572   4.166 -0.3395 -0.0351 -0.4068
37978SOL    HW218873   9.889   8.525   4.181 -0.5062 -0.3415  0.2732
37979SOL     OW18874   1.495   7.649  11.122 -0.3937 -0.3849  0.0584
37979SOL    HW118875   1.425   7.707  11.094 -0.3271 -0.2672  0.1326
37979SOL    HW218876   1.462   7.609  11.203  0.1886  0.7500  0.8862
37980SOL     OW18877   3.401   3.496   2.176 -0.7610 -0.5359  0.5255
37980SOL    HW118878   3.312   3.528   2.158 -1.3565 -0.5053  3.1832
37980SOL    HW218879   3.429   3.545   2.253  3.3589  2.6320 -2.4972
37981SOL     OW18880   7.155   0.510   0.204  0.4026  0.0787 -0.0738
37981SOL    HW118881   7.063   0.485   0.192 -0.0171  1.3017  0.5413
37981SOL    HW218882   7.181   0.464   0.284  0.4384 -0.5256 -0.4205
37982SOL     OW18883   7.648  10.268   5.310  0.4679 -0.2691  0.5310
37982SOL    HW118884   7.735  10.228   5.302  1.5792  2.1903 -0.8564
37982SOL    HW218885   7.605  10.249   5.227  1.4645  2.1964 -0.6582
37983SOL     OW18886   8.270   4.007   4.646  0.2174 -0.3097 -0.1460
37983SOL    HW118887   8.215   3.931   4.665  2.0285 -1.6094  0.2497
37983SOL    HW218888   8.237   4.076   4.703 -0.6514 -1.1932  0.4491
37984SOL     OW18889   8.237  11.091  11.044  0.2231  0.1716  0.5214
37984SOL    HW118890   8.144  11.078  11.031 -0.0625  2.0609  0.3772
37984SOL    HW218891   8.244  11.180  11.080  1.8806 -0.3472  1.6245
37985SOL     OW18892   3.069  11.184   7.731  0.2882  0.3244  0.2021
37985SOL    HW118893   3.133  11.252   7.752  0.2483  0.1414  0.9483
37985SOL    HW218894   2.987  11.216   7.769  0.1069  0.2018 -0.0833
37986SOL     OW18895  10.173   4.285   5.861  0.0479 -0.0197 -0.3532
37986SOL    HW118896  10.241   4.304   5.926 -0.0116  0.9446 -0.5634
37986SOL    HW218897  10.114   4.224   5.905  0.0624  0.5468  0.4687
37987SOL     OW18898   2.258  10.420   2.950 -0.1840  0.0039  0.2613
37987SOL    HW118899   2.346  10.456   2.965  1.2629 -2.7496 -0.8377
37987SOL    HW218900   2.203  10.463   3.015  1.2588  4.1155 -0.9787
37988SOL     OW18901   6.787   9.215   7.866  0.3775  0.1473  0.2416
37988SOL    HW118902   6.716   9.152   7.878 -0.4837  0.6551 -1.8143
37988SOL    HW218903   6.771   9.281   7.934  0.9402 -1.4432  2.0197
37989SOL     OW18904   8.343   9.966   4.085  0.3663 -0.3354  0.2098
37989SOL    HW118905   8.418   9.993   4.138  1.0415 -0.6636 -0.5530
37989SOL    HW218906   8.293   9.908   4.141  0.5730  0.0517  0.8021
37990SOL     OW18907   4.734   5.937   1.080  0.2654  0.7204  0.4270
37990SOL    HW118908   4.815   5.886   1.081 -0.1090  0.1142  0.3490
37990SOL    HW218909   4.706   5.935   0.989 -1.2203 -1.3235  0.8644
37991SOL     OW18910   6.063  11.323   6.026 -0.6276  0.5015  0.3875
37991SOL    HW118911   6.043  11.230   6.015 -0.9006  0.6922 -0.8164
37991SOL    HW218912   6.136  11.325   6.087 -2.1674 -0.3870  2.3797
37992SOL     OW18913  10.592   5.722   3.821 -0.8027  0.6778 -0.1229
37992SOL    HW118914  10.609   5.634   3.787 -0.5153  1.2318 -1.4747
37992SOL    HW218915  10.676   5.767   3.813 -1.3880  1.6224 -1.2048
37993SOL     OW18916   9.345   4.222   1.872  0.5907  0.1304  0.2567
37993SOL    HW118917   9.266   4.168   1.871 -0.1338  1.1587 -0.0818
37993SOL    HW218918   9.366   4.233   1.965  0.6337 -0.5623  0.3305
37994SOL     OW18919   3.727   5.301   1.687 -0.6502  0.0671  0.2783
37994SOL    HW118920   3.786   5.263   1.751 -0.4474 -0.0660  0.0173
37994SOL    HW218921   3.781   5.314   1.609 -1.2526 -1.2398 -0.3919
37995SOL     OW18922   8.227   5.193   1.605  0.0891 -0.2045  0.2373
37995SOL    HW118923   8.264   5.155   1.525  0.2130 -1.6463  0.9655
37995SOL    HW218924   8.270   5.279   1.612 -0.6591  0.3998 -1.7542
37996SOL     OW18925   9.015  11.219   1.284  0.6557  0.0365  0.1046
37996SOL    HW118926   9.110  11.227   1.288  0.7691 -1.1482  0.2222
37996SOL    HW218927   8.996  11.135   1.326 -0.3034 -0.5126 -1.3465
37997SOL     OW18928   1.584   5.107  11.201 -0.3222 -0.2195  0.3666
37997SOL    HW118929   1.567   5.193  11.161  2.3392 -0.5659 -1.7955
37997SOL    HW218930   1.658   5.122  11.260 -0.1264 -0.9589  0.3188
37998SOL     OW18931   1.906   8.962  10.864 -0.4518 -0.4639 -0.1880
37998SOL    HW118932   1.954   9.041  10.891  1.7510 -2.3072  1.7059
37998SOL    HW218933   1.890   8.976  10.770  2.5366  0.9678 -0.6158
37999SOL     OW18934   6.697   8.737   1.707  0.3070 -0.1594 -0.3628
37999SOL    HW118935   6.718   8.758   1.798  0.7410 -0.3342 -0.4215
37999SOL    HW218936   6.696   8.822   1.663  2.1985 -0.2296 -0.6254
38000SOL     OW18937   8.465   1.002   1.469 -0.2296  0.1043 -0.2066
38000SOL    HW118938   8.417   0.967   1.394  1.1190  0.2211 -1.1564
38000SOL    HW218939   8.554   1.013   1.437  0.1504  1.0980  1.1325
38001SOL     OW18940   6.182   9.456   7.464  0.3259  0.3155  0.1050
38001SOL    HW118941   6.137   9.438   7.546  1.9404 -1.5233  0.6717
38001SOL    HW218942   6.133   9.407   7.398  0.7026 -0.6114  0.4975
38002SOL     OW18943   7.755   2.215  11.447 -0.2454 -0.6221  0.7522
38002SOL    HW118944   7.667   2.240  11.419  0.2677  0.7561  0.2813
38002SOL    HW218945   7.794   2.173  11.370  0.5196  1.4934 -0.0876
38003SOL     OW18946   3.171  11.126   4.876 -0.2890  0.1453  0.1890
38003SOL    HW118947   3.078  11.144   4.889 -0.2243 -0.1085  1.1037
38003SOL    HW218948   3.178  11.101   4.784 -1.3618 -1.1883  0.4250
38004SOL     OW18949   6.698   4.481   8.643 -0.3942 -0.0430 -0.0972
38004SOL    HW118950   6.656   4.445   8.720 -0.0165 -0.6960 -0.1923
38004SOL    HW218951   6.734   4.565   8.672 -0.3627 -0.2278  0.3969
38005SOL     OW18952   3.485  10.107   6.461 -0.0875  0.3950  0.1433
38005SOL    HW118953   3.504  10.191   6.503 -1.7410  0.2680  1.2713
38005SOL    HW218954   3.426  10.128   6.389  0.0797  0.2605 -0.0364
38006SOL     OW18955   6.920   1.527   0.469  0.3062 -0.0641 -0.0337
38006SOL    HW118956   6.970   1.535   0.388  2.5069 -3.6095  0.7544
38006SOL    HW218957   6.986   1.530   0.538 -1.0613 -0.7459  1.3607
38007SOL     OW18958   2.176   7.663  11.354 -0.2096  0.4371 -0.7141
38007SOL    HW118959   2.155   7.721  11.427 -0.5772  0.1102 -0.5567
38007SOL    HW218960   2.167   7.574  11.390 -1.3736  0.2533 -1.4024
38008SOL     OW18961   5.204  11.078   9.916 -0.2217  0.4487 -0.1821
38008SOL    HW118962   5.283  11.096   9.966 -0.5047  1.6142 -0.1392
38008SOL    HW218963   5.194  11.154   9.859 -1.0513  0.0894 -0.5298
38009SOL     OW18964   8.219   9.223  10.589  0.2779 -0.1234 -0.4749
38009SOL    HW118965   8.162   9.288  10.631  0.8849  0.9428 -1.2479
38009SOL    HW218966   8.162   9.148  10.574 -0.1699 -0.2276  1.4632
38010SOL     OW18967   1.143   5.536   3.106  0.0321 -0.5953  0.3701
38010SOL    HW118968   1.071   5.581   3.062  2.2445  2.0001 -0.9320
38010SOL    HW218969   1.203   5.512   3.035  1.1002 -1.4173  1.4997
38011SOL     OW18970   1.523   1.722   3.806  0.0918  0.0048  0.3814
38011SOL    HW118971   1.468   1.645   3.815  3.1048 -2.3990  0.0941
38011SOL    HW218972   1.537   1.732   3.712  0.6085  0.2207  0.4751
38012SOL     OW18973   1.337  10.366  11.642  0.3745 -0.2103  0.0497
38012SOL    HW118974   1.250  10.355  11.603 -0.4842  0.9537  1.5475
38012SOL    HW218975   1.374  10.278  11.643 -0.4757 -0.6119 -1.2781
38013SOL     OW18976  10.544   4.393   3.313 -0.6142 -0.0738  0.5246
38013SOL    HW118977  10.535   4.310   3.266 -1.4064 -0.4180  1.2718
38013SOL    HW218978  10.633   4.391   3.349 -0.3534 -0.2439 -0.1121
38014SOL     OW18979  10.603   4.061   1.139  0.2306 -0.1103 -0.5619
38014SOL    HW118980  10.579   4.120   1.068 -1.0470 -0.4881 -0.4841
38014SOL    HW218981  10.569   4.103   1.218 -1.1225 -1.1247 -0.5586
38015SOL     OW18982  10.792   2.668   7.924 -0.3065 -0.0662 -0.0209
38015SOL    HW118983  10.699   2.645   7.928 -0.6548  1.2098 -0.5020
38015SOL    HW218984  10.824   2.653   8.014 -1.1524  0.2356  0.3421
38016SOL     OW18985   5.712   8.034   8.175 -0.5278 -0.1440 -0.3131
38016SOL    HW118986   5.780   7.991   8.227 -0.2189 -0.3686 -0.8990
38016SOL    HW218987   5.737   8.126   8.173  0.4731 -0.4215 -1.6035
38017SOL     OW18988   4.846  11.147  10.188 -0.0332 -0.0308  0.1951
38017SOL    HW118989   4.796  11.179  10.263  0.5386 -0.3820  0.7377
38017SOL    HW218990   4.937  11.164  10.210  0.2593 -1.5965  0.3140
38018SOL     OW18991   9.700  11.217   8.735 -0.1711  0.0505  0.7395
38018SOL    HW118992   9.732  11.152   8.798 -1.7454 -0.6333  0.8845
38018SOL    HW218993   9.678  11.293   8.789 -1.9175 -0.6797  1.1447
38019SOL     OW18994   6.578   0.514   4.170  0.0806 -0.0875  0.5519
38019SOL    HW118995   6.579   0.561   4.253 -0.3664 -1.4107  1.3331
38019SOL    HW218996   6.640   0.443   4.182 -1.0069 -1.1220  0.2804
38020SOL     OW18997   1.385   5.366   3.131  0.2108  0.3878 -0.1290
38020SOL    HW118998   1.316   5.425   3.161  0.8269  0.2940  1.5895
38020SOL    HW218999   1.377   5.289   3.187  0.7140 -0.3014 -0.9791
38021SOL     OW19000   3.448   8.438   2.212  0.4370  0.6559 -0.1896
38021SOL    HW119001   3.396   8.490   2.272  1.1229  0.2971  0.7466
38021SOL    HW219002   3.421   8.467   2.125  0.8040  2.5747  0.2925
38022SOL     OW19003   1.872   3.708   2.524 -0.5226 -0.1594 -0.8283
38022SOL    HW119004   1.870   3.702   2.620 -1.4172 -1.9390 -0.9365
38022SOL    HW219005   1.792   3.755   2.501  0.0741  0.9747 -0.7010
38023SOL     OW19006   0.607   0.631   1.034  0.2780 -0.1303 -0.3206
38023SOL    HW119007   0.669   0.558   1.040  0.4803  0.0416 -0.3338
38023SOL    HW219008   0.558   0.628   1.116  0.7565  0.1466 -0.0214
38024SOL     OW19009  10.451  11.592   1.126  0.4520  0.4148 -0.2005
38024SOL    HW119010  10.494  11.512   1.157  0.8902  0.1453 -1.4453
38024SOL    HW219011  10.415  11.632   1.205 -1.1282 -1.7895  0.2851
38025SOL     OW19012   4.622   4.293  10.155 -0.3276 -0.1192  0.0821
38025SOL    HW119013   4.569   4.313  10.231 -1.5153 -1.7499 -0.2602
38025SOL    HW219014   4.669   4.374  10.136 -0.1825  0.3949  2.3671
38026SOL     OW19015   6.158   8.229   2.645  0.0235 -0.6775 -0.1025
38026SOL    HW119016   6.149   8.219   2.550 -0.6787  0.5469 -0.1964
38026SOL    HW219017   6.071   8.209   2.680 -1.1183  3.2727 -0.2095
38027SOL     OW19018   9.809   4.748   5.168 -0.0733 -0.4018  0.1022
38027SOL    HW119019   9.767   4.692   5.234 -1.7659 -0.9885 -1.3676
38027SOL    HW219020   9.749   4.822   5.158  0.2444 -0.2392 -0.6602
38028SOL     OW19021  11.149   1.336   3.839  0.2867  0.4048  0.1033
38028SOL    HW119022  11.159   1.374   3.752  1.4274  0.3590  0.2042
38028SOL    HW219023  11.231   1.289   3.854  0.2697  0.7594  1.3731
38029SOL     OW19024   8.503   1.736   2.769  0.5445  0.6307  0.0768
38029SOL    HW119025   8.483   1.818   2.815  0.6409 -0.1204  1.5013
38029SOL    HW219026   8.418   1.692   2.760  0.6957  0.2113  0.6603
38030SOL     OW19027   6.086   4.646   5.411 -0.0797  0.1508  0.1463
38030SOL    HW119028   6.122   4.559   5.426  0.5737  0.1613 -1.2243
38030SOL    HW219029   6.149   4.705   5.453 -1.0525 -0.0403  1.9894
38031SOL     OW19030   3.707  11.214   8.550 -0.0704  0.4929  0.3248
38031SOL    HW119031   3.698  11.130   8.505 -2.1352  1.4631 -1.1981
38031SOL    HW219032   3.801  11.234   8.546  0.1564 -0.7593 -1.1120
38032SOL     OW19033   5.736   7.459   4.815 -0.4857 -0.2318 -0.2900
38032SOL    HW119034   5.792   7.437   4.889 -0.3413 -0.0694 -0.3480
38032SOL    HW219035   5.750   7.388   4.752 -0.7410 -0.4582 -0.0908
38033SOL     OW19036  11.127   6.247   0.890 -0.7271  0.4017 -0.6076
38033SOL    HW119037  11.097   6.252   0.800 -0.0700 -1.0508 -0.9385
38033SOL    HW219038  11.208   6.196   0.886 -0.4712  0.6421  0.7591
38034SOL     OW19039   4.967   6.715   3.166  0.2159 -0.3080 -0.4261
38034SOL    HW119040   4.890   6.736   3.112  1.2781  0.4345 -1.7164
38034SOL    HW219041   4.969   6.619   3.168 -0.0555 -0.3485 -1.4161
38035SOL     OW19042   7.377   0.421   2.578  0.7650 -0.4967 -0.2486
38035SOL    HW119043   7.446   0.482   2.605  0.2635 -0.9983  2.5211
38035SOL    HW219044   7.299   0.449   2.626 -0.8542 -0.3546 -2.7934
38036SOL     OW19045   1.321   7.242   8.472 -0.0562  0.8069 -0.1422
38036SOL    HW119046   1.284   7.203   8.551 -1.4078 -0.4019 -1.3133
38036SOL    HW219047   1.380   7.176   8.437  0.8859  1.5147  0.0613
38037SOL     OW19048  11.016   1.915   1.013  0.5826  0.2700  0.1645
38037SOL    HW119049  11.043   1.948   0.927  1.3238  0.9134  0.6377
38037SOL    HW219050  11.036   1.986   1.074 -0.0040 -0.1532  0.8642
38038SOL     OW19051   0.743  10.727   8.181  0.1741 -0.0772 -0.1774
38038SOL    HW119052   0.830  10.761   8.202  1.0968 -2.6432  0.5900
38038SOL    HW219053   0.695  10.731   8.264  0.2350 -0.4260 -0.1212
38039SOL     OW19054   3.960   0.623   4.044 -0.0748  0.1656 -0.1938
38039SOL    HW119055   3.898   0.551   4.061 -1.8556  1.5124 -0.6601
38039SOL    HW219056   3.944   0.646   3.952  3.1065 -1.1935 -1.2327
38040SOL     OW19057   2.972   1.885   7.228  0.1532  0.0721 -0.1984
38040SOL    HW119058   2.989   1.887   7.134 -1.0962  0.4398 -0.4316
38040SOL    HW219059   3.040   1.828   7.263 -0.0031 -0.9307 -1.4650
38041SOL     OW19060   6.958   7.727   9.767 -0.4534  0.0899 -0.1554
38041SOL    HW119061   6.926   7.747   9.855 -0.4338 -0.1870 -0.0840
38041SOL    HW219062   6.880   7.729   9.712 -0.4241  0.5438 -0.1825
38042SOL     OW19063   8.885   9.598   6.519  0.3772  0.2029 -0.3016
38042SOL    HW119064   8.908   9.651   6.595  0.8205 -0.7157  0.2241
38042SOL    HW219065   8.966   9.552   6.496 -0.1416 -0.7142 -0.3500
38043SOL     OW19066   4.382   2.007  10.258 -0.2047 -0.1262 -0.5300
38043SOL    HW119067   4.286   2.000  10.251 -0.3011 -0.0633  0.4912
38043SOL    HW219068   4.400   2.100  10.245 -0.3750 -0.0048  0.0454
38044SOL     OW19069   7.823  10.879  10.271 -0.8244  0.0992 -0.0386
38044SOL    HW119070   7.880  10.874  10.347  1.0380  1.9700 -1.2065
38044SOL    HW219071   7.753  10.816  10.289 -0.2620  0.2169  3.0087
38045SOL     OW19072   1.636   6.336   4.964 -0.8906  0.2496  0.0872
38045SOL    HW119073   1.629   6.426   4.931 -1.5779 -0.4361 -1.7622
38045SOL    HW219074   1.548   6.314   4.993 -0.5856  0.3774  1.1199
38046SOL     OW19075   6.494   7.576   9.881 -0.3314 -0.0266 -0.3459
38046SOL    HW119076   6.485   7.492   9.835 -2.5966  0.4399 -0.8337
38046SOL    HW219077   6.463   7.557   9.970 -0.1437  0.1272 -0.2477
38047SOL     OW19078   2.904   9.857   3.598  0.0761 -0.2736 -0.1793
38047SOL    HW119079   2.817   9.822   3.618 -0.0684  0.7510  1.1824
38047SOL    HW219080   2.926   9.910   3.675  1.2076  0.8121 -1.2041
38048SOL     OW19081   1.760  10.740   7.182 -0.3759 -0.2072  0.2042
38048SOL    HW119082   1.727  10.761   7.269 -1.1179  1.0420 -0.3509
38048SOL    HW219083   1.726  10.653   7.163 -0.7695 -0.2070  0.9012
38049SOL     OW19084   6.859   6.804   3.610  0.0883 -0.2476 -0.5672
38049SOL    HW119085   6.916   6.763   3.676  0.6580  1.5779  0.1605
38049SOL    HW219086   6.775   6.814   3.654  0.0833 -0.2516 -0.5762
38050SOL     OW19087   0.085   6.622   8.282  0.2519 -0.0155  0.5703
38050SOL    HW119088   0.126   6.706   8.260  0.6912  0.2183  2.1640
38050SOL    HW219089   0.014   6.613   8.218 -0.3338  1.9783  0.8660
38051SOL     OW19090   2.724  11.229   0.258  0.0686 -0.0484 -0.1784
38051SOL    HW119091   2.709  11.210   0.350 -1.3808  1.7870  0.0416
38051SOL    HW219092   2.812  11.197   0.240 -0.2993 -2.0655  1.3500
38052SOL     OW19093   2.090   9.876   2.718  0.6540 -0.7208  0.0916
38052SOL    HW119094   2.181   9.848   2.717  1.2604  1.0572  1.1880
38052SOL    HW219095   2.093   9.971   2.705 -1.2622 -0.9224 -2.9841
38053SOL     OW19096   5.065   1.122   4.392 -0.2344  0.2166 -0.1532
38053SOL    HW119097   5.159   1.108   4.380 -0.1074  1.0507 -0.2264
38053SOL    HW219098   5.055   1.217   4.385 -0.8899  0.2637  1.2386
38054SOL     OW19099   4.528   7.730   8.810  0.4819  0.0531 -0.4024
38054SOL    HW119100   4.520   7.691   8.723  0.2057 -1.1275  0.1331
38054SOL    HW219101   4.437   7.747   8.836  0.5259 -0.2313 -0.0681
38055SOL     OW19102   7.889   6.561   9.768  0.4139 -0.2633  0.1558
38055SOL    HW119103   7.815   6.609   9.806  0.5672 -1.3727  1.9600
38055SOL    HW219104   7.949   6.630   9.740 -1.3187  0.6717 -1.5145
38056SOL     OW19105   7.010   8.151   1.422  0.6256 -0.1004 -0.2877
38056SOL    HW119106   6.921   8.139   1.457  1.0131  1.1784  1.2499
38056SOL    HW219107   7.026   8.071   1.371 -1.7208  0.0329 -1.3777
38057SOL     OW19108   2.375  10.561   2.111 -0.3812 -0.5446  0.1303
38057SOL    HW119109   2.418  10.490   2.064 -0.5880 -2.4545  2.6528
38057SOL    HW219110   2.400  10.549   2.202 -3.2942  0.4357  1.1936
38058SOL     OW19111  11.497   6.739   2.033 -0.0610  0.2655 -0.4505
38058SOL    HW119112  11.529   6.817   1.989 -0.8005  0.7165 -0.2172
38058SOL    HW219113  11.487   6.674   1.963 -0.5347  0.7448 -0.8366
38059SOL     OW19114  10.757   6.585   2.275  0.3021  0.2429 -0.6688
38059SOL    HW119115  10.742   6.537   2.356  1.5082 -1.2382 -1.2582
38059SOL    HW219116  10.830   6.644   2.295  1.0708 -0.6253 -0.8314
38060SOL     OW19117   4.350   2.316   9.078  0.1925  0.2414  0.4751
38060SOL    HW119118   4.366   2.225   9.103  2.3278  0.7787  1.2467
38060SOL    HW219119   4.293   2.350   9.146  0.0073 -0.3052  0.5965
38061SOL     OW19120   6.947   7.407   6.216  0.3838 -0.1228  0.4634
38061SOL    HW119121   6.968   7.469   6.146  0.1378 -1.3972 -0.7845
38061SOL    HW219122   6.938   7.462   6.294  1.2401  1.2759 -0.3676
38062SOL     OW19123   0.353   7.427   5.308 -0.0124 -0.2410  0.2246
38062SOL    HW119124   0.271   7.474   5.295 -0.5510 -1.2758 -0.1729
38062SOL    HW219125   0.418   7.496   5.319 -0.5369  0.6552 -1.7647
38063SOL     OW19126   5.837  11.138   8.824 -0.1058 -0.0387 -0.2614
38063SOL    HW119127   5.825  11.151   8.918 -1.2933  1.5348 -0.5849
38063SOL    HW219128   5.756  11.096   8.795  0.5242 -1.1317 -0.5076
38064SOL     OW19129  10.669   8.262   6.397  0.0916  0.1862  0.1021
38064SOL    HW119130  10.718   8.295   6.473  0.4542 -1.3247  0.5418
38064SOL    HW219131  10.734   8.218   6.343 -0.8294 -2.5920  1.1085
38065SOL     OW19132  10.138   2.209   1.932  0.0166  0.2733 -0.0885
38065SOL    HW119133  10.191   2.228   1.854  0.4973  1.1907  0.4368
38065SOL    HW219134  10.099   2.124   1.915  0.3729  0.3197 -1.1950
38066SOL     OW19135   5.232   1.521   1.624 -0.1708 -0.2180 -0.6915
38066SOL    HW119136   5.300   1.519   1.691  0.8049  2.5964 -1.4533
38066SOL    HW219137   5.166   1.581   1.658 -0.1861  0.4025 -1.7562
38067SOL     OW19138   9.807  11.078   0.282  0.2128  0.0885 -0.2450
38067SOL    HW119139   9.756  10.997   0.284 -0.3366  0.3507 -2.0215
38067SOL    HW219140   9.895  11.050   0.255 -0.2274  0.1491 -1.8686
38068SOL     OW19141   0.346   9.295   2.165 -0.0675  0.1553 -0.0902
38068SOL    HW119142   0.359   9.201   2.150  1.5310  0.1653  0.9125
38068SOL    HW219143   0.433   9.327   2.188 -0.4626  2.0236 -1.0086
38069SOL     OW19144   6.570   0.621   3.928  0.0400 -0.3889  0.0630
38069SOL    HW119145   6.504   0.587   3.868 -0.4077  1.2449 -0.4318
38069SOL    HW219146   6.560   0.570   4.008 -0.7030 -1.2584 -0.5815
38070SOL     OW19147   2.515   8.549   6.971 -0.0792 -0.0832  0.4087
38070SOL    HW119148   2.589   8.527   6.916 -1.0928 -0.1449 -0.9830
38070SOL    HW219149   2.487   8.465   7.009 -0.6780 -0.3909 -0.6829
38071SOL     OW19150   9.524   8.157   9.033  0.3766 -0.1194 -0.6945
38071SOL    HW119151   9.557   8.231   9.083  0.2094 -1.8702  2.2183
38071SOL    HW219152   9.602   8.115   8.996  0.6774  0.2231 -0.4424
38072SOL     OW19153   9.039   1.959   5.830 -0.4909  0.3976 -0.0238
38072SOL    HW119154   9.025   1.900   5.904 -0.2252  0.1949 -0.1273
38072SOL    HW219155   8.968   1.939   5.770 -0.1941 -0.0952 -0.2242
38073SOL     OW19156   2.709   7.034   6.144 -0.1529 -0.5742 -0.1554
38073SOL    HW119157   2.781   6.983   6.179 -1.0529 -1.0936  1.0190
38073SOL    HW219158   2.633   7.009   6.198 -1.4705 -0.9344 -2.0690
38074SOL     OW19159   9.811  10.128   9.714 -0.3872  0.2960 -0.8435
38074SOL    HW119160   9.747  10.160   9.778 -0.4931 -0.5684 -0.4930
38074SOL    HW219161   9.896  10.156   9.749 -0.4131 -0.4709 -0.1042
38075SOL     OW19162   5.028  11.148   7.859  0.1334 -0.1833 -0.5188
38075SOL    HW119163   5.123  11.156   7.869  0.2988 -1.0654 -1.2666
38075SOL    HW219164   5.005  11.072   7.913 -0.3214  0.6643  0.5233
38076SOL     OW19165   9.208   9.716  11.366 -0.2605 -0.8847 -0.0822
38076SOL    HW119166   9.158   9.797  11.378 -0.2012 -0.8043 -0.3680
38076SOL    HW219167   9.241   9.695  11.453  0.3526 -0.1935 -0.1373
38077SOL     OW19168   1.126   6.723  11.314 -0.3944 -0.3592  0.4491
38077SOL    HW119169   1.033   6.717  11.333 -1.4022  0.6629 -3.3999
38077SOL    HW219170   1.154   6.804  11.356 -1.7747  0.4445 -0.1221
38078SOL     OW19171   3.373   6.413   9.118 -0.1413 -0.3048 -0.1819
38078SOL    HW119172   3.311   6.470   9.072  1.3926  0.2856 -1.6122
38078SOL    HW219173   3.368   6.330   9.070  1.6416  0.3873 -1.6677
38079SOL     OW19174   3.410   7.419   9.953  0.6242  0.5431 -0.0170
38079SOL    HW119175   3.380   7.440   9.865 -1.4145 -2.9817 -0.3555
38079SOL    HW219176   3.342   7.454  10.011  1.5475  2.1328  0.1531
38080SOL     OW19177   2.111   8.521   5.765  0.2138  0.3472  0.2891
38080SOL    HW119178   2.059   8.480   5.834 -0.4398  1.0294  0.2215
38080SOL    HW219179   2.077   8.611   5.761 -0.2108  0.1299 -1.3657
38081SOL     OW19180   4.056   9.077   1.090 -0.0961 -0.0600 -0.1106
38081SOL    HW119181   4.001   9.155   1.103 -1.9764 -0.7995 -2.7725
38081SOL    HW219182   4.007   9.006   1.132  1.0257 -0.0701  1.2571
38082SOL     OW19183   9.060  10.996   2.352 -0.1112  0.7819 -0.0726
38082SOL    HW119184   8.966  11.005   2.337 -0.5727  0.6208  2.3453
38082SOL    HW219185   9.093  11.086   2.352  0.2057  0.7832 -2.9878
38083SOL     OW19186  10.983  10.310  11.441  0.1742  0.3830  0.7002
38083SOL    HW119187  10.892  10.338  11.451 -0.3907 -0.6360 -1.1711
38083SOL    HW219188  11.030  10.390  11.415 -0.7963  0.3689 -1.3154
38084SOL     OW19189   9.590  10.867   9.593 -0.0042  0.2901  0.7983
38084SOL    HW119190   9.504  10.853   9.554 -0.0433 -1.4521  1.4094
38084SOL    HW219191   9.575  10.860   9.687  0.3465  2.9522  1.1286
38085SOL     OW19192   0.324   7.957   8.676 -0.1434  0.4883  0.0138
38085SOL    HW119193   0.323   7.940   8.582  2.0131  2.2918 -0.4174
38085SOL    HW219194   0.407   7.919   8.706 -0.3764  0.7493  1.0233
38086SOL     OW19195   8.064  11.174   6.454  0.5384  0.0909 -0.2110
38086SOL    HW119196   8.111  11.118   6.393  1.4873  1.4672 -0.7843
38086SOL    HW219197   8.131  11.208   6.513  0.1481  1.4030 -0.4979
38087SOL     OW19198   6.808   8.788   0.900  0.7693  0.2742  0.0298
38087SOL    HW119199   6.858   8.723   0.949  0.5313 -0.3055 -0.4779
38087SOL    HW219200   6.841   8.872   0.930  0.9703 -0.0807  0.8130
38088SOL     OW19201   0.814   9.981   4.110 -0.6766  0.0359  0.8274
38088SOL    HW119202   0.848   9.994   4.198 -1.2463  1.4787  0.8704
38088SOL    HW219203   0.888   9.946   4.060  0.2748  1.1325  1.4135
38089SOL     OW19204  10.817   3.847   6.936  0.4325 -0.3022 -0.4026
38089SOL    HW119205  10.853   3.929   6.970  0.4551 -0.2262 -0.6079
38089SOL    HW219206  10.742   3.828   6.992  0.8860 -0.5423  0.1315
38090SOL     OW19207  10.588   7.291   0.677  0.4338 -0.8832  0.3658
38090SOL    HW119208  10.573   7.248   0.592 -0.2750 -0.2535  0.1555
38090SOL    HW219209  10.510   7.345   0.690  1.2209  0.2050  0.6985
38091SOL     OW19210   6.629   8.810   0.688 -0.1630  0.1187 -0.1339
38091SOL    HW119211   6.564   8.835   0.754  0.2703 -0.4735  0.5255
38091SOL    HW219212   6.710   8.797   0.737  0.0997 -0.6051 -0.7408
38092SOL     OW19213   7.081   5.057   3.975 -0.0293 -0.1245 -0.2701
38092SOL    HW119214   7.103   4.965   3.985  0.5855 -0.1854 -1.8862
38092SOL    HW219215   7.071   5.089   4.064 -0.0118 -1.6879  0.3250
38093SOL     OW19216   5.684   9.965  10.365 -0.3235  0.1913 -0.2122
38093SOL    HW119217   5.763  10.016  10.345 -1.7398  1.9829 -1.5953
38093SOL    HW219218   5.649  10.005  10.444  1.4776 -2.3380  2.0349
38094SOL     OW19219   3.584   0.754   0.458  0.4613 -0.8008  0.0550
38094SOL    HW119220   3.561   0.842   0.429  0.2559 -0.8726  0.0024
38094SOL    HW219221   3.668   0.765   0.504  0.1420 -0.4841  0.5692
38095SOL     OW19222   5.737   4.728  11.638  0.5594  0.3220  0.5115
38095SOL    HW119223   5.645   4.755  11.634  0.2483 -0.6624  0.7909
38095SOL    HW219224   5.758   4.732  11.732  0.4067 -0.7050  0.5974
38096SOL     OW19225   3.001   7.913   3.538  0.2253 -0.6962 -0.0671
38096SOL    HW119226   3.055   7.932   3.462 -0.8467 -0.4971 -0.8121
38096SOL    HW219227   3.050   7.847   3.587  1.6305  0.2673 -0.1271
38097SOL     OW19228   5.662   5.298   6.208  0.1338 -0.8896 -0.6697
38097SOL    HW119229   5.607   5.221   6.224  0.0729 -0.3957  2.0086
38097SOL    HW219230   5.601   5.365   6.177 -1.3345  0.1626  3.7823
38098SOL     OW19231   0.374   5.590   2.005  0.0742  0.3816 -0.4894
38098SOL    HW119232   0.311   5.546   2.062 -0.1455  0.8216 -0.3823
38098SOL    HW219233   0.448   5.530   2.000  0.7854  1.0055  1.5629
38099SOL     OW19234   7.189   5.729   0.343 -0.2597  0.2838  0.6026
38099SOL    HW119235   7.281   5.756   0.352 -0.4302  0.4064  2.1628
38099SOL    HW219236   7.183   5.648   0.393 -0.7191 -0.4638 -0.6060
38100SOL     OW19237   3.328   5.576   8.976 -0.4131  0.0830  0.3745
38100SOL    HW119238   3.267   5.517   9.021 -1.5339  0.2275 -0.8889
38100SOL    HW219239   3.373   5.622   9.047 -0.4141 -1.3717  1.3705
38101SOL     OW19240   0.707   2.033   3.643 -0.2468  0.2590  0.3099
38101SOL    HW119241   0.674   2.088   3.715 -0.0881  0.0366  0.5568
38101SOL    HW219242   0.785   1.991   3.680 -0.3672 -0.1297  0.1192
38102SOL     OW19243   2.018   4.283   4.296 -0.1912 -0.0022  0.0276
38102SOL    HW119244   1.939   4.309   4.250  0.8779  0.2351 -1.7511
38102SOL    HW219245   2.058   4.365   4.325  0.2527 -0.0014 -0.5655
38103SOL     OW19246  11.522   9.903   6.449 -0.0781  0.1951  0.3370
38103SOL    HW119247  11.455   9.952   6.400 -0.5860 -1.3707 -0.6217
38103SOL    HW219248  11.515   9.813   6.415  2.9797  0.0957 -0.2728
38104SOL     OW19249   2.730   6.468   6.552  0.0477  0.4833  0.7518
38104SOL    HW119250   2.657   6.437   6.606 -1.7016  1.8208 -0.7362
38104SOL    HW219251   2.745   6.397   6.490 -2.9623  1.7534 -1.6977
38105SOL     OW19252  11.413   6.562   1.255  0.2505 -0.1178  0.1454
38105SOL    HW119253  11.349   6.563   1.184  0.3814  1.1170  0.0141
38105SOL    HW219254  11.480   6.500   1.226  0.3128  0.3889 -0.8352
38106SOL     OW19255   9.400  10.584   8.114  0.0260  0.4550  0.3319
38106SOL    HW119256   9.357  10.581   8.029  0.9774  2.2503 -0.2624
38106SOL    HW219257   9.370  10.505   8.159 -1.6540  0.2305 -1.0906
38107SOL     OW19258   4.711   4.918   7.084  0.7298 -0.3691  0.1072
38107SOL    HW119259   4.774   4.918   7.157  0.4177 -1.8726  0.4149
38107SOL    HW219260   4.688   4.826   7.072 -3.2280  0.2471  1.5591
38108SOL     OW19261   1.698   5.468   2.962  0.0445  0.4551  0.3400
38108SOL    HW119262   1.644   5.403   2.916 -1.9265  1.2633  1.4073
38108SOL    HW219263   1.690   5.548   2.910  2.2795 -0.0015 -0.8424
38109SOL     OW19264   0.703   4.586   7.919  0.2717  0.1221  0.1289
38109SOL    HW119265   0.763   4.660   7.924 -0.2781  0.7366 -1.5684
38109SOL    HW219266   0.753   4.516   7.877 -0.0447  0.5073 -0.9268
38110SOL     OW19267   1.043   1.016   0.711  0.0103 -0.1936 -0.0460
38110SOL    HW119268   1.069   1.057   0.793 -1.3145  0.2751  0.1663
38110SOL    HW219269   0.961   1.059   0.687 -0.4841 -1.4573 -0.7624
38111SOL     OW19270   7.734   1.009   5.689  0.6399  0.4007  0.5277
38111SOL    HW119271   7.674   0.960   5.746 -0.3927 -0.4234 -1.1926
38111SOL    HW219272   7.814   1.017   5.741 -0.5228  0.4664  2.4261
38112SOL     OW19273  10.077   6.275   8.538 -0.1017  0.3299  0.1848
38112SOL    HW119274  10.145   6.227   8.492  0.7403  2.2196 -0.6498
38112SOL    HW219275  10.107   6.280   8.628  0.2769  0.1493  0.0687
38113SOL     OW19276  11.541   7.639   8.063 -0.0603  0.3424 -0.4661
38113SOL    HW119277  11.481   7.567   8.084 -1.1915  1.1327 -0.9400
38113SOL    HW219278  11.486   7.716   8.056  1.2012  1.3812  0.4991
38114SOL     OW19279   4.578   4.179   5.046 -0.2153  0.0944  0.2581
38114SOL    HW119280   4.666   4.146   5.030  0.2554  1.1560  0.5501
38114SOL    HW219281   4.522   4.101   5.048  0.8352 -0.6559  0.8383
38115SOL     OW19282   8.115   3.900  10.726 -0.0676 -0.1789 -0.2073
38115SOL    HW119283   8.123   3.992  10.750  1.8409 -0.7590  1.6679
38115SOL    HW219284   8.038   3.896  10.669 -2.4854  1.9829  2.6454
38116SOL     OW19285   4.069   9.593   6.408 -0.3350  0.5689  0.3254
38116SOL    HW119286   3.974   9.601   6.412 -0.6000  0.8882 -3.1777
38116SOL    HW219287   4.098   9.672   6.361  1.5340 -0.0868  0.2636
38117SOL     OW19288   6.222   4.419   4.668  0.5682 -0.3791  0.2038
38117SOL    HW119289   6.156   4.482   4.697  0.2776 -0.5722 -0.0479
38117SOL    HW219290   6.184   4.333   4.687 -0.5522 -0.6110 -2.6828
38118SOL     OW19291   0.590   9.734   1.818 -0.1876 -0.4853 -0.1226
38118SOL    HW119292   0.681   9.741   1.847  0.0594  0.2342 -1.0237
38118SOL    HW219293   0.571   9.640   1.821  0.7147 -0.6851 -0.3167
38119SOL     OW19294   3.253   2.032   2.093  0.2649 -0.4278 -0.0925
38119SOL    HW119295   3.201   2.027   2.013 -1.7950 -1.8288  1.2634
38119SOL    HW219296   3.236   2.120   2.127 -1.9179 -1.1109  0.7193
38120SOL     OW19297   3.426   8.403  11.202 -0.5980 -0.1898  0.1505
38120SOL    HW119298   3.514   8.387  11.167 -0.2327 -1.2653  1.5026
38120SOL    HW219299   3.427   8.364  11.289 -2.1778  0.4892  0.5055
38121SOL     OW19300  10.793  10.971  11.530 -0.0041 -0.6398 -0.6186
38121SOL    HW119301  10.727  11.037  11.509  1.3141  0.7623 -0.4520
38121SOL    HW219302  10.745  10.905  11.580 -1.5990 -0.4219 -1.7799
38122SOL     OW19303   5.598   4.757   8.581  0.2858 -0.0675 -0.0908
38122SOL    HW119304   5.674   4.809   8.555 -1.8266  2.5921 -1.3556
38122SOL    HW219305   5.548   4.815   8.638 -1.8773 -0.9226 -1.0467
38123SOL     OW19306   2.992   5.183  11.427 -0.3221 -0.6028 -0.5085
38123SOL    HW119307   3.042   5.222  11.355  0.0165  0.4629  0.2800
38123SOL    HW219308   3.055   5.126  11.471 -0.2554 -0.5073 -0.4803
38124SOL     OW19309   2.354   9.956   6.430  0.1223  0.1914  0.1325
38124SOL    HW119310   2.299   9.878   6.423  1.2978 -0.6389 -0.1534
38124SOL    HW219311   2.319  10.004   6.505  0.2349 -1.3055  1.1683
38125SOL     OW19312   2.532   3.640   8.810  0.1793  0.8676  0.0777
38125SOL    HW119313   2.446   3.604   8.788  1.3469 -1.8438 -0.5388
38125SOL    HW219314   2.594   3.574   8.779  2.5221  2.8365  0.2632
38126SOL     OW19315   2.749   0.321   6.825  0.2964 -0.2916 -0.1484
38126SOL    HW119316   2.755   0.345   6.918  0.5386 -0.6999 -0.0551
38126SOL    HW219317   2.823   0.367   6.784  0.7452 -0.8428  0.0255
38127SOL     OW19318  10.762   7.956   2.116  0.1557 -0.4426 -0.4241
38127SOL    HW119319  10.765   8.048   2.140 -0.4669 -0.4967 -0.1281
38127SOL    HW219320  10.770   7.955   2.020  0.8664 -0.1257 -0.3715
38128SOL     OW19321   2.960   9.376   4.655 -0.3317  0.2408 -0.6218
38128SOL    HW119322   3.051   9.374   4.626 -0.0469  1.4323  0.1408
38128SOL    HW219323   2.965   9.401   4.747 -1.3848 -0.6145 -0.3145
38129SOL     OW19324   6.393   9.368   2.056 -0.1093 -0.1884 -0.5900
38129SOL    HW119325   6.361   9.351   1.968  0.1910  1.5562 -1.0735
38129SOL    HW219326   6.487   9.386   2.045  0.0444 -0.4655  0.1637
38130SOL     OW19327   9.922   8.840  11.622 -0.4119  0.0267 -0.0191
38130SOL    HW119328   9.910   8.767  11.562 -0.5047  0.8695 -1.0657
38130SOL    HW219329   9.898   8.917  11.570  3.7289  1.2843 -0.4410
38131SOL     OW19330  10.732   3.220   8.083 -0.2522  0.2285  0.6204
38131SOL    HW119331  10.688   3.135   8.078 -0.3601  0.3487 -2.8335
38131SOL    HW219332  10.825   3.199   8.087 -0.2562  0.0436  4.5744
38132SOL     OW19333   2.484  10.335   4.222 -0.9199 -0.2843 -0.2551
38132SOL    HW119334   2.424  10.279   4.272  1.1547 -1.2377  1.3361
38132SOL    HW219335   2.567  10.286   4.222  0.0532  1.2677 -1.7929
38133SOL     OW19336   9.541   6.473   4.869  0.2710  0.4257 -0.2734
38133SOL    HW119337   9.589   6.496   4.789  0.1852  0.3370 -0.3506
38133SOL    HW219338   9.507   6.385   4.853  0.2751  0.3968 -0.1287
38134SOL     OW19339   3.499   6.789   2.207 -0.7541 -0.0416  0.3588
38134SOL    HW119340   3.504   6.831   2.121 -2.4385  0.8156  0.6322
38134SOL    HW219341   3.518   6.697   2.190  1.4282  0.4953 -0.5104
38135SOL     OW19342   1.052   0.833   8.152  0.0601 -0.1476  0.7732
38135SOL    HW119343   1.120   0.823   8.218 -0.0078  0.5823  0.9541
38135SOL    HW219344   0.975   0.863   8.200 -0.2715 -0.5532  0.5062
38136SOL     OW19345  10.300   4.418   3.028  0.5535 -0.0750 -0.2909
38136SOL    HW119346  10.301   4.327   3.059  2.5793 -0.1368 -0.3830
38136SOL    HW219347  10.279   4.412   2.935  0.7170 -0.4513 -0.3047
38137SOL     OW19348   9.354   9.636   5.364  0.3716 -0.1779  0.1634
38137SOL    HW119349   9.313   9.664   5.282 -0.8378 -1.2006  0.3930
38137SOL    HW219350   9.403   9.713   5.393 -0.0794  0.5635 -0.9533
38138SOL     OW19351   6.240  11.201   2.722  0.2100  0.3937  0.0437
38138SOL    HW119352   6.241  11.107   2.736  0.5556  0.4108  0.1582
38138SOL    HW219353   6.151  11.221   2.696  0.1390  0.0321  0.0066
38139SOL     OW19354   6.450  11.366   5.723 -0.1303 -0.4655  0.1689
38139SOL    HW119355   6.393  11.324   5.659  0.4872  0.1070 -0.7761
38139SOL    HW219356   6.451  11.306   5.798  1.0694 -2.3677 -1.2790
38140SOL     OW19357  10.842   5.332  11.392 -0.0921  0.4732 -0.6096
38140SOL    HW119358  10.843   5.322  11.297 -1.7720 -0.0532 -0.6113
38140SOL    HW219359  10.764   5.283  11.420  0.8466 -0.1075  1.1233
38141SOL     OW19360   3.717   3.961   2.806 -0.0461  0.2039 -0.1285
38141SOL    HW119361   3.621   3.958   2.811 -0.0821 -0.1209 -0.9095
38141SOL    HW219362   3.737   4.055   2.805 -0.4971  0.3189 -2.0654
38142SOL     OW19363   0.808   4.229   9.746 -0.2884 -0.0631 -0.4425
38142SOL    HW119364   0.723   4.193   9.773 -0.5159  0.1519 -0.8580
38142SOL    HW219365   0.809   4.317   9.783 -0.0895 -0.1942 -0.1319
38143SOL     OW19366   1.532  11.341   0.384  0.3370  0.1393  0.2917
38143SOL    HW119367   1.527  11.367   0.476  0.7195 -0.1317  0.3900
38143SOL    HW219368   1.504  11.419   0.335  1.2344  0.6563  0.5861
38144SOL     OW19369  11.270   4.386   2.500 -0.0626  0.0140 -0.6873
38144SOL    HW119370  11.197   4.367   2.442  0.9307  1.5946 -2.5701
38144SOL    HW219371  11.235   4.448   2.564 -0.5467  0.1970 -1.1226
38145SOL     OW19372   1.342   4.386   9.404  0.0768  0.8205  0.1222
38145SOL    HW119373   1.300   4.392   9.490 -0.3184  1.3151 -0.0985
38145SOL    HW219374   1.341   4.475   9.371 -0.0783  0.5825 -0.5353
38146SOL     OW19375  10.554   0.961  11.594  1.0794 -0.5926 -0.3472
38146SOL    HW119376  10.568   0.877  11.550 -0.8043 -1.8177  1.1890
38146SOL    HW219377  10.573   1.026  11.528  1.9287 -2.2507 -1.8226
38147SOL     OW19378   3.149   2.227   8.404 -0.0586 -0.1822 -0.2689
38147SOL    HW119379   3.097   2.149   8.386  0.7909 -1.1572  1.2805
38147SOL    HW219380   3.239   2.196   8.408  0.2071  0.6757  1.3167
38148SOL     OW19381   7.836  10.367   5.731  0.2318 -0.6239 -0.2987
38148SOL    HW119382   7.876  10.453   5.721  0.1979 -0.6502 -0.7133
38148SOL    HW219383   7.900  10.306   5.692  0.2936 -0.7953  0.0661
38149SOL     OW19384   4.920   9.417   4.864 -0.0607  0.5462 -0.3580
38149SOL    HW119385   4.865   9.427   4.941  1.6203 -0.6250  1.0667
38149SOL    HW219386   4.972   9.497   4.860 -0.8761  1.0661 -0.9289
38150SOL     OW19387   9.322   3.373  10.586  0.5105  0.0312  0.5044
38150SOL    HW119388   9.280   3.445  10.538  0.9688  0.0382  0.1069
38150SOL    HW219389   9.263   3.299  10.575  1.0686 -0.2340 -0.8935
38151SOL     OW19390   0.393   6.121   5.898  0.1930 -0.3950  0.1200
38151SOL    HW119391   0.424   6.148   5.812 -0.1334 -1.1775 -0.2560
38151SOL    HW219392   0.462   6.064   5.931  2.1441  2.8270  2.0390
38152SOL     OW19393   4.745  10.411   1.591 -0.1152 -0.0089  0.1009
38152SOL    HW119394   4.796  10.336   1.621  1.1171  0.5348 -0.5889
38152SOL    HW219395   4.780  10.432   1.504 -1.8710  0.0546 -0.6456
38153SOL     OW19396   0.466   5.143   1.585  0.0319  0.1645  0.6171
38153SOL    HW119397   0.558   5.123   1.567  0.7396  0.2915  3.5735
38153SOL    HW219398   0.417   5.088   1.525  2.0484 -1.2406  0.1662
38154SOL     OW19399   9.063   7.218  10.540 -0.4463  0.0717 -0.3115
38154SOL    HW119400   9.105   7.283  10.596  0.6765 -1.1154  0.2755
38154SOL    HW219401   8.984   7.193  10.589 -0.8788  0.9521 -0.5344
38155SOL     OW19402  11.359   0.583   8.030 -0.0148  0.0665  0.6262
38155SOL    HW119403  11.378   0.662   7.980 -0.8247 -1.0753 -1.6544
38155SOL    HW219404  11.438   0.530   8.023 -0.6241 -0.7263 -0.8437
38156SOL     OW19405   1.585   5.249   6.197 -0.0055  0.1576  0.4978
38156SOL    HW119406   1.607   5.211   6.282  1.4923  0.0083  0.0786
38156SOL    HW219407   1.578   5.343   6.213  2.5728  0.4258  0.4137
38157SOL     OW19408   6.418   2.662   3.024 -0.0175 -0.2040 -0.4325
38157SOL    HW119409   6.479   2.691   2.956 -0.6018 -0.7976 -1.2339
38157SOL    HW219410   6.465   2.676   3.106 -0.4724  3.5608 -0.6575
38158SOL     OW19411   1.347   3.968   9.322 -0.1224  0.0535  0.6199
38158SOL    HW119412   1.277   4.005   9.268 -0.8059  1.1052  2.1567
38158SOL    HW219413   1.346   3.874   9.301  0.4066  0.5460 -1.9967
38159SOL     OW19414   3.480   6.815  11.478  0.0030  0.3009 -0.2000
38159SOL    HW119415   3.500   6.750  11.545 -0.3197 -1.0215 -1.3502
38159SOL    HW219416   3.385   6.825  11.482  0.0224  0.5015 -0.2175
38160SOL     OW19417   4.858   4.474   6.920 -0.0932 -0.6456 -0.4145
38160SOL    HW119418   4.940   4.512   6.952  0.0952 -0.3603 -1.1997
38160SOL    HW219419   4.793   4.543   6.931 -0.0623 -0.6052 -0.4795
38161SOL     OW19420   5.109  10.191   9.252 -0.1241  0.6742  0.1696
38161SOL    HW119421   5.118  10.113   9.307 -0.8764  0.9449  0.6939
38161SOL    HW219422   5.031  10.173   9.198  0.1624  0.7332 -0.2715
38162SOL     OW19423   5.040   7.831   0.838  0.4078  0.4974  0.2939
38162SOL    HW119424   5.079   7.917   0.852  0.8642  0.2137  0.8530
38162SOL    HW219425   5.112   7.777   0.805 -0.2396  0.6978 -1.5226
38163SOL     OW19426   6.304   2.477  11.223  0.1163 -0.2711 -0.0632
38163SOL    HW119427   6.333   2.394  11.186  1.4561  0.2364 -0.1934
38163SOL    HW219428   6.241   2.511  11.159  1.4724  0.0048 -1.2865
38164SOL     OW19429   5.809   3.015  11.048 -0.1057 -0.0489 -0.3343
38164SOL    HW119430   5.899   2.993  11.070 -0.0453  0.3789 -0.1293
38164SOL    HW219431   5.788   2.961  10.972  1.8988  3.1881 -3.4840
38165SOL     OW19432   8.138   4.133   7.852  0.3219  0.0090  0.0650
38165SOL    HW119433   8.058   4.186   7.848  0.4163  0.1337 -0.2103
38165SOL    HW219434   8.118   4.055   7.799  0.7551  0.5499 -0.9164
38166SOL     OW19435   2.421   8.348  10.872 -0.1484  0.3422  0.1748
38166SOL    HW119436   2.481   8.421  10.887  1.1248 -0.5790 -0.2520
38166SOL    HW219437   2.350   8.360  10.936 -0.0405  2.0107  0.0063
38167SOL     OW19438   3.944   5.735   0.805 -0.0992 -0.2578  0.4368
38167SOL    HW119439   4.035   5.710   0.822 -0.3877 -0.7864  1.2776
38167SOL    HW219440   3.917   5.680   0.732  0.2841 -0.0157  0.1045
38168SOL     OW19441  11.318   0.297  10.907  0.1867  0.5717  0.0937
38168SOL    HW119442  11.268   0.242  10.968  1.0039  1.7229  1.8749
38168SOL    HW219443  11.287   0.270  10.820 -0.0899 -2.0668  0.8984
38169SOL     OW19444   2.132   4.099   6.485  0.0368  0.0280  0.2429
38169SOL    HW119445   2.069   4.167   6.509 -0.1541 -0.1276  0.1911
38169SOL    HW219446   2.180   4.080   6.565  0.0683  0.2026  0.2641
38170SOL     OW19447   0.600   3.745   6.398 -0.5916  0.0201 -0.0724
38170SOL    HW119448   0.550   3.816   6.359  0.0448  1.0710  0.9768
38170SOL    HW219449   0.564   3.666   6.358 -0.7659  0.9573 -1.8698
38171SOL     OW19450   0.426   4.163   2.637 -0.4413  0.1696  0.3270
38171SOL    HW119451   0.405   4.075   2.667  0.7623 -0.1131  0.4121
38171SOL    HW219452   0.416   4.159   2.542 -1.2286  0.1868  0.4088
38172SOL     OW19453   6.985  10.769   2.157 -0.0347 -0.4088  0.5560
38172SOL    HW119454   7.075  10.792   2.138 -0.4688  0.1279 -1.0422
38172SOL    HW219455   6.962  10.821   2.234  0.9085 -0.3135  0.7823
38173SOL     OW19456   7.705   1.153   9.239 -0.3502  0.4239  0.1929
38173SOL    HW119457   7.682   1.157   9.332 -1.3805 -2.4090  0.1560
38173SOL    HW219458   7.654   1.080   9.204  0.7712  0.7404 -2.4076
38174SOL     OW19459   5.031   8.730   3.008 -0.2809 -0.4138 -0.1844
38174SOL    HW119460   5.080   8.733   2.927 -1.2654  0.5242 -0.7747
38174SOL    HW219461   5.041   8.818   3.046 -0.1425 -0.7258  0.5182
38175SOL     OW19462   2.714   0.044   5.079 -0.0688 -0.2053  0.0972
38175SOL    HW119463   2.696   0.101   5.153  1.0034  0.0462  0.1868
38175SOL    HW219464   2.726   0.103   5.005 -0.7157 -0.4310 -0.1949
38176SOL     OW19465   3.775   1.190   1.470 -0.1648  0.3487  0.0556
38176SOL    HW119466   3.746   1.121   1.411  1.8684 -1.4622  1.0439
38176SOL    HW219467   3.759   1.271   1.421 -1.8593 -0.8378 -1.4800
38177SOL     OW19468   0.386   8.426   7.792  0.1715  0.5229  0.5942
38177SOL    HW119469   0.308   8.377   7.818  0.5391  0.6247  1.9470
38177SOL    HW219470   0.366   8.457   7.704 -1.0685  0.0451  0.6848
38178SOL     OW19471   0.667   6.858   9.874 -0.0320 -0.6194 -1.1190
38178SOL    HW119472   0.746   6.858   9.929 -0.1708 -1.0317 -0.9138
38178SOL    HW219473   0.700   6.844   9.785  0.1060 -1.1258 -0.9932
38179SOL     OW19474   9.796   0.577  11.099 -0.2480  0.3422 -0.4392
38179SOL    HW119475   9.822   0.636  11.170 -0.7927 -0.7192  0.6866
38179SOL    HW219476   9.869   0.515  11.093  0.3918  1.1669 -1.7214
38180SOL     OW19477   6.660  10.512   6.073  0.2480 -0.0603 -0.6339
38180SOL    HW119478   6.736  10.561   6.105 -0.3993  0.7178 -0.2575
38180SOL    HW219479   6.614  10.485   6.153 -0.8063  0.9843 -0.8527
38181SOL     OW19480   5.771  11.460   7.878 -0.6299 -0.1466  0.3333
38181SOL    HW119481   5.783  11.387   7.940 -0.0324 -1.8089 -1.6116
38181SOL    HW219482   5.679  11.483   7.886 -0.5699 -0.3283  1.8192
38182SOL     OW19483   8.504   8.102  11.096 -0.2386 -0.3887  0.2515
38182SOL    HW119484   8.541   8.044  11.162 -3.8583 -0.0929  2.8808
38182SOL    HW219485   8.489   8.046  11.020  0.0078 -1.9142  1.2913
38183SOL     OW19486   2.719   1.216   3.964 -0.0571 -0.6640 -0.5657
38183SOL    HW119487   2.643   1.159   3.976  0.2799 -2.0426 -3.9002
38183SOL    HW219488   2.690   1.280   3.899  0.7794  0.6449  0.3015
38184SOL     OW19489   5.511   2.003   7.872  0.1018 -0.0613  0.1919
38184SOL    HW119490   5.583   2.066   7.862  0.9010 -0.1157  4.0143
38184SOL    HW219491   5.555   1.918   7.876 -0.5349 -0.4322 -0.5147
38185SOL     OW19492   3.295   0.346   6.762  0.1955  0.5955  0.1264
38185SOL    HW119493   3.285   0.255   6.788  0.8735  0.2507 -0.7377
38185SOL    HW219494   3.247   0.396   6.828  0.8040 -0.3022  1.2894
38186SOL     OW19495   3.259  10.224   8.223  0.3456  0.1008  0.3659
38186SOL    HW119496   3.169  10.252   8.239 -0.3599 -0.6158 -1.9224
38186SOL    HW219497   3.289  10.280   8.151  0.8537 -1.2727 -0.5282
38187SOL     OW19498  11.577   3.779   3.866 -0.3907 -0.3656 -0.8256
38187SOL    HW119499  11.578   3.857   3.810  0.2322 -0.3667 -0.8284
38187SOL    HW219500  11.656   3.731   3.842  0.3057  0.0212  0.5789
38188SOL     OW19501   7.523   3.545  10.786 -0.3815  0.2531 -0.3721
38188SOL    HW119502   7.449   3.529  10.728  0.7194  0.8512 -1.9889
38188SOL    HW219503   7.585   3.476  10.765 -0.5436 -0.4112  1.1740
38189SOL     OW19504   0.490   1.824   1.747  0.1733 -0.1369 -0.0503
38189SOL    HW119505   0.519   1.900   1.797  0.2608  0.4167 -0.9053
38189SOL    HW219506   0.397   1.815   1.767  0.2134  0.0644  0.2243
38190SOL     OW19507   7.561   1.909   3.235 -0.1624  0.2548  0.2630
38190SOL    HW119508   7.540   1.848   3.307  0.6841 -0.0851  0.2295
38190SOL    HW219509   7.576   1.993   3.279 -1.7239  0.5681  0.2751
38191SOL     OW19510   2.258   8.132   6.839 -0.5567  0.2943 -0.0137
38191SOL    HW119511   2.181   8.132   6.896  0.5148 -1.6508  1.5296
38191SOL    HW219512   2.261   8.044   6.802 -0.0860  0.9160 -1.5332
38192SOL     OW19513   0.811  11.444   8.012  0.0470  0.3007 -0.0440
38192SOL    HW119514   0.752  11.512   7.981  0.4814  0.4152 -0.6403
38192SOL    HW219515   0.760  11.363   8.005 -0.3665  0.5182  0.3848
38193SOL     OW19516   8.413   7.776  10.652 -0.4295  0.3140 -0.3889
38193SOL    HW119517   8.372   7.859  10.627 -0.3037  0.5776  0.2860
38193SOL    HW219518   8.339   7.714  10.656 -0.4108  0.1734 -1.7609
38194SOL     OW19519   7.097   0.557   6.909 -1.5037 -0.7524  0.0781
38194SOL    HW119520   7.111   0.482   6.966  0.4978 -0.1403  0.4502
38194SOL    HW219521   7.066   0.626   6.967 -1.1600 -0.6382  0.1263
38195SOL     OW19522   0.567   4.984   8.155  0.1076 -0.1989 -0.2328
38195SOL    HW119523   0.598   5.047   8.220 -2.9109  0.8103  0.3679
38195SOL    HW219524   0.527   5.037   8.087 -1.7561 -1.3729 -0.1233
38196SOL     OW19525  11.635   0.819   9.156  0.0770 -0.3531 -0.2141
38196SOL    HW119526  11.617   0.794   9.246 -1.0398 -1.0864 -0.6221
38196SOL    HW219527  11.563   0.780   9.105  1.0278 -0.5029 -1.4954
38197SOL     OW19528   3.906   3.348   5.960 -0.0131 -0.0702  0.3409
38197SOL    HW119529   3.955   3.397   6.026  0.8371 -0.3834 -0.0287
38197SOL    HW219530   3.906   3.258   5.992  1.7966 -0.5423 -0.7914
38198SOL     OW19531   1.027  11.612  10.695  0.1183 -0.4083 -0.3492
38198SOL    HW119532   0.991  11.648  10.776 -0.4010  2.0985 -1.6042
38198SOL    HW219533   1.005  11.519  10.699 -0.7847 -0.1712  1.9042
38199SOL     OW19534   7.613   1.798   0.414 -0.0954 -0.1782  0.5768
38199SOL    HW119535   7.585   1.720   0.461  0.0388  0.0108  0.9702
38199SOL    HW219536   7.666   1.765   0.341 -0.3001 -0.4674  0.5584
38200SOL     OW19537   6.463   2.182   5.777 -0.4115 -0.5565  0.2218
38200SOL    HW119538   6.499   2.194   5.865  1.5354 -0.4699 -0.5464
38200SOL    HW219539   6.483   2.090   5.755 -0.9757 -0.6097 -0.0946
38201SOL     OW19540   1.122  10.994   7.892 -0.0829 -0.0752  0.8041
38201SOL    HW119541   1.188  11.057   7.920 -0.3371  1.9994 -2.6624
38201SOL    HW219542   1.167  10.938   7.828 -0.7890 -1.0748  1.1561
38202SOL     OW19543   6.926   3.494   5.060  0.1231  0.0446  0.0340
38202SOL    HW119544   6.885   3.414   5.027  2.4938 -1.5472  0.6846
38202SOL    HW219545   6.980   3.465   5.134  2.5080  1.8912 -0.8325
38203SOL     OW19546   2.647  11.162   5.677  0.0247  1.1654  0.7460
38203SOL    HW119547   2.633  11.134   5.586 -0.8462  3.7249  0.0022
38203SOL    HW219548   2.622  11.086   5.730  1.2909 -0.6866 -1.1097
38204SOL     OW19549   8.158   7.676   7.790 -0.4020 -0.1274  0.1582
38204SOL    HW119550   8.222   7.734   7.750  0.6111 -1.1432  0.2522
38204SOL    HW219551   8.095   7.657   7.721  0.0252 -0.0155 -0.2634
38205SOL     OW19552   1.944  11.610   1.821  0.0389 -0.0856  0.1887
38205SOL    HW119553   1.952  11.515   1.825 -0.3304 -0.1063  0.7284
38205SOL    HW219554   2.016  11.643   1.875 -0.3695 -0.0928  0.7439
38206SOL     OW19555   9.251   7.300   9.584  0.1597 -0.1986 -0.0412
38206SOL    HW119556   9.198   7.362   9.536 -0.7480 -1.0008 -0.1099
38206SOL    HW219557   9.205   7.216   9.575  1.4192 -0.9214 -0.0915
38207SOL     OW19558   6.662   6.692   1.568  0.0921 -0.1395  0.1911
38207SOL    HW119559   6.703   6.776   1.550  1.0371 -0.8542 -1.1264
38207SOL    HW219560   6.589   6.687   1.506  0.2280 -0.4342  0.0560
38208SOL     OW19561   6.518   3.858   6.245 -0.7297 -0.0546 -0.3038
38208SOL    HW119562   6.602   3.839   6.286 -0.2702 -0.3433 -1.3525
38208SOL    HW219563   6.460   3.787   6.272 -0.9093  0.5962  1.1242
38209SOL     OW19564   7.812   4.373   0.155 -1.0163 -0.6412 -0.6694
38209SOL    HW119565   7.745   4.441   0.149 -0.5150 -0.1619 -0.8619
38209SOL    HW219566   7.868   4.401   0.227 -1.5188 -1.4945  0.0825
38210SOL     OW19567   6.409  10.537   3.111  0.2615  0.0101 -0.0484
38210SOL    HW119568   6.328  10.587   3.102  0.3431  0.1448 -0.0425
38210SOL    HW219569   6.472  10.600   3.148  0.2526 -0.2103  0.3446
38211SOL     OW19570  10.687  11.465   6.515  0.5155  0.1206 -0.2524
38211SOL    HW119571  10.597  11.443   6.538  0.7674  0.1127  0.7873
38211SOL    HW219572  10.715  11.526   6.583  1.6175 -0.6543  0.0268
38212SOL     OW19573   8.065   1.369   5.021  0.4936  0.0421  0.2895
38212SOL    HW119574   8.154   1.401   5.007  0.7672 -1.0896 -0.6740
38212SOL    HW219575   8.056   1.294   4.962 -1.6129  1.0490 -0.8025
38213SOL     OW19576   7.367   1.339   3.587 -0.4515 -0.4144  0.6035
38213SOL    HW119577   7.438   1.386   3.543 -1.1969 -0.3888 -0.5978
38213SOL    HW219578   7.382   1.247   3.568  0.1505 -0.5679  1.7037
38214SOL     OW19579   7.380   9.777   6.770 -0.3597 -0.5255 -0.7712
38214SOL    HW119580   7.408   9.713   6.835 -1.4887 -1.6466 -1.3371
38214SOL    HW219581   7.410   9.742   6.687 -0.3607  0.0520 -1.0198
38215SOL     OW19582   1.799   6.748   8.713  0.2375  0.0303  0.2009
38215SOL    HW119583   1.844   6.829   8.737  0.7193  0.4176 -1.8062
38215SOL    HW219584   1.868   6.694   8.673 -0.7352  0.0545 -1.6196
38216SOL     OW19585   9.130   5.296   5.998  0.1487  0.3657  0.4471
38216SOL    HW119586   9.169   5.374   5.957  1.6210 -1.4206 -1.8332
38216SOL    HW219587   9.165   5.297   6.087  0.7435  1.9028  0.2464
38217SOL     OW19588   3.374   4.622   4.055  0.5125  1.0813 -0.3789
38217SOL    HW119589   3.338   4.546   4.008  2.7853 -0.4790  0.2132
38217SOL    HW219590   3.369   4.597   4.148  0.1229  2.2437 -0.0712
38218SOL     OW19591   8.084  10.364   8.143 -0.3301 -0.5093  0.3226
38218SOL    HW119592   7.995  10.385   8.170  0.2802  1.9906  0.6579
38218SOL    HW219593   8.084  10.269   8.129 -2.7944 -0.6826  1.1295
38219SOL     OW19594   6.150  10.349   9.766 -0.6230 -0.7906 -0.3531
38219SOL    HW119595   6.159  10.442   9.745 -1.8659 -0.8955 -1.4766
38219SOL    HW219596   6.208  10.305   9.703 -0.2063 -0.8024  0.0330
38220SOL     OW19597   8.231   6.171   8.694 -0.0818  0.1087  0.0081
38220SOL    HW119598   8.219   6.188   8.788  0.3365  2.4300 -0.3058
38220SOL    HW219599   8.319   6.134   8.687  0.3030  0.9092  0.4525
38221SOL     OW19600   8.353   4.537   5.902 -0.7250  0.1670  0.1845
38221SOL    HW119601   8.413   4.611   5.907 -0.7285  0.3032 -1.3122
38221SOL    HW219602   8.400   4.464   5.942  0.6275  0.1767 -1.2965
38222SOL     OW19603   6.778  11.407   3.224  0.4184 -0.3429 -0.0763
38222SOL    HW119604   6.696  11.385   3.267  0.3144  0.3729  0.0978
38222SOL    HW219605   6.809  11.323   3.187 -0.2366 -0.6674  0.0967
38223SOL     OW19606   9.761   8.802   1.750  0.0681  0.6765  0.1486
38223SOL    HW119607   9.689   8.741   1.735  0.2627  0.1475  1.2491
38223SOL    HW219608   9.752   8.828   1.842  2.6991 -1.3468  1.0880
38224SOL     OW19609   6.606  10.943   7.666 -0.2479  0.0184  0.2923
38224SOL    HW119610   6.622  10.856   7.629 -0.1266  0.2921 -0.3317
38224SOL    HW219611   6.596  10.999   7.589  0.0935  0.6285  0.6843
38225SOL     OW19612   0.163   0.659   2.968 -0.4202  0.4588  0.9734
38225SOL    HW119613   0.225   0.672   3.040  0.8296 -1.3346  0.3067
38225SOL    HW219614   0.218   0.647   2.891 -1.6499  0.0675  0.1265
38226SOL     OW19615   1.827   1.598  10.701 -0.9338  0.6408 -0.3830
38226SOL    HW119616   1.736   1.582  10.676 -1.8232  0.9105  2.2787
38226SOL    HW219617   1.842   1.539  10.775  0.0556  2.6252  1.0936
38227SOL     OW19618   3.499   7.631   5.475 -0.5625  0.3341 -1.1854
38227SOL    HW119619   3.566   7.612   5.409 -0.1122  0.7720 -0.8676
38227SOL    HW219620   3.428   7.570   5.456 -0.8121  1.0352 -2.6181
38228SOL     OW19621   2.668   2.237   9.391  0.4734 -0.4174 -0.0704
38228SOL    HW119622   2.755   2.246   9.354 -0.1170  0.6653 -1.2484
38228SOL    HW219623   2.611   2.286   9.332 -0.7371  0.0722  1.4290
38229SOL     OW19624   0.138   4.058   9.242  0.0211 -0.3357 -0.4722
38229SOL    HW119625   0.201   4.051   9.170 -0.7056  0.3724 -1.1982
38229SOL    HW219626   0.192   4.074   9.319  0.7855 -0.6012 -0.9339
38230SOL     OW19627   3.938   3.041   8.445  0.5110 -0.4412  0.5358
38230SOL    HW119628   3.855   3.052   8.398  1.1889 -0.0761 -0.6413
38230SOL    HW219629   3.990   2.983   8.388  1.0930 -0.5858  1.1990
38231SOL     OW19630   8.287   7.057   3.502 -0.2894 -0.2688  0.5703
38231SOL    HW119631   8.382   7.069   3.500 -0.5101  1.5256 -0.4790
38231SOL    HW219632   8.258   7.074   3.412 -1.8414  1.5374  1.3414
38232SOL     OW19633  10.478   4.403   9.432 -0.2445  0.2882 -0.4560
38232SOL    HW119634  10.486   4.443   9.518  2.1687 -0.7507 -0.0995
38232SOL    HW219635  10.510   4.469   9.371 -0.3667  0.4413 -0.3523
38233SOL     OW19636   2.528   7.244   7.221 -0.5674 -0.2624  0.1066
38233SOL    HW119637   2.535   7.314   7.156 -0.8313 -0.2491  0.0905
38233SOL    HW219638   2.588   7.177   7.190 -0.3076 -0.0409  0.1251
38234SOL     OW19639  11.324   6.485   8.084  0.3756  0.3241 -0.1380
38234SOL    HW119640  11.305   6.414   8.145 -1.9881  0.9437 -0.0379
38234SOL    HW219641  11.362   6.554   8.138  0.0556  0.1608  0.3043
38235SOL     OW19642  10.086   1.432   9.954  0.0061  0.1328 -0.1512
38235SOL    HW119643  10.173   1.393   9.938  0.2167  0.4199  0.3046
38235SOL    HW219644  10.103   1.526   9.960 -0.2858  0.1525  0.3213
38236SOL     OW19645   9.855   3.992   6.365 -0.3640  0.1404 -0.0279
38236SOL    HW119646   9.855   3.910   6.414 -0.2825  1.2442  1.9112
38236SOL    HW219647   9.918   4.047   6.410 -1.1269  1.6224 -0.6933
38237SOL     OW19648   6.721  11.130   1.448 -0.7735 -0.4509 -0.0308
38237SOL    HW119649   6.676  11.212   1.467  1.2491  0.4310  1.2237
38237SOL    HW219650   6.680  11.067   1.507 -2.3238 -0.4012 -0.9847
38238SOL     OW19651   5.326   4.229   6.974 -0.0599 -0.5384  0.4370
38238SOL    HW119652   5.244   4.238   6.925  0.2188  0.9687  0.1976
38238SOL    HW219653   5.387   4.286   6.928  0.7130 -0.5026  1.4913
38239SOL     OW19654   4.806   7.187   9.679  0.3727  0.1535 -0.6586
38239SOL    HW119655   4.776   7.112   9.731  0.5908  0.2708 -0.3615
38239SOL    HW219656   4.816   7.152   9.590  3.4359 -0.9878  0.0142
38240SOL     OW19657   2.634   0.909   5.201  0.3854  0.0948  0.6886
38240SOL    HW119658   2.675   0.863   5.128 -0.1972 -0.4931  0.7237
38240SOL    HW219659   2.702   0.967   5.234  0.2454  1.4374 -1.2236
38241SOL     OW19660   7.833  10.461   7.850  0.5035  0.5447  0.4293
38241SOL    HW119661   7.887  10.388   7.819  1.7332  1.6440 -0.1123
38241SOL    HW219662   7.754  10.457   7.796  1.3431  0.6663 -0.8542
38242SOL     OW19663   9.688   7.564   5.152 -0.1388 -0.5141 -0.5248
38242SOL    HW119664   9.773   7.562   5.197 -0.1738 -1.4392 -0.4873
38242SOL    HW219665   9.631   7.508   5.205 -0.5423 -0.5575 -0.9977
38243SOL     OW19666   4.231   6.301   5.824  0.5259 -1.1114  0.1164
38243SOL    HW119667   4.196   6.259   5.745 -0.5154  1.3280 -0.8439
38243SOL    HW219668   4.153   6.331   5.871  1.1957 -0.7391  1.0070
38244SOL     OW19669   9.807   1.805  11.004 -0.5107 -0.1332 -0.2823
38244SOL    HW119670   9.879   1.820  10.943 -1.0697 -0.8888 -1.1650
38244SOL    HW219671   9.734   1.855  10.967 -1.7341 -2.9159 -1.9891
38245SOL     OW19672   0.900  10.753   7.891  0.1152  0.0855 -0.4019
38245SOL    HW119673   0.895  10.846   7.911  0.7226  0.0118  0.1368
38245SOL    HW219674   0.957  10.717   7.959  0.5681 -0.5363 -1.0953
38246SOL     OW19675   4.015   0.950   0.221  0.2503 -0.7191 -0.2339
38246SOL    HW119676   3.930   0.975   0.184 -0.8727 -1.3067  1.7663
38246SOL    HW219677   4.005   0.856   0.241  1.9567 -1.1823 -1.3986
38247SOL     OW19678   8.995   4.905   8.854  0.4044 -0.1227 -0.1155
38247SOL    HW119679   9.075   4.903   8.905  0.3554 -0.3499 -0.0474
38247SOL    HW219680   9.022   4.883   8.765  0.5311  0.5451 -0.2434
38248SOL     OW19681   9.312   0.958   5.237 -0.0376  0.3705  0.5674
38248SOL    HW119682   9.315   0.871   5.277  0.9170  0.1840  0.1141
38248SOL    HW219683   9.336   1.018   5.308 -0.5711  0.2660  0.8472
38249SOL     OW19684   4.854   4.175   2.747 -0.8060  0.1250  0.3338
38249SOL    HW119685   4.845   4.156   2.841 -1.1637 -1.3675  0.0278
38249SOL    HW219686   4.769   4.153   2.710 -1.4707  2.9540 -0.0530
38250SOL     OW19687   7.615   7.578   6.784  0.0118 -0.1403  0.4997
38250SOL    HW119688   7.632   7.672   6.794  0.5927 -0.2987  1.0826
38250SOL    HW219689   7.702   7.539   6.780 -0.1369 -0.9754  3.3482
38251SOL     OW19690   7.957   9.512   0.213 -0.0879  0.0958  0.0518
38251SOL    HW119691   7.883   9.468   0.170  0.2510 -0.5454  0.0997
38251SOL    HW219692   7.981   9.452   0.284 -0.7695  1.2367  1.2719
38252SOL     OW19693   4.863   0.561  10.771 -0.1905 -0.1481 -0.0443
38252SOL    HW119694   4.799   0.585  10.838 -0.1032  0.1739 -0.0748
38252SOL    HW219695   4.811   0.532  10.696 -0.3656  1.6101 -0.6513
38253SOL     OW19696   7.978  11.559  10.580 -0.4078  0.5662 -0.2622
38253SOL    HW119697   8.063  11.598  10.560 -0.7335  0.9589 -0.9190
38253SOL    HW219698   7.992  11.510  10.661  0.5247  0.3408 -0.5517
38254SOL     OW19699   3.735   7.259   3.518 -0.4199  0.2180  0.2998
38254SOL    HW119700   3.822   7.225   3.499 -0.1731 -0.3041  2.1080
38254SOL    HW219701   3.712   7.314   3.443  1.8509  1.1304  0.2133
38255SOL     OW19702   5.847  10.324   9.563  0.0931 -0.0349 -0.1446
38255SOL    HW119703   5.806  10.411   9.571  1.3527  0.5594  0.1029
38255SOL    HW219704   5.845  10.288   9.652  1.1172  0.4884  0.1091
38256SOL     OW19705   7.069   8.722   4.048  0.3597  0.4227  0.2329
38256SOL    HW119706   7.035   8.808   4.074  0.3309  0.4025  0.2622
38256SOL    HW219707   7.164   8.734   4.045  0.2664  1.0331 -1.8661
38257SOL     OW19708   8.307   1.334   1.887  0.2924 -0.0981 -0.3382
38257SOL    HW119709   8.319   1.277   1.811 -0.5163  0.9736 -1.3050
38257SOL    HW219710   8.382   1.394   1.885 -1.2777  1.9585 -2.1868
38258SOL     OW19711   6.916   0.334   3.499 -0.0809  0.1454  0.5636
38258SOL    HW119712   6.826   0.312   3.522 -0.6328  0.7265 -0.9023
38258SOL    HW219713   6.961   0.250   3.498 -0.5802 -0.1457  1.3660
38259SOL     OW19714   4.639   1.230   6.149  0.1241 -0.2030  0.1100
38259SOL    HW119715   4.692   1.157   6.181  0.3956 -0.9169 -1.8260
38259SOL    HW219716   4.702   1.298   6.128 -0.0764  0.3702  1.2520
38260SOL     OW19717   3.848   1.483   2.976  0.5009 -0.3236 -0.2883
38260SOL    HW119718   3.831   1.390   2.994 -2.9882 -0.0346 -1.2943
38260SOL    HW219719   3.880   1.485   2.886  1.7746 -0.5849  0.1372
38261SOL     OW19720   5.393   2.850  10.111  0.4209  0.1894 -0.6936
38261SOL    HW119721   5.413   2.759  10.132 -2.4849 -1.0184 -2.5141
38261SOL    HW219722   5.387   2.852  10.016  0.5105  2.3305 -0.7030
38262SOL     OW19723   0.903  11.202   8.884  0.4050 -0.4281  0.0447
38262SOL    HW119724   0.830  11.232   8.938  1.3021  1.4777  0.2680
38262SOL    HW219725   0.947  11.282   8.856  1.7828 -1.4941 -0.9843
38263SOL     OW19726  10.829   2.826   5.295 -0.4584  0.3599 -0.1173
38263SOL    HW119727  10.897   2.843   5.360 -0.1130  0.9328 -0.6225
38263SOL    HW219728  10.755   2.793   5.346  0.1527 -0.1506  0.4501
38264SOL     OW19729   0.774   5.078   8.910 -0.2098  0.1949 -0.2748
38264SOL    HW119730   0.775   5.009   8.844 -1.3154 -0.8262  0.7276
38264SOL    HW219731   0.717   5.146   8.874 -1.2661 -0.6051 -0.1771
38265SOL     OW19732   0.879   9.660  11.544 -0.2406 -0.0629  0.4978
38265SOL    HW119733   0.857   9.614  11.625 -2.9835 -3.2579 -1.7855
38265SOL    HW219734   0.809   9.724  11.532 -0.4436 -0.3419  0.1608
38266SOL     OW19735   6.572   2.738   6.891 -0.1969 -0.3139  0.6686
38266SOL    HW119736   6.481   2.729   6.863 -0.2000  1.2966  0.0265
38266SOL    HW219737   6.612   2.795   6.825  0.6319  1.0023  2.2194
38267SOL     OW19738   6.016   2.326   9.944 -0.1235  0.0158 -0.0509
38267SOL    HW119739   5.984   2.270   9.873 -0.8074  0.2374  0.0785
38267SOL    HW219740   6.092   2.370   9.907 -0.8519  0.6228 -0.8805
38268SOL     OW19741   5.435  10.670   0.286  0.2274 -0.1063 -0.5593
38268SOL    HW119742   5.455  10.604   0.352 -2.3154 -0.2947  0.1215
38268SOL    HW219743   5.447  10.625   0.202  0.8854 -0.6751 -0.1638
38269SOL     OW19744   2.774   2.543   2.375 -0.5453  0.5454  0.2253
38269SOL    HW119745   2.740   2.538   2.286  1.5966  0.0466 -0.6348
38269SOL    HW219746   2.806   2.633   2.384  1.7199 -0.1007 -0.5745
38270SOL     OW19747   5.249   4.125   3.370  0.1614  0.2181  0.2028
38270SOL    HW119748   5.213   4.213   3.387 -1.8827 -0.5588  0.1230
38270SOL    HW219749   5.298   4.104   3.449  1.2407  1.6631 -0.0308
38271SOL     OW19750   9.179   0.890   9.244 -0.2038 -0.1058  0.0119
38271SOL    HW119751   9.116   0.962   9.249  0.6922  0.6333  1.3473
38271SOL    HW219752   9.251   0.917   9.301  0.7874 -1.4611 -0.5320
38272SOL     OW19753  10.815   1.883   1.741 -0.5409 -0.1535  0.5081
38272SOL    HW119754  10.864   1.801   1.749 -0.0475  0.2305  1.5792
38272SOL    HW219755  10.728   1.862   1.777 -0.4633 -0.2563  0.6388
38273SOL     OW19756   9.138  10.354  11.333 -0.1167  0.5493  0.0655
38273SOL    HW119757   9.155  10.264  11.362  0.9205  0.7042 -0.0177
38273SOL    HW219758   9.046  10.354  11.307 -0.2076 -0.4124  0.3415
38274SOL     OW19759   8.357   0.463   0.802  0.5985  0.3696 -0.2774
38274SOL    HW119760   8.357   0.552   0.768  1.4966  0.6598  0.4193
38274SOL    HW219761   8.265   0.444   0.820  0.5133  1.7230  0.9443
38275SOL     OW19762   0.550   7.868   6.065  0.1325 -0.5740 -0.4953
38275SOL    HW119763   0.547   7.844   5.973  0.2144 -1.8334 -0.1825
38275SOL    HW219764   0.620   7.934   6.070 -0.1858 -0.1547 -1.3920
38276SOL     OW19765   8.133   3.770   7.441 -0.2291  0.4237 -0.0060
38276SOL    HW119766   8.178   3.854   7.446  0.3954  0.0367  1.0034
38276SOL    HW219767   8.166   3.720   7.515 -2.7083  0.3111  1.1399
38277SOL     OW19768   1.604   1.288  11.086 -0.5171 -0.2574  0.2267
38277SOL    HW119769   1.600   1.297  10.990 -0.0966 -1.6309  0.0581
38277SOL    HW219770   1.564   1.368  11.119 -1.4926 -0.1653 -1.1004
38278SOL     OW19771   8.642   8.865  11.153  0.5166 -0.3309 -0.0219
38278SOL    HW119772   8.664   8.935  11.214 -0.4090 -1.7117  1.9714
38278SOL    HW219773   8.548   8.873  11.139  0.7420  0.1171 -1.5334
38279SOL     OW19774   3.947   7.601   0.481  0.1883  0.2889  0.1899
38279SOL    HW119775   3.967   7.694   0.468 -1.7762  0.7688  0.2906
38279SOL    HW219776   3.983   7.558   0.403  0.3907  1.2611 -0.2715
38280SOL     OW19777  10.235   3.292   1.253  0.4362  0.1930  0.3754
38280SOL    HW119778  10.293   3.271   1.327 -1.4777 -0.4450  1.7828
38280SOL    HW219779  10.159   3.335   1.294 -0.8057 -0.4179 -1.1864
38281SOL     OW19780   0.384   5.110   5.470 -0.4150  0.2310  0.2983
38281SOL    HW119781   0.295   5.122   5.504 -0.3718 -0.4444  0.6683
38281SOL    HW219782   0.394   5.015   5.464  0.4532  0.2909  0.7152
38282SOL     OW19783   5.644   6.918   9.399 -0.0431  0.3734 -0.2872
38282SOL    HW119784   5.680   6.929   9.487  0.2656  0.6773 -0.4470
38282SOL    HW219785   5.568   6.976   9.396 -0.3992 -0.0732 -0.0346
38283SOL     OW19786  11.492   7.091   2.222 -0.0854 -0.0323 -0.2318
38283SOL    HW119787  11.467   7.066   2.311  1.0177  0.7299  0.3241
38283SOL    HW219788  11.579   7.053   2.210 -0.5541 -0.8371 -1.3186
38284SOL     OW19789  10.378  10.101   2.905  0.1704 -0.5357  0.0590
38284SOL    HW119790  10.337  10.094   2.819 -1.2993  0.6409  0.6307
38284SOL    HW219791  10.311  10.069   2.966  0.4583  0.4539  0.9233
38285SOL     OW19792   9.451  10.690   3.719  0.5189 -0.0633  0.2966
38285SOL    HW119793   9.492  10.692   3.633  0.0326  0.6250  0.0666
38285SOL    HW219794   9.428  10.598   3.733 -1.8102  0.1427 -1.5022
38286SOL     OW19795   2.364   8.603   1.748 -0.1623 -0.1478 -0.2383
38286SOL    HW119796   2.390   8.518   1.783  0.2494  0.3980  0.8013
38286SOL    HW219797   2.422   8.666   1.790  0.5718  0.5206 -2.1151
38287SOL     OW19798   9.444   5.909   6.251  0.1401 -0.2468  0.4086
38287SOL    HW119799   9.516   5.847   6.253  0.1116 -0.2753  0.6477
38287SOL    HW219800   9.365   5.855   6.261  0.0642 -0.2488 -0.1921
38288SOL     OW19801   0.140   9.209   3.425  0.0218 -0.3871 -0.3223
38288SOL    HW119802   0.143   9.141   3.492  3.0365  1.1121  1.2827
38288SOL    HW219803   0.103   9.285   3.470 -0.0734  0.0175 -1.0643
38289SOL     OW19804   4.596   9.434   3.655 -0.0787  0.3609 -0.3988
38289SOL    HW119805   4.676   9.486   3.650  0.2485 -0.1128 -0.1696
38289SOL    HW219806   4.582   9.420   3.749  0.3268 -0.6981 -0.4820
38290SOL     OW19807  11.312   5.257  10.353 -0.1458 -0.1812  0.1527
38290SOL    HW119808  11.285   5.211  10.274  0.7907  0.4802 -0.5700
38290SOL    HW219809  11.256   5.334  10.357  0.9534  0.7146 -0.8562
38291SOL     OW19810  11.579   8.178   8.486  0.0479 -0.3487 -0.5916
38291SOL    HW119811  11.613   8.151   8.571  1.0799  0.0397 -0.8715
38291SOL    HW219812  11.487   8.150   8.487  0.2026 -0.8567  0.4181
38292SOL     OW19813   2.416  10.036   1.981  0.6439 -0.4802  0.1308
38292SOL    HW119814   2.406  10.130   1.990 -0.9785 -0.7823  2.3145
38292SOL    HW219815   2.495  10.015   2.031  1.2886 -0.2610 -0.7678
38293SOL     OW19816   3.812   2.132  10.795 -0.0090 -0.8506  0.4144
38293SOL    HW119817   3.831   2.142  10.889  0.3316 -2.0149  0.4892
38293SOL    HW219818   3.820   2.038  10.779  0.6908 -0.5832 -0.9468
38294SOL     OW19819   9.812   6.627   1.743  0.9435 -0.6609  0.2836
38294SOL    HW119820   9.725   6.668   1.739  1.2108 -0.0418  0.7321
38294SOL    HW219821   9.838   6.636   1.835  0.3854 -3.1337  0.7528
38295SOL     OW19822   2.459  10.097   3.926  0.4339  0.1606 -0.1865
38295SOL    HW119823   2.490  10.078   3.838  0.2557 -1.9794  0.1558
38295SOL    HW219824   2.537  10.129   3.972  0.4500  1.6104 -1.1684
38296SOL     OW19825   1.638   7.898   4.351 -0.1002 -0.2312  0.0051
38296SOL    HW119826   1.695   7.825   4.326 -2.2719 -1.8985 -0.3912
38296SOL    HW219827   1.623   7.946   4.269 -0.8314 -0.9893 -0.3259
38297SOL     OW19828   7.598   1.601  10.031  0.2137 -0.4470 -0.3345
38297SOL    HW119829   7.526   1.612  10.094  0.1699 -0.7455 -0.3324
38297SOL    HW219830   7.563   1.541   9.965 -0.1298  0.6989 -1.2409
38298SOL     OW19831   2.884   0.941   7.612  0.2890 -0.0597 -0.3526
38298SOL    HW119832   2.970   0.975   7.637  0.1680  0.3917 -0.5463
38298SOL    HW219833   2.853   0.895   7.691  1.1434 -1.1125 -0.6188
38299SOL     OW19834  10.139   2.554   6.328  0.2663  1.1091 -0.2848
38299SOL    HW119835  10.089   2.630   6.300 -0.9500  1.6191  2.8807
38299SOL    HW219836  10.132   2.554   6.423  1.8030 -1.9216 -0.0446
38300SOL     OW19837  10.103  11.314   4.026  0.4412 -0.3436  0.0608
38300SOL    HW119838  10.154  11.318   3.945 -0.1389 -1.9907 -0.4294
38300SOL    HW219839  10.026  11.368   4.009  2.0839  2.5029  0.9490
38301SOL     OW19840   5.012   4.473   9.711  0.5553 -0.0314  0.1991
38301SOL    HW119841   5.013   4.556   9.759  1.3148 -0.1096  0.3245
38301SOL    HW219842   5.052   4.494   9.627 -0.6068  0.0636 -0.3512
38302SOL     OW19843   3.416   0.947   1.156  0.1454  0.2381 -0.2624
38302SOL    HW119844   3.354   0.986   1.218  1.6355 -1.3416  2.4303
38302SOL    HW219845   3.362   0.893   1.099 -1.1011 -0.0473  1.1323
38303SOL     OW19846  11.130   5.837   9.820  1.0268 -0.4960  0.7900
38303SOL    HW119847  11.042   5.831   9.855  0.3459 -0.6369 -0.8789
38303SOL    HW219848  11.159   5.926   9.843  1.5050 -1.2831  3.6053
38304SOL     OW19849   4.603   0.359   5.507 -0.1433 -0.0900  0.0532
38304SOL    HW119850   4.597   0.294   5.437 -0.8251 -0.1427  0.1578
38304SOL    HW219851   4.543   0.428   5.482 -1.8759 -0.9811  1.4825
38305SOL     OW19852   6.266   3.595  11.213  0.6366  0.3723  0.1870
38305SOL    HW119853   6.277   3.562  11.124  1.6972 -1.4246  0.9283
38305SOL    HW219854   6.175   3.576  11.235  0.6065  0.0229 -0.2299
38306SOL     OW19855   2.885   5.928   6.886  0.7205 -0.0944 -0.2781
38306SOL    HW119856   2.978   5.928   6.864  0.5847  0.8259 -0.9149
38306SOL    HW219857   2.882   5.902   6.978  1.6174 -0.0428 -0.2284
38307SOL     OW19858   4.210   0.711   1.046 -0.4358 -0.4499 -0.6115
38307SOL    HW119859   4.228   0.660   0.967  0.7946 -2.0655  0.6270
38307SOL    HW219860   4.289   0.700   1.099 -1.0210  1.0311  0.6216
38308SOL     OW19861   1.184  10.019   2.223 -0.1375  0.4586  0.3289
38308SOL    HW119862   1.194   9.996   2.130  2.1422  2.1535  0.0846
38308SOL    HW219863   1.093   9.995   2.243 -0.1399 -1.7207 -1.7836
38309SOL     OW19864   0.271   7.375  10.439  0.0825  0.5575 -0.3298
38309SOL    HW119865   0.285   7.317  10.514  0.8878  1.1460 -0.0053
38309SOL    HW219866   0.279   7.319  10.363  1.8345  0.3917 -0.0618
38310SOL     OW19867   4.023   9.477   5.983 -0.3390 -0.2723 -0.3222
38310SOL    HW119868   4.112   9.512   5.976 -0.0645 -0.5553  1.2266
38310SOL    HW219869   4.035   9.383   5.998 -0.8252 -0.1348  1.0964
38311SOL     OW19870   2.852  11.424  10.933  0.0500  0.2497 -0.0926
38311SOL    HW119871   2.792  11.449  11.003 -0.9381  1.6624 -1.3660
38311SOL    HW219872   2.937  11.414  10.976 -0.9407 -1.1226  1.6377
38312SOL     OW19873   5.828   0.142  10.212 -0.1168 -0.1090 -0.0274
38312SOL    HW119874   5.859   0.216  10.266 -0.3833 -0.0833  0.0898
38312SOL    HW219875   5.808   0.073  10.276 -1.7572  0.3825  0.0324
38313SOL     OW19876   6.972   6.199   6.453  0.3368  0.0842 -0.1869
38313SOL    HW119877   7.029   6.122   6.465  1.4365  0.5771 -1.8564
38313SOL    HW219878   6.913   6.173   6.382  0.0677  0.4421 -0.0931
38314SOL     OW19879   9.779   5.341   5.675 -0.0387  0.0998 -0.6942
38314SOL    HW119880   9.811   5.426   5.646  2.6937 -0.4558  0.3788
38314SOL    HW219881   9.792   5.284   5.599 -0.9148  0.4070 -1.0832
38315SOL     OW19882   3.486   1.318   5.500  0.7285  0.0695  0.3430
38315SOL    HW119883   3.398   1.311   5.462  1.2058  0.1444 -0.8040
38315SOL    HW219884   3.486   1.401   5.547 -0.9037 -1.4336  3.3168
38316SOL     OW19885   8.080   4.347   5.542 -0.1228 -0.2231  0.0673
38316SOL    HW119886   8.118   4.427   5.578 -1.4809  0.8020 -0.6646
38316SOL    HW219887   8.005   4.328   5.598 -2.0927  1.2384 -1.9024
38317SOL     OW19888   2.994   3.650  11.108 -0.7595 -0.3576 -0.1899
38317SOL    HW119889   2.959   3.640  11.019  1.1209 -0.8803 -0.9034
38317SOL    HW219890   2.992   3.562  11.145 -2.4234  0.0008  0.6839
38318SOL     OW19891   8.387   1.016   5.582 -0.1045 -1.0642  0.4488
38318SOL    HW119892   8.381   0.929   5.620  3.0016 -1.0296  1.2265
38318SOL    HW219893   8.303   1.057   5.602 -0.3719 -2.6994  3.0663
38319SOL     OW19894  10.326   9.478   6.658 -0.6177  0.2169 -0.2916
38319SOL    HW119895  10.312   9.472   6.753 -1.3699  1.1132 -0.3270
38319SOL    HW219896  10.341   9.571   6.642  0.5439 -0.0614 -0.9335
38320SOL     OW19897  11.474   5.219   7.798  0.3501 -0.1600 -0.0782
38320SOL    HW119898  11.526   5.257   7.728  1.2342 -0.2142  0.5327
38320SOL    HW219899  11.536   5.205   7.870  0.1971 -3.1012 -0.3820
38321SOL     OW19900   7.136   0.966   3.352 -0.0213  0.2061  0.2072
38321SOL    HW119901   7.068   1.030   3.332  0.9911  1.8385  1.7252
38321SOL    HW219902   7.109   0.887   3.304 -2.0542  1.3011 -0.5889
38322SOL     OW19903   9.484   3.570   4.719 -0.2486 -0.3842  0.7040
38322SOL    HW119904   9.483   3.661   4.690 -0.2132 -0.6413 -0.1189
38322SOL    HW219905   9.493   3.519   4.638  1.1979 -1.0617  1.2580
38323SOL     OW19906  10.006   4.390   0.058  0.0599  0.1298 -0.5726
38323SOL    HW119907  10.085   4.432   0.092 -0.2485  1.4905 -1.4506
38323SOL    HW219908  10.014   4.298   0.085  0.2423  0.8977  2.3878
38324SOL     OW19909   3.976   1.348   9.054  0.4989  0.0710 -0.0544
38324SOL    HW119910   3.967   1.375   8.963  0.9662 -0.2855 -0.2075
38324SOL    HW219911   3.886   1.336   9.084  0.1075  3.3095  0.5061
38325SOL     OW19912   0.576   0.116   8.060  0.5433  0.0458  0.1437
38325SOL    HW119913   0.606   0.096   8.148 -2.2719  0.7063  1.3621
38325SOL    HW219914   0.634   0.186   8.030  1.7461 -0.4107  1.3024
38326SOL     OW19915   7.392   2.689   7.961  0.2046  0.2422  0.1996
38326SOL    HW119916   7.431   2.604   7.941 -0.7066 -0.0484 -0.4485
38326SOL    HW219917   7.342   2.712   7.882 -2.2386 -0.1914  1.5055
38327SOL     OW19918   7.303   7.131   2.684 -0.2448 -0.2692 -0.3333
38327SOL    HW119919   7.252   7.062   2.725 -0.0483 -0.1898  0.0492
38327SOL    HW219920   7.394   7.102   2.692  0.0280  0.9611  1.6731
38328SOL     OW19921   7.702   9.813   1.924 -0.3852 -0.5739 -0.0723
38328SOL    HW119922   7.699   9.717   1.925 -1.4684 -0.5600 -0.2546
38328SOL    HW219923   7.733   9.835   1.836 -1.7405 -0.7584 -0.6247
38329SOL     OW19924   5.567   0.829   2.643  0.3382 -0.1976 -0.3473
38329SOL    HW119925   5.505   0.778   2.591 -1.3727 -0.2672  1.6131
38329SOL    HW219926   5.624   0.763   2.683 -1.4490 -0.6690  1.6515
38330SOL     OW19927   4.234   7.515   7.374  0.3947 -0.4171 -0.0041
38330SOL    HW119928   4.143   7.528   7.401 -0.0783  0.1714 -1.7345
38330SOL    HW219929   4.282   7.506   7.456 -0.9719  1.0078  1.0213
38331SOL     OW19930   1.155  11.135   9.621 -0.1817  0.7016 -0.1248
38331SOL    HW119931   1.145  11.088   9.703 -1.2374 -2.1464 -1.7489
38331SOL    HW219932   1.249  11.134   9.603 -0.0293  0.6723  0.6545
38332SOL     OW19933   2.390  11.462  11.231  0.5958  0.3388  0.0920
38332SOL    HW119934   2.470  11.417  11.255  1.0794  1.3213  0.3955
38332SOL    HW219935   2.319  11.403  11.257  1.2179 -0.8187 -0.7782
38333SOL     OW19936   7.999  10.615   3.133  0.0629 -0.2787 -0.2543
38333SOL    HW119937   8.050  10.685   3.173  0.9568 -0.5092 -0.9577
38333SOL    HW219938   8.058  10.540   3.133  0.5309 -0.0216 -2.9453
38334SOL     OW19939  10.630  10.384   4.383  0.2276  0.2376  0.2236
38334SOL    HW119940  10.535  10.395   4.377  0.1887 -0.3725 -0.3628
38334SOL    HW219941  10.661  10.395   4.293  0.6421 -0.1422  0.3152
38335SOL     OW19942   1.995   0.364   5.395 -0.0941  0.6439  0.3836
38335SOL    HW119943   2.076   0.321   5.423 -0.8656 -1.3803 -0.3478
38335SOL    HW219944   2.014   0.458   5.402  1.8564  0.2153  1.4734
38336SOL     OW19945   8.550   0.298   0.190  0.4002 -0.4193 -0.1834
38336SOL    HW119946   8.640   0.309   0.158  1.4714 -1.9014  2.0515
38336SOL    HW219947   8.549   0.209   0.226 -1.4098  0.2599  1.5694
38337SOL     OW19948   8.401   2.111   0.275 -0.1759 -0.4402  0.2762
38337SOL    HW119949   8.438   2.152   0.197 -1.7805 -0.7025 -0.6687
38337SOL    HW219950   8.341   2.045   0.241 -2.4820  0.7996  1.6615
38338SOL     OW19951  11.066  10.948   4.658 -0.0459  0.2889 -0.5469
38338SOL    HW119952  11.072  10.864   4.704 -0.6248 -0.1316 -1.2141
38338SOL    HW219953  10.976  10.976   4.671  0.3461  1.1949  0.3088
38339SOL     OW19954   1.837   9.053   9.470  0.2869 -0.2312 -0.4029
38339SOL    HW119955   1.904   9.103   9.517 -0.7055  1.9784 -1.1737
38339SOL    HW219956   1.781   9.018   9.539 -1.5347  3.5065  0.2650
38340SOL     OW19957   0.893   7.341   7.020 -0.2579  0.5480 -0.2640
38340SOL    HW119958   0.966   7.319   7.078  1.4633  1.8126 -1.8331
38340SOL    HW219959   0.815   7.308   7.066  1.3958 -2.3410  0.7347
38341SOL     OW19960   1.928   9.222  11.016 -0.0674  0.1222  0.3105
38341SOL    HW119961   1.914   9.242  10.923 -0.0671  2.5020  0.7417
38341SOL    HW219962   1.844   9.242  11.058 -0.5379 -2.3595  0.6852
38342SOL     OW19963   6.122   9.268  11.312  0.0849 -0.4360 -0.2900
38342SOL    HW119964   6.206   9.222  11.318  0.2340 -0.0436  0.9772
38342SOL    HW219965   6.061   9.212  11.359  0.7263  1.5622  3.3154
38343SOL     OW19966   0.208   3.005   2.598 -0.3280  0.5279  0.3242
38343SOL    HW119967   0.293   3.042   2.577  0.2231  0.2580  1.9111
38343SOL    HW219968   0.226   2.941   2.667 -2.0383  1.8946  2.1559
38344SOL     OW19969   8.657   4.204   3.623 -0.2693 -0.4545  0.1664
38344SOL    HW119970   8.591   4.141   3.652 -1.1339 -0.0049 -0.7045
38344SOL    HW219971   8.651   4.276   3.686  0.0060 -0.7944  0.5845
38345SOL     OW19972   1.251  11.176   7.480  0.5403  0.2940  0.4599
38345SOL    HW119973   1.190  11.171   7.553  0.6446  0.0377  0.5327
38345SOL    HW219974   1.196  11.182   7.402  0.3568 -2.1929  0.3353
38346SOL     OW19975   2.390  10.924   2.287  0.2844 -0.4004  0.7923
38346SOL    HW119976   2.347  10.896   2.206  0.9084 -0.2098  0.3897
38346SOL    HW219977   2.319  10.956   2.342 -0.2149 -1.0498  0.5427
38347SOL     OW19978   5.645   3.045   3.696 -0.0548  0.7758  0.0408
38347SOL    HW119979   5.631   2.987   3.770 -1.4123  0.1762 -0.6513
38347SOL    HW219980   5.625   3.133   3.729 -1.6641  0.3940  0.1375
38348SOL     OW19981   8.392   0.130   8.471  0.4067 -0.3462 -0.3849
38348SOL    HW119982   8.408   0.223   8.456 -0.3267 -0.4404 -1.8752
38348SOL    HW219983   8.337   0.127   8.549  1.5502  0.3748  0.4797
38349SOL     OW19984   5.279   3.576  10.753  0.1675  0.0975  0.3239
38349SOL    HW119985   5.294   3.664  10.718 -0.2756 -0.4022 -1.2089
38349SOL    HW219986   5.366   3.547  10.782  0.8344  0.0787 -1.5575
38350SOL     OW19987   6.414   4.962  10.199  0.2762  0.0325 -0.1026
38350SOL    HW119988   6.374   5.038  10.241 -0.9885 -0.5133 -0.2848
38350SOL    HW219989   6.454   4.914  10.271 -0.2404  0.0814  0.2204
38351SOL     OW19990   4.541   0.469   6.864  0.0361 -0.2272  0.4293
38351SOL    HW119991   4.548   0.474   6.959  1.3021  0.2588  0.3335
38351SOL    HW219992   4.547   0.376   6.844 -0.4101 -0.3451  0.8315
38352SOL     OW19993   6.727   7.883   2.129  0.0677 -0.4465  0.2314
38352SOL    HW119994   6.708   7.888   2.035 -2.4976 -1.2408  0.6423
38352SOL    HW219995   6.703   7.970   2.163  1.2192 -0.0807  0.1443
38353SOL     OW19996   1.769   6.545   4.801  0.7340  0.2919 -0.4549
38353SOL    HW119997   1.715   6.607   4.850  0.3662 -0.5303  0.1911
38353SOL    HW219998   1.859   6.563   4.830  0.6333  0.5340 -0.2932
38354SOL     OW19999   7.440   7.147   1.934  0.5169 -0.6611 -0.0089
38354SOL    HW120000   7.489   7.115   2.009 -0.2054  1.4168  1.4310
38354SOL    HW220001   7.480   7.231   1.912  0.1012 -0.7877 -1.3624
38355SOL     OW20002  11.450   5.610  10.356 -0.0676  0.3969 -0.4434
38355SOL    HW120003  11.372   5.662  10.377 -1.4251 -1.6881 -0.1159
38355SOL    HW220004  11.429   5.566  10.274  0.8161 -0.1205 -0.4059
38356SOL     OW20005   0.861   0.673   0.349 -0.0276  0.3953 -0.2187
38356SOL    HW120006   0.825   0.759   0.328 -0.3182  0.2782 -0.2120
38356SOL    HW220007   0.943   0.668   0.300 -0.7473  0.0890 -1.4200
38357SOL     OW20008   2.342   4.609   0.262  0.0906  0.2650  0.2871
38357SOL    HW120009   2.294   4.597   0.344 -2.5736  0.4102 -1.1315
38357SOL    HW220010   2.350   4.520   0.227 -1.0930  0.4176 -0.4459
38358SOL     OW20011   7.022   3.828   3.930 -0.1569  0.4586  0.0464
38358SOL    HW120012   6.976   3.887   3.870  0.7834  0.1405 -1.0027
38358SOL    HW220013   7.096   3.795   3.880  0.3622 -0.2175  1.2221
38359SOL     OW20014  11.462   8.921  11.485 -0.5488  0.0298 -0.0093
38359SOL    HW120015  11.449   8.974  11.563 -1.3186 -0.7805  0.4275
38359SOL    HW220016  11.438   8.979  11.412 -2.8795 -0.1375  0.5407
38360SOL     OW20017   4.492   5.419  11.683  0.3340 -0.1864 -0.0050
38360SOL    HW120018   4.528   5.504  11.660 -0.3718  0.6811  1.8426
38360SOL    HW220019   4.567   5.360  11.683  0.5931  0.0534 -2.7836
38361SOL     OW20020   3.877   2.512   3.987 -0.1522 -0.2443 -0.0060
38361SOL    HW120021   3.870   2.560   3.905 -1.5964 -2.4290 -1.2843
38361SOL    HW220022   3.872   2.579   4.055 -1.4287  1.4597 -1.6611
38362SOL     OW20023   3.677   4.376   4.658  0.1683 -0.2618 -0.4108
38362SOL    HW120024   3.753   4.319   4.658 -0.0001 -0.5335  1.2082
38362SOL    HW220025   3.633   4.359   4.742 -1.4643  0.1562 -1.1223
38363SOL     OW20026   0.100   4.661   6.345  0.8383  0.1007  0.3770
38363SOL    HW120027   0.099   4.632   6.254  2.6589 -0.0643  0.3669
38363SOL    HW220028   0.012   4.642   6.378  0.6856 -1.4954 -0.8371
38364SOL     OW20029   5.500  10.079   2.426  0.3398 -0.0758 -0.5194
38364SOL    HW120030   5.525  10.032   2.346  2.7926  0.0155  0.0868
38364SOL    HW220031   5.546  10.032   2.495 -1.9661 -0.3419  0.9380
38365SOL     OW20032   9.076   8.178   2.997  0.2219 -0.3268 -0.3255
38365SOL    HW120033   9.154   8.232   3.002  0.5486 -0.7849 -0.4236
38365SOL    HW220034   9.076   8.126   3.077  0.0070 -0.3108 -0.3134
38366SOL     OW20035   6.456   5.011   9.746  0.0981 -0.0577  0.1251
38366SOL    HW120036   6.477   5.099   9.779  0.2872 -0.6802  1.7414
38366SOL    HW220037   6.412   5.027   9.663  0.8486  1.5388 -0.0103
38367SOL     OW20038   7.670   6.768   3.180 -0.4291 -0.0929  0.4282
38367SOL    HW120039   7.621   6.721   3.112  0.5427 -1.4539  0.6190
38367SOL    HW220040   7.611   6.771   3.255 -0.4310 -1.2506  0.4880
38368SOL     OW20041   2.509   9.813   3.030  0.7878 -0.8208 -0.0506
38368SOL    HW120042   2.420   9.782   3.011  0.6195 -1.4572  1.5684
38368SOL    HW220043   2.564   9.735   3.022  0.7387 -1.0721  1.6571
38369SOL     OW20044   9.284   8.930   7.158 -0.2697  0.4039 -0.1817
38369SOL    HW120045   9.280   8.944   7.063  1.2724  0.7080 -0.2267
38369SOL    HW220046   9.376   8.912   7.175 -0.7630 -1.1282  1.0736
38370SOL     OW20047   2.050   1.507   2.703  0.2653 -0.1354 -0.6206
38370SOL    HW120048   2.058   1.498   2.608 -1.2446  0.4969 -0.8289
38370SOL    HW220049   2.124   1.457   2.737  0.8956 -0.3018 -2.1221
38371SOL     OW20050   1.519   4.155   9.971  0.4938 -0.3378  0.0364
38371SOL    HW120051   1.441   4.104   9.951  0.3317  0.1080 -0.4940
38371SOL    HW220052   1.592   4.097   9.950  0.3238 -0.1339 -1.2382
38372SOL     OW20053   7.568   8.176   4.031  0.1220 -0.3966 -0.0222
38372SOL    HW120054   7.636   8.213   4.087  0.2418 -0.0105 -0.4185
38372SOL    HW220055   7.486   8.193   4.079  0.0972  1.1059 -0.5606
38373SOL     OW20056   4.575   7.124   0.983 -0.0460 -0.4944  0.0017
38373SOL    HW120057   4.584   7.046   1.038 -0.5667  1.0128  2.3838
38373SOL    HW220058   4.663   7.161   0.980 -0.0622 -0.4567 -0.0020
38374SOL     OW20059   7.070   0.106  10.780  0.4104 -0.4870  0.1761
38374SOL    HW120060   7.039   0.029  10.732 -1.3664 -0.3624  1.0211
38374SOL    HW220061   7.131   0.149  10.721 -0.6964 -1.0427 -1.4490
38375SOL     OW20062   1.689   4.945  11.514  0.4232  0.7594 -0.5966
38375SOL    HW120063   1.785   4.938  11.509  0.3782 -0.6295 -0.0002
38375SOL    HW220064   1.672   5.039  11.517  1.9169  1.0433  1.4207
38376SOL     OW20065   2.637   2.820   0.919 -0.2705 -0.1361  0.1592
38376SOL    HW120066   2.576   2.747   0.908 -1.4485  0.7796  0.4169
38376SOL    HW220067   2.608   2.864   0.998  1.8942 -0.7463  1.3737
38377SOL     OW20068   3.435   7.432   8.381 -0.3143 -0.0549  0.6597
38377SOL    HW120069   3.509   7.462   8.434 -1.5008  1.1077  1.7231
38377SOL    HW220070   3.398   7.512   8.343  0.8796 -0.8805 -2.5574
38378SOL     OW20071   8.677   2.899   2.312  0.0028  0.1025  0.2012
38378SOL    HW120072   8.766   2.919   2.340 -0.1224  0.7672  0.1596
38378SOL    HW220073   8.661   2.810   2.342  0.1876  0.4722  1.4538
38379SOL     OW20074  10.998   0.341   9.194  0.0082 -0.1422 -0.2388
38379SOL    HW120075  10.920   0.288   9.213  0.0432 -0.9952 -2.2236
38379SOL    HW220076  11.004   0.341   9.098  1.7954  0.8957 -0.1650
38380SOL     OW20077   4.767   0.030   5.445  0.4370  0.6932  0.1168
38380SOL    HW120078   4.830  -0.041   5.428 -0.6216  0.3069 -2.8383
38380SOL    HW220079   4.822   0.108   5.457  1.5930 -0.3811  2.6891
38381SOL     OW20080   2.390  10.696   2.815 -0.3404 -0.5329 -0.2305
38381SOL    HW120081   2.310  10.649   2.792  0.6690 -4.7117  3.3820
38381SOL    HW220082   2.460  10.650   2.769  0.3963 -0.2591  0.5784
38382SOL     OW20083   7.417   3.543   5.406  0.1515  0.2116  0.5044
38382SOL    HW120084   7.423   3.447   5.411  0.1224  0.1381 -0.6904
38382SOL    HW220085   7.425   3.563   5.313 -1.7268  1.2360  0.5215
38383SOL     OW20086   1.105   7.261   8.105 -0.1928 -0.3851 -0.5725
38383SOL    HW120087   1.133   7.293   8.019 -0.2436 -0.2410 -0.5362
38383SOL    HW220088   1.148   7.319   8.167  0.6113 -1.0794 -0.4649
38384SOL     OW20089  10.382   9.289   5.445 -0.3166 -0.2296  0.0485
38384SOL    HW120090  10.366   9.197   5.464 -0.7299 -0.1703  0.0021
38384SOL    HW220091  10.296   9.324   5.423  0.0295 -0.1200 -1.2088
38385SOL     OW20092  10.564   4.196   1.998  0.1140 -0.2949  0.0291
38385SOL    HW120093  10.605   4.132   2.057 -0.7743 -2.0986 -1.2273
38385SOL    HW220094  10.615   4.191   1.917 -0.6637 -0.2611 -0.4721
38386SOL     OW20095   6.321   2.904   2.905 -0.3456  0.2560  0.3221
38386SOL    HW120096   6.300   2.934   2.993  0.0334  1.6263 -0.0412
38386SOL    HW220097   6.358   2.817   2.918  0.6403  0.8339  1.6145
38387SOL     OW20098   8.589   7.517   0.020  0.3770 -0.5614  0.3707
38387SOL    HW120099   8.664   7.553   0.066  1.2987 -1.1338 -0.6216
38387SOL    HW220100   8.540   7.469   0.086  1.4019 -0.9668  0.8469
38388SOL     OW20101  10.474   7.680   9.847 -0.0038 -0.4733  0.1329
38388SOL    HW120102  10.543   7.697   9.910  0.1269  1.4372 -0.4712
38388SOL    HW220103  10.516   7.689   9.762 -0.8718  0.1485 -0.2372
38389SOL     OW20104   5.097   7.302   0.156  0.5785  0.0428 -0.0992
38389SOL    HW120105   5.009   7.337   0.160  0.0448 -0.6945 -3.1397
38389SOL    HW220106   5.134   7.337   0.076  2.0896 -1.7333 -0.2634
38390SOL     OW20107  10.137   6.775  11.506  0.3516 -0.5096  0.3264
38390SOL    HW120108  10.060   6.830  11.491 -0.1232 -1.1457  0.3863
38390SOL    HW220109  10.143   6.720  11.428  2.0775  1.0321 -0.7430
38391SOL     OW20110   3.746   7.847  10.697 -0.2150  0.6357 -0.0228
38391SOL    HW120111   3.697   7.920  10.736 -0.4555  0.0420  0.8224
38391SOL    HW220112   3.836   7.861  10.726 -0.2917  0.5085  0.2839
38392SOL     OW20113   8.038   1.320   0.869  0.0170 -0.1344 -0.8248
38392SOL    HW120114   7.964   1.291   0.923  0.3785 -0.2580 -0.3801
38392SOL    HW220115   8.058   1.408   0.901  0.9364 -0.6280  0.0250
38393SOL     OW20116   7.122   2.197   2.681 -0.7563  0.8482  0.3881
38393SOL    HW120117   7.146   2.207   2.589  0.1464  1.5308  0.6882
38393SOL    HW220118   7.049   2.134   2.679 -0.4936  0.5437 -0.7507
38394SOL     OW20119   5.565   0.255   9.044 -0.2000  0.5829 -0.3254
38394SOL    HW120120   5.642   0.255   9.101  0.3672  2.2771 -1.0276
38394SOL    HW220121   5.494   0.283   9.101 -0.0766  0.1108  0.0667
38395SOL     OW20122  10.839   8.566   0.065 -0.7015 -0.2831  0.0546
38395SOL    HW120123  10.910   8.548   0.003  0.6003 -1.4981  1.8193
38395SOL    HW220124  10.815   8.657   0.048  1.1016  0.0801 -0.7671
38396SOL     OW20125   1.966  10.680   1.035 -0.8630  0.1469  0.4935
38396SOL    HW120126   1.945  10.664   1.127 -4.3276  1.5232  0.1133
38396SOL    HW220127   2.061  10.692   1.033 -0.3338 -2.4490  3.4165
38397SOL     OW20128  10.745   1.450   0.340 -0.1466 -0.0645 -0.2147
38397SOL    HW120129  10.713   1.361   0.354  0.8325 -0.1334  2.0201
38397SOL    HW220130  10.834   1.449   0.376  0.2047  1.5982 -0.9488
38398SOL     OW20131   6.152   7.964   1.014  0.6972  0.1922  0.3366
38398SOL    HW120132   6.154   7.921   0.929  1.7870 -1.6246  1.2369
38398SOL    HW220133   6.235   8.011   1.020  0.7445  0.0869  0.5136
38399SOL     OW20134   5.688   6.639   8.852  0.2256  0.0971  0.3025
38399SOL    HW120135   5.684   6.633   8.948  0.2291  1.3139  0.3990
38399SOL    HW220136   5.645   6.721   8.832 -1.1220 -0.8590 -0.8755
38400SOL     OW20137   4.697   8.729   9.078 -0.2194  0.8680 -1.0764
38400SOL    HW120138   4.703   8.728   8.982  2.8207 -1.5665 -1.0336
38400SOL    HW220139   4.710   8.637   9.103  2.1716  1.8207  1.7105
38401SOL     OW20140   8.583   3.055  11.180 -0.9999 -0.0277 -0.1330
38401SOL    HW120141   8.620   3.143  11.189 -0.2689 -0.3452  0.0995
38401SOL    HW220142   8.575   3.042  11.086  0.1171 -0.1880 -0.2251
38402SOL     OW20143   9.542   1.226   2.045 -0.1170  0.1490 -0.0480
38402SOL    HW120144   9.544   1.248   1.952  0.3442 -0.0279 -0.0800
38402SOL    HW220145   9.453   1.193   2.059  0.6630 -2.6773 -1.0940
38403SOL     OW20146   4.981   7.549  11.384  0.0071 -0.1095 -0.1144
38403SOL    HW120147   4.949   7.635  11.358  0.5998  0.0388 -0.3717
38403SOL    HW220148   5.072   7.564  11.410 -0.0133 -0.5856  0.2486
38404SOL     OW20149  11.310   8.025   3.011  0.2255 -0.3850  0.0623
38404SOL    HW120150  11.337   7.978   2.933 -0.6223 -0.2759 -0.3090
38404SOL    HW220151  11.318   7.961   3.082  1.1257 -0.4415 -0.0849
38405SOL     OW20152   1.056   0.246   5.718 -0.0643  0.1620 -0.1819
38405SOL    HW120153   1.047   0.151   5.718 -0.0983  0.1569  0.5732
38405SOL    HW220154   0.970   0.279   5.745  0.1688  0.3752  0.3127
38406SOL     OW20155   5.907   6.485   2.287 -0.0481 -0.4107  0.1011
38406SOL    HW120156   5.918   6.429   2.211 -0.0780  0.6161 -0.6849
38406SOL    HW220157   5.992   6.528   2.299 -0.1246 -0.3559  0.4787
38407SOL     OW20158   4.491   6.394   4.481  0.2437 -0.2360  0.1508
38407SOL    HW120159   4.433   6.367   4.410  0.2404  0.7239 -0.2320
38407SOL    HW220160   4.579   6.376   4.449  0.2715  0.6600 -0.3319
38408SOL     OW20161   3.117   0.278   3.228  0.1209 -0.1122 -0.0135
38408SOL    HW120162   3.034   0.250   3.190 -0.4751 -0.4240  1.4552
38408SOL    HW220163   3.092   0.330   3.304  1.2582 -0.6969  0.7843
38409SOL     OW20164   9.813   9.945   2.251 -0.1160  0.1638 -0.1632
38409SOL    HW120165   9.799   9.974   2.341  0.4655 -1.5280  0.5052
38409SOL    HW220166   9.724   9.938   2.215 -0.3821  0.3528  0.4390
38410SOL     OW20167  11.202   0.296   9.497 -0.1534  0.0273  0.2415
38410SOL    HW120168  11.161   0.270   9.579  0.0345 -0.8847  0.0501
38410SOL    HW220169  11.159   0.242   9.430 -0.3501  0.8039 -0.2789
38411SOL     OW20170   7.111   0.792   8.000 -0.2386 -0.2322 -0.4105
38411SOL    HW120171   7.043   0.798   8.068  0.2151  0.1281  0.0199
38411SOL    HW220172   7.151   0.879   7.998 -1.5314  0.4006 -2.5240
38412SOL     OW20173   2.455   5.068  10.421 -0.0145 -0.0624 -0.2266
38412SOL    HW120174   2.515   5.094  10.351  0.0412 -2.8142 -1.3222
38412SOL    HW220175   2.370   5.061  10.379 -0.3196 -0.0414  0.3775
38413SOL     OW20176   4.133   6.752   6.906  0.6435 -0.3960 -0.2484
38413SOL    HW120177   4.173   6.666   6.890  0.0812 -0.4339 -1.6630
38413SOL    HW220178   4.180   6.812   6.848 -0.6262 -0.2572 -1.1952
38414SOL     OW20179   3.323   1.226   5.845 -0.3582 -0.3695  0.0694
38414SOL    HW120180   3.328   1.190   5.933  1.3288 -0.6982 -0.1334
38414SOL    HW220181   3.402   1.196   5.801 -0.6300  0.6756 -1.2338
38415SOL     OW20182   4.631   7.283   5.256  0.4787  0.8101 -0.1707
38415SOL    HW120183   4.706   7.330   5.218  0.5807  2.2667  1.6920
38415SOL    HW220184   4.636   7.302   5.349 -0.4218 -1.6864  0.4535
38416SOL     OW20185   2.238   5.737   4.494  0.5347  0.3364 -0.1168
38416SOL    HW120186   2.242   5.659   4.549 -1.0271  0.4957  0.2752
38416SOL    HW220187   2.292   5.716   4.418  1.5854 -0.4278  0.7989
38417SOL     OW20188   0.407   8.027   4.694 -0.1640 -0.4707  0.0343
38417SOL    HW120189   0.430   8.077   4.616 -0.2902  3.6075  2.3510
38417SOL    HW220190   0.314   8.042   4.707 -0.1585 -1.1028  0.9753
38418SOL     OW20191  11.535   3.448   8.385  0.2642 -0.0763  0.0762
38418SOL    HW120192  11.610   3.506   8.373 -0.5804  1.2212  0.7795
38418SOL    HW220193  11.509   3.462   8.476  0.3963 -2.0546  0.4559
38419SOL     OW20194   3.982   8.971   0.095 -0.2971  0.6143 -0.5846
38419SOL    HW120195   4.041   8.946   0.166 -2.1219  1.4759  1.3197
38419SOL    HW220196   3.932   8.891   0.077  0.6343  0.1984 -1.4333
38420SOL     OW20197   4.651   4.474   1.344 -0.2830  0.6231 -0.6105
38420SOL    HW120198   4.714   4.544   1.358 -0.0449  0.2270  0.3445
38420SOL    HW220199   4.598   4.472   1.424  0.1878 -0.7526 -0.3027
38421SOL     OW20200   2.217   0.540   6.862 -0.2473  0.1491  0.3536
38421SOL    HW120201   2.305   0.570   6.885 -0.0398  0.1638 -0.4445
38421SOL    HW220202   2.174   0.525   6.946  0.4255  0.4128  0.7481
38422SOL     OW20203   0.521   2.270   1.692 -0.1042 -0.4952  0.1424
38422SOL    HW120204   0.549   2.193   1.740  1.0951 -0.0553  0.1691
38422SOL    HW220205   0.428   2.254   1.675 -0.3378 -1.0777  1.7707
38423SOL     OW20206   8.259   8.211   6.429  0.0666 -0.0091 -0.4049
38423SOL    HW120207   8.285   8.137   6.373 -0.0093  0.4665 -1.0886
38423SOL    HW220208   8.230   8.278   6.367  1.4948  1.1285  0.1064
38424SOL     OW20209  10.185   9.852   5.215 -0.4548  0.0855 -0.7830
38424SOL    HW120210  10.224   9.935   5.188  0.0752  0.3822  0.8181
38424SOL    HW220211  10.258   9.802   5.251 -1.1804 -0.1508  0.4012
38425SOL     OW20212   8.661   6.310   7.147 -0.0697  0.2977  0.2879
38425SOL    HW120213   8.680   6.235   7.090  1.0078 -0.1030  1.1309
38425SOL    HW220214   8.747   6.338   7.179 -0.4786  1.7605  0.1730
38426SOL     OW20215   2.560  11.457  11.665  0.2791  0.6532  0.1943
38426SOL    HW120216   2.504  11.403  11.610  0.5751 -0.1083  0.6204
38426SOL    HW220217   2.582  11.532  11.611  0.4177  0.0126 -0.6676
38427SOL     OW20218   4.899   5.495   5.987 -0.3465 -0.5825 -0.6118
38427SOL    HW120219   4.988   5.465   6.006  0.8558  3.3028  0.7578
38427SOL    HW220220   4.880   5.460   5.900  1.4951 -3.4527 -0.0159
38428SOL     OW20221   5.504   5.726   7.297 -0.6103 -0.5769  0.3402
38428SOL    HW120222   5.523   5.800   7.355 -1.1746 -1.1833  1.3258
38428SOL    HW220223   5.590   5.688   7.278 -0.3298  0.2162 -0.0444
38429SOL     OW20224   2.359  11.585   9.329 -0.4958  0.1944  0.1735
38429SOL    HW120225   2.404  11.562   9.247  0.0265 -0.5135  0.6422
38429SOL    HW220226   2.430  11.612   9.388 -0.4356 -2.3249  1.4050
38430SOL     OW20227   9.211   4.568   4.812  0.3815 -0.6808  0.0545
38430SOL    HW120228   9.263   4.525   4.879  1.6875  0.9477  0.1621
38430SOL    HW220229   9.271   4.578   4.738 -0.2953 -0.2780 -0.4540
38431SOL     OW20230  11.607   0.274   2.133  0.1776  0.1788  0.2263
38431SOL    HW120231  11.694   0.310   2.147  0.5805 -0.6761  0.0310
38431SOL    HW220232  11.547   0.344   2.158  0.9111  0.5221  1.0697
38432SOL     OW20233   3.575   8.067  10.794  0.1267 -0.3741 -0.3692
38432SOL    HW120234   3.508   8.004  10.767 -0.4562 -0.0320  0.2352
38432SOL    HW220235   3.556   8.084  10.886  1.8389 -1.2256  0.1874
38433SOL     OW20236   7.823   3.824   7.879 -0.0638 -0.1524  0.4028
38433SOL    HW120237   7.736   3.787   7.895  0.6627 -2.1867 -0.0087
38433SOL    HW220238   7.866   3.820   7.964  0.0887 -0.5034  0.3125
38434SOL     OW20239   0.252   0.586   8.311 -0.2346 -0.0745  0.3910
38434SOL    HW120240   0.260   0.639   8.232  0.6599  0.6812  0.9747
38434SOL    HW220241   0.342   0.563   8.335 -0.3779  0.7869  1.9005
38435SOL     OW20242   3.046   9.977   8.580  0.3778 -0.2919 -0.5954
38435SOL    HW120243   2.951   9.978   8.571  0.0903 -0.7943  1.8576
38435SOL    HW220244   3.071   9.887   8.557  0.3946  0.0543 -2.0312
38436SOL     OW20245   0.014   9.080   9.466  0.2740  0.0543  0.1517
38436SOL    HW120246   0.063   9.027   9.529  3.0946  2.4649  0.2534
38436SOL    HW220247   0.053   9.059   9.381  0.0250  0.4802 -0.0739
38437SOL     OW20248   7.252   1.069   1.404  0.3314 -0.2954 -0.2038
38437SOL    HW120249   7.306   1.147   1.403 -1.0610  0.7368  0.6518
38437SOL    HW220250   7.194   1.078   1.329  0.4381 -0.7189 -0.3419
38438SOL     OW20251   2.057  11.040   9.541  0.3030  0.0023 -0.3663
38438SOL    HW120252   2.038  11.133   9.536 -1.0127 -0.1921  0.5976
38438SOL    HW220253   2.084  11.025   9.631 -0.4839 -0.7127 -0.2328
38439SOL     OW20254   0.543   7.330   0.691  0.2737 -0.2906  0.3668
38439SOL    HW120255   0.483   7.380   0.745  1.2715 -0.5646  1.7652
38439SOL    HW220256   0.535   7.370   0.604 -0.5127  0.8870  0.9481
38440SOL     OW20257   2.599   7.807   1.495 -0.1353  0.4386  0.2667
38440SOL    HW120258   2.605   7.723   1.449 -0.3351  0.9391 -0.6727
38440SOL    HW220259   2.682   7.851   1.477 -0.1922  0.6191  0.4406
38441SOL     OW20260   3.623  10.531   5.389 -0.0530 -0.1293 -0.0651
38441SOL    HW120261   3.614  10.479   5.469  1.2162  1.0002  0.8605
38441SOL    HW220262   3.553  10.595   5.394 -0.1030 -0.1928  0.0509
38442SOL     OW20263  11.073   6.444  10.368 -0.1433 -0.1636 -0.0448
38442SOL    HW120264  11.103   6.383  10.435 -3.2235  0.3252  1.9483
38442SOL    HW220265  11.095   6.531  10.402  0.1824  0.0233 -0.7138
38443SOL     OW20266   6.951   8.843   5.438  0.0416 -0.0407  0.3877
38443SOL    HW120267   7.025   8.903   5.431 -0.1644  0.8829  3.8395
38443SOL    HW220268   6.890   8.888   5.497 -1.1240 -2.7198  1.3825
38444SOL     OW20269   0.579   3.429   0.564  0.2145 -0.3014 -0.1601
38444SOL    HW120270   0.651   3.459   0.618  0.2764 -1.1221  0.2304
38444SOL    HW220271   0.605   3.449   0.474 -0.1083  1.5261  0.1260
38445SOL     OW20272   6.540   2.852   9.438 -0.0039 -0.4131  0.0881
38445SOL    HW120273   6.497   2.937   9.447 -1.3599 -0.8718 -1.5951
38445SOL    HW220274   6.620   2.871   9.388  0.2029  0.0072  0.5728
38446SOL     OW20275   3.163   5.648   5.420 -0.0928 -0.3692 -0.4347
38446SOL    HW120276   3.131   5.669   5.508 -0.3537  1.3533 -0.8986
38446SOL    HW220277   3.257   5.668   5.423  0.3854 -2.4040  0.0244
38447SOL     OW20278  10.433   0.793   4.779 -0.0878  0.2323 -1.0083
38447SOL    HW120279  10.373   0.758   4.713 -0.8145 -2.3455  0.9016
38447SOL    HW220280  10.420   0.738   4.856  2.3254  1.7293  0.6024
38448SOL     OW20281   0.455  10.729   3.091  0.2459 -0.3086  0.4024
38448SOL    HW120282   0.459  10.818   3.126 -2.1707 -0.3630  1.0191
38448SOL    HW220283   0.543  10.694   3.104  1.5036  2.2296 -0.6458
38449SOL     OW20284   9.224   6.780   5.884  0.3977 -0.1803 -0.1521
38449SOL    HW120285   9.255   6.701   5.841  0.8394  0.8001 -1.6995
38449SOL    HW220286   9.216   6.844   5.814 -0.2518  1.0671  1.0159
38450SOL     OW20287   9.409   6.969   0.529 -0.0894 -0.3954 -0.4892
38450SOL    HW120288   9.375   7.043   0.579 -0.1583 -0.4926 -0.3914
38450SOL    HW220289   9.485   6.939   0.580  0.3724  0.0516 -0.8966
38451SOL     OW20290   0.195   5.081  10.836 -0.8176 -0.2545 -0.3847
38451SOL    HW120291   0.287   5.094  10.812 -1.0554 -0.9001 -1.7550
38451SOL    HW220292   0.190   5.105  10.929  0.4016  1.3065 -0.6895
38452SOL     OW20293   7.500   4.053  10.683  0.3292  0.2834 -0.0168
38452SOL    HW120294   7.574   3.996  10.701 -0.1365 -0.2444  0.2396
38452SOL    HW220295   7.453   4.059  10.767 -0.6992 -0.5263 -0.5113
38453SOL     OW20296   5.510   0.678   9.602  0.2316 -0.2819 -0.3214
38453SOL    HW120297   5.434   0.632   9.566 -0.1866 -0.8876  1.2297
38453SOL    HW220298   5.533   0.742   9.535 -1.7259  0.0040 -0.7987
38454SOL     OW20299  10.644   6.768   4.810  0.1374  0.0478 -0.1434
38454SOL    HW120300  10.587   6.839   4.781  0.2361  0.1248 -0.1472
38454SOL    HW220301  10.709   6.810   4.866 -1.0835 -0.3383  1.6182
38455SOL     OW20302   5.884   0.947   8.364  0.4048  0.0713 -0.3035
38455SOL    HW120303   5.909   1.035   8.393  0.2561  0.2276 -0.6473
38455SOL    HW220304   5.820   0.918   8.428 -0.3606  0.6471 -0.7785
38456SOL     OW20305   4.598   7.655  10.320  0.0886 -0.6653 -0.6230
38456SOL    HW120306   4.660   7.584  10.336 -0.1525 -0.4476  1.6177
38456SOL    HW220307   4.651   7.725  10.282  0.9135 -1.0270 -0.1771
38457SOL     OW20308   9.864   7.747   7.533 -0.1545  0.1675 -0.0067
38457SOL    HW120309   9.832   7.811   7.469 -1.0857 -0.3492 -0.0846
38457SOL    HW220310   9.958   7.741   7.516 -0.5760 -1.1006 -2.4600
38458SOL     OW20311   5.454   7.978   8.131 -0.8163  0.0089 -0.3340
38458SOL    HW120312   5.445   7.883   8.142 -3.3807  0.2381 -0.0535
38458SOL    HW220313   5.547   7.995   8.150  0.2598 -2.6655 -2.4629
38459SOL     OW20314   8.433   4.186   7.631 -0.0753 -0.4799  0.3653
38459SOL    HW120315   8.368   4.121   7.604  0.6571 -0.9724 -0.2130
38459SOL    HW220316   8.485   4.142   7.698 -0.2882 -0.0991  0.7930
38460SOL     OW20317   3.371   7.593   6.415 -0.1490  0.3625  0.6055
38460SOL    HW120318   3.346   7.504   6.438  1.1066 -0.3901 -0.7629
38460SOL    HW220319   3.305   7.622   6.352  0.0990 -0.0402  0.1623
38461SOL     OW20320   9.477  11.147   8.223 -0.1785 -0.1324  0.2038
38461SOL    HW120321   9.563  11.173   8.191 -1.0175  1.7918 -0.6158
38461SOL    HW220322   9.442  11.091   8.155  0.7940 -1.7948  1.0098
38462SOL     OW20323   9.251   6.442  10.751 -0.3451  0.0047  0.4215
38462SOL    HW120324   9.226   6.358  10.712  1.1294  1.3342 -4.0500
38462SOL    HW220325   9.321   6.421  10.812 -0.6068 -2.1123  0.0511
38463SOL     OW20326   4.209   5.698   4.487  0.3463  0.3693 -0.4697
38463SOL    HW120327   4.172   5.615   4.456  1.7628 -0.2872 -0.4651
38463SOL    HW220328   4.233   5.745   4.407  1.4810 -0.1491 -0.4507
38464SOL     OW20329   0.369  11.591   9.901  0.2426  0.1822 -0.1090
38464SOL    HW120330   0.414  11.506   9.908 -0.9724 -0.4471  0.2403
38464SOL    HW220331   0.367  11.609   9.807  0.8871  0.0439 -0.1602
38465SOL     OW20332   2.369   3.257   8.456 -0.1274 -0.3518  0.0112
38465SOL    HW120333   2.398   3.197   8.525  3.5257  1.5054  0.3813
38465SOL    HW220334   2.350   3.338   8.502 -0.4737  0.0801 -0.8818
38466SOL     OW20335   5.294   3.977   2.661 -0.2321  0.5989 -0.3434
38466SOL    HW120336   5.238   4.053   2.644  1.1613  1.5744 -0.7359
38466SOL    HW220337   5.265   3.945   2.746 -0.6853  1.7235 -0.0562
38467SOL     OW20338   5.038   2.922   8.975  0.3810  0.4219 -0.3220
38467SOL    HW120339   4.960   2.923   9.031 -0.6612  2.3745 -1.6992
38467SOL    HW220340   5.092   2.851   9.011 -1.2632  0.0860  1.6914
38468SOL     OW20341   1.479   5.956   0.833  0.1117  0.1213 -0.5170
38468SOL    HW120342   1.496   5.862   0.844  1.6417  0.5440  1.1863
38468SOL    HW220343   1.385   5.966   0.849  0.1860 -0.9429  0.6671
38469SOL     OW20344   1.781   3.951   0.139  0.2048  0.0101  0.0358
38469SOL    HW120345   1.864   3.912   0.111  0.6805  1.2187 -0.3072
38469SOL    HW220346   1.802   3.995   0.222  0.5909  2.5060 -1.2982
38470SOL     OW20347   7.644  10.032   2.877 -0.6728  0.1476  0.2817
38470SOL    HW120348   7.563  10.008   2.924 -2.1434 -1.2630 -2.6977
38470SOL    HW220349   7.614  10.058   2.790  1.9935  1.3420 -0.3704
38471SOL     OW20350   6.599   6.824   2.458  0.6051 -0.0574 -0.2404
38471SOL    HW120351   6.654   6.766   2.511 -0.2769  0.6634  1.5634
38471SOL    HW220352   6.660   6.869   2.400  1.5956 -1.0147  0.0197
38472SOL     OW20353  10.166   9.196   4.811 -0.6645 -0.4206 -0.3844
38472SOL    HW120354  10.147   9.290   4.816 -0.2908 -0.4068  1.3931
38472SOL    HW220355  10.094   9.155   4.860  0.8540 -0.7652  1.7026
38473SOL     OW20356   0.623   3.236  11.335  0.2879  0.1537  0.3433
38473SOL    HW120357   0.688   3.304  11.317  1.6405 -1.0769  0.3816
38473SOL    HW220358   0.558   3.279  11.391  0.3231  1.7968 -0.7954
38474SOL     OW20359   8.590   9.786   1.456  0.5482  0.5287  0.8964
38474SOL    HW120360   8.662   9.788   1.393 -0.7158  0.7757 -0.5978
38474SOL    HW220361   8.552   9.699   1.446  0.9807  0.1810  2.1159
38475SOL     OW20362   0.515   9.495   5.336  0.0227 -0.5662  0.4048
38475SOL    HW120363   0.452   9.513   5.267  1.6253  2.2870 -0.5115
38475SOL    HW220364   0.553   9.411   5.314 -0.6645 -0.4671 -1.2691
38476SOL     OW20365   4.227   0.121   3.516 -0.1356 -0.7215  0.3907
38476SOL    HW120366   4.297   0.066   3.481  1.0363  0.6025  0.5472
38476SOL    HW220367   4.254   0.139   3.606  0.5303  1.6254 -0.2136
38477SOL     OW20368   8.752   8.699   3.513  0.4724  0.3280 -0.0515
38477SOL    HW120369   8.711   8.626   3.559 -1.6288  2.4394  1.6911
38477SOL    HW220370   8.820   8.730   3.573 -0.8610  1.7795  0.7800
38478SOL     OW20371   0.605   9.097   8.211 -0.3022 -0.5039 -0.4437
38478SOL    HW120372   0.520   9.111   8.252 -1.1090 -1.5732 -1.6820
38478SOL    HW220373   0.596   9.133   8.123  0.4941 -0.7367 -0.6323
38479SOL     OW20374   6.400  11.025   6.951  0.5299  0.3644  0.0337
38479SOL    HW120375   6.401  11.096   6.886  0.2915  0.4868  0.1602
38479SOL    HW220376   6.390  11.069   7.035  1.2259  0.2263  0.1893
38480SOL     OW20377   7.881   1.420   2.143  0.1075 -0.4973 -0.5969
38480SOL    HW120378   7.822   1.350   2.115  1.3465 -1.9635  0.2686
38480SOL    HW220379   7.932   1.442   2.064 -1.5851  0.8441 -1.3700
38481SOL     OW20380   3.931   5.887  10.977 -1.2301 -0.1587  0.4217
38481SOL    HW120381   3.931   5.926  11.064 -2.3886 -1.7861  1.2045
38481SOL    HW220382   3.937   5.793  10.993  1.3667 -0.4299 -1.3774
38482SOL     OW20383  10.070   4.384  11.053  0.1017  0.3618 -0.5286
38482SOL    HW120384  10.055   4.383  10.959  0.9138 -0.6783 -0.6561
38482SOL    HW220385  10.151   4.336  11.066 -1.4304 -2.0332  0.9237
38483SOL     OW20386   1.527   5.472  10.608 -1.0357  0.6384 -1.0402
38483SOL    HW120387   1.477   5.537  10.656 -0.4895 -0.1736  0.7020
38483SOL    HW220388   1.469   5.396  10.602 -0.0815 -0.3348  1.0544
38484SOL     OW20389   0.801   4.392   6.090 -0.8096 -0.3239  0.2317
38484SOL    HW120390   0.887   4.360   6.060 -1.9540 -1.9874 -1.4961
38484SOL    HW220391   0.802   4.485   6.070  0.1151 -0.5687 -0.9742
38485SOL     OW20392   9.243   2.689   9.426 -0.2639 -0.0440 -0.4329
38485SOL    HW120393   9.189   2.767   9.443 -2.3798 -1.3807 -0.6844
38485SOL    HW220394   9.189   2.635   9.369  1.2872 -1.5797 -0.5045
38486SOL     OW20395   8.926  11.038  11.211  0.0538  0.1174  0.3719
38486SOL    HW120396   8.844  10.988  11.206  0.0769  0.1831 -0.9388
38486SOL    HW220397   8.990  10.976  11.244  0.1441 -0.8465 -1.4958
38487SOL     OW20398   2.768   2.539   0.629  0.6714 -0.1012  0.0774
38487SOL    HW120399   2.781   2.473   0.697  0.5491 -1.6211 -1.3253
38487SOL    HW220400   2.684   2.580   0.651  0.2966 -1.0586  0.4599
38488SOL     OW20401   7.333   2.666   8.613 -0.0216 -0.4257  0.5012
38488SOL    HW120402   7.423   2.636   8.601  0.5152  0.5177  1.9801
38488SOL    HW220403   7.337   2.727   8.686 -1.4007  1.7654 -1.1325
38489SOL     OW20404  10.144   9.411  11.678 -0.0124 -0.1137  0.3098
38489SOL    HW120405  10.157   9.362  11.759 -0.3999 -0.5969  0.0850
38489SOL    HW220406  10.226   9.459  11.666  0.0022  0.0537  1.0444
38490SOL     OW20407   6.599   9.409   4.609 -0.0163  0.0681  0.4089
38490SOL    HW120408   6.622   9.347   4.540  2.0349 -1.4527  2.3424
38490SOL    HW220409   6.552   9.357   4.674  0.5845  0.8367  1.4743
38491SOL     OW20410   3.377   9.134   3.780  0.3549  0.1106  0.2060
38491SOL    HW120411   3.291   9.153   3.817  0.1742  0.2258 -0.2713
38491SOL    HW220412   3.413   9.220   3.756  0.5349  0.0501  0.2590
38492SOL     OW20413   4.518   3.860   0.660  0.6433 -0.2866  0.0537
38492SOL    HW120414   4.467   3.940   0.648 -0.3010 -1.0175 -1.0017
38492SOL    HW220415   4.585   3.863   0.591  2.7042  1.1125  1.9864
38493SOL     OW20416   3.742  11.592   6.956  0.2250  0.2697 -0.2121
38493SOL    HW120417   3.813  11.533   6.981 -0.2249 -0.2718 -0.1726
38493SOL    HW220418   3.785  11.663   6.908  0.5603 -1.3780 -2.5443
38494SOL     OW20419   9.957   3.642   0.779  0.4421 -0.2105  0.5002
38494SOL    HW120420   9.961   3.736   0.800 -0.0639  0.2033 -1.1504
38494SOL    HW220421   9.869   3.629   0.743  0.3879 -1.4028  1.0092
38495SOL     OW20422   4.891   5.066   4.596  0.2169  0.0168 -0.4356
38495SOL    HW120423   4.846   4.996   4.548  0.3323 -0.3668  0.0069
38495SOL    HW220424   4.828   5.138   4.598  0.4760  0.3132 -1.7922
38496SOL     OW20425   5.279   1.297   7.981  0.3189 -0.1229 -0.3710
38496SOL    HW120426   5.322   1.366   8.032  0.5933 -1.0163  0.6550
38496SOL    HW220427   5.340   1.223   7.983 -0.4127 -0.7509 -0.5523
38497SOL     OW20428   0.346   7.256   7.215 -0.8511 -0.2692  0.3992
38497SOL    HW120429   0.325   7.173   7.257 -0.3971 -0.0613  1.0505
38497SOL    HW220430   0.438   7.272   7.238 -0.8154  0.2036 -0.0689
38498SOL     OW20431   8.311   7.049   4.331 -0.0890 -0.2704  0.6543
38498SOL    HW120432   8.291   6.956   4.330  0.2418 -0.3463 -0.6778
38498SOL    HW220433   8.246   7.088   4.273 -0.1021  0.3115  1.0455
38499SOL     OW20434   0.958   2.776   3.785 -0.2603 -0.0868 -0.7366
38499SOL    HW120435   0.925   2.686   3.784  0.1053 -0.2217 -0.5504
38499SOL    HW220436   0.997   2.786   3.871 -1.0233  0.5129 -0.4525
38500SOL     OW20437  11.239   6.547   5.285 -0.0697 -0.3021 -0.0670
38500SOL    HW120438  11.186   6.536   5.206 -2.0695  0.1776  1.1352
38500SOL    HW220439  11.279   6.461   5.300 -0.8212 -0.7867 -0.8007
38501SOL     OW20440   4.178   2.262   5.339 -0.3974  0.1368  0.4231
38501SOL    HW120441   4.126   2.197   5.292  0.0973  0.2750 -0.3405
38501SOL    HW220442   4.216   2.317   5.270 -1.0731  1.4493  1.0615
38502SOL     OW20443   3.150   3.134   6.891  0.6863  0.5142  0.7127
38502SOL    HW120444   3.070   3.186   6.903  0.1871 -0.2032  0.5760
38502SOL    HW220445   3.162   3.130   6.796  0.9016  0.6442  0.7340
38503SOL     OW20446   7.907   0.219   3.058 -0.0431  0.0476 -0.2384
38503SOL    HW120447   7.983   0.261   3.099  0.4353 -1.0124  0.0091
38503SOL    HW220448   7.832   0.268   3.091  0.5316  1.2322 -0.6294
38504SOL     OW20449   8.166   8.850   2.683  0.5197 -0.0205 -0.3045
38504SOL    HW120450   8.169   8.815   2.594  0.2215 -0.1843 -0.2548
38504SOL    HW220451   8.193   8.776   2.738 -2.0010 -0.8518 -0.0308
38505SOL     OW20452   8.697  10.086   5.897  0.1758 -0.4048  0.1841
38505SOL    HW120453   8.690   9.991   5.890 -0.4547 -0.3346 -0.2244
38505SOL    HW220454   8.648  10.119   5.822  1.2138  0.2271 -0.2463
38506SOL     OW20455   3.676   6.774   7.049  0.1720 -0.4430 -0.1325
38506SOL    HW120456   3.751   6.730   7.009  0.6862 -1.1508  1.5491
38506SOL    HW220457   3.715   6.839   7.108 -0.5585  0.0551 -0.1887
38507SOL     OW20458  11.614   4.196   0.402 -0.1432 -0.1409 -0.1197
38507SOL    HW120459  11.520   4.187   0.421 -0.2177 -1.4102 -0.9654
38507SOL    HW220460  11.618   4.205   0.307  0.7296 -3.1639 -0.4636
38508SOL     OW20461   8.981   6.704   3.094 -0.2443 -0.0712  0.8009
38508SOL    HW120462   8.944   6.771   3.151 -0.6362  0.4728 -0.0684
38508SOL    HW220463   8.971   6.622   3.143 -1.7847  0.1847  0.9675
38509SOL     OW20464   7.999   9.772   5.595 -0.4706  0.0034 -0.2352
38509SOL    HW120465   7.951   9.693   5.620 -0.9590  0.2662 -0.3257
38509SOL    HW220466   7.932   9.840   5.591 -0.4077 -0.0006 -2.1849
38510SOL     OW20467   2.690   7.334   2.919  0.0758 -0.0303 -0.2145
38510SOL    HW120468   2.768   7.389   2.932 -0.3062  1.0247 -1.9879
38510SOL    HW220469   2.723   7.254   2.879  0.5201 -0.6792  1.4058
38511SOL     OW20470   8.411  10.602   4.645  0.1609  0.0600  0.4223
38511SOL    HW120471   8.476  10.577   4.710  1.6824 -0.6027 -1.2468
38511SOL    HW220472   8.424  10.540   4.573 -0.7829  1.3371 -0.9185
38512SOL     OW20473   6.193   0.809  10.346 -0.2993  0.1671  0.3412
38512SOL    HW120474   6.227   0.747  10.280 -0.0855  0.8216 -0.1765
38512SOL    HW220475   6.131   0.758  10.397 -0.8300 -0.2353 -0.6784
38513SOL     OW20476   9.780   3.738   4.283  0.1211 -0.2471 -0.6641
38513SOL    HW120477   9.852   3.689   4.243 -0.6255 -1.3627 -0.6964
38513SOL    HW220478   9.757   3.804   4.219  0.3848 -0.6171 -1.1443
38514SOL     OW20479   9.716  11.043   8.495 -0.1075  0.9372  0.0293
38514SOL    HW120480   9.647  10.978   8.483  0.7592 -0.1057  0.5252
38514SOL    HW220481   9.685  11.098   8.568  0.2274 -0.4508  1.2695
38515SOL     OW20482  11.092   7.878   3.243 -0.3092  0.4855  0.0063
38515SOL    HW120483  11.022   7.813   3.242  0.1024 -0.0259  1.5566
38515SOL    HW220484  11.171   7.829   3.218  0.3101 -0.0828  2.7514
38516SOL     OW20485   1.755   6.303   7.850 -0.0894 -0.2747 -0.2507
38516SOL    HW120486   1.665   6.271   7.840 -0.1853  0.0793 -0.5398
38516SOL    HW220487   1.799   6.276   7.769 -0.4616  1.2678 -1.0022
38517SOL     OW20488  11.057   3.679   2.160  0.1889  0.1540  0.0339
38517SOL    HW120489  10.986   3.698   2.222  0.1183 -0.3870  0.1247
38517SOL    HW220490  11.135   3.715   2.202  0.6303 -2.5819  1.7846
38518SOL     OW20491  10.709   4.824   5.072  0.1681 -0.3312  0.3157
38518SOL    HW120492  10.791   4.776   5.082  0.8797  1.1051  1.7209
38518SOL    HW220493  10.700   4.835   4.977  1.2748 -1.0259  0.1063
38519SOL     OW20494   2.974  10.501   2.332  0.2806 -0.3851  0.2776
38519SOL    HW120495   2.918  10.550   2.271  0.7602  0.5056  0.5437
38519SOL    HW220496   3.014  10.433   2.279  0.0484 -0.1310 -0.2246
38520SOL     OW20497   9.949  10.725   8.216  0.3296 -0.2706 -0.6471
38520SOL    HW120498   9.993  10.734   8.132 -0.1695 -0.5845 -0.9453
38520SOL    HW220499   9.856  10.736   8.196 -0.2620 -4.1744 -0.8477
38521SOL     OW20500   4.786   2.752   2.937  0.4562  0.2898 -0.3656
38521SOL    HW120501   4.694   2.747   2.910  0.6979 -2.3288 -0.9177
38521SOL    HW220502   4.785   2.811   3.013 -1.5063  1.0604 -0.9223
38522SOL     OW20503   1.023   5.121   7.276 -0.4248 -0.7703  0.1526
38522SOL    HW120504   1.027   5.026   7.288 -1.0335 -0.8255 -0.0688
38522SOL    HW220505   0.929   5.141   7.272 -0.3043 -0.3648 -1.3987
38523SOL     OW20506   9.016   5.496  10.722 -0.0741  0.0758 -0.3109
38523SOL    HW120507   8.966   5.568  10.760  0.5351  1.2782 -1.6850
38523SOL    HW220508   8.995   5.500  10.628  1.8323  0.0041 -0.7683
38524SOL     OW20509  11.275   1.036   8.550 -0.2482 -0.2271 -0.4961
38524SOL    HW120510  11.351   1.085   8.580  0.9426 -1.5539 -1.2262
38524SOL    HW220511  11.295   0.945   8.572 -1.5979 -0.6121 -0.7729
38525SOL     OW20512   2.108   1.129   4.948 -0.5768 -0.0607 -0.2295
38525SOL    HW120513   2.151   1.108   5.031  0.3897 -1.5155 -1.0575
38525SOL    HW220514   2.064   1.212   4.964  0.1218  0.0059  1.5435
38526SOL     OW20515  11.269   6.307   1.925  0.0488 -0.1811 -0.1977
38526SOL    HW120516  11.275   6.389   1.876  0.2143  1.0782  1.7865
38526SOL    HW220517  11.177   6.282   1.920 -0.3693  1.1004  0.6009
38527SOL     OW20518   8.719  11.294  11.242 -0.1039  0.8265  0.1273
38527SOL    HW120519   8.662  11.361  11.279 -1.7158 -0.6768  0.5078
38527SOL    HW220520   8.659  11.229  11.205  1.4148  0.3202 -1.6022
38528SOL     OW20521   4.110   1.969  10.187 -0.2673 -1.0865 -0.4458
38528SOL    HW120522   4.050   1.895  10.195  0.1337 -1.4750 -0.9569
38528SOL    HW220523   4.066   2.030  10.128 -0.5651 -0.9444 -0.0823
38529SOL     OW20524   4.149   4.963   6.435  1.1007 -0.2275 -0.5027
38529SOL    HW120525   4.200   4.912   6.373  1.9555 -0.4814  0.3835
38529SOL    HW220526   4.211   4.985   6.505 -0.7054 -3.9822  2.7256
38530SOL     OW20527   1.792   1.156   2.370  0.5361 -0.6439  0.0806
38530SOL    HW120528   1.743   1.208   2.434 -0.0680 -0.1043 -0.8040
38530SOL    HW220529   1.744   1.167   2.288  0.8965 -1.8926 -0.3220
38531SOL     OW20530   4.647   0.761   6.248 -0.2661  0.2227  0.4474
38531SOL    HW120531   4.668   0.757   6.341 -0.3723  1.2024  0.5276
38531SOL    HW220532   4.664   0.673   6.215 -0.8733 -0.3193  1.5284
38532SOL     OW20533   8.501   5.479   6.649 -0.2305 -0.2932  0.5407
38532SOL    HW120534   8.426   5.422   6.637 -0.9735  1.0633 -2.1805
38532SOL    HW220535   8.465   5.561   6.684 -0.1624  0.4398 -0.9773
38533SOL     OW20536  11.095   7.646   8.459 -0.2430 -0.0581  0.4390
38533SOL    HW120537  11.094   7.661   8.365  0.8235  1.5421  0.6339
38533SOL    HW220538  11.119   7.554   8.469 -1.5629 -0.5830 -0.8390
38534SOL     OW20539   4.694   0.642   2.442 -0.5644  0.6404 -0.4714
38534SOL    HW120540   4.714   0.679   2.356 -0.0794  1.2940 -0.0924
38534SOL    HW220541   4.758   0.682   2.500  0.7827 -1.6859 -0.2096
38535SOL     OW20542  10.841  10.077   1.916  0.0217  0.0836  0.3486
38535SOL    HW120543  10.906  10.128   1.869 -0.3906 -1.3489 -1.9504
38535SOL    HW220544  10.890  10.002   1.950 -0.2643 -0.6884 -0.8757
38536SOL     OW20545   9.797   9.844  11.471 -0.5721  0.2771 -0.4844
38536SOL    HW120546   9.758   9.829  11.385  0.4046 -2.1837 -0.5565
38536SOL    HW220547   9.803   9.758  11.511  0.6142  1.1424  1.3607
38537SOL     OW20548   1.469   9.045   6.595  0.3433 -0.4148 -0.1140
38537SOL    HW120549   1.478   8.986   6.669 -0.6841 -1.3514 -0.7016
38537SOL    HW220550   1.557   9.080   6.580  0.4872  0.0929  1.7649
38538SOL     OW20551   6.533   3.746  11.209 -0.0589 -0.1291  0.2041
38538SOL    HW120552   6.461   3.805  11.186 -0.8100 -1.1734 -0.2054
38538SOL    HW220553   6.514   3.666  11.161  1.0105 -0.6666  0.6535
38539SOL     OW20554   1.788   5.188   7.116  0.3084 -0.0166  0.3068
38539SOL    HW120555   1.811   5.121   7.180 -1.7281 -0.0581  1.0569
38539SOL    HW220556   1.809   5.149   7.031  0.0540 -1.2124  0.7756
38540SOL     OW20557   2.412   7.743   8.700 -0.2676  0.1532  0.1700
38540SOL    HW120558   2.440   7.666   8.651 -1.5417  1.2640 -2.5610
38540SOL    HW220559   2.467   7.814   8.665 -2.5136  1.3406 -1.2259
38541SOL     OW20560   5.942   4.928  10.246 -0.0418 -0.2889 -0.3101
38541SOL    HW120561   5.898   5.013  10.249  0.8312  0.1875 -0.6506
38541SOL    HW220562   5.986   4.920  10.330  2.4053  1.0129 -1.3705
38542SOL     OW20563   1.976   7.332   5.760 -0.0833 -0.1561  0.1316
38542SOL    HW120564   1.924   7.407   5.787 -0.5736 -0.6026  0.4347
38542SOL    HW220565   1.913   7.261   5.749  0.4611 -0.7132  0.5341
38543SOL     OW20566   6.054   8.685   8.306 -0.1096  0.4625 -0.3033
38543SOL    HW120567   6.019   8.704   8.393  0.9041  0.7016  0.0663
38543SOL    HW220568   6.044   8.590   8.296 -0.7871  0.5176 -0.1832
38544SOL     OW20569   4.515   6.609   2.294 -0.0490  0.3350  0.0635
38544SOL    HW120570   4.607   6.587   2.311 -0.2627 -0.2640  0.4902
38544SOL    HW220571   4.495   6.565   2.211 -0.3712 -0.8343  0.7333
38545SOL     OW20572   9.949   3.623   7.825  0.6908 -0.0618 -0.3424
38545SOL    HW120573   9.897   3.702   7.841  0.0086 -0.6591  0.3783
38545SOL    HW220574   9.890   3.564   7.778  0.5316 -0.9358  0.9155
38546SOL     OW20575   5.025  10.062  11.580 -0.5241 -0.2040 -0.5567
38546SOL    HW120576   5.068  10.092  11.500 -0.8447 -1.0398 -1.0618
38546SOL    HW220577   5.016  10.140  11.633  0.0520  0.2965 -1.1765
38547SOL     OW20578  10.239   6.535   1.054  0.2183 -0.2931  1.1371
38547SOL    HW120579  10.162   6.479   1.061 -0.7876  0.7315 -1.0244
38547SOL    HW220580  10.219   6.611   1.108 -0.2051 -0.1143  0.7281
38548SOL     OW20581   6.440  11.264   9.464  0.1770  0.5737  0.5254
38548SOL    HW120582   6.461  11.353   9.434  0.7196  0.6004  0.9613
38548SOL    HW220583   6.517  11.212   9.438 -0.0694  0.2612  0.4136
38549SOL     OW20584   8.865   0.078  11.256 -0.7687 -0.2980  0.2867
38549SOL    HW120585   8.855   0.160  11.305  2.4377  1.3195 -1.4170
38549SOL    HW220586   8.842   0.101  11.166  0.5066 -1.1333 -0.2846
38550SOL     OW20587  11.042   9.714   9.183 -0.6519  0.3732  0.7498
38550SOL    HW120588  11.097   9.661   9.242 -1.4654 -1.8190 -0.3296
38550SOL    HW220589  10.955   9.675   9.192 -1.1941  1.2760 -0.4523
38551SOL     OW20590   0.374   4.207   9.060 -0.4153 -0.2512 -0.0762
38551SOL    HW120591   0.385   4.133   9.120 -2.6712 -0.4548  0.1526
38551SOL    HW220592   0.371   4.283   9.117  1.2740 -0.0010 -0.2676
38552SOL     OW20593   9.283   1.978   2.400  0.1244  0.1012 -0.4908
38552SOL    HW120594   9.377   1.987   2.385 -0.0298  2.9180 -0.2411
38552SOL    HW220595   9.265   2.035   2.475 -1.8044 -0.3561 -0.5650
38553SOL     OW20596   3.524   7.296   7.440 -0.1572  0.1200  0.2893
38553SOL    HW120597   3.538   7.326   7.529  3.0312  0.3726 -0.1871
38553SOL    HW220598   3.505   7.375   7.390  1.1977  0.4396  0.2462
38554SOL     OW20599   4.326   8.679   2.423  0.5181 -0.1440 -0.3229
38554SOL    HW120600   4.291   8.670   2.512 -0.2948  0.1216 -0.6039
38554SOL    HW220601   4.251   8.705   2.370  0.6329 -1.8965 -1.4113
38555SOL     OW20602  11.084   0.231   2.583 -0.5151 -0.0429 -0.7327
38555SOL    HW120603  11.005   0.253   2.534 -0.6278 -0.0310 -0.5479
38555SOL    HW220604  11.156   0.266   2.530 -0.5558 -0.9775 -1.4276
38556SOL     OW20605   0.208   5.401   0.833  0.3332 -0.0736 -0.3753
38556SOL    HW120606   0.275   5.384   0.900 -0.8582 -0.5527  0.7436
38556SOL    HW220607   0.175   5.489   0.854  0.2094 -0.0764 -0.5592
38557SOL     OW20608  11.244   7.780   5.822  0.4004 -0.3992 -0.5417
38557SOL    HW120609  11.217   7.701   5.775 -0.5707  0.4997 -1.5499
38557SOL    HW220610  11.165   7.808   5.868  1.2847 -1.1769  1.6068
38558SOL     OW20611   7.115   7.579   1.573 -0.6386  0.3557  0.4085
38558SOL    HW120612   7.064   7.588   1.492  0.8838 -1.3441 -0.8214
38558SOL    HW220613   7.058   7.531   1.632 -0.8711 -0.6039 -0.5667
38559SOL     OW20614  11.473   6.958  11.342  0.3066 -0.5431  0.7747
38559SOL    HW120615  11.430   6.974  11.426  1.6666  1.8850  1.1016
38559SOL    HW220616  11.424   7.011  11.279  1.7813  1.0454  0.8804
38560SOL     OW20617   2.727   1.134   6.609 -0.4506  0.2791  0.1758
38560SOL    HW120618   2.756   1.062   6.553 -1.6863 -1.8234  2.0584
38560SOL    HW220619   2.645   1.164   6.570  1.2666  2.5433 -2.0517
38561SOL     OW20620   0.907   6.442   1.612  0.0441  0.1064  0.1083
38561SOL    HW120621   0.933   6.375   1.548 -0.8704  0.3719 -0.5492
38561SOL    HW220622   0.830   6.484   1.574  0.0825  0.9503  0.9246
38562SOL     OW20623   2.745   7.736   0.675 -0.0533  0.1892  0.2845
38562SOL    HW120624   2.654   7.743   0.706 -0.3495 -1.0379 -0.2409
38562SOL    HW220625   2.743   7.778   0.589  0.3221  1.8312  1.0460
38563SOL     OW20626   1.206  11.633   8.763 -0.4470 -0.1857 -0.0655
38563SOL    HW120627   1.200  11.539   8.745 -1.2982  0.0640 -1.1944
38563SOL    HW220628   1.288  11.660   8.722  0.5882 -0.6786  1.5664
38564SOL     OW20629   2.934   7.807   6.794  0.0120  0.6809  0.8167
38564SOL    HW120630   2.859   7.785   6.850  0.0256 -4.3514 -0.6861
38564SOL    HW220631   3.008   7.761   6.834  0.4605 -1.2525 -1.9762
38565SOL     OW20632   1.497   8.697   1.330 -0.0869 -0.3291 -0.5025
38565SOL    HW120633   1.498   8.603   1.350 -1.6270  0.3075  3.5176
38565SOL    HW220634   1.586   8.726   1.348 -0.5378 -0.4675  2.5776
38566SOL     OW20635   3.510   0.295   7.792  0.3245 -0.0789 -0.2430
38566SOL    HW120636   3.466   0.380   7.796  0.4733 -0.0250  0.3531
38566SOL    HW220637   3.602   0.316   7.774  0.2508 -0.1517 -0.7248
38567SOL     OW20638   1.078   4.694  10.493 -0.7914 -1.0806  0.2012
38567SOL    HW120639   1.026   4.728  10.420  0.7635  1.1559 -0.0047
38567SOL    HW220640   1.041   4.737  10.570 -0.3056 -0.7718  0.2651
38568SOL     OW20641   3.597   2.813  10.492  0.1450 -0.0614 -0.1746
38568SOL    HW120642   3.587   2.721  10.515 -0.2178  0.0862  0.2805
38568SOL    HW220643   3.690   2.824  10.474  0.1146 -0.6141 -0.6747
38569SOL     OW20644   1.873  11.312   8.910  0.0969 -0.2419  0.1157
38569SOL    HW120645   1.788  11.288   8.945  0.1268 -0.6543 -0.0878
38569SOL    HW220646   1.888  11.401   8.942 -2.1276  1.4084 -2.9205
38570SOL     OW20647   9.045  10.571   4.180  0.1839 -0.0231 -0.4952
38570SOL    HW120648   8.997  10.517   4.117  3.0289  0.0014 -2.9247
38570SOL    HW220649   9.016  10.660   4.163 -1.3171 -0.3045  0.4554
38571SOL     OW20650   8.358   5.390  10.510  0.0393  0.1496 -0.7078
38571SOL    HW120651   8.303   5.378  10.588  0.5531  0.4594 -0.2948
38571SOL    HW220652   8.444   5.359  10.537  0.2225  0.2679 -1.1563
38572SOL     OW20653  11.045   3.271   8.643  0.0899 -0.4804 -0.1223
38572SOL    HW120654  11.141   3.272   8.643  0.0925 -0.4577 -0.5567
38572SOL    HW220655  11.021   3.347   8.697  0.3320  0.9066 -1.8676
38573SOL     OW20656   3.715   2.795   5.581  0.1238 -0.5976  0.3683
38573SOL    HW120657   3.730   2.889   5.564 -0.7240 -0.2056  1.7016
38573SOL    HW220658   3.788   2.769   5.637  0.1239 -0.6341  0.3510
38574SOL     OW20659   9.064   2.944   6.312 -0.3210 -0.4477 -0.0799
38574SOL    HW120660   9.018   3.027   6.324  1.0049  0.5173 -1.2991
38574SOL    HW220661   9.024   2.906   6.234  0.8032  0.3249 -1.0582
38575SOL     OW20662   7.789   2.765   1.682 -0.1045 -0.0222 -0.0688
38575SOL    HW120663   7.742   2.693   1.640 -0.7963 -1.5149  2.9653
38575SOL    HW220664   7.726   2.802   1.744  1.4494  0.5832  1.2172
38576SOL     OW20665   5.742  11.228   0.775  0.3306  0.6899 -0.5822
38576SOL    HW120666   5.700  11.142   0.775 -0.4940  1.0772 -1.4716
38576SOL    HW220667   5.728  11.262   0.686 -0.1072  2.0918 -0.0087
38577SOL     OW20668   7.684   6.172  11.155 -0.0383  0.0777 -0.0426
38577SOL    HW120669   7.717   6.141  11.240  0.5117  0.3353 -0.1580
38577SOL    HW220670   7.735   6.251  11.137 -0.4579  0.2657 -0.4101
38578SOL     OW20671   8.999   1.329   1.387  0.2151 -0.2984 -0.3119
38578SOL    HW120672   9.084   1.351   1.425 -0.6183  1.4457  0.6306
38578SOL    HW220673   8.968   1.254   1.439  0.4127  0.1652  0.4820
38579SOL     OW20674   2.680   4.666   1.216 -0.0600  0.0746 -0.3007
38579SOL    HW120675   2.614   4.674   1.285 -0.2775  1.2020 -0.6280
38579SOL    HW220676   2.764   4.669   1.263 -0.0888  3.5979 -0.2018
38580SOL     OW20677   2.004   3.051   2.443  0.5049 -0.7841  0.3977
38580SOL    HW120678   1.929   3.017   2.395 -0.0224  0.6429  0.1534
38580SOL    HW220679   2.080   3.011   2.400 -0.0047 -0.3436 -0.9833
38581SOL     OW20680   9.674   9.382   0.248  0.4398  0.1602  0.0571
38581SOL    HW120681   9.628   9.458   0.212  1.3839  1.7292  1.9567
38581SOL    HW220682   9.693   9.327   0.172  0.4883  2.2521 -1.5298
38582SOL     OW20683   2.707   4.177  10.971  0.0758  0.5147 -0.3500
38582SOL    HW120684   2.783   4.174  11.030  0.5499 -0.9136 -0.9891
38582SOL    HW220685   2.655   4.100  10.995 -0.7379  1.0070 -0.4958
38583SOL     OW20686   4.689   3.505   7.924  0.0426 -0.1467 -0.4018
38583SOL    HW120687   4.681   3.412   7.900 -0.5491 -0.2739  0.2683
38583SOL    HW220688   4.758   3.538   7.867 -1.4801 -0.3703 -2.5282
38584SOL     OW20689   1.052   6.099   1.746  0.1774 -0.2793  0.5035
38584SOL    HW120690   0.999   6.176   1.725 -1.7178 -1.9173 -1.0843
38584SOL    HW220691   1.107   6.085   1.669 -1.3345 -1.9306 -0.3360
38585SOL     OW20692  10.905   2.841   3.366 -0.0941  0.5586  0.0681
38585SOL    HW120693  10.919   2.919   3.313 -0.3193  0.2041 -0.5182
38585SOL    HW220694  10.982   2.838   3.424  0.7235  0.3420 -0.9967
38586SOL     OW20695   5.103  10.756   1.912  0.2426 -0.2111  0.2297
38586SOL    HW120696   5.044  10.695   1.957  0.5779  0.1595  1.1783
38586SOL    HW220697   5.190  10.735   1.945  0.4005  0.5770  0.3204
38587SOL     OW20698   5.255   0.581   8.931  0.8636  0.0925  0.4300
38587SOL    HW120699   5.335   0.543   8.894 -0.0756 -0.6666 -0.9608
38587SOL    HW220700   5.196   0.590   8.855 -0.6561 -0.1491  1.5313
38588SOL     OW20701   4.271  10.060   8.198 -0.1972  0.3117 -0.2291
38588SOL    HW120702   4.232  10.025   8.278  0.1390  0.1716 -0.1270
38588SOL    HW220703   4.198  10.106   8.154 -1.0433 -1.7478 -1.0973
38589SOL     OW20704   8.302  10.463   5.855 -0.0277 -0.3548  0.3110
38589SOL    HW120705   8.217  10.473   5.898 -1.2847 -2.5020 -1.4829
38589SOL    HW220706   8.353  10.408   5.915 -1.3202 -2.2731 -0.2642
38590SOL     OW20707   1.854   2.355   6.308  0.4087  0.0393 -0.1095
38590SOL    HW120708   1.922   2.420   6.289  0.0448  1.5392  3.0226
38590SOL    HW220709   1.790   2.403   6.360  0.0252 -2.7531  2.2306
38591SOL     OW20710   8.423  10.689   2.019  0.3127 -0.5783  0.1807
38591SOL    HW120711   8.371  10.613   1.994  2.5519 -2.0680 -0.3222
38591SOL    HW220712   8.401  10.756   1.955 -0.0955 -1.5629 -0.7370
38592SOL     OW20713  10.886   3.173   1.018  0.1243 -0.0650 -0.3043
38592SOL    HW120714  10.927   3.149   0.935 -1.0162 -0.4197 -0.7865
38592SOL    HW220715  10.793   3.157   1.004 -0.0685 -0.3328  1.1102
38593SOL     OW20716   8.650   4.695   9.478 -0.0417 -0.2491  0.4483
38593SOL    HW120717   8.580   4.748   9.442 -1.0441 -2.0606 -0.4177
38593SOL    HW220718   8.716   4.691   9.408  0.3205  0.3682  0.7532
38594SOL     OW20719  10.173   8.960  11.247 -0.6745 -0.2475 -0.6189
38594SOL    HW120720  10.180   9.004  11.332 -0.4079 -1.6980  0.1517
38594SOL    HW220721  10.114   8.886  11.263 -0.0669 -0.9513 -1.5072
38595SOL     OW20722   2.854   4.156   6.417 -0.4930  0.3685 -0.3548
38595SOL    HW120723   2.781   4.115   6.370 -0.4830 -0.4120  0.3016
38595SOL    HW220724   2.841   4.250   6.402 -0.2795  0.1359 -2.2130
38596SOL     OW20725   7.393   1.409   6.175  0.1960 -0.2951 -0.5741
38596SOL    HW120726   7.418   1.415   6.267  0.9234 -0.5552 -0.7489
38596SOL    HW220727   7.365   1.497   6.152 -1.2645 -0.5172  0.2433
38597SOL     OW20728   2.539  10.507  10.296  0.2393  0.1708 -0.5577
38597SOL    HW120729   2.571  10.524  10.207  1.1022  0.4213 -0.2127
38597SOL    HW220730   2.597  10.558  10.352  0.9291 -1.4728  0.2851
38598SOL     OW20731   0.826   8.459   0.259  0.3448 -0.2780 -0.2913
38598SOL    HW120732   0.766   8.385   0.264  0.9363 -0.8361 -1.1515
38598SOL    HW220733   0.893   8.431   0.196  0.8353  0.8047 -0.2676
38599SOL     OW20734   1.306  11.478   7.430  0.0023 -0.2204  0.1491
38599SOL    HW120735   1.244  11.534   7.384  0.7296  0.5122  0.0363
38599SOL    HW220736   1.284  11.389   7.402 -0.6262  0.0793 -0.3197
38600SOL     OW20737   0.579   0.681   8.095 -0.7301 -0.1325 -0.1946
38600SOL    HW120738   0.548   0.771   8.085  1.3614  0.5362 -1.3386
38600SOL    HW220739   0.609   0.675   8.185  1.4353  1.1771 -0.7659
38601SOL     OW20740   8.996   7.853   3.406 -0.0546 -0.0087  0.0025
38601SOL    HW120741   8.963   7.803   3.480  0.3332  1.1577  0.9934
38601SOL    HW220742   9.029   7.787   3.345  0.2737 -0.9577  1.1691
38602SOL     OW20743   0.184  11.202   1.718  0.4157 -0.5582 -0.0622
38602SOL    HW120744   0.226  11.222   1.634  0.3290 -0.5741 -0.1092
38602SOL    HW220745   0.115  11.139   1.696 -0.4800  0.4304 -0.1762
38603SOL     OW20746   2.850   4.828   0.953 -0.0679  0.1299 -0.3917
38603SOL    HW120747   2.772   4.773   0.947 -0.5911  0.9398 -1.3492
38603SOL    HW220748   2.845   4.867   1.041 -0.1919 -0.6013 -0.0645
38604SOL     OW20749   8.083   9.556   1.765  0.0490  0.1725  0.4315
38604SOL    HW120750   7.992   9.539   1.740 -0.1214  2.8440 -1.0860
38604SOL    HW220751   8.125   9.470   1.760 -2.0279 -0.8800 -0.3552
38605SOL     OW20752   4.776  10.896   5.620 -0.0722 -0.2715 -0.5344
38605SOL    HW120753   4.827  10.817   5.638 -0.2159 -0.2924 -0.2237
38605SOL    HW220754   4.820  10.965   5.670 -0.9902 -0.5000  0.6199
38606SOL     OW20755   6.002  10.140   6.870 -0.2252  0.5061  0.1272
38606SOL    HW120756   5.981  10.069   6.809  1.2111  0.6758 -0.6042
38606SOL    HW220757   6.036  10.096   6.947  0.0366  0.3738 -0.0636
38607SOL     OW20758   0.949   6.910  10.511  0.1201 -0.0384 -1.2614
38607SOL    HW120759   1.032   6.954  10.529 -0.8929  1.2576  0.4433
38607SOL    HW220760   0.917   6.953  10.432  0.1733  0.7935 -0.8405
38608SOL     OW20761   9.992   6.249   1.392  0.4298 -0.4819  0.2339
38608SOL    HW120762   9.897   6.235   1.393 -0.0248  2.1129  0.1928
38608SOL    HW220763  10.006   6.320   1.454  2.5157 -1.4932  0.9976
38609SOL     OW20764   0.406   7.034   6.811 -0.1457 -0.1397  0.1009
38609SOL    HW120765   0.348   6.959   6.800 -0.7415  0.2385  0.6114
38609SOL    HW220766   0.448   7.020   6.896  0.0115 -0.0728  0.0363
38610SOL     OW20767   6.479   2.778   2.355 -0.4095  0.2965 -0.3934
38610SOL    HW120768   6.550   2.765   2.418 -1.5146 -1.3591  0.5907
38610SOL    HW220769   6.481   2.872   2.336 -2.3334  1.7997  4.9965
38611SOL     OW20770   1.314   1.851   2.841 -0.1689  0.0526 -0.5194
38611SOL    HW120771   1.391   1.855   2.897 -1.0376  1.0380  0.6640
38611SOL    HW220772   1.349   1.848   2.752  1.2309 -0.5222  0.0217
38612SOL     OW20773   0.279   3.449   5.050 -0.4725  1.2308 -0.3529
38612SOL    HW120774   0.339   3.518   5.019 -0.2987  0.9233 -0.7111
38612SOL    HW220775   0.328   3.404   5.118 -1.5036  3.0325  1.7028
38613SOL     OW20776   0.855   7.600   9.073  0.2933 -0.1316 -0.3808
38613SOL    HW120777   0.925   7.572   9.013  1.0677  2.5781 -0.8762
38613SOL    HW220778   0.899   7.660   9.134 -0.9132 -1.2076  1.6642
38614SOL     OW20779   4.710   6.655   6.204 -0.1106 -0.0302  0.0427
38614SOL    HW120780   4.692   6.720   6.272  1.2086  0.4047  0.0012
38614SOL    HW220781   4.771   6.698   6.145 -2.5026  0.2595 -2.4646
38615SOL     OW20782   1.366   1.592   3.059 -0.6010 -0.5556 -0.0656
38615SOL    HW120783   1.307   1.517   3.066 -0.5504 -0.5840  0.0494
38615SOL    HW220784   1.447   1.555   3.024  0.6207 -1.1893  3.1345
38616SOL     OW20785   3.978   7.676   1.134  0.6284 -0.0240 -0.4755
38616SOL    HW120786   3.886   7.704   1.125  0.7051 -0.2678 -2.3809
38616SOL    HW220787   3.972   7.585   1.163  0.2427 -0.2521 -1.2431
38617SOL     OW20788   0.732   8.764   9.538  0.2771 -0.3215 -0.1031
38617SOL    HW120789   0.796   8.802   9.478 -0.4390 -0.1518 -0.7769
38617SOL    HW220790   0.783   8.704   9.593  0.9268 -0.5531 -0.9483
38618SOL     OW20791   4.359   2.849  10.338 -0.0747  0.1593 -0.7754
38618SOL    HW120792   4.310   2.821  10.415 -0.3779 -0.8742 -1.3233
38618SOL    HW220793   4.292   2.875  10.275  0.0689 -0.8252 -1.3647
38619SOL     OW20794   4.227   3.546   6.867 -0.0560  0.3724 -0.0778
38619SOL    HW120795   4.242   3.515   6.956  1.9459  3.5375  0.8589
38619SOL    HW220796   4.187   3.632   6.878  0.9303  1.1706 -2.1784
38620SOL     OW20797   1.543   4.220   8.650 -0.0575 -0.2365  0.1746
38620SOL    HW120798   1.633   4.190   8.665 -0.6236 -1.5428  1.1242
38620SOL    HW220799   1.538   4.305   8.693  0.4924 -0.5319  0.8329
38621SOL     OW20800   9.167   7.043   7.439  0.1518  0.2143  0.2735
38621SOL    HW120801   9.185   7.131   7.407  0.4163 -0.2317 -0.8584
38621SOL    HW220802   9.096   7.054   7.502  0.2414  1.2434  0.2060
38622SOL     OW20803   5.814   8.106   9.684 -0.3270  0.1629 -0.7552
38622SOL    HW120804   5.850   8.087   9.771 -1.8393 -0.3619 -0.2224
38622SOL    HW220805   5.813   8.202   9.680  2.1018  0.2480 -1.2443
38623SOL     OW20806   0.775   0.731   5.097 -0.5711 -0.2013  0.5187
38623SOL    HW120807   0.749   0.643   5.124 -0.1776 -1.0884 -1.7861
38623SOL    HW220808   0.694   0.782   5.099 -1.0618 -0.9694  0.5593
38624SOL     OW20809   1.346   7.037   6.351 -0.1171 -0.0643 -0.0835
38624SOL    HW120810   1.376   7.050   6.261 -0.4601  1.5769  0.0053
38624SOL    HW220811   1.281   6.967   6.345 -0.9261  0.7490 -1.3069
38625SOL     OW20812   0.930   8.897   1.409 -0.2994 -0.0069  0.0954
38625SOL    HW120813   1.005   8.954   1.422 -1.0988  0.8459  1.2086
38625SOL    HW220814   0.941   8.829   1.476  0.5718 -1.1131 -1.1292
38626SOL     OW20815   9.734   5.650   9.136 -0.0669 -0.7478  0.2373
38626SOL    HW120816   9.737   5.645   9.040 -1.5032  2.8911 -0.1726
38626SOL    HW220817   9.650   5.609   9.159 -1.2125  1.0660 -0.4741
38627SOL     OW20818   6.728   7.589   8.326 -0.3086 -0.7637 -0.0316
38627SOL    HW120819   6.675   7.666   8.345  0.0339 -0.7835  1.0589
38627SOL    HW220820   6.664   7.518   8.319 -0.5421 -0.5518 -0.0788
38628SOL     OW20821   6.832   8.294   3.895 -0.4029 -0.5381 -0.1014
38628SOL    HW120822   6.781   8.232   3.843 -2.0870  0.7877 -0.1217
38628SOL    HW220823   6.875   8.349   3.831 -0.8009 -0.2228 -0.1037
38629SOL     OW20824  10.239   3.019   7.944  0.4732 -0.2549  0.2366
38629SOL    HW120825  10.206   3.104   7.916  0.8334 -0.4183 -0.7103
38629SOL    HW220826  10.262   3.031   8.036  1.7717  1.0522 -0.2269
38630SOL     OW20827   7.248   8.340   1.914  0.1190 -0.9069  0.0737
38630SOL    HW120828   7.164   8.360   1.956  0.1148 -2.9880  1.2026
38630SOL    HW220829   7.314   8.373   1.974  0.1349  0.1778 -0.5185
38631SOL     OW20830   8.927   9.175   4.088  0.3812  0.2183 -0.2500
38631SOL    HW120831   8.934   9.186   3.993  1.2613 -0.4190 -0.2691
38631SOL    HW220832   8.863   9.105   4.099 -0.8701  1.3177 -0.3078
38632SOL     OW20833   8.941   9.674   6.222 -0.3200 -0.8467  0.2733
38632SOL    HW120834   8.926   9.579   6.227 -3.2659 -0.4557  0.7315
38632SOL    HW220835   8.977   9.697   6.307 -0.0678 -1.4737  0.3449
38633SOL     OW20836   0.321  10.672   4.411 -0.4547  0.0560 -0.4340
38633SOL    HW120837   0.344  10.637   4.497  1.2436  0.6918 -0.5918
38633SOL    HW220838   0.372  10.619   4.349 -0.1365  0.8566 -0.8822
38634SOL     OW20839   3.868  11.245  10.121  0.0261  0.2895 -0.6232
38634SOL    HW120840   3.820  11.224  10.041 -0.2431  2.0147 -0.9435
38634SOL    HW220841   3.891  11.337  10.113  1.2531  0.1472  0.6546
38635SOL     OW20842   0.290   6.475   2.291  0.4752 -0.1265 -0.1751
38635SOL    HW120843   0.248   6.418   2.357  1.4532  2.1757  2.6408
38635SOL    HW220844   0.222   6.490   2.225 -0.6162 -2.4144  0.3316
38636SOL     OW20845   7.014   1.963   0.254  0.2084  0.3776  0.2585
38636SOL    HW120846   7.050   2.050   0.270 -0.2016  0.6058 -0.0393
38636SOL    HW220847   6.996   1.928   0.341 -0.8738  1.1233  0.3451
38637SOL     OW20848   6.109  10.934  10.729  0.3339  0.5396  0.5066
38637SOL    HW120849   6.146  11.022  10.722  0.2760  0.4141 -3.4557
38637SOL    HW220850   6.016  10.946  10.709 -0.0377 -0.2621  1.6471
38638SOL     OW20851   3.351   3.893   5.881  0.1774  0.2658  0.8007
38638SOL    HW120852   3.302   3.969   5.913 -0.5392  0.6786 -1.1571
38638SOL    HW220853   3.422   3.931   5.829 -1.4493 -0.3362 -2.0330
38639SOL     OW20854   3.056   7.918   4.232 -0.0182  0.1053  0.2038
38639SOL    HW120855   3.067   7.938   4.325  0.2502  1.7414 -0.1469
38639SOL    HW220856   2.961   7.920   4.218 -0.0192  1.0318  0.2393
38640SOL     OW20857   8.774  10.746   4.571 -0.1835  0.4302 -0.4872
38640SOL    HW120858   8.706  10.714   4.511  0.9495 -0.8417 -1.1275
38640SOL    HW220859   8.822  10.811   4.519 -1.0390  1.5561  0.0633
38641SOL     OW20860   9.327   3.554   8.421  0.3534  0.2023  0.3185
38641SOL    HW120861   9.325   3.631   8.364 -1.4711  0.5638  0.8058
38641SOL    HW220862   9.420   3.540   8.438  0.7830  1.7915 -0.4540
38642SOL     OW20863  10.823   8.340   6.616  0.6773  0.1337  0.0906
38642SOL    HW120864  10.809   8.406   6.684  1.9913 -0.2439  0.7739
38642SOL    HW220865  10.918   8.341   6.601  0.7041 -1.4347 -0.0324
38643SOL     OW20866   2.576   5.619   5.961 -0.0183  0.1664 -0.3854
38643SOL    HW120867   2.510   5.602   6.027  0.5894  1.6268  0.6517
38643SOL    HW220868   2.544   5.696   5.914  0.2840  0.0487 -0.7982
38644SOL     OW20869   6.878   0.983  10.020  0.2133  0.1643  0.1731
38644SOL    HW120870   6.897   1.046  10.090  1.8504 -0.8030  0.6814
38644SOL    HW220871   6.786   0.997   9.999  0.2091  1.8725  1.1054
38645SOL     OW20872  11.459   9.561   7.060 -0.2827  0.5311  0.4644
38645SOL    HW120873  11.517   9.629   7.025 -3.1819  0.8099 -4.6911
38645SOL    HW220874  11.396   9.609   7.114  1.2781  0.8772  2.0774
38646SOL     OW20875   7.147  10.278   9.842  0.5512 -0.1751  0.1090
38646SOL    HW120876   7.189  10.251   9.761  2.9334 -0.1877  1.2671
38646SOL    HW220877   7.158  10.203   9.901  1.2600  0.8102  1.2685
38647SOL     OW20878   1.175   3.245   7.556 -0.2447  0.6836  0.2112
38647SOL    HW120879   1.238   3.272   7.489 -1.5063 -1.5797 -2.0908
38647SOL    HW220880   1.103   3.307   7.549 -0.5256  0.2546 -0.8420
38648SOL     OW20881   5.471   1.048   2.813  0.0609  0.3540 -0.4671
38648SOL    HW120882   5.507   0.974   2.764  1.4753 -1.6038  3.1758
38648SOL    HW220883   5.531   1.120   2.795  1.0004 -0.5295 -1.0040
38649SOL     OW20884   1.626   0.464   3.277 -0.0325 -0.4597  0.7054
38649SOL    HW120885   1.687   0.460   3.203 -0.8545  0.9263 -0.0905
38649SOL    HW220886   1.682   0.462   3.355  0.9606 -0.3206  0.0104
38650SOL     OW20887   8.677  10.810  11.316 -0.7488  0.1620  0.3541
38650SOL    HW120888   8.712  10.763  11.240  0.2784  1.2275  0.1351
38650SOL    HW220889   8.599  10.761  11.341 -0.2690 -1.0663 -0.4675
38651SOL     OW20890  11.368   9.503  10.018 -0.6052  0.2072 -0.0140
38651SOL    HW120891  11.437   9.476  10.080 -1.4132  1.8111  1.6759
38651SOL    HW220892  11.292   9.451  10.043 -1.2353  1.6035  1.1058
38652SOL     OW20893   6.886  10.683   8.681 -0.1234 -0.1922  0.3581
38652SOL    HW120894   6.880  10.668   8.587  1.1886 -0.9591  0.3813
38652SOL    HW220895   6.903  10.777   8.689 -4.9902  0.9766  0.0848
38653SOL     OW20896   4.579  11.095   5.031  0.1466  0.0100  0.4615
38653SOL    HW120897   4.662  11.048   5.040  0.3978  0.6613  1.6849
38653SOL    HW220898   4.516  11.027   5.009  0.4751 -0.9544  2.3160
38654SOL     OW20899   7.862   2.632   0.021  0.1889  0.1486 -0.1531
38654SOL    HW120900   7.884   2.584  -0.059  0.8018 -0.5300  0.4151
38654SOL    HW220901   7.930   2.699   0.028  0.8747 -0.5919  0.4591
38655SOL     OW20902   9.918   6.442  11.329 -0.6945  0.2342 -0.7222
38655SOL    HW120903   9.998   6.408  11.289 -0.4275  0.9687 -0.8230
38655SOL    HW220904   9.943   6.465  11.418 -1.5255 -2.3480  0.2696
38656SOL     OW20905   1.397   0.616   3.775 -0.4030 -0.2584  0.2246
38656SOL    HW120906   1.388   0.678   3.848  0.3514  0.0283  0.0891
38656SOL    HW220907   1.335   0.647   3.709  0.1361  0.5017  0.0649
38657SOL     OW20908   3.513   5.184   8.668 -1.0269  0.1078  0.3909
38657SOL    HW120909   3.579   5.149   8.728 -1.1542 -1.5883 -0.3931
38657SOL    HW220910   3.450   5.228   8.726  0.6694  1.6155  1.1571
38658SOL     OW20911   0.655   0.801  10.476  0.2900 -0.0030 -0.3747
38658SOL    HW120912   0.639   0.706  10.474  0.2804 -0.2451  3.1641
38658SOL    HW220913   0.570   0.839  10.496  0.8433  0.3247  1.6659
38659SOL     OW20914  11.160   4.544   7.471 -0.3992 -0.2868  0.5691
38659SOL    HW120915  11.118   4.459   7.459 -0.8322 -0.0247  0.1857
38659SOL    HW220916  11.136   4.594   7.392  0.0989  0.0863  0.6490
38660SOL     OW20917   4.061   5.366  10.542 -0.4732 -0.1254  0.2757
38660SOL    HW120918   4.137   5.308  10.547 -0.7864 -0.5553  0.1314
38660SOL    HW220919   3.989   5.314  10.578 -0.3684  0.8758  2.0274
38661SOL     OW20920   9.038   5.645   2.060 -0.7292 -0.5442 -0.1679
38661SOL    HW120921   9.094   5.602   2.126  0.2362  0.3837 -0.3516
38661SOL    HW220922   9.048   5.590   1.982  0.4071 -0.0974 -0.3667
38662SOL     OW20923   5.488  11.398  11.560 -0.0083  0.3548 -0.5418
38662SOL    HW120924   5.483  11.304  11.546  0.8268  0.3355 -0.7847
38662SOL    HW220925   5.580  11.415  11.578 -0.0765  1.1795 -0.8981
38663SOL     OW20926   2.210   3.278   1.832 -0.7153  0.1711  0.1381
38663SOL    HW120927   2.211   3.183   1.816  0.7616 -0.0158  1.1729
38663SOL    HW220928   2.122   3.305   1.805 -1.1800 -1.4915 -0.1599
38664SOL     OW20929   8.472  10.336   8.639 -0.0209  0.0683  0.2311
38664SOL    HW120930   8.546  10.285   8.607 -0.9877 -0.7015 -0.8333
38664SOL    HW220931   8.498  10.362   8.728  1.7566  0.3289 -0.3207
38665SOL     OW20932   5.557   5.757   4.844  0.1104  0.3518 -0.1971
38665SOL    HW120933   5.549   5.852   4.854  0.2250  0.2193  1.5191
38665SOL    HW220934   5.552   5.723   4.934  0.3346 -1.2466 -0.7534
38666SOL     OW20935   8.482   4.745   8.155 -0.5213 -0.5713  0.1504
38666SOL    HW120936   8.492   4.831   8.196 -2.0421  0.6830 -1.8708
38666SOL    HW220937   8.395   4.716   8.181 -0.5588 -0.8439 -0.2640
38667SOL     OW20938   9.218  10.412   8.931  0.0591 -0.3752  0.1353
38667SOL    HW120939   9.158  10.431   8.858  1.4123 -0.6690 -1.1006
38667SOL    HW220940   9.230  10.497   8.973 -0.1912 -0.0498 -0.4259
38668SOL     OW20941   1.737  11.196   2.636  0.3465  0.4061 -0.2815
38668SOL    HW120942   1.821  11.241   2.638  0.8980 -0.5823  2.3908
38668SOL    HW220943   1.746  11.130   2.567  1.6997  0.4359 -0.1572
38669SOL     OW20944   2.156  10.374   9.390  0.2811 -0.3824  0.4461
38669SOL    HW120945   2.144  10.411   9.302 -3.0819  1.7000  1.6205
38669SOL    HW220946   2.251  10.365   9.398  0.7286 -0.8220 -3.4110
38670SOL     OW20947   1.206   5.979   0.919  0.7470 -0.3762  0.3364
38670SOL    HW120948   1.174   6.024   0.841  0.0142  0.2398  0.9768
38670SOL    HW220949   1.172   6.030   0.992  1.1419 -1.1328  1.0701
38671SOL     OW20950  11.135   9.191   5.032 -0.2160  0.3739 -0.1422
38671SOL    HW120951  11.226   9.189   5.002 -0.1666  0.9909 -0.0392
38671SOL    HW220952  11.113   9.284   5.036 -1.0421  0.2179 -0.7485
38672SOL     OW20953   7.822   6.691   1.492  0.5383  0.3443 -0.0651
38672SOL    HW120954   7.796   6.609   1.448 -1.2820  0.8038  0.0507
38672SOL    HW220955   7.826   6.755   1.421  0.1969  0.5263  0.0784
38673SOL     OW20956   5.655  11.679   2.649  0.1886  0.3057 -0.0300
38673SOL    HW120957   5.734  11.677   2.704 -0.4522  1.1232  0.9470
38673SOL    HW220958   5.625  11.588   2.646 -0.0164  0.3181  1.3536
38674SOL     OW20959   8.708   0.460   4.627  0.7018  0.2464  0.4254
38674SOL    HW120960   8.730   0.432   4.716  1.9260  1.9042  0.6913
38674SOL    HW220961   8.694   0.379   4.579 -1.4637 -0.7118  2.4341
38675SOL     OW20962  10.992   4.141  11.479 -0.0148 -0.6550 -0.3034
38675SOL    HW120963  11.014   4.074  11.414 -2.2261 -1.2863 -0.5057
38675SOL    HW220964  10.938   4.204  11.431 -0.1684 -0.1511  0.5074
38676SOL     OW20965   9.706   7.622   5.617  0.2921 -0.1575  0.7315
38676SOL    HW120966   9.613   7.602   5.626 -0.8139  1.9034 -3.6005
38676SOL    HW220967   9.741   7.551   5.563  0.7107  0.2288  0.4899
38677SOL     OW20968   5.980  10.766   2.405  0.3491 -0.3928 -0.0032
38677SOL    HW120969   5.937  10.849   2.384 -0.7462 -1.0483 -0.4085
38677SOL    HW220970   5.944  10.703   2.342  0.2034 -1.4718  1.1202
38678SOL     OW20971   2.308   6.936   4.907 -1.6358  0.1019 -0.7140
38678SOL    HW120972   2.370   6.960   4.976  0.6082 -2.4364 -1.6848
38678SOL    HW220973   2.320   7.002   4.839  1.2280 -1.1040 -1.5162
38679SOL     OW20974   7.801  10.406   4.601 -0.1953 -0.2518  0.0780
38679SOL    HW120975   7.855  10.331   4.578 -0.1729 -0.1813 -0.0986
38679SOL    HW220976   7.718  10.368   4.629 -0.4188 -0.3119 -0.6589
38680SOL     OW20977   5.572   4.243   0.785 -0.2423 -0.3846 -0.0271
38680SOL    HW120978   5.628   4.176   0.745 -1.1954 -1.7961  0.8750
38680SOL    HW220979   5.600   4.247   0.876 -1.2009 -0.7305  0.3074
38681SOL     OW20980  10.383  11.086  10.725 -0.0734  0.5421 -0.4594
38681SOL    HW120981  10.332  11.073  10.804  0.3734  1.4262 -0.0074
38681SOL    HW220982  10.473  11.099  10.756  0.1904  0.4013 -1.1390
38682SOL     OW20983   0.341   0.837   9.267 -0.1699  0.0639 -0.1556
38682SOL    HW120984   0.288   0.834   9.188  0.4635 -1.6201 -0.5576
38682SOL    HW220985   0.317   0.758   9.315  1.6769 -0.5741 -0.1965
38683SOL     OW20986   7.767   0.660   9.491  0.4122 -0.3417 -0.0007
38683SOL    HW120987   7.679   0.697   9.500 -1.3537 -3.3346 -2.5473
38683SOL    HW220988   7.803   0.704   9.414 -0.9743 -2.3455 -1.9400
38684SOL     OW20989   7.213   9.410   8.012 -0.2563  0.0246 -0.1855
38684SOL    HW120990   7.188   9.394   7.920  2.0970  0.5997 -0.9819
38684SOL    HW220991   7.132   9.442   8.052 -0.9865  1.3476 -2.4693
38685SOL     OW20992   1.614  11.336   1.532  0.1281  0.4579  0.2441
38685SOL    HW120993   1.700  11.376   1.541  0.2353  0.8140 -1.9260
38685SOL    HW220994   1.616  11.262   1.593  1.5437  1.0978  1.0340
38686SOL     OW20995   9.949   2.744   2.873 -0.5773 -0.0196  0.2875
38686SOL    HW120996   9.874   2.796   2.845  2.0496  3.3961 -1.0715
38686SOL    HW220997   9.975   2.782   2.957 -0.6559 -1.6169  1.0858
38687SOL     OW20998   2.585  11.017   2.904 -0.5050  0.3251 -0.7765
38687SOL    HW120999   2.555  10.947   2.962  1.4878 -0.1074 -0.1838
38687SOL    HW221000   2.625  10.971   2.830 -0.1746  0.8476 -0.9304
38688SOL     OW21001   2.944   3.124   9.898 -0.4284 -0.2668 -0.5253
38688SOL    HW121002   2.912   3.194   9.840  0.5095 -0.5180 -1.3837
38688SOL    HW221003   3.027   3.158   9.932 -1.5550  0.4214  1.7490
38689SOL     OW21004   6.868   8.062   7.860  0.3392  0.1074  0.4826
38689SOL    HW121005   6.806   8.009   7.811 -0.0197  0.2840  0.7457
38689SOL    HW221006   6.941   8.075   7.800  0.6351 -1.0565  0.5569
38690SOL     OW21007   1.614   1.585   0.532 -0.5305  0.2702  0.1446
38690SOL    HW121008   1.604   1.679   0.545 -1.8565  0.1360  0.2303
38690SOL    HW221009   1.593   1.572   0.439 -0.5044  0.0412  0.1707
38691SOL     OW21010   2.092   6.432   7.525 -0.4966  0.3588  0.3420
38691SOL    HW121011   2.004   6.402   7.499  0.4356 -0.2475 -2.4905
38691SOL    HW221012   2.081   6.525   7.544 -1.2648  1.2539 -3.5710
38692SOL     OW21013  10.121   2.123   1.359 -0.3424  0.2741  0.1644
38692SOL    HW121014  10.102   2.153   1.270  0.2287  0.0683 -0.0304
38692SOL    HW221015  10.038   2.130   1.405 -0.5079  0.9383 -0.2263
38693SOL     OW21016   6.913   5.874  10.237  0.2863  0.4252 -0.2394
38693SOL    HW121017   6.821   5.850  10.231 -0.1606  2.1615 -0.9357
38693SOL    HW221018   6.933   5.873  10.331 -0.4097 -0.0326 -0.0933
38694SOL     OW21019   3.729   7.376   6.494  0.0699 -0.4209 -0.3798
38694SOL    HW121020   3.786   7.447   6.520 -0.9062 -0.0780  0.8999
38694SOL    HW221021   3.709   7.329   6.575 -1.0423 -0.8439 -0.8725
38695SOL     OW21022   6.167   1.668   7.847 -0.3506  0.1084 -0.1455
38695SOL    HW121023   6.169   1.586   7.797  0.0378  0.2413 -0.3562
38695SOL    HW221024   6.076   1.697   7.842 -0.6466 -0.6691  0.5276
38696SOL     OW21025  10.424   1.388   4.031 -0.5514 -0.2729  0.3993
38696SOL    HW121026  10.433   1.410   4.124 -0.8861  0.8837  0.1830
38696SOL    HW221027  10.331   1.371   4.019 -0.1306 -3.5412  0.8687
38697SOL     OW21028   5.507  10.218   7.002  0.2557  0.2892  0.3469
38697SOL    HW121029   5.552  10.142   6.966 -0.5001  0.2497 -0.5563
38697SOL    HW221030   5.575  10.269   7.046  1.3369  0.6064 -1.5892
38698SOL     OW21031   9.511   6.272  10.103  0.0987 -0.8379  0.5135
38698SOL    HW121032   9.476   6.244  10.018 -1.3264  1.0089  0.4449
38698SOL    HW221033   9.506   6.193  10.158 -0.7918 -1.5516 -0.5527
38699SOL     OW21034  10.839   7.611   8.260  0.1732 -0.3467 -0.4345
38699SOL    HW121035  10.862   7.529   8.303  0.9062  0.4249  0.7211
38699SOL    HW221036  10.810   7.668   8.332 -1.3504  0.0808 -1.3446
38700SOL     OW21037  10.431   9.521   3.103  0.9377  0.3920  0.5932
38700SOL    HW121038  10.463   9.444   3.056 -2.1927 -1.6181  1.4833
38700SOL    HW221039  10.460   9.595   3.049  1.3278 -1.5348 -2.0599
38701SOL     OW21040  10.462  10.557   6.659 -0.3091  0.4392 -0.2008
38701SOL    HW121041  10.415  10.585   6.581 -1.7388  1.6211  1.0194
38701SOL    HW221042  10.524  10.628   6.677  1.5714 -0.7874 -1.3911
38702SOL     OW21043   6.537   7.313   5.018  0.0718 -0.2798 -0.4718
38702SOL    HW121044   6.577   7.398   5.040  0.9715 -1.2872  2.2507
38702SOL    HW221045   6.579   7.287   4.936  1.3317  0.9607 -0.2617
38703SOL     OW21046   0.985   0.510   1.732  0.6271 -0.0594  0.3200
38703SOL    HW121047   1.047   0.579   1.754  0.4979 -0.3356  1.6067
38703SOL    HW221048   0.926   0.505   1.807 -0.8475  0.0618 -0.7879
38704SOL     OW21049   7.189   0.598  10.043  0.0717  0.1106 -0.6261
38704SOL    HW121050   7.155   0.642  10.121  1.2700  0.3549 -0.2198
38704SOL    HW221051   7.172   0.659   9.971  0.0147  0.4018 -0.3657
38705SOL     OW21052   1.940   4.386   5.686 -0.1865  0.4355 -0.1903
38705SOL    HW121053   1.950   4.301   5.642 -1.7550  0.6902 -1.1267
38705SOL    HW221054   2.021   4.433   5.666 -0.0059 -0.2268 -1.0852
38706SOL     OW21055   0.170   6.954   1.748  0.1656  0.3990  0.3038
38706SOL    HW121056   0.090   6.975   1.701  0.3711 -0.2951 -0.3790
38706SOL    HW221057   0.184   6.860   1.732  2.4757  0.9924 -1.7977
38707SOL     OW21058   5.990   8.649   4.851  0.2818  0.6055  0.0633
38707SOL    HW121059   6.044   8.571   4.857 -0.3818  0.1587  0.3723
38707SOL    HW221060   6.041   8.710   4.797  0.4288 -0.3555 -0.9193
38708SOL     OW21061   4.895   4.030  11.437 -0.1566 -0.0622  0.1038
38708SOL    HW121062   4.977   4.064  11.399  1.3890 -2.1437  1.3522
38708SOL    HW221063   4.896   4.061  11.527 -0.9650  0.1939  0.0299
38709SOL     OW21064   3.111   7.267   7.789  0.6189 -0.7420  0.1789
38709SOL    HW121065   3.123   7.271   7.695  2.2268  2.5614  0.3597
38709SOL    HW221066   3.033   7.213   7.802 -1.9220  1.6678 -3.2957
38710SOL     OW21067   5.875   1.125   6.895  0.4761  0.5612  0.6754
38710SOL    HW121068   5.809   1.123   6.826  1.0358  0.5962  0.1231
38710SOL    HW221069   5.861   1.044   6.944  0.8410 -0.0714 -0.2380
38711SOL     OW21070   3.898   3.485   0.268 -0.0984 -0.2641 -0.4053
38711SOL    HW121071   3.881   3.528   0.184  1.2651  0.1141 -0.5139
38711SOL    HW221072   3.918   3.394   0.244 -0.0429 -0.2398 -0.4501
38712SOL     OW21073   7.707   6.621   2.507 -0.3471 -0.1013 -0.0542
38712SOL    HW121074   7.783   6.565   2.527  0.0865  0.5340  0.0949
38712SOL    HW221075   7.678   6.591   2.421  0.0361 -0.3917 -0.0871
38713SOL     OW21076   4.914   1.074  11.204  0.0356  0.4593 -0.0042
38713SOL    HW121077   4.938   1.161  11.171  0.6270  0.2086 -0.2583
38713SOL    HW221078   4.847   1.043  11.143 -1.5951  1.4935  1.1697
38714SOL     OW21079   6.323   0.396   8.655 -0.3582 -0.0210 -0.4964
38714SOL    HW121080   6.301   0.326   8.593 -2.2508  0.4249 -0.3796
38714SOL    HW221081   6.283   0.475   8.617 -1.4399  0.2930  1.1875
38715SOL     OW21082   0.697   2.556   4.252 -0.9043 -0.0971  0.4226
38715SOL    HW121083   0.612   2.567   4.209 -1.3673 -1.5778  0.9011
38715SOL    HW221084   0.744   2.492   4.198  1.2126  2.9147 -1.6145
38716SOL     OW21085   2.987   5.194   4.639 -0.0127 -0.1793 -0.1124
38716SOL    HW121086   2.990   5.141   4.559 -0.6047 -1.9616  0.9842
38716SOL    HW221087   2.949   5.277   4.611 -1.7071 -1.3067 -1.4441
38717SOL     OW21088   0.763   7.953   4.263  0.1977  1.0355 -0.1865
38717SOL    HW121089   0.674   7.940   4.295  0.7911 -0.5021  0.9613
38717SOL    HW221090   0.770   7.898   4.186  1.1263 -1.6569  1.6868
38718SOL     OW21091   0.209   8.934   4.868  0.1463 -0.0480 -0.0777
38718SOL    HW121092   0.181   8.911   4.779 -1.2310 -0.5933  0.4680
38718SOL    HW221093   0.146   9.001   4.896 -0.5334 -1.1525  1.1137
38719SOL     OW21094   1.728   2.139   1.628  0.1615 -0.1499  0.4713
38719SOL    HW121095   1.650   2.144   1.573 -0.8070 -0.6072  1.7537
38719SOL    HW221096   1.800   2.132   1.566 -0.9473 -1.3798 -0.7548
38720SOL     OW21097   8.707   8.056   1.365 -0.1168 -0.0847 -0.7491
38720SOL    HW121098   8.684   8.073   1.274 -0.9005 -0.4882 -0.6371
38720SOL    HW221099   8.800   8.037   1.363  0.7013  3.3194 -1.0031
38721SOL     OW21100   9.072  10.500   1.946  0.3908  0.6608 -0.1229
38721SOL    HW121101   9.089  10.594   1.951  0.2760  0.6685  0.1496
38721SOL    HW221102   8.995  10.493   1.889 -1.1290  0.9244  1.7728
38722SOL     OW21103   2.232  11.314   4.487  0.0451  0.0819  0.1728
38722SOL    HW121104   2.215  11.238   4.544 -0.7617  1.4839  1.9116
38722SOL    HW221105   2.263  11.381   4.547  3.5833  0.3439 -1.6973
38723SOL     OW21106   8.458   3.139   6.951 -0.1117 -0.2744  0.2454
38723SOL    HW121107   8.437   3.071   6.886 -0.7416  1.0721 -1.0065
38723SOL    HW221108   8.373   3.174   6.978  0.1330 -0.9395  1.9836
38724SOL     OW21109  11.352  10.951   8.829  0.0488  0.3598  0.2935
38724SOL    HW121110  11.322  10.860   8.827  1.2547 -0.0596 -0.9113
38724SOL    HW221111  11.447  10.944   8.843  0.4178  1.3226 -1.4086
38725SOL     OW21112   2.157   7.474   6.128  0.2400  0.2375 -0.3382
38725SOL    HW121113   2.091   7.528   6.084  0.4629 -0.9756 -2.3319
38725SOL    HW221114   2.240   7.513   6.103  0.3823  2.0357  2.5384
38726SOL     OW21115   9.773   8.201   3.562 -0.1177 -0.0863  0.5007
38726SOL    HW121116   9.700   8.142   3.581 -1.0178  1.2036  1.2119
38726SOL    HW221117   9.840   8.178   3.627  1.3351 -3.0811 -1.7515
38727SOL     OW21118   5.645   5.854  10.367 -0.0287 -0.3186  0.2419
38727SOL    HW121119   5.667   5.763  10.350 -0.5562 -0.9492  2.5808
38727SOL    HW221120   5.693   5.877  10.446 -0.3442  1.2736  0.0195
38728SOL     OW21121   2.903   6.276   2.205  0.8304  0.0951 -0.3451
38728SOL    HW121122   2.935   6.203   2.152  0.6480  0.3687 -0.8486
38728SOL    HW221123   2.976   6.338   2.208  1.0869 -0.2295  0.3275
38729SOL     OW21124   3.456   6.915   8.971 -0.3865  0.0228 -0.2416
38729SOL    HW121125   3.510   6.985   9.008 -1.1994 -0.0273  1.1110
38729SOL    HW221126   3.454   6.848   9.039 -1.4584 -0.3333 -0.6060
38730SOL     OW21127  11.054  11.083   8.197  0.6092 -0.4151  0.4130
38730SOL    HW121128  11.072  11.060   8.106  1.2107 -0.6116  0.5798
38730SOL    HW221129  10.962  11.108   8.197  0.5260 -0.6967 -0.1975
38731SOL     OW21130   7.008   0.086   8.214  0.2364  0.0306 -0.0828
38731SOL    HW121131   7.093   0.043   8.223  1.1644  1.7073 -0.4058
38731SOL    HW221132   6.987   0.077   8.121  0.4141  0.2455 -0.1438
38732SOL     OW21133   5.599   9.829  11.419 -1.6521  0.8668  0.0733
38732SOL    HW121134   5.686   9.805  11.387 -2.2815 -2.4648  0.5694
38732SOL    HW221135   5.553   9.861  11.341 -0.7282  0.3730 -0.6957
38733SOL     OW21136   8.639   5.402   3.569 -0.5443  0.1443  0.4132
38733SOL    HW121137   8.564   5.358   3.528 -0.9171 -2.3698  3.3940
38733SOL    HW221138   8.714   5.345   3.550  0.0479  1.0426 -0.0131
38734SOL     OW21139   8.112   4.889   0.703  0.1418  0.5395  0.2865
38734SOL    HW121140   8.021   4.918   0.707  0.4540  1.4424  1.9293
38734SOL    HW221141   8.145   4.926   0.621 -1.3616 -1.1905 -1.1853
38735SOL     OW21142   2.385   4.133   3.813 -0.2700 -1.0219  0.4451
38735SOL    HW121143   2.311   4.191   3.835  0.1917 -0.9049  1.7143
38735SOL    HW221144   2.459   4.169   3.861  0.6864 -1.0179 -0.9865
38736SOL     OW21145   2.534   3.838   6.593  0.2853  0.1970 -0.1704
38736SOL    HW121146   2.609   3.782   6.614  0.0082 -0.0362  0.2187
38736SOL    HW221147   2.572   3.926   6.584  0.5785  0.1139  0.2127
38737SOL     OW21148   8.856   6.527   1.641 -0.2561 -0.1857 -0.1657
38737SOL    HW121149   8.828   6.488   1.724 -0.0024 -0.3153 -0.1410
38737SOL    HW221150   8.947   6.553   1.656  0.6544 -2.5090 -1.1802
38738SOL     OW21151   7.473   1.864   2.927 -0.3037 -0.5754 -0.5631
38738SOL    HW121152   7.390   1.911   2.926  1.1715  2.2003 -0.7282
38738SOL    HW221153   7.494   1.855   3.020 -0.1008  0.0123 -0.5520
38739SOL     OW21154  10.124   8.765   0.838  0.1149  1.0758 -0.1926
38739SOL    HW121155  10.128   8.728   0.750 -0.9445  1.7030 -0.5171
38739SOL    HW221156  10.182   8.708   0.890 -1.0510 -0.7249 -0.7713
38740SOL     OW21157   3.499   5.655   3.290 -0.2927 -0.0173 -0.8349
38740SOL    HW121158   3.461   5.698   3.213  0.1719 -1.1968 -1.7481
38740SOL    HW221159   3.592   5.651   3.271  0.4857  3.1572  1.5229
38741SOL     OW21160   2.462   3.551   9.429 -0.1343  0.2574  0.8687
38741SOL    HW121161   2.414   3.564   9.347 -0.3446 -1.3991  0.6804
38741SOL    HW221162   2.396   3.565   9.497 -0.3203  0.2397  0.6944
38742SOL     OW21163   4.723   8.854   4.743  0.4719  0.0921  0.2530
38742SOL    HW121164   4.686   8.828   4.659 -0.2803 -1.9365  1.1538
38742SOL    HW221165   4.739   8.948   4.734 -2.1337  0.4848 -1.2254
38743SOL     OW21166   6.387   7.797   3.803 -0.1433  0.4366  0.0175
38743SOL    HW121167   6.442   7.802   3.725  1.0893  0.1131  0.8279
38743SOL    HW221168   6.347   7.883   3.809 -0.8567  0.2294 -1.3755
38744SOL     OW21169   3.575   4.912   9.918  0.0641 -0.0793  0.2487
38744SOL    HW121170   3.553   4.890   9.828 -0.4550  0.2658  0.2868
38744SOL    HW221171   3.523   4.851   9.971  0.9884 -0.8422  0.3168
38745SOL     OW21172   4.369   8.468   6.459  0.2604  0.3561 -0.1164
38745SOL    HW121173   4.399   8.457   6.549  0.2546 -0.1266 -0.1715
38745SOL    HW221174   4.300   8.534   6.464 -1.0807 -1.0387  0.5104
38746SOL     OW21175  11.338   6.084   5.605 -0.2030  0.1613 -0.2502
38746SOL    HW121176  11.243   6.096   5.600  0.1532  2.8501 -2.4671
38746SOL    HW221177  11.366   6.146   5.672 -0.0220 -1.3377  1.1341
38747SOL     OW21178   3.499   1.634   8.984 -0.3336  0.8625 -0.0705
38747SOL    HW121179   3.459   1.697   8.924 -0.0395  0.7838 -0.3524
38747SOL    HW221180   3.425   1.587   9.022 -0.4977  0.2709 -1.0756
38748SOL     OW21181   7.309   9.615   4.194 -0.4870  0.3721 -0.4701
38748SOL    HW121182   7.261   9.558   4.134 -0.4829  0.1807 -0.2921
38748SOL    HW221183   7.308   9.569   4.278 -2.1739  1.5333  0.1835
38749SOL     OW21184   5.570  10.989   9.055  0.3976  0.4351  0.2528
38749SOL    HW121185   5.603  11.063   9.004  0.7296 -0.6655 -1.2055
38749SOL    HW221186   5.600  11.006   9.144  0.6576  1.9297 -0.0946
38750SOL     OW21187   9.317   1.359   6.414 -0.1504  0.1013  0.2569
38750SOL    HW121188   9.358   1.276   6.436 -1.6230 -0.4699  1.0084
38750SOL    HW221189   9.389   1.415   6.386  0.9668 -1.1846  0.4537
38751SOL     OW21190   7.703   6.139   6.048 -0.1261 -0.3711 -0.8168
38751SOL    HW121191   7.663   6.162   6.132 -2.8304 -0.3072 -1.9848
38751SOL    HW221192   7.789   6.180   6.050 -0.8016  1.1285  1.2429
38752SOL     OW21193  10.700  11.588   3.614 -0.1706 -0.8813  0.3485
38752SOL    HW121194  10.659  11.514   3.658 -1.0178 -0.4061  0.3835
38752SOL    HW221195  10.679  11.664   3.669 -0.2333 -0.4597 -0.2427
38753SOL     OW21196   4.435   2.029   5.979 -0.3101 -0.1892  0.1623
38753SOL    HW121197   4.373   1.968   5.938  0.8890 -1.0253 -0.4834
38753SOL    HW221198   4.508   2.032   5.917 -0.0728  1.4508  0.4877
38754SOL     OW21199   2.778   8.442   6.903  0.0280  0.4044  0.7340
38754SOL    HW121200   2.859   8.398   6.928 -0.8607 -1.1794  1.0199
38754SOL    HW221201   2.780   8.525   6.951  2.0325  0.9989 -0.2695
38755SOL     OW21202   9.783   9.907   8.900  0.3024 -0.0074 -0.0978
38755SOL    HW121203   9.747   9.968   8.835 -0.7211 -0.4503  0.0405
38755SOL    HW221204   9.731   9.828   8.889  1.0353 -0.5576  0.3379
38756SOL     OW21205   5.038   9.425   6.908  0.4740 -0.2361  0.4380
38756SOL    HW121206   5.063   9.334   6.927 -0.6986 -0.7179 -0.1732
38756SOL    HW221207   5.076   9.476   6.979  0.0455 -1.3772  1.5236
38757SOL     OW21208   0.850   8.728   3.679  0.2667 -0.7713 -0.2849
38757SOL    HW121209   0.802   8.686   3.607 -0.0748 -2.4106  0.8220
38757SOL    HW221210   0.787   8.789   3.718 -0.2346 -1.3267 -0.1915
38758SOL     OW21211   5.463   7.487   4.012 -0.0095 -0.8370 -0.2900
38758SOL    HW121212   5.468   7.392   4.002  1.2430 -0.8996  0.7066
38758SOL    HW221213   5.473   7.501   4.106 -1.3694  0.2325 -0.2714
38759SOL     OW21214   5.026   7.795   6.497  0.6102  0.0246 -0.2069
38759SOL    HW121215   5.014   7.840   6.413  1.6859  0.2901 -0.2377
38759SOL    HW221216   5.113   7.821   6.526  1.2020 -1.8640 -0.1296
38760SOL     OW21217   9.000  10.373   8.002 -0.7838 -0.5257 -0.1374
38760SOL    HW121218   8.908  10.397   7.999 -0.6051  0.6177  1.8933
38760SOL    HW221219   9.038  10.429   8.069  1.5432 -0.5495 -1.3230
38761SOL     OW21220   7.668   3.420   8.699 -0.3522  0.1344  0.6999
38761SOL    HW121221   7.680   3.390   8.608  1.6233 -1.2111  1.3295
38761SOL    HW221222   7.740   3.480   8.714 -1.3888  1.3350  1.0450
38762SOL     OW21223   8.800   5.768   2.107 -0.3985 -0.3103 -0.2373
38762SOL    HW121224   8.816   5.836   2.042 -0.2320  0.3358  0.4700
38762SOL    HW221225   8.880   5.715   2.107  0.1835  0.5495  0.4607
38763SOL     OW21226   6.420   4.496   7.052 -0.1315  0.3608  0.9315
38763SOL    HW121227   6.333   4.489   7.092  0.1509  1.6530  1.8444
38763SOL    HW221228   6.476   4.527   7.123  1.1810 -0.8110  0.4580
38764SOL     OW21229   0.278   7.880   7.478 -0.1168 -0.7213  0.3680
38764SOL    HW121230   0.294   7.958   7.426  2.0584  0.5261  2.7000
38764SOL    HW221231   0.233   7.912   7.556 -1.6569 -2.2605  0.1689
38765SOL     OW21232   5.952   6.444   5.224  0.4687  0.2667  0.0831
38765SOL    HW121233   5.933   6.537   5.236  3.1892  0.7597  1.3115
38765SOL    HW221234   5.966   6.411   5.313 -0.2665 -1.2855 -0.3579
38766SOL     OW21235   4.682  10.348   4.080 -0.1290  0.3001 -0.4079
38766SOL    HW121236   4.610  10.286   4.086 -0.0250  0.2713  0.7046
38766SOL    HW221237   4.662  10.415   4.145  2.4782 -1.4306  2.4181
38767SOL     OW21238   7.675   2.112   7.315 -0.0622  0.5798 -0.3752
38767SOL    HW121239   7.720   2.090   7.233 -0.3945 -0.3097 -0.3318
38767SOL    HW221240   7.584   2.084   7.300 -0.0499  0.0929  0.4141
38768SOL     OW21241   4.800   8.312   7.812 -0.8116 -0.3525 -0.2919
38768SOL    HW121242   4.711   8.327   7.779 -0.8045 -1.6440 -0.9434
38768SOL    HW221243   4.813   8.218   7.803 -0.3444 -0.5946  2.2738
38769SOL     OW21244   5.988   7.035   9.202 -0.2024 -0.4377 -0.9226
38769SOL    HW121245   5.960   7.089   9.275  1.2380  2.3075 -2.2690
38769SOL    HW221246   6.038   6.964   9.242 -0.4488  0.3250  0.8020
38770SOL     OW21247   5.286   8.531   4.310 -0.1845 -0.0117 -0.8078
38770SOL    HW121248   5.273   8.560   4.400  0.8993 -1.0072 -0.3065
38770SOL    HW221249   5.265   8.608   4.257  0.3696  0.9745  0.3586
38771SOL     OW21250   2.960   2.503   9.272  0.7373  0.0349  0.6172
38771SOL    HW121251   3.046   2.487   9.233  0.0921 -0.5237 -0.6377
38771SOL    HW221252   2.947   2.429   9.332  0.2439 -1.0571 -0.7938
38772SOL     OW21253  10.571   2.011   2.433  0.2770 -0.3034 -0.4966
38772SOL    HW121254  10.589   1.951   2.506 -1.2519  0.0501  0.2109
38772SOL    HW221255  10.639   2.078   2.440 -0.0395 -0.0901  0.8391
38773SOL     OW21256   6.486   7.449  11.386 -0.3934 -0.2711  0.3968
38773SOL    HW121257   6.480   7.461  11.481  1.0511  1.7160  0.2930
38773SOL    HW221258   6.443   7.527  11.350 -2.1398 -1.6455 -0.6600
38774SOL     OW21259   4.644   9.764   7.291 -0.0206 -0.7584  0.2425
38774SOL    HW121260   4.632   9.674   7.322 -1.9263 -0.9358 -0.8516
38774SOL    HW221261   4.650   9.817   7.370 -1.2163 -1.5917  0.9177
38775SOL     OW21262   0.806  10.300   9.816  0.1201 -0.0028 -0.4703
38775SOL    HW121263   0.741  10.239   9.782  0.0944  0.0287 -0.4784
38775SOL    HW221264   0.768  10.387   9.798 -0.6322  0.0171  1.0298
38776SOL     OW21265   1.935  10.315   8.739  0.0027  0.4798  0.0211
38776SOL    HW121266   1.927  10.374   8.664  0.8415 -0.4901 -0.8654
38776SOL    HW221267   1.998  10.358   8.797 -1.1510  1.5567  0.5276
38777SOL     OW21268   9.833   8.349   9.879  0.0762  0.0381  0.1463
38777SOL    HW121269   9.893   8.409   9.834 -0.9773 -0.0594 -1.4677
38777SOL    HW221270   9.890   8.289   9.926  1.2842 -0.4232 -1.8292
38778SOL     OW21271   9.561   8.058   4.894  0.4594  0.1803 -0.0473
38778SOL    HW121272   9.622   8.117   4.936  0.5717  1.5487 -1.9936
38778SOL    HW221273   9.486   8.053   4.954  0.6868  1.8755  0.4125
38779SOL     OW21274  10.222  11.261   1.409  0.0138 -0.2845 -0.2804
38779SOL    HW121275  10.293  11.269   1.472 -0.0070 -0.1637 -0.2717
38779SOL    HW221276  10.203  11.351   1.382  0.8989 -0.4217 -1.4401
38780SOL     OW21277  11.011   7.310   4.646 -0.4271 -0.5149 -0.3514
38780SOL    HW121278  10.935   7.271   4.602 -0.5663 -1.0043  0.3002
38780SOL    HW221279  11.015   7.264   4.730 -0.7697  1.0811  0.5736
38781SOL     OW21280   0.013   5.789   5.063 -0.0496 -0.0603 -0.5568
38781SOL    HW121281   0.013   5.849   4.988 -2.0284  0.5103 -0.1475
38781SOL    HW221282  -0.030   5.839   5.133 -0.9199 -1.6362  0.0692
38782SOL     OW21283   6.950   2.743   1.399  0.0790  0.1591 -0.6805
38782SOL    HW121284   7.040   2.712   1.413 -0.1649  0.0544  0.7571
38782SOL    HW221285   6.898   2.697   1.465 -0.5866  2.2734  0.3388
38783SOL     OW21286   4.706   6.462   0.320 -0.1571 -0.2314 -0.2340
38783SOL    HW121287   4.611   6.475   0.316 -0.2285  0.1729  1.7548
38783SOL    HW221288   4.743   6.540   0.279 -0.6760 -0.1440 -0.5487
38784SOL     OW21289   6.528   4.539  11.071 -0.1425  0.1604  0.3187
38784SOL    HW121290   6.512   4.628  11.038  1.1513  0.1875 -0.2827
38784SOL    HW221291   6.588   4.501  11.008 -0.3475 -1.0054  0.8152
38785SOL     OW21292   7.557   9.947   3.322 -0.0776  0.2061 -0.4634
38785SOL    HW121293   7.565   9.930   3.228  0.8267  2.2802 -0.8152
38785SOL    HW221294   7.485  10.009   3.330 -0.4294 -0.2884  0.2628
38786SOL     OW21295   2.524   3.796   9.995  0.2358  0.5765 -0.1730
38786SOL    HW121296   2.533   3.756   9.908 -0.7059 -0.5803  0.2358
38786SOL    HW221297   2.520   3.722  10.055  0.2906  1.3511  0.8021
38787SOL     OW21298   5.993   0.623   1.868 -0.2359 -0.3026  0.3731
38787SOL    HW121299   6.012   0.533   1.891 -0.0795 -0.9190 -1.9248
38787SOL    HW221300   5.899   0.623   1.846  0.1757 -0.4322 -1.5886
38788SOL     OW21301   4.732   3.733   5.162 -0.9984 -0.2967  0.0481
38788SOL    HW121302   4.700   3.703   5.246  0.9830 -0.4129  0.8232
38788SOL    HW221303   4.805   3.675   5.141 -0.4530  0.7021 -0.9803
38789SOL     OW21304   3.012   6.050   9.690 -0.1223  0.3540  0.3672
38789SOL    HW121305   3.066   6.096   9.755  0.8533 -1.9799  1.3049
38789SOL    HW221306   3.038   6.089   9.606 -0.0459  2.1282  1.1596
38790SOL     OW21307   4.346   7.276   0.956 -0.4032  0.8730  0.1821
38790SOL    HW121308   4.423   7.230   0.990 -1.5163 -0.6059  0.8472
38790SOL    HW221309   4.367   7.369   0.966  0.6510  0.5059  1.8896
38791SOL     OW21310  11.275   5.906   2.338  0.2848 -0.3563  0.0883
38791SOL    HW121311  11.221   5.978   2.371  1.1611 -0.1381  1.0881
38791SOL    HW221312  11.281   5.845   2.411  0.2804 -1.0178 -0.4605
38792SOL     OW21313   8.051   7.068   1.460  0.3060 -0.1025  0.0359
38792SOL    HW121314   8.071   7.159   1.481  1.9310 -0.8403  2.0134
38792SOL    HW221315   7.959   7.057   1.484  0.5613  0.5919  1.4214
38793SOL     OW21316  10.637   1.318  11.492  0.4264  0.0159  0.1203
38793SOL    HW121317  10.620   1.239  11.440 -1.7840  0.0517  0.6907
38793SOL    HW221318  10.636   1.389  11.428  2.5129 -0.3690 -0.4090
38794SOL     OW21319   7.766   9.930   7.362  0.5883  0.0540  0.3480
38794SOL    HW121320   7.831   9.922   7.291  0.7658 -0.4887  0.5592
38794SOL    HW221321   7.736   9.840   7.376 -1.6455  0.5006 -1.0533
38795SOL     OW21322   3.102   3.160   4.779  0.0754  0.1732  0.5045
38795SOL    HW121323   3.134   3.229   4.837  0.7241 -0.2151  0.6192
38795SOL    HW221324   3.096   3.082   4.834  3.6910 -1.0294 -0.5053
38796SOL     OW21325   0.550   8.551   1.611  0.0387  0.0303 -0.3027
38796SOL    HW121326   0.476   8.602   1.578  0.5306  0.6201 -0.5297
38796SOL    HW221327   0.537   8.463   1.575 -2.1473 -0.7264  2.0891
38797SOL     OW21328   8.285   6.204   9.366  0.2881 -0.5649 -0.3658
38797SOL    HW121329   8.362   6.146   9.361  0.6955 -0.1319  0.5813
38797SOL    HW221330   8.235   6.171   9.441  0.6027  0.3782  0.2809
38798SOL     OW21331   1.769   9.011   2.391  0.4952  0.8421 -0.1040
38798SOL    HW121332   1.750   8.991   2.483 -0.7869  1.0437 -0.3030
38798SOL    HW221333   1.817   9.093   2.394 -0.0071  1.1271  0.3706
38799SOL     OW21334  11.525   0.981   3.634 -0.4614  0.6711  0.5655
38799SOL    HW121335  11.506   1.050   3.570 -0.2549  1.1887  1.0538
38799SOL    HW221336  11.605   0.940   3.602 -1.1699 -0.0724 -0.3148
38800SOL     OW21337   7.858   1.411   5.454  0.0036  0.0769 -0.4571
38800SOL    HW121338   7.785   1.450   5.405 -1.0173  1.9346  2.3001
38800SOL    HW221339   7.817   1.345   5.509  0.2562  1.3371  1.3324
38801SOL     OW21340   0.339   3.641   5.578  0.1514 -0.2787  0.2207
38801SOL    HW121341   0.364   3.733   5.589  0.6846 -0.3724 -0.1481
38801SOL    HW221342   0.352   3.625   5.484 -0.7696 -0.4919  0.1284
38802SOL     OW21343   7.758   2.018   0.178 -0.1983  0.5691  0.0133
38802SOL    HW121344   7.849   2.047   0.174 -0.1857  0.4926 -0.2951
38802SOL    HW221345   7.707   2.099   0.171 -0.1554  0.7027  1.0378
38803SOL     OW21346  11.424   0.338   2.538  0.5601  0.4071  0.3721
38803SOL    HW121347  11.375   0.341   2.456  1.2174 -1.6611 -0.1282
38803SOL    HW221348  11.456   0.249   2.545  2.0131  0.9922  2.0327
38804SOL     OW21349   6.043  11.476   5.318  0.1679 -0.2002  0.0258
38804SOL    HW121350   6.070  11.435   5.237  1.2893  0.7122 -0.0790
38804SOL    HW221351   5.947  11.470   5.317 -0.2356  3.2277 -3.2682
38805SOL     OW21352   4.165   8.082   8.014 -0.0915  0.3218  0.2641
38805SOL    HW121353   4.216   8.112   7.939  1.3121  0.1791  1.1199
38805SOL    HW221354   4.127   7.999   7.986  0.7328  0.0828 -0.1787
38806SOL     OW21355   1.474   4.336   1.556 -0.0035  0.2525  0.1836
38806SOL    HW121356   1.419   4.309   1.483 -0.1169  0.5778  0.1491
38806SOL    HW221357   1.549   4.380   1.515 -0.1223  0.5350  0.2659
38807SOL     OW21358   7.232   0.834  11.181 -0.2760  0.4555  0.8984
38807SOL    HW121359   7.286   0.893  11.128 -0.6374  0.1955  0.2250
38807SOL    HW221360   7.293   0.765  11.208 -0.1966  0.3298  0.4088
38808SOL     OW21361   8.905   1.133   2.021 -0.7266 -0.2728  0.0747
38808SOL    HW121362   8.994   1.149   1.990 -0.9977  0.4047 -0.3651
38808SOL    HW221363   8.905   1.041   2.048 -0.1115 -0.4934 -0.6556
38809SOL     OW21364   3.943   3.433   8.806  0.7729  0.0531 -0.1971
38809SOL    HW121365   3.917   3.434   8.713  3.3001  0.4591 -0.9861
38809SOL    HW221366   3.929   3.342   8.833 -1.4465  0.2565 -0.4731
38810SOL     OW21367   1.434   2.779  10.202 -0.3563 -0.1840 -0.6797
38810SOL    HW121368   1.439   2.688  10.174 -2.1031 -0.1923 -1.1318
38810SOL    HW221369   1.370   2.779  10.273  0.4819  0.5491  0.1024
38811SOL     OW21370   9.436   7.029   2.384 -0.8546 -0.0508  0.0051
38811SOL    HW121371   9.529   7.030   2.361 -0.9318 -1.0832 -0.4188
38811SOL    HW221372   9.434   7.012   2.478 -0.6180 -0.0580  0.0090
38812SOL     OW21373   3.181  11.150   9.073 -0.1950  0.0892 -0.5296
38812SOL    HW121374   3.226  11.109   9.148  0.0374  0.7402 -0.3053
38812SOL    HW221375   3.161  11.238   9.103 -1.0496  0.0150 -0.8697
38813SOL     OW21376   6.078  10.101   6.003 -1.0209  0.5765 -0.0511
38813SOL    HW121377   6.054  10.041   5.932 -0.2165 -0.9440  0.8910
38813SOL    HW221378   6.172  10.084   6.017 -1.4843 -0.4503  2.4508
38814SOL     OW21379   5.470   6.304   8.089  0.0004  0.1018  0.1706
38814SOL    HW121380   5.550   6.288   8.040 -0.7448  0.1550 -1.1079
38814SOL    HW221381   5.500   6.325   8.178  1.3910  0.2092 -0.2998
38815SOL     OW21382  10.234   6.088   9.955 -0.1142 -0.4324 -0.0521
38815SOL    HW121383  10.302   6.020   9.966  1.1333  0.1951 -2.9460
38815SOL    HW221384  10.163   6.043   9.911 -0.7167 -0.5710  1.0207
38816SOL     OW21385   5.173   1.982   3.464  0.1457  0.1034  0.1359
38816SOL    HW121386   5.150   2.017   3.550  0.3117  0.0438  0.2052
38816SOL    HW221387   5.114   2.027   3.403 -0.9323 -0.8567  0.4296
38817SOL     OW21388   8.131   6.922   7.272  0.5931 -0.4082 -0.2626
38817SOL    HW121389   8.045   6.961   7.287  0.5904 -0.4125 -0.2658
38817SOL    HW221390   8.190   6.969   7.332  0.7171  0.0675 -0.7489
38818SOL     OW21391   2.908  11.246   8.337  0.0693 -0.5741 -0.0115
38818SOL    HW121392   2.861  11.256   8.254 -1.5408  1.2873  1.0364
38818SOL    HW221393   3.000  11.260   8.314 -0.5255  2.0158 -1.2272
38819SOL     OW21394   3.488   9.225   7.139  0.1999 -0.0975  0.2089
38819SOL    HW121395   3.429   9.151   7.150 -0.6515  0.8142  2.2086
38819SOL    HW221396   3.464   9.263   7.054  0.6779 -2.0699 -0.8745
38820SOL     OW21397   5.518   0.207   0.258  0.0490 -0.6654 -0.2234
38820SOL    HW121398   5.443   0.184   0.313 -0.5119  0.8644 -0.3210
38820SOL    HW221399   5.507   0.153   0.180 -0.4985 -1.0453  0.1041
38821SOL     OW21400   3.048   0.704   7.791 -0.0971 -0.0374 -0.0574
38821SOL    HW121401   3.059   0.711   7.886 -2.5019 -0.4333  0.3144
38821SOL    HW221402   3.105   0.632   7.766  2.6986  1.7659  0.5678
38822SOL     OW21403   7.366  10.974   4.762 -0.2387  0.0811  0.4371
38822SOL    HW121404   7.412  11.056   4.745  1.3911 -0.9175 -0.0914
38822SOL    HW221405   7.282  11.002   4.800  1.2223  1.9444  2.5805
38823SOL     OW21406   5.513  11.304   6.486  0.3661 -0.6523 -0.0904
38823SOL    HW121407   5.516  11.212   6.459  0.9408 -0.2928 -1.2969
38823SOL    HW221408   5.479  11.301   6.576 -0.3604 -1.9752 -0.3815
38824SOL     OW21409  11.061   3.227   4.430  0.5372 -0.5438 -0.1861
38824SOL    HW121410  11.039   3.193   4.517 -0.3352  2.6382  0.9626
38824SOL    HW221411  11.153   3.253   4.436  0.4973 -0.3883 -0.2484
38825SOL     OW21412   4.282   7.334   1.765 -0.2004 -0.4861 -0.0622
38825SOL    HW121413   4.353   7.342   1.701 -1.6389 -1.6470 -1.9097
38825SOL    HW221414   4.271   7.423   1.799  0.6482  0.1730 -1.3992
38826SOL     OW21415  10.721   2.499  10.351  0.1925 -0.1732  0.6950
38826SOL    HW121416  10.663   2.511  10.426 -1.9527  1.7032 -1.1267
38826SOL    HW221417  10.755   2.586  10.332 -0.8622 -0.1762 -1.6170
38827SOL     OW21418   0.129   5.183   1.564 -0.5338 -0.1748 -0.1286
38827SOL    HW121419   0.042   5.145   1.564 -1.2008  1.1173 -2.6869
38827SOL    HW221420   0.185   5.115   1.524  0.0510 -1.5782  2.7928
38828SOL     OW21421   5.660  10.922   9.304  0.4409  0.3400  0.7228
38828SOL    HW121422   5.571  10.917   9.339 -0.2459  1.2523 -0.8284
38828SOL    HW221423   5.712  10.867   9.364 -1.0479  0.1951  1.9451
38829SOL     OW21424  11.159   3.073   3.193  0.1960  0.5900 -0.3284
38829SOL    HW121425  11.105   3.142   3.155 -0.0154  1.4121  1.3446
38829SOL    HW221426  11.164   3.095   3.286  1.1456 -0.9910  0.0432
38830SOL     OW21427   6.675   7.652  11.502 -0.1664  0.1577 -0.1275
38830SOL    HW121428   6.635   7.579  11.456 -1.3112  1.4599 -1.3009
38830SOL    HW221429   6.650   7.641  11.594  1.4753 -2.0433  0.1463
38831SOL     OW21430   1.290   5.538   0.817  0.3396 -0.3263 -0.7267
38831SOL    HW121431   1.283   5.455   0.769 -0.6518 -1.3972  1.1389
38831SOL    HW221432   1.381   5.564   0.808  0.7110 -1.7290 -1.1874
38832SOL     OW21433   8.231   8.773   9.601  0.3041 -0.3737  1.0558
38832SOL    HW121434   8.294   8.791   9.670  0.0176 -0.7226  1.4142
38832SOL    HW221435   8.173   8.706   9.638 -0.4908  0.1879  0.8658
38833SOL     OW21436   0.288   5.690   2.570  0.1065  0.4191 -0.3195
38833SOL    HW121437   0.363   5.689   2.511  0.0381 -0.1865 -0.4029
38833SOL    HW221438   0.226   5.628   2.530 -0.1717  0.4393  0.0814
38834SOL     OW21439  10.989   9.696   4.424  0.2523 -0.2618  0.8666
38834SOL    HW121440  10.990   9.627   4.357 -0.5387 -1.8288  2.3921
38834SOL    HW221441  11.078   9.732   4.422  0.5519 -1.0129 -0.2734
38835SOL     OW21442   9.158   9.651   4.717 -0.0040 -0.3017 -0.6292
38835SOL    HW121443   9.244   9.652   4.758  0.2272  0.0309 -1.1184
38835SOL    HW221444   9.168   9.704   4.638 -0.7374  0.0031 -0.5248
38836SOL     OW21445   5.109   4.137   4.510 -0.7525 -0.7651  0.3456
38836SOL    HW121446   5.090   4.076   4.582 -1.4101  1.6577  2.3678
38836SOL    HW221447   5.032   4.195   4.506  0.2562  0.5750 -0.7785
38837SOL     OW21448   2.044   9.457   9.420 -0.5163  0.0265  0.4580
38837SOL    HW121449   1.997   9.454   9.503 -1.9976  0.6431 -0.3251
38837SOL    HW221450   2.054   9.550   9.402  0.2375 -0.1079  0.1804
38838SOL     OW21451   4.076   6.117   8.746  0.1426 -0.0703  0.4852
38838SOL    HW121452   4.151   6.130   8.689  1.4987 -0.8436  2.0044
38838SOL    HW221453   4.027   6.045   8.706 -0.4193  1.1270 -1.0813
38839SOL     OW21454   1.397   2.202   0.375 -0.5865 -0.0824  0.1757
38839SOL    HW121455   1.393   2.112   0.407 -0.7375  0.5285  1.9605
38839SOL    HW221456   1.458   2.246   0.434  1.2332  0.5216 -1.9843
38840SOL     OW21457  10.501   9.980   2.341 -0.2298 -0.0392 -0.4682
38840SOL    HW121458  10.557  10.020   2.408 -1.1704 -0.3376  0.5286
38840SOL    HW221459  10.545   9.898   2.320 -0.6432 -0.6306  0.8559
38841SOL     OW21460   6.247  10.421   4.123 -0.2908  0.4768 -0.2076
38841SOL    HW121461   6.323  10.377   4.162 -0.3130  0.3531 -0.3036
38841SOL    HW221462   6.172  10.369   4.151 -0.4829  1.4112  1.0758
38842SOL     OW21463   5.857   5.352   4.300 -0.4293 -0.6376  0.1844
38842SOL    HW121464   5.838   5.438   4.263  0.2325 -0.1936  0.8599
38842SOL    HW221465   5.853   5.365   4.395  4.9391 -0.0126  0.5980
38843SOL     OW21466   7.625   6.289   9.482 -0.3644 -0.1487 -0.5153
38843SOL    HW121467   7.589   6.260   9.398 -0.4594  0.0696 -0.5512
38843SOL    HW221468   7.593   6.379   9.492  0.9977  0.4199 -1.0219
38844SOL     OW21469   8.906   0.146   2.273 -0.6247  0.5260 -0.3918
38844SOL    HW121470   8.877   0.154   2.182 -0.5585  0.5876 -0.4072
38844SOL    HW221471   8.970   0.216   2.284 -0.2520  0.1987 -0.4488
38845SOL     OW21472   2.241   4.860   7.014  0.1530  0.2936 -0.0206
38845SOL    HW121473   2.158   4.816   6.994  0.1425  0.2234  0.1732
38845SOL    HW221474   2.218   4.924   7.082  0.1985  0.4849 -0.1869
38846SOL     OW21475   5.304   3.886   9.870 -0.1870 -0.0565 -0.7144
38846SOL    HW121476   5.355   3.806   9.865 -1.2597 -0.7220 -1.3216
38846SOL    HW221477   5.245   3.882   9.794 -2.8296 -0.5033  1.2249
38847SOL     OW21478   0.105   2.274   9.984  0.1561  0.1371  0.3213
38847SOL    HW121479   0.101   2.270  10.079  0.8983  1.1194  0.4092
38847SOL    HW221480   0.166   2.205   9.959  2.0670  1.5825  0.7744
38848SOL     OW21481  11.035   0.101   9.334 -0.2073 -0.3892  0.0201
38848SOL    HW121482  11.057   0.045   9.260 -1.1524  0.4953 -0.9758
38848SOL    HW221483  11.056   0.189   9.304  1.1676 -0.1592  1.5231
38849SOL     OW21484   1.231   8.067   8.084 -0.4944 -0.2909  0.2242
38849SOL    HW121485   1.322   8.081   8.109 -0.3360  0.5864 -0.7605
38849SOL    HW221486   1.183   8.070   8.166  0.2533  0.2139  0.6557
38850SOL     OW21487   4.720   0.474   7.454 -0.2611  0.0881 -0.3877
38850SOL    HW121488   4.655   0.439   7.394 -0.0005 -0.3117 -0.4475
38850SOL    HW221489   4.804   0.458   7.410  0.1435 -2.4415  1.0963
38851SOL     OW21490   3.129  11.575   3.233 -0.3103 -0.2926  0.2855
38851SOL    HW121491   3.140  11.623   3.314  1.6839 -0.1699 -0.0268
38851SOL    HW221492   3.128  11.483   3.259 -0.0391 -0.2401  0.4782
38852SOL     OW21493   4.535   2.493   9.005 -0.3889 -0.0227  0.1913
38852SOL    HW121494   4.537   2.587   9.024 -0.0314  0.0501 -0.1861
38852SOL    HW221495   4.471   2.457   9.066 -0.7530  0.5129  0.1268
38853SOL     OW21496   5.855  11.204   7.764  0.2997  0.3453  0.6048
38853SOL    HW121497   5.938  11.226   7.807 -0.1093  2.0808  0.5667
38853SOL    HW221498   5.821  11.288   7.733 -0.2110 -0.6385 -1.7133
38854SOL     OW21499   2.807  11.281  10.053  0.0104 -0.2004  0.3762
38854SOL    HW121500   2.900  11.293  10.034 -0.3428  0.8916 -0.7972
38854SOL    HW221501   2.791  11.339  10.128 -0.0919  1.0754 -0.5920
38855SOL     OW21502   4.356   5.742   2.471 -0.9545 -0.4532  0.1626
38855SOL    HW121503   4.353   5.836   2.454 -0.7007 -0.4064  0.3781
38855SOL    HW221504   4.268   5.711   2.447 -0.7206 -0.3352 -0.8901
38856SOL     OW21505   9.286   8.784   4.647 -0.0268  0.2594  0.3777
38856SOL    HW121506   9.239   8.727   4.586 -2.4344  1.9374  0.5058
38856SOL    HW221507   9.364   8.810   4.599 -0.2716 -0.9418 -0.7372
38857SOL     OW21508   5.780   6.609   4.619 -0.1621 -0.0872 -0.0960
38857SOL    HW121509   5.686   6.623   4.635 -0.2860 -1.0063  0.0274
38857SOL    HW221510   5.800   6.527   4.664  0.4285 -0.5297 -1.1239
38858SOL     OW21511   5.020   2.833   2.853  0.1427  0.3742 -0.1398
38858SOL    HW121512   4.924   2.828   2.860 -0.0338  1.2237 -1.5157
38858SOL    HW221513   5.049   2.848   2.943 -1.1170  1.2624  0.1635
38859SOL     OW21514   7.559  10.570   8.162 -0.2448 -0.0591  0.3595
38859SOL    HW121515   7.552  10.623   8.082 -0.6752 -1.0575 -0.2921
38859SOL    HW221516   7.599  10.628   8.226 -2.7725  1.8207  0.3907
38860SOL     OW21517   4.874   0.867   9.187 -0.1160  0.1979  0.0196
38860SOL    HW121518   4.936   0.796   9.204  0.0228  0.5598  1.1347
38860SOL    HW221519   4.798   0.824   9.149  0.4865 -0.3606 -0.5796
38861SOL     OW21520   3.448   3.751   7.694 -0.4888 -0.3678 -0.1076
38861SOL    HW121521   3.495   3.725   7.615 -1.0931  0.5485 -0.7884
38861SOL    HW221522   3.367   3.699   7.692 -0.4714 -0.3967 -0.0569
38862SOL     OW21523   9.963  10.645   0.088  0.0985  0.2784 -0.6916
38862SOL    HW121524  10.024  10.580   0.054 -1.0889 -0.9679 -0.5704
38862SOL    HW221525   9.927  10.605   0.168  0.5928  1.8398  0.3601
38863SOL     OW21526  11.428   2.468   1.380 -0.0539 -0.3801  0.1839
38863SOL    HW121527  11.520   2.494   1.375  0.2843 -1.6784 -0.8670
38863SOL    HW221528  11.430   2.380   1.417 -1.1845  0.9893  3.9917
38864SOL     OW21529   0.313   5.139   9.437 -0.7723 -0.0271  0.2535
38864SOL    HW121530   0.352   5.052   9.433 -1.3336 -0.2658 -0.3163
38864SOL    HW221531   0.290   5.151   9.529  2.2962  0.8928  1.0199
38865SOL     OW21532   8.775   6.824   4.922 -0.4171 -0.1089 -0.4463
38865SOL    HW121533   8.805   6.878   4.849 -0.7175  0.3171 -0.2544
38865SOL    HW221534   8.774   6.735   4.887  0.5274 -0.0604 -0.6242
38866SOL     OW21535   6.844   9.854   6.153 -0.3291 -0.4490 -0.2696
38866SOL    HW121536   6.790   9.786   6.193  2.0571 -1.4029  1.5505
38866SOL    HW221537   6.789   9.891   6.084 -1.1608 -5.4985 -2.7710
38867SOL     OW21538  11.419  10.454   5.664  0.0009 -0.1988 -0.1769
38867SOL    HW121539  11.338  10.413   5.632 -0.2942  1.5673 -1.8906
38867SOL    HW221540  11.449  10.508   5.591  2.4425 -0.3601  0.6380
38868SOL     OW21541   7.275  10.053   1.978 -0.0130 -0.6629 -0.1450
38868SOL    HW121542   7.332   9.989   2.022 -0.9530 -0.9694  0.6421
38868SOL    HW221543   7.219  10.087   2.047 -0.9470 -0.5275 -0.9573
38869SOL     OW21544   6.374   0.932   1.759 -0.2016  0.4836 -0.0187
38869SOL    HW121545   6.297   0.891   1.721 -0.2731  0.8661 -0.2967
38869SOL    HW221546   6.426   0.859   1.794 -0.2946  0.1580 -0.5572
38870SOL     OW21547   6.345   7.102  10.182  0.4147 -0.0826 -0.0998
38870SOL    HW121548   6.435   7.092  10.212  0.2948  1.5439  0.9165
38870SOL    HW221549   6.354   7.142  10.095  0.6664  0.5561  0.2171
38871SOL     OW21550  11.282   5.870   5.248  0.0390 -0.4195 -0.2218
38871SOL    HW121551  11.240   5.954   5.266  0.0741 -0.2253 -1.0351
38871SOL    HW221552  11.266   5.853   5.156  0.9645 -0.7816 -0.3330
38872SOL     OW21553   9.954   1.792   1.304  0.0279  0.0241  0.7156
38872SOL    HW121554   9.946   1.885   1.283 -1.2596 -0.6022 -1.9802
38872SOL    HW221555   9.874   1.772   1.353 -0.9715 -0.1317 -0.9088
38873SOL     OW21556  11.426   9.013   9.415 -0.1354 -0.5189 -0.6904
38873SOL    HW121557  11.515   9.038   9.438 -0.5701  0.8423 -0.3705
38873SOL    HW221558  11.431   8.919   9.396  1.2338 -0.5846 -0.1019
38874SOL     OW21559   2.654   0.751   0.610  0.4987  0.1852 -0.4409
38874SOL    HW121560   2.645   0.657   0.625  1.6720  0.2172  0.5856
38874SOL    HW221561   2.618   0.792   0.689 -0.6469  0.6541 -1.1692
38875SOL     OW21562   5.430   2.498   6.548  0.1661 -0.0942  0.6552
38875SOL    HW121563   5.426   2.410   6.510  0.5716  0.7355 -1.5055
38875SOL    HW221564   5.386   2.490   6.633 -0.9237 -2.1033 -0.0156
38876SOL     OW21565   6.691   2.998   2.424 -0.1860  0.4097 -0.6041
38876SOL    HW121566   6.747   3.061   2.470 -0.7096  0.3676  0.1146
38876SOL    HW221567   6.606   3.006   2.466 -0.3564 -0.5304 -0.7321
38877SOL     OW21568   1.354   4.127  10.734  0.8044  0.6959 -0.2366
38877SOL    HW121569   1.422   4.121  10.801  1.5609  1.1536 -0.9471
38877SOL    HW221570   1.278   4.084  10.773  1.0444  1.4779  1.1445
38878SOL     OW21571   3.393  11.466   1.830  0.7417  0.3990  0.0305
38878SOL    HW121572   3.475  11.419   1.810  0.6787 -0.0884  0.8645
38878SOL    HW221573   3.351  11.477   1.745 -0.2326 -2.9108 -0.0706
38879SOL     OW21574   6.823   5.291   5.524  0.4553  0.7668 -0.5745
38879SOL    HW121575   6.867   5.353   5.582  2.3698 -1.5230  0.5750
38879SOL    HW221576   6.892   5.232   5.495 -1.5739 -2.2827  0.3112
38880SOL     OW21577  11.179   6.789   7.872 -0.3265  0.3774  0.1007
38880SOL    HW121578  11.202   6.753   7.787 -0.8933 -0.2633  0.2187
38880SOL    HW221579  11.263   6.819   7.908 -0.1173  0.8764 -0.7729
38881SOL     OW21580   2.421   7.354   2.854 -0.3524  0.1515 -0.1381
38881SOL    HW121581   2.496   7.355   2.914  0.7935 -1.8774 -1.4124
38881SOL    HW221582   2.364   7.424   2.886  1.6165  1.1437  1.4635
38882SOL     OW21583   1.358   1.660   2.569 -0.1260 -0.5361 -0.5531
38882SOL    HW121584   1.290   1.672   2.503 -0.5228 -0.5047 -0.1457
38882SOL    HW221585   1.377   1.748   2.600 -0.5616 -0.6222 -0.0178
38883SOL     OW21586   6.248   1.627   4.869  0.4214 -0.0290 -0.1704
38883SOL    HW121587   6.271   1.534   4.871  2.9215  0.4979 -0.5912
38883SOL    HW221588   6.290   1.663   4.947  0.4311  0.9147 -0.6047
38884SOL     OW21589   3.816   6.120   6.623 -0.1889  0.2793  0.2022
38884SOL    HW121590   3.896   6.074   6.649 -0.0044 -0.6073 -1.7561
38884SOL    HW221591   3.750   6.091   6.686  0.6318 -0.3235  0.8036
38885SOL     OW21592  11.244  11.638   3.739 -0.4669  0.1150 -0.0010
38885SOL    HW121593  11.286  11.621   3.654  0.9008 -0.3578  0.7277
38885SOL    HW221594  11.152  11.620   3.725 -0.1448 -0.7003 -1.2000
38886SOL     OW21595   3.206   8.759   1.517 -0.7684  0.2518  0.0773
38886SOL    HW121596   3.217   8.672   1.478 -1.1513 -0.5309  1.6000
38886SOL    HW221597   3.295   8.793   1.525 -0.2927 -1.2648  2.0828
38887SOL     OW21598   6.388   5.821   7.060 -0.9815 -0.0889 -0.5559
38887SOL    HW121599   6.465   5.766   7.068 -0.6577  0.5447  1.1051
38887SOL    HW221600   6.422   5.907   7.035 -1.1130  0.2282  0.3214
38888SOL     OW21601   1.211   9.508   8.059  0.3947 -0.2150 -0.2227
38888SOL    HW121602   1.180   9.596   8.037  0.1233 -0.2869 -0.1293
38888SOL    HW221603   1.246   9.473   7.977 -0.0356 -0.2447 -0.3912
38889SOL     OW21604   7.666   0.508   0.430  0.3989  0.3989 -0.8791
38889SOL    HW121605   7.753   0.474   0.452  0.1591  0.0661 -0.4383
38889SOL    HW221606   7.653   0.484   0.339 -0.0535 -1.3299 -0.3937
38890SOL     OW21607  10.744   9.579   5.009  0.3886 -0.1079 -0.3747
38890SOL    HW121608  10.674   9.523   5.042  0.6294 -0.1821  0.0149
38890SOL    HW221609  10.706   9.623   4.933  0.2394 -0.8813 -0.7509
38891SOL     OW21610   6.307   4.863   3.014 -0.2662 -0.3085 -1.1484
38891SOL    HW121611   6.254   4.838   3.090  0.6786  0.2556 -0.2701
38891SOL    HW221612   6.244   4.874   2.943 -1.2717 -0.0907 -0.2482
38892SOL     OW21613   8.534  10.755  10.568 -0.2437 -0.3115  0.1856
38892SOL    HW121614   8.453  10.716  10.534 -0.0087 -0.3553 -0.3354
38892SOL    HW221615   8.600  10.687  10.557 -0.0742 -0.1721  0.3377
38893SOL     OW21616   2.163   0.921   0.366  0.0479  0.5105 -0.3807
38893SOL    HW121617   2.214   0.889   0.441 -1.0000 -1.6196 -0.4926
38893SOL    HW221618   2.094   0.975   0.405 -0.3646 -0.4038  0.1990
38894SOL     OW21619   2.199   8.466  11.000 -0.0318 -0.0983  0.4203
38894SOL    HW121620   2.173   8.558  10.991  2.2241  0.8041  2.2374
38894SOL    HW221621   2.178   8.444  11.091  2.4979 -0.2650  1.0236
38895SOL     OW21622   7.682   3.488   0.564 -0.0350  0.1529 -0.0511
38895SOL    HW121623   7.592   3.502   0.595 -0.8434 -0.9565 -1.7561
38895SOL    HW221624   7.702   3.398   0.591 -0.5512 -0.6401 -2.1027
38896SOL     OW21625   1.864   5.914   7.907 -0.2538  0.0243 -0.2534
38896SOL    HW121626   1.929   5.848   7.926 -0.0035  0.2932 -0.1668
38896SOL    HW221627   1.888   5.988   7.963 -0.6849  0.0914 -0.1518
38897SOL     OW21628   9.019   0.166   4.966 -0.2182 -0.0846 -0.2829
38897SOL    HW121629   9.077   0.166   5.042 -1.0977  0.7183  0.4128
38897SOL    HW221630   9.070   0.207   4.896 -0.1478  1.2282  0.4997
38898SOL     OW21631   2.273  10.101   5.254 -0.0610  0.1516 -0.1957
38898SOL    HW121632   2.345  10.147   5.210 -0.5925 -0.2104 -1.4947
38898SOL    HW221633   2.309  10.016   5.277 -0.2822 -0.3439 -1.5911
38899SOL     OW21634   0.771   2.149   7.131  0.3028  0.1378 -0.2726
38899SOL    HW121635   0.705   2.185   7.071 -0.5372 -0.2153  0.4290
38899SOL    HW221636   0.781   2.058   7.104 -0.1937 -0.0647  0.2253
38900SOL     OW21637   0.822   0.807   0.966  0.0310  0.0081  0.6949
38900SOL    HW121638   0.779   0.853   0.894  1.2577  1.4268  0.8096
38900SOL    HW221639   0.760   0.740   0.993 -0.8788  0.1284 -0.9989
38901SOL     OW21640   0.098   7.167   3.894  0.1248  0.0380  0.0486
38901SOL    HW121641   0.051   7.211   3.823  0.5466  0.8307  0.2462
38901SOL    HW221642   0.138   7.091   3.852  0.0409  0.2798 -0.4822
38902SOL     OW21643   0.152   5.360   8.838  0.0045 -0.0513 -0.3364
38902SOL    HW121644   0.243   5.335   8.852 -0.0689  0.4647  1.3874
38902SOL    HW221645   0.101   5.292   8.883 -0.4736 -0.4057 -1.3955
38903SOL     OW21646   6.936   7.974   0.897 -0.2370 -0.0958  0.1874
38903SOL    HW121647   7.009   7.933   0.944 -0.8462 -0.4559  0.8503
38903SOL    HW221648   6.923   8.058   0.941  1.6518  1.3257 -1.7996
38904SOL     OW21649  10.876   6.431  10.158  0.2255  0.2108 -0.2775
38904SOL    HW121650  10.930   6.449  10.235 -1.6548 -0.3818  1.2475
38904SOL    HW221651  10.938   6.398  10.093  1.7131 -0.4737  1.3872
38905SOL     OW21652   7.264   4.640   4.899  0.6113 -0.6239  0.0130
38905SOL    HW121653   7.265   4.550   4.932  0.3315 -1.0686 -1.1639
38905SOL    HW221654   7.250   4.631   4.805 -0.5959  0.6998  0.0332
38906SOL     OW21655   3.554   8.895  11.323  0.0939  0.1233 -0.8033
38906SOL    HW121656   3.512   8.825  11.273 -0.4828  0.9627 -1.5342
38906SOL    HW221657   3.519   8.885  11.412 -0.3143 -0.2558 -1.0014
38907SOL     OW21658   5.665   8.133   9.124 -0.5117  0.4564 -0.4977
38907SOL    HW121659   5.636   8.176   9.043 -2.4900 -0.3722 -0.2721
38907SOL    HW221660   5.688   8.206   9.182 -1.2738  1.1288 -1.0096
38908SOL     OW21661   4.269   3.831   0.794  0.4964 -0.0373 -0.0963
38908SOL    HW121662   4.349   3.787   0.763  0.3510 -0.2796 -0.1280
38908SOL    HW221663   4.207   3.760   0.808  0.7137 -0.0047  1.2206
38909SOL     OW21664   5.582   8.597   9.197 -0.5211  0.4728 -0.2539
38909SOL    HW121665   5.590   8.559   9.109 -0.4604  0.6435 -0.3235
38909SOL    HW221666   5.672   8.599   9.230  0.0796  3.8502 -1.6463
38910SOL     OW21667   2.304   8.940   1.437 -0.2907 -0.2881  0.2279
38910SOL    HW121668   2.399   8.938   1.441 -0.3028 -0.4208  0.4951
38910SOL    HW221669   2.284   8.966   1.348  0.0489  4.1275  1.2306
38911SOL     OW21670   4.786   7.979   1.799  0.1133  0.1488 -0.1072
38911SOL    HW121671   4.779   7.941   1.711  0.7819  1.2505 -0.6689
38911SOL    HW221672   4.858   7.931   1.840 -0.1815 -0.3499 -0.1689
38912SOL     OW21673   7.753   6.175   7.780 -0.3170  0.0751  0.5419
38912SOL    HW121674   7.756   6.084   7.752 -0.6109  0.5769 -1.2158
38912SOL    HW221675   7.670   6.184   7.826 -0.7458 -0.3197 -0.1474
38913SOL     OW21676   2.537   6.605   3.880  0.4087  1.1871 -0.3892
38913SOL    HW121677   2.453   6.646   3.901 -0.6432 -0.7370 -0.6578
38913SOL    HW221678   2.602   6.665   3.918 -1.1583  0.7626  3.5240
38914SOL     OW21679   2.692   7.941  10.679 -0.2057 -0.1609  0.3269
38914SOL    HW121680   2.620   7.987  10.722 -0.1314 -0.1199  0.4095
38914SOL    HW221681   2.718   7.999  10.607 -0.5640 -0.3971  0.0093
38915SOL     OW21682   8.942  10.512   2.209 -0.3027  0.0444 -0.3392
38915SOL    HW121683   8.924  10.418   2.213  1.9977 -0.4120  1.1233
38915SOL    HW221684   8.994  10.523   2.129  1.2349 -0.3347  0.5722
38916SOL     OW21685   7.964   1.778   3.148  0.1562  0.0143 -0.4114
38916SOL    HW121686   7.936   1.776   3.240 -2.1533  1.5215 -0.9898
38916SOL    HW221687   7.915   1.707   3.107  1.8208 -1.2044 -0.3763
38917SOL     OW21688   6.108   1.919   8.114  0.1280 -0.5698  0.3787
38917SOL    HW121689   6.019   1.900   8.145  0.0479 -0.1954  0.3886
38917SOL    HW221690   6.147   1.834   8.098 -0.4897 -0.7305 -0.3491
38918SOL     OW21691   5.565   6.555   0.593 -0.4634 -0.0078 -0.0281
38918SOL    HW121692   5.656   6.556   0.622  0.0540  1.3238 -1.5418
38918SOL    HW221693   5.514   6.571   0.672  0.6226 -0.4923  0.8003
38919SOL     OW21694   0.795   2.945   6.939 -0.2307  0.7802  0.6328
38919SOL    HW121695   0.888   2.965   6.946  0.1269  0.5311 -2.1238
38919SOL    HW221696   0.757   3.023   6.898 -0.9701  0.3454  0.4807
38920SOL     OW21697   6.632   0.297   0.869  0.3209 -1.1137 -0.2208
38920SOL    HW121698   6.609   0.226   0.810  1.5988 -0.9261 -0.9876
38920SOL    HW221699   6.716   0.329   0.837  0.1025  0.2996  0.5180
38921SOL     OW21700   7.583   7.809   0.542  0.0665 -0.4423  0.0315
38921SOL    HW121701   7.666   7.767   0.564  0.1199 -0.5335 -0.3247
38921SOL    HW221702   7.599   7.849   0.456  0.2706  1.0215  0.7370
38922SOL     OW21703  10.009   8.104   0.945  0.0308  0.1346  0.7031
38922SOL    HW121704  10.039   8.119   1.035 -1.5976 -0.2803  1.3484
38922SOL    HW221705  10.003   8.009   0.937  0.5414  0.1570  0.0241
38923SOL     OW21706   2.087   5.830   7.353  0.5324 -0.1959  0.0444
38923SOL    HW121707   1.994   5.829   7.375  0.1923 -0.4320 -1.3606
38923SOL    HW221708   2.094   5.781   7.272  1.7345  0.7164 -0.4408
38924SOL     OW21709  10.967   8.093   6.936 -0.2568  0.8381  0.6841
38924SOL    HW121710  10.945   8.054   6.852 -2.3191  0.1175  1.5074
38924SOL    HW221711  11.048   8.142   6.919  0.4129 -0.7861 -1.2464
38925SOL     OW21712   7.933   3.752  11.142 -0.0643 -0.5433  0.2846
38925SOL    HW121713   7.840   3.759  11.161 -0.3433 -3.1334  0.2932
38925SOL    HW221714   7.976   3.782  11.223 -0.8746  0.1781  0.4667
38926SOL     OW21715   3.999  10.729  10.178  0.0565  0.4408  0.5215
38926SOL    HW121716   3.990  10.798  10.112  2.1214  0.2746 -0.0134
38926SOL    HW221717   3.961  10.766  10.257 -1.1137  1.2281 -0.3822
38927SOL     OW21718   2.697   4.821   1.636  0.1245  0.2761 -0.2237
38927SOL    HW121719   2.757   4.761   1.682  0.9493 -0.9614 -2.7071
38927SOL    HW221720   2.655   4.871   1.706  1.4537 -1.2821  1.8303
38928SOL     OW21721   3.955   1.876   3.405 -0.3109  0.4831 -0.2900
38928SOL    HW121722   3.932   1.906   3.493 -1.9337 -1.0847 -0.1224
38928SOL    HW221723   3.928   1.784   3.403  1.1494  0.0272 -1.9294
38929SOL     OW21724   0.952   7.186   5.186  0.2885 -0.4912  0.5271
38929SOL    HW121725   0.932   7.125   5.115  0.7379  0.3645 -0.3728
38929SOL    HW221726   0.870   7.196   5.234  0.4612 -2.5669  1.3278
38930SOL     OW21727   4.971   5.050  11.458 -0.4958 -0.3861 -0.2990
38930SOL    HW121728   5.056   5.009  11.446 -0.3340 -0.4025  0.8076
38930SOL    HW221729   4.945   5.027  11.548 -2.3227 -1.5925 -1.0664
38931SOL     OW21730   5.560   5.155   8.776  0.0324  0.4730 -0.0807
38931SOL    HW121731   5.538   5.062   8.781 -4.2499  1.1872 -1.4682
38931SOL    HW221732   5.571   5.172   8.682  2.9408  1.1007  0.2680
38932SOL     OW21733   8.036  10.385   4.104  0.3815  0.2740  0.2409
38932SOL    HW121734   8.054  10.337   4.023  2.6819  1.7460 -0.2235
38932SOL    HW221735   8.072  10.330   4.173 -1.0999 -0.7300  0.2620
38933SOL     OW21736  11.491   6.578   7.222  0.3113 -0.2199 -0.3666
38933SOL    HW121737  11.398   6.588   7.240 -0.1424  0.8739 -2.9481
38933SOL    HW221738  11.527   6.666   7.230  0.6279 -0.2050 -1.7811
38934SOL     OW21739  10.913   0.649   0.591  0.3586 -0.1919 -0.4358
38934SOL    HW121740  10.875   0.671   0.506 -1.1483  0.5607  0.3897
38934SOL    HW221741  10.848   0.592   0.633  1.1656 -0.7099  0.1323
38935SOL     OW21742  11.012   7.445   1.810  0.2415  0.4409 -0.0601
38935SOL    HW121743  10.976   7.518   1.759  0.4141  0.1557 -0.6031
38935SOL    HW221744  10.963   7.447   1.892 -0.7174  0.3420 -0.6091
38936SOL     OW21745   9.743   1.010   3.145 -0.1240  0.0934 -0.0976
38936SOL    HW121746   9.802   1.035   3.074  3.2108  1.2392  2.7377
38936SOL    HW221747   9.670   1.071   3.139  0.7192  0.9948 -1.7860
38937SOL     OW21748   9.246   9.478   2.157  0.1532 -0.1244  0.4531
38937SOL    HW121749   9.234   9.570   2.132 -1.6916 -0.2409  0.7907
38937SOL    HW221750   9.258   9.480   2.252  0.4376 -0.2272  0.4221
38938SOL     OW21751   0.420   4.348  11.657 -0.1357  0.1590 -0.6571
38938SOL    HW121752   0.358   4.385  11.594 -0.4864 -2.4370 -1.9599
38938SOL    HW221753   0.479   4.421  11.677 -0.8375  1.4680 -2.9404
38939SOL     OW21754   8.270   3.437   3.714 -0.3897  0.5547  0.2052
38939SOL    HW121755   8.250   3.530   3.704  2.8915  1.3731  0.3749
38939SOL    HW221756   8.272   3.423   3.809 -2.3358 -0.1178  0.1921
38940SOL     OW21757   3.420   6.243  10.404  0.6529 -0.3400 -0.0321
38940SOL    HW121758   3.396   6.156  10.370  1.8381 -1.0202  0.8176
38940SOL    HW221759   3.511   6.255  10.377  0.4526  0.7223 -0.2627
38941SOL     OW21760   3.611   9.452   5.328 -0.2335  0.4818  0.6932
38941SOL    HW121761   3.598   9.454   5.234  0.3943  2.5657  0.6141
38941SOL    HW221762   3.641   9.362   5.346  0.0342  0.1697 -1.1278
38942SOL     OW21763   2.601   5.292   6.277 -0.1070  0.0278  0.5160
38942SOL    HW121764   2.572   5.357   6.341  0.9335  0.4612  0.5833
38942SOL    HW221765   2.685   5.326   6.246 -0.9736  0.2745 -1.7298
38943SOL     OW21766   6.348   3.581   0.261 -0.6393  0.2511  0.1432
38943SOL    HW121767   6.386   3.655   0.309  0.3930  0.7596 -1.3930
38943SOL    HW221768   6.402   3.506   0.286  0.0686  0.5660 -0.4091
38944SOL     OW21769   5.905  11.380   8.696  0.3469  0.7331 -0.1962
38944SOL    HW121770   5.820  11.422   8.692  0.1339  0.3336  0.1016
38944SOL    HW221771   5.891  11.301   8.748  0.9252  0.7326 -0.0304
38945SOL     OW21772   2.653   1.735   6.532 -0.0209 -0.5621  0.3512
38945SOL    HW121773   2.597   1.811   6.518 -0.9530 -1.1315  0.9063
38945SOL    HW221774   2.741   1.772   6.545 -0.0927  0.2805 -1.3954
38946SOL     OW21775   7.272  10.499   5.968 -0.4368  0.3248 -0.2117
38946SOL    HW121776   7.306  10.520   6.055  0.4454 -1.6710 -0.0019
38946SOL    HW221777   7.266  10.403   5.968 -1.8681  0.3689 -1.8399
38947SOL     OW21778   5.683   5.863   3.776 -0.0639 -0.1997 -0.0094
38947SOL    HW121779   5.753   5.926   3.758 -0.1510 -0.5034 -1.5734
38947SOL    HW221780   5.630   5.905   3.843 -0.4374  1.6870 -1.4026
38948SOL     OW21781   3.498  10.277   2.740 -0.2359 -0.0586  0.8223
38948SOL    HW121782   3.537  10.346   2.793  1.4032 -0.1438 -0.2071
38948SOL    HW221783   3.489  10.203   2.799 -0.4306  0.4940  1.4984
38949SOL     OW21784   5.176   9.680   2.398  0.0545 -0.1658  0.3092
38949SOL    HW121785   5.152   9.649   2.485  1.0948 -1.2304  0.2326
38949SOL    HW221786   5.143   9.613   2.338  0.2002  0.0805 -0.0536
38950SOL     OW21787   1.424   1.163   1.907  0.2736 -0.0056 -0.1286
38950SOL    HW121788   1.364   1.214   1.853 -1.5804  0.6077  2.3184
38950SOL    HW221789   1.369   1.095   1.947  1.6479 -0.7432  0.5848
38951SOL     OW21790   5.569   2.130   9.104  0.6688 -0.0525  0.1938
38951SOL    HW121791   5.495   2.143   9.044 -0.0753  2.0074  1.4559
38951SOL    HW221792   5.644   2.115   9.047 -0.5988 -1.8593 -1.1488
38952SOL     OW21793   3.287   0.763   8.428 -0.7293 -0.3198  0.0995
38952SOL    HW121794   3.338   0.683   8.440 -0.2075 -0.1782 -1.0031
38952SOL    HW221795   3.200   0.743   8.462  0.3816 -0.1280  3.4149
38953SOL     OW21796   5.692   2.937   6.917  0.1170 -0.1200 -0.0013
38953SOL    HW121797   5.702   2.843   6.928  1.1299  0.0081  0.2846
38953SOL    HW221798   5.705   2.973   7.005 -0.4766  0.2715 -0.0706
38954SOL     OW21799   1.897  10.170   7.722  0.4680 -0.0962 -0.3523
38954SOL    HW121800   1.847  10.137   7.648  0.0557 -1.8921  0.6626
38954SOL    HW221801   1.847  10.246   7.753 -0.4392 -0.5385 -0.6997
38955SOL     OW21802   8.258   4.919   2.860 -0.3012  0.7909 -0.0896
38955SOL    HW121803   8.338   4.928   2.808 -0.1342  0.0664  0.0282
38955SOL    HW221804   8.187   4.935   2.798 -0.0848  0.6859 -0.3664
38956SOL     OW21805   8.272   8.539   3.650  0.0270 -0.3391 -0.0205
38956SOL    HW121806   8.201   8.531   3.587 -0.2531 -2.2605  0.4628
38956SOL    HW221807   8.337   8.595   3.607 -0.3594 -1.2069 -1.8110
38957SOL     OW21808   6.741   1.911   0.348  0.6281 -0.6039  0.2922
38957SOL    HW121809   6.707   1.824   0.369 -0.6986 -0.0612  0.4592
38957SOL    HW221810   6.772   1.904   0.258  0.1239 -1.1409  0.1533
38958SOL     OW21811   1.672  10.172  11.008  0.0289  0.3820 -0.4812
38958SOL    HW121812   1.732  10.244  11.026  0.4250  0.7543 -2.9507
38958SOL    HW221813   1.722  10.093  11.028  0.2645  0.7431  0.3866
38959SOL     OW21814   5.186   0.908   6.142  0.2878  1.1597 -0.5602
38959SOL    HW121815   5.161   0.850   6.070 -1.2599  1.5659 -0.3865
38959SOL    HW221816   5.281   0.898   6.149  0.1387 -0.9319 -0.8876
38960SOL     OW21817   5.265   5.679  10.161  0.0126  0.0524  0.3634
38960SOL    HW121818   5.330   5.613  10.185  0.1946  0.0053 -0.2537
38960SOL    HW221819   5.316   5.757  10.140 -0.2597  0.9796  2.7844
38961SOL     OW21820   8.400   6.511   2.234 -0.3184  0.1418 -0.1452
38961SOL    HW121821   8.343   6.587   2.225  2.4257  2.1478 -2.2474
38961SOL    HW221822   8.414   6.480   2.145 -0.0717 -1.8790  0.5260
38962SOL     OW21823   0.386   3.602   0.283 -0.3244 -0.0952  0.2423
38962SOL    HW121824   0.376   3.648   0.199 -0.1291 -0.5929 -0.0569
38962SOL    HW221825   0.470   3.557   0.275 -0.5769 -0.6083  0.4865
38963SOL     OW21826   1.708   3.316   1.892 -0.7964  0.2048 -0.0147
38963SOL    HW121827   1.776   3.384   1.884 -0.5189  0.0824  1.1330
38963SOL    HW221828   1.628   3.365   1.911 -1.0477  0.3506 -1.3814
38964SOL     OW21829   6.176   7.228   3.775  0.3735 -0.1400  0.7831
38964SOL    HW121830   6.111   7.217   3.844 -0.3586 -1.4111 -0.0802
38964SOL    HW221831   6.127   7.259   3.699  0.6321 -1.6318 -0.0394
38965SOL     OW21832   5.738  11.452   6.040  0.4859  0.5243 -0.1731
38965SOL    HW121833   5.711  11.476   6.129  0.7314  1.4156 -0.3271
38965SOL    HW221834   5.706  11.363   6.028 -2.6138  1.5647 -0.4383
38966SOL     OW21835   4.077   2.103   8.301  0.7934 -0.1805 -0.2384
38966SOL    HW121836   4.025   2.075   8.377  0.7250 -0.0353 -0.2317
38966SOL    HW221837   4.017   2.157   8.250  0.7896 -0.4100 -0.4795
38967SOL     OW21838  11.483   8.524   3.737 -0.0970 -0.5247  0.1552
38967SOL    HW121839  11.578   8.511   3.740  0.0316 -0.0520 -1.1433
38967SOL    HW221840  11.469   8.582   3.662 -1.4591 -1.0163 -0.0009
38968SOL     OW21841   3.881  11.176   6.538  0.8862  0.2106 -0.5366
38968SOL    HW121842   3.864  11.085   6.563  1.7761  0.6079  1.7613
38968SOL    HW221843   3.865  11.226   6.618  0.8262  2.0309 -1.6416
38969SOL     OW21844   2.352  10.117   8.994 -0.8228  0.2414 -0.2374
38969SOL    HW121845   2.398  10.201   9.006  1.0668 -0.6074 -1.1187
38969SOL    HW221846   2.267  10.131   9.035  0.0787  2.0186  1.2157
38970SOL     OW21847   6.373   7.511   7.743  0.4290 -0.2064  0.1442
38970SOL    HW121848   6.402   7.434   7.694  2.1273  0.7253 -0.3697
38970SOL    HW221849   6.404   7.495   7.832 -2.8873 -2.0250  1.1464
38971SOL     OW21850   3.751   6.164   2.702 -0.4520 -0.4120 -0.1596
38971SOL    HW121851   3.659   6.137   2.701 -1.6191  3.0009 -0.5236
38971SOL    HW221852   3.777   6.163   2.609 -1.0636  1.1588 -0.3827
38972SOL     OW21853   6.024   9.587   1.853 -0.7448 -0.1330 -0.3398
38972SOL    HW121854   6.023   9.554   1.943 -1.9451  2.2264  0.5914
38972SOL    HW221855   6.081   9.663   1.856 -1.4859  0.4830 -1.3774
38973SOL     OW21856   3.516   5.181  11.317 -0.0221 -0.6692  0.6945
38973SOL    HW121857   3.557   5.117  11.259 -0.8246  0.5230 -1.2921
38973SOL    HW221858   3.578   5.189  11.390  1.4373 -1.6565 -0.3646
38974SOL     OW21859   9.607   8.032   1.924 -1.1598  0.1439  0.1561
38974SOL    HW121860   9.615   8.053   1.831 -1.5909  0.0406  0.0961
38974SOL    HW221861   9.662   8.097   1.967 -0.7843  0.0604 -0.1841
38975SOL     OW21862   3.145  11.634   4.702 -0.6699 -0.6296 -0.0322
38975SOL    HW121863   3.184  11.555   4.739 -0.5091 -0.8195 -0.6015
38975SOL    HW221864   3.080  11.602   4.640 -1.0059 -0.3125  0.1558
38976SOL     OW21865   3.650  10.107   1.915 -0.0739  0.0742  0.6265
38976SOL    HW121866   3.684  10.099   2.004 -0.9451  0.4026  0.9984
38976SOL    HW221867   3.702  10.178   1.877  0.5766 -0.3377  0.7334
38977SOL     OW21868   4.360   8.986   1.873 -0.4464 -0.6895 -0.6564
38977SOL    HW121869   4.435   9.034   1.906 -0.6566 -0.1478 -0.9491
38977SOL    HW221870   4.294   9.053   1.854 -1.2482 -1.2027  0.2031
38978SOL     OW21871   6.742   5.568   7.477  0.9161  0.5990  0.1677
38978SOL    HW121872   6.706   5.654   7.455 -0.6413  0.2674  1.2052
38978SOL    HW221873   6.673   5.526   7.528  2.0669 -0.8639  0.5945
38979SOL     OW21874   3.869   1.395   7.361 -0.3056  0.6174  0.0660
38979SOL    HW121875   3.812   1.408   7.285 -1.1651  0.6392  0.6960
38979SOL    HW221876   3.841   1.463   7.423  0.4023  0.6152  0.4008
38980SOL     OW21877   1.263   3.204   9.266 -0.1246  0.1433 -0.4522
38980SOL    HW121878   1.259   3.116   9.303  0.5197  0.4171  0.2989
38980SOL    HW221879   1.351   3.234   9.285  0.1774  0.3732 -2.0792
38981SOL     OW21880   8.299   3.213   5.727  0.1870 -0.4521  0.6940
38981SOL    HW121881   8.332   3.212   5.637 -1.1134  2.4144  0.0631
38981SOL    HW221882   8.375   3.239   5.780  0.8337 -1.6628  0.3891
38982SOL     OW21883   9.622   9.212   0.903  0.4639 -0.5799 -0.0333
38982SOL    HW121884   9.649   9.302   0.885  1.7139 -0.6587  1.3064
38982SOL    HW221885   9.632   9.167   0.819 -0.5334  0.5897 -0.8061
38983SOL     OW21886   8.677   2.724   2.067  0.0975  0.6295  0.4914
38983SOL    HW121887   8.689   2.815   2.039 -0.8245  1.0968  1.5540
38983SOL    HW221888   8.641   2.730   2.156  1.3212 -0.7856  1.1382
38984SOL     OW21889   7.357   9.142   4.643  0.0512  0.4758  0.5677
38984SOL    HW121890   7.418   9.108   4.709  1.6942  0.2559 -0.9620
38984SOL    HW221891   7.282   9.083   4.647  0.6983 -0.3223  1.3476
38985SOL     OW21892   2.264   7.242   4.163  0.2263 -0.2218 -0.3122
38985SOL    HW121893   2.202   7.307   4.195  1.0284  0.6239 -0.4388
38985SOL    HW221894   2.276   7.181   4.237 -0.5589 -0.2628 -0.2109
38986SOL     OW21895   1.574   4.709   3.366 -0.0195 -0.1055  0.5971
38986SOL    HW121896   1.616   4.795   3.370 -0.5838  0.1919  0.1879
38986SOL    HW221897   1.623   4.656   3.429  1.6234 -0.0689 -0.5808
38987SOL     OW21898   8.605   9.722   9.562  0.1337 -0.5510  0.0102
38987SOL    HW121899   8.678   9.660   9.563  1.2804  0.7693  0.9682
38987SOL    HW221900   8.633   9.791   9.502 -0.6176 -0.3549 -0.1195
38988SOL     OW21901   5.577   8.911  10.023  0.0732 -0.1103 -0.5363
38988SOL    HW121902   5.543   8.983   9.969  0.5352  0.5467  0.0320
38988SOL    HW221903   5.658   8.946  10.061 -0.0390 -0.7022  0.2680
38989SOL     OW21904   0.521   1.209   2.211  0.3438 -0.1500  0.0199
38989SOL    HW121905   0.458   1.252   2.153  0.4567  0.8933  0.6639
38989SOL    HW221906   0.513   1.255   2.294  2.7341  0.7742 -0.1903
38990SOL     OW21907   4.112   8.818   9.065  0.4444 -0.1156  0.3611
38990SOL    HW121908   4.165   8.815   9.144 -2.1635  1.0684  2.2893
38990SOL    HW221909   4.063   8.735   9.067  1.5093 -0.8139 -0.9409
38991SOL     OW21910   9.915  10.796   7.450 -0.4595 -0.9274  0.5924
38991SOL    HW121911   9.894  10.709   7.484  1.0079 -1.4699  0.1803
38991SOL    HW221912  10.009  10.805   7.464 -0.3113 -0.0446 -0.8159
38992SOL     OW21913   6.104   8.090   9.517 -0.0539 -0.2269 -0.2443
38992SOL    HW121914   6.103   8.069   9.423 -0.5526 -0.5148 -0.1795
38992SOL    HW221915   6.196   8.083   9.542  0.3129  1.3429 -1.0277
38993SOL     OW21916   6.405   2.829   0.322  0.2447  0.1774  0.0571
38993SOL    HW121917   6.324   2.880   0.327 -0.7227 -1.3470  0.3827
38993SOL    HW221918   6.425   2.805   0.412  0.9858  0.4062 -0.0368
38994SOL     OW21919   7.219   7.908  10.780 -0.1062  0.3617 -0.3385
38994SOL    HW121920   7.223   7.829  10.727 -3.5963 -0.3066  0.1610
38994SOL    HW221921   7.171   7.972  10.727 -0.2863  0.9712  0.5178
38995SOL     OW21922   0.702  10.353   7.596  0.0449  0.0197  0.0925
38995SOL    HW121923   0.757  10.409   7.652  0.6205 -0.7792  0.3349
38995SOL    HW221924   0.625  10.334   7.650 -0.4403  1.0524 -0.2087
38996SOL     OW21925   7.079  10.913  10.495  0.7075  0.8549 -0.9245
38996SOL    HW121926   7.039  10.991  10.457  0.3455  1.7016  1.0922
38996SOL    HW221927   7.015  10.844  10.480 -1.3272  2.0381  1.6224
38997SOL     OW21928   6.141   1.622   9.182  0.2320 -0.0679  0.7009
38997SOL    HW121929   6.055   1.642   9.143  0.0723  0.2619  1.2093
38997SOL    HW221930   6.149   1.527   9.174 -0.0528 -0.0663  0.3781
38998SOL     OW21931   9.605  10.579   7.012 -0.6100 -0.0309 -0.3792
38998SOL    HW121932   9.513  10.588   6.987 -0.5214  1.7753 -0.1956
38998SOL    HW221933   9.635  10.669   7.024  0.7515 -0.6431  1.1565
38999SOL     OW21934   0.922   7.546   8.762  0.5813 -0.5117 -0.6471
38999SOL    HW121935   0.974   7.478   8.719  0.4954  0.1775 -1.8804
38999SOL    HW221936   0.920   7.619   8.699  0.0526  0.3487  0.3339
39000SOL     OW21937   9.135   2.294   4.344  0.2327  0.3822  0.1570
39000SOL    HW121938   9.159   2.328   4.430 -0.5575 -1.6976  1.2805
39000SOL    HW221939   9.177   2.208   4.341 -0.5421  0.0320 -1.1505
39001SOL     OW21940   8.694   3.221   2.444 -0.4636  0.0723  0.1142
39001SOL    HW121941   8.608   3.200   2.409 -0.4542 -2.7881  1.5125
39001SOL    HW221942   8.685   3.210   2.538  1.5197 -0.8009  0.2534
39002SOL     OW21943   0.375   7.490   0.829  0.0485  0.0727  0.0034
39002SOL    HW121944   0.320   7.467   0.904  0.1660 -1.6281 -0.3829
39002SOL    HW221945   0.357   7.583   0.813  0.4261  0.6365  2.4521
39003SOL     OW21946   5.178  10.647  11.341  0.3545 -0.2771 -0.6498
39003SOL    HW121947   5.215  10.559  11.353 -0.3037 -0.3650  0.8592
39003SOL    HW221948   5.244  10.706  11.377  0.8844 -0.1049 -1.8398
39004SOL     OW21949   2.269   0.732   7.181 -0.2354 -0.0412  0.1054
39004SOL    HW121950   2.197   0.672   7.164 -0.9405  1.1063 -1.0913
39004SOL    HW221951   2.334   0.713   7.113 -0.4232  0.4951 -0.2244
39005SOL     OW21952   8.089  10.944   4.796  0.7512  0.2659 -0.2245
39005SOL    HW121953   8.032  10.875   4.830  0.4841  1.5080  2.0624
39005SOL    HW221954   8.146  10.968   4.870  1.6031  1.7180 -1.2739
39006SOL     OW21955  10.061  10.147   8.402 -0.2719 -0.0302 -0.1507
39006SOL    HW121956  10.082  10.186   8.488  1.1018  0.9430 -0.8857
39006SOL    HW221957  10.130  10.083   8.387 -0.3133  0.0437 -0.6807
39007SOL     OW21958  10.764  10.335   0.407 -0.1586 -0.0229 -0.0330
39007SOL    HW121959  10.788  10.244   0.391  0.4656  0.4729 -2.1827
39007SOL    HW221960  10.715  10.332   0.490  0.4607 -2.1822  0.3248
39008SOL     OW21961   1.970   4.637   0.511  0.1953 -0.3984 -0.9775
39008SOL    HW121962   1.899   4.632   0.447 -0.2424  1.4357 -0.6759
39008SOL    HW221963   2.034   4.696   0.472 -0.7856  2.0165  0.8595
39009SOL     OW21964   1.060   8.294   1.526  0.6965  0.1028 -0.4986
39009SOL    HW121965   0.995   8.355   1.560 -0.0179 -1.2794  0.7347
39009SOL    HW221966   1.107   8.343   1.459 -2.6199  0.6998 -2.5931
39010SOL     OW21967   6.149   0.202   3.198  0.1046 -0.1377 -0.0780
39010SOL    HW121968   6.117   0.224   3.111  0.4878 -0.5796 -0.3319
39010SOL    HW221969   6.241   0.178   3.185  0.1343 -0.3127  0.4281
39011SOL     OW21970   1.404  10.071   5.231  0.2608 -0.5017 -0.4730
39011SOL    HW121971   1.363  10.009   5.291  2.3269 -3.7555 -2.1018
39011SOL    HW221972   1.334  10.098   5.172 -0.7139 -1.3264  0.2886
39012SOL     OW21973  10.211   1.055   3.449 -0.6521  0.5421  0.1369
39012SOL    HW121974  10.268   1.132   3.445 -0.6247  0.7012  2.4687
39012SOL    HW221975  10.174   1.049   3.361  2.4401  0.7752 -1.3064
39013SOL     OW21976  11.063  11.384   8.349  0.3431  0.1216 -0.3814
39013SOL    HW121977  11.070  11.333   8.429 -2.2140  1.0668  0.5491
39013SOL    HW221978  11.139  11.443   8.351  1.2453 -1.0323  0.4325
39014SOL     OW21979   9.294   0.849   4.586 -0.3116 -0.3083  0.0218
39014SOL    HW121980   9.293   0.761   4.623 -0.5952 -0.6541 -0.7697
39014SOL    HW221981   9.240   0.901   4.646 -0.2165 -0.6933  0.4460
39015SOL     OW21982   4.563   8.642  11.064 -0.2172 -0.0367 -0.4631
39015SOL    HW121983   4.639   8.595  11.032  0.1042  0.5627 -0.6055
39015SOL    HW221984   4.492   8.579  11.061  0.7808 -1.4272  2.0970
39016SOL     OW21985   0.021   0.288   9.137  0.4196  0.0057 -0.0551
39016SOL    HW121986   0.046   0.304   9.046  0.8520 -0.3515 -0.0042
39016SOL    HW221987  -0.069   0.320   9.143  0.6408  0.7256 -0.4127
39017SOL     OW21988   9.779   1.197   0.731 -0.8304  0.8639 -0.0440
39017SOL    HW121989   9.874   1.195   0.725 -0.9245 -0.3436 -1.9138
39017SOL    HW221990   9.756   1.287   0.705 -0.2162  1.0943  0.1930
39018SOL     OW21991   8.195   1.781  11.411  0.5945 -0.5511  0.0690
39018SOL    HW121992   8.165   1.703  11.457 -3.1724  1.6879  1.9165
39018SOL    HW221993   8.210   1.846  11.480 -0.3077  1.4927 -1.5277
39019SOL     OW21994   2.007   8.902   6.085  0.1576  0.1561 -0.4468
39019SOL    HW121995   1.927   8.955   6.087  0.8316  1.2392  1.2473
39019SOL    HW221996   2.069   8.952   6.139  2.0489 -0.5526 -1.8510
39020SOL     OW21997   2.633   4.982   0.586  0.1297  0.2777 -0.3136
39020SOL    HW121998   2.706   5.044   0.589  0.6606 -0.3850  0.9490
39020SOL    HW221999   2.557   5.033   0.614  0.5006  0.4490  0.4005
39021SOL     OW22000   7.356   6.242   8.801  0.1360 -0.1886  0.0261
39021SOL    HW122001   7.314   6.215   8.883  1.0768 -1.5685  0.0894
39021SOL    HW222002   7.331   6.333   8.790 -1.5780 -0.5202  0.8628
39022SOL     OW22003   9.194   4.616   9.700 -0.0659  0.7935 -0.0576
39022SOL    HW122004   9.136   4.687   9.674 -2.1953 -0.6997  0.3182
39022SOL    HW222005   9.183   4.550   9.630 -0.9873 -0.6226  1.3453
39023SOL     OW22006   3.596   5.507   7.302  0.5185 -0.0931  0.2973
39023SOL    HW122007   3.515   5.467   7.270 -0.5294  1.4993  0.8267
39023SOL    HW222008   3.652   5.433   7.324 -0.1576 -1.2503 -1.5737
39024SOL     OW22009   6.567   4.191  10.746  0.2624  0.0591  0.1106
39024SOL    HW122010   6.631   4.135  10.702  0.4094  0.2329  0.1063
39024SOL    HW222011   6.539   4.253  10.679 -1.6746 -1.4763 -0.6021
39025SOL     OW22012   9.386   7.918   3.744  0.0381  0.6017 -0.6127
39025SOL    HW122013   9.361   7.930   3.836  0.7128 -0.2421 -0.3104
39025SOL    HW222014   9.306   7.939   3.695 -0.8256 -0.5131  0.2559
39026SOL     OW22015   4.876   8.405   0.112  0.2374  0.5682  0.6601
39026SOL    HW122016   4.903   8.340   0.047  1.9883  0.3052  1.5636
39026SOL    HW222017   4.831   8.472   0.062  0.3222 -0.2924 -0.6152
39027SOL     OW22018   7.394   5.248   1.100 -0.3365  0.6130  0.2394
39027SOL    HW122019   7.449   5.309   1.050  1.8796 -0.0383  1.7423
39027SOL    HW222020   7.420   5.161   1.068 -1.5450  0.3220 -0.0035
39028SOL     OW22021   7.104   4.786   8.808  0.1523  0.1017 -0.5649
39028SOL    HW122022   7.114   4.876   8.840  1.3577  0.1975 -1.1592
39028SOL    HW222023   7.117   4.792   8.714  1.1065 -0.8167 -0.5045
39029SOL     OW22024   0.423   6.233   5.633  0.3191  0.0490 -0.5351
39029SOL    HW122025   0.478   6.252   5.557 -0.6852  0.2591 -1.2404
39029SOL    HW222026   0.355   6.175   5.599  1.2674 -1.9419  0.7967
39030SOL     OW22027   5.015   1.101   6.113 -0.5881  0.3753 -0.3279
39030SOL    HW122028   5.092   1.046   6.127 -1.6880 -1.3091 -0.6979
39030SOL    HW222029   4.953   1.074   6.182 -0.4955  2.4722  0.6696
39031SOL     OW22030   5.422   0.344  11.380 -0.0829  0.5141 -0.0064
39031SOL    HW122031   5.389   0.420  11.332 -0.7528  0.6626  0.6741
39031SOL    HW222032   5.388   0.355  11.469 -0.2053 -0.6014  0.0976
39032SOL     OW22033   1.226   0.746   0.229  0.1965 -0.2204  0.4492
39032SOL    HW122034   1.306   0.794   0.250  1.5123 -2.3257  0.4417
39032SOL    HW222035   1.243   0.706   0.144 -2.5296  2.6541 -1.7089
39033SOL     OW22036   3.481   0.990   6.388  0.2343 -0.2575  0.7350
39033SOL    HW122037   3.464   0.898   6.366  0.8482 -0.4798  1.1508
39033SOL    HW222038   3.399   1.035   6.368  0.0996 -0.8034  0.0133
39034SOL     OW22039   8.965   8.106   6.442 -0.0293 -0.1057  0.6671
39034SOL    HW122040   9.011   8.176   6.395  1.7128 -0.1442  2.2054
39034SOL    HW222041   8.897   8.152   6.492  1.4943  0.6380  2.1500
39035SOL     OW22042   1.568   5.885   8.760  0.0956  0.4446 -0.2810
39035SOL    HW122043   1.537   5.916   8.675  1.4944 -1.5043 -1.5898
39035SOL    HW222044   1.536   5.796   8.766 -1.5354  1.1142  2.1392
39036SOL     OW22045  10.006   7.184   7.765 -0.3260 -0.1921 -0.3148
39036SOL    HW122046   9.965   7.121   7.706  2.0952 -1.7769 -0.4385
39036SOL    HW222047  10.024   7.261   7.710 -0.3721 -0.6714 -1.0110
39037SOL     OW22048   7.118   5.044   6.392  0.0869  0.8080 -0.5494
39037SOL    HW122049   7.171   5.120   6.417 -0.3926  0.3445  2.2393
39037SOL    HW222050   7.029   5.079   6.383  0.0925  0.8051 -0.6156
39038SOL     OW22051   6.330   3.829   8.650  0.3730 -0.5592 -0.2576
39038SOL    HW122052   6.345   3.864   8.738  1.1167 -1.8285  0.1476
39038SOL    HW222053   6.332   3.734   8.661 -0.1822 -0.7466 -1.5469
39039SOL     OW22054  11.023  10.081   4.747 -0.1231 -0.0641 -0.4585
39039SOL    HW122055  10.995  10.091   4.656  0.6794  2.3900 -0.5129
39039SOL    HW222056  11.091  10.014   4.744 -0.6808 -0.6074 -1.5107
39040SOL     OW22057   5.565   4.192   5.453  0.3664 -0.3960 -0.1608
39040SOL    HW122058   5.592   4.169   5.541  0.8211 -0.6852 -0.3720
39040SOL    HW222059   5.487   4.247   5.465  0.8239  0.1342  0.4379
39041SOL     OW22060   8.606   7.379   1.275 -0.2578  0.5489 -0.1232
39041SOL    HW122061   8.618   7.466   1.314  0.7300  0.0425  0.7460
39041SOL    HW222062   8.513   7.360   1.288 -0.3293  1.1708  0.3219
39042SOL     OW22063  10.255   4.940   7.377 -0.0032 -0.2469  0.1025
39042SOL    HW122064  10.348   4.943   7.396  0.0527  2.4991 -0.2526
39042SOL    HW222065  10.215   5.002   7.437 -0.9302  2.0969 -2.6926
39043SOL     OW22066   5.919   3.882   9.226  0.2714 -0.0372  0.3279
39043SOL    HW122067   5.914   3.871   9.321  0.4270  0.0832  0.3495
39043SOL    HW222068   5.905   3.976   9.212 -1.1903 -0.2623  0.1318
39044SOL     OW22069   7.827   0.036   0.155 -0.5215  0.2712 -0.2445
39044SOL    HW122070   7.825  -0.023   0.080 -0.5587  0.2367 -0.2162
39044SOL    HW222071   7.912   0.080   0.148 -1.3455  1.7567 -1.4375
39045SOL     OW22072   2.768   8.232   2.074 -0.5197  0.2920 -0.0595
39045SOL    HW122073   2.710   8.159   2.094  0.4757 -0.2997  0.7611
39045SOL    HW222074   2.792   8.220   1.982  0.5003 -1.0726  0.3539
39046SOL     OW22075   3.555   6.090   7.749  0.3211 -0.0565  0.4520
39046SOL    HW122076   3.601   6.167   7.714  0.5489 -0.9758 -1.4125
39046SOL    HW222077   3.510   6.122   7.827  0.0553  2.0793 -0.5148
39047SOL     OW22078   8.436   3.366   9.323 -0.2884  0.0195  0.3320
39047SOL    HW122079   8.358   3.368   9.379 -0.2568 -0.5808  0.4017
39047SOL    HW222080   8.442   3.276   9.294 -1.3993  0.6939 -2.2239
39048SOL     OW22081   7.618   3.880   0.873 -0.5405 -0.4487 -0.4907
39048SOL    HW122082   7.557   3.814   0.908 -0.9980  0.6555  0.8983
39048SOL    HW222083   7.698   3.867   0.924  0.3339 -1.6612 -2.0721
39049SOL     OW22084   5.721   7.044  10.730 -0.2022 -0.4782  0.0542
39049SOL    HW122085   5.760   7.103  10.666  1.8005 -1.1912  0.5419
39049SOL    HW222086   5.652   6.998  10.682  1.2630 -1.0165 -1.6223
39050SOL     OW22087   9.997   2.320   6.584  0.1673  0.0047  0.3473
39050SOL    HW122088  10.062   2.253   6.604  0.2469  0.0003  0.0790
39050SOL    HW222089  10.039   2.403   6.606  0.7043  0.0884 -0.9378
39051SOL     OW22090   5.402   9.000   3.588  0.3275 -0.0992  0.1473
39051SOL    HW122091   5.340   9.056   3.635  1.5448  0.0828  1.5964
39051SOL    HW222092   5.415   8.924   3.646  0.8542 -0.5170 -0.5047
39052SOL     OW22093   7.536   7.982   4.790 -0.1366 -0.7604 -0.5977
39052SOL    HW122094   7.607   8.045   4.776 -0.3616 -0.1089  1.0510
39052SOL    HW222095   7.462   8.018   4.741 -0.2335  0.2079  0.2442
39053SOL     OW22096  11.600  10.300   0.806 -0.6095 -0.3661  0.1092
39053SOL    HW122097  11.688  10.288   0.769 -0.6234 -2.3449  0.5928
39053SOL    HW222098  11.574  10.212   0.834 -3.1923 -0.0169 -0.9413
39054SOL     OW22099   7.558   5.011  11.433  0.4733 -0.2134 -0.1659
39054SOL    HW122100   7.618   5.049  11.496  0.5650  3.2161 -2.0725
39054SOL    HW222101   7.471   5.024  11.472  0.5715  1.1847 -0.3883
39055SOL     OW22102  11.294   6.869   1.131 -0.4118  0.9915  0.1902
39055SOL    HW122103  11.387   6.889   1.120 -0.3420  0.1355 -0.8984
39055SOL    HW222104  11.267   6.836   1.046 -1.1602 -0.9489  1.1376
39056SOL     OW22105   1.583   3.925   5.750  0.4732 -0.0268  0.3915
39056SOL    HW122106   1.626   3.877   5.679  0.8294  0.1622  0.4770
39056SOL    HW222107   1.536   3.996   5.705  1.9057  0.9914  0.4485
39057SOL     OW22108   2.926   2.059   8.931  0.1378  0.0592 -0.0489
39057SOL    HW122109   2.907   2.016   9.014 -1.3946  1.8239  0.5858
39057SOL    HW222110   2.840   2.072   8.891  0.8145 -0.3235 -1.7127
39058SOL     OW22111   0.868   6.969   7.651 -0.2122  0.4119  0.0794
39058SOL    HW122112   0.949   6.920   7.636  0.0191  0.9677 -0.5420
39058SOL    HW222113   0.832   6.932   7.731  0.6949  0.2006  0.3993
39059SOL     OW22114  10.398   5.279   7.767  0.2654 -0.8961  0.4643
39059SOL    HW122115  10.427   5.263   7.677  0.6522  0.0381  0.4167
39059SOL    HW222116  10.469   5.329   7.806 -0.3974 -0.3225  0.9521
39060SOL     OW22117   5.898   1.528   5.131 -0.2349 -0.2237 -0.0001
39060SOL    HW122118   5.974   1.539   5.188 -0.3768  1.8006 -0.1143
39060SOL    HW222119   5.824   1.525   5.192 -0.3598  1.6434 -0.0006
39061SOL     OW22120   5.346   1.507   0.797  0.1467 -0.1028 -0.1792
39061SOL    HW122121   5.402   1.437   0.833 -0.6269 -0.1196  1.0624
39061SOL    HW222122   5.307   1.547   0.875 -2.3139 -0.7062 -1.0235
39062SOL     OW22123   8.737   5.439   8.001 -0.5224 -0.2918 -0.0342
39062SOL    HW122124   8.647   5.421   7.973 -0.3998 -1.2411  0.1406
39062SOL    HW222125   8.773   5.353   8.021  0.3509  0.1053  0.1384
39063SOL     OW22126   5.463   9.883   3.127  0.4005  0.7989 -0.3206
39063SOL    HW122127   5.445   9.974   3.105 -0.4646  1.3117  2.1755
39063SOL    HW222128   5.403   9.832   3.073 -0.9032  1.8903  0.0579
39064SOL     OW22129   1.904  11.276   3.894  0.6614 -0.2089 -0.4028
39064SOL    HW122130   1.896  11.221   3.972 -0.5570 -0.3673 -0.6276
39064SOL    HW222131   1.970  11.341   3.918 -1.4045  1.2854  1.7096
39065SOL     OW22132   4.162   8.197  10.162 -0.4609 -0.3067  0.0936
39065SOL    HW122133   4.228   8.209  10.231 -0.5515  2.0271 -0.1510
39065SOL    HW222134   4.214   8.181  10.083 -0.1948  0.4388  0.1033
39066SOL     OW22135  11.393   7.050   8.495 -0.0313  0.2742  0.6963
39066SOL    HW122136  11.399   7.030   8.402 -0.4870 -1.0963  0.9481
39066SOL    HW222137  11.440   7.133   8.505  1.1869 -0.2422 -0.5230
39067SOL     OW22138  10.104   4.660  10.039  0.6567 -0.5734  0.0631
39067SOL    HW122139  10.036   4.727  10.052  0.5913 -0.7936  0.9201
39067SOL    HW222140  10.145   4.684   9.956  1.2582  1.0833  0.7888
39068SOL     OW22141  10.034   4.559   0.427 -0.2147  0.4033 -0.6006
39068SOL    HW122142   9.944   4.563   0.394 -0.0040  1.7216 -1.0726
39068SOL    HW222143  10.080   4.628   0.380  1.1690 -0.5258 -0.6719
39069SOL     OW22144   3.615  10.601   7.161  0.0514 -0.3629  0.6038
39069SOL    HW122145   3.612  10.667   7.230 -1.5459 -1.2310  1.4082
39069SOL    HW222146   3.697  10.553   7.178 -1.0611 -1.6095  2.9816
39070SOL     OW22147   7.654   1.402   4.516  0.2726  0.2002  0.1926
39070SOL    HW122148   7.644   1.307   4.523 -0.2106  0.2014 -0.3924
39070SOL    HW222149   7.730   1.414   4.459  0.0038  0.1518 -0.1856
39071SOL     OW22150  10.703   0.867  11.325  0.1583  0.4197 -0.2951
39071SOL    HW122151  10.779   0.915  11.293  0.8062 -0.9834 -0.9540
39071SOL    HW222152  10.682   0.806  11.255 -0.5569 -0.3507  0.5657
39072SOL     OW22153  10.296   8.949   8.882  0.0525 -0.2135 -0.0082
39072SOL    HW122154  10.228   8.884   8.899  3.2232 -3.4302  1.6815
39072SOL    HW222155  10.283   8.974   8.790 -2.1632 -2.1845 -0.3131
39073SOL     OW22156   3.519   7.691   8.961 -0.0972  0.0438 -0.3251
39073SOL    HW122157   3.424   7.703   8.964 -0.1336  0.6715 -2.2876
39073SOL    HW222158   3.533   7.603   8.996 -1.5209 -0.4231 -0.8352
39074SOL     OW22159  10.010   2.849   2.139  0.3258 -0.2637  0.3656
39074SOL    HW122160   9.946   2.841   2.068 -1.3975 -2.4963  2.0159
39074SOL    HW222161  10.009   2.942   2.161 -1.1264  0.0340 -0.7447
39075SOL     OW22162   1.535   1.468   3.406 -0.3046  0.0561 -0.3840
39075SOL    HW122163   1.628   1.449   3.395 -0.2334 -0.7439  1.3118
39075SOL    HW222164   1.492   1.384   3.392 -0.5374 -0.1109  1.2384
39076SOL     OW22165   8.855  11.242   7.378 -0.0827  0.0015 -0.3328
39076SOL    HW122166   8.789  11.180   7.346 -0.2369  0.4574 -0.9044
39076SOL    HW222167   8.936  11.217   7.333 -0.2825  0.5942 -1.0404
39077SOL     OW22168   2.979   9.127  11.519  0.2038 -0.5748  0.5021
39077SOL    HW122169   2.981   9.090  11.607  0.2989 -0.0765  0.7134
39077SOL    HW222170   2.966   9.052  11.461 -0.3000 -0.8509  0.9720
39078SOL     OW22171   4.920   9.870   9.550  0.1074  0.9600  0.6161
39078SOL    HW122172   4.906   9.810   9.477 -0.3067  2.0498 -0.2124
39078SOL    HW222173   5.011   9.899   9.541  0.0107  1.2112  0.4414
39079SOL     OW22174   1.975   0.625   0.963  0.5282  0.4811  0.2616
39079SOL    HW122175   1.893   0.660   0.999  0.1276 -0.4203  0.2494
39079SOL    HW222176   1.993   0.547   1.015  0.6250 -0.1201 -0.6474
39080SOL     OW22177   8.993   0.716   3.406 -0.4648  0.6270 -0.0593
39080SOL    HW122178   9.014   0.627   3.377  2.7784  1.3554 -0.3270
39080SOL    HW222179   8.945   0.755   3.333  0.5582 -0.0714 -1.1425
39081SOL     OW22180   2.395  10.877   8.928  0.0749  0.0558  0.5029
39081SOL    HW122181   2.436  10.939   8.868 -2.7405 -0.0368 -1.7032
39081SOL    HW222182   2.413  10.791   8.890 -0.6180 -0.0924  0.4985
39082SOL     OW22183   9.761  10.528   1.411  0.2686  0.3801 -0.3838
39082SOL    HW122184   9.731  10.438   1.419  0.4043  0.4155  0.8108
39082SOL    HW222185   9.854  10.521   1.390  0.5647  0.1992  0.8685
39083SOL     OW22186   4.815  11.653   1.919 -0.0187 -0.0281 -0.0745
39083SOL    HW122187   4.722  11.678   1.917 -0.2426 -0.7647  0.4521
39083SOL    HW222188   4.839  11.659   2.012 -0.0003 -1.3950  0.0353
39084SOL     OW22189   3.788   1.182   5.886  0.2941 -0.3360  0.1439
39084SOL    HW122190   3.820   1.199   5.974  2.4049  1.8802 -0.9354
39084SOL    HW222191   3.756   1.267   5.855 -4.4390 -1.8252  0.0951
39085SOL     OW22192  10.053   2.727   1.532  0.5549 -0.1969 -0.2557
39085SOL    HW122193   9.997   2.792   1.576 -0.7858 -0.8907 -0.8811
39085SOL    HW222194  10.017   2.643   1.559  3.0875 -0.8205  1.6316
39086SOL     OW22195   9.002   0.916   8.427  0.3055 -0.0199 -0.2573
39086SOL    HW122196   8.967   0.891   8.341 -0.1432  0.1343 -0.1235
39086SOL    HW222197   9.084   0.868   8.434  1.0158  0.9806 -1.3397
39087SOL     OW22198   5.178   5.523   8.271 -0.1804  0.9198  0.1466
39087SOL    HW122199   5.163   5.605   8.223  2.2539 -0.1669 -2.8232
39087SOL    HW222200   5.243   5.546   8.338  0.0812  1.5257 -0.3055
39088SOL     OW22201   3.681  10.666   6.794 -0.2956 -0.2306 -0.2757
39088SOL    HW122202   3.630  10.590   6.821 -0.3478 -0.3832 -0.8015
39088SOL    HW222203   3.756  10.667   6.853 -0.5686 -0.3839  0.0750
39089SOL     OW22204  10.129   9.596  10.170  0.7332  0.0071 -0.4712
39089SOL    HW122205  10.158   9.648  10.096 -1.2993  1.3176 -0.4153
39089SOL    HW222206  10.079   9.656  10.224 -0.5914 -1.6931  0.2926
39090SOL     OW22207   9.888   7.354  10.429 -0.3338  0.5893  0.6157
39090SOL    HW122208   9.898   7.411  10.506 -2.4399  0.7929  0.7909
39090SOL    HW222209   9.858   7.270  10.464 -1.2987  0.6756  0.0300
39091SOL     OW22210   4.671   7.967  10.402 -0.0134 -0.5652 -0.6220
39091SOL    HW122211   4.599   7.974  10.465 -0.0818 -0.6502 -0.6901
39091SOL    HW222212   4.746   7.941  10.454  0.0511 -0.1264 -0.4943
39092SOL     OW22213   2.581   9.589   8.955  0.8121 -0.2943 -0.0678
39092SOL    HW122214   2.570   9.630   8.869 -0.2231  1.1880  0.7250
39092SOL    HW222215   2.640   9.649   9.002 -0.7703  0.3760  1.1387
39093SOL     OW22216   2.385   9.055   4.603 -0.6620  0.0048 -0.2178
39093SOL    HW122217   2.314   9.047   4.666 -1.4877  0.9268 -0.9867
39093SOL    HW222218   2.399   9.150   4.594 -0.4444 -0.1138 -1.2760
39094SOL     OW22219   7.886   6.612   8.662  0.1539 -0.1812  0.1693
39094SOL    HW122220   7.913   6.523   8.642 -0.7798 -0.9916  2.2667
39094SOL    HW222221   7.807   6.626   8.610 -0.0050 -0.7809  0.2413
39095SOL     OW22222   7.856   8.422   4.381  0.1325  0.1929  0.0627
39095SOL    HW122223   7.950   8.413   4.363  0.1430 -0.1647  0.2929
39095SOL    HW222224   7.817   8.343   4.344  0.0978 -0.3346  1.1802
39096SOL     OW22225   4.636   8.808   4.034  0.0688  0.3920 -0.2583
39096SOL    HW122226   4.630   8.870   4.107 -0.5019  0.3787 -0.2900
39096SOL    HW222227   4.563   8.830   3.978 -1.4439 -1.6496  0.7786
39097SOL     OW22228   8.556   6.699   5.106 -0.2258  0.5533 -0.1530
39097SOL    HW122229   8.621   6.628   5.105  1.1664  1.7521  0.3266
39097SOL    HW222230   8.473   6.655   5.123  0.4581 -1.0467 -0.7028
39098SOL     OW22231   9.119   8.466   0.760 -0.0367  0.6883  0.0279
39098SOL    HW122232   9.052   8.398   0.758  0.1605  0.5035 -1.0285
39098SOL    HW222233   9.154   8.463   0.849 -0.1420 -0.4864  0.0512
39099SOL     OW22234   8.224   6.802   9.088  0.6395  0.4273 -0.0901
39099SOL    HW122235   8.254   6.774   9.175  0.6916 -0.0641 -0.2660
39099SOL    HW222236   8.143   6.753   9.074  0.6224  0.5188 -0.3150
39100SOL     OW22237   4.842   1.726   3.021 -0.2939  0.3448 -0.5018
39100SOL    HW122238   4.754   1.703   2.994  0.0099 -1.0083 -0.4173
39100SOL    HW222239   4.833   1.755   3.112 -0.6559  0.2591 -0.5109
39101SOL     OW22240   5.761   7.891   7.582 -0.8477 -0.3329 -0.1572
39101SOL    HW122241   5.687   7.952   7.580  0.3145  1.0939 -1.8995
39101SOL    HW222242   5.820   7.928   7.647 -1.3202 -1.1074  0.7396
39102SOL     OW22243   3.277   2.829   6.255  0.8552  0.0392 -0.4514
39102SOL    HW122244   3.267   2.797   6.166  0.8918 -0.8680 -0.1441
39102SOL    HW222245   3.325   2.759   6.300 -0.0747  0.0039  0.5322
39103SOL     OW22246   9.483   4.964   7.116 -0.0176  0.3984  0.5946
39103SOL    HW122247   9.482   4.960   7.211 -1.5721  2.7310  0.7606
39103SOL    HW222248   9.565   4.921   7.091 -0.6490 -2.3769  2.7835
39104SOL     OW22249   5.465   2.569  11.438 -0.3206 -0.2254  0.4239
39104SOL    HW122250   5.530   2.543  11.503 -0.1450  0.4413  0.5156
39104SOL    HW222251   5.408   2.492  11.429  0.5723 -0.8729  0.2170
39105SOL     OW22252   3.429   5.304   3.842  0.6155 -0.5676 -0.3481
39105SOL    HW122253   3.360   5.353   3.886  0.9571 -2.5938  2.7410
39105SOL    HW222254   3.384   5.262   3.769 -0.6899  0.5849 -0.2703
39106SOL     OW22255   3.491   3.384  10.695  0.1043  0.0414  0.1721
39106SOL    HW122256   3.455   3.387  10.606  3.3101  0.6483 -1.2141
39106SOL    HW222257   3.514   3.292  10.708 -1.6141 -0.3140  0.9930
39107SOL     OW22258   7.565   2.500   4.775  0.2858  0.1776 -0.2703
39107SOL    HW122259   7.478   2.481   4.740 -0.8742  0.5166  2.2220
39107SOL    HW222260   7.610   2.543   4.702 -1.3788 -0.5903 -1.8522
39108SOL     OW22261  10.565   7.946   2.909 -0.2249 -0.1652 -0.3402
39108SOL    HW122262  10.528   8.024   2.867 -0.3429  0.2815  0.5680
39108SOL    HW222263  10.493   7.884   2.913 -0.5564  0.2532  0.3188
39109SOL     OW22264   6.816   2.241   3.889  0.1168 -0.1961  0.2457
39109SOL    HW122265   6.904   2.279   3.890 -0.2454  0.8243 -1.3991
39109SOL    HW222266   6.806   2.207   3.800 -1.3759  0.2802  0.1997
39110SOL     OW22267   5.852   0.451   0.531 -0.0877 -0.5059 -1.0413
39110SOL    HW122268   5.825   0.461   0.439  0.9970  1.9661 -1.1900
39110SOL    HW222269   5.901   0.531   0.549 -0.0282 -1.0736  1.6367
39111SOL     OW22270   6.802   6.684   6.819  0.5865 -0.2503  0.0295
39111SOL    HW122271   6.786   6.678   6.913  1.6204 -3.3597  0.1142
39111SOL    HW222272   6.870   6.750   6.811  0.4838  0.0700  1.4543
39112SOL     OW22273   3.965   4.907   4.124  0.6455 -0.2278 -0.2685
39112SOL    HW122274   3.893   4.943   4.072 -0.2931 -0.9789  0.4729
39112SOL    HW222275   4.001   4.982   4.171  0.4378  0.1758 -0.7443
39113SOL     OW22276   1.511   3.886  11.115 -0.0001 -0.2794  0.4968
39113SOL    HW122277   1.606   3.886  11.128  0.2498 -2.3074 -0.8610
39113SOL    HW222278   1.480   3.810  11.163 -0.8835  0.0820  0.5241
39114SOL     OW22279   2.370   1.291   3.526 -0.2588  0.6447  0.3907
39114SOL    HW122280   2.350   1.338   3.445  0.6500  0.6372  0.1538
39114SOL    HW222281   2.451   1.332   3.558  1.5158 -1.7674 -0.6761
39115SOL     OW22282   0.123   1.522   1.376 -0.2962  0.2726 -0.9621
39115SOL    HW122283   0.149   1.475   1.455 -0.3155  0.3079 -0.9346
39115SOL    HW222284   0.152   1.466   1.304 -0.4419  0.1522 -0.9281
39116SOL     OW22285   6.880   4.044   0.392  0.2135  0.0277  0.3761
39116SOL    HW122286   6.805   3.988   0.368  1.3526 -0.4186 -2.5570
39116SOL    HW222287   6.875   4.118   0.332  1.3969  0.6772  1.0400
39117SOL     OW22288  10.356   7.190   7.895  0.1017 -0.3284 -0.1806
39117SOL    HW122289  10.382   7.099   7.880  1.0874 -0.2090  0.7005
39117SOL    HW222290  10.263   7.185   7.919 -1.0719 -0.7058 -4.0588
39118SOL     OW22291   5.339  11.296   6.250 -0.2837 -0.3411  0.2747
39118SOL    HW122292   5.253  11.325   6.280 -0.6562  1.4106 -2.1558
39118SOL    HW222293   5.396  11.309   6.325 -1.3543  2.5737  0.7342
39119SOL     OW22294   4.357  10.779   0.329  0.7877 -0.3688  0.0240
39119SOL    HW122295   4.409  10.834   0.388  0.4265 -0.4434  0.4155
39119SOL    HW222296   4.422  10.726   0.283  1.2873  1.4589 -1.5216
39120SOL     OW22297  11.365   1.812   0.449  0.1064  0.2751  0.6431
39120SOL    HW122298  11.408   1.769   0.523  0.8851  1.7490  1.0839
39120SOL    HW222299  11.395   1.903   0.453  0.5650  0.3020 -1.7655
39121SOL     OW22300   9.072   8.792   7.970 -0.0068 -0.1690 -0.2820
39121SOL    HW122301   9.116   8.712   7.999  1.2099  0.0782 -1.3798
39121SOL    HW222302   9.109   8.861   8.025 -0.3655 -0.2101  0.0187
39122SOL     OW22303   5.478   4.305   6.635  0.5453 -0.0736  0.1926
39122SOL    HW122304   5.400   4.256   6.662 -0.6759  1.7676  0.1348
39122SOL    HW222305   5.519   4.330   6.718  0.6330 -0.3467  0.2338
39123SOL     OW22306   0.741   7.495   2.091 -0.3290 -0.0540  0.1678
39123SOL    HW122307   0.710   7.584   2.078  0.5755  0.1716 -0.6310
39123SOL    HW222308   0.793   7.477   2.012  2.1611 -0.1088  1.7153
39124SOL     OW22309  10.251   5.006   1.652 -0.0927  0.4604 -0.7704
39124SOL    HW122310  10.219   5.096   1.663 -2.7837 -0.7016  2.8417
39124SOL    HW222311  10.180   4.962   1.605 -0.6643 -0.5957  1.0195
39125SOL     OW22312   5.019   5.627   0.402  0.1377 -0.3483 -0.1968
39125SOL    HW122313   4.978   5.626   0.315 -0.8181  0.4028  0.2221
39125SOL    HW222314   5.103   5.671   0.388 -0.6361  1.0979 -0.5168
39126SOL     OW22315   2.003   2.027   2.843 -0.2982  0.0549  0.2876
39126SOL    HW122316   1.913   2.016   2.813 -0.5765 -1.0692  1.4447
39126SOL    HW222317   2.045   1.943   2.823  0.6851  0.7541 -0.7588
39127SOL     OW22318   4.759   2.187   3.532  0.4603  1.0218  0.1536
39127SOL    HW122319   4.799   2.130   3.467  1.3065  2.0037 -0.2085
39127SOL    HW222320   4.824   2.256   3.547 -0.5950  1.9753  0.4681
39128SOL     OW22321   1.458   3.650  10.267 -0.0663  0.0337 -0.0797
39128SOL    HW122322   1.452   3.689  10.180 -0.1069 -0.1730 -0.1717
39128SOL    HW222323   1.381   3.593  10.273 -0.0588  0.0397  0.0876
39129SOL     OW22324  10.304   6.874   1.394  0.8070  0.2787 -0.8439
39129SOL    HW122325  10.366   6.934   1.352 -0.1152  0.2748 -2.2640
39129SOL    HW222326  10.359   6.818   1.450  1.8435  1.4944 -0.6016
39130SOL     OW22327   2.218   2.840   0.958 -0.2452  0.4743  0.1000
39130SOL    HW122328   2.218   2.745   0.949  1.1563  0.3715  0.8994
39130SOL    HW222329   2.296   2.860   1.010 -0.1346  2.1147 -0.6157
39131SOL     OW22330  10.408   5.759   9.729  0.0553  0.4198 -0.0672
39131SOL    HW122331  10.314   5.752   9.715 -0.1059  1.9767  0.1087
39131SOL    HW222332  10.422   5.850   9.756  1.8518  0.8430 -2.1365
39132SOL     OW22333  11.032   7.530   2.683 -0.2033 -0.1331  0.6895
39132SOL    HW122334  11.092   7.555   2.753  1.9151  1.4158 -1.5097
39132SOL    HW222335  11.078   7.555   2.603 -2.3243 -2.1716 -1.3015
39133SOL     OW22336   0.314   8.380   6.672 -0.2097  0.3556 -0.5392
39133SOL    HW122337   0.235   8.339   6.709 -1.1443  0.6248 -2.1482
39133SOL    HW222338   0.345   8.318   6.607  2.6930 -1.1417  1.9976
39134SOL     OW22339   5.987   9.399   1.137 -0.2514  0.0328 -0.1458
39134SOL    HW122340   6.045   9.455   1.189  0.4805 -1.0178  0.1993
39134SOL    HW222341   5.937   9.460   1.083 -0.4833  1.1075  1.2255
39135SOL     OW22342   7.064   1.166   9.811 -0.5524 -0.1657  0.6296
39135SOL    HW122343   7.122   1.199   9.879  0.1403 -0.1759  0.0564
39135SOL    HW222344   6.981   1.211   9.826  0.1591  1.3231  0.3155
39136SOL     OW22345   1.655  11.448   0.123  0.2390  0.6185 -0.2223
39136SOL    HW122346   1.615  11.375   0.075 -1.4316  2.3411 -1.6326
39136SOL    HW222347   1.580  11.496   0.159  1.1723  2.4089 -0.5639
39137SOL     OW22348   0.243  10.312   5.012 -0.2535  0.3541 -0.1684
39137SOL    HW122349   0.193  10.275   5.084  0.0865 -1.1971 -0.6813
39137SOL    HW222350   0.330  10.272   5.021 -0.2862 -0.0796 -1.5660
39138SOL     OW22351   4.242   7.751   0.612  0.0874  0.0432 -0.3466
39138SOL    HW122352   4.198   7.731   0.695  0.4796  2.9713  0.6867
39138SOL    HW222353   4.194   7.827   0.577  1.6925  0.6581 -1.3126
39139SOL     OW22354   4.717  10.404   0.946  0.2139 -0.1823  0.1930
39139SOL    HW122355   4.722  10.308   0.954 -0.1525 -0.1555  0.8155
39139SOL    HW222356   4.651  10.430   1.011 -0.3266  0.4150 -0.5797
39140SOL     OW22357   4.031   2.580   1.883  0.5143  0.2593  0.0429
39140SOL    HW122358   4.056   2.635   1.809  2.6212 -0.5737  0.0710
39140SOL    HW222359   3.944   2.547   1.859  0.2968  1.5620 -1.1264
39141SOL     OW22360   1.886   4.562   0.022  0.2779  0.0138  0.3422
39141SOL    HW122361   1.855   4.480   0.061 -1.1335  0.4485  0.1591
39141SOL    HW222362   1.857   4.557  -0.069 -2.2988  1.9014  0.9613
39142SOL     OW22363  10.324   1.955   6.007 -0.1119 -0.6919  0.3362
39142SOL    HW122364  10.394   1.990   5.952  0.0045 -0.2470  0.7633
39142SOL    HW222365  10.313   1.865   5.976  0.6233 -0.7601  0.2369
39143SOL     OW22366   3.432   2.338   3.612  0.0876  0.0005  0.3215
39143SOL    HW122367   3.506   2.397   3.600 -0.7592  1.2697  1.0375
39143SOL    HW222368   3.461   2.277   3.680 -0.1270  1.6527  1.9945
39144SOL     OW22369   6.711   6.115   8.742  0.1682 -0.3281  0.4235
39144SOL    HW122370   6.620   6.084   8.731  0.3441 -1.2413  1.3490
39144SOL    HW222371   6.753   6.095   8.659 -0.2049 -0.9460  0.3756
39145SOL     OW22372   9.589   3.098  10.513  0.6104  0.3503 -0.3839
39145SOL    HW122373   9.546   3.167  10.563  2.8903  0.5043  1.5516
39145SOL    HW222374   9.681   3.123  10.512  1.5530 -2.6348  0.4782
39146SOL     OW22375   7.369   6.641   0.810 -0.7988  0.3506 -0.3605
39146SOL    HW122376   7.317   6.721   0.820 -0.2026  0.9504 -1.7287
39146SOL    HW222377   7.443   6.668   0.755  0.2954 -0.7672  0.4933
39147SOL     OW22378   6.729   2.598   8.046  0.6781 -0.0934 -0.2574
39147SOL    HW122379   6.737   2.655   8.122  1.0551 -0.8034  0.2379
39147SOL    HW222380   6.670   2.646   7.987  1.0574  0.8490  0.1076
39148SOL     OW22381   6.934   6.450   3.415 -0.1568 -0.1066 -0.9230
39148SOL    HW122382   6.857   6.460   3.471 -0.3735  1.9412 -1.5150
39148SOL    HW222383   6.909   6.382   3.352 -1.3374  0.2480 -0.8637
39149SOL     OW22384   1.569   1.708   3.552  0.4108  0.3667 -0.1561
39149SOL    HW122385   1.540   1.625   3.513  0.7422  0.3958 -0.4696
39149SOL    HW222386   1.658   1.720   3.519  0.3629  0.8492 -0.1132
39150SOL     OW22387   0.877   7.169   0.951 -0.1900  0.2352  0.0606
39150SOL    HW122388   0.837   7.113   1.018  0.5445  1.7117  1.8357
39150SOL    HW222389   0.895   7.251   0.997 -0.3041  1.5916 -2.1715
39151SOL     OW22390   9.734  10.359   6.317 -0.3805  0.0324 -0.1713
39151SOL    HW122391   9.736  10.328   6.226 -0.4159  0.6796 -0.4038
39151SOL    HW222392   9.641  10.362   6.339 -0.5191  1.7984 -0.8211
39152SOL     OW22393   5.685   3.485   5.336  0.3485 -0.0972 -0.1712
39152SOL    HW122394   5.647   3.454   5.254 -0.4338 -0.1344  0.1939
39152SOL    HW222395   5.662   3.418   5.400 -2.7851  1.8321  0.9933
39153SOL     OW22396   0.119   3.120   7.063  0.0966  0.1349 -0.3813
39153SOL    HW122397   0.148   3.174   6.990 -0.0258  0.6811 -0.0346
39153SOL    HW222398   0.156   3.163   7.141 -2.3447  1.3871  0.1798
39154SOL     OW22399   6.969   6.561   3.770 -0.4955  0.3774  0.4076
39154SOL    HW122400   6.879   6.577   3.798 -1.0517  0.3273 -1.2492
39154SOL    HW222401   7.001   6.493   3.829 -2.0805 -0.7030  0.0695
39155SOL     OW22402   2.986   6.152   0.738  0.3025 -0.0648  0.0167
39155SOL    HW122403   3.028   6.091   0.798  0.9521  0.4862  0.1386
39155SOL    HW222404   3.007   6.118   0.651 -1.1044 -1.1731  0.0769
39156SOL     OW22405  11.380   5.510   8.356 -0.2473 -0.2044 -0.4396
39156SOL    HW122406  11.329   5.443   8.311 -1.5497 -0.1285  0.8768
39156SOL    HW222407  11.348   5.510   8.446  0.1910  1.7092 -0.2240
39157SOL     OW22408  10.731   6.566   4.053  0.3585  0.0266 -0.4196
39157SOL    HW122409  10.760   6.608   3.973  1.7131 -0.7588 -0.3659
39157SOL    HW222410  10.804   6.574   4.113 -0.0675 -0.7305  0.2231
39158SOL     OW22411   4.161  10.381   3.504  0.3162  0.8400  0.2428
39158SOL    HW122412   4.174  10.288   3.484 -0.5868  0.6499  0.4745
39158SOL    HW222413   4.162  10.385   3.600 -1.5729  0.7417  0.3004
39159SOL     OW22414   1.865   8.043   1.069  0.8219  0.1780 -0.3474
39159SOL    HW122415   1.854   8.069   1.160 -1.8391  1.9215 -1.0699
39159SOL    HW222416   1.952   8.002   1.067  1.8590  1.9002  2.5224
39160SOL     OW22417   1.841   1.933   3.683 -0.0600 -0.0187  0.1659
39160SOL    HW122418   1.933   1.943   3.659 -0.3628 -1.5024 -1.8408
39160SOL    HW222419   1.794   1.980   3.615 -0.8300 -0.0796  0.6484
39161SOL     OW22420   3.536   4.065   0.409  0.5347 -0.2818 -0.0063
39161SOL    HW122421   3.564   3.990   0.462 -1.1356  0.7008  2.3921
39161SOL    HW222422   3.442   4.072   0.423  0.2014  0.7716 -2.2351
39162SOL     OW22423   8.675   6.965   7.343 -0.1448  0.4416 -0.2595
39162SOL    HW122424   8.647   6.897   7.281  0.0478  0.5971 -0.5207
39162SOL    HW222425   8.683   6.919   7.426  0.3023  0.0661 -0.5002
39163SOL     OW22426  11.123   1.144  10.209 -1.1153 -0.4524  0.3188
39163SOL    HW122427  11.164   1.154  10.123  0.3480  0.3156  1.0666
39163SOL    HW222428  11.045   1.200  10.205  0.6148  2.1611  0.4786
39164SOL     OW22429   6.047   6.842   8.885 -0.1066  0.1520  0.0323
39164SOL    HW122430   6.027   6.763   8.836 -2.4519  0.5993  0.1713
39164SOL    HW222431   5.981   6.845   8.954 -1.1627  3.0320 -0.9600
39165SOL     OW22432   0.733   5.102   7.391  0.0959  0.3081 -0.5777
39165SOL    HW122433   0.638   5.112   7.382 -0.5105 -2.0421  1.8438
39165SOL    HW222434   0.745   5.067   7.479  3.2602  0.5441 -0.7962
39166SOL     OW22435   3.625   3.150   9.314  0.0563  0.4554  0.2272
39166SOL    HW122436   3.675   3.225   9.282  0.6157  0.1927  0.4776
39166SOL    HW222437   3.627   3.087   9.242 -1.7194  1.2697 -0.5865
39167SOL     OW22438   7.590   2.078   2.043 -0.0074  0.2719  0.0016
39167SOL    HW122439   7.663   2.040   1.993 -0.3717  1.5898 -1.6287
39167SOL    HW222440   7.519   2.086   1.979 -0.6943  1.5088  0.8850
39168SOL     OW22441   5.236   7.573  11.476  0.4659 -0.0467  0.8151
39168SOL    HW122442   5.280   7.553  11.559 -0.2094 -0.8638  0.9950
39168SOL    HW222443   5.293   7.534  11.410  0.6652  0.0125  0.9510
39169SOL     OW22444   6.867   7.502   4.324  0.0337  0.2256  0.4815
39169SOL    HW122445   6.785   7.510   4.276  0.2497  0.2519  0.1142
39169SOL    HW222446   6.857   7.562   4.398  0.0475  0.8704 -0.0248
39170SOL     OW22447   6.341   7.433   3.346 -0.0064 -0.2920 -0.3530
39170SOL    HW122448   6.419   7.459   3.298 -0.0743 -0.1818 -0.4023
39170SOL    HW222449   6.374   7.377   3.417 -0.1595 -3.7707 -2.7519
39171SOL     OW22450   2.688   6.715   5.031  0.2300 -0.1473  0.1848
39171SOL    HW122451   2.714   6.683   4.945  0.4940  1.8496 -0.5190
39171SOL    HW222452   2.744   6.668   5.092  1.2960 -0.3019 -0.8674
39172SOL     OW22453   3.237   6.735   1.628  0.3564  0.3248 -0.5285
39172SOL    HW122454   3.242   6.795   1.553 -0.9097 -0.8030 -1.5486
39172SOL    HW222455   3.272   6.653   1.595 -0.5438 -0.2838  0.0156
39173SOL     OW22456   7.558   6.051   8.467 -0.1554  0.5813  0.3102
39173SOL    HW122457   7.516   6.027   8.550  0.9714 -0.8308  0.5240
39173SOL    HW222458   7.638   5.999   8.465 -0.3643  0.2363 -1.8793
39174SOL     OW22459   0.765   1.843   4.361  0.1315 -0.1042 -0.1528
39174SOL    HW122460   0.710   1.823   4.436  1.1527 -1.7277  0.2127
39174SOL    HW222461   0.846   1.877   4.399 -0.1550  1.1467 -0.6299
39175SOL     OW22462   8.220   9.841   9.545  0.1303 -0.2426 -0.2216
39175SOL    HW122463   8.247   9.932   9.532  1.3815 -0.6368 -0.5558
39175SOL    HW222464   8.270   9.812   9.622 -0.2280 -0.6631 -0.1404
39176SOL     OW22465   8.063   9.857  10.484  0.1236  0.5152  0.8106
39176SOL    HW122466   8.109   9.939  10.462  0.7516  0.1892  0.8911
39176SOL    HW222467   8.074   9.849  10.579  0.5736  0.0368  0.7204
39177SOL     OW22468   2.603   5.933   3.008 -0.2110  0.0662  0.3085
39177SOL    HW122469   2.610   5.938   3.104 -1.7624 -0.0287  0.4637
39177SOL    HW222470   2.688   5.901   2.979  0.2645  0.0301  1.6612
39178SOL     OW22471  10.021   6.966   2.263 -0.0012 -0.1785  0.8533
39178SOL    HW122472   9.986   6.932   2.345 -1.0309  0.8830  0.8887
39178SOL    HW222473  10.099   6.913   2.246 -1.9764 -3.1703  0.3905
39179SOL     OW22474   3.881  10.281   9.306  0.5970 -0.2810  0.2226
39179SOL    HW122475   3.919  10.262   9.221 -1.4009 -0.3213 -0.7204
39179SOL    HW222476   3.791  10.248   9.300  0.0639  0.7316  1.9552
39180SOL     OW22477   2.639   1.166   9.173  0.1095  0.0935  0.7552
39180SOL    HW122478   2.699   1.238   9.153  0.2379 -0.0747  0.5250
39180SOL    HW222479   2.657   1.101   9.105 -0.0143 -0.1486  0.9539
39181SOL     OW22480   2.158   9.240   4.219  0.5063 -0.0792 -0.0091
39181SOL    HW122481   2.252   9.223   4.213  0.4565 -0.1574 -0.7114
39181SOL    HW222482   2.126   9.222   4.131  0.1653  1.9367 -0.3527
39182SOL     OW22483   4.203   8.564   4.600 -0.2965  0.0642 -0.0200
39182SOL    HW122484   4.168   8.644   4.561 -2.1682 -0.0082  1.3746
39182SOL    HW222485   4.274   8.595   4.657 -1.2419  0.8239  0.7942
39183SOL     OW22486   3.454   8.853   0.698  0.0129  0.1980  0.6098
39183SOL    HW122487   3.546   8.879   0.703 -0.1029  1.5001 -2.3811
39183SOL    HW222488   3.455   8.759   0.717  2.6082 -0.7332 -3.0957
39184SOL     OW22489   9.523   4.059   4.164  0.5359 -0.7368 -0.2004
39184SOL    HW122490   9.442   4.092   4.124  0.7561 -0.6983 -0.6110
39184SOL    HW222491   9.499   4.044   4.256  0.6988  1.5620  0.2788
39185SOL     OW22492   8.900   2.285   2.395  0.2452 -0.1290 -0.2658
39185SOL    HW122493   8.983   2.261   2.355  0.4949  1.2718 -0.6406
39185SOL    HW222494   8.918   2.290   2.489  0.0387 -1.8910 -0.0958
39186SOL     OW22495   4.395   3.261  10.767 -0.8539 -0.5876 -0.2549
39186SOL    HW122496   4.407   3.196  10.698 -0.3895  1.4493 -2.2165
39186SOL    HW222497   4.479   3.262  10.814 -0.0833  0.0781 -1.5961
39187SOL     OW22498   0.182   3.791   6.526  0.3995  0.2196  0.2448
39187SOL    HW122499   0.128   3.866   6.502 -0.0767 -0.3552 -0.5450
39187SOL    HW222500   0.119   3.722   6.545  0.8436 -0.1900  0.2494
39188SOL     OW22501  11.547  10.284   4.059 -1.1872  0.0977  0.3966
39188SOL    HW122502  11.454  10.277   4.040 -1.2795 -3.2660  1.5599
39188SOL    HW222503  11.552  10.302   4.153 -0.5957  1.9733  0.0612
39189SOL     OW22504  10.635   4.229   3.652 -0.0127 -0.7968  0.1026
39189SOL    HW122505  10.695   4.294   3.614  0.1929  1.1625  3.3682
39189SOL    HW222506  10.692   4.159   3.683  0.0341 -1.3044 -1.0795
39190SOL     OW22507   7.950   6.092   2.391 -0.5047  0.0059  0.0235
39190SOL    HW122508   7.897   6.090   2.470 -1.7025 -1.1549 -0.7593
39190SOL    HW222509   7.897   6.047   2.325  1.8487 -2.1118 -0.5715
39191SOL     OW22510  11.156   6.229  11.640 -0.1341 -0.0304  0.5833
39191SOL    HW122511  11.071   6.265  11.666 -0.6938 -0.9987  0.1621
39191SOL    HW222512  11.155   6.233  11.544  1.6954  3.0330  0.5740
39192SOL     OW22513   1.648   8.077   1.608  0.0783  0.0461 -0.0632
39192SOL    HW122514   1.626   8.053   1.518 -0.6733  1.1862 -0.2062
39192SOL    HW222515   1.733   8.120   1.601 -0.5337  1.2258 -0.4182
39193SOL     OW22516   9.303   9.725  11.102  0.4802 -0.1658 -0.0128
39193SOL    HW122517   9.255   9.717  11.184  0.7276 -1.2025  0.0393
39193SOL    HW222518   9.302   9.638  11.064 -0.6197  0.5286 -1.6991
39194SOL     OW22519  11.307   8.069   2.054 -0.4564  0.4662 -0.4433
39194SOL    HW122520  11.220   8.031   2.064 -1.3750  2.4621 -0.2535
39194SOL    HW222521  11.291   8.163   2.042  1.6189  0.7514 -1.5372
39195SOL     OW22522  10.950   4.696   5.207  0.5532 -0.0343  0.4789
39195SOL    HW122523  10.894   4.660   5.276 -0.3894 -0.1345 -0.3039
39195SOL    HW222524  10.976   4.782   5.238 -0.5764  0.2779  0.5861
39196SOL     OW22525   5.231   8.416   2.897  0.2520  0.7662  0.3264
39196SOL    HW122526   5.221   8.500   2.851 -0.2860 -0.3095 -1.6391
39196SOL    HW222527   5.142   8.390   2.919  0.2416 -0.0552 -0.5946
39197SOL     OW22528   8.725   2.256   6.314 -0.6768  0.4044  0.1147
39197SOL    HW122529   8.806   2.259   6.263 -0.8364 -0.4494 -0.2123
39197SOL    HW222530   8.662   2.212   6.257 -1.0744  0.1077  0.7620
39198SOL     OW22531   0.723   6.516   9.996  0.1690  0.3729  0.3750
39198SOL    HW122532   0.769   6.588  10.038  0.9026  0.1153  0.0323
39198SOL    HW222533   0.729   6.444  10.059 -0.5275  0.5888  0.6997
39199SOL     OW22534   1.832  10.541   9.120 -0.2652 -0.4935  0.1321
39199SOL    HW122535   1.812  10.601   9.048  1.5922  0.0053 -0.0378
39199SOL    HW222536   1.923  10.515   9.105  0.3214 -0.0968  2.4564
39200SOL     OW22537   0.974   0.080   4.874  0.9018  0.6327  0.0572
39200SOL    HW122538   1.056   0.042   4.906  0.3526  1.1269  2.2136
39200SOL    HW222539   0.933   0.009   4.824  1.1282 -0.7614  1.7526
39201SOL     OW22540   7.074   3.232   5.471  0.6143  0.3782  0.7864
39201SOL    HW122541   7.169   3.233   5.459  0.7806 -1.8850  1.4005
39201SOL    HW222542   7.038   3.234   5.382  1.4004 -2.2195  0.3303
39202SOL     OW22543   8.268   2.136  10.576  0.2536  0.1287 -0.1238
39202SOL    HW122544   8.183   2.104  10.605  0.9015 -1.6300 -0.0248
39202SOL    HW222545   8.321   2.140  10.655  0.0930  1.9066 -0.0682
39203SOL     OW22546   6.229   6.203   3.008  0.1912  0.0203  0.0271
39203SOL    HW122547   6.197   6.113   3.013 -0.3191  0.2528  1.7218
39203SOL    HW222548   6.150   6.256   2.998  0.0774  0.4775  2.5488
39204SOL     OW22549   2.839   8.895   9.499 -0.2563 -0.1664 -0.2358
39204SOL    HW122550   2.843   8.933   9.411 -0.5253  0.8317  0.1725
39204SOL    HW222551   2.836   8.800   9.484  1.3642 -0.0938 -1.2575
39205SOL     OW22552   1.912   9.699   0.971 -0.4073 -0.0644  0.5185
39205SOL    HW122553   1.844   9.651   1.019  0.3104 -0.8839  0.7548
39205SOL    HW222554   1.898   9.674   0.879 -1.2468  0.8306  0.3865
39206SOL     OW22555   8.933   4.649   7.254  0.3440 -0.0024  0.3116
39206SOL    HW122556   8.858   4.657   7.195 -0.5806 -0.3238  1.4089
39206SOL    HW222557   8.991   4.587   7.210  0.1795  0.5837 -0.7582
39207SOL     OW22558   0.422   3.884   6.002 -0.3387 -0.1054 -0.5146
39207SOL    HW122559   0.455   3.943   5.934 -0.3297  1.2320  0.6260
39207SOL    HW222560   0.358   3.829   5.956  0.2503  0.2359 -1.7767
39208SOL     OW22561   6.258   2.008   2.404  0.1703  0.3047 -0.1112
39208SOL    HW122562   6.311   2.083   2.376  1.3358 -0.0505  1.0431
39208SOL    HW222563   6.250   2.019   2.499  2.0653 -2.0561  0.4092
39209SOL     OW22564   3.291   2.997   7.620 -0.6176  0.1054 -0.0054
39209SOL    HW122565   3.291   3.007   7.716 -2.6100 -1.0102  0.1707
39209SOL    HW222566   3.223   2.932   7.603  1.4045 -1.6225 -2.0429
39210SOL     OW22567   0.464  11.063   4.557 -0.5155 -0.2283  0.3622
39210SOL    HW122568   0.505  11.089   4.639  0.6563 -1.4175  0.1879
39210SOL    HW222569   0.427  10.977   4.576  0.2480 -0.7572 -0.4940
39211SOL     OW22570   3.360   7.238   7.131  0.3959  0.6210 -0.4095
39211SOL    HW122571   3.427   7.217   7.066  0.5181 -1.3736  0.2823
39211SOL    HW222572   3.365   7.167   7.194 -1.6897  0.9571  0.2247
39212SOL     OW22573   9.946   8.755   6.083  0.3236 -0.0939  0.1650
39212SOL    HW122574   9.992   8.761   6.166  0.3192 -0.2624  0.1785
39212SOL    HW222575   9.888   8.832   6.083  1.2361  0.6124 -0.2374
39213SOL     OW22576   9.012   0.977  10.695 -0.5522  0.2111  0.6480
39213SOL    HW122577   9.099   0.947  10.669 -0.6628 -0.4494  1.0232
39213SOL    HW222578   8.966   0.991  10.612  0.1091  1.2117  0.4281
39214SOL     OW22579   4.968  11.096   3.007 -0.5155 -0.2688 -0.1537
39214SOL    HW122580   4.952  11.005   2.982 -0.5328 -0.0018 -1.1325
39214SOL    HW222581   4.885  11.141   2.988 -0.4727 -0.0213  0.2281
39215SOL     OW22582   5.521  10.532   5.602  0.0622 -0.1213  0.0236
39215SOL    HW122583   5.565  10.610   5.569 -1.0966  0.6007  0.1697
39215SOL    HW222584   5.539  10.533   5.696 -0.6775  0.4423  0.1605
39216SOL     OW22585   7.474   8.001   2.882 -0.1019  1.0375 -0.1306
39216SOL    HW122586   7.488   7.918   2.928  2.1092  2.2335  1.5146
39216SOL    HW222587   7.511   7.987   2.795  1.3381  0.6478  0.5260
39217SOL     OW22588   3.094  10.907   6.117 -0.1349  0.1620 -0.5953
39217SOL    HW122589   3.068  10.833   6.173 -0.8207 -1.2061 -2.6028
39217SOL    HW222590   3.097  10.982   6.176 -3.6664 -0.6005  0.7882
39218SOL     OW22591   1.954   5.066   0.092 -0.0291 -0.7902  0.7566
39218SOL    HW122592   1.910   4.981   0.096 -1.1130 -0.2968 -0.1938
39218SOL    HW222593   2.043   5.046   0.064 -0.0343 -1.6701  1.3240
39219SOL     OW22594   5.619   2.846   3.881 -0.1218  0.4798 -0.8148
39219SOL    HW122595   5.632   2.753   3.861 -0.4638  0.5323 -1.2984
39219SOL    HW222596   5.585   2.846   3.970 -1.1008  0.0666 -1.1729
39220SOL     OW22597   7.794   7.440   6.613  0.4642  0.1498 -0.8349
39220SOL    HW122598   7.714   7.491   6.597  0.4856 -0.1736 -2.0529
39220SOL    HW222599   7.792   7.371   6.547  1.6069 -0.0397 -0.6911
39221SOL     OW22600   8.245   7.071   0.035 -0.0663  0.2148  0.3612
39221SOL    HW122601   8.240   6.993   0.091 -1.3164  0.2442  0.3214
39221SOL    HW222602   8.244   7.036  -0.054  1.5089  0.1915  0.3118
39222SOL     OW22603   2.569   4.882   7.282 -0.0238  0.0085  0.2901
39222SOL    HW122604   2.540   4.926   7.203 -0.0922 -0.4003  0.0825
39222SOL    HW222605   2.517   4.801   7.285  2.0068 -1.4271 -0.8056
39223SOL     OW22606   9.387  11.334   8.964 -0.6286  0.2675 -0.1214
39223SOL    HW122607   9.385  11.248   9.006 -1.1802  0.2252 -0.2217
39223SOL    HW222608   9.352  11.317   8.876 -0.0958  0.4706 -0.3732
39224SOL     OW22609   6.916  11.410   0.338  0.1854 -0.0623 -0.6286
39224SOL    HW122610   6.984  11.422   0.272  1.7139  1.7623  1.1257
39224SOL    HW222611   6.834  11.417   0.290  1.1188 -2.5501 -2.8684
39225SOL     OW22612   5.427  10.964   3.629  0.1664  0.4519 -0.3370
39225SOL    HW122613   5.517  10.996   3.624  0.7969 -1.1690 -0.1880
39225SOL    HW222614   5.410  10.926   3.543  0.8602 -2.1752  0.5862
39226SOL     OW22615  10.908   1.620   1.805  0.0553 -0.4781  0.1617
39226SOL    HW122616  10.855   1.541   1.808  2.0037 -1.9065 -1.1769
39226SOL    HW222617  10.988   1.595   1.760  0.7415  2.2764 -0.3752
39227SOL     OW22618   6.040   6.984   8.295 -0.3522 -0.5079 -0.9470
39227SOL    HW122619   6.025   6.935   8.376 -0.6315  0.7105 -0.2521
39227SOL    HW222620   6.044   6.916   8.227  1.3865 -1.7005  0.2578
39228SOL     OW22621   9.130   4.796   7.937  0.2331 -0.1853  0.0379
39228SOL    HW122622   9.075   4.718   7.928  0.3703 -0.2483 -0.2670
39228SOL    HW222623   9.187   4.776   8.011  0.8083 -0.7098 -0.5311
39229SOL     OW22624   2.383   9.071   9.942 -0.0517 -0.7667 -0.4236
39229SOL    HW122625   2.476   9.081   9.920 -0.2191  2.6789 -0.1424
39229SOL    HW222626   2.337   9.091   9.861 -0.5358  0.4758  0.1330
39230SOL     OW22627   5.904   5.449   7.419 -0.8486  0.2010  0.0019
39230SOL    HW122628   5.829   5.488   7.464 -0.4991  0.6020  0.2453
39230SOL    HW222629   5.980   5.484   7.465 -0.5002  0.1421 -0.5280
39231SOL     OW22630   9.798   1.664  10.189  0.4158 -0.2580 -0.7509
39231SOL    HW122631   9.761   1.591  10.239  0.6286 -0.1737 -0.4665
39231SOL    HW222632   9.751   1.741  10.221  0.3082 -0.2470 -0.9327
39232SOL     OW22633   0.933   2.705   7.265  0.3193  0.8956  0.9146
39232SOL    HW122634   0.999   2.759   7.307  1.0625  0.7196 -0.0136
39232SOL    HW222635   0.977   2.666   7.189 -1.0723  1.4903 -0.2580
39233SOL     OW22636   4.069  10.599   3.981  0.5446 -0.0742  1.0237
39233SOL    HW122637   4.140  10.553   3.938 -0.9557 -0.6298 -1.0533
39233SOL    HW222638   4.066  10.684   3.937 -2.2986 -1.3745 -1.7297
39234SOL     OW22639   6.722  10.472   7.753  0.2501 -0.0057  0.0813
39234SOL    HW122640   6.700  10.380   7.770  1.8048 -0.1342  1.6970
39234SOL    HW222641   6.697  10.517   7.834 -2.0943  1.3597 -1.2930
39235SOL     OW22642   9.730   3.069   3.894 -0.4965 -0.0498  0.3132
39235SOL    HW122643   9.704   3.043   3.982 -1.2070 -0.3728  0.0148
39235SOL    HW222644   9.662   3.034   3.837  0.1155 -0.1123 -0.4007
39236SOL     OW22645   7.835   3.162   3.339 -0.2260  0.0804 -0.3568
39236SOL    HW122646   7.762   3.210   3.299 -0.2542 -0.3162 -0.7969
39236SOL    HW222647   7.899   3.154   3.268  0.5669  1.0559  0.2243
39237SOL     OW22648   1.718   7.121   6.597 -0.0059  0.7260 -0.3492
39237SOL    HW122649   1.707   7.182   6.670  1.4069  0.7020 -0.0870
39237SOL    HW222650   1.647   7.058   6.608 -0.2538  1.1504  0.5770
39238SOL     OW22651   4.256  11.655   6.995  0.0882 -0.0806 -0.3743
39238SOL    HW122652   4.279  11.566   6.966  2.9434  0.3117  0.3196
39238SOL    HW222653   4.207  11.642   7.076 -0.0818 -1.0348 -0.6171
39239SOL     OW22654   5.263  11.205   3.398 -0.6306  0.0328  0.5689
39239SOL    HW122655   5.303  11.271   3.342 -0.7376  0.3461  0.8572
39239SOL    HW222656   5.170  11.206   3.374 -0.3638 -1.1995 -0.6061
39240SOL     OW22657  10.531   4.425   4.914  0.5687 -0.0301  0.3706
39240SOL    HW122658  10.520   4.515   4.885  1.7407  0.0582  0.1724
39240SOL    HW222659  10.449   4.404   4.959 -0.4033  0.5649 -1.0670
39241SOL     OW22660   3.273   0.827  10.121 -0.3540  0.1776  0.2053
39241SOL    HW122661   3.197   0.885  10.112  0.4148  1.0517 -1.0285
39241SOL    HW222662   3.348   0.884  10.103  0.6194 -0.6305  1.5235
39242SOL     OW22663   0.441   6.296   0.125 -0.3719  0.7729  0.2395
39242SOL    HW122664   0.442   6.371   0.184 -1.4881  0.4812  0.6585
39242SOL    HW222665   0.505   6.235   0.163  0.1020  1.2619  0.2309
39243SOL     OW22666   7.595   1.451   5.933  0.0865  0.0064 -0.0059
39243SOL    HW122667   7.514   1.469   5.980 -0.9247  0.0121 -1.6445
39243SOL    HW222668   7.625   1.367   5.967 -1.8141 -1.0816 -0.8477
39244SOL     OW22669   1.570   7.410   2.314 -0.2296 -0.2938  0.0510
39244SOL    HW122670   1.657   7.425   2.350 -0.1064  0.4847 -0.5524
39244SOL    HW222671   1.585   7.383   2.224 -0.5762 -1.3989  0.2999
39245SOL     OW22672   7.616  10.117  10.949  0.1600 -0.0465 -0.2889
39245SOL    HW122673   7.619  10.194  11.006  1.7283  0.2686 -0.7446
39245SOL    HW222674   7.656  10.047  11.002  2.6890  0.5130 -1.2817
39246SOL     OW22675   6.081  10.043   2.021 -0.5596 -0.0873 -0.5116
39246SOL    HW122676   6.052  10.134   2.033  0.5721  0.3105 -0.6753
39246SOL    HW222677   6.132  10.045   1.940  1.4331 -0.3513  0.6693
39247SOL     OW22678   1.286   4.176   2.884 -0.4510  0.0745  0.0380
39247SOL    HW122679   1.261   4.084   2.889 -1.1279  0.3135  1.7221
39247SOL    HW222680   1.374   4.175   2.846 -1.1886 -1.0945 -1.8139
39248SOL     OW22681   0.838   3.298   7.151 -0.0521 -0.2767 -0.0883
39248SOL    HW122682   0.897   3.240   7.199 -0.6033  0.2960  1.3411
39248SOL    HW222683   0.764   3.243   7.128  0.2442 -0.5765 -0.3313
39249SOL     OW22684   4.778   4.046  10.062  0.0983 -0.3003 -0.0548
39249SOL    HW122685   4.706   4.098  10.099 -0.2203 -0.1020 -0.9098
39249SOL    HW222686   4.734   3.983  10.005  0.4981 -1.4053  0.8202
39250SOL     OW22687   2.409   6.079  11.598  0.0894 -0.3080  0.1465
39250SOL    HW122688   2.444   6.070  11.687 -0.7987 -0.1904  0.5179
39250SOL    HW222689   2.472   6.136  11.553 -1.3667  2.9387  1.8479
39251SOL     OW22690   8.695   2.977   0.603  0.6269 -0.5671  0.4666
39251SOL    HW122691   8.608   2.985   0.565  0.7203  0.7535  0.4976
39251SOL    HW222692   8.725   2.891   0.575 -0.9424 -1.3291  1.0190
39252SOL     OW22693  10.804   9.675   3.779  0.1932 -0.1814  0.1564
39252SOL    HW122694  10.750   9.752   3.762  1.4355  0.7147  0.1726
39252SOL    HW222695  10.810   9.670   3.875  1.1209  0.4366  0.1392
39253SOL     OW22696   4.120   3.701   2.034  0.4742  0.1708  0.3659
39253SOL    HW122697   4.076   3.761   2.094  0.9490  0.6894  0.2027
39253SOL    HW222698   4.060   3.693   1.959  0.2464  0.1450  0.5481
39254SOL     OW22699   1.944   9.414   7.162 -0.7188  0.0699  0.7947
39254SOL    HW122700   1.987   9.489   7.121  0.0558 -0.4076  0.7135
39254SOL    HW222701   1.962   9.425   7.255  0.7837 -0.8492  0.6430
39255SOL     OW22702   7.925   8.589   7.889  0.2709  0.5922 -0.5933
39255SOL    HW122703   7.915   8.525   7.818 -0.8798  0.8228 -0.6525
39255SOL    HW222704   7.996   8.554   7.943 -0.6851 -1.0317 -0.3248
39256SOL     OW22705  11.302   0.285   6.279 -0.1322  0.2312 -0.9914
39256SOL    HW122706  11.358   0.327   6.344  0.1553 -0.2543 -0.9156
39256SOL    HW222707  11.312   0.337   6.200 -1.8660  1.9026 -0.1778
39257SOL     OW22708   3.576   5.062   1.841  0.5089 -0.4453  0.6747
39257SOL    HW122709   3.517   5.087   1.769 -0.2581 -0.5230  1.2631
39257SOL    HW222710   3.623   4.986   1.807  2.0773  1.0478 -0.7253
39258SOL     OW22711   8.855   5.719  10.916 -0.0968 -0.3768 -0.1682
39258SOL    HW122712   8.789   5.682  10.974 -1.1836  0.7649 -0.6101
39258SOL    HW222713   8.905   5.778  10.972 -0.2434 -0.3317 -0.0825
39259SOL     OW22714   1.425   8.929   1.552  0.3355  0.2721  0.2862
39259SOL    HW122715   1.330   8.932   1.561  0.4518  1.1609  1.3968
39259SOL    HW222716   1.440   8.868   1.479 -1.1453  1.6560 -1.2740
39260SOL     OW22717   7.235   2.620   1.326  1.1643  0.1006  0.6427
39260SOL    HW122718   7.224   2.546   1.266  1.6749 -0.7773  1.6041
39260SOL    HW222719   7.260   2.693   1.270 -0.5504 -0.1092 -0.4980
39261SOL     OW22720   1.130   4.386   0.932 -0.0034 -0.5349  0.1800
39261SOL    HW122721   1.132   4.343   1.017 -2.0703  0.4856  0.8189
39261SOL    HW222722   1.184   4.465   0.943 -0.1599 -0.4721  0.5100
39262SOL     OW22723  11.126  11.150   5.808  0.3372  0.8194 -0.2023
39262SOL    HW122724  11.068  11.199   5.867 -1.0258  0.0445 -0.8281
39262SOL    HW222725  11.156  11.076   5.860 -1.9928 -0.6557 -0.7930
39263SOL     OW22726   9.944   9.503   3.147 -0.3817  0.5996  0.0949
39263SOL    HW122727   9.849   9.513   3.154 -0.3782  0.3832  0.4538
39263SOL    HW222728   9.966   9.433   3.208 -0.2419 -0.7437 -1.4414
39264SOL     OW22729   1.824   4.482  10.818 -0.7398 -0.1783 -0.2360
39264SOL    HW122730   1.737   4.521  10.806 -1.5521 -2.2037 -1.3059
39264SOL    HW222731   1.884   4.549  10.784 -2.0573  0.3512 -1.6747
39265SOL     OW22732   0.716   0.241   4.288 -0.4985  0.0556  0.8828
39265SOL    HW122733   0.678   0.301   4.352  0.1380  0.6020  0.7601
39265SOL    HW222734   0.797   0.284   4.259 -1.2470  0.3114 -1.0116
39266SOL     OW22735   9.045  11.580   1.674  0.0311 -0.3236 -0.5532
39266SOL    HW122736   9.119  11.526   1.647 -0.3122 -0.1627 -1.8887
39266SOL    HW222737   8.975  11.557   1.612 -0.5767  0.5796 -0.2157
39267SOL     OW22738   2.502   7.525   7.336 -0.0741  0.2709 -0.9479
39267SOL    HW122739   2.545   7.496   7.255 -0.4180 -1.5077 -0.5251
39267SOL    HW222740   2.549   7.480   7.406 -1.9104 -0.9320 -0.4045
39268SOL     OW22741   2.317   5.164   8.055 -0.2872  0.1240 -0.0560
39268SOL    HW122742   2.258   5.138   8.125  0.9790 -1.0206  0.6295
39268SOL    HW222743   2.298   5.103   7.983 -0.2726  0.0727 -0.0160
39269SOL     OW22744   4.291   0.048   7.766 -0.3181  0.6647  0.0263
39269SOL    HW122745   4.321   0.124   7.816  0.0002  1.2867 -1.0823
39269SOL    HW222746   4.213   0.018   7.814 -0.6531  1.8974  0.2971
39270SOL     OW22747   3.311   0.736   0.306 -0.5183  0.7890 -0.0854
39270SOL    HW122748   3.349   0.708   0.390  0.6511 -0.2997 -0.9355
39270SOL    HW222749   3.383   0.778   0.260 -1.5474  2.7611  0.0264
39271SOL     OW22750  10.675   4.427  10.796 -0.1975 -0.1032  0.1479
39271SOL    HW122751  10.628   4.405  10.715 -1.6022 -1.6299  1.3383
39271SOL    HW222752  10.693   4.343  10.838  1.1635  0.6246  1.1052
39272SOL     OW22753   6.403   1.744   1.082  0.0620  0.2544  0.3692
39272SOL    HW122754   6.320   1.698   1.089 -0.5051  1.1174 -0.4370
39272SOL    HW222755   6.396   1.794   1.001  1.3669  0.3480  0.2910
39273SOL     OW22756   5.985   8.456  10.556  0.1701 -0.6944 -0.1792
39273SOL    HW122757   6.033   8.405  10.621  2.4270  0.1214 -1.1200
39273SOL    HW222758   5.991   8.547  10.586 -0.1362 -0.4888 -0.7190
39274SOL     OW22759   8.571   5.099   7.398 -0.0455  0.1137 -0.0332
39274SOL    HW122760   8.547   5.007   7.403 -0.9784  0.3830  0.7645
39274SOL    HW222761   8.640   5.109   7.463  0.6228 -0.1705 -0.6778
39275SOL     OW22762   9.041   8.623  11.159  0.8852  0.1045 -0.0141
39275SOL    HW122763   9.069   8.704  11.201 -0.4079  0.4697  0.1797
39275SOL    HW222764   9.038   8.559  11.230  0.4139  0.2798  0.1268
39276SOL     OW22765   1.262  11.495   9.981  0.0478 -0.2305 -0.3792
39276SOL    HW122766   1.187  11.440  10.004 -1.9159  1.2008 -2.8170
39276SOL    HW222767   1.292  11.463   9.896  2.2751 -0.7428  0.5211
39277SOL     OW22768   7.590   8.879   8.018 -0.0504 -0.1729 -0.4272
39277SOL    HW122769   7.681   8.891   7.989 -0.0865  2.2222  0.2532
39277SOL    HW222770   7.538   8.926   7.953 -0.8905 -1.8810 -1.0472
39278SOL     OW22771   4.728   6.964   0.757  0.1176 -0.3810 -0.1952
39278SOL    HW122772   4.702   6.940   0.846 -0.4256 -1.2673 -0.5769
39278SOL    HW222773   4.646   6.986   0.713  0.5361  1.6095 -0.0564
39279SOL     OW22774   6.240   3.622  10.026 -0.1143  0.2328 -0.3806
39279SOL    HW122775   6.152   3.593  10.003 -0.0336  0.6698 -1.2750
39279SOL    HW222776   6.243   3.714  10.000  0.5644  0.2614 -0.2306
39280SOL     OW22777   5.992   4.325   1.960  0.1754 -0.1692  0.8228
39280SOL    HW122778   6.004   4.308   2.053  1.2620 -0.0830  0.7091
39280SOL    HW222779   6.030   4.411   1.946  0.2967 -0.3097  0.2449
39281SOL     OW22780   4.703  10.300   4.365 -0.1467  0.3867  0.4974
39281SOL    HW122781   4.653  10.373   4.328  0.4002  0.3933 -0.2552
39281SOL    HW222782   4.650  10.270   4.439 -1.6092 -0.0559 -0.6771
39282SOL     OW22783   7.089  10.807   6.282 -0.3878  0.0372 -0.2187
39282SOL    HW122784   7.110  10.857   6.361 -0.3698 -0.7171  0.2554
39282SOL    HW222785   7.147  10.731   6.285 -0.4411 -0.0404 -0.9231
39283SOL     OW22786   0.408   5.582   1.416 -0.2563  0.4179  0.1276
39283SOL    HW122787   0.338   5.636   1.379  0.6410  0.8434 -0.9850
39283SOL    HW222788   0.447   5.538   1.340  0.0253 -0.6143  0.8485
39284SOL     OW22789   9.337   8.022   2.932  0.2856  0.1630 -0.7395
39284SOL    HW122790   9.294   7.963   2.994  0.3424 -0.4258 -1.2525
39284SOL    HW222791   9.286   8.103   2.938 -0.7733 -0.4448 -1.1692
39285SOL     OW22792   6.969   2.762  10.381 -0.4514 -0.3292 -0.4588
39285SOL    HW122793   7.008   2.844  10.410 -1.2245  0.1055 -0.6166
39285SOL    HW222794   7.040   2.716  10.336 -0.1162  0.4168 -0.6980
39286SOL     OW22795   0.642  10.790   9.486 -0.4406 -0.8002 -0.1584
39286SOL    HW122796   0.646  10.718   9.423  0.4056  0.2022 -1.2960
39286SOL    HW222797   0.681  10.864   9.440 -2.7120  0.8409  0.4134
39287SOL     OW22798  11.558   3.574   8.641 -0.3244  0.2722  0.3177
39287SOL    HW122799  11.506   3.597   8.718  0.5054  0.0345  0.9616
39287SOL    HW222800  11.635   3.631   8.647  0.9425 -1.4190  1.0188
39288SOL     OW22801   4.486   6.930  10.085  0.5258  0.7297  0.2048
39288SOL    HW122802   4.560   6.940  10.145 -0.9669 -0.6493  2.3945
39288SOL    HW222803   4.444   7.016  10.084  0.4513  0.7189  1.3508
39289SOL     OW22804   7.877  11.591   1.600 -0.2653  0.4584 -0.7101
39289SOL    HW122805   7.941  11.560   1.537  0.4729  0.5547 -0.0238
39289SOL    HW222806   7.870  11.685   1.583  2.5436  1.2099  1.5364
39290SOL     OW22807   4.154   9.794   0.337 -0.0686 -0.0240  0.3018
39290SOL    HW122808   4.146   9.730   0.266 -0.4687  0.6153 -0.2385
39290SOL    HW222809   4.113   9.874   0.303  0.1602  0.4379  1.0751
39291SOL     OW22810   4.056  10.829  11.414  0.1438 -0.0528 -0.0991
39291SOL    HW122811   4.029  10.803  11.325  1.9391 -1.3470 -0.3203
39291SOL    HW222812   3.974  10.834  11.463 -0.8596  0.2790 -1.7184
39292SOL     OW22813   4.499  11.544   2.036 -0.1211 -0.2043  0.3172
39292SOL    HW122814   4.504  11.589   1.952 -1.0698 -0.5220  0.0678
39292SOL    HW222815   4.441  11.599   2.089 -1.1707 -1.0228  0.0576
39293SOL     OW22816   0.994   3.681   8.040  0.5975  0.5119 -0.2759
39293SOL    HW122817   1.090   3.686   8.037  0.6362  0.4250  0.5783
39293SOL    HW222818   0.967   3.768   8.070  0.6015 -0.3211  2.4684
39294SOL     OW22819   1.129   0.809   4.464  0.0346 -0.2248 -0.1634
39294SOL    HW122820   1.110   0.791   4.556 -0.3140 -4.2098 -0.8322
39294SOL    HW222821   1.221   0.834   4.463 -0.0978  0.4354  1.2949
39295SOL     OW22822  10.767  10.755   8.154  0.3235  0.4252  0.1147
39295SOL    HW122823  10.860  10.735   8.165  0.5276  2.2281  2.6111
39295SOL    HW222824  10.722  10.700   8.218  0.0103  1.6188  0.9559
39296SOL     OW22825   4.802  11.604   1.070 -0.5382 -0.1385 -0.5761
39296SOL    HW122826   4.732  11.618   1.006  1.2089  2.1002 -2.1698
39296SOL    HW222827   4.847  11.526   1.040 -0.8190 -0.1265 -1.0409
39297SOL     OW22828   7.751   3.287   6.878 -0.0672 -0.2603 -1.5101
39297SOL    HW122829   7.660   3.295   6.852  0.0183 -0.9225 -2.0315
39297SOL    HW222830   7.765   3.360   6.939 -1.4891 -1.2855  0.1393
39298SOL     OW22831   5.250  10.395  10.150 -0.8084 -0.0564 -0.7806
39298SOL    HW122832   5.273  10.486  10.166 -0.0009 -0.5129  0.8909
39298SOL    HW222833   5.280  10.378  10.060  1.6011  0.5827 -0.1751
39299SOL     OW22834   5.821   9.253   7.903 -0.2471  0.0119 -0.3566
39299SOL    HW122835   5.835   9.346   7.886 -2.1809  0.5279  0.5713
39299SOL    HW222836   5.839   9.242   7.996 -0.8272 -0.3418 -0.2754
39300SOL     OW22837   2.324  11.399   8.924 -0.3383 -0.4524 -0.1621
39300SOL    HW122838   2.388  11.456   8.965  1.3395 -2.3915  0.0943
39300SOL    HW222839   2.259  11.382   8.992 -1.2825  1.6101 -0.4546
39301SOL     OW22840   1.762  11.265   5.703  0.0743  0.4297 -0.2417
39301SOL    HW122841   1.697  11.199   5.724  1.2080 -0.6899 -0.1109
39301SOL    HW222842   1.803  11.287   5.787 -0.1893  1.1967 -0.3042
39302SOL     OW22843   6.476   1.878   7.504  0.1406  0.2816 -0.0590
39302SOL    HW122844   6.458   1.942   7.573 -2.0961 -0.6747  0.3321
39302SOL    HW222845   6.417   1.904   7.433 -0.3235 -0.9374 -0.1393
39303SOL     OW22846   2.762   3.805   0.069 -0.0054  0.3460 -0.5718
39303SOL    HW122847   2.786   3.715   0.091  1.2941  0.4717 -1.3244
39303SOL    HW222848   2.829   3.858   0.112 -0.9863  0.9909  0.1845
39304SOL     OW22849   4.326   8.716   1.921  0.3688 -0.0185 -0.0073
39304SOL    HW122850   4.269   8.726   1.997 -0.5554  0.0075 -0.6850
39304SOL    HW222851   4.334   8.805   1.885  1.3841  0.0911  0.4523
39305SOL     OW22852   4.450   4.598  11.250  0.0546 -0.8497  0.5024
39305SOL    HW122853   4.358   4.595  11.274 -0.3005  1.3887 -0.3494
39305SOL    HW222854   4.493   4.541  11.314 -1.2105  2.2676  4.5959
39306SOL     OW22855   6.943   5.599   0.248 -0.1245  0.0786 -0.2042
39306SOL    HW122856   6.874   5.661   0.270 -0.1602 -0.3690  1.0348
39306SOL    HW222857   7.023   5.641   0.280 -0.0567 -0.1840 -0.0253
39307SOL     OW22858   0.775   2.312   6.773  0.0239  0.2719  0.3470
39307SOL    HW122859   0.705   2.310   6.839 -0.0189 -1.0387  0.2858
39307SOL    HW222860   0.846   2.359   6.816 -0.8560  1.5823  0.4354
39308SOL     OW22861   0.889  10.841   5.646  0.0517  0.7817 -0.0239
39308SOL    HW122862   0.937  10.896   5.707 -0.1576 -0.7429  1.5917
39308SOL    HW222863   0.940  10.760   5.642 -2.1090 -0.7592  1.4828
39309SOL     OW22864   0.861   6.921   5.643  0.1047  0.8729 -0.2759
39309SOL    HW122865   0.931   6.936   5.707 -0.1149  1.7944 -0.2391
39309SOL    HW222866   0.851   7.005   5.598 -1.3484  0.9236  0.0871
39310SOL     OW22867   7.402   0.622  10.905  0.4010 -0.0864  0.1692
39310SOL    HW122868   7.341   0.692  10.883 -0.0396 -0.5539 -0.1495
39310SOL    HW222869   7.350   0.561  10.959  0.6563 -0.3635  0.1049
39311SOL     OW22870   8.758   0.373   2.049  0.3428 -0.2802  0.3217
39311SOL    HW122871   8.821   0.322   1.998  0.4582 -0.5113  0.6885
39311SOL    HW222872   8.776   0.464   2.024 -0.6447 -0.4793 -1.2098
39312SOL     OW22873   9.509   1.258  11.209 -0.6441  0.0674 -0.4720
39312SOL    HW122874   9.486   1.302  11.127 -1.6644  1.2823  0.4093
39312SOL    HW222875   9.445   1.187  11.217  0.6722 -1.3189 -1.6373
39313SOL     OW22876   1.356   4.665   1.183 -0.9294  1.1324 -0.1934
39313SOL    HW122877   1.284   4.635   1.239  1.2889  0.0823  2.3385
39313SOL    HW222878   1.374   4.754   1.213 -0.4589  0.9771 -0.0026
39314SOL     OW22879   2.777   3.535   0.135 -0.2493  0.1109  0.1230
39314SOL    HW122880   2.863   3.502   0.111  0.7608  2.0150  0.8613
39314SOL    HW222881   2.716   3.486   0.081  1.2989 -1.2338 -0.4748
39315SOL     OW22882   2.310   9.601   9.694 -0.2141  0.2654 -0.1461
39315SOL    HW122883   2.229   9.619   9.741 -0.0720 -0.1904  0.2869
39315SOL    HW222884   2.372   9.666   9.727 -0.5513  0.9746 -0.8916
39316SOL     OW22885   9.951   4.442  10.260  0.0730  0.0791  0.2498
39316SOL    HW122886   9.872   4.389  10.264 -0.1049  0.0542 -2.1656
39316SOL    HW222887   9.920   4.533  10.259  0.0071  0.0657 -0.9306
39317SOL     OW22888   3.329   6.734   8.824 -0.0935 -0.6662 -0.0745
39317SOL    HW122889   3.290   6.689   8.899  0.4849  0.7089  1.0854
39317SOL    HW222890   3.386   6.801   8.863  0.8447 -0.4458 -1.7361
39318SOL     OW22891   5.373   8.795   7.762  0.4373  0.5694  0.0435
39318SOL    HW122892   5.469   8.791   7.767  0.3661  0.1074  1.1376
39318SOL    HW222893   5.348   8.855   7.832 -0.1805 -0.8675  1.0973
39319SOL     OW22894   3.364   2.739   8.897  0.0340  0.7944  0.5119
39319SOL    HW122895   3.269   2.731   8.899 -0.0927  0.2219 -2.5272
39319SOL    HW222896   3.395   2.649   8.886  0.6453  1.2175 -1.8457
39320SOL     OW22897   8.378   0.222   1.090 -0.3731 -0.0949  0.1772
39320SOL    HW122898   8.421   0.238   1.006  2.1221  0.9988  1.5445
39320SOL    HW222899   8.340   0.307   1.113 -0.0079 -0.0635  0.6799
39321SOL     OW22900   3.040   0.249   2.330  0.2564 -0.0283  0.1148
39321SOL    HW122901   2.986   0.237   2.252  0.2812 -0.1285  0.1131
39321SOL    HW222902   3.126   0.275   2.296 -0.1734  1.5823  0.1610
39322SOL     OW22903   7.696   6.495   4.920  0.4241 -0.3162 -0.5567
39322SOL    HW122904   7.733   6.508   4.833  0.1176  0.3204 -0.5947
39322SOL    HW222905   7.602   6.505   4.907  0.2820 -1.2305 -0.3325
39323SOL     OW22906  10.221   3.434   9.516 -0.3795 -0.1927 -0.2484
39323SOL    HW122907  10.179   3.491   9.451 -0.8539 -0.5604 -0.2690
39323SOL    HW222908  10.149   3.385   9.554 -0.0075 -0.5377  0.0103
39324SOL     OW22909   4.424   9.469  10.335  0.2974 -0.0515 -0.3097
39324SOL    HW122910   4.423   9.410  10.259  1.4085 -1.3570  0.6614
39324SOL    HW222911   4.513   9.504  10.337  0.0157  0.6751 -0.1015
39325SOL     OW22912   7.996   2.214   4.881  0.4566 -0.5308 -0.0142
39325SOL    HW122913   7.933   2.287   4.876 -0.3148 -0.7317  3.6110
39325SOL    HW222914   8.080   2.254   4.862  0.1489  1.6537  2.5012
39326SOL     OW22915   0.108   5.773   4.132 -0.2756  0.0137 -0.1050
39326SOL    HW122916   0.141   5.820   4.209 -0.0351  0.7220 -0.6297
39326SOL    HW222917   0.127   5.831   4.058  1.2998 -1.5017 -0.9640
39327SOL     OW22918   3.725   5.149   7.589 -0.1148 -0.1807 -0.6566
39327SOL    HW122919   3.696   5.149   7.680 -0.9520 -0.2522 -0.9158
39327SOL    HW222920   3.778   5.069   7.581  0.6041  0.2212 -0.0453
39328SOL     OW22921  10.304   1.640  10.695  0.7980  0.4559 -0.6330
39328SOL    HW122922  10.212   1.668  10.688  0.5185 -0.3375 -0.2790
39328SOL    HW222923  10.299   1.552  10.734  1.7546  0.6976  0.0520
39329SOL     OW22924   1.303   7.053   7.595  0.4651 -0.2488  0.2270
39329SOL    HW122925   1.351   7.136   7.593  0.1847 -0.0713  0.7277
39329SOL    HW222926   1.216   7.076   7.563  0.0976 -0.1512  1.2536
39330SOL     OW22927   0.222   8.083   9.570  0.3904 -0.0801  0.1342
39330SOL    HW122928   0.235   8.145   9.642 -0.1318  0.5431 -0.2915
39330SOL    HW222929   0.171   8.132   9.505 -1.3077 -1.4275  0.3878
39331SOL     OW22930   8.874   6.915   6.165  0.2111 -0.7504 -0.4489
39331SOL    HW122931   8.864   7.008   6.141  0.9054 -0.1881  1.2863
39331SOL    HW222932   8.785   6.883   6.173 -0.0405 -0.4356 -1.7622
39332SOL     OW22933   0.087   8.103   0.070  0.1171  0.1948  0.7857
39332SOL    HW122934   0.081   8.155  -0.010  0.0706 -0.3094  0.4575
39332SOL    HW222935   0.095   8.013   0.040  1.2126  0.0880  1.3298
39333SOL     OW22936   3.798   8.959   9.558  0.2640  0.1040 -0.0851
39333SOL    HW122937   3.716   8.973   9.510  0.5719 -0.2916 -0.7405
39333SOL    HW222938   3.807   9.037   9.614 -1.6170 -0.7671  1.5781
39334SOL     OW22939   2.610   2.953  10.285 -0.2130  0.1377 -0.4946
39334SOL    HW122940   2.678   2.972  10.220 -0.2421  0.7558 -0.3556
39334SOL    HW222941   2.653   2.899  10.351  0.6284  1.8872  0.4609
39335SOL     OW22942   9.401   6.414   1.627  0.3205  0.1724  0.4364
39335SOL    HW122943   9.383   6.346   1.692  0.1521 -1.0441 -0.8395
39335SOL    HW222944   9.324   6.415   1.571 -0.4796  2.6798  1.4096
39336SOL     OW22945   7.737   7.039   8.864  0.1933 -0.5380  0.5271
39336SOL    HW122946   7.706   6.953   8.892  0.2776 -1.1119 -1.0633
39336SOL    HW222947   7.811   7.057   8.922 -0.1159 -1.3179  1.1865
39337SOL     OW22948  11.189   0.295   0.986  0.1583  0.9401  0.2702
39337SOL    HW122949  11.115   0.346   0.953 -0.2294  0.4639  0.3936
39337SOL    HW222950  11.183   0.303   1.081  1.3938  2.4828  0.2741
39338SOL     OW22951   0.918   8.612   9.697  0.4760 -0.4202  0.1170
39338SOL    HW122952   0.927   8.595   9.791 -2.9749  0.4944  0.7407
39338SOL    HW222953   0.992   8.566   9.658  2.0211 -0.8902  3.2408
39339SOL     OW22954   6.947   8.961   6.725 -0.4376  0.2549  0.4062
39339SOL    HW122955   6.884   8.913   6.671 -0.9103  2.6140 -1.3137
39339SOL    HW222956   6.907   8.964   6.812 -2.1489  0.6280 -0.3433
39340SOL     OW22957   0.905   4.871  11.020  0.1706  0.2356 -0.2094
39340SOL    HW122958   0.828   4.819  11.044  1.2987 -1.5393 -0.2606
39340SOL    HW222959   0.885   4.959  11.051 -0.7125 -0.7860  2.4152
39341SOL     OW22960   7.495   0.269   8.922 -0.0046 -0.7681  0.3535
39341SOL    HW122961   7.415   0.307   8.885  0.7321 -2.6067 -3.7150
39341SOL    HW222962   7.480   0.268   9.016 -3.5831  1.4561 -0.0032
39342SOL     OW22963   6.709   8.574   3.090 -0.0816  0.2144 -0.3317
39342SOL    HW122964   6.694   8.530   3.006  0.0697  0.9411 -0.7488
39342SOL    HW222965   6.629   8.557   3.140  0.3379 -1.2974 -0.1277
39343SOL     OW22966   2.245   6.499  11.271 -0.7850 -0.7432 -0.0579
39343SOL    HW122967   2.181   6.519  11.339  0.9071 -1.6715  1.9178
39343SOL    HW222968   2.324   6.546  11.298  1.1146 -4.1620  0.8864
39344SOL     OW22969   6.460   8.420   0.978  1.1072  0.3325  0.0199
39344SOL    HW122970   6.497   8.507   0.968 -0.8010  1.1801 -0.2435
39344SOL    HW222971   6.505   8.367   0.913 -0.7486  2.2426 -3.1065
39345SOL     OW22972   5.743  10.781   0.877 -0.1353 -0.5965 -0.1720
39345SOL    HW122973   5.777  10.848   0.935 -2.2398  1.2780 -0.9470
39345SOL    HW222974   5.700  10.829   0.806  1.0171 -2.7794 -2.5207
39346SOL     OW22975   2.362   3.389  11.121 -0.7625 -0.1624  0.3550
39346SOL    HW122976   2.295   3.320  11.122  1.2007 -2.2145  2.3112
39346SOL    HW222977   2.431   3.354  11.065 -0.5609  1.1835 -0.2771
39347SOL     OW22978   2.066  10.389   2.443  0.2416 -0.1132 -0.1062
39347SOL    HW122979   1.987  10.335   2.455  0.3660 -0.4276 -0.6968
39347SOL    HW222980   2.038  10.459   2.384 -0.0388  0.7383  1.0014
39348SOL     OW22981   0.374  10.555   9.364 -0.1660  0.2198 -0.1927
39348SOL    HW122982   0.314  10.617   9.406  1.5896  0.3323  2.3955
39348SOL    HW222983   0.448  10.549   9.424  1.4294 -1.5851 -2.1783
39349SOL     OW22984   3.447  10.246   4.834 -0.0848  0.3099 -0.5737
39349SOL    HW122985   3.358  10.279   4.823 -0.1907 -0.0771 -0.8958
39349SOL    HW222986   3.500  10.323   4.855 -0.2895  0.7087 -1.5102
39350SOL     OW22987   2.412   9.284   2.865  0.4137  0.0102  0.3196
39350SOL    HW122988   2.349   9.244   2.924 -1.2162  1.7930 -0.0987
39350SOL    HW222989   2.494   9.236   2.880  0.0771  0.3341  3.9927
39351SOL     OW22990   2.887   9.397   5.561  0.1185  0.0871 -0.1512
39351SOL    HW122991   2.956   9.442   5.610  0.7014 -1.2364  0.2787
39351SOL    HW222992   2.879   9.447   5.479  1.1494  0.6070  0.0517
39352SOL     OW22993   5.927   6.393   3.530  0.2572  0.0520 -0.0763
39352SOL    HW122994   5.980   6.315   3.547 -0.3204 -0.3230  0.0355
39352SOL    HW222995   5.898   6.422   3.617  1.3764  1.0554 -0.0083
39353SOL     OW22996  11.146   8.217  10.266 -0.1321 -0.2191 -0.2255
39353SOL    HW122997  11.133   8.301  10.310  0.1000 -0.7764  0.9391
39353SOL    HW222998  11.085   8.158  10.309  0.2010 -0.8155 -0.5660
39354SOL     OW22999   2.876   7.274  11.653  0.1432  0.1010 -0.3253
39354SOL    HW123000   2.849   7.347  11.597  2.3249 -0.6283 -2.5184
39354SOL    HW223001   2.849   7.195  11.604 -1.0705 -0.6180  1.4060
39355SOL     OW23002   8.155   4.721   0.920  0.3298 -0.5175  0.2021
39355SOL    HW123003   8.133   4.786   0.853 -0.5273 -0.7174  0.2815
39355SOL    HW223004   8.074   4.672   0.934  0.5939 -0.7149  1.1283
39356SOL     OW23005   4.985   9.832   1.896 -0.0359  0.3918  0.0372
39356SOL    HW123006   4.966   9.738   1.901 -2.0847  0.7843  0.9133
39356SOL    HW223007   4.993   9.850   1.803 -1.5250 -0.3647 -0.2845
39357SOL     OW23008   5.775  11.029   5.099  0.2345 -0.5877  0.1482
39357SOL    HW123009   5.731  11.056   5.179 -0.9244 -0.2333 -0.5898
39357SOL    HW223010   5.797  10.937   5.114 -0.2748 -0.6185  0.7382
39358SOL     OW23011   2.063   6.647   9.957  0.4483 -0.7609  0.0441
39358SOL    HW123012   2.110   6.576   9.913 -0.3048 -2.4539  1.7822
39358SOL    HW223013   2.056   6.617  10.048 -1.6488  0.6277  0.4144
39359SOL     OW23014   0.731   5.883   5.093  0.2149 -0.4752  0.2909
39359SOL    HW123015   0.703   5.975   5.088  2.5898  0.3040  0.2529
39359SOL    HW223016   0.745   5.868   5.187 -0.2995 -0.8677  0.3104
39360SOL     OW23017   6.348   8.267  10.232 -0.3840 -0.9160 -0.5408
39360SOL    HW123018   6.265   8.228  10.259 -0.6872  0.3498  0.4442
39360SOL    HW223019   6.385   8.303  10.312 -0.1832  0.8713 -1.3907
39361SOL     OW23020   7.702   8.790   1.226 -0.1195 -0.4049 -0.3679
39361SOL    HW123021   7.701   8.710   1.278 -0.8545 -1.0452 -1.3466
39361SOL    HW223022   7.611   8.801   1.196 -0.6052  2.0341  1.5901
39362SOL     OW23023  10.757   0.696   1.461 -0.0196 -0.3632 -0.1642
39362SOL    HW123024  10.788   0.688   1.551  0.3584 -1.5384 -0.3888
39362SOL    HW223025  10.797   0.777   1.428  2.1107 -1.3758 -0.1646
39363SOL     OW23026   3.760   1.395   3.967 -0.4255  0.2969 -0.0490
39363SOL    HW123027   3.829   1.330   3.958 -0.1545  0.6958 -1.0359
39363SOL    HW223028   3.688   1.360   3.914  0.3360  1.5758 -2.0401
39364SOL     OW23029   5.983   1.053  10.400 -0.5175 -0.0941 -0.0204
39364SOL    HW123030   5.959   1.040  10.492  0.2745  2.0479  0.5579
39364SOL    HW223031   6.032   0.974  10.376  3.2991  1.0974  2.8620
39365SOL     OW23032   9.317   3.551   2.749 -0.4224 -0.1610 -0.1398
39365SOL    HW123033   9.368   3.565   2.669 -0.0036 -1.2217 -0.0776
39365SOL    HW223034   9.284   3.462   2.741  0.0550 -0.4791  1.0901
39366SOL     OW23035  10.654  10.436   8.114 -0.1520 -0.0297  0.2634
39366SOL    HW123036  10.642  10.343   8.134 -0.3763 -0.1595 -0.4514
39366SOL    HW223037  10.646  10.480   8.198 -0.2260 -0.6400  0.5801
39367SOL     OW23038   8.353   8.555   6.010 -0.5815  0.0330 -0.7625
39367SOL    HW123039   8.398   8.637   6.034  2.4148 -1.2115 -1.5915
39367SOL    HW223040   8.365   8.549   5.915  2.6571 -3.0325 -0.3456
39368SOL     OW23041   6.216  10.387   4.494  0.1243  0.1672 -0.2723
39368SOL    HW123042   6.304  10.390   4.458 -0.5061 -0.4480 -1.9617
39368SOL    HW223043   6.225  10.343   4.578  1.2532 -1.0306 -1.0005
39369SOL     OW23044   9.815   9.212   8.286 -0.6344  0.0926  0.6127
39369SOL    HW123045   9.766   9.208   8.367 -0.5397  1.2538  0.7509
39369SOL    HW223046   9.765   9.160   8.224 -1.2320  0.0140  1.1554
39370SOL     OW23047   8.120   6.585   3.746 -0.3767 -0.2579  0.0315
39370SOL    HW123048   8.131   6.559   3.655  0.9598 -1.2472  0.4429
39370SOL    HW223049   8.108   6.680   3.744  1.8847  0.0517 -1.0245
39371SOL     OW23050   7.810   6.128   4.186  0.1849  0.0571 -0.1153
39371SOL    HW123051   7.738   6.191   4.188  0.8744  0.8771  2.3000
39371SOL    HW223052   7.776   6.051   4.232 -0.0493 -0.6635 -1.4566
39372SOL     OW23053   2.269   8.242  10.528 -0.3600 -0.2222  0.2063
39372SOL    HW123054   2.220   8.241  10.446 -1.3036 -0.7151  0.7648
39372SOL    HW223055   2.310   8.328  10.531 -0.8982  0.0600 -0.4436
39373SOL     OW23056   8.665  10.378   4.273 -0.1780 -0.2864 -0.3819
39373SOL    HW123057   8.737  10.318   4.292 -0.5450 -0.4057  0.6720
39373SOL    HW223058   8.630  10.402   4.359 -1.2032  0.0104 -0.8703
39374SOL     OW23059   7.667   5.603   0.344  0.4908  0.3510 -0.3199
39374SOL    HW123060   7.745   5.654   0.365 -0.3062  1.5431 -0.1760
39374SOL    HW223061   7.605   5.667   0.310 -0.4492 -0.5701 -0.3826
39375SOL     OW23062   7.567   1.033   6.010  0.1405  0.5705  0.0459
39375SOL    HW123063   7.504   1.027   6.081  1.4927 -0.6120  1.2139
39375SOL    HW223064   7.538   0.969   5.946  0.8370 -0.9659  1.1969
39376SOL     OW23065   3.966   4.734   8.916 -0.0329 -0.1889  0.1277
39376SOL    HW123066   4.048   4.686   8.902 -0.1419 -0.1092 -0.8661
39376SOL    HW223067   3.986   4.796   8.986  0.6253 -0.4672  0.1979
39377SOL     OW23068   8.965   0.465   6.753  0.2666  0.1403 -0.0927
39377SOL    HW123069   8.881   0.508   6.737  1.0913  1.8417 -0.0898
39377SOL    HW223070   8.995   0.438   6.666 -1.6360 -3.3397  0.1562
39378SOL     OW23071   4.820   9.314   2.060 -0.0207  0.0868  0.6815
39378SOL    HW123072   4.859   9.243   2.009  2.1791  1.2848  0.5974
39378SOL    HW223073   4.745   9.343   2.008 -0.4668 -1.5881  0.3295
39379SOL     OW23074   6.504   9.507   9.441  0.2352  0.1839  0.0037
39379SOL    HW123075   6.596   9.514   9.465  0.5549 -1.2654 -0.6923
39379SOL    HW223076   6.490   9.414   9.424 -1.4893  0.2946  0.5639
39380SOL     OW23077   5.808   7.676   1.510 -0.2703 -0.0498  0.0618
39380SOL    HW123078   5.766   7.761   1.519 -0.6119 -0.2581  0.4717
39380SOL    HW223079   5.901   7.697   1.494 -0.0041  0.4039  1.9711
39381SOL     OW23080   4.217   8.607  10.068 -0.2079 -0.1093  1.2346
39381SOL    HW123081   4.161   8.549  10.119 -0.7694 -0.2026  0.5278
39381SOL    HW223082   4.224   8.686  10.121 -1.1048 -0.0551  1.2967
39382SOL     OW23083   6.657   8.452   4.074  0.5120  0.3349  0.0937
39382SOL    HW123084   6.702   8.391   4.016 -2.1908 -0.6175 -1.1464
39382SOL    HW223085   6.639   8.401   4.153 -0.0042  0.1336 -0.1514
39383SOL     OW23086   4.610   1.667   6.394 -0.7411 -0.4095 -0.0545
39383SOL    HW123087   4.659   1.673   6.312 -0.5540 -1.5062 -0.0269
39383SOL    HW223088   4.529   1.714   6.377 -0.5030 -0.2379 -0.7194
39384SOL     OW23089  10.371   8.064   6.967 -0.0733  0.2867 -0.0363
39384SOL    HW123090  10.294   8.075   7.022 -0.7793 -0.8305 -0.7627
39384SOL    HW223091  10.336   8.046   6.880  1.0008 -0.5843 -0.3158
39385SOL     OW23092   2.187   8.620   8.078  0.2451 -0.0797 -0.2758
39385SOL    HW123093   2.167   8.690   8.016  0.7337 -0.4302 -0.8469
39385SOL    HW223094   2.103   8.600   8.120  0.3491  1.7851  0.9269
39386SOL     OW23095  11.282   8.764   4.969 -0.0972 -0.4857 -0.2633
39386SOL    HW123096  11.368   8.721   4.963  0.5813  0.6322  0.9147
39386SOL    HW223097  11.276   8.815   4.889  0.8921  0.3693  0.1888
39387SOL     OW23098   9.607   1.459   2.442 -0.3096  0.0294  0.1307
39387SOL    HW123099   9.637   1.422   2.359 -1.6309  0.0476 -0.3913
39387SOL    HW223100   9.561   1.539   2.416 -1.3390 -0.3275  0.7988
39388SOL     OW23101   7.152   4.671   4.643  0.2584 -0.1042  0.3160
39388SOL    HW123102   7.173   4.595   4.588 -0.1598  0.0139 -0.0101
39388SOL    HW223103   7.058   4.664   4.659 -0.0949  1.1890 -1.0212
39389SOL     OW23104   3.788   9.958   2.364 -0.3306 -0.2191  0.6342
39389SOL    HW123105   3.860   9.896   2.376  1.8349  1.8951 -0.3390
39389SOL    HW223106   3.772   9.994   2.451  0.2487 -0.2739  0.7679
39390SOL     OW23107   8.190  10.786  11.249 -0.1478 -0.3196  0.5074
39390SOL    HW123108   8.188  10.823  11.161  1.3267  0.6619  0.8518
39390SOL    HW223109   8.187  10.691  11.235 -0.7321 -0.1574 -0.5501
39391SOL     OW23110   5.562   3.944   2.731  0.6205  0.0364  0.2521
39391SOL    HW123111   5.578   4.031   2.766 -1.2251  0.1556  0.9240
39391SOL    HW223112   5.467   3.940   2.720  0.6154 -2.0454  0.6766
39392SOL     OW23113   3.143   0.045   3.478  0.0068 -0.0308  0.5025
39392SOL    HW123114   3.094   0.058   3.560  2.1422 -1.5470  2.1255
39392SOL    HW223115   3.202   0.119   3.474 -0.3547  0.2379  0.1251
39393SOL     OW23116   1.746   7.276   8.415  0.7117 -0.2346  0.2828
39393SOL    HW123117   1.837   7.305   8.414  0.5746  0.3287  1.6013
39393SOL    HW223118   1.714   7.301   8.502 -1.2659  1.2653 -0.7958
39394SOL     OW23119  10.633   7.670   0.907  0.0528  0.2450  0.3077
39394SOL    HW123120  10.655   7.742   0.966 -2.4421  1.1697  0.2407
39394SOL    HW223121  10.657   7.702   0.820 -0.5877  0.8280  0.3352
39395SOL     OW23122   1.801   1.857   8.748  0.1715  0.4449 -0.7537
39395SOL    HW123123   1.823   1.843   8.840 -0.0999 -1.0374 -0.8959
39395SOL    HW223124   1.777   1.949   8.743 -2.9247 -0.1096  1.3318
39396SOL     OW23125   0.927   4.439   4.935  0.2164 -0.0375  0.0849
39396SOL    HW123126   0.835   4.418   4.944 -0.0405  0.5535 -0.9117
39396SOL    HW223127   0.936   4.466   4.843  1.1582  0.9438  0.4468
39397SOL     OW23128   7.886   6.697   3.468 -0.3288 -0.1234  0.1903
39397SOL    HW123129   7.967   6.651   3.491 -0.3845 -0.8418 -0.9706
39397SOL    HW223130   7.883   6.694   3.373 -0.8044  1.5220  0.1277
39398SOL     OW23131   2.790   4.343   6.848  0.5034 -0.9012  0.1711
39398SOL    HW123132   2.729   4.349   6.774 -0.1538  0.3308  0.7603
39398SOL    HW223133   2.876   4.358   6.810  0.0040  1.7014 -0.1553
39399SOL     OW23134   7.824   7.846   4.727 -0.4078 -0.1128  0.6175
39399SOL    HW123135   7.819   7.817   4.818 -0.9434  0.1132  0.6657
39399SOL    HW223136   7.788   7.935   4.728  0.3586  0.2205  0.3233
39400SOL     OW23137   4.284   4.256  10.563 -0.0579  0.1217 -0.0177
39400SOL    HW123138   4.225   4.223  10.631 -0.0371 -0.2055 -0.1543
39400SOL    HW223139   4.239   4.235  10.481 -0.3313  0.9815 -0.1026
39401SOL     OW23140   3.490  11.159   0.512 -0.4747 -0.2451  0.3748
39401SOL    HW123141   3.490  11.069   0.543  1.0458 -0.2197  0.4880
39401SOL    HW223142   3.428  11.204   0.570 -1.1610 -1.1681  0.3883
39402SOL     OW23143   2.117   4.629   0.766  0.1643  0.2153 -0.1286
39402SOL    HW123144   2.112   4.570   0.691 -0.5655  0.3159 -0.1679
39402SOL    HW223145   2.050   4.597   0.826 -1.1954  1.7528 -0.7186
39403SOL     OW23146   7.315   2.755   2.527  0.4919  0.2062  0.2869
39403SOL    HW123147   7.270   2.674   2.549  1.7824 -0.3207  1.1304
39403SOL    HW223148   7.357   2.737   2.443  0.8075 -0.0254  0.4912
39404SOL     OW23149   7.366   7.199   7.233 -0.6342  0.3733  0.1141
39404SOL    HW123150   7.455   7.173   7.256 -0.6942 -0.1028 -0.1793
39404SOL    HW223151   7.317   7.117   7.232 -0.9842  0.5857 -0.1332
39405SOL     OW23152   9.476   2.237   6.366  0.3661  0.2340  0.5255
39405SOL    HW123153   9.550   2.187   6.332 -0.5882 -0.1543 -1.0768
39405SOL    HW223154   9.423   2.172   6.414  0.4722  0.2621  0.6798
39406SOL     OW23155   7.103  10.410  10.613  0.3748 -0.4561  0.3285
39406SOL    HW123156   7.034  10.450  10.560  0.2493 -1.1867 -0.0606
39406SOL    HW223157   7.093  10.316  10.599  0.4848 -0.6536  1.4733
39407SOL     OW23158   8.534   9.461   6.331 -0.0147 -0.2634  0.6126
39407SOL    HW123159   8.526   9.380   6.280  0.2561  0.9034 -1.3988
39407SOL    HW223160   8.453   9.509   6.311  0.5069  0.6057  0.5388
39408SOL     OW23161   7.855   9.471   6.048  0.0822  0.1225  0.3339
39408SOL    HW123162   7.896   9.395   6.088 -1.3540 -0.2555  1.1493
39408SOL    HW223163   7.780   9.436   6.000 -0.0533  0.9214 -0.0599
39409SOL     OW23164   7.026   9.421   1.168 -0.3391 -0.1815 -0.4209
39409SOL    HW123165   6.934   9.436   1.191  0.0032  1.9550 -0.1434
39409SOL    HW223166   7.073   9.430   1.252  0.2511  0.4847 -0.8040
39410SOL     OW23167   9.240   3.726   4.648 -0.1902  0.0222  0.3090
39410SOL    HW123168   9.151   3.715   4.614 -0.7761  1.8245  1.1159
39410SOL    HW223169   9.230   3.788   4.720  1.7324  0.2279  0.4440
39411SOL     OW23170   9.263   5.653   3.313  0.3058  0.1998  0.5241
39411SOL    HW123171   9.277   5.748   3.314 -0.6357  0.4388 -2.0466
39411SOL    HW223172   9.351   5.616   3.305  0.7875  0.7215  2.6208
39412SOL     OW23173   8.997   4.663   4.335 -0.1077 -0.5483  0.2289
39412SOL    HW123174   9.071   4.611   4.303  0.2097  0.1902 -0.2414
39412SOL    HW223175   8.920   4.622   4.297  0.1541 -0.5849 -0.2617
39413SOL     OW23176   4.091  11.691   3.821  0.1415  1.0817  0.1459
39413SOL    HW123177   4.031  11.677   3.894  0.3044 -0.3679  0.0304
39413SOL    HW223178   4.146  11.764   3.850 -0.6031  1.3556  0.9347
39414SOL     OW23179  10.980  10.289   5.412 -0.0075 -0.3824  0.4082
39414SOL    HW123180  10.885  10.285   5.402 -0.1946 -1.2027  2.1236
39414SOL    HW223181  11.013  10.216   5.359 -0.2119  0.4762 -0.9653
39415SOL     OW23182   0.535   7.130  10.423 -0.6464  0.2151  0.3779
39415SOL    HW123183   0.496   7.169  10.346  1.0938  0.8412 -0.2316
39415SOL    HW223184   0.554   7.040  10.398  0.1610  0.4924 -0.0437
39416SOL     OW23185   2.546   6.673   1.466  0.3228  0.4832  0.0780
39416SOL    HW123186   2.526   6.701   1.376  0.5601 -1.3590 -0.5873
39416SOL    HW223187   2.641   6.672   1.470  0.3128  0.3522  0.2819
39417SOL     OW23188  10.511  11.113   5.838 -0.1807  0.2211  0.8318
39417SOL    HW123189  10.604  11.119   5.816 -0.0023  0.1949  1.5711
39417SOL    HW223190  10.467  11.114   5.753  0.5234 -0.3737  0.4493
39418SOL     OW23191   1.449   4.917   6.197 -0.5436 -0.5128  0.3016
39418SOL    HW123192   1.451   5.013   6.202  1.0616 -0.5664  2.2596
39418SOL    HW223193   1.458   4.898   6.104 -1.5562  1.2205 -0.2099
39419SOL     OW23194   3.737   0.341   9.477  0.1166 -0.7447  0.4242
39419SOL    HW123195   3.754   0.390   9.558  1.5447 -0.4265 -0.0279
39419SOL    HW223196   3.805   0.372   9.417 -0.0267 -2.0475 -0.4293
39420SOL     OW23197   8.214  10.175   6.436 -0.2777  0.1184  0.1324
39420SOL    HW123198   8.213  10.198   6.343  1.8437 -1.0714 -0.2620
39420SOL    HW223199   8.284  10.109   6.443 -0.9740 -0.4611  2.4279
39421SOL     OW23200   7.184   3.064   1.350 -0.1048  0.5946 -0.4125
39421SOL    HW123201   7.210   3.127   1.418  1.2847  0.8744 -1.1471
39421SOL    HW223202   7.090   3.054   1.361  0.1838 -0.0546  2.1140
39422SOL     OW23203   8.204   9.442   8.399 -0.1280 -0.3184 -0.0061
39422SOL    HW123204   8.220   9.377   8.331  0.2673 -1.3372  1.0407
39422SOL    HW223205   8.243   9.405   8.478 -2.2941 -0.1143  1.2528
39423SOL     OW23206   0.178   7.645   2.809  0.0557 -0.2318  0.5942
39423SOL    HW123207   0.216   7.694   2.882  1.6794 -0.6028  0.0538
39423SOL    HW223208   0.244   7.650   2.740 -1.4846  0.2003 -0.9094
39424SOL     OW23209   8.031   2.721   1.452 -0.0259  0.4408 -0.2542
39424SOL    HW123210   8.101   2.786   1.456  0.3171  0.0397  0.6189
39424SOL    HW223211   7.951   2.771   1.467  0.2446  0.6671  0.4961
39425SOL     OW23212   3.150   2.185   8.740  0.3179 -0.1351  0.0035
39425SOL    HW123213   3.099   2.115   8.779  0.1631  1.0739  2.1392
39425SOL    HW223214   3.196   2.144   8.666  0.3761 -2.4945  1.2639
39426SOL     OW23215  11.254   4.725   0.655 -0.0810  0.4083  0.0267
39426SOL    HW123216  11.248   4.792   0.724 -0.5277  0.0420  0.3514
39426SOL    HW223217  11.348   4.708   0.647 -0.0461  0.2077  0.7917
39427SOL     OW23218   2.792   0.608  10.473 -0.1932 -0.5237  0.3278
39427SOL    HW123219   2.819   0.620  10.564 -0.8161  0.6095  0.3916
39427SOL    HW223220   2.874   0.593  10.425  0.6454  2.5608  0.5470
39428SOL     OW23221   6.224   4.451   3.273 -0.3762  0.0105 -0.5137
39428SOL    HW123222   6.272   4.401   3.339 -0.1573 -0.0663 -0.7291
39428SOL    HW223223   6.257   4.540   3.281 -0.5385  0.0572 -0.3445
39429SOL     OW23224  10.300   9.853   9.032 -0.0286  0.5138 -0.0167
39429SOL    HW123225  10.351   9.915   8.980  0.6706  1.3526  1.5710
39429SOL    HW223226  10.323   9.767   8.999 -1.2579  1.0516 -2.4974
39430SOL     OW23227   5.393   0.259   5.028  0.0696 -0.4955 -0.9887
39430SOL    HW123228   5.312   0.241   5.076 -0.0002 -2.1632 -1.6753
39430SOL    HW223229   5.364   0.307   4.950  0.0060  0.7519 -0.2304
39431SOL     OW23230   4.782  10.918   7.272  0.0740 -0.1592 -0.2584
39431SOL    HW123231   4.853  10.857   7.254  0.4848  0.5490 -1.1282
39431SOL    HW223232   4.745  10.889   7.355  0.2492 -1.5915 -0.6554
39432SOL     OW23233   2.345   6.033   3.339  0.2550  0.0676  0.2546
39432SOL    HW123234   2.327   6.110   3.393 -0.6409  1.1508 -1.5255
39432SOL    HW223235   2.262   5.986   3.336  0.5836 -0.5532  0.6565
39433SOL     OW23236   0.737   5.974   4.479  0.3166  0.1086 -0.1342
39433SOL    HW123237   0.822   5.951   4.518  0.4442  0.5310 -0.1541
39433SOL    HW223238   0.682   5.898   4.495  0.7019 -0.1734 -0.1231
39434SOL     OW23239   8.903   1.227   1.687 -0.0416 -0.1328  0.3168
39434SOL    HW123240   8.966   1.168   1.730  1.2781  0.0327 -1.2663
39434SOL    HW223241   8.860   1.172   1.622  0.4300  0.3765 -0.4416
39435SOL     OW23242   8.605   1.279  10.350  0.2565 -0.2467 -0.0488
39435SOL    HW123243   8.512   1.296  10.332  0.2915  0.9458  0.7583
39435SOL    HW223244   8.624   1.198  10.303 -1.8596 -1.9941  1.8895
39436SOL     OW23245   3.832   4.314   0.710 -0.1226  0.3675  0.1719
39436SOL    HW123246   3.783   4.310   0.628  1.8480  0.2791 -1.0743
39436SOL    HW223247   3.879   4.231   0.714  1.4735  1.2317  0.2465
39437SOL     OW23248   4.578   8.702   0.659  0.0795 -0.0413 -0.2297
39437SOL    HW123249   4.549   8.689   0.749 -0.3064 -2.1758 -0.6158
39437SOL    HW223250   4.671   8.722   0.667 -0.1365  0.7185  0.6639
39438SOL     OW23251   4.776  10.065   4.221  0.1564 -0.3068  0.3060
39438SOL    HW123252   4.733  10.125   4.282 -0.9299 -0.8635  0.1121
39438SOL    HW223253   4.706  10.034   4.164  0.8959 -0.9281 -0.2935
39439SOL     OW23254   8.725   4.628   4.064  0.5108  0.1956 -0.0353
39439SOL    HW123255   8.703   4.721   4.056 -1.6925 -0.2144  0.5387
39439SOL    HW223256   8.652   4.591   4.114  0.9037 -1.9951 -0.9802
39440SOL     OW23257   2.137  10.680   3.054 -0.2251 -0.7757  0.5618
39440SOL    HW123258   2.142  10.773   3.074 -0.9944 -0.5473 -0.2948
39440SOL    HW223259   2.174  10.637   3.132  0.1052  0.2287  0.9720
39441SOL     OW23260   8.027   5.326   3.989  0.1033 -0.7793  0.5349
39441SOL    HW123261   7.940   5.359   4.013  0.7336  1.4594  0.0263
39441SOL    HW223262   8.062   5.290   4.071 -1.2852 -1.7844  0.7318
39442SOL     OW23263   7.000   2.861   6.878 -0.0940  0.5977  0.7172
39442SOL    HW123264   7.030   2.817   6.799 -1.0115  0.8295  0.2251
39442SOL    HW223265   7.034   2.807   6.950 -2.6497 -2.0795  0.1455
39443SOL     OW23266  10.909   5.004   5.725 -0.0910  0.6449  0.1278
39443SOL    HW123267  10.815   5.025   5.721  0.0769  1.3183 -0.4430
39443SOL    HW223268  10.916   4.938   5.794 -1.4898 -2.2093 -2.2081
39444SOL     OW23269   5.720   7.256   9.042 -0.3654 -0.0170  0.1477
39444SOL    HW123270   5.652   7.193   9.069 -0.9009  0.7065  0.5315
39444SOL    HW223271   5.782   7.204   8.991  0.4659 -1.3954  2.3957
39445SOL     OW23272   5.842  10.577   3.859 -0.1012  0.2526  0.1998
39445SOL    HW123273   5.761  10.597   3.905  0.2808  2.0715  0.1540
39445SOL    HW223274   5.834  10.484   3.835 -1.5162  0.0130  1.4462
39446SOL     OW23275  11.335   2.098  11.324  0.5151 -0.1183  0.1182
39446SOL    HW123276  11.283   2.051  11.259  2.0670  0.0142 -1.2652
39446SOL    HW223277  11.353   2.032  11.392  0.2685 -0.7164 -0.3837
39447SOL     OW23278   6.680   4.049   2.615 -0.2084 -0.1140 -0.0967
39447SOL    HW123279   6.711   4.138   2.596 -1.7419  0.2540 -1.0475
39447SOL    HW223280   6.614   4.032   2.548  0.7782 -2.3948 -0.5815
39448SOL     OW23281   6.890  11.517   4.012 -0.0054 -0.1057 -0.5472
39448SOL    HW123282   6.824  11.482   3.952 -0.4609 -0.7804  0.3187
39448SOL    HW223283   6.839  11.571   4.073  0.4492  0.5680 -0.7543
39449SOL     OW23284   6.754   1.520   4.652  0.5451  0.8353  0.4036
39449SOL    HW123285   6.686   1.453   4.650  1.2541  0.1218 -0.5142
39449SOL    HW223286   6.711   1.599   4.618  0.0208  0.5456  0.3891
39450SOL     OW23287   0.145   9.483   2.744 -0.1999  1.0546 -0.4167
39450SOL    HW123288   0.154   9.570   2.783 -1.5713  1.0743 -0.0852
39450SOL    HW223289   0.060   9.453   2.774  0.8714 -1.0523  0.7296
39451SOL     OW23290   0.894   7.086   9.403 -0.1109 -0.2274 -0.0634
39451SOL    HW123291   0.816   7.055   9.449 -1.1511 -0.4310 -1.8578
39451SOL    HW223292   0.923   7.010   9.353  0.8238  0.0679  0.0072
39452SOL     OW23293   9.127  10.045   1.810  0.2403 -0.1989  0.5823
39452SOL    HW123294   9.221  10.037   1.827  0.5562 -0.3219 -1.0406
39452SOL    HW223295   9.090  10.078   1.892  1.5227 -1.2497  1.6338
39453SOL     OW23296   8.141   1.872   3.928  0.3272 -0.2032  0.2878
39453SOL    HW123297   8.136   1.827   4.012 -2.2900 -0.3469  0.1511
39453SOL    HW223298   8.134   1.803   3.862 -3.0791  0.1788  0.0762
39454SOL     OW23299   3.558   5.744   8.442 -0.7731 -0.7307 -0.7151
39454SOL    HW123300   3.641   5.700   8.462 -0.5873 -0.7980 -1.6014
39454SOL    HW223301   3.567   5.831   8.480 -1.5031 -1.7017  1.8898
39455SOL     OW23302   6.245   6.421   0.353 -0.1920 -0.2119 -0.7014
39455SOL    HW123303   6.207   6.364   0.420  4.5079 -0.5741  2.0444
39455SOL    HW223304   6.251   6.366   0.275 -1.3039 -1.4087  0.0138
39456SOL     OW23305   0.128   4.458   1.822 -0.0224 -0.2442 -0.0424
39456SOL    HW123306   0.194   4.527   1.830  0.0993  0.3454 -4.0906
39456SOL    HW223307   0.175   4.377   1.838  1.0849  0.3241 -0.3308
39457SOL     OW23308   5.625   1.195   0.886  0.0888 -0.1962  0.7097
39457SOL    HW123309   5.670   1.112   0.870  0.4871  0.1738 -0.1570
39457SOL    HW223310   5.652   1.251   0.814 -0.8473  0.4188  0.8143
39458SOL     OW23311  11.426   6.759   5.180 -0.3636 -0.0505  0.3557
39458SOL    HW123312  11.352   6.704   5.207 -0.2763 -1.5441 -2.1600
39458SOL    HW223313  11.503   6.705   5.195  0.1205  0.8920  1.4364
39459SOL     OW23314   5.153   8.248   5.606 -0.6830  0.4926  0.0051
39459SOL    HW123315   5.099   8.325   5.588 -2.7429 -1.1611 -1.3439
39459SOL    HW223316   5.169   8.210   5.520  0.1840 -0.6898  0.6674
39460SOL     OW23317   0.493   3.189   7.506  0.3300  0.1384  0.0540
39460SOL    HW123318   0.495   3.229   7.419  0.1571 -1.0492 -0.5139
39460SOL    HW223319   0.583   3.196   7.538  0.5816 -0.1631 -0.5727
39461SOL     OW23320   0.798  10.323  11.056 -0.4380  0.2615  0.1400
39461SOL    HW123321   0.726  10.386  11.050 -0.2956  0.6255  1.7724
39461SOL    HW223322   0.848  10.336  10.975 -0.9966  1.5218 -0.0261
39462SOL     OW23323   6.099   4.343   8.729  0.0622 -0.2819 -0.2127
39462SOL    HW123324   6.179   4.299   8.698 -0.3845 -1.5767  0.3767
39462SOL    HW223325   6.043   4.271   8.759 -1.4217  0.5826 -0.8098
39463SOL     OW23326   1.454   2.512   3.794 -0.0618  0.0725  1.1556
39463SOL    HW123327   1.448   2.466   3.877 -2.6691  0.1047  1.0791
39463SOL    HW223328   1.362   2.524   3.767  0.6503 -1.0260 -2.3012
39464SOL     OW23329   8.621   8.518   8.173  0.4118  0.3666  0.5187
39464SOL    HW123330   8.709   8.556   8.173  0.8663 -0.6453  0.0797
39464SOL    HW223331   8.579   8.554   8.095  0.9182 -0.1998 -0.0217
39465SOL     OW23332   8.128   4.930   5.923 -0.2278 -0.1068  0.0436
39465SOL    HW123333   8.126   4.849   5.974  1.6924 -0.1518  0.0924
39465SOL    HW223334   8.220   4.945   5.905 -0.7608  0.1418 -3.0406
39466SOL     OW23335   8.079   2.308  11.216  0.4590  0.4140  0.3442
39466SOL    HW123336   8.098   2.224  11.256  0.6286  0.2958  0.0188
39466SOL    HW223337   8.038   2.286  11.133  0.0469  0.6569  0.4787
39467SOL     OW23338   1.124   0.040   3.317  0.4807 -0.0296  0.1713
39467SOL    HW123339   1.155   0.016   3.404 -0.4963 -2.3468 -0.0373
39467SOL    HW223340   1.029   0.053   3.329  0.3221 -0.4888 -0.5700
39468SOL     OW23341   1.117   1.521  10.323  0.7022  0.0017  0.6734
39468SOL    HW123342   1.037   1.551  10.367  1.2648 -0.4971  2.0858
39468SOL    HW223343   1.086   1.465  10.252 -0.3104  2.4122 -0.9146
39469SOL     OW23344   2.253   7.838   9.436 -0.7805 -0.7887  0.0144
39469SOL    HW123345   2.179   7.832   9.376 -0.2818  1.7961 -0.9885
39469SOL    HW223346   2.272   7.931   9.441  1.0623 -1.1950  1.9409
39470SOL     OW23347   4.069   6.693   3.317 -0.2592 -0.5590 -0.1778
39470SOL    HW123348   4.104   6.746   3.245  1.8613  0.5664  1.5633
39470SOL    HW223349   4.107   6.606   3.303 -0.2839 -0.4929 -0.6809
39471SOL     OW23350   0.979   7.992   6.814  0.0582 -0.7848  0.6893
39471SOL    HW123351   1.016   7.909   6.784  2.2006 -0.3268  1.8672
39471SOL    HW223352   1.033   8.059   6.773 -2.4561  0.1725 -1.2994
39472SOL     OW23353   5.966  11.526   0.255  0.5920  0.2592 -0.0380
39472SOL    HW123354   5.921  11.445   0.278  1.1983  0.6072  2.6343
39472SOL    HW223355   6.030  11.500   0.188  0.4195 -1.3502  0.3979
39473SOL     OW23356   8.429   6.915   3.169  0.5282 -0.4107  0.2270
39473SOL    HW123357   8.446   6.833   3.122  0.1220  0.2729 -1.1400
39473SOL    HW223358   8.364   6.961   3.116  0.2013  0.4929  1.3559
39474SOL     OW23359   1.449   7.151   0.696  0.3641  0.1979 -0.0268
39474SOL    HW123360   1.386   7.222   0.707  0.7138  0.3479  1.0574
39474SOL    HW223361   1.505   7.179   0.624 -2.1093 -0.8983 -2.5695
39475SOL     OW23362  11.414   7.278   4.525 -0.1197  0.3940 -0.9277
39475SOL    HW123363  11.412   7.185   4.504  1.5577  0.2580 -0.6288
39475SOL    HW223364  11.444   7.281   4.616 -3.7220  1.1160  0.4066
39476SOL     OW23365   9.097   1.919   1.942 -0.0418 -0.1270  0.5925
39476SOL    HW123366   9.189   1.896   1.955  0.4500  1.2933 -0.1679
39476SOL    HW223367   9.071   1.869   1.865  0.3333  0.0582  0.3402
39477SOL     OW23368   9.707   6.982   2.321 -0.5880 -0.2269  0.2597
39477SOL    HW123369   9.762   7.001   2.397 -0.9756  0.9994  0.2624
39477SOL    HW223370   9.769   6.961   2.251 -0.1522  0.1285  0.5318
39478SOL     OW23371   9.366   9.312   0.006 -0.3192 -0.0292 -1.0152
39478SOL    HW123372   9.308   9.238   0.026  0.8991 -0.3706  1.5655
39478SOL    HW223373   9.356   9.372   0.080  2.2553  0.0861 -0.6647
39479SOL     OW23374   8.696   5.222   6.507  0.1717  0.1736  0.2059
39479SOL    HW123375   8.768   5.217   6.444  1.2576 -1.1168  1.4875
39479SOL    HW223376   8.670   5.314   6.506  0.3937  0.2634 -1.8223
39480SOL     OW23377   6.104   8.732  10.869  0.2896 -0.2495  0.3374
39480SOL    HW123378   6.113   8.708  10.961 -2.7950 -0.7349  0.6479
39480SOL    HW223379   6.047   8.809  10.870 -1.0430 -1.1487 -1.1537
39481SOL     OW23380   7.229   1.169   0.861  0.0704  0.1730 -0.1167
39481SOL    HW123381   7.202   1.150   0.771 -1.3913 -0.5887  0.4527
39481SOL    HW223382   7.255   1.084   0.897  2.4052  0.7339 -0.3343
39482SOL     OW23383   0.355   4.548   5.247 -1.0584  0.0143  0.2536
39482SOL    HW123384   0.301   4.620   5.215  0.2321 -0.2140 -2.7641
39482SOL    HW223385   0.293   4.483   5.279 -2.3177  1.5919  1.1859
39483SOL     OW23386   5.480   7.587   3.747  0.0446  0.1736  0.0801
39483SOL    HW123387   5.536   7.659   3.776  0.9145 -0.6665  0.5786
39483SOL    HW223388   5.449   7.547   3.829 -0.7215  0.1943 -0.1915
39484SOL     OW23389   9.310   3.621  11.225 -0.6721  0.1858  0.0451
39484SOL    HW123390   9.377   3.564  11.187 -0.4297 -0.5243  1.4912
39484SOL    HW223391   9.259   3.563  11.282 -1.9613  0.9100 -0.3195
39485SOL     OW23392   0.147   6.494   1.084 -0.4335  1.0674 -0.5391
39485SOL    HW123393   0.189   6.412   1.106  0.1871  1.6258  0.3910
39485SOL    HW223394   0.186   6.519   1.000 -1.7320 -0.3215 -1.6046
39486SOL     OW23395  10.746   2.378  11.455 -0.3421  0.0767 -0.1696
39486SOL    HW123396  10.814   2.413  11.512  0.2752 -0.4566 -0.5602
39486SOL    HW223397  10.714   2.455  11.407  1.5189  0.0560 -1.5570
39487SOL     OW23398   6.398   9.186  10.659 -0.5339 -0.1358  0.1809
39487SOL    HW123399   6.444   9.266  10.683  0.5805 -0.5852 -0.3791
39487SOL    HW223400   6.451   9.147  10.590 -1.6929 -0.7620 -0.3946
39488SOL     OW23401  11.302   3.438   6.988 -0.5696 -0.3767  0.0881
39488SOL    HW123402  11.270   3.509   6.933 -1.4552 -1.2390 -0.5466
39488SOL    HW223403  11.393   3.425   6.961 -0.6919 -0.1197 -0.4549
39489SOL     OW23404   1.400   3.238   4.743 -0.4342  0.1063  0.5754
39489SOL    HW123405   1.417   3.297   4.670 -1.3817 -0.5289 -0.1784
39489SOL    HW223406   1.484   3.231   4.788  0.3200  0.0897 -0.7701
39490SOL     OW23407   7.456   4.254   8.896  0.1540 -0.3636 -0.6137
39490SOL    HW123408   7.387   4.230   8.834  1.5610 -1.0396 -1.9986
39490SOL    HW223409   7.509   4.318   8.849  1.1541 -0.7577 -0.0650
39491SOL     OW23410   7.098   9.143   1.509 -0.4983 -0.3664 -0.1765
39491SOL    HW123411   7.157   9.196   1.562 -0.4904 -2.2113  1.7813
39491SOL    HW223412   7.131   9.153   1.420  1.6890  0.0474  0.6204
39492SOL     OW23413   2.180   5.545   1.413 -0.5735  0.2639 -0.3474
39492SOL    HW123414   2.101   5.595   1.430 -0.5693  0.2270 -0.2180
39492SOL    HW223415   2.184   5.537   1.318  1.3292  3.5969 -0.6988
39493SOL     OW23416   8.320   1.833   0.821  0.5612 -0.4056  0.3402
39493SOL    HW123417   8.317   1.866   0.911  0.7535 -0.1298  0.2481
39493SOL    HW223418   8.380   1.893   0.776 -0.5355  0.2526 -0.2906
39494SOL     OW23419   4.565   7.091   4.897  0.0487  0.0928  0.4880
39494SOL    HW123420   4.560   7.017   4.836 -1.0712  0.3025  0.2995
39494SOL    HW223421   4.533   7.056   4.980 -1.4171  0.5717  0.1632
39495SOL     OW23422   5.063  10.799   1.034 -0.3184  0.4120 -0.4004
39495SOL    HW123423   5.149  10.817   1.073 -0.5934 -0.3509  0.5837
39495SOL    HW223424   5.003  10.798   1.108 -1.2420  1.1921 -1.1084
39496SOL     OW23425   7.519   6.411   4.695  0.2836 -0.3302  0.1405
39496SOL    HW123426   7.436   6.372   4.722  1.8299 -1.8425  3.2435
39496SOL    HW223427   7.543   6.365   4.615 -0.8436 -1.3987  0.3938
39497SOL     OW23428   8.772   7.540   7.762 -0.6216  0.7333 -0.2636
39497SOL    HW123429   8.776   7.445   7.748  2.1775  0.8954 -1.3697
39497SOL    HW223430   8.748   7.549   7.854  2.0264 -1.2322  0.7656
39498SOL     OW23431  11.618   7.731   4.495  0.5362 -0.5692 -0.8572
39498SOL    HW123432  11.604   7.767   4.408  2.5516 -1.2974 -1.5570
39498SOL    HW223433  11.552   7.662   4.504 -1.1561  0.9832 -0.8439
39499SOL     OW23434  10.456  10.774  10.690  0.0850  0.2941  0.2749
39499SOL    HW123435  10.385  10.722  10.726 -0.2133 -0.3726 -1.1919
39499SOL    HW223436  10.416  10.859  10.670 -0.7192 -0.5198 -1.8389
39500SOL     OW23437   1.873   3.281   2.206 -0.5070  0.3390  0.5828
39500SOL    HW123438   1.844   3.371   2.189  1.2567  0.6538 -1.2215
39500SOL    HW223439   1.961   3.277   2.168 -0.1725 -1.9013  1.4466
39501SOL     OW23440  10.442   9.725   3.646 -0.1560 -0.4443  0.6007
39501SOL    HW123441  10.412   9.677   3.570 -0.4189  0.4415  0.1286
39501SOL    HW223442  10.378   9.704   3.714  0.3473 -1.6170  0.7409
39502SOL     OW23443   7.224   6.762   0.043 -0.2693 -0.4443 -0.3431
39502SOL    HW123444   7.276   6.684   0.061 -0.6609 -0.7147 -0.3833
39502SOL    HW223445   7.189   6.748  -0.045 -2.1192 -1.2392  0.4555
39503SOL     OW23446  11.563   5.519   9.285 -0.1321  0.1730 -0.1356
39503SOL    HW123447  11.474   5.550   9.301 -0.2304 -0.4797  0.6652
39503SOL    HW223448  11.604   5.589   9.234 -0.0998  2.0505  2.2304
39504SOL     OW23449   2.490  10.289   1.459 -0.2300  0.3244  0.6002
39504SOL    HW123450   2.534  10.277   1.375 -1.9687  0.4853 -0.3750
39504SOL    HW223451   2.485  10.384   1.470 -0.0164  0.3047  0.9022
39505SOL     OW23452   0.149  10.311   2.599  0.7057 -0.4997 -0.0534
39505SOL    HW123453   0.104  10.285   2.519  0.3361 -3.0568  0.9080
39505SOL    HW223454   0.078  10.328   2.662  0.8772 -3.6581  1.1933
39506SOL     OW23455  10.260   3.758   5.485 -0.3588  0.3548 -0.1581
39506SOL    HW123456  10.294   3.677   5.524 -0.0161  1.0395  1.0179
39506SOL    HW223457  10.334   3.818   5.488 -0.5465  0.6594 -1.2379
39507SOL     OW23458   3.343   8.997   2.343 -0.6504 -0.2118 -0.1315
39507SOL    HW123459   3.438   8.988   2.339 -0.5717 -1.8922  2.8013
39507SOL    HW223460   3.310   8.916   2.303 -0.8689  0.1094 -0.6196
39508SOL     OW23461   1.644   8.287   4.663  0.1520 -0.2590  0.1825
39508SOL    HW123462   1.635   8.364   4.607 -0.1553 -0.2399  0.2590
39508SOL    HW223463   1.573   8.230   4.636  1.7380 -1.5634 -1.5205
39509SOL     OW23464   8.549   1.189   3.201 -0.8668 -0.0769 -0.1259
39509SOL    HW123465   8.459   1.167   3.222 -1.5557  0.9841 -1.7310
39509SOL    HW223466   8.581   1.237   3.277 -2.1913  0.8817 -0.1305
39510SOL     OW23467   6.473   8.500   7.457 -0.0298 -0.3570  0.3950
39510SOL    HW123468   6.481   8.405   7.466 -0.6726 -0.7046 -1.9245
39510SOL    HW223469   6.557   8.529   7.423  0.7593  0.2138  2.6663
39511SOL     OW23470   5.919   0.754   0.729  0.9839  0.1928  0.4364
39511SOL    HW123471   5.940   0.695   0.801 -2.3008  0.5663  1.8779
39511SOL    HW223472   5.899   0.837   0.771 -0.7543  0.5031 -0.9172
39512SOL     OW23473   3.523  11.622   7.111  0.0167 -0.0297 -0.4003
39512SOL    HW123474   3.507  11.716   7.097  0.5781  0.3553  1.2362
39512SOL    HW223475   3.594  11.601   7.050 -0.9542  0.2925 -1.6699
39513SOL     OW23476   1.916   1.845   2.046  0.3236  0.0590 -0.2917
39513SOL    HW123477   2.000   1.809   2.019 -0.4671 -1.6063 -0.6885
39513SOL    HW223478   1.928   1.871   2.137  1.1300 -0.6104 -0.2035
39514SOL     OW23479   0.952   6.550   8.137 -0.1695 -0.2526 -0.1129
39514SOL    HW123480   1.044   6.546   8.165 -0.2746  0.1609  0.3258
39514SOL    HW223481   0.947   6.629   8.084 -0.2278 -0.3834 -0.3004
39515SOL     OW23482   3.808   9.563   2.539 -0.5766  0.5405  0.5143
39515SOL    HW123483   3.748   9.506   2.492  1.8274 -0.0782 -2.0748
39515SOL    HW223484   3.840   9.510   2.612 -1.1044 -0.1073  0.2743
39516SOL     OW23485   6.163   1.618  11.014  0.0224 -0.2171 -0.2709
39516SOL    HW123486   6.190   1.544  11.068 -0.2692  0.2542  0.5250
39516SOL    HW223487   6.244   1.651  10.976  0.1717 -0.8549 -0.5239
39517SOL     OW23488   3.247   1.886  10.024  0.3970 -0.7459  0.3341
39517SOL    HW123489   3.271   1.917   9.936 -0.1286  1.1751  0.8407
39517SOL    HW223490   3.158   1.852  10.014 -0.2807  0.9229  0.4137
39518SOL     OW23491   7.826   6.089   9.582 -0.0133  0.4009  0.3592
39518SOL    HW123492   7.763   6.162   9.578  0.1323  0.4913 -0.6581
39518SOL    HW223493   7.771   6.011   9.588 -0.1841  0.5615  0.9394
39519SOL     OW23494   1.229   8.222   6.999 -0.9413  0.3946 -0.4156
39519SOL    HW123495   1.266   8.308   7.019  0.7911 -0.3402 -0.2885
39519SOL    HW223496   1.142   8.223   7.039 -0.1272  1.3307  1.4535
39520SOL     OW23497   9.246   1.748   0.313 -0.3593 -0.3191  0.1430
39520SOL    HW123498   9.182   1.698   0.262 -0.8404 -1.8614  2.1200
39520SOL    HW223499   9.307   1.783   0.248 -0.7703 -2.4205 -1.4861
39521SOL     OW23500   3.131   6.815  11.279  0.0796  0.8423  0.6950
39521SOL    HW123501   3.187   6.739  11.260 -0.9852  0.1689  0.1923
39521SOL    HW223502   3.174   6.887  11.234 -0.1686  0.0664 -0.8382
39522SOL     OW23503   3.030   6.782   0.055 -0.0394  0.0995  0.4015
39522SOL    HW123504   2.942   6.814   0.037  0.3217  1.8005  1.4380
39522SOL    HW223505   3.083   6.812  -0.018 -0.3915 -1.4491 -0.5354
39523SOL     OW23506   1.602   5.177   2.764 -0.6634  0.0665 -0.3503
39523SOL    HW123507   1.691   5.155   2.791 -0.4165 -0.5017 -1.5601
39523SOL    HW223508   1.556   5.093   2.761 -1.7737  0.5022  1.9198
39524SOL     OW23509   4.383   8.381  10.794 -0.1901  0.8670 -0.2885
39524SOL    HW123510   4.330   8.389  10.715 -1.1483  1.8617  0.4222
39524SOL    HW223511   4.319   8.361  10.863  0.8843 -2.7954 -0.1371
39525SOL     OW23512   4.669   5.018   3.409 -0.0361 -0.0410  0.3162
39525SOL    HW123513   4.727   5.073   3.357 -0.9087  0.1289 -0.4986
39525SOL    HW223514   4.686   4.929   3.379  0.0876 -0.0341  0.3646
39526SOL     OW23515  10.504  10.552   7.611  0.3082  0.2336 -0.0419
39526SOL    HW123516  10.495  10.481   7.547 -2.6142  1.1442 -0.8084
39526SOL    HW223517  10.450  10.524   7.685 -0.5773  1.4384 -0.2042
39527SOL     OW23518   9.886   2.933  11.064  0.4857  0.0147  0.0358
39527SOL    HW123519   9.885   3.025  11.036  2.8686 -0.2053 -1.0432
39527SOL    HW223520   9.867   2.936  11.157 -0.8365  1.4520 -0.2369
39528SOL     OW23521   6.714   6.926   3.376 -0.4776 -0.7657  0.4114
39528SOL    HW123522   6.747   6.894   3.460 -0.6678 -0.5251  0.5807
39528SOL    HW223523   6.724   7.021   3.381 -0.1132 -0.7853 -0.0033
39529SOL     OW23524   0.921   9.051   6.305  0.2636 -0.4735 -0.3921
39529SOL    HW123525   0.899   9.019   6.218 -0.5700 -1.1821  0.0680
39529SOL    HW223526   1.014   9.030   6.316  1.2087  2.2064 -2.2076
39530SOL     OW23527   7.679   8.425   7.595  0.0963 -0.2407 -0.3120
39530SOL    HW123528   7.702   8.486   7.524  0.4010  0.4434  0.3628
39530SOL    HW223529   7.607   8.374   7.559 -0.9432  1.2860 -0.5003
39531SOL     OW23530   1.253  10.041   0.625  0.1580  0.2416  0.2612
39531SOL    HW123531   1.244  10.057   0.719  0.8868  0.4884  0.2947
39531SOL    HW223532   1.181  10.091   0.586 -0.0750  0.2392  0.6788
39532SOL     OW23533   3.307   0.767   9.732 -0.7513 -0.2610 -0.3307
39532SOL    HW123534   3.242   0.833   9.711 -1.1938 -0.0105  1.6596
39532SOL    HW223535   3.286   0.739   9.821  1.5615 -0.5313  0.2038
39533SOL     OW23536   7.109   7.914   8.376 -0.0897 -0.2968 -0.4114
39533SOL    HW123537   7.186   7.897   8.322  0.0729  1.2046 -0.6964
39533SOL    HW223538   7.053   7.838   8.362  0.4998 -0.5181 -1.7161
39534SOL     OW23539   1.473   0.079   1.895  0.1986  0.5501  0.1839
39534SOL    HW123540   1.381   0.099   1.882 -0.0389 -0.0297  0.9038
39534SOL    HW223541   1.478  -0.017   1.892  1.0207  0.6192 -1.3780
39535SOL     OW23542   1.370   7.886   4.794 -0.3671 -0.6507  0.1593
39535SOL    HW123543   1.340   7.823   4.728 -1.0324  1.2689 -1.5041
39535SOL    HW223544   1.291   7.936   4.817  0.3329  0.2974  0.5666
39536SOL     OW23545   3.302   3.880  10.583  0.7068  0.2716  0.3922
39536SOL    HW123546   3.376   3.870  10.643  1.0747 -1.0608 -0.2278
39536SOL    HW223547   3.225   3.861  10.637  1.0340 -0.9289  0.4731
39537SOL     OW23548   0.050   5.457   7.887  0.4225  0.1788  0.1547
39537SOL    HW123549   0.140   5.446   7.916  0.1318  1.0694  1.4854
39537SOL    HW223550   0.001   5.388   7.931  0.4188 -0.2153 -0.4535
39538SOL     OW23551   5.393   3.684   4.712 -0.2722 -0.2827 -0.0824
39538SOL    HW123552   5.471   3.735   4.731  1.4560 -2.2480 -1.4515
39538SOL    HW223553   5.418   3.593   4.729 -1.6496 -1.1537 -2.2077
39539SOL     OW23554   3.363  10.561   7.032  0.0012  0.6055 -0.3056
39539SOL    HW123555   3.307  10.637   7.049 -0.3977  0.0522  0.9781
39539SOL    HW223556   3.439  10.574   7.088  0.5933  0.7300 -1.1179
39540SOL     OW23557   9.005  10.447   7.737 -0.2226  0.4981 -0.0578
39540SOL    HW123558   9.018  10.379   7.671  1.6240  2.2383 -1.6380
39540SOL    HW223559   9.014  10.402   7.821 -0.4732 -1.4300 -1.0229
39541SOL     OW23560   2.234   7.004   8.333  0.3194  0.2490  0.3033
39541SOL    HW123561   2.255   7.065   8.404  1.5983 -0.4733  0.5669
39541SOL    HW223562   2.308   6.944   8.329 -0.0251 -0.1319 -1.2231
39542SOL     OW23563  11.344   4.258   5.853 -0.2552 -0.5196  0.4127
39542SOL    HW123564  11.393   4.327   5.809 -1.4013 -0.9761 -1.7336
39542SOL    HW223565  11.346   4.185   5.791 -0.4039 -1.8875  1.9502
39543SOL     OW23566   3.440   2.781   5.726 -0.2676  0.1888  0.2840
39543SOL    HW123567   3.481   2.732   5.797 -1.2354 -0.1018  0.6584
39543SOL    HW223568   3.492   2.862   5.719 -0.3259  0.3435  1.5090
39544SOL     OW23569   2.653   6.704   0.791  0.7207  0.0533  0.1809
39544SOL    HW123570   2.684   6.659   0.712 -0.1916 -1.5254  0.6762
39544SOL    HW223571   2.717   6.680   0.859  0.0207 -0.8591  0.5375
39545SOL     OW23572  10.114   7.582   7.427 -0.4704 -0.3932  0.3536
39545SOL    HW123573  10.097   7.522   7.354 -2.4237  1.5269 -0.8824
39545SOL    HW223574  10.159   7.656   7.387 -2.4791  1.1565  0.8244
39546SOL     OW23575  11.111   5.567   0.706  0.0066 -0.4061 -0.0928
39546SOL    HW123576  11.020   5.589   0.724 -0.4340 -0.0879 -2.3639
39546SOL    HW223577  11.161   5.633   0.754 -1.0469  0.6536 -0.4015
39547SOL     OW23578   3.292  10.899   9.971 -0.1811  0.3024 -0.8843
39547SOL    HW123579   3.227  10.834   9.944  0.2890 -0.8934  0.6678
39547SOL    HW223580   3.375  10.852   9.967  0.0426  0.3949  1.3858
39548SOL     OW23581   5.438   3.747   3.365  0.5403 -0.2927 -0.5584
39548SOL    HW123582   5.479   3.661   3.357  1.2938 -0.0714  0.7261
39548SOL    HW223583   5.456   3.774   3.454  0.6055  1.3596 -1.0408
39549SOL     OW23584   0.612   7.577   3.840 -0.2726 -0.3492  0.0032
39549SOL    HW123585   0.685   7.534   3.884 -1.0389  0.5980  2.3933
39549SOL    HW223586   0.652   7.629   3.770  1.2638 -0.3566  0.8505
39550SOL     OW23587   2.067   0.098   1.081 -0.2575 -0.9676  0.1546
39550SOL    HW123588   2.033   0.187   1.093  3.6091  0.8824 -1.0618
39550SOL    HW223589   2.050   0.078   0.989  0.5825 -0.6633 -0.0694
39551SOL     OW23590   3.612   8.419   7.295  0.2939 -0.0756  0.0696
39551SOL    HW123591   3.686   8.385   7.345 -0.8737 -2.1736  0.4708
39551SOL    HW223592   3.645   8.501   7.256  2.7846 -0.8946  0.2777
39552SOL     OW23593   2.288   7.769   2.182 -0.2321  0.1266  0.6512
39552SOL    HW123594   2.285   7.676   2.160  2.2169  0.6701 -2.7979
39552SOL    HW223595   2.203   7.803   2.152 -0.5439 -0.7352  0.5291
39553SOL     OW23596   9.544  11.334   3.515 -0.3351 -0.2249  0.3824
39553SOL    HW123597   9.620  11.378   3.554  0.0274  0.0166 -0.5747
39553SOL    HW223598   9.531  11.256   3.569 -0.2425  0.4328  1.3702
39554SOL     OW23599   1.897  11.302  11.154 -0.5488 -0.3872 -0.5156
39554SOL    HW123600   1.844  11.259  11.086  0.5550 -0.2035 -1.5294
39554SOL    HW223601   1.984  11.263  11.144 -0.5691 -1.0354  1.4370
39555SOL     OW23602   3.988   8.948   0.814  0.1027  1.0576  0.1601
39555SOL    HW123603   3.893   8.945   0.827  0.0903  2.0929  0.3616
39555SOL    HW223604   4.020   9.007   0.882  0.7782  1.4810 -0.5039
39556SOL     OW23605  11.022   7.290   0.934  0.3090  0.2163  0.0866
39556SOL    HW123606  10.944   7.336   0.904 -1.6679 -2.5367  0.6410
39556SOL    HW223607  11.008   7.277   1.028  0.0498 -2.5566 -0.2293
39557SOL     OW23608   4.864   3.466  10.990 -0.2347  0.1145 -0.4612
39557SOL    HW123609   4.948   3.466  11.035 -0.0430  2.3262 -0.7269
39557SOL    HW223610   4.887   3.457  10.897 -0.2012  1.4804 -0.6050
39558SOL     OW23611   5.294   1.980   9.260 -0.6094 -0.0549  0.7910
39558SOL    HW123612   5.284   1.900   9.208  1.2256  0.2620 -0.1351
39558SOL    HW223613   5.366   1.960   9.320  2.1034  1.8160 -1.5502
39559SOL     OW23614   7.323   1.741   4.057 -0.1256  0.1727  0.1164
39559SOL    HW123615   7.343   1.695   4.138  0.5532  1.8218  0.9364
39559SOL    HW223616   7.302   1.672   3.994  0.3698 -1.1966  1.4051
39560SOL     OW23617   5.857   4.982   3.353 -0.3575  0.2378  0.1972
39560SOL    HW123618   5.824   4.893   3.364  0.6865 -0.2164 -0.1197
39560SOL    HW223619   5.937   4.984   3.406 -1.4880  1.6854  1.9613
39561SOL     OW23620   7.012   8.197   4.952  0.2157  0.2195  0.0540
39561SOL    HW123621   7.066   8.257   4.902 -0.9299  1.3070  0.0895
39561SOL    HW223622   6.935   8.248   4.978 -0.3574 -0.9923  0.8710
39562SOL     OW23623   2.823   8.085  11.155 -0.0175  0.4754 -0.3384
39562SOL    HW123624   2.783   8.165  11.122 -0.6107  0.1600 -0.4134
39562SOL    HW223625   2.897   8.068  11.097  0.0186  0.8848 -0.4120
39563SOL     OW23626   3.283   5.848   3.997 -0.0471  0.0022  0.1101
39563SOL    HW123627   3.318   5.771   3.953  2.9694  1.2216  0.1085
39563SOL    HW223628   3.326   5.922   3.954 -0.3652  1.4981  2.1740
39564SOL     OW23629   3.542  10.498   1.144 -0.4141  0.0919 -0.0288
39564SOL    HW123630   3.537  10.415   1.097 -1.9570 -0.1838  0.5564
39564SOL    HW223631   3.577  10.560   1.081 -0.1712 -0.7995 -0.7819
39565SOL     OW23632   8.442   2.888   8.511 -0.6219 -0.1470  0.2514
39565SOL    HW123633   8.462   2.802   8.548 -2.3313  0.7732  3.7800
39565SOL    HW223634   8.415   2.869   8.421 -0.0725 -3.1522  0.5878
39566SOL     OW23635   0.180  11.553   3.655  0.0579 -0.1999 -0.6283
39566SOL    HW123636   0.136  11.473   3.686  1.9157 -1.6602 -1.5467
39566SOL    HW223637   0.118  11.623   3.674 -1.2171 -1.7054  1.2099
39567SOL     OW23638   8.230   6.731   3.959 -0.3606 -0.2267  0.0901
39567SOL    HW123639   8.183   6.795   3.905 -0.0752  0.4801  0.6668
39567SOL    HW223640   8.201   6.646   3.925 -0.0319  0.1947 -1.2985
39568SOL     OW23641   3.980   5.902   0.418  0.4936  0.2017 -0.2598
39568SOL    HW123642   4.021   5.911   0.332 -0.6013 -1.4327 -0.9870
39568SOL    HW223643   3.972   5.808   0.431  0.0547  0.4377  1.3617
39569SOL     OW23644  11.353   4.616  10.872 -0.3175 -0.2156  0.3607
39569SOL    HW123645  11.365   4.544  10.934 -0.3222  0.5368  1.2534
39569SOL    HW223646  11.374   4.695  10.922 -0.7706  0.4461 -0.4629
39570SOL     OW23647   8.813   0.822   9.258  0.7866  0.1598  0.2963
39570SOL    HW123648   8.780   0.837   9.347 -1.9083  0.2061 -0.6078
39570SOL    HW223649   8.826   0.910   9.222 -1.4604  0.2893 -0.3950
39571SOL     OW23650   1.155   8.448   2.040  0.3351 -0.2063  0.7700
39571SOL    HW123651   1.118   8.531   2.012 -0.5575 -0.1772  1.9883
39571SOL    HW223652   1.227   8.432   1.979 -0.6210  0.5560 -0.6143
39572SOL     OW23653   6.435  10.683   2.233 -0.2938 -0.8778  0.1001
39572SOL    HW123654   6.466  10.771   2.209 -1.3553 -0.3438  0.6067
39572SOL    HW223655   6.363  10.666   2.171 -0.9407 -0.8303  0.8211
39573SOL     OW23656   2.542   8.494   3.877 -0.5359  0.3066  0.4719
39573SOL    HW123657   2.450   8.475   3.861 -0.3211 -0.6014  0.2036
39573SOL    HW223658   2.543   8.552   3.953 -1.3921  1.5143 -0.4160
39574SOL     OW23659  10.279   7.233   9.396 -0.3316  0.4609 -0.1393
39574SOL    HW123660  10.304   7.325   9.404 -0.5327  0.7158 -1.9759
39574SOL    HW223661  10.239   7.211   9.480  2.1735  1.2490  1.3515
39575SOL     OW23662   8.040   2.159   3.427  0.2548 -0.4310 -0.4223
39575SOL    HW123663   8.129   2.124   3.418 -0.0110 -1.1851 -0.2174
39575SOL    HW223664   8.042   2.208   3.509  0.8233  0.6502 -1.0676
39576SOL     OW23665   7.952   5.400   0.347 -0.3796 -0.4499  0.0287
39576SOL    HW123666   7.955   5.483   0.299  0.2892 -0.7254 -0.4174
39576SOL    HW223667   7.938   5.426   0.439 -1.9854  0.0711 -0.3263
39577SOL     OW23668   1.640   7.289   6.792  0.2436  0.3812 -1.0234
39577SOL    HW123669   1.547   7.274   6.810  0.7541 -0.7034  0.9587
39577SOL    HW223670   1.673   7.331   6.871  1.5832  0.2071 -1.4720
39578SOL     OW23671   1.196   3.386   3.030  0.0769  0.2455 -0.4020
39578SOL    HW123672   1.234   3.424   3.109  0.0674 -0.4802 -0.0410
39578SOL    HW223673   1.108   3.360   3.055  0.7595 -1.9094 -0.0126
39579SOL     OW23674  10.538  10.698   3.576 -0.1031 -0.3096  0.7816
39579SOL    HW123675  10.525  10.611   3.614 -1.4977 -0.9326 -0.9603
39579SOL    HW223676  10.607  10.737   3.629 -0.9684 -1.6009  3.0207
39580SOL     OW23677   3.462   3.905   7.246 -0.7372  0.6456 -0.0404
39580SOL    HW123678   3.369   3.925   7.249 -0.9297 -0.3561  1.9121
39580SOL    HW223679   3.500   3.953   7.319  0.1631  0.4547 -0.3700
39581SOL     OW23680   5.402   1.957   9.662 -0.1332  0.4634 -0.3803
39581SOL    HW123681   5.365   2.037   9.626 -1.4335 -0.4184 -1.0864
39581SOL    HW223682   5.453   1.985   9.738 -1.7815  1.8000  0.2651
39582SOL     OW23683   2.768   8.362   8.152  0.1637 -0.1878  0.0703
39582SOL    HW123684   2.712   8.393   8.080  1.1701  2.0763  0.1771
39582SOL    HW223685   2.706   8.344   8.223 -0.5713  1.1932 -0.1716
39583SOL     OW23686   7.534   5.476   3.634 -0.5621 -0.0457 -0.0064
39583SOL    HW123687   7.625   5.449   3.644 -0.2408  1.3422  1.0876
39583SOL    HW223688   7.530   5.517   3.548 -0.0209  0.3831  0.1703
39584SOL     OW23689   3.874   9.768   2.966 -0.5975 -0.0915  0.0527
39584SOL    HW123690   3.940   9.700   2.953  0.5211  1.0884 -0.7010
39584SOL    HW223691   3.822   9.767   2.885 -0.6425 -0.0973  0.0813
39585SOL     OW23692   5.377   4.625   3.747  0.0167 -0.5015  0.1766
39585SOL    HW123693   5.417   4.691   3.689  1.2984 -0.7230  0.7650
39585SOL    HW223694   5.448   4.562   3.763 -1.4975 -2.7029 -1.2992
39586SOL     OW23695   2.591   4.184   8.040 -0.0433  0.0056  0.0953
39586SOL    HW123696   2.628   4.105   7.999  0.3719 -0.9066  2.0765
39586SOL    HW223697   2.499   4.183   8.014  0.3909  0.0315 -1.5755
39587SOL     OW23698   8.027   9.149   1.885 -0.3979 -0.1352  0.8356
39587SOL    HW123699   8.074   9.218   1.932  1.2646  0.5583 -1.6629
39587SOL    HW223700   8.002   9.189   1.802 -0.9476 -2.0389  0.0349
39588SOL     OW23701   4.192   1.443   1.805  0.4372  0.1949 -0.0202
39588SOL    HW123702   4.210   1.351   1.785  0.3947  0.3174 -0.6448
39588SOL    HW223703   4.195   1.487   1.720  0.0618  0.7065  0.2243
39589SOL     OW23704   4.139   5.337   1.994  0.2245 -0.1382  0.2769
39589SOL    HW123705   4.195   5.309   2.066  0.2123 -0.1628  0.2766
39589SOL    HW223706   4.171   5.288   1.918 -0.3600 -0.7962  0.4561
39590SOL     OW23707   1.815   2.836   3.038  0.2760  0.2197  0.6505
39590SOL    HW123708   1.873   2.897   3.084  4.5101 -0.7740 -2.6650
39590SOL    HW223709   1.870   2.760   3.019 -1.3522 -0.1009 -4.4254
39591SOL     OW23710   6.645   6.589   8.758  0.2218 -0.2325 -0.0957
39591SOL    HW123711   6.578   6.545   8.705  0.7622 -1.9812  0.6178
39591SOL    HW223712   6.600   6.665   8.794 -0.7489 -0.1570 -1.3725
39592SOL     OW23713   0.002   0.512  11.346 -0.1089  0.5066 -0.2435
39592SOL    HW123714   0.073   0.535  11.405 -1.9264  0.4731  2.1249
39592SOL    HW223715   0.010   0.417  11.334  2.3824  0.9522 -3.1176
39593SOL     OW23716  11.512   6.227   2.735  0.5339 -0.3883  0.3232
39593SOL    HW123717  11.596   6.189   2.761 -0.1220 -0.8902  1.7995
39593SOL    HW223718  11.447   6.174   2.779 -0.6343 -0.5967 -1.5580
39594SOL     OW23719   7.020   9.551   9.993 -0.3464 -0.1309 -0.3336
39594SOL    HW123720   6.937   9.559  10.041 -0.3836  1.2742 -0.5971
39594SOL    HW223721   7.066   9.480  10.037 -0.6411  0.7137  1.4324
39595SOL     OW23722   5.970   5.535   9.269 -0.1404 -0.3501  0.0479
39595SOL    HW123723   6.043   5.485   9.307  1.6569  1.2461 -1.1113
39595SOL    HW223724   6.007   5.577   9.192 -2.6846 -0.4744 -1.3534
39596SOL     OW23725   0.338   5.050   4.964  0.8737 -0.5445 -0.4019
39596SOL    HW123726   0.312   5.126   4.913 -0.3600 -1.0505 -0.5569
39596SOL    HW223727   0.394   5.085   5.033 -1.3483  0.7971  0.8100
39597SOL     OW23728   9.732   9.014   3.739  0.0140  0.2405  0.3474
39597SOL    HW123729   9.661   9.059   3.785 -2.1314  0.7002 -3.0389
39597SOL    HW223730   9.778   9.083   3.691  0.6009 -0.4389 -0.1019
39598SOL     OW23731   2.479   0.186  10.469  0.6352 -0.5747  0.1091
39598SOL    HW123732   2.423   0.248  10.515  0.3391  0.0445 -1.0653
39598SOL    HW223733   2.432   0.102  10.476  0.1753 -0.3149  0.1885
39599SOL     OW23734   6.703   2.389  10.460 -0.1521  0.3878 -0.0306
39599SOL    HW123735   6.778   2.360  10.408 -0.0873 -0.5767  0.5678
39599SOL    HW223736   6.655   2.449  10.402  0.8753  0.7382 -0.5470
39600SOL     OW23737   3.927   4.193   3.697  0.0234 -0.7234  0.3917
39600SOL    HW123738   3.995   4.198   3.764 -0.2961  1.3893  0.6292
39600SOL    HW223739   3.872   4.270   3.712 -0.4830 -0.5641 -1.8617
39601SOL     OW23740  11.039   9.240   3.487  0.0189  0.0953  0.0452
39601SOL    HW123741  11.005   9.151   3.491  1.4419 -0.4169  1.9974
39601SOL    HW223742  11.129   9.231   3.457 -0.2726  1.0579 -1.2211
39602SOL     OW23743   7.583   8.167   7.003 -0.1683  0.4320  0.4770
39602SOL    HW123744   7.662   8.146   7.052  0.2563  2.7065  0.8517
39602SOL    HW223745   7.512   8.156   7.066  0.2363  1.9750  1.2240
39603SOL     OW23746   6.690   1.767   5.906 -0.0274  0.1129 -0.5842
39603SOL    HW123747   6.755   1.815   5.958  0.0215  0.1716 -0.7008
39603SOL    HW223748   6.740   1.696   5.866  0.1687  0.7120 -1.4455
39604SOL     OW23749   0.809   7.820   6.380 -0.2612 -0.1128  0.8349
39604SOL    HW123750   0.904   7.815   6.366 -0.5834 -1.8598 -1.1236
39604SOL    HW223751   0.792   7.913   6.396  1.5889  0.4627 -0.2500
39605SOL     OW23752   9.420   4.691   8.347  0.1418 -0.1210 -0.1703
39605SOL    HW123753   9.480   4.695   8.272 -0.8399 -1.0672 -1.0526
39605SOL    HW223754   9.445   4.765   8.402  1.4845  0.0682 -0.9818
39606SOL     OW23755   7.692  11.031   7.517  0.2544  0.4725 -0.6398
39606SOL    HW123756   7.758  10.975   7.478 -0.4440 -1.1519  0.4166
39606SOL    HW223757   7.620  11.031   7.453  1.5366  3.0770 -2.2872
39607SOL     OW23758  10.164   5.791   4.314  0.0464  0.2073 -0.3863
39607SOL    HW123759  10.069   5.785   4.305 -0.0600  2.1386 -1.0588
39607SOL    HW223760  10.177   5.840   4.395  0.4188  0.9837 -0.9064
39608SOL     OW23761   0.070   1.334   8.882 -0.2039  0.9075 -0.4501
39608SOL    HW123762   0.037   1.262   8.827  1.6511  0.5495 -1.1519
39608SOL    HW223763   0.161   1.344   8.857  0.5337  1.2433  2.0619
39609SOL     OW23764   0.607  10.188   6.440 -0.0207 -0.4794  0.2081
39609SOL    HW123765   0.690  10.142   6.434  0.6000  0.4004  1.6504
39609SOL    HW223766   0.624  10.273   6.401 -0.6529 -0.7889 -0.7742
39610SOL     OW23767   3.243   5.600   5.831  1.2327 -0.0721 -0.4213
39610SOL    HW123768   3.191   5.544   5.887  0.8083  1.1259  0.4376
39610SOL    HW223769   3.179   5.646   5.776  1.4955  0.2837 -0.4333
39611SOL     OW23770  11.551   4.387   9.935  0.2414 -0.2534  0.5278
39611SOL    HW123771  11.583   4.464   9.888  2.5205 -0.4331  1.6751
39611SOL    HW223772  11.484   4.421   9.994 -2.4009  0.0419 -2.3872
39612SOL     OW23773   5.767  11.439   5.243  0.0916 -0.0778  1.1068
39612SOL    HW123774   5.774  11.377   5.171 -0.3127  0.3449  0.6973
39612SOL    HW223775   5.675  11.468   5.242 -0.0934 -0.5855  2.2274
39613SOL     OW23776   2.821  10.875   7.142  0.1317  0.0458 -0.0175
39613SOL    HW123777   2.786  10.870   7.231  0.2125  1.0442  0.0860
39613SOL    HW223778   2.847  10.967   7.132  0.1196 -0.0526 -1.0684
39614SOL     OW23779   7.854   8.028   6.824 -0.4556  0.1249  0.0055
39614SOL    HW123780   7.887   8.114   6.796 -2.0851  0.7428 -0.0906
39614SOL    HW223781   7.897   8.012   6.908  0.0897  0.8747 -0.1181
39615SOL     OW23782   9.743   8.073   8.926  0.5317  0.3315 -0.5933
39615SOL    HW123783   9.713   7.986   8.900 -0.4879  0.5327 -0.1429
39615SOL    HW223784   9.790   8.106   8.849  3.4188 -1.6771  0.1471
39616SOL     OW23785   3.608   4.325   4.915  0.1430  0.0567  0.4812
39616SOL    HW123786   3.619   4.289   5.003  0.5407 -0.7088  0.1267
39616SOL    HW223787   3.621   4.419   4.926  0.8154 -0.1078  1.1367
39617SOL     OW23788   0.965   5.109   0.350  0.1425 -0.2143  0.8986
39617SOL    HW123789   0.918   5.127   0.269  0.0330 -0.2625  0.9511
39617SOL    HW223790   0.937   5.178   0.410 -0.8991 -1.0030  1.3562
39618SOL     OW23791   4.106   0.809   9.903  0.1279 -0.0529  0.1550
39618SOL    HW123792   4.026   0.851   9.935  0.7819  3.6198 -2.4265
39618SOL    HW223793   4.076   0.745   9.838 -0.7464  0.2910  0.2124
39619SOL     OW23794   9.231   6.088   1.265  0.1500 -0.1400 -0.4773
39619SOL    HW123795   9.244   6.158   1.200  1.8050  1.5388  1.4956
39619SOL    HW223796   9.152   6.114   1.312 -0.7554 -1.0797 -1.4466
39620SOL     OW23797   0.469   3.620  10.748  0.0699 -0.1155 -0.7686
39620SOL    HW123798   0.488   3.695  10.805 -1.0007 -0.4726  0.0861
39620SOL    HW223799   0.400   3.651  10.689 -2.9130 -1.3644  1.8201
39621SOL     OW23800   8.075   3.971   0.667 -0.1339 -0.4741  0.3046
39621SOL    HW123801   8.130   4.041   0.634 -0.7340 -0.3407 -0.4328
39621SOL    HW223802   8.069   3.988   0.761  0.7227 -0.2494  0.3233
39622SOL     OW23803   9.821   4.606   1.433 -0.1753  0.1081 -0.5330
39622SOL    HW123804   9.819   4.701   1.430 -1.0633  0.1090 -0.3595
39622SOL    HW223805   9.768   4.579   1.357  0.9694 -0.2738 -1.2321
39623SOL     OW23806   9.437   9.380   7.882  0.1382  0.3820  0.4035
39623SOL    HW123807   9.365   9.439   7.904  0.8776  1.4657  0.0077
39623SOL    HW223808   9.402   9.324   7.813 -0.0547  1.5340 -0.4659
39624SOL     OW23809   0.067   5.945  10.730 -0.0176  0.3911  0.9463
39624SOL    HW123810  -0.029   5.941  10.728 -0.0863  1.2179 -1.9556
39624SOL    HW223811   0.094   5.856  10.753 -1.5045 -0.6339 -0.9508
39625SOL     OW23812   0.356  10.378  11.604  0.4498 -0.8089  0.0070
39625SOL    HW123813   0.442  10.413  11.581  0.5111 -0.2476  1.0037
39625SOL    HW223814   0.326  10.333  11.525  1.4155 -0.5410 -0.5316
39626SOL     OW23815   2.294   9.358  11.030 -0.6620  0.1486  0.2028
39626SOL    HW123816   2.215   9.334  11.078 -0.4775 -1.1976 -0.1130
39626SOL    HW223817   2.331   9.274  11.001  0.2455  0.8175 -0.6624
39627SOL     OW23818   8.200   8.305   1.202  0.3133  0.3423  0.2950
39627SOL    HW123819   8.270   8.256   1.245 -1.5127 -1.8249  0.9580
39627SOL    HW223820   8.164   8.362   1.270  0.5497  0.5071  0.2876
39628SOL     OW23821   9.216   7.269   8.254 -0.1385  0.7196  0.1331
39628SOL    HW123822   9.229   7.351   8.207 -0.3835  1.0700  0.6676
39628SOL    HW223823   9.298   7.256   8.302 -0.0882  0.6304  0.0259
39629SOL     OW23824   2.362   2.443   2.344 -0.1648 -0.0733  0.0398
39629SOL    HW123825   2.323   2.434   2.257  0.4124  0.2080 -0.2526
39629SOL    HW223826   2.445   2.396   2.339  0.5812  1.2073 -0.0293
39630SOL     OW23827   7.954   8.420   7.660 -0.4263  0.2160  0.8226
39630SOL    HW123828   7.994   8.449   7.578  0.2666  0.0827  1.1014
39630SOL    HW223829   7.862   8.408   7.639 -0.0853 -0.8284 -0.2007
39631SOL     OW23830   0.127   0.467   0.927 -0.9964  0.0500 -0.0202
39631SOL    HW123831   0.063   0.452   0.858 -0.4738 -0.0208 -0.4924
39631SOL    HW223832   0.178   0.541   0.896 -1.1448  0.4120  0.5735
39632SOL     OW23833   2.896   2.969  10.667 -0.0582  0.2035 -0.5204
39632SOL    HW123834   2.817   2.915  10.674  0.4579 -0.4162  0.7508
39632SOL    HW223835   2.968   2.905  10.662  0.3516  0.7456 -2.1660
39633SOL     OW23836   0.717   7.283  10.568 -0.2081 -0.7339 -0.3042
39633SOL    HW123837   0.656   7.244  10.506  0.3425 -0.6271 -0.9183
39633SOL    HW223838   0.700   7.377  10.563 -0.9403 -0.7971  0.5498
39634SOL     OW23839   1.889   2.559   1.085 -0.1135 -0.1169  0.3653
39634SOL    HW123840   1.922   2.566   1.174  0.6593 -1.3286  0.1907
39634SOL    HW223841   1.836   2.480   1.084 -1.2035  0.5900  0.0610
39635SOL     OW23842   5.412   2.638   4.669 -0.7423 -0.2064  0.4665
39635SOL    HW123843   5.321   2.664   4.684 -0.9506 -0.3139 -0.5403
39635SOL    HW223844   5.445   2.613   4.756 -1.7559 -0.4488  0.7923
39636SOL     OW23845  11.243   8.058   3.598 -0.2174  0.1575 -0.2220
39636SOL    HW123846  11.234   7.968   3.627  0.1100  0.6616  1.5564
39636SOL    HW223847  11.300   8.053   3.522 -1.4913 -1.2690 -1.1461
39637SOL     OW23848   1.504   6.555   9.650  0.5720  0.0819 -0.4384
39637SOL    HW123849   1.536   6.555   9.559 -1.6973  1.0700 -1.3050
39637SOL    HW223850   1.542   6.634   9.688 -0.9127  1.4104 -1.5487
39638SOL     OW23851   8.488   5.181  10.911 -0.0120 -0.1552  0.0810
39638SOL    HW123852   8.572   5.176  10.866 -0.9582 -1.0403 -1.7225
39638SOL    HW223853   8.507   5.152  11.000  1.8070  0.9198  0.0871
39639SOL     OW23854   3.088   3.281   1.538 -0.3591  0.4869  0.4015
39639SOL    HW123855   3.042   3.346   1.591  0.1917 -0.7079  2.5178
39639SOL    HW223856   3.179   3.312   1.534 -0.5631  0.9761 -0.5558
39640SOL     OW23857  10.840   1.314   8.540  0.3115  0.2426 -0.5917
39640SOL    HW123858  10.787   1.361   8.604 -1.1672  1.0159 -2.3037
39640SOL    HW223859  10.891   1.383   8.496 -0.3389  0.0461 -1.7103
39641SOL     OW23860   5.022   8.810  10.417  0.3783 -0.1899 -0.2489
39641SOL    HW123861   5.017   8.853  10.502 -0.3685 -0.2345 -0.2621
39641SOL    HW223862   4.938   8.831  10.375  1.1274  0.6591 -1.3741
39642SOL     OW23863   6.640  10.995   5.653 -0.4444 -0.0617 -0.7937
39642SOL    HW123864   6.608  10.990   5.743  2.2309 -0.7409  0.2232
39642SOL    HW223865   6.641  10.905   5.622  2.1184 -0.3679 -0.0714
39643SOL     OW23866   5.392   3.002   6.123  0.3028 -0.0489  0.2385
39643SOL    HW123867   5.358   3.085   6.155  1.3005 -0.3230  2.1717
39643SOL    HW223868   5.355   2.936   6.182 -0.9017 -1.0919 -1.5829
39644SOL     OW23869   9.658   8.653   9.906 -0.1703 -0.0053 -0.1809
39644SOL    HW123870   9.604   8.684   9.833 -0.0139 -0.9793 -0.7192
39644SOL    HW223871   9.624   8.566   9.926  1.2292 -0.6664 -0.5623
39645SOL     OW23872   3.660   3.234   7.878  0.1415 -0.7303 -0.3941
39645SOL    HW123873   3.575   3.278   7.870  0.7627  0.3275 -1.5381
39645SOL    HW223874   3.656   3.163   7.814  1.2696  1.3593 -2.9910
39646SOL     OW23875   9.353   6.368  10.456  0.2697  0.2582  0.2245
39646SOL    HW123876   9.314   6.333  10.536  0.6290  1.1726  0.8167
39646SOL    HW223877   9.314   6.317  10.386 -2.8794  1.8168  0.6684
39647SOL     OW23878   9.503  11.025   5.095 -0.1238  0.3821  0.3372
39647SOL    HW123879   9.513  11.118   5.073  2.3782  0.9718  3.2871
39647SOL    HW223880   9.589  10.987   5.077 -0.1558 -0.6121  2.0903
39648SOL     OW23881  11.574   9.922   9.638 -0.3604  0.2508  0.0242
39648SOL    HW123882  11.574   9.833   9.602  1.6435  0.4559 -0.6301
39648SOL    HW223883  11.545   9.977   9.565  0.4782  0.3308 -0.2592
39649SOL     OW23884   3.740   0.383  11.458  0.1941 -0.0703  0.0175
39649SOL    HW123885   3.823   0.384  11.504 -1.3687 -0.4339  3.1312
39649SOL    HW223886   3.712   0.291  11.459 -0.7690  0.2062  0.1193
39650SOL     OW23887  11.584   8.480  11.545 -0.1809  0.0902  0.5909
39650SOL    HW123888  11.537   8.540  11.487  0.6463  0.0826 -0.1190
39650SOL    HW223889  11.541   8.396  11.532  0.7733 -0.1982 -1.0223
39651SOL     OW23890   5.035   9.610   1.299 -0.1949 -0.7431 -0.0389
39651SOL    HW123891   5.013   9.692   1.255  0.3709 -1.5635 -1.9346
39651SOL    HW223892   5.009   9.542   1.237  0.5855 -1.9608  0.9225
39652SOL     OW23893  11.271  10.701   0.936  0.0844  0.2623 -0.1656
39652SOL    HW123894  11.227  10.728   1.016 -1.2036  1.7984 -1.3222
39652SOL    HW223895  11.305  10.614   0.955 -2.4263 -0.5035  1.2253
39653SOL     OW23896   7.821   8.508   2.619 -0.7574  0.1624  0.1807
39653SOL    HW123897   7.768   8.587   2.611 -0.0738  0.7010  0.7619
39653SOL    HW223898   7.758   8.436   2.620 -1.4408  0.7530  0.3845
39654SOL     OW23899   4.355  10.354   0.872  0.0527 -0.0296 -0.2529
39654SOL    HW123900   4.338  10.263   0.848 -2.5904  0.6049 -1.1407
39654SOL    HW223901   4.388  10.349   0.962 -0.6261 -1.8322 -0.0556
39655SOL     OW23902  10.432   4.745   2.849  0.3575  0.2654 -0.3146
39655SOL    HW123903  10.350   4.768   2.893  1.5223 -0.4379  2.4840
39655SOL    HW223904  10.419   4.654   2.821  0.1649  0.1560  0.1161
39656SOL     OW23905   1.120   0.887   2.396  0.0677  0.6018 -0.1484
39656SOL    HW123906   1.166   0.905   2.478  1.1868 -0.5727 -0.4876
39656SOL    HW223907   1.027   0.894   2.418  0.3324 -0.4175  1.4061
39657SOL     OW23908  11.556   9.727   4.813  0.6439 -0.2296 -0.2590
39657SOL    HW123909  11.562   9.808   4.762 -0.1534 -0.5691 -0.9056
39657SOL    HW223910  11.534   9.756   4.902 -0.5663  0.2232 -0.6908
39658SOL     OW23911   3.200   4.303   5.678  0.1420  0.2442  0.2109
39658SOL    HW123912   3.128   4.272   5.734 -0.7392  1.2543 -0.3136
39658SOL    HW223913   3.250   4.362   5.735  1.2477 -1.3170  0.9137
39659SOL     OW23914   4.375   0.580   1.453 -0.3563  0.3345  0.0594
39659SOL    HW123915   4.355   0.541   1.368 -0.8051 -0.4000  0.4914
39659SOL    HW223916   4.363   0.674   1.440 -0.1877  0.2525 -0.7485
39660SOL     OW23917   4.747   9.631   0.445 -0.0262  0.0547  0.5651
39660SOL    HW123918   4.659   9.606   0.474 -0.7093  0.3597 -1.1503
39660SOL    HW223919   4.804   9.563   0.481 -1.2615 -1.4202 -0.1876
39661SOL     OW23920   5.242   3.384   2.733 -0.2387  0.1591  0.4129
39661SOL    HW123921   5.282   3.341   2.657 -0.9567  1.8781 -0.9750
39661SOL    HW223922   5.167   3.329   2.755 -0.2363 -0.1490 -0.3317
39662SOL     OW23923  11.365   9.779   0.165  0.2008  0.1569  0.4308
39662SOL    HW123924  11.392   9.787   0.256  0.1048  1.5130  0.3533
39662SOL    HW223925  11.338   9.867   0.140 -2.2657 -0.7028 -0.1430
39663SOL     OW23926   5.785   3.946   2.281 -0.1020  0.7400 -0.0907
39663SOL    HW123927   5.699   3.981   2.304 -0.7089 -1.0237  0.5081
39663SOL    HW223928   5.767   3.857   2.249  1.4930  0.3460 -0.0074
39664SOL     OW23929   5.303   7.447   4.879 -0.3410 -0.2099 -0.2296
39664SOL    HW123930   5.296   7.478   4.789  0.5447 -0.6970 -0.4824
39664SOL    HW223931   5.373   7.381   4.877 -0.2939 -0.2215  0.8143
39665SOL     OW23932   2.734   5.709   2.057  0.0325 -0.1907  0.0125
39665SOL    HW123933   2.735   5.785   2.115  1.2629  0.8584 -1.3155
39665SOL    HW223934   2.790   5.734   1.983  0.4387 -2.3786 -0.4896
39666SOL     OW23935   1.051   3.312   6.943  0.7289  0.4057 -0.2392
39666SOL    HW123936   0.987   3.335   7.010  0.3998 -0.9193 -0.0777
39666SOL    HW223937   1.034   3.373   6.871 -0.6719  0.1138 -0.1704
39667SOL     OW23938   0.646   7.370   4.484  0.2161  0.9783 -0.0192
39667SOL    HW123939   0.557   7.365   4.518  0.7510  1.8786  1.6413
39667SOL    HW223940   0.681   7.281   4.493 -0.4432  0.6644 -0.5142
39668SOL     OW23941   7.469   9.438  11.652 -0.2313 -0.4655  0.1976
39668SOL    HW123942   7.453   9.500  11.581  0.4685 -0.6458 -0.1198
39668SOL    HW223943   7.471   9.493  11.731 -0.3102 -0.1750  0.0008
39669SOL     OW23944   1.127   9.672   9.225 -0.4190 -0.0382 -0.8430
39669SOL    HW123945   1.181   9.635   9.155  1.7762  1.0708  0.1647
39669SOL    HW223946   1.111   9.598   9.284  0.7324 -0.2267 -0.7484
39670SOL     OW23947   7.986   5.029   4.958  0.6558 -0.3019 -0.0395
39670SOL    HW123948   7.919   5.093   4.934  0.2332 -0.4612  0.6781
39670SOL    HW223949   8.021   5.061   5.041  1.0202 -0.5559 -0.0963
39671SOL     OW23950   2.788  11.426   3.818 -0.1907 -0.2269  0.5417
39671SOL    HW123951   2.759  11.380   3.896  1.6151 -1.3848  0.5877
39671SOL    HW223952   2.884  11.424   3.822 -0.0054  2.5786 -0.0507
39672SOL     OW23953   5.386   8.431   6.696 -0.0904  0.3721 -0.2330
39672SOL    HW123954   5.368   8.397   6.784 -0.2746  0.6057 -0.1803
39672SOL    HW223955   5.414   8.354   6.647 -0.2859  0.1814 -0.0517
39673SOL     OW23956   8.431   8.996   8.564  0.5771  0.1326 -0.2732
39673SOL    HW123957   8.387   8.980   8.647  0.3295 -1.3786 -0.6606
39673SOL    HW223958   8.504   8.935   8.562  0.0655 -0.4838 -1.5201
39674SOL     OW23959   8.326   6.151   1.366  0.2692  0.2751 -0.1676
39674SOL    HW123960   8.351   6.210   1.295  2.0746  1.3080  1.2608
39674SOL    HW223961   8.391   6.080   1.361 -0.0116  0.0018  0.0538
39675SOL     OW23962  11.137   7.206   2.813  0.2750  0.5826  0.2239
39675SOL    HW123963  11.044   7.187   2.800 -0.2111  0.7792  2.7806
39675SOL    HW223964  11.171   7.127   2.856  1.1723  0.7310 -0.1924
39676SOL     OW23965   1.728   2.174   6.116 -0.1729  0.1996 -0.0719
39676SOL    HW123966   1.658   2.213   6.064 -0.0181  1.3117  0.5205
39676SOL    HW223967   1.747   2.240   6.183  0.9004 -0.4197  0.2513
39677SOL     OW23968  10.559   4.207   9.960  0.4632  0.3395  0.1028
39677SOL    HW123969  10.517   4.180  10.042  1.3833 -0.8419  0.2185
39677SOL    HW223970  10.512   4.286   9.933 -2.7524 -1.5727 -0.4625
39678SOL     OW23971   7.049   8.999   6.390 -0.1107 -0.1544  0.4056
39678SOL    HW123972   7.120   9.059   6.367 -0.4332  0.4489  0.9606
39678SOL    HW223973   6.971   9.054   6.397 -0.3852 -0.6088  1.0634
39679SOL     OW23974   1.374  10.947   7.345  0.4203 -0.1473 -0.1032
39679SOL    HW123975   1.388  11.040   7.365 -1.2844  0.2597 -0.6509
39679SOL    HW223976   1.403  10.937   7.255  0.9329 -0.2279  0.0699
39680SOL     OW23977   4.423   5.220   9.121 -0.3557 -0.9312 -0.3347
39680SOL    HW123978   4.342   5.271   9.118 -0.6373 -1.3132  0.4789
39680SOL    HW223979   4.396   5.131   9.100 -0.2358 -1.1543  0.4371
39681SOL     OW23980   8.891  10.965   1.467 -0.2390  0.1010  0.0656
39681SOL    HW123981   8.907  10.913   1.388 -0.2877 -0.6546  0.5418
39681SOL    HW223982   8.811  11.013   1.449 -0.2326 -0.0425 -0.3553
39682SOL     OW23983   8.192   5.782   4.380  0.2265 -0.3376  0.2788
39682SOL    HW123984   8.184   5.709   4.442  1.2036 -0.3166  0.4442
39682SOL    HW223985   8.102   5.804   4.357 -0.1109 -1.0084  0.9226
39683SOL     OW23986   4.404   3.774   3.566  0.3956  0.4255  0.1486
39683SOL    HW123987   4.318   3.750   3.602  0.6744  1.6228  1.7201
39683SOL    HW223988   4.410   3.724   3.485 -1.9538  0.6136 -0.2191
39684SOL     OW23989   1.837   3.580   5.252 -0.1116 -0.6496 -0.0241
39684SOL    HW123990   1.903   3.511   5.267 -2.3597 -3.1016 -0.6862
39684SOL    HW223991   1.775   3.569   5.324 -0.0346  1.4287  0.4185
39685SOL     OW23992   6.987   3.508   7.270  0.0863  0.0969 -0.5841
39685SOL    HW123993   7.012   3.513   7.363 -1.3043 -0.1894 -0.1697
39685SOL    HW223994   7.048   3.446   7.232 -1.7142 -2.8815  1.0408
39686SOL     OW23995   0.248   5.498  10.160  0.3844 -0.1477  0.2095
39686SOL    HW123996   0.281   5.408  10.156 -0.0315 -0.3560  1.1430
39686SOL    HW223997   0.214   5.506  10.249 -0.5010  0.6125 -0.1914
39687SOL     OW23998   6.129   0.471   5.875 -0.3260 -0.2211  0.9025
39687SOL    HW123999   6.191   0.532   5.915 -1.1072  2.5116 -1.7427
39687SOL    HW224000   6.176   0.435   5.800 -0.3816 -1.8373  1.6115
39688SOL     OW24001   2.418   1.842   3.123 -0.8937 -0.3974  0.6051
39688SOL    HW124002   2.363   1.899   3.177 -1.1177  1.1234 -1.1169
39688SOL    HW224003   2.420   1.886   3.037  1.4973 -1.3899  0.0917
39689SOL     OW24004   3.447   8.503   2.916  0.5610  0.2193  0.2513
39689SOL    HW124005   3.498   8.492   2.996  0.0457 -1.3688  0.3952
39689SOL    HW224006   3.365   8.543   2.945  0.7985  0.6556  0.3404
39690SOL     OW24007  10.262   9.131   7.248 -0.2818 -0.0007 -0.1749
39690SOL    HW124008  10.294   9.185   7.320  1.3632 -0.2533 -0.6897
39690SOL    HW224009  10.287   9.178   7.169  2.0750 -1.8943 -0.6746
39691SOL     OW24010   0.005   3.527   6.075 -0.6092 -0.7110  0.1646
39691SOL    HW124011   0.001   3.530   5.980 -3.1361 -1.0840  0.1929
39691SOL    HW224012  -0.034   3.442   6.098  0.2279 -0.7567  1.5296
39692SOL     OW24013   5.045   1.316   0.682  0.1464 -0.3918  0.6757
39692SOL    HW124014   5.121   1.375   0.677 -0.7655  0.7746  0.2032
39692SOL    HW224015   5.059   1.254   0.611  0.0889  0.5533 -0.1946
39693SOL     OW24016   0.669   9.389   1.117  0.6660 -0.4027 -0.0270
39693SOL    HW124017   0.702   9.309   1.158 -1.1427 -0.6870  0.9856
39693SOL    HW224018   0.671   9.370   1.024 -0.3357 -1.9107  0.2220
39694SOL     OW24019   6.363   3.627  11.476  0.0001  0.0147 -0.1109
39694SOL    HW124020   6.365   3.540  11.517  0.9014  0.1066  0.0558
39694SOL    HW224021   6.373   3.609  11.383 -0.8701 -0.1193 -0.1880
39695SOL     OW24022   6.719   6.386   8.427  0.1948 -0.3824  0.0416
39695SOL    HW124023   6.768   6.303   8.431  1.0142 -0.0068 -1.3927
39695SOL    HW224024   6.784   6.451   8.399 -0.1443  1.0251  2.3123
39696SOL     OW24025   5.222   4.708   3.344  0.0383  0.2631 -0.3159
39696SOL    HW124026   5.162   4.732   3.414  0.9611  1.8617 -0.0249
39696SOL    HW224027   5.299   4.674   3.389  0.8688  1.8344 -0.4769
39697SOL     OW24028   2.878   7.114   1.136 -0.3749  0.0162 -0.3544
39697SOL    HW124029   2.840   7.040   1.183  0.3719  0.0898  0.3750
39697SOL    HW224030   2.804   7.154   1.089 -0.5114 -2.2772 -2.2780
39698SOL     OW24031   0.219   1.509   2.842  0.2858 -0.0293  0.1467
39698SOL    HW124032   0.278   1.434   2.848  2.4242  1.6597  1.7145
39698SOL    HW224033   0.219   1.533   2.749 -1.5850 -2.7046 -0.6693
39699SOL     OW24034   3.762   2.698   3.380 -0.5243 -0.4007 -0.2375
39699SOL    HW124035   3.718   2.762   3.324 -1.0296 -1.6883 -1.3782
39699SOL    HW224036   3.803   2.637   3.319 -0.3315 -1.3452  0.8026
39700SOL     OW24037   0.099   9.376   5.218 -0.1197 -0.6784  0.3466
39700SOL    HW124038   0.040   9.444   5.187  2.6299  1.7994  0.1365
39700SOL    HW224039   0.082   9.370   5.312 -0.9408 -0.2940  0.2301
39701SOL     OW24040  11.036  10.685   4.067 -0.6721 -0.1685  0.1259
39701SOL    HW124041  11.075  10.772   4.057 -0.3141 -0.2593  0.6671
39701SOL    HW224042  11.079  10.632   4.000  0.2611 -0.2967  0.7948
39702SOL     OW24043   6.730   3.867   8.796  0.0544  0.3235  0.3906
39702SOL    HW124044   6.789   3.942   8.793 -0.5560  0.9179  2.1348
39702SOL    HW224045   6.729   3.841   8.888 -0.7999 -0.9870  0.0417
39703SOL     OW24046   1.893   2.176   1.928  0.2133 -0.3644  0.5291
39703SOL    HW124047   1.832   2.114   1.967  1.2000  0.1937  3.1898
39703SOL    HW224048   1.977   2.130   1.929  0.3036 -0.2737 -0.8986
39704SOL     OW24049   7.731   1.413   7.129  0.0054 -0.4132  0.2824
39704SOL    HW124050   7.795   1.429   7.060  0.5388 -1.5587  0.4863
39704SOL    HW224051   7.658   1.472   7.109 -0.0200 -0.9882 -1.4849
39705SOL     OW24052   5.970   6.591   1.898  0.2408 -0.1952  0.6232
39705SOL    HW124053   5.978   6.593   1.803 -2.0294 -0.1212  0.3737
39705SOL    HW224054   6.057   6.568   1.929  0.9446 -0.5981 -1.4913
39706SOL     OW24055  10.770   7.158   7.687  0.1029 -0.5320  0.2569
39706SOL    HW124056  10.745   7.077   7.733 -0.4931 -0.6747 -0.3161
39706SOL    HW224057  10.807   7.213   7.756  1.9101 -1.8478  0.4258
39707SOL     OW24058   6.665   4.856   4.853 -0.7261  0.4012 -0.0019
39707SOL    HW124059   6.629   4.802   4.923 -0.7799 -0.7752 -0.9144
39707SOL    HW224060   6.593   4.865   4.790 -1.2690  2.9156  0.8397
39708SOL     OW24061  10.060  11.429   0.303 -0.0620  0.3221  0.3077
39708SOL    HW124062  10.021  11.516   0.307  1.8197  1.3398 -1.4240
39708SOL    HW224063  10.018  11.387   0.227 -0.3393  0.0375  0.6133
39709SOL     OW24064   0.389  11.358   4.647  0.1219 -0.3986  0.3513
39709SOL    HW124065   0.459  11.297   4.668  0.4872  0.2872  1.2305
39709SOL    HW224066   0.402  11.431   4.708 -0.6112  0.3127 -0.3096
39710SOL     OW24067   7.658   0.568  11.481 -0.5484 -0.5198  0.3948
39710SOL    HW124068   7.643   0.653  11.439  0.3046 -0.0515  1.0125
39710SOL    HW224069   7.582   0.515  11.456 -1.5695  0.7244  0.7664
39711SOL     OW24070   2.134   1.885   0.375 -0.1086  0.5769 -0.2646
39711SOL    HW124071   2.163   1.846   0.458  2.8703  0.2158 -1.3612
39711SOL    HW224072   2.122   1.978   0.395  1.1239  0.5930  0.4688
39712SOL     OW24073   5.555   9.331   8.774 -0.1401  0.7252  0.2804
39712SOL    HW124074   5.558   9.364   8.684 -1.1404 -1.1885 -0.5262
39712SOL    HW224075   5.641   9.294   8.789  0.5052  2.3110  0.6654
39713SOL     OW24076  11.260   8.388   0.421 -0.1052  0.2965  0.3199
39713SOL    HW124077  11.178   8.355   0.384 -0.2205  1.2647 -0.3376
39713SOL    HW224078  11.232   8.448   0.491  0.1120 -1.4561  1.9718
39714SOL     OW24079   6.686  11.216  11.306  0.2507 -0.6451  0.0354
39714SOL    HW124080   6.607  11.200  11.254  0.1640  1.4687 -0.5689
39714SOL    HW224081   6.663  11.290  11.362  0.9789 -1.6674  1.7701
39715SOL     OW24082   4.228   9.199   1.738  0.0376  0.0706  0.3360
39715SOL    HW124083   4.134   9.201   1.755  0.0909  0.3000  0.6182
39715SOL    HW224084   4.237   9.149   1.657 -0.4824  1.6440 -0.7395
39716SOL     OW24085  10.340   2.658   4.215  0.4130  0.3566  0.2815
39716SOL    HW124086  10.310   2.710   4.289 -0.4291  0.3671 -0.0581
39716SOL    HW224087  10.431   2.637   4.236  1.0313  2.5634  0.1042
39717SOL     OW24088   4.924   5.409   0.004  0.4380  0.5356  0.3648
39717SOL    HW124089   4.970   5.339  -0.043 -0.4860 -0.7569  1.3172
39717SOL    HW224090   4.965   5.489  -0.027  2.9592 -0.5113  0.7436
39718SOL     OW24091   1.524   3.865   6.690  0.0446  0.6567 -0.8155
39718SOL    HW124092   1.523   3.870   6.595 -0.3806  0.2298 -0.8385
39718SOL    HW224093   1.599   3.808   6.710 -2.0042 -2.3843 -1.0996
39719SOL     OW24094  10.260   2.960  10.903  0.6555 -0.1593 -0.2705
39719SOL    HW124095  10.242   2.897  10.833  0.7429  0.5939 -0.9803
39719SOL    HW224096  10.223   2.920  10.982  1.8848 -1.7397 -0.4307
39720SOL     OW24097   1.382   0.106   6.716 -0.1750 -0.1812  0.2901
39720SOL    HW124098   1.472   0.134   6.726 -0.1142 -0.5336  0.7760
39720SOL    HW224099   1.334   0.154   6.784 -0.1440 -0.8813  0.8280
39721SOL     OW24100   7.384   1.618  10.201  0.1228 -0.2498 -0.5333
39721SOL    HW124101   7.346   1.551  10.257 -0.5182 -0.0544 -0.7186
39721SOL    HW224102   7.319   1.688  10.201  0.4217  0.0313 -0.9799
39722SOL     OW24103   8.001   8.115   4.593 -0.2796  0.0759 -0.2429
39722SOL    HW124104   8.065   8.125   4.523  0.2365 -1.5247 -0.0498
39722SOL    HW224105   8.034   8.171   4.664 -1.1167  2.1632 -1.4179
39723SOL     OW24106   4.995   3.987   4.221 -0.2860 -0.1215  0.0509
39723SOL    HW124107   4.924   3.993   4.285 -0.9746  0.3616 -0.7461
39723SOL    HW224108   5.067   4.036   4.260 -0.4166 -0.5098  0.8101
39724SOL     OW24109   1.215   4.007   6.926  0.3753  0.0258 -0.0075
39724SOL    HW124110   1.286   4.059   6.888  0.6670  0.5792  1.2429
39724SOL    HW224111   1.218   3.924   6.878  2.4764 -0.3244  0.6202
39725SOL     OW24112   5.423   6.003   1.210  0.1792 -0.6949  0.2349
39725SOL    HW124113   5.370   5.975   1.135  2.8181  0.5617 -2.3002
39725SOL    HW224114   5.396   6.094   1.225  0.3063 -0.6522  0.1992
39726SOL     OW24115   2.005   3.631   0.197  0.4389  0.3698 -0.4130
39726SOL    HW124116   2.041   3.587   0.119 -1.5367 -3.2515  0.4816
39726SOL    HW224117   1.914   3.650   0.174 -0.3693 -1.3380  1.0785
39727SOL     OW24118   5.389   4.573   2.280  0.5113 -0.5233 -0.8518
39727SOL    HW124119   5.382   4.506   2.213  0.2942 -0.0851 -1.2730
39727SOL    HW224120   5.314   4.557   2.338  0.9589 -1.1866 -0.4418
39728SOL     OW24121   8.181   6.079   2.709 -0.0339 -0.2923  0.0742
39728SOL    HW124122   8.098   6.037   2.684  0.0313  0.3202 -1.2347
39728SOL    HW224123   8.232   6.082   2.628  0.8100  0.3922  0.6169
39729SOL     OW24124   3.481   6.418   2.915  0.1773  0.0998  0.2476
39729SOL    HW124125   3.573   6.394   2.908 -0.3548 -1.5864 -2.0671
39729SOL    HW224126   3.458   6.397   3.006  1.5532 -1.4689  0.2830
39730SOL     OW24127   9.831   7.678   6.114 -0.1711  0.0386 -0.3070
39730SOL    HW124128   9.785   7.692   6.031 -0.7517 -1.1314 -0.2039
39730SOL    HW224129   9.923   7.691   6.093 -0.0470 -2.6044 -1.7469
39731SOL     OW24130   3.758   3.952   2.411  0.3783  0.0165 -0.4692
39731SOL    HW124131   3.716   3.924   2.492 -0.0986 -0.9336 -1.0265
39731SOL    HW224132   3.797   4.037   2.432 -1.0155  0.4924  0.3449
39732SOL     OW24133   1.253   1.171   6.194 -0.2848 -0.5824  0.2358
39732SOL    HW124134   1.219   1.095   6.147 -0.7541  0.1746 -0.6765
39732SOL    HW224135   1.328   1.200   6.142  0.3208 -0.8254  0.9574
39733SOL     OW24136   5.562   0.422   1.829  0.6022 -0.0829 -0.0298
39733SOL    HW124137   5.522   0.457   1.909  0.5712 -2.0961  0.9068
39733SOL    HW224138   5.526   0.476   1.759  1.3357  2.3570  1.3338
39734SOL     OW24139   6.878   2.925   4.561 -0.2038  0.5713  0.2269
39734SOL    HW124140   6.941   2.969   4.619 -1.5882  0.7524  1.6702
39734SOL    HW224141   6.824   2.996   4.526  0.7191  0.4809 -1.4812
39735SOL     OW24142   0.906   0.173   3.724 -0.1102  0.1321 -0.6834
39735SOL    HW124143   0.918   0.243   3.660  1.5314  1.2334  0.7146
39735SOL    HW224144   0.830   0.200   3.775  0.0980  0.5631 -0.5928
39736SOL     OW24145   0.884  10.393   7.217 -0.0563  0.5757  0.0739
39736SOL    HW124146   0.896  10.486   7.234 -0.0572  0.1323  3.0041
39736SOL    HW224147   0.924  10.349   7.292  0.3534 -1.8323 -1.4356
39737SOL     OW24148   2.590   3.457   0.935  0.3404  0.4516 -0.0896
39737SOL    HW124149   2.619   3.545   0.960 -0.3069  0.9583 -1.0874
39737SOL    HW224150   2.564   3.465   0.844  0.8536 -0.9302 -0.3802
39738SOL     OW24151   9.281   5.131   3.806 -0.5031  0.7487 -0.1044
39738SOL    HW124152   9.204   5.177   3.773 -0.7281  1.3002  1.1441
39738SOL    HW224153   9.248   5.078   3.879  0.1806  0.4447 -0.0111
39739SOL     OW24154  10.683   4.033   7.372 -0.5047 -0.2167  0.6680
39739SOL    HW124155  10.733   4.103   7.415 -0.7376  0.8116 -0.6914
39739SOL    HW224156  10.646   3.983   7.445  1.1478 -0.0468  1.6998
39740SOL     OW24157   0.517   2.921   3.909 -0.2243  0.4883  0.3045
39740SOL    HW124158   0.517   2.879   3.823  0.8458  2.3158 -0.6659
39740SOL    HW224159   0.436   2.893   3.950 -0.5334 -0.8110 -1.1038
39741SOL     OW24160   6.525  10.674  10.271 -0.3312 -0.6170 -1.1148
39741SOL    HW124161   6.582  10.724  10.212 -1.0837  0.0155 -1.3284
39741SOL    HW224162   6.445  10.726  10.277  0.0593 -0.1422  1.2439
39742SOL     OW24163   7.925  11.126   6.137 -0.1493 -0.1526  0.3992
39742SOL    HW124164   7.954  11.126   6.229  1.5750 -0.7349 -0.1127
39742SOL    HW224165   8.004  11.143   6.087 -1.0220 -0.1258 -1.0194
39743SOL     OW24166   2.435   1.061   0.725  0.1296  0.8425  0.0165
39743SOL    HW124167   2.446   1.086   0.633  0.0021 -1.3014 -0.6625
39743SOL    HW224168   2.358   1.109   0.755  0.2069  1.6104 -0.9917
39744SOL     OW24169   2.944   9.727   4.263  0.0231  0.3881  0.2545
39744SOL    HW124170   2.943   9.632   4.268 -1.1175  0.3778  0.1411
39744SOL    HW224171   2.893   9.748   4.185 -1.6931  1.1250  1.4955
39745SOL     OW24172   7.324   3.581  10.990  0.7379  0.5356 -0.1366
39745SOL    HW124173   7.387   3.571  10.918  0.6442  3.0202 -0.6457
39745SOL    HW224174   7.376   3.617  11.062  0.4470 -0.1120  0.4030
39746SOL     OW24175   8.070  10.384   9.225 -0.2753  0.1917  0.0969
39746SOL    HW124176   8.148  10.331   9.208  0.1780  0.0507  2.3298
39746SOL    HW224177   7.996  10.326   9.207  0.0636  0.4514 -2.4294
39747SOL     OW24178   6.151   9.334   0.202  0.7939  0.0562 -0.8860
39747SOL    HW124179   6.071   9.384   0.217 -0.7128 -2.3294 -0.2810
39747SOL    HW224180   6.165   9.287   0.284 -0.1382 -3.3812 -2.5137
39748SOL     OW24181  10.521   8.130  11.371  0.0996  0.1932  0.1825
39748SOL    HW124182  10.487   8.043  11.350  0.2124 -0.0667  1.0424
39748SOL    HW224183  10.470   8.158  11.446  1.6465 -0.1458  1.4078
39749SOL     OW24184   0.370   0.106   0.466 -0.3556  0.4801  0.3142
39749SOL    HW124185   0.425   0.056   0.528  0.5597  1.3064  0.1842
39749SOL    HW224186   0.432   0.156   0.413 -1.0149 -1.1378 -2.1597
39750SOL     OW24187   5.500   3.430   9.101  0.1405  0.5377 -0.1531
39750SOL    HW124188   5.593   3.448   9.119  0.7457 -0.7782 -1.7187
39750SOL    HW224189   5.491   3.336   9.114 -0.6698  0.4441 -1.2598
39751SOL     OW24190   9.464   9.446   4.470 -0.1458 -0.3697  0.4183
39751SOL    HW124191   9.486   9.390   4.544  1.0905 -0.1554  0.2249
39751SOL    HW224192   9.413   9.390   4.412 -0.5301 -0.7341  1.0908
39752SOL     OW24193   0.445   1.893   2.848 -0.1156 -0.0253  0.3804
39752SOL    HW124194   0.490   1.835   2.909 -0.1801  1.0080  1.4417
39752SOL    HW224195   0.477   1.980   2.869  0.3786  0.3160 -1.5405
39753SOL     OW24196   2.645   3.926   0.671 -0.1918 -0.2818  0.2384
39753SOL    HW124197   2.605   3.844   0.699 -1.4291  0.2740  0.1834
39753SOL    HW224198   2.571   3.979   0.640  0.9654 -0.7657 -3.9807
39754SOL     OW24199   3.911  11.163   8.858  0.3487  0.2153  0.2443
39754SOL    HW124200   3.901  11.122   8.944 -0.3237  0.2478  0.1825
39754SOL    HW224201   3.863  11.245   8.864  1.5121  0.9189  0.2928
39755SOL     OW24202   8.808   9.779   1.298 -0.1543 -0.0990  0.1826
39755SOL    HW124203   8.830   9.770   1.206  2.6311 -0.7463  0.8007
39755SOL    HW224204   8.883   9.825   1.337  0.0089 -2.0564  2.4902
39756SOL     OW24205   1.779   8.683   9.170 -0.6036 -0.4844  0.2212
39756SOL    HW124206   1.727   8.636   9.105 -0.0060 -0.3846 -0.3396
39756SOL    HW224207   1.807   8.616   9.232 -0.1970 -0.7848 -0.2796
39757SOL     OW24208   3.159   9.707   6.102 -0.2701 -0.1620 -0.0754
39757SOL    HW124209   3.154   9.626   6.052 -0.2903  0.3639 -0.9492
39757SOL    HW224210   3.116   9.772   6.046  0.4615  0.6224  0.2518
39758SOL     OW24211   4.188   7.867  10.894 -0.2018  0.0694  0.0029
39758SOL    HW124212   4.212   7.953  10.928 -0.5777  0.0800  0.2503
39758SOL    HW224213   4.092   7.869  10.890 -0.1561  0.7045 -2.6827
39759SOL     OW24214   5.134   1.139   5.218  0.5283  0.1607  0.1721
39759SOL    HW124215   5.195   1.180   5.156 -1.2665  1.3741 -0.8845
39759SOL    HW224216   5.118   1.052   5.181 -1.3411  1.2446 -1.7625
39760SOL     OW24217   2.862   1.993   4.466 -0.1533 -0.0932  0.2878
39760SOL    HW124218   2.861   1.919   4.405 -1.1485 -1.8827  2.3282
39760SOL    HW224219   2.943   2.040   4.446 -0.2514 -0.8366 -2.0825
39761SOL     OW24220   5.697   5.265   7.973  0.1931  0.0849  0.1635
39761SOL    HW124221   5.645   5.185   7.968 -0.3679  0.4772 -0.2565
39761SOL    HW224222   5.633   5.335   7.982  0.6561  0.5542 -0.1772
39762SOL     OW24223  10.668   9.775   0.914  0.7993  0.2291 -0.0484
39762SOL    HW124224  10.733   9.839   0.944  0.1664  0.4853  0.8294
39762SOL    HW224225  10.717   9.693   0.904  1.5341  0.7451 -0.7906
39763SOL     OW24226   1.779   9.797   5.818 -0.6170 -0.3667 -0.3652
39763SOL    HW124227   1.749   9.885   5.793 -0.1794 -0.2047 -0.3346
39763SOL    HW224228   1.832   9.812   5.896 -1.6047 -0.8156  0.4133
39764SOL     OW24229  10.588   5.273  10.136 -0.4486  0.0021 -0.1644
39764SOL    HW124230  10.663   5.332  10.150 -0.3065 -0.2940  0.3448
39764SOL    HW224231  10.598   5.205  10.202 -0.9252 -0.2899 -0.3854
39765SOL     OW24232   1.075   7.433   4.752  0.0298  0.2027  0.2209
39765SOL    HW124233   1.166   7.422   4.724  0.0654 -0.1722  0.4743
39765SOL    HW224234   1.073   7.396   4.841 -0.3773  0.1734  0.1996
39766SOL     OW24235   1.148   2.552   4.483 -0.2626 -0.1724  0.7489
39766SOL    HW124236   1.227   2.603   4.463  0.2508 -1.3985 -0.5951
39766SOL    HW224237   1.092   2.612   4.531 -0.5491  2.3696 -2.4099
39767SOL     OW24238   7.091   4.892  11.410  0.2888 -0.7484  0.0885
39767SOL    HW124239   7.175   4.853  11.434  0.1913 -1.3894 -0.5580
39767SOL    HW224240   7.038   4.886  11.489  0.8429 -0.3604  0.4930
39768SOL     OW24241  11.647  10.362   2.808  0.3111  0.4770  0.2288
39768SOL    HW124242  11.559  10.325   2.812  0.7903 -0.7598 -0.2178
39768SOL    HW224243  11.653  10.419   2.885 -1.1040  1.1281 -0.1138
39769SOL     OW24244   4.562   0.332   3.908 -0.2645  0.0677 -0.0129
39769SOL    HW124245   4.481   0.361   3.951  0.1147  0.5711  0.3741
39769SOL    HW224246   4.561   0.378   3.824 -1.3611 -1.4608 -0.8973
39770SOL     OW24247   2.474   5.720   6.570 -0.2538 -0.1651 -0.0154
39770SOL    HW124248   2.427   5.802   6.585 -1.4950 -1.1202  1.6461
39770SOL    HW224249   2.557   5.731   6.616 -0.6348 -0.0116  0.6460
39771SOL     OW24250   3.083   7.568   8.421 -0.6475  0.1858  0.1297
39771SOL    HW124251   3.086   7.481   8.460 -0.9417  0.7005  1.3412
39771SOL    HW224252   3.174   7.588   8.399 -0.5708 -0.3954 -0.1016
39772SOL     OW24253   5.561   6.366   1.397  0.4485  0.8750  0.6972
39772SOL    HW124254   5.629   6.320   1.347  1.1091  1.7762  0.7446
39772SOL    HW224255   5.606   6.404   1.472  0.1615  2.4866  0.1131
39773SOL     OW24256   5.067   4.886  11.068 -0.3933 -0.3395 -0.4726
39773SOL    HW124257   4.971   4.886  11.065 -0.3732  0.2298 -1.3374
39773SOL    HW224258   5.093   4.859  10.980  0.2378  1.1684 -0.7723
39774SOL     OW24259   9.759   4.460   5.022  0.5348 -0.3285 -0.1950
39774SOL    HW124260   9.710   4.526   4.973  0.2037 -0.0304  0.5283
39774SOL    HW224261   9.759   4.492   5.112  1.3570 -0.7424 -0.0375
39775SOL     OW24262   2.554   2.924  11.442  0.1181 -0.1297 -0.0412
39775SOL    HW124263   2.528   3.006  11.400  0.3894 -1.2891 -2.7320
39775SOL    HW224264   2.647   2.933  11.459 -0.1344  0.6183  0.9859
39776SOL     OW24265   7.114   1.069   8.019  0.2616  0.6031 -0.3419
39776SOL    HW124266   7.069   1.138   7.970 -0.4437  1.7220  1.7396
39776SOL    HW224267   7.205   1.077   7.993  0.3496  2.9275  0.4273
39777SOL     OW24268  10.923   7.583   9.725 -0.1338  0.5865 -0.1545
39777SOL    HW124269  10.960   7.497   9.704  2.0662  1.0827  1.3330
39777SOL    HW224270  10.868   7.568   9.802  1.2439  0.6488  0.8844
39778SOL     OW24271   3.096   8.663   4.486 -0.2535  0.2043  0.0951
39778SOL    HW124272   3.137   8.625   4.563 -2.6087 -0.0160  1.3221
39778SOL    HW224273   3.078   8.589   4.429  0.0846  0.1733  0.0273
39779SOL     OW24274   6.947   6.950   9.381 -0.1929 -0.6763  0.0475
39779SOL    HW124275   6.881   6.952   9.450 -0.3214 -0.6590 -0.0731
39779SOL    HW224276   6.907   6.896   9.312  0.0103 -0.8487  0.0639
39780SOL     OW24277  10.588   5.613   2.935  0.2385  0.3149 -0.3803
39780SOL    HW124278  10.498   5.592   2.962 -0.6011  3.2912 -0.5076
39780SOL    HW224279  10.628   5.649   3.014  0.9676  0.0786 -0.6401
39781SOL     OW24280  10.939   6.818   0.911 -0.2770  0.5869  0.3273
39781SOL    HW124281  10.941   6.820   1.007 -1.5742  0.8582  0.3658
39781SOL    HW224282  10.980   6.734   0.888  0.8570  0.9177  1.0720
39782SOL     OW24283   1.588   4.531   4.286 -0.0903 -0.3660 -0.4090
39782SOL    HW124284   1.612   4.438   4.289  1.6126  0.0759  1.9390
39782SOL    HW224285   1.627   4.563   4.204 -1.4074 -1.8302 -1.6818
39783SOL     OW24286   4.495  11.252   6.492 -0.4605  0.1389  0.3164
39783SOL    HW124287   4.499  11.245   6.587 -1.8114 -0.9959  0.3247
39783SOL    HW224288   4.405  11.277   6.472 -0.1915  0.3952 -0.6658
39784SOL     OW24289   4.497   5.696  10.096  0.1377  0.0405 -0.2623
39784SOL    HW124290   4.524   5.631  10.031  0.0686 -1.1191  0.8261
39784SOL    HW224291   4.515   5.780  10.055  2.2538 -0.6608 -0.9037
39785SOL     OW24292   9.553   8.324  10.943  0.4182 -0.0071  0.5414
39785SOL    HW124293   9.591   8.289  10.862 -0.5561 -1.7028  0.7579
39785SOL    HW224294   9.537   8.416  10.924 -0.6483 -0.5526 -1.5668
39786SOL     OW24295   0.971  11.358   6.055 -0.6032  0.3194  0.3048
39786SOL    HW124296   0.918  11.297   6.004 -1.7876  0.6835  1.0688
39786SOL    HW224297   1.048  11.307   6.080 -1.5283 -0.8619  0.8547
39787SOL     OW24298   3.045   8.497   2.520  0.2750 -0.0392 -0.0176
39787SOL    HW124299   3.003   8.436   2.459 -0.1554  0.8833 -0.6623
39787SOL    HW224300   2.972   8.539   2.565  0.5806 -0.2565  0.6825
39788SOL     OW24301   1.016   2.374   0.995 -0.1096 -0.1722  0.0356
39788SOL    HW124302   0.922   2.359   0.985 -0.0898 -0.4030  0.1750
39788SOL    HW224303   1.037   2.440   0.929  0.1238 -2.0560 -1.8945
39789SOL     OW24304   9.219   2.848   3.243  0.4527  0.1722  0.7689
39789SOL    HW124305   9.290   2.792   3.276 -1.0127 -1.7532  0.8570
39789SOL    HW224306   9.254   2.884   3.162  2.2321  0.8765  1.7812
39790SOL     OW24307   5.853   5.071   0.028 -0.4563 -0.3201 -0.0433
39790SOL    HW124308   5.889   4.982   0.026  1.8511  0.4807  1.9782
39790SOL    HW224309   5.783   5.067   0.093  0.5498 -0.3666  1.0484
39791SOL     OW24310   6.057   6.184   9.668  0.1571 -0.9449 -0.4584
39791SOL    HW124311   6.121   6.248   9.697 -0.8832 -0.2619  0.4255
39791SOL    HW224312   6.096   6.143   9.591  1.6424 -0.5676  0.0665
39792SOL     OW24313   1.807   5.929  11.546 -0.1981  0.6040  0.0600
39792SOL    HW124314   1.839   5.999  11.605 -0.2791  0.4099  0.3369
39792SOL    HW224315   1.826   5.962  11.458  0.6076  0.5752  0.2151
39793SOL     OW24316   5.545   5.628   2.895  0.0402  0.3331 -0.1289
39793SOL    HW124317   5.602   5.632   2.972 -1.4165 -0.4846  1.0259
39793SOL    HW224318   5.587   5.564   2.838  0.3743 -0.1325  0.6278
39794SOL     OW24319   5.725   4.190   7.551 -0.1859 -0.1659  0.4503
39794SOL    HW124320   5.789   4.173   7.481  1.9786  0.1770  2.2416
39794SOL    HW224321   5.752   4.274   7.588 -1.4671 -0.1911  1.4972
39795SOL     OW24322   4.458   7.576   1.091  0.1036  0.2479 -0.9632
39795SOL    HW124323   4.382   7.557   1.146 -1.1495  0.0448 -2.6760
39795SOL    HW224324   4.527   7.521   1.126 -1.0124 -0.8451 -0.3990
39796SOL     OW24325   5.268   8.844   1.488  0.2911 -0.0405  0.0062
39796SOL    HW124326   5.351   8.840   1.439  1.6881  0.8174  2.1410
39796SOL    HW224327   5.277   8.777   1.555  0.2278  1.4808  1.6058
39797SOL     OW24328  10.136   7.350   1.387 -0.3482  0.0106 -0.5741
39797SOL    HW124329  10.128   7.262   1.348  0.9744 -0.7586  0.7931
39797SOL    HW224330  10.230   7.359   1.404 -0.6650  1.1061  0.6374
39798SOL     OW24331   5.450   0.398   5.468 -0.4698 -0.1647 -0.6760
39798SOL    HW124332   5.456   0.303   5.463 -0.2548 -0.2962  1.1863
39798SOL    HW224333   5.363   0.415   5.506  0.8259  0.1141  2.5158
39799SOL     OW24334   8.756   1.000   9.654 -0.0832  0.3470 -0.0146
39799SOL    HW124335   8.666   1.031   9.655 -0.3523 -0.4322  1.1850
39799SOL    HW224336   8.754   0.918   9.605  0.2848  1.1266 -1.4104
39800SOL     OW24337   8.970   2.757   4.756 -0.4508  0.3171  0.7512
39800SOL    HW124338   8.927   2.843   4.756 -1.3859 -0.1290  1.2252
39800SOL    HW224339   8.915   2.704   4.698  0.4515  0.1757 -0.0098
39801SOL     OW24340   4.068   1.886   7.021 -0.2677 -0.4722 -0.4048
39801SOL    HW124341   4.110   1.813   6.974  0.4822 -0.1680 -0.2155
39801SOL    HW224342   3.978   1.885   6.989 -0.0924 -1.0602 -0.9187
39802SOL     OW24343   0.454   6.965   4.597  0.6338  0.0550  0.5114
39802SOL    HW124344   0.466   6.990   4.506  0.0297  0.3379  0.5017
39802SOL    HW224345   0.483   6.874   4.601 -2.7128 -1.2590 -0.8369
39803SOL     OW24346   2.586   0.048   3.858  0.2581  0.2200  0.0968
39803SOL    HW124347   2.582   0.140   3.835  0.5044  0.1698 -0.1495
39803SOL    HW224348   2.583   0.047   3.954 -0.8412  0.4260  0.0771
39804SOL     OW24349   6.903   8.776   2.163 -0.3898 -0.1737 -0.1128
39804SOL    HW124350   6.921   8.852   2.107 -2.3118 -1.3971 -2.6352
39804SOL    HW224351   6.972   8.714   2.142  0.0446  0.1324  0.4145
39805SOL     OW24352  10.119   7.672   5.424  0.2424 -0.7799 -0.0734
39805SOL    HW124353  10.201   7.712   5.394  0.0827  0.1651  0.7055
39805SOL    HW224354  10.134   7.651   5.516 -0.8346  0.6871  0.4653
39806SOL     OW24355   4.743   5.018   5.136  0.8133  0.4852 -0.5344
39806SOL    HW124356   4.708   5.099   5.099  0.4221  1.5926  2.0542
39806SOL    HW224357   4.825   5.003   5.089 -0.2644  1.0216 -2.7185
39807SOL     OW24358   7.276   8.805   4.846  0.1150  0.5735  0.1948
39807SOL    HW124359   7.327   8.781   4.769 -2.0927  3.2795 -2.3508
39807SOL    HW224360   7.335   8.860   4.898  0.6799  1.5041 -1.3619
39808SOL     OW24361   3.958   3.532   5.636 -1.0368 -0.8616 -0.1916
39808SOL    HW124362   3.880   3.567   5.679 -2.4313 -1.8705 -1.8094
39808SOL    HW224363   4.007   3.490   5.707 -1.4731  0.5620  1.0135
39809SOL     OW24364   9.039   5.408   2.695  0.0446  0.3538  0.2450
39809SOL    HW124365   8.998   5.355   2.627  1.1045  0.5116 -0.5475
39809SOL    HW224366   8.973   5.475   2.716 -0.4896 -0.0095 -0.2526
39810SOL     OW24367   5.425   7.953   2.172  0.1751 -0.1490 -0.0199
39810SOL    HW124368   5.397   8.043   2.188  0.1853  0.0870 -1.2214
39810SOL    HW224369   5.436   7.948   2.077 -1.4898 -1.8954 -0.1830
39811SOL     OW24370   9.657   3.781  11.446 -0.0100  0.2078  0.3154
39811SOL    HW124371   9.738   3.819  11.412  1.1623 -2.1054  0.3269
39811SOL    HW224372   9.589   3.812  11.386  1.4718 -0.8261 -2.0856
39812SOL     OW24373   0.953   0.976   1.375 -0.0489 -0.0412  0.2960
39812SOL    HW124374   0.878   0.924   1.406 -1.2578  0.4686 -1.6175
39812SOL    HW224375   0.923   1.067   1.380  0.4142  0.1642 -0.5672
39813SOL     OW24376   1.922  11.569   9.926 -0.1983 -0.1378 -0.2094
39813SOL    HW124377   2.001  11.553   9.977  1.3315 -1.2073 -2.7335
39813SOL    HW224378   1.940  11.650   9.878 -1.1674  0.2765  0.0905
39814SOL     OW24379   7.174   6.370   0.128  0.0028  0.1172 -0.0447
39814SOL    HW124380   7.087   6.405   0.113 -0.7924 -1.8448 -0.2657
39814SOL    HW224381   7.163   6.303   0.195  1.1015 -0.9892 -0.9028
39815SOL     OW24382   7.552  10.323   2.414  0.3604 -0.2860 -0.3981
39815SOL    HW124383   7.553  10.406   2.366 -0.3015 -0.4119 -0.6336
39815SOL    HW224384   7.552  10.349   2.506  1.0945 -0.0375 -0.4619
39816SOL     OW24385   1.401   9.621   0.373 -0.2009  0.2096 -0.3438
39816SOL    HW124386   1.336   9.691   0.377  0.7821  1.3384 -2.4858
39816SOL    HW224387   1.378   9.571   0.295  0.5091 -0.3847 -0.1828
39817SOL     OW24388   7.675   0.360   1.914  0.1773 -0.0684  0.2513
39817SOL    HW124389   7.711   0.403   1.992 -1.8747  3.8779 -0.6735
39817SOL    HW224390   7.581   0.353   1.933 -0.3705  1.0246 -1.7754
39818SOL     OW24391   9.857   2.071   0.745  0.6037  0.0758 -0.6061
39818SOL    HW124392   9.815   2.130   0.807  1.6679  1.5521 -1.2222
39818SOL    HW224393   9.800   2.074   0.667  1.0537  0.9234 -0.9145
39819SOL     OW24394   6.983   8.682   9.408 -0.5379  0.7671 -0.0509
39819SOL    HW124395   7.043   8.610   9.429 -1.1569  0.6852  1.5794
39819SOL    HW224396   7.035   8.741   9.353  0.0565 -0.7738 -1.2302
39820SOL     OW24397   4.823   6.826  10.345 -0.2012  0.2193 -0.4033
39820SOL    HW124398   4.797   6.909  10.306 -0.9858 -0.8292 -2.2770
39820SOL    HW224399   4.750   6.802  10.402 -0.1320  0.6304 -0.1379
39821SOL     OW24400   3.949   3.435  11.267  0.2597  0.2995  0.3278
39821SOL    HW124401   3.950   3.354  11.216 -0.1777 -0.2111  1.1056
39821SOL    HW224402   4.038   3.470  11.258  0.4810 -0.3156  0.0561
39822SOL     OW24403   9.121   5.385   6.613 -0.6751  0.0716  0.3472
39822SOL    HW124404   9.207   5.376   6.653 -0.6429 -0.3417  0.1898
39822SOL    HW224405   9.109   5.304   6.563 -0.3183  0.9515 -1.2391
39823SOL     OW24406   2.370  10.979   4.365 -0.4897 -0.3312  0.8335
39823SOL    HW124407   2.439  11.022   4.315 -2.8021  1.3858 -1.1320
39823SOL    HW224408   2.355  10.896   4.320 -0.4597 -0.1906  0.5639
39824SOL     OW24409   8.786   5.380   9.007 -0.8093 -0.6802 -0.2967
39824SOL    HW124410   8.874   5.346   8.989  0.1310  2.1422 -1.6783
39824SOL    HW224411   8.797   5.440   9.080 -1.2310  0.8249 -1.4141
39825SOL     OW24412   6.192   7.497   3.913  0.3051 -0.1890  0.4937
39825SOL    HW124413   6.250   7.451   3.853 -0.6604 -1.1090  0.2463
39825SOL    HW224414   6.250   7.531   3.981  1.1732 -0.7996  0.0723
39826SOL     OW24415  10.454   8.654  10.578  0.1450 -0.1263  0.1559
39826SOL    HW124416  10.457   8.732  10.634 -0.3391 -1.3542  1.9871
39826SOL    HW224417  10.458   8.688  10.489  1.5839  1.8964  0.9200
39827SOL     OW24418  11.500   4.537   1.950 -0.0783  0.0052 -0.3665
39827SOL    HW124419  11.483   4.482   2.027  0.4784  1.1233  0.5968
39827SOL    HW224420  11.429   4.517   1.890 -1.3463  0.1261  1.0332
39828SOL     OW24421  11.034   8.966   2.618  0.1689 -0.5573 -0.2017
39828SOL    HW124422  10.944   8.935   2.611  0.5659 -1.8573  0.2199
39828SOL    HW224423  11.048   8.980   2.712 -0.1376  1.4094 -0.4003
39829SOL     OW24424   0.200   8.111  11.049 -0.0645  0.1569  0.3439
39829SOL    HW124425   0.143   8.187  11.065 -1.6065 -0.9431  0.2719
39829SOL    HW224426   0.286   8.140  11.079 -0.9949  1.2954  2.1747
39830SOL     OW24427   7.430   2.578   7.493  0.0573  0.9203 -0.0914
39830SOL    HW124428   7.470   2.639   7.431 -0.0679  0.8408 -0.2522
39830SOL    HW224429   7.339   2.607   7.501 -0.0982  0.5431 -0.4461
39831SOL     OW24430   7.871   5.182   2.609  0.0714  0.2689 -0.4882
39831SOL    HW124431   7.826   5.235   2.674 -0.8094  0.3429 -1.1411
39831SOL    HW224432   7.893   5.101   2.655 -2.2349 -0.4783 -0.5554
39832SOL     OW24433   9.409   5.312   6.694 -0.3379  0.0706  0.6271
39832SOL    HW124434   9.404   5.246   6.762  0.0971  0.2966  0.8756
39832SOL    HW224435   9.450   5.267   6.620  0.2827  0.1559  0.9126
39833SOL     OW24436  11.296   7.093  11.170 -0.0634 -0.3119 -0.1223
39833SOL    HW124437  11.350   7.155  11.122  0.7625 -0.3881  0.6807
39833SOL    HW224438  11.278   7.023  11.108  0.6740 -0.2321 -0.4309
39834SOL     OW24439   5.539   6.143   9.620 -0.0541 -0.2198  0.0246
39834SOL    HW124440   5.633   6.162   9.617 -0.4370  2.0210 -2.8824
39834SOL    HW224441   5.525   6.081   9.549 -0.8166 -0.1669  0.1164
39835SOL     OW24442   2.616   5.401   4.023 -0.1640  0.1772 -0.4182
39835SOL    HW124443   2.690   5.458   4.044 -0.8981  0.9546  0.1469
39835SOL    HW224444   2.546   5.431   4.081 -0.2723 -1.9880  0.6521
39836SOL     OW24445   9.449   7.717   3.180  0.3217  0.5022 -0.1640
39836SOL    HW124446   9.515   7.663   3.136  0.6896  1.2666 -0.5622
39836SOL    HW224447   9.403   7.761   3.109 -2.2014 -1.7227 -0.0862
39837SOL     OW24448   1.583   9.249   3.003 -0.1087  0.3203 -0.6901
39837SOL    HW124449   1.519   9.186   3.036  0.4111  0.8865  1.5604
39837SOL    HW224450   1.659   9.196   2.980 -0.6774 -0.1457 -1.5525
39838SOL     OW24451  11.125   7.250   9.940 -0.6025 -0.6341 -0.2161
39838SOL    HW124452  11.137   7.161   9.905  0.5286  0.2075 -2.1452
39838SOL    HW224453  11.062   7.291   9.881  0.1724  0.3566 -0.3806
39839SOL     OW24454   1.086   2.305   2.084 -0.1620  0.4730  0.6303
39839SOL    HW124455   0.999   2.329   2.052 -0.3512 -0.4219  0.4537
39839SOL    HW224456   1.085   2.330   2.176 -0.5371  0.6397  0.5841
39840SOL     OW24457   5.344   2.175   3.836 -0.1309 -0.1365  0.5104
39840SOL    HW124458   5.415   2.138   3.783 -0.2709 -3.2259  2.2219
39840SOL    HW224459   5.388   2.224   3.905  0.2256 -0.1444  0.2899
39841SOL     OW24460   5.541   4.097   1.303 -0.0326  0.2882  0.7140
39841SOL    HW124461   5.544   4.055   1.389  0.3221  1.1676  1.1333
39841SOL    HW224462   5.447   4.108   1.286 -0.0993  0.3378  1.0954
39842SOL     OW24463   0.058   9.064   9.167 -0.0263  0.3263 -0.5954
39842SOL    HW124464   0.038   9.087   9.077 -1.8433  1.2046 -0.0311
39842SOL    HW224465   0.096   9.143   9.205 -0.4515  0.3862 -0.2799
39843SOL     OW24466   5.380   6.664   2.000  0.7473 -0.1499 -0.7470
39843SOL    HW124467   5.357   6.671   2.093 -0.9687  0.0679 -1.1592
39843SOL    HW224468   5.374   6.571   1.981  1.5834 -0.2528 -0.5354
39844SOL     OW24469   6.394  11.522   7.983  0.2541 -0.2319  0.4205
39844SOL    HW124470   6.395  11.427   7.995 -1.1171 -0.1404  1.4777
39844SOL    HW224471   6.464  11.554   8.039 -0.3248 -0.5192  1.3428
39845SOL     OW24472  10.970   0.547  10.292 -0.1976 -0.2826 -0.1583
39845SOL    HW124473  10.992   0.561  10.384  1.7011 -2.5136 -0.1756
39845SOL    HW224474  10.882   0.509  10.294 -0.4259  0.2580  0.6750
39846SOL     OW24475   1.185   0.727   0.633 -0.2308  0.1237  0.1331
39846SOL    HW124476   1.112   0.668   0.654 -1.3874  0.1219 -3.2934
39846SOL    HW224477   1.148   0.815   0.645  0.2337  0.1642  1.3861
39847SOL     OW24478   9.864   3.413   8.834  0.4995 -0.2569 -0.3338
39847SOL    HW124479   9.854   3.492   8.887  0.8176  0.4906 -1.3455
39847SOL    HW224480   9.938   3.367   8.874 -0.6888 -0.8942  1.2422
39848SOL     OW24481   0.490   5.994   9.290 -0.1140 -0.1919 -0.2643
39848SOL    HW124482   0.421   6.035   9.239 -1.3619 -1.0693  0.6614
39848SOL    HW224483   0.563   6.055   9.285 -1.0752  0.9423 -0.9441
39849SOL     OW24484   6.878   4.218   4.750 -0.4532 -0.2783 -0.5984
39849SOL    HW124485   6.859   4.312   4.751  0.0514 -0.1729 -0.5568
39849SOL    HW224486   6.858   4.188   4.839  5.2785  1.0294  1.5469
39850SOL     OW24487   9.983   9.225   0.309 -0.1700 -0.1767  0.0416
39850SOL    HW124488   9.890   9.221   0.330 -0.2894 -1.1399 -0.6163
39850SOL    HW224489  10.027   9.212   0.392 -0.6035  1.5069  0.5736
39851SOL     OW24490   0.136   8.030   4.675 -0.0861 -0.1692  0.0638
39851SOL    HW124491   0.159   7.959   4.614  0.1208 -0.5354  0.5578
39851SOL    HW224492   0.043   8.016   4.694  0.1987 -0.9510  0.9705
39852SOL     OW24493   3.248   6.532   6.905 -0.0231  0.3102 -0.2080
39852SOL    HW124494   3.226   6.529   6.812 -0.0887  0.3568 -0.1942
39852SOL    HW224495   3.334   6.574   6.909 -0.0936  0.4575 -0.2356
39853SOL     OW24496   5.464   2.482   9.543  0.1303 -0.4699 -0.4540
39853SOL    HW124497   5.434   2.438   9.623  0.2220 -0.1638 -0.2515
39853SOL    HW224498   5.559   2.478   9.548  0.1684  0.8243  0.1701
39854SOL     OW24499   3.150   2.144  10.165  0.0814  0.1079 -0.2854
39854SOL    HW124500   3.110   2.059  10.177  0.0002  0.2107  0.1846
39854SOL    HW224501   3.239   2.134  10.199  1.3163 -0.7979 -3.4148
39855SOL     OW24502   8.342   4.690   9.711  0.9772  0.2007  0.2367
39855SOL    HW124503   8.365   4.778   9.740 -0.3539  0.7839 -0.3936
39855SOL    HW224504   8.355   4.635   9.788  1.9785  0.9018  0.5921
39856SOL     OW24505   6.638   3.086   0.332  0.0602  0.0524  0.2838
39856SOL    HW124506   6.667   3.023   0.266  1.5322  0.3257  0.6350
39856SOL    HW224507   6.574   3.037   0.385  2.0185 -1.5941  1.2749
39857SOL     OW24508   0.952   7.537   3.030 -0.7912  0.4442 -0.1582
39857SOL    HW124509   0.959   7.441   3.025 -0.3861  0.5273 -1.3931
39857SOL    HW224510   0.932   7.554   3.123 -0.5622 -0.8056  0.1452
39858SOL     OW24511   8.279   2.726   2.186 -0.2333  0.5064 -0.1539
39858SOL    HW124512   8.193   2.728   2.144  0.5641 -0.3815 -1.9208
39858SOL    HW224513   8.318   2.643   2.158  2.2497  2.0475 -1.6697
39859SOL     OW24514   2.052   9.937   4.755  0.1785 -0.1870  0.0323
39859SOL    HW124515   2.146   9.931   4.771 -0.0467 -2.0323  0.8369
39859SOL    HW224516   2.019   9.849   4.771 -2.2191  1.1131  3.1984
39860SOL     OW24517  11.090   8.951   4.296  0.0315  0.3283  0.3615
39860SOL    HW124518  11.119   8.863   4.319 -0.6498 -0.4390 -1.5685
39860SOL    HW224519  11.143   9.009   4.351  1.9864 -1.1990  0.1581
39861SOL     OW24520   1.422   7.824   0.120  0.5540 -0.2858  0.8160
39861SOL    HW124521   1.352   7.773   0.079 -0.5672  2.2508 -0.6148
39861SOL    HW224522   1.388   7.849   0.206  0.3471 -0.3488  0.7505
39862SOL     OW24523   5.980   8.362   8.583 -0.4193 -0.1065 -0.1294
39862SOL    HW124524   6.017   8.275   8.565  1.1129  0.4508  0.1960
39862SOL    HW224525   6.004   8.380   8.674 -2.5851 -0.2115  0.5272
39863SOL     OW24526   7.555   1.580   2.688 -0.7908  0.1314  0.4675
39863SOL    HW124527   7.588   1.669   2.696  1.2533 -0.6529  1.6526
39863SOL    HW224528   7.566   1.558   2.596 -0.0605  0.6532  0.4239
39864SOL     OW24529   6.458   5.031  11.375 -0.4025  0.2800  0.7949
39864SOL    HW124530   6.486   4.982  11.452  2.8548  0.3664 -0.1824
39864SOL    HW224531   6.461   5.123  11.402 -2.7101  0.2246  1.4831
39865SOL     OW24532   0.036   3.679   8.910 -0.0070 -0.5349 -0.0577
39865SOL    HW124533   0.109   3.727   8.948 -0.1136  0.1273 -0.6674
39865SOL    HW224534   0.063   3.661   8.820 -0.0851 -1.3768  0.0838
39866SOL     OW24535   0.128  10.103   3.251  0.1572 -0.2739  0.4052
39866SOL    HW124536   0.043  10.087   3.294  0.0191 -0.2878  0.1300
39866SOL    HW224537   0.189  10.114   3.323 -0.4328  1.7361  0.6639
39867SOL     OW24538   0.426  10.391   7.632  0.0078  0.4862 -0.1356
39867SOL    HW124539   0.419  10.430   7.719  0.7757 -0.3216  0.2973
39867SOL    HW224540   0.393  10.302   7.642  1.3541 -0.0530 -0.3591
39868SOL     OW24541   5.560   6.842  10.544  0.3948  0.0613  0.2254
39868SOL    HW124542   5.564   6.747  10.558  1.3717 -0.0069 -0.4176
39868SOL    HW224543   5.609   6.856  10.464 -1.4136  0.9071 -0.7955
39869SOL     OW24544   2.867   2.760   5.771  0.4920  0.1792 -0.5445
39869SOL    HW124545   2.938   2.804   5.724  0.9573  0.1611  0.1295
39869SOL    HW224546   2.870   2.797   5.859 -0.0129 -0.1888 -0.3671
39870SOL     OW24547   5.392   8.037  10.261 -0.0909  0.2067  0.5556
39870SOL    HW124548   5.354   7.957  10.297 -1.6728 -0.1784 -1.7396
39870SOL    HW224549   5.440   8.008  10.183  0.6730  1.3221  0.5906
39871SOL     OW24550   8.898   8.268   8.759  0.4433  0.0796 -0.0460
39871SOL    HW124551   8.869   8.335   8.697  1.4336  0.7978  0.2362
39871SOL    HW224552   8.893   8.310   8.845  1.5563 -0.0132  0.0854
39872SOL     OW24553   3.060   0.107   4.921 -0.3975 -0.8212 -0.3750
39872SOL    HW124554   3.131   0.170   4.906 -1.2703  0.1256 -0.5883
39872SOL    HW224555   3.078   0.036   4.859  1.1193 -1.2517  0.5124
39873SOL     OW24556   8.098   0.608   9.314 -0.2538  0.1101 -0.6064
39873SOL    HW124557   8.191   0.595   9.295  0.2064 -1.6190  2.2535
39873SOL    HW224558   8.080   0.548   9.386 -2.6313  3.0718  1.5190
39874SOL     OW24559   6.480   8.089   4.371 -0.8882 -0.1547 -0.4493
39874SOL    HW124560   6.542   8.019   4.348 -0.4524  0.5515 -1.5296
39874SOL    HW224561   6.394   8.052   4.352 -0.6432 -0.3053 -1.3147
39875SOL     OW24562   6.240   2.041   0.698  0.0621 -0.4921 -0.0499
39875SOL    HW124563   6.329   2.044   0.664 -0.1320  0.3970 -0.5163
39875SOL    HW224564   6.202   1.962   0.660  0.7006 -0.9656  0.2872
39876SOL     OW24565   1.520   9.742   5.558 -0.3943 -0.2175 -0.4172
39876SOL    HW124566   1.469   9.662   5.565  0.3399 -0.5604  2.4961
39876SOL    HW224567   1.611   9.712   5.553 -0.2277  0.4270 -1.4447
39877SOL     OW24568   7.552   3.723   7.971  0.3881  0.3604  0.1521
39877SOL    HW124569   7.551   3.627   7.973 -0.4604  0.2525 -2.2141
39877SOL    HW224570   7.536   3.750   8.061  0.3390 -1.7236  0.8060
39878SOL     OW24571   5.277   6.260   8.372 -0.6799  0.8441 -0.3815
39878SOL    HW124572   5.321   6.175   8.373 -1.6357  0.2921 -1.7844
39878SOL    HW224573   5.341   6.319   8.331 -0.1610  0.7210  0.2414
39879SOL     OW24574   5.848   5.910  10.575  0.3331  0.3714 -0.4566
39879SOL    HW124575   5.870   5.990  10.528  0.9127  0.7078  0.3636
39879SOL    HW224576   5.906   5.911  10.652 -1.5177  0.5833  1.0247
39880SOL     OW24577   0.581   6.157   4.230 -0.5171 -0.6953  0.5474
39880SOL    HW124578   0.550   6.066   4.224  1.1487 -1.2655  0.1551
39880SOL    HW224579   0.562   6.182   4.321  1.2043 -2.3023  1.4187
39881SOL     OW24580   8.564  10.511   1.736 -0.4412 -0.3418 -0.3482
39881SOL    HW124581   8.554  10.475   1.647  0.5027 -2.0648  0.1888
39881SOL    HW224582   8.478  10.499   1.777 -0.5238 -0.7351 -0.6283
39882SOL     OW24583   5.211   3.575   3.002  0.0477 -0.4069 -0.0913
39882SOL    HW124584   5.221   3.510   2.933  0.3091 -0.9230  0.4261
39882SOL    HW224585   5.299   3.611   3.014 -0.3120  0.8869 -1.1847
39883SOL     OW24586  10.726   1.557   1.300 -0.1252 -0.0656  0.0259
39883SOL    HW124587  10.793   1.582   1.236 -2.1179  0.6250 -1.9084
39883SOL    HW224588  10.770   1.496   1.359  2.0339 -0.0560 -1.4850
39884SOL     OW24589   4.540   0.584   9.419  0.0105 -0.0967  0.0669
39884SOL    HW124590   4.457   0.568   9.464  0.3162  0.6063  0.9165
39884SOL    HW224591   4.597   0.620   9.486  0.9919 -0.4962 -0.5272
39885SOL     OW24592   4.375   5.575   5.432 -0.0123 -0.0632  0.2568
39885SOL    HW124593   4.347   5.491   5.396  1.7748 -0.6192  0.0480
39885SOL    HW224594   4.470   5.576   5.420  0.0564  1.8322  0.6043
39886SOL     OW24595   0.800  10.362   5.785 -0.4077  0.1085 -0.5600
39886SOL    HW124596   0.713  10.342   5.820  0.1433 -1.4661 -0.0223
39886SOL    HW224597   0.789  10.359   5.690 -1.0892  0.6412 -0.5060
39887SOL     OW24598   4.561   0.423   3.257 -0.1368 -0.4095  0.6891
39887SOL    HW124599   4.544   0.517   3.251 -1.1714 -0.6839 -1.5579
39887SOL    HW224600   4.486   0.388   3.305 -0.5905 -0.2738  0.0905
39888SOL     OW24601  10.167   8.245   2.200  0.2561 -0.0238  0.2268
39888SOL    HW124602  10.101   8.243   2.270  0.9848  1.5952  1.0247
39888SOL    HW224603  10.248   8.267   2.245  1.1040 -0.7823 -0.9084
39889SOL     OW24604   9.433   9.063  10.442 -0.2723 -0.0941  0.0226
39889SOL    HW124605   9.492   9.002  10.398  1.2862  0.7882  0.8053
39889SOL    HW224606   9.346   9.027  10.427  0.4541 -1.4731 -1.1302
39890SOL     OW24607   0.954   7.449   3.506  0.2091 -0.0840 -0.4883
39890SOL    HW124608   0.947   7.510   3.432  0.3664 -0.6297 -0.9552
39890SOL    HW224609   0.958   7.506   3.583 -1.3326  0.4806 -0.7804
39891SOL     OW24610   7.695   0.322   1.139  0.0588  0.0669  0.1634
39891SOL    HW124611   7.661   0.274   1.215 -0.3446  0.0054 -0.0531
39891SOL    HW224612   7.785   0.292   1.130 -0.7660 -2.2539 -1.2349
39892SOL     OW24613   7.479   5.247   7.575 -0.5664  0.0942 -0.1626
39892SOL    HW124614   7.463   5.202   7.492  1.5211 -0.8958 -0.1064
39892SOL    HW224615   7.561   5.209   7.606 -1.0316  0.8375  2.1029
39893SOL     OW24616   7.416   0.303   0.336 -0.0893 -0.3566  0.1435
39893SOL    HW124617   7.501   0.271   0.366 -0.7392 -0.5017  1.9460
39893SOL    HW224618   7.366   0.224   0.315 -0.5320 -0.3902  1.2810
39894SOL     OW24619   6.928   7.121   7.112  0.9895 -0.1792  0.0747
39894SOL    HW124620   6.868   7.047   7.103 -0.0838  0.6930 -0.1006
39894SOL    HW224621   7.008   7.093   7.068  0.2313 -0.8428 -0.9103
39895SOL     OW24622  11.138   0.888   6.080  0.7253  0.0361 -0.1739
39895SOL    HW124623  11.084   0.966   6.097  0.3929  0.4361 -2.6492
39895SOL    HW224624  11.086   0.815   6.114 -1.6972  0.3678 -2.7931
39896SOL     OW24625   7.022   4.458  10.951 -0.3458  0.3982  0.0360
39896SOL    HW124626   7.015   4.554  10.950 -0.1764  0.4600  1.4455
39896SOL    HW224627   7.085   4.438  10.883 -0.8323  1.2430 -0.6875
39897SOL     OW24628   2.383   7.379   4.422 -0.2164 -0.2020  0.1421
39897SOL    HW124629   2.325   7.436   4.372  0.0522  2.9090  3.0233
39897SOL    HW224630   2.460   7.369   4.367 -0.3250  2.2223 -0.5551
39898SOL     OW24631  10.403   5.723   1.784  0.2131  0.1376 -0.4034
39898SOL    HW124632  10.420   5.817   1.775  0.2799  0.5677  3.0029
39898SOL    HW224633  10.314   5.711   1.753  0.2140  1.3086 -0.9076
39899SOL     OW24634   1.802   7.846   4.576 -0.5569 -0.0908 -0.1000
39899SOL    HW124635   1.751   7.903   4.519  2.6390  3.5947  0.3518
39899SOL    HW224636   1.771   7.867   4.664  0.5452  0.9084  0.0611
39900SOL     OW24637   6.790   2.894   9.277  0.7036  0.3438 -0.1907
39900SOL    HW124638   6.773   2.873   9.185 -0.5951  0.4931  0.0062
39900SOL    HW224639   6.874   2.941   9.275  1.5188 -1.0846 -1.1030
39901SOL     OW24640  10.778   5.636   4.572  0.0356 -0.1476  0.4892
39901SOL    HW124641  10.840   5.615   4.502  1.2462 -1.6056  1.9164
39901SOL    HW224642  10.816   5.712   4.616 -0.1084  0.0415  0.2861
39902SOL     OW24643   4.588   6.867   9.732 -0.7306  0.0620  0.2161
39902SOL    HW124644   4.629   6.835   9.652 -1.7171 -0.9693  0.1118
39902SOL    HW224645   4.650   6.844   9.801 -0.8228 -0.8817 -0.0115
39903SOL     OW24646   8.758   1.921  11.186 -0.0690  0.1030  0.4090
39903SOL    HW124647   8.766   1.981  11.260 -1.3119 -0.6398  1.1663
39903SOL    HW224648   8.687   1.862  11.209 -0.2036 -0.4274 -1.1942
39904SOL     OW24649   8.940   8.775   3.715 -0.1588 -0.4916 -0.1909
39904SOL    HW124650   8.998   8.796   3.788  0.5995 -1.9086 -0.3524
39904SOL    HW224651   8.960   8.842   3.649  0.2009 -0.0783  0.3270
39905SOL     OW24652   2.150   3.875   4.062 -0.2891 -0.7680 -0.0858
39905SOL    HW124653   2.085   3.824   4.014 -0.4314 -0.9015  0.2477
39905SOL    HW224654   2.207   3.810   4.102  0.9147 -0.6581 -1.5226
39906SOL     OW24655   3.556   4.989   5.723 -0.9731  0.0952 -0.6157
39906SOL    HW124656   3.487   5.048   5.753  0.8374  2.3646 -0.5839
39906SOL    HW224657   3.636   5.024   5.763  0.4846 -1.1551 -2.2811
39907SOL     OW24658  10.906   9.061   3.818  0.4312 -0.1854 -0.7627
39907SOL    HW124659  10.822   9.105   3.830 -0.2615 -0.8259 -2.7767
39907SOL    HW224660  10.971   9.129   3.832 -0.3744  0.2363  1.2254
39908SOL     OW24661   9.139   3.033  10.715  0.3594 -0.0688 -0.2517
39908SOL    HW124662   9.066   3.093  10.733 -0.4194 -1.0592  0.0124
39908SOL    HW224663   9.203   3.052  10.784  0.8245  1.5091 -1.0783
39909SOL     OW24664   6.142   0.502   4.131 -0.9663 -0.0023 -0.3241
39909SOL    HW124665   6.158   0.593   4.106  2.1008 -0.4180 -0.1701
39909SOL    HW224666   6.088   0.467   4.061  0.0704  1.2317 -1.7990
39910SOL     OW24667   1.843   0.744   7.948 -0.0208  0.6058 -0.2457
39910SOL    HW124668   1.923   0.776   7.989  0.3810 -0.6736  0.0195
39910SOL    HW224669   1.859   0.650   7.935 -0.6355  0.7198 -2.1500
39911SOL     OW24670   2.446   6.798   1.728  0.7691 -0.3945  0.1787
39911SOL    HW124671   2.478   6.830   1.644 -0.1833  1.1981  0.3808
39911SOL    HW224672   2.449   6.702   1.720  1.5699 -0.2701 -1.3103
39912SOL     OW24673   3.490   5.513   4.451 -0.4717 -0.5529 -0.4139
39912SOL    HW124674   3.452   5.582   4.505 -0.8885  0.6392 -2.1486
39912SOL    HW224675   3.580   5.543   4.435 -0.0772 -1.3215  0.2762
39913SOL     OW24676   8.430   9.427   5.030 -0.1199 -0.3831 -0.0667
39913SOL    HW124677   8.441   9.515   4.993  0.9945 -0.3618  0.2626
39913SOL    HW224678   8.349   9.431   5.080  0.6576  0.9074  1.1477
39914SOL     OW24679   9.162   7.404   9.846 -0.5447  0.8560 -0.4342
39914SOL    HW124680   9.224   7.382   9.916 -2.5973  1.8695  1.8730
39914SOL    HW224681   9.185   7.346   9.774  1.9351 -0.0025  0.9508
39915SOL     OW24682  11.111   8.726   2.823  0.0603  0.0394  0.2416
39915SOL    HW124683  11.168   8.688   2.891 -0.0223  1.0818  0.9256
39915SOL    HW224684  11.137   8.819   2.820 -0.6964  0.2367 -0.3834
39916SOL     OW24685   8.559   3.762   0.516  0.2117  0.0599 -0.5024
39916SOL    HW124686   8.520   3.844   0.548  0.1014 -0.0582 -0.3304
39916SOL    HW224687   8.537   3.697   0.583 -0.5005 -0.3128 -1.0844
39917SOL     OW24688   0.626   1.052   4.941 -0.1104  0.0003 -0.2112
39917SOL    HW124689   0.603   1.111   5.012 -0.8193  2.6293 -2.4229
39917SOL    HW224690   0.545   1.006   4.920 -0.6744  1.2967 -1.0343
39918SOL     OW24691  10.367   8.251   9.511  0.0842  0.1007  0.4080
39918SOL    HW124692  10.427   8.255   9.436  1.2326 -0.0392  1.2993
39918SOL    HW224693  10.312   8.329   9.501  2.4193  1.9976  1.2029
39919SOL     OW24694   8.277   4.615   7.630  0.1739  0.2689 -0.5641
39919SOL    HW124695   8.313   4.689   7.678  1.3262  1.0280 -2.4573
39919SOL    HW224696   8.271   4.646   7.539 -2.2183 -0.9713 -0.8961
39920SOL     OW24697   1.105   7.638  11.332 -0.3266  0.6217  0.0883
39920SOL    HW124698   1.172   7.573  11.311 -0.1220  0.5116  1.0262
39920SOL    HW224699   1.026   7.606  11.290 -0.9241 -1.7358  2.7280
39921SOL     OW24700   7.610   6.615   7.543  0.4463  0.6310 -0.7088
39921SOL    HW124701   7.654   6.554   7.483  0.9822  1.3809 -1.0904
39921SOL    HW224702   7.588   6.690   7.488  1.1317  1.4238  0.0820
39922SOL     OW24703   8.848   1.982  10.359  0.1707  0.5577  0.3626
39922SOL    HW124704   8.793   2.042  10.409  0.2923  0.3152  0.7903
39922SOL    HW224705   8.857   2.024  10.273 -2.4122 -0.3733 -0.4596
39923SOL     OW24706  11.326   3.117   8.710 -0.1700 -0.1855  0.1427
39923SOL    HW124707  11.375   3.042   8.674  0.2902  0.5746 -0.8766
39923SOL    HW224708  11.290   3.085   8.792  0.0661 -1.5131 -0.2476
39924SOL     OW24709   8.865   0.317  11.372  0.2099  0.1784 -0.6628
39924SOL    HW124710   8.960   0.326  11.379  0.2723 -1.4207  3.1550
39924SOL    HW224711   8.830   0.371  11.443 -1.3374 -2.2357  0.5890
39925SOL     OW24712   5.482   2.910   6.446  0.3262 -0.1965  0.2378
39925SOL    HW124713   5.464   3.003   6.459 -0.5192 -0.5899  2.3496
39925SOL    HW224714   5.408   2.878   6.395 -0.3028 -0.0135  1.0092
39926SOL     OW24715   4.436   0.929   6.269  1.0073 -0.1560  0.0332
39926SOL    HW124716   4.494   0.867   6.225 -0.8900 -1.6003 -0.5840
39926SOL    HW224717   4.349   0.906   6.238 -0.0001  1.4308  1.5040
39927SOL     OW24718   4.387   3.670   9.562 -0.2833  0.0303  0.5349
39927SOL    HW124719   4.465   3.614   9.561 -1.4641 -1.6462 -0.0469
39927SOL    HW224720   4.360   3.676   9.471 -0.4212  1.2323  0.6434
39928SOL     OW24721   8.475   5.102   6.412  0.2720  0.0941 -0.1254
39928SOL    HW124722   8.552   5.153   6.435  0.0459  0.0295  0.7811
39928SOL    HW224723   8.468   5.035   6.480 -1.3034  0.8782  0.5431
39929SOL     OW24724   3.881   0.581   6.834  0.3989  0.1114  0.3217
39929SOL    HW124725   3.865   0.664   6.789  0.5039 -0.6000 -1.1056
39929SOL    HW224726   3.817   0.579   6.905  0.4415  1.4288  0.4185
39930SOL     OW24727   5.796   9.400   0.010 -0.6373 -0.1590 -0.1929
39930SOL    HW124728   5.710   9.439   0.028 -1.3182 -1.6265 -0.1258
39930SOL    HW224729   5.776   9.312  -0.021  0.8742 -1.4759  2.2464
39931SOL     OW24730   3.349   9.302   4.796 -0.4329 -0.0292  0.0690
39931SOL    HW124731   3.396   9.224   4.766 -1.7414 -0.3036 -1.3847
39931SOL    HW224732   3.287   9.269   4.860  0.1653  0.0901  0.7247
39932SOL     OW24733   8.222   8.683   2.430 -0.0993 -0.3730  0.5193
39932SOL    HW124734   8.312   8.660   2.407  0.7214  0.2182  2.8064
39932SOL    HW224735   8.183   8.599   2.456  0.1859 -0.4673  0.6589
39933SOL     OW24736   6.292   1.814   9.278 -0.1943 -0.1746  0.2303
39933SOL    HW124737   6.382   1.787   9.262 -0.3704 -1.0840  0.7277
39933SOL    HW224738   6.239   1.738   9.255 -0.9757  0.8150 -1.4761
39934SOL     OW24739   7.239   4.055   2.728 -0.3480  0.1901  0.3206
39934SOL    HW124740   7.284   4.014   2.654  1.1587  2.6078 -0.2336
39934SOL    HW224741   7.148   4.063   2.698  0.0947  0.5198 -1.0265
39935SOL     OW24742  11.500   2.499  11.562 -0.4209 -0.3064 -0.4040
39935SOL    HW124743  11.544   2.552  11.628  0.2456 -0.5652 -0.6327
39935SOL    HW224744  11.570   2.468  11.505 -0.7479 -1.7407 -0.0587
39936SOL     OW24745   8.706   5.715   4.984  0.0788  0.2089 -0.0295
39936SOL    HW124746   8.719   5.808   5.007 -1.1270  0.3830  0.0169
39936SOL    HW224747   8.678   5.717   4.892  0.7112 -0.1608 -0.2283
39937SOL     OW24748   5.818   0.272   4.076 -0.1152 -0.0504  0.3633
39937SOL    HW124749   5.902   0.227   4.087 -1.1181 -2.7256 -1.7205
39937SOL    HW224750   5.828   0.322   3.994 -0.9763 -1.7234 -0.8300
39938SOL     OW24751   7.436  11.649   0.564  0.6247  0.3560  0.6187
39938SOL    HW124752   7.503  11.657   0.497  0.4712  0.8376  0.5191
39938SOL    HW224753   7.377  11.722   0.548 -0.0542 -0.1945  0.5657
39939SOL     OW24754   0.646   4.495   9.388 -0.0298 -0.0264 -0.3337
39939SOL    HW124755   0.588   4.534   9.324 -0.7586 -0.5321  0.0008
39939SOL    HW224756   0.709   4.445   9.336 -0.3418 -0.0699 -0.6728
39940SOL     OW24757  11.471   4.971   9.592 -0.4458 -0.3417 -0.2061
39940SOL    HW124758  11.529   5.025   9.539 -3.4826  0.0631 -3.5375
39940SOL    HW224759  11.501   4.881   9.577  0.9549 -0.0190  0.4840
39941SOL     OW24760  10.935   9.409   9.081  0.0808  0.1746 -0.3535
39941SOL    HW124761  10.874   9.455   9.139 -0.2787  0.2221 -0.7630
39941SOL    HW224762  10.960   9.475   9.016  1.2221  0.3983  0.2938
39942SOL     OW24763   5.289   5.918   0.102 -0.1959  0.4069 -0.2349
39942SOL    HW124764   5.342   5.997   0.097 -0.0396  0.3142 -0.0475
39942SOL    HW224765   5.230   5.923   0.026 -1.6328  1.7273  0.9111
39943SOL     OW24766   0.738   7.783   1.763 -0.5043 -0.0521  0.0050
39943SOL    HW124767   0.644   7.804   1.758 -0.8653 -1.2429  1.1976
39943SOL    HW224768   0.782   7.866   1.744 -1.8363  1.5342  3.0329
39944SOL     OW24769   9.860   6.281   5.181 -0.1811  0.1848  0.2157
39944SOL    HW124770   9.908   6.236   5.112  0.5976  1.0871  0.1490
39944SOL    HW224771   9.842   6.368   5.145  0.3060  0.6964  1.1641
39945SOL     OW24772  11.579   5.818   4.722 -0.6542  0.6892 -0.7229
39945SOL    HW124773  11.499   5.817   4.775  0.6945 -2.0036  1.5627
39945SOL    HW224774  11.636   5.882   4.766  0.6536 -1.8984  1.6912
39946SOL     OW24775   1.739   9.132   8.966  0.0002 -0.4951  0.6775
39946SOL    HW124776   1.687   9.211   8.983 -1.2006 -0.4948 -2.3506
39946SOL    HW224777   1.742   9.087   9.050 -2.7539  0.7896  1.5963
39947SOL     OW24778   2.689   5.240   3.543  0.2259  0.3092 -0.3877
39947SOL    HW124779   2.708   5.246   3.450 -0.8626 -2.1252 -0.8345
39947SOL    HW224780   2.615   5.300   3.556  0.8028  1.1617 -0.9250
39948SOL     OW24781   4.204   9.846   1.323 -0.1691 -0.0133 -0.1017
39948SOL    HW124782   4.270   9.903   1.363 -1.0804 -0.1177  1.6298
39948SOL    HW224783   4.226   9.846   1.230 -0.6616  3.8632 -0.3796
39949SOL     OW24784   5.416   0.819   8.686  0.5779 -0.7643  0.1900
39949SOL    HW124785   5.339   0.857   8.644  2.7976  1.4748 -2.2875
39949SOL    HW224786   5.429   0.872   8.765  0.2863 -0.3196 -0.0552
39950SOL     OW24787   1.533   3.445   2.821  0.1024 -0.1515 -0.7716
39950SOL    HW124788   1.590   3.427   2.747  1.7469  0.1914  0.3552
39950SOL    HW224789   1.518   3.540   2.817  1.3270  0.1042  0.0666
39951SOL     OW24790   6.054  10.319   2.189 -0.2008 -0.0736  0.0268
39951SOL    HW124791   6.108  10.389   2.226  1.3286 -1.3731  0.3576
39951SOL    HW224792   6.012  10.360   2.113  1.5599  0.9100 -0.4786
39952SOL     OW24793   6.654  10.897   6.920  0.0034 -0.2766 -0.3986
39952SOL    HW124794   6.601  10.827   6.880 -0.3364 -0.6119  0.5967
39952SOL    HW224795   6.589  10.956   6.959  0.2959  0.5421 -1.1249
39953SOL     OW24796   7.447   6.258   3.435 -0.1019 -0.1491 -0.1909
39953SOL    HW124797   7.387   6.227   3.502  0.4785  1.1765  0.9911
39953SOL    HW224798   7.424   6.208   3.357 -0.9596 -1.5568  0.9175
39954SOL     OW24799   4.169   4.411   6.226 -0.3705 -0.2869  0.1887
39954SOL    HW124800   4.102   4.348   6.196  0.1135 -1.1631  0.8865
39954SOL    HW224801   4.220   4.431   6.148  0.5835 -2.1723  0.2539
39955SOL     OW24802  10.456   9.818   1.654  0.3054 -0.3009 -0.2315
39955SOL    HW124803  10.431   9.901   1.694  0.3093 -1.4286  2.3260
39955SOL    HW224804  10.549   9.808   1.675  0.2835 -0.9800 -0.4149
39956SOL     OW24805   9.283  10.578  11.245  0.5059  0.2136  0.1928
39956SOL    HW124806   9.270  10.547  11.155  2.1678 -0.2246  0.0590
39956SOL    HW224807   9.243  10.510  11.299 -0.0091  0.1935 -0.2078
39957SOL     OW24808   0.752  10.842   2.051  0.2061  0.0982 -0.2757
39957SOL    HW124809   0.826  10.818   2.107 -2.2898  0.1579  3.4572
39957SOL    HW224810   0.762  10.936   2.037  1.3182 -0.0661 -0.6643
39958SOL     OW24811   3.174   6.182   8.729 -0.1521  0.7415 -0.2568
39958SOL    HW124812   3.265   6.206   8.708  0.8137 -0.3621  2.3474
39958SOL    HW224813   3.130   6.266   8.742  1.5014  1.3210  2.1910
39959SOL     OW24814  11.500   9.422   9.736  0.3230  0.8496 -0.3338
39959SOL    HW124815  11.587   9.390   9.758 -0.5445 -0.6129  1.1883
39959SOL    HW224816  11.458   9.439   9.821 -1.2644  0.4115 -0.9892
39960SOL     OW24817   3.379   5.208   6.887 -0.0102  0.4956 -0.7830
39960SOL    HW124818   3.378   5.162   6.971 -2.3840  1.4000 -0.2377
39960SOL    HW224819   3.450   5.167   6.838  1.3189 -0.2111  1.5638
39961SOL     OW24820   8.050  10.188   1.491 -0.1300 -0.2487  0.0268
39961SOL    HW124821   8.141  10.180   1.463 -0.1739  1.5791 -0.7709
39961SOL    HW224822   8.000  10.146   1.421  0.0410 -0.1551 -0.1532
39962SOL     OW24823   3.423   3.034   5.979  0.1342 -0.4572 -0.2299
39962SOL    HW124824   3.458   2.983   6.052  1.0409 -2.1590 -1.7637
39962SOL    HW224825   3.493   3.096   5.958 -0.5732  0.8019  1.0087
39963SOL     OW24826   7.936  11.656   2.269 -0.0519  0.5226  0.8815
39963SOL    HW124827   7.841  11.672   2.266  0.0125  1.3320  2.4733
39963SOL    HW224828   7.965  11.669   2.178 -1.2950  1.3750  0.5771
39964SOL     OW24829   7.465   4.094   1.738  0.0357  0.2025  0.3343
39964SOL    HW124830   7.432   4.063   1.822  0.7169  0.8977  0.8689
39964SOL    HW224831   7.503   4.180   1.757 -2.1408  1.5906 -1.1557
39965SOL     OW24832   5.736   0.665   8.123  0.3517 -0.1141  0.0344
39965SOL    HW124833   5.732   0.645   8.217  0.5071  0.7411  0.2355
39965SOL    HW224834   5.718   0.759   8.118 -1.9809 -0.5506 -0.9911
39966SOL     OW24835   6.666   7.782   6.350  0.4259  1.0483 -0.4207
39966SOL    HW124836   6.669   7.784   6.446 -1.0533 -1.6481 -0.1965
39966SOL    HW224837   6.604   7.852   6.327  0.1678  1.2031  0.6666
39967SOL     OW24838   6.022   9.255   3.000  0.0304 -0.0990  0.4568
39967SOL    HW124839   6.070   9.326   3.041 -0.7846  1.0747 -0.5600
39967SOL    HW224840   6.090   9.199   2.961  0.6213  1.1922 -0.4164
39968SOL     OW24841   6.476   3.875   6.925 -0.4209 -0.0300  0.6094
39968SOL    HW124842   6.501   3.841   6.839  0.3830  0.3887  0.6636
39968SOL    HW224843   6.381   3.867   6.928 -0.5907  1.1603 -0.8397
39969SOL     OW24844   0.538   0.281   5.791 -0.1145  0.3944 -0.2800
39969SOL    HW124845   0.461   0.335   5.777 -2.4497 -2.3439  1.1186
39969SOL    HW224846   0.545   0.228   5.712  0.6144  0.8464 -0.5407
39970SOL     OW24847   7.561   9.061  11.691 -0.1331  0.4949  0.0113
39970SOL    HW124848   7.626   9.066  11.621  1.3199 -0.9084  1.1843
39970SOL    HW224849   7.495   8.999  11.657  0.9645 -0.7908  0.1521
39971SOL     OW24850   6.634  11.668   9.591 -0.2455 -0.4372  0.0348
39971SOL    HW124851   6.647  11.759   9.619  0.7422  0.3038 -2.5327
39971SOL    HW224852   6.540  11.652   9.603 -0.8437  1.6682 -1.4034
39972SOL     OW24853   3.950   3.827   2.226 -0.3249  0.7771 -0.0234
39972SOL    HW124854   4.015   3.896   2.234 -0.0356  0.4511  0.5936
39972SOL    HW224855   3.876   3.857   2.278 -0.7895  1.2713 -0.9493
39973SOL     OW24856   8.949   8.775   8.860  0.2252 -0.1609 -0.0945
39973SOL    HW124857   9.039   8.807   8.860  1.2272 -2.7110  0.1208
39973SOL    HW224858   8.947   8.710   8.790 -1.3872 -0.3871  0.1132
39974SOL     OW24859   0.532   1.593   9.188 -0.4163 -0.5158 -0.0108
39974SOL    HW124860   0.479   1.605   9.266 -1.1292 -3.8132  0.1814
39974SOL    HW224861   0.469   1.574   9.119  0.1628  2.7979 -1.6274
39975SOL     OW24862   4.416   1.011   1.524  0.1501  0.5774  0.0586
39975SOL    HW124863   4.512   1.012   1.532  0.4068  1.8895 -2.2386
39975SOL    HW224864   4.398   0.943   1.460 -0.2982  1.3013 -0.6058
39976SOL     OW24865   1.798   8.335   3.306  0.7511  0.5525  0.3661
39976SOL    HW124866   1.724   8.295   3.352  1.1375  0.6630  1.0981
39976SOL    HW224867   1.845   8.261   3.267  0.1919  0.4922 -0.1959
39977SOL     OW24868   0.299   1.528   4.118 -0.4855  0.2672  0.5611
39977SOL    HW124869   0.264   1.459   4.175  0.5696 -0.7975 -0.0482
39977SOL    HW224870   0.367   1.485   4.066  0.7425  1.9395  0.6990
39978SOL     OW24871   6.813   7.479   2.001 -0.6119  0.2413  0.5616
39978SOL    HW124872   6.766   7.460   2.082 -0.2083 -0.4007  0.6532
39978SOL    HW224873   6.775   7.561   1.970 -1.3561  0.0552  0.9540
39979SOL     OW24874   5.423   0.604   7.782 -0.3482  0.2707  0.5268
39979SOL    HW124875   5.438   0.550   7.860 -0.8062 -1.1861 -0.3504
39979SOL    HW224876   5.510   0.623   7.748 -0.1564  0.6772  1.2255
39980SOL     OW24877  11.246   7.383   1.961 -0.2500 -0.0903 -0.1000
39980SOL    HW124878  11.267   7.453   2.023  0.1208  0.4873 -0.8627
39980SOL    HW224879  11.163   7.409   1.922 -0.5567 -0.5267  0.2503
39981SOL     OW24880   6.414   0.452   4.517 -0.0887 -0.4884 -0.0577
39981SOL    HW124881   6.491   0.476   4.465 -0.9509  1.4253 -0.5554
39981SOL    HW224882   6.341   0.456   4.454 -0.5529 -2.8590  0.2639
39982SOL     OW24883   4.457   3.037   4.232  0.1231  0.1912  0.4106
39982SOL    HW124884   4.406   3.115   4.250  1.0593  1.1574 -0.9929
39982SOL    HW224885   4.452   3.025   4.138  1.5540 -0.3311  0.3721
39983SOL     OW24886  10.737   2.898   5.609 -0.0038 -0.0669 -0.0276
39983SOL    HW124887  10.827   2.909   5.579  0.1845  1.2299  0.8937
39983SOL    HW224888  10.687   2.962   5.559 -0.5121 -1.0493 -0.8172
39984SOL     OW24889   2.973   3.472   9.518 -0.3727 -0.3981  0.1277
39984SOL    HW124890   2.902   3.413   9.543 -0.0670 -0.5371  0.6716
39984SOL    HW224891   2.947   3.558   9.551  0.0563 -0.5914  0.9933
39985SOL     OW24892   3.941   2.144   8.736  0.2494  0.2877  0.0561
39985SOL    HW124893   4.017   2.089   8.757 -1.0587 -1.2646  1.0112
39985SOL    HW224894   3.910   2.110   8.652 -0.8286 -0.8002  0.8633
39986SOL     OW24895   9.993   5.885   5.407  0.0271  0.1906  0.6337
39986SOL    HW124896   9.982   5.980   5.405 -1.2327  0.0567 -0.4137
39986SOL    HW224897  10.037   5.864   5.325  0.7229 -0.0941  1.0743
39987SOL     OW24898   4.924   4.392   8.036 -0.5378  0.0124  0.0610
39987SOL    HW124899   4.874   4.467   8.002 -0.0738  0.2852 -0.0243
39987SOL    HW224900   4.874   4.315   8.008 -0.8985  0.2824 -0.0423
39988SOL     OW24901   0.760  11.591   2.808  0.3506  0.0300 -0.7882
39988SOL    HW124902   0.798  11.678   2.818  1.6568 -0.4664 -1.1733
39988SOL    HW224903   0.775  11.568   2.716  0.9425 -0.9899 -0.4589
39989SOL     OW24904   4.221   4.290  11.089  0.8298 -0.3312 -0.4687
39989SOL    HW124905   4.257   4.363  11.139  0.4775 -1.3586  1.3710
39989SOL    HW224906   4.187   4.230  11.155 -1.0505 -1.0614 -2.0030
39990SOL     OW24907  11.457  10.120   2.193  0.8474  0.1056  0.1769
39990SOL    HW124908  11.362  10.131   2.183  1.2269  1.6388 -3.2101
39990SOL    HW224909  11.468  10.032   2.227 -1.7800 -0.6880 -0.7996
39991SOL     OW24910   1.894  10.884   2.828 -0.3279 -0.2434 -0.1375
39991SOL    HW124911   1.985  10.853   2.834  0.3299  1.3848 -0.9431
39991SOL    HW224912   1.878  10.928   2.912  0.0134  0.3745 -0.3866
39992SOL     OW24913  10.181   4.793   2.944  0.2264  0.3001 -0.2795
39992SOL    HW124914  10.126   4.758   2.874  0.2185  0.5964 -0.4260
39992SOL    HW224915  10.131   4.779   3.024  1.2425 -2.2249  0.0108
39993SOL     OW24916   5.471  11.483   2.402 -0.3723  1.0627 -0.3998
39993SOL    HW124917   5.524  11.445   2.473 -0.9496  0.0614 -0.4962
39993SOL    HW224918   5.505  11.443   2.322  0.0257  1.9111 -0.6774
39994SOL     OW24919   8.123   5.301   6.216  0.5030  0.1614  0.3754
39994SOL    HW124920   8.127   5.206   6.230  1.2478  0.2799  1.0621
39994SOL    HW224921   8.183   5.337   6.282  1.5733  0.9994 -1.0109
39995SOL     OW24922   1.145  10.949  10.254  0.1412 -0.4016 -0.0088
39995SOL    HW124923   1.166  10.935  10.347  0.4949 -1.9414 -0.3024
39995SOL    HW224924   1.153  10.863  10.214 -0.2357  0.2020 -1.4435
39996SOL     OW24925   9.218   3.856   0.218  0.8006 -0.3140 -0.6686
39996SOL    HW124926   9.257   3.942   0.201 -2.2502  1.6901  1.4518
39996SOL    HW224927   9.175   3.833   0.136  0.3547  0.9766 -0.8231
39997SOL     OW24928  10.601   1.107  11.326  0.6255  0.1275 -0.0764
39997SOL    HW124929  10.580   1.134  11.237  1.5597 -0.7416 -0.5676
39997SOL    HW224930  10.633   1.018  11.318  1.5509  0.3377  1.0208
39998SOL     OW24931   0.732   5.125   5.223  0.4049 -0.5733 -0.0006
39998SOL    HW124932   0.729   5.035   5.254  1.3812  0.1342  2.4020
39998SOL    HW224933   0.640   5.152   5.220  0.1879 -1.1154  1.0940
39999SOL     OW24934   0.985   3.993   5.910 -0.6329  0.6559 -0.1654
39999SOL    HW124935   0.892   4.013   5.907 -0.6317  0.5953 -1.3001
39999SOL    HW224936   0.989   3.901   5.937 -1.0168  0.1455 -1.7201
40000SOL     OW24937   1.902   6.935   3.219 -0.7285  0.1626  0.0348
40000SOL    HW124938   1.923   7.003   3.282 -1.8178  0.1739  0.4091
40000SOL    HW224939   1.830   6.971   3.167 -2.1074 -1.0877  0.9791
40001SOL     OW24940   5.209   4.873   6.480 -0.1867  0.2100 -0.4409
40001SOL    HW124941   5.148   4.918   6.538  0.2286  0.6916 -0.3747
40001SOL    HW224942   5.274   4.939   6.457  2.0895 -1.0308  1.9340
40002SOL     OW24943   4.150   4.599   9.413  0.0186 -0.5797 -0.2750
40002SOL    HW124944   4.082   4.549   9.458 -0.9814  0.5944 -0.4547
40002SOL    HW224945   4.231   4.551   9.433 -0.3799 -0.2405  2.6194
40003SOL     OW24946  10.790   3.128   0.579  0.1517 -0.1334 -0.2724
40003SOL    HW124947  10.790   3.217   0.543 -1.4648 -0.5414 -1.3803
40003SOL    HW224948  10.784   3.071   0.502 -2.5869 -1.0673  0.4982
40004SOL     OW24949   2.911   5.080   8.342  0.0669 -0.2372  0.6425
40004SOL    HW124950   2.983   5.039   8.390  0.7101 -0.2423 -0.2900
40004SOL    HW224951   2.952   5.111   8.261 -0.8897  0.1908  0.3140
40005SOL     OW24952   3.389   7.630  10.524  0.1685 -0.1137  0.2745
40005SOL    HW124953   3.424   7.717  10.504  1.1179 -0.5901 -0.2279
40005SOL    HW224954   3.295   7.643  10.533  0.4067  1.1477  1.2177
40006SOL     OW24955   3.709   6.258   9.601  0.2251  0.3590 -0.5956
40006SOL    HW124956   3.629   6.261   9.550  1.2232  1.4461 -2.1754
40006SOL    HW224957   3.778   6.240   9.537  1.6614  2.8627  0.0973
40007SOL     OW24958  10.703   7.285   4.849  0.4359  0.1691  0.1439
40007SOL    HW124959  10.621   7.279   4.800 -0.0581  1.4999  0.7574
40007SOL    HW224960  10.735   7.373   4.830  0.8947  0.2395  1.1821
40008SOL     OW24961   6.374   4.255   6.749  0.6069 -0.2765 -0.1453
40008SOL    HW124962   6.330   4.335   6.722 -0.1299 -0.5121  0.3486
40008SOL    HW224963   6.407   4.217   6.667 -1.3671 -0.8462 -0.7329
40009SOL     OW24964   4.241   9.756   0.599  0.5651 -0.4112  0.4734
40009SOL    HW124965   4.330   9.786   0.616  0.5928  0.3910 -0.9366
40009SOL    HW224966   4.226   9.777   0.507 -1.3507  0.1358  0.8751
40010SOL     OW24967   7.864   2.388   7.230  0.4161 -0.1311 -0.7703
40010SOL    HW124968   7.866   2.450   7.303  1.1427 -0.2751 -0.6604
40010SOL    HW224969   7.901   2.307   7.266 -0.5619 -0.6547 -0.8957
40011SOL     OW24970   3.283  10.520   9.184 -0.7294 -0.0035  0.4301
40011SOL    HW124971   3.303  10.588   9.120  0.0497 -1.2116 -0.6637
40011SOL    HW224972   3.283  10.565   9.268 -2.2167  1.7300 -0.4228
40012SOL     OW24973   7.514   6.300   6.562  0.4370  0.1195 -0.0881
40012SOL    HW124974   7.483   6.389   6.551  0.3363  0.3837  2.0091
40012SOL    HW224975   7.544   6.274   6.475  2.7224  3.0326 -0.3293
40013SOL     OW24976   9.653   6.397   8.761  0.3356  0.6455  0.7385
40013SOL    HW124977   9.666   6.314   8.715  0.4840  0.8519  0.4028
40013SOL    HW224978   9.715   6.393   8.834  0.4127  0.5024  0.6680
40014SOL     OW24979   7.108   1.918   7.242 -0.6536 -0.0994  0.5964
40014SOL    HW124980   7.121   2.005   7.279 -0.3056  1.2552 -2.4057
40014SOL    HW224981   7.118   1.858   7.316  1.2349  2.2577  2.3976
40015SOL     OW24982   2.223  10.756   1.008  0.1449  0.0128 -0.1621
40015SOL    HW124983   2.299  10.744   1.064 -0.0204  2.8961  0.8499
40015SOL    HW224984   2.249  10.826   0.947 -1.2677  0.1957 -0.5905
40016SOL     OW24985   7.261   5.592   2.801  0.1197 -0.1416  0.0365
40016SOL    HW124986   7.174   5.601   2.763 -0.6140 -2.2333  1.0181
40016SOL    HW224987   7.250   5.618   2.893  0.4065 -0.8166  0.2714
40017SOL     OW24988   5.919   2.499  10.339  0.3138 -0.0001 -0.4178
40017SOL    HW124989   5.852   2.476  10.275  0.5651 -0.9661 -0.3489
40017SOL    HW224990   5.917   2.428  10.403  0.7614  0.4395  0.1022
40018SOL     OW24991   3.964  11.161   3.009 -0.2433 -0.1888  0.3264
40018SOL    HW124992   3.903  11.135   3.078  0.5242  1.0094  1.5120
40018SOL    HW224993   3.912  11.214   2.948 -0.3927  0.9106  1.3779
40019SOL     OW24994   1.474   1.475  10.181  0.2179  0.2776 -0.3699
40019SOL    HW124995   1.557   1.474  10.228 -0.3758  0.1717  0.7296
40019SOL    HW224996   1.492   1.525  10.101  1.7444 -1.1996 -0.9988
40020SOL     OW24997   2.656  10.072  10.968  0.3909 -0.1309 -0.2510
40020SOL    HW124998   2.701  10.122  10.900  1.0795  0.6888  0.7940
40020SOL    HW224999   2.716  10.072  11.042 -1.0113  0.3618  0.9337
40021SOL     OW25000   0.339  10.248   6.355 -0.3037 -0.1977  0.2093
40021SOL    HW125001   0.264  10.245   6.415 -0.4051  0.1194  0.1008
40021SOL    HW225002   0.411  10.211   6.405 -0.9223 -2.2133 -0.2650
40022SOL     OW25003  10.446   5.185   4.517  0.4178 -0.0132  0.1453
40022SOL    HW125004  10.486   5.270   4.538  1.5973 -0.5194  0.0061
40022SOL    HW225005  10.389   5.203   4.443  2.3146  0.2808 -1.3259
40023SOL     OW25006   9.679   0.949   0.761  0.5512  0.1101 -0.0763
40023SOL    HW125007   9.765   0.908   0.762  1.2064  1.4337  1.0907
40023SOL    HW225008   9.697   1.042   0.755 -0.8897  0.3087 -2.2007
40024SOL     OW25009   5.365   8.201   9.138 -0.7699 -0.3333 -0.6280
40024SOL    HW125010   5.414   8.216   9.218  1.7468 -0.8116 -1.9707
40024SOL    HW225011   5.358   8.105   9.131 -1.0344 -0.2941 -0.9377
40025SOL     OW25012   2.522  10.589   1.423 -0.7290  0.2635 -1.0029
40025SOL    HW125013   2.606  10.568   1.384 -0.8114  1.6884 -2.0278
40025SOL    HW225014   2.513  10.684   1.410 -1.4678  0.5323  1.1125
40026SOL     OW25015   7.203   4.708   7.643 -0.1295 -0.1639 -0.2488
40026SOL    HW125016   7.285   4.677   7.682 -0.0074  0.6644  0.1840
40026SOL    HW225017   7.193   4.656   7.563  1.5485  0.6698 -1.0666
40027SOL     OW25018  11.427  10.012   8.649  0.2416 -0.1860  0.4762
40027SOL    HW125019  11.486   9.980   8.717  0.5575 -0.1051  0.2499
40027SOL    HW225020  11.395   9.933   8.605  0.7645 -0.2130  0.1276
40028SOL     OW25021   2.167   6.625   3.955 -0.6017  0.2462 -0.6962
40028SOL    HW125022   2.185   6.557   4.020 -0.8581  0.1019 -0.7735
40028SOL    HW225023   2.110   6.583   3.891 -0.3277  0.3807 -1.0318
40029SOL     OW25024   6.169   5.703   6.668 -0.0978 -0.3339 -0.1308
40029SOL    HW125025   6.181   5.634   6.603  0.9390 -0.8438  0.5758
40029SOL    HW225026   6.177   5.658   6.752 -0.4014  0.4852  0.3486
40030SOL     OW25027   9.147   7.135   0.418  0.1574  0.5345  0.4371
40030SOL    HW125028   9.188   7.172   0.340 -4.6516  0.9184 -2.2290
40030SOL    HW225029   9.125   7.211   0.472 -1.2201  0.7739 -0.4375
40031SOL     OW25030   2.115   6.154   7.410 -0.0281  0.1179  0.1055
40031SOL    HW125031   2.073   6.102   7.478  0.6020  0.5443  0.8359
40031SOL    HW225032   2.063   6.235   7.406 -1.0423 -0.5502 -1.0700
40032SOL     OW25033   4.015  11.008  10.090 -0.6500 -0.4052  0.2644
40032SOL    HW125034   3.956  11.084  10.094 -1.8786 -1.3769  1.4036
40032SOL    HW225035   4.103  11.046  10.093 -1.1039  1.1809 -2.8236
40033SOL     OW25036   4.906   7.665   3.309  0.2207  0.0575  0.1366
40033SOL    HW125037   4.829   7.706   3.269  0.2982 -1.0389 -1.2285
40033SOL    HW225038   4.976   7.729   3.299 -0.0309  0.2420 -0.5243
40034SOL     OW25039   7.480   5.221   4.801  0.7037  0.5348  0.3839
40034SOL    HW125040   7.483   5.126   4.814 -0.4013  0.1741 -1.6687
40034SOL    HW225041   7.484   5.257   4.890 -1.0468 -1.4895  1.3637
40035SOL     OW25042   4.095   8.289   3.527 -0.0865 -0.3976  0.5050
40035SOL    HW125043   4.039   8.246   3.462  0.2530  0.8682 -0.6782
40035SOL    HW225044   4.070   8.249   3.610 -2.1434 -0.4924 -0.0951
40036SOL     OW25045   3.880   4.992   2.010 -0.1735  0.1286  0.0188
40036SOL    HW125046   3.872   4.900   1.984  1.4106 -0.0419  0.0213
40036SOL    HW225047   3.857   4.993   2.103 -0.9891 -0.1209 -0.1780
40037SOL     OW25048   2.798   4.827   3.603 -0.0670  0.3607 -0.2392
40037SOL    HW125049   2.798   4.922   3.612 -2.7824  0.6723 -2.1642
40037SOL    HW225050   2.883   4.807   3.563  1.3129  1.6879  1.8539
40038SOL     OW25051   8.675   1.891   4.228 -0.0574  0.5277  0.4299
40038SOL    HW125052   8.761   1.914   4.264  1.0324 -0.9198 -1.0889
40038SOL    HW225053   8.632   1.975   4.215  0.4271  1.2282  2.7513
40039SOL     OW25054   0.348   3.269  10.338  0.0856 -0.3424 -0.3589
40039SOL    HW125055   0.292   3.332  10.293  0.1489 -1.6323 -2.4015
40039SOL    HW225056   0.437   3.302  10.325  0.1170 -0.8027 -1.4111
40040SOL     OW25057   2.920   6.663   4.517  0.0197 -0.3577 -0.2946
40040SOL    HW125058   2.847   6.725   4.506 -0.2765 -0.3256  1.4984
40040SOL    HW225059   2.889   6.582   4.477 -0.3967  0.0936 -0.8939
40041SOL     OW25060   3.726   6.349   0.328 -0.8920 -0.2859 -0.3744
40041SOL    HW125061   3.818   6.374   0.317 -1.2325  0.8366 -0.8524
40041SOL    HW225062   3.677   6.426   0.300 -1.9866 -0.8708 -0.1274
40042SOL     OW25063   2.692  10.017   6.075 -0.4062 -0.0982  0.3781
40042SOL    HW125064   2.786  10.002   6.071 -0.3191  0.5379 -0.0138
40042SOL    HW225065   2.680  10.082   6.144 -0.3532  1.3687 -0.9637
40043SOL     OW25066   3.800   9.627   5.984  0.4256 -0.5951  0.3831
40043SOL    HW125067   3.740   9.553   5.974 -0.9013  0.5468 -0.3386
40043SOL    HW225068   3.887   9.589   5.967 -0.1427 -2.1121  0.6804
40044SOL     OW25069   7.377   8.990   5.376 -0.6711 -0.0703  0.5359
40044SOL    HW125070   7.414   8.902   5.387 -1.7336 -0.4418  1.2442
40044SOL    HW225071   7.409   9.039   5.452  0.6998  0.4554 -0.3454
40045SOL     OW25072   7.385   1.694   3.609  0.0061 -0.1179  0.3068
40045SOL    HW125073   7.452   1.693   3.540  0.1259 -0.8878  0.4255
40045SOL    HW225074   7.430   1.725   3.687 -0.2533  1.2684 -0.0687
40046SOL     OW25075   5.809   0.557   3.062  0.6067  0.5030  0.3307
40046SOL    HW125076   5.806   0.637   3.114 -0.1131 -0.5016  1.9090
40046SOL    HW225077   5.728   0.558   3.010  0.0992  0.3370  1.1016
40047SOL     OW25078  11.539   5.248  10.967  0.2635 -0.0577  0.1845
40047SOL    HW125079  11.550   5.339  10.993  2.7705 -0.4342  0.7020
40047SOL    HW225080  11.604   5.200  11.019 -1.1332 -2.1921  0.1008
40048SOL     OW25081  11.117   3.384  10.749 -0.0324  0.2794 -0.3071
40048SOL    HW125082  11.119   3.452  10.682 -2.8614  0.7056 -0.0836
40048SOL    HW225083  11.024   3.362  10.758  0.5622 -1.9474  1.3194
40049SOL     OW25084   6.239   2.443   8.623  0.0946  0.1303 -0.1536
40049SOL    HW125085   6.164   2.453   8.564  0.5735  0.8218 -0.6465
40049SOL    HW225086   6.309   2.407   8.569 -0.1088 -1.3199  0.4958
40050SOL     OW25087   9.741   7.085   2.602 -0.1552  0.0936  0.4310
40050SOL    HW125088   9.723   7.010   2.659 -0.6331  1.5408  2.2848
40050SOL    HW225089   9.809   7.134   2.648 -0.7771  1.4763 -0.0768
40051SOL     OW25090   1.656   2.579  11.427 -0.1279  0.2107 -0.1108
40051SOL    HW125091   1.705   2.656  11.456  0.4156 -0.5313  0.9928
40051SOL    HW225092   1.565   2.609  11.425  0.2995  1.6177 -2.2268
40052SOL     OW25093   0.210   0.731   6.152 -0.4201  0.4766  0.1624
40052SOL    HW125094   0.272   0.695   6.088  0.2458  1.6826  0.1017
40052SOL    HW225095   0.135   0.760   6.099 -0.3011  0.5605  0.0404
40053SOL     OW25096   5.077   5.171   0.026 -0.0418 -0.0490  0.9868
40053SOL    HW125097   5.056   5.221   0.106 -1.3259  1.6948 -0.3510
40053SOL    HW225098   5.010   5.102   0.023  0.2766 -0.3966  1.6199
40054SOL     OW25099   0.367   8.098  10.147  0.2792 -0.5589 -0.2944
40054SOL    HW125100   0.343   8.065  10.060 -1.2886  0.0405 -0.1170
40054SOL    HW225101   0.408   8.183  10.130 -1.9288  0.5516 -0.3706
40055SOL     OW25102   6.224   1.635   8.424 -0.6110  0.4459  0.1681
40055SOL    HW125103   6.250   1.637   8.332 -0.0983 -0.2077  0.2894
40055SOL    HW225104   6.180   1.719   8.438  0.9342  1.3478 -0.2030
40056SOL     OW25105   7.712   5.096   7.703  0.2293 -0.1654  0.2670
40056SOL    HW125106   7.789   5.152   7.709  0.8825 -0.7702 -1.8009
40056SOL    HW225107   7.741   5.019   7.653 -1.8479 -0.0958 -1.1775
40057SOL     OW25108   2.520   3.683   6.288 -0.4209  0.4294 -0.2379
40057SOL    HW125109   2.486   3.744   6.354  0.0039  2.6314 -1.9699
40057SOL    HW225110   2.476   3.600   6.309 -2.4320  1.7283  1.1190
40058SOL     OW25111   0.327   4.078   6.404 -0.0157  0.2800 -0.0151
40058SOL    HW125112   0.248   4.073   6.350 -0.6363  1.0931  0.7850
40058SOL    HW225113   0.398   4.052   6.345 -0.9184 -0.9520 -0.6211
40059SOL     OW25114   1.360  10.257   7.156 -0.5796  0.0027 -0.4301
40059SOL    HW125115   1.272  10.229   7.129 -0.5329  0.6433 -1.2992
40059SOL    HW225116   1.396  10.182   7.202 -1.5435 -0.3088 -0.1525
40060SOL     OW25117   5.397   7.596   1.860 -0.0667 -0.1064 -0.1199
40060SOL    HW125118   5.365   7.509   1.882 -1.6646 -0.1908 -2.5120
40060SOL    HW225119   5.447   7.622   1.937 -1.5338 -2.1348  1.6504
40061SOL     OW25120   7.222   9.884   3.778  0.5361 -0.0694  0.0142
40061SOL    HW125121   7.183   9.916   3.697  1.9609  0.4515 -0.5030
40061SOL    HW225122   7.202   9.791   3.779 -2.0147  0.4062  0.5692
40062SOL     OW25123  10.848   5.966   3.186 -0.1361 -0.3117  0.1052
40062SOL    HW125124  10.903   6.023   3.131 -0.4133 -0.4735 -0.3479
40062SOL    HW225125  10.759   5.998   3.171 -0.3195 -0.9927 -0.3193
40063SOL     OW25126   4.292   6.976   7.232 -0.5940 -0.1268 -0.4164
40063SOL    HW125127   4.285   7.046   7.298 -1.3478 -0.6901  0.1237
40063SOL    HW225128   4.384   6.977   7.205  0.1301 -0.9117  1.8163
40064SOL     OW25129  11.520   8.555  10.091 -0.0757 -0.6837 -0.3843
40064SOL    HW125130  11.433   8.592  10.109 -0.4479 -1.8192  0.2534
40064SOL    HW225131  11.564   8.557  10.176 -0.0579 -1.5788 -0.3695
40065SOL     OW25132  10.417   4.661   6.017 -0.2120 -0.4812 -0.3098
40065SOL    HW125133  10.492   4.713   6.046 -1.3808  0.2147  1.6345
40065SOL    HW225134  10.368   4.720   5.960 -0.0138 -0.4739 -0.4770
40066SOL     OW25135   5.928   1.773   7.506 -0.1817 -0.0150 -0.3835
40066SOL    HW125136   6.013   1.811   7.486 -0.7620  0.9123 -1.1845
40066SOL    HW225137   5.876   1.846   7.541 -0.7494 -0.4925 -0.2046
40067SOL     OW25138   1.611   9.588  10.012  0.2444 -0.2035  0.1882
40067SOL    HW125139   1.641   9.625  10.095  2.5398 -2.3285  0.4169
40067SOL    HW225140   1.547   9.522  10.036  0.1103 -0.0761  0.1812
40068SOL     OW25141   4.424   2.074   5.169  0.4252  0.6348  0.4670
40068SOL    HW125142   4.337   2.040   5.190  0.5477 -1.0858 -1.4744
40068SOL    HW225143   4.416   2.105   5.079  2.1986 -1.2490 -0.4357
40069SOL     OW25144   6.990   3.154   8.383  0.7752 -0.3739 -0.3639
40069SOL    HW125145   6.965   3.172   8.293  0.5349 -0.4299 -0.3101
40069SOL    HW225146   6.962   3.063   8.398  3.7804 -1.5670 -1.2644
40070SOL     OW25147   2.976   9.449   7.968 -0.6639  0.3814  0.4529
40070SOL    HW125148   2.887   9.416   7.959 -1.0289  1.0752  1.3443
40070SOL    HW225149   2.973   9.537   7.929 -0.1501  0.0828 -0.2817
40071SOL     OW25150  11.120   6.492   7.382  0.0483  0.0508 -0.1771
40071SOL    HW125151  11.168   6.418   7.421  0.0647  0.4766  0.6281
40071SOL    HW225152  11.028   6.470   7.396 -0.0249 -0.7084 -1.6160
40072SOL     OW25153   9.455   8.904   8.483  0.2236 -0.0262 -0.2057
40072SOL    HW125154   9.396   8.856   8.541  0.9848 -0.3942  0.2715
40072SOL    HW225155   9.456   8.993   8.519  0.6912 -0.2534  0.3450
40073SOL     OW25156   5.722   9.181   2.393  0.4439 -0.7207  0.2212
40073SOL    HW125157   5.804   9.195   2.345  0.0310  0.4390 -0.1878
40073SOL    HW225158   5.669   9.129   2.333  0.5046 -0.6024  0.0632
40074SOL     OW25159   2.176   1.199  10.219 -0.0810 -0.1893  0.2244
40074SOL    HW125160   2.187   1.271  10.281  0.6427 -1.1719  1.2845
40074SOL    HW225161   2.117   1.138  10.263 -1.7473  0.3213 -1.1995
40075SOL     OW25162   6.573   4.745  11.683  0.4739 -0.0450  0.2719
40075SOL    HW125163   6.632   4.821  11.687  1.4979 -0.7782 -0.3170
40075SOL    HW225164   6.555   4.734  11.589 -0.4748  0.0511  0.4309
40076SOL     OW25165   7.277   9.115   3.382  0.2305 -0.4111  0.3213
40076SOL    HW125166   7.333   9.110   3.305  0.2787 -0.0095  0.3282
40076SOL    HW225167   7.334   9.093   3.456  0.0279 -1.4524  0.1784
40077SOL     OW25168   6.757   3.955   6.606 -0.4969 -0.3556 -0.1687
40077SOL    HW125169   6.809   3.930   6.682 -2.6412 -1.3158  1.0658
40077SOL    HW225170   6.806   4.027   6.566  1.1412 -0.4276  1.5825
40078SOL     OW25171   4.284   0.881   8.977  0.6634 -0.0792  0.3690
40078SOL    HW125172   4.272   0.905   8.885 -0.0898  1.0755  0.7473
40078SOL    HW225173   4.233   0.801   8.987  1.1066 -0.4573 -0.3203
40079SOL     OW25174   4.597  10.542   9.531  0.0257 -0.4540  0.3220
40079SOL    HW125175   4.683  10.548   9.489 -0.5861 -0.7511 -1.0285
40079SOL    HW225176   4.606  10.471   9.594  0.2959 -1.6862 -1.0528
40080SOL     OW25177   9.779   0.131   4.336  0.2254 -0.2405 -0.4117
40080SOL    HW125178   9.782   0.147   4.242 -0.0718 -2.7676 -0.9329
40080SOL    HW225179   9.815   0.043   4.346  1.5109  0.4632  2.0092
40081SOL     OW25180   2.237   8.730   6.670 -0.0185  0.4333  0.0232
40081SOL    HW125181   2.202   8.813   6.636  0.0759  0.5781  0.2802
40081SOL    HW225182   2.189   8.716   6.752  0.7607  0.8103  0.5579
40082SOL     OW25183  10.487   4.591  10.951  0.1366  0.3363 -0.4842
40082SOL    HW125184  10.557   4.561  10.893  0.0577  0.3357 -0.5785
40082SOL    HW225185  10.421   4.627  10.893 -0.5246 -0.8441 -0.4906
40083SOL     OW25186   4.291   9.422   8.044 -0.0569  0.1247  0.0781
40083SOL    HW125187   4.369   9.369   8.056 -0.0552  0.1990  0.3999
40083SOL    HW225188   4.319   9.511   8.066 -0.0662  0.2565 -0.4344
40084SOL     OW25189  10.134   5.881   9.044  0.6207 -0.2175  0.2764
40084SOL    HW125190  10.204   5.853   8.986 -0.7063 -1.0728 -0.9752
40084SOL    HW225191  10.154   5.973   9.063  1.5244 -0.1498 -0.8848
40085SOL     OW25192   5.273  10.891   7.602  0.1313 -0.3322  0.2349
40085SOL    HW125193   5.199  10.863   7.548 -0.1843  0.2420  0.3608
40085SOL    HW225194   5.309  10.809   7.637 -0.5872 -0.6095  0.3577
40086SOL     OW25195   2.293   7.093   0.097  0.0370  0.1438  0.1109
40086SOL    HW125196   2.198   7.081   0.097 -0.1329  0.5845 -2.7421
40086SOL    HW225197   2.310   7.153   0.170 -1.7447 -0.5815  1.1781
40087SOL     OW25198  11.344   6.024  11.624  1.0476 -0.3773 -0.4989
40087SOL    HW125199  11.293   5.949  11.654  0.1761 -0.5757 -2.3087
40087SOL    HW225200  11.282   6.097  11.627  1.2605 -0.1855 -0.7356
40088SOL     OW25201   2.819   5.478   5.280  0.3798 -1.2222  0.4305
40088SOL    HW125202   2.860   5.437   5.356 -1.3936 -1.8637  1.0833
40088SOL    HW225203   2.870   5.445   5.205  0.5622 -2.6399  1.1394
40089SOL     OW25204   3.577   1.275  10.603  0.3088 -0.3474 -0.5141
40089SOL    HW125205   3.647   1.266  10.667 -0.1348  2.3587  0.5081
40089SOL    HW225206   3.501   1.233  10.644 -0.0283  1.5570  0.9323
40090SOL     OW25207   6.828   3.537   9.348 -0.2394 -0.4744 -0.2242
40090SOL    HW125208   6.859   3.576   9.266  0.8681 -1.1298 -0.1349
40090SOL    HW225209   6.821   3.443   9.328 -1.1603 -0.4835  0.0792
40091SOL     OW25210  10.586   7.983   7.886  0.0941  0.6438 -0.1639
40091SOL    HW125211  10.492   7.969   7.875 -0.1605  1.3987  0.8653
40091SOL    HW225212  10.624   7.896   7.873 -0.7531  0.3018 -0.4833
40092SOL     OW25213   8.033   2.105   6.156  0.1670  0.2301 -0.1657
40092SOL    HW125214   7.953   2.105   6.104 -0.2151  1.1796  0.4028
40092SOL    HW225215   8.068   2.194   6.146 -0.5451  0.8240  2.1138
40093SOL     OW25216  11.249   5.169   7.061 -0.1006 -0.1859 -0.4724
40093SOL    HW125217  11.293   5.188   6.978 -0.2130  1.8285 -0.1243
40093SOL    HW225218  11.169   5.124   7.036  0.9092 -1.6264 -1.2773
40094SOL     OW25219  10.948   0.673   1.694  0.1086  0.3327 -0.3819
40094SOL    HW125220  11.043   0.661   1.690 -0.0074 -1.2593  0.7782
40094SOL    HW225221  10.913   0.584   1.700 -1.5632  0.8000 -2.1317
40095SOL     OW25222   1.138   1.725   4.268  0.0630  0.4789  0.0407
40095SOL    HW125223   1.169   1.655   4.326 -0.8554  0.3911  0.4327
40095SOL    HW225224   1.084   1.781   4.323 -0.5704  0.5719 -0.6591
40096SOL     OW25225   0.309   7.423   6.348 -0.2400  0.4632  0.3192
40096SOL    HW125226   0.396   7.458   6.330 -0.8819  2.0123  0.0508
40096SOL    HW225227   0.296   7.437   6.442 -0.2983  0.5024  0.3057
40097SOL     OW25228   8.739   3.960   2.133  0.2773  0.1723 -0.2673
40097SOL    HW125229   8.728   3.897   2.205  0.0451 -0.2584 -0.6751
40097SOL    HW225230   8.740   4.045   2.177  0.3201 -0.0947  0.2664
40098SOL     OW25231   2.896   8.303   2.272 -0.7608 -0.0746  0.1124
40098SOL    HW125232   2.936   8.221   2.302 -3.2160 -1.1755  0.5971
40098SOL    HW225233   2.845   8.277   2.195  0.2405  1.4858 -1.1294
40099SOL     OW25234   1.475   9.264  10.751  0.0797  0.1393 -0.3849
40099SOL    HW125235   1.480   9.171  10.728  2.2267  0.2733 -0.6581
40099SOL    HW225236   1.474   9.266  10.847  0.8506 -0.1520 -0.3685
40100SOL     OW25237   0.208   6.078   8.982 -0.6399 -0.0396 -0.3566
40100SOL    HW125238   0.159   5.997   8.964 -2.4744  0.7621  0.7765
40100SOL    HW225239   0.163   6.145   8.929 -0.5570  0.6472  0.4230
40101SOL     OW25240   3.389   7.353   2.656 -0.1176 -0.4903  0.0420
40101SOL    HW125241   3.459   7.346   2.591  1.2933 -1.1209  1.5623
40101SOL    HW225242   3.312   7.314   2.614 -0.5389  2.9370 -2.8475
40102SOL     OW25243   7.526   7.139   3.147  0.0380 -0.2992 -0.0135
40102SOL    HW125244   7.444   7.100   3.117 -0.0498 -0.1157 -0.0171
40102SOL    HW225245   7.503   7.180   3.231  0.0717 -0.0523 -0.1236
40103SOL     OW25246   5.608  10.051   8.556 -0.2508 -0.1576 -0.5448
40103SOL    HW125247   5.656  10.095   8.486  1.0892 -0.0843  0.3837
40103SOL    HW225248   5.533  10.108   8.573  1.0948  1.5035  0.1970
40104SOL     OW25249   9.178   6.350  11.689 -0.1013  0.2910 -0.3246
40104SOL    HW125250   9.129   6.380  11.766  1.8378 -1.1517  1.5882
40104SOL    HW225251   9.137   6.268  11.664  0.6863 -0.4290  0.6790
40105SOL     OW25252   4.570   3.997   4.168 -0.0727  0.3462 -0.3408
40105SOL    HW125253   4.559   3.905   4.144 -0.2408 -0.2885  1.9535
40105SOL    HW225254   4.633   4.031   4.104  1.7442 -1.9685  0.0982
40106SOL     OW25255  10.314   9.797   9.318  0.1529 -0.1179 -0.6703
40106SOL    HW125256  10.301   9.832   9.230 -0.3155  1.5849  0.0515
40106SOL    HW225257  10.256   9.848   9.374  1.9230  0.2600  0.9479
40107SOL     OW25258  11.153   3.202   7.010  0.1870  0.1105 -0.2378
40107SOL    HW125259  11.203   3.282   6.994 -0.2674  0.0610 -2.1699
40107SOL    HW225260  11.214   3.144   7.055  1.7344  0.2620 -2.0111
40108SOL     OW25261   8.541   3.465   5.952 -0.0618 -0.0102 -0.1242
40108SOL    HW125262   8.448   3.457   5.976 -0.7990  1.0207 -2.3178
40108SOL    HW225263   8.544   3.433   5.861  1.6360  0.4906 -0.2738
40109SOL     OW25264   6.210  10.453   1.362 -0.1224  0.2202 -0.1074
40109SOL    HW125265   6.196  10.533   1.312  0.9429 -0.7382 -2.0984
40109SOL    HW225266   6.302  10.456   1.389 -0.8839  1.1070  2.6483
40110SOL     OW25267   5.001   2.609   9.164 -0.7014 -0.0780  0.0584
40110SOL    HW125268   5.013   2.630   9.071  1.6883  0.4627  0.4313
40110SOL    HW225269   4.997   2.694   9.207 -0.4063 -0.3338  0.5918
40111SOL     OW25270   5.980   4.094   8.742  0.4141  0.4078 -0.7914
40111SOL    HW125271   6.033   4.067   8.817 -0.2401 -0.4225 -0.6156
40111SOL    HW225272   5.931   4.016   8.718 -0.5568  1.0960 -1.0986
40112SOL     OW25273   8.135   5.576   6.310 -0.2127 -0.0495 -0.1256
40112SOL    HW125274   8.095   5.511   6.251  0.0474  0.7499 -1.2130
40112SOL    HW225275   8.090   5.658   6.289  0.0564  0.2985  0.6334
40113SOL     OW25276   7.123   7.447   5.752  0.0107  0.1553  0.2598
40113SOL    HW125277   7.093   7.494   5.674 -0.4077 -2.0184 -0.9646
40113SOL    HW225278   7.140   7.358   5.722  1.2598 -0.4013  2.3660
40114SOL     OW25279   3.009   1.596   7.044  0.8323 -0.2108 -0.6054
40114SOL    HW125280   3.061   1.581   7.122 -1.2929 -3.1339  0.4353
40114SOL    HW225281   3.045   1.537   6.978  0.5971 -0.1497 -0.7948
40115SOL     OW25282   8.258   3.893   0.226 -0.3443 -0.1733  0.2340
40115SOL    HW125283   8.346   3.868   0.198 -0.3843  0.0521 -0.0966
40115SOL    HW225284   8.211   3.810   0.236  0.0217 -0.3222  0.8206
40116SOL     OW25285   6.846   7.621   4.565 -0.6528  0.5879  0.4684
40116SOL    HW125286   6.941   7.615   4.575 -0.5768 -1.3373 -0.8155
40116SOL    HW225287   6.825   7.713   4.581  1.2853  0.8566  1.7167
40117SOL     OW25288   4.470   2.242   5.388 -0.0922 -0.2390 -0.4643
40117SOL    HW125289   4.407   2.315   5.392 -0.5609 -0.6373 -0.5104
40117SOL    HW225290   4.452   2.199   5.304 -3.1704 -3.3539  1.5282
40118SOL     OW25291   7.552   4.420   4.413  0.3658 -0.3879 -0.2597
40118SOL    HW125292   7.499   4.360   4.361 -0.0688 -1.2991  1.1862
40118SOL    HW225293   7.489   4.465   4.469  0.9835 -0.6160  0.6316
40119SOL     OW25294   9.629   2.681  11.158 -0.4023  0.1102 -0.3646
40119SOL    HW125295   9.714   2.668  11.199 -1.0329 -1.0040  0.6724
40119SOL    HW225296   9.625   2.775  11.140  1.4804  0.0110 -1.4911
40120SOL     OW25297  10.118   5.021   8.818 -0.3748 -0.8738 -0.1778
40120SOL    HW125298  10.086   5.106   8.788 -0.7566 -0.9235  0.0817
40120SOL    HW225299  10.212   5.034   8.831 -0.3784 -0.5774 -0.4303
40121SOL     OW25300   4.520   7.593   6.351 -0.4884 -0.0336  0.5988
40121SOL    HW125301   4.612   7.595   6.323 -0.7977 -0.9130 -0.5463
40121SOL    HW225302   4.521   7.543   6.433  0.2950  1.6839  1.7025
40122SOL     OW25303   3.663   6.719   3.087  0.0361 -0.0452 -0.0566
40122SOL    HW125304   3.747   6.674   3.103 -0.2945 -0.6169  0.0984
40122SOL    HW225305   3.605   6.685   3.155 -1.1504 -1.8452 -1.8609
40123SOL     OW25306   9.022   2.468   3.416 -0.4286  0.1390  0.3531
40123SOL    HW125307   8.929   2.469   3.437 -0.8923  1.9212 -1.5016
40123SOL    HW225308   9.058   2.544   3.463 -0.2964  0.5510 -0.3961
40124SOL     OW25309   5.898   2.800   8.040 -0.3221  0.1954  0.6497
40124SOL    HW125310   5.863   2.766   8.122 -0.0144 -1.6610  0.0659
40124SOL    HW225311   5.976   2.747   8.024 -0.8142 -0.0353 -1.2275
40125SOL     OW25312   4.035   5.263   6.835  0.6371 -0.1534  0.0007
40125SOL    HW125313   4.120   5.241   6.798  0.7411 -2.3510  1.3704
40125SOL    HW225314   4.055   5.313   6.915  0.7060 -1.3621  0.7572
40126SOL     OW25315   2.153   2.207   0.955 -0.2176  0.1026  0.5187
40126SOL    HW125316   2.124   2.131   1.005  1.2631  0.3188  1.7847
40126SOL    HW225317   2.136   2.184   0.864 -1.2430 -1.0844  0.9895
40127SOL     OW25318   0.153   2.278   0.800 -0.2260  0.4479 -0.2849
40127SOL    HW125319   0.208   2.212   0.758  0.0542 -0.4764  1.4373
40127SOL    HW225320   0.215   2.341   0.837 -0.3890  0.3681  0.1301
40128SOL     OW25321  10.184   7.036   4.294 -0.1980  0.4052  0.1224
40128SOL    HW125322  10.237   7.083   4.230  1.7062  0.6549  1.7867
40128SOL    HW225323  10.094   7.054   4.268  0.4740  0.5860 -2.3869
40129SOL     OW25324   7.281   5.332   2.505 -0.3353 -0.3424 -0.0597
40129SOL    HW125325   7.329   5.415   2.505  0.2572 -0.6789  0.2390
40129SOL    HW225326   7.298   5.294   2.419 -0.0615 -0.4567  0.0419
40130SOL     OW25327   7.643   4.428   8.747  0.1463 -0.2539  0.3177
40130SOL    HW125328   7.643   4.523   8.758  1.9618 -0.1163 -0.4837
40130SOL    HW225329   7.730   4.401   8.777 -0.1504 -1.6017  0.0350
40131SOL     OW25330   5.240   2.170   1.472  0.1875  0.0867  0.2003
40131SOL    HW125331   5.152   2.134   1.461 -0.4737  1.4189  0.8239
40131SOL    HW225332   5.275   2.126   1.550 -0.4083  0.4100  0.6581
40132SOL     OW25333   6.998   1.337  11.607 -0.0613  0.6424  0.1219
40132SOL    HW125334   7.069   1.274  11.600  0.2671  1.0537 -0.2380
40132SOL    HW225335   7.041   1.420  11.625 -0.2870  1.2661 -1.9359
40133SOL     OW25336   2.372   5.818   2.112  0.1523  0.1674  0.3390
40133SOL    HW125337   2.445   5.879   2.121  1.2797 -1.2383  1.2264
40133SOL    HW225338   2.410   5.741   2.070 -0.7581 -0.6587  0.9788
40134SOL     OW25339   1.148   9.895   4.487 -0.2217 -0.3351 -0.3405
40134SOL    HW125340   1.121   9.986   4.499  0.7469  0.0306 -0.7725
40134SOL    HW225341   1.143   9.856   4.574  0.9928  0.6098  0.1841
40135SOL     OW25342  10.339   6.350   1.260  0.7057 -0.3716  0.2954
40135SOL    HW125343  10.290   6.411   1.315  2.0511 -1.7497  3.2443
40135SOL    HW225344  10.377   6.405   1.192 -2.7965  1.1046 -0.6821
40136SOL     OW25345   3.087  11.291  10.015 -0.1098 -0.0412 -0.1930
40136SOL    HW125346   3.120  11.209  10.053 -0.2400 -0.3877 -0.8079
40136SOL    HW225347   3.158  11.320   9.957  0.3946  0.8729  0.8647
40137SOL     OW25348   3.495   3.226   8.718  0.5904 -0.0907 -0.0993
40137SOL    HW125349   3.453   3.154   8.764  1.1434 -0.5490 -0.3057
40137SOL    HW225350   3.516   3.289   8.787 -1.6881  0.8012 -0.1506
40138SOL     OW25351   4.094   3.716   7.979 -0.4569 -0.1237  0.5474
40138SOL    HW125352   4.020   3.656   7.985  0.5799 -1.3912  1.0898
40138SOL    HW225353   4.072   3.773   7.905 -1.6986 -0.8424  0.3326
40139SOL     OW25354   7.298  11.468   2.343 -0.0955 -0.3782 -0.1400
40139SOL    HW125355   7.242  11.534   2.302 -0.1220 -1.3045 -1.6643
40139SOL    HW225356   7.384  11.509   2.346 -0.1899 -0.1278 -0.7303
40140SOL     OW25357   8.414   4.801   1.465 -0.5565  0.5028 -0.3681
40140SOL    HW125358   8.487   4.791   1.404  0.6504  0.0989  1.0882
40140SOL    HW225359   8.435   4.742   1.538 -3.8069 -1.9696 -1.2045
40141SOL     OW25360   1.268   4.808  10.062 -0.0057 -0.3183 -0.2385
40141SOL    HW125361   1.290   4.717  10.078  1.1859  0.1151  0.7629
40141SOL    HW225362   1.268   4.849  10.149  3.0859  1.3691 -0.8681
40142SOL     OW25363   4.177   4.622   3.258 -0.1262 -0.1293  0.1513
40142SOL    HW125364   4.148   4.532   3.254  1.4451 -0.6794  0.2799
40142SOL    HW225365   4.195   4.638   3.351 -1.5256  0.7189  0.3039
40143SOL     OW25366  10.900   9.732   5.893 -0.4120  0.1531  0.1874
40143SOL    HW125367  10.930   9.820   5.914  1.4043 -0.1891 -0.7846
40143SOL    HW225368  10.848   9.742   5.814 -0.8423  0.4423  0.5048
40144SOL     OW25369   0.398   8.375   9.514  0.3407 -0.3209 -0.0701
40144SOL    HW125370   0.333   8.443   9.498  0.5730  0.5478  2.2978
40144SOL    HW225371   0.477   8.407   9.470  0.0523  0.2155 -0.1997
40145SOL     OW25372   2.331  10.814   7.657  0.5576  0.3976  0.2239
40145SOL    HW125373   2.356  10.726   7.686  1.0694  0.5703  0.3208
40145SOL    HW225374   2.408  10.846   7.611  1.1127  1.5237  1.8297
40146SOL     OW25375   1.668   0.559   2.358 -0.1835  0.0700  0.2048
40146SOL    HW125376   1.611   0.491   2.395 -0.0826  0.3342  0.8574
40146SOL    HW225377   1.650   0.557   2.264 -2.0449  0.8461  0.4994
40147SOL     OW25378   4.410   6.050   7.947 -0.2774  0.2180 -0.6304
40147SOL    HW125379   4.461   5.986   7.897 -0.2409 -0.2750  0.0214
40147SOL    HW225380   4.470   6.123   7.959  0.1426 -0.1827 -0.2359
40148SOL     OW25381   9.023   4.554   8.809  0.1241 -0.1412  0.1873
40148SOL    HW125382   9.079   4.631   8.819 -0.1005  0.2487 -1.3262
40148SOL    HW225383   8.941   4.578   8.851  0.9944 -0.6569  2.2825
40149SOL     OW25384   4.853   6.768   7.270  0.5142  0.3086 -0.2722
40149SOL    HW125385   4.946   6.778   7.251  0.4101 -0.3324 -1.2143
40149SOL    HW225386   4.810   6.785   7.186 -0.2197  0.5936  0.1537
40150SOL     OW25387   9.723  11.141   3.050  0.9017 -0.1768  0.3984
40150SOL    HW125388   9.719  11.167   3.142 -1.0233  2.5656 -0.3128
40150SOL    HW225389   9.812  11.165   3.022  0.8715  0.8283  1.1016
40151SOL     OW25390   7.024   8.407   8.850 -0.4162 -0.3327 -0.3053
40151SOL    HW125391   7.083   8.354   8.904 -2.8603 -1.0049  1.8892
40151SOL    HW225392   6.999   8.480   8.906 -1.0554  0.3779 -1.4789
40152SOL     OW25393   4.308   9.476   2.436 -0.0036 -0.3367 -0.1187
40152SOL    HW125394   4.222   9.435   2.431  0.4172 -1.1649 -1.0547
40152SOL    HW225395   4.360   9.417   2.491  0.3516 -0.6062 -0.7282
40153SOL     OW25396   8.644   0.676   7.309  0.2493 -0.1154  0.1631
40153SOL    HW125397   8.596   0.629   7.377  0.1364 -0.1044  0.0922
40153SOL    HW225398   8.692   0.744   7.356 -0.6461  0.5633  0.1296
40154SOL     OW25399   8.813   4.739   1.835  0.6000 -0.3938 -0.5474
40154SOL    HW125400   8.833   4.687   1.912 -2.0413  0.6552  0.9657
40154SOL    HW225401   8.835   4.829   1.859 -1.1863  0.0896 -0.5732
40155SOL     OW25402  10.724  10.272   7.001 -0.1614  0.1598  0.1340
40155SOL    HW125403  10.687  10.331   6.937 -0.2277 -1.5353 -1.4685
40155SOL    HW225404  10.818  10.273   6.984 -0.2758 -0.9998 -0.6501
40156SOL     OW25405  10.083   9.438   9.120  0.6974  0.0950 -0.5196
40156SOL    HW125406  10.156   9.409   9.176  0.1226  1.0596  0.7859
40156SOL    HW225407  10.102   9.400   9.034  1.6413 -1.4115  0.3071
40157SOL     OW25408   4.566   1.735   7.334  0.4233  0.1330  0.1109
40157SOL    HW125409   4.635   1.778   7.283  0.4304  0.9659  0.7972
40157SOL    HW225410   4.606   1.718   7.419  0.1479 -0.4636  0.1253
40158SOL     OW25411   4.521   4.837   9.726 -1.0693 -0.2352 -0.0292
40158SOL    HW125412   4.526   4.778   9.650 -1.8460 -1.1789  0.6273
40158SOL    HW225413   4.435   4.878   9.718 -0.8529  0.2185 -0.0490
40159SOL     OW25414   4.306   5.382   2.434  0.1309 -0.4244 -0.3539
40159SOL    HW125415   4.398   5.379   2.408  0.4432 -0.7148  0.6984
40159SOL    HW225416   4.258   5.387   2.352  1.0692 -0.6965 -0.9455
40160SOL     OW25417   3.643   4.412   3.365  0.3382  0.2151  0.4928
40160SOL    HW125418   3.633   4.346   3.297  0.4946 -0.0188  0.6934
40160SOL    HW225419   3.724   4.458   3.342 -1.0251  2.0120 -1.0464
40161SOL     OW25420   9.024   1.249   5.080 -0.6093 -1.0751 -0.0131
40161SOL    HW125421   9.015   1.258   5.175  0.8041 -0.0705  0.0617
40161SOL    HW225422   9.115   1.220   5.068 -0.5924 -0.5923 -1.0867
40162SOL     OW25423   5.128  11.053   8.368  0.4410  0.6749  0.6817
40162SOL    HW125424   5.218  11.028   8.347  0.5492  0.9203  0.8514
40162SOL    HW225425   5.074  10.996   8.313  0.7026  0.6581  0.4407
40163SOL     OW25426  10.172   9.478   5.637 -0.5422 -0.0778 -0.2560
40163SOL    HW125427  10.257   9.446   5.667 -0.6055  0.5730  0.6585
40163SOL    HW225428  10.163   9.443   5.549  0.4565 -0.5610 -0.1802
40164SOL     OW25429   3.249   0.697   1.972 -0.8465 -0.2616 -0.5602
40164SOL    HW125430   3.311   0.651   2.029  0.1591  2.3455  0.6069
40164SOL    HW225431   3.302   0.722   1.896 -0.0338  2.6754  0.7917
40165SOL     OW25432   8.107   6.127  10.897  0.4935  0.0552 -0.5830
40165SOL    HW125433   8.182   6.070  10.879  0.8328 -0.3539  1.8490
40165SOL    HW225434   8.052   6.077  10.956  0.3083  1.8536  0.8539
40166SOL     OW25435   4.540  10.625   6.333 -0.5424 -0.1976 -0.1880
40166SOL    HW125436   4.512  10.542   6.372 -1.0834  0.0653  0.0052
40166SOL    HW225437   4.509  10.621   6.243  0.9652 -0.9309 -0.7043
40167SOL     OW25438   3.650   8.385  11.433 -0.2133 -0.4059  0.1498
40167SOL    HW125439   3.692   8.301  11.448 -0.5106 -0.2438  2.0633
40167SOL    HW225440   3.722   8.449  11.436 -0.2118 -0.4215  0.5069
40168SOL     OW25441   5.243  10.560   8.036 -0.0592 -0.3595 -0.1883
40168SOL    HW125442   5.212  10.524   7.953  0.9925  1.0721 -1.2426
40168SOL    HW225443   5.318  10.505   8.060 -0.1106 -0.5188 -0.3975
40169SOL     OW25444   4.876  10.812   2.977 -0.2387  0.4950  0.0867
40169SOL    HW125445   4.870  10.784   3.068 -0.2578 -1.5840 -0.5011
40169SOL    HW225446   4.950  10.762   2.941 -0.0147  1.5305 -0.9562
40170SOL     OW25447   3.717   8.138   9.838  0.0441  0.0766 -0.1211
40170SOL    HW125448   3.779   8.135   9.910  1.3142  0.3407 -1.1778
40170SOL    HW225449   3.738   8.062   9.785 -0.7391  0.0082 -0.3452
40171SOL     OW25450   8.203  10.075   5.520 -0.4931 -0.4105  0.2406
40171SOL    HW125451   8.207  10.027   5.603 -1.1581  1.1621  1.2296
40171SOL    HW225452   8.251  10.156   5.537 -2.5964  1.0002 -0.1071
40172SOL     OW25453   9.348   9.568   1.102  0.3453 -0.0631 -0.2558
40172SOL    HW125454   9.419   9.624   1.070 -0.9430  0.4769 -2.4353
40172SOL    HW225455   9.370   9.481   1.069 -1.6876  0.7163 -4.4096
40173SOL     OW25456   9.092   4.474   0.696  0.0718 -0.0978 -0.2726
40173SOL    HW125457   9.113   4.540   0.629 -0.6815 -0.1791 -0.5958
40173SOL    HW225458   9.110   4.390   0.652  2.0466 -0.1305  0.4731
40174SOL     OW25459   2.577   8.747   1.816 -0.1712  0.2951  0.1432
40174SOL    HW125460   2.617   8.700   1.889 -0.3213  0.3404  0.2558
40174SOL    HW225461   2.624   8.831   1.812  1.0867 -0.4167 -0.9685
40175SOL     OW25462   7.556  11.252   9.327 -0.6637 -0.2917 -0.5106
40175SOL    HW125463   7.466  11.220   9.322 -0.6469 -0.2483 -1.2055
40175SOL    HW225464   7.608  11.175   9.348 -1.0067 -0.0691  1.3747
40176SOL     OW25465   7.969   1.427   0.555 -0.6827 -0.3935 -0.5088
40176SOL    HW125466   7.964   1.454   0.647  2.7591  0.8721 -0.5593
40176SOL    HW225467   7.990   1.333   0.559  0.8149 -0.0590  0.0856
40177SOL     OW25468   1.669   5.205   4.283 -0.2863  0.3797 -0.4364
40177SOL    HW125469   1.692   5.166   4.199  3.8222 -2.2987  1.6054
40177SOL    HW225470   1.622   5.136   4.330 -1.2822  1.3321  0.0109
40178SOL     OW25471   2.258   1.489   8.484  0.0104  0.3725 -0.2866
40178SOL    HW125472   2.178   1.521   8.442  1.5018  0.5792 -3.2432
40178SOL    HW225473   2.285   1.414   8.431  2.4563  1.1264 -0.2456
40179SOL     OW25474   9.279   3.808   9.647  0.1468 -0.2157  0.1352
40179SOL    HW125475   9.371   3.831   9.632 -0.3881  0.7459 -2.0230
40179SOL    HW225476   9.280   3.713   9.660  1.4392 -0.1984  0.2960
40180SOL     OW25477   8.958   9.228  10.062  0.3010  0.0301  0.4701
40180SOL    HW125478   9.011   9.298  10.100 -1.1197  0.6866  1.3149
40180SOL    HW225479   8.867   9.252  10.083 -0.3587 -1.0135 -0.9956
40181SOL     OW25480   7.154   9.605   3.110  0.2924  0.4760 -0.8379
40181SOL    HW125481   7.124   9.617   3.020  0.0744 -0.2459 -0.8652
40181SOL    HW225482   7.104   9.668   3.161 -1.0198 -0.4657 -0.9316
40182SOL     OW25483   1.053   8.998   3.228  0.7329 -0.1529 -0.2712
40182SOL    HW125484   1.118   9.026   3.164  0.7975 -0.3913 -0.3110
40182SOL    HW225485   1.097   9.004   3.313  1.0512 -1.0267 -0.3667
40183SOL     OW25486   9.635   0.442   2.862  0.2031  0.0947  0.3428
40183SOL    HW125487   9.671   0.362   2.899  0.1045  0.4558  1.2421
40183SOL    HW225488   9.696   0.511   2.888  0.5666  0.2564 -0.8581
40184SOL     OW25489  11.317   3.372   8.660 -0.1661  0.3734 -0.0518
40184SOL    HW125490  11.307   3.277   8.668  1.0653  0.0042 -2.2214
40184SOL    HW225491  11.411   3.385   8.644 -0.2686  2.0015  0.4393
40185SOL     OW25492   9.410   5.209   5.172 -0.3264  0.0613  0.4602
40185SOL    HW125493   9.451   5.217   5.086  0.4367 -0.1156  0.8017
40185SOL    HW225494   9.438   5.123   5.204 -1.4208 -0.3144  0.4719
40186SOL     OW25495   2.686   1.824  11.537  0.0024 -0.0975 -0.3573
40186SOL    HW125496   2.749   1.754  11.557 -0.2926 -0.2495  0.0406
40186SOL    HW225497   2.641   1.840  11.619  1.0124  1.5301 -0.0639
40187SOL     OW25498   1.696   9.326   3.650 -0.4632  0.2107 -0.0181
40187SOL    HW125499   1.697   9.368   3.564  1.0714  0.0804 -0.0952
40187SOL    HW225500   1.720   9.235   3.632 -3.3013 -0.6709  0.2032
40188SOL     OW25501  10.243   2.399   2.916 -0.3361 -0.0333 -0.2029
40188SOL    HW125502  10.174   2.449   2.873  0.6078  0.3571 -1.3111
40188SOL    HW225503  10.243   2.315   2.871 -0.3310 -0.1653  0.0427
40189SOL     OW25504  11.500   4.908  10.534 -0.2500  0.2809  0.4901
40189SOL    HW125505  11.548   4.826  10.544 -0.6152  0.0861  0.6821
40189SOL    HW225506  11.561   4.966  10.489  1.0115  0.7870  2.7170
40190SOL     OW25507   2.665   9.140   9.579  0.7838 -0.1114  0.1366
40190SOL    HW125508   2.701   9.056   9.549 -1.7822 -1.1422 -0.2987
40190SOL    HW225509   2.613   9.117   9.656 -0.4155  0.9674 -0.3224
40191SOL     OW25510   0.781   8.278  10.189  0.0404  0.4068  0.6277
40191SOL    HW125511   0.796   8.196  10.236  1.0917  0.3563  0.2299
40191SOL    HW225512   0.768   8.343  10.258 -2.2549 -0.3052  0.9523
40192SOL     OW25513   2.230   7.891   6.056 -0.5192  0.6236 -0.5040
40192SOL    HW125514   2.323   7.882   6.037 -0.3153  0.8119  0.3503
40192SOL    HW225515   2.186   7.850   5.982  0.2446 -3.3173  0.9884
40193SOL     OW25516   0.714   3.373   6.189 -0.6046  0.1933  0.2553
40193SOL    HW125517   0.657   3.445   6.161 -0.1929 -0.4301 -2.4699
40193SOL    HW225518   0.803   3.406   6.175 -0.4122 -0.7641 -0.8455
40194SOL     OW25519   1.269  11.003  10.762 -0.2287  0.7897  0.2101
40194SOL    HW125520   1.318  11.075  10.802  0.7120  0.4598 -0.3342
40194SOL    HW225521   1.200  10.984  10.825  0.7633  0.7921  1.3270
40195SOL     OW25522   5.592   7.638   2.080 -1.3241 -0.5043  0.0191
40195SOL    HW125523   5.655   7.578   2.039  1.4519  0.5935  2.3161
40195SOL    HW225524   5.557   7.589   2.155 -1.1309 -0.2004  0.3107
40196SOL     OW25525   7.474   7.910  11.515 -0.4868 -0.1246 -0.2092
40196SOL    HW125526   7.462   7.876  11.426  0.5473 -1.0889 -0.0134
40196SOL    HW225527   7.387   7.905  11.555 -1.2981  1.7622 -1.6167
40197SOL     OW25528   5.248   3.785   4.508  0.0431  0.4410 -0.2988
40197SOL    HW125529   5.305   3.833   4.448  0.1464  1.4270  0.5551
40197SOL    HW225530   5.306   3.758   4.580  0.1372 -1.5996 -1.0679
40198SOL     OW25531   6.000  10.421   5.147 -0.0103  0.4725 -0.1129
40198SOL    HW125532   6.031  10.500   5.193 -0.8561  0.1862  0.9792
40198SOL    HW225533   6.079  10.387   5.105  1.0901  0.1414  2.0394
40199SOL     OW25534   5.178  10.263   8.017  0.1568  0.6574 -0.0097
40199SOL    HW125535   5.157  10.282   8.109 -0.1702  0.0466  0.0504
40199SOL    HW225536   5.268  10.228   8.020  0.0737  0.4479  0.1085
40200SOL     OW25537   5.130   3.694   8.826 -0.0136 -0.0616 -0.0626
40200SOL    HW125538   5.147   3.755   8.754  0.5643  1.2352  1.1241
40200SOL    HW225539   5.040   3.711   8.852 -0.0078 -0.0558 -0.0468
40201SOL     OW25540   0.240   5.635   8.793  1.3736  0.0963  0.1356
40201SOL    HW125541   0.178   5.570   8.826  2.1108 -0.5595  0.2508
40201SOL    HW225542   0.294   5.587   8.731 -0.0372  1.3197 -2.1740
40202SOL     OW25543   6.267   5.017   4.865 -0.2342 -0.3918 -0.1464
40202SOL    HW125544   6.350   5.012   4.817 -0.2552  0.7611 -0.3282
40202SOL    HW225545   6.209   5.067   4.808 -1.1126 -1.3119 -0.0775
40203SOL     OW25546  10.042   6.643   9.431 -0.0052  0.2616  0.0714
40203SOL    HW125547  10.137   6.638   9.447  0.1159 -1.3965 -0.9675
40203SOL    HW225548  10.033   6.707   9.360  0.2368  0.9825  0.6683
40204SOL     OW25549   6.984  10.002   0.360  0.5232  0.2158  0.0051
40204SOL    HW125550   6.915   9.936   0.355  0.7923 -0.1441  0.9359
40204SOL    HW225551   6.995  10.031   0.269 -0.7235  0.1563 -0.1853
40205SOL     OW25552   8.534  10.736   3.170  0.2362 -0.1048  0.2548
40205SOL    HW125553   8.625  10.753   3.144 -0.2348  1.2367 -0.6184
40205SOL    HW225554   8.492  10.705   3.090  0.0589 -1.3851  0.8169
40206SOL     OW25555   8.257   2.438   4.204 -0.3186  0.1749 -0.3171
40206SOL    HW125556   8.278   2.345   4.196  0.7790  0.3269  0.6404
40206SOL    HW225557   8.333   2.476   4.248 -0.7382  1.5362 -0.7354
40207SOL     OW25558   6.801   6.922   9.949 -0.0285  0.9291  0.9426
40207SOL    HW125559   6.767   6.834   9.932  1.4621  0.0520  2.1678
40207SOL    HW225560   6.853   6.943   9.872 -0.4080  0.7616  0.6355
40208SOL     OW25561   2.209   9.191  11.657  0.9355  0.6851  0.2167
40208SOL    HW125562   2.255   9.111  11.681  0.8868  0.8251  0.7981
40208SOL    HW225563   2.268   9.235  11.596  0.9278  0.1726 -0.1641
40209SOL     OW25564   8.163   5.353  10.721 -0.1246 -0.5240  0.8656
40209SOL    HW125565   8.141   5.261  10.708  0.4986 -0.6119  0.4099
40209SOL    HW225566   8.091   5.387  10.775 -1.6691 -0.6907 -0.9793
40210SOL     OW25567   7.677   7.621   6.200 -0.1664 -0.4242 -0.6909
40210SOL    HW125568   7.642   7.602   6.286 -2.6728  1.4198 -1.1954
40210SOL    HW225569   7.638   7.705   6.176  1.1076 -0.4683 -3.2946
40211SOL     OW25570  10.078   3.208   0.713 -0.0126  0.2822 -0.2022
40211SOL    HW125571  10.090   3.123   0.755  1.7341 -0.6365 -2.3748
40211SOL    HW225572  10.053   3.267   0.784  1.6532 -1.4024  1.9008
40212SOL     OW25573   5.198   7.771   1.779 -0.1597  0.5009  0.0615
40212SOL    HW125574   5.164   7.757   1.691 -0.8777  0.6279  0.3100
40212SOL    HW225575   5.242   7.690   1.802 -0.0766  0.4251 -0.3680
40213SOL     OW25576   6.276   9.694   7.013  0.3346  0.4200 -0.3039
40213SOL    HW125577   6.213   9.703   7.085  0.9209 -1.0777  0.4551
40213SOL    HW225578   6.362   9.700   7.056  0.7051 -1.2819 -0.7039
40214SOL     OW25579   6.501   1.996   5.469 -0.0363 -0.1683  0.6544
40214SOL    HW125580   6.559   1.989   5.545  0.7094  1.2429  0.2524
40214SOL    HW225581   6.423   2.041   5.501  0.2297  0.3221  0.6221
40215SOL     OW25582  10.975   3.128   7.992 -0.3891 -0.7706  0.2558
40215SOL    HW125583  11.026   3.066   8.044 -0.9020 -1.1030  0.3774
40215SOL    HW225584  10.971   3.088   7.905  2.8852  1.1327 -0.9107
40216SOL     OW25585   5.797   3.375   2.893 -0.1376 -0.0051 -0.4626
40216SOL    HW125586   5.747   3.310   2.943  1.2651 -0.2983  0.6136
40216SOL    HW225587   5.773   3.358   2.802 -4.4307  1.9402  0.0464
40217SOL     OW25588   6.982   0.589   4.423  0.3641  0.1520 -0.8010
40217SOL    HW125589   7.047   0.530   4.384  1.9384  1.5811 -0.4149
40217SOL    HW225590   7.031   0.668   4.446 -1.4473  1.1444 -0.1567
40218SOL     OW25591   0.555   3.209   7.167 -0.1445 -0.2854 -0.3247
40218SOL    HW125592   0.501   3.135   7.194  0.3269  0.1181  1.8844
40218SOL    HW225593   0.507   3.286   7.198  0.0176  0.2734 -1.4231
40219SOL     OW25594   2.438  11.279   0.381 -0.1364  0.1680 -0.5391
40219SOL    HW125595   2.408  11.361   0.422 -1.1819  0.4845 -1.8600
40219SOL    HW225596   2.530  11.296   0.359 -0.1778  0.7744 -0.2808
40220SOL     OW25597   4.915  10.531   8.848  0.5995 -0.2218 -0.2514
40220SOL    HW125598   4.969  10.455   8.824  1.3038  0.7317 -1.8086
40220SOL    HW225599   4.978  10.603   8.856 -0.0806  0.2512  1.0881
40221SOL     OW25600   3.767   8.611   8.434 -0.3246 -0.3569 -0.2611
40221SOL    HW125601   3.725   8.539   8.387  1.0315 -1.3791  0.0133
40221SOL    HW225602   3.854   8.577   8.457  0.3984  1.4068 -0.2035
40222SOL     OW25603   3.681   2.715  11.620  0.6824 -0.2770 -0.0891
40222SOL    HW125604   3.710   2.792  11.571  0.0124 -0.9244 -1.5632
40222SOL    HW225605   3.761   2.662  11.630  1.1079  0.4989  0.7809
40223SOL     OW25606   5.605   4.042   6.047 -0.0209 -0.0141  0.3963
40223SOL    HW125607   5.520   4.040   6.003 -0.1122  0.2187  0.5577
40223SOL    HW225608   5.621   3.952   6.074  0.1265 -0.2041 -0.2839
40224SOL     OW25609   8.445   7.058   2.177 -0.2381  0.3539 -0.2508
40224SOL    HW125610   8.462   7.076   2.085  3.4552  1.1403  0.4347
40224SOL    HW225611   8.404   7.138   2.210 -2.1087 -0.1413 -1.2369
40225SOL     OW25612   6.784   1.445   1.838 -0.0416 -0.2548 -0.0989
40225SOL    HW125613   6.695   1.476   1.853  0.3092  0.6786  0.0932
40225SOL    HW225614   6.816   1.497   1.764  0.2313 -0.8261 -0.3950
40226SOL     OW25615   5.724   9.801   3.093  0.1525 -0.3506 -1.0591
40226SOL    HW125616   5.770   9.879   3.060 -0.3016  0.9446  1.1576
40226SOL    HW225617   5.634   9.830   3.106  0.3042 -0.7578  1.2252
40227SOL     OW25618   7.764   7.879   9.303  0.4374  0.8042  0.4237
40227SOL    HW125619   7.733   7.922   9.383 -1.8964  1.9958 -1.0075
40227SOL    HW225620   7.794   7.951   9.248 -1.3282  0.4473 -1.1019
40228SOL     OW25621   6.352   0.300   2.841 -0.7452  0.0833  0.2078
40228SOL    HW125622   6.386   0.387   2.823 -0.7293 -0.0978 -0.7344
40228SOL    HW225623   6.376   0.249   2.763 -1.0413 -0.6690  0.6010
40229SOL     OW25624   5.993   8.865  10.308  0.2663 -0.3881 -0.0348
40229SOL    HW125625   5.898   8.858  10.296  0.4742 -1.5541 -1.1878
40229SOL    HW225626   6.009   8.823  10.393 -0.2528 -0.0035  0.2678
40230SOL     OW25627  11.625  11.414  10.599 -0.1568  0.0522 -0.5636
40230SOL    HW125628  11.535  11.413  10.569 -0.5287 -2.0768  0.4627
40230SOL    HW225629  11.654  11.505  10.587 -1.7278  0.3061 -2.8749
40231SOL     OW25630   2.749   1.398   4.683 -0.0997 -0.3595 -0.2741
40231SOL    HW125631   2.813   1.390   4.612  2.2032 -1.6625  1.8142
40231SOL    HW225632   2.772   1.479   4.728 -1.8958  0.7491 -1.2371
40232SOL     OW25633   7.727   4.226   3.263  0.6424  0.2707  0.4801
40232SOL    HW125634   7.692   4.308   3.228  2.3012  0.6622 -0.3713
40232SOL    HW225635   7.818   4.225   3.235  0.8466 -1.5554  1.0643
40233SOL     OW25636   8.099   5.795   1.983  0.0718 -0.5945 -0.2577
40233SOL    HW125637   8.054   5.872   1.947  0.7377  0.2744  0.6901
40233SOL    HW225638   8.048   5.721   1.952 -1.1704  0.2822 -0.3949
40234SOL     OW25639   4.237   5.812   8.741  0.2605  0.4119 -0.2912
40234SOL    HW125640   4.311   5.808   8.801  0.1929  0.7936 -0.1816
40234SOL    HW225641   4.170   5.862   8.788  0.7183  1.9583 -1.2312
40235SOL     OW25642   5.259   2.821   0.369  0.0846 -0.3633 -0.5644
40235SOL    HW125643   5.303   2.738   0.351  0.3419 -0.1478 -0.9401
40235SOL    HW225644   5.167   2.798   0.376  0.1325 -0.6576 -0.8503
40236SOL     OW25645   2.953   9.401   5.110  0.1557 -0.0604 -0.1694
40236SOL    HW125646   2.911   9.422   5.193 -0.2901 -1.1028 -0.1157
40236SOL    HW225647   2.929   9.473   5.052  1.7553  1.4837  1.0072
40237SOL     OW25648   2.389   3.881   7.687 -0.3897  0.2485  0.5292
40237SOL    HW125649   2.422   3.905   7.601 -0.3245  1.3319  0.8395
40237SOL    HW225650   2.459   3.829   7.726  0.3060  1.2153  0.5840
40238SOL     OW25651   7.300   7.026   6.513  0.4102  0.3213  0.4193
40238SOL    HW125652   7.341   7.007   6.429  0.3236 -0.4573  0.5490
40238SOL    HW225653   7.219   7.071   6.490  0.3137 -0.0192  0.0762
40239SOL     OW25654   8.964   9.733   2.558  0.1494 -0.5142 -0.5363
40239SOL    HW125655   8.998   9.817   2.531  0.5597 -0.3793  0.3593
40239SOL    HW225656   8.874   9.731   2.524 -1.3179  1.9760  2.6046
40240SOL     OW25657   4.113   4.175   0.366 -0.3428 -0.1439 -0.0971
40240SOL    HW125658   4.199   4.208   0.342 -0.6163  1.2414  0.6887
40240SOL    HW225659   4.128   4.127   0.448 -0.3805  0.6386  0.3881
40241SOL     OW25660   8.786   3.958   2.532 -0.8113  0.2511 -0.1036
40241SOL    HW125661   8.825   3.911   2.605  2.1322 -0.2888 -1.8348
40241SOL    HW225662   8.703   3.913   2.515 -1.2090 -0.0641  2.3558
40242SOL     OW25663   0.301  10.003   0.762 -0.5874 -0.1613 -0.1893
40242SOL    HW125664   0.267   9.969   0.845  1.6494  1.4214  1.4934
40242SOL    HW225665   0.245  10.078   0.742  0.3544  1.0085  1.3222
40243SOL     OW25666   1.170   3.907   2.894 -0.3371  0.4875 -0.0827
40243SOL    HW125667   1.171   3.834   2.956  1.8925 -0.2775 -0.9051
40243SOL    HW225668   1.077   3.926   2.880 -0.9703  0.8190  3.5426
40244SOL     OW25669   7.427   0.749   5.561  0.1610 -0.1689 -0.0682
40244SOL    HW125670   7.412   0.655   5.573  1.0813 -0.2165  0.8605
40244SOL    HW225671   7.510   0.755   5.514 -0.0442  0.1854 -0.3991
40245SOL     OW25672  10.562   0.553   4.125  0.0327 -0.1185 -0.0393
40245SOL    HW125673  10.519   0.638   4.122  0.0851 -0.1097 -0.9293
40245SOL    HW225674  10.592   0.538   4.035  2.9885  0.4328  0.7677
40246SOL     OW25675   8.182   3.638   0.189 -0.1374 -0.0700  0.1525
40246SOL    HW125676   8.130   3.564   0.156  1.3139  0.0822 -2.8619
40246SOL    HW225677   8.237   3.599   0.258 -2.4992 -0.7175  1.7863
40247SOL     OW25678  10.829   9.184  11.515 -0.0035  0.2216 -0.3085
40247SOL    HW125679  10.775   9.106  11.506 -0.2986  0.4629 -0.6674
40247SOL    HW225680  10.809   9.216  11.604 -1.3884  0.9848 -0.8595
40248SOL     OW25681   9.186  11.111   9.126 -0.4217 -0.1092  0.1547
40248SOL    HW125682   9.115  11.047   9.129 -0.3264 -0.1869  1.2022
40248SOL    HW225683   9.261  11.062   9.091  0.1303 -1.0913  2.5431
40249SOL     OW25684   7.937   6.230   8.950  0.4999 -0.6622  0.5889
40249SOL    HW125685   7.934   6.214   8.856  1.5313 -0.9397  0.5931
40249SOL    HW225686   7.898   6.317   8.961  1.1918 -0.2425 -0.1928
40250SOL     OW25687   9.690   7.473   1.846  0.1447 -0.4256  0.2664
40250SOL    HW125688   9.726   7.486   1.759  0.9729  0.7753  0.7598
40250SOL    HW225689   9.670   7.380   1.850 -1.2812 -0.2621 -1.6991
40251SOL     OW25690   5.533   9.939   2.203 -0.0343  0.2810  0.4882
40251SOL    HW125691   5.502   9.856   2.237  1.7120 -0.6108  0.0587
40251SOL    HW225692   5.500   9.943   2.113  0.7885 -0.4960  0.1404
40252SOL     OW25693   8.119   9.484   5.861 -0.0832  0.2742  0.2614
40252SOL    HW125694   8.055   9.539   5.816 -1.3349 -2.7813 -2.0437
40252SOL    HW225695   8.082   9.470   5.948  0.0424  2.5563  0.7428
40253SOL     OW25696   1.957   8.862   2.693 -0.1130  0.3579 -0.4926
40253SOL    HW125697   2.011   8.905   2.626  0.8804 -0.8136 -0.4902
40253SOL    HW225698   2.013   8.792   2.726 -1.3245 -0.3075  0.1892
40254SOL     OW25699   8.828   3.025   3.055  0.2022  0.0479 -0.0708
40254SOL    HW125700   8.907   3.029   3.110  0.8962  2.3022 -1.1488
40254SOL    HW225701   8.767   3.085   3.097 -0.5216 -0.7381  0.0382
40255SOL     OW25702   8.591   6.195   6.533  0.0213  0.3711  0.3555
40255SOL    HW125703   8.625   6.120   6.484 -0.4708  0.0226  0.5533
40255SOL    HW225704   8.664   6.220   6.591  0.8859  1.2441 -1.0466
40256SOL     OW25705   6.537   5.534  11.117 -0.5192  0.2212 -0.0184
40256SOL    HW125706   6.472   5.595  11.153  1.1039  1.0062  1.7298
40256SOL    HW225707   6.585   5.586  11.052  0.5264  0.6820  1.1014
40257SOL     OW25708   2.251   1.412   3.293 -0.1526 -0.2476  0.0968
40257SOL    HW125709   2.221   1.326   3.265  1.9894  0.0389 -3.8147
40257SOL    HW225710   2.172   1.467   3.293 -1.0821 -1.5421 -0.4350
40258SOL     OW25711   6.745   7.284  10.897  0.3915  0.2837  0.4255
40258SOL    HW125712   6.671   7.223  10.901  0.1626  0.5086 -0.2179
40258SOL    HW225713   6.744   7.329  10.982  1.0246 -1.1191  1.2066
40259SOL     OW25714   7.240   0.652   2.082 -0.0503 -0.0264 -0.2238
40259SOL    HW125715   7.273   0.707   2.011  1.5601  0.7448  1.0252
40259SOL    HW225716   7.302   0.579   2.087 -0.1693 -0.0975  0.3420
40260SOL     OW25717   6.997   8.028   9.291 -0.1838  0.3359 -0.0459
40260SOL    HW125718   7.028   8.116   9.311  0.9753 -0.0134 -0.2000
40260SOL    HW225719   6.936   8.039   9.219  0.2374  0.9877 -0.3125
40261SOL     OW25720   0.780   8.071   2.614  0.0455 -0.1718  0.2812
40261SOL    HW125721   0.704   8.107   2.569  0.3515  1.4252  0.9785
40261SOL    HW225722   0.850   8.074   2.549 -0.4510 -1.6142 -0.3505
40262SOL     OW25723   8.453   2.706   0.066  0.2794 -0.0737  0.2433
40262SOL    HW125724   8.502   2.636   0.023  1.9978  0.6522  0.9459
40262SOL    HW225725   8.469   2.784   0.013 -0.0262  0.1954  0.5421
40263SOL     OW25726   3.223  10.506   9.829 -0.7262 -1.2336  0.6229
40263SOL    HW125727   3.171  10.427   9.841  0.5339 -2.2204 -0.1434
40263SOL    HW225728   3.309  10.474   9.801 -0.0510  0.3901  0.7323
40264SOL     OW25729   3.510   9.353   3.712 -0.3918 -0.2466  0.1962
40264SOL    HW125730   3.565   9.300   3.654 -0.5421  0.2214 -0.3804
40264SOL    HW225731   3.514   9.441   3.676  0.6595  0.3724  1.7165
40265SOL     OW25732   3.474   5.084   7.330 -0.0794  0.3321  0.1364
40265SOL    HW125733   3.457   5.101   7.423  1.4799  2.1794  0.1482
40265SOL    HW225734   3.450   5.165   7.286  1.3624  0.3191 -0.7386
40266SOL     OW25735   5.119   6.280   5.557  0.2438  0.1840  0.7840
40266SOL    HW125736   5.132   6.186   5.542  0.5963  0.1251  1.4168
40266SOL    HW225737   5.090   6.286   5.648 -0.6211  0.6257  0.4963
40267SOL     OW25738   2.520   3.710   8.174  0.0221 -0.4868  0.8761
40267SOL    HW125739   2.490   3.660   8.098 -0.5424 -0.0217  0.7896
40267SOL    HW225740   2.596   3.661   8.206 -0.9873 -1.8738  1.2803
40268SOL     OW25741   6.336   1.712   8.957 -0.5170  0.1675  0.2175
40268SOL    HW125742   6.291   1.772   8.898 -1.5422 -1.0642 -0.2946
40268SOL    HW225743   6.277   1.704   9.032  1.4332  2.8887  2.2188
40269SOL     OW25744  10.256   9.903   4.277 -0.0632  0.4847  0.5688
40269SOL    HW125745  10.230   9.815   4.251 -0.0677  0.2614  1.3106
40269SOL    HW225746  10.347   9.894   4.304 -0.4684  0.4163  1.9732
40270SOL     OW25747   9.237   1.454  10.225 -0.1130 -0.5132 -0.1858
40270SOL    HW125748   9.232   1.550  10.225 -1.4484 -0.5621 -0.5008
40270SOL    HW225749   9.238   1.431  10.132  2.6379 -0.7457 -0.1689
40271SOL     OW25750   1.212   0.950   1.462 -0.5528  0.1485  0.1451
40271SOL    HW125751   1.220   0.973   1.554 -0.1120 -1.3674  0.5112
40271SOL    HW225752   1.117   0.953   1.445 -0.5784  1.2202  0.4083
40272SOL     OW25753   6.173   8.681   2.670 -0.2953 -0.5727  0.4378
40272SOL    HW125754   6.145   8.737   2.598  2.6207  0.4253 -0.0447
40272SOL    HW225755   6.111   8.699   2.740 -0.7205  1.6588 -0.4384
40273SOL     OW25756  11.231   2.635   0.229  0.7251  0.0828  0.4850
40273SOL    HW125757  11.282   2.683   0.164  1.3087 -2.2567 -0.9035
40273SOL    HW225758  11.274   2.654   0.313  1.0784  1.6967 -0.0372
40274SOL     OW25759   4.085   0.319   2.229 -0.0747  0.3853 -0.4869
40274SOL    HW125760   4.072   0.318   2.324  1.8535 -1.0152 -0.1867
40274SOL    HW225761   4.136   0.398   2.213 -2.4704  1.9936 -0.7587
40275SOL     OW25762   6.007   7.291   3.585  0.0570  0.4277 -0.0672
40275SOL    HW125763   5.962   7.256   3.508 -0.4182 -1.5232  1.0526
40275SOL    HW225764   5.986   7.385   3.584 -1.5804  0.0905 -1.1946
40276SOL     OW25765   3.507   1.939   3.381  0.4083 -0.0638  0.0444
40276SOL    HW125766   3.541   1.862   3.336  1.8696  0.5599  0.0315
40276SOL    HW225767   3.585   1.991   3.403 -0.3480  0.3463  2.0338
40277SOL     OW25768   5.034   5.685   7.619  0.1662 -0.5283 -0.3565
40277SOL    HW125769   5.116   5.680   7.569 -0.0068  2.5413 -1.1286
40277SOL    HW225770   5.060   5.720   7.704 -0.2819  0.1133 -0.4766
40278SOL     OW25771   8.093   6.263  10.312  1.0129 -0.2176  0.0879
40278SOL    HW125772   8.166   6.279  10.252  2.8773 -2.3529  1.6635
40278SOL    HW225773   8.134   6.239  10.395 -1.4588 -1.7377  0.9792
40279SOL     OW25774   9.196  11.122   6.497 -0.5415 -0.0703 -0.1130
40279SOL    HW125775   9.194  11.027   6.506  0.0513 -0.1849 -1.0516
40279SOL    HW225776   9.287  11.142   6.476 -1.0755  0.4850 -2.1009
40280SOL     OW25777   8.388   7.865  10.193  0.2421  0.0117  0.0446
40280SOL    HW125778   8.482   7.848  10.187  0.3537  1.0312 -1.7720
40280SOL    HW225779   8.346   7.784  10.163  0.5252 -0.3715  0.6634
40281SOL     OW25780   0.606   1.036  10.676  0.1379  0.3844 -0.6264
40281SOL    HW125781   0.532   1.028  10.615 -0.2463  0.2604 -0.1452
40281SOL    HW225782   0.592   0.967  10.740  2.4690 -1.8992 -2.3959
40282SOL     OW25783   4.322   5.979  10.766 -0.1374  0.0581 -0.3104
40282SOL    HW125784   4.279   6.060  10.793 -0.5861 -0.3845  0.3267
40282SOL    HW225785   4.272   5.949  10.690 -0.2237  0.1665 -0.2954
40283SOL     OW25786   8.682   9.695   2.444  0.3158  0.2299  0.1713
40283SOL    HW125787   8.667   9.652   2.528  2.3220  1.2079  1.1190
40283SOL    HW225788   8.677   9.625   2.380 -0.7423 -0.6357  1.1648
40284SOL     OW25789   6.064   3.344   9.521  0.0029  0.3492 -0.3264
40284SOL    HW125790   6.007   3.287   9.573 -1.0346  0.4926 -1.2673
40284SOL    HW225791   6.103   3.285   9.456 -0.3877  0.5347 -0.7391
40285SOL     OW25792   2.922   8.460   4.779 -0.0586  0.1014 -0.2982
40285SOL    HW125793   2.834   8.426   4.762 -0.0611 -0.1205  0.1374
40285SOL    HW225794   2.918   8.551   4.751 -0.3452  0.0167 -0.5476
40286SOL     OW25795   4.494  10.904   1.167  0.2965 -0.0153  0.1341
40286SOL    HW125796   4.442  10.859   1.100  1.2861 -1.1280  0.0852
40286SOL    HW225797   4.544  10.970   1.118 -1.7568  1.7693  0.3128
40287SOL     OW25798   2.235   9.300   5.827  0.0512 -0.0417  0.3241
40287SOL    HW125799   2.290   9.354   5.770 -0.3686 -1.2113 -1.2228
40287SOL    HW225800   2.297   9.261   5.889  1.0120 -1.3003 -1.3502
40288SOL     OW25801   4.358   6.702   4.145  0.3118  0.6487  0.5244
40288SOL    HW125802   4.409   6.779   4.120 -1.0775  0.9688 -1.6031
40288SOL    HW225803   4.420   6.630   4.147  1.7951  1.8521  3.2662
40289SOL     OW25804   7.060   3.712  11.031  0.3774  0.1300 -0.2269
40289SOL    HW125805   7.050   3.752  10.944  2.6394  0.2495 -0.4928
40289SOL    HW225806   7.110   3.632  11.015 -1.4561 -1.2851  0.6968
40290SOL     OW25807  10.754   9.284   6.103  0.1989  0.2718  0.4414
40290SOL    HW125808  10.674   9.318   6.142 -0.6603 -1.1955  0.0609
40290SOL    HW225809  10.792   9.227   6.170  0.1277 -0.1872  0.0985
40291SOL     OW25810   1.775   6.672   3.664  0.7629  0.8861  0.3024
40291SOL    HW125811   1.740   6.700   3.749  0.6241  1.5667  0.0252
40291SOL    HW225812   1.699   6.643   3.615  0.9303 -0.1964  0.6595
40292SOL     OW25813  10.433  10.460   5.438 -0.1148 -0.0199 -0.2984
40292SOL    HW125814  10.436  10.442   5.344 -3.5723  1.5244 -0.8904
40292SOL    HW225815  10.365  10.401   5.472 -0.5969  1.0590  0.7099
40293SOL     OW25816   7.705   3.676   8.513 -0.6085  0.2052  0.2319
40293SOL    HW125817   7.611   3.687   8.505 -0.5205  1.0572  0.2251
40293SOL    HW225818   7.720   3.583   8.500 -1.7767 -0.5795  3.4041
40294SOL     OW25819   5.309   3.946   9.267  0.4630 -0.3826  0.2060
40294SOL    HW125820   5.320   4.002   9.190  0.5745  0.1133  0.5850
40294SOL    HW225821   5.363   3.869   9.249  0.5214 -0.2496 -0.1901
40295SOL     OW25822   2.613   1.483  10.142  0.0500 -0.0302 -0.0133
40295SOL    HW125823   2.530   1.500  10.098  0.4322  2.1899  0.0002
40295SOL    HW225824   2.663   1.430  10.079 -0.4870  0.6606 -1.0546
40296SOL     OW25825   0.430   6.933   1.425 -0.4387  0.4455  0.4075
40296SOL    HW125826   0.385   7.016   1.410  1.6910  1.2806 -2.2801
40296SOL    HW225827   0.377   6.868   1.380  0.5763  1.3300 -2.2644
40297SOL     OW25828   5.946  11.323  11.076 -0.3360 -0.5123 -0.2780
40297SOL    HW125829   5.949  11.245  11.021  5.2354 -0.9875  0.1784
40297SOL    HW225830   5.955  11.396  11.015 -0.5459 -0.5693 -0.3792
40298SOL     OW25831   7.587   6.156   1.827 -0.6176  0.1297  0.1352
40298SOL    HW125832   7.520   6.145   1.760  0.5311  0.2766 -1.0780
40298SOL    HW225833   7.616   6.246   1.817  0.3078 -0.1666  0.1112
40299SOL     OW25834   4.747   1.848  10.326 -0.4192 -0.3999 -0.1559
40299SOL    HW125835   4.803   1.778  10.294 -1.5446 -1.3966 -0.0334
40299SOL    HW225836   4.765   1.923  10.269  2.2688 -0.1197  0.9437
40300SOL     OW25837   1.949   2.436   9.973  0.1890  0.0407 -0.7290
40300SOL    HW125838   1.986   2.442   9.885 -1.5324 -0.1313 -1.5044
40300SOL    HW225839   1.892   2.512   9.980  0.1370 -0.0737  0.1607
40301SOL     OW25840  10.986   2.902   9.724 -0.5774  0.3241 -0.3618
40301SOL    HW125841  11.026   2.989   9.731  1.9228 -0.8595  1.3864
40301SOL    HW225842  10.973   2.890   9.630  0.0187  2.1558 -0.7301
40302SOL     OW25843   9.187  10.374   9.238 -0.4569  0.3116  0.2451
40302SOL    HW125844   9.149  10.410   9.318  3.1580  2.0121  1.4231
40302SOL    HW225845   9.117  10.381   9.173 -2.4371  2.1959  2.3918
40303SOL     OW25846   8.687   1.171  11.569 -0.0871 -0.4555  0.2179
40303SOL    HW125847   8.592   1.169  11.567 -0.1725  0.5670  1.6278
40303SOL    HW225848   8.714   1.099  11.512 -1.6630  0.2254 -1.5055
40304SOL     OW25849   4.338   4.998   8.476 -0.2608 -0.5070 -0.1810
40304SOL    HW125850   4.408   5.059   8.450  0.0896 -0.5324  0.6742
40304SOL    HW225851   4.320   5.020   8.567 -2.0582  0.1514 -0.6565
40305SOL     OW25852   7.166   8.518  11.216  0.3811 -0.2928  0.2250
40305SOL    HW125853   7.170   8.518  11.121  0.5365 -0.6073  0.2304
40305SOL    HW225854   7.182   8.427  11.241  0.3051 -0.2199  0.5483
40306SOL     OW25855   3.745   7.581   4.731 -0.3773 -0.0247  0.9203
40306SOL    HW125856   3.698   7.498   4.736 -0.5934  0.1235  1.5015
40306SOL    HW225857   3.836   7.558   4.749 -0.0143 -0.4705 -1.2645
40307SOL     OW25858   6.730   2.437   6.710 -0.6009  0.0530  0.0622
40307SOL    HW125859   6.776   2.489   6.644 -1.0658  0.3836 -0.0029
40307SOL    HW225860   6.772   2.351   6.707  0.3626  0.5048  0.3713
40308SOL     OW25861   3.244   7.286   6.564  0.0669  0.2468  0.1083
40308SOL    HW125862   3.209   7.198   6.574  2.2605 -0.4278  2.9088
40308SOL    HW225863   3.322   7.275   6.510  0.2785  0.5058  0.3601
40309SOL     OW25864   2.137   2.594   2.046 -0.0674  0.5680  0.4488
40309SOL    HW125865   2.221   2.628   2.018 -1.1504  1.1803 -2.4224
40309SOL    HW225866   2.140   2.501   2.025  0.2303  0.3593  1.3530
40310SOL     OW25867   9.799   1.995  11.328 -0.4209  0.3240 -0.2603
40310SOL    HW125868   9.890   1.972  11.344 -0.3868 -0.3499 -1.2901
40310SOL    HW225869   9.797   2.022  11.236 -1.2793  0.2419 -0.2759
40311SOL     OW25870   2.046   0.350   1.597  0.3216  0.2992 -0.7179
40311SOL    HW125871   2.056   0.432   1.550  0.1301  0.9028  0.2678
40311SOL    HW225872   2.135   0.325   1.622  0.3351  0.4364 -0.6314
40312SOL     OW25873   0.296   4.651   7.179 -0.1867  0.4804  0.3970
40312SOL    HW125874   0.311   4.716   7.111 -1.3185 -0.6733 -1.0029
40312SOL    HW225875   0.383   4.631   7.213  0.3131  1.6143 -0.1816
40313SOL     OW25876  10.859   1.873   8.109  0.1089 -0.2580  0.2581
40313SOL    HW125877  10.798   1.812   8.067 -0.1193  0.7596 -0.9445
40313SOL    HW225878  10.828   1.960   8.085  1.8883  0.3000 -0.2251
40314SOL     OW25879   0.068   9.090   1.331 -0.4144  0.3204  0.1274
40314SOL    HW125880   0.037   9.053   1.414  2.0116 -2.1997  0.0436
40314SOL    HW225881   0.105   9.015   1.284 -0.3295  1.9574 -2.5966
40315SOL     OW25882   5.637   7.790   3.863  0.0470  0.1261  0.1969
40315SOL    HW125883   5.589   7.861   3.905 -0.7614 -0.1334 -0.2503
40315SOL    HW225884   5.681   7.745   3.934  1.0922  1.4482  0.4169
40316SOL     OW25885   4.604   9.295  11.478  0.0360 -0.0673 -0.5513
40316SOL    HW125886   4.700   9.295  11.473  0.3650  1.6287  3.0380
40316SOL    HW225887   4.581   9.202  11.486  1.2437 -0.5608 -2.2283
40317SOL     OW25888   2.782   9.527  11.607 -0.4179 -0.3675  0.5666
40317SOL    HW125889   2.865   9.483  11.626  0.8401  1.9922  0.9206
40317SOL    HW225890   2.782   9.536  11.511 -1.1660 -1.9401  0.3904
40318SOL     OW25891   9.945   0.585  10.505  0.1492 -0.2691  0.1912
40318SOL    HW125892   9.851   0.572  10.517  0.4159 -1.2707  1.3928
40318SOL    HW225893   9.957   0.680  10.507 -0.7156 -0.1701  1.0668
40319SOL     OW25894   4.835   6.630   6.908  0.4459  0.4176  0.0892
40319SOL    HW125895   4.757   6.674   6.942  1.8577  3.1841  0.0423
40319SOL    HW225896   4.823   6.629   6.813  0.6812  1.3038  0.0471
40320SOL     OW25897   3.899   4.738   1.973  0.0267 -0.2454 -0.1806
40320SOL    HW125898   3.852   4.655   1.979  1.2792 -1.1640 -2.0987
40320SOL    HW225899   3.951   4.742   2.053 -0.2091 -1.1990  0.0349
40321SOL     OW25900  10.782   7.798   3.677 -0.3867  0.0397 -0.0666
40321SOL    HW125901  10.690   7.776   3.667 -0.5920  0.5294  0.6382
40321SOL    HW225902  10.810   7.829   3.591 -0.8876 -0.0764 -0.2696
40322SOL     OW25903  10.675   7.135  10.418  0.0899 -0.0218  0.3549
40322SOL    HW125904  10.688   7.120  10.325  1.3760  1.8911  0.1782
40322SOL    HW225905  10.759   7.116  10.458 -0.5717 -1.2570  1.2252
40323SOL     OW25906   1.238   9.262   4.192 -0.1541 -0.9985  0.3423
40323SOL    HW125907   1.319   9.271   4.243  0.1025 -0.9752 -0.0588
40323SOL    HW225908   1.268   9.252   4.102 -0.6262  3.0897 -0.4425
40324SOL     OW25909   6.786   2.615   2.404  0.2501 -0.0458  0.4020
40324SOL    HW125910   6.839   2.542   2.372  1.8487  0.5446  1.5440
40324SOL    HW225911   6.804   2.686   2.342  0.1914 -0.0676  0.3600
40325SOL     OW25912   6.545   0.586   1.256  0.1984 -0.1750 -0.5341
40325SOL    HW125913   6.559   0.571   1.163 -0.4086 -0.0811 -0.6472
40325SOL    HW225914   6.450   0.583   1.267  0.1528  1.3887 -0.1925
40326SOL     OW25915   2.563  10.193   0.749 -0.4191  0.1362  0.2228
40326SOL    HW125916   2.578  10.142   0.828  3.6581 -0.3195 -0.6204
40326SOL    HW225917   2.531  10.130   0.684  0.3390 -0.4190  0.3840
40327SOL     OW25918   8.649   1.577   6.211 -0.2959  0.1696 -0.4987
40327SOL    HW125919   8.577   1.595   6.151 -0.2986  1.2275 -0.1910
40327SOL    HW225920   8.625   1.494   6.253 -0.0132 -0.9052 -2.3491
40328SOL     OW25921   7.817   6.506   0.553 -0.1270 -0.1950 -0.2923
40328SOL    HW125922   7.772   6.551   0.482 -1.1837 -0.0761  0.4306
40328SOL    HW225923   7.842   6.576   0.614 -1.5312 -0.5165  0.7009
40329SOL     OW25924   3.332   7.693   3.108  0.3514 -0.2892 -0.0130
40329SOL    HW125925   3.274   7.741   3.168  0.9586  1.7080 -0.9333
40329SOL    HW225926   3.407   7.669   3.162 -0.0090 -0.3025  0.4895
40330SOL     OW25927  11.187   0.184   2.834  0.2095  0.1971  0.0419
40330SOL    HW125928  11.236   0.263   2.858  1.5617 -0.8331  0.7681
40330SOL    HW225929  11.151   0.204   2.747  2.2490  0.8629 -0.7035
40331SOL     OW25930   3.162   8.024  11.160  0.1064 -0.0512  0.3487
40331SOL    HW125931   3.119   8.108  11.172 -0.8544 -0.7510  2.1407
40331SOL    HW225932   3.210   8.033  11.077 -1.7468  1.4923 -0.6402
40332SOL     OW25933  11.256   7.433   4.754 -0.0029 -0.4679  0.1042
40332SOL    HW125934  11.186   7.391   4.704 -1.2539  0.3815  1.0881
40332SOL    HW225935  11.218   7.450   4.840  0.8392  1.6126  0.1150
40333SOL     OW25936   9.399  11.095   7.249  0.1458  0.2416 -0.7076
40333SOL    HW125937   9.413  11.108   7.156  1.1998 -1.3233 -0.8144
40333SOL    HW225938   9.342  11.167   7.276  0.7210  1.3394 -2.3185
40334SOL     OW25939   7.492   4.542   2.021  0.8871  0.2568  0.3571
40334SOL    HW125940   7.502   4.623   1.971  1.7631  1.0582  1.7392
40334SOL    HW225941   7.563   4.545   2.085 -1.4405  0.4074  3.1298
40335SOL     OW25942   6.619   7.087   5.187  0.1478  0.0322  0.1666
40335SOL    HW125943   6.680   7.029   5.141 -0.2396 -0.9985  0.9096
40335SOL    HW225944   6.625   7.170   5.141  2.4012  0.0811  0.4391
40336SOL     OW25945   0.129   6.208   1.955 -0.2914  0.2888  0.3526
40336SOL    HW125946   0.201   6.269   1.975  0.2455 -0.1776 -0.1202
40336SOL    HW225947   0.098   6.179   2.041 -1.2066  1.9468  0.6259
40337SOL     OW25948   8.985   8.906   2.106  0.0393  0.1345  0.0843
40337SOL    HW125949   8.948   8.848   2.172  0.5300 -0.8819 -0.5078
40337SOL    HW225950   9.075   8.876   2.094  0.0549  0.4942 -0.8227
40338SOL     OW25951   0.023  11.581   0.807  0.0805  0.3787  0.3491
40338SOL    HW125952   0.087  11.648   0.833 -0.7516  0.8022  1.3783
40338SOL    HW225953   0.054  11.501   0.849  0.5517  0.3291 -0.0875
40339SOL     OW25954   5.733   6.208   8.056  0.0986  0.9078  0.3567
40339SOL    HW125955   5.746   6.215   7.962  1.7957 -0.7918  0.3793
40339SOL    HW225956   5.803   6.261   8.094  0.8880 -0.2658  0.6023
40340SOL     OW25957   0.512   3.993   6.233 -0.6984  0.2750  0.3196
40340SOL    HW125958   0.537   4.069   6.181 -0.8736  1.0356  1.3238
40340SOL    HW225959   0.474   3.932   6.169  1.3321  0.1262 -0.8351
40341SOL     OW25960  10.870   3.439   0.530 -0.4381  0.3812  0.0643
40341SOL    HW125961  10.879   3.445   0.435  0.4463 -1.3658  0.0100
40341SOL    HW225962  10.959   3.431   0.563 -0.8019 -0.2802  0.9381
40342SOL     OW25963  11.639   9.056   6.193  0.1029  0.0134  0.2865
40342SOL    HW125964  11.669   9.138   6.233 -0.1025  1.2370 -1.9353
40342SOL    HW225965  11.574   9.023   6.255 -1.4791  2.7196  0.2518
40343SOL     OW25966   7.309   5.272   6.359  0.5762  0.0820 -0.0201
40343SOL    HW125967   7.270   5.293   6.444  0.2313  0.0256 -0.1588
40343SOL    HW225968   7.394   5.316   6.358  0.7662 -0.2683  0.5260
40344SOL     OW25969   0.427   8.972  10.919 -0.5978  0.0050 -0.0419
40344SOL    HW125970   0.370   9.044  10.945  0.5030  1.3784 -1.2937
40344SOL    HW225971   0.403   8.900  10.978 -2.1031  1.2019  0.8737
40345SOL     OW25972   0.960   3.728   5.080  0.1453 -0.2696 -0.2761
40345SOL    HW125973   0.866   3.736   5.097  0.3170 -0.6003  0.8750
40345SOL    HW225974   0.987   3.651   5.130  1.5677  1.4876  1.8294
40346SOL     OW25975   8.131   3.126   6.803 -0.3939  0.2369  0.5267
40346SOL    HW125976   8.044   3.087   6.798 -0.4795  0.4012  0.7253
40346SOL    HW225977   8.186   3.059   6.843 -0.8863  0.8893  2.3782
40347SOL     OW25978   8.057   5.541   2.906  0.0314  0.4825  0.4250
40347SOL    HW125979   8.097   5.598   2.841 -0.0635  1.9755  1.6326
40347SOL    HW225980   8.131   5.509   2.959 -0.0531  0.6050  0.6174
40348SOL     OW25981  11.034   4.859   7.651 -0.4038  0.1655 -0.7348
40348SOL    HW125982  10.974   4.865   7.725  0.1353 -2.3679  0.0066
40348SOL    HW225983  11.121   4.861   7.690 -0.0910 -0.0239 -1.3989
40349SOL     OW25984   1.450   2.868   8.953 -0.4379  0.8117  0.3421
40349SOL    HW125985   1.485   2.920   8.880 -0.0224  2.1376  1.4434
40349SOL    HW225986   1.488   2.781   8.940  1.3637  1.5775  0.1246
40350SOL     OW25987  10.807  10.887   4.181  0.3512 -0.1351  0.1435
40350SOL    HW125988  10.874  10.952   4.202  0.1811  0.4445 -1.0060
40350SOL    HW225989  10.856  10.809   4.158  0.6003 -0.0295  0.3075
40351SOL     OW25990   9.720   5.939   8.782  0.1950 -0.2670 -0.0485
40351SOL    HW125991   9.774   5.970   8.855  0.9807 -2.0583  0.1831
40351SOL    HW225992   9.635   5.980   8.796  1.2090  1.9800  0.0486
40352SOL     OW25993  11.668  10.120   6.925  0.2788 -0.3124 -0.1945
40352SOL    HW125994  11.757  10.091   6.945  1.2665  0.4942 -2.9804
40352SOL    HW225995  11.636  10.056   6.862 -0.4720  0.3615 -0.5043
40353SOL     OW25996   0.833   4.191  10.945  0.5558  0.0639  0.1762
40353SOL    HW125997   0.809   4.268  10.997 -0.6683  0.8117 -1.3929
40353SOL    HW225998   0.792   4.206  10.860  0.4336 -2.2455 -0.2469
40354SOL     OW25999  11.350  10.687   2.680  0.4618 -0.0742 -0.4149
40354SOL    HW126000  11.371  10.711   2.771  0.7123  0.4605 -0.6118
40354SOL    HW226001  11.276  10.626   2.688 -1.7322  2.4535  0.0201
40355SOL     OW26002   4.462   3.379  10.364  0.2569 -0.4640 -0.6188
40355SOL    HW126003   4.444   3.302  10.418 -1.4432  0.2085 -0.1452
40355SOL    HW226004   4.408   3.449  10.403  0.6118  0.5839 -1.9175
40356SOL     OW26005  10.480  10.605   0.950  0.2993 -1.1060 -0.4101
40356SOL    HW126006  10.397  10.586   0.905  0.3356  1.2397 -1.6028
40356SOL    HW226007  10.454  10.653   1.028  0.5161 -0.2398 -0.8593
40357SOL     OW26008   2.187  10.319   1.915 -0.0382 -0.1558  0.1059
40357SOL    HW126009   2.176  10.229   1.884 -0.5722 -0.5821  1.4606
40357SOL    HW226010   2.276  10.323   1.948  0.4023  0.1900 -1.0691
40358SOL     OW26011   1.111   3.584   5.699 -0.0555 -0.1745  0.0837
40358SOL    HW126012   1.068   3.550   5.621 -1.7631  1.4805  0.2450
40358SOL    HW226013   1.174   3.648   5.666 -1.7505  1.5631  0.0394
40359SOL     OW26014   5.827  11.041   7.560  0.6004  0.6609 -0.3363
40359SOL    HW126015   5.842  11.102   7.633 -0.2026 -0.0419  0.4448
40359SOL    HW226016   5.741  11.065   7.527  0.5236  0.3184 -0.3870
40360SOL     OW26017   9.647  10.355   8.527 -1.0053  0.1774  0.3593
40360SOL    HW126018   9.717  10.342   8.591 -0.8742  0.8005  0.3527
40360SOL    HW226019   9.680  10.315   8.447 -0.6258  0.5229  0.3403
40361SOL     OW26020  10.593   1.962  10.495  0.1644  0.0922 -0.2062
40361SOL    HW126021  10.666   1.991  10.550 -0.1973  1.3822 -0.3694
40361SOL    HW226022  10.521   2.019  10.520 -0.3342 -0.0996 -1.1746
40362SOL     OW26023   7.490   5.967   1.475 -0.3574 -0.0399  0.3141
40362SOL    HW126024   7.422   5.981   1.541 -2.0707  3.5048 -1.8840
40362SOL    HW226025   7.456   5.896   1.420  0.2435 -1.7847  2.1172
40363SOL     OW26026  10.014  10.904   0.194 -0.5855  0.0344 -0.1071
40363SOL    HW126027  10.101  10.869   0.216 -0.6831 -0.1173  0.0413
40363SOL    HW226028   9.971  10.831   0.149 -1.0208 -0.2618  0.7646
40364SOL     OW26029   8.998   3.572   5.190 -0.5693 -0.5323 -0.0546
40364SOL    HW126030   8.965   3.553   5.278  0.2841 -1.2735  0.1264
40364SOL    HW226031   8.926   3.619   5.147 -0.7087  0.5274  1.2772
40365SOL     OW26032  11.586   4.405   4.541  0.1329  0.2019 -0.2736
40365SOL    HW126033  11.521   4.413   4.471 -0.3039  2.2738  0.3006
40365SOL    HW226034  11.663   4.450   4.506  0.8716 -1.1798 -0.4724
40366SOL     OW26035   3.512   8.565   9.438 -0.4545  0.1105 -0.0378
40366SOL    HW126036   3.510   8.657   9.462  0.9330 -0.1368  1.1756
40366SOL    HW226037   3.603   8.538   9.451 -0.6032 -1.1919 -1.3538
40367SOL     OW26038   5.020   4.131   3.058 -0.7581  0.0063 -0.5569
40367SOL    HW126039   5.059   4.218   3.051  1.7878 -1.0645 -0.6891
40367SOL    HW226040   4.970   4.133   3.139  1.1769  0.9383  0.6751
40368SOL     OW26041   2.255   4.142  11.310 -0.3665 -0.1275  0.5735
40368SOL    HW126042   2.237   4.145  11.404 -1.7323 -1.4510  0.3807
40368SOL    HW226043   2.330   4.084  11.302  0.9321  1.4243  0.9613
40369SOL     OW26044  10.304   6.152   9.632 -0.2145  0.1551  0.4636
40369SOL    HW126045  10.231   6.092   9.648 -1.1904  1.5364  1.3855
40369SOL    HW226046  10.358   6.146   9.710 -0.1541  0.2594  0.4300
40370SOL     OW26047   1.129   7.795   9.300  0.0650 -0.0330  0.1673
40370SOL    HW126048   1.204   7.779   9.357  0.4022 -0.0585 -0.2783
40370SOL    HW226049   1.156   7.761   9.215  0.6577  2.4886 -0.7390
40371SOL     OW26050   5.587   9.549   5.291 -0.0990  0.2062  0.4621
40371SOL    HW126051   5.619   9.516   5.207 -1.5136 -1.1911  0.4210
40371SOL    HW226052   5.614   9.641   5.292 -0.0413  0.2682 -1.5195
40372SOL     OW26053   7.355   1.598  11.329  0.1512 -0.8483  0.4353
40372SOL    HW126054   7.290   1.535  11.360  0.8582 -1.7390  0.1598
40372SOL    HW226055   7.427   1.592  11.393  0.8333 -1.3697 -0.3616
40373SOL     OW26056   3.339   4.602   2.834  0.5625  0.3316 -0.1707
40373SOL    HW126057   3.261   4.637   2.878 -0.6129 -2.0205 -0.2532
40373SOL    HW226058   3.366   4.528   2.887  0.8477 -0.8117 -1.8335
40374SOL     OW26059   0.885  10.338  10.770  0.5930  0.0119 -0.3848
40374SOL    HW126060   0.971  10.357  10.733  0.9028  0.9849  0.8134
40374SOL    HW226061   0.846  10.423  10.786 -0.3788 -0.4190 -0.3934
40375SOL     OW26062   3.093   1.915   6.062  0.2697  0.2257 -0.1609
40375SOL    HW126063   3.172   1.957   6.029 -0.2598  1.2963 -0.1166
40375SOL    HW226064   3.022   1.949   6.007 -0.3160  0.2008  0.5550
40376SOL     OW26065   2.603   4.646  11.426 -0.4825  0.2472  0.0739
40376SOL    HW126066   2.624   4.732  11.389 -0.7488  1.6903  3.0104
40376SOL    HW226067   2.519   4.622  11.386 -1.1081  2.0488  0.2433
40377SOL     OW26068   2.009   5.379   8.248 -0.2929 -0.6517  0.3606
40377SOL    HW126069   2.000   5.289   8.216 -0.2132 -0.1368 -1.2054
40377SOL    HW226070   2.083   5.375   8.309 -0.4418 -1.6954  0.4843
40378SOL     OW26071   9.744   3.688   7.476 -0.0443  0.4027 -0.2584
40378SOL    HW126072   9.677   3.627   7.507 -0.3902  0.8987 -0.0112
40378SOL    HW226073   9.764   3.659   7.387 -1.5208  0.9934 -0.8233
40379SOL     OW26074   7.269  10.502   7.725 -0.2019 -0.2888 -0.3616
40379SOL    HW126075   7.194  10.562   7.729  0.1061  0.1138 -0.6514
40379SOL    HW226076   7.259  10.458   7.640  0.1804  0.1516 -0.6423
40380SOL     OW26077  10.369   3.545   8.867 -0.0783  0.6126  0.3283
40380SOL    HW126078  10.370   3.621   8.809  2.3552  1.7287  1.6840
40380SOL    HW226079  10.294   3.560   8.924 -1.4599  0.3680 -1.3487
40381SOL     OW26080   1.251   4.942   2.206 -0.3584 -0.4382  0.8287
40381SOL    HW126081   1.252   4.961   2.112 -0.8232  1.7819  1.2120
40381SOL    HW226082   1.255   4.847   2.212 -3.2651 -0.8448 -1.5447
40382SOL     OW26083   8.105   3.902   5.306 -0.0075  0.1225  0.4341
40382SOL    HW126084   8.028   3.926   5.254  0.7576  3.6287  0.6354
40382SOL    HW226085   8.090   3.946   5.390  1.8981  0.3044  0.7093
40383SOL     OW26086   0.646  10.305   9.404  0.6849  0.5984 -0.5509
40383SOL    HW126087   0.603  10.228   9.367  1.5911 -0.4051  0.3995
40383SOL    HW226088   0.716  10.269   9.459 -0.1985  2.0016  1.6277
40384SOL     OW26089   8.194   1.656   5.820 -0.4169 -0.9085  0.2237
40384SOL    HW126090   8.128   1.717   5.851 -1.9604 -2.5279  0.2720
40384SOL    HW226091   8.162   1.626   5.735 -0.0833 -2.1921  0.5227
40385SOL     OW26092   1.912  10.913   9.190 -0.3037  0.1220 -0.4625
40385SOL    HW126093   1.969  10.837   9.179 -1.1280 -0.5387 -0.2898
40385SOL    HW226094   1.953  10.982   9.138 -0.7160 -1.0869 -2.5037
40386SOL     OW26095   4.878   7.535   8.961 -0.7039  0.0603 -0.2252
40386SOL    HW126096   4.953   7.489   8.998 -1.1918 -1.3387 -0.9317
40386SOL    HW226097   4.827   7.564   9.037  0.0181  0.1420  0.2350
40387SOL     OW26098   8.429   5.104   4.590 -0.1611  0.4273  0.0955
40387SOL    HW126099   8.360   5.166   4.615  0.3338  1.6327 -1.3643
40387SOL    HW226100   8.396   5.063   4.510  0.3378  0.1768  0.0155
40388SOL     OW26101   8.080   3.958   8.697 -0.3130 -0.1459  0.0656
40388SOL    HW126102   8.047   4.006   8.621 -1.6936  1.4388  1.5889
40388SOL    HW226103   8.023   3.882   8.704 -2.8537  1.7686  1.7663
40389SOL     OW26104   4.081   8.462   5.472 -0.0653 -0.1930  0.4287
40389SOL    HW126105   4.117   8.409   5.401  1.3819 -1.0022  1.6744
40389SOL    HW226106   4.021   8.403   5.518 -0.4596  0.1015  0.2976
40390SOL     OW26107   3.320   1.811   1.030 -0.1558 -0.2320  0.2703
40390SOL    HW126108   3.332   1.721   1.000  0.1464  0.0546 -0.4941
40390SOL    HW226109   3.402   1.833   1.075 -0.5233 -0.5855  1.1462
40391SOL     OW26110   6.672   1.353  10.329 -0.2305 -0.1233 -0.1279
40391SOL    HW126111   6.708   1.402  10.402  1.3532 -2.5730  0.8811
40391SOL    HW226112   6.584   1.327  10.359 -0.8431  1.4751 -0.4364
40392SOL     OW26113   9.296   7.237   2.674  0.1124  0.2376 -0.2499
40392SOL    HW126114   9.365   7.175   2.651 -1.0797 -0.8326 -1.0896
40392SOL    HW226115   9.253   7.197   2.750  0.3600  0.8711  0.2336
40393SOL     OW26116  10.273   5.220   6.558 -0.3281 -0.2873  0.3954
40393SOL    HW126117  10.306   5.279   6.490 -0.0362 -0.7659  0.1205
40393SOL    HW226118  10.185   5.253   6.577 -0.1128  0.3305  0.3518
40394SOL     OW26119   6.585   8.423   2.319 -0.0043 -0.2282 -0.1871
40394SOL    HW126120   6.515   8.434   2.255 -0.4654  1.5143  0.5579
40394SOL    HW226121   6.645   8.496   2.303 -1.4114  1.7904  2.8601
40395SOL     OW26122   6.374   7.452   8.761 -0.4667  0.7590  0.6704
40395SOL    HW126123   6.392   7.478   8.852 -0.1389 -0.8879  1.1128
40395SOL    HW226124   6.447   7.395   8.738 -1.6878 -0.6475  0.1599
40396SOL     OW26125  11.011   6.385   0.330 -0.1377 -0.0246 -0.2823
40396SOL    HW126126  10.925   6.361   0.297  0.2124  0.0061 -1.2396
40396SOL    HW226127  10.993   6.442   0.405 -0.9603  1.0642 -1.2712
40397SOL     OW26128  10.547   3.995   4.142  0.2624 -0.4486  0.1992
40397SOL    HW126129  10.486   3.995   4.216  0.4897 -0.8138  0.3886
40397SOL    HW226130  10.613   3.930   4.165  0.9011  0.1659  0.1466
40398SOL     OW26131   9.113  10.109   5.149 -0.7089  0.0237 -0.3269
40398SOL    HW126132   9.063  10.121   5.230  0.8038  2.9757  0.3219
40398SOL    HW226133   9.073  10.171   5.088  0.8566  1.0094 -0.3946
40399SOL     OW26134   7.857   5.985   8.047  0.2071  0.1910  0.6406
40399SOL    HW126135   7.930   5.970   8.107 -0.9824 -1.8372  1.6744
40399SOL    HW226136   7.898   5.989   7.960  1.5436 -1.3099  1.1469
40400SOL     OW26137   2.704   3.780   5.169  0.5229 -0.0516  0.2893
40400SOL    HW126138   2.795   3.807   5.161  0.3017  0.8383  0.5826
40400SOL    HW226139   2.654   3.858   5.143 -0.1781 -1.2031 -2.1471
40401SOL     OW26140   3.368   8.420   4.469 -0.5430 -0.1212 -0.0083
40401SOL    HW126141   3.368   8.374   4.553 -0.3581  1.8166  1.1035
40401SOL    HW226142   3.279   8.408   4.435  0.3403 -4.1309 -1.4888
40402SOL     OW26143   4.369   6.428   0.130 -0.3303  0.3442 -0.1208
40402SOL    HW126144   4.456   6.468   0.133  0.4730 -1.2793 -0.6383
40402SOL    HW226145   4.310   6.500   0.104  1.0075  1.2336 -0.7965
40403SOL     OW26146   6.361   9.269   3.766 -0.5208 -0.0863 -0.0359
40403SOL    HW126147   6.364   9.173   3.766 -0.0903 -0.0763 -0.3065
40403SOL    HW226148   6.413   9.294   3.689 -1.2126  0.3434 -0.3799
40404SOL     OW26149  10.809   2.943   2.325 -0.1729  0.7375  0.1033
40404SOL    HW126150  10.734   2.988   2.287 -0.1136 -0.1523 -1.1194
40404SOL    HW226151  10.799   2.852   2.297  1.7063  0.7243 -0.6768
40405SOL     OW26152   3.974   4.701   1.483  0.8517 -0.4115  0.2870
40405SOL    HW126153   4.009   4.785   1.513  1.8462 -0.2188 -1.2540
40405SOL    HW226154   4.027   4.635   1.528  2.1330 -0.1363 -0.7331
40406SOL     OW26155   9.314   1.851   3.882  0.4607 -0.1460  0.8204
40406SOL    HW126156   9.305   1.758   3.905 -0.8805 -0.1714  0.3081
40406SOL    HW226157   9.224   1.881   3.872  0.9133  0.9027 -0.2620
40407SOL     OW26158   8.940   6.221   1.205 -0.1673 -0.0279  0.4569
40407SOL    HW126159   8.856   6.196   1.242 -1.0560  1.7197 -0.2857
40407SOL    HW226160   8.964   6.301   1.251  0.6332  0.0154 -0.0147
40408SOL     OW26161   4.590   7.472   7.727  0.1097 -0.0977  0.0164
40408SOL    HW126162   4.545   7.486   7.811  1.5609  2.0165  0.5344
40408SOL    HW226163   4.667   7.420   7.750 -0.3005 -0.8512 -0.2928
40409SOL     OW26164   7.696   6.210  10.064  0.3076 -0.7134  0.4272
40409SOL    HW126165   7.668   6.233   9.976 -2.3462 -1.5441  0.9686
40409SOL    HW226166   7.615   6.189  10.111  1.5643  0.1043  3.2139
40410SOL     OW26167   9.372   5.731   5.033 -0.0757 -0.3132 -0.1867
40410SOL    HW126168   9.406   5.658   4.982  0.5099 -0.2670  0.1273
40410SOL    HW226169   9.328   5.787   4.969  0.8068 -0.1687 -0.6734
40411SOL     OW26170   5.635   2.854   0.287 -0.1227 -0.3426 -0.5562
40411SOL    HW126171   5.643   2.796   0.212  0.6403  0.7632 -1.3508
40411SOL    HW226172   5.692   2.928   0.267  0.1444 -0.0411  1.1340
40412SOL     OW26173   0.010  10.370   7.539  0.2225  0.0800  0.2400
40412SOL    HW126174  -0.040  10.422   7.602  1.5433  0.4588  1.0371
40412SOL    HW226175   0.026  10.287   7.584 -1.1605 -0.7478 -0.7029
40413SOL     OW26176   1.116   9.150   5.722  0.3603 -0.1381  0.7085
40413SOL    HW126177   1.209   9.167   5.734  0.4786 -0.8645  0.8626
40413SOL    HW226178   1.073   9.211   5.783  0.5989  1.9452 -1.0927
40414SOL     OW26179  10.515   5.815  10.891 -0.4412 -0.4068  0.1051
40414SOL    HW126180  10.531   5.868  10.812  1.3419 -0.8206  0.1393
40414SOL    HW226181  10.603   5.798  10.926 -1.1750 -0.4716  2.0396
40415SOL     OW26182   7.561   2.229   9.058 -0.3894 -0.1062  0.6399
40415SOL    HW126183   7.617   2.164   9.016  0.3189  1.5982 -1.2025
40415SOL    HW226184   7.594   2.234   9.148 -0.3186 -2.0752  0.7615
40416SOL     OW26185   2.554   8.826   1.381 -0.6583 -0.2779  0.1631
40416SOL    HW126186   2.642   8.846   1.348 -0.9254  0.0757 -0.3568
40416SOL    HW226187   2.520   8.761   1.320 -1.2495  0.5603 -0.4159
40417SOL     OW26188   7.311  11.467   4.437 -0.2469 -0.7906 -0.1211
40417SOL    HW126189   7.311  11.550   4.484  0.2385 -1.4962  1.1765
40417SOL    HW226190   7.234  11.471   4.380 -1.1343 -0.1030  1.0820
40418SOL     OW26191   0.032   3.195   9.783  0.3217  0.5111 -0.4634
40418SOL    HW126192  -0.030   3.258   9.747  0.9981  0.8335 -1.0836
40418SOL    HW226193   0.114   3.213   9.738  0.8950  0.1444  0.4029
40419SOL     OW26194  11.299   0.186   0.601 -0.1407 -0.1068 -0.4900
40419SOL    HW126195  11.356   0.198   0.525  2.1425  3.1748  1.4932
40419SOL    HW226196  11.242   0.262   0.600  0.9303  0.8207  1.7463
40420SOL     OW26197   4.705   0.260   7.953  0.5238 -0.5860  0.1814
40420SOL    HW126198   4.697   0.288   7.862  0.2903  0.4190  0.4989
40420SOL    HW226199   4.659   0.176   7.957  0.6811 -0.7169 -0.6563
40421SOL     OW26200  11.056   1.993   1.586 -0.4070 -0.5232  0.0069
40421SOL    HW126201  10.994   1.989   1.659 -2.3301  0.6845 -1.4572
40421SOL    HW226202  11.004   1.967   1.509  1.8881 -3.1523 -0.8243
40422SOL     OW26203  10.286   0.618   4.572  0.2990 -0.2075  0.2738
40422SOL    HW126204  10.290   0.710   4.546  0.5464  0.0919  1.3372
40422SOL    HW226205  10.206   0.612   4.625 -0.1764 -0.7963 -0.4946
40423SOL     OW26206   2.327   4.037   5.709 -0.1304  0.6867  0.1653
40423SOL    HW126207   2.330   4.089   5.628  0.6635  0.0972 -0.1981
40423SOL    HW226208   2.326   3.946   5.679 -1.5556  0.4641  0.7989
40424SOL     OW26209   9.927   9.024   9.237  0.8619  0.5125  0.8101
40424SOL    HW126210   9.932   9.117   9.262 -0.7856  0.9977 -0.4317
40424SOL    HW226211  10.010   9.006   9.193  0.4341  2.0081 -0.7106
40425SOL     OW26212   5.748   9.696   6.653 -0.0240 -0.7246 -0.3851
40425SOL    HW126213   5.805   9.626   6.621  0.2114 -0.7187  0.0216
40425SOL    HW226214   5.719   9.741   6.573  1.7417  0.2274 -0.5258
40426SOL     OW26215   7.654   2.544  10.516  0.4634 -0.0800 -0.2156
40426SOL    HW126216   7.623   2.488  10.587  3.6267 -1.4607  0.2652
40426SOL    HW226217   7.631   2.633  10.543 -0.2864 -0.7579  1.4975
40427SOL     OW26218   5.616   1.565   5.225  0.3077  0.7078  0.7575
40427SOL    HW126219   5.565   1.597   5.150  0.4296 -2.6861 -0.9581
40427SOL    HW226220   5.557   1.571   5.299 -0.7940  1.5664 -0.1539
40428SOL     OW26221   0.705  10.862  10.835 -0.2080  0.1717  0.0596
40428SOL    HW126222   0.619  10.847  10.796 -0.2772  1.5559 -0.3984
40428SOL    HW226223   0.691  10.938  10.893  0.9118  1.0686 -0.8141
40429SOL     OW26224   2.292   5.792   5.319  0.0405 -0.2612  0.0659
40429SOL    HW126225   2.198   5.781   5.310 -0.1054  0.9981 -0.0641
40429SOL    HW226226   2.303   5.841   5.400  0.6554 -1.1725  0.5563
40430SOL     OW26227   1.824   7.989   6.930 -0.3710 -0.2662  0.0756
40430SOL    HW126228   1.773   7.928   6.983  0.4662 -1.0803 -0.0118
40430SOL    HW226229   1.859   7.935   6.859  1.6136 -0.0534  0.8086
40431SOL     OW26230   0.631   8.222  10.934  0.3409  0.0413 -0.2134
40431SOL    HW126231   0.576   8.274  10.993  0.1083  0.4231 -0.7634
40431SOL    HW226232   0.691   8.176  10.992 -1.0686 -1.0108  0.4995
40432SOL     OW26233   7.488   9.135  11.307 -0.3391 -0.2361  0.9822
40432SOL    HW126234   7.432   9.208  11.336  1.1469  1.0616  0.6988
40432SOL    HW226235   7.550   9.123  11.379 -0.2471 -0.8848  0.7969
40433SOL     OW26236   5.615   3.813   1.291 -0.2891  0.3980 -0.1845
40433SOL    HW126237   5.660   3.738   1.332  2.0791  1.3780 -0.8354
40433SOL    HW226238   5.522   3.798   1.311  0.3515 -1.2659  2.0589
40434SOL     OW26239   3.202   8.328   6.032 -0.2166  0.1428  0.3611
40434SOL    HW126240   3.189   8.268   5.959 -1.4709  0.4858  0.2734
40434SOL    HW226241   3.148   8.292   6.102 -1.6489  1.5737  0.0516
40435SOL     OW26242   1.063   7.974   0.603  0.0548  0.0558  0.3510
40435SOL    HW126243   1.083   7.891   0.646  1.6487  0.0974 -0.2350
40435SOL    HW226244   1.094   8.041   0.664 -0.6783  0.2065  0.5612
40436SOL     OW26245   5.123   4.916   5.740 -0.1783 -0.4441  0.7344
40436SOL    HW126246   5.050   4.859   5.720  1.0426 -1.2833 -1.8101
40436SOL    HW226247   5.179   4.865   5.799  0.5280 -1.6848 -0.9244
40437SOL     OW26248   7.728   4.848   7.231 -0.7099  0.3134 -0.0712
40437SOL    HW126249   7.776   4.858   7.313  0.1440  0.8546 -0.6140
40437SOL    HW226250   7.706   4.755   7.227  1.2032 -0.1748 -0.2770
40438SOL     OW26251   7.734  10.507   4.346 -0.2666  0.0725 -0.2721
40438SOL    HW126252   7.707  10.587   4.390 -0.3030  0.6266 -1.2911
40438SOL    HW226253   7.744  10.443   4.417 -1.1606  0.7113  0.4401
40439SOL     OW26254  10.421   4.900   8.519 -0.0826 -0.6145 -0.4614
40439SOL    HW126255  10.490   4.949   8.564  0.3215 -1.5359 -0.0602
40439SOL    HW226256  10.426   4.812   8.555 -1.5510 -0.6813 -0.3433
40440SOL     OW26257   6.254   1.154   9.253  0.9136 -0.1929 -0.5087
40440SOL    HW126258   6.256   1.068   9.211 -0.0990 -0.5797  0.1821
40440SOL    HW226259   6.308   1.143   9.331 -0.7872 -0.8243  0.6349
40441SOL     OW26260   0.383  10.863   9.196  0.1152 -0.0009  0.3554
40441SOL    HW126261   0.349  10.914   9.123 -0.7390 -1.3720 -0.2282
40441SOL    HW226262   0.431  10.791   9.155  0.8246 -0.0059  1.1595
40442SOL     OW26263   2.472   9.240   5.930  0.2925 -0.6451  0.0167
40442SOL    HW126264   2.558   9.231   5.970 -0.0600  0.0870  1.0035
40442SOL    HW226265   2.485   9.302   5.858  1.2711 -3.2738 -2.1862
40443SOL     OW26266   2.247   0.876   5.818 -0.1556 -0.2353 -0.6861
40443SOL    HW126267   2.197   0.802   5.852 -1.4376  1.4108  1.2629
40443SOL    HW226268   2.330   0.872   5.865 -1.4090  1.2458  1.8740
40444SOL     OW26269   3.954   3.265   9.882  0.5079  0.2671 -0.6170
40444SOL    HW126270   3.963   3.187   9.936 -1.2567  0.4398  0.0035
40444SOL    HW226271   3.886   3.317   9.926  0.5020  1.3929 -1.8787
40445SOL     OW26272   3.458   7.282   6.421 -0.3786  0.4211 -0.0244
40445SOL    HW126273   3.460   7.278   6.326 -0.1485 -0.4616  0.0126
40445SOL    HW226274   3.541   7.324   6.445 -0.5566  0.8862 -0.2253
40446SOL     OW26275  11.687  11.033   9.199 -0.1856  0.4511 -0.2119
40446SOL    HW126276  11.679  11.073   9.286 -1.3937 -0.4610  0.1128
40446SOL    HW226277  11.746  11.092   9.152 -0.0271  1.3171  1.0133
40447SOL     OW26278   4.895   9.536   9.438 -0.0919 -0.4412  0.3030
40447SOL    HW126279   4.846   9.520   9.356 -0.2301  0.7443  0.1371
40447SOL    HW226280   4.827   9.557   9.502  0.2087  2.5014 -0.2337
40448SOL     OW26281   6.608   6.655   4.528  0.5122  0.1163  0.4958
40448SOL    HW126282   6.630   6.607   4.608  0.4889  1.0619  1.0902
40448SOL    HW226283   6.513   6.660   4.528  0.5425  0.9541  0.9391
40449SOL     OW26284   1.737   5.306   5.063 -0.4107 -0.1469  0.0949
40449SOL    HW126285   1.720   5.395   5.092  0.0158 -0.4209  1.2202
40449SOL    HW226286   1.716   5.307   4.969  0.3266  1.3183 -0.0793
40450SOL     OW26287   3.101   8.746   6.977 -0.2489 -0.0470 -0.4993
40450SOL    HW126288   3.187   8.739   6.936 -0.5547 -0.1896 -1.1162
40450SOL    HW226289   3.062   8.824   6.939 -0.5038 -0.1340 -0.4195
40451SOL     OW26290   2.175   7.218   7.037 -0.3766  0.0556  0.1178
40451SOL    HW126291   2.218   7.186   6.957 -0.6569 -0.4830  0.1752
40451SOL    HW226292   2.247   7.236   7.097 -0.2246 -2.7181  0.9263
40452SOL     OW26293   3.938   1.176   9.845  0.2397 -0.4484  0.0169
40452SOL    HW126294   3.896   1.258   9.870  0.8347 -0.6405  1.8290
40452SOL    HW226295   3.923   1.168   9.751 -1.3148  0.8700  0.1174
40453SOL     OW26296   0.710   8.996  11.114 -0.3776 -0.4066  0.8958
40453SOL    HW126297   0.701   8.921  11.055 -0.0388 -0.4179  0.8529
40453SOL    HW226298   0.769   9.055  11.067  2.0920 -1.5679  2.3072
40454SOL     OW26299   5.596  11.552   9.181  0.0107  0.1860  0.3538
40454SOL    HW126300   5.556  11.500   9.112 -0.9176  0.7425  0.4595
40454SOL    HW226301   5.523  11.582   9.235  0.6397  0.5422  1.0376
40455SOL     OW26302   2.354   9.577   5.307  0.3110 -0.3377  0.3285
40455SOL    HW126303   2.280   9.573   5.246  0.5709  0.1182 -0.0259
40455SOL    HW226304   2.431   9.574   5.250  0.5591 -0.3035  0.6624
40456SOL     OW26305   0.487  10.471   6.616  0.1945 -0.2734  0.3617
40456SOL    HW126306   0.525  10.473   6.528  2.0347  0.5872  1.1151
40456SOL    HW226307   0.527  10.395   6.658  0.1282 -0.0742  0.7872
40457SOL     OW26308   8.811   8.051  10.982 -0.0154  0.1988  0.3434
40457SOL    HW126309   8.750   8.007  11.042 -0.0837  0.0693  0.1799
40457SOL    HW226310   8.894   8.054  11.030  0.1858 -0.7488  0.0909
40458SOL     OW26311   3.887   7.319   5.221 -0.1905  0.4014 -0.3440
40458SOL    HW126312   3.962   7.278   5.265 -0.2847  0.6838  0.0874
40458SOL    HW226313   3.890   7.285   5.132  0.3562  0.2819 -0.2834
40459SOL     OW26314   7.673  11.428   4.121 -0.2718  0.1136  0.1237
40459SOL    HW126315   7.723  11.347   4.108  0.1321  0.5254 -0.9833
40459SOL    HW226316   7.582  11.399   4.127  0.0457 -0.6310  2.0392
40460SOL     OW26317   0.653   6.217   0.530 -0.2162 -0.1274  0.0076
40460SOL    HW126318   0.671   6.217   0.436  1.0343  0.6129  0.2334
40460SOL    HW226319   0.579   6.276   0.541  0.5626  0.9614 -0.3737
40461SOL     OW26320   4.602   7.304   9.340  0.5134 -0.2596  0.2020
40461SOL    HW126321   4.671   7.336   9.398  1.2078 -0.0656 -0.6994
40461SOL    HW226322   4.524   7.351   9.368  1.3575  1.8117 -0.6390
40462SOL     OW26323   2.891   4.437   7.187 -0.2057 -0.5590 -0.3086
40462SOL    HW126324   2.975   4.394   7.175 -0.7529 -1.8504  0.2841
40462SOL    HW226325   2.840   4.376   7.241 -1.3570  0.3987 -0.2666
40463SOL     OW26326   8.420   9.258   2.127  0.2758 -0.1660  0.5266
40463SOL    HW126327   8.429   9.217   2.040 -0.0167 -1.2950  1.0040
40463SOL    HW226328   8.404   9.350   2.109 -0.8898 -0.5722 -0.6627
40464SOL     OW26329   6.427   7.134   2.493  0.3623  0.4588 -0.2104
40464SOL    HW126330   6.417   7.075   2.419 -0.6054  0.9879 -0.5204
40464SOL    HW226331   6.348   7.121   2.545  0.2936  1.2238 -0.1075
40465SOL     OW26332   5.983   8.976   0.455 -0.3108  0.5790 -0.0328
40465SOL    HW126333   5.901   9.007   0.494 -0.2653  0.7995 -0.1084
40465SOL    HW226334   6.047   9.044   0.477 -0.2744  0.6851 -0.4544
40466SOL     OW26335   2.300  10.459   1.218 -0.0635 -0.5191  0.3346
40466SOL    HW126336   2.232  10.451   1.285 -0.2856  3.5651  0.8462
40466SOL    HW226337   2.376  10.492   1.265  0.4072  0.5088 -1.0875
40467SOL     OW26338   2.225   5.641  11.329  0.1952  0.4309 -0.6262
40467SOL    HW126339   2.188   5.729  11.343 -1.0118 -0.0255 -0.8000
40467SOL    HW226340   2.212   5.597  11.413 -2.6439 -0.7565 -1.5798
40468SOL     OW26341   5.086   4.046   7.255 -0.3546  0.2851  0.7122
40468SOL    HW126342   5.118   3.970   7.304 -2.2018  0.6045  2.5563
40468SOL    HW226343   5.149   4.116   7.276 -1.1998  0.4700  2.8983
40469SOL     OW26344   4.727   2.527  11.404 -0.1720  0.3713 -0.2248
40469SOL    HW126345   4.637   2.517  11.374  0.0589  1.8016 -1.5345
40469SOL    HW226346   4.778   2.475  11.341 -0.1607 -1.7543  1.4409
40470SOL     OW26347  11.431   4.026   2.159 -0.1803 -0.1264 -0.5089
40470SOL    HW126348  11.445   4.118   2.179 -1.2201 -0.1651  0.4646
40470SOL    HW226349  11.513   3.983   2.183 -0.6091  0.1566  1.6679
40471SOL     OW26350  11.564  10.796  10.967 -0.2119 -0.5241  0.1146
40471SOL    HW126351  11.515  10.833  11.040  0.3409 -2.4224  1.5381
40471SOL    HW226352  11.499  10.747  10.917 -0.2343 -0.9866  0.5835
40472SOL     OW26353   1.268   7.039   8.255 -0.1107  0.5026  0.4389
40472SOL    HW126354   1.209   7.011   8.325 -0.7262 -0.2881 -0.3678
40472SOL    HW226355   1.211   7.086   8.193 -0.2690 -1.5441 -1.0984
40473SOL     OW26356   7.474  11.496  10.521 -0.2243  0.2590 -0.3105
40473SOL    HW126357   7.560  11.468  10.489  0.2046 -1.7240  2.3070
40473SOL    HW226358   7.434  11.416  10.556 -1.8369  1.7253  1.3761
40474SOL     OW26359   3.733   9.699   5.711 -0.0931  0.0507  0.1098
40474SOL    HW126360   3.762   9.677   5.799  0.6210 -0.6094 -0.2825
40474SOL    HW226361   3.638   9.705   5.717  0.0317  1.3478  1.2188
40475SOL     OW26362   8.230   4.946   9.536 -0.1768 -0.0596 -0.2580
40475SOL    HW126363   8.187   4.871   9.576  1.4097 -0.7839  0.1599
40475SOL    HW226364   8.291   4.977   9.603  1.3584 -0.2976 -1.4965
40476SOL     OW26365   2.169   4.355   8.042 -0.7262  0.1512  0.0744
40476SOL    HW126366   2.108   4.298   7.996  0.0489 -0.4921 -0.1790
40476SOL    HW226367   2.167   4.437   7.992 -0.0237 -0.4789 -1.0254
40477SOL     OW26368   3.453   9.056   4.320  0.2351 -0.3293  0.5494
40477SOL    HW126369   3.421   9.040   4.231  1.1329 -0.2512  0.1957
40477SOL    HW226370   3.475   9.149   4.321  2.4526 -0.7830  0.0628
40478SOL     OW26371   4.328   4.300   5.782 -0.1657  0.0052  0.4219
40478SOL    HW126372   4.278   4.303   5.700 -1.6600  0.7489  1.3154
40478SOL    HW226373   4.419   4.289   5.754 -0.7417 -0.7433 -1.2881
40479SOL     OW26374  11.528   7.923   6.555 -0.0377 -0.1158 -0.4156
40479SOL    HW126375  11.593   7.989   6.580 -1.3317  1.1281 -0.1717
40479SOL    HW226376  11.578   7.855   6.510  1.6819 -0.0823  1.3071
40480SOL     OW26377   3.517   5.993   2.921 -0.1404 -0.8450  0.0385
40480SOL    HW126378   3.563   5.945   2.852  2.3780  0.2598  0.8485
40480SOL    HW226379   3.481   6.070   2.876  2.9596  0.7828  0.1256
40481SOL     OW26380   3.563   1.197  11.376 -0.5002 -0.4641  0.2944
40481SOL    HW126381   3.528   1.184  11.464  1.1709  1.2931  1.2882
40481SOL    HW226382   3.654   1.167  11.381 -0.0881  0.5861 -0.5330
40482SOL     OW26383   1.857   3.043   8.371 -0.1192 -0.1107  0.1999
40482SOL    HW126384   1.815   2.957   8.368  0.4971 -0.4741  1.4689
40482SOL    HW226385   1.834   3.083   8.287 -2.1342 -0.6824  0.4297
40483SOL     OW26386   7.150   8.426   6.314 -0.1448  0.9261 -0.0350
40483SOL    HW126387   7.194   8.502   6.276  2.6996 -1.1763 -1.3525
40483SOL    HW226388   7.194   8.413   6.399  0.7294 -0.2675 -0.6464
40484SOL     OW26389   1.781   7.264   9.880  0.1781 -0.8656  0.0332
40484SOL    HW126390   1.779   7.168   9.878  2.3734 -1.0801  2.7537
40484SOL    HW226391   1.858   7.287   9.828  1.5852 -0.8658  2.0042
40485SOL     OW26392   8.547   2.845   4.486 -0.5205  0.6324 -0.0261
40485SOL    HW126393   8.481   2.777   4.497  1.1397 -1.3173 -1.4204
40485SOL    HW226394   8.544   2.867   4.393  0.6699  0.6386 -0.0749
40486SOL     OW26395   0.630   0.969   2.102  0.4170  0.3419 -0.2953
40486SOL    HW126396   0.588   1.041   2.148  0.2748 -1.1552  2.0341
40486SOL    HW226397   0.559   0.927   2.054 -0.3143 -0.5811  1.5097
40487SOL     OW26398  11.561   5.879   2.557  0.1733 -0.1730 -0.2507
40487SOL    HW126399  11.544   5.890   2.650  0.9450 -0.8798 -0.0123
40487SOL    HW226400  11.566   5.785   2.544 -1.3053 -0.1546 -1.2844
40488SOL     OW26401   3.771   0.402   9.049  0.3482 -0.4503 -0.5408
40488SOL    HW126402   3.738   0.490   9.029  1.3815 -0.0223 -0.4505
40488SOL    HW226403   3.859   0.401   9.011  0.4831 -1.3245 -0.2164
40489SOL     OW26404   2.790   8.206   0.664  0.3026 -0.1823 -0.1937
40489SOL    HW126405   2.828   8.251   0.589  0.9457  2.6684  1.6994
40489SOL    HW226406   2.858   8.144   0.691  1.6073  1.3327  0.1517
40490SOL     OW26407   4.267   1.417   6.289  0.2290  0.2096 -0.4153
40490SOL    HW126408   4.281   1.347   6.225 -2.0919 -0.1855 -0.5702
40490SOL    HW226409   4.261   1.497   6.236  2.1277  0.4862 -0.2985
40491SOL     OW26410   5.786   3.644   2.927  0.3174  0.1237  0.4064
40491SOL    HW126411   5.812   3.664   2.837 -0.7616 -0.3188 -0.0230
40491SOL    HW226412   5.793   3.549   2.933 -0.2001  0.0916  0.5837
40492SOL     OW26413   0.427   3.915  11.629 -0.3667  0.2497  0.1311
40492SOL    HW126414   0.435   3.994  11.682  2.2491 -0.3524  0.7733
40492SOL    HW226415   0.483   3.851  11.672  0.8069 -0.7024 -2.5653
40493SOL     OW26416   3.305   7.187   3.205  0.3710  1.3352 -0.0099
40493SOL    HW126417   3.353   7.266   3.230 -1.2597  2.5646 -0.6255
40493SOL    HW226418   3.214   7.214   3.202 -0.2605 -0.6405 -0.0582
40494SOL     OW26419  11.159   9.571   7.137  0.4715 -0.1164 -0.0030
40494SOL    HW126420  11.144   9.588   7.044 -0.6294 -0.0820  0.1656
40494SOL    HW226421  11.206   9.649   7.168  0.4700  0.0614 -0.4391
40495SOL     OW26422   4.524   9.953  11.139  0.0864  1.0971  0.5176
40495SOL    HW126423   4.567   9.936  11.223 -1.2518 -0.2906  0.9684
40495SOL    HW226424   4.500   9.867  11.106 -0.5229  1.7016 -0.6936
40496SOL     OW26425  11.218   3.511   9.963  0.1438  0.1095 -0.0606
40496SOL    HW126426  11.251   3.515  10.053  0.8507  2.0186 -0.3378
40496SOL    HW226427  11.286   3.465   9.915  0.0730 -0.3336  0.2571
40497SOL     OW26428  10.823   5.606   6.808 -0.6997  0.0608 -0.3986
40497SOL    HW126429  10.791   5.532   6.860 -0.6417 -0.9612 -1.7551
40497SOL    HW226430  10.881   5.566   6.744 -1.2232  1.1876 -1.6194
40498SOL     OW26431   5.571   5.729   8.236  0.0304 -0.2997 -0.2644
40498SOL    HW126432   5.584   5.739   8.330  0.4856 -0.2380 -0.3318
40498SOL    HW226433   5.598   5.813   8.199 -1.4468  0.1694 -0.3345
40499SOL     OW26434   5.015   2.149   5.783 -0.3012  0.0846  0.0458
40499SOL    HW126435   5.012   2.138   5.688 -1.2735  0.0849  0.0684
40499SOL    HW226436   5.086   2.212   5.797  1.0173 -1.2113 -0.5383
40500SOL     OW26437   7.630   0.869   9.141 -0.0414 -1.0076 -0.7611
40500SOL    HW126438   7.577   0.791   9.158 -2.5755  0.6999 -0.3061
40500SOL    HW226439   7.598   0.903   9.058  0.2196  0.1383 -0.4197
40501SOL     OW26440   9.539   2.077   1.717 -0.1231 -0.4659 -0.3619
40501SOL    HW126441   9.572   2.099   1.804 -0.5439 -3.5164  0.7149
40501SOL    HW226442   9.445   2.093   1.723 -0.0019  0.4185 -0.6753
40502SOL     OW26443  11.143   2.990   8.118 -0.5162  0.1219 -0.2085
40502SOL    HW126444  11.211   3.020   8.178 -2.0141  2.8793  0.2573
40502SOL    HW226445  11.188   2.975   8.035  0.9754 -0.1691  0.6254
40503SOL     OW26446   7.438   9.847   9.124  0.3876 -0.0258 -0.4413
40503SOL    HW126447   7.367   9.908   9.106  1.0613  0.3290 -2.0627
40503SOL    HW226448   7.396   9.761   9.125 -0.5501  0.4035  1.7661
40504SOL     OW26449   6.655   1.699   4.953 -0.1196  0.2656 -0.1142
40504SOL    HW126450   6.751   1.696   4.958 -0.0574 -2.9038 -0.9777
40504SOL    HW226451   6.627   1.615   4.989 -2.6345  1.2231  0.3285
40505SOL     OW26452   8.829   7.980   1.935 -0.1179  0.3826 -0.0116
40505SOL    HW126453   8.851   8.072   1.920  1.7180  0.3268  1.8832
40505SOL    HW226454   8.772   7.981   2.011  0.9962 -0.1044  0.8538
40506SOL     OW26455   2.362  10.961  11.689  0.3204  0.3677  0.3085
40506SOL    HW126456   2.385  11.039  11.740  2.4037 -0.0509  0.1282
40506SOL    HW226457   2.324  10.900  11.752 -1.9632  1.7178  0.3332
40507SOL     OW26458  10.573   8.389   2.647  0.2931  0.0224  0.2355
40507SOL    HW126459  10.655   8.387   2.596  1.3535 -1.0137  1.8946
40507SOL    HW226460  10.513   8.334   2.597  0.7475  0.4065 -0.7651
40508SOL     OW26461   4.913   9.524   7.902  0.0248  0.3529 -0.1675
40508SOL    HW126462   4.933   9.587   7.832  0.8724 -0.4776 -0.7052
40508SOL    HW226463   4.817   9.520   7.904 -0.0977  2.5243  0.6971
40509SOL     OW26464   0.259   9.665   4.601 -0.2504 -0.3562  0.3022
40509SOL    HW126465   0.238   9.744   4.651  1.5144 -1.2833  2.6953
40509SOL    HW226466   0.186   9.606   4.617  0.1545 -0.5280  1.6261
40510SOL     OW26467  11.314  10.647   6.590 -0.1065 -0.3060  0.8784
40510SOL    HW126468  11.346  10.607   6.509 -0.4037  1.1122  0.0329
40510SOL    HW226469  11.366  10.727   6.600 -0.4213 -0.2041  1.8141
40511SOL     OW26470  10.047   8.290   6.177 -0.0676 -0.3302 -0.0831
40511SOL    HW126471  10.099   8.210   6.167  0.5110 -0.1498  1.2555
40511SOL    HW226472   9.978   8.267   6.240  0.2655  0.2716  0.5242
40512SOL     OW26473   3.827   3.028   4.911 -0.7790  0.4876 -0.4043
40512SOL    HW126474   3.798   2.964   4.847  0.8335  0.0664 -0.7550
40512SOL    HW226475   3.784   3.110   4.885 -3.0152 -0.4150  0.1664
40513SOL     OW26476   6.298   6.135   6.445  0.0151  0.2284  0.2479
40513SOL    HW126477   6.205   6.110   6.442  0.1022 -0.0352 -0.6655
40513SOL    HW226478   6.325   6.118   6.535 -0.5740 -0.6357  0.2691
40514SOL     OW26479   1.594   1.855   0.558 -0.3171  1.0152 -0.1592
40514SOL    HW126480   1.621   1.927   0.615 -0.1993  0.9613 -0.1471
40514SOL    HW226481   1.579   1.896   0.473  1.7813  0.7300 -0.7095
40515SOL     OW26482  10.652   2.945   8.003  0.1524 -0.0723  0.0627
40515SOL    HW126483  10.574   2.936   7.948  1.2900 -2.2410 -1.3915
40515SOL    HW226484  10.650   2.868   8.060  0.5972  0.4914  0.8453
40516SOL     OW26485   1.609   4.208   3.949 -0.2144 -0.0953  0.2767
40516SOL    HW126486   1.585   4.149   4.021  0.4447 -1.7925 -0.8383
40516SOL    HW226487   1.544   4.191   3.882 -0.7922  1.4444  0.4070
40517SOL     OW26488   0.445   0.585  10.702 -0.1433 -0.3831 -0.1424
40517SOL    HW126489   0.446   0.670  10.658  0.2926 -0.0644  0.4784
40517SOL    HW226490   0.368   0.587  10.758 -0.2244 -0.4619 -0.2510
40518SOL     OW26491  10.950   0.014   6.914  0.3076 -0.4499  0.1051
40518SOL    HW126492  10.916   0.054   6.994  2.2946 -0.9727  1.2738
40518SOL    HW226493  11.039  -0.013   6.936  1.3468  0.3596 -2.5994
40519SOL     OW26494   5.716   2.213   3.198 -0.3499 -0.4231  0.2881
40519SOL    HW126495   5.638   2.266   3.188  1.1770  1.5415 -2.8221
40519SOL    HW226496   5.769   2.260   3.263  0.0602  0.7743 -0.8634
40520SOL     OW26497   1.028  11.410   1.012  0.3738  0.1570 -0.1761
40520SOL    HW126498   0.945  11.369   0.988  0.2083  0.8854 -0.8985
40520SOL    HW226499   1.010  11.459   1.092  0.4463 -0.7547  0.4041
40521SOL     OW26500   8.065   3.268  11.223 -0.3233  0.3513  0.2287
40521SOL    HW126501   8.134   3.314  11.177  0.5167 -0.3751  0.7413
40521SOL    HW226502   7.988   3.326  11.215  0.6097  1.6828  0.5870
40522SOL     OW26503   8.109   1.227   7.819  0.4705  0.0663  0.4549
40522SOL    HW126504   8.073   1.157   7.873  3.2776 -1.0450  1.0629
40522SOL    HW226505   8.093   1.198   7.729  1.1367 -1.1522  0.7032
40523SOL     OW26506   6.931  10.899   9.773  0.4334 -0.1918  0.2550
40523SOL    HW126507   7.021  10.885   9.745  0.5201  1.1381 -0.2165
40523SOL    HW226508   6.911  10.989   9.747 -0.7510 -0.1739  1.1094
40524SOL     OW26509   4.535   9.943   9.459 -0.1544 -0.0751  0.1623
40524SOL    HW126510   4.457   9.991   9.430 -0.6344  0.6279  2.3831
40524SOL    HW226511   4.538   9.959   9.554  1.6171 -1.6773  0.4229
40525SOL     OW26512   7.149   9.714   5.208 -0.3183 -0.5462 -0.1660
40525SOL    HW126513   7.132   9.628   5.170 -0.2653  0.2226 -2.0873
40525SOL    HW226514   7.192   9.762   5.137 -1.0877  1.3103  0.5722
40526SOL     OW26515   3.321   3.432   6.883 -0.0807 -0.1903 -0.0189
40526SOL    HW126516   3.393   3.478   6.840  1.4372  0.1538  2.6092
40526SOL    HW226517   3.363   3.360   6.930 -1.2536  0.4699  2.2176
40527SOL     OW26518   9.170   8.361   4.181  0.1545  0.3971  0.2479
40527SOL    HW126519   9.142   8.344   4.271  0.9923  0.0742  0.4571
40527SOL    HW226520   9.204   8.451   4.184 -2.4487  1.5051 -0.4157
40528SOL     OW26521   0.514   7.955   1.066 -0.1662 -0.3575  0.4643
40528SOL    HW126522   0.609   7.951   1.055 -0.3247 -0.2536 -1.1332
40528SOL    HW226523   0.502   7.986   1.156  1.3229  0.9062  0.2723
40529SOL     OW26524  11.205   3.105   3.459  0.2297 -0.0900  0.5787
40529SOL    HW126525  11.128   3.058   3.491  0.8431 -1.8322 -0.4163
40529SOL    HW226526  11.278   3.046   3.476  1.1037  0.7312 -0.2383
40530SOL     OW26527   5.060   0.482   4.111 -0.3750  0.3569 -0.2875
40530SOL    HW126528   5.065   0.576   4.098 -2.3462  0.8565  1.8407
40530SOL    HW226529   4.966   0.462   4.108 -0.0239 -1.4962 -0.3591
40531SOL     OW26530   4.528  11.549   2.683 -0.4921  0.0257  0.3299
40531SOL    HW126531   4.606  11.505   2.719 -0.7294 -0.2441  0.5259
40531SOL    HW226532   4.555  11.578   2.596  0.2048  0.9966  0.8573
40532SOL     OW26533   2.148   4.388  10.621  0.1447  1.1135 -0.1188
40532SOL    HW126534   2.062   4.405  10.660 -0.5088 -0.2919 -0.8801
40532SOL    HW226535   2.148   4.294  10.602  2.3364  0.8231  0.9923
40533SOL     OW26536  11.145   0.141  11.071  0.2663  0.2430 -0.0232
40533SOL    HW126537  11.092   0.124  11.150  0.3746 -0.8561 -0.1686
40533SOL    HW226538  11.223   0.087  11.083  0.4066  0.2816 -0.7560
40534SOL     OW26539  10.884   9.887   8.758  0.1155  0.6908 -0.0149
40534SOL    HW126540  10.845   9.873   8.844 -0.5504  0.6216 -0.3144
40534SOL    HW226541  10.881   9.801   8.716  0.6382  0.6760 -0.0290
40535SOL     OW26542   4.943   0.484   5.619 -0.0620 -0.0125 -0.1580
40535SOL    HW126543   4.853   0.495   5.650 -0.2697 -1.3400 -0.2368
40535SOL    HW226544   4.968   0.571   5.589 -1.6555  0.1941 -1.0385
40536SOL     OW26545   9.455   9.689   3.743 -0.5518 -0.8206 -0.3536
40536SOL    HW126546   9.412   9.695   3.658 -2.1213  0.7167  0.4910
40536SOL    HW226547   9.429   9.603   3.776 -1.0382 -0.8730 -0.8562
40537SOL     OW26548  10.356   4.800   9.523  0.3198 -0.0896 -0.6026
40537SOL    HW126549  10.340   4.836   9.436 -1.2618 -2.3906 -1.3594
40537SOL    HW226550  10.308   4.858   9.582  3.5915  3.1163 -0.7699
40538SOL     OW26551   0.574   1.214  11.559  0.2722  0.1287 -0.3446
40538SOL    HW126552   0.541   1.160  11.487 -0.6231  0.9905 -0.6034
40538SOL    HW226553   0.665   1.188  11.569  1.3350  1.9044 -3.6835
40539SOL     OW26554   2.855   1.962   9.189 -0.8247  0.3124 -0.8220
40539SOL    HW126555   2.822   1.987   9.275  0.0016  0.4322 -0.5310
40539SOL    HW226556   2.840   1.868   9.183  2.0144 -0.3809  0.8268
40540SOL     OW26557   8.982   5.257   1.621 -0.1752  0.3689 -0.3460
40540SOL    HW126558   8.991   5.293   1.533 -0.4085 -1.6157 -1.2361
40540SOL    HW226559   8.887   5.251   1.634 -0.1445 -0.3587 -0.4203
40541SOL     OW26560   8.574   7.118   1.510 -0.1184 -0.3290 -0.5876
40541SOL    HW126561   8.538   7.185   1.568  0.7709 -1.2153  1.0623
40541SOL    HW226562   8.636   7.164   1.454  0.2576  0.2772  0.3159
40542SOL     OW26563   7.304   1.855  10.669 -0.6613  0.2361 -0.5516
40542SOL    HW126564   7.363   1.835  10.741 -0.2309 -0.1794 -1.0066
40542SOL    HW226565   7.298   1.774  10.619 -0.1666  0.7826 -1.5281
40543SOL     OW26566   3.482   9.863   5.231 -0.2388  0.4375 -0.3361
40543SOL    HW126567   3.472   9.795   5.164  0.9822  0.2595 -0.3720
40543SOL    HW226568   3.458   9.944   5.187  0.8979  0.3733 -1.1360
40544SOL     OW26569   6.126  10.287   7.079 -0.0445 -0.2028 -0.2141
40544SOL    HW126570   6.193  10.270   7.146 -0.0523 -1.2912 -0.4769
40544SOL    HW226571   6.052  10.233   7.105 -1.1659  1.6078  0.5323
40545SOL     OW26572   4.644   1.225   5.804  0.7608  0.1637 -0.2470
40545SOL    HW126573   4.616   1.136   5.782  1.2716 -0.1476  0.3293
40545SOL    HW226574   4.598   1.244   5.886 -0.0170  0.7648 -0.8122
40546SOL     OW26575   9.801   9.707   5.510  0.2738  0.0847  0.1760
40546SOL    HW126576   9.849   9.786   5.484  0.3133  0.0409  0.1170
40546SOL    HW226577   9.827   9.692   5.601 -0.3968  0.6488  0.4740
40547SOL     OW26578   9.900   9.319  11.642 -0.4287  0.1633 -0.0270
40547SOL    HW126579   9.915   9.235  11.599 -1.8786 -0.6674  1.0016
40547SOL    HW226580   9.987   9.360  11.647  0.6729 -2.1533  1.2188
40548SOL     OW26581   3.448   3.041   6.645  0.2576  0.0315 -0.0449
40548SOL    HW126582   3.421   3.123   6.603  0.8395  0.4266  0.3349
40548SOL    HW226583   3.488   3.068   6.728  0.6511 -0.6162 -0.0140
40549SOL     OW26584   7.962  11.634   2.826 -0.0060  0.1195  0.6170
40549SOL    HW126585   8.017  11.673   2.758 -0.3094 -0.7100 -0.1276
40549SOL    HW226586   7.900  11.702   2.850 -1.6102 -0.3372 -1.8369
40550SOL     OW26587   5.985  10.707  10.289  0.2478  0.0790 -0.0707
40550SOL    HW126588   5.902  10.753  10.277 -0.7349 -1.5327  0.2500
40550SOL    HW226589   6.023  10.703  10.201 -0.2591  0.4008 -0.3069
40551SOL     OW26590   6.302   3.762   1.132  0.1723 -0.1196  0.0372
40551SOL    HW126591   6.376   3.770   1.191 -1.7118  0.6437  2.4673
40551SOL    HW226592   6.292   3.668   1.118  2.9420 -0.2122 -2.3507
40552SOL     OW26593   3.374   1.644   0.285  0.1639  0.3903  0.3953
40552SOL    HW126594   3.280   1.636   0.274 -0.0486  1.7411  1.0579
40552SOL    HW226595   3.387   1.732   0.321  1.6842  0.2834  0.1800
40553SOL     OW26596   1.239   1.873   5.440 -0.1693 -0.3425 -0.4202
40553SOL    HW126597   1.180   1.949   5.434 -1.9570 -1.5772  0.5162
40553SOL    HW226598   1.190   1.802   5.398  0.7284 -1.3745  0.2402
40554SOL     OW26599   1.359   9.032   2.494  0.0834 -0.1202 -0.3641
40554SOL    HW126600   1.388   9.058   2.406 -0.2988  0.3268 -0.3581
40554SOL    HW226601   1.395   9.099   2.552 -2.1085  1.2759 -0.5015
40555SOL     OW26602  10.605   8.699   0.758  0.2107 -0.2326  0.2952
40555SOL    HW126603  10.525   8.663   0.719  0.1070  0.1053  0.1907
40555SOL    HW226604  10.574   8.753   0.830 -0.1865  4.1958 -2.7542
40556SOL     OW26605   5.784  11.102  11.565 -0.1102 -0.0051 -0.2386
40556SOL    HW126606   5.771  11.007  11.570  1.9986 -0.4933 -2.3111
40556SOL    HW226607   5.697  11.139  11.581 -1.2107 -2.3339 -0.4788
40557SOL     OW26608  10.055   8.751   6.728 -0.5330  0.0813  0.4774
40557SOL    HW126609  10.044   8.844   6.709  1.7734 -0.1044 -2.6534
40557SOL    HW226610  10.115   8.748   6.802 -0.7354  1.0625  0.6928
40558SOL     OW26611   5.503  11.556   7.773  0.0020  0.2569  0.8319
40558SOL    HW126612   5.560  11.528   7.701 -2.9764 -2.0231 -0.8859
40558SOL    HW226613   5.449  11.625   7.735 -2.3178 -1.6751  0.3113
40559SOL     OW26614   3.958   9.923   8.695  0.5854 -0.4806  0.8321
40559SOL    HW126615   3.960   9.983   8.621 -1.6647 -3.4844 -1.9353
40559SOL    HW226616   3.880   9.948   8.744  1.4053  0.7388  1.5798
40560SOL     OW26617   5.751   9.004   9.504 -0.2835 -0.4784 -0.6247
40560SOL    HW126618   5.782   8.918   9.531 -1.6184 -0.9587 -0.5750
40560SOL    HW226619   5.824   9.063   9.524 -0.4093 -1.1183  2.1485
40561SOL     OW26620   1.323   5.814   1.971 -0.3149 -0.6030  0.1589
40561SOL    HW126621   1.229   5.797   1.963 -0.5664  0.6669  0.2285
40561SOL    HW226622   1.341   5.804   2.065 -0.7637  0.9016  0.4318
40562SOL     OW26623   6.650   6.208   6.435 -0.0959 -0.1117 -0.5038
40562SOL    HW126624   6.705   6.286   6.424 -0.8254  0.8518  2.0281
40562SOL    HW226625   6.581   6.218   6.370 -0.8253  2.0167  0.4995
40563SOL     OW26626   9.048   3.400   8.091 -0.0249 -0.2780  0.2342
40563SOL    HW126627   9.000   3.335   8.041 -0.0984 -0.5737  0.6813
40563SOL    HW226628   8.982   3.447   8.141 -0.2097  1.4489 -1.5009
40564SOL     OW26629  10.809  11.413   6.282 -0.5539 -0.0753  0.0878
40564SOL    HW126630  10.773  11.454   6.361  0.7588  1.6530 -0.1547
40564SOL    HW226631  10.852  11.333   6.314 -0.1582  0.5275  1.1288
40565SOL     OW26632   9.066   9.771   2.843 -0.0182 -0.3033  0.2431
40565SOL    HW126633   8.992   9.822   2.876 -0.1606  0.1745 -0.7815
40565SOL    HW226634   9.039   9.744   2.755 -0.2696 -2.8212  1.0187
40566SOL     OW26635   0.157   6.819   4.668 -0.0338  0.2379 -0.5877
40566SOL    HW126636   0.217   6.811   4.742 -2.2420 -2.3662  1.1396
40566SOL    HW226637   0.194   6.763   4.600 -0.0240 -0.6601  0.1374
40567SOL     OW26638   3.767   8.887   1.045 -0.6832 -0.5602  0.1762
40567SOL    HW126639   3.729   8.799   1.037  1.4519 -1.5871  0.7520
40567SOL    HW226640   3.731   8.921   1.127 -1.3334 -0.9626  0.0731
40568SOL     OW26641   7.051   1.210   8.509 -0.4062  0.2043  0.0467
40568SOL    HW126642   6.972   1.158   8.495 -0.0781 -0.4038  0.3523
40568SOL    HW226643   7.020   1.297   8.532 -0.9693  0.1872 -0.6430
40569SOL     OW26644   2.696  10.841   6.324  0.1514 -0.3929 -0.0403
40569SOL    HW126645   2.668  10.772   6.384  0.3801  0.1388  0.6905
40569SOL    HW226646   2.687  10.802   6.237 -0.9822 -0.8972  0.2795
40570SOL     OW26647   8.853   0.068   9.543  0.1391 -0.4801  0.2115
40570SOL    HW126648   8.926   0.123   9.571 -0.2142  0.2793 -0.2999
40570SOL    HW226649   8.846   0.000   9.610  0.3857  0.2963  1.0446
40571SOL     OW26650   8.318   0.779   5.158 -0.1133  0.0475 -0.8845
40571SOL    HW126651   8.269   0.808   5.235  0.4261 -2.8218  0.6679
40571SOL    HW226652   8.409   0.803   5.177  0.2426 -1.9311  0.1282
40572SOL     OW26653  10.645   6.512   3.450 -0.0992  0.3695 -0.2990
40572SOL    HW126654  10.653   6.439   3.389  0.3131  0.1006  0.0742
40572SOL    HW226655  10.569   6.489   3.504  0.8192 -0.4573  0.6999
40573SOL     OW26656   4.318   2.123   5.595 -0.6117 -0.2677  0.0477
40573SOL    HW126657   4.237   2.173   5.586 -1.3700 -1.6580 -1.1913
40573SOL    HW226658   4.375   2.158   5.527 -1.2605 -1.2391 -1.0409
40574SOL     OW26659   0.573   3.585   6.146  0.2418 -0.3270  0.4982
40574SOL    HW126660   0.488   3.626   6.162 -0.8107 -2.2641  0.1302
40574SOL    HW226661   0.629   3.657   6.116 -0.6570  1.3920  2.6338
40575SOL     OW26662   6.876  10.801   7.112  0.5478 -0.6853  0.2352
40575SOL    HW126663   6.913  10.797   7.024  2.4884 -0.6532  0.9976
40575SOL    HW226664   6.852  10.710   7.132  1.8671 -1.0242  0.3606
40576SOL     OW26665   0.664   2.038   1.432 -0.0865 -0.2461 -0.1308
40576SOL    HW126666   0.620   1.963   1.392  1.1721 -0.7648 -0.5725
40576SOL    HW226667   0.706   2.002   1.511  1.5235 -0.2964 -0.9750
40577SOL     OW26668   4.253   9.488   4.685 -0.4347 -0.4104  0.3914
40577SOL    HW126669   4.266   9.394   4.698  1.3062 -0.1895  0.5541
40577SOL    HW226670   4.261   9.501   4.591  1.4510 -0.2037  0.5333
40578SOL     OW26671   5.560   2.300  10.518 -0.3274  0.0829  0.0006
40578SOL    HW126672   5.508   2.315  10.439 -1.7836 -1.7480  0.5338
40578SOL    HW226673   5.533   2.369  10.578  0.5720  1.3083 -0.9382
40579SOL     OW26674   0.081   1.246   4.420  0.1852 -0.4593 -0.5132
40579SOL    HW126675   0.116   1.161   4.448  0.6476 -0.5246 -1.2514
40579SOL    HW226676   0.114   1.257   4.331 -0.9300 -0.0892 -0.9017
40580SOL     OW26677   7.062   2.034   6.901  0.0419  0.0103  0.6064
40580SOL    HW126678   7.022   1.994   6.823 -1.2878  0.7906  0.8560
40580SOL    HW226679   7.146   2.069   6.871 -1.6346  2.8296 -1.2363
40581SOL     OW26680   0.110   6.581   9.516  0.2799  0.4261 -0.0006
40581SOL    HW126681   0.084   6.522   9.586 -1.1597  1.9066  0.7944
40581SOL    HW226682   0.093   6.533   9.435  0.9055 -0.8863  0.6230
40582SOL     OW26683   0.761   8.392   2.270 -0.2893  0.0900 -0.1353
40582SOL    HW126684   0.764   8.476   2.224  2.5035  0.6572  0.9018
40582SOL    HW226685   0.679   8.395   2.319 -0.6116  1.8881 -0.7163
40583SOL     OW26686   1.209   9.701   5.169 -0.3761 -0.1867  0.1823
40583SOL    HW126687   1.260   9.734   5.243  0.8663 -0.6885 -0.4326
40583SOL    HW226688   1.232   9.609   5.163  0.9705  0.2388 -1.9632
40584SOL     OW26689   9.579   6.549   6.329  0.5263 -0.2188  0.3098
40584SOL    HW126690   9.515   6.518   6.266  0.8488  1.0170 -0.6508
40584SOL    HW226691   9.662   6.549   6.281  0.6398  1.5208  0.4423
40585SOL     OW26692   7.984   1.312   6.119  0.1809  0.5135  0.4693
40585SOL    HW126693   8.029   1.359   6.189 -0.0925  0.7399  0.4943
40585SOL    HW226694   7.893   1.307   6.148  0.1011  0.4541  0.2126
40586SOL     OW26695   0.838   8.658  10.598  0.7029 -0.2286  0.2018
40586SOL    HW126696   0.905   8.647  10.665  0.0939  0.9374  1.0292
40586SOL    HW226697   0.840   8.751  10.576  0.1995 -0.4093 -0.6737
40587SOL     OW26698   0.145  11.231   9.042  0.6396  0.3469  0.3175
40587SOL    HW126699   0.192  11.160   8.999  0.6874  0.7741 -0.3620
40587SOL    HW226700   0.151  11.304   8.980 -2.3399 -0.0602 -0.6390
40588SOL     OW26701   6.879   3.396   3.328  0.4028 -0.8349 -0.2979
40588SOL    HW126702   6.926   3.374   3.247 -0.1629 -0.5022 -0.7246
40588SOL    HW226703   6.948   3.406   3.393  1.0000  0.2902 -1.0585
40589SOL     OW26704   1.393  11.032   2.268  0.4464  0.8278 -0.3102
40589SOL    HW126705   1.415  11.034   2.175 -0.2888 -0.4161 -0.5292
40589SOL    HW226706   1.477  11.044   2.313  1.2605 -1.3151 -1.1292
40590SOL     OW26707   1.491   8.943   8.783  0.2644  0.0236  0.1874
40590SOL    HW126708   1.461   8.971   8.869 -0.7960  1.3413 -0.5636
40590SOL    HW226709   1.528   9.022   8.744 -0.1765 -0.2973 -0.9279
40591SOL     OW26710   9.527   6.957   1.108 -0.0916 -0.0941 -0.0416
40591SOL    HW126711   9.497   7.023   1.170  1.6373  0.9121 -0.2286
40591SOL    HW226712   9.447   6.927   1.064 -0.8688  2.2658 -0.3456
40592SOL     OW26713   0.268   9.685  11.297 -0.1566  0.2645 -0.1390
40592SOL    HW126714   0.360   9.664  11.309 -0.4618 -0.3138  1.5979
40592SOL    HW226715   0.224   9.600  11.297 -0.7553  0.5677 -0.2232
40593SOL     OW26716   7.806   1.134   4.985  0.0618 -0.5166 -0.0749
40593SOL    HW126717   7.720   1.101   5.012  0.0787  0.8179  1.8094
40593SOL    HW226718   7.788   1.187   4.908 -1.0435  0.7053  0.9655
40594SOL     OW26719   4.206   9.061  10.436 -0.0127  0.4467  0.4682
40594SOL    HW126720   4.254   9.126  10.487 -0.4623  0.7231  0.5434
40594SOL    HW226721   4.162   9.112  10.368  0.7169  0.0638 -0.3099
40595SOL     OW26722   5.288   4.633  10.005  0.0944  0.8162  0.8278
40595SOL    HW126723   5.362   4.618  10.063  0.1848  0.4821  0.6288
40595SOL    HW226724   5.313   4.590   9.923 -0.1800  0.9833  0.6548
40596SOL     OW26725   8.126   0.317   5.107  0.0201 -0.3128 -0.1423
40596SOL    HW126726   8.046   0.326   5.056 -0.7509 -1.1008  0.8727
40596SOL    HW226727   8.180   0.256   5.057 -0.9258 -1.4598  0.1971
40597SOL     OW26728  11.601   1.442   1.953 -0.1239 -0.0288 -0.5507
40597SOL    HW126729  11.664   1.512   1.933 -0.0037 -0.4242 -1.6455
40597SOL    HW226730  11.515   1.483   1.941 -0.0732  0.2945  0.1585
40598SOL     OW26731   5.424  11.141  11.585  0.3567  0.3517 -0.2424
40598SOL    HW126732   5.376  11.211  11.628  1.0621 -0.1112  1.3612
40598SOL    HW226733   5.378  11.061  11.611  0.7601  0.0656 -0.3979
40599SOL     OW26734   4.381   0.431   7.583 -0.0847  0.2008 -0.0861
40599SOL    HW126735   4.292   0.402   7.563 -0.5810  1.6866 -0.1967
40599SOL    HW226736   4.435   0.353   7.570 -1.1211 -0.2861 -1.8699
40600SOL     OW26737   8.683   4.590   8.685 -0.2372  0.1529  0.4202
40600SOL    HW126738   8.641   4.652   8.625  0.8241  0.8821  0.3968
40600SOL    HW226739   8.753   4.640   8.726 -0.1698 -0.6833  1.3758
40601SOL     OW26740   3.851   5.685   6.279  0.0947 -0.7105 -0.1941
40601SOL    HW126741   3.873   5.608   6.331  0.6991  0.6073  1.6316
40601SOL    HW226742   3.932   5.707   6.233  0.3648 -0.3220  0.4559
40602SOL     OW26743   7.793   4.185   0.653  0.2042  0.3740  0.1633
40602SOL    HW126744   7.830   4.097   0.653 -0.4090  0.0923  1.5709
40602SOL    HW226745   7.849   4.235   0.594  2.0440 -0.3371  1.2554
40603SOL     OW26746   2.815   1.211   5.422  0.2407  0.2606 -0.5818
40603SOL    HW126747   2.813   1.259   5.505  2.0419  1.2056 -1.0411
40603SOL    HW226748   2.741   1.245   5.372  0.2759  1.0752 -0.0913
40604SOL     OW26749   6.520   5.398   1.635  0.3807 -0.3698 -0.0036
40604SOL    HW126750   6.480   5.473   1.679 -0.3304 -0.3369 -0.6868
40604SOL    HW226751   6.477   5.322   1.674  0.3181 -0.3732 -0.0786
40605SOL     OW26752   6.475   2.418   3.322 -0.2410 -0.2944  0.4585
40605SOL    HW126753   6.541   2.382   3.380  0.6966 -0.1653 -0.4959
40605SOL    HW226754   6.524   2.473   3.261 -1.0423 -1.1952 -1.0684
40606SOL     OW26755  11.376   3.213   1.866 -0.6602  0.0469 -0.3241
40606SOL    HW126756  11.383   3.273   1.791 -2.3355  1.4941  0.6047
40606SOL    HW226757  11.433   3.140   1.843  2.3443  2.3948 -1.0839
40607SOL     OW26758   4.280   5.044   0.543 -0.0770 -0.2227 -0.0189
40607SOL    HW126759   4.364   5.077   0.576 -0.6676 -0.3439  1.6890
40607SOL    HW226760   4.293   5.037   0.449  2.4215 -1.9010  0.3542
40608SOL     OW26761   5.456   7.015   0.401  0.4568  0.1393 -0.1371
40608SOL    HW126762   5.497   6.930   0.382  1.1709  0.8059 -1.7317
40608SOL    HW226763   5.398   7.031   0.326 -1.0784  0.2556  1.0198
40609SOL     OW26764   9.833   8.092   3.273 -0.4206  0.0040  0.1572
40609SOL    HW126765   9.909   8.126   3.225 -1.5139  1.5472 -0.5686
40609SOL    HW226766   9.857   8.104   3.365  0.9415 -1.2656  0.0060
40610SOL     OW26767   8.233   9.093   1.086 -0.1439 -0.3628  0.1023
40610SOL    HW126768   8.236   9.021   1.149 -1.1389 -0.7056 -0.2125
40610SOL    HW226769   8.248   9.051   1.001 -0.9229 -0.2526 -0.1037
40611SOL     OW26770   4.178   2.947   7.946  0.1635 -0.2583  0.4454
40611SOL    HW126771   4.209   2.978   7.861  0.8186  0.4910  0.9388
40611SOL    HW226772   4.092   2.987   7.957  0.3437  0.1531  0.3933
40612SOL     OW26773   4.909   8.599   9.963  0.0515 -0.3920 -0.5253
40612SOL    HW126774   4.899   8.505   9.945 -0.6124 -0.3584 -0.3609
40612SOL    HW226775   4.975   8.628   9.901 -1.2189 -0.5513 -2.0238
40613SOL     OW26776   2.762   6.986   5.471 -0.2112 -0.1432  0.0853
40613SOL    HW126777   2.838   7.011   5.522  1.1544 -1.0799 -1.4020
40613SOL    HW226778   2.794   6.979   5.381 -2.0370 -0.6155 -0.5794
40614SOL     OW26779   4.167   9.914   4.278  0.3022  0.3090 -0.5829
40614SOL    HW126780   4.132   9.825   4.275  1.3303 -0.1224 -0.2767
40614SOL    HW226781   4.094   9.969   4.252 -0.1822 -0.6701 -1.3677
40615SOL     OW26782   0.678  11.099   1.201 -0.8431 -0.3382 -0.1741
40615SOL    HW126783   0.767  11.120   1.172 -1.4890  1.1236 -1.2556
40615SOL    HW226784   0.672  11.003   1.192  0.7949 -0.5358  0.5276
40616SOL     OW26785   7.562  10.528   8.943 -0.2330 -0.3807 -0.1294
40616SOL    HW126786   7.592  10.533   9.033  1.6261 -0.5831 -0.6824
40616SOL    HW226787   7.633  10.484   8.896 -0.9113  0.1795 -1.7862
40617SOL     OW26788   6.799   6.643   7.129 -0.0736  0.4399  0.0253
40617SOL    HW126789   6.791   6.548   7.129  1.9110  0.2227 -0.8041
40617SOL    HW226790   6.777   6.669   7.219 -0.5272 -0.7985  0.2856
40618SOL     OW26791   8.211   9.479   7.994 -0.0586 -0.5655  0.0597
40618SOL    HW126792   8.259   9.404   8.028 -0.4111 -0.2473  1.3223
40618SOL    HW226793   8.224   9.476   7.899  2.4941 -0.4605  0.3380
40619SOL     OW26794   3.922   9.203   2.636  0.0525 -0.1158 -0.3175
40619SOL    HW126795   3.998   9.163   2.678 -0.0563 -1.0557 -0.9854
40619SOL    HW226796   3.864   9.227   2.708 -0.0035 -1.4466  0.1083
40620SOL     OW26797   1.310  10.690   7.483 -0.2542 -0.0837 -0.3557
40620SOL    HW126798   1.325  10.617   7.423  1.4054  0.9244 -1.2306
40620SOL    HW226799   1.297  10.766   7.426  0.3660  0.7180  0.5418
40621SOL     OW26800   4.875   7.046   6.020 -0.1989  0.0806 -0.2155
40621SOL    HW126801   4.854   7.135   5.992  1.8738  0.8543  0.4697
40621SOL    HW226802   4.841   7.040   6.109 -1.8101 -0.4338 -0.8295
40622SOL     OW26803   2.692   1.833   3.590 -0.4595 -0.4641  0.3280
40622SOL    HW126804   2.703   1.778   3.513 -0.5549 -1.2925  0.8967
40622SOL    HW226805   2.599   1.856   3.591 -0.6005 -1.0346  0.5804
40623SOL     OW26806   8.070   1.958   9.202  0.1885  0.4948 -0.2873
40623SOL    HW126807   7.984   1.936   9.238  0.1527 -0.4677 -0.9093
40623SOL    HW226808   8.062   1.941   9.108  0.8117  1.2247 -0.4814
40624SOL     OW26809   5.177   2.402   0.316  0.3519 -0.1321 -0.3078
40624SOL    HW126810   5.224   2.485   0.312 -1.3659  0.8252 -2.6461
40624SOL    HW226811   5.197   2.359   0.233 -0.2923 -1.2015  0.0655
40625SOL     OW26812   8.930   6.776  10.080  0.9349  1.4864 -0.4177
40625SOL    HW126813   8.915   6.809  10.168  0.5216 -2.1968  1.0595
40625SOL    HW226814   8.990   6.702  10.091 -1.1708 -0.7995 -2.7616
40626SOL     OW26815   0.491   6.994   4.306  0.6000  0.4298  0.3669
40626SOL    HW126816   0.482   6.906   4.271  0.1813 -0.6192  2.8799
40626SOL    HW226817   0.584   7.001   4.328  0.8715  1.0997 -0.9044
40627SOL     OW26818   8.842   9.339   2.908  0.3244  0.2498 -0.9242
40627SOL    HW126819   8.865   9.383   2.990  1.7539 -0.7674 -0.7571
40627SOL    HW226820   8.747   9.327   2.914  0.5681 -1.1043  1.2670
40628SOL     OW26821  11.519   2.155   1.130 -0.0765  0.6981  0.7924
40628SOL    HW126822  11.589   2.089   1.131 -0.5173  0.2120  0.4003
40628SOL    HW226823  11.454   2.119   1.070 -0.2083  1.6256  0.3614
40629SOL     OW26824   5.695   4.822   7.229  0.2175  0.5052 -0.8823
40629SOL    HW126825   5.674   4.779   7.312  0.5305  2.0977  0.0722
40629SOL    HW226826   5.764   4.884   7.252  0.7260  0.5707 -2.4759
40630SOL     OW26827   6.835   9.341   6.953 -0.2006 -0.4125 -0.5248
40630SOL    HW126828   6.922   9.340   6.992 -0.1073 -1.5322 -0.7208
40630SOL    HW226829   6.845   9.291   6.872 -0.7292  0.5966 -1.2287
40631SOL     OW26830   5.413  10.119   9.519  0.2154 -0.7478  0.3538
40631SOL    HW126831   5.434  10.212   9.515 -2.0391 -0.2051 -1.6184
40631SOL    HW226832   5.488  10.075   9.479 -0.0348  0.5754 -1.7046
40632SOL     OW26833  11.685   0.459   9.466  0.8899 -0.0516  0.5448
40632SOL    HW126834  11.769   0.462   9.512  1.5122 -0.3934 -0.5330
40632SOL    HW226835  11.646   0.375   9.492  0.9281  0.0497  0.9432
40633SOL     OW26836   0.940  11.531   3.137  0.3910  0.0815  0.4370
40633SOL    HW126837   1.014  11.530   3.198  0.8730 -1.8425 -0.0859
40633SOL    HW226838   0.863  11.520   3.192  0.3164  3.0776  1.0909
40634SOL     OW26839  11.355   2.319   4.943 -0.5070  0.0969 -0.1591
40634SOL    HW126840  11.441   2.293   4.978 -0.9622 -0.5636  0.4774
40634SOL    HW226841  11.363   2.305   4.848  0.0119 -0.1969 -0.0787
40635SOL     OW26842  11.383   3.558   2.777  0.6731  0.5012  0.5316
40635SOL    HW126843  11.445   3.523   2.713 -0.6148  0.6341 -0.8317
40635SOL    HW226844  11.427   3.546   2.861  2.4376  0.3765 -0.3609
40636SOL     OW26845   1.664   6.891   7.738  0.1917  0.4290  0.1782
40636SOL    HW126846   1.675   6.872   7.831 -2.6449 -0.0755  0.5089
40636SOL    HW226847   1.646   6.985   7.735 -0.2474  0.3450  0.1958
40637SOL     OW26848   9.641   8.767  10.529 -0.1632 -0.0139  0.6376
40637SOL    HW126849   9.550   8.765  10.557 -0.1852 -0.8287  0.5497
40637SOL    HW226850   9.667   8.858  10.536 -0.3992 -0.0473  2.5962
40638SOL     OW26851   0.365   9.647   1.371  0.1904  0.4697  0.8392
40638SOL    HW126852   0.369   9.565   1.322  0.3827  1.7227 -1.3479
40638SOL    HW226853   0.453   9.657   1.408  1.2600  1.2591 -1.6899
40639SOL     OW26854   4.534   6.632   6.812  0.0309  0.2737 -0.0090
40639SOL    HW126855   4.443   6.602   6.813 -0.4172  1.3416  3.0322
40639SOL    HW226856   4.585   6.555   6.836 -0.2853  0.1358  0.2337
40640SOL     OW26857   2.152  11.188  10.259  0.1396 -0.3109  0.5414
40640SOL    HW126858   2.099  11.266  10.270  1.6834  1.1667 -1.7185
40640SOL    HW226859   2.121  11.149  10.178 -0.0679 -1.6511  1.2310
40641SOL     OW26860   1.286   1.866   9.471 -0.6135  0.4925 -0.1771
40641SOL    HW126861   1.286   1.960   9.486  0.7372  0.5794 -0.5252
40641SOL    HW226862   1.358   1.833   9.526  0.3079 -0.0287 -1.6389
40642SOL     OW26863   6.489   1.912   0.872 -0.3243  0.1758 -0.2611
40642SOL    HW126864   6.416   1.944   0.818  0.6359  0.5515 -1.3838
40642SOL    HW226865   6.566   1.920   0.815  0.9029  1.4741  1.5000
40643SOL     OW26866   8.079  10.965   3.920  0.5458 -0.8378  0.1211
40643SOL    HW126867   8.043  10.892   3.871 -0.6874 -0.9197  1.0909
40643SOL    HW226868   8.057  11.042   3.867  0.4296 -1.0330 -0.1169
40644SOL     OW26869   6.962   1.385  11.260  0.8390  0.1800  0.2602
40644SOL    HW126870   7.008   1.416  11.182  2.0516 -0.7094  0.5860
40644SOL    HW226871   7.023   1.403  11.332  0.0857  0.2213  0.8966
40645SOL     OW26872  11.557   8.092   8.812  0.1455 -0.8856  0.0775
40645SOL    HW126873  11.471   8.069   8.779 -0.2542 -1.8398  1.6549
40645SOL    HW226874  11.541   8.155   8.883  0.7637 -0.7707  0.1278
40646SOL     OW26875   4.488   0.089   0.550  0.2231  0.0589  0.4908
40646SOL    HW126876   4.495   0.083   0.455  0.0611  0.7695  0.4298
40646SOL    HW226877   4.479   0.183   0.568  1.9123  0.0995  1.3228
40647SOL     OW26878  10.141  10.233   6.745  0.2887  0.3146 -0.2585
40647SOL    HW126879  10.199  10.253   6.818 -0.2265 -1.1321  0.5939
40647SOL    HW226880  10.077  10.305   6.745 -0.8228 -0.5642  1.9527
40648SOL     OW26881   1.949   9.961   0.672 -0.0454 -0.4760  0.7934
40648SOL    HW126882   1.876   9.926   0.620  0.3860 -2.8835  1.7226
40648SOL    HW226883   1.913   9.971   0.760  0.3958 -0.3680  0.9634
40649SOL     OW26884  10.305   3.240   1.514 -0.4209 -0.0175  0.5044
40649SOL    HW126885  10.293   3.153   1.553 -0.7232 -0.5464 -0.7271
40649SOL    HW226886  10.342   3.293   1.585  0.2223 -1.2766  1.1441
40650SOL     OW26887   1.335   0.182  10.932  0.3171  0.3746  0.0603
40650SOL    HW126888   1.378   0.161  11.015 -1.9426 -3.0176  0.6090
40650SOL    HW226889   1.334   0.277  10.929  0.5407  0.6840  3.9688
40651SOL     OW26890   8.361   8.203   9.488 -0.0225 -0.1334  0.0693
40651SOL    HW126891   8.396   8.291   9.503 -0.3778 -0.0919  0.6757
40651SOL    HW226892   8.382   8.184   9.396 -0.0058  0.6061 -0.0831
40652SOL     OW26893   9.952   6.185   0.289 -0.3508 -0.6209 -0.3932
40652SOL    HW126894  10.021   6.166   0.352 -0.5713 -0.1971 -0.0166
40652SOL    HW226895   9.966   6.276   0.265 -0.3139 -0.7593 -0.9035
40653SOL     OW26896   5.022   0.162   7.481  0.3070 -0.1138 -0.1807
40653SOL    HW126897   4.943   0.170   7.533  0.0260 -0.0046 -0.6152
40653SOL    HW226898   5.073   0.093   7.524  0.5752  0.7055  0.8460
40654SOL     OW26899   6.192   4.020   5.091  0.1655 -0.7206  0.5275
40654SOL    HW126900   6.245   4.013   5.170  0.8316 -1.3474  0.0469
40654SOL    HW226901   6.184   4.114   5.075 -2.1573 -0.4499  2.7399
40655SOL     OW26902   5.675   7.053   4.964  0.1152 -0.8976  0.1337
40655SOL    HW126903   5.609   7.121   4.951  0.9172 -0.0929  0.1511
40655SOL    HW226904   5.722   7.048   4.881  1.0731 -0.3024  0.6207
40656SOL     OW26905   1.208   5.745   0.327  0.0749 -0.0803  0.0361
40656SOL    HW126906   1.212   5.684   0.401  1.0819  0.5288  0.5078
40656SOL    HW226907   1.259   5.821   0.356 -1.5452  1.2007 -0.3546
40657SOL     OW26908   5.159  11.275   2.978 -0.0301 -0.4390  0.2705
40657SOL    HW126909   5.093  11.337   2.948  0.6935  0.9132  1.3605
40657SOL    HW226910   5.109  11.200   3.009 -0.9574 -0.1567 -0.4939
40658SOL     OW26911   4.364   2.975   6.465  0.3199  0.0024 -0.3616
40658SOL    HW126912   4.453   2.992   6.436 -0.1407  1.5625 -0.9604
40658SOL    HW226913   4.343   3.047   6.524 -0.4023 -0.5762  0.1075
40659SOL     OW26914   4.922   4.901   8.096  0.0353 -0.0165 -0.4016
40659SOL    HW126915   4.831   4.912   8.071 -0.4257 -0.9099  0.8262
40659SOL    HW226916   4.920   4.884   8.190  1.5056  0.4133 -0.2634
40660SOL     OW26917   2.459   0.852  10.759 -0.2134  0.2934  0.2517
40660SOL    HW126918   2.428   0.939  10.733 -1.4402  0.0113  0.7423
40660SOL    HW226919   2.422   0.838  10.845  1.5728  0.0679  1.0249
40661SOL     OW26920   1.724   4.830   2.090 -0.3637  0.3855 -0.1176
40661SOL    HW126921   1.743   4.851   1.998  0.3814  1.3372  0.2442
40661SOL    HW226922   1.641   4.783   2.086 -0.9606  1.4632 -1.1725
40662SOL     OW26923   4.081   5.093  10.944 -0.2456 -0.3171 -0.4830
40662SOL    HW126924   4.095   5.031  10.873 -1.5021 -1.0860 -0.0914
40662SOL    HW226925   4.155   5.079  11.003  0.3770 -0.2375 -1.2284
40663SOL     OW26926   7.214   5.198  10.174  0.2469 -0.7398  0.3676
40663SOL    HW126927   7.169   5.264  10.226  1.2090 -0.7533  1.2434
40663SOL    HW226928   7.300   5.235  10.158  0.6303 -1.5796  0.4542
40664SOL     OW26929   4.504   4.757   9.327 -0.2378 -0.2995 -0.1305
40664SOL    HW126930   4.532   4.697   9.395 -0.5117 -0.3156 -0.0300
40664SOL    HW226931   4.576   4.819   9.318  0.4610 -1.1855 -0.8934
40665SOL     OW26932   7.950   7.956   0.413 -0.4996  0.5266  0.0014
40665SOL    HW126933   7.893   7.889   0.452 -0.2797  0.0639 -0.4706
40665SOL    HW226934   7.982   8.006   0.488  1.1319 -1.2918  0.5781
40666SOL     OW26935  11.347   9.964  10.259  0.2059  0.1019  0.0584
40666SOL    HW126936  11.262   9.920  10.267  0.6811 -0.7414  0.5895
40666SOL    HW226937  11.325  10.057  10.254 -0.7108 -0.0465  0.9483
40667SOL     OW26938   9.923   7.844  11.431  0.4111 -0.0327 -0.4207
40667SOL    HW126939   9.862   7.917  11.419 -0.2427 -0.5881 -0.4755
40667SOL    HW226940   9.868   7.767  11.439  1.1437 -0.7871 -2.2301
40668SOL     OW26941   8.586   9.646   6.629 -0.2190 -0.6525  0.0758
40668SOL    HW126942   8.669   9.608   6.602  0.0358  0.2318 -0.4107
40668SOL    HW226943   8.526   9.628   6.557 -0.5165 -1.4645  0.5116
40669SOL     OW26944   1.774   9.498   3.456  0.4439  0.1238  0.4153
40669SOL    HW126945   1.721   9.500   3.376  0.4495  1.6605  0.4169
40669SOL    HW226946   1.827   9.577   3.451  0.6341  0.1050  1.8202
40670SOL     OW26947   4.283  10.527   5.874 -0.3651  0.4864 -0.6336
40670SOL    HW126948   4.237  10.466   5.818  0.1476 -0.2416 -0.2824
40670SOL    HW226949   4.218  10.593   5.897 -2.8838 -2.9839  3.7785
40671SOL     OW26950   2.035   8.342   3.999  0.1536  0.6080 -0.0002
40671SOL    HW126951   2.031   8.437   3.996 -2.9637  0.6161  0.4154
40671SOL    HW226952   1.944   8.315   4.011  0.9485 -2.4349  0.0577
40672SOL     OW26953   4.665   5.979   5.346  0.0002 -0.0561  0.2381
40672SOL    HW126954   4.573   6.007   5.342 -0.0208  0.0353  1.2615
40672SOL    HW226955   4.714   6.061   5.343  0.1069 -0.1462 -1.4130
40673SOL     OW26956   9.229   5.610   8.277  0.0096  0.1273 -0.1712
40673SOL    HW126957   9.134   5.613   8.262 -0.2022 -0.8096  0.8097
40673SOL    HW226958   9.267   5.594   8.191 -0.9408 -2.4278 -0.1939
40674SOL     OW26959   1.380   6.666   9.108 -0.1563  0.1955 -0.4442
40674SOL    HW126960   1.405   6.628   9.024 -0.0030 -2.8961  0.8767
40674SOL    HW226961   1.326   6.742   9.085 -0.9057 -1.0809 -3.3147
40675SOL     OW26962   4.633   8.346   9.379  0.7986 -0.5951 -0.0433
40675SOL    HW126963   4.727   8.352   9.360  0.9535  0.1366  0.8653
40675SOL    HW226964   4.602   8.436   9.381  0.2655 -0.7785  0.5385
40676SOL     OW26965   2.380   9.404   0.425 -0.1110  0.0380  0.4204
40676SOL    HW126966   2.392   9.425   0.333 -0.3047 -3.2172 -0.4698
40676SOL    HW226967   2.457   9.350   0.448 -1.1370 -1.0496  1.4795
40677SOL     OW26968  10.066   7.230   1.737  0.2486  0.6003  0.2264
40677SOL    HW126969  10.053   7.296   1.668  1.4387  2.0119  1.2977
40677SOL    HW226970  10.062   7.279   1.819  0.8781 -0.7158  1.0834
40678SOL     OW26971   0.030   4.015   1.975  0.2261 -0.4368 -0.1639
40678SOL    HW126972   0.050   4.076   1.904  0.3137 -0.7016 -0.3733
40678SOL    HW226973   0.035   3.928   1.933  1.2281 -0.6582  0.3715
40679SOL     OW26974  10.074   6.084   5.101  0.4205 -0.0473 -0.1781
40679SOL    HW126975  10.114   6.104   5.016  1.5123  0.3778  0.4021
40679SOL    HW226976  10.149   6.072   5.159 -0.3176  0.0282  0.8053
40680SOL     OW26977   8.916  11.530   0.245 -0.6205 -0.3310  0.2834
40680SOL    HW126978   8.881  11.618   0.238  0.9746  0.5297  2.2066
40680SOL    HW226979   8.871  11.492   0.321  0.6075 -0.1529  1.1352
40681SOL     OW26980   5.315   0.855   7.717  0.2111  0.0320  0.4791
40681SOL    HW126981   5.283   0.883   7.803  0.0831 -0.2244  0.5169
40681SOL    HW226982   5.334   0.762   7.728  0.7189  0.1214  0.3793
40682SOL     OW26983   0.782   9.188   2.557  0.0494  0.2038  0.3047
40682SOL    HW126984   0.786   9.114   2.618 -0.1714  0.7856  1.0441
40682SOL    HW226985   0.862   9.182   2.506 -0.6204 -1.3822 -0.6462
40683SOL     OW26986   2.499  10.496   2.376 -0.1259  0.3836 -0.2858
40683SOL    HW126987   2.440  10.421   2.380 -0.4185  0.4715 -2.1869
40683SOL    HW226988   2.586  10.458   2.384 -0.3293  0.0594  0.5875
40684SOL     OW26989   6.629   1.259   6.769 -0.0713  0.0351 -0.0319
40684SOL    HW126990   6.640   1.345   6.729 -1.5846  0.0644 -0.4615
40684SOL    HW226991   6.539   1.234   6.747  0.7787 -2.3227 -1.2427
40685SOL     OW26992   3.776  11.050   4.650 -0.3007 -0.4815  0.2170
40685SOL    HW126993   3.732  11.134   4.634  0.8916  0.3958  1.3300
40685SOL    HW226994   3.709  10.984   4.633 -0.9427  0.6272 -1.8231
40686SOL     OW26995   0.823  11.237   0.821  0.3002  0.6679 -0.2351
40686SOL    HW126996   0.822  11.156   0.770 -1.9665 -0.2307  1.0774
40686SOL    HW226997   0.777  11.300   0.765  0.2236  0.4617 -0.4080
40687SOL     OW26998   2.348   2.328  11.347 -0.2347  0.1777  0.0860
40687SOL    HW126999   2.317   2.397  11.405 -0.8752  0.0239 -0.0621
40687SOL    HW227000   2.364   2.252  11.404 -0.3206  0.1972  0.1351
40688SOL     OW27001   3.372   8.747  11.473  0.6044 -0.0914 -0.9664
40688SOL    HW127002   3.403   8.672  11.523 -0.6109 -0.8304 -1.2747
40688SOL    HW227003   3.361   8.714  11.384 -0.8403  0.1716 -0.9100
40689SOL     OW27004   8.338   2.956   8.237 -0.2158 -0.6584  0.3259
40689SOL    HW127005   8.351   2.959   8.142 -2.3437  0.5424  0.0042
40689SOL    HW227006   8.345   3.047   8.265 -1.7891 -0.6765  0.9290
40690SOL     OW27007   4.455   7.334   5.636 -0.1096 -0.3319 -0.4797
40690SOL    HW127008   4.474   7.373   5.721 -3.3105  0.2251  0.1074
40690SOL    HW227009   4.492   7.246   5.640  3.8497  1.1683 -0.3564
40691SOL     OW27010   8.039   9.596   7.750 -0.0390 -0.3066  0.1833
40691SOL    HW127011   7.966   9.657   7.761  1.2322  1.1913  0.7286
40691SOL    HW227012   8.004   9.512   7.778 -1.4094  0.4505  0.8837
40692SOL     OW27013   4.035   8.145   8.243  1.1274 -0.0696 -0.2086
40692SOL    HW127014   4.078   8.115   8.162  2.6153  0.2517  0.4273
40692SOL    HW227015   3.990   8.225   8.217  1.9258  0.2531 -0.6567
40693SOL     OW27016   7.384   3.438   2.542 -0.4802 -0.4500  0.6937
40693SOL    HW127017   7.392   3.493   2.465 -1.2405 -0.8595  0.3086
40693SOL    HW227018   7.293   3.410   2.543 -0.1948 -1.4418  1.0510
40694SOL     OW27019  10.880  10.895   4.952  0.1876 -0.3718  0.7346
40694SOL    HW127020  10.836  10.814   4.979  1.5219 -1.6700 -0.7948
40694SOL    HW227021  10.972  10.870   4.941  0.2739  0.7878 -1.8580
40695SOL     OW27022   2.933   4.276   8.069 -0.3416  0.1572 -0.2869
40695SOL    HW127023   2.945   4.359   8.114  2.0100 -0.2203 -0.0746
40695SOL    HW227024   2.853   4.239   8.106  1.0013  0.2584  3.0356
40696SOL     OW27025   3.321   0.198   0.631 -0.3808 -0.0634 -0.2373
40696SOL    HW127026   3.275   0.282   0.631 -1.8641 -0.8530  0.1553
40696SOL    HW227027   3.394   0.210   0.693 -0.6286  0.8940 -0.1245
40697SOL     OW27028   2.699   2.474   2.116 -0.1733 -0.0078 -0.1348
40697SOL    HW127029   2.772   2.485   2.056  1.3461 -1.0666  1.4146
40697SOL    HW227030   2.628   2.439   2.062  0.9996 -0.5554 -1.3800
40698SOL     OW27031  10.282  11.032  10.968  0.8932  0.5907 -0.2221
40698SOL    HW127032  10.318  11.062  11.052  0.3582 -2.4008  1.2073
40698SOL    HW227033  10.213  10.970  10.992  0.0992  0.3019 -2.9053
40699SOL     OW27034   8.237  10.791   3.264 -0.3528 -0.4477 -0.7731
40699SOL    HW127035   8.321  10.771   3.222  1.0412  1.2393  1.0397
40699SOL    HW227036   8.236  10.736   3.343 -0.4186  0.3260 -0.2236
40700SOL     OW27037  10.472   7.533   1.846 -0.4385 -0.5699 -0.5124
40700SOL    HW127038  10.510   7.454   1.884 -0.4322 -0.5111 -0.3998
40700SOL    HW227039  10.380   7.530   1.872  0.1757  1.0989  2.2162
40701SOL     OW27040   9.065   5.991   5.460 -0.0917 -0.1879  0.4013
40701SOL    HW127041   9.079   6.026   5.548 -1.2744  0.0536  0.5203
40701SOL    HW227042   8.997   6.048   5.423 -0.3354 -0.9084 -0.2918
40702SOL     OW27043  10.688   6.041   5.897  0.8303 -0.0713  1.1010
40702SOL    HW127044  10.633   6.033   5.819 -0.2056 -0.9968  1.9043
40702SOL    HW227045  10.734   6.124   5.885 -0.1396  0.3383  0.0359
40703SOL     OW27046   5.081   7.440   5.293 -0.1261 -0.6179 -0.3611
40703SOL    HW127047   5.124   7.524   5.304 -2.1295  0.2731  1.7727
40703SOL    HW227048   5.045   7.442   5.205  1.4503 -0.0706 -1.0161
40704SOL     OW27049   0.146   0.706   2.477  0.6716  0.2560  0.0122
40704SOL    HW127050   0.230   0.695   2.522  0.6370  0.6112  0.1678
40704SOL    HW227051   0.157   0.659   2.395  1.1657  0.6226 -0.1443
40705SOL     OW27052   4.473  11.262  10.677 -0.4926  0.4756 -0.1944
40705SOL    HW127053   4.386  11.237  10.647 -0.4607  1.1844 -0.9218
40705SOL    HW227054   4.468  11.261  10.772 -1.8195  2.2139 -0.2103
40706SOL     OW27055   4.329   4.415   7.975  0.1067 -0.1464  0.1941
40706SOL    HW127056   4.404   4.454   7.929 -1.0374  0.6574 -1.0429
40706SOL    HW227057   4.254   4.469   7.949 -0.6010  0.4450  3.0912
40707SOL     OW27058   6.000   0.133   9.246 -0.0914  0.0910  0.1409
40707SOL    HW127059   5.952   0.116   9.327 -1.4528  0.1835 -0.6067
40707SOL    HW227060   6.051   0.212   9.264 -0.8693  0.4766  0.7199
40708SOL     OW27061   0.016  10.856   6.024 -0.2565  0.2121  0.0983
40708SOL    HW127062   0.037  10.768   5.993  0.2652  0.8476 -1.4441
40708SOL    HW227063   0.014  10.909   5.945  1.1567  1.9254  1.1329
40709SOL     OW27064  10.414   3.180   9.580  0.2187  0.4851 -0.4098
40709SOL    HW127065  10.411   3.275   9.573  0.3312  0.5912  0.7622
40709SOL    HW227066  10.507   3.160   9.593  0.1403  0.2611 -0.1821
40710SOL     OW27067   4.973   4.505   2.632  0.0027 -0.3434  0.8590
40710SOL    HW127068   4.895   4.453   2.609 -0.0959 -0.1120  0.6631
40710SOL    HW227069   5.045   4.443   2.629  0.1242 -0.1649 -0.8939
40711SOL     OW27070   3.253   4.466   7.955  0.0210 -0.3565 -0.2525
40711SOL    HW127071   3.254   4.463   8.051  0.1785 -0.5447 -0.2597
40711SOL    HW227072   3.163   4.444   7.932 -0.0575 -0.1572 -0.1439
40712SOL     OW27073   2.934   4.749   5.124  0.0102  0.7187  0.0227
40712SOL    HW127074   2.936   4.802   5.045  0.1844 -1.5198 -1.5770
40712SOL    HW227075   2.932   4.658   5.092 -0.3226 -0.2656  2.5834
40713SOL     OW27076   4.380   0.622   4.635 -0.4624  0.1500  0.0790
40713SOL    HW127077   4.437   0.696   4.657 -1.6890  0.8296  1.0971
40713SOL    HW227078   4.400   0.556   4.702  0.3340 -0.2952 -0.5826
40714SOL     OW27079   8.383  10.923  11.373  0.1364  0.1588  0.4123
40714SOL    HW127080   8.318  10.872  11.325  2.3192 -1.3877 -1.0881
40714SOL    HW227081   8.417  10.986  11.309 -1.0943  2.2593  1.6965
40715SOL     OW27082   7.987   7.276   0.255  0.3346 -0.5106 -0.2979
40715SOL    HW127083   8.067   7.232   0.286  0.7285  1.2600  1.3475
40715SOL    HW227084   7.916   7.235   0.305  0.4650 -0.5630 -0.1552
40716SOL     OW27085   0.544   8.150   3.649 -0.1685  0.4183 -0.6999
40716SOL    HW127086   0.471   8.095   3.623 -0.8169  1.2641 -0.7010
40716SOL    HW227087   0.622   8.099   3.626 -0.7211 -1.1459  0.6750
40717SOL     OW27088   0.497   0.989   2.975 -0.5668  0.5388  0.2716
40717SOL    HW127089   0.474   0.984   2.882  0.2853  0.4232  0.0655
40717SOL    HW227090   0.515   0.898   3.000 -3.6043  0.0894  1.3051
40718SOL     OW27091   2.274   9.711  10.555 -0.2695  0.0510 -0.2146
40718SOL    HW127092   2.296   9.630  10.601 -1.8523 -1.0735 -1.3345
40718SOL    HW227093   2.313   9.780  10.609 -1.8211 -1.1787  2.7540
40719SOL     OW27094   3.246   1.636   8.088  0.2440 -0.0012 -0.3846
40719SOL    HW127095   3.207   1.652   8.174  2.3985 -1.1091  0.8939
40719SOL    HW227096   3.270   1.543   8.091  4.2469  0.8646 -0.4112
40720SOL     OW27097   7.647   4.996  10.963  0.0861  0.3670 -0.3764
40720SOL    HW127098   7.638   5.031  10.874 -1.6784 -0.3133 -0.5139
40720SOL    HW227099   7.572   5.033  11.011  0.6363  0.1950  0.6465
40721SOL     OW27100   6.614   0.210   8.785 -0.4249 -0.3371  0.3646
40721SOL    HW127101   6.698   0.166   8.771  1.5550  3.6307 -2.1330
40721SOL    HW227102   6.575   0.214   8.697 -1.0771  1.6257  0.6929
40722SOL     OW27103   7.561   3.041   2.344 -0.4048  0.1531  0.7022
40722SOL    HW127104   7.615   3.087   2.279 -1.4036  0.6583  0.2079
40722SOL    HW227105   7.570   2.948   2.321  1.5791  0.0438  1.6684
40723SOL     OW27106   4.896   2.059   7.770 -0.2122  0.2826  0.0721
40723SOL    HW127107   4.822   2.117   7.786  0.0767  0.9090 -0.8095
40723SOL    HW227108   4.860   1.988   7.717 -0.0332  0.9555 -0.9574
40724SOL     OW27109  10.796   9.729   7.194  0.3528  0.9475 -0.1656
40724SOL    HW127110  10.819   9.639   7.215  1.8997  1.3097 -0.1896
40724SOL    HW227111  10.706   9.739   7.225 -0.1745 -0.8518 -0.9941
40725SOL     OW27112   9.240   5.586   1.812  0.7029  0.3664 -0.0974
40725SOL    HW127113   9.227   5.551   1.724  0.3299 -0.5910  0.3249
40725SOL    HW227114   9.216   5.678   1.806  1.3819  0.4910 -1.1621
40726SOL     OW27115   1.172   4.673  10.948  0.6196  0.3077  0.6145
40726SOL    HW127116   1.154   4.722  10.868 -0.6958 -0.5181  0.3819
40726SOL    HW227117   1.155   4.734  11.019 -0.0130  0.4942  0.3053
40727SOL     OW27118   5.711   5.332   3.340  0.2558  0.2309 -0.1868
40727SOL    HW127119   5.773   5.405   3.338 -0.7955  1.1267 -0.3600
40727SOL    HW227120   5.737   5.277   3.266  1.0859  0.3795 -0.0236
40728SOL     OW27121   4.394   1.622   8.422 -0.3567 -0.1631  0.3207
40728SOL    HW127122   4.444   1.573   8.488 -0.4271 -1.8777 -0.8395
40728SOL    HW227123   4.303   1.598   8.440 -0.3913 -0.4777 -0.2417
40729SOL     OW27124   7.244   7.156  10.638 -1.2124 -0.1415  0.2034
40729SOL    HW127125   7.332   7.194  10.649  0.1207 -3.1664  0.9034
40729SOL    HW227126   7.231   7.153  10.543 -1.0523  1.2584  0.1115
40730SOL     OW27127  10.372   9.856   0.782  0.1915  0.1609  0.5261
40730SOL    HW127128  10.400   9.800   0.709 -0.4660 -0.9580  1.1024
40730SOL    HW227129  10.437   9.839   0.851 -0.4234 -0.4989  0.9655
40731SOL     OW27130   8.045   6.496   9.986  0.0696 -0.0705 -0.2421
40731SOL    HW127131   7.977   6.504  10.053  0.8849 -0.6195  0.6783
40731SOL    HW227132   8.014   6.551   9.914 -0.4148  1.2269  0.9060
40732SOL     OW27133   3.790  10.950   1.677  0.1888 -0.0358  0.1214
40732SOL    HW127134   3.811  10.868   1.722  0.9108  0.4566  0.6900
40732SOL    HW227135   3.834  11.017   1.728 -0.8538  0.7763 -0.0213
40733SOL     OW27136   6.591  10.032   0.224 -0.4076 -0.5053  0.1946
40733SOL    HW127137   6.568  10.014   0.315 -0.6116  1.7290  0.6476
40733SOL    HW227138   6.512  10.010   0.175 -0.3666 -1.5250  0.5574
40734SOL     OW27139   2.090  10.658   5.971  0.6157  0.1907 -0.2916
40734SOL    HW127140   2.014  10.601   5.969 -1.4867  2.7343  1.0994
40734SOL    HW227141   2.112  10.673   5.879 -2.3143  1.4743 -0.8952
40735SOL     OW27142   0.087   5.964   3.927  0.2393 -0.3920  0.0933
40735SOL    HW127143   0.118   6.053   3.909 -1.2161 -0.0207 -0.7436
40735SOL    HW227144   0.054   5.933   3.842 -1.9408 -0.6289  0.9630
40736SOL     OW27145   8.657   1.092   1.879  0.0379  0.2018  0.0915
40736SOL    HW127146   8.747   1.121   1.865  0.5508 -0.9955  0.7280
40736SOL    HW227147   8.632   1.131   1.963 -0.2979  1.1042 -0.4179
40737SOL     OW27148   4.269   6.817   5.205  0.0674 -0.1890  0.6730
40737SOL    HW127149   4.207   6.850   5.139 -0.2527 -0.5862  0.7693
40737SOL    HW227150   4.213   6.783   5.275  0.3766 -1.2111  0.4405
40738SOL     OW27151  11.336  11.226   8.009 -0.4371  0.0549 -0.1658
40738SOL    HW127152  11.314  11.222   7.916  0.8035  0.1511 -0.4831
40738SOL    HW227153  11.263  11.182   8.053 -1.7869  1.3337 -1.0386
40739SOL     OW27154   0.918   5.649   2.226  0.6048 -0.3779  0.2971
40739SOL    HW127155   0.948   5.561   2.250 -1.0710 -0.6851  1.3968
40739SOL    HW227156   0.998   5.702   2.226  1.5758 -1.7973  0.0828
40740SOL     OW27157   6.106   2.410   0.246 -0.7899 -0.5133 -0.5438
40740SOL    HW127158   6.019   2.371   0.237 -0.9838  0.0229 -1.1154
40740SOL    HW227159   6.098   2.496   0.205  0.2758 -0.8555 -1.5307
40741SOL     OW27160   8.515   6.132  10.098 -0.8896 -0.2837  0.2052
40741SOL    HW127161   8.445   6.069  10.083 -1.0396 -0.0422 -0.1169
40741SOL    HW227162   8.588   6.099  10.045 -0.4665 -1.0055  1.2046
40742SOL     OW27163   4.191   6.439  11.380  0.5073 -0.4840 -0.1096
40742SOL    HW127164   4.100   6.422  11.356  0.6291 -0.4314 -0.6297
40742SOL    HW227165   4.186   6.482  11.465  0.0509 -0.5770 -0.0884
40743SOL     OW27166   1.442   5.579   8.881 -0.1377 -0.1490 -0.0094
40743SOL    HW127167   1.497   5.520   8.931 -2.6162 -1.9578  0.7777
40743SOL    HW227168   1.360   5.531   8.867 -1.3679  2.1565 -1.5521
40744SOL     OW27169   5.131   0.169   6.217  0.0322  0.0744  0.0857
40744SOL    HW127170   5.084   0.106   6.162  1.6627  0.2948 -1.6679
40744SOL    HW227171   5.184   0.115   6.276 -0.9648 -0.1585  0.8015
40745SOL     OW27172   5.065   8.264   7.758  0.5811  0.2537  0.1888
40745SOL    HW127173   4.983   8.312   7.763  0.2413 -0.4263  1.4692
40745SOL    HW227174   5.129   8.329   7.728 -0.4644  0.6978 -1.1590
40746SOL     OW27175   8.935  10.173   8.722  0.2934  0.1476 -0.4963
40746SOL    HW127176   8.946  10.093   8.772  0.3780  0.1645 -0.4879
40746SOL    HW227177   9.024  10.201   8.702  0.3116  0.9393  0.5988
40747SOL     OW27178   6.438   6.952   4.877 -0.5918  0.2770  0.1846
40747SOL    HW127179   6.463   6.870   4.834 -0.7817 -0.1343  0.8362
40747SOL    HW227180   6.521   6.990   4.906 -0.5999 -0.4114  1.1495
40748SOL     OW27181   0.492   5.057   7.909 -0.5015  0.5329 -0.2279
40748SOL    HW127182   0.582   5.040   7.882 -0.5155  1.1587 -0.6967
40748SOL    HW227183   0.454   4.970   7.923  0.3522  0.2833  0.5877
40749SOL     OW27184   7.632   7.673  11.153  0.5407 -0.0094 -0.2495
40749SOL    HW127185   7.702   7.670  11.218 -1.3561  0.2645  1.9483
40749SOL    HW227186   7.649   7.753  11.103  0.0550  1.9402  2.4765
40750SOL     OW27187   0.079   2.993   1.226  0.1091 -0.3554  0.4772
40750SOL    HW127188   0.005   3.048   1.200 -0.2216  0.1862  2.4170
40750SOL    HW227189   0.107   3.028   1.310  0.5773 -2.4956  1.2864
40751SOL     OW27190   3.882   4.469   8.923 -1.1257 -0.1157  0.7334
40751SOL    HW127191   3.855   4.452   9.013 -0.4723  1.4772  1.2599
40751SOL    HW227192   3.912   4.560   8.923  1.7536 -0.9459 -0.3912
40752SOL     OW27193   0.640   4.870   2.379 -0.0527 -0.3421  0.5533
40752SOL    HW127194   0.610   4.939   2.437  0.7613 -0.1081  0.7130
40752SOL    HW227195   0.627   4.789   2.428  0.1664 -0.1894  0.8622
40753SOL     OW27196   2.247   3.227  10.760  0.5983 -0.2713  0.4550
40753SOL    HW127197   2.231   3.315  10.793  1.5271  0.1715 -0.2360
40753SOL    HW227198   2.333   3.232  10.718  0.6951 -1.5275  0.4682
40754SOL     OW27199   9.751   4.805   9.014  0.6625  0.3834 -0.7697
40754SOL    HW127200   9.832   4.856   9.021  0.5514  0.5066 -0.3250
40754SOL    HW227201   9.738   4.793   8.920  0.4506  1.5763 -0.9071
40755SOL     OW27202  11.451  11.554   7.148  0.3421  0.0292  0.1116
40755SOL    HW127203  11.368  11.601   7.140 -0.0646 -0.9847 -2.2194
40755SOL    HW227204  11.496  11.570   7.065  1.2408 -1.7173  0.2242
40756SOL     OW27205   4.894  11.233   8.591  0.5220  0.0382 -0.3566
40756SOL    HW127206   4.976  11.229   8.641  1.2411 -0.4811 -1.5347
40756SOL    HW227207   4.899  11.315   8.542  1.4101 -1.0290 -2.1474
40757SOL     OW27208   5.002   5.118   0.960 -0.2048  0.0187  0.4028
40757SOL    HW127209   4.977   5.204   0.928  0.4990  0.3291  0.6690
40757SOL    HW227210   4.925   5.087   1.008 -0.3521  0.6243  0.5613
40758SOL     OW27211   5.069   9.295   6.044  0.0961 -0.3528 -0.5056
40758SOL    HW127212   5.045   9.351   6.118  1.7432  0.6112 -0.6502
40758SOL    HW227213   5.159   9.321   6.022 -0.2575 -0.7743 -2.6977
40759SOL     OW27214   5.886   2.182   1.346 -0.0478 -0.4164 -0.2683
40759SOL    HW127215   5.966   2.153   1.303  0.1451 -0.5488  0.1733
40759SOL    HW227216   5.908   2.268   1.383 -0.5740  0.2488 -1.4505
40760SOL     OW27217   6.131  10.875   4.969  0.1850 -0.6313 -0.1325
40760SOL    HW127218   6.224  10.858   4.952  0.4393  0.9712 -0.5077
40760SOL    HW227219   6.085  10.802   4.928  1.2129 -0.8137 -1.0024
40761SOL     OW27220   2.580   6.777   5.552  0.5122  0.3676 -0.2104
40761SOL    HW127221   2.620   6.824   5.479 -0.2313 -0.1182 -0.9619
40761SOL    HW227222   2.507   6.833   5.579  0.1604  0.0664 -0.5262
40762SOL     OW27223   4.581   8.145   3.017  0.4905 -0.0911 -0.3439
40762SOL    HW127224   4.670   8.157   3.049  0.5456  0.8794 -0.8030
40762SOL    HW227225   4.591   8.133   2.922  0.1164  0.4479 -0.4585
40763SOL     OW27226   6.109   1.008  10.884  0.2314 -0.5164  0.7461
40763SOL    HW127227   6.172   1.059  10.934  0.3927  0.1801 -0.1323
40763SOL    HW227228   6.154   0.925  10.865  0.7378 -0.1861  0.4792
40764SOL     OW27229   4.524  10.042   8.140 -0.4382 -0.0440 -0.1642
40764SOL    HW127230   4.437  10.052   8.180 -0.4798 -0.2248 -0.2066
40764SOL    HW227231   4.507   9.997   8.057 -0.5085  1.6035 -1.0715
40765SOL     OW27232   1.242   7.449   7.471  0.0881  0.2245 -0.3269
40765SOL    HW127233   1.239   7.523   7.531 -2.0047  0.3220 -0.4764
40765SOL    HW227234   1.150   7.430   7.451  0.6135 -1.6211 -1.2697
40766SOL     OW27235   2.787   6.118   3.408 -0.0237  0.2158  0.2597
40766SOL    HW127236   2.815   6.195   3.457  1.7561  0.0687 -0.4376
40766SOL    HW227237   2.789   6.047   3.471  2.2881  0.0188  0.0642
40767SOL     OW27238   8.579   2.633   2.355  0.4372  1.0078  0.7132
40767SOL    HW127239   8.564   2.588   2.438  0.0278  0.3393  0.2889
40767SOL    HW227240   8.654   2.587   2.317 -0.0499  0.5964  0.2281
40768SOL     OW27241   4.731   5.860   2.568 -0.1751 -0.6268 -0.4423
40768SOL    HW127242   4.671   5.917   2.615 -0.6508 -1.0745 -0.4927
40768SOL    HW227243   4.811   5.859   2.621 -0.3988 -0.4420 -0.1005
40769SOL     OW27244   3.961   6.040  11.206 -0.1220  0.3494 -0.4739
40769SOL    HW127245   3.946   5.998  11.291 -1.5880  1.6187 -0.0719
40769SOL    HW227246   3.930   6.130  11.217 -0.4568  0.5128 -2.3819
40770SOL     OW27247   0.303   8.012  10.776  0.4117 -0.5021 -0.0826
40770SOL    HW127248   0.222   7.982  10.735  0.7045  0.4616 -1.4641
40770SOL    HW227249   0.299   7.980  10.866 -1.3122 -0.8031 -0.2447
40771SOL     OW27250   9.626   8.209   7.004  0.7815  0.0695 -0.1667
40771SOL    HW127251   9.694   8.246   6.947 -0.4776  1.2735 -0.9558
40771SOL    HW227252   9.580   8.286   7.039 -0.6574 -0.7147 -0.2632
40772SOL     OW27253   2.662   9.769   3.398  0.4581  0.3516 -1.2893
40772SOL    HW127254   2.581   9.730   3.366  0.3891 -0.2738 -0.3695
40772SOL    HW227255   2.649   9.863   3.386 -1.1656  0.4103  0.5336
40773SOL     OW27256   2.592   9.232   0.510 -0.2400  0.8338 -0.0480
40773SOL    HW127257   2.656   9.275   0.453  0.6894  0.2797  0.5421
40773SOL    HW227258   2.641   9.160   0.550 -1.6870 -0.6657 -0.8559
40774SOL     OW27259  11.489  10.669   3.310  0.1932 -0.2254 -0.3023
40774SOL    HW127260  11.512  10.578   3.290  0.6556  0.2816 -2.2940
40774SOL    HW227261  11.559  10.699   3.367  0.6323 -0.8086 -0.5136
40775SOL     OW27262   7.780   3.140   9.992 -0.3948  0.0145  0.1509
40775SOL    HW127263   7.790   3.099   9.907 -0.3028 -1.7691  0.9664
40775SOL    HW227264   7.694   3.183   9.989 -0.4507 -0.1533 -0.7862
40776SOL     OW27265   5.265   2.562   7.444 -0.3063 -0.3554 -0.0250
40776SOL    HW127266   5.291   2.470   7.447 -1.1650 -0.6836 -1.6480
40776SOL    HW227267   5.294   2.593   7.358 -0.9757  0.5907  0.0751
40777SOL     OW27268   8.551   6.450   3.090 -0.3402  0.0325 -0.5776
40777SOL    HW127269   8.594   6.401   3.020  0.0061 -0.7187  0.1430
40777SOL    HW227270   8.612   6.445   3.163 -0.1725  1.7763 -0.5542
40778SOL     OW27271   5.590   1.930   0.040 -0.2522  0.3547 -0.2068
40778SOL    HW127272   5.564   1.897   0.126 -1.2457  0.9524 -0.2570
40778SOL    HW227273   5.679   1.960   0.052 -0.5959  1.0210  0.7967
40779SOL     OW27274   2.074   1.060   1.325 -0.0235  0.9920 -0.2716
40779SOL    HW127275   2.001   1.044   1.385  0.7040 -0.2611  0.3286
40779SOL    HW227276   2.059   0.999   1.253  1.0096 -0.1166  0.4123
40780SOL     OW27277  11.130   7.510   4.986 -0.1218  0.2909 -0.7818
40780SOL    HW127278  11.119   7.598   5.021  1.9094  0.9740 -1.6966
40780SOL    HW227279  11.084   7.453   5.048  0.5737  1.7444  1.1675
40781SOL     OW27280   4.774   0.111   0.237  0.0148  0.1239  0.2210
40781SOL    HW127281   4.820   0.171   0.178 -2.3696 -1.0449 -3.1333
40781SOL    HW227282   4.690   0.154   0.254  0.0110 -0.3323  1.4905
40782SOL     OW27283  10.910   1.436   0.774  0.2553 -0.1004  0.1041
40782SOL    HW127284  10.913   1.353   0.821 -1.1545 -0.0375  0.3502
40782SOL    HW227285  10.893   1.501   0.842 -1.1939  0.0670 -0.3861
40783SOL     OW27286   8.711   5.740   3.945  0.1708  0.4117  0.2090
40783SOL    HW127287   8.742   5.693   3.867  0.3952  0.7494  0.0944
40783SOL    HW227288   8.617   5.750   3.931  0.3670  1.3584 -0.4959
40784SOL     OW27289   5.463   5.095   6.215  0.1106  0.3153  0.2473
40784SOL    HW127290   5.453   5.083   6.309  0.8761 -1.9677  0.1051
40784SOL    HW227291   5.374   5.090   6.180 -0.1064  0.3728  0.7826
40785SOL     OW27292   8.139   6.147   9.611 -0.3127 -0.1479 -0.1433
40785SOL    HW127293   8.047   6.155   9.636 -0.8945  0.0409 -2.1048
40785SOL    HW227294   8.188   6.175   9.688 -1.8855 -0.5855  1.0619
40786SOL     OW27295   1.851   8.601   3.213  0.0723 -0.1029 -0.0171
40786SOL    HW127296   1.867   8.576   3.122 -1.7653  1.2516 -0.7527
40786SOL    HW227297   1.836   8.518   3.258 -0.1403 -0.7214 -1.1940
40787SOL     OW27298   0.966   6.324   9.862 -0.5047 -0.4347  0.2489
40787SOL    HW127299   1.052   6.355   9.833 -0.2268  0.0965  1.5448
40787SOL    HW227300   0.907   6.342   9.789  0.2164  0.5065 -0.1225
40788SOL     OW27301  10.024   0.290   3.428  0.3062  0.1108 -0.4134
40788SOL    HW127302  10.024   0.195   3.432 -0.5502  0.1434  1.0486
40788SOL    HW227303  10.110   0.313   3.394  0.2785 -1.1962 -1.4274
40789SOL     OW27304   9.815   3.061   4.415 -0.3405  0.4068 -0.5496
40789SOL    HW127305   9.830   2.992   4.350  0.9445 -0.1510  0.3089
40789SOL    HW227306   9.757   3.020   4.479  0.9169 -0.1188  0.2861
40790SOL     OW27307   6.656   6.525   5.178  0.0383  1.1144  0.1785
40790SOL    HW127308   6.605   6.519   5.097  0.7511 -0.4462 -0.2055
40790SOL    HW227309   6.592   6.535   5.247 -0.6579  1.2856 -0.4816
40791SOL     OW27310   7.935   8.365   0.145  0.1852 -0.0779  0.3122
40791SOL    HW127311   7.906   8.334   0.231 -0.2858 -1.2652 -0.2456
40791SOL    HW227312   7.861   8.417   0.112  0.6526  0.9858  0.9129
40792SOL     OW27313   1.070   5.296   0.989  0.1417  0.6161  0.5023
40792SOL    HW127314   1.091   5.215   1.036  1.5586 -1.0929 -2.7807
40792SOL    HW227315   1.109   5.285   0.903 -1.3941  3.9860 -0.8078
40793SOL     OW27316   6.325   9.493  11.028 -0.1603  0.3141 -0.4021
40793SOL    HW127317   6.400   9.462  11.080  0.2492  0.7352 -0.7373
40793SOL    HW227318   6.283   9.558  11.084 -0.5236 -0.2227 -0.0434
40794SOL     OW27319   4.663   5.372   9.107 -0.6111  0.0132 -0.0047
40794SOL    HW127320   4.591   5.315   9.133 -0.1146  0.0596  1.6177
40794SOL    HW227321   4.738   5.313   9.096 -0.8227 -0.0129 -1.5024
40795SOL     OW27322  11.664   1.882   4.963  0.0284 -0.4928  0.0335
40795SOL    HW127323  11.752   1.845   4.954  0.1939 -1.3441  3.6413
40795SOL    HW227324  11.608   1.818   4.920  0.9328 -1.4383  0.2071
40796SOL     OW27325  11.435   3.822   8.213  0.6347 -0.2533  0.1163
40796SOL    HW127326  11.491   3.845   8.288 -0.9846  0.9639  1.0363
40796SOL    HW227327  11.398   3.737   8.236  3.9406 -2.3631 -1.6743
40797SOL     OW27328  10.900   6.655   5.304 -0.3212 -0.0823  0.0987
40797SOL    HW127329  10.965   6.627   5.240  0.4980 -0.5532  1.1026
40797SOL    HW227330  10.834   6.585   5.304  0.9439 -1.3608  1.5069
40798SOL     OW27331   6.324  10.839   3.796 -0.4766 -0.3021  0.4798
40798SOL    HW127332   6.399  10.812   3.849 -0.6711 -1.0568  0.3752
40798SOL    HW227333   6.293  10.759   3.754 -0.5321  0.2282 -0.5196
40799SOL     OW27334   8.094   1.170   9.692  0.6006  0.1576  0.2025
40799SOL    HW127335   8.008   1.137   9.717  0.4433 -0.2128 -0.7797
40799SOL    HW227336   8.083   1.198   9.601  0.7500  2.8187  0.9066
40800SOL     OW27337   3.850   8.967   4.130 -0.0763  0.1629  0.2648
40800SOL    HW127338   3.808   8.948   4.046  0.1110  0.4544  0.1033
40800SOL    HW227339   3.929   9.016   4.107  0.9882 -1.3927  0.4826
40801SOL     OW27340   0.725   9.152   2.923  0.1837 -0.2805  0.0342
40801SOL    HW127341   0.724   9.233   2.873  0.1963  0.8645  1.7871
40801SOL    HW227342   0.747   9.179   3.013 -2.0274 -1.9064  1.1777
40802SOL     OW27343   0.376   8.791  10.176 -0.2793 -0.2200 -0.3742
40802SOL    HW127344   0.458   8.742  10.166  1.1942  2.3415 -1.9631
40802SOL    HW227345   0.391   8.847  10.253 -2.1989 -2.5052  1.8454
40803SOL     OW27346  10.815   5.466   3.166 -0.8718 -0.0723  0.1632
40803SOL    HW127347  10.752   5.412   3.214 -1.2528 -0.7948 -1.1149
40803SOL    HW227348  10.900   5.436   3.197 -1.1154 -0.2618  0.6684
40804SOL     OW27349   6.536   5.737   4.504 -0.2328 -0.0199 -0.0022
40804SOL    HW127350   6.494   5.762   4.422 -0.3068  0.4983  0.1896
40804SOL    HW227351   6.529   5.642   4.506 -1.1777  0.0381 -0.0886
40805SOL     OW27352   8.076   6.316   8.195  0.2364  0.2551 -0.3380
40805SOL    HW127353   7.993   6.336   8.237  0.5712  0.0406  0.4530
40805SOL    HW227354   8.113   6.401   8.172 -0.3774  0.3312 -1.0428
40806SOL     OW27355   7.174   1.277   2.191  0.0117 -0.0419 -0.4306
40806SOL    HW127356   7.083   1.267   2.161  0.2294  0.3001 -1.2417
40806SOL    HW227357   7.172   1.251   2.283 -0.8349 -0.4045 -0.5415
40807SOL     OW27358   9.538   0.084   1.462  0.2739 -0.4659 -0.4438
40807SOL    HW127359   9.508   0.166   1.501  0.0260 -0.7537 -0.0206
40807SOL    HW227360   9.520   0.017   1.529 -0.1549 -0.9647 -1.0442
40808SOL     OW27361   4.390   8.506   5.200 -0.4896  0.0207  0.2149
40808SOL    HW127362   4.389   8.590   5.153  0.3896 -0.1319 -0.0918
40808SOL    HW227363   4.434   8.446   5.140  1.2599 -0.0314  1.4872
40809SOL     OW27364   3.931   1.324   4.213  0.4073 -0.2790 -0.0437
40809SOL    HW127365   3.865   1.387   4.184  0.0754 -0.6500 -0.0926
40809SOL    HW227366   3.898   1.291   4.297  0.8694  0.0443  0.2766
40810SOL     OW27367   9.107   3.635   0.054 -0.5421  0.0182  0.0354
40810SOL    HW127368   9.124   3.594   0.138 -1.3303 -1.2531 -0.3972
40810SOL    HW227369   9.017   3.666   0.060 -2.2953 -3.9410 -1.7065
40811SOL     OW27370  11.076   2.994   0.568 -0.1028 -0.0011  0.3991
40811SOL    HW127371  11.047   2.903   0.566  1.1895 -0.4254 -1.0469
40811SOL    HW227372  11.002   3.042   0.605 -1.2865 -1.4674  0.0294
40812SOL     OW27373   3.156   0.414   1.432  0.4350  0.1436 -0.0572
40812SOL    HW127374   3.108   0.332   1.421  0.0516  0.3851 -0.2330
40812SOL    HW227375   3.202   0.404   1.515  0.6629 -0.3818 -0.2453
40813SOL     OW27376   9.542   4.421   9.169 -0.0309 -0.3476 -0.1088
40813SOL    HW127377   9.524   4.327   9.177 -0.7885 -0.2081 -0.1307
40813SOL    HW227378   9.637   4.427   9.174  0.0809 -1.1970 -0.8763
40814SOL     OW27379   9.363  11.304   0.614 -0.1016 -0.4163  0.2237
40814SOL    HW127380   9.294  11.349   0.663  0.3310  0.0479  0.4163
40814SOL    HW227381   9.432  11.369   0.604  0.1127 -0.7249 -0.3921
40815SOL     OW27382   1.867   4.611   4.694  0.5547 -0.0789  0.0109
40815SOL    HW127383   1.915   4.601   4.777  2.7005  1.4468 -0.9347
40815SOL    HW227384   1.836   4.523   4.674  0.8736 -0.6845  1.9239
40816SOL     OW27385  10.526   7.683   3.131 -0.0790 -0.0485 -0.0406
40816SOL    HW127386  10.559   7.645   3.213 -0.3661  0.1997  0.1915
40816SOL    HW227387  10.582   7.645   3.063  0.7923  0.4963  0.3614
40817SOL     OW27388   2.787   3.334  11.613  0.1599 -0.2361  0.0545
40817SOL    HW127389   2.705   3.373  11.582 -0.1207 -1.5084 -0.8801
40817SOL    HW227390   2.850   3.356  11.544  0.4244  0.0702  0.3921
40818SOL     OW27391   3.463   1.682  10.175  0.3020  0.9642 -0.4491
40818SOL    HW127392   3.378   1.726  10.175  0.1454  0.7832  2.1091
40818SOL    HW227393   3.461   1.627  10.096 -1.8103  1.1914 -0.6204
40819SOL     OW27394   8.131   7.042   5.189  0.0973 -0.0223  0.3275
40819SOL    HW127395   8.182   7.117   5.220 -0.5377  1.0073 -1.0171
40819SOL    HW227396   8.051   7.081   5.154 -1.3706 -1.5562  1.8135
40820SOL     OW27397   7.367   8.579   9.932  0.6981 -0.0776 -0.2549
40820SOL    HW127398   7.337   8.497   9.893 -0.2305 -0.0387  0.3458
40820SOL    HW227399   7.378   8.638   9.858  1.7119 -0.8310 -0.7291
40821SOL     OW27400   9.988   5.454   3.248 -0.1601 -0.1555 -0.0008
40821SOL    HW127401   9.948   5.397   3.182  1.6455 -0.8513 -0.5568
40821SOL    HW227402  10.076   5.470   3.215  0.0128  1.3953  1.1267
40822SOL     OW27403   9.934  11.178   1.438 -0.2134  0.6480  0.7574
40822SOL    HW127404  10.021  11.217   1.435 -0.0060  0.1450 -0.1893
40822SOL    HW227405   9.888  11.217   1.363 -0.7595  0.7961  1.1604
40823SOL     OW27406   3.072   2.370   0.559 -0.5148 -0.2685  0.2720
40823SOL    HW127407   3.028   2.378   0.643 -1.3799  1.0411 -0.2679
40823SOL    HW227408   3.151   2.320   0.577  0.0458  1.1927  2.1394
40824SOL     OW27409   1.967   6.364   0.203  0.2371  0.7500  0.3745
40824SOL    HW127410   1.935   6.350   0.292  0.2317 -3.3993 -0.0776
40824SOL    HW227411   1.888   6.381   0.151 -0.3739 -1.3614  0.5321
40825SOL     OW27412   9.174   2.413   8.723 -0.2542 -0.2692 -0.0362
40825SOL    HW127413   9.206   2.401   8.812  1.6504 -1.6790 -0.8450
40825SOL    HW227414   9.079   2.412   8.732 -0.1167 -0.1713  1.9932
40826SOL     OW27415  11.095   5.573   5.617 -0.1544 -0.2232  0.1681
40826SOL    HW127416  11.077   5.661   5.652  0.2985 -0.6543  1.5300
40826SOL    HW227417  11.173   5.544   5.665  0.4310 -0.9027 -1.1343
40827SOL     OW27418   1.550   5.653   9.225  0.6439 -0.0898 -0.2084
40827SOL    HW127419   1.625   5.673   9.282  0.0097 -3.0648  1.9149
40827SOL    HW227420   1.578   5.577   9.175 -0.7743 -1.0266  0.3574
40828SOL     OW27421   0.272   2.696   3.655 -0.2391 -0.0679 -0.0496
40828SOL    HW127422   0.358   2.737   3.661  0.1790 -0.7391 -1.2930
40828SOL    HW227423   0.248   2.678   3.746 -0.3777  2.7444  0.5458
40829SOL     OW27424   0.157   0.680  11.151 -0.2189  0.5971  0.1720
40829SOL    HW127425   0.166   0.744  11.222 -1.4241  0.8841  0.0901
40829SOL    HW227426   0.154   0.596  11.196  2.0779  0.4727  0.2402
40830SOL     OW27427   3.478   4.747   8.441 -0.0558 -0.0420  0.4186
40830SOL    HW127428   3.551   4.804   8.465  1.2146 -1.2751 -0.3230
40830SOL    HW227429   3.478   4.747   8.345 -0.8370 -0.3096  0.4116
40831SOL     OW27430   7.386   3.977   1.981 -0.1353 -0.1921 -0.4607
40831SOL    HW127431   7.340   4.023   2.051 -1.1589 -2.9096  0.7882
40831SOL    HW227432   7.449   3.922   2.026  0.6332 -0.4913 -1.8467
40832SOL     OW27433   7.107   9.798   5.885  0.3274 -0.0106 -0.7137
40832SOL    HW127434   7.200   9.782   5.905  0.3447  1.2784  0.4465
40832SOL    HW227435   7.104   9.808   5.790  1.2867 -0.5867 -0.8186
40833SOL     OW27436   1.040  11.306   0.574 -0.7219  0.0524  0.0337
40833SOL    HW127437   0.955  11.274   0.542 -1.0603  2.1683 -1.3876
40833SOL    HW227438   1.104  11.267   0.515 -0.7771 -0.7640  0.4990
40834SOL     OW27439   5.579   7.810   7.904  0.4749  0.0873  0.4144
40834SOL    HW127440   5.509   7.754   7.870  1.4580  0.0036 -1.6314
40834SOL    HW227441   5.534   7.883   7.946 -0.8189 -0.3261 -0.2290
40835SOL     OW27442   8.591   3.802   8.593 -0.0097 -0.4866 -0.1819
40835SOL    HW127443   8.511   3.848   8.569 -0.1043 -0.9508 -0.7529
40835SOL    HW227444   8.623   3.849   8.670 -1.4931 -1.0634  0.8207
40836SOL     OW27445   3.002   3.383  10.732 -0.0834  0.0214  0.2321
40836SOL    HW127446   3.002   3.466  10.685  3.0190 -0.3656 -0.6328
40836SOL    HW227447   3.073   3.391  10.795  0.0094 -1.8334  0.4128
40837SOL     OW27448   0.711   8.281   9.301 -0.8531  0.7389  0.0429
40837SOL    HW127449   0.657   8.241   9.233 -0.2696  1.7625 -1.0617
40837SOL    HW227450   0.656   8.350   9.338 -0.6405  1.1568 -0.4213
40838SOL     OW27451   3.200   3.830   2.627  0.3149 -0.0054 -0.4772
40838SOL    HW127452   3.172   3.802   2.540 -0.2968  1.1464 -0.6836
40838SOL    HW227453   3.202   3.750   2.679  1.5256 -0.8528 -1.7541
40839SOL     OW27454   5.282   0.792   3.615  0.6292  0.5903  0.3171
40839SOL    HW127455   5.220   0.723   3.636 -1.0960  2.0990  0.3886
40839SOL    HW227456   5.340   0.753   3.549  0.1688 -1.1305  0.8991
40840SOL     OW27457   2.624   0.461   0.598 -0.0039  0.2558  1.0748
40840SOL    HW127458   2.535   0.427   0.586 -0.0727 -0.5947  3.3368
40840SOL    HW227459   2.663   0.458   0.511 -2.2826  1.0091 -0.0542
40841SOL     OW27460  10.725   8.170   5.126  1.4566  0.0035  0.2377
40841SOL    HW127461  10.660   8.106   5.099  0.1197  1.1628  0.5342
40841SOL    HW227462  10.786   8.176   5.053  0.3570 -0.0224 -0.7069
40842SOL     OW27463   2.612   2.441  10.947 -0.6518  0.4235  0.1348
40842SOL    HW127464   2.688   2.414  10.999 -0.1639  0.6922 -0.4212
40842SOL    HW227465   2.537   2.427  11.004 -0.1597  0.3468  0.7704
40843SOL     OW27466   7.292   9.391  10.665  0.3878 -0.2656  0.4206
40843SOL    HW127467   7.247   9.319  10.621 -0.2162  0.5574 -0.3536
40843SOL    HW227468   7.385   9.376  10.648  0.2112 -0.4227 -0.4326
40844SOL     OW27469   5.551   6.971   0.827  0.0759  0.0178  0.4922
40844SOL    HW127470   5.482   6.929   0.775  2.3223 -4.4539  0.6475
40844SOL    HW227471   5.529   6.949   0.918  0.4521  0.6630  0.7417
40845SOL     OW27472   0.897   0.214   2.018 -0.0810  0.5288  0.3276
40845SOL    HW127473   0.827   0.275   1.994 -1.0089 -1.2301 -1.7094
40845SOL    HW227474   0.904   0.155   1.944  3.1117  0.1731  0.7716
40846SOL     OW27475   4.114   7.308   8.519  0.3635  0.2966  0.5710
40846SOL    HW127476   4.025   7.338   8.537  0.3117  1.1014 -0.8322
40846SOL    HW227477   4.124   7.229   8.572 -1.2842  0.0143  0.5317
40847SOL     OW27478  10.383   2.448   5.959 -0.4009 -0.0027 -0.3901
40847SOL    HW127479  10.401   2.454   5.865 -3.5552 -1.4842 -1.2378
40847SOL    HW227480  10.446   2.385   5.992  0.2340 -0.0723 -1.6988
40848SOL     OW27481   1.427   5.448   9.561 -0.4436 -0.4833  0.2055
40848SOL    HW127482   1.461   5.392   9.631  0.5305  0.9388  0.9060
40848SOL    HW227483   1.461   5.409   9.481 -2.3916 -2.7386  0.3541
40849SOL     OW27484   8.799  10.628   8.505 -0.1603 -0.1315 -0.5308
40849SOL    HW127485   8.736  10.599   8.439 -1.2762 -3.5357  1.7613
40849SOL    HW227486   8.869  10.562   8.502  0.8992  0.9157  0.2199
40850SOL     OW27487   0.704   1.758   8.652 -0.2079  0.3415  0.0761
40850SOL    HW127488   0.797   1.751   8.631 -0.6381 -1.8440 -1.4741
40850SOL    HW227489   0.665   1.800   8.575 -0.4916  1.5574  0.8583
40851SOL     OW27490   9.104   6.962   7.830  0.5186 -0.1948  0.3768
40851SOL    HW127491   9.105   7.057   7.834  1.7504 -0.2399  1.8669
40851SOL    HW227492   9.060   6.935   7.911  0.6155 -0.9119  0.2005
40852SOL     OW27493   4.873   7.882  10.612  1.0096 -0.0252  0.4818
40852SOL    HW127494   4.966   7.895  10.594  1.1379 -1.3661  0.0711
40852SOL    HW227495   4.870   7.825  10.689  0.5461 -0.1944  0.3459
40853SOL     OW27496   8.015   8.826   3.652  0.0057  0.2599 -0.3898
40853SOL    HW127497   8.081   8.879   3.695  0.0965  0.5566 -0.8855
40853SOL    HW227498   8.052   8.738   3.649 -0.0318  0.2253  0.1910
40854SOL     OW27499   3.064   1.435   3.788 -0.1969 -0.5956  0.5694
40854SOL    HW127500   3.136   1.495   3.806 -1.3513  0.5321  1.6316
40854SOL    HW227501   2.996   1.490   3.749 -1.1186 -1.2689  1.1742
40855SOL     OW27502  10.073   1.246   2.847  0.2621  0.7546 -0.4330
40855SOL    HW127503  10.117   1.308   2.905 -0.0635 -0.4349  1.1684
40855SOL    HW227504  10.144   1.204   2.798  0.6264  1.1245 -0.2264
40856SOL     OW27505   8.463   6.694   8.136  0.0582  0.6900  0.2837
40856SOL    HW127506   8.380   6.657   8.164  0.5931 -0.9386 -0.1799
40856SOL    HW227507   8.443   6.785   8.115 -1.6219  0.3048  0.0902
40857SOL     OW27508  11.244   7.240   9.601 -0.1339 -0.2336 -0.4258
40857SOL    HW127509  11.172   7.296   9.632  1.3800  3.4110 -2.8380
40857SOL    HW227510  11.229   7.231   9.507  1.1729 -1.7253 -0.5397
40858SOL     OW27511   2.937   6.096   1.708 -0.1900  0.4769 -0.1599
40858SOL    HW127512   2.908   6.166   1.649 -0.1231 -0.9130 -1.9313
40858SOL    HW227513   2.963   6.025   1.650 -1.2431 -1.4362  1.5578
40859SOL     OW27514  10.929   7.454   2.071 -0.2475  0.5445 -0.2203
40859SOL    HW127515  11.004   7.448   2.130  0.5851  0.1230 -1.2725
40859SOL    HW227516  10.859   7.406   2.116  0.9446 -1.5175 -0.4126
40860SOL     OW27517   9.624   0.137  10.211 -0.3589  0.6477  0.4475
40860SOL    HW127518   9.639   0.225  10.178  2.1011 -0.0109 -0.3960
40860SOL    HW227519   9.571   0.094  10.143  0.5570  0.7516 -0.3424
40861SOL     OW27520   7.130   8.108   7.031 -0.3245 -0.0530 -0.1757
40861SOL    HW127521   7.150   8.025   7.075  1.1611  0.7216  0.6918
40861SOL    HW227522   7.095   8.082   6.946  0.4215 -1.5733 -0.0545
40862SOL     OW27523   1.767   2.121   0.990  0.2174  0.0693  0.8980
40862SOL    HW127524   1.719   2.155   0.914  0.1057 -1.0491  0.4567
40862SOL    HW227525   1.753   2.026   0.987 -0.7414  0.0872  2.9544
40863SOL     OW27526   4.067   1.631   0.750  0.4730  0.1172 -0.0994
40863SOL    HW127527   4.109   1.703   0.798  0.3113 -0.0247  0.2572
40863SOL    HW227528   4.027   1.673   0.674 -1.0607  0.6777  0.9781
40864SOL     OW27529   3.671   5.336   3.693 -0.4182 -0.1689  0.2398
40864SOL    HW127530   3.579   5.312   3.706 -0.1498  0.0158  3.1066
40864SOL    HW227531   3.678   5.424   3.729  1.3806 -1.2381  2.8340
40865SOL     OW27532  10.120   7.050   5.153 -0.4722 -0.7141  0.3452
40865SOL    HW127533  10.200   6.998   5.160 -0.1565 -0.3900 -0.6245
40865SOL    HW227534  10.084   7.025   5.067 -0.9208 -0.1749  0.3758
40866SOL     OW27535   6.318   7.817   2.557 -0.2877 -1.0268 -0.1483
40866SOL    HW127536   6.347   7.884   2.494  0.7483  0.8151  2.1360
40866SOL    HW227537   6.395   7.802   2.612 -1.1121 -2.6903  0.6080
40867SOL     OW27538   9.451   6.646   4.531 -0.0183  0.2876 -0.1385
40867SOL    HW127539   9.383   6.580   4.544  0.5742 -0.5517 -1.0756
40867SOL    HW227540   9.525   6.614   4.583 -0.9844  2.3653  2.7484
40868SOL     OW27541   3.105   6.618   3.282  0.5635  0.1546 -0.1075
40868SOL    HW127542   3.135   6.612   3.373  0.0010  0.4121  0.0976
40868SOL    HW227543   3.015   6.650   3.288  0.8123  1.0246 -0.7974
40869SOL     OW27544   0.880   9.859   4.350 -0.1705  0.0828 -0.5334
40869SOL    HW127545   0.885   9.764   4.362  0.9184  0.2537  0.5123
40869SOL    HW227546   0.970   9.890   4.362 -0.7736  1.4241  0.8875
40870SOL     OW27547   3.753   4.938  10.594  0.9285  0.0341 -0.6310
40870SOL    HW127548   3.747   4.957  10.500 -0.8546 -0.1488 -0.5944
40870SOL    HW227549   3.719   5.017  10.636 -1.9398 -1.2450 -0.3138
40871SOL     OW27550   3.519   6.405  10.021 -0.5612  0.0227  0.1330
40871SOL    HW127551   3.585   6.410   9.951 -0.3401 -0.5633  0.2961
40871SOL    HW227552   3.445   6.361   9.980  0.0849 -1.5969  0.6434
40872SOL     OW27553   7.868   3.134   7.289  0.1090 -0.6496  0.2140
40872SOL    HW127554   7.831   3.055   7.252 -1.7643 -1.1602  2.8689
40872SOL    HW227555   7.803   3.202   7.272  0.2706 -0.3923  0.6072
40873SOL     OW27556   9.486   4.341   9.905  0.0855  0.2065  0.2103
40873SOL    HW127557   9.521   4.317   9.819 -0.9747 -1.3070  0.1630
40873SOL    HW227558   9.423   4.272   9.925  1.2128 -0.1758  2.7750
40874SOL     OW27559   1.705   2.756   2.031  0.5010  0.0925  0.2602
40874SOL    HW127560   1.795   2.766   2.000 -0.1070  5.5105 -0.8725
40874SOL    HW227561   1.655   2.735   1.952  0.5246 -1.2252  0.5758
40875SOL     OW27562   4.214   6.570   6.240  0.1771 -0.2648 -0.2211
40875SOL    HW127563   4.119   6.570   6.232  0.0687 -0.3397  0.9707
40875SOL    HW227564   4.245   6.554   6.151 -0.9503 -1.5515 -0.4176
40876SOL     OW27565   1.379   7.879   5.506 -1.0277  0.1006  0.5354
40876SOL    HW127566   1.370   7.953   5.447  0.5031  0.8057  1.1356
40876SOL    HW227567   1.383   7.802   5.448 -0.6681  0.6667 -0.2055
40877SOL     OW27568   4.340  10.144   9.083  0.7406  0.1633 -0.1720
40877SOL    HW127569   4.285  10.124   9.008  0.1320  1.9951 -0.2523
40877SOL    HW227570   4.347  10.061   9.131 -1.6953 -0.2430 -0.4064
40878SOL     OW27571   1.555   3.196   7.536 -0.0825  0.3165  0.2131
40878SOL    HW127572   1.493   3.191   7.463  0.2345 -1.2135  0.0143
40878SOL    HW227573   1.523   3.267   7.591 -2.2200 -0.6403  0.2853
40879SOL     OW27574   4.662  10.137   0.982  0.0192  0.2248 -0.2666
40879SOL    HW127575   4.716  10.074   0.935  2.0280  0.6613  1.3234
40879SOL    HW227576   4.611  10.084   1.043  1.3102  0.0270  0.6926
40880SOL     OW27577  10.877  10.431   4.515  0.2058 -0.0647 -0.3139
40880SOL    HW127578  10.923  10.347   4.516 -0.3421 -0.3890 -0.9546
40880SOL    HW227579  10.795  10.412   4.468 -0.2152  0.6775  0.1138
40881SOL     OW27580   4.160   1.079   5.317 -0.0636  0.4441  0.0243
40881SOL    HW127581   4.191   1.100   5.228  1.6387  0.2069  0.5166
40881SOL    HW227582   4.238   1.087   5.371 -1.0762  0.5403  1.5089
40882SOL     OW27583   6.333   0.838   5.203  0.1107  0.3479  0.3244
40882SOL    HW127584   6.312   0.882   5.120  0.3981 -0.2764 -0.0902
40882SOL    HW227585   6.334   0.745   5.181 -2.0977 -0.0416  1.5224
40883SOL     OW27586   5.518   6.510   4.099 -0.0890  0.6738 -0.3071
40883SOL    HW127587   5.508   6.603   4.122 -2.4978  0.2492  0.6491
40883SOL    HW227588   5.547   6.469   4.180  0.6731  0.5272 -0.6474
40884SOL     OW27589  10.359   9.330   2.788 -0.5174  0.2410 -0.5420
40884SOL    HW127590  10.368   9.236   2.803  3.0022  0.3368 -1.1800
40884SOL    HW227591  10.400   9.345   2.703 -0.7119  2.4273 -0.3175
40885SOL     OW27592   7.210   8.223  10.281 -0.2015  0.0600 -0.2855
40885SOL    HW127593   7.195   8.155  10.347  1.4120 -0.4462 -0.3914
40885SOL    HW227594   7.285   8.272  10.313 -0.3462  0.7878 -1.0062
40886SOL     OW27595   4.217   4.073   3.281  0.0518  0.2684  0.1631
40886SOL    HW127596   4.248   3.996   3.233 -0.4555  1.6267 -2.5344
40886SOL    HW227597   4.272   4.144   3.250  0.0896  1.1461  2.1202
40887SOL     OW27598   5.767   2.115   8.359  0.7218 -0.0984  0.5544
40887SOL    HW127599   5.836   2.120   8.293  1.2168 -0.5683  1.0247
40887SOL    HW227600   5.786   2.035   8.408 -0.6654 -0.7287  0.1418
40888SOL     OW27601  11.511   5.465   4.922 -0.0800 -0.4256  0.7717
40888SOL    HW127602  11.552   5.551   4.927 -0.3771 -0.2977  1.0141
40888SOL    HW227603  11.503   5.437   5.013 -1.5751  0.0472  0.8055
40889SOL     OW27604   8.010   2.042  10.002  0.5443  0.3649  0.1467
40889SOL    HW127605   7.938   1.986  10.031 -0.1879  1.1835 -0.0641
40889SOL    HW227606   8.044   2.082  10.082  0.6548  0.1218  0.2240
40890SOL     OW27607   2.128   7.129   6.380 -0.1734  0.7637 -0.2615
40890SOL    HW127608   2.166   7.215   6.364 -1.9220  1.4702 -0.8635
40890SOL    HW227609   2.177   7.070   6.322 -0.2330  1.6979 -1.2989
40891SOL     OW27610   2.194   7.786   8.910  0.8455 -0.2700  0.5553
40891SOL    HW127611   2.116   7.785   8.855 -0.2242  2.8823  1.8136
40891SOL    HW227612   2.267   7.791   8.849 -0.1517  0.4525 -0.6182
40892SOL     OW27613  11.459   0.171   3.729 -0.1048  0.2507  0.1546
40892SOL    HW127614  11.393   0.103   3.713  0.2865 -0.3788  1.1447
40892SOL    HW227615  11.451   0.230   3.654 -1.8609  0.2409  0.2851
40893SOL     OW27616  11.617   4.197   4.738  0.4312 -0.6653  0.3576
40893SOL    HW127617  11.603   4.275   4.685  1.4496 -1.3735 -1.0109
40893SOL    HW227618  11.711   4.199   4.758  0.6187 -1.9135 -0.3365
40894SOL     OW27619   0.817   1.694   0.937 -0.2390 -0.3315 -0.5439
40894SOL    HW127620   0.901   1.727   0.968 -0.8374  0.4231  0.2925
40894SOL    HW227621   0.801   1.740   0.855 -0.3896  0.4039 -0.1058
40895SOL     OW27622   4.060   0.756   1.348 -0.1672 -0.2733  0.4123
40895SOL    HW127623   3.971   0.745   1.315 -0.2770 -0.0303  0.6247
40895SOL    HW227624   4.098   0.824   1.292 -0.2818 -0.0157  0.6485
40896SOL     OW27625   1.405   2.740   8.096 -0.4404 -0.5650  0.2331
40896SOL    HW127626   1.455   2.747   8.015  0.3398  1.7440  0.8247
40896SOL    HW227627   1.409   2.647   8.119  0.2823 -1.0754 -1.7566
40897SOL     OW27628   7.209   3.878  10.265  0.5874 -0.0483 -0.3054
40897SOL    HW127629   7.300   3.849  10.276  0.9425  1.4626  1.2189
40897SOL    HW227630   7.215   3.972  10.248 -0.6655 -0.0735 -1.0105
40898SOL     OW27631  10.746   6.512   6.303  0.4355 -0.4502  0.2504
40898SOL    HW127632  10.755   6.545   6.214  0.2020 -0.4744  0.2156
40898SOL    HW227633  10.823   6.458   6.317 -1.0857 -3.1995 -1.1309
40899SOL     OW27634   6.937   2.437   4.277 -0.4158 -0.8793  0.2155
40899SOL    HW127635   6.857   2.390   4.256  0.0458 -1.4355 -0.3484
40899SOL    HW227636   7.004   2.369   4.282 -0.3376 -0.7274  2.8477
40900SOL     OW27637   7.147  11.186   6.475  0.1293 -0.2672  0.2840
40900SOL    HW127638   7.127  11.224   6.561 -2.3783 -0.9429  0.0675
40900SOL    HW227639   7.067  11.141   6.449  1.0014 -0.5475 -2.1932
40901SOL     OW27640   6.683   7.425   7.618 -0.0760  0.6776  0.0450
40901SOL    HW127641   6.674   7.440   7.712 -2.8007  1.5123 -0.2823
40901SOL    HW227642   6.682   7.329   7.608 -0.1715  0.5983  0.8066
40902SOL     OW27643   1.078   3.738  10.338 -0.4850 -0.4271  0.7455
40902SOL    HW127644   1.061   3.828  10.367 -0.5475 -0.7952  1.9293
40902SOL    HW227645   1.038   3.732  10.251  0.0231  0.8503  0.4072
40903SOL     OW27646   0.471   6.482   9.545  0.3293  0.6230 -0.0493
40903SOL    HW127647   0.405   6.543   9.578 -0.4958 -0.3185  0.0821
40903SOL    HW227648   0.544   6.492   9.606 -0.5575  0.0785  1.1342
40904SOL     OW27649   9.901  11.027   7.874 -0.0692 -0.0952 -0.3934
40904SOL    HW127650   9.869  11.099   7.821  0.7040  0.5939  0.0683
40904SOL    HW227651   9.856  10.950   7.839 -0.3073  0.4868 -1.3952
40905SOL     OW27652   9.077  10.493   9.479 -0.0090  0.1781 -0.1069
40905SOL    HW127653   8.991  10.473   9.516 -0.1494 -0.4957 -0.7772
40905SOL    HW227654   9.073  10.587   9.460 -0.3215  0.3089  0.5409
40906SOL     OW27655   2.723   2.348   1.305  0.6764  0.4366  0.2089
40906SOL    HW127656   2.645   2.381   1.349  0.5244 -1.2551  1.2979
40906SOL    HW227657   2.787   2.418   1.313 -0.8975  2.1570 -1.3293
40907SOL     OW27658  10.758   9.735   6.873  0.2636 -0.0488  0.1511
40907SOL    HW127659  10.734   9.822   6.904  1.4475  0.0680  0.7841
40907SOL    HW227660  10.790   9.689   6.950  1.8123 -0.2705 -0.5931
40908SOL     OW27661   1.771   4.081   3.098  0.1359  0.4919  0.3946
40908SOL    HW127662   1.702   4.098   3.163  0.2425  0.5325  0.4975
40908SOL    HW227663   1.852   4.101   3.144  0.2007  0.7218  0.1838
40909SOL     OW27664   9.361   9.306   8.859 -0.0325  0.0602  0.0237
40909SOL    HW127665   9.266   9.313   8.849  0.0657  1.2198 -0.2308
40909SOL    HW227666   9.373   9.274   8.949 -0.6522  1.7424  0.7624
40910SOL     OW27667   1.161   2.017   4.960  0.0397 -0.3646 -0.4220
40910SOL    HW127668   1.173   2.071   5.038 -1.6027  0.8618 -0.9495
40910SOL    HW227669   1.189   1.929   4.987 -0.7502 -0.0392  1.6538
40911SOL     OW27670   3.629   6.621  10.405  0.0060 -0.4863 -0.6163
40911SOL    HW127671   3.548   6.631  10.456 -0.2469 -0.7497 -0.9589
40911SOL    HW227672   3.634   6.700  10.352  1.0897  0.5365  0.9322
40912SOL     OW27673   8.315  11.107  10.732 -0.4363  0.0365 -0.3860
40912SOL    HW127674   8.363  11.165  10.790  1.1298 -0.8048 -0.7774
40912SOL    HW227675   8.273  11.043  10.790  0.9474 -0.6782 -0.1324
40913SOL     OW27676  10.841   9.295   8.754  0.2811 -0.6707 -0.1738
40913SOL    HW127677  10.912   9.308   8.817 -0.5551  1.6409  0.4161
40913SOL    HW227678  10.880   9.242   8.685  2.5470  0.3978  0.1874
40914SOL     OW27679   5.856   2.249   0.283  0.5485 -0.6002  0.4563
40914SOL    HW127680   5.847   2.286   0.370 -0.5580 -0.9234  0.4905
40914SOL    HW227681   5.800   2.171   0.284  0.0500 -0.2813 -0.7188
40915SOL     OW27682   2.843   7.078  11.471 -0.5656 -0.8028  0.0803
40915SOL    HW127683   2.791   7.064  11.392 -0.4326  0.3779 -0.2398
40915SOL    HW227684   2.887   6.995  11.486 -1.1932 -1.2801 -0.6413
40916SOL     OW27685   9.402   9.669   6.491 -0.5967 -0.3643  0.0997
40916SOL    HW127686   9.437   9.582   6.511 -3.1786 -1.7229 -0.8214
40916SOL    HW227687   9.429   9.687   6.401  0.3559  0.0371  0.4569
40917SOL     OW27688   7.798  10.183  11.179  0.3374  0.2128 -0.0449
40917SOL    HW127689   7.788  10.278  11.180  1.1081  0.2950  0.6175
40917SOL    HW227690   7.714  10.150  11.209 -0.1487  0.6506 -0.8685
40918SOL     OW27691   3.321   8.769   5.413  0.0423  0.4162 -0.4101
40918SOL    HW127692   3.271   8.721   5.347  1.5997 -1.2873 -0.4252
40918SOL    HW227693   3.262   8.777   5.487 -0.2203 -1.6995 -0.3590
40919SOL     OW27694   7.018   5.614   6.907 -0.3418  0.0488 -0.8424
40919SOL    HW127695   6.961   5.538   6.892 -0.5091 -0.5035  2.0712
40919SOL    HW227696   7.089   5.603   6.845  0.1304 -3.0682  0.0853
40920SOL     OW27697   8.454   5.645   2.649 -0.1897  0.3585 -0.6822
40920SOL    HW127698   8.374   5.665   2.698  0.2518  3.8845 -1.1856
40920SOL    HW227699   8.423   5.612   2.565 -1.1156  1.1371 -0.6595
40921SOL     OW27700  10.401   3.005   3.659 -0.8383  0.0302 -0.2931
40921SOL    HW127701  10.373   2.936   3.720  1.1053 -0.1574  0.4482
40921SOL    HW227702  10.465   2.962   3.603 -0.1892  1.0329 -0.3349
40922SOL     OW27703   0.144   7.901  10.088  0.3878  0.0822  0.5072
40922SOL    HW127704   0.213   7.910  10.022 -0.2972  1.8664 -0.0078
40922SOL    HW227705   0.149   7.981  10.140  0.7912 -1.1957  2.5845
40923SOL     OW27706   4.287   2.915   1.834 -0.0751 -0.1583  0.2567
40923SOL    HW127707   4.233   2.934   1.911  0.4845  1.6191  0.2524
40923SOL    HW227708   4.241   2.956   1.762  0.1723 -0.5313 -0.1208
40924SOL     OW27709   7.871   0.536   0.724  0.0718  0.4241 -0.3026
40924SOL    HW127710   7.921   0.615   0.745 -0.2498  0.9691 -1.4891
40924SOL    HW227711   7.790   0.546   0.775  0.0890  0.7956 -0.3414
40925SOL     OW27712   5.745   0.148   3.355  0.1932  0.3737 -0.0301
40925SOL    HW127713   5.729   0.124   3.264  0.9260 -0.1208 -0.0435
40925SOL    HW227714   5.839   0.165   3.359  0.3366 -0.5157  0.8285
40926SOL     OW27715  10.076   7.111  10.348  0.3033 -0.2683  0.2247
40926SOL    HW127716  10.097   7.021  10.370 -1.5816 -1.1582 -1.3809
40926SOL    HW227717  10.132   7.163  10.406 -2.4201 -2.2963  5.3401
40927SOL     OW27718   5.313   3.708  10.281  0.5559  0.2067  0.2775
40927SOL    HW127719   5.307   3.709  10.377  2.3637 -0.6141  0.4425
40927SOL    HW227720   5.396   3.752  10.262  0.5829 -0.3051 -0.8624
40928SOL     OW27721  10.588   7.635   5.156  0.6990  0.2138  0.4575
40928SOL    HW127722  10.550   7.595   5.234  0.6236  2.0284  1.3970
40928SOL    HW227723  10.518   7.689   5.120  1.3181  0.8851  0.2282
40929SOL     OW27724  11.330   4.757   4.723  0.0381  0.2339 -0.1814
40929SOL    HW127725  11.388   4.826   4.690 -0.3440  0.4252 -0.4608
40929SOL    HW227726  11.284   4.797   4.797 -1.5136  0.9005 -1.4440
40930SOL     OW27727  10.001   6.237   5.960  0.4626 -0.1740 -0.1796
40930SOL    HW127728  10.050   6.175   5.907  1.0986 -0.4465  0.7190
40930SOL    HW227729  10.064   6.306   5.982  0.2385 -0.1155  0.3071
40931SOL     OW27730   7.744   7.946   0.899  0.3792 -0.1294  0.3633
40931SOL    HW127731   7.692   7.975   0.973  1.2621  0.9659  0.5879
40931SOL    HW227732   7.722   8.007   0.828  0.8627 -0.0473  0.2765
40932SOL     OW27733   0.494   4.769   7.871  0.2903  0.3290  0.7792
40932SOL    HW127734   0.560   4.731   7.929 -0.0779  0.3424  1.2150
40932SOL    HW227735   0.475   4.701   7.807  0.6721  0.2988  0.6979
40933SOL     OW27736   1.610   5.059   1.437 -0.0689 -0.4574 -0.3915
40933SOL    HW127737   1.675   5.125   1.414 -0.6586  0.3354  0.1455
40933SOL    HW227738   1.655   5.002   1.500  0.4411 -0.5779 -0.8532
40934SOL     OW27739   1.572   1.105   1.238  0.1445  0.4133 -0.0896
40934SOL    HW127740   1.563   1.040   1.169 -1.0240 -0.1176  0.5221
40934SOL    HW227741   1.579   1.053   1.319 -2.2586  0.9886  0.5640
40935SOL     OW27742   3.337   8.768   1.191  0.0897  0.5596  0.0006
40935SOL    HW127743   3.246   8.785   1.167 -0.2567 -0.8485  0.2613
40935SOL    HW227744   3.333   8.696   1.254  1.2644  1.5699  1.3084
40936SOL     OW27745   1.436  10.484   9.412 -0.4800 -0.2150  0.7516
40936SOL    HW127746   1.401  10.543   9.478 -0.0638  1.3588 -0.3823
40936SOL    HW227747   1.359  10.449   9.367 -0.7483 -1.0179  1.7903
40937SOL     OW27748   0.457   6.757   9.998 -0.7001 -0.2406 -0.3531
40937SOL    HW127749   0.539   6.783   9.957 -0.0638  0.6930  1.3780
40937SOL    HW227750   0.448   6.664   9.979  0.9395 -0.4243 -0.3000
40938SOL     OW27751   1.768   5.768   1.003  0.6001  0.0150 -0.1295
40938SOL    HW127752   1.720   5.847   1.029  0.5331 -0.1712  0.3355
40938SOL    HW227753   1.860   5.794   1.004  0.5118  0.4133 -1.1623
40939SOL     OW27754   6.899   1.563   6.209 -0.0295 -0.0680 -0.2022
40939SOL    HW127755   6.842   1.617   6.264 -0.3029  0.4602 -0.9867
40939SOL    HW227756   6.964   1.529   6.270 -1.1630 -0.6821  0.7102
40940SOL     OW27757   0.458   5.310   1.319 -0.5292 -0.1638 -0.4461
40940SOL    HW127758   0.527   5.321   1.385  1.9201 -1.2018 -2.6339
40940SOL    HW227759   0.502   5.330   1.236 -2.5695 -1.9500 -2.0693
40941SOL     OW27760   4.394   1.421   0.010  0.3916 -0.1670  0.0361
40941SOL    HW127761   4.381   1.451  -0.080 -3.4383  0.0659  0.5163
40941SOL    HW227762   4.442   1.492   0.052  0.4810  0.6241 -1.3427
40942SOL     OW27763   7.295  11.324   1.826  0.5454 -0.4356 -0.2095
40942SOL    HW127764   7.304  11.414   1.797  1.1018 -0.9005 -1.5669
40942SOL    HW227765   7.302  11.272   1.746 -1.8265 -1.5987  0.2688
40943SOL     OW27766  11.122   2.159   2.194  0.3241  0.2894 -0.5694
40943SOL    HW127767  11.186   2.196   2.256 -0.4653  0.6908  0.0288
40943SOL    HW227768  11.055   2.120   2.250 -0.3824  0.6150 -1.1771
40944SOL     OW27769   1.862   6.258   4.771 -0.0408  0.3093  0.2736
40944SOL    HW127770   1.904   6.343   4.781 -0.1180  0.3436  0.3146
40944SOL    HW227771   1.769   6.275   4.791 -0.2049  0.3853 -0.5475
40945SOL     OW27772   5.216  11.621   8.307 -0.4320  0.5702 -0.0078
40945SOL    HW127773   5.122  11.624   8.286 -0.9234 -2.2660  1.3799
40945SOL    HW227774   5.242  11.532   8.286  2.0889  1.3625 -0.5850
40946SOL     OW27775   3.101   5.636   5.132 -0.3969 -0.1410 -0.2240
40946SOL    HW127776   3.070   5.547   5.152 -0.6722  0.1145  0.4870
40946SOL    HW227777   3.120   5.674   5.217  1.4349 -0.1231 -0.6175
40947SOL     OW27778   1.220   8.445   0.415 -0.2520 -0.0863 -0.5163
40947SOL    HW127779   1.228   8.533   0.454  0.3354  0.4547 -1.7854
40947SOL    HW227780   1.309   8.411   0.416 -0.3059 -0.2461 -0.9618
40948SOL     OW27781   0.960   4.909  11.547 -0.0397  0.2790  0.1075
40948SOL    HW127782   0.890   4.961  11.508  0.4948 -0.0423 -1.3062
40948SOL    HW227783   1.039   4.937  11.503  0.3060 -1.5350 -0.5137
40949SOL     OW27784   0.041   4.609   1.478  0.2894 -0.0667  0.0911
40949SOL    HW127785   0.023   4.516   1.463  0.1088 -0.3982  2.1529
40949SOL    HW227786   0.007   4.627   1.566  1.7106  1.5863  0.3572
40950SOL     OW27787   8.466   8.646   2.331 -0.5098 -0.2521 -0.2014
40950SOL    HW127788   8.477   8.552   2.323 -0.4054 -0.4049  1.3982
40950SOL    HW227789   8.477   8.679   2.242  0.8726 -1.6086 -0.5788
40951SOL     OW27790   2.353   3.286   6.470 -0.3569 -0.6713 -0.1411
40951SOL    HW127791   2.303   3.248   6.398 -0.7202 -2.4394  0.9584
40951SOL    HW227792   2.396   3.211   6.511  2.2573  0.6281 -0.2776
40952SOL     OW27793   1.650   3.376   3.362 -0.3852 -0.0591  0.4642
40952SOL    HW127794   1.579   3.376   3.427 -0.5053  1.8614  0.3727
40952SOL    HW227795   1.612   3.334   3.285 -0.7256 -0.9585  1.0915
40953SOL     OW27796   0.432   1.215   0.153  0.1264  0.2302 -0.1089
40953SOL    HW127797   0.494   1.169   0.096  0.1223 -0.2246  0.2447
40953SOL    HW227798   0.485   1.280   0.198  0.3851 -0.2447  0.2907
40954SOL     OW27799  10.467   5.684   7.919  0.0698 -0.0046  0.0343
40954SOL    HW127800  10.516   5.715   7.843 -0.5703 -1.5350 -1.0318
40954SOL    HW227801  10.472   5.589   7.915 -2.8739 -0.2531 -0.0706
40955SOL     OW27802   3.766   9.720   2.003  0.0289 -0.1252 -0.0417
40955SOL    HW127803   3.812   9.687   2.080 -0.2960  0.4433  0.3992
40955SOL    HW227804   3.742   9.640   1.955  1.1130 -0.4419 -0.0828
40956SOL     OW27805   0.795   7.755  10.788 -0.8776  0.2337 -0.1117
40956SOL    HW127806   0.785   7.722  10.699 -1.3476 -0.5475  0.2206
40956SOL    HW227807   0.730   7.826  10.795 -1.4674 -0.2967 -0.1157
40957SOL     OW27808   3.847   6.508  11.475 -0.5067  0.3387 -0.1128
40957SOL    HW127809   3.779   6.446  11.503 -0.4636  0.0626 -0.6108
40957SOL    HW227810   3.799   6.588  11.454 -0.5253  0.6100  0.8891
40958SOL     OW27811   9.324   1.745   4.637 -0.4797 -0.0673 -0.3254
40958SOL    HW127812   9.363   1.696   4.708  2.1111  0.8471 -0.9998
40958SOL    HW227813   9.358   1.834   4.647 -0.6229  0.2640 -2.2465
40959SOL     OW27814   7.348  10.235   0.841  0.1189  0.4299  0.1537
40959SOL    HW127815   7.349  10.317   0.889  2.0804  0.9025 -0.6036
40959SOL    HW227816   7.432  10.193   0.862 -0.0278 -0.4791 -0.9464
40960SOL     OW27817   7.273   6.959   7.344 -0.1216 -1.0387 -0.1583
40960SOL    HW127818   7.259   7.025   7.412  0.0387  0.6192 -1.6487
40960SOL    HW227819   7.197   6.901   7.351 -0.6571 -0.2660  0.7199
40961SOL     OW27820   8.537   6.320   5.405  0.4393  0.1895  0.0784
40961SOL    HW127821   8.501   6.408   5.404 -1.6287 -0.5788  1.0313
40961SOL    HW227822   8.572   6.306   5.317  0.0157  1.6271 -0.3355
40962SOL     OW27823   3.338   6.979   2.794  0.1665 -0.1175 -0.3737
40962SOL    HW127824   3.400   6.972   2.722  1.9497 -1.1861  1.1612
40962SOL    HW227825   3.359   6.905   2.851 -0.8401  0.9292  1.4574
40963SOL     OW27826   5.805   1.340   0.505 -0.2452  0.7209  0.0074
40963SOL    HW127827   5.876   1.278   0.521 -0.3095  0.5445 -0.3829
40963SOL    HW227828   5.766   1.310   0.423 -2.2315 -0.5940  1.3352
40964SOL     OW27829   1.241   2.722   2.476 -0.1178 -0.0137 -0.0233
40964SOL    HW127830   1.153   2.689   2.498  0.0855  0.2880  1.3018
40964SOL    HW227831   1.273   2.661   2.409 -1.2412 -0.2618 -0.3593
40965SOL     OW27832   0.058   3.651   3.239  0.0418  0.8945  0.1353
40965SOL    HW127833   0.005   3.720   3.199  0.6898  1.9117  0.9820
40965SOL    HW227834   0.127   3.634   3.175 -0.7874  0.1845 -0.5869
40966SOL     OW27835   1.564  11.192   7.271  0.0858 -0.4552  0.4442
40966SOL    HW127836   1.541  11.285   7.268  2.2043  0.1308  0.4348
40966SOL    HW227837   1.597  11.173   7.183  0.8741 -0.8391  0.8085
40967SOL     OW27838   4.952  10.637   9.731  0.0057  0.1171  0.2015
40967SOL    HW127839   4.894  10.605   9.800  0.0512  0.0810  0.2227
40967SOL    HW227840   4.913  10.604   9.650  1.0972 -1.6276  0.3415
40968SOL     OW27841   4.704   2.902   4.296  0.0017  0.1683 -0.1920
40968SOL    HW127842   4.753   2.904   4.214 -1.2985 -0.1241 -1.0089
40968SOL    HW227843   4.618   2.938   4.274 -0.0082  1.1710  1.3177
40969SOL     OW27844   6.731   0.436   5.369 -0.4243  0.1922 -0.4682
40969SOL    HW127845   6.820   0.438   5.336 -0.5469  0.1299 -0.7999
40969SOL    HW227846   6.739   0.401   5.458  0.0466  1.5088  0.0384
40970SOL     OW27847   1.652   0.285   0.209 -0.3666  0.1208  0.6561
40970SOL    HW127848   1.673   0.284   0.116  1.2881  2.0138  0.9195
40970SOL    HW227849   1.698   0.209   0.245  0.5161  0.4170  0.1775
40971SOL     OW27850   1.433  11.219  10.839  0.1408  0.7687  0.4658
40971SOL    HW127851   1.382  11.297  10.859  2.2135  1.7804  2.2957
40971SOL    HW227852   1.498  11.215  10.909  0.2732 -2.5027  0.3077
40972SOL     OW27853   8.955  11.140   6.987 -0.0262 -0.7456 -0.4377
40972SOL    HW127854   8.929  11.052   7.014 -0.6617  0.0499  1.7383
40972SOL    HW227855   8.901  11.159   6.911 -0.0541 -2.1231 -0.7882
40973SOL     OW27856   3.970  10.881   4.876  0.1051  0.4339  0.2939
40973SOL    HW127857   3.934  10.945   4.815 -0.0010 -0.9590 -1.1670
40973SOL    HW227858   3.893  10.839   4.914  0.0009 -2.0778 -2.3333
40974SOL     OW27859   8.039  10.810  11.015 -0.3719 -0.1118  0.4163
40974SOL    HW127860   7.982  10.848  10.949  0.6331  1.4733  0.4028
40974SOL    HW227861   8.006  10.846  11.098 -0.6984 -0.8966  0.6359
40975SOL     OW27862   7.838  11.367   3.744  0.1325  0.1400 -0.2667
40975SOL    HW127863   7.790  11.351   3.662  0.3760  0.7509 -0.5390
40975SOL    HW227864   7.770  11.389   3.808 -0.0989 -0.7671 -0.1868
40976SOL     OW27865   8.854   7.928  10.063 -0.2257  0.2621  0.0456
40976SOL    HW127866   8.891   7.862  10.123  0.0234  0.4477  0.0960
40976SOL    HW227867   8.831   7.879   9.984 -0.7418 -0.0226  0.3631
40977SOL     OW27868   2.471   2.827   4.359 -0.0856 -0.6454 -0.1514
40977SOL    HW127869   2.510   2.778   4.286 -1.8856  1.4975 -2.7586
40977SOL    HW227870   2.380   2.798   4.362 -0.2067 -0.2071  0.7847
40978SOL     OW27871   6.572   7.191   8.210  0.0378  0.3949  0.3509
40978SOL    HW127872   6.478   7.170   8.209 -0.1919  1.3711 -0.0482
40978SOL    HW227873   6.601   7.174   8.120  0.6021 -1.3463  0.8279
40979SOL     OW27874  10.725   5.270   0.938  0.2968  0.1959 -0.1471
40979SOL    HW127875  10.669   5.307   0.870  0.4615 -1.3896 -1.2010
40979SOL    HW227876  10.805   5.245   0.892  1.5774  1.6502  1.1788
40980SOL     OW27877   6.986   1.074   3.701  0.1134 -0.4353  0.1198
40980SOL    HW127878   7.047   1.002   3.683  1.1151  0.0452  1.3811
40980SOL    HW227879   7.035   1.153   3.676 -1.0328 -0.1708 -1.3998
40981SOL     OW27880   1.868   4.692   2.500 -1.1022  0.2954 -0.0798
40981SOL    HW127881   1.845   4.599   2.500  1.6029 -0.4612  0.1458
40981SOL    HW227882   1.931   4.700   2.429  1.4351  1.1295  2.1129
40982SOL     OW27883   0.839   7.265   6.527 -0.2905  0.0642 -0.2060
40982SOL    HW127884   0.805   7.297   6.611  0.1065  1.3798 -0.5226
40982SOL    HW227885   0.867   7.175   6.546  1.8869  1.0170  1.7222
40983SOL     OW27886   9.421  11.105   4.731 -0.0953  0.2779 -0.4363
40983SOL    HW127887   9.332  11.124   4.762 -0.2820  0.4404 -1.0502
40983SOL    HW227888   9.478  11.150   4.793 -0.2952 -2.1757  1.7056
40984SOL     OW27889   3.948   2.168  11.031  0.3512  0.0334  0.0804
40984SOL    HW127890   4.000   2.091  11.054  0.0268 -0.0888  0.4275
40984SOL    HW227891   4.012   2.237  11.016  0.7951 -0.8207 -2.4041
40985SOL     OW27892   4.118  10.883   9.223 -0.1793  0.2509  0.3706
40985SOL    HW127893   4.199  10.847   9.260 -1.1749 -0.8711  1.5817
40985SOL    HW227894   4.067  10.805   9.199 -1.8500  0.8328  1.8084
40986SOL     OW27895   0.966   3.795  11.326 -0.0211  0.4569 -0.1924
40986SOL    HW127896   1.047   3.837  11.357 -1.6092  2.5989  1.3359
40986SOL    HW227897   0.949   3.835  11.241  0.3289  0.2618 -0.3554
40987SOL     OW27898   6.565   7.675  11.110 -0.1916 -0.3623 -0.1899
40987SOL    HW127899   6.575   7.716  11.024  0.4098 -0.8786 -0.3791
40987SOL    HW227900   6.497   7.726  11.153  0.2054  0.5355 -0.5935
40988SOL     OW27901   1.195   9.966   6.922  0.6146 -0.1627  0.2677
40988SOL    HW127902   1.270   9.923   6.964  0.9981  1.1653  1.0057
40988SOL    HW227903   1.213   9.961   6.828  0.9885 -0.9820  0.3760
40989SOL     OW27904   9.509   1.163   2.585  0.2101 -0.2393 -0.2758
40989SOL    HW127905   9.425   1.124   2.559 -0.8207  1.0686  0.9331
40989SOL    HW227906   9.560   1.167   2.504 -0.8544 -1.1367 -1.0196
40990SOL     OW27907   9.463   7.528   8.394  0.4234  0.4890  0.4936
40990SOL    HW127908   9.405   7.586   8.345 -0.1632 -0.7148 -0.2865
40990SOL    HW227909   9.464   7.563   8.483 -1.9917  0.1960  0.6858
40991SOL     OW27910   2.099   2.970   3.870  0.3287 -0.0301  0.2559
40991SOL    HW127911   2.062   2.977   3.958 -0.0854  0.8492  0.0228
40991SOL    HW227912   2.036   3.015   3.813  0.8245 -0.1685 -0.4263
40992SOL     OW27913   7.938   8.457   1.337 -0.1487 -0.1056  0.4809
40992SOL    HW127914   7.872   8.505   1.387 -1.9084 -2.5239  0.6400
40992SOL    HW227915   7.983   8.404   1.402 -0.2887 -0.9119 -0.0676
40993SOL     OW27916   0.376   3.198   6.724  0.0862 -0.4164  0.0128
40993SOL    HW127917   0.392   3.258   6.651 -1.8026 -0.1311 -0.2212
40993SOL    HW227918   0.449   3.136   6.721 -0.4394 -1.0249 -2.7497
40994SOL     OW27919   7.722  10.444   4.071  0.5300 -0.3246  0.2016
40994SOL    HW127920   7.759  10.514   4.018  0.8132 -0.6591 -0.0450
40994SOL    HW227921   7.723  10.478   4.161 -1.2322  0.7958 -0.1506
40995SOL     OW27922   1.729   3.650   4.345  0.1815  0.3641 -0.3684
40995SOL    HW127923   1.728   3.746   4.350 -1.4853  0.4233 -1.2008
40995SOL    HW227924   1.746   3.630   4.253  1.7296 -0.1910  0.0062
40996SOL     OW27925   6.396   2.610   4.149  0.3852  0.2607  0.4820
40996SOL    HW127926   6.352   2.683   4.191 -0.4850  0.0070  0.0387
40996SOL    HW227927   6.327   2.546   4.132  0.9030 -0.1029 -0.3449
40997SOL     OW27928   5.805   1.226  10.288 -0.3204 -0.5955 -0.5325
40997SOL    HW127929   5.878   1.184  10.335 -0.6439  1.3589  1.9130
40997SOL    HW227930   5.737   1.159  10.284 -0.8103 -0.5022  3.2199
40998SOL     OW27931   1.539   2.088   5.390  0.5398 -0.1979  0.2955
40998SOL    HW127932   1.538   2.138   5.309  0.4122  0.9359  0.9840
40998SOL    HW227933   1.463   2.029   5.384  0.7928 -0.4445 -0.5887
40999SOL     OW27934   5.973  11.595   4.721 -0.1322 -0.0136  0.2970
40999SOL    HW127935   6.048  11.572   4.775  0.1771 -2.8143 -1.1329
40999SOL    HW227936   6.010  11.618   4.636 -0.8025 -1.2484 -0.3686
41000SOL     OW27937   2.703   7.788   3.449  0.5742 -0.6275  0.1200
41000SOL    HW127938   2.700   7.692   3.459 -0.4887 -0.6753 -0.5005
41000SOL    HW227939   2.794   7.810   3.464  1.3191 -2.0010 -1.9205
41001SOL     OW27940   0.349   6.445   2.622 -0.2752 -0.1701  0.7261
41001SOL    HW127941   0.382   6.359   2.648 -0.6380 -1.2523 -1.9782
41001SOL    HW227942   0.276   6.425   2.562 -0.1311  1.9940 -0.2588
41002SOL     OW27943   3.966  10.586   9.158 -0.3937 -0.4700  0.3221
41002SOL    HW127944   3.881  10.620   9.129  0.8780  1.8304 -0.9877
41002SOL    HW227945   3.985  10.515   9.096 -0.7083 -0.0060 -0.3225
41003SOL     OW27946   4.157   7.630   4.832 -0.2513 -0.5292  0.0194
41003SOL    HW127947   4.190   7.684   4.760 -2.4763  0.0216 -0.6620
41003SOL    HW227948   4.201   7.665   4.910  1.7747 -0.7689 -0.9416
41004SOL     OW27949   5.577   2.163   2.603  0.0408 -0.0945  0.0340
41004SOL    HW127950   5.582   2.180   2.509 -1.1292  0.1299 -0.0047
41004SOL    HW227951   5.573   2.068   2.611 -1.4000 -0.0763 -0.2547
41005SOL     OW27952   7.472   2.925  11.170 -0.1518  0.5488 -0.3317
41005SOL    HW127953   7.421   2.862  11.119 -1.0153  0.5287  0.5291
41005SOL    HW227954   7.493   2.995  11.108 -1.0141  0.4317 -0.7721
41006SOL     OW27955   7.593   4.503  11.556  0.3293  0.0620  0.0750
41006SOL    HW127956   7.576   4.415  11.589 -0.7485  0.4228  0.5053
41006SOL    HW227957   7.621   4.488  11.465  2.4213 -0.8618  0.8095
41007SOL     OW27958   9.990   9.976   7.708 -0.1183 -0.5191 -0.0134
41007SOL    HW127959   9.964   9.973   7.800  0.3485 -0.3035  0.1274
41007SOL    HW227960  10.083   9.956   7.708 -0.4352 -2.2405 -0.6031
41008SOL     OW27961   0.684   2.060   4.193 -0.5175  0.0309  0.8858
41008SOL    HW127962   0.695   2.126   4.260  0.6226  1.1854 -0.3762
41008SOL    HW227963   0.685   1.977   4.241 -1.5583  0.8735  2.4490
41009SOL     OW27964   0.442   6.198   9.062  0.3731  0.0255  0.1136
41009SOL    HW127965   0.523   6.185   9.013 -0.1850 -1.9655 -0.3752
41009SOL    HW227966   0.375   6.155   9.009 -1.0649  1.7444  0.4313
41010SOL     OW27967  10.932   9.712  10.786 -0.5113 -0.4025  0.3608
41010SOL    HW127968  10.845   9.744  10.764  0.6516  1.6177 -1.8221
41010SOL    HW227969  10.931   9.704  10.882 -2.6101  1.1291  0.5416
41011SOL     OW27970   7.869   8.906   3.924  0.6020  0.0899 -0.5368
41011SOL    HW127971   7.800   8.840   3.924  0.1577  0.5247  0.8022
41011SOL    HW227972   7.923   8.884   3.848 -0.7987 -0.4664 -1.4129
41012SOL     OW27973   5.719   3.861   7.369  0.3342  0.3363 -0.4407
41012SOL    HW127974   5.815   3.867   7.368  0.4339 -1.0077 -0.1737
41012SOL    HW227975   5.698   3.796   7.302 -0.3773  0.3567 -0.2483
41013SOL     OW27976   6.943   9.113  11.181  0.1333 -0.2160  0.1110
41013SOL    HW127977   7.034   9.102  11.210 -0.1309 -2.1251  0.3463
41013SOL    HW227978   6.950   9.158  11.097  1.2672 -0.0203  0.2849
41014SOL     OW27979  10.506   4.795   7.385  0.1713  0.3781  0.0492
41014SOL    HW127980  10.483   4.771   7.296 -1.3335 -1.0290  0.7619
41014SOL    HW227981  10.596   4.829   7.379  1.3570 -2.6815 -1.5502
41015SOL     OW27982   0.843   1.717   1.291 -0.1617 -0.3857 -0.4560
41015SOL    HW127983   0.877   1.804   1.269 -1.9092  0.0302 -1.7183
41015SOL    HW227984   0.750   1.732   1.310 -0.7132 -2.1048 -1.5820
41016SOL     OW27985  11.611   7.845   7.730 -0.4340 -0.3383 -0.2239
41016SOL    HW127986  11.580   7.891   7.808 -0.4218 -0.2319 -0.2822
41016SOL    HW227987  11.538   7.789   7.704  0.1416 -1.6841  0.8712
41017SOL     OW27988   9.776   7.150   4.514 -0.0623 -0.3401  0.0872
41017SOL    HW127989   9.764   7.056   4.528 -0.1402 -0.1526  1.5134
41017SOL    HW227990   9.701   7.177   4.461 -1.2164 -0.7395  1.4441
41018SOL     OW27991   5.565   3.555   6.040 -0.2459 -0.1812  0.1055
41018SOL    HW127992   5.559   3.512   6.125 -0.5002  0.1025  0.2328
41018SOL    HW227993   5.638   3.616   6.048  0.8791 -1.4151 -0.4498
41019SOL     OW27994   3.364   0.125   9.423 -0.3157  0.1061 -0.5401
41019SOL    HW127995   3.450   0.126   9.380 -0.2565  1.0702 -0.4289
41019SOL    HW227996   3.302   0.127   9.350 -0.2622 -0.8521 -0.6282
41020SOL     OW27997   1.345   0.367   9.191  0.3286  0.6738 -0.2281
41020SOL    HW127998   1.346   0.277   9.159  0.3453  0.3184  0.7276
41020SOL    HW227999   1.295   0.416   9.125 -1.0827 -0.3614  0.0265
41021SOL     OW28000   8.053   1.044   0.464  0.1066 -0.4944 -0.1190
41021SOL    HW128001   8.115   1.006   0.526 -0.1780  1.7724  1.6950
41021SOL    HW228002   8.106   1.103   0.411  0.2624 -2.0782 -1.7930
41022SOL     OW28003   0.938   0.671   3.270  0.0731  0.8476  0.4213
41022SOL    HW128004   1.024   0.633   3.285  0.9018  2.1393 -0.7360
41022SOL    HW228005   0.879   0.620   3.324  1.5650 -0.0761  1.2449
41023SOL     OW28006   9.674  11.641   0.335  0.1359  0.4528 -0.6090
41023SOL    HW128007   9.657  11.560   0.287  1.0708 -0.2487  0.2260
41023SOL    HW228008   9.769  11.645   0.344  0.0711  1.3859 -0.1976
41024SOL     OW28009   3.993   7.708   8.708 -0.3117  0.1313 -0.0581
41024SOL    HW128010   4.055   7.669   8.647 -0.8379  1.1443 -1.2947
41024SOL    HW228011   4.044   7.722   8.788 -0.0314 -2.7018  0.3595
41025SOL     OW28012   5.903   9.968   9.616  0.0042  0.2697 -0.5644
41025SOL    HW128013   5.844  10.042   9.604  0.7448  0.9091 -0.3978
41025SOL    HW228014   5.880   9.933   9.702 -0.2856  0.3660 -0.6014
41026SOL     OW28015   4.675   1.424   0.934  0.1588  0.3864  0.7403
41026SOL    HW128016   4.637   1.470   1.009 -1.0352 -1.5094  1.3772
41026SOL    HW228017   4.705   1.340   0.970  1.3208  0.2074 -0.5569
41027SOL     OW28018   3.082   7.254   7.054  0.3469  0.0239  0.7495
41027SOL    HW128019   3.082   7.159   7.047  0.3758  0.1329 -2.7519
41027SOL    HW228020   3.170   7.276   7.085  0.4631 -1.0489  1.2283
41028SOL     OW28021   7.936   8.577   5.185  0.2250  0.3093  0.3671
41028SOL    HW128022   7.995   8.516   5.141 -2.2909  0.3119 -3.5136
41028SOL    HW228023   7.949   8.660   5.139 -1.3002  0.8472  0.8506
41029SOL     OW28024   3.994   0.629   1.618 -0.0944  0.3086  0.0712
41029SOL    HW128025   4.013   0.665   1.532  1.5264  0.9403  0.6600
41029SOL    HW228026   3.932   0.691   1.657  1.7601  1.9009  0.6162
41030SOL     OW28027   7.417   3.471   8.258  0.4977 -0.3089 -0.4950
41030SOL    HW128028   7.409   3.532   8.331  0.0911  0.4043 -1.1246
41030SOL    HW228029   7.441   3.387   8.299  0.9718  0.2410  0.3846
41031SOL     OW28030   4.734   1.657   2.699 -0.4880 -0.5945 -0.0793
41031SOL    HW128031   4.683   1.654   2.779 -1.8366 -0.8825 -0.9144
41031SOL    HW228032   4.818   1.616   2.722  0.8465  2.9738  2.2774
41032SOL     OW28033   0.483   6.212   7.090 -0.3370 -0.3591 -0.0153
41032SOL    HW128034   0.539   6.183   7.161 -0.3101  0.1668  0.1825
41032SOL    HW228035   0.398   6.229   7.131 -0.5856 -0.9488 -0.2744
41033SOL     OW28036   0.428   2.685   2.938 -0.1792  0.1475 -0.2650
41033SOL    HW128037   0.473   2.637   3.008 -1.6378  0.2506  0.7908
41033SOL    HW228038   0.428   2.625   2.863  0.5059 -0.3769  0.1450
41034SOL     OW28039   0.196   5.430  10.987 -0.5172 -0.0835 -0.0688
41034SOL    HW128040   0.273   5.378  11.012 -0.3773  0.2707  0.2389
41034SOL    HW228041   0.193   5.423  10.891 -0.5463 -0.7208 -0.0298
41035SOL     OW28042   2.767   2.703   7.673  0.1259 -0.2110 -0.4681
41035SOL    HW128043   2.686   2.664   7.705  0.5713 -0.1640  0.7807
41035SOL    HW228044   2.829   2.630   7.668 -0.0642 -0.3037 -1.7170
41036SOL     OW28045   2.990   2.223   6.514  0.5254 -0.0385  0.1472
41036SOL    HW128046   3.051   2.178   6.572  1.8872  0.7957 -0.5896
41036SOL    HW228047   2.974   2.161   6.443  0.0179 -0.4873  0.6391
41037SOL     OW28048  10.277   4.017   8.949  0.1315 -0.3716  0.9530
41037SOL    HW128049  10.244   4.057   8.869 -0.3463 -0.2686  1.1955
41037SOL    HW228050  10.294   3.926   8.925  0.1558 -0.2968  0.6876
41038SOL     OW28051  10.071   5.469   0.772  0.4471  0.1139  0.4878
41038SOL    HW128052  10.054   5.376   0.781  1.1632 -0.2584 -1.4802
41038SOL    HW228053  10.009   5.498   0.705 -0.8662  1.4352  2.1682
41039SOL     OW28054   1.457  10.897  10.977 -0.0170 -0.3678  0.1160
41039SOL    HW128055   1.403  10.974  10.994 -0.3368 -0.5692  0.0199
41039SOL    HW228056   1.521  10.926  10.912 -0.5007 -0.3403 -0.3576
41040SOL     OW28057   8.097   0.709   3.581  0.0967 -0.1928  0.1662
41040SOL    HW128058   8.041   0.647   3.627 -0.6792  0.0829 -0.3840
41040SOL    HW228059   8.178   0.661   3.565  0.6339 -0.0956  2.3317
41041SOL     OW28060   1.935   7.900   2.987  0.1202 -0.1126 -0.2541
41041SOL    HW128061   1.840   7.894   2.989 -0.0700  2.0139 -0.6673
41041SOL    HW228062   1.963   7.820   2.944 -1.4354 -1.0343  0.3689
41042SOL     OW28063  10.482   4.181   1.349  0.1042 -0.2514 -0.4250
41042SOL    HW128064  10.544   4.238   1.394 -0.3187  0.5592 -0.8418
41042SOL    HW228065  10.397   4.202   1.389 -0.2047  0.1398 -1.2425
41043SOL     OW28066   3.817  11.248   0.893 -0.0725  0.3020  0.1050
41043SOL    HW128067   3.785  11.331   0.856  2.4904  1.1832 -0.3356
41043SOL    HW228068   3.774  11.242   0.979 -0.6694  1.8599 -0.0563
41044SOL     OW28069   1.908   7.796   0.243  0.2073  0.3200  0.3802
41044SOL    HW128070   1.880   7.878   0.204 -0.4804 -0.4727 -0.8634
41044SOL    HW228071   1.861   7.791   0.326  0.2376  1.1560  0.4504
41045SOL     OW28072   5.978   1.516   5.934 -0.0948 -0.4742  0.1839
41045SOL    HW128073   5.886   1.510   5.908 -0.5334 -0.1786  1.6208
41045SOL    HW228074   6.013   1.589   5.881 -1.1617  0.6282  0.9445
41046SOL     OW28075   7.240   9.030  10.274 -0.1308  0.2109 -0.5807
41046SOL    HW128076   7.261   8.938  10.263 -0.4092  0.2905 -1.9291
41046SOL    HW228077   7.325   9.074  10.280  0.0131 -0.0335 -0.8185
41047SOL     OW28078   9.944   4.919  10.367  0.2903 -0.0713  0.0148
41047SOL    HW128079   9.880   4.853  10.340  0.6617 -0.3547 -0.1726
41047SOL    HW228080   9.950   4.910  10.462  1.6950 -1.5546 -0.1826
41048SOL     OW28081   3.466   4.404   6.060 -0.3805 -0.0869  0.2619
41048SOL    HW128082   3.452   4.446   5.975  0.8005 -2.3892 -1.1735
41048SOL    HW228083   3.378   4.390   6.095 -1.0313 -0.9789 -1.6062
41049SOL     OW28084   8.118   3.529   1.315 -0.4189 -0.2660 -0.2471
41049SOL    HW128085   8.027   3.555   1.302 -0.5138 -0.3235  0.2678
41049SOL    HW228086   8.113   3.436   1.338 -0.0789 -0.8015 -2.1361
41050SOL     OW28087   7.783   5.487   1.153  0.3504  0.2766 -0.3870
41050SOL    HW128088   7.720   5.470   1.223 -0.1971  0.6668 -0.7752
41050SOL    HW228089   7.832   5.563   1.185 -0.2548  0.7911 -0.6446
41051SOL     OW28090   6.585   3.747   6.660 -0.6659 -0.2608  0.3666
41051SOL    HW128091   6.647   3.804   6.615 -1.6899 -0.0180 -0.7936
41051SOL    HW228092   6.500   3.769   6.621 -1.1487 -2.2769  0.2006
41052SOL     OW28093   7.263   3.715   0.275  0.1079 -0.4670  0.6269
41052SOL    HW128094   7.336   3.764   0.237 -0.7462 -0.3925 -1.0337
41052SOL    HW228095   7.200   3.782   0.301 -1.4624 -0.5176 -2.4708
41053SOL     OW28096   4.008   8.916   9.388 -0.2784  0.7850 -0.0273
41053SOL    HW128097   3.966   8.876   9.312 -0.4173  1.2861 -0.2132
41053SOL    HW228098   3.935   8.933   9.449 -0.1264  0.0651  0.3663
41054SOL     OW28099   3.413  11.613  10.223 -0.0604  0.1305  0.2988
41054SOL    HW128100   3.500  11.598  10.261 -0.6460  0.5345  1.9135
41054SOL    HW228101   3.353  11.578  10.288 -1.1460  1.1284 -0.1252
41055SOL     OW28102   1.494   0.960   9.805 -0.3881 -0.2702 -0.1026
41055SOL    HW128103   1.502   1.016   9.882 -0.7304  0.5824 -0.6746
41055SOL    HW228104   1.477   0.873   9.841  0.6119 -0.1137  0.8089
41056SOL     OW28105   1.315   7.857   2.222  0.4837 -0.2837 -0.1050
41056SOL    HW128106   1.302   7.764   2.241 -2.0640 -0.1256 -0.7353
41056SOL    HW228107   1.331   7.859   2.127 -1.2172  0.0091 -0.4134
41057SOL     OW28108   6.380   8.880   1.486  0.2402 -0.1843  0.0361
41057SOL    HW128109   6.474   8.884   1.464  0.2847 -1.4462 -0.0688
41057SOL    HW228110   6.373   8.809   1.549 -0.1480  2.2493  2.9939
41058SOL     OW28111   8.585   6.112   0.668 -0.3610  0.1352  0.6133
41058SOL    HW128112   8.610   6.138   0.579 -3.9456  0.0743 -0.5630
41058SOL    HW228113   8.557   6.194   0.709 -1.6347 -0.2459  0.5525
41059SOL     OW28114   5.736   3.890  11.246  0.1395 -0.3574 -0.2866
41059SOL    HW128115   5.826   3.921  11.244 -0.1531  0.5017 -0.6165
41059SOL    HW228116   5.725   3.856  11.335  1.2596 -1.9799 -0.7274
41060SOL     OW28117   1.212   3.584   2.276  0.1337  0.4219  0.6150
41060SOL    HW128118   1.157   3.614   2.349 -2.1454 -1.4909 -0.2115
41060SOL    HW228119   1.296   3.564   2.317 -0.4435  1.3255  2.3513
41061SOL     OW28120   6.413   1.966  10.987 -0.0766 -0.1349  0.1395
41061SOL    HW128121   6.354   2.019  10.933 -1.3731  0.8476  2.4154
41061SOL    HW228122   6.391   1.876  10.964  0.2711  0.2150 -1.8066
41062SOL     OW28123  10.542  10.629   4.188  0.5869  0.2571 -0.3219
41062SOL    HW128124  10.617  10.573   4.170 -0.5298 -1.6874  0.7782
41062SOL    HW228125  10.535  10.630   4.284 -2.1904 -1.6419 -0.4164
41063SOL     OW28126   9.386   3.005   6.803  0.5407  0.0454  0.0196
41063SOL    HW128127   9.468   2.966   6.771  0.2220 -1.0798  0.5284
41063SOL    HW228128   9.320   2.937   6.790 -0.0467  0.4243  0.9017
41064SOL     OW28129   4.707   3.987   1.364 -0.0592 -0.1447  0.1437
41064SOL    HW128130   4.758   4.053   1.412  0.3352 -0.0150 -0.4454
41064SOL    HW228131   4.645   4.038   1.312  0.5076 -0.2102 -0.6138
41065SOL     OW28132   7.438   7.611  10.942 -0.6043  0.3867  0.5329
41065SOL    HW128133   7.371   7.555  10.981 -0.9689  1.1531  1.0457
41065SOL    HW228134   7.489   7.643  11.017 -2.1600  2.9701  0.6178
41066SOL     OW28135   5.591  10.589  11.412  0.1179  0.3589  0.4848
41066SOL    HW128136   5.664  10.556  11.465  0.4961  0.4303  0.0180
41066SOL    HW228137   5.628  10.598  11.324 -0.3294  0.8458  0.3421
41067SOL     OW28138   3.095   7.539   0.280 -0.2681 -0.0189  0.2137
41067SOL    HW128139   3.061   7.463   0.327 -1.2415 -1.3657 -2.4970
41067SOL    HW228140   3.170   7.505   0.231  0.5500  1.2876  0.4831
41068SOL     OW28141   6.051   3.507  11.597  0.0863  0.0934  0.3253
41068SOL    HW128142   5.965   3.536  11.627  0.1039  1.0843 -0.5312
41068SOL    HW228143   6.106   3.585  11.604  1.1394 -0.7291  1.6388
41069SOL     OW28144  11.394   4.396   0.961  0.4382 -0.7901  0.0752
41069SOL    HW128145  11.325   4.463   0.962  1.0712 -0.0813 -1.3966
41069SOL    HW228146  11.417   4.386   0.869  2.5114 -0.7925  0.5383
41070SOL     OW28147   4.092   2.150   3.739 -0.6584 -0.4177 -0.3914
41070SOL    HW128148   4.098   2.059   3.766 -1.8223 -0.4057 -0.0486
41070SOL    HW228149   4.131   2.152   3.652  0.9649 -0.9024  0.2829
41071SOL     OW28150  10.017  10.518   1.352  0.6106 -0.4146  0.2953
41071SOL    HW128151  10.093  10.519   1.410  1.9945 -1.1516 -1.4326
41071SOL    HW228152  10.053  10.507   1.264 -1.4700 -0.3137 -0.6365
41072SOL     OW28153   7.232   9.404   0.766 -0.8247 -0.1960 -0.0142
41072SOL    HW128154   7.212   9.379   0.676  1.6100 -0.0045 -0.6953
41072SOL    HW228155   7.220   9.499   0.768  1.6224  0.2080 -0.9713
41073SOL     OW28156  11.281   8.126   1.704  0.3229 -0.2549 -0.1699
41073SOL    HW128157  11.263   8.033   1.696 -1.9831  0.0196  1.1326
41073SOL    HW228158  11.249   8.164   1.622 -0.9409 -0.3537  0.2575
41074SOL     OW28159   5.768   9.734  11.007 -0.2804  0.1453 -0.5906
41074SOL    HW128160   5.694   9.785  11.042  0.7688  0.7159  0.9125
41074SOL    HW228161   5.786   9.773  10.922 -1.3906  0.3180 -0.7667
41075SOL     OW28162  10.639   1.430   0.051 -0.1936  0.0801 -0.4797
41075SOL    HW128163  10.558   1.413   0.098 -0.2547  0.9155 -0.2571
41075SOL    HW228164  10.626   1.390  -0.035 -0.8649  0.2476 -0.4650
41076SOL     OW28165   0.161  11.226   2.312 -0.3720 -0.2173  0.0309
41076SOL    HW128166   0.090  11.185   2.263  0.1821 -1.6319  0.3862
41076SOL    HW228167   0.147  11.199   2.403 -0.9407  1.7581  0.5956
41077SOL     OW28168   4.399   6.438   8.735  0.7212  0.9186  0.4615
41077SOL    HW128169   4.386   6.518   8.685 -0.4818  0.3807 -0.1284
41077SOL    HW228170   4.325   6.436   8.797  0.0491 -0.2974 -0.3296
41078SOL     OW28171   4.568   0.048   2.437  0.0198 -0.1475  0.2205
41078SOL    HW128172   4.617   0.117   2.391  1.0386 -1.5419 -0.8600
41078SOL    HW228173   4.615  -0.033   2.417 -1.6144 -1.2917  0.7968
41079SOL     OW28174   5.774  10.775   4.891 -0.4328  0.0754 -0.1716
41079SOL    HW128175   5.812  10.693   4.857 -0.5070 -0.4276  0.9132
41079SOL    HW228176   5.759  10.757   4.983 -1.6795  0.8786 -0.2046
41080SOL     OW28177   2.070   4.702   1.118 -0.1538  0.3970 -0.4370
41080SOL    HW128178   2.021   4.719   1.037  0.0859 -1.5018 -1.0470
41080SOL    HW228179   2.134   4.635   1.093  0.0306 -0.1094  1.2877
41081SOL     OW28180   6.418   3.775  10.878 -0.0940 -0.2649 -0.2180
41081SOL    HW128181   6.439   3.765  10.785  0.4964 -2.0243  0.0830
41081SOL    HW228182   6.493   3.822  10.914  0.3300 -0.8042 -0.3804
41082SOL     OW28183   3.434   8.129   9.616  0.2398 -0.4296  0.3957
41082SOL    HW128184   3.487   8.154   9.541  0.8627 -0.1931  0.9033
41082SOL    HW228185   3.462   8.040   9.636  0.8407 -0.1183  0.9871
41083SOL     OW28186   7.836   3.950   1.700 -0.7240 -0.1428  0.2356
41083SOL    HW128187   7.897   3.882   1.728  1.3376  2.1188  1.7640
41083SOL    HW228188   7.761   3.903   1.665  1.6191 -3.1413 -1.2268
41084SOL     OW28189   6.444  10.540   6.498 -0.8004 -0.6054 -0.1836
41084SOL    HW128190   6.493  10.623   6.503  1.2526 -1.8083  0.9795
41084SOL    HW228191   6.371  10.551   6.559 -1.1999  0.7214 -0.8663
41085SOL     OW28192   2.994   7.619   8.722  0.0326  0.0783 -0.3029
41085SOL    HW128193   3.078   7.651   8.755 -0.0235 -0.6598  0.5915
41085SOL    HW228194   3.017   7.562   8.648  0.4225 -1.1357  0.7250
41086SOL     OW28195   4.512   7.785   7.671  0.1595  0.3955  0.3816
41086SOL    HW128196   4.505   7.825   7.758 -0.7740 -0.0805  0.5386
41086SOL    HW228197   4.487   7.694   7.685 -0.7006  0.4832 -0.5187
41087SOL     OW28198   4.041   9.326   2.062 -0.1264 -0.3598  0.1483
41087SOL    HW128199   4.066   9.242   2.101  1.2456 -0.5152 -0.9627
41087SOL    HW228200   4.070   9.320   1.971  0.7767  1.6239  0.2461
41088SOL     OW28201   7.899   3.819   2.084  0.1504 -0.3186 -0.0523
41088SOL    HW128202   7.810   3.784   2.089  0.3356 -0.7000  0.6932
41088SOL    HW228203   7.888   3.914   2.085 -0.1947 -0.3481  1.5401
41089SOL     OW28204  10.374   4.974   0.847  0.3309  0.1138 -0.1722
41089SOL    HW128205  10.350   5.067   0.849  0.7564  0.2343 -0.5214
41089SOL    HW228206  10.387   4.951   0.939 -1.6758 -0.1177  0.1061
41090SOL     OW28207   0.720   8.649   7.790 -0.1041 -0.1674 -0.4090
41090SOL    HW128208   0.665   8.727   7.782  0.8127  0.6076  0.5223
41090SOL    HW228209   0.689   8.590   7.721 -1.7585  0.4344 -0.2355
41091SOL     OW28210   7.676   9.253   6.923 -0.4687 -0.0199 -0.5119
41091SOL    HW128211   7.746   9.268   6.859 -0.3315 -1.6958 -0.8023
41091SOL    HW228212   7.678   9.158   6.939 -1.4899  0.1577  0.8526
41092SOL     OW28213   1.877   4.259   1.661 -0.4038  0.3643 -0.2596
41092SOL    HW128214   1.815   4.330   1.676 -0.3400  0.5254 -0.7262
41092SOL    HW228215   1.847   4.187   1.716 -0.2704  0.8694  0.4819
41093SOL     OW28216   5.439   5.849   1.631  0.1061 -0.3177 -0.3497
41093SOL    HW128217   5.479   5.822   1.714 -0.6826  0.6390  0.3670
41093SOL    HW228218   5.507   5.833   1.565  0.7347 -1.1199  0.4622
41094SOL     OW28219   1.123   3.692   2.501  0.2186  0.8731 -0.2181
41094SOL    HW128220   1.059   3.762   2.493 -0.9307  0.0940  1.4117
41094SOL    HW228221   1.085   3.633   2.567  1.4651 -0.8973 -1.0006
41095SOL     OW28222   4.318   4.084   2.062 -0.0572 -0.2671 -0.2508
41095SOL    HW128223   4.391   4.036   2.023 -0.8015  1.3375 -4.0194
41095SOL    HW228224   4.359   4.160   2.102  0.5927 -1.1603  0.8621
41096SOL     OW28225   7.489   5.775  10.370  0.3038  0.0029 -0.0696
41096SOL    HW128226   7.463   5.835  10.440  0.9866  1.7636 -1.2607
41096SOL    HW228227   7.542   5.828  10.310 -1.3388 -1.0495 -2.6447
41097SOL     OW28228   2.547   4.974   7.039 -1.0122 -0.2570  0.2133
41097SOL    HW128229   2.454   4.971   7.017 -1.1546  1.7376  0.3322
41097SOL    HW228230   2.568   5.067   7.039  1.9406 -0.6694 -3.7236
41098SOL     OW28231  11.667  10.550  11.075  0.1072 -0.0243 -0.1209
41098SOL    HW128232  11.654  10.615  11.144 -0.1151 -0.3338  0.1334
41098SOL    HW228233  11.580  10.534  11.040  0.0863 -0.5385  0.1508
41099SOL     OW28234   9.363   7.311   7.068  0.2473  0.4472 -0.0076
41099SOL    HW128235   9.412   7.273   7.141 -0.2276  0.9378  0.5698
41099SOL    HW228236   9.372   7.406   7.079 -0.5287  0.5395 -0.0970
41100SOL     OW28237   5.411   4.345   2.127  0.2521 -0.1866  0.5852
41100SOL    HW128238   5.346   4.277   2.108  0.9139 -0.6817  0.0584
41100SOL    HW228239   5.482   4.329   2.065  0.1044  1.4501 -0.0603
41101SOL     OW28240   7.179   5.659   4.081 -0.2296 -0.7702  0.6543
41101SOL    HW128241   7.203   5.575   4.040 -0.8277 -0.4997 -0.2813
41101SOL    HW228242   7.129   5.634   4.158 -2.1893 -1.3034 -0.7225
41102SOL     OW28243   1.217   0.820   9.747 -0.3238 -0.7784 -0.7056
41102SOL    HW128244   1.277   0.810   9.821 -1.3975  1.3429  0.5392
41102SOL    HW228245   1.199   0.730   9.718  0.3405 -1.6547  1.4437
41103SOL     OW28246   3.848   1.021   2.204 -0.0287  0.6566 -0.1706
41103SOL    HW128247   3.876   1.086   2.140 -2.8434  1.2100 -0.9404
41103SOL    HW228248   3.755   1.008   2.188 -0.3509 -0.9295  2.3063
41104SOL     OW28249   9.960   8.105  10.934 -0.6388  0.0323  0.1520
41104SOL    HW128250   9.961   8.013  10.906 -1.6055  0.2219 -0.5444
41104SOL    HW228251   9.923   8.152  10.859 -1.1947  0.8408  0.9251
41105SOL     OW28252   7.465   2.446   1.749 -0.5092 -0.1603  0.3434
41105SOL    HW128253   7.505   2.526   1.716 -0.3910  1.4414  3.8869
41105SOL    HW228254   7.536   2.382   1.749  0.5133  0.9228  1.0728
41106SOL     OW28255   4.383   8.913   2.648  0.5870 -0.0596 -0.2121
41106SOL    HW128256   4.324   8.885   2.578 -1.0037  0.3232  0.9318
41106SOL    HW228257   4.390   9.008   2.637 -0.1921  0.0876  0.5331
41107SOL     OW28258   3.654   8.317   3.879  0.1407 -0.2626  0.1451
41107SOL    HW128259   3.699   8.232   3.882  1.7403  0.5285  0.0312
41107SOL    HW228260   3.597   8.316   3.956  0.7734 -1.1217  0.6294
41108SOL     OW28261  11.304  11.123   8.364  0.1945 -0.5513 -0.1243
41108SOL    HW128262  11.281  11.183   8.434 -1.9145 -2.5279  0.9998
41108SOL    HW228263  11.251  11.152   8.289  0.8237  0.2384 -0.2853
41109SOL     OW28264   8.103   6.780   6.663  0.2080  0.1825 -0.5405
41109SOL    HW128265   8.127   6.737   6.745 -2.4647 -2.6478 -1.0417
41109SOL    HW228266   8.026   6.832   6.684 -0.6234 -0.7262 -1.2210
41110SOL     OW28267   1.549   0.179   7.937 -0.4019 -0.7515  0.4089
41110SOL    HW128268   1.606   0.145   8.005 -0.5652 -0.5111  0.6677
41110SOL    HW228269   1.586   0.264   7.915  0.3045 -1.2935 -0.5965
41111SOL     OW28270   4.817   5.511  10.961  0.2652  0.5446  0.6102
41111SOL    HW128271   4.794   5.428  10.921 -0.8748  1.6932 -1.2499
41111SOL    HW228272   4.746   5.528  11.023 -0.8219  1.2343 -0.7730
41112SOL     OW28273   3.080   4.255   3.882 -0.3608  0.4209  0.4199
41112SOL    HW128274   3.049   4.330   3.832 -0.9242  0.4653  0.8168
41112SOL    HW228275   3.146   4.291   3.942  0.5207  0.3186 -0.4674
41113SOL     OW28276   4.762   3.426   2.156  0.2515 -0.0996 -0.1200
41113SOL    HW128277   4.704   3.389   2.090  0.6728 -2.5426  0.7534
41113SOL    HW228278   4.850   3.412   2.120  0.5256 -2.1286  1.1596
41114SOL     OW28279   1.502   3.440  11.106  0.4574  0.5068  0.4731
41114SOL    HW128280   1.470   3.530  11.101 -0.6635  0.1603  1.1679
41114SOL    HW228281   1.594   3.448  11.132  0.4044  1.4436  0.3853
41115SOL     OW28282   2.482   8.873   9.713 -0.3326  0.0625  0.5959
41115SOL    HW128283   2.434   8.911   9.640 -1.9179  0.9409  2.0072
41115SOL    HW228284   2.428   8.799   9.741 -1.1799  1.2752  2.4282
41116SOL     OW28285   9.815   0.551   3.435 -0.2252  0.3251 -0.0539
41116SOL    HW128286   9.749   0.615   3.408 -2.3223 -1.5288  0.3670
41116SOL    HW228287   9.883   0.602   3.479 -1.3572  2.3299 -0.5444
41117SOL     OW28288  11.096   8.093  10.872 -0.2215  0.3581  0.8930
41117SOL    HW128289  11.076   8.167  10.815  1.7597  1.9254  2.0687
41117SOL    HW228290  11.013   8.069  10.912 -1.2328  0.6739 -0.9310
41118SOL     OW28291   0.897   1.079   2.969 -0.5317  0.2971  0.3772
41118SOL    HW128292   0.860   1.001   2.928  0.2280  0.0594  0.1300
41118SOL    HW228293   0.914   1.052   3.059  1.5011 -0.4564 -0.1770
41119SOL     OW28294   3.498   7.286   4.272 -0.1748 -0.1846  0.4268
41119SOL    HW128295   3.579   7.264   4.227 -0.3183 -2.3608  1.0985
41119SOL    HW228296   3.449   7.339   4.209  0.6181 -1.1388 -1.0471
41120SOL     OW28297   3.067   9.445   9.869 -0.1304 -0.0227 -0.1093
41120SOL    HW128298   3.055   9.502   9.945  0.0195  0.5988 -0.5457
41120SOL    HW228299   3.040   9.498   9.795  1.5465  0.0654 -0.7025
41121SOL     OW28300  11.307   8.858  10.332 -0.0315 -0.1746  0.4141
41121SOL    HW128301  11.295   8.783  10.274 -0.2741 -1.1935  1.7592
41121SOL    HW228302  11.351   8.823  10.409 -1.7726  0.6724  1.8608
41122SOL     OW28303   5.419   9.614   9.166  0.1053  0.8195  0.5976
41122SOL    HW128304   5.404   9.626   9.073  1.9235  1.0681  0.2898
41122SOL    HW228305   5.491   9.674   9.187  1.6017 -1.1453  1.5244
41123SOL     OW28306   2.454   6.548   7.808  0.6433 -0.1705  0.3084
41123SOL    HW128307   2.442   6.512   7.720 -0.8255 -0.9811  0.8004
41123SOL    HW228308   2.490   6.475   7.859 -1.2513 -0.6378  1.0417
41124SOL     OW28309   3.523   3.994   4.789 -0.5059 -0.1557  0.1214
41124SOL    HW128310   3.553   4.084   4.781 -0.5502 -0.2529 -1.2886
41124SOL    HW228311   3.602   3.945   4.814 -0.3664  0.1795  0.3526
41125SOL     OW28312   5.020   6.681   3.535  0.1873 -0.1959 -0.4390
41125SOL    HW128313   4.983   6.738   3.603  0.0499 -0.6083 -0.1660
41125SOL    HW228314   4.945   6.657   3.481  0.2464 -0.1126 -0.5589
41126SOL     OW28315   2.177   9.849   8.342 -0.1341 -0.4811 -0.3800
41126SOL    HW128316   2.094   9.880   8.307 -0.3220  0.5035  0.8536
41126SOL    HW228317   2.236   9.924   8.336 -0.4047  0.0040  2.0685
41127SOL     OW28318   9.882   4.090   3.426  0.1004 -0.1171  0.4714
41127SOL    HW128319   9.803   4.094   3.480  0.5369 -0.6823  1.1644
41127SOL    HW228320   9.923   4.007   3.449  0.4712 -0.2118 -0.4886
41128SOL     OW28321   5.968   5.311   8.005  0.3900  0.1825 -0.2057
41128SOL    HW128322   5.959   5.365   7.926 -0.2458 -1.0783 -1.0346
41128SOL    HW228323   5.879   5.283   8.026  0.8781 -3.0148 -1.6681
41129SOL     OW28324   4.166   5.732   5.512 -0.3051  0.2314  0.3803
41129SOL    HW128325   4.183   5.749   5.605  1.5268  0.3867  0.0523
41129SOL    HW228326   4.223   5.659   5.490 -1.6047 -0.6030 -0.3696
41130SOL     OW28327  11.637   6.577   5.226 -0.0222 -0.2248 -0.3232
41130SOL    HW128328  11.645   6.481   5.225  1.8917 -0.1144  0.1230
41130SOL    HW228329  11.727   6.608   5.223 -0.5878  1.5747  0.1859
41131SOL     OW28330   2.417   0.008   5.322  0.5767 -0.0034 -0.0378
41131SOL    HW128331   2.386   0.064   5.394  0.1339  1.0529 -1.0072
41131SOL    HW228332   2.499   0.049   5.294  0.8658 -0.5442  0.0095
41132SOL     OW28333   7.877   5.128   3.328 -0.2253 -0.6166  0.3176
41132SOL    HW128334   7.802   5.167   3.284  0.0814 -1.1539 -0.7270
41132SOL    HW228335   7.841   5.060   3.384 -0.6054 -0.0747  0.7403
41133SOL     OW28336   6.129   0.862   6.388  0.1354 -0.2405 -0.1698
41133SOL    HW128337   6.053   0.803   6.383  0.5824 -0.8825  0.4304
41133SOL    HW228338   6.102   0.930   6.449 -0.2509 -0.0179 -0.5812
41134SOL     OW28339   4.217  10.971   8.670  0.6405 -0.6182 -0.9475
41134SOL    HW128340   4.174  11.022   8.601 -1.1310  0.9504  1.1522
41134SOL    HW228341   4.297  11.019   8.690  0.3014 -0.1256 -0.7693
41135SOL     OW28342   1.557   7.301   8.625  0.1004  0.0126 -0.0139
41135SOL    HW128343   1.475   7.327   8.582  0.3509  0.3720 -0.2717
41135SOL    HW228344   1.542   7.209   8.651  0.0363 -0.2890 -1.0757
41136SOL     OW28345   9.157   4.648   6.654 -0.1896  0.1807  0.5351
41136SOL    HW128346   9.171   4.636   6.560 -1.6943 -0.9099  0.4219
41136SOL    HW228347   9.245   4.646   6.691  0.4751  1.1644 -0.8886
41137SOL     OW28348   3.789   8.371   9.402  0.5690 -0.6083 -0.0945
41137SOL    HW128349   3.871   8.323   9.408  0.9202  0.0587  0.4259
41137SOL    HW228350   3.763   8.388   9.492 -0.5274 -1.4446 -0.2190
41138SOL     OW28351  11.300   5.766   7.097  0.0845  0.1450 -0.1913
41138SOL    HW128352  11.373   5.738   7.151  0.1675 -0.4983 -0.6158
41138SOL    HW228353  11.300   5.705   7.023 -0.9054  0.0949 -0.1739
41139SOL     OW28354   2.804   2.874   8.206 -0.2554 -0.2027 -0.1940
41139SOL    HW128355   2.865   2.826   8.150 -0.2326 -0.4941  0.0752
41139SOL    HW228356   2.852   2.888   8.287 -0.7832 -1.0716  0.2911
41140SOL     OW28357   9.264   2.077   0.492 -0.0560 -0.0832 -0.0016
41140SOL    HW128358   9.256   2.022   0.415 -1.0002  0.3823 -0.2455
41140SOL    HW228359   9.213   2.155   0.472  0.5187  0.4930  0.6956
41141SOL     OW28360   8.979  10.977   0.594  0.2690  0.4878 -0.0519
41141SOL    HW128361   9.071  11.001   0.591  0.4047 -0.0333 -0.0242
41141SOL    HW228362   8.960  10.964   0.687 -0.1681  1.8822  0.0755
41142SOL     OW28363   3.790   5.900   2.529  0.0805  0.4681  0.7985
41142SOL    HW128364   3.836   5.819   2.551  1.0641  1.0364  0.8878
41142SOL    HW228365   3.854   5.953   2.482 -0.3365  1.4623  1.3013
41143SOL     OW28366   2.653   9.953   2.114  0.3239 -0.4790 -0.4617
41143SOL    HW128367   2.744   9.934   2.091  0.4313  0.2749 -0.7075
41143SOL    HW228368   2.656   9.973   2.207  0.2456 -1.4263 -0.2549
41144SOL     OW28369   0.004   7.518   4.689  0.1463  0.1952 -0.2226
41144SOL    HW128370  -0.084   7.546   4.666  0.3271  0.3175 -0.7917
41144SOL    HW228371   0.037   7.475   4.609  0.4915 -0.1063  0.0792
41145SOL     OW28372  10.291   7.726   8.436 -0.0340 -0.1965 -0.1172
41145SOL    HW128373  10.251   7.780   8.368  2.9599  1.4608 -0.7249
41145SOL    HW228374  10.335   7.656   8.388  2.0218  0.9266  0.0603
41146SOL     OW28375   8.639   1.117  10.934  0.6700 -0.0867 -0.2600
41146SOL    HW128376   8.646   1.137  11.027  0.1451 -1.7917  0.1905
41146SOL    HW228377   8.730   1.118  10.902  0.7976  1.1049  0.1164
41147SOL     OW28378   4.676   9.945   6.762 -0.3833 -0.2504  0.0126
41147SOL    HW128379   4.591   9.981   6.787 -0.4536 -0.9647  0.8376
41147SOL    HW228380   4.733   9.964   6.837  0.5038  1.2098 -0.9709
41148SOL     OW28381   3.310   8.937   4.097 -0.3813 -0.1329 -0.3505
41148SOL    HW128382   3.359   8.934   4.015 -1.9296 -0.2562 -1.3191
41148SOL    HW228383   3.220   8.955   4.070 -0.7891  0.6710  1.3936
41149SOL     OW28384   4.221   4.118   9.369  0.6654  0.1931  0.1607
41149SOL    HW128385   4.183   4.035   9.397 -0.8870  0.9063  0.3102
41149SOL    HW228386   4.145   4.174   9.352  1.6693  1.4958 -0.2100
41150SOL     OW28387   2.115   6.942   5.881 -0.0792 -0.0990 -0.2341
41150SOL    HW128388   2.089   6.977   5.796  1.0851  1.8092  0.1324
41150SOL    HW228389   2.162   7.014   5.923  0.8252 -1.5496  1.3564
41151SOL     OW28390  10.578   2.731   2.981  0.2531 -0.5390 -0.4313
41151SOL    HW128391  10.659   2.736   3.030 -0.4179 -2.0208  0.9236
41151SOL    HW228392  10.603   2.752   2.891  1.4656  2.6127  0.5030
41152SOL     OW28393   4.341   8.164   5.186 -0.3525  0.6067  0.2986
41152SOL    HW128394   4.333   8.174   5.091 -1.3090  1.2887  0.4365
41152SOL    HW228395   4.313   8.248   5.222  0.8032  0.6498  1.1672
41153SOL     OW28396  10.520   1.807  11.218  0.2981 -0.4441 -0.0004
41153SOL    HW128397  10.474   1.862  11.282  1.2598  0.3739  0.0168
41153SOL    HW228398  10.474   1.822  11.136  0.6173  0.4949 -0.0179
41154SOL     OW28399  10.802   3.102   9.506  0.0498 -0.0403  0.0390
41154SOL    HW128400  10.874   3.046   9.480  1.1078  1.0700  0.4901
41154SOL    HW228401  10.792   3.164   9.434 -0.4406 -0.1507  0.0023
41155SOL     OW28402   5.704   9.275   1.758 -0.0939  0.2208 -0.7608
41155SOL    HW128403   5.617   9.266   1.720  0.0373 -1.6589 -0.7068
41155SOL    HW228404   5.688   9.289   1.851 -0.3566 -1.1754 -0.5746
41156SOL     OW28405   4.514   2.072   3.930  0.0448 -0.8678 -0.2847
41156SOL    HW128406   4.469   2.156   3.921 -1.0516 -1.5521 -1.4124
41156SOL    HW228407   4.580   2.072   3.861  1.9044  0.1567  1.3990
41157SOL     OW28408   1.271  10.805   7.720 -0.1114 -0.1902  0.0852
41157SOL    HW128409   1.270  10.771   7.631  0.8896 -1.1902  0.4400
41157SOL    HW228410   1.351  10.857   7.725 -0.4768  0.3609  0.2223
41158SOL     OW28411   5.593   4.234   2.610  0.0958  0.5685 -0.2980
41158SOL    HW128412   5.686   4.252   2.623  0.7670  0.9189 -4.2058
41158SOL    HW228413   5.591   4.147   2.570 -1.1666  0.8871 -0.9824
41159SOL     OW28414   3.717   4.341   7.759  0.3547  0.1120  0.6062
41159SOL    HW128415   3.658   4.382   7.823  0.4851 -0.8092  1.3446
41159SOL    HW228416   3.754   4.415   7.710 -1.9655  0.6894 -0.4035
41160SOL     OW28417   8.612   7.878   1.789  0.8285 -0.6187  0.2792
41160SOL    HW128418   8.683   7.912   1.842 -0.7369  0.1844  1.9745
41160SOL    HW228419   8.580   7.953   1.739 -1.0664 -0.0215  2.2207
41161SOL     OW28420   6.508  11.061   8.855  0.4457  0.3294 -0.4800
41161SOL    HW128421   6.546  10.990   8.804 -1.5706 -1.6129  0.5538
41161SOL    HW228422   6.465  11.018   8.929 -0.6579  2.6475  0.3465
41162SOL     OW28423   0.973   6.136   0.131  0.7117 -0.1724  0.2664
41162SOL    HW128424   0.976   6.040   0.137 -0.7437 -0.2278  0.4722
41162SOL    HW228425   0.928   6.153   0.048  1.0124  0.3480  0.2059
41163SOL     OW28426   9.519   7.200   5.794 -0.0344  0.4226  0.3418
41163SOL    HW128427   9.474   7.248   5.863  0.1448  2.6019 -0.9509
41163SOL    HW228428   9.540   7.267   5.729  1.6464 -1.1921 -0.8628
41164SOL     OW28429   9.152   5.104   0.162 -0.5471  0.1983 -0.9721
41164SOL    HW128430   9.073   5.133   0.116 -0.2822  1.0787 -0.8913
41164SOL    HW228431   9.223   5.149   0.117 -0.1713  0.1132 -0.4639
41165SOL     OW28432   9.408  11.047   2.326 -0.0074  0.0250 -0.6834
41165SOL    HW128433   9.364  11.092   2.399 -0.2139  0.4842 -1.0849
41165SOL    HW228434   9.485  11.100   2.309  0.8181 -0.8722  0.1290
41166SOL     OW28435   3.549   3.118   2.971 -0.5424 -0.0555 -0.0876
41166SOL    HW128436   3.563   3.079   3.057 -1.0462  2.3765  1.2049
41166SOL    HW228437   3.503   3.051   2.920 -1.6519 -1.0150  2.0747
41167SOL     OW28438   0.428   7.286   0.219 -0.1649  0.5441 -0.3698
41167SOL    HW128439   0.369   7.300   0.293  1.2448  0.2297  0.8742
41167SOL    HW228440   0.461   7.197   0.230  1.7157  1.2209 -0.1019
41168SOL     OW28441   5.843   2.459   0.093  0.3196 -0.0833 -0.4327
41168SOL    HW128442   5.831   2.392   0.160  3.1413 -0.1278  0.1703
41168SOL    HW228443   5.882   2.412   0.019  1.7714  0.7124 -0.2230
41169SOL     OW28444   3.134   3.828  10.042  0.7313 -0.2292 -0.2153
41169SOL    HW128445   3.075   3.783   9.982 -0.3807 -0.7132  1.2125
41169SOL    HW228446   3.124   3.921  10.020  1.1034 -0.4550 -1.4360
41170SOL     OW28447   5.204   6.675   6.320  0.2330 -0.1032  0.8415
41170SOL    HW128448   5.277   6.660   6.260  0.2486 -1.0608  1.0799
41170SOL    HW228449   5.138   6.719   6.268  1.4311  1.8905  0.9258
41171SOL     OW28450   2.163   3.227   1.301 -0.5207  0.1403 -0.0574
41171SOL    HW128451   2.090   3.207   1.243  1.8967 -0.7628 -3.1137
41171SOL    HW228452   2.234   3.252   1.242  1.7041  0.8971  2.6973
41172SOL     OW28453   9.696   0.952   9.280  0.5630  0.1364  0.2385
41172SOL    HW128454   9.785   0.988   9.283  0.5394  0.1536  1.5426
41172SOL    HW228455   9.645   1.009   9.337  0.1063 -0.8505  0.8561
41173SOL     OW28456   0.997  10.646   2.591  0.2905  0.0710  0.2255
41173SOL    HW128457   1.060  10.625   2.522  0.6790  1.5411  0.1023
41173SOL    HW228458   0.979  10.740   2.579 -1.5869 -0.2100  0.5387
41174SOL     OW28459   7.985   6.309   2.701  0.1556 -0.0798  0.3636
41174SOL    HW128460   8.055   6.344   2.756  0.1050 -0.9616  1.0175
41174SOL    HW228461   7.999   6.348   2.615 -0.1076  1.8147  1.1325
41175SOL     OW28462   2.076   7.127   2.144  0.4069  0.2403  0.1372
41175SOL    HW128463   2.036   7.048   2.179 -1.0167  0.4857 -0.8372
41175SOL    HW228464   2.168   7.105   2.133 -0.2775 -2.0372 -2.0324
41176SOL     OW28465   2.035   3.688   3.779  0.5533  0.0444 -0.4023
41176SOL    HW128466   2.124   3.720   3.797  1.3830 -2.6623  0.7833
41176SOL    HW228467   2.045   3.594   3.768 -2.2305 -0.3800 -0.0443
41177SOL     OW28468  10.728   6.367   8.838 -0.1215 -0.0655 -0.0773
41177SOL    HW128469  10.782   6.413   8.902  3.1760  0.0888 -2.7231
41177SOL    HW228470  10.741   6.274   8.859  2.9850 -0.1616 -1.7383
41178SOL     OW28471   7.058   7.752   2.805 -0.5399  0.0640 -0.0724
41178SOL    HW128472   7.040   7.696   2.730  0.7221  2.0009 -1.9365
41178SOL    HW228473   7.150   7.735   2.825  0.1778  2.0899 -1.3358
41179SOL     OW28474   5.288   9.757   2.974 -0.3424  0.0344 -0.0851
41179SOL    HW128475   5.193   9.759   2.976 -0.5164 -1.7675 -2.4384
41179SOL    HW228476   5.310   9.668   2.946  2.0794  0.1716  1.0822
41180SOL     OW28477   0.939   5.409  10.550 -0.9641  0.2128 -0.1632
41180SOL    HW128478   1.024   5.428  10.591 -0.1433  1.0089 -2.1328
41180SOL    HW228479   0.953   5.324  10.507 -1.6635 -0.3757  0.7346
41181SOL     OW28480   9.787   2.597   5.710  0.1584  0.5300  0.1371
41181SOL    HW128481   9.770   2.578   5.802  2.7976  0.6270  0.7131
41181SOL    HW228482   9.786   2.693   5.704  2.8592  0.6784  0.7825
41182SOL     OW28483   0.234   2.324   1.689  0.5026 -0.4694 -0.4173
41182SOL    HW128484   0.266   2.358   1.606  1.0815  0.4021  0.1381
41182SOL    HW228485   0.139   2.333   1.684  0.4774 -1.1144 -1.2628
41183SOL     OW28486   5.956   6.429   7.302 -0.5347  0.0503  0.2633
41183SOL    HW128487   5.900   6.362   7.262 -1.7592  0.3651  1.3948
41183SOL    HW228488   6.028   6.440   7.240 -1.0453 -1.3040 -0.6107
41184SOL     OW28489   6.800  10.810   3.379 -0.5542 -0.0065 -0.6565
41184SOL    HW128490   6.823  10.769   3.462 -1.5293  0.5486 -0.0855
41184SOL    HW228491   6.809  10.904   3.395 -1.5663  0.1482 -0.9015
41185SOL     OW28492   8.283   7.092   2.467  0.7189 -0.6206 -0.6581
41185SOL    HW128493   8.273   7.000   2.493 -0.3176  0.0475  1.5861
41185SOL    HW228494   8.378   7.103   2.457  1.1281 -1.3708  1.6299
41186SOL     OW28495   3.547   8.561   4.831 -0.1027 -0.4062 -0.0616
41186SOL    HW128496   3.525   8.521   4.915 -0.5524 -0.0291  0.0017
41186SOL    HW228497   3.632   8.603   4.845 -1.0592  1.3196  0.7745
41187SOL     OW28498   1.255   7.499   3.594 -0.1752  0.2696 -0.2270
41187SOL    HW128499   1.164   7.471   3.581 -0.6030  1.3121  0.4159
41187SOL    HW228500   1.258   7.587   3.556  0.4302  0.4458  0.2166
41188SOL     OW28501   1.410  10.303  11.229 -0.5298  0.3902 -0.8052
41188SOL    HW128502   1.439  10.226  11.277 -0.9105  0.4610 -0.4524
41188SOL    HW228503   1.345  10.343  11.286 -2.5615 -0.6702 -2.2318
41189SOL     OW28504   0.076  10.857   3.971  0.1209 -0.0377  0.5310
41189SOL    HW128505   0.052  10.906   3.892 -0.0907 -1.0874 -0.0802
41189SOL    HW228506   0.165  10.885   3.990  0.4048 -0.2045 -0.4611
41190SOL     OW28507   0.714   3.975   3.615  0.2231  0.4198  0.0052
41190SOL    HW128508   0.769   4.041   3.659  0.6689  0.7314 -0.9949
41190SOL    HW228509   0.748   3.971   3.526 -1.0167  0.1838 -0.4744
41191SOL     OW28510   2.012   3.614   6.808  0.2810  0.6700 -0.1328
41191SOL    HW128511   2.031   3.522   6.826 -0.6501  0.6783  0.9739
41191SOL    HW228512   2.026   3.623   6.713  0.7105 -0.5205 -0.1989
41192SOL     OW28513   1.844   6.377   2.013  0.0859 -0.1840  0.0846
41192SOL    HW128514   1.817   6.459   1.973  0.8427  0.2577  0.4672
41192SOL    HW228515   1.913   6.401   2.074 -0.2332 -1.0083  0.7888
41193SOL     OW28516   9.338   0.180  10.035  0.5666 -0.0027  0.0479
41193SOL    HW128517   9.354   0.243   9.964  0.7860  0.6086  0.6367
41193SOL    HW228518   9.297   0.105   9.991 -0.0545  0.7010 -0.6090
41194SOL     OW28519   3.123  10.806   0.769 -0.4548  0.1256  0.3525
41194SOL    HW128520   3.164  10.800   0.683 -1.9915  0.6447 -0.4555
41194SOL    HW228521   3.046  10.862   0.756  0.2281  1.6837  2.4400
41195SOL     OW28522   0.793   1.702   6.722  0.1752 -1.0433 -0.3202
41195SOL    HW128523   0.713   1.712   6.671 -1.0937 -0.4688  1.6412
41195SOL    HW228524   0.831   1.790   6.726 -0.6842 -0.7021  1.1100
41196SOL     OW28525   4.043   5.957   1.950  0.0342 -0.0578 -0.4116
41196SOL    HW128526   4.057   5.872   1.908  1.2329 -0.4733  0.7968
41196SOL    HW228527   3.963   5.945   2.002  0.2482 -0.4630 -0.1767
41197SOL     OW28528  10.084   6.069   4.815  0.0620  0.4194 -0.2877
41197SOL    HW128529  10.058   6.161   4.824 -0.0176  0.5235 -1.4399
41197SOL    HW228530  10.119   6.063   4.726  0.9765 -0.4537  0.1128
41198SOL     OW28531  11.619   7.074   9.530  0.1447  0.2514 -0.0917
41198SOL    HW128532  11.665   6.990   9.522  0.5981  0.3659  1.1441
41198SOL    HW228533  11.596   7.081   9.622  0.3232  1.5885 -0.1256
41199SOL     OW28534   5.111  10.210   8.307 -0.5839 -0.2733 -0.0339
41199SOL    HW128535   5.065  10.130   8.329 -0.1432 -0.3574  0.6113
41199SOL    HW228536   5.066  10.279   8.355 -0.0204 -0.3616  0.6333
41200SOL     OW28537   2.086   6.422   8.111  0.0666  0.1305  0.3224
41200SOL    HW128538   1.995   6.447   8.093 -0.3780 -1.1863  0.6753
41200SOL    HW228539   2.134   6.450   8.033 -0.0756  3.4718  1.2680
41201SOL     OW28540   4.042   0.878  11.468  0.4082  0.3337 -1.0148
41201SOL    HW128541   3.948   0.880  11.454 -0.0676 -1.1327  1.4940
41201SOL    HW228542   4.079   0.866  11.380 -1.6700  1.3507 -2.1028
41202SOL     OW28543   1.458  10.088  11.405 -0.0761  0.1656  0.0930
41202SOL    HW128544   1.382  10.082  11.463  0.3454 -1.5342  0.5232
41202SOL    HW228545   1.454  10.008  11.352  0.7556  0.6456 -0.7307
41203SOL     OW28546   6.003  11.340   4.129 -0.0192  0.9726  0.5203
41203SOL    HW128547   5.918  11.361   4.167 -0.0266 -2.3346  2.7842
41203SOL    HW228548   5.989  11.259   4.080  1.6382  0.8314  0.1916
41204SOL     OW28549   0.422  11.564   0.659 -0.1079  0.4944 -0.1276
41204SOL    HW128550   0.401  11.508   0.585  1.3084 -1.0461  0.5571
41204SOL    HW228551   0.507  11.531   0.690  0.9573  3.2335  0.1404
41205SOL     OW28552   3.630   6.744   0.829 -0.2818  0.2877  0.5498
41205SOL    HW128553   3.543   6.732   0.791  0.4038 -1.1483 -0.6306
41205SOL    HW228554   3.617   6.809   0.898 -2.4917 -0.6803  1.1159
41206SOL     OW28555   6.459   6.314   2.922  0.3760  0.2850 -0.4499
41206SOL    HW128556   6.373   6.279   2.942 -0.0911  0.2043 -2.3833
41206SOL    HW228557   6.488   6.264   2.846  1.3252  1.5348 -0.9549
41207SOL     OW28558   6.464   5.829   6.228  0.1087 -0.1890  0.6189
41207SOL    HW128559   6.538   5.872   6.272 -0.1381  1.0042 -0.0788
41207SOL    HW228560   6.483   5.839   6.135 -0.2952 -1.0441  0.4334
41208SOL     OW28561   0.024   0.722  10.783 -0.6411 -0.0375  0.4677
41208SOL    HW128562   0.100   0.778  10.766  0.8271 -2.4155 -1.5104
41208SOL    HW228563  -0.042   0.782  10.817  1.1544  2.6747 -0.4449
41209SOL     OW28564   1.243   6.935   2.430 -0.2525  0.3939  0.2807
41209SOL    HW128565   1.279   7.015   2.391  0.3410 -0.8470 -1.8918
41209SOL    HW228566   1.218   6.960   2.519  1.1551  2.6402  0.1072
41210SOL     OW28567   1.735  11.285   0.974 -0.5027  0.7409 -0.7264
41210SOL    HW128568   1.796  11.305   0.903  0.3602  0.9348  0.0375
41210SOL    HW228569   1.670  11.355   0.970 -0.7732  0.4421 -1.6572
41211SOL     OW28570   1.325  10.503   6.195  0.0449 -0.7350 -0.3324
41211SOL    HW128571   1.344  10.487   6.287 -0.4174 -1.1801 -0.3107
41211SOL    HW228572   1.233  10.481   6.185  0.2129 -1.1794 -1.0080
41212SOL     OW28573   7.965   9.137   1.183  0.5098 -0.3740 -0.2628
41212SOL    HW128574   7.971   9.061   1.241  2.1201  1.0354  1.5858
41212SOL    HW228575   8.056   9.157   1.160  0.0272  0.2473 -1.7815
41213SOL     OW28576   6.731   8.253   0.231  0.0664 -0.3518  0.6819
41213SOL    HW128577   6.808   8.197   0.232  0.9004  0.7560  2.0406
41213SOL    HW228578   6.760   8.334   0.189  0.0096  0.5023  2.2083
41214SOL     OW28579   6.200   6.435   5.122  0.3448  0.7363 -0.2582
41214SOL    HW128580   6.116   6.449   5.165  0.0350 -0.4647 -0.4316
41214SOL    HW228581   6.206   6.340   5.110  0.2051  0.9844 -3.2195
41215SOL     OW28582   8.000   4.782   7.692 -0.0731  0.3431  0.5699
41215SOL    HW128583   7.989   4.687   7.699  0.8385  0.0100 -1.5615
41215SOL    HW228584   8.084   4.799   7.734  1.4478 -0.3862 -1.9308
41216SOL     OW28585   5.319   6.534   1.730  0.3213 -0.4381  0.1747
41216SOL    HW128586   5.315   6.627   1.754 -0.2477 -0.6734  1.0352
41216SOL    HW228587   5.411   6.511   1.742  0.3628 -0.1243  0.4998
41217SOL     OW28588   0.153   0.498   8.048  0.1704 -0.0160  0.0003
41217SOL    HW128589   0.178   0.570   8.106 -0.4142 -0.0613  0.3144
41217SOL    HW228590   0.234   0.473   8.004  0.4968  0.4250  0.3499
41218SOL     OW28591   8.729  11.451   5.523 -0.1830 -0.4782  0.3503
41218SOL    HW128592   8.764  11.501   5.597 -0.8641 -0.9092  0.9796
41218SOL    HW228593   8.794  11.462   5.454  0.6379 -0.3503  1.1209
41219SOL     OW28594   6.854   4.845   0.708  0.5867  0.1879  0.1772
41219SOL    HW128595   6.803   4.797   0.773  0.2817  0.4077  0.1022
41219SOL    HW228596   6.907   4.778   0.665 -0.0565 -0.1326 -0.1309
41220SOL     OW28597   2.466   2.641   8.975 -0.8153 -0.0897 -0.0714
41220SOL    HW128598   2.380   2.660   8.939 -0.8336  0.9260  0.4849
41220SOL    HW228599   2.460   2.549   9.004 -2.1459  0.3365  1.1356
41221SOL     OW28600   1.646   9.961   9.759 -0.2121  0.0831 -0.3415
41221SOL    HW128601   1.727   9.916   9.780 -0.0819  0.4904  0.0494
41221SOL    HW228602   1.599   9.900   9.702  0.5596  0.0314 -0.9368
41222SOL     OW28603   2.321   8.359   9.705  0.2112 -0.0115  0.5137
41222SOL    HW128604   2.254   8.298   9.736  0.5316 -0.2061  0.8242
41222SOL    HW228605   2.403   8.325   9.741  0.7794 -0.9511 -1.5215
41223SOL     OW28606   6.810   9.063  10.088  0.1292 -0.5565  0.0150
41223SOL    HW128607   6.866   9.001  10.135  0.6098  0.8168  1.3323
41223SOL    HW228608   6.857   9.078  10.005  1.5541  0.2782  0.9347
41224SOL     OW28609  10.921   6.100   8.010 -0.4049 -0.6215 -0.2783
41224SOL    HW128610  10.886   6.167   7.952  0.4221 -0.2018 -0.3000
41224SOL    HW228611  11.006   6.078   7.973 -0.1186 -0.7619  0.4461
41225SOL     OW28612  10.555   9.326   3.642 -0.4164 -0.3878 -0.5250
41225SOL    HW128613  10.530   9.403   3.590 -0.5618 -0.8527 -1.1659
41225SOL    HW228614  10.650   9.329   3.646 -0.4303 -0.0908 -0.4132
41226SOL     OW28615   6.522   4.010   2.402  0.0173 -0.8497 -0.0785
41226SOL    HW128616   6.523   4.017   2.306 -1.5233 -0.7543 -0.1014
41226SOL    HW228617   6.430   4.004   2.425  0.4319 -2.8173  1.2746
41227SOL     OW28618   6.948   8.519  11.457 -0.0105 -0.8186 -0.1634
41227SOL    HW128619   6.880   8.503  11.522  1.4864 -1.5834  1.3223
41227SOL    HW228620   6.950   8.614  11.447 -1.5617 -0.8095 -0.5759
41228SOL     OW28621   8.685   5.198   3.945  0.2105  0.3368 -0.2661
41228SOL    HW128622   8.589   5.201   3.950  0.0994 -1.0759 -1.0659
41228SOL    HW228623   8.713   5.288   3.962 -1.2752  0.8748 -0.5275
41229SOL     OW28624  10.538   2.525   9.188 -0.4826  0.0483 -0.6416
41229SOL    HW128625  10.445   2.502   9.178 -0.0449 -1.0732 -2.7587
41229SOL    HW228626  10.579   2.495   9.107  1.2273  3.3147 -1.1874
41230SOL     OW28627   4.095   5.087   8.918  0.2009 -0.4534  0.2673
41230SOL    HW128628   4.180   5.083   8.960  0.7606 -3.1268 -0.8851
41230SOL    HW228629   4.044   5.017   8.959 -0.8073 -0.1171 -0.3474
41231SOL     OW28630   0.228   6.366  11.603 -0.3181 -0.2164 -0.3110
41231SOL    HW128631   0.150   6.393  11.650  0.2124 -0.3324  0.6757
41231SOL    HW228632   0.301   6.394  11.659  0.2814 -3.0305  0.4951
41232SOL     OW28633   0.859   9.749   2.920  0.0548 -0.1297  0.1705
41232SOL    HW128634   0.774   9.712   2.894 -0.1148 -0.2374  0.8750
41232SOL    HW228635   0.916   9.728   2.846  0.3286 -3.1079  1.0973
41233SOL     OW28636   3.823  10.959   9.524  0.6019  0.5758  0.4353
41233SOL    HW128637   3.895  10.971   9.587 -0.1055  1.7472  1.0626
41233SOL    HW228638   3.847  11.014   9.450  0.0007  1.6245  0.9869
41234SOL     OW28639   5.819   5.045   3.817 -0.1924 -0.3403 -0.5670
41234SOL    HW128640   5.866   5.107   3.761  1.0025 -0.6182  0.0934
41234SOL    HW228641   5.816   5.087   3.903  1.9466 -1.7624  0.2772
41235SOL     OW28642   1.593   5.794   7.046 -0.4609 -0.0854 -0.4176
41235SOL    HW128643   1.529   5.823   7.112 -1.2123 -0.6911 -0.8618
41235SOL    HW228644   1.609   5.702   7.068  1.1368  0.3467  0.3681
41236SOL     OW28645   3.568  10.081   0.439 -0.6897  0.4036 -0.0167
41236SOL    HW128646   3.613  10.164   0.443 -2.4041  1.5144 -1.8336
41236SOL    HW228647   3.547  10.060   0.530  0.2279  1.6883  0.5077
41237SOL     OW28648   1.965   4.725   3.552  0.6426  0.5745  0.6304
41237SOL    HW128649   1.955   4.813   3.587 -0.9980  0.6709  0.0248
41237SOL    HW228650   2.025   4.682   3.612  1.9714  2.2696  0.5835
41238SOL     OW28651   9.074   3.974   9.504 -0.8664  0.1894 -0.0261
41238SOL    HW128652   8.998   3.924   9.473  0.5478 -0.9643 -1.8084
41238SOL    HW228653   9.147   3.913   9.502  0.3450  1.5391  0.6497
41239SOL     OW28654   9.767   3.782   0.548  0.0289  0.1247  0.1955
41239SOL    HW128655   9.800   3.815   0.631  0.8027  2.2582 -0.8795
41239SOL    HW228656   9.693   3.839   0.527 -1.1029 -1.3196  0.0826
41240SOL     OW28657  11.098   6.921   5.695 -0.2262 -0.0486 -0.3491
41240SOL    HW128658  11.167   6.955   5.638  0.8668 -0.5424  0.6169
41240SOL    HW228659  11.034   6.992   5.701  0.3140  0.5135 -1.0932
41241SOL     OW28660   7.982   9.281   1.667  0.2674  0.4302  0.0756
41241SOL    HW128661   7.936   9.356   1.704  1.6723  1.6808 -0.6135
41241SOL    HW228662   7.941   9.266   1.582 -0.4797 -0.0471  0.5136
41242SOL     OW28663   4.616  11.175   8.217  0.2563 -0.0064 -1.2760
41242SOL    HW128664   4.616  11.256   8.268  1.5357  0.2208 -1.5960
41242SOL    HW228665   4.584  11.109   8.277  0.0355  0.5765 -0.7399
41243SOL     OW28666   2.466   1.202   6.573  0.0128  0.2314  0.0306
41243SOL    HW128667   2.391   1.144   6.557  0.8382 -1.0092  0.5972
41243SOL    HW228668   2.457   1.227   6.665 -0.5182  1.3071 -0.2894
41244SOL     OW28669   3.802   8.510   0.673 -0.1763 -0.1775 -0.4472
41244SOL    HW128670   3.801   8.475   0.583 -0.3709 -0.1301 -0.4629
41244SOL    HW228671   3.881   8.564   0.676 -0.3225  0.0572 -0.6834
41245SOL     OW28672  11.048   9.321  11.523 -0.2111  0.4633 -0.1099
41245SOL    HW128673  11.032   9.406  11.564 -0.6588 -0.2343  1.2242
41245SOL    HW228674  10.968   9.271  11.541  0.3248 -0.4661 -0.2716
41246SOL     OW28675   0.058   6.565   7.759 -0.0490  0.0545  0.1742
41246SOL    HW128676   0.139   6.540   7.804 -0.7404 -2.3482  0.2580
41246SOL    HW228677   0.085   6.580   7.668  0.3581 -2.2001 -0.1459
41247SOL     OW28678   7.141   7.679   1.253  0.5301 -0.3364  0.1537
41247SOL    HW128679   7.212   7.695   1.190  0.4123  1.3036  0.4100
41247SOL    HW228680   7.063   7.667   1.199  0.5139  0.6178 -0.0529
41248SOL     OW28681   3.552   0.496   6.869  0.1092  0.4373 -0.2668
41248SOL    HW128682   3.486   0.548   6.824 -0.9152 -0.8888 -0.3599
41248SOL    HW228683   3.534   0.406   6.843  1.1581 -0.0890  0.7137
41249SOL     OW28684   1.850   9.969   0.996  0.7774 -0.6170 -0.2366
41249SOL    HW128685   1.883   9.880   1.000  0.0273 -0.8827  0.3960
41249SOL    HW228686   1.860  10.002   1.086 -0.9510 -0.8294  0.0671
41250SOL     OW28687   3.335  11.285   8.750 -0.1717  0.3504 -0.2353
41250SOL    HW128688   3.253  11.320   8.785 -0.4452 -0.2070 -0.3091
41250SOL    HW228689   3.397  11.291   8.824 -0.3287  0.6013 -0.1250
41251SOL     OW28690   0.589   1.252  10.367 -0.1669  0.2085  0.1665
41251SOL    HW128691   0.568   1.163  10.339 -0.7644  0.6968 -1.0176
41251SOL    HW228692   0.515   1.304  10.337 -0.3786  0.9549  1.8433
41252SOL     OW28693   6.104  10.450   0.612  0.2688  0.3761 -0.0292
41252SOL    HW128694   6.047  10.392   0.661  0.9067 -0.0828  0.1882
41252SOL    HW228695   6.078  10.538   0.637  1.4067  0.1535  2.1149
41253SOL     OW28696   8.779   8.227   3.118 -0.2306 -0.4765  0.7931
41253SOL    HW128697   8.771   8.158   3.184  0.0182  1.2086  2.6933
41253SOL    HW228698   8.855   8.278   3.146  0.8115 -0.5514 -1.6857
41254SOL     OW28699   5.987   8.687   0.818 -0.3532 -0.3048 -0.3507
41254SOL    HW128700   5.940   8.605   0.828  0.0305 -0.4385  0.3691
41254SOL    HW228701   5.988   8.702   0.723 -0.4185 -1.1286 -0.4870
41255SOL     OW28702   4.207   7.210   3.530  0.1875 -0.0935  0.0913
41255SOL    HW128703   4.203   7.304   3.547 -0.2090  0.0994 -0.9658
41255SOL    HW228704   4.116   7.183   3.520  0.2989 -0.5892  0.3527
41256SOL     OW28705   3.422   4.257   2.324 -0.0962 -0.4327 -0.3684
41256SOL    HW128706   3.360   4.192   2.356  0.5370 -0.5001  0.7869
41256SOL    HW228707   3.494   4.254   2.387 -0.0210  1.3411 -0.3226
41257SOL     OW28708   6.738   2.496   8.373  0.2503 -0.7644 -0.0457
41257SOL    HW128709   6.735   2.487   8.468 -1.0505  0.3580  0.0493
41257SOL    HW228710   6.758   2.588   8.358  3.5022 -1.4771 -0.9203
41258SOL     OW28711  11.540   5.652   1.236  0.3244  0.1788 -0.0707
41258SOL    HW128712  11.596   5.653   1.314  0.5576 -0.1023 -0.2325
41258SOL    HW228713  11.602   5.649   1.162  0.1928  2.7991 -0.3777
41259SOL     OW28714   1.174   4.263   3.703  0.6504 -0.5299 -0.0260
41259SOL    HW128715   1.219   4.314   3.636  0.3408  0.0515  0.2064
41259SOL    HW228716   1.112   4.324   3.743 -0.3472 -1.3115 -0.3387
41260SOL     OW28717  11.451   2.255   3.599 -1.1559 -0.3843  0.3011
41260SOL    HW128718  11.450   2.241   3.505 -0.4087  2.6685 -0.2893
41260SOL    HW228719  11.539   2.229   3.627 -1.1568 -0.6619  0.0441
41261SOL     OW28720   6.138   8.729   8.823 -0.3235  0.1965 -0.6417
41261SOL    HW128721   6.172   8.676   8.896  0.4604  2.3128  0.6281
41261SOL    HW228722   6.043   8.726   8.834 -0.2091  1.0553  0.9863
41262SOL     OW28723   6.160   3.240   2.658  0.1030 -0.0498 -0.4724
41262SOL    HW128724   6.112   3.313   2.619  0.1775 -0.2259 -0.9033
41262SOL    HW228725   6.117   3.162   2.623  1.1349 -0.2150 -1.4273
41263SOL     OW28726   3.063  11.085  10.868  0.0568  0.2423  0.3330
41263SOL    HW128727   3.057  11.156  10.805  1.7009  0.4761  0.4004
41263SOL    HW228728   2.977  11.083  10.910 -0.4623  1.2734 -0.6347
41264SOL     OW28729   5.377  11.351   7.509  0.2786 -0.4936 -0.2041
41264SOL    HW128730   5.322  11.339   7.431 -1.5072  0.3426  0.8702
41264SOL    HW228731   5.394  11.262   7.540  0.9462 -0.8331 -1.4737
41265SOL     OW28732  10.379  10.485   8.671  0.3912 -0.4711  0.0158
41265SOL    HW128733  10.428  10.539   8.610  0.9370  0.6143  1.3758
41265SOL    HW228734  10.295  10.531   8.681  0.5745 -0.2755  0.6245
41266SOL     OW28735   5.179   8.608   4.570 -0.0648  0.1229  0.0054
41266SOL    HW128736   5.138   8.574   4.650  0.1590 -0.4936 -0.1399
41266SOL    HW228737   5.262   8.646   4.599 -0.7682  1.4800  0.3200
41267SOL     OW28738   3.523   2.320   5.108 -0.7989  0.5859  0.5844
41267SOL    HW128739   3.508   2.412   5.086 -0.5036  0.5584  0.2730
41267SOL    HW228740   3.536   2.320   5.202 -1.8415  0.7339  0.7420
41268SOL     OW28741   1.364   9.518   9.390 -0.2865 -0.2330  0.7943
41268SOL    HW128742   1.384   9.593   9.446  0.5639 -1.6632  2.5421
41268SOL    HW228743   1.285   9.479   9.428 -1.0789  0.0828 -0.4633
41269SOL     OW28744   4.527  11.636   1.007  0.3844 -0.3063  0.3493
41269SOL    HW128745   4.522  11.720   1.054  0.6395 -0.5290  0.7870
41269SOL    HW228746   4.440  11.598   1.018  0.0467  0.2205 -0.4642
41270SOL     OW28747   5.200   8.402   8.639  0.9096 -0.2803 -0.9371
41270SOL    HW128748   5.122   8.411   8.584 -0.3085 -0.3713  0.6981
41270SOL    HW228749   5.166   8.369   8.723  2.7092 -0.2820 -0.1734
41271SOL     OW28750  10.581   9.197   1.459 -0.6778  0.2793 -0.0000
41271SOL    HW128751  10.499   9.162   1.424  0.4086 -2.1877 -0.2941
41271SOL    HW228752  10.563   9.216   1.551 -1.8622  0.8763 -0.3426
41272SOL     OW28753   0.790   1.823  10.902 -0.6020 -0.1635  0.3353
41272SOL    HW128754   0.844   1.761  10.854 -2.1403 -0.6696 -0.8012
41272SOL    HW228755   0.707   1.825  10.855 -1.3429  1.1319  1.6063
41273SOL     OW28756   4.419   2.136  10.907  0.1547 -0.2376 -1.0852
41273SOL    HW128757   4.403   2.055  10.956  1.0343  0.2488  0.0592
41273SOL    HW228758   4.464   2.107  10.827  0.2091 -0.9061 -0.8227
41274SOL     OW28759   1.653   1.886   6.417  0.6744  0.5938  0.2679
41274SOL    HW128760   1.735   1.895   6.465  0.0259  1.2803  1.3036
41274SOL    HW228761   1.677   1.846   6.334  1.6903 -2.0375  1.6945
41275SOL     OW28762   3.090   6.232  10.679  0.1704 -0.2865 -0.0742
41275SOL    HW128763   3.095   6.311  10.625 -2.1427 -1.7703 -2.7060
41275SOL    HW228764   3.064   6.264  10.766  1.8978  2.0099 -0.3036
41276SOL     OW28765  10.994   6.716   6.490  0.0549 -0.0993 -0.0001
41276SOL    HW128766  11.064   6.696   6.552  2.3302 -2.5269 -3.0737
41276SOL    HW228767  10.947   6.633   6.479 -2.7231  1.1970  1.1071
41277SOL     OW28768   8.085   0.243   4.219  0.0929 -0.3672 -0.2742
41277SOL    HW128769   8.128   0.164   4.251  0.7843 -0.5394 -1.5410
41277SOL    HW228770   8.107   0.246   4.126  2.1123  2.5155  0.1251
41278SOL     OW28771   9.549   6.758  11.295  0.0978  0.3453 -0.4116
41278SOL    HW128772   9.590   6.769  11.209 -2.3288  1.2117 -1.5560
41278SOL    HW228773   9.575   6.836  11.344  0.2055  0.6555 -0.9534
41279SOL     OW28774   4.364   6.695   6.429  0.1063 -0.2059  0.3732
41279SOL    HW128775   4.304   6.757   6.470  1.8489  1.6705  0.2582
41279SOL    HW228776   4.320   6.668   6.349 -0.3528  1.5627 -0.0093
41280SOL     OW28777   1.509   4.543   5.374  0.0915 -0.1582 -0.2418
41280SOL    HW128778   1.471   4.630   5.365  1.2765  0.3879 -0.1989
41280SOL    HW228779   1.599   4.559   5.403 -0.0177 -1.4349  0.9395
41281SOL     OW28780   5.767   5.617   7.258  0.4867 -0.0626  0.0360
41281SOL    HW128781   5.800   5.536   7.220  0.3685 -0.1394  0.0955
41281SOL    HW228782   5.846   5.669   7.276  0.5216  0.1436 -0.6804
41282SOL     OW28783   5.689   1.181   3.499  0.2754 -0.5197  0.3152
41282SOL    HW128784   5.615   1.211   3.447  0.2121  0.4252  0.9327
41282SOL    HW228785   5.658   1.181   3.589  1.3951  1.2092  0.7539
41283SOL     OW28786   6.862   5.415  11.210  0.4404  0.3295 -0.2948
41283SOL    HW128787   6.955   5.439  11.211  0.1610  1.4497 -0.0829
41283SOL    HW228788   6.816   5.498  11.211 -0.5894 -0.2298  0.9889
41284SOL     OW28789   3.715   4.164  10.165  0.2740  0.5196 -0.3789
41284SOL    HW128790   3.689   4.136  10.077 -0.1056 -1.2326  0.2500
41284SOL    HW228791   3.642   4.139  10.221  0.3136  2.0415  0.3829
41285SOL     OW28792   1.805  11.101   3.432 -0.3942  0.0780 -0.3908
41285SOL    HW128793   1.839  11.100   3.342 -0.8076 -0.0459 -0.5473
41285SOL    HW228794   1.875  11.063   3.485  1.4622  3.4854 -0.0802
41286SOL     OW28795   5.919  11.372   3.635  0.1339  0.5439  0.0050
41286SOL    HW128796   5.837  11.421   3.630  1.8242  3.5685 -1.4081
41286SOL    HW228797   5.917  11.315   3.558 -0.1019  1.6833 -0.8765
41287SOL     OW28798   8.536   2.950  11.435  0.3888  0.8348 -0.1989
41287SOL    HW128799   8.550   2.994  11.351 -1.2201 -0.2043 -1.0667
41287SOL    HW228800   8.448   2.913  11.428  1.0307 -1.0845  1.1144
41288SOL     OW28801   0.009   3.720   0.366 -0.0953 -0.3958  0.4354
41288SOL    HW128802  -0.028   3.794   0.318  2.0450 -0.4337 -1.4436
41288SOL    HW228803  -0.062   3.655   0.367 -1.8856  1.4812  1.8357
41289SOL     OW28804   5.888   2.720   6.677 -0.5349 -0.1415 -0.5756
41289SOL    HW128805   5.917   2.811   6.669  1.1828 -0.6512 -0.6124
41289SOL    HW228806   5.795   2.726   6.699 -0.4542  1.6171 -0.5738
41290SOL     OW28807   7.911   4.523   0.403  0.7073  0.0025  0.1825
41290SOL    HW128808   7.944   4.440   0.438 -0.6104 -1.1376 -1.1355
41290SOL    HW228809   7.989   4.568   0.370  1.1854 -1.9612 -1.5534
41291SOL     OW28810   0.081   8.250  11.545 -0.3088 -0.1200 -0.6723
41291SOL    HW128811   0.082   8.208  11.459 -1.5009  0.1306 -0.8194
41291SOL    HW228812   0.031   8.330  11.533 -1.0457 -0.4013  0.3960
41292SOL     OW28813   2.982   7.777  11.037  0.1238 -0.2810  0.1777
41292SOL    HW128814   3.041   7.763  10.963 -1.0348 -0.8552 -0.6626
41292SOL    HW228815   2.940   7.861  11.018 -2.0457 -1.5841 -1.1847
41293SOL     OW28816   7.138  11.416   4.941  0.1041 -0.3030  0.2550
41293SOL    HW128817   7.052  11.457   4.937 -0.0357 -0.6634 -0.4705
41293SOL    HW228818   7.196  11.486   4.971 -0.4092 -0.0185  0.6000
41294SOL     OW28819   3.059   0.053   0.499 -0.0792  0.3832  0.5073
41294SOL    HW128820   3.100   0.023   0.580 -0.7911 -0.1078  0.7000
41294SOL    HW228821   3.127   0.104   0.455  1.0309 -1.1916  0.3462
41295SOL     OW28822   8.747   0.485   8.880  0.6227 -0.3480  0.2296
41295SOL    HW128823   8.830   0.454   8.844  0.6287 -0.6663  0.5097
41295SOL    HW228824   8.763   0.577   8.901  1.4485 -0.8347  1.8756
41296SOL     OW28825   1.176   0.293   9.464 -0.0094 -0.3424  0.2396
41296SOL    HW128826   1.094   0.277   9.418  0.7689 -0.6045 -1.1278
41296SOL    HW228827   1.221   0.208   9.461  0.0216 -0.3919  1.6061
41297SOL     OW28828   6.471   9.908   5.114 -0.1344 -0.3501  0.6305
41297SOL    HW128829   6.534   9.843   5.084  0.7728  1.5070 -1.8376
41297SOL    HW228830   6.522   9.968   5.169  0.1878  0.7435 -0.7832
41298SOL     OW28831   2.210  11.650   7.800  0.6147 -0.2810  0.1726
41298SOL    HW128832   2.208  11.659   7.705 -0.4842 -0.0369  0.2141
41298SOL    HW228833   2.161  11.725   7.833 -1.8034 -2.0142  0.8013
41299SOL     OW28834   7.128   7.235   2.501 -0.3612 -0.3001  0.1215
41299SOL    HW128835   7.176   7.295   2.444 -0.1086 -0.6573 -0.0479
41299SOL    HW228836   7.190   7.214   2.571  0.4682 -2.2745 -1.1112
41300SOL     OW28837   6.771   0.459   2.078 -0.4568 -0.2600 -0.1427
41300SOL    HW128838   6.854   0.412   2.074  0.7861  1.6339  1.5857
41300SOL    HW228839   6.705   0.393   2.059  1.4462 -1.6105 -2.7141
41301SOL     OW28840   2.071   3.055   8.550  0.6311  0.2855 -0.4911
41301SOL    HW128841   2.067   3.001   8.629  0.9637  3.5310  1.9582
41301SOL    HW228842   1.986   3.041   8.508  0.8366 -2.3034 -0.2096
41302SOL     OW28843   4.002   4.999   3.616 -0.1690  0.9520  0.0104
41302SOL    HW128844   4.022   5.091   3.633 -0.1090  0.8274  0.6575
41302SOL    HW228845   4.087   4.958   3.602  0.0612  0.5381  2.1653
41303SOL     OW28846   3.133   6.496   8.984  0.1677 -0.1367  0.0935
41303SOL    HW128847   3.089   6.479   8.900  2.0325  1.0446 -1.2009
41303SOL    HW228848   3.068   6.472   9.050 -1.8285  0.0584 -1.6774
41304SOL     OW28849  11.661   3.986   6.441  0.2964  0.5975  0.4880
41304SOL    HW128850  11.692   4.026   6.360 -0.5239  1.6835  0.6956
41304SOL    HW228851  11.577   3.947   6.419  0.8607 -0.6437  0.4128
41305SOL     OW28852   1.186   4.322   9.617  0.3801  0.0424  0.9432
41305SOL    HW128853   1.136   4.393   9.659 -0.2368  0.1999 -0.0322
41305SOL    HW228854   1.197   4.257   9.686  0.1533  0.6833  1.6002
41306SOL     OW28855   8.116   5.442   1.423 -0.3642  0.4191 -1.0175
41306SOL    HW128856   8.040   5.408   1.469  2.4186 -3.6081  1.2510
41306SOL    HW228857   8.141   5.520   1.472 -1.6253  0.3603 -0.2547
41307SOL     OW28858   4.350   8.115  10.480  0.1403 -0.1011 -0.0375
41307SOL    HW128859   4.417   8.077  10.537 -1.0852 -0.9355  0.9158
41307SOL    HW228860   4.386   8.108  10.392  2.2904  1.6297  0.6169
41308SOL     OW28861   1.342   6.695   6.589  0.0036 -0.6725  0.1579
41308SOL    HW128862   1.292   6.730   6.662  0.0716 -0.7368  0.2345
41308SOL    HW228863   1.279   6.692   6.517  0.7795  2.8192 -0.8765
41309SOL     OW28864  10.654   4.199   8.246 -0.4938  0.8323 -0.4335
41309SOL    HW128865  10.600   4.267   8.205 -0.6692 -0.3486 -2.2566
41309SOL    HW228866  10.605   4.118   8.234  0.7172  0.0454 -0.2906
41310SOL     OW28867   9.209   7.217   6.583 -0.3318 -0.4093  0.0348
41310SOL    HW128868   9.282   7.193   6.640  2.2041 -0.0935 -2.8725
41310SOL    HW228869   9.216   7.312   6.573  0.7185 -0.6855 -2.4866
41311SOL     OW28870   7.828  10.271   2.936 -0.0010  0.0090  0.0768
41311SOL    HW128871   7.760  10.334   2.914  0.6790  0.2717 -1.3612
41311SOL    HW228872   7.812  10.197   2.878  0.1235 -0.5268  0.7055
41312SOL     OW28873   7.516   9.085   2.647  0.0556  0.6177  0.2367
41312SOL    HW128874   7.590   9.059   2.592  0.5577  0.4869  0.9584
41312SOL    HW228875   7.501   9.177   2.625  0.2273  0.5529 -0.1504
41313SOL     OW28876   3.422   1.753   1.792  0.2377  0.3853  0.2017
41313SOL    HW128877   3.373   1.736   1.872 -1.5185  2.2537 -0.3921
41313SOL    HW228878   3.456   1.842   1.803 -0.6373  0.9636 -1.3555
41314SOL     OW28879   4.260   3.342   8.869 -0.6454 -0.3497  0.2899
41314SOL    HW128880   4.199   3.294   8.812  0.7668 -2.3533  0.3530
41314SOL    HW228881   4.333   3.282   8.881  1.0640  1.7013  0.7619
41315SOL     OW28882   0.267   7.027  10.369 -0.4548  0.2052  0.6010
41315SOL    HW128883   0.339   7.047  10.430  0.1074  0.6340 -0.1887
41315SOL    HW228884   0.204   6.979  10.422  1.9070 -3.2842  0.6086
41316SOL     OW28885   9.614   5.801   7.144 -0.9333  0.1844 -0.3015
41316SOL    HW128886   9.519   5.818   7.146 -1.0459 -0.2903 -1.3027
41316SOL    HW228887   9.621   5.707   7.130 -0.3265  0.3645 -1.3109
41317SOL     OW28888   6.510   2.924   9.064 -0.7526  0.1587 -0.1127
41317SOL    HW128889   6.538   2.951   8.976  0.7456  0.5389  0.4417
41317SOL    HW228890   6.537   2.832   9.070  0.4730  0.5260  0.4230
41318SOL     OW28891   3.236  11.334  10.955  0.7300  0.5362  0.3191
41318SOL    HW128892   3.202  11.395  10.890  1.0586 -0.5852 -0.9492
41318SOL    HW228893   3.161  11.317  11.013 -0.1682  0.0560 -0.9290
41319SOL     OW28894   2.627   0.099   1.789 -0.1462  0.0469 -0.0425
41319SOL    HW128895   2.700   0.076   1.846 -1.0372  1.2676  1.6464
41319SOL    HW228896   2.649   0.185   1.754 -0.2875 -0.0622 -0.4121
41320SOL     OW28897  10.512   0.584   3.388 -0.2590 -0.6570 -0.7758
41320SOL    HW128898  10.494   0.607   3.297  1.2536 -0.2188 -0.9831
41320SOL    HW228899  10.535   0.667   3.430  1.6664 -1.1968 -0.6555
41321SOL     OW28900   5.245  11.642   3.699 -0.2045 -0.4507  0.4075
41321SOL    HW128901   5.187  11.587   3.645 -0.6329 -0.6609  1.0597
41321SOL    HW228902   5.323  11.589   3.711 -0.4802 -0.7875  0.7497
41322SOL     OW28903   2.562   1.003   3.661  0.1818  0.0283 -0.0053
41322SOL    HW128904   2.559   0.978   3.753 -0.7697 -0.6789 -0.2118
41322SOL    HW228905   2.655   1.018   3.643  0.4374 -0.3575  0.9308
41323SOL     OW28906   8.757   2.826   3.334  0.3848 -0.8781  0.0401
41323SOL    HW128907   8.821   2.897   3.337  0.9436 -1.3414 -0.5677
41323SOL    HW228908   8.683   2.858   3.386  0.6520  0.1173 -0.1748
41324SOL     OW28909   9.551   4.654   4.902 -0.2300  0.2495  0.1708
41324SOL    HW128910   9.503   4.584   4.858 -0.1669  0.3244 -0.0150
41324SOL    HW228911   9.529   4.733   4.853  0.0205  0.2971  0.1360
41325SOL     OW28912  10.409   2.601  11.002 -0.3265 -0.1520 -0.2559
41325SOL    HW128913  10.395   2.519  11.050 -1.4750  0.3799  0.3440
41325SOL    HW228914  10.336   2.606  10.941  0.2156  0.0068 -0.9010
41326SOL     OW28915  11.016   1.908   3.891  0.1302 -0.8023 -0.6297
41326SOL    HW128916  11.049   1.818   3.892 -1.8466 -1.5994 -1.1356
41326SOL    HW228917  11.076   1.956   3.947  1.3134 -2.4151 -0.4290
41327SOL     OW28918   5.455   5.311  10.502  0.0482 -0.1754  0.0792
41327SOL    HW128919   5.359   5.309  10.506 -0.1384  3.1320 -0.3562
41327SOL    HW228920   5.476   5.288  10.412 -0.4839  0.8957 -0.3315
41328SOL     OW28921   1.321   2.215   0.918  0.4092  0.1722 -0.1428
41328SOL    HW128922   1.314   2.281   0.987  2.1991 -0.8303  1.0940
41328SOL    HW228923   1.329   2.265   0.837 -0.8018  1.4019  0.4693
41329SOL     OW28924   6.472   7.377   1.825  0.5400 -0.0699  0.2695
41329SOL    HW128925   6.447   7.439   1.892 -0.7146 -1.3358  1.0219
41329SOL    HW228926   6.391   7.356   1.778  0.9567 -0.9813 -0.0933
41330SOL     OW28927   6.283   9.979   2.472  0.1443 -0.2916 -0.2726
41330SOL    HW128928   6.276   9.967   2.377 -1.0716  1.3056 -0.4391
41330SOL    HW228929   6.263   9.893   2.508  0.1018 -0.8077 -1.4598
41331SOL     OW28930   4.421   6.693   3.359  0.0953 -0.3983  0.0638
41331SOL    HW128931   4.501   6.676   3.309  0.3707 -2.7927  1.1886
41331SOL    HW228932   4.399   6.609   3.400 -1.8018  0.7177  1.5372
41332SOL     OW28933  11.208   8.896   4.061  0.2980  0.5152 -0.3158
41332SOL    HW128934  11.139   8.856   4.009  1.8575 -1.9447 -0.6365
41332SOL    HW228935  11.167   8.916   4.145 -0.6167 -1.7203 -0.1806
41333SOL     OW28936  11.292   5.219   8.944 -0.1076 -0.1757  0.6185
41333SOL    HW128937  11.256   5.283   9.005  0.4673 -0.5199  1.3331
41333SOL    HW228938  11.387   5.234   8.947  0.1561 -1.8321  1.7111
41334SOL     OW28939   8.830   6.364   2.886  0.6419  0.3378  0.4101
41334SOL    HW128940   8.755   6.306   2.893 -0.2363  1.1496 -1.5182
41334SOL    HW228941   8.884   6.343   2.962 -0.9177 -1.1274  1.1752
41335SOL     OW28942   0.101  11.627   0.529 -0.5223  0.6109  0.0563
41335SOL    HW128943   0.164  11.700   0.533 -0.3471  0.4080  2.0501
41335SOL    HW228944   0.081  11.608   0.620 -0.3258 -2.0713 -0.3896
41336SOL     OW28945   3.667   7.891   4.291 -0.0595 -0.3282 -0.0001
41336SOL    HW128946   3.695   7.938   4.369  2.5058  0.5359 -1.3316
41336SOL    HW228947   3.695   7.801   4.306 -1.6468 -0.7023  0.9792
41337SOL     OW28948   7.623   5.960   8.833 -0.1185  0.0444  0.1329
41337SOL    HW128949   7.703   5.912   8.813  0.4664  0.9958  0.1445
41337SOL    HW228950   7.617   5.959   8.928 -1.5256 -2.2461  0.0993
41338SOL     OW28951   3.433   2.493   8.806 -0.1541 -0.3743 -0.2436
41338SOL    HW128952   3.373   2.437   8.757  0.6349 -1.2455 -0.2421
41338SOL    HW228953   3.489   2.432   8.854  0.3729  0.4277  0.1820
41339SOL     OW28954  10.944   9.162   4.143 -0.3418  0.4316 -1.0747
41339SOL    HW128955  10.921   9.071   4.161 -2.7373  1.2120  0.4582
41339SOL    HW228956  10.862   9.210   4.158  1.2704  3.0526  0.1527
41340SOL     OW28957  10.426   5.783   6.287 -0.3022  0.1745  0.3383
41340SOL    HW128958  10.503   5.837   6.271 -0.7549  0.6586 -0.2630
41340SOL    HW228959  10.354   5.830   6.245 -1.0537  0.0828  1.4636
41341SOL     OW28960   5.719   4.291   2.236  0.1812 -0.8250 -0.6524
41341SOL    HW128961   5.730   4.329   2.149  0.3604 -1.8425 -1.0981
41341SOL    HW228962   5.766   4.350   2.295  0.5780 -0.4480 -1.3324
41342SOL     OW28963  10.888  10.289   3.327  0.4579 -0.2156  0.2059
41342SOL    HW128964  10.861  10.205   3.365 -0.0199  0.4704  1.4360
41342SOL    HW228965  10.868  10.353   3.395 -1.8587  1.2984 -1.7161
41343SOL     OW28966  10.369   1.092   2.914 -0.5279  0.1821  0.3194
41343SOL    HW128967  10.406   1.179   2.927 -1.9596  0.5771  2.1914
41343SOL    HW228968  10.338   1.092   2.824  0.2996  1.2899  0.0181
41344SOL     OW28969  10.381   6.336   8.241 -0.3568  0.2309 -0.2126
41344SOL    HW128970  10.406   6.411   8.294 -0.9166  0.5702 -0.4165
41344SOL    HW228971  10.336   6.374   8.166  0.1849 -0.2595 -0.7950
41345SOL     OW28972   2.916   9.288   4.040 -0.0216  0.3202  0.8079
41345SOL    HW128973   2.846   9.276   3.976  0.3329  0.9689  0.2729
41345SOL    HW228974   2.885   9.358   4.097 -0.7652 -0.9403  1.9867
41346SOL     OW28975   1.722   1.296   6.586 -0.4822 -0.0909  0.0394
41346SOL    HW128976   1.805   1.319   6.545 -0.3983 -0.9174 -0.2801
41346SOL    HW228977   1.731   1.202   6.606 -1.3413 -0.1884 -0.0057
41347SOL     OW28978   5.502   1.343   0.342 -0.0438  0.3013 -0.0609
41347SOL    HW128979   5.472   1.286   0.414  0.7113 -2.0594 -1.4907
41347SOL    HW228980   5.427   1.400   0.324 -1.3064 -1.0090  0.7467
41348SOL     OW28981   6.924   0.107   0.690  0.1713 -0.0523 -0.2882
41348SOL    HW128982   6.893   0.195   0.668 -0.3887 -0.4409 -1.0989
41348SOL    HW228983   7.018   0.110   0.673 -0.0163  0.0764 -1.4123
41349SOL     OW28984   2.519   6.752  11.576 -0.0772 -0.1917 -0.1726
41349SOL    HW128985   2.474   6.808  11.513 -2.0421 -0.9611  0.4694
41349SOL    HW228986   2.524   6.805  11.655  0.0412 -0.1495 -0.2085
41350SOL     OW28987   0.222   4.138   5.628 -0.0427 -0.1356 -0.0043
41350SOL    HW128988   0.283   4.158   5.700 -0.4182 -1.3590  0.6979
41350SOL    HW228989   0.156   4.082   5.669 -0.7367 -0.1587 -1.1337
41351SOL     OW28990   4.920   3.378   1.206 -0.0587 -0.2822  0.4441
41351SOL    HW128991   4.870   3.336   1.136 -0.2776 -0.6789  0.8306
41351SOL    HW228992   5.002   3.404   1.165 -1.1623  1.7783 -0.6019
41352SOL     OW28993   8.377   9.294   4.353  0.2646  0.2343  0.1819
41352SOL    HW128994   8.338   9.332   4.432 -1.6231 -1.0896 -0.0397
41352SOL    HW228995   8.471   9.289   4.373  0.2841  2.7330  1.0983
41353SOL     OW28996   0.527   6.275   3.241 -0.6594  0.2867 -0.1575
41353SOL    HW128997   0.456   6.248   3.300 -0.3632 -0.0966  0.0275
41353SOL    HW228998   0.511   6.225   3.161 -1.2147  1.0043 -0.5070
41354SOL     OW28999   4.386  11.159   7.841  0.3901  0.4055  0.7153
41354SOL    HW129000   4.408  11.181   7.750  0.7116 -0.0916  0.6742
41354SOL    HW229001   4.451  11.205   7.893 -0.4006  1.5323  0.7618
41355SOL     OW29002   0.355   5.057   0.552  0.1623 -0.2309  0.4548
41355SOL    HW129003   0.428   5.021   0.602  1.6604 -0.7181 -1.9048
41355SOL    HW229004   0.375   5.150   0.543  0.6893 -0.4188 -0.4413
41356SOL     OW29005   5.725  11.428  11.666  0.1938 -0.2035 -0.1577
41356SOL    HW129006   5.741  11.498  11.730  0.6258 -0.0957 -0.3830
41356SOL    HW229007   5.782  11.356  11.694  0.0212 -0.3345 -0.1399
41357SOL     OW29008   1.316   4.579   0.041  0.1004 -0.1898  0.6866
41357SOL    HW129009   1.394   4.553  -0.007 -0.0391  0.7207 -0.0500
41357SOL    HW229010   1.349   4.622   0.120  0.3333 -0.1015  0.5388
41358SOL     OW29011   3.818   1.843   3.647 -0.1691 -0.1743 -0.6719
41358SOL    HW129012   3.748   1.791   3.606 -0.0497  0.1233 -1.2669
41358SOL    HW229013   3.867   1.780   3.699 -0.4369 -0.5301 -0.8411
41359SOL     OW29014   5.251   1.139  11.209 -0.7768 -0.5768 -0.1757
41359SOL    HW129015   5.247   1.072  11.278  0.5741 -0.5290 -0.0337
41359SOL    HW229016   5.322   1.111  11.152 -2.1391 -0.8410 -1.8260
41360SOL     OW29017   2.578   9.500   4.732 -0.0513 -0.1833 -0.2905
41360SOL    HW129018   2.550   9.462   4.815 -1.3504  2.1032  0.4292
41360SOL    HW229019   2.644   9.566   4.757 -0.3932  0.4703 -1.0621
41361SOL     OW29020   7.520   0.648   5.011 -0.2854 -0.2691  0.2722
41361SOL    HW129021   7.534   0.703   4.934  1.2617 -0.0602  0.6631
41361SOL    HW229022   7.469   0.703   5.071 -0.3255  0.0670 -0.0680
41362SOL     OW29023   5.525  10.719   7.181  0.2317  0.1826 -0.7445
41362SOL    HW129024   5.578  10.772   7.121  0.9959 -1.3611 -1.4774
41362SOL    HW229025   5.563  10.736   7.268 -0.6790  2.1779 -0.6776
41363SOL     OW29026   4.810   4.637  11.205 -0.1533  0.0705  0.3251
41363SOL    HW129027   4.755   4.708  11.173 -0.7297 -0.2509  0.5930
41363SOL    HW229028   4.754   4.560  11.203  0.4266 -0.3515  0.1668
41364SOL     OW29029  11.624  10.461   7.820  0.2406 -0.1577 -0.1976
41364SOL    HW129030  11.529  10.452   7.828  0.1455 -0.1212 -1.2020
41364SOL    HW229031  11.659  10.412   7.894 -0.5492 -0.5480 -0.0778
41365SOL     OW29032   8.141   2.503   1.587 -0.2676 -0.1252  0.2098
41365SOL    HW129033   8.192   2.486   1.507  0.0481 -0.2517  0.4352
41365SOL    HW229034   8.074   2.566   1.560  0.1321  0.1934 -0.0467
41366SOL     OW29035   2.412   4.064   6.925  0.0310  0.7333  0.3550
41366SOL    HW129036   2.426   4.158   6.939  1.9482  0.8634 -1.7849
41366SOL    HW229037   2.462   4.021   6.994 -2.0935  1.1660  2.3185
41367SOL     OW29038   6.455   9.142   2.196 -0.3595 -0.5187  0.4808
41367SOL    HW129039   6.387   9.197   2.156 -0.3550 -0.3319  0.7256
41367SOL    HW229040   6.527   9.203   2.214 -0.1336 -0.7141  0.2333
41368SOL     OW29041   8.914   1.135   4.584 -0.3129 -0.3965  0.3274
41368SOL    HW129042   8.989   1.175   4.628 -0.3368 -0.0613  0.0641
41368SOL    HW229043   8.879   1.074   4.648  0.1982 -0.5722  0.4457
41369SOL     OW29044  11.365   6.062   1.227  0.3129 -0.3704 -0.1819
41369SOL    HW129045  11.378   6.118   1.303 -1.8685  0.4515 -0.3286
41369SOL    HW229046  11.431   6.091   1.164  1.3812 -0.2749  0.9430
41370SOL     OW29047  11.226   0.274   8.785  0.1948  0.0884  0.0316
41370SOL    HW129048  11.246   0.191   8.827 -1.1749 -0.4113 -0.2648
41370SOL    HW229049  11.299   0.289   8.724 -0.8416 -2.2508 -1.9208
41371SOL     OW29050   9.516  10.254   3.283 -0.3371 -0.2230 -0.6667
41371SOL    HW129051   9.569  10.252   3.203  0.9917 -0.8158  0.1975
41371SOL    HW229052   9.426  10.263   3.252  0.1429 -0.5781 -2.2304
41372SOL     OW29053   2.837   5.731   8.275 -0.7473 -0.3057 -0.4136
41372SOL    HW129054   2.761   5.689   8.234 -1.3837  1.0108 -0.6446
41372SOL    HW229055   2.838   5.695   8.364  0.4321 -2.9029 -1.3908
41373SOL     OW29056  10.782   8.358   6.063 -0.7278 -0.2055  0.3550
41373SOL    HW129057  10.821   8.270   6.060  2.3664  1.0607 -0.7693
41373SOL    HW229058  10.815   8.395   6.145 -0.2930  0.5754 -0.1628
41374SOL     OW29059   5.109   9.812   8.608 -0.0265 -0.7421  0.6920
41374SOL    HW129060   5.075   9.851   8.689 -0.3168 -2.4346  1.4379
41374SOL    HW229061   5.054   9.850   8.539  1.1190  1.7909  1.0648
41375SOL     OW29062   8.222   2.884   9.587 -0.1571 -0.5741  0.0611
41375SOL    HW129063   8.273   2.964   9.575 -2.0194  0.5353 -1.0389
41375SOL    HW229064   8.215   2.847   9.499  0.8232 -2.0696  0.5860
41376SOL     OW29065   9.272   8.889   1.700  0.2668  0.2862  0.2375
41376SOL    HW129066   9.247   8.923   1.787 -0.5945  0.8041 -0.1912
41376SOL    HW229067   9.197   8.835   1.674  0.1834  0.7397 -0.4930
41377SOL     OW29068   6.950   1.574   1.640 -0.0264  0.0499  0.2165
41377SOL    HW129069   7.006   1.642   1.676 -0.2803  1.2602 -1.5341
41377SOL    HW229070   6.969   1.573   1.546 -2.3452 -0.0178 -0.3321
41378SOL     OW29071   6.380  11.278  10.128 -0.0551  0.0332  0.3131
41378SOL    HW129072   6.300  11.317  10.090  0.2256 -0.2560 -0.6107
41378SOL    HW229073   6.428  11.353  10.163 -1.1263  0.1179  1.6626
41379SOL     OW29074   2.317   5.384   7.831  0.2472  0.2178 -0.4424
41379SOL    HW129075   2.337   5.309   7.775  1.2154 -0.0916  0.2938
41379SOL    HW229076   2.287   5.345   7.913  1.2455  0.6030  0.1285
41380SOL     OW29077   5.831   4.311   0.315 -0.7594 -0.2199  0.2853
41380SOL    HW129078   5.775   4.263   0.375 -1.9163  0.5176 -0.1793
41380SOL    HW229079   5.875   4.243   0.264 -0.2793 -0.8326  1.4695
41381SOL     OW29080   1.795   5.247   4.665 -0.2786 -0.2612  0.2850
41381SOL    HW129081   1.746   5.188   4.722  0.4815  0.5984  1.9131
41381SOL    HW229082   1.789   5.208   4.578 -3.3630 -0.4998  0.4838
41382SOL     OW29083   3.692   1.553   9.571 -0.0962 -0.0129 -0.5612
41382SOL    HW129084   3.600   1.553   9.545 -0.1676 -1.5784 -0.3793
41382SOL    HW229085   3.739   1.583   9.493 -0.6006 -1.2475 -1.3728
41383SOL     OW29086   3.613   0.092   7.949 -0.3005 -0.4114  0.2809
41383SOL    HW129087   3.590   0.077   8.041 -1.8314  0.1974  0.0298
41383SOL    HW229088   3.560   0.167   7.923  0.8656  0.0615 -0.8378
41384SOL     OW29089  10.741   0.435   6.759  0.0544 -0.5953  0.2548
41384SOL    HW129090  10.646   0.431   6.762  0.0833 -1.0197  0.7876
41384SOL    HW229091  10.768   0.438   6.851  0.5129  0.8236  0.0973
41385SOL     OW29092   4.797   1.851   5.939 -0.4189  0.8874  0.1566
41385SOL    HW129093   4.888   1.862   5.911 -0.2370  2.5827  1.2475
41385SOL    HW229094   4.748   1.910   5.882 -0.8895 -0.2017 -0.5870
41386SOL     OW29095   7.549   0.207   1.358  0.1505  0.1272 -0.2017
41386SOL    HW129096   7.487   0.134   1.372 -1.6055  1.8407  1.7842
41386SOL    HW229097   7.575   0.232   1.447  0.7171  1.8827 -0.8330
41387SOL     OW29098   6.170  10.467   2.872 -0.3655  0.4323 -0.0946
41387SOL    HW129099   6.242  10.449   2.931  0.1088 -1.2022 -1.1065
41387SOL    HW229100   6.114  10.389   2.878 -0.6421  0.5224 -1.2897
41388SOL     OW29101  10.861   3.703  10.818 -0.3108  0.3161  0.2443
41388SOL    HW129102  10.869   3.684  10.724 -1.3989 -1.4717  0.4501
41388SOL    HW229103  10.936   3.659  10.858 -1.5246 -1.6617  0.4766
41389SOL     OW29104   1.392   4.220   1.332 -0.1270  0.1744  0.4374
41389SOL    HW129105   1.315   4.227   1.277  0.6110 -2.4198 -1.0905
41389SOL    HW229106   1.381   4.137   1.378  1.8190 -0.3836 -0.0183
41390SOL     OW29107   6.931   5.620  11.638  0.3986  0.0923 -0.2855
41390SOL    HW129108   6.920   5.589  11.728 -1.9972  0.0094 -0.5400
41390SOL    HW229109   6.984   5.699  11.647 -0.0309  0.2472  1.2329
41391SOL     OW29110   8.414   0.153   3.560  0.6515  0.0129 -0.6643
41391SOL    HW129111   8.421   0.236   3.608  1.8427 -0.6421  0.3715
41391SOL    HW229112   8.321   0.142   3.544  0.3579  0.9572  0.2660
41392SOL     OW29113   1.818   3.430   6.709  0.4460  0.0256  0.7199
41392SOL    HW129114   1.744   3.413   6.651 -0.2495  1.0475  1.2839
41392SOL    HW229115   1.889   3.377   6.673 -0.5581 -1.0020  0.1865
41393SOL     OW29116   0.002   3.150   3.555 -0.3745 -0.1744  0.0803
41393SOL    HW129117   0.079   3.111   3.515  0.6870 -0.5086  2.2663
41393SOL    HW229118   0.017   3.244   3.552  1.1775 -0.2692  2.2338
41394SOL     OW29119   8.061   2.971   2.856  0.0359  0.3741 -0.2963
41394SOL    HW129120   7.979   2.938   2.818  0.5315  0.4451 -1.4734
41394SOL    HW229121   8.093   3.034   2.792  1.6914 -0.6226 -0.4992
41395SOL     OW29122  10.141   8.702  10.172 -0.4970  0.7359  0.4485
41395SOL    HW129123  10.108   8.705  10.262  0.9117  0.7331  0.9906
41395SOL    HW229124  10.235   8.719  10.180  0.6167 -3.6702 -0.4807
41396SOL     OW29125   5.057   2.221   7.540  0.1967  0.0929 -0.5049
41396SOL    HW129126   5.060   2.125   7.543  0.8611  0.0988 -0.8405
41396SOL    HW229127   5.146   2.247   7.517 -0.4019  0.7168 -2.2699
41397SOL     OW29128   5.607  10.532   8.490 -0.5228 -0.0627  0.2827
41397SOL    HW129129   5.698  10.512   8.512 -0.6902  1.0954  2.3752
41397SOL    HW229130   5.572  10.451   8.453  1.5667 -0.2690 -1.4675
41398SOL     OW29131   0.511  11.655   4.066 -0.2926  0.7049 -0.6002
41398SOL    HW129132   0.437  11.638   4.008 -0.7745  0.8262 -0.0387
41398SOL    HW229133   0.548  11.569   4.084 -0.9383  0.5307 -0.0676
41399SOL     OW29134   6.810   4.972   2.783  0.3386 -0.2563 -0.0222
41399SOL    HW129135   6.787   4.922   2.862  0.1921 -0.4370 -0.1797
41399SOL    HW229136   6.740   5.037   2.775 -0.6605 -1.4095 -1.0386
41400SOL     OW29137  10.550  10.497   1.718 -0.6428 -0.4896 -0.0411
41400SOL    HW129138  10.570  10.574   1.664  0.2053 -1.4914 -1.2181
41400SOL    HW229139  10.457  10.506   1.738 -0.5889  0.7799 -0.2507
41401SOL     OW29140   4.557   0.121   3.604 -0.0837  0.0580  0.7692
41401SOL    HW129141   4.644   0.091   3.630 -0.8214 -1.3022  1.8318
41401SOL    HW229142   4.557   0.215   3.624  0.9417 -0.0378  1.3192
41402SOL     OW29143  11.136   8.940   6.695  0.4528  0.1261 -0.3659
41402SOL    HW129144  11.192   9.011   6.726 -0.6041  1.7480 -1.9594
41402SOL    HW229145  11.051   8.982   6.677 -0.7358 -1.8852  0.2152
41403SOL     OW29146   3.166   8.979   0.272 -0.2198 -0.2929 -0.3001
41403SOL    HW129147   3.141   8.999   0.362  0.2639 -2.4466  0.3518
41403SOL    HW229148   3.237   8.916   0.280  0.6490  0.3566 -2.2028
41404SOL     OW29149   9.656   9.948  11.674 -0.2392  0.1336 -0.1346
41404SOL    HW129150   9.726   9.911  11.620 -0.4335  2.0183 -1.7841
41404SOL    HW229151   9.701  10.009  11.732 -0.3857  0.5181 -0.4245
41405SOL     OW29152   3.052   3.149  11.366  0.0943 -0.1058 -0.2357
41405SOL    HW129153   3.028   3.201  11.290  1.3651 -1.2697 -1.4888
41405SOL    HW229154   3.015   3.062  11.349  0.1819 -0.3131  0.5939
41406SOL     OW29155   8.674   3.417   7.507 -0.4341 -0.2968 -0.3762
41406SOL    HW129156   8.755   3.365   7.514 -0.5231 -0.5088 -0.8708
41406SOL    HW229157   8.700   3.494   7.455 -0.7499 -0.8047 -1.3139
41407SOL     OW29158   0.590   4.742   8.312  0.5931  0.5236 -0.3152
41407SOL    HW129159   0.569   4.821   8.261 -0.1190  2.8896  3.2631
41407SOL    HW229160   0.538   4.673   8.271  0.6990  1.9693 -3.1908
41408SOL     OW29161   3.913   9.007   5.359 -0.8166  0.2071 -0.6734
41408SOL    HW129162   3.931   8.956   5.438 -0.7024  0.3668 -0.5951
41408SOL    HW229163   3.997   9.014   5.314 -0.4113  1.8689  0.2334
41409SOL     OW29164   8.466   4.250   7.292 -0.2043  0.2176  0.5083
41409SOL    HW129165   8.489   4.274   7.381 -1.7637 -0.1299  1.0382
41409SOL    HW229166   8.400   4.314   7.266 -0.7752 -0.5151  0.1199
41410SOL     OW29167   8.414   3.052   7.460  0.3721 -0.4783 -0.4040
41410SOL    HW129168   8.491   3.043   7.405  0.6518 -0.3547 -0.0354
41410SOL    HW229169   8.447   3.043   7.549 -0.0774 -0.6806 -0.2577
41411SOL     OW29170  10.126  11.558   2.372 -0.1463 -0.1238 -0.2059
41411SOL    HW129171  10.133  11.480   2.315  0.8865 -1.2441  1.3818
41411SOL    HW229172  10.060  11.613   2.328  1.2852 -0.4376 -3.0192
41412SOL     OW29173   3.290   0.486   5.734 -0.3137  0.6454 -0.6298
41412SOL    HW129174   3.326   0.545   5.799 -0.7317  0.4962 -0.2593
41412SOL    HW229175   3.275   0.540   5.657  1.1250  0.6276 -0.9624
41413SOL     OW29176   9.257  10.376   3.943 -0.1875  0.1726 -0.3293
41413SOL    HW129177   9.218  10.299   3.901 -0.9142 -0.2156  0.9951
41413SOL    HW229178   9.203  10.450   3.913 -0.4974 -0.0553 -0.3331
41414SOL     OW29179   1.159   8.832   3.932 -0.7739  0.4674 -0.1133
41414SOL    HW129180   1.068   8.819   3.956 -1.0584 -0.5132 -1.5527
41414SOL    HW229181   1.158   8.909   3.875 -1.3060 -1.4555 -2.8924
41415SOL     OW29182   4.460   3.923   8.239  0.1459  0.7691  0.1378
41415SOL    HW129183   4.366   3.903   8.236  0.1723  0.7316 -0.8010
41415SOL    HW229184   4.464   4.018   8.249 -0.0073  0.8881 -0.8435
41416SOL     OW29185   8.298   4.161  10.972 -0.6297 -0.5548 -0.4815
41416SOL    HW129186   8.376   4.150  11.026 -0.2257 -1.4605 -1.2135
41416SOL    HW229187   8.330   4.155  10.882 -1.3262  0.6653 -0.8287
41417SOL     OW29188   6.141  11.069   5.178  0.5501  0.2155  0.2873
41417SOL    HW129189   6.105  10.998   5.124  0.3626  1.1522 -0.8664
41417SOL    HW229190   6.235  11.051   5.182  0.3899 -0.5948  0.7982
41418SOL     OW29191   2.112   6.508   4.478 -0.0025  0.4546  0.0214
41418SOL    HW129192   2.112   6.418   4.513  0.3265  0.4731  0.0710
41418SOL    HW229193   2.020   6.528   4.464 -0.0153 -1.3764 -3.8021
41419SOL     OW29194   9.153   9.856   6.821  0.2192 -0.3401 -0.4012
41419SOL    HW129195   9.220   9.884   6.759  1.6471 -0.5381  1.0203
41419SOL    HW229196   9.200   9.833   6.900 -1.1940 -3.5138 -0.3213
41420SOL     OW29197   0.541   5.420  10.231  0.1262 -0.2576 -0.0703
41420SOL    HW129198   0.486   5.350  10.196  1.1179 -0.6974 -0.8123
41420SOL    HW229199   0.587   5.379  10.304 -0.7167  0.1890  0.7281
41421SOL     OW29200   8.910   9.020   3.210  0.1965 -0.1341  0.1383
41421SOL    HW129201   8.855   9.011   3.288  0.5673  0.0952  0.4321
41421SOL    HW229202   8.985   9.071   3.240  0.2507  0.1181 -0.4188
41422SOL     OW29203  11.680   7.306   3.685  0.0030 -0.3194 -0.0751
41422SOL    HW129204  11.653   7.354   3.607 -1.4411  2.1703  1.8205
41422SOL    HW229205  11.623   7.339   3.755  1.3160 -2.3283  2.0933
41423SOL     OW29206   3.873   3.486   2.001 -0.2546  0.3035 -0.1603
41423SOL    HW129207   3.819   3.565   1.994 -0.7914 -0.1704 -2.5662
41423SOL    HW229208   3.961   3.515   1.979 -0.1655  0.5091  0.4793
41424SOL     OW29209   1.020   7.730  10.949  0.1607 -0.4639  0.0040
41424SOL    HW129210   0.978   7.754  10.866 -1.4731 -1.0881  0.6026
41424SOL    HW229211   0.993   7.640  10.964 -1.6861  0.3943  2.4168
41425SOL     OW29212   2.947   1.853  10.057 -0.6724 -0.4967 -0.2032
41425SOL    HW129213   2.897   1.932  10.037 -0.9745 -0.0415  2.0912
41425SOL    HW229214   2.886   1.799  10.109  1.4282  0.6175  3.8137
41426SOL     OW29215   2.784   3.541   5.664  0.0734  0.6772 -0.5512
41426SOL    HW129216   2.853   3.494   5.710  1.4004  2.7286 -0.2893
41426SOL    HW229217   2.757   3.609   5.726 -0.0519  1.7684 -1.7639
41427SOL     OW29218  11.032   5.527  11.472  0.3182  0.5708 -0.1224
41427SOL    HW129219  11.053   5.600  11.413 -0.5495 -0.2920 -1.5444
41427SOL    HW229220  10.945   5.498  11.444  0.2623 -0.4271  1.0341
41428SOL     OW29221   0.741   8.219   0.552  0.1286 -0.6199  0.4938
41428SOL    HW129222   0.716   8.202   0.642 -0.2643 -0.3344  0.4425
41428SOL    HW229223   0.752   8.133   0.512 -2.0503 -0.7964  0.1657
41429SOL     OW29224   3.694   6.547   4.144  0.0201  0.0502  0.4338
41429SOL    HW129225   3.697   6.542   4.048 -0.6938  0.1316  0.4017
41429SOL    HW229226   3.742   6.626   4.165 -1.1848  0.9303  0.0278
41430SOL     OW29227   9.008   9.731  10.374 -0.0493 -0.5474 -0.0147
41430SOL    HW129228   9.035   9.641  10.393  0.7461 -0.4286 -0.5431
41430SOL    HW229229   8.939   9.723  10.309 -0.9479 -0.8292  0.9369
41431SOL     OW29230   2.421   9.917   8.079 -0.0018  0.2037 -0.2696
41431SOL    HW129231   2.399   9.977   8.150 -0.4347  0.9653 -1.0376
41431SOL    HW229232   2.404   9.967   7.999  3.9420  0.7295 -0.9953
41432SOL     OW29233   0.172   3.443   4.457 -0.5969  0.0857 -0.1296
41432SOL    HW129234   0.228   3.495   4.399  0.2636 -0.5243  0.1377
41432SOL    HW229235   0.228   3.422   4.531 -1.5112  0.3635  0.6527
41433SOL     OW29236   3.393   6.015   7.981  0.2051 -0.5505  0.2266
41433SOL    HW129237   3.453   6.013   8.056  1.4118 -0.0183 -0.7003
41433SOL    HW229238   3.361   5.925   7.974  1.8801 -1.1495 -0.0322
41434SOL     OW29239  11.121   7.503  11.585 -0.1607 -0.4026 -0.2558
41434SOL    HW129240  11.205   7.548  11.579 -0.4900  0.3261  0.4415
41434SOL    HW229241  11.137   7.417  11.546  0.9855 -0.3905  0.1522
41435SOL     OW29242   2.395   5.964   8.006  0.5095 -0.0140  0.0809
41435SOL    HW129243   2.349   5.981   7.924  1.6835  0.8507 -0.4351
41435SOL    HW229244   2.373   6.038   8.063  1.2503  0.4235 -0.1817
41436SOL     OW29245  10.354   3.857  10.108 -0.0414 -0.0072  0.3588
41436SOL    HW129246  10.344   3.829  10.017 -1.8102  2.4960 -0.3236
41436SOL    HW229247  10.271   3.836  10.150  0.2518  0.1189  1.0273
41437SOL     OW29248   8.997   7.118   4.420  0.0890 -0.6028  0.0600
41437SOL    HW129249   8.936   7.054   4.458 -0.4691 -1.5143 -2.1667
41437SOL    HW229250   9.074   7.066   4.396  0.5979  0.0184  0.3334
41438SOL     OW29251   2.833   5.876   3.554 -0.3409  0.0368  0.3490
41438SOL    HW129252   2.859   5.791   3.588  0.8377  0.0546 -0.4192
41438SOL    HW229253   2.859   5.938   3.621  2.1925  0.0970 -0.5652
41439SOL     OW29254   9.674   2.283   1.276 -0.2451  0.5674  0.1062
41439SOL    HW129255   9.747   2.307   1.219  0.0851 -0.5598  0.0202
41439SOL    HW229256   9.596   2.316   1.231  0.1615  1.2379 -0.1113
41440SOL     OW29257   1.747   3.781   3.190  0.3205  0.5134  0.2971
41440SOL    HW129258   1.795   3.754   3.269  0.5484  1.3937  0.4719
41440SOL    HW229259   1.808   3.836   3.142  0.7639 -1.3334 -1.3472
41441SOL     OW29260   0.774   5.226   0.559  1.0987 -0.6542 -1.0196
41441SOL    HW129261   0.820   5.146   0.588 -0.8207 -0.5716  2.9520
41441SOL    HW229262   0.784   5.287   0.632 -4.5616 -0.4335  0.0236
41442SOL     OW29263   8.500   9.188   8.394  0.1222 -0.7461  0.9529
41442SOL    HW129264   8.591   9.173   8.419 -0.1526 -3.9673  0.5446
41442SOL    HW229265   8.451   9.125   8.447 -1.8379  0.6801  0.9173
41443SOL     OW29266   2.518   4.204   7.230  0.2316  0.1573 -0.3981
41443SOL    HW129267   2.487   4.263   7.161 -0.7328  0.3241  0.1633
41443SOL    HW229268   2.479   4.238   7.311 -1.5803 -2.0472 -0.2306
41444SOL     OW29269   0.293   3.344   8.900  0.2383  0.3606  0.0004
41444SOL    HW129270   0.257   3.255   8.895 -1.4818  1.0569 -0.7529
41444SOL    HW229271   0.306   3.369   8.809  2.3153  0.3108  0.2374
41445SOL     OW29272   5.255   1.718   0.084  0.4844  0.1063 -0.1422
41445SOL    HW129273   5.292   1.806   0.092 -0.5029  0.4663  0.5420
41445SOL    HW229274   5.201   1.723   0.005  1.9306 -0.4632 -1.2305
41446SOL     OW29275   3.725   3.473   1.481  0.5191  0.0106  0.0956
41446SOL    HW129276   3.715   3.524   1.401 -1.3123 -1.5937 -0.7910
41446SOL    HW229277   3.638   3.472   1.521  0.7447 -1.4948  0.6243
41447SOL     OW29278   7.453   0.048   9.634  0.8698  0.1979  0.4127
41447SOL    HW129279   7.536   0.041   9.681  1.9087 -1.1907 -1.4986
41447SOL    HW229280   7.396  -0.018   9.674  1.0474  0.4096  1.0165
41448SOL     OW29281   7.352   2.944  10.733  0.2404 -0.1473 -0.2816
41448SOL    HW129282   7.289   2.978  10.670  0.1366  1.4659  0.6451
41448SOL    HW229283   7.414   3.016  10.746  0.5046 -0.5983  1.1078
41449SOL     OW29284   6.052   4.443   7.962  0.0239 -0.4577  0.3086
41449SOL    HW129285   6.069   4.349   7.950  0.0268 -0.4613  0.3440
41449SOL    HW229286   5.965   4.446   8.001 -0.2076 -0.4248 -0.1964
41450SOL     OW29287   0.108  10.094   4.193 -0.2073  0.0618 -0.4159
41450SOL    HW129288   0.083  10.002   4.198  1.0932 -0.2347  3.2207
41450SOL    HW229289   0.029  10.142   4.219 -0.4224 -0.1071 -0.7511
41451SOL     OW29290   2.753   9.909   1.241  0.0823 -0.2537 -0.2157
41451SOL    HW129291   2.822   9.965   1.203 -0.1198 -0.8238 -1.4615
41451SOL    HW229292   2.672   9.940   1.200 -0.2738 -0.2928  0.4436
41452SOL     OW29293   5.171   2.166   7.927 -0.0838 -0.6847  0.6114
41452SOL    HW129294   5.192   2.244   7.979 -1.4073  1.1726 -1.4980
41452SOL    HW229295   5.083   2.181   7.894  0.1123 -2.5092 -0.9284
41453SOL     OW29296   0.095   5.903   8.071  0.6308  0.4992 -0.9676
41453SOL    HW129297   0.091   5.861   7.985  2.5367 -1.0820 -0.3499
41453SOL    HW229298   0.005   5.929   8.090 -0.1901 -1.1132 -2.4745
41454SOL     OW29299   8.333   2.073   3.328  0.0533 -0.3384  0.0856
41454SOL    HW129300   8.366   2.122   3.252 -0.2784 -1.4687 -0.8039
41454SOL    HW229301   8.380   2.111   3.402  1.1046  0.1385 -0.7879
41455SOL     OW29302   8.914   4.470   4.134 -0.2682  0.5428  0.2105
41455SOL    HW129303   8.993   4.518   4.110 -0.1591  1.0836  1.5452
41455SOL    HW229304   8.842   4.531   4.115 -0.2738  0.5096  0.1241
41456SOL     OW29305   7.740   3.447   9.963  0.1943  0.7182 -0.2201
41456SOL    HW129306   7.723   3.541   9.975 -0.6008  0.7304 -1.2343
41456SOL    HW229307   7.779   3.441   9.876 -2.0079 -0.0858 -1.2325
41457SOL     OW29308   5.124   3.117  10.435 -0.0920 -0.5335 -0.1988
41457SOL    HW129309   5.133   3.170  10.514  1.8444 -1.9897  0.6554
41457SOL    HW229310   5.182   3.159  10.371  0.1924 -0.6800 -0.0434
41458SOL     OW29311   5.138   8.680   5.704 -0.6436 -0.5053  0.6638
41458SOL    HW129312   5.214   8.661   5.760  0.1126  0.0972 -0.1137
41458SOL    HW229313   5.103   8.594   5.681 -0.6488 -0.7737  1.6245
41459SOL     OW29314   6.520   2.393  10.911 -0.7090 -0.1748 -0.3377
41459SOL    HW129315   6.472   2.467  10.946  0.7154  0.1130  1.1443
41459SOL    HW229316   6.490   2.318  10.962 -0.6552 -0.2511 -0.4181
41460SOL     OW29317   9.651   2.932  10.242 -0.1927  0.1455  0.2549
41460SOL    HW129318   9.562   2.956  10.267 -0.5888 -0.1673 -0.7900
41460SOL    HW229319   9.707   2.987  10.298 -1.0587  1.8428 -0.4503
41461SOL     OW29320   6.785   9.287   8.804  0.0661  0.3955 -0.2506
41461SOL    HW129321   6.855   9.301   8.868  0.7449  0.0081 -0.8906
41461SOL    HW229322   6.818   9.218   8.747 -1.1721 -0.3392 -0.1126
41462SOL     OW29323   1.129  11.183   4.618 -0.0680 -0.2936  0.5869
41462SOL    HW129324   1.148  11.273   4.645 -0.3355 -0.1651  0.3595
41462SOL    HW229325   1.206  11.156   4.568  0.2032 -0.3477  1.0318
41463SOL     OW29326  10.478   7.128   3.061 -0.6984 -0.3428  0.5879
41463SOL    HW129327  10.508   7.167   3.142 -2.4217 -0.9773  1.5846
41463SOL    HW229328  10.447   7.201   3.008  1.1576  0.1561  0.1380
41464SOL     OW29329   2.113  10.018   4.495  0.3812 -0.5705  0.2520
41464SOL    HW129330   2.067   9.986   4.572 -1.7380  1.1130 -0.2152
41464SOL    HW229331   2.047  10.067   4.446  1.5046 -1.9748 -2.9303
41465SOL     OW29332   8.938  10.257   1.123 -0.3763  0.5871  0.4367
41465SOL    HW129333   8.866  10.206   1.160 -1.6280  1.2336 -0.9910
41465SOL    HW229334   8.963  10.317   1.193 -0.0110 -0.8207  1.5560
41466SOL     OW29335   7.102   7.236   0.875  0.4810 -0.1484 -0.0594
41466SOL    HW129336   7.115   7.330   0.859 -2.0747  0.6528  2.0187
41466SOL    HW229337   7.040   7.209   0.807  0.9798 -0.2927 -0.4665
41467SOL     OW29338  10.541   5.122   2.625  0.0641 -0.6785  0.0541
41467SOL    HW129339  10.557   5.029   2.607  0.1041 -0.5624 -0.5112
41467SOL    HW229340  10.620   5.150   2.671  0.0157 -0.9433  0.3048
41468SOL     OW29341   3.752   6.481   9.277 -0.0735  0.6587 -0.6718
41468SOL    HW129342   3.775   6.516   9.191  1.2091 -0.1122 -0.6726
41468SOL    HW229343   3.836   6.470   9.321 -0.4155 -1.8738 -0.4872
41469SOL     OW29344   3.215   4.933   4.918 -0.4145  0.2599 -0.3990
41469SOL    HW129345   3.246   4.911   5.006  0.3522 -0.2604 -0.7856
41469SOL    HW229346   3.120   4.940   4.927 -0.5217 -1.4456  0.1395
41470SOL     OW29347   2.252   5.789   0.440  0.1533  0.2022 -0.3796
41470SOL    HW129348   2.233   5.823   0.528  0.0096 -1.7142  0.3833
41470SOL    HW229349   2.279   5.865   0.390  0.5982  1.2915  1.4342
41471SOL     OW29350  10.682   3.888  10.930 -0.0580  0.1010 -0.3957
41471SOL    HW129351  10.612   3.830  10.900  1.4129 -1.3050 -1.3005
41471SOL    HW229352  10.760   3.856  10.885  1.1697  1.6534  0.5242
41472SOL     OW29353   8.567   9.793   1.992 -0.2589  0.1058 -0.4168
41472SOL    HW129354   8.539   9.805   1.901 -2.8723  1.2818  0.4605
41472SOL    HW229355   8.499   9.741   2.032 -0.3182  1.4611  1.3931
41473SOL     OW29356   5.071   4.226   0.324 -0.0849  0.4494  0.1299
41473SOL    HW129357   5.100   4.174   0.250 -0.6163  0.8588 -0.3772
41473SOL    HW229358   5.147   4.280   0.347 -0.4706  1.7321 -1.3746
41474SOL     OW29359   7.660   3.462  11.025  0.8288  0.3656 -0.7562
41474SOL    HW129360   7.598   3.469  11.098  1.2400 -1.6548 -0.1690
41474SOL    HW229361   7.615   3.503  10.952 -1.3813 -1.2974 -0.4245
41475SOL     OW29362   0.596   6.660   0.607 -0.3867 -0.2112  0.1950
41475SOL    HW129363   0.681   6.656   0.564 -0.8678 -0.3879 -0.7550
41475SOL    HW229364   0.614   6.706   0.689  0.8490 -1.2795  0.5717
41476SOL     OW29365  10.983  10.048  11.223  0.0618  0.2176  0.1443
41476SOL    HW129366  10.890  10.050  11.197  0.0701  1.6909  0.1294
41476SOL    HW229367  10.987   9.983  11.293 -1.0032  0.2019  0.2145
41477SOL     OW29368   3.557   4.010   5.316 -0.3701 -0.3706  0.2286
41477SOL    HW129369   3.640   4.000   5.362  0.2407  1.1706 -0.4577
41477SOL    HW229370   3.546   3.929   5.267  1.0948 -0.3364 -0.1893
41478SOL     OW29371   4.434   2.932  11.074  0.8312 -0.3741 -0.5194
41478SOL    HW129372   4.358   2.986  11.050  0.9533 -0.6824 -1.6412
41478SOL    HW229373   4.493   2.992  11.119 -0.0998 -0.1419  0.4487
41479SOL     OW29374   9.546   8.342   1.502 -0.6870 -0.0349 -0.2560
41479SOL    HW129375   9.535   8.373   1.592  2.3086 -1.8605  0.8689
41479SOL    HW229376   9.626   8.384   1.472 -0.3985 -1.2395 -1.2229
41480SOL     OW29377   2.863   5.760   6.035  0.1845  0.2150 -0.3948
41480SOL    HW129378   2.891   5.716   6.115 -1.0529  0.3405  0.1398
41480SOL    HW229379   2.773   5.729   6.021 -0.6491  2.3356 -0.1468
41481SOL     OW29380   0.459   6.647   7.017 -0.4093  0.1459 -0.2862
41481SOL    HW129381   0.431   6.582   6.952 -0.9587 -0.0597  0.1532
41481SOL    HW229382   0.551   6.627   7.032 -0.7351 -0.9539  0.3318
41482SOL     OW29383   2.372   9.171   1.117  0.2779 -0.0640 -0.2964
41482SOL    HW129384   2.294   9.129   1.153  0.8440 -0.4853  0.4804
41482SOL    HW229385   2.339   9.228   1.048 -0.5869 -1.2820 -0.9295
41483SOL     OW29386   5.133   1.929   8.254 -0.0665  0.0419 -0.0563
41483SOL    HW129387   5.054   1.955   8.206  0.4248  0.3588 -0.7027
41483SOL    HW229388   5.181   1.872   8.194  0.5663  0.4610  0.0425
41484SOL     OW29389   3.308   5.803   7.046 -0.6558  0.2691 -0.1550
41484SOL    HW129390   3.367   5.828   6.974 -1.1094  2.0618  0.0437
41484SOL    HW229391   3.365   5.797   7.122 -0.2231 -1.3259 -0.5768
41485SOL     OW29392   1.579   0.882  11.683  0.2294 -0.2108 -0.1024
41485SOL    HW129393   1.651   0.874  11.621 -0.2831  0.3916 -0.8015
41485SOL    HW229394   1.546   0.971  11.670  0.8652  0.3724  1.8822
41486SOL     OW29395   6.477   3.091   5.399  0.2031  0.2866 -0.1208
41486SOL    HW129396   6.567   3.105   5.370 -0.2811  1.5280 -1.1312
41486SOL    HW229397   6.485   3.038   5.478  1.9324  2.0550  0.9820
41487SOL     OW29398   9.035   4.830   0.130 -0.6502  0.2045  0.7721
41487SOL    HW129399   9.012   4.741   0.154  1.6862 -1.1511 -1.4863
41487SOL    HW229400   9.107   4.852   0.189  0.9678 -0.7563 -0.7471
41488SOL     OW29401  11.567   0.187   7.126  0.4144  0.4810 -0.6922
41488SOL    HW129402  11.615   0.125   7.071  0.1572  0.0996 -0.4919
41488SOL    HW229403  11.523   0.246   7.065  1.4898  1.1135 -0.8818
41489SOL     OW29404   4.797   3.097   3.453  0.1106  0.8395 -0.4692
41489SOL    HW129405   4.851   3.077   3.530  0.6513  0.4486 -0.9452
41489SOL    HW229406   4.792   3.192   3.452  0.9028  0.8917 -0.4841
41490SOL     OW29407   4.110   0.484   5.788 -0.7040 -0.0487  0.1179
41490SOL    HW129408   4.105   0.448   5.877 -1.3012 -0.5846 -0.1276
41490SOL    HW229409   4.020   0.510   5.768 -0.3588  1.1864  0.1222
41491SOL     OW29410   9.233   4.786   3.836  0.0436 -0.1047  0.1334
41491SOL    HW129411   9.213   4.865   3.887  0.4299  1.6434 -2.2334
41491SOL    HW229412   9.172   4.790   3.762 -0.1723 -2.2806  0.1442
41492SOL     OW29413  10.462  10.046   8.894 -0.1631 -0.5472  0.0504
41492SOL    HW129414  10.492   9.996   8.818  1.5826 -0.3636  0.5705
41492SOL    HW229415  10.423  10.125   8.856 -0.8446 -1.2115 -0.6874
41493SOL     OW29416   1.117   8.912   2.571  0.7712  0.3103 -0.2531
41493SOL    HW129417   1.209   8.938   2.578  0.6559  0.8947 -0.8792
41493SOL    HW229418   1.081   8.966   2.501 -0.0257  0.0033 -0.0968
41494SOL     OW29419   2.101  11.024   1.384 -0.3447  0.0453 -0.2505
41494SOL    HW129420   2.066  11.113   1.395  0.3150  0.2184  0.5590
41494SOL    HW229421   2.121  11.017   1.291 -0.8078  0.5932 -0.3963
41495SOL     OW29422   2.685   9.194   1.558 -0.6057  0.4467 -1.4774
41495SOL    HW129423   2.649   9.229   1.477  0.0321  2.1825 -1.0509
41495SOL    HW229424   2.735   9.266   1.595  0.3589 -0.7846 -0.2820
41496SOL     OW29425   3.508  10.827   2.682 -0.2875  0.0362  0.0330
41496SOL    HW129426   3.493  10.815   2.588  0.0602 -0.6467  0.0610
41496SOL    HW229427   3.603  10.821   2.692 -0.1979  1.4404  0.2516
41497SOL     OW29428   6.794   5.563   8.003 -0.4687 -0.3192 -0.8590
41497SOL    HW129429   6.780   5.481   8.051  0.0173  0.5312  0.8488
41497SOL    HW229430   6.875   5.548   7.954  0.3750 -0.4559  0.5014
41498SOL     OW29431   6.994  10.245   6.047 -0.7002 -0.6729 -0.0853
41498SOL    HW129432   7.075  10.212   6.084 -0.3660  0.4004  0.1837
41498SOL    HW229433   6.932  10.245   6.120 -0.7648 -0.9128 -0.1401
41499SOL     OW29434   6.748   1.129   7.941 -0.3299  0.6913 -0.0259
41499SOL    HW129435   6.736   1.194   8.010  0.8127  0.1697  0.6962
41499SOL    HW229436   6.809   1.170   7.879 -1.4968  1.2319 -0.8545
41500SOL     OW29437   9.280   1.746   3.205  0.4027  0.1770  0.1536
41500SOL    HW129438   9.240   1.763   3.291 -0.0833 -1.2794  0.2444
41500SOL    HW229439   9.218   1.783   3.142 -0.3314 -0.6545  0.3641
41501SOL     OW29440   8.936   5.435   1.895 -0.1529  0.4849 -0.9687
41501SOL    HW129441   9.001   5.385   1.944  0.6400  1.0143 -1.4434
41501SOL    HW229442   8.942   5.401   1.806 -0.5769  0.4947 -1.0010
41502SOL     OW29443   8.325   4.418  10.582  0.1734  0.2161  0.0953
41502SOL    HW129444   8.280   4.334  10.576 -2.2660  1.3384  1.0833
41502SOL    HW229445   8.328   4.438  10.676  1.8795  0.6805 -0.0171
41503SOL     OW29446   4.839   7.492   4.241  0.4986  0.5312  0.2272
41503SOL    HW129447   4.927   7.517   4.270  1.2929  0.8887 -2.2958
41503SOL    HW229448   4.819   7.552   4.169 -1.8310  0.4361  0.7139
41504SOL     OW29449   2.749  10.280  11.316  0.3069  0.1442  0.8908
41504SOL    HW129450   2.717  10.354  11.367 -1.0886 -0.1491  0.4611
41504SOL    HW229451   2.731  10.303  11.225 -0.4210 -0.8439  0.7681
41505SOL     OW29452   4.642   7.367   1.947 -0.2533  0.2448 -0.1921
41505SOL    HW129453   4.569   7.423   1.922  0.6401  0.0707 -3.6991
41505SOL    HW229454   4.601   7.291   1.988 -2.0213  0.4504 -1.4577
41506SOL     OW29455   3.867   9.552   5.302 -0.1031 -0.1280  0.3636
41506SOL    HW129456   3.775   9.529   5.313 -0.4237  0.3339 -1.1304
41506SOL    HW229457   3.868   9.612   5.227  1.3435  0.3611  0.7458
41507SOL     OW29458   6.529   4.394   8.842 -0.5887 -0.4359 -0.7199
41507SOL    HW129459   6.439   4.425   8.833 -0.1777  0.2776 -3.0182
41507SOL    HW229460   6.528   4.307   8.802  0.1898  0.5817 -3.1183
41508SOL     OW29461   5.734   8.554   4.658  0.0667 -0.6498 -0.1399
41508SOL    HW129462   5.788   8.491   4.707  0.6151 -0.3801 -0.3843
41508SOL    HW229463   5.644   8.524   4.672  0.3602 -2.1002 -1.0657
41509SOL     OW29464   9.831   9.090   1.873  0.3485  0.0966 -0.5731
41509SOL    HW129465   9.859   9.173   1.836 -0.4747  0.1626 -1.0857
41509SOL    HW229466   9.911   9.049   1.906  0.7803  1.0085 -0.4739
41510SOL     OW29467   7.106   9.352   7.002 -0.3254 -0.4482  0.1586
41510SOL    HW129468   7.141   9.333   7.089  1.3575  1.5040 -0.0193
41510SOL    HW229469   7.130   9.275   6.949  1.1251 -0.4495  0.7686
41511SOL     OW29470   7.281   1.132   7.322 -0.3007 -0.3525 -0.3537
41511SOL    HW129471   7.351   1.106   7.382 -0.4372 -1.3545 -0.5954
41511SOL    HW229472   7.324   1.144   7.238 -0.4119 -1.0021 -0.5100
41512SOL     OW29473   8.407   2.163  10.214  0.0607 -0.4814  0.3982
41512SOL    HW129474   8.369   2.081  10.246  0.9363 -0.5604  1.2983
41512SOL    HW229475   8.501   2.144  10.205  0.2684  0.4000  0.5944
41513SOL     OW29476   6.612   1.509   8.251 -0.1781  0.4418  0.2504
41513SOL    HW129477   6.517   1.499   8.259  0.0906 -2.8067  0.9353
41513SOL    HW229478   6.645   1.500   8.340  0.8428  0.5228 -0.1010
41514SOL     OW29479   6.979   3.336   8.846  0.4457  0.2543 -0.4796
41514SOL    HW129480   7.058   3.382   8.875  3.3495 -2.5814 -3.0415
41514SOL    HW229481   6.969   3.362   8.754  0.6682 -2.0492 -1.2401
41515SOL     OW29482   1.514   7.958   1.397  0.1223 -0.2717 -0.0509
41515SOL    HW129483   1.438   7.901   1.406 -0.0031 -0.4626 -1.9293
41515SOL    HW229484   1.588   7.897   1.383  0.3873 -0.0346  0.2881
41516SOL     OW29485   8.868   2.611  11.205 -0.4078 -0.7996 -0.0430
41516SOL    HW129486   8.886   2.529  11.251 -1.8754 -0.8087  0.5568
41516SOL    HW229487   8.908   2.599  11.119 -0.0049 -1.8674  0.2750
41517SOL     OW29488   1.459   9.577   4.265 -0.0667 -0.1957  0.0907
41517SOL    HW129489   1.489   9.542   4.349  1.5509  1.4966  0.2727
41517SOL    HW229490   1.425   9.664   4.286 -0.6767 -0.1830 -0.8719
41518SOL     OW29491  10.689   3.048   5.998 -0.1228  0.1079  0.3035
41518SOL    HW129492  10.707   3.022   6.088 -0.3131  1.4497  0.7556
41518SOL    HW229493  10.665   2.967   5.954  2.4253 -1.0034  0.8057
41519SOL     OW29494   7.568   2.961   8.573 -0.2426  0.4216  0.0229
41519SOL    HW129495   7.571   2.871   8.541  0.9779  0.2867  0.4835
41519SOL    HW229496   7.659   2.990   8.573 -0.6617  1.8119 -0.5353
41520SOL     OW29497   4.058   7.429   3.742 -0.2524  0.3359  0.2266
41520SOL    HW129498   3.985   7.484   3.715  0.0600  0.5184 -0.2497
41520SOL    HW229499   4.134   7.487   3.741  0.2002 -0.2470 -0.9275
41521SOL     OW29500   9.226   0.428   7.507 -0.4383  0.0225  0.5157
41521SOL    HW129501   9.189   0.350   7.465  0.9007 -1.1883  1.4697
41521SOL    HW229502   9.235   0.492   7.436 -0.3961 -1.1342 -0.5554
41522SOL     OW29503   2.537   9.605   1.671 -0.0579  0.0425  0.0457
41522SOL    HW129504   2.514   9.522   1.714  0.8213 -0.0206  0.4056
41522SOL    HW229505   2.498   9.672   1.727  0.0392 -0.0857  0.2662
41523SOL     OW29506   1.079   0.656   3.913  0.4397  0.2566 -0.6427
41523SOL    HW129507   1.099   0.740   3.870  1.0886  0.9987  1.0037
41523SOL    HW229508   1.165   0.622   3.938  0.0383  0.6870  1.5053
41524SOL     OW29509   8.807   7.444   5.274 -0.0096 -0.2367  0.5143
41524SOL    HW129510   8.816   7.351   5.255 -0.8638 -0.6946  2.1304
41524SOL    HW229511   8.886   7.467   5.322  0.9837  0.3200 -1.2862
41525SOL     OW29512   4.841   9.177   5.767  0.6322 -0.0484 -0.0317
41525SOL    HW129513   4.801   9.256   5.731  2.7941  1.0625 -0.1824
41525SOL    HW229514   4.877   9.205   5.852  1.3276 -0.8804 -0.0344
41526SOL     OW29515   1.886   8.979   6.796 -0.5206  0.5671 -0.1867
41526SOL    HW129516   1.800   9.010   6.768 -0.4600 -0.2463 -1.3536
41526SOL    HW229517   1.915   8.920   6.726 -0.1359 -1.2016  1.3754
41527SOL     OW29518   4.814   6.138  10.859  0.3720  0.5319 -0.0483
41527SOL    HW129519   4.842   6.169  10.773 -1.3781  0.2746 -0.7571
41527SOL    HW229520   4.730   6.096  10.843  1.1928 -1.8628  1.3713
41528SOL     OW29521   2.152   8.777   8.383 -0.3669  0.1863 -0.4142
41528SOL    HW129522   2.078   8.766   8.442  0.4925 -1.0158  0.4784
41528SOL    HW229523   2.177   8.687   8.358 -0.3017  0.6311 -2.0948
41529SOL     OW29524   3.244   0.805  11.239 -0.3495  0.1096  0.0697
41529SOL    HW129525   3.299   0.881  11.218  0.9443 -0.5879  0.8729
41529SOL    HW229526   3.211   0.775  11.154  2.7121 -1.1027 -0.8017
41530SOL     OW29527   3.426   3.502  10.159  0.9205  0.1258  0.3558
41530SOL    HW129528   3.421   3.582  10.211 -2.1433 -0.3112  0.9272
41530SOL    HW229529   3.490   3.448  10.205 -0.8311  0.2191  3.1596
41531SOL     OW29530   0.727   4.286   9.210  0.3345  0.3928 -0.6596
41531SOL    HW129531   0.745   4.206   9.161  0.7872  0.6372 -0.8916
41531SOL    HW229532   0.644   4.268   9.255  0.9410 -0.5842  0.1038
41532SOL     OW29533   2.194   4.041   7.339 -0.1365  0.4042  0.2207
41532SOL    HW129534   2.202   4.082   7.425 -0.8697  2.5652 -0.6794
41532SOL    HW229535   2.191   4.114   7.278 -0.5004 -1.0546 -1.5835
41533SOL     OW29536   5.503  11.682   2.014 -0.2288  0.1080 -0.2482
41533SOL    HW129537   5.536  11.758   1.966  2.3385  1.1954  2.8999
41533SOL    HW229538   5.579  11.647   2.059 -2.1733 -1.5343  2.0204
41534SOL     OW29539   4.944   1.943   8.056 -0.2277  0.1399  0.6051
41534SOL    HW129540   4.904   1.911   7.975 -0.1820  0.2067  0.5554
41534SOL    HW229541   4.948   2.038   8.045  2.3784 -0.0152 -0.5415
41535SOL     OW29542   6.431   1.194   1.885  0.3285 -0.0983 -0.0153
41535SOL    HW129543   6.490   1.165   1.955 -1.6251 -0.4384  1.6017
41535SOL    HW229544   6.388   1.114   1.856 -1.2369  0.4299  0.7286
41536SOL     OW29545   0.339   5.386   8.428  0.0840 -0.5777 -0.7554
41536SOL    HW129546   0.334   5.463   8.372  2.5091  0.7161  0.6527
41536SOL    HW229547   0.367   5.419   8.513 -3.1745 -2.4969  1.2617
41537SOL     OW29548   8.238   0.416   9.922 -0.3401 -0.2779 -0.1018
41537SOL    HW129549   8.296   0.413   9.846 -2.8032 -0.0499 -2.0886
41537SOL    HW229550   8.255   0.334   9.969  1.0891 -0.5082 -0.9688
41538SOL     OW29551   4.626   0.808   6.939  0.0865  0.1696  0.1237
41538SOL    HW129552   4.652   0.773   6.854  0.1714 -0.1567  0.2833
41538SOL    HW229553   4.688   0.769   7.001 -0.0725  0.2852  0.3578
41539SOL     OW29554   0.927   9.595   4.349  0.1306 -0.5135 -0.7387
41539SOL    HW129555   1.013   9.563   4.321  0.5411 -1.0988  1.0336
41539SOL    HW229556   0.864   9.542   4.299  0.8047 -1.0067 -1.0902
41540SOL     OW29557   1.568   6.822   6.213 -0.0601 -0.4303  0.2469
41540SOL    HW129558   1.596   6.903   6.258  1.1030 -1.0349  0.6580
41540SOL    HW229559   1.610   6.828   6.127  0.2249 -0.7067  0.3667
41541SOL     OW29560   9.052  10.847   4.694  0.0341 -0.3158 -0.3788
41541SOL    HW129561   9.014  10.864   4.607  0.7243 -0.5596 -0.7393
41541SOL    HW229562   9.110  10.772   4.680  0.6914  0.0846  0.1339
41542SOL     OW29563   6.470   2.218   7.193  0.6540  0.2585 -0.8100
41542SOL    HW129564   6.456   2.296   7.249 -1.6256 -1.2388  0.9144
41542SOL    HW229565   6.563   2.199   7.202  0.7427  1.2343  0.9401
41543SOL     OW29566   6.932   6.840   8.549  0.7219 -0.9176 -0.4495
41543SOL    HW129567   6.965   6.927   8.526  1.7349 -1.5372 -1.4258
41543SOL    HW229568   6.916   6.798   8.465 -2.8240 -0.6097 -0.0716
41544SOL     OW29569   9.754   7.286   1.007  0.1466  0.4706 -0.0675
41544SOL    HW129570   9.787   7.375   0.992  0.7596  0.3118  0.3411
41544SOL    HW229571   9.730   7.255   0.919 -1.6644  1.6403 -0.0400
41545SOL     OW29572   7.563   9.396   0.312  0.3549 -0.6259  0.2017
41545SOL    HW129573   7.550   9.404   0.406 -0.0399 -1.7487  0.2576
41545SOL    HW229574   7.548   9.484   0.278  0.0642 -0.3029  1.1364
41546SOL     OW29575  10.406   5.827   7.291  0.2950  0.3712 -0.3525
41546SOL    HW129576  10.404   5.922   7.281  0.3461  0.2651 -1.4975
41546SOL    HW229577  10.419   5.794   7.202 -3.4790 -0.8735 -0.6161
41547SOL     OW29578   2.471   1.696   4.521  0.1030 -0.7501 -0.0497
41547SOL    HW129579   2.508   1.780   4.547  0.4387 -0.6017 -0.9647
41547SOL    HW229580   2.394   1.685   4.575  0.3174 -0.0657  0.3982
41548SOL     OW29581   8.593   1.094   3.510  0.1273  0.0478 -0.2165
41548SOL    HW129582   8.588   1.177   3.464 -2.2476 -0.8622 -1.7892
41548SOL    HW229583   8.574   1.028   3.443 -0.4911 -1.5659  1.4494
41549SOL     OW29584   8.123   1.770   9.443  0.2537  0.2156  0.4794
41549SOL    HW129585   8.181   1.841   9.419  0.2338 -0.3045 -1.2380
41549SOL    HW229586   8.037   1.796   9.409 -0.1547  0.1685  1.4291
41550SOL     OW29587   2.801   5.434   1.943 -0.2129  0.3455 -0.0611
41550SOL    HW129588   2.844   5.504   1.894 -1.8293 -0.7377 -3.3251
41550SOL    HW229589   2.797   5.360   1.882 -1.1879 -1.6304  2.2099
41551SOL     OW29590   0.754   9.298   5.303 -0.1996  0.2659 -0.0701
41551SOL    HW129591   0.834   9.327   5.346 -0.5403  1.7726 -0.3791
41551SOL    HW229592   0.784   9.251   5.226  0.4160  1.2582 -0.4648
41552SOL     OW29593   3.507   8.736   0.045 -0.0560  0.5136 -0.0108
41552SOL    HW129594   3.600   8.736   0.024 -0.1841  0.2822 -0.6043
41552SOL    HW229595   3.468   8.797  -0.018 -0.8288 -2.1701 -2.3755
41553SOL     OW29596   6.000   2.975  10.527 -0.3596 -0.3106  0.3665
41553SOL    HW129597   5.915   3.018  10.522 -0.0670  0.2188 -0.1394
41553SOL    HW229598   6.063   3.041  10.498  0.1223 -0.9971 -0.1894
41554SOL     OW29599   8.792  10.286  10.567  0.7378  0.0091  0.1369
41554SOL    HW129600   8.764  10.249  10.483 -0.2863 -1.3457  1.0362
41554SOL    HW229601   8.866  10.342  10.545  0.5114 -0.3405 -1.6635
41555SOL     OW29602   7.901   9.970   4.327  0.0979  0.2064 -0.2783
41555SOL    HW129603   7.883   9.995   4.236 -0.1714  1.3093  0.0573
41555SOL    HW229604   7.875   9.878   4.333  0.4799  0.0143 -1.4109
41556SOL     OW29605   5.047   2.478   4.748  0.7382 -0.4906 -0.1050
41556SOL    HW129606   5.017   2.491   4.658 -0.1526  1.1959  0.3880
41556SOL    HW229607   4.970   2.498   4.802  0.8727 -2.7305  1.0361
41557SOL     OW29608   7.984  11.565   8.325  0.4602  0.0509 -1.2279
41557SOL    HW129609   7.919  11.539   8.260 -0.1404  0.5651 -0.8436
41557SOL    HW229610   7.943  11.637   8.374  0.6427 -0.7215  0.1265
41558SOL     OW29611   0.522   6.554   5.289 -0.1136  0.2477  0.5466
41558SOL    HW129612   0.573   6.624   5.330  0.8682 -0.5737  0.7686
41558SOL    HW229613   0.577   6.476   5.298 -0.9218 -0.4304 -0.2386
41559SOL     OW29614   0.507   9.960   5.261 -0.3148 -0.1212  0.0252
41559SOL    HW129615   0.523   9.868   5.239  0.6062 -0.2468  1.0730
41559SOL    HW229616   0.433   9.958   5.321  0.2897 -0.2999  0.7877
41560SOL     OW29617   6.303  10.298   5.296 -0.4105  0.3562  0.2409
41560SOL    HW129618   6.367  10.275   5.228 -1.3943  0.6313 -0.8039
41560SOL    HW229619   6.307  10.226   5.358 -0.8548 -0.8709 -1.1024
41561SOL     OW29620  11.265   1.296   0.786  0.4575 -0.5918 -0.1427
41561SOL    HW129621  11.278   1.352   0.710  0.4668 -2.2484 -1.4294
41561SOL    HW229622  11.348   1.301   0.834  0.0291  1.4157  0.4704
41562SOL     OW29623   9.485   8.402   1.772  0.8305  0.8464  0.0671
41562SOL    HW129624   9.396   8.397   1.806 -0.0713  1.8077 -1.9612
41562SOL    HW229625   9.537   8.433   1.846 -0.6046  0.7712  1.1563
41563SOL     OW29626   0.596   5.412   6.979  0.2806  0.0532 -0.1658
41563SOL    HW129627   0.642   5.495   6.991  0.1712 -0.0286  0.8798
41563SOL    HW229628   0.520   5.417   7.037  1.6064 -1.7642  1.8843
41564SOL     OW29629   2.175  10.710   8.386  0.1051 -0.0607 -0.2033
41564SOL    HW129630   2.267  10.700   8.361 -0.2633  0.5326 -1.9231
41564SOL    HW229631   2.126  10.698   8.305 -1.5041 -2.1376  0.9582
41565SOL     OW29632   0.922   6.039   7.223 -0.3715  0.5211  0.2295
41565SOL    HW129633   0.877   6.123   7.214  1.1421  1.4542  0.8492
41565SOL    HW229634   1.009   6.062   7.257  1.1085 -0.9930 -2.1438
41566SOL     OW29635   5.958   9.782   1.035  0.2507  0.1300  0.4758
41566SOL    HW129636   5.921   9.857   0.990  0.7921  0.4334  0.5378
41566SOL    HW229637   5.932   9.794   1.126  0.4981  0.3441  0.5195
41567SOL     OW29638   5.393   9.696   9.547  0.0007  0.8376 -0.2682
41567SOL    HW129639   5.362   9.620   9.499 -1.3511 -0.6726  2.7142
41567SOL    HW229640   5.489   9.692   9.539  0.0049 -1.5372  0.2295
41568SOL     OW29641   3.796   1.675   2.214 -0.1744  0.5288  0.6090
41568SOL    HW129642   3.882   1.712   2.235  0.1136  1.9011 -2.4606
41568SOL    HW229643   3.813   1.581   2.202  0.4789  0.4648  1.9075
41569SOL     OW29644   0.166   1.573   0.046  0.6121  0.6288 -0.2965
41569SOL    HW129645   0.079   1.608   0.065  0.6190  0.9180 -0.7882
41569SOL    HW229646   0.174   1.498   0.104  0.1170  0.7248 -0.0943
41570SOL     OW29647   6.132   9.444   0.520  0.4189  0.1081 -0.4443
41570SOL    HW129648   6.061   9.444   0.456  0.0646  2.5683 -0.1598
41570SOL    HW229649   6.108   9.513   0.583  1.9452 -0.5612  0.9666
41571SOL     OW29650   9.389   9.861   6.673 -0.1763  0.4079  0.8000
41571SOL    HW129651   9.380   9.792   6.608  1.6849 -0.3118  1.2515
41571SOL    HW229652   9.483   9.869   6.688 -0.4483  1.7824  2.1073
41572SOL     OW29653   2.912   5.041   8.989 -0.4162 -0.5377  0.4887
41572SOL    HW129654   2.862   4.960   8.976 -0.1105 -0.7783  0.8099
41572SOL    HW229655   2.926   5.046   9.083 -2.5420  1.1658  0.7946
41573SOL     OW29656   2.871   0.258   4.233  0.7589 -0.1465  0.9145
41573SOL    HW129657   2.916   0.222   4.310  1.7000 -0.8121  0.0777
41573SOL    HW229658   2.914   0.215   4.158 -1.8296 -1.4841  0.0799
41574SOL     OW29659   5.648   9.134   7.057 -0.1440  0.1973  0.1722
41574SOL    HW129660   5.567   9.176   7.086 -0.4165 -0.3177  0.1815
41574SOL    HW229661   5.717   9.176   7.108 -0.5085  0.0100  0.8275
41575SOL     OW29662   8.588   7.043   5.661  0.4605  0.2237  0.3825
41575SOL    HW129663   8.508   6.991   5.662  0.3339  0.3644 -1.0717
41575SOL    HW229664   8.559   7.133   5.649  0.7593  0.5141  1.6237
41576SOL     OW29665   8.620   2.369   8.692  0.3248 -0.3202 -0.2770
41576SOL    HW129666   8.650   2.279   8.703  3.1876  0.4868 -0.5213
41576SOL    HW229667   8.657   2.416   8.767 -1.2007  0.6655 -0.0997
41577SOL     OW29668   8.178   5.656   2.711  0.4093 -0.6895 -0.2891
41577SOL    HW129669   8.162   5.575   2.662 -0.4056  0.0078 -1.2127
41577SOL    HW229670   8.163   5.726   2.648  0.3694  0.2138  0.6893
41578SOL     OW29671   9.517   0.008   1.197  0.1980  0.1764 -0.3985
41578SOL    HW129672   9.521   0.015   1.293 -1.5147  0.2576 -0.2915
41578SOL    HW229673   9.579  -0.061   1.175 -1.4129 -1.8638  1.0776
41579SOL     OW29674   8.226   6.920   1.277  0.3523 -0.2330 -0.3151
41579SOL    HW129675   8.197   6.841   1.322 -0.9167 -1.3857 -2.9072
41579SOL    HW229676   8.178   6.991   1.320 -0.8497 -1.2699  0.1403
41580SOL     OW29677   0.670   4.885  10.288 -0.1019 -0.2902  0.0813
41580SOL    HW129678   0.621   4.804  10.274  2.2526 -2.2020  2.0003
41580SOL    HW229679   0.757   4.867  10.252  0.7996  0.9622  1.4970
41581SOL     OW29680   1.910   7.877   5.970  0.2002  0.4015 -0.7269
41581SOL    HW129681   1.905   7.886   5.875 -0.0970 -0.2188 -0.7685
41581SOL    HW229682   1.829   7.916   6.002  1.4788  3.1184 -0.5376
41582SOL     OW29683   2.501  11.460   2.759 -0.7366 -0.5468 -0.1461
41582SOL    HW129684   2.531  11.443   2.670  1.5212 -1.1780  0.6546
41582SOL    HW229685   2.429  11.398   2.772 -1.0123 -0.5317 -1.4817
41583SOL     OW29686   1.714   8.105   0.576 -0.6096 -0.5757 -0.1883
41583SOL    HW129687   1.797   8.132   0.536 -0.1362  0.4944  1.4174
41583SOL    HW229688   1.740   8.063   0.658 -1.6323 -1.0673 -0.1007
41584SOL     OW29689   9.176   9.452   7.589  0.1283 -0.0553  0.6306
41584SOL    HW129690   9.270   9.434   7.597  0.7088  1.3784 -1.8881
41584SOL    HW229691   9.158   9.516   7.658  1.3562  0.6738  0.3152
41585SOL     OW29692   9.111   4.070   6.893 -0.0078 -0.3168 -0.5865
41585SOL    HW129693   9.140   4.119   6.970 -1.0047 -0.9327  0.2040
41585SOL    HW229694   9.048   4.127   6.850 -0.4464 -0.5010 -0.1983
41586SOL     OW29695   5.108   5.637   6.542 -0.2973  0.5716  0.5762
41586SOL    HW129696   5.077   5.727   6.536 -2.0501  0.0108  0.7867
41586SOL    HW229697   5.034   5.584   6.513  1.1729 -0.7653 -0.8821
41587SOL     OW29698   6.591   5.124  10.815 -0.4283  0.0139  0.1147
41587SOL    HW129699   6.665   5.152  10.870 -0.6617  0.2629  0.3088
41587SOL    HW229700   6.632   5.086  10.738 -0.0758  1.5088 -0.4811
41588SOL     OW29701   9.066   7.714   6.161  0.7211  0.7039 -0.0166
41588SOL    HW129702   9.024   7.631   6.181 -0.1002  0.9737 -0.5876
41588SOL    HW229703   8.998   7.780   6.176  1.3970  1.2903  0.5540
41589SOL     OW29704   9.145   1.428  10.853  0.4891 -0.2777  0.3916
41589SOL    HW129705   9.149   1.345  10.900 -1.5972  1.0383  3.1621
41589SOL    HW229706   9.058   1.430  10.814  2.0423 -1.1901 -3.6455
41590SOL     OW29707   3.481   0.982   8.395 -0.2043  0.0289  0.2635
41590SOL    HW129708   3.408   0.921   8.382 -1.5282  1.2453  1.6779
41590SOL    HW229709   3.528   0.981   8.311 -2.2324 -0.2955 -0.9231
41591SOL     OW29710  10.322   4.931   5.592 -0.2191  0.6871 -0.5956
41591SOL    HW129711  10.273   4.861   5.635 -0.1911  0.0136 -1.6145
41591SOL    HW229712  10.410   4.926   5.630 -0.5444  0.9883  0.2251
41592SOL     OW29713   1.789   4.141   8.721 -0.2779  0.6235 -0.0276
41592SOL    HW129714   1.792   4.204   8.793  0.8553 -1.2007  1.6195
41592SOL    HW229715   1.879   4.137   8.689 -0.2695 -0.3647  0.1028
41593SOL     OW29716   9.728  10.354   0.133 -0.0276 -0.0566  0.3690
41593SOL    HW129717   9.780  10.420   0.180  1.3857 -0.5612 -0.4556
41593SOL    HW229718   9.638  10.371   0.162  0.7011  0.0166  2.8286
41594SOL     OW29719   6.123   9.624   4.547 -0.1739  0.3943 -0.4485
41594SOL    HW129720   6.084   9.544   4.512  1.4545 -0.8473  0.4080
41594SOL    HW229721   6.217   9.608   4.542  0.1788  2.1522  0.0333
41595SOL     OW29722   8.513   8.253   3.843  0.0082 -0.4204 -0.0747
41595SOL    HW129723   8.429   8.284   3.876  0.1248  0.1294 -0.2817
41595SOL    HW229724   8.567   8.241   3.921 -0.1147 -0.3170  0.0263
41596SOL     OW29725   3.037   5.705   3.946 -0.0066 -0.4247  0.0029
41596SOL    HW129726   3.118   5.756   3.957  0.6806 -1.0297 -1.8771
41596SOL    HW229727   2.975   5.747   4.005  1.7630 -0.1566  1.8043
41597SOL     OW29728   7.362  11.422  11.562 -0.0570 -0.1224 -0.2649
41597SOL    HW129729   7.319  11.355  11.615  0.6232 -0.4668 -0.1295
41597SOL    HW229730   7.291  11.479  11.532 -0.7952 -1.5163 -1.2702
41598SOL     OW29731   0.874   0.053   2.257 -0.3563 -0.1130 -0.1610
41598SOL    HW129732   0.963   0.023   2.278 -0.0337 -0.9679 -2.4361
41598SOL    HW229733   0.886   0.109   2.180 -1.6477  1.0361  0.4483
41599SOL     OW29734   3.066   3.438   6.795  0.5605 -0.3921 -0.7705
41599SOL    HW129735   3.033   3.522   6.826 -0.1766 -0.6732 -0.7805
41599SOL    HW229736   3.151   3.429   6.838 -0.3843 -0.7238  1.1449
41600SOL     OW29737   5.430   8.298  10.430 -0.3451  0.3960 -0.2807
41600SOL    HW129738   5.427   8.219  10.376 -0.3749 -1.2661  2.0055
41600SOL    HW229739   5.522   8.327  10.425 -0.3047  0.1566 -1.0322
41601SOL     OW29740   8.135   6.558   3.022  0.1572  0.4638 -0.3405
41601SOL    HW129741   8.124   6.465   3.002  0.5788 -0.1173  1.8464
41601SOL    HW229742   8.050   6.586   3.056 -0.6907  1.5462 -3.1261
41602SOL     OW29743   1.559   9.622   2.401 -0.0408  0.5590 -0.0495
41602SOL    HW129744   1.530   9.703   2.359 -0.8821  1.4228  2.0706
41602SOL    HW229745   1.488   9.599   2.461  0.4953 -1.3854 -0.0810
41603SOL     OW29746   2.654  11.078   8.963 -0.9419  0.6434  0.7703
41603SOL    HW129747   2.699  11.007   8.917  0.9356  0.8817  2.1370
41603SOL    HW229748   2.570  11.086   8.918 -0.9118 -1.9401  0.0957
41604SOL     OW29749   1.139   0.578  11.143 -0.1775  0.0260 -0.2406
41604SOL    HW129750   1.180   0.641  11.083  0.4454  0.6440  0.8083
41604SOL    HW229751   1.064   0.545  11.094  0.7410 -0.0664 -1.6664
41605SOL     OW29752   6.639   0.264   1.686 -0.7424 -0.1630  0.3486
41605SOL    HW129753   6.730   0.245   1.711 -0.7325  0.0632  0.4929
41605SOL    HW229754   6.647   0.312   1.603 -0.8823 -3.4705 -1.7739
41606SOL     OW29755   4.069   6.573   1.400 -0.5776 -0.5750  0.1128
41606SOL    HW129756   4.087   6.529   1.317  0.4427  0.6222 -0.3346
41606SOL    HW229757   4.074   6.666   1.379  0.0031 -0.2540  1.5919
41607SOL     OW29758   2.048   8.107   7.025  0.2346 -0.0050  0.0373
41607SOL    HW129759   2.063   8.017   7.054  0.4456  0.5501  1.7427
41607SOL    HW229760   1.961   8.104   6.984  0.4590 -1.0663 -0.4063
41608SOL     OW29761  10.886   2.708   2.607 -0.4884  0.5901  0.2285
41608SOL    HW129762  10.882   2.642   2.537 -0.5926 -0.5270  1.2442
41608SOL    HW229763  10.939   2.779   2.570 -0.3131 -0.0836 -0.8798
41609SOL     OW29764   5.686   4.324   1.970 -0.1631 -0.1715 -0.2385
41609SOL    HW129765   5.750   4.326   1.898 -0.1790 -0.3108 -0.2567
41609SOL    HW229766   5.653   4.234   1.970  1.4991 -0.8450  1.4083
41610SOL     OW29767   3.345   9.400   1.198 -0.2007 -0.4953 -1.0512
41610SOL    HW129768   3.250   9.401   1.182 -0.4638 -1.3726  0.2059
41610SOL    HW229769   3.353   9.413   1.293  0.9878  0.3096 -1.2449
41611SOL     OW29770   8.775  10.803   3.036 -0.5465  0.4847 -0.3683
41611SOL    HW129771   8.807  10.747   2.965  0.1594 -0.9166  0.9994
41611SOL    HW229772   8.855  10.837   3.077 -0.6920 -1.7042  2.0171
41612SOL     OW29773   1.459   6.469   5.926  0.1718 -0.4073  0.4929
41612SOL    HW129774   1.381   6.466   5.871  1.4708  0.5155 -1.5388
41612SOL    HW229775   1.464   6.560   5.956 -0.2727 -0.7948  1.7946
41613SOL     OW29776   4.791   2.384   6.784 -0.3465  0.0177 -0.1798
41613SOL    HW129777   4.729   2.401   6.855 -0.2006  1.2620 -0.3273
41613SOL    HW229778   4.775   2.453   6.721 -0.4488 -1.0649 -1.3745
41614SOL     OW29779   4.086   2.336   2.090  0.0489 -0.0885 -0.1611
41614SOL    HW129780   4.008   2.380   2.124  0.3520  0.6601 -0.4128
41614SOL    HW229781   4.053   2.258   2.046 -0.5030 -0.1000  0.2606
41615SOL     OW29782  10.341  10.740   9.338 -0.2298  0.0045  0.1046
41615SOL    HW129783  10.343  10.793   9.418 -1.2689 -0.8534  0.7263
41615SOL    HW229784  10.362  10.801   9.268  1.1313  0.6918  1.0642
41616SOL     OW29785  10.022   5.311   6.578  0.8944  0.2058 -0.3601
41616SOL    HW129786   9.983   5.223   6.572  1.0594  0.0283  0.9170
41616SOL    HW229787   9.981   5.360   6.507 -2.7773  0.4505  1.6906
41617SOL     OW29788   4.964   2.734   1.249 -0.3408 -0.6943  0.2474
41617SOL    HW129789   4.904   2.666   1.279 -1.6604  0.1338 -0.4194
41617SOL    HW229790   4.941   2.748   1.157 -0.0257  0.5726  0.3381
41618SOL     OW29791   6.039   6.911  11.407 -0.4686  0.1759 -0.0690
41618SOL    HW129792   5.992   6.987  11.439 -0.3106  0.2427  0.0044
41618SOL    HW229793   6.011   6.839  11.464 -1.3675 -0.0334 -0.7451
41619SOL     OW29794  11.420   7.268   2.824 -0.1584  0.0292 -0.5238
41619SOL    HW129795  11.329   7.259   2.853  0.1193  0.1814  0.4321
41619SOL    HW229796  11.421   7.226   2.737 -1.7780  2.6477 -1.9299
41620SOL     OW29797   2.756   9.161   2.649  0.2532  0.0148 -0.0071
41620SOL    HW129798   2.850   9.166   2.631  0.2474  0.7422  0.1327
41620SOL    HW229799   2.742   9.071   2.680  1.0062  0.0752  0.5326
41621SOL     OW29800  10.098   1.186   0.738 -0.1741 -0.0570  0.7526
41621SOL    HW129801  10.084   1.206   0.645 -1.4044  2.1814  1.3446
41621SOL    HW229802  10.156   1.255   0.769 -0.6985 -0.1012  1.8855
41622SOL     OW29803   0.947   9.677  11.040 -0.1785  0.4138 -0.5149
41622SOL    HW129804   1.018   9.636  10.990 -0.1295 -0.6780  0.4021
41622SOL    HW229805   0.928   9.758  10.993  0.2785 -0.2736 -1.9271
41623SOL     OW29806   3.977   8.574   9.080  0.9461 -0.3807  0.1596
41623SOL    HW129807   3.978   8.485   9.046 -0.7543 -0.9138  1.3852
41623SOL    HW229808   3.982   8.564   9.175 -2.2356  0.5746  0.5601
41624SOL     OW29809   1.737  11.303  10.121  0.1243  0.0775 -0.2220
41624SOL    HW129810   1.778  11.332  10.202  0.9095 -0.8923 -0.2616
41624SOL    HW229811   1.683  11.228  10.147 -2.9615  2.1944  0.1292
41625SOL     OW29812   9.165   4.643   9.046 -0.1782  0.1799  0.0591
41625SOL    HW129813   9.256   4.623   9.022 -0.8655 -2.2526 -0.8101
41625SOL    HW229814   9.145   4.580   9.116 -1.3859  0.2509 -0.2082
41626SOL     OW29815   9.981   6.063   8.806  0.0368 -0.2659  0.6111
41626SOL    HW129816  10.032   5.986   8.829 -0.1460 -0.2310  1.1298
41626SOL    HW229817  10.046   6.132   8.792  0.1223 -0.1389  1.5907
41627SOL     OW29818   9.972   6.448   3.971 -0.1306  0.2242 -0.4783
41627SOL    HW129819  10.011   6.503   4.039 -0.7092 -1.5668  1.4500
41627SOL    HW229820  10.022   6.366   3.975 -0.9598 -0.3515 -1.3663
41628SOL     OW29821   6.545   3.550   5.834 -0.2876  0.0892 -0.3960
41628SOL    HW129822   6.455   3.557   5.802 -0.6815  1.0871  0.8405
41628SOL    HW229823   6.549   3.612   5.908  0.3343 -2.5841  1.9786
41629SOL     OW29824   9.436   1.069   9.893 -0.8607  0.0389  0.2055
41629SOL    HW129825   9.480   1.030   9.969 -1.4669  1.4445  1.3258
41629SOL    HW229826   9.347   1.085   9.922 -1.3518 -0.1897 -1.1091
41630SOL     OW29827   5.717   2.622   9.483  0.0628 -0.0001 -0.2602
41630SOL    HW129828   5.782   2.691   9.470 -1.9844  2.0668 -0.2772
41630SOL    HW229829   5.750   2.547   9.434  2.7723  0.6661  0.3976
41631SOL     OW29830   6.198   6.796   5.280  0.6385 -0.6135  0.2528
41631SOL    HW129831   6.214   6.841   5.197  1.4146 -0.9933  0.1829
41631SOL    HW229832   6.114   6.754   5.269 -0.3025  1.1160  0.4567
41632SOL     OW29833  10.290  10.500   1.784  0.2806 -0.1297  0.5726
41632SOL    HW129834  10.251  10.586   1.767  0.4933 -0.1266  0.0927
41632SOL    HW229835  10.255  10.475   1.869 -0.6033 -0.0301  0.2466
41633SOL     OW29836   9.710   2.667  10.299  0.4344  0.4946 -0.3588
41633SOL    HW129837   9.692   2.754  10.263  1.5451  1.4285  1.2218
41633SOL    HW229838   9.623   2.630  10.317 -0.0765  0.8673 -1.8769
41634SOL     OW29839   3.029   3.072   4.523  0.1807 -0.6191 -0.1387
41634SOL    HW129840   3.064   3.090   4.610  0.7827  0.9394 -0.6538
41634SOL    HW229841   3.003   3.158   4.490 -1.0407 -1.3204 -1.0912
41635SOL     OW29842   0.430   0.492   0.304  0.3181  1.0569  0.2814
41635SOL    HW129843   0.344   0.485   0.264  0.9934  1.8111 -1.3986
41635SOL    HW229844   0.456   0.402   0.321 -0.3050  0.7615 -0.2971
41636SOL     OW29845   9.978   1.350   9.311  0.5996 -0.5238 -0.4033
41636SOL    HW129846   9.988   1.386   9.223  1.7896 -1.1669 -0.5448
41636SOL    HW229847  10.050   1.388   9.361 -0.6213  0.6185  0.5883
41637SOL     OW29848   4.567   5.134  10.054  0.3495  0.3002 -0.2909
41637SOL    HW129849   4.532   5.059  10.101  2.4612 -0.9818 -0.6707
41637SOL    HW229850   4.615   5.184  10.120 -0.9319  1.3054 -0.0685
41638SOL     OW29851   0.261   4.869   4.582  0.4557  0.0266  0.0434
41638SOL    HW129852   0.303   4.846   4.665  0.2921  3.0790  1.0956
41638SOL    HW229853   0.310   4.821   4.516  3.0179  0.3360  1.5995
41639SOL     OW29854   3.629   0.197   2.659 -0.3432 -0.1965 -0.1017
41639SOL    HW129855   3.655   0.178   2.749 -1.1281 -1.6742 -0.1423
41639SOL    HW229856   3.693   0.151   2.605 -1.8633 -2.3893 -0.2095
41640SOL     OW29857  10.082   2.027   0.880  0.1345 -0.4690  0.4031
41640SOL    HW129858  10.006   2.025   0.822 -1.1007 -0.2750  1.9160
41640SOL    HW229859  10.109   1.936   0.889  1.1002 -0.3880 -1.3682
41641SOL     OW29860   6.441   7.151  11.367 -0.2135  0.6045 -0.3021
41641SOL    HW129861   6.434   7.246  11.352 -1.2772  1.0384  2.3497
41641SOL    HW229862   6.374   7.113  11.310  0.2231  1.4277 -1.4048
41642SOL     OW29863   1.235   5.500   4.958  0.3900 -0.7161 -0.0496
41642SOL    HW129864   1.196   5.516   5.043  3.0394  3.4677  0.7020
41642SOL    HW229865   1.165   5.515   4.895 -0.5728  0.8237  1.3336
41643SOL     OW29866  10.026   1.292  10.925  0.1250 -0.1100 -0.4822
41643SOL    HW129867   9.931   1.303  10.922  0.2883  1.0839 -2.4158
41643SOL    HW229868  10.061   1.378  10.906  1.6512 -0.2207  1.5516
41644SOL     OW29869   2.333  10.228   0.279 -0.4663  0.1245 -0.0667
41644SOL    HW129870   2.388  10.150   0.268 -1.2969 -0.3324 -1.1903
41644SOL    HW229871   2.333  10.244   0.373  1.6951  0.2291 -0.0260
41645SOL     OW29872   5.474  10.433   8.087 -0.2474 -0.3229 -0.3374
41645SOL    HW129873   5.529  10.400   8.016 -0.1454  0.9289 -0.8821
41645SOL    HW229874   5.488  10.372   8.159  1.9335 -0.0412 -0.4310
41646SOL     OW29875  11.048   5.596   1.089  0.4325 -0.5089 -0.0359
41646SOL    HW129876  10.954   5.581   1.102  0.7714 -1.0226  2.2093
41646SOL    HW229877  11.053   5.682   1.048 -1.1096 -1.7846 -3.2710
41647SOL     OW29878   5.132   6.500   8.783  0.9336  0.0811 -0.5421
41647SOL    HW129879   5.059   6.456   8.740  1.1818 -0.0076 -0.8791
41647SOL    HW229880   5.183   6.429   8.822  0.8359  0.1431 -0.3012
41648SOL     OW29881  10.185   6.276   7.234  0.7287 -0.4354 -0.5181
41648SOL    HW129882  10.186   6.321   7.319  0.0838  1.9931 -1.6932
41648SOL    HW229883  10.094   6.251   7.222  0.3709  1.1524 -1.3722
41649SOL     OW29884   7.047  10.305   4.045  0.3006 -0.1825  0.3532
41649SOL    HW129885   7.040  10.400   4.038  1.1459 -0.1888 -1.2088
41649SOL    HW229886   7.065  10.276   3.955 -0.9776 -1.9240  0.5930
41650SOL     OW29887   7.762   8.945  10.634 -0.7832 -0.0081 -0.1375
41650SOL    HW129888   7.678   8.957  10.589 -0.4913  0.0862 -0.6621
41650SOL    HW229889   7.772   8.850  10.640 -0.5924 -0.0267 -0.7121
41651SOL     OW29890   1.872  11.081   8.184 -0.7679 -0.9091 -0.0235
41651SOL    HW129891   1.859  11.007   8.243  3.4206 -1.4464  0.5592
41651SOL    HW229892   1.924  11.144   8.235 -1.4598  0.9947 -1.5421
41652SOL     OW29893  11.304   1.600   5.135 -0.5869 -0.1981  0.3264
41652SOL    HW129894  11.308   1.608   5.039 -0.7137 -0.7046  0.2795
41652SOL    HW229895  11.375   1.541   5.157 -0.7088 -0.2698  0.5251
41653SOL     OW29896   8.786   8.988   7.707  0.1595 -0.6932  0.9200
41653SOL    HW129897   8.698   8.995   7.671  0.6054 -1.5412 -0.4044
41653SOL    HW229898   8.775   9.005   7.800 -0.9987  1.9953  0.3980
41654SOL     OW29899   6.504   0.158  10.724 -0.4150  0.0560 -0.4050
41654SOL    HW129900   6.439   0.191  10.787 -0.0918 -1.2432  0.6397
41654SOL    HW229901   6.486   0.208  10.644 -0.0463  2.6854  1.0139
41655SOL     OW29902  10.664   9.159   5.861  0.7239  0.6302  0.3090
41655SOL    HW129903  10.589   9.204   5.823  1.2907  2.0134  0.7511
41655SOL    HW229904  10.677   9.202   5.945  1.7202  0.0756  0.4540
41656SOL     OW29905   4.806   6.088   1.910  0.2623 -0.2292 -0.0135
41656SOL    HW129906   4.714   6.105   1.929  0.7017  0.6909  1.5053
41656SOL    HW229907   4.823   6.001   1.947  0.8677  1.1535  3.3588
41657SOL     OW29908   5.120   1.458   3.355  0.3241  0.2252  0.3610
41657SOL    HW129909   5.127   1.517   3.430  0.3466 -0.0248  0.5569
41657SOL    HW229910   5.027   1.458   3.334  0.5059  1.4658 -0.5616
41658SOL     OW29911   6.069   3.164   0.373  0.3055  1.0450 -0.6858
41658SOL    HW129912   5.996   3.195   0.425 -1.2536  0.2133 -2.2738
41658SOL    HW229913   6.101   3.242   0.327 -0.5491  1.1632 -1.0976
41659SOL     OW29914   4.577   6.717   5.228 -0.3201  0.2818 -0.2981
41659SOL    HW129915   4.509   6.754   5.172  0.9255  1.1062 -1.3311
41659SOL    HW229916   4.533   6.700   5.311 -1.8628  0.4471 -1.0416
41660SOL     OW29917   1.698   1.268   5.419 -0.3690  0.4316  0.0755
41660SOL    HW129918   1.772   1.259   5.479  0.9446  0.3755 -1.4796
41660SOL    HW229919   1.661   1.354   5.440 -2.1442 -0.9139  3.2263
41661SOL     OW29920   1.567   8.820   3.382  0.1167  0.2104  0.4706
41661SOL    HW129921   1.569   8.740   3.330 -1.8907 -0.7320  1.7156
41661SOL    HW229922   1.658   8.845   3.393  0.7245 -1.2815 -0.8581
41662SOL     OW29923   3.852   2.480  10.494  0.0958 -0.0240 -0.3943
41662SOL    HW129924   3.896   2.511  10.414 -2.0074 -0.1904 -1.6752
41662SOL    HW229925   3.881   2.389  10.503 -0.2542 -0.2473 -1.4253
41663SOL     OW29926   2.634   2.665   6.878 -0.0095 -0.6129 -0.7813
41663SOL    HW129927   2.616   2.571   6.887 -2.1492 -0.3702 -1.9261
41663SOL    HW229928   2.590   2.704   6.953  2.1698 -0.5903  0.5652
41664SOL     OW29929  11.608   1.970   0.199  0.0756 -0.4085  0.0392
41664SOL    HW129930  11.608   1.976   0.295  0.2203 -2.0808  0.1811
41664SOL    HW229931  11.676   2.031   0.172 -0.3354  0.4899  0.9613
41665SOL     OW29932   8.302   3.184   4.278 -0.2801  0.1169  0.5345
41665SOL    HW129933   8.289   3.254   4.341 -3.8491 -0.1450  0.2509
41665SOL    HW229934   8.214   3.154   4.256  0.9981 -2.6223 -1.4339
41666SOL     OW29935   6.351   2.035   6.103 -0.2812  0.5594 -0.5195
41666SOL    HW129936   6.440   2.072   6.102  0.0241 -0.1705 -1.6920
41666SOL    HW229937   6.364   1.942   6.089 -1.2528  0.4506 -0.7370
41667SOL     OW29938   6.543   5.798   8.056 -0.2562  0.1020  0.3038
41667SOL    HW129939   6.542   5.723   8.115 -1.5976  0.1178  0.3362
41667SOL    HW229940   6.635   5.808   8.031 -0.0235 -1.3869  0.4910
41668SOL     OW29941   3.431  11.412   4.135  0.1439  0.0936 -0.5481
41668SOL    HW129942   3.462  11.434   4.223  0.7105 -0.1758 -0.6763
41668SOL    HW229943   3.510  11.384   4.088  0.3641  2.8165 -1.9925
41669SOL     OW29944   5.112   7.848   4.393 -0.0217  0.2469 -0.1130
41669SOL    HW129945   5.039   7.909   4.397 -1.5552 -1.0470 -3.9310
41669SOL    HW229946   5.174   7.890   4.333  0.1053 -0.7732 -0.7092
41670SOL     OW29947   0.526   7.534   1.115  0.9009  0.0365 -0.1537
41670SOL    HW129948   0.543   7.595   1.043  1.5187  1.3902  1.0904
41670SOL    HW229949   0.608   7.531   1.163  0.3493 -0.4825  0.7740
41671SOL     OW29950   9.199   5.551   1.130  0.6041  0.0684 -0.3939
41671SOL    HW129951   9.154   5.617   1.078  0.3043  0.4023  0.2813
41671SOL    HW229952   9.161   5.559   1.218  1.3035 -0.2934 -0.0493
41672SOL     OW29953   6.592   5.901   2.442 -0.0583  0.3841 -0.2621
41672SOL    HW129954   6.552   5.951   2.370  0.7414 -0.3552 -1.2528
41672SOL    HW229955   6.650   5.963   2.486 -1.2074  1.0813  0.3082
41673SOL     OW29956   7.343   8.871   2.578  0.2520  0.3065  0.3362
41673SOL    HW129957   7.407   8.929   2.618  0.0672 -0.2959  1.5624
41673SOL    HW229958   7.288   8.842   2.651  0.0636 -1.0413 -0.2973
41674SOL     OW29959   9.893   7.289   4.885  0.6544  0.4650 -0.0107
41674SOL    HW129960   9.955   7.215   4.882  0.1856 -0.0174  1.6488
41674SOL    HW229961   9.948   7.365   4.903  1.0266  0.3998 -0.8094
41675SOL     OW29962   8.949   1.302  11.647  0.2814 -0.3484  0.0449
41675SOL    HW129963   8.869   1.258  11.617  0.3568 -0.7485  0.4137
41675SOL    HW229964   8.928   1.395  11.643 -0.2858 -0.4588  0.3641
41676SOL     OW29965   1.833   7.781   4.185  0.1376 -0.3599  0.5863
41676SOL    HW129966   1.800   7.720   4.119  2.0949  0.5944 -1.3710
41676SOL    HW229967   1.902   7.733   4.229  0.7340 -0.0534 -0.0029
41677SOL     OW29968   4.447  10.135   5.739  0.1379 -0.6416 -0.0230
41677SOL    HW129969   4.444  10.209   5.679 -0.1140  0.7099  1.5757
41677SOL    HW229970   4.391  10.068   5.699 -2.4885  1.3307  0.1078
41678SOL     OW29971   8.367   1.589   9.127 -0.0080  0.0805  0.1064
41678SOL    HW129972   8.396   1.504   9.160 -2.8964 -0.8206  0.6603
41678SOL    HW229973   8.361   1.644   9.206  2.7105  1.1677 -0.3577
41679SOL     OW29974   7.058   2.444   2.362 -0.4809  0.6196 -0.0888
41679SOL    HW129975   7.050   2.369   2.303 -1.0574  0.4759  0.1630
41679SOL    HW229976   7.143   2.482   2.341 -0.5724  0.4250 -0.8376
41680SOL     OW29977   5.977  10.560  10.653  0.4933 -0.0785  0.1893
41680SOL    HW129978   6.029  10.540  10.576 -0.4477 -1.0110 -0.2304
41680SOL    HW229979   5.967  10.656  10.651 -0.4793 -0.1688 -1.5270
41681SOL     OW29980  10.263   6.888   9.831  0.5120  0.3068 -0.1904
41681SOL    HW129981  10.181   6.890   9.781  0.8764  1.4840 -0.7781
41681SOL    HW229982  10.282   6.795   9.844 -1.1417  0.0146  0.3410
41682SOL     OW29983   7.255  11.305   3.936 -0.2564 -0.8874  0.3631
41682SOL    HW129984   7.229  11.266   3.852  0.5736  0.5210 -0.5945
41682SOL    HW229985   7.178  11.292   3.993 -2.3380  1.2582 -1.7166
41683SOL     OW29986   4.419   9.850  10.750 -0.0600  0.2891  0.3252
41683SOL    HW129987   4.445   9.937  10.782  2.4635 -0.6884  1.2469
41683SOL    HW229988   4.499   9.815  10.710 -0.9605 -1.6775  0.1603
41684SOL     OW29989   0.749   9.118   1.910  0.0961  0.1732 -0.1394
41684SOL    HW129990   0.686   9.045   1.912 -2.9577  2.5848  0.3638
41684SOL    HW229991   0.781   9.120   1.821  0.5947 -2.0081 -0.0561
41685SOL     OW29992   5.074   7.529   5.823 -0.5041 -0.6885 -0.2907
41685SOL    HW129993   5.013   7.457   5.811  0.2913 -1.1834 -1.6841
41685SOL    HW229994   5.056   7.588   5.750 -0.9200  0.3677  0.6469
41686SOL     OW29995   8.476   6.078   8.703 -0.5801 -0.3671 -0.7142
41686SOL    HW129996   8.541   6.020   8.664  0.3097 -0.4114  0.8066
41686SOL    HW229997   8.470   6.052   8.794  1.7257  3.4672  0.7579
41687SOL     OW29998   1.664  10.329   4.505  0.1057 -0.1719  0.2262
41687SOL    HW129999   1.683  10.343   4.412  2.4991 -1.2794  0.4779
41687SOL    HW230000   1.750  10.322   4.547 -0.8994 -1.1262  2.2934
41688SOL     OW30001   4.230   2.164   7.261  0.4431  0.1021  0.2350
41688SOL    HW130002   4.171   2.164   7.186 -0.3776 -0.4410  0.8679
41688SOL    HW230003   4.181   2.121   7.331  0.8702  1.3434  1.3429
41689SOL     OW30004   7.369   7.723   9.765  0.1586 -0.0787  0.0376
41689SOL    HW130005   7.312   7.796   9.741  1.4104  0.9896  0.2267
41689SOL    HW230006   7.328   7.685   9.843 -0.2120  0.7612  0.2600
41690SOL     OW30007  11.290   6.294   8.259  0.2739 -0.3665  0.0010
41690SOL    HW130008  11.208   6.260   8.294  1.3734 -1.2560  1.8756
41690SOL    HW230009  11.338   6.216   8.231  1.4542 -0.1013  1.2140
41691SOL     OW30010   0.435   0.138   3.708  0.5323  0.3769 -0.3313
41691SOL    HW130011   0.343   0.162   3.694  0.1531 -0.4093  0.6800
41691SOL    HW230012   0.431   0.056   3.755  1.7670  0.5688  0.1414
41692SOL     OW30013   4.489   0.916   7.140  0.4801 -0.0840  0.2101
41692SOL    HW130014   4.460   1.005   7.117 -0.4887 -0.7643 -1.4133
41692SOL    HW230015   4.546   0.890   7.067  0.0468 -1.1021  0.2195
41693SOL     OW30016   4.527   7.102   1.655  0.5518  0.0332  0.2374
41693SOL    HW130017   4.580   7.115   1.734 -0.1327  0.5195  0.6307
41693SOL    HW230018   4.533   7.185   1.608  2.1945 -0.7394 -1.0202
41694SOL     OW30019   7.153   6.170   3.931 -0.5388  0.0303 -0.8019
41694SOL    HW130020   7.241   6.168   3.892 -0.8376  1.1472 -1.5701
41694SOL    HW230021   7.131   6.078   3.944 -0.0723 -0.3548 -2.5059
41695SOL     OW30022   5.819   9.627  10.685  0.1352 -0.3395 -0.1792
41695SOL    HW130023   5.895   9.573  10.663  0.0864  0.1834 -1.7496
41695SOL    HW230024   5.771   9.635  10.602  0.9950  3.4184 -0.4873
41696SOL     OW30025   3.482   5.283   5.248 -0.0507 -0.4266  0.1852
41696SOL    HW130026   3.430   5.202   5.250 -0.0233 -0.4365  1.4826
41696SOL    HW230027   3.572   5.253   5.252 -0.0287 -0.3464  0.2880
41697SOL     OW30028   0.389   4.400   3.668  0.1295 -0.3412  0.1950
41697SOL    HW130029   0.347   4.340   3.731 -0.1938  1.5761  1.9188
41697SOL    HW230030   0.481   4.373   3.668  0.0544 -0.6666  1.2125
41698SOL     OW30031   4.140   5.761   9.816  0.6994 -0.4185 -0.5945
41698SOL    HW130032   4.128   5.701   9.742 -0.0146 -0.5149 -0.4098
41698SOL    HW230033   4.155   5.703   9.890  1.9934 -0.3084 -0.7485
41699SOL     OW30034   6.023   4.060  10.163 -0.0827  0.1174  0.0307
41699SOL    HW130035   6.034   4.155  10.173  0.6193  0.0719 -0.2638
41699SOL    HW230036   5.955   4.051  10.097  0.5043  0.4287 -0.6364
41700SOL     OW30037   6.282  11.061   6.198  0.7588  0.7378 -0.6502
41700SOL    HW130038   6.340  10.986   6.187 -1.1036 -1.2162  1.5113
41700SOL    HW230039   6.327  11.117   6.261  0.5353 -0.6514  0.8389
41701SOL     OW30040   6.138   8.678   4.296 -0.1516 -0.5228 -0.1551
41701SOL    HW130041   6.092   8.649   4.375 -0.6240 -0.0796 -0.2630
41701SOL    HW230042   6.230   8.684   4.323 -0.2845 -0.5275  0.3153
41702SOL     OW30043   2.358  10.978   5.913  0.0831  0.2829  0.9787
41702SOL    HW130044   2.444  11.014   5.934 -0.4716  1.4510  1.3376
41702SOL    HW230045   2.375  10.915   5.843  1.2042  0.5865  0.9523
41703SOL     OW30046   7.216   2.670   0.065  0.2919  0.4555 -0.7276
41703SOL    HW130047   7.279   2.609   0.029 -0.4289 -1.6066  1.2293
41703SOL    HW230048   7.267   2.726   0.124  0.7965  1.0643 -1.7329
41704SOL     OW30049   3.729   6.831   9.915 -0.3063 -0.1431 -0.0309
41704SOL    HW130050   3.651   6.794   9.956 -1.8282  1.5520 -1.2890
41704SOL    HW230051   3.789   6.845   9.988 -1.4512 -0.7817  1.0770
41705SOL     OW30052  10.830  11.224   6.481 -0.1329  0.3320 -0.5913
41705SOL    HW130053  10.860  11.145   6.526 -0.6778  0.6068  0.2615
41705SOL    HW230054  10.778  11.271   6.546  0.9231  1.8429 -0.8149
41706SOL     OW30055   5.011   0.170   4.125 -0.2828 -0.3847  0.2873
41706SOL    HW130056   4.927   0.163   4.079 -0.4525 -0.2107  0.5634
41706SOL    HW230057   5.057   0.242   4.081  0.0998 -1.0660 -0.4426
41707SOL     OW30058   5.468   8.592   2.807 -0.5682 -0.6936  0.0570
41707SOL    HW130059   5.503   8.507   2.780  1.6194 -0.4273  1.7015
41707SOL    HW230060   5.394   8.608   2.748  0.4079 -2.6418 -1.8567
41708SOL     OW30061   4.302   4.830   7.843  0.5207  0.1141  0.5970
41708SOL    HW130062   4.285   4.915   7.883  0.1793  0.5687 -0.4618
41708SOL    HW230063   4.352   4.851   7.764  2.4881 -0.8780  1.5319
41709SOL     OW30064   0.871   8.173   7.372 -0.1072  0.1884  0.2609
41709SOL    HW130065   0.876   8.243   7.436 -0.7897  1.8864 -1.4537
41709SOL    HW230066   0.918   8.206   7.295  0.3106 -1.5879 -0.3112
41710SOL     OW30067   4.427  11.304  10.958  0.4205  0.4512  0.3340
41710SOL    HW130068   4.333  11.315  10.952  0.4805  0.2537 -3.0513
41710SOL    HW230069   4.453  11.358  11.032 -1.8671  4.4906 -1.4489
41711SOL     OW30070   5.214   0.014   0.667  0.2283 -0.1349  0.9973
41711SOL    HW130071   5.240  -0.077   0.682 -0.5331 -0.2740  1.5365
41711SOL    HW230072   5.153   0.033   0.739 -0.3110  0.5182  0.3755
41712SOL     OW30073  11.136   2.647   3.858 -0.0146  0.1097 -0.2965
41712SOL    HW130074  11.113   2.737   3.882  0.0090  0.3009 -0.9673
41712SOL    HW230075  11.210   2.656   3.798 -0.5477 -0.3003 -1.0413
41713SOL     OW30076   4.204  11.661   5.614  1.0486  0.6714  0.3161
41713SOL    HW130077   4.211  11.738   5.671 -0.8854  0.4222  0.9439
41713SOL    HW230078   4.113  11.659   5.587  1.5478 -0.2117 -1.4409
41714SOL     OW30079   2.563   6.362  11.161 -0.2047 -0.3478 -0.0078
41714SOL    HW130080   2.638   6.390  11.108 -0.6210  0.2694 -0.2753
41714SOL    HW230081   2.529   6.443  11.199 -1.4772 -0.4664 -0.8603
41715SOL     OW30082   6.569   2.734   2.792 -0.0029 -0.4584  0.1742
41715SOL    HW130083   6.590   2.684   2.713 -0.3036  1.0887 -0.9300
41715SOL    HW230084   6.585   2.825   2.768  1.9163 -0.0649  2.5650
41716SOL     OW30085  10.836   2.949   0.387  0.1331 -0.2793 -0.6013
41716SOL    HW130086  10.757   2.896   0.391  1.0609 -1.6735  2.8640
41716SOL    HW230087  10.894   2.902   0.327 -0.6881 -0.6940 -1.0758
41717SOL     OW30088   4.330  10.491   3.300  0.6278 -0.0129 -0.1027
41717SOL    HW130089   4.339  10.581   3.331  0.8694 -0.2046  0.3933
41717SOL    HW230090   4.288  10.444   3.372  0.4432 -0.2832 -0.3828
41718SOL     OW30091   6.983   3.419   7.748  0.1524  0.1618 -0.4888
41718SOL    HW130092   6.972   3.326   7.764  1.9722 -0.3201 -1.7200
41718SOL    HW230093   7.057   3.445   7.802 -0.1209  0.8316 -0.4177
41719SOL     OW30094  10.886   7.099   2.033 -1.0689 -0.2545  0.2756
41719SOL    HW130095  10.819   7.031   2.037  1.3526 -2.7675  0.9576
41719SOL    HW230096  10.933   7.082   1.952 -2.1222  2.5240 -1.0684
41720SOL     OW30097   4.507   2.879   0.595  0.1033 -0.2778  0.2670
41720SOL    HW130098   4.496   2.835   0.511  1.6676  0.1540 -0.1983
41720SOL    HW230099   4.533   2.968   0.573  3.6380 -0.9490  1.1141
41721SOL     OW30100   0.145   2.479   3.276  0.7552  0.0203 -0.5294
41721SOL    HW130101   0.195   2.402   3.248 -0.7764 -1.1533 -0.1839
41721SOL    HW230102   0.055   2.460   3.250  0.4775  2.2075 -1.4042
41722SOL     OW30103   6.808   5.930   5.909 -0.2311  0.3127  0.3424
41722SOL    HW130104   6.721   5.926   5.948 -0.6927 -1.1321 -0.7480
41722SOL    HW230105   6.792   5.932   5.814  0.8337 -4.0025 -0.1397
41723SOL     OW30106   1.068   5.121   1.881 -0.0402 -0.1981  0.4390
41723SOL    HW130107   1.059   5.037   1.837  0.2174 -0.3296  0.6300
41723SOL    HW230108   0.981   5.140   1.916 -0.2308 -0.1174 -0.0799
41724SOL     OW30109   0.527   1.313   9.073 -0.1237  0.5933 -0.1441
41724SOL    HW130110   0.483   1.309   9.158  0.5733 -2.8716  0.1897
41724SOL    HW230111   0.475   1.377   9.023 -3.8292 -1.0936  1.1702
41725SOL     OW30112   7.238   8.529   9.239  0.7893  0.3697  0.3917
41725SOL    HW130113   7.169   8.563   9.182  0.6710 -1.1489 -0.4407
41725SOL    HW230114   7.306   8.596   9.238  0.1670  1.0049 -0.3842
41726SOL     OW30115   8.859   9.536   2.008 -0.6629 -0.2232  0.2720
41726SOL    HW130116   8.881   9.450   2.044 -1.2207 -0.7260 -0.5608
41726SOL    HW230117   8.776   9.523   1.962 -0.0370  0.4280 -1.1064
41727SOL     OW30118   4.679   4.760   9.935  0.5943  0.1822  0.1111
41727SOL    HW130119   4.726   4.841   9.955  1.1965 -0.3393  0.8949
41727SOL    HW230120   4.609   4.787   9.875 -0.4399  1.6323  1.8559
41728SOL     OW30121   0.442   2.545   6.398 -0.5371 -0.5959  0.3167
41728SOL    HW130122   0.474   2.496   6.474  0.6826 -0.9115 -0.3677
41728SOL    HW230123   0.448   2.637   6.423  0.5363 -0.6718  0.3630
41729SOL     OW30124   7.035   3.028   9.397 -0.4125  0.0107  0.0921
41729SOL    HW130125   7.092   3.002   9.469 -0.9395 -0.1080  0.4770
41729SOL    HW230126   7.076   3.107   9.362 -0.2360  0.1633  0.6291
41730SOL     OW30127   7.269  10.532   8.926  0.5369  0.0115  0.1055
41730SOL    HW130128   7.359  10.502   8.941  0.3647 -1.5273 -1.6631
41730SOL    HW230129   7.270  10.565   8.836 -0.3894  1.2342  0.5129
41731SOL     OW30130  11.654  11.038   2.415 -0.8726 -0.0688  0.2549
41731SOL    HW130131  11.565  11.014   2.440 -1.5665  1.9652 -0.1673
41731SOL    HW230132  11.704  11.029   2.497 -1.5549 -0.6840  0.6206
41732SOL     OW30133  11.312   6.066   0.836 -0.0654  0.1415  0.0485
41732SOL    HW130134  11.401   6.060   0.801 -0.4204 -0.2148 -0.8121
41732SOL    HW230135  11.279   5.976   0.832 -1.0073  0.5298 -1.0840
41733SOL     OW30136  10.176   4.889   2.383 -0.0592  0.0499  0.4661
41733SOL    HW130137  10.226   4.809   2.396  0.2515 -0.0751 -1.1956
41733SOL    HW230138  10.239   4.959   2.396  0.7456 -0.1128 -1.9356
41734SOL     OW30139   2.178   2.871   6.938 -0.2944 -0.5296  0.0199
41734SOL    HW130140   2.123   2.823   7.000 -1.5790  1.1438  0.2678
41734SOL    HW230141   2.224   2.803   6.889 -0.3372 -1.9349  1.8041
41735SOL     OW30142   0.329   2.187  11.067 -0.2680 -0.6399  0.6874
41735SOL    HW130143   0.408   2.143  11.037 -1.3705 -2.2660  0.0108
41735SOL    HW230144   0.303   2.140  11.146  0.5463  1.2230  2.1265
41736SOL     OW30145  10.984   2.478   7.809 -0.0092 -0.5554 -0.3823
41736SOL    HW130146  10.923   2.543   7.842  0.1443  0.5033 -2.0402
41736SOL    HW230147  10.932   2.425   7.748  0.6360  0.3207 -1.7659
41737SOL     OW30148   7.047   7.557   2.284  0.4989  0.1118  0.0290
41737SOL    HW130149   6.993   7.478   2.287 -0.7147  0.8802 -0.8219
41737SOL    HW230150   7.137   7.525   2.293  0.0104 -1.3298  0.0008
41738SOL     OW30151   4.817  10.863   0.455  0.5146 -0.4612 -0.3681
41738SOL    HW130152   4.794  10.924   0.384  0.6667  0.6372  0.5049
41738SOL    HW230153   4.733  10.834   0.490  0.3985  0.9774  0.6432
41739SOL     OW30154   1.952   1.070   0.211  0.9763  0.0287 -0.1698
41739SOL    HW130155   2.022   1.123   0.251 -1.2951  1.8104  1.7542
41739SOL    HW230156   1.937   1.111   0.126  2.6505 -0.8141 -0.9277
41740SOL     OW30157   8.846   7.748   1.688 -0.0591 -0.2045  0.0890
41740SOL    HW130158   8.803   7.689   1.626  1.6289 -1.0226 -0.3709
41740SOL    HW230159   8.776   7.779   1.744 -1.3845 -0.7141 -1.2210
41741SOL     OW30160   9.405   2.917   5.427 -0.1175 -0.0570  0.3680
41741SOL    HW130161   9.343   2.965   5.482  0.2985  2.4515 -1.1715
41741SOL    HW230162   9.362   2.913   5.341  1.1255  0.2929 -0.3059
41742SOL     OW30163   8.060   8.211   5.617 -0.3355  0.1358  0.2890
41742SOL    HW130164   8.053   8.126   5.660 -1.4960 -0.1435 -0.3952
41742SOL    HW230165   8.009   8.202   5.537  1.6292  0.6859 -1.1022
41743SOL     OW30166   7.902   5.938   1.442  0.0491 -0.0955  0.7467
41743SOL    HW130167   7.935   6.026   1.427  0.7286 -0.5440 -0.5059
41743SOL    HW230168   7.808   5.950   1.459 -0.5135  0.6567 -2.3435
41744SOL     OW30169   5.261   5.915   6.365  0.4023  0.1241 -0.4195
41744SOL    HW130170   5.232   5.948   6.280 -0.2588  1.2626  0.2243
41744SOL    HW230171   5.182   5.916   6.419  1.0482  0.5322  0.5412
41745SOL     OW30172   1.798   1.214  10.631  0.0290 -0.3600  0.1259
41745SOL    HW130173   1.763   1.130  10.600  1.1741  0.2924 -3.4849
41745SOL    HW230174   1.853   1.245  10.559 -0.8401  3.8231  0.9637
41746SOL     OW30175   6.345   9.042   4.653 -0.6445 -0.0719  0.0873
41746SOL    HW130176   6.352   9.064   4.560 -0.1886 -1.2183 -0.1665
41746SOL    HW230177   6.424   9.078   4.692  0.2865 -1.5514 -0.3922
41747SOL     OW30178   5.440   2.439   4.227  0.4459 -0.2496 -0.2277
41747SOL    HW130179   5.401   2.527   4.231  0.5888 -0.2145  0.4144
41747SOL    HW230180   5.431   2.405   4.316 -0.4961 -1.2729 -0.6847
41748SOL     OW30181  10.874   2.961   4.402 -0.6664  0.2566 -0.0637
41748SOL    HW130182  10.839   2.876   4.377 -1.7642  0.7358 -0.1865
41748SOL    HW230183  10.798   3.018   4.410 -0.5224  0.1566  4.5820
41749SOL     OW30184   3.647   4.907  11.355  0.5777 -0.7216  0.2819
41749SOL    HW130185   3.647   4.830  11.298 -0.6221 -2.0340  1.9583
41749SOL    HW230186   3.606   4.877  11.436 -0.4593  1.8542  0.8024
41750SOL     OW30187   9.865   7.315   3.213  0.0122  0.0242  0.0041
41750SOL    HW130188   9.872   7.385   3.278  1.0242 -0.7122  0.7357
41750SOL    HW230189   9.955   7.300   3.184 -0.4773  0.6397 -1.9322
41751SOL     OW30190   0.502   5.390   6.591 -0.2921  0.4655 -0.2768
41751SOL    HW130191   0.592   5.382   6.558  1.2115  2.3244  2.8620
41751SOL    HW230192   0.487   5.309   6.639 -0.7487 -0.2807 -1.6219
41752SOL     OW30193   6.437   9.490  11.587  0.2429  0.4277 -0.1848
41752SOL    HW130194   6.454   9.408  11.634  2.6149  0.3942 -1.0044
41752SOL    HW230195   6.390   9.462  11.508 -0.5719  0.0869  0.4052
41753SOL     OW30196   2.276   6.858   6.124 -0.2082 -0.5730 -0.0113
41753SOL    HW130197   2.226   6.848   6.042 -0.9143  0.6131  0.2532
41753SOL    HW230198   2.258   6.777   6.173 -0.0219 -1.1617 -0.8775
41754SOL     OW30199   3.626   6.201   1.035 -0.3499  0.5460  0.1618
41754SOL    HW130200   3.613   6.194   0.940 -0.3989 -1.7523  0.2968
41754SOL    HW230201   3.551   6.155   1.073  2.3869 -3.6978  1.1337
41755SOL     OW30202   9.042   0.467   3.279  0.2725 -0.0945  0.0376
41755SOL    HW130203   9.035   0.518   3.198 -2.0820  0.0657  0.2956
41755SOL    HW230204   9.100   0.394   3.255 -0.2399  0.0334 -1.7495
41756SOL     OW30205   3.471   5.772  11.336 -0.3368 -0.6702 -0.5233
41756SOL    HW130206   3.481   5.688  11.381  0.4162 -0.1106  0.3981
41756SOL    HW230207   3.462   5.750  11.244 -1.5025 -1.8425 -0.1582
41757SOL     OW30208   2.393   8.366   1.170  0.2702 -0.9177  0.0008
41757SOL    HW130209   2.307   8.400   1.195 -0.0721 -2.4553  1.0404
41757SOL    HW230210   2.381   8.335   1.080  0.3862  0.9007 -0.6879
41758SOL     OW30211   0.180   2.898   9.652  0.4516  0.0802 -0.2186
41758SOL    HW130212   0.237   2.841   9.599 -0.8064 -1.6472  0.1891
41758SOL    HW230213   0.216   2.986   9.640  1.7238 -0.6116 -1.8959
41759SOL     OW30214   3.576   3.853   2.244 -0.1889  0.1825  0.4944
41759SOL    HW130215   3.645   3.879   2.305  0.9688 -0.5621 -0.4622
41759SOL    HW230216   3.578   3.921   2.176 -2.2406  1.6603  1.7561
41760SOL     OW30217   2.059   8.837   1.313 -0.0423 -0.1371  0.2304
41760SOL    HW130218   2.148   8.846   1.279  0.0179 -0.7554  0.2067
41760SOL    HW230219   2.067   8.852   1.407  0.0401  0.0988  0.1843
41761SOL     OW30220   8.872   6.665   9.352 -0.6505 -0.2170  0.0530
41761SOL    HW130221   8.902   6.644   9.263 -0.3081 -0.2608  0.1774
41761SOL    HW230222   8.871   6.761   9.354  2.1993 -0.0872  0.9060
41762SOL     OW30223  11.454   9.827   7.393  0.3660  0.0709  0.4226
41762SOL    HW130224  11.433   9.736   7.412  0.1509  0.2404  1.0083
41762SOL    HW230225  11.550   9.830   7.395  0.3508  0.1495  1.8312
41763SOL     OW30226   8.757  11.401   0.433  0.0899  0.3416  0.1849
41763SOL    HW130227   8.665  11.378   0.444 -0.0839  0.2411 -1.2395
41763SOL    HW230228   8.804  11.337   0.486 -0.6160 -0.4691 -0.1363
41764SOL     OW30229   0.994   3.162   9.029  0.2227 -0.0294 -0.0288
41764SOL    HW130230   1.024   3.071   9.026  3.4578  0.8362  1.2873
41764SOL    HW230231   1.075   3.214   9.033 -1.4375  2.7299  2.4661
41765SOL     OW30232   9.414   9.942   4.626  0.4151 -0.2501 -0.1109
41765SOL    HW130233   9.339   9.945   4.685 -0.0411 -0.1798 -0.6965
41765SOL    HW230234   9.419   9.851   4.597  0.6766 -0.2974  0.0788
41766SOL     OW30235  11.000   5.441   3.611  0.0872 -0.3429  0.0820
41766SOL    HW130236  10.987   5.349   3.586 -0.5762 -0.0460 -0.7373
41766SOL    HW230237  10.974   5.445   3.703  0.0314 -0.9638  0.0959
41767SOL     OW30238   3.469   1.727   6.815 -0.6439 -0.5341 -0.7084
41767SOL    HW130239   3.477   1.812   6.858  3.2727 -0.9466 -0.3044
41767SOL    HW230240   3.471   1.747   6.721  0.0844 -0.1415 -0.6129
41768SOL     OW30241  10.161   5.365   2.787 -0.5701 -0.4960  0.6878
41768SOL    HW130242  10.194   5.408   2.709  0.6094 -1.5603  0.5566
41768SOL    HW230243  10.222   5.292   2.801 -1.0338 -0.6052  2.3190
41769SOL     OW30244   2.316   3.456  10.409 -0.8141  0.6659 -0.2647
41769SOL    HW130245   2.404   3.438  10.442 -1.0187 -0.1853 -0.1604
41769SOL    HW230246   2.274   3.370  10.404 -2.4202  1.2380  1.8577
41770SOL     OW30247  10.269  10.373   2.061 -0.4387 -0.2537 -0.2334
41770SOL    HW130248  10.362  10.385   2.042 -0.7672 -1.0376 -2.6486
41770SOL    HW230249  10.234  10.462   2.065  0.3463  0.0393  0.4673
41771SOL     OW30250   6.773   3.672   2.563  0.0608  0.4163 -0.1061
41771SOL    HW130251   6.857   3.673   2.609 -0.2262 -0.4049  0.4660
41771SOL    HW230252   6.782   3.737   2.494  0.6863  1.3126  0.7969
41772SOL     OW30253  10.791  10.826   3.628 -0.3108 -0.2566  0.0396
41772SOL    HW130254  10.847  10.783   3.563 -0.8147 -0.3640 -0.3221
41772SOL    HW230255  10.847  10.833   3.706 -0.1498 -1.3612  0.0376
41773SOL     OW30256   9.623   8.830  11.565 -0.0957  0.3466  0.0088
41773SOL    HW130257   9.638   8.798  11.476 -0.0311 -0.9155  0.4441
41773SOL    HW230258   9.570   8.908  11.554  1.3746  1.2414 -1.2296
41774SOL     OW30259   1.288   2.661   4.974  0.0740  0.4164  0.7739
41774SOL    HW130260   1.229   2.600   4.929  0.6600  0.2201  0.2597
41774SOL    HW230261   1.369   2.657   4.924 -0.0602  2.0728  0.3575
41775SOL     OW30262   3.879   9.799  10.236  0.4135  0.7920 -0.5121
41775SOL    HW130263   3.803   9.794  10.178 -0.4911  1.3088  0.5781
41775SOL    HW230264   3.876   9.719  10.288  1.4170  0.1661 -1.3739
41776SOL     OW30265   9.541  10.795  10.701  0.6182 -0.1826 -0.3503
41776SOL    HW130266   9.615  10.804  10.642  0.9895  0.4864  0.2001
41776SOL    HW230267   9.468  10.770  10.645  0.7521  1.3002 -1.2364
41777SOL     OW30268   7.200   2.498  11.052  0.4134 -0.3558  0.3558
41777SOL    HW130269   7.172   2.589  11.054 -1.0947 -0.7950 -0.0787
41777SOL    HW230270   7.192   2.472  10.960  3.4664 -0.1782 -0.0721
41778SOL     OW30271  10.926   5.996   1.625  0.5304  0.6431  0.5357
41778SOL    HW130272  10.850   5.974   1.571  1.6783 -0.2106 -0.8035
41778SOL    HW230273  10.929   5.927   1.691  0.8321 -0.0675 -0.1890
41779SOL     OW30274  11.516   3.868   1.747 -0.0866 -0.3205 -0.2425
41779SOL    HW130275  11.448   3.800   1.748  0.4531 -0.9488  2.1945
41779SOL    HW230276  11.479   3.938   1.801  0.5321  0.0589 -0.3093
41780SOL     OW30277   3.430   7.976  11.275 -0.2513  0.0450 -0.6296
41780SOL    HW130278   3.349   7.941  11.313  0.5593 -2.4402 -1.0000
41780SOL    HW230279   3.491   7.980  11.348 -0.4721  1.2953 -0.4849
41781SOL     OW30280   4.517   4.270  11.596 -0.0452 -0.3163  0.5871
41781SOL    HW130281   4.505   4.186  11.553  1.4752 -0.9752  1.3962
41781SOL    HW230282   4.607   4.268  11.629 -1.2470 -0.1211  4.3008
41782SOL     OW30283   8.238   4.395   4.998  0.9008  0.2699 -0.1404
41782SOL    HW130284   8.163   4.442   4.962  1.7446  2.4999  0.8779
41782SOL    HW230285   8.211   4.371   5.087  1.0349  0.1526 -0.1299
41783SOL     OW30286   0.062   2.733   5.117  0.3218 -0.2604 -0.2849
41783SOL    HW130287   0.139   2.788   5.105  0.2344  0.4000  1.7955
41783SOL    HW230288   0.086   2.674   5.189 -0.1763 -1.8910 -1.3902
41784SOL     OW30289   2.203  11.603   4.830 -0.1684  0.6538 -0.4732
41784SOL    HW130290   2.109  11.591   4.840 -0.3982  1.3764 -1.5956
41784SOL    HW230291   2.242  11.528   4.876 -1.2606  0.5829  0.3832
41785SOL     OW30292  10.237   1.539   6.269 -0.1309 -0.1586 -0.5752
41785SOL    HW130293  10.205   1.449   6.271  1.1542 -0.6125  0.4264
41785SOL    HW230294  10.238   1.567   6.360  1.7170  0.0358 -0.6266
41786SOL     OW30295   1.488   3.353   9.877 -0.4517 -0.0703  0.3119
41786SOL    HW130296   1.523   3.336   9.790  1.7326  3.1134  0.4068
41786SOL    HW230297   1.540   3.298   9.936  0.9727  0.8327 -0.0592
41787SOL     OW30298   8.119   7.679  10.290  0.1108 -0.1818  0.4562
41787SOL    HW130299   8.146   7.640  10.373  0.9569 -0.7502 -0.0727
41787SOL    HW230300   8.093   7.769  10.313  1.7669  0.1667  1.1237
41788SOL     OW30301   1.935   5.834   5.805 -0.5346 -0.2268 -0.4054
41788SOL    HW130302   1.948   5.928   5.814 -0.6185 -0.2142 -0.4135
41788SOL    HW230303   1.939   5.800   5.895 -2.0071 -0.0196 -0.2416
41789SOL     OW30304  11.074  11.024   2.806 -0.3734 -0.3262  0.8040
41789SOL    HW130305  11.145  11.013   2.742 -1.7358 -1.5012 -0.5800
41789SOL    HW230306  11.107  11.090   2.866  1.2486  0.3755 -0.7428
41790SOL     OW30307   5.001   1.896   2.888 -0.3014 -0.5165  0.1113
41790SOL    HW130308   4.948   1.828   2.929 -0.3940 -0.9648 -0.7194
41790SOL    HW230309   5.037   1.854   2.810  2.5798 -0.7479  1.4428
41791SOL     OW30310   9.488   4.650   4.313  0.0108  0.3265  0.1534
41791SOL    HW130311   9.554   4.581   4.311  0.6601  0.9351  0.2479
41791SOL    HW230312   9.532   4.724   4.353 -0.8275  0.6528  0.4868
41792SOL     OW30313   0.585   1.775   6.560  0.0114  0.2902  0.0178
41792SOL    HW130314   0.612   1.830   6.486  0.1960  1.8487  1.1967
41792SOL    HW230315   0.490   1.767   6.551  0.2533 -1.7437 -1.8059
41793SOL     OW30316   9.587   1.667  10.760  0.1250  0.0313 -0.4328
41793SOL    HW130317   9.636   1.625  10.831  0.5805  2.0214  0.5042
41793SOL    HW230318   9.511   1.611  10.746  0.4806 -0.8626  1.0365
41794SOL     OW30319   2.423   9.162   0.747 -0.2883 -0.1839 -0.4151
41794SOL    HW130320   2.484   9.173   0.674 -0.2793  0.0733 -0.3708
41794SOL    HW230321   2.400   9.252   0.772 -1.4029 -0.2797 -1.0241
41795SOL     OW30322   2.011   5.413   0.730  0.0859  0.3072  0.0364
41795SOL    HW130323   2.046   5.346   0.671 -0.5149 -0.7663  0.8723
41795SOL    HW230324   1.923   5.431   0.697 -0.1173 -0.0296  0.4011
41796SOL     OW30325   5.462   2.235   5.579  0.4046 -0.4726 -0.7558
41796SOL    HW130326   5.395   2.209   5.516  1.4945 -0.8599 -1.7754
41796SOL    HW230327   5.512   2.155   5.595  0.7887 -0.1216 -0.2002
41797SOL     OW30328   9.018   4.406  11.469 -0.3949 -0.0915 -0.4147
41797SOL    HW130329   8.980   4.480  11.516 -1.0925 -1.4203  1.1811
41797SOL    HW230330   9.113   4.420  11.476 -0.5106  0.2707  0.4994
41798SOL     OW30331   8.783   8.014   3.285  0.4401  0.5003  0.1782
41798SOL    HW130332   8.859   7.957   3.295  0.5553  0.7554  0.8187
41798SOL    HW230333   8.743   8.017   3.372 -0.3617  0.2920 -0.1784
41799SOL     OW30334   6.429   3.521   3.652  0.6536  0.1855  0.0623
41799SOL    HW130335   6.361   3.552   3.592  0.1562 -1.4394 -0.2607
41799SOL    HW230336   6.408   3.429   3.666  3.2562 -0.5877 -0.6919
41800SOL     OW30337   9.744   1.434   3.357  0.3823 -0.2382  0.7659
41800SOL    HW130338   9.739   1.354   3.408 -0.0338 -0.2749  0.6684
41800SOL    HW230339   9.655   1.449   3.326  0.7186 -0.5080 -0.3943
41801SOL     OW30340   0.578   4.725   5.665 -0.0229  0.3729  0.1228
41801SOL    HW130341   0.513   4.659   5.642  0.2724 -0.4038  1.4170
41801SOL    HW230342   0.531   4.808   5.660 -0.5629  0.0193 -0.9206
41802SOL     OW30343   9.505  10.274   2.161  0.2442  0.1171 -0.2243
41802SOL    HW130344   9.587  10.313   2.130  0.1573  0.5931  0.1288
41802SOL    HW230345   9.477  10.332   2.232 -0.2594 -0.1956 -0.1681
41803SOL     OW30346   4.946   0.829   7.220  0.3212 -0.1841 -0.6741
41803SOL    HW130347   5.013   0.821   7.289 -0.1201  3.0260  0.2881
41803SOL    HW230348   4.866   0.796   7.261  0.3729  0.3115 -0.1657
41804SOL     OW30349   7.800   5.810   6.783  0.1655 -0.0890 -0.0623
41804SOL    HW130350   7.788   5.905   6.788 -0.5403 -0.1889  0.2240
41804SOL    HW230351   7.795   5.790   6.689 -3.6449 -0.2993  0.0464
41805SOL     OW30352   6.933   0.287  10.134  0.6897  0.0906 -0.2426
41805SOL    HW130353   7.026   0.267  10.123  0.7477 -0.0029  0.3901
41805SOL    HW230354   6.931   0.352  10.204  0.1698 -1.0670  0.8542
41806SOL     OW30355   7.507   4.144   2.358  0.3679  0.0971 -0.5734
41806SOL    HW130356   7.529   4.054   2.380  0.8605  0.4494  0.4574
41806SOL    HW230357   7.567   4.167   2.287  0.5076 -0.2535 -0.5698
41807SOL     OW30358   9.884   1.058   2.916 -0.4849 -0.0751 -0.4574
41807SOL    HW130359   9.824   1.033   2.846 -0.7655  1.3061 -0.7429
41807SOL    HW230360   9.943   1.121   2.875 -0.0462  0.0156  0.3064
41808SOL     OW30361   1.699   5.531   1.323  0.0306  0.7267  0.4736
41808SOL    HW130362   1.624   5.506   1.377  0.3736 -0.1782  0.5532
41808SOL    HW230363   1.671   5.511   1.234  0.0493  0.7273  0.4678
41809SOL     OW30364   3.175   3.538   4.596 -0.0438  0.5717 -0.5148
41809SOL    HW130365   3.178   3.609   4.532  1.4326 -0.1614 -1.3183
41809SOL    HW230366   3.245   3.558   4.658  1.1316 -0.7047 -1.3722
41810SOL     OW30367   0.647   1.077  11.272 -0.1012 -0.2207 -0.2295
41810SOL    HW130368   0.732   1.055  11.234  0.1386 -0.8549  0.6375
41810SOL    HW230369   0.634   1.169  11.250  0.4327 -0.3313 -1.0625
41811SOL     OW30370   9.643   7.959   7.482 -0.2389  0.1704 -0.3636
41811SOL    HW130371   9.661   8.013   7.558 -0.6767 -0.3811  0.1400
41811SOL    HW230372   9.616   8.021   7.414  0.0474  0.6529 -0.0458
41812SOL     OW30373   9.598   8.704   5.044  0.4313 -0.1714 -0.1219
41812SOL    HW130374   9.632   8.706   4.955  1.7593 -1.4250  0.3123
41812SOL    HW230375   9.561   8.792   5.058 -1.0266 -0.3582 -2.3187
41813SOL     OW30376  10.894   7.832   7.076 -0.2580 -0.1855 -0.1827
41813SOL    HW130377  10.930   7.905   7.027  1.1136 -0.4847  0.3319
41813SOL    HW230378  10.811   7.865   7.112 -0.0575  0.8264 -0.6354
41814SOL     OW30379  10.516   2.574   3.398 -0.1852 -0.6541 -0.3371
41814SOL    HW130380  10.521   2.499   3.456 -1.0870 -1.5861 -1.4242
41814SOL    HW230381  10.562   2.644   3.445 -2.5137 -0.7594  2.3986
41815SOL     OW30382   3.270   5.271   2.310 -0.4517 -0.5847  0.3112
41815SOL    HW130383   3.272   5.182   2.345 -0.5703 -0.8205 -0.2689
41815SOL    HW230384   3.358   5.306   2.326 -0.3767 -0.8413  0.4551
41816SOL     OW30385   0.743  10.331   0.359 -0.3709  0.3803 -0.2626
41816SOL    HW130386   0.812  10.390   0.327 -0.7078  0.6162 -0.5646
41816SOL    HW230387   0.764  10.317   0.451 -0.5910  1.4230 -0.0352
41817SOL     OW30388   6.312  11.472   8.566  0.0415  0.1336  0.3758
41817SOL    HW130389   6.391  11.430   8.533 -0.7676 -2.3560  1.3954
41817SOL    HW230390   6.271  11.406   8.622 -2.6293  1.4293  0.0902
41818SOL     OW30391   7.380   1.156   5.756  0.2118  0.1391  0.2249
41818SOL    HW130392   7.395   1.111   5.839 -1.4688  0.5778  0.8169
41818SOL    HW230393   7.341   1.089   5.699  0.6191  0.0468  0.0506
41819SOL     OW30394   3.796  10.871   0.981 -0.1115  0.1989 -0.0371
41819SOL    HW130395   3.771  10.784   0.948  0.1297  0.6948 -1.5928
41819SOL    HW230396   3.716  10.922   0.976 -0.1468  0.2064  0.4766
41820SOL     OW30397   4.295   3.111   7.739  0.4885 -0.5394  0.3236
41820SOL    HW130398   4.333   3.055   7.672 -0.8693 -0.0944 -0.8683
41820SOL    HW230399   4.236   3.169   7.691  0.0044  0.2622  1.8262
41821SOL     OW30400   7.895   0.116   8.205  0.4462  0.0691  0.1665
41821SOL    HW130401   7.868   0.030   8.174 -0.4551  0.8099 -1.2151
41821SOL    HW230402   7.823   0.174   8.181  0.4923  1.0431  2.1330
41822SOL     OW30403   1.899   3.781   3.422  0.0855 -0.5230 -0.5319
41822SOL    HW130404   1.911   3.728   3.501 -0.4410 -0.7965 -0.6286
41822SOL    HW230405   1.950   3.861   3.439 -1.4129  0.2054  0.8279
41823SOL     OW30406   9.067   9.468   4.407  0.1023  0.0664 -0.2097
41823SOL    HW130407   9.093   9.557   4.434 -0.6267  0.4782 -0.8277
41823SOL    HW230408   8.974   9.476   4.387 -0.2093 -1.0831  0.7019
41824SOL     OW30409  11.175   9.652   6.850 -0.2810  0.1967 -0.9410
41824SOL    HW130410  11.226   9.576   6.823  2.8621  1.4089  1.0260
41824SOL    HW230411  11.207   9.724   6.796 -2.3563  0.4642 -1.9380
41825SOL     OW30412  11.427   7.659  10.514 -0.2044  0.7082  0.6676
41825SOL    HW130413  11.455   7.692  10.599  1.3174  0.7923  0.1523
41825SOL    HW230414  11.430   7.563  10.524  1.6393  0.6888  0.2193
41826SOL     OW30415  10.440  10.768  10.089 -0.1450 -0.3148  0.1460
41826SOL    HW130416  10.458  10.681  10.125  0.1672  0.1408  1.1195
41826SOL    HW230417  10.484  10.829  10.148 -1.5025  0.6026  0.2756
41827SOL     OW30418   8.272   6.868   4.689 -0.3828 -0.3702  0.1969
41827SOL    HW130419   8.238   6.792   4.642  1.4227 -0.1561 -1.5782
41827SOL    HW230420   8.309   6.832   4.769 -1.2864 -1.0982  0.3009
41828SOL     OW30421   2.309   4.057  10.922  0.1740  0.4710 -0.1180
41828SOL    HW130422   2.247   4.009  10.868  1.2991 -1.5717  0.3051
41828SOL    HW230423   2.257   4.124  10.965 -1.2060  0.5191 -1.7821
41829SOL     OW30424   0.588   1.354   0.661  0.0582  0.3690  0.0886
41829SOL    HW130425   0.538   1.428   0.694  1.7258  1.2888  0.6927
41829SOL    HW230426   0.673   1.360   0.707  0.0815 -2.2112  0.5509
41830SOL     OW30427   5.137   5.234  11.105  0.2690  0.1725 -0.7607
41830SOL    HW130428   5.202   5.164  11.099  1.7543  1.5347 -1.2908
41830SOL    HW230429   5.101   5.226  11.193  3.9412  1.6837  1.0504
41831SOL     OW30430   4.821  11.443   9.542  0.9684 -0.4802 -0.5746
41831SOL    HW130431   4.769  11.427   9.463  0.4384 -0.0302 -0.3271
41831SOL    HW230432   4.800  11.534   9.566  0.2343 -0.9605  0.7236
41832SOL     OW30433   1.411   8.960  10.787 -0.0896 -0.0076 -0.2793
41832SOL    HW130434   1.446   8.872  10.774 -2.0776 -1.0322  0.7780
41832SOL    HW230435   1.446   8.987  10.872  0.5260  0.2441 -0.6065
41833SOL     OW30436  11.459   0.342  11.140  0.0766 -0.0006  0.2182
41833SOL    HW130437  11.531   0.404  11.125  0.0051  0.1510  0.4873
41833SOL    HW230438  11.407   0.346  11.060  1.4568 -1.6110 -0.8277
41834SOL     OW30439   4.164   8.428   8.758 -0.1481  0.6755  0.2703
41834SOL    HW130440   4.157   8.425   8.854 -0.0201  2.3733  0.3551
41834SOL    HW230441   4.211   8.510   8.740  0.0233  0.2687 -1.2443
41835SOL     OW30442   0.190   3.412   8.186  0.4079  0.1005 -0.6330
41835SOL    HW130443   0.127   3.345   8.163 -0.0897  0.0238  0.8535
41835SOL    HW230444   0.137   3.490   8.203  0.6923  0.0418  0.6007
41836SOL     OW30445   6.359   1.835   4.164 -0.5243 -0.1204  0.0641
41836SOL    HW130446   6.312   1.835   4.247 -3.7486 -1.6201 -1.5857
41836SOL    HW230447   6.394   1.746   4.157  0.6890  0.3242  0.2516
41837SOL     OW30448   5.200  11.298   9.264 -0.7792  0.1391 -0.3956
41837SOL    HW130449   5.163  11.329   9.347 -1.9075 -3.9519  0.8744
41837SOL    HW230450   5.124  11.268   9.214  0.1156 -0.0416 -1.6987
41838SOL     OW30451   1.888   7.218   5.215 -0.3573 -0.1051  0.3006
41838SOL    HW130452   1.822   7.236   5.147 -0.6587  0.4685  0.7346
41838SOL    HW230453   1.849   7.252   5.296  0.8079  0.9998  0.4319
41839SOL     OW30454   8.268   7.775   6.957  0.0555  0.4113 -0.6818
41839SOL    HW130455   8.344   7.832   6.969  0.3672 -0.4209  1.9601
41839SOL    HW230456   8.298   7.689   6.989 -1.5483 -0.3064 -1.0132
41840SOL     OW30457   1.407   3.477   2.431  0.2784  0.4790  0.1973
41840SOL    HW130458   1.345   3.425   2.483  1.0865 -0.6955  0.0330
41840SOL    HW230459   1.482   3.491   2.489  0.8672 -0.1949 -0.3667
41841SOL     OW30460   0.741   4.548   7.012  0.7937 -0.8153 -1.0850
41841SOL    HW130461   0.714   4.456   7.007  0.8614 -0.8213 -1.3415
41841SOL    HW230462   0.834   4.544   7.034  0.5561 -0.7939 -0.0005
41842SOL     OW30463   7.479   8.764  11.459 -0.4342 -0.5177  0.3578
41842SOL    HW130464   7.405   8.825  11.452  2.3425  3.1001 -0.0839
41842SOL    HW230465   7.477   8.714  11.378 -0.4444  2.0640 -1.3530
41843SOL     OW30466   3.660   4.273   5.607 -0.4562  0.5975 -0.7083
41843SOL    HW130467   3.576   4.249   5.568 -0.2538 -0.0430 -0.7477
41843SOL    HW230468   3.637   4.336   5.676 -1.1563 -0.9476  0.5216
41844SOL     OW30469  10.585   9.235  10.652 -0.5051 -0.6711  0.7284
41844SOL    HW130470  10.496   9.264  10.669  0.0050  1.5685  0.0231
41844SOL    HW230471  10.637   9.316  10.654  1.1636 -1.6218 -0.9394
41845SOL     OW30472   8.058  10.998   3.288 -0.0052 -0.3544  0.4330
41845SOL    HW130473   8.107  10.916   3.298 -0.2731 -0.4479  0.9928
41845SOL    HW230474   8.004  11.004   3.367  0.4162  0.6396  0.6537
41846SOL     OW30475  10.401  11.184   3.224  0.5371  0.0527 -0.6999
41846SOL    HW130476  10.419  11.229   3.307  1.6578 -0.8533 -0.4346
41846SOL    HW230477  10.362  11.100   3.251  0.3001  0.0227 -1.1263
41847SOL     OW30478   9.101  10.264   5.488 -0.5856 -0.1211 -0.1829
41847SOL    HW130479   9.061  10.344   5.522 -0.5527 -0.0485 -0.3118
41847SOL    HW230480   9.037  10.231   5.425 -1.1350 -0.8454  0.7394
41848SOL     OW30481   1.275   5.282   2.634 -0.4112  0.1422  0.4904
41848SOL    HW130482   1.273   5.210   2.570 -0.6213  1.1192 -0.6366
41848SOL    HW230483   1.184   5.293   2.660 -0.6805  1.2678 -0.8325
41849SOL     OW30484   5.375   2.087   8.092  0.0641 -0.1312 -0.3187
41849SOL    HW130485   5.288   2.079   8.052  0.1469 -1.0447 -0.3483
41849SOL    HW230486   5.434   2.051   8.026  0.0053 -3.5936  1.3060
41850SOL     OW30487   7.728   2.727   3.690 -0.6421 -0.5909 -0.3941
41850SOL    HW130488   7.726   2.655   3.753  1.0235 -0.7049 -0.4132
41850SOL    HW230489   7.816   2.724   3.653 -0.2811  1.8525  0.0737
41851SOL     OW30490   9.287   9.724   2.057 -0.2947  0.1040 -0.5888
41851SOL    HW130491   9.352   9.775   2.009 -0.3606  1.5707  0.8013
41851SOL    HW230492   9.222   9.788   2.086  0.2174 -0.4946  2.2182
41852SOL     OW30493   3.547   5.650   2.441  0.2881 -0.2051 -0.0966
41852SOL    HW130494   3.484   5.699   2.389 -0.8842 -2.3640 -0.8227
41852SOL    HW230495   3.526   5.673   2.532  0.3679  1.2561 -0.4193
41853SOL     OW30496   5.832   2.115   2.765 -0.2148 -0.4783 -0.2207
41853SOL    HW130497   5.846   2.071   2.681 -0.4526 -1.3415  0.1755
41853SOL    HW230498   5.807   2.044   2.825 -1.6407  0.3301  0.2035
41854SOL     OW30499   3.905   6.646   7.038 -0.3142 -0.2838 -0.7689
41854SOL    HW130500   3.923   6.635   7.132 -0.5848 -0.7374 -0.7636
41854SOL    HW230501   3.979   6.696   7.005 -0.3254  0.0733 -0.2686
41855SOL     OW30502   8.769  11.000  10.435  0.3674 -0.3801  0.8645
41855SOL    HW130503   8.683  11.037  10.452 -0.2518  0.2145 -2.7195
41855SOL    HW230504   8.762  10.908  10.460 -0.6223  0.0753  2.4246
41856SOL     OW30505   9.900   6.784   9.868  0.3824 -0.1230 -0.2857
41856SOL    HW130506   9.878   6.698   9.903 -0.8299 -0.0897 -0.9247
41856SOL    HW230507   9.821   6.812   9.821  0.4062  1.7237  0.6714
41857SOL     OW30508   7.072   9.246   0.939 -0.1922  0.0784 -0.2307
41857SOL    HW130509   7.132   9.298   0.885 -1.8985  0.1239 -2.2046
41857SOL    HW230510   7.028   9.311   0.994 -1.0374  0.5422 -1.4188
41858SOL     OW30511  11.148  11.332   6.470 -0.7152 -0.2316 -0.3364
41858SOL    HW130512  11.059  11.299   6.482 -1.0874  0.7783 -0.2028
41858SOL    HW230513  11.199  11.256   6.441 -1.2648 -1.1883  1.1243
41859SOL     OW30514   6.118   2.151   7.686  0.1250 -0.2044 -0.0310
41859SOL    HW130515   6.133   2.243   7.667  0.3151  0.0645  1.3128
41859SOL    HW230516   6.152   2.139   7.775  2.1377 -2.0521 -0.9545
41860SOL     OW30517   1.122   3.763   5.411  1.1278  0.0823  0.1944
41860SOL    HW130518   1.036   3.792   5.439  1.6005  0.2200  1.6264
41860SOL    HW230519   1.108   3.675   5.376  0.3170  0.3857 -0.2629
41861SOL     OW30520   3.548   0.141  10.564  0.0743 -0.1973  0.5646
41861SOL    HW130521   3.586   0.122  10.650  0.1166 -0.2388  0.5368
41861SOL    HW230522   3.458   0.169  10.583  0.1061 -0.1379  0.6284
41862SOL     OW30523   6.278   4.824   6.879 -0.4911 -0.5421 -0.4454
41862SOL    HW130524   6.302   4.741   6.838  1.1911  0.0413 -0.7021
41862SOL    HW230525   6.289   4.889   6.810  1.3796  0.3126  0.5903
41863SOL     OW30526  10.279   9.151   5.782 -0.6199 -0.9317 -0.5328
41863SOL    HW130527  10.261   9.139   5.689 -1.7153  0.6638 -0.5617
41863SOL    HW230528  10.207   9.104   5.826 -0.1558 -1.6045 -0.4816
41864SOL     OW30529   9.939   1.507   9.728  0.4349 -0.4057 -0.1369
41864SOL    HW130530   9.988   1.435   9.687  0.7819 -0.1856 -0.1170
41864SOL    HW230531   9.953   1.494   9.822 -0.3926 -0.9330 -0.0823
41865SOL     OW30532   1.578  11.070   5.823 -0.4044 -0.3365  0.1355
41865SOL    HW130533   1.602  10.999   5.882 -0.7820  0.3939  1.1987
41865SOL    HW230534   1.554  11.026   5.741  0.1656 -1.3664  0.5021
41866SOL     OW30535   3.757   6.921   1.556  0.1035 -0.1562  0.0720
41866SOL    HW130536   3.747   6.986   1.626  2.0307 -0.0002  0.2663
41866SOL    HW230537   3.768   6.838   1.603  0.1460 -0.2381 -0.0847
41867SOL     OW30538   3.003   5.772  11.007 -0.1437  0.0285  0.0254
41867SOL    HW130539   3.085   5.791  11.052  1.4456  0.2725 -2.7256
41867SOL    HW230540   2.960   5.857  10.997  1.6910  0.7792 -2.6816
41868SOL     OW30541   3.148   4.377   7.451  0.1155 -0.2159 -0.1415
41868SOL    HW130542   3.109   4.308   7.506 -0.5178  0.2637  0.0257
41868SOL    HW230543   3.135   4.457   7.502  0.7039  0.0498 -0.4094
41869SOL     OW30544   5.483   4.006  10.071 -0.0043  0.4160  0.0456
41869SOL    HW130545   5.520   3.928  10.112  2.8781  1.5592 -0.1462
41869SOL    HW230546   5.416   3.972  10.011  1.3410 -1.9608 -0.2491
41870SOL     OW30547  11.250  10.268   4.143  0.3625 -0.5601 -0.2838
41870SOL    HW130548  11.268  10.198   4.206 -0.5650 -0.4352  0.1334
41870SOL    HW230549  11.283  10.347   4.185 -2.0849 -0.1260  1.0362
41871SOL     OW30550   0.488  10.360   8.042  0.2100 -0.2735  0.1892
41871SOL    HW130551   0.438  10.415   8.102  2.2723  0.7263  1.0904
41871SOL    HW230552   0.548  10.420   7.998  1.9776 -1.6402  0.6233
41872SOL     OW30553  10.778   6.823   1.926  0.2366 -1.0703 -0.4118
41872SOL    HW130554  10.850   6.798   1.983  0.9261  3.0527  0.8938
41872SOL    HW230555  10.811   6.805   1.837  2.8337  0.3054  0.1527
41873SOL     OW30556   5.612  11.084   7.427 -0.7635 -0.0992 -0.4747
41873SOL    HW130557   5.567  11.147   7.483  0.8373 -0.1807  0.9898
41873SOL    HW230558   5.583  11.106   7.339 -3.9930 -0.4697  0.3670
41874SOL     OW30559   0.025   4.067   2.240 -0.4241 -0.0022 -0.0220
41874SOL    HW130560   0.066   4.154   2.237  1.7184 -0.9311  0.3500
41874SOL    HW230561   0.019   4.041   2.148  0.7259 -0.2089 -0.0597
41875SOL     OW30562  10.328   0.664   1.232 -0.3491  0.1134 -0.2729
41875SOL    HW130563  10.362   0.587   1.188  0.0752 -0.0694  0.3637
41875SOL    HW230564  10.309   0.726   1.162 -1.9519 -1.0299 -0.9206
41876SOL     OW30565  11.422   7.920   7.493  0.1843 -0.2984 -0.3426
41876SOL    HW130566  11.411   7.827   7.475 -1.2245 -0.3838  0.7670
41876SOL    HW230567  11.492   7.923   7.558 -0.2386 -0.6655  0.1461
41877SOL     OW30568  10.797   1.426   2.138  0.0096 -0.3957  0.1161
41877SOL    HW130569  10.715   1.376   2.143 -0.2692  0.0672  0.1634
41877SOL    HW230570  10.772   1.516   2.157  0.1504  0.1741 -2.1289
41878SOL     OW30571   7.241   5.128   3.287 -0.2444 -0.0253 -0.2758
41878SOL    HW130572   7.251   5.222   3.268 -0.1492  0.0927  0.3564
41878SOL    HW230573   7.329   5.098   3.309  0.2002 -0.8151 -2.8177
41879SOL     OW30574  10.625   5.108   5.671 -0.3779 -0.1641 -0.5563
41879SOL    HW130575  10.538   5.129   5.705 -0.6500 -0.5647 -0.9998
41879SOL    HW230576  10.655   5.188   5.629  0.4924  0.7595  1.6896
41880SOL     OW30577   9.166   9.028   6.340 -0.2808  0.2706  0.7321
41880SOL    HW130578   9.215   9.108   6.324 -2.1970  1.1092 -1.5070
41880SOL    HW230579   9.074   9.054   6.329 -0.9383 -2.2833 -0.5643
41881SOL     OW30580   3.644   7.468   0.354  0.4209 -0.5573 -0.3426
41881SOL    HW130581   3.591   7.473   0.433  1.6981  0.4919  0.4842
41881SOL    HW230582   3.698   7.390   0.366 -0.5939 -1.3857 -0.9942
41882SOL     OW30583   7.951  10.889   5.241 -0.2529  0.2664 -0.1333
41882SOL    HW130584   7.921  10.834   5.314 -0.4844  3.4355  2.3643
41882SOL    HW230585   7.996  10.963   5.282  2.3398  0.7717 -3.3902
41883SOL     OW30586   8.066   0.777   0.662  0.9486 -0.3195  0.4543
41883SOL    HW130587   7.997   0.759   0.598  1.0838  2.0690 -0.4619
41883SOL    HW230588   8.025   0.838   0.724  2.6509  2.8265 -1.2527
41884SOL     OW30589   2.814   6.401   1.235 -0.1477  0.4267  0.1232
41884SOL    HW130590   2.862   6.381   1.316 -1.2758 -2.9297  0.1372
41884SOL    HW230591   2.872   6.373   1.165 -1.4699 -2.7380  0.1123
41885SOL     OW30592   2.724   5.093   4.070  0.0646 -0.1345  0.1231
41885SOL    HW130593   2.778   5.103   4.148  1.4216 -0.1249 -0.7911
41885SOL    HW230594   2.675   5.175   4.064 -0.0366 -0.1237  0.9335
41886SOL     OW30595   1.854   0.726   8.366  0.4346 -0.6495  0.0718
41886SOL    HW130596   1.922   0.719   8.434  1.7191  3.1597 -0.5801
41886SOL    HW230597   1.853   0.640   8.324  3.4188 -1.4921  1.4398
41887SOL     OW30598   1.612   4.461   3.802 -0.8228  0.2477 -0.3165
41887SOL    HW130599   1.583   4.389   3.857  0.2065  0.1354  0.1169
41887SOL    HW230600   1.706   4.468   3.820 -0.7977  1.3282 -0.7752
41888SOL     OW30601   4.562   2.410   4.615 -0.3361 -0.3870 -0.2369
41888SOL    HW130602   4.524   2.460   4.687 -0.6906  3.2015 -2.6753
41888SOL    HW230603   4.501   2.337   4.602 -1.4583  0.1581  1.5649
41889SOL     OW30604   3.034  10.190   1.674 -0.1417 -0.3501 -0.0956
41889SOL    HW130605   2.962  10.127   1.676  1.6360 -2.5013  0.6139
41889SOL    HW230606   3.051  10.211   1.766 -0.7195  1.2709 -0.3185
41890SOL     OW30607  10.505   6.764  10.539 -0.0517  0.6608  0.1911
41890SOL    HW130608  10.583   6.817  10.555  1.4352 -0.1334 -3.4533
41890SOL    HW230609  10.440   6.798  10.600  2.7395  2.1295  2.6149
41891SOL     OW30610   2.255   2.187   6.124 -0.2170  0.0033  0.5264
41891SOL    HW130611   2.317   2.142   6.067 -0.9270 -0.6322  0.2383
41891SOL    HW230612   2.295   2.273   6.140  0.5043 -0.2160 -0.0301
41892SOL     OW30613   0.884  11.409   5.734  0.1836  0.5150  0.0474
41892SOL    HW130614   0.942  11.346   5.690 -0.7931  0.6837 -1.5796
41892SOL    HW230615   0.844  11.358   5.805  2.1027  0.3439  1.0868
41893SOL     OW30616  10.501   0.421   0.904  0.3837  0.3743  0.1882
41893SOL    HW130617  10.440   0.455   0.839 -1.0059 -0.1297  1.1583
41893SOL    HW230618  10.506   0.327   0.885 -0.0448  0.2207  0.7919
41894SOL     OW30619   2.055   6.710   6.771  0.7109  0.4530  0.0180
41894SOL    HW130620   1.992   6.655   6.818  0.2285  1.8332  1.0526
41894SOL    HW230621   2.017   6.797   6.773  1.7947  0.9716 -0.9574
41895SOL     OW30622  10.297   2.111   8.746 -0.1378 -0.6154  0.4095
41895SOL    HW130623  10.325   2.186   8.800 -2.9025  0.0329  1.1005
41895SOL    HW230624  10.229   2.068   8.798 -2.6084 -0.2651 -2.2769
41896SOL     OW30625   1.421   4.612   6.188  0.2863  0.0969 -0.0360
41896SOL    HW130626   1.513   4.586   6.194  0.5329  0.2932 -2.1053
41896SOL    HW230627   1.419   4.699   6.228  0.8831 -0.1155  0.4818
41897SOL     OW30628   0.388   7.870  10.399 -0.5271 -0.5214  0.2971
41897SOL    HW130629   0.340   7.838  10.476 -0.9971 -2.5032 -0.7208
41897SOL    HW230630   0.330   7.936  10.360 -0.9623 -0.5719  0.8515
41898SOL     OW30631   6.265  10.808   8.570 -0.2445  0.3129  1.1224
41898SOL    HW130632   6.335  10.829   8.632 -0.6878  1.2036  1.3472
41898SOL    HW230633   6.250  10.889   8.522 -0.4147 -0.1624  0.3564
41899SOL     OW30634   1.489   8.075   5.002 -0.0672 -0.4477  0.1135
41899SOL    HW130635   1.445   8.023   4.935 -1.3706  3.6333 -2.6014
41899SOL    HW230636   1.571   8.104   4.961 -0.0313  0.6965  0.9283
41900SOL     OW30637   0.636  11.610   6.180  0.8614  0.3833  0.2914
41900SOL    HW130638   0.725  11.608   6.216  1.0753 -1.3094 -0.2055
41900SOL    HW230639   0.578  11.609   6.256  1.2956 -1.2916  0.6332
41901SOL     OW30640   4.603  10.995  11.063 -0.1160 -0.3702  0.9551
41901SOL    HW130641   4.610  11.091  11.065  0.4052 -0.3227 -1.1317
41901SOL    HW230642   4.690  10.964  11.085  0.5945 -0.2553 -1.4551
41902SOL     OW30643   4.924   1.111   2.485 -0.0783 -0.4869  0.5075
41902SOL    HW130644   4.949   1.090   2.395 -1.9998  0.2679 -0.2421
41902SOL    HW230645   4.999   1.161   2.519  0.0420  0.6097 -1.2192
41903SOL     OW30646   0.016  10.537   4.660 -0.0010  0.2542 -0.5885
41903SOL    HW130647   0.027  10.628   4.632  0.1610  0.0639 -1.1396
41903SOL    HW230648   0.004  10.488   4.579  1.2399 -0.4097 -0.3849
41904SOL     OW30649  11.559   7.270   8.470  0.1754  0.1668 -0.0365
41904SOL    HW130650  11.519   7.351   8.438 -0.1803 -0.2909 -0.7944
41904SOL    HW230651  11.576   7.286   8.563  1.0012  1.4576 -0.3842
41905SOL     OW30652   1.108   6.186   1.076  0.2562 -0.2457 -0.1105
41905SOL    HW130653   1.039   6.244   1.045 -0.9389 -1.0202  0.9735
41905SOL    HW230654   1.189   6.236   1.064 -0.2499 -0.0011 -3.0865
41906SOL     OW30655   3.694   6.188   4.801  0.0207  0.1556  0.4056
41906SOL    HW130656   3.779   6.213   4.765  1.1656 -1.3864  1.9278
41906SOL    HW230657   3.636   6.185   4.724  0.9489  2.5074 -0.4971
41907SOL     OW30658   5.821   2.858   8.573 -0.0506  0.5379  1.0718
41907SOL    HW130659   5.764   2.899   8.637 -0.6578 -0.4531  1.1834
41907SOL    HW230660   5.893   2.821   8.625  0.3775  1.2520  0.9949
41908SOL     OW30661   4.396   5.952  11.227  0.1288  0.1269  0.3596
41908SOL    HW130662   4.332   6.001  11.174  0.4158 -0.6388 -0.7280
41908SOL    HW230663   4.439   6.019  11.281  2.2327  1.5439 -2.8043
41909SOL     OW30664   9.749   4.148   9.432 -0.0203 -0.4316 -0.0265
41909SOL    HW130665   9.683   4.088   9.398  0.1071 -1.8326  1.9781
41909SOL    HW230666   9.828   4.126   9.383  0.3689 -2.9661  1.5177
41910SOL     OW30667   3.958   4.217   2.519  0.4142 -0.1828  0.1043
41910SOL    HW130668   3.935   4.309   2.504  0.5966  0.0194  0.9796
41910SOL    HW230669   4.003   4.218   2.604  0.3061 -1.1039  0.1761
41911SOL     OW30670   4.582   8.532   4.022 -0.5065 -0.6999 -0.4259
41911SOL    HW130671   4.560   8.550   3.931 -0.2597  0.4390 -0.2772
41911SOL    HW230672   4.590   8.618   4.062 -1.6060 -1.1903  0.9219
41912SOL     OW30673   8.963  11.486   1.160  0.2163 -0.2576  0.0212
41912SOL    HW130674   9.025  11.471   1.089 -1.5110 -0.8746 -1.4277
41912SOL    HW230675   8.978  11.414   1.221  1.3763 -0.0112  0.0372
41913SOL     OW30676   9.141  11.306  10.610 -0.0376  0.2279 -0.3700
41913SOL    HW130677   9.160  11.238  10.675 -1.1629  0.9289  0.7381
41913SOL    HW230678   9.195  11.380  10.637 -0.1012  0.3400 -0.5525
41914SOL     OW30679   5.763   4.188   1.701  0.2064  0.7152 -0.7564
41914SOL    HW130680   5.747   4.190   1.607 -0.3692  0.7131 -0.6640
41914SOL    HW230681   5.853   4.221   1.711  0.2370  0.8037 -1.2965
41915SOL     OW30682   0.689  11.285   1.797 -0.0876 -0.2828 -0.1080
41915SOL    HW130683   0.711  11.333   1.877  1.4164 -1.0569 -0.0277
41915SOL    HW230684   0.620  11.225   1.823  2.1229 -2.3753  1.3379
41916SOL     OW30685   2.878  11.340   5.610 -0.2067 -0.1720 -0.2892
41916SOL    HW130686   2.828  11.276   5.661  0.4158 -0.5404 -0.1151
41916SOL    HW230687   2.818  11.412   5.594 -0.3086  0.1368  1.3147
41917SOL     OW30688   9.657   7.440   2.789  0.2273  0.2407 -0.2705
41917SOL    HW130689   9.598   7.423   2.861  0.6801 -0.3059 -0.0248
41917SOL    HW230690   9.741   7.403   2.816  0.0129 -1.4652 -1.7399
41918SOL     OW30691   1.007   0.926   5.090 -0.3160  0.1734  0.0892
41918SOL    HW130692   0.953   0.849   5.071 -1.0808  0.7618 -0.2217
41918SOL    HW230693   0.981   0.952   5.178 -1.2197  0.9796 -0.3953
41919SOL     OW30694   5.097   5.377  10.820  0.3672  0.4112 -0.1351
41919SOL    HW130695   5.099   5.443  10.890 -0.9980 -0.3972  0.7177
41919SOL    HW230696   5.021   5.401  10.767  0.2387 -0.1199 -0.1913
41920SOL     OW30697  11.309   1.365   4.750  0.1381 -0.1012 -0.0352
41920SOL    HW130698  11.269   1.401   4.671 -0.0812  1.7089  0.8666
41920SOL    HW230699  11.320   1.439   4.809  0.5856 -1.3445  1.5463
41921SOL     OW30700   7.623   3.028   1.095  0.3055 -0.0929 -0.1275
41921SOL    HW130701   7.697   2.972   1.117  0.9038  1.1537  1.2018
41921SOL    HW230702   7.573   3.036   1.176  0.0621  1.0349 -0.3646
41922SOL     OW30703   9.495   2.542   9.412  0.1812  0.8407  0.0153
41922SOL    HW130704   9.417   2.596   9.404 -0.5735  0.0841  1.6280
41922SOL    HW230705   9.480   2.491   9.492 -0.3908 -3.7260 -2.6359
41923SOL     OW30706   7.627   5.951   7.054  0.7750  0.5130 -0.1169
41923SOL    HW130707   7.556   6.005   7.087  0.5242  0.0698  0.0808
41923SOL    HW230708   7.695   6.013   7.027  0.6238  0.9078  0.4015
41924SOL     OW30709   1.400   5.318   8.630 -0.5965  0.4780 -0.5835
41924SOL    HW130710   1.370   5.330   8.720 -1.5405  0.0018 -0.8243
41924SOL    HW230711   1.474   5.257   8.637  0.6304  1.9622  0.0533
41925SOL     OW30712   0.549   1.017   9.775 -0.5382  0.5066 -0.5306
41925SOL    HW130713   0.517   1.082   9.712 -0.4481  1.6841  0.6163
41925SOL    HW230714   0.548   1.062   9.859 -1.3904 -1.2794  0.4744
41926SOL     OW30715   3.485   6.747   1.788 -0.1705  0.6238  0.3247
41926SOL    HW130716   3.527   6.666   1.759 -0.6231  1.1209 -1.9140
41926SOL    HW230717   3.396   6.742   1.754 -0.7660  1.2830  1.7197
41927SOL     OW30718   2.683   5.769   4.747  0.7080  0.3807  0.0094
41927SOL    HW130719   2.630   5.841   4.782  1.2827  1.0436 -0.4595
41927SOL    HW230720   2.658   5.693   4.799  0.6926  1.0947  1.0682
41928SOL     OW30721   2.277   7.352   9.177  0.7099 -0.2666  0.0347
41928SOL    HW130722   2.224   7.290   9.127 -0.2751  0.9336 -0.4736
41928SOL    HW230723   2.262   7.328   9.269 -0.8701  0.1330 -0.0920
41929SOL     OW30724  11.112   4.163   6.685  0.1413  0.0818  0.1396
41929SOL    HW130725  11.043   4.100   6.708 -0.4863  0.5027 -0.5538
41929SOL    HW230726  11.088   4.242   6.733 -0.0225  0.3178 -0.3288
41930SOL     OW30727  10.630   5.405   4.548 -0.3059  0.3111 -0.0881
41930SOL    HW130728  10.673   5.484   4.583 -0.7307  0.5787 -0.1695
41930SOL    HW230729  10.690   5.374   4.480  0.6339 -0.3250  0.9888
41931SOL     OW30730   3.536   0.724   6.141 -0.8218 -0.2933  0.6220
41931SOL    HW130731   3.565   0.813   6.121 -0.0391 -0.8186 -0.6848
41931SOL    HW230732   3.449   0.735   6.179  0.2246  1.1795  2.8010
41932SOL     OW30733   4.283   6.806   3.559 -0.3760  0.1546 -0.5326
41932SOL    HW130734   4.310   6.771   3.475 -0.1121 -3.2209  0.8223
41932SOL    HW230735   4.197   6.768   3.575 -0.4145  0.7059  0.7475
41933SOL     OW30736   6.272   6.002  10.172 -0.0130  0.3392 -0.0673
41933SOL    HW130737   6.286   5.907  10.180 -0.0548  0.3291 -0.1206
41933SOL    HW230738   6.322   6.039  10.245  0.4363  0.3115 -0.3533
41934SOL     OW30739  11.005   1.379   6.011 -0.5099 -0.1592 -0.0753
41934SOL    HW130740  11.008   1.407   5.919 -1.3731 -1.2530 -0.4636
41934SOL    HW230741  10.914   1.351   6.024  0.0531 -1.8786  0.5155
41935SOL     OW30742   5.334   1.811   9.984 -0.3551 -0.3854  0.4692
41935SOL    HW130743   5.379   1.888  10.019 -1.1064  0.2113  0.1722
41935SOL    HW230744   5.285   1.845   9.909 -0.2113 -1.2825 -0.0480
41936SOL     OW30745   0.496  11.074   4.061 -0.1766  0.3457  0.0356
41936SOL    HW130746   0.439  11.008   4.022 -0.4706  0.3867  0.3813
41936SOL    HW230747   0.580  11.031   4.071 -0.5785 -0.2481  0.9989
41937SOL     OW30748   9.882   7.873   5.280 -0.4507 -0.1450 -0.8392
41937SOL    HW130749   9.922   7.786   5.290  1.4585  0.8927  1.5819
41937SOL    HW230750   9.790   7.859   5.300 -0.3697 -1.7586 -1.4303
41938SOL     OW30751   5.709   7.011   4.683 -0.0657 -0.0163 -0.3112
41938SOL    HW130752   5.780   6.949   4.668 -0.0462  0.0161 -0.3542
41938SOL    HW230753   5.631   6.966   4.652  0.0054  0.1328 -0.7144
41939SOL     OW30754   3.798   1.865  10.442 -0.1039 -0.1797  0.4591
41939SOL    HW130755   3.714   1.819  10.452 -0.3313 -0.2770 -1.4933
41939SOL    HW230756   3.776   1.958  10.448 -0.3405 -0.2087  0.0650
41940SOL     OW30757   9.003  10.754   8.845  0.6973  0.4547 -0.4683
41940SOL    HW130758   9.063  10.791   8.781  2.9997 -1.1270  0.6491
41940SOL    HW230759   9.046  10.767   8.929 -0.3310 -1.0783  0.3448
41941SOL     OW30760   6.162   3.205   5.986 -0.1545 -0.0919  0.1898
41941SOL    HW130761   6.254   3.183   5.974  0.4439  2.2545  0.0617
41941SOL    HW230762   6.137   3.162   6.068  0.9302 -1.0628  0.0231
41942SOL     OW30763   5.132   4.006   7.959 -0.2597 -0.0342  0.2886
41942SOL    HW130764   5.221   3.983   7.932 -0.6566 -0.4256 -0.7381
41942SOL    HW230765   5.117   4.093   7.920 -0.2147  0.1738  0.7316
41943SOL     OW30766   4.383   5.395   4.555  0.1388  0.1387  0.4064
41943SOL    HW130767   4.296   5.383   4.515  0.8193 -1.0147 -0.8220
41943SOL    HW230768   4.382   5.338   4.631 -1.2379  2.4909  2.3108
41944SOL     OW30769   5.729   0.600   2.726  0.0223  0.0989 -0.2539
41944SOL    HW130770   5.784   0.671   2.761  0.0330 -0.2945  0.5620
41944SOL    HW230771   5.776   0.520   2.750 -0.1052 -0.1972 -0.9722
41945SOL     OW30772   3.505   6.756   4.953  0.1950  0.3022 -0.3437
41945SOL    HW130773   3.450   6.764   4.875 -1.9798  0.7428  1.1477
41945SOL    HW230774   3.469   6.821   5.014  1.4938 -0.3883  1.2178
41946SOL     OW30775   4.182   0.312   9.091  0.0844  0.1489 -0.0860
41946SOL    HW130776   4.217   0.223   9.101 -2.3468 -1.2079 -2.5083
41946SOL    HW230777   4.199   0.354   9.176 -0.1944 -3.1566  1.7547
41947SOL     OW30778   5.992   2.804   4.152 -0.4901 -0.1714  0.2425
41947SOL    HW130779   5.973   2.798   4.058  0.4370 -2.5991  0.1315
41947SOL    HW230780   5.907   2.791   4.194 -0.5443 -1.7556 -0.2910
41948SOL     OW30781  11.080   0.040   0.272 -0.0490 -0.4061  0.3557
41948SOL    HW130782  11.164   0.071   0.238  0.7123 -2.5473  0.0790
41948SOL    HW230783  11.027   0.023   0.194 -0.6250  0.6075  0.5164
41949SOL     OW30784   0.727  10.346   6.992  0.1583 -0.4976  0.0496
41949SOL    HW130785   0.685  10.431   6.978  0.1897 -0.3114  1.0553
41949SOL    HW230786   0.786  10.359   7.066  0.8404 -1.1680 -0.3521
41950SOL     OW30787   5.888  10.570   0.153 -0.2268 -0.0039  0.1204
41950SOL    HW130788   5.961  10.586   0.213  0.3194  0.0000 -0.5447
41950SOL    HW230789   5.915  10.494   0.102 -1.1478 -0.6717  0.5926
41951SOL     OW30790   2.412   9.959   0.004  0.5482 -0.2717 -0.3704
41951SOL    HW130791   2.475   9.946   0.075 -0.0857 -0.5150  0.1527
41951SOL    HW230792   2.456  10.020  -0.056  1.2922 -0.4654 -0.0335
41952SOL     OW30793   4.450   7.818   2.920 -0.1465  0.2803 -0.1037
41952SOL    HW130794   4.416   7.889   2.865 -1.6809 -2.0018 -2.3545
41952SOL    HW230795   4.372   7.781   2.962  0.5711 -0.3072  0.7403
41953SOL     OW30796   8.013   3.629   3.274  0.0205 -0.3459  0.1699
41953SOL    HW130797   8.005   3.568   3.200 -0.7153 -0.3482  0.2445
41953SOL    HW230798   8.040   3.574   3.347  0.5767 -0.3747 -0.0536
41954SOL     OW30799   8.970   5.429   4.474  0.7345  0.6462  0.6548
41954SOL    HW130800   8.931   5.385   4.550 -0.3679  1.6059  0.6721
41954SOL    HW230801   8.936   5.519   4.478  1.5780  1.0328 -0.3322
41955SOL     OW30802   3.893   8.082   5.751 -0.9722  0.2173  0.5327
41955SOL    HW130803   3.923   7.993   5.735  2.2711  1.1166  0.7016
41955SOL    HW230804   3.909   8.096   5.844  1.6293  1.8147 -0.0275
41956SOL     OW30805   5.434   7.588  10.417 -0.9062 -0.7348 -0.8331
41956SOL    HW130806   5.474   7.667  10.380 -1.6550 -0.7167 -1.6395
41956SOL    HW230807   5.350   7.581  10.373 -1.0560 -1.7275 -0.4178
41957SOL     OW30808   1.881   4.200   2.243 -0.0340 -0.1891 -0.3253
41957SOL    HW130809   1.810   4.144   2.212 -0.8383  1.5406 -1.7942
41957SOL    HW230810   1.888   4.269   2.177  1.2012  1.2028  1.1705
41958SOL     OW30811   7.283   9.628   9.141  0.1415  0.4789 -0.0902
41958SOL    HW130812   7.218   9.603   9.208  0.4223  2.6242  1.0791
41958SOL    HW230813   7.363   9.582   9.167 -0.2709 -0.3066 -0.1648
41959SOL     OW30814   3.567   0.150  11.228 -0.1047 -0.6188  0.0946
41959SOL    HW130815   3.514   0.230  11.236 -0.3575 -0.5786 -1.5486
41959SOL    HW230816   3.615   0.145  11.310 -3.4361 -1.2523  2.1906
41960SOL     OW30817  10.480   6.118   9.064  0.4281  0.0685 -0.2675
41960SOL    HW130818  10.394   6.160   9.070  0.6243  0.5039 -0.4496
41960SOL    HW230819  10.525   6.144   9.144  0.2139 -0.5728  0.0697
41961SOL     OW30820   4.895  10.676   3.937  0.1569 -0.3051 -0.0452
41961SOL    HW130821   4.886  10.766   3.906  0.9487  0.4974  1.9397
41961SOL    HW230822   4.969  10.641   3.888 -0.0143  0.1858 -0.6659
41962SOL     OW30823   8.956   4.955   0.960  0.1613  0.6191  0.6737
41962SOL    HW130824   8.946   4.993   0.873 -1.1913 -0.2810  0.4115
41962SOL    HW230825   8.978   4.863   0.944 -0.5067  0.3471  1.2659
41963SOL     OW30826  11.434   5.068   2.880 -0.0196 -0.0903 -0.3629
41963SOL    HW130827  11.489   5.054   2.957 -0.9967 -0.7227  0.2445
41963SOL    HW230828  11.453   4.994   2.823  0.2905  0.0795 -0.4824
41964SOL     OW30829   2.300   0.365   7.113  0.3721  0.7913  0.5195
41964SOL    HW130830   2.263   0.302   7.175  0.0930  0.3941 -0.0402
41964SOL    HW230831   2.322   0.312   7.036 -0.8039  1.5209 -0.3573
41965SOL     OW30832   3.595   7.579   8.550  0.2208 -0.2699  0.3495
41965SOL    HW130833   3.635   7.568   8.636  0.2750  0.9109  0.4896
41965SOL    HW230834   3.549   7.662   8.556  2.0897  0.9736 -1.4697
41966SOL     OW30835   3.911   5.413   7.927  0.3092  0.4271 -0.3317
41966SOL    HW130836   3.860   5.490   7.901 -2.0756 -1.2749 -1.0992
41966SOL    HW230837   3.937   5.373   7.844  1.1365  0.1563  0.0481
41967SOL     OW30838   8.930   5.718   4.387 -0.2777  0.0887 -0.3924
41967SOL    HW130839   8.871   5.791   4.403 -0.5641 -0.2691  0.2461
41967SOL    HW230840   8.945   5.719   4.293 -0.5594  0.7518 -0.4339
41968SOL     OW30841   7.628   8.777   8.890 -0.5057 -0.0551 -0.2232
41968SOL    HW130842   7.718   8.763   8.861  0.2171  0.4701  1.6278
41968SOL    HW230843   7.614   8.871   8.879 -1.0947 -0.2275 -1.1187
41969SOL     OW30844   7.832   5.355   6.196 -0.1730 -0.0470 -0.0005
41969SOL    HW130845   7.822   5.350   6.101 -0.2192 -1.0381  0.0425
41969SOL    HW230846   7.922   5.326   6.212  0.1754  1.1052  0.1910
41970SOL     OW30847   8.534   0.555   7.055  0.2052  1.0386 -0.2973
41970SOL    HW130848   8.449   0.597   7.065 -0.8860 -1.3384  1.0836
41970SOL    HW230849   8.586   0.589   7.128  0.0648  1.5420 -0.4240
41971SOL     OW30850   8.620   8.568   1.859 -0.3886 -0.3016 -0.1704
41971SOL    HW130851   8.663   8.554   1.944 -0.6500 -0.4014 -0.0494
41971SOL    HW230852   8.652   8.497   1.804  0.5720  0.3574 -0.4742
41972SOL     OW30853   0.215   1.230  11.554 -0.0598  0.1434 -0.0524
41972SOL    HW130854   0.268   1.151  11.567  3.6524  1.7799 -3.2419
41972SOL    HW230855   0.222   1.277  11.637 -0.6531 -1.8493  1.2047
41973SOL     OW30856  11.547  11.203   5.679 -0.5842 -0.8524  0.2001
41973SOL    HW130857  11.560  11.158   5.763 -3.2411 -1.9363  0.1323
41973SOL    HW230858  11.521  11.292   5.703  2.3887  0.0788  0.3707
41974SOL     OW30859   6.760   2.098   2.848 -0.4287  0.1447 -0.3361
41974SOL    HW130860   6.709   2.092   2.929 -1.1028  0.5640 -0.7170
41974SOL    HW230861   6.695   2.121   2.781  0.2467  0.5555 -0.8596
41975SOL     OW30862   7.770   5.008   5.175  0.0562  0.2754  0.2137
41975SOL    HW130863   7.811   4.934   5.219  0.9932 -0.2179 -1.3917
41975SOL    HW230864   7.827   5.082   5.194  0.1126  0.1969  0.3474
41976SOL     OW30865   8.464   8.401  10.324  0.3449 -0.1501 -0.3501
41976SOL    HW130866   8.415   8.353  10.257 -0.4361  1.7170 -1.1926
41976SOL    HW230867   8.441   8.357  10.406 -0.5947 -0.9980 -1.0360
41977SOL     OW30868   0.946   0.953   3.200 -0.1023 -0.5100  0.1373
41977SOL    HW130869   0.946   0.862   3.230 -0.1815 -0.8966 -0.9739
41977SOL    HW230870   1.024   0.992   3.239 -0.4359 -0.8668  1.1716
41978SOL     OW30871   0.229   2.132   2.158 -0.1005  0.6180  0.0688
41978SOL    HW130872   0.179   2.137   2.076  2.3600  2.0754 -1.4851
41978SOL    HW230873   0.316   2.103   2.131  0.7843  1.1140  2.1883
41979SOL     OW30874   6.630   8.392   1.251 -0.1467 -0.0494  0.1175
41979SOL    HW130875   6.590   8.423   1.332  0.3762  1.5262 -0.1693
41979SOL    HW230876   6.575   8.428   1.181  1.3225  1.6445 -0.2657
41980SOL     OW30877   2.424   4.181   9.816  0.4609 -0.1030 -0.5735
41980SOL    HW130878   2.462   4.248   9.871  0.0303 -0.5492  0.2906
41980SOL    HW230879   2.418   4.103   9.872 -0.0599 -0.5473 -1.2142
41981SOL     OW30880   3.534   3.041   5.660  0.3709 -0.1760  0.2872
41981SOL    HW130881   3.534   3.110   5.727 -2.0720  0.5647 -0.3574
41981SOL    HW230882   3.593   3.074   5.592 -0.6118  1.2540  0.0756
41982SOL     OW30883   4.230   4.646   4.659  0.6884 -0.6346 -0.3567
41982SOL    HW130884   4.160   4.706   4.634 -0.3819 -1.5926  0.1746
41982SOL    HW230885   4.309   4.680   4.617  0.4442  1.9511  1.0907
41983SOL     OW30886   8.552   0.334   1.849  0.1557  0.1838  0.8158
41983SOL    HW130887   8.619   0.378   1.900 -1.2463  1.6813  1.4553
41983SOL    HW230888   8.551   0.380   1.765 -0.4651  0.5797  1.0312
41984SOL     OW30889  11.134  11.379   0.143  0.3200  0.1420 -0.0088
41984SOL    HW130890  11.040  11.392   0.156 -0.5414 -2.5516 -2.3570
41984SOL    HW230891  11.140  11.324   0.065  3.8400 -0.6605  0.6358
41985SOL     OW30892   9.844  11.310   6.075 -0.1902 -0.2017  0.0305
41985SOL    HW130893   9.938  11.310   6.094 -0.3387  0.3323  0.8420
41985SOL    HW230894   9.836  11.273   5.987  0.7996 -0.0266 -0.1378
41986SOL     OW30895  11.552   7.576   6.298 -0.4221  0.2670 -0.0907
41986SOL    HW130896  11.564   7.482   6.291  3.4736  0.4993  1.1488
41986SOL    HW230897  11.572   7.609   6.211  0.6278  0.0510  0.0510
41987SOL     OW30898   8.120  10.299   8.553  0.4319  0.3410  0.2439
41987SOL    HW130899   8.173  10.260   8.622  0.8806  1.0019  0.2865
41987SOL    HW230900   8.129  10.239   8.479  1.0278  0.3023  0.3390
41988SOL     OW30901   5.344   2.414   1.718 -0.2158 -0.0585 -0.9376
41988SOL    HW130902   5.270   2.369   1.758 -0.5171  0.0930 -1.3171
41988SOL    HW230903   5.415   2.406   1.782 -0.4197 -0.6144 -0.7811
41989SOL     OW30904   1.644   2.965   6.571 -0.3843  0.5055  0.3276
41989SOL    HW130905   1.687   3.031   6.516  3.3669 -0.3540  1.9356
41989SOL    HW230906   1.561   3.005   6.595  1.1936  4.2464  0.3356
41990SOL     OW30907   0.074   8.419   8.953 -0.0149 -0.3685 -0.5049
41990SOL    HW130908   0.057   8.429   8.860  0.3727  2.3728 -0.3589
41990SOL    HW230909   0.070   8.508   8.988 -0.9016 -1.3879  2.2503
41991SOL     OW30910   1.299   2.267   3.424  0.0714 -0.1941 -0.2691
41991SOL    HW130911   1.204   2.283   3.419  0.0908  0.9104  1.8553
41991SOL    HW230912   1.337   2.354   3.435  1.5887 -0.3961 -3.1096
41992SOL     OW30913   7.553  11.336  10.202  0.5149  0.5712  0.1626
41992SOL    HW130914   7.581  11.245  10.200 -1.3736 -0.0415 -0.6210
41992SOL    HW230915   7.485  11.339  10.270 -1.6484  0.6360 -1.8719
41993SOL     OW30916   8.112   7.611   2.011 -0.6311 -0.7592  0.4047
41993SOL    HW130917   8.062   7.634   1.933 -0.4830 -0.2605  0.4540
41993SOL    HW230918   8.203   7.610   1.982 -0.5161  0.1170  0.7309
41994SOL     OW30919   9.101  10.558   5.198  0.3156 -0.3405 -0.5180
41994SOL    HW130920   9.009  10.533   5.191 -0.2040  0.8612  1.2527
41994SOL    HW230921   9.124  10.591   5.111 -0.9353 -0.6091 -0.9636
41995SOL     OW30922   8.269   6.077   7.095  0.2831  0.2034  0.0550
41995SOL    HW130923   8.363   6.092   7.086  0.6083 -1.1298  0.8732
41995SOL    HW230924   8.252   6.086   7.188 -0.3916  0.4057 -0.0846
41996SOL     OW30925   4.612   7.933   5.592  0.1501 -0.0661  0.1920
41996SOL    HW130926   4.635   7.992   5.521  0.8875  1.2748  1.5084
41996SOL    HW230927   4.519   7.949   5.608  0.4965  1.2835  0.9882
41997SOL     OW30928   9.719   7.277   1.571 -0.1181 -0.4527 -0.0590
41997SOL    HW130929   9.726   7.273   1.476  0.2040  1.0163 -0.1191
41997SOL    HW230930   9.799   7.322   1.599 -1.0377  0.7593  0.7345
41998SOL     OW30931   9.265   6.817   8.961 -0.2460 -0.1517 -0.0465
41998SOL    HW130932   9.188   6.761   8.970 -0.3847 -0.2373 -1.5602
41998SOL    HW230933   9.303   6.792   8.877  1.7754 -0.5007  0.9161
41999SOL     OW30934  10.552   5.256   1.190 -0.5835 -0.1060 -0.3523
41999SOL    HW130935  10.503   5.333   1.159 -0.6481 -0.9252 -2.4765
41999SOL    HW230936  10.513   5.236   1.275 -1.2156  1.6275 -0.1848
42000SOL     OW30937  10.105  10.891   5.316 -0.2392  0.0304  0.1149
42000SOL    HW130938  10.092  10.845   5.233  2.2261  0.2647 -0.4668
42000SOL    HW230939  10.107  10.822   5.382  4.0494 -0.9924 -0.8114
42001SOL     OW30940   5.528   2.321   3.997 -0.5736  0.1125  0.2709
42001SOL    HW130941   5.480   2.315   4.080 -1.4149 -1.5053 -0.2784
42001SOL    HW230942   5.610   2.276   4.014 -0.1837  0.9186  0.5747
42002SOL     OW30943   9.680  10.935   2.215 -0.5124 -0.0614 -0.4101
42002SOL    HW130944   9.659  10.906   2.304  1.1658  1.1441  0.4156
42002SOL    HW230945   9.644  11.024   2.209  1.0700  0.6147 -0.2342
42003SOL     OW30946   5.889   6.281   1.498 -0.2224  0.1485 -0.1467
42003SOL    HW130947   5.899   6.186   1.493  1.6108  0.2067  1.3091
42003SOL    HW230948   5.832   6.295   1.575  0.5331  0.2424  0.4064
42004SOL     OW30949   6.515  11.464   2.216  0.7990  0.2391 -0.1019
42004SOL    HW130950   6.562  11.404   2.159  0.1367  0.7632 -1.2337
42004SOL    HW230951   6.485  11.410   2.289  1.2071 -0.5556 -0.5142
42005SOL     OW30952   8.994   4.397   9.206 -0.3092 -0.6845  0.1117
42005SOL    HW130953   9.006   4.303   9.220 -0.2998 -0.8480 -0.9532
42005SOL    HW230954   9.075   4.437   9.239 -0.8344 -0.9074  1.7697
42006SOL     OW30955   0.470   0.301   7.736 -0.0900  0.3195 -0.6137
42006SOL    HW130956   0.539   0.329   7.796  1.3669 -1.2311 -1.4408
42006SOL    HW230957   0.480   0.359   7.660 -0.3039  0.6911 -0.3590
42007SOL     OW30958   3.443   0.819   8.655 -0.4553 -0.2565  0.0014
42007SOL    HW130959   3.485   0.905   8.647 -0.2495 -0.3392  0.1734
42007SOL    HW230960   3.407   0.802   8.569 -1.3931  0.4629  0.2352
42008SOL     OW30961  10.025  10.813   4.344 -0.0093  0.0376  0.5399
42008SOL    HW130962   9.958  10.793   4.279  0.1893  0.2012  0.2859
42008SOL    HW230963   9.977  10.853   4.417 -0.4017 -1.1954  0.9904
42009SOL     OW30964  10.839   6.754  10.299  0.6349 -0.0269  0.2309
42009SOL    HW130965  10.763   6.802  10.268  0.6655  0.6975  1.2062
42009SOL    HW230966  10.869   6.704  10.223  0.8546  1.8278 -0.9794
42010SOL     OW30967   6.538  10.672   7.894  0.4154 -0.1075  0.3747
42010SOL    HW130968   6.536  10.707   7.805 -0.8201 -2.5591 -0.6742
42010SOL    HW230969   6.492  10.737   7.947  1.9723  1.8285 -0.5364
42011SOL     OW30970  11.541   8.312   5.552 -0.1714 -0.0672  0.5963
42011SOL    HW130971  11.522   8.298   5.459  2.2059 -1.5497  0.2346
42011SOL    HW230972  11.513   8.402   5.569 -0.2363  0.4041 -1.6781
42012SOL     OW30973   4.743   2.101  11.655 -0.0627  0.0396 -0.2393
42012SOL    HW130974   4.683   2.060  11.592  0.6660 -0.9005 -0.3306
42012SOL    HW230975   4.688   2.163  11.703 -0.7263  0.4999 -1.5309
42013SOL     OW30976  11.074   8.030   7.317  0.1357 -0.3936 -0.2779
42013SOL    HW130977  11.079   7.941   7.281  1.7074 -0.9444  1.1570
42013SOL    HW230978  11.089   8.019   7.410 -3.0197  1.0803  0.5414
42014SOL     OW30979   7.976   6.685  11.370 -0.3451  0.0111 -0.0048
42014SOL    HW130980   8.029   6.618  11.414 -1.5502  0.1630  1.8184
42014SOL    HW230981   7.886   6.655  11.381 -0.8229  1.2642 -0.3394
42015SOL     OW30982   7.454   4.931   4.839 -0.0908 -0.0454 -0.0840
42015SOL    HW130983   7.415   4.890   4.762 -2.0772  0.1162  0.7834
42015SOL    HW230984   7.409   4.893   4.913 -1.6395  3.1430  0.8034
42016SOL     OW30985   7.784  11.173  10.708  0.0765 -0.4984  0.1375
42016SOL    HW130986   7.831  11.115  10.769 -0.2810  0.7121  1.6175
42016SOL    HW230987   7.807  11.139  10.621  2.5962 -0.7926  0.8359
42017SOL     OW30988   2.819   4.907  10.683  0.4370  0.0774  0.0030
42017SOL    HW130989   2.888   4.948  10.736  1.8115 -0.6014 -1.1990
42017SOL    HW230990   2.751   4.975  10.676  2.4986  2.1483 -1.6640
42018SOL     OW30991   8.972   6.992   9.925 -0.1200 -0.0144 -0.3761
42018SOL    HW130992   9.059   7.017   9.955 -0.2657  0.8648 -0.6758
42018SOL    HW230993   8.954   6.909   9.971  0.4919  0.2654  0.3882
42019SOL     OW30994  11.129   6.723  11.625  0.3597  0.2743 -0.1799
42019SOL    HW130995  11.124   6.676  11.542 -2.8904 -0.7920  0.4651
42019SOL    HW230996  11.218   6.708  11.656  0.6382 -2.2110 -1.8851
42020SOL     OW30997  11.000   5.475   1.455  0.3635  0.3637  0.2495
42020SOL    HW130998  11.018   5.549   1.398 -0.2760  0.9325  0.7663
42020SOL    HW230999  11.073   5.415   1.440  1.3405  1.4666  0.4319
42021SOL     OW31000   5.367   9.245   7.000  0.2327  0.5064 -0.2532
42021SOL    HW131001   5.341   9.247   6.907  0.1639 -1.2578 -0.2985
42021SOL    HW231002   5.412   9.328   7.013  0.4761  0.6859 -1.9454
42022SOL     OW31003   0.415   5.113   9.701  0.1879  0.4628 -0.1769
42022SOL    HW131004   0.346   5.164   9.744  1.0758 -0.0029  1.9205
42022SOL    HW231005   0.462   5.071   9.773  3.4546  1.7098 -1.4258
42023SOL     OW31006  10.086   2.439   5.921  0.1432 -0.2704 -0.5289
42023SOL    HW131007  10.180   2.431   5.937 -0.2006 -1.2032  1.2548
42023SOL    HW231008  10.048   2.449   6.009 -1.5236 -1.0941 -1.1304
42024SOL     OW31009   8.566   9.936   2.498 -0.1728  0.2194  0.0614
42024SOL    HW131010   8.534   9.912   2.411  0.6967  0.2908 -0.2892
42024SOL    HW231011   8.629   9.867   2.521 -1.7373 -0.8377  1.4616
42025SOL     OW31012   8.126   4.356  11.070  0.1182  0.3757  0.8247
42025SOL    HW131013   8.180   4.281  11.044 -2.1729 -0.8531 -0.7022
42025SOL    HW231014   8.164   4.430  11.024  0.3107 -0.5227 -0.5131
42026SOL     OW31015   7.196   4.216   6.388  1.0077  0.0580 -0.3485
42026SOL    HW131016   7.258   4.143   6.390  1.7818  0.7010  1.0663
42026SOL    HW231017   7.250   4.294   6.404 -0.1040  0.6721  0.5878
42027SOL     OW31018   3.303   9.596   3.551  0.0284  0.1326 -0.1644
42027SOL    HW131019   3.325   9.528   3.487 -2.1311  0.0966 -0.9660
42027SOL    HW231020   3.388   9.624   3.586  1.4887  0.8089 -3.7335
42028SOL     OW31021   0.935   9.966   2.351  0.1583 -0.1265 -0.2404
42028SOL    HW131022   0.898  10.016   2.424 -1.3576 -0.6112 -0.6374
42028SOL    HW231023   0.923   9.874   2.376  2.0203 -0.3391  0.0362
42029SOL     OW31024   4.427   6.685   4.820 -0.2073 -0.0615  0.4494
42029SOL    HW131025   4.386   6.645   4.744  1.4423 -0.0627 -0.4958
42029SOL    HW231026   4.415   6.622   4.890 -1.7274 -0.0726  0.2057
42030SOL     OW31027   2.662   2.490   9.205 -0.3617  0.0123 -0.3815
42030SOL    HW131028   2.745   2.530   9.233 -0.6436  0.7589 -0.6011
42030SOL    HW231029   2.678   2.462   9.115 -0.7192  1.2679 -0.8561
42031SOL     OW31030   8.755  11.597   9.034  0.8523  0.1961  0.1006
42031SOL    HW131031   8.771  11.651   9.111  0.4740 -1.4706  1.4019
42031SOL    HW231032   8.842  11.567   9.007  1.0390  1.2130 -0.4845
42032SOL     OW31033   2.299   4.581   7.842  0.0909 -0.8354 -0.6542
42032SOL    HW131034   2.276   4.651   7.903 -1.3255 -0.0053 -2.0562
42032SOL    HW231035   2.383   4.549   7.873 -0.7382 -0.7297  1.9594
42033SOL     OW31036  10.083   1.722   6.121 -0.1029  0.0902  0.7880
42033SOL    HW131037  10.026   1.657   6.162 -0.2636 -0.2477  0.0551
42033SOL    HW231038  10.169   1.706   6.159 -0.2553 -0.1802  1.0210
42034SOL     OW31039   8.032   7.545   8.716 -0.4500 -0.3566 -0.5523
42034SOL    HW131040   8.103   7.609   8.720 -0.7626 -0.0317 -0.1402
42034SOL    HW231041   8.003   7.547   8.625 -0.9418  0.6257 -0.3859
42035SOL     OW31042   2.530   4.126   2.684 -0.4029  0.0755 -0.2489
42035SOL    HW131043   2.459   4.074   2.721 -0.4651  1.0900  1.1289
42035SOL    HW231044   2.524   4.111   2.590 -1.5265 -0.9866 -0.0366
42036SOL     OW31045   9.216   2.170   5.828 -0.4549  0.1488 -0.4296
42036SOL    HW131046   9.134   2.218   5.842 -1.1665 -0.5045 -2.0601
42036SOL    HW231047   9.190   2.078   5.828  0.6206 -0.1825  0.9496
42037SOL     OW31048   2.001   9.688   2.491  0.0345 -0.1667  0.0775
42037SOL    HW131049   2.065   9.654   2.428  0.0229 -0.2728  0.1239
42037SOL    HW231050   2.055   9.733   2.556  0.1186 -0.9407  0.5484
42038SOL     OW31051   9.914   0.730   0.445 -0.4111 -0.2942 -0.3912
42038SOL    HW131052   9.882   0.820   0.437  0.1444 -0.1351 -0.8601
42038SOL    HW231053   9.898   0.691   0.359 -1.1575 -0.8204 -0.0286
42039SOL     OW31054   5.082   2.286   6.065 -0.5946  0.3078  0.9909
42039SOL    HW131055   5.167   2.249   6.042 -2.5688 -3.3038 -1.4931
42039SOL    HW231056   5.055   2.239   6.143 -1.2484 -0.3395  0.3943
42040SOL     OW31057   4.060   1.503   5.361  0.6394 -0.1880 -0.4734
42040SOL    HW131058   4.073   1.564   5.288  1.5807 -0.1956 -0.3168
42040SOL    HW231059   4.138   1.447   5.360  0.4820 -0.4316  0.3099
42041SOL     OW31060   1.354   9.800   4.337 -0.3462 -0.2512  0.5311
42041SOL    HW131061   1.293   9.831   4.404 -0.7442  2.2937 -0.9059
42041SOL    HW231062   1.437   9.844   4.358 -0.7748  1.5369 -1.2273
42042SOL     OW31063   3.803   0.390   3.941 -0.4641  0.2588  0.0594
42042SOL    HW131064   3.842   0.346   3.865  0.7606  1.3031  0.0534
42042SOL    HW231065   3.842   0.345   4.017 -0.0887  0.5708  0.0550
42043SOL     OW31066   2.767   6.601   5.410 -0.8510  0.0018 -0.2320
42043SOL    HW131067   2.743   6.526   5.464 -0.5705 -0.2585 -0.4676
42043SOL    HW231068   2.727   6.676   5.454  1.5294  0.1899  1.8512
42044SOL     OW31069   4.756   5.467   0.448  0.4137 -0.0042 -0.7096
42044SOL    HW131070   4.806   5.488   0.527 -0.6758  1.2882 -0.3238
42044SOL    HW231071   4.790   5.525   0.381  0.0726  0.2276 -0.6871
42045SOL     OW31072  11.366   3.687   3.232  0.0854 -0.3417 -0.0816
42045SOL    HW131073  11.325   3.680   3.146  0.8747 -0.3095 -0.4684
42045SOL    HW231074  11.300   3.731   3.286  0.1909  1.1651 -1.0988
42046SOL     OW31075  10.317   9.678   7.534 -0.1919  0.0397  0.5616
42046SOL    HW131076  10.376   9.647   7.603  0.0509 -0.7353  0.0189
42046SOL    HW231077  10.356   9.645   7.453  1.0050  3.1029 -0.2626
42047SOL     OW31078   2.553   6.250   7.138  0.4031 -0.1413  0.1065
42047SOL    HW131079   2.480   6.233   7.197  0.0858 -0.5152 -0.3852
42047SOL    HW231080   2.528   6.330   7.091  0.6576  0.1587  0.4818
42048SOL     OW31081   7.901   4.790   6.128  0.1958  0.5955 -0.3281
42048SOL    HW131082   7.956   4.722   6.089  0.0130  0.6090 -0.6177
42048SOL    HW231083   7.811   4.759   6.115  0.1367  0.5552  0.1765
42049SOL     OW31084  11.543   7.795   5.904  0.7903  0.2063  0.0125
42049SOL    HW131085  11.461   7.801   5.856 -0.8272 -0.9222  2.3990
42049SOL    HW231086  11.554   7.882   5.944 -0.1855 -0.0859  0.9853
42050SOL     OW31087   3.282   2.149   2.585 -0.1547 -0.1931  0.1770
42050SOL    HW131088   3.207   2.204   2.561 -0.6586 -1.3643 -1.0184
42050SOL    HW231089   3.256   2.060   2.559  0.6908 -1.0074  1.9314
42051SOL     OW31090  10.017   8.113   9.941  0.7106 -0.0484  0.6955
42051SOL    HW131091  10.093   8.062   9.912  1.8280  1.7625  0.2788
42051SOL    HW231092   9.969   8.133   9.860  0.5983  0.0477  0.7850
42052SOL     OW31093  11.653  11.471   6.418  0.1741 -0.2322 -0.7794
42052SOL    HW131094  11.647  11.377   6.397 -0.8318 -0.4145  0.2104
42052SOL    HW231095  11.570  11.491   6.461  0.9471  0.7762  0.3171
42053SOL     OW31096  10.050   2.032   2.193  0.4306 -0.0950 -0.0051
42053SOL    HW131097  10.145   2.029   2.210  0.5916 -0.7526 -0.9575
42053SOL    HW231098  10.041   2.001   2.103 -0.8288 -1.3572  0.5340
42054SOL     OW31099   8.632   7.929   2.151  0.2295 -0.3039 -0.1739
42054SOL    HW131100   8.573   7.874   2.099  0.9920 -1.2828 -0.0271
42054SOL    HW231101   8.646   7.879   2.232 -2.3093  1.9360  1.8292
42055SOL     OW31102   9.755   3.626   2.000 -0.4287 -0.1766 -0.3495
42055SOL    HW131103   9.787   3.715   1.985 -0.1659 -0.2905 -0.4667
42055SOL    HW231104   9.744   3.620   2.095  1.1877 -0.5751 -0.1698
42056SOL     OW31105   8.006   3.998   5.547 -0.7242  0.4680  0.2578
42056SOL    HW131106   7.938   3.944   5.586 -0.8119  0.9754  0.8199
42056SOL    HW231107   7.975   4.088   5.558 -0.4809  0.6486 -0.4729
42057SOL     OW31108   1.478  10.256   4.244  0.2065 -0.0928 -0.3154
42057SOL    HW131109   1.553  10.315   4.245  0.5420 -0.5152 -0.6255
42057SOL    HW231110   1.506  10.182   4.191 -0.1958 -0.5586  0.1112
42058SOL     OW31111   9.036   8.404   7.029 -0.4647 -0.5518  0.4114
42058SOL    HW131112   9.118   8.402   6.980 -0.2243 -0.3542  0.8053
42058SOL    HW231113   9.025   8.496   7.053 -2.0220 -0.0966 -1.6929
42059SOL     OW31114   2.171   0.120  11.473  0.0736 -0.2632  0.1241
42059SOL    HW131115   2.156   0.069  11.393  0.2461  0.7201 -0.5590
42059SOL    HW231116   2.146   0.210  11.449  0.6645  0.1486  1.0006
42060SOL     OW31117   1.085   9.388   1.144 -0.1804  0.5645  0.1192
42060SOL    HW131118   1.169   9.433   1.153 -1.4191  3.1171 -0.2306
42060SOL    HW231119   1.031   9.448   1.093 -2.4081 -0.7405  0.8097
42061SOL     OW31120   6.842   6.190   5.666 -0.2893 -0.2843 -0.3199
42061SOL    HW131121   6.829   6.254   5.597  0.0695 -0.4856 -0.5808
42061SOL    HW231122   6.857   6.107   5.619  0.7383 -0.2789 -0.0327
42062SOL     OW31123  10.882   5.654   2.196  0.3188  0.7364  0.0521
42062SOL    HW131124  10.810   5.624   2.251  0.2922 -0.2719 -0.5025
42062SOL    HW231125  10.865   5.613   2.111  0.6329  1.8430 -0.5599
42063SOL     OW31126  11.175   9.982   7.509 -0.1597  0.0403 -0.5836
42063SOL    HW131127  11.220   9.916   7.457  1.3370  0.5990 -0.0690
42063SOL    HW231128  11.185   9.951   7.600 -1.8931 -0.4359 -0.5355
42064SOL     OW31129   7.022  10.142   8.289  0.2239 -0.5492  0.0949
42064SOL    HW131130   7.080  10.181   8.223  0.6918  1.0440  1.3609
42064SOL    HW231131   6.934  10.164   8.259  0.4681  1.9842  0.9382
42065SOL     OW31132   6.300   1.621   0.323  0.4337 -0.0184 -0.3556
42065SOL    HW131133   6.335   1.613   0.412 -0.1227 -1.9164 -0.2502
42065SOL    HW231134   6.205   1.620   0.335  0.3611  0.0968 -0.9332
42066SOL     OW31135   2.191  10.797   2.549  0.4462 -0.3628 -0.2977
42066SOL    HW131136   2.225  10.864   2.609  1.2992  0.5472 -1.7327
42066SOL    HW231137   2.227  10.715   2.582 -1.8788 -0.4559  2.4405
42067SOL     OW31138   2.014   7.328   8.434 -0.3360 -0.1814 -0.2696
42067SOL    HW131139   2.047   7.393   8.372 -0.4568  0.0156 -0.1242
42067SOL    HW231140   2.086   7.264   8.441  0.7187  1.1059  1.3350
42068SOL     OW31141   4.847   3.729   7.439 -0.3749 -0.3632  0.0929
42068SOL    HW131142   4.835   3.634   7.442 -0.1699 -0.3613  1.4895
42068SOL    HW231143   4.874   3.747   7.349 -1.4242 -1.4977 -0.4810
42069SOL     OW31144   3.572   0.831  10.957 -0.3603  0.5946  0.1742
42069SOL    HW131145   3.538   0.885  11.029  0.7927  2.1535 -0.4107
42069SOL    HW231146   3.578   0.743  10.994 -0.5678  1.2090  1.7325
42070SOL     OW31147   8.787   0.244   0.741  0.1972  0.4325 -0.1331
42070SOL    HW131148   8.719   0.270   0.680 -0.6448 -1.4781 -0.0622
42070SOL    HW231149   8.868   0.249   0.690 -0.4293 -0.6299 -1.2668
42071SOL     OW31150   7.858  11.232   8.799 -0.1063 -0.2777  0.0894
42071SOL    HW131151   7.828  11.197   8.883 -0.3772 -2.7046 -0.9249
42071SOL    HW231152   7.785  11.218   8.739  0.7743 -0.4327 -0.9872
42072SOL     OW31153   7.258   3.780   9.125  0.2771  0.0535 -0.3201
42072SOL    HW131154   7.321   3.777   9.053  1.1900  0.0712  0.4748
42072SOL    HW231155   7.187   3.835   9.091  1.0858  0.7606 -0.9057
42073SOL     OW31156   7.528   9.031   8.818  0.5946 -0.3350  0.0917
42073SOL    HW131157   7.457   8.981   8.778  0.2809  0.4667 -0.3711
42073SOL    HW231158   7.498   9.047   8.908  0.9790 -1.5053  0.4548
42074SOL     OW31159   0.307  10.272   1.599  0.1758 -0.1157  0.6023
42074SOL    HW131160   0.338  10.252   1.511  1.7569 -1.7224  1.4609
42074SOL    HW231161   0.378  10.321   1.639 -0.7053  0.9838  0.8937
42075SOL     OW31162  10.927  11.187   6.837 -0.4390 -0.4423  0.3370
42075SOL    HW131163  10.843  11.227   6.860 -0.7827 -0.9231 -0.0552
42075SOL    HW231164  10.990  11.259   6.840 -1.1131  0.2207 -0.7599
42076SOL     OW31165   2.773   1.851   1.558 -0.5576  0.0831  0.3564
42076SOL    HW131166   2.848   1.886   1.605 -1.8828  2.6204  0.8065
42076SOL    HW231167   2.771   1.901   1.476 -0.6015 -1.4361 -0.6165
42077SOL     OW31168  10.802  10.295   9.895  0.6940  0.0506 -0.1118
42077SOL    HW131169  10.828  10.203   9.903 -0.8689 -0.3262  1.1758
42077SOL    HW231170  10.877  10.337   9.853  0.8448 -2.0746 -2.2043
42078SOL     OW31171   5.599   5.216  10.158 -0.0291  0.1208 -0.6081
42078SOL    HW131172   5.575   5.136  10.111  0.6483 -0.5857  0.2096
42078SOL    HW231173   5.681   5.194  10.202  1.4285  2.0304 -2.2447
42079SOL     OW31174   3.072   3.094   0.922  0.2993 -0.0237 -0.6556
42079SOL    HW131175   3.080   3.033   0.848 -1.0475  0.1299 -0.9512
42079SOL    HW231176   3.055   3.179   0.881 -1.8367 -0.1644 -0.1931
42080SOL     OW31177  10.818   3.032   1.529  0.2186 -0.9540 -0.1102
42080SOL    HW131178  10.862   3.057   1.448  0.1565 -1.1008 -0.1908
42080SOL    HW231179  10.757   2.964   1.503  0.1727 -0.9782  0.0548
42081SOL     OW31180   7.169  10.109   4.774  0.6090  0.4150  0.4149
42081SOL    HW131181   7.100  10.100   4.709  0.6867 -0.1742  0.4094
42081SOL    HW231182   7.200  10.199   4.764  1.1568  0.1023 -0.8901
42082SOL     OW31183   4.947   5.122  10.921  0.1873  0.0238 -0.2748
42082SOL    HW131184   5.013   5.172  10.968 -1.6534  0.4222  2.0513
42082SOL    HW231185   4.925   5.050  10.980 -2.7176  0.9422 -0.0861
42083SOL     OW31186   2.880   8.380   1.321  0.7359 -0.1454  0.5475
42083SOL    HW131187   2.962   8.429   1.325  0.5622  0.2513 -0.5057
42083SOL    HW231188   2.826   8.419   1.390  1.8756 -1.3023  2.1592
42084SOL     OW31189   5.448   5.731   9.749 -0.2022  0.2133 -0.1004
42084SOL    HW131190   5.409   5.772   9.672 -1.0414  0.0019  0.2061
42084SOL    HW231191   5.422   5.788   9.822  0.7543  0.5249  0.0178
42085SOL     OW31192   7.062  10.569   4.540  0.3647  0.2288 -0.6100
42085SOL    HW131193   7.149  10.564   4.502  0.8046  1.6724  0.1321
42085SOL    HW231194   7.004  10.587   4.466  0.5977 -1.2519 -1.1822
42086SOL     OW31195   7.874   0.952   1.173  0.0276 -0.2539  0.0624
42086SOL    HW131196   7.842   0.869   1.138  0.8630  0.1366 -1.7618
42086SOL    HW231197   7.922   0.928   1.252  0.6734 -1.5871 -0.6946
42087SOL     OW31198   0.026   0.400   9.860  0.1175 -0.1685  0.3704
42087SOL    HW131199   0.074   0.319   9.843 -0.3357 -0.5304  0.7949
42087SOL    HW231200  -0.042   0.376   9.923 -0.4681  0.3862 -0.0300
42088SOL     OW31201   5.851   8.736   9.567  0.1291 -0.1838  0.1587
42088SOL    HW131202   5.939   8.765   9.544 -0.2014  0.6685 -0.0706
42088SOL    HW231203   5.862   8.692   9.652  0.5937  0.9720  0.7239
42089SOL     OW31204   5.053   0.804   1.287  0.1198  0.4249  0.3861
42089SOL    HW131205   5.053   0.749   1.209 -2.5324  0.3330  0.3569
42089SOL    HW231206   5.115   0.875   1.267  1.4061 -0.9471 -0.7146
42090SOL     OW31207   2.550   9.645   6.853  0.0337  0.3789  0.1547
42090SOL    HW131208   2.462   9.640   6.816  0.2545  0.7821 -0.4316
42090SOL    HW231209   2.569   9.738   6.860  0.4282  0.2956  0.2433
42091SOL     OW31210   9.496   7.126   3.782  0.1526  0.5922 -0.6448
42091SOL    HW131211   9.557   7.055   3.802 -0.5123 -0.3434 -1.7822
42091SOL    HW231212   9.470   7.110   3.691 -0.3889  2.0201 -0.7661
42092SOL     OW31213   4.371   7.376   3.045  0.4526 -0.2917 -0.0215
42092SOL    HW131214   4.392   7.283   3.055  1.7820 -0.0124 -0.0270
42092SOL    HW231215   4.339   7.403   3.131  0.2168 -0.7183  0.0263
42093SOL     OW31216   7.411   2.057   7.314  0.5649  0.0559  0.4537
42093SOL    HW131217   7.389   1.995   7.384 -0.7613  0.8656  0.7982
42093SOL    HW231218   7.336   2.116   7.310 -1.0965 -1.9140 -3.9292
42094SOL     OW31219   6.920   7.858  11.164  0.4959  0.0944 -0.0479
42094SOL    HW131220   6.912   7.783  11.105  0.7399  0.7117 -0.8663
42094SOL    HW231221   6.844   7.849  11.223  1.0880 -1.3690  0.5524
42095SOL     OW31222  10.121   1.502   1.471 -0.3219 -0.2353 -0.4408
42095SOL    HW131223  10.141   1.495   1.378  0.0865  0.3925 -0.4046
42095SOL    HW231224  10.181   1.569   1.504 -0.0135 -0.9081  0.4104
42096SOL     OW31225   9.806   5.899   4.504 -0.2488 -0.4802  0.7395
42096SOL    HW131226   9.840   5.985   4.526  1.7065 -1.6912  2.8761
42096SOL    HW231227   9.711   5.912   4.495  0.1638  2.1630 -0.7935
42097SOL     OW31228   7.693   6.732   9.500  0.8201  0.2870  0.6392
42097SOL    HW131229   7.744   6.718   9.420 -1.1527  0.3671 -0.7095
42097SOL    HW231230   7.660   6.821   9.492 -2.0718 -0.7428 -0.1556
42098SOL     OW31231   2.301   5.511   4.659 -0.3976  0.0565 -0.0497
42098SOL    HW131232   2.374   5.450   4.661  0.2262  0.7242 -1.1972
42098SOL    HW231233   2.285   5.534   4.751  1.0867  0.1988  0.1843
42099SOL     OW31234   7.366   5.659   1.730  0.4515  0.1189  0.0273
42099SOL    HW131235   7.443   5.607   1.751  1.7377  1.4738 -1.0675
42099SOL    HW231236   7.368   5.669   1.635 -2.8965 -2.4193 -0.5068
42100SOL     OW31237   0.698   4.012   1.666  0.4871 -0.6517 -0.4029
42100SOL    HW131238   0.727   4.052   1.585  1.4194  1.9906  1.1152
42100SOL    HW231239   0.607   3.987   1.650  0.3111  0.8196 -1.9283
42101SOL     OW31240   1.750   4.923   8.475  0.5800 -0.3525 -0.3828
42101SOL    HW131241   1.656   4.909   8.469  0.4916  0.6193 -1.6529
42101SOL    HW231242   1.768   4.925   8.569 -1.1062  2.1323 -0.0264
42102SOL     OW31243   8.940  11.213   3.040 -0.2029 -0.2766 -0.2504
42102SOL    HW131244   8.844  11.215   3.036 -0.3206 -2.3934 -0.0692
42102SOL    HW231245   8.965  11.146   2.976  1.3775  2.0291 -2.1772
42103SOL     OW31246   1.481   8.191   8.498 -0.2854  0.1899 -0.4544
42103SOL    HW131247   1.480   8.157   8.588  0.7295  0.2734 -0.3968
42103SOL    HW231248   1.546   8.260   8.500 -0.0253 -0.0217 -1.3340
42104SOL     OW31249  10.644   0.079  10.468 -0.2834  0.3667  0.1464
42104SOL    HW131250  10.643   0.100  10.375 -0.5225  1.6501  0.4193
42104SOL    HW231251  10.555   0.094  10.498  0.3630  2.8070  1.1341
42105SOL     OW31252   2.132   8.990   2.467  0.4939  0.4164 -0.1906
42105SOL    HW131253   2.127   9.063   2.406  0.4111  1.1247  0.6301
42105SOL    HW231254   2.213   9.006   2.516  1.3973 -1.0101 -1.1659
42106SOL     OW31255   3.566   2.819   0.186  0.0906  0.5290 -0.2388
42106SOL    HW131256   3.578   2.757   0.258  0.1303  0.7553 -0.0462
42106SOL    HW231257   3.606   2.777   0.110  0.8782  0.6737  0.0794
42107SOL     OW31258   7.741   8.051   7.190 -0.0087  1.0877 -0.1827
42107SOL    HW131259   7.694   7.996   7.253 -1.1126  1.9534 -0.2267
42107SOL    HW231260   7.798   8.105   7.245 -0.8572  1.7330  0.0833
42108SOL     OW31261   6.191   7.867   3.205  0.1661 -0.0550 -0.3054
42108SOL    HW131262   6.234   7.944   3.169 -1.3484  1.3553  0.7475
42108SOL    HW231263   6.261   7.818   3.248  1.0968  0.9192 -0.6773
42109SOL     OW31264   5.690   5.430   8.240  0.0043  0.1026  0.1204
42109SOL    HW131265   5.638   5.497   8.195 -1.0254  1.4751  3.1034
42109SOL    HW231266   5.630   5.355   8.248 -0.8306  0.8819  1.5959
42110SOL     OW31267   7.899   0.735   5.610  0.2914 -0.5833  0.3744
42110SOL    HW131268   7.960   0.804   5.637 -0.0151 -0.8489  1.8252
42110SOL    HW231269   7.906   0.669   5.679 -0.2587 -1.4814 -0.4125
42111SOL     OW31270   5.218   4.350   3.062  0.8051  0.8224  0.0580
42111SOL    HW131271   5.171   4.377   3.140 -1.1755  1.3471 -1.2354
42111SOL    HW231272   5.248   4.431   3.022 -1.9667  0.9986 -1.9167
42112SOL     OW31273   4.726   1.977   5.231  0.2325  0.2548  0.1074
42112SOL    HW131274   4.776   1.933   5.300 -1.5078 -0.6834  0.8342
42112SOL    HW231275   4.673   2.042   5.277  0.4675  0.9759 -0.6023
42113SOL     OW31276   1.243   6.869  10.733  0.3457  0.2631 -0.0120
42113SOL    HW131277   1.180   6.798  10.747 -1.7570  2.2183  1.3028
42113SOL    HW231278   1.328   6.831  10.755 -0.8079 -1.6124  1.5061
42114SOL     OW31279   9.129   9.554   9.454  0.2525  0.3914  0.2877
42114SOL    HW131280   9.087   9.534   9.538  0.1628 -0.7977 -0.0196
42114SOL    HW231281   9.113   9.647   9.440 -1.2828  0.2208  0.7424
42115SOL     OW31282  11.090   3.202   6.613 -0.3543 -0.2475  0.5840
42115SOL    HW131283  11.169   3.179   6.661  0.2054  1.4965  0.5726
42115SOL    HW231284  11.052   3.275   6.662  0.2496  1.6371 -1.5497
42116SOL     OW31285   4.176   1.784   3.247  0.2276  0.2323 -0.0967
42116SOL    HW131286   4.119   1.818   3.316 -1.3848  1.3802 -1.9112
42116SOL    HW231287   4.124   1.718   3.202  1.0758 -0.1495 -0.5548
42117SOL     OW31288  10.090   2.748   3.764 -0.7794  0.2119  0.2895
42117SOL    HW131289  10.135   2.729   3.682 -0.7490 -1.2916  0.6303
42117SOL    HW231290  10.160   2.765   3.827 -0.7438 -0.3152  0.3937
42118SOL     OW31291   2.045   2.030  10.855  0.9068  0.3057  0.3906
42118SOL    HW131292   1.969   2.026  10.913  0.5630 -1.0214 -0.1345
42118SOL    HW231293   2.048   2.122  10.826  0.0192  0.5629  1.0696
42119SOL     OW31294   2.342   2.066   9.673 -0.4721 -0.3175 -0.9222
42119SOL    HW131295   2.317   1.989   9.620 -3.2132  0.2949 -0.6955
42119SOL    HW231296   2.283   2.135   9.643  1.2680  1.4706 -0.4245
42120SOL     OW31297  11.427   7.831   1.435 -0.1591 -0.4842  0.0804
42120SOL    HW131298  11.422   7.908   1.378 -0.2424  0.2535  1.0585
42120SOL    HW231299  11.503   7.848   1.491  0.6554 -1.7525 -0.5726
42121SOL     OW31300  11.309  10.015   3.895  0.0923  0.1148 -0.1471
42121SOL    HW131301  11.252  10.065   3.837 -0.5618  1.4888  1.6066
42121SOL    HW231302  11.252   9.947   3.931  0.4140 -0.5292 -0.8221
42122SOL     OW31303   3.625   4.670   0.609 -0.7905 -0.3323  0.2595
42122SOL    HW131304   3.560   4.629   0.552  1.3862 -1.8645 -1.2812
42122SOL    HW231305   3.640   4.605   0.678  0.1649 -0.6691 -0.2491
42123SOL     OW31306  10.336   6.471   9.610 -0.0367  0.2372  0.2759
42123SOL    HW131307  10.344   6.376   9.594 -0.5135  0.2214  0.1132
42123SOL    HW231308  10.334   6.509   9.522  0.8835  0.4690  0.3417
42124SOL     OW31309  10.156   3.640   5.806 -0.3969  0.1340 -0.1583
42124SOL    HW131310  10.223   3.692   5.761 -0.4812 -0.5115 -1.0498
42124SOL    HW231311  10.074   3.663   5.761 -0.8787  1.2452  1.1999
42125SOL     OW31312   2.106   0.892   1.090 -0.2125  0.5900  0.2887
42125SOL    HW131313   2.116   0.818   1.029 -1.0725  0.3567  0.4163
42125SOL    HW231314   2.036   0.945   1.053 -1.4411 -0.0683  1.5371
42126SOL     OW31315   9.037   8.732   2.850 -0.0571  0.3125  0.5725
42126SOL    HW131316   8.977   8.662   2.877 -0.0011 -0.3097 -0.8366
42126SOL    HW231317   9.001   8.811   2.891 -0.1019 -0.5179  2.2264
42127SOL     OW31318  11.561   6.894   4.746  0.5608  0.1290  0.4126
42127SOL    HW131319  11.642   6.852   4.719 -1.0782 -2.8359 -0.2872
42127SOL    HW231320  11.532   6.942   4.669  0.3644 -0.9498 -0.1976
42128SOL     OW31321   6.982  11.322  11.502 -0.1381 -0.3529  0.4491
42128SOL    HW131322   6.902  11.306  11.553 -0.2480  0.4756  0.5532
42128SOL    HW231323   7.047  11.262  11.539 -0.6270 -0.8097  0.5755
42129SOL     OW31324   0.038   3.016   8.498  0.5787  0.1186 -0.2116
42129SOL    HW131325   0.102   2.986   8.434  0.8758  0.0619  0.1074
42129SOL    HW231326  -0.028   3.062   8.446  0.2146 -0.9242 -0.6880
42130SOL     OW31327   4.535   2.684   1.028  0.4430 -0.0657 -0.1425
42130SOL    HW131328   4.563   2.758   1.082 -0.6381  1.3812 -1.4931
42130SOL    HW231329   4.527   2.611   1.090  1.0954  1.0341  1.2991
42131SOL     OW31330   1.298   6.737   2.094  0.1323  0.1141  0.8991
42131SOL    HW131331   1.319   6.783   2.013  2.6992  0.1026  1.4584
42131SOL    HW231332   1.330   6.795   2.163 -0.4712 -0.6244  1.8223
42132SOL     OW31333   3.066  11.327   1.174  0.0224  0.1155 -0.0184
42132SOL    HW131334   3.071  11.293   1.264  1.2534 -0.6383 -0.3424
42132SOL    HW231335   3.092  11.253   1.119 -0.6751  0.5801 -1.0035
42133SOL     OW31336   6.272   7.039   0.942  0.0255 -0.0003  0.3055
42133SOL    HW131337   6.191   7.033   0.992 -0.2040 -0.1065 -0.0730
42133SOL    HW231338   6.259   6.979   0.868  0.8345 -0.7815  0.7717
42134SOL     OW31339   5.580   7.766   9.336  0.2243  0.1256  0.0581
42134SOL    HW131340   5.610   7.834   9.397 -2.1293  2.7242 -1.4119
42134SOL    HW231341   5.628   7.782   9.256 -0.8276  0.5585 -0.5094
42135SOL     OW31342   7.449   7.467   7.505 -0.2551  0.0332 -0.1126
42135SOL    HW131343   7.488   7.497   7.423  0.4815 -0.3900  0.0748
42135SOL    HW231344   7.422   7.547   7.550 -1.5400  0.2248 -1.1830
42136SOL     OW31345   4.826   9.627  11.639  0.2722 -0.0629  0.0550
42136SOL    HW131346   4.784   9.709  11.612 -0.2430 -0.0670  0.8129
42136SOL    HW231347   4.896   9.654  11.698  0.4063 -0.1416 -0.0675
42137SOL     OW31348   6.851   6.487   1.314 -0.2772 -0.3612 -0.4711
42137SOL    HW131349   6.832   6.564   1.367  1.2940 -1.3526  1.6966
42137SOL    HW231350   6.779   6.426   1.334 -1.8928  0.6670 -2.7025
42138SOL     OW31351   1.354   2.675   4.160  0.1426  0.3839  0.2373
42138SOL    HW131352   1.273   2.634   4.129 -0.2189 -0.4779  2.1964
42138SOL    HW231353   1.374   2.742   4.094 -1.2585 -0.4838 -1.1284
42139SOL     OW31354   1.258   7.798  10.264 -0.5293  0.2463 -0.6548
42139SOL    HW131355   1.199   7.790  10.340 -0.7047 -2.8201 -0.9859
42139SOL    HW231356   1.346   7.801  10.301 -0.6869  0.2647 -0.2825
42140SOL     OW31357   1.631   0.637   8.659 -0.5525 -0.1268 -0.0232
42140SOL    HW131358   1.567   0.708   8.660 -1.3587 -0.7415 -2.0725
42140SOL    HW231359   1.615   0.591   8.576  1.2803 -1.4771  0.2934
42141SOL     OW31360  10.012   6.866  10.112 -0.2521 -0.0519 -0.3703
42141SOL    HW131361   9.978   6.820  10.035  0.6123  1.3333 -1.6418
42141SOL    HW231362   9.982   6.956  10.102 -1.2150 -0.0915  1.6299
42142SOL     OW31363   1.972   0.167   4.910 -0.3415 -0.2879  0.3207
42142SOL    HW131364   2.027   0.142   4.984  0.4489  0.7293  0.0951
42142SOL    HW231365   1.892   0.201   4.950  0.7144  1.7562  0.7904
42143SOL     OW31366  11.206  10.613   8.593  0.7903 -0.1664 -0.7488
42143SOL    HW131367  11.204  10.656   8.679  1.8477 -0.2675 -0.6677
42143SOL    HW231368  11.129  10.648   8.548  0.1048 -0.2469  0.2983
42144SOL     OW31369   0.599   9.507   5.665 -0.2421 -0.3284  0.2998
42144SOL    HW131370   0.557   9.439   5.718 -0.9449 -0.1440 -0.0175
42144SOL    HW231371   0.530   9.539   5.608  0.5569 -0.6601 -0.8832
42145SOL     OW31372   6.762   1.188  11.606 -0.0459 -0.7096  0.1753
42145SOL    HW131373   6.833   1.252  11.607  0.1875 -0.9568  1.0359
42145SOL    HW231374   6.779   1.133  11.530 -1.0397  1.0810 -1.4136
42146SOL     OW31375   4.982   9.942   8.808 -0.2861 -0.3177  0.2145
42146SOL    HW131376   5.003  10.013   8.869 -0.6604  0.2101 -0.2652
42146SOL    HW231377   4.923   9.886   8.858 -0.5797  0.1027  0.3480
42147SOL     OW31378   0.958   5.430   8.423 -0.4472 -0.1682  0.5491
42147SOL    HW131379   1.052   5.437   8.440 -0.8116  1.8881  2.3071
42147SOL    HW231380   0.950   5.437   8.328  1.1095  2.3060  0.4923
42148SOL     OW31381   9.506   5.609   0.044  0.1824 -0.0836  0.5598
42148SOL    HW131382   9.422   5.634   0.005 -1.4711 -0.8334  3.3612
42148SOL    HW231383   9.559   5.688   0.040 -1.0245  0.7159 -0.3742
42149SOL     OW31384   2.477   2.398   3.775  0.1836 -0.6393 -0.2887
42149SOL    HW131385   2.469   2.318   3.722 -4.2591  0.2067 -1.2614
42149SOL    HW231386   2.489   2.468   3.711 -0.5396 -0.0791  0.1766
42150SOL     OW31387  11.532   2.718   2.137  0.5910  0.4931  0.4662
42150SOL    HW131388  11.604   2.681   2.087 -0.2885  1.3124 -1.5010
42150SOL    HW231389  11.546   2.812   2.134  0.3936  0.5787  1.6237
42151SOL     OW31390   4.267   7.428   4.295 -0.1267 -0.0293  0.0719
42151SOL    HW131391   4.260   7.344   4.341  1.9673 -0.4217 -0.2561
42151SOL    HW231392   4.179   7.466   4.302 -1.1604 -2.2594  0.1868
42152SOL     OW31393   3.206   1.757   5.756 -0.0078 -0.2117  0.0394
42152SOL    HW131394   3.113   1.752   5.780 -0.1883 -0.6158 -0.7281
42152SOL    HW231395   3.234   1.666   5.748  0.7305 -0.1154  1.2524
42153SOL     OW31396   5.018   6.197   3.267 -0.7820  0.4384  0.5549
42153SOL    HW131397   5.072   6.140   3.212  0.4637  2.5205 -0.4702
42153SOL    HW231398   5.069   6.206   3.348  0.0351  1.6396 -0.0529
42154SOL     OW31399  11.151   2.701  11.544  0.6035  0.0629 -0.2500
42154SOL    HW131400  11.070   2.713  11.494 -0.1753  1.6817  1.2934
42154SOL    HW231401  11.183   2.790  11.559 -0.0769 -0.1708  3.4654
42155SOL     OW31402   2.705   4.598   4.499 -0.5195  0.5137 -0.5008
42155SOL    HW131403   2.641   4.575   4.432 -0.8773 -0.2411  0.0910
42155SOL    HW231404   2.757   4.668   4.460 -1.0326  0.4072 -1.3813
42156SOL     OW31405  10.890  10.763   1.925  0.2522  0.1375  0.1650
42156SOL    HW131406  10.865  10.827   1.992  1.7252  2.6211 -1.4818
42156SOL    HW231407  10.860  10.803   1.843 -0.6222 -2.3481 -0.8012
42157SOL     OW31408   3.329   0.259   3.494 -0.0511  0.6402 -0.6070
42157SOL    HW131409   3.356   0.243   3.584  0.9746  1.3858 -0.7657
42157SOL    HW231410   3.339   0.353   3.482 -1.0788  0.6815 -1.2231
42158SOL     OW31411   3.692   9.859  11.310  0.1724 -0.2509 -0.3659
42158SOL    HW131412   3.611   9.847  11.359  0.5667  0.6702  0.5360
42158SOL    HW231413   3.750   9.790  11.342 -0.0356 -0.5362 -0.5860
42159SOL     OW31414   5.018   7.769   9.980 -0.6192  0.3332 -0.5992
42159SOL    HW131415   5.028   7.817   9.898  0.4683  1.2998  0.0535
42159SOL    HW231416   5.107   7.763  10.015 -1.0451 -0.1653  0.4531
42160SOL     OW31417   2.812  11.472   5.975 -0.0941  0.0720  0.1235
42160SOL    HW131418   2.746  11.445   5.911  0.7681 -2.6819  0.2644
42160SOL    HW231419   2.866  11.536   5.929 -0.4459 -0.6718 -1.3620
42161SOL     OW31420  10.733   2.477   0.847 -0.1275 -0.5495  0.1978
42161SOL    HW131421  10.745   2.558   0.797  2.3096 -0.8940  0.0926
42161SOL    HW231422  10.649   2.489   0.892 -1.6763  0.4622 -2.6515
42162SOL     OW31423   5.559   1.788   8.446  0.3592 -0.1794  0.0243
42162SOL    HW131424   5.530   1.744   8.526 -0.1002  1.5024  0.8187
42162SOL    HW231425   5.496   1.858   8.432  2.5839  2.0328  0.4074
42163SOL     OW31426  10.290   2.300   6.703 -0.3216 -0.1986 -0.3077
42163SOL    HW131427  10.243   2.224   6.670 -0.5098 -0.7435  1.1380
42163SOL    HW231428  10.373   2.299   6.655  0.2223 -2.0901  0.5657
42164SOL     OW31429   4.960   7.951   8.801  0.4375  0.5912 -0.2507
42164SOL    HW131430   4.995   8.036   8.776  1.9560 -0.1645 -0.8396
42164SOL    HW231431   5.030   7.889   8.780 -0.9425 -0.9062 -0.6583
42165SOL     OW31432   1.173   5.569  10.607 -0.2499 -0.1456 -0.4971
42165SOL    HW131433   1.109   5.603  10.670 -0.8254  0.0291 -1.1704
42165SOL    HW231434   1.217   5.647  10.574 -1.6055 -0.0149 -2.0803
42166SOL     OW31435   4.920   0.781   3.422 -0.0373  0.7808  0.0348
42166SOL    HW131436   4.943   0.819   3.338 -1.5970  0.6818 -0.4675
42166SOL    HW231437   4.956   0.842   3.487 -0.7891  2.0709 -0.7301
42167SOL     OW31438   8.011   1.334   2.405  0.5469  0.0551  0.3088
42167SOL    HW131439   8.096   1.375   2.420  0.8202 -1.4913  4.1310
42167SOL    HW231440   8.017   1.249   2.449 -2.8668 -0.2050  0.5284
42168SOL     OW31441   0.117   9.522   4.126  0.4057  0.1264  0.1970
42168SOL    HW131442   0.137   9.467   4.050  0.7767 -0.7487  0.9033
42168SOL    HW231443   0.023   9.512   4.138  0.3962  0.0139  0.0358
42169SOL     OW31444   3.716   7.157   7.263  0.0115 -0.1953 -0.0777
42169SOL    HW131445   3.627   7.173   7.294 -0.4786  0.5388 -1.7024
42169SOL    HW231446   3.704   7.109   7.181  0.9047  2.1225 -1.6814
42170SOL     OW31447   8.425   0.127   4.318  0.5473  0.2186  0.1776
42170SOL    HW131448   8.333   0.108   4.335  0.9369 -1.3037  0.6776
42170SOL    HW231449   8.429   0.141   4.223  0.0438 -1.2741 -0.0894
42171SOL     OW31450   7.763   9.118   9.655  0.1397  0.5559  0.2172
42171SOL    HW131451   7.797   9.183   9.592  0.3625  1.4167  1.1970
42171SOL    HW231452   7.822   9.125   9.730 -0.2322 -0.3338  0.5962
42172SOL     OW31453   4.775   2.937   7.544  0.4770 -0.1367  0.2244
42172SOL    HW131454   4.747   2.870   7.606  0.3351 -0.5410 -0.2706
42172SOL    HW231455   4.867   2.952   7.564  0.6182 -0.7738  0.0815
42173SOL     OW31456   1.503   2.238   8.374 -0.0001  0.4857  0.2103
42173SOL    HW131457   1.574   2.199   8.426 -1.5864 -0.9200  1.4339
42173SOL    HW231458   1.431   2.175   8.381 -2.1591  2.8678  0.8955
42174SOL     OW31459  10.719   8.818   2.691  0.3108 -0.0217 -0.2724
42174SOL    HW131460  10.723   8.729   2.727  0.4345 -0.9679 -2.4974
42174SOL    HW231461  10.735   8.807   2.598 -1.3222  2.1557 -0.8920
42175SOL     OW31462   6.771   2.211   2.495 -0.3443  0.5257 -0.3148
42175SOL    HW131463   6.837   2.265   2.540 -1.0176  0.6502  0.5426
42175SOL    HW231464   6.696   2.211   2.554  0.1461 -2.6649  0.5141
42176SOL     OW31465  10.120   9.371   5.362 -0.1693  0.3339  0.4801
42176SOL    HW131466  10.098   9.287   5.322  1.1718  0.3563 -0.3479
42176SOL    HW231467  10.077   9.436   5.308  1.4315  0.3493 -0.8568
42177SOL     OW31468   9.341   3.300   9.846 -0.7417 -0.4414 -0.0510
42177SOL    HW131469   9.434   3.321   9.853 -1.0177  0.8494  0.0191
42177SOL    HW231470   9.318   3.266   9.932 -0.2422 -1.2069 -0.2090
42178SOL     OW31471   1.506   7.515   2.897  0.3537  0.0179  0.1272
42178SOL    HW131472   1.573   7.531   2.831  0.4714  0.9412  0.4567
42178SOL    HW231473   1.464   7.599   2.910 -0.3890 -0.3930  0.4546
42179SOL     OW31474   2.998   4.857   3.911  0.0309  0.7396 -0.2714
42179SOL    HW131475   3.007   4.898   3.825  0.6557  0.6681 -0.2473
42179SOL    HW231476   3.084   4.869   3.952  0.6895 -1.6773 -0.7572
42180SOL     OW31477   4.145   9.882   7.473  0.6302 -0.0162 -0.3170
42180SOL    HW131478   4.179   9.898   7.561 -0.3397  1.6485 -0.2089
42180SOL    HW231479   4.110   9.793   7.477  0.4456  0.0967  1.0401
42181SOL     OW31480   5.183   7.370   4.324  0.3358 -0.2629 -0.3526
42181SOL    HW131481   5.145   7.328   4.246 -0.7514  0.3675 -0.1757
42181SOL    HW231482   5.163   7.463   4.313  3.4035  0.3987 -1.1316
42182SOL     OW31483   9.032   4.976   3.324  0.3798  0.1658 -0.2608
42182SOL    HW131484   9.006   5.029   3.399  2.8683  0.8691  0.1993
42182SOL    HW231485   8.966   4.907   3.319 -1.8528  2.1255  0.3477
42183SOL     OW31486   8.896   3.963   3.044 -0.5331  0.0089 -0.1535
42183SOL    HW131487   8.909   3.995   2.954 -0.9340 -0.3652 -0.3435
42183SOL    HW231488   8.945   4.026   3.098 -1.1077  0.8142 -0.5402
42184SOL     OW31489   4.498   6.072   7.598  0.6702  0.0434 -0.2069
42184SOL    HW131490   4.474   5.989   7.639 -0.0269  0.1393 -0.3941
42184SOL    HW231491   4.509   6.133   7.672 -2.6491  0.7549 -0.1364
42185SOL     OW31492   5.494   5.096   3.045  0.0082 -0.0574  0.4609
42185SOL    HW131493   5.445   5.035   3.101 -0.2498 -0.6870 -0.4226
42185SOL    HW231494   5.584   5.063   3.047 -0.5367 -2.0249 -1.9342
42186SOL     OW31495   4.943   9.941   5.611 -0.5277 -0.9256 -0.0491
42186SOL    HW131496   4.964  10.030   5.583 -0.2572 -0.4692  1.5188
42186SOL    HW231497   5.023   9.891   5.593  1.1741  0.2270  3.3909
42187SOL     OW31498   0.712   7.859   3.042  0.2412  0.0465 -0.1934
42187SOL    HW131499   0.759   7.937   3.014 -0.7763  0.3043 -1.2493
42187SOL    HW231500   0.691   7.814   2.960 -0.9445 -0.2866  0.2874
42188SOL     OW31501   4.442   6.319   9.553 -0.2706 -0.6559 -0.1827
42188SOL    HW131502   4.484   6.336   9.468  1.0771  0.1920  0.6162
42188SOL    HW231503   4.469   6.230   9.575  1.5940  0.0311  0.5356
42189SOL     OW31504  10.993   2.615   2.194 -0.0983 -0.3070 -0.1944
42189SOL    HW131505  11.045   2.691   2.219  0.7714 -0.9140 -0.1029
42189SOL    HW231506  10.987   2.563   2.275 -0.2266 -0.5975 -0.3906
42190SOL     OW31507  10.085   9.319  10.224 -0.3655  0.5931 -0.7131
42190SOL    HW131508   9.998   9.303  10.187 -1.1843 -0.2766  1.4445
42190SOL    HW231509  10.101   9.412  10.208 -0.6794  0.2924 -3.1075
42191SOL     OW31510   5.721   9.354   9.794 -0.3568 -0.2103  0.1806
42191SOL    HW131511   5.684   9.286   9.738 -1.1577 -0.1245  0.5958
42191SOL    HW231512   5.728   9.430   9.737  1.9851 -1.0006 -0.7367
42192SOL     OW31513   3.157   8.733   0.473 -0.6057 -0.0663  0.5470
42192SOL    HW131514   3.223   8.682   0.519 -0.4344 -1.1152 -0.7898
42192SOL    HW231515   3.202   8.766   0.395 -2.2871 -3.3013 -2.0244
42193SOL     OW31516   5.734   0.605   7.423 -0.5998 -0.3759  0.4765
42193SOL    HW131517   5.700   0.522   7.390  2.0836 -0.9926 -0.9546
42193SOL    HW231518   5.732   0.595   7.519 -0.0450 -2.2197  0.3310
42194SOL     OW31519   3.836   8.060   0.915 -0.0148 -0.2342  0.0779
42194SOL    HW131520   3.792   7.976   0.908  0.6082 -0.6426  0.9085
42194SOL    HW231521   3.777   8.114   0.968  0.5087 -0.8244  1.3077
42195SOL     OW31522   0.551   5.105  10.413 -0.1716 -0.2309  0.4178
42195SOL    HW131523   0.611   5.037  10.383 -0.1025  0.0518 -0.0949
42195SOL    HW231524   0.477   5.101  10.353 -0.1788  0.1276  0.3992
42196SOL     OW31525   2.499   3.554  10.647 -0.1092 -0.2850  0.3028
42196SOL    HW131526   2.438   3.510  10.706  0.5736 -1.4350  0.1811
42196SOL    HW231527   2.471   3.645  10.647 -1.6169 -0.7224  0.5122
42197SOL     OW31528   5.831   0.020  11.160  0.2671  0.2029  0.3018
42197SOL    HW131529   5.750   0.063  11.186  1.8365  2.7622  1.3524
42197SOL    HW231530   5.868   0.076  11.092  2.4908  0.7216  1.8330
42198SOL     OW31531   7.510  10.563   0.769 -0.0816 -0.3040 -0.0148
42198SOL    HW131532   7.478  10.554   0.679 -0.7993 -1.8998  0.3619
42198SOL    HW231533   7.595  10.518   0.769 -0.8463 -1.8362  0.4480
42199SOL     OW31534   0.740   8.479   7.232  0.2912 -0.1961 -0.1609
42199SOL    HW131535   0.667   8.442   7.183 -0.0215  1.1907 -0.8136
42199SOL    HW231536   0.704   8.501   7.318  0.8516 -2.6778  0.7710
42200SOL     OW31537   3.672  10.426   2.004 -0.0025 -1.2807  0.0092
42200SOL    HW131538   3.632  10.513   2.005  0.2216 -1.1750 -0.1549
42200SOL    HW231539   3.721  10.422   2.086  0.2625 -1.1210 -0.1386
42201SOL     OW31540   7.581  10.096   0.965  0.4407  0.1496 -0.1129
42201SOL    HW131541   7.600  10.111   1.058  0.3298  0.6100 -0.1621
42201SOL    HW231542   7.641  10.027   0.939 -0.4777 -0.9826  0.6600
42202SOL     OW31543   1.108   9.368   6.152 -0.2791 -0.4463  0.2249
42202SOL    HW131544   1.048   9.389   6.080  0.2537  3.9886  0.7783
42202SOL    HW231545   1.051   9.348   6.226 -0.9917  0.2576 -0.1224
42203SOL     OW31546   0.185   4.317   8.406  0.1229 -0.0274 -0.0439
42203SOL    HW131547   0.228   4.248   8.355  0.3644 -0.5794  0.8746
42203SOL    HW231548   0.141   4.271   8.477 -2.3544  0.4873 -1.1313
42204SOL     OW31549   4.438   0.398   8.345  0.1681  0.1858  0.0711
42204SOL    HW131550   4.431   0.356   8.259 -0.7664  0.3158  0.0683
42204SOL    HW231551   4.368   0.358   8.397  1.1308 -0.3627  0.9869
42205SOL     OW31552   2.855   7.637  10.439 -0.3610 -0.1337  0.2817
42205SOL    HW131553   2.906   7.661  10.362  0.7723  1.0373  1.3366
42205SOL    HW231554   2.767   7.669  10.420 -0.1107  0.0877 -0.5483
42206SOL     OW31555   3.344   6.030   1.661 -0.0839 -0.0107 -0.3261
42206SOL    HW131556   3.356   6.052   1.569  0.9523  0.0312 -0.1927
42206SOL    HW231557   3.400   5.954   1.675  0.1753  0.2991  0.3852
42207SOL     OW31558   9.368   2.732   9.683  0.3961  0.3229  0.5512
42207SOL    HW131559   9.282   2.712   9.647 -0.1621  0.1466  1.9260
42207SOL    HW231560   9.372   2.828   9.684  0.2071  0.3312  0.5173
42208SOL     OW31561   6.256   2.081   6.831  0.5081  0.5082 -0.1136
42208SOL    HW131562   6.223   2.164   6.866 -0.0073  1.1025 -1.8920
42208SOL    HW231563   6.181   2.042   6.787  0.2004 -1.8975  2.2390
42209SOL     OW31564   7.721   0.460  10.096  0.3159 -0.6207  0.1138
42209SOL    HW131565   7.626   0.467  10.103  0.3118 -1.4188  1.2610
42209SOL    HW231566   7.736   0.399  10.024 -0.0046  0.0875 -0.5665
42210SOL     OW31567  10.264   5.573   9.999  0.2909 -0.0586 -0.2062
42210SOL    HW131568  10.266   5.501  10.062 -1.8386  0.4391  0.5293
42210SOL    HW231569  10.263   5.530   9.914 -0.1657 -0.8899  0.2029
42211SOL     OW31570   6.091   5.334   8.275 -0.7762  0.4520  0.1363
42211SOL    HW131571   6.156   5.336   8.204  0.0164  0.0130  0.8297
42211SOL    HW231572   6.010   5.308   8.232 -0.2983  0.1619 -0.6135
42212SOL     OW31573   7.150   3.919   8.445  0.2003  0.3309  0.1643
42212SOL    HW131574   7.110   3.942   8.362 -0.7134 -1.5287  0.0399
42212SOL    HW231575   7.234   3.878   8.421 -0.2482 -0.5809  0.1068
42213SOL     OW31576   2.824   1.299   5.932  0.3604  0.2447  0.3287
42213SOL    HW131577   2.759   1.289   6.001 -0.8839  1.1011 -0.6771
42213SOL    HW231578   2.816   1.220   5.879 -2.3521  1.7858 -1.7739
42214SOL     OW31579  10.237  10.997  11.298 -0.3626  0.4334 -0.2560
42214SOL    HW131580  10.245  11.036  11.385 -1.0754 -1.2383  0.6036
42214SOL    HW231581  10.142  10.991  11.283 -0.2839 -1.0134 -0.3118
42215SOL     OW31582   6.773   2.859   7.068  0.0718  0.1967  0.8008
42215SOL    HW131583   6.756   2.943   7.110  2.4802  1.3270 -0.3087
42215SOL    HW231584   6.868   2.858   7.054 -0.1583 -1.7904 -1.1048
42216SOL     OW31585   9.708   4.012  10.988 -0.2307 -0.0611  0.1947
42216SOL    HW131586   9.615   3.992  10.980  0.1993 -2.9731  1.4868
42216SOL    HW231587   9.714   4.069  11.064 -0.9646  0.4667 -0.1276
42217SOL     OW31588   5.736   5.773   2.314  0.3544  0.0128 -0.2874
42217SOL    HW131589   5.742   5.839   2.383 -1.5551  1.7115 -1.6033
42217SOL    HW231590   5.787   5.810   2.242  1.3933 -1.2000 -0.1989
42218SOL     OW31591   7.071   3.754  10.750  0.0080 -0.0885  0.4234
42218SOL    HW131592   7.142   3.695  10.726  0.9944  1.6300 -1.1591
42218SOL    HW231593   7.088   3.834  10.700 -1.8438  1.1744  1.6751
42219SOL     OW31594   2.502   6.256   1.463  0.1277 -0.0589  0.1520
42219SOL    HW131595   2.541   6.278   1.548 -2.7071 -0.8602  1.7796
42219SOL    HW231596   2.522   6.163   1.452  0.2006 -0.0372  0.1005
42220SOL     OW31597   3.966  10.433   8.695  0.1140  0.0612  0.1618
42220SOL    HW131598   3.901  10.500   8.715  1.7211  1.7549 -0.0726
42220SOL    HW231599   3.965  10.427   8.599 -0.1375 -0.3881  0.1892
42221SOL     OW31600   2.417  11.116  10.057 -0.1445 -0.1138 -0.1952
42221SOL    HW131601   2.382  11.204  10.073 -0.9358 -0.4030 -0.2653
42221SOL    HW231602   2.340  11.064  10.034  0.1107 -1.1564  1.1830
42222SOL     OW31603   9.578   3.998   5.798 -0.2963 -0.2827  0.3604
42222SOL    HW131604   9.492   4.037   5.809  0.2469  0.4511  2.5128
42222SOL    HW231605   9.578   3.965   5.708 -1.5275  2.9024 -0.9791
42223SOL     OW31606   4.156   1.625   5.128  0.0367 -0.4798  0.2115
42223SOL    HW131607   4.231   1.598   5.073  0.6611  2.6315 -0.6395
42223SOL    HW231608   4.163   1.720   5.134 -2.3409 -0.3300  2.4397
42224SOL     OW31609   4.143   4.460   1.661 -0.3276  1.0709 -0.4321
42224SOL    HW131610   4.210   4.394   1.641  0.6421  2.5204 -2.2431
42224SOL    HW231611   4.176   4.506   1.738  1.0224  2.0165 -1.5273
42225SOL     OW31612  10.688   4.944   9.544  0.1970  0.5917  0.4064
42225SOL    HW131613  10.774   4.910   9.569 -0.4239  0.8087  3.1155
42225SOL    HW231614  10.674   5.019   9.602 -1.8495  0.5155  0.0672
42226SOL     OW31615   9.234   3.985   3.094  0.1480 -0.2225 -0.1824
42226SOL    HW131616   9.288   3.928   3.150 -0.1295  0.4086  0.7359
42226SOL    HW231617   9.235   3.941   3.009  0.2311 -1.4244  0.4154
42227SOL     OW31618  10.350   4.201   0.951  0.1144  0.4651  0.5401
42227SOL    HW131619  10.358   4.242   1.037  0.0584 -0.5443  1.0466
42227SOL    HW231620  10.440   4.196   0.918  0.3233 -0.5507  1.2312
42228SOL     OW31621   8.984  11.409   7.130 -0.1507 -0.1824  0.2479
42228SOL    HW131622   8.889  11.406   7.119 -0.2266 -0.8640  1.0558
42228SOL    HW231623   9.006  11.328   7.176  0.4084  1.4606  3.1242
42229SOL     OW31624   4.001   8.005   9.576  0.4544  0.2315  0.2301
42229SOL    HW131625   3.962   7.979   9.492  0.8680  1.7984 -0.4818
42229SOL    HW231626   3.934   7.982   9.641 -0.3282 -0.0211 -0.6293
42230SOL     OW31627   4.322   2.885   8.670  0.2340 -0.1591 -0.1700
42230SOL    HW131628   4.370   2.910   8.591  0.2367  0.2236 -0.0485
42230SOL    HW231629   4.284   2.966   8.702  0.3155 -0.2948  0.2805
42231SOL     OW31630  11.076   7.685   6.405  0.0595 -0.0989  1.6767
42231SOL    HW131631  10.992   7.713   6.442  0.6515  0.6697  2.4764
42231SOL    HW231632  11.141   7.735   6.454  0.8991  0.8644 -0.3109
42232SOL     OW31633   1.748   7.345   3.357 -0.1988  0.0343 -0.2883
42232SOL    HW131634   1.676   7.372   3.413 -0.4450  0.2739 -0.7176
42232SOL    HW231635   1.717   7.361   3.268 -1.4487 -3.9863 -0.8061
42233SOL     OW31636   5.463   3.568   2.789  0.3540  0.3245  0.6674
42233SOL    HW131637   5.440   3.557   2.696 -0.1268 -0.8802  0.9177
42233SOL    HW231638   5.539   3.626   2.787  0.9941 -0.5112 -0.5542
42234SOL     OW31639   1.362  11.417   1.649  0.2747  0.1722 -0.5089
42234SOL    HW131640   1.435  11.387   1.596  0.5102  0.7690 -0.5320
42234SOL    HW231641   1.292  11.353   1.633  1.1646 -1.0748  0.4422
42235SOL     OW31642   8.172   4.623   8.250 -0.3073 -0.7458  0.7142
42235SOL    HW131643   8.167   4.538   8.208 -0.7045 -0.1694 -0.4555
42235SOL    HW231644   8.209   4.605   8.337 -0.5644 -2.1167  0.5652
42236SOL     OW31645   9.374   4.194   9.197  0.0893  0.5484  0.2864
42236SOL    HW131646   9.408   4.110   9.227 -0.8163  0.4736  1.1920
42236SOL    HW231647   9.392   4.196   9.104 -0.8593 -1.1552  0.0215
42237SOL     OW31648   3.494  10.053   3.648  0.0959  0.0129 -0.5670
42237SOL    HW131649   3.526  10.092   3.567 -1.3246  1.8854 -0.2911
42237SOL    HW231650   3.519  10.116   3.716  0.4783 -1.0922  0.3389
42238SOL     OW31651   3.224   4.813   1.051 -0.3229  0.1592 -0.0561
42238SOL    HW131652   3.258   4.887   1.101 -3.0879  1.3536  0.2477
42238SOL    HW231653   3.160   4.852   0.991 -0.4429 -1.7907 -1.2968
42239SOL     OW31654   9.690   6.346   5.561 -0.2674 -0.1343  0.2815
42239SOL    HW131655   9.683   6.341   5.657  1.0080 -0.1347  0.3892
42239SOL    HW231656   9.783   6.357   5.544 -0.4346 -0.5061 -0.9909
42240SOL     OW31657  11.020   9.707   9.578  0.1293  0.4865  0.3971
42240SOL    HW131658  11.057   9.691   9.491  0.3546 -0.7119  0.6896
42240SOL    HW231659  10.929   9.679   9.571 -0.1655  1.4530  0.2518
42241SOL     OW31660   3.689   5.511   8.835  0.1989  0.1384 -0.2989
42241SOL    HW131661   3.610   5.494   8.783  0.0524 -0.0141 -0.0275
42241SOL    HW231662   3.702   5.605   8.829 -0.6107  0.3150  0.5180
42242SOL     OW31663   1.179   2.261   4.190 -0.6734  0.4531 -0.7644
42242SOL    HW131664   1.273   2.259   4.210 -0.5810  3.0468 -0.6229
42242SOL    HW231665   1.136   2.266   4.275 -0.8179  1.1549 -0.8705
42243SOL     OW31666   8.741   2.082   1.816 -0.2549 -0.7824  0.1285
42243SOL    HW131667   8.720   2.160   1.764 -0.9083 -0.9205  0.1844
42243SOL    HW231668   8.802   2.114   1.883 -2.4222  0.2344  1.7223
42244SOL     OW31669  10.596   1.026   1.517 -0.2780  0.2085  0.4235
42244SOL    HW131670  10.531   1.085   1.479 -1.5745 -0.7512  1.0520
42244SOL    HW231671  10.554   0.940   1.514  0.5866 -0.2907  1.7008
42245SOL     OW31672   0.193   2.602   2.682  0.3083  0.1309  0.1662
42245SOL    HW131673   0.130   2.660   2.724 -0.2217  0.1228 -0.5899
42245SOL    HW231674   0.195   2.524   2.738 -0.8429 -0.1312 -0.1363
42246SOL     OW31675   3.112   8.756   3.448  0.0976  0.4511 -0.0296
42246SOL    HW131676   3.048   8.737   3.517 -0.2350  0.1135 -0.4283
42246SOL    HW231677   3.061   8.797   3.378  0.2278 -0.2412 -0.5389
42247SOL     OW31678   3.932   1.541   6.888 -0.2551 -0.0949  0.0572
42247SOL    HW131679   3.933   1.464   6.944  1.4398  0.8366  1.3971
42247SOL    HW231680   3.868   1.599   6.928 -1.1272 -0.5696 -0.6334
42248SOL     OW31681   5.649  10.785   7.421 -0.1992  0.6252  0.7239
42248SOL    HW131682   5.631  10.878   7.409  1.7993  0.7766 -2.1362
42248SOL    HW231683   5.745  10.779   7.420 -0.2665 -1.3473  2.0940
42249SOL     OW31684   6.480   0.694   7.996  0.2859 -0.3551  0.2761
42249SOL    HW131685   6.545   0.764   7.995  2.5792 -2.3538 -1.3990
42249SOL    HW231686   6.442   0.698   8.084  1.5265  1.9107  0.7760
42250SOL     OW31687   9.946   5.606   7.995  0.2396 -0.1386  0.2485
42250SOL    HW131688  10.001   5.678   8.027  0.5541 -0.6567  0.9105
42250SOL    HW231689   9.992   5.527   8.023 -0.0173 -0.6031 -0.6175
42251SOL     OW31690   4.379   9.619   1.790 -0.4512  0.0636 -0.6078
42251SOL    HW131691   4.360   9.607   1.883 -1.5265 -1.5676 -0.9903
42251SOL    HW231692   4.457   9.565   1.774 -0.0267  0.6595 -0.5882
42252SOL     OW31693   6.506   7.832   0.452 -0.5658  0.2175 -0.2839
42252SOL    HW131694   6.574   7.864   0.511  0.9759 -1.5104 -1.0588
42252SOL    HW231695   6.526   7.873   0.368  0.3624 -1.3114 -0.8409
42253SOL     OW31696   7.656   1.129   4.539  0.1509  0.6208 -0.7746
42253SOL    HW131697   7.746   1.107   4.516  0.9143  0.6518  1.8382
42253SOL    HW231698   7.607   1.048   4.529  1.4630 -0.6314  1.9604
42254SOL     OW31699  11.086   4.846   1.045  0.4151 -0.3168 -0.3245
42254SOL    HW131700  11.159   4.908   1.035  0.6285 -0.4131  0.6140
42254SOL    HW231701  11.091   4.817   1.136 -1.1058  0.0611 -0.1011
42255SOL     OW31702   6.840  11.261   2.195 -0.3388 -0.2685  0.1155
42255SOL    HW131703   6.840  11.354   2.171 -0.9126 -0.3362 -0.1820
42255SOL    HW231704   6.890  11.219   2.125 -0.6939 -0.2683 -0.1446
42256SOL     OW31705   2.248   4.704   4.577 -0.3258 -0.0616 -0.5170
42256SOL    HW131706   2.257   4.642   4.649  0.6919  0.9667  0.2738
42256SOL    HW231707   2.213   4.783   4.617  2.4431  1.3319 -0.6267
42257SOL     OW31708   3.836  11.455   2.349  0.5512  0.0005 -0.1050
42257SOL    HW131709   3.838  11.523   2.282 -0.1972  0.1883  0.0559
42257SOL    HW231710   3.754  11.470   2.396  1.5773  0.5681  1.5836
42258SOL     OW31711   8.474  10.605   3.419  0.0774  0.1071 -0.4011
42258SOL    HW131712   8.523  10.645   3.490  0.1242  1.4613 -1.1548
42258SOL    HW231713   8.508  10.647   3.340 -0.3199 -0.9954 -1.1814
42259SOL     OW31714   4.005   7.564   6.218 -0.4665  0.9065  0.6264
42259SOL    HW131715   3.969   7.630   6.277 -1.0021  1.0719  0.1167
42259SOL    HW231716   4.096   7.553   6.247 -0.6930  1.0553  1.4144
42260SOL     OW31717   5.423   9.807   0.261  0.2244 -0.0837  0.3365
42260SOL    HW131718   5.421   9.768   0.174  1.0164 -1.7758  1.0263
42260SOL    HW231719   5.340   9.782   0.301 -1.1464  2.5525 -0.6153
42261SOL     OW31720   2.317   3.966   2.766  0.2020 -0.5751  0.6049
42261SOL    HW131721   2.289   4.026   2.836 -0.0643 -1.2570  1.0942
42261SOL    HW231722   2.325   3.881   2.809 -0.3059 -1.0827 -0.2661
42262SOL     OW31723   9.505   6.471   5.841 -0.7480  0.6203  0.3807
42262SOL    HW131724   9.599   6.457   5.836 -0.8752  0.1793 -1.6273
42262SOL    HW231725   9.495   6.567   5.837 -0.3581  0.8215  2.6931
42263SOL     OW31726   7.801   3.798   2.832  0.1479  0.4330  0.3625
42263SOL    HW131727   7.871   3.862   2.823 -1.1561  1.9123  0.3559
42263SOL    HW231728   7.722   3.844   2.805 -1.0929 -0.6581  1.9010
42264SOL     OW31729  10.661   7.709   6.130  0.3592 -0.4286  0.4384
42264SOL    HW131730  10.656   7.617   6.106 -1.2402  0.0287 -1.2473
42264SOL    HW231731  10.664   7.709   6.226 -0.4778 -2.1947  0.5037
42265SOL     OW31732   3.692   3.625   6.144  0.0589  0.3112  0.1090
42265SOL    HW131733   3.683   3.559   6.213 -2.5209 -0.5832 -0.9379
42265SOL    HW231734   3.779   3.663   6.158  0.9655 -2.1170  1.7905
42266SOL     OW31735   5.626   5.642   7.871 -0.3722  0.0846  0.0246
42266SOL    HW131736   5.632   5.574   7.805 -0.5292 -1.8443  1.8826
42266SOL    HW231737   5.537   5.676   7.863 -0.2270  0.2424 -1.0511
42267SOL     OW31738   3.182   7.273  10.924 -0.5132  0.2640  0.7959
42267SOL    HW131739   3.214   7.318  10.846 -1.6919  1.6927  1.0907
42267SOL    HW231740   3.149   7.343  10.980  1.8631 -0.5374  3.3821
42268SOL     OW31741   4.940   6.818   1.195 -0.1267 -0.4307 -0.2265
42268SOL    HW131742   4.951   6.747   1.132  1.2518 -0.8202  0.3997
42268SOL    HW231743   5.029   6.851   1.210 -0.8955  3.0220 -2.2162
42269SOL     OW31744   5.128   3.197   2.172 -0.1062 -0.0086  0.1821
42269SOL    HW131745   5.187   3.165   2.241 -0.1689  0.1738  0.3220
42269SOL    HW231746   5.152   3.147   2.094 -0.5524 -0.7583  0.5223
42270SOL     OW31747   5.265   2.528   6.188  0.0948 -0.1784  0.5342
42270SOL    HW131748   5.193   2.495   6.135  0.7164 -3.7234  1.6228
42270SOL    HW231749   5.227   2.540   6.275  0.6412 -1.5047  0.9761
42271SOL     OW31750   8.471   9.078   5.674 -0.3985  0.4996  0.0851
42271SOL    HW131751   8.543   9.141   5.662 -2.0398  2.2142 -1.4820
42271SOL    HW231752   8.424   9.109   5.751 -0.6262  0.6019 -0.0938
42272SOL     OW31753   8.433   3.023   0.471  0.7055  0.2034  0.2789
42272SOL    HW131754   8.405   2.969   0.545  1.4242  1.0986  1.2229
42272SOL    HW231755   8.352   3.041   0.423 -0.2074  1.7066  2.2474
42273SOL     OW31756   5.616   4.847   6.620 -0.4242 -0.4555  0.1107
42273SOL    HW131757   5.672   4.835   6.697 -1.1152 -0.4593  0.6187
42273SOL    HW231758   5.535   4.885   6.655 -0.3045  0.6649 -0.7668
42274SOL     OW31759  11.183   7.199  10.766 -0.0375 -0.7591 -0.3383
42274SOL    HW131760  11.143   7.120  10.802  2.4070 -1.3081  1.4105
42274SOL    HW231761  11.181   7.262  10.838  1.6573 -0.6284 -0.3787
42275SOL     OW31762   2.899   9.927   1.988 -0.0490  0.4791 -0.0179
42275SOL    HW131763   2.984   9.972   1.980  1.5899 -2.3391  0.0643
42275SOL    HW231764   2.868   9.919   1.898 -0.5186  1.9423 -0.0110
42276SOL     OW31765   9.283   4.053   7.440 -0.3149 -0.1218 -0.5085
42276SOL    HW131766   9.298   4.035   7.347 -1.1452 -2.3658 -0.2601
42276SOL    HW231767   9.371   4.064   7.476  0.1651 -1.4162 -1.1895
42277SOL     OW31768   5.335   6.745   4.422  0.4709 -0.0983 -0.2525
42277SOL    HW131769   5.272   6.767   4.490 -1.2840  0.2838 -1.9152
42277SOL    HW231770   5.292   6.676   4.371  0.1722  1.8815 -2.9329
42278SOL     OW31771   5.636   2.246   7.020  0.1642 -0.4825 -0.0973
42278SOL    HW131772   5.608   2.155   7.014 -1.9015  0.1284 -0.7260
42278SOL    HW231773   5.573   2.294   6.966  0.1004  1.5190  1.6245
42279SOL     OW31774  10.963   6.767  10.579 -0.2030 -0.1714  0.3164
42279SOL    HW131775  10.956   6.694  10.642  2.5573 -2.2470 -1.5556
42279SOL    HW231776  10.899   6.747  10.512  0.8741 -1.2073 -0.4344
42280SOL     OW31777   2.411  10.907   6.748 -0.0628  0.4147  0.0772
42280SOL    HW131778   2.330  10.931   6.791  1.2938  2.3761  1.7199
42280SOL    HW231779   2.444  10.832   6.798  0.5305  1.4604  1.3277
42281SOL     OW31780   4.825   6.623   2.523  0.1315  0.7781  0.1072
42281SOL    HW131781   4.796   6.608   2.433  1.5951  1.7125 -0.5568
42281SOL    HW231782   4.775   6.700   2.551 -2.3600 -1.0656  1.1354
42282SOL     OW31783  10.631  11.045   6.630 -0.8155 -0.1666  0.2512
42282SOL    HW131784  10.710  10.991   6.631 -1.1294 -0.7288 -1.4310
42282SOL    HW231785  10.605  11.047   6.538 -1.6869  1.6021  0.4874
42283SOL     OW31786   6.201   2.797   5.594 -0.2263 -0.2294 -0.1778
42283SOL    HW131787   6.200   2.890   5.615  1.0489 -0.2558  0.1475
42283SOL    HW231788   6.286   2.783   5.552  0.0879 -1.4209  0.7612
42284SOL     OW31789   0.328   8.808  11.112  0.0767 -0.0741  0.1043
42284SOL    HW131790   0.260   8.763  11.163  0.4298 -0.6347  0.0959
42284SOL    HW231791   0.362   8.875  11.171  0.8080 -1.0250  0.8021
42285SOL     OW31792  10.306   3.253   6.303  0.7710  0.8488  0.2977
42285SOL    HW131793  10.221   3.226   6.339  0.5220 -0.8614 -1.4149
42285SOL    HW231794  10.285   3.324   6.243  0.5150  0.3962 -0.1620
42286SOL     OW31795  11.085   4.071   9.499  0.2514 -0.2416  0.2455
42286SOL    HW131796  11.051   4.050   9.586  0.5969 -0.1797  0.3946
42286SOL    HW231797  11.062   4.163   9.486 -1.2764 -0.6737 -0.4137
42287SOL     OW31798   8.470   0.348  10.744 -0.2629 -0.0847 -0.6007
42287SOL    HW131799   8.380   0.316  10.742 -0.0043 -0.9279 -2.8332
42287SOL    HW231800   8.523   0.269  10.728  0.7146  0.6927 -1.3490
42288SOL     OW31801   3.363   9.098   8.361  0.7316  0.5257  0.0640
42288SOL    HW131802   3.429   9.048   8.312 -0.4917 -0.5106 -0.5951
42288SOL    HW231803   3.294   9.034   8.379  0.4197  1.2928  1.7691
42289SOL     OW31804   6.162   1.765   2.624  0.3054 -0.1077  0.3874
42289SOL    HW131805   6.197   1.796   2.708 -0.5626  0.4725  0.5363
42289SOL    HW231806   6.149   1.671   2.638  0.9692 -0.1766  0.6110
42290SOL     OW31807   6.025   4.136  10.782  0.2871  0.1178 -0.2369
42290SOL    HW131808   6.007   4.043  10.799 -0.2932  0.4445  1.0062
42290SOL    HW231809   6.051   4.138  10.690  0.8077 -1.3501 -0.1539
42291SOL     OW31810   4.103   9.376   7.838 -0.0025  0.1139  0.0193
42291SOL    HW131811   4.091   9.449   7.776  0.2423  0.2476  0.1263
42291SOL    HW231812   4.175   9.405   7.895 -1.8208  1.0571  1.9391
42292SOL     OW31813   5.137  11.510   8.673 -0.2956 -0.4256  0.7791
42292SOL    HW131814   5.170  11.421   8.660  1.7655  0.2921  0.8400
42292SOL    HW231815   5.133  11.520   8.768 -1.3158 -0.7074  0.7768
42293SOL     OW31816  11.454   0.230   9.859  0.2849 -0.2551 -0.0480
42293SOL    HW131817  11.436   0.139   9.885  1.8284 -0.2674  1.1784
42293SOL    HW231818  11.447   0.280   9.941 -0.6563  0.7692 -0.7266
42294SOL     OW31819   7.656   8.973  11.157  0.1201 -0.1265 -0.1732
42294SOL    HW131820   7.747   8.999  11.173  0.1267 -0.3115  0.1146
42294SOL    HW231821   7.604   9.033  11.210  0.1375 -0.6983  0.5171
42295SOL     OW31822   0.669   3.486   5.342  0.0870 -0.1923  0.2088
42295SOL    HW131823   0.607   3.441   5.285  3.1547 -0.8558 -2.9899
42295SOL    HW231824   0.676   3.574   5.305  0.1579  0.2978  1.3308
42296SOL     OW31825   4.236   4.860   4.319 -0.5432  0.6761  0.7022
42296SOL    HW131826   4.280   4.843   4.403  1.5563  3.1040  0.2227
42296SOL    HW231827   4.144   4.837   4.335  0.0711 -0.3867  3.1681
42297SOL     OW31828   8.087   1.471   1.885 -0.4411  0.3512 -0.5264
42297SOL    HW131829   8.106   1.534   1.954 -1.9203 -2.6827  2.9680
42297SOL    HW231830   8.170   1.426   1.870  0.0038  1.3526 -1.1442
42298SOL     OW31831   1.760   8.199   6.746 -0.1194  0.0031  0.0129
42298SOL    HW131832   1.824   8.267   6.726 -0.7720  0.1315 -1.8031
42298SOL    HW231833   1.808   8.135   6.798  2.2522 -1.1124 -3.2622
42299SOL     OW31834  10.823   3.387   4.656  0.0913  0.0542  0.0112
42299SOL    HW131835  10.872   3.455   4.701  0.6014 -0.3372  0.0637
42299SOL    HW231836  10.827   3.413   4.563 -0.2380  0.4126  0.0947
42300SOL     OW31837   2.417   5.843  10.232  0.4082  0.1884  0.1360
42300SOL    HW131838   2.423   5.937  10.213 -0.8754  0.4205  0.7397
42300SOL    HW231839   2.507   5.811  10.224  0.9693  1.5866  0.5047
42301SOL     OW31840   1.732   8.643   7.984 -0.5141 -0.1053  0.1579
42301SOL    HW131841   1.768   8.713   7.931 -0.8383  0.1545  0.2757
42301SOL    HW231842   1.805   8.613   8.037 -0.0639 -0.6963 -0.7723
42302SOL     OW31843   6.832   4.694   9.813  0.4492 -0.0478  0.0037
42302SOL    HW131844   6.858   4.709   9.904  0.2803  1.9363 -0.2198
42302SOL    HW231845   6.777   4.770   9.791  0.3997 -0.5381 -1.7148
42303SOL     OW31846   0.173   7.224   3.478  0.6447 -0.2571  0.1113
42303SOL    HW131847   0.194   7.308   3.437 -2.6041  0.0695 -1.1913
42303SOL    HW231848   0.134   7.248   3.562  1.8010 -0.6339  0.7773
42304SOL     OW31849   0.023   6.084   2.483 -0.1407  0.1139  0.5702
42304SOL    HW131850  -0.032   6.010   2.508  1.1022 -1.1489 -0.2587
42304SOL    HW231851   0.113   6.054   2.499  0.5039  0.6907 -1.5822
42305SOL     OW31852   4.684   7.073   6.223 -0.3012  0.8733 -0.1600
42305SOL    HW131853   4.624   6.999   6.234  1.4637 -0.5049  0.6441
42305SOL    HW231854   4.646   7.143   6.277  0.0676 -0.7856  2.3999
42306SOL     OW31855  10.701   6.689   1.395 -0.0630 -0.3868  0.4965
42306SOL    HW131856  10.732   6.642   1.318  0.4486 -1.1808  1.1592
42306SOL    HW231857  10.707   6.625   1.466 -0.8218  0.2243  1.1412
42307SOL     OW31858   4.042   5.935   0.147  0.2000  0.4792  0.1169
42307SOL    HW131859   4.104   5.871   0.112  0.7526  0.3513  1.2890
42307SOL    HW231860   4.032   6.000   0.076  0.9938  0.0425 -0.4136
42308SOL     OW31861   0.396   0.570   2.799 -0.0301  0.0420  0.0789
42308SOL    HW131862   0.476   0.520   2.780 -0.8225 -0.8140 -1.2019
42308SOL    HW231863   0.388   0.631   2.726  0.4246  1.4439  1.1600
42309SOL     OW31864   0.663   9.608   3.334  0.0327 -0.3681 -0.5451
42309SOL    HW131865   0.604   9.547   3.290  0.2975  0.2774 -1.8533
42309SOL    HW231866   0.606   9.668   3.381 -0.3914  0.2647 -1.8167
42310SOL     OW31867   9.072   9.828   0.149  0.2626 -0.0851 -1.0789
42310SOL    HW131868   9.080   9.922   0.133  4.9851 -0.1310 -0.1732
42310SOL    HW231869   9.077   9.789   0.062  0.9096  0.4414 -1.2858
42311SOL     OW31870   9.679   2.374  11.115  0.2219 -0.0447  0.3195
42311SOL    HW131871   9.691   2.399  11.023 -1.2805  0.1458  0.1526
42311SOL    HW231872   9.739   2.430  11.164  0.2249  0.6401 -0.4559
42312SOL     OW31873   5.823   1.626   3.615 -0.0902  0.2340  0.3396
42312SOL    HW131874   5.902   1.621   3.669 -0.1264  0.8248  0.4525
42312SOL    HW231875   5.754   1.655   3.675 -0.3790 -0.1894  0.2204
42313SOL     OW31876  10.986   5.632   7.495 -0.0705  0.0843 -0.5028
42313SOL    HW131877  10.971   5.700   7.430  0.2931  1.2536  0.5946
42313SOL    HW231878  11.081   5.618   7.496  0.0792  0.9858  0.6178
42314SOL     OW31879   2.487   2.750   7.840 -0.4464  0.2858  0.5577
42314SOL    HW131880   2.461   2.697   7.764  1.2178  1.0151 -0.5870
42314SOL    HW231881   2.535   2.689   7.896  0.6292  0.3067 -0.2953
42315SOL     OW31882   7.486   5.304   8.468  0.2076 -0.2903  0.7976
42315SOL    HW131883   7.577   5.317   8.441 -0.4679 -0.4321 -1.7452
42315SOL    HW231884   7.434   5.346   8.400 -1.7048 -2.4330  0.8056
42316SOL     OW31885   7.561   5.390   1.991  0.2809  0.1184  0.0192
42316SOL    HW131886   7.466   5.378   1.984  0.3109 -0.7288  0.8295
42316SOL    HW231887   7.583   5.450   1.920 -0.7756 -0.1619 -0.5677
42317SOL     OW31888   3.187  10.258  10.153  0.3132 -0.1338 -0.0674
42317SOL    HW131889   3.169  10.263  10.059 -1.5221  1.9888  0.3099
42317SOL    HW231890   3.152  10.173  10.180 -2.8804  0.8567 -0.6799
42318SOL     OW31891   2.133  10.942   6.066 -0.2727  0.0722  0.2097
42318SOL    HW131892   2.099  10.853   6.066 -0.7321  0.1746 -2.7124
42318SOL    HW231893   2.220  10.934   6.027 -0.1250  0.8656  0.3600
42319SOL     OW31894   4.581   9.651   3.363  0.0184 -0.4630  0.2246
42319SOL    HW131895   4.582   9.561   3.397  0.0609 -0.8529 -0.7595
42319SOL    HW231896   4.648   9.697   3.414  0.9187 -1.3403 -0.1358
42320SOL     OW31897   8.152   0.834   5.853  0.2842  0.3408  0.4217
42320SOL    HW131898   8.204   0.891   5.910  0.1770 -1.1805  2.1527
42320SOL    HW231899   8.066   0.831   5.895  0.0460 -0.4338 -0.1053
42321SOL     OW31900   8.978   5.677   4.116  0.2240  0.1137  0.0595
42321SOL    HW131901   9.045   5.674   4.047 -0.2375  1.0128 -0.4559
42321SOL    HW231902   8.899   5.707   4.071 -0.1203  0.5943  0.9547
42322SOL     OW31903   6.587   9.404   1.160  0.1063  0.0492 -0.0181
42322SOL    HW131904   6.661   9.450   1.200  0.0059  1.1151 -0.9903
42322SOL    HW231905   6.553   9.348   1.229  1.1298  0.3767  0.7819
42323SOL     OW31906   3.201   9.697   9.515 -0.2959 -0.2379 -0.0354
42323SOL    HW131907   3.158   9.616   9.543  0.6395 -0.6334  0.2959
42323SOL    HW231908   3.271   9.667   9.457 -0.9305  0.4456 -1.1763
42324SOL     OW31909   7.651   2.332   6.565  1.2731  0.2142  0.1248
42324SOL    HW131910   7.729   2.288   6.531  2.3191  1.6550  0.5639
42324SOL    HW231911   7.654   2.316   6.660  0.9654  0.1926  0.1325
42325SOL     OW31912   7.812   5.602  10.027  0.4339 -0.2194  0.1213
42325SOL    HW131913   7.812   5.641  10.115  0.0074 -0.6099  0.3021
42325SOL    HW231914   7.862   5.522  10.037 -1.5365 -1.4720  0.5924
42326SOL     OW31915   0.455  11.680   2.763  0.3561  0.2187  0.2757
42326SOL    HW131916   0.453  11.642   2.675  0.2783 -1.6856  1.0534
42326SOL    HW231917   0.535  11.645   2.802  0.3022  0.9036  1.0316
42327SOL     OW31918   6.866   3.883   0.619 -0.0456 -0.1544  0.3127
42327SOL    HW131919   6.845   3.953   0.558 -0.8945  0.5945  1.4155
42327SOL    HW231920   6.857   3.802   0.568  0.0804  0.4838 -0.7460
42328SOL     OW31921   8.442  11.099   6.722  0.0711  0.2891 -0.6165
42328SOL    HW131922   8.463  11.180   6.768  2.8268  0.4215 -1.9335
42328SOL    HW231923   8.381  11.126   6.653 -1.3809  0.6526  0.7454
42329SOL     OW31924  10.071   7.435   5.100 -0.5328 -0.5397  0.5234
42329SOL    HW131925  10.061   7.520   5.058 -2.4389 -1.4031 -0.9316
42329SOL    HW231926  10.029   7.445   5.185 -1.1999 -0.1590  0.1522
42330SOL     OW31927   2.274   0.186   8.508 -0.0161 -0.5153 -0.5792
42330SOL    HW131928   2.239   0.148   8.427  0.3200  0.4553 -1.1929
42330SOL    HW231929   2.245   0.277   8.506  2.0870  0.2044 -0.8700
42331SOL     OW31930   2.581   4.918   6.458  0.3654  0.5352 -0.1438
42331SOL    HW131931   2.513   4.894   6.396 -0.9993  2.2084  0.6285
42331SOL    HW231932   2.546   4.892   6.544  1.2902  0.1969  0.1467
42332SOL     OW31933   2.453   1.772   5.011 -0.1164 -0.1882 -0.5046
42332SOL    HW131934   2.376   1.784   5.067 -0.4583 -1.7869 -0.5648
42332SOL    HW231935   2.469   1.858   4.972 -1.8967  0.1826 -0.4991
42333SOL     OW31936  11.642   0.814   3.004  0.6230  0.4163  0.4650
42333SOL    HW131937  11.705   0.751   2.968 -0.9543 -1.9227  1.5435
42333SOL    HW231938  11.592   0.844   2.928  0.9594 -0.1758 -0.0051
42334SOL     OW31939   8.615  11.123   6.444 -0.1512 -0.0123  0.3632
42334SOL    HW131940   8.545  11.069   6.480 -1.3026  1.2047  0.0105
42334SOL    HW231941   8.690  11.108   6.502 -1.1054 -0.3102  1.5441
42335SOL     OW31942   6.942   0.777   8.198  0.1653  0.7514  0.4506
42335SOL    HW131943   6.981   0.837   8.262  0.9621 -2.9378  3.8156
42335SOL    HW231944   6.851   0.768   8.225 -0.0716  0.7267 -0.3182
42336SOL     OW31945   9.275   2.543   2.396 -0.1262  0.1275 -0.1016
42336SOL    HW131946   9.183   2.566   2.383 -0.7866 -2.0343  0.2982
42336SOL    HW231947   9.313   2.618   2.442 -1.2059  1.8291 -1.8520
42337SOL     OW31948   0.764   2.188   6.355 -0.2513  0.4020  0.2792
42337SOL    HW131949   0.809   2.140   6.286  0.4902 -0.9057  1.5925
42337SOL    HW231950   0.672   2.187   6.329  0.0350  0.1368 -0.7868
42338SOL     OW31951   8.846   9.821  11.075  0.0329 -0.5998  0.0602
42338SOL    HW131952   8.894   9.865  11.005 -0.9519 -0.9766 -0.8816
42338SOL    HW231953   8.795   9.892  11.116  0.7413 -0.3483  0.5165
42339SOL     OW31954   1.522   2.525   0.754 -0.0350 -0.0954 -0.3537
42339SOL    HW131955   1.433   2.490   0.747 -1.0656  2.3681 -0.2791
42339SOL    HW231956   1.511   2.615   0.785  2.4783  0.4059 -0.6792
42340SOL     OW31957   0.374   8.490   9.842 -0.0074  0.1112 -0.0304
42340SOL    HW131958   0.332   8.571   9.869  1.2603  0.4182  1.1181
42340SOL    HW231959   0.430   8.514   9.769 -1.0678 -0.1274 -0.9570
42341SOL     OW31960   6.051   8.295   5.067  0.4282 -0.6280  0.2322
42341SOL    HW131961   6.015   8.380   5.093  1.3771 -0.2006  0.1962
42341SOL    HW231962   6.034   8.289   4.973 -0.8376 -1.0948  0.4658
42342SOL     OW31963   7.793  10.466  11.152 -0.1204 -0.1838  0.4708
42342SOL    HW131964   7.730  10.523  11.197 -1.2612 -0.7146 -0.4048
42342SOL    HW231965   7.779  10.483  11.059  2.6256  1.3436  0.2237
42343SOL     OW31966   2.097   0.810   0.785  0.2421  0.6131 -0.0224
42343SOL    HW131967   2.022   0.834   0.730  0.3871 -0.8306 -0.9097
42343SOL    HW231968   2.068   0.734   0.834  1.1815 -0.1352 -0.5774
42344SOL     OW31969   4.823   9.151   9.073 -0.2231  0.0130 -0.2026
42344SOL    HW131970   4.883   9.221   9.048 -0.6180  0.9767  1.3611
42344SOL    HW231971   4.738   9.180   9.040 -0.4548  0.4992  0.7680
42345SOL     OW31972  11.578   7.018  10.948  0.4598 -0.7821 -0.1706
42345SOL    HW131973  11.652   6.962  10.922 -0.5250 -1.5522 -1.4435
42345SOL    HW231974  11.564   7.075  10.873 -0.3832 -0.8117 -0.0457
42346SOL     OW31975   9.157   2.772   2.161 -0.0330 -0.2186 -0.3324
42346SOL    HW131976   9.131   2.848   2.108 -2.0793  0.0154  0.9084
42346SOL    HW231977   9.202   2.809   2.236 -0.2381 -0.3001 -0.1698
42347SOL     OW31978   3.544   4.862  11.627  0.3033 -0.1418  0.0930
42347SOL    HW131979   3.462   4.818  11.604  0.1420 -0.0454  0.4735
42347SOL    HW231980   3.524   4.956  11.621 -0.3778 -0.0359  2.6277
42348SOL     OW31981   5.908   7.541   2.554 -0.4943  0.3392  0.3002
42348SOL    HW131982   5.813   7.538   2.560 -0.3822 -1.8984  3.2220
42348SOL    HW231983   5.932   7.452   2.529  0.8625  1.0252 -0.9843
42349SOL     OW31984   4.794   9.354   8.237  0.3669 -0.3548 -0.4829
42349SOL    HW131985   4.874   9.305   8.217  0.0741 -1.3679  0.7180
42349SOL    HW231986   4.758   9.310   8.315 -1.5378 -0.1267 -1.1938
42350SOL     OW31987   1.244  10.279  11.010 -0.1856 -0.2602  0.1274
42350SOL    HW131988   1.312  10.288  10.943  0.7474  0.2994  1.1383
42350SOL    HW231989   1.280  10.321  11.088 -0.9726 -1.4972  1.2020
42351SOL     OW31990   9.756   1.624   1.369 -0.4279  0.2207  0.0769
42351SOL    HW131991   9.797   1.603   1.453 -0.8571 -0.9600  0.0110
42351SOL    HW231992   9.789   1.557   1.309 -0.9759  0.3845 -0.4182
42352SOL     OW31993   8.265   7.376  11.455  1.2502  0.1296  0.6497
42352SOL    HW131994   8.350   7.420  11.467  0.5913  1.5859  0.2374
42352SOL    HW231995   8.246   7.386  11.362  1.0456 -1.0286  0.5524
42353SOL     OW31996   9.693   7.154   0.488 -0.1206  0.2537  0.0152
42353SOL    HW131997   9.613   7.199   0.514 -0.4432 -0.6890  0.7381
42353SOL    HW231998   9.762   7.219   0.502 -0.5555  0.5049  1.1212
42354SOL     OW31999   0.079  10.349  11.412  0.2371 -0.2227  0.5700
42354SOL    HW132000   0.029  10.273  11.382 -1.2766  0.7090  0.6187
42354SOL    HW232001   0.162  10.343  11.366 -0.2393 -1.3802 -0.1777
42355SOL     OW32002   1.882   7.413  11.304 -0.4088 -0.4648  0.2636
42355SOL    HW132003   1.969   7.396  11.340  0.7008  4.4076  0.6350
42355SOL    HW232004   1.893   7.408  11.209  1.5904  3.7574  0.0450
42356SOL     OW32005   7.344   4.847   4.613  0.5487  0.9659 -0.5424
42356SOL    HW132006   7.353   4.926   4.560 -0.1229  2.4497  1.4283
42356SOL    HW232007   7.258   4.812   4.591 -0.2726  2.2873  0.3985
42357SOL     OW32008   6.923   0.295   1.709 -0.5058 -0.2909 -0.1951
42357SOL    HW132009   6.963   0.321   1.626 -2.9285  0.8715 -1.0922
42357SOL    HW232010   6.931   0.373   1.764 -1.0149 -0.2467 -0.1833
42358SOL     OW32011  11.469   9.892   3.425 -0.5446  0.2322 -0.2781
42358SOL    HW132012  11.436   9.884   3.336  0.0835 -0.0877 -0.4913
42358SOL    HW232013  11.403   9.849   3.479 -1.5497  1.5388 -0.4384
42359SOL     OW32014   3.470   3.343  11.005 -0.0321 -0.1826  0.3032
42359SOL    HW132015   3.513   3.428  10.998 -1.8795  0.7919  0.1887
42359SOL    HW232016   3.540   3.280  10.994  0.9666  1.2842 -2.8073
42360SOL     OW32017   7.962   8.536  10.375 -0.1428  0.1672  0.0440
42360SOL    HW132018   8.028   8.502  10.314  0.4394  1.3249  0.0045
42360SOL    HW232019   7.879   8.523  10.330  0.2343  0.4983 -0.7710
42361SOL     OW32020  11.495   7.651   4.194 -0.2294 -0.0729 -0.2979
42361SOL    HW132021  11.539   7.586   4.249  0.8238 -1.5804 -2.7699
42361SOL    HW232022  11.565   7.706   4.161 -0.7838  0.5309 -0.4836
42362SOL     OW32023   6.192   7.497   9.426 -0.2549  0.3331 -0.0279
42362SOL    HW132024   6.105   7.467   9.454 -1.3164 -0.3382 -3.5303
42362SOL    HW232025   6.253   7.440   9.473 -1.7932 -0.5853  0.9497
42363SOL     OW32026   2.291   9.466   6.182 -0.0991  0.0461  0.1063
42363SOL    HW132027   2.218   9.479   6.121 -0.5194  2.0153  0.9425
42363SOL    HW232028   2.253   9.482   6.269  0.2996 -3.3848  1.0733
42364SOL     OW32029   0.688   2.465   4.524  0.2616  0.1185 -0.1382
42364SOL    HW132030   0.646   2.545   4.555 -0.2120  0.0775 -0.6702
42364SOL    HW232031   0.703   2.480   4.431  1.2601  0.0537 -0.0058
42365SOL     OW32032  11.113  10.962   0.581  0.1929 -0.4977  0.2109
42365SOL    HW132033  11.155  10.879   0.601  0.6734 -0.4136 -0.4402
42365SOL    HW232034  11.041  10.940   0.521 -0.2718 -0.5521  0.7740
42366SOL     OW32035   4.742  10.537   8.630 -0.2095 -0.5044 -0.6228
42366SOL    HW132036   4.794  10.554   8.708  1.0389 -1.0609 -1.3173
42366SOL    HW232037   4.687  10.616   8.621 -0.3296 -0.3972  0.7455
42367SOL     OW32038   9.718   8.065   0.788 -0.0769  0.5185  0.7254
42367SOL    HW132039   9.657   8.019   0.731 -1.1373  1.4113  1.1150
42367SOL    HW232040   9.759   7.996   0.840 -0.4841 -0.1214  0.2054
42368SOL     OW32041  10.202   1.307  11.493  0.4772 -0.1965 -0.3675
42368SOL    HW132042  10.262   1.238  11.520  1.3588  0.6460 -0.1265
42368SOL    HW232043  10.130   1.260  11.450  0.5611 -1.3341  0.6734
42369SOL     OW32044   3.637   7.660   9.633 -0.1927 -0.2839 -0.0042
42369SOL    HW132045   3.665   7.581   9.679  2.3855  0.9343  0.7297
42369SOL    HW232046   3.668   7.648   9.544 -0.9245 -0.6206 -0.2166
42370SOL     OW32047   3.777   4.473   2.024  0.2280  0.2282  0.5823
42370SOL    HW132048   3.732   4.473   2.109  0.5345 -0.5385  0.7583
42370SOL    HW232049   3.723   4.418   1.968  0.9671 -0.7814  0.8234
42371SOL     OW32050   7.012   3.223   2.924 -0.4976  0.3607 -0.4089
42371SOL    HW132051   6.922   3.230   2.892 -0.9297  0.2131  0.7173
42371SOL    HW232052   7.017   3.137   2.966  1.0265 -0.8891 -2.8926
42372SOL     OW32053   3.864  11.551   4.843 -0.5013 -0.0198  0.3356
42372SOL    HW132054   3.950  11.575   4.808 -0.0527 -3.5611 -1.5339
42372SOL    HW232055   3.880  11.536   4.936  0.5532  0.7863  0.3102
42373SOL     OW32056  11.618   0.236   6.284 -0.2132 -0.5492  0.2142
42373SOL    HW132057  11.682   0.297   6.248 -0.2812 -0.7137 -0.1864
42373SOL    HW232058  11.550   0.230   6.217 -2.1845  1.9382  1.8276
42374SOL     OW32059  10.357   5.384  10.458 -0.2117  0.4202 -0.2684
42374SOL    HW132060  10.343   5.350  10.370  0.5743 -0.8301  0.0648
42374SOL    HW232061  10.379   5.476  10.445  0.5149  0.0953 -1.4338
42375SOL     OW32062   6.861   9.120   8.592  0.7499 -0.5455 -1.0222
42375SOL    HW132063   6.935   9.060   8.583  0.0609 -1.6269  0.2160
42375SOL    HW232064   6.833   9.137   8.502  1.9948 -0.7525 -1.4693
42376SOL     OW32065   0.801  11.361   9.169 -0.9665  0.1103 -0.5348
42376SOL    HW132066   0.775  11.394   9.255 -2.0403 -0.8784 -0.4511
42376SOL    HW232067   0.813  11.267   9.182 -0.5887  0.0400 -1.3417
42377SOL     OW32068  10.035  10.994   6.367 -0.5321  0.0600  0.0853
42377SOL    HW132069   9.954  11.044   6.364 -2.0921 -2.3418 -0.4173
42377SOL    HW232070  10.085  11.024   6.291 -1.6857  0.4380 -0.5505
42378SOL     OW32071  11.271   8.324   1.889  0.1106 -0.2312  0.4132
42378SOL    HW132072  11.255   8.254   1.826 -0.8815  0.9784 -0.7406
42378SOL    HW232073  11.200   8.386   1.875  0.6446  0.7419  1.7893
42379SOL     OW32074   3.550   4.011   0.973  0.2854 -0.6963 -0.4679
42379SOL    HW132075   3.475   4.045   0.923  0.3788  0.1086 -0.0776
42379SOL    HW232076   3.533   3.917   0.980 -0.9880 -0.4498  0.0913
42380SOL     OW32077   6.998   0.405  10.574  0.4720  0.0956 -0.7369
42380SOL    HW132078   6.934   0.397  10.645  0.9172  2.2836 -0.0167
42380SOL    HW232079   7.047   0.323  10.577 -0.6800 -0.5945  0.3006
42381SOL     OW32080   7.652   1.837   2.489  0.1323 -0.1485  0.4350
42381SOL    HW132081   7.634   1.888   2.410  1.3508 -1.9369 -1.0756
42381SOL    HW232082   7.571   1.842   2.539 -0.1574  2.3158 -0.1407
42382SOL     OW32083   3.914  10.270   6.372 -0.6682  0.2258 -0.3769
42382SOL    HW132084   3.997  10.229   6.396  0.5156  1.8440 -1.4695
42382SOL    HW232085   3.848  10.223   6.423  0.8996 -1.1405  0.4905
42383SOL     OW32086   5.446   8.199   3.885  0.3050 -0.1501  0.1037
42383SOL    HW132087   5.463   8.275   3.941  1.1709 -0.7866  0.7462
42383SOL    HW232088   5.477   8.124   3.937 -0.0040 -0.8803 -0.7446
42384SOL     OW32089   6.557   1.282   7.749 -0.4988  0.2228 -0.3729
42384SOL    HW132090   6.631   1.333   7.715 -1.0467  0.2083 -1.6718
42384SOL    HW232091   6.589   1.192   7.752 -0.6648  0.1067 -1.6207
42385SOL     OW32092   1.834   7.928  11.574  0.0173  0.5668  0.6214
42385SOL    HW132093   1.919   7.949  11.536  0.1677  1.6997  1.5281
42385SOL    HW232094   1.818   7.837  11.549  0.5381  0.9543 -1.2967
42386SOL     OW32095   3.251   1.840   2.656  0.5138 -0.4762  0.5744
42386SOL    HW132096   3.271   1.762   2.707 -0.3311  0.0800  1.7973
42386SOL    HW232097   3.171   1.875   2.695  0.8683  1.0071  0.0507
42387SOL     OW32098  11.216   0.509   8.946  0.4981  0.2397 -0.1163
42387SOL    HW132099  11.189   0.436   8.890 -1.2368  2.1941 -2.0284
42387SOL    HW232100  11.252   0.574   8.885 -2.1740  2.8059  0.7574
42388SOL     OW32101   0.618   8.918   4.220  0.2547  0.3450  0.2690
42388SOL    HW132102   0.549   8.898   4.156  0.0064 -1.4039  1.0390
42388SOL    HW232103   0.574   8.972   4.285  0.2189  1.1721 -0.4201
42389SOL     OW32104  10.148   9.230   1.533  0.0653  0.1846  0.1458
42389SOL    HW132105  10.123   9.188   1.615  0.6476 -0.7725 -0.1374
42389SOL    HW232106  10.168   9.321   1.557 -1.1851  0.3034  0.7916
42390SOL     OW32107   9.034   6.054   8.165 -0.4663  0.3829  0.4683
42390SOL    HW132108   9.039   6.007   8.082  0.5769  0.4091  0.5010
42390SOL    HW232109   9.108   6.021   8.216 -0.9344  0.5653  1.2844
42391SOL     OW32110  10.195   3.916   6.582 -0.2498 -0.2146 -0.0709
42391SOL    HW132111  10.255   3.980   6.544 -1.0644  0.9315  0.4997
42391SOL    HW232112  10.145   3.883   6.508 -1.0754  1.1935 -0.1716
42392SOL     OW32113   3.996   3.180   5.732  0.2273 -0.3494 -0.1120
42392SOL    HW132114   3.987   3.091   5.767  0.6889 -0.0874  0.6886
42392SOL    HW232115   3.962   3.237   5.801 -0.4707  0.0884 -0.7922
42393SOL     OW32116   0.690   9.831   5.515  0.3395 -0.0214  0.1872
42393SOL    HW132117   0.601   9.796   5.519 -0.0887  1.1044  1.2441
42393SOL    HW232118   0.726   9.816   5.602  1.6639 -1.5931 -0.5897
42394SOL     OW32119   3.518   2.048   9.613 -0.9327  0.7503 -0.3628
42394SOL    HW132120   3.580   2.119   9.597  0.5193 -0.3496  0.1123
42394SOL    HW232121   3.553   1.974   9.563 -1.4049 -0.1100  0.5405
42395SOL     OW32122  11.308   5.582  10.785  0.5231 -0.0444  0.4146
42395SOL    HW132123  11.248   5.653  10.809  1.0847  0.8129 -0.6383
42395SOL    HW232124  11.321   5.534  10.867 -1.2515 -0.0089  0.7639
42396SOL     OW32125  11.371   2.710   0.485  0.2368  0.5074 -0.2652
42396SOL    HW132126  11.423   2.790   0.485  0.1239  0.6649  2.1335
42396SOL    HW232127  11.396   2.666   0.567 -0.4592 -1.4002 -1.0355
42397SOL     OW32128   0.757  10.637  11.673 -0.1430 -0.7994  0.3582
42397SOL    HW132129   0.741  10.659  11.764  2.1767 -0.2326  0.7031
42397SOL    HW232130   0.780  10.721  11.632  0.3413 -1.2725 -0.3655
42398SOL     OW32131  11.007   2.867   8.631  0.1920 -0.4594 -0.4785
42398SOL    HW132132  11.022   2.908   8.546 -0.5410  0.6705 -0.0891
42398SOL    HW232133  10.959   2.787   8.611  0.4672 -0.4687 -1.1520
42399SOL     OW32134  11.534   5.424   7.126  0.0336 -0.4020 -0.2473
42399SOL    HW132135  11.585   5.465   7.195 -1.8977  0.9059  0.4934
42399SOL    HW232136  11.556   5.473   7.047 -0.5221  0.5965  0.1968
42400SOL     OW32137   0.781   8.938   2.661  0.0048  0.1808 -0.0861
42400SOL    HW132138   0.844   8.869   2.641  0.0815  0.3795 -0.5618
42400SOL    HW232139   0.745   8.915   2.746 -1.6843 -1.7062 -1.2307
42401SOL     OW32140  10.725   8.913   9.062  0.1653  0.3342  0.5073
42401SOL    HW132141  10.781   8.976   9.107 -0.0195  0.0412  1.1641
42401SOL    HW232142  10.662   8.885   9.128 -1.2541  1.2262 -0.4183
42402SOL     OW32143   8.893  11.052   8.794  0.1292 -0.2672 -0.6473
42402SOL    HW132144   8.834  11.030   8.723  2.0436  0.7589 -2.6880
42402SOL    HW232145   8.977  11.014   8.768  1.1902  1.2260  0.4038
42403SOL     OW32146  11.684   3.520   7.624 -0.2155  0.3116  0.5528
42403SOL    HW132147  11.640   3.604   7.640 -0.2176  0.5667 -0.7252
42403SOL    HW232148  11.769   3.544   7.588  0.3340 -0.2227  1.4462
42404SOL     OW32149   5.185   9.336   4.719 -0.3491 -0.0275  0.4268
42404SOL    HW132150   5.182   9.352   4.814 -2.0877  2.8829  0.0124
42404SOL    HW232151   5.259   9.388   4.688  0.0980 -0.8211  0.1433
42405SOL     OW32152   3.766   5.800   8.136  0.0158  0.3484 -0.4572
42405SOL    HW132153   3.835   5.740   8.161 -0.4844  0.4757  1.3186
42405SOL    HW232154   3.725   5.759   8.060  1.1757 -0.3716 -0.7181
42406SOL     OW32155   6.200   9.318   1.361 -0.3245 -0.2749  0.9126
42406SOL    HW132156   6.221   9.410   1.347  0.5738 -0.6314 -0.2302
42406SOL    HW232157   6.114   9.307   1.322 -0.0676 -0.1010  0.2868
42407SOL     OW32158   8.239   4.010   7.517  0.3578  0.3412  0.5227
42407SOL    HW132159   8.187   4.072   7.466  0.2471  1.0279  1.4303
42407SOL    HW232160   8.178   3.976   7.582  0.1010 -1.6456 -0.6799
42408SOL     OW32161  10.979   8.052   1.135  0.4596  0.3670  0.2913
42408SOL    HW132162  11.020   8.051   1.222  0.1722  2.2657  0.4945
42408SOL    HW232163  10.981   8.145   1.110 -0.5148 -0.0102 -1.2284
42409SOL     OW32164  11.144   7.336   5.706 -0.1926  0.3380  0.0599
42409SOL    HW132165  11.239   7.326   5.697 -0.3138 -0.8971 -0.1284
42409SOL    HW232166  11.133   7.408   5.767  0.9026 -0.4763  1.2844
42410SOL     OW32167   1.335   3.606   3.740 -0.4539  0.1328 -0.0115
42410SOL    HW132168   1.405   3.669   3.759 -0.4503  0.5304 -1.2248
42410SOL    HW232169   1.255   3.648   3.772 -0.5748  1.1931 -1.5820
42411SOL     OW32170   5.523   6.538   4.590  0.3735  0.6541  0.7333
42411SOL    HW132171   5.473   6.542   4.672 -0.8599 -0.9130  0.1237
42411SOL    HW232172   5.457   6.519   4.524  1.5415  0.5250 -0.4177
42412SOL     OW32173   7.957   9.499  11.554  0.2102 -0.0353 -0.5293
42412SOL    HW132174   7.975   9.406  11.561 -0.0265 -0.2957 -2.8365
42412SOL    HW232175   7.990   9.524  11.468  0.9761  2.2032  0.3349
42413SOL     OW32176  10.275  10.302   6.998  0.0363  0.1852  0.1992
42413SOL    HW132177  10.350  10.361   6.998  0.0100  0.3027  2.3921
42413SOL    HW232178  10.200  10.358   7.020 -0.2797 -0.3417  0.5072
42414SOL     OW32179   5.600   6.343   8.822  0.0138  0.3973 -0.5546
42414SOL    HW132180   5.613   6.437   8.837  0.0357  0.2676  0.2894
42414SOL    HW232181   5.535   6.339   8.752 -0.7482  1.0459  0.0978
42415SOL     OW32182   0.492   6.595   7.582 -0.7300 -0.2835 -0.7972
42415SOL    HW132183   0.456   6.680   7.606 -0.9912 -0.5254 -0.3211
42415SOL    HW232184   0.476   6.589   7.488 -0.4306  0.3223 -0.8938
42416SOL     OW32185   4.276   8.371   6.766 -0.6746 -0.0810  0.0740
42416SOL    HW132186   4.350   8.318   6.795 -0.3028  0.3555 -0.0572
42416SOL    HW232187   4.216   8.309   6.726 -0.8866 -0.5940  1.1646
42417SOL     OW32188  10.358   5.091   2.428  0.3134  0.6417 -0.3907
42417SOL    HW132189  10.421   5.122   2.494  1.1646 -0.5402 -0.6181
42417SOL    HW232190  10.402   5.105   2.345  0.5952 -0.8609 -0.5139
42418SOL     OW32191   2.748   6.020  10.363 -0.3670 -0.3532  0.4220
42418SOL    HW132192   2.796   6.063  10.434 -0.4079  0.4681 -0.0341
42418SOL    HW232193   2.754   5.927  10.383  0.6375 -0.2045  0.8589
42419SOL     OW32194   7.079   6.851   7.652 -0.0834 -0.3800  0.5607
42419SOL    HW132195   7.066   6.839   7.558  0.2264 -1.2514  0.6203
42419SOL    HW232196   7.100   6.763   7.685  0.1785 -0.0201  1.3846
42420SOL     OW32197   4.912  11.136   1.863  0.0925 -0.5255 -0.1192
42420SOL    HW132198   4.870  11.069   1.809  0.7944 -1.0582 -0.0209
42420SOL    HW232199   5.001  11.104   1.875  0.7115  0.8789 -0.8250
42421SOL     OW32200   7.549  10.395   7.725 -0.7816 -0.3807 -0.4644
42421SOL    HW132201   7.470  10.445   7.744 -1.1089 -1.1924  0.4336
42421SOL    HW232202   7.517  10.311   7.692 -0.3264 -0.8189  0.1559
42422SOL     OW32203   1.494   0.017   5.943  0.0947 -0.2602  0.1519
42422SOL    HW132204   1.475   0.095   5.995 -0.5605 -1.0553  1.1319
42422SOL    HW232205   1.423  -0.043   5.963  0.5875 -1.1110 -0.6028
42423SOL     OW32206   0.491   8.061   2.979  0.5416  0.1513  0.3348
42423SOL    HW132207   0.399   8.048   2.956  0.1887  0.9215  1.2311
42423SOL    HW232208   0.509   7.991   3.042  0.2609  0.5969  0.9255
42424SOL     OW32209   5.035   2.150   8.450  0.0825 -0.4221 -0.2959
42424SOL    HW132210   4.974   2.112   8.513  0.4114 -0.9513 -0.2888
42424SOL    HW232211   5.084   2.075   8.416  0.7361 -0.0096 -0.2859
42425SOL     OW32212   6.038   7.710   7.276  0.1035  0.3916  0.0200
42425SOL    HW132213   6.099   7.651   7.231  1.4347  2.9375 -1.7338
42425SOL    HW232214   6.050   7.689   7.369  0.7002 -1.8584 -0.4918
42426SOL     OW32215   9.733   1.845   9.436  0.7693  0.0706 -0.0214
42426SOL    HW132216   9.807   1.827   9.494  0.9767 -0.5994 -0.4922
42426SOL    HW232217   9.729   1.770   9.377 -0.5215 -0.0813  0.2329
42427SOL     OW32218   5.145   1.749   3.321  0.3646  0.2491  0.1235
42427SOL    HW132219   5.159   1.821   3.382  1.1406 -0.2229  0.5058
42427SOL    HW232220   5.221   1.751   3.263  1.9581 -2.0593  1.9505
42428SOL     OW32221  10.268   3.741   6.886 -0.0329 -0.5279  1.1393
42428SOL    HW132222  10.324   3.818   6.872 -0.4743 -0.4089 -0.0811
42428SOL    HW232223  10.179   3.773   6.867 -0.2683 -1.2301  1.0307
42429SOL     OW32224  10.235   3.919   8.345  0.1407  0.0229 -0.4600
42429SOL    HW132225  10.322   3.957   8.357  0.3357 -0.4477 -0.3873
42429SOL    HW232226  10.211   3.942   8.255  0.5716 -0.3181 -0.6639
42430SOL     OW32227   8.665   5.760  10.091  0.5918 -0.2000 -0.2973
42430SOL    HW132228   8.587   5.789  10.138 -1.1818 -3.8436 -0.6324
42430SOL    HW232229   8.705   5.696  10.149  2.7709  0.7597 -0.6448
42431SOL     OW32230   2.163   1.724   3.012 -0.2038  0.2153 -0.4609
42431SOL    HW132231   2.257   1.740   3.007  0.1283 -1.3936  0.0263
42431SOL    HW232232   2.135   1.714   2.920 -0.0518  1.3818 -0.6475
42432SOL     OW32233   2.694   3.609   6.614 -0.0487  0.0172  0.3555
42432SOL    HW132234   2.704   3.529   6.561  1.3398 -0.0298  0.6477
42432SOL    HW232235   2.721   3.583   6.702 -0.0498  0.6991  0.5580
42433SOL     OW32236   4.968   0.455   7.363 -0.2102 -0.0535  0.5019
42433SOL    HW132237   5.003   0.444   7.274 -0.3607  0.0906  0.4253
42433SOL    HW232238   5.011   0.386   7.414 -1.8210 -1.6459 -0.1827
42434SOL     OW32239   7.760   1.995   6.404  0.5209  0.3029  0.2566
42434SOL    HW132240   7.705   2.051   6.349  0.3631  1.3481  1.4302
42434SOL    HW232241   7.849   2.030   6.392  0.6569 -0.1832 -0.1844
42435SOL     OW32242   5.791   1.486   8.794  0.1592 -0.2921 -0.3388
42435SOL    HW132243   5.781   1.419   8.727 -1.3630 -0.3436 -0.1126
42435SOL    HW232244   5.790   1.438   8.877 -0.9899 -0.0275 -0.1722
42436SOL     OW32245   1.785   7.180   0.658  0.1265  0.8527  0.2820
42436SOL    HW132246   1.770   7.109   0.720  1.9602 -0.0719 -0.2657
42436SOL    HW232247   1.850   7.236   0.700  0.9409  0.5398 -0.5429
42437SOL     OW32248   4.734   7.653   4.941  0.1179 -0.3567  0.1232
42437SOL    HW132249   4.780   7.737   4.951  1.1994 -0.6486 -1.7899
42437SOL    HW232250   4.652   7.676   4.898  0.7168 -0.3109 -1.0361
42438SOL     OW32251   7.328   2.416   2.813 -0.1358  0.3431  0.1616
42438SOL    HW132252   7.266   2.431   2.742  0.3222 -1.4238 -0.6680
42438SOL    HW232253   7.384   2.345   2.782  0.8315  0.3168  1.8228
42439SOL     OW32254   8.030   0.401   4.848 -0.0390 -0.0429 -0.4047
42439SOL    HW132255   7.948   0.367   4.813 -0.1427 -1.8252  1.3613
42439SOL    HW232256   8.093   0.391   4.777 -0.6468 -1.7207 -0.7512
42440SOL     OW32257   7.800   3.324   7.989 -0.0384  0.1407  0.0992
42440SOL    HW132258   7.845   3.317   8.073  0.5994  0.0929 -0.2353
42440SOL    HW232259   7.854   3.385   7.938 -0.8125  0.7382 -0.0287
42441SOL     OW32260   4.046   9.879  10.021  0.3816  0.1469  0.1671
42441SOL    HW132261   3.996   9.950   9.981  1.7506  0.6613 -0.6812
42441SOL    HW232262   4.011   9.872  10.110 -1.1969  0.4642 -0.3872
42442SOL     OW32263   1.892   3.677  11.301  0.5321 -0.4553 -0.0654
42442SOL    HW132264   1.861   3.680  11.391  0.0887  0.4052 -0.2373
42442SOL    HW232265   1.915   3.768  11.280 -2.6084  0.0671 -1.9288
42443SOL     OW32266   5.978   7.014   6.467 -0.4899  0.1973  0.4988
42443SOL    HW132267   5.994   6.928   6.426 -1.8311 -0.4823  1.3278
42443SOL    HW232268   5.915   7.056   6.410  0.2715  0.7203  0.0181
42444SOL     OW32269   7.433   1.843   2.658 -0.1478  0.3313  0.1586
42444SOL    HW132270   7.424   1.847   2.754 -0.9923  0.0199  0.0977
42444SOL    HW232271   7.346   1.818   2.627  0.2262  0.0384 -0.6702
42445SOL     OW32272   0.796   9.611   1.252 -0.2203  0.0733 -0.5562
42445SOL    HW132273   0.840   9.667   1.188  0.9334 -2.3454 -2.0139
42445SOL    HW232274   0.743   9.552   1.200 -0.5950 -0.8751  0.8461
42446SOL     OW32275   1.780   6.440   0.450  0.1483  0.1017 -0.3032
42446SOL    HW132276   1.765   6.469   0.540  1.3016 -0.6199  0.1471
42446SOL    HW232277   1.769   6.518   0.397 -1.0997  0.4321  0.3892
42447SOL     OW32278   2.804   5.827   5.744 -0.5224  0.3841  0.1313
42447SOL    HW132279   2.855   5.903   5.770  0.4411 -0.2405  0.1186
42447SOL    HW232280   2.792   5.778   5.825 -1.7863  0.9056  0.2810
42448SOL     OW32281   5.010   6.794   7.620  0.1879  0.3138 -0.1998
42448SOL    HW132282   5.027   6.871   7.565 -1.9663  1.6119  0.8136
42448SOL    HW232283   5.015   6.827   7.709  0.7655 -1.1273  0.3340
42449SOL     OW32284   8.547   4.236   6.557 -0.8035  0.4067 -0.2138
42449SOL    HW132285   8.453   4.241   6.537 -0.9311 -0.6489  0.0726
42449SOL    HW232286   8.556   4.282   6.640 -0.2154  5.2070 -2.5628
42450SOL     OW32287   6.004   1.988   2.073 -0.5301  0.3775  0.6501
42450SOL    HW132288   5.991   1.916   2.011  0.5108 -2.7477  3.7146
42450SOL    HW232289   6.093   2.018   2.057 -1.2366  1.6998 -1.1883
42451SOL     OW32290   3.362   3.749   0.305  0.2507  0.5723 -0.1859
42451SOL    HW132291   3.370   3.830   0.255  2.7779  0.1702 -0.5888
42451SOL    HW232292   3.452   3.729   0.332 -0.7642  0.0108  3.3614
42452SOL     OW32293  10.400   3.983   6.892 -0.0395 -0.4224 -0.1817
42452SOL    HW132294  10.436   4.006   6.978  0.7659 -0.7472 -0.4299
42452SOL    HW232295  10.382   4.067   6.850  1.6404 -0.2207 -0.5585
42453SOL     OW32296   6.456   7.097   8.884 -0.1744  0.3199  0.1176
42453SOL    HW132297   6.431   7.093   8.976  1.3686  0.3379  0.5664
42453SOL    HW232298   6.485   7.188   8.870  2.0314 -0.2917  0.3351
42454SOL     OW32299  10.902  10.615   0.092 -0.3522  0.1266  0.2439
42454SOL    HW132300  10.939  10.660   0.016 -0.6792 -0.2655 -0.1560
42454SOL    HW232301  10.927  10.669   0.167 -1.0471  1.1758 -0.2569
42455SOL     OW32302   7.201   8.686   1.480 -0.7879  0.4468 -0.0691
42455SOL    HW132303   7.197   8.676   1.385 -1.6187  0.0341  0.0041
42455SOL    HW232304   7.129   8.633   1.514  0.0896 -0.2110  0.8566
42456SOL     OW32305  10.142   1.980   9.374  0.2498  0.8830  0.2594
42456SOL    HW132306  10.218   2.019   9.332  0.7599  1.4075  1.6195
42456SOL    HW232307  10.092   2.055   9.407  0.1906  0.4662  1.1314
42457SOL     OW32308   3.037   6.904   3.114  0.2094  0.4666 -0.3429
42457SOL    HW132309   2.965   6.968   3.118 -0.3132 -0.1337  0.0798
42457SOL    HW232310   2.993   6.819   3.110  0.8976  0.0231  1.0964
42458SOL     OW32311   7.708   2.545   4.487 -0.1415 -0.3183  0.3883
42458SOL    HW132312   7.787   2.525   4.539 -0.5691  0.4350  1.3775
42458SOL    HW232313   7.741   2.593   4.412  0.5268 -1.6728 -0.2191
42459SOL     OW32314   3.245   3.180  10.939  0.3417  0.5744  0.3366
42459SOL    HW132315   3.281   3.091  10.944  0.4987  0.5924 -0.3679
42459SOL    HW232316   3.319   3.236  10.962  0.4666  0.5574 -0.0132
42460SOL     OW32317  10.431   8.244   4.786 -0.0576  0.3613  0.4593
42460SOL    HW132318  10.383   8.173   4.829  0.4264  0.6509  1.5071
42460SOL    HW232319  10.520   8.235   4.819  0.0659  1.2864  0.3764
42461SOL     OW32320   5.111   2.400   4.214  0.0207 -0.1795 -0.2902
42461SOL    HW132321   5.088   2.492   4.225  0.3056  0.0901 -1.7334
42461SOL    HW232322   5.198   2.401   4.173  1.0828 -1.1404  1.8011
42462SOL     OW32323   4.446   7.656   8.562  0.4595  0.6773  0.1176
42462SOL    HW132324   4.487   7.646   8.476 -1.1093 -0.1108 -0.5801
42462SOL    HW232325   4.445   7.567   8.598 -0.0095  0.7980  0.4091
42463SOL     OW32326   9.597  11.466  11.312 -0.4406  0.8629  0.4299
42463SOL    HW132327   9.557  11.390  11.270 -0.7266 -0.0154  2.2031
42463SOL    HW232328   9.651  11.506  11.243  0.8580 -1.7480 -0.2091
42464SOL     OW32329  11.494   2.812  11.519 -0.2794 -0.0916 -0.3451
42464SOL    HW132330  11.582   2.821  11.482  1.2295  1.2231  3.1195
42464SOL    HW232331  11.468   2.722  11.499  2.4658 -0.9734 -0.3107
42465SOL     OW32332  10.505   0.353   7.171  0.2121  0.0577 -0.1728
42465SOL    HW132333  10.546   0.320   7.090 -0.0304  2.1677 -1.2313
42465SOL    HW232334  10.424   0.394   7.141  0.3248  1.2356  1.0912
42466SOL     OW32335   0.753   6.289   3.858 -0.6749 -0.7379 -0.5923
42466SOL    HW132336   0.843   6.313   3.834 -0.0813 -1.1893  1.0424
42466SOL    HW232337   0.711   6.372   3.880  0.2596 -0.7416  1.4611
42467SOL     OW32338  10.731   9.538   6.693  0.0275  0.0251 -0.4281
42467SOL    HW132339  10.710   9.563   6.603  2.0305  0.0152 -0.9241
42467SOL    HW232340  10.760   9.619   6.735 -1.1427  0.0842  0.3188
42468SOL     OW32341   7.777   9.317   1.131  0.2239  0.2259  0.2485
42468SOL    HW132342   7.696   9.292   1.175  1.0813 -1.1405  1.1296
42468SOL    HW232343   7.837   9.244   1.148  1.4054  0.8508 -1.0223
42469SOL     OW32344   4.010   2.807   4.590 -0.3012 -0.9081 -0.1260
42469SOL    HW132345   4.001   2.764   4.676 -0.3538 -0.4358  0.1060
42469SOL    HW232346   4.105   2.808   4.574 -0.1674  0.3101  0.6067
42470SOL     OW32347  10.980   5.790   3.963 -0.4757 -0.2448 -0.3935
42470SOL    HW132348  10.957   5.848   4.036  1.3774 -0.2645  0.2649
42470SOL    HW232349  11.039   5.725   4.002  1.1440  0.1581 -2.0385
42471SOL     OW32350   7.042   8.103  11.452 -0.2657  0.4669 -0.1335
42471SOL    HW132351   7.030   8.191  11.489 -3.8746  0.4391 -0.9455
42471SOL    HW232352   6.968   8.053  11.485  1.6180 -2.3261  0.1833
42472SOL     OW32353   7.736   9.553   0.002  0.3882  0.2652  0.3582
42472SOL    HW132354   7.692   9.468   0.008  0.8609  0.0925  1.7236
42472SOL    HW232355   7.808   9.538  -0.059 -1.0550  0.4121 -1.4864
42473SOL     OW32356   3.134   5.950   4.526 -0.1794  0.5981 -0.1671
42473SOL    HW132357   3.185   5.933   4.446 -1.4773  1.5447 -1.2539
42473SOL    HW232358   3.133   5.866   4.572 -0.2057 -0.2670 -1.6520
42474SOL     OW32359   3.384   5.714   3.754  0.0861 -0.0541 -0.2702
42474SOL    HW132360   3.344   5.707   3.667 -1.2405 -2.4555  0.4495
42474SOL    HW232361   3.344   5.643   3.805  0.5469  1.4855  2.4371
42475SOL     OW32362   0.135   9.925   6.029  0.8106  0.1480  0.0895
42475SOL    HW132363   0.191   9.849   6.046 -1.1801 -1.0519  1.7554
42475SOL    HW232364   0.131   9.971   6.112 -1.2119 -0.2470  0.2800
42476SOL     OW32365   0.856  11.382   7.052 -0.3192  0.3108 -0.4312
42476SOL    HW132366   0.882  11.315   6.988  1.1665  1.4207 -1.0654
42476SOL    HW232367   0.765  11.362   7.072  0.1791 -2.0951 -0.3177
42477SOL     OW32368   4.534   6.906   4.349 -0.0541  0.1730  0.4103
42477SOL    HW132369   4.568   6.948   4.429  1.5358  2.1645 -1.1830
42477SOL    HW232370   4.612   6.874   4.304 -1.0280 -2.0869  0.1936
42478SOL     OW32371   7.736  11.477   1.799 -0.0245 -0.3560  0.3873
42478SOL    HW132372   7.734  11.541   1.870 -2.0782 -0.5196  0.5470
42478SOL    HW232373   7.771  11.524   1.724 -0.4064  0.6101  0.8043
42479SOL     OW32374   3.749   8.007   7.580 -0.3300 -0.1601 -0.1312
42479SOL    HW132375   3.692   8.047   7.515  1.1190 -0.8126 -1.8835
42479SOL    HW232376   3.838   8.034   7.554  0.2924 -0.3794  1.6328
42480SOL     OW32377   8.807   4.175   6.171  0.5381 -0.3162 -0.2208
42480SOL    HW132378   8.779   4.117   6.100 -0.6504 -1.0520  0.8054
42480SOL    HW232379   8.874   4.126   6.218  0.3806 -0.3792 -0.0588
42481SOL     OW32380   1.978   9.640   2.876  0.5572  0.0441 -0.4487
42481SOL    HW132381   2.031   9.570   2.839 -0.1623 -0.3395 -0.7773
42481SOL    HW232382   2.009   9.719   2.831  0.2607 -0.3019 -1.2924
42482SOL     OW32383  11.586   7.914   2.801  0.1232  0.0079  0.0986
42482SOL    HW132384  11.519   7.923   2.733 -3.6773  0.8465  3.5520
42482SOL    HW232385  11.606   7.821   2.803  1.1840  0.0715 -2.6895
42483SOL     OW32386   6.546   2.214   0.714  0.2007  0.0371  0.2005
42483SOL    HW132387   6.476   2.234   0.778 -0.8219  0.9745 -1.1572
42483SOL    HW232388   6.559   2.296   0.667  0.9671 -0.6275 -0.7724
42484SOL     OW32389   2.804   1.514   4.937  0.2004 -0.1990  0.4252
42484SOL    HW132390   2.710   1.502   4.951 -0.3040  2.1619 -0.5355
42484SOL    HW232391   2.838   1.424   4.929 -1.6315 -1.1779  2.4826
42485SOL     OW32392  10.535   7.382   6.988  0.2037 -0.6122 -0.2926
42485SOL    HW132393  10.625   7.353   6.975  0.4917  0.4499 -0.8308
42485SOL    HW232394  10.543   7.466   7.034 -0.4064  0.3401 -1.8352
42486SOL     OW32395   0.164   3.429   1.173  0.3119  0.4782  0.2012
42486SOL    HW132396   0.208   3.373   1.237 -1.8138  0.2686  1.5934
42486SOL    HW232397   0.125   3.368   1.111  0.8499  0.6043 -0.2712
42487SOL     OW32398   7.366  11.256   6.326 -0.4147  0.3889 -0.1328
42487SOL    HW132399   7.407  11.307   6.396 -1.3471 -1.3603  1.8065
42487SOL    HW232400   7.282  11.229   6.363  0.2783 -3.0663 -0.7367
42488SOL     OW32401   0.859   3.074   5.120  0.2802 -0.2042 -0.5673
42488SOL    HW132402   0.884   3.064   5.212 -0.5342 -0.1254 -0.3329
42488SOL    HW232403   0.765   3.057   5.118  0.6028 -2.1824 -1.7138
42489SOL     OW32404   5.488  10.763   8.617 -0.1983  0.3536  0.1442
42489SOL    HW132405   5.409  10.712   8.634  0.1098  0.0813  0.8261
42489SOL    HW232406   5.546  10.702   8.571  0.0446  0.1700  0.6718
42490SOL     OW32407  11.154   0.952  11.092 -0.0779 -0.5167 -0.0538
42490SOL    HW132408  11.209   0.878  11.068 -0.4881 -1.2840  1.2722
42490SOL    HW232409  11.215   1.019  11.123  0.1574 -1.1681  0.9220
42491SOL     OW32410  10.484   8.956  10.591 -0.1987  0.0668 -0.2574
42491SOL    HW132411  10.408   8.936  10.538  0.9095  1.0009 -2.3198
42491SOL    HW232412  10.458   8.933  10.681 -2.8317  0.2734 -0.8927
42492SOL     OW32413  10.749  11.346   9.182 -0.1363  0.2343  0.4377
42492SOL    HW132414  10.672  11.329   9.236 -0.4751 -0.4786 -0.2464
42492SOL    HW232415  10.717  11.400   9.110 -0.2092 -0.8221 -0.3465
42493SOL     OW32416   2.413   9.584   9.445 -0.3070  0.1474 -0.4177
42493SOL    HW132417   2.361   9.609   9.521 -1.9206 -0.3440 -1.3042
42493SOL    HW232418   2.493   9.546   9.482 -0.5802  0.8820  0.9935
42494SOL     OW32419  10.599   3.698   3.335  0.2179 -0.1665 -0.0502
42494SOL    HW132420  10.658   3.653   3.396  0.5850  2.1943  1.4543
42494SOL    HW232421  10.547   3.757   3.390  0.4041  1.9381 -1.9610
42495SOL     OW32422   9.818   5.653   5.128 -0.0679  0.0207  0.5391
42495SOL    HW132423   9.868   5.612   5.058 -2.8263  2.2205 -3.1281
42495SOL    HW232424   9.825   5.747   5.111 -4.6257  0.5117  0.1089
42496SOL     OW32425   2.700   6.576  10.811  0.2538  0.7605 -0.4994
42496SOL    HW132426   2.778   6.566  10.755 -1.7294  0.3032 -3.4165
42496SOL    HW232427   2.644   6.637  10.763 -2.8230 -1.8403 -0.5643
42497SOL     OW32428   9.262  10.875   8.220 -0.4712 -0.1647  0.6289
42497SOL    HW132429   9.346  10.853   8.260  0.4627  0.8909 -0.6696
42497SOL    HW232430   9.282  10.947   8.160 -2.0078 -0.9501 -0.9078
42498SOL     OW32431   0.136   8.222   0.292 -0.2758  0.3300 -0.3608
42498SOL    HW132432   0.139   8.178   0.207 -2.0703  1.0119 -0.8354
42498SOL    HW232433   0.126   8.315   0.270  1.5626  0.8097  0.6230
42499SOL     OW32434   1.668   2.686   6.849 -0.0101 -0.0956 -0.2911
42499SOL    HW132435   1.637   2.724   6.932  0.8048  0.1272 -0.0785
42499SOL    HW232436   1.652   2.592   6.859 -3.9874  0.2408 -1.6465
42500SOL     OW32437   4.345  10.634  10.325  0.0996  0.0788  0.3555
42500SOL    HW132438   4.423  10.646  10.271 -1.5107 -0.8581 -2.4424
42500SOL    HW232439   4.284  10.588  10.267 -2.2529  0.0937  2.6565
42501SOL     OW32440   9.473   1.960   0.592 -0.1073 -0.2400 -0.6397
42501SOL    HW132441   9.523   2.002   0.662  1.0350  0.2010 -1.6901
42501SOL    HW232442   9.396   2.016   0.580 -0.2704 -0.2755  0.2013
42502SOL     OW32443   9.052   3.881   8.236 -0.2266  0.0394  0.0574
42502SOL    HW132444   8.998   3.828   8.177 -1.3839  3.5843 -2.4075
42502SOL    HW232445   9.001   3.886   8.317 -1.0672 -0.9011 -0.3903
42503SOL     OW32446   8.516   9.491  10.888 -0.2937 -0.0134  0.1025
42503SOL    HW132447   8.427   9.520  10.868 -0.7109  0.6548  2.6010
42503SOL    HW232448   8.504   9.422  10.954  1.0057 -1.0346 -0.6806
42504SOL     OW32449   6.874   5.365   6.813 -0.3635 -0.9127 -0.1425
42504SOL    HW132450   6.877   5.270   6.819  1.0896 -0.9696 -1.1760
42504SOL    HW232451   6.880   5.383   6.719  2.4083  0.2122  0.1565
42505SOL     OW32452   4.207   9.191   6.922  0.5921  0.4190 -0.1910
42505SOL    HW132453   4.185   9.284   6.929 -1.1478  0.0286 -0.0758
42505SOL    HW232454   4.301   9.187   6.941  0.4357  1.9985  1.1150
42506SOL     OW32455   4.186   6.509   4.352 -0.0586 -0.4783  0.4517
42506SOL    HW132456   4.167   6.572   4.282  0.1227 -0.5202  0.3652
42506SOL    HW232457   4.264   6.463   4.322  0.9449  0.5585  1.3874
42507SOL     OW32458   8.360   8.596   0.249  0.0171 -0.1910  0.2611
42507SOL    HW132459   8.386   8.638   0.167 -0.4143 -0.1906  0.1241
42507SOL    HW232460   8.265   8.609   0.254  0.1324  0.4192  1.1002
42508SOL     OW32461   7.651   4.626   0.155 -0.1667 -0.5686 -0.1746
42508SOL    HW132462   7.590   4.594   0.222 -1.0047 -1.0966 -1.1655
42508SOL    HW232463   7.604   4.616   0.072  0.9401 -0.1512 -0.8823
42509SOL     OW32464   5.532  11.430   9.850  0.0117  0.2745  0.0405
42509SOL    HW132465   5.621  11.422   9.818 -0.3238  0.8269 -1.0702
42509SOL    HW232466   5.541  11.470   9.937  0.9184 -1.1016  0.6114
42510SOL     OW32467  10.623   9.733   6.027 -0.1054 -0.3022 -0.1958
42510SOL    HW132468  10.703   9.740   5.974 -1.2048  0.0271 -1.8809
42510SOL    HW232469  10.638   9.792   6.101  0.9515  0.2514 -0.8286
42511SOL     OW32470   8.729   8.363   4.254  0.2898  0.0032 -0.4936
42511SOL    HW132471   8.645   8.405   4.274  0.9098  0.2901  1.7914
42511SOL    HW232472   8.711   8.310   4.176 -1.6184  1.1856 -0.9222
42512SOL     OW32473   4.658   2.028   5.790  0.5245  0.4751 -0.0826
42512SOL    HW132474   4.685   2.115   5.759  1.5608 -0.1035 -0.8993
42512SOL    HW232475   4.613   1.989   5.715 -0.6459  0.5864  0.5435
42513SOL     OW32476   1.423  11.640   0.868 -0.6246 -0.2453  0.3209
42513SOL    HW132477   1.479  11.599   0.933 -1.2948  0.6483  1.5144
42513SOL    HW232478   1.340  11.593   0.874 -0.6342 -0.2751 -0.0219
42514SOL     OW32479   1.400   2.742   5.907  0.1371 -0.4894 -0.4277
42514SOL    HW132480   1.401   2.650   5.879  1.0194 -0.5491 -0.2170
42514SOL    HW232481   1.313   2.774   5.881 -0.8492 -1.8409  0.9923
42515SOL     OW32482   6.303  10.228   0.925  0.2295  0.0471  0.4128
42515SOL    HW132483   6.363  10.193   0.990 -0.6570 -1.5291  0.4469
42515SOL    HW232484   6.305  10.323   0.938  2.7138  0.0652  0.3499
42516SOL     OW32485   2.636   5.836  10.854  0.2089 -0.6255  0.1236
42516SOL    HW132486   2.563   5.897  10.861  1.2113  0.6967 -0.3246
42516SOL    HW232487   2.713   5.889  10.876  1.1354 -1.7004 -0.4362
42517SOL     OW32488   5.967   0.725  10.498  0.5856 -0.2630  0.0560
42517SOL    HW132489   5.913   0.777  10.438 -1.1527 -1.9568  0.0755
42517SOL    HW232490   5.940   0.753  10.585 -0.1928 -1.0148  0.0644
42518SOL     OW32491  10.529   8.452   9.082 -0.1025  0.6880  0.2301
42518SOL    HW132492  10.458   8.514   9.095 -0.0530  0.3846  2.4836
42518SOL    HW232493  10.500   8.395   9.011 -1.7735  1.0525  0.5883
42519SOL     OW32494   1.034  11.264   9.879  0.3553  0.0042  0.6354
42519SOL    HW132495   1.066  11.303   9.797  0.1986  1.0016  1.0372
42519SOL    HW232496   0.972  11.328   9.913  0.6340 -0.2768  1.6865
42520SOL     OW32497   7.243   7.249   7.453  0.3768  0.0950  0.1625
42520SOL    HW132498   7.277   7.242   7.364 -0.5685  0.3832 -0.2369
42520SOL    HW232499   7.277   7.333   7.485 -1.4625  1.3330 -0.9335
42521SOL     OW32500   3.457  10.257   1.003 -0.0495 -0.2267  0.5689
42521SOL    HW132501   3.381  10.313   0.993 -0.4696 -0.9395 -0.3460
42521SOL    HW232502   3.427  10.184   1.057  0.0575 -0.3820  0.4192
42522SOL     OW32503   4.898   9.833   6.091 -0.3232 -0.0035  0.7560
42522SOL    HW132504   4.964   9.782   6.042 -0.7682 -1.1707  1.3325
42522SOL    HW232505   4.900   9.919   6.050  0.9967 -0.2472  0.2338
42523SOL     OW32506   9.455   1.026   3.716  0.3903  0.5635  0.4020
42523SOL    HW132507   9.377   0.989   3.757  0.2330  0.6813  0.2075
42523SOL    HW232508   9.454   1.118   3.742 -0.6304  1.0562 -1.2431
42524SOL     OW32509   5.556   6.087   1.915  0.7382  0.0287  0.1788
42524SOL    HW132510   5.517   6.125   1.837  0.1261  0.7512  0.8239
42524SOL    HW232511   5.534   5.994   1.910 -1.4746  0.4616  0.7152
42525SOL     OW32512   6.793   1.162   2.691  0.3694 -0.0854 -0.4098
42525SOL    HW132513   6.763   1.221   2.622  1.8006  1.3364  0.1177
42525SOL    HW232514   6.735   1.180   2.765  0.2219 -0.0096 -0.5419
42526SOL     OW32515  11.348   4.461   8.141  0.3374 -0.3677  0.4962
42526SOL    HW132516  11.403   4.456   8.063  1.1986  0.1419  1.0515
42526SOL    HW232517  11.269   4.506   8.112 -0.0689 -1.6387 -0.4582
42527SOL     OW32518   7.543   9.302   3.289  0.3338  0.6685 -0.2276
42527SOL    HW132519   7.452   9.327   3.273 -0.3297 -1.7384 -0.5606
42527SOL    HW232520   7.544   9.207   3.280  2.3533  0.3122  2.4518
42528SOL     OW32521   5.002   8.310   0.331  0.0273 -0.6446  0.4684
42528SOL    HW132522   4.988   8.218   0.354 -1.6913 -0.1253  1.6963
42528SOL    HW232523   4.931   8.331   0.271  0.8727 -0.3112 -0.4433
42529SOL     OW32524   0.415  11.680  10.322  0.3319 -0.3139  0.8117
42529SOL    HW132525   0.491  11.663  10.377 -0.1398 -2.3177  0.9456
42529SOL    HW232526   0.452  11.702  10.236  1.0691 -0.7998  0.9953
42530SOL     OW32527   1.948  10.348   4.648 -0.0567  0.4458 -0.3652
42530SOL    HW132528   1.975  10.294   4.722 -1.9695  0.3772  0.3417
42530SOL    HW232529   2.026  10.355   4.594  1.0709 -0.4894  1.0570
42531SOL     OW32530   1.019   9.740   6.607  0.4769  0.0896  0.3732
42531SOL    HW132531   0.956   9.696   6.551  0.3853 -0.4041  0.8609
42531SOL    HW232532   0.966   9.796   6.664  0.3014 -1.5515  1.9099
42532SOL     OW32533   4.710   3.892   2.395  0.0123 -0.6278 -0.2649
42532SOL    HW132534   4.760   3.916   2.473 -1.2758  0.2892  0.3214
42532SOL    HW232535   4.741   3.805   2.372  2.0578 -0.0085 -0.0963
42533SOL     OW32536   5.625   6.189   3.637 -0.5011  0.3590 -0.2629
42533SOL    HW132537   5.576   6.136   3.574 -1.1685  0.0452  0.4975
42533SOL    HW232538   5.605   6.150   3.722  0.8272  0.4266  0.1043
42534SOL     OW32539   1.604   5.101   4.835  0.1827  0.2310 -0.0353
42534SOL    HW132540   1.645   5.044   4.900  1.7262  0.9277 -0.3597
42534SOL    HW232541   1.516   5.064   4.823  1.2005 -2.2830 -0.4434
42535SOL     OW32542   5.688   1.031   0.201 -0.3628 -0.3296 -0.6784
42535SOL    HW132543   5.763   0.973   0.200 -0.1392 -0.1875  1.9143
42535SOL    HW232544   5.660   1.033   0.292 -2.6320  0.7645 -1.3193
42536SOL     OW32545   3.734   8.880   3.555  0.3663 -0.2255 -0.0914
42536SOL    HW132546   3.732   8.864   3.461  0.6039  0.5414 -0.2365
42536SOL    HW232547   3.648   8.852   3.586 -0.6093  1.6021 -0.9142
42537SOL     OW32548   0.908   1.112   7.612 -0.3523  0.1009  0.1381
42537SOL    HW132549   0.894   1.026   7.652 -0.3673  0.3994  0.7880
42537SOL    HW232550   0.995   1.138   7.641  0.3063 -0.3495 -1.3039
42538SOL     OW32551  11.196   8.877   7.261 -0.1752 -0.2929  0.0839
42538SOL    HW132552  11.231   8.963   7.237 -1.4641 -0.2668 -1.8892
42538SOL    HW232553  11.229   8.817   7.195 -1.7104 -0.7360 -0.3174
42539SOL     OW32554  10.312   4.319   1.517 -0.1262 -0.0337  0.5276
42539SOL    HW132555  10.315   4.333   1.612 -2.1164  0.5577  0.5615
42539SOL    HW232556  10.341   4.403   1.480  1.1147 -0.4216  0.5882
42540SOL     OW32557   5.672   8.871   3.994 -0.5407 -0.1577  0.0246
42540SOL    HW132558   5.686   8.939   3.928  2.4198 -0.2308  0.4342
42540SOL    HW232559   5.699   8.911   4.076  0.0867 -1.4175  0.4687
42541SOL     OW32560   9.242  10.130   2.430  0.4532 -0.0701 -0.0206
42541SOL    HW132561   9.327  10.152   2.468  0.1729 -1.1745  1.3090
42541SOL    HW232562   9.263  10.101   2.341  1.2268  1.5751 -0.4106
42542SOL     OW32563   1.807   0.757   9.894  0.5695 -0.2868  0.1735
42542SOL    HW132564   1.743   0.688   9.907  1.6535 -1.3836 -0.1516
42542SOL    HW232565   1.798   0.782   9.802  0.5784 -0.4140  0.1388
42543SOL     OW32566  10.016   4.204   2.427 -0.2811  0.3611 -0.2176
42543SOL    HW132567  10.072   4.262   2.479 -1.5922  1.2022  0.3334
42543SOL    HW232568  10.076   4.157   2.370  1.0289  0.8258  0.7145
42544SOL     OW32569   8.816   4.297   0.990 -0.1582 -0.0071 -0.1387
42544SOL    HW132570   8.879   4.241   0.945  2.2268  1.1287  1.5941
42544SOL    HW232571   8.759   4.329   0.920  2.0962  0.0442 -2.0971
42545SOL     OW32572   6.931   0.086   5.713  0.1582 -0.0596  0.2561
42545SOL    HW132573   6.884   0.006   5.690  0.1018  0.0094  0.1245
42545SOL    HW232574   6.951   0.126   5.628  1.5401 -0.6998  0.2432
42546SOL     OW32575   3.074   3.599   5.112 -0.2721  0.1824 -0.7264
42546SOL    HW132576   3.009   3.559   5.170  1.0694 -0.7725  0.1830
42546SOL    HW232577   3.026   3.615   5.031 -2.0038  0.8397  0.3665
42547SOL     OW32578  11.184   6.915  10.597 -0.0488  0.0033 -0.0435
42547SOL    HW132579  11.119   6.846  10.608 -1.0762  1.1289  1.3329
42547SOL    HW232580  11.134   6.991  10.567  0.4148  1.1370  1.8745
42548SOL     OW32581   7.775   5.178  10.260  0.0974 -1.0042  0.0432
42548SOL    HW132582   7.791   5.084  10.260 -0.2150 -1.0868  1.6940
42548SOL    HW232583   7.680   5.186  10.268 -0.0580 -0.5144 -1.8049
42549SOL     OW32584   0.584   3.726   0.055  0.1377 -0.3232 -0.1933
42549SOL    HW132585   0.649   3.774   0.107  0.3913 -0.2001 -0.6258
42549SOL    HW232586   0.635   3.680  -0.012 -0.1575 -0.7633 -0.1228
42550SOL     OW32587   6.864   3.721   8.354 -0.3917 -0.9124 -0.0687
42550SOL    HW132588   6.810   3.719   8.433  1.5377 -0.2945  1.3421
42550SOL    HW232589   6.946   3.680   8.380  1.3841  1.8616 -0.8412
42551SOL     OW32590   9.634   3.560   0.177 -0.3971  0.9616 -0.0251
42551SOL    HW132591   9.567   3.615   0.216 -0.3940  0.7940  0.2162
42551SOL    HW232592   9.716   3.592   0.214 -0.5469 -0.5570  1.7633
42552SOL     OW32593   6.527   4.386  10.231 -0.2639 -0.3542  0.7713
42552SOL    HW132594   6.474   4.460  10.261 -1.3093 -0.5404 -0.4851
42552SOL    HW232595   6.568   4.417  10.150 -0.3711 -0.9835  0.4654
42553SOL     OW32596   9.594   3.734   9.277 -0.0072 -0.5492  0.2321
42553SOL    HW132597   9.612   3.698   9.191 -1.5747 -0.5180 -0.1448
42553SOL    HW232598   9.568   3.658   9.330  1.4601 -0.6495  0.8547
42554SOL     OW32599  11.488  11.119   9.507 -1.0392  0.2324 -0.2398
42554SOL    HW132600  11.534  11.036   9.520 -1.1853  0.2456  0.4490
42554SOL    HW232601  11.395  11.096   9.509 -1.0882  0.4488  0.2961
42555SOL     OW32602   6.436   6.894   0.500  0.2358 -0.2495 -0.1230
42555SOL    HW132603   6.427   6.869   0.408  0.7072  0.0121 -0.2425
42555SOL    HW232604   6.352   6.872   0.540  0.3962 -1.3538 -0.3784
42556SOL     OW32605   9.946  10.290   7.895  0.8401  0.3553  0.5025
42556SOL    HW132606   9.983  10.272   7.982  0.4879  0.9050  0.7729
42556SOL    HW232607   9.882  10.220   7.882  2.6451 -1.2224 -0.4151
42557SOL     OW32608   4.672  11.176   1.398 -0.0205 -0.2956 -0.2332
42557SOL    HW132609   4.722  11.096   1.385 -2.2355 -1.5927 -1.1691
42557SOL    HW232610   4.638  11.168   1.488  0.0887 -0.1952 -0.1822
42558SOL     OW32611   9.615   9.296   7.236 -0.3437 -0.8507  0.5278
42558SOL    HW132612   9.661   9.356   7.177  2.5109 -1.7408  1.6972
42558SOL    HW232613   9.586   9.225   7.180  0.4300 -0.6506 -0.1509
42559SOL     OW32614   6.855   1.090   5.066 -0.0770  0.4311  0.0594
42559SOL    HW132615   6.880   1.067   5.155 -2.3618  0.2817  0.7210
42559SOL    HW232616   6.918   1.157   5.040  0.1807  1.0299  2.0670
42560SOL     OW32617   2.284  10.993   9.132  0.0398  0.0198 -0.5407
42560SOL    HW132618   2.300  10.955   9.218  0.7159 -0.4758 -0.8789
42560SOL    HW232619   2.330  10.936   9.071 -0.2869  0.4650 -1.2189
42561SOL     OW32620  10.151   9.941   8.031 -0.1672 -0.0115 -0.5296
42561SOL    HW132621  10.210   9.874   8.000 -0.3233  0.2897 -1.5053
42561SOL    HW232622  10.186   9.967   8.117  0.1790 -0.9583 -0.3817
42562SOL     OW32623   0.124   3.582   0.582 -0.5787 -0.5121 -0.0808
42562SOL    HW132624   0.097   3.623   0.499  0.8253 -0.1295 -0.3948
42562SOL    HW232625   0.116   3.652   0.647  0.6551 -0.0450 -0.3887
42563SOL     OW32626  11.469  10.014   8.167  0.2681 -0.5692  0.1157
42563SOL    HW132627  11.386   9.967   8.170 -0.8552  1.3084  0.7759
42563SOL    HW232628  11.477  10.055   8.253  1.6189 -0.2766 -0.1179
42564SOL     OW32629   3.108   1.839   3.847 -0.5745 -0.2425  0.4164
42564SOL    HW132630   3.138   1.915   3.897 -0.8295  0.4049 -0.4056
42564SOL    HW232631   3.046   1.874   3.784 -0.0504 -1.0120 -0.5520
42565SOL     OW32632  11.258   4.173   0.012 -0.6008  0.0321 -0.5027
42565SOL    HW132633  11.175   4.189  -0.034 -1.3608 -0.1132  0.7827
42565SOL    HW232634  11.296   4.098  -0.034 -0.8546  0.5025 -1.5132
42566SOL     OW32635   2.865  10.045  10.549 -0.2685  0.2899 -0.0802
42566SOL    HW132636   2.920  10.017  10.476  1.4183  0.5387  1.0145
42566SOL    HW232637   2.779  10.009  10.530  0.6395 -1.4894 -1.1233
42567SOL     OW32638   0.062   9.000  10.696  0.2528 -0.6632 -0.6497
42567SOL    HW132639   0.080   8.997  10.602  0.2359 -1.1985 -0.6386
42567SOL    HW232640   0.105   8.922  10.731  4.1023  1.6843  0.4835
42568SOL     OW32641   1.729   7.698   2.486 -0.1898  0.4381  0.1000
42568SOL    HW132642   1.706   7.776   2.436 -0.3992  0.0081 -0.4806
42568SOL    HW232643   1.770   7.640   2.422  0.6778  0.3773  0.6895
42569SOL     OW32644   3.394  10.990   5.667  0.6966 -0.3898 -0.2262
42569SOL    HW132645   3.392  11.024   5.577 -1.6671  3.0997  0.9250
42569SOL    HW232646   3.467  11.036   5.708 -0.0347  0.2817  0.3434
42570SOL     OW32647   0.296  10.160   6.758  0.3738  0.0344  0.0776
42570SOL    HW132648   0.260  10.092   6.815 -0.9404 -0.6529 -1.4714
42570SOL    HW232649   0.292  10.240   6.811  0.3073 -0.7789  1.3381
42571SOL     OW32650   5.121   8.143  10.828 -0.0003 -0.2938  0.2758
42571SOL    HW132651   5.124   8.227  10.782 -2.2867  0.0235  0.6218
42571SOL    HW232652   5.139   8.165  10.919 -0.0291 -0.2707  0.2755
42572SOL     OW32653   6.936  11.614   0.037  0.6924  0.3148 -0.6953
42572SOL    HW132654   7.011  11.647  -0.012  1.2965 -2.4808 -1.8166
42572SOL    HW232655   6.920  11.680   0.104  3.7470  1.3037 -0.8183
42573SOL     OW32656   3.902   1.047   2.527 -0.9421  0.1355  0.5498
42573SOL    HW132657   3.907   1.087   2.614 -0.1846  2.9770 -0.6863
42573SOL    HW232658   3.811   1.060   2.499 -0.6394  1.3063  0.0542
42574SOL     OW32659   1.251   0.342   5.196 -0.0772  0.1175 -0.0074
42574SOL    HW132660   1.233   0.305   5.109  0.6615 -1.0323  0.3075
42574SOL    HW232661   1.317   0.283   5.234 -1.9877 -0.7114  2.2335
42575SOL     OW32662  10.687  10.327   7.307  0.0103  0.2209  0.0470
42575SOL    HW132663  10.681  10.264   7.236 -1.1593  0.3796 -0.0217
42575SOL    HW232664  10.737  10.400   7.270  0.9725 -0.4500 -0.0143
42576SOL     OW32665   8.586   2.204  11.191 -0.0373 -0.0409  0.0222
42576SOL    HW132666   8.565   2.227  11.101 -1.1318  0.2902  0.3524
42576SOL    HW232667   8.540   2.121  11.207 -2.2725  1.3273  1.1496
42577SOL     OW32668   3.632   0.723   9.575  0.0801 -0.0147 -0.4077
42577SOL    HW132669   3.577   0.772   9.514  1.0981  2.5332  0.5771
42577SOL    HW232670   3.722   0.744   9.549  0.5408  0.3365  1.2803
42578SOL     OW32671  10.736   6.039   8.190 -0.0364  0.2249 -0.1252
42578SOL    HW132672  10.702   6.118   8.233 -0.0627 -0.2901  0.8215
42578SOL    HW232673  10.814   6.069   8.144  1.5136  0.3331  2.4292
42579SOL     OW32674   0.859  10.568   7.710 -0.4629  0.0039 -0.1631
42579SOL    HW132675   0.831  10.625   7.638  0.7690  1.0419  0.1433
42579SOL    HW232676   0.874  10.628   7.783 -0.0029 -0.8289  0.4308
42580SOL     OW32677   6.209   0.865   0.127  0.5471 -0.5160  0.8365
42580SOL    HW132678   6.189   0.855   0.034  1.2209 -0.0830  0.6437
42580SOL    HW232679   6.238   0.956   0.136 -1.3940  0.0561  1.8253
42581SOL     OW32680   8.491   3.316   0.456  0.2202 -0.1749 -0.7568
42581SOL    HW132681   8.458   3.243   0.403 -0.7172 -1.5955  1.6175
42581SOL    HW232682   8.578   3.288   0.484  0.2526  0.0592 -0.6197
42582SOL     OW32683   4.455  10.166  10.809  0.3455  0.0811  0.1106
42582SOL    HW132684   4.549  10.151  10.817  0.6193  2.0581  1.0531
42582SOL    HW232685   4.422  10.166  10.898 -0.2576  1.0205 -0.0921
42583SOL     OW32686   1.120   9.561   5.526  0.6514  0.9234  0.3653
42583SOL    HW132687   1.055   9.626   5.498 -1.4070 -0.5389  1.4775
42583SOL    HW232688   1.145   9.588   5.614  1.2837  1.2855  0.0763
42584SOL     OW32689   6.056   2.905  10.999 -0.3833  0.2931 -0.5211
42584SOL    HW132690   6.136   2.881  11.046 -0.6712 -0.9212 -0.6236
42584SOL    HW232691   6.071   2.874  10.909 -1.0161 -0.0362 -0.5150
42585SOL     OW32692   9.915   8.600   0.239  0.1004  0.0451 -0.4202
42585SOL    HW132693   9.993   8.644   0.206 -0.5433  1.4185 -0.1914
42585SOL    HW232694   9.908   8.630   0.330  0.5000 -1.7791  0.2585
42586SOL     OW32695   7.475   3.806   8.933 -0.0703  0.1050  0.0972
42586SOL    HW132696   7.447   3.721   8.899  0.3983 -0.1412  0.3102
42586SOL    HW232697   7.474   3.864   8.857  4.5147 -1.2438 -1.3464
42587SOL     OW32698   1.575   9.875   6.200 -0.5578  0.4702 -0.1255
42587SOL    HW132699   1.570   9.970   6.189 -0.9422  0.5042  0.2984
42587SOL    HW232700   1.666   9.859   6.226 -0.3634  0.6659 -0.6788
42588SOL     OW32701   9.473   3.527   9.437 -0.4330 -0.1297  0.6887
42588SOL    HW132702   9.420   3.482   9.372 -1.0533  1.8810 -0.2698
42588SOL    HW232703   9.418   3.529   9.515 -0.4996 -0.7487  0.6650
42589SOL     OW32704   8.264  11.047  10.302  0.2692 -0.5531 -0.0546
42589SOL    HW132705   8.270  11.139  10.328 -0.7283 -0.4280 -0.2274
42589SOL    HW232706   8.264  10.999  10.384 -1.9908 -0.2107  0.2292
42590SOL     OW32707   3.645   2.661   9.009  0.1652 -0.1987  0.6897
42590SOL    HW132708   3.609   2.724   8.947  1.0957 -0.0401  0.2841
42590SOL    HW232709   3.739   2.683   9.013  0.0343  0.1919  2.6107
42591SOL     OW32710   9.942   6.401   4.597  0.1431 -0.3482 -0.0520
42591SOL    HW132711  10.035   6.405   4.577  0.0833  0.7250 -0.1720
42591SOL    HW232712   9.917   6.310   4.579  1.4798 -1.0661  1.4338
42592SOL     OW32713   2.574  10.489   9.783 -0.0192 -0.1705 -0.2771
42592SOL    HW132714   2.542  10.414   9.834  0.4475  0.3921  0.8757
42592SOL    HW232715   2.631  10.537   9.843 -0.4407  1.2091 -0.9285
42593SOL     OW32716   7.017   5.582   0.532 -0.3627  0.4082  0.0736
42593SOL    HW132717   7.012   5.575   0.627 -0.4429  0.2258  0.0563
42593SOL    HW232718   6.933   5.549   0.501 -0.9366  1.8652  0.0080
42594SOL     OW32719  10.117   5.732   0.528  0.0118 -0.7193  0.5527
42594SOL    HW132720  10.163   5.744   0.445  0.2672 -0.0170  0.7869
42594SOL    HW232721  10.025   5.739   0.506  0.0895 -0.2314  0.3747
42595SOL     OW32722   4.562   2.621   1.954  0.4916 -0.4386  0.1500
42595SOL    HW132723   4.592   2.649   2.041  0.8557 -2.8866  0.8826
42595SOL    HW232724   4.551   2.526   1.962 -2.7253 -0.3400 -1.5355
42596SOL     OW32725   0.007   6.457   9.742 -0.2470 -0.0853 -0.6225
42596SOL    HW132726  -0.081   6.481   9.773 -0.2263 -0.9912  0.1819
42596SOL    HW232727   0.066   6.512   9.793 -0.2124 -1.5796  1.0519
42597SOL     OW32728   6.834  10.815   7.894 -0.0505 -0.1644  0.2613
42597SOL    HW132729   6.784  10.833   7.814  0.6875 -0.9845 -0.4038
42597SOL    HW232730   6.781  10.752   7.942  0.5673 -1.4525 -0.7028
42598SOL     OW32731   8.221   5.575   4.820  0.7540  0.0492  0.5046
42598SOL    HW132732   8.143   5.536   4.859  0.1221  0.0714 -0.6886
42598SOL    HW232733   8.271   5.609   4.894 -1.2655  1.6927  1.2169
42599SOL     OW32734   9.337   6.744   8.537 -0.4950  0.0009  0.0305
42599SOL    HW132735   9.362   6.652   8.544 -3.0261 -0.8250 -0.5034
42599SOL    HW232736   9.388   6.777   8.464  3.1132  0.1261  2.3678
42600SOL     OW32737   3.523   0.379   1.886  0.6008  0.2122  0.0505
42600SOL    HW132738   3.557   0.291   1.903 -0.9345 -0.9876 -2.5540
42600SOL    HW232739   3.591   0.421   1.834  0.1637 -0.5370 -1.1872
42601SOL     OW32740   9.678   1.845   6.838  0.4168  0.0030  0.2707
42601SOL    HW132741   9.681   1.763   6.788  0.4765  1.0714 -1.5668
42601SOL    HW232742   9.647   1.819   6.925  0.7536 -2.0060 -0.1627
42602SOL     OW32743   4.207   6.211  10.830 -0.2687  0.1172 -0.1538
42602SOL    HW132744   4.112   6.217  10.834 -0.3258 -1.2706  1.7605
42602SOL    HW232745   4.231   6.265  10.754 -2.4886  1.1669 -0.1885
42603SOL     OW32746   6.756   3.603   1.115  0.0811 -0.6825 -0.5882
42603SOL    HW132747   6.665   3.622   1.093  0.6143  1.3795 -1.3097
42603SOL    HW232748   6.761   3.613   1.210 -0.0805  1.1770 -0.7446
42604SOL     OW32749   8.723   2.210   5.638  0.2042 -0.6030 -0.0240
42604SOL    HW132750   8.733   2.183   5.547 -0.9236 -0.9511 -0.0529
42604SOL    HW232751   8.659   2.281   5.637  0.6482 -0.1811  0.4352
42605SOL     OW32752   5.090   0.539   4.451  0.1134  0.0429 -0.2048
42605SOL    HW132753   5.024   0.505   4.391  0.3574 -0.4290 -0.2123
42605SOL    HW232754   5.124   0.617   4.408 -1.0260  0.7848  0.1752
42606SOL     OW32755   7.020   2.185   9.064  0.1340  0.3420 -0.1528
42606SOL    HW132756   6.985   2.120   9.003  0.6425 -0.3335  0.2610
42606SOL    HW232757   7.115   2.173   9.060  0.1603  0.0088  1.0623
42607SOL     OW32758   0.302  10.178   5.820 -0.0152 -0.3455  0.3318
42607SOL    HW132759   0.276  10.169   5.911  1.1381 -0.1969  0.6891
42607SOL    HW232760   0.219  10.175   5.771 -0.5633 -1.7346  1.2666
42608SOL     OW32761   5.642   0.593   6.221  0.0039 -0.2025 -0.1256
42608SOL    HW132762   5.643   0.674   6.170 -0.6454 -0.3770 -0.4216
42608SOL    HW232763   5.584   0.611   6.294 -0.5918 -0.5829 -0.5011
42609SOL     OW32764   8.488   2.589   3.125  0.2814  0.0158 -0.1213
42609SOL    HW132765   8.431   2.580   3.201 -0.2088  0.6394 -0.4081
42609SOL    HW232766   8.575   2.606   3.162 -0.0188  0.6673  0.2974
42610SOL     OW32767   9.522   6.542   0.904  0.0505 -0.0140  0.5215
42610SOL    HW132768   9.496   6.602   0.834  3.8571 -0.2368 -1.3348
42610SOL    HW232769   9.575   6.595   0.963 -0.5286 -0.5371  1.5349
42611SOL     OW32770   3.748   1.811  11.225 -0.6890  0.0141 -0.4494
42611SOL    HW132771   3.664   1.844  11.192 -1.2178 -1.0356 -0.1925
42611SOL    HW232772   3.763   1.730  11.177  0.9630  0.9638 -1.6165
42612SOL     OW32773   3.172   2.896  11.523 -0.1592  0.1026  0.4309
42612SOL    HW132774   3.140   2.838  11.453 -1.6187  0.0017  1.1366
42612SOL    HW232775   3.260   2.865  11.542 -0.4257 -1.0492 -0.1142
42613SOL     OW32776  10.320   7.388   2.500  0.2080  0.1027  0.4640
42613SOL    HW132777  10.359   7.473   2.524  1.2268 -0.3898  0.6158
42613SOL    HW232778  10.394   7.336   2.469 -0.8980  0.5366 -3.4826
42614SOL     OW32779   2.217   9.776   5.120  0.0751 -0.4229 -0.0824
42614SOL    HW132780   2.127   9.776   5.152  0.0415  0.0190 -0.1768
42614SOL    HW232781   2.227   9.691   5.077 -0.1311 -0.6890  0.3887
42615SOL     OW32782   9.017   5.840   3.250 -0.0793  0.2673 -0.2112
42615SOL    HW132783   9.101   5.885   3.248 -0.2085  0.5074 -2.2656
42615SOL    HW232784   9.020   5.781   3.175 -2.0256  0.8338 -0.7808
42616SOL     OW32785   6.876   5.080   8.237  0.3389 -0.3984 -0.0302
42616SOL    HW132786   6.966   5.056   8.215 -0.0829 -2.6882  0.4580
42616SOL    HW232787   6.875   5.084   8.333 -0.2741 -1.3945  0.0192
42617SOL     OW32788   3.107  10.532   2.850  0.2662  0.5329 -0.1794
42617SOL    HW132789   3.116  10.493   2.763 -0.3369 -1.0766  0.4464
42617SOL    HW232790   3.018  10.510   2.877  0.9488 -0.3942  1.4723
42618SOL     OW32791   6.847   9.215   1.589  0.0688 -0.2119  0.5365
42618SOL    HW132792   6.870   9.308   1.577  1.1106  0.1037  3.8045
42618SOL    HW232793   6.921   9.167   1.552  0.1991  0.3140  0.0996
42619SOL     OW32794   2.072   0.775   4.333 -0.1943  0.5019  0.1506
42619SOL    HW132795   2.112   0.774   4.420 -0.7814  1.5567  0.4592
42619SOL    HW232796   2.128   0.719   4.280 -0.0077 -0.4176  1.2833
42620SOL     OW32797  10.842   8.831   8.266 -0.0747 -0.1048  0.4080
42620SOL    HW132798  10.768   8.773   8.284 -0.1952  0.1483  0.7304
42620SOL    HW232799  10.837   8.849   8.172 -1.3332  1.1514  0.6848
42621SOL     OW32800  10.640   9.814   3.151  0.3649  0.1588 -0.1143
42621SOL    HW132801  10.679   9.727   3.153  0.5815  0.2150 -1.1925
42621SOL    HW232802  10.713   9.873   3.172  0.4824  0.1484 -0.4804
42622SOL     OW32803   0.600   3.440   7.736 -0.9433 -0.6312  0.0543
42622SOL    HW132804   0.601   3.532   7.708  1.4425 -0.0240  1.8168
42622SOL    HW232805   0.654   3.395   7.670 -1.4835 -0.6602 -0.3811
42623SOL     OW32806   2.623   6.789  10.388  0.6011 -0.6766 -0.5446
42623SOL    HW132807   2.678   6.783  10.466 -1.3446  1.1492  1.0819
42623SOL    HW232808   2.645   6.874  10.350  1.6642 -1.6247 -2.1875
42624SOL     OW32809   4.748  11.241   6.851 -0.0166  0.0780 -0.1871
42624SOL    HW132810   4.808  11.312   6.874  0.3206 -0.6641  1.3125
42624SOL    HW232811   4.804  11.163   6.844 -0.5754 -0.3103 -0.4508
42625SOL     OW32812   6.878   9.429   5.590 -0.0377  0.0167 -0.0330
42625SOL    HW132813   6.823   9.372   5.643  0.9989 -0.5777  0.4453
42625SOL    HW232814   6.891   9.507   5.644  0.0968 -0.1098  0.1187
42626SOL     OW32815   5.777  11.413   7.562  0.4647 -0.3663  0.0266
42626SOL    HW132816   5.747  11.440   7.475  0.2775  0.1130  0.2315
42626SOL    HW232817   5.845  11.477   7.585  0.6754 -0.6286  0.1364
42627SOL     OW32818   4.818  10.235   9.473  0.1595  0.1368 -0.5057
42627SOL    HW132819   4.765  10.161   9.442  0.4691  0.0987 -0.9437
42627SOL    HW232820   4.837  10.285   9.394  1.0082  0.0013 -0.3906
42628SOL     OW32821   8.003   0.793   9.680  0.3961  0.5004  0.7566
42628SOL    HW132822   8.072   0.801   9.613 -0.2325  0.7894  0.1335
42628SOL    HW232823   8.029   0.717   9.731 -0.9989 -2.1225 -2.1218
42629SOL     OW32824   0.599   4.422   7.410  0.2404  0.2169  0.0323
42629SOL    HW132825   0.548   4.364   7.354  1.1606 -1.3215  0.7085
42629SOL    HW232826   0.586   4.509   7.374 -1.1386 -0.4192 -1.0674
42630SOL     OW32827   3.410   3.956  11.483  0.2465 -0.6889  0.1492
42630SOL    HW132828   3.330   3.987  11.526 -0.5820  0.0039 -1.7815
42630SOL    HW232829   3.477   4.020  11.508 -0.4092  0.1613 -0.2229
42631SOL     OW32830   4.812  10.174  11.081 -0.0659 -0.5501  0.0845
42631SOL    HW132831   4.889  10.230  11.067 -0.1327  0.0855  2.0613
42631SOL    HW232832   4.739  10.226  11.048  0.1245 -0.3709 -0.0603
42632SOL     OW32833   2.144  10.138   3.732  0.4392  0.0386 -0.5983
42632SOL    HW132834   2.062  10.131   3.684 -0.9296  2.4820  1.1744
42632SOL    HW232835   2.194  10.205   3.684  1.2578 -1.0911 -1.3876
42633SOL     OW32836   3.868   7.759   5.152 -0.1478 -0.3466 -0.5940
42633SOL    HW132837   3.894   7.671   5.126  0.0123 -0.5214  0.1407
42633SOL    HW232838   3.917   7.818   5.094 -0.2562 -0.7373 -1.0842
42634SOL     OW32839   4.486   6.054   7.198 -0.4296 -0.1910 -0.0942
42634SOL    HW132840   4.504   6.119   7.267 -0.3840  0.1827 -0.4507
42634SOL    HW232841   4.399   6.078   7.165 -1.5037 -1.7980  1.4040
42635SOL     OW32842  10.145   4.171   7.701 -0.5473  0.1068  0.1056
42635SOL    HW132843  10.203   4.239   7.733 -0.9500  0.1153  0.8599
42635SOL    HW232844  10.130   4.192   7.609 -2.0101  2.0390  0.7025
42636SOL     OW32845  11.369   8.023   4.512  0.7812  0.0208 -0.0212
42636SOL    HW132846  11.300   8.011   4.447  0.8174  0.3117 -0.1161
42636SOL    HW232847  11.433   8.079   4.469 -0.5359  2.6749  1.2152
42637SOL     OW32848   2.529   0.920   6.805 -0.8690 -0.3783 -0.3593
42637SOL    HW132849   2.458   0.984   6.810 -0.7763 -0.3526  0.7719
42637SOL    HW232850   2.609   0.971   6.819 -0.8632 -0.8575  1.6288
42638SOL     OW32851   4.535   8.458   6.246  0.3575 -0.2913  0.2098
42638SOL    HW132852   4.473   8.396   6.206  0.0470 -1.3133  2.1789
42638SOL    HW232853   4.493   8.485   6.328  1.2410  1.2861  0.1935
42639SOL     OW32854  11.333   2.762  10.521  0.2159  0.2032 -0.1661
42639SOL    HW132855  11.245   2.766  10.483  0.0770 -0.1314  0.1214
42639SOL    HW232856  11.336   2.679  10.567  1.5777 -1.0863 -2.4050
42640SOL     OW32857   9.808   5.782   8.282  0.2427 -0.0268  0.1777
42640SOL    HW132858   9.786   5.802   8.191  2.7384  1.5153 -0.1751
42640SOL    HW232859   9.755   5.843   8.333 -0.3713 -0.1628 -0.2865
42641SOL     OW32860   8.362  10.836   0.469  0.1865 -0.8994  0.7456
42641SOL    HW132861   8.408  10.876   0.543 -0.4983  0.8105  0.2902
42641SOL    HW232862   8.429  10.830   0.401  0.1973 -0.0577  0.6672
42642SOL     OW32863   8.888   1.849   0.960 -0.3527 -0.4045 -0.6273
42642SOL    HW132864   8.960   1.789   0.944  1.1924  0.1654  3.0291
42642SOL    HW232865   8.898   1.917   0.894  2.2591 -0.5908 -0.5235
42643SOL     OW32866  11.304   2.355  11.304  0.3442  0.5227 -0.2981
42643SOL    HW132867  11.328   2.265  11.324  1.7909  1.4608  2.7108
42643SOL    HW232868  11.287   2.395  11.389 -0.1032  3.1667 -1.5221
42644SOL     OW32869   7.986   3.577   2.802 -0.1236 -0.2652 -0.2095
42644SOL    HW132870   8.073   3.604   2.773  0.7709 -0.7572  1.8239
42644SOL    HW232871   7.938   3.659   2.817  0.3090  0.0252 -0.4070
42645SOL     OW32872   1.584  10.444   6.854 -0.2132 -0.2472  0.1351
42645SOL    HW132873   1.514  10.506   6.874 -0.8223 -1.1070  0.7530
42645SOL    HW232874   1.639  10.444   6.932  0.6466  0.6063 -0.4389
42646SOL     OW32875   9.269   2.684  10.644 -0.0661  0.0468  0.1077
42646SOL    HW132876   9.331   2.742  10.689  0.2442 -0.8978  0.9585
42646SOL    HW232877   9.186   2.731  10.647  0.5678  1.2970 -0.9693
42647SOL     OW32878   0.287   5.125   7.740 -0.3679  0.5887  0.1765
42647SOL    HW132879   0.367   5.147   7.788 -0.8711 -0.4961  1.5656
42647SOL    HW232880   0.300   5.035   7.710 -1.0312  0.4249  0.3541
42648SOL     OW32881  11.352   7.508   7.262  0.1372  0.5427 -0.2297
42648SOL    HW132882  11.280   7.452   7.233 -1.1459  1.4800  1.0399
42648SOL    HW232883  11.349   7.583   7.202  1.3024 -0.2987 -1.3796
42649SOL     OW32884  10.321   5.577   5.253  0.0248 -0.0443  0.4842
42649SOL    HW132885  10.370   5.582   5.171  0.8357  1.8991  1.0261
42649SOL    HW232886  10.309   5.483   5.269 -0.4445 -0.4581 -1.9919
42650SOL     OW32887   0.467   9.883   7.846  0.1293 -0.7167  0.0123
42650SOL    HW132888   0.407   9.935   7.899  0.0743 -0.4575 -0.2981
42650SOL    HW232889   0.517   9.831   7.909  0.5920  0.1407  0.3666
42651SOL     OW32890  11.412  10.001   5.813 -0.3111  0.6995 -0.1513
42651SOL    HW132891  11.491   9.962   5.849 -1.0615  1.4285  2.4526
42651SOL    HW232892  11.435  10.093   5.799 -0.1999  0.5428 -1.0557
42652SOL     OW32893   2.927   9.347   6.283  0.3849 -0.1380 -0.3737
42652SOL    HW132894   2.991   9.333   6.352  0.4043 -3.3027 -0.8937
42652SOL    HW232895   2.850   9.382   6.329  1.4082  0.7829  0.7100
42653SOL     OW32896  11.603  10.389   2.252  0.5714  0.0285  0.2208
42653SOL    HW132897  11.512  10.385   2.284  1.5385 -0.6454  3.2956
42653SOL    HW232898  11.616  10.305   2.207  0.1182 -0.6952  1.3606
42654SOL     OW32899   6.437   5.540   5.546  0.2011 -0.5072  0.0622
42654SOL    HW132900   6.473   5.629   5.537  1.2702 -0.9383 -0.0863
42654SOL    HW232901   6.345   5.549   5.521 -0.4986  1.1151  2.7831
42655SOL     OW32902  11.313   1.803   1.179  0.1714  0.0346  0.2375
42655SOL    HW132903  11.407   1.793   1.194 -0.0384 -0.1009  1.5571
42655SOL    HW232904  11.307   1.845   1.093  1.3632 -2.1951 -1.0483
42656SOL     OW32905   3.781   3.219   7.231 -0.1831 -0.3045  0.2012
42656SOL    HW132906   3.840   3.293   7.241 -0.0923 -0.3266 -0.1358
42656SOL    HW232907   3.709   3.253   7.178 -0.8563 -0.0705  1.2498
42657SOL     OW32908   8.843   1.922   4.895  0.3301  0.0692  0.3263
42657SOL    HW132909   8.842   1.999   4.951  1.6073  0.9892 -0.8613
42657SOL    HW232910   8.819   1.955   4.808  0.1109 -1.0134 -0.0431
42658SOL     OW32911   1.701  10.852   1.723  0.3698  0.1928 -0.3341
42658SOL    HW132912   1.622  10.840   1.670  1.3206 -0.6720 -1.6233
42658SOL    HW232913   1.772  10.819   1.667  1.8632  2.4425  0.1351
42659SOL     OW32914   6.102   8.278   1.333 -0.4684  0.1807  0.3417
42659SOL    HW132915   6.140   8.339   1.396 -0.6375  0.3364  0.2950
42659SOL    HW232916   6.140   8.303   1.249 -0.4989  0.1885  0.3303
42660SOL     OW32917   5.845   4.044  10.479  0.9235 -0.6989 -0.0478
42660SOL    HW132918   5.812   4.133  10.493  0.1563 -0.9182 -0.3939
42660SOL    HW232919   5.930   4.043  10.522  1.2152  0.3900 -0.5544
42661SOL     OW32920  10.897  10.429   4.965  0.2854 -0.0824 -0.3181
42661SOL    HW132921  10.949  10.432   4.884 -1.1058 -0.3907 -1.2631
42661SOL    HW232922  10.917  10.344   5.004  0.0817 -0.4321 -0.9653
42662SOL     OW32923   0.343   3.306   3.262  0.7597  0.1971  0.0450
42662SOL    HW132924   0.381   3.253   3.192  0.3543 -0.4824  0.3190
42662SOL    HW232925   0.386   3.274   3.342 -0.9034 -1.1621  0.4673
42663SOL     OW32926   7.394   8.000   7.568  0.0845 -0.0385  0.5640
42663SOL    HW132927   7.344   7.997   7.486  0.1655 -0.3440  0.5243
42663SOL    HW232928   7.438   7.915   7.572  0.5835  0.2233  0.6114
42664SOL     OW32929  10.222  10.837   7.498 -0.1656 -0.0081 -0.3301
42664SOL    HW132930  10.311  10.843   7.462  0.1021 -0.3955  0.2433
42664SOL    HW232931  10.235  10.844   7.593 -0.9139  1.6699 -0.3186
42665SOL     OW32932  11.054   6.743   2.985 -0.1335  0.0609 -0.3913
42665SOL    HW132933  10.984   6.715   2.925 -0.3000 -2.4555  0.8702
42665SOL    HW232934  11.009   6.795   3.051 -0.2220  1.3811 -1.4536
42666SOL     OW32935  10.974   0.303   9.943 -0.0751 -0.5969  0.0114
42666SOL    HW132936  10.878   0.304   9.932 -0.1182  0.0319  0.3700
42666SOL    HW232937  10.999   0.395   9.933  0.6779 -0.9401 -1.5321
42667SOL     OW32938   9.319   0.630  10.480  0.0637 -0.0873  0.1975
42667SOL    HW132939   9.366   0.706  10.514  0.6899  0.1238 -1.0841
42667SOL    HW232940   9.240   0.667  10.440 -0.0062 -0.1975  0.2318
42668SOL     OW32941   7.676   6.947   5.018 -0.5530 -0.2471  0.3545
42668SOL    HW132942   7.709   6.960   5.107  0.4483 -0.6288  0.0559
42668SOL    HW232943   7.743   6.894   4.975 -2.0650 -1.9788  0.0095
42669SOL     OW32944  10.267   7.590  11.027  0.2410  0.4673 -0.0093
42669SOL    HW132945  10.232   7.611  10.940 -0.4852  0.9243  0.3858
42669SOL    HW232946  10.337   7.526  11.010  0.6793  1.1835 -0.9990
42670SOL     OW32947   1.941   9.455  10.599 -0.2603 -0.1580  0.1033
42670SOL    HW132948   1.939   9.546  10.628 -0.4943 -0.7245  2.0618
42670SOL    HW232949   2.031   9.440  10.571 -0.2282  0.6714 -0.2429
42671SOL     OW32950   9.736   7.004   1.854 -0.5368  0.0971  0.4456
42671SOL    HW132951   9.758   7.004   1.761 -2.1817 -0.4489  0.0314
42671SOL    HW232952   9.821   7.007   1.898  0.4756  6.2411 -0.9736
42672SOL     OW32953   6.528   5.093   3.182  0.0331  0.2131 -0.3376
42672SOL    HW132954   6.553   5.163   3.241  1.0529 -0.2588 -0.1884
42672SOL    HW232955   6.432   5.092   3.185  0.0518  0.4120  1.0515
42673SOL     OW32956   8.015   9.661   3.313  0.5223  0.5441 -0.1330
42673SOL    HW132957   8.080   9.622   3.372  1.5039  1.7534 -0.3637
42673SOL    HW232958   8.063   9.731   3.268 -1.1297  1.9318  0.1866
42674SOL     OW32959   6.590  11.553   5.442  0.2409  0.1379 -0.3311
42674SOL    HW132960   6.537  11.621   5.484 -1.1487 -1.2722  0.3195
42674SOL    HW232961   6.676  11.561   5.483 -0.7914 -0.5403  2.1279
42675SOL     OW32962   6.476   1.802   3.355  0.6270 -1.3874  0.6588
42675SOL    HW132963   6.386   1.797   3.387  0.2971  3.6046  1.4086
42675SOL    HW232964   6.525   1.841   3.427  1.7567  2.2086 -1.7740
42676SOL     OW32965   7.138   9.814   8.609  0.4301  0.3318 -0.3601
42676SOL    HW132966   7.123   9.853   8.522  0.8847  0.1811 -0.5047
42676SOL    HW232967   7.149   9.721   8.592 -0.9056  0.0754  0.0122
42677SOL     OW32968   0.899   0.345   4.810  0.1778 -0.7258 -0.2096
42677SOL    HW132969   0.963   0.364   4.741  0.6887 -0.4501  0.3325
42677SOL    HW232970   0.910   0.252   4.829  0.0855 -0.7855 -0.4535
42678SOL     OW32971   9.339   6.853   3.022  0.0509 -0.2104 -0.3253
42678SOL    HW132972   9.365   6.921   2.960  1.1137 -0.8064 -0.5522
42678SOL    HW232973   9.304   6.901   3.097  0.4036  0.5713 -0.6489
42679SOL     OW32974   2.539   2.820   5.367  0.0588  0.7062  0.1143
42679SOL    HW132975   2.618   2.857   5.405  1.1617 -2.0590  0.7418
42679SOL    HW232976   2.550   2.831   5.272  0.4811  1.5942  0.2535
42680SOL     OW32977   6.719   0.547  10.687  0.0776 -0.1262  0.6424
42680SOL    HW132978   6.747   0.469  10.735 -1.9467 -0.7912  0.8471
42680SOL    HW232979   6.624   0.546  10.693 -0.0245  2.4914  0.8129
42681SOL     OW32980   9.519   8.664   0.084 -0.1002  0.0511  0.0477
42681SOL    HW132981   9.553   8.733   0.028 -0.1481 -0.9833 -1.3217
42681SOL    HW232982   9.430   8.692   0.107 -0.0277  0.5634 -0.2934
42682SOL     OW32983   8.847   8.884   8.100 -0.0489 -0.2600 -0.0166
42682SOL    HW132984   8.906   8.843   8.036 -0.0511  1.3988 -1.1362
42682SOL    HW232985   8.882   8.858   8.185  1.8215  0.0026 -0.6632
42683SOL     OW32986   1.629   7.367   3.795 -0.7798 -0.1536  0.6250
42683SOL    HW132987   1.578   7.446   3.779 -1.5672 -1.1315 -2.2017
42683SOL    HW232988   1.567   7.306   3.836 -0.2630  0.4740  2.4759
42684SOL     OW32989   6.226   2.431   0.629  0.8410  0.3156  0.1624
42684SOL    HW132990   6.256   2.380   0.553 -2.2948 -0.5238 -0.7041
42684SOL    HW232991   6.274   2.513   0.624 -0.4213  1.0394 -3.8776
42685SOL     OW32992   5.725  11.361   9.374 -0.2560 -0.3190  0.1068
42685SOL    HW132993   5.703  11.397   9.289 -0.7181 -1.0962 -0.1154
42685SOL    HW232994   5.678  11.416   9.437 -1.9439 -1.2302 -0.2955
42686SOL     OW32995   1.545   3.795   0.186  0.0966  0.4084  0.1942
42686SOL    HW132996   1.600   3.862   0.147 -1.7823  2.0685  0.2166
42686SOL    HW232997   1.525   3.827   0.274 -1.6611  0.3930 -0.1503
42687SOL     OW32998   6.884   8.257   8.690  0.1082  0.0096 -0.3208
42687SOL    HW132999   6.850   8.331   8.640  1.1423  1.0107  0.4174
42687SOL    HW233000   6.933   8.297   8.762  2.8732 -1.3403 -1.3168
42688SOL     OW33001   8.042   5.749   3.093 -0.2296  0.9270  0.3530
42688SOL    HW133002   8.045   5.696   3.013 -3.1212 -1.6904  1.7967
42688SOL    HW233003   8.122   5.725   3.141  0.3777  0.8216 -0.6848
42689SOL     OW33004   2.045   2.140   6.306  0.0126  0.0151 -0.3075
42689SOL    HW133005   2.006   2.225   6.290 -0.0975 -0.0080 -0.1660
42689SOL    HW233006   2.128   2.142   6.259  1.8617  1.6464  2.6969
42690SOL     OW33007  10.019   3.137   1.084  0.0167 -0.1299 -0.1552
42690SOL    HW133008  10.076   3.197   1.132 -0.9063  0.8615 -0.2562
42690SOL    HW233009   9.985   3.190   1.011 -0.0584 -1.0682 -0.8131
42691SOL     OW33010   3.284  11.029   3.138  0.3030  0.3992  0.0872
42691SOL    HW133011   3.229  11.106   3.129  0.5470  0.5196 -0.4261
42691SOL    HW233012   3.237  10.960   3.091  0.0004  0.1891  0.6950
42692SOL     OW33013   3.365   8.559   5.958 -0.0447  0.1319  0.0008
42692SOL    HW133014   3.403   8.567   5.870  2.6240  1.8907  1.1789
42692SOL    HW233015   3.336   8.468   5.963  0.9768 -0.3915 -2.2217
42693SOL     OW33016   7.058   2.447   5.428  0.8876  0.5245 -0.1634
42693SOL    HW133017   6.999   2.484   5.493  2.1876  1.5383  0.4709
42693SOL    HW233018   7.110   2.521   5.397  0.8293 -0.0754 -1.8017
42694SOL     OW33019   6.752  10.252   8.469  0.3400 -0.2642  0.1387
42694SOL    HW133020   6.662  10.258   8.500  0.2005 -4.0072  0.9625
42694SOL    HW233021   6.801  10.309   8.528 -1.0719 -0.7304  1.8650
42695SOL     OW33022   6.069   9.777   3.423  0.0065 -0.2867  0.1019
42695SOL    HW133023   6.005   9.741   3.361 -1.3581  0.5324  1.0042
42695SOL    HW233024   6.087   9.705   3.483 -0.5803 -0.3158  0.2434
42696SOL     OW33025   1.236   3.346   5.484  0.1316  0.6524 -0.1395
42696SOL    HW133026   1.210   3.260   5.450 -0.1727  0.4637  0.5566
42696SOL    HW233027   1.200   3.408   5.420  0.3905  0.2638 -0.6682
42697SOL     OW33028   5.867   1.753   4.223  0.0733  0.1905  0.0023
42697SOL    HW133029   5.953   1.736   4.262  0.5927  1.8347 -0.3569
42697SOL    HW233030   5.812   1.780   4.297  0.7141  2.0622 -0.1554
42698SOL     OW33031   0.665   2.096   9.685 -0.4918 -0.4216 -1.1885
42698SOL    HW133032   0.748   2.144   9.676 -0.9001  0.2183 -1.5823
42698SOL    HW233033   0.642   2.070   9.596 -0.8358 -0.3870 -1.1112
42699SOL     OW33034   2.597   3.200   3.939 -0.0318  0.2328 -0.4152
42699SOL    HW133035   2.604   3.283   3.891 -0.7476  0.0321 -0.8941
42699SOL    HW233036   2.675   3.151   3.914  1.1000  1.2779  0.9291
42700SOL     OW33037   9.953   1.396   2.063 -0.2610 -0.0091 -0.1980
42700SOL    HW133038   9.966   1.490   2.050 -1.5437  0.1768 -0.3386
42700SOL    HW233039  10.041   1.359   2.067  0.4251  1.5938  2.8623
42701SOL     OW33040   7.776   0.376   3.698 -0.3731 -0.1436 -0.4153
42701SOL    HW133041   7.844   0.422   3.747  0.2386 -1.7287  0.3029
42701SOL    HW233042   7.817   0.354   3.614 -0.5593  0.3347 -0.6331
42702SOL     OW33043   8.172   7.776   9.267 -0.1748  0.2626  0.4274
42702SOL    HW133044   8.159   7.839   9.195  0.1672 -0.4465 -0.2668
42702SOL    HW233045   8.186   7.831   9.344  0.8099  1.0565 -0.2865
42703SOL     OW33046  11.605   4.395   6.027  0.6981 -0.2158  0.1413
42703SOL    HW133047  11.542   4.344   6.078 -0.3953  0.7945 -0.1448
42703SOL    HW233048  11.669   4.330   5.997  0.4204 -1.0958  1.3622
42704SOL     OW33049   7.253   8.125   2.937  0.3446  0.1176  0.0955
42704SOL    HW133050   7.191   8.084   2.877 -3.1121 -0.1033  3.4017
42704SOL    HW233051   7.330   8.070   2.934 -0.5724 -1.1524 -2.3891
42705SOL     OW33052   3.735   3.469   4.092 -0.3208  0.0253  0.2910
42705SOL    HW133053   3.676   3.393   4.095 -1.3879  0.8242  0.0691
42705SOL    HW233054   3.765   3.472   4.001 -0.1130 -0.2524  0.3498
42706SOL     OW33055  10.042   6.557   0.825  0.5788 -0.2247 -0.0411
42706SOL    HW133056   9.998   6.557   0.910  1.4872 -0.3835  0.4343
42706SOL    HW233057  10.119   6.612   0.838 -0.2270  1.2788 -1.2760
42707SOL     OW33058   2.833   3.681   9.661  0.6169  0.0477  0.1927
42707SOL    HW133059   2.814   3.768   9.624 -0.6335  0.0105  0.6856
42707SOL    HW233060   2.750   3.654   9.700  1.1618 -1.1210  0.5656
42708SOL     OW33061   6.956  11.551   2.662 -0.0698 -0.0221 -0.0210
42708SOL    HW133062   6.915  11.636   2.672 -2.7781 -1.1084 -0.9420
42708SOL    HW233063   6.899  11.491   2.710  1.5427 -1.4159  0.2704
42709SOL     OW33064  11.367  11.371  10.485 -0.1127 -0.4346  0.1247
42709SOL    HW133065  11.276  11.347  10.463  0.1020 -0.7320 -0.4586
42709SOL    HW233066  11.402  11.407  10.404 -0.2231  1.2909  0.8038
42710SOL     OW33067   9.775   8.742   8.073  0.0984 -0.6340  0.0234
42710SOL    HW133068   9.714   8.680   8.112 -1.3140  0.5388 -0.2636
42710SOL    HW233069   9.839   8.687   8.026 -0.1493 -1.9073  1.1395
42711SOL     OW33070   0.623   5.392   8.150  0.1163  0.0095 -0.1164
42711SOL    HW133071   0.587   5.331   8.215  1.4957 -0.0699  0.6087
42711SOL    HW233072   0.583   5.476   8.171 -1.6318 -0.5729 -0.9829
42712SOL     OW33073  11.514   0.092   2.460  0.5255  0.6183  0.3634
42712SOL    HW133074  11.495   0.013   2.512  0.9560  0.2969  0.0365
42712SOL    HW233075  11.474   0.074   2.375  1.9925  0.0561 -0.2406
42713SOL     OW33076   4.391   0.608  11.140 -0.1186  0.4275  0.4438
42713SOL    HW133077   4.443   0.601  11.221 -0.5887  1.4935  0.8487
42713SOL    HW233078   4.305   0.575  11.164 -0.1503  0.3895  0.2763
42714SOL     OW33079   6.962   7.419  11.459 -0.2174  0.5319 -0.4673
42714SOL    HW133080   7.040   7.450  11.505  0.6166  0.8901 -2.0804
42714SOL    HW233081   6.996   7.377  11.380 -1.5977 -0.5173 -0.5436
42715SOL     OW33082   9.285   3.103   2.138 -0.0499 -0.2305  0.9416
42715SOL    HW133083   9.208   3.070   2.093  0.9363  0.0604 -1.1022
42715SOL    HW233084   9.330   3.024   2.170 -0.7948 -0.4389  1.5055
42716SOL     OW33085  10.080   5.295   4.801  0.1601 -0.3086 -0.0228
42716SOL    HW133086  10.167   5.267   4.776  0.6620 -0.1132  1.4008
42716SOL    HW233087  10.047   5.225   4.857 -0.1980  0.0638  0.2411
42717SOL     OW33088   1.712   3.884   9.505 -0.5795 -0.3309  0.0426
42717SOL    HW133089   1.781   3.833   9.548 -0.8642 -1.2465 -0.5611
42717SOL    HW233090   1.727   3.973   9.535  0.2195 -0.6848  0.7585
42718SOL     OW33091   6.343  11.668   2.144 -0.3075  0.2934  0.2402
42718SOL    HW133092   6.403  11.606   2.185  0.6223 -1.1429 -2.9523
42718SOL    HW233093   6.256  11.638   2.170  0.1929  0.8166  2.8086
42719SOL     OW33094   4.156  10.084   6.390  0.2967  0.2230 -0.5089
42719SOL    HW133095   4.084  10.069   6.330  0.1939 -0.0818 -0.3111
42719SOL    HW233096   4.126  10.047   6.473  0.2409  1.0612 -0.1412
42720SOL     OW33097   7.740  10.078   4.861  0.0917 -0.1348  0.4030
42720SOL    HW133098   7.709   9.989   4.880 -0.6624  0.3787  1.6258
42720SOL    HW233099   7.707  10.096   4.773 -1.1359 -0.4607  0.7898
42721SOL     OW33100   2.908   0.517   0.076 -0.3900  0.1370 -0.1533
42721SOL    HW133101   2.835   0.455   0.072  0.4973 -0.9474  0.0014
42721SOL    HW233102   2.956   0.493   0.155 -1.3715  2.6213  1.3155
42722SOL     OW33103   0.845   1.497   4.171  0.0629  0.1377  0.2173
42722SOL    HW133104   0.761   1.451   4.172  0.1758 -0.0702  0.1733
42722SOL    HW233105   0.823   1.587   4.148 -0.1357  0.0579  0.0933
42723SOL     OW33106  11.114   8.358   5.504  0.1983  0.0942  0.2345
42723SOL    HW133107  11.075   8.322   5.423  0.4959  0.2111  0.0385
42723SOL    HW233108  11.041   8.359   5.566  0.1557 -0.7791  0.2222
42724SOL     OW33109   3.215   5.040  10.997  0.3017 -0.2049 -0.0045
42724SOL    HW133110   3.139   5.073  10.950 -0.3137 -0.4131  0.8120
42724SOL    HW233111   3.231   5.105  11.065 -0.6396 -1.3085  1.3286
42725SOL     OW33112   4.752   5.575   9.257 -0.0759 -0.1266 -0.1168
42725SOL    HW133113   4.697   5.513   9.209  1.4298 -0.3437 -1.6411
42725SOL    HW233114   4.810   5.520   9.310 -0.6830  0.0789  0.7829
42726SOL     OW33115   1.504   9.487   1.008 -0.6358 -0.2623 -0.5472
42726SOL    HW133116   1.446   9.467   1.081  0.4124 -1.9720 -0.1198
42726SOL    HW233117   1.592   9.472   1.043 -0.1481 -2.6343 -2.5290
42727SOL     OW33118   7.968   5.563   7.223  0.1160 -0.0056  0.1851
42727SOL    HW133119   7.987   5.639   7.167 -0.1302 -0.4392 -0.4960
42727SOL    HW233120   7.945   5.493   7.162 -0.0852 -0.5125  0.8300
42728SOL     OW33121  10.145   2.648  10.839 -0.2517  0.2368  0.4455
42728SOL    HW133122  10.111   2.680  10.756  0.9387  1.3041  0.3549
42728SOL    HW233123  10.114   2.557  10.843  1.5803 -0.6208 -2.2612
42729SOL     OW33124  10.557   7.509   4.205  0.2899  0.5343  0.0974
42729SOL    HW133125  10.511   7.482   4.284  1.0551 -0.4739  0.2151
42729SOL    HW233126  10.501   7.478   4.133 -0.2620  1.2004  0.2231
42730SOL     OW33127   9.249   2.262  10.235  0.7221 -0.2874  0.4696
42730SOL    HW133128   9.344   2.271  10.235  0.8121  0.2207 -3.4041
42730SOL    HW233129   9.218   2.338  10.285  2.2795 -0.9967  2.6468
42731SOL     OW33130  11.090   5.117   3.463 -0.3205  0.0333 -0.1448
42731SOL    HW133131  11.122   5.033   3.495  1.2105  0.3289 -0.8146
42731SOL    HW233132  11.167   5.173   3.461 -0.3768  0.2032 -3.7115
42732SOL     OW33133   0.969   7.448  10.776  0.1185  0.2385 -0.1209
42732SOL    HW133134   0.962   7.400  10.694  0.2821  2.5276 -1.5577
42732SOL    HW233135   1.042   7.406  10.822  0.3493 -0.7844 -1.3548
42733SOL     OW33136   1.743   2.646   7.253  0.2663 -0.2811 -0.6803
42733SOL    HW133137   1.773   2.651   7.344  0.0080 -1.9224 -0.4734
42733SOL    HW233138   1.693   2.564   7.249  0.8462 -0.5748 -2.4704
42734SOL     OW33139   1.199   8.787   6.651  0.5901  0.1294 -0.3606
42734SOL    HW133140   1.193   8.842   6.573 -1.1851 -0.2791 -0.5518
42734SOL    HW233141   1.231   8.703   6.618  0.2927  0.0994 -0.5740
42735SOL     OW33142   0.518   9.312   2.524  0.3323 -0.3678 -0.2893
42735SOL    HW133143   0.479   9.381   2.471  0.3842  0.3074  0.5412
42735SOL    HW233144   0.611   9.315   2.503  0.1378 -1.2544 -1.4392
42736SOL     OW33145   1.441   0.324   4.263 -0.3335 -0.4354  0.3072
42736SOL    HW133146   1.355   0.323   4.220 -0.3970  2.4653  0.1764
42736SOL    HW233147   1.503   0.336   4.191 -0.2116  1.4425  0.6595
42737SOL     OW33148   0.501  10.420   1.773 -0.5661  0.5797 -0.6728
42737SOL    HW133149   0.477  10.345   1.827 -0.7358  3.0195  3.0563
42737SOL    HW233150   0.432  10.485   1.790  0.9527  2.5330 -1.5453
42738SOL     OW33151   1.509   9.072   2.250  0.4386 -0.5221 -0.0360
42738SOL    HW133152   1.502   9.020   2.170  0.6103  0.8179 -0.9395
42738SOL    HW233153   1.603   9.072   2.270  0.3910 -0.8932  0.2088
42739SOL     OW33154   5.076  11.661   2.867  0.1510  0.1064  0.5523
42739SOL    HW133155   5.142  11.715   2.910 -0.5107 -0.0421  1.8123
42739SOL    HW233156   5.009  11.722   2.838  0.0413  0.0959  0.7821
42740SOL     OW33157   3.174   0.524   8.756 -0.1505  0.2527  0.5030
42740SOL    HW133158   3.149   0.500   8.667 -0.5146 -0.0584  0.6876
42740SOL    HW233159   3.254   0.475   8.773 -0.9019 -0.8985  0.8892
42741SOL     OW33160   3.166   8.933   4.729  0.4740  0.6532 -0.7389
42741SOL    HW133161   3.148   8.994   4.658 -0.2641  1.1955 -0.0957
42741SOL    HW233162   3.135   8.848   4.696  0.8227  0.7568 -1.3441
42742SOL     OW33163   4.584   6.677  10.932  0.3409 -0.0496 -0.3514
42742SOL    HW133164   4.491   6.697  10.928  0.7540  2.0160 -0.8142
42742SOL    HW233165   4.588   6.586  10.962 -1.7727  0.2309  0.9571
42743SOL     OW33166   1.484   5.679   1.791  0.2248 -0.3549  0.1467
42743SOL    HW133167   1.431   5.737   1.846 -0.3104 -1.3203  0.6612
42743SOL    HW233168   1.568   5.673   1.837  0.3743  0.2045 -0.0416
42744SOL     OW33169   6.843   5.735   7.088  0.1414 -0.3628  0.4357
42744SOL    HW133170   6.921   5.766   7.134 -0.0985 -0.1369  0.6898
42744SOL    HW233171   6.876   5.666   7.029  0.4407 -0.6884  0.9764
42745SOL     OW33172   2.469   8.366   2.908 -0.0272  0.0009  0.0045
42745SOL    HW133173   2.537   8.424   2.874 -0.3060  0.1444 -0.3185
42745SOL    HW233174   2.515   8.308   2.969  0.4383 -0.0991 -0.4369
42746SOL     OW33175   8.611   6.744   3.827 -0.1134 -0.0221  0.1167
42746SOL    HW133176   8.607   6.829   3.784 -0.5345  0.0900  0.3762
42746SOL    HW233177   8.531   6.699   3.800  0.8402 -0.9651 -1.3061
42747SOL     OW33178  10.561   4.851   0.616  0.3270  0.0191 -0.0752
42747SOL    HW133179  10.500   4.884   0.682 -0.1428 -2.5008  0.8656
42747SOL    HW233180  10.505   4.828   0.542  0.7394  1.9347 -1.0276
42748SOL     OW33181   9.286   7.932   6.965 -0.2528 -0.3035  0.2629
42748SOL    HW133182   9.208   7.952   6.914 -0.3904 -0.1987  0.5152
42748SOL    HW233183   9.293   7.837   6.962 -1.5782 -0.5034  1.9826
42749SOL     OW33184   8.697   0.891   1.336  0.4474 -0.5174 -0.1315
42749SOL    HW133185   8.670   0.851   1.253  2.1957  1.9583 -2.0443
42749SOL    HW233186   8.716   0.982   1.314  1.2894  0.1827  2.9642
42750SOL     OW33187  11.284   3.419   4.441 -0.5716 -0.1891  0.1781
42750SOL    HW133188  11.353   3.362   4.477  0.2446  2.2567  2.8805
42750SOL    HW233189  11.331   3.485   4.391 -0.8830  1.2407  1.6765
42751SOL     OW33190   3.710   2.839   0.667 -0.4156  0.1523  0.2295
42751SOL    HW133191   3.749   2.800   0.745  0.1130 -2.4898 -1.2250
42751SOL    HW233192   3.616   2.823   0.677 -0.3701 -0.0042  0.4172
42752SOL     OW33193   8.049   2.077   5.095  0.4234 -0.0776 -0.7900
42752SOL    HW133194   8.007   2.116   5.019 -0.9968 -0.8139 -0.4402
42752SOL    HW233195   8.008   2.120   5.170  0.9709 -0.1587 -0.4359
42753SOL     OW33196   6.013   5.872   3.860  0.2945  0.1808 -0.2694
42753SOL    HW133197   5.996   5.965   3.876  0.1618  0.4372 -1.7306
42753SOL    HW233198   6.052   5.870   3.772  0.5081 -1.1246 -0.1596
42754SOL     OW33199   2.953  10.345   3.055  0.3987  0.2862  0.8068
42754SOL    HW133200   2.963  10.318   2.964  2.5065  0.5930  0.8983
42754SOL    HW233201   2.895  10.421   3.052  0.9249  0.6512 -0.3408
42755SOL     OW33202   7.178   3.674   6.105 -0.2030 -0.0854 -0.2065
42755SOL    HW133203   7.269   3.698   6.119  0.1168 -1.5302  0.3165
42755SOL    HW233204   7.182   3.589   6.061 -1.2961  0.3542 -1.2096
42756SOL     OW33205   0.598   9.275  11.081 -0.1176 -0.2697  0.9432
42756SOL    HW133206   0.527   9.314  11.132  1.1648  1.7842  1.2906
42756SOL    HW233207   0.588   9.181  11.094 -1.3119  0.0807  2.9842
42757SOL     OW33208  11.216   2.028  10.372 -0.1721 -0.3846  0.6341
42757SOL    HW133209  11.283   2.021  10.441  0.7220  0.1411 -0.1530
42757SOL    HW233210  11.229   1.950  10.318  1.7707  1.0724 -1.1739
42758SOL     OW33211   2.587   6.578   2.125  0.0482  0.1590 -0.3224
42758SOL    HW133212   2.608   6.666   2.157  0.0983  0.6686 -1.7090
42758SOL    HW233213   2.516   6.592   2.062  0.8858 -0.6293 -1.4708
42759SOL     OW33214  11.157   8.743   6.506  0.6536  0.2755 -0.1095
42759SOL    HW133215  11.140   8.799   6.582 -2.0707 -0.9140  0.2609
42759SOL    HW233216  11.252   8.749   6.493  1.2188  0.6158  3.2994
42760SOL     OW33217   4.177   0.254  10.293 -0.0195  0.4518 -0.2568
42760SOL    HW133218   4.219   0.284  10.374  0.8560 -2.0914  0.3224
42760SOL    HW233219   4.088   0.289  10.299 -0.0838  0.1008  1.9995
42761SOL     OW33220   7.418   1.654   4.678 -0.2956  0.1301 -0.2173
42761SOL    HW133221   7.364   1.575   4.678  2.2955 -1.8419  2.0968
42761SOL    HW233222   7.489   1.635   4.618  0.8838  0.2736  1.0948
42762SOL     OW33223  10.606  10.458   4.934 -0.1059  0.1592  0.0851
42762SOL    HW133224  10.696  10.426   4.932 -0.0603  0.3039 -1.0993
42762SOL    HW233225  10.574  10.445   4.844 -2.0009 -1.8673  0.9723
42763SOL     OW33226   2.398   1.045   0.268 -0.4531  0.0609  0.1266
42763SOL    HW133227   2.322   1.008   0.315  1.0124 -2.7163  0.4925
42763SOL    HW233228   2.413   0.985   0.196  1.8129  0.1369  0.4785
42764SOL     OW33229   9.923   5.388   2.329 -0.2269  0.0155  0.3527
42764SOL    HW133230   9.991   5.337   2.373 -0.0839 -1.2386 -1.2255
42764SOL    HW233231   9.904   5.339   2.249 -1.4155  1.5025 -0.3360
42765SOL     OW33232  11.118   9.551   5.251 -0.1514 -0.0027 -0.0409
42765SOL    HW133233  11.119   9.501   5.332 -0.5658  0.7661  0.4431
42765SOL    HW233234  11.033   9.594   5.250  1.3419  3.2309  1.1168
42766SOL     OW33235   8.766   4.402   1.988 -0.1158 -0.3491  0.0178
42766SOL    HW133236   8.852   4.404   1.948 -0.5574  0.2026 -0.9449
42766SOL    HW233237   8.759   4.486   2.034  0.2577 -0.8363  0.9715
42767SOL     OW33238   1.000   1.235  11.366  0.4704  0.0239 -0.0061
42767SOL    HW133239   1.095   1.223  11.358  0.9087  1.5990  2.1041
42767SOL    HW233240   0.978   1.204  11.454 -0.9693 -0.1643 -0.3969
42768SOL     OW33241   0.060   6.928   8.968  0.4886 -0.2365  0.6751
42768SOL    HW133242   0.135   6.916   8.909 -1.3119 -3.5773 -1.2650
42768SOL    HW233243   0.087   6.888   9.050  0.8101 -1.6978 -0.1087
42769SOL     OW33244   0.871  10.323   1.157  0.5325  0.9022  0.2919
42769SOL    HW133245   0.855  10.291   1.246 -0.6432  0.7981  0.0681
42769SOL    HW233246   0.848  10.416   1.160 -1.9150  0.4086 -0.4156
42770SOL     OW33247   4.077   4.393  11.593 -0.5533 -0.5758 -0.1620
42770SOL    HW133248   4.063   4.449  11.670 -0.4930 -0.5670 -0.1575
42770SOL    HW233249   4.141   4.328  11.622  0.4848  0.2184 -0.5878
42771SOL     OW33250   2.504  11.644   4.680 -0.3311  0.1010  0.0353
42771SOL    HW133251   2.588  11.683   4.655 -0.1808 -0.2318  0.0098
42771SOL    HW233252   2.456  11.715   4.723  0.0202  0.2548  0.1778
42772SOL     OW33253   8.937   8.478   1.587  0.4255  0.4645  0.0145
42772SOL    HW133254   8.850   8.443   1.567  0.5367  0.6459 -0.8231
42772SOL    HW233255   8.929   8.572   1.574  0.4033  0.6503  1.2466
42773SOL     OW33256  10.145   6.437   7.684  0.1779 -0.5654  0.2426
42773SOL    HW133257  10.224   6.405   7.729  0.7559  0.9811  0.3721
42773SOL    HW233258  10.072   6.402   7.736  0.7095 -2.5613 -0.2341
42774SOL     OW33259   4.523   5.675   6.528  0.7851 -0.3462  0.6754
42774SOL    HW133260   4.467   5.619   6.475 -0.6677  0.9490  0.7843
42774SOL    HW233261   4.522   5.635   6.615 -0.4085 -0.0653  0.8053
42775SOL     OW33262   5.451   3.515   0.705  0.1551  0.2380 -0.3718
42775SOL    HW133263   5.510   3.576   0.751 -2.2866  1.0986  1.8990
42775SOL    HW233264   5.377   3.505   0.765 -1.9828 -0.8448 -3.0205
42776SOL     OW33265   4.870   2.608   4.029  0.2700  0.1355  0.1754
42776SOL    HW133266   4.848   2.576   4.117 -0.3107  0.6864  0.2387
42776SOL    HW233267   4.897   2.530   3.981 -2.7584 -0.8169 -0.1887
42777SOL     OW33268   6.853   6.380   6.891 -0.1472 -0.1105  0.0129
42777SOL    HW133269   6.891   6.295   6.911  0.6148  0.1097 -0.4810
42777SOL    HW233270   6.773   6.383   6.944 -0.7036 -1.5171 -0.6898
42778SOL     OW33271  10.442  10.909   7.360 -0.2481  0.0527  0.2625
42778SOL    HW133272  10.508  10.970   7.394  0.5989 -0.4666 -0.3943
42778SOL    HW233273  10.417  10.945   7.276  1.0915 -1.0495 -0.6548
42779SOL     OW33274   4.871   2.668  10.647 -0.0579 -0.1399  0.0237
42779SOL    HW133275   4.901   2.657  10.737 -2.0818 -1.0177  0.6697
42779SOL    HW233276   4.913   2.748  10.617 -0.7916  1.2476  2.4359
42780SOL     OW33277   9.051   5.787   0.432 -0.5957  0.0893  0.3183
42780SOL    HW133278   9.087   5.852   0.492 -0.3341  1.1330 -0.9164
42780SOL    HW233279   8.993   5.734   0.486  0.8414 -0.0468  1.8357
42781SOL     OW33280   9.470   4.629   2.968 -0.3110 -0.2171 -0.0151
42781SOL    HW133281   9.386   4.673   2.977 -1.0432 -1.4610 -0.5026
42781SOL    HW233282   9.469   4.595   2.878  0.8243 -0.0277 -0.1120
42782SOL     OW33283   4.419   1.921   8.369  0.1498 -1.2325 -0.3415
42782SOL    HW133284   4.480   1.916   8.443 -0.0178  0.3735 -0.0717
42782SOL    HW233285   4.470   1.961   8.299  0.0849 -2.0578 -0.8666
42783SOL     OW33286   4.396  10.744   6.716 -0.0944 -0.4413 -0.0456
42783SOL    HW133287   4.344  10.664   6.726  1.3343 -1.5361 -1.0105
42783SOL    HW233288   4.477  10.726   6.765  0.3100  0.3443 -0.4127
42784SOL     OW33289   8.095   8.223   7.797  0.3507 -0.1857 -0.7549
42784SOL    HW133290   8.014   8.199   7.841  0.4605  0.0340 -0.4322
42784SOL    HW233291   8.072   8.294   7.739  0.6127  0.9874  0.5145
42785SOL     OW33292   9.846   6.039   9.635  0.2827  0.0468 -0.3831
42785SOL    HW133293   9.776   6.034   9.699 -1.5856  0.0198 -2.3241
42785SOL    HW233294   9.859   6.133   9.620  1.5792  0.0928  0.8853
42786SOL     OW33295   7.292   7.532   5.307  0.0338  0.3482  0.1372
42786SOL    HW133296   7.363   7.555   5.246 -0.8600 -1.8494 -1.8821
42786SOL    HW233297   7.220   7.589   5.283  0.1241  0.4436  0.0904
42787SOL     OW33298   5.987   6.381  10.582  0.3167  0.0298 -0.3290
42787SOL    HW133299   6.056   6.446  10.566  1.2549 -0.8600 -0.0113
42787SOL    HW233300   6.012   6.305  10.530  1.9289 -1.8921  2.9013
42788SOL     OW33301   6.822   6.908   8.807 -0.3873  0.0085  0.0529
42788SOL    HW133302   6.828   6.853   8.729 -0.5189 -1.4024  1.0010
42788SOL    HW233303   6.903   6.889   8.855 -1.3093 -0.8869  1.3298
42789SOL     OW33304   0.955   5.700  10.181  0.3939 -0.0377 -0.5227
42789SOL    HW133305   0.963   5.740  10.094 -0.1366  0.6942 -0.2420
42789SOL    HW233306   0.898   5.624  10.167 -1.5057  1.3002 -0.4590
42790SOL     OW33307   4.890  10.446   4.734 -0.0398 -0.2609  0.3065
42790SOL    HW133308   4.906  10.399   4.816 -0.7793  1.5784  1.5843
42790SOL    HW233309   4.930  10.392   4.667  2.1093 -0.9985  2.0705
42791SOL     OW33310  11.209   7.642  11.294 -0.0615  0.3341  0.0331
42791SOL    HW133311  11.167   7.660  11.210  0.7862  0.5571 -0.3541
42791SOL    HW233312  11.256   7.723  11.315 -0.9978  0.6090  1.1802
42792SOL     OW33313   0.742   7.642   5.977  0.2184  0.4938  0.1765
42792SOL    HW133314   0.804   7.597   5.919 -0.0640  0.1370  0.1438
42792SOL    HW233315   0.658   7.601   5.957  0.0133  0.8137  0.3866
42793SOL     OW33316   4.931   4.518   7.323 -0.0749  0.1952  0.0583
42793SOL    HW133317   4.965   4.543   7.237  0.7556 -0.7480  0.0895
42793SOL    HW233318   4.942   4.423   7.326 -1.6683  0.0049  0.5508
42794SOL     OW33319   7.744   3.268   3.837 -0.4171  0.3784 -0.0979
42794SOL    HW133320   7.745   3.223   3.753  0.4650 -0.9694  0.5901
42794SOL    HW233321   7.793   3.349   3.822 -0.2829  0.1604 -0.8767
42795SOL     OW33322   1.506   6.818   9.724  0.4656 -0.2231 -0.4211
42795SOL    HW133323   1.493   6.895   9.780 -0.7132 -1.0732  0.5512
42795SOL    HW233324   1.434   6.821   9.661 -0.6155 -1.3567  0.6780
42796SOL     OW33325   2.982   5.963   7.377  0.1975 -0.2793 -0.4064
42796SOL    HW133326   3.014   5.931   7.461 -1.6030 -0.3833  0.2663
42796SOL    HW233327   2.943   6.048   7.396 -0.2251 -0.2974 -1.1315
42797SOL     OW33328  10.831   6.115   0.815  0.3515 -0.1180 -0.4417
42797SOL    HW133329  10.878   6.160   0.745  0.3388 -2.1853 -1.8743
42797SOL    HW233330  10.765   6.062   0.770  0.2381 -1.4169  1.1338
42798SOL     OW33331   1.067   2.945   3.364 -0.6876  0.1893  0.0217
42798SOL    HW133332   1.098   2.949   3.455 -2.4354  0.4447  0.6460
42798SOL    HW233333   1.108   2.866   3.328  0.7392  0.5792  0.7414
42799SOL     OW33334   1.340   4.014   1.088 -0.0884  0.0837 -0.3143
42799SOL    HW133335   1.317   3.925   1.061 -0.7748 -0.5063  1.9940
42799SOL    HW233336   1.418   4.004   1.142  0.2141  0.9746 -0.5615
42800SOL     OW33337   3.122   1.363   2.376 -0.4807  0.3874  0.1027
42800SOL    HW133338   3.109   1.456   2.397 -1.2688  0.0122  1.3500
42800SOL    HW233339   3.081   1.352   2.290 -1.6096  0.9042  0.5619
42801SOL     OW33340   3.356   4.836   0.421 -0.0711 -0.4663 -0.1733
42801SOL    HW133341   3.441   4.880   0.424 -0.2296 -0.2074  1.4667
42801SOL    HW233342   3.298   4.899   0.379  0.2324 -0.0469  0.0265
42802SOL     OW33343   6.677   0.001   2.407 -0.3299  0.0073 -0.0401
42802SOL    HW133344   6.644  -0.065   2.346  0.5822  0.1135 -0.6770
42802SOL    HW233345   6.704   0.073   2.351 -2.0021  1.2621  0.6982
42803SOL     OW33346   6.025   3.903   9.798 -0.2768  0.4672 -0.0221
42803SOL    HW133347   6.008   3.839   9.728  1.2309  0.0083 -0.0065
42803SOL    HW233348   5.940   3.942   9.816 -0.5772  1.2923 -2.7974
42804SOL     OW33349   6.949   0.660   6.141 -0.1051 -0.0920 -0.3499
42804SOL    HW133350   7.017   0.703   6.090 -0.8567  1.7143  0.0951
42804SOL    HW233351   6.917   0.728   6.201 -1.2045 -1.3423  0.5497
42805SOL     OW33352   5.692   6.740   6.667 -0.6095 -0.4698  0.2962
42805SOL    HW133353   5.649   6.779   6.591 -2.4994 -1.0280  1.0175
42805SOL    HW233354   5.765   6.800   6.686 -1.6355  1.0929 -0.4139
42806SOL     OW33355   7.596  10.064   5.933 -0.4352  0.3558  0.2888
42806SOL    HW133356   7.687  10.080   5.910 -0.7023  0.3375 -0.8559
42806SOL    HW233357   7.597  10.045   6.027  0.6968  0.6132  0.3338
42807SOL     OW33358   5.284   6.754   3.603 -0.2157  0.2598  0.4878
42807SOL    HW133359   5.195   6.740   3.568  0.5727 -0.1654 -1.5218
42807SOL    HW233360   5.313   6.835   3.560  0.0796  0.8573  1.7894
42808SOL     OW33361   4.811   2.067   7.001 -0.4481  0.3235  0.2143
42808SOL    HW133362   4.730   2.018   7.010 -0.5238  0.5632  0.8442
42808SOL    HW233363   4.795   2.149   7.048 -0.3121  0.9412 -0.7837
42809SOL     OW33364   2.013   9.822  10.114  0.1106 -0.3988  0.3551
42809SOL    HW133365   1.931   9.809  10.162  1.0055 -0.6388  1.9087
42809SOL    HW233366   2.081   9.803  10.179  1.4234 -2.5356 -1.5017
42810SOL     OW33367   0.265   6.768   0.082 -0.5582  0.0337 -0.1843
42810SOL    HW133368   0.360   6.766   0.084 -0.5769 -0.0537  1.0204
42810SOL    HW233369   0.244   6.848   0.035  0.0991 -0.4197 -1.2896
42811SOL     OW33370   7.224   5.199  10.508  0.2266 -0.1556 -0.4235
42811SOL    HW133371   7.219   5.170  10.599 -1.3781 -1.5483 -0.9006
42811SOL    HW233372   7.294   5.147  10.470  0.7061  0.2216 -0.0625
42812SOL     OW33373  11.600   3.426   7.327  0.6539  0.3577  0.3252
42812SOL    HW133374  11.572   3.346   7.283  0.1557 -0.3291  1.8067
42812SOL    HW233375  11.607   3.491   7.257  0.0275 -0.7069 -0.7651
42813SOL     OW33376   1.260   4.652   0.903  0.3370 -0.3667 -0.0762
42813SOL    HW133377   1.308   4.663   0.985 -1.4423 -2.8313  1.4120
42813SOL    HW233378   1.317   4.598   0.849 -0.4080 -2.8099  1.4604
42814SOL     OW33379   7.358   3.849   7.418 -0.3196 -0.4416 -0.6162
42814SOL    HW133380   7.290   3.848   7.486  2.5551 -0.5208  2.4720
42814SOL    HW233381   7.329   3.783   7.354 -3.5290  0.1729  0.0050
42815SOL     OW33382  11.113   7.107   8.232 -0.1991 -0.2165 -0.1410
42815SOL    HW133383  11.104   7.179   8.170  0.0384 -0.0656  0.0001
42815SOL    HW233384  11.203   7.078   8.223 -0.3428 -0.6208 -0.3288
42816SOL     OW33385   2.312   0.287   5.097  0.9448  0.1175 -0.0481
42816SOL    HW133386   2.282   0.300   5.007 -0.6010 -0.2621  0.3926
42816SOL    HW233387   2.406   0.307   5.094  0.4608  2.6405 -1.2135
42817SOL     OW33388   3.041   4.983   5.799  0.3134  0.2305 -0.1529
42817SOL    HW133389   3.130   5.009   5.821  0.3905  0.4287 -0.6827
42817SOL    HW233390   3.044   4.888   5.791  0.9090  0.3740 -2.0101
42818SOL     OW33391   9.827   2.897   8.199 -0.1993  0.1187 -0.2997
42818SOL    HW133392   9.886   2.850   8.140  0.3921  0.1809  0.2322
42818SOL    HW233393   9.791   2.968   8.146  0.0455 -0.0460 -0.6854
42819SOL     OW33394   7.226   0.668  10.599  0.1824  0.4335 -0.2861
42819SOL    HW133395   7.231   0.585  10.550  0.0744  1.2996 -1.8226
42819SOL    HW233396   7.185   0.644  10.682 -0.9352 -0.8588 -1.1660
42820SOL     OW33397   1.237   0.734   3.585 -0.4404  0.2720  0.2586
42820SOL    HW133398   1.249   0.828   3.579 -1.4364  0.3238 -1.5583
42820SOL    HW233399   1.238   0.703   3.495 -1.8855 -1.2124  0.6940
42821SOL     OW33400   9.851  11.569   0.712 -0.2388 -0.5338  0.3877
42821SOL    HW133401   9.876  11.659   0.690 -1.2432 -0.5417 -0.9575
42821SOL    HW233402   9.932  11.529   0.744  0.3038  0.7482  0.6794
42822SOL     OW33403  11.141   8.310   3.622  0.3096 -0.2114  0.1625
42822SOL    HW133404  11.052   8.286   3.597 -0.2636  1.1071  0.9064
42822SOL    HW233405  11.189   8.227   3.619 -1.0993 -1.0727  0.4923
42823SOL     OW33406   8.451   1.618   4.963 -0.1481 -0.2903  0.0952
42823SOL    HW133407   8.408   1.660   5.038  0.7202 -1.2832  1.1760
42823SOL    HW233408   8.423   1.527   4.966  0.4093 -0.4858 -0.4058
42824SOL     OW33409   0.877  10.745  10.015  0.3422 -0.3057 -0.0746
42824SOL    HW133410   0.815  10.736   9.943 -0.4480  3.8662 -0.1465
42824SOL    HW233411   0.963  10.734   9.974 -0.1173  1.6209 -1.6826
42825SOL     OW33412   9.171   8.997   4.138  0.5034 -0.3063 -0.3909
42825SOL    HW133413   9.201   9.065   4.078  2.0358 -0.9270 -0.3884
42825SOL    HW233414   9.158   9.042   4.221 -1.2535  0.4841 -1.0528
42826SOL     OW33415   4.196   3.478   5.791  0.0855  0.7184 -0.3616
42826SOL    HW133416   4.254   3.496   5.717 -0.6576  0.6440 -0.9679
42826SOL    HW233417   4.234   3.401   5.833 -0.1604  0.0155 -1.3890
42827SOL     OW33418   4.781   0.184   4.298  0.1203  0.2479  0.8564
42827SOL    HW133419   4.823   0.238   4.365 -0.0312  0.0283  1.1351
42827SOL    HW233420   4.811   0.220   4.215  2.3589 -1.0454  1.0337
42828SOL     OW33421   8.967   4.289   0.274  0.1167 -0.5392 -0.4262
42828SOL    HW133422   8.966   4.297   0.179  0.8168 -2.2895 -0.6283
42828SOL    HW233423   8.881   4.254   0.296  0.1287 -0.6021 -0.4785
42829SOL     OW33424   1.873   5.398   2.575 -0.4140  0.1615  0.1361
42829SOL    HW133425   1.799   5.432   2.525 -0.0432 -2.0586 -2.1726
42829SOL    HW233426   1.862   5.303   2.573  1.2836 -0.1358  1.7361
42830SOL     OW33427   1.306   4.433  10.274  0.3613 -0.0284 -0.1513
42830SOL    HW133428   1.276   4.465  10.359  0.7500  1.5647 -0.5832
42830SOL    HW233429   1.329   4.341  10.289 -1.1665 -0.2384  1.0508
42831SOL     OW33430  10.491   9.978   7.710  0.4996  0.2175 -0.3330
42831SOL    HW133431  10.527   9.894   7.680  1.5637  0.5711 -0.0827
42831SOL    HW233432  10.540  10.044   7.660  1.9332  0.8117  1.7217
42832SOL     OW33433   6.720   1.781   8.706 -0.1694 -0.0013 -0.2546
42832SOL    HW133434   6.727   1.864   8.658 -1.1123  0.3326  0.1659
42832SOL    HW233435   6.670   1.724   8.648  1.8249 -0.8424 -1.2426
42833SOL     OW33436   0.713   9.156   3.582 -0.4662  0.7704  0.3752
42833SOL    HW133437   0.789   9.098   3.574 -0.9194 -0.0497  1.6783
42833SOL    HW233438   0.685   9.171   3.492  0.5935  0.2169 -0.0687
42834SOL     OW33439   9.882   7.092   6.850 -0.4135  0.0364 -0.1208
42834SOL    HW133440   9.866   7.014   6.797  0.1342 -0.2185  0.0894
42834SOL    HW233441   9.941   7.146   6.796  0.2946 -0.3073  0.2988
42835SOL     OW33442   7.418   0.835   6.354 -0.5775 -0.0584 -0.3087
42835SOL    HW133443   7.396   0.836   6.261  0.3039 -1.1946 -0.5450
42835SOL    HW233444   7.342   0.795   6.396  0.3507 -2.6398 -0.9563
42836SOL     OW33445   7.919   4.575  10.460  0.6992 -0.4812 -0.2142
42836SOL    HW133446   7.899   4.512  10.529 -0.6750 -0.1565 -0.2926
42836SOL    HW233447   7.931   4.658  10.505  0.1003 -0.3304 -0.3138
42837SOL     OW33448   5.736   6.386   1.129  0.3350 -0.2580  0.7541
42837SOL    HW133449   5.755   6.301   1.170  0.3382 -0.2657  0.7366
42837SOL    HW233450   5.662   6.369   1.071  1.0025 -0.4878 -0.0466
42838SOL     OW33451   8.707  11.515   2.113  0.0929  0.0742 -0.1679
42838SOL    HW133452   8.710  11.598   2.161 -0.9964  0.0433 -0.0284
42838SOL    HW233453   8.793  11.509   2.070  0.0296  1.4810 -0.5297
42839SOL     OW33454   3.958   7.896   1.460 -0.2407  0.8036 -0.2060
42839SOL    HW133455   3.933   7.900   1.552  0.3271  2.7173 -0.0881
42839SOL    HW233456   3.874   7.894   1.413 -0.5321  0.0321  0.3257
42840SOL     OW33457   1.489   4.465   2.502 -0.4287  0.4162 -0.3561
42840SOL    HW133458   1.464   4.526   2.571  1.9182 -1.1724  2.1165
42840SOL    HW233459   1.439   4.386   2.521  0.9705 -0.3698  0.2380
42841SOL     OW33460   5.983   2.647   0.559 -0.1813  0.4188  0.1147
42841SOL    HW133461   6.038   2.580   0.600 -0.8565  0.4895  1.1805
42841SOL    HW233462   5.957   2.704   0.631 -0.2983  1.3489 -0.6484
42842SOL     OW33463   4.064   7.368   6.922 -0.1197 -0.7364  0.4228
42842SOL    HW133464   4.029   7.411   7.001  1.0887  1.9755 -0.3971
42842SOL    HW233465   4.156   7.353   6.943  0.5417  1.2048 -0.8460
42843SOL     OW33466   1.183   6.631  10.021 -0.1599  0.0926 -0.1394
42843SOL    HW133467   1.263   6.607  10.066  0.6621  0.9902 -1.0772
42843SOL    HW233468   1.193   6.595   9.933 -1.7974 -1.7545  0.3366
42844SOL     OW33469   9.482   6.075   8.801 -0.3232 -0.3061  0.6836
42844SOL    HW133470   9.423   6.117   8.863 -0.8997 -2.7158  1.9192
42844SOL    HW233471   9.425   6.044   8.731 -0.2207 -0.6726  0.7563
42845SOL     OW33472   4.802   5.684   9.614  0.4275 -0.0478 -0.2636
42845SOL    HW133473   4.891   5.666   9.644  0.2819 -0.6065 -0.1398
42845SOL    HW233474   4.754   5.603   9.633  0.0081  0.0772 -0.7607
42846SOL     OW33475   1.716   9.325   4.293  0.4271 -0.3142 -0.1254
42846SOL    HW133476   1.735   9.396   4.355  1.1834  0.8724 -1.6272
42846SOL    HW233477   1.629   9.294   4.318 -0.0801  1.3869  0.3938
42847SOL     OW33478   2.601   5.845   4.171 -0.0090  0.4611 -0.5828
42847SOL    HW133479   2.562   5.932   4.166 -0.8864  0.0138 -2.1939
42847SOL    HW233480   2.535   5.791   4.213  0.5538  0.5659  0.4609
42848SOL     OW33481   2.441   9.051   3.930 -0.1429 -0.4175  0.4230
42848SOL    HW133482   2.475   9.054   3.841  0.4298  3.2508  0.6028
42848SOL    HW233483   2.354   9.012   3.921 -0.5500  0.8654 -1.9428
42849SOL     OW33484   6.711   3.708   5.049 -0.3743  0.4073 -0.5581
42849SOL    HW133485   6.779   3.646   5.076  1.0072  2.6393  1.6370
42849SOL    HW233486   6.673   3.670   4.970  1.7078 -2.1887 -0.4589
42850SOL     OW33487   2.205   5.671   9.247 -0.0791 -0.7078 -0.1180
42850SOL    HW133488   2.253   5.617   9.309  1.2412  0.8265  0.2675
42850SOL    HW233489   2.218   5.627   9.162 -0.6922 -2.0220  0.4354
42851SOL     OW33490   1.010   4.932   1.256 -0.6539  0.6382 -0.8343
42851SOL    HW133491   1.077   4.996   1.232  1.0556 -0.8678 -0.3257
42851SOL    HW233492   1.056   4.848   1.252 -1.8227 -0.2299  2.0702
42852SOL     OW33493   7.855  10.065   1.270 -0.9485 -0.3317  0.4494
42852SOL    HW133494   7.879   9.979   1.306 -0.0583 -0.8518 -1.2669
42852SOL    HW233495   7.905  10.071   1.188 -2.6900  0.8771 -0.5779
42853SOL     OW33496   1.444   3.223   5.151 -0.2991  0.2920 -0.2846
42853SOL    HW133497   1.413   3.302   5.107  1.7131  0.7920 -0.9074
42853SOL    HW233498   1.406   3.151   5.101 -1.2830  0.8543 -0.3634
42854SOL     OW33499   9.684   4.613   1.743  0.1307  0.8771  0.5652
42854SOL    HW133500   9.756   4.590   1.684 -0.4642 -0.1186  0.2043
42854SOL    HW233501   9.721   4.603   1.831  0.1314 -0.7620  0.4062
42855SOL     OW33502   5.030   0.949  11.640 -0.1445 -0.1129 -0.6036
42855SOL    HW133503   4.990   0.904  11.714 -0.4072  0.4022 -0.4323
42855SOL    HW233504   5.094   0.886  11.606  2.7097  0.9389  2.3483
42856SOL     OW33505   4.929   5.463   5.669 -0.4409  0.1172 -0.9349
42856SOL    HW133506   4.854   5.500   5.622 -0.9748  1.0560  0.5612
42856SOL    HW233507   4.909   5.370   5.679 -1.8677  0.5104  0.2004
42857SOL     OW33508   9.844   3.759   6.498  0.0099  0.3144  0.2517
42857SOL    HW133509   9.931   3.730   6.469  0.0252  0.5267  0.0832
42857SOL    HW233510   9.853   3.771   6.592 -0.1088 -0.6363  0.3917
42858SOL     OW33511   1.077   6.640   5.951 -0.1662 -0.1740  0.0334
42858SOL    HW133512   1.153   6.622   6.007  1.2182  1.2839 -1.2432
42858SOL    HW233513   1.019   6.692   6.006  0.8706  0.6909  0.3537
42859SOL     OW33514   0.191   8.824   2.861  0.4081 -0.1673  0.3517
42859SOL    HW133515   0.187   8.807   2.955 -0.1950 -2.8552 -0.0707
42859SOL    HW233516   0.113   8.875   2.842  1.3969  1.8968  1.5059
42860SOL     OW33517   4.343   9.913   9.189  0.0397  0.2217 -0.2141
42860SOL    HW133518   4.291   9.839   9.157  1.6930 -1.1290  0.0671
42860SOL    HW233519   4.305   9.934   9.275 -1.1660  0.4790 -0.7909
42861SOL     OW33520   7.963   2.360   9.535 -0.3313 -0.4802 -0.8399
42861SOL    HW133521   7.966   2.337   9.628  0.0869  1.9353 -0.1984
42861SOL    HW233522   7.872   2.385   9.519 -0.2769 -0.3452 -0.9418
42862SOL     OW33523   5.952  10.845   4.000 -0.5118 -0.1678  0.0694
42862SOL    HW133524   5.996  10.930   3.995 -0.9018 -0.0178 -0.8734
42862SOL    HW233525   5.886  10.856   4.068 -0.9269  0.4512 -0.4353
42863SOL     OW33526   4.548   2.469   4.249  0.4367  0.1242  0.0058
42863SOL    HW133527   4.643   2.457   4.242  0.9819  2.2955  2.1998
42863SOL    HW233528   4.532   2.478   4.343 -1.6951  1.3972 -0.4229
42864SOL     OW33529   1.789  10.684   3.656 -0.5201 -0.5246  0.3204
42864SOL    HW133530   1.871  10.713   3.617 -0.8468 -2.3298 -1.9244
42864SOL    HW233531   1.753  10.762   3.698  0.8631  1.0839 -1.3301
42865SOL     OW33532   1.351   1.079   0.862  0.0251 -0.0842  0.4174
42865SOL    HW133533   1.312   1.153   0.816  2.3232  0.2574 -1.1602
42865SOL    HW233534   1.312   1.002   0.820  2.2834  0.2029 -2.6006
42866SOL     OW33535   6.532  10.435   2.258  0.4911 -0.4011  0.1028
42866SOL    HW133536   6.457  10.380   2.282 -1.1401  0.8550 -1.8564
42866SOL    HW233537   6.499  10.524   2.262  1.5961  0.1327 -1.6682
42867SOL     OW33538   7.267   8.915   9.543  0.1963  0.0005 -0.4860
42867SOL    HW133539   7.305   8.933   9.457 -0.2064  1.4560 -0.3844
42867SOL    HW233540   7.222   8.996   9.567  0.0271 -0.4916  0.9586
42868SOL     OW33541   7.160   4.987   9.251 -0.1682 -0.2058  0.1247
42868SOL    HW133542   7.109   4.955   9.325 -1.4054  1.1014 -0.1240
42868SOL    HW233543   7.189   5.074   9.277 -1.2388  0.5783 -1.1680
42869SOL     OW33544  11.263   4.107   7.307  0.0157 -0.4004 -0.0619
42869SOL    HW133545  11.326   4.133   7.374 -0.3830  1.3971 -0.3531
42869SOL    HW233546  11.193   4.064   7.357  0.3186 -0.2105  0.5389
42870SOL     OW33547   0.432   3.134   5.981 -0.7928  0.4747 -0.3112
42870SOL    HW133548   0.426   3.226   5.955  1.6095  1.0460  0.8799
42870SOL    HW233549   0.342   3.111   6.006 -1.5343  2.3548 -1.0264
42871SOL     OW33550   7.343   1.737  11.097  0.1372  0.2973 -0.4523
42871SOL    HW133551   7.350   1.692  11.181  1.7284  0.3180 -0.5372
42871SOL    HW233552   7.326   1.829  11.120  2.0032  0.5865 -0.0484
42872SOL     OW33553   1.436   6.174   2.348  0.6776 -0.0007 -0.0812
42872SOL    HW133554   1.340   6.171   2.348  0.6924 -0.8759  0.0772
42872SOL    HW233555   1.457   6.264   2.327 -0.1785  0.0187 -0.9258
42873SOL     OW33556   2.702   8.959   7.130  0.7904  0.3703 -0.1265
42873SOL    HW133557   2.755   8.923   7.201  1.6193  1.0206 -0.4089
42873SOL    HW233558   2.761   8.965   7.055  0.0956  0.2977 -0.6996
42874SOL     OW33559   2.898   3.445   4.865  0.6094 -0.0540  0.2072
42874SOL    HW133560   2.877   3.363   4.820 -0.7693 -0.3464  1.3194
42874SOL    HW233561   2.908   3.508   4.795 -0.4842 -0.7188 -0.5850
42875SOL     OW33562   9.260   7.484  11.630  0.2538 -0.1598  0.4579
42875SOL    HW133563   9.353   7.495  11.607  0.5978 -1.2435  1.2357
42875SOL    HW233564   9.237   7.566  11.675  1.0375 -0.1462  0.8652
42876SOL     OW33565   5.500  11.367   1.023 -0.8516 -0.3461  0.0851
42876SOL    HW133566   5.411  11.399   1.035 -0.9740 -0.3785 -0.6877
42876SOL    HW233567   5.492  11.297   0.958 -0.3834 -0.9622  0.6866
42877SOL     OW33568   8.109   4.825   7.994  0.2264  0.1099  0.6064
42877SOL    HW133569   8.018   4.851   7.981  0.5447  0.6317 -0.8403
42877SOL    HW233570   8.107   4.729   7.992 -0.2038  0.1208 -0.3396
42878SOL     OW33571   3.271   4.569   5.131 -0.7341  0.1748  0.4547
42878SOL    HW133572   3.310   4.551   5.046  0.4212  0.2598  0.9555
42878SOL    HW233573   3.263   4.484   5.174 -1.6445  0.0868  0.1445
42879SOL     OW33574   3.855   9.920   9.441  0.4557  0.8991 -0.7502
42879SOL    HW133575   3.765   9.928   9.474  0.8453 -0.3972  0.7542
42879SOL    HW233576   3.908   9.968   9.505  1.1093 -0.6809 -0.0587
42880SOL     OW33577   2.921   5.989   3.800 -0.7147  0.1038  0.0720
42880SOL    HW133578   2.924   5.962   3.891 -1.8991  0.3081  0.1911
42880SOL    HW233579   2.884   6.078   3.802 -1.1685 -0.0555 -0.6280
42881SOL     OW33580  11.126   5.235   9.760  0.1915 -0.4179  0.3116
42881SOL    HW133581  11.070   5.180   9.816  0.0067 -0.2626  0.2811
42881SOL    HW233582  11.202   5.254   9.815  0.5748 -1.2541  0.0862
42882SOL     OW33583   2.302   6.031  10.666 -0.0430 -0.1698 -0.4628
42882SOL    HW133584   2.359   6.067  10.734  1.3681  0.2605 -1.8171
42882SOL    HW233585   2.214   6.032  10.705  0.7909 -0.5331  1.5637
42883SOL     OW33586   9.856  10.472  10.693  0.3114 -0.4528 -0.0826
42883SOL    HW133587   9.827  10.453  10.604  1.1801  1.0727 -0.7393
42883SOL    HW233588   9.901  10.393  10.722  0.1704 -0.8992 -1.0566
42884SOL     OW33589   6.904   1.413   8.603 -0.2843  0.4658  0.5500
42884SOL    HW133590   6.855   1.361   8.667  0.4455  0.3706  1.0491
42884SOL    HW233591   6.837   1.454   8.548 -0.8983 -0.1912  0.7920
42885SOL     OW33592   3.727   5.860   0.969 -0.1236  0.2470  0.2713
42885SOL    HW133593   3.801   5.799   0.970 -0.2292  0.1184  0.3897
42885SOL    HW233594   3.693   5.856   0.880  0.3515  0.7217  0.0619
42886SOL     OW33595   7.735   1.883   5.200 -0.2718 -0.3735  0.2951
42886SOL    HW133596   7.742   1.867   5.294 -0.2268 -1.0574  0.1795
42886SOL    HW233597   7.675   1.958   5.193 -0.2212 -0.2742  0.8682
42887SOL     OW33598   2.690   4.503   8.372  0.8405 -0.4771 -0.1055
42887SOL    HW133599   2.650   4.483   8.287  1.5461 -1.5351 -0.2126
42887SOL    HW233600   2.668   4.428   8.427  1.3805 -0.3511  0.2929
42888SOL     OW33601   1.279   6.766   3.146  0.0300  0.5497  0.3294
42888SOL    HW133602   1.349   6.711   3.181  1.7760  1.9296 -0.8044
42888SOL    HW233603   1.308   6.789   3.058 -1.7135  1.4297 -0.0667
42889SOL     OW33604  11.443   5.766   7.917  0.0302 -0.4312  0.0416
42889SOL    HW133605  11.423   5.681   7.957 -0.0586 -1.4694 -2.0587
42889SOL    HW233606  11.521   5.750   7.863 -0.5246  0.5502 -1.1139
42890SOL     OW33607   1.448   2.333   9.818 -0.0143 -0.3728  0.5591
42890SOL    HW133608   1.440   2.398   9.888  0.8263 -1.4583  1.6891
42890SOL    HW233609   1.463   2.385   9.739  2.7209  0.7862  1.7228
42891SOL     OW33610   6.962   9.479   4.502 -0.0106  0.1734  0.3449
42891SOL    HW133611   6.997   9.566   4.521 -1.0118  0.4086  1.2760
42891SOL    HW233612   6.919   9.488   4.417 -0.0321  0.5651  0.3971
42892SOL     OW33613   0.280   0.563  10.912 -0.0191 -0.1375 -0.0635
42892SOL    HW133614   0.202   0.592  10.959 -1.2731 -1.5602 -1.1843
42892SOL    HW233615   0.275   0.467  10.914  2.4858 -0.3471  1.0785
42893SOL     OW33616   8.124   9.530   4.053 -0.2313 -0.9255  0.1602
42893SOL    HW133617   8.149   9.508   3.963 -2.6984 -1.0157 -0.5698
42893SOL    HW233618   8.055   9.467   4.075 -0.4178 -0.2219  1.7306
42894SOL     OW33619   6.719   8.645   9.394 -0.4954 -0.8249  0.0139
42894SOL    HW133620   6.812   8.667   9.398 -0.6950  0.1599 -0.5088
42894SOL    HW233621   6.699   8.609   9.481 -0.0346  0.6613  0.7665
42895SOL     OW33622   6.185   5.809   2.720 -0.2505  0.2205  0.1337
42895SOL    HW133623   6.098   5.842   2.742  0.5957  1.6680  1.4839
42895SOL    HW233624   6.205   5.744   2.788  0.8076  1.9037  1.4962
42896SOL     OW33625   3.046  10.631  10.760  0.4242 -1.0526  0.3676
42896SOL    HW133626   3.131  10.656  10.794  0.1920  0.0222  0.2036
42896SOL    HW233627   3.052  10.647  10.666 -0.3748  0.3760  0.5232
42897SOL     OW33628   5.679   6.165   2.181  0.2121 -0.0195  0.2456
42897SOL    HW133629   5.593   6.137   2.212 -0.1614  2.2251  1.5345
42897SOL    HW233630   5.676   6.154   2.086 -0.7870 -1.7004  0.4407
42898SOL     OW33631   4.682   1.021   0.605  0.3017 -0.2681 -0.2134
42898SOL    HW133632   4.636   1.073   0.539 -2.0583 -0.9819  0.7499
42898SOL    HW233633   4.630   0.941   0.612  0.4251 -0.2028  2.4844
42899SOL     OW33634   6.682  11.498  10.912 -0.6783  0.1856 -0.0211
42899SOL    HW133635   6.689  11.403  10.896  0.8422  0.2186  0.3075
42899SOL    HW233636   6.676  11.506  11.007 -0.8214  0.4263 -0.0488
42900SOL     OW33637  10.280   2.501   2.275 -0.1225 -0.3378  0.0227
42900SOL    HW133638  10.197   2.542   2.299 -0.4219 -0.9445  0.0516
42900SOL    HW233639  10.340   2.574   2.261 -0.3482  0.0810  1.1392
42901SOL     OW33640   4.534   6.934   6.799 -0.6362  0.3517 -0.6850
42901SOL    HW133641   4.568   6.942   6.710 -1.6656  1.2118 -1.0242
42901SOL    HW233642   4.524   6.840   6.814  0.6043  0.1422 -1.0444
42902SOL     OW33643   9.920  11.348  11.480  0.1946  0.0505 -0.4847
42902SOL    HW133644   9.918  11.397  11.398 -1.7369  0.5923 -0.1585
42902SOL    HW233645   9.864  11.272  11.464  1.6818 -1.1161 -0.3853
42903SOL     OW33646   1.033   9.612   3.126  0.6357 -0.2409 -0.1327
42903SOL    HW133647   1.050   9.677   3.194 -0.9171  0.5558 -0.4893
42903SOL    HW233648   0.979   9.657   3.061 -0.5657 -1.8889 -0.3445
42904SOL     OW33649   3.958   7.091   7.768 -0.1209 -0.1385 -0.2971
42904SOL    HW133650   3.940   7.066   7.858 -0.5574  0.5940 -0.1787
42904SOL    HW233651   4.050   7.066   7.754  0.1706  0.4180  0.5725
42905SOL     OW33652   8.450   6.497   3.413 -0.3389  0.4253  0.2259
42905SOL    HW133653   8.431   6.422   3.357 -0.4325 -0.3879  1.3081
42905SOL    HW233654   8.546   6.499   3.418 -0.3465 -0.7799  1.6462
42906SOL     OW33655   9.489  10.400   0.283  0.1733 -0.4410  0.2248
42906SOL    HW133656   9.503  10.408   0.377 -1.3017 -1.1329  0.5342
42906SOL    HW233657   9.415  10.459   0.265  0.8085  0.1165 -0.6000
42907SOL     OW33658  10.150   1.333   3.078 -0.0484  0.2953 -0.0118
42907SOL    HW133659  10.229   1.380   3.108  0.1153 -0.8577  1.4752
42907SOL    HW233660  10.077   1.384   3.114 -0.0686  1.8317 -2.0743
42908SOL     OW33661  10.638   0.873   2.686 -0.1122  0.3456  0.0731
42908SOL    HW133662  10.569   0.914   2.634  0.0503  1.5181  0.7489
42908SOL    HW233663  10.694   0.830   2.622 -1.6554 -0.9623 -0.4731
42909SOL     OW33664   0.164  10.398   6.882 -0.0158 -0.5649 -0.4148
42909SOL    HW133665   0.219  10.436   6.950  0.4968  0.9496 -1.6291
42909SOL    HW233666   0.086  10.368   6.929  0.5715 -0.0977  0.9193
42910SOL     OW33667   3.968   5.145   4.318 -0.1258  0.3349  0.2603
42910SOL    HW133668   3.931   5.186   4.396 -0.8919  0.8664 -0.3676
42910SOL    HW233669   3.899   5.152   4.252 -0.5746 -2.5992  0.3067
42911SOL     OW33670   2.149  10.514   8.825 -0.5487  0.4810  0.0237
42911SOL    HW133671   2.102  10.598   8.823  0.3330  1.0652  1.5507
42911SOL    HW233672   2.203  10.520   8.904 -1.4805 -2.0852  0.9493
42912SOL     OW33673   9.966   4.198   4.825 -0.0325  0.4723 -0.6407
42912SOL    HW133674  10.035   4.153   4.874  0.7016  0.9411 -1.2346
42912SOL    HW233675  10.005   4.218   4.740 -1.2577 -0.2540 -1.4104
42913SOL     OW33676   5.035   5.947  10.560  0.0450 -0.1497  0.4428
42913SOL    HW133677   5.062   5.905  10.478  1.1541  3.6411 -1.3759
42913SOL    HW233678   5.101   5.919  10.624  0.5158 -1.3712 -0.5242
42914SOL     OW33679   8.021   9.506   2.875 -0.0360 -0.3033  0.4587
42914SOL    HW133680   8.015   9.420   2.916 -0.3616  0.1090  1.3220
42914SOL    HW233681   7.959   9.560   2.925  0.9239  0.6832  0.6338
42915SOL     OW33682   2.411   2.801   6.627 -0.0573 -0.0093  0.1538
42915SOL    HW133683   2.396   2.730   6.564  0.7130 -1.2301  1.2821
42915SOL    HW233684   2.390   2.762   6.712 -1.7769  1.8271  0.6209
42916SOL     OW33685   2.535  11.458   1.716 -0.1613 -0.0458 -0.0243
42916SOL    HW133686   2.582  11.425   1.792  1.1334 -1.9179 -1.5395
42916SOL    HW233687   2.472  11.389   1.695 -0.8488  0.6672 -0.3768
42917SOL     OW33688   8.099   0.373   0.791 -0.4285 -0.4650 -0.2270
42917SOL    HW133689   8.043   0.450   0.777 -0.4664  0.0495  2.2130
42917SOL    HW233690   8.037   0.302   0.811 -0.3266 -0.7253 -0.8223
42918SOL     OW33691   5.110   3.827   8.163 -0.5453  0.3899  0.3751
42918SOL    HW133692   5.053   3.755   8.136  0.6369 -0.7501  0.8037
42918SOL    HW233693   5.123   3.879   8.084  0.9485 -1.5482 -0.7456
42919SOL     OW33694   7.597  11.490   8.559  0.4554  0.0868 -0.0781
42919SOL    HW133695   7.672  11.491   8.500 -1.1079 -1.7635 -2.3315
42919SOL    HW233696   7.629  11.527   8.641  2.5678  3.6984 -2.2990
42920SOL     OW33697   9.137  10.812   2.988 -0.2030  0.1112 -0.1294
42920SOL    HW133698   9.114  10.811   3.081 -1.4256  0.5684 -0.4006
42920SOL    HW233699   9.095  10.891   2.954 -0.6738 -0.6059 -1.2756
42921SOL     OW33700   3.518  11.557   4.675 -0.1874 -0.2383  0.5003
42921SOL    HW133701   3.574  11.626   4.711 -0.7016 -0.2597  1.3834
42921SOL    HW233702   3.473  11.598   4.601 -0.0472  0.1905  0.6498
42922SOL     OW33703   9.021   8.263   3.503  0.3569 -0.1570 -0.5720
42922SOL    HW133704   9.115   8.250   3.490  0.5304  1.3304 -1.0125
42922SOL    HW233705   9.013   8.356   3.526 -0.9263 -0.4706  0.3276
42923SOL     OW33706   5.247  10.339   5.932 -0.9177  0.2013 -0.2799
42923SOL    HW133707   5.251  10.300   5.845  1.9321  0.9060 -0.5541
42923SOL    HW233708   5.296  10.278   5.987 -0.4791  1.0443  0.2757
42924SOL     OW33709   2.524   7.889   0.825  0.2798  0.3410 -0.3873
42924SOL    HW133710   2.479   7.961   0.782 -0.6624 -0.0674 -0.1063
42924SOL    HW233711   2.483   7.882   0.911 -1.0065 -1.7647 -1.1048
42925SOL     OW33712  10.794   4.580   4.735  0.2064  0.1294 -0.3883
42925SOL    HW133713  10.773   4.597   4.643 -0.0047  0.8686 -0.2124
42925SOL    HW233714  10.720   4.616   4.784 -0.3990 -1.5863  0.0142
42926SOL     OW33715   7.049   0.063   4.765 -0.4808  0.3474 -0.0244
42926SOL    HW133716   7.065   0.154   4.739 -1.1192  0.1428 -1.2223
42926SOL    HW233717   7.077   0.011   4.689 -2.3126 -0.2929 -0.3047
42927SOL     OW33718   5.639   4.533   7.925 -0.2341  0.0902  0.6697
42927SOL    HW133719   5.648   4.600   7.992  0.0293 -1.3894  2.1579
42927SOL    HW233720   5.630   4.451   7.973 -4.9734 -0.6304 -0.9014
42928SOL     OW33721   3.068   0.223   8.956  0.3959  0.8188 -0.2799
42928SOL    HW133722   3.147   0.196   8.911 -0.2719  0.4248 -1.2452
42928SOL    HW233723   3.000   0.164   8.924 -0.4691  1.6867 -0.1075
42929SOL     OW33724   8.915   6.334  10.519 -0.0769  0.1517  0.1891
42929SOL    HW133725   8.948   6.383  10.595  2.0436 -0.4140 -0.2853
42929SOL    HW233726   8.837   6.289  10.552 -1.2495  2.6291  1.0252
42930SOL     OW33727   1.185   2.113  11.679  0.8068  0.2954  0.0948
42930SOL    HW133728   1.235   2.101  11.598  2.3096 -2.7537  1.2989
42930SOL    HW233729   1.239   2.171  11.732 -0.9348  3.6524 -1.5004
42931SOL     OW33730  10.206   9.830   1.230 -0.1806  0.5323  0.2454
42931SOL    HW133731  10.152   9.875   1.295 -0.7062  0.1253  0.1002
42931SOL    HW233732  10.278   9.891   1.212 -1.1384  1.5452 -0.3237
42932SOL     OW33733   8.817   6.514   8.658  0.1714 -0.4593 -0.5285
42932SOL    HW133734   8.780   6.426   8.662 -1.5207  0.2413  0.1310
42932SOL    HW233735   8.827   6.532   8.564 -0.3096 -1.0155 -0.6928
42933SOL     OW33736   1.024  11.450   9.666 -0.6264  0.0596  0.2446
42933SOL    HW133737   1.077  11.425   9.591 -1.2715 -1.0893  0.1405
42933SOL    HW233738   1.059  11.534   9.694  0.4280 -0.0915 -0.5756
42934SOL     OW33739   8.666   5.689  10.697 -0.1912  0.0846 -0.0176
42934SOL    HW133740   8.723   5.684  10.774  0.4249 -0.6886 -0.5067
42934SOL    HW233741   8.585   5.728  10.729 -0.5022 -1.5939  1.3687
42935SOL     OW33742   0.153   8.931   9.640  0.1746 -0.1184 -0.3288
42935SOL    HW133743   0.245   8.942   9.664  0.2852 -2.1323  0.4544
42935SOL    HW233744   0.128   8.848   9.682 -1.7110 -0.1237 -1.3565
42936SOL     OW33745   0.490   6.393   4.802 -0.6969 -0.1772 -0.3211
42936SOL    HW133746   0.429   6.335   4.848  0.9007 -1.2804  0.5161
42936SOL    HW233747   0.436   6.467   4.773 -1.8591  0.5160  3.1864
42937SOL     OW33748   6.654   0.749  11.032 -0.4710  0.5069 -0.0882
42937SOL    HW133749   6.698   0.834  11.028 -1.3869  0.9523 -1.6282
42937SOL    HW233750   6.724   0.685  11.022  0.2695  1.0401  1.3592
42938SOL     OW33751   2.094  10.153   7.983 -0.0120  0.3425 -0.0693
42938SOL    HW133752   2.037  10.138   8.058  0.2313  1.6886  0.4260
42938SOL    HW233753   2.062  10.235   7.945  0.0052 -0.2102 -1.3208
42939SOL     OW33754   2.669  10.199   4.050  0.3259  0.0304  0.7250
42939SOL    HW133755   2.719  10.247   3.984  1.1220 -4.7091 -2.5545
42939SOL    HW233756   2.734  10.172   4.115  0.1030  1.9298  1.8262
42940SOL     OW33757   3.053   6.563   5.808 -0.0280 -0.5439  0.1274
42940SOL    HW133758   3.111   6.611   5.750 -1.5347  0.0104 -0.9948
42940SOL    HW233759   2.986   6.627   5.833 -1.9523 -1.9270 -1.1973
42941SOL     OW33760   7.048   7.259   4.877 -0.4359  0.6299 -0.0684
42941SOL    HW133761   7.073   7.329   4.937 -2.8165  1.2824  0.2719
42941SOL    HW233762   6.995   7.200   4.930 -1.3248  0.4254 -1.1412
42942SOL     OW33763   0.731  11.355  10.894  0.7901  0.2114  0.6860
42942SOL    HW133764   0.721  11.448  10.917 -0.1991 -0.1114  1.6168
42942SOL    HW233765   0.702  11.350  10.803  0.6571  0.7843  0.6915
42943SOL     OW33766  11.356   5.491   6.136  0.2094 -0.3468  0.0470
42943SOL    HW133767  11.421   5.559   6.120 -1.1568  1.1466  0.5559
42943SOL    HW233768  11.308   5.521   6.214 -1.9450 -0.6877 -1.0768
42944SOL     OW33769   2.407  11.191   5.078 -0.3403 -0.1226 -0.5201
42944SOL    HW133770   2.358  11.136   5.018  1.3088 -0.1581 -1.9047
42944SOL    HW233771   2.495  11.154   5.079  0.8641  2.4944 -1.6004
42945SOL     OW33772  11.516   4.801   3.409 -0.1681 -0.1813  0.1715
42945SOL    HW133773  11.552   4.799   3.498  1.8177  0.7515 -0.5411
42945SOL    HW233774  11.587   4.766   3.354 -0.8113  0.5840 -1.2009
42946SOL     OW33775  10.404   4.410   1.107  0.4109  0.2731 -0.5123
42946SOL    HW133776  10.361   4.489   1.073 -0.4846 -0.0629 -0.1982
42946SOL    HW233777  10.461   4.441   1.176  0.3200  0.6881 -0.6226
42947SOL     OW33778  11.448  11.495   6.179 -0.6814  0.0826 -0.4876
42947SOL    HW133779  11.397  11.568   6.145  0.5592  1.6959  0.9284
42947SOL    HW233780  11.421  11.488   6.271  0.2511 -0.2922 -0.2281
42948SOL     OW33781   7.362   0.352   4.002 -0.8410  0.1038 -0.2828
42948SOL    HW133782   7.382   0.436   3.962 -0.0227  0.8706  1.5852
42948SOL    HW233783   7.275   0.364   4.041  0.2532  0.9760  2.0512
42949SOL     OW33784   5.191   0.595   6.553  0.2128  0.0549  0.2958
42949SOL    HW133785   5.134   0.656   6.506  0.3285 -1.2546 -1.6800
42949SOL    HW233786   5.136   0.517   6.566  1.1332 -0.7441 -0.4846
42950SOL     OW33787  10.295   0.042   1.294 -0.2859  0.1883 -0.2308
42950SOL    HW133788  10.373   0.090   1.324  0.0530  0.2390 -1.1716
42950SOL    HW233789  10.260   0.094   1.222  0.1435 -0.9903 -1.3401
42951SOL     OW33790   8.231   1.599   0.584  0.0134 -0.2886  0.0028
42951SOL    HW133791   8.193   1.660   0.521 -0.4610  0.5972  1.1192
42951SOL    HW233792   8.256   1.523   0.532 -0.8029  0.2271 -1.1751
42952SOL     OW33793   5.687   7.468   0.671  0.6206  0.1071  0.2238
42952SOL    HW133794   5.760   7.458   0.731  0.0204  0.9435  1.1256
42952SOL    HW233795   5.656   7.378   0.655 -0.2370 -0.0540  2.4931
42953SOL     OW33796  10.180   8.056   8.894 -0.9995 -0.1237 -0.5737
42953SOL    HW133797  10.228   8.013   8.823  0.8843  0.8346  0.0772
42953SOL    HW233798  10.097   8.008   8.899 -1.4321  0.0873 -3.7385
42954SOL     OW33799   6.821   5.385   1.095  0.5644 -0.2246  0.4294
42954SOL    HW133800   6.882   5.372   1.021 -1.9118 -1.8821 -1.4830
42954SOL    HW233801   6.833   5.308   1.150  0.0585 -0.6753 -0.0803
42955SOL     OW33802   6.884   7.161   2.523  0.6611 -0.5845  0.0825
42955SOL    HW133803   6.888   7.140   2.430  0.4564  0.0145 -0.0647
42955SOL    HW233804   6.969   7.201   2.542  0.5523 -0.3436  0.0622
42956SOL     OW33805   3.847   7.770   2.956 -0.6948  0.1863  0.3100
42956SOL    HW133806   3.795   7.730   2.885 -3.5506  2.6724  0.7654
42956SOL    HW233807   3.905   7.832   2.911 -1.2091  0.4600  0.0134
42957SOL     OW33808  10.908   3.999   4.176 -0.1140 -0.8584 -0.2387
42957SOL    HW133809  10.836   3.999   4.239 -0.9094  0.6429 -1.0953
42957SOL    HW233810  10.984   4.028   4.228 -0.5168 -0.6871  0.2643
42958SOL     OW33811   3.905   4.704   9.871 -0.5122 -0.1772  0.0729
42958SOL    HW133812   3.829   4.685   9.926 -0.5542  1.1945  0.5152
42958SOL    HW233813   3.871   4.701   9.781 -1.2542  1.0359  0.2888
42959SOL     OW33814   2.100   3.219   4.833  0.0025 -0.2625  0.1058
42959SOL    HW133815   2.147   3.180   4.759 -0.0790 -0.9382  0.4071
42959SOL    HW233816   2.167   3.232   4.900  0.7084  2.9819 -1.0194
42960SOL     OW33817   2.156   0.483   4.255 -0.1737  0.1620 -0.0833
42960SOL    HW133818   2.207   0.459   4.178 -1.2273 -2.1595 -0.1230
42960SOL    HW233819   2.211   0.458   4.329 -0.6652 -1.0805 -0.1219
42961SOL     OW33820   0.883   0.491   8.089  0.3955 -0.4974 -0.3016
42961SOL    HW133821   0.931   0.573   8.080  1.9134 -0.9613  2.5106
42961SOL    HW233822   0.948   0.423   8.071 -0.3539 -1.1243 -0.7057
42962SOL     OW33823  10.888  10.134   3.772  0.0015  0.7977 -0.0827
42962SOL    HW133824  10.825  10.206   3.760  0.7711  1.5644  0.3679
42962SOL    HW233825  10.971  10.169   3.739  0.3523  0.0637  0.0186
42963SOL     OW33826   4.287   2.387   9.368  0.0520  0.7221  1.2298
42963SOL    HW133827   4.315   2.344   9.449 -0.1381  0.9550  1.4178
42963SOL    HW233828   4.365   2.434   9.338  0.7924 -1.0836  0.1306
42964SOL     OW33829   1.761  11.180   6.183 -0.1167 -0.7288  0.3422
42964SOL    HW133830   1.670  11.196   6.161 -0.4302 -0.6792  1.5772
42964SOL    HW233831   1.782  11.096   6.142 -0.6938 -0.7087  0.0037
42965SOL     OW33832  10.475   7.868   1.954 -0.2625 -0.2284  0.3088
42965SOL    HW133833  10.559   7.823   1.944 -0.4023 -0.1911 -1.4074
42965SOL    HW233834  10.431   7.822   2.026  0.2980 -1.7418 -0.2707
42966SOL     OW33835   6.447  11.255   6.035  0.5048 -0.0833 -0.1161
42966SOL    HW133836   6.398  11.198   5.977 -0.0660 -0.1571  0.4345
42966SOL    HW233837   6.386  11.277   6.105  1.1058  0.2101  0.3249
42967SOL     OW33838   2.417  10.338  10.491 -0.0363 -0.0666  0.2521
42967SOL    HW133839   2.431  10.393  10.414  1.0316 -1.9627 -0.9903
42967SOL    HW233840   2.494  10.353  10.546  0.9594 -1.2986 -0.7502
42968SOL     OW33841   0.823   9.425   0.619 -0.5401  0.1572  0.1390
42968SOL    HW133842   0.764   9.499   0.608  0.7036  1.0029 -1.2194
42968SOL    HW233843   0.890   9.437   0.551  0.9759 -0.9521  1.3626
42969SOL     OW33844   9.347   6.631   0.044 -0.5063  0.3942 -0.4010
42969SOL    HW133845   9.394   6.549   0.035 -0.2060  0.6934 -1.8535
42969SOL    HW233846   9.321   6.635   0.136  0.4272 -0.7928 -0.0740
42970SOL     OW33847   4.860   2.069   2.695  0.1430 -0.8294 -0.4298
42970SOL    HW133848   4.849   2.156   2.732  2.5713  0.2726 -2.0438
42970SOL    HW233849   4.921   2.025   2.755  0.1803 -0.8348 -0.4715
42971SOL     OW33850   9.596   7.273   8.162  0.3907 -0.3220 -0.5860
42971SOL    HW133851   9.599   7.215   8.086  2.1673 -1.3302  0.1976
42971SOL    HW233852   9.522   7.241   8.214  0.1746 -0.6490 -1.0875
42972SOL     OW33853   7.696   8.500   3.819 -0.3225  0.4138 -0.0369
42972SOL    HW133854   7.614   8.450   3.821 -0.0959 -0.1568 -2.2428
42972SOL    HW233855   7.750   8.454   3.755  2.4997 -0.3112  2.6256
42973SOL     OW33856   5.917   3.867   3.806 -0.0668 -0.6451  0.5531
42973SOL    HW133857   5.911   3.857   3.901 -0.5089 -0.0010  0.5953
42973SOL    HW233858   5.836   3.911   3.781  1.6558  2.6782  0.3420
42974SOL     OW33859   6.885   7.698   5.073  0.0037  0.4718 -0.1073
42974SOL    HW133860   6.957   7.684   5.134  0.2285 -0.3388 -0.5490
42974SOL    HW233861   6.889   7.792   5.053 -0.6033  0.9364  1.7563
42975SOL     OW33862   6.182   5.742   0.985 -0.6143  0.4490  0.4623
42975SOL    HW133863   6.150   5.831   0.999  1.6975  1.1526  1.9387
42975SOL    HW233864   6.277   5.748   0.998 -0.4294 -2.3044  1.1533
42976SOL     OW33865   2.621   4.279   2.895 -0.1937 -0.6644 -0.1231
42976SOL    HW133866   2.627   4.212   2.963  1.9946 -0.2053  0.2167
42976SOL    HW233867   2.599   4.230   2.816  0.6643 -1.7162  0.2563
42977SOL     OW33868   5.153   9.396   7.934  0.2049  0.4778 -0.3984
42977SOL    HW133869   5.080   9.458   7.935 -0.0444  0.2166 -1.1034
42977SOL    HW233870   5.111   9.312   7.914  0.5665  0.1255  0.2974
42978SOL     OW33871   3.946   1.217   5.216  0.1241 -0.1448  0.6638
42978SOL    HW133872   3.885   1.266   5.272  1.6546  1.0228  1.3662
42978SOL    HW233873   4.011   1.182   5.277  1.0381 -0.0387 -0.2253
42979SOL     OW33874  10.443   0.775   3.962  0.3466  0.0378 -0.0176
42979SOL    HW133875  10.523   0.811   3.923  0.3543 -0.4602 -0.4668
42979SOL    HW233876  10.373   0.833   3.932  0.4949  0.2980  0.1314
42980SOL     OW33877   5.045   8.855   4.547 -0.2150 -0.4522  0.5510
42980SOL    HW133878   5.101   8.901   4.609 -0.0158  1.0194 -0.6573
42980SOL    HW233879   5.085   8.769   4.538  0.6048 -0.1688  1.3167
42981SOL     OW33880   5.440   5.874  10.165 -0.0579 -0.7855 -0.3551
42981SOL    HW133881   5.514   5.846  10.218 -0.5079  0.0052  0.7242
42981SOL    HW233882   5.479   5.901  10.082  1.1156  1.2256  0.7603
42982SOL     OW33883  10.612  10.599   3.136 -0.2824 -0.3029  0.5034
42982SOL    HW133884  10.547  10.530   3.145 -0.0397 -1.0186 -2.1883
42982SOL    HW233885  10.696  10.553   3.135 -0.0408  0.1276 -0.0994
42983SOL     OW33886  10.945   8.228  11.534  0.2407  0.4443 -0.3323
42983SOL    HW133887  10.856   8.209  11.563  0.2381  0.4681 -0.3264
42983SOL    HW233888  10.995   8.151  11.561 -0.0340 -0.1815 -1.4915
42984SOL     OW33889   2.868   4.420   2.841 -0.1665 -0.1657  0.1674
42984SOL    HW133890   2.854   4.487   2.773  1.0301 -0.2459 -0.1758
42984SOL    HW233891   2.780   4.386   2.858 -0.6658  0.7759 -0.3912
42985SOL     OW33892   1.742   5.763   3.792  0.0460  0.3993  0.2672
42985SOL    HW133893   1.649   5.755   3.770  0.0984 -1.0340  0.4697
42985SOL    HW233894   1.786   5.701   3.734  1.1171  2.2012 -0.9904
42986SOL     OW33895   7.580   9.727   3.472  0.3692  0.2042  0.3519
42986SOL    HW133896   7.608   9.656   3.413  0.1268 -1.4691  2.1310
42986SOL    HW233897   7.567   9.802   3.415 -0.3008 -1.4388 -1.7853
42987SOL     OW33898   4.472   4.738   7.482  0.4366  0.5279 -0.0057
42987SOL    HW133899   4.411   4.669   7.506 -0.2164  0.9841 -0.3283
42987SOL    HW233900   4.555   4.693   7.466 -0.1923 -0.2972 -1.0430
42988SOL     OW33901   5.161   7.511   2.939  0.4134 -0.0200  0.3464
42988SOL    HW133902   5.196   7.427   2.906  1.2570  1.2394 -2.2697
42988SOL    HW233903   5.066   7.499   2.939  0.4712 -0.6810 -0.9783
42989SOL     OW33904   8.426   5.451   5.234 -0.0318  0.2276  0.4622
42989SOL    HW133905   8.414   5.474   5.142  0.8853  0.0426  0.2821
42989SOL    HW233906   8.400   5.359   5.239  0.2515  0.1382  0.3120
42990SOL     OW33907   1.623   2.980   9.289  0.2076  0.1223  0.0948
42990SOL    HW133908   1.675   2.969   9.210  0.5201  1.4209  0.0966
42990SOL    HW233909   1.665   2.924   9.354  1.9622  1.5370  0.2462
42991SOL     OW33910  10.313   7.091   4.043 -0.1369  0.0437  0.3036
42991SOL    HW133911  10.311   6.995   4.048 -1.5342  0.0487  0.1655
42991SOL    HW233912  10.287   7.111   3.953 -0.8432  0.5689  0.6162
42992SOL     OW33913   3.873   8.609   6.809 -0.2427 -0.1159 -0.0380
42992SOL    HW133914   3.878   8.680   6.745 -0.5111  1.3906  1.5510
42992SOL    HW233915   3.961   8.601   6.844  0.4094 -2.3251 -1.9425
42993SOL     OW33916   2.717   6.397   4.206  0.1105  0.5272 -0.6494
42993SOL    HW133917   2.762   6.317   4.234  1.2406  1.3227 -0.1487
42993SOL    HW233918   2.787   6.457   4.182 -0.6797  1.7460 -0.0072
42994SOL     OW33919   0.193   1.215   3.504 -0.0372  0.0558 -0.2661
42994SOL    HW133920   0.109   1.255   3.481 -0.0271 -0.1765 -0.7135
42994SOL    HW233921   0.226   1.178   3.422  0.2487 -0.3252  0.0142
42995SOL     OW33922   0.525   3.261   8.697 -0.0016  0.1853  0.5227
42995SOL    HW133923   0.495   3.228   8.613 -1.5329 -0.0355  1.1206
42995SOL    HW233924   0.537   3.355   8.683  0.2634  0.0684 -0.0675
42996SOL     OW33925  11.315   4.867   0.896  0.4985  0.3867  0.1834
42996SOL    HW133926  11.301   4.961   0.881  1.6320  0.5150 -0.1652
42996SOL    HW233927  11.410   4.859   0.905  0.5707 -0.9581 -1.4090
42997SOL     OW33928   8.468   8.472   1.295 -0.2695  0.2612  0.1227
42997SOL    HW133929   8.450   8.380   1.277 -1.0983  0.2990  0.6857
42997SOL    HW233930   8.382   8.513   1.297 -0.1075  0.6318  2.0206
42998SOL     OW33931   1.280   2.093   5.941 -0.0594  0.2337 -0.2899
42998SOL    HW133932   1.191   2.128   5.939  0.0158  0.4112 -0.5085
42998SOL    HW233933   1.280   2.026   5.873  0.0461  0.4060 -0.4594
42999SOL     OW33934   5.346   7.202   0.636  0.6021 -0.1387  0.4953
42999SOL    HW133935   5.321   7.189   0.545  0.0157 -0.1973  0.6603
42999SOL    HW233936   5.288   7.144   0.685 -0.2045  1.0753  1.0328
43000SOL     OW33937   7.380  10.601   4.565 -0.0173 -0.1291  0.1486
43000SOL    HW133938   7.380  10.693   4.540 -0.9583 -0.3039 -0.5822
43000SOL    HW233939   7.382  10.602   4.661 -0.9294  0.6789  0.1799
43001SOL     OW33940   8.848   8.246  10.359 -0.5926 -0.1284  0.3215
43001SOL    HW133941   8.874   8.317  10.419  0.1158  0.8540 -1.0911
43001SOL    HW233942   8.842   8.169  10.415  0.6203  0.6312  1.5680
43002SOL     OW33943   3.287   5.619   0.669  0.4218  0.1787  0.0571
43002SOL    HW133944   3.201   5.609   0.709  0.3814 -1.1500 -0.3260
43002SOL    HW233945   3.348   5.583   0.734  0.5685  0.0318 -0.1608
43003SOL     OW33946   8.816   9.258   5.371  0.5386  0.2778 -0.3833
43003SOL    HW133947   8.908   9.258   5.399  0.8223  1.9459 -1.1683
43003SOL    HW233948   8.779   9.336   5.410 -0.2678  0.1842 -0.9353
43004SOL     OW33949   5.850  11.128   9.362 -0.1578 -0.3094 -0.2040
43004SOL    HW133950   5.829  11.221   9.372 -1.8786 -0.7484  0.5076
43004SOL    HW233951   5.766  11.083   9.371  0.7086 -1.9731 -0.0993
43005SOL     OW33952   3.815   2.131   9.648 -0.5348 -0.0303 -0.3422
43005SOL    HW133953   3.769   2.183   9.582 -0.1803 -1.4937 -1.8096
43005SOL    HW233954   3.905   2.166   9.648 -0.5765  0.0776 -0.5225
43006SOL     OW33955   5.303  10.438   8.923 -0.5443  0.0228 -0.1043
43006SOL    HW133956   5.330  10.484   9.003 -0.1629 -3.5983  2.0541
43006SOL    HW233957   5.380  10.444   8.866  0.7705 -0.7428  1.4980
43007SOL     OW33958   3.796   8.768   5.527  0.1268 -0.4179 -0.1459
43007SOL    HW133959   3.798   8.707   5.453  1.4452  0.3344 -0.7559
43007SOL    HW233960   3.747   8.843   5.494  1.9250  0.5295 -0.7921
43008SOL     OW33961   2.205   7.801   3.913  0.5875 -0.4184  0.4867
43008SOL    HW133962   2.191   7.710   3.937 -0.8598 -0.5721 -0.8482
43008SOL    HW233963   2.123   7.845   3.934  1.3117  0.6473  1.2518
43009SOL     OW33964   1.553   9.874   7.599 -0.0270 -0.1924  0.4941
43009SOL    HW133965   1.478   9.820   7.573  0.3355 -0.1291 -0.7633
43009SOL    HW233966   1.624   9.812   7.614  0.2773 -0.1195 -0.5521
43010SOL     OW33967   2.627   2.206   7.175 -0.1865 -0.4231 -0.3849
43010SOL    HW133968   2.649   2.222   7.267  1.0103  0.1194 -0.7427
43010SOL    HW233969   2.547   2.256   7.160  0.0376  0.1060  0.1615
43011SOL     OW33970   1.558   6.662   3.106  0.0207  0.2510  0.0870
43011SOL    HW133971   1.575   6.734   3.047  0.1163  0.4230  0.3217
43011SOL    HW233972   1.639   6.650   3.155  0.0949 -0.1923 -0.1372
43012SOL     OW33973   3.821   3.659   8.001  0.2444 -0.0036  0.5464
43012SOL    HW133974   3.728   3.655   7.978  0.5090 -1.7131 -0.4297
43012SOL    HW233975   3.823   3.703   8.086 -1.5409 -0.7836  1.0352
43013SOL     OW33976   5.703   5.535   0.254 -0.3285  0.2239  0.2491
43013SOL    HW133977   5.686   5.630   0.252  2.6109  0.9836  2.9426
43013SOL    HW233978   5.757   5.520   0.176  1.8262  1.5136  1.3897
43014SOL     OW33979   1.883  10.091   6.497 -0.5011  0.0813  0.0110
43014SOL    HW133980   1.889  10.155   6.426  0.2906  0.3883  0.3419
43014SOL    HW233981   1.789  10.078   6.509 -0.6863  1.3416  0.0695
43015SOL     OW33982   3.999   3.795   9.775  0.4023  0.5876 -0.2754
43015SOL    HW133983   4.068   3.739   9.812  0.2391  1.3512  1.2695
43015SOL    HW233984   3.995   3.870   9.834 -1.5434  0.7096 -0.5078
43016SOL     OW33985   8.151   8.074  11.545  0.0286 -0.5975 -0.3754
43016SOL    HW133986   8.095   8.077  11.622  0.3803  1.0841 -0.1372
43016SOL    HW233987   8.092   8.052  11.473 -0.9670  1.1221 -0.1254
43017SOL     OW33988   8.231   5.550   0.170  0.7597 -0.6650 -0.3313
43017SOL    HW133989   8.149   5.599   0.179  1.2041 -0.2304  1.7320
43017SOL    HW233990   8.299   5.611   0.197  1.9633 -0.6324 -3.1152
43018SOL     OW33991  11.102   7.639   2.441 -0.0335 -0.6649 -0.0378
43018SOL    HW133992  11.056   7.632   2.357  0.4449 -0.3344 -0.3371
43018SOL    HW233993  11.070   7.720   2.480 -0.3443 -0.8785  0.1582
43019SOL     OW33994   6.509   2.905   7.509  0.0875 -0.3438  0.3860
43019SOL    HW133995   6.552   2.820   7.498  1.3904  0.5381 -2.1763
43019SOL    HW233996   6.486   2.931   7.421 -1.4436  1.4262  1.2583
43020SOL     OW33997   1.687   5.796   4.679  0.0147 -0.3379 -0.1963
43020SOL    HW133998   1.630   5.770   4.606 -0.1730 -1.0906  0.1975
43020SOL    HW233999   1.745   5.863   4.643 -0.8467  0.1426 -0.7223
43021SOL     OW34000   9.522   2.172   2.605 -0.3892 -0.2388  0.5641
43021SOL    HW134001   9.609   2.193   2.638  0.5456 -1.7345 -0.7799
43021SOL    HW234002   9.488   2.106   2.665 -0.8798  0.8035  1.4500
43022SOL     OW34003   4.669   2.102   1.957 -0.1549  0.0557  0.6333
43022SOL    HW134004   4.675   2.009   1.934 -2.1084  0.0526 -0.0670
43022SOL    HW234005   4.699   2.147   1.878 -0.2449  0.0190  0.5774
43023SOL     OW34006   2.485   9.005   6.771 -0.0883  0.0260 -0.2185
43023SOL    HW134007   2.471   8.924   6.820  1.5735 -0.6140 -0.7156
43023SOL    HW234008   2.557   8.984   6.711  0.8319  2.0424  0.0965
43024SOL     OW34009  11.630  11.240   9.973  0.5204 -0.4850  0.2534
43024SOL    HW134010  11.713  11.270   9.937  0.1570 -1.7050 -1.8111
43024SOL    HW234011  11.646  11.229  10.067  2.7186 -0.7774 -0.1111
43025SOL     OW34012   3.689   2.566   6.151 -0.4549  0.3849  0.1679
43025SOL    HW134013   3.667   2.596   6.240  1.5086  0.9142  0.5394
43025SOL    HW234014   3.747   2.635   6.117  1.1174 -1.1589 -0.4240
43026SOL     OW34015  11.206   9.199  11.343  0.1619 -0.2487 -0.0317
43026SOL    HW134016  11.169   9.111  11.332 -1.1275  0.4005 -1.2642
43026SOL    HW234017  11.151   9.239  11.411 -1.0668  0.5012 -1.4125
43027SOL     OW34018   7.988   3.633   9.798  0.1541 -0.0935  0.4885
43027SOL    HW134019   8.064   3.620   9.742 -2.0123 -4.5863 -2.0076
43027SOL    HW234020   7.942   3.708   9.760  1.5811  0.4739 -0.1720
43028SOL     OW34021   7.809  10.521   0.733  1.1320 -0.1017 -0.0598
43028SOL    HW134022   7.851  10.459   0.794  1.3681  0.3521  0.2432
43028SOL    HW234023   7.793  10.469   0.654 -0.1662 -1.0040  0.7472
43029SOL     OW34024   9.042  10.314   2.533  0.2272 -0.5132  0.0050
43029SOL    HW134025   9.098  10.238   2.519  1.6434  0.7040 -1.4067
43029SOL    HW234026   9.094  10.388   2.503 -1.5617  0.8801  0.1236
43030SOL     OW34027   4.404   5.689   6.122  0.2594 -0.5152  0.2217
43030SOL    HW134028   4.403   5.745   6.200 -0.1340  0.8470 -0.7234
43030SOL    HW234029   4.314   5.658   6.113  0.5968 -1.8427  1.0801
43031SOL     OW34030   8.211   7.278   1.926 -0.1026 -0.1867 -0.0052
43031SOL    HW134031   8.300   7.310   1.910 -0.4399  0.7876  0.0189
43031SOL    HW234032   8.215   7.240   2.014  1.9143 -6.0681 -2.0918
43032SOL     OW34033   1.069   3.521   5.272  0.1879  0.0903  0.2242
43032SOL    HW134034   1.134   3.472   5.221  0.2768 -1.5801  1.8596
43032SOL    HW234035   0.993   3.463   5.276 -1.0331  1.5534 -0.6941
43033SOL     OW34036   1.056  10.170   0.505  0.1128  0.1919  0.3632
43033SOL    HW134037   0.982  10.169   0.565 -1.0421  2.3216 -0.9277
43033SOL    HW234038   1.024  10.128   0.426 -0.0701  1.9170 -0.5222
43034SOL     OW34039  11.444  10.896   6.513  0.9666  0.1558 -0.0383
43034SOL    HW134040  11.536  10.904   6.540  1.3501  0.6532 -1.4063
43034SOL    HW234041  11.431  10.970   6.454 -0.3929  0.2183  0.3204
43035SOL     OW34042   8.156   6.381   0.161  0.0049 -0.4568 -0.5337
43035SOL    HW134043   8.148   6.318   0.090 -2.5103  0.0125 -0.7681
43035SOL    HW234044   8.124   6.335   0.238  1.4009 -0.5160  0.0397
43036SOL     OW34045   6.410   5.846   0.486  0.3188 -0.3956  0.4414
43036SOL    HW134046   6.438   5.760   0.516 -2.0583 -1.5848 -0.5431
43036SOL    HW234047   6.360   5.830   0.406 -0.5100  1.8547  0.4145
43037SOL     OW34048   0.343   4.473  11.331  0.1990  0.1105  0.2020
43037SOL    HW134049   0.333   4.444  11.240 -0.9427 -0.0733  0.3745
43037SOL    HW234050   0.287   4.414  11.381  0.4563  0.5079  0.9764
43038SOL     OW34051   0.625   4.277   7.078  0.0258  0.1258  0.1264
43038SOL    HW134052   0.531   4.296   7.081 -0.0334 -0.0071 -0.6486
43038SOL    HW234053   0.638   4.236   6.993  0.7429 -0.1134  0.3475
43039SOL     OW34054   7.228   8.536   9.510  0.1118 -0.4602  0.3408
43039SOL    HW134055   7.316   8.571   9.520  0.1525  0.3856 -2.2012
43039SOL    HW234056   7.231   8.486   9.429 -1.6242 -0.8572  0.4695
43040SOL     OW34057   3.456   3.652   2.382 -0.1313  0.4231 -0.1813
43040SOL    HW134058   3.421   3.667   2.469 -0.6143  1.0460 -0.4787
43040SOL    HW234059   3.496   3.735   2.357  1.5988 -0.2585  0.1505
43041SOL     OW34060   7.817   4.218   7.389 -0.1602  0.2175 -0.3375
43041SOL    HW134061   7.764   4.275   7.444  0.5696 -0.7914  1.5277
43041SOL    HW234062   7.820   4.135   7.437  1.9216 -0.1976 -1.0607
43042SOL     OW34063  10.759   6.665  11.346  0.0739 -0.4148  0.4087
43042SOL    HW134064  10.730   6.609  11.418 -0.0581 -0.3905  0.3751
43042SOL    HW234065  10.845   6.695  11.373  0.0640 -0.4794  0.5154
43043SOL     OW34066   3.813   8.020  11.166  0.0018 -0.1805 -0.2241
43043SOL    HW134067   3.813   8.102  11.117  0.0958  0.3208  0.6052
43043SOL    HW234068   3.779   8.043  11.252  1.2949 -0.7306  0.4675
43044SOL     OW34069   8.904  11.675   3.532  0.4561 -0.1059  0.5487
43044SOL    HW134070   8.912  11.750   3.474 -1.9826  0.2707  0.5725
43044SOL    HW234071   8.965  11.610   3.498  1.2065  1.1781 -0.6271
43045SOL     OW34072   8.855   3.619   8.906  0.4912 -0.2327  0.1093
43045SOL    HW134073   8.836   3.681   8.977 -1.4446  0.3617 -0.8592
43045SOL    HW234074   8.874   3.536   8.951 -1.7913 -0.1676  1.3547
43046SOL     OW34075   1.424   6.907   4.111 -0.1734  0.1198 -0.6536
43046SOL    HW134076   1.358   6.872   4.052 -0.7837  1.0173 -0.5081
43046SOL    HW234077   1.376   6.965   4.170  0.3603 -0.9754  0.9291
43047SOL     OW34078   5.703  11.341   4.081 -0.0216 -0.0583 -0.2553
43047SOL    HW134079   5.707  11.258   4.033 -0.5270 -1.2678  1.6649
43047SOL    HW234080   5.651  11.399   4.025 -1.3283 -1.6727 -0.8080
43048SOL     OW34081   5.574   0.177  11.659  0.1912 -0.0149  0.2638
43048SOL    HW134082   5.503   0.239  11.644 -0.1710 -0.4022  0.3546
43048SOL    HW234083   5.571   0.118  11.583 -0.6305 -1.0185  1.0509
43049SOL     OW34084   1.434   1.575   5.145 -0.1827  0.0090 -0.6098
43049SOL    HW134085   1.443   1.537   5.058  0.3726 -1.0628 -0.1086
43049SOL    HW234086   1.485   1.656   5.142  0.7790 -0.6001 -0.9502
43050SOL     OW34087   6.501   5.788   9.567  0.1960  0.0598  0.0864
43050SOL    HW134088   6.414   5.785   9.526  0.0235  0.8069  0.3658
43050SOL    HW234089   6.487   5.756   9.656 -0.3378  2.4549  0.9591
43051SOL     OW34090   8.752  10.378   2.979  0.3388 -0.2288  0.7939
43051SOL    HW134091   8.837  10.362   2.937 -0.3455 -0.3762 -0.6209
43051SOL    HW234092   8.690  10.376   2.906 -0.9734 -0.8620  1.8919
43052SOL     OW34093   1.684  10.428   4.256  0.3948 -0.6656  0.9477
43052SOL    HW134094   1.766  10.465   4.289  0.4416  0.3424 -0.1915
43052SOL    HW234095   1.638  10.503   4.218 -1.0896 -1.2126  1.5970
43053SOL     OW34096   8.726   5.192   9.567  0.1629  0.4033 -0.5417
43053SOL    HW134097   8.752   5.115   9.618  0.0778 -0.4392 -1.7253
43053SOL    HW234098   8.724   5.264   9.630  0.5022 -0.5168  0.5367
43054SOL     OW34099  10.418   4.138  10.175  0.0532  0.0180 -0.3891
43054SOL    HW134100  10.409   4.043  10.166  0.7916  0.1530 -5.2488
43054SOL    HW234101  10.328   4.169  10.180 -0.2432 -0.8676  0.1292
43055SOL     OW34102   5.597  10.799   9.584  0.2257  0.4498  0.6622
43055SOL    HW134103   5.686  10.800   9.548  0.0879 -0.0614  0.3006
43055SOL    HW234104   5.595  10.873   9.645  1.7421 -1.0590  2.7041
43056SOL     OW34105   2.911   3.248   6.709 -0.4614 -0.0462  0.1199
43056SOL    HW134106   2.972   3.315   6.739 -0.6477  0.6435 -0.9782
43056SOL    HW234107   2.825   3.289   6.716 -0.6222 -0.3413 -0.1094
43057SOL     OW34108   9.384   1.605   0.504  0.1447 -0.3150 -0.3986
43057SOL    HW134109   9.327   1.648   0.441 -1.6679 -1.2757  0.5154
43057SOL    HW234110   9.370   1.511   0.488 -0.5387 -0.5781  1.5631
43058SOL     OW34111   0.550   9.909   1.602 -0.0996 -0.4489 -0.2508
43058SOL    HW134112   0.552   9.862   1.686 -2.5010 -2.4311 -1.1699
43058SOL    HW234113   0.458   9.935   1.593  0.8995  3.5215 -0.3888
43059SOL     OW34114   2.346   6.907  10.870 -0.1835  0.0177 -0.1913
43059SOL    HW134115   2.330   6.991  10.829 -1.3363 -0.4835 -0.8224
43059SOL    HW234116   2.262   6.883  10.910  0.3181 -0.5188  0.5800
43060SOL     OW34117   0.833   8.023   5.456  0.3120  0.0621  0.1625
43060SOL    HW134118   0.915   8.015   5.408  1.2753  0.6794  1.6213
43060SOL    HW234119   0.800   8.110   5.434  0.3861  0.0676  0.0732
43061SOL     OW34120   9.623   4.150  11.259  0.2728 -0.3882  0.1429
43061SOL    HW134121   9.577   4.067  11.251 -0.2727 -0.0339 -0.5148
43061SOL    HW234122   9.604   4.180  11.348 -0.4142 -0.4548  0.0226
43062SOL     OW34123   0.853   6.095   2.817 -0.4161  0.2024  0.4256
43062SOL    HW134124   0.891   6.128   2.736 -0.1000  0.1807  0.5659
43062SOL    HW234125   0.792   6.164   2.844 -0.7447  0.0790  0.0167
43063SOL     OW34126   5.564   0.910   7.163 -0.1592 -0.0743 -0.1669
43063SOL    HW134127   5.551   0.985   7.105 -0.6241 -1.4117 -1.8725
43063SOL    HW234128   5.634   0.860   7.122 -0.5908 -1.1291  0.3501
43064SOL     OW34129   8.080   3.192   2.681 -0.3967  0.5565 -0.3304
43064SOL    HW134130   8.037   3.168   2.600 -0.0249 -0.2197 -0.3071
43064SOL    HW234131   8.032   3.269   2.713 -2.1462 -0.6283  0.0127
43065SOL     OW34132   0.256   8.569   3.585  0.1953 -0.1806  0.3161
43065SOL    HW134133   0.312   8.643   3.561 -0.3896  0.1288 -0.1101
43065SOL    HW234134   0.309   8.492   3.566  0.4892  0.1085 -0.0619
43066SOL     OW34135   8.152   5.815   7.949 -0.7418  0.0139 -0.3858
43066SOL    HW134136   8.098   5.810   8.028 -2.1323  0.7494 -1.2693
43066SOL    HW234137   8.135   5.733   7.903  0.8811 -0.9061  0.5290
43067SOL     OW34138   2.345   2.154   5.456 -0.0671  0.0173 -0.0782
43067SOL    HW134139   2.419   2.110   5.414 -0.5398 -1.0541  0.1847
43067SOL    HW234140   2.384   2.201   5.530  0.3648 -0.4437 -0.0108
43068SOL     OW34141   0.542   3.088   8.464 -0.1337 -0.1207  0.0486
43068SOL    HW134142   0.619   3.037   8.440  0.2204  0.3259  0.2135
43068SOL    HW234143   0.527   3.145   8.389 -1.0332 -1.0314 -0.4916
43069SOL     OW34144   6.996   3.794   9.858 -0.4494  0.1510 -0.9297
43069SOL    HW134145   6.923   3.828   9.911 -1.0402 -0.5139 -1.2961
43069SOL    HW234146   7.037   3.727   9.913  0.8081  1.5030 -0.1478
43070SOL     OW34147   5.129   6.670   9.013  0.0260  0.3022 -0.6837
43070SOL    HW134148   5.076   6.641   9.088  0.3279  2.2839  0.3748
43070SOL    HW234149   5.099   6.616   8.940  0.4647 -2.4843  1.0395
43071SOL     OW34150   6.339   8.308  11.068  0.3760 -0.0941  0.2974
43071SOL    HW134151   6.367   8.301  10.976  0.2023  2.0288  0.0238
43071SOL    HW234152   6.349   8.401  11.088  0.0303 -0.4600  2.3299
43072SOL     OW34153   2.444   2.852   1.703  0.1584 -0.2594 -0.3613
43072SOL    HW134154   2.408   2.815   1.623 -1.2881 -1.0642  0.6032
43072SOL    HW234155   2.493   2.780   1.743  0.0232 -0.1814 -0.0463
43073SOL     OW34156   8.208   8.115   7.170 -0.7258 -0.4674  0.2968
43073SOL    HW134157   8.227   8.207   7.152 -2.3655  0.3486  2.3750
43073SOL    HW234158   8.294   8.072   7.164  0.1383  1.2348 -0.3903
43074SOL     OW34159   0.707   4.215   5.009  0.1515 -0.1738  0.1051
43074SOL    HW134160   0.726   4.211   5.102  0.3747  0.7295  0.1032
43074SOL    HW234161   0.665   4.300   4.996 -0.3073 -0.4876 -0.5408
43075SOL     OW34162   8.451   2.968   2.167  0.2959  0.4978 -0.4408
43075SOL    HW134163   8.527   2.964   2.225  1.3943  1.5345 -1.7463
43075SOL    HW234164   8.397   2.892   2.193  1.4855  0.0526  0.8637
43076SOL     OW34165   6.091   3.412   7.032  0.3978 -0.1470  0.5922
43076SOL    HW134166   6.086   3.334   7.087  1.2007  0.1768  1.1350
43076SOL    HW234167   6.177   3.448   7.049 -0.0934  1.0598  0.6263
43077SOL     OW34168   4.968  10.538   7.595 -0.5199 -0.1701 -0.3207
43077SOL    HW134169   5.035  10.592   7.553 -0.8312 -0.2987 -0.9818
43077SOL    HW234170   4.952  10.582   7.679  0.0288  0.1414 -0.3740
43078SOL     OW34171   7.404   2.172  10.088 -0.5494  0.1562  0.0558
43078SOL    HW134172   7.337   2.141  10.027 -1.1368 -0.4958  1.0033
43078SOL    HW234173   7.485   2.135  10.055 -0.6427  0.9255 -1.0901
43079SOL     OW34174   4.521   2.326  10.448 -0.2492 -0.4106 -0.0187
43079SOL    HW134175   4.452   2.299  10.508  0.0546 -2.2898 -0.4363
43079SOL    HW234176   4.602   2.293  10.489  0.4244  1.5738  0.3651
43080SOL     OW34177   6.731   4.169   5.331  0.0218 -0.1459 -0.1118
43080SOL    HW134178   6.649   4.215   5.313  0.4128  0.4529 -0.4018
43080SOL    HW234179   6.720   4.083   5.290  0.1785  0.5330 -1.6620
43081SOL     OW34180   7.915   8.926   6.166  0.4050  0.0734 -0.0203
43081SOL    HW134181   7.898   8.941   6.073  1.4455  0.0754 -0.2292
43081SOL    HW234182   7.910   8.831   6.177 -0.2089  0.1095  0.0283
43082SOL     OW34183   8.196   0.380   4.621  0.2236 -0.1974  0.4410
43082SOL    HW134184   8.286   0.407   4.637  0.3422  0.4706 -1.1160
43082SOL    HW234185   8.178   0.410   4.532 -0.2673 -3.7334 -0.8143
43083SOL     OW34186   3.966   6.290  11.330  0.7060  0.2840  0.1485
43083SOL    HW134187   3.942   6.376  11.364  2.1954  0.5703  0.5128
43083SOL    HW234188   3.925   6.228  11.390 -1.5873  0.6514 -0.9082
43084SOL     OW34189   7.571   4.931   5.398 -0.2818 -0.5622 -0.1770
43084SOL    HW134190   7.603   4.999   5.457 -0.6494 -1.0845  0.6512
43084SOL    HW234191   7.608   4.953   5.312 -0.6246  0.8308  0.0146
43085SOL     OW34192   9.389   3.361   9.230  0.3200 -0.4540 -0.2162
43085SOL    HW134193   9.337   3.286   9.200  1.4332 -1.2437 -0.1995
43085SOL    HW234194   9.459   3.368   9.166  0.8693 -0.1313  0.4145
43086SOL     OW34195   3.270   3.056   5.552 -0.3313  0.2608 -0.3812
43086SOL    HW134196   3.274   2.986   5.488 -0.3807 -0.2549  0.1720
43086SOL    HW234197   3.353   3.051   5.599 -0.5165  0.2893 -0.0459
43087SOL     OW34198   1.687   1.719   2.831 -0.4774  0.1634 -0.7895
43087SOL    HW134199   1.725   1.648   2.884 -1.0266 -0.4497 -1.2060
43087SOL    HW234200   1.639   1.772   2.893 -0.1236  0.1330 -0.4842
43088SOL     OW34201   6.499   3.451   9.493 -0.1415  0.4890 -0.3044
43088SOL    HW134202   6.467   3.362   9.475  1.3381  0.1355 -1.3979
43088SOL    HW234203   6.448   3.480   9.569 -1.1347 -1.0281 -0.3436
43089SOL     OW34204   8.828   2.882  11.191  0.0228  0.3145 -0.4692
43089SOL    HW134205   8.737   2.898  11.214  0.8188  2.8678  1.3449
43089SOL    HW234206   8.833   2.787  11.179 -2.3775 -0.2150  1.7581
43090SOL     OW34207   5.955   7.148   8.643  0.2260  0.2580  0.2050
43090SOL    HW134208   5.920   7.237   8.642  0.2992  0.3402  2.0058
43090SOL    HW234209   6.048   7.159   8.661  0.1565 -0.1956  0.8574
43091SOL     OW34210  10.804   7.005   0.198 -0.0591 -0.1875  0.7242
43091SOL    HW134211  10.755   6.950   0.259 -2.2876  1.8218  0.8800
43091SOL    HW234212  10.808   6.954   0.117 -1.2863 -0.9393  1.1147
43092SOL     OW34213   7.057   2.178   4.862 -0.1595 -0.3020  0.2994
43092SOL    HW134214   7.065   2.252   4.803 -0.2109 -1.6080 -1.4029
43092SOL    HW234215   7.009   2.111   4.813 -0.1492 -1.4771  1.7775
43093SOL     OW34216   3.280   4.313   4.051 -0.0444  0.3179  0.0394
43093SOL    HW134217   3.355   4.285   3.997 -0.2189 -0.8165  0.3565
43093SOL    HW234218   3.320   4.357   4.126  0.2265  1.3161 -0.6752
43094SOL     OW34219   6.699   2.759   0.017  0.3137 -0.6005  0.2791
43094SOL    HW134220   6.686   2.755  -0.078  1.7907 -1.2064  0.0825
43094SOL    HW234221   6.657   2.679   0.050  0.1936 -0.6143  0.0955
43095SOL     OW34222   6.710   1.292   3.404 -0.7991 -0.4105 -0.3042
43095SOL    HW134223   6.646   1.228   3.435 -3.1342  1.0623 -1.7721
43095SOL    HW234224   6.744   1.333   3.484 -1.2374 -1.6325  0.5337
43096SOL     OW34225   5.437   6.555   9.036 -0.0793  0.4305 -0.0506
43096SOL    HW134226   5.373   6.555   9.107 -1.4945 -0.2819 -1.2666
43096SOL    HW234227   5.405   6.487   8.975  1.4149  0.5956 -1.0634
43097SOL     OW34228   6.760   6.244   0.808  0.0139  0.8280  0.3974
43097SOL    HW134229   6.765   6.204   0.895 -1.6251  1.2276  0.7241
43097SOL    HW234230   6.669   6.230   0.781  0.8883 -0.8262 -2.0485
43098SOL     OW34231   3.535   8.286   4.719  0.1109 -0.3643  0.3751
43098SOL    HW134232   3.624   8.254   4.707 -0.0479 -0.3449 -1.0371
43098SOL    HW234233   3.546   8.371   4.763  0.7400 -0.6014  0.6889
43099SOL     OW34234   7.920   2.786   9.548 -0.3819 -0.4564 -0.0221
43099SOL    HW134235   7.897   2.823   9.463  2.2535 -0.6402 -0.9073
43099SOL    HW234236   7.998   2.733   9.531 -0.1857 -1.0696  2.4024
43100SOL     OW34237   0.300   8.872   4.564 -0.0640  0.0902  0.2225
43100SOL    HW134238   0.349   8.925   4.501 -1.5719 -0.2230 -1.2880
43100SOL    HW234239   0.350   8.791   4.571  0.0469  0.0715 -0.7058
43101SOL     OW34240   9.641   4.814   5.611  0.4605 -0.0411 -0.0732
43101SOL    HW134241   9.587   4.743   5.577 -0.1062  0.7148 -0.8067
43101SOL    HW234242   9.730   4.793   5.585  0.1161  0.2103 -1.5244
43102SOL     OW34243   2.819   9.515   5.332 -0.0864 -0.0024  0.2774
43102SOL    HW134244   2.851   9.604   5.346  0.4768 -0.3420  1.2391
43102SOL    HW234245   2.733   9.526   5.291  0.2408  0.9657 -0.1811
43103SOL     OW34246   7.170   0.892   3.616  0.8578  0.1696 -0.8523
43103SOL    HW134247   7.141   0.912   3.527  0.8548 -2.1640 -1.4232
43103SOL    HW234248   7.128   0.809   3.638 -0.4471  1.4116  1.9892
43104SOL     OW34249   8.479   0.980  11.120 -0.1660 -0.1099  0.2179
43104SOL    HW134250   8.399   0.965  11.171 -0.3450 -0.2257 -0.0968
43104SOL    HW234251   8.535   1.031  11.179 -0.5451  0.1391  0.3728
43105SOL     OW34252   7.733   3.943   5.272 -1.0850 -0.1132  0.2343
43105SOL    HW134253   7.644   3.919   5.296 -0.8276 -0.9295  0.4280
43105SOL    HW234254   7.779   3.859   5.265 -0.4179  0.2780 -0.1912
43106SOL     OW34255  10.541   4.723   0.923  0.1853 -0.3769  0.0088
43106SOL    HW134256  10.577   4.642   0.886  0.5756  0.1686 -0.8202
43106SOL    HW234257  10.446   4.711   0.920  0.2109 -1.8826  2.3295
43107SOL     OW34258   0.800   1.744   4.113 -0.0156  0.1520  0.6954
43107SOL    HW134259   0.810   1.807   4.042 -1.3590  0.9290  1.1473
43107SOL    HW234260   0.822   1.794   4.192  1.0644 -0.5882  0.8843
43108SOL     OW34261   9.816   2.045   1.298  0.1013 -0.2602  1.3033
43108SOL    HW134262   9.735   1.996   1.313  0.2614 -0.4773  1.4783
43108SOL    HW234263   9.787   2.128   1.261 -0.2100 -0.2873  1.4791
43109SOL     OW34264   5.331   0.136   4.759  0.3973 -0.1367  0.3746
43109SOL    HW134265   5.388   0.059   4.748  2.3659  1.4797 -1.6517
43109SOL    HW234266   5.308   0.161   4.669  0.1163  1.8596  0.9742
43110SOL     OW34267   9.066   3.693  10.283  0.1876 -0.3789  0.4503
43110SOL    HW134268   8.980   3.687  10.242 -0.1274 -1.3607  1.2113
43110SOL    HW234269   9.114   3.757  10.230 -0.7103 -0.4822 -0.5122
43111SOL     OW34270  11.554   6.444  10.137  0.4058  0.1051 -0.1578
43111SOL    HW134271  11.480   6.422  10.080 -0.2113 -0.2015  0.7418
43111SOL    HW234272  11.516   6.452  10.224  1.4666 -0.2573  0.3618
43112SOL     OW34273   5.953   1.387   1.230 -0.4177 -0.5377 -0.1784
43112SOL    HW134274   5.896   1.463   1.237  1.4600  0.8850  0.8584
43112SOL    HW234275   5.951   1.363   1.137 -2.2206 -0.2188 -0.2483
43113SOL     OW34276   3.330   7.702   8.373  0.3937 -0.1319  0.1863
43113SOL    HW134277   3.285   7.749   8.443 -1.2262  0.5195 -1.2329
43113SOL    HW234278   3.386   7.769   8.332 -0.5602  0.1402 -0.7015
43114SOL     OW34279  10.129   4.525   1.354  0.2219 -0.4610 -0.1648
43114SOL    HW134280  10.099   4.546   1.443  0.9224 -0.0787 -0.0065
43114SOL    HW234281  10.114   4.431   1.345  0.8451 -0.6521  0.6453
43115SOL     OW34282   9.697   5.446   4.037 -0.0463 -0.1767 -0.4690
43115SOL    HW134283   9.749   5.421   3.961 -0.8869 -1.0248 -0.7956
43115SOL    HW234284   9.727   5.534   4.060  0.2452  0.0736 -1.7565
43116SOL     OW34285   9.758   2.932   2.847  0.4214 -0.0668 -0.1087
43116SOL    HW134286   9.667   2.920   2.873 -0.2241  1.0326 -1.6643
43116SOL    HW234287   9.784   3.014   2.889  0.1763  0.4035 -0.8388
43117SOL     OW34288   2.025   4.326   6.178 -0.8648 -0.2332 -0.3839
43117SOL    HW134289   2.056   4.358   6.094 -0.1285 -0.0103 -0.0324
43117SOL    HW234290   2.092   4.265   6.208  0.9671  2.6167  1.8594
43118SOL     OW34291   5.599  10.078   9.142 -0.1951  0.1045 -0.1386
43118SOL    HW134292   5.508  10.074   9.112  0.1362 -1.1939 -1.0294
43118SOL    HW234293   5.613   9.995   9.187  0.4315  0.4905  0.3907
43119SOL     OW34294   4.367   9.389   1.126  0.1061 -0.5716 -0.5423
43119SOL    HW134295   4.289   9.443   1.139  0.6967  0.0399  0.6499
43119SOL    HW234296   4.402   9.417   1.042 -0.8531 -0.7225 -1.0016
43120SOL     OW34297   6.174   5.390   0.092 -0.0710  0.1737  0.3702
43120SOL    HW134298   6.160   5.475   0.049 -0.9873  0.8169  1.8654
43120SOL    HW234299   6.121   5.329   0.041  0.1766  0.5917 -0.4022
43121SOL     OW34300   7.455   5.236   3.039 -0.4541  0.0117 -0.5129
43121SOL    HW134301   7.459   5.234   2.943 -0.5761 -0.6713 -0.5088
43121SOL    HW234302   7.398   5.310   3.059 -0.7176 -0.0606 -0.9818
43122SOL     OW34303   6.207   9.578   1.281 -0.0448 -0.2315  0.3834
43122SOL    HW134304   6.154   9.635   1.336  0.6868  0.1832  0.6759
43122SOL    HW234305   6.251   9.637   1.220 -1.5341 -0.7626 -1.2828
43123SOL     OW34306   0.972  11.353   3.448  0.4850  0.1809  0.1777
43123SOL    HW134307   0.971  11.262   3.417  0.1536  0.1134  0.3836
43123SOL    HW234308   1.045  11.355   3.511  1.1551  0.3185 -0.5838
43124SOL     OW34309  11.481   2.203   2.255 -0.5147 -0.3924  0.1824
43124SOL    HW134310  11.543   2.265   2.217  1.0544 -1.1041  1.4465
43124SOL    HW234311  11.499   2.120   2.212 -0.2558 -0.7076  0.8746
43125SOL     OW34312  11.266   8.111   5.902 -0.2809  0.4271 -0.5909
43125SOL    HW134313  11.358   8.086   5.916 -0.0791 -0.3619 -2.9166
43125SOL    HW234314  11.263   8.138   5.810 -2.7696 -1.4886 -1.1753
43126SOL     OW34315   1.940   9.416   7.465 -0.0858  0.0390 -0.2099
43126SOL    HW134316   1.850   9.395   7.491  0.1994 -0.7078  0.1804
43126SOL    HW234317   1.968   9.483   7.528 -0.5737  0.7309 -0.7134
43127SOL     OW34318   3.577   4.148   7.141 -0.2702 -0.0302 -0.5966
43127SOL    HW134319   3.646   4.110   7.195 -0.6442  0.3450  0.1741
43127SOL    HW234320   3.528   4.073   7.108  1.0900 -0.3548 -1.9985
43128SOL     OW34321   5.790   1.843   7.798 -0.0191  0.2615  0.3225
43128SOL    HW134322   5.816   1.867   7.887  3.3587 -0.2543 -0.3910
43128SOL    HW234323   5.813   1.920   7.745  1.9482 -0.8694 -0.6026
43129SOL     OW34324   8.791  10.435  11.549  0.2188 -0.1664  0.3508
43129SOL    HW134325   8.728  10.480  11.606 -0.5114 -0.9027  0.1527
43129SOL    HW234326   8.765  10.343  11.553  1.5471 -0.5549  0.5717
43130SOL     OW34327   3.061   8.791   5.904 -0.2190 -0.3195  0.1462
43130SOL    HW134328   3.008   8.745   5.969  0.1299 -1.3880 -0.2959
43130SOL    HW234329   2.998   8.837   5.849 -0.4947  1.0146  1.5194
43131SOL     OW34330   7.035   4.900   2.417 -0.4462  0.0589 -0.7665
43131SOL    HW134331   7.033   4.826   2.477 -0.4353  0.2985 -0.4635
43131SOL    HW234332   7.071   4.972   2.469 -1.9215  0.7037 -0.5555
43132SOL     OW34333   7.458   9.347   2.311 -0.3332  0.1502 -0.3162
43132SOL    HW134334   7.424   9.320   2.396  0.1149 -0.1134 -0.2192
43132SOL    HW234335   7.462   9.443   2.316  0.2910  0.0987  0.1910
43133SOL     OW34336   4.446   9.556   9.235  0.0147  0.0122 -0.0261
43133SOL    HW134337   4.502   9.607   9.293 -0.5656 -0.1200  0.6620
43133SOL    HW234338   4.397   9.623   9.186 -1.8763  0.2032  1.9621
43134SOL     OW34339  10.481   9.647   1.064 -0.7475 -0.2117 -0.2682
43134SOL    HW134340  10.563   9.683   1.031  0.2182 -1.8804  0.1844
43134SOL    HW234341  10.507   9.584   1.131 -2.3826 -0.9660 -0.2827
43135SOL     OW34342   1.162   4.225   1.183 -0.0651  0.1030  0.4973
43135SOL    HW134343   1.177   4.139   1.143 -1.0479 -0.0576  0.4532
43135SOL    HW234344   1.088   4.211   1.243 -0.6085  1.0349  0.0669
43136SOL     OW34345   6.093   2.638  11.079 -0.0656  1.3325  0.3205
43136SOL    HW134346   6.083   2.732  11.088 -2.2376  1.1043  0.7720
43136SOL    HW234347   6.046   2.602  11.155  2.4318 -0.1042  1.3226
43137SOL     OW34348   8.942   1.109   1.151  0.1964 -0.1419  0.1731
43137SOL    HW134349   9.028   1.151   1.157 -0.1132  0.4932  0.1195
43137SOL    HW234350   8.927   1.099   1.057  0.2242 -0.2912  0.1836
43138SOL     OW34351   5.248  11.586   9.621 -0.4323  0.5093  0.1085
43138SOL    HW134352   5.254  11.556   9.712  1.2073  2.0520  0.5824
43138SOL    HW234353   5.203  11.670   9.626  0.5615  1.0862 -0.3561
43139SOL     OW34354   0.322   4.666   2.428 -0.1161  1.1049  0.4623
43139SOL    HW134355   0.285   4.587   2.466  0.6789  0.7013  0.4163
43139SOL    HW234356   0.260   4.691   2.360  0.2457 -0.2264 -0.4090
43140SOL     OW34357   4.464   0.878   0.537 -0.3706 -0.0617 -0.4763
43140SOL    HW134358   4.532   0.871   0.470 -0.2114  0.4786 -0.3708
43140SOL    HW234359   4.383   0.892   0.489 -0.1750  0.9011 -0.5360
43141SOL     OW34360   0.267   5.983   7.299 -0.1732 -0.1958 -0.1780
43141SOL    HW134361   0.258   6.063   7.248 -1.0557  0.8984  1.6072
43141SOL    HW234362   0.198   5.989   7.366 -0.0287 -2.2756  0.2248
43142SOL     OW34363   7.083   0.129   9.527 -0.0202  0.1703  0.1169
43142SOL    HW134364   7.135   0.052   9.550 -2.1054 -1.5375 -0.4609
43142SOL    HW234365   7.007   0.125   9.585 -0.2059  1.7672  0.0158
43143SOL     OW34366  11.203   7.380   4.382 -0.0025 -0.4937 -0.4956
43143SOL    HW134367  11.147   7.303   4.391  0.1578 -0.6465 -0.8002
43143SOL    HW234368  11.284   7.357   4.428 -0.2428 -0.2124  0.0838
43144SOL     OW34369   8.019   9.500   8.972 -0.2945  0.2097 -0.4084
43144SOL    HW134370   8.085   9.484   8.904 -0.2589 -2.9343  0.2071
43144SOL    HW234371   7.935   9.483   8.929 -0.2360 -2.5211  0.3710
43145SOL     OW34372  10.264  10.445   3.829  0.7447 -0.1011  0.1471
43145SOL    HW134373  10.179  10.424   3.869 -0.2550 -0.7605 -2.1281
43145SOL    HW234374  10.305  10.505   3.890 -1.1938 -0.0927  1.5407
43146SOL     OW34375   9.770   6.701   4.425 -0.4118 -0.0231 -0.0816
43146SOL    HW134376   9.762   6.611   4.393 -0.5577 -0.9394  2.3304
43146SOL    HW234377   9.814   6.747   4.354  0.5717 -2.2237 -1.0216
43147SOL     OW34378  10.606   2.810   6.654  0.7282  0.3750  0.7803
43147SOL    HW134379  10.633   2.740   6.713 -1.8857 -0.6084  0.9676
43147SOL    HW234380  10.600   2.887   6.710 -1.7252 -0.5507  1.9535
43148SOL     OW34381   1.819   5.379   5.798  0.1865 -0.0482 -0.1693
43148SOL    HW134382   1.734   5.343   5.824 -0.1084  0.0721 -0.9478
43148SOL    HW234383   1.829   5.353   5.706  0.7702  0.3585 -0.2257
43149SOL     OW34384   0.013  10.363   8.057  0.0220 -0.0808 -0.3840
43149SOL    HW134385   0.001  10.307   8.133 -0.6209  0.5861  0.0211
43149SOL    HW234386   0.091  10.328   8.013 -0.3561 -1.2681 -0.1461
43150SOL     OW34387   5.272  10.768   4.277  0.4601 -0.2758  0.0385
43150SOL    HW134388   5.196  10.734   4.230 -0.3667 -0.0841  1.2098
43150SOL    HW234389   5.289  10.854   4.237  0.4450 -0.5674 -0.6167
43151SOL     OW34390   5.552   4.237   3.665 -0.3699  0.1309  0.2693
43151SOL    HW134391   5.538   4.301   3.735  1.3400 -1.4285  2.1537
43151SOL    HW234392   5.464   4.202   3.648 -1.2851  2.5762 -0.5338
43152SOL     OW34393   3.580   9.147   8.527  0.2225 -0.6846 -0.1059
43152SOL    HW134394   3.560   9.077   8.589 -0.9707  0.2859  0.6684
43152SOL    HW234395   3.496   9.167   8.486  0.2078  1.2322  0.7498
43153SOL     OW34396   4.127   4.549   7.283 -0.0215  0.0628 -0.0377
43153SOL    HW134397   4.112   4.481   7.349  0.6878  0.0277  0.0953
43153SOL    HW234398   4.039   4.575   7.255 -0.3181 -1.4107 -0.6136
43154SOL     OW34399   6.450   5.742   1.036  0.2535  0.4880 -0.1132
43154SOL    HW134400   6.480   5.817   1.088  0.6429  0.2935 -0.0533
43154SOL    HW234401   6.515   5.674   1.053 -1.2144 -0.5808  1.4969
43155SOL     OW34402   8.743   2.034  11.638 -0.1402 -0.4258  0.3583
43155SOL    HW134403   8.763   2.113  11.689 -2.7258  1.5192 -1.3552
43155SOL    HW234404   8.794   2.045  11.557  1.7731 -2.0919  1.2572
43156SOL     OW34405   8.986   7.370   4.112 -0.1804  0.2191  0.1654
43156SOL    HW134406   8.955   7.280   4.121 -0.7088  0.3134 -0.5840
43156SOL    HW234407   9.077   7.361   4.083 -0.3599 -0.0826 -0.3194
43157SOL     OW34408   4.773   8.911   3.746  0.4517  0.2250  0.5039
43157SOL    HW134409   4.828   8.987   3.763  1.7371 -0.8837  1.5422
43157SOL    HW234410   4.824   8.837   3.778 -0.7660 -1.0855 -0.4451
43158SOL     OW34411  10.631   8.961  11.201 -0.7927  0.3998 -0.0231
43158SOL    HW134412  10.687   8.942  11.126 -0.0001  1.4593  0.2671
43158SOL    HW234413  10.543   8.962  11.165 -0.5025  0.0680 -0.7701
43159SOL     OW34414   7.283   5.617   9.316 -0.2413 -0.1682 -0.8170
43159SOL    HW134415   7.314   5.566   9.391  0.9417 -0.1257 -1.2608
43159SOL    HW234416   7.311   5.567   9.239 -2.2211 -0.6823 -1.2708
43160SOL     OW34417   8.536   4.032   6.020  0.1441 -0.2442 -0.5921
43160SOL    HW134418   8.497   4.066   6.101 -0.9118 -0.1492 -1.1267
43160SOL    HW234419   8.592   3.960   6.049  0.3423  0.2474  0.2906
43161SOL     OW34420   5.710   8.872  11.614  0.1129 -0.3905  0.0838
43161SOL    HW134421   5.776   8.804  11.627  0.1444 -0.5377 -0.7760
43161SOL    HW234422   5.634   8.842  11.665 -0.4536 -1.9236 -1.5747
43162SOL     OW34423   8.322   2.470  11.122  0.3613 -0.1986  0.1696
43162SOL    HW134424   8.267   2.392  11.111 -0.2914  0.3955 -0.9712
43162SOL    HW234425   8.331   2.479  11.217  0.1837 -1.4763  0.3300
43163SOL     OW34426   7.249   9.206  11.499  0.2639 -0.5780  0.2264
43163SOL    HW134427   7.196   9.213  11.419  0.8629 -0.5136 -0.1702
43163SOL    HW234428   7.293   9.291  11.506  0.3005 -0.6237  0.5690
43164SOL     OW34429   6.350   0.231   0.571 -0.3918  0.1267  0.7347
43164SOL    HW134430   6.313   0.173   0.638 -0.2533  0.0251  0.7258
43164SOL    HW234431   6.275   0.272   0.530 -0.4555  0.7673  1.4643
43165SOL     OW34432  10.644   7.853   7.538 -0.1637  0.3239  0.5610
43165SOL    HW134433  10.650   7.781   7.601  2.8252  0.4666  0.5873
43165SOL    HW234434  10.681   7.817   7.457 -1.0660  1.0704 -0.1994
43166SOL     OW34435   5.555   2.171   6.283 -0.8108  0.1453 -0.1465
43166SOL    HW134436   5.528   2.086   6.247  0.3780 -0.3195  0.0327
43166SOL    HW234437   5.535   2.164   6.377  2.0387 -1.1355  0.4650
43167SOL     OW34438   7.541   2.135  11.077  0.2412  0.7588 -0.4220
43167SOL    HW134439   7.464   2.171  11.121  0.2684 -1.3398  1.4892
43167SOL    HW234440   7.530   2.160  10.985 -1.2105  2.9712  0.2621
43168SOL     OW34441   8.866   8.776  10.443  0.5389  0.2101 -0.1963
43168SOL    HW134442   8.794   8.746  10.387 -1.6426  2.5594  1.1106
43168SOL    HW234443   8.904   8.849  10.394  2.2121 -1.0737 -0.9201
43169SOL     OW34444   6.849   6.216   3.639  0.7315  0.3347  0.2077
43169SOL    HW134445   6.909   6.240   3.710 -0.3433 -0.7463  1.5351
43169SOL    HW234446   6.820   6.300   3.603  1.9766  0.8884  0.4420
43170SOL     OW34447   1.601   9.852   9.506  0.0205  0.8088  0.1022
43170SOL    HW134448   1.588   9.796   9.430 -1.0515  0.0831  0.7917
43170SOL    HW234449   1.696   9.859   9.515  0.1637 -0.0574 -0.6002
43171SOL     OW34450   5.831   2.385   3.524 -0.0409 -0.0224 -0.0993
43171SOL    HW134451   5.903   2.356   3.467 -0.2891  0.3833 -0.6338
43171SOL    HW234452   5.869   2.457   3.574  0.5173 -1.1025  1.0873
43172SOL     OW34453  11.123   2.341   7.370  0.4624  0.0713 -0.0756
43172SOL    HW134454  11.098   2.249   7.363  0.3842  0.2048 -2.3855
43172SOL    HW234455  11.216   2.343   7.346  0.1014  0.7232 -1.5548
43173SOL     OW34456   3.899   2.408   8.807  0.5907  0.2887 -0.4475
43173SOL    HW134457   3.991   2.425   8.829  0.1191 -0.7621  2.8926
43173SOL    HW234458   3.894   2.312   8.801 -0.3903  0.3115 -0.0199
43174SOL     OW34459   1.879   0.506   4.249 -0.4503  0.4271  0.2024
43174SOL    HW134460   1.889   0.580   4.190 -0.5057  0.0106 -0.3299
43174SOL    HW234461   1.968   0.474   4.264 -0.2508  1.5562  1.6833
43175SOL     OW34462   7.675   6.055  11.408  0.0476 -0.7293  0.5566
43175SOL    HW134463   7.770   6.057  11.414 -0.0042 -0.3537  1.3464
43175SOL    HW234464   7.647   6.139  11.442 -0.4729  0.2977 -2.1568
43176SOL     OW34465   1.492   0.447   8.840 -0.6014 -0.3258  0.3231
43176SOL    HW134466   1.430   0.489   8.899  0.0036  0.3227  0.5092
43176SOL    HW234467   1.506   0.510   8.770 -1.0732 -0.9621 -0.3650
43177SOL     OW34468   3.137   5.401   8.391 -0.0062 -0.1413  0.7921
43177SOL    HW134469   3.221   5.376   8.353 -1.1577 -1.7234 -0.9168
43177SOL    HW234470   3.083   5.427   8.316 -1.7968 -1.5875  1.4788
43178SOL     OW34471   0.460   5.065   7.397  0.4328 -0.0397 -0.1523
43178SOL    HW134472   0.411   5.138   7.434  1.3961  0.8896 -0.6563
43178SOL    HW234473   0.400   4.991   7.402  0.0948  0.3018  2.1525
43179SOL     OW34474   1.987   1.477   6.989  0.1583 -0.2662 -0.3735
43179SOL    HW134475   1.914   1.493   6.929  0.1915 -0.0217 -0.3518
43179SOL    HW234476   2.057   1.534   6.957  0.7880 -1.4588 -1.1810
43180SOL     OW34477   7.633   3.089   5.139  0.3467 -0.2880 -0.5173
43180SOL    HW134478   7.728   3.087   5.151  0.2713  0.6046  0.3598
43180SOL    HW234479   7.609   2.999   5.117  0.9836 -1.3057  2.5308
43181SOL     OW34480   1.850   1.091   6.951 -0.3614  0.1651 -0.5471
43181SOL    HW134481   1.790   1.158   6.985  0.2849  1.1771 -1.3477
43181SOL    HW234482   1.860   1.112   6.858  1.0198 -0.1255 -0.4925
43182SOL     OW34483   5.662  11.463   1.738  0.6983  0.3771  0.7279
43182SOL    HW134484   5.722  11.535   1.716  1.4171 -0.2786  0.4822
43182SOL    HW234485   5.653  11.414   1.656  0.6361 -0.1193  1.0285
43183SOL     OW34486   8.604   8.891   0.968  0.2091 -0.5151 -0.0828
43183SOL    HW134487   8.527   8.899   0.913  0.2886 -0.0951 -0.1345
43183SOL    HW234488   8.636   8.802   0.954 -1.5988 -1.5200  1.6797
43184SOL     OW34489   6.950   2.705  11.458  0.4361  0.4897 -0.1355
43184SOL    HW134490   7.034   2.745  11.433  0.8749 -0.1019  0.3712
43184SOL    HW234491   6.973   2.618  11.490 -0.3872  0.2862 -0.0703
43185SOL     OW34492   2.352   0.760   3.941  0.6840 -0.2474  0.3800
43185SOL    HW134493   2.315   0.843   3.912 -1.4518 -0.9391  1.0074
43185SOL    HW234494   2.445   0.779   3.953  0.4642  1.7323 -0.5844
43186SOL     OW34495   3.804   6.166   9.262  0.2367 -0.1400  0.3953
43186SOL    HW134496   3.890   6.202   9.240 -0.4689  2.1470  1.1033
43186SOL    HW234497   3.746   6.197   9.192  0.1026 -2.4366 -0.5827
43187SOL     OW34498   3.094  11.146   0.501 -0.3986  0.4418  0.1536
43187SOL    HW134499   3.065  11.236   0.487 -0.2287  0.4003 -0.4543
43187SOL    HW234500   3.127  11.117   0.416 -0.3209 -0.1482  0.3802
43188SOL     OW34501   4.531   3.275   1.305  0.3066  0.8277  0.1574
43188SOL    HW134502   4.565   3.205   1.360  1.2781  0.3560 -0.9734
43188SOL    HW234503   4.572   3.355   1.339  2.0440  0.3631 -0.6915
43189SOL     OW34504   8.930  10.118   9.346 -0.0770  0.8142 -0.2606
43189SOL    HW134505   9.023  10.098   9.335 -0.5521 -2.0775  0.1783
43189SOL    HW234506   8.896  10.122   9.257  0.0776 -0.3343 -0.3801
43190SOL     OW34507   6.270   4.771  11.492  0.2329  0.1088 -0.0270
43190SOL    HW134508   6.287   4.852  11.540 -2.4401  0.9324 -0.3284
43190SOL    HW234509   6.193   4.734  11.533  1.4845 -2.4426  0.1968
43191SOL     OW34510   9.039   0.624   7.299 -0.2271 -0.2703 -0.2618
43191SOL    HW134511   9.023   0.631   7.205 -0.1298 -0.6816 -0.3109
43191SOL    HW234512   9.036   0.530   7.317 -1.2916 -0.1378  0.3342
43192SOL     OW34513   1.445   3.402   3.532  0.2926 -0.5961  0.0348
43192SOL    HW134514   1.386   3.475   3.549 -0.2612 -0.6330 -1.5733
43192SOL    HW234515   1.472   3.373   3.619  0.8436  1.7382  0.7025
43193SOL     OW34516   8.870  11.559   5.743  0.3550  0.2817 -0.0413
43193SOL    HW134517   8.820  11.496   5.795 -0.1043  0.5042 -0.2070
43193SOL    HW234518   8.884  11.633   5.801  0.1045  0.4048 -0.1384
43194SOL     OW34519   1.626   1.638  11.662  0.2865 -0.5335  0.0135
43194SOL    HW134520   1.592   1.587  11.588  0.6368 -1.5593  0.5410
43194SOL    HW234521   1.565   1.620  11.734  0.3372 -0.0913  0.1715
43195SOL     OW34522   0.117  10.806   2.334 -0.2405 -0.0932  0.1258
43195SOL    HW134523   0.123  10.775   2.243 -1.1951 -0.3941  0.1517
43195SOL    HW234524   0.079  10.893   2.327  0.3904  0.1931  0.1966
43196SOL     OW34525   4.919   8.105   4.847  0.1924  0.2712  0.1194
43196SOL    HW134526   5.012   8.128   4.848  0.3339 -0.2799  0.7289
43196SOL    HW234527   4.908   8.050   4.925 -0.5948  0.1510 -0.0746
43197SOL     OW34528  10.946   6.999   7.540 -0.4263 -0.2290  0.2239
43197SOL    HW134529  11.014   7.058   7.507 -1.6133  0.3433 -1.2994
43197SOL    HW234530  10.910   7.044   7.617  0.7254 -0.4323  0.9065
43198SOL     OW34531   3.158  11.262   3.639 -0.3956  0.4012  0.5223
43198SOL    HW134532   3.173  11.191   3.576 -1.0578 -0.5571  1.4291
43198SOL    HW234533   3.245  11.279   3.676  0.1371  1.4249 -1.0714
43199SOL     OW34534   5.633  10.574   0.068  0.0450  0.4815 -0.0777
43199SOL    HW134535   5.723  10.568   0.100 -0.1758 -0.7829  0.3778
43199SOL    HW234536   5.606  10.483   0.055 -1.0316  0.8570 -0.6105
43200SOL     OW34537  11.188   9.337   2.452 -0.0417  0.0096  0.1048
43200SOL    HW134538  11.263   9.334   2.392 -1.0035 -0.1392 -1.1419
43200SOL    HW234539  11.187   9.427   2.485  0.8735 -0.0788  0.4006
43201SOL     OW34540   2.691   1.848   0.850  0.0078 -0.5687 -0.1220
43201SOL    HW134541   2.656   1.765   0.818 -0.5925 -0.9169  1.3708
43201SOL    HW234542   2.616   1.906   0.853  0.0598 -0.5319  0.5922
43202SOL     OW34543   9.502   8.711   4.444  0.1626 -0.0376  0.2692
43202SOL    HW134544   9.513   8.711   4.349 -2.1810 -0.2155 -0.0607
43202SOL    HW234545   9.590   8.697   4.479  1.1973  0.8414 -1.8394
43203SOL     OW34546   6.030   5.263   5.574 -0.1039 -0.6607 -0.3068
43203SOL    HW134547   6.027   5.203   5.500 -2.2720  0.7760 -1.4552
43203SOL    HW234548   6.027   5.206   5.651  1.2337 -2.1199 -1.2709
43204SOL     OW34549   7.578  11.093  11.310 -0.2113  0.7021  0.4147
43204SOL    HW134550   7.511  11.154  11.278  0.6399  0.4747 -2.0226
43204SOL    HW234551   7.554  11.009  11.271 -0.9316 -0.4499  3.1038
43205SOL     OW34552   2.737   6.415   1.975 -0.1648  0.1504 -0.4148
43205SOL    HW134553   2.687   6.446   2.051 -3.1306 -3.0022 -0.8312
43205SOL    HW234554   2.808   6.364   2.014 -1.0587 -0.5870  0.3290
43206SOL     OW34555   0.013   9.214   2.505 -0.0297 -0.1855 -0.3006
43206SOL    HW134556  -0.021   9.169   2.428  0.0486  1.7272 -1.5403
43206SOL    HW234557   0.092   9.258   2.474 -0.1266  0.8207  0.8028
43207SOL     OW34558   8.846   1.739   3.477  0.0429  0.1850 -0.2832
43207SOL    HW134559   8.773   1.760   3.535  0.2513 -1.6841  0.7309
43207SOL    HW234560   8.864   1.821   3.430 -1.0653  1.3599  1.2432
43208SOL     OW34561   0.481   1.527   3.242  0.4590 -0.1412  0.1265
43208SOL    HW134562   0.405   1.520   3.299  1.9053 -0.7294  2.1166
43208SOL    HW234563   0.482   1.444   3.193  0.1744 -0.3938  0.5439
43209SOL     OW34564   6.944   2.395   1.874  0.0017 -0.0034  0.4574
43209SOL    HW134565   6.877   2.351   1.822 -1.5918  1.8019  0.8810
43209SOL    HW234566   6.976   2.327   1.934 -0.4064 -1.2698 -0.7156
43210SOL     OW34567   2.206   9.750   1.373  0.2912  0.2506  0.2150
43210SOL    HW134568   2.208   9.822   1.435  2.0689  0.2883  0.1666
43210SOL    HW234569   2.236   9.788   1.291 -2.0229  0.2007 -0.7280
43211SOL     OW34570   7.667   8.171   3.007  0.2946 -0.7522  0.0606
43211SOL    HW134571   7.595   8.122   3.047 -0.2607 -0.3264 -0.4037
43211SOL    HW234572   7.630   8.208   2.928  1.2957 -1.2977 -0.6853
43212SOL     OW34573   8.157   7.607   2.666 -0.0783 -0.4776 -0.0558
43212SOL    HW134574   8.237   7.658   2.668 -0.7898  0.7319 -1.1456
43212SOL    HW234575   8.187   7.516   2.667  1.3211 -0.0562 -0.7600
43213SOL     OW34576   1.261   7.831   8.731 -0.4686 -0.1720 -0.1727
43213SOL    HW134577   1.337   7.797   8.683 -0.7562  0.2235 -0.9258
43213SOL    HW234578   1.211   7.753   8.755  0.1729 -0.4380  0.3432
43214SOL     OW34579   4.936   7.926   3.750 -0.3150  0.1417 -0.1556
43214SOL    HW134580   4.991   7.995   3.787 -0.6656  0.3346  0.0111
43214SOL    HW234581   4.997   7.858   3.722  0.0611  0.7133 -0.7377
43215SOL     OW34582   2.247   2.352   0.557  1.1599 -0.0920  0.0617
43215SOL    HW134583   2.316   2.392   0.505  0.6336  0.9361  0.1293
43215SOL    HW234584   2.179   2.419   0.562  0.4828 -0.8054  0.6376
43216SOL     OW34585   4.648   6.373   1.570 -0.4269 -0.1417 -0.1896
43216SOL    HW134586   4.691   6.374   1.656  3.0166  0.1194 -1.7478
43216SOL    HW234587   4.569   6.425   1.583 -0.2719 -0.4801  2.9093
43217SOL     OW34588   4.768   4.545   5.124 -0.1424 -0.2653 -0.5276
43217SOL    HW134589   4.752   4.632   5.161 -1.4113  0.0187 -1.6768
43217SOL    HW234590   4.705   4.488   5.169  0.9361 -0.7073  0.4961
43218SOL     OW34591   5.016   8.079   1.364  0.5008  0.4235  0.2828
43218SOL    HW134592   5.020   8.063   1.458  0.8059  0.2473  0.2395
43218SOL    HW234593   4.972   8.163   1.356  1.4935  0.9858  0.6291
43219SOL     OW34594   1.018   5.646   7.328  0.4407 -0.2996  0.3694
43219SOL    HW134595   1.075   5.608   7.261  0.6997 -0.0040  0.4250
43219SOL    HW234596   1.068   5.639   7.409  0.9874  1.2687  0.1840
43220SOL     OW34597   7.042   9.408  10.269 -0.0388  0.3363 -0.4950
43220SOL    HW134598   6.963   9.364  10.300 -0.1924  0.9192 -0.0496
43220SOL    HW234599   7.017   9.500  10.260  0.7099  0.6138  0.1122
43221SOL     OW34600   3.158   2.936   9.745  0.0645 -0.1464  0.5696
43221SOL    HW134601   3.171   3.017   9.697  0.1606 -1.3715 -1.5848
43221SOL    HW234602   3.080   2.953   9.799  0.5946  1.6275  0.8424
43222SOL     OW34603   1.552   3.818   3.712  0.3049 -0.2813 -0.2240
43222SOL    HW134604   1.616   3.866   3.764 -0.7532  0.4761  0.4100
43222SOL    HW234605   1.525   3.879   3.644  2.9026 -1.7751 -2.8550
43223SOL     OW34606   5.546   4.048   7.427 -0.3694 -0.1767  0.1279
43223SOL    HW134607   5.588   3.964   7.411  0.3177  0.0040  0.9268
43223SOL    HW234608   5.609   4.097   7.479 -1.6741 -0.0011  1.6028
43224SOL     OW34609   4.567   0.940   8.125 -0.2291  0.4803 -0.5367
43224SOL    HW134610   4.512   0.956   8.049  0.2982  0.8789 -0.8417
43224SOL    HW234611   4.656   0.950   8.093 -0.0079  2.6861  0.5519
43225SOL     OW34612   2.258   3.765  11.163 -0.3782 -0.4788 -0.0653
43225SOL    HW134613   2.214   3.822  11.226 -0.3675 -1.2340  0.6519
43225SOL    HW234614   2.187   3.720  11.117 -0.3830 -0.3429 -0.1882
43226SOL     OW34615   6.569  10.446   0.127 -0.4190 -0.1815  0.1185
43226SOL    HW134616   6.605  10.364   0.161 -1.0961 -0.4249  0.2662
43226SOL    HW234617   6.612  10.515   0.177  0.2803 -0.4334 -0.1218
43227SOL     OW34618   0.317  11.345  10.876  0.0963 -0.4971  0.5718
43227SOL    HW134619   0.338  11.389  10.794  0.3174 -0.7417  0.4984
43227SOL    HW234620   0.247  11.283  10.853  1.1143 -1.5742  0.2686
43228SOL     OW34621  11.351   4.504  10.633  0.5762  0.6711  0.0252
43228SOL    HW134622  11.280   4.549  10.587  0.5553  0.8541  0.2307
43228SOL    HW234623  11.354   4.546  10.719  0.1581 -0.1247  0.4443
43229SOL     OW34624   3.409   8.720   3.190 -0.2209  0.3976  0.3979
43229SOL    HW134625   3.396   8.777   3.267  0.7875 -0.3238  1.1330
43229SOL    HW234626   3.474   8.656   3.219 -0.5959 -0.5234 -0.7423
43230SOL     OW34627   9.436   3.390   4.213  0.0777  0.2977  0.1570
43230SOL    HW134628   9.370   3.416   4.277 -0.4313 -0.6277  0.0178
43230SOL    HW234629   9.481   3.472   4.191 -0.8602  0.9086  0.4347
43231SOL     OW34630  10.149   4.297   8.424 -0.0237  0.1769 -0.0796
43231SOL    HW134631  10.219   4.344   8.378 -0.4048 -0.6303 -1.5655
43231SOL    HW234632  10.089   4.366   8.453  0.3454  0.7399 -0.6314
43232SOL     OW34633   7.771   1.432   4.985  0.0210  0.3757 -0.0205
43232SOL    HW134634   7.842   1.382   5.025 -0.2827  0.9036  1.2455
43232SOL    HW234635   7.812   1.479   4.912  0.5323 -0.8454 -0.5341
43233SOL     OW34636  10.170  11.036   7.989  0.4798 -0.1979  0.4202
43233SOL    HW134637  10.155  11.093   8.064  2.1680 -1.2344  1.5865
43233SOL    HW234638  10.082  11.020   7.954 -0.1898  1.7304  1.0491
43234SOL     OW34639   9.266   7.533  10.494  0.1907 -0.3438  0.2612
43234SOL    HW134640   9.206   7.538  10.419  0.8046 -1.7990 -0.3554
43234SOL    HW234641   9.216   7.488  10.562  0.3896 -1.0268 -0.0471
43235SOL     OW34642   1.787  10.246   9.165  0.1310  0.6592 -0.5952
43235SOL    HW134643   1.880  10.228   9.178  0.0511  0.9498  0.4973
43235SOL    HW234644   1.782  10.287   9.078  0.6139 -2.1600 -2.0667
43236SOL     OW34645  10.371   8.812   5.943 -0.0680 -0.7174  0.2936
43236SOL    HW134646  10.408   8.739   5.993  1.4181 -0.7351 -0.7756
43236SOL    HW234647  10.437   8.832   5.877 -1.7372 -0.3511 -1.3588
43237SOL     OW34648   2.706   2.929   2.912 -0.0309  0.0536 -0.0012
43237SOL    HW134649   2.741   3.007   2.956 -2.7070  0.4188  1.7222
43237SOL    HW234650   2.756   2.856   2.950  0.4941  0.6912  0.5747
43238SOL     OW34651   4.862   2.330  10.290 -0.4601 -0.3219  0.1781
43238SOL    HW134652   4.848   2.241  10.260 -0.0511 -0.1014 -0.6977
43238SOL    HW234653   4.939   2.324  10.347  0.6913 -0.2717 -1.2934
43239SOL     OW34654  11.592   4.160   4.248 -0.2575  0.2137 -0.3117
43239SOL    HW134655  11.580   4.128   4.338  0.0902  0.1149 -0.2990
43239SOL    HW234656  11.594   4.080   4.195  0.2517  0.2312 -0.3226
43240SOL     OW34657   1.180   2.847   4.362  0.4720  0.5995 -0.0195
43240SOL    HW134658   1.106   2.796   4.329 -2.5151  3.1915  2.0021
43240SOL    HW234659   1.177   2.929   4.312  1.1747  1.2496  0.9544
43241SOL     OW34660   1.603   9.005   6.078 -0.1528 -0.3086 -0.6139
43241SOL    HW134661   1.614   8.965   6.164  1.9596 -0.5944 -0.9788
43241SOL    HW234662   1.573   8.934   6.022  2.0085 -1.0549 -0.8963
43242SOL     OW34663   4.522   9.498   5.961  0.1935  0.5167 -0.8170
43242SOL    HW134664   4.554   9.561   6.025 -2.9958  0.1241  1.3645
43242SOL    HW234665   4.509   9.550   5.881  1.2532  1.6981 -0.2623
43243SOL     OW34666  10.537   5.039  10.324 -0.2755 -0.5400 -0.0412
43243SOL    HW134667  10.513   4.981  10.251 -1.8092 -1.6495  1.2782
43243SOL    HW234668  10.463   5.033  10.384  1.2432 -0.1898  1.9380
43244SOL     OW34669   1.775   3.469  10.161 -0.2793  0.2308  0.4096
43244SOL    HW134670   1.844   3.448  10.224  0.8039 -0.2535 -0.8914
43244SOL    HW234671   1.807   3.435  10.078 -2.3247 -0.4565 -0.1550
43245SOL     OW34672   5.807   1.825   2.197  0.2304 -0.5027  0.2955
43245SOL    HW134673   5.869   1.892   2.168  0.4344  0.1275  2.0816
43245SOL    HW234674   5.752   1.809   2.121  1.2277  0.4823 -0.6725
43246SOL     OW34675   3.696   1.553  11.144  0.1464 -0.7561  1.2919
43246SOL    HW134676   3.656   1.548  11.058  1.5495  2.0786  0.3472
43246SOL    HW234677   3.631   1.515  11.204 -0.7790 -2.9730 -0.9529
43247SOL     OW34678   0.137   2.891   4.870  0.2581  0.5425 -0.0777
43247SOL    HW134679   0.175   2.962   4.921  3.5115 -1.1053  0.0268
43247SOL    HW234680   0.164   2.908   4.780 -0.4784  0.3361 -0.3537
43248SOL     OW34681   7.929   8.934   7.646  0.1871 -0.5038 -0.1643
43248SOL    HW134682   7.994   8.930   7.576 -1.8536 -0.4661 -2.1907
43248SOL    HW234683   7.883   8.850   7.641 -0.2867 -0.3194  0.8415
43249SOL     OW34684   5.306   8.088   9.821 -0.3545 -0.1611  0.0749
43249SOL    HW134685   5.371   8.060   9.885  0.6839  1.0637 -0.3842
43249SOL    HW234686   5.348   8.074   9.736 -1.4709 -1.1765 -0.3407
43250SOL     OW34687   1.095   9.093   0.354 -0.0766  0.2307 -0.1771
43250SOL    HW134688   1.138   9.165   0.307  0.6131  0.0958  0.2443
43250SOL    HW234689   1.110   9.017   0.298 -1.4129  0.5155 -0.9834
43251SOL     OW34690   8.436   1.627   2.218 -0.1440  0.1242  0.0917
43251SOL    HW134691   8.498   1.555   2.231  1.6920  1.9473  2.5001
43251SOL    HW234692   8.477   1.681   2.151 -0.0065  0.4089  0.4011
43252SOL     OW34693   8.140   6.169   2.146 -0.0829 -0.3834 -0.4772
43252SOL    HW134694   8.105   6.119   2.220  0.0186  0.1605 -0.0464
43252SOL    HW234695   8.072   6.234   2.127 -0.9720 -1.7438 -2.1524
43253SOL     OW34696   5.728   5.631   8.941 -0.1211  0.2814  0.0849
43253SOL    HW134697   5.763   5.712   8.905  0.4710  0.8998  1.9300
43253SOL    HW234698   5.787   5.563   8.909 -2.2937  0.0333 -3.9445
43254SOL     OW34699   9.335   5.290   1.436  0.0226  0.5136  0.1602
43254SOL    HW134700   9.269   5.309   1.369 -1.0718 -0.3188  0.9670
43254SOL    HW234701   9.393   5.226   1.394  0.3104  1.2135 -0.5351
43255SOL     OW34702   2.227   9.420  10.264  0.3649  0.5788 -0.5390
43255SOL    HW134703   2.283   9.348  10.235 -0.0036  0.1129 -0.1185
43255SOL    HW234704   2.164   9.378  10.323  0.3202  1.2935 -0.0707
43256SOL     OW34705   8.793   7.697   0.120 -0.3067 -0.3702  0.3056
43256SOL    HW134706   8.848   7.656   0.187  0.6272  1.4970  0.7421
43256SOL    HW234707   8.855   7.733   0.056 -1.1290 -0.5079 -0.5962
43257SOL     OW34708   1.136  10.099   9.661  0.1030 -0.3162 -0.2690
43257SOL    HW134709   1.217  10.145   9.684 -1.0501  1.1316  1.1377
43257SOL    HW234710   1.087  10.094   9.744 -0.7071 -2.3105 -0.8126
43258SOL     OW34711   5.885   6.383   7.587  0.3066 -0.1301  0.7726
43258SOL    HW134712   5.881   6.374   7.492  0.8229  0.0044  0.7354
43258SOL    HW234713   5.956   6.446   7.602 -0.9860  1.2958  1.1683
43259SOL     OW34714   4.838   3.539   5.432  0.2126 -0.4927  0.0585
43259SOL    HW134715   4.789   3.458   5.446 -0.2059 -0.6359 -1.9112
43259SOL    HW234716   4.898   3.519   5.360 -1.3278  1.4418 -1.9217
43260SOL     OW34717   9.242   1.232   3.714 -0.0250 -0.0443 -0.1267
43260SOL    HW134718   9.218   1.146   3.749 -0.9740 -0.2443 -1.1802
43260SOL    HW234719   9.216   1.227   3.622 -3.2435  2.4907  0.4804
43261SOL     OW34720   5.932   9.175   1.909 -0.2348 -0.0071  0.1940
43261SOL    HW134721   5.938   9.080   1.900  1.1327  0.1538 -0.8478
43261SOL    HW234722   5.890   9.204   1.828  0.2859  0.3565  0.0511
43262SOL     OW34723   6.847   8.743   8.501  0.0953 -0.0943 -0.4373
43262SOL    HW134724   6.807   8.783   8.579  0.8784  0.4520 -0.2992
43262SOL    HW234725   6.914   8.806   8.475 -0.9980  0.3533 -2.3269
43263SOL     OW34726   0.580   7.118   9.809 -0.5362 -0.0738  0.1577
43263SOL    HW134727   0.606   7.032   9.842 -0.3143  0.0849  0.4054
43263SOL    HW234728   0.605   7.117   9.717  1.9230  0.6702  0.7541
43264SOL     OW34729   8.005   5.112   5.346 -0.3774 -0.0018 -0.8257
43264SOL    HW134730   7.966   5.151   5.425  1.3879  1.3535 -0.5650
43264SOL    HW234731   8.012   5.019   5.366  0.1535  0.3421  0.6831
43265SOL     OW34732   7.814   8.369   4.048 -0.0283  0.2345  0.2175
43265SOL    HW134733   7.757   8.393   3.975  0.0353 -1.1728 -0.3120
43265SOL    HW234734   7.831   8.452   4.093 -1.3082  0.8919 -0.4623
43266SOL     OW34735   0.792   6.971  11.267  0.0657 -0.3371  0.2212
43266SOL    HW134736   0.782   6.984  11.173  1.3124 -2.0518 -0.1987
43266SOL    HW234737   0.717   7.015  11.306 -1.0981 -0.5803 -1.6476
43267SOL     OW34738   7.532   2.362   5.850  0.2277  0.4584 -0.3688
43267SOL    HW134739   7.472   2.411   5.794  0.5518  1.0893 -0.1675
43267SOL    HW234740   7.600   2.424   5.873 -0.0188  0.2875  0.9130
43268SOL     OW34741   7.356  10.727   7.368 -0.1470 -0.5709  0.0303
43268SOL    HW134742   7.403  10.766   7.441 -1.0286  0.7068 -0.0513
43268SOL    HW234743   7.331  10.640   7.399  0.5491 -0.5139  0.7774
43269SOL     OW34744   9.909  11.478   3.888 -0.0246 -0.1875 -0.4511
43269SOL    HW134745   9.830  11.504   3.935 -0.7100 -0.4848 -1.4123
43269SOL    HW234746   9.974  11.545   3.912 -0.9659  0.8683 -0.7521
43270SOL     OW34747   8.915   3.103   5.943 -0.3997 -0.2351  0.3122
43270SOL    HW134748   8.930   3.074   5.854  0.3036  0.2640  0.2602
43270SOL    HW234749   8.902   3.198   5.936  0.9477  0.0122  0.8696
43271SOL     OW34750  11.561   3.599   7.109 -0.5272  0.2921 -0.0695
43271SOL    HW134751  11.492   3.633   7.166  0.3078 -0.1239  1.2472
43271SOL    HW234752  11.639   3.649   7.133  0.1710 -0.8842  0.2291
43272SOL     OW34753   4.777  11.330   3.105 -0.4165  0.0114  0.1514
43272SOL    HW134754   4.706  11.389   3.130 -0.7911 -1.1167  1.8583
43272SOL    HW234755   4.748  11.243   3.133  0.8586 -0.7593 -0.7804
43273SOL     OW34756   8.808   8.906   4.065 -0.1889 -0.2530 -0.1183
43273SOL    HW134757   8.748   8.838   4.034  0.2571 -0.9391  0.5120
43273SOL    HW234758   8.891   8.887   4.022 -0.4301  0.8035 -1.1299
43274SOL     OW34759   9.500   6.740   7.892  0.2441 -0.1698  0.4425
43274SOL    HW134760   9.437   6.675   7.922 -1.5422  1.5244  0.6114
43274SOL    HW234761   9.472   6.821   7.934  1.3432  1.0573 -1.0616
43275SOL     OW34762   4.816   0.612   8.054 -0.1930 -0.5642 -0.5415
43275SOL    HW134763   4.736   0.567   8.028 -0.1082 -1.2148  0.2777
43275SOL    HW234764   4.804   0.702   8.024 -0.7749 -0.9046 -1.3574
43276SOL     OW34765   1.993   7.359   6.594  0.7857 -0.1328 -0.9554
43276SOL    HW134766   2.075   7.336   6.638  0.8038  1.7265  0.1315
43276SOL    HW234767   1.944   7.277   6.589  0.7854 -0.5361  2.6249
43277SOL     OW34768   8.033   1.981  10.669  0.8088  0.0615  0.0093
43277SOL    HW134769   8.023   1.886  10.664  2.5127 -0.1248 -0.6131
43277SOL    HW234770   8.069   1.998  10.756  2.3306 -0.0948 -0.5578
43278SOL     OW34771   2.035   5.795   4.755  0.5852 -0.6503  0.3433
43278SOL    HW134772   2.041   5.707   4.792 -1.0921 -1.1274 -0.4214
43278SOL    HW234773   1.997   5.848   4.825  0.4041 -0.8299  0.3827
43279SOL     OW34774   5.558   6.766   7.824  0.4887 -0.4839  0.4094
43279SOL    HW134775   5.616   6.796   7.754  1.1778 -1.7737  0.3969
43279SOL    HW234776   5.602   6.689   7.860 -0.6499 -0.7936  1.1847
43280SOL     OW34777   4.531   1.111   6.470 -0.2327  0.2742  0.5735
43280SOL    HW134778   4.473   1.184   6.490 -1.0728 -0.5494  1.2208
43280SOL    HW234779   4.475   1.046   6.429  0.2944 -0.4181  0.9313
43281SOL     OW34780   2.905   1.628   3.640  0.0945  0.3416 -0.2864
43281SOL    HW134781   2.974   1.677   3.595 -0.5151  1.2196 -0.2793
43281SOL    HW234782   2.845   1.695   3.672 -1.1857 -0.4456 -0.9643
43282SOL     OW34783   7.156   8.662   6.647  0.1266 -0.0207  0.1406
43282SOL    HW134784   7.226   8.696   6.702  1.1828 -2.4905  0.4657
43282SOL    HW234785   7.077   8.708   6.676  1.1461  0.8150  1.6971
43283SOL     OW34786  11.170   5.744   7.699  0.3188 -0.0139 -0.1459
43283SOL    HW134787  11.090   5.728   7.648  1.5020 -1.5640 -1.5935
43283SOL    HW234788  11.154   5.829   7.741 -1.2504  0.7067 -2.0386
43284SOL     OW34789   3.675   2.259   9.470  0.0782 -0.0803  0.1584
43284SOL    HW134790   3.739   2.326   9.490 -0.5027  0.9357 -1.1823
43284SOL    HW234791   3.594   2.307   9.454 -0.1238 -0.9532 -1.8496
43285SOL     OW34792   6.803   7.318  11.649  0.9313 -0.2148  0.2947
43285SOL    HW134793   6.798   7.388  11.714 -0.9556  1.1056 -1.1508
43285SOL    HW234794   6.833   7.362  11.569 -1.6429 -0.6596 -1.0261
43286SOL     OW34795   8.791  11.256  10.207 -0.0208 -0.4878 -0.2204
43286SOL    HW134796   8.871  11.277  10.255 -1.1749  2.7770  0.5454
43286SOL    HW234797   8.723  11.253  10.274 -0.8441 -1.2639 -1.0586
43287SOL     OW34798  11.059   5.143   8.519 -0.2887  0.3853 -0.5046
43287SOL    HW134799  11.088   5.063   8.562 -2.2551 -0.6081 -0.9042
43287SOL    HW234800  11.057   5.209   8.588 -1.1792 -0.6002  0.4325
43288SOL     OW34801  11.270   3.882   4.363 -0.2438 -0.3746  0.3854
43288SOL    HW134802  11.313   3.797   4.349  3.4749  1.6618 -2.0396
43288SOL    HW234803  11.324   3.926   4.428 -1.1906  0.7368  0.4480
43289SOL     OW34804   9.739   6.359   7.031 -0.0736  0.0347 -0.1508
43289SOL    HW134805   9.724   6.265   7.044  0.6630 -0.1532 -0.6126
43289SOL    HW234806   9.660   6.390   6.985 -0.6082 -0.2202  0.5809
43290SOL     OW34807   5.982   2.897   1.789 -0.0161 -0.1087  0.7359
43290SOL    HW134808   5.901   2.909   1.739 -0.6293  0.8791  1.9104
43290SOL    HW234809   6.009   2.807   1.769 -0.8232 -0.1030 -0.4980
43291SOL     OW34810   6.430   5.517   4.098 -0.4820  0.4131 -0.1962
43291SOL    HW134811   6.500   5.501   4.036  0.6904 -0.5565  1.3002
43291SOL    HW234812   6.409   5.430   4.133 -0.0665  1.0674  1.7986
43292SOL     OW34813   5.341   2.613   8.390 -0.1938 -1.1541 -0.1647
43292SOL    HW134814   5.347   2.695   8.341 -0.1160 -0.0405  1.5867
43292SOL    HW234815   5.247   2.597   8.398 -0.2628 -0.4226  0.6963
43293SOL     OW34816   8.882  11.602  10.267  0.3938  0.1459 -0.7857
43293SOL    HW134817   8.873  11.548  10.346  0.6000  1.3728  0.1173
43293SOL    HW234818   8.904  11.689  10.301  0.7340  0.6388 -2.2256
43294SOL     OW34819   3.653   7.290   9.459  0.0306 -0.1871 -1.0112
43294SOL    HW134820   3.653   7.382   9.431  0.2001  0.0477 -0.2533
43294SOL    HW234821   3.713   7.247   9.398  0.1315  0.2507 -1.2277
43295SOL     OW34822   2.228   6.909   0.951 -0.0121 -0.4644 -0.9954
43295SOL    HW134823   2.272   6.951   1.024  0.0261 -1.1008 -0.6446
43295SOL    HW234824   2.283   6.833   0.930  0.1207 -0.1428 -1.8586
43296SOL     OW34825   4.574  11.148   7.598 -0.2288 -0.2948 -0.3418
43296SOL    HW134826   4.526  11.067   7.614 -0.5627  0.3422  2.5571
43296SOL    HW234827   4.665  11.120   7.586 -0.6785 -1.2171 -1.8745
43297SOL     OW34828   0.692   7.728   3.608 -0.5397 -0.6570  0.6017
43297SOL    HW134829   0.725   7.745   3.520 -3.5062 -2.8231 -1.1273
43297SOL    HW234830   0.682   7.815   3.647  1.0474  0.3596 -1.0531
43298SOL     OW34831   3.887   1.409   8.029  0.1349 -0.0645  0.3777
43298SOL    HW134832   3.964   1.368   7.990 -0.7986 -2.0142  0.4763
43298SOL    HW234833   3.922   1.473   8.090  1.6499  0.2143 -0.7409
43299SOL     OW34834   5.851   6.788   1.449  0.6085 -0.8352  0.4309
43299SOL    HW134835   5.896   6.767   1.367  2.1174  0.3624  0.9078
43299SOL    HW234836   5.811   6.873   1.434 -2.1414 -2.0873 -0.1708
43300SOL     OW34837   9.199   3.340   4.576 -0.3232  0.1142  0.1426
43300SOL    HW134838   9.138   3.286   4.626 -1.4215 -0.1415 -1.4111
43300SOL    HW234839   9.214   3.290   4.496 -0.0001  1.3232 -0.5679
43301SOL     OW34840   6.641   9.597   5.342 -0.2128 -0.2796 -0.4914
43301SOL    HW134841   6.581   9.610   5.268 -0.0661 -0.2985 -0.6138
43301SOL    HW234842   6.599   9.642   5.415  0.5279  1.3287 -1.0187
43302SOL     OW34843   1.989   5.271   1.164 -0.3080 -0.7239 -0.5829
43302SOL    HW134844   2.071   5.287   1.118  0.4777 -0.4965  0.8274
43302SOL    HW234845   1.920   5.293   1.101  0.7143 -0.5260 -1.6489
43303SOL     OW34846   9.095  11.127   4.454 -0.5020  0.4941 -0.8061
43303SOL    HW134847   9.079  11.209   4.407 -0.5652  1.5192  0.9259
43303SOL    HW234848   9.184  11.102   4.428 -0.1951  1.5123 -0.7742
43304SOL     OW34849   8.017   3.308   1.511  0.0877  0.3237 -0.1056
43304SOL    HW134850   8.009   3.265   1.596 -0.4325 -0.6319 -0.6144
43304SOL    HW234851   7.984   3.397   1.526  1.5914  0.7144  1.0748
43305SOL     OW34852   2.142   4.902   4.727  0.1821  0.1096 -0.3321
43305SOL    HW134853   2.083   4.959   4.777  0.7027  1.6006 -1.3424
43305SOL    HW234854   2.225   4.905   4.775 -0.1106 -0.7865  0.2624
43306SOL     OW34855   7.300  10.972   3.633  0.2695 -0.2660 -0.6042
43306SOL    HW134856   7.369  10.935   3.688 -1.7710 -1.9914  0.9780
43306SOL    HW234857   7.344  10.995   3.552  2.9971  0.2679  0.8950
43307SOL     OW34858   3.585   9.004   9.371 -0.3793  0.1015 -0.0438
43307SOL    HW134859   3.512   9.065   9.374 -0.8890 -0.5135  0.3752
43307SOL    HW234860   3.578   8.961   9.285 -1.1673 -0.7236  0.4120
43308SOL     OW34861   7.855   6.068  10.762  0.3617  0.4791 -0.1413
43308SOL    HW134862   7.835   6.029  10.677 -0.2813  0.1441  0.1574
43308SOL    HW234863   7.945   6.101  10.752  0.3196  0.3945 -0.9263
43309SOL     OW34864   8.144   3.224   3.912  0.0498 -0.1350  0.2121
43309SOL    HW134865   8.215   3.167   3.883  1.5834  1.3167  0.9321
43309SOL    HW234866   8.157   3.234   4.006 -0.6340  0.7859  0.2237
43310SOL     OW34867   3.002   6.384   1.036 -0.3684  0.7300 -0.1977
43310SOL    HW134868   3.092   6.401   1.061 -0.0160  2.8491 -2.4897
43310SOL    HW234869   3.000   6.291   1.013  1.2861  0.6917 -0.2726
43311SOL     OW34870   6.340  10.187   9.624 -0.2823 -0.2992  0.4394
43311SOL    HW134871   6.396  10.260   9.598 -1.5671  0.1122 -1.3875
43311SOL    HW234872   6.363  10.117   9.563 -0.0254 -0.9867  1.2994
43312SOL     OW34873   8.280   3.810   8.398 -0.3330  0.0671  0.2120
43312SOL    HW134874   8.203   3.760   8.369  0.8817 -0.3513 -2.6201
43312SOL    HW234875   8.352   3.747   8.394  0.4079  0.8019  1.4717
43313SOL     OW34876   9.677   6.448   4.340  0.3437 -0.2838  0.2016
43313SOL    HW134877   9.590   6.414   4.365 -0.8009 -0.4136 -3.4254
43313SOL    HW234878   9.714   6.380   4.284  1.9089  0.7053 -0.0141
43314SOL     OW34879   2.556   5.256   2.159 -0.0985 -0.4525  0.2291
43314SOL    HW134880   2.620   5.207   2.107 -0.2151 -1.8799  1.3619
43314SOL    HW234881   2.471   5.222   2.132 -0.4965  1.8601 -1.7010
43315SOL     OW34882   5.725   3.549  10.393  0.2930 -0.2738  0.1589
43315SOL    HW134883   5.699   3.529  10.483  1.5811  1.6399  1.0128
43315SOL    HW234884   5.724   3.645  10.388  2.4832 -0.2493 -1.1467
43316SOL     OW34885   7.151   4.949   7.486  0.0123 -0.1545  0.3322
43316SOL    HW134886   7.192   5.005   7.552 -0.3403 -0.1390  0.5407
43316SOL    HW234887   7.152   4.862   7.524  0.5720 -0.2947  0.0019
43317SOL     OW34888   1.952   5.609   8.466 -0.2651  0.0483 -0.3541
43317SOL    HW134889   1.886   5.584   8.401  0.8312 -1.8765 -0.8000
43317SOL    HW234890   2.035   5.603   8.419  0.3914  0.5123  0.7180
43318SOL     OW34891   6.928   9.959   3.340  0.2025  0.0931 -0.2216
43318SOL    HW134892   6.978   9.878   3.347 -1.1631 -0.7831 -0.4693
43318SOL    HW234893   6.927   9.978   3.246  1.8208  1.2749 -0.0623
43319SOL     OW34894   8.994   4.130   5.292  0.0035  0.2031  0.5248
43319SOL    HW134895   8.962   4.197   5.231  1.3569  0.4667  0.0776
43319SOL    HW234896   8.980   4.047   5.245 -0.6000  0.2550  0.6025
43320SOL     OW34897   5.505   6.515   3.827  0.1567 -0.0964  0.3365
43320SOL    HW134898   5.412   6.538   3.837  0.0289 -0.7527  0.6767
43320SOL    HW234899   5.534   6.495   3.916  0.1391 -1.7216 -0.0039
43321SOL     OW34900   0.529   0.448   1.843  0.0672  0.1644 -0.4057
43321SOL    HW134901   0.467   0.506   1.799 -1.0087 -0.0663  0.7769
43321SOL    HW234902   0.520   0.364   1.798 -2.2726 -0.5576  1.2612
43322SOL     OW34903  10.132   0.056   9.373  0.3942 -0.7804 -0.2543
43322SOL    HW134904  10.221   0.082   9.397 -0.0096 -0.2871  0.7815
43322SOL    HW234905  10.111  -0.016   9.433 -0.2521 -0.2393  0.1824
43323SOL     OW34906   7.442   6.188   0.518 -0.2165  0.1797 -0.4188
43323SOL    HW134907   7.516   6.153   0.567 -0.0829  0.8144 -0.1628
43323SOL    HW234908   7.364   6.152   0.561 -0.0554 -0.8742 -0.9809
43324SOL     OW34909   4.170  10.427  11.149  0.2193 -0.2438 -0.1573
43324SOL    HW134910   4.189  10.470  11.232 -0.4810  0.4595 -0.3500
43324SOL    HW234911   4.093  10.373  11.166  1.0762 -1.4417  0.0753
43325SOL     OW34912   7.521   8.232   8.084  0.1027 -0.1498 -0.5520
43325SOL    HW134913   7.440   8.187   8.110  0.5076 -0.9496 -0.6445
43325SOL    HW234914   7.498   8.324   8.083 -0.2376 -0.1578  1.6169
43326SOL     OW34915   9.246   8.871   9.335 -0.2355  0.0949 -0.5226
43326SOL    HW134916   9.236   8.791   9.387  1.3651  0.5056  0.4854
43326SOL    HW234917   9.327   8.857   9.285  0.9423  1.6467  0.8355
43327SOL     OW34918   9.517   6.627   8.893  0.4015  0.5104  0.3358
43327SOL    HW134919   9.527   6.651   8.986  1.6970  0.8535  0.1211
43327SOL    HW234920   9.552   6.538   8.887  2.8392  1.4274 -0.2711
43328SOL     OW34921   7.935   2.447   6.375  0.2795 -0.1617 -0.6541
43328SOL    HW134922   7.940   2.366   6.427 -0.1675  1.5396  2.3015
43328SOL    HW234923   8.022   2.486   6.384 -1.0650  2.5702  3.4008
43329SOL     OW34924   8.504   6.929   5.029  0.7348 -0.7753 -0.2556
43329SOL    HW134925   8.528   6.842   5.059  1.7795 -0.6750 -0.7776
43329SOL    HW234926   8.575   6.956   4.971  0.8758  0.7880  0.5958
43330SOL     OW34927   7.965   6.395   9.550  0.2864 -0.5170 -0.2868
43330SOL    HW134928   7.911   6.455   9.602  0.0964 -0.8289 -0.1249
43330SOL    HW234929   7.904   6.331   9.515  0.4346 -0.4042 -0.7705
43331SOL     OW34930   3.097   8.132   8.548  0.1644 -0.1343  0.2842
43331SOL    HW134931   3.004   8.144   8.533  0.2388  0.1448  0.0273
43331SOL    HW234932   3.106   8.041   8.575 -0.1284 -0.2923 -0.1503
43332SOL     OW34933   2.259   6.774   7.410  0.5491  0.5248  0.7767
43332SOL    HW134934   2.187   6.748   7.468 -2.2737  1.7113 -1.9027
43332SOL    HW234935   2.285   6.693   7.366 -2.4833  0.6141 -1.5266
43333SOL     OW34936   4.639   4.347  10.679  0.1453 -0.4485  0.0259
43333SOL    HW134937   4.695   4.315  10.750 -0.3609  1.6401  1.4391
43333SOL    HW234938   4.573   4.400  10.722 -0.9625 -0.1525 -1.9284
43334SOL     OW34939   1.350   0.496   0.490 -0.0968 -0.2696 -0.5304
43334SOL    HW134940   1.343   0.451   0.574 -2.7228 -2.2883 -1.6786
43334SOL    HW234941   1.352   0.589   0.513 -0.6678 -0.7552  1.7630
43335SOL     OW34942  11.505   5.875   6.785  0.1365 -0.4863  0.6455
43335SOL    HW134943  11.506   5.809   6.716 -2.2233 -1.4125  1.3919
43335SOL    HW234944  11.485   5.957   6.740  0.7091 -0.6995 -0.0056
43336SOL     OW34945  10.759   6.265   7.379  0.2784  0.1168  0.1332
43336SOL    HW134946  10.673   6.235   7.409  0.4230 -0.5235 -0.0609
43336SOL    HW234947  10.803   6.295   7.459 -0.2897  0.8893  0.1663
43337SOL     OW34948   3.001   2.706  11.364  0.0677  0.2111  0.1533
43337SOL    HW134949   3.076   2.719  11.306 -0.6204  1.1975 -0.5658
43337SOL    HW234950   2.969   2.618  11.342  0.4017  0.1911 -0.2717
43338SOL     OW34951   9.118   8.688   4.415 -0.1803  0.5034  0.2048
43338SOL    HW134952   9.117   8.768   4.467  0.4847 -0.6161  2.0287
43338SOL    HW234953   9.026   8.670   4.397 -0.4802  0.5472  1.6038
43339SOL     OW34954  10.734   9.985  10.792  0.2544 -0.3077 -0.1886
43339SOL    HW134955  10.749  10.078  10.777  0.1945 -0.0487  1.2981
43339SOL    HW234956  10.639   9.974  10.782  0.1944 -0.1112  0.1658
43340SOL     OW34957   8.432   8.528   3.345  0.0437  0.0028  0.2066
43340SOL    HW134958   8.379   8.519   3.265  2.4343  1.5212 -1.6922
43340SOL    HW234959   8.477   8.444   3.353 -0.7256 -0.4046  0.3999
43341SOL     OW34960   4.420   1.532   9.833 -0.1729 -0.7300  0.4685
43341SOL    HW134961   4.399   1.451   9.880 -2.2138 -0.0793  0.8060
43341SOL    HW234962   4.409   1.601   9.898 -1.4033  0.0406 -0.4902
43342SOL     OW34963   6.986   9.776   0.922 -0.4071  0.4842  0.2054
43342SOL    HW134964   7.056   9.738   0.870 -0.4767  2.0669 -1.1577
43342SOL    HW234965   6.914   9.713   0.916  0.3446 -0.3930  0.2521
43343SOL     OW34966   3.220   8.348   3.673  0.7301 -0.0897  0.3053
43343SOL    HW134967   3.125   8.341   3.678  0.7509 -3.7189 -1.3300
43343SOL    HW234968   3.251   8.310   3.756  0.7688  0.4091  0.5216
43344SOL     OW34969   3.770   4.683  10.162  0.5901  0.3764 -0.4458
43344SOL    HW134970   3.677   4.700  10.170  0.6756  1.9640 -2.0660
43344SOL    HW234971   3.776   4.591  10.136 -0.5206  0.3064 -0.4799
43345SOL     OW34972   7.370   4.140   4.777 -0.0985 -0.1614  0.5765
43345SOL    HW134973   7.384   4.216   4.833  1.2405  0.0753 -0.0498
43345SOL    HW234974   7.324   4.077   4.834  0.1392  0.5316  1.5613
43346SOL     OW34975   2.074   8.593   3.946  0.4108 -0.0617  0.2593
43346SOL    HW134976   2.029   8.651   4.007 -0.4173  0.7516 -1.0783
43346SOL    HW234977   2.167   8.612   3.960  0.1749  1.3005  0.1526
43347SOL     OW34978  11.428   4.749   7.447 -0.4570  0.1525  0.3959
43347SOL    HW134979  11.391   4.831   7.481 -0.0451  0.7992 -0.6387
43347SOL    HW234980  11.357   4.685   7.454 -0.9967  0.7650  0.6325
43348SOL     OW34981   8.729   1.516   5.611 -0.8239 -0.0047  0.0851
43348SOL    HW134982   8.650   1.568   5.597 -1.6659 -1.6227 -1.5154
43348SOL    HW234983   8.767   1.504   5.524 -1.2601 -2.8626  0.1665
43349SOL     OW34984   9.192   1.831   4.987 -0.0504  0.7929 -0.6706
43349SOL    HW134985   9.141   1.756   4.956  1.7211  0.0008 -1.9013
43349SOL    HW234986   9.150   1.907   4.948 -0.9276  0.2825 -0.7455
43350SOL     OW34987  10.254   5.955   6.172  0.5404  0.6590 -0.4688
43350SOL    HW134988  10.314   6.019   6.134  2.5597 -1.2358 -0.6267
43350SOL    HW234989  10.241   5.890   6.103  0.7120 -0.4940  0.5552
43351SOL     OW34990   6.282   0.927   8.312 -0.2696  0.0467 -0.3185
43351SOL    HW134991   6.295   0.837   8.284 -1.5988 -0.3503  0.2827
43351SOL    HW234992   6.304   0.980   8.235  0.0240 -0.7999 -0.8301
43352SOL     OW34993   7.048   0.238   5.499 -0.2153  0.0712 -0.4346
43352SOL    HW134994   7.071   0.150   5.468 -1.6659  0.2414 -2.1702
43352SOL    HW234995   7.035   0.288   5.419 -2.0394  1.1512  0.4922
43353SOL     OW34996   7.821   4.894   9.307 -0.4261  0.3625 -0.2584
43353SOL    HW134997   7.798   4.810   9.346 -0.3863  0.2710 -0.4312
43353SOL    HW234998   7.741   4.946   9.315 -1.5241 -0.6948 -2.8864
43354SOL     OW34999  10.327  10.427   6.144  0.1088  0.5993 -0.0177
43354SOL    HW135000  10.304  10.504   6.091 -2.3258 -0.6460 -0.8918
43354SOL    HW235001  10.336  10.462   6.233  0.0922  2.0641 -0.5527
43355SOL     OW35002   3.011  11.027   9.361 -0.3481 -0.0281 -0.1192
43355SOL    HW135003   3.015  11.080   9.440 -0.9536 -2.0259  1.3362
43355SOL    HW235004   2.933  11.059   9.315 -1.4184 -0.4388  1.3453
43356SOL     OW35005   0.900   1.929   6.840  0.3150  0.2312  0.0747
43356SOL    HW135006   0.906   1.999   6.775 -1.2727  0.9306  0.6348
43356SOL    HW235007   0.986   1.928   6.882  0.4720  1.6108 -0.1781
43357SOL     OW35008   1.880   1.999   1.309  0.0796 -0.4431 -0.5262
43357SOL    HW135009   1.809   1.939   1.332  1.6154 -2.4301 -0.6668
43357SOL    HW235010   1.932   2.006   1.389 -1.1550  2.4586  0.1495
43358SOL     OW35011   2.164  10.376   3.609  0.0842 -0.2495 -0.0822
43358SOL    HW135012   2.222  10.429   3.664 -0.5394 -1.5759  1.9702
43358SOL    HW235013   2.223  10.314   3.565  0.5682  0.7099 -0.8319
43359SOL     OW35014   7.391   3.213   5.433  0.2692  0.0552 -0.1295
43359SOL    HW135015   7.412   3.203   5.525  1.1960 -0.0089 -0.3357
43359SOL    HW235016   7.462   3.169   5.387 -0.0804  0.2489 -0.8752
43360SOL     OW35017   5.879   1.444   9.252  0.0279 -0.4171  0.7600
43360SOL    HW135018   5.818   1.428   9.180 -0.3781  1.1475  0.7207
43360SOL    HW235019   5.959   1.397   9.226 -0.7360 -1.4967  0.2477
43361SOL     OW35020   4.967   0.397   0.390  0.9532 -0.7903  0.4343
43361SOL    HW135021   4.949   0.479   0.436  0.3775 -1.1508  0.8486
43361SOL    HW235022   4.938   0.328   0.450  1.1069 -1.2914 -0.0585
43362SOL     OW35023   9.293   6.208   0.994  0.5934  0.1277 -0.4592
43362SOL    HW135024   9.269   6.195   0.902  1.7304  1.6881 -1.0024
43362SOL    HW235025   9.388   6.196   0.996  0.7344  1.2903  0.2897
43363SOL     OW35026   1.555   9.769   8.671 -0.0295 -0.4261 -0.1032
43363SOL    HW135027   1.649   9.776   8.660  0.2172 -1.6791  1.0120
43363SOL    HW235028   1.543   9.697   8.732 -1.7178 -0.3184 -0.2605
43364SOL     OW35029   2.052   1.691   5.172  0.2343 -0.3602  0.3469
43364SOL    HW135030   1.977   1.747   5.193 -0.7005 -1.0461 -1.0162
43364SOL    HW235031   2.125   1.751   5.160 -0.8116  0.6423 -1.3732
43365SOL     OW35032   4.172   4.380   3.416 -0.0729  0.1345  0.1863
43365SOL    HW135033   4.117   4.448   3.455 -1.5814 -0.7275 -0.3769
43365SOL    HW235034   4.154   4.301   3.467  2.1443  0.2206  1.2464
43366SOL     OW35035   1.020  10.309   9.010 -0.1916  0.4325  0.4103
43366SOL    HW135036   0.971  10.260   8.944 -1.5020 -0.3696  1.9028
43366SOL    HW235037   1.088  10.356   8.961 -0.2548 -1.1952 -1.3213
43367SOL     OW35038   1.012   3.370   1.883 -0.0225 -0.5096  0.6997
43367SOL    HW135039   0.927   3.376   1.838 -0.0417 -1.1847  0.6275
43367SOL    HW235040   1.001   3.423   1.962  0.6898  2.4314 -1.0602
43368SOL     OW35041   0.343  11.423   0.401 -0.0015 -0.1630 -0.2058
43368SOL    HW135042   0.321  11.339   0.360  3.0907 -1.6189  0.8116
43368SOL    HW235043   0.303  11.489   0.344 -1.3553 -2.2728 -1.8409
43369SOL     OW35044  11.102   7.852   9.799  0.0747 -0.8795  0.2480
43369SOL    HW135045  11.045   7.919   9.763  1.0043 -0.4263 -0.4352
43369SOL    HW235046  11.189   7.874   9.766  0.6422 -1.5856  1.1917
43370SOL     OW35047   4.047   2.583   6.278  0.2849 -0.2324 -0.5917
43370SOL    HW135048   4.104   2.563   6.352  0.2429 -0.5984 -0.6575
43370SOL    HW235049   4.015   2.498   6.248  1.1132 -0.1819 -1.6863
43371SOL     OW35050   9.119   7.625   7.588 -0.1138  0.1103 -0.0644
43371SOL    HW135051   9.177   7.665   7.654  0.1229  1.6728 -1.1775
43371SOL    HW235052   9.116   7.532   7.613  0.6446  0.4952  1.6409
43372SOL     OW35053   4.765   7.840   1.558  0.2522  0.1553  0.0442
43372SOL    HW135054   4.697   7.791   1.604  1.0023 -0.8954  0.0680
43372SOL    HW235055   4.720   7.881   1.485  0.0826 -3.0703 -1.8328
43373SOL     OW35056   0.539   4.266   7.797 -0.5511  0.1055 -0.6880
43373SOL    HW135057   0.458   4.243   7.752 -0.4223  1.0869 -1.4657
43373SOL    HW235058   0.512   4.320   7.871 -0.6670 -0.3424 -0.4013
43374SOL     OW35059   4.465  10.948   2.775 -0.2694  0.2251  0.0502
43374SOL    HW135060   4.493  11.009   2.707  1.6445 -1.4110 -0.7277
43374SOL    HW235061   4.416  10.881   2.727  0.3742 -0.5007  0.4002
43375SOL     OW35062   7.761  10.643   3.021 -0.1321  0.7669  0.3727
43375SOL    HW135063   7.763  10.657   2.926  0.4975  0.5995  0.3549
43375SOL    HW235064   7.853  10.626   3.044 -0.6398 -2.2334  0.5702
43376SOL     OW35065   2.612   2.153   3.065 -0.1195  0.7599 -0.1289
43376SOL    HW135066   2.587   2.225   3.122 -0.8664  0.5715 -0.2058
43376SOL    HW235067   2.551   2.158   2.991  0.2112  0.4177 -0.4309
43377SOL     OW35068   0.784  10.563   6.760  1.2672 -0.4759  0.6483
43377SOL    HW135069   0.818  10.619   6.829  2.2065 -0.5328  0.2556
43377SOL    HW235070   0.695  10.541   6.787  1.9979 -1.4545  2.4383
43378SOL     OW35071   6.760   4.382  10.368 -0.3409 -0.5783  0.5155
43378SOL    HW135072   6.778   4.476  10.368  0.2482 -0.6829 -0.1116
43378SOL    HW235073   6.680   4.373  10.316 -0.9100 -0.3458  1.3239
43379SOL     OW35074   2.416   0.770   5.317 -0.3683  0.1310  0.1230
43379SOL    HW135075   2.501   0.815   5.314 -0.6927  0.7660  0.1354
43379SOL    HW235076   2.378   0.799   5.399 -1.1406  0.8804 -0.4823
43380SOL     OW35077   1.868   8.525   0.575 -0.4612 -0.0232 -0.0637
43380SOL    HW135078   1.872   8.609   0.622 -0.8877 -0.5713  0.9807
43380SOL    HW235079   1.907   8.462   0.635 -2.0227 -0.9485  0.0362
43381SOL     OW35080   1.691   3.996   2.172  0.2330  0.5552  0.4680
43381SOL    HW135081   1.723   3.907   2.185 -0.2102  0.2236 -0.5710
43381SOL    HW235082   1.619   3.986   2.110  0.9723  1.7711 -0.6298
43382SOL     OW35083  10.021   3.227   5.292  0.1152 -0.0153  0.3722
43382SOL    HW135084  10.097   3.179   5.326  0.6292  0.5333  0.0155
43382SOL    HW235085   9.957   3.160   5.270  0.7901 -0.5267 -0.0339
43383SOL     OW35086   8.232   4.865   2.080 -0.0563 -0.1418 -0.0174
43383SOL    HW135087   8.305   4.867   2.141 -0.9728  0.7873  1.0949
43383SOL    HW235088   8.244   4.943   2.026 -0.7918  0.6359  0.8991
43384SOL     OW35089  10.250   3.733   1.807 -0.1386 -0.0480 -0.4352
43384SOL    HW135090  10.217   3.813   1.766 -0.4690  1.6087  2.7502
43384SOL    HW235091  10.180   3.708   1.868  0.1798 -2.5508 -0.9995
43385SOL     OW35092   9.023   8.528   4.664 -0.2721  0.0972 -0.0636
43385SOL    HW135093   9.027   8.525   4.569 -1.1500  0.2548 -0.1152
43385SOL    HW235094   8.990   8.616   4.684 -0.5165 -0.0884  0.3660
43386SOL     OW35095   3.485   5.770   7.492  0.3813 -0.1670  0.7138
43386SOL    HW135096   3.426   5.845   7.503  0.8659  0.2177  0.6860
43386SOL    HW235097   3.560   5.789   7.548  0.6233 -0.5135  0.5149
43387SOL     OW35098   0.281   4.796  10.632 -0.2001  0.3058 -0.2698
43387SOL    HW135099   0.352   4.744  10.669  0.6478  1.5412 -0.0815
43387SOL    HW235100   0.306   4.887  10.650 -1.5853  0.7941 -0.6510
43388SOL     OW35101   4.093   3.040   5.300 -0.1148  0.0890 -0.2260
43388SOL    HW135102   4.079   2.945   5.309  0.3200 -0.1252 -1.6456
43388SOL    HW235103   4.186   3.052   5.314  0.3113 -0.0641 -2.5226
43389SOL     OW35104   4.439  10.154   4.202 -0.3643  0.0368 -0.2406
43389SOL    HW135105   4.437  10.073   4.253  0.7111 -0.3384 -0.7889
43389SOL    HW235106   4.383  10.214   4.252 -0.9504 -0.9385  0.3185
43390SOL     OW35107   1.211   6.029   6.931  0.1599  0.3838 -0.2068
43390SOL    HW135108   1.285   6.015   6.872  2.7866  0.8875  2.7205
43390SOL    HW235109   1.165   6.105   6.896  1.5019  0.5625 -1.6499
43391SOL     OW35110   1.250   8.960   6.449  0.4106 -0.0156 -0.0146
43391SOL    HW135111   1.276   8.973   6.358 -1.6381  2.4389 -0.3729
43391SOL    HW235112   1.331   8.968   6.499  1.1675  1.7490 -1.4351
43392SOL     OW35113   2.973   8.592  10.505  0.3657  0.1573  0.6508
43392SOL    HW135114   2.975   8.629  10.417  2.4625 -0.4405  0.3980
43392SOL    HW235115   2.889   8.547  10.510  0.3995 -0.1781 -1.2178
43393SOL     OW35116   9.694   8.745   7.365  0.0944  0.7174 -0.4599
43393SOL    HW135117   9.784   8.713   7.365 -0.4504 -1.0610 -2.2660
43393SOL    HW235118   9.649   8.690   7.429 -0.1414  0.0389 -1.1834
43394SOL     OW35119   7.453   9.806  10.564 -0.4548 -0.0684  0.4616
43394SOL    HW135120   7.376   9.851  10.528 -0.4296  0.9295  1.5746
43394SOL    HW235121   7.526   9.865  10.544 -0.5220  0.8478  2.5908
43395SOL     OW35122   9.803   9.714   1.311  0.2704  0.0925  0.0783
43395SOL    HW135123   9.767   9.657   1.243  1.3442 -0.8545  0.2663
43395SOL    HW235124   9.729   9.737   1.366  0.0380 -2.4653  0.9483
43396SOL     OW35125   6.181   6.466   9.090 -0.5721  0.0827  0.0540
43396SOL    HW135126   6.091   6.457   9.121 -0.3164 -2.4498  0.2996
43396SOL    HW235127   6.179   6.432   9.001  0.1418 -0.0541  0.0843
43397SOL     OW35128   4.661   9.557   8.448  0.1896  0.3276  0.3710
43397SOL    HW135129   4.669   9.598   8.363  1.6149 -1.2573 -0.3282
43397SOL    HW235130   4.705   9.472   8.438  0.9895  0.3544  2.8416
43398SOL     OW35131   3.528   9.493   8.648 -0.3590 -0.4347  0.0032
43398SOL    HW135132   3.503   9.402   8.665 -0.7586 -0.3195  0.0636
43398SOL    HW235133   3.608   9.487   8.597 -0.1159 -0.8184  0.4126
43399SOL     OW35134   5.282   7.679   2.603  0.1747  0.5900  0.3445
43399SOL    HW135135   5.333   7.674   2.522 -0.3307  0.8364  0.0089
43399SOL    HW235136   5.322   7.613   2.660 -0.4418 -0.7196 -0.6679
43400SOL     OW35137   3.866   8.350  10.621  0.2942 -0.5823 -0.8789
43400SOL    HW135138   3.810   8.340  10.698  1.7796  0.9207  0.4722
43400SOL    HW235139   3.869   8.263  10.582  0.4016 -1.6858  1.4334
43401SOL     OW35140   8.375   9.570  10.616  0.1786 -0.2204  0.9899
43401SOL    HW135141   8.445   9.634  10.606  0.1128 -0.4168 -1.1139
43401SOL    HW235142   8.418   9.486  10.598 -0.5640 -0.3331 -0.3988
43402SOL     OW35143   5.623   9.686  10.472  0.3065 -0.0662 -0.3761
43402SOL    HW135144   5.644   9.624  10.402  3.0763  0.0187  0.2444
43402SOL    HW235145   5.657   9.770  10.440  0.7139  0.1746  0.6450
43403SOL     OW35146   3.739   0.844  10.366 -0.1648  0.6647  0.1346
43403SOL    HW135147   3.717   0.934  10.389 -2.1377  0.0153  0.9732
43403SOL    HW235148   3.806   0.819  10.430 -1.1906  0.8533  1.3106
43404SOL     OW35149   1.849   0.623   5.468 -0.3300  0.1587  0.2348
43404SOL    HW135150   1.760   0.632   5.434 -0.3450  2.1546  0.6752
43404SOL    HW235151   1.849   0.674   5.549  1.9756  2.9780 -1.3179
43405SOL     OW35152  10.462   6.555   8.398  0.4258  0.2815 -0.5327
43405SOL    HW135153  10.440   6.646   8.418 -0.0157  0.3408 -1.2450
43405SOL    HW235154  10.513   6.525   8.473 -1.4267  0.3903  0.8473
43406SOL     OW35155   1.819   1.798   4.495 -0.6411 -0.4589 -0.2301
43406SOL    HW135156   1.738   1.798   4.547 -0.4705 -0.6764  0.0321
43406SOL    HW235157   1.797   1.745   4.418 -0.4387 -1.3726  0.3240
43407SOL     OW35158  10.043  10.734  10.058 -0.0561 -0.4304  0.2325
43407SOL    HW135159   9.951  10.739  10.034  0.5107 -1.2793 -2.5160
43407SOL    HW235160  10.089  10.778   9.986  1.7163 -0.2459  1.3984
43408SOL     OW35161  11.633   4.816   2.445 -0.4350  0.5246  0.2986
43408SOL    HW135162  11.547   4.784   2.420 -0.6524  1.3593 -0.0607
43408SOL    HW235163  11.689   4.798   2.370 -0.4358  0.5008  0.3042
43409SOL     OW35164   7.801   5.294   8.081  0.2169  0.1833 -0.5539
43409SOL    HW135165   7.864   5.278   8.010 -0.2193 -0.8843 -0.7161
43409SOL    HW235166   7.779   5.207   8.114  0.4949  0.6837  0.9822
43410SOL     OW35167   8.875   8.527  11.636 -0.0219 -0.2119  0.1785
43410SOL    HW135168   8.820   8.461  11.595 -0.1530  0.6672 -1.1120
43410SOL    HW235169   8.965   8.498  11.619 -0.0507 -1.0022  1.2320
43411SOL     OW35170   4.587   5.896  11.517 -0.0779  0.0747  0.3179
43411SOL    HW135171   4.613   5.975  11.470 -0.6957 -0.4951 -1.0238
43411SOL    HW235172   4.494   5.909  11.536  0.7744  1.7777  4.4266
43412SOL     OW35173   4.828   1.143   1.974  0.0541 -0.2768  0.5623
43412SOL    HW135174   4.799   1.074   1.915  1.1289 -3.2375  3.2168
43412SOL    HW235175   4.757   1.152   2.038  0.4871  0.0816  1.0047
43413SOL     OW35176   9.238  10.246   0.730  0.1098 -0.6757 -0.0144
43413SOL    HW135177   9.182  10.228   0.655  1.8631  0.0265 -1.5877
43413SOL    HW235178   9.224  10.172   0.789  0.6119 -2.6971 -2.2580
43414SOL     OW35179  10.399   7.332   3.706  0.8512  0.2288 -0.5837
43414SOL    HW135180  10.451   7.359   3.781  0.3552  0.0828 -0.1816
43414SOL    HW235181  10.429   7.243   3.687  0.6921  0.1119 -0.2974
43415SOL     OW35182   5.477   5.455   4.072  0.0109  0.1607  0.6419
43415SOL    HW135183   5.507   5.408   3.995 -2.4767 -1.1379  0.3696
43415SOL    HW235184   5.504   5.401   4.146  1.7674  1.0481  0.6987
43416SOL     OW35185   6.893  10.578   0.630 -0.0985 -0.0837 -0.5813
43416SOL    HW135186   6.822  10.553   0.571  0.7391 -1.1159 -1.1885
43416SOL    HW235187   6.964  10.518   0.609  1.8237  2.3683 -1.6536
43417SOL     OW35188   7.197   6.947  11.008  0.1341 -0.3871 -0.0537
43417SOL    HW135189   7.237   6.860  11.011 -1.2262 -1.0025  0.9931
43417SOL    HW235190   7.212   6.984  11.095 -1.4698 -0.6054  0.3443
43418SOL     OW35191  10.038   7.410  10.843 -0.3419 -0.2975 -0.1529
43418SOL    HW135192  10.120   7.458  10.829 -1.8161  1.7711 -2.5341
43418SOL    HW235193  10.023   7.415  10.937  1.0806  1.4035  0.0410
43419SOL     OW35194   1.040   9.094   1.119 -1.0585  0.1134  0.3373
43419SOL    HW135195   1.038   9.189   1.134  0.3939  0.5938 -2.0314
43419SOL    HW235196   0.998   9.082   1.034  0.3236 -1.1577 -0.2066
43420SOL     OW35197   9.053   5.884   1.550 -0.5598  0.2840  0.2463
43420SOL    HW135198   9.107   5.908   1.625 -0.3494  0.5168  0.0185
43420SOL    HW235199   8.968   5.862   1.588 -0.6029  0.8886  0.5042
43421SOL     OW35200  10.875   4.054   1.543 -0.4132  0.0461 -0.2962
43421SOL    HW135201  10.940   4.078   1.477  0.4899  1.1056  0.9348
43421SOL    HW235202  10.917   3.985   1.595 -0.4696  0.3679  0.1820
43422SOL     OW35203   0.126   4.671   4.756 -0.3615  0.1849 -0.5412
43422SOL    HW135204   0.034   4.649   4.745 -0.0545 -0.6957 -1.5304
43422SOL    HW235205   0.153   4.706   4.670  0.0493  1.1500 -0.0400
43423SOL     OW35206   8.477   7.927   5.515  0.1968 -0.2965 -0.1518
43423SOL    HW135207   8.402   7.913   5.457  0.0030 -0.0771  0.0431
43423SOL    HW235208   8.453   8.004   5.567  0.3223 -0.5568  0.2999
43424SOL     OW35209   7.536   0.922  11.474 -0.9240  0.1754 -0.4295
43424SOL    HW135210   7.486   0.874  11.540  0.1316  1.0825  1.0926
43424SOL    HW235211   7.475   0.990  11.443 -2.5350 -2.1490 -2.8138
43425SOL     OW35212   9.264   1.447   1.629  0.5098  0.4824  0.0975
43425SOL    HW135213   9.276   1.383   1.558  2.0285  0.3023  0.4873
43425SOL    HW235214   9.242   1.394   1.705  0.5797  0.5317  0.1517
43426SOL     OW35215   5.673   4.609   4.444 -0.0185 -0.1400  0.0903
43426SOL    HW135216   5.635   4.521   4.441  0.8583 -0.5924  1.4890
43426SOL    HW235217   5.758   4.600   4.401 -0.4505  0.3327 -0.8968
43427SOL     OW35218   1.702   9.527  11.350  0.4011  0.4587  0.2362
43427SOL    HW135219   1.681   9.495  11.438  0.4216  0.5345  0.2690
43427SOL    HW235220   1.647   9.605  11.340 -0.0045  0.1426 -0.0255
43428SOL     OW35221   2.969   5.285   3.999 -0.0676 -0.6930  0.3266
43428SOL    HW135222   2.931   5.363   4.039 -0.8746 -0.8876 -0.0342
43428SOL    HW235223   2.894   5.232   3.974  0.4417 -1.0559 -0.4853
43429SOL     OW35224   3.506   8.285   0.792  0.1130  0.5677  0.2709
43429SOL    HW135225   3.474   8.196   0.808  0.7867  0.4641  1.1322
43429SOL    HW235226   3.538   8.283   0.702  0.2790 -0.1214  0.3365
43430SOL     OW35227   3.745   7.343  10.567 -0.4694 -0.4264  0.0234
43430SOL    HW135228   3.673   7.317  10.510 -0.9699  1.0464 -0.0718
43430SOL    HW235229   3.765   7.433  10.540  1.0162 -0.6068  0.4461
43431SOL     OW35230  10.938  11.408   9.862  0.0469  0.0675 -0.4129
43431SOL    HW135231  10.960  11.417   9.769  0.4671 -1.4487 -0.4874
43431SOL    HW235232  10.883  11.484   9.881 -1.4682 -0.4709 -2.3378
43432SOL     OW35233   7.601   1.245  10.864  0.1201 -0.3799 -0.6074
43432SOL    HW135234   7.652   1.280  10.791  0.5518  1.2352  0.4039
43432SOL    HW235235   7.594   1.319  10.925 -2.2422 -0.9632 -0.0732
43433SOL     OW35236   6.731   5.746   2.941 -0.6130 -0.5121 -0.1346
43433SOL    HW135237   6.731   5.785   3.028 -1.1104 -0.8925  0.0394
43433SOL    HW235238   6.640   5.749   2.913 -0.3970 -0.0316 -0.8117
43434SOL     OW35239   3.550  10.500   3.985 -0.5011  0.4061  0.1822
43434SOL    HW135240   3.576  10.446   4.060 -0.1542  0.5870  0.1945
43434SOL    HW235241   3.625  10.557   3.970 -0.2019 -0.2338 -0.8668
43435SOL     OW35242  11.353   2.441   3.766  0.1233  0.6480  0.0678
43435SOL    HW135243  11.369   2.363   3.713 -2.0555  0.3512 -0.2348
43435SOL    HW235244  11.369   2.514   3.706  0.2690  0.3832 -0.2225
43436SOL     OW35245  11.003   6.986   7.897  0.1101 -0.7932  0.4684
43436SOL    HW135246  11.019   7.075   7.929 -2.6662 -0.0643  0.0424
43436SOL    HW235247  11.085   6.939   7.916  2.0108  2.0402 -0.1486
43437SOL     OW35248   3.351  10.794   6.042 -0.5067  0.2980  0.6666
43437SOL    HW135249   3.261  10.824   6.027 -0.6381 -0.6841 -0.6199
43437SOL    HW235250   3.381  10.762   5.957  0.5215 -0.8125  1.4145
43438SOL     OW35251   2.150   2.438   2.826  0.8872  0.6310  0.3976
43438SOL    HW135252   2.172   2.376   2.895 -0.0958 -0.1823  0.0048
43438SOL    HW235253   2.083   2.394   2.774 -0.0280  2.1133  0.2516
43439SOL     OW35254   1.747   8.739  10.913  0.1540  0.1933 -0.0080
43439SOL    HW135255   1.796   8.820  10.919 -1.7703  1.4987 -0.9405
43439SOL    HW235256   1.780   8.685  10.985  1.6052  1.6937  0.5114
43440SOL     OW35257   3.023   5.972   8.807  0.0197  0.1374  0.6570
43440SOL    HW135258   3.072   5.890   8.814 -0.4967 -0.4652 -1.7625
43440SOL    HW235259   3.089   6.037   8.780 -0.1500 -0.2473 -0.7209
43441SOL     OW35260   4.716   4.461   9.702  0.0766 -0.3091 -0.2546
43441SOL    HW135261   4.699   4.381   9.752  0.9843 -0.2448  0.1781
43441SOL    HW235262   4.811   4.469   9.701  0.0324  0.2189 -1.1772
43442SOL     OW35263   9.782  11.022   7.580  0.1687 -0.4042 -0.1034
43442SOL    HW135264   9.811  10.936   7.547  0.4338 -0.6024  0.6227
43442SOL    HW235265   9.691  11.028   7.553 -0.9153 -2.3943  2.6252
43443SOL     OW35266   7.520   5.042   7.143  0.1504 -0.2644  0.5958
43443SOL    HW135267   7.606   5.009   7.169 -0.3298 -1.2081  1.0462
43443SOL    HW235268   7.480   4.969   7.095 -0.6421 -0.0775  0.9504
43444SOL     OW35269   7.044   5.386   8.600 -0.3313  0.0742 -0.1545
43444SOL    HW135270   6.995   5.454   8.647 -1.5282  0.4375 -1.8297
43444SOL    HW235271   7.135   5.407   8.617 -0.5400  3.2796 -1.9748
43445SOL     OW35272   6.681   3.542  11.645  0.5369  0.2597  0.2681
43445SOL    HW135273   6.741   3.501  11.708 -0.9157 -0.0565  1.5007
43445SOL    HW235274   6.598   3.497  11.658  0.4331 -0.6891 -2.7893
43446SOL     OW35275   0.028   8.636   2.392  0.1855  0.1217  0.2357
43446SOL    HW135276  -0.036   8.573   2.423 -0.4893  0.8023  0.2678
43446SOL    HW235277   0.043   8.694   2.466  0.1484  0.5073 -0.0543
43447SOL     OW35278   7.092   2.204   4.271 -0.1601 -0.7831 -0.9165
43447SOL    HW135279   7.150   2.138   4.233  0.1815 -0.5473 -0.8065
43447SOL    HW235280   7.004   2.178   4.242  0.0474 -0.8618 -1.4983
43448SOL     OW35281   1.751   8.471   4.985  0.0365  0.1255  0.0485
43448SOL    HW135282   1.805   8.490   4.909 -0.3807  0.5211 -0.1512
43448SOL    HW235283   1.670   8.520   4.971  0.2944  0.9101  1.1614
43449SOL     OW35284   7.824   9.476   1.756 -0.3118 -0.3066 -0.1036
43449SOL    HW135285   7.786   9.488   1.843 -0.9840 -2.0476 -0.1201
43449SOL    HW235286   7.766   9.527   1.698 -1.3126 -1.0937  0.1710
43450SOL     OW35287   9.102   3.265   6.238  0.1248  0.1928  0.4399
43450SOL    HW135288   9.195   3.286   6.251  0.4575  0.1465 -1.5844
43450SOL    HW235289   9.064   3.273   6.326  1.3486  3.5922  0.8399
43451SOL     OW35290   4.821   0.898   1.381 -0.1845 -0.7303  0.1700
43451SOL    HW135291   4.828   0.988   1.411  0.0330 -0.5315 -0.4424
43451SOL    HW235292   4.868   0.897   1.297 -3.0738 -0.5947 -1.5967
43452SOL     OW35293   7.568   5.534  10.419 -0.2078 -0.4114  0.1693
43452SOL    HW135294   7.512   5.602  10.381  0.3899 -1.1707 -2.1983
43452SOL    HW235295   7.657   5.562  10.400  0.0363 -2.4487 -2.1192
43453SOL     OW35296   8.904   2.379   6.665  0.0285 -0.1682 -0.9645
43453SOL    HW135297   8.863   2.306   6.619  2.3563 -1.7894 -0.6517
43453SOL    HW235298   8.981   2.401   6.612  0.5952  0.5403  0.1030
43454SOL     OW35299   9.231  11.067   0.610  0.7703 -0.3364 -0.2461
43454SOL    HW135300   9.312  11.024   0.585 -0.6823 -1.4032 -3.7748
43454SOL    HW235301   9.254  11.159   0.623  2.2355 -0.0378 -3.8705
43455SOL     OW35302   9.094  10.693   1.364 -0.0174 -0.3229  0.3021
43455SOL    HW135303   9.181  10.698   1.324 -0.1973 -2.4430 -0.4881
43455SOL    HW235304   9.110  10.654   1.450 -0.2129 -1.3119 -0.0923
43456SOL     OW35305   7.228   4.832   1.455 -0.0942  0.1125  0.2968
43456SOL    HW135306   7.279   4.894   1.403 -0.6325  0.2414 -0.0805
43456SOL    HW235307   7.266   4.837   1.542 -0.3929  1.2645  0.3686
43457SOL     OW35308   5.466   9.455   4.189 -0.1704 -0.0652  0.3807
43457SOL    HW135309   5.502   9.408   4.264 -0.7210  0.0828  0.7334
43457SOL    HW235310   5.372   9.453   4.201 -0.2831 -0.2138 -0.4100
43458SOL     OW35311   3.286   1.765  10.706  0.3841  0.0063 -0.3808
43458SOL    HW135312   3.321   1.679  10.686  1.0414  0.9710 -4.0945
43458SOL    HW235313   3.360   1.825  10.694 -0.4035  1.2543  0.6884
43459SOL     OW35314   6.082   3.915   8.072 -0.2407  0.2699  0.3005
43459SOL    HW135315   6.041   3.850   8.014 -0.4218 -1.6651  2.4361
43459SOL    HW235316   6.014   3.980   8.087 -1.2703 -0.8780  0.7776
43460SOL     OW35317  11.003   2.099   0.058 -0.1382  0.0323  0.4105
43460SOL    HW135318  10.981   2.050   0.137  1.0558 -1.9937 -0.4172
43460SOL    HW235319  10.929   2.081  -0.001 -0.5263  0.6796  0.6911
43461SOL     OW35320   4.634   1.307   8.219 -0.4172 -0.5239  0.6996
43461SOL    HW135321   4.669   1.319   8.131 -0.4858  2.1073  0.9367
43461SOL    HW235322   4.669   1.222   8.248  2.0336 -0.1251 -0.7790
43462SOL     OW35323   0.337   6.197   8.319  0.0352 -0.0103 -0.0079
43462SOL    HW135324   0.383   6.280   8.308  1.4919 -0.8123 -0.1802
43462SOL    HW235325   0.322   6.191   8.414  1.8432 -0.5156  0.2785
43463SOL     OW35326   4.262   7.155   5.170 -0.5031 -0.8861  0.2823
43463SOL    HW135327   4.256   7.187   5.080 -0.1550  0.3684  0.6771
43463SOL    HW235328   4.349   7.115   5.176 -0.0403  0.0980  0.3652
43464SOL     OW35329   9.757   8.016   4.482  0.3282 -0.1345 -0.6938
43464SOL    HW135330   9.745   7.928   4.447 -0.5858  0.6768 -2.5496
43464SOL    HW235331   9.826   8.055   4.428  0.7665  0.2869  0.1444
43465SOL     OW35332  11.593   2.599   4.093 -0.7303 -0.1042 -0.1162
43465SOL    HW135333  11.626   2.671   4.147 -1.2804 -1.0282  1.5195
43465SOL    HW235334  11.633   2.613   4.007  0.2405  1.3738  0.5400
43466SOL     OW35335  10.463   8.302   4.342  0.6005 -0.5211 -0.2831
43466SOL    HW135336  10.541   8.333   4.296  1.5318 -1.9695  0.2317
43466SOL    HW235337  10.452   8.363   4.415  1.0482 -0.1076 -0.5542
43467SOL     OW35338   4.744   9.633   3.117 -0.5908  0.3186  0.3982
43467SOL    HW135339   4.820   9.664   3.167  0.3267 -0.9279 -0.1869
43467SOL    HW235340   4.685   9.596   3.183  0.3483 -0.7813  0.6499
43468SOL     OW35341   2.981   8.745   3.694 -0.4029  0.2282 -0.0249
43468SOL    HW135342   2.930   8.809   3.743  1.1010 -0.2974  2.4058
43468SOL    HW235343   2.957   8.660   3.733  0.7977 -0.2229 -0.2147
43469SOL     OW35344   6.628   5.619   3.281  0.0960 -0.2240 -0.7962
43469SOL    HW135345   6.659   5.556   3.215 -0.1080 -1.1516 -0.0402
43469SOL    HW235346   6.621   5.567   3.361  1.1756  1.0832  0.1770
43470SOL     OW35347   5.267   7.026   3.469 -0.5713  0.3234  0.7947
43470SOL    HW135348   5.344   7.076   3.442  0.2309  0.2781  2.7623
43470SOL    HW235349   5.259   6.957   3.404  0.5615  0.8086  0.1032
43471SOL     OW35350   5.308   8.946   8.276  0.5572 -0.0393 -0.5602
43471SOL    HW135351   5.270   8.901   8.352  1.1289 -2.2468 -1.4807
43471SOL    HW235352   5.344   9.027   8.311 -2.7126  0.9947  0.7757
43472SOL     OW35353  10.518   2.263   6.305 -0.2715 -0.9308 -0.7401
43472SOL    HW135354  10.555   2.192   6.359 -0.7966 -1.2533 -0.7885
43472SOL    HW235355  10.546   2.343   6.349  2.2284 -1.0644 -1.9122
43473SOL     OW35356   5.492   2.841  10.556  0.5676 -0.1532 -0.0755
43473SOL    HW135357   5.536   2.798  10.483  0.1351  0.8574 -0.9613
43473SOL    HW235358   5.399   2.821  10.544  0.0255  2.7589 -1.8390
43474SOL     OW35359  10.950   5.256  11.642  0.3740 -0.0596  0.4381
43474SOL    HW135360  10.928   5.294  11.557 -2.5439 -0.8654  0.7210
43474SOL    HW235361  11.037   5.217  11.629  0.2489  0.3181 -1.9866
43475SOL     OW35362   1.386   5.735  10.820  0.2079  0.2566 -0.3889
43475SOL    HW135363   1.339   5.713  10.901  1.1040 -2.7107 -0.5805
43475SOL    HW235364   1.318   5.772  10.763 -0.9088  0.3233  0.9221
43476SOL     OW35365   1.035   4.780   9.731  0.1168 -0.0281  0.2647
43476SOL    HW135366   1.033   4.808   9.640  1.2500  0.9378  0.5083
43476SOL    HW235367   1.110   4.826   9.769 -0.0092 -0.8222  1.5534
43477SOL     OW35368   6.640   8.161   7.447 -0.4166 -0.6455 -0.1940
43477SOL    HW135369   6.616   8.068   7.453 -0.5771 -0.6470 -0.7425
43477SOL    HW235370   6.630   8.182   7.354 -1.2488  0.1492  0.0558
43478SOL     OW35371   2.381   9.920   1.562 -0.1040  0.6851 -0.2773
43478SOL    HW135372   2.476   9.914   1.552 -0.2552 -0.6838 -1.1825
43478SOL    HW235373   2.362   9.870   1.641  0.1115  2.9272  1.2736
43479SOL     OW35374   4.493   7.116   1.987  0.2104  0.4666  0.3169
43479SOL    HW135375   4.479   7.026   1.958  1.5727  0.6864 -1.1978
43479SOL    HW235376   4.509   7.109   2.081 -1.9881 -0.5738  0.6621
43480SOL     OW35377   5.523   4.376   4.498 -0.5460  0.1607  0.2248
43480SOL    HW135378   5.456   4.308   4.509 -1.3674  0.8553 -0.3553
43480SOL    HW235379   5.475   4.458   4.507 -0.7408  0.8498 -4.3615
43481SOL     OW35380   0.727   2.524   1.829 -0.2429  0.3063 -0.4164
43481SOL    HW135381   0.718   2.532   1.734 -1.6281 -1.1417 -0.4563
43481SOL    HW235382   0.670   2.592   1.864  1.3357  1.7871 -0.5511
43482SOL     OW35383   1.288   6.946   1.073 -0.0025  0.1645 -0.3896
43482SOL    HW135384   1.239   7.020   1.109 -1.9553 -1.5445  0.6376
43482SOL    HW235385   1.260   6.941   0.982 -0.5119  0.1716 -0.2332
43483SOL     OW35386   8.366   8.242  10.108  0.0380 -0.3435 -0.1714
43483SOL    HW135387   8.376   8.319  10.052  0.0773  1.1986  1.8446
43483SOL    HW235388   8.443   8.188  10.089  0.7918  0.8439 -0.5385
43484SOL     OW35389   5.316   8.920  10.603  0.3539 -0.4553 -0.0123
43484SOL    HW135390   5.222   8.909  10.591 -0.1792 -0.3064  3.1817
43484SOL    HW235391   5.339   8.857  10.671  2.1781  0.7523  0.5601
43485SOL     OW35392   2.894   7.144   5.982  0.2099  0.1718  0.4300
43485SOL    HW135393   2.860   7.232   5.966  0.1073 -0.0475 -0.6388
43485SOL    HW235394   2.826   7.100   6.033 -0.1455  0.4180  0.1644
43486SOL     OW35395  10.453   5.000  10.674 -0.3089  0.3115 -0.1826
43486SOL    HW135396  10.520   4.942  10.637  0.7200  0.3358  1.5389
43486SOL    HW235397  10.373   4.979  10.625  0.1821 -2.0482 -0.0791
43487SOL     OW35398   5.574   0.065   5.075  0.1341 -0.3846  0.3496
43487SOL    HW135399   5.534   0.149   5.053  2.1874  1.2449  2.3520
43487SOL    HW235400   5.652   0.060   5.021  0.1671 -0.8923  0.4334
43488SOL     OW35401   2.052   5.596   4.237 -0.5786 -0.2585 -0.1629
43488SOL    HW135402   2.003   5.623   4.315 -2.7303  0.0431 -1.5149
43488SOL    HW235403   2.034   5.502   4.231  0.9750 -0.6268  0.5919
43489SOL     OW35404   5.127   6.040   6.892  0.7606  0.0375  0.0022
43489SOL    HW135405   5.203   5.986   6.874 -0.2196 -1.0116 -1.1378
43489SOL    HW235406   5.072   5.986   6.949  0.7950  0.7386  0.7216
43490SOL     OW35407   5.259   0.171   8.702 -0.1913 -0.6661 -0.0218
43490SOL    HW135408   5.334   0.166   8.643 -0.9039 -2.1130 -0.8539
43490SOL    HW235409   5.246   0.265   8.716  1.2222 -0.3645 -0.5542
43491SOL     OW35410   5.505   2.646   1.602 -0.1406 -0.5093  0.1645
43491SOL    HW135411   5.427   2.590   1.606  0.5189 -1.3919  2.0047
43491SOL    HW235412   5.578   2.586   1.616  0.6783  0.6229  0.9796
43492SOL     OW35413   9.788   1.548  11.462 -0.0266 -0.2311  0.4387
43492SOL    HW135414   9.869   1.575  11.506 -0.4103  0.5070  0.7026
43492SOL    HW235415   9.794   1.586  11.375  0.5332 -1.3306 -0.0236
43493SOL     OW35416   8.736   0.455   4.283 -0.1939  0.2118 -0.0969
43493SOL    HW135417   8.793   0.388   4.244 -3.5400 -2.0279 -1.6211
43493SOL    HW235418   8.714   0.420   4.369 -0.9887 -0.1066 -0.4171
43494SOL     OW35419   1.214  10.693  10.266 -0.6293 -0.7893  0.9195
43494SOL    HW135420   1.214  10.640  10.187 -0.3496  0.3609  0.1274
43494SOL    HW235421   1.199  10.631  10.337 -0.9787 -1.8195 -0.0432
43495SOL     OW35422   9.249   4.196   1.613 -0.0037 -0.3929  0.2118
43495SOL    HW135423   9.172   4.250   1.630 -0.0648 -0.2072 -0.6104
43495SOL    HW235424   9.298   4.196   1.696 -1.1801 -1.0006  0.9311
43496SOL     OW35425   1.709   4.800   8.980  0.4255 -0.1895 -0.0538
43496SOL    HW135426   1.616   4.776   8.978  0.8879 -2.2864  0.9281
43496SOL    HW235427   1.711   4.882   9.029 -0.9036 -0.0331 -0.2055
43497SOL     OW35428  10.007   8.448   5.707  0.1552 -0.0845  0.0324
43497SOL    HW135429   9.981   8.433   5.798 -1.8075 -0.7900 -0.5955
43497SOL    HW235430  10.088   8.398   5.697 -0.3253 -1.1218  1.0433
43498SOL     OW35431   9.900   5.065   1.725 -0.8879 -0.7449  0.5811
43498SOL    HW135432   9.808   5.042   1.716 -0.6447 -1.0052 -1.6668
43498SOL    HW235433   9.929   5.087   1.637  1.2741 -0.9370  1.1779
43499SOL     OW35434   9.437   2.461  10.630  0.5379  0.6639  0.3743
43499SOL    HW135435   9.395   2.529  10.682 -2.0774 -0.4506 -0.1113
43499SOL    HW235436   9.394   2.380  10.658 -0.3277 -0.1003 -2.8248
43500SOL     OW35437   9.442   5.587   3.046  0.0482  0.1635  0.2276
43500SOL    HW135438   9.425   5.681   3.040  2.3498  0.6589  0.6312
43500SOL    HW235439   9.534   5.577   3.024 -0.1835 -2.0578 -0.0412
43501SOL     OW35440   9.824   7.618   2.019 -0.1139 -0.1042 -0.5095
43501SOL    HW135441   9.780   7.546   1.973 -1.2017  1.1217 -1.4754
43501SOL    HW235442   9.753   7.676   2.047  0.7496  0.7785 -0.0718
43502SOL     OW35443   7.933   2.247  10.976  0.1060  0.2726  0.0724
43502SOL    HW135444   7.881   2.180  10.932  0.2454 -2.0287  3.0996
43502SOL    HW235445   8.023   2.232  10.946  0.1281 -0.9192  0.6994
43503SOL     OW35446   9.670   3.673   1.426 -0.6970  0.2269  0.4526
43503SOL    HW135447   9.587   3.715   1.403 -1.1464 -1.6920 -1.7716
43503SOL    HW235448   9.733   3.711   1.365 -0.5352 -0.2976  0.2879
43504SOL     OW35449   2.903   0.018  10.307  0.0513 -0.0888 -0.0173
43504SOL    HW135450   2.840   0.082  10.341  1.7813  0.2120  2.9233
43504SOL    HW235451   2.975   0.071  10.273 -0.9433 -0.4414 -2.9265
43505SOL     OW35452   1.968   8.225   0.515  0.4621  0.0845  0.3069
43505SOL    HW135453   1.934   8.297   0.568  0.0030  0.1066 -0.0128
43505SOL    HW235454   2.058   8.250   0.496  0.1633  0.8132 -0.2002
43506SOL     OW35455   9.573   0.177  11.397 -0.3486  0.5144 -0.0297
43506SOL    HW135456   9.647   0.142  11.449  0.8917 -0.1744 -2.1476
43506SOL    HW235457   9.504   0.111  11.407 -0.5529  0.9288  1.5897
43507SOL     OW35458   7.107  10.233   1.560 -0.1478 -0.5863 -0.0467
43507SOL    HW135459   7.021  10.268   1.586 -0.1503 -1.1231  0.7194
43507SOL    HW235460   7.107  10.144   1.595  0.6451 -0.6591 -0.2321
43508SOL     OW35461   4.692   0.549   1.498 -0.4001  0.0246 -0.2704
43508SOL    HW135462   4.701   0.584   1.410  0.3293 -1.2427 -0.7260
43508SOL    HW235463   4.782   0.535   1.528 -0.6237  0.8781  0.8684
43509SOL     OW35464   1.558  10.116  10.326 -0.5590  0.1990 -0.3074
43509SOL    HW135465   1.646  10.142  10.352 -0.2593  0.9024 -1.8684
43509SOL    HW235466   1.570  10.067  10.245 -1.5449 -0.3847 -0.1166
43510SOL     OW35467   9.178   2.651   4.541 -0.1445 -0.3136 -0.4903
43510SOL    HW135468   9.179   2.664   4.447 -1.8229  0.8467 -0.3891
43510SOL    HW235469   9.206   2.560   4.553  0.7495 -0.2677 -2.0424
43511SOL     OW35470   9.595   6.219   5.265 -0.0288 -0.1887  0.2393
43511SOL    HW135471   9.631   6.130   5.260 -1.8525 -1.0537  1.2108
43511SOL    HW235472   9.671   6.276   5.264  1.2260 -1.7843  0.0436
43512SOL     OW35473   2.457   0.721   3.371  0.2038  0.5130  0.1750
43512SOL    HW135474   2.416   0.807   3.376  2.0196  1.4824 -0.6473
43512SOL    HW235475   2.397   0.669   3.317 -0.6969  1.3926  0.3103
43513SOL     OW35476   5.207   5.731   5.599 -0.2141 -0.0081 -0.0355
43513SOL    HW135477   5.170   5.667   5.539 -0.3583  1.0219 -1.0737
43513SOL    HW235478   5.259   5.679   5.660 -1.8065 -1.3124  0.3067
43514SOL     OW35479  10.179   4.112   0.132 -0.0370  0.5131  0.8346
43514SOL    HW135480  10.091   4.110   0.171 -0.0175  0.0694  0.8551
43514SOL    HW235481  10.234   4.151   0.200 -0.3218  1.3484  0.6028
43515SOL     OW35482   0.959  11.064   9.478 -0.0868  0.6967  0.3194
43515SOL    HW135483   0.902  11.124   9.526  1.2924  2.0805  0.3077
43515SOL    HW235484   1.032  11.048   9.537  0.5519  0.6558 -0.4655
43516SOL     OW35485  10.208   8.646  11.399  0.2958  0.2087  0.0752
43516SOL    HW135486  10.189   8.598  11.479 -2.3497 -1.3561 -1.3616
43516SOL    HW235487  10.161   8.599  11.331  0.7167  2.6831 -2.0826
43517SOL     OW35488   7.685   5.213   9.874 -0.5449 -0.2013 -0.1427
43517SOL    HW135489   7.645   5.280   9.929 -2.6527 -0.1135 -1.6513
43517SOL    HW235490   7.629   5.136   9.887  1.2648 -1.4423  0.8111
43518SOL     OW35491   1.850  10.594   1.304  0.3277  0.2130 -0.2562
43518SOL    HW135492   1.845  10.681   1.344 -0.6477 -0.1334  0.4159
43518SOL    HW235493   1.932  10.557   1.336 -1.1031 -0.6619  2.7823
43519SOL     OW35494   3.665   3.149  11.012 -0.6197  0.0324 -0.0056
43519SOL    HW135495   3.672   3.074  10.952 -1.8615 -0.5688  0.5752
43519SOL    HW235496   3.754   3.182  11.018 -0.4054 -0.0679 -1.9571
43520SOL     OW35497  10.727   9.777   9.573  0.2856  0.3230 -0.6249
43520SOL    HW135498  10.788   9.851   9.581  0.7504 -0.2331  1.3209
43520SOL    HW235499  10.655   9.800   9.632 -0.4667  0.0585 -1.4256
43521SOL     OW35500   3.386  10.376   0.626 -0.4860 -0.0491  0.3836
43521SOL    HW135501   3.389  10.393   0.531 -0.1948  0.0051  0.4022
43521SOL    HW235502   3.355  10.286   0.633  0.2237 -0.3157  0.2123
43522SOL     OW35503   8.174   4.869   8.336  0.4016  0.0748 -0.3070
43522SOL    HW135504   8.168   4.950   8.285  0.7592  0.7743  0.7386
43522SOL    HW235505   8.163   4.799   8.271  0.1708  0.9511 -1.2364
43523SOL     OW35506   1.463   4.946   2.638 -0.0252 -0.2585  0.1269
43523SOL    HW135507   1.405   4.986   2.573  0.8088  0.4279 -0.2077
43523SOL    HW235508   1.548   4.940   2.594  0.4775 -0.0652  1.0517
43524SOL     OW35509  10.340   6.822   8.054 -0.3158 -0.4503  0.6257
43524SOL    HW135510  10.291   6.889   8.007  0.4663  0.1807  0.7032
43524SOL    HW235511  10.274   6.776   8.106 -1.0770 -0.6766 -0.5097
43525SOL     OW35512  10.161   6.648  11.265 -0.1309  0.4271 -0.2049
43525SOL    HW135513  10.214   6.718  11.226 -0.1426  0.2344 -0.5691
43525SOL    HW235514  10.084   6.642  11.208 -0.3050  0.3708  0.0378
43526SOL     OW35515   5.668   0.460   0.309 -0.3831 -0.4100  0.5094
43526SOL    HW135516   5.575   0.452   0.288 -0.1047 -1.4096 -0.4499
43526SOL    HW235517   5.712   0.405   0.244  0.9619  0.8326  0.3253
43527SOL     OW35518   7.605   0.035   9.947  0.0714 -0.1296  0.2238
43527SOL    HW135519   7.654   0.003  10.023  2.3579  1.6091 -0.4272
43527SOL    HW235520   7.652  -0.002   9.872 -0.6373  0.2403 -0.4108
43528SOL     OW35521   1.002  11.272   8.142  0.0584  0.0227 -0.5326
43528SOL    HW135522   0.942  11.325   8.089  0.3818  0.8431 -0.0928
43528SOL    HW235523   1.088  11.310   8.125  0.2237 -0.0137  0.2236
43529SOL     OW35524   3.566   8.640  10.840  0.0952 -0.3151  0.4168
43529SOL    HW135525   3.513   8.584  10.784 -0.2811  0.7997 -0.3556
43529SOL    HW235526   3.506   8.706  10.874  0.2190 -1.1569  2.4705
43530SOL     OW35527   5.186   5.358  10.051  0.1257 -0.4047 -0.7836
43530SOL    HW135528   5.211   5.272  10.085  1.7141 -0.0000 -0.8357
43530SOL    HW235529   5.202   5.353   9.957  0.3966 -0.0085 -0.7636
43531SOL     OW35530   9.468   2.221   0.933  0.1150  0.4788 -0.0510
43531SOL    HW135531   9.419   2.139   0.940  0.4957  0.2274 -0.2973
43531SOL    HW235532   9.457   2.263   1.019  0.3790 -0.0906  0.2672
43532SOL     OW35533   8.797   3.795   4.807 -0.0772  0.1578 -0.2089
43532SOL    HW135534   8.832   3.821   4.722 -1.3871 -0.5117 -0.9707
43532SOL    HW235535   8.717   3.747   4.787 -0.1058 -0.5164  1.3771
43533SOL     OW35536   7.315   5.727   6.863 -0.3731  0.6216 -0.5989
43533SOL    HW135537   7.397   5.707   6.907 -0.9977  0.6441  0.6124
43533SOL    HW235538   7.300   5.820   6.880 -0.4684  0.7127 -1.1475
43534SOL     OW35539   7.731  10.965   3.935  0.2154  0.3388  0.0565
43534SOL    HW135540   7.785  11.033   3.975  1.5614 -0.3225 -0.5641
43534SOL    HW235541   7.665  11.013   3.884 -0.3723  1.1675  1.5404
43535SOL     OW35542   0.283  10.301   6.106  0.3371 -0.2419  0.0099
43535SOL    HW135543   0.294  10.395   6.096  0.9678 -0.1300  1.5348
43535SOL    HW235544   0.289  10.285   6.200  0.4921 -1.8398 -0.2295
43536SOL     OW35545   7.899  10.919   7.361 -0.3603 -0.0725 -0.1349
43536SOL    HW135546   7.969  10.854   7.359  0.1249  0.2789  2.3979
43536SOL    HW235547   7.930  10.991   7.306  0.7431 -0.4223  0.0174
43537SOL     OW35548   9.240   3.341   7.218  0.2230  0.3457  0.3183
43537SOL    HW135549   9.147   3.333   7.200  0.1196  0.3560  0.8536
43537SOL    HW235550   9.281   3.278   7.159 -0.1889 -0.3009  0.7191
43538SOL     OW35551   9.040  11.479  11.675 -0.4916 -0.1296 -0.3485
43538SOL    HW135552   9.013  11.391  11.652 -2.4117  0.8424 -2.1196
43538SOL    HW235553   8.993  11.499  11.755  1.0445 -1.1645  0.8593
43539SOL     OW35554   8.921   5.345   4.765  0.3294 -0.4100  0.1810
43539SOL    HW135555   8.964   5.265   4.734  1.7886  0.1657  0.6476
43539SOL    HW235556   8.838   5.315   4.800  0.7619 -1.7036  0.1553
43540SOL     OW35557  10.122   4.583   9.398  0.3339 -0.4289  0.1647
43540SOL    HW135558  10.073   4.551   9.474  0.2154  0.1036  0.3160
43540SOL    HW235559  10.090   4.672   9.385  0.3057 -0.5409 -0.5571
43541SOL     OW35560  10.410   5.140   5.841 -0.3624 -0.2427 -0.0194
43541SOL    HW135561  10.367   5.211   5.889 -1.0978  1.0868 -2.4673
43541SOL    HW235562  10.385   5.061   5.888 -1.9596  0.8797  1.1259
43542SOL     OW35563   4.818   8.850   1.562  0.1345 -0.3586 -0.8706
43542SOL    HW135564   4.808   8.938   1.597 -0.0612 -0.8670  0.4048
43542SOL    HW235565   4.912   8.841   1.547  0.2956 -0.2810  0.0056
43543SOL     OW35566  10.704   8.958   3.577 -0.3561 -0.2829  0.0879
43543SOL    HW135567  10.664   8.876   3.605  0.1601 -1.4382 -2.3389
43543SOL    HW235568  10.671   9.023   3.639  1.4537 -2.6645  3.9794
43544SOL     OW35569  10.662   2.758   1.856  0.0511  0.1066 -0.3228
43544SOL    HW135570  10.629   2.845   1.877  1.7808  0.7319 -0.0524
43544SOL    HW235571  10.646   2.748   1.762 -0.9451  0.3359 -0.1888
43545SOL     OW35572   8.699   3.847   6.094 -0.1185  0.0605 -0.2779
43545SOL    HW135573   8.699   3.782   6.164 -0.5726  1.3012  0.9087
43545SOL    HW235574   8.742   3.803   6.020  0.3792 -1.2673  0.7716
43546SOL     OW35575   5.309   6.648   9.271  0.0571  0.0699 -0.7019
43546SOL    HW135576   5.232   6.673   9.220 -0.2373  1.1823  0.2626
43546SOL    HW235577   5.276   6.586   9.335  0.3636 -1.0454 -1.5792
43547SOL     OW35578   9.742   0.038   7.215  0.3843  0.1027 -0.4746
43547SOL    HW135579   9.752  -0.023   7.288  3.0318  0.4507 -0.4802
43547SOL    HW235580   9.647   0.054   7.211 -0.1893 -2.4315  0.7701
43548SOL     OW35581   8.019   7.681   1.761  0.0082  0.3878  0.1211
43548SOL    HW135582   7.951   7.748   1.771 -1.3436 -1.0865  1.3707
43548SOL    HW235583   8.027   7.669   1.666 -0.4972  1.5354 -0.0856
43549SOL     OW35584   3.272   1.633   2.352  0.3421 -0.1877 -0.4904
43549SOL    HW135585   3.282   1.642   2.446  0.6744  0.7300 -0.6011
43549SOL    HW235586   3.328   1.559   2.329 -0.9528 -1.4375  0.2180
43550SOL     OW35587   3.362   8.568   2.684 -0.3655 -0.1360  0.0049
43550SOL    HW135588   3.433   8.617   2.642 -1.4306  0.4577 -1.1435
43550SOL    HW235589   3.394   8.554   2.773  1.2243  0.0555 -0.4911
43551SOL     OW35590   5.913   9.174   8.161 -0.4804 -0.0372  0.3965
43551SOL    HW135591   5.992   9.228   8.167 -1.1703  1.0492  0.1620
43551SOL    HW235592   5.944   9.084   8.170  0.3342  0.4409  5.0897
43552SOL     OW35593   6.216   9.922  11.337  0.6999  0.3998  0.0794
43552SOL    HW135594   6.288   9.934  11.399  1.9715 -1.7490 -0.8727
43552SOL    HW235595   6.239   9.977  11.262  1.9382 -1.0672 -0.6522
43553SOL     OW35596   2.668   7.187  10.829 -0.2565 -0.2959  0.1538
43553SOL    HW135597   2.624   7.203  10.912 -0.4083 -1.2850  0.2814
43553SOL    HW235598   2.655   7.267  10.779 -3.5199 -1.0301 -0.3925
43554SOL     OW35599   5.378   8.343  10.847  0.2195  0.0865  0.1043
43554SOL    HW135600   5.308   8.400  10.816  0.4476  1.5496  2.0560
43554SOL    HW235601   5.454   8.366  10.793 -0.7005 -1.4655 -1.9796
43555SOL     OW35602   0.140   1.796   8.269  0.4929  0.6125  0.2984
43555SOL    HW135603   0.060   1.770   8.224 -0.0072  0.1772  1.4096
43555SOL    HW235604   0.194   1.716   8.270  0.3072  0.4900  0.8693
43556SOL     OW35605   4.428   4.241   4.196 -0.2748  0.4529 -0.4570
43556SOL    HW135606   4.338   4.208   4.195 -0.8369  1.8374  0.8075
43556SOL    HW235607   4.482   4.163   4.206 -1.5175 -0.2165  1.8393
43557SOL     OW35608   4.649   8.017   1.132  0.2654 -0.0588 -0.5420
43557SOL    HW135609   4.661   8.110   1.153 -0.0097  0.0025 -0.6414
43557SOL    HW235610   4.717   7.999   1.067 -0.3121  0.3425 -1.2753
43558SOL     OW35611   3.041   3.844  11.459  0.6191  0.0471  0.3289
43558SOL    HW135612   3.038   3.845  11.364  2.7844 -0.4483  0.2006
43558SOL    HW235613   3.116   3.899  11.481  0.1007  0.2239  1.7711
43559SOL     OW35614   7.542   7.381   1.171  0.1817  0.2013 -0.3875
43559SOL    HW135615   7.571   7.429   1.248  1.1867 -0.3151 -0.4226
43559SOL    HW235616   7.474   7.436   1.132 -1.1514 -0.0443  1.4665
43560SOL     OW35617   7.982  11.133   7.643 -0.0435 -0.2934  0.1834
43560SOL    HW135618   8.062  11.140   7.694 -0.2154  0.7319  0.3335
43560SOL    HW235619   7.985  11.045   7.605  1.6370  0.0634 -0.6162
43561SOL     OW35620   6.921   0.741  11.410 -0.3953 -0.2932  0.7907
43561SOL    HW135621   6.878   0.802  11.350 -0.9939 -1.4191  0.0441
43561SOL    HW235622   6.849   0.696  11.454  0.0161 -1.2705  0.4813
43562SOL     OW35623   8.415   3.698  10.311  0.5363 -0.0979 -0.0764
43562SOL    HW135624   8.343   3.742  10.356 -0.3967 -0.5658 -1.0719
43562SOL    HW235625   8.486   3.696  10.376 -0.4579  0.0496  1.0560
43563SOL     OW35626  11.338   7.189   2.571  0.9448 -0.2288  0.7735
43563SOL    HW135627  11.322   7.095   2.573  0.4516 -0.1731  0.0552
43563SOL    HW235628  11.291   7.220   2.493 -0.7284  0.9504  2.1700
43564SOL     OW35629   5.674   7.917   9.555  0.2917  0.0291  0.1116
43564SOL    HW135630   5.726   7.991   9.586  1.6879 -0.8273 -0.1242
43564SOL    HW235631   5.584   7.940   9.577  0.9459  0.7096  2.2658
43565SOL     OW35632   8.426   0.254   0.483  0.2852  0.6026 -0.3441
43565SOL    HW135633   8.472   0.196   0.423 -3.8612 -2.5682 -0.8618
43565SOL    HW235634   8.391   0.197   0.551 -2.0758  2.8143  0.4839
43566SOL     OW35635   9.749  10.847  10.541 -0.1301  0.0693  0.1234
43566SOL    HW135636   9.844  10.858  10.531  0.0417 -1.7637 -0.6224
43566SOL    HW235637   9.712  10.896  10.467  0.2048  0.9093  0.4964
43567SOL     OW35638   1.629  10.134   7.584 -0.3420 -0.3855  0.0343
43567SOL    HW135639   1.557  10.186   7.619 -1.1602 -1.4665 -0.0274
43567SOL    HW235640   1.606  10.043   7.603 -0.3537 -0.9676 -2.4134
43568SOL     OW35641   7.228  10.977   3.989 -0.1973 -0.3538 -0.1368
43568SOL    HW135642   7.206  11.003   4.078 -0.2375  0.0549 -0.2634
43568SOL    HW235643   7.143  10.969   3.945 -0.1353  0.6418 -0.4656
43569SOL     OW35644   8.733   4.948   9.407 -0.0101 -0.0301 -1.0154
43569SOL    HW135645   8.719   5.019   9.471  1.4709 -0.2305 -0.4252
43569SOL    HW235646   8.672   4.968   9.335 -0.6234  1.0485 -0.2257
43570SOL     OW35647   3.387   2.646   6.419  0.4073  0.4228  0.0494
43570SOL    HW135648   3.369   2.712   6.487  0.1905 -0.4965  0.9160
43570SOL    HW235649   3.469   2.605   6.447 -0.0143 -0.3980  0.1172
43571SOL     OW35650   6.711   1.937   3.563 -0.4747  0.2283  0.0229
43571SOL    HW135651   6.768   1.868   3.530 -1.2738 -0.7395  0.6263
43571SOL    HW235652   6.634   1.891   3.597 -1.1020  1.4244  0.2799
43572SOL     OW35653   8.692   8.871   9.582 -0.3991  0.1085  0.6763
43572SOL    HW135654   8.654   8.826   9.658  1.3458 -0.0907  1.4735
43572SOL    HW235655   8.738   8.802   9.534  1.0051  0.7456  1.0708
43573SOL     OW35656   4.004   8.101   7.477  0.7913  0.5462  0.4968
43573SOL    HW135657   4.027   8.023   7.426  0.1197 -0.0542  1.0820
43573SOL    HW235658   4.079   8.116   7.533  0.2313 -0.7817  1.6642
43574SOL     OW35659   1.163   7.601   2.557 -0.4827 -0.0393 -0.0695
43574SOL    HW135660   1.182   7.516   2.516 -1.7965  0.0128 -0.8523
43574SOL    HW235661   1.247   7.647   2.554  0.0113 -0.9206 -0.5928
43575SOL     OW35662   8.340   7.266   6.556 -0.2165 -0.3466  0.0801
43575SOL    HW135663   8.261   7.238   6.602 -0.5105  1.4375  0.7550
43575SOL    HW235664   8.412   7.239   6.613 -0.3156 -1.6921 -0.3853
43576SOL     OW35665   8.085   2.518   0.720 -0.2052  0.5483  0.3764
43576SOL    HW135666   8.173   2.484   0.734 -0.1269  1.2311  1.7057
43576SOL    HW235667   8.056   2.476   0.639  0.1022 -2.2020  1.5816
43577SOL     OW35668   3.264   0.194   8.492  0.0664  0.2741 -0.0013
43577SOL    HW135669   3.312   0.112   8.483 -1.8757 -1.2242  1.9780
43577SOL    HW235670   3.281   0.222   8.582  0.7100  2.1260 -0.6448
43578SOL     OW35671   0.061   8.356   4.867 -0.8979  0.3717  0.3508
43578SOL    HW135672   0.000   8.287   4.891 -1.5224 -0.2226 -2.5194
43578SOL    HW235673   0.133   8.348   4.929 -1.1014 -2.6807  0.3292
43579SOL     OW35674   4.799   8.120   0.050  0.0171  0.0898 -0.2145
43579SOL    HW135675   4.819   8.107   0.143 -0.3486  1.4559  0.0842
43579SOL    HW235676   4.876   8.088   0.004 -0.0465 -1.1783  0.5128
43580SOL     OW35677  10.363   6.927   3.182  0.1102  0.5681  0.5623
43580SOL    HW135678  10.428   6.906   3.250 -0.0711  1.3232  0.9799
43580SOL    HW235679  10.398   7.005   3.139 -0.5152  0.9794  0.7903
43581SOL     OW35680  10.457   2.625   9.736  0.0133  0.5560  0.4347
43581SOL    HW135681  10.420   2.606   9.822  1.5942 -0.0988  0.9997
43581SOL    HW235682  10.447   2.720   9.727 -1.2441  0.4778  0.8010
43582SOL     OW35683   8.338   4.796   3.450 -0.0083  0.1151  0.3420
43582SOL    HW135684   8.353   4.754   3.534 -0.7870 -0.3535  0.2587
43582SOL    HW235685   8.246   4.822   3.452 -0.4606 -1.2544 -0.9429
43583SOL     OW35686   6.578   4.571   0.471 -0.0332  0.3750 -0.2397
43583SOL    HW135687   6.489   4.571   0.438  0.3738  0.1894 -1.3938
43583SOL    HW235688   6.633   4.568   0.392  0.9780 -0.1405  0.4626
43584SOL     OW35689   5.867   5.224  10.199  0.5267  0.4042 -0.1625
43584SOL    HW135690   5.878   5.306  10.249  1.9853 -0.4149  0.9761
43584SOL    HW235691   5.938   5.226  10.135  2.8177 -1.4178  2.0994
43585SOL     OW35692   1.618  11.566   5.249 -0.5076 -0.3493  0.0383
43585SOL    HW135693   1.661  11.647   5.278 -1.0235  0.2206 -0.7269
43585SOL    HW235694   1.686  11.521   5.198  0.0868 -0.8833  1.2684
43586SOL     OW35695   6.359  10.594   0.619 -0.1721  0.2853  0.8816
43586SOL    HW135696   6.286  10.533   0.604 -0.3127  0.6505  0.0200
43586SOL    HW235697   6.430  10.539   0.650 -0.0127 -0.4947 -0.7329
43587SOL     OW35698   6.800   3.325   1.124 -0.3082  0.5746  0.2169
43587SOL    HW135699   6.892   3.334   1.147 -0.0390 -0.9332 -0.1362
43587SOL    HW235700   6.761   3.410   1.145  0.8548  0.7665  1.7572
43588SOL     OW35701   5.262   6.911   9.002  0.1454  0.4246  0.1562
43588SOL    HW135702   5.354   6.886   8.993 -0.0448 -0.0436 -0.5967
43588SOL    HW235703   5.214   6.828   9.002 -0.3432  0.6994 -0.4172
43589SOL     OW35704   7.397   9.976   1.377  0.1233  0.3377  0.3691
43589SOL    HW135705   7.402   9.906   1.312  1.2777 -1.1340  1.9399
43589SOL    HW235706   7.479  10.025   1.365  2.0159 -1.9433  2.7172
43590SOL     OW35707   8.317   2.009   6.057  0.7178 -0.1194 -0.3246
43590SOL    HW135708   8.309   2.009   5.961  0.8953 -1.3887 -0.3651
43590SOL    HW235709   8.228   2.018   6.089  0.5868 -0.3433 -0.6210
43591SOL     OW35710   9.383   9.686   9.270  0.6126 -0.0870 -0.1771
43591SOL    HW135711   9.416   9.689   9.360 -0.3784  0.3150  0.1882
43591SOL    HW235712   9.418   9.605   9.234  1.2258 -0.1273  0.4840
43592SOL     OW35713   9.545   0.512  10.342 -0.5055  0.0551 -0.2437
43592SOL    HW135714   9.451   0.493  10.340 -0.2545 -1.3145 -0.1321
43592SOL    HW235715   9.571   0.497  10.433  0.1528 -1.4150 -0.6440
43593SOL     OW35716  10.465   0.696   0.137  0.2886  0.1101 -0.0506
43593SOL    HW135717  10.507   0.622   0.182  2.0730  2.8446  3.1613
43593SOL    HW235718  10.377   0.700   0.174 -0.0566 -0.7033 -0.7286
43594SOL     OW35719  11.403  10.219   4.861 -0.8484  0.9717  0.0637
43594SOL    HW135720  11.492  10.251   4.844 -0.7772  0.4739 -0.5529
43594SOL    HW235721  11.353  10.246   4.784 -1.2062  1.1733  0.3694
43595SOL     OW35722  10.376   3.929   9.672  0.3039  0.2973 -0.1715
43595SOL    HW135723  10.309   3.997   9.684 -1.0720 -1.3160  2.1346
43595SOL    HW235724  10.344   3.855   9.723  2.6833 -1.4417 -1.0363
43596SOL     OW35725   1.675   2.243   2.610 -0.0411 -0.3476  0.5922
43596SOL    HW135726   1.705   2.248   2.519  0.2353 -0.7819  0.6525
43596SOL    HW235727   1.637   2.329   2.627 -1.4491 -0.7390 -0.3946
43597SOL     OW35728   2.044   7.820   8.167  0.2254 -0.0632 -0.4970
43597SOL    HW135729   1.990   7.831   8.246  0.7746  1.0551 -0.2608
43597SOL    HW235730   2.084   7.734   8.178 -1.1952 -0.7600 -0.4922
43598SOL     OW35731   0.925   9.794   2.102 -0.4538  0.3964  0.0074
43598SOL    HW135732   0.838   9.794   2.140 -0.7053 -0.2714 -0.5320
43598SOL    HW235733   0.912   9.819   2.011  0.1578  2.1394  0.3682
43599SOL     OW35734   5.094   5.978   1.227  0.6920  0.2755  0.5066
43599SOL    HW135735   5.118   5.981   1.134  0.1597  0.0522  0.3586
43599SOL    HW235736   5.054   5.892   1.238  2.5276 -0.5264  1.3914
43600SOL     OW35737   2.390   6.439   4.886  0.1842 -0.0826  0.3560
43600SOL    HW135738   2.356   6.527   4.874  0.0674 -0.2879 -0.9502
43600SOL    HW235739   2.313   6.383   4.891  0.2692 -0.3343 -0.8307
43601SOL     OW35740   6.599   1.544   1.084 -0.1430  0.1926  0.1773
43601SOL    HW135741   6.534   1.613   1.075 -0.0550  0.1426 -0.9522
43601SOL    HW235742   6.657   1.556   1.009 -0.1721 -1.1485 -0.0747
43602SOL     OW35743   1.632   6.270   0.016 -0.2391  0.7066  0.2815
43602SOL    HW135744   1.576   6.265  -0.062  0.8122  2.9478 -0.6851
43602SOL    HW235745   1.707   6.214  -0.005 -0.8350 -0.2065  0.5077
43603SOL     OW35746   2.463   6.527   4.259  0.0317 -0.3777  0.4722
43603SOL    HW135747   2.427   6.443   4.289 -0.5519 -0.5470 -0.6764
43603SOL    HW235748   2.552   6.506   4.229 -1.1172 -1.2563 -2.7044
43604SOL     OW35749   8.736   3.503   4.711  0.0488 -0.6542  0.1293
43604SOL    HW135750   8.829   3.502   4.687 -0.3618  1.7849 -1.9864
43604SOL    HW235751   8.700   3.423   4.673  0.6144  0.2482 -2.5160
43605SOL     OW35752   4.182   2.046   4.495  0.2684 -0.0854 -0.5600
43605SOL    HW135753   4.205   1.971   4.440 -0.6147 -0.7001 -0.1318
43605SOL    HW235754   4.099   2.078   4.459 -0.1705 -0.3120  0.2045
43606SOL     OW35755   6.520  10.541   9.072 -0.6731 -0.1524  0.5920
43606SOL    HW135756   6.604  10.565   9.034 -0.7721 -1.7261 -0.7402
43606SOL    HW235757   6.465  10.618   9.058 -0.5640 -0.4638 -2.1747
43607SOL     OW35758   4.777   9.325  10.549 -0.2426  0.3749 -0.3312
43607SOL    HW135759   4.770   9.282  10.464  0.7876  1.0291 -0.7674
43607SOL    HW235760   4.764   9.255  10.613 -0.3318 -0.2536 -1.0319
43608SOL     OW35761   6.012  10.012   4.634 -0.2404  0.0838  0.3781
43608SOL    HW135762   5.932  10.060   4.613  0.0039 -0.4201 -2.0733
43608SOL    HW235763   5.993   9.922   4.611  1.8674  0.3688 -3.5297
43609SOL     OW35764   7.725   2.721   7.788  0.1541  0.6953 -0.4081
43609SOL    HW135765   7.714   2.748   7.879 -1.2813  1.7420 -0.8625
43609SOL    HW235766   7.705   2.799   7.737 -4.0302 -1.0103 -1.7932
43610SOL     OW35767  10.128  10.189   5.202 -0.5805  0.5722 -0.2530
43610SOL    HW135768  10.092  10.222   5.284  0.1386  1.3009 -0.2178
43610SOL    HW235769  10.219  10.167   5.222 -0.4537  0.5633 -0.7983
43611SOL     OW35770   2.734   3.328   5.055 -0.3010  0.7703 -0.3363
43611SOL    HW135771   2.749   3.235   5.075  2.1062  0.9873 -0.8270
43611SOL    HW235772   2.806   3.351   4.996 -0.0961  3.2749  0.7759
43612SOL     OW35773   5.089   4.366   8.596  0.1543 -0.1907  0.7872
43612SOL    HW135774   5.102   4.274   8.617  0.0798 -0.1842  0.8631
43612SOL    HW235775   5.176   4.406   8.605  0.3454 -0.4072 -0.0366
43613SOL     OW35776   2.162   7.229   1.721 -0.1639 -0.2994  0.1367
43613SOL    HW135777   2.149   7.296   1.787 -0.6825 -1.3879  1.1839
43613SOL    HW235778   2.084   7.233   1.666  0.5768  1.0678 -0.8758
43614SOL     OW35779   9.290   0.054   1.029 -0.3421  0.3696  0.5773
43614SOL    HW135780   9.248   0.127   1.075  0.2114  0.9019  0.2587
43614SOL    HW235781   9.357   0.022   1.090  0.7892  1.4540 -0.0558
43615SOL     OW35782   6.233   4.666   8.478 -0.6567  0.3436 -0.0610
43615SOL    HW135783   6.299   4.644   8.412  0.1766  0.4214  0.7291
43615SOL    HW235784   6.153   4.682   8.428 -0.0853  0.2094 -1.0335
43616SOL     OW35785   4.854   1.716   3.284 -0.0334  0.3072  0.1933
43616SOL    HW135786   4.822   1.642   3.336 -1.0206  0.7194  0.1984
43616SOL    HW235787   4.946   1.724   3.308  0.2503 -1.2910 -0.2687
43617SOL     OW35788   3.462   8.888   3.689 -0.0069 -0.8100 -0.5835
43617SOL    HW135789   3.390   8.828   3.711  0.1618 -0.4639  1.0992
43617SOL    HW235790   3.436   8.971   3.728  1.0059 -0.5147 -0.5008
43618SOL     OW35791   9.151   5.433  10.022 -0.0154 -1.0528 -0.2092
43618SOL    HW135792   9.087   5.399  10.084  0.5811 -1.7449  0.0404
43618SOL    HW235793   9.136   5.383   9.942  0.1488 -1.1528 -0.1785
43619SOL     OW35794   8.559   6.890   9.121 -0.1432 -0.2225  0.2859
43619SOL    HW135795   8.517   6.894   9.207 -2.4166  0.7011 -0.7868
43619SOL    HW235796   8.515   6.957   9.070  2.4156  0.5133 -1.1303
43620SOL     OW35797   2.596   9.232   9.246 -0.3624 -0.3545  0.1536
43620SOL    HW135798   2.549   9.314   9.236  2.0381  1.0746 -0.2525
43620SOL    HW235799   2.589   9.211   9.339 -0.8941  0.3818  0.2862
43621SOL     OW35800   6.265   3.661   4.346  0.2601 -0.0009 -0.4387
43621SOL    HW135801   6.261   3.743   4.297 -1.8797  1.4028  1.8453
43621SOL    HW235802   6.215   3.599   4.293 -0.7100  1.0493 -0.7918
43622SOL     OW35803  10.890   5.151   9.951 -0.2988 -0.0981 -0.1923
43622SOL    HW135804  10.956   5.081   9.950  1.0047  1.0669 -2.1499
43622SOL    HW235805  10.847   5.144   9.866 -1.0103  0.7192  0.0881
43623SOL     OW35806   9.824   0.637   0.954  0.3560  0.5824  0.2002
43623SOL    HW135807   9.749   0.692   0.978  0.0142 -0.8274  2.7427
43623SOL    HW235808   9.896   0.668   1.008  0.9333  0.2752 -0.3694
43624SOL     OW35809   1.198   3.593   2.850  0.2694  0.0177 -0.5332
43624SOL    HW135810   1.204   3.526   2.918 -0.0642 -0.6497 -1.1557
43624SOL    HW235811   1.135   3.657   2.885 -1.5876 -1.4183 -1.0979
43625SOL     OW35812   9.388   9.509   0.182 -0.7941 -0.0829 -0.2387
43625SOL    HW135813   9.467   9.555   0.155  0.1239 -1.1225  0.6147
43625SOL    HW235814   9.360   9.553   0.262 -0.3444 -0.5411  0.1678
43626SOL     OW35815  10.264   8.559   6.252  0.1797 -0.3468 -0.1933
43626SOL    HW135816  10.357   8.544   6.271  0.6725 -0.2967 -2.3021
43626SOL    HW235817  10.249   8.650   6.280  0.6524 -0.4771  0.5198
43627SOL     OW35818   0.670   1.931   6.991  0.8287 -0.0447  0.0206
43627SOL    HW135819   0.749   1.906   6.942 -0.6389 -1.7089 -1.6301
43627SOL    HW235820   0.608   1.860   6.974 -0.8199  0.8983  1.8071
43628SOL     OW35821   0.454   2.981   8.702  0.1313 -0.1795  0.2063
43628SOL    HW135822   0.514   2.983   8.777  1.6853 -0.6314 -0.9675
43628SOL    HW235823   0.503   3.023   8.632 -1.6385  1.0474 -0.3582
43629SOL     OW35824   1.822   5.939  11.265 -0.4336 -0.0602  0.2216
43629SOL    HW135825   1.890   6.004  11.251  0.6653 -1.6365 -2.4368
43629SOL    HW235826   1.857   5.858  11.228 -2.4492 -1.7669  1.7592
43630SOL     OW35827   7.255   1.638   6.067  0.2218  0.2226 -0.2310
43630SOL    HW135828   7.182   1.648   6.006 -1.3369 -0.2962  1.4791
43630SOL    HW235829   7.258   1.720   6.115 -0.8312 -0.6011  1.3283
43631SOL     OW35830   9.703   4.861  10.690  0.2811 -0.2185 -0.6433
43631SOL    HW135831   9.767   4.881  10.758 -0.2996  0.5483 -0.3049
43631SOL    HW235832   9.673   4.772  10.711 -1.4001  0.7229  1.3947
43632SOL     OW35833   7.034   2.882   1.816 -0.1465  0.0301 -0.1616
43632SOL    HW135834   6.957   2.930   1.784  0.7159  1.4714 -0.1506
43632SOL    HW235835   7.105   2.945   1.813  1.3579 -1.6076 -1.3590
43633SOL     OW35836   0.457   8.829   3.643 -0.6880 -0.8292 -0.3185
43633SOL    HW135837   0.503   8.892   3.588 -1.9620 -0.2538 -0.7583
43633SOL    HW235838   0.526   8.770   3.674  0.2914 -0.2005 -1.2153
43634SOL     OW35839   9.066   3.696   2.131  0.5608 -0.7118 -0.5940
43634SOL    HW135840   9.050   3.695   2.037  0.6584  0.7377 -0.6551
43634SOL    HW235841   9.157   3.667   2.140  0.5414 -0.8848 -0.9474
43635SOL     OW35842   2.944   9.951   4.850 -0.3215  0.1539  0.3038
43635SOL    HW135843   2.913   9.971   4.938  1.3556 -2.9943  1.7790
43635SOL    HW235844   3.017  10.011   4.836 -0.8564  0.9612  0.8407
43636SOL     OW35845   4.382  10.843   7.500  0.1740 -0.3136 -0.1145
43636SOL    HW135846   4.439  10.833   7.576  0.1314  1.2386  0.1600
43636SOL    HW235847   4.437  10.885   7.433 -0.2376 -0.1321 -0.3463
43637SOL     OW35848   4.582   6.993   9.377 -0.0566  0.1835 -0.3984
43637SOL    HW135849   4.488   6.996   9.358 -0.2037  0.8251  0.3563
43637SOL    HW235850   4.612   7.082   9.363 -0.0787  0.5794  1.7369
43638SOL     OW35851   1.035   5.812   3.374 -0.4580  0.0214 -0.4373
43638SOL    HW135852   1.100   5.775   3.315  1.3856 -0.7249  1.8836
43638SOL    HW235853   1.085   5.873   3.429 -1.8161 -0.1380  1.0374
43639SOL     OW35854   7.494   1.557   0.530  0.7103  0.0347  0.0317
43639SOL    HW135855   7.550   1.548   0.607  1.5069 -4.8380 -0.8224
43639SOL    HW235856   7.405   1.556   0.566  1.0809 -1.1382  0.9771
43640SOL     OW35857   3.414   8.027   0.793  0.2971 -0.1989  0.3902
43640SOL    HW135858   3.488   7.969   0.810 -0.6097 -1.4048  0.3737
43640SOL    HW235859   3.345   7.969   0.760 -0.0775  1.1587 -1.3330
43641SOL     OW35860   0.802   3.508   0.722  0.0617 -0.5354  0.5164
43641SOL    HW135861   0.855   3.587   0.731 -0.0500 -0.6256  2.5392
43641SOL    HW235862   0.843   3.445   0.781 -1.1491 -1.2494  0.6307
43642SOL     OW35863   1.571   6.264   4.150  0.3472  0.6157  0.0602
43642SOL    HW135864   1.531   6.212   4.220 -0.7222  3.5574  1.8032
43642SOL    HW235865   1.652   6.298   4.189  0.2380  1.5026 -0.4680
43643SOL     OW35866   2.854   8.507   6.416  0.7921 -0.0321 -0.5521
43643SOL    HW135867   2.903   8.430   6.389 -0.5610 -2.1643  2.5049
43643SOL    HW235868   2.890   8.529   6.502 -0.4561  1.2869 -0.3328
43644SOL     OW35869   5.938   9.180   5.816 -0.4002  0.1917  0.3685
43644SOL    HW135870   6.025   9.199   5.781 -0.5712 -0.1476 -0.2610
43644SOL    HW235871   5.953   9.157   5.908  0.1056  0.6897  0.4100
43645SOL     OW35872   8.652  11.071   9.080 -0.2538  0.2207  0.2234
43645SOL    HW135873   8.560  11.063   9.055  0.3776 -1.9555 -1.7846
43645SOL    HW235874   8.672  11.164   9.069 -2.0241  0.6106  0.0446
43646SOL     OW35875  10.101   6.981   3.062 -0.2404 -0.4578  0.1766
43646SOL    HW135876  10.133   7.029   2.986 -0.3711  0.3385  0.6104
43646SOL    HW235877  10.158   6.904   3.067  0.8543  0.3150  0.2238
43647SOL     OW35878   0.972   8.723   6.985 -0.3202  0.4855 -0.2554
43647SOL    HW135879   0.982   8.809   7.024  0.1377  1.2730 -1.9977
43647SOL    HW235880   0.987   8.737   6.891 -0.8008 -1.3868 -0.6624
43648SOL     OW35881   6.856   6.156   6.190 -0.1123  0.2913  0.4498
43648SOL    HW135882   6.783   6.096   6.205 -0.9320  0.8173 -1.2178
43648SOL    HW235883   6.845   6.185   6.100  1.5349  1.2526  0.5255
43649SOL     OW35884   1.184   2.697   3.282 -0.1572 -0.8114  0.1222
43649SOL    HW135885   1.148   2.611   3.300  0.7115 -1.1530  0.2922
43649SOL    HW235886   1.237   2.685   3.203 -0.4667 -0.3147 -0.1623
43650SOL     OW35887   7.270   9.314   8.681 -0.2776 -0.7592 -0.3498
43650SOL    HW135888   7.336   9.257   8.643  0.5951 -1.0768  1.5075
43650SOL    HW235889   7.320   9.370   8.742 -1.4120  0.5182 -0.5521
43651SOL     OW35890   8.314   1.317   9.746  0.8851 -0.7006  0.3171
43651SOL    HW135891   8.236   1.262   9.741  1.1556 -1.0172 -0.7135
43651SOL    HW235892   8.356   1.292   9.828 -0.2376 -0.3054  1.0458
43652SOL     OW35893   0.616  10.778   1.179  0.0887  0.0627 -0.1842
43652SOL    HW135894   0.566  10.697   1.169  0.9505 -0.7648  1.7202
43652SOL    HW235895   0.637  10.782   1.273  0.4425  2.2747 -0.3048
43653SOL     OW35896   7.169   3.524   9.838 -0.2330 -0.5385 -0.1513
43653SOL    HW135897   7.218   3.449   9.805  0.9687  0.1274  0.0305
43653SOL    HW235898   7.144   3.573   9.759 -0.6797 -0.9204 -0.2503
43654SOL     OW35899   3.078  11.602   2.794 -0.2220 -0.5256 -0.3813
43654SOL    HW135900   3.089  11.697   2.804 -1.4930 -0.3957 -0.0344
43654SOL    HW235901   3.158  11.573   2.750  0.7847  0.5047  0.6909
43655SOL     OW35902   2.666   3.487   1.651 -0.6801 -0.0756 -1.1114
43655SOL    HW135903   2.635   3.396   1.658  0.7708 -0.6281 -1.5398
43655SOL    HW235904   2.670   3.518   1.741 -2.0900 -0.0996 -1.0157
43656SOL     OW35905  10.830   4.607   7.150 -0.2982 -0.5761 -0.0002
43656SOL    HW135906  10.804   4.605   7.058 -2.6322  0.5841  0.5467
43656SOL    HW235907  10.793   4.528   7.187 -0.2515 -0.5247  0.1554
43657SOL     OW35908   9.204   2.104   1.726  0.6397  0.0408 -0.1452
43657SOL    HW135909   9.158   2.101   1.810  1.7769  2.8209  0.6890
43657SOL    HW235910   9.142   2.068   1.663 -1.6997  1.2351  1.3291
43658SOL     OW35911   6.544   5.816   3.672 -0.2881  0.1401  0.2628
43658SOL    HW135912   6.499   5.733   3.659 -1.7728  1.0490 -0.6573
43658SOL    HW235913   6.484   5.868   3.725  0.6974  0.5862  0.9709
43659SOL     OW35914   7.936  11.243   5.852  0.4921  0.2774  0.1669
43659SOL    HW135915   7.939  11.153   5.886  1.1751  0.0650 -0.4404
43659SOL    HW235916   7.964  11.297   5.926  0.5212 -0.0475  0.3964
43660SOL     OW35917   3.958   0.279   4.128 -0.1776 -0.4128 -0.6435
43660SOL    HW135918   3.937   0.284   4.221  0.4746  1.4702 -0.5446
43660SOL    HW235919   4.041   0.233   4.124 -0.9035 -1.7831 -0.4472
43661SOL     OW35920   8.013   6.904  10.867  0.2779  0.1542 -0.1476
43661SOL    HW135921   8.026   6.853  10.947  1.3608 -1.4781 -1.2852
43661SOL    HW235922   8.010   6.995  10.897 -0.9701 -0.4916  1.8893
43662SOL     OW35923   6.120  11.339   3.788 -0.2736  0.2094  0.2693
43662SOL    HW135924   6.170  11.343   3.706  1.7340  1.2660  1.4583
43662SOL    HW235925   6.033  11.372   3.765  0.5965  1.6204 -1.2083
43663SOL     OW35926   4.982   7.573   9.472 -0.1257 -0.0371 -0.0059
43663SOL    HW135927   5.010   7.624   9.548 -0.8274 -0.2856  0.4321
43663SOL    HW235928   5.044   7.500   9.468 -0.3504 -0.2631  0.5922
43664SOL     OW35929   5.483   1.118   8.415 -0.0002  0.0055  0.8172
43664SOL    HW135930   5.496   1.119   8.510 -3.2996 -1.0103  1.4280
43664SOL    HW235931   5.495   1.027   8.390 -0.9638 -0.0800  0.6268
43665SOL     OW35932   5.614   4.405   9.349 -0.1178  0.1195 -0.2281
43665SOL    HW135933   5.554   4.376   9.418 -0.7890  0.0700 -0.8222
43665SOL    HW235934   5.684   4.450   9.396 -0.3050 -0.3489  0.5225
43666SOL     OW35935   0.653  10.169   1.548  0.1698  0.1954 -0.1837
43666SOL    HW135936   0.590  10.155   1.478 -0.8638  3.0164  0.0700
43666SOL    HW235937   0.651  10.088   1.600 -2.0788 -0.3660 -1.0749
43667SOL     OW35938   5.044   5.471   4.339  0.5559 -0.1675  0.0094
43667SOL    HW135939   5.126   5.422   4.341 -0.0883 -1.5116 -2.2744
43667SOL    HW235940   4.979   5.407   4.310 -0.4831  1.8080 -2.3578
43668SOL     OW35941   9.067   9.141   4.767 -0.7546  0.3367  0.3395
43668SOL    HW135942   9.063   9.080   4.693  0.6632  0.8167 -0.1694
43668SOL    HW235943   8.977   9.145   4.799 -1.9982  1.9821 -2.8883
43669SOL     OW35944   0.163   3.517  10.790  0.1681 -0.8621 -0.0528
43669SOL    HW135945   0.189   3.600  10.829 -2.0762  0.3235 -0.8866
43669SOL    HW235946   0.211   3.514  10.706  1.1295 -0.9991  0.4845
43670SOL     OW35947   3.758   0.907   5.005  0.0727  0.1041  0.6254
43670SOL    HW135948   3.818   0.981   4.998 -0.8482  0.9512  1.2541
43670SOL    HW235949   3.751   0.873   4.916 -1.1627  2.1851 -0.1621
43671SOL     OW35950   4.428  10.729   3.701 -0.0427  0.1932  0.1050
43671SOL    HW135951   4.370  10.693   3.769 -0.8395 -0.1594 -0.7494
43671SOL    HW235952   4.371  10.782   3.646  0.6749  0.7974 -0.0803
43672SOL     OW35953   0.966   1.522   8.659  0.2521  0.1931  0.4278
43672SOL    HW135954   0.968   1.617   8.670  0.5827  0.1245  1.0297
43672SOL    HW235955   1.057   1.498   8.641  0.1170  0.0209 -0.0451
43673SOL     OW35956   3.359   7.896   1.635  0.4038 -0.0528 -0.1465
43673SOL    HW135957   3.302   7.877   1.709 -1.2600 -0.0779 -1.3720
43673SOL    HW235958   3.442   7.922   1.675 -0.5258  0.2328  1.7212
43674SOL     OW35959   1.457  10.753   8.785 -0.0537 -0.7352  0.0760
43674SOL    HW135960   1.501  10.829   8.748 -1.2076 -1.2473 -2.6233
43674SOL    HW235961   1.508  10.678   8.753 -0.2298 -1.1741  0.8013
43675SOL     OW35962   8.821   3.400   9.063 -0.5008  0.6198  0.3506
43675SOL    HW135963   8.729   3.424   9.068 -1.2131 -1.6990 -0.5304
43675SOL    HW235964   8.847   3.382   9.154 -1.2384  0.1968  0.4788
43676SOL     OW35965   6.875   8.856   8.965 -0.5666  0.2327 -0.4617
43676SOL    HW135966   6.816   8.835   9.037 -1.8950  0.7843 -1.3597
43676SOL    HW235967   6.820   8.852   8.886  0.9482 -0.9007 -1.5418
43677SOL     OW35968   0.802   5.447  10.805  0.7757 -0.4073 -0.2358
43677SOL    HW135969   0.783   5.540  10.801  0.5576 -0.2700  2.5185
43677SOL    HW235970   0.836   5.426  10.718 -0.7615  1.8425 -1.4781
43678SOL     OW35971   2.042   7.914  11.181  0.0096  0.0754  0.2354
43678SOL    HW135972   2.047   7.824  11.149  0.7223  0.2660 -0.2086
43678SOL    HW235973   1.953   7.942  11.158  1.1330  0.9668 -3.7599
43679SOL     OW35974   2.637   9.248  11.264  0.0920  0.3759 -0.4964
43679SOL    HW135975   2.690   9.238  11.184  1.4208 -1.3186  0.5100
43679SOL    HW235976   2.694   9.296  11.324  0.0357 -0.3867  0.1857
43680SOL     OW35977   9.552   4.051   0.859 -0.2733  0.1640  0.5021
43680SOL    HW135978   9.607   4.102   0.919 -1.1483  0.8712  0.7072
43680SOL    HW235979   9.475   4.105   0.845  0.2887  0.4329 -1.9948
43681SOL     OW35980  10.225   7.167   2.089 -0.1734  0.6109  0.5687
43681SOL    HW135981  10.178   7.124   2.160 -1.4128  0.5399 -0.2716
43681SOL    HW235982  10.314   7.132   2.095 -0.6327 -0.5107  1.1749
43682SOL     OW35983   4.650   6.080   5.814 -0.2419  0.0161 -0.3884
43682SOL    HW135984   4.578   6.123   5.768 -1.2182 -0.1571  0.8912
43682SOL    HW235985   4.608   6.038   5.889  1.0592 -0.9894 -0.1823
43683SOL     OW35986   6.615   7.981  10.704 -0.5454 -0.4339 -0.4594
43683SOL    HW135987   6.694   7.952  10.659 -0.0997 -0.4673  0.3302
43683SOL    HW235988   6.606   7.921  10.778 -0.7036  0.2463  0.0831
43684SOL     OW35989   7.441   5.075   3.555  0.3107  0.2272  0.7365
43684SOL    HW135990   7.456   5.070   3.461  1.5539  0.9322  0.8782
43684SOL    HW235991   7.490   5.001   3.591  1.1502  0.8698  0.9511
43685SOL     OW35992   4.400   7.345   7.561  0.0778 -0.1258  0.6214
43685SOL    HW135993   4.390   7.285   7.635  2.0475 -0.5670  0.5859
43685SOL    HW235994   4.451   7.419   7.597  1.0230 -0.3258 -0.2503
43686SOL     OW35995   0.472  11.556  10.664 -0.2732 -0.0497 -0.2801
43686SOL    HW135996   0.529  11.585  10.593 -1.6407 -2.8164 -2.7304
43686SOL    HW235997   0.440  11.637  10.703  2.7951  1.5930 -0.8091
43687SOL     OW35998  11.214   0.920   7.701 -0.0458  0.2623  0.0302
43687SOL    HW135999  11.170   0.868   7.633  0.4748  1.8204 -1.5569
43687SOL    HW236000  11.142   0.957   7.752 -0.4532 -0.7024  0.1835
43688SOL     OW36001   3.504   6.226   8.344 -0.4052  0.4813  0.1212
43688SOL    HW136002   3.532   6.158   8.282 -2.7426 -0.1263 -0.3659
43688SOL    HW236003   3.438   6.276   8.296 -0.7042  1.3705  1.4203
43689SOL     OW36004   2.067   5.983   4.397 -0.2378  0.7198 -0.0845
43689SOL    HW136005   1.993   6.044   4.391 -1.6951 -0.8345  1.0436
43689SOL    HW236006   2.074   5.947   4.308  0.5431  2.3414 -0.7257
43690SOL     OW36007   0.756   3.266   7.545 -0.4116 -0.1091 -0.6024
43690SOL    HW136008   0.807   3.208   7.602 -0.8798 -0.9074 -0.9753
43690SOL    HW236009   0.821   3.325   7.506  0.0083 -0.0706  0.1498
43691SOL     OW36010   6.175   0.457   0.111 -0.0433 -0.1210 -0.2733
43691SOL    HW136011   6.148   0.529   0.168 -0.4514 -0.0831 -0.5030
43691SOL    HW236012   6.270   0.451   0.122 -0.1451 -0.2796  0.5883
43692SOL     OW36013   0.436   1.374   1.605  0.5967 -0.1572  0.2625
43692SOL    HW136014   0.491   1.449   1.583  2.2897 -1.2828  0.4190
43692SOL    HW236015   0.379   1.405   1.674  0.4032  1.3212 -0.5252
43693SOL     OW36016   9.255   9.697   3.535 -0.1603  0.0770  0.1629
43693SOL    HW136017   9.196   9.691   3.460  0.7472 -0.7603 -0.5128
43693SOL    HW236018   9.234   9.781   3.576 -0.0342  1.0028 -1.5766
43694SOL     OW36019   5.426  10.626   7.563 -0.3539  0.2742 -0.4702
43694SOL    HW136020   5.503  10.659   7.519 -0.5032  0.1291 -0.8395
43694SOL    HW236021   5.414  10.537   7.530  0.5093 -0.4734  1.1053
43695SOL     OW36022   3.329   3.590   8.153  0.3445  0.1869 -0.3123
43695SOL    HW136023   3.332   3.534   8.230  1.1488 -0.2718 -0.6654
43695SOL    HW236024   3.287   3.671   8.183  2.4930  0.8365  1.1544
43696SOL     OW36025   4.381   5.432   8.279 -0.4955  0.2715 -0.1011
43696SOL    HW136026   4.367   5.418   8.185  0.2197 -0.3373 -0.1288
43696SOL    HW236027   4.425   5.516   8.285  0.6293 -0.2781 -0.4226
43697SOL     OW36028   7.430   6.039  10.425  0.2887 -0.0814 -0.2578
43697SOL    HW136029   7.469   6.073  10.344  2.6011  1.1322  1.2488
43697SOL    HW236030   7.447   6.107  10.490 -1.2008 -1.1616  1.3628
43698SOL     OW36031   2.175   0.835   9.433 -0.5404  0.1320 -0.3898
43698SOL    HW136032   2.081   0.833   9.415 -0.9012 -0.1583  1.3807
43698SOL    HW236033   2.211   0.765   9.379 -1.4798 -0.3803 -0.3697
43699SOL     OW36034   7.578  11.416   1.117 -0.1213  0.3954 -0.0258
43699SOL    HW136035   7.624  11.403   1.034 -0.3661 -0.8767  0.0130
43699SOL    HW236036   7.552  11.328   1.144  0.5533  0.6934  1.7526
43700SOL     OW36037  10.033  10.929   1.341 -0.7008  0.1953  0.5718
43700SOL    HW136038  10.022  10.931   1.246  1.4149  0.8941  0.3082
43700SOL    HW236039   9.992  11.010   1.371  0.0783  0.7821  0.0697
43701SOL     OW36040   1.479   1.521   7.962 -0.4624 -0.1552  0.2155
43701SOL    HW136041   1.436   1.467   7.895 -0.7329  0.6072 -0.2334
43701SOL    HW236042   1.419   1.594   7.976 -0.1610 -0.0358  0.9213
43702SOL     OW36043   4.601   9.876   9.069  0.4485 -0.3033  0.4855
43702SOL    HW136044   4.509   9.859   9.051  0.2655  0.9188  0.1412
43702SOL    HW236045   4.645   9.856   8.987 -0.0251  2.5928 -0.5918
43703SOL     OW36046   5.373   8.463  11.531 -0.3852 -0.2033 -0.2324
43703SOL    HW136047   5.292   8.470  11.480  0.0948  1.5141 -0.8493
43703SOL    HW236048   5.370   8.538  11.591  0.6940 -0.1742 -0.1902
43704SOL     OW36049   4.159   3.141   3.669  0.4389 -0.0071  0.1358
43704SOL    HW136050   4.184   3.160   3.760 -0.7977  0.7883  0.3408
43704SOL    HW236051   4.191   3.217   3.620  1.3099 -0.5444 -0.1470
43705SOL     OW36052   6.740   4.547   0.061  0.1515  0.4728 -0.2846
43705SOL    HW136053   6.688   4.622   0.031 -0.8814  0.1333  0.5826
43705SOL    HW236054   6.676   4.478   0.076  0.9307 -0.1521  0.2377
43706SOL     OW36055   2.871   8.712   0.038  0.2122  0.3402  0.2180
43706SOL    HW136056   2.899   8.655   0.109 -1.6085 -0.6806  0.1625
43706SOL    HW236057   2.900   8.799   0.065 -0.5366  0.0053  2.3114
43707SOL     OW36058   4.828   4.674   0.847  0.3533 -0.1673  0.1236
43707SOL    HW136059   4.897   4.663   0.912 -0.3134 -0.2329  0.8332
43707SOL    HW236060   4.829   4.768   0.826  1.5884 -0.3855 -0.9414
43708SOL     OW36061   8.106   0.407   9.545  0.0849 -0.3350 -0.5260
43708SOL    HW136062   8.034   0.344   9.551  0.4019 -0.6686 -0.1188
43708SOL    HW236063   8.104   0.452   9.630  1.4885 -1.6149  0.2462
43709SOL     OW36064   1.212   7.402   7.857  0.0215  0.6769 -0.3407
43709SOL    HW136065   1.288   7.396   7.914 -1.5907 -0.7408  1.8081
43709SOL    HW236066   1.184   7.493   7.864  1.4438  1.2040 -1.1305
43710SOL     OW36067   2.676   0.030   3.422 -0.9877 -0.5869 -0.2161
43710SOL    HW136068   2.704   0.122   3.423 -2.4508 -0.0861 -1.6838
43710SOL    HW236069   2.727  -0.011   3.492  1.7046  0.7403 -1.2440
43711SOL     OW36070   0.705  11.623  10.438 -0.2976  0.2901  0.2436
43711SOL    HW136071   0.703  11.697  10.376 -0.9825 -0.6741 -0.9312
43711SOL    HW236072   0.770  11.564  10.401 -0.8693 -0.3945  0.3200
43712SOL     OW36073   2.348   6.665   5.179 -0.0562  0.0053  0.3705
43712SOL    HW136074   2.405   6.589   5.173 -1.6472 -1.1516 -3.6816
43712SOL    HW236075   2.401   6.738   5.147  1.0458  0.4472  2.9676
43713SOL     OW36076   3.038  10.422   2.587  0.1886 -0.3798 -0.2055
43713SOL    HW136077   3.016  10.457   2.502  1.6332 -0.0465 -0.4721
43713SOL    HW236078   3.113  10.364   2.571  0.9545  0.2500  0.9183
43714SOL     OW36079   1.295   9.574   6.048 -0.2626 -0.5034  0.0289
43714SOL    HW136080   1.273   9.658   6.087 -1.4807 -0.9307  0.2890
43714SOL    HW236081   1.233   9.512   6.087  0.3107 -1.4410 -0.5064
43715SOL     OW36082   1.256   1.771   2.309 -0.0546  0.5875 -0.1506
43715SOL    HW136083   1.179   1.789   2.254  0.4749  2.0230 -0.4486
43715SOL    HW236084   1.281   1.681   2.285 -1.7927 -0.0244  0.1698
43716SOL     OW36085   4.438   7.639   4.867 -0.1265  0.3720 -0.1690
43716SOL    HW136086   4.407   7.662   4.954 -1.9479  0.4899 -0.8021
43716SOL    HW236087   4.401   7.552   4.851  1.7452 -0.4635 -0.1196
43717SOL     OW36088   6.516   7.472  11.661 -0.4997 -0.1110  0.3969
43717SOL    HW136089   6.569   7.471  11.740  0.2573  0.9342 -0.0725
43717SOL    HW236090   6.427   7.455  11.691 -0.6857  2.9180  1.8664
43718SOL     OW36091   3.611   8.970   2.339 -0.3704 -0.5732 -0.2403
43718SOL    HW136092   3.585   9.061   2.330  1.0147 -0.1858 -0.5073
43718SOL    HW236093   3.675   8.970   2.410 -0.4407 -1.3610 -0.1658
43719SOL     OW36094   9.816   6.221   8.590 -0.4978  0.1125 -0.4886
43719SOL    HW136095   9.829   6.130   8.618  1.7142 -0.2026 -2.2091
43719SOL    HW236096   9.905   6.255   8.579 -1.2664  1.8003 -1.9525
43720SOL     OW36097  11.434   6.983   4.511  0.5295 -0.1053  0.0681
43720SOL    HW136098  11.469   6.935   4.435 -0.1629 -0.3196 -0.1245
43720SOL    HW236099  11.341   6.960   4.513  0.5595 -0.1685  1.0401
43721SOL     OW36100   0.588   4.177   8.429  0.4002  0.2209 -0.3227
43721SOL    HW136101   0.618   4.268   8.424 -1.6306  0.9125 -0.5028
43721SOL    HW236102   0.571   4.151   8.339  1.2309 -0.4625 -0.3002
43722SOL     OW36103   7.564   8.638   4.247 -0.3487 -0.4128  0.2378
43722SOL    HW136104   7.600   8.678   4.326 -0.7946  0.1849  0.1403
43722SOL    HW236105   7.641   8.612   4.196 -0.0515  0.5175  0.2048
43723SOL     OW36106   9.643  11.053   9.158  0.5223  0.7105 -0.2687
43723SOL    HW136107   9.720  10.999   9.136 -1.1837 -2.9137  1.8183
43723SOL    HW236108   9.674  11.110   9.228  1.6312  0.2267 -0.3308
43724SOL     OW36109   7.970   6.706   7.046  0.2193 -0.1238 -0.2225
43724SOL    HW136110   7.976   6.799   7.024 -1.3780  0.2023  0.5920
43724SOL    HW236111   8.032   6.695   7.119  1.3363  0.0039 -1.1254
43725SOL     OW36112   0.150  10.305   1.902  0.2010 -0.2756  0.1394
43725SOL    HW136113   0.092  10.258   1.962 -0.3699  1.7077  1.2232
43725SOL    HW236114   0.121  10.278   1.815 -0.4484 -1.4899  0.6936
43726SOL     OW36115   1.578   7.311   1.862  0.1830 -0.0967  0.0763
43726SOL    HW136116   1.622   7.359   1.792  2.0156 -1.3720  0.3031
43726SOL    HW236117   1.562   7.224   1.826  1.8269 -1.0220  1.4236
43727SOL     OW36118   4.328   3.929   7.506 -0.0681 -0.0285  0.1142
43727SOL    HW136119   4.380   3.912   7.428 -0.8170 -2.3160  0.0316
43727SOL    HW236120   4.390   3.926   7.579  0.5345  1.5102 -0.3065
43728SOL     OW36121   4.022   7.739   7.077  0.5729  0.2137  0.3651
43728SOL    HW136122   4.002   7.651   7.109 -1.1378  0.4547  0.0716
43728SOL    HW236123   3.954   7.757   7.013  1.1994  1.5607  0.0491
43729SOL     OW36124   5.575  11.053  10.737 -0.2670  0.1198 -0.3310
43729SOL    HW136125   5.595  10.982  10.676  0.1410  0.1396 -0.2215
43729SOL    HW236126   5.638  11.122  10.715  0.4857 -0.2159  0.7034
43730SOL     OW36127  10.849   7.825   1.234 -0.0157 -0.5080  0.6497
43730SOL    HW136128  10.898   7.896   1.192 -0.4677 -0.4041  0.2920
43730SOL    HW236129  10.907   7.749   1.229  0.0779 -0.4045  0.1725
43731SOL     OW36130   1.600  10.014   3.385  0.5888 -0.1343 -0.1461
43731SOL    HW136131   1.571  10.091   3.337 -0.4589 -1.0836 -1.0746
43731SOL    HW236132   1.685   9.993   3.346 -0.2271 -0.8693 -1.6082
43732SOL     OW36133   8.022   9.777   8.976 -0.1215  0.8681 -0.2444
43732SOL    HW136134   8.001   9.689   9.007  1.5157  1.1531  1.9555
43732SOL    HW236135   7.951   9.799   8.916 -1.5492 -1.2466  0.5459
43733SOL     OW36136   5.440  10.523   0.515 -0.0689 -0.6478 -0.4819
43733SOL    HW136137   5.508  10.539   0.580 -1.7704  1.9528  0.8150
43733SOL    HW236138   5.428  10.428   0.516  1.1486 -0.8478  1.7373
43734SOL     OW36139   6.693   2.404   8.979 -0.2727  0.5435  0.7470
43734SOL    HW136140   6.728   2.322   9.014  1.6538  1.3848  0.8847
43734SOL    HW236141   6.706   2.397   8.885 -0.3509  0.5848  0.7325
43735SOL     OW36142   6.752  11.608   8.353 -0.1485 -0.1576  0.0660
43735SOL    HW136143   6.702  11.665   8.411  0.2628 -0.6363  0.9025
43735SOL    HW236144   6.713  11.622   8.267 -2.5588 -1.4346  0.8855
43736SOL     OW36145   9.199   9.883   7.754 -0.7092 -0.2160 -0.9642
43736SOL    HW136146   9.177   9.969   7.792 -1.3362 -1.3291  1.4032
43736SOL    HW236147   9.292   9.890   7.733 -0.6084  0.8730 -0.2630
43737SOL     OW36148   2.514  10.194  11.465 -0.0844 -0.1191 -0.3006
43737SOL    HW136149   2.510  10.245  11.546 -0.6905 -0.8896  0.1653
43737SOL    HW236150   2.608  10.186  11.447  0.0488  2.9852 -1.5997
43738SOL     OW36151   6.476   8.964   8.674 -0.0458 -0.0023 -0.0716
43738SOL    HW136152   6.405   8.902   8.663 -0.4865  0.3967  0.4901
43738SOL    HW236153   6.519   8.968   8.588 -0.1181 -0.9424 -0.1557
43739SOL     OW36154   7.712   0.088   3.698  0.3697 -0.1356 -0.2310
43739SOL    HW136155   7.740   0.052   3.614 -0.0999 -1.0423 -0.0043
43739SOL    HW236156   7.703   0.182   3.682  1.7245 -0.0839 -0.7966
43740SOL     OW36157   8.481   7.221   6.330 -0.3189 -0.2128  1.0232
43740SOL    HW136158   8.562   7.192   6.374 -0.3717 -0.3283  1.0464
43740SOL    HW236159   8.424   7.249   6.401  0.2318  1.2447  0.9095
43741SOL     OW36160   1.572   0.577   7.272 -0.6386  0.7280  0.6034
43741SOL    HW136161   1.528   0.660   7.286 -0.5295  0.9701 -0.3887
43741SOL    HW236162   1.560   0.529   7.354 -0.7994  1.6681  1.1436
43742SOL     OW36163   1.927   6.178   3.598  1.0029  0.0319  0.1408
43742SOL    HW136164   1.925   6.137   3.684  2.2597  0.3413  0.3387
43742SOL    HW236165   1.925   6.272   3.616 -0.7209  0.1014 -0.2615
43743SOL     OW36166   1.931   3.524   1.887 -0.2531  0.5003 -0.1303
43743SOL    HW136167   1.946   3.469   1.810  1.6912  0.3137  0.3399
43743SOL    HW236168   2.004   3.586   1.887  0.1552  0.0779  1.9224
43744SOL     OW36169  11.568   0.683   2.402 -0.4426 -0.2765 -0.3534
43744SOL    HW136170  11.663   0.697   2.402 -0.4652 -0.0860 -0.8824
43744SOL    HW236171  11.551   0.630   2.480 -0.0245  0.5128  0.2970
43745SOL     OW36172   3.176   5.204   3.166  0.1624  0.5363  0.0127
43745SOL    HW136173   3.174   5.202   3.070  0.4721  1.9088 -0.0421
43745SOL    HW236174   3.118   5.133   3.193  0.2615 -0.0194 -1.1903
43746SOL     OW36175  11.204   9.242  10.979  0.3037  0.2214  0.4426
43746SOL    HW136176  11.170   9.299  11.047  0.1638 -1.3920  1.7965
43746SOL    HW236177  11.243   9.168  11.026  0.8389 -0.6100 -1.2071
43747SOL     OW36178   4.438   3.860   5.686 -0.0944  0.3790 -0.5885
43747SOL    HW136179   4.413   3.774   5.654 -0.8087  0.2482  0.3027
43747SOL    HW236180   4.421   3.857   5.780  1.9609  0.7580 -0.1647
43748SOL     OW36181   4.270   8.309  11.547  0.4887 -0.0979  0.4645
43748SOL    HW136182   4.267   8.214  11.537  1.6448 -0.4354  2.6613
43748SOL    HW236183   4.360   8.333  11.526  0.0349  0.6393 -0.7510
43749SOL     OW36184   1.339   0.093   9.089 -0.1645  0.5692 -0.0461
43749SOL    HW136185   1.256   0.100   9.137  0.3207  0.5888  0.8099
43749SOL    HW236186   1.371   0.005   9.109 -0.1963  0.3842 -0.7594
43750SOL     OW36187   7.023   8.375   5.344 -0.6987  0.1147  0.8606
43750SOL    HW136188   7.008   8.361   5.438 -0.2620 -1.6943  0.7013
43750SOL    HW236189   6.973   8.453   5.323 -0.1574  1.0308  2.7715
43751SOL     OW36190   9.415   2.586  10.975 -0.5970  0.3427 -0.4423
43751SOL    HW136191   9.427   2.622  11.063 -0.7058 -1.8048  0.5238
43751SOL    HW236192   9.502   2.591  10.935 -0.5742  1.4566 -0.2727
43752SOL     OW36193   6.745   1.983  10.902 -0.3397 -0.8695  0.5167
43752SOL    HW136194   6.831   1.966  10.863 -0.9595  1.2609 -2.0757
43752SOL    HW236195   6.683   1.941  10.843 -1.2368  1.1297 -0.0561
43753SOL     OW36196   5.468   0.885   1.445 -0.3191 -0.2981  0.1757
43753SOL    HW136197   5.547   0.936   1.460  0.8642 -1.8752 -0.4674
43753SOL    HW236198   5.441   0.908   1.356 -0.7148  0.3656  0.4549
43754SOL     OW36199   8.413  10.421  11.482  0.2895  0.5854 -0.5802
43754SOL    HW136200   8.379  10.331  11.476  0.1737  0.5938 -0.0770
43754SOL    HW236201   8.411  10.441  11.575  0.5146  1.0387 -0.6713
43755SOL     OW36202   1.768   8.203   9.338  0.0088  0.1281  0.2671
43755SOL    HW136203   1.708   8.228   9.268 -0.5495  0.3975  0.8268
43755SOL    HW236204   1.726   8.128   9.380  1.5741 -1.7214 -1.2757
43756SOL     OW36205   4.544   4.289   6.006  0.3580  0.1681  0.2809
43756SOL    HW136206   4.455   4.256   5.995  0.7790 -0.5927 -1.0540
43756SOL    HW236207   4.591   4.257   5.929  1.9277  0.0745  1.2411
43757SOL     OW36208   7.167   9.676   8.130 -0.6872  0.1242  1.1103
43757SOL    HW136209   7.180   9.588   8.167 -1.2941 -0.2654  0.4110
43757SOL    HW236210   7.256   9.711   8.121 -0.1357 -1.6312 -1.5209
43758SOL     OW36211   1.367  10.279   9.656  0.5845  0.3629 -0.7192
43758SOL    HW136212   1.419  10.218   9.603 -1.4683 -0.7431 -1.5611
43758SOL    HW236213   1.384  10.365   9.616  0.4313 -0.2124 -2.0841
43759SOL     OW36214   5.499  11.282   5.220 -0.1896 -0.0098 -0.3020
43759SOL    HW136215   5.495  11.377   5.234  2.7752  0.0253  1.2339
43759SOL    HW236216   5.410  11.257   5.199 -1.2637  2.9908  0.1768
43760SOL     OW36217   5.683   6.095  10.177 -0.8773 -0.6598  0.2495
43760SOL    HW136218   5.653   6.024  10.233 -0.0122 -0.3111  1.1962
43760SOL    HW236219   5.688   6.171  10.236 -1.0327 -0.0123 -0.5604
43761SOL     OW36220   9.672   3.310   0.306  0.4223 -0.4516  0.8612
43761SOL    HW136221   9.762   3.328   0.334  0.1479  1.2564  0.7495
43761SOL    HW236222   9.648   3.385   0.252 -0.6494 -1.5027 -0.1876
43762SOL     OW36223   6.512  10.805   3.993  0.1445  0.2986  0.0148
43762SOL    HW136224   6.472  10.837   4.074  1.7167 -1.5531  1.6251
43762SOL    HW236225   6.556  10.724   4.018  0.4968 -0.4778 -2.7853
43763SOL     OW36226  11.615   6.488   9.012 -0.1686  0.2108 -0.1322
43763SOL    HW136227  11.552   6.543   8.966 -0.6087 -1.7220 -1.9857
43763SOL    HW236228  11.698   6.503   8.967 -0.2400 -0.4624 -0.4877
43764SOL     OW36229  11.600   6.220  11.056  0.4624  0.6112  0.3199
43764SOL    HW136230  11.641   6.160  11.119  0.3145 -0.6757 -0.7574
43764SOL    HW236231  11.578   6.297  11.108  0.5866 -0.2882  1.7932
43765SOL     OW36232   9.756   0.622   1.383 -0.3148 -0.0125 -0.7915
43765SOL    HW136233   9.787   0.711   1.363  0.9254 -0.0285  0.8505
43765SOL    HW236234   9.817   0.566   1.335 -0.4933 -0.0080 -1.0293
43766SOL     OW36235  10.004   4.899   5.715  0.1334 -0.2377 -0.0011
43766SOL    HW136236   9.966   4.860   5.636  1.2476 -1.1948 -0.0936
43766SOL    HW236237  10.028   4.988   5.688 -0.8409 -0.0456 -0.2900
43767SOL     OW36238   5.586   0.441   8.828 -0.2350  0.4338  0.0979
43767SOL    HW136239   5.567   0.357   8.871  0.1584  1.3035  2.0910
43767SOL    HW236240   5.676   0.432   8.797 -0.3458 -0.0293 -0.1018
43768SOL     OW36241   1.636   8.296   2.709  0.8492 -0.1759  0.2463
43768SOL    HW136242   1.594   8.273   2.626 -0.7900  0.7948  0.7655
43768SOL    HW236243   1.604   8.230   2.771  1.0323 -0.1255  0.3936
43769SOL     OW36244   6.986  10.505   5.979  0.1704 -0.7698  0.4906
43769SOL    HW136245   7.076  10.538   5.975  1.0025 -2.9530 -0.0053
43769SOL    HW236246   6.995  10.411   5.992 -2.0427 -1.1468 -0.2436
43770SOL     OW36247   7.565  10.891   0.642  0.5443 -0.0533 -0.8773
43770SOL    HW136248   7.653  10.871   0.610  0.3070  1.4767 -2.6561
43770SOL    HW236249   7.507  10.862   0.571 -0.4958 -1.7809  0.6063
43771SOL     OW36250   4.350   6.532   2.656 -0.2905 -0.4881 -0.1400
43771SOL    HW136251   4.300   6.472   2.601 -1.0584  0.8612 -0.9545
43771SOL    HW236252   4.314   6.619   2.638  2.9495  0.7345 -1.5438
43772SOL     OW36253   8.381  11.140   8.257  0.7014  0.0257  0.3237
43772SOL    HW136254   8.293  11.123   8.291  0.8183  1.4955  1.4454
43772SOL    HW236255   8.367  11.163   8.165 -0.0392 -0.1484  0.3824
43773SOL     OW36256  10.322   4.639  11.652  0.1030 -0.3127  0.2284
43773SOL    HW136257  10.408   4.625  11.613 -0.1219 -1.7065  0.1529
43773SOL    HW236258  10.273   4.688  11.586  0.7097  0.1346  0.1032
43774SOL     OW36259   3.984   3.719   7.719 -0.0225  0.3891 -0.3007
43774SOL    HW136260   3.992   3.778   7.644  2.4840  0.6414  0.0908
43774SOL    HW236261   4.014   3.634   7.685 -0.5919  0.0757 -0.0290
43775SOL     OW36262   2.724  10.319   8.320  0.0084 -0.3117  0.1035
43775SOL    HW136263   2.648  10.356   8.276  0.9141 -0.4663 -1.6887
43775SOL    HW236264   2.687  10.260   8.386 -1.4944 -2.0160 -2.1040
43776SOL     OW36265   3.598   1.478   5.718  0.0896 -0.2678 -0.3246
43776SOL    HW136266   3.614   1.550   5.657 -1.1363  0.0425 -0.2998
43776SOL    HW236267   3.681   1.468   5.765 -0.0922  2.0449  0.6340
43777SOL     OW36268   0.175   3.801   7.456  0.1679 -0.2327 -0.2579
43777SOL    HW136269   0.099   3.853   7.483  0.8777  0.3484  0.6696
43777SOL    HW236270   0.246   3.832   7.512  1.2666 -0.2703 -1.6030
43778SOL     OW36271  10.129   7.472   7.164  0.1216  0.1578 -0.2901
43778SOL    HW136272  10.063   7.440   7.103  0.4642 -2.3430  0.5678
43778SOL    HW236273  10.202   7.411   7.155  1.0675  1.0284  1.0454
43779SOL     OW36274   1.578  11.167   4.036  0.0334  0.2128  0.1315
43779SOL    HW136275   1.647  11.113   3.999  0.8534  1.0268  0.4118
43779SOL    HW236276   1.517  11.182   3.964 -0.6869 -1.7880  0.2841
43780SOL     OW36277   4.663   3.190   9.877 -1.2704 -0.0387 -0.2301
43780SOL    HW136278   4.627   3.182   9.965  0.8625 -1.5333  0.6118
43780SOL    HW236279   4.618   3.122   9.827 -1.4879 -0.1384  0.0933
43781SOL     OW36280   7.135   5.070   8.674 -0.2964  0.2832  0.0946
43781SOL    HW136281   7.089   5.124   8.610 -0.4721  0.9093  0.7381
43781SOL    HW236282   7.169   5.132   8.738 -0.6304 -0.3716  0.9321
43782SOL     OW36283   4.918   8.348   9.897 -0.1910  0.1609 -0.4360
43782SOL    HW136284   4.858   8.278   9.870 -1.1002  1.2294 -1.2581
43782SOL    HW236285   4.997   8.332   9.845  0.3988 -1.4372  0.8813
43783SOL     OW36286   9.104  10.582   3.826  0.1243 -0.1943  0.1718
43783SOL    HW136287   9.150  10.646   3.880 -0.8652  1.7421 -1.1551
43783SOL    HW236288   9.035  10.548   3.882  0.2675  0.3973  0.7189
43784SOL     OW36289   5.985   8.442   9.549  0.3327  0.0368 -0.0589
43784SOL    HW136290   6.042   8.500   9.599  1.7872 -1.5522  0.2215
43784SOL    HW236291   5.907   8.432   9.603  1.1197 -0.2148  1.0681
43785SOL     OW36292   6.963   9.641   9.036 -0.0599  0.5221  0.1870
43785SOL    HW136293   6.871   9.650   9.011  0.0071  0.7967  0.0398
43785SOL    HW236294   6.980   9.715   9.094  0.0396  0.4114  0.2995
43786SOL     OW36295   6.791  11.131   3.137 -0.2363  0.2565  0.0450
43786SOL    HW136296   6.751  11.057   3.090  1.9898  0.2903 -2.1365
43786SOL    HW236297   6.821  11.093   3.219 -1.4754 -0.6069  0.1227
43787SOL     OW36298   0.088   3.044  11.637 -0.8095 -0.3135  1.0198
43787SOL    HW136299   0.001   3.040  11.598 -1.0289  0.8456  1.3707
43787SOL    HW236300   0.080   3.106  11.709  0.6658  1.0125  0.1086
43788SOL     OW36301   1.329   9.467   9.831  0.3274 -0.5505 -0.1736
43788SOL    HW136302   1.336   9.390   9.886  0.8460 -0.5246 -0.2017
43788SOL    HW236303   1.343   9.435   9.742 -1.2007 -0.7130 -0.3849
43789SOL     OW36304  10.953   6.557  11.006 -0.0114  0.0486 -0.4104
43789SOL    HW136305  10.861   6.544  11.027  0.6219 -0.6163  2.3844
43789SOL    HW236306  10.973   6.644  11.041  0.8230 -0.6000  0.8084
43790SOL     OW36307   8.534   3.353   3.641 -0.8869  0.1986  0.6383
43790SOL    HW136308   8.543   3.404   3.561 -0.2728 -1.6831 -0.5465
43790SOL    HW236309   8.446   3.376   3.674 -1.4910  0.3809 -1.0219
43791SOL     OW36310   2.876   8.292  10.849  0.6910 -0.2723 -0.2343
43791SOL    HW136311   2.880   8.355  10.777  1.9291 -2.1580 -1.8954
43791SOL    HW236312   2.813   8.331  10.910  0.8632  2.2126 -1.4929
43792SOL     OW36313   3.510   2.154   5.894  0.1963  0.0920 -0.1448
43792SOL    HW136314   3.491   2.219   5.962  0.4010 -0.7893  0.7815
43792SOL    HW236315   3.601   2.171   5.870  0.2586  0.1261  0.1120
43793SOL     OW36316   5.224   2.838   1.165 -0.6488  0.6472 -0.7682
43793SOL    HW136317   5.277   2.777   1.114 -0.5816  0.7257 -0.7925
43793SOL    HW236318   5.162   2.783   1.212  0.3195  0.4394  0.3083
43794SOL     OW36319   6.852   2.957   2.931 -0.6681 -0.8027  0.0320
43794SOL    HW136320   6.860   3.013   2.853 -1.4018 -1.2874 -0.4036
43794SOL    HW236321   6.797   3.008   2.990 -1.2643 -1.0183 -0.3292
43795SOL     OW36322   7.788   5.355   5.312  0.2856 -0.5168  0.2390
43795SOL    HW136323   7.779   5.433   5.258 -1.1408  0.3656  1.6574
43795SOL    HW236324   7.882   5.338   5.314  0.6115  1.0806 -0.2191
43796SOL     OW36325   9.932   3.528   7.017  0.0571  0.2054  0.2070
43796SOL    HW136326   9.907   3.584   7.091  0.4930  1.1642 -0.3421
43796SOL    HW236327  10.005   3.476   7.050 -0.3776 -0.0693  0.7453
43797SOL     OW36328   2.655   6.953  11.305 -0.2350  0.1809 -0.1768
43797SOL    HW136329   2.631   6.946  11.213 -2.1823  0.3490  0.2648
43797SOL    HW236330   2.572   6.972  11.350  0.8446  1.2801  1.4788
43798SOL     OW36331   5.184   2.957   2.341  0.0707  0.0754 -0.1845
43798SOL    HW136332   5.222   2.881   2.297  0.1355 -0.8754  1.4167
43798SOL    HW236333   5.090   2.948   2.326  0.0220 -0.6736  0.4861
43799SOL     OW36334   5.915   2.263   1.698  0.1399 -0.2443  0.1630
43799SOL    HW136335   5.941   2.335   1.640 -0.5744 -0.1319 -0.0274
43799SOL    HW236336   5.987   2.255   1.760  0.9560 -0.4004 -0.7701
43800SOL     OW36337   4.227   2.992   5.992  1.1017  0.0965  0.3772
43800SOL    HW136338   4.228   2.933   6.067  2.0808 -1.4477 -0.8014
43800SOL    HW236339   4.146   2.971   5.946  1.0785  0.2129  0.3651
43801SOL     OW36340   2.852   4.011   4.347 -0.1206  0.1163 -0.0063
43801SOL    HW136341   2.871   4.071   4.275  2.1293 -2.3880 -1.6970
43801SOL    HW236342   2.790   3.948   4.310  1.3132 -1.3909  0.0142
43802SOL     OW36343   2.016   8.361   8.992  0.1776 -0.3592  0.4383
43802SOL    HW136344   2.057   8.327   9.072 -0.5120 -0.3957  0.7883
43802SOL    HW236345   1.923   8.342   9.003  0.2122 -1.5400 -0.9700
43803SOL     OW36346   7.034   2.681  10.001 -0.3053 -0.1965 -0.0038
43803SOL    HW136347   7.003   2.649   9.917 -0.4493  0.1194 -0.0738
43803SOL    HW236348   6.961   2.732  10.036  0.5110  1.5042 -0.6790
43804SOL     OW36349   8.779  11.511   3.926  0.5432 -0.1158  0.2070
43804SOL    HW136350   8.687  11.520   3.950  0.5185 -0.7128  0.3769
43804SOL    HW236351   8.804  11.596   3.892  0.3125  0.4900  1.4847
43805SOL     OW36352   7.524   2.943   9.502 -0.0360  0.5014  0.0056
43805SOL    HW136353   7.514   2.850   9.480  0.7641  0.0562  1.3486
43805SOL    HW236354   7.584   2.976   9.435 -0.1692  0.0050 -0.3719
43806SOL     OW36355   2.457   6.564   0.240  0.0340 -0.1104 -0.0768
43806SOL    HW136356   2.543   6.602   0.222 -0.2301 -0.5563 -2.7299
43806SOL    HW236357   2.396   6.638   0.236  0.1316 -0.0018  0.4025
43807SOL     OW36358   1.356   8.154   2.122 -0.0332 -0.2243  0.3564
43807SOL    HW136359   1.335   8.077   2.068 -0.3938 -1.0642  1.6507
43807SOL    HW236360   1.381   8.221   2.059 -0.9355 -1.0143 -0.8893
43808SOL     OW36361   5.422   0.875   8.322  0.1206  0.1271  0.5174
43808SOL    HW136362   5.329   0.894   8.317  0.1780  0.4161  0.5481
43808SOL    HW236363   5.434   0.796   8.269  0.1290  1.0309 -0.8682
43809SOL     OW36364   2.483   5.674   9.121 -0.9047 -0.8621  0.0011
43809SOL    HW136365   2.472   5.721   9.204 -1.0957  0.6360 -0.8259
43809SOL    HW236366   2.537   5.598   9.143 -3.5977 -2.3643  2.1157
43810SOL     OW36367   5.933   5.462   6.781  0.1523 -0.5967  0.5703
43810SOL    HW136368   5.957   5.373   6.806  1.7737 -1.2922 -2.8351
43810SOL    HW236369   5.839   5.457   6.760  0.1457 -1.4202  0.7731
43811SOL     OW36370   3.479   0.954   7.559  0.0158 -0.3189  0.2179
43811SOL    HW136371   3.478   1.027   7.620  0.1440  2.3356 -2.7222
43811SOL    HW236372   3.388   0.925   7.554 -0.3115  0.6629  0.3109
43812SOL     OW36373   8.065   0.090   2.627 -0.8596 -0.4559  0.0071
43812SOL    HW136374   8.143   0.051   2.588 -0.4496 -0.6553  0.9941
43812SOL    HW236375   8.025   0.141   2.557 -0.4620 -1.2646 -0.8260
43813SOL     OW36376   2.340   8.465   9.143  0.0310 -0.1289 -0.8431
43813SOL    HW136377   2.315   8.555   9.122 -0.1744 -0.1079 -0.5252
43813SOL    HW236378   2.383   8.472   9.229 -0.9836 -0.4787 -0.2954
43814SOL     OW36379   9.173  11.102  10.824 -0.0636 -0.3849  0.2348
43814SOL    HW136380   9.141  11.025  10.871 -1.0665 -0.0170  0.1665
43814SOL    HW236381   9.265  11.109  10.849  0.0894 -1.7068  0.1067
43815SOL     OW36382   0.742   4.795   9.129  0.1719 -0.1233 -0.0846
43815SOL    HW136383   0.738   4.778   9.224  0.2608  1.0109  0.1385
43815SOL    HW236384   0.703   4.882   9.119 -0.7417 -0.6314 -1.2170
43816SOL     OW36385   7.709   5.516   6.389  0.3864  0.2225 -0.1222
43816SOL    HW136386   7.670   5.473   6.465 -0.7787 -0.3222 -0.9919
43816SOL    HW236387   7.764   5.448   6.349  0.5713  0.3373 -0.0611
43817SOL     OW36388   0.203   4.197   0.502 -0.0229  0.4137 -0.5190
43817SOL    HW136389   0.246   4.147   0.433 -0.2363 -0.4117 -0.0659
43817SOL    HW236390   0.110   4.193   0.480 -0.2355 -0.9329  0.4661
43818SOL     OW36391   5.380   5.713   3.761  0.6808 -0.4437 -0.2324
43818SOL    HW136392   5.408   5.771   3.690 -0.8769 -1.2363 -1.5849
43818SOL    HW236393   5.439   5.638   3.756  1.9411  0.4359  0.7515
43819SOL     OW36394   0.516   9.843   4.953 -0.3987 -0.3629  0.6616
43819SOL    HW136395   0.515   9.761   4.904  1.3538 -1.3256  2.1126
43819SOL    HW236396   0.607   9.874   4.946 -0.9106  1.2237  0.5573
43820SOL     OW36397   9.447   2.613   7.063  0.2712  0.2825 -0.0669
43820SOL    HW136398   9.366   2.664   7.067  1.2861  1.9959 -0.0352
43820SOL    HW236399   9.456   2.589   6.971 -0.3477 -0.0735 -0.0405
43821SOL     OW36400   3.612   9.832   3.478 -0.2573 -0.2620  0.6145
43821SOL    HW136401   3.681   9.863   3.537  0.0070 -1.3472  0.9087
43821SOL    HW236402   3.579   9.911   3.435  0.3321  0.4129  1.3747
43822SOL     OW36403  11.028   3.170   0.803 -1.0121  0.4904  0.8820
43822SOL    HW136404  11.032   3.224   0.724 -0.5021 -1.6945 -0.6619
43822SOL    HW236405  11.118   3.167   0.835 -1.1221  0.8916  1.2556
43823SOL     OW36406   5.971   3.164   9.144 -0.2098  0.4652  0.0265
43823SOL    HW136407   5.901   3.162   9.209 -0.3771  1.0987 -0.1215
43823SOL    HW236408   5.971   3.077   9.104 -1.0726  0.5376 -0.1427
43824SOL     OW36409  11.117   9.988   1.231 -0.0090 -0.2416 -0.2362
43824SOL    HW136410  11.111  10.054   1.162  2.0810 -1.4110 -1.6640
43824SOL    HW236411  11.160  10.032   1.304 -1.6114  0.8251  0.1092
43825SOL     OW36412   9.759  11.255   0.516 -0.3095  0.2795  0.5836
43825SOL    HW136413   9.791  11.239   0.427  1.3275  2.1645  0.7662
43825SOL    HW236414   9.675  11.299   0.503 -0.2540  0.2277 -0.0097
43826SOL     OW36415   7.933  11.635   1.210 -0.5073  0.4849 -0.0288
43826SOL    HW136416   8.004  11.697   1.196 -0.7036  0.9676  1.0035
43826SOL    HW236417   7.870  11.655   1.140 -0.6584  1.5924  0.4014
43827SOL     OW36418   1.533   6.403   2.225  0.4961 -0.3675  0.2158
43827SOL    HW136419   1.592   6.328   2.224 -1.1838 -1.7581  0.6781
43827SOL    HW236420   1.515   6.421   2.133  0.9488 -0.4863  0.1035
43828SOL     OW36421   2.153   9.654   0.384 -0.1733 -0.0570 -0.3412
43828SOL    HW136422   2.100   9.585   0.422  0.8827 -0.8992 -0.3381
43828SOL    HW236423   2.234   9.610   0.358  0.2905  1.0716 -0.8689
43829SOL     OW36424   3.108   6.213   2.919 -0.0082 -0.3038 -0.2260
43829SOL    HW136425   3.100   6.258   2.834  1.2012 -0.4928 -0.4546
43829SOL    HW236426   3.110   6.284   2.983  1.2653 -0.0485 -0.5352
43830SOL     OW36427   4.964   3.764   1.447  0.1977  0.2587 -0.0077
43830SOL    HW136428   4.921   3.722   1.373  0.8032 -0.2609 -0.0704
43830SOL    HW236429   5.028   3.823   1.407  0.4597  0.0478  0.1034
43831SOL     OW36430   2.077   7.857   1.998 -0.0667  0.1691  0.3554
43831SOL    HW136431   2.013   7.871   2.067 -0.8121 -0.8056 -0.1049
43831SOL    HW236432   2.059   7.926   1.934  0.5160  0.9698  1.0349
43832SOL     OW36433   3.939   4.242   8.299 -0.0183 -0.3818 -0.0282
43832SOL    HW136434   3.976   4.236   8.387 -0.2386  0.0766  0.0962
43832SOL    HW236435   3.986   4.175   8.249  0.7218 -0.0551  0.2179
43833SOL     OW36436   4.028  11.442   8.930 -0.5576 -0.3395 -0.0555
43833SOL    HW136437   4.053  11.535   8.935  1.0523 -0.8057  1.8466
43833SOL    HW236438   4.111  11.396   8.925 -1.3241 -1.7358 -0.2685
43834SOL     OW36439   5.315   9.998   6.779 -0.4426  0.1071 -0.5390
43834SOL    HW136440   5.387   9.935   6.767 -0.5065  0.1399 -1.0898
43834SOL    HW236441   5.356  10.075   6.818 -0.1478  0.1846 -0.9966
43835SOL     OW36442   3.380   0.178   5.417  0.1992 -0.5818 -0.8333
43835SOL    HW136443   3.290   0.153   5.438  0.6611 -1.7941 -0.1916
43835SOL    HW236444   3.395   0.143   5.329  0.7155 -2.3438 -0.0940
43836SOL     OW36445   2.865   4.102   4.718 -0.2616 -0.0543 -0.5727
43836SOL    HW136446   2.807   4.045   4.769 -0.9896  1.1049 -0.0584
43836SOL    HW236447   2.806   4.155   4.665  0.4453 -0.3510 -1.6787
43837SOL     OW36448   2.114   5.755   1.216 -0.1286 -0.5054 -0.0893
43837SOL    HW136449   2.157   5.676   1.182 -0.3029  0.3108 -2.3830
43837SOL    HW236450   2.185   5.818   1.226 -0.1710 -0.5517  0.5165
43838SOL     OW36451   8.190   9.759   4.213  0.2414  0.1922  0.1410
43838SOL    HW136452   8.191   9.691   4.147 -3.5206  2.0522 -2.1687
43838SOL    HW236453   8.133   9.724   4.282  2.3382 -0.8422  1.4340
43839SOL     OW36454   0.313   2.886   5.302  0.1709 -0.3291 -0.4280
43839SOL    HW136455   0.376   2.927   5.243 -0.2237 -0.0616 -0.6687
43839SOL    HW236456   0.255   2.957   5.328 -0.5234 -0.7348 -0.8492
43840SOL     OW36457   5.512   0.562   7.122  0.5620 -0.3792 -0.0786
43840SOL    HW136458   5.584   0.530   7.176  0.6291 -0.1156 -0.0095
43840SOL    HW236459   5.554   0.599   7.044  0.5104 -0.0920  0.0301
43841SOL     OW36460   0.493  10.924   0.987  0.1013 -0.3292  0.4442
43841SOL    HW136461   0.407  10.883   0.982  0.3044 -0.6570 -1.1807
43841SOL    HW236462   0.534  10.885   1.064 -0.8764 -0.8199  0.7326
43842SOL     OW36463  11.393  11.152  10.652  0.2430  0.7304 -0.0836
43842SOL    HW136464  11.324  11.102  10.607  0.9589  0.3407 -0.7570
43842SOL    HW236465  11.402  11.232  10.601 -0.4149  1.2561  0.5970
43843SOL     OW36466   9.560   8.047   0.223  0.4423 -0.1833  0.8168
43843SOL    HW136467   9.620   8.026   0.294 -0.8140  0.3258  2.0878
43843SOL    HW236468   9.533   8.137   0.239 -0.7841 -0.4463  0.4058
43844SOL     OW36469   8.146  11.194   6.938 -0.0460 -0.3357 -0.0945
43844SOL    HW136470   8.086  11.242   6.881 -1.3062  0.3713  1.7298
43844SOL    HW236471   8.223  11.251   6.945 -0.7800  0.6077  0.6048
43845SOL     OW36472  10.818   1.994  10.204  0.1776  0.0793 -0.3623
43845SOL    HW136473  10.902   2.039  10.192  0.3620  0.2802  1.4207
43845SOL    HW236474  10.763   2.057  10.249  0.2028 -1.1735  1.5402
43846SOL     OW36475   0.166   2.511  10.214  0.2220  0.0343 -1.1207
43846SOL    HW136476   0.221   2.434  10.221  0.6468  0.2965 -1.5079
43846SOL    HW236477   0.212   2.568  10.153 -0.1451  0.5430 -0.9317
43847SOL     OW36478   7.447   1.432   9.855  0.2086  0.3924  0.2370
43847SOL    HW136479   7.359   1.394   9.849  0.4422 -0.4750  1.6345
43847SOL    HW236480   7.486   1.416   9.769  0.7281 -3.8452  1.0135
43848SOL     OW36481   8.838   3.026  11.685  0.0322  0.5678 -0.3201
43848SOL    HW136482   8.868   3.057  11.771  0.9625  1.4920 -0.9453
43848SOL    HW236483   8.839   3.105  11.630 -0.5229 -0.0134 -1.1888
43849SOL     OW36484   0.347   9.458  11.057 -0.2231 -0.5175  0.3516
43849SOL    HW136485   0.274   9.449  11.118 -1.6463  2.0913 -0.7854
43849SOL    HW236486   0.413   9.508  11.105 -1.1871  1.2000 -0.0006
43850SOL     OW36487   1.708   3.812   5.537 -0.2914  0.3235 -0.2549
43850SOL    HW136488   1.760   3.829   5.458 -0.8010 -0.4003 -0.7593
43850SOL    HW236489   1.675   3.723   5.526 -1.2677  0.5999  0.2587
43851SOL     OW36490  10.667   9.803  10.571  0.1552  0.0589 -0.2429
43851SOL    HW136491  10.720   9.869  10.527  0.6719 -0.5586 -0.5665
43851SOL    HW236492  10.656   9.836  10.660  0.6205  0.4528 -0.3266
43852SOL     OW36493   9.616   6.477   3.501 -0.0536 -0.0148 -0.4515
43852SOL    HW136494   9.583   6.557   3.460 -0.2293 -0.2074 -0.6872
43852SOL    HW236495   9.701   6.502   3.538 -0.7186  0.6253  0.6781
43853SOL     OW36496   7.270   4.060   5.364 -0.2231  0.0990  0.2356
43853SOL    HW136497   7.293   4.149   5.391  0.7126  0.1710 -0.7360
43853SOL    HW236498   7.244   4.016   5.445 -0.1631  1.0957  0.8094
43854SOL     OW36499   4.923   6.351   8.713  0.0270 -1.0033 -0.2921
43854SOL    HW136500   4.941   6.257   8.720 -1.8117 -1.3858 -0.1578
43854SOL    HW236501   4.828   6.357   8.714  0.1025  0.8409 -0.8337
43855SOL     OW36502   3.852   0.591   0.877  0.1130 -0.3961 -0.6857
43855SOL    HW136503   3.912   0.534   0.924 -0.5140 -0.5250 -0.0170
43855SOL    HW236504   3.875   0.679   0.906  0.1891 -0.4190 -0.6768
43856SOL     OW36505   3.934   8.298   3.066 -0.3001 -0.0516  0.3242
43856SOL    HW136506   3.862   8.322   3.008 -0.2007  1.0421  0.6326
43856SOL    HW236507   3.993   8.246   3.011 -0.3322  0.7529 -0.4965
43857SOL     OW36508   0.725   4.029  10.467 -0.5805  0.3318 -0.0987
43857SOL    HW136509   0.701   3.941  10.493 -1.5829  0.4613 -0.5663
43857SOL    HW236510   0.660   4.055  10.402 -0.7182  1.6693  0.5311
43858SOL     OW36511   2.674   7.495   3.524 -0.5526 -0.1393  0.5345
43858SOL    HW136512   2.581   7.488   3.503 -0.8590 -0.7157  1.9532
43858SOL    HW236513   2.713   7.417   3.484 -0.0501  1.6572 -2.8217
43859SOL     OW36514   8.500   7.352   4.588 -0.4365  0.2424 -0.3680
43859SOL    HW136515   8.499   7.257   4.582  0.8934  0.2279 -0.8486
43859SOL    HW236516   8.448   7.372   4.666 -1.6018 -0.8028 -0.8457
43860SOL     OW36517  11.192   5.922   8.986 -0.3182  0.1512 -0.1474
43860SOL    HW136518  11.248   5.974   9.044 -1.5333  1.7333 -0.3400
43860SOL    HW236519  11.244   5.909   8.907  0.9039 -1.0217  0.7922
43861SOL     OW36520   2.869   2.717   5.421  0.2330  0.4559 -0.4707
43861SOL    HW136521   2.835   2.663   5.349 -2.1310 -1.7902  2.0533
43861SOL    HW236522   2.955   2.679   5.441  0.6297  0.6932 -1.6658
43862SOL     OW36523  10.806   4.152  10.205 -0.0189 -0.2468 -0.2977
43862SOL    HW136524  10.842   4.231  10.165  1.0244  0.0001  1.0431
43862SOL    HW236525  10.781   4.097  10.131 -3.1556  2.2859 -1.3530
43863SOL     OW36526   3.052   6.817   8.941  0.4792 -0.1286 -0.3292
43863SOL    HW136527   3.066   6.741   8.885  1.9776  0.0923 -0.2936
43863SOL    HW236528   3.060   6.783   9.030  0.2786 -0.0803 -0.2923
43864SOL     OW36529   5.942  11.216   7.165  0.0454  0.1039  0.3520
43864SOL    HW136530   5.971  11.258   7.246  0.3520  1.6435 -0.5107
43864SOL    HW236531   5.864  11.266   7.139  0.4966  0.2405 -0.7814
43865SOL     OW36532   3.769   0.255  10.142  0.8051 -0.1709 -0.1992
43865SOL    HW136533   3.832   0.300  10.198  1.7687 -4.9572  3.1621
43865SOL    HW236534   3.685   0.270  10.184  0.9782 -0.6833  0.3357
43866SOL     OW36535   1.020   6.611   9.753  0.0500 -0.0197  0.3507
43866SOL    HW136536   1.114   6.622   9.736 -0.1233  0.1343 -0.5912
43866SOL    HW236537   1.000   6.524   9.720 -0.9035  1.3987 -3.3178
43867SOL     OW36538   3.384   1.401   4.957  0.3587  0.1066 -0.2026
43867SOL    HW136539   3.360   1.395   5.049  1.0631  1.0266  0.0537
43867SOL    HW236540   3.321   1.344   4.912 -0.6006  0.4064  0.7296
43868SOL     OW36541   4.952   2.842   6.303  0.2121 -0.0108  0.0224
43868SOL    HW136542   5.005   2.830   6.224 -0.4791  0.2577 -0.4995
43868SOL    HW236543   4.887   2.907   6.278 -1.1837 -1.2770  0.2192
43869SOL     OW36544   2.551  10.893   7.503  0.3109 -0.2201 -0.6579
43869SOL    HW136545   2.604  10.846   7.439  0.2765  0.2598 -1.0468
43869SOL    HW236546   2.614  10.923   7.569  0.8059  1.6743 -1.9042
43870SOL     OW36547   0.926  11.037   4.499  0.1727 -0.0267 -0.4261
43870SOL    HW136548   0.891  10.973   4.561  0.0979 -0.1682 -0.6129
43870SOL    HW236549   0.993  11.084   4.548  0.1419 -0.1653 -0.2506
43871SOL     OW36550   6.255   4.699  10.808 -0.2659  0.1132 -0.1767
43871SOL    HW136551   6.206   4.754  10.869  0.2946 -1.4366  1.7806
43871SOL    HW236552   6.331   4.753  10.784 -2.4666  2.3534 -2.8774
43872SOL     OW36553   8.229   0.887   4.913  0.1508 -0.0269  0.2174
43872SOL    HW136554   8.266   0.821   4.856 -0.2873  0.2850 -0.4475
43872SOL    HW236555   8.247   0.856   5.002 -1.2053 -1.7274 -0.0391
43873SOL     OW36556   7.372   4.258   5.712 -0.6575 -0.3938  0.2760
43873SOL    HW136557   7.461   4.224   5.723 -0.6535 -0.4612  0.0430
43873SOL    HW236558   7.362   4.269   5.618 -0.8976 -0.3884  0.3016
43874SOL     OW36559   5.972   4.135  11.062  0.0471  1.0790 -0.3328
43874SOL    HW136560   6.022   4.144  10.980 -0.1391 -0.4686 -0.6505
43874SOL    HW236561   5.882   4.154  11.037  0.1795  1.9527 -0.1782
43875SOL     OW36562  10.460   0.470  10.102 -0.5401  0.0510 -0.0316
43875SOL    HW136563  10.458   0.460  10.007 -1.7949 -2.5691  0.1677
43875SOL    HW236564  10.368   0.473  10.129 -0.2656 -0.9987  1.1802
43876SOL     OW36565   9.344  11.636   3.038 -0.2499 -0.2348  1.0872
43876SOL    HW136566   9.396  11.558   3.059 -0.6478 -0.9637 -0.4901
43876SOL    HW236567   9.377  11.664   2.953 -3.4127 -1.6905 -0.8013
43877SOL     OW36568   1.385   1.229   1.407 -0.1189  0.0880 -0.1761
43877SOL    HW136569   1.478   1.234   1.388 -0.1090  0.4409 -0.0482
43877SOL    HW236570   1.364   1.135   1.404  0.4170 -0.0723  0.6417
43878SOL     OW36571   1.525   8.581   2.128 -0.3661  0.2071  0.3508
43878SOL    HW136572   1.527   8.569   2.033 -0.0536 -0.6636  0.4601
43878SOL    HW236573   1.587   8.651   2.145 -1.7569  1.6492 -0.2527
43879SOL     OW36574   4.006   2.805   0.798  0.8984  0.4764 -0.0942
43879SOL    HW136575   3.990   2.742   0.728 -0.0083  0.5976 -0.0127
43879SOL    HW236576   4.063   2.760   0.859  0.7666 -0.0394 -0.3472
43880SOL     OW36577   2.219   3.302   2.722  0.3811 -0.2448 -0.0950
43880SOL    HW136578   2.195   3.319   2.631 -0.7982  1.0010  0.4079
43880SOL    HW236579   2.247   3.387   2.756 -0.5737 -0.3683  1.0761
43881SOL     OW36580   5.186   9.999  10.307 -0.2114  0.1301  0.3695
43881SOL    HW136581   5.092   9.980  10.298 -0.1550  0.2432 -0.5789
43881SOL    HW236582   5.213  10.026  10.219  0.6695  0.2949  0.6852
43882SOL     OW36583   8.387   1.873   3.008  0.5385 -0.4784 -0.3013
43882SOL    HW136584   8.473   1.852   3.044  0.5571  0.9935  0.5489
43882SOL    HW236585   8.327   1.816   3.057  0.9224 -0.8951 -0.3025
43883SOL     OW36586   1.534   4.788   4.685 -0.5762  0.0560  0.1109
43883SOL    HW136587   1.477   4.858   4.718  0.0090  0.5882  0.0148
43883SOL    HW236588   1.623   4.822   4.697 -0.3012 -0.4758 -0.3745
43884SOL     OW36589   7.824   6.115   1.639 -0.3341 -0.2617 -0.1845
43884SOL    HW136590   7.865   6.073   1.715  0.1162 -1.1341 -0.8954
43884SOL    HW236591   7.876   6.195   1.625  1.1526 -1.3436 -1.0573
43885SOL     OW36592   2.143   4.109   2.082 -0.0514 -0.3382 -0.4276
43885SOL    HW136593   2.076   4.041   2.085 -1.0468  0.6342  0.0975
43885SOL    HW236594   2.108   4.174   2.021 -0.7742  1.3296  1.6299
43886SOL     OW36595  10.645   5.305   3.312 -0.1099 -0.2758  0.1755
43886SOL    HW136596  10.589   5.358   3.369  0.5507  1.1920 -0.4841
43886SOL    HW236597  10.692   5.247   3.372  1.3687  1.9603  1.3132
43887SOL     OW36598   7.781   0.699   1.090  0.0275 -0.0882  0.5418
43887SOL    HW136599   7.809   0.647   1.166  0.0861  0.0944  0.6462
43887SOL    HW236600   7.740   0.635   1.031 -2.1023  0.0870  1.7246
43888SOL     OW36601   5.389   3.264   2.520  0.0297  0.3103  0.3080
43888SOL    HW136602   5.438   3.254   2.439 -0.5784  0.1786 -0.0469
43888SOL    HW236603   5.454   3.251   2.589  0.9602  2.2822 -0.1292
43889SOL     OW36604   8.286   0.144  11.389 -0.3194 -0.2489 -0.5947
43889SOL    HW136605   8.282   0.127  11.295  0.3354  0.6057 -0.7913
43889SOL    HW236606   8.380   0.140  11.410 -0.5809 -2.7857  0.4965
43890SOL     OW36607   1.941   6.171   8.020 -0.0526 -0.4277  0.6109
43890SOL    HW136608   2.024   6.191   7.977 -0.5128 -2.5295 -1.4395
43890SOL    HW236609   1.878   6.232   7.981  0.2947  0.5051  1.4566
43891SOL     OW36610   0.961   5.005   0.696  0.0919  0.3626  0.7649
43891SOL    HW136611   1.044   4.957   0.696 -0.4032 -0.6054 -1.4610
43891SOL    HW236612   0.912   4.968   0.770  0.7822 -0.6104  0.7535
43892SOL     OW36613   8.937   7.960   0.684  0.1495  0.2587 -0.2417
43892SOL    HW136614   8.859   7.930   0.731 -0.3707  0.7222 -0.8045
43892SOL    HW236615   8.956   8.047   0.721  1.3137 -0.4542  0.9701
43893SOL     OW36616   4.496   9.873   1.713  0.5799 -0.5105 -0.1235
43893SOL    HW136617   4.428   9.910   1.770  0.6977 -0.3952 -0.0577
43893SOL    HW236618   4.492   9.779   1.729 -0.0629 -0.5847 -0.6628
43894SOL     OW36619   3.343   5.137   7.795  0.1824  0.2982 -0.1145
43894SOL    HW136620   3.337   5.185   7.877  2.5823 -1.2546  1.0839
43894SOL    HW236621   3.257   5.094   7.786 -0.6634  1.7298  0.7271
43895SOL     OW36622   1.660   0.509   9.883 -0.7015  0.5914 -0.2493
43895SOL    HW136623   1.596   0.477   9.820  0.1847 -2.3754  0.1833
43895SOL    HW236624   1.643   0.459   9.963  0.7243  1.3393  0.5697
43896SOL     OW36625   1.137   3.582  10.564 -0.7196  0.1012  0.1155
43896SOL    HW136626   1.095   3.624  10.489 -1.0679 -0.0952  0.1983
43896SOL    HW236627   1.091   3.499  10.574 -0.0404 -0.3022 -0.0428
43897SOL     OW36628   9.751   5.199   6.864  0.3796  0.0007 -0.1134
43897SOL    HW136629   9.692   5.221   6.937 -1.2097  1.1303 -1.6599
43897SOL    HW236630   9.704   5.133   6.814  0.3191  1.0001 -1.4342
43898SOL     OW36631   5.349  11.077   8.789 -0.8369 -0.7941 -0.4015
43898SOL    HW136632   5.427  11.116   8.829 -1.5586  0.8587 -0.4933
43898SOL    HW236633   5.342  10.990   8.829  0.2280 -0.4052  0.7070
43899SOL     OW36634   5.937   7.923   5.741  0.4268  0.7258  0.3350
43899SOL    HW136635   5.947   7.836   5.701  0.3785 -0.3188  2.4279
43899SOL    HW236636   5.995   7.979   5.691  0.5499 -0.5408 -1.0173
43900SOL     OW36637   4.970   2.035   2.449 -0.2932 -0.2240  0.2948
43900SOL    HW136638   4.918   2.058   2.526 -0.8877  0.7434 -0.3722
43900SOL    HW236639   4.962   1.940   2.442 -0.5444 -0.2730  1.2014
43901SOL     OW36640  10.999   0.517   0.873 -0.1243  0.6891  0.0162
43901SOL    HW136641  10.922   0.543   0.924 -1.0749  1.7140 -1.8192
43901SOL    HW236642  11.064   0.585   0.892 -0.0136  0.3584  0.8293
43902SOL     OW36643   7.580   4.815   7.618 -0.0488 -0.1273 -0.0499
43902SOL    HW136644   7.534   4.847   7.540  1.2872 -1.6358 -1.5450
43902SOL    HW236645   7.673   4.816   7.594  0.2166 -3.8890  0.1151
43903SOL     OW36646   2.466   4.158   4.504 -0.1078  0.1790 -0.3341
43903SOL    HW136647   2.444   4.249   4.482 -1.4758  0.1792  0.9180
43903SOL    HW236648   2.399   4.106   4.459 -0.2829 -0.0984  0.2390
43904SOL     OW36649   1.307  11.524   6.788 -0.0703  0.0417  0.2776
43904SOL    HW136650   1.331  11.464   6.717 -0.4022  0.1682  0.0569
43904SOL    HW236651   1.370  11.595   6.782 -0.5361  0.4077 -0.3426
43905SOL     OW36652   9.185   3.420  11.387  0.0880  0.2137  0.1491
43905SOL    HW136653   9.198   3.476  11.463 -1.4275  0.7177  0.0618
43905SOL    HW236654   9.104   3.372  11.407  0.0512 -0.1457 -0.8430
43906SOL     OW36655   7.110   5.882   5.871 -0.1440  1.1287  0.2928
43906SOL    HW136656   7.093   5.862   5.779 -0.0344 -0.2238  0.5342
43906SOL    HW236657   7.192   5.838   5.891 -1.1459 -0.3099  1.5189
43907SOL     OW36658   2.919   4.920   0.044 -0.3007  0.1872 -0.4431
43907SOL    HW136659   2.835   4.961   0.025 -1.7965 -2.1221  0.6980
43907SOL    HW236660   2.940   4.948   0.134 -0.7576 -0.5929 -0.0826
43908SOL     OW36661   7.197   8.278   0.764 -0.0045  0.0526 -0.1165
43908SOL    HW136662   7.293   8.277   0.767  0.0387 -1.3867 -0.8270
43908SOL    HW236663   7.176   8.338   0.693  0.3153  1.1977  0.7301
43909SOL     OW36664   1.160   6.240   3.238  0.1300 -0.2468 -0.4668
43909SOL    HW136665   1.237   6.198   3.275  0.4058 -0.0043 -0.7603
43909SOL    HW236666   1.194   6.295   3.167 -0.1171  1.1072  0.4161
43910SOL     OW36667   2.327   2.926   8.825  0.1147 -0.1623 -0.4210
43910SOL    HW136668   2.232   2.913   8.828  0.2216 -0.8153  0.1470
43910SOL    HW236669   2.358   2.859   8.764  0.3423 -0.7316  0.3119
43911SOL     OW36670   9.347   3.287   2.358 -0.2307  0.5250 -0.3149
43911SOL    HW136671   9.286   3.214   2.358 -0.0803  0.3971  0.2283
43911SOL    HW236672   9.433   3.247   2.346 -0.2566  0.7179 -1.2341
43912SOL     OW36673   0.885   3.969   8.835 -0.2129  0.4078 -0.2153
43912SOL    HW136674   0.864   4.059   8.810 -1.3179  0.3404  0.4069
43912SOL    HW236675   0.872   3.918   8.754 -0.2555  0.7033 -0.3942
43913SOL     OW36676  11.059   1.114   8.419  0.5057  0.0401 -0.7298
43913SOL    HW136677  11.093   1.127   8.330 -0.3474 -1.2321 -1.2808
43913SOL    HW236678  11.129   1.067   8.465  0.8082  0.3841 -0.8335
43914SOL     OW36679   2.410   1.460   1.074  0.2523 -0.2825 -0.7318
43914SOL    HW136680   2.420   1.441   1.168 -0.0157  0.0924 -0.6253
43914SOL    HW236681   2.437   1.379   1.031 -0.4175 -0.7513 -0.3022
43915SOL     OW36682   4.908   8.798   3.973  0.1821 -0.1904 -0.6921
43915SOL    HW136683   4.820   8.796   4.009  0.3432  0.8818 -0.1869
43915SOL    HW236684   4.915   8.718   3.921 -1.9222  0.8538 -2.7703
43916SOL     OW36685   6.413   0.506   1.550  0.1174  0.2067  0.0359
43916SOL    HW136686   6.389   0.462   1.469 -1.9181 -1.5158  1.4807
43916SOL    HW236687   6.330   0.537   1.587  0.6246 -1.2491  2.6404
43917SOL     OW36688   4.833   7.611   9.218 -0.4666  0.2046  0.2695
43917SOL    HW136689   4.880   7.691   9.193 -0.2084  0.1729  0.6506
43917SOL    HW236690   4.885   7.573   9.288 -1.8257  0.9431  1.7451
43918SOL     OW36691   2.862  10.507   0.886 -0.1364 -0.2826  0.0039
43918SOL    HW136692   2.838  10.585   0.836 -0.0990  1.3445  2.3501
43918SOL    HW236693   2.841  10.434   0.828  0.0160  1.4472 -2.3816
43919SOL     OW36694   4.616   9.952   0.071 -0.1258 -0.9199 -0.1299
43919SOL    HW136695   4.641   9.999   0.150 -0.1573 -2.3319  0.7687
43919SOL    HW236696   4.524   9.976   0.057 -0.0851 -0.5729  0.1847
43920SOL     OW36697   2.754   3.790   4.184  0.2073 -0.3066  0.0941
43920SOL    HW136698   2.810   3.778   4.107  2.5142  0.2404  1.5718
43920SOL    HW236699   2.762   3.709   4.234  0.6445  0.1916  0.8702
43921SOL     OW36700   0.010   4.838  10.855  0.4364  0.0271 -0.0432
43921SOL    HW136701  -0.081   4.863  10.871 -0.3886 -1.3677 -1.9739
43921SOL    HW236702   0.055   4.920  10.834 -0.9191  0.5173 -1.1922
43922SOL     OW36703   0.935   8.924   6.041 -0.0821 -0.0665  0.1501
43922SOL    HW136704   0.955   8.903   5.950  0.5871  1.2868 -0.0480
43922SOL    HW236705   0.883   8.850   6.072 -1.5202  0.0896 -1.7309
43923SOL     OW36706  10.186   8.293   7.794 -0.3332 -0.6371  0.3059
43923SOL    HW136707  10.121   8.260   7.857 -0.2893 -2.1803 -0.4038
43923SOL    HW236708  10.133   8.328   7.723 -0.4425 -2.2669 -0.4612
43924SOL     OW36709   0.966  10.562   9.668 -0.4373 -0.3272  0.0355
43924SOL    HW136710   0.879  10.598   9.647 -0.3942  1.1841  2.1329
43924SOL    HW236711   0.995  10.612   9.745  2.1677 -1.0087 -0.3954
43925SOL     OW36712   5.628   0.000   7.158 -0.0805 -0.2016 -0.1296
43925SOL    HW136713   5.607   0.064   7.089  1.6419  0.7138  0.1407
43925SOL    HW236714   5.611   0.047   7.239 -1.6870 -1.1347  0.1177
43926SOL     OW36715   2.302   5.308   1.489  0.4079 -0.3595  0.4627
43926SOL    HW136716   2.224   5.267   1.528  0.0998 -1.3409 -1.0696
43926SOL    HW236717   2.269   5.388   1.450  0.4052 -0.1809  0.8253
43927SOL     OW36718   1.051  11.310   2.228 -0.6108 -0.0028  0.4151
43927SOL    HW136719   1.078  11.341   2.141 -3.1576  1.3807  0.0305
43927SOL    HW236720   1.091  11.372   2.289 -1.6809  1.1641 -0.0388
43928SOL     OW36721  10.367   2.156   3.479  0.1196 -0.3418  0.1226
43928SOL    HW136722  10.382   2.128   3.389 -1.7887  0.3970 -0.4853
43928SOL    HW236723  10.272   2.147   3.491  0.3501 -0.5358  2.1085
43929SOL     OW36724  11.130   5.485  10.600 -0.3614  0.1097 -0.0126
43929SOL    HW136725  11.209   5.497  10.653  0.1464  2.7900 -1.2158
43929SOL    HW236726  11.058   5.497  10.662  0.2057  1.1796  0.4674
43930SOL     OW36727   6.316   2.537   5.890 -0.1884 -0.1694 -0.0985
43930SOL    HW136728   6.261   2.460   5.908 -0.3361 -0.1521 -0.4683
43930SOL    HW236729   6.401   2.515   5.928 -0.7386  0.2401  1.4105
43931SOL     OW36730   5.447   5.065   4.576  0.1233  0.5140  0.2266
43931SOL    HW136731   5.415   5.111   4.654 -1.7677  1.2671 -0.9287
43931SOL    HW236732   5.413   5.116   4.503 -3.5956 -3.4716 -1.2395
43932SOL     OW36733   0.312   0.411   5.760 -0.2153 -0.4739  0.0609
43932SOL    HW136734   0.298   0.391   5.668 -0.0615 -0.1019 -0.0474
43932SOL    HW236735   0.225   0.416   5.798 -0.3506  0.6823 -0.3534
43933SOL     OW36736   2.324   4.405   4.487  0.4554  0.5612 -0.0251
43933SOL    HW136737   2.272   4.365   4.556  1.7111  1.0427  1.2717
43933SOL    HW236738   2.312   4.499   4.499  1.5469  0.6822  0.2817
43934SOL     OW36739   9.029   0.476   9.714 -0.4424  0.8116 -0.0240
43934SOL    HW136740   8.959   0.524   9.758  0.9037  2.0490  0.8461
43934SOL    HW236741   9.050   0.529   9.638 -1.0649 -0.0459 -0.8112
43935SOL     OW36742   5.914   7.484   0.508  0.1278 -0.4816  0.7331
43935SOL    HW136743   5.828   7.519   0.531  0.2910  0.8634 -0.5157
43935SOL    HW236744   5.949   7.450   0.590 -1.2065 -0.2047  1.4476
43936SOL     OW36745   1.305   3.323   2.206  0.8021  0.2026  0.1698
43936SOL    HW136746   1.284   3.402   2.255  0.0846 -0.4365  0.9048
43936SOL    HW236747   1.398   3.307   2.224  0.3575 -0.4800  1.9993
43937SOL     OW36748   5.032   0.341   6.573 -0.1913  0.5449 -0.0644
43937SOL    HW136749   4.953   0.335   6.519  1.2011  0.5644 -2.2095
43937SOL    HW236750   5.000   0.328   6.663 -2.7150  1.2442 -0.7665
43938SOL     OW36751   7.336   0.566   2.857  0.0685  0.3120  0.1117
43938SOL    HW136752   7.292   0.650   2.870  0.5928  0.8119 -1.1892
43938SOL    HW236753   7.401   0.562   2.926  0.1272  1.0466  0.1039
43939SOL     OW36754   1.409   5.633  10.176 -0.2175 -0.4943 -0.2078
43939SOL    HW136755   1.463   5.599  10.104 -0.0262 -0.0592 -0.2733
43939SOL    HW236756   1.352   5.698  10.135 -1.2684 -1.4318 -0.2534
43940SOL     OW36757   8.541   3.626   3.963  0.1343  0.0364 -0.2303
43940SOL    HW136758   8.496   3.659   3.885  0.0477  2.0213  0.6169
43940SOL    HW236759   8.490   3.549   3.989 -1.5596  1.0149 -0.4987
43941SOL     OW36760   0.751   1.770  11.476  0.1660 -0.0495  0.1807
43941SOL    HW136761   0.677   1.732  11.429 -0.4343  1.3296 -0.0383
43941SOL    HW236762   0.740   1.741  11.566  0.2197 -1.0976 -0.1402
43942SOL     OW36763   7.907   1.882   2.172  1.0449  0.1583  0.1844
43942SOL    HW136764   7.950   1.807   2.213  1.5175  0.7301  0.7725
43942SOL    HW236765   7.887   1.853   2.083  0.6604 -0.8704  0.5899
43943SOL     OW36766   7.516   2.690  11.468 -0.2169  0.5158 -0.1152
43943SOL    HW136767   7.447   2.644  11.420 -0.5280 -0.4835  1.2240
43943SOL    HW236768   7.594   2.679  11.414  0.1986 -3.3241  0.9388
43944SOL     OW36769   6.267   7.760   7.605  0.2185 -0.0531 -0.3980
43944SOL    HW136770   6.268   7.832   7.668 -0.8230  0.6611 -1.1811
43944SOL    HW236771   6.313   7.689   7.651 -0.8800  0.2977  1.3623
43945SOL     OW36772   9.949   3.984   1.123 -0.4687  0.4652 -0.1388
43945SOL    HW136773   9.989   3.975   1.036  2.5344  0.6972  1.0952
43945SOL    HW236774   9.919   4.074   1.126  1.4320  1.1509 -0.2363
43946SOL     OW36775  11.289   5.213  10.632  0.1606  0.0167  0.1968
43946SOL    HW136776  11.304   5.206  10.537 -1.0525  1.8436 -0.1651
43946SOL    HW236777  11.201   5.249  10.640  0.1027 -0.4417  2.0522
43947SOL     OW36778  10.731   9.208   9.794  0.4403  0.1537 -0.1019
43947SOL    HW136779  10.647   9.209   9.747  0.0486  0.0796  0.5862
43947SOL    HW236780  10.727   9.283   9.853  0.2534 -0.6613  0.9579
43948SOL     OW36781   8.838   4.650   2.101  0.0633  0.6999 -0.3189
43948SOL    HW136782   8.932   4.655   2.121 -0.0997  0.4611  0.5802
43948SOL    HW236783   8.799   4.721   2.153 -0.3159  0.4164 -0.2097
43949SOL     OW36784   4.343   5.563   2.834 -0.1232 -0.1113  0.3662
43949SOL    HW136785   4.342   5.475   2.797  0.9834 -0.3914  0.9393
43949SOL    HW236786   4.274   5.610   2.788  2.1324  0.0467 -3.2945
43950SOL     OW36787  11.648  11.031   1.228 -0.0912 -0.0670  0.2391
43950SOL    HW136788  11.715  11.098   1.245  0.2327 -0.1827 -0.5555
43950SOL    HW236789  11.694  10.961   1.182 -0.5582 -0.5808  0.5390
43951SOL     OW36790   9.794   7.191   5.797  0.1298  0.3811  0.0399
43951SOL    HW136791   9.720   7.135   5.821  1.3547 -0.4800  2.1547
43951SOL    HW236792   9.816   7.238   5.878  1.9879  0.4569 -0.4478
43952SOL     OW36793   2.979   6.427   0.338  0.2564 -0.0299 -0.4831
43952SOL    HW136794   3.006   6.433   0.247  0.5979 -1.3239 -0.4844
43952SOL    HW236795   2.981   6.334   0.358 -2.6865 -0.1005 -0.0060
43953SOL     OW36796   9.108   8.048   3.235  0.1876  0.1975 -0.3114
43953SOL    HW136797   9.184   8.049   3.293 -0.4453  1.5099  0.5332
43953SOL    HW236798   9.033   8.065   3.293 -0.4956  1.2770 -1.4555
43954SOL     OW36799   7.007   9.072   9.888 -0.0329 -0.8710  0.2710
43954SOL    HW136800   7.072   9.125   9.933 -1.5345 -0.0916  1.6317
43954SOL    HW236801   7.053   8.990   9.867  1.4224 -0.2661  0.9838
43955SOL     OW36802   8.818   0.148   2.840 -0.1146  1.1008 -0.1480
43955SOL    HW136803   8.819   0.228   2.892 -1.3128  0.3138  1.1511
43955SOL    HW236804   8.745   0.159   2.779  0.9451  1.7897 -1.3375
43956SOL     OW36805   9.027   3.397   2.229  0.1077 -0.5147 -0.0706
43956SOL    HW136806   8.999   3.488   2.230  2.8134  0.4180 -0.4915
43956SOL    HW236807   9.112   3.399   2.184  1.1315 -2.9538  1.5708
43957SOL     OW36808  11.113   7.418   2.261 -0.1966  0.5219 -0.2109
43957SOL    HW136809  11.083   7.432   2.351  0.6096 -3.9579  0.9672
43957SOL    HW236810  11.197   7.464   2.256  1.1358 -1.4269  2.3731
43958SOL     OW36811   3.773   9.081   6.848  0.3724  1.0855 -0.2608
43958SOL    HW136812   3.680   9.062   6.835  0.8571 -1.6112 -0.4654
43958SOL    HW236813   3.778   9.116   6.937 -0.6419 -1.1397  0.7729
43959SOL     OW36814   2.208  11.345   6.400 -0.3108 -0.3125 -0.0857
43959SOL    HW136815   2.246  11.348   6.312  1.9137 -0.0694  0.8343
43959SOL    HW236816   2.272  11.299   6.453 -1.8473 -0.9080  1.3427
43960SOL     OW36817   7.693   0.182   8.779 -0.1648 -0.6060 -0.5474
43960SOL    HW136818   7.632   0.217   8.844  1.2241 -0.3844  0.7204
43960SOL    HW236819   7.682   0.237   8.702  1.5747  2.4749  1.1840
43961SOL     OW36820  10.539   8.498   7.366  0.2585 -0.3089 -0.0637
43961SOL    HW136821  10.610   8.451   7.409 -1.0647 -2.2769  0.0628
43961SOL    HW236822  10.520   8.447   7.288 -1.6002 -0.3307  0.3618
43962SOL     OW36823   8.456   9.193   5.333  0.5277  0.1222 -0.0506
43962SOL    HW136824   8.546   9.211   5.360  0.8496  0.5989 -1.3960
43962SOL    HW236825   8.465   9.137   5.256 -0.3203  0.3998 -0.3558
43963SOL     OW36826   9.317   5.391   6.297 -0.6297 -0.4502  0.3488
43963SOL    HW136827   9.360   5.460   6.347 -2.4939 -0.4931  2.1291
43963SOL    HW236828   9.356   5.398   6.209  1.7661  0.5192  1.3956
43964SOL     OW36829  11.461   5.214   3.959 -0.0904  0.4866 -0.2578
43964SOL    HW136830  11.419   5.167   3.887  2.3891 -1.0553 -0.8359
43964SOL    HW236831  11.554   5.210   3.938  0.5096  2.2607  1.7693
43965SOL     OW36832   0.001   6.939   5.438 -0.4460 -0.2854 -0.4607
43965SOL    HW136833   0.076   6.933   5.379 -0.4111 -0.8861 -0.3571
43965SOL    HW236834  -0.023   6.849   5.456 -1.0499 -0.1000 -0.3022
43966SOL     OW36835   4.191   6.020   2.188 -0.1189 -0.2187  0.3366
43966SOL    HW136836   4.149   6.028   2.102 -0.3222 -1.2645  0.3230
43966SOL    HW236837   4.263   5.958   2.173 -1.9057 -2.7497  1.4834
43967SOL     OW36838   0.075   4.837   5.490  0.4412  0.0733 -0.0143
43967SOL    HW136839   0.017   4.851   5.415  0.8467  1.0636 -0.1584
43967SOL    HW236840   0.024   4.782   5.550 -1.4600  2.5170  0.7795
43968SOL     OW36841   4.954  10.435   1.117 -0.1326  0.0144  0.2345
43968SOL    HW136842   5.035  10.387   1.097 -0.5885  0.0622 -1.8334
43968SOL    HW236843   4.890  10.402   1.055 -2.5143 -1.8553  3.3690
43969SOL     OW36844   4.419   8.203   5.812  0.1051  1.4166  0.1293
43969SOL    HW136845   4.333   8.197   5.853 -0.4966  1.0855 -1.1222
43969SOL    HW236846   4.464   8.273   5.860 -0.3533  0.7106  1.6517
43970SOL     OW36847   5.279  10.990   4.790  0.2867  0.6201 -0.2322
43970SOL    HW136848   5.371  10.992   4.817  0.7056 -0.9864 -1.3932
43970SOL    HW236849   5.278  10.934   4.712 -1.8408 -0.2920  0.3876
43971SOL     OW36850   8.632   6.012   1.073 -0.3378  0.2736  0.5724
43971SOL    HW136851   8.619   5.957   0.996  0.0597 -2.2627  2.2024
43971SOL    HW236852   8.586   5.966   1.144  0.4866  1.7541  2.1586
43972SOL     OW36853   6.505   6.813   8.824 -0.7889 -0.4890  1.0181
43972SOL    HW136854   6.459   6.832   8.742  1.1063  1.8784  0.3775
43972SOL    HW236855   6.515   6.898   8.866  1.6112 -1.0786  1.8250
43973SOL     OW36856   4.741   3.485   2.711 -0.1083 -0.1267 -0.0985
43973SOL    HW136857   4.649   3.482   2.739 -0.5388  1.3349 -1.2701
43973SOL    HW236858   4.767   3.576   2.724  0.8368 -0.2812 -0.8413
43974SOL     OW36859   7.929   1.265  10.911 -0.3994 -0.5137 -0.2663
43974SOL    HW136860   7.849   1.293  10.957 -0.2293 -1.1887  0.4702
43974SOL    HW236861   7.959   1.189  10.961 -0.5125 -1.6365 -1.8533
43975SOL     OW36862   3.715  10.301   0.413  0.0105  0.0732  0.4667
43975SOL    HW136863   3.759  10.371   0.460  1.5617 -0.9143  0.5545
43975SOL    HW236864   3.748  10.309   0.323  0.1378 -0.4877  0.4622
43976SOL     OW36865   0.878   6.544   3.379 -0.1602  0.2446  0.2903
43976SOL    HW136866   0.908   6.513   3.465  1.0532 -0.2476 -0.2913
43976SOL    HW236867   0.952   6.593   3.344 -0.1147 -0.7261 -1.0485
43977SOL     OW36868   0.254   3.793   3.738 -0.2297  0.1215 -0.0159
43977SOL    HW136869   0.206   3.746   3.670  1.1307  0.0964 -1.0013
43977SOL    HW236870   0.339   3.748   3.742  0.5046  1.4894  0.1629
43978SOL     OW36871   3.198   0.409   6.518 -0.2560 -0.3207  0.9294
43978SOL    HW136872   3.251   0.369   6.588  0.9848 -1.0021 -0.3473
43978SOL    HW236873   3.260   0.423   6.447 -1.8968 -1.7066 -0.8706
43979SOL     OW36874   9.470   0.167   2.252 -0.0520  0.0929  0.1273
43979SOL    HW136875   9.471   0.074   2.275 -1.9502 -0.0964 -0.4414
43979SOL    HW236876   9.380   0.185   2.226  0.5894  1.7846 -1.0896
43980SOL     OW36877   1.724   0.913   9.653 -0.2677  0.2363 -0.4625
43980SOL    HW136878   1.648   0.923   9.710 -0.0994  0.5258 -0.2878
43980SOL    HW236879   1.693   0.858   9.581 -0.6415  0.3518 -0.3900
43981SOL     OW36880  10.979   9.609   7.524  0.7561 -0.2599  0.5342
43981SOL    HW136881  10.926   9.571   7.454 -0.8445  1.1716  0.8788
43981SOL    HW236882  11.068   9.578   7.508  0.0793 -1.5252 -0.9777
43982SOL     OW36883  10.899   1.008   2.445  0.0214 -0.0016  0.1952
43982SOL    HW136884  10.954   0.977   2.517  1.1159 -1.3393 -1.1521
43982SOL    HW236885  10.845   1.076   2.484  2.2262  0.9977  1.7390
43983SOL     OW36886   0.148  10.540   1.129  0.2324  0.6656 -0.3568
43983SOL    HW136887   0.114  10.580   1.208  0.4705  0.8071 -0.3248
43983SOL    HW236888   0.094  10.576   1.059  0.0020  0.5166 -0.2548
43984SOL     OW36889   5.641   8.665   5.655  0.2817  0.2359  0.4444
43984SOL    HW136890   5.647   8.752   5.692 -0.3696 -0.2171  1.6662
43984SOL    HW236891   5.642   8.679   5.560  1.5807  1.4439  0.6089
43985SOL     OW36892  10.099   6.867   5.784 -0.6853 -0.0519  0.2983
43985SOL    HW136893  10.033   6.808   5.748 -0.5929  0.0237  0.0033
43985SOL    HW236894  10.107   6.840   5.876  0.7301 -1.7767 -0.2697
43986SOL     OW36895   7.957   4.054   8.492  0.0590 -0.1937 -0.5742
43986SOL    HW136896   8.018   4.088   8.426 -1.2686  1.9289 -0.8064
43986SOL    HW236897   7.911   3.983   8.448  0.9856 -0.5039 -1.0606
43987SOL     OW36898   5.130   2.775   9.857  0.6961 -0.2483 -0.5791
43987SOL    HW136899   5.047   2.783   9.903  1.3962 -0.8803  0.8337
43987SOL    HW236900   5.125   2.841   9.788 -1.3924 -0.9560 -1.1920
43988SOL     OW36901   8.433   2.839   5.733 -0.0641 -0.5286  0.0833
43988SOL    HW136902   8.339   2.821   5.738 -0.2981  0.8166  1.1006
43988SOL    HW236903   8.456   2.822   5.642 -1.1760 -1.3707 -0.0661
43989SOL     OW36904   8.290   2.029   4.977  0.1718 -0.2930 -0.3345
43989SOL    HW136905   8.271   2.046   4.885  0.8431 -0.6193 -0.5392
43989SOL    HW236906   8.204   2.029   5.020 -0.1617 -0.3746 -0.9958
43990SOL     OW36907   5.186   5.538  11.248  0.2764  0.6968  0.5278
43990SOL    HW136908   5.180   5.511  11.157 -0.7283  1.0589  0.4750
43990SOL    HW236909   5.105   5.507  11.288  0.2276  1.4716  1.0509
43991SOL     OW36910  11.064   5.701   4.678  0.1240  0.0360  0.1360
43991SOL    HW136911  11.036   5.726   4.766  0.4851 -0.2452  0.3314
43991SOL    HW236912  11.069   5.605   4.680 -0.6556 -0.0264 -0.4292
43992SOL     OW36913   8.442   6.513   4.819 -0.3894 -0.0175  0.2059
43992SOL    HW136914   8.490   6.591   4.792 -1.3359  0.3179 -0.5532
43992SOL    HW236915   8.493   6.439   4.785  0.7563  0.2280  1.3201
43993SOL     OW36916  11.493  10.026   0.835 -0.4316  0.0707  0.0232
43993SOL    HW136917  11.572   9.981   0.806 -1.3792  0.0513 -2.7710
43993SOL    HW236918  11.434   9.955   0.863 -0.0575 -0.0058  0.6554
43994SOL     OW36919   7.389   0.040   5.499  0.0827  0.2766 -0.5950
43994SOL    HW136920   7.395   0.017   5.592  0.2428  1.5561 -0.2736
43994SOL    HW236921   7.302   0.010   5.473  0.9574 -2.4086 -0.7258
43995SOL     OW36922   4.808   1.970   6.428 -0.0611 -0.4911  0.1487
43995SOL    HW136923   4.850   1.885   6.437 -1.2330 -1.1071 -0.0736
43995SOL    HW236924   4.826   1.996   6.337  1.7925  0.3421  0.7055
43996SOL     OW36925   6.942   7.315   9.935  0.5778  0.1161 -0.1022
43996SOL    HW136926   6.999   7.328  10.011  1.2743  0.3578 -0.6581
43996SOL    HW236927   6.998   7.333   9.860  0.0069 -0.5419 -0.6908
43997SOL     OW36928   3.393   7.015   6.078  0.0238 -0.0654 -0.0729
43997SOL    HW136929   3.353   7.098   6.101 -0.2215 -0.2223  0.0726
43997SOL    HW236930   3.402   7.017   5.982 -2.3293 -0.9120 -0.3722
43998SOL     OW36931   4.347  11.399   4.682  0.5353  0.2169  0.0239
43998SOL    HW136932   4.285  11.423   4.612  0.6869  1.1267  0.1841
43998SOL    HW236933   4.337  11.305   4.691  0.7980  0.0109 -1.5021
43999SOL     OW36934   5.012   1.033   5.838 -0.4382  0.2258 -0.1438
43999SOL    HW136935   5.094   1.001   5.801 -0.1383  1.5712 -0.7040
43999SOL    HW236936   5.027   1.035   5.932  0.4156  1.0508 -0.2847
44000SOL     OW36937   6.721   3.852  11.681  0.0975  0.5475  0.6849
44000SOL    HW136938   6.666   3.876  11.607 -1.7000  0.5239  1.9439
44000SOL    HW236939   6.754   3.764  11.660 -1.9024 -0.2531  0.6844
44001SOL     OW36940  10.734   8.079   4.730  1.0612  0.0345  0.1027
44001SOL    HW136941  10.734   8.002   4.674  0.2509  0.2711 -0.2426
44001SOL    HW236942  10.786   8.054   4.806  2.4207 -0.1978 -0.8707
44002SOL     OW36943   4.495  10.386   0.248  0.1496  0.3245 -0.2840
44002SOL    HW136944   4.467  10.441   0.175 -0.8765 -1.2716 -1.1462
44002SOL    HW236945   4.414  10.362   0.293  0.7309  0.9308  1.1445
44003SOL     OW36946   1.507   8.645   8.420 -0.5451  0.2430 -0.0016
44003SOL    HW136947   1.479   8.556   8.400 -1.0135  0.6365 -1.1750
44003SOL    HW236948   1.526   8.685   8.335  0.0519  1.1481  0.5262
44004SOL     OW36949  11.506   0.828   0.371 -0.2335  0.4482 -0.1961
44004SOL    HW136950  11.452   0.752   0.391 -1.4593  1.2436 -0.3614
44004SOL    HW236951  11.568   0.796   0.306 -1.2456 -0.2339 -0.8658
44005SOL     OW36952   0.941  10.770   2.268 -0.0908 -0.0955 -0.0730
44005SOL    HW136953   1.036  10.778   2.254 -0.0780 -0.2473 -0.0756
44005SOL    HW236954   0.929  10.795   2.360  0.1018 -1.1707  0.2630
44006SOL     OW36955   5.475   2.493   8.174  0.4481 -0.0963 -0.1460
44006SOL    HW136956   5.430   2.536   8.247  1.6081 -0.2829  0.7215
44006SOL    HW236957   5.556   2.543   8.164  1.1387 -1.1701 -0.0883
44007SOL     OW36958   4.102   8.501   6.992 -0.1254 -0.1916 -0.8310
44007SOL    HW136959   4.126   8.444   7.065 -2.5593  0.8640  0.9329
44007SOL    HW236960   4.171   8.487   6.927  1.9229 -1.5030  1.4557
44008SOL     OW36961   8.116   8.024   0.630  0.2660 -0.7119 -0.0944
44008SOL    HW136962   8.050   8.074   0.678  0.8747 -0.5270  0.5613
44008SOL    HW236963   8.138   8.079   0.555 -2.0939 -1.8338 -1.7285
44009SOL     OW36964   0.235   0.540  11.511  0.2170  0.4422  0.2124
44009SOL    HW136965   0.214   0.617  11.565  1.7698  0.1786  1.2480
44009SOL    HW236966   0.328   0.550  11.490  0.9154 -1.9828  1.8066
44010SOL     OW36967   8.568   0.779   1.111 -0.6839 -0.1052 -0.3057
44010SOL    HW136968   8.507   0.748   1.044  0.1592  0.2380 -1.2595
44010SOL    HW236969   8.651   0.739   1.088 -0.4584 -0.3117  0.7968
44011SOL     OW36970   2.392   1.914   2.837 -0.0292  0.6042 -0.3596
44011SOL    HW136971   2.313   1.876   2.797  0.0738  1.8097 -1.8204
44011SOL    HW236972   2.458   1.910   2.767  1.2107 -0.2912  0.8035
44012SOL     OW36973   3.787   8.397   6.442 -0.1293 -0.1955 -0.2333
44012SOL    HW136974   3.732   8.473   6.459 -0.5613 -0.4975 -0.2667
44012SOL    HW236975   3.757   8.364   6.357  0.7317  0.1825 -0.6997
44013SOL     OW36976   5.449  10.384   9.492 -0.0113 -0.2087 -0.2316
44013SOL    HW136977   5.474  10.403   9.401  0.6065 -1.1720 -0.2781
44013SOL    HW236978   5.512  10.433   9.545  1.5526 -1.9720 -0.3497
44014SOL     OW36979   9.234   6.107   2.661  0.0011  0.4539  0.1393
44014SOL    HW136980   9.171   6.048   2.703 -0.7232  0.1780 -1.2709
44014SOL    HW236981   9.225   6.088   2.567 -0.5060  3.0355 -0.4089
44015SOL     OW36982  11.428   7.305  11.085 -0.3247 -0.4061 -0.9804
44015SOL    HW136983  11.508   7.317  11.034 -1.0428  0.0497 -2.0125
44015SOL    HW236984  11.381   7.388  11.077 -1.9411 -1.3844 -2.2220
44016SOL     OW36985   9.141  11.392   2.992 -0.7457  0.5016  0.1275
44016SOL    HW136986   9.067  11.335   3.008 -0.4010 -0.4044 -1.3338
44016SOL    HW236987   9.102  11.472   2.956 -1.0148  0.0607 -0.5653
44017SOL     OW36988   0.477  11.293   9.978  0.1949  0.2071  0.2309
44017SOL    HW136989   0.491  11.204   9.945  1.9713  1.0511 -1.4924
44017SOL    HW236990   0.511  11.290  10.068  0.0919 -0.8771  0.2502
44018SOL     OW36991  11.013   4.676   1.273  0.5126  0.2241  0.9055
44018SOL    HW136992  10.987   4.587   1.297  0.1869 -0.1707 -0.7688
44018SOL    HW236993  10.930   4.723   1.264  0.7118  0.9726  2.6668
44019SOL     OW36994   8.127  11.161   2.903  0.5052  0.1412 -0.3570
44019SOL    HW136995   8.189  11.117   2.845  0.9117 -1.3639  1.1129
44019SOL    HW236996   8.044  11.115   2.890  0.4188  0.2698 -0.2705
44020SOL     OW36997  10.267   7.970   5.244  0.0733  0.0451 -0.3963
44020SOL    HW136998  10.240   8.042   5.301  2.7998  2.1346 -1.5351
44020SOL    HW236999  10.322   7.915   5.300  1.1100  0.9990 -0.4366
44021SOL     OW37000  10.721   1.822   3.866  0.0386 -0.1940  0.0007
44021SOL    HW137001  10.671   1.849   3.789  0.6067 -1.7323 -0.9606
44021SOL    HW237002  10.746   1.731   3.847  0.5147 -0.4861  1.8446
44022SOL     OW37003   7.651   3.698   7.246 -0.2273 -0.4878 -0.2404
44022SOL    HW137004   7.633   3.689   7.339 -0.8886 -0.1816 -0.3360
44022SOL    HW237005   7.743   3.725   7.242 -0.7074  1.4293  0.4227
44023SOL     OW37006   2.181   4.526   2.314  0.2630  0.3499 -0.1649
44023SOL    HW137007   2.122   4.550   2.244 -2.1831  0.3760  1.7756
44023SOL    HW237008   2.133   4.461   2.365  3.2661 -2.2686 -0.3369
44024SOL     OW37009   3.233  10.868   9.261 -0.1386 -0.4695 -0.4734
44024SOL    HW137010   3.173  10.807   9.220  0.4845  0.0268 -2.2139
44024SOL    HW237011   3.177  10.937   9.296 -0.7189 -1.1401 -0.0598
44025SOL     OW37012   8.633   7.673   5.357 -0.5058  0.2897  0.1010
44025SOL    HW137013   8.681   7.597   5.323  1.4424  1.2614  0.5458
44025SOL    HW237014   8.605   7.721   5.279 -0.2747 -0.0035 -0.1666
44026SOL     OW37015   4.005   5.949   3.572  0.6879  0.1064 -0.3520
44026SOL    HW137016   4.007   5.952   3.667  1.7967 -0.6196 -0.3379
44026SOL    HW237017   4.034   6.036   3.544 -0.7081  0.6964 -0.0509
44027SOL     OW37018   3.327   8.359   9.712 -0.2715 -0.3380 -0.0174
44027SOL    HW137019   3.368   8.283   9.670  0.6142  0.6260 -0.9396
44027SOL    HW237020   3.382   8.377   9.788  1.1981  1.0511 -1.3386
44028SOL     OW37021  10.626   9.778   7.585 -0.1975 -0.3042 -0.2851
44028SOL    HW137022  10.636   9.759   7.492  0.3152 -1.6794  0.0237
44028SOL    HW237023  10.713   9.806   7.614 -0.0080 -1.1824  0.0374
44029SOL     OW37024   2.075   6.206   2.211 -0.5017 -0.0210  0.2993
44029SOL    HW137025   2.163   6.189   2.179 -0.7019  1.6585 -1.3360
44029SOL    HW237026   2.076   6.299   2.235 -1.5605 -0.2276  1.2238
44030SOL     OW37027  11.639  10.840   9.478  0.0883 -0.0452 -0.8646
44030SOL    HW137028  11.732  10.831   9.456 -0.0858 -2.4695 -0.9318
44030SOL    HW237029  11.593  10.808   9.400 -0.6658 -2.3359  0.4231
44031SOL     OW37030   7.345   6.088   3.254  0.1144 -0.0233  0.1197
44031SOL    HW137031   7.413   6.030   3.219 -1.4491 -1.3822 -0.8553
44031SOL    HW237032   7.305   6.037   3.324  0.4225  0.9702  1.0318
44032SOL     OW37033   1.221   1.976   7.754 -0.3469 -0.2553 -0.0881
44032SOL    HW137034   1.198   2.054   7.703  1.3817 -0.0728 -0.6693
44032SOL    HW237035   1.143   1.921   7.752 -1.2908  1.0474 -0.4516
44033SOL     OW37036   8.748   8.728  10.196  0.0860  0.4776 -0.2707
44033SOL    HW137037   8.796   8.720  10.113  0.9184  2.4939 -0.0389
44033SOL    HW237038   8.702   8.811  10.189  1.3089  1.4101  1.8240
44034SOL     OW37039   9.591   5.652   9.427 -0.9398  0.6170  0.0969
44034SOL    HW137040   9.569   5.744   9.417 -1.9849  0.4794  1.0003
44034SOL    HW237041   9.512   5.611   9.461 -0.4160 -0.5756 -0.0464
44035SOL     OW37042   2.916  10.548   5.564 -0.0799 -0.4027  0.1892
44035SOL    HW137043   2.962  10.492   5.626 -1.3613 -1.1398  0.4893
44035SOL    HW237044   2.873  10.488   5.503 -1.2078  0.2416  0.3230
44036SOL     OW37045   4.466   5.955   6.594 -0.8500  0.4801 -0.1346
44036SOL    HW137046   4.481   5.921   6.682  0.5441  0.2337 -0.4359
44036SOL    HW237047   4.487   5.881   6.536  0.7362  1.3742 -0.7472
44037SOL     OW37048   7.203   5.795   1.904 -0.4418 -0.1907 -0.4545
44037SOL    HW137049   7.252   5.777   1.824 -0.6667  1.1624 -0.9207
44037SOL    HW237050   7.112   5.774   1.882 -0.4239 -0.3599 -0.3695
44038SOL     OW37051   7.498   5.888   1.187 -0.1044  0.5505 -0.4308
44038SOL    HW137052   7.491   5.972   1.231  2.4825  0.6548 -0.0473
44038SOL    HW237053   7.412   5.874   1.146 -1.3695  2.1942  1.4990
44039SOL     OW37054   1.344   4.003   3.174  1.2004  0.1943  0.4495
44039SOL    HW137055   1.406   3.948   3.125  0.7739  1.5727 -1.8080
44039SOL    HW237056   1.349   4.088   3.130 -2.0590  0.4253  0.3411
44040SOL     OW37057   6.448   1.877  11.364  0.7181 -0.1316 -0.3700
44040SOL    HW137058   6.353   1.883  11.353  0.7597  2.0641  0.0102
44040SOL    HW237059   6.476   1.814  11.298 -0.8976 -0.0935 -1.1340
44041SOL     OW37060   2.682   7.837   1.880 -0.3604 -0.1609 -0.2024
44041SOL    HW137061   2.683   7.744   1.905  2.0652 -0.3590 -0.7978
44041SOL    HW237062   2.589   7.860   1.877 -0.9727 -1.9032  2.3091
44042SOL     OW37063   3.584   0.675   5.624 -0.4670  0.0311 -0.1122
44042SOL    HW137064   3.583   0.759   5.579 -0.0225  0.3455  0.4640
44042SOL    HW237065   3.543   0.614   5.561  2.2511 -0.0735 -1.9835
44043SOL     OW37066   1.559   6.238   0.872  0.4627 -0.4997  0.0734
44043SOL    HW137067   1.485   6.183   0.847 -1.1941  0.7214  1.9581
44043SOL    HW237068   1.634   6.202   0.825 -0.9558 -3.0028 -0.3995
44044SOL     OW37069   3.739   1.466   1.441 -0.4412  0.1659 -0.7213
44044SOL    HW137070   3.767   1.551   1.406  1.7271 -0.3576 -0.4203
44044SOL    HW237071   3.725   1.482   1.534 -1.4936  0.5102 -0.9352
44045SOL     OW37072   0.822   4.461   9.912 -0.2207 -0.4419 -0.2181
44045SOL    HW137073   0.752   4.518   9.943 -0.9294 -2.1629  1.5862
44045SOL    HW237074   0.891   4.471   9.978  0.2965 -0.5277 -0.7340
44046SOL     OW37075   4.690   6.163   8.948  0.1303  0.5297  0.1749
44046SOL    HW137076   4.681   6.181   8.854 -1.0160  2.1490  0.5404
44046SOL    HW237077   4.779   6.190   8.969  0.3119  0.4005 -0.4058
44047SOL     OW37078   8.274   0.985   2.127  0.5144 -0.1354 -0.1122
44047SOL    HW137079   8.203   0.920   2.132 -0.4065  0.8339 -0.2007
44047SOL    HW237080   8.324   0.971   2.207 -0.0372 -0.5510  0.1722
44048SOL     OW37081  11.347   8.137   9.869 -0.0718  0.9664  0.1249
44048SOL    HW137082  11.430   8.098   9.898  0.0806  1.9823  1.0885
44048SOL    HW237083  11.320   8.082   9.795  0.5089 -0.5226  0.9798
44049SOL     OW37084   2.144   7.489   5.152 -0.1696  0.6885  0.3582
44049SOL    HW137085   2.196   7.534   5.218  1.3014 -0.0732 -0.2200
44049SOL    HW237086   2.071   7.548   5.134  1.0244  2.2621  0.4870
44050SOL     OW37087   4.885  10.601   7.018  0.4472  0.1035 -0.4156
44050SOL    HW137088   4.890  10.508   6.997  0.2881 -0.1396  0.5632
44050SOL    HW237089   4.948  10.642   6.959  1.0892 -0.7223 -0.3302
44051SOL     OW37090   0.310   7.988   2.106  0.5622  0.3856 -0.3489
44051SOL    HW137091   0.330   7.896   2.119 -0.9857 -0.0459 -0.7489
44051SOL    HW237092   0.385   8.035   2.143  0.6918 -0.9835  1.2219
44052SOL     OW37093   2.359   3.161   0.744 -0.5190  0.4572  0.0978
44052SOL    HW137094   2.443   3.128   0.715  0.1968  0.7709  1.6764
44052SOL    HW237095   2.294   3.111   0.694  0.5256 -2.2907  1.2869
44053SOL     OW37096   5.141   2.572   2.357  0.0973 -0.2938 -0.0678
44053SOL    HW137097   5.065   2.626   2.380  0.5932 -0.1205  1.2807
44053SOL    HW237098   5.177   2.545   2.441  0.9385 -1.2197 -0.7070
44054SOL     OW37099   5.233  11.589   2.419 -0.0804 -0.1428 -0.9119
44054SOL    HW137100   5.285  11.669   2.431 -2.0467  1.0355  0.4982
44054SOL    HW237101   5.298  11.519   2.410  1.7250  1.4700 -1.1721
44055SOL     OW37102  10.162   6.570   3.148  0.7326 -0.6189 -0.2924
44055SOL    HW137103  10.250   6.600   3.123 -0.2898  2.4682 -0.5355
44055SOL    HW237104  10.123   6.644   3.193 -0.1684 -3.4885  4.2727
44056SOL     OW37105   1.333   1.021   9.579 -0.4862  0.4066  0.3528
44056SOL    HW137106   1.389   0.998   9.652 -0.9278  2.9245  1.6009
44056SOL    HW237107   1.246   0.990   9.604 -0.1071 -1.5330 -0.5884
44057SOL     OW37108  11.616   3.082   0.713  0.4735 -0.2268 -0.1765
44057SOL    HW137109  11.649   3.169   0.735 -0.6527  0.0569  0.4721
44057SOL    HW237110  11.629   3.030   0.793 -1.0961  0.0483  0.3051
44058SOL     OW37111  10.163  11.026   0.877 -0.3311  0.5888  0.1206
44058SOL    HW137112  10.095  11.053   0.815 -1.0421  1.4885  1.2571
44058SOL    HW237113  10.231  11.093   0.868 -0.0275  0.2295 -0.3104
44059SOL     OW37114   8.849   8.419   8.977  0.3439  0.1202  0.5607
44059SOL    HW137115   8.908   8.378   9.040 -0.9359 -0.7559  1.2286
44059SOL    HW237116   8.853   8.513   8.999 -1.0657 -0.2812  2.8751
44060SOL     OW37117   3.639   9.604  11.679  0.0431 -0.0863 -0.1962
44060SOL    HW137118   3.647   9.567  11.767 -1.7552 -1.3637 -0.5102
44060SOL    HW237119   3.623   9.697  11.694  1.7532  0.0966  0.7205
44061SOL     OW37120   4.380   2.956   1.060  0.2380  0.1401 -0.0602
44061SOL    HW137121   4.312   2.946   1.127  0.9051 -1.4876  0.4474
44061SOL    HW237122   4.462   2.953   1.110  0.7164  2.2082 -0.6392
44062SOL     OW37123  10.509   8.230   2.241  0.5999  0.1650 -0.6180
44062SOL    HW137124  10.476   8.180   2.166 -1.9973 -0.4383  0.7789
44062SOL    HW237125  10.549   8.164   2.298 -1.3734 -0.1721  0.4733
44063SOL     OW37126   4.767   5.679   7.329  0.4771  0.0623  0.4304
44063SOL    HW137127   4.850   5.636   7.309  0.5341 -0.2689  1.3265
44063SOL    HW237128   4.779   5.769   7.301  0.8562 -0.1686 -0.1681
44064SOL     OW37129   3.873   5.942   5.165  0.3795 -0.6498 -0.2037
44064SOL    HW137130   3.890   5.940   5.071 -1.8748 -0.4800 -0.6785
44064SOL    HW237131   3.952   5.905   5.205  2.1495  0.9365 -2.0146
44065SOL     OW37132   8.792   2.360   4.642 -0.0040 -0.4299  0.3031
44065SOL    HW137133   8.770   2.453   4.634  1.9191  0.1126  0.9039
44065SOL    HW237134   8.794   2.328   4.551 -3.9470 -0.7927  0.1757
44066SOL     OW37135   6.394   4.260   8.332 -0.1685  0.5863 -0.2668
44066SOL    HW137136   6.383   4.166   8.321 -0.6983  0.4967  0.8252
44066SOL    HW237137   6.322   4.300   8.284 -0.2641  0.4001 -0.2762
44067SOL     OW37138  11.583   1.537  10.960 -0.0399 -0.2705 -0.4686
44067SOL    HW137139  11.583   1.481  10.882  0.7977 -2.5878  1.0945
44067SOL    HW237140  11.645   1.495  11.020 -1.5243  0.7672  1.9293
44068SOL     OW37141   9.612   2.463   6.915  0.3411 -0.2836 -0.2863
44068SOL    HW137142   9.677   2.394   6.899  1.0585  0.4847 -0.7528
44068SOL    HW237143   9.538   2.439   6.859  0.2905 -1.0537  0.0885
44069SOL     OW37144   3.922   6.190   6.382 -0.3290  0.1669  0.2406
44069SOL    HW137145   3.877   6.159   6.461  1.4771 -1.3266  0.7570
44069SOL    HW237146   3.936   6.284   6.398 -3.0338  0.6667  0.1097
44070SOL     OW37147   9.731   6.532   7.938  0.3332  0.2568  0.6151
44070SOL    HW137148   9.652   6.583   7.957 -0.8516 -0.6498 -1.4827
44070SOL    HW237149   9.736   6.531   7.842  0.0631 -3.7013  0.4689
44071SOL     OW37150   0.582   5.643   4.231 -0.1930 -0.5102  0.0929
44071SOL    HW137151   0.657   5.593   4.198 -0.1211  0.5434 -1.4472
44071SOL    HW237152   0.505   5.594   4.201 -0.1394  0.6774 -2.1955
44072SOL     OW37153   5.790   8.390   5.361 -0.6116 -0.1839  0.2464
44072SOL    HW137154   5.832   8.323   5.306  0.9431  0.4417  0.5971
44072SOL    HW237155   5.819   8.370   5.450 -1.3531  0.0744  0.5480
44073SOL     OW37156   1.136   3.893   4.294  0.8203  0.8974  0.5730
44073SOL    HW137157   1.210   3.944   4.327  1.9981 -1.8100  2.4293
44073SOL    HW237158   1.177   3.823   4.242 -0.4408 -0.3946  1.2668
44074SOL     OW37159   8.686   2.906   4.781 -0.0946  0.1860 -0.2382
44074SOL    HW137160   8.652   2.995   4.788 -1.7224 -0.3386 -0.9852
44074SOL    HW237161   8.627   2.862   4.719  1.5889 -0.9886 -1.0912
44075SOL     OW37162   0.354   9.480  10.781 -0.0960  0.6634 -0.1834
44075SOL    HW137163   0.363   9.489  10.876 -1.8666 -0.0802  0.1025
44075SOL    HW237164   0.318   9.563  10.752 -1.5630  0.1647  0.1365
44076SOL     OW37165   4.612   2.992   6.379  0.3275  0.5506  0.2449
44076SOL    HW137166   4.694   2.960   6.418  1.3395 -1.2969 -2.9445
44076SOL    HW237167   4.640   3.065   6.323  0.1559 -0.8424 -1.7996
44077SOL     OW37168   4.847  10.483   7.278 -0.1767 -0.0175 -0.4022
44077SOL    HW137169   4.850  10.499   7.184 -0.6777 -0.0853 -0.4314
44077SOL    HW237170   4.863  10.389   7.287  0.7973  0.1422 -0.3557
44078SOL     OW37171   4.509   4.700   5.070  0.6672 -0.6483  0.0738
44078SOL    HW137172   4.446   4.629   5.058 -0.3329  0.1896  0.2289
44078SOL    HW237173   4.557   4.703   4.987 -1.1788  0.2830 -1.0279
44079SOL     OW37174   6.597   8.059   9.463 -0.2324 -0.1876 -0.5150
44079SOL    HW137175   6.595   8.116   9.386 -2.2230  0.4102 -0.0762
44079SOL    HW237176   6.689   8.032   9.470  0.3510  1.2215 -2.0000
44080SOL     OW37177   4.322   5.411   7.995 -0.0169 -0.3426  0.7370
44080SOL    HW137178   4.270   5.417   7.916 -0.6345  0.3365  1.1754
44080SOL    HW237179   4.305   5.323   8.030 -0.8284 -0.1483  0.8422
44081SOL     OW37180   7.486  10.841   1.711 -0.2365  0.3572  0.0355
44081SOL    HW137181   7.561  10.862   1.654 -1.2924  3.0575 -0.4876
44081SOL    HW237182   7.508  10.879   1.795  0.6170 -2.2780  1.1186
44082SOL     OW37183   4.724   4.900   8.612 -0.3985  0.1034 -0.1751
44082SOL    HW137184   4.709   4.844   8.536 -1.1294  1.2152 -0.8881
44082SOL    HW237185   4.742   4.839   8.683 -2.1090 -1.1051 -0.6909
44083SOL     OW37186   0.594   0.040   8.693  0.7446  0.6361  0.3342
44083SOL    HW137187   0.558   0.119   8.733 -0.0311 -0.2745  1.5159
44083SOL    HW237188   0.672   0.020   8.744  0.8586  0.5641  0.1311
44084SOL     OW37189   8.689   7.757  10.646 -0.5417 -0.6633 -0.1405
44084SOL    HW137190   8.594   7.748  10.658 -0.6898 -0.1507 -0.8826
44084SOL    HW237191   8.711   7.691  10.581 -0.5557 -0.1019 -0.7172
44085SOL     OW37192   0.648   0.664   4.252 -0.1329 -0.1626  0.4076
44085SOL    HW137193   0.726   0.655   4.197 -0.0945 -0.3816  0.4956
44085SOL    HW237194   0.615   0.575   4.261 -0.7544  0.0056 -0.1447
44086SOL     OW37195   8.708   1.260  11.174 -0.2031 -0.8870 -0.7253
44086SOL    HW137196   8.760   1.337  11.147 -0.5222  0.4751  2.1468
44086SOL    HW237197   8.763   1.217  11.240 -1.0159 -1.7991 -0.6345
44087SOL     OW37198   7.315   1.002   9.078  0.0774 -0.0087  0.3294
44087SOL    HW137199   7.319   0.977   9.170 -1.7664  0.4528  0.5777
44087SOL    HW237200   7.249   0.943   9.041 -2.3462  2.4713  0.3189
44088SOL     OW37201   8.501   7.121   8.981 -0.1850  0.0844  0.1328
44088SOL    HW137202   8.422   7.123   8.927 -1.9948 -1.4391  2.5240
44088SOL    HW237203   8.494   7.198   9.037 -0.5145 -0.5449  0.9845
44089SOL     OW37204   8.566   9.628   2.899 -0.5613  0.0570  0.2294
44089SOL    HW137205   8.485   9.662   2.862  0.8061  1.5348 -1.6179
44089SOL    HW237206   8.604   9.703   2.946  0.1632 -0.3260  0.2743
44090SOL     OW37207   4.931   7.827  11.365 -0.0763 -0.1759  0.3699
44090SOL    HW137208   4.849   7.834  11.317 -0.7025 -1.8667  1.1040
44090SOL    HW237209   4.982   7.903  11.338 -0.4083 -1.0007 -2.9016
44091SOL     OW37210   6.366   7.949  11.029 -0.2088  0.4212  0.5137
44091SOL    HW137211   6.361   7.901  10.946 -0.2437 -0.2272  0.8805
44091SOL    HW237212   6.453   7.989  11.028  1.0215 -1.9837  1.4078
44092SOL     OW37213   8.242   6.465   5.629 -0.5236  0.3504 -0.2464
44092SOL    HW137214   8.233   6.472   5.724 -0.3415  3.5434 -0.3554
44092SOL    HW237215   8.311   6.527   5.606 -0.9737  0.1120 -2.5086
44093SOL     OW37216   7.451   8.388   0.119  0.4652 -0.3822  0.2617
44093SOL    HW137217   7.381   8.324   0.119  0.7383 -0.6864  0.0043
44093SOL    HW237218   7.482   8.390   0.210  1.3008 -1.5599  0.0237
44094SOL     OW37219   3.923   0.882  11.180 -0.1640 -0.1401  0.1108
44094SOL    HW137220   4.008   0.913  11.150  0.1310  0.2034  1.2324
44094SOL    HW237221   3.879   0.851  11.101  0.8796 -0.0374 -0.5311
44095SOL     OW37222   4.499   3.725   5.971  0.4528 -0.5003 -0.6082
44095SOL    HW137223   4.508   3.697   6.062 -0.2224 -0.3182 -0.4781
44095SOL    HW237224   4.488   3.644   5.922 -0.4879 -0.5350 -0.3585
44096SOL     OW37225   0.670   6.086   8.890  0.5995  0.3842 -0.4684
44096SOL    HW137226   0.766   6.088   8.887  0.6978 -1.4417 -3.7949
44096SOL    HW237227   0.643   6.080   8.798 -2.6032 -1.2829  0.4103
44097SOL     OW37228   9.092   2.052   4.857 -0.1809 -0.5421  0.7421
44097SOL    HW137229   9.130   2.135   4.826  1.1856 -0.9769  1.1649
44097SOL    HW237230   9.058   2.010   4.778  2.4689 -1.2329 -0.1219
44098SOL     OW37231   8.886   6.991   0.869 -0.9647 -0.1641 -0.0414
44098SOL    HW137232   8.819   6.930   0.837 -0.4953 -0.3482 -0.7021
44098SOL    HW237233   8.906   7.046   0.794 -0.3317 -0.1466  0.1381
44099SOL     OW37234   9.094  11.542  10.121 -0.2916  0.0523  0.4696
44099SOL    HW137235   9.107  11.448  10.137 -0.8458 -0.2064 -0.5056
44099SOL    HW237236   9.012  11.563  10.165  0.0647  0.1905  1.0767
44100SOL     OW37237   6.677   3.204   7.544 -0.0295  0.4019 -0.2845
44100SOL    HW137238   6.681   3.144   7.619 -2.7354 -1.2734 -1.3385
44100SOL    HW237239   6.758   3.187   7.496  1.1324  0.5524  1.5224
44101SOL     OW37240   1.254  10.091  10.091  0.1336 -0.5931  0.3259
44101SOL    HW137241   1.233  10.007  10.131  0.2888 -1.7381 -1.8559
44101SOL    HW237242   1.306  10.069  10.014  0.2524  1.5282 -0.2782
44102SOL     OW37243   0.467   7.689   7.352 -0.7173 -0.3519 -0.2753
44102SOL    HW137244   0.467   7.760   7.289  0.9219 -1.8564 -2.0980
44102SOL    HW237245   0.428   7.727   7.431 -0.0537  2.4919 -1.1993
44103SOL     OW37246   0.869   3.411   6.437  0.1345 -0.7296  0.2680
44103SOL    HW137247   0.849   3.503   6.453  1.8276 -0.8441  4.0665
44103SOL    HW237248   0.939   3.412   6.372 -0.5662  0.5433 -0.5100
44104SOL     OW37249   3.786   9.143   0.438 -0.4084  0.3564  0.5546
44104SOL    HW137250   3.818   9.213   0.382 -0.7985 -0.7558 -1.1317
44104SOL    HW237251   3.861   9.118   0.491  0.5448  0.1730 -0.8273
44105SOL     OW37252   1.532  11.158   1.353 -0.4878  0.2023 -0.2293
44105SOL    HW137253   1.617  11.115   1.352 -0.1785  0.7735  0.6564
44105SOL    HW237254   1.545  11.238   1.404 -1.2317  0.9941 -1.2378
44106SOL     OW37255   8.949   1.944   6.623  0.0723  0.5273 -0.0939
44106SOL    HW137256   8.893   2.018   6.602 -0.6028 -0.0078 -0.2066
44106SOL    HW237257   8.892   1.868   6.616  1.0478 -0.1424 -1.2250
44107SOL     OW37258   5.130   9.825   6.860  0.5018 -0.1088 -0.0267
44107SOL    HW137259   5.195   9.889   6.832 -0.1726  0.8296  0.5010
44107SOL    HW237260   5.075   9.812   6.783  2.0246 -1.8865 -0.8985
44108SOL     OW37261   7.507   7.980   3.214 -0.2760  0.4814  0.2406
44108SOL    HW137262   7.448   8.027   3.272  0.1485  0.3662  0.7696
44108SOL    HW237263   7.565   7.931   3.272  0.8031  1.1341 -0.2498
44109SOL     OW37264  10.325   9.359   9.283 -0.4814 -0.4516  0.1762
44109SOL    HW137265  10.311   9.361   9.378  1.8255 -0.8388  0.5978
44109SOL    HW237266  10.391   9.427   9.267 -0.5079 -0.6990 -1.0830
44110SOL     OW37267   6.578   3.348   8.182 -0.6321 -0.3941 -0.2641
44110SOL    HW137268   6.544   3.434   8.205  0.4053  0.0499 -0.3339
44110SOL    HW237269   6.518   3.315   8.115 -0.6091  0.6122 -0.8024
44111SOL     OW37270   6.672   7.501   5.845  0.3714  0.2691 -0.5312
44111SOL    HW137271   6.608   7.516   5.914  1.2015 -1.8526  0.8257
44111SOL    HW237272   6.740   7.566   5.861 -0.1084  0.6928 -0.2009
44112SOL     OW37273   7.314  10.831   7.775  0.1188 -0.0941  0.0362
44112SOL    HW137274   7.356  10.792   7.851 -0.3288  0.3041  0.4972
44112SOL    HW237275   7.355  10.917   7.766 -0.4024  0.1920  0.3329
44113SOL     OW37276   7.204   8.478   6.887 -0.0618  0.3181  0.6089
44113SOL    HW137277   7.132   8.532   6.854  0.1665  0.5311  0.4541
44113SOL    HW237278   7.282   8.516   6.847  0.1930  0.4104  1.1876
44114SOL     OW37279   7.548   5.597   3.875  0.4541  0.7070  0.3853
44114SOL    HW137280   7.521   5.552   3.795  0.2572 -1.7481  1.7424
44114SOL    HW237281   7.633   5.559   3.897  1.0832  2.2272  0.7219
44115SOL     OW37282   9.808   1.678   1.052  0.2891 -0.3304  0.0732
44115SOL    HW137283   9.852   1.608   1.004  1.5316  0.2295  0.3423
44115SOL    HW237284   9.868   1.700   1.123 -0.6238  0.1954  0.7054
44116SOL     OW37285   4.577   7.017   7.618  0.0474 -0.0386  0.1211
44116SOL    HW137286   4.603   7.105   7.589  0.4662  0.3248  1.5128
44116SOL    HW237287   4.592   6.961   7.542  0.0140  1.0486 -0.7095
44117SOL     OW37288   2.725  11.400   1.303 -0.3817  0.6638 -0.6029
44117SOL    HW137289   2.635  11.422   1.281 -0.8203  0.3520  0.7506
44117SOL    HW237290   2.764  11.369   1.221 -1.2673  1.5259 -1.3704
44118SOL     OW37291   3.105   6.661   0.483  0.9359 -0.4212  0.5403
44118SOL    HW137292   3.067   6.577   0.458 -0.7500  0.5804 -0.5390
44118SOL    HW237293   3.032   6.708   0.525  1.7225  0.6444  0.7518
44119SOL     OW37294   4.125   6.058   9.560  0.2061  0.5619 -0.0419
44119SOL    HW137295   4.216   6.031   9.553  0.3372  1.1933 -0.9647
44119SOL    HW237296   4.083   5.989   9.612  1.0881 -0.0117 -0.0788
44120SOL     OW37297   1.234   1.301   0.719 -0.1291 -0.3727  0.4731
44120SOL    HW137298   1.266   1.388   0.696 -0.6200 -0.2132  0.3657
44120SOL    HW237299   1.188   1.313   0.802 -1.0200 -0.3259 -0.0064
44121SOL     OW37300   6.984  10.033   4.562 -0.3356  0.2046  0.1688
44121SOL    HW137301   6.919  10.022   4.492  0.0245 -0.3341 -0.0801
44121SOL    HW237302   7.068  10.019   4.519 -0.0836  0.3637  0.6089
44122SOL     OW37303   3.684   8.450  11.089  0.1860  0.1164 -0.3766
44122SOL    HW137304   3.725   8.497  11.017 -0.0776 -2.2134 -2.1520
44122SOL    HW237305   3.705   8.502  11.167  2.7639  1.3211 -1.7607
44123SOL     OW37306   1.848   1.246  10.195 -0.3256 -0.6476  0.1859
44123SOL    HW137307   1.862   1.247  10.101 -0.2341  0.4944  0.2021
44123SOL    HW237308   1.867   1.156  10.221 -1.0623 -1.1567 -0.9860
44124SOL     OW37309  10.186   3.375   4.632 -0.6134  0.0940 -0.2316
44124SOL    HW137310  10.265   3.323   4.649  0.5119  1.7127 -0.3485
44124SOL    HW237311  10.151   3.338   4.550 -0.1567 -0.8260 -0.0302
44125SOL     OW37312   8.423   4.945  10.476  0.1535 -0.7894  0.1194
44125SOL    HW137313   8.406   4.954  10.570  0.9321 -2.2354  0.4211
44125SOL    HW237314   8.397   4.855  10.456 -2.3418  0.1944 -1.6033
44126SOL     OW37315  10.088   9.304   6.004 -0.0364  0.0714 -0.2233
44126SOL    HW137316  10.104   9.284   5.912 -0.7391  2.6099 -0.9797
44126SOL    HW237317   9.994   9.326   6.007 -0.4629 -1.7061  1.4902
44127SOL     OW37318   3.716   6.422   8.370  0.5408 -0.0732  0.0320
44127SOL    HW137319   3.682   6.500   8.413  1.8456  0.8414 -0.5479
44127SOL    HW237320   3.638   6.376   8.338 -0.2924  0.4956  1.1887
44128SOL     OW37321   6.051   7.146  10.521  0.1532 -0.5443  0.3827
44128SOL    HW137322   5.971   7.189  10.549 -0.3831 -2.0464  1.3037
44128SOL    HW237323   6.114   7.163  10.591  0.1460 -0.6729  0.4218
44129SOL     OW37324   1.909   3.297   2.556 -0.5032 -0.6594 -0.3292
44129SOL    HW137325   1.952   3.213   2.538  0.6469 -0.9172  2.8516
44129SOL    HW237326   1.934   3.353   2.482  0.4189 -2.5285 -1.5136
44130SOL     OW37327   0.616   6.809   9.135 -0.3696  0.7146 -0.0569
44130SOL    HW137328   0.528   6.846   9.131 -1.5222 -1.8506 -0.2517
44130SOL    HW237329   0.624   6.775   9.224  0.5878  1.2486  0.0744
44131SOL     OW37330  11.573  11.504   5.504  0.0964 -0.0212  0.6889
44131SOL    HW137331  11.482  11.534   5.495 -0.8871 -2.6388  1.0220
44131SOL    HW237332  11.618  11.577   5.545 -1.5785  1.7829 -0.4883
44132SOL     OW37333   1.109   6.649   3.304 -0.0222 -0.1789  1.0309
44132SOL    HW137334   1.179   6.597   3.344  0.7678  0.1191  0.0697
44132SOL    HW237335   1.155   6.720   3.259 -0.8514 -0.7174 -0.7271
44133SOL     OW37336   9.743   4.297   0.933 -0.0848  0.2314 -0.6003
44133SOL    HW137337   9.812   4.338   0.984 -0.8286  0.9685 -0.1534
44133SOL    HW237338   9.767   4.314   0.842 -0.3212  1.6072 -0.4291
44134SOL     OW37339   9.161   9.781  10.151  0.4520  0.0069  0.2504
44134SOL    HW137340   9.100   9.710  10.167  0.6673 -0.0972  0.6426
44134SOL    HW237341   9.199   9.799  10.237  4.3324 -2.9723 -0.5400
44135SOL     OW37342   1.447   7.221  11.603  0.1709  0.1211  0.1237
44135SOL    HW137343   1.432   7.201  11.695 -2.2117  1.0594  0.0266
44135SOL    HW237344   1.532   7.265  11.601 -0.8570  2.4848  2.3304
44136SOL     OW37345   2.621  11.332   7.021 -0.1111  0.0834  0.0403
44136SOL    HW137346   2.611  11.258   6.960 -0.9516  0.2165  0.0081
44136SOL    HW237347   2.583  11.301   7.103 -2.2113  1.0881 -0.4764
44137SOL     OW37348   8.326  11.166   7.988 -0.3640 -0.0947 -0.5686
44137SOL    HW137349   8.299  11.088   7.940 -3.6475  0.7044 -0.2731
44137SOL    HW237350   8.269  11.235   7.956  0.2841  1.4621  1.3966
44138SOL     OW37351   2.269   1.678  10.632  0.1461  0.2416 -0.2255
44138SOL    HW137352   2.174   1.680  10.620  0.2065  0.0357 -0.7802
44138SOL    HW237353   2.298   1.766  10.608  0.0983  0.2917 -0.0976
44139SOL     OW37354   9.252   7.937   5.176 -0.2785  0.5477 -0.1481
44139SOL    HW137355   9.248   7.875   5.249 -1.6868  1.8382  0.9334
44139SOL    HW237356   9.237   7.884   5.098 -1.8096 -0.4605  0.7767
44140SOL     OW37357   3.388   0.845   1.443 -0.0424 -0.0971 -0.2482
44140SOL    HW137358   3.357   0.911   1.505 -0.0593 -2.7453  2.8674
44140SOL    HW237359   3.309   0.806   1.407 -0.0467  0.7361 -1.1789
44141SOL     OW37360  10.773   2.852   3.987  0.0642 -0.0923  0.2814
44141SOL    HW137361  10.846   2.876   3.930  0.1489  0.9739  0.8161
44141SOL    HW237362  10.710   2.809   3.929  0.6591 -0.0798 -0.3814
44142SOL     OW37363   8.338   4.189   2.919  0.2703  0.1589 -0.0600
44142SOL    HW137364   8.414   4.196   2.862  0.5406 -0.4040  0.2241
44142SOL    HW237365   8.264   4.176   2.860  0.3466  1.0210 -0.3540
44143SOL     OW37366   3.426  10.321   7.768 -0.2529 -0.1200  0.1134
44143SOL    HW137367   3.438  10.228   7.752  0.4385 -0.1941  0.9962
44143SOL    HW237368   3.448  10.363   7.685 -0.0875 -0.7129 -0.1431
44144SOL     OW37369   3.968   9.038   8.191 -0.3467  0.6979  0.2879
44144SOL    HW137370   4.004   9.059   8.105  0.1547  2.0047  0.7850
44144SOL    HW237371   3.874   9.042   8.179 -0.2918  2.3660  0.0955
44145SOL     OW37372   1.186   8.164   6.733  0.1484  0.3227  0.2414
44145SOL    HW137373   1.254   8.102   6.706 -0.5975 -0.4349  0.0804
44145SOL    HW237374   1.207   8.184   6.825  0.4063 -0.1487  0.2882
44146SOL     OW37375   7.905  11.007   1.560  0.1392 -0.0902  0.1975
44146SOL    HW137376   7.840  10.940   1.540  0.0782  0.6216 -2.4161
44146SOL    HW237377   7.856  11.073   1.609 -0.4068 -0.8207  0.6607
44147SOL     OW37378   9.757  11.384   6.711 -0.1825  0.1864  0.3005
44147SOL    HW137379   9.794  11.412   6.628 -0.6977 -0.3773 -0.1306
44147SOL    HW237380   9.736  11.466   6.757 -0.9211  0.5192 -0.5898
44148SOL     OW37381   1.689   7.063   2.843 -0.1592  0.3067 -0.2766
44148SOL    HW137382   1.753   7.119   2.887 -0.6696  1.8851 -1.4645
44148SOL    HW237383   1.607   7.112   2.847 -0.7960 -0.6892 -0.7178
44149SOL     OW37384   9.158   0.789   0.545  0.1688  0.0106  0.0606
44149SOL    HW137385   9.162   0.877   0.507  0.4505  0.5170  1.2109
44149SOL    HW237386   9.225   0.790   0.613 -0.0784 -0.9853  0.3301
44150SOL     OW37387   4.913   4.093   0.009 -0.5439 -0.0077  0.3228
44150SOL    HW137388   4.848   4.076   0.077 -0.3283 -1.4082  0.2086
44150SOL    HW237389   4.992   4.048   0.040 -0.3210 -0.3050 -0.6475
44151SOL     OW37390   3.511   9.098   8.961 -0.4329  0.0253 -0.4865
44151SOL    HW137391   3.461   9.021   8.934  0.0532 -0.5816  0.2931
44151SOL    HW237392   3.602   9.074   8.945 -0.3311  0.8115 -1.1281
44152SOL     OW37393   3.488  10.165  10.064  0.4256  0.0724  0.2348
44152SOL    HW137394   3.521  10.083  10.102 -0.2654 -0.8640 -1.0842
44152SOL    HW237395   3.417  10.192  10.123  0.3046 -0.5743  0.4000
44153SOL     OW37396   8.553   7.343   9.142 -0.6082 -0.3160 -0.3568
44153SOL    HW137397   8.511   7.334   9.227  0.7865  0.7188  0.4729
44153SOL    HW237398   8.534   7.433   9.115  0.5234 -0.0268 -0.2394
44154SOL     OW37399   9.992   4.806   2.631 -0.4693 -0.0970  0.6926
44154SOL    HW137400  10.053   4.825   2.560 -0.7519 -0.8413  0.2445
44154SOL    HW237401   9.985   4.888   2.679  1.2728 -0.1161  1.0482
44155SOL     OW37402   2.862   3.633   8.602  0.3007 -0.1375  0.3773
44155SOL    HW137403   2.896   3.709   8.649  0.5739 -0.2724  0.4016
44155SOL    HW237404   2.853   3.566   8.670  1.6491 -0.6536  0.0865
44156SOL     OW37405   4.023   5.537   5.239 -0.1697  0.1732  0.3097
44156SOL    HW137406   4.058   5.511   5.153  1.6389 -0.1177  1.0859
44156SOL    HW237407   4.064   5.476   5.300 -1.3641  0.4407  1.4147
44157SOL     OW37408   0.197  11.009   9.944 -0.1211  0.8930 -0.3275
44157SOL    HW137409   0.241  11.089   9.915 -0.0779  0.7080 -0.7803
44157SOL    HW237410   0.154  10.975   9.865 -0.7035  0.8290  0.0096
44158SOL     OW37411   9.473   7.588  11.448  0.0110  0.3862 -0.4550
44158SOL    HW137412   9.562   7.570  11.478 -0.5238 -2.3822 -0.2880
44158SOL    HW237413   9.472   7.559  11.357 -0.4053  1.5923 -0.8460
44159SOL     OW37414  10.867   0.007  11.559 -0.6389 -0.1020  0.5504
44159SOL    HW137415  10.855   0.083  11.615 -1.7618 -0.7417  1.2215
44159SOL    HW237416  10.787  -0.044  11.570 -0.5618 -0.6276 -1.0662
44160SOL     OW37417   2.500   6.807   7.886  0.2821  0.5280  0.1978
44160SOL    HW137418   2.487   6.832   7.794 -0.2164  0.2715  0.1913
44160SOL    HW237419   2.546   6.723   7.881  0.6294  0.7192  0.1903
44161SOL     OW37420  11.087   4.895   8.658 -0.2364 -0.5921 -0.4119
44161SOL    HW137421  11.113   4.818   8.709 -0.1631 -0.6798 -0.5804
44161SOL    HW237422  11.063   4.860   8.572  0.8244 -0.3173 -0.8390
44162SOL     OW37423  11.021   7.353   5.182 -0.1953  0.0164 -0.7448
44162SOL    HW137424  11.017   7.325   5.274  0.2595  0.4113 -0.5985
44162SOL    HW237425  10.946   7.310   5.141  0.5432 -1.5442 -0.5676
44163SOL     OW37426  10.893   0.291   1.982  0.3725  0.3210 -0.1204
44163SOL    HW137427  10.900   0.209   1.933 -0.5813  0.4063 -0.4073
44163SOL    HW237428  10.812   0.331   1.951 -0.0915  0.5239  1.3085
44164SOL     OW37429   1.853   9.722   0.533  0.3075  0.0176 -0.1121
44164SOL    HW137430   1.817   9.669   0.462  0.5767  1.2394 -1.1961
44164SOL    HW237431   1.791   9.794   0.542  0.1140 -0.2832  1.1202
44165SOL     OW37432  11.143   4.869   7.070  0.4950 -0.0866 -0.0386
44165SOL    HW137433  11.141   4.837   6.980 -1.1234  0.1357 -0.1066
44165SOL    HW237434  11.236   4.874   7.092  1.0593  2.1445 -2.5067
44166SOL     OW37435   7.785  10.184  11.525  0.3359 -0.1550  0.2606
44166SOL    HW137436   7.849  10.132  11.476  0.2148  0.4216 -0.5193
44166SOL    HW237437   7.733  10.228  11.458 -2.0108 -1.9059  0.7819
44167SOL     OW37438   9.048  11.218   7.876 -0.3634  0.1504  0.2985
44167SOL    HW137439   9.049  11.276   7.953 -0.5141 -0.5759  0.8664
44167SOL    HW237440   9.021  11.133   7.912  1.1038 -0.5914 -0.2977
44168SOL     OW37441   5.936   7.432   9.095  0.1752  0.2943  0.1842
44168SOL    HW137442   5.851   7.418   9.053  0.6843  0.8543 -1.0963
44168SOL    HW237443   5.990   7.360   9.062  0.4974  0.5694  0.1096
44169SOL     OW37444   6.165   1.018   9.653 -0.0155  0.0056 -0.2887
44169SOL    HW137445   6.124   0.976   9.578 -1.0298  2.5922 -1.2597
44169SOL    HW237446   6.235   1.071   9.616 -0.2595  0.9999  0.6263
44170SOL     OW37447  10.227   4.024   8.108  0.0335 -0.2814  0.0675
44170SOL    HW137448  10.306   4.067   8.077 -0.2331  0.6372  0.6445
44170SOL    HW237449  10.165   4.032   8.035 -0.8508  2.5521  1.0243
44171SOL     OW37450   0.970   6.832   8.050 -0.0363  0.0138 -0.3026
44171SOL    HW137451   0.930   6.902   7.999  2.4231  3.5631  2.1292
44171SOL    HW237452   0.920   6.829   8.131 -0.0010 -0.9680 -0.3007
44172SOL     OW37453  10.411  10.369   7.360 -0.7878  0.0198 -0.0144
44172SOL    HW137454  10.503  10.340   7.356 -0.2393  1.5445  0.6790
44172SOL    HW237455  10.371  10.312   7.426 -0.4030 -0.8030 -0.4728
44173SOL     OW37456   8.956   2.639  10.948 -0.2007 -0.1648 -0.5960
44173SOL    HW137457   8.880   2.681  10.906  0.1893  0.7985 -0.3490
44173SOL    HW237458   9.016   2.622  10.876  0.6762  1.9286 -0.4152
44174SOL     OW37459   1.357   3.808   2.520  0.8132 -0.3429 -0.3890
44174SOL    HW137460   1.284   3.746   2.531 -0.7322  1.5417  0.5191
44174SOL    HW237461   1.315   3.888   2.488  2.8422  0.0890 -2.1651
44175SOL     OW37462   6.086   6.576   5.490  0.5157 -0.2698 -0.4467
44175SOL    HW137463   6.148   6.577   5.563  0.0835  0.7187 -0.0932
44175SOL    HW237464   6.000   6.576   5.530  0.2635 -0.7219 -0.9577
44176SOL     OW37465  11.618   9.985   4.754 -0.2698  0.1103  0.4451
44176SOL    HW137466  11.608  10.067   4.802 -0.4979 -0.7025  1.8310
44176SOL    HW237467  11.581  10.004   4.667 -2.1559  0.9027  1.3698
44177SOL     OW37468   9.832   0.506   0.257  0.4662 -0.3877 -0.3118
44177SOL    HW137469   9.832   0.437   0.191 -0.5178  0.0326 -0.7657
44177SOL    HW237470   9.741   0.532   0.265  1.0182  2.4227 -1.7947
44178SOL     OW37471   7.106   4.803   3.989 -0.1720 -0.1411 -0.4036
44178SOL    HW137472   7.098   4.794   3.894  0.2696  1.0054 -0.5678
44178SOL    HW237473   7.197   4.778   4.007 -0.6302 -1.7104 -0.0759
44179SOL     OW37474   8.117   9.081  11.047 -0.3201 -0.3611  0.5879
44179SOL    HW137475   8.094   8.999  11.002  1.5097  0.2461 -1.6701
44179SOL    HW237476   8.067   9.148  11.001  0.1771  0.0724  0.6672
44180SOL     OW37477   0.232   5.736   0.212  0.4867  0.0517  0.3822
44180SOL    HW137478   0.164   5.683   0.252  0.9273 -2.0514 -1.4696
44180SOL    HW237479   0.313   5.687   0.227  0.9420  0.2770 -1.2066
44181SOL     OW37480   5.508  10.059   9.875  0.1136 -0.0977  0.8415
44181SOL    HW137481   5.550  10.016   9.950  0.9521  1.4745  1.3344
44181SOL    HW237482   5.473   9.987   9.822  4.0525 -1.6503 -0.0068
44182SOL     OW37483   7.198   5.447  11.484  0.7676 -0.1146 -0.5972
44182SOL    HW137484   7.291   5.466  11.502  0.8601  0.3932 -1.5688
44182SOL    HW237485   7.197   5.355  11.458  0.8866 -0.3346  0.1409
44183SOL     OW37486   4.615  10.184   2.714 -0.2234  0.2747  0.6669
44183SOL    HW137487   4.596  10.092   2.733 -0.1461  0.4655  1.7291
44183SOL    HW237488   4.624  10.225   2.800 -0.6075  1.3536  0.2122
44184SOL     OW37489   8.606   4.316   1.769  0.3335  0.0661  0.2989
44184SOL    HW137490   8.658   4.362   1.836  0.8365 -1.5385  1.0518
44184SOL    HW237491   8.644   4.345   1.686  1.1920  0.3734  0.7782
44185SOL     OW37492   7.976   8.162   1.994  0.0047  0.5850 -0.0801
44185SOL    HW137493   7.917   8.107   2.046 -1.9633  1.8975 -0.7865
44185SOL    HW237494   7.980   8.244   2.043  1.3654  0.5012 -0.0158
44186SOL     OW37495   7.569   4.389   8.432 -0.1492  0.2217  0.0026
44186SOL    HW137496   7.643   4.359   8.379 -0.1490  1.6676 -0.8645
44186SOL    HW237497   7.595   4.475   8.464 -0.9762  0.2281  0.7032
44187SOL     OW37498   1.093  10.888   9.282 -0.0869  0.4497  0.0359
44187SOL    HW137499   1.111  10.812   9.338  0.2920 -1.2182 -2.1764
44187SOL    HW237500   1.058  10.954   9.341  2.1039 -0.4465  2.5596
44188SOL     OW37501   9.570   5.543   7.086 -0.1050 -0.0107  0.2941
44188SOL    HW137502   9.614   5.458   7.091 -0.8148 -0.4068 -0.0547
44188SOL    HW237503   9.502   5.530   7.020  0.2969  1.0663 -0.3509
44189SOL     OW37504   7.408   8.833   9.266  0.1598  0.5384  0.0129
44189SOL    HW137505   7.462   8.798   9.195 -0.8660  0.0338 -0.5258
44189SOL    HW237506   7.468   8.890   9.315  1.2956 -0.3184 -0.3268
44190SOL     OW37507   3.546   7.340  11.113  0.1528 -0.6791  0.3433
44190SOL    HW137508   3.563   7.428  11.145  1.3435 -0.9106  0.3837
44190SOL    HW237509   3.531   7.351  11.019  0.1529 -0.4214  0.3729
44191SOL     OW37510  11.641   6.843   3.189 -0.1979  0.2330 -0.5276
44191SOL    HW137511  11.561   6.889   3.215 -0.1320  0.6166 -0.9899
44191SOL    HW237512  11.710   6.881   3.243 -0.5260 -1.0758  0.9047
44192SOL     OW37513   8.594   9.761  10.914 -0.6371 -0.0767  0.6502
44192SOL    HW137514   8.672   9.779  10.967  0.0046  0.2152 -0.3685
44192SOL    HW237515   8.586   9.665  10.916  0.8644 -0.2643 -0.7636
44193SOL     OW37516  10.110   4.834   3.816 -0.1642  0.1938 -0.0030
44193SOL    HW137517  10.142   4.830   3.726  0.5472 -2.9466  0.2787
44193SOL    HW237518  10.024   4.793   3.812  0.4862 -1.3493  0.9133
44194SOL     OW37519   1.104   2.625   7.050  0.5261  0.6911  0.0393
44194SOL    HW137520   1.119   2.673   6.969 -1.0643 -1.9878 -2.0446
44194SOL    HW237521   1.190   2.591   7.074  0.6447 -1.0977 -2.4581
44195SOL     OW37522   0.062   7.323   4.099 -0.6338  0.3737  0.0035
44195SOL    HW137523  -0.012   7.284   4.145  0.1638 -0.9317  0.2257
44195SOL    HW237524   0.085   7.259   4.031  0.7911  0.3486  0.4618
44196SOL     OW37525   4.889   3.031   9.529  0.0256 -0.2167 -0.0206
44196SOL    HW137526   4.818   2.970   9.508 -0.6488  0.4043  0.3931
44196SOL    HW237527   4.907   3.076   9.446  1.2146 -1.6529 -0.5697
44197SOL     OW37528  10.379   5.291  11.440 -0.8263  0.1826  0.2416
44197SOL    HW137529  10.452   5.351  11.455 -0.2390 -0.6289  0.7110
44197SOL    HW237530  10.398   5.250  11.356 -0.7211 -0.0576  0.3820
44198SOL     OW37531   6.473   5.826   8.474  0.4370 -0.0697  0.0335
44198SOL    HW137532   6.394   5.782   8.507  0.2439  1.2423  1.4332
44198SOL    HW237533   6.541   5.804   8.538  0.7138  0.4052 -0.0926
44199SOL     OW37534   9.929   6.582   1.505  0.1026 -0.2312  0.7417
44199SOL    HW137535   9.852   6.597   1.450 -0.3555  0.2588  1.5057
44199SOL    HW237536   9.896   6.587   1.594  1.5392  3.2480  1.2123
44200SOL     OW37537   0.181   7.458   1.053 -0.2378  0.1152  0.7769
44200SOL    HW137538   0.194   7.365   1.072  0.9050  0.4062  1.4985
44200SOL    HW237539   0.110   7.485   1.112  0.3830  0.0233  1.5687
44201SOL     OW37540   7.043   7.868   8.794  0.3238  0.1105  0.1773
44201SOL    HW137541   7.099   7.867   8.872  0.1367  0.2590  0.3142
44201SOL    HW237542   6.985   7.793   8.806  0.3615  0.0739  0.1309
44202SOL     OW37543   0.828   3.048  10.604 -0.3247 -0.4122  0.3211
44202SOL    HW137544   0.733   3.061  10.609 -0.0642  2.3632 -0.1750
44202SOL    HW237545   0.848   3.047  10.511  0.0643 -1.9820  0.4004
44203SOL     OW37546   8.031   1.824   9.801 -0.3440 -0.7425  0.7457
44203SOL    HW137547   8.060   1.870   9.879  0.2715 -0.1463  0.1843
44203SOL    HW237548   8.109   1.779   9.769  0.1279  1.1311 -0.9546
44204SOL     OW37549   1.519   5.573   7.849  0.1833  0.0105 -0.0945
44204SOL    HW137550   1.541   5.486   7.881 -0.0138 -0.4339 -1.1125
44204SOL    HW237551   1.528   5.630   7.925  1.7100 -0.6561  0.2660
44205SOL     OW37552   9.733   0.817   2.084 -0.0110  0.4776 -0.0321
44205SOL    HW137553   9.702   0.753   2.148 -0.2123  0.8692  0.2641
44205SOL    HW237554   9.762   0.764   2.010  1.1508 -0.0309  0.7641
44206SOL     OW37555  10.224  10.672   2.720 -0.2087  0.3383  0.4502
44206SOL    HW137556  10.219  10.752   2.668  0.4657 -0.5970 -1.1197
44206SOL    HW237557  10.316  10.645   2.714 -0.6780 -1.2675 -0.2031
44207SOL     OW37558   3.313  10.449   4.371  0.6398 -0.3822  0.0725
44207SOL    HW137559   3.256  10.419   4.300  1.1344 -2.0591  0.3541
44207SOL    HW237560   3.254  10.459   4.446  0.0640  1.6674 -0.5828
44208SOL     OW37561  10.385   8.607   8.019 -0.2883  0.2558 -0.1082
44208SOL    HW137562  10.464   8.555   8.036  0.8258  1.2230 -1.9926
44208SOL    HW237563  10.404   8.693   8.056 -0.7127  0.3250 -0.0421
44209SOL     OW37564   6.251   7.400   2.644 -0.2468 -0.3781  0.0684
44209SOL    HW137565   6.177   7.371   2.590  0.1743 -0.0340 -0.6987
44209SOL    HW237566   6.311   7.442   2.583  1.9807 -3.1378  0.1126
44210SOL     OW37567   2.959   0.486   1.214  0.1404 -0.4434  0.3686
44210SOL    HW137568   2.913   0.402   1.221  0.6380 -0.8045 -0.6391
44210SOL    HW237569   3.006   0.494   1.297 -1.3217 -0.2934  1.2332
44211SOL     OW37570   1.056   2.601   0.824  0.3414 -0.2662 -0.2798
44211SOL    HW137571   1.001   2.587   0.746  1.5730 -0.2750 -1.1755
44211SOL    HW237572   1.045   2.694   0.844 -0.2719 -0.3426 -0.2172
44212SOL     OW37573   2.165   3.795   1.616  0.3809  0.1378  0.0685
44212SOL    HW137574   2.223   3.719   1.608  1.0765  0.8246 -2.7892
44212SOL    HW237575   2.177   3.843   1.533 -0.2486  3.2062  1.5856
44213SOL     OW37576  10.239   9.987   2.389  0.2613  0.1661  0.6134
44213SOL    HW137577  10.322   9.998   2.343  0.4359 -0.5372  0.7590
44213SOL    HW237578  10.182  10.053   2.350  1.1701  1.3644  1.2114
44214SOL     OW37579   2.840   9.155   7.405 -0.1158  0.7285  0.2846
44214SOL    HW137580   2.913   9.204   7.367 -1.0667  0.4073 -2.1609
44214SOL    HW237581   2.849   9.067   7.368 -2.6454  1.1331 -1.5503
44215SOL     OW37582   0.954  11.159   1.559  0.3056 -0.0946  0.0214
44215SOL    HW137583   0.969  11.191   1.648  1.6353 -1.4316  0.3294
44215SOL    HW237584   0.980  11.232   1.502  2.1149 -0.1295  0.7192
44216SOL     OW37585   8.194   8.184   4.421 -0.4394 -1.0055  0.5411
44216SOL    HW137586   8.151   8.219   4.343  1.0703  0.9522  0.4926
44216SOL    HW237587   8.263   8.127   4.386 -1.0679 -1.7941  0.5446
44217SOL     OW37588   9.629   4.983   1.717  0.8307  0.2364  0.5156
44217SOL    HW137589   9.566   5.023   1.776  1.3751  0.7312  0.7737
44217SOL    HW237590   9.576   4.943   1.649  0.1982 -0.3451  1.3385
44218SOL     OW37591  10.731   4.506   2.193 -0.4073  0.3505  0.5527
44218SOL    HW137592  10.789   4.560   2.247  0.9376 -0.8791  0.3974
44218SOL    HW237593  10.735   4.419   2.233  0.7471 -0.6369 -1.5891
44219SOL     OW37594   4.870   2.790   3.824 -0.1016 -0.0578  0.0041
44219SOL    HW137595   4.857   2.717   3.885 -1.3880 -1.7618 -2.1666
44219SOL    HW237596   4.951   2.769   3.779  0.5609  0.9141  0.7212
44220SOL     OW37597   6.430   2.552   6.175 -0.2506  0.6926  0.1991
44220SOL    HW137598   6.445   2.548   6.270  0.8967  3.6420  0.2256
44220SOL    HW237599   6.335   2.556   6.166 -0.4153 -0.4005  1.1285
44221SOL     OW37600   7.043   5.091   3.490 -0.2997  0.5247 -0.6463
44221SOL    HW137601   7.105   5.088   3.417  0.4974  1.0892 -0.0115
44221SOL    HW237602   7.099   5.086   3.568 -1.1239  0.1282 -0.0750
44222SOL     OW37603   7.138   3.457   1.931  0.0423 -0.1574  0.2765
44222SOL    HW137604   7.169   3.408   2.008 -1.5596  0.4699  1.3703
44222SOL    HW237605   7.189   3.538   1.932 -1.7323  1.0431  2.2883
44223SOL     OW37606   0.694   6.006   2.127 -0.0468  0.3919 -0.2517
44223SOL    HW137607   0.717   5.934   2.069  0.1501  0.5310 -0.3450
44223SOL    HW237608   0.610   5.980   2.165  0.8468 -0.7314  1.0844
44224SOL     OW37609   0.617   8.021   6.649 -0.5014 -0.1280 -0.6133
44224SOL    HW137610   0.580   8.005   6.735  1.5548 -0.5127  0.2510
44224SOL    HW237611   0.586   7.947   6.596  0.0498 -1.1254  0.4172
44225SOL     OW37612   1.360   4.406   7.517  0.0436 -0.0023  0.3176
44225SOL    HW137613   1.418   4.342   7.558  0.6907  0.0392 -0.5052
44225SOL    HW237614   1.280   4.358   7.498  0.6379 -0.6769 -0.5900
44226SOL     OW37615   2.118   8.422   3.063 -0.0829 -0.3194 -0.5660
44226SOL    HW137616   2.133   8.328   3.053  0.5884 -0.1651 -1.1449
44226SOL    HW237617   2.024   8.433   3.050 -0.4003 -1.0678  0.9149
44227SOL     OW37618   7.899   3.452   5.740  0.3102 -0.4700  0.3391
44227SOL    HW137619   7.898   3.458   5.836  2.3040  1.0738  0.3502
44227SOL    HW237620   7.870   3.363   5.721  1.8963 -1.5593  2.5139
44228SOL     OW37621   4.804   1.571   8.634 -0.0362 -0.0033 -0.0176
44228SOL    HW137622   4.856   1.630   8.579 -0.0420 -0.0976 -0.1262
44228SOL    HW237623   4.733   1.542   8.576  2.6860 -4.2034 -1.7858
44229SOL     OW37624   5.819   0.035   6.921 -0.8832  0.1704 -0.1640
44229SOL    HW137625   5.777   0.110   6.963  0.5504  1.4056 -0.8412
44229SOL    HW237626   5.851  -0.018   6.994 -1.4169  0.4983  0.3210
44230SOL     OW37627  11.587   8.854   0.262  0.3057 -0.3212  0.0024
44230SOL    HW137628  11.510   8.820   0.216 -0.9833  0.6046  1.3917
44230SOL    HW237629  11.572   8.831   0.354  0.7044  1.5761  0.5801
44231SOL     OW37630   3.392   7.085   9.355 -0.2616  0.1182 -0.1992
44231SOL    HW137631   3.365   7.171   9.389 -0.4593 -0.1061  0.2124
44231SOL    HW237632   3.366   7.023   9.423  2.1269 -0.0249  0.6703
44232SOL     OW37633   4.415  10.071   7.458 -0.1722 -0.5924  0.0033
44232SOL    HW137634   4.396  10.154   7.416  0.3117  0.1355  1.1691
44232SOL    HW237635   4.370  10.076   7.542  0.3145 -1.2842  0.3163
44233SOL     OW37636   5.630   5.631   4.613 -0.3081  0.0497 -0.4866
44233SOL    HW137637   5.577   5.670   4.543 -1.9307 -0.2473  0.5228
44233SOL    HW237638   5.612   5.685   4.689 -0.3272 -0.9419  0.2327
44234SOL     OW37639   3.343   7.532   2.245  0.0087  0.2130  0.2576
44234SOL    HW137640   3.291   7.453   2.233  0.3222  0.0067  0.2494
44234SOL    HW237641   3.417   7.505   2.299 -0.5011  0.7625  1.2840
44235SOL     OW37642   5.127   5.956   4.873  0.4360  0.5903  0.0789
44235SOL    HW137643   5.198   5.962   4.938  0.3300  1.0974  0.1533
44235SOL    HW237644   5.050   5.988   4.920  0.5312  1.8014 -0.5580
44236SOL     OW37645   3.813   9.339   8.204 -0.4470 -0.1647 -0.0037
44236SOL    HW137646   3.906   9.359   8.189 -0.1075 -2.1024 -0.8077
44236SOL    HW237647   3.811   9.302   8.292 -0.5582  0.4372  0.2475
44237SOL     OW37648   3.333   6.577   8.599 -0.0679  0.0222  0.1128
44237SOL    HW137649   3.238   6.580   8.584 -0.4616 -2.3369  1.6103
44237SOL    HW237650   3.348   6.641   8.669 -1.1298 -1.7685  2.0896
44238SOL     OW37651   2.688   8.481   5.015 -0.0382 -0.0381 -0.4760
44238SOL    HW137652   2.699   8.523   4.930  0.8389  0.5242 -0.0944
44238SOL    HW237653   2.754   8.522   5.071 -1.6027  0.7075  0.8922
44239SOL     OW37654   6.229   0.294   5.304 -0.3478  0.3617 -0.3308
44239SOL    HW137655   6.190   0.226   5.359 -1.1892  1.6088  0.6687
44239SOL    HW237656   6.161   0.361   5.298  0.6314  1.3213 -0.9316
44240SOL     OW37657   4.958   6.799   8.570  0.1393  0.0274 -0.5130
44240SOL    HW137658   5.003   6.854   8.634 -1.2471  1.4852 -0.7196
44240SOL    HW237659   4.891   6.753   8.619 -0.3166  0.4289 -0.7537
44241SOL     OW37660   5.163   6.630  11.436  0.0642 -0.6620 -0.2204
44241SOL    HW137661   5.221   6.627  11.359 -0.2090 -0.8531 -0.4187
44241SOL    HW237662   5.088   6.682  11.407  0.1625 -0.3655  0.0564
44242SOL     OW37663   9.769   4.758  10.149 -0.1705 -0.2810  0.1525
44242SOL    HW137664   9.721   4.790  10.225 -1.4184  0.7979 -1.0301
44242SOL    HW237665   9.771   4.832  10.089  1.8211 -0.7285 -0.4116
44243SOL     OW37666   2.063   0.693   5.896  0.3777 -0.1210 -0.3781
44243SOL    HW137667   1.971   0.714   5.885  0.3694  0.8647  1.3009
44243SOL    HW237668   2.065   0.599   5.912 -0.6825  0.2117  2.2791
44244SOL     OW37669   9.534   4.571   7.248 -0.2612  0.3204  0.5060
44244SOL    HW137670   9.463   4.636   7.245 -0.1312  0.4318 -0.6418
44244SOL    HW237671   9.604   4.610   7.196  0.3402 -0.1402  0.9703
44245SOL     OW37672   2.630   2.489   3.387 -0.0183 -0.2780 -0.4353
44245SOL    HW137673   2.674   2.525   3.310 -1.1127  0.3190 -0.7869
44245SOL    HW237674   2.611   2.398   3.363  0.9402 -0.5225 -0.3064
44246SOL     OW37675   6.540   6.853   6.389 -0.0638 -0.1891 -0.2609
44246SOL    HW137676   6.453   6.889   6.372 -0.7049 -1.8274 -0.6445
44246SOL    HW237677   6.527   6.790   6.460  1.3431  1.5440  1.6203
44247SOL     OW37678   6.915   0.087   0.254 -0.1189 -0.7915 -0.6508
44247SOL    HW137679   6.832   0.091   0.300 -0.0021 -1.0929 -0.4117
44247SOL    HW237680   6.970   0.152   0.297 -0.1641 -0.7383 -0.6740
44248SOL     OW37681  11.610   2.350   3.201  0.1324 -0.3197  0.3975
44248SOL    HW137682  11.566   2.279   3.248 -1.4838  1.0622  1.0447
44248SOL    HW237683  11.581   2.340   3.110  0.3454 -0.7998  0.3793
44249SOL     OW37684  11.458   6.610   0.413 -0.4861  0.7594 -0.0670
44249SOL    HW137685  11.427   6.594   0.502  2.1091 -2.8769  0.3877
44249SOL    HW237686  11.393   6.568   0.357 -0.0688 -0.5534  0.4078
44250SOL     OW37687   6.560   0.197   4.829  0.0146  0.0089  0.2747
44250SOL    HW137688   6.650   0.230   4.826  0.2175 -0.4446  1.1285
44250SOL    HW237689   6.549   0.165   4.918 -1.2267  0.6846  0.3904
44251SOL     OW37690  10.618   2.873   1.390  0.2435  0.0299 -0.6210
44251SOL    HW137691  10.630   2.809   1.319 -0.1498 -0.2940 -0.3956
44251SOL    HW237692  10.568   2.944   1.350 -0.4148 -0.3829 -0.5350
44252SOL     OW37693   8.764   0.731   4.734  0.0578  0.7120  0.7908
44252SOL    HW137694   8.802   0.685   4.809 -0.9244 -0.6133  0.5060
44252SOL    HW237695   8.737   0.661   4.674  1.3817  1.7273 -1.1171
44253SOL     OW37696   5.018   0.829   6.805 -0.0154 -0.0204  0.5824
44253SOL    HW137697   4.971   0.798   6.882 -0.1461  0.7770  0.8300
44253SOL    HW237698   5.030   0.923   6.820  0.4221  0.0440 -0.1233
44254SOL     OW37699   6.944  11.163  10.473 -0.0831  0.0720  0.3613
44254SOL    HW137700   6.972  11.176  10.383  1.9522 -1.5092  0.7112
44254SOL    HW237701   6.848  11.157  10.468 -0.0942  1.1607 -1.4926
44255SOL     OW37702   1.156   8.988   7.234  0.0316  0.2122  0.0891
44255SOL    HW137703   1.104   9.062   7.265  1.8234  1.7632 -0.4327
44255SOL    HW237704   1.104   8.950   7.163 -0.3845  1.7700 -0.4848
44256SOL     OW37705   8.821   6.014   3.070 -0.4146 -0.2637 -0.5752
44256SOL    HW137706   8.741   5.984   3.113  0.5602 -0.2194  1.4010
44256SOL    HW237707   8.885   6.021   3.141  2.0803 -2.6141 -2.3896
44257SOL     OW37708   3.127   8.378   7.682  0.5799  0.1632  0.3683
44257SOL    HW137709   3.142   8.454   7.626  1.4323  0.0612  0.4402
44257SOL    HW237710   3.038   8.389   7.715 -0.5441 -0.5121 -2.1644
44258SOL     OW37711   3.022   1.691   4.713  0.6336  0.6088 -0.1634
44258SOL    HW137712   2.937   1.705   4.671  0.5140 -2.1409 -1.0705
44258SOL    HW237713   3.061   1.778   4.720 -2.0998  1.9045 -0.0223
44259SOL     OW37714   2.437   2.889   7.244 -0.4303 -0.4527  0.1410
44259SOL    HW137715   2.416   2.811   7.193 -0.4485  1.2779 -2.7511
44259SOL    HW237716   2.357   2.941   7.243  0.4404  0.9575 -0.7821
44260SOL     OW37717   9.522   5.685   7.485  0.2829  0.2581 -0.1781
44260SOL    HW137718   9.434   5.722   7.472  0.3222  1.3449  2.0548
44260SOL    HW237719   9.515   5.595   7.454 -1.1485  0.7901 -1.5564
44261SOL     OW37720   9.601   7.205   6.828  0.3075 -0.2185  0.7483
44261SOL    HW137721   9.693   7.177   6.822  0.3111  0.0250 -0.7833
44261SOL    HW237722   9.576   7.186   6.918  1.8305 -0.3927  1.1652
44262SOL     OW37723   4.864   2.539   0.228  0.1094  0.0424  0.1411
44262SOL    HW137724   4.841   2.515   0.138  1.1781 -1.0670  0.1221
44262SOL    HW237725   4.827   2.470   0.282  0.7723 -0.1361  0.3868
44263SOL     OW37726   2.261   6.161   0.741 -0.1427 -0.5668  0.5245
44263SOL    HW137727   2.295   6.150   0.830  1.1495  1.2315  0.3070
44263SOL    HW237728   2.206   6.239   0.746  0.3270 -0.1594 -0.3178
44264SOL     OW37729  11.201   6.667   8.625  0.4033 -0.4623  0.1383
44264SOL    HW137730  11.260   6.736   8.654 -1.4242  0.1527  2.7005
44264SOL    HW237731  11.229   6.589   8.674 -0.2931 -0.4201  0.6026
44265SOL     OW37732  10.189   1.447   0.779  0.0425  0.0097  0.0887
44265SOL    HW137733  10.208   1.472   0.870  0.3749 -0.2768  0.1017
44265SOL    HW237734  10.188   1.530   0.731  1.2463  0.0657  0.1118
44266SOL     OW37735   5.606  10.449   9.967  0.4880 -0.1646 -0.2099
44266SOL    HW137736   5.594  10.449   9.872 -2.5843  0.9059  0.0844
44266SOL    HW237737   5.593  10.358   9.992 -0.9800 -0.0953 -0.6333
44267SOL     OW37738   1.723   4.354   0.790  0.0023 -0.4392 -0.0862
44267SOL    HW137739   1.703   4.285   0.728 -1.1202 -0.7681  0.6078
44267SOL    HW237740   1.652   4.350   0.855  0.4343  0.7237  0.5020
44268SOL     OW37741   0.330  10.946   8.334 -0.1954  0.3130 -0.3182
44268SOL    HW137742   0.267  10.955   8.405  1.3862  0.4862  1.1424
44268SOL    HW237743   0.371  10.861   8.348  0.1952  0.3778 -0.9761
44269SOL     OW37744   1.872  10.109   5.240  0.4580 -0.3801 -0.4019
44269SOL    HW137745   1.795  10.159   5.213  1.4282  1.3728 -0.0668
44269SOL    HW237746   1.841  10.053   5.311 -0.1836  1.5171  0.8609
44270SOL     OW37747   6.280   3.050   6.637  0.1701  0.3586  0.5163
44270SOL    HW137748   6.310   3.121   6.580  0.0037 -0.3725 -0.5101
44270SOL    HW237749   6.326   2.973   6.605 -0.7817 -0.2749  0.6428
44271SOL     OW37750   5.500   7.107   2.594  0.4976 -0.2147  0.4460
44271SOL    HW137751   5.467   7.028   2.636 -1.1395 -0.8175 -1.7846
44271SOL    HW237752   5.476   7.178   2.653 -1.3621 -1.0489  0.7463
44272SOL     OW37753   9.673   5.689   6.799  0.1255 -0.2911  0.2051
44272SOL    HW137754   9.613   5.638   6.854 -0.2459 -0.4696 -0.3572
44272SOL    HW237755   9.708   5.625   6.737  1.6825 -0.4090  1.1587
44273SOL     OW37756   9.183   6.457   2.960 -0.1255  0.3342  0.2233
44273SOL    HW137757   9.132   6.401   3.017  0.3298 -1.6614 -1.2293
44273SOL    HW237758   9.161   6.428   2.871  1.6879  1.0393 -0.5151
44274SOL     OW37759   3.864   6.038   0.610  0.5555  0.1142  0.4839
44274SOL    HW137760   3.881   5.958   0.560  1.0441  0.1198  0.6405
44274SOL    HW237761   3.906   6.107   0.560  0.7186  0.1754  0.7081
44275SOL     OW37762   5.586   2.832   8.046  0.4265  0.2740  0.3318
44275SOL    HW137763   5.624   2.843   8.134 -0.7049 -0.0418  0.8764
44275SOL    HW237764   5.661   2.811   7.990  1.1772  0.5658  1.2070
44276SOL     OW37765   1.288   9.272   6.492  1.0862  0.1664  0.0378
44276SOL    HW137766   1.336   9.199   6.532  0.4826  0.3651  1.1553
44276SOL    HW237767   1.288   9.251   6.398 -1.0987 -2.5625  0.4976
44277SOL     OW37768   1.423  10.920   2.006  0.4948  0.4258  0.1477
44277SOL    HW137769   1.470  10.837   2.012 -1.5295 -0.7547  0.7527
44277SOL    HW237770   1.419  10.939   1.913  2.1674  0.5896  0.0875
44278SOL     OW37771   2.606   3.543   8.440 -0.1834 -0.6234 -0.8858
44278SOL    HW137772   2.671   3.591   8.491 -0.1306 -0.5186 -1.0502
44278SOL    HW237773   2.657   3.490   8.379 -0.2013 -1.7296  0.0245
44279SOL     OW37774   2.847   4.086   1.373 -0.2153  0.1662 -0.3927
44279SOL    HW137775   2.769   4.052   1.417 -0.7248  2.5196  0.7403
44279SOL    HW237776   2.903   4.010   1.359 -1.7541 -1.2603  0.8269
44280SOL     OW37777   0.516   6.441  10.862  0.4126 -0.0557  0.3011
44280SOL    HW137778   0.509   6.515  10.802  1.3587  0.4760  0.8237
44280SOL    HW237779   0.600   6.400  10.839 -0.4850 -1.4802 -0.5418
44281SOL     OW37780   9.259  10.462   9.956  0.0324 -0.5805 -0.0887
44281SOL    HW137781   9.291  10.431   9.872 -0.5271  1.5742 -1.1656
44281SOL    HW237782   9.314  10.538   9.977  3.0448 -3.4071  3.6627
44282SOL     OW37783   8.324  10.720   5.222  0.6463  0.3624 -0.0132
44282SOL    HW137784   8.333  10.815   5.213 -0.4705  0.9248  3.4094
44282SOL    HW237785   8.238  10.701   5.183 -0.4674  1.3054  1.8371
44283SOL     OW37786   5.820   2.919   2.650 -0.1155  0.0282  0.7480
44283SOL    HW137787   5.866   2.841   2.681 -0.1963 -0.5933 -0.6291
44283SOL    HW237788   5.792   2.964   2.730 -1.8145 -2.3779  1.6372
44284SOL     OW37789   6.717   8.984   1.559 -0.2285  0.3960  0.2128
44284SOL    HW137790   6.725   9.078   1.579 -0.3284  0.4091  0.1960
44284SOL    HW237791   6.735   8.978   1.465 -1.0462  0.5139  0.0365
44285SOL     OW37792   4.753   7.688   6.149 -0.1397 -0.2667  0.5102
44285SOL    HW137793   4.826   7.673   6.089  0.6024 -0.3494  1.4018
44285SOL    HW237794   4.792   7.735   6.223 -1.5579  2.2454 -0.2411
44286SOL     OW37795  10.735   7.917   0.993  0.1606  0.8546  0.0734
44286SOL    HW137796  10.800   7.889   0.928 -1.1178  1.3088 -1.4587
44286SOL    HW237797  10.788   7.951   1.065  1.6583 -0.8516 -0.1336
44287SOL     OW37798   3.153   5.715   7.823  0.1070 -0.2632  0.1335
44287SOL    HW137799   3.083   5.759   7.870  1.0188  1.1969  0.1987
44287SOL    HW237800   3.233   5.739   7.870  0.7432 -1.2430 -0.4004
44288SOL     OW37801   8.878   9.159   0.781 -0.0381  0.1229  0.2039
44288SOL    HW137802   8.820   9.141   0.855  0.5990 -0.3278  0.6093
44288SOL    HW237803   8.909   9.248   0.796 -0.1177  0.1295  0.3342
44289SOL     OW37804   6.015   3.231   4.240  0.3016  0.6511  0.3629
44289SOL    HW137805   6.097   3.280   4.237  0.8527 -0.1482  1.5982
44289SOL    HW237806   6.027   3.161   4.176 -0.6188  2.2273 -1.6612
44290SOL     OW37807   4.209   5.306   5.853 -0.0360  0.2960  0.4978
44290SOL    HW137808   4.250   5.240   5.797 -1.5586  0.4371 -0.8410
44290SOL    HW237809   4.249   5.388   5.826  0.3646  0.1698  0.7083
44291SOL     OW37810   8.592   6.262   9.331 -0.2858  0.3695 -0.1432
44291SOL    HW137811   8.544   6.345   9.333 -2.1776 -0.5295 -2.5233
44291SOL    HW237812   8.680   6.286   9.302 -0.8439  1.5574 -0.9473
44292SOL     OW37813  11.433   8.366   5.290 -0.6957 -0.4034  0.7914
44292SOL    HW137814  11.366   8.333   5.230  0.2372 -1.4245  0.2738
44292SOL    HW237815  11.420   8.461   5.289 -0.8433 -0.3968 -0.9081
44293SOL     OW37816   0.918   8.968  10.591 -0.2665 -0.2096  0.4431
44293SOL    HW137817   0.996   8.961  10.646  0.0111  0.2422  0.1106
44293SOL    HW237818   0.860   9.027  10.640 -0.9783 -1.6063  1.3459
44294SOL     OW37819   2.808   7.258   8.753  0.2795  0.6327 -0.6346
44294SOL    HW137820   2.788   7.292   8.840 -0.1477 -0.6144 -0.2144
44294SOL    HW237821   2.764   7.173   8.750 -0.4814  1.0454 -2.4183
44295SOL     OW37822   5.725   2.699   5.480 -0.5894  0.9776 -0.4440
44295SOL    HW137823   5.808   2.746   5.472  0.9688 -1.6491 -0.8889
44295SOL    HW237824   5.672   2.753   5.538  1.4106  2.7514 -0.1636
44296SOL     OW37825   5.567   2.407  11.644  0.1339 -0.0908  0.2486
44296SOL    HW137826   5.538   2.323  11.681  0.2819  0.3157  1.3190
44296SOL    HW237827   5.614   2.383  11.564  1.4583 -1.1757  1.2966
44297SOL     OW37828  11.231   9.805   3.540  0.3618  0.5088 -0.5121
44297SOL    HW137829  11.177   9.842   3.610  1.1409  0.5599  0.0718
44297SOL    HW237830  11.212   9.711   3.543 -1.6806  0.8137 -2.0509
44298SOL     OW37831   0.491   0.922   8.639 -0.3513  0.1780  0.4931
44298SOL    HW137832   0.541   0.981   8.695 -0.5905  0.0174  0.8816
44298SOL    HW237833   0.409   0.907   8.687 -0.6563  0.2239 -0.0124
44299SOL     OW37834   4.686   4.953   9.257  0.2746 -0.3854 -0.3426
44299SOL    HW137835   4.647   5.022   9.311  0.7378 -1.3499  1.2728
44299SOL    HW237836   4.668   4.981   9.167  1.6227  2.5846  0.1501
44300SOL     OW37837   8.314  11.651   2.562  0.5154  0.0703 -0.4062
44300SOL    HW137838   8.301  11.557   2.570  0.6555 -0.0318 -1.3148
44300SOL    HW237839   8.387  11.660   2.500  1.0787  0.7539  0.3362
44301SOL     OW37840   1.605   4.015   4.151  0.5418  0.4561 -0.3449
44301SOL    HW137841   1.559   3.941   4.110 -0.9986 -0.1863  2.2952
44301SOL    HW237842   1.680   3.975   4.195 -0.6768  0.2302  1.6753
44302SOL     OW37843   8.666   0.271   8.555 -0.0099  0.3432 -0.2470
44302SOL    HW137844   8.587   0.321   8.535 -0.0683 -0.2120 -1.4563
44302SOL    HW237845   8.643   0.181   8.536  0.0021 -0.2393  2.1823
44303SOL     OW37846   5.334   7.215   7.102 -0.1176  0.0143  0.1520
44303SOL    HW137847   5.387   7.176   7.171 -0.5142 -2.4394 -0.8198
44303SOL    HW237848   5.363   7.171   7.022 -1.9826  0.3161 -0.7476
44304SOL     OW37849   7.162   3.417   6.005  0.6071 -0.2188 -0.3633
44304SOL    HW137850   7.081   3.393   5.960  0.3466 -0.4046  0.1960
44304SOL    HW237851   7.206   3.334   6.023  0.8988 -0.1221 -0.6154
44305SOL     OW37852   4.355  10.642   2.372 -0.5670 -0.3132 -0.1218
44305SOL    HW137853   4.390  10.560   2.338 -1.5906  0.3668 -3.0806
44305SOL    HW237854   4.421  10.708   2.348  0.7007 -0.2464  3.0263
44306SOL     OW37855   9.972  10.476   6.713  0.3977 -0.0379  0.1014
44306SOL    HW137856   9.926  10.442   6.789  1.7621  0.7961  1.3660
44306SOL    HW237857   9.919  10.550   6.684  1.0499  1.1344  1.7524
44307SOL     OW37858   3.475   1.237   2.802 -0.2328  0.6450 -0.6965
44307SOL    HW137859   3.550   1.178   2.800  0.2613  1.2912 -1.9946
44307SOL    HW237860   3.413   1.199   2.740 -0.9170  0.2329  0.2100
44308SOL     OW37861   9.168   7.637   1.326 -0.4534 -0.2280  0.0582
44308SOL    HW137862   9.193   7.729   1.316 -1.2724  0.0753  0.7375
44308SOL    HW237863   9.095   7.625   1.266 -0.5487 -0.3580  0.1999
44309SOL     OW37864   5.688   1.637  10.701 -0.3495 -0.0335  0.8174
44309SOL    HW137865   5.779   1.619  10.725 -0.0585 -0.4472 -0.5188
44309SOL    HW237866   5.636   1.598  10.772  0.4296 -2.2421  0.2440
44310SOL     OW37867   8.601   0.088   0.345  0.2152 -0.5740  0.0763
44310SOL    HW137868   8.687   0.070   0.384  1.0417 -1.1311 -1.8643
44310SOL    HW237869   8.553   0.005   0.354 -0.0470 -0.3424  0.9245
44311SOL     OW37870  11.467   1.886  10.240  0.3826 -0.3743  0.1526
44311SOL    HW137871  11.464   1.975  10.205  0.6396 -0.8367 -1.0874
44311SOL    HW237872  11.476   1.898  10.334 -2.0264  0.9207  0.3039
44312SOL     OW37873   0.709   7.097   7.391  0.0071  0.1325  0.3901
44312SOL    HW137874   0.668   7.098   7.477  0.5287  0.0575  0.6368
44312SOL    HW237875   0.770   7.023   7.394 -0.0744  0.0365 -0.0930
44313SOL     OW37876   5.126   7.570   0.372 -0.3294  0.1774  0.2988
44313SOL    HW137877   5.080   7.560   0.456  0.9961 -0.6299  0.9691
44313SOL    HW237878   5.176   7.489   0.363  2.0182  1.5254  0.3048
44314SOL     OW37879   2.101   7.380   0.076  0.0264  0.1698 -0.4535
44314SOL    HW137880   2.056   7.465   0.075  0.4097  0.3751 -0.5497
44314SOL    HW237881   2.167   7.389   0.145  2.1392  1.0655 -2.4553
44315SOL     OW37882   7.661   8.533   6.300  0.1652 -0.0968 -0.2702
44315SOL    HW137883   7.607   8.595   6.252 -0.5810 -0.9029 -0.5003
44315SOL    HW237884   7.600   8.466   6.330  0.5818  0.4020  1.8841
44316SOL     OW37885  11.162   7.358   0.115 -0.4374  0.1300  0.1906
44316SOL    HW137886  11.150   7.428   0.052  2.0930  0.7485  0.2651
44316SOL    HW237887  11.105   7.287   0.085 -1.4020  1.4178 -1.1248
44317SOL     OW37888   4.565  10.425  10.707 -0.5387  0.3404 -0.4292
44317SOL    HW137889   4.627  10.397  10.640  0.6477  0.6252  0.5226
44317SOL    HW237890   4.521  10.501  10.669 -1.1089 -0.5156 -1.5428
44318SOL     OW37891   6.789   9.869   8.870  0.0963  0.7296  0.4330
44318SOL    HW137892   6.754   9.800   8.925 -0.0146  0.4828  0.0561
44318SOL    HW237893   6.763   9.950   8.914  0.0255  0.5363  0.7519
44319SOL     OW37894   9.288   4.383  11.431 -0.0013  0.3415  0.0668
44319SOL    HW137895   9.363   4.332  11.461  1.7946  2.7354 -0.0356
44319SOL    HW237896   9.326   4.455  11.381 -2.5561  0.1988 -2.3248
44320SOL     OW37897   9.723   4.488   1.185 -0.4855  0.3004 -0.2412
44320SOL    HW137898   9.817   4.478   1.169 -0.8399 -1.4924 -1.5266
44320SOL    HW237899   9.698   4.407   1.230 -1.4831  0.5862 -0.2720
44321SOL     OW37900   7.506  10.666   3.017 -0.1610  0.1154 -0.0863
44321SOL    HW137901   7.601  10.673   3.012  0.0121 -1.4706  0.5160
44321SOL    HW237902   7.474  10.721   2.945  1.2087  0.3556 -0.5407
44322SOL     OW37903   6.631   6.193   2.670  0.2891  0.4484 -0.1539
44322SOL    HW137904   6.648   6.103   2.696 -1.2392  0.3869  0.7193
44322SOL    HW237905   6.659   6.197   2.578 -0.9764 -1.3259 -0.6610
44323SOL     OW37906   6.339   1.128   8.456  0.3490  0.1715  0.0740
44323SOL    HW137907   6.305   1.047   8.419 -0.9876  0.1024  1.3426
44323SOL    HW237908   6.300   1.197   8.402 -0.7398  0.0373  0.6565
44324SOL     OW37909   4.953   3.519   4.372  0.2604 -0.3172  0.1644
44324SOL    HW137910   4.991   3.522   4.460  0.6284 -0.7977  0.0255
44324SOL    HW237911   4.941   3.426   4.354  0.8896 -0.2634 -0.5885
44325SOL     OW37912   5.727   7.282   9.942 -0.4872 -0.1378 -0.0223
44325SOL    HW137913   5.700   7.367   9.908 -0.8608 -0.5860 -0.8920
44325SOL    HW237914   5.651   7.225   9.927  0.7360 -1.3475 -2.1636
44326SOL     OW37915  11.149   9.315   1.681  0.4045 -0.4299  0.1661
44326SOL    HW137916  11.238   9.328   1.713  0.0787  1.8522  0.3208
44326SOL    HW237917  11.111   9.403   1.681 -0.6375 -0.7345 -3.4930
44327SOL     OW37918   8.789   9.816   6.904 -0.2267 -0.1617  0.1295
44327SOL    HW137919   8.847   9.887   6.933  0.5770 -0.1971 -1.2680
44327SOL    HW237920   8.721   9.812   6.970  0.0500  1.5075  0.5728
44328SOL     OW37921   1.898   8.340   2.413  0.4196  0.0803  0.6379
44328SOL    HW137922   1.974   8.320   2.468  1.2910 -2.6454 -1.3480
44328SOL    HW237923   1.851   8.257   2.406 -0.0247  0.4873 -2.1213
44329SOL     OW37924   8.442   5.843  10.242  0.1340  0.1489  0.1436
44329SOL    HW137925   8.428   5.797  10.325  1.6679 -0.6512 -0.0112
44329SOL    HW237926   8.388   5.795  10.179 -0.9304  0.6756  0.6308
44330SOL     OW37927   1.618   4.962   7.501  0.1971  0.4781 -0.1018
44330SOL    HW137928   1.572   4.982   7.583  0.4597  1.2228 -0.1353
44330SOL    HW237929   1.550   4.923   7.445  0.0382 -0.1462  0.4975
44331SOL     OW37930   4.973   7.959   2.636 -0.0920  0.1899 -0.3994
44331SOL    HW137931   4.952   7.938   2.727  0.3846  2.2050  0.2240
44331SOL    HW237932   4.936   8.046   2.622 -0.0234 -0.0174 -2.1058
44332SOL     OW37933   3.491   7.562   7.399 -0.2348 -0.1074 -0.3489
44332SOL    HW137934   3.486   7.583   7.492  0.3451 -4.3068  0.8336
44332SOL    HW237935   3.431   7.624   7.357 -0.6633  1.8126  2.7803
44333SOL     OW37936   2.441   3.144   5.583  0.4785 -0.1834  0.4242
44333SOL    HW137937   2.460   3.230   5.621 -0.5150  0.2616 -0.0544
44333SOL    HW237938   2.520   3.122   5.534  1.3880 -0.3168  1.9163
44334SOL     OW37939   0.928   3.311   9.263  0.0457  0.4564  0.5092
44334SOL    HW137940   0.930   3.255   9.185 -0.4785  0.3765  0.5486
44334SOL    HW237941   0.985   3.384   9.242 -0.8584  0.9472 -0.3476
44335SOL     OW37942   0.734   4.688   0.400  0.0125 -0.8072  0.1629
44335SOL    HW137943   0.810   4.684   0.342  0.6611  2.3113  0.6036
44335SOL    HW237944   0.659   4.692   0.341  0.6015  1.3353 -0.5267
44336SOL     OW37945   6.264   7.387   0.076  0.0500 -0.3379  0.4036
44336SOL    HW137946   6.248   7.363   0.167 -1.6117 -0.4751  0.1006
44336SOL    HW237947   6.282   7.304   0.032 -1.9835 -0.6473  0.0818
44337SOL     OW37948   8.417   6.131   5.791 -0.7869 -0.0477  0.2573
44337SOL    HW137949   8.435   6.045   5.829 -1.8020  0.8901  3.1289
44337SOL    HW237950   8.504   6.171   5.780 -0.4251 -0.4743  1.4082
44338SOL     OW37951   8.922   1.040  10.936  0.1757 -0.3673 -0.2187
44338SOL    HW137952   8.975   1.113  10.969  0.0798 -0.8382  1.0540
44338SOL    HW237953   8.964   1.013  10.855  1.0160  0.2223  0.0137
44339SOL     OW37954   6.230   2.514   9.871  0.1389 -0.0880  0.0085
44339SOL    HW137955   6.247   2.599   9.913  0.9853 -1.4815  2.7740
44339SOL    HW237956   6.315   2.470   9.872 -0.3354 -1.0870 -1.1320
44340SOL     OW37957   9.181  10.112  10.667 -0.0029 -0.5905  0.3208
44340SOL    HW137958   9.275  10.110  10.687  0.1705 -1.4974 -0.4806
44340SOL    HW237959   9.171  10.184  10.604  0.2432 -0.7799  0.0600
44341SOL     OW37960  10.634   7.048   1.836 -0.5612  0.3062 -0.1291
44341SOL    HW137961  10.697   6.977   1.837 -1.1767 -0.2990  2.5847
44341SOL    HW237962  10.563   7.017   1.779 -0.7032 -1.1827  0.8177
44342SOL     OW37963   5.336   0.440   5.865  0.2564  0.2611 -0.3820
44342SOL    HW137964   5.387   0.486   5.932 -1.4581  0.0966  1.0912
44342SOL    HW237965   5.329   0.351   5.898 -0.6562  0.1891 -0.7629
44343SOL     OW37966   6.166   2.768   8.730 -0.2903  0.3447  0.0530
44343SOL    HW137967   6.076   2.764   8.763 -1.0598 -0.7484 -2.0587
44343SOL    HW237968   6.159   2.752   8.636  2.0650  0.8776 -0.2853
44344SOL     OW37969   8.694   5.201   3.195 -0.1347  0.1093  0.1002
44344SOL    HW137970   8.700   5.261   3.121 -0.9495  0.5272  0.3592
44344SOL    HW237971   8.621   5.143   3.173  0.2360 -0.3751  0.1417
44345SOL     OW37972   6.655   6.099   9.233  0.2977  0.2201 -0.7489
44345SOL    HW137973   6.620   6.185   9.255 -0.2939  0.6958 -3.2584
44345SOL    HW237974   6.578   6.047   9.211  0.6950 -0.8562  0.2824
44346SOL     OW37975   3.249   0.468   4.682  0.1567 -0.3374 -0.3438
44346SOL    HW137976   3.167   0.451   4.637  0.4499  1.4749 -1.6717
44346SOL    HW237977   3.282   0.381   4.705 -0.8321 -1.2703 -2.1870
44347SOL     OW37978   8.399   9.966   6.526 -0.2751  0.1397  0.0189
44347SOL    HW137979   8.376   9.934   6.613 -0.4790 -0.6054 -0.2975
44347SOL    HW237980   8.457   9.898   6.490  2.7309  2.0696  0.8777
44348SOL     OW37981   3.648   9.590   8.917 -0.4232 -0.0849  0.0391
44348SOL    HW137982   3.614   9.589   8.827  3.7481 -1.3240 -1.7934
44348SOL    HW237983   3.636   9.500   8.947 -0.8469  0.0635  0.3211
44349SOL     OW37984   9.011   8.579   5.717  0.3898 -0.0591  0.1331
44349SOL    HW137985   9.055   8.652   5.674  0.0288  0.3527  0.4645
44349SOL    HW237986   9.053   8.501   5.680  2.2931  0.3229  1.3381
44350SOL     OW37987  11.231   3.606   0.702  0.0209 -0.4386 -0.0814
44350SOL    HW137988  11.318   3.645   0.696 -0.0890 -0.2421 -0.4251
44350SOL    HW237989  11.171   3.680   0.691 -0.2362 -0.0814  2.8348
44351SOL     OW37990   2.672  10.189   8.565  0.3128  0.3930  0.2816
44351SOL    HW137991   2.746  10.248   8.579  0.0867  0.4937  1.0948
44351SOL    HW237992   2.684  10.119   8.630  0.2388 -0.1205 -0.2518
44352SOL     OW37993   0.460  11.635   4.747 -0.3863  0.3243  0.0303
44352SOL    HW137994   0.464  11.659   4.655 -0.3366  1.5160  0.3196
44352SOL    HW237995   0.448  11.719   4.793 -1.1573 -0.3252  1.0515
44353SOL     OW37996   4.575   2.849   8.475 -0.1749  0.3053  0.3325
44353SOL    HW137997   4.600   2.831   8.385 -0.2472 -0.2459  0.4175
44353SOL    HW237998   4.650   2.896   8.512 -0.0567  0.3411  0.0500
44354SOL     OW37999   5.739   8.735  10.390  0.0227  0.6106 -0.3273
44354SOL    HW138000   5.704   8.734  10.479 -0.5998  0.8981 -0.5626
44354SOL    HW238001   5.662   8.750  10.335  0.4233  0.5569 -0.9027
44355SOL     OW38002  11.160   4.453   8.487 -0.1507  0.6798  0.4668
44355SOL    HW138003  11.242   4.421   8.450 -1.1620 -1.9886  0.3511
44355SOL    HW238004  11.104   4.470   8.411 -0.5342  0.0891  0.6160
44356SOL     OW38005   6.355   8.232   2.858  0.4418  0.7018  0.7541
44356SOL    HW138006   6.363   8.169   2.929  0.6280  0.6988  0.7303
44356SOL    HW238007   6.309   8.184   2.789  2.2006  0.0059  0.0328
44357SOL     OW38008   2.950   3.828   1.374  0.0064 -0.0771 -0.5430
44357SOL    HW138009   3.014   3.820   1.445 -0.2129 -0.5165 -0.3959
44357SOL    HW238010   2.893   3.752   1.384  0.4204 -0.5482 -1.6355
44358SOL     OW38011   7.236   0.343   9.927  0.3101  0.2367  0.5081
44358SOL    HW138012   7.254   0.398  10.003  0.1748 -0.9225  1.4028
44358SOL    HW238013   7.156   0.381   9.890 -0.8895 -0.4588  2.2378
44359SOL     OW38014   4.944  10.979   9.990 -0.1556 -0.2712  0.1707
44359SOL    HW138015   5.030  11.018   9.971  0.1342 -0.5126  0.9507
44359SOL    HW238016   4.905  11.038  10.054 -1.1418  0.5609 -1.1406
44360SOL     OW38017   4.852   5.006   6.495 -0.2831 -0.3394 -0.0512
44360SOL    HW138018   4.895   4.944   6.436 -2.5817 -1.0549 -1.0733
44360SOL    HW238019   4.787   5.050   6.441 -1.9459 -0.4510  1.7630
44361SOL     OW38020   3.077   9.381   0.377 -0.7438  0.1495  0.4324
44361SOL    HW138021   3.111   9.408   0.462  1.3554 -1.1665  0.0719
44361SOL    HW238022   2.985   9.360   0.393 -0.9541  1.9166  1.8889
44362SOL     OW38023   9.269  11.600  11.155 -0.2550 -0.3713  0.0718
44362SOL    HW138024   9.283  11.547  11.077 -0.4540 -1.2855  0.6375
44362SOL    HW238025   9.217  11.544  11.213 -1.2890  0.7986  0.3111
44363SOL     OW38026   8.025   4.596   3.658  0.1986  0.1647  0.0590
44363SOL    HW138027   7.975   4.534   3.710 -0.8112 -0.2198 -1.3187
44363SOL    HW238028   8.114   4.561   3.656 -0.5115 -1.7299 -1.3422
44364SOL     OW38029   6.945   9.461   3.436  0.0847  0.4181 -0.3811
44364SOL    HW138030   6.876   9.433   3.376 -0.0346  0.9660 -0.5000
44364SOL    HW238031   6.994   9.381   3.455 -0.2477  0.1303 -0.7273
44365SOL     OW38032  11.070   6.571   2.379  0.4198 -0.7093 -0.1219
44365SOL    HW138033  11.114   6.530   2.304 -1.6708 -2.1890 -0.6449
44365SOL    HW238034  11.062   6.500   2.443 -0.0931 -0.1414  0.4564
44366SOL     OW38035   0.967   5.743   8.417  0.2485  0.0263  0.4101
44366SOL    HW138036   0.944   5.658   8.379 -0.9780 -0.1462  1.4504
44366SOL    HW238037   1.040   5.723   8.476 -0.9940 -0.6386  1.7990
44367SOL     OW38038  10.838   0.318   2.440 -0.0386  0.7915 -0.6109
44367SOL    HW138039  10.765   0.340   2.382 -0.5784  0.9178  0.1106
44367SOL    HW238040  10.798   0.297   2.524  0.4852 -2.3895 -1.0564
44368SOL     OW38041  11.665   1.329   0.479  0.1116  0.0533  0.3712
44368SOL    HW138042  11.638   1.238   0.464 -1.3290  0.4021  0.6975
44368SOL    HW238043  11.748   1.322   0.525  1.4042 -1.0716 -1.9633
44369SOL     OW38044   4.324   6.599  10.516 -0.2583  0.1251 -0.0077
44369SOL    HW138045   4.313   6.545  10.594  0.2596 -0.8591 -0.5880
44369SOL    HW238046   4.300   6.541  10.444  0.0324  0.7714 -0.6328
44370SOL     OW38047   4.241   1.707   2.545 -0.0015  0.0870 -0.0713
44370SOL    HW138048   4.242   1.654   2.625  0.6039 -2.4196 -1.6088
44370SOL    HW238049   4.328   1.693   2.506 -0.7844  0.0059 -1.8851
44371SOL     OW38050   8.697   1.204   2.694 -0.3206 -0.3261  0.0093
44371SOL    HW138051   8.775   1.244   2.731 -0.1287  0.1834 -0.9238
44371SOL    HW238052   8.641   1.187   2.769  0.7915 -0.9525  0.7210
44372SOL     OW38053   3.021   5.730   9.560  0.0719  0.0764  0.0736
44372SOL    HW138054   3.063   5.647   9.542 -0.0134 -0.1106  0.7174
44372SOL    HW238055   3.020   5.737   9.656 -0.6378  0.4423  0.0479
44373SOL     OW38056   4.904   4.790   9.733 -0.7425 -0.2738 -0.2263
44373SOL    HW138057   4.867   4.851   9.669  1.4718  0.3998 -0.9523
44373SOL    HW238058   4.836   4.782   9.800 -2.2861  0.6433 -1.5980
44374SOL     OW38059   7.873   8.265   9.430 -0.3816  0.3257 -0.4166
44374SOL    HW138060   7.784   8.266   9.395  0.0285  0.6984 -1.4920
44374SOL    HW238061   7.926   8.230   9.359  0.4777  1.0425 -0.1470
44375SOL     OW38062   3.173   6.428  10.921  0.1255 -0.2276  0.4870
44375SOL    HW138063   3.179   6.524  10.921 -2.1866 -0.0346 -0.1325
44375SOL    HW238064   3.264   6.399  10.917  0.9199  1.9201  1.3566
44376SOL     OW38065  10.677   0.978   7.965 -0.5594  0.3676 -0.3342
44376SOL    HW138066  10.668   0.885   7.946  1.9624  0.3150 -1.8534
44376SOL    HW238067  10.666   1.021   7.880 -0.7291  1.3486  0.1671
44377SOL     OW38068   7.992   7.131  11.160  0.4347 -0.0735 -0.7201
44377SOL    HW138069   7.918   7.131  11.100  0.7057 -0.2053 -1.0606
44377SOL    HW238070   7.957   7.167  11.241  0.0174 -0.0681 -0.8980
44378SOL     OW38071   1.804   6.497  10.004 -0.2776  0.0751  0.2755
44378SOL    HW138072   1.885   6.532   9.969  0.1304 -0.8794  0.2201
44378SOL    HW238073   1.780   6.556  10.076  0.3031  0.5280  0.1004
44379SOL     OW38074   9.439   4.464  10.832 -0.3111 -0.0487  0.9754
44379SOL    HW138075   9.412   4.397  10.895 -2.1705 -1.3308 -1.0421
44379SOL    HW238076   9.393   4.543  10.861 -1.3383 -0.6805  1.1551
44380SOL     OW38077   0.679   7.362   8.187  0.4431  0.2263  0.2559
44380SOL    HW138078   0.735   7.433   8.219 -0.5996  0.2896  2.0176
44380SOL    HW238079   0.735   7.313   8.126  1.6032  1.7435  0.0412
44381SOL     OW38080  10.627   0.438   9.140  0.2051 -0.3333  0.0376
44381SOL    HW138081  10.689   0.365   9.128  1.4821  0.7648 -0.2593
44381SOL    HW238082  10.618   0.475   9.052  1.9654  1.7208  0.6468
44382SOL     OW38083   0.127   6.141  10.320  0.3108  1.0253  0.1680
44382SOL    HW138084   0.105   6.087  10.245  1.1196 -0.3438  0.8801
44382SOL    HW238085   0.136   6.229  10.285  0.6069  0.4261 -1.3179
44383SOL     OW38086   8.741   8.188   2.362  0.2168 -0.2497  0.1562
44383SOL    HW138087   8.771   8.181   2.272  0.5430 -0.0954  0.2525
44383SOL    HW238088   8.752   8.101   2.399  3.1173  0.3693  0.9950
44384SOL     OW38089   1.975   7.806   5.689  0.3904 -0.4190 -0.0605
44384SOL    HW138090   2.069   7.790   5.682  0.6068  0.9979 -0.8827
44384SOL    HW238091   1.937   7.759   5.615  0.5541 -0.3320 -0.2025
44385SOL     OW38092   4.090   3.460   7.687  0.3545 -0.6406  0.4377
44385SOL    HW138093   4.102   3.369   7.659  0.5811 -0.7591  0.9021
44385SOL    HW238094   4.042   3.453   7.770  1.3618 -0.4048  1.0585
44386SOL     OW38095   3.020   9.596  10.249  0.4714  0.4261  0.2815
44386SOL    HW138096   3.023   9.501  10.237 -0.3195  0.3703  0.4804
44386SOL    HW238097   2.967   9.628  10.176 -0.4306  0.5678  0.9789
44387SOL     OW38098   2.305   6.098   2.395 -0.3220 -0.0905  0.2894
44387SOL    HW138099   2.275   6.098   2.485  2.7511 -2.0917  1.4646
44387SOL    HW238100   2.300   6.006   2.368  0.4646  0.2008 -0.9409
44388SOL     OW38101   2.491   4.122  10.750 -0.0758  0.6016 -0.1583
44388SOL    HW138102   2.567   4.153  10.799  0.1473 -1.0640  0.6008
44388SOL    HW238103   2.426   4.101  10.817 -0.4408  0.0257 -0.6763
44389SOL     OW38104   7.199  10.609   8.645 -0.0980 -0.0348  0.0987
44389SOL    HW138105   7.159  10.676   8.700 -2.7690 -0.4460 -1.2167
44389SOL    HW238106   7.163  10.624   8.558 -1.4579 -3.5637 -0.1181
44390SOL     OW38107   1.148   1.529   9.741 -0.3673 -0.0904 -0.8765
44390SOL    HW138108   1.095   1.608   9.732  1.0507  0.7922 -1.8842
44390SOL    HW238109   1.171   1.527   9.834 -0.2972  0.7806 -0.8643
44391SOL     OW38110   5.626   8.940   0.362 -0.1412  0.3058  0.8250
44391SOL    HW138111   5.589   8.853   0.373  1.4793 -0.3585  1.3317
44391SOL    HW238112   5.588   8.972   0.281  0.4749 -1.5644 -0.2683
44392SOL     OW38113   4.545  11.221   0.438 -0.3876  0.3883 -0.5138
44392SOL    HW138114   4.539  11.310   0.473 -1.7305  0.4567 -0.8689
44392SOL    HW238115   4.631  11.217   0.397 -0.1542  1.3991 -0.1429
44393SOL     OW38116   9.236   8.677  11.530 -0.1208 -0.0330 -0.0674
44393SOL    HW138117   9.271   8.712  11.448  3.5186 -1.4038  0.7004
44393SOL    HW238118   9.263   8.585  11.530 -0.5466 -0.2263  2.3850
44394SOL     OW38119   4.618   9.648  10.658  0.0910  0.0961 -0.5608
44394SOL    HW138120   4.686   9.637  10.724  1.4626  0.2222 -1.8956
44394SOL    HW238121   4.550   9.585  10.682  1.2050 -0.8741  0.1439
44395SOL     OW38122   9.994   2.791   8.523 -0.3230 -0.1605 -0.4391
44395SOL    HW138123   9.910   2.828   8.552 -0.2231  0.5107 -0.9834
44395SOL    HW238124  10.051   2.798   8.600 -0.9507 -1.2444  0.1443
44396SOL     OW38125   0.371  11.112   1.158  0.0640  0.3225 -0.1841
44396SOL    HW138126   0.437  11.082   1.096  1.0676  2.6432 -0.3581
44396SOL    HW238127   0.351  11.201   1.129 -0.9456  0.7297  1.6437
44397SOL     OW38128   5.350   4.410   8.637 -0.9094  0.5591 -0.2128
44397SOL    HW138129   5.374   4.333   8.688 -0.6920  0.9271  0.2398
44397SOL    HW238130   5.404   4.405   8.558 -1.6945 -0.3477 -0.7256
44398SOL     OW38131   9.641  10.675   1.224  0.2001 -0.7592 -0.1879
44398SOL    HW138132   9.672  10.628   1.300 -0.9003 -2.6110 -0.8234
44398SOL    HW238133   9.716  10.678   1.164  0.3883 -1.3815  0.0161
44399SOL     OW38134   5.007   7.448   0.605  0.1851 -0.2446 -0.2234
44399SOL    HW138135   4.970   7.372   0.560 -0.1215  0.7614 -1.7208
44399SOL    HW238136   5.048   7.411   0.683 -0.1218 -1.9276 -0.8140
44400SOL     OW38137   6.856   3.262   9.313  0.1041  0.3304 -0.3471
44400SOL    HW138138   6.848   3.242   9.220 -0.4620 -1.4161  0.0350
44400SOL    HW238139   6.950   3.264   9.330  0.2103 -0.8110 -0.7002
44401SOL     OW38140   5.362   0.160   2.406  0.5680  0.1302  0.5181
44401SOL    HW138141   5.444   0.205   2.427  1.0152 -0.0456 -0.8010
44401SOL    HW238142   5.365   0.147   2.312 -0.5423 -0.7434  0.5844
44402SOL     OW38143   2.897   7.626  10.772  0.0882 -0.2440 -0.8619
44402SOL    HW138144   2.937   7.549  10.811  0.4810  0.5016  0.2566
44402SOL    HW238145   2.951   7.646  10.695  0.8529 -0.2439 -0.3325
44403SOL     OW38146   9.294   5.510   9.410  0.1040 -0.8471 -0.1085
44403SOL    HW138147   9.217   5.453   9.410 -0.4470 -0.1160 -0.6592
44403SOL    HW238148   9.361   5.459   9.457 -0.9569 -1.1605  1.1408
44404SOL     OW38149   0.746   0.582   2.945  0.1175  0.4948 -0.0568
44404SOL    HW138150   0.720   0.653   3.004  0.2353 -0.9825  1.8378
44404SOL    HW238151   0.831   0.611   2.909  0.7205  0.8338  1.5666
44405SOL     OW38152   2.682   6.683   6.966 -0.1282  0.1299  0.2427
44405SOL    HW138153   2.676   6.684   6.871 -2.4214  2.0206  0.3371
44405SOL    HW238154   2.600   6.644   6.996  1.2570 -2.0431  1.4851
44406SOL     OW38155   6.156   9.719   9.272  0.0503  0.5426  0.1119
44406SOL    HW138156   6.178   9.784   9.339 -1.1713  0.2254  0.8627
44406SOL    HW238157   6.134   9.771   9.194  2.1440  0.8921 -0.2962
44407SOL     OW38158   6.075   8.629   6.656  0.2617  0.2020  0.0718
44407SOL    HW138159   5.995   8.582   6.679 -0.1872  1.3291  0.8622
44407SOL    HW238160   6.097   8.596   6.569 -0.9304 -0.3090 -0.0609
44408SOL     OW38161  11.216   6.642   4.445  0.4279 -0.0598 -0.0614
44408SOL    HW138162  11.211   6.589   4.366  0.1915 -0.1369  0.0026
44408SOL    HW238163  11.134   6.624   4.491 -0.0516  1.0200 -0.4571
44409SOL     OW38164   5.261   5.462   6.283  0.2267 -0.2690 -0.2599
44409SOL    HW138165   5.246   5.380   6.331 -1.2236 -0.2774 -0.6859
44409SOL    HW238166   5.283   5.526   6.351  0.3965 -0.7819  0.1747
44410SOL     OW38167   4.036   7.015  10.624 -0.4423  0.3918 -0.4298
44410SOL    HW138168   4.079   6.932  10.600  2.1055  0.8774  1.9794
44410SOL    HW238169   3.997   6.998  10.710 -1.0924  1.3192 -0.5266
44411SOL     OW38170  10.616   7.140   7.188  0.9815  0.3711 -0.3760
44411SOL    HW138171  10.548   7.075   7.203  1.4711  0.1220  0.9477
44411SOL    HW238172  10.654   7.116   7.104 -0.0707  0.0758 -0.7786
44412SOL     OW38173   3.710   6.612   7.525 -0.1042  0.2125 -0.1706
44412SOL    HW138174   3.647   6.581   7.590 -1.6025  1.5917 -0.8937
44412SOL    HW238175   3.795   6.604   7.569 -0.7627 -1.5875  0.8694
44413SOL     OW38176   4.153   9.871   5.335 -0.0892 -0.2654  0.5707
44413SOL    HW138177   4.139   9.933   5.263  0.0222  0.2680  1.0007
44413SOL    HW238178   4.072   9.819   5.338 -0.0162 -0.4237 -0.0616
44414SOL     OW38179  10.141   6.832  10.374  0.2126  0.2420  0.1516
44414SOL    HW138180  10.228   6.834  10.333  0.1157  1.0039 -0.0206
44414SOL    HW238181  10.081   6.816  10.301  0.2610 -1.1352  0.3799
44415SOL     OW38182   7.781   7.544  10.415  0.3652  0.0268  0.2046
44415SOL    HW138183   7.704   7.548  10.472  0.1169  1.9319 -0.1935
44415SOL    HW238184   7.844   7.604  10.455  0.9969 -0.2097 -0.4029
44416SOL     OW38185   6.174   7.223   6.536  0.0057 -0.1911 -0.0385
44416SOL    HW138186   6.106   7.156   6.536  0.2893 -0.5130  1.5740
44416SOL    HW238187   6.138   7.293   6.481 -2.7584  0.6765  2.5376
44417SOL     OW38188   5.337   7.294   5.227  0.2986  0.9701  0.7691
44417SOL    HW138189   5.285   7.303   5.306  2.6291  3.2367  2.2022
44417SOL    HW238190   5.345   7.383   5.192  1.7826  0.4669 -0.3106
44418SOL     OW38191   1.688   9.558   0.315  0.2229  0.3132  0.2437
44418SOL    HW138192   1.604   9.600   0.299  0.4645  0.5194 -0.5528
44418SOL    HW238193   1.669   9.489   0.378 -0.1066  1.8884  1.9783
44419SOL     OW38194   9.625   4.859   9.278  0.0293  0.7806  0.6680
44419SOL    HW138195   9.685   4.882   9.349  0.8215 -0.8434  0.5650
44419SOL    HW238196   9.679   4.858   9.200 -0.5286  1.0593  0.2666
44420SOL     OW38197   9.832   8.690   0.916 -0.3717 -0.1091 -0.2740
44420SOL    HW138198   9.907   8.730   0.873  2.3566 -1.4364  2.7917
44420SOL    HW238199   9.778   8.764   0.944  0.8558  1.0312 -0.8187
44421SOL     OW38200   7.210   7.220   6.133 -0.1685 -0.4822  0.2197
44421SOL    HW138201   7.202   7.311   6.105  0.2808  0.0619  1.7472
44421SOL    HW238202   7.163   7.216   6.216  0.6020 -1.4041  0.6368
44422SOL     OW38203  10.270   3.510   3.534 -0.1886  0.2754 -0.1298
44422SOL    HW138204  10.249   3.463   3.615 -1.1582  0.0163 -0.5141
44422SOL    HW238205  10.364   3.526   3.539  0.3317 -2.2350 -0.2299
44423SOL     OW38206  10.797   3.429   1.105  0.0366  0.1207  0.3258
44423SOL    HW138207  10.775   3.341   1.137  1.0438 -0.9233 -1.6713
44423SOL    HW238208  10.837   3.414   1.019  2.2077  2.3930  0.8314
44424SOL     OW38209   2.235   3.448   1.135 -0.1208 -0.4644  0.4096
44424SOL    HW138210   2.287   3.505   1.192 -2.6486 -0.1981  2.6243
44424SOL    HW238211   2.176   3.507   1.089 -1.0136 -1.0519  0.7837
44425SOL     OW38212   6.922   3.235   1.391 -0.3196  0.4487  0.0123
44425SOL    HW138213   6.907   3.307   1.452  0.4254 -0.0251  0.7778
44425SOL    HW238214   6.837   3.194   1.379 -0.3094 -0.0307  1.4736
44426SOL     OW38215   9.373   1.145   5.409  0.5759  0.2743 -0.0440
44426SOL    HW138216   9.440   1.115   5.471 -0.6010 -0.8090  0.7479
44426SOL    HW238217   9.336   1.223   5.450  1.4560  1.0005 -0.5825
44427SOL     OW38218   6.948   0.395   2.795 -0.3704 -0.1733 -0.3272
44427SOL    HW138219   6.899   0.395   2.877 -1.0718 -2.3324 -0.6887
44427SOL    HW238220   7.039   0.377   2.822 -0.8169 -2.2902 -0.0633
44428SOL     OW38221   9.831   5.173   5.061  0.2269 -0.3576  0.5967
44428SOL    HW138222   9.847   5.115   5.135  0.7411 -0.7554  0.1815
44428SOL    HW238223   9.833   5.116   4.984 -0.1438  0.0741  0.2607
44429SOL     OW38224   2.517   0.120   9.158 -0.2835  0.0722  0.6474
44429SOL    HW138225   2.523   0.192   9.095  0.0131 -0.3470  0.1864
44429SOL    HW238226   2.602   0.120   9.202  0.1694 -0.7351 -0.1881
44430SOL     OW38227   0.016   8.767   2.153 -0.7301  0.4412  0.2429
44430SOL    HW138228   0.016   8.735   2.243  0.5748  2.9682  1.2215
44430SOL    HW238229  -0.075   8.757   2.124 -0.7001 -2.8374  0.8135
44431SOL     OW38230   8.940  10.827  10.673 -0.0104  0.4578  0.3421
44431SOL    HW138231   9.008  10.886  10.640 -0.2253  0.6386  0.2228
44431SOL    HW238232   8.915  10.774  10.597  1.1102 -0.7028  0.7445
44432SOL     OW38233   0.169   9.350   6.083  0.0661 -0.3423 -0.1371
44432SOL    HW138234   0.139   9.300   6.007 -0.6374 -1.1339  0.6354
44432SOL    HW238235   0.120   9.312   6.157  0.9382  0.2218  0.7471
44433SOL     OW38236   0.893   6.571   4.673  0.1220  0.2510  0.1180
44433SOL    HW138237   0.814   6.519   4.657 -0.1600  0.9989 -1.0280
44433SOL    HW238238   0.965   6.508   4.665 -0.2483 -0.0879 -0.6834
44434SOL     OW38239   4.806   3.890  10.309 -0.8379 -0.6239  0.4824
44434SOL    HW138240   4.787   3.959  10.373 -0.5030 -1.3456  1.3881
44434SOL    HW238241   4.814   3.936  10.225  1.4306  0.7516  1.3621
44435SOL     OW38242   8.916   4.342   8.051 -0.5660 -0.5293  0.3425
44435SOL    HW138243   8.850   4.392   8.099  1.8879  2.4566  0.9233
44435SOL    HW238244   8.917   4.257   8.094 -1.7302  0.4533  2.5108
44436SOL     OW38245  10.692   0.013   2.489 -0.0900 -0.1560 -0.3053
44436SOL    HW138246  10.628   0.018   2.417 -0.7490 -2.3864  0.0236
44436SOL    HW238247  10.718  -0.079   2.490  1.1499  0.1770  1.2808
44437SOL     OW38248  11.196   7.873   1.570 -0.0490 -0.2916  0.3492
44437SOL    HW138249  11.148   7.790   1.575 -0.3777 -0.1493 -0.3255
44437SOL    HW238250  11.275   7.852   1.519  1.2300 -0.7945  2.3949
44438SOL     OW38251   8.493  10.123   7.389  0.4920 -0.1865  0.2405
44438SOL    HW138252   8.456  10.113   7.476  1.9951  0.1340  0.9444
44438SOL    HW238253   8.566  10.061   7.386  0.5971 -0.0345 -0.7042
44439SOL     OW38254   2.757  11.643   3.679  0.2644  0.1331 -0.1551
44439SOL    HW138255   2.707  11.677   3.753 -0.6432 -0.5534 -0.4379
44439SOL    HW238256   2.774  11.551   3.701  0.6409  0.1243 -0.4627
44440SOL     OW38257   6.502   6.559   6.545  0.0467 -0.5072 -0.5559
44440SOL    HW138258   6.418   6.604   6.558  0.5023  0.4253 -0.7393
44440SOL    HW238259   6.536   6.548   6.634  0.2401  0.1332 -0.5443
44441SOL     OW38260   4.284   7.498   1.295  0.2222  0.0108  0.3555
44441SOL    HW138261   4.281   7.545   1.378 -0.4159 -0.8807  0.8661
44441SOL    HW238262   4.192   7.478   1.276  0.4198 -0.3647 -0.2249
44442SOL     OW38263   6.176   5.413   2.435  0.0855 -0.7310 -0.3598
44442SOL    HW138264   6.107   5.389   2.374 -0.4298  0.7535 -0.4035
44442SOL    HW238265   6.164   5.507   2.449  1.6550 -0.5850  0.1962
44443SOL     OW38266   2.945   9.527   9.621 -0.4362  0.5918  0.5255
44443SOL    HW138267   2.882   9.475   9.671  0.3599 -2.8578 -1.7265
44443SOL    HW238268   2.898   9.552   9.541  0.4818 -0.5599 -0.4102
44444SOL     OW38269   2.645   9.044   4.528 -0.3064  0.4256  0.4555
44444SOL    HW138270   2.708   9.079   4.591  1.2685 -0.1485 -0.7454
44444SOL    HW238271   2.560   9.066   4.566  0.5560  3.5428  0.8549
44445SOL     OW38272   8.168   0.177   9.162 -0.3731 -0.0502  0.5123
44445SOL    HW138273   8.237   0.159   9.098 -1.9478  0.1162 -1.3277
44445SOL    HW238274   8.114   0.244   9.120 -1.4058  0.1693  2.1136
44446SOL     OW38275   2.955   5.239   8.808  0.7909  0.2812  0.6251
44446SOL    HW138276   2.944   5.184   8.885 -2.1638 -1.2837 -0.7434
44446SOL    HW238277   2.909   5.320   8.829 -1.6911 -0.8619 -0.0354
44447SOL     OW38278   3.656   3.926   8.035  0.3239  0.4842  0.0738
44447SOL    HW138279   3.678   4.010   8.076  0.9640  0.1044  0.5052
44447SOL    HW238280   3.612   3.876   8.104  0.4406  0.2502 -0.0223
44448SOL     OW38281   6.166   1.345   6.537 -0.1128 -0.2116  0.4200
44448SOL    HW138282   6.091   1.373   6.484 -1.6068  0.4574  2.7470
44448SOL    HW238283   6.216   1.424   6.552 -0.2696 -0.1923  0.8542
44449SOL     OW38284   0.349   5.740   1.773  0.3959 -0.3340  0.0292
44449SOL    HW138285   0.364   5.692   1.855 -1.6498 -0.2667  0.4743
44449SOL    HW238286   0.282   5.804   1.793  1.5736  1.3718 -1.1169
44450SOL     OW38287   1.452   7.677   7.861 -0.2403  0.2154 -0.5822
44450SOL    HW138288   1.405   7.614   7.916  0.4666 -0.9330 -1.2398
44450SOL    HW238289   1.394   7.753   7.857  0.0965  0.7417  2.4992
44451SOL     OW38290   1.754   2.100   0.334  0.1679  0.3975 -0.6684
44451SOL    HW138291   1.809   2.178   0.326  0.3374  0.3140 -0.3330
44451SOL    HW238292   1.666   2.130   0.311  0.3405  0.5422 -1.1624
44452SOL     OW38293   4.715   8.943   9.693 -0.6032  0.6104  0.1348
44452SOL    HW138294   4.800   8.905   9.713 -0.9805  0.0266  0.6684
44452SOL    HW238295   4.703   8.928   9.599 -0.3032  0.3129  0.1444
44453SOL     OW38296   1.663   9.794   5.180 -0.6925 -0.0902 -0.2904
44453SOL    HW138297   1.641   9.875   5.133 -1.0831 -0.8958 -1.5316
44453SOL    HW238298   1.591   9.734   5.161 -0.1464 -0.9141  0.1829
44454SOL     OW38299   5.414   5.938   8.591 -0.5347  0.1656  0.1719
44454SOL    HW138300   5.318   5.935   8.590 -0.5177 -0.9863 -0.7307
44454SOL    HW238301   5.441   5.851   8.560  0.7781  1.2412 -1.9198
44455SOL     OW38302   3.813   2.964   4.197 -0.0398 -0.3850  0.5446
44455SOL    HW138303   3.717   2.957   4.197 -0.2227  1.4479 -0.3256
44455SOL    HW238304   3.830   3.051   4.233  1.2827 -0.5703  0.3962
44456SOL     OW38305   1.778  11.434   5.060 -0.1684 -0.3369 -0.5334
44456SOL    HW138306   1.868  11.442   5.090 -0.5379  0.8268  0.3849
44456SOL    HW238307   1.759  11.340   5.064  0.7909 -0.5263 -0.1100
44457SOL     OW38308   5.972   6.802   4.167  0.4186  0.2852 -0.1636
44457SOL    HW138309   5.989   6.830   4.077  0.2927 -0.0531 -0.2920
44457SOL    HW238310   5.927   6.877   4.207 -1.7089 -0.4343 -1.0709
44458SOL     OW38311  11.340   9.568   5.683  0.2054 -0.3341  0.3461
44458SOL    HW138312  11.272   9.556   5.750  0.3360  1.6129  0.8976
44458SOL    HW238313  11.351   9.663   5.677  1.2682 -0.5233 -1.3907
44459SOL     OW38314  10.086   3.073   5.905 -0.3453  0.0103 -0.1836
44459SOL    HW138315  10.177   3.091   5.930  0.0883 -0.2472 -1.4609
44459SOL    HW238316  10.077   2.978   5.911 -1.0799  0.1553  1.5990
44460SOL     OW38317   5.245   9.075   0.132  0.3010  1.0522 -0.0367
44460SOL    HW138318   5.336   9.066   0.104  0.5193 -0.9856  1.1062
44460SOL    HW238319   5.247   9.058   0.226 -1.2123  1.3489  0.0688
44461SOL     OW38320   7.002   4.385   7.922  0.1490  0.1985 -0.4166
44461SOL    HW138321   6.967   4.418   8.004  0.0673  0.1293 -0.4240
44461SOL    HW238322   7.097   4.398   7.929  0.3812 -1.6844  0.5455
44462SOL     OW38323   1.446  11.507   1.887  0.3020  1.1799  0.3855
44462SOL    HW138324   1.428  11.482   1.796 -1.2177  0.5796  0.8293
44462SOL    HW238325   1.528  11.461   1.908 -0.6955 -0.8223  0.1258
44463SOL     OW38326   7.892   2.075   2.373 -0.8004 -0.3575  0.5008
44463SOL    HW138327   7.988   2.072   2.374 -0.7865  0.0287  1.1420
44463SOL    HW238328   7.866   2.000   2.320 -0.1595 -0.9019  0.9305
44464SOL     OW38329   4.381  11.357   6.068  0.5856 -0.3182  0.5340
44464SOL    HW138330   4.346  11.403   5.993  2.1831  0.8010  0.4308
44464SOL    HW238331   4.319  11.285   6.083  0.7738 -1.2591 -2.5064
44465SOL     OW38332   8.833   6.714   6.967  0.1761 -0.3495  0.1113
44465SOL    HW138333   8.773   6.647   6.935 -0.6985  0.3209  0.3107
44465SOL    HW238334   8.843   6.775   6.894  0.2313 -0.1938  0.2483
44466SOL     OW38335  11.089  10.071   5.295  0.0107  0.1035  0.1214
44466SOL    HW138336  11.110   9.978   5.305  0.2084 -0.0031 -1.1032
44466SOL    HW238337  11.174  10.113   5.276 -0.2553  0.3231 -0.6302
44467SOL     OW38338   0.646   0.209   3.858  0.0403 -0.1502  0.1378
44467SOL    HW138339   0.618   0.150   3.928 -1.4470  0.4266  0.0707
44467SOL    HW238340   0.580   0.197   3.790 -0.0489  1.2595 -0.0480
44468SOL     OW38341   1.537   6.182   8.253 -0.3774 -0.1357  0.5596
44468SOL    HW138342   1.624   6.213   8.230 -0.9396  1.1201  0.0482
44468SOL    HW238343   1.552   6.120   8.325  1.0345 -0.9811 -0.4123
44469SOL     OW38344   6.722   6.918   0.224 -0.0172 -0.4780  0.1004
44469SOL    HW138345   6.644   6.866   0.204  0.7587 -1.0059 -1.7814
44469SOL    HW238346   6.789   6.853   0.246  0.4783 -0.1973 -0.5292
44470SOL     OW38347   8.884   9.531   1.546  0.6378  0.2836  0.2828
44470SOL    HW138348   8.860   9.561   1.634 -0.6285 -0.8811  0.3594
44470SOL    HW238349   8.905   9.612   1.499 -0.3071  1.0876  1.1768
44471SOL     OW38350   7.239  10.238   7.295  0.6725  0.6175 -0.0256
44471SOL    HW138351   7.222  10.229   7.201  0.2828  0.7054  0.0344
44471SOL    HW238352   7.190  10.166   7.336 -1.3929  2.1284  0.3384
44472SOL     OW38353   4.373   3.214   1.694  0.2944  0.5725 -0.3765
44472SOL    HW138354   4.395   3.138   1.640 -1.3138 -0.1240 -0.1049
44472SOL    HW238355   4.316   3.267   1.638  0.9546  1.3194 -0.3618
44473SOL     OW38356   3.847   1.136   8.138  0.0808  0.2850 -0.6121
44473SOL    HW138357   3.839   1.056   8.086 -0.4557 -0.3593  0.4326
44473SOL    HW238358   3.847   1.207   8.074 -2.4993 -0.3569 -1.4286
44474SOL     OW38359  10.535   3.352   7.910 -0.4245  0.0665 -0.1636
44474SOL    HW138360  10.556   3.289   7.979 -0.0930  0.3041 -0.0463
44474SOL    HW238361  10.443   3.375   7.927 -1.1281 -1.7384 -1.2925
44475SOL     OW38362   9.728   5.147   9.642  0.4092  0.0062  0.4559
44475SOL    HW138363   9.725   5.221   9.581 -1.8323  0.6730  1.2814
44475SOL    HW238364   9.821   5.124   9.647  0.9139  1.3403 -1.4885
44476SOL     OW38365   4.925   3.588   4.111 -0.3366 -0.1184 -0.3172
44476SOL    HW138366   4.933   3.566   4.204  0.8342 -0.7279 -0.5404
44476SOL    HW238367   4.843   3.548   4.083 -0.9239  0.4487  0.5443
44477SOL     OW38368   8.946   5.115   8.612 -0.1376 -0.3386 -0.4817
44477SOL    HW138369   8.987   5.178   8.671  1.8922 -1.9284 -0.0931
44477SOL    HW238370   8.869   5.084   8.660 -0.2824  0.6688 -0.0298
44478SOL     OW38371   4.669   3.691   4.663  0.5142 -0.5565  0.0629
44478SOL    HW138372   4.620   3.771   4.685  2.4522  0.6228  0.3171
44478SOL    HW238373   4.740   3.689   4.727  0.0238 -3.0060  0.6099
44479SOL     OW38374   9.814   3.667   3.654 -0.0986  0.0365  0.4659
44479SOL    HW138375   9.773   3.595   3.606 -0.2223 -0.2180  0.9509
44479SOL    HW238376   9.855   3.625   3.730 -2.4726  0.7740  2.2550
44480SOL     OW38377   7.947  10.008   6.736 -0.1297 -0.2875  0.3335
44480SOL    HW138378   7.934  10.020   6.642 -1.7140  0.5459  0.6181
44480SOL    HW238379   7.873   9.954   6.764  0.0636 -0.1357  1.1699
44481SOL     OW38380   5.901   7.295   3.073  0.5149  0.5111 -0.0187
44481SOL    HW138381   5.885   7.370   3.017  3.8304  1.4975  0.1005
44481SOL    HW238382   5.996   7.279   3.065  0.0159 -3.7381 -0.0976
44482SOL     OW38383   5.511   2.255   4.865 -0.3152  0.4046  0.5289
44482SOL    HW138384   5.431   2.298   4.834  0.1912  0.6492 -0.4827
44482SOL    HW238385   5.491   2.162   4.864 -0.2666  0.3974 -0.7068
44483SOL     OW38386   3.551   3.600   7.057 -0.4099  0.1973 -0.3760
44483SOL    HW138387   3.484   3.665   7.077  1.8828  3.2559 -1.7974
44483SOL    HW238388   3.628   3.630   7.105  1.4930  0.1981 -3.2164
44484SOL     OW38389   1.756   7.213  10.683 -0.3334  0.6490 -1.0433
44484SOL    HW138390   1.795   7.267  10.752  0.6497 -0.2285 -0.8868
44484SOL    HW238391   1.675   7.258  10.661  0.5736  2.3298 -1.1024
44485SOL     OW38392   7.565   4.309   1.488 -0.3563 -0.7600  0.7094
44485SOL    HW138393   7.509   4.379   1.523 -0.2893 -0.0853 -0.4913
44485SOL    HW238394   7.511   4.231   1.491 -0.8265 -0.4277  1.0124
44486SOL     OW38395   8.558   0.386   3.720 -0.5311  0.3088  0.2730
44486SOL    HW138396   8.628   0.445   3.690 -0.8999  1.7217  1.9943
44486SOL    HW238397   8.592   0.348   3.801 -0.4757 -1.6048 -0.5983
44487SOL     OW38398  10.911   1.028  11.232  0.1823  0.5669  0.5447
44487SOL    HW138399  10.984   0.979  11.194  0.0125  1.2032 -0.6251
44487SOL    HW238400  10.953   1.097  11.283  0.3981  0.3566  0.6566
44488SOL     OW38401   7.542   7.887   9.960  0.1954  0.2506 -0.3087
44488SOL    HW138402   7.602   7.821   9.994 -2.0714 -1.1990  1.1434
44488SOL    HW238403   7.462   7.876  10.011 -0.8967  2.9807 -1.2232
44489SOL     OW38404   6.952   7.177   1.121 -0.2038  0.3528  0.1612
44489SOL    HW138405   6.904   7.254   1.152  1.7373  1.6550  0.0593
44489SOL    HW238406   7.016   7.211   1.059  0.5004 -1.3942 -0.1305
44490SOL     OW38407   1.604   4.364   9.565  0.2260  0.6069 -0.2362
44490SOL    HW138408   1.586   4.393   9.655  1.4312 -1.7167  0.8610
44490SOL    HW238409   1.518   4.354   9.525 -0.5757 -1.1618  1.6998
44491SOL     OW38410  10.582   5.612  10.377  0.0636  0.5348  0.1892
44491SOL    HW138411  10.661   5.561  10.357  0.3883 -0.0744  2.7388
44491SOL    HW238412  10.571   5.669  10.301  2.3932 -0.0345 -0.6691
44492SOL     OW38413   1.558   7.816   8.801  0.1432 -0.3424 -0.2664
44492SOL    HW138414   1.610   7.738   8.784 -0.0502 -0.5464  0.0649
44492SOL    HW238415   1.489   7.786   8.860  1.3388  0.5379  1.6767
44493SOL     OW38416   6.615   8.135   8.762  0.4498  0.2524 -0.0582
44493SOL    HW138417   6.641   8.160   8.851  0.0561  1.7478 -0.3293
44493SOL    HW238418   6.694   8.095   8.724  0.2575 -1.5706  1.3406
44494SOL     OW38419   6.129   6.602   9.534 -0.7319  0.1546  0.2824
44494SOL    HW138420   6.169   6.581   9.449 -1.3125  2.0190 -0.4951
44494SOL    HW238421   6.198   6.647   9.583 -0.0612 -1.8184  1.2594
44495SOL     OW38422   6.976   0.572   6.458 -0.1551 -0.0121 -0.6925
44495SOL    HW138423   6.957   0.513   6.531  0.7167  0.5872  0.0365
44495SOL    HW238424   7.027   0.518   6.398  0.9693  0.0859  0.1500
44496SOL     OW38425   0.079   7.726   7.385  0.6080  0.0276  0.5885
44496SOL    HW138426   0.119   7.644   7.414  0.1719 -0.1738  0.6331
44496SOL    HW238427   0.134   7.794   7.423  0.3411 -0.2349  1.4754
44497SOL     OW38428   4.878   0.110   1.232 -0.1455 -0.2471 -0.5065
44497SOL    HW138429   4.971   0.097   1.253 -0.2449 -0.2785 -0.0784
44497SOL    HW238430   4.858   0.039   1.171 -0.5870 -1.9771  1.5328
44498SOL     OW38431   3.483   6.037   5.632  0.4655  0.3696 -0.7174
44498SOL    HW138432   3.436   6.099   5.689  3.4445  0.5851  1.7580
44498SOL    HW238433   3.475   5.953   5.677  2.3711  0.4255 -0.1843
44499SOL     OW38434   1.910   0.824   2.890 -0.0720  0.0330  0.8984
44499SOL    HW138435   1.822   0.858   2.907 -1.4754 -2.5819 -0.3943
44499SOL    HW238436   1.922   0.836   2.795  1.3211  0.9968  1.1618
44500SOL     OW38437   5.751   3.361   5.698 -0.2549  0.1570  0.5409
44500SOL    HW138438   5.817   3.316   5.751  0.7640  2.5278  1.4308
44500SOL    HW238439   5.768   3.332   5.609  0.4169 -1.1022  1.0487
44501SOL     OW38440   8.938  10.887   5.091  0.2279  0.3063  0.0238
44501SOL    HW138441   8.967  10.801   5.121 -1.4254 -0.0699  0.6491
44501SOL    HW238442   8.852  10.871   5.052  0.7401  1.3810 -1.6539
44502SOL     OW38443   6.037   1.791   1.834 -0.4975 -0.0265  0.7283
44502SOL    HW138444   6.114   1.745   1.800  0.5287 -0.7929  3.7964
44502SOL    HW238445   5.995   1.727   1.892 -1.0052  1.7552  2.4112
44503SOL     OW38446  10.655   9.392   4.793  0.3107 -0.0803 -0.1362
44503SOL    HW138447  10.714   9.457   4.831  0.3463  0.1545 -0.5818
44503SOL    HW238448  10.712   9.319   4.770  0.1461 -0.6283  1.1389
44504SOL     OW38449   0.223   7.519   3.451 -0.0011 -0.0307 -0.1905
44504SOL    HW138450   0.299   7.535   3.507  0.2718 -2.0915  0.1005
44504SOL    HW238451   0.258   7.524   3.362  0.5221 -0.9805 -0.0567
44505SOL     OW38452   7.363  10.575  11.458  0.1637 -0.2234 -0.2487
44505SOL    HW138453   7.324  10.578  11.545  2.1992  1.9318  0.6943
44505SOL    HW238454   7.289  10.555  11.400 -1.5787 -0.0339  1.7668
44506SOL     OW38455   1.973   3.501   3.553  0.0041  0.1132  0.3044
44506SOL    HW138456   1.935   3.413   3.558 -2.6858  1.2131  0.9496
44506SOL    HW238457   1.965   3.525   3.460 -0.6780  0.2050  0.3753
44507SOL     OW38458   7.280   3.255   5.161  0.3266  0.2017 -0.0410
44507SOL    HW138459   7.348   3.292   5.104 -0.1688  0.5452 -0.4100
44507SOL    HW238460   7.278   3.314   5.236 -0.0897  0.6212 -0.3805
44508SOL     OW38461   1.417   1.748   8.267 -0.4212  0.5730  0.2628
44508SOL    HW138462   1.493   1.719   8.316 -0.8640 -1.1139 -0.0006
44508SOL    HW238463   1.432   1.718   8.177 -0.7454  1.4915 -0.1237
44509SOL     OW38464   2.030   5.880   0.983 -0.1934  0.0833  0.3175
44509SOL    HW138465   2.050   5.818   1.053  1.9458  0.3828  0.0433
44509SOL    HW238466   2.099   5.867   0.919 -1.8386  0.1350 -1.5818
44510SOL     OW38467  10.788   7.377   6.495  0.3176  0.2037 -0.4214
44510SOL    HW138468  10.875   7.407   6.522  0.7288  2.1162 -3.4328
44510SOL    HW238469  10.729   7.445   6.527  0.1382 -0.1571  0.0287
44511SOL     OW38470   7.975   3.151   3.111  0.0961  0.0821 -0.3602
44511SOL    HW138471   7.894   3.153   3.059  0.3208  1.2814 -0.6750
44511SOL    HW238472   8.017   3.068   3.086  0.1062  0.5479 -1.9645
44512SOL     OW38473   8.141   8.979   4.924  0.1983 -0.4879  0.2593
44512SOL    HW138474   8.183   9.003   5.007  0.2800  0.5645 -0.0711
44512SOL    HW238475   8.189   9.027   4.858 -1.5491  0.8323 -0.1221
44513SOL     OW38476   0.855   1.382   0.716 -0.2005 -0.1416  0.1923
44513SOL    HW138477   0.852   1.387   0.812 -3.0857  1.6027  0.1300
44513SOL    HW238478   0.846   1.288   0.697  1.8181 -0.6733  1.5784
44514SOL     OW38479   8.502  11.681   4.869 -0.6775 -0.2913  0.2763
44514SOL    HW138480   8.593  11.709   4.863 -0.7321  0.0582  0.9627
44514SOL    HW238481   8.478  11.657   4.780  0.3377 -1.1756  0.2242
44515SOL     OW38482   4.513   8.091   3.947 -0.0643 -0.0612  0.0856
44515SOL    HW138483   4.570   8.016   3.934 -1.4889 -1.2127  0.2260
44515SOL    HW238484   4.441   8.078   3.884 -0.1641  1.3794 -0.1498
44516SOL     OW38485  11.559   3.034   5.184 -0.3309  0.3870  0.2915
44516SOL    HW138486  11.615   3.112   5.174  0.5140 -0.2489 -0.0583
44516SOL    HW238487  11.560   2.993   5.097 -0.8068  0.0023  0.4653
44517SOL     OW38488   5.659   0.667   0.817 -0.1491 -0.3089 -0.6935
44517SOL    HW138489   5.723   0.644   0.750 -0.4971  0.3084 -1.2375
44517SOL    HW238490   5.675   0.604   0.888  1.7631  0.5008 -0.3634
44518SOL     OW38491  10.969  10.531   3.701  0.1168  0.0386  0.6487
44518SOL    HW138492  11.020  10.538   3.781  0.2195  0.1837  0.5699
44518SOL    HW238493  10.995  10.606   3.648 -0.5307  0.3855  0.8076
44519SOL     OW38494   7.207   7.910  11.529 -0.5390  0.2336  0.2584
44519SOL    HW138495   7.127   7.858  11.520 -0.4832 -0.0992  1.4641
44519SOL    HW238496   7.182   7.998  11.504 -1.4343  0.2369  1.0863
44520SOL     OW38497  11.021  10.042   2.744 -0.4359 -0.1513 -0.3279
44520SOL    HW138498  11.009   9.998   2.828  0.0698  1.1733  0.4860
44520SOL    HW238499  10.944  10.018   2.692 -0.8189 -0.8887  0.5650
44521SOL     OW38500   9.442   1.684   2.650  0.1779  0.2231 -0.0589
44521SOL    HW138501   9.455   1.694   2.556 -0.8379  0.0161 -0.2262
44521SOL    HW238502   9.350   1.661   2.660  0.3563 -0.1242  0.9602
44522SOL     OW38503   2.198   8.420   8.795 -0.3987 -0.7743 -0.1865
44522SOL    HW138504   2.131   8.419   8.864 -1.4818  0.5216 -1.1686
44522SOL    HW238505   2.266   8.361   8.827 -1.0068 -0.4543  1.8397
44523SOL     OW38506   6.121   1.052   5.110 -0.6922  0.0953 -0.0613
44523SOL    HW138507   6.067   1.026   5.185  0.6550  0.5916  1.1368
44523SOL    HW238508   6.134   1.146   5.120 -2.8873  0.8043 -2.6088
44524SOL     OW38509   0.398  10.512  11.119 -0.6687  0.3137  0.1715
44524SOL    HW138510   0.336  10.460  11.067 -2.7087  0.3749  2.3736
44524SOL    HW238511   0.344  10.580  11.159  0.8776  0.5633  1.9753
44525SOL     OW38512   5.302   9.029   4.966 -0.2948 -0.7734 -0.0308
44525SOL    HW138513   5.274   9.119   4.985 -1.8515 -1.2984  0.3019
44525SOL    HW238514   5.360   9.038   4.890  0.9436  0.6772  1.0414
44526SOL     OW38515   7.701   3.432   1.329  0.4768  0.6189  0.2324
44526SOL    HW138516   7.746   3.513   1.307  1.2128 -0.0705 -0.9175
44526SOL    HW238517   7.700   3.383   1.247  2.1382 -1.5388  1.4075
44527SOL     OW38518  10.571   3.898   3.528 -0.7547 -0.2887  0.2526
44527SOL    HW138519  10.480   3.928   3.523 -0.4595  1.1020  2.0890
44527SOL    HW238520  10.604   3.937   3.609  2.1537  1.1136 -1.4659
44528SOL     OW38521   4.548   7.940   8.592  0.4103 -0.5381  0.0373
44528SOL    HW138522   4.583   7.855   8.617  2.3348  0.4099  0.7977
44528SOL    HW238523   4.513   7.977   8.673  1.4773  0.2097  0.1809
44529SOL     OW38524   0.008   3.270   2.397  0.1884 -0.2630  0.1699
44529SOL    HW138525   0.060   3.333   2.346 -0.2684 -0.3547 -0.4298
44529SOL    HW238526   0.068   3.198   2.415 -0.0506 -0.9771 -1.6473
44530SOL     OW38527   4.306   7.932   5.683 -0.2220  0.6256 -0.1016
44530SOL    HW138528   4.259   7.888   5.754  0.6216  0.3703  0.3176
44530SOL    HW238529   4.306   7.870   5.611 -1.1502  0.9155 -0.3709
44531SOL     OW38530   4.545  10.051   2.386 -0.3612  0.1565  0.1970
44531SOL    HW138531   4.618  10.113   2.396  0.4273 -0.7716  0.3047
44531SOL    HW238532   4.586   9.965   2.387 -1.6995 -0.6087  3.4939
44532SOL     OW38533   6.960   9.976   7.098  0.0849  0.4069 -0.2988
44532SOL    HW138534   6.919   9.894   7.126 -0.4201  0.4697 -0.8372
44532SOL    HW238535   6.898  10.044   7.124 -0.5770  0.4463 -1.8331
44533SOL     OW38536   6.791   4.241   0.225 -0.2383  0.0301 -0.5952
44533SOL    HW138537   6.831   4.325   0.248  0.0557  0.1906 -1.6427
44533SOL    HW238538   6.700   4.263   0.206 -0.8736 -0.3221  1.7093
44534SOL     OW38539   2.893   2.908   2.053 -0.7927  0.1301  0.3800
44534SOL    HW138540   2.971   2.923   2.106 -0.5531 -2.2068  0.7794
44534SOL    HW238541   2.918   2.937   1.965 -0.4431  1.9570  1.0393
44535SOL     OW38542   3.964   3.265   5.471 -0.8074  0.1852 -0.5026
44535SOL    HW138543   4.001   3.189   5.424  1.1402  0.8489 -0.1551
44535SOL    HW238544   3.963   3.238   5.562 -0.0617  0.5505 -0.3714
44536SOL     OW38545  11.396   4.329   8.377 -0.3383  0.1729  0.6235
44536SOL    HW138546  11.475   4.374   8.406  1.1225 -1.1072 -1.0856
44536SOL    HW238547  11.376   4.369   8.292 -0.2679 -0.8980  0.0863
44537SOL     OW38548   2.447   4.848   2.866 -0.1108  0.1518  0.2284
44537SOL    HW138549   2.534   4.856   2.904  0.3963  0.9831 -1.0336
44537SOL    HW238550   2.423   4.756   2.878  1.0764 -0.1618  0.3051
44538SOL     OW38551   8.122   4.851   1.197  0.2621 -0.0798  0.0614
44538SOL    HW138552   8.157   4.841   1.109 -1.6389 -0.0720 -0.7395
44538SOL    HW238553   8.079   4.767   1.215  0.7498 -0.1337  1.0584
44539SOL     OW38554  10.444   6.452   4.596  0.0979  0.1441  0.1620
44539SOL    HW138555  10.463   6.508   4.520 -1.5215 -0.2545 -0.5677
44539SOL    HW238556  10.394   6.508   4.655 -0.9168 -0.2839 -0.2594
44540SOL     OW38557   4.772   4.310  11.655  0.1960 -0.2809  0.0282
44540SOL    HW138558   4.842   4.372  11.634 -0.0149 -0.1744 -0.3720
44540SOL    HW238559   4.817   4.228  11.676  0.4141 -0.3837 -0.8277
44541SOL     OW38560   6.987   7.253   3.025  0.0741  0.1473  0.2669
44541SOL    HW138561   7.032   7.242   3.109  1.1514 -0.4897 -0.3832
44541SOL    HW238562   6.902   7.211   3.039  0.9122 -1.5601  0.5188
44542SOL     OW38563   9.235   1.042   4.143 -0.1992  0.3682 -0.1010
44542SOL    HW138564   9.321   1.015   4.176 -0.3880  0.3530  0.3797
44542SOL    HW238565   9.177   1.038   4.219 -0.5359  0.7786 -0.3297
44543SOL     OW38566   9.155   9.169   0.949  0.2581 -0.0930 -0.2308
44543SOL    HW138567   9.138   9.097   1.010  1.2267  0.1377  0.3327
44543SOL    HW238568   9.069   9.192   0.915 -0.2902 -0.3426  0.9215
44544SOL     OW38569   9.257   8.111  11.400  0.2722 -0.8081  0.4598
44544SOL    HW138570   9.232   8.028  11.359 -1.7542 -0.5292  0.9902
44544SOL    HW238571   9.191   8.124  11.468  0.3631  1.3666  0.1997
44545SOL     OW38572   7.720   4.436   1.666 -0.1169  0.2722 -0.1627
44545SOL    HW138573   7.632   4.421   1.700 -0.3038 -0.8608 -1.0942
44545SOL    HW238574   7.718   4.401   1.577  0.3711  3.1393 -1.3975
44546SOL     OW38575   4.303   3.690   2.827 -0.2608  0.5865 -0.0814
44546SOL    HW138576   4.279   3.649   2.743 -0.1477  2.6532 -1.1775
44546SOL    HW238577   4.221   3.720   2.864 -0.0477  2.3452 -0.9464
44547SOL     OW38578  10.698   4.161   1.742 -0.0346  0.2214  0.0207
44547SOL    HW138579  10.654   4.210   1.672 -2.0010 -2.6669 -0.9682
44547SOL    HW238580  10.761   4.105   1.696  1.0059  0.6050  0.9437
44548SOL     OW38581   0.842  10.592  11.161  0.0365 -0.2382  0.1451
44548SOL    HW138582   0.759  10.587  11.114 -0.3414  0.3332  0.7433
44548SOL    HW238583   0.825  10.550  11.245  0.6996 -1.2144 -0.1906
44549SOL     OW38584  11.580   8.881   2.978 -0.0173 -0.5732  0.1462
44549SOL    HW138585  11.585   8.789   3.003 -1.2250 -0.4524  0.8998
44549SOL    HW238586  11.533   8.923   3.050 -0.4321  0.4397 -0.6944
44550SOL     OW38587   9.230   6.016   9.054 -0.0424  0.3508  0.0884
44550SOL    HW138588   9.246   6.083   8.988 -0.8314 -0.5432 -1.0636
44550SOL    HW238589   9.174   6.059   9.119 -2.6416  0.2213 -1.8833
44551SOL     OW38590  10.815   2.501   7.539 -0.4275 -0.0717 -0.0340
44551SOL    HW138591  10.754   2.570   7.564 -0.2914  0.0439 -0.0159
44551SOL    HW238592  10.886   2.547   7.494 -0.3992 -0.2148 -0.1373
44552SOL     OW38593   1.479   9.592   7.673 -0.3140 -0.0282  0.2831
44552SOL    HW138594   1.575   9.591   7.679 -0.1784  2.2737 -0.6158
44552SOL    HW238595   1.460   9.534   7.598  0.2916 -1.0229  0.8662
44553SOL     OW38596  11.352   2.283   5.424 -0.1050  0.3397  0.0741
44553SOL    HW138597  11.313   2.224   5.488  0.7594  0.2320  0.5152
44553SOL    HW238598  11.444   2.257   5.420  0.3096  1.7078  0.3294
44554SOL     OW38599   9.965   8.650  11.061 -0.2873  0.5901 -0.1703
44554SOL    HW138600   9.972   8.712  11.134 -0.1006 -0.0700  0.3774
44554SOL    HW238601   9.874   8.621  11.063 -0.4413  1.0350 -0.5866
44555SOL     OW38602   9.708  10.847   5.134 -0.0588 -0.1641 -0.6799
44555SOL    HW138603   9.769  10.775   5.117  0.0755 -0.1268 -0.3677
44555SOL    HW238604   9.719  10.865   5.228  0.3140  0.6277 -0.8733
44556SOL     OW38605   2.186   2.714   0.688 -0.3126  0.2362  0.1274
44556SOL    HW138606   2.174   2.804   0.716 -0.1113  0.1434  0.5212
44556SOL    HW238607   2.176   2.662   0.768 -0.8036 -0.1206 -0.1603
44557SOL     OW38608   6.034   0.520  10.814  0.0868  0.3706 -0.2229
44557SOL    HW138609   6.108   0.580  10.822  0.1240  0.1347  1.9492
44557SOL    HW238610   5.957   0.577  10.813  0.2150  0.5405 -0.3742
44558SOL     OW38611   6.272   2.805   9.277  0.2419  0.0917 -0.1112
44558SOL    HW138612   6.351   2.762   9.244 -0.6869 -1.8253  0.0698
44558SOL    HW238613   6.281   2.802   9.373  0.0070 -0.0389 -0.0923
44559SOL     OW38614   4.122   2.461   4.979  0.1661  0.1296 -0.9421
44559SOL    HW138615   4.165   2.538   5.017 -1.3441  1.1415 -1.1405
44559SOL    HW238616   4.192   2.399   4.963  1.2399  0.8276  0.7516
44560SOL     OW38617   0.144   8.087   2.522  0.6372 -0.3219 -0.3295
44560SOL    HW138618   0.188   8.170   2.504  0.9085 -0.8231 -2.1620
44560SOL    HW238619   0.215   8.027   2.545  0.2773  0.4280  3.4782
44561SOL     OW38620  11.153   9.079   8.209 -0.4230 -0.0206 -0.5722
44561SOL    HW138621  11.201   9.033   8.279  0.8165  0.7418 -0.8895
44561SOL    HW238622  11.121   9.009   8.152  1.9490 -0.5577 -1.3879
44562SOL     OW38623   0.182   3.322   6.889  0.1873  0.1117  0.3902
44562SOL    HW138624   0.243   3.283   6.826 -0.5724  0.6804 -0.7396
44562SOL    HW238625   0.230   3.397   6.924 -0.1130  1.0586 -1.1166
44563SOL     OW38626   2.402   7.662   8.134 -0.6038  0.0824  0.3353
44563SOL    HW138627   2.361   7.720   8.070  2.6027 -0.7523 -2.7678
44563SOL    HW238628   2.475   7.714   8.169  1.1694 -1.3100 -1.1097
44564SOL     OW38629   2.656   3.962   1.530  0.2159 -0.0663  0.8354
44564SOL    HW138630   2.580   3.978   1.586 -0.2042  1.1935 -0.0480
44564SOL    HW238631   2.721   3.923   1.588 -0.7672 -0.2916  1.8221
44565SOL     OW38632   9.720  11.151  11.385  0.0241  0.3022  0.0514
44565SOL    HW138633   9.637  11.155  11.338  0.1401  1.5853 -0.0699
44565SOL    HW238634   9.699  11.105  11.467 -0.5237 -0.4949 -0.5271
44566SOL     OW38635   3.620   6.897   1.989  0.4183 -0.1051  0.4914
44566SOL    HW138636   3.579   6.846   1.919 -0.8111 -0.2967  1.3099
44566SOL    HW238637   3.713   6.880   1.980  0.2075 -0.7814 -0.5875
44567SOL     OW38638  10.970   0.697   6.199  0.2218 -0.1044 -0.6416
44567SOL    HW138639  11.049   0.672   6.247 -0.7467  0.6300  1.4788
44567SOL    HW238640  10.906   0.629   6.221 -0.3368  0.4259 -0.5984
44568SOL     OW38641   9.320   2.519   0.440 -0.1739  0.0094  0.5253
44568SOL    HW138642   9.245   2.460   0.441  0.0657 -0.3083 -0.1210
44568SOL    HW238643   9.374   2.489   0.514  0.6345 -1.4943 -0.6227
44569SOL     OW38644   7.292   9.480   2.740 -0.0717 -0.1217 -0.0945
44569SOL    HW138645   7.335   9.427   2.807 -0.1800  1.6633  1.4505
44569SOL    HW238646   7.296   9.570   2.773 -2.2233  0.5194 -1.3642
44570SOL     OW38647   2.314  10.715  10.709  0.4423  0.2118 -0.1142
44570SOL    HW138648   2.234  10.704  10.658  1.6681  1.4807 -2.5101
44570SOL    HW238649   2.384  10.699  10.646  2.1006 -0.3913  1.7888
44571SOL     OW38650   3.000   6.107   1.109  0.2427 -0.3463  0.0308
44571SOL    HW138651   3.052   6.064   1.042  0.5223 -0.4293  0.3019
44571SOL    HW238652   2.924   6.049   1.122  1.2588 -1.4509  1.3306
44572SOL     OW38653   3.234  10.978  11.067  0.4000 -0.0098  0.1056
44572SOL    HW138654   3.267  11.067  11.082  0.4466  0.2158 -1.2781
44572SOL    HW238655   3.172  10.987  10.995  0.3555 -1.1012 -0.0035
44573SOL     OW38656  10.076   8.815   7.904 -0.0223 -0.4535  0.4039
44573SOL    HW138657  10.169   8.836   7.891 -0.6308  1.3086 -1.8090
44573SOL    HW238658  10.049   8.872   7.976  0.5853 -0.9429  1.0346
44574SOL     OW38659   5.988   9.520   2.122 -0.4338 -0.1032  0.2052
44574SOL    HW138660   6.077   9.555   2.134  0.6496 -1.6255 -2.4869
44574SOL    HW238661   5.944   9.538   2.205  2.6048  0.1151  1.9170
44575SOL     OW38662   0.658   4.519   1.898  0.0112 -0.0685  0.1457
44575SOL    HW138663   0.618   4.433   1.893 -1.5270  0.6399 -0.1212
44575SOL    HW238664   0.752   4.501   1.908  0.1299 -1.7678 -2.8631
44576SOL     OW38665   7.203   3.883   4.532  0.1284  0.0256 -0.1313
44576SOL    HW138666   7.153   3.940   4.588  0.6916 -0.0090  0.4175
44576SOL    HW238667   7.157   3.884   4.448 -0.9696 -0.2796  0.4553
44577SOL     OW38668   2.760   1.785   8.092  0.1046 -0.1210  0.7729
44577SOL    HW138669   2.790   1.873   8.071  0.9156 -0.4535  0.4979
44577SOL    HW238670   2.666   1.787   8.076  0.2228  0.5008  0.1210
44578SOL     OW38671   8.683   3.530   1.501 -0.1086  0.0065 -0.1302
44578SOL    HW138672   8.733   3.568   1.429 -0.6900  1.9300  0.4243
44578SOL    HW238673   8.602   3.498   1.460  0.1913 -0.2221 -0.5454
44579SOL     OW38674   8.494   1.577   3.481  0.5708 -0.3370 -0.9108
44579SOL    HW138675   8.503   1.669   3.454  0.8232 -0.2593 -0.5827
44579SOL    HW238676   8.484   1.582   3.576  0.9741 -0.6672 -0.8466
44580SOL     OW38677   4.901   3.011   6.571  0.7368 -0.0564 -0.5271
44580SOL    HW138678   4.932   3.058   6.649 -0.3779 -1.0930  0.5868
44580SOL    HW238679   4.961   2.937   6.563  0.3719 -0.3968 -0.1600
44581SOL     OW38680   7.135  10.529  11.641  0.1921  0.3030 -0.6051
44581SOL    HW138681   7.065  10.501  11.700 -0.4942  1.9440 -0.5841
44581SOL    HW238682   7.125  10.472  11.565 -1.9143  1.2015 -1.0788
44582SOL     OW38683   2.356   4.068   3.547 -0.0464 -0.0667 -0.0893
44582SOL    HW138684   2.416   4.135   3.512  2.6708 -0.6231  3.0175
44582SOL    HW238685   2.344   4.093   3.638 -0.9908 -2.4653  0.5059
44583SOL     OW38686   2.293   4.379  10.897  0.3646 -0.5849 -0.4234
44583SOL    HW138687   2.260   4.339  10.978  1.5614 -2.2130 -0.7067
44583SOL    HW238688   2.217   4.380  10.839 -0.6457  1.0217  0.8042
44584SOL     OW38689   3.813   3.750   2.938  0.3189  0.3551 -0.0894
44584SOL    HW138690   3.788   3.835   2.901 -0.5182  0.2724  0.2576
44584SOL    HW238691   3.734   3.696   2.927  0.9930 -0.5230 -0.7240
44585SOL     OW38692  11.494  11.194   8.732  0.3845 -0.0121 -0.6681
44585SOL    HW138693  11.435  11.119   8.742 -0.3077  0.4714 -1.0019
44585SOL    HW238694  11.513  11.222   8.821  1.9203 -1.5228 -0.4648
44586SOL     OW38695   1.080   3.732   4.754 -0.2187  0.6474 -0.4668
44586SOL    HW138696   1.124   3.647   4.761 -0.6920  0.4023 -0.4052
44586SOL    HW238697   1.057   3.739   4.661 -1.1210  0.2200 -0.2863
44587SOL     OW38698   3.416   2.501   2.387  0.8256 -0.4640 -0.6713
44587SOL    HW138699   3.415   2.477   2.479  0.1841 -0.5640 -0.6981
44587SOL    HW238700   3.478   2.573   2.381 -0.0593  0.3744  0.0557
44588SOL     OW38701   0.181   2.156   1.154 -1.0677 -0.4483 -0.6064
44588SOL    HW138702   0.277   2.147   1.159 -1.1823 -1.2578  0.8364
44588SOL    HW238703   0.155   2.091   1.089 -0.7966 -1.9503  0.7167
44589SOL     OW38704   0.408   2.123   1.381 -0.0216 -0.0162 -0.4794
44589SOL    HW138705   0.496   2.094   1.407  0.1228  2.0023  1.5835
44589SOL    HW238706   0.414   2.134   1.286  1.5779 -1.0643 -0.5389
44590SOL     OW38707  11.155   1.629   1.555  0.5479  0.2453 -0.2230
44590SOL    HW138708  11.210   1.680   1.496  2.4070 -1.3856  0.0022
44590SOL    HW238709  11.075   1.611   1.505  0.7621  1.5027 -1.0568
44591SOL     OW38710  10.625  11.600  11.655 -0.1689 -0.3673  0.5523
44591SOL    HW138711  10.605  11.508  11.640  1.8872 -0.4612 -2.3037
44591SOL    HW238712  10.539  11.642  11.660 -1.1298 -2.2413  0.7168
44592SOL     OW38713   7.219  11.174   0.299 -0.3035  0.2381  0.1153
44592SOL    HW138714   7.213  11.249   0.240 -2.8390  1.3094  1.5822
44592SOL    HW238715   7.138  11.125   0.284  0.7225 -1.5465  0.1072
44593SOL     OW38716   4.424   9.303   5.190  0.0457  0.2092 -0.3453
44593SOL    HW138717   4.337   9.286   5.153  0.2368  0.9002 -1.1502
44593SOL    HW238718   4.425   9.398   5.206  0.4443  0.1159  0.2158
44594SOL     OW38719   8.969   2.267   9.434 -0.1572  0.4006  0.1933
44594SOL    HW138720   8.926   2.187   9.465 -0.5710  0.6356  0.2286
44594SOL    HW238721   8.962   2.263   9.339 -0.3322  0.4792  0.2027
44595SOL     OW38722   6.422   8.974   5.416  0.0804  0.1960  0.4541
44595SOL    HW138723   6.334   8.944   5.435  1.1402 -1.2839  3.7851
44595SOL    HW238724   6.451   8.920   5.342 -1.1760 -0.5286  0.4655
44596SOL     OW38725   4.370  10.234   3.922 -0.0031 -0.5083  0.0233
44596SOL    HW138726   4.393  10.165   3.985 -0.7531  0.8956  1.9496
44596SOL    HW238727   4.280  10.215   3.897 -0.2737 -0.1530  0.7000
44597SOL     OW38728   4.365   5.994   2.422 -0.6418 -0.0350 -0.1138
44597SOL    HW138729   4.305   6.067   2.439 -1.0814 -0.4881  0.2839
44597SOL    HW238730   4.412   6.020   2.343 -0.3521  0.9667  0.3692
44598SOL     OW38731   5.823   4.030   8.105 -0.0988 -0.0467 -0.0220
44598SOL    HW138732   5.792   3.949   8.064  1.0162 -1.4239  1.6783
44598SOL    HW238733   5.829   4.008   8.198 -1.8221  2.6874  0.8388
44599SOL     OW38734   6.043   8.816   0.243 -0.1875 -0.0187 -0.3163
44599SOL    HW138735   6.055   8.880   0.314 -1.0048 -0.3781  0.1639
44599SOL    HW238736   5.965   8.767   0.269  0.3624 -1.1441 -0.7325
44600SOL     OW38737   7.893   6.909   6.206 -0.4333  0.6370 -0.4533
44600SOL    HW138738   7.931   6.914   6.118  0.4917 -0.8004 -0.1590
44600SOL    HW238739   7.835   6.986   6.211  0.9407  1.8036 -1.6187
44601SOL     OW38740   8.926  11.587   2.850  0.3349  0.0975  0.0260
44601SOL    HW138741   8.887  11.673   2.838  1.1333  0.8027  2.0608
44601SOL    HW238742   8.866  11.526   2.806 -0.4139  1.6335 -1.1490
44602SOL     OW38743  10.057   5.903   8.269  0.6402  0.1721 -0.0084
44602SOL    HW138744  10.038   5.995   8.288  3.5622  0.8502  0.0590
44602SOL    HW238745   9.975   5.857   8.291 -0.7644  2.6596  0.3718
44603SOL     OW38746   6.214   4.166   3.725  0.2903  0.2571  0.1704
44603SOL    HW138747   6.186   4.086   3.681  0.8945  1.1603 -1.9431
44603SOL    HW238748   6.146   4.183   3.791 -1.1363 -0.6418 -1.0248
44604SOL     OW38749   5.376   5.076   6.466 -0.0906 -0.4566  0.1541
44604SOL    HW138750   5.435   5.101   6.536 -0.0571 -0.1154  0.0088
44604SOL    HW238751   5.312   5.147   6.462  0.6007  0.1356 -0.9475
44605SOL     OW38752   6.426   1.122   0.743 -0.0468 -0.6720 -0.4492
44605SOL    HW138753   6.474   1.201   0.718  1.3701 -1.8290 -1.4996
44605SOL    HW238754   6.388   1.144   0.829  3.9625 -0.2891  1.4660
44606SOL     OW38755   2.054   6.588  10.876  0.1178 -0.5375  0.2742
44606SOL    HW138756   2.016   6.501  10.866 -0.1484 -0.4620  0.6040
44606SOL    HW238757   2.127   6.590  10.814 -1.3465 -0.1500 -1.5209
44607SOL     OW38758   1.611   4.676   6.836  0.2395  0.0286 -0.3913
44607SOL    HW138759   1.627   4.743   6.903 -0.6906 -0.0087 -0.1241
44607SOL    HW238760   1.674   4.696   6.767 -1.5322  2.6468 -1.4011
44608SOL     OW38761   3.423   4.631  10.688 -0.4116 -0.0607  0.7038
44608SOL    HW138762   3.394   4.717  10.719 -0.8390 -0.5612  1.7379
44608SOL    HW238763   3.428   4.578  10.767 -0.7467 -1.1622  0.0090
44609SOL     OW38764   6.827   9.789   0.358  0.5011  0.0360 -0.5247
44609SOL    HW138765   6.802   9.799   0.450 -0.0057 -0.5215 -0.5915
44609SOL    HW238766   6.744   9.790   0.311  0.5415 -1.9790 -0.7448
44610SOL     OW38767   8.650   0.591  10.063 -0.1267  0.1823 -0.3967
44610SOL    HW138768   8.558   0.620  10.063 -0.6865 -1.2987  2.2388
44610SOL    HW238769   8.686   0.625  10.145  1.5970  0.3449 -1.1732
44611SOL     OW38770   2.686   1.782   7.268  0.4536  0.0986 -0.0087
44611SOL    HW138771   2.782   1.780   7.267  0.6105  3.1784 -1.2560
44611SOL    HW238772   2.662   1.714   7.332  3.4242 -0.6641  0.4855
44612SOL     OW38773   2.221   9.377   4.846  0.5385 -0.2864 -0.8862
44612SOL    HW138774   2.255   9.288   4.843  1.0545 -0.0668 -1.9509
44612SOL    HW238775   2.254   9.418   4.766  0.3518  0.8737 -0.3859
44613SOL     OW38776   2.412   3.762   6.061  0.0970  0.3339 -0.3938
44613SOL    HW138777   2.354   3.692   6.089  1.3371 -1.7654 -2.5961
44613SOL    HW238778   2.477   3.770   6.131  0.2601 -1.1876 -0.3414
44614SOL     OW38779   5.472   4.661   7.773  0.2305 -0.0400 -0.1826
44614SOL    HW138780   5.394   4.665   7.828 -0.4197  0.2031 -1.1070
44614SOL    HW238781   5.533   4.606   7.822 -0.1776  0.5102  0.9713
44615SOL     OW38782   8.078   0.760   1.311 -0.2885 -0.2108 -0.1638
44615SOL    HW138783   8.113   0.678   1.345 -3.5513 -1.6530  0.0592
44615SOL    HW238784   8.055   0.811   1.389  1.3624  0.8460 -0.3061
44616SOL     OW38785   7.961   2.741   4.010 -0.4275  0.1911 -0.0023
44616SOL    HW138786   7.875   2.702   4.028 -0.4388 -0.4547 -1.3354
44616SOL    HW238787   8.022   2.668   4.016  0.1416  0.7642  1.5633
44617SOL     OW38788   6.297   4.451   7.588  0.1481  0.0449 -0.4638
44617SOL    HW138789   6.220   4.402   7.558  0.8225 -2.2044  1.1599
44617SOL    HW238790   6.342   4.390   7.646  3.0188  1.3905 -1.1234
44618SOL     OW38791   6.253   8.656   0.228 -0.1120 -0.2685  0.2203
44618SOL    HW138792   6.316   8.698   0.286  1.1726 -0.6805 -0.8312
44618SOL    HW238793   6.183   8.720   0.216 -0.4231 -0.1813  2.2036
44619SOL     OW38794   1.635   1.543   1.264 -0.2891  0.0264  0.1514
44619SOL    HW138795   1.673   1.549   1.176  0.9684  0.8058  0.7262
44619SOL    HW238796   1.582   1.622   1.272 -1.1967 -0.5250 -0.2467
44620SOL     OW38797   5.444  10.216   2.097 -0.4195  0.1376 -0.1695
44620SOL    HW138798   5.381  10.289   2.103 -2.2842 -1.3363 -0.8370
44620SOL    HW238799   5.478  10.207   2.186 -0.5848  1.4243  0.0545
44621SOL     OW38800   8.958   4.693   2.740  0.1912  0.3406 -0.4692
44621SOL    HW138801   8.897   4.628   2.774  0.9022 -0.0174  0.1455
44621SOL    HW238802   8.954   4.684   2.645 -0.2113 -0.1395 -0.4040
44622SOL     OW38803   7.851   5.034   0.750  0.7038 -0.0778  0.4444
44622SOL    HW138804   7.879   5.068   0.665  2.6426  0.7414  1.3534
44622SOL    HW238805   7.851   5.111   0.807 -0.7204 -0.5898  1.1867
44623SOL     OW38806   2.471  10.737   8.664  0.9132  0.6189  0.2107
44623SOL    HW138807   2.445  10.652   8.700 -2.2094  1.8790  1.2435
44623SOL    HW238808   2.522  10.715   8.586  0.9833 -2.1769  0.9392
44624SOL     OW38809  10.218   5.499   2.185  0.0943  0.0533  0.0371
44624SOL    HW138810  10.209   5.590   2.156  0.5167 -0.2308 -1.0427
44624SOL    HW238811  10.279   5.502   2.259 -0.5148  0.7300  0.5226
44625SOL     OW38812   2.695   1.038   7.221  1.1987 -0.0454 -0.3039
44625SOL    HW138813   2.631   1.061   7.154 -0.0696  1.0103  1.1989
44625SOL    HW238814   2.686   0.943   7.232 -0.9005  0.2123  0.5969
44626SOL     OW38815   6.852   0.368   9.519  0.3911 -0.1793 -0.2399
44626SOL    HW138816   6.830   0.446   9.468  1.0400 -1.2811 -2.3362
44626SOL    HW238817   6.947   0.370   9.527  0.5253 -1.2643 -1.2641
44627SOL     OW38818   7.874   6.797   9.027 -0.4799 -0.0770 -0.5404
44627SOL    HW138819   7.781   6.788   9.007 -0.6199  1.1708 -0.5304
44627SOL    HW238820   7.911   6.846   8.953  0.3832 -1.3943 -1.0243
44628SOL     OW38821   8.627   8.961   9.338 -0.0832 -0.1034  0.1991
44628SOL    HW138822   8.703   9.008   9.304 -0.0729  0.2895  0.7440
44628SOL    HW238823   8.656   8.928   9.423 -1.1224  1.7594  1.3406
44629SOL     OW38824   4.944   9.076   8.643  0.1925 -0.2798  0.1233
44629SOL    HW138825   4.902   9.161   8.655 -0.2113 -0.2919 -1.0206
44629SOL    HW238826   4.931   9.030   8.725 -2.7008 -0.5506 -0.3951
44630SOL     OW38827   7.207  10.877   1.694  0.2901  0.8107 -0.6633
44630SOL    HW138828   7.161  10.959   1.676  1.5215  1.5860 -0.4353
44630SOL    HW238829   7.299  10.898   1.679  0.8055 -0.0552  1.0346
44631SOL     OW38830   6.828   8.841  11.553  0.5135 -0.5129 -0.4219
44631SOL    HW138831   6.802   8.847  11.462  0.0895  0.7455 -0.2393
44631SOL    HW238832   6.860   8.929  11.575 -0.0700 -0.5848  0.8254
44632SOL     OW38833   3.962   4.556   3.545 -0.0509  0.3077  0.0967
44632SOL    HW138834   3.903   4.507   3.603 -1.4965  2.3014  0.3920
44632SOL    HW238835   3.910   4.575   3.467 -0.2676  3.0623  0.8149
44633SOL     OW38836   0.856  11.202   3.672 -0.2731 -0.4360 -0.1973
44633SOL    HW138837   0.834  11.114   3.643 -0.5765  0.4794 -2.9863
44633SOL    HW238838   0.951  11.209   3.656 -0.1688 -0.3802  0.4228
44634SOL     OW38839   9.265   4.114   8.149 -0.1840 -0.4390  0.1987
44634SOL    HW138840   9.316   4.098   8.228  0.4886 -0.4075 -0.2213
44634SOL    HW238841   9.263   4.029   8.104 -1.5989 -0.7709  0.8265
44635SOL     OW38842   7.593   1.350   3.441 -0.3643 -0.0463  0.2195
44635SOL    HW138843   7.616   1.425   3.387 -1.6671  0.3609  0.1906
44635SOL    HW238844   7.645   1.277   3.406 -0.3588  0.4590 -0.8480
44636SOL     OW38845  10.272   0.742   3.706  0.0984 -0.2548  0.1028
44636SOL    HW138846  10.318   0.712   3.785  2.3567  0.9238 -0.6893
44636SOL    HW238847  10.241   0.829   3.728  0.6359  0.0313 -0.2445
44637SOL     OW38848  10.018   5.258   8.751  0.2663  0.6860  0.4563
44637SOL    HW138849   9.969   5.331   8.790 -1.7003 -0.5319  0.3907
44637SOL    HW238850  10.027   5.282   8.659 -0.8279  0.6342  0.3240
44638SOL     OW38851   9.305   3.603   6.407  0.2363  0.1246 -0.6063
44638SOL    HW138852   9.366   3.535   6.377  0.0603  0.1552 -1.0473
44638SOL    HW238853   9.293   3.659   6.330 -0.3278  0.1315 -0.5158
44639SOL     OW38854   6.050   5.435   7.173  0.3716 -0.3138  0.0771
44639SOL    HW138855   5.975   5.405   7.123  0.9104 -2.1400  0.2792
44639SOL    HW238856   6.018   5.442   7.263 -0.0131  0.7687 -0.1263
44640SOL     OW38857   5.268   4.598   7.944  0.0830  0.1926  0.1775
44640SOL    HW138858   5.220   4.680   7.960  0.3104  0.4365 -0.3741
44640SOL    HW238859   5.203   4.540   7.904 -0.3055 -0.1891  1.3423
44641SOL     OW38860  10.665   3.146   0.044 -0.4147  0.1821 -0.1323
44641SOL    HW138861  10.757   3.123   0.037 -0.5105 -2.2140  3.4937
44641SOL    HW238862  10.656   3.184   0.132 -2.9097 -0.1605 -0.1449
44642SOL     OW38863   9.593   2.823   4.812 -0.0164 -0.7053 -0.0225
44642SOL    HW138864   9.507   2.812   4.853 -0.4925 -1.0017 -1.0478
44642SOL    HW238865   9.598   2.752   4.747  1.3274 -1.1469  0.5309
44643SOL     OW38866   1.881  11.443   1.551 -0.1691  0.1739  0.3014
44643SOL    HW138867   1.868  11.537   1.563 -1.0634  0.1409 -0.3739
44643SOL    HW238868   1.915  11.412   1.636  2.9930  1.5763 -0.2854
44644SOL     OW38869   2.195   3.685  10.495  0.0281  0.2380  0.1285
44644SOL    HW138870   2.237   3.600  10.480 -2.8076 -1.2586  0.0031
44644SOL    HW238871   2.130   3.692  10.425 -2.7654  0.4140  2.5623
44645SOL     OW38872   3.552   6.589   6.058 -0.1746  0.2251  0.6325
44645SOL    HW138873   3.546   6.606   5.964 -0.8505  1.8840  0.9352
44645SOL    HW238874   3.604   6.661   6.093 -2.2918  1.2865  1.8673
44646SOL     OW38875   1.750   8.918   5.593 -0.1606 -0.1189 -0.2491
44646SOL    HW138876   1.767   8.904   5.500 -3.4787 -0.9103 -0.8662
44646SOL    HW238877   1.740   9.013   5.602  1.0636  0.0462 -0.4744
44647SOL     OW38878   6.555   2.161  11.454  0.2090  0.9345  0.0380
44647SOL    HW138879   6.462   2.180  11.459 -0.0551  0.4864 -2.1581
44647SOL    HW238880   6.597   2.245  11.436  0.1383  1.0084  0.2230
44648SOL     OW38881   5.654   3.580  10.653  0.5453  0.2254  0.3069
44648SOL    HW138882   5.649   3.675  10.663  1.2778  0.2283  0.7239
44648SOL    HW238883   5.608   3.545  10.728  0.6331  0.2493  0.3723
44649SOL     OW38884   1.267  11.684   6.122  0.6427 -0.5486 -0.5027
44649SOL    HW138885   1.298  11.748   6.186 -0.7232 -3.2311  3.2150
44649SOL    HW238886   1.180  11.715   6.097 -0.0780 -0.8876  1.3993
44650SOL     OW38887   3.527   9.924   7.440  0.6836  0.0531  0.3014
44650SOL    HW138888   3.552   9.835   7.465  0.5354 -0.0482  0.0806
44650SOL    HW238889   3.450   9.944   7.494 -0.5073 -0.6883 -1.0825
44651SOL     OW38890   2.741   5.269   0.259 -0.0966  0.2520 -0.5950
44651SOL    HW138891   2.704   5.181   0.252 -0.5708  0.4708 -0.8832
44651SOL    HW238892   2.712   5.313   0.179  0.3235  0.6024 -0.5563
44652SOL     OW38893   4.878   5.048   1.393  0.1504 -1.0521 -0.2371
44652SOL    HW138894   4.875   5.107   1.468  0.2092 -0.5334 -0.6386
44652SOL    HW238895   4.833   4.969   1.423 -0.9919 -0.3562 -0.0857
44653SOL     OW38896   6.904   6.404   7.561 -0.1753 -0.1914 -0.2218
44653SOL    HW138897   6.942   6.434   7.643 -1.6469 -2.2582  1.3103
44653SOL    HW238898   6.971   6.421   7.495  0.7042  2.3827  1.1798
44654SOL     OW38899  11.120   9.311   4.302  0.0741 -0.6117 -0.2547
44654SOL    HW138900  11.102   9.309   4.208  0.0717 -0.9461 -0.2488
44654SOL    HW238901  11.076   9.390   4.333  0.5720 -0.1799 -0.6371
44655SOL     OW38902   6.173   8.720   3.224 -0.3495  0.1058 -0.1778
44655SOL    HW138903   6.116   8.749   3.153 -0.8457  1.0401  0.5967
44655SOL    HW238904   6.125   8.740   3.304  0.3783 -0.5777  0.4480
44656SOL     OW38905   9.566   6.609   5.385  0.3101 -0.0999  0.0957
44656SOL    HW138906   9.519   6.553   5.323 -0.8004  3.6222 -2.7972
44656SOL    HW238907   9.503   6.628   5.454 -1.9933  3.0363 -2.5955
44657SOL     OW38908   6.041   4.570   1.478 -0.2796 -0.0611 -0.3193
44657SOL    HW138909   6.045   4.495   1.420  0.3324  0.6749 -1.2503
44657SOL    HW238910   6.057   4.646   1.421 -2.0712  0.8914  0.3591
44658SOL     OW38911   8.682   7.322   4.313  0.0447  0.1669 -0.3335
44658SOL    HW138912   8.678   7.330   4.218 -3.4904 -2.2934 -0.6202
44658SOL    HW238913   8.609   7.375   4.344  0.1512 -0.3422  0.8364
44659SOL     OW38914   7.050   2.556   1.686  0.3380 -0.1651  0.0621
44659SOL    HW138915   7.027   2.482   1.741 -0.6559 -0.2195 -0.4033
44659SOL    HW238916   6.966   2.594   1.660  0.7871  0.0959 -1.0793
44660SOL     OW38917   7.889  10.697   9.875  0.3523  0.0065  0.2523
44660SOL    HW138918   7.877  10.771   9.933 -0.7998 -0.4732  0.6579
44660SOL    HW238919   7.858  10.728   9.789  1.0070  0.3651  0.1449
44661SOL     OW38920   4.453   8.234   5.552  0.1729 -0.2198 -0.1160
44661SOL    HW138921   4.427   8.222   5.643  1.1224 -0.0988  0.1792
44661SOL    HW238922   4.515   8.307   5.553  0.8326 -0.7499 -0.7337
44662SOL     OW38923   8.359   5.730  10.753 -0.0364 -0.0423  0.1544
44662SOL    HW138924   8.348   5.649  10.802  0.5831 -0.4024 -0.2843
44662SOL    HW238925   8.435   5.773  10.793  0.9336 -0.6868 -0.9058
44663SOL     OW38926   7.936   4.125   5.853  0.5322  0.2551 -0.1852
44663SOL    HW138927   8.005   4.160   5.910  0.5158  0.4085 -0.2604
44663SOL    HW238928   7.955   4.031   5.849  1.5290  0.4807 -1.2689
44664SOL     OW38929   0.648   6.158   5.032 -0.1532  0.6545 -0.2947
44664SOL    HW138930   0.556   6.183   5.026  0.0163  1.1145 -1.0958
44664SOL    HW238931   0.694   6.239   5.053  0.0928  0.4576 -0.0639
44665SOL     OW38932  10.814   0.323   3.954 -0.3224  0.0666  0.1506
44665SOL    HW138933  10.761   0.399   3.930  1.7852  0.9424 -2.0344
44665SOL    HW238934  10.805   0.263   3.880 -1.2317 -1.5007  1.4500
44666SOL     OW38935   5.247   7.805   6.295 -0.3088  0.2596 -0.4465
44666SOL    HW138936   5.250   7.830   6.388 -0.9907 -0.9626 -0.0745
44666SOL    HW238937   5.273   7.884   6.248  0.6317  0.7257  0.8079
44667SOL     OW38938   6.682   4.214   9.933 -0.6348  0.0301  0.4176
44667SOL    HW138939   6.709   4.289   9.880 -2.1652  0.4894  0.2332
44667SOL    HW238940   6.660   4.252  10.018 -0.9657 -0.2690  0.4670
44668SOL     OW38941   6.585   2.567   8.657  0.0907 -0.3767 -0.6575
44668SOL    HW138942   6.629   2.486   8.682  1.4031  0.4681 -0.0974
44668SOL    HW238943   6.510   2.573   8.715 -0.2369 -1.3691 -0.9640
44669SOL     OW38944   4.786   2.225   3.124  0.1548  0.1382  0.1847
44669SOL    HW138945   4.799   2.320   3.133 -0.5462  0.3684 -0.9997
44669SOL    HW238946   4.697   2.210   3.155  0.5389 -0.2737  1.1270
44670SOL     OW38947   0.211   8.536   5.755  0.0785 -0.3577  0.3250
44670SOL    HW138948   0.183   8.539   5.846  0.3552  1.9215  0.3887
44670SOL    HW238949   0.306   8.549   5.759 -0.0608  1.1021 -0.3001
44671SOL     OW38950   1.498   9.331   1.349  0.8095  0.3718  0.0564
44671SOL    HW138951   1.533   9.271   1.415 -1.1549  0.3202  1.1452
44671SOL    HW238952   1.481   9.276   1.273  2.1351  0.2268 -0.1552
44672SOL     OW38953   6.062   4.173   2.796 -0.2445 -0.1237  0.0388
44672SOL    HW138954   6.051   4.154   2.889 -0.9398 -0.2165 -0.0594
44672SOL    HW238955   6.156   4.191   2.786 -0.4043  1.4555  1.0424
44673SOL     OW38956   6.937   6.128   6.975 -0.3735 -0.0271 -0.4688
44673SOL    HW138957   6.994   6.055   6.951  0.6314  0.1628  1.2262
44673SOL    HW238958   6.906   6.107   7.063 -1.6656  0.6616 -0.7228
44674SOL     OW38959   9.355   8.043   1.068 -0.7993  0.1991  0.0781
44674SOL    HW138960   9.385   8.077   0.984 -0.2331 -0.7697 -0.1205
44674SOL    HW238961   9.407   7.964   1.083 -0.1390  0.8927  1.8252
44675SOL     OW38962   4.115   2.767   3.898 -0.4926 -0.4536 -0.5009
44675SOL    HW138963   4.205   2.786   3.872 -0.7633  1.0278 -0.4434
44675SOL    HW238964   4.123   2.708   3.973  0.5035  1.1254  0.6944
44676SOL     OW38965   5.932   7.425   8.618 -0.0974  0.1164  0.0812
44676SOL    HW138966   5.949   7.510   8.659  0.4675  0.2339 -0.3861
44676SOL    HW238967   6.019   7.387   8.605 -0.3732 -1.1207  1.4839
44677SOL     OW38968   6.464   9.268   1.415 -0.0141  0.3516 -0.0059
44677SOL    HW138969   6.373   9.270   1.385 -0.0352 -0.0236  0.0216
44677SOL    HW238970   6.468   9.191   1.472  0.7092 -0.5748 -1.2703
44678SOL     OW38971   9.212   6.232  10.270 -0.1691 -0.2201  0.1238
44678SOL    HW138972   9.174   6.254  10.184  0.1386 -1.2349 -0.2845
44678SOL    HW238973   9.155   6.164  10.304 -0.1800  0.0517  0.6517
44679SOL     OW38974   3.584   7.860   3.312 -0.6211 -0.3283 -0.0888
44679SOL    HW138975   3.518   7.793   3.331 -2.7825  0.5809 -3.5266
44679SOL    HW238976   3.534   7.941   3.306  1.3368  0.9422  0.1035
44680SOL     OW38977  10.899   8.191   3.579 -0.3790  0.8825 -0.4234
44680SOL    HW138978  10.828   8.254   3.566  0.0604  1.0890 -2.0203
44680SOL    HW238979  10.866   8.110   3.540  0.1017  0.8671 -0.7965
44681SOL     OW38980   3.140  11.546   2.191  0.1790  0.2658 -0.1203
44681SOL    HW138981   3.163  11.496   2.269  2.5991  1.7880  0.2643
44681SOL    HW238982   3.078  11.612   2.223  0.6955  0.5055  0.4238
44682SOL     OW38983   1.431   8.986   9.052  0.0519  0.2881 -0.7251
44682SOL    HW138984   1.399   9.057   9.107 -0.4489 -1.6106  1.5853
44682SOL    HW238985   1.514   8.959   9.092 -0.3625 -1.2092 -0.8096
44683SOL     OW38986   7.852   0.155   1.570 -0.0542 -0.3290 -0.0905
44683SOL    HW138987   7.907   0.230   1.548 -1.7360  1.0966  0.3481
44683SOL    HW238988   7.767   0.193   1.592 -1.6276 -2.5237 -1.9175
44684SOL     OW38989  11.103   4.455   9.170 -0.0539 -0.0740  0.1469
44684SOL    HW138990  11.135   4.531   9.219  1.7382 -0.7463  0.1032
44684SOL    HW238991  11.008   4.465   9.169 -0.1071  0.4712  2.9412
44685SOL     OW38992   5.748   4.345   3.141  0.6216  0.2710  0.3585
44685SOL    HW138993   5.786   4.258   3.152  1.5640  0.6382  0.0580
44685SOL    HW238994   5.692   4.356   3.217  1.1500 -0.2665  0.8353
44686SOL     OW38995   4.932   4.039   6.267  0.3494 -0.4838  0.4703
44686SOL    HW138996   4.987   3.990   6.205  0.6046  0.1523  0.1886
44686SOL    HW238997   4.975   4.124   6.276  1.0684 -0.9995  2.5427
44687SOL     OW38998   7.387  10.165   3.383 -0.0413  0.2562 -0.2962
44687SOL    HW138999   7.410  10.188   3.473 -0.3077 -0.3109 -0.0779
44687SOL    HW239000   7.296  10.192   3.374  0.5237  2.0212 -0.9948
44688SOL     OW39001  11.323   3.132   0.603 -0.3719 -0.3608  0.4060
44688SOL    HW139002  11.336   3.089   0.688 -1.6137 -2.3809 -0.3651
44688SOL    HW239003  11.232   3.113   0.580 -0.3888  1.0928 -0.8964
44689SOL     OW39004   0.027   4.358   2.240  0.2756 -0.3024 -0.0940
44689SOL    HW139005   0.019   4.361   2.145 -0.3190  0.5573 -0.0278
44689SOL    HW239006  -0.051   4.404   2.272  0.2097 -1.0080  0.8197
44690SOL     OW39007   6.762   0.177   9.246  0.0808  0.5509  0.1852
44690SOL    HW139008   6.692   0.225   9.201  2.5036  2.0884 -2.3155
44690SOL    HW239009   6.788   0.234   9.318 -0.8995  0.1824  0.8447
44691SOL     OW39010   6.517   1.232   9.122 -0.1070 -0.3432 -0.0030
44691SOL    HW139011   6.561   1.151   9.099 -0.1889 -1.2201  2.5959
44691SOL    HW239012   6.424   1.209   9.128  0.0709 -0.6952  2.7687
44692SOL     OW39013   3.029   2.560   6.630 -0.2604 -0.4493  0.0673
44692SOL    HW139014   2.994   2.642   6.666 -0.5203 -1.4439  2.2163
44692SOL    HW239015   3.121   2.580   6.611  0.5389 -0.3848  3.4161
44693SOL     OW39016   7.066   4.091   5.133  0.1458  0.3637  0.2694
44693SOL    HW139017   7.037   4.164   5.188 -1.3956 -0.2293  0.2652
44693SOL    HW239018   7.053   4.013   5.187  0.8170 -0.0199 -0.1040
44694SOL     OW39019   1.238   9.755   5.722  0.9161  0.1848 -0.0559
44694SOL    HW139020   1.313   9.704   5.752  0.2082 -0.6405  0.3740
44694SOL    HW239021   1.259   9.845   5.746  2.0294  0.0510 -0.4863
44695SOL     OW39022   3.691  10.609   9.109 -0.9377 -0.7661  0.0047
44695SOL    HW139023   3.631  10.536   9.121  0.8701 -2.0117  2.3008
44695SOL    HW239024   3.649  10.683   9.153 -1.9221 -0.9041 -0.6749
44696SOL     OW39025   8.540  11.632   3.237 -0.0625  0.3267  0.0144
44696SOL    HW139026   8.580  11.662   3.155 -0.2125  0.0897 -0.1484
44696SOL    HW239027   8.462  11.586   3.209  1.9028 -3.3033 -0.0230
44697SOL     OW39028   3.626  10.457   3.277 -0.1434 -0.3007 -0.0846
44697SOL    HW139029   3.583  10.531   3.321  0.6332  0.2485 -0.2334
44697SOL    HW239030   3.561  10.387   3.279 -1.0017  0.4803 -0.2039
44698SOL     OW39031   0.823   4.950   7.645  0.0790  0.3508  0.2570
44698SOL    HW139032   0.843   4.866   7.687 -0.8620  0.3392  0.7163
44698SOL    HW239033   0.870   5.015   7.696  0.3893  0.1573  0.2197
44699SOL     OW39034   7.984   9.355  10.668 -0.1140  0.2118 -0.2217
44699SOL    HW139035   7.951   9.339  10.756 -0.0472 -0.2916 -0.2813
44699SOL    HW239036   7.969   9.448  10.653  0.9704  0.5860  0.7922
44700SOL     OW39037   3.609   9.547   1.482  0.5654  0.1643  0.6729
44700SOL    HW139038   3.597   9.605   1.557  2.1360  1.2796  0.1334
44700SOL    HW239039   3.527   9.500   1.474  0.3025  0.1287  2.9817
44701SOL     OW39040  10.872   5.808   2.864  0.6012  0.0788  0.0714
44701SOL    HW139041  10.812   5.807   2.938 -1.0378  1.3064 -1.1735
44701SOL    HW239042  10.957   5.783   2.901 -0.4798 -0.8881  2.0380
44702SOL     OW39043  10.274   1.997   1.143 -0.0093 -0.5624 -0.1031
44702SOL    HW139044  10.210   2.002   1.072 -0.0408 -0.3575 -0.0622
44702SOL    HW239045  10.227   2.030   1.219  0.6092  1.0915 -0.3977
44703SOL     OW39046   8.068   6.435   7.268 -0.0707 -0.2627  0.7514
44703SOL    HW139047   8.126   6.510   7.260  0.0775 -0.1765  2.3110
44703SOL    HW239048   8.112   6.376   7.329 -0.4697 -1.3597  0.0352
44704SOL     OW39049   7.617   9.529   1.227  0.2886  0.1554  0.1150
44704SOL    HW139050   7.561   9.589   1.178 -2.3228 -1.5486  0.8001
44704SOL    HW239051   7.650   9.468   1.161  1.0123  0.8746 -0.2152
44705SOL     OW39052   6.193   6.341   5.432 -0.1978 -0.4694  0.0113
44705SOL    HW139053   6.193   6.437   5.441 -1.1988 -0.2856 -1.5290
44705SOL    HW239054   6.278   6.321   5.394  0.2430 -0.2722  0.8612
44706SOL     OW39055   3.293   7.381  10.667  0.6748  0.3471 -0.0339
44706SOL    HW139056   3.287   7.315  10.598 -1.3922  1.0305 -0.5773
44706SOL    HW239057   3.313   7.463  10.621 -1.6202  0.9823 -0.0056
44707SOL     OW39058   7.812   8.533   3.410  0.3121  0.3413 -0.0136
44707SOL    HW139059   7.786   8.623   3.394  2.1794  0.6573 -1.6634
44707SOL    HW239060   7.772   8.483   3.338 -0.3965 -0.1187  0.6758
44708SOL     OW39061   1.848   4.778   8.030  0.1857  0.3267  0.7084
44708SOL    HW139062   1.825   4.848   8.091 -0.2943 -0.9480  2.0466
44708SOL    HW239063   1.804   4.700   8.065  0.0279 -0.4920 -1.1867
44709SOL     OW39064   8.381   7.083   8.719  0.3823 -0.3353 -0.5708
44709SOL    HW139065   8.363   7.155   8.658 -0.1222 -0.9176 -1.1195
44709SOL    HW239066   8.400   7.008   8.663  0.4076 -0.7601 -0.0042
44710SOL     OW39067   7.871   7.293   2.759 -0.4260  0.6259 -0.6961
44710SOL    HW139068   7.926   7.279   2.836  0.1794 -0.1809 -1.2568
44710SOL    HW239069   7.829   7.208   2.744  0.3092  0.4500 -1.8894
44711SOL     OW39070  10.195   8.507   0.008 -0.0013  0.0198  0.1691
44711SOL    HW139071  10.169   8.576   0.070 -1.2843 -0.5504  0.3015
44711SOL    HW239072  10.113   8.463  -0.014  0.6189 -0.6158 -0.9519
44712SOL     OW39073   4.658   8.325   5.317  0.3277 -0.1835 -0.0186
44712SOL    HW139074   4.572   8.332   5.275  0.7068 -0.7280 -0.8983
44712SOL    HW239075   4.721   8.327   5.245  1.1666  1.6357  0.7001
44713SOL     OW39076   1.158   7.778   0.797 -0.2078  0.1734  0.3443
44713SOL    HW139077   1.243   7.782   0.841  0.6848  1.0659 -1.3849
44713SOL    HW239078   1.098   7.820   0.858  1.0083  1.4667  0.7151
44714SOL     OW39079   5.225   6.819   3.286  0.5801 -0.3065 -0.5202
44714SOL    HW139080   5.275   6.788   3.211 -0.8480 -1.6859 -0.9683
44714SOL    HW239081   5.146   6.764   3.286 -0.1099  0.6160  1.1585
44715SOL     OW39082   5.343   5.125   5.346  0.4823 -0.0940 -0.4605
44715SOL    HW139083   5.435   5.126   5.370 -0.1264 -1.5331  2.2977
44715SOL    HW239084   5.329   5.041   5.302  0.6703  0.6133 -1.9293
44716SOL     OW39085  10.125   9.036   0.010  0.3790 -0.3977  0.3190
44716SOL    HW139086  10.068   8.960  -0.003 -1.3930  0.8749  0.1338
44716SOL    HW239087  10.195   9.025  -0.055 -0.7363 -1.0942 -0.8244
44717SOL     OW39088   0.358   4.218   4.909  0.1064  0.0993  0.1384
44717SOL    HW139089   0.341   4.186   4.998 -2.0317 -1.5785 -0.7966
44717SOL    HW239090   0.324   4.308   4.909 -1.9732 -0.6357  0.4605
44718SOL     OW39091   9.573   6.529  10.457  0.3957  0.2625  0.1281
44718SOL    HW139092   9.623   6.498  10.382 -0.0365 -2.1503  0.7451
44718SOL    HW239093   9.499   6.469  10.463  1.2677 -0.7110  3.3771
44719SOL     OW39094   4.282   3.126   9.649 -0.0235  0.5535 -0.0424
44719SOL    HW139095   4.356   3.072   9.678 -1.9441 -1.5889  1.1382
44719SOL    HW239096   4.269   3.189   9.720  0.9317  1.2897 -0.4900
44720SOL     OW39097   3.347  10.158   4.013  0.1539  0.5381 -0.1778
44720SOL    HW139098   3.355  10.100   4.089 -1.4393  1.9023  1.1210
44720SOL    HW239099   3.283  10.224   4.040 -0.6198  0.9803 -2.7894
44721SOL     OW39100   1.738   9.077   0.347 -0.0661 -0.2183  0.0672
44721SOL    HW139101   1.817   9.083   0.293  1.8522 -3.0500  2.2193
44721SOL    HW239102   1.729   9.164   0.387  1.2812  0.4985 -1.0946
44722SOL     OW39103   5.234   4.669   3.091 -0.1813  0.4203  0.2941
44722SOL    HW139104   5.202   4.670   3.182  0.5825  0.4350  0.5721
44722SOL    HW239105   5.156   4.657   3.038 -0.7238  1.1310  0.9172
44723SOL     OW39106   9.521   1.662   5.699 -0.3669 -0.0587 -0.3531
44723SOL    HW139107   9.551   1.725   5.634  1.5206 -1.8912 -1.3688
44723SOL    HW239108   9.576   1.678   5.776  0.0603 -0.3868 -0.5850
44724SOL     OW39109   9.013   6.486   7.890  0.3945 -0.7556 -0.5895
44724SOL    HW139110   8.969   6.505   7.974  1.8348  0.1260  0.0033
44724SOL    HW239111   8.951   6.517   7.824  0.1147  0.4967  0.2167
44725SOL     OW39112   0.408   5.275   1.023  0.4569 -0.2267  0.1313
44725SOL    HW139113   0.493   5.317   1.034  0.1188  0.1840  1.3684
44725SOL    HW239114   0.428   5.183   1.006  1.1492 -0.2403  0.9435
44726SOL     OW39115   1.149   1.670   7.728 -0.2732 -0.3636 -1.0668
44726SOL    HW139116   1.085   1.599   7.731 -1.1181  0.3696  1.0057
44726SOL    HW239117   1.112   1.733   7.667 -2.5687  0.8319  1.3400
44727SOL     OW39118   5.208   4.214   9.893 -0.0680 -0.1506  0.5566
44727SOL    HW139119   5.213   4.248   9.982  0.8188 -1.0892  0.8787
44727SOL    HW239120   5.240   4.124   9.899  1.8294  0.3447 -1.0089
44728SOL     OW39121   8.332  10.289   9.136  0.1017 -0.3269 -0.5316
44728SOL    HW139122   8.399  10.357   9.139  1.0331 -1.1410 -1.8110
44728SOL    HW239123   8.329  10.262   9.044  0.0228 -2.2531 -0.0141
44729SOL     OW39124   0.409   7.337   4.920  0.1129 -0.0454 -0.0270
44729SOL    HW139125   0.341   7.322   4.855  0.5750 -0.1169 -0.5053
44729SOL    HW239126   0.391   7.425   4.954 -2.3567 -1.3626  2.4846
44730SOL     OW39127   3.601   4.634   5.461 -0.2411 -0.0337  0.6265
44730SOL    HW139128   3.669   4.570   5.441 -0.0527  0.1958  0.5333
44730SOL    HW239129   3.520   4.594   5.429  0.1554  0.6880 -1.4124
44731SOL     OW39130   1.399   0.676  10.789 -0.0914 -0.0688 -0.0272
44731SOL    HW139131   1.429   0.591  10.822 -0.0623  0.4043  1.2075
44731SOL    HW239132   1.451   0.740  10.837 -0.2526  0.6692 -0.8101
44732SOL     OW39133   5.079  11.527   2.005 -0.0799  0.2349 -0.1506
44732SOL    HW139134   5.135  11.458   2.041 -0.3264  0.1825  0.1420
44732SOL    HW239135   5.008  11.480   1.961  1.5351  0.2323 -2.9827
44733SOL     OW39136  11.274   0.060   6.911  0.7892  0.2824 -0.2555
44733SOL    HW139137  11.267   0.155   6.919  1.3406  0.2089  1.4563
44733SOL    HW239138  11.308   0.046   6.823  0.2792  1.6452 -0.6908
44734SOL     OW39139   5.542  10.941   6.246  0.1639  0.3022 -0.2606
44734SOL    HW139140   5.508  10.995   6.317 -0.4604 -2.1075  1.4012
44734SOL    HW239141   5.466  10.926   6.190  0.1242  0.3917 -0.2320
44735SOL     OW39142   3.236  10.685   3.474 -0.2874 -0.3182  0.0714
44735SOL    HW139143   3.203  10.664   3.387 -1.8779  1.0248  0.2947
44735SOL    HW239144   3.190  10.624   3.532 -1.1880  0.4616  0.2067
44736SOL     OW39145  10.139   0.291   2.728  0.2818  0.2035 -0.2967
44736SOL    HW139146  10.189   0.297   2.809  3.0215 -2.6448 -1.5487
44736SOL    HW239147  10.161   0.372   2.681  0.9136  0.6030  0.6410
44737SOL     OW39148   0.028   0.376   3.481  0.5354  0.0960  0.1411
44737SOL    HW139149  -0.010   0.338   3.402  1.0372  0.1468 -0.1307
44737SOL    HW239150   0.015   0.470   3.473  0.8073  0.1228 -0.0037
44738SOL     OW39151   2.740  11.128   3.786  0.1943  0.1891 -0.0488
44738SOL    HW139152   2.718  11.207   3.835  0.1495  0.8179 -1.0662
44738SOL    HW239153   2.754  11.158   3.696 -0.4985 -1.0531 -0.5980
44739SOL     OW39154   1.495   0.797   2.790  0.2194 -0.6425  0.2172
44739SOL    HW139155   1.528   0.849   2.717 -0.0855  1.0385  1.2120
44739SOL    HW239156   1.532   0.839   2.868  0.7144 -2.5236  1.0401
44740SOL     OW39157   0.308  10.796   2.730  0.6655  0.2758  0.6531
44740SOL    HW139158   0.332  10.712   2.767  3.1537 -0.1824 -1.6990
44740SOL    HW239159   0.343  10.861   2.791  1.4358 -0.4228  0.9647
44741SOL     OW39160   5.792   7.664   3.054  0.2465  0.1896 -0.0323
44741SOL    HW139161   5.718   7.603   3.046  0.8595 -0.6974  0.7705
44741SOL    HW239162   5.785   7.697   3.144  0.3220  0.7828 -0.2420
44742SOL     OW39163   8.849   7.012   0.454 -0.1187 -0.2859  0.3558
44742SOL    HW139164   8.760   7.016   0.487 -0.6958 -0.6881 -1.0460
44742SOL    HW239165   8.890   7.093   0.484 -1.5515  0.8245 -0.5659
44743SOL     OW39166   9.148   9.322  10.840  0.1370 -0.0781 -0.1078
44743SOL    HW139167   9.058   9.305  10.866  0.4898 -1.2183  0.4655
44743SOL    HW239168   9.189   9.362  10.916  0.6841 -1.6891  0.4950
44744SOL     OW39169   4.206   0.004  10.023 -0.1405  0.1602  0.1202
44744SOL    HW139170   4.291   0.046  10.009 -0.1244  1.1119  2.5587
44744SOL    HW239171   4.146   0.054   9.967  0.7287  0.0538 -0.9502
44745SOL     OW39172  10.923   7.607   0.380 -0.2951  0.3230  0.7024
44745SOL    HW139173  10.986   7.673   0.408 -0.9878  1.2001  0.2505
44745SOL    HW239174  10.973   7.526   0.376  0.4618  0.7251  1.7231
44746SOL     OW39175   4.679   8.260   8.907  0.1468  0.3507 -0.0869
44746SOL    HW139176   4.690   8.204   8.830 -1.4623 -0.6661  0.3694
44746SOL    HW239177   4.645   8.343   8.872  3.1324  1.4002 -0.8346
44747SOL     OW39178   7.549   2.495   6.173  0.1325  0.8468  0.3672
44747SOL    HW139179   7.512   2.518   6.088  1.2136 -0.3308 -0.4475
44747SOL    HW239180   7.623   2.439   6.153  0.0065 -0.0193  2.1193
44748SOL     OW39181   0.946   9.319  11.537 -0.2242 -0.3626 -0.0789
44748SOL    HW139182   0.923   9.257  11.468 -2.5565  1.3093 -0.9742
44748SOL    HW239183   0.866   9.371  11.549  0.6190  0.4468  2.8033
44749SOL     OW39184   4.243   4.674   1.226 -0.0777 -0.4728 -0.0826
44749SOL    HW139185   4.222   4.629   1.307  0.9834  1.6657  1.4645
44749SOL    HW239186   4.335   4.654   1.209  0.1641  0.3882  0.1571
44750SOL     OW39187   3.034   3.342   4.478  0.2538 -0.3171 -0.2126
44750SOL    HW139188   3.085   3.392   4.541 -0.9008  0.4746  0.1168
44750SOL    HW239189   3.004   3.406   4.414 -1.1441 -0.5706  0.1478
44751SOL     OW39190  10.061   4.168   9.196  0.0028  0.5116  0.1269
44751SOL    HW139191  10.072   4.128   9.282 -0.4793  0.6223  0.2446
44751SOL    HW239192  10.127   4.236   9.192  0.5212  0.0131  0.1103
44752SOL     OW39193  10.550   3.689   0.035 -0.2203  0.0172 -0.2547
44752SOL    HW139194  10.635   3.661   0.002  0.1250  0.4518  0.2467
44752SOL    HW239195  10.542   3.781   0.009 -0.6000 -0.0579 -0.4190
44753SOL     OW39196   3.790   1.762   6.475  0.3042  0.7203 -0.4588
44753SOL    HW139197   3.839   1.704   6.534 -3.1683  0.2360  2.2432
44753SOL    HW239198   3.783   1.712   6.393  1.4660 -0.5751  0.1834
44754SOL     OW39199   7.387   1.080   2.386  0.8230  0.6379  0.1945
44754SOL    HW139200   7.339   1.006   2.423 -0.8760 -0.1131 -3.0896
44754SOL    HW239201   7.347   1.157   2.426  0.1969 -0.1279  1.0864
44755SOL     OW39202   8.758  10.807   6.548 -0.1558  0.6231 -0.5216
44755SOL    HW139203   8.736  10.866   6.620  1.3440  0.2854  0.2647
44755SOL    HW239204   8.819  10.856   6.494  0.0574  0.2695 -0.6098
44756SOL     OW39205  10.292   5.792   8.405 -0.6168 -0.8149  0.3171
44756SOL    HW139206  10.202   5.820   8.396  0.6783  3.2688 -2.4552
44756SOL    HW239207  10.325   5.785   8.315  2.7737  1.9357  1.1222
44757SOL     OW39208   8.768   9.184   7.276 -0.2487  0.4067 -0.3835
44757SOL    HW139209   8.698   9.178   7.342 -0.9646 -1.4439 -1.2316
44757SOL    HW239210   8.722   9.177   7.192  0.6863  2.3115 -1.1008
44758SOL     OW39211   4.759   5.699   3.064 -0.3780 -0.0723  0.3315
44758SOL    HW139212   4.755   5.703   3.159 -0.6088  0.9443  0.2918
44758SOL    HW239213   4.670   5.678   3.037 -0.1375 -1.1933  0.3579
44759SOL     OW39214   4.301   8.691  10.460 -0.1250  0.0022 -0.0751
44759SOL    HW139215   4.323   8.639  10.537  0.2873  0.9558  0.4682
44759SOL    HW239216   4.383   8.697  10.411 -0.2101 -0.0020 -0.2185
44760SOL     OW39217  11.400   8.855   6.149 -0.1807 -0.1626 -0.9425
44760SOL    HW139218  11.433   8.766   6.162  1.8267  0.4275 -1.5902
44760SOL    HW239219  11.412   8.898   6.234 -2.0435 -0.7344 -0.3521
44761SOL     OW39220   7.937   3.787   1.025  0.0850  0.2136  0.2862
44761SOL    HW139221   7.940   3.877   0.992 -0.0980  0.7575  1.6933
44761SOL    HW239222   7.958   3.795   1.118  0.3692 -1.2425  0.3672
44762SOL     OW39223   9.776   2.067  10.339  0.1717 -0.2088  0.1112
44762SOL    HW139224   9.725   1.998  10.381  1.9324 -2.1074 -0.6481
44762SOL    HW239225   9.774   2.046  10.246 -0.4103  1.6393 -0.3401
44763SOL     OW39226   3.888   4.974   6.542  0.5496  0.5861 -0.2664
44763SOL    HW139227   3.902   4.985   6.636 -0.4126 -0.5848  0.0309
44763SOL    HW239228   3.974   4.946   6.509  0.3168 -1.4950  0.7032
44764SOL     OW39229   5.879   8.924   1.739 -0.7510  0.4837 -0.0453
44764SOL    HW139230   5.817   8.881   1.680 -0.0816 -0.2968 -0.2157
44764SOL    HW239231   5.934   8.977   1.681 -0.8347  0.6381  0.0182
44765SOL     OW39232   1.085   6.271  10.533  0.3066 -0.1433 -0.0321
44765SOL    HW139233   1.135   6.346  10.563 -0.5538  0.7840 -0.8269
44765SOL    HW239234   1.037   6.241  10.610  0.7641  0.0296  0.3198
44766SOL     OW39235   8.870   5.973   0.577 -0.1428 -0.0979 -0.0191
44766SOL    HW139236   8.851   6.032   0.650 -1.3180 -0.6374  0.1280
44766SOL    HW239237   8.897   6.031   0.505 -2.8706  0.8263 -0.4106
44767SOL     OW39238   9.131  10.461   3.576  0.1499  0.3709  0.6456
44767SOL    HW139239   9.140  10.502   3.662 -1.7953  0.4678  0.8424
44767SOL    HW239240   9.040  10.434   3.572  0.4302 -0.4319 -1.0537
44768SOL     OW39241   4.417   0.190   8.140 -0.3194  0.0776  0.0463
44768SOL    HW139242   4.341   0.137   8.163 -0.8054  0.0489 -1.5295
44768SOL    HW239243   4.443   0.159   8.053  1.9279 -0.3805  0.7996
44769SOL     OW39244   8.648   7.932   4.671 -0.0498  0.4837  0.1258
44769SOL    HW139245   8.592   7.855   4.666  1.0533 -0.5738  2.3418
44769SOL    HW239246   8.725   7.908   4.620  0.3141  0.0484  0.8531
44770SOL     OW39247   3.163   5.325   2.555  0.1489  0.1360  0.2395
44770SOL    HW139248   3.196   5.309   2.466 -0.8980 -0.0232 -0.1361
44770SOL    HW239249   3.147   5.419   2.559 -1.1716 -0.0544 -0.2444
44771SOL     OW39250   4.047   4.797  11.668 -0.6003 -0.3205  0.3851
44771SOL    HW139251   4.051   4.741  11.745 -0.3388  0.2174  0.7740
44771SOL    HW239252   3.959   4.783  11.633 -0.3788 -1.3085  0.2062
44772SOL     OW39253   6.564   5.963   0.183 -0.1054 -0.0638  0.2214
44772SOL    HW139254   6.618   5.897   0.226  0.0700  0.0627  0.1964
44772SOL    HW239255   6.522   6.009   0.255 -1.7068 -1.4178  0.2109
44773SOL     OW39256   1.276   9.968   1.172  0.7813 -0.6300 -0.7329
44773SOL    HW139257   1.279  10.009   1.258  0.1555 -3.2422  0.6261
44773SOL    HW239258   1.368   9.956   1.149  0.9583  0.4741 -0.6647
44774SOL     OW39259   5.108   3.333   0.986  0.1698 -0.0664  0.1550
44774SOL    HW139260   5.055   3.346   0.908  0.1371 -0.0380  0.1821
44774SOL    HW239261   5.124   3.238   0.990  2.2970  0.1554 -1.2975
44775SOL     OW39262   2.011   4.174   9.354  0.0046 -0.5533 -0.0154
44775SOL    HW139263   1.973   4.130   9.430  0.6138  0.0595  0.6546
44775SOL    HW239264   2.092   4.127   9.336  1.0917  0.7823  1.2308
44776SOL     OW39265   4.554   7.030   7.145  0.2464 -0.3092  0.6397
44776SOL    HW139266   4.619   7.048   7.077 -0.0788  0.8335  0.6135
44776SOL    HW239267   4.583   7.082   7.220 -0.6316  0.2022  0.6276
44777SOL     OW39268   9.984   3.209   6.797 -0.0285 -0.0956  0.2867
44777SOL    HW139269   9.980   3.125   6.752 -3.7068 -0.0632  0.1930
44777SOL    HW239270  10.005   3.187   6.888  0.2378 -0.9929  0.0169
44778SOL     OW39271   6.724  10.168   4.886  0.0608 -0.2844 -0.8729
44778SOL    HW139272   6.779  10.205   4.817  1.2241 -0.6150 -0.1593
44778SOL    HW239273   6.652  10.125   4.840  0.6393 -0.2253 -1.8625
44779SOL     OW39274   3.962   2.919   5.760 -0.0033 -0.2845 -0.0349
44779SOL    HW139275   4.008   2.874   5.689 -0.6483 -1.7879  0.4595
44779SOL    HW239276   3.957   2.854   5.830 -0.0310  0.9267  1.1305
44780SOL     OW39277   1.632   1.777   7.756 -0.3790 -0.0647  0.2023
44780SOL    HW139278   1.549   1.765   7.712 -0.2699  1.6652 -0.5617
44780SOL    HW239279   1.677   1.693   7.748 -1.6989 -0.7572 -0.1049
44781SOL     OW39280   5.193   4.556   1.342  0.3983  0.0683  0.2578
44781SOL    HW139281   5.289   4.551   1.343  0.4224  0.5265  0.3034
44781SOL    HW239282   5.173   4.649   1.355 -0.0484  0.0237 -0.0891
44782SOL     OW39283   7.905   0.378   0.507  0.0375  0.3982 -0.3366
44782SOL    HW139284   7.996   0.392   0.479  0.4591  0.8135  1.1695
44782SOL    HW239285   7.895   0.434   0.584 -1.6116  0.6248 -0.6795
44783SOL     OW39286   4.268   2.607   5.766 -0.0777 -0.0511 -0.0334
44783SOL    HW139287   4.263   2.611   5.862 -1.5268  1.0385 -0.1120
44783SOL    HW239288   4.299   2.519   5.747 -0.4157 -0.5140  1.4401
44784SOL     OW39289  10.503   3.082  11.019  0.1533  0.2227 -0.2288
44784SOL    HW139290  10.433   3.051  10.961 -0.6229  0.0608  0.7591
44784SOL    HW239291  10.554   3.003  11.038  1.3636  0.5419 -1.8868
44785SOL     OW39292   1.660   3.336   4.256 -0.1421 -0.7157  0.4849
44785SOL    HW139293   1.686   3.274   4.188  0.1256 -1.9322  1.6515
44785SOL    HW239294   1.740   3.350   4.307  0.1873  1.7449 -0.5776
44786SOL     OW39295   6.532   2.612   4.426 -0.1777  0.1014 -0.3798
44786SOL    HW139296   6.476   2.557   4.371  0.0215  0.4387 -0.9315
44786SOL    HW239297   6.573   2.673   4.365  1.4603 -0.6764 -0.1176
44787SOL     OW39298  11.140   4.904   9.408  0.3170  0.2146  0.0040
44787SOL    HW139299  11.128   4.932   9.317  0.9177 -1.1898 -0.5436
44787SOL    HW239300  11.163   4.984   9.455 -0.1534  0.9931 -1.0483
44788SOL     OW39301   7.048   4.186  10.769 -0.3601  0.3149 -0.0777
44788SOL    HW139302   7.000   4.106  10.790  0.8705 -0.8866 -1.6059
44788SOL    HW239303   6.980   4.248  10.742 -1.2163 -0.6590 -0.2223
44789SOL     OW39304   6.627   4.873  10.432  0.0625  0.1866 -0.0069
44789SOL    HW139305   6.666   4.787  10.444 -1.4360 -0.5519 -0.1892
44789SOL    HW239306   6.684   4.917  10.369 -0.5463 -1.6449 -1.9526
44790SOL     OW39307   7.537   5.244   3.911  0.2322  0.2238  0.2220
44790SOL    HW139308   7.484   5.212   3.984 -0.2455  0.4967  0.0009
44790SOL    HW239309   7.474   5.261   3.841  0.5436  1.0769  0.1342
44791SOL     OW39310   8.024   2.033   6.834 -0.2183  0.8747 -0.0025
44791SOL    HW139311   7.945   2.085   6.844  0.5657  1.9490  0.7593
44791SOL    HW239312   8.078   2.056   6.909 -0.5410 -2.3412  1.3948
44792SOL     OW39313  11.137   5.808   8.674  0.2860 -0.2385 -0.2242
44792SOL    HW139314  11.067   5.745   8.658 -1.5095  1.1740  1.6116
44792SOL    HW239315  11.105   5.889   8.635  0.2401  0.7602  1.7750
44793SOL     OW39316   6.406   1.172   9.521  0.0015 -0.0263  0.4724
44793SOL    HW139317   6.376   1.250   9.568 -0.5959 -0.7873  1.3661
44793SOL    HW239318   6.502   1.175   9.529  0.1824  1.8493 -1.5121
44794SOL     OW39319   5.552   7.511   3.039  0.0654  0.1336  0.3903
44794SOL    HW139320   5.465   7.474   3.024  0.4164 -0.6254  0.1950
44794SOL    HW239321   5.596   7.505   2.953  0.7540 -0.6808  0.7886
44795SOL     OW39322   3.579   2.709   3.891  0.8187 -0.7995 -0.1760
44795SOL    HW139323   3.666   2.733   3.923  0.6287 -1.5491  0.9482
44795SOL    HW239324   3.587   2.618   3.864  0.2182 -1.0761  0.5640
44796SOL     OW39325   0.368   6.901   9.156 -0.3370  0.1145 -0.2285
44796SOL    HW139326   0.318   6.858   9.225  1.9288  0.4635  1.7795
44796SOL    HW239327   0.334   6.990   9.154  0.5615  0.5682  1.6501
44797SOL     OW39328   5.255   6.214   0.741  0.5254 -0.4044 -0.4391
44797SOL    HW139329   5.174   6.179   0.705  0.4377  0.4067 -1.0655
44797SOL    HW239330   5.324   6.182   0.683  0.3945  0.8162 -1.3099
44798SOL     OW39331   3.445   0.338   8.258  0.3479 -0.0292 -0.1387
44798SOL    HW139332   3.439   0.421   8.212  0.3526 -0.3795 -0.7850
44798SOL    HW239333   3.359   0.298   8.247 -0.0341  0.3860  1.1530
44799SOL     OW39334   0.918   7.259   3.090 -0.2433 -0.5925  0.0854
44799SOL    HW139335   0.889   7.197   3.023  0.1660 -0.5216 -0.1618
44799SOL    HW239336   0.991   7.215   3.134  0.7542  0.1300 -0.8009
44800SOL     OW39337   3.977  11.102   0.704 -0.1845  0.1491 -0.2789
44800SOL    HW139338   3.923  11.024   0.693 -0.2222 -0.0690  1.2344
44800SOL    HW239339   3.917  11.167   0.741 -0.5120  1.3946 -2.7732
44801SOL     OW39340  11.599   9.752   6.918  0.2347  0.4575  0.3276
44801SOL    HW139341  11.663   9.771   6.987 -0.5413 -1.2355  1.5710
44801SOL    HW239342  11.651   9.726   6.842  1.1076  2.4736  0.1693
44802SOL     OW39343  11.562   6.000   4.150 -0.1476 -0.0907 -0.0012
44802SOL    HW139344  11.578   5.960   4.235  0.3384 -0.2058 -0.1443
44802SOL    HW239345  11.625   5.959   4.092  1.4391  1.9710  0.1584
44803SOL     OW39346   1.052   8.749   1.624  0.2502 -0.2230  0.5344
44803SOL    HW139347   0.969   8.723   1.664  0.5105 -2.2224 -0.0772
44803SOL    HW239348   1.084   8.820   1.679 -1.0417 -0.5737  1.8107
44804SOL     OW39349   3.141   1.661   1.202 -0.3441  0.5986  0.0989
44804SOL    HW139350   3.196   1.638   1.277 -0.0247 -1.7230 -0.7797
44804SOL    HW239351   3.203   1.687   1.134 -0.2838 -1.3660 -0.6695
44805SOL     OW39352   1.062  10.026   3.766 -0.0809  0.1107  0.1972
44805SOL    HW139353   1.152  10.006   3.742 -0.1098  1.1599 -0.8321
44805SOL    HW239354   1.063  10.029   3.862  0.9376 -0.0348  0.2003
44806SOL     OW39355  10.805   4.103   7.075  0.2360 -0.0989 -0.0771
44806SOL    HW139356  10.889   4.121   7.117 -0.1122  1.1194  0.1543
44806SOL    HW239357  10.740   4.114   7.145 -0.2251  0.4582 -0.5763
44807SOL     OW39358   4.218   1.252   4.763 -0.0255 -0.2969  0.3193
44807SOL    HW139359   4.226   1.197   4.686  0.4478  1.0273 -0.6194
44807SOL    HW239360   4.127   1.242   4.791 -0.8069  0.7968 -1.6813
44808SOL     OW39361   0.604   9.832  10.496 -0.6645  0.5427  0.0354
44808SOL    HW139362   0.689   9.876  10.503 -0.3811  0.6552 -2.8570
44808SOL    HW239363   0.544   9.901  10.469 -1.8693  0.5640  2.5372
44809SOL     OW39364   7.354   8.266   2.449  0.5850  0.5542  0.1048
44809SOL    HW139365   7.282   8.291   2.506  0.3678  0.1671  0.0038
44809SOL    HW239366   7.401   8.348   2.432  0.8540  0.6147  1.1188
44810SOL     OW39367   9.418   2.320   1.186  0.0115  0.2128 -0.2562
44810SOL    HW139368   9.387   2.254   1.248  1.9550  0.0979  0.6716
44810SOL    HW239369   9.382   2.402   1.218 -0.2304 -0.0502  0.1564
44811SOL     OW39370   5.849   9.820   2.104  0.1429 -0.1238  0.0976
44811SOL    HW139371   5.810   9.846   2.188  1.8170 -1.6602  1.4416
44811SOL    HW239372   5.938   9.854   2.108  0.5617 -1.1040 -0.5859
44812SOL     OW39373   8.056   4.180  10.790 -0.0085  0.5126 -0.4046
44812SOL    HW139374   8.111   4.212  10.860  1.3148  1.4167 -1.7939
44812SOL    HW239375   7.976   4.232  10.795 -0.1256  0.2386  0.6962
44813SOL     OW39376   6.315  10.662   8.318 -0.0833  0.0914 -0.3995
44813SOL    HW139377   6.297  10.671   8.412 -0.6646 -2.4551 -0.1905
44813SOL    HW239378   6.256  10.724   8.277  0.6708  1.7638  0.9297
44814SOL     OW39379   1.020  10.896   0.726  0.5829 -0.4472  0.3634
44814SOL    HW139380   0.986  10.853   0.804 -0.3273 -0.9267 -0.2698
44814SOL    HW239381   0.985  10.844   0.653  0.3521  0.7298 -0.3971
44815SOL     OW39382   2.753   8.230   5.375  0.1179  0.1421 -0.0491
44815SOL    HW139383   2.781   8.226   5.283 -1.1006  0.2380 -0.4394
44815SOL    HW239384   2.666   8.190   5.376 -0.1210  0.6390  0.9689
44816SOL     OW39385   6.793   8.326  11.343  0.2844  0.1001 -0.9496
44816SOL    HW139386   6.767   8.295  11.430  1.2082  0.2974 -0.5820
44816SOL    HW239387   6.867   8.385  11.360  0.6587 -0.0727 -1.8853
44817SOL     OW39388   2.155   1.646   3.857 -0.5733 -0.6097  0.0993
44817SOL    HW139389   2.133   1.733   3.891  0.9542 -0.3893  0.6153
44817SOL    HW239390   2.188   1.662   3.769 -2.1741 -0.9108 -0.5820
44818SOL     OW39391   3.994   2.307   4.755 -0.5151 -0.0237  0.8267
44818SOL    HW139392   4.030   2.327   4.668 -1.5474  0.0281  0.4012
44818SOL    HW239393   4.063   2.335   4.816 -0.5826  1.8368  0.1160
44819SOL     OW39394   1.078   2.263   9.926  0.0454 -0.2949 -0.0110
44819SOL    HW139395   1.162   2.232   9.958 -0.4312 -1.3722  0.2169
44819SOL    HW239396   1.036   2.303  10.002  0.3175  0.1815 -0.1092
44820SOL     OW39397   4.341  11.443  10.376  0.5515  0.6842  0.1285
44820SOL    HW139398   4.292  11.364  10.400  0.8750 -0.1950 -1.8475
44820SOL    HW239399   4.278  11.514  10.385  0.2997  0.2582  2.1239
44821SOL     OW39400   3.779   7.087   9.072 -0.3707  0.0799 -0.1168
44821SOL    HW139401   3.814   7.131   8.994 -2.1893  0.2822 -0.8805
44821SOL    HW239402   3.687   7.115   9.075 -0.9570 -1.8007  0.7422
44822SOL     OW39403   4.352   7.311  11.429  0.7200 -0.0224 -0.1414
44822SOL    HW139404   4.287   7.379  11.446 -0.5983 -1.1648 -0.3648
44822SOL    HW239405   4.299   7.234  11.405  2.0923 -1.3868  1.0055
44823SOL     OW39406   1.511   7.796  11.436 -0.1695 -0.2982  0.1390
44823SOL    HW139407   1.512   7.772  11.529 -0.3406  1.9061  0.7775
44823SOL    HW239408   1.420   7.782  11.409 -0.1085 -0.9964  0.2801
44824SOL     OW39409   9.254   7.390  10.201 -0.3067  0.0112 -0.0414
44824SOL    HW139410   9.310   7.337  10.257 -2.5538 -2.3880  0.1394
44824SOL    HW239411   9.299   7.475  10.194  0.8263 -0.0408  4.1072
44825SOL     OW39412   4.716  11.075   3.569  0.2957 -0.0772 -0.1766
44825SOL    HW139413   4.798  11.056   3.523  0.8654  0.1962  0.7036
44825SOL    HW239414   4.652  11.015   3.529  0.1891  1.6870 -2.9130
44826SOL     OW39415  10.836  11.213   3.703  0.3777  0.1834 -0.1080
44826SOL    HW139416  10.761  11.166   3.668  0.1950 -0.3592  0.9558
44826SOL    HW239417  10.797  11.282   3.758  0.6498  0.3391 -0.1099
44827SOL     OW39418   5.595  10.096   2.880  0.2344  0.1537  0.3926
44827SOL    HW139419   5.516  10.139   2.912 -0.0683 -0.9740  1.2493
44827SOL    HW239420   5.563  10.021   2.830  0.7203 -0.7941  1.4425
44828SOL     OW39421   9.916  10.013   9.124  0.2688  0.4676  0.6097
44828SOL    HW139422   9.863   9.964   9.186 -0.1853  0.6555  0.3801
44828SOL    HW239423   9.892   9.976   9.038  1.6863 -0.5302  0.6265
44829SOL     OW39424   4.443   8.981   5.692  0.5854  0.2159  0.3631
44829SOL    HW139425   4.521   8.926   5.689  3.5350  3.9449 -3.1395
44829SOL    HW239426   4.474   9.065   5.725 -1.4527  2.2848 -2.5040
44830SOL     OW39427   2.638   5.028   5.752 -0.3205 -0.3047 -0.5307
44830SOL    HW139428   2.717   5.072   5.783 -1.3559  1.7746 -0.6496
44830SOL    HW239429   2.627   5.061   5.662 -1.0462 -0.9591 -0.6895
44831SOL     OW39430   4.266   2.330   1.118  0.6205  0.0987  0.4369
44831SOL    HW139431   4.290   2.279   1.041  0.0324 -0.2115  0.4526
44831SOL    HW239432   4.170   2.335   1.114  0.6172  0.4595  0.9051
44832SOL     OW39433   5.886   5.285   9.275  0.1224  0.0591  0.0605
44832SOL    HW139434   5.821   5.264   9.208 -0.7249 -0.2779  0.9735
44832SOL    HW239435   5.891   5.381   9.274  0.1630  0.0561 -0.5180
44833SOL     OW39436   6.021   4.594   8.701  0.2242  0.2102  0.2244
44833SOL    HW139437   6.047   4.502   8.692  1.4655  0.5149  0.5255
44833SOL    HW239438   6.014   4.625   8.611  0.5034  0.0134  0.1337
44834SOL     OW39439   3.740   3.850   7.757  0.6035 -0.3476  0.2059
44834SOL    HW139440   3.745   3.811   7.670 -0.9255 -0.5017  0.1581
44834SOL    HW239441   3.815   3.814   7.804  1.0311 -0.8394 -0.8161
44835SOL     OW39442   9.017   1.935   5.286  0.6799 -0.0173 -0.4331
44835SOL    HW139443   8.928   1.908   5.262  0.6125 -0.4541  0.3036
44835SOL    HW239444   9.066   1.853   5.291  0.9336  0.1562 -0.0538
44836SOL     OW39445   4.797   2.712  11.162 -0.4264  0.2047 -0.2604
44836SOL    HW139446   4.749   2.729  11.243 -0.5451 -0.9309 -0.0754
44836SOL    HW239447   4.825   2.621  11.170  0.9085  0.5506 -0.8086
44837SOL     OW39448   7.645   6.615   4.558  0.3052 -0.1786 -0.2804
44837SOL    HW139449   7.627   6.541   4.616  2.8652 -1.8854 -1.4488
44837SOL    HW239450   7.728   6.650   4.589 -0.3128  1.5279 -0.4635
44838SOL     OW39451   5.218  10.699   9.716  0.1581  1.0759  0.3537
44838SOL    HW139452   5.211  10.737   9.628  0.4175  1.6312  0.5654
44838SOL    HW239453   5.131  10.664   9.733 -0.1848  1.8445  0.2570
44839SOL     OW39454   7.621   7.055   7.754 -0.1421  0.4618  0.2730
44839SOL    HW139455   7.543   7.012   7.717  0.3324  1.3997 -1.9763
44839SOL    HW239456   7.683   6.984   7.768 -1.0098 -0.1612  1.1111
44840SOL     OW39457   4.093   8.084   6.245  0.3004  0.2759 -0.7783
44840SOL    HW139458   4.164   8.033   6.207  1.7009  0.4892  1.3990
44840SOL    HW239459   4.135   8.141   6.309 -1.9336 -0.5810  1.6376
44841SOL     OW39460  11.577  10.044   1.803 -0.0891  0.0422 -0.2081
44841SOL    HW139461  11.631  10.102   1.749  0.2757 -0.0373  0.0640
44841SOL    HW239462  11.563   9.967   1.747  0.4437 -0.1205 -0.1272
44842SOL     OW39463   5.358   5.667   6.444 -0.3289 -0.1091  0.4736
44842SOL    HW139464   5.280   5.654   6.499 -1.8477 -0.0713 -1.5441
44842SOL    HW239465   5.348   5.756   6.409  1.0859  0.2080  0.8099
44843SOL     OW39466   1.168  11.070   5.562 -0.5616 -0.3387 -0.1813
44843SOL    HW139467   1.124  11.106   5.485 -1.6578  0.4511  0.7732
44843SOL    HW239468   1.215  11.144   5.600 -1.8760 -0.1294  1.1424
44844SOL     OW39469   7.853   1.233   4.118  0.3375  0.0296 -0.1299
44844SOL    HW139470   7.775   1.226   4.062  0.1893  0.3360  0.0327
44844SOL    HW239471   7.884   1.143   4.128  0.5290 -0.0001 -0.9364
44845SOL     OW39472   5.971   3.547   0.677  0.3624  0.2748 -0.4276
44845SOL    HW139473   5.892   3.498   0.704  0.4649 -0.0801 -0.7656
44845SOL    HW239474   5.937   3.624   0.632  0.2047 -0.5362 -1.7416
44846SOL     OW39475   9.742   4.698   2.519 -0.3192 -0.6212 -0.5862
44846SOL    HW139476   9.760   4.606   2.537 -0.2057 -1.0247 -2.5172
44846SOL    HW239477   9.828   4.738   2.507 -0.4081 -0.5135 -0.8694
44847SOL     OW39478   4.391   1.348   6.513 -0.3293  0.5739  0.1319
44847SOL    HW139479   4.353   1.363   6.426  0.6635  3.7036  0.1100
44847SOL    HW239480   4.320   1.371   6.574 -0.1379  1.2788  0.1021
44848SOL     OW39481  11.448   7.164   9.774  0.1416  0.0772  0.1184
44848SOL    HW139482  11.367   7.187   9.727 -0.1938  1.0279  1.1382
44848SOL    HW239483  11.421   7.095   9.834  0.5949 -1.2186 -1.1058
44849SOL     OW39484   5.503   4.486   3.392 -0.1992 -0.1568 -0.6122
44849SOL    HW139485   5.578   4.434   3.423 -0.1305  0.3821  0.1695
44849SOL    HW239486   5.427   4.441   3.429 -0.1650  0.0640 -0.2645
44850SOL     OW39487   4.449   8.165  10.230  0.1604 -0.4887  0.0885
44850SOL    HW139488   4.422   8.132  10.145 -0.2556  2.0170 -0.8521
44850SOL    HW239489   4.539   8.196  10.216  0.3550 -0.7289  0.7727
44851SOL     OW39490   9.462   1.888  10.626 -0.2218 -0.7141 -0.4624
44851SOL    HW139491   9.477   1.975  10.664 -1.1350 -0.6736 -0.1682
44851SOL    HW239492   9.510   1.828  10.684 -0.1963 -0.4739 -0.2343
44852SOL     OW39493   7.016   0.221   9.096  0.3378 -0.1839 -0.1950
44852SOL    HW139494   6.937   0.191   9.141 -0.8009 -0.1173 -2.0409
44852SOL    HW239495   7.066   0.140   9.079  0.1384 -0.3503  0.0073
44853SOL     OW39496   0.538   4.372   5.810 -0.0018 -0.3121 -0.3689
44853SOL    HW139497   0.575   4.445   5.860  0.5554 -1.6951  1.3370
44853SOL    HW239498   0.571   4.386   5.721  2.7672 -0.1813  0.5683
44854SOL     OW39499   7.538   8.956  10.485 -0.4782 -0.0538  0.1401
44854SOL    HW139500   7.539   9.047  10.456  1.0688  0.0240  0.3997
44854SOL    HW239501   7.577   8.907  10.413 -1.1962 -0.5115  0.0494
44855SOL     OW39502   7.178   7.729   1.819  0.2676  0.1681 -0.2678
44855SOL    HW139503   7.196   7.635   1.819 -0.2078  0.0195 -2.5644
44855SOL    HW239504   7.122   7.743   1.895  0.8189 -1.2857  0.4494
44856SOL     OW39505   7.236  11.651   5.784 -0.3819 -0.3361  0.2101
44856SOL    HW139506   7.171  11.721   5.774 -0.1293 -0.4111 -2.8987
44856SOL    HW239507   7.188  11.579   5.825 -1.9801  0.0197 -0.9393
44857SOL     OW39508   2.661   7.992   4.441  0.6305  0.3593 -0.0523
44857SOL    HW139509   2.723   7.942   4.494 -1.3466 -1.3257  0.8289
44857SOL    HW239510   2.678   7.964   4.351 -0.3936 -2.0455  0.4127
44858SOL     OW39511   5.450   8.270  11.084  0.2293 -0.1137  0.6044
44858SOL    HW139512   5.508   8.194  11.083 -1.6397 -1.6524  1.8580
44858SOL    HW239513   5.439   8.293  10.991  1.5576 -0.7598  0.2626
44859SOL     OW39514   8.934   1.725   4.075 -0.4435  0.5187  0.3290
44859SOL    HW139515   8.926   1.804   4.128 -0.8503  1.1499 -0.6363
44859SOL    HW239516   8.965   1.756   3.990 -2.6521 -0.0229 -0.7753
44860SOL     OW39517   1.388   1.191   5.577  0.4296 -0.0062 -0.2633
44860SOL    HW139518   1.441   1.207   5.499  1.3604  1.4036  0.6219
44860SOL    HW239519   1.302   1.166   5.543  1.1968 -0.7688 -1.7192
44861SOL     OW39520   8.362   8.310  10.569 -0.0498 -0.1949  0.0911
44861SOL    HW139521   8.276   8.269  10.577  0.5196 -1.3763  0.5157
44861SOL    HW239522   8.367   8.370  10.644 -0.2365 -0.6729  0.4985
44862SOL     OW39523   6.285   6.242   8.500 -0.2771  0.2335 -0.4557
44862SOL    HW139524   6.309   6.180   8.432 -1.0500 -0.7126  0.1092
44862SOL    HW239525   6.191   6.256   8.488 -0.3785  0.2360  0.2735
44863SOL     OW39526   3.204   5.073   8.458  0.0560  0.1249 -0.1717
44863SOL    HW139527   3.248   5.107   8.380 -0.8056  2.5423  0.2810
44863SOL    HW239528   3.205   5.147   8.519 -3.3421 -0.1027  0.3506
44864SOL     OW39529   1.106   6.430   4.659  0.2309  0.2218  0.0814
44864SOL    HW139530   1.114   6.343   4.619 -1.3446 -0.2446  0.6842
44864SOL    HW239531   1.185   6.477   4.632  1.6665 -1.7437  0.6188
44865SOL     OW39532  10.908   7.581  11.417  0.2330 -0.0194 -0.1325
44865SOL    HW139533  10.998   7.564  11.441 -0.1039 -0.5746  0.7754
44865SOL    HW239534  10.886   7.664  11.460 -0.6310 -1.4299  2.2941
44866SOL     OW39535  10.442   4.120  11.029  0.0051  0.7281 -0.2864
44866SOL    HW139536  10.348   4.119  11.013  0.0486  0.9429 -0.5891
44866SOL    HW239537  10.481   4.106  10.942  0.2497  0.4529 -0.1339
44867SOL     OW39538   6.456  11.251   7.155 -0.2181 -0.7328 -0.0142
44867SOL    HW139539   6.490  11.286   7.073 -1.3399 -0.6860 -0.4663
44867SOL    HW239540   6.533  11.247   7.212  0.1263  1.6508 -0.2117
44868SOL     OW39541   7.557   1.243   1.883 -0.1144 -0.1491  0.3026
44868SOL    HW139542   7.467   1.271   1.904 -0.4467  0.5823 -1.8148
44868SOL    HW239543   7.557   1.149   1.898 -1.8208 -0.4817 -1.3595
44869SOL     OW39544   6.761   6.840  11.631  0.7483 -0.4121  0.3527
44869SOL    HW139545   6.750   6.921  11.581 -1.0530 -0.0192  1.2867
44869SOL    HW239546   6.747   6.867  11.722  2.7595 -1.3230  0.9825
44870SOL     OW39547   6.938   1.044   7.397 -0.0799 -0.2945  0.1939
44870SOL    HW139548   6.992   1.074   7.469 -1.8223  1.2584  0.9198
44870SOL    HW239549   6.934   1.119   7.337 -1.7438 -0.1942  0.3823
44871SOL     OW39550   1.536   5.034   4.439  0.3857  0.0040  0.3432
44871SOL    HW139551   1.523   4.942   4.460 -0.5544 -0.0591 -0.4848
44871SOL    HW239552   1.452   5.076   4.458  0.7693  0.6864  0.6118
44872SOL     OW39553   6.405   6.967  10.628 -0.3647 -0.2211  0.8969
44872SOL    HW139554   6.496   6.993  10.614 -0.4412 -0.7785 -0.9278
44872SOL    HW239555   6.358   7.049  10.642  0.0611  0.3149 -0.5781
44873SOL     OW39556   9.343   5.654   6.061  1.2533 -0.8665  0.0575
44873SOL    HW139557   9.263   5.706   6.064  0.3136 -2.2890  0.6176
44873SOL    HW239558   9.328   5.590   5.992  1.1111 -2.3533  1.4265
44874SOL     OW39559   1.961   0.192   6.907  0.2219  0.1429  0.4000
44874SOL    HW139560   1.905   0.269   6.908  0.5400  0.3744  0.9173
44874SOL    HW239561   2.022   0.207   6.835 -0.3820 -0.1222 -0.1827
44875SOL     OW39562   8.674   0.362   8.006 -0.0502  0.3220 -0.1723
44875SOL    HW139563   8.606   0.388   8.068  0.4691 -1.5008  1.2588
44875SOL    HW239564   8.670   0.266   8.005  2.7400  0.1186  0.2960
44876SOL     OW39565   8.960   4.440   4.909  0.1966 -0.7004  0.6895
44876SOL    HW139566   8.883   4.492   4.929 -0.3654 -1.5273  0.7619
44876SOL    HW239567   9.021   4.501   4.868  0.2222  0.3607  2.2406
44877SOL     OW39568   9.460   3.868  11.236 -0.1691  0.3006 -0.2717
44877SOL    HW139569   9.441   3.888  11.144 -1.3821 -1.2402 -0.4057
44877SOL    HW239570   9.423   3.781  11.249  1.2284 -0.1091  1.3123
44878SOL     OW39571   5.207  10.111   8.663 -0.2140 -0.5664  0.1522
44878SOL    HW139572   5.140  10.099   8.596  0.2631 -1.8279 -0.1181
44878SOL    HW239573   5.239  10.023   8.682  0.4384 -0.1140  1.2370
44879SOL     OW39574   1.979  10.670   0.389 -0.3758  0.1777  0.1280
44879SOL    HW139575   1.923  10.597   0.417  0.5750 -0.9368 -0.8140
44879SOL    HW239576   2.068  10.640   0.404  0.0627  0.7829 -1.1466
44880SOL     OW39577   4.303   0.112   2.428 -0.2443  0.7703  0.1613
44880SOL    HW139578   4.277   0.150   2.511 -0.5846  1.2143 -0.1453
44880SOL    HW239579   4.398   0.101   2.435  0.0930  2.9431 -0.2438
44881SOL     OW39580   1.061   7.181   1.932 -0.2899  0.2407  0.1816
44881SOL    HW139581   1.053   7.132   2.014  2.0679  0.7603  0.7995
44881SOL    HW239582   1.141   7.147   1.892  0.1066  1.9239 -0.5278
44882SOL     OW39583   8.252   7.845   1.776 -0.5357 -0.3092  0.5520
44882SOL    HW139584   8.196   7.882   1.845  0.4377 -0.3688  1.4047
44882SOL    HW239585   8.199   7.776   1.737 -1.1729 -0.1607  1.1295
44883SOL     OW39586   0.923   3.331  11.483 -0.0741  0.3688 -0.7844
44883SOL    HW139587   0.946   3.240  11.469  2.5553  0.9684 -0.7902
44883SOL    HW239588   0.874   3.356  11.405  0.2593 -0.6857 -1.3479
44884SOL     OW39589  10.913   7.575   9.262  0.0750  0.3021  0.7226
44884SOL    HW139590  10.978   7.507   9.279  0.0981  0.5032  1.4634
44884SOL    HW239591  10.934   7.645   9.324  0.2010  1.1011 -0.1980
44885SOL     OW39592   4.486   5.063   1.455 -0.0025  0.4207  0.3344
44885SOL    HW139593   4.483   5.101   1.543 -0.4367  1.6279 -0.1830
44885SOL    HW239594   4.521   5.132   1.400  0.1264 -0.2727 -0.4793
44886SOL     OW39595  10.228   0.590   9.327  0.4323  0.2239  0.3860
44886SOL    HW139596  10.317   0.623   9.318  0.9086 -0.8371  1.0623
44886SOL    HW239597  10.218   0.526   9.257 -0.2092  1.1768 -0.4136
44887SOL     OW39598   2.434   7.221  10.198 -0.0821 -0.5153 -0.4012
44887SOL    HW139599   2.443   7.316  10.193  1.7481 -0.5751  0.9165
44887SOL    HW239600   2.343   7.204  10.173 -0.0481  1.4262 -2.1344
44888SOL     OW39601   9.403   1.312   2.782  0.3067 -0.1732 -0.2448
44888SOL    HW139602   9.431   1.248   2.717  0.0321  0.2375 -0.7747
44888SOL    HW239603   9.307   1.310   2.779  0.2468 -1.2272  1.2225
44889SOL     OW39604   6.328   4.597  10.265 -0.0475  0.1017  0.1815
44889SOL    HW139605   6.292   4.636  10.345 -0.6123  2.3523 -1.1091
44889SOL    HW239606   6.274   4.632  10.194  1.2687 -0.7905 -1.3267
44890SOL     OW39607   8.408   7.469   9.820  0.2317  0.5596  0.3548
44890SOL    HW139608   8.370   7.554   9.802  1.1374  0.6946 -1.0954
44890SOL    HW239609   8.445   7.441   9.737 -0.3299 -1.4061  0.7174
44891SOL     OW39610   5.413   3.757   7.130 -0.1502 -0.1023 -0.0780
44891SOL    HW139611   5.407   3.845   7.092  0.0052 -0.5311 -1.1528
44891SOL    HW239612   5.507   3.743   7.142 -0.1620 -0.2036 -0.1035
44892SOL     OW39613   7.782   9.688   7.121 -0.0691 -0.2960 -0.8369
44892SOL    HW139614   7.818   9.626   7.184  0.4467 -0.4335 -1.2703
44892SOL    HW239615   7.842   9.762   7.122  1.0827 -1.1523 -2.6533
44893SOL     OW39616  10.482   9.933  11.096 -0.9408 -0.3142  0.5349
44893SOL    HW139617  10.403   9.960  11.143 -1.7178 -1.6882  0.0803
44893SOL    HW239618  10.454   9.924  11.005  0.2489  1.1135 -0.0119
44894SOL     OW39619   5.569   4.775   1.466  0.0709  0.2696  0.1723
44894SOL    HW139620   5.585   4.867   1.446 -0.9292  1.0676  2.5433
44894SOL    HW239621   5.593   4.728   1.387  2.2962  2.3857 -0.5288
44895SOL     OW39622   2.598   4.813   4.687  0.1707 -0.1909  0.0381
44895SOL    HW139623   2.605   4.719   4.707  2.5592 -0.0990 -0.0951
44895SOL    HW239624   2.652   4.825   4.609 -0.7853  1.1864 -0.4527
44896SOL     OW39625   7.006   1.067   0.496 -0.1607 -0.1072  0.1578
44896SOL    HW139626   6.976   1.034   0.412  1.3222 -1.0168 -0.0645
44896SOL    HW239627   7.065   0.998   0.529  1.1838  1.2792  0.7970
44897SOL     OW39628   3.268   4.334   1.600  0.6404 -0.3116  0.0741
44897SOL    HW139629   3.209   4.271   1.558 -0.4728  0.9621 -0.3239
44897SOL    HW239630   3.297   4.390   1.528  1.0162  0.1043  0.5519
44898SOL     OW39631  10.551   6.778   5.705  0.2684 -0.1427  0.1197
44898SOL    HW139632  10.525   6.687   5.716  1.4321 -0.6256 -0.9914
44898SOL    HW239633  10.638   6.775   5.667 -0.1662  1.4207 -1.1529
44899SOL     OW39634  10.505   4.136   7.740  0.2776  0.0717 -0.4136
44899SOL    HW139635  10.480   4.106   7.653  0.3993 -0.7626 -0.1662
44899SOL    HW239636  10.557   4.065   7.777  0.6374  0.6151  0.1617
44900SOL     OW39637   0.683   9.664   2.676  0.0416 -0.2666  0.0180
44900SOL    HW139638   0.709   9.574   2.657  0.8646  0.3555 -2.1038
44900SOL    HW239639   0.597   9.673   2.634  0.4738  0.2418 -0.7780
44901SOL     OW39640   6.541   6.763   7.217  0.4289 -0.1162 -0.6057
44901SOL    HW139641   6.530   6.721   7.131 -0.4461  0.0963 -0.6034
44901SOL    HW239642   6.502   6.850   7.206  1.4650  0.3951 -0.3621
44902SOL     OW39643   3.210   3.116   6.258  0.0200 -0.0484 -0.1361
44902SOL    HW139644   3.203   3.128   6.163  1.7119  0.1577 -0.2549
44902SOL    HW239645   3.212   3.021   6.270  0.6590 -0.0700 -0.3852
44903SOL     OW39646   2.789   2.501   9.685 -0.1097  0.2654  0.1818
44903SOL    HW139647   2.816   2.409   9.685 -1.0799 -0.0467  1.6860
44903SOL    HW239648   2.694   2.498   9.700 -0.2654  1.5021 -0.4231
44904SOL     OW39649   5.032   0.083   7.224  0.0809  0.0099  0.0692
44904SOL    HW139650   5.029   0.091   7.319 -2.1091  1.6838 -0.0545
44904SOL    HW239651   5.009   0.170   7.192  0.1375 -0.6718 -1.9998
44905SOL     OW39652   6.162  11.366   9.575  0.1317  0.5332 -0.0442
44905SOL    HW139653   6.089  11.415   9.613 -0.2663  0.3800 -0.5996
44905SOL    HW239654   6.240  11.406   9.613 -0.2571 -0.0460  1.4713
44906SOL     OW39655   6.999   3.185   7.893 -0.3523 -0.4585  0.5075
44906SOL    HW139656   6.983   3.160   7.984  1.9568 -1.1387  0.7797
44906SOL    HW239657   7.089   3.160   7.876 -0.0843  1.4471 -1.3916
44907SOL     OW39658   9.157   4.019   5.544  0.0375  0.2467  0.0097
44907SOL    HW139659   9.077   4.050   5.586  0.4779 -0.4407  1.4378
44907SOL    HW239660   9.129   3.981   5.461 -1.0289  0.5644  0.2132
44908SOL     OW39661   3.309   3.440   8.397  0.7160  0.4295 -0.3833
44908SOL    HW139662   3.233   3.460   8.451  0.3104  0.1386 -0.8325
44908SOL    HW239663   3.303   3.346   8.380  1.8172  0.1748  0.5302
44909SOL     OW39664   3.063   2.800   1.118  0.4107  0.7019  0.1390
44909SOL    HW139665   3.154   2.827   1.112  1.2130 -1.6377  0.6369
44909SOL    HW239666   3.043   2.762   1.032  0.6346 -0.7569  0.7045
44910SOL     OW39667  11.177  10.610   7.707  0.6023 -0.9662 -0.2008
44910SOL    HW139668  11.111  10.620   7.776 -0.0825 -0.6260 -0.8913
44910SOL    HW239669  11.127  10.582   7.630  1.0900  0.4267 -1.0564
44911SOL     OW39670   5.783   8.378   1.018  0.0760  0.5603 -0.0851
44911SOL    HW139671   5.748   8.378   0.929  0.3652  0.5545 -0.1976
44911SOL    HW239672   5.837   8.299   1.023 -1.0212 -0.1944  0.5188
44912SOL     OW39673  10.298   4.793   3.295 -0.4139 -0.2411 -0.0600
44912SOL    HW139674  10.358   4.732   3.251  2.5808  1.4959  1.3211
44912SOL    HW239675  10.268   4.745   3.372 -1.5189 -1.4017 -1.1469
44913SOL     OW39676   9.883   2.480   7.933 -0.3048 -0.0329 -0.3560
44913SOL    HW139677   9.791   2.470   7.955 -0.0520 -0.8232  0.3889
44913SOL    HW239678   9.926   2.496   8.016  0.3995 -0.9950 -0.5150
44914SOL     OW39679   5.192   2.325   0.030  0.1633 -0.2423  0.4668
44914SOL    HW139680   5.187   2.419   0.011  0.7829 -0.5457 -1.3504
44914SOL    HW239681   5.103   2.293   0.016  0.5509 -0.4172 -1.9094
44915SOL     OW39682   4.625  10.299   9.695 -0.2559 -0.1676 -0.2604
44915SOL    HW139683   4.630  10.246   9.775  0.4165  1.8431  1.1120
44915SOL    HW239684   4.712  10.290   9.655 -0.7172 -1.4909 -1.0290
44916SOL     OW39685   4.153   3.345   9.484 -0.0069  0.1270  0.0079
44916SOL    HW139686   4.231   3.316   9.438  0.1601  1.0177 -0.2935
44916SOL    HW239687   4.176   3.339   9.577 -1.3326 -4.5173  0.2612
44917SOL     OW39688   2.410   7.034   1.186 -0.1749  0.1496 -0.6197
44917SOL    HW139689   2.426   7.128   1.196 -1.8917  0.2785  1.5252
44917SOL    HW239690   2.325   7.020   1.226 -0.2060 -2.2704 -1.4028
44918SOL     OW39691   1.463   8.634   6.328  0.0379 -0.1804 -0.2288
44918SOL    HW139692   1.534   8.697   6.341 -0.4673  0.2717  0.4020
44918SOL    HW239693   1.496   8.552   6.365  0.4982 -0.1634 -0.5900
44919SOL     OW39694   6.911  10.718  11.460 -0.0666  0.0498  0.0983
44919SOL    HW139695   6.880  10.805  11.488 -0.1454 -0.1108  0.5149
44919SOL    HW239696   7.001  10.714  11.491 -0.6249 -0.7298  1.7125
44920SOL     OW39697   6.287   8.134   3.573 -0.4265  0.6759 -0.1144
44920SOL    HW139698   6.358   8.133   3.509  0.6504 -1.9502  0.9909
44920SOL    HW239699   6.328   8.162   3.654 -1.4813  2.5750 -0.1768
44921SOL     OW39700   2.937   8.580   6.666 -0.4064  0.1043  0.4933
44921SOL    HW139701   2.960   8.509   6.726  0.4729  1.6372  2.0198
44921SOL    HW239702   3.021   8.621   6.645 -0.8231  0.2369 -1.0064
44922SOL     OW39703   8.851   9.772   1.045 -0.5734  0.2725 -0.0177
44922SOL    HW139704   8.867   9.732   0.959  1.9859  1.5966 -0.2611
44922SOL    HW239705   8.834   9.864   1.025 -0.1871  0.5434  0.8574
44923SOL     OW39706  10.300  11.406   0.125  0.4572  0.0981 -0.2038
44923SOL    HW139707  10.281  11.426   0.033 -1.9098 -0.0382  0.2029
44923SOL    HW239708  10.215  11.402   0.167  1.4236 -1.0281  1.7879
44924SOL     OW39709   1.315   8.508   5.099 -0.2070 -0.5614  0.3230
44924SOL    HW139710   1.390   8.550   5.057 -0.9584  0.2801 -0.2039
44924SOL    HW239711   1.320   8.416   5.072  0.7204 -0.5546  0.4331
44925SOL     OW39712  10.600   5.348   4.216  0.6620  0.1443 -0.4044
44925SOL    HW139713  10.551   5.320   4.139  0.9321 -0.5282 -0.3444
44925SOL    HW239714  10.644   5.268   4.246  1.9523  0.7688 -0.5739
44926SOL     OW39715   2.418  11.419  10.348 -0.0470 -0.1842 -0.4180
44926SOL    HW139716   2.361  11.345  10.327 -0.2578 -0.4173  0.9252
44926SOL    HW239717   2.480  11.385  10.411 -2.5667  1.6143  3.4339
44927SOL     OW39718   1.243   2.922   4.786 -0.4671 -0.6154  0.3280
44927SOL    HW139719   1.260   3.012   4.812  1.1081 -0.5495 -0.7681
44927SOL    HW239720   1.262   2.870   4.864  2.8515 -0.3281 -0.1348
44928SOL     OW39721  11.629   5.843  10.323 -0.5343  0.0554 -0.2436
44928SOL    HW139722  11.670   5.866  10.240  0.4991  0.6723  0.4161
44928SOL    HW239723  11.580   5.763  10.305  0.6903 -0.5181 -1.1429
44929SOL     OW39724   2.408  10.491   4.694 -0.3876  0.0241  0.2924
44929SOL    HW139725   2.427  10.584   4.704 -0.9980  0.2982 -0.8813
44929SOL    HW239726   2.338  10.488   4.628 -0.5634 -1.2462  0.5219
44930SOL     OW39727   6.978   7.262   4.471  0.8367 -0.3517 -0.1576
44930SOL    HW139728   6.978   7.229   4.381 -1.2812 -2.9574  0.6710
44930SOL    HW239729   6.886   7.283   4.489  1.2240  0.1403  1.4018
44931SOL     OW39730   8.138   8.406   9.230  0.1212 -0.0610 -0.1839
44931SOL    HW139731   8.096   8.472   9.285  1.9288  2.6023 -1.7806
44931SOL    HW239732   8.226   8.396   9.268 -0.3255 -2.2116  0.4592
44932SOL     OW39733   3.820   7.784   7.283  0.3402 -0.0003  0.1917
44932SOL    HW139734   3.771   7.854   7.239  0.7581 -0.5334 -1.1758
44932SOL    HW239735   3.908   7.820   7.294  0.2303  0.1405  0.6206
44933SOL     OW39736   2.204   4.722   9.130  0.6072  0.1246 -0.0904
44933SOL    HW139737   2.205   4.703   9.224 -0.6396  1.6208  0.2757
44933SOL    HW239738   2.199   4.637   9.088  2.1700 -0.6266  1.1565
44934SOL     OW39739   0.625   0.913   0.305  0.7365  0.0683 -0.3519
44934SOL    HW139740   0.605   0.922   0.212  1.6446 -1.2773 -0.7029
44934SOL    HW239741   0.656   0.999   0.331 -3.2836  1.7148 -0.2571
44935SOL     OW39742   0.434   5.049  10.665 -0.3703 -0.3829  0.0380
44935SOL    HW139743   0.480   5.101  10.731 -0.6975  0.4640 -0.3911
44935SOL    HW239744   0.485   5.062  10.585 -1.3449  0.5807 -0.4484
44936SOL     OW39745   9.367   6.110   5.443 -0.0179 -0.1935  0.2429
44936SOL    HW139746   9.349   6.061   5.362 -1.6056  0.8905 -0.1234
44936SOL    HW239747   9.308   6.070   5.508 -1.2112  1.0498 -0.0223
44937SOL     OW39748   0.044   5.287   1.858 -0.1466 -0.7836 -0.3122
44937SOL    HW139749   0.050   5.312   1.950 -0.9963  0.0095 -0.4623
44937SOL    HW239750  -0.050   5.285   1.839 -0.0791 -2.6542 -0.7206
44938SOL     OW39751   6.241   9.783   5.338 -0.1302  0.0454 -0.3081
44938SOL    HW139752   6.231   9.713   5.402 -1.0614 -0.1647 -0.6703
44938SOL    HW239753   6.295   9.745   5.269  0.8057  0.2453  0.2946
44939SOL     OW39754   9.896   5.433   0.567  0.1402  0.0811  0.4403
44939SOL    HW139755   9.849   5.458   0.488  0.6200 -1.6357 -0.4299
44939SOL    HW239756   9.915   5.340   0.556  3.6628  0.6162  0.7605
44940SOL     OW39757  10.101   4.102   4.395 -0.6795 -0.0931  0.0607
44940SOL    HW139758  10.155   4.037   4.350  0.8934  1.8376 -1.0191
44940SOL    HW239759  10.146   4.115   4.479 -0.5858  0.1168 -0.0228
44941SOL     OW39760   4.370   8.508   2.839  0.2271 -0.5398  0.1374
44941SOL    HW139761   4.414   8.464   2.911  2.8366 -1.2042 -1.7243
44941SOL    HW239762   4.319   8.439   2.796 -1.2797 -0.1555  1.1910
44942SOL     OW39763   3.837   8.552  10.890 -0.3451  0.3278 -1.0721
44942SOL    HW139764   3.763   8.575  10.832  1.1542  2.0369 -2.4235
44942SOL    HW239765   3.914   8.586  10.845  1.1146  0.1323  1.1275
44943SOL     OW39766   9.646   4.622   6.183  0.4756  0.1236 -0.2998
44943SOL    HW139767   9.574   4.635   6.121 -1.1435 -0.5757  1.3381
44943SOL    HW239768   9.649   4.704   6.233  0.7886  0.1294 -0.3277
44944SOL     OW39769   8.879   6.498   8.136 -0.5982 -0.2053  0.2796
44944SOL    HW139770   8.843   6.416   8.102  0.1012 -0.5348  0.3285
44944SOL    HW239771   8.826   6.516   8.213 -1.3608 -0.1188 -0.2513
44945SOL     OW39772   0.486   1.330   4.163 -0.4766  0.0719  0.1464
44945SOL    HW139773   0.493   1.330   4.259 -0.0209  2.6304  0.1855
44945SOL    HW239774   0.563   1.281   4.134 -0.4918 -0.5333  1.0746
44946SOL     OW39775  10.091  10.325   8.904  0.3341  0.0797  0.3518
44946SOL    HW139776  10.063  10.390   8.968  1.4988  0.5063  0.4557
44946SOL    HW239777  10.110  10.246   8.956  1.3917  0.4612  0.5712
44947SOL     OW39778   1.688  11.377   7.722  0.0057 -0.0652  0.1277
44947SOL    HW139779   1.637  11.328   7.657  1.0876  0.4391 -1.1740
44947SOL    HW239780   1.698  11.317   7.795  0.1325 -1.3165 -0.8703
44948SOL     OW39781   1.893  11.018   6.631  0.1781  0.6396  0.0339
44948SOL    HW139782   1.945  11.099   6.634 -0.0259  0.7956 -0.5993
44948SOL    HW239783   1.869  11.008   6.539  1.6432 -1.0713 -0.2243
44949SOL     OW39784   2.420   8.064   7.915  0.8561 -0.0908 -0.2404
44949SOL    HW139785   2.468   8.106   7.986  0.3478  0.5529 -0.2705
44949SOL    HW239786   2.486   8.046   7.849  1.9633 -3.4702  1.5492
44950SOL     OW39787   2.664   1.828   3.894  0.1119 -0.5368  0.0785
44950SOL    HW139788   2.687   1.827   3.801 -2.0852 -0.9894 -0.5049
44950SOL    HW239789   2.660   1.920   3.917  0.8487 -0.4240 -0.2095
44951SOL     OW39790   4.825  11.436   3.678 -0.0684  0.5664  0.6672
44951SOL    HW139791   4.917  11.426   3.699 -0.5246 -1.0496  2.1087
44951SOL    HW239792   4.813  11.385   3.598  0.5334  1.9811 -0.3678
44952SOL     OW39793   8.149   9.516   2.362  0.0316 -0.1969 -0.4632
44952SOL    HW139794   8.174   9.534   2.453 -0.3061 -0.8881 -0.2254
44952SOL    HW239795   8.231   9.516   2.313  0.2064  0.2651 -0.1761
44953SOL     OW39796   6.006   8.469   3.346  0.1583 -0.0825  0.6260
44953SOL    HW139797   6.053   8.451   3.427 -1.2735 -1.9894  1.0833
44953SOL    HW239798   5.914   8.476   3.371 -0.2885 -0.4688 -0.7747
44954SOL     OW39799   1.699   4.611   9.236  0.3972  0.1503 -0.2878
44954SOL    HW139800   1.697   4.521   9.268  0.0098  0.5084  0.7168
44954SOL    HW239801   1.773   4.613   9.174 -0.2123 -1.1050 -1.1032
44955SOL     OW39802   6.455   2.697  10.105  0.3689 -0.1901  0.6459
44955SOL    HW139803   6.361   2.714  10.105  0.5820  1.1135  0.7585
44955SOL    HW239804   6.477   2.684  10.012 -0.0464 -1.3860  0.6955
44956SOL     OW39805   4.485   0.881   9.674  0.4083  0.6766 -0.6423
44956SOL    HW139806   4.524   0.919   9.596  0.9667  1.8701  0.1918
44956SOL    HW239807   4.416   0.942   9.699  0.4451  0.4725 -0.0219
44957SOL     OW39808   0.385   0.703   2.569  0.5393  0.0234  0.3773
44957SOL    HW139809   0.407   0.646   2.495  1.3485 -2.4524  2.4052
44957SOL    HW239810   0.462   0.760   2.579  0.8897 -0.3762  0.0157
44958SOL     OW39811   2.056   8.596   1.702 -0.1558  0.1846  0.2830
44958SOL    HW139812   2.083   8.542   1.629 -0.1196 -0.9514  1.1183
44958SOL    HW239813   2.137   8.622   1.745 -0.1978  0.4893  0.1835
44959SOL     OW39814   7.939  10.212   4.463 -0.2732  0.4213  0.1187
44959SOL    HW139815   7.987  10.257   4.393  0.2206  1.3235  1.0067
44959SOL    HW239816   7.930  10.122   4.432 -1.3625  1.1075 -1.7609
44960SOL     OW39817   0.685   4.796   4.986 -0.2864  0.1396 -0.0065
44960SOL    HW139818   0.701   4.805   5.080 -2.5867 -1.8676  0.6539
44960SOL    HW239819   0.733   4.870   4.947 -1.0628  2.3854  2.9149
44961SOL     OW39820   3.868   3.030  10.000  0.4123  0.4589 -0.4208
44961SOL    HW139821   3.840   3.006  10.088  0.7864  0.5389 -0.2790
44961SOL    HW239822   3.856   2.951   9.948 -1.0329  0.7728 -0.5904
44962SOL     OW39823   8.081   3.729  11.381  0.0799  0.5068 -0.0731
44962SOL    HW139824   8.174   3.744  11.399  0.1850  0.2231 -0.3755
44962SOL    HW239825   8.055   3.661  11.443  0.1113  0.4764 -0.0931
44963SOL     OW39826  11.470   4.040   9.553  0.2521 -0.1661  0.1925
44963SOL    HW139827  11.416   4.040   9.474 -1.2533  0.1762  1.1967
44963SOL    HW239828  11.472   4.132   9.580 -1.3635 -0.5862  1.9279
44964SOL     OW39829  10.136   8.245   3.395 -0.2630  0.1975 -0.4566
44964SOL    HW139830  10.074   8.312   3.367 -0.2475  0.4708  0.1434
44964SOL    HW239831  10.096   8.207   3.474 -0.4173 -0.7087 -0.9572
44965SOL     OW39832   4.839  10.963   1.334  0.2485  0.5552 -0.5517
44965SOL    HW139833   4.839  10.908   1.256  1.0067 -1.0876  0.5360
44965SOL    HW239834   4.920  11.013   1.329 -0.2607  1.3326 -1.3587
44966SOL     OW39835   4.994   4.865  10.021  0.0227 -0.1768 -0.1107
44966SOL    HW139836   5.008   4.771  10.017 -0.4066 -0.2617  0.2350
44966SOL    HW239837   4.929   4.876  10.091 -0.3597  0.3251 -0.5389
44967SOL     OW39838   1.089   4.256   7.410 -0.3585 -0.2001  0.5573
44967SOL    HW139839   1.085   4.227   7.501 -0.2485  1.5095  1.1515
44967SOL    HW239840   1.011   4.219   7.369 -0.6239 -0.6626  1.4597
44968SOL     OW39841   0.984   1.586   5.842 -0.3697 -0.0069 -0.0976
44968SOL    HW139842   1.000   1.513   5.903  0.7791  0.9993  0.8720
44968SOL    HW239843   0.895   1.571   5.810 -0.4482 -1.4134  0.6527
44969SOL     OW39844   8.519   8.345   8.375 -0.4570  0.2622  0.3114
44969SOL    HW139845   8.436   8.371   8.416 -0.7939  0.2518 -0.3534
44969SOL    HW239846   8.549   8.423   8.329 -0.5383  0.0246 -0.1586
44970SOL     OW39847   1.175   9.454   0.672 -0.2236  0.0610  1.1666
44970SOL    HW139848   1.191   9.485   0.761 -1.4069  1.1600  1.0174
44970SOL    HW239849   1.242   9.498   0.619  0.9030 -1.0910  1.5580
44971SOL     OW39850  11.637   8.038   1.530  0.3858  0.5450 -0.1239
44971SOL    HW139851  11.691   7.972   1.572 -0.0952 -0.6317 -1.2837
44971SOL    HW239852  11.695   8.082   1.469  0.4966  0.6244  0.0370
44972SOL     OW39853   3.897  10.612   3.683  0.3364 -0.0428  0.2989
44972SOL    HW139854   3.845  10.662   3.620  1.6530 -1.0926 -1.7342
44972SOL    HW239855   3.985  10.609   3.645  1.2937 -0.4229  2.3977
44973SOL     OW39856   8.939   6.324  11.199  0.5959 -0.1910 -0.1016
44973SOL    HW139857   8.880   6.319  11.123  1.5312  0.4775 -0.9100
44973SOL    HW239858   8.989   6.404  11.183  0.3502  0.3288  1.5887
44974SOL     OW39859   4.083   7.818   2.521 -0.1680  0.3111  0.1054
44974SOL    HW139860   4.127   7.735   2.503  0.2215 -0.0401  2.3961
44974SOL    HW239861   4.035   7.838   2.440  1.8488 -0.7556 -1.4387
44975SOL     OW39862   3.796  10.132   1.661 -0.5456 -0.1038 -0.1817
44975SOL    HW139863   3.724  10.157   1.602 -0.5966  0.1927  0.0033
44975SOL    HW239864   3.827  10.215   1.698 -0.2659 -0.2528 -0.0770
44976SOL     OW39865  11.239   6.003   5.938 -0.4098  0.0483  0.2923
44976SOL    HW139866  11.256   6.087   5.981  1.6668 -0.5137  0.6622
44976SOL    HW239867  11.168   6.021   5.877 -0.4745  1.8953  0.8580
44977SOL     OW39868   2.833   8.504   7.296  0.0221 -0.7046 -0.0415
44977SOL    HW139869   2.811   8.511   7.389  1.7761  2.0845  0.2620
44977SOL    HW239870   2.915   8.454   7.294  1.4680  1.5115  0.2683
44978SOL     OW39871   5.969   8.937   6.008 -0.0681 -0.1582 -0.5244
44978SOL    HW139872   5.997   9.027   6.026 -0.0358 -0.2635 -0.0364
44978SOL    HW239873   5.874   8.942   6.003 -0.3368 -0.5931  2.5542
44979SOL     OW39874   9.766   3.288   1.673  0.0991  0.1661  0.3921
44979SOL    HW139875   9.836   3.224   1.688  0.9626  0.8652 -0.5122
44979SOL    HW239876   9.807   3.373   1.694  0.1010  0.7662 -1.8114
44980SOL     OW39877   9.076  10.379  11.605 -0.1409  0.0177 -0.2816
44980SOL    HW139878   8.999  10.435  11.614 -0.2218 -0.2988  1.3114
44980SOL    HW239879   9.110  10.399  11.518 -2.9383 -1.0353 -1.7399
44981SOL     OW39880  11.253   7.425   6.751 -0.0131 -1.0637  0.0398
44981SOL    HW139881  11.308   7.465   6.683  0.5648 -0.6427  0.7381
44981SOL    HW239882  11.289   7.337   6.762  0.5826 -0.7694  0.5369
44982SOL     OW39883   4.204   1.626   6.097 -0.8329  0.5634 -0.1788
44982SOL    HW139884   4.156   1.552   6.061 -0.3831 -0.0702  0.4891
44982SOL    HW239885   4.137   1.688   6.125 -1.2611 -0.2279  0.5796
44983SOL     OW39886  10.806   1.522  10.365 -0.2080  0.3027 -0.2904
44983SOL    HW139887  10.859   1.589  10.322 -0.6014  0.6733 -0.2044
44983SOL    HW239888  10.717   1.557  10.363 -1.0481 -1.5963 -3.1641
44984SOL     OW39889   5.223   4.743   0.314  0.1700  0.5068 -0.0179
44984SOL    HW139890   5.190   4.833   0.306  0.9518  0.9183  1.0640
44984SOL    HW239891   5.296   4.750   0.376  0.0008 -0.9402  0.3795
44985SOL     OW39892   2.646   4.866   3.852 -0.3727  0.2565 -0.0371
44985SOL    HW139893   2.682   4.945   3.891  0.9379 -1.0873  1.6031
44985SOL    HW239894   2.704   4.846   3.779  0.1309  0.0291  0.4255
44986SOL     OW39895   4.786   6.266   2.913  0.7563  0.3568  0.2748
44986SOL    HW139896   4.813   6.355   2.890 -1.8492  0.8226 -1.4763
44986SOL    HW239897   4.792   6.217   2.831 -1.6540  0.0237  0.2402
44987SOL     OW39898   9.961   0.394   2.398  0.7479 -0.3676 -0.1537
44987SOL    HW139899   9.959   0.476   2.349  0.4343 -0.1837  0.1672
44987SOL    HW239900   9.873   0.357   2.387  1.5259 -1.7868 -2.1882
44988SOL     OW39901   4.294   9.194   2.313  0.4305  0.1727  0.9089
44988SOL    HW139902   4.265   9.109   2.281  0.7506 -0.2515  1.7152
44988SOL    HW239903   4.215   9.233   2.352  0.0575  0.6615 -0.2940
44989SOL     OW39904   3.923  10.845   0.328  0.1563  0.2560  0.2611
44989SOL    HW139905   3.895  10.890   0.407 -1.2275  1.4419 -0.8497
44989SOL    HW239906   3.967  10.911   0.276  0.9826 -0.4915 -0.0214
44990SOL     OW39907   8.979   6.733  11.354 -0.0113 -0.4406 -0.5784
44990SOL    HW139908   8.916   6.685  11.407 -1.3058  1.0177 -0.7346
44990SOL    HW239909   9.049   6.756  11.415  0.6468 -2.4393 -0.4988
44991SOL     OW39910   6.940   3.717   1.949  0.3045  0.1362 -0.4004
44991SOL    HW139911   6.920   3.787   1.887  2.7836  1.5593  0.2486
44991SOL    HW239912   7.004   3.756   2.009  1.9835 -2.7504 -0.1275
44992SOL     OW39913  11.308   1.968   2.047  0.0007 -0.2267 -0.0592
44992SOL    HW139914  11.296   2.020   2.127 -1.8862 -0.0090 -0.4315
44992SOL    HW239915  11.219   1.957   2.013  0.3192 -3.3893 -0.1918
44993SOL     OW39916   3.023   7.674   0.019  0.1727  0.2144 -0.1837
44993SOL    HW139917   2.934   7.705   0.004 -0.9593 -2.8441 -0.5045
44993SOL    HW239918   3.021   7.636   0.107  0.6822 -1.2173 -0.7580
44994SOL     OW39919   9.855   9.593  11.296 -0.5927 -0.1928  0.2870
44994SOL    HW139920   9.772   9.551  11.271 -0.7210  0.4840 -0.4259
44994SOL    HW239921   9.889   9.536  11.366 -0.5986 -1.6854 -0.8714
44995SOL     OW39922   1.429   1.891   9.846 -0.4244  0.1283  0.1843
44995SOL    HW139923   1.489   1.962   9.869 -0.5759  0.9899 -1.8559
44995SOL    HW239924   1.475   1.841   9.779 -1.3166 -0.1786 -0.2128
44996SOL     OW39925  11.172   8.573  10.638  0.1649 -0.1429 -0.3853
44996SOL    HW139926  11.222   8.654  10.638 -2.5323  1.6849 -0.9036
44996SOL    HW239927  11.124   8.575  10.721 -0.6485 -0.6846 -0.8261
44997SOL     OW39928  11.322  10.543   4.161  0.4379 -0.2037  0.5173
44997SOL    HW139929  11.258  10.611   4.182 -1.2036 -1.0758 -1.3079
44997SOL    HW239930  11.404  10.590   4.147 -0.3731  1.2530  0.5062
44998SOL     OW39931   0.357   3.629   5.305 -0.2450 -0.0358  0.0706
44998SOL    HW139932   0.432   3.682   5.280  1.0747 -1.3561  1.1267
44998SOL    HW239933   0.364   3.551   5.250 -0.0959 -0.7462  1.0803
44999SOL     OW39934   7.677   5.679   8.742 -0.2447  0.2506  0.8119
44999SOL    HW139935   7.727   5.711   8.666 -0.5376  0.9264  0.8939
44999SOL    HW239936   7.590   5.658   8.706 -0.2616  0.1892  0.8894
45000SOL     OW39937   7.301  10.592  10.596 -0.0529  0.3898 -0.0593
45000SOL    HW139938   7.301  10.655  10.668 -0.0867 -1.5323  1.6947
45000SOL    HW239939   7.218  10.545  10.605  0.2761 -0.3871 -0.8973
45001SOL     OW39940   0.399   0.175   4.893  0.7144  0.5014 -0.5065
45001SOL    HW139941   0.488   0.173   4.925  0.0574  1.8910  1.6159
45001SOL    HW239942   0.354   0.238   4.949 -1.4852  0.2403 -1.8240
45002SOL     OW39943   1.773  11.684   7.972  0.0636  0.0766 -0.1140
45002SOL    HW139944   1.773  11.737   7.893  0.6647 -0.5035 -0.5031
45002SOL    HW239945   1.691  11.635   7.968  0.4907 -0.6024 -0.8247
45003SOL     OW39946   5.238   7.438   4.570 -0.3022 -0.0745  0.3692
45003SOL    HW139947   5.332   7.437   4.588 -0.1902 -1.2979 -0.2200
45003SOL    HW239948   5.229   7.405   4.481 -1.3898 -1.6419  1.0021
45004SOL     OW39949   6.717  11.140   4.551 -0.0592 -0.2150  0.1734
45004SOL    HW139950   6.633  11.144   4.505  0.0716  2.4130  0.0534
45004SOL    HW239951   6.779  11.110   4.485 -0.4553  0.2576 -0.4182
45005SOL     OW39952   6.602   1.619   9.485 -1.0735 -0.4198  0.5979
45005SOL    HW139953   6.571   1.551   9.424  0.7923  0.1621 -1.1075
45005SOL    HW239954   6.588   1.701   9.439  0.9518 -0.0022  0.6397
45006SOL     OW39955   5.243   9.170   9.962  0.2785  0.1660 -0.6012
45006SOL    HW139956   5.315   9.230   9.947  0.1813  0.0869 -1.4463
45006SOL    HW239957   5.189   9.176   9.883  0.0035 -0.6611 -0.4957
45007SOL     OW39958   6.555  10.072   3.918  0.2212  0.1329  0.1417
45007SOL    HW139959   6.647  10.098   3.927 -0.0141  0.7919  0.8077
45007SOL    HW239960   6.558   9.984   3.882  1.0616  1.0887 -2.3344
45008SOL     OW39961   9.664   7.280   8.847 -0.4798 -0.2488 -0.6509
45008SOL    HW139962   9.636   7.316   8.762 -0.8484 -0.8536 -0.7905
45008SOL    HW239963   9.690   7.357   8.898 -4.0218  0.6176  0.1434
45009SOL     OW39964   3.223   0.928  10.748  0.5005 -0.2865 -0.5976
45009SOL    HW139965   3.251   0.870  10.819  0.0093  1.2732  0.9126
45009SOL    HW239966   3.131   0.945  10.765  0.3146 -0.0539 -1.7491
45010SOL     OW39967   4.809   7.051   1.261 -0.6221  0.1105 -0.5341
45010SOL    HW139968   4.718   7.034   1.282 -0.2714 -1.2770 -0.0129
45010SOL    HW239969   4.848   6.964   1.251  0.7505  0.6644 -0.2598
45011SOL     OW39970   7.074   9.799   7.779  0.1159 -0.0562 -0.3750
45011SOL    HW139971   7.145   9.752   7.823  0.4969  1.0220  0.2154
45011SOL    HW239972   7.000   9.793   7.840  0.8340  1.9921  0.7986
45012SOL     OW39973   1.281   1.737  11.600 -0.1281 -0.0266  0.0964
45012SOL    HW139974   1.260   1.760  11.691  0.3510 -1.2773  0.5371
45012SOL    HW239975   1.376   1.729  11.599 -0.0451  0.9347 -0.7620
45013SOL     OW39976   9.444   9.692   4.550  0.1527 -0.0634 -0.4800
45013SOL    HW139977   9.449   9.597   4.545  0.9916 -0.0079 -0.8370
45013SOL    HW239978   9.388   9.717   4.476 -1.9280 -0.3998  0.8893
45014SOL     OW39979   8.323   2.447   6.173  0.3472 -0.0328 -0.2367
45014SOL    HW139980   8.284   2.516   6.227  1.0976  0.6931 -0.5910
45014SOL    HW239981   8.338   2.375   6.234  1.2434  0.7944  0.5735
45015SOL     OW39982   7.034   4.010   4.696 -0.2962 -0.0018 -0.6408
45015SOL    HW139983   6.968   4.079   4.696 -0.0331  0.2744  0.5657
45015SOL    HW239984   7.096   4.036   4.764  0.0568 -1.1957 -0.4873
45016SOL     OW39985   5.756   8.465   6.530  0.0514  0.4479 -0.0765
45016SOL    HW139986   5.772   8.540   6.586 -0.9484  1.1881 -0.7499
45016SOL    HW239987   5.731   8.395   6.590  1.5492  0.4511  0.6077
45017SOL     OW39988  10.961   6.453   9.685  0.0665 -0.5274  0.1974
45017SOL    HW139989  11.036   6.489   9.637 -0.2585  0.1831  0.2130
45017SOL    HW239990  10.992   6.368   9.717  0.9957 -0.0645  0.5478
45018SOL     OW39991   2.123   3.884  10.791  0.3636 -0.2035 -0.2421
45018SOL    HW139992   2.125   3.928  10.705  0.5068  0.2433 -0.0160
45018SOL    HW239993   2.057   3.816  10.781  2.9181 -2.6531 -1.8970
45019SOL     OW39994   8.895   1.062   0.583 -0.2429 -0.4860 -0.1059
45019SOL    HW139995   8.967   1.020   0.536 -0.1470 -0.4443  0.0060
45019SOL    HW239996   8.901   1.154   0.560  0.9236 -0.1443  1.4267
45020SOL     OW39997   0.675   4.401   1.287  0.0617  0.0919  0.9530
45020SOL    HW139998   0.626   4.347   1.225 -0.6433  0.9393  0.7613
45020SOL    HW239999   0.627   4.483   1.291  1.7269  1.1548  0.3726
45021SOL     OW40000  10.359   3.549   3.005 -0.2363  0.5391  0.0526
45021SOL    HW140001  10.408   3.519   3.082  0.5475  1.6766  0.0086
45021SOL    HW240002  10.402   3.508   2.931 -2.0827 -2.0348  0.2716
45022SOL     OW40003   6.395   8.327  10.812 -0.1840  0.2938 -0.0899
45022SOL    HW140004   6.434   8.396  10.759 -0.4956  0.7305  0.2432
45022SOL    HW240005   6.411   8.247  10.762  0.9628  0.4819 -0.0545
45023SOL     OW40006   4.087   0.015   7.931 -0.2854  0.6977 -0.2278
45023SOL    HW140007   4.049  -0.070   7.952  1.6661  0.1908  1.5572
45023SOL    HW240008   4.045   0.076   7.992  0.3196  0.4908  0.4062
45024SOL     OW40009   7.850  10.056   0.061  0.1666  0.0675  0.0305
45024SOL    HW140010   7.917   9.995   0.034  1.2514  1.5609 -0.7939
45024SOL    HW240011   7.826  10.103  -0.019  0.7491  2.0159  0.9452
45025SOL     OW40012   2.827   7.243   2.108 -0.4862  0.0752  0.1174
45025SOL    HW140013   2.861   7.320   2.063  1.2100 -0.3003  0.6625
45025SOL    HW240014   2.774   7.278   2.180  1.7095  0.8289  1.4607
45026SOL     OW40015   9.464  10.968   5.768  0.1352 -0.0989 -0.0237
45026SOL    HW140016   9.473  10.977   5.863  0.8496 -0.8529 -0.0067
45026SOL    HW240017   9.535  11.022   5.732 -1.7635  2.4256 -0.2535
45027SOL     OW40018   6.274   8.444   3.244 -0.4908 -0.0326 -0.3574
45027SOL    HW140019   6.192   8.398   3.224 -0.8464  0.0817  0.7805
45027SOL    HW240020   6.256   8.535   3.222 -0.7063  0.0107 -0.0051
45028SOL     OW40021   0.685   5.255   1.772 -0.5602 -0.8255  0.1714
45028SOL    HW140022   0.733   5.277   1.851  1.1428 -1.5288 -0.6121
45028SOL    HW240023   0.686   5.160   1.768  1.6746 -0.8312 -1.9276
45029SOL     OW40024   6.479  10.084   4.427  0.1207 -0.2959  0.2838
45029SOL    HW140025   6.520  10.049   4.507 -1.8868 -1.3309  0.9211
45029SOL    HW240026   6.395  10.039   4.422 -0.4050  0.8184 -1.6655
45030SOL     OW40027   4.231   2.192   1.445 -0.0853  0.5572 -0.2651
45030SOL    HW140028   4.308   2.135   1.449 -0.1249  0.5162 -0.0784
45030SOL    HW240029   4.216   2.206   1.352  0.0109  0.3790 -0.3073
45031SOL     OW40030   9.519   5.820   3.428 -0.2703  0.0095 -0.0214
45031SOL    HW140031   9.597   5.765   3.424  0.8805  1.6408 -0.9091
45031SOL    HW240032   9.499   5.827   3.521  0.3758 -0.7719  0.1863
45032SOL     OW40033   7.038   5.095   6.863 -0.2967  0.4860  0.3246
45032SOL    HW140034   6.961   5.054   6.824 -0.0014 -0.3492  0.5838
45032SOL    HW240035   7.064   5.035   6.934 -0.0690  1.3127  0.9686
45033SOL     OW40036   0.173   3.510   2.962  0.6925 -0.0392  0.5270
45033SOL    HW140037   0.215   3.460   2.892  1.9578 -0.1671  1.3307
45033SOL    HW240038   0.239   3.513   3.031  0.5423  2.4908  0.6392
45034SOL     OW40039   6.456  11.585   4.706 -0.5380  0.1159  0.0450
45034SOL    HW140040   6.460  11.661   4.648 -1.5998 -0.5711 -0.9835
45034SOL    HW240041   6.411  11.518   4.655 -1.2729 -0.6185  1.5700
45035SOL     OW40042   8.132   2.187  10.191 -0.9147  0.0351  0.8030
45035SOL    HW140043   8.202   2.196  10.255  1.0773  0.5964 -1.3034
45035SOL    HW240044   8.093   2.274  10.184 -0.7294  0.1188  0.8157
45036SOL     OW40045   5.521   8.898   7.053 -0.4712  0.0650 -0.1349
45036SOL    HW140046   5.588   8.965   7.038  2.5882 -1.9340  3.0584
45036SOL    HW240047   5.542   8.828   6.991  2.7089 -1.8963  2.8235
45037SOL     OW40048   0.381   8.743   7.873 -0.5858 -0.1740  0.1957
45037SOL    HW140049   0.382   8.711   7.783 -0.4750  1.4113 -0.4054
45037SOL    HW240050   0.420   8.673   7.925 -0.5446 -1.0628 -1.0035
45038SOL     OW40051   1.075   5.132   8.377  0.3415 -0.6917  0.0795
45038SOL    HW140052   1.080   5.211   8.432  0.5089 -1.5035  1.2591
45038SOL    HW240053   1.106   5.061   8.433  0.3863 -1.5807 -1.0327
45039SOL     OW40054  10.306   6.675   3.734  0.0666 -0.8164  0.7483
45039SOL    HW140055  10.383   6.685   3.790 -0.3217 -2.6437  1.6734
45039SOL    HW240056  10.273   6.588   3.754 -0.3895 -1.3748 -1.9751
45040SOL     OW40057   5.296   1.097   2.109  1.0310 -0.5030  0.1456
45040SOL    HW140058   5.356   1.024   2.121  2.5600  0.9707  1.9798
45040SOL    HW240059   5.212   1.056   2.087  1.6476 -2.8619  1.8695
45041SOL     OW40060   8.465   2.825  10.434 -0.8122  0.3120 -0.3875
45041SOL    HW140061   8.550   2.787  10.408 -0.0264  1.7507 -0.0123
45041SOL    HW240062   8.420   2.753  10.478  1.5650  0.3588  2.3914
45042SOL     OW40063   2.345   0.737   2.132 -0.2665 -0.5763  0.2705
45042SOL    HW140064   2.326   0.819   2.178 -0.1539 -0.5696  0.3057
45042SOL    HW240065   2.298   0.744   2.049  1.8737  0.7017 -0.9321
45043SOL     OW40066  10.804   0.997   6.459  0.2544  0.4442 -0.6097
45043SOL    HW140067  10.725   1.050   6.470 -0.1765 -0.2971  0.0099
45043SOL    HW240068  10.876   1.059   6.469 -0.2466  1.0035 -0.4123
45044SOL     OW40069   9.360  10.217   5.661  0.3898  0.0507  0.0333
45044SOL    HW140070   9.373  10.278   5.588 -1.4332 -0.1808 -0.5290
45044SOL    HW240071   9.306  10.147   5.625  0.6621 -0.8025  1.2382
45045SOL     OW40072  11.520   6.081  10.844 -0.2180 -0.4715  0.4533
45045SOL    HW140073  11.537   6.148  10.910  0.0371  1.0555 -1.0914
45045SOL    HW240074  11.541   5.998  10.887  1.5002  0.5982  1.7777
45046SOL     OW40075   1.564   0.612   6.536  0.1626 -0.3605 -0.1712
45046SOL    HW140076   1.538   0.521   6.551  0.9022 -0.4812  0.4429
45046SOL    HW240077   1.618   0.608   6.457  2.4185 -0.9115  1.3036
45047SOL     OW40078   1.458  10.364   1.187 -0.9111 -0.2911  0.0940
45047SOL    HW140079   1.387  10.381   1.126 -0.7340 -0.3013 -0.1142
45047SOL    HW240080   1.467  10.268   1.187  0.3256 -0.2011 -1.2782
45048SOL     OW40081   1.098  11.572   7.157 -0.4248 -0.5413 -0.8103
45048SOL    HW140082   1.014  11.584   7.113 -0.0556  1.1831 -1.1240
45048SOL    HW240083   1.106  11.648   7.215  0.5287 -1.1347 -0.1309
45049SOL     OW40084  11.456   0.865   1.927  0.5509  0.2440  0.3257
45049SOL    HW140085  11.417   0.789   1.882  0.9899  0.0967  0.1838
45049SOL    HW240086  11.496   0.915   1.856  0.3394  0.5633  0.4329
45050SOL     OW40087   2.406   7.328   1.123  0.2451 -0.6661  0.6881
45050SOL    HW140088   2.428   7.408   1.076  0.1879  0.4558  2.4594
45050SOL    HW240089   2.314   7.340   1.148 -0.2722 -2.0478 -0.4053
45051SOL     OW40090   4.075   9.388   8.226 -0.5001 -0.6072 -0.4624
45051SOL    HW140091   4.139   9.383   8.155  0.8753 -2.7131  0.8341
45051SOL    HW240092   4.095   9.471   8.271  0.4866 -0.6394 -0.8339
45052SOL     OW40093  10.596   1.600   3.430  0.3446 -0.3845 -0.4999
45052SOL    HW140094  10.587   1.648   3.347  0.8313  2.2977  0.8698
45052SOL    HW240095  10.506   1.590   3.462  0.2648  0.2541 -0.5072
45053SOL     OW40096   0.867   8.237   7.943  0.9282 -0.0022 -0.3965
45053SOL    HW140097   0.960   8.225   7.923  0.5457 -2.6971 -0.8806
45053SOL    HW240098   0.821   8.188   7.875 -0.7595 -0.8718  1.2857
45054SOL     OW40099   8.086   1.592   0.944 -0.2652  0.6404 -0.7304
45054SOL    HW140100   8.119   1.563   1.029  0.2995  1.1436 -0.7709
45054SOL    HW240101   7.997   1.623   0.962  0.2823  1.8782 -0.0848
45055SOL     OW40102  11.617   7.960  10.424 -0.6481  0.6231 -0.1291
45055SOL    HW140103  11.569   7.911  10.358 -0.5565  0.8653 -0.3798
45055SOL    HW240104  11.667   8.025  10.373  2.9366 -1.9754 -0.3200
45056SOL     OW40105   3.109   2.111   5.387 -0.5381 -0.5664 -0.1943
45056SOL    HW140106   3.111   2.137   5.295  2.6760 -0.4568 -0.2170
45056SOL    HW240107   3.133   2.019   5.387 -1.4136 -0.8165  0.5168
45057SOL     OW40108   4.475   3.192  10.085  0.2036 -0.2497  0.2321
45057SOL    HW140109   4.398   3.218  10.033 -0.0581  0.4951  0.9684
45057SOL    HW240110   4.478   3.256  10.156  1.2486 -0.5482  0.4676
45058SOL     OW40111   0.191  11.341   4.170  0.4191  0.0139 -0.0909
45058SOL    HW140112   0.283  11.358   4.192  0.5492 -0.0032 -0.6215
45058SOL    HW240113   0.150  11.324   4.255  1.0068 -0.4661  0.1069
45059SOL     OW40114   2.803   6.645   9.405 -0.1228  0.1105 -0.3520
45059SOL    HW140115   2.795   6.591   9.484 -0.8339  0.1527 -0.3910
45059SOL    HW240116   2.724   6.627   9.355 -0.3741  1.2000 -0.3626
45060SOL     OW40117   0.307   0.767   9.934 -0.0197 -0.1374  0.0157
45060SOL    HW140118   0.302   0.672   9.948 -0.8956 -0.1910 -0.6053
45060SOL    HW240119   0.286   0.779   9.841 -1.6760  0.8076  0.4758
45061SOL     OW40120   3.790   8.344   6.719  0.7274  0.2723 -0.5436
45061SOL    HW140121   3.855   8.304   6.662  0.1881  0.9740 -1.7017
45061SOL    HW240122   3.813   8.437   6.720  1.3378  0.1298  1.2455
45062SOL     OW40123   7.720   2.910  10.654  0.2019  0.0999  0.1043
45062SOL    HW140124   7.696   2.982  10.711  0.6011  1.5416 -1.4711
45062SOL    HW240125   7.637   2.877  10.620  0.0405  0.0001  0.5895
45063SOL     OW40126   9.531   8.828   4.164 -0.0830 -0.2755  0.4701
45063SOL    HW140127   9.515   8.902   4.105 -0.0318 -1.1704 -0.7072
45063SOL    HW240128   9.624   8.832   4.183  0.1667 -0.6893 -0.5551
45064SOL     OW40129   1.036   7.980   7.696  0.2485 -0.7967  0.0492
45064SOL    HW140130   1.083   8.024   7.767  0.4846 -0.7596 -0.1286
45064SOL    HW240131   0.945   7.978   7.725  0.4040 -1.1170  0.5192
45065SOL     OW40132   5.020   9.977   0.368  0.2171 -0.5103 -0.0535
45065SOL    HW140133   5.054  10.056   0.326 -1.9312  0.4528 -0.1170
45065SOL    HW240134   5.001  10.005   0.458 -1.6118 -0.5939 -0.3822
45066SOL     OW40135   9.179   9.449  11.269 -0.5246 -0.0800  0.0917
45066SOL    HW140136   9.170   9.537  11.305  3.1152  0.2923  0.3749
45066SOL    HW240137   9.135   9.392  11.333 -0.7393  1.2699  1.1911
45067SOL     OW40138   2.731   3.202   7.336 -0.5620 -0.5455  0.3448
45067SOL    HW140139   2.674   3.233   7.406  0.0507 -0.6683  0.9163
45067SOL    HW240140   2.676   3.202   7.258 -1.3055 -0.5557  0.8569
45068SOL     OW40141   2.172   3.392   3.756  0.5404  0.1215 -0.6372
45068SOL    HW140142   2.153   3.415   3.666 -0.5491 -0.0447 -0.4653
45068SOL    HW240143   2.257   3.348   3.753  0.7013  0.4887 -1.5154
45069SOL     OW40144   5.307   9.561   4.506  0.1247 -0.6121  0.2831
45069SOL    HW140145   5.398   9.538   4.525  0.1565  0.7387  1.9255
45069SOL    HW240146   5.313   9.639   4.451 -0.0469 -0.8083 -0.0188
45070SOL     OW40147   6.766   2.856   7.716 -0.3805  0.2039  0.5159
45070SOL    HW140148   6.695   2.842   7.778 -1.6362 -1.3298 -1.1739
45070SOL    HW240149   6.753   2.789   7.649  2.2027  0.4058 -0.2757
45071SOL     OW40150   8.177   5.357  10.318  0.0910 -0.5202 -0.4230
45071SOL    HW140151   8.234   5.391  10.387  0.1321 -0.0422 -0.6907
45071SOL    HW240152   8.173   5.263  10.335 -2.6822 -0.0729  2.3747
45072SOL     OW40153   2.094   5.420   4.975 -0.2083 -0.1947  0.1492
45072SOL    HW140154   2.083   5.486   5.043  0.1674 -0.6765  0.6834
45072SOL    HW240155   2.045   5.454   4.900  0.7893  1.1572  0.0902
45073SOL     OW40156   6.268   6.498   4.137 -0.6098 -0.0784 -0.0408
45073SOL    HW140157   6.278   6.592   4.121 -0.0459 -0.0357  0.5425
45073SOL    HW240158   6.225   6.492   4.222  1.4395 -0.3507  1.0361
45074SOL     OW40159  10.467   9.545   5.634  0.0597 -0.0323  0.1308
45074SOL    HW140160  10.442   9.504   5.717 -0.9268  0.2419 -0.0095
45074SOL    HW240161  10.549   9.502   5.609  0.6204  0.2096  1.4736
45075SOL     OW40162   0.499   1.108   3.637  0.2906 -0.0354  0.3174
45075SOL    HW140163   0.530   1.028   3.595  0.9633  0.0418  0.6463
45075SOL    HW240164   0.498   1.088   3.730  0.3538  0.2995  0.3913
45076SOL     OW40165  11.054   7.135   1.443  0.2572 -0.3983 -0.0212
45076SOL    HW140166  11.099   7.059   1.479 -0.1931 -1.1884 -1.0619
45076SOL    HW240167  11.098   7.211   1.482  0.9616 -1.1850  0.7356
45077SOL     OW40168   1.682   0.988   2.950  0.1745  0.3820  0.2115
45077SOL    HW140169   1.684   1.073   2.905  3.7265 -0.4936 -1.6348
45077SOL    HW240170   1.722   1.005   3.035 -1.8768  1.0334  1.1178
45078SOL     OW40171   1.118   2.150   6.995 -0.6613  0.1265 -0.2309
45078SOL    HW140172   1.144   2.058   7.001  1.4542  0.7403  0.9791
45078SOL    HW240173   1.054   2.161   7.066  0.1447 -0.0981  0.5424
45079SOL     OW40174   3.141   6.495  10.559 -0.2613 -0.7699  0.7730
45079SOL    HW140175   3.127   6.519  10.467  0.2811  1.1860  1.1609
45079SOL    HW240176   3.229   6.527  10.579 -0.6413 -0.5182  2.1580
45080SOL     OW40177   1.513   5.580   3.201 -0.3916 -0.0257  0.1195
45080SOL    HW140178   1.462   5.515   3.153 -1.8919  1.0988  0.1250
45080SOL    HW240179   1.597   5.583   3.155 -0.6371 -1.2560 -0.4561
45081SOL     OW40180   1.467   9.587   6.490  0.3788 -0.2153 -0.3671
45081SOL    HW140181   1.379   9.623   6.478 -0.1596 -0.7258  1.6586
45081SOL    HW240182   1.492   9.555   6.403 -1.3798  0.0435 -1.0066
45082SOL     OW40183  10.649   5.857   3.434 -0.1489 -1.0824  0.6629
45082SOL    HW140184  10.674   5.941   3.474 -1.5042 -0.3464  0.0289
45082SOL    HW240185  10.717   5.796   3.462  0.3196 -0.0019  1.9677
45083SOL     OW40186   9.556   5.569   8.633  0.3970 -0.7218 -0.1570
45083SOL    HW140187   9.465   5.579   8.660  0.4730  0.6168 -0.3395
45083SOL    HW240188   9.565   5.475   8.613 -1.2228 -0.7030 -1.1639
45084SOL     OW40189   2.853  10.940   1.684 -0.7142 -0.1952  0.2750
45084SOL    HW140190   2.877  10.872   1.620 -3.1175  1.0842 -2.1848
45084SOL    HW240191   2.931  10.950   1.738  0.9970 -2.3375 -1.5701
45085SOL     OW40192   4.900   5.807   6.033  0.6788 -0.4595 -0.1952
45085SOL    HW140193   4.909   5.722   5.989 -1.3421 -0.4599 -0.6865
45085SOL    HW240194   4.813   5.838   6.009  2.0085  2.6552 -1.5761
45086SOL     OW40195  10.278   4.986   7.870  0.1871 -0.3549  0.2367
45086SOL    HW140196  10.217   5.055   7.842  0.3786 -0.1565  0.2973
45086SOL    HW240197  10.346   4.986   7.802  2.1124  1.9862  1.9587
45087SOL     OW40198   4.429  10.142   1.181 -0.0426 -0.1790 -0.6616
45087SOL    HW140199   4.334  10.127   1.175 -0.0183 -0.7334  0.1645
45087SOL    HW240200   4.441  10.186   1.265  0.1325  2.6973 -2.1028
45088SOL     OW40201   4.537   8.601   9.442  0.1413  0.2938 -0.3351
45088SOL    HW140202   4.554   8.695   9.452  0.8977  0.1710 -0.4325
45088SOL    HW240203   4.533   8.568   9.532 -0.4108  0.4638 -0.2929
45089SOL     OW40204   7.160  10.371   9.276 -0.3056  0.1817 -0.4499
45089SOL    HW140205   7.138  10.457   9.240  2.0244  1.7587  1.5723
45089SOL    HW240206   7.192  10.390   9.364  1.4435 -2.6669 -0.3680
45090SOL     OW40207   4.035   1.185   3.557  0.0804  0.1872 -0.0539
45090SOL    HW140208   4.016   1.259   3.615 -1.5933 -0.5881  0.4512
45090SOL    HW240209   4.127   1.197   3.532 -0.1837  2.5188 -0.1347
45091SOL     OW40210   4.455   9.746   5.487 -0.0098  0.0254 -0.5140
45091SOL    HW140211   4.375   9.797   5.503 -0.5055 -0.2944 -1.8682
45091SOL    HW240212   4.523   9.812   5.472  0.0853  0.3063  0.9271
45092SOL     OW40213   4.816   2.665   5.901  0.4838  0.0532 -0.0604
45092SOL    HW140214   4.746   2.700   5.956  0.0074  0.4100 -0.8855
45092SOL    HW240215   4.837   2.580   5.940  0.2823  0.3841  0.7823
45093SOL     OW40216   4.323   5.424   7.676  0.1167  0.1468 -0.1408
45093SOL    HW140217   4.290   5.334   7.680  1.0728 -0.2726 -1.1314
45093SOL    HW240218   4.408   5.416   7.633  0.3172  1.5055 -0.0241
45094SOL     OW40219   5.325   5.772   2.190 -1.1580  0.4368 -0.5689
45094SOL    HW140220   5.307   5.683   2.162  0.6697 -0.1353 -0.0985
45094SOL    HW240221   5.389   5.762   2.261  0.2910  2.1492 -1.5555
45095SOL     OW40222   8.303   7.617  10.093 -0.1481 -0.4514  0.2535
45095SOL    HW140223   8.293   7.543  10.032 -0.2104 -1.4387  1.4229
45095SOL    HW240224   8.230   7.608  10.153  1.3808 -1.1199  2.1093
45096SOL     OW40225   1.994   5.310   7.325 -0.1745 -0.3185 -0.1277
45096SOL    HW140226   1.951   5.277   7.404 -0.7192  0.0042 -0.2869
45096SOL    HW240227   1.949   5.266   7.253  0.9797 -1.3838 -0.2398
45097SOL     OW40228   3.668   2.835   8.127 -0.1034  0.9579 -0.4797
45097SOL    HW140229   3.626   2.807   8.046 -2.0170 -1.3341  1.1446
45097SOL    HW240230   3.723   2.760   8.152  0.1117  1.4429  0.5489
45098SOL     OW40231  11.237   1.525   0.511  0.0657 -0.5176  0.1237
45098SOL    HW140232  11.301   1.580   0.556  0.0359 -1.0067  0.7849
45098SOL    HW240233  11.289   1.466   0.457  0.0977  0.1434 -0.5860
45099SOL     OW40234  10.046   2.979   6.687  0.7593 -0.2150  0.1492
45099SOL    HW140235  10.101   2.953   6.761  0.0311  0.4444  0.9328
45099SOL    HW240236   9.994   2.900   6.668  0.2099 -0.0756  1.0183
45100SOL     OW40237   3.142   9.340  10.657  0.2766 -0.1928 -0.4569
45100SOL    HW140238   3.203   9.295  10.598 -0.9441 -1.9713 -0.4664
45100SOL    HW240239   3.083   9.270  10.687 -0.0008  0.9173  1.7828
45101SOL     OW40240   8.471   4.440   5.534 -0.5240 -0.0517  0.5226
45101SOL    HW140241   8.514   4.366   5.491 -1.0512 -0.4072  0.6045
45101SOL    HW240242   8.543   4.490   5.573 -0.2809 -1.3360  1.7505
45102SOL     OW40243   7.640   5.711   1.336  0.1855 -0.2370  0.1804
45102SOL    HW140244   7.555   5.675   1.362 -1.4866  3.0128 -0.2275
45102SOL    HW240245   7.618   5.792   1.289  3.5469  1.4057  1.1402
45103SOL     OW40246   2.542   8.812   9.396  0.0201 -0.5004  0.2262
45103SOL    HW140247   2.568   8.756   9.469  0.5700 -0.9546 -0.2940
45103SOL    HW240248   2.471   8.865   9.429  1.3583  0.5039  1.6152
45104SOL     OW40249   2.292   6.581   6.787 -0.4057 -0.0246  0.0330
45104SOL    HW140250   2.211   6.630   6.795 -0.1594  0.3676  0.1436
45104SOL    HW240251   2.269   6.504   6.734 -0.9111 -0.0721  0.3241
45105SOL     OW40252   3.422  11.631   6.195  0.4089  0.0030 -0.1468
45105SOL    HW140253   3.368  11.553   6.185 -0.7197  0.5598  1.2645
45105SOL    HW240254   3.408  11.659   6.286  2.2456  0.7891 -0.0431
45106SOL     OW40255   4.998   3.588   9.830 -0.1339  0.4550 -0.1098
45106SOL    HW140256   5.069   3.552   9.883 -0.1738  0.0026 -0.3668
45106SOL    HW240257   4.918   3.561   9.875 -0.1553  0.6292 -0.0408
45107SOL     OW40258   1.321   1.490  11.351 -0.1626  0.2038  0.5094
45107SOL    HW140259   1.256   1.502  11.281 -1.2062  0.9191  1.5627
45107SOL    HW240260   1.301   1.405  11.389  1.8421 -1.2568 -1.4565
45108SOL     OW40261   1.276   0.475   2.023  0.0432  0.3083  0.1333
45108SOL    HW140262   1.346   0.437   2.076 -0.0779  1.1790  0.9350
45108SOL    HW240263   1.197   0.428   2.051  0.0608  0.4110  0.3601
45109SOL     OW40264  10.778   5.598   5.719  0.4397  0.6259 -0.3539
45109SOL    HW140265  10.772   5.554   5.804  0.8495 -1.7211 -1.4403
45109SOL    HW240266  10.867   5.577   5.688  0.0216  0.7529 -1.6954
45110SOL     OW40267   3.316   6.926   3.555 -0.3595 -0.2422  0.4927
45110SOL    HW140268   3.379   6.998   3.560 -0.8243  0.1244  1.3362
45110SOL    HW240269   3.292   6.921   3.463  2.0242 -1.3803 -0.1375
45111SOL     OW40270   7.482   9.989   7.993 -0.4225  0.5649 -0.9575
45111SOL    HW140271   7.483  10.084   7.993  0.7505  0.5813  0.3938
45111SOL    HW240272   7.559   9.963   7.942  1.8809  0.4498  2.3082
45112SOL     OW40273   6.713   8.765   3.356  0.2640  0.0418  0.4602
45112SOL    HW140274   6.643   8.732   3.411  0.5233 -0.3335  0.5710
45112SOL    HW240275   6.696   8.726   3.270  0.0549  0.3486  0.3646
45113SOL     OW40276   7.374  11.514   0.178  0.1826 -0.4134  0.3230
45113SOL    HW140277   7.359  11.606   0.200 -0.2919  0.0666 -1.8239
45113SOL    HW240278   7.446  11.487   0.236  1.2981  1.7108  0.0409
45114SOL     OW40279   0.649   9.944   2.775  0.1440 -0.5080  0.0226
45114SOL    HW140280   0.559   9.945   2.741  0.0732 -0.1531  0.2163
45114SOL    HW240281   0.676   9.853   2.767  0.0561 -0.4710 -0.7917
45115SOL     OW40282   8.420   2.134  10.806  0.4328 -0.0312 -0.1472
45115SOL    HW140283   8.485   2.081  10.851 -0.3183 -1.8401 -1.0745
45115SOL    HW240284   8.449   2.224  10.818  2.0955 -0.6777  0.9869
45116SOL     OW40285   1.189  11.024   2.917 -0.6574  0.3681  0.0868
45116SOL    HW140286   1.264  11.032   2.859 -0.5868 -0.4033  0.0610
45116SOL    HW240287   1.206  11.086   2.988  0.6765 -0.7744  0.7994
45117SOL     OW40288   9.272   8.507   3.868 -0.0187  0.0780  0.4560
45117SOL    HW140289   9.178   8.486   3.864  0.0907 -0.2615 -0.8503
45117SOL    HW240290   9.279   8.568   3.941 -1.5840  1.6274 -0.5943
45118SOL     OW40291   0.854   7.317   1.217  0.6564 -1.0691 -0.4287
45118SOL    HW140292   0.787   7.256   1.249  0.0309 -2.3256 -3.7568
45118SOL    HW240293   0.813   7.403   1.221  0.8307 -1.0282  2.4381
45119SOL     OW40294   6.674   3.002   6.752 -0.7231 -0.4143  0.0611
45119SOL    HW140295   6.587   2.991   6.790 -0.7234  0.2445  0.2614
45119SOL    HW240296   6.663   2.979   6.660 -1.3551  0.7056 -0.1549
45120SOL     OW40297   9.648   5.648   7.711 -1.0871 -0.0245 -0.4166
45120SOL    HW140298   9.728   5.699   7.707 -1.8783  1.4324  1.0841
45120SOL    HW240299   9.596   5.678   7.636 -0.0222 -1.4549 -1.7897
45121SOL     OW40300   8.128   0.333   8.254  0.3667  0.4514  0.1760
45121SOL    HW140301   8.191   0.384   8.202 -0.5476  1.8554  0.3784
45121SOL    HW240302   8.117   0.252   8.205  3.5128 -0.5768  0.9399
45122SOL     OW40303   0.617   3.745   7.224 -0.0342  0.4543 -0.5431
45122SOL    HW140304   0.667   3.798   7.162  0.3678  2.9105  1.6715
45122SOL    HW240305   0.677   3.674   7.247  1.4932  1.8491  0.0603
45123SOL     OW40306   8.485   9.032   3.331  0.2830  0.0336 -0.1257
45123SOL    HW140307   8.396   9.063   3.346  0.2805 -0.5606  1.1981
45123SOL    HW240308   8.513   9.078   3.252 -0.7663  1.1213  0.1076
45124SOL     OW40309   3.319   2.436  10.040 -0.4691  0.1742 -0.1277
45124SOL    HW140310   3.226   2.429  10.061 -0.5898  1.0280 -0.3426
45124SOL    HW240311   3.360   2.367  10.092 -0.8695  1.5672  2.2260
45125SOL     OW40312   1.770   9.400  10.234 -0.1635 -0.0884  0.6578
45125SOL    HW140313   1.729   9.376  10.317 -3.2560  0.0079 -0.7134
45125SOL    HW240314   1.786   9.494  10.242 -0.9492  0.0240  0.9533
45126SOL     OW40315   3.233   3.153   9.574  0.5793 -0.4100  0.5338
45126SOL    HW140316   3.264   3.096   9.503 -0.8152  0.0405 -0.5024
45126SOL    HW240317   3.252   3.242   9.543 -0.3286 -0.1970  0.5670
45127SOL     OW40318   6.214   7.310   3.134  0.1455 -0.1201  0.4219
45127SOL    HW140319   6.285   7.277   3.078  0.2010 -0.0178  0.4312
45127SOL    HW240320   6.259   7.357   3.205  0.0814 -0.4637  0.6906
45128SOL     OW40321   4.534   3.947   7.698  0.3964 -0.2723  0.3310
45128SOL    HW140322   4.571   3.867   7.663  0.6743 -0.1349  0.3099
45128SOL    HW240323   4.587   4.017   7.659 -0.2539 -0.0460 -0.1721
45129SOL     OW40324   2.012  10.099   1.778 -0.2940 -0.1318 -0.1308
45129SOL    HW140325   2.028  10.127   1.688  2.3116  0.8962  0.5459
45129SOL    HW240326   1.942  10.155   1.810 -0.3617  0.3640 -1.1349
45130SOL     OW40327   7.189   3.977   9.842  0.0628  0.4043 -0.2839
45130SOL    HW140328   7.186   4.000   9.935  0.2083  0.3052 -0.2538
45130SOL    HW240329   7.113   3.920   9.828  0.6634 -0.4926  0.0258
45131SOL     OW40330   3.465   0.405  11.306 -0.5531  0.5158  0.2836
45131SOL    HW140331   3.411   0.480  11.332 -0.4455  0.8286 -0.3630
45131SOL    HW240332   3.543   0.412  11.360 -0.1926  1.3298 -0.3162
45132SOL     OW40333   3.868   7.443   9.161 -0.0502  0.0914  0.2371
45132SOL    HW140334   3.838   7.478   9.078 -1.1346 -0.7082  0.2778
45132SOL    HW240335   3.876   7.349   9.147 -2.1199 -0.3517  1.5400
45133SOL     OW40336   8.239   3.776   5.009  0.0371 -0.1451 -0.0142
45133SOL    HW140337   8.157   3.773   4.960  0.1735  0.5464 -0.2889
45133SOL    HW240338   8.245   3.866   5.041  0.9109 -0.0676 -0.3685
45134SOL     OW40339   3.986   4.938   8.375  0.0314 -0.3014  0.0810
45134SOL    HW140340   4.061   4.894   8.414 -0.3870 -0.2934  0.9206
45134SOL    HW240341   3.910   4.891   8.410 -0.3573 -0.2160 -0.6421
45135SOL     OW40342   5.750   2.002   0.324 -0.4923 -0.6331  0.3966
45135SOL    HW140343   5.714   1.919   0.292  0.4982 -0.8811 -0.1162
45135SOL    HW240344   5.720   2.007   0.414 -2.6871 -0.3149 -0.2828
45136SOL     OW40345   0.937   4.992   4.666 -0.0691 -0.3370  0.5886
45136SOL    HW140346   0.989   4.935   4.723 -1.6328 -1.4495  0.9769
45136SOL    HW240347   0.870   4.934   4.630  1.5891 -0.0039 -3.5161
45137SOL     OW40348   1.489  10.240   7.863 -0.7840 -0.0042 -0.5030
45137SOL    HW140349   1.445  10.320   7.834  0.0831  0.2741 -1.1245
45137SOL    HW240350   1.421  10.173   7.863 -2.1182  1.1779  2.3358
45138SOL     OW40351   8.030   5.591   7.863  0.3487 -0.4993  0.2172
45138SOL    HW140352   7.938   5.597   7.838  0.3202  2.0421  0.6645
45138SOL    HW240353   8.076   5.573   7.782 -0.4450 -0.7434 -0.1927
45139SOL     OW40354  10.611   3.797   2.306 -0.3138  0.3901 -0.4600
45139SOL    HW140355  10.588   3.715   2.262 -3.0781  0.9720 -0.3002
45139SOL    HW240356  10.651   3.769   2.388 -1.1646 -0.8346 -0.4226
45140SOL     OW40357   6.401   8.527   2.151 -0.5896 -0.3809 -0.4085
45140SOL    HW140358   6.412   8.620   2.170 -3.2759 -0.4940  2.4592
45140SOL    HW240359   6.389   8.523   2.056 -0.7341  2.2319 -0.5729
45141SOL     OW40360   7.005  11.358   3.392 -0.1644  0.7742  0.0624
45141SOL    HW140361   6.974  11.426   3.453  2.5989  3.3765 -1.1824
45141SOL    HW240362   6.972  11.386   3.307  1.2288  0.7324 -0.5072
45142SOL     OW40363  10.082   7.477   0.496  0.0598  0.5932 -0.2255
45142SOL    HW140364  10.167   7.438   0.517 -1.0039 -1.9978 -0.3370
45142SOL    HW240365  10.080   7.558   0.547  1.5158 -0.6107  1.9343
45143SOL     OW40366   1.986   0.548   4.995  0.2363  0.4702  0.5493
45143SOL    HW140367   1.978   0.489   5.070  1.0090 -0.7586 -0.2826
45143SOL    HW240368   1.929   0.510   4.928 -0.1167  1.3088  0.3589
45144SOL     OW40369   5.243   1.256   3.147  0.4112  0.0978  0.5725
45144SOL    HW140370   5.258   1.244   3.053 -2.5362  0.2701 -0.0156
45144SOL    HW240371   5.297   1.189   3.189  2.5796  0.6754 -1.1350
45145SOL     OW40372   4.353   3.306   2.318  0.3273  0.4192 -0.5828
45145SOL    HW140373   4.429   3.266   2.277  0.5096  0.3932 -0.2296
45145SOL    HW240374   4.321   3.240   2.380  0.5878  0.7860 -0.0434
45146SOL     OW40375   0.478  10.858   4.308  0.0178 -0.6336  0.1369
45146SOL    HW140376   0.418  10.797   4.352 -0.9011  0.1723  0.0318
45146SOL    HW240377   0.557  10.806   4.292 -0.8227 -1.8676 -0.1639
45147SOL     OW40378   0.297   2.443   1.452  0.3280  0.0367  0.3506
45147SOL    HW140379   0.308   2.536   1.433 -1.3815  0.1228 -0.3158
45147SOL    HW240380   0.358   2.400   1.392 -1.5678  0.5616 -2.1241
45148SOL     OW40381   5.571  11.558   3.227 -0.3248 -0.2998  0.2413
45148SOL    HW140382   5.485  11.599   3.232  0.4709  1.4198  0.4826
45148SOL    HW240383   5.592  11.534   3.318  0.1097  0.7393  0.4258
45149SOL     OW40384  10.932   4.515   5.842 -0.1834 -0.3558 -0.1549
45149SOL    HW140385  11.016   4.546   5.808 -0.9485  0.5051 -1.3521
45149SOL    HW240386  10.936   4.420   5.833  0.7336 -0.3315 -0.0312
45150SOL     OW40387   2.283   9.264   7.818  0.2261 -0.1366  0.5363
45150SOL    HW140388   2.189   9.250   7.810  0.3015  0.2792 -1.2914
45150SOL    HW240389   2.315   9.184   7.860 -0.7249 -1.0051 -0.3569
45151SOL     OW40390   6.770   8.101   1.525  0.0760  0.2968 -0.5605
45151SOL    HW140391   6.750   8.007   1.530  1.2193  0.0405 -0.6728
45151SOL    HW240392   6.684   8.142   1.519 -0.4199 -0.8742 -2.5014
45152SOL     OW40393   6.457   7.459   8.258 -0.2567  0.4489  0.8400
45152SOL    HW140394   6.513   7.440   8.183  0.1402  0.3949  1.1449
45152SOL    HW240395   6.408   7.537   8.232 -1.0606 -0.3069  0.0277
45153SOL     OW40396   8.659  11.156   7.603 -0.6100  0.3361  0.4326
45153SOL    HW140397   8.654  11.250   7.616  1.0494  0.4945  0.1655
45153SOL    HW240398   8.630  11.142   7.513  0.4761  0.7838 -0.0092
45154SOL     OW40399   2.410   5.033   2.645  0.7296  0.2308 -0.3455
45154SOL    HW140400   2.500   5.032   2.613  0.0056  0.6613 -2.5692
45154SOL    HW240401   2.411   4.978   2.723  2.3607 -2.1886 -1.9620
45155SOL     OW40402   0.793   2.634   0.182  0.2940  0.4810 -0.8579
45155SOL    HW140403   0.775   2.617   0.274 -0.5788 -0.7626 -1.2278
45155SOL    HW240404   0.793   2.547   0.142 -1.0410  1.1178 -2.3305
45156SOL     OW40405   0.117   9.180   6.524 -0.0591 -0.1978 -0.3618
45156SOL    HW140406   0.140   9.090   6.502  2.4698  0.0648  0.8234
45156SOL    HW240407   0.091   9.219   6.440  3.2488 -0.8553 -1.8659
45157SOL     OW40408   8.949   3.937  10.955  0.1704 -0.6425 -0.6342
45157SOL    HW140409   8.931   3.843  10.955  1.3615 -0.9023  0.7687
45157SOL    HW240410   9.041   3.944  10.982 -0.4411  1.0032  1.1873
45158SOL     OW40411   9.116   8.990   5.882  0.0156  0.3762  0.2792
45158SOL    HW140412   9.097   8.946   5.800 -1.6705 -1.1205  1.3908
45158SOL    HW240413   9.173   8.929   5.930 -0.3093  0.5062  0.8400
45159SOL     OW40414   7.324   2.537   9.944  0.4806  0.4638 -0.3330
45159SOL    HW140415   7.319   2.631   9.962  0.3797  0.1891  1.2598
45159SOL    HW240416   7.235   2.506   9.959  0.8523 -0.1202  0.7816
45160SOL     OW40417   5.251   0.453   2.051  0.2932 -0.0757  0.0538
45160SOL    HW140418   5.236   0.387   1.983  0.8559  0.8455 -1.0007
45160SOL    HW240419   5.167   0.499   2.058 -1.0219 -2.5507  2.7480
45161SOL     OW40420  11.496   8.668   6.844 -0.0538  0.0247  0.2660
45161SOL    HW140421  11.533   8.583   6.868 -0.8310 -0.7010 -0.9751
45161SOL    HW240422  11.549   8.732   6.891 -1.3601 -1.2285  3.6864
45162SOL     OW40423   3.497   4.998   2.226 -0.1527  0.4895  0.6289
45162SOL    HW140424   3.421   4.978   2.172 -0.9817  1.0427  1.5674
45162SOL    HW240425   3.556   4.923   2.213 -1.2950 -0.4483  0.6809
45163SOL     OW40426   9.160   5.625   7.155  0.2192 -0.0906 -0.0900
45163SOL    HW140427   9.072   5.647   7.124  0.0635 -1.8576 -1.0646
45163SOL    HW240428   9.173   5.535   7.126  2.2932  0.0742  0.2013
45164SOL     OW40429   1.566   2.339   2.028 -0.2885 -0.2401 -0.3561
45164SOL    HW140430   1.532   2.279   2.094 -0.7530 -1.8403 -1.9629
45164SOL    HW240431   1.630   2.287   1.979 -0.0747  0.8434 -1.2791
45165SOL     OW40432  10.909  10.286   8.733  0.0054  0.4775  0.0511
45165SOL    HW140433  10.943  10.197   8.733  3.3027  1.5873  0.9631
45165SOL    HW240434  10.888  10.303   8.825  0.7403  1.0634  0.1197
45166SOL     OW40435  10.128   4.966   8.126 -0.2581  0.3799  0.8232
45166SOL    HW140436  10.154   5.005   8.043 -1.8111 -2.3929 -1.1462
45166SOL    HW240437  10.207   4.925   8.160 -0.0676 -0.3579 -0.4736
45167SOL     OW40438  11.440   2.183   4.389 -0.1439 -0.4950  0.1017
45167SOL    HW140439  11.462   2.159   4.300 -1.3668  0.8553 -0.6034
45167SOL    HW240440  11.524   2.185   4.435  0.4961 -1.1776 -1.0216
45168SOL     OW40441   9.358   3.687   3.947  0.0552  0.2521 -0.7212
45168SOL    HW140442   9.410   3.760   3.912 -0.6347  1.5065  0.7360
45168SOL    HW240443   9.307   3.726   4.018 -1.0663 -1.4679 -0.5232
45169SOL     OW40444   9.451   4.123   9.559  0.0563 -0.1252  0.6346
45169SOL    HW140445   9.401   4.131   9.640  0.1049 -0.2118  0.6727
45169SOL    HW240446   9.529   4.176   9.573 -0.7535  1.3049  0.0034
45170SOL     OW40447   3.506   0.076   0.345 -0.0445  0.3804 -0.0514
45170SOL    HW140448   3.521   0.050   0.254  2.3449 -0.2850  0.4403
45170SOL    HW240449   3.532   0.168   0.349  0.7716  0.1563  0.1069
45171SOL     OW40450   6.157   7.995   4.433  0.1741  0.0178 -0.4317
45171SOL    HW140451   6.111   8.075   4.459  0.3939  0.4422 -1.3183
45171SOL    HW240452   6.198   7.963   4.513 -1.2642 -0.1033  0.2847
45172SOL     OW40453  11.687   9.584  10.684 -0.9097 -0.1448  0.4164
45172SOL    HW140454  11.734   9.664  10.662 -1.2937 -0.7032 -3.0388
45172SOL    HW240455  11.731   9.551  10.763  1.4727  1.6755 -0.0256
45173SOL     OW40456   8.911  10.384   9.704  0.0375  0.3345 -0.1060
45173SOL    HW140457   8.915  10.376   9.800 -0.3359 -1.7321 -0.2245
45173SOL    HW240458   8.850  10.457   9.689 -1.1454 -0.3174  1.2309
45174SOL     OW40459   1.531   5.421   2.741 -0.1526 -0.4596 -0.1390
45174SOL    HW140460   1.554   5.328   2.734  0.0418 -0.4109 -0.1411
45174SOL    HW240461   1.512   5.447   2.651  0.9319 -0.2050 -0.3138
45175SOL     OW40462   3.492   5.528   4.031 -0.4640  0.0988 -0.4021
45175SOL    HW140463   3.443   5.460   3.985 -1.3759  0.1707  0.4310
45175SOL    HW240464   3.463   5.522   4.122  1.6632 -0.3722  0.3147
45176SOL     OW40465   5.764   1.101   6.249  0.0932 -0.0371  0.6815
45176SOL    HW140466   5.731   1.131   6.164  0.7869 -0.9019  0.0966
45176SOL    HW240467   5.832   1.165   6.272  1.2968 -0.8935 -0.3786
45177SOL     OW40468   9.848  10.027   6.274 -0.4525 -0.1396 -0.0545
45177SOL    HW140469   9.809  10.088   6.336 -0.1918  0.2108 -0.2310
45177SOL    HW240470   9.787  10.025   6.200 -1.1039 -1.0763  0.4944
45178SOL     OW40471  10.544   5.760  10.141  0.0701 -0.2184  0.1456
45178SOL    HW140472  10.450   5.779  10.139  0.6077  3.0111 -0.0690
45178SOL    HW240473  10.559   5.705  10.064 -1.4743  0.2224 -0.5125
45179SOL     OW40474   6.623   7.205   4.768  0.3396  0.0132  0.0818
45179SOL    HW140475   6.620   7.145   4.694  1.1956 -0.3529  0.3258
45179SOL    HW240476   6.654   7.288   4.731  0.4958 -0.0889 -0.0174
45180SOL     OW40477   5.993   2.340   3.266  0.2446 -0.5740 -0.0079
45180SOL    HW140478   6.011   2.333   3.172 -1.0967  0.0023 -0.3230
45180SOL    HW240479   6.044   2.415   3.295  1.4994 -1.3783 -0.0298
45181SOL     OW40480   4.225   2.796   6.181  0.4047  0.2270 -0.4351
45181SOL    HW140481   4.295   2.775   6.243  0.6438  1.0387 -0.4157
45181SOL    HW240482   4.158   2.730   6.197 -0.3797  1.4857  2.0149
45182SOL     OW40483   5.273   0.290   1.813 -0.0218  0.0496 -0.1888
45182SOL    HW140484   5.249   0.198   1.826 -1.6325  0.2047 -1.7383
45182SOL    HW240485   5.369   0.288   1.807 -0.0037 -1.4792  0.0051
45183SOL     OW40486  11.236   6.155  11.394 -0.2477  0.0392 -0.3576
45183SOL    HW140487  11.328   6.175  11.405 -0.3251 -0.0991  0.6451
45183SOL    HW240488  11.233   6.090  11.324  0.4212 -0.0420 -0.3096
45184SOL     OW40489   5.651   7.613   7.648 -0.1439 -0.4077 -0.0806
45184SOL    HW140490   5.614   7.606   7.736 -0.6419  0.8914 -0.1669
45184SOL    HW240491   5.679   7.704   7.641 -2.9044  0.4245 -2.3130
45185SOL     OW40492   6.918   9.201   4.548  0.1473 -0.0046  0.1843
45185SOL    HW140493   6.928   9.279   4.494 -0.4485 -0.2938 -0.3525
45185SOL    HW240494   6.850   9.149   4.504 -0.3144 -0.2673  1.1712
45186SOL     OW40495  11.612   2.115  11.521 -0.4700 -0.6612 -0.1046
45186SOL    HW140496  11.651   2.136  11.606  0.1158 -0.8152 -0.3335
45186SOL    HW240497  11.607   2.199  11.475 -1.1770 -0.5106  0.2393
45187SOL     OW40498   8.328   6.107   3.594 -0.0807  0.1653  0.0198
45187SOL    HW140499   8.346   6.024   3.637  0.1669 -0.3843 -1.0913
45187SOL    HW240500   8.332   6.086   3.500  3.5896  2.0780 -0.4428
45188SOL     OW40501   1.768   8.317   2.015 -0.0261 -0.0689 -0.2117
45188SOL    HW140502   1.823   8.337   1.940 -0.0634  0.5757 -0.0806
45188SOL    HW240503   1.810   8.363   2.088 -0.4449  0.0020 -0.0096
45189SOL     OW40504   9.450   9.594   7.665 -0.1787  0.8553  0.7560
45189SOL    HW140505   9.510   9.558   7.730  0.8691  1.8342  0.3517
45189SOL    HW240506   9.453   9.689   7.679  1.0659  1.2195 -1.5275
45190SOL     OW40507   2.292   6.517   7.283  0.0012  0.9194 -0.0602
45190SOL    HW140508   2.277   6.424   7.270  1.4049  0.5589  0.7393
45190SOL    HW240509   2.204   6.554   7.295 -0.6227 -0.1717 -0.9976
45191SOL     OW40510   8.728   0.733   8.443 -0.5112 -0.3264  0.0233
45191SOL    HW140511   8.717   0.827   8.457  1.0298  0.0744 -1.1556
45191SOL    HW240512   8.654   0.708   8.388 -0.2518  0.4712 -0.7077
45192SOL     OW40513   4.834  10.476   3.510  0.3754  0.1234 -0.2773
45192SOL    HW140514   4.807  10.453   3.421 -0.3439  3.1395 -0.9219
45192SOL    HW240515   4.769  10.433   3.566 -0.0313 -0.5976 -1.2688
45193SOL     OW40516   5.440   9.157   8.476 -0.0478  0.0371  0.3125
45193SOL    HW140517   5.490   9.239   8.483 -1.7326  1.0797  0.7267
45193SOL    HW240518   5.392   9.151   8.559 -0.5574 -0.9730 -0.0398
45194SOL     OW40519  11.628   4.603   9.787  0.1512  0.1332  0.1153
45194SOL    HW140520  11.601   4.695   9.783  0.6303  0.4324  2.4540
45194SOL    HW240521  11.722   4.606   9.803  0.5277 -0.8273 -1.7174
45195SOL     OW40522   1.708   4.663   2.734  0.1657  0.0242  0.0981
45195SOL    HW140523   1.796   4.669   2.696  0.8634 -0.3077  1.5557
45195SOL    HW240524   1.650   4.697   2.666  1.4009  0.1020 -0.9656
45196SOL     OW40525   6.407   6.330   3.631  0.4568 -0.0948  0.4874
45196SOL    HW140526   6.489   6.302   3.672  0.9577  0.4487 -0.1169
45196SOL    HW240527   6.350   6.353   3.704  1.0140 -0.0093  0.9012
45197SOL     OW40528   1.264   5.759   7.917  0.2978 -0.5258 -0.2003
45197SOL    HW140529   1.317   5.689   7.957  0.1647 -0.5160 -0.0039
45197SOL    HW240530   1.321   5.797   7.850  0.9406  0.1636  0.6949
45198SOL     OW40531   0.876   5.346   1.949 -0.0187 -0.1504 -0.0019
45198SOL    HW140532   0.906   5.376   1.864 -2.0271  2.2538  0.0464
45198SOL    HW240533   0.951   5.359   2.007  0.7040  0.1611 -0.9782
45199SOL     OW40534  11.069   4.015   4.867  0.5817 -0.3080  0.0101
45199SOL    HW140535  10.975   3.996   4.859  0.5094 -1.2313  2.1689
45199SOL    HW240536  11.079   4.102   4.830 -1.1877 -0.0912 -0.0549
45200SOL     OW40537   9.270   4.455   9.260 -0.2693 -0.3633  0.1023
45200SOL    HW140538   9.324   4.377   9.269  0.9525  0.4930  0.3676
45200SOL    HW240539   9.331   4.528   9.266 -1.2199  0.6076 -1.3460
45201SOL     OW40540   9.970   2.065   2.543 -0.1802  0.1759 -0.0297
45201SOL    HW140541   9.903   2.072   2.476  0.9186  0.9226 -1.1060
45201SOL    HW240542  10.050   2.099   2.501  0.8077 -0.4191  1.2776
45202SOL     OW40543   7.224   9.230   6.494  0.3556  0.7325  0.3240
45202SOL    HW140544   7.247   9.275   6.575  1.7681 -0.1332  0.4240
45202SOL    HW240545   7.293   9.253   6.432  0.0104  0.3008 -0.2390
45203SOL     OW40546   6.271   6.916   6.255  0.0181 -0.3710 -0.1838
45203SOL    HW140547   6.197   6.859   6.231  0.4498 -1.3502  0.7245
45203SOL    HW240548   6.316   6.932   6.172 -0.0614 -1.4413 -0.4501
45204SOL     OW40549   8.251   2.983   8.889 -0.0328  0.0067 -0.0501
45204SOL    HW140550   8.280   2.986   8.980 -0.3475  1.0958  0.0310
45204SOL    HW240551   8.264   2.892   8.862 -0.0174 -0.3486  1.1072
45205SOL     OW40552   0.781   5.265   7.947 -0.0462 -0.3623 -0.9078
45205SOL    HW140553   0.817   5.324   7.881  1.9950  1.6835  1.7997
45205SOL    HW240554   0.726   5.321   8.001  1.7818 -0.8905  1.6477
45206SOL     OW40555   8.029   2.004   0.061 -0.3302 -0.5529 -0.0310
45206SOL    HW140556   8.102   1.973   0.114  0.7083  0.0745 -1.0410
45206SOL    HW240557   8.038   2.100   0.063  0.6321 -0.5172 -2.4680
45207SOL     OW40558   0.571   5.121   6.198  0.7736  0.2930 -1.0081
45207SOL    HW140559   0.536   5.035   6.223  1.2203  0.4784  0.3391
45207SOL    HW240560   0.496   5.167   6.161 -0.6683  0.8639  2.2593
45208SOL     OW40561  10.446   9.030   6.587 -0.5235 -0.2971 -0.3262
45208SOL    HW140562  10.504   8.956   6.568 -0.3343 -0.5839  1.2344
45208SOL    HW240563  10.395   9.002   6.662 -1.2468  0.7507 -0.4026
45209SOL     OW40564   0.363   8.916   1.581 -0.0837 -0.2454  0.1361
45209SOL    HW140565   0.277   8.941   1.614  0.6244  0.8422  1.2248
45209SOL    HW240566   0.364   8.947   1.490 -1.1786 -1.1210 -0.1820
45210SOL     OW40567   3.791   9.845   3.797 -0.0086  0.6441  0.2968
45210SOL    HW140568   3.851   9.772   3.782 -0.3781  0.5734 -1.0230
45210SOL    HW240569   3.800   9.899   3.718 -1.7919  0.5219 -0.0370
45211SOL     OW40570  11.671   8.353   2.094 -0.3456  0.5041  0.5889
45211SOL    HW140571  11.586   8.396   2.086 -0.6920 -0.0003  1.4514
45211SOL    HW240572  11.662   8.271   2.046 -0.0767  0.8086 -0.0004
45212SOL     OW40573   3.790   0.546   6.317  0.1921  0.4888 -0.8469
45212SOL    HW140574   3.814   0.634   6.288  0.5472  0.4808 -0.5918
45212SOL    HW240575   3.844   0.531   6.395  0.3410 -0.0631 -1.0517
45213SOL     OW40576   9.147   8.877  10.936  0.1417 -0.4160 -0.3936
45213SOL    HW140577   9.079   8.857  10.999 -0.5649 -2.0427 -1.6018
45213SOL    HW240578   9.229   8.856  10.981 -0.2538 -0.0199  0.5123
45214SOL     OW40579   6.757   3.954   9.934 -0.6525  0.2041 -0.7375
45214SOL    HW140580   6.746   4.049   9.931 -2.5288  0.1581  1.7921
45214SOL    HW240581   6.670   3.919   9.915 -0.1693 -0.9781 -0.8187
45215SOL     OW40582   5.462   3.039   9.542 -0.7671 -0.0509  0.1624
45215SOL    HW140583   5.462   3.018   9.635 -0.9542 -0.8685 -0.0180
45215SOL    HW240584   5.501   2.963   9.500 -1.1816  0.0826 -0.4800
45216SOL     OW40585  11.586   9.792   9.056  0.1622 -1.0945  0.0588
45216SOL    HW140586  11.645   9.841   9.114  1.5558 -2.9776  0.3344
45216SOL    HW240587  11.531   9.742   9.116 -1.7155  0.5467 -0.2030
45217SOL     OW40588   9.950  11.018  11.392 -0.3504 -0.1792 -0.3320
45217SOL    HW140589   9.936  10.961  11.468  1.1839  1.0200  0.9262
45217SOL    HW240590   9.871  11.072  11.388 -1.1489 -1.3295 -0.6161
45218SOL     OW40591   4.490   5.089   1.752  0.0188 -0.2501 -0.1023
45218SOL    HW140592   4.515   4.998   1.767  0.4302  0.2445  3.0426
45218SOL    HW240593   4.572   5.138   1.761 -0.2370  0.4871 -1.4896
45219SOL     OW40594   9.013   1.271   4.788  0.1373  0.7366  0.2591
45219SOL    HW140595   9.047   1.236   4.870 -1.1940 -0.0876  0.4832
45219SOL    HW240596   9.074   1.341   4.765  2.0874 -0.7879  0.5193
45220SOL     OW40597   2.394   1.365   5.388  0.1502  0.0452 -0.4216
45220SOL    HW140598   2.406   1.448   5.434 -1.1991 -0.1713  0.3640
45220SOL    HW240599   2.300   1.358   5.373  0.2430 -1.2968 -0.5618
45221SOL     OW40600   8.178  11.024   6.256 -0.5711 -0.3096 -0.1571
45221SOL    HW140601   8.181  11.052   6.164  0.6025 -0.6837 -0.2461
45221SOL    HW240602   8.174  10.929   6.252  0.6316 -0.3948  0.1657
45222SOL     OW40603   8.348   4.588   4.141  0.7328 -0.0658 -0.6354
45222SOL    HW140604   8.407   4.607   4.214 -0.1630  0.3937 -0.0095
45222SOL    HW240605   8.324   4.496   4.153  1.1714 -0.2027 -0.7896
45223SOL     OW40606   4.900   6.795   0.347  0.3594 -0.2375 -0.4247
45223SOL    HW140607   4.873   6.762   0.262 -0.4354 -0.1125 -0.2286
45223SOL    HW240608   4.823   6.783   0.403  0.6198  0.3771  0.0755
45224SOL     OW40609   2.729   6.817   8.494 -0.4130  0.0480 -0.5310
45224SOL    HW140610   2.824   6.826   8.498 -0.4608  1.0153 -1.1240
45224SOL    HW240611   2.706   6.848   8.406 -1.3570  0.8335 -0.0247
45225SOL     OW40612   5.123   0.619   8.447  0.3305 -0.3716  0.7313
45225SOL    HW140613   5.212   0.592   8.424  0.5289  0.0072  1.0451
45225SOL    HW240614   5.110   0.589   8.537  0.7539  1.0205  1.2858
45226SOL     OW40615   9.699   3.010   6.871 -0.0900 -0.4093 -0.1916
45226SOL    HW140616   9.787   3.042   6.893  0.3927 -1.8696  0.1269
45226SOL    HW240617   9.656   3.000   6.956 -1.4687  2.5504 -0.4178
45227SOL     OW40618   3.490  10.850   2.407  1.0806  0.0232  0.1584
45227SOL    HW140619   3.467  10.779   2.348  0.9288 -0.6682  1.0375
45227SOL    HW240620   3.567  10.891   2.366 -0.9772  1.7453 -2.3055
45228SOL     OW40621   1.505   8.192   5.526 -0.1144 -0.2164 -0.0229
45228SOL    HW140622   1.581   8.148   5.563 -1.0609 -1.2460  0.8075
45228SOL    HW240623   1.460   8.230   5.602 -0.5886  0.0936 -0.4508
45229SOL     OW40624   1.070   1.409  10.674 -0.1735  0.5403  0.6225
45229SOL    HW140625   1.001   1.413  10.740 -0.0414 -0.6181  0.8473
45229SOL    HW240626   1.057   1.324  10.630  1.8948 -0.3339  1.5626
45230SOL     OW40627   2.812   9.077   8.746  0.0827  0.0863  0.1393
45230SOL    HW140628   2.849   9.165   8.750 -1.2241  0.7458 -1.3375
45230SOL    HW240629   2.760   9.069   8.826  1.2191  0.1324  0.9147
45231SOL     OW40630   3.528   4.186   3.587  0.3019 -0.0242 -0.8135
45231SOL    HW140631   3.539   4.138   3.668 -0.1485 -1.6179 -1.6514
45231SOL    HW240632   3.585   4.141   3.524  0.2092  0.8121 -1.5216
45232SOL     OW40633   6.119   0.875   3.880 -0.1742  0.1623  0.1776
45232SOL    HW140634   6.108   0.939   3.950 -1.3492  2.2022 -1.7396
45232SOL    HW240635   6.209   0.889   3.848 -0.4485  0.9478 -0.2770
45233SOL     OW40636   1.645   1.662   8.609  0.4661 -0.5692  0.1915
45233SOL    HW140637   1.729   1.678   8.652  0.9413  0.3510 -1.0308
45233SOL    HW240638   1.663   1.590   8.548  0.0314 -1.2479  0.8598
45234SOL     OW40639   2.649   2.166   9.026 -0.3749 -0.4956 -0.2484
45234SOL    HW140640   2.607   2.080   9.027 -0.0339 -0.6647 -0.2110
45234SOL    HW240641   2.590   2.221   8.974 -0.0716 -1.0313 -1.1978
45235SOL     OW40642   3.008  10.229   0.572 -0.1648  0.7545 -0.0048
45235SOL    HW140643   3.080  10.184   0.616  0.4363  1.8517  0.1579
45235SOL    HW240644   3.011  10.196   0.482  0.3681  0.5918  0.0693
45236SOL     OW40645   4.390  11.558   4.915  0.5703  0.1306  0.3477
45236SOL    HW140646   4.419  11.513   4.835 -1.4996 -2.4388  0.9302
45236SOL    HW240647   4.404  11.495   4.985  0.6635  1.6751  1.7787
45237SOL     OW40648  10.709  10.148   6.609 -0.6144  0.5779  0.2252
45237SOL    HW140649  10.715  10.217   6.675  5.1053  1.0416 -0.3110
45237SOL    HW240650  10.732  10.068   6.657  0.2564  0.3613 -0.5422
45238SOL     OW40651   9.164  10.170   1.385  0.1956  0.5028 -0.1625
45238SOL    HW140652   9.213  10.215   1.454 -2.5650  1.2784  1.4618
45238SOL    HW240653   9.116  10.239   1.341  0.3751 -0.2433 -1.5765
45239SOL     OW40654   7.401   6.544   9.652  0.4087 -0.9603 -0.0972
45239SOL    HW140655   7.423   6.546   9.559  0.3667  0.5704 -0.0947
45239SOL    HW240656   7.308   6.567   9.655  1.3211  3.5549  0.5080
45240SOL     OW40657   1.657   9.446   0.785 -0.0381  0.3338  0.1642
45240SOL    HW140658   1.599   9.477   0.854 -0.2528  1.9901 -0.7066
45240SOL    HW240659   1.738   9.495   0.797  0.5024 -0.5512  0.2075
45241SOL     OW40660   8.958   9.089   2.345 -0.2442  0.5365  0.0822
45241SOL    HW140661   9.002   9.126   2.269 -1.6857  1.2264 -0.4562
45241SOL    HW240662   8.929   9.002   2.316 -2.4784  1.5354 -0.8655
45242SOL     OW40663  10.962   4.093   2.401  0.2521  0.2237  0.8654
45242SOL    HW140664  10.942   4.102   2.494 -0.5476  1.7034  0.5840
45242SOL    HW240665  10.989   4.180   2.373  0.2420 -0.1317 -0.3387
45243SOL     OW40666   4.477   7.753   9.479 -0.2175  0.3080  0.2014
45243SOL    HW140667   4.384   7.744   9.499 -0.0703  1.0792  1.3123
45243SOL    HW240668   4.482   7.746   9.384 -1.2190 -1.2888  0.2265
45244SOL     OW40669   0.426   0.810  11.075  0.1622 -0.3539 -0.1760
45244SOL    HW140670   0.432   0.855  10.991 -0.5548  0.4722  0.2080
45244SOL    HW240671   0.341   0.767  11.074 -0.9816  1.6931  1.0776
45245SOL     OW40672   4.604   0.059   9.763 -0.3946  0.4460  0.3567
45245SOL    HW140673   4.562  -0.023   9.738  0.7863  0.1958 -0.9402
45245SOL    HW240674   4.534   0.112   9.801 -2.1103  0.3731 -2.4341
45246SOL     OW40675   5.163   0.235   1.440 -0.6012 -0.0957 -0.0038
45246SOL    HW140676   5.186   0.202   1.353 -0.2473  1.5114 -0.5530
45246SOL    HW240677   5.241   0.217   1.493 -1.6719 -3.3190  0.7268
45247SOL     OW40678   3.908   9.238   8.993 -0.8305 -0.3076 -0.3792
45247SOL    HW140679   3.935   9.151   8.965 -1.3709 -1.0264  1.2146
45247SOL    HW240680   3.881   9.282   8.912  0.4439 -1.2214 -1.3523
45248SOL     OW40681  11.478   8.379   4.970 -0.0762 -0.1079  0.1012
45248SOL    HW140682  11.511   8.292   4.948  0.3365  0.2259 -0.6122
45248SOL    HW240683  11.404   8.363   5.029 -0.0926 -0.9396 -0.1473
45249SOL     OW40684   0.715   9.349   4.287 -0.3986 -0.6488  0.2359
45249SOL    HW140685   0.687   9.343   4.378 -0.2690  0.6105  0.3704
45249SOL    HW240686   0.658   9.415   4.248  0.7776  0.2016 -0.0957
45250SOL     OW40687   5.660   8.524   1.751 -0.5170  0.1286 -0.2571
45250SOL    HW140688   5.677   8.430   1.745  1.6330  0.4596 -0.2006
45250SOL    HW240689   5.596   8.532   1.822  0.1433 -1.2280  0.5371
45251SOL     OW40690  11.628   2.857   7.754 -0.0442  0.4551  0.2994
45251SOL    HW140691  11.540   2.837   7.721 -0.1175 -1.3388  1.4493
45251SOL    HW240692  11.662   2.773   7.785  1.3098  1.4675  1.7075
45252SOL     OW40693   5.060   5.893   9.758  0.1417  0.6678 -0.2824
45252SOL    HW140694   5.131   5.952   9.783  0.8704 -0.7198  1.1063
45252SOL    HW240695   5.052   5.832   9.831 -1.9193  0.2368 -0.7836
45253SOL     OW40696   3.842   1.869   4.066  0.2917  0.0374 -0.1337
45253SOL    HW140697   3.857   1.847   4.158 -0.5239  0.8549  0.2106
45253SOL    HW240698   3.793   1.794   4.031 -1.5695  0.7638  0.7622
45254SOL     OW40699   9.323   9.835   7.386  0.3170 -0.3035 -0.0511
45254SOL    HW140700   9.332   9.826   7.481 -1.0210  2.6634  0.4962
45254SOL    HW240701   9.400   9.885   7.359  0.5932 -0.9636 -0.4917
45255SOL     OW40702  11.659   4.598   9.018  0.1501  0.3157 -0.1586
45255SOL    HW140703  11.648   4.506   8.992  0.0316  0.2064  0.2715
45255SOL    HW240704  11.592   4.645   8.969 -0.8711 -0.0519  0.8336
45256SOL     OW40705   6.470   9.618   0.293  0.1501 -0.5254 -0.1697
45256SOL    HW140706   6.477   9.578   0.380 -2.8488 -2.3136 -0.6090
45256SOL    HW240707   6.392   9.672   0.298  0.5318  0.1840 -1.4817
45257SOL     OW40708   4.467   9.771   8.546  0.0712 -0.0747  0.3409
45257SOL    HW140709   4.454   9.753   8.639  2.0841 -0.2944  0.6229
45257SOL    HW240710   4.542   9.716   8.522  0.6722  1.2808 -0.9766
45258SOL     OW40711   1.023   5.238   9.074 -0.4067 -0.2425 -0.2568
45258SOL    HW140712   0.967   5.219   8.998 -0.1547 -0.8737 -0.2859
45258SOL    HW240713   1.109   5.204   9.050 -0.3304 -0.4722  0.3238
45259SOL     OW40714   9.146   5.629   1.526 -0.1877 -0.2279 -0.4609
45259SOL    HW140715   9.074   5.566   1.520  0.3373 -0.9193  0.3382
45259SOL    HW240716   9.103   5.714   1.519 -1.1230 -0.6164  0.3322
45260SOL     OW40717   1.483   9.415   3.756 -0.7957 -0.3613 -0.3176
45260SOL    HW140718   1.429   9.383   3.683 -0.0265 -1.1100 -0.5852
45260SOL    HW240719   1.573   9.393   3.731 -0.2926  1.3008 -0.1093
45261SOL     OW40720   5.399   5.309   2.923  0.5306 -0.0855  0.0730
45261SOL    HW140721   5.431   5.224   2.952  0.9840  0.8434  2.5248
45261SOL    HW240722   5.367   5.351   3.002  1.0991  2.3758 -0.9150
45262SOL     OW40723   5.849   3.316   8.962 -0.0192  0.0137  0.5824
45262SOL    HW140724   5.906   3.270   9.025  0.7155  0.0747 -0.0232
45262SOL    HW240725   5.786   3.250   8.934  0.2844 -0.2974  0.6240
45263SOL     OW40726   8.944   1.112   3.831 -0.3133  0.0095 -0.2746
45263SOL    HW140727   8.912   1.023   3.817  0.0652 -0.2301  0.3258
45263SOL    HW240728   9.039   1.102   3.837 -0.2565  0.4793 -0.3735
45264SOL     OW40729   2.913   7.541   5.278 -0.0915  0.1337  0.3168
45264SOL    HW140730   2.983   7.606   5.271 -0.8074  1.1846  2.0949
45264SOL    HW240731   2.930   7.497   5.361  0.5879 -2.2897 -1.0273
45265SOL     OW40732   5.672   3.537   4.635 -0.3501  0.1519 -0.1397
45265SOL    HW140733   5.656   3.558   4.727  0.5802  0.6247 -0.0771
45265SOL    HW240734   5.668   3.621   4.590  1.3185  0.2425 -0.1969
45266SOL     OW40735   9.975   6.216   1.708  0.0645  0.7035 -0.1524
45266SOL    HW140736   9.893   6.207   1.659 -0.1568 -1.4429  0.4987
45266SOL    HW240737   9.973   6.144   1.772  2.8367  0.0276 -0.6754
45267SOL     OW40738  10.292   6.536   9.095  1.0299  0.0154  0.7181
45267SOL    HW140739  10.384   6.522   9.071  0.5057 -0.6747 -1.0060
45267SOL    HW240740  10.273   6.625   9.066  1.4467  0.6063  2.1566
45268SOL     OW40741   4.050  11.039   4.005  0.1862  0.6326  0.3752
45268SOL    HW140742   4.068  10.968   3.943 -1.6396 -0.1987  0.7227
45268SOL    HW240743   4.136  11.071   4.031  1.0627 -1.3209  0.0406
45269SOL     OW40744   9.036  10.819   3.245 -0.5333 -0.5306  0.1247
45269SOL    HW140745   9.039  10.735   3.290  0.3381  0.0479  1.2037
45269SOL    HW240746   8.992  10.877   3.307 -0.3839  0.0065 -0.2657
45270SOL     OW40747   8.921   4.889   4.066  0.1852 -0.5277 -0.1380
45270SOL    HW140748   8.835   4.882   4.025  0.2185  0.7291 -0.4664
45270SOL    HW240749   8.922   4.977   4.104  1.2586 -0.5992  0.0185
45271SOL     OW40750   9.807   4.169   1.831  0.3260 -0.7815  0.2544
45271SOL    HW140751   9.898   4.179   1.861  0.2426  0.8484  0.0377
45271SOL    HW240752   9.754   4.197   1.906  0.0452 -0.2709 -0.1293
45272SOL     OW40753   2.605   1.140  11.409 -0.2994  0.2801 -0.1429
45272SOL    HW140754   2.607   1.066  11.469  0.3110 -0.1028 -0.6255
45272SOL    HW240755   2.632   1.104  11.324 -1.3100  0.7741 -0.7018
45273SOL     OW40756   2.659   2.531   7.227 -0.1265 -0.0726 -0.0082
45273SOL    HW140757   2.719   2.541   7.302  0.6664 -1.3297 -0.4399
45273SOL    HW240758   2.698   2.461   7.176 -1.7639 -0.6082 -0.5461
45274SOL     OW40759   7.923   6.094   9.840  0.6404  0.1322  0.7790
45274SOL    HW140760   7.847   6.119   9.893  2.2973 -0.7064  3.7524
45274SOL    HW240761   7.890   6.094   9.750 -2.0265  2.9027  1.5789
45275SOL     OW40762   7.404   9.765   1.202 -0.3139 -0.0688 -0.0236
45275SOL    HW140763   7.319   9.722   1.214 -0.1667  0.0269  1.5621
45275SOL    HW240764   7.430   9.742   1.113 -1.7225 -0.5910 -0.3347
45276SOL     OW40765   3.411  11.396   2.155  0.4270 -0.4979 -0.3788
45276SOL    HW140766   3.481  11.421   2.215  0.7724 -0.0591 -0.9506
45276SOL    HW240767   3.407  11.300   2.160  2.2368 -0.6836 -1.5971
45277SOL     OW40768   8.522  11.309   1.127  0.2282 -0.2248  0.0698
45277SOL    HW140769   8.468  11.289   1.203  0.1901 -0.3897  0.0004
45277SOL    HW240770   8.544  11.223   1.090 -0.7153 -0.1304 -0.7751
45278SOL     OW40771   7.820   0.609   7.442  0.0466 -0.0140  0.5773
45278SOL    HW140772   7.778   0.604   7.528  0.0968  2.1377  0.7849
45278SOL    HW240773   7.758   0.570   7.382 -1.3891  1.2550  1.1728
45279SOL     OW40774   5.938   4.951   7.286 -0.3542 -0.2905 -0.3862
45279SOL    HW140775   6.033   4.964   7.292 -0.4924  0.9777 -0.6058
45279SOL    HW240776   5.902   5.001   7.359 -0.9132  0.2778 -1.0304
45280SOL     OW40777   1.600   4.436   3.195 -0.5465 -0.0140  0.6344
45280SOL    HW140778   1.623   4.454   3.104  2.0884 -0.7317  1.0742
45280SOL    HW240779   1.545   4.510   3.221  0.8283  1.5828 -0.7798
45281SOL     OW40780  10.126   2.655  10.188  0.2789 -0.1218 -0.0996
45281SOL    HW140781  10.217   2.624  10.186 -0.2472 -1.7162 -1.1128
45281SOL    HW240782  10.092   2.625  10.272  0.8482  1.0497  0.5729
45282SOL     OW40783  11.286   7.866  10.175 -0.0180  0.2271  0.2256
45282SOL    HW140784  11.259   7.916  10.252  0.1086  1.4657 -0.5002
45282SOL    HW240785  11.378   7.845  10.191 -0.4330 -1.0226  1.1601
45283SOL     OW40786   7.542   0.246  10.983 -0.0636  0.8687 -0.0325
45283SOL    HW140787   7.575   0.300  11.054  1.9127 -2.5175  1.8851
45283SOL    HW240788   7.447   0.245  10.995  0.1151  1.6289  1.6040
45284SOL     OW40789  10.881   8.236   7.304 -0.7909  0.4853 -0.0696
45284SOL    HW140790  10.950   8.170   7.308 -1.0775  0.2223  1.6910
45284SOL    HW240791  10.827   8.211   7.229 -1.5355 -1.9874  1.1902
45285SOL     OW40792   9.604   6.013  11.614 -0.1246  1.0026  0.1420
45285SOL    HW140793   9.652   6.001  11.532  0.2371 -1.3396  0.6261
45285SOL    HW240794   9.653   6.080  11.661  0.9646  0.7786 -0.6311
45286SOL     OW40795  10.857   6.696   6.980  0.2883 -0.5387 -0.4593
45286SOL    HW140796  10.951   6.713   6.992  0.0276  0.5993  0.0372
45286SOL    HW240797  10.830   6.755   6.910 -0.3599  0.2150  0.4078
45287SOL     OW40798   4.843   6.440   9.692  0.0702 -0.2939  0.1865
45287SOL    HW140799   4.824   6.485   9.774 -1.8066  0.0706 -0.4077
45287SOL    HW240800   4.836   6.347   9.712 -0.1682 -0.2113  0.4827
45288SOL     OW40801   3.425   1.421   3.987 -0.0459  0.2985  0.0880
45288SOL    HW140802   3.367   1.345   3.982 -0.2048  0.4642 -0.6788
45288SOL    HW240803   3.461   1.418   4.076 -0.4447 -0.3803  0.2318
45289SOL     OW40804   1.425   7.788   9.056 -0.4897 -0.1158 -0.5077
45289SOL    HW140805   1.443   7.739   9.136 -1.4983 -1.0939 -0.8517
45289SOL    HW240806   1.329   7.791   9.051 -0.4478 -0.3824 -1.8532
45290SOL     OW40807   8.309   7.020   6.243 -0.2268  0.1681  0.6134
45290SOL    HW140808   8.365   7.090   6.275 -2.8978  2.8450 -0.1411
45290SOL    HW240809   8.285   6.970   6.321  1.5359  0.1770  1.1938
45291SOL     OW40810   4.039   3.862   4.210  0.3613  0.0187 -0.0507
45291SOL    HW140811   3.997   3.864   4.124  0.9873 -1.2994 -0.4208
45291SOL    HW240812   3.983   3.804   4.262  1.0331 -0.7440 -0.1697
45292SOL     OW40813  11.668   5.302   2.135 -0.0138 -0.2010 -0.1980
45292SOL    HW140814  11.613   5.263   2.202  0.4256  2.1220  1.6237
45292SOL    HW240815  11.629   5.387   2.117  2.5812  1.3033  0.7792
45293SOL     OW40816   3.345   1.058   6.680  0.7275  0.5588  0.3615
45293SOL    HW140817   3.309   1.073   6.592  0.7015  1.7373  0.5516
45293SOL    HW240818   3.437   1.035   6.664  0.7926  1.0263  0.0263
45294SOL     OW40819   7.378   1.406   9.367 -0.3484  0.4047  0.5250
45294SOL    HW140820   7.311   1.474   9.364 -0.2687  0.4641 -2.0778
45294SOL    HW240821   7.339   1.331   9.323  1.5399  0.7679 -2.0088
45295SOL     OW40822   8.524   2.360  10.932 -0.6753  0.2227  0.0995
45295SOL    HW140823   8.616   2.379  10.912 -0.3870 -3.3010 -2.8943
45295SOL    HW240824   8.495   2.435  10.985  3.2467  2.5730 -0.7021
45296SOL     OW40825   5.905   7.933   0.306  0.0387  0.5883 -0.6992
45296SOL    HW140826   5.931   8.025   0.308 -1.3106  0.9973 -1.1395
45296SOL    HW240827   5.921   7.902   0.396 -0.0170  1.3961 -0.3996
45297SOL     OW40828   1.413   7.327   7.640  0.2223  0.1633 -0.1926
45297SOL    HW140829   1.379   7.370   7.718  2.4019  1.5086  0.0881
45297SOL    HW240830   1.358   7.360   7.569  0.9764  2.4210  0.2068
45298SOL     OW40831   6.174  10.312   8.437  0.1718  0.6429  0.3847
45298SOL    HW140832   6.248  10.252   8.438  0.9989  1.6114 -0.2152
45298SOL    HW240833   6.154  10.328   8.529 -1.1085 -1.7480  0.5907
45299SOL     OW40834   6.342   5.346   9.902  0.0843 -0.5436 -0.3808
45299SOL    HW140835   6.313   5.391   9.823  2.4374 -0.2022 -1.1088
45299SOL    HW240836   6.436   5.334   9.890  0.5145 -0.5019  2.3681
45300SOL     OW40837   9.947  10.544   6.109  0.2087 -0.1349  0.8873
45300SOL    HW140838   9.968  10.561   6.201  0.1506 -0.2936  0.9298
45300SOL    HW240839  10.017  10.587   6.060 -0.0541  0.4182  0.9866
45301SOL     OW40840   7.222   4.309   9.290  0.1630 -0.5279  0.3750
45301SOL    HW140841   7.233   4.382   9.229 -1.4815 -1.2037 -0.8119
45301SOL    HW240842   7.154   4.338   9.351  0.9922 -0.2941  1.2049
45302SOL     OW40843  10.482   0.989   3.235 -0.4742  0.0608 -0.0687
45302SOL    HW140844  10.462   0.901   3.267  0.7083 -0.3215 -0.3106
45302SOL    HW240845  10.397   1.033   3.229 -1.1488 -1.2514 -0.4924
45303SOL     OW40846   6.557   6.124   5.912  0.1712 -0.3919  0.0509
45303SOL    HW140847   6.641   6.165   5.929 -0.8321  1.7438  0.1847
45303SOL    HW240848   6.524   6.166   5.833 -0.9853 -0.8114  0.2803
45304SOL     OW40849  11.361   2.307  10.341 -0.1054  0.4528  0.0311
45304SOL    HW140850  11.382   2.229  10.393  1.2170  0.8700  0.1577
45304SOL    HW240851  11.444   2.353  10.332 -0.3916  0.6804 -2.0044
45305SOL     OW40852  11.130   8.082   1.384 -0.1230  0.0752  0.1790
45305SOL    HW140853  11.172   8.163   1.412 -1.6695  0.9577  0.0390
45305SOL    HW240854  11.119   8.032   1.465 -2.4279  1.6008  0.9017
45306SOL     OW40855   1.776   6.223   2.251  0.0194  0.3751  0.5400
45306SOL    HW140856   1.822   6.252   2.172 -2.0318  1.5504 -0.2759
45306SOL    HW240857   1.844   6.224   2.319  1.3661  1.3546 -0.7469
45307SOL     OW40858   6.554   2.232   6.023 -0.2903  0.1784  0.1064
45307SOL    HW140859   6.642   2.200   6.046  0.0810  0.8792 -0.3077
45307SOL    HW240860   6.554   2.323   6.053 -1.0473  0.0491  0.5265
45308SOL     OW40861   7.078   2.296   3.924  0.4702 -0.0814  0.1381
45308SOL    HW140862   7.139   2.222   3.915  1.6133  0.7739  0.5866
45308SOL    HW240863   7.134   2.369   3.950 -0.8571  0.5776  1.2337
45309SOL     OW40864   1.531  11.104  10.226  0.6274 -0.6797 -0.0064
45309SOL    HW140865   1.533  11.030  10.286 -0.5230 -0.8817 -0.1781
45309SOL    HW240866   1.448  11.148  10.245  0.6938 -0.1847 -0.7849
45310SOL     OW40867   1.004  10.776   8.304  0.7516 -0.1752  0.2560
45310SOL    HW140868   1.003  10.751   8.397 -2.6571  1.8896  0.9467
45310SOL    HW240869   1.091  10.813   8.291  0.3751  2.4439  3.6212
45311SOL     OW40870   9.741   5.396   6.635  0.3064 -0.7351 -0.0514
45311SOL    HW140871   9.832   5.379   6.610  0.3442 -0.3191 -0.2094
45311SOL    HW240872   9.731   5.352   6.720  0.8598 -0.2037  0.2987
45312SOL     OW40873   5.992   7.281   2.492  0.3981  0.1798 -0.2134
45312SOL    HW140874   6.033   7.244   2.413 -0.1282  0.3129 -0.5528
45312SOL    HW240875   5.906   7.239   2.496  0.9787 -0.9889  1.1433
45313SOL     OW40876   0.713   3.859   7.006 -0.4517  0.5086  0.5685
45313SOL    HW140877   0.652   3.819   6.944 -0.4930  1.6024 -0.1388
45313SOL    HW240878   0.774   3.908   6.950  0.3284  0.4270  1.3343
45314SOL     OW40879   5.299   0.326   3.159  0.0437  0.0152 -0.0898
45314SOL    HW140880   5.321   0.265   3.229  1.6981  0.6973  0.0207
45314SOL    HW240881   5.300   0.272   3.080  0.9952 -0.2180  0.0698
45315SOL     OW40882   5.839   7.872   7.299 -0.1646 -0.7204 -0.3552
45315SOL    HW140883   5.848   7.880   7.394 -0.1118 -0.5558 -0.3725
45315SOL    HW240884   5.920   7.830   7.271 -0.3737 -1.1836 -0.2786
45316SOL     OW40885   7.939   3.209   2.452 -0.1261 -0.2989  0.1632
45316SOL    HW140886   7.925   3.249   2.367 -0.4310 -1.8426 -0.5407
45316SOL    HW240887   7.852   3.206   2.492  0.0875  0.8572  0.7497
45317SOL     OW40888   8.012   3.653   9.073 -0.3384 -0.1196 -0.0363
45317SOL    HW140889   8.082   3.695   9.023 -0.8352 -0.6436 -1.2337
45317SOL    HW240890   7.953   3.725   9.096 -0.7966 -0.0147 -1.4187
45318SOL     OW40891   0.249   3.748  10.920  0.8713  0.1272 -0.3588
45318SOL    HW140892   0.343   3.763  10.933  0.7251  0.4798  0.3070
45318SOL    HW240893   0.206   3.804  10.984  0.1463  1.3211 -1.8215
45319SOL     OW40894   5.844   7.364   7.228 -0.3471  0.1307 -0.1456
45319SOL    HW140895   5.928   7.369   7.273 -0.3146 -0.2060 -0.1667
45319SOL    HW240896   5.842   7.441   7.171 -1.2094  1.6401  1.8254
45320SOL     OW40897   1.522   7.431   9.394 -1.1066 -0.7517 -0.0818
45320SOL    HW140898   1.467   7.433   9.473 -2.0284 -3.0172 -0.5671
45320SOL    HW240899   1.594   7.373   9.417 -0.0027  0.5524 -0.1446
45321SOL     OW40900   2.870   0.252   2.101 -0.4859 -0.1180  0.0896
45321SOL    HW140901   2.886   0.221   2.012 -0.6263  1.2724 -0.4371
45321SOL    HW240902   2.807   0.324   2.091 -0.1867  0.3398  1.2716
45322SOL     OW40903   2.625   1.482   8.880  0.8402 -0.4647  0.8183
45322SOL    HW140904   2.632   1.389   8.859  1.1888 -0.6816  1.8254
45322SOL    HW240905   2.572   1.484   8.959  1.4147  0.1385  1.1935
45323SOL     OW40906   9.182   7.636   9.654 -0.6784 -0.3912  0.3583
45323SOL    HW140907   9.101   7.675   9.621  0.1481  0.3121 -0.9016
45323SOL    HW240908   9.153   7.574   9.721 -2.5062 -2.6192 -2.3182
45324SOL     OW40909   5.899   8.651   6.287  1.3092 -0.3849 -0.2422
45324SOL    HW140910   5.877   8.624   6.197 -0.5371  0.7874 -0.1982
45324SOL    HW240911   5.943   8.574   6.325  1.0136 -1.3486 -1.7461
45325SOL     OW40912   5.004   6.003   3.818  0.2071  0.3623  0.3046
45325SOL    HW140913   5.008   5.989   3.724  0.4013  0.8558  0.2366
45325SOL    HW240914   5.010   5.915   3.856 -2.4378 -0.1189 -0.2060
45326SOL     OW40915   5.111  10.778   1.593  0.1623 -0.5023 -0.2143
45326SOL    HW140916   5.125  10.684   1.593 -0.4652 -0.6223 -1.7753
45326SOL    HW240917   5.104  10.801   1.685 -1.4016 -2.2622  0.1760
45327SOL     OW40918   4.666   5.002   8.991 -0.4305 -0.6564 -0.1124
45327SOL    HW140919   4.628   5.065   8.929 -1.6501 -1.0879  0.1517
45327SOL    HW240920   4.755   4.989   8.960 -0.2504  0.9553 -0.3538
45328SOL     OW40921  10.006   7.377   5.638 -0.2556 -0.3502  0.0977
45328SOL    HW140922  10.027   7.295   5.683  1.1133 -0.7205 -1.1438
45328SOL    HW240923   9.913   7.369   5.616 -0.6713 -0.6461  1.8003
45329SOL     OW40924   1.308   9.423   6.928  1.0667 -0.5334  0.2002
45329SOL    HW140925   1.234   9.363   6.939 -1.0391  2.0857  1.3035
45329SOL    HW240926   1.364   9.407   7.004  0.2926 -0.7817  0.7302
45330SOL     OW40927  11.416   7.519   6.533  0.1835 -0.1781  0.0221
45330SOL    HW140928  11.456   7.569   6.462 -0.9539 -0.0302 -0.5420
45330SOL    HW240929  11.349   7.466   6.490  2.0261 -3.0297  0.4534
45331SOL     OW40930   8.381   4.329   3.347 -0.1914  0.2159 -0.3565
45331SOL    HW140931   8.476   4.323   3.335 -0.2589  0.1575 -0.8897
45331SOL    HW240932   8.345   4.273   3.278 -0.6013 -0.1919  0.1808
45332SOL     OW40933   8.648   6.451   1.346  0.7839  0.3587  0.9023
45332SOL    HW140934   8.634   6.363   1.311  1.2779  0.7234 -0.2655
45332SOL    HW240935   8.737   6.450   1.381  1.4170  0.8536 -0.6331
45333SOL     OW40936   2.239   8.427  10.178 -0.4514 -0.9768 -0.0503
45333SOL    HW140937   2.318   8.479  10.162  0.6024 -2.4093  0.3484
45333SOL    HW240938   2.203   8.464  10.259 -0.2463 -0.2826 -0.2646
45334SOL     OW40939  11.297  11.358   8.533  0.3763 -0.0870  0.2401
45334SOL    HW140940  11.372  11.335   8.588  0.5271 -0.9151 -0.2853
45334SOL    HW240941  11.283  11.451   8.549  0.7806 -0.1818  1.2297
45335SOL     OW40942   5.972   2.763  10.336  0.3243 -0.5489  0.3695
45335SOL    HW140943   5.994   2.812  10.416  0.5639 -0.1543  0.0640
45335SOL    HW240944   5.999   2.673  10.355  2.3601 -0.0603 -0.0471
45336SOL     OW40945   7.959   9.229   0.058  0.1832 -0.2540 -0.1588
45336SOL    HW140946   7.871   9.252   0.086 -0.1580 -0.1585 -1.2566
45336SOL    HW240947   7.952   9.218  -0.037  1.0586 -1.6003 -0.0969
45337SOL     OW40948   8.910   5.776   8.552  0.0818  0.0794  0.2516
45337SOL    HW140949   8.815   5.786   8.553  0.1882  1.1809  1.0879
45337SOL    HW240950   8.944   5.863   8.534  0.9590  0.1729  2.1238
45338SOL     OW40951  11.223   0.494   3.579 -0.0132 -0.2705 -0.8925
45338SOL    HW140952  11.154   0.551   3.614  0.6912  1.3941 -2.0816
45338SOL    HW240953  11.179   0.410   3.566 -1.2795  0.1658  0.2747
45339SOL     OW40954   2.298   9.753   9.005  0.9556 -0.6038  0.4854
45339SOL    HW140955   2.307   9.667   8.963  0.4927 -0.2976 -0.2537
45339SOL    HW240956   2.264   9.810   8.936  2.2871  0.4460  0.6502
45340SOL     OW40957   6.469   5.877   9.171  0.6736  0.2118 -0.4684
45340SOL    HW140958   6.415   5.800   9.191  1.9788 -0.9271 -1.1930
45340SOL    HW240959   6.554   5.842   9.146  1.1827  1.8819 -1.2593
45341SOL     OW40960   7.821   4.370   2.400 -0.2620 -0.1262  0.1545
45341SOL    HW140961   7.850   4.279   2.409  1.7113  0.4056 -0.2542
45341SOL    HW240962   7.808   4.381   2.306  1.7254  0.5756 -0.0906
45342SOL     OW40963   0.529   8.484  11.319  0.0061 -0.4025 -0.1770
45342SOL    HW140964   0.587   8.437  11.258 -0.4312 -2.5473  0.9448
45342SOL    HW240965   0.587   8.511  11.390 -0.0858 -1.2933  0.2573
45343SOL     OW40966  11.190   9.545  10.300  0.3557  0.6734  0.3070
45343SOL    HW140967  11.125   9.615  10.311  1.6680  1.7895  1.2466
45343SOL    HW240968  11.220   9.525  10.388  1.6990  0.5918 -0.1389
45344SOL     OW40969   1.694   6.236   6.816  0.0230 -0.0630 -0.2641
45344SOL    HW140970   1.752   6.180   6.869 -1.2001 -0.6114  0.5500
45344SOL    HW240971   1.753   6.296   6.771  1.1995 -0.3714  0.8098
45345SOL     OW40972   3.497   4.446   9.082 -0.0610  0.0846  0.6606
45345SOL    HW140973   3.543   4.529   9.067 -2.6174  1.6197  0.6901
45345SOL    HW240974   3.466   4.420   8.996 -1.4950  0.5922  1.0043
45346SOL     OW40975   9.351   3.489   3.443  0.1403  1.1582  0.2299
45346SOL    HW140976   9.376   3.506   3.534 -0.2602 -0.1353  0.6142
45346SOL    HW240977   9.277   3.547   3.427 -0.9079  0.2062  1.3379
45347SOL     OW40978   2.716  11.468   5.062  0.7198  0.1460  0.2756
45347SOL    HW140979   2.710  11.563   5.067 -0.8143 -0.0085  1.9120
45347SOL    HW240980   2.687  11.436   5.147 -1.2787 -1.8851 -1.0459
45348SOL     OW40981   1.436   1.739   1.435 -0.4054  0.1690  0.2241
45348SOL    HW140982   1.503   1.789   1.482  0.6071  0.2203 -1.2249
45348SOL    HW240983   1.417   1.666   1.493  2.1322 -0.7697  0.0113
45349SOL     OW40984   7.619   7.679   0.227 -0.2664 -0.2763 -0.0803
45349SOL    HW140985   7.614   7.766   0.187  1.2108 -0.3005 -0.4047
45349SOL    HW240986   7.538   7.635   0.201 -1.2123  1.1233  0.4155
45350SOL     OW40987   4.177   1.347   2.611 -0.1086 -0.1293  0.3758
45350SOL    HW140988   4.239   1.274   2.614 -0.0350 -0.0644  0.4399
45350SOL    HW240989   4.211   1.404   2.541 -1.3413 -1.2153 -1.1743
45351SOL     OW40990   7.380   5.615   3.374 -0.0603 -0.2269  0.2690
45351SOL    HW140991   7.466   5.579   3.350  0.1497 -0.2327  1.0225
45351SOL    HW240992   7.390   5.710   3.363  0.1344 -0.2038  0.6278
45352SOL     OW40993   7.220   0.043  10.203 -0.4248 -0.4260  0.1712
45352SOL    HW140994   7.185   0.010  10.120 -0.0678 -1.3469  0.3774
45352SOL    HW240995   7.302   0.087  10.178 -0.1022 -1.0676  0.0780
45353SOL     OW40996  11.049   8.408   7.469 -0.2922 -0.0159 -0.0120
45353SOL    HW140997  10.978   8.361   7.425 -0.0401  0.0793 -0.5260
45353SOL    HW240998  11.032   8.395   7.562  0.0523 -1.5567 -0.1276
45354SOL     OW40999   5.622   9.277   4.617 -0.2625 -0.2184  0.7677
45354SOL    HW141000   5.623   9.221   4.695 -0.9898 -0.0826  0.8881
45354SOL    HW241001   5.678   9.351   4.640 -0.7982  0.0268  1.3377
45355SOL     OW41002   0.804   2.600   7.534 -0.1373 -0.1995  0.1301
45355SOL    HW141003   0.768   2.689   7.534  2.4668  0.9593 -0.5430
45355SOL    HW241004   0.828   2.584   7.443  1.2731 -0.7378  0.5641
45356SOL     OW41005   8.263   1.468   2.407  0.0040 -0.4740  0.0443
45356SOL    HW141006   8.280   1.541   2.467  1.9423 -0.7081 -0.1663
45356SOL    HW241007   8.332   1.475   2.341 -0.1065 -2.1992 -0.2865
45357SOL     OW41008   3.003   0.104   3.977 -0.1854 -0.6147 -0.0787
45357SOL    HW141009   3.004   0.020   4.024  0.1455 -1.4708 -1.5350
45357SOL    HW241010   3.010   0.079   3.885 -0.3716  1.0217 -0.5604
45358SOL     OW41011   2.476   3.317   1.870 -0.3101  0.0276 -0.5268
45358SOL    HW141012   2.502   3.247   1.811 -0.4064  0.5181 -1.1633
45358SOL    HW241013   2.382   3.327   1.857 -0.4215 -0.1962  0.0811
45359SOL     OW41014   0.764   2.869   4.627 -0.4190 -0.2178  0.7596
45359SOL    HW141015   0.726   2.881   4.714 -0.0172 -2.4812  1.3037
45359SOL    HW241016   0.699   2.816   4.581 -0.3544  0.4741 -0.1565
45360SOL     OW41017   8.381   9.155   7.166  0.4218  0.0429  0.2183
45360SOL    HW141018   8.448   9.205   7.119  0.4615  1.6400  1.8389
45360SOL    HW241019   8.396   9.064   7.141  2.2850  0.5258 -0.5642
45361SOL     OW41020   3.923   3.472   3.561 -0.0073  0.1450 -0.4540
45361SOL    HW141021   3.927   3.410   3.488 -1.3871 -1.3298  0.6410
45361SOL    HW241022   3.870   3.544   3.529 -1.2837 -0.8653 -0.6785
45362SOL     OW41023   1.571   1.823   1.673 -0.3278  0.0757 -0.0748
45362SOL    HW141024   1.518   1.898   1.698  0.4949  0.8278 -0.5471
45362SOL    HW241025   1.598   1.785   1.757 -0.7970  0.2642  0.1666
45363SOL     OW41026   3.771   5.353   5.633 -0.5222 -0.4154 -0.2033
45363SOL    HW141027   3.753   5.399   5.715  1.5786 -0.4527  0.3295
45363SOL    HW241028   3.684   5.334   5.597 -1.4885  0.2606  1.6283
45364SOL     OW41029   6.755   7.925   1.860  0.6801  0.0700  0.0874
45364SOL    HW141030   6.766   8.019   1.876  0.5585 -0.1735  1.7889
45364SOL    HW241031   6.817   7.905   1.790  1.0665  1.3173  0.0545
45365SOL     OW41032  10.954   9.346   5.919 -0.4871  0.5250  0.5244
45365SOL    HW141033  10.893   9.390   5.860  0.4853 -0.4575 -1.2659
45365SOL    HW241034  10.898   9.313   5.990 -2.1739 -0.8407 -1.3276
45366SOL     OW41035   2.338   1.026   4.165 -0.1187 -0.4163 -0.0878
45366SOL    HW141036   2.322   1.014   4.259  0.3201  2.7517  0.5231
45366SOL    HW241037   2.255   1.060   4.130  0.4742  0.9599 -0.2305
45367SOL     OW41038   7.170   7.874   7.150  0.1943  0.1635 -0.2537
45367SOL    HW141039   7.080   7.841   7.153  0.0869  0.4319 -0.4426
45367SOL    HW241040   7.219   7.807   7.103  0.4484 -0.7733  1.2894
45368SOL     OW41041   4.363   5.062   3.051 -0.4218  0.4560  0.2752
45368SOL    HW141042   4.367   5.158   3.052  1.5163  0.4134  0.6623
45368SOL    HW241043   4.453   5.034   3.069 -0.5108 -1.4452 -1.7660
45369SOL     OW41044   8.402   6.686   5.598  0.3567  0.8066  0.1989
45369SOL    HW141045   8.395   6.749   5.525 -1.6616 -0.0805 -0.4516
45369SOL    HW241046   8.397   6.741   5.676  0.9404  1.6401 -0.3185
45370SOL     OW41047  11.379   8.039  11.110 -0.0114 -0.6479  0.1015
45370SOL    HW141048  11.355   7.981  11.038  0.1737 -2.0870  1.1516
45370SOL    HW241049  11.457   8.085  11.079 -0.2391 -0.8729 -0.8173
45371SOL     OW41050   1.824   4.086   1.906 -0.0355  0.9213  0.4117
45371SOL    HW141051   1.777   4.025   1.849  1.3392  0.3477 -0.1460
45371SOL    HW241052   1.846   4.033   1.983 -1.5915  1.6029  1.3804
45372SOL     OW41053  10.529   9.039  10.085 -0.1741 -0.1741 -0.1158
45372SOL    HW141054  10.567   9.058  10.171  0.4518 -0.2455 -0.3691
45372SOL    HW241055  10.439   9.071  10.090  0.1395  0.6836  0.2554
45373SOL     OW41056   4.070   0.837   0.671 -0.6347  0.3673  0.0437
45373SOL    HW141057   4.132   0.910   0.666 -1.8793  1.4030 -1.3858
45373SOL    HW241058   4.048   0.831   0.763  0.4472  0.9637  0.3669
45374SOL     OW41059   5.756  10.976   5.903 -0.5969 -0.2938 -0.2769
45374SOL    HW141060   5.685  11.014   5.852 -1.3176  0.1094  0.9810
45374SOL    HW241061   5.793  11.049   5.952  0.4101 -0.5773 -0.5752
45375SOL     OW41062   2.198   0.789   4.557  0.0399  0.2306  0.0833
45375SOL    HW141063   2.153   0.827   4.632  0.2578  0.2113  0.2267
45375SOL    HW241064   2.286   0.769   4.589 -0.5464 -1.9388  0.5023
45376SOL     OW41065   8.644   5.723   4.268  0.1790 -0.7209 -0.3702
45376SOL    HW141066   8.652   5.753   4.177 -1.4719 -0.9819 -0.6206
45376SOL    HW241067   8.587   5.646   4.263  0.1840 -0.8211  0.8772
45377SOL     OW41068   9.373  10.911   9.204  0.1624 -0.0640  0.4255
45377SOL    HW141069   9.387  10.880   9.294 -0.5067 -0.5219  0.3797
45377SOL    HW241070   9.459  10.940   9.175  0.3219  0.4259  1.3405
45378SOL     OW41071   8.845   4.612   9.259  0.2818 -0.4818  0.3814
45378SOL    HW141072   8.877   4.526   9.233  1.3974  0.3470 -1.0899
45378SOL    HW241073   8.871   4.670   9.188 -0.1591  1.1431  1.5029
45379SOL     OW41074  10.341   5.192   3.241 -0.1430  0.0420  0.1263
45379SOL    HW141075  10.387   5.149   3.313  1.6624  1.5476 -0.0383
45379SOL    HW241076  10.251   5.162   3.248  0.3716 -1.2294  1.9198
45380SOL     OW41077   1.184   3.469   9.200 -0.4529  0.1165 -0.3518
45380SOL    HW141078   1.227   3.387   9.224  0.5551  0.8797  0.5823
45380SOL    HW241079   1.209   3.484   9.109 -0.9515 -0.7888 -0.6410
45381SOL     OW41080   5.674   9.543   4.883  0.6319  0.0048 -0.0576
45381SOL    HW141081   5.669   9.458   4.926  0.1354 -0.7459 -1.5177
45381SOL    HW241082   5.768   9.562   4.879  0.7260 -0.2793  0.6173
45382SOL     OW41083   5.379   7.539   9.909  0.3005 -0.1938  0.0636
45382SOL    HW141084   5.341   7.611   9.959  0.5905  0.8001 -1.1273
45382SOL    HW241085   5.400   7.473   9.976 -2.3489 -0.3056  0.9246
45383SOL     OW41086   7.574   9.125   6.560  0.3223 -0.3116 -0.0584
45383SOL    HW141087   7.577   9.164   6.473 -1.7950  0.2251  0.0398
45383SOL    HW241088   7.490   9.079   6.563  0.5384 -0.6696  1.5558
45384SOL     OW41089   9.441   9.104   6.036 -0.0604  0.0300 -0.6245
45384SOL    HW141090   9.356   9.072   6.068  0.8650  0.0203  2.0929
45384SOL    HW241091   9.469   9.167   6.102  0.8672  2.1239 -2.8542
45385SOL     OW41092   1.168   9.569   0.914 -0.3251 -0.6433  0.0163
45385SOL    HW141093   1.210   9.629   0.852  0.2305 -0.1097  0.8796
45385SOL    HW241094   1.183   9.609   1.000 -1.0591 -1.3749  0.5015
45386SOL     OW41095  10.505  10.094   9.158 -0.0045  0.2525  0.0590
45386SOL    HW141096  10.498  10.079   9.063 -0.1495 -0.8650  0.2319
45386SOL    HW241097  10.435  10.156   9.178 -0.5317 -0.1842 -0.4260
45387SOL     OW41098   5.195   1.602  11.282 -0.0656 -0.0790  0.0085
45387SOL    HW141099   5.227   1.690  11.261  0.5465 -0.1390  0.6448
45387SOL    HW241100   5.163   1.609  11.371 -1.7300 -0.0634 -0.5612
45388SOL     OW41101   6.039   7.102   2.254 -0.1712 -0.5116  0.3024
45388SOL    HW141102   6.029   7.182   2.202 -2.1377 -0.0816  1.2294
45388SOL    HW241103   5.965   7.047   2.226 -1.7672  0.0482  3.0730
45389SOL     OW41104   6.887   2.564   7.649  0.3722  0.3821 -0.5526
45389SOL    HW141105   6.898   2.469   7.650  1.7495  0.5172  0.5176
45389SOL    HW241106   6.799   2.578   7.613  0.1428 -1.2895 -0.7062
45390SOL     OW41107   4.006   9.642   7.430  0.2960  0.2148 -0.4382
45390SOL    HW141108   3.947   9.651   7.355 -0.4241  0.5930  0.1497
45390SOL    HW241109   3.972   9.567   7.479  0.3312  0.4072 -0.1172
45391SOL     OW41110   9.501   6.365   6.531 -0.3020 -0.6310  0.3212
45391SOL    HW141111   9.407   6.353   6.518 -1.2302  3.0046  2.2998
45391SOL    HW241112   9.530   6.410   6.452 -0.6331 -0.0929  0.5040
45392SOL     OW41113   5.341  11.616  11.666 -0.3834  0.0290  0.0429
45392SOL    HW141114   5.291  11.576  11.595 -1.3928  0.6639  0.3733
45392SOL    HW241115   5.418  11.560  11.676 -1.6762 -1.7650  0.3990
45393SOL     OW41116   6.229   6.382   6.568  0.1203 -0.3115 -0.2401
45393SOL    HW141117   6.166   6.311   6.570  1.0982 -1.2040 -0.4072
45393SOL    HW241118   6.307   6.344   6.528  0.8121  0.7225  0.0907
45394SOL     OW41119   4.151   0.150   8.281  0.0262  0.2864  0.4293
45394SOL    HW141120   4.063   0.114   8.273 -0.1782 -0.2086  3.5461
45394SOL    HW241121   4.137   0.239   8.314  0.6723  0.3994  0.4059
45395SOL     OW41122   0.439   5.840   7.633  0.3684  0.0820  0.7725
45395SOL    HW141123   0.458   5.807   7.545  0.2338  0.6010  0.5459
45395SOL    HW241124   0.509   5.904   7.650  0.8342 -0.5595  1.3494
45396SOL     OW41125   7.137   4.889   3.154 -0.0635  0.4924 -0.2299
45396SOL    HW141126   7.046   4.916   3.138 -1.1974 -2.3066  0.8235
45396SOL    HW241127   7.173   4.959   3.210 -2.0474  0.9856  0.5342
45397SOL     OW41128   9.132   2.545   5.840  0.3940 -0.2997  0.0998
45397SOL    HW141129   9.202   2.483   5.862 -0.2861 -0.9654  0.4263
45397SOL    HW241130   9.076   2.499   5.779  1.1956  0.8690 -1.5871
45398SOL     OW41131   3.340   5.493   2.868  0.0787 -0.2493  0.2176
45398SOL    HW141132   3.280   5.505   2.942  1.4886 -2.3322  1.8217
45398SOL    HW241133   3.409   5.558   2.882 -0.7156  0.7914 -0.5149
45399SOL     OW41134   1.211   2.677   2.144  0.0210  0.0242  0.3000
45399SOL    HW141135   1.275   2.615   2.109 -0.1777 -0.3590  0.6102
45399SOL    HW241136   1.252   2.763   2.132  0.0513 -0.1128 -0.6627
45400SOL     OW41137   6.073   6.838   0.557  0.7127 -0.6403 -0.1964
45400SOL    HW141138   6.043   6.919   0.516  0.8728 -0.4373  0.0789
45400SOL    HW241139   6.090   6.779   0.484  4.0941  0.7227 -0.7214
45401SOL     OW41140   5.322   5.577   0.512 -0.2601 -0.1869 -0.1257
45401SOL    HW141141   5.255   5.612   0.453  2.1164  3.0350 -1.2257
45401SOL    HW241142   5.394   5.552   0.454  0.9876  0.2144  1.1804
45402SOL     OW41143   3.319   1.352   6.698  0.3058 -0.0272 -0.1683
45402SOL    HW141144   3.299   1.261   6.719 -0.4388 -0.3940 -2.2102
45402SOL    HW241145   3.403   1.348   6.652 -1.5823 -0.3320 -3.9522
45403SOL     OW41146   4.755   4.438   1.995  0.3437  0.2393 -0.6820
45403SOL    HW141147   4.804   4.486   2.062  0.7946  1.4299 -1.8209
45403SOL    HW241148   4.775   4.346   2.011 -2.8776 -0.0333  3.4681
45404SOL     OW41149  11.179   7.013   6.557  0.7340 -0.9754 -0.0852
45404SOL    HW141150  11.099   7.030   6.508 -0.2262 -3.0024  0.6510
45404SOL    HW241151  11.150   6.961   6.632  2.4174  0.3290  1.5721
45405SOL     OW41152   7.437   7.275   5.310 -0.4106  0.1409 -0.1889
45405SOL    HW141153   7.436   7.273   5.214 -5.4625  0.7990 -0.4313
45405SOL    HW241154   7.397   7.360   5.331  2.1577  0.7941  2.6764
45406SOL     OW41155   1.471   7.719  10.565 -0.1744  0.3069  0.2779
45406SOL    HW141156   1.389   7.705  10.611  0.1254  0.1968  0.7884
45406SOL    HW241157   1.511   7.794  10.609 -0.1962  0.6228 -0.2390
45407SOL     OW41158   2.151   3.460   0.796  0.0114 -0.5037  0.1028
45407SOL    HW141159   2.145   3.515   0.874 -1.1450 -1.5988  0.8318
45407SOL    HW241160   2.244   3.439   0.788  0.4381  1.2879 -0.0395
45408SOL     OW41161   9.320   6.220   1.807 -0.4706 -0.0901 -0.0079
45408SOL    HW141162   9.225   6.224   1.817 -0.3273  1.7852  1.0224
45408SOL    HW241163   9.334   6.162   1.732 -2.4338  0.0370 -0.5194
45409SOL     OW41164   4.502   2.901   5.439  0.0564 -0.5373  0.6337
45409SOL    HW141165   4.547   2.822   5.409 -0.4723 -1.2079  1.5850
45409SOL    HW241166   4.482   2.885   5.531  0.0362  0.7550  0.8829
45410SOL     OW41167   0.644   7.581   4.292  0.0336 -0.0714 -0.5555
45410SOL    HW141168   0.580   7.525   4.250 -1.9237  1.9060 -0.3803
45410SOL    HW241169   0.648   7.551   4.382 -1.1074  0.1293 -0.4271
45411SOL     OW41170   2.649   0.159   7.368  0.2709  0.3483 -0.3705
45411SOL    HW141171   2.566   0.125   7.402 -0.8397  2.5944 -0.6249
45411SOL    HW241172   2.700   0.178   7.446  0.8875 -1.6951 -0.2224
45412SOL     OW41173  10.783   2.100   9.798 -0.0496 -0.8827 -0.1573
45412SOL    HW141174  10.741   2.177   9.762  0.5967 -0.5478 -0.2038
45412SOL    HW241175  10.717   2.061   9.855 -0.2137 -0.0275  0.2455
45413SOL     OW41176  10.116   3.424   0.538 -0.4374 -0.0682 -0.1851
45413SOL    HW141177  10.105   3.500   0.595 -2.2509  0.5606 -1.2723
45413SOL    HW241178  10.098   3.348   0.594 -0.9962  0.4623  0.3661
45414SOL     OW41179   4.800   1.178   1.037  0.1278 -0.0805 -0.5036
45414SOL    HW141180   4.879   1.187   1.090  0.8624  0.5248 -1.6787
45414SOL    HW241181   4.831   1.155   0.950 -1.1129 -2.1917 -0.4698
45415SOL     OW41182   9.168   0.205   7.771 -0.4264  0.3819  0.1867
45415SOL    HW141183   9.238   0.269   7.786 -1.0735  0.8325  1.4577
45415SOL    HW241184   9.122   0.201   7.855 -1.0473 -0.9718 -0.2055
45416SOL     OW41185   8.660   7.298   1.720 -0.7103 -0.3661  0.1480
45416SOL    HW141186   8.686   7.231   1.784  1.4366 -0.3827 -0.6526
45416SOL    HW241187   8.737   7.308   1.664 -1.6951  1.3622 -0.9701
45417SOL     OW41188   9.607  11.392  11.003  0.4316 -0.4072  0.0951
45417SOL    HW141189   9.550  11.317  11.020 -0.2990  0.0011 -0.4973
45417SOL    HW241190   9.690  11.353  10.974  0.0910 -0.9937 -0.1109
45418SOL     OW41191   3.638  10.803   1.476  0.2377 -0.5169 -0.1989
45418SOL    HW141192   3.698  10.839   1.541 -1.1627  2.2630 -0.3176
45418SOL    HW241193   3.691  10.795   1.397  0.7338  0.9687 -0.0511
45419SOL     OW41194   5.150   3.314  10.662  0.2740  0.3376 -0.1746
45419SOL    HW141195   5.166   3.397  10.708 -2.1653 -0.2466  1.9529
45419SOL    HW241196   5.055   3.312  10.649  0.1789 -2.3511  0.3790
45420SOL     OW41197   0.026   3.317  10.263  0.0070  0.0440 -0.4005
45420SOL    HW141198  -0.052   3.318  10.209  0.2962 -1.0191 -0.8690
45420SOL    HW241199   0.067   3.233  10.244  2.3373  1.3677 -1.7199
45421SOL     OW41200   9.865  11.229   4.970 -0.4338 -0.2081 -0.0868
45421SOL    HW141201   9.916  11.295   4.924  0.6533  0.1614  1.5463
45421SOL    HW241202   9.926  11.191   5.033 -1.6688 -1.1260  0.6137
45422SOL     OW41203   6.175   2.172  10.239  0.1389 -0.1572 -0.0369
45422SOL    HW141204   6.130   2.151  10.321 -0.2225  0.7695  0.0165
45422SOL    HW241205   6.165   2.267  10.231 -0.4921 -0.3304 -1.5435
45423SOL     OW41206   5.408   9.536   0.712  0.5341 -0.3457 -0.0256
45423SOL    HW141207   5.392   9.613   0.657  0.2884 -0.0871  0.4028
45423SOL    HW241208   5.322   9.495   0.721  0.5929 -0.4482  0.0735
45424SOL     OW41209   0.137   9.775   3.921 -0.5461  0.4695  0.1393
45424SOL    HW141210   0.212   9.735   3.963  0.2385  0.5457 -1.1349
45424SOL    HW241211   0.107   9.842   3.983  0.1668  0.1484  0.8362
45425SOL     OW41212   5.016   1.077   9.912 -0.3571  0.4239 -0.2064
45425SOL    HW141213   5.091   1.022   9.930  0.0889  1.4006  1.0403
45425SOL    HW241214   5.021   1.147   9.977 -0.9395  1.8962 -1.6767
45426SOL     OW41215   2.460   6.496   7.036 -0.3025 -0.0401 -0.0791
45426SOL    HW141216   2.394   6.442   6.992  0.4500 -1.4770  0.4706
45426SOL    HW241217   2.410   6.561   7.085 -1.1659  1.7054 -3.0609
45427SOL     OW41218  11.303   0.961  10.387 -0.9139  0.2767 -0.2805
45427SOL    HW141219  11.272   1.028  10.326 -0.6028  0.0116 -0.7418
45427SOL    HW241220  11.274   0.990  10.473 -2.1276  0.2186 -0.6557
45428SOL     OW41221   1.712   2.173   6.566  0.6108 -0.6685 -0.3410
45428SOL    HW141222   1.667   2.203   6.487  0.8493 -1.6083 -0.8466
45428SOL    HW241223   1.716   2.078   6.557  3.7413 -0.6018 -0.9147
45429SOL     OW41224   1.544   6.718   3.492  1.1176 -0.0651 -0.0951
45429SOL    HW141225   1.584   6.800   3.465  0.5953 -0.0849 -0.9269
45429SOL    HW241226   1.504   6.738   3.577  2.5339  0.0558  0.5857
45430SOL     OW41227   1.864   3.123   4.640  0.1251 -0.5004 -0.2465
45430SOL    HW141228   1.846   3.196   4.581  1.7349 -1.9730 -2.7474
45430SOL    HW241229   1.912   3.162   4.713 -0.1620  1.1142 -0.8895
45431SOL     OW41230   8.618   6.673  11.687 -0.8495 -0.2349 -0.1730
45431SOL    HW141231   8.638   6.765  11.705 -0.6718 -0.2336 -0.3758
45431SOL    HW241232   8.676   6.625  11.747 -0.1310 -0.2333 -0.8510
45432SOL     OW41233  10.805   4.663   2.669  0.1450  0.1320  0.2354
45432SOL    HW141234  10.892   4.702   2.670  0.2948 -0.1630 -0.2964
45432SOL    HW241235  10.788   4.639   2.760 -0.0974  1.7198  0.6341
45433SOL     OW41236   9.733   0.348   0.850 -0.3699 -0.6926 -0.0179
45433SOL    HW141237   9.763   0.432   0.884  2.0888 -1.9061  1.0599
45433SOL    HW241238   9.651   0.330   0.897 -1.3635  1.3574 -0.8292
45434SOL     OW41239   5.070   8.379  11.340  0.6955  0.2045  0.0924
45434SOL    HW141240   5.089   8.455  11.284  1.3555  0.7257  0.9993
45434SOL    HW241241   5.094   8.303  11.286 -1.6015  0.5055 -1.4899
45435SOL     OW41242   3.827   9.509   0.495  0.1719 -0.4153 -0.1778
45435SOL    HW141243   3.785   9.543   0.574 -0.2840  2.4005 -1.4925
45435SOL    HW241244   3.917   9.489   0.522 -0.5797 -1.7309  1.5232
45436SOL     OW41245   4.678   8.227   3.346 -0.0840 -0.1595 -0.1175
45436SOL    HW141246   4.621   8.303   3.353 -0.2026 -0.1843 -0.7414
45436SOL    HW241247   4.763   8.257   3.378 -0.1627  0.2026 -0.2406
45437SOL     OW41248   1.684  10.446  10.312  0.3636  0.1537  0.2278
45437SOL    HW141249   1.742  10.379  10.276  1.8352  1.9624 -0.9768
45437SOL    HW241250   1.741  10.521  10.329 -1.1073  0.9269  2.1378
45438SOL     OW41251   2.349   4.362   4.174 -0.0764  0.0847 -0.2654
45438SOL    HW141252   2.400   4.291   4.135 -0.2777  0.6765 -1.6650
45438SOL    HW241253   2.374   4.361   4.267 -0.0685 -1.7767 -0.2606
45439SOL     OW41254   0.086   1.460  10.633 -0.5912  0.0842  0.3049
45439SOL    HW141255   0.172   1.496  10.654  0.2871 -1.5151 -0.3314
45439SOL    HW241256   0.026   1.533  10.643  0.9106  1.3794  0.2730
45440SOL     OW41257   6.993   1.929   6.646  0.4524 -0.3427 -0.2630
45440SOL    HW141258   6.921   1.900   6.590 -1.1568 -1.3725  2.1826
45440SOL    HW241259   7.056   1.857   6.643  1.6035  0.6520 -2.5796
45441SOL     OW41260   7.537  10.356   4.640  0.4827 -0.2908  0.2932
45441SOL    HW141261   7.527  10.263   4.620 -1.1967 -0.1781  0.4575
45441SOL    HW241262   7.472  10.400   4.585  1.8828  0.8980 -0.4748
45442SOL     OW41263  10.898   2.296   2.693  0.3228 -0.6859 -0.3677
45442SOL    HW141264  10.960   2.238   2.738  1.9049  0.7977 -0.5384
45442SOL    HW241265  10.838   2.324   2.762  1.5749  0.0697  0.4622
45443SOL     OW41266   8.233   4.350   7.008 -0.6027  0.2550 -0.3878
45443SOL    HW141267   8.250   4.376   7.098  3.9318 -2.4986 -0.1040
45443SOL    HW241268   8.207   4.431   6.964  0.2049  2.3825  2.7298
45444SOL     OW41269   6.764   7.054   9.032  0.0375 -0.3517  0.3272
45444SOL    HW141270   6.768   7.005   8.950  0.7679  0.5874 -0.2163
45444SOL    HW241271   6.760   7.146   9.006 -1.9011 -0.1103  1.3291
45445SOL     OW41272  11.193   5.140  11.597 -0.4103 -0.4943  0.1969
45445SOL    HW141273  11.202   5.080  11.523  1.1230  1.4002 -1.2670
45445SOL    HW241274  11.238   5.096  11.669  0.2536 -1.3284 -0.7004
45446SOL     OW41275   5.770   6.384  11.634 -1.1399  0.4587 -0.0182
45446SOL    HW141276   5.859   6.375  11.668 -1.2731 -0.8483  0.0608
45446SOL    HW241277   5.778   6.438  11.556 -0.3781  0.8984  0.3604
45447SOL     OW41278  10.570   7.932   3.431  0.3924  0.1089  0.2199
45447SOL    HW141279  10.657   7.946   3.394  0.2899 -2.1999 -1.0517
45447SOL    HW241280  10.552   8.012   3.481  2.3122  1.5486 -1.2571
45448SOL     OW41281   1.520   6.439   1.747  1.0241 -0.2135 -0.3087
45448SOL    HW141282   1.525   6.436   1.652  1.3081  0.0052 -0.3010
45448SOL    HW241283   1.452   6.376   1.769  0.3101  0.3857 -0.7115
45449SOL     OW41284   5.215   1.693   4.994  0.1026 -0.1302  0.1152
45449SOL    HW141285   5.133   1.741   5.008  0.9904  1.0677  1.6142
45449SOL    HW241286   5.229   1.646   5.076  0.1952 -1.5008 -0.6701
45450SOL     OW41287   7.838  10.280  10.119 -0.3919  0.0056 -0.4776
45450SOL    HW141288   7.795  10.325  10.192  0.6903 -1.0432  0.8521
45450SOL    HW241289   7.813  10.332  10.042  0.7586  2.8806  0.9256
45451SOL     OW41290   7.162   3.697   7.094  0.2609  0.5517 -0.8726
45451SOL    HW141291   7.252   3.697   7.128 -0.0097 -0.0589 -0.1227
45451SOL    HW241292   7.109   3.667   7.168 -0.4222 -0.2727 -1.6824
45452SOL     OW41293  10.567   7.992  10.790  0.0550  0.8217  0.2462
45452SOL    HW141294  10.549   7.956  10.877  0.0121  0.5162  0.1104
45452SOL    HW241295  10.515   7.939  10.730  2.9857 -1.5741 -0.4290
45453SOL     OW41296   4.090   0.367  11.362  0.1037 -0.4451 -0.1577
45453SOL    HW141297   4.159   0.310  11.396 -0.3002 -0.8195  0.0383
45453SOL    HW241298   4.039   0.391  11.440  1.2536  1.5592  0.0533
45454SOL     OW41299   1.072   7.207   3.491 -0.2164  0.4365  0.5970
45454SOL    HW141300   1.077   7.169   3.579  0.9913  0.5531  0.5861
45454SOL    HW241301   1.035   7.294   3.505  1.0493  0.9048  1.1429
45455SOL     OW41302   2.063   3.296   0.383  0.9482 -0.4206 -0.5116
45455SOL    HW141303   2.020   3.214   0.359  0.2301 -0.3249  0.3741
45455SOL    HW241304   2.024   3.319   0.468  0.5894  1.2207 -1.0839
45456SOL     OW41305   6.639  10.806   4.752  0.7044  0.4777  0.4285
45456SOL    HW141306   6.637  10.789   4.658  0.5177  0.9703  0.3434
45456SOL    HW241307   6.658  10.720   4.791 -0.3030  0.0478  0.0032
45457SOL     OW41308   0.837   8.382   1.877  0.0038 -0.6186  0.2550
45457SOL    HW141309   0.841   8.388   1.781  2.2228 -2.0993  0.1729
45457SOL    HW241310   0.804   8.468   1.905  0.8210  0.4289 -1.7676
45458SOL     OW41311   3.580   4.847   4.364  0.3774 -0.2180 -0.2116
45458SOL    HW141312   3.594   4.907   4.437 -0.3537 -1.0815  0.6711
45458SOL    HW241313   3.532   4.898   4.299  1.8212  0.8317 -0.4944
45459SOL     OW41314   7.620  11.099   1.735 -0.3308 -0.4357  0.0745
45459SOL    HW141315   7.611  11.124   1.827  0.8255 -0.0285  0.0970
45459SOL    HW241316   7.583  11.173   1.686  1.0377  0.3656  0.1919
45460SOL     OW41317   5.306   7.755   0.089 -0.3829  0.3276  0.0538
45460SOL    HW141318   5.238   7.753   0.022 -0.3477  0.4331  0.0144
45460SOL    HW241319   5.371   7.691   0.059 -1.1651 -0.8751  0.8489
45461SOL     OW41320  10.426   8.331   8.840 -0.4102  0.5037  0.1275
45461SOL    HW141321  10.428   8.365   8.750 -0.4469  0.1290 -0.0179
45461SOL    HW241322  10.484   8.255   8.838 -2.7806 -1.4056 -0.3822
45462SOL     OW41323   1.372   1.070  10.857  0.1928  0.5221 -0.4846
45462SOL    HW141324   1.348   1.161  10.841  0.2391  0.4249 -1.1609
45462SOL    HW241325   1.331   1.022  10.785  1.1615  0.1702 -0.8325
45463SOL     OW41326   3.300   3.216   6.484 -0.4517 -0.1079 -0.9177
45463SOL    HW141327   3.275   3.308   6.481 -1.4937 -0.3562 -0.4682
45463SOL    HW241328   3.283   3.184   6.395  0.3375  0.2277 -1.1968
45464SOL     OW41329   7.177   2.800   9.251  0.3799  0.2579 -0.1147
45464SOL    HW141330   7.257   2.791   9.303  0.0390  1.6970  0.6946
45464SOL    HW241331   7.149   2.890   9.265 -0.7411  0.1200 -1.3406
45465SOL     OW41332   7.162   6.212  10.579 -0.3229 -0.5691  0.1280
45465SOL    HW141333   7.251   6.231  10.607  0.0317 -1.0963 -0.5993
45465SOL    HW241334   7.142   6.281  10.516 -1.1139  0.6090  1.6076
45466SOL     OW41335  11.509   2.752  10.200 -0.5317 -0.0083  0.3089
45466SOL    HW141336  11.420   2.754  10.165  0.0686  2.4079 -1.3429
45466SOL    HW241337  11.511   2.823  10.265  0.4644  0.7684 -0.5420
45467SOL     OW41338   8.032   3.479  10.530  0.0183 -0.1452 -0.3181
45467SOL    HW141339   7.999   3.391  10.548  0.0950 -0.2504 -0.6825
45467SOL    HW241340   8.125   3.466  10.512  0.3608  0.1928  1.0587
45468SOL     OW41341   6.227   5.091   3.267 -0.0771  0.0614 -0.3952
45468SOL    HW141342   6.180   5.083   3.350  0.3988  0.2074 -0.1068
45468SOL    HW241343   6.193   5.020   3.213 -0.6001  0.1433 -0.1788
45469SOL     OW41344   9.376  10.583   0.494  0.2439  0.0935  0.3649
45469SOL    HW141345   9.369  10.551   0.584 -0.9294  0.9804  0.6093
45469SOL    HW241346   9.293  10.627   0.477  0.9280  1.0412 -0.7275
45470SOL     OW41347   0.349   3.292   0.613  0.5234  0.4835 -0.0398
45470SOL    HW141348   0.417   3.359   0.607  0.4501  0.4626 -1.3980
45470SOL    HW241349   0.391   3.212   0.581 -0.3629  0.6591 -1.7165
45471SOL     OW41350   1.326   0.648   5.173 -0.2172 -0.5247 -0.1103
45471SOL    HW141351   1.375   0.569   5.149 -2.0500 -1.8903  0.4348
45471SOL    HW241352   1.243   0.616   5.207 -1.5935  1.6997 -1.1198
45472SOL     OW41353   5.915   0.924   4.149  0.5842 -0.4126  0.2255
45472SOL    HW141354   5.939   0.890   4.235  0.5773  1.6256  1.0975
45472SOL    HW241355   5.902   0.847   4.095 -0.4410 -1.7993  2.3199
45473SOL     OW41356  10.846   9.475   4.246 -0.7966  0.4598 -0.3367
45473SOL    HW141357  10.789   9.417   4.197 -2.6717  2.1465 -0.2962
45473SOL    HW241358  10.799   9.491   4.328  0.8906  0.0297  0.7610
45474SOL     OW41359   8.278   5.283   8.988 -0.2798 -0.1415 -0.0608
45474SOL    HW141360   8.366   5.246   8.992  0.5569  1.7889  0.5106
45474SOL    HW241361   8.285   5.357   8.927 -1.1796  0.7920  0.9038
45475SOL     OW41362   2.993   1.288   6.377 -0.0631 -0.0598  0.1336
45475SOL    HW141363   2.997   1.258   6.468 -1.0336  1.2394  0.6374
45475SOL    HW241364   2.929   1.359   6.378 -0.4734 -0.3509 -1.6671
45476SOL     OW41365   8.536   6.959   8.295 -0.4702 -0.5648 -0.2544
45476SOL    HW141366   8.581   6.877   8.312 -1.3117 -1.1810 -0.8764
45476SOL    HW241367   8.599   7.027   8.318  0.7864 -1.3852 -1.1405
45477SOL     OW41368   2.605   9.499   3.904  0.4143  0.2434  0.3948
45477SOL    HW141369   2.650   9.457   3.831  0.9382  0.1005  0.7973
45477SOL    HW241370   2.514   9.470   3.896 -0.1796  2.3816 -1.8077
45478SOL     OW41371  11.409   2.284  10.931  0.0189 -0.5150 -0.2310
45478SOL    HW141372  11.379   2.374  10.935 -0.8719 -0.8273  0.6613
45478SOL    HW241373  11.464   2.273  11.009  1.8885 -0.1769 -1.4263
45479SOL     OW41374  10.913   0.339   4.198 -0.1392 -0.3406 -0.3620
45479SOL    HW141375  10.863   0.347   4.117 -0.8288 -2.0935 -0.1609
45479SOL    HW241376  10.997   0.380   4.179 -0.2813 -0.7547 -1.9932
45480SOL     OW41377   1.451   1.278   9.587  0.7933  0.6125  0.1394
45480SOL    HW141378   1.433   1.190   9.553 -0.6018  0.7247  0.5232
45480SOL    HW241379   1.453   1.333   9.509 -0.1000  0.4988  0.0157
45481SOL     OW41380   5.826   9.223   5.470 -0.4850 -0.0737  0.3223
45481SOL    HW141381   5.841   9.178   5.553 -0.8621  1.0200  1.0069
45481SOL    HW241382   5.914   9.235   5.433 -0.2830 -0.2515  0.7378
45482SOL     OW41383   6.368   8.961   6.669  0.1744  0.2670 -0.8255
45482SOL    HW141384   6.412   8.877   6.672 -0.0976  0.1084  2.5249
45482SOL    HW241385   6.281   8.942   6.632  0.0557 -0.9632  0.0529
45483SOL     OW41386   0.546  10.571   6.935  0.3556 -0.0388  0.0896
45483SOL    HW141387   0.454  10.552   6.956  0.6940 -0.9204  0.8451
45483SOL    HW241388   0.573  10.634   7.002  0.3989 -0.0241  0.0579
45484SOL     OW41389   8.678   2.865   2.883  0.0214 -0.2375  1.1092
45484SOL    HW141390   8.710   2.898   2.800 -0.6816 -0.7102  0.6309
45484SOL    HW241391   8.741   2.896   2.948  1.0518 -0.5760  0.3000
45485SOL     OW41392   9.076   9.399   3.427  0.4858  0.0208 -0.3831
45485SOL    HW141393   9.097   9.458   3.356  1.8825 -2.1160 -1.8828
45485SOL    HW241394   9.038   9.455   3.495  0.0960  2.3012 -2.3461
45486SOL     OW41395   7.235  10.372   2.145  0.5381 -0.0253 -0.5286
45486SOL    HW141396   7.306  10.370   2.081  2.1033  1.6494  1.0078
45486SOL    HW241397   7.217  10.281   2.166  2.4202 -0.4911 -0.8199
45487SOL     OW41398   4.401  10.203  10.513 -0.1341 -0.2520 -0.6289
45487SOL    HW141399   4.390  10.109  10.526 -1.2548 -0.2069 -1.2179
45487SOL    HW241400   4.332  10.228  10.452  0.5311  0.8510 -0.9568
45488SOL     OW41401   5.571   7.073   6.461  0.3748 -0.2841  0.4498
45488SOL    HW141402   5.509   7.116   6.401  1.1766  0.7429  0.3340
45488SOL    HW241403   5.561   6.979   6.441 -0.4355 -0.0697 -0.2503
45489SOL     OW41404   9.465   7.460   1.559  0.0585  0.2487 -0.2325
45489SOL    HW141405   9.529   7.390   1.547  0.4577  0.1900  1.9289
45489SOL    HW241406   9.491   7.527   1.496  2.0079  0.0638  0.3264
45490SOL     OW41407  11.219   6.573   0.249 -0.6840  0.6723  0.3443
45490SOL    HW141408  11.178   6.618   0.175 -0.9235  1.4812  0.9627
45490SOL    HW241409  11.168   6.493   0.260 -0.5196  0.4431 -0.4928
45491SOL     OW41410   9.722   9.728   2.945 -0.7531 -0.2654 -0.0638
45491SOL    HW141411   9.750   9.723   3.036 -0.1302 -0.9348 -0.2856
45491SOL    HW241412   9.715   9.822   2.927  0.0267 -0.1127  0.3972
45492SOL     OW41413   9.844   8.547   3.686 -0.1395 -0.1074  0.4898
45492SOL    HW141414   9.848   8.586   3.773 -1.0977 -0.0888  0.5309
45492SOL    HW241415   9.859   8.620   3.626  0.3051 -0.0846  0.6211
45493SOL     OW41416   6.281   7.959   8.370  0.0407 -0.5368  0.2327
45493SOL    HW141417   6.343   7.989   8.304 -1.1212 -0.9788 -1.0980
45493SOL    HW241418   6.274   8.032   8.431 -0.0105  0.4972 -0.9712
45494SOL     OW41419  10.120  11.084   2.381 -0.4193 -0.2504 -0.1849
45494SOL    HW141420  10.039  11.133   2.394 -0.6347 -1.0185  1.7171
45494SOL    HW241421  10.185  11.150   2.360 -0.8442  0.8160  1.6335
45495SOL     OW41422   5.752   1.893   2.883  0.1372  0.3538  0.1145
45495SOL    HW141423   5.826   1.867   2.939  0.4850  0.2237 -0.3935
45495SOL    HW241424   5.698   1.814   2.877 -0.9205  0.9033  1.8063
45496SOL     OW41425   8.108  10.799   7.182  0.2873  0.1118 -0.1523
45496SOL    HW141426   8.099  10.748   7.263  3.0700  0.0870  0.2480
45496SOL    HW241427   8.047  10.758   7.121 -0.4184 -1.1580  1.3307
45497SOL     OW41428   0.866   3.301   2.153  0.2076 -0.4665  0.5115
45497SOL    HW141429   0.884   3.395   2.154  0.2206 -0.4628  0.2166
45497SOL    HW241430   0.949   3.261   2.128 -0.2497 -0.4212 -1.2420
45498SOL     OW41431   3.441   5.105  10.249 -0.2298 -0.3285 -0.4229
45498SOL    HW141432   3.442   5.064  10.336 -1.6704 -1.1536 -0.7541
45498SOL    HW241433   3.422   5.033  10.189  1.9955 -0.0103 -1.6123
45499SOL     OW41434  11.001   7.838   2.602 -0.1161  0.8475 -0.5763
45499SOL    HW141435  10.984   7.928   2.628 -0.6644  1.2340 -2.1724
45499SOL    HW241436  10.930   7.787   2.641 -1.0256  1.4353 -1.4368
45500SOL     OW41437  11.424   5.317   9.614 -0.1504  0.6287 -0.0765
45500SOL    HW141438  11.446   5.324   9.707  1.3579  2.5005 -0.5043
45500SOL    HW241439  11.508   5.301   9.571 -0.5282  1.6042 -1.2448
45501SOL     OW41440   2.016   7.812   6.806  0.0808 -0.6719  0.1349
45501SOL    HW141441   1.985   7.722   6.815 -2.5661  0.2497  1.7120
45501SOL    HW241442   2.074   7.825   6.881 -0.5113 -0.7374  0.6122
45502SOL     OW41443   2.913   0.727   4.729 -0.1302 -0.6605  0.2026
45502SOL    HW141444   3.008   0.725   4.723  0.0014  1.1285  1.0433
45502SOL    HW241445   2.890   0.818   4.711 -1.6624 -0.9851  0.3713
45503SOL     OW41446   1.160   7.864  10.518 -0.2853 -0.2025  0.1935
45503SOL    HW141447   1.071   7.884  10.547  0.0168  3.4385 -0.9383
45503SOL    HW241448   1.216   7.923  10.568  1.1892 -0.2930 -1.2690
45504SOL     OW41449   9.441   4.178  11.470  0.4599 -0.0800 -0.4754
45504SOL    HW141450   9.502   4.164  11.542 -0.5817 -0.5439  0.3506
45504SOL    HW241451   9.391   4.096  11.464  0.1598  0.1517 -1.3626
45505SOL     OW41452   9.594  10.880   1.951 -0.6195 -0.0048 -0.3538
45505SOL    HW141453   9.534  10.954   1.959  0.1585  0.4901  1.5403
45505SOL    HW241454   9.587  10.835   2.036  0.3456 -0.9770 -0.7722
45506SOL     OW41455  10.639   3.466   4.113 -0.1776 -0.2039 -0.1126
45506SOL    HW141456  10.617   3.460   4.206  1.3379  0.3441  0.3078
45506SOL    HW241457  10.700   3.393   4.098  0.1765  0.1577 -0.4811
45507SOL     OW41458   5.944   7.677   0.776  0.0265  0.7808 -0.0594
45507SOL    HW141459   5.858   7.709   0.803 -0.3907 -0.0904 -0.3140
45507SOL    HW241460   5.931   7.584   0.761  1.1613  0.5255  0.4535
45508SOL     OW41461   8.076   7.245   2.969 -0.9028 -0.1905  0.0781
45508SOL    HW141462   8.108   7.242   3.059 -0.6081  0.3176 -0.0073
45508SOL    HW241463   8.155   7.243   2.914 -0.9729  1.2854 -0.1266
45509SOL     OW41464   1.568   1.515   9.681  0.1211  0.0340  0.1358
45509SOL    HW141465   1.545   1.525   9.774  1.7690 -1.1174  0.6986
45509SOL    HW241466   1.520   1.437   9.653  1.0154 -0.6637  0.5190
45510SOL     OW41467   7.881   7.749   9.000 -0.1403 -0.2335  0.3431
45510SOL    HW141468   7.881   7.718   9.091 -1.3827 -1.0607  0.0879
45510SOL    HW241469   7.820   7.691   8.955 -0.0314  0.5673 -0.8841
45511SOL     OW41470  11.640  10.583   9.760  0.0005  0.4962 -0.0165
45511SOL    HW141471  11.569  10.575   9.696 -0.9157  0.1224  1.0330
45511SOL    HW241472  11.700  10.512   9.739 -0.6712 -0.0790  0.0014
45512SOL     OW41473  10.401   1.804  10.944 -0.4115 -0.0382  0.4662
45512SOL    HW141474  10.381   1.866  10.874 -1.7416 -0.3460  0.5559
45512SOL    HW241475  10.419   1.722  10.899  1.9082  0.4692  0.3050
45513SOL     OW41476   9.590   2.262   7.819  0.7461  0.2533  0.2293
45513SOL    HW141477   9.593   2.329   7.750  0.6516  0.4499  0.4152
45513SOL    HW241478   9.607   2.180   7.773  1.2321  0.4475  0.0542
45514SOL     OW41479  10.428   0.382  10.895  0.3434 -0.2557  0.4774
45514SOL    HW141480  10.432   0.427  10.979  1.5351 -0.5859  0.6241
45514SOL    HW241481  10.489   0.431  10.839 -0.4418 -0.0345 -0.2016
45515SOL     OW41482   3.593   2.298   0.492 -0.0292 -0.2207 -0.2785
45515SOL    HW141483   3.669   2.241   0.507 -0.7324 -1.6195 -1.6562
45515SOL    HW241484   3.566   2.278   0.402 -1.9489  0.3210  0.1315
45516SOL     OW41485   5.132   4.369  10.461  0.6856  0.1348 -0.0292
45516SOL    HW141486   5.225   4.376  10.480  0.3995  0.6869  1.3650
45516SOL    HW241487   5.117   4.277  10.441  1.7266  0.2700 -1.5657
45517SOL     OW41488   0.605   5.632  11.439 -0.0426  0.3389  0.1172
45517SOL    HW141489   0.639   5.701  11.495  0.1883  0.8016 -0.5900
45517SOL    HW241490   0.674   5.616  11.375  0.7462 -1.9069  1.4131
45518SOL     OW41491   5.775  10.757   6.074  0.0364 -0.1792  0.1404
45518SOL    HW141492   5.793  10.820   6.004 -0.7763 -1.8201 -1.6213
45518SOL    HW241493   5.717  10.804   6.134 -1.8716  0.2976 -1.9482
45519SOL     OW41494   1.625   3.364   3.056 -0.1533  0.3603 -0.4460
45519SOL    HW141495   1.625   3.270   3.036  0.1348  0.3494 -0.4006
45519SOL    HW241496   1.571   3.403   2.988 -1.5630 -0.0174  0.4089
45520SOL     OW41497   9.773   8.779   5.586  0.1646  0.0335 -0.0278
45520SOL    HW141498   9.787   8.743   5.498 -1.4540 -1.2931  0.2186
45520SOL    HW241499   9.859   8.774   5.628  0.7498 -0.1677 -1.2114
45521SOL     OW41500   8.723   6.109  10.278 -0.2369 -0.3662 -0.1438
45521SOL    HW141501   8.640   6.092  10.235 -0.9052  0.4776  0.7634
45521SOL    HW241502   8.720   6.202  10.301  0.2867 -0.6675  1.2567
45522SOL     OW41503   8.659   3.467   7.890 -0.0894  0.1661  0.1130
45522SOL    HW141504   8.709   3.512   7.822  1.0222 -0.9677  0.1454
45522SOL    HW241505   8.657   3.529   7.963 -0.3878  0.9735 -0.5644
45523SOL     OW41506   4.286  10.612   8.636  0.4301  0.3295  0.4033
45523SOL    HW141507   4.328  10.545   8.689 -1.0036 -2.1204 -1.3447
45523SOL    HW241508   4.209  10.639   8.687  1.3492  1.1955  1.3916
45524SOL     OW41509   8.056  10.653   4.160  0.6541  0.1591  0.0016
45524SOL    HW141510   7.964  10.675   4.174  0.6558 -0.5867  1.3615
45524SOL    HW241511   8.056  10.558   4.144  1.0953  0.3157 -0.9683
45525SOL     OW41512   7.512   8.642   1.922  0.2268  0.3915  0.0593
45525SOL    HW141513   7.532   8.728   1.960 -1.2990  0.7277  0.1644
45525SOL    HW241514   7.434   8.657   1.870 -0.2708 -1.0189  0.3771
45526SOL     OW41515   0.078   7.974   5.094 -0.1262  0.1962  0.3734
45526SOL    HW141516   0.150   7.955   5.034 -1.0593  3.2767 -1.9216
45526SOL    HW241517   0.113   8.042   5.152 -0.9652  1.3667 -0.4522
45527SOL     OW41518   8.429   5.326   4.044 -0.5854 -0.5171  0.2406
45527SOL    HW141519   8.398   5.258   3.984  0.8620 -1.6429  0.6899
45527SOL    HW241520   8.474   5.389   3.988  1.2676 -1.8587  0.1157
45528SOL     OW41521   6.790   5.032   6.803 -0.2994 -0.3263 -0.8555
45528SOL    HW141522   6.777   4.980   6.883 -0.2257 -0.7842 -1.1359
45528SOL    HW241523   6.782   4.968   6.732  0.9147 -0.1654 -1.1573
45529SOL     OW41524   4.656   6.927   3.307  0.1820 -0.5270  0.2784
45529SOL    HW141525   4.657   6.857   3.371  1.0868  0.7065  1.6741
45529SOL    HW241526   4.587   6.986   3.337  0.8233  0.2173  0.3126
45530SOL     OW41527   8.393  11.004   1.514 -0.4866 -0.0820 -0.2290
45530SOL    HW141528   8.300  11.002   1.493 -0.7216  0.5183  0.6928
45530SOL    HW241529   8.410  10.918   1.554 -1.3539  0.8359  2.3109
45531SOL     OW41530   8.400   9.183   5.933 -0.2139 -0.6897 -0.3700
45531SOL    HW141531   8.483   9.149   5.967  0.9678  0.6496 -1.7392
45531SOL    HW241532   8.407   9.278   5.945 -0.7344 -0.3866 -2.1314
45532SOL     OW41533   3.252  11.360   2.748 -0.0799 -0.1619 -0.0704
45532SOL    HW141534   3.298  11.434   2.787  0.7732 -0.3124 -0.7817
45532SOL    HW241535   3.313  11.323   2.685 -0.5515 -1.3729  0.1439
45533SOL     OW41536   5.613   0.929   5.677 -0.4275 -0.1955  0.0826
45533SOL    HW141537   5.669   0.989   5.727  0.2630 -0.5021 -0.3228
45533SOL    HW241538   5.550   0.896   5.742 -1.2896  1.4948  0.1740
45534SOL     OW41539  10.248   7.168   4.550  0.2251 -0.1961  0.5238
45534SOL    HW141540  10.339   7.151   4.573  0.3515  0.3607  0.4367
45534SOL    HW241541  10.243   7.150   4.456  0.6932  1.5714  0.1287
45535SOL     OW41542   8.022  10.393   2.625 -0.5835 -0.2515  0.0467
45535SOL    HW141543   8.074  10.313   2.634  1.4274  0.8853 -0.7917
45535SOL    HW241544   7.998  10.397   2.533 -0.4532  0.2289  0.0288
45536SOL     OW41545   2.035   6.482   2.869  0.0420  0.4378  0.0226
45536SOL    HW141546   2.057   6.547   2.802  1.2725 -0.3883 -0.4031
45536SOL    HW241547   1.942   6.497   2.887 -0.9909 -0.8192 -3.5615
45537SOL     OW41548   4.150   7.796   9.268  0.2113  0.1931 -0.3037
45537SOL    HW141549   4.224   7.744   9.238 -1.2190 -1.5357 -1.0434
45537SOL    HW241550   4.099   7.736   9.323 -0.3914  1.4820  0.5920
45538SOL     OW41551   2.704   6.607   9.783 -0.3548 -0.4575  0.1221
45538SOL    HW141552   2.710   6.694   9.821  0.6239 -0.0118 -0.9590
45538SOL    HW241553   2.610   6.590   9.775 -0.5602  0.7231 -0.1340
45539SOL     OW41554   2.716   3.148  10.065 -0.2299 -0.9292  0.3195
45539SOL    HW141555   2.771   3.128   9.989 -0.0273 -0.0354  0.2205
45539SOL    HW241556   2.778   3.156  10.138  0.0547  1.8585 -0.1115
45540SOL     OW41557   7.130   9.282  10.043 -0.2146 -0.0210 -0.2581
45540SOL    HW141558   7.109   9.285  10.136 -0.0455 -1.0779 -0.1746
45540SOL    HW241559   7.224   9.267  10.040 -0.4809 -1.7251 -0.5721
45541SOL     OW41560   6.753   4.451   9.815  0.0410 -0.1475 -0.2122
45541SOL    HW141561   6.777   4.429   9.725  0.4063  0.6494 -0.3143
45541SOL    HW241562   6.786   4.540   9.828  1.4009 -0.8121  1.2280
45542SOL     OW41563   5.101   6.937   8.321 -0.1683 -0.3542  0.1423
45542SOL    HW141564   5.068   6.887   8.395 -0.1419  0.1275  0.4874
45542SOL    HW241565   5.104   7.028   8.353  4.0592 -0.6320  1.1040
45543SOL     OW41566   6.436   0.169   5.235  0.0253  0.4449 -0.4746
45543SOL    HW141567   6.378   0.099   5.205 -0.1388  0.4008 -0.0594
45543SOL    HW241568   6.378   0.243   5.250  0.3135  0.9650 -1.7909
45544SOL     OW41569   7.641   6.488   8.608 -0.3915  0.0040 -0.0279
45544SOL    HW141570   7.614   6.449   8.525 -0.3319  0.8646 -0.4636
45544SOL    HW241571   7.691   6.419   8.651  1.2431  0.1418 -1.5609
45545SOL     OW41572   2.410   6.058  10.062 -0.0347  0.1259  0.3526
45545SOL    HW141573   2.463   6.103  10.128 -1.6074 -1.2216  2.6774
45545SOL    HW241574   2.471   5.999  10.018  0.7916 -0.0436  1.6673
45546SOL     OW41575   7.252   7.573   9.988  0.4391  0.1801 -0.0173
45546SOL    HW141576   7.316   7.502   9.995  0.5583  0.1266 -1.3144
45546SOL    HW241577   7.175   7.532   9.949  0.7928  0.9027 -1.5455
45547SOL     OW41578   2.892   0.612   6.938  0.2464  0.1344 -0.0618
45547SOL    HW141579   2.896   0.536   6.997  1.6325 -0.5270 -0.9678
45547SOL    HW241580   2.897   0.687   6.997  0.9344 -0.5001  0.7197
45548SOL     OW41581   2.882  11.216   2.396  0.2335  0.3072  0.2892
45548SOL    HW141582   2.914  11.269   2.468 -1.1532  0.3089  0.9243
45548SOL    HW241583   2.899  11.126   2.423  1.0290  0.3429 -0.0442
45549SOL     OW41584   2.337   4.947   6.287 -0.0478 -0.1423  0.3400
45549SOL    HW141585   2.364   5.020   6.231 -0.3937  0.3957  0.8654
45549SOL    HW241586   2.243   4.958   6.297  0.0031 -0.2525  0.9861
45550SOL     OW41587   9.940   0.823   1.370 -0.0400 -0.2311 -0.2457
45550SOL    HW141588   9.978   0.861   1.449  2.5660 -0.8519 -1.0961
45550SOL    HW241589   9.918   0.898   1.315  0.4151  0.1493  0.0870
45551SOL     OW41590   6.635   0.669   5.880 -0.3522 -0.1563  0.2329
45551SOL    HW141591   6.574   0.686   5.808 -1.0219  0.3825  0.9140
45551SOL    HW241592   6.637   0.751   5.929 -0.4475 -0.7370  1.2208
45552SOL     OW41593   0.066   4.124   0.782 -0.5764  0.2440  0.2422
45552SOL    HW141594   0.121   4.069   0.727 -1.4346 -1.1363  0.7203
45552SOL    HW241595   0.107   4.121   0.869 -1.1823 -0.4767  0.5083
45553SOL     OW41596   7.336   2.351   0.251 -0.2264 -0.0510  0.9838
45553SOL    HW141597   7.378   2.295   0.185  0.6034 -0.4804  1.8600
45553SOL    HW241598   7.354   2.440   0.222  2.1115 -0.2032  1.8114
45554SOL     OW41599  11.129  10.603   5.728 -0.2940  0.4152  0.0122
45554SOL    HW141600  11.045  10.643   5.707  0.0402  0.5158 -1.1865
45554SOL    HW241601  11.180  10.608   5.647  0.6958 -0.0812  0.5771
45555SOL     OW41602   4.761   6.341   3.299  0.1734  0.4043 -0.4644
45555SOL    HW141603   4.682   6.290   3.317 -0.6549  1.3443 -1.3739
45555SOL    HW241604   4.831   6.275   3.299 -0.0481 -0.0501  3.4914
45556SOL     OW41605   7.116   4.896   1.020  0.5115  0.0620  0.2681
45556SOL    HW141606   7.065   4.829   1.065  0.4471  0.8996  1.4763
45556SOL    HW241607   7.160   4.848   0.949  1.1578 -1.4583  1.6157
45557SOL     OW41608   3.526   0.724   5.029 -0.3034 -0.2729 -0.5081
45557SOL    HW141609   3.574   0.806   5.033  0.7182 -0.7705 -1.7367
45557SOL    HW241610   3.594   0.657   5.021 -1.1609 -1.0601 -1.5173
45558SOL     OW41611  11.040   3.658   4.078 -0.1916 -0.1578 -0.0135
45558SOL    HW141612  11.051   3.578   4.027 -0.6070 -0.0040 -0.3444
45558SOL    HW241613  10.974   3.708   4.031  1.8254  1.5380 -1.2300
45559SOL     OW41614   2.395   2.259   2.561  0.4796 -0.2115 -0.0167
45559SOL    HW141615   2.387   2.349   2.530  0.2685  0.7326  2.5595
45559SOL    HW241616   2.467   2.222   2.510  1.3668  1.7977 -0.3011
45560SOL     OW41617   9.113   6.763   1.085 -0.2952  0.3137 -0.0757
45560SOL    HW141618   9.026   6.800   1.070 -1.5875 -2.7230 -0.7097
45560SOL    HW241619   9.113   6.739   1.178 -0.8398 -1.2138 -0.4398
45561SOL     OW41620   7.069   2.423   6.358 -0.0291  0.4275  0.0255
45561SOL    HW141621   7.028   2.398   6.275 -0.8708  0.4473  0.4231
45561SOL    HW241622   7.152   2.465   6.332  1.7478 -3.1329 -0.6770
45562SOL     OW41623   1.161   4.886   0.082 -0.6236  0.2819 -0.6536
45562SOL    HW141624   1.225   4.934   0.030 -2.7981  3.2489 -0.7952
45562SOL    HW241625   1.082   4.883   0.028 -2.1547  1.1866  1.3885
45563SOL     OW41626   2.482  10.499   0.204  0.0707 -0.1322 -0.0499
45563SOL    HW141627   2.423  10.423   0.194  0.3032 -0.3582  0.2594
45563SOL    HW241628   2.562  10.462   0.241  0.2720  0.2340 -0.1158
45564SOL     OW41629   2.800   1.801  10.419 -0.1608  0.0734 -0.2013
45564SOL    HW141630   2.717   1.842  10.394  0.3908  0.8965 -0.7645
45564SOL    HW241631   2.778   1.740  10.489 -1.0650  1.1556  0.4799
45565SOL     OW41632  10.775   8.772   6.041  0.4960  0.1829  0.3413
45565SOL    HW141633  10.827   8.839   6.087 -0.2510 -0.3742  2.0899
45565SOL    HW241634  10.790   8.790   5.948  3.3077  0.4207  0.7451
45566SOL     OW41635   4.386  10.723   2.680 -0.3474 -0.4797  0.1315
45566SOL    HW141636   4.449  10.650   2.679 -1.1400 -1.1943  0.8809
45566SOL    HW241637   4.359  10.732   2.589 -0.6111 -1.4638  0.0981
45567SOL     OW41638   6.884   2.384   2.688 -0.2989 -0.9351  0.0682
45567SOL    HW141639   6.954   2.357   2.748  2.3639  1.6417 -1.5798
45567SOL    HW241640   6.824   2.435   2.742  1.8050  0.9681  0.7607
45568SOL     OW41641   3.670   4.467   4.124 -0.4332 -0.0098 -0.1771
45568SOL    HW141642   3.613   4.413   4.069  0.2399  0.2231 -1.1420
45568SOL    HW241643   3.732   4.507   4.062  2.4363 -2.2187  1.0619
45569SOL     OW41644   8.714   9.239   4.774  0.4141 -0.6490 -0.1275
45569SOL    HW141645   8.741   9.283   4.694 -0.2616  0.5951  0.2921
45569SOL    HW241646   8.721   9.307   4.842  1.0585 -1.7010  0.8855
45570SOL     OW41647  10.350  10.299   8.856  0.0835  0.3072 -0.0870
45570SOL    HW141648  10.364  10.359   8.783 -0.8280 -0.0618 -0.5886
45570SOL    HW241649  10.259  10.314   8.882 -0.0417 -0.5704  0.0261
45571SOL     OW41650   4.475  11.572   7.195 -0.4601 -0.0736  0.2733
45571SOL    HW141651   4.485  11.600   7.104 -0.7011 -1.2373 -0.1187
45571SOL    HW241652   4.527  11.635   7.245 -0.5017  0.7090 -0.6363
45572SOL     OW41653   0.440   3.926   1.676 -0.1289  0.1424 -0.2859
45572SOL    HW141654   0.369   3.979   1.640  0.6423  1.0753 -0.4596
45572SOL    HW241655   0.444   3.850   1.618 -2.5346 -1.1628  1.0938
45573SOL     OW41656   9.496   3.630   0.857  0.0459  0.0980  0.5811
45573SOL    HW141657   9.461   3.578   0.929  0.8463 -1.9192 -0.4238
45573SOL    HW241658   9.591   3.618   0.862  0.1005 -0.3884 -1.0024
45574SOL     OW41659   2.388   9.055   4.322  0.4299 -0.0120 -0.1654
45574SOL    HW141660   2.388   9.014   4.409  0.1835  1.7008  0.6706
45574SOL    HW241661   2.443   9.133   4.332  0.2979  0.2813 -1.5313
45575SOL     OW41662  11.361  10.515   2.355 -0.4012  0.7546 -0.4797
45575SOL    HW141663  11.407  10.588   2.395 -0.1086  0.4589 -0.2672
45575SOL    HW241664  11.276  10.551   2.329 -0.0113  1.3304 -0.9741
45576SOL     OW41665  10.673  10.307   3.769 -0.5793  0.7182  0.6211
45576SOL    HW141666  10.592  10.285   3.815 -0.1125  0.0167  1.1271
45576SOL    HW241667  10.674  10.402   3.766 -2.0906  0.7370 -0.6025
45577SOL     OW41668   1.229  11.586   5.648 -0.1042 -0.0378  0.2423
45577SOL    HW141669   1.300  11.649   5.658 -0.1075 -0.1139  0.7794
45577SOL    HW241670   1.273  11.504   5.622 -0.1234  0.2395 -0.6950
45578SOL     OW41671   0.535   3.389   1.435 -0.2243  0.0695 -0.2102
45578SOL    HW141672   0.591   3.313   1.455 -1.4442 -0.9341 -0.4862
45578SOL    HW241673   0.590   3.444   1.379  0.0829 -1.5214 -1.5590
45579SOL     OW41674   9.491   8.440   9.952 -0.4559 -0.0329  0.3196
45579SOL    HW141675   9.480   8.476  10.040 -0.2859 -2.2870  1.3248
45579SOL    HW241676   9.402   8.435   9.917 -0.7484 -0.9144  1.1444
45580SOL     OW41677   7.350  10.888   8.433 -0.0223 -0.8544 -0.1208
45580SOL    HW141678   7.270  10.835   8.432 -0.9642  0.5126 -0.8644
45580SOL    HW241679   7.417  10.829   8.467 -1.1242 -2.3506 -0.4096
45581SOL     OW41680   3.895   3.089   2.327 -0.3992 -0.2322  0.6179
45581SOL    HW141681   3.807   3.056   2.305 -0.6695  1.8625 -2.0818
45581SOL    HW241682   3.903   3.169   2.275  3.3447 -0.6478  0.3166
45582SOL     OW41683   3.278   4.084   2.470  0.4275 -0.2865  0.2473
45582SOL    HW141684   3.220   4.107   2.542  0.1906  1.4311 -0.4488
45582SOL    HW241685   3.265   3.990   2.458 -1.2960 -0.1664  0.9000
45583SOL     OW41686   4.096   2.922  11.591  0.0089 -0.5472 -0.3610
45583SOL    HW141687   4.078   2.985  11.521  0.8361 -0.0100 -0.1121
45583SOL    HW241688   4.106   2.976  11.669  0.6072 -0.9931 -0.1206
45584SOL     OW41689   3.676   9.136   0.006 -0.2058 -0.2623  0.2976
45584SOL    HW141690   3.755   9.084   0.019 -0.0093 -0.2978 -0.9432
45584SOL    HW241691   3.633   9.136   0.092  1.2159 -0.0845  1.0404
45585SOL     OW41692   2.300   2.145   9.941  0.1713  0.2087 -0.1356
45585SOL    HW141693   2.210   2.166   9.965  0.3138 -1.2006  1.8529
45585SOL    HW241694   2.294   2.118   9.849 -0.8476  3.2396 -1.0795
45586SOL     OW41695   9.782   5.837   0.120 -0.2034  0.4025 -0.4310
45586SOL    HW141696   9.876   5.823   0.130 -0.4553  0.0126  1.7942
45586SOL    HW241697   9.767   5.832   0.025  1.4737 -3.0089 -0.6503
45587SOL     OW41698   2.298   4.165   5.450 -0.2292  0.3239  0.0080
45587SOL    HW141699   2.218   4.115   5.435 -0.8783  0.4650  2.5568
45587SOL    HW241700   2.294   4.237   5.387 -1.7099 -0.1264 -0.4359
45588SOL     OW41701   2.735   0.827   1.782  0.0530  0.2369  0.0544
45588SOL    HW141702   2.704   0.780   1.705 -1.5172  1.6923 -0.2695
45588SOL    HW241703   2.830   0.816   1.781  0.0222 -0.1106 -1.8722
45589SOL     OW41704   8.853   5.931   1.878  0.3313  0.5386 -0.3384
45589SOL    HW141705   8.771   5.882   1.870  0.7724 -0.0571 -1.6135
45589SOL    HW241706   8.829   6.012   1.922 -0.8591  0.1646 -0.2684
45590SOL     OW41707   0.886   5.672   7.945  0.2439  0.3753 -0.1716
45590SOL    HW141708   0.863   5.763   7.964  0.7922  0.2557  1.1574
45590SOL    HW241709   0.919   5.674   7.855 -0.9261  1.2618 -0.6092
45591SOL     OW41710   6.858   6.215  10.260 -0.4627  0.2932 -0.1538
45591SOL    HW141711   6.848   6.133  10.211 -2.6373  0.3978  0.0015
45591SOL    HW241712   6.788   6.212  10.326 -0.1412  1.9593  0.3097
45592SOL     OW41713   8.468  10.251   4.118 -0.1185  0.4276 -0.3404
45592SOL    HW141714   8.492  10.175   4.171 -0.2440 -0.3875 -1.4439
45592SOL    HW241715   8.551  10.298   4.105  0.0985  0.0490 -0.3361
45593SOL     OW41716   3.668   4.571   5.044  0.2967 -0.0873 -0.5581
45593SOL    HW141717   3.660   4.509   5.117 -2.1444 -0.2967 -0.9320
45593SOL    HW241718   3.757   4.606   5.052  1.1983 -2.4255  0.6315
45594SOL     OW41719   6.587   8.069   3.888 -0.2220  0.3142 -0.3203
45594SOL    HW141720   6.644   7.999   3.857  0.9289  1.4411 -0.8510
45594SOL    HW241721   6.513   8.024   3.929 -0.5784 -1.2198 -2.4989
45595SOL     OW41722   3.725   1.349   5.374  0.2908  0.3112 -0.3616
45595SOL    HW141723   3.640   1.327   5.413  0.8123 -1.6950 -0.2765
45595SOL    HW241724   3.789   1.317   5.437  1.1318  1.2647 -0.7144
45596SOL     OW41725   7.347  10.460   5.681  0.7062 -0.0133  0.1616
45596SOL    HW141726   7.400  10.383   5.702  0.6511  0.1117  0.7831
45596SOL    HW241727   7.317  10.445   5.591  2.7189  0.4475 -0.6311
45597SOL     OW41728   3.799   8.902   7.559  0.2060  0.3460 -0.3684
45597SOL    HW141729   3.801   8.975   7.621 -0.4919  0.0336  0.0340
45597SOL    HW241730   3.889   8.869   7.557  0.1329  0.0458  0.8626
45598SOL     OW41731   8.547   4.492   2.556  0.1517  0.5720 -0.2059
45598SOL    HW141732   8.605   4.419   2.536 -0.3624  0.5696 -1.7747
45598SOL    HW241733   8.526   4.531   2.471 -0.9907  1.4641  0.4544
45599SOL     OW41734  11.091   4.719   6.832  0.4675  0.0903  0.1809
45599SOL    HW141735  11.008   4.671   6.823  1.1095 -0.8100 -1.3630
45599SOL    HW241736  11.140   4.671   6.898  0.4443 -0.3922 -0.1512
45600SOL     OW41737   2.986  10.565  11.673  0.5067 -0.2379 -0.3240
45600SOL    HW141738   2.942  10.485  11.703  0.3347 -0.2905 -0.7139
45600SOL    HW241739   2.933  10.636  11.709  1.7584 -0.2476  1.7208
45601SOL     OW41740   6.997  10.094   6.732  0.0939  0.1350  0.6379
45601SOL    HW141741   7.001  10.182   6.770  0.0665  0.4272 -0.0292
45601SOL    HW241742   7.076  10.051   6.764 -0.0939  0.2653  1.2936
45602SOL     OW41743   6.373   7.711   5.623 -0.1028  0.3328  0.3984
45602SOL    HW141744   6.284   7.726   5.591  1.0265  2.1427 -2.2499
45602SOL    HW241745   6.413   7.655   5.557  1.0404  0.3893  1.0131
45603SOL     OW41746   3.577  10.539   9.502  0.3520  0.4052  0.7027
45603SOL    HW141747   3.590  10.626   9.540  1.7850  0.2435  0.6250
45603SOL    HW241748   3.650  10.528   9.442 -0.7779 -0.1577 -0.6240
45604SOL     OW41749   5.085   3.769   5.335  0.0312  0.1510  0.3596
45604SOL    HW141750   5.126   3.725   5.409 -0.5942 -1.0663  0.0071
45604SOL    HW241751   5.158   3.793   5.277  0.4948  0.8366  1.1914
45605SOL     OW41752   3.530   2.432   7.406  0.2161  0.0722 -0.5659
45605SOL    HW141753   3.625   2.418   7.403 -0.0593 -2.2168 -0.1304
45605SOL    HW241754   3.504   2.432   7.314  1.0104  4.8931 -1.1036
45606SOL     OW41755   9.446   3.241   5.980  0.0341 -0.6329 -0.2005
45606SOL    HW141756   9.461   3.240   5.885  1.8181  1.7641 -0.0459
45606SOL    HW241757   9.365   3.191   5.992 -0.6854 -0.3547 -3.0585
45607SOL     OW41758   8.967   5.780   3.524  0.0086 -0.2186 -0.8137
45607SOL    HW141759   8.944   5.801   3.434 -1.5805  0.8432 -0.2042
45607SOL    HW241760   9.020   5.700   3.518 -0.7563 -0.6181 -2.6111
45608SOL     OW41761   9.718   7.771   2.833  0.1368  0.2804 -0.0350
45608SOL    HW141762   9.653   7.710   2.799 -1.3430  0.5435  2.0840
45608SOL    HW241763   9.666   7.838   2.878  1.8200  1.6755 -0.0666
45609SOL     OW41764   0.805   9.472  10.656 -0.0496 -0.6998  0.6248
45609SOL    HW141765   0.881   9.414  10.652 -0.6256 -1.4381 -0.0146
45609SOL    HW241766   0.738   9.422  10.702 -0.6033 -0.6198 -0.0685
45610SOL     OW41767   3.317   3.624   5.758 -0.7569 -0.6575 -0.4401
45610SOL    HW141768   3.391   3.618   5.698 -0.3252 -0.8639  0.1015
45610SOL    HW241769   3.321   3.714   5.791  0.2333 -1.1091  0.7893
45611SOL     OW41770   7.037   0.132   1.890 -0.6413  0.2526  0.3022
45611SOL    HW141771   7.027   0.188   1.813  0.1270 -0.2884 -0.2006
45611SOL    HW241772   7.032   0.043   1.856 -1.0155 -0.0020  0.9843
45612SOL     OW41773   2.510   6.135   6.478 -0.6276  0.0212 -0.4888
45612SOL    HW141774   2.416   6.120   6.484 -0.8279  1.0475 -0.9383
45612SOL    HW241775   2.521   6.227   6.500 -0.0177  0.6028 -2.8998
45613SOL     OW41776   9.793   9.271   3.656 -0.3931 -0.0014 -0.2639
45613SOL    HW141777   9.780   9.284   3.562  0.0857  0.5537 -0.2597
45613SOL    HW241778   9.710   9.298   3.696 -0.2935  0.6050 -0.4625
45614SOL     OW41779   5.062   5.347   2.412  0.0266  0.0857 -0.3303
45614SOL    HW141780   5.087   5.267   2.457  0.0962  0.1455 -0.2602
45614SOL    HW241781   5.077   5.416   2.477  3.4364  0.6023 -1.4552
45615SOL     OW41782   1.360   7.474   4.820 -0.0304  0.0798  0.4397
45615SOL    HW141783   1.352   7.545   4.756 -1.4206 -0.4988 -0.0644
45615SOL    HW241784   1.285   7.485   4.878 -0.1887 -0.8957  0.4341
45616SOL     OW41785   9.987   6.684   8.815  0.1681 -0.5012 -0.3449
45616SOL    HW141786   9.903   6.730   8.811  0.8226  0.6338 -2.2455
45616SOL    HW241787   9.975   6.620   8.885 -1.3528  1.4207  1.2809
45617SOL     OW41788   4.023   3.065  10.606 -0.1312 -0.0294 -0.6025
45617SOL    HW141789   4.040   3.027  10.520 -0.6677  0.7029 -1.0423
45617SOL    HW241790   4.071   3.148  10.606 -0.1493 -0.0155 -0.1982
45618SOL     OW41791   2.585   0.846   8.688  0.8228 -0.2026  0.2834
45618SOL    HW141792   2.512   0.864   8.628  0.3663 -3.2229 -0.2317
45618SOL    HW241793   2.545   0.847   8.775  0.5043 -0.2463  0.1387
45619SOL     OW41794   9.387  10.573   1.298  0.0841  0.5537  0.0970
45619SOL    HW141795   9.471  10.619   1.305 -0.1090  0.8663  0.3893
45619SOL    HW241796   9.395  10.500   1.359  0.6753 -0.2451 -0.9287
45620SOL     OW41797   0.220   5.708   1.262  0.4738 -0.5358  0.6285
45620SOL    HW141798   0.296   5.748   1.221  1.2892 -1.8760  0.7623
45620SOL    HW241799   0.159   5.693   1.190  1.2620 -1.4608  0.1319
45621SOL     OW41800   4.404   2.465   8.475  0.0764 -0.0356  0.1935
45621SOL    HW141801   4.450   2.446   8.557  1.3107 -3.1205 -1.0485
45621SOL    HW241802   4.314   2.437   8.490  0.3322 -0.7140  0.4880
45622SOL     OW41803   3.450   1.032   1.835 -0.0353  0.3158 -0.1399
45622SOL    HW141804   3.375   1.089   1.852  0.7018  2.0457 -2.2262
45622SOL    HW241805   3.417   0.968   1.772 -0.9741 -1.9940  2.4947
45623SOL     OW41806   8.581   2.912   5.967 -0.3015  0.2032  0.4523
45623SOL    HW141807   8.531   2.881   5.891 -0.8417  0.9181  0.4944
45623SOL    HW241808   8.630   2.836   5.997 -1.6751 -0.6530  0.6417
45624SOL     OW41809  11.615   9.433  10.180 -0.0548  0.1718  0.0991
45624SOL    HW141810  11.708   9.449  10.162  0.5189 -0.5602  2.1394
45624SOL    HW241811  11.581   9.516  10.211  0.9219 -0.4057  2.9804
45625SOL     OW41812   8.550   1.480   3.755 -0.6590 -0.6790  0.2985
45625SOL    HW141813   8.459   1.475   3.784 -1.1138  0.8354 -0.7633
45625SOL    HW241814   8.591   1.401   3.790 -2.2076 -1.0416  1.3778
45626SOL     OW41815   3.435   9.469   3.964  0.0686  0.4260 -0.3452
45626SOL    HW141816   3.349   9.428   3.975  0.8591 -0.8977  1.4213
45626SOL    HW241817   3.448   9.472   3.869 -1.7564  0.3442 -0.6377
45627SOL     OW41818   9.010   5.863   3.783 -0.2338  0.1429  0.4879
45627SOL    HW141819   9.011   5.838   3.690  0.3421  1.3991  0.1302
45627SOL    HW241820   8.939   5.926   3.791 -0.2869  0.0329  0.9019
45628SOL     OW41821   0.835   2.763   0.610 -0.0708 -0.2137  0.8423
45628SOL    HW141822   0.807   2.729   0.695  1.1687  1.7975  2.1562
45628SOL    HW241823   0.793   2.849   0.604 -0.4458 -0.4922 -0.7913
45629SOL     OW41824  10.032   8.857   4.263 -0.0362  0.8298  0.1610
45629SOL    HW141825  10.103   8.920   4.277 -0.2886  0.7834  1.9313
45629SOL    HW241826  10.045   8.791   4.330 -0.1718 -0.6926 -1.2532
45630SOL     OW41827   1.515   4.539   5.666 -0.4410 -0.0294 -0.1616
45630SOL    HW141828   1.471   4.488   5.597 -2.4821  1.1941  0.1366
45630SOL    HW241829   1.583   4.588   5.619  0.6249 -1.8992 -0.6696
45631SOL     OW41830  11.249  11.325   1.995  0.0552  0.6196 -0.3969
45631SOL    HW141831  11.208  11.375   2.066 -1.1196 -0.0671 -0.5581
45631SOL    HW241832  11.176  11.302   1.937  0.2895 -2.4455  0.3713
45632SOL     OW41833   9.001   1.516   2.348  0.1869 -0.0600 -0.1786
45632SOL    HW141834   9.057   1.443   2.376 -1.3509 -0.2111  2.9109
45632SOL    HW241835   9.059   1.592   2.350  0.9731 -0.6461  0.1180
45633SOL     OW41836   7.713   9.084  11.483 -0.3398 -0.5649 -0.4751
45633SOL    HW141837   7.779   9.018  11.461  0.1671 -1.2052  2.4669
45633SOL    HW241838   7.763   9.166  11.488  0.3742 -1.0580  1.8063
45634SOL     OW41839   8.287   1.624   6.728  0.0850  0.0622 -0.9719
45634SOL    HW141840   8.366   1.662   6.766  0.0099  0.8392 -1.5751
45634SOL    HW241841   8.303   1.624   6.633  0.4746 -2.2884 -0.9790
45635SOL     OW41842   6.722   9.885   3.510  0.4578  0.8477  0.2921
45635SOL    HW141843   6.692   9.970   3.541 -0.8845  0.4005  0.3016
45635SOL    HW241844   6.798   9.905   3.455  1.8779  1.7996  2.4317
45636SOL     OW41845   3.139  11.584   6.152 -0.6427  0.1419 -0.4527
45636SOL    HW141846   3.152  11.678   6.140 -1.8272  0.4884  0.7289
45636SOL    HW241847   3.151  11.547   6.065 -2.6612  1.7091 -1.4999
45637SOL     OW41848   4.345   0.562   3.580 -0.2704 -0.0826  0.5993
45637SOL    HW141849   4.297   0.608   3.511  0.2810 -2.6128 -1.6170
45637SOL    HW241850   4.279   0.547   3.648 -1.2595  1.0284 -0.0572
45638SOL     OW41851   9.387   9.150  10.969 -0.1427  0.2751  0.0285
45638SOL    HW141852   9.298   9.138  10.936 -0.5624  1.2802  0.7489
45638SOL    HW241853   9.442   9.150  10.891 -0.8772  0.4780 -0.4980
45639SOL     OW41854   6.650   4.872   9.390 -0.3082 -0.0255  0.4126
45639SOL    HW141855   6.677   4.880   9.299 -1.4381  1.4796  0.1770
45639SOL    HW241856   6.726   4.834   9.434 -0.1159 -1.7797 -1.3068
45640SOL     OW41857  10.454   1.262   4.327 -0.4690  0.7913 -0.2140
45640SOL    HW141858  10.425   1.340   4.374  0.4138  0.2318  1.3184
45640SOL    HW241859  10.408   1.189   4.370 -0.5093  0.3690 -0.9578
45641SOL     OW41860   3.587   6.973   6.441 -0.7377 -0.7013 -0.3391
45641SOL    HW141861   3.573   7.067   6.424 -1.0698 -0.6349  0.2885
45641SOL    HW241862   3.603   6.936   6.354  0.4588  0.1141 -0.5008
45642SOL     OW41863   6.669   4.160   1.726 -0.0478 -0.4866 -0.0604
45642SOL    HW141864   6.647   4.229   1.664  2.0417  1.3373  1.1042
45642SOL    HW241865   6.745   4.116   1.687 -0.2818 -0.9871  0.0417
45643SOL     OW41866   1.331   6.120   7.260 -0.1068 -0.0870  0.2107
45643SOL    HW141867   1.255   6.125   7.319 -0.6473 -0.3173 -0.4573
45643SOL    HW241868   1.294   6.107   7.173  0.7271 -1.0152 -0.0273
45644SOL     OW41869   6.724   5.697   1.588  0.1932 -0.5651  0.2264
45644SOL    HW141870   6.725   5.684   1.493 -1.5942  0.3927  0.0366
45644SOL    HW241871   6.637   5.668   1.615 -0.7953  2.7271  0.9720
45645SOL     OW41872  10.576  10.231   2.707 -0.1597  0.5009 -0.2953
45645SOL    HW141873  10.629  10.201   2.634 -0.2166  0.8828 -0.4966
45645SOL    HW241874  10.502  10.170   2.710  1.0755 -1.0178  0.9857
45646SOL     OW41875   7.807  10.814   9.647 -0.4482  0.1402 -0.4028
45646SOL    HW141876   7.744  10.872   9.689 -2.2727 -1.4309 -0.8118
45646SOL    HW241877   7.873  10.873   9.611 -2.1524  1.9667 -0.7361
45647SOL     OW41878   8.355   7.812   7.656 -0.2670  0.0814 -0.3190
45647SOL    HW141879   8.423   7.879   7.660 -0.0440 -0.1341 -0.4918
45647SOL    HW241880   8.392   7.743   7.601  0.4379 -1.2671  1.7297
45648SOL     OW41881   3.255   0.063   3.069  0.3267  0.0808 -0.4490
45648SOL    HW141882   3.225   0.008   3.141  0.1773 -2.6921 -2.4619
45648SOL    HW241883   3.278   0.146   3.110 -0.5004 -1.0739  2.6292
45649SOL     OW41884   6.678   4.850   5.418  0.4008  0.0276  0.4525
45649SOL    HW141885   6.766   4.828   5.388  0.8130  1.7938  0.2686
45649SOL    HW241886   6.666   4.799   5.498  0.6957 -1.9554 -0.7015
45650SOL     OW41887  11.228  11.507   5.488  0.1914 -0.3988 -0.3070
45650SOL    HW141888  11.277  11.583   5.458 -1.9442  0.6759 -1.3099
45650SOL    HW241889  11.239  11.442   5.419  1.7298 -0.9037  0.3842
45651SOL     OW41890   3.212   0.531  11.405 -0.5195 -0.1531 -0.3949
45651SOL    HW141891   3.226   0.472  11.479  4.3097  1.3043  0.2427
45651SOL    HW241892   3.159   0.602  11.441 -0.3065 -0.6520  0.9519
45652SOL     OW41893  10.780   6.810  10.936 -0.7243  0.2754 -0.7557
45652SOL    HW141894  10.727   6.739  10.971 -1.3155  0.7179 -0.7367
45652SOL    HW241895  10.745   6.889  10.978 -0.1292  0.5898 -0.8336
45653SOL     OW41896   4.256   3.884   7.773  0.5092 -0.0428 -0.0537
45653SOL    HW141897   4.224   3.906   7.686  0.7206 -0.4314 -0.2300
45653SOL    HW241898   4.344   3.920   7.776  0.5198 -0.0716 -0.0183
45654SOL     OW41899   3.588   1.744   5.894 -0.5152  0.1110  0.3116
45654SOL    HW141900   3.522   1.774   5.831 -1.1341  0.7760  1.2591
45654SOL    HW241901   3.541   1.684   5.951 -0.1218  0.0322  0.5568
45655SOL     OW41902   0.118   6.343   2.508  0.0736 -0.3824 -0.4186
45655SOL    HW141903   0.080   6.257   2.490 -0.4676 -1.0549  3.1426
45655SOL    HW241904   0.050   6.389   2.557  2.8292 -0.8827  4.4730
45656SOL     OW41905   2.773   6.038   8.841 -0.0258  0.1035  0.2253
45656SOL    HW141906   2.739   5.961   8.887 -0.1102  1.0673  1.8488
45656SOL    HW241907   2.868   6.029   8.848 -0.0118 -0.3181 -0.4173
45657SOL     OW41908   5.664   5.564  10.357  0.2279 -0.2490 -0.2627
45657SOL    HW141909   5.584   5.553  10.306 -0.1078 -1.2707  0.4659
45657SOL    HW241910   5.716   5.486  10.338  0.6907  0.0132 -0.0947
45658SOL     OW41911   4.241   3.819  11.539 -0.8789  0.1343  0.1029
45658SOL    HW141912   4.259   3.734  11.579 -0.7758  1.3590  2.8445
45658SOL    HW241913   4.163   3.851  11.583 -1.2539  1.2669 -1.2889
45659SOL     OW41914   3.803   1.123   8.649 -0.1683 -0.2172  0.0387
45659SOL    HW141915   3.856   1.184   8.597 -2.9697  1.1993 -1.3452
45659SOL    HW241916   3.793   1.047   8.593 -1.0276  0.2397 -0.4386
45660SOL     OW41917  10.163   3.535   7.992 -0.1625 -0.2495  0.2450
45660SOL    HW141918  10.097   3.568   7.931 -0.4093  0.1744  0.7406
45660SOL    HW241919  10.246   3.556   7.950 -0.3276  0.3128  0.1899
45661SOL     OW41920   3.679   7.214   2.831  0.6509 -0.4776 -0.3857
45661SOL    HW141921   3.695   7.120   2.818 -1.2877 -0.8269 -0.5702
45661SOL    HW241922   3.728   7.256   2.761  0.8666 -1.4269 -0.8273
45662SOL     OW41923   8.221  10.905   4.161 -0.1088 -0.0725  0.5206
45662SOL    HW141924   8.175  10.927   4.080 -1.5678  1.9304  1.7924
45662SOL    HW241925   8.184  10.820   4.187 -1.2636  0.3174  0.1999
45663SOL     OW41926   0.759  11.338   4.948  0.3126  0.3392  0.0073
45663SOL    HW141927   0.832  11.286   4.915  0.4526 -0.7248  1.8364
45663SOL    HW241928   0.797  11.396   5.014 -0.5291 -0.7528  1.5290
45664SOL     OW41929   4.042   8.243   0.876  0.0305 -0.0113  0.3205
45664SOL    HW141930   4.077   8.211   0.794 -1.0227  2.1759 -1.0807
45664SOL    HW241931   3.981   8.174   0.905 -0.5099 -0.2900 -1.3885
45665SOL     OW41932   1.748   5.643   0.115 -0.0598  0.2515 -0.3815
45665SOL    HW141933   1.798   5.622   0.036 -1.5261 -0.8896 -1.0466
45665SOL    HW241934   1.748   5.561   0.165 -1.6636  0.0824 -0.6335
45666SOL     OW41935   8.485   4.155  10.730 -0.8248 -0.3957  0.4593
45666SOL    HW141936   8.491   4.132  10.637  3.0092  1.1938  0.1347
45666SOL    HW241937   8.555   4.104  10.771 -0.9344  0.6972  2.0556
45667SOL     OW41938   2.208   1.960   1.528  0.3384 -0.1232  0.5372
45667SOL    HW141939   2.224   1.881   1.476 -0.3091 -0.8528  1.4066
45667SOL    HW241940   2.275   2.022   1.499  0.1843 -0.6026 -0.9402
45668SOL     OW41941   4.024   9.812   6.990  0.1736 -0.1827 -0.5021
45668SOL    HW141942   3.943   9.862   6.999 -0.7826 -1.9196  1.5703
45668SOL    HW241943   3.997   9.721   7.006  2.3519 -0.9517 -0.9276
45669SOL     OW41944   1.541   2.103  10.248  0.0189 -0.3928  0.4752
45669SOL    HW141945   1.616   2.157  10.273  0.5318 -1.1668  0.6319
45669SOL    HW241946   1.513   2.061  10.329 -1.9299  1.4575  0.8759
45670SOL     OW41947   4.218   3.339   7.309 -0.3157  0.2502  0.7776
45670SOL    HW141948   4.298   3.392   7.306  1.1703 -1.8724  0.0988
45670SOL    HW241949   4.216   3.296   7.223 -2.8001  1.0425  0.3781
45671SOL     OW41950  10.114   7.290   8.858 -0.5159 -0.1991 -0.4115
45671SOL    HW141951  10.063   7.263   8.781 -0.7294 -1.0142 -0.0027
45671SOL    HW241952  10.061   7.262   8.932  0.5622 -1.1661  0.0260
45672SOL     OW41953   4.603   8.677   6.082 -0.4693  0.2391  0.0705
45672SOL    HW141954   4.589   8.600   6.138  1.3162  0.9994  1.6805
45672SOL    HW241955   4.584   8.751   6.140  0.2619  1.0389 -0.6960
45673SOL     OW41956   1.048   7.995   2.120 -0.4923 -0.1660 -0.1004
45673SOL    HW141957   1.038   7.907   2.085  0.0165 -0.6707  0.9746
45673SOL    HW241958   1.133   7.993   2.165 -0.5827  0.8068  0.1276
45674SOL     OW41959   5.576   6.405   6.315 -0.0234  0.2026 -0.5198
45674SOL    HW141960   5.542   6.352   6.244  0.4800 -0.3642 -0.3460
45674SOL    HW241961   5.505   6.408   6.379 -0.1089 -0.1347 -0.5987
45675SOL     OW41962   8.477   2.503   3.934 -0.3237  0.2918  0.0878
45675SOL    HW141963   8.385   2.495   3.910  0.3530 -1.6910 -2.3527
45675SOL    HW241964   8.524   2.466   3.859  2.5455  2.4141  0.6758
45676SOL     OW41965  11.629   1.058   1.817 -0.0971  0.3284 -0.1816
45676SOL    HW141966  11.723   1.049   1.800 -0.3215 -1.0602 -0.8404
45676SOL    HW241967  11.598   1.120   1.752  0.2392  0.1979 -0.4717
45677SOL     OW41968   1.212   3.705   0.021 -0.3251  0.1601 -0.0853
45677SOL    HW141969   1.282   3.678   0.080 -0.8065  0.8886  0.8636
45677SOL    HW241970   1.165   3.624   0.001  1.3243 -0.4949 -1.5064
45678SOL     OW41971   1.740   1.467   6.876  0.3665 -0.1202 -0.3751
45678SOL    HW141972   1.750   1.463   6.781  2.6337 -1.0111 -0.1608
45678SOL    HW241973   1.694   1.385   6.898 -0.6328  0.3331 -0.7230
45679SOL     OW41974   6.239   8.385   1.129  0.1330 -0.3984  0.1172
45679SOL    HW141975   6.206   8.470   1.099  0.3706 -0.4281 -0.2325
45679SOL    HW241976   6.314   8.367   1.073  0.0502 -0.8673  0.1509
45680SOL     OW41977   3.284   0.721   2.864  0.2819 -0.1778 -0.2291
45680SOL    HW141978   3.334   0.662   2.920  1.1677  0.1883 -0.6139
45680SOL    HW241979   3.217   0.757   2.921  1.1400  0.1480  0.5916
45681SOL     OW41980   2.344   1.103   5.438 -0.4754 -0.2772  0.6489
45681SOL    HW141981   2.343   1.189   5.396 -0.4605 -0.3327  0.5349
45681SOL    HW241982   2.428   1.100   5.484 -1.2383  0.5088  2.1834
45682SOL     OW41983   4.637   2.902   1.193  0.6693  0.0862  0.5067
45682SOL    HW141984   4.728   2.874   1.184  0.5172  0.2501 -2.4102
45682SOL    HW241985   4.630   2.931   1.284  2.9978 -1.6597  1.3418
45683SOL     OW41986   2.504   9.401   5.697 -0.1060  0.4234 -0.5672
45683SOL    HW141987   2.509   9.323   5.642 -0.4402  0.6892 -0.9750
45683SOL    HW241988   2.508   9.475   5.636 -2.2421  0.7190 -0.4324
45684SOL     OW41989   6.478   9.894   7.566 -0.0085 -0.0426 -0.4710
45684SOL    HW141990   6.543   9.828   7.593 -1.2196  0.0330  3.2804
45684SOL    HW241991   6.396   9.845   7.558 -0.0046  0.2439 -2.8775
45685SOL     OW41992   8.395   5.264   5.912 -0.4444  0.9650 -0.0157
45685SOL    HW141993   8.451   5.262   5.989 -0.7271  2.4387  0.2475
45685SOL    HW241994   8.360   5.175   5.906  0.9593  0.3570  0.5101
45686SOL     OW41995   3.178   8.550   0.111  0.4959 -0.3109  0.3269
45686SOL    HW141996   3.216   8.617   0.055 -2.0923 -0.5934 -1.9818
45686SOL    HW241997   3.196   8.467   0.066 -0.7286 -0.6472  0.4220
45687SOL     OW41998   5.290   5.897  11.043 -0.6132 -0.2511  0.2536
45687SOL    HW141999   5.198   5.872  11.056 -0.6644 -1.2581 -1.6463
45687SOL    HW242000   5.299   5.980  11.088 -1.8477 -1.1943  2.4082
45688SOL     OW42001   0.912   4.170   6.694  0.0963  0.3293  0.0543
45688SOL    HW142002   0.825   4.211   6.686  0.1763  0.3499 -0.7515
45688SOL    HW242003   0.904   4.087   6.647  0.3540  0.0651  0.4689
45689SOL     OW42004   3.268   1.735   0.635  0.0702  0.3686  0.3207
45689SOL    HW142005   3.214   1.657   0.645  0.6047 -0.0902 -0.2822
45689SOL    HW242006   3.357   1.701   0.624  0.3894  1.0849  0.5880
45690SOL     OW42007   2.948   6.259   9.223 -0.2056 -0.0940  0.1473
45690SOL    HW142008   3.028   6.243   9.274  0.2577  0.2751 -0.4454
45690SOL    HW242009   2.932   6.175   9.179 -0.5226 -0.3674  0.7821
45691SOL     OW42010   8.414   3.701   3.015  0.8577 -0.0018 -0.3440
45691SOL    HW142011   8.480   3.737   2.956  2.1369 -0.0017  1.0162
45691SOL    HW242012   8.437   3.608   3.023  1.9944  0.3894  1.6866
45692SOL     OW42013   6.668  10.857   2.375  0.2206  0.1719 -0.8525
45692SOL    HW142014   6.686  10.763   2.372  0.0992  0.0830  0.3772
45692SOL    HW242015   6.602  10.866   2.445 -0.5008  1.0657 -1.6170
45693SOL     OW42016  10.610   4.171   5.086 -0.1755  0.1866 -0.0182
45693SOL    HW142017  10.672   4.192   5.016  1.1559  1.7496  1.5225
45693SOL    HW242018  10.564   4.253   5.103 -1.2475 -0.4423  0.2318
45694SOL     OW42019   3.442   4.963   3.497  0.1653 -0.6371  0.0781
45694SOL    HW142020   3.446   4.978   3.403  2.0386 -1.9437 -0.1019
45694SOL    HW242021   3.457   4.869   3.507 -2.0427 -0.9155  1.6034
45695SOL     OW42022   6.569   3.370   4.354 -0.1735  0.0438  0.1736
45695SOL    HW142023   6.584   3.346   4.446  0.5181  0.9289  0.3041
45695SOL    HW242024   6.625   3.447   4.340 -0.8905  0.4065 -0.7661
45696SOL     OW42025  10.369   9.434   8.126 -0.0717  0.0625  0.4103
45696SOL    HW142026  10.457   9.407   8.150  0.7560  3.0142  1.1707
45696SOL    HW242027  10.370   9.435   8.030 -0.4112 -3.0100  0.2969
45697SOL     OW42028   8.597  11.088   7.918  0.2927  1.0391 -0.4674
45697SOL    HW142029   8.519  11.142   7.927 -0.3043  0.0270  0.7162
45697SOL    HW242030   8.613  11.085   7.824 -0.9468  1.4795 -0.7122
45698SOL     OW42031   5.369   7.384   0.847 -0.1991 -0.6386  0.5214
45698SOL    HW142032   5.417   7.458   0.810 -1.2971 -0.4508 -0.5954
45698SOL    HW242033   5.360   7.321   0.775  1.2215 -2.1632  1.6055
45699SOL     OW42034   6.761  10.207   9.585  0.0751  0.4665  0.0583
45699SOL    HW142035   6.837  10.210   9.527 -0.5224  1.0010 -0.7168
45699SOL    HW242036   6.772  10.127   9.636 -0.8003 -1.5925 -2.7461
45700SOL     OW42037   8.434   7.399   1.845 -0.0341  0.2008 -0.0786
45700SOL    HW142038   8.443   7.489   1.814  0.6735 -0.0926 -0.7703
45700SOL    HW242039   8.478   7.347   1.778 -1.9607 -0.8331 -0.6107
45701SOL     OW42040   9.709   8.497   9.636  0.2300 -0.8251 -0.9902
45701SOL    HW142041   9.791   8.546   9.631  1.0580 -2.0897 -0.3597
45701SOL    HW242042   9.734   8.411   9.670 -1.4786 -0.9829 -0.0087
45702SOL     OW42043   9.195   4.624   1.883  0.0506 -0.4045 -0.6249
45702SOL    HW142044   9.148   4.662   1.808  0.9407  1.8342 -0.1420
45702SOL    HW242045   9.287   4.639   1.863  0.4495 -2.1180 -0.2287
45703SOL     OW42046   7.613   6.251  11.560 -0.6412 -0.2372  0.1821
45703SOL    HW142047   7.660   6.275  11.640 -1.0280  2.2787 -0.2841
45703SOL    HW242048   7.521   6.264  11.581 -0.7329  0.6743 -0.7178
45704SOL     OW42049   5.501   9.489   1.379  0.6318 -0.2234  0.8329
45704SOL    HW142050   5.429   9.433   1.350  1.8767 -1.4108 -0.1169
45704SOL    HW242051   5.578   9.431   1.378  1.7061  1.1423  1.2668
45705SOL     OW42052   4.521  11.086   6.978  0.6776 -0.1691  0.1565
45705SOL    HW142053   4.601  11.036   6.961 -0.2831 -1.4688 -0.7973
45705SOL    HW242054   4.524  11.106   7.071  0.5362 -3.1372  0.8831
45706SOL     OW42055   2.197   5.260   1.856  0.4071 -0.0506 -0.4109
45706SOL    HW142056   2.137   5.249   1.783  1.6651 -1.1671 -1.3062
45706SOL    HW242057   2.195   5.354   1.875 -1.7708 -0.0848 -0.2453
45707SOL     OW42058   3.966   1.149   3.308 -0.3630 -0.8157 -0.2152
45707SOL    HW142059   4.000   1.188   3.389  2.7619  1.6609 -2.4498
45707SOL    HW242060   4.038   1.096   3.274 -1.6657 -1.9774 -1.3224
45708SOL     OW42061   0.849  11.617   6.662 -0.2550  0.0423 -0.0521
45708SOL    HW142062   0.774  11.677   6.668 -1.2712 -0.8860 -2.3080
45708SOL    HW242063   0.811  11.530   6.673  0.4885 -0.4320 -1.0462
45709SOL     OW42064   2.389  11.162   3.083  0.6195 -0.4330  0.0831
45709SOL    HW142065   2.478  11.130   3.068  0.7819  0.8907 -2.1522
45709SOL    HW242066   2.400  11.235   3.145  1.6197  1.8301 -2.5569
45710SOL     OW42067   2.906   7.120   1.734 -0.5172 -0.1416 -0.1505
45710SOL    HW142068   2.936   7.188   1.673 -0.9026 -0.0478 -0.2408
45710SOL    HW242069   2.935   7.151   1.820 -0.5375  0.0497 -0.2110
45711SOL     OW42070   6.498   4.112   8.793 -0.2118  0.2233  0.0751
45711SOL    HW142071   6.450   4.050   8.849 -0.2953 -0.4150 -0.6864
45711SOL    HW242072   6.587   4.077   8.789 -0.6226 -0.7421 -1.5974
45712SOL     OW42073   7.522   2.733   4.582 -0.6263  0.0890 -0.3007
45712SOL    HW142074   7.563   2.653   4.549 -1.4826  0.9115 -3.7829
45712SOL    HW242075   7.595   2.790   4.604 -0.0019 -0.8289  0.0620
45713SOL     OW42076   2.712   0.328   0.124  0.5098 -0.2851 -0.5801
45713SOL    HW142077   2.747   0.240   0.114  1.5410  0.1942 -1.4112
45713SOL    HW242078   2.683   0.353   0.036  1.4257  0.6646 -0.6359
45714SOL     OW42079   0.463   2.811   6.434  0.5894  0.0784 -0.1114
45714SOL    HW142080   0.414   2.829   6.514 -0.0449 -1.5623 -0.0840
45714SOL    HW242081   0.446   2.887   6.378  1.5142  1.5257  1.4743
45715SOL     OW42082   1.130   5.531   7.844  0.0625  0.0338 -0.1066
45715SOL    HW142083   1.036   5.518   7.832 -0.1293 -0.0618  1.3834
45715SOL    HW242084   1.137   5.622   7.874  0.3010 -0.3911  1.1615
45716SOL     OW42085   3.986   2.118   1.983  0.5155  0.3431 -0.3258
45716SOL    HW142086   4.026   2.075   1.907  1.2880 -1.8572  1.2268
45716SOL    HW242087   3.893   2.100   1.974  0.2778  2.0659 -1.8841
45717SOL     OW42088   9.255   6.462   7.568 -0.2917 -0.3767 -0.2014
45717SOL    HW142089   9.241   6.549   7.532 -3.0156 -1.0885 -1.1372
45717SOL    HW242090   9.320   6.422   7.510 -0.2195  0.5064 -0.7378
45718SOL     OW42091   2.135   6.497   0.049  0.7637 -0.3888  0.3823
45718SOL    HW142092   2.070   6.440   0.089  0.3037  0.0626  0.2877
45718SOL    HW242093   2.218   6.453   0.064  0.2535 -2.1624 -1.4837
45719SOL     OW42094  11.603   4.806   0.233  0.6632  0.7419  0.1496
45719SOL    HW142095  11.696   4.829   0.233  1.3291 -1.6681  0.3679
45719SOL    HW242096  11.585   4.775   0.322  0.7118 -2.3434 -0.7801
45720SOL     OW42097   4.765   6.598   5.062 -0.0988  0.0207 -0.1782
45720SOL    HW142098   4.701   6.625   5.127 -0.4467  1.1964 -0.9703
45720SOL    HW242099   4.840   6.567   5.113 -1.2168 -1.2260  0.7566
45721SOL     OW42100   1.779   1.377   4.246  0.7148 -0.1033 -0.1113
45721SOL    HW142101   1.788   1.352   4.154 -0.9981  0.5132 -0.4856
45721SOL    HW242102   1.868   1.375   4.280  1.5221  0.5721 -2.0237
45722SOL     OW42103   2.217   4.905   5.744 -0.2164 -0.3457 -0.0927
45722SOL    HW142104   2.185   4.973   5.803  0.5909 -0.9053  1.0228
45722SOL    HW242105   2.140   4.880   5.693 -0.9574  0.0997  0.7700
45723SOL     OW42106   2.506  11.675   1.527  0.0265  0.5352  0.5270
45723SOL    HW142107   2.505  11.581   1.545  0.7662  0.5802  0.8119
45723SOL    HW242108   2.534  11.715   1.610  1.1697  0.9037 -0.0321
45724SOL     OW42109   4.793   6.523   7.895 -0.0278  0.6822 -0.0085
45724SOL    HW142110   4.788   6.549   7.804  0.7282  2.7243  0.4848
45724SOL    HW242111   4.740   6.443   7.901 -2.8151  2.2934 -1.5579
45725SOL     OW42112   2.234   3.505   7.168 -0.1420  0.1915 -0.3431
45725SOL    HW142113   2.229   3.588   7.121 -0.5478 -0.0376 -0.7100
45725SOL    HW242114   2.147   3.493   7.205  0.3666  0.7265  1.1096
45726SOL     OW42115   9.659   8.282   5.365  0.0198 -0.3171 -0.6981
45726SOL    HW142116   9.689   8.322   5.446 -0.2125 -1.0964 -0.2083
45726SOL    HW242117   9.732   8.228   5.336 -0.2621 -0.8472 -0.4437
45727SOL     OW42118   2.576   1.749   6.851  0.3961 -0.1440  0.1080
45727SOL    HW142119   2.610   1.701   6.928  0.2264 -0.4953 -0.0335
45727SOL    HW242120   2.614   1.703   6.776 -0.4030 -0.5604 -0.0566
45728SOL     OW42121   7.071   2.612   5.667  0.0952 -0.7311  0.3528
45728SOL    HW142122   7.057   2.660   5.749  0.5508 -1.0665  0.6351
45728SOL    HW242123   7.045   2.673   5.598  3.1708  0.9965  0.5038
45729SOL     OW42124   6.639   3.955   7.566  0.7443 -0.0125 -0.2358
45729SOL    HW142125   6.588   3.922   7.640  2.3485 -2.5700 -0.1232
45729SOL    HW242126   6.575   3.992   7.506 -1.0011 -1.3338  0.7332
45730SOL     OW42127   7.740  11.326   3.003 -0.3164  0.3466  0.3909
45730SOL    HW142128   7.663  11.344   3.057 -0.1335 -0.0819  0.7984
45730SOL    HW242129   7.774  11.243   3.037 -0.5826 -0.2789 -0.8061
45731SOL     OW42130   3.129   1.930   9.758 -0.5229 -0.2780 -0.3147
45731SOL    HW142131   3.080   1.924   9.676 -0.4466  0.9780 -0.4783
45731SOL    HW242132   3.087   2.002   9.805  1.8990  1.6881 -0.9870
45732SOL     OW42133   7.288   1.837   6.672  0.1934  0.2565 -0.1982
45732SOL    HW142134   7.231   1.761   6.686  0.0440  0.4846  0.4162
45732SOL    HW242135   7.264   1.868   6.584  1.1334 -1.1497 -1.0079
45733SOL     OW42136   6.120   6.867   1.795  0.2455  0.0067 -0.5876
45733SOL    HW142137   6.189   6.831   1.850  0.2810  1.6796  0.5355
45733SOL    HW242138   6.092   6.794   1.740  1.1579 -1.3645  0.7043
45734SOL     OW42139  11.245   4.467   3.327  0.2706 -0.7436 -0.3582
45734SOL    HW142140  11.295   4.458   3.246 -1.2835  0.8036 -1.5739
45734SOL    HW242141  11.244   4.561   3.344 -1.8528 -0.7433 -0.2001
45735SOL     OW42142   6.233   5.623   2.912  0.0806 -0.7321  0.4028
45735SOL    HW142143   6.142   5.620   2.942 -0.2962  1.2576 -0.3977
45735SOL    HW242144   6.269   5.536   2.934 -1.6544 -1.1468  1.7878
45736SOL     OW42145   5.976   5.031   6.433  0.4297  0.9975  0.4815
45736SOL    HW142146   5.897   5.007   6.481  0.0801  0.7572 -0.1994
45736SOL    HW242147   5.968   4.986   6.349  1.5053  0.6070  0.5637
45737SOL     OW42148   1.355  11.262   5.642 -0.2774  0.0376 -0.5622
45737SOL    HW142149   1.416  11.326   5.603  0.8220  0.5480  1.8281
45737SOL    HW242150   1.376  11.262   5.735 -2.5163 -1.4104  0.0281
45738SOL     OW42151   5.002   6.545   5.191  0.8190  0.0445 -0.0458
45738SOL    HW142152   5.078   6.504   5.150  1.2402 -1.0975  1.7639
45738SOL    HW242153   4.961   6.476   5.243  0.5610  1.4598  1.7560
45739SOL     OW42154   6.111   0.361   1.962 -0.3767 -0.0263 -0.2107
45739SOL    HW142155   6.025   0.346   2.001  0.1174 -0.1478  0.8746
45739SOL    HW242156   6.112   0.305   1.885 -1.1160 -0.3551  0.0079
45740SOL     OW42157   4.253  11.254   8.958 -0.1178  0.0863 -0.2011
45740SOL    HW142158   4.315  11.304   9.010  1.3257 -1.5763 -0.2473
45740SOL    HW242159   4.261  11.164   8.990 -3.5778 -0.0054  0.7851
45741SOL     OW42160   9.817   9.011   2.252 -0.5905 -0.3444  0.1480
45741SOL    HW142161   9.735   9.054   2.277 -1.0852 -0.4521 -1.1911
45741SOL    HW242162   9.803   8.984   2.161  0.6125 -1.1593  0.1821
45742SOL     OW42163   5.411   6.005   2.584  0.3383 -0.8071  0.2864
45742SOL    HW142164   5.368   6.078   2.628 -0.4859 -0.7565 -0.5707
45742SOL    HW242165   5.345   5.935   2.584  0.7767 -1.2253  0.2461
45743SOL     OW42166  10.140   3.444   1.789 -0.1690  1.1002  0.3505
45743SOL    HW142167  10.131   3.523   1.736  0.3679  0.4107 -0.8147
45743SOL    HW242168  10.227   3.411   1.767 -0.3957  0.1699  0.8181
45744SOL     OW42169   3.208   8.132   5.808 -0.0941 -0.1326  0.5878
45744SOL    HW142170   3.128   8.084   5.789  0.2320  0.2881 -2.3144
45744SOL    HW242171   3.272   8.063   5.828 -0.4799 -0.6708  0.0168
45745SOL     OW42172   3.709   2.952   7.291  0.6875  0.4184 -0.0679
45745SOL    HW142173   3.727   3.042   7.264 -0.8638  0.9486  0.5812
45745SOL    HW242174   3.685   2.958   7.383 -0.7307 -0.4656 -0.3461
45746SOL     OW42175   0.433   0.895   1.459  0.3542 -0.0598 -0.0664
45746SOL    HW142176   0.344   0.930   1.463 -0.1943 -1.4606  1.5619
45746SOL    HW242177   0.424   0.810   1.416  1.1658  0.4226 -1.2323
45747SOL     OW42178   3.054   9.714   6.757 -0.3216  0.4111  0.8301
45747SOL    HW142179   3.106   9.794   6.764 -0.2749  0.7244 -2.1315
45747SOL    HW242180   2.963   9.745   6.756 -0.3065  0.4559 -0.2198
45748SOL     OW42181   8.407   5.467  10.855 -0.0719  0.2716  0.0542
45748SOL    HW142182   8.336   5.437  10.798  1.0637  1.3016 -2.0539
45748SOL    HW242183   8.453   5.387  10.880 -0.9026 -0.2531 -0.0763
45749SOL     OW42184   7.261   5.593   5.320 -0.0169 -0.2475 -0.0471
45749SOL    HW142185   7.351   5.561   5.317  0.5099  0.7670  2.7302
45749SOL    HW242186   7.211   5.521   5.359 -0.0697 -0.1458  0.0731
45750SOL     OW42187   9.852   8.562   8.672 -0.3355 -0.3652  0.1172
45750SOL    HW142188   9.835   8.482   8.720  2.0915 -1.6800 -1.0307
45750SOL    HW242189   9.947   8.569   8.670 -0.4525  1.8955 -0.8892
45751SOL     OW42190   7.079   0.369   4.026 -0.3008  0.1845  0.3776
45751SOL    HW142191   7.001   0.348   4.079  1.1635 -1.1060  2.1563
45751SOL    HW242192   7.077   0.306   3.954  0.0455 -1.1287  1.4758
45752SOL     OW42193   8.989   9.792   9.036  0.1573  0.6525  0.4702
45752SOL    HW142194   8.937   9.715   9.061  2.3407 -1.7558 -1.7841
45752SOL    HW242195   9.046   9.807   9.112  0.6681 -0.9435  0.4531
45753SOL     OW42196  10.132   2.894   1.083  0.1454  0.5118 -0.7678
45753SOL    HW142197  10.108   2.985   1.065  1.1448  0.7338 -1.0296
45753SOL    HW242198  10.152   2.893   1.177  0.6290  0.6783 -0.8686
45754SOL     OW42199   6.263   4.905   8.631  0.2971  0.1758  0.2310
45754SOL    HW142200   6.260   4.821   8.585 -1.8232  0.8078 -0.9180
45754SOL    HW242201   6.201   4.895   8.703  1.9798 -0.0708  1.6950
45755SOL     OW42202   8.334  10.285   8.360  0.0436  0.4534  0.3540
45755SOL    HW142203   8.344  10.315   8.450 -1.1773  1.3992  0.2102
45755SOL    HW242204   8.331  10.366   8.309  0.8686 -0.0714 -0.5645
45756SOL     OW42205   0.025   7.682   6.493  0.2166  0.0952  0.3800
45756SOL    HW142206  -0.009   7.683   6.582  0.0797 -2.3325  0.4219
45756SOL    HW242207  -0.043   7.637   6.442  1.7513 -1.6417 -0.2336
45757SOL     OW42208   8.048   8.849  10.355  0.4979  0.3758 -0.4008
45757SOL    HW142209   8.143   8.856  10.354  0.5964 -0.6209  0.4883
45757SOL    HW242210   8.031   8.758  10.381 -0.6826 -0.0587 -2.4362
45758SOL     OW42211   3.815   8.687   5.077  0.3543  0.1254 -0.4545
45758SOL    HW142212   3.788   8.702   4.986  1.5809  1.5088 -0.6435
45758SOL    HW242213   3.741   8.717   5.129 -0.2375 -0.3847 -0.9780
45759SOL     OW42214   1.646   2.104  10.723  0.1261  0.8576  0.3007
45759SOL    HW142215   1.610   2.090  10.810 -0.2140  0.5628  0.1155
45759SOL    HW242216   1.654   2.199  10.715  0.4444  0.8731  0.7634
45760SOL     OW42217   0.766   5.059  11.373 -0.2644 -0.2726 -0.3721
45760SOL    HW142218   0.741   5.147  11.399  1.3778  0.0690  0.1512
45760SOL    HW242219   0.826   5.072  11.300  1.3554 -0.8394  0.8064
45761SOL     OW42220   4.819   4.717   8.781 -0.3831  0.2709 -0.2200
45761SOL    HW142221   4.777   4.639   8.819 -0.0804  0.8333  1.3813
45761SOL    HW242222   4.884   4.682   8.720 -0.8311 -0.7098 -0.1528
45762SOL     OW42223   4.617   5.566   2.742 -0.5317  0.6365 -0.0487
45762SOL    HW142224   4.584   5.529   2.661 -3.8113  0.9938  0.9832
45762SOL    HW242225   4.546   5.622   2.774  1.5418  2.3879  1.9191
45763SOL     OW42226   0.738  10.729   8.507 -0.1223  0.3706  0.5997
45763SOL    HW142227   0.745  10.725   8.603 -1.6446  0.7257  0.7412
45763SOL    HW242228   0.815  10.779   8.480  1.3877 -1.3402  1.4502
45764SOL     OW42229   4.165   7.216   0.758 -0.0871  0.5249 -0.4427
45764SOL    HW142230   4.142   7.299   0.717 -0.8660  0.1096 -0.8769
45764SOL    HW242231   4.219   7.240   0.833  0.5200  1.3640 -1.1254
45765SOL     OW42232   1.413  10.985  11.422 -0.4770  0.6983 -1.1768
45765SOL    HW142233   1.418  11.080  11.420  2.2200  0.8093  2.3902
45765SOL    HW242234   1.490  10.955  11.374  1.2429  0.5774  1.4654
45766SOL     OW42235   1.859   1.008   9.013  0.1836 -0.5751  0.7454
45766SOL    HW142236   1.803   1.028   9.088 -1.2633 -0.4557 -0.3296
45766SOL    HW242237   1.853   1.086   8.958  2.3168 -0.1043  1.1086
45767SOL     OW42238   2.316   5.684   4.892 -0.5764  1.0491 -0.2962
45767SOL    HW142239   2.367   5.762   4.867 -0.6590  0.6122 -1.9229
45767SOL    HW242240   2.326   5.679   4.987  2.5985  0.8933 -0.5338
45768SOL     OW42241  10.801   6.939   5.247  0.1297 -0.1548  0.4639
45768SOL    HW142242  10.798   6.855   5.292  0.9507  1.0628  3.0301
45768SOL    HW242243  10.763   7.001   5.310  0.8836  1.6027 -0.7301
45769SOL     OW42244   8.814   1.957  10.737 -0.2450  0.2465  0.5333
45769SOL    HW142245   8.731   1.986  10.699  0.6802  2.5575  0.1322
45769SOL    HW242246   8.790   1.883  10.793 -2.3483 -0.0544 -0.6712
45770SOL     OW42247  10.551  11.307   3.532 -0.2087 -0.1788  0.2018
45770SOL    HW142248  10.516  11.348   3.611 -1.4702 -0.1449 -0.3500
45770SOL    HW242249  10.575  11.219   3.559  2.7384  0.8795  1.4574
45771SOL     OW42250   9.304   9.724   7.951 -0.0335  0.4831  0.4250
45771SOL    HW142251   9.249   9.786   7.903 -0.0253  0.4013  0.3087
45771SOL    HW242252   9.376   9.777   7.986 -0.1357  0.5740  0.4993
45772SOL     OW42253   0.854   0.003   4.098  0.5413  0.1410  0.0959
45772SOL    HW142254   0.840   0.089   4.060  0.8823  0.5453  0.8629
45772SOL    HW242255   0.791  -0.002   4.170 -0.2894 -0.7231 -0.6669
45773SOL     OW42256   6.882   0.569  11.685  0.0837  0.1752 -0.0736
45773SOL    HW142257   6.870   0.497  11.746  1.4210 -0.9796 -1.1068
45773SOL    HW242258   6.814   0.556  11.618  1.0338 -0.8379 -0.8746
45774SOL     OW42259   6.203  11.252   9.311 -0.1579  0.1450  0.1622
45774SOL    HW142260   6.293  11.264   9.342 -0.5387  0.2851  1.2577
45774SOL    HW242261   6.149  11.287   9.382 -1.0652  1.2788 -1.0447
45775SOL     OW42262   6.506   4.690   3.105  0.5266 -0.0552  0.2715
45775SOL    HW142263   6.443   4.744   3.057  0.8199  0.0072 -0.0507
45775SOL    HW242264   6.477   4.692   3.196  0.2469  0.2315  0.1738
45776SOL     OW42265   4.717  10.415   7.964  0.0378 -0.2737  0.3664
45776SOL    HW142266   4.732  10.340   8.022  3.4380 -1.0023 -1.2204
45776SOL    HW242267   4.804  10.439   7.933 -1.0535  3.5664 -0.2363
45777SOL     OW42268  10.014  11.254   3.021 -0.6575  0.8284 -0.4196
45777SOL    HW142269  10.062  11.180   3.058 -1.7651 -0.8673 -2.1027
45777SOL    HW242270  10.081  11.319   3.001  0.6881 -0.5871 -0.7694
45778SOL     OW42271  10.922   8.972   2.256  0.1679  0.0771  0.1687
45778SOL    HW142272  10.908   8.898   2.315  0.7407  0.1348  0.3820
45778SOL    HW242273  11.016   8.989   2.261  0.1149  0.5117 -0.2494
45779SOL     OW42274  11.283   0.485   8.266 -0.3884  0.1129 -0.2330
45779SOL    HW142275  11.300   0.528   8.183 -0.7958 -1.0055 -0.9280
45779SOL    HW242276  11.210   0.534   8.304  1.6381  2.4243  0.8782
45780SOL     OW42277   7.214   4.486   1.802 -0.2201  0.0329 -0.3536
45780SOL    HW142278   7.199   4.504   1.895 -0.1138 -1.0441 -0.1175
45780SOL    HW242279   7.134   4.516   1.759  0.0713  1.3298 -0.0323
45781SOL     OW42280   6.476  10.198   1.147  0.4017  0.4750 -0.0988
45781SOL    HW142281   6.477  10.284   1.188  1.3144 -0.0491  1.0479
45781SOL    HW242282   6.568  10.176   1.134  0.3354 -1.2913  1.8222
45782SOL     OW42283   1.930  11.515   4.828  0.2294  0.0218  0.0077
45782SOL    HW142284   1.885  11.522   4.744  0.8631  4.9221 -0.1898
45782SOL    HW242285   1.860  11.508   4.892 -0.2911 -2.6453 -0.7339
45783SOL     OW42286   6.914   7.428   1.711  0.7702 -0.2041  0.0098
45783SOL    HW142287   6.857   7.464   1.780 -1.0638  1.8516 -2.3542
45783SOL    HW242288   6.853   7.394   1.646  2.3301 -0.0636 -1.5951
45784SOL     OW42289  10.379   2.804   9.288  0.5534  0.6257  0.5119
45784SOL    HW142290  10.287   2.815   9.263  0.9336  0.5949 -0.9993
45784SOL    HW242291  10.393   2.868   9.357 -0.5766  0.6876  0.7106
45785SOL     OW42292   9.239   2.542   0.782 -0.7818 -0.4079  0.3466
45785SOL    HW142293   9.296   2.467   0.766 -2.0575 -1.0609 -1.4646
45785SOL    HW242294   9.299   2.615   0.795  0.4775 -1.4854  0.8433
45786SOL     OW42295  10.589   9.531  10.969 -0.0092  0.5620  0.2343
45786SOL    HW142296  10.620   9.621  10.976 -1.8406  1.1835  1.0110
45786SOL    HW242297  10.507   9.530  11.020 -0.0877 -1.5069  0.1458
45787SOL     OW42298   8.070   2.585   4.320  0.1988  0.0484  0.4331
45787SOL    HW142299   8.121   2.608   4.398  1.9766  0.0091 -0.6555
45787SOL    HW242300   8.129   2.530   4.268 -0.0024  1.9971 -2.0379
45788SOL     OW42301  10.263   8.812   1.798 -0.6617 -0.5391  0.4909
45788SOL    HW142302  10.313   8.729   1.800 -0.2299 -0.2848  0.4151
45788SOL    HW242303  10.319   8.872   1.749 -0.7349 -0.0472  1.0079
45789SOL     OW42304   9.368   1.025   3.021  0.0293 -0.5624 -0.0910
45789SOL    HW142305   9.288   1.038   3.071  0.6178 -1.2475  1.0596
45789SOL    HW242306   9.338   1.013   2.931 -1.2402 -1.7002  0.4526
45790SOL     OW42307   4.824   2.438  11.158  0.4375  0.7365  0.0846
45790SOL    HW142308   4.757   2.372  11.139 -0.6732  1.4630  1.2580
45790SOL    HW242309   4.890   2.425  11.090 -1.2755  0.5183 -1.6521
45791SOL     OW42310   6.723   5.136   0.091 -0.0063  0.1343 -0.1294
45791SOL    HW142311   6.654   5.108   0.150 -0.0512  0.1169 -0.1895
45791SOL    HW242312   6.780   5.192   0.144  0.2071 -0.2448  0.0477
45792SOL     OW42313   0.596   3.436   2.436 -0.0409 -0.1242  0.1123
45792SOL    HW142314   0.679   3.389   2.424  0.3647  0.3524  0.9485
45792SOL    HW242315   0.580   3.433   2.530  0.4925  2.1834  0.3397
45793SOL     OW42316   3.470   6.363   3.481  0.6666  0.1191 -0.7290
45793SOL    HW142317   3.391   6.377   3.429  1.1864 -0.7278 -1.7877
45793SOL    HW242318   3.521   6.444   3.471  1.1151 -0.3165 -2.2140
45794SOL     OW42319  11.424   4.782   6.981 -0.3609 -0.3065 -0.0720
45794SOL    HW142320  11.447   4.725   7.054 -1.8483 -0.5213  0.2564
45794SOL    HW242321  11.489   4.853   6.984  0.1337 -0.7839  0.8936
45795SOL     OW42322   9.610   7.949  10.391  0.7385  0.2382 -0.2311
45795SOL    HW142323   9.555   7.872  10.408 -0.4778  1.2449  0.5199
45795SOL    HW242324   9.642   7.935  10.302 -2.8831  0.8111 -1.8208
45796SOL     OW42325   5.544   3.640  11.096  0.1493 -0.4606  0.1031
45796SOL    HW142326   5.525   3.724  11.139  0.2196 -0.1593 -0.4415
45796SOL    HW242327   5.489   3.577  11.141 -0.0234 -0.0925  0.4171
45797SOL     OW42328   2.072   8.759   3.308 -0.5033  0.2437  0.5704
45797SOL    HW142329   2.007   8.721   3.248  0.4210 -1.9443  0.8639
45797SOL    HW242330   2.155   8.720   3.282  0.5757  2.2103  0.8636
45798SOL     OW42331  10.552  10.279   1.378  0.0533  0.8209 -0.2091
45798SOL    HW142332  10.459  10.282   1.357  0.1384  0.6093 -0.6168
45798SOL    HW242333  10.555  10.253   1.470 -0.2033 -3.0896 -1.1334
45799SOL     OW42334   2.777   3.019  11.576 -0.5198  0.1782 -0.4296
45799SOL    HW142335   2.834   2.994  11.503  0.5638 -2.2219  1.1102
45799SOL    HW242336   2.824   3.090  11.620  0.7293 -0.9380  0.0930
45800SOL     OW42337   4.603   8.390   6.678 -0.2525  0.0453 -0.3083
45800SOL    HW142338   4.652   8.358   6.602 -1.8752  0.8104 -1.7621
45800SOL    HW242339   4.564   8.311   6.716  0.7017 -0.3641 -0.1368
45801SOL     OW42340   0.466   1.577   0.737 -0.6135 -0.1325  0.3929
45801SOL    HW142341   0.407   1.648   0.712 -0.3491 -0.3810 -1.0308
45801SOL    HW242342   0.466   1.578   0.832 -2.7235  0.0180  0.4289
45802SOL     OW42343   7.331   7.813  10.097  0.4404  0.2149  0.7107
45802SOL    HW142344   7.271   7.874  10.054  1.2270  1.1544  0.9148
45802SOL    HW242345   7.293   7.726  10.080  0.9123  0.4922 -2.1889
45803SOL     OW42346   2.369   0.314   2.047  0.0160  0.3905 -0.6708
45803SOL    HW142347   2.325   0.324   1.963 -0.1161  0.6746 -0.5694
45803SOL    HW242348   2.349   0.224   2.074 -0.5686  0.5399 -0.5881
45804SOL     OW42349  10.876   5.576   5.175  0.7477 -1.0887  0.3172
45804SOL    HW142350  10.941   5.508   5.196 -0.6233 -2.3425  0.7343
45804SOL    HW242351  10.798   5.549   5.223  0.3694  1.2657  1.1443
45805SOL     OW42352   1.943   1.029  10.345  0.3817  0.2200  0.0577
45805SOL    HW142353   1.954   1.030  10.440 -1.8239  0.9541  0.3803
45805SOL    HW242354   1.906   0.942  10.327  1.0454 -0.0187 -0.1826
45806SOL     OW42355   8.233   2.145   1.368 -0.2208  0.0110 -0.3363
45806SOL    HW142356   8.304   2.082   1.358  1.6843  1.7419  1.3647
45806SOL    HW242357   8.159   2.093   1.398  0.4382 -1.7718 -1.6177
45807SOL     OW42358   5.413   2.349   1.350 -0.5041 -0.3950 -0.1246
45807SOL    HW142359   5.361   2.302   1.414 -1.0376 -0.6632 -0.7410
45807SOL    HW242360   5.503   2.319   1.365 -0.8687 -1.8458 -0.6947
45808SOL     OW42361   9.075   6.934   6.859 -0.3773  0.8703  0.9700
45808SOL    HW142362   9.117   6.971   6.938 -0.0881  1.9589  0.3347
45808SOL    HW242363   9.147   6.924   6.797 -0.4226 -1.0218  1.1850
45809SOL     OW42364   3.981   1.811   7.943 -0.6976 -0.6117 -0.5243
45809SOL    HW142365   3.926   1.884   7.913 -1.5549 -1.3847 -0.8925
45809SOL    HW242366   3.941   1.785   8.026 -0.1485 -0.4104 -0.1950
45810SOL     OW42367   8.877   5.843   9.685 -0.2368 -0.3867  0.6901
45810SOL    HW142368   8.887   5.923   9.633 -0.4412 -1.1692 -0.6210
45810SOL    HW242369   8.809   5.864   9.748  0.2346  0.7053  0.8632
45811SOL     OW42370   8.802   2.235   7.241 -0.5132  0.4094  0.4115
45811SOL    HW142371   8.771   2.276   7.322 -1.5022  0.0209  0.2446
45811SOL    HW242372   8.754   2.280   7.172  0.0111  0.4487  0.0743
45812SOL     OW42373   1.513   6.019   1.849  0.0172 -0.1564  0.2655
45812SOL    HW142374   1.489   6.023   1.756 -0.0452  1.6533  0.3263
45812SOL    HW242375   1.447   5.961   1.888 -2.5959  2.3417 -0.1054
45813SOL     OW42376   4.167   2.449   8.066  0.1169 -0.0858 -0.0755
45813SOL    HW142377   4.151   2.543   8.067  0.8409  0.0804  2.1572
45813SOL    HW242378   4.146   2.422   7.977 -1.9365  1.8550 -0.2716
45814SOL     OW42379  11.194   9.082   2.266 -0.1942 -0.4072 -0.1341
45814SOL    HW142380  11.288   9.100   2.273 -0.0623 -1.3455  0.6284
45814SOL    HW242381  11.178   9.076   2.171  0.5222 -0.3215 -0.2648
45815SOL     OW42382   5.434   0.580   3.189 -0.1859 -0.2686  0.0811
45815SOL    HW142383   5.451   0.630   3.109  2.8025 -0.0910  0.7279
45815SOL    HW242384   5.420   0.490   3.159  0.1485 -0.0625 -0.7028
45816SOL     OW42385   2.787   8.839   0.349 -0.3282  0.3346  0.0937
45816SOL    HW142386   2.822   8.750   0.353  0.8168  0.7438 -0.3257
45816SOL    HW242387   2.745   8.853   0.434 -0.8615 -0.7387  0.0110
45817SOL     OW42388   0.905   5.547   5.445 -0.2604 -0.4791  0.6458
45817SOL    HW142389   0.867   5.566   5.531 -0.4080 -0.9419  0.6875
45817SOL    HW242390   0.847   5.480   5.408 -0.4751  0.0553 -0.0144
45818SOL     OW42391   0.326  10.844   4.104 -0.1376 -0.7571 -0.2503
45818SOL    HW142392   0.367  10.850   4.190  0.5075 -0.8725 -0.5405
45818SOL    HW242393   0.320  10.750   4.087  1.0624 -0.7351 -0.9304
45819SOL     OW42394   7.726   9.887   5.606  0.3828  0.3061  0.2118
45819SOL    HW142395   7.723   9.980   5.628  0.6793  0.5741 -0.8197
45819SOL    HW242396   7.694   9.843   5.685 -0.4359  1.3132  0.4713
45820SOL     OW42397   2.308  10.566  10.931  0.1684 -0.1305  0.4913
45820SOL    HW142398   2.215  10.568  10.956  0.2751  0.0824  0.8719
45820SOL    HW242399   2.319  10.640  10.872 -0.3443 -1.2908 -1.1407
45821SOL     OW42400   0.002   9.602   5.981  0.4117 -0.0330  0.1058
45821SOL    HW142401  -0.084   9.624   6.016  0.0730 -1.6549  0.3540
45821SOL    HW242402   0.009   9.507   5.990  2.1030  0.0222 -0.2013
45822SOL     OW42403   5.580   0.674  10.251 -0.5677  0.1363  0.3005
45822SOL    HW142404   5.522   0.747  10.228 -0.3483  0.6627  1.3182
45822SOL    HW242405   5.545   0.641  10.334 -0.8300 -1.1199 -0.2916
45823SOL     OW42406   4.001   3.731  10.460 -0.9380  0.7613 -0.1639
45823SOL    HW142407   4.087   3.762  10.489 -1.2617 -0.1333  2.0285
45823SOL    HW242408   3.964   3.804  10.410 -0.1083  2.3707  1.4382
45824SOL     OW42409   8.726   7.196   0.693 -0.3009 -0.4179 -0.1139
45824SOL    HW142410   8.698   7.230   0.778  0.2418 -0.5146  0.1090
45824SOL    HW242411   8.653   7.142   0.663  0.5799 -2.6786  1.5687
45825SOL     OW42412   3.388   7.877   0.386  0.2602  0.0929  0.0670
45825SOL    HW142413   3.316   7.898   0.445 -0.0762 -1.6701  0.3356
45825SOL    HW242414   3.346   7.849   0.305  0.7099  1.4181 -0.6614
45826SOL     OW42415   4.365   4.303   8.304 -0.0869 -0.1479  0.5017
45826SOL    HW142416   4.430   4.248   8.262 -1.9240 -0.3202 -2.3940
45826SOL    HW242417   4.387   4.392   8.276 -0.1810 -0.0189  0.8318
45827SOL     OW42418   6.546   0.842   9.939  0.1650  0.3205 -0.2691
45827SOL    HW142419   6.567   0.770   9.999  0.4498 -1.9829 -2.9423
45827SOL    HW242420   6.453   0.859   9.953 -0.0658 -1.0337 -0.0143
45828SOL     OW42421   5.197   2.467   0.715 -0.4033  0.1347  0.1809
45828SOL    HW142422   5.172   2.377   0.694  2.0048 -1.0446  1.8593
45828SOL    HW242423   5.254   2.494   0.644 -1.7303  0.6784 -0.7152
45829SOL     OW42424  10.336   2.499   1.199 -0.1427  0.1519  0.4536
45829SOL    HW142425  10.253   2.543   1.215 -0.2379  0.6947 -1.3075
45829SOL    HW242426  10.333   2.420   1.254 -1.0978  0.9819  1.6300
45830SOL     OW42427   4.646   4.620   8.489  0.4114 -0.2426 -0.1202
45830SOL    HW142428   4.683   4.536   8.518 -1.1729 -0.5010  1.3622
45830SOL    HW242429   4.611   4.602   8.402  0.6481 -0.9390 -0.0786
45831SOL     OW42430   1.026   9.163   8.825 -0.0596 -0.2812 -0.2313
45831SOL    HW142431   1.000   9.073   8.843 -0.3072 -1.0177 -3.6074
45831SOL    HW242432   1.083   9.186   8.898 -0.7363 -2.8039  1.2339
45832SOL     OW42433   8.464   4.107   2.595 -0.0069  0.5314  0.1012
45832SOL    HW142434   8.390   4.161   2.567  0.6043  0.5077 -1.6951
45832SOL    HW242435   8.478   4.132   2.687 -0.6582  2.3756 -0.2441
45833SOL     OW42436   1.218   1.803   0.179 -0.5168  0.5229  0.3495
45833SOL    HW142437   1.237   1.823   0.271 -2.0943  1.1194  0.5783
45833SOL    HW242438   1.134   1.845   0.162 -0.2029  0.5249 -1.4206
45834SOL     OW42439   1.858   0.329   5.140 -0.0389  0.1551 -0.0927
45834SOL    HW142440   1.842   0.235   5.146 -0.9777  0.1656 -1.7008
45834SOL    HW242441   1.891   0.354   5.226  1.1724 -1.8024  0.0664
45835SOL     OW42442   4.300   8.347   8.169 -0.3994 -0.1219  0.0637
45835SOL    HW142443   4.324   8.265   8.211  0.2342 -0.2260 -0.4733
45835SOL    HW242444   4.230   8.323   8.108  0.2322 -0.4089 -0.5749
45836SOL     OW42445   0.278   4.607  11.633 -0.4732 -1.0252 -0.0414
45836SOL    HW142446   0.286   4.700  11.653 -0.2155 -1.0687  0.0552
45836SOL    HW242447   0.200   4.579  11.681  0.0994 -1.1107  0.8493
45837SOL     OW42448   1.018   5.831  10.899 -0.1251 -0.0672 -0.4260
45837SOL    HW142449   1.048   5.744  10.876 -2.2706 -0.8620 -0.5083
45837SOL    HW242450   0.983   5.867  10.817  0.3628  0.7039 -0.3058
45838SOL     OW42451   3.259   3.387   2.591 -0.4839 -0.2457 -0.3009
45838SOL    HW142452   3.231   3.429   2.672 -1.0198  1.0566 -1.1198
45838SOL    HW242453   3.203   3.426   2.524 -0.0378 -1.2768 -1.3052
45839SOL     OW42454   9.396   4.599   9.937 -0.1792 -0.3348  0.4161
45839SOL    HW142455   9.400   4.504   9.923 -3.2714 -0.6205  0.7996
45839SOL    HW242456   9.311   4.625   9.901  0.9875  2.5157 -0.6254
45840SOL     OW42457   6.063   1.929   4.373 -0.2509  0.2601  0.7134
45840SOL    HW142458   6.053   1.990   4.300  1.2478  0.1551  0.3876
45840SOL    HW242459   6.033   1.978   4.449 -0.5794  0.8348  0.2247
45841SOL     OW42460  11.662   2.891   4.084  0.3676 -0.1772  0.2336
45841SOL    HW142461  11.596   2.837   4.128  2.2060 -3.0537 -0.2426
45841SOL    HW242462  11.711   2.931   4.156  0.1797 -0.7558  0.6962
45842SOL     OW42463   1.455   5.170   0.573  0.1188 -0.4365 -0.4089
45842SOL    HW142464   1.391   5.141   0.508  1.5581 -1.0625 -1.6022
45842SOL    HW242465   1.483   5.089   0.616  0.7428 -0.2762 -0.5066
45843SOL     OW42466  10.702   8.116  11.571 -0.4031 -0.1537  0.1997
45843SOL    HW142467  10.646   8.130  11.495  0.1674 -1.1620 -0.4357
45843SOL    HW242468  10.645   8.133  11.646 -0.7773  1.5737 -0.4373
45844SOL     OW42469  10.124   5.180   0.691  0.1291 -0.2921 -0.5704
45844SOL    HW142470  10.193   5.164   0.626  0.2969 -0.2650 -0.3983
45844SOL    HW242471  10.046   5.142   0.652 -0.4478  2.2198 -2.1125
45845SOL     OW42472   9.434   5.576   3.681 -0.5235 -0.0141  0.4311
45845SOL    HW142473   9.521   5.590   3.719 -0.6572  0.5481  0.5492
45845SOL    HW242474   9.382   5.539   3.753 -0.4337 -0.1634  0.4190
45846SOL     OW42475   1.496   0.156  11.138 -0.3123 -0.5947  0.2418
45846SOL    HW142476   1.475   0.090  11.204  1.0065 -1.2512  0.0415
45846SOL    HW242477   1.481   0.240  11.181 -1.0989 -1.0245  0.8141
45847SOL     OW42478   7.500  10.203   9.916 -0.3197  0.1744 -0.4401
45847SOL    HW142479   7.542  10.272   9.865  1.4037  0.4130  1.1806
45847SOL    HW242480   7.444  10.251   9.978 -0.8380 -0.0092 -0.7638
45848SOL     OW42481   1.686   1.669   8.064 -0.3148 -0.1120  0.1527
45848SOL    HW142482   1.647   1.754   8.045  0.7504  0.0376 -1.6473
45848SOL    HW242483   1.637   1.607   8.010 -1.0887 -0.6751  1.4544
45849SOL     OW42484  11.415   4.442   8.728  0.2411 -0.2673  0.1498
45849SOL    HW142485  11.369   4.364   8.698 -1.3160  0.2853  0.9830
45849SOL    HW242486  11.417   4.433   8.824  1.1407  0.1406  0.1831
45850SOL     OW42487   3.421   9.557   7.548 -0.1768 -0.2353 -0.2088
45850SOL    HW142488   3.496   9.593   7.597  1.1311  0.2813 -2.4262
45850SOL    HW242489   3.432   9.462   7.554 -0.7035 -0.2161  1.4139
45851SOL     OW42490  10.017   5.098   7.775  0.0857 -0.4405  0.0243
45851SOL    HW142491   9.962   5.121   7.850 -1.5491  0.1330 -1.2789
45851SOL    HW242492  10.007   5.003   7.766 -0.0082 -0.4573  0.2935
45852SOL     OW42493   4.355   0.092  11.255  0.2876 -0.3210 -0.2651
45852SOL    HW142494   4.327   0.026  11.191  0.9703 -2.6450  1.6617
45852SOL    HW242495   4.450   0.100  11.241  0.5257 -1.2160  0.7238
45853SOL     OW42496   4.924   7.218   2.329  0.0295 -0.0029 -0.5788
45853SOL    HW142497   4.934   7.283   2.399  1.3370  0.1789 -0.9063
45853SOL    HW242498   4.888   7.267   2.255 -1.7420 -0.2790  0.0660
45854SOL     OW42499   4.849   5.498   0.696  0.0554  0.3316 -0.1286
45854SOL    HW142500   4.940   5.476   0.716  0.6284  0.5525 -2.2771
45854SOL    HW242501   4.817   5.540   0.775  1.1941 -1.5081  1.3932
45855SOL     OW42502   2.765   5.342   7.896  0.0867  0.4857  0.1834
45855SOL    HW142503   2.688   5.380   7.854  0.9638  0.5829 -1.4074
45855SOL    HW242504   2.767   5.381   7.983 -0.7690  1.7009 -0.3188
45856SOL     OW42505   5.512   2.709   7.737  0.0503  0.5326 -0.4884
45856SOL    HW142506   5.575   2.778   7.758 -1.1176  1.5216 -0.0741
45856SOL    HW242507   5.564   2.640   7.696  1.5845  0.7933  0.9201
45857SOL     OW42508   8.411   5.953   8.029 -0.2189 -0.1823 -0.3337
45857SOL    HW142509   8.436   5.866   8.060  0.1656 -0.6740 -1.9632
45857SOL    HW242510   8.341   5.938   7.966 -0.9809  0.8023  0.2387
45858SOL     OW42511   8.995   3.479   2.664 -0.1472 -0.3439 -0.3741
45858SOL    HW142512   8.967   3.416   2.597  1.3536 -2.2609  0.6686
45858SOL    HW242513   9.044   3.545   2.615 -1.4138 -0.1650 -1.4613
45859SOL     OW42514   6.077   2.117   4.173  0.0714  0.6067  0.3723
45859SOL    HW142515   6.156   2.123   4.120  0.2094 -0.2473  0.4603
45859SOL    HW242516   6.077   2.196   4.227  1.3810  0.1439  1.0868
45860SOL     OW42517  10.874   5.125   1.814 -0.7466 -0.1095  0.0729
45860SOL    HW142518  10.906   5.042   1.780  1.7280  0.8107 -0.0713
45860SOL    HW242519  10.931   5.144   1.889 -1.3402  1.3706  0.1963
45861SOL     OW42520   4.967   6.392   4.242  0.1778 -0.1241 -0.5035
45861SOL    HW142521   4.963   6.310   4.193 -0.8305 -1.3639  1.5098
45861SOL    HW242522   5.055   6.425   4.226  0.2111 -0.9570 -2.3169
45862SOL     OW42523   8.162   6.269   5.035 -0.2091 -0.3599  0.4327
45862SOL    HW142524   8.094   6.260   4.968  1.6296 -0.1533 -1.5622
45862SOL    HW242525   8.126   6.334   5.096 -1.6960 -0.0690 -0.6774
45863SOL     OW42526   9.075   1.127   8.583  0.2177  0.0848  0.0239
45863SOL    HW142527   9.061   1.102   8.674 -1.0156  0.5086 -0.0222
45863SOL    HW242528   9.045   1.052   8.532  0.6288 -0.0385 -0.0355
45864SOL     OW42529   0.680   5.688  10.772 -0.1836  0.6984  0.4870
45864SOL    HW142530   0.638   5.686  10.858  0.9230  1.2667  1.0729
45864SOL    HW242531   0.608   5.700  10.710 -1.0042  0.2324  1.3295
45865SOL     OW42532   8.153   1.104   4.402  0.1346  0.2480 -0.0477
45865SOL    HW142533   8.174   1.190   4.438 -2.3474  3.2021 -4.6672
45865SOL    HW242534   8.092   1.065   4.466  2.3343  1.1333  2.8009
45866SOL     OW42535   8.209   6.326   8.950  0.3141  0.1277  0.1153
45866SOL    HW142536   8.138   6.290   9.003  2.4221 -0.2649  2.9227
45866SOL    HW242537   8.172   6.406   8.912 -2.0134 -0.7819  0.2933
45867SOL     OW42538   6.982  10.229   1.925 -0.5717 -0.6282 -0.4074
45867SOL    HW142539   7.027  10.175   1.860  1.0792 -0.1225  0.2512
45867SOL    HW242540   7.016  10.317   1.910  1.7844 -0.8457  2.5732
45868SOL     OW42541   8.785  11.554   0.886 -0.1715 -0.3686  0.6815
45868SOL    HW142542   8.709  11.584   0.836  0.0087 -0.2290  0.4895
45868SOL    HW242543   8.769  11.584   0.975  0.2997  0.8575  0.3763
45869SOL     OW42544   3.847   3.096   0.439 -0.2788 -0.3386  0.4135
45869SOL    HW142545   3.913   3.163   0.421  0.4079 -1.2402 -0.5062
45869SOL    HW242546   3.823   3.111   0.531  1.2542 -0.0336  0.8019
45870SOL     OW42547   1.079   4.179   9.823  0.2227 -0.3068  0.2440
45870SOL    HW142548   0.986   4.187   9.805  0.4856  1.1086 -0.7054
45870SOL    HW242549   1.107   4.105   9.769 -0.0988  0.2123 -0.6703
45871SOL     OW42550   8.725   1.707  10.814 -0.6751 -0.1925 -0.1733
45871SOL    HW142551   8.652   1.674  10.866 -1.7829  0.1970 -1.4129
45871SOL    HW242552   8.737   1.642  10.745  0.3556 -0.3940  0.1790
45872SOL     OW42553   3.094   7.580   7.635 -0.2240  0.0092  0.1332
45872SOL    HW142554   3.144   7.631   7.698 -0.7948  1.1896 -0.3458
45872SOL    HW242555   3.004   7.612   7.643 -0.8402 -1.7373  0.6247
45873SOL     OW42556  11.591  11.237   4.892 -0.3714 -0.5295 -0.1465
45873SOL    HW142557  11.539  11.287   4.829  2.0164  1.4963 -0.6627
45873SOL    HW242558  11.641  11.175   4.839  0.1900 -0.1679 -0.0517
45874SOL     OW42559   2.089  11.150   5.397 -0.6686 -0.0438  0.4192
45874SOL    HW142560   2.007  11.100   5.395 -1.0946  0.6164 -1.7125
45874SOL    HW242561   2.063  11.236   5.429 -0.6396 -0.0795  0.5408
45875SOL     OW42562   3.140   0.860   3.506  0.1251  0.5182  0.0454
45875SOL    HW142563   3.169   0.851   3.597 -0.1360 -2.0794 -0.0342
45875SOL    HW242564   3.051   0.825   3.506  1.2473 -2.8114 -1.6590
45876SOL     OW42565   5.602   4.453   2.897 -0.1175  0.3870  0.3626
45876SOL    HW142566   5.577   4.361   2.889 -0.9943  0.7164 -0.9865
45876SOL    HW242567   5.649   4.458   2.980  0.7471 -1.4497  0.0305
45877SOL     OW42568   8.926  10.861   1.207  0.0642  0.1247  0.1312
45877SOL    HW142569   8.975  10.931   1.163 -0.7745  0.4068 -0.3760
45877SOL    HW242570   8.990  10.792   1.222  0.9480  1.0530  0.7674
45878SOL     OW42571   6.251  10.390   6.286  0.4300  0.2008  0.0349
45878SOL    HW142572   6.253  10.484   6.302  0.9822  0.3094 -0.6120
45878SOL    HW242573   6.159  10.365   6.299  0.4974  0.5897  1.4584
45879SOL     OW42574  11.523   7.299  11.349 -0.0677  0.8992  0.7775
45879SOL    HW142575  11.514   7.266  11.260  0.4009 -0.8853  1.3570
45879SOL    HW242576  11.592   7.365  11.344 -0.4716  1.2604 -0.2716
45880SOL     OW42577   1.184   5.673   7.548 -0.0184 -0.1847  0.2511
45880SOL    HW142578   1.260   5.723   7.578 -0.1881 -0.4237  1.1041
45880SOL    HW242579   1.220   5.588   7.524  0.5330  0.7633 -2.7010
45881SOL     OW42580  11.668   7.990   7.263  0.6485  0.3743  0.4029
45881SOL    HW142581  11.688   7.903   7.297  0.9667  0.6427  0.9024
45881SOL    HW242582  11.595   7.975   7.203 -0.6907  0.0366  2.0324
45882SOL     OW42583   7.264   2.989   9.555  0.8831  0.0874  0.4947
45882SOL    HW142584   7.270   3.027   9.643  0.8428  1.1153  0.0703
45882SOL    HW242585   7.355   2.984   9.526  1.0214 -1.5484  1.1040
45883SOL     OW42586   6.445   0.954   7.807 -0.0607 -0.0536 -0.4462
45883SOL    HW142587   6.432   0.923   7.897 -3.2337 -0.3620 -0.9038
45883SOL    HW242588   6.480   0.879   7.760 -1.9521 -1.1100 -0.2349
45884SOL     OW42589   8.761   0.049   3.752 -0.1573  0.4422 -0.1754
45884SOL    HW142590   8.681  -0.000   3.735 -0.4416  0.1087  1.9120
45884SOL    HW242591   8.815   0.033   3.675 -1.5948 -0.3406 -1.0742
45885SOL     OW42592   8.261  11.101   3.124  0.5735  0.3943 -0.1653
45885SOL    HW142593   8.215  11.119   3.042 -1.1991 -0.6682  0.5507
45885SOL    HW242594   8.195  11.063   3.181  2.1666 -0.4281  1.2134
45886SOL     OW42595   5.354  11.290   4.594  0.2616 -0.1163 -0.0617
45886SOL    HW142596   5.346  11.375   4.550  1.8027  0.1065  0.0291
45886SOL    HW242597   5.274  11.284   4.648 -0.1448  1.0149 -0.4959
45887SOL     OW42598  11.144   4.445   9.775  0.6055  0.0695  1.0574
45887SOL    HW142599  11.159   4.454   9.681 -0.7917  1.6024  0.9307
45887SOL    HW242600  11.170   4.356   9.795  0.3471 -0.4978 -0.9116
45888SOL     OW42601   7.704   5.294   0.114  0.3630  0.1480  0.1281
45888SOL    HW142602   7.748   5.379   0.119 -0.6291  0.7690 -1.0941
45888SOL    HW242603   7.766   5.233   0.154  1.9979  1.1018 -0.8230
45889SOL     OW42604   8.442   8.950   1.976  0.2656  0.0101 -0.0532
45889SOL    HW142605   8.347   8.947   1.978  0.1450 -1.0986 -2.8367
45889SOL    HW242606   8.463   9.035   1.936  0.4773  0.3444  0.7492
45890SOL     OW42607   0.134   3.772   6.131 -0.1889 -0.4245 -0.0881
45890SOL    HW142608   0.058   3.716   6.145  0.3150 -1.2443 -0.5392
45890SOL    HW242609   0.168   3.746   6.045  0.8816 -0.4214  0.3152
45891SOL     OW42610   3.003   1.577   7.747 -0.1090  0.3658 -0.2199
45891SOL    HW142611   3.078   1.609   7.696 -1.0039 -0.5070 -2.1849
45891SOL    HW242612   3.001   1.483   7.730  0.6559 -0.3691  3.0096
45892SOL     OW42613   1.296   5.821   1.606 -0.2208 -0.4279 -0.0411
45892SOL    HW142614   1.326   5.911   1.603 -1.7863  0.3590  3.2180
45892SOL    HW242615   1.372   5.771   1.635 -0.2608  0.5076  1.8363
45893SOL     OW42616   6.659   7.893   4.310  0.1518 -0.0776 -0.1566
45893SOL    HW142617   6.719   7.926   4.243 -0.4327 -0.8580 -1.1011
45893SOL    HW242618   6.633   7.807   4.278 -2.1584  0.5873 -0.2780
45894SOL     OW42619   7.469   8.404   1.430  0.3145  0.2039 -0.2692
45894SOL    HW142620   7.375   8.397   1.415  0.3290  1.8606 -1.3332
45894SOL    HW242621   7.478   8.398   1.525 -0.9934  1.2641 -0.0531
45895SOL     OW42622  10.359   8.572   0.753 -0.6565  0.3094 -0.2553
45895SOL    HW142623  10.386   8.481   0.743  3.2624  1.2496  0.0892
45895SOL    HW242624  10.349   8.585   0.848  0.0121  0.5070 -0.2072
45896SOL     OW42625   9.037   8.020  10.555 -0.8013 -0.6788  0.3103
45896SOL    HW142626   9.096   7.947  10.536 -1.2476 -0.7530 -0.8497
45896SOL    HW242627   9.073   8.094  10.508  0.1812  0.1445  2.2406
45897SOL     OW42628   8.664   1.140   6.653  0.1448  0.1259 -0.1994
45897SOL    HW142629   8.671   1.198   6.729 -0.8549 -0.9566  0.7745
45897SOL    HW242630   8.688   1.053   6.687 -0.3376 -0.3876 -1.1207
45898SOL     OW42631   2.050  10.768   8.803  0.2409 -0.0140  0.2292
45898SOL    HW142632   2.059  10.809   8.718  0.0688  0.5505  0.4806
45898SOL    HW242633   2.054  10.840   8.866  2.9847 -0.6005  0.8973
45899SOL     OW42634   3.925   7.970   7.811 -0.3130  0.4827  0.4756
45899SOL    HW142635   3.892   7.988   7.899  0.3173  0.1904  0.7790
45899SOL    HW242636   3.847   7.947   7.760 -0.4386 -1.8041  1.5718
45900SOL     OW42637   5.892   6.366   4.753  0.2150 -0.9727  0.3667
45900SOL    HW142638   5.886   6.317   4.835 -0.4433  1.4498  1.8494
45900SOL    HW242639   5.960   6.431   4.769 -1.0469  0.5925 -0.3941
45901SOL     OW42640   6.300   1.101   8.083  0.0300 -0.0390  0.2287
45901SOL    HW142641   6.352   1.179   8.065 -1.8420  1.3903  0.7217
45901SOL    HW242642   6.227   1.106   8.022 -1.2043 -0.2971  1.6247
45902SOL     OW42643  10.010   3.775   8.808 -0.3464  0.1133  0.3885
45902SOL    HW142644  10.053   3.748   8.727  0.6245 -1.1916  1.2757
45902SOL    HW242645   9.964   3.856   8.786  1.9592  1.1852 -0.8285
45903SOL     OW42646   6.162   7.230   5.740 -0.3481 -0.0257  0.5010
45903SOL    HW142647   6.220   7.154   5.747 -0.4712 -0.2520 -0.7894
45903SOL    HW242648   6.163   7.253   5.647 -3.4735 -0.9409  0.1454
45904SOL     OW42649   5.308   7.706   2.992 -0.0244 -0.6200  0.0008
45904SOL    HW142650   5.260   7.718   3.073  1.2752 -1.6609  0.9617
45904SOL    HW242651   5.262   7.636   2.946 -1.9666  1.2792 -1.1936
45905SOL     OW42652  11.414   1.385   0.366  0.0725 -0.0891  0.1610
45905SOL    HW142653  11.380   1.322   0.301 -0.5658  0.1508  0.2595
45905SOL    HW242654  11.497   1.348   0.393 -0.2255 -0.8226  0.1020
45906SOL     OW42655   3.055   3.415   8.526  0.3242  0.5365  0.4937
45906SOL    HW142656   3.025   3.489   8.580 -3.6143 -0.2279 -0.3511
45906SOL    HW242657   3.030   3.337   8.577  1.2812 -0.2197 -0.1690
45907SOL     OW42658   5.888  11.480   9.915  0.2895  0.1729  0.7590
45907SOL    HW142659   5.835  11.553   9.947 -0.0662  0.8553 -1.2119
45907SOL    HW242660   5.936  11.449   9.991 -3.5075 -1.0368  2.9016
45908SOL     OW42661   0.875   4.802   7.070 -0.0352  0.1376  0.1806
45908SOL    HW142662   0.850   4.766   6.985 -1.0104 -0.9336  0.8851
45908SOL    HW242663   0.912   4.728   7.118  1.0890  0.8702  0.4861
45909SOL     OW42664   6.120   8.422  10.025 -0.2379  0.8451  0.3682
45909SOL    HW142665   6.102   8.498  10.080  0.8931  1.1099  0.4143
45909SOL    HW242666   6.211   8.399  10.047  0.1393  0.7852 -1.1685
45910SOL     OW42667   2.904   6.876   3.762  0.1033 -0.7279  0.1804
45910SOL    HW142668   2.822   6.839   3.793 -0.0844 -0.4826 -0.0127
45910SOL    HW242669   2.972   6.839   3.819 -0.0647 -1.4691 -0.0983
45911SOL     OW42670  10.088  10.568   2.063 -0.1967  0.1960  0.7901
45911SOL    HW142671  10.008  10.567   2.010 -0.2160  2.2462  0.7177
45911SOL    HW242672  10.064  10.615   2.143  0.7433  0.1780  1.0935
45912SOL     OW42673   3.823   3.586   2.349 -0.0773  0.8114 -0.1761
45912SOL    HW142674   3.854   3.502   2.314  2.6683  1.2716  0.8520
45912SOL    HW242675   3.884   3.650   2.313  1.9043  1.5191  3.8776
45913SOL     OW42676   9.311  11.228  11.343 -0.0677 -0.6051 -0.4577
45913SOL    HW142677   9.310  11.136  11.367 -1.4771 -0.3599  0.5700
45913SOL    HW242678   9.342  11.273  11.421 -1.1721 -0.0825 -0.2956
45914SOL     OW42679   7.983   2.785   0.558 -0.0496  0.3606  0.0940
45914SOL    HW142680   7.967   2.857   0.619  2.5131  1.9593 -0.9459
45914SOL    HW242681   8.016   2.713   0.612 -2.9686 -0.2838  1.1923
45915SOL     OW42682   1.171   9.345   2.371  0.1055 -0.4133 -0.0612
45915SOL    HW142683   1.205   9.338   2.460  0.7610 -1.6782 -0.3855
45915SOL    HW242684   1.247   9.362   2.317 -0.2711  0.2013 -0.4085
45916SOL     OW42685   1.718   5.622   7.667  0.4951  0.1267  0.0999
45916SOL    HW142686   1.646   5.632   7.730  0.6790  1.3955  0.1484
45916SOL    HW242687   1.699   5.687   7.599  1.2962  0.0814 -0.1795
45917SOL     OW42688   8.627   0.130  10.606 -0.5719  0.0801  0.2364
45917SOL    HW142689   8.661   0.195  10.545 -0.8507 -0.3011 -0.3370
45917SOL    HW242690   8.559   0.084  10.557 -1.4371  0.3639  1.1301
45918SOL     OW42691   8.562   0.874   0.775 -0.0260  0.6667 -0.4845
45918SOL    HW142692   8.495   0.844   0.837  0.6450  0.3099  0.0840
45918SOL    HW242693   8.614   0.796   0.757 -0.0995  0.8157 -1.3520
45919SOL     OW42694   8.283   1.409   1.447 -0.4015  0.0685 -0.2654
45919SOL    HW142695   8.346   1.477   1.470  0.2348 -0.5075 -0.2607
45919SOL    HW242696   8.229   1.398   1.526  2.1158 -2.2910  1.3479
45920SOL     OW42697   0.478   2.549   4.082  0.3658  0.1118  0.3129
45920SOL    HW142698   0.453   2.640   4.067  0.7048  0.4943  1.8862
45920SOL    HW242699   0.435   2.500   4.012 -1.4558  1.2321  0.5898
45921SOL     OW42700   6.907   9.438  11.282  0.0912  0.4648 -0.4187
45921SOL    HW142701   7.002   9.442  11.293 -0.0880  0.2797  1.4794
45921SOL    HW242702   6.874   9.514  11.330 -0.7210  0.6983 -1.3086
45922SOL     OW42703  11.348   1.274   1.095  0.0915 -0.3399  0.8331
45922SOL    HW142704  11.337   1.360   1.135  0.9359  0.2433 -0.1567
45922SOL    HW242705  11.263   1.254   1.056 -0.9566 -1.1890  3.3446
45923SOL     OW42706   3.376   0.146  10.066 -0.6813 -0.3129  0.1914
45923SOL    HW142707   3.397   0.080  10.132  0.3393 -0.1093  0.0748
45923SOL    HW242708   3.372   0.097   9.983 -2.9370 -0.7495  0.4883
45924SOL     OW42709   6.574   1.350   0.792 -0.5431  0.0060 -0.2494
45924SOL    HW142710   6.647   1.412   0.798 -0.2016 -0.3722 -0.4902
45924SOL    HW242711   6.500   1.396   0.833 -0.3263  0.6247 -0.5501
45925SOL     OW42712   3.121   5.964   0.267  0.1247  0.0027 -0.2030
45925SOL    HW142713   3.199   5.957   0.211  0.1238  0.4376 -0.2612
45925SOL    HW242714   3.087   5.875   0.272  0.3104 -0.0943 -0.6320
45926SOL     OW42715  10.606   8.498   8.059  0.2983  0.0689 -0.2867
45926SOL    HW142716  10.603   8.403   8.074  1.8000  0.1891  1.0048
45926SOL    HW242717  10.689   8.513   8.013 -0.1086  0.7327 -0.8310
45927SOL     OW42718   6.236   2.897   5.889 -0.0432 -0.4001 -0.1397
45927SOL    HW142719   6.279   2.978   5.863  0.8887 -0.4128  1.2238
45927SOL    HW242720   6.305   2.831   5.886 -0.8611 -1.2314 -1.5303
45928SOL     OW42721   2.871   9.581   6.021  0.4433 -0.2581  0.4921
45928SOL    HW142722   2.824   9.499   6.034  0.1758 -0.1590  0.1722
45928SOL    HW242723   2.808   9.649   6.046  0.1889 -0.0987 -0.5406
45929SOL     OW42724   6.199   5.940  11.339 -0.1065 -0.3710 -0.2812
45929SOL    HW142725   6.182   6.005  11.271 -0.0151 -0.3449 -0.2796
45929SOL    HW242726   6.294   5.943  11.352 -0.3150  1.1581  1.3505
45930SOL     OW42727   3.716  10.921  10.704  0.2021 -0.3927 -0.2201
45930SOL    HW142728   3.702  10.837  10.749 -1.2811  0.6868  1.4909
45930SOL    HW242729   3.708  10.901  10.611  0.6734 -2.2606  0.1012
45931SOL     OW42730   0.426   9.993   8.313  0.4266 -0.3485 -0.9859
45931SOL    HW142731   0.515   9.960   8.313  0.7237  0.4076 -0.6211
45931SOL    HW242732   0.435  10.086   8.335 -0.5019 -0.4416 -0.0802
45932SOL     OW42733   7.591   3.329   5.067  0.3404  0.1773  0.5284
45932SOL    HW142734   7.650   3.330   4.991 -0.2408 -0.0301  0.0670
45932SOL    HW242735   7.587   3.237   5.093  0.6383  0.2657  0.8931
45933SOL     OW42736   1.664   8.693  11.485  0.0757 -0.4422  0.0238
45933SOL    HW142737   1.696   8.660  11.401  0.3092 -0.6950  0.2064
45933SOL    HW242738   1.687   8.623  11.548  1.4035  0.4453  0.5790
45934SOL     OW42739   0.137   0.521   1.839 -1.1676 -0.0067  0.4078
45934SOL    HW142740   0.165   0.531   1.748 -1.4889  0.6642  0.3784
45934SOL    HW242741   0.105   0.607   1.864  0.4264  0.2774  1.6678
45935SOL     OW42742   6.937   0.673  10.808 -0.0291 -0.6954 -0.4420
45935SOL    HW142743   6.906   0.670  10.898 -0.5837  0.1209 -0.5929
45935SOL    HW242744   6.861   0.648  10.756 -0.3787  0.9442 -0.7926
45936SOL     OW42745   0.069   0.641   9.787  0.1089 -0.3625  0.0673
45936SOL    HW142746   0.116   0.641   9.704 -0.6944 -0.4105 -0.3970
45936SOL    HW242747   0.058   0.548   9.808 -0.5864 -0.3741 -0.3048
45937SOL     OW42748   8.417   7.558   7.525 -0.4098  0.3317 -0.1767
45937SOL    HW142749   8.508   7.533   7.508 -0.3256  0.4878  0.0343
45937SOL    HW242750   8.371   7.475   7.534 -0.0085  0.2221  1.1788
45938SOL     OW42751   6.674   1.041   9.005  0.0491 -0.1120 -0.1273
45938SOL    HW142752   6.714   1.036   8.918  0.4156  0.0991  0.0288
45938SOL    HW242753   6.635   0.954   9.018 -1.5154  0.3840 -1.2138
45939SOL     OW42754   3.859  11.569   8.034  0.0103 -0.0392 -0.0928
45939SOL    HW142755   3.775  11.540   8.070 -0.6812  2.4564  0.5012
45939SOL    HW242756   3.924  11.524   8.088 -0.7481 -3.6691 -1.8624
45940SOL     OW42757   1.747  10.006  11.685  0.3272  0.0630  0.1641
45940SOL    HW142758   1.818  10.055  11.643 -0.7611 -0.5552 -2.6166
45940SOL    HW242759   1.779   9.989  11.773  2.2585  2.5717  0.0723
45941SOL     OW42760   4.373   2.050   7.497 -0.6931 -0.2527  0.6953
45941SOL    HW142761   4.392   2.127   7.443 -1.2676 -0.6190 -0.0603
45941SOL    HW242762   4.410   2.070   7.582 -0.5683  0.7335  0.4203
45942SOL     OW42763   7.545   2.836   3.062  0.5914 -0.4911  0.0308
45942SOL    HW142764   7.512   2.788   2.986  0.5941  0.1229 -0.3571
45942SOL    HW242765   7.516   2.926   3.049  1.3664 -0.1933  0.3054
45943SOL     OW42766   8.845   6.629   3.968  0.2291  1.0233 -0.1556
45943SOL    HW142767   8.887   6.576   3.901  0.8291  0.3828  0.7049
45943SOL    HW242768   8.760   6.653   3.931  0.9015  1.4202 -1.4775
45944SOL     OW42769   3.880   4.466   8.587  0.4805 -0.2704 -0.4326
45944SOL    HW142770   3.850   4.385   8.628  1.3901 -1.1351 -1.3902
45944SOL    HW242771   3.968   4.480   8.623 -0.5508  1.6526  1.5567
45945SOL     OW42772   2.923   6.839  10.556  0.3487  0.0986 -0.2657
45945SOL    HW142773   3.002   6.892  10.556 -0.6738  1.7543  1.2381
45945SOL    HW242774   2.852   6.901  10.574 -1.1460 -1.5232 -0.2061
45946SOL     OW42775   7.765   3.223  11.210  0.2796  0.0194 -0.1097
45946SOL    HW142776   7.785   3.247  11.119  0.0255 -1.5173 -0.5947
45946SOL    HW242777   7.800   3.135  11.220 -2.3626 -1.0564  0.3436
45947SOL     OW42778   3.832   8.570  11.319  0.0571  0.4781  0.5904
45947SOL    HW142779   3.902   8.536  11.262  0.4397 -0.2179  1.4554
45947SOL    HW242780   3.839   8.665  11.311 -0.0741  0.4037 -0.7302
45948SOL     OW42781   1.517   7.149   1.658  0.5974  0.1957 -0.3144
45948SOL    HW142782   1.567   7.068   1.649 -0.3494 -0.5478  0.7088
45948SOL    HW242783   1.499   7.177   1.569  0.4740 -1.0381 -0.6985
45949SOL     OW42784  11.547   9.458   6.559  0.7632  0.4758 -0.0439
45949SOL    HW142785  11.470   9.511   6.540 -0.5153 -0.9835  0.7894
45949SOL    HW242786  11.551   9.455   6.655  1.1757 -0.4143 -0.0800
45950SOL     OW42787   7.557  10.138   9.079 -0.3110  0.0343 -0.3001
45950SOL    HW142788   7.592  10.110   8.994 -1.1294  0.2802 -0.7312
45950SOL    HW242789   7.469  10.102   9.081 -1.0500  1.7346 -0.4542
45951SOL     OW42790   6.669   6.848   7.677  0.3081 -0.3964 -0.7138
45951SOL    HW142791   6.709   6.935   7.680  1.0189 -0.6911 -1.3296
45951SOL    HW242792   6.654   6.824   7.768  2.0876 -0.5194 -0.4257
45952SOL     OW42793   3.080   5.966   2.772 -0.0380 -0.2233  0.7505
45952SOL    HW142794   3.009   6.005   2.721  0.7189  0.0776 -0.1045
45952SOL    HW242795   3.092   6.026   2.845 -1.8039 -1.1761  1.9028
45953SOL     OW42796   3.598   4.804   0.253 -0.1101  0.1435 -0.3362
45953SOL    HW142797   3.613   4.709   0.248  2.0651  0.4690 -1.1126
45953SOL    HW242798   3.572   4.829   0.165 -0.3184  0.3356 -0.2206
45954SOL     OW42799   9.634   1.013  11.434 -0.3166 -0.3905  0.6296
45954SOL    HW142800   9.681   0.974  11.507  0.0241 -1.9255 -0.3677
45954SOL    HW242801   9.553   1.046  11.473  0.5109  0.1774  1.9408
45955SOL     OW42802   8.586  10.231   3.473  0.5119 -0.3817 -0.3343
45955SOL    HW142803   8.560  10.292   3.543 -2.6410 -0.0315 -1.6188
45955SOL    HW242804   8.603  10.287   3.397 -1.5424 -0.9355 -1.2840
45956SOL     OW42805   7.672   4.144   5.772 -0.0639 -0.1290  0.2314
45956SOL    HW142806   7.664   4.103   5.686 -0.2832  0.2386  0.0734
45956SOL    HW242807   7.753   4.108   5.808 -0.3610 -0.8575  0.1869
45957SOL     OW42808  11.190   8.658   2.080 -0.7300  0.6455  0.0868
45957SOL    HW142809  11.112   8.663   2.024 -2.0767 -0.3570  1.7913
45957SOL    HW242810  11.159   8.621   2.162  2.0541 -2.4967 -0.0583
45958SOL     OW42811   8.293   1.934   2.132  0.6389 -0.3448  0.3571
45958SOL    HW142812   8.338   1.937   2.048  0.8294  1.7465  0.4760
45958SOL    HW242813   8.205   1.967   2.113  0.1487 -1.4424  0.6881
45959SOL     OW42814   2.477   2.538   8.428 -0.3243  0.7787 -0.0714
45959SOL    HW142815   2.477   2.457   8.479 -0.5655  0.2205 -0.9179
45959SOL    HW242816   2.492   2.509   8.338  1.7255  1.8709 -0.1275
45960SOL     OW42817   3.186   8.887   8.416 -0.8611 -0.3318 -0.8017
45960SOL    HW142818   3.137   8.858   8.339 -2.0805 -0.2553 -0.0760
45960SOL    HW242819   3.120   8.922   8.475 -0.4045 -3.0510  1.5569
45961SOL     OW42820   1.347   9.208   1.804  0.1977  0.1806  0.2346
45961SOL    HW142821   1.302   9.282   1.763  0.6887 -0.6665 -1.9577
45961SOL    HW242822   1.436   9.239   1.820  0.5439 -0.0317 -1.1274
45962SOL     OW42823   5.102   2.145   6.513  0.1265 -0.0633  0.0982
45962SOL    HW142824   5.025   2.089   6.527 -0.6347  0.6985 -0.9000
45962SOL    HW242825   5.070   2.234   6.523  0.3523  0.3813 -2.4017
45963SOL     OW42826  11.486   3.412   3.591 -0.4609  0.4664 -0.2618
45963SOL    HW142827  11.507   3.430   3.499 -1.2480  1.2974 -0.2903
45963SOL    HW242828  11.395   3.440   3.601 -0.7780 -0.7547  0.4739
45964SOL     OW42829   9.734   3.250   1.241  0.2703 -0.3408 -0.1889
45964SOL    HW142830   9.804   3.313   1.222  0.3655 -0.1128  0.8450
45964SOL    HW242831   9.779   3.165   1.246  0.1709 -0.4706 -1.3967
45965SOL     OW42832   1.675   8.089   6.513  0.1147 -0.0721  0.4219
45965SOL    HW142833   1.639   8.000   6.522 -1.2472  0.3873 -0.2338
45965SOL    HW242834   1.719   8.105   6.596  2.4626 -2.2215 -0.2811
45966SOL     OW42835   3.790   0.457   5.351  0.1735 -0.6041  0.1365
45966SOL    HW142836   3.709   0.503   5.374 -0.1839 -0.8161 -0.6538
45966SOL    HW242837   3.760   0.378   5.306  0.8355 -0.2716 -0.9262
45967SOL     OW42838   4.643   3.325   1.657  0.0194 -0.4790 -0.8759
45967SOL    HW142839   4.578   3.333   1.727  0.1541 -1.0466 -0.6749
45967SOL    HW242840   4.611   3.382   1.587  1.0761  1.9763  0.5168
45968SOL     OW42841  11.512   9.380  10.984 -0.0530 -0.1763  0.3826
45968SOL    HW142842  11.540   9.299  10.941 -0.0770  0.0143 -0.0016
45968SOL    HW242843  11.430   9.357  11.027 -0.9924  0.0562 -1.1778
45969SOL     OW42844   6.954   6.413   6.618  0.0217  0.5164  0.1777
45969SOL    HW142845   6.953   6.330   6.569  0.3218 -0.1950  1.3526
45969SOL    HW242846   6.923   6.390   6.705  1.3268  1.3978  0.8969
45970SOL     OW42847   2.261   6.792   2.237 -0.5178 -0.0361  0.1224
45970SOL    HW142848   2.326   6.858   2.262  1.5583 -2.0623  0.4134
45970SOL    HW242849   2.278   6.777   2.144 -0.8446 -0.3027  0.1061
45971SOL     OW42850   3.465   0.586   8.133  0.8512  0.5242  0.0737
45971SOL    HW142851   3.498   0.559   8.047 -0.4138 -0.0394 -0.2584
45971SOL    HW242852   3.498   0.675   8.145  1.0472  0.6049 -0.9958
45972SOL     OW42853   4.567   8.751   6.629 -0.3679 -0.0536  0.5788
45972SOL    HW142854   4.564   8.825   6.690  0.9486 -1.4591  2.4654
45972SOL    HW242855   4.653   8.756   6.589 -1.6053  1.5057 -2.1852
45973SOL     OW42856   4.617   7.775  10.828 -0.9242  0.0352 -0.3751
45973SOL    HW142857   4.705   7.735  10.829 -0.8975  0.0016 -1.8357
45973SOL    HW242858   4.631   7.864  10.859 -0.7606 -0.6382  1.5954
45974SOL     OW42859   9.317   2.784   5.176  0.2019 -0.2413  0.0696
45974SOL    HW142860   9.267   2.728   5.234  0.4975 -0.3422  0.2274
45974SOL    HW242861   9.297   2.752   5.088  0.3564 -0.5819  0.1584
45975SOL     OW42862   0.500   1.114   8.849 -0.1712  0.6220 -0.3525
45975SOL    HW142863   0.592   1.088   8.857 -0.5875 -0.1736  2.8400
45975SOL    HW242864   0.489   1.183   8.914 -2.4228 -1.2620  1.4413
45976SOL     OW42865   3.596   1.688   7.388 -0.1462  0.7374 -0.0003
45976SOL    HW142866   3.526   1.717   7.446 -0.4939  0.1450 -0.1115
45976SOL    HW242867   3.550   1.648   7.313  0.1629  3.9749 -2.1344
45977SOL     OW42868   1.783   6.645   0.271 -0.0645  0.0916  0.2776
45977SOL    HW142869   1.758   6.638   0.179 -0.8410  3.1521  0.1802
45977SOL    HW242870   1.866   6.692   0.270 -0.1741  0.3201  1.1671
45978SOL     OW42871   4.954  10.078   3.322  0.1145  0.0531  0.5330
45978SOL    HW142872   4.881  10.094   3.382  1.0038  3.4301  0.9040
45978SOL    HW242873   4.920  10.103   3.236  0.1760 -0.5194  0.3398
45979SOL     OW42874   8.912   8.254  11.424  0.2818  0.6745  0.0135
45979SOL    HW142875   8.940   8.189  11.488  0.5201  2.8219  2.2289
45979SOL    HW242876   8.828   8.286  11.458 -0.2562  0.9393 -1.4930
45980SOL     OW42877   5.517  10.862   7.992  0.3160 -0.3690  0.1084
45980SOL    HW142878   5.529  10.787   7.933 -2.6563 -0.1622 -0.9291
45980SOL    HW242879   5.513  10.823   8.080  1.1150 -1.1315 -0.1821
45981SOL     OW42880   9.400   4.943   1.537 -0.5628  0.6168  0.2042
45981SOL    HW142881   9.309   4.972   1.542 -1.2406 -1.3842  0.4073
45981SOL    HW242882   9.442   5.005   1.477 -1.6917  2.3795  1.1653
45982SOL     OW42883   4.233   9.507   4.398 -0.4234 -0.2016  0.6559
45982SOL    HW142884   4.167   9.440   4.416  0.2810 -1.9381 -2.5434
45982SOL    HW242885   4.184   9.578   4.357 -0.5555 -0.8159 -0.2796
45983SOL     OW42886   5.187   0.389   0.664  0.9061 -0.0687  0.1465
45983SOL    HW142887   5.193   0.294   0.656 -1.2593 -0.1806 -1.0162
45983SOL    HW242888   5.225   0.423   0.583  0.5710 -0.0266  0.0023
45984SOL     OW42889  10.301   5.840  10.097 -0.1130  0.1771 -0.0687
45984SOL    HW142890  10.258   5.838  10.182  1.0539 -2.0200  0.5618
45984SOL    HW242891  10.263   5.766  10.049  0.6276  0.1889 -0.7029
45985SOL     OW42892   7.912   3.433   9.176  0.0300 -0.0744 -0.3103
45985SOL    HW142893   7.969   3.506   9.150  0.9752 -0.4083  0.7783
45985SOL    HW242894   7.843   3.433   9.110  1.0664  0.5937 -1.4460
45986SOL     OW42895  10.868   4.288  11.267  0.1276 -0.2546 -0.1487
45986SOL    HW142896  10.939   4.274  11.205  0.0190 -1.9603  0.0755
45986SOL    HW242897  10.794   4.239  11.231 -0.6007  0.5489  0.2076
45987SOL     OW42898   7.919   6.518  10.262 -0.5434 -0.8293  0.0587
45987SOL    HW142899   7.982   6.446  10.262 -1.6640 -1.8447 -1.4497
45987SOL    HW242900   7.906   6.538  10.355  0.0015 -2.3705  0.4892
45988SOL     OW42901   0.181   9.391   9.572 -0.5134  0.0649  0.1670
45988SOL    HW142902   0.118   9.344   9.626  0.9696  0.3726  2.2757
45988SOL    HW242903   0.195   9.473   9.618 -0.5925  1.2039 -1.7299
45989SOL     OW42904   2.716   5.712   2.737  0.5808 -0.4028 -0.0519
45989SOL    HW142905   2.675   5.755   2.662 -0.7070  1.2593  1.5168
45989SOL    HW242906   2.773   5.779   2.776 -0.3590 -0.5153  1.6101
45990SOL     OW42907   7.402   5.442   5.754 -0.5953 -0.0592 -0.0790
45990SOL    HW142908   7.419   5.502   5.680 -0.3032 -1.0360 -0.8284
45990SOL    HW242909   7.424   5.356   5.719  0.1046 -0.4808  1.3491
45991SOL     OW42910   4.113  11.661   4.726 -0.0825 -0.2675 -0.5010
45991SOL    HW142911   4.181  11.609   4.769 -1.4817 -0.9465  0.9920
45991SOL    HW242912   4.120  11.637   4.634  1.4870 -0.5497 -0.3409
45992SOL     OW42913  10.864  10.103   4.528  0.0089 -0.1505  0.4638
45992SOL    HW142914  10.828  10.053   4.455  1.4302  0.8113 -0.9366
45992SOL    HW242915  10.792  10.161   4.554 -0.0155  0.6307 -1.2384
45993SOL     OW42916   2.592  11.149   1.717  0.5093  0.5649  0.0200
45993SOL    HW142917   2.590  11.123   1.809 -0.5690 -1.7252 -0.5785
45993SOL    HW242918   2.648  11.083   1.675 -0.0281  0.8365 -1.1507
45994SOL     OW42919   0.644  10.110  10.255 -0.7343 -0.3129  0.3627
45994SOL    HW142920   0.702  10.184  10.276 -0.3096 -0.5724  0.1251
45994SOL    HW242921   0.587  10.143  10.186 -1.5459  0.2621  1.2877
45995SOL     OW42922   2.900   1.908   7.511  0.2412  0.1302  0.2423
45995SOL    HW142923   2.844   1.986   7.512  1.5941  1.1707 -0.9181
45995SOL    HW242924   2.939   1.907   7.423  1.6102 -0.8640  0.8145
45996SOL     OW42925   3.759   1.394   2.168  0.5684  0.2785  0.1894
45996SOL    HW142926   3.825   1.333   2.201  0.8438  0.2453 -0.4164
45996SOL    HW242927   3.730   1.356   2.085  2.0988  1.8675 -1.1658
45997SOL     OW42928   1.678   1.916  10.071 -0.1216  0.2464 -0.1272
45997SOL    HW142929   1.734   1.956  10.004 -0.7198 -1.0992 -1.5018
45997SOL    HW242930   1.622   1.988  10.101 -0.4495  0.7294 -1.7505
45998SOL     OW42931   7.243   6.169   9.640 -0.0869  0.2918 -0.2845
45998SOL    HW142932   7.193   6.094   9.608  0.1279 -0.1247  0.3404
45998SOL    HW242933   7.245   6.229   9.566  0.6933 -0.7964 -1.1809
45999SOL     OW42934  10.532   3.537   3.626  0.0235 -0.0498 -0.0829
45999SOL    HW142935  10.547   3.484   3.705 -0.2527 -1.0628 -0.6954
45999SOL    HW242936  10.619   3.545   3.586  0.1113  0.1990  0.1519
46000SOL     OW42937   6.799   7.758   4.053  0.0615  0.7874  0.2863
46000SOL    HW142938   6.879   7.707   4.062 -1.8045 -3.2971 -2.5308
46000SOL    HW242939   6.733   7.706   4.100 -1.7320  1.2147 -1.5958
46001SOL     OW42940  11.599   3.031   5.996 -0.3778  0.0749 -0.4889
46001SOL    HW142941  11.585   3.125   6.010 -1.0747 -0.3661  2.2728
46001SOL    HW242942  11.688   3.015   6.027 -0.9074 -0.4459  0.8392
46002SOL     OW42943   4.414   6.286   4.966  0.1031 -0.3352  0.2497
46002SOL    HW142944   4.450   6.286   4.877 -0.2276 -0.7750  0.1082
46002SOL    HW242945   4.382   6.375   4.980  2.3620  0.4629  0.8570
46003SOL     OW42946   9.460   7.433   3.065 -0.3723  0.1354  0.8380
46003SOL    HW142947   9.411   7.365   3.111 -0.8048 -0.2233 -0.1267
46003SOL    HW242948   9.548   7.429   3.102  0.0416 -1.9868 -0.2356
46004SOL     OW42949   4.542   6.072   9.659  0.2401 -0.1968 -0.8714
46004SOL    HW142950   4.484   5.997   9.646 -0.1785 -0.0024 -0.1975
46004SOL    HW242951   4.629   6.033   9.672  0.1248 -0.5327 -1.0941
46005SOL     OW42952   1.068   5.245   5.500  0.4213  0.0802  0.0534
46005SOL    HW142953   1.067   5.329   5.454 -3.3094  1.0428  1.5185
46005SOL    HW242954   1.048   5.267   5.591 -0.6854 -2.3595  0.4744
46006SOL     OW42955   8.476   3.416  11.022  0.0230  0.2236 -0.4345
46006SOL    HW142956   8.473   3.351  11.092  1.2656  0.2779 -0.3086
46006SOL    HW242957   8.400   3.472  11.038  0.2020  0.1481  0.7945
46007SOL     OW42958  11.580   9.802   1.644  0.7823 -0.1678 -0.3127
46007SOL    HW142959  11.660   9.794   1.593  0.5201 -0.9418 -0.6096
46007SOL    HW242960  11.594   9.747   1.720 -0.5080 -2.5892 -1.7112
46008SOL     OW42961   4.568   3.522   1.105 -0.2121  0.2069 -0.1204
46008SOL    HW142962   4.586   3.590   1.040 -0.0571  1.1271  0.8662
46008SOL    HW242963   4.473   3.516   1.108 -0.2169  0.0649 -0.5275
46009SOL     OW42964   8.467  11.030   4.172  0.5934  0.0855  0.2181
46009SOL    HW142965   8.477  11.056   4.080 -0.0551  1.8371  0.5909
46009SOL    HW242966   8.381  10.988   4.176  0.0579  1.1432  0.2216
46010SOL     OW42967   3.196   8.734  10.741 -0.3468  0.0902 -0.2536
46010SOL    HW142968   3.147   8.813  10.763  0.3579  0.8853 -1.4439
46010SOL    HW242969   3.250   8.759  10.666 -0.6746 -1.7323 -1.1541
46011SOL     OW42970   9.084   8.991   0.055  0.0777 -0.3070 -0.3416
46011SOL    HW142971   9.153   9.031   0.004 -2.0067  0.9691 -2.3394
46011SOL    HW242972   9.066   8.908   0.010 -1.0420  0.3352 -1.1507
46012SOL     OW42973   9.437   4.177   3.306 -0.6712  0.5151 -0.0662
46012SOL    HW142974   9.416   4.269   3.285 -2.5648  0.3017  0.6882
46012SOL    HW242975   9.403   4.165   3.394  0.2543 -0.7224  0.1388
46013SOL     OW42976   9.325   7.442   8.064 -0.4876 -0.2032  0.0946
46013SOL    HW142977   9.381   7.423   7.989 -0.6503  1.2519 -0.4300
46013SOL    HW242978   9.237   7.449   8.028 -0.8986 -1.5449  0.7697
46014SOL     OW42979   4.565   3.371   0.011 -0.1016 -0.0799 -0.2969
46014SOL    HW142980   4.533   3.290   0.051 -0.6746  0.5097  0.4766
46014SOL    HW242981   4.608   3.417   0.083 -0.7295  0.7860 -0.4669
46015SOL     OW42982   9.745   8.494  11.134 -0.1399 -0.1946  0.3540
46015SOL    HW142983   9.666   8.478  11.185 -0.0004 -0.3364  0.5284
46015SOL    HW242984   9.793   8.411  11.137 -0.0359 -0.1424  0.1603
46016SOL     OW42985   5.393   5.993   8.297 -0.1191 -0.1426 -0.1553
46016SOL    HW142986   5.460   5.949   8.350 -0.6626 -0.2834  0.4330
46016SOL    HW242987   5.409   5.962   8.208  0.1266 -0.7707  0.0985
46017SOL     OW42988  11.291  10.585   0.437 -0.0972  0.8119 -0.1295
46017SOL    HW142989  11.262  10.554   0.351 -0.5370  0.6553  0.0723
46017SOL    HW242990  11.319  10.675   0.422 -1.4673  1.2461 -0.1685
46018SOL     OW42991   3.604   9.711   4.664  0.7216  0.0200  0.2106
46018SOL    HW142992   3.596   9.807   4.662 -0.1415  0.0016  1.5307
46018SOL    HW242993   3.514   9.680   4.672  1.0854 -0.8522  1.1483
46019SOL     OW42994   2.667  10.585   6.500  0.0652  0.7405  0.2230
46019SOL    HW142995   2.573  10.588   6.479  0.0954 -1.7059 -0.7164
46019SOL    HW242996   2.673  10.617   6.589 -2.0577 -1.1947  1.1834
46020SOL     OW42997   5.512   9.232   9.365 -0.2728 -0.1700  0.1688
46020SOL    HW142998   5.605   9.249   9.378  0.0555 -2.2103  0.7947
46020SOL    HW242999   5.501   9.235   9.269  0.9242 -2.0486 -0.0750
46021SOL     OW43000   4.469   7.944   5.946 -0.3161  0.3903 -0.1595
46021SOL    HW143001   4.414   7.982   5.877 -0.7851 -0.6301 -0.3558
46021SOL    HW243002   4.536   8.010   5.962 -1.4116  1.5383 -0.1316
46022SOL     OW43003   9.380   9.047   1.278 -0.5795  0.1996  0.0741
46022SOL    HW143004   9.390   9.038   1.373 -1.0671 -2.1408 -0.0452
46022SOL    HW243005   9.459   9.093   1.250  0.2795 -0.3849  1.4432
46023SOL     OW43006   5.557   6.762   7.389  0.0802  0.3988  0.2023
46023SOL    HW143007   5.652   6.755   7.374  0.2159  0.3241  1.0575
46023SOL    HW243008   5.530   6.672   7.409  0.3434  0.8393  2.8180
46024SOL     OW43009   4.690   1.317   1.795 -0.0875 -0.2602 -0.0093
46024SOL    HW143010   4.744   1.304   1.873 -0.6452  1.7541  0.8043
46024SOL    HW243011   4.630   1.387   1.820 -0.4951  0.2306 -2.1595
46025SOL     OW43012  11.295   4.212   0.490  0.5429  0.2524  0.0836
46025SOL    HW143013  11.317   4.174   0.575  1.7879  0.2384 -0.2253
46025SOL    HW243014  11.210   4.175   0.469  1.2023 -1.4987  0.3243
46026SOL     OW43015   2.997   4.255   7.782 -0.5188  0.9128  0.0018
46026SOL    HW143016   2.995   4.347   7.754  0.8077  1.1945  0.7515
46026SOL    HW243017   2.974   4.258   7.875 -3.8986  0.0932 -0.6714
46027SOL     OW43018   9.687   6.253   7.865 -1.2551 -0.7089 -0.4303
46027SOL    HW143019   9.701   6.331   7.918  0.4087 -1.8014  0.8334
46027SOL    HW243020   9.592   6.239   7.866 -1.5057  0.8648 -0.0967
46028SOL     OW43021   7.654   2.682  10.793  0.1291 -0.1689  0.0149
46028SOL    HW143022   7.713   2.755  10.773 -0.6918  1.7238  3.5725
46028SOL    HW243023   7.709   2.617  10.837  0.2110 -0.0457  0.0927
46029SOL     OW43024   1.196   9.802   1.945  0.3633  0.1750  0.0819
46029SOL    HW143025   1.130   9.774   2.008  0.9941 -0.1173  0.6214
46029SOL    HW243026   1.163   9.771   1.860 -0.3110  0.2601  0.3075
46030SOL     OW43027   4.750   8.308   4.297 -0.7489  0.5368  0.1135
46030SOL    HW143028   4.808   8.379   4.325 -1.8748  1.1540  0.9792
46030SOL    HW243029   4.764   8.301   4.203  0.3102  1.0464  0.2141
46031SOL     OW43030  11.368   4.060   8.117  0.0960  0.3941 -0.5967
46031SOL    HW143031  11.403   4.099   8.197  3.2148 -0.6838 -1.2854
46031SOL    HW243032  11.377   3.966   8.129  1.1407  0.2169 -2.3679
46032SOL     OW43033   8.439   8.752  10.939  0.4068 -0.2699 -0.5566
46032SOL    HW143034   8.413   8.721  10.853 -0.7295 -0.5401 -0.1287
46032SOL    HW243035   8.431   8.848  10.934  1.0038 -0.2335 -0.9433
46033SOL     OW43036   5.115   7.999  11.236 -0.0792  0.2411  0.2233
46033SOL    HW143037   5.199   7.955  11.234 -0.0814  0.2417 -1.2326
46033SOL    HW243038   5.133   8.088  11.206 -0.4029  0.6496  1.1784
46034SOL     OW43039  11.061   6.722   9.812  0.2040  0.3140  0.2520
46034SOL    HW143040  10.977   6.713   9.767  1.1561 -3.5251 -1.1709
46034SOL    HW243041  11.126   6.699   9.745  2.1970  0.4287  2.0472
46035SOL     OW43042   6.279   3.016   8.723 -0.4860  0.2121  0.0390
46035SOL    HW143043   6.320   3.056   8.647  4.3052 -0.8176  1.7307
46035SOL    HW243044   6.286   2.922   8.708 -0.4839 -0.0058  1.2995
46036SOL     OW43045   5.006   9.159   7.921 -0.0433  0.0150 -0.5553
46036SOL    HW143046   4.934   9.145   7.861 -0.0232 -0.3750 -0.4933
46036SOL    HW243047   5.005   9.082   7.978  0.9904 -0.4496 -1.1397
46037SOL     OW43048   3.624   7.535   3.565 -0.0745 -0.3028 -0.0812
46037SOL    HW143049   3.670   7.603   3.615  1.1215  0.2863 -1.8807
46037SOL    HW243050   3.654   7.453   3.605  0.1958  0.1621  0.7068
46038SOL     OW43051   6.468   1.096   5.242  0.0436  1.3419  0.1403
46038SOL    HW143052   6.414   1.167   5.276 -1.9151  0.0874 -0.1669
46038SOL    HW243053   6.417   1.017   5.259  1.1603  0.2128 -1.4641
46039SOL     OW43054   1.685   0.665   6.012  0.0746  0.0341  0.0616
46039SOL    HW143055   1.678   0.613   5.933 -0.7240  0.1493  0.0482
46039SOL    HW243056   1.663   0.605   6.083 -1.2269  0.4303  0.0132
46040SOL     OW43057   8.870  10.407   4.626  0.1992  0.2011  0.3760
46040SOL    HW143058   8.842  10.467   4.694 -2.9879  0.0809 -0.6476
46040SOL    HW243059   8.962  10.389   4.645  0.1641  2.2635  2.9886
46041SOL     OW43060   9.516   9.024   9.228 -0.0842  0.1237 -0.1432
46041SOL    HW143061   9.467   8.961   9.176  1.5403 -0.4845 -1.0058
46041SOL    HW243062   9.551   8.973   9.302 -0.0950  0.3748  0.0383
46042SOL     OW43063   1.970  11.664   6.020  0.0836 -1.1148 -0.1546
46042SOL    HW143064   1.907  11.728   6.055 -1.0006 -0.6061 -2.7817
46042SOL    HW243065   2.001  11.617   6.097 -2.3002 -0.2768  1.4579
46043SOL     OW43066  10.700   5.720   3.144  1.1562  0.5290  0.1353
46043SOL    HW143067  10.764   5.653   3.168  0.8658  0.7696  1.6899
46043SOL    HW243068  10.714   5.790   3.208 -0.1843  0.8855  0.0649
46044SOL     OW43069   1.743   2.144   3.029  0.3411 -0.2927 -0.0084
46044SOL    HW143070   1.726   2.092   2.950 -1.7011 -1.9324  1.4051
46044SOL    HW243071   1.699   2.227   3.012 -1.1023 -1.0551 -0.1942
46045SOL     OW43072   3.902  10.727   7.015  0.5114  0.0795 -0.0096
46045SOL    HW143073   3.936  10.794   7.074  0.5080  0.1499 -0.0880
46045SOL    HW243074   3.973  10.712   6.952  1.0086 -0.8901  0.7480
46046SOL     OW43075  10.039   3.556  10.997  0.0079  0.9793  0.1208
46046SOL    HW143076   9.996   3.599  11.071  1.2335 -1.7147  2.5927
46046SOL    HW243077  10.095   3.490  11.037 -0.8605 -2.1565 -3.3233
46047SOL     OW43078   5.054  11.683   2.236  0.4706  0.1485  0.2233
46047SOL    HW143079   5.110  11.637   2.300 -1.2277 -0.7479  1.1583
46047SOL    HW243080   5.059  11.629   2.157 -1.8050 -2.0661  1.4242
46048SOL     OW43081   2.348  11.345   1.461 -0.4429 -0.4007  0.4071
46048SOL    HW143082   2.273  11.320   1.408 -1.1749 -1.8567  2.0286
46048SOL    HW243083   2.318  11.337   1.552  0.9904  1.2217  1.0933
46049SOL     OW43084   1.025   8.163   2.887 -0.7765 -0.1916  0.4145
46049SOL    HW143085   1.013   8.183   2.794 -0.0162  2.2177  0.7793
46049SOL    HW243086   0.940   8.127   2.915 -1.1343 -0.6014 -1.0989
46050SOL     OW43087  10.402  11.539   6.236 -0.3163  0.2192  0.5614
46050SOL    HW143088  10.459  11.466   6.212 -0.4546  0.7479 -1.5879
46050SOL    HW243089  10.457  11.616   6.227 -0.5098  0.5004  1.6338
46051SOL     OW43090   2.155   7.539   6.998  0.4771 -0.2396 -0.0897
46051SOL    HW143091   2.142   7.477   7.069 -1.9126  2.6174  2.2326
46051SOL    HW243092   2.076   7.530   6.944  0.6009  0.0981 -0.3289
46052SOL     OW43093   4.440   5.038   4.550 -0.4503  0.0727  0.8440
46052SOL    HW143094   4.472   5.073   4.632  2.0569  1.8202 -0.7439
46052SOL    HW243095   4.352   5.076   4.539 -0.8843 -0.3224  2.6995
46053SOL     OW43096  11.528   0.868   1.112  0.1634 -0.2589  0.5017
46053SOL    HW143097  11.619   0.859   1.086 -0.1681  0.3138 -0.9500
46053SOL    HW243098  11.478   0.829   1.041 -0.7826  1.2921  0.2478
46054SOL     OW43099   4.845  11.199   5.334  0.6064  0.0644  0.0416
46054SOL    HW143100   4.868  11.273   5.391 -2.7608  1.3194 -0.0176
46054SOL    HW243101   4.904  11.208   5.259  1.1368  1.9452  0.6284
46055SOL     OW43102   3.831   2.293   7.822  0.1660  0.2465 -0.2627
46055SOL    HW143103   3.839   2.384   7.794  0.1640 -0.1791 -1.7555
46055SOL    HW243104   3.784   2.250   7.751  0.1522 -0.9261  0.4218
46056SOL     OW43105   0.117   8.061   6.369 -0.6255  0.2811  0.0031
46056SOL    HW143106   0.167   7.981   6.354 -0.0842  0.7156 -0.6213
46056SOL    HW243107   0.075   8.079   6.285 -0.9252  0.5231  0.2031
46057SOL     OW43108  11.517   5.304   6.053 -0.4065 -0.1865 -0.2773
46057SOL    HW143109  11.501   5.211   6.069  0.1329 -0.0620  1.1563
46057SOL    HW243110  11.437   5.347   6.085  0.0334 -0.0455  0.6501
46058SOL     OW43111   4.507   9.413   1.563  0.1648  0.3299  0.6225
46058SOL    HW143112   4.479   9.496   1.523 -0.2400 -0.0507  0.1089
46058SOL    HW243113   4.517   9.353   1.489 -1.2331 -0.5792  1.1270
46059SOL     OW43114   3.035   1.773   5.456  0.0075  0.0694 -0.3463
46059SOL    HW143115   2.972   1.708   5.489 -1.3381  1.2091 -0.5800
46059SOL    HW243116   3.012   1.784   5.364 -1.7406  2.9067  0.2793
46060SOL     OW43117   9.250   4.337   4.452 -0.0054 -0.6157 -0.1583
46060SOL    HW143118   9.335   4.295   4.435 -0.7661 -2.5740  0.5599
46060SOL    HW243119   9.239   4.398   4.379  0.7555 -2.3837 -1.8632
46061SOL     OW43120  11.416   6.186   2.221 -0.4383  0.2495  0.5872
46061SOL    HW143121  11.354   6.204   2.292  0.2388  0.3516  1.1691
46061SOL    HW243122  11.480   6.126   2.259 -1.8096 -2.3170 -0.8818
46062SOL     OW43123   6.007   8.365  11.271 -0.3022  0.2014 -0.1277
46062SOL    HW143124   6.081   8.411  11.310  0.4267 -0.6959 -0.4251
46062SOL    HW243125   6.013   8.384  11.178  0.2571 -0.8306 -0.3113
46063SOL     OW43126   2.189   5.325   3.905 -0.1873 -0.4772  0.2914
46063SOL    HW143127   2.127   5.253   3.903 -1.8978  0.9323 -0.4057
46063SOL    HW243128   2.179   5.368   3.821  0.7766  0.5943  0.6868
46064SOL     OW43129   7.288   0.798   3.101 -0.5308  0.0063  0.0294
46064SOL    HW143130   7.339   0.778   3.181 -1.4216 -0.6444  0.4502
46064SOL    HW243131   7.202   0.825   3.134 -1.4146 -1.7480 -0.7268
46065SOL     OW43132   7.907   3.485   0.328 -0.6151 -0.0239  0.6372
46065SOL    HW143133   7.867   3.466   0.413  0.8867  1.5156  1.7747
46065SOL    HW243134   7.871   3.570   0.303  0.3032  0.3778  0.6444
46066SOL     OW43135   7.716   4.058   1.922 -0.3682 -0.5868 -0.0918
46066SOL    HW143136   7.770   4.027   1.848 -1.3272  0.0719 -1.0852
46066SOL    HW243137   7.663   3.982   1.946  0.4732 -1.0303  0.4416
46067SOL     OW43138   0.959   8.652   8.767  0.1814  0.3761 -0.5952
46067SOL    HW143139   0.877   8.678   8.726 -0.4457  0.6634  0.7883
46067SOL    HW243140   1.022   8.717   8.737 -0.3727  0.8738 -0.7102
46068SOL     OW43141   7.206   7.307   8.100 -0.6194  0.5609  0.0941
46068SOL    HW143142   7.175   7.217   8.100 -0.2446  0.4252 -0.1978
46068SOL    HW243143   7.178   7.342   8.184  0.5166 -0.2910  0.8730
46069SOL     OW43144   4.544   9.147   1.979  0.1559  0.4655 -0.8032
46069SOL    HW143145   4.543   9.146   2.074  2.5446 -0.7235 -0.7051
46069SOL    HW243146   4.562   9.238   1.956 -0.9521  0.8597 -0.1519
46070SOL     OW43147   3.088   4.938  11.543 -0.3920 -0.0798  0.0681
46070SOL    HW143148   3.048   4.917  11.628  2.7125 -1.8172  1.2859
46070SOL    HW243149   3.030   4.898  11.479  0.5187 -5.1660  1.8851
46071SOL     OW43150   4.506   0.139   9.247 -1.0027 -0.7640  0.1118
46071SOL    HW143151   4.480   0.109   9.334 -2.3650  0.1502  0.0499
46071SOL    HW243152   4.426   0.137   9.195 -0.3603 -0.6019 -0.9214
46072SOL     OW43153  11.165   6.089   1.569  0.0539 -0.7683 -0.3085
46072SOL    HW143154  11.206   6.020   1.622  0.9190  1.3498  2.0119
46072SOL    HW243155  11.072   6.068   1.570  0.2720 -1.7774  0.5805
46073SOL     OW43156   7.956   9.745  11.265  0.3149  0.0874 -0.1968
46073SOL    HW143157   7.944   9.742  11.170  1.3085 -0.2497 -0.3195
46073SOL    HW243158   7.906   9.823  11.293  0.9375  0.8512 -1.1388
46074SOL     OW43159   4.922   5.592   4.551 -0.7511 -0.3893 -0.2204
46074SOL    HW143160   4.831   5.590   4.519 -1.2961 -2.5590  1.2173
46074SOL    HW243161   4.975   5.589   4.471 -1.9698 -0.4467 -1.0621
46075SOL     OW43162   2.662   1.285   1.704 -0.1283  0.2109  0.1308
46075SOL    HW143163   2.662   1.296   1.799  1.3478 -0.5303  0.2540
46075SOL    HW243164   2.702   1.199   1.690  2.5671  1.5535 -1.2212
46076SOL     OW43165   3.228   9.351   5.458 -0.2995 -0.7344 -0.0490
46076SOL    HW143166   3.181   9.279   5.499 -1.8440 -1.1381 -2.3575
46076SOL    HW243167   3.288   9.309   5.397  1.6797 -0.1290  1.3637
46077SOL     OW43168   0.192   7.253   1.649 -0.2784  0.0800  0.3551
46077SOL    HW143169   0.180   7.311   1.724 -0.5599  2.0512 -1.1295
46077SOL    HW243170   0.227   7.172   1.686 -0.9360  0.7831  2.6520
46078SOL     OW43171   8.303   6.345  10.861  0.0704 -0.4091  0.8008
46078SOL    HW143172   8.249   6.422  10.842  1.1635  0.2448  0.2558
46078SOL    HW243173   8.243   6.285  10.906 -1.6636 -0.5018 -1.4357
46079SOL     OW43174   8.578   3.390   4.371 -0.8160 -0.7452 -0.2604
46079SOL    HW143175   8.487   3.403   4.347 -0.8444 -0.8370 -0.1987
46079SOL    HW243176   8.609   3.478   4.396 -0.7854 -0.6509 -0.6290
46080SOL     OW43177   9.550  10.230   6.773  0.1770 -0.8924  0.1517
46080SOL    HW143178   9.481  10.191   6.719  0.9804 -2.7384  0.3798
46080SOL    HW243179   9.565  10.166   6.843  1.6869 -0.2517  0.4535
46081SOL     OW43180   1.571   7.400  10.600  0.1250 -0.6641 -0.3761
46081SOL    HW143181   1.516   7.416  10.524  1.2394  0.2983 -1.0049
46081SOL    HW243182   1.529   7.450  10.671  0.3937  0.3897 -0.9421
46082SOL     OW43183   3.620   7.943   1.741 -0.3262 -0.0597  0.4479
46082SOL    HW143184   3.620   7.948   1.836 -0.9217 -2.7767  0.6721
46082SOL    HW243185   3.709   7.915   1.718 -0.6715 -1.1146  0.3663
46083SOL     OW43186   4.442  11.632   5.853  0.0007  0.3728  0.1851
46083SOL    HW143187   4.468  11.645   5.762 -0.7482  0.0511 -0.0756
46083SOL    HW243188   4.363  11.579   5.849 -0.0136  0.3119  1.0281
46084SOL     OW43189   5.327   0.570   9.427 -0.3213 -0.1021 -0.4286
46084SOL    HW143190   5.271   0.507   9.381  0.5992 -0.9220 -0.4567
46084SOL    HW243191   5.402   0.582   9.370  1.4430 -2.0798  1.2975
46085SOL     OW43192   8.552   3.826   2.574  0.4948  0.2814 -0.5945
46085SOL    HW143193   8.521   3.753   2.521  0.0542  0.6030 -0.7789
46085SOL    HW243194   8.488   3.896   2.560  1.5549  1.1242 -1.3620
46086SOL     OW43195   8.178   1.240   7.336  0.3985 -0.0623  0.5800
46086SOL    HW143196   8.256   1.188   7.321 -0.3467 -0.6964 -1.4327
46086SOL    HW243197   8.139   1.203   7.415  0.2492 -2.1525 -0.4219
46087SOL     OW43198   9.774   8.154   5.975 -0.3398  0.1546 -0.5031
46087SOL    HW143199   9.759   8.245   5.948  0.2679  0.2301 -0.6080
46087SOL    HW243200   9.738   8.102   5.903  1.9994  0.3622 -1.9355
46088SOL     OW43201  10.065   9.412   6.516  0.0369 -0.4929 -0.0870
46088SOL    HW143202  10.069   9.336   6.458  1.2798 -1.2233  0.9138
46088SOL    HW243203  10.153   9.420   6.552 -0.5403  0.3031  1.2369
46089SOL     OW43204   0.350   4.717   0.749  0.3778 -0.3658 -0.1461
46089SOL    HW143205   0.307   4.712   0.663 -0.2796  0.0504  0.1550
46089SOL    HW243206   0.440   4.743   0.729  0.0989  0.2080 -0.6820
46090SOL     OW43207  10.203   5.166   9.129  0.2808 -0.0954  0.4858
46090SOL    HW143208  10.258   5.244   9.139  0.3420 -0.2673  1.6668
46090SOL    HW243209  10.160   5.156   9.214  1.7787 -2.4646  1.0570
46091SOL     OW43210   6.204   3.420   0.595 -0.0996 -0.2706 -0.0761
46091SOL    HW143211   6.208   3.371   0.513 -0.0545  1.1140 -0.9256
46091SOL    HW243212   6.111   3.432   0.612 -0.0945  1.1151 -0.9658
46092SOL     OW43213   3.427   2.209   8.384  0.5797 -0.1301 -0.1872
46092SOL    HW143214   3.450   2.295   8.347 -1.7321  0.3584 -0.6749
46092SOL    HW243215   3.475   2.146   8.331  1.2146  0.8037 -0.7476
46093SOL     OW43216   1.774   0.830   2.395  0.1163  0.7100 -0.1555
46093SOL    HW143217   1.859   0.850   2.357  0.0325  0.4863 -0.4584
46093SOL    HW243218   1.764   0.735   2.385 -0.9474  0.9621 -1.7389
46094SOL     OW43219   0.736   6.905   4.056  0.5942  0.7686  0.5511
46094SOL    HW143220   0.746   6.841   4.126  0.4592 -0.0684 -0.1728
46094SOL    HW243221   0.714   6.987   4.101 -0.3056  0.0661  1.4302
46095SOL     OW43222   0.374  11.546   3.857 -0.1670  0.1364 -0.2605
46095SOL    HW143223   0.308  11.551   3.788  0.5710  0.1525 -0.9811
46095SOL    HW243224   0.416  11.461   3.842 -1.0312 -0.5642  1.1342
46096SOL     OW43225  10.433   4.701   4.475  0.0347 -0.2895 -0.0435
46096SOL    HW143226  10.449   4.624   4.420  1.0947  1.0020 -1.6414
46096SOL    HW243227  10.518   4.746   4.479 -1.0819  2.1469 -1.3733
46097SOL     OW43228   5.527   4.955   8.072 -0.2511 -0.5694  0.9399
46097SOL    HW143229   5.442   4.983   8.108 -0.9598 -1.8125  0.3114
46097SOL    HW243230   5.520   4.974   7.979 -0.0213 -1.1029  0.8124
46098SOL     OW43231   2.386   8.259   5.938 -0.2188  0.2117 -0.3689
46098SOL    HW143232   2.462   8.292   5.890  1.8571 -0.8888  1.9393
46098SOL    HW243233   2.339   8.206   5.874  1.8740 -0.3901 -1.5124
46099SOL     OW43234  10.011   8.639   1.906  0.0983 -0.3099 -0.3958
46099SOL    HW143235  10.042   8.676   1.989 -0.6900 -1.1464  0.3035
46099SOL    HW243236   9.953   8.706   1.870  0.1810 -0.0712 -0.0901
46100SOL     OW43237   1.018   7.469  11.636  0.1513  0.0526  0.2730
46100SOL    HW143238   0.946   7.500  11.692 -0.3914  0.1987 -0.4944
46100SOL    HW243239   1.035   7.380  11.667 -0.6377 -0.1323  0.2105
46101SOL     OW43240   4.854   8.541   5.862 -0.2986  0.5489 -0.0678
46101SOL    HW143241   4.797   8.487   5.917 -0.8708 -0.9872 -2.0548
46101SOL    HW243242   4.845   8.630   5.899 -0.7608 -0.3472  2.1716
46102SOL     OW43243   0.414  11.531   1.007 -0.3160  0.1162  0.2381
46102SOL    HW143244   0.355  11.593   0.963 -1.0836 -1.3669 -0.9229
46102SOL    HW243245   0.495  11.580   1.019 -1.0528  1.5031 -0.1935
46103SOL     OW43246   3.730   4.289   6.116  0.0923  0.1642 -0.0985
46103SOL    HW143247   3.721   4.262   6.207 -0.8329  2.2989  0.4969
46103SOL    HW243248   3.645   4.325   6.092 -0.2933 -2.0626 -2.4622
46104SOL     OW43249   9.204   8.377   7.883  0.3049 -0.2500  0.5908
46104SOL    HW143250   9.272   8.417   7.829 -0.5261 -0.6905 -0.8438
46104SOL    HW243251   9.179   8.446   7.945  0.4664  0.6859 -0.3522
46105SOL     OW43252   0.283   1.730  11.549  0.1001 -0.7078 -0.1941
46105SOL    HW143253   0.347   1.659  11.540  0.4346 -0.4351 -0.0215
46105SOL    HW243254   0.224   1.701  11.619 -1.6589 -2.1981 -2.1649
46106SOL     OW43255  10.728   3.281   9.270  0.1447  0.0801  0.3377
46106SOL    HW143256  10.746   3.329   9.190  3.5374 -2.0534 -0.3761
46106SOL    HW243257  10.670   3.339   9.320 -0.6651  2.2519 -2.8422
46107SOL     OW43258   1.500   0.795   1.095 -0.4617 -0.0602  0.2649
46107SOL    HW143259   1.582   0.749   1.084 -0.7576 -0.3075 -0.9952
46107SOL    HW243260   1.468   0.767   1.181  1.0923  0.5942  1.1024
46108SOL     OW43261   5.261   6.229  11.158  0.5128  0.6433 -0.3447
46108SOL    HW143262   5.185   6.191  11.115 -2.2611  4.8896  0.1843
46108SOL    HW243263   5.316   6.261  11.086  1.5388 -1.6794 -0.6994
46109SOL     OW43264   9.554   8.818   1.178  0.2543  0.3631 -0.3615
46109SOL    HW143265   9.604   8.800   1.258  0.5386  0.9822 -0.3954
46109SOL    HW243266   9.498   8.892   1.201  1.1304  1.2666 -1.0581
46110SOL     OW43267   7.141   5.657   6.393  0.0831 -0.2416 -0.2588
46110SOL    HW143268   7.200   5.702   6.332  0.5331  0.1222  0.4254
46110SOL    HW243269   7.120   5.574   6.350  0.7896 -0.2052 -0.6895
46111SOL     OW43270   3.097   9.029   3.554 -0.3709  0.4320 -0.5695
46111SOL    HW143271   3.083   9.121   3.576  2.1702  1.3011 -2.0516
46111SOL    HW243272   3.130   8.990   3.635  0.3382  1.3433 -0.3917
46112SOL     OW43273   7.947   7.720   5.227 -0.1307 -0.0122 -0.4383
46112SOL    HW143274   7.924   7.705   5.318 -0.5398  0.2793 -0.4882
46112SOL    HW243275   7.962   7.633   5.191 -0.6866 -0.1836 -0.2713
46113SOL     OW43276   0.115   9.970   6.348 -0.1088 -0.1792  0.0720
46113SOL    HW143277   0.020   9.960   6.349  0.0752 -2.3695  0.6002
46113SOL    HW243278   0.132  10.041   6.410 -1.3878  0.3868 -0.1838
46114SOL     OW43279   3.873   3.485   5.288  0.5887 -0.0369  0.7314
46114SOL    HW143280   3.861   3.464   5.196 -0.4552  0.5643  0.7177
46114SOL    HW243281   3.798   3.540   5.311  0.8143 -0.1950  1.9478
46115SOL     OW43282   3.254   8.309  11.677 -0.4733  0.0894  0.2996
46115SOL    HW143283   3.183   8.294  11.615 -0.8444 -0.5098  0.8530
46115SOL    HW243284   3.272   8.223  11.715  1.0387  0.0833 -0.3313
46116SOL     OW43285   4.476   4.591   6.525 -0.2271 -0.4431  0.3152
46116SOL    HW143286   4.397   4.623   6.568 -0.2640  1.9632 -1.3713
46116SOL    HW243287   4.446   4.514   6.476 -1.2693 -0.2561  0.6355
46117SOL     OW43288   9.679   0.012   3.203  0.2344 -0.3826 -0.4609
46117SOL    HW143289   9.685   0.015   3.107 -0.4907 -1.0022 -0.5292
46117SOL    HW243290   9.721  -0.070   3.228 -2.5253 -1.9195 -0.5262
46118SOL     OW43291   2.588   8.771  11.357 -0.3819  0.3694  0.1319
46118SOL    HW143292   2.526   8.703  11.331 -0.9923  1.3160 -0.9990
46118SOL    HW243293   2.662   8.760  11.297  0.0737 -0.0911  0.7782
46119SOL     OW43294  11.005   4.875  10.801  0.1284  0.2553 -0.3168
46119SOL    HW143295  10.963   4.792  10.822  1.2002 -0.6269 -1.4859
46119SOL    HW243296  11.078   4.851  10.744  0.3591  2.0236 -0.8291
46120SOL     OW43297   0.075   9.573   7.304  0.3213 -0.1782  0.3340
46120SOL    HW143298  -0.019   9.561   7.319  0.3034 -1.3096 -0.5484
46120SOL    HW243299   0.115   9.558   7.390 -0.0027 -3.6774  0.0068
46121SOL     OW43300   9.570   3.087   2.410 -0.0363 -0.1300 -0.5133
46121SOL    HW143301   9.649   3.035   2.429 -0.4811 -0.8437 -0.5525
46121SOL    HW243302   9.540   3.054   2.326 -0.3022  0.2379 -0.5628
46122SOL     OW43303   2.952   1.295  10.336 -0.0310 -0.7207 -0.0925
46122SOL    HW143304   2.889   1.358  10.371  2.0566  0.7026  1.3784
46122SOL    HW243305   2.947   1.306  10.241 -0.3125  1.1490  0.0876
46123SOL     OW43306  11.488  11.659  10.459  0.5155  0.4445 -0.4898
46123SOL    HW143307  11.500  11.708  10.378  1.2246 -0.0188 -0.6777
46123SOL    HW243308  11.553  11.695  10.520  0.4243  0.3569 -0.3383
46124SOL     OW43309   2.242   9.661   2.335 -0.2981 -0.2459  0.2572
46124SOL    HW143310   2.328   9.631   2.305 -0.9406 -0.2575 -1.7238
46124SOL    HW243311   2.261   9.739   2.387  0.9791 -0.8860  0.7914
46125SOL     OW43312   4.762   8.972   6.415 -0.2240  0.3666  0.4492
46125SOL    HW143313   4.807   9.055   6.425 -0.2365  0.5184 -0.6229
46125SOL    HW243314   4.764   8.933   6.502  0.9583  0.8885  0.6786
46126SOL     OW43315   8.335   1.038   9.318 -0.1667  0.9038 -0.5378
46126SOL    HW143316   8.341   1.068   9.227 -1.5201  1.2568 -0.5454
46126SOL    HW243317   8.271   1.098   9.358  1.1002  1.3510  0.9107
46127SOL     OW43318   3.330   9.785   1.706 -0.0112 -0.3336 -0.3888
46127SOL    HW143319   3.301   9.850   1.641 -1.6231  0.2577  0.8464
46127SOL    HW243320   3.366   9.837   1.778 -0.3156 -0.8457  0.1448
46128SOL     OW43321   2.754   2.665  11.138 -0.0564  0.0862 -0.8399
46128SOL    HW143322   2.667   2.687  11.106  0.0420  2.5341  0.3039
46128SOL    HW243323   2.738   2.607  11.213 -0.8142  1.3326 -0.0005
46129SOL     OW43324   0.989  10.639   0.629  0.0564 -0.3704  0.0612
46129SOL    HW143325   1.013  10.654   0.538 -0.4029  0.3650  0.0450
46129SOL    HW243326   1.064  10.594   0.667 -0.0090 -1.2644 -0.8333
46130SOL     OW43327   8.653   8.232   5.513 -0.1799 -0.0893  0.3309
46130SOL    HW143328   8.608   8.201   5.592  0.2840  0.8782  0.9915
46130SOL    HW243329   8.746   8.213   5.529  0.1110  1.5192  0.7232
46131SOL     OW43330   3.517   6.247  11.340 -0.7184  0.2623  0.0702
46131SOL    HW143331   3.603   6.257  11.298 -0.7607 -1.1939 -0.4150
46131SOL    HW243332   3.535   6.256  11.434 -0.5417  3.0110 -0.1608
46132SOL     OW43333   7.044   5.223   1.675  0.3419  0.0638 -0.0644
46132SOL    HW143334   7.090   5.256   1.598 -0.1457  1.0792  0.0660
46132SOL    HW243335   7.111   5.221   1.744  0.5896 -0.1101 -0.3054
46133SOL     OW43336   8.220   7.255  10.091  0.1805  0.7158 -0.4572
46133SOL    HW143337   8.179   7.178  10.129 -0.6247 -0.1951 -2.9555
46133SOL    HW243338   8.306   7.225  10.062  0.9308  1.4902  0.8242
46134SOL     OW43339   5.303   6.774   9.638 -0.0820  0.2783  0.3680
46134SOL    HW143340   5.340   6.858   9.667 -0.3740  1.4699 -2.4139
46134SOL    HW243341   5.379   6.723   9.610  0.0191 -0.1273  1.3213
46135SOL     OW43342   8.393   8.727   7.130  0.3365 -0.3896  0.2580
46135SOL    HW143343   8.440   8.763   7.205 -0.2671  1.7618 -0.3334
46135SOL    HW243344   8.461   8.684   7.078  1.4817  1.6164  0.0231
46136SOL     OW43345   2.466   9.982   9.964 -0.9710 -0.8633 -0.0598
46136SOL    HW143346   2.430  10.057  10.011 -2.3535 -2.2733  1.2721
46136SOL    HW243347   2.547   9.961  10.009 -1.3065 -1.0132  0.4885
46137SOL     OW43348   5.683   6.014   2.606 -0.4036  0.3045  0.0032
46137SOL    HW143349   5.706   6.102   2.635 -0.1386 -0.4014  2.1023
46137SOL    HW243350   5.587   6.014   2.602 -0.3945  1.7407 -3.7675
46138SOL     OW43351   7.340   5.328   4.587  0.0350  0.4467  0.2988
46138SOL    HW143352   7.255   5.310   4.628  0.7068  1.6856  2.4205
46138SOL    HW243353   7.404   5.312   4.657  1.3219  2.1013 -0.4405
46139SOL     OW43354   1.649   7.261   1.116 -0.3068  0.1521  0.6886
46139SOL    HW143355   1.706   7.290   1.045 -0.6824  1.0249  0.7362
46139SOL    HW243356   1.573   7.320   1.113 -1.1821 -0.9373  0.6764
46140SOL     OW43357   1.210  10.311   5.387 -0.0652  0.8341  0.5164
46140SOL    HW143358   1.297  10.275   5.408  0.1220  0.7866 -0.3107
46140SOL    HW243359   1.224  10.361   5.306 -0.8151  0.8255  0.3782
46141SOL     OW43360   8.275   7.106  11.213 -0.0254 -0.1855 -0.1437
46141SOL    HW143361   8.283   7.191  11.170 -0.4458 -0.3863 -0.6287
46141SOL    HW243362   8.181   7.095  11.228  0.1080 -0.1539  0.7638
46142SOL     OW43363  10.626   9.264   7.068 -0.3625  0.2688 -0.2791
46142SOL    HW143364  10.692   9.302   7.127 -1.5572 -0.0561  1.3323
46142SOL    HW243365  10.568   9.337   7.046 -1.3798 -0.0995  1.0405
46143SOL     OW43366   4.699   8.951   1.317  0.8667 -0.4476  0.1580
46143SOL    HW143367   4.619   8.912   1.282  0.8282  0.4565 -0.8316
46143SOL    HW243368   4.730   8.889   1.382  0.4601 -1.8005 -0.8837
46144SOL     OW43369   3.237   2.069   1.729 -0.1470  0.4155 -0.0707
46144SOL    HW143370   3.317   2.073   1.782  0.3546  1.8934 -0.8613
46144SOL    HW243371   3.268   2.075   1.639 -0.9252 -2.8099 -0.6838
46145SOL     OW43372  11.281   2.017   3.609 -0.4513  0.1402  0.3353
46145SOL    HW143373  11.194   2.047   3.581  0.0633  0.4293 -1.0525
46145SOL    HW243374  11.338   2.093   3.599  0.2266 -0.4049 -0.1161
46146SOL     OW43375   0.770   9.372   2.001 -0.3490  0.1849  0.1632
46146SOL    HW143376   0.829   9.413   1.939 -1.8212  1.2914 -0.5586
46146SOL    HW243377   0.758   9.283   1.969  0.6257  0.0598  0.1279
46147SOL     OW43378   7.833   5.944  10.512 -0.2603 -0.4047  0.2329
46147SOL    HW143379   7.798   5.973  10.428 -1.0609 -1.0083  0.3415
46147SOL    HW243380   7.925   5.924  10.495  0.7072  3.1464  0.3773
46148SOL     OW43381   2.400   9.632   7.123  0.0607 -0.1279  0.6002
46148SOL    HW143382   2.459   9.707   7.129 -0.7794  0.8683 -1.9477
46148SOL    HW243383   2.435   9.581   7.050 -1.5987 -0.0465 -0.3028
46149SOL     OW43384   9.340   5.694  10.474  0.9710  0.1731 -0.5775
46149SOL    HW143385   9.361   5.783  10.448 -0.6009  0.2297 -1.8064
46149SOL    HW243386   9.319   5.650  10.392  0.8965 -1.1096  0.1029
46150SOL     OW43387   7.661   9.863   6.493  0.3559  0.0688 -0.0352
46150SOL    HW143388   7.738   9.891   6.444  0.3533 -0.6182 -0.4498
46150SOL    HW243389   7.697   9.833   6.577  0.2388  2.3978  0.9254
46151SOL     OW43390   9.305   6.566   4.949  0.3731 -0.1619  0.2513
46151SOL    HW143391   9.292   6.654   4.985  0.8665 -0.1182  0.3295
46151SOL    HW243392   9.394   6.567   4.914  0.2916 -0.5533  0.0205
46152SOL     OW43393   1.168   4.075   8.136  0.2213  0.0853  0.2899
46152SOL    HW143394   1.228   4.138   8.177  1.2571 -1.0658  0.5764
46152SOL    HW243395   1.223   4.025   8.075 -0.8107  0.1464 -0.7339
46153SOL     OW43396   8.414   7.563   9.026  0.5516  0.0433 -0.3701
46153SOL    HW143397   8.480   7.613   8.979  1.1247 -0.3404  0.0177
46153SOL    HW243398   8.332   7.608   9.006  0.9804  0.7908 -0.4997
46154SOL     OW43399   5.724   5.417   0.771  0.5197 -0.6675 -0.3989
46154SOL    HW143400   5.683   5.354   0.711 -0.1548 -1.7175  1.1173
46154SOL    HW243401   5.714   5.501   0.728 -3.4502 -0.7992 -0.0469
46155SOL     OW43402  10.021   6.381   1.144 -0.1651 -0.6084  0.6147
46155SOL    HW143403   9.936   6.359   1.107 -1.3577 -0.6228  3.1673
46155SOL    HW243404  10.036   6.315   1.211  1.9218 -0.6423  0.1717
46156SOL     OW43405  10.962   8.547   4.824 -0.7835  0.0497  0.4775
46156SOL    HW143406  10.994   8.473   4.773 -1.1588  0.5122 -0.4563
46156SOL    HW243407  10.994   8.624   4.777  2.8948  0.6379  3.4340
46157SOL     OW43408  10.304   7.608  10.398 -0.0115  0.4769 -0.7212
46157SOL    HW143409  10.290   7.592  10.304 -0.8823 -0.2254 -0.4869
46157SOL    HW243410  10.219   7.591  10.438  0.5840 -0.1654  0.3190
46158SOL     OW43411   5.940   4.271   0.575 -0.0400 -0.5475 -0.5114
46158SOL    HW143412   5.933   4.304   0.485 -0.9029  1.7676  0.3442
46158SOL    HW243413   5.904   4.341   0.629 -1.0078 -2.5232  1.5483
46159SOL     OW43414   1.423   1.301   5.155 -0.2637  0.1129  0.7541
46159SOL    HW143415   1.459   1.390   5.161  0.9497 -0.2993 -0.0997
46159SOL    HW243416   1.477   1.258   5.089 -1.4623 -0.9726  0.4464
46160SOL     OW43417   2.308   7.884   8.354 -0.3944  0.1053  0.0733
46160SOL    HW143418   2.294   7.799   8.312  0.8733 -0.1483  0.1334
46160SOL    HW243419   2.219   7.915   8.374 -0.8751 -2.3442  2.3584
46161SOL     OW43420   7.256   1.895   9.045  0.0071  0.0457  0.3055
46161SOL    HW143421   7.242   1.956   8.972  0.8936 -0.3372 -0.2054
46161SOL    HW243422   7.304   1.822   9.006  0.6056 -0.1137  1.2994
46162SOL     OW43423  10.629  10.577   3.849 -0.1527 -0.1063 -0.3449
46162SOL    HW143424  10.545  10.616   3.871  0.6359  1.2773  0.3887
46162SOL    HW243425  10.693  10.644   3.872  1.0847 -0.6103 -2.0905
46163SOL     OW43426   5.435   1.950   0.760 -0.0917 -0.5351 -0.4769
46163SOL    HW143427   5.465   1.966   0.849  0.5629  0.6985 -0.8996
46163SOL    HW243428   5.340   1.964   0.763  0.1950  1.7859 -0.4142
46164SOL     OW43429   0.105   8.248   8.308  0.3353 -0.0591 -0.0009
46164SOL    HW143430   0.040   8.233   8.377  0.2299  0.8599  0.1083
46164SOL    HW243431   0.186   8.213   8.344  0.0142 -0.7694  0.0563
46165SOL     OW43432   3.429   5.262   8.034  0.0448 -0.0949  0.3238
46165SOL    HW143433   3.352   5.319   8.037 -0.7466 -1.1545  0.7664
46165SOL    HW243434   3.423   5.210   8.114  1.4834  0.1157  0.5855
46166SOL     OW43435   1.988   0.192   3.239  0.2237 -0.1337 -0.5577
46166SOL    HW143436   2.024   0.266   3.190  1.2088  0.1993  0.6156
46166SOL    HW243437   1.962   0.129   3.172 -0.5867  1.2401 -1.5793
46167SOL     OW43438   3.915   3.261  11.006 -0.5663  0.1776 -0.8529
46167SOL    HW143439   4.008   3.260  11.026 -0.6936  1.2821 -0.1169
46167SOL    HW243440   3.905   3.330  10.940 -1.3925  3.4032  2.3205
46168SOL     OW43441   8.108   0.765   3.906  0.0696  0.1360  0.1582
46168SOL    HW143442   8.143   0.713   3.833 -0.7223  0.3111 -0.3574
46168SOL    HW243443   8.013   0.759   3.896 -0.0853  2.9437 -0.8387
46169SOL     OW43444   6.495   7.539   0.260 -0.3223  0.4836 -0.6833
46169SOL    HW143445   6.426   7.503   0.316  0.3126 -0.9299 -0.7583
46169SOL    HW243446   6.470   7.630   0.247 -2.0784  0.0583 -0.5599
46170SOL     OW43447   3.611   2.514   4.310  0.0503 -0.2366 -0.3902
46170SOL    HW143448   3.669   2.477   4.377  1.4248  0.8277 -0.9243
46170SOL    HW243449   3.638   2.470   4.229 -1.2749 -1.1713 -0.3436
46171SOL     OW43450   5.901   8.089   2.712  0.1695 -0.2537  0.4833
46171SOL    HW143451   5.898   8.058   2.622 -1.4061  0.4789  0.2548
46171SOL    HW243452   5.927   8.012   2.763  2.7793 -0.2943 -0.7120
46172SOL     OW43453   7.774   9.803   5.346 -0.1456  0.5379  0.1150
46172SOL    HW143454   7.681   9.798   5.327 -0.3089 -0.3842  1.0519
46172SOL    HW243455   7.778   9.838   5.435  0.4550  1.6199 -0.3203
46173SOL     OW43456   8.438   6.718   4.150 -0.1697  0.4117  0.3773
46173SOL    HW143457   8.522   6.734   4.107 -1.5922  4.1374 -1.4795
46173SOL    HW243458   8.377   6.699   4.078 -1.3194 -0.1635  1.4565
46174SOL     OW43459   4.757   8.098  11.187 -0.2048 -0.1117 -0.3597
46174SOL    HW143460   4.800   8.130  11.266  0.0296  0.7442 -0.8269
46174SOL    HW243461   4.748   8.004  11.201 -1.1199  0.1791  1.1340
46175SOL     OW43462   3.216   6.137   9.212 -0.6655 -0.1915  0.1141
46175SOL    HW143463   3.196   6.048   9.182  0.4599 -0.4092 -0.0395
46175SOL    HW243464   3.254   6.180   9.136 -0.5208  0.1823  0.3960
46176SOL     OW43465  10.652   7.757   2.301  0.8691  0.5035  0.2486
46176SOL    HW143466  10.638   7.834   2.245  1.2444  0.8396  0.6116
46176SOL    HW243467  10.730   7.716   2.265  1.0490  0.6601  0.4614
46177SOL     OW43468  10.827   5.955   4.911  0.3603 -0.2475 -0.0210
46177SOL    HW143469  10.822   6.048   4.931 -0.2920 -0.0681 -0.9395
46177SOL    HW243470  10.738   5.922   4.926  0.2527 -0.4336 -0.9558
46178SOL     OW43471   2.762   5.422   3.768  0.3448 -0.1184 -0.2650
46178SOL    HW143472   2.701   5.405   3.839 -0.8505  1.1234 -0.9568
46178SOL    HW243473   2.713   5.404   3.688  1.7322 -1.7019 -0.8343
46179SOL     OW43474   8.654   9.361  11.637 -0.4118  0.6426 -0.1900
46179SOL    HW143475   8.584   9.366  11.702  0.4735  1.4598  0.7542
46179SOL    HW243476   8.706   9.285  11.664 -0.1975  0.8199 -0.0964
46180SOL     OW43477   6.254   4.623   7.901  0.1417  0.8957  0.3440
46180SOL    HW143478   6.317   4.565   7.858  0.8597  0.0540  2.3857
46180SOL    HW243479   6.168   4.583   7.883  0.2225  1.5227 -1.6559
46181SOL     OW43480   7.156   2.903   5.383 -0.6997 -0.1034  0.3827
46181SOL    HW143481   7.231   2.913   5.441  0.5608  1.1996 -1.3515
46181SOL    HW243482   7.097   2.975   5.406 -0.6766 -0.1809  0.6887
46182SOL     OW43483  10.963   7.606   1.413  0.3018 -0.2064  0.3566
46182SOL    HW143484  10.946   7.635   1.502 -0.5909  0.5768 -0.0417
46182SOL    HW243485  11.056   7.624   1.398 -0.1188  2.2243  0.2538
46183SOL     OW43486   8.565   8.138   8.540 -0.1405  0.0218 -0.7079
46183SOL    HW143487   8.551   8.195   8.616  2.5238  0.3001 -0.3263
46183SOL    HW243488   8.570   8.199   8.466 -1.8004 -0.1700 -1.0126
46184SOL     OW43489   0.730   0.738   2.600  0.3953  0.3250  0.0789
46184SOL    HW143490   0.772   0.653   2.588 -1.6712 -0.5533 -1.8359
46184SOL    HW243491   0.679   0.751   2.520 -1.9755  1.8106  1.6724
46185SOL     OW43492   1.091  10.048   1.711  0.1370 -0.4909  0.3203
46185SOL    HW143493   1.012  10.086   1.673 -0.4069 -0.7741  1.1476
46185SOL    HW243494   1.152  10.042   1.637 -0.8601 -0.9606 -0.4999
46186SOL     OW43495  10.979  10.842   6.183 -0.1072 -0.8166  0.2711
46186SOL    HW143496  10.971  10.776   6.114  1.4548 -2.9823  2.0312
46186SOL    HW243497  10.995  10.792   6.263 -0.1939  1.6633  1.9622
46187SOL     OW43498   7.592   7.336  10.246 -0.1203  0.5133  0.1415
46187SOL    HW143499   7.607   7.427  10.271  1.9986  0.5351 -0.9780
46187SOL    HW243500   7.523   7.340  10.180 -0.2064  1.2783  0.2660
46188SOL     OW43501   6.561   1.812  10.418  0.1390 -0.1628 -0.1819
46188SOL    HW143502   6.622   1.870  10.373 -0.1347 -0.9401 -1.5861
46188SOL    HW243503   6.524   1.866  10.488  1.2158  0.8005 -0.3349
46189SOL     OW43504   7.722   0.002   4.268  0.1132  0.3129  0.3040
46189SOL    HW143505   7.732  -0.064   4.199 -0.1140  1.2686 -0.6595
46189SOL    HW243506   7.638   0.043   4.250 -0.0118  0.5004  1.2400
46190SOL     OW43507   0.341  11.199   6.911 -0.0228 -0.5598 -0.7723
46190SOL    HW143508   0.296  11.227   6.991 -0.2065  1.1176 -1.4201
46190SOL    HW243509   0.351  11.105   6.921  1.2009 -0.2287  1.8413
46191SOL     OW43510   4.763   0.880  11.047 -0.1146  0.3022  0.0472
46191SOL    HW143511   4.674   0.847  11.033  0.0429 -0.0268 -0.1902
46191SOL    HW243512   4.803   0.879  10.960  0.0583  0.6308  0.1223
46192SOL     OW43513   2.005   6.970   5.585 -0.0102  0.6201 -0.1486
46192SOL    HW143514   2.060   7.038   5.546 -1.1560  1.4011 -0.4418
46192SOL    HW243515   2.048   6.888   5.560  0.4979  1.1766 -1.1652
46193SOL     OW43516   6.861   0.648   5.739 -0.5387 -0.1919 -0.2324
46193SOL    HW143517   6.785   0.648   5.798 -1.4593  2.8832 -1.2466
46193SOL    HW243518   6.920   0.713   5.777 -0.2566  0.3799 -1.6145
46194SOL     OW43519   4.150   9.631  11.449 -0.5066 -0.4512  0.1321
46194SOL    HW143520   4.231   9.581  11.442 -1.0496 -1.3024 -0.2376
46194SOL    HW243521   4.089   9.574  11.496 -1.5334 -0.6941 -1.3922
46195SOL     OW43522   8.186   2.571   6.369 -0.7159  0.0054  0.4564
46195SOL    HW143523   8.239   2.558   6.448 -0.1168 -2.3451 -0.2292
46195SOL    HW243524   8.186   2.666   6.355  0.5673  0.3399  2.3177
46196SOL     OW43525   5.352   3.456   2.177  0.2496  0.4083  0.5329
46196SOL    HW143526   5.310   3.431   2.095 -0.8401  0.2266  1.1271
46196SOL    HW243527   5.378   3.374   2.217  1.9259  0.5522 -0.1890
46197SOL     OW43528   9.368   9.912   3.867 -0.0286 -0.1134 -0.4928
46197SOL    HW143529   9.409   9.828   3.847  0.8524 -0.0232  0.7671
46197SOL    HW243530   9.421   9.976   3.820  0.3530 -0.1392 -0.1146
46198SOL     OW43531   7.204   8.684   5.113  0.3417 -0.0686 -0.0859
46198SOL    HW143532   7.195   8.715   5.023  0.4017  0.4259  0.0747
46198SOL    HW243533   7.213   8.764   5.165  3.1053 -0.3872  0.0870
46199SOL     OW43534   1.356   0.754   4.009 -0.3928  0.3904  0.2226
46199SOL    HW143535   1.347   0.685   4.075 -1.0728  0.5528  0.3077
46199SOL    HW243536   1.390   0.829   4.057  1.7150 -0.2811 -0.1322
46200SOL     OW43537  10.996  10.295   7.158  0.1053  0.3546  0.0632
46200SOL    HW143538  10.984  10.221   7.218  1.6759  1.5343  1.9715
46200SOL    HW243539  11.090  10.297   7.142 -0.0848  1.1480 -1.0466
46201SOL     OW43540   7.386   2.405  10.635 -0.4675 -0.0578 -0.9716
46201SOL    HW143541   7.294   2.392  10.612 -0.4615 -1.2562 -0.4066
46201SOL    HW243542   7.386   2.482  10.692 -1.2604 -0.5505 -0.2711
46202SOL     OW43543   8.152   7.632   1.514  0.1704  0.2180  0.7627
46202SOL    HW143544   8.151   7.681   1.432 -0.2272 -1.3627 -0.2398
46202SOL    HW243545   8.234   7.583   1.512 -0.5262 -1.0108  0.5115
46203SOL     OW43546   4.662   1.446   6.530  0.5107 -0.1574  0.2508
46203SOL    HW143547   4.581   1.395   6.522  1.4396 -1.4514 -1.5520
46203SOL    HW243548   4.647   1.524   6.476  0.6716 -0.7341 -0.6584
46204SOL     OW43549   2.443   7.889   5.714  0.2452  0.4339 -0.0410
46204SOL    HW143550   2.380   7.819   5.733 -0.2346  1.1155  0.9202
46204SOL    HW243551   2.426   7.911   5.622 -0.4528  0.1496  0.0148
46205SOL     OW43552  10.777   9.082   1.222  0.0532  0.1580 -0.5197
46205SOL    HW143553  10.852   9.090   1.281  0.5354  0.1937 -1.1281
46205SOL    HW243554  10.704   9.119   1.272  0.1631 -0.9937  0.5500
46206SOL     OW43555   7.051   6.445   1.077  0.0007  0.3007 -0.6632
46206SOL    HW143556   6.992   6.477   1.009  0.3450  0.0009 -1.1072
46206SOL    HW243557   6.998   6.383   1.127  0.4411 -1.4400 -2.2262
46207SOL     OW43558   4.608  10.876   4.590  0.0421 -0.0963  0.0623
46207SOL    HW143559   4.687  10.907   4.546 -0.9291  1.4771 -0.6481
46207SOL    HW243560   4.606  10.782   4.572  1.6793 -0.1602  0.0235
46208SOL     OW43561   1.777   0.458   8.303 -0.3713 -0.3941 -0.3441
46208SOL    HW143562   1.805   0.411   8.381 -0.5064 -0.7084 -0.4828
46208SOL    HW243563   1.687   0.485   8.322  0.2879  1.3894  0.4556
46209SOL     OW43564   6.955   7.663   6.904  0.2873  0.0389  0.1445
46209SOL    HW143565   7.016   7.693   6.836 -0.3872 -0.1421 -0.5610
46209SOL    HW243566   6.975   7.569   6.913  0.0664 -0.0405 -0.1510
46210SOL     OW43567   0.234   5.967   4.324 -0.1286 -0.0231 -0.4958
46210SOL    HW143568   0.200   5.976   4.413 -0.4263 -0.4524 -0.5605
46210SOL    HW243569   0.327   5.946   4.336  0.3431  2.0096 -0.3345
46211SOL     OW43570   2.931   6.429   0.783  0.3942 -0.0859 -0.3539
46211SOL    HW143571   2.966   6.346   0.752  0.5087  0.4374 -1.6636
46211SOL    HW243572   2.971   6.441   0.869 -0.5176 -1.9396  0.3929
46212SOL     OW43573   5.252   0.808   5.297 -0.2132 -0.2172 -0.2780
46212SOL    HW143574   5.199   0.838   5.223 -1.1050  0.4429  0.6162
46212SOL    HW243575   5.338   0.790   5.258 -0.2683  1.4150 -1.2410
46213SOL     OW43576   0.070   8.274   4.570 -0.0825  0.1065 -0.0155
46213SOL    HW143577   0.098   8.312   4.653 -1.6317 -0.5071  0.8297
46213SOL    HW243578   0.116   8.190   4.565 -0.8744 -0.3911  0.8181
46214SOL     OW43579   8.919   6.906   2.380  0.1884 -0.1215 -0.1446
46214SOL    HW143580   8.878   6.993   2.378 -0.3280 -0.3755 -0.7501
46214SOL    HW243581   9.002   6.920   2.425 -0.4104  0.4654  0.8140
46215SOL     OW43582   7.438   6.671   2.269  0.4428 -0.1283  0.4299
46215SOL    HW143583   7.401   6.748   2.311  0.6310  0.7532 -0.9525
46215SOL    HW243584   7.367   6.607   2.269 -0.1561  0.5250  0.4058
46216SOL     OW43585   1.978   4.286   9.110  0.3129 -0.5409  0.0666
46216SOL    HW143586   1.984   4.258   9.202  2.6398  0.5650  0.3182
46216SOL    HW243587   2.002   4.208   9.060  0.9326 -0.6367  0.4946
46217SOL     OW43588   6.998   0.953  11.166  0.3765 -0.0424 -0.9118
46217SOL    HW143589   7.055   1.027  11.146 -0.1595  1.6123  2.8131
46217SOL    HW243590   7.056   0.887  11.204  0.4020 -0.2270 -1.2655
46218SOL     OW43591   5.748  11.393   4.332 -0.5297 -0.3568 -0.1598
46218SOL    HW143592   5.710  11.360   4.250  0.3387 -3.2549  0.5224
46218SOL    HW243593   5.760  11.316   4.386 -0.3963  1.4003  2.4756
46219SOL     OW43594   5.776   4.511   5.380 -0.6382  0.2110  0.2423
46219SOL    HW143595   5.853   4.560   5.409  0.5682 -0.6173 -1.4204
46219SOL    HW243596   5.757   4.451   5.451  1.3639 -0.7994 -0.0171
46220SOL     OW43597   4.722  10.716   5.188  0.3668 -0.8247  0.5497
46220SOL    HW143598   4.712  10.792   5.245 -0.4333 -0.1483 -0.4642
46220SOL    HW243599   4.711  10.641   5.247  0.9659 -0.1761  1.5292
46221SOL     OW43600   0.199   2.680   0.108  0.0564  0.8321 -0.1732
46221SOL    HW143601   0.224   2.773   0.108  0.8731  0.6345  0.8160
46221SOL    HW243602   0.278   2.635   0.138 -1.1190  0.0653  1.9502
46222SOL     OW43603   6.311  10.847   4.568 -0.4769  0.6293 -0.1350
46222SOL    HW143604   6.337  10.866   4.658 -0.6126 -1.0971  0.2938
46222SOL    HW243605   6.259  10.768   4.573  1.8517 -1.1936 -1.9865
46223SOL     OW43606   7.750   5.273   5.939 -0.1260  0.0297  0.6208
46223SOL    HW143607   7.834   5.234   5.915  0.0059 -0.1369  1.3279
46223SOL    HW243608   7.693   5.198   5.960 -0.1192  0.1745  1.1880
46224SOL     OW43609   1.541   1.554  10.565  0.1361 -0.1584  0.3341
46224SOL    HW143610   1.622   1.576  10.519  0.6263  2.0987  2.0482
46224SOL    HW243611   1.473   1.598  10.514  0.3320  0.0921  0.2809
46225SOL     OW43612  11.086   4.124   1.038  0.2564  0.6044 -0.1588
46225SOL    HW143613  11.083   4.049   0.978 -2.2861  0.3447  0.1758
46225SOL    HW243614  11.068   4.200   0.982 -1.5480  0.4223  0.0990
46226SOL     OW43615   8.220   8.807   9.315 -0.1022 -0.1790  0.2893
46226SOL    HW143616   8.278   8.731   9.327 -1.5767 -1.5261 -0.7318
46226SOL    HW243617   8.229   8.857   9.396  1.8712 -0.7575  0.4752
46227SOL     OW43618   1.782  11.061   1.095 -0.6527  0.2168 -0.5751
46227SOL    HW143619   1.783  11.141   1.044  1.1309 -0.7009 -2.1032
46227SOL    HW243620   1.812  10.993   1.034  1.4530 -0.9662  1.6166
46228SOL     OW43621  10.291   6.820   5.136  0.3831 -0.3816 -0.0878
46228SOL    HW143622  10.216   6.766   5.161  0.4515  0.2412  1.5979
46228SOL    HW243623  10.333   6.772   5.065 -1.0109 -1.2537 -0.3574
46229SOL     OW43624   7.884   7.699  11.361  0.1368  0.0074  0.4297
46229SOL    HW143625   7.941   7.679  11.286 -0.3957  0.3174 -0.0677
46229SOL    HW243626   7.913   7.785  11.391 -0.2672  0.3099 -0.0255
46230SOL     OW43627   6.294   4.481   2.563 -0.1687 -0.3372  0.2260
46230SOL    HW143628   6.248   4.502   2.644 -1.4922  2.0603 -1.0266
46230SOL    HW243629   6.256   4.398   2.535 -1.9833  0.3370  0.5342
46231SOL     OW43630   8.943   3.873   4.091  0.3704 -0.3079  0.0814
46231SOL    HW143631   8.855   3.838   4.104  0.6632 -1.8984 -1.7542
46231SOL    HW243632   9.000   3.815   4.141  0.4233  0.7229  1.2716
46232SOL     OW43633   9.353   8.757   6.650 -0.6753 -0.0829 -0.9394
46232SOL    HW143634   9.325   8.722   6.565  0.9826 -1.2684 -1.0319
46232SOL    HW243635   9.446   8.737   6.655 -0.5156  0.9077  0.7297
46233SOL     OW43636   5.293   4.190   0.791  0.3456 -0.1068  0.2518
46233SOL    HW143637   5.367   4.247   0.811  0.4032  0.0884 -0.4918
46233SOL    HW243638   5.330   4.102   0.796  0.3391 -0.0767  1.0517
46234SOL     OW43639   4.687   1.889   7.970 -0.2618  0.7447  0.0114
46234SOL    HW143640   4.632   1.861   7.897 -1.4857 -1.7399  1.7467
46234SOL    HW243641   4.649   1.972   7.998 -1.3071  0.4937 -0.6123
46235SOL     OW43642   6.287   3.036   9.477 -0.4572 -0.1649 -0.6250
46235SOL    HW143643   6.207   2.984   9.477 -1.4791  1.3215 -0.5794
46235SOL    HW243644   6.285   3.084   9.394  0.7236 -0.5751 -0.9078
46236SOL     OW43645   2.636   3.681   4.721  0.3030  0.3962  0.0865
46236SOL    HW143646   2.610   3.591   4.699 -1.2608  0.9904 -0.6775
46236SOL    HW243647   2.730   3.684   4.703  0.4617 -1.1725  0.4761
46237SOL     OW43648   4.722  10.256   2.466  0.3262 -0.2258 -0.1710
46237SOL    HW143649   4.815  10.269   2.485  0.3226  0.8023 -0.8022
46237SOL    HW243650   4.683  10.236   2.551  1.2460 -1.4975 -0.0285
46238SOL     OW43651  10.958  11.133   3.466  0.1620 -0.1423  0.2392
46238SOL    HW143652  10.897  11.079   3.415  1.3203 -1.6178  0.3753
46238SOL    HW243653  10.926  11.127   3.556 -0.4068  0.4131  0.0866
46239SOL     OW43654   8.189   9.945  11.214 -0.4019 -0.3379  0.8338
46239SOL    HW143655   8.196   9.921  11.306  1.5570 -0.8539  0.5965
46239SOL    HW243656   8.279   9.943  11.181 -1.0273 -0.0108 -1.0583
46240SOL     OW43657   4.500   7.493  11.002  0.4726 -0.0183 -0.3373
46240SOL    HW143658   4.548   7.547  11.066  1.4510 -1.5874  0.3197
46240SOL    HW243659   4.562   7.424  10.979 -0.8616 -1.0741 -0.8716
46241SOL     OW43660   6.408   4.607   6.811 -0.2851  0.0979  0.2940
46241SOL    HW143661   6.482   4.565   6.768  0.3691  1.7401 -0.2722
46241SOL    HW243662   6.395   4.557   6.891  1.4467 -0.2439  0.4064
46242SOL     OW43663   1.526   7.018   8.680  0.4095 -0.3231  0.4366
46242SOL    HW143664   1.433   7.008   8.700 -0.1796  1.0616 -1.3784
46242SOL    HW243665   1.533   6.995   8.588  1.8414 -0.1735  0.4921
46243SOL     OW43666   9.081   7.446   7.977  0.2865 -0.2629 -0.7474
46243SOL    HW143667   9.026   7.432   8.054  1.1476 -1.2442 -0.2977
46243SOL    HW243668   9.052   7.531   7.943  0.4546  0.5941  1.1320
46244SOL     OW43669   5.489   3.270   2.769  0.2044 -0.1042 -0.8014
46244SOL    HW143670   5.492   3.366   2.771  2.2644 -0.1470  0.1317
46244SOL    HW243671   5.412   3.248   2.822  0.1224  1.0284 -0.4208
46245SOL     OW43672   9.896   5.731  11.199  0.4129  0.2901 -0.1713
46245SOL    HW143673   9.968   5.769  11.147  0.8450 -1.1767 -0.6907
46245SOL    HW243674   9.921   5.640  11.211 -1.6448 -0.4220 -0.8771
46246SOL     OW43675   0.739   6.256   7.989 -0.4618  0.2926  0.4632
46246SOL    HW143676   0.785   6.274   8.071  1.2501 -2.8756  0.3851
46246SOL    HW243677   0.646   6.268   8.011 -0.0310  0.0395  2.7585
46247SOL     OW43678   5.670   6.465   9.428  0.2759  0.1533 -0.5392
46247SOL    HW143679   5.748   6.480   9.482  0.3035 -0.5174 -0.3908
46247SOL    HW243680   5.677   6.530   9.358  0.7904  0.3258 -0.3324
46248SOL     OW43681   6.517   3.248   7.312  0.6191  0.0180 -0.8362
46248SOL    HW143682   6.538   3.156   7.295  2.3711  0.2853 -0.2715
46248SOL    HW243683   6.548   3.263   7.401 -2.6136  0.3276  0.3798
46249SOL     OW43684   8.802   2.377  10.888  0.0115 -0.4100  0.1952
46249SOL    HW143685   8.810   2.470  10.870  0.2017 -0.1238  1.6039
46249SOL    HW243686   8.830   2.368  10.979 -1.1932 -1.6554  0.4836
46250SOL     OW43687   2.344  10.352   3.978  0.7452 -0.2119 -0.2984
46250SOL    HW143688   2.398  10.383   4.050 -0.9310 -1.2917  1.5398
46250SOL    HW243689   2.402  10.297   3.926  1.6398 -0.7276  1.1659
46251SOL     OW43690   0.128   2.738   1.141  0.0436  0.0588  0.4580
46251SOL    HW143691   0.069   2.794   1.191 -0.9027 -1.8200  1.5484
46251SOL    HW243692   0.070   2.680   1.092  0.9960  0.4121 -1.1603
46252SOL     OW43693   8.277   3.837   1.488 -0.2647  0.4842  0.0713
46252SOL    HW143694   8.348   3.810   1.430  0.7421 -0.0538  1.4998
46252SOL    HW243695   8.257   3.759   1.539 -1.2179  0.9141  0.3705
46253SOL     OW43696   3.476   4.488   4.535  0.4830 -0.5223 -0.2778
46253SOL    HW143697   3.516   4.574   4.530 -1.1537  0.6556  3.2223
46253SOL    HW243698   3.546   4.430   4.565  0.9189  0.2267  0.1710
46254SOL     OW43699  10.369   3.759   8.670 -0.0571  0.1558 -0.1126
46254SOL    HW143700  10.450   3.779   8.623 -0.2597  1.4518  0.0598
46254SOL    HW243701  10.300   3.768   8.605 -0.1498 -0.0763 -0.0489
46255SOL     OW43702   7.821   6.754   0.990  0.1724  0.1061 -0.2123
46255SOL    HW143703   7.743   6.801   1.021  0.5333 -0.6001  1.9407
46255SOL    HW243704   7.891   6.820   0.991 -0.2354  0.5835 -1.5332
46256SOL     OW43705   1.308   2.147   9.589 -0.1335 -0.0644  0.3011
46256SOL    HW143706   1.392   2.102   9.597  0.1755  0.3678 -0.4311
46256SOL    HW243707   1.308   2.210   9.661  0.3550  0.2124  0.0666
46257SOL     OW43708   5.450   6.304   9.351 -0.3437  0.6094 -0.6775
46257SOL    HW143709   5.530   6.355   9.362 -0.4429  0.5784  0.2611
46257SOL    HW243710   5.382   6.359   9.391 -0.3248 -0.5889  1.1304
46258SOL     OW43711   2.825   9.541   0.230  0.3537 -0.2485 -0.1305
46258SOL    HW143712   2.806   9.573   0.142 -1.0182  0.6061  0.4320
46258SOL    HW243713   2.819   9.446   0.223  1.6144 -0.2623 -1.2307
46259SOL     OW43714   8.789   3.496   1.781  0.6752  0.4866 -0.1248
46259SOL    HW143715   8.834   3.417   1.753  0.2725  0.9574 -2.2901
46259SOL    HW243716   8.751   3.532   1.701 -1.4397  1.4483  1.2077
46260SOL     OW43717  10.487   8.655   2.326 -0.0984  0.2097  0.4903
46260SOL    HW143718  10.425   8.726   2.339 -3.5037 -2.5215  0.4834
46260SOL    HW243719  10.494   8.646   2.230  1.4710  1.3172  0.4521
46261SOL     OW43720   0.520   8.060   1.299  0.0996  0.0150 -0.9059
46261SOL    HW143721   0.499   7.986   1.356  0.4988 -0.3344 -1.2042
46261SOL    HW243722   0.572   8.118   1.355 -0.9443  0.5044 -0.4095
46262SOL     OW43723   0.519   8.217   3.219 -0.0888  0.3136 -0.2211
46262SOL    HW143724   0.531   8.207   3.124 -0.8057 -0.0315 -0.2830
46262SOL    HW243725   0.424   8.218   3.230 -0.0061  0.6144  0.4712
46263SOL     OW43726   0.701   9.861  11.262  0.7916 -0.3071 -0.1972
46263SOL    HW143727   0.711   9.921  11.188  1.6215 -0.2768 -0.0706
46263SOL    HW243728   0.736   9.778  11.231  0.1658 -0.5827 -0.1822
46264SOL     OW43729   2.112   1.337   8.923  0.2584  0.2209  0.1326
46264SOL    HW143730   2.159   1.419   8.906  1.8422  0.1097  3.2154
46264SOL    HW243731   2.067   1.352   9.006 -0.5623 -1.5755  0.0645
46265SOL     OW43732   8.158   2.419   9.311 -0.1548 -0.4240  0.3358
46265SOL    HW143733   8.124   2.362   9.380 -0.3761  0.9341  1.3997
46265SOL    HW243734   8.087   2.425   9.247 -1.1420  0.6396  1.4676
46266SOL     OW43735   0.490   4.142   8.152  0.5230 -0.2350  0.0540
46266SOL    HW143736   0.534   4.075   8.100  1.4561 -0.3198  0.9241
46266SOL    HW243737   0.534   4.224   8.127  2.6397 -0.5568  2.3539
46267SOL     OW43738   9.506   3.220   6.579  0.3380 -0.0661  0.3743
46267SOL    HW143739   9.544   3.133   6.587  0.5689 -0.0939 -0.8132
46267SOL    HW243740   9.581   3.279   6.588  0.5240 -0.0823 -0.8545
46268SOL     OW43741   0.501   7.805   6.555 -1.1026  0.0290 -0.0169
46268SOL    HW143742   0.519   7.713   6.575 -0.6858  0.2711  0.7553
46268SOL    HW243743   0.494   7.808   6.459  0.8620 -0.4708 -0.2167
46269SOL     OW43744   0.363   4.935   2.908 -0.4642  0.3455 -0.3338
46269SOL    HW143745   0.455   4.915   2.890 -0.2787  1.6225 -0.9519
46269SOL    HW243746   0.337   4.871   2.975  0.9479  0.1500  0.0661
46270SOL     OW43747   0.318   3.155   5.653 -0.5371  0.0802 -0.0928
46270SOL    HW143748   0.283   3.242   5.674 -0.7863 -0.3729  1.5304
46270SOL    HW243749   0.411   3.161   5.671 -0.3893  0.2668 -0.8965
46271SOL     OW43750   2.165   4.501   8.776 -0.1082 -0.1472  0.3324
46271SOL    HW143751   2.213   4.524   8.856 -0.4850 -3.1881  1.5610
46271SOL    HW243752   2.218   4.432   8.736 -1.3344 -0.5755 -0.5830
46272SOL     OW43753   0.534   8.486   8.014 -0.3173 -0.6043 -0.4015
46272SOL    HW143754   0.622   8.455   8.032  0.3322  0.9582 -0.6991
46272SOL    HW243755   0.523   8.476   7.919  0.1087  0.5399 -0.5846
46273SOL     OW43756   4.577   3.008   2.929  0.4396  0.1315 -0.3671
46273SOL    HW143757   4.590   3.017   3.023 -0.1706  0.5469 -0.3193
46273SOL    HW243758   4.547   2.917   2.918 -0.5403  0.4007 -0.0346
46274SOL     OW43759   3.188   6.426   2.396 -0.1633 -0.3505  0.2353
46274SOL    HW143760   3.191   6.513   2.356 -3.5111  0.5299  1.5099
46274SOL    HW243761   3.174   6.444   2.489  1.4041 -2.3317  0.9193
46275SOL     OW43762   2.566   2.622   3.615  0.8038  0.2214 -0.8161
46275SOL    HW143763   2.485   2.657   3.579 -0.2202 -1.1147  0.0946
46275SOL    HW243764   2.603   2.569   3.543  0.8179  0.7318 -1.1908
46276SOL     OW43765   6.680   5.618   1.043  0.6393  0.0709 -0.3337
46276SOL    HW143766   6.720   5.531   1.048  0.4457  0.0203  0.7027
46276SOL    HW243767   6.719   5.658   0.966  1.1849 -0.7178 -0.4830
46277SOL     OW43768   1.207   2.550   7.861 -0.4592 -0.4978  0.0704
46277SOL    HW143769   1.143   2.620   7.867  0.6948  0.8961 -2.3837
46277SOL    HW243770   1.246   2.545   7.948 -2.8065 -0.4173  1.2165
46278SOL     OW43771   3.956   6.039   6.160  0.2829  0.7887 -0.2110
46278SOL    HW143772   3.869   6.006   6.138  0.8369 -0.2399 -0.9611
46278SOL    HW243773   3.941   6.128   6.190 -1.5086 -0.5460  3.5124
46279SOL     OW43774  10.309   4.468   3.428 -0.2250  0.5035  0.3032
46279SOL    HW143775  10.296   4.443   3.520 -0.6404 -2.4848 -0.4769
46279SOL    HW243776  10.399   4.441   3.409 -0.8074 -0.8361 -0.6795
46280SOL     OW43777   3.509  10.822   9.233  0.1357  0.5251 -0.3434
46280SOL    HW143778   3.538  10.886   9.168  0.2369  0.9685  0.1342
46280SOL    HW243779   3.414  10.837   9.240  0.3000  1.2247  0.4159
46281SOL     OW43780   7.876   5.813   2.381  0.0532  0.5679  0.8431
46281SOL    HW143781   7.859   5.719   2.383 -1.6767  0.8378  0.7745
46281SOL    HW243782   7.901   5.832   2.291  0.2614  0.2082  0.8238
46282SOL     OW43783   8.976   9.505   5.169 -0.4843  0.0367 -0.4011
46282SOL    HW143784   8.936   9.568   5.110  0.9707 -0.4872 -2.0395
46282SOL    HW243785   9.070   9.513   5.153 -0.2032 -1.9688 -0.1007
46283SOL     OW43786   6.825   0.601   4.834  0.3416  0.0983 -0.0050
46283SOL    HW143787   6.833   0.617   4.928 -1.2330 -1.7353  0.5089
46283SOL    HW243788   6.836   0.687   4.793 -0.5353  1.1927  1.9647
46284SOL     OW43789   5.471   6.123   5.204  0.0421  0.2053 -0.2862
46284SOL    HW143790   5.534   6.067   5.250  0.4260  0.7335 -0.1644
46284SOL    HW243791   5.433   6.178   5.273  0.4974  0.8840 -0.5617
46285SOL     OW43792   6.719  11.084  10.896 -0.0733  0.4011 -0.2101
46285SOL    HW143793   6.626  11.086  10.917 -0.1400 -1.0234 -0.2749
46285SOL    HW243794   6.723  11.061  10.803  0.3396 -0.7404  0.0666
46286SOL     OW43795   8.706   5.441  11.456  0.3683 -0.0898  0.0996
46286SOL    HW143796   8.740   5.453  11.545  1.9643 -0.5436 -0.3995
46286SOL    HW243797   8.649   5.516  11.441 -1.4354 -0.9777  2.1492
46287SOL     OW43798   7.115  11.442   1.428 -0.2809  0.3022  0.0869
46287SOL    HW143799   7.088  11.533   1.437 -1.6010 -0.1038  0.4272
46287SOL    HW243800   7.077  11.414   1.345  1.2139  0.4058 -0.6701
46288SOL     OW43801   6.947  11.117   5.644  0.1480  0.3512 -0.0983
46288SOL    HW143802   6.867  11.164   5.665 -0.8843 -1.0198 -0.7493
46288SOL    HW243803   6.985  11.094   5.728 -1.2946 -0.8118  0.2729
46289SOL     OW43804   0.672   6.178   0.227 -0.3007  0.3768 -0.2036
46289SOL    HW143805   0.684   6.266   0.264 -0.4363  0.7631 -1.0759
46289SOL    HW243806   0.760   6.154   0.196 -0.3250  0.3153 -0.2238
46290SOL     OW43807   5.872   0.740   3.310 -0.2777  0.4686  0.0089
46290SOL    HW143808   5.872   0.823   3.358  1.6798  0.1129  0.7226
46290SOL    HW243809   5.832   0.678   3.371 -1.8994  0.8875 -0.5903
46291SOL     OW43810   1.225   5.771  10.024 -0.1500 -0.3068  0.3744
46291SOL    HW143811   1.137   5.803  10.006 -0.2636 -0.0781  1.2910
46291SOL    HW243812   1.265   5.760   9.938 -0.6390  0.7963 -0.0061
46292SOL     OW43813   2.779   5.487  10.523 -0.3464  0.1089  0.3736
46292SOL    HW143814   2.685   5.504  10.525 -0.3880 -0.1484  1.9643
46292SOL    HW243815   2.795   5.445  10.438 -1.1906  2.6383 -1.1293
46293SOL     OW43816   0.761   9.957   5.025  0.1571  0.0568 -0.3096
46293SOL    HW143817   0.800   9.937   4.940 -0.4722 -0.4095 -0.5008
46293SOL    HW243818   0.808   9.902   5.087  0.8266  0.6261 -0.3069
46294SOL     OW43819  11.489   8.944   5.250  0.1435 -0.1625  0.6716
46294SOL    HW143820  11.451   8.881   5.310  0.7589 -2.1359 -0.9075
46294SOL    HW243821  11.575   8.965   5.286 -0.8519  1.4144  2.2674
46295SOL     OW43822   2.394   4.535   1.583 -0.0462 -0.1607  0.3729
46295SOL    HW143823   2.441   4.595   1.525 -1.1911 -0.0983 -0.5192
46295SOL    HW243824   2.363   4.466   1.525 -0.4393 -0.5769  1.0718
46296SOL     OW43825   3.699   1.349   5.082 -0.4516 -0.4199 -0.0450
46296SOL    HW143826   3.628   1.301   5.125 -0.9403  0.4177  0.1153
46296SOL    HW243827   3.756   1.377   5.154 -0.1892 -0.7151 -0.1339
46297SOL     OW43828   0.584   8.726   2.445  0.5569 -0.1270 -0.0698
46297SOL    HW143829   0.488   8.726   2.450  0.4876 -0.7299 -1.1397
46297SOL    HW243830   0.608   8.818   2.458 -0.2529  0.2378 -0.9736
46298SOL     OW43831   7.117   3.687   4.699 -0.3279  0.3773 -0.2328
46298SOL    HW143832   7.098   3.601   4.660  2.7830 -0.6984  0.3095
46298SOL    HW243833   7.160   3.735   4.629  0.1595  0.5620  0.1917
46299SOL     OW43834   1.163   3.119  11.008  0.0802 -0.2398 -0.1295
46299SOL    HW143835   1.111   3.198  11.028  0.8046  0.3800 -0.6337
46299SOL    HW243836   1.143   3.100  10.917  0.9309  0.1661 -0.4119
46300SOL     OW43837   1.673  11.155  10.989  0.1961  0.7246 -0.4435
46300SOL    HW143838   1.672  11.085  10.923  0.9202  0.8289 -0.5780
46300SOL    HW243839   1.719  11.117  11.063 -0.4622  0.6687 -0.0604
46301SOL     OW43840   3.613   1.652   2.992 -0.2377 -0.5851 -0.3855
46301SOL    HW143841   3.554   1.586   3.029 -1.1154  0.3811 -0.0245
46301SOL    HW243842   3.690   1.602   2.965 -0.8904 -1.7645 -0.1466
46302SOL     OW43843   4.933  10.296   5.366  0.1098  0.3425 -0.0356
46302SOL    HW143844   4.944  10.231   5.297 -0.3105 -0.2289  0.4198
46302SOL    HW243845   4.986  10.371   5.338 -0.4241  0.2984 -1.1904
46303SOL     OW43846   2.191   5.185  10.270 -0.0483  0.0968 -0.1618
46303SOL    HW143847   2.145   5.262  10.302 -2.7243 -1.4938  0.1558
46303SOL    HW243848   2.171   5.181  10.177  0.9100  0.2927 -0.3867
46304SOL     OW43849   9.253   3.826  10.098  0.6068  0.0269  0.0384
46304SOL    HW143850   9.204   3.876  10.032  0.8280  0.7548  0.4067
46304SOL    HW243851   9.319   3.778  10.047 -0.4457 -0.9390 -0.4536
46305SOL     OW43852   0.953   6.633  11.656 -0.0813 -0.3274 -0.5175
46305SOL    HW143853   1.035   6.587  11.635  1.1490  1.8185 -0.6597
46305SOL    HW243854   0.918   6.659  11.571 -1.2749 -1.7332 -0.4979
46306SOL     OW43855   2.679   3.142   7.648 -0.7154 -0.2309  0.7146
46306SOL    HW143856   2.702   3.082   7.578 -2.9327 -0.1797 -0.1211
46306SOL    HW243857   2.657   3.086   7.722 -1.3218 -0.4111  0.4040
46307SOL     OW43858  10.498   6.256   8.517 -0.7130  0.0355  0.6483
46307SOL    HW143859  10.425   6.209   8.476 -0.4898 -0.3300  0.6731
46307SOL    HW243860  10.455   6.317   8.577 -1.1158  1.4245 -0.9480
46308SOL     OW43861   2.614   4.276   1.420  0.3799  0.0265  0.1006
46308SOL    HW143862   2.638   4.273   1.513  1.1386 -2.1458 -0.1253
46308SOL    HW243863   2.528   4.234   1.417  0.9900 -1.2154 -0.3420
46309SOL     OW43864   9.717  10.306  10.502  0.3100  0.1482 -0.3995
46309SOL    HW143865   9.682  10.393  10.482 -1.2882 -0.2384  0.5114
46309SOL    HW243866   9.739  10.269  10.417 -0.1602  0.9782 -0.8947
46310SOL     OW43867   0.530   3.472   3.034  0.3194 -0.5919  0.6553
46310SOL    HW143868   0.610   3.424   3.053  1.1441  0.6077  0.3490
46310SOL    HW243869   0.560   3.560   3.010 -1.0228 -0.4215 -0.5460
46311SOL     OW43870   4.598   6.361  11.463  1.1902 -0.9283  0.5593
46311SOL    HW143871   4.546   6.322  11.393  1.1319  1.4594 -0.8316
46311SOL    HW243872   4.561   6.324  11.543 -1.7700 -0.4069 -0.4352
46312SOL     OW43873   4.095   8.897   2.982  0.3540 -0.5115  0.3975
46312SOL    HW143874   4.100   8.992   2.980  0.5133 -0.5146 -1.1112
46312SOL    HW243875   4.186   8.868   2.970  0.5137 -0.8882  2.2394
46313SOL     OW43876   8.875   1.544  11.625 -0.6610  0.9171  0.0400
46313SOL    HW143877   8.884   1.622  11.679 -1.9914  1.9338 -1.1302
46313SOL    HW243878   8.862   1.577  11.536 -0.4393 -0.6586 -0.6171
46314SOL     OW43879   3.262   5.675   3.522  0.0550 -0.7418 -0.0402
46314SOL    HW143880   3.271   5.623   3.442  0.9791 -1.9963  0.8414
46314SOL    HW243881   3.203   5.746   3.497  0.1867 -1.1883 -1.7854
46315SOL     OW43882  11.258   2.511  10.612  0.0062 -0.1406  0.5146
46315SOL    HW143883  11.208   2.456  10.672  0.0861 -1.1722 -0.3314
46315SOL    HW243884  11.216   2.497  10.527  0.2492  0.8485  0.2147
46316SOL     OW43885   1.859   6.422   1.611 -0.1511 -0.5121  0.0769
46316SOL    HW143886   1.807   6.417   1.531 -0.4123 -0.1284  0.2179
46316SOL    HW243887   1.834   6.343   1.660 -0.6510 -0.3038  0.1697
46317SOL     OW43888   0.684  10.907   3.424  0.1575 -0.0498  0.2604
46317SOL    HW143889   0.735  10.828   3.406  0.0541 -0.0356 -0.0965
46317SOL    HW243890   0.675  10.950   3.339 -2.4495 -1.2446 -0.1576
46318SOL     OW43891   2.900   9.707   1.770  0.1456  0.5018 -0.4939
46318SOL    HW143892   2.886   9.692   1.677  1.0279  3.0600 -1.1163
46318SOL    HW243893   2.993   9.687   1.784  0.5396  2.0982 -0.6596
46319SOL     OW43894   8.010   9.374   6.462  0.3389 -0.0332  0.4155
46319SOL    HW143895   8.013   9.311   6.390  0.7156 -0.0884  0.4777
46319SOL    HW243896   8.099   9.374   6.497  0.7901  1.7616 -0.6279
46320SOL     OW43897   0.635   9.309   1.478  0.6792 -0.0269  0.0105
46320SOL    HW143898   0.546   9.342   1.487  0.8457  0.7715 -1.0309
46320SOL    HW243899   0.633   9.260   1.395  1.3821  0.6442 -0.4144
46321SOL     OW43900   0.304   0.229   8.241  0.5773 -0.3540 -0.6111
46321SOL    HW143901   0.362   0.158   8.266  0.0339 -0.2985  0.9188
46321SOL    HW243902   0.363   0.301   8.217  1.1322 -0.6965 -0.2901
46322SOL     OW43903   0.649   4.341   2.282  0.4351 -0.1488 -0.0898
46322SOL    HW143904   0.564   4.380   2.261  0.3026 -0.1304  0.4751
46322SOL    HW243905   0.654   4.264   2.226 -0.5866 -0.9592  0.9012
46323SOL     OW43906   1.014   6.987  11.427  0.1068  0.2388  0.2820
46323SOL    HW143907   1.038   7.078  11.411  0.8497 -0.2353 -1.5990
46323SOL    HW243908   0.946   6.968  11.363  1.7753 -1.2111 -1.1836
46324SOL     OW43909   3.958   8.204   5.419  0.1688 -0.3787  0.0531
46324SOL    HW143910   3.994   8.212   5.330  0.1233 -0.4889  0.0235
46324SOL    HW243911   4.031   8.173   5.472 -0.2501 -2.1389 -0.3153
46325SOL     OW43912   7.175   3.618   1.515 -0.1810  0.3099  0.0094
46325SOL    HW143913   7.258   3.584   1.481  0.5475  1.1591  0.8705
46325SOL    HW243914   7.125   3.642   1.437  0.8312  0.7824 -0.5131
46326SOL     OW43915   3.462   2.299  10.801  0.0832 -0.4995  0.4279
46326SOL    HW143916   3.528   2.337  10.743 -0.9721  1.8775  0.6974
46326SOL    HW243917   3.458   2.358  10.876 -3.0513  0.0725 -0.0647
46327SOL     OW43918   7.210   7.774   0.446 -0.2207 -0.5204 -0.1512
46327SOL    HW143919   7.283   7.723   0.483  0.6317  0.9278  0.2498
46327SOL    HW243920   7.161   7.803   0.523  0.3463  0.7485 -0.2512
46328SOL     OW43921   0.999   6.445   2.832  0.0678 -0.0460  0.3391
46328SOL    HW143922   0.983   6.469   2.924  0.1643  0.1428  0.3075
46328SOL    HW243923   0.912   6.445   2.792  0.0536  0.1407  0.3674
46329SOL     OW43924   5.396   8.772   3.803 -0.3852 -0.0175  0.2180
46329SOL    HW143925   5.383   8.857   3.845 -2.9927 -0.2316  0.0260
46329SOL    HW243926   5.459   8.727   3.859 -0.5147  1.2925  1.4691
46330SOL     OW43927   9.297   2.665   9.940  1.0972 -0.0428  0.4410
46330SOL    HW143928   9.250   2.739   9.978  1.9439  0.5165  0.4214
46330SOL    HW243929   9.322   2.694   9.852 -0.3679 -1.1232 -0.3712
46331SOL     OW43930   0.871   3.564   1.636  0.4888 -0.2272 -0.1295
46331SOL    HW143931   0.798   3.504   1.654  1.4498 -1.4757 -0.2462
46331SOL    HW243932   0.913   3.577   1.721  0.0227  0.6500 -0.0280
46332SOL     OW43933   7.553   3.783   3.317  0.2691  0.3114  0.2878
46332SOL    HW143934   7.461   3.758   3.329  0.4628 -0.0312  1.1285
46332SOL    HW243935   7.581   3.736   3.238  0.0687 -0.5621  0.7313
46333SOL     OW43936   8.915   2.575   1.901 -0.3041 -0.4030 -0.0987
46333SOL    HW143937   8.841   2.562   1.960 -0.1683 -0.3880  0.0779
46333SOL    HW243938   8.986   2.523   1.940  0.3806  1.1663  0.8560
46334SOL     OW43939   6.952   8.730   3.776 -0.0920  0.4984 -0.1883
46334SOL    HW143940   7.036   8.771   3.756 -0.7414  1.6666 -0.6506
46334SOL    HW243941   6.900   8.743   3.696 -0.7713 -0.0329  0.1584
46335SOL     OW43942  10.449   4.906   9.849 -0.2863  0.8519  0.2267
46335SOL    HW143943  10.357   4.917   9.828 -0.3179 -0.1275 -0.1912
46335SOL    HW243944  10.494   4.974   9.799 -0.7637  1.2593  0.3515
46336SOL     OW43945  11.571   3.264   8.810 -0.3005  0.4077 -0.0406
46336SOL    HW143946  11.497   3.207   8.790  0.0419 -0.3614  0.7937
46336SOL    HW243947  11.631   3.253   8.736 -0.3671 -0.1117 -0.0233
46337SOL     OW43948   1.254   3.263   4.304 -1.4428 -0.2135 -0.1413
46337SOL    HW143949   1.293   3.235   4.387 -0.7743 -0.0067 -0.3851
46337SOL    HW243950   1.324   3.309   4.259 -1.4145 -1.4013 -1.3701
46338SOL     OW43951   5.950   1.919   2.569  0.1505 -0.7016  0.1358
46338SOL    HW143952   5.903   1.848   2.526  0.4016 -1.2899  0.8055
46338SOL    HW243953   6.032   1.878   2.598  1.5865  0.5388 -1.9419
46339SOL     OW43954   6.115   0.333   0.500  0.4696  0.1587 -0.3993
46339SOL    HW143955   6.052   0.381   0.553  1.2908  1.8139 -0.8631
46339SOL    HW243956   6.061   0.283   0.438 -0.4481  2.2179 -1.3740
46340SOL     OW43957   7.511   4.538   9.386 -0.3119  0.9220 -0.2729
46340SOL    HW143958   7.506   4.488   9.305  1.7462  1.2319 -0.6701
46340SOL    HW243959   7.421   4.556   9.410 -1.0055 -0.5407 -1.6347
46341SOL     OW43960   8.795  10.266   2.132  0.3498 -0.4760  0.0024
46341SOL    HW143961   8.730  10.203   2.163  0.3963 -0.8144 -0.5564
46341SOL    HW243962   8.750  10.350   2.129  0.2474 -0.5096  0.6346
46342SOL     OW43963   5.557   0.608   9.182  0.3779  0.4350 -0.1928
46342SOL    HW143964   5.550   0.686   9.236  1.4656  0.4265 -0.0141
46342SOL    HW243965   5.624   0.554   9.225  0.1907 -0.2504 -0.7262
46343SOL     OW43966   7.509   1.090   5.045  0.1117 -0.1123  0.4272
46343SOL    HW143967   7.466   1.012   5.080 -0.7017  0.4638  0.7617
46343SOL    HW243968   7.438   1.137   4.999  1.0570 -0.6777 -1.7126
46344SOL     OW43969   8.605   7.717   7.333 -0.0816  0.1556  0.3034
46344SOL    HW143970   8.570   7.799   7.368  1.1820  0.4938  0.8208
46344SOL    HW243971   8.662   7.683   7.402  0.6708 -0.3318 -0.5315
46345SOL     OW43972   6.110   1.894   1.318  0.4880 -0.6527 -0.3403
46345SOL    HW143973   6.112   1.985   1.286  1.6063 -0.5555 -0.0552
46345SOL    HW243974   6.065   1.845   1.249 -0.6358  0.2068 -0.2363
46346SOL     OW43975   5.169   2.434   2.897  0.0015 -0.0785 -0.1638
46346SOL    HW143976   5.083   2.465   2.928 -0.4551 -1.0416 -0.4297
46346SOL    HW243977   5.192   2.495   2.827  1.3532  2.5457  2.3702
46347SOL     OW43978   0.867   8.253   3.169 -0.1236  0.2609  0.0188
46347SOL    HW143979   0.879   8.348   3.179  1.4659  0.0368  0.5807
46347SOL    HW243980   0.817   8.244   3.088  2.6622  1.5111 -2.0254
46348SOL     OW43981   2.621   3.959   5.578 -0.1110 -0.1080 -0.1706
46348SOL    HW143982   2.682   3.954   5.651 -1.1829  1.4901  0.9126
46348SOL    HW243983   2.604   3.868   5.554 -0.1311 -0.7242  1.9429
46349SOL     OW43984   5.723   5.827  11.298  0.2791 -0.4657  0.1391
46349SOL    HW143985   5.684   5.760  11.355 -1.9447 -1.1621 -2.0448
46349SOL    HW243986   5.710   5.909  11.346 -0.6746 -1.1236  1.0636
46350SOL     OW43987   3.008   6.432   8.726  0.1211 -0.3736 -0.2281
46350SOL    HW143988   2.926   6.412   8.681 -0.2562 -0.6883  0.5622
46350SOL    HW243989   3.035   6.517   8.691  0.3129 -0.9974 -1.6614
46351SOL     OW43990   7.357   8.456   4.487 -0.9889 -0.7620  0.0692
46351SOL    HW143991   7.270   8.472   4.522 -0.8572  0.4684 -0.1138
46351SOL    HW243992   7.387   8.542   4.456  0.1691 -1.2128 -0.1307
46352SOL     OW43993   1.293   8.051   8.887 -0.5610 -0.3688 -0.8148
46352SOL    HW143994   1.278   7.963   8.852 -1.3375 -0.4780 -0.2391
46352SOL    HW243995   1.349   8.094   8.822  0.5059 -1.5435 -0.7147
46353SOL     OW43996   3.173  10.276   1.922 -0.4073 -0.2443 -0.0642
46353SOL    HW143997   3.258  10.285   1.880 -0.2953 -2.2980 -0.3803
46353SOL    HW243998   3.186  10.307   2.011  0.5227 -0.0071 -0.2796
46354SOL     OW43999   6.354   0.050   1.401 -0.5958  0.1360  0.7585
46354SOL    HW144000   6.400   0.115   1.348 -1.7961  0.9686  0.6803
46354SOL    HW244001   6.286   0.016   1.342 -0.7586 -0.2935  1.1888
46355SOL     OW44002   7.172   4.622   3.240 -0.2692  0.1238  0.3111
46355SOL    HW144003   7.215   4.621   3.325  0.4018  0.3285 -0.0235
46355SOL    HW244004   7.162   4.715   3.219 -1.4671  0.0914  0.6784
46356SOL     OW44005   7.590   4.716   5.096  0.3317  0.1661 -0.4504
46356SOL    HW144006   7.563   4.656   5.026 -0.9378  1.0285 -0.7364
46356SOL    HW244007   7.685   4.704   5.102  0.0853 -2.1470 -0.2137
46357SOL     OW44008  10.766   4.324   3.109 -0.0889  0.2794  0.3141
46357SOL    HW144009  10.719   4.333   3.026 -0.2548  2.2196  0.5734
46357SOL    HW244010  10.700   4.291   3.170  0.6068 -3.6553 -0.7577
46358SOL     OW44011   5.005   0.170   0.931 -0.2245 -0.5386 -0.5204
46358SOL    HW144012   4.941   0.239   0.948 -0.3536 -1.3918  3.0837
46358SOL    HW244013   5.090   0.212   0.947 -0.1822 -0.6900 -0.3439
46359SOL     OW44014   6.896   2.971  10.835 -0.1038 -0.8631  0.4085
46359SOL    HW144015   6.960   3.017  10.781 -0.3587 -0.5409  0.3764
46359SOL    HW244016   6.939   2.960  10.920  0.6132 -2.1163 -0.1042
46360SOL     OW44017   1.053   9.360   3.033  0.0696 -0.1918 -0.1925
46360SOL    HW144018   0.966   9.341   3.067  0.3160 -0.1544  0.4775
46360SOL    HW244019   1.073   9.447   3.066  0.4011 -0.2394 -0.2634
46361SOL     OW44020   3.358   7.245   2.272 -0.2125  0.5172 -1.2839
46361SOL    HW144021   3.399   7.186   2.209 -0.7899 -0.2572 -0.9573
46361SOL    HW244022   3.417   7.246   2.347 -1.1076 -1.2160 -0.4913
46362SOL     OW44023   8.275   0.452   1.836  0.1346  0.1994 -0.3845
46362SOL    HW144024   8.250   0.472   1.746  0.4494  1.6564 -0.1805
46362SOL    HW244025   8.357   0.404   1.828 -0.3176 -0.4967 -0.8989
46363SOL     OW44026   8.827  11.454  10.806  0.3374 -0.4399 -0.0348
46363SOL    HW144027   8.820  11.486  10.896  0.5646 -0.0370 -0.1558
46363SOL    HW244028   8.898  11.506  10.768 -0.7469  0.4713 -0.8839
46364SOL     OW44029   7.191   6.318   3.501 -0.1616 -0.2156  0.5876
46364SOL    HW144030   7.223   6.337   3.413 -1.4554  0.0315  0.1528
46364SOL    HW244031   7.114   6.374   3.511 -1.2326 -1.7234  1.1027
46365SOL     OW44032   1.193  10.474   4.662  0.2215 -0.2221  0.1060
46365SOL    HW144033   1.110  10.512   4.636  0.2364  1.3040  2.0899
46365SOL    HW244034   1.259  10.526   4.616  0.1432 -0.8108 -0.7040
46366SOL     OW44035  11.258   8.275   5.111  0.1690 -0.2281  0.8473
46366SOL    HW144036  11.186   8.336   5.094  0.5415 -0.0730 -0.2894
46366SOL    HW244037  11.228   8.192   5.073  0.9623  0.0869 -0.5444
46367SOL     OW44038   0.115   7.098   4.507 -0.1985 -0.3355 -0.2151
46367SOL    HW144039   0.092   7.007   4.488  2.2512 -0.7418 -1.6912
46367SOL    HW244040   0.151   7.096   4.596 -1.4758 -0.4985  0.3187
46368SOL     OW44041   6.202  11.321   7.058  0.1935  0.2392  0.3282
46368SOL    HW144042   6.278  11.321   7.115  0.2674  0.9052  0.2300
46368SOL    HW244043   6.134  11.277   7.109  0.4159  0.3398  0.7139
46369SOL     OW44044   5.512   8.325   5.417  0.2074 -0.3314 -0.1988
46369SOL    HW144045   5.596   8.312   5.372 -0.4318 -1.2023 -1.1553
46369SOL    HW244046   5.464   8.385   5.360  0.3558  0.6096  0.6208
46370SOL     OW44047   4.756   8.691   5.049 -0.5768 -0.6608 -0.4588
46370SOL    HW144048   4.743   8.739   5.130 -0.9183  0.1692 -0.9920
46370SOL    HW244049   4.851   8.691   5.036 -0.6061  0.3870 -0.7462
46371SOL     OW44050   2.045   2.959   8.807 -0.1106 -0.5264 -0.6397
46371SOL    HW144051   1.979   3.015   8.848  0.8149  0.8727 -0.9683
46371SOL    HW244052   2.017   2.870   8.827 -0.4935  0.0624  1.7388
46372SOL     OW44053  11.135   0.971   2.603 -0.0866  0.0957 -0.3198
46372SOL    HW144054  11.169   1.003   2.520  0.5472 -0.7529 -0.3992
46372SOL    HW244055  11.185   0.891   2.620 -1.7128 -0.9412 -0.2040
46373SOL     OW44056   9.728   0.969   8.742 -0.0833 -0.3523 -0.3016
46373SOL    HW144057   9.729   0.911   8.818  1.9057  0.0274  0.0137
46373SOL    HW244058   9.655   1.029   8.758 -0.5734 -1.1602  0.5966
46374SOL     OW44059   0.368   2.558  11.425  0.3419 -0.4963  0.4393
46374SOL    HW144060   0.297   2.495  11.413 -1.9192  1.9927 -0.2538
46374SOL    HW244061   0.412   2.560  11.340  0.4090 -1.0896  0.4544
46375SOL     OW44062   2.384   5.262   0.798  0.1066 -0.6766  0.1285
46375SOL    HW144063   2.366   5.202   0.725  0.3365 -0.0291 -0.4614
46375SOL    HW244064   2.464   5.307   0.773 -1.0484  1.2355 -0.3221
46376SOL     OW44065   0.750   6.107   9.257 -0.1104 -0.0320  0.0768
46376SOL    HW144066   0.834   6.136   9.293  0.7268 -0.5458 -1.3670
46376SOL    HW244067   0.764   6.015   9.235 -1.1365 -0.1841  0.0270
46377SOL     OW44068   9.413   4.724   1.731 -0.1723  0.2723 -0.2231
46377SOL    HW144069   9.502   4.689   1.718 -0.7137 -1.2692  0.0604
46377SOL    HW244070   9.400   4.782   1.656  0.9140  0.1483 -0.5274
46378SOL     OW44071   0.733  11.193   7.618  0.2195 -0.1364 -0.2676
46378SOL    HW144072   0.682  11.114   7.634  0.8801 -0.3014  1.2159
46378SOL    HW244073   0.698  11.257   7.679 -0.5133  0.8406 -1.6730
46379SOL     OW44074   8.796   0.005  10.017  0.3855 -0.0416 -0.2741
46379SOL    HW144075   8.781  -0.070   9.960 -0.0791  0.4598 -0.8327
46379SOL    HW244076   8.815  -0.033  10.103 -1.3484 -0.7880 -0.1816
46380SOL     OW44077   3.318   9.337   6.956 -0.5206 -0.4056 -0.1357
46380SOL    HW144078   3.293   9.379   7.039  2.5599  0.8727  0.2564
46380SOL    HW244079   3.335   9.409   6.896  0.6844 -1.1937 -0.7871
46381SOL     OW44080   6.649   6.292   1.362 -0.3046  0.0202  0.4112
46381SOL    HW144081   6.571   6.287   1.418  0.5742 -0.2645  1.6479
46381SOL    HW244082   6.679   6.202   1.355 -0.0249  0.1406  0.0009
46382SOL     OW44083  10.766  10.665   5.018  0.4704  0.6421 -0.4597
46382SOL    HW144084  10.830  10.595   5.005 -0.5449 -0.0701 -2.0355
46382SOL    HW244085  10.681  10.623   5.003 -0.1644  2.2249 -1.5985
46383SOL     OW44086   0.320   5.908   9.753  0.3116 -0.7678 -0.2800
46383SOL    HW144087   0.259   5.980   9.737  0.3674 -0.7330 -0.3334
46383SOL    HW244088   0.302   5.881   9.843  0.4530 -0.5313 -0.1786
46384SOL     OW44089   7.314  11.571   8.483 -0.1649  0.1259  0.5503
46384SOL    HW144090   7.267  11.490   8.505 -0.9759  0.0334 -1.3858
46384SOL    HW244091   7.403  11.556   8.513 -0.9762 -0.2432  3.0450
46385SOL     OW44092   6.276   4.882   5.483  0.2019 -0.0154 -0.0008
46385SOL    HW144093   6.315   4.800   5.514 -0.0173 -0.1737 -0.1457
46385SOL    HW244094   6.349   4.928   5.442  0.1720 -0.4711 -0.5903
46386SOL     OW44095   9.087   2.768  10.289  0.8565 -0.0161  0.4652
46386SOL    HW144096   9.092   2.694  10.349  0.8416 -0.1232  0.3362
46386SOL    HW244097   9.040   2.835  10.337  1.8188  0.3007  0.9930
46387SOL     OW44098   6.478  10.201  10.874 -0.3487 -0.4777 -0.1443
46387SOL    HW144099   6.498  10.262  10.946  1.5734  0.2993 -1.2606
46387SOL    HW244100   6.448  10.257  10.803 -0.0706 -1.0066 -0.6825
46388SOL     OW44101   6.449   3.245   1.059  0.1818  0.0855  0.3853
46388SOL    HW144102   6.379   3.195   1.101  0.3141 -0.4120  0.0177
46388SOL    HW244103   6.451   3.213   0.969 -0.4513  1.5174 -0.1625
46389SOL     OW44104   9.520   2.109   5.660 -0.3723 -0.6749  0.6386
46389SOL    HW144105   9.558   2.149   5.738 -0.7343  0.7977  0.0785
46389SOL    HW244106   9.465   2.038   5.695 -1.4354  0.6732  1.8149
46390SOL     OW44107  10.829  10.602   5.646 -0.2167 -0.5600  0.0706
46390SOL    HW144108  10.810  10.576   5.736 -0.9108  0.0976  0.1233
46390SOL    HW244109  10.782  10.538   5.592  0.1979 -0.9533  0.1644
46391SOL     OW44110  11.123   7.021   0.881  0.2139 -0.5863 -0.1721
46391SOL    HW144111  11.046   6.964   0.884 -0.4060  0.2734  0.8983
46391SOL    HW244112  11.090   7.108   0.899  1.1636  0.1446 -1.7678
46392SOL     OW44113   6.858   8.497   2.503  0.2118 -0.2110 -0.0688
46392SOL    HW144114   6.911   8.574   2.484  0.3998 -0.4808 -0.6565
46392SOL    HW244115   6.772   8.516   2.464  0.0931 -0.0727  0.2596
46393SOL     OW44116   2.174   8.901   9.281 -0.0811  0.5230  0.3380
46393SOL    HW144117   2.107   8.860   9.335 -0.3364  0.9934  0.3796
46393SOL    HW244118   2.202   8.832   9.221 -0.9689  0.4692 -0.0248
46394SOL     OW44119   1.254   4.897   4.512 -0.2449  0.0057 -0.1036
46394SOL    HW144120   1.269   4.895   4.607  2.7947  2.6643 -0.3470
46394SOL    HW244121   1.284   4.811   4.481 -0.4062 -0.5498  1.2069
46395SOL     OW44122   5.421   0.433   7.991 -0.1448  0.3500  0.1782
46395SOL    HW144123   5.334   0.407   8.023  0.2639 -1.3705 -0.0200
46395SOL    HW244124   5.482   0.401   8.057  0.3737  1.4154  0.2400
46396SOL     OW44125   7.862   8.884   8.008 -0.3787  0.3900  0.1646
46396SOL    HW144126   7.908   8.875   8.092  0.8304  0.8304 -0.4207
46396SOL    HW244127   7.920   8.840   7.945 -2.3270 -1.9825 -0.1392
46397SOL     OW44128   8.599   7.308   7.958 -0.0984 -0.6004 -0.0139
46397SOL    HW144129   8.576   7.303   8.051 -0.3762  1.2280  0.0556
46397SOL    HW244130   8.596   7.402   7.938 -2.2934 -1.0630 -2.4104
46398SOL     OW44131   4.056   2.023   7.460  0.1027  0.4325  0.5764
46398SOL    HW144132   4.009   1.963   7.402  2.4495  0.6617 -1.7110
46398SOL    HW244133   4.068   1.973   7.541 -0.8702 -0.9244 -0.0730
46399SOL     OW44134   9.675   7.980   4.155  0.3404 -0.1843 -0.3966
46399SOL    HW144135   9.678   7.920   4.230  0.0049  0.5601  0.2307
46399SOL    HW244136   9.624   7.933   4.089 -0.7590 -0.2099  0.4408
46400SOL     OW44137   8.244   3.215   7.712 -0.4135  0.3791 -0.0942
46400SOL    HW144138   8.249   3.193   7.619  2.0820 -2.2359  0.5133
46400SOL    HW244139   8.332   3.245   7.735 -0.4933 -0.5932  1.7290
46401SOL     OW44140   8.771   5.067  11.307  0.0357  0.2300 -0.2993
46401SOL    HW144141   8.806   5.140  11.356  1.4553  0.0154 -0.9392
46401SOL    HW244142   8.777   4.992  11.367  0.1852  0.3039 -0.2216
46402SOL     OW44143   0.145   1.901   3.659  0.4764  0.4591 -0.1513
46402SOL    HW144144   0.118   1.812   3.637 -1.5892  1.2289 -1.0024
46402SOL    HW244145   0.201   1.928   3.586 -2.0396  1.1411 -1.9549
46403SOL     OW44146   2.745  10.344   2.094 -0.2870 -0.6566 -0.0786
46403SOL    HW144147   2.769  10.317   2.183 -1.0705  1.1787  0.7259
46403SOL    HW244148   2.769  10.436   2.090  0.0581 -0.7959 -1.9251
46404SOL     OW44149   6.149   4.205   0.908 -0.4995 -0.2764  0.2472
46404SOL    HW144150   6.059   4.237   0.916 -1.0404 -1.9574  1.4072
46404SOL    HW244151   6.142   4.110   0.916  1.3321 -0.4881 -0.2079
46405SOL     OW44152   3.226   1.773   3.146 -0.0312 -0.1427 -0.4916
46405SOL    HW144153   3.133   1.781   3.124 -0.1843  0.5165  0.3288
46405SOL    HW244154   3.266   1.735   3.068 -1.0302 -0.6864 -0.7605
46406SOL     OW44155  11.270   6.845   6.355  0.3395  0.6088 -0.5259
46406SOL    HW144156  11.351   6.895   6.344  0.7917 -0.2617 -1.3423
46406SOL    HW244157  11.246   6.859   6.446  0.6391  2.0107 -0.6253
46407SOL     OW44158   2.153   9.978   0.125  0.3487 -1.2549 -0.0163
46407SOL    HW144159   2.158   9.953   0.217  1.9078 -0.0830  0.2585
46407SOL    HW244160   2.245   9.982   0.097  0.1511  2.2763 -0.5127
46408SOL     OW44161   2.392   9.803   1.822 -0.2992  0.5619  0.4658
46408SOL    HW144162   2.349   9.742   1.882 -0.5392  1.0104  0.7568
46408SOL    HW244163   2.417   9.877   1.876 -0.0007  0.7256  0.1152
46409SOL     OW44164   5.772   2.640   7.470 -0.3914  0.1392 -0.5774
46409SOL    HW144165   5.782   2.734   7.481  0.1397  0.0063  0.1381
46409SOL    HW244166   5.753   2.628   7.377 -2.0473  1.0722 -0.3873
46410SOL     OW44167  10.686   4.854  10.525 -0.0052 -0.2537 -0.0800
46410SOL    HW144168  10.721   4.942  10.508 -2.4912  0.6303 -1.0974
46410SOL    HW244169  10.735   4.797  10.466  3.5433 -0.1579  2.4431
46411SOL     OW44170   1.513   5.497   7.058  0.3616 -0.1345  0.0696
46411SOL    HW144171   1.524   5.450   7.140  0.1099  1.2401  0.9338
46411SOL    HW244172   1.418   5.508   7.049  0.4457  2.5968  1.3853
46412SOL     OW44173   3.661   5.449   9.479  1.0286 -0.3394  0.1947
46412SOL    HW144174   3.709   5.523   9.444  0.6427 -0.1930 -0.0279
46412SOL    HW244175   3.570   5.479   9.484  0.8537 -0.8278  0.0030
46413SOL     OW44176   9.008   7.694   0.336 -0.7064  0.4101 -0.3515
46413SOL    HW144177   9.053   7.739   0.407 -0.2240 -1.4089  0.5550
46413SOL    HW244178   9.074   7.684   0.268  0.4420 -2.2919  0.9902
46414SOL     OW44179   9.405  11.334   6.936 -0.4416 -0.2127  0.3467
46414SOL    HW144180   9.358  11.387   6.871  1.0850  0.6447 -0.0989
46414SOL    HW244181   9.466  11.395   6.978 -0.3487 -1.0871  1.5597
46415SOL     OW44182  10.673   6.856   3.673 -0.0745  0.2814 -0.1536
46415SOL    HW144183  10.738   6.918   3.639  0.8656  0.1987  1.3464
46415SOL    HW244184  10.720   6.773   3.679  0.0842  0.4551  1.9531
46416SOL     OW44185   1.097   2.024   3.372 -0.2075  0.1792  0.1982
46416SOL    HW144186   1.178   2.065   3.402  0.1831 -0.8582  0.5815
46416SOL    HW244187   1.106   1.932   3.396 -1.9417  0.2277  1.2064
46417SOL     OW44188  10.909   6.324   0.015  0.2741  0.0243 -0.7669
46417SOL    HW144189  10.834   6.292  -0.035 -0.2572  0.2948 -0.1597
46417SOL    HW244190  10.878   6.406   0.054  0.6290 -0.2405  0.0902
46418SOL     OW44191   5.493   4.993  10.038  0.0479 -0.3295  0.0900
46418SOL    HW144192   5.406   4.983   9.998 -0.6465  2.0150  0.8376
46418SOL    HW244193   5.548   4.932   9.990 -1.5485 -0.3128 -1.9167
46419SOL     OW44194   5.511  10.376   6.612 -0.0549 -0.4827  0.4986
46419SOL    HW144195   5.592  10.363   6.662 -0.5317 -1.1781  1.1248
46419SOL    HW244196   5.534  10.353   6.522  0.3197 -1.2083  0.7674
46420SOL     OW44197   3.744   7.578   9.944  0.0342  0.3964 -0.3272
46420SOL    HW144198   3.825   7.623   9.920  1.2890 -0.5504  1.7936
46420SOL    HW244199   3.730   7.515   9.874  1.3986  0.2890 -0.5356
46421SOL     OW44200   1.123   9.662   7.693  0.0312  0.2811  0.0501
46421SOL    HW144201   1.092   9.703   7.612  2.5074  1.7307 -0.2613
46421SOL    HW244202   1.182   9.592   7.664  2.1461  1.7928  0.5169
46422SOL     OW44203   2.312   1.725   7.345  0.3107  0.0218 -0.9025
46422SOL    HW144204   2.382   1.732   7.280  0.4882 -2.5301 -1.1111
46422SOL    HW244205   2.331   1.644   7.392 -2.0613 -0.3602 -0.4621
46423SOL     OW44206   3.542   4.259   1.889 -0.2462 -0.1675  0.4368
46423SOL    HW144207   3.463   4.216   1.857  0.1986 -1.3425  0.8827
46423SOL    HW244208   3.596   4.272   1.811  0.6195 -2.5682  0.5690
46424SOL     OW44209   7.691  11.572   5.232  0.3463 -0.2621  0.5741
46424SOL    HW144210   7.605  11.615   5.228  0.5769  0.1046 -2.5234
46424SOL    HW244211   7.754  11.641   5.211  1.3664 -0.7396  1.8828
46425SOL     OW44212   2.541   6.661   9.538 -0.2790 -0.1787 -0.1264
46425SOL    HW144213   2.558   6.600   9.610 -0.3913  0.2623  0.2781
46425SOL    HW244214   2.501   6.608   9.470 -0.8286 -0.4633  0.4123
46426SOL     OW44215   5.562   2.177   9.361 -0.1873  0.3002 -0.1675
46426SOL    HW144216   5.574   2.134   9.276  0.0547  1.1567 -0.5835
46426SOL    HW244217   5.467   2.190   9.368 -0.0851  2.0668 -1.2854
46427SOL     OW44218  11.343   6.152   3.517 -0.1135 -0.2629 -0.0791
46427SOL    HW144219  11.273   6.217   3.511 -0.5965 -0.7186  0.5063
46427SOL    HW244220  11.328   6.107   3.600  0.1134 -1.2335 -0.5359
46428SOL     OW44221   7.925   6.671   3.145  0.2141  0.1145 -0.2580
46428SOL    HW144222   7.836   6.705   3.137 -0.1378 -0.4114  1.1152
46428SOL    HW244223   7.979   6.749   3.160  0.0623  0.4752 -1.4942
46429SOL     OW44224   5.233  10.942   7.969  0.7384 -0.8406 -0.3559
46429SOL    HW144225   5.325  10.925   7.948  1.2746  0.1132  1.1232
46429SOL    HW244226   5.221  10.908   8.057 -0.0827 -0.0982 -0.1657
46430SOL     OW44227   6.058   4.121   3.290 -0.6959 -0.4145 -0.4265
46430SOL    HW144228   6.117   4.107   3.217 -0.5119  2.9400 -1.1039
46430SOL    HW244229   5.972   4.093   3.259 -0.1593 -1.5547 -0.9009
46431SOL     OW44230   4.201   1.439   6.684  0.2744  0.0966  0.3438
46431SOL    HW144231   4.192   1.352   6.722  1.5560 -0.6743 -0.9882
46431SOL    HW244232   4.192   1.499   6.758 -0.3419 -1.1704  1.3372
46432SOL     OW44233   3.954   8.622   5.753 -0.2254 -0.1727  0.2130
46432SOL    HW144234   3.921   8.657   5.670 -0.4754 -1.1376 -0.1024
46432SOL    HW244235   3.956   8.527   5.740  0.3944 -0.2882  1.0712
46433SOL     OW44236  10.851  11.176   8.960 -0.2221  0.0008 -0.3844
46433SOL    HW144237  10.941  11.199   8.984  0.0605 -0.5801 -0.8360
46433SOL    HW244238  10.796  11.215   9.028  0.3144  1.0112 -0.5198
46434SOL     OW44239   5.101   4.001   8.392 -0.1413  0.0537 -0.5413
46434SOL    HW144240   5.195   4.014   8.405 -0.1329 -0.9595  0.6794
46434SOL    HW244241   5.093   3.972   8.301  0.8798 -1.0261 -0.3202
46435SOL     OW44242   2.325   0.830  10.307 -0.3296  0.5600 -0.6942
46435SOL    HW144243   2.377   0.806  10.231 -0.9440 -0.4897 -0.8017
46435SOL    HW244244   2.237   0.846  10.272 -0.2055  1.8877 -0.4554
46436SOL     OW44245   5.627   0.198   3.074  0.1336  0.0404  0.0993
46436SOL    HW144246   5.598   0.117   3.032 -1.7105 -0.2513  1.7411
46436SOL    HW244247   5.577   0.267   3.030  0.0976  0.0269  0.1184
46437SOL     OW44248  10.010   1.716   9.234 -0.4131 -0.3084  0.1356
46437SOL    HW144249   9.954   1.782   9.193  1.1057  0.0921 -1.3850
46437SOL    HW244250  10.083   1.765   9.271  0.0590 -1.0179  0.1646
46438SOL     OW44251   6.440   2.861  10.941 -0.0295 -0.0267 -0.9322
46438SOL    HW144252   6.461   2.884  10.851 -0.2259  2.6236 -0.3848
46438SOL    HW244253   6.512   2.896  10.993 -1.5492  1.6589  0.1945
46439SOL     OW44254   7.220   8.309   1.362  0.0806  0.1832 -0.6094
46439SOL    HW144255   7.135   8.291   1.402 -0.6850  0.4871 -1.9930
46439SOL    HW244256   7.206   8.289   1.269  1.7622 -0.5075 -0.7286
46440SOL     OW44257   8.649   3.481  11.325 -0.0120 -0.2433  0.0646
46440SOL    HW144258   8.724   3.444  11.372 -0.4127 -0.2208  0.7379
46440SOL    HW244259   8.666   3.461  11.233  0.7691 -0.3273  0.2194
46441SOL     OW44260   4.278   1.907   8.063 -0.7766 -0.1247 -0.3392
46441SOL    HW144261   4.195   1.863   8.079  0.0287 -1.5641  0.0315
46441SOL    HW244262   4.344   1.838   8.067  0.4967  1.0404 -0.2281
46442SOL     OW44263   7.499   6.444   0.975 -0.5352  0.1566  0.1277
46442SOL    HW144264   7.464   6.509   0.914 -0.6316 -0.5134 -0.5492
46442SOL    HW244265   7.442   6.450   1.051 -1.1620  0.1648 -0.3361
46443SOL     OW44266   4.109  10.813   2.374 -0.6527 -1.0908  0.7683
46443SOL    HW144267   4.131  10.880   2.439  0.3546 -0.7986  0.1514
46443SOL    HW244268   4.185  10.755   2.373 -0.4291 -0.8089 -0.4771
46444SOL     OW44269   4.687   2.827  10.507 -0.0633 -0.1267 -0.6991
46444SOL    HW144270   4.636   2.774  10.446 -0.7318  1.1119 -1.2514
46444SOL    HW244271   4.745   2.764  10.550  0.4281 -1.0362 -2.5818
46445SOL     OW44272   3.605   5.653   0.493 -0.0007 -0.3253  0.2557
46445SOL    HW144273   3.611   5.651   0.398  0.4918 -0.6524  0.2906
46445SOL    HW244274   3.535   5.591   0.513 -1.8476  1.5638 -0.0098
46446SOL     OW44275   3.707   9.794   9.927 -0.3295  0.1622 -0.0497
46446SOL    HW144276   3.641   9.862   9.939 -0.1740  0.3568 -0.2751
46446SOL    HW244277   3.788   9.842   9.908 -0.4712 -0.1005 -1.4729
46447SOL     OW44278   3.736   8.786   3.280  0.0251  0.6074  0.2070
46447SOL    HW144279   3.822   8.773   3.240 -0.7757 -0.1751 -1.3730
46447SOL    HW244280   3.702   8.698   3.293  0.6006  0.7450  3.6466
46448SOL     OW44281   9.478   3.797   9.908  0.4487  0.1492  0.5654
46448SOL    HW144282   9.501   3.830   9.821  0.2674  1.1903  0.9099
46448SOL    HW244283   9.471   3.702   9.895  1.7199  0.1438 -0.2533
46449SOL     OW44284   6.156   7.572   6.721  0.0635 -0.0690  0.6491
46449SOL    HW144285   6.163   7.568   6.626  2.1498 -0.3285  0.7633
46449SOL    HW244286   6.108   7.653   6.739  0.8591  0.7071 -0.5902
46450SOL     OW44287   6.852   6.831   9.161 -0.0471 -0.3514 -0.6876
46450SOL    HW144288   6.815   6.915   9.135 -1.4261 -0.6342  0.2617
46450SOL    HW244289   6.857   6.781   9.079 -2.0435 -0.3887 -0.8397
46451SOL     OW44290   8.969   6.884   9.205  0.1609  0.0324  0.1095
46451SOL    HW144291   8.923   6.893   9.122 -0.8955  1.6798  0.8099
46451SOL    HW244292   9.055   6.921   9.190  1.3046 -2.8879 -1.1638
46452SOL     OW44293   3.381   4.684   1.471  0.1938 -0.0948 -0.7870
46452SOL    HW144294   3.435   4.648   1.542  2.8949 -1.4427 -3.2806
46452SOL    HW244295   3.404   4.777   1.467  0.9421 -0.2664 -0.6121
46453SOL     OW44296   7.841   4.547   5.427 -0.1990  0.2769 -0.3423
46453SOL    HW144297   7.897   4.602   5.481 -0.8137  1.1543 -0.5783
46453SOL    HW244298   7.848   4.460   5.467  0.6454  0.5499  0.1418
46454SOL     OW44299  10.088   6.635  10.802  0.4067 -0.5930 -0.0913
46454SOL    HW144300  10.049   6.648  10.888  0.3457  1.8202 -0.4127
46454SOL    HW244301  10.118   6.544  10.802  0.4563 -0.6336  2.4865
46455SOL     OW44302   2.453   2.813   6.331 -0.2529 -0.3463  0.2788
46455SOL    HW144303   2.407   2.890   6.299 -0.7435 -1.0281 -0.7108
46455SOL    HW244304   2.505   2.783   6.256  1.9632  0.4912  1.4070
46456SOL     OW44305   7.948  10.148   3.176 -0.3348 -0.0020  0.2234
46456SOL    HW144306   7.882  10.187   3.118 -1.7396  0.0302  1.7549
46456SOL    HW244307   7.897  10.088   3.232  1.1720 -1.0335  0.5427
46457SOL     OW44308   8.484   4.233   9.522  0.4760 -0.1108  0.1276
46457SOL    HW144309   8.417   4.219   9.455  1.2031 -0.0180 -0.6326
46457SOL    HW244310   8.475   4.325   9.547  0.6498  0.0304 -0.3330
46458SOL     OW44311   2.983   7.256   1.349 -0.1610  0.3709  0.0159
46458SOL    HW144312   3.036   7.195   1.400  0.3538  0.4288 -0.4449
46458SOL    HW244313   2.977   7.217   1.262  3.3506  2.6708 -1.4863
46459SOL     OW44314   4.536   7.033   5.166  0.1200  0.6328 -0.4089
46459SOL    HW144315   4.512   7.000   5.252  3.9537  0.8705  0.9361
46459SOL    HW244316   4.565   7.123   5.182 -0.2444  1.1141 -2.2082
46460SOL     OW44317   4.976   5.462   8.467 -0.6524  0.4457  0.3402
46460SOL    HW144318   4.956   5.556   8.471  0.1191  0.5902  1.1120
46460SOL    HW244319   5.062   5.458   8.426 -0.1764  0.1686  1.3314
46461SOL     OW44320   5.691   0.221  10.729 -0.4565 -0.4945 -0.0086
46461SOL    HW144321   5.770   0.269  10.704 -1.8016  2.8997  1.5413
46461SOL    HW244322   5.723   0.135  10.757  2.5184  0.2920 -0.6100
46462SOL     OW44323   1.890   6.171   4.365  0.2284 -0.3586 -0.6011
46462SOL    HW144324   1.822   6.226   4.404  1.1319 -0.7117  1.6223
46462SOL    HW244325   1.901   6.206   4.277 -0.7619  1.6157 -0.0081
46463SOL     OW44326   4.500   4.712   5.836 -0.1534 -0.2184 -0.3557
46463SOL    HW144327   4.515   4.790   5.783 -1.8175  1.5992  1.6637
46463SOL    HW244328   4.572   4.713   5.900 -0.1613 -0.3763 -0.3444
46464SOL     OW44329  10.469  11.253   2.295  0.4966  0.9354 -0.4432
46464SOL    HW144330  10.440  11.319   2.359 -1.6162  0.5286 -0.9063
46464SOL    HW244331  10.388  11.216   2.261  1.6274 -0.9031 -1.2587
46465SOL     OW44332   0.115   7.393  10.825 -0.4092 -0.0774 -0.0650
46465SOL    HW144333   0.138   7.309  10.786 -0.3837 -0.5028  0.8184
46465SOL    HW244334   0.070   7.369  10.906 -0.5934  0.7621  0.0871
46466SOL     OW44335   0.475   1.797  11.031  0.2844  0.3582  0.4059
46466SOL    HW144336   0.428   1.845  11.100  1.3492  0.4335  1.1041
46466SOL    HW244337   0.499   1.864  10.967 -1.3747  0.1772 -0.4675
46467SOL     OW44338   8.072   3.976   6.637 -0.7884 -0.8766 -0.1303
46467SOL    HW144339   8.164   3.993   6.657 -1.3144  0.9798  0.9608
46467SOL    HW244340   8.052   3.894   6.682 -0.5636  0.5482  2.7802
46468SOL     OW44341   9.926   4.990   0.873 -0.2677 -0.0745  0.2866
46468SOL    HW144342   9.836   5.024   0.870 -0.4927 -0.3492  2.2900
46468SOL    HW244343   9.977   5.053   0.823 -1.1722  1.5698  1.3222
46469SOL     OW44344   1.044   7.410   5.468  0.4305 -0.4432 -0.3116
46469SOL    HW144345   1.028   7.495   5.510 -1.4715 -0.2781 -1.2720
46469SOL    HW244346   1.076   7.433   5.381  1.1353 -0.7462 -0.1385
46470SOL     OW44347   4.715   6.856   2.651 -0.2760 -0.3331  0.4287
46470SOL    HW144348   4.780   6.911   2.695 -0.5604  1.1477 -0.9334
46470SOL    HW244349   4.634   6.870   2.700 -0.6720  1.5745 -0.6825
46471SOL     OW44350  11.655   4.200   7.363  0.2862 -0.3706 -0.5865
46471SOL    HW144351  11.700   4.207   7.279 -0.4165 -1.4276 -1.0782
46471SOL    HW244352  11.712   4.145   7.416  0.0853 -0.8548 -0.8607
46472SOL     OW44353   7.697   1.594  10.790  0.7017  0.7301 -0.1724
46472SOL    HW144354   7.716   1.519  10.734 -0.9209  0.4291 -0.3556
46472SOL    HW244355   7.781   1.615  10.831  1.1113 -1.4913  0.2578
46473SOL     OW44356   2.938   5.105   1.853  0.7300 -0.1329 -0.2361
46473SOL    HW144357   2.998   5.146   1.916 -0.1248 -1.0879  1.2480
46473SOL    HW244358   2.953   5.153   1.772  0.3727  2.6125  1.1843
46474SOL     OW44359   3.161  11.564   7.709 -0.4892  0.2554 -0.0772
46474SOL    HW144360   3.173  11.502   7.781  0.1567 -0.9026 -1.1478
46474SOL    HW244361   3.199  11.646   7.741  0.4680 -0.4414  0.6280
46475SOL     OW44362   3.064   4.033   6.532  0.3746  0.3482  0.0030
46475SOL    HW144363   3.036   3.949   6.494  0.0279  0.5512 -0.2002
46475SOL    HW244364   2.986   4.088   6.528  0.9563  1.1552 -1.2075
46476SOL     OW44365   7.326   5.391   9.882  0.3166 -0.7896 -0.1727
46476SOL    HW144366   7.395   5.359   9.823  1.9439 -0.1521  1.2747
46476SOL    HW244367   7.246   5.353   9.848  0.8224  0.9844 -3.9023
46477SOL     OW44368   5.062   4.422   3.280  0.3269  0.2200 -0.1423
46477SOL    HW144369   5.003   4.355   3.313  0.2225  1.0388  1.4502
46477SOL    HW244370   5.022   4.505   3.307  1.6667  0.8321  0.0624
46478SOL     OW44371   7.727   9.451   8.039  0.0341  0.2879 -0.1517
46478SOL    HW144372   7.665   9.509   8.083  1.2893  1.0033  0.7228
46478SOL    HW244373   7.811   9.496   8.045  1.3658 -2.1863  1.7691
46479SOL     OW44374   9.971   2.335   8.454 -0.4967 -0.1493 -0.0365
46479SOL    HW144375  10.010   2.407   8.405 -0.6466  1.0969  1.5907
46479SOL    HW244376  10.045   2.283   8.485 -0.2164  0.9398  1.1674
46480SOL     OW44377   8.190  11.363   8.277 -0.0260 -0.1523 -0.0626
46480SOL    HW144378   8.125  11.431   8.296 -2.8444 -2.5375 -0.4116
46480SOL    HW244379   8.218  11.331   8.363  0.1923  0.4367  0.0878
46481SOL     OW44380   9.932   4.739  10.824 -0.2428 -0.0791 -0.5829
46481SOL    HW144381   9.971   4.654  10.803  0.3596  0.1856 -0.5525
46481SOL    HW244382   9.870   4.720  10.895 -1.2457 -0.7374 -1.5997
46482SOL     OW44383   0.503  10.162  10.026  0.1084 -0.0314 -0.1335
46482SOL    HW144384   0.537  10.080   9.988 -0.5161 -0.4138  0.1173
46482SOL    HW244385   0.414  10.169   9.993  0.3253  0.8186 -0.5574
46483SOL     OW44386   5.532   2.245  10.198 -0.2020  0.1765 -0.2658
46483SOL    HW144387   5.600   2.182  10.221  0.5357  1.6965  2.1806
46483SOL    HW244388   5.472   2.197  10.141  1.6650 -1.9075 -0.5968
46484SOL     OW44389  10.095   1.281   9.660 -0.5101 -0.1922  0.2306
46484SOL    HW144390  10.125   1.206   9.711  1.1187  1.1198  1.3214
46484SOL    HW244391  10.170   1.341   9.661 -1.8033  1.4912 -0.4932
46485SOL     OW44392   6.160   7.281   7.634  0.1535 -0.5159  0.0229
46485SOL    HW144393   6.213   7.262   7.712 -0.6941 -2.5126  0.1833
46485SOL    HW244394   6.205   7.236   7.563  0.0809 -0.0143 -0.3415
46486SOL     OW44395   5.718   1.391  11.599 -0.1988 -0.3931 -0.1102
46486SOL    HW144396   5.707   1.408  11.505 -0.3268 -0.1862 -0.0587
46486SOL    HW244397   5.799   1.340  11.605 -1.5472 -2.7388 -0.5769
46487SOL     OW44398   0.039   0.487   1.168  0.2042 -0.6732 -0.3544
46487SOL    HW144399   0.029   0.392   1.162 -1.5257 -0.5698  0.3328
46487SOL    HW244400   0.061   0.514   1.079  0.2465 -1.6534 -0.6571
46488SOL     OW44401   6.122  11.203   7.881  0.0090  0.1848  0.0272
46488SOL    HW144402   6.186  11.226   7.949  0.5322 -1.6915  0.2321
46488SOL    HW244403   6.170  11.216   7.799 -0.0371  0.7494  0.0852
46489SOL     OW44404   1.128   5.086   3.899 -0.2166  0.1041 -0.6466
46489SOL    HW144405   1.112   5.180   3.885  0.5086  0.3860  0.2839
46489SOL    HW244406   1.211   5.069   3.855  0.6677  0.3753  0.8480
46490SOL     OW44407   9.464   8.502   5.677 -0.6470  0.4437 -0.5284
46490SOL    HW144408   9.451   8.541   5.590 -2.4827  1.2044  0.0526
46490SOL    HW244409   9.378   8.467   5.701  0.0589 -0.5941  0.6127
46491SOL     OW44410   6.682   2.410  11.496  0.3745 -0.5615  0.2761
46491SOL    HW144411   6.661   2.421  11.588  1.3698 -1.1051  0.5816
46491SOL    HW244412   6.697   2.498  11.464  1.6807 -0.4754  1.0566
46492SOL     OW44413   6.384   1.254  10.013 -0.4310  0.0729 -0.3451
46492SOL    HW144414   6.435   1.329  10.045  3.6070 -2.6544  0.4509
46492SOL    HW244415   6.344   1.217  10.092 -2.4834  1.3260 -0.7471
46493SOL     OW44416   9.772   3.345   8.593  0.0862 -0.1531  0.0520
46493SOL    HW144417   9.813   3.358   8.678  1.3590 -2.3157 -0.1734
46493SOL    HW244418   9.839   3.373   8.530 -0.8725  1.5081 -0.3020
46494SOL     OW44419   7.071   4.679  11.233 -0.1357  0.0567 -0.8444
46494SOL    HW144420   7.074   4.771  11.262 -2.3968  0.1291 -0.6333
46494SOL    HW244421   6.977   4.660  11.227  0.1501 -3.1706  2.0274
46495SOL     OW44422   9.064   5.197   3.125  0.5526  0.2191 -0.0619
46495SOL    HW144423   9.071   5.103   3.145  1.4887  0.0725 -0.9946
46495SOL    HW244424   9.153   5.230   3.132 -0.0598  1.5685  2.5232
46496SOL     OW44425  10.762   0.370  11.045  0.9439 -1.0411  0.3015
46496SOL    HW144426  10.853   0.384  11.019  0.2792 -0.2218 -1.7671
46496SOL    HW244427  10.711   0.391  10.967 -1.1304 -0.0349  1.8156
46497SOL     OW44428   5.646   2.611   2.061 -0.4235  0.4215  0.0445
46497SOL    HW144429   5.621   2.686   2.007  1.6329  1.7610  0.8193
46497SOL    HW244430   5.658   2.648   2.149 -0.2831 -1.0148  0.6589
46498SOL     OW44431   4.823   1.892   7.559  0.0414 -0.1772  0.0546
46498SOL    HW144432   4.792   1.948   7.488 -0.1232  0.9632  1.0102
46498SOL    HW244433   4.758   1.821   7.563 -0.9530  0.7245  0.2490
46499SOL     OW44434   9.084   8.439  11.355  0.3961 -0.3535 -0.4873
46499SOL    HW144435   9.032   8.362  11.380  0.7799 -1.0333 -1.7207
46499SOL    HW244436   9.158   8.439  11.415  0.2934 -0.8416 -0.3573
46500SOL     OW44437   4.715   3.063   7.205  0.1853  0.4272 -0.0515
46500SOL    HW144438   4.780   2.999   7.233 -2.1394 -1.7782  0.7394
46500SOL    HW244439   4.725   3.067   7.109  1.4854  0.2154  0.0552
46501SOL     OW44440  10.857   9.448   1.099 -0.6197  0.9530 -0.2371
46501SOL    HW144441  10.809   9.493   1.169 -0.7123 -0.1597  0.4464
46501SOL    HW244442  10.949   9.465   1.117 -0.5756 -0.2515  0.8591
46502SOL     OW44443  11.053   4.688   3.360 -0.0441  0.0322  0.1413
46502SOL    HW144444  11.045   4.646   3.445  3.2505 -1.5165 -0.1336
46502SOL    HW244445  11.037   4.618   3.297 -0.4506  0.6799 -0.4867
46503SOL     OW44446   8.316   6.059   3.329 -0.0797  0.5549  0.0874
46503SOL    HW144447   8.244   6.026   3.274  1.3342  0.4077 -1.7795
46503SOL    HW244448   8.349   6.135   3.281  0.5162  1.0958  1.3290
46504SOL     OW44449   7.799   1.025   2.657  0.2310  0.5459  0.3670
46504SOL    HW144450   7.705   1.011   2.666  0.3012  0.7588  1.7704
46504SOL    HW244451   7.838   0.940   2.676  0.3326  0.6212  0.5087
46505SOL     OW44452   1.171   6.491   8.279 -0.0017  0.2087  0.8708
46505SOL    HW144453   1.226   6.421   8.244  0.1549 -0.2838  2.0777
46505SOL    HW244454   1.231   6.564   8.292 -0.2473  0.7737 -0.8318
46506SOL     OW44455  10.462   2.914  10.125  0.1758 -0.1355  0.0367
46506SOL    HW144456  10.395   2.919  10.057  1.9901 -1.3068 -1.9429
46506SOL    HW244457  10.461   3.000  10.167 -2.5813 -0.1580  0.1665
46507SOL     OW44458   9.406   5.534   1.540  0.0567  0.3147  0.3953
46507SOL    HW144459   9.412   5.447   1.501 -1.4277 -0.2689  1.3637
46507SOL    HW244460   9.320   5.566   1.515  1.0111  2.0308 -0.8978
46508SOL     OW44461   9.908   3.150   5.725 -0.0175  0.6917  0.1683
46508SOL    HW144462   9.991   3.135   5.770  0.5030  0.7502 -0.7443
46508SOL    HW244463   9.858   3.069   5.739 -0.2688  1.0733  1.6549
46509SOL     OW44464   4.982   5.267   8.691  0.6972 -0.5460  0.1103
46509SOL    HW144465   4.977   5.341   8.751  0.1057 -0.0172 -0.5719
46509SOL    HW244466   4.980   5.307   8.604 -0.8047 -1.4099 -0.2848
46510SOL     OW44467   7.194   6.090   0.581 -0.2677  0.3261  0.0820
46510SOL    HW144468   7.137   6.156   0.621 -2.3087 -0.3553 -1.5107
46510SOL    HW244469   7.148   6.007   0.595 -0.4962 -0.0764 -2.5076
46511SOL     OW44470   6.234   5.372   0.371  0.0116 -0.0651  0.7976
46511SOL    HW144471   6.280   5.288   0.377 -0.0268 -0.0321  1.7023
46511SOL    HW244472   6.203   5.376   0.281 -0.9389 -1.5306  1.0269
46512SOL     OW44473   7.749   5.232   9.389  0.3497  0.7626 -0.3471
46512SOL    HW144474   7.822   5.196   9.340 -0.4414 -0.1587 -0.8970
46512SOL    HW244475   7.676   5.172   9.371 -0.0127  0.4528  1.8550
46513SOL     OW44476   4.162   9.692   7.942 -0.1737 -0.0797  0.6787
46513SOL    HW144477   4.092   9.685   7.877 -1.1604  2.9432  1.2589
46513SOL    HW244478   4.118   9.684   8.026  0.3415  0.7265  1.0331
46514SOL     OW44479   1.424   5.027   9.385  0.5721  0.1501  0.1451
46514SOL    HW144480   1.446   4.934   9.382  0.2476  0.0363  0.8927
46514SOL    HW244481   1.362   5.034   9.458  0.0565  0.8397 -0.3427
46515SOL     OW44482   5.700   5.904   9.767 -0.1751 -0.0157 -0.5074
46515SOL    HW144483   5.796   5.910   9.767 -0.2012  1.3249 -2.6088
46515SOL    HW244484   5.675   5.912   9.675 -2.3954  1.4176  0.1486
46516SOL     OW44485   4.587   8.298   0.035  0.4247  0.3799  0.3528
46516SOL    HW144486   4.587   8.308  -0.060  2.6444  0.1330  0.2940
46516SOL    HW244487   4.666   8.248   0.055  0.7076  1.5263  2.4204
46517SOL     OW44488   2.228   0.985   9.653 -0.5690 -0.2488  0.2948
46517SOL    HW144489   2.302   0.943   9.696  0.3464 -0.1399 -1.1387
46517SOL    HW244490   2.202   0.925   9.584 -0.8202  0.4102 -0.2041
46518SOL     OW44491   3.676   3.524   0.064 -0.0817  0.3360 -0.5553
46518SOL    HW144492   3.710   3.484  -0.015  2.0721  1.7579 -0.4392
46518SOL    HW244493   3.640   3.452   0.115 -1.6070 -0.5900 -2.8246
46519SOL     OW44494   5.932   1.686   9.438  0.6516  0.0477  0.0630
46519SOL    HW144495   5.898   1.628   9.370  0.8511  1.3950 -1.2586
46519SOL    HW244496   6.023   1.658   9.451  0.9890  0.5159 -1.1285
46520SOL     OW44497   7.911   6.143   0.821  0.1756  0.1865 -0.2055
46520SOL    HW144498   7.939   6.064   0.867 -0.7701 -0.1422 -0.1666
46520SOL    HW244499   7.880   6.201   0.890  2.2942  1.2518 -0.0648
46521SOL     OW44500   8.805   1.388   9.337 -0.3510 -0.0636  0.2391
46521SOL    HW144501   8.784   1.408   9.246 -0.9025  0.7236  0.5265
46521SOL    HW244502   8.733   1.428   9.387 -0.3455 -0.9579  0.9807
46522SOL     OW44503   7.955   6.021  11.347  0.2011  0.5394  0.0859
46522SOL    HW144504   8.038   6.012  11.393  2.1133 -0.6511 -3.2148
46522SOL    HW244505   7.941   6.115  11.339  2.2909  0.8178 -0.8800
46523SOL     OW44506   3.503   5.294   5.609 -0.1503  0.1372 -0.1413
46523SOL    HW144507   3.515   5.294   5.514  2.0618  1.2648  0.0871
46523SOL    HW244508   3.438   5.226   5.625 -1.0815  0.3911 -2.5131
46524SOL     OW44509   9.730   9.248   9.656  0.3097 -0.3627  0.1544
46524SOL    HW144510   9.702   9.269   9.567  1.5750  0.2394 -0.1153
46524SOL    HW244511   9.648   9.238   9.704 -0.4332 -1.6276 -1.2637
46525SOL     OW44512   6.265   3.406   4.014 -0.0530  0.0170 -0.3324
46525SOL    HW144513   6.359   3.399   4.031 -0.1482 -2.2558 -0.4368
46525SOL    HW244514   6.257   3.478   3.951  1.8129 -0.9029 -1.7077
46526SOL     OW44515   8.640   8.935   5.254  0.0598 -0.2672  0.2998
46526SOL    HW144516   8.624   9.000   5.185  0.5281 -1.1039 -0.6146
46526SOL    HW244517   8.558   8.931   5.303 -0.3161  0.2422 -0.2773
46527SOL     OW44518   9.400  10.794   2.935 -0.0591  0.1665  0.3018
46527SOL    HW144519   9.321  10.777   2.988 -1.7155  1.0700 -1.7247
46527SOL    HW244520   9.412  10.889   2.941 -0.3993  0.3160 -1.0269
46528SOL     OW44521   0.998   1.052   0.224 -0.5901 -0.5567  0.5483
46528SOL    HW144522   1.073   1.016   0.270 -1.4105 -2.3008  0.5921
46528SOL    HW244523   1.006   1.018   0.135 -0.2054  0.9969 -0.0399
46529SOL     OW44524   5.190   6.162   1.002  0.3226  0.1982  0.2786
46529SOL    HW144525   5.247   6.192   1.073  0.0626 -0.2405  0.6812
46529SOL    HW244526   5.210   6.220   0.929  2.0482 -0.5927  0.0687
46530SOL     OW44527   6.718   4.495   4.722 -0.0213 -0.4282  0.2040
46530SOL    HW144528   6.679   4.512   4.636  0.2823  0.4729  0.2341
46530SOL    HW244529   6.646   4.505   4.783  0.3830  2.3550  0.3759
46531SOL     OW44530   8.390   8.047  11.432 -0.4313  0.3126 -0.9610
46531SOL    HW144531   8.403   8.142  11.425 -0.0832  0.2460 -1.2512
46531SOL    HW244532   8.309   8.038  11.483 -0.3385  0.7614 -0.7271
46532SOL     OW44533   3.280   1.315  10.446 -0.4517 -0.0164 -0.0981
46532SOL    HW144534   3.215   1.251  10.477 -0.3681  0.6062  1.4649
46532SOL    HW244535   3.260   1.395  10.495  0.2684  0.7645 -1.0522
46533SOL     OW44536   9.252   5.251   0.701 -0.4935  0.0828 -0.4930
46533SOL    HW144537   9.205   5.241   0.618  0.2209 -0.2818 -0.8603
46533SOL    HW244538   9.223   5.336   0.734 -1.4255 -0.1397 -0.6934
46534SOL     OW44539   0.607  10.189   4.801  0.2674  0.5883  0.4538
46534SOL    HW144540   0.702  10.187   4.787  0.4135 -0.2436  1.4252
46534SOL    HW244541   0.570  10.165   4.717  0.8108  3.0744 -0.6003
46535SOL     OW44542   4.184   1.592   0.395  0.3879  0.3895 -0.5914
46535SOL    HW144543   4.107   1.605   0.451  2.3324 -0.8082  2.6672
46535SOL    HW244544   4.149   1.583   0.307 -2.9237  2.6474  0.3041
46536SOL     OW44545   2.198   1.034   3.918  0.0995 -0.0018  0.2815
46536SOL    HW144546   2.220   1.080   3.836  0.6761  1.0615  1.0089
46536SOL    HW244547   2.102   1.032   3.918  0.0560 -2.1653 -1.5496
46537SOL     OW44548   3.651   2.372   8.937 -0.4388 -0.1045  0.7706
46537SOL    HW144549   3.675   2.421   9.016  1.5711 -0.8704  0.7009
46537SOL    HW244550   3.709   2.406   8.869 -3.0977  1.5619 -0.8432
46538SOL     OW44551   4.278   7.283   8.306  0.8760  0.3367  0.3622
46538SOL    HW144552   4.329   7.364   8.306  1.9608 -0.3285  0.2184
46538SOL    HW244553   4.214   7.295   8.377  1.2622  1.1704  0.5839
46539SOL     OW44554   9.369  10.174   5.152 -0.2016 -0.2351 -0.7969
46539SOL    HW144555   9.279  10.143   5.146 -0.3338 -0.4779  1.3886
46539SOL    HW244556   9.362  10.269   5.140 -1.1027  0.0325  1.3875
46540SOL     OW44557   2.087  10.403   7.595  0.3487 -0.2603 -0.9032
46540SOL    HW144558   2.022  10.333   7.603  0.4094 -0.0989  1.6410
46540SOL    HW244559   2.166  10.367   7.635  0.7661  0.8163 -0.7275
46541SOL     OW44560   3.553   8.005   9.146  0.1116  0.4083  0.1909
46541SOL    HW144561   3.470   8.033   9.186 -0.3355  0.5310 -0.7829
46541SOL    HW244562   3.593   8.087   9.116  0.2911  0.2936  0.1176
46542SOL     OW44563   4.596   4.140   0.567 -0.3460 -0.7685  0.4770
46542SOL    HW144564   4.564   4.218   0.613 -1.4878 -1.4230  0.8196
46542SOL    HW244565   4.677   4.117   0.612  0.1958  0.4125  0.1502
46543SOL     OW44566  11.552   9.671   2.161  0.3855  0.1308  0.2338
46543SOL    HW144567  11.540   9.577   2.150  2.2586 -0.1481  0.2915
46543SOL    HW244568  11.621   9.695   2.099 -1.0875  1.7909 -0.8953
46544SOL     OW44569  11.633   9.650   8.594 -0.0665 -0.6325  0.4029
46544SOL    HW144570  11.569   9.599   8.644 -0.5551  0.0545  0.5005
46544SOL    HW244571  11.659   9.721   8.652 -0.1595 -0.1911 -0.0824
46545SOL     OW44572   2.927   1.306  10.685  0.2727 -0.6271  0.6331
46545SOL    HW144573   2.937   1.390  10.641  1.3221  0.0090  1.9982
46545SOL    HW244574   2.836   1.304  10.712  0.6337  0.9675  2.2016
46546SOL     OW44575   6.644   4.554   4.425  0.4971  0.2939  0.4386
46546SOL    HW144576   6.715   4.491   4.409  1.0910  0.6267  1.6117
46546SOL    HW244577   6.564   4.502   4.414  0.7187  0.5005 -3.5222
46547SOL     OW44578   4.907  10.229   3.066 -0.1472  0.1909 -0.2938
46547SOL    HW144579   4.989  10.189   3.038  1.9669  2.9014  1.5455
46547SOL    HW244580   4.857  10.242   2.985  2.4526  1.0090 -1.8575
46548SOL     OW44581   3.438   0.639   5.875 -0.1059 -0.1324  0.0377
46548SOL    HW144582   3.498   0.690   5.821  0.4526 -2.3342 -1.5928
46548SOL    HW244583   3.471   0.650   5.964  1.8471 -0.0477 -0.6376
46549SOL     OW44584   0.444  10.604   9.117 -0.0881 -0.6935  0.3174
46549SOL    HW144585   0.537  10.603   9.138  0.3133  1.2776 -1.1025
46549SOL    HW244586   0.403  10.554   9.188  1.9909 -1.3588  1.1286
46550SOL     OW44587  10.861   3.176   7.204  0.2053  0.0294  0.1473
46550SOL    HW144588  10.884   3.216   7.120 -0.0516 -0.0301  0.0487
46550SOL    HW244589  10.869   3.247   7.268 -2.5969  0.9123 -0.3471
46551SOL     OW44590  10.801   0.971   1.361  0.0709  0.1081  0.2852
46551SOL    HW144591  10.860   0.992   1.434  1.0303 -1.2812 -0.0440
46551SOL    HW244592  10.714   0.971   1.400  0.4350  0.7317  1.1270
46552SOL     OW44593   4.226   2.784   0.214 -0.2354  0.2049  0.3911
46552SOL    HW144594   4.142   2.812   0.180 -0.4679 -1.2605 -0.3365
46552SOL    HW244595   4.282   2.861   0.209  0.0391 -0.0549 -4.2170
46553SOL     OW44596   6.176   5.581   8.114  0.3143 -0.0186  0.3065
46553SOL    HW144597   6.130   5.662   8.135  1.2964  1.0514 -1.3793
46553SOL    HW244598   6.237   5.567   8.186 -0.2637  0.4091  0.8848
46554SOL     OW44599   8.454  11.312   2.560 -0.8379 -0.8139  0.4274
46554SOL    HW144600   8.491  11.375   2.622 -0.6294 -1.0490  0.5451
46554SOL    HW244601   8.361  11.331   2.559 -0.5725  0.6322 -0.8274
46555SOL     OW44602   7.594   4.445   5.608  0.3320  0.2503  0.0774
46555SOL    HW144603   7.592   4.356   5.574  1.3990  0.5570 -0.8498
46555SOL    HW244604   7.535   4.495   5.551  0.3891  0.3082  0.0682
46556SOL     OW44605   0.498   9.411   3.211  0.1395 -0.2956 -0.0656
46556SOL    HW144606   0.525   9.414   3.119  1.9981 -1.4507  0.3702
46556SOL    HW244607   0.439   9.336   3.215 -0.0041 -0.1995 -0.3274
46557SOL     OW44608   3.798   0.262   1.272 -0.2275 -0.8087  0.1036
46557SOL    HW144609   3.818   0.339   1.325  1.3222 -0.9925 -0.1645
46557SOL    HW244610   3.883   0.221   1.256 -0.8182 -1.5666 -1.2931
46558SOL     OW44611   9.478   3.907   6.209 -0.3359  0.4667  0.0143
46558SOL    HW144612   9.519   3.991   6.228 -1.3687  1.4343 -1.6929
46558SOL    HW244613   9.530   3.871   6.137  1.3242 -1.3891  2.0005
46559SOL     OW44614   5.303  10.152   7.695  0.3824 -0.2735  0.0002
46559SOL    HW144615   5.317  10.072   7.746  1.5019  0.3979  0.7915
46559SOL    HW244616   5.211  10.147   7.667  0.3845 -1.7394  0.1748
46560SOL     OW44617   4.039   4.793   6.982 -0.1826 -0.1951  0.0373
46560SOL    HW144618   4.067   4.847   7.056 -0.2736  0.1154 -0.1511
46560SOL    HW244619   3.994   4.855   6.924 -0.6465 -0.5562  0.0128
46561SOL     OW44620   4.819   9.667   1.675  0.8127 -0.1848 -0.1846
46561SOL    HW144621   4.778   9.593   1.720  0.7961  0.9140  1.6901
46561SOL    HW244622   4.891   9.628   1.626  0.8315 -1.4444  0.7872
46562SOL     OW44623   6.177   1.627   1.000 -1.0524 -0.2544 -0.2553
46562SOL    HW144624   6.181   1.626   0.905 -1.1418 -0.0735 -0.2621
46562SOL    HW244625   6.086   1.648   1.020 -1.3428 -1.6035 -0.1215
46563SOL     OW44626   1.271   5.214   0.091 -0.2278  0.1446 -0.3820
46563SOL    HW144627   1.283   5.264   0.172 -0.0467 -1.0006  0.3156
46563SOL    HW244628   1.192   5.250   0.052 -1.0443 -0.1406  0.9514
46564SOL     OW44629   2.963   2.141   5.616  0.6535  0.9586  0.6211
46564SOL    HW144630   3.020   2.105   5.548 -0.0459  1.1276 -0.0637
46564SOL    HW244631   2.907   2.204   5.570 -0.8292  0.0141  1.0636
46565SOL     OW44632   0.014   9.902   9.294 -0.2503 -0.1595 -0.1402
46565SOL    HW144633  -0.065   9.954   9.306  0.4782  0.7747  0.7013
46565SOL    HW244634   0.001   9.825   9.350 -0.1251  0.4967  0.7999
46566SOL     OW44635   6.409  11.013   5.185 -0.2418  0.4935  0.1499
46566SOL    HW144636   6.417  10.926   5.224 -0.4101  0.0437 -0.7936
46566SOL    HW244637   6.492  11.056   5.206  0.9210 -0.7940 -1.5081
46567SOL     OW44638   3.260   0.373  10.002  0.5291  0.2238 -0.2679
46567SOL    HW144639   3.304   0.298  10.041 -1.0486 -1.1904 -1.0732
46567SOL    HW244640   3.174   0.340   9.976 -1.7291  3.1695  2.6006
46568SOL     OW44641   1.256   1.141   5.331  0.5144 -0.1121  0.8463
46568SOL    HW144642   1.292   1.055   5.310  0.7247  0.4221 -1.1745
46568SOL    HW244643   1.302   1.201   5.273 -1.6255  0.9892  0.1775
46569SOL     OW44644   1.618   1.017   6.316  0.0586  0.3029  0.0851
46569SOL    HW144645   1.544   1.059   6.361 -0.3860  2.0730 -2.1127
46569SOL    HW244646   1.579   0.942   6.271  0.3145 -0.8524  1.7104
46570SOL     OW44647   5.489   1.183   6.996  0.3687  0.9351 -0.2059
46570SOL    HW144648   5.514   1.201   7.087  1.3819  0.7657 -0.4428
46570SOL    HW244649   5.425   1.252   6.975  0.1049  0.9621  0.6342
46571SOL     OW44650   1.648   9.338   0.480 -0.1128 -0.5311  0.3769
46571SOL    HW144651   1.594   9.286   0.540 -0.7584 -0.4275 -0.1045
46571SOL    HW244652   1.695   9.399   0.537 -1.1730 -0.0274  0.7385
46572SOL     OW44653   8.136   1.415   0.153  0.0149  0.6528 -0.2770
46572SOL    HW144654   8.084   1.356   0.099 -0.8753  0.2943  0.9434
46572SOL    HW244655   8.204   1.359   0.191 -0.3887  0.5614  0.3098
46573SOL     OW44656   2.011   3.424  10.610 -0.2026 -0.4910  0.2012
46573SOL    HW144657   1.936   3.444  10.553 -1.0627  0.1565  1.5153
46573SOL    HW244658   2.061   3.359  10.561 -1.4900 -0.7520 -0.8292
46574SOL     OW44659   1.621   4.558   9.778  0.1053 -0.0511 -0.2451
46574SOL    HW144660   1.681   4.617   9.733 -1.4534  1.2653 -0.7439
46574SOL    HW244661   1.675   4.510   9.841  1.9587 -0.3499 -1.9957
46575SOL     OW44662   6.394   6.823   2.659  0.7117  0.1853  0.0771
46575SOL    HW144663   6.386   6.735   2.696  0.9425  0.7065  1.4398
46575SOL    HW244664   6.465   6.816   2.595  1.4014 -0.4069  0.8850
46576SOL     OW44665   1.315  10.364   1.624  0.2621 -0.4204  0.0358
46576SOL    HW144666   1.221  10.369   1.638  0.0406 -2.3730 -0.4072
46576SOL    HW244667   1.352  10.343   1.710  0.3258  0.4286  0.2268
46577SOL     OW44668   2.105  10.713   9.164 -0.1614 -0.0398 -0.2636
46577SOL    HW144669   2.169  10.668   9.110 -0.5012 -3.5133  1.8651
46577SOL    HW244670   2.154  10.744   9.240 -0.5614 -0.6780  0.2795
46578SOL     OW44671   4.648  10.131   9.888  0.5112 -0.0654 -0.7240
46578SOL    HW144672   4.720  10.116   9.949 -0.8521  0.5290  1.1181
46578SOL    HW244673   4.649  10.055   9.830  0.8687 -1.5025  1.0652
46579SOL     OW44674   2.638   8.247   0.365 -0.1118 -0.1778  0.1064
46579SOL    HW144675   2.712   8.194   0.336  0.6025  0.5569  0.5443
46579SOL    HW244676   2.565   8.185   0.369  0.7878 -1.2272  1.0156
46580SOL     OW44677   8.432   4.204   3.969  0.1924  0.5027  0.4626
46580SOL    HW144678   8.350   4.247   3.944 -0.2656 -1.0842 -0.9959
46580SOL    HW244679   8.413   4.161   4.052 -0.8730 -0.8334 -0.4361
46581SOL     OW44680   5.591   7.447   1.583  0.5290 -0.0363  0.1999
46581SOL    HW144681   5.647   7.402   1.646 -0.3380 -1.5720 -0.0679
46581SOL    HW244682   5.610   7.540   1.595  3.0967 -0.5009  0.0944
46582SOL     OW44683  10.387   8.169  10.108 -0.0242 -0.2424 -0.1021
46582SOL    HW144684  10.376   8.208  10.022 -0.2146  0.1736  0.1112
46582SOL    HW244685  10.448   8.097  10.094 -1.9500 -1.7854 -1.0700
46583SOL     OW44686   4.965   4.905   7.673 -0.3645  0.8502  0.2871
46583SOL    HW144687   4.932   4.993   7.691  0.1215  0.9464  0.7520
46583SOL    HW244688   5.058   4.908   7.698 -0.8037 -0.3392  2.3104
46584SOL     OW44689   9.121   3.427   0.843 -0.3735 -0.0319  0.9996
46584SOL    HW144690   9.129   3.339   0.806 -3.9717 -0.8679  1.8833
46584SOL    HW244691   9.113   3.484   0.766  2.2881 -0.2897  0.4118
46585SOL     OW44692   0.524   8.102   4.446  0.4872  0.1380  0.0857
46585SOL    HW144693   0.518   8.024   4.391 -0.3788  1.0564 -1.1769
46585SOL    HW244694   0.615   8.132   4.434  0.6090 -0.2559 -0.0043
46586SOL     OW44695   6.944  10.914   2.401 -0.4318 -0.3806 -0.3160
46586SOL    HW144696   6.854  10.910   2.433 -0.6738 -0.2644 -0.9628
46586SOL    HW244697   6.958  11.006   2.381  1.4564  0.5621  4.2560
46587SOL     OW44698   2.038   4.222   7.108  1.0378  0.6754 -0.3045
46587SOL    HW144699   1.988   4.248   7.186  1.1647  2.6584 -0.8332
46587SOL    HW244700   2.018   4.129   7.097  0.2954  0.5681  1.5584
46588SOL     OW44701   2.431   8.786   4.872  0.0961  0.4832 -0.0961
46588SOL    HW144702   2.464   8.724   4.936  0.0382  1.7785  1.2431
46588SOL    HW244703   2.352   8.823   4.913 -0.2399  0.9606 -1.1371
46589SOL     OW44704   8.271   9.893   6.761 -0.7441  0.3672  0.0317
46589SOL    HW144705   8.192   9.942   6.782 -1.1142 -0.7229  1.2915
46589SOL    HW244706   8.299   9.856   6.845  3.0499  3.4688  0.4327
46590SOL     OW44707   7.586   8.007  10.221  0.2038  0.3105  0.3578
46590SOL    HW144708   7.518   7.946  10.248 -1.8524  0.7512 -3.2177
46590SOL    HW244709   7.654   7.952  10.183  0.7542  0.0223  1.7042
46591SOL     OW44710   9.462   0.505   9.551  0.5915  0.4250  0.0100
46591SOL    HW144711   9.403   0.468   9.487  0.9459 -0.2873  0.0844
46591SOL    HW244712   9.547   0.509   9.506  0.5604  1.1799 -0.0065
46592SOL     OW44713   4.593   6.378  10.903 -0.2666  0.2642  0.2185
46592SOL    HW144714   4.593   6.364  10.997 -0.4803 -0.7096  0.0853
46592SOL    HW244715   4.621   6.294  10.866  0.8644  0.9519 -0.5414
46593SOL     OW44716   0.135  10.451  10.270  0.0526 -0.1361  0.1582
46593SOL    HW144717   0.230  10.457  10.265 -0.0107  0.3235 -0.7217
46593SOL    HW244718   0.114  10.362  10.243  0.2152 -0.1110 -0.0522
46594SOL     OW44719   3.159   8.857   7.837  0.2050  0.5113 -1.1708
46594SOL    HW144720   3.195   8.918   7.773 -0.7186  1.4850 -0.7869
46594SOL    HW244721   3.206   8.878   7.918  0.0026  0.6061 -1.0770
46595SOL     OW44722   7.965   0.674   3.335 -0.9834 -0.6094  0.3622
46595SOL    HW144723   8.009   0.722   3.405 -0.8769  0.0571 -0.1538
46595SOL    HW244724   7.878   0.713   3.330 -0.2422  0.9250 -1.3895
46596SOL     OW44725   1.401   3.094   6.606 -0.2294 -0.4483  0.2009
46596SOL    HW144726   1.379   3.071   6.697 -0.1890  1.2740  0.6837
46596SOL    HW244727   1.317   3.106   6.563 -0.2570  0.6565  0.5478
46597SOL     OW44728   3.188  11.587   9.087 -0.2217 -0.0365 -0.0341
46597SOL    HW144729   3.228  11.666   9.123  0.5534 -0.8330  0.8980
46597SOL    HW244730   3.235  11.515   9.128 -1.9240 -1.0084  0.3123
46598SOL     OW44731   3.415   6.006   1.005  0.9704  0.5049 -0.2601
46598SOL    HW144732   3.462   5.927   1.033  1.1728  0.5969 -0.3367
46598SOL    HW244733   3.386   5.986   0.916  0.8415  0.4378 -0.2029
46599SOL     OW44734   0.958  11.192   4.826  0.2985 -0.3195  0.2824
46599SOL    HW144735   0.977  11.112   4.874 -0.0475 -0.4603  0.1856
46599SOL    HW244736   1.003  11.182   4.742 -1.3354 -1.2767 -0.5267
46600SOL     OW44737  10.535   7.650  11.186 -0.0022 -0.4130 -0.2014
46600SOL    HW144738  10.507   7.587  11.120  0.4936 -0.5699 -0.2653
46600SOL    HW244739  10.524   7.604  11.270  1.7504 -1.1464 -0.3272
46601SOL     OW44740   2.630   3.768   2.549 -0.2796 -0.5536  0.0780
46601SOL    HW144741   2.540   3.795   2.534 -0.8432 -1.0372  2.3128
46601SOL    HW244742   2.683   3.841   2.517 -1.4285 -0.2899 -1.3009
46602SOL     OW44743   4.056   7.562   5.831 -0.4292 -0.2088 -0.0704
46602SOL    HW144744   4.030   7.518   5.912 -0.9289 -1.0465 -0.6690
46602SOL    HW244745   4.094   7.492   5.777 -0.0520  0.3512 -0.5432
46603SOL     OW44746   8.193   6.664   7.242  0.5474  0.2734 -0.2665
46603SOL    HW144747   8.183   6.757   7.263 -0.5222  0.1778 -0.2916
46603SOL    HW244748   8.285   6.655   7.217  0.4597  1.5066 -1.1316
46604SOL     OW44749   4.651   5.918   0.829  0.0757 -0.4355  0.2483
46604SOL    HW144750   4.581   5.960   0.879 -0.4034 -1.7015  0.6762
46604SOL    HW244751   4.606   5.866   0.763  0.5636 -1.7048  0.8763
46605SOL     OW44752   5.350   9.419   5.247  0.4327 -0.4736 -0.3975
46605SOL    HW144753   5.418   9.474   5.285 -1.2816  0.1964  1.9253
46605SOL    HW244754   5.385   9.330   5.255  1.4296 -0.0744 -0.1485
46606SOL     OW44755   1.493   2.277   6.042 -0.2689  0.5831 -0.4935
46606SOL    HW144756   1.514   2.346   5.979  0.6238 -0.0256 -0.8864
46606SOL    HW244757   1.411   2.240   6.010  0.9202 -0.7140 -2.2129
46607SOL     OW44758   8.994   9.066   1.393  0.5194 -0.2935 -0.8045
46607SOL    HW144759   8.935   8.992   1.384 -0.4340  0.4136 -0.5898
46607SOL    HW244760   9.000   9.081   1.487  0.6152 -0.0414 -0.8483
46608SOL     OW44761  10.682   8.429   0.279 -0.1267  0.3344 -0.3103
46608SOL    HW144762  10.724   8.478   0.208  1.4459  0.9350  0.9901
46608SOL    HW244763  10.754   8.396   0.332 -1.2531  0.8237  1.6317
46609SOL     OW44764   5.356   8.055  10.556 -0.3957 -0.2304 -0.0141
46609SOL    HW144765   5.379   8.147  10.546 -0.2795 -0.2739 -0.1409
46609SOL    HW244766   5.428   8.007  10.517 -0.1381 -0.3880  0.6333
46610SOL     OW44767   8.032   2.632   2.108 -1.0264  0.0623 -0.2387
46610SOL    HW144768   7.993   2.547   2.129  0.8001 -0.8808 -0.4845
46610SOL    HW244769   8.048   2.628   2.014  3.4359 -1.3653  0.3554
46611SOL     OW44770   3.864   1.658   5.086 -0.6296 -0.0709  0.0275
46611SOL    HW144771   3.871   1.682   4.994 -1.0999  0.0786  0.0280
46611SOL    HW244772   3.951   1.626   5.109  0.5478  3.0844  0.4687
46612SOL     OW44773   2.071  11.427   8.741 -0.0840  0.3497 -0.0762
46612SOL    HW144774   2.009  11.364   8.778 -0.5266  1.3910  1.0028
46612SOL    HW244775   2.135  11.441   8.811  2.1338 -1.5990 -1.5502
46613SOL     OW44776   2.163   3.003   1.504 -0.3821  0.1159  0.2674
46613SOL    HW144777   2.168   2.908   1.491  2.0821  0.3574 -1.2551
46613SOL    HW244778   2.125   3.037   1.423 -2.2477  0.4110  1.2196
46614SOL     OW44779   2.326   4.324   8.647 -0.9972 -0.3855 -0.0100
46614SOL    HW144780   2.283   4.301   8.565  2.1809 -0.1608 -1.8666
46614SOL    HW244781   2.325   4.243   8.699 -0.0790 -1.5189 -1.6913
46615SOL     OW44782  10.727   8.106   7.072 -0.2141 -0.9597 -0.1421
46615SOL    HW144783  10.814   8.112   7.033 -0.2687 -1.8096 -0.3981
46615SOL    HW244784  10.667   8.099   6.997 -0.3671 -1.9899  0.0630
46616SOL     OW44785   5.129   4.173   5.872  0.3617 -0.3786 -0.0456
46616SOL    HW144786   5.157   4.101   5.815 -0.9203 -1.0550  0.1485
46616SOL    HW244787   5.103   4.243   5.811  1.4974 -0.1054 -0.2367
46617SOL     OW44788   6.879   3.070   2.650  0.4288  0.1861  0.2534
46617SOL    HW144789   6.896   3.152   2.605  0.1547 -1.3728 -2.9565
46617SOL    HW244790   6.960   3.020   2.638  0.5314 -0.1341  2.0178
46618SOL     OW44791   4.276   7.103   6.244 -0.1079 -0.3952 -0.2207
46618SOL    HW144792   4.304   7.116   6.154 -0.3189  2.0856  0.0023
46618SOL    HW244793   4.336   7.038   6.279  1.2484  0.0651 -1.5872
46619SOL     OW44794   9.006   7.602  10.496 -0.1634 -0.2435 -0.0466
46619SOL    HW144795   8.933   7.551  10.530 -1.2609  0.2252 -1.6024
46619SOL    HW244796   8.965   7.677  10.452  1.2443 -0.0240 -1.0504
46620SOL     OW44797   8.045   6.307   3.284 -0.1569  0.0293  0.1586
46620SOL    HW144798   7.954   6.329   3.265 -0.1497  0.4842  0.6203
46620SOL    HW244799   8.080   6.272   3.202 -0.8103 -0.3563  0.0441
46621SOL     OW44800   5.399   7.307   9.088 -0.4678 -0.4269 -0.0243
46621SOL    HW144801   5.332   7.244   9.115 -0.6442 -0.0646  0.3858
46621SOL    HW244802   5.416   7.285   8.996 -1.7177 -0.0267 -0.3653
46622SOL     OW44803   6.560   3.508  10.671 -0.0159 -0.3014 -0.3713
46622SOL    HW144804   6.603   3.430  10.636  0.0932  1.0033 -3.4839
46622SOL    HW244805   6.632   3.570  10.685 -0.2735 -0.1963  0.6074
46623SOL     OW44806   1.680  10.347   3.042 -0.1503  0.4492  0.4165
46623SOL    HW144807   1.749  10.406   3.013 -0.2049  0.3130  0.0121
46623SOL    HW244808   1.706  10.261   3.009 -0.7106  0.4650 -0.0713
46624SOL     OW44809   2.149  10.786   1.715 -0.4562 -0.5326 -0.2696
46624SOL    HW144810   2.213  10.847   1.677  0.4639 -1.6932 -0.6482
46624SOL    HW244811   2.177  10.777   1.806 -1.5548  0.8129  0.2388
46625SOL     OW44812  11.505   7.401   3.905 -0.5032  0.3687  0.4351
46625SOL    HW144813  11.578   7.453   3.939  0.8340 -0.2719 -1.2948
46625SOL    HW244814  11.455   7.377   3.982  0.6957  1.4472  1.6053
46626SOL     OW44815  10.857   5.285   4.463 -1.1393  0.7793  0.3828
46626SOL    HW144816  10.875   5.214   4.402 -1.1479  0.3955  0.8210
46626SOL    HW244817  10.887   5.364   4.418 -0.1587  0.3809  0.3202
46627SOL     OW44818   2.553   4.392   9.970  0.1137 -0.3716 -0.3638
46627SOL    HW144819   2.644   4.398   9.941  0.3743  1.0011  0.6264
46627SOL    HW244820   2.559   4.374  10.064 -0.6642 -0.8855 -0.4005
46628SOL     OW44821   5.047   5.636  11.601  0.6318 -0.2590 -0.3595
46628SOL    HW144822   5.024   5.714  11.651 -1.1131  0.2837 -1.9162
46628SOL    HW244823   5.140   5.623  11.619  0.6705  1.4427  0.9152
46629SOL     OW44824   0.075   0.265   2.569 -0.1471  0.2400  0.2805
46629SOL    HW144825   0.013   0.246   2.499  0.3012  0.0911 -0.0846
46629SOL    HW244826   0.030   0.239   2.649 -0.3636 -0.3425 -0.0240
46630SOL     OW44827   6.288   6.301   8.176 -0.5662 -0.1275  0.2031
46630SOL    HW144828   6.291   6.225   8.118  0.6430  0.7283 -0.9373
46630SOL    HW244829   6.365   6.291   8.233 -0.1334  0.4624 -0.2683
46631SOL     OW44830   4.326   7.385   6.762  0.2866 -0.1716 -0.8752
46631SOL    HW144831   4.391   7.445   6.727  1.5537 -1.2811 -0.5255
46631SOL    HW244832   4.377   7.310   6.794 -1.2571 -1.7036 -1.8192
46632SOL     OW44833  11.017   1.685   2.742  0.3167  0.1918  0.4686
46632SOL    HW144834  11.037   1.620   2.675 -0.8110  1.2952 -1.0199
46632SOL    HW244835  10.954   1.641   2.799 -1.9687  0.4853 -1.6428
46633SOL     OW44836  10.755   5.345   7.258 -0.1187  0.3562 -0.2668
46633SOL    HW144837  10.740   5.378   7.346  0.8939 -2.4724  1.0734
46633SOL    HW244838  10.797   5.260   7.270 -2.4070 -1.4570 -3.4107
46634SOL     OW44839   9.636   6.721   1.067 -0.0683 -0.0055 -0.0595
46634SOL    HW144840   9.579   6.792   1.093 -0.2459  0.7510 -2.2517
46634SOL    HW244841   9.718   6.764   1.041  0.4891 -0.7859  0.3650
46635SOL     OW44842   0.596   3.886   4.910  0.1583  0.4849 -0.0103
46635SOL    HW144843   0.524   3.935   4.949 -0.2902  0.3359 -0.6180
46635SOL    HW244844   0.627   3.829   4.979 -1.7693 -1.0481 -0.3307
46636SOL     OW44845   4.101   4.052   2.326 -0.5090 -0.0151  0.1678
46636SOL    HW144846   4.091   4.103   2.406 -1.5485 -0.8875  0.6136
46636SOL    HW244847   4.119   4.117   2.258  1.2872  0.6743  1.2347
46637SOL     OW44848   7.450   9.183   8.260  0.2298 -0.1100  1.0469
46637SOL    HW144849   7.464   9.181   8.165 -0.1214 -1.8381  1.0097
46637SOL    HW244850   7.403   9.266   8.274 -1.4754 -0.7028 -0.5824
46638SOL     OW44851   5.598   9.531   3.054  0.2568 -0.1793  0.0624
46638SOL    HW144852   5.626   9.512   2.965 -2.1017  3.0397 -1.5385
46638SOL    HW244853   5.643   9.612   3.077 -1.3517  0.6135  0.5858
46639SOL     OW44854  10.560   9.164  10.986  0.6627 -0.6413  0.1406
46639SOL    HW144855  10.555   9.203  10.898 -0.6662 -2.9351 -0.8996
46639SOL    HW244856  10.652   9.174  11.011  0.8072  1.2159 -0.9267
46640SOL     OW44857  11.290  10.428   9.467  0.0925  0.1028  0.0048
46640SOL    HW144858  11.265  10.506   9.515 -1.2441  0.2321 -0.8624
46640SOL    HW244859  11.378  10.407   9.499 -0.4358  0.6365  1.8996
46641SOL     OW44860  10.393   7.402   7.729 -0.1910  0.1231  0.3712
46641SOL    HW144861  10.330   7.388   7.659  1.1120  0.2028 -0.8594
46641SOL    HW244862  10.373   7.335   7.794 -2.4835  1.0816  0.7532
46642SOL     OW44863   1.674   9.723  10.888 -0.1435  0.1317  0.4270
46642SOL    HW144864   1.684   9.639  10.842  0.6958  1.0304 -1.1101
46642SOL    HW244865   1.740   9.780  10.849  1.2769  0.7268  3.4270
46643SOL     OW44866   3.450   9.456   9.704 -0.3019  0.0718  0.4004
46643SOL    HW144867   3.485   9.544   9.690 -0.0398 -0.0223  0.4573
46643SOL    HW244868   3.406   9.461   9.789 -1.5207  0.5280 -0.2259
46644SOL     OW44869  10.138   3.550   3.965 -0.6075  0.5836 -0.0894
46644SOL    HW144870  10.167   3.636   3.934 -0.2283  0.5159  0.0728
46644SOL    HW244871  10.069   3.524   3.904  0.9290 -0.0744 -1.6079
46645SOL     OW44872  11.561   6.103   6.653 -0.4443 -0.0250  0.8662
46645SOL    HW144873  11.588   6.176   6.597  0.7643 -0.2318  1.1538
46645SOL    HW244874  11.641   6.076   6.697 -0.9778 -1.2257  1.1282
46646SOL     OW44875  10.964   8.727   0.903 -0.2972  0.0969 -0.5592
46646SOL    HW144876  10.982   8.805   0.851 -1.1963  0.6959 -0.0097
46646SOL    HW244877  10.949   8.658   0.839  1.3276  0.1576 -1.0458
46647SOL     OW44878   7.071   5.984   9.157  0.0748 -0.0573 -0.4553
46647SOL    HW144879   7.025   6.051   9.207  2.7621  0.4355  1.6160
46647SOL    HW244880   7.116   5.932   9.224  1.3990 -1.3078 -2.2383
46648SOL     OW44881   1.674   0.197   2.381 -0.6590  0.1687  0.2014
46648SOL    HW144882   1.603   0.260   2.394 -1.1106 -0.5383  1.3383
46648SOL    HW244883   1.677   0.183   2.286 -1.7706  0.5083  0.1004
46649SOL     OW44884   4.454  10.384   8.129 -0.2363 -0.3833  0.4822
46649SOL    HW144885   4.528  10.404   8.186 -1.2203 -0.4970  1.8282
46649SOL    HW244886   4.432  10.293   8.148 -0.5802 -0.4290 -0.0932
46650SOL     OW44887   5.075   5.231   6.764 -0.0820  0.2743  0.4238
46650SOL    HW144888   5.058   5.139   6.741  1.3356 -0.3113  1.5316
46650SOL    HW244889   4.989   5.267   6.784 -0.6776 -0.7845 -0.1318
46651SOL     OW44890   1.805   9.412   9.905  0.2714  0.0440  0.2976
46651SOL    HW144891   1.749   9.486   9.928  0.4081  0.0485  0.6150
46651SOL    HW244892   1.879   9.418   9.966  0.4322 -0.1782  0.1251
46652SOL     OW44893  10.688   5.906   1.559  0.0100 -0.2857  0.1930
46652SOL    HW144894  10.672   5.859   1.641 -0.1881  1.5567  1.2670
46652SOL    HW244895  10.601   5.939   1.533  0.2005 -0.2117 -0.3754
46653SOL     OW44896   0.868   9.435   7.708  0.1397  0.0945 -0.0513
46653SOL    HW144897   0.813   9.396   7.777 -0.3801  1.1597  0.1521
46653SOL    HW244898   0.914   9.360   7.670 -1.2394 -0.7964 -0.0391
46654SOL     OW44899   6.247   5.998   7.775 -0.0862  0.2805 -0.1218
46654SOL    HW144900   6.193   6.068   7.739 -0.2483 -0.0797 -0.5795
46654SOL    HW244901   6.278   5.950   7.699 -1.4520 -1.2589  0.2412
46655SOL     OW44902   9.588   6.921   5.877  0.0817 -0.7700  0.1196
46655SOL    HW144903   9.539   6.924   5.959 -0.6683 -0.5069 -0.3270
46655SOL    HW244904   9.580   7.010   5.842  0.0841 -0.9786 -0.4169
46656SOL     OW44905   8.209   0.964   2.775 -0.3488 -0.1529  0.0672
46656SOL    HW144906   8.280   0.982   2.837  1.3267 -3.3177 -0.7134
46656SOL    HW244907   8.140   0.924   2.828 -0.7067  0.9642  0.4799
46657SOL     OW44908   6.087  10.785   4.338  0.3995  0.1089 -0.2908
46657SOL    HW144909   6.169  10.746   4.309  1.1219 -0.3226  2.1610
46657SOL    HW244910   6.109  10.875   4.361 -0.0803  0.3401 -0.7056
46658SOL     OW44911   5.426   7.210   5.872  0.6911  0.2329 -0.2831
46658SOL    HW144912   5.452   7.197   5.781 -1.8474  0.6310 -1.1326
46658SOL    HW244913   5.407   7.304   5.879  2.1965  0.4794  1.0761
46659SOL     OW44914   3.307  10.614   9.454 -0.3718 -0.1318  0.4694
46659SOL    HW144915   3.394  10.577   9.465  0.0891 -0.0028 -2.1540
46659SOL    HW244916   3.305  10.688   9.514  0.8210 -0.9001  1.5105
46660SOL     OW44917   7.474   3.700   3.012 -0.2221  0.2811  0.2863
46660SOL    HW144918   7.570   3.697   3.018 -0.2961  0.2775  1.6735
46660SOL    HW244919   7.453   3.793   3.025 -0.3157  0.6621 -2.1255
46661SOL     OW44920   3.841   1.972   6.809 -0.2869  0.4342  0.4727
46661SOL    HW144921   3.827   1.953   6.902  0.8473  0.2785  0.6294
46661SOL    HW244922   3.753   1.977   6.772 -0.7613 -2.3153  1.0039
46662SOL     OW44923   1.105   1.694   3.403 -0.8343  0.4549  0.3011
46662SOL    HW144924   1.193   1.674   3.372 -1.1360  0.3292 -0.5031
46662SOL    HW244925   1.083   1.621   3.461 -0.9060 -0.1835 -0.5226
46663SOL     OW44926   1.387  11.052   9.537  0.1102 -0.2776  0.6505
46663SOL    HW144927   1.477  11.065   9.507 -0.0640 -0.8098 -0.1352
46663SOL    HW244928   1.361  10.968   9.500 -1.2935  0.6413 -0.5735
46664SOL     OW44929   1.459   2.433   9.559  0.1676  0.2305  0.1996
46664SOL    HW144930   1.544   2.478   9.551  0.4374 -0.1595  0.8528
46664SOL    HW244931   1.436   2.411   9.468  0.6853  0.4798 -0.0005
46665SOL     OW44932  10.597  11.322  10.574  0.7261  0.2345  0.5245
46665SOL    HW144933  10.582  11.322  10.479  1.1260 -0.9389  0.4403
46665SOL    HW244934  10.536  11.386  10.608  0.2289  0.3159 -0.4849
46666SOL     OW44935   8.347  11.062   5.234 -1.0927 -0.0191  0.0512
46666SOL    HW144936   8.340  11.066   5.139 -0.3385  1.5100  0.0395
46666SOL    HW244937   8.440  11.075   5.253 -1.4128  0.9680  1.0430
46667SOL     OW44938   5.885   5.844   5.624 -0.6972 -0.4198  0.0034
46667SOL    HW144939   5.796   5.868   5.652 -1.1929 -1.5489 -0.5297
46667SOL    HW244940   5.892   5.751   5.644  0.1665 -0.4701 -0.4868
46668SOL     OW44941   8.755   4.404   1.561  0.4890 -0.0528 -0.5464
46668SOL    HW144942   8.754   4.377   1.469 -1.2926  2.2746 -1.3298
46668SOL    HW244943   8.753   4.500   1.558  2.0610  0.1742  1.9680
46669SOL     OW44944   9.768   0.275   3.249 -0.1280 -0.0180  0.0193
46669SOL    HW144945   9.709   0.200   3.249  0.2587 -0.3443 -1.1785
46669SOL    HW244946   9.815   0.268   3.166  0.5684  1.0372  0.3117
46670SOL     OW44947   6.556   7.033   4.268 -0.2373  0.2798 -0.3659
46670SOL    HW144948   6.536   7.126   4.268  0.9948  0.5880 -1.8271
46670SOL    HW244949   6.651   7.029   4.282 -0.3699 -0.8016  0.3591
46671SOL     OW44950   1.541   5.900   2.959 -0.0310  0.1452 -0.3235
46671SOL    HW144951   1.608   5.895   2.891 -1.3249  0.9428 -1.7281
46671SOL    HW244952   1.458   5.904   2.911 -1.1904 -1.8179  1.3749
46672SOL     OW44953   2.666   9.735   9.616 -0.1797 -0.4221  0.0411
46672SOL    HW144954   2.679   9.682   9.538 -1.4268  0.1308 -0.5768
46672SOL    HW244955   2.635   9.820   9.582  2.7311  1.1003  0.9157
46673SOL     OW44956   9.294  10.797   1.816  0.4832 -0.2364 -0.0164
46673SOL    HW144957   9.377  10.750   1.804  0.3983 -0.4820  0.3526
46673SOL    HW244958   9.287  10.812   1.910  0.9538  1.3510 -0.1999
46674SOL     OW44959   6.003   0.103   2.535 -0.2481 -0.0862  0.2053
46674SOL    HW144960   5.999   0.185   2.487 -0.4679  0.0127  0.3914
46674SOL    HW244961   6.058   0.121   2.611  3.9309 -1.3779 -2.2101
46675SOL     OW44962   0.901   5.446   8.164 -0.3584  0.4627 -0.4713
46675SOL    HW144963   0.890   5.522   8.108  0.1411  1.4944  0.7741
46675SOL    HW244964   0.818   5.398   8.157 -0.2634  0.4877 -2.1417
46676SOL     OW44965   0.202   7.554   4.173  0.1840 -0.7909  0.7429
46676SOL    HW144966   0.148   7.475   4.166 -0.5175 -0.2236 -0.4623
46676SOL    HW244967   0.270   7.542   4.107 -1.5419  0.8111 -1.4594
46677SOL     OW44968  10.969  11.291   7.504 -0.1310  0.2203 -0.8264
46677SOL    HW144969  11.042  11.240   7.467 -0.5119 -0.6889 -0.3571
46677SOL    HW244970  10.890  11.247   7.471 -0.5052 -0.8634  1.3075
46678SOL     OW44971   3.239   0.393  11.682  0.0396 -0.1887 -0.4173
46678SOL    HW144972   3.160   0.341  11.693 -0.7095  0.9081 -0.3866
46678SOL    HW244973   3.288   0.381  11.764 -1.5535  1.4497  0.8609
46679SOL     OW44974   9.042   5.038   6.534 -0.0602  0.2948 -0.3831
46679SOL    HW144975   9.136   5.038   6.519  0.1467  0.4667  0.8307
46679SOL    HW244976   9.017   4.945   6.527 -0.3298  0.4811 -3.5126
46680SOL     OW44977   0.225   8.499   1.564  0.3926  0.0758  0.4007
46680SOL    HW144978   0.271   8.419   1.541  1.9620  0.7354  1.0666
46680SOL    HW244979   0.175   8.476   1.643 -1.9192 -1.1201 -1.2872
46681SOL     OW44980   6.687   6.961   1.472 -0.3955 -0.3902  0.4536
46681SOL    HW144981   6.604   6.979   1.516  0.2648  0.8869  1.2498
46681SOL    HW244982   6.681   7.009   1.389 -0.0997  0.5119  0.9367
46682SOL     OW44983   0.429   4.445   6.850  0.2865  0.0585 -0.7022
46682SOL    HW144984   0.426   4.540   6.861 -2.4950  0.0773 -1.0718
46682SOL    HW244985   0.500   4.431   6.787  0.1632  1.9766 -1.3389
46683SOL     OW44986   1.759   5.087   9.069 -0.4050 -0.1150  0.0126
46683SOL    HW144987   1.840   5.081   9.018  0.2088 -1.3517  1.0777
46683SOL    HW244988   1.730   5.177   9.058  1.4501  0.5140  0.0976
46684SOL     OW44989   4.252   3.906   9.079 -0.3330 -0.1339  0.3907
46684SOL    HW144990   4.207   3.983   9.042  0.2240 -0.3738 -0.8463
46684SOL    HW244991   4.320   3.885   9.014  0.1025 -1.1288  1.1502
46685SOL     OW44992   4.404   4.176   0.346  0.8326  0.1781 -0.4039
46685SOL    HW144993   4.460   4.198   0.420  0.9382 -0.3890 -0.3109
46685SOL    HW244994   4.417   4.082   0.332  1.1505  0.3590 -1.4258
46686SOL     OW44995  11.582   6.131   8.556  0.4256  0.0304  0.3428
46686SOL    HW144996  11.490   6.107   8.546  0.5196 -0.5498  0.8077
46686SOL    HW244997  11.607   6.165   8.470 -0.4670  1.0841  0.4727
46687SOL     OW44998   5.702   5.820  10.034  1.0381  0.6696  0.1089
46687SOL    HW144999   5.670   5.792   9.949  0.4403 -1.0754  0.8538
46687SOL    HW245000   5.795   5.836  10.020  1.3558 -1.3857 -0.5240
46688SOL     OW45001   8.163   4.376   7.637 -0.1135 -0.0989 -0.5202
46688SOL    HW145002   8.201   4.463   7.624 -0.7516  0.5180  1.3593
46688SOL    HW245003   8.224   4.332   7.697 -0.4175 -0.4961 -0.4985
46689SOL     OW45004   1.040   1.535   3.601  0.2388  0.4963  0.1954
46689SOL    HW145005   1.003   1.452   3.631 -0.9259  1.4563  1.6103
46689SOL    HW245006   1.098   1.563   3.672 -0.8297  1.7492  0.6245
46690SOL     OW45007   2.926   7.726  10.186 -0.7482 -0.5602 -0.2218
46690SOL    HW145008   2.914   7.664  10.114  1.8743 -1.3141 -0.1344
46690SOL    HW245009   3.018   7.752  10.180 -1.6087  2.9843  0.0929
46691SOL     OW45010   4.301   6.859   4.486 -0.1379 -0.1958  0.1233
46691SOL    HW145011   4.320   6.776   4.529 -1.3622  0.4091  1.9340
46691SOL    HW245012   4.382   6.882   4.441  1.2666 -0.8401  2.2101
46692SOL     OW45013  10.979  10.289   8.267  0.7447 -0.1589  0.1253
46692SOL    HW145014  10.937  10.362   8.312 -0.5781 -0.9857  0.2829
46692SOL    HW245015  11.016  10.235   8.337 -0.4365 -0.9132  0.2033
46693SOL     OW45016   6.998  11.627   5.220  0.2454 -0.4995  0.0471
46693SOL    HW145017   7.013  11.701   5.161 -2.4440 -0.6634 -1.0153
46693SOL    HW245018   6.949  11.564   5.167  1.6051 -2.6743  1.2028
46694SOL     OW45019   9.331   4.243   1.171 -0.6615  0.1787  0.2993
46694SOL    HW145020   9.312   4.180   1.241 -0.0377 -1.1584 -0.6948
46694SOL    HW245021   9.424   4.230   1.152 -0.5031  1.4790  0.1305
46695SOL     OW45022   5.326  10.695   2.260  0.1014 -0.0971  0.5892
46695SOL    HW145023   5.393  10.759   2.235 -0.2349  0.1986  0.4311
46695SOL    HW245024   5.247  10.747   2.273  0.0986 -0.3417  1.5786
46696SOL     OW45025   9.293   3.417   3.899 -0.4089  0.4001  0.0066
46696SOL    HW145026   9.320   3.364   3.975  2.3488  0.4729 -0.7958
46696SOL    HW245027   9.307   3.508   3.927 -0.3586  0.4735 -0.2545
46697SOL     OW45028   6.216   8.597   7.425  0.7011 -0.0426 -0.0517
46697SOL    HW145029   6.206   8.562   7.337 -0.2863 -0.2116  0.1157
46697SOL    HW245030   6.274   8.535   7.469 -0.5485 -1.1807  0.0620
46698SOL     OW45031   9.160   7.388   4.811 -0.1626  0.1695 -0.5559
46698SOL    HW145032   9.124   7.316   4.760 -0.1443 -0.6896  0.5862
46698SOL    HW245033   9.253   7.369   4.817  0.1617  1.2611 -1.7315
46699SOL     OW45034   0.219   5.419   2.173  0.4969 -0.4874  0.2287
46699SOL    HW145035   0.134   5.375   2.171  0.8108 -1.0980 -1.7283
46699SOL    HW245036   0.267   5.375   2.244 -0.1259 -1.5070  0.0327
46700SOL     OW45037   9.065   3.849   8.974 -0.3270 -0.1883  0.2414
46700SOL    HW145038   9.081   3.942   8.986 -0.0796 -0.2633  0.5244
46700SOL    HW245039   8.988   3.831   9.028  0.3742 -0.3884  1.2063
46701SOL     OW45040   5.579   4.287  11.230 -0.6098  0.2769 -0.5100
46701SOL    HW145041   5.567   4.379  11.256 -1.2544  0.6089 -1.9114
46701SOL    HW245042   5.674   4.276  11.224 -0.5383  1.3363 -1.8804
46702SOL     OW45043   7.057   4.308   9.005  0.5189 -0.2274 -0.4519
46702SOL    HW145044   7.087   4.389   8.964 -0.9211  0.4069 -0.3033
46702SOL    HW245045   7.091   4.313   9.095  0.2648  0.3186 -0.3794
46703SOL     OW45046   8.968   1.541   5.201  0.5885  0.2737  0.0359
46703SOL    HW145047   8.978   1.470   5.264  0.1634 -0.5589 -0.8042
46703SOL    HW245048   9.019   1.513   5.125 -0.5409  0.2915 -0.7585
46704SOL     OW45049   4.993   3.753  10.444  0.0721 -0.5105  0.0678
46704SOL    HW145050   4.980   3.781  10.534 -0.2186 -0.3923 -0.0086
46704SOL    HW245051   4.933   3.808  10.393 -0.3148 -1.0836 -0.1155
46705SOL     OW45052   0.614   6.486   4.155 -0.5065  0.4408 -0.0987
46705SOL    HW145053   0.638   6.394   4.164 -0.7333  0.3190 -0.7392
46705SOL    HW245054   0.588   6.496   4.064  0.7829  1.4393 -0.3876
46706SOL     OW45055   8.486   2.263   9.608 -0.2576 -0.0600  0.2346
46706SOL    HW145056   8.552   2.250   9.676  0.3270 -0.6335 -0.4344
46706SOL    HW245057   8.410   2.214   9.638  0.7258 -2.1617 -0.5413
46707SOL     OW45058  11.129  10.704   6.969  0.0545  0.0262  0.0511
46707SOL    HW145059  11.036  10.708   6.946  0.3090 -1.8092 -1.6473
46707SOL    HW245060  11.173  10.753   6.899  0.4135  0.0773  0.3119
46708SOL     OW45061  11.439   8.806   2.411 -0.5368  0.1817  0.3579
46708SOL    HW145062  11.433   8.822   2.316  0.3279  1.1457  0.4533
46708SOL    HW245063  11.451   8.711   2.418  1.8400  0.3197 -0.6639
46709SOL     OW45064   9.263   6.467   4.517  0.0672  0.0306  0.9598
46709SOL    HW145065   9.209   6.461   4.438  1.1631  1.4765  0.0429
46709SOL    HW245066   9.200   6.463   4.589 -1.3425  1.7881 -0.0684
46710SOL     OW45067   8.275   7.117   4.920 -0.0737  0.5085  0.2060
46710SOL    HW145068   8.343   7.182   4.937  1.5712 -1.1496  0.3517
46710SOL    HW245069   8.283   7.055   4.992 -0.3938 -0.7804 -0.8197
46711SOL     OW45070   8.885  10.893   7.121  0.1428  0.3528 -0.0736
46711SOL    HW145071   8.979  10.873   7.119  0.1524  0.3615 -2.3781
46711SOL    HW245072   8.843  10.814   7.089 -0.5985  0.6319  0.1985
46712SOL     OW45073  11.505   2.116  10.065 -0.2722 -0.6578 -0.3296
46712SOL    HW145074  11.492   2.210  10.050  0.0677 -0.8616 -2.0254
46712SOL    HW245075  11.498   2.076   9.979  2.4296 -1.8491 -0.0984
46713SOL     OW45076   4.258   2.805   1.309 -0.1689  0.0050 -0.7099
46713SOL    HW145077   4.261   2.885   1.362 -0.7766  0.2406 -1.0215
46713SOL    HW245078   4.317   2.744   1.354 -0.4109  0.3173  0.0446
46714SOL     OW45079   2.173   9.084   9.098  0.8581  0.2805 -0.1073
46714SOL    HW145080   2.163   9.013   9.161 -1.5139  1.4022  0.8992
46714SOL    HW245081   2.193   9.161   9.151  0.2481  0.9635 -0.8292
46715SOL     OW45082   1.021   8.422  10.177  0.1986  0.7003  0.2769
46715SOL    HW145083   1.103   8.372  10.178 -0.2082 -0.0075 -0.3619
46715SOL    HW245084   0.955   8.359  10.150 -0.2340  1.7265 -1.1984
46716SOL     OW45085   3.308   6.850   5.385 -0.4661  0.3947  0.6457
46716SOL    HW145086   3.304   6.827   5.478 -0.1990  0.5823  0.7079
46716SOL    HW245087   3.231   6.810   5.346 -0.1772 -0.3282  0.8062
46717SOL     OW45088   4.339   0.044   6.640 -0.3017  0.5465 -0.2234
46717SOL    HW145089   4.277  -0.028   6.629  1.7056 -1.4767  0.8184
46717SOL    HW245090   4.310   0.089   6.719 -0.8997  0.1352 -0.1993
46718SOL     OW45091   7.671   5.833   2.717 -0.6216 -0.6197 -0.1354
46718SOL    HW145092   7.681   5.741   2.691  0.7611 -0.8044  0.9365
46718SOL    HW245093   7.576   5.845   2.727 -0.8164 -1.9632 -0.1901
46719SOL     OW45094   4.816   6.018  11.688  0.0712 -0.2497  0.4684
46719SOL    HW145095   4.817   6.109  11.720  0.9083  0.0964 -0.5069
46719SOL    HW245096   4.737   6.014  11.633 -0.1034 -0.1829  0.7112
46720SOL     OW45097   3.438   1.951  10.226  0.1992  0.0178 -0.0421
46720SOL    HW145098   3.368   1.907  10.178  0.5888 -1.7317  0.8919
46720SOL    HW245099   3.513   1.891  10.218  1.1878  1.1940  0.1284
46721SOL     OW45100  10.438   4.575   9.658 -0.2700 -0.9076 -0.4278
46721SOL    HW145101  10.375   4.503   9.657 -1.4158  0.0597 -1.1187
46721SOL    HW245102  10.397   4.644   9.605  0.2438  0.6932  1.1487
46722SOL     OW45103   2.510   8.313   7.105  0.7707 -0.5983  0.5013
46722SOL    HW145104   2.513   8.296   7.199 -2.1697 -1.4612  0.5643
46722SOL    HW245105   2.473   8.233   7.068 -0.6625  0.6952 -1.0123
46723SOL     OW45106   0.924   4.342   5.471 -0.0684  0.6012  0.2617
46723SOL    HW145107   0.916   4.287   5.394 -0.8097  0.8916  0.1240
46723SOL    HW245108   0.979   4.291   5.531 -0.4427 -0.1238  0.0007
46724SOL     OW45109   6.752   8.733  11.297 -0.0252  0.1422 -0.0979
46724SOL    HW145110   6.719   8.646  11.273 -1.1102  0.3161  0.6701
46724SOL    HW245111   6.774   8.774  11.214 -0.9072 -0.3316 -0.5829
46725SOL     OW45112   8.402   8.890   7.763 -0.5536 -0.4113  0.6941
46725SOL    HW145113   8.472   8.891   7.828  0.8085  1.0465 -0.7238
46725SOL    HW245114   8.436   8.942   7.690 -4.0922  2.7043  0.9815
46726SOL     OW45115   8.444  11.578   0.400 -0.4336  0.3358  0.3024
46726SOL    HW145116   8.429  11.554   0.309  1.3634 -1.0514  0.3233
46726SOL    HW245117   8.360  11.562   0.443 -1.5214  1.6981 -1.2028
46727SOL     OW45118   7.631  11.066   4.627  0.0922 -0.4807 -0.1369
46727SOL    HW145119   7.631  11.141   4.569 -2.4325  0.3989  0.8543
46727SOL    HW245120   7.702  11.082   4.689  1.4423 -0.4056 -1.6536
46728SOL     OW45121   7.447   9.678   4.673 -0.1784 -0.8955 -0.0297
46728SOL    HW145122   7.465   9.670   4.580 -0.1134  2.0172 -0.3725
46728SOL    HW245123   7.372   9.738   4.678 -0.5889 -1.4973  1.7869
46729SOL     OW45124   9.590  10.865   7.089  0.3243  0.0553 -1.0076
46729SOL    HW145125   9.668  10.891   7.137 -2.5628  2.4477  3.0233
46729SOL    HW245126   9.572  10.938   7.030 -0.6161  1.2307  0.6424
46730SOL     OW45127   2.533   1.103   2.551  0.4913  0.2717  0.3206
46730SOL    HW145128   2.483   1.082   2.630  1.9658 -0.9531  0.9813
46730SOL    HW245129   2.609   1.152   2.583  2.2831 -2.1059  0.0550
46731SOL     OW45130   3.281   5.487  11.656 -0.6215 -0.3543  0.0234
46731SOL    HW145131   3.283   5.407  11.709 -0.8438 -0.9446 -0.8310
46731SOL    HW245132   3.188   5.501  11.638 -0.7435  1.0681  1.5727
46732SOL     OW45133   7.834  11.020   3.483  0.1012  0.0646  0.0088
46732SOL    HW145134   7.795  11.099   3.446 -0.8619  0.0030  0.8564
46732SOL    HW245135   7.882  11.052   3.560 -0.7089 -0.2171  0.6473
46733SOL     OW45136   4.464   5.652   3.059 -0.1515  0.4989 -0.1169
46733SOL    HW145137   4.401   5.596   3.013 -0.0365 -0.6768  1.0835
46733SOL    HW245138   4.427   5.740   3.052 -1.3579 -0.0017 -0.4014
46734SOL     OW45139   4.825   0.439   5.896  0.2728  0.4137 -0.1638
46734SOL    HW145140   4.771   0.371   5.856 -0.5614  1.1081 -0.2538
46734SOL    HW245141   4.764   0.511   5.913  0.9362  0.7715  0.8330
46735SOL     OW45142  10.336   8.907   1.168  0.2056  0.4116  0.4834
46735SOL    HW145143  10.323   8.830   1.223 -1.0527  0.2159 -0.0708
46735SOL    HW245144  10.351   8.979   1.230 -0.4130  0.0531  1.0534
46736SOL     OW45145   9.432   7.335  11.250  0.1071  0.4468 -0.2813
46736SOL    HW145146   9.346   7.304  11.223 -0.1073  0.2895  0.5567
46736SOL    HW245147   9.471   7.261  11.296 -0.0651  1.1174  0.9836
46737SOL     OW45148  10.133   2.772   9.180 -0.5212 -0.2943 -0.3591
46737SOL    HW145149  10.110   2.759   9.088  1.0859  0.7696 -0.9424
46737SOL    HW245150  10.104   2.691   9.223  0.0245 -1.4544 -2.0573
46738SOL     OW45151  10.975   7.294   2.495 -0.5123 -0.1184 -0.1992
46738SOL    HW145152  11.003   7.336   2.577 -1.1830 -0.2327  0.0974
46738SOL    HW245153  10.883   7.320   2.486 -0.2985  0.3305 -1.2044
46739SOL     OW45154   6.830   6.512   0.927  0.2148 -0.4884  0.2948
46739SOL    HW145155   6.759   6.519   0.990 -0.9432  1.0476 -1.1131
46739SOL    HW245156   6.813   6.430   0.880  1.2200 -1.7665  2.0476
46740SOL     OW45157   0.832  10.563   8.974  0.3371 -0.3761  0.1244
46740SOL    HW145158   0.910  10.522   9.012 -0.1333  0.5696  2.2111
46740SOL    HW245159   0.778  10.490   8.946  1.1338 -1.0926  0.4127
46741SOL     OW45160   3.582   3.305   0.742  0.4016  0.2866  0.1987
46741SOL    HW145161   3.647   3.235   0.730 -1.3748 -1.2720 -0.9539
46741SOL    HW245162   3.499   3.265   0.716 -1.1933  1.9375  2.3886
46742SOL     OW45163   5.930   7.984   1.715 -0.0166  0.0471 -0.4676
46742SOL    HW145164   5.857   7.939   1.758  0.3169  0.1145  0.1751
46742SOL    HW245165   5.888   8.041   1.650 -0.5705  0.5251  0.2994
46743SOL     OW45166   4.775   2.354   8.596  0.0329  1.0068  0.3171
46743SOL    HW145167   4.773   2.259   8.608  0.3788  1.1157  1.3541
46743SOL    HW245168   4.857   2.370   8.550 -0.5526  0.7139 -0.8544
46744SOL     OW45169   1.869   3.767   1.596 -0.6183 -0.0524  0.1292
46744SOL    HW145170   1.902   3.831   1.532 -3.3210  0.8960 -0.4379
46744SOL    HW245171   1.888   3.682   1.556  0.5514  0.4413 -0.4204
46745SOL     OW45172   0.662  10.424   4.945 -0.4037 -0.1934  0.2086
46745SOL    HW145173   0.669  10.341   4.899 -0.1020 -1.7417  2.8950
46745SOL    HW245174   0.736  10.476   4.912  1.1402 -2.0845  0.5272
46746SOL     OW45175   7.148   7.552  11.620  0.4659  0.2481 -0.4212
46746SOL    HW145176   7.161   7.637  11.578 -0.2658  0.4322 -0.2974
46746SOL    HW245177   7.113   7.574  11.707  0.1200 -0.1816 -0.4491
46747SOL     OW45178   6.065   7.168   4.779  0.3963  0.5347  0.5913
46747SOL    HW145179   6.060   7.171   4.683 -1.7568  0.2391  0.6475
46747SOL    HW245180   6.052   7.076   4.801 -0.3835  0.7770  1.1916
46748SOL     OW45181   8.405  10.441   6.329  0.3753  0.1764  0.1832
46748SOL    HW145182   8.465  10.499   6.375  0.2849 -0.0587  0.6088
46748SOL    HW245183   8.407  10.359   6.380  1.5978 -0.7007 -1.2194
46749SOL     OW45184   5.696   8.310   3.204  0.0112 -0.2887 -0.2987
46749SOL    HW145185   5.770   8.334   3.260 -0.1414 -0.9837  0.2156
46749SOL    HW245186   5.705   8.216   3.191 -0.8192 -0.3908 -0.1824
46750SOL     OW45187  11.342   8.736   9.788 -0.4440 -0.3159  0.2437
46750SOL    HW145188  11.420   8.773   9.829 -0.3320 -0.7888  0.4713
46750SOL    HW245189  11.305   8.808   9.737  0.7811 -0.3839 -0.8068
46751SOL     OW45190   7.899   5.733   6.247 -0.1696  0.4788  0.6129
46751SOL    HW145191   7.902   5.810   6.191 -0.3912 -0.4968 -0.7906
46751SOL    HW245192   7.868   5.663   6.190  0.0901 -0.6684  1.8310
46752SOL     OW45193   1.412   6.822   7.601 -0.1103 -0.7869 -0.4050
46752SOL    HW145194   1.368   6.906   7.587  0.5279 -0.2433  0.6846
46752SOL    HW245195   1.470   6.838   7.675 -0.8202 -2.5141  0.5718
46753SOL     OW45196   2.963   0.907   2.691 -0.4166 -0.8527 -0.0441
46753SOL    HW145197   2.983   0.981   2.634 -0.8409  0.3141  1.2673
46753SOL    HW245198   2.899   0.855   2.643 -0.8966  0.1959 -0.5688
46754SOL     OW45199   8.551   3.466   0.189 -0.3688  0.4529  0.3688
46754SOL    HW145200   8.504   3.485   0.270  0.4335 -2.0182  1.5149
46754SOL    HW245201   8.563   3.371   0.189  0.1830  0.4254 -2.3847
46755SOL     OW45202   7.478   1.241  10.102  0.0276 -0.8822 -0.3237
46755SOL    HW145203   7.508   1.298  10.173 -1.9333 -0.4423  0.2015
46755SOL    HW245204   7.474   1.299  10.025  2.0783 -1.3421 -0.8556
46756SOL     OW45205   1.582   2.978   0.275 -0.1152 -0.2007  0.1341
46756SOL    HW145206   1.547   2.896   0.240 -3.2585  1.7413 -1.7882
46756SOL    HW245207   1.537   2.990   0.359  1.9120 -1.3104  1.4713
46757SOL     OW45208  10.703   4.119  11.130 -0.2432 -0.2989 -0.1486
46757SOL    HW145209  10.729   4.099  11.040 -0.6011 -0.8323 -0.1391
46757SOL    HW245210  10.608   4.133  11.124 -0.1989  0.1056  0.0722
46758SOL     OW45211   2.153   7.363  10.802 -0.2783 -0.4187  0.0444
46758SOL    HW145212   2.120   7.295  10.743  0.5121 -1.2401  0.5221
46758SOL    HW245213   2.121   7.445  10.765 -0.2484 -0.9584 -1.2160
46759SOL     OW45214   5.689   0.988   0.464  0.6990  0.5737 -0.4508
46759SOL    HW145215   5.782   0.999   0.486  0.9039 -2.7246  0.9197
46759SOL    HW245216   5.680   0.895   0.445 -2.5417  0.5580  0.6390
46760SOL     OW45217   2.660   1.041   2.834  0.0391 -0.3503  0.1172
46760SOL    HW145218   2.620   1.110   2.886 -1.7355 -1.2687  0.0575
46760SOL    HW245219   2.688   1.084   2.754  0.0174  0.5156  0.5681
46761SOL     OW45220  10.877  10.398   9.319  0.3444 -0.4992  0.2181
46761SOL    HW145221  10.845  10.332   9.257  0.2365 -0.1804 -0.0679
46761SOL    HW245222  10.868  10.356   9.405 -1.2381 -0.2893  0.1938
46762SOL     OW45223   5.743   3.458   6.920  0.0224 -0.6223  0.1587
46762SOL    HW145224   5.698   3.505   6.850  1.3528 -0.3568 -0.5375
46762SOL    HW245225   5.767   3.374   6.882  2.4160  0.2293 -0.3745
46763SOL     OW45226   0.403   3.082   6.293 -0.6506 -0.1073  0.0492
46763SOL    HW145227   0.451   3.084   6.210 -1.1730  2.0084 -0.2512
46763SOL    HW245228   0.405   3.172   6.324 -0.9249 -0.7602  2.1014
46764SOL     OW45229  11.292   3.834   7.534  0.6847 -0.3679  0.8931
46764SOL    HW145230  11.253   3.908   7.487 -0.5478 -0.8347  1.1572
46764SOL    HW245231  11.236   3.822   7.610  1.4584 -0.9503  1.3776
46765SOL     OW45232   7.886   0.247   9.585  0.2526 -0.0702 -0.0858
46765SOL    HW145233   7.855   0.177   9.529 -0.6469  0.2809 -0.0452
46765SOL    HW245234   7.833   0.323   9.561  1.7970  0.8559 -0.7479
46766SOL     OW45235   8.939   5.170   5.855  0.2762  0.3245 -0.2675
46766SOL    HW145236   8.984   5.179   5.770  0.3889 -0.5806 -0.3092
46766SOL    HW245237   9.003   5.201   5.919  1.8040 -2.7480 -0.1232
46767SOL     OW45238   0.638   6.835   1.311 -0.4053 -0.1706  0.4524
46767SOL    HW145239   0.680   6.793   1.386 -1.5896 -0.1105  1.1819
46767SOL    HW245240   0.567   6.887   1.350 -0.2055  0.9385 -0.6001
46768SOL     OW45241   2.580   5.680  11.095  0.1932 -0.0997  0.0390
46768SOL    HW145242   2.597   5.733  11.018 -0.1819  1.6190  1.0827
46768SOL    HW245243   2.486   5.663  11.092  0.4263 -1.3414 -0.6632
46769SOL     OW45244   0.708   6.807   5.185 -0.5453 -0.1735  0.3075
46769SOL    HW145245   0.672   6.809   5.273 -0.4297  0.5036  0.3483
46769SOL    HW245246   0.788   6.755   5.193 -1.2336 -1.2537  0.3181
46770SOL     OW45247   7.054   1.477   1.378  0.4678 -0.5470  0.5947
46770SOL    HW145248   6.974   1.448   1.333  0.2284 -0.6851  1.1047
46770SOL    HW245249   7.116   1.495   1.307  0.1691 -0.9890  0.2155
46771SOL     OW45250   4.780   2.970   8.614  0.5376  0.4341  1.1537
46771SOL    HW145251   4.850   2.906   8.628  0.3655  0.1625  0.7945
46771SOL    HW245252   4.765   3.009   8.700  1.5824  0.9641  1.1127
46772SOL     OW45253   7.519   5.929  10.026 -0.3157 -0.3243 -0.2787
46772SOL    HW145254   7.565   5.896  10.103  0.0886 -2.0805 -1.2349
46772SOL    HW245255   7.459   5.996  10.061 -1.0179 -1.9126  1.7434
46773SOL     OW45256   0.421   8.221   5.789  0.5725  0.0209  0.2575
46773SOL    HW145257   0.396   8.292   5.730 -0.1078 -1.4394 -1.2715
46773SOL    HW245258   0.517   8.221   5.787  0.5536 -0.3191 -1.2572
46774SOL     OW45259   1.760   4.561   0.353 -0.4315 -0.5561  0.2185
46774SOL    HW145260   1.769   4.497   0.282  0.6307  1.3714 -1.4761
46774SOL    HW245261   1.668   4.588   0.348 -0.2686 -0.1076 -0.7936
46775SOL     OW45262   4.445  10.074   5.319  0.5214  0.2435  0.2432
46775SOL    HW145263   4.383  10.087   5.391 -1.7085 -1.7698 -1.1619
46775SOL    HW245264   4.517  10.025   5.358 -1.0642 -1.6270  0.9993
46776SOL     OW45265   3.117   4.135   4.447 -0.2971  0.0344 -0.1865
46776SOL    HW145266   3.033   4.093   4.427 -0.1817  0.0074 -0.6330
46776SOL    HW245267   3.095   4.206   4.508 -0.5470 -0.4102  0.2414
46777SOL     OW45268   8.713   7.944   0.966 -0.5782 -0.3441 -0.1222
46777SOL    HW145269   8.713   7.866   1.021 -2.2644 -0.7384 -0.6324
46777SOL    HW245270   8.664   7.919   0.888 -0.1310  0.8819 -0.8300
46778SOL     OW45271  11.426   8.308   4.676  0.1925 -0.4160 -0.1987
46778SOL    HW145272  11.512   8.278   4.705  0.3336 -0.2702 -0.4710
46778SOL    HW245273  11.443   8.360   4.598 -0.0779  0.1774  0.1306
46779SOL     OW45274   9.663  11.522   6.133 -0.5561 -0.1844  0.3819
46779SOL    HW145275   9.596  11.520   6.065 -0.1399  1.8904 -0.1436
46779SOL    HW245276   9.714  11.442   6.118 -1.5954 -0.7042 -0.5477
46780SOL     OW45277   8.612   3.221   1.028  0.9702  0.1445 -0.1802
46780SOL    HW145278   8.550   3.286   0.995  0.2794 -0.9045 -1.0224
46780SOL    HW245279   8.636   3.170   0.951  0.3078 -1.5708  0.7103
46781SOL     OW45280   8.864   5.515   6.265 -0.1430  0.4835 -0.0776
46781SOL    HW145281   8.920   5.497   6.341 -1.0181 -2.0430  0.0639
46781SOL    HW245282   8.774   5.510   6.300 -0.6673 -2.8481 -1.5235
46782SOL     OW45283   5.028  10.472   5.788 -0.3921  0.4868  0.4237
46782SOL    HW145284   4.963  10.443   5.852  0.1478 -1.6866  0.0692
46782SOL    HW245285   5.113  10.457   5.830 -0.0561  0.0775 -0.3697
46783SOL     OW45286   1.922   7.025   7.570  0.7693  0.1271 -0.4359
46783SOL    HW145287   1.835   7.061   7.559  0.4715 -0.8181 -1.3237
46783SOL    HW245288   1.976   7.072   7.507  0.9366  0.7752  0.1761
46784SOL     OW45289   2.978   7.991   1.072 -0.8045  0.2967 -0.3905
46784SOL    HW145290   2.931   7.942   1.005 -0.7994  0.2512 -0.3606
46784SOL    HW245291   2.966   7.940   1.152  0.3514 -0.3857 -0.6283
46785SOL     OW45292   2.236  11.253   6.944  0.2174 -0.1260  0.1054
46785SOL    HW145293   2.240  11.159   6.930 -1.3728 -0.0191 -1.3497
46785SOL    HW245294   2.213  11.262   7.037  2.4968 -1.0538  0.8543
46786SOL     OW45295   4.509   9.473   0.896  0.4553  0.3730  0.0543
46786SOL    HW145296   4.595   9.474   0.853  0.0736  0.5703 -0.7262
46786SOL    HW245297   4.476   9.562   0.885  0.0256  0.2183  0.0910
46787SOL     OW45298   6.153   1.001  11.287 -0.1623 -0.0002 -0.4328
46787SOL    HW145299   6.090   0.988  11.358 -0.8349 -1.3405 -1.2109
46787SOL    HW245300   6.124   1.081  11.244 -1.0508 -0.3260 -0.4720
46788SOL     OW45301  10.800   1.673   0.622 -0.3485  0.1107 -0.1434
46788SOL    HW145302  10.865   1.615   0.582 -1.6170 -1.1420 -0.4747
46788SOL    HW245303  10.789   1.639   0.711 -0.4367  0.4213 -0.0329
46789SOL     OW45304   3.217   9.244   0.200  0.0523  0.5574  0.1735
46789SOL    HW145305   3.178   9.159   0.219 -0.8591  0.6089 -1.3099
46789SOL    HW245306   3.157   9.307   0.241 -0.0477  0.5425  0.0492
46790SOL     OW45307   8.004   4.218  10.335  0.4420 -0.2277 -0.1282
46790SOL    HW145308   7.926   4.272  10.327  0.6276  0.3141  1.4688
46790SOL    HW245309   7.999   4.157  10.261 -0.0602  1.5654 -1.6203
46791SOL     OW45310   5.006   5.957   2.682 -0.5252  0.2813 -0.1805
46791SOL    HW145311   5.005   5.952   2.778 -1.4675  0.6328 -0.1643
46791SOL    HW245312   5.088   5.914   2.657 -1.1014 -1.4202  0.7012
46792SOL     OW45313   9.885   8.794   9.800  0.1220 -0.1091 -0.2999
46792SOL    HW145314   9.948   8.806   9.871 -0.0773 -0.2248 -0.1034
46792SOL    HW245315   9.815   8.741   9.838  0.6451 -1.3027 -0.9551
46793SOL     OW45316   8.621   1.917   3.865  0.3448  0.8346 -0.1198
46793SOL    HW145317   8.530   1.915   3.834  0.3275 -1.3357 -0.0922
46793SOL    HW245318   8.616   1.962   3.949 -0.6785  0.9732 -0.2348
46794SOL     OW45319   3.972   3.028   1.608  0.3954  0.1978 -0.4715
46794SOL    HW145320   3.944   3.012   1.698 -1.0343  0.2055 -0.8991
46794SOL    HW245321   3.912   3.095   1.575  0.3486 -0.4155 -1.6887
46795SOL     OW45322   0.339   0.264   4.650 -0.2961  0.1547 -0.2438
46795SOL    HW145323   0.368   0.210   4.577 -2.2167 -0.5887 -0.5118
46795SOL    HW245324   0.357   0.212   4.728 -2.5039 -1.1185 -0.5244
46796SOL     OW45325   3.347   2.773   3.097  0.4306 -0.4315 -0.2001
46796SOL    HW145326   3.429   2.815   3.123  0.1276  0.1539 -0.1505
46796SOL    HW245327   3.281   2.811   3.156 -0.1026  0.1780 -1.1611
46797SOL     OW45328   5.728   7.969   2.427  0.2172 -0.2778  0.4988
46797SOL    HW145329   5.640   8.006   2.420  0.3747 -0.1518 -1.8336
46797SOL    HW245330   5.714   7.874   2.430 -0.0257 -0.3196 -0.9654
46798SOL     OW45331   8.193   5.716   6.674  0.0743 -0.4095  0.4839
46798SOL    HW145332   8.115   5.767   6.650 -0.5663 -1.4035  0.4022
46798SOL    HW245333   8.228   5.762   6.751 -1.2920 -0.6211  1.2716
46799SOL     OW45334   2.142   5.938   8.974 -0.1900  0.5885 -0.5088
46799SOL    HW145335   2.053   5.925   8.942  0.3189  0.2564 -1.8986
46799SOL    HW245336   2.186   5.855   8.957 -0.2168 -0.1317  2.4696
46800SOL     OW45337   6.182  11.419   9.995  0.7230 -0.5874  0.4670
46800SOL    HW145338   6.218  11.430   9.907 -0.6350  0.7585  0.0189
46800SOL    HW245339   6.211  11.497  10.043  0.3159 -0.6227  0.7776
46801SOL     OW45340   2.213  11.339   9.342  0.4099 -0.5093  0.0753
46801SOL    HW145341   2.196  11.324   9.435  1.5299 -0.4169  0.3136
46801SOL    HW245342   2.271  11.414   9.340 -0.5595  0.2440 -0.7871
46802SOL     OW45343   8.479   5.384   7.898  0.5285 -0.3504 -0.5214
46802SOL    HW145344   8.492   5.290   7.885 -1.5783 -0.6360 -0.9976
46802SOL    HW245345   8.489   5.422   7.810  0.6178 -0.2352 -0.4615
46803SOL     OW45346   2.669   2.154   0.608  0.3908 -0.2030 -0.5840
46803SOL    HW145347   2.703   2.197   0.687  0.4604 -0.2980 -0.5619
46803SOL    HW245348   2.735   2.173   0.542  0.3223 -0.1058 -0.6253
46804SOL     OW45349   1.717   3.706  10.000  0.1898 -0.2382  0.2748
46804SOL    HW145350   1.727   3.637  10.066 -0.8835 -0.5414  0.1368
46804SOL    HW245351   1.623   3.720   9.994  0.2952  0.0411 -0.9298
46805SOL     OW45352   2.344   0.046   6.476 -0.1253  0.0037 -0.5832
46805SOL    HW145353   2.278   0.005   6.531 -1.0214  1.0680 -0.8356
46805SOL    HW245354   2.382  -0.027   6.427  3.2237 -1.6422  3.7820
46806SOL     OW45355   9.437   6.457   8.587  0.3958  0.3758  0.1560
46806SOL    HW145356   9.523   6.465   8.628  0.9053  2.6526 -1.1795
46806SOL    HW245357   9.375   6.473   8.657  1.0944  0.1520  0.8339
46807SOL     OW45358   8.139   0.858   4.214 -0.1321 -0.4212  0.2007
46807SOL    HW145359   8.099   0.874   4.129 -2.8021 -0.3052  1.3776
46807SOL    HW245360   8.151   0.945   4.252 -0.5791 -0.5313  0.6121
46808SOL     OW45361   9.590   7.817   9.185 -0.1111 -0.2721 -0.4510
46808SOL    HW145362   9.520   7.876   9.211 -0.8654 -0.8816 -1.0586
46808SOL    HW245363   9.662   7.837   9.245 -0.4024  1.1310 -0.5327
46809SOL     OW45364   9.144   7.190   1.842 -0.4035 -0.4385  0.5710
46809SOL    HW145365   9.106   7.116   1.795 -1.1115  1.1961 -1.6035
46809SOL    HW245366   9.068   7.241   1.870 -0.0020  1.8899 -2.1685
46810SOL     OW45367  11.676   3.639   2.313 -0.4100  0.3919 -0.6120
46810SOL    HW145368  11.592   3.597   2.328  1.2462 -3.0714  0.0604
46810SOL    HW245369  11.733   3.568   2.282  2.6822  2.1403  0.5913
46811SOL     OW45370   2.743   1.039   3.220  0.3731 -0.0248 -0.0443
46811SOL    HW145371   2.738   0.956   3.269  1.4610 -0.7695 -1.1573
46811SOL    HW245372   2.786   1.016   3.138  1.3272  1.7845 -0.0955
46812SOL     OW45373   0.013   6.635   4.410  0.4265  0.4326 -0.0094
46812SOL    HW145374  -0.022   6.719   4.378  2.0042  0.2935 -2.3330
46812SOL    HW245375  -0.064   6.578   4.413 -0.5678  1.7513  0.9931
46813SOL     OW45376   6.873   4.089   7.463 -0.0313 -0.3051 -0.4585
46813SOL    HW145377   6.792   4.061   7.506  0.1468 -2.0339 -1.1466
46813SOL    HW245378   6.863   4.058   7.372  1.8678 -1.6347 -0.2675
46814SOL     OW45379  11.030   2.839   1.355  0.0061 -0.0865 -0.5826
46814SOL    HW145380  11.075   2.756   1.371 -1.8948 -0.9355  0.7759
46814SOL    HW245381  11.002   2.834   1.263  1.0123 -0.3659 -0.8785
46815SOL     OW45382   4.637   6.437   5.564  0.2303  0.8225 -0.5422
46815SOL    HW145383   4.711   6.452   5.622  0.3078  1.0476 -0.7015
46815SOL    HW245384   4.573   6.392   5.619 -0.5956  2.9767  0.3682
46816SOL     OW45385   5.704   4.248   4.240 -0.1404 -0.0143 -0.7821
46816SOL    HW145386   5.765   4.273   4.309 -0.1569  4.2863 -2.0445
46816SOL    HW245387   5.754   4.186   4.186  1.5214  0.0521  0.5957
46817SOL     OW45388   0.347   6.903   4.858 -0.1979 -0.3899 -0.0166
46817SOL    HW145389   0.400   6.923   4.935 -0.9382  1.6511  0.0093
46817SOL    HW245390   0.407   6.913   4.784 -0.4401  1.8356  0.0176
46818SOL     OW45391   6.038   6.079   6.870  0.1381 -0.4306 -0.3023
46818SOL    HW145392   6.014   5.989   6.890  1.7442 -0.9813 -0.7058
46818SOL    HW245393   5.956   6.122   6.849 -0.4434 -2.4035 -2.4503
46819SOL     OW45394   2.652   4.861   5.334 -0.0414  0.2513  0.3535
46819SOL    HW145395   2.673   4.791   5.273  0.7651  0.2186  0.6528
46819SOL    HW245396   2.729   4.919   5.331 -0.8953  1.3915 -0.2634
46820SOL     OW45397   0.723   4.145   2.519  0.3590 -0.0892  0.6599
46820SOL    HW145398   0.659   4.182   2.458  0.5089 -1.4641 -0.3620
46820SOL    HW245399   0.773   4.220   2.550 -1.0691  0.8865  0.6977
46821SOL     OW45400   2.877   2.922   8.474  0.8241  0.4873 -0.7865
46821SOL    HW145401   2.790   2.888   8.497  0.8678 -0.3399 -1.7856
46821SOL    HW245402   2.931   2.902   8.551  0.5978 -0.8141 -0.9422
46822SOL     OW45403   5.729   9.609   1.930  0.0711 -0.4644  0.0651
46822SOL    HW145404   5.749   9.694   1.969  0.0876 -0.0562 -0.8035
46822SOL    HW245405   5.814   9.566   1.924  0.1375 -0.3343  0.0505
46823SOL     OW45406   1.608  10.713   9.956 -0.0406 -0.5487 -0.2856
46823SOL    HW145407   1.575  10.635   9.911  0.6121 -0.1363 -1.5265
46823SOL    HW245408   1.550  10.784   9.927  1.1576 -0.0376 -1.5815
46824SOL     OW45409   0.101  11.272   6.782 -0.1004  0.5326 -0.0582
46824SOL    HW145410   0.060  11.304   6.862 -0.2230  0.2334  0.0019
46824SOL    HW245411   0.179  11.225   6.811 -0.5276 -0.1938 -0.0515
46825SOL     OW45412   3.275   3.609   3.741 -0.0916  0.0439 -0.2642
46825SOL    HW145413   3.367   3.615   3.716  0.6764 -3.3373  1.1521
46825SOL    HW245414   3.227   3.624   3.660  1.7462  0.3695 -1.3678
46826SOL     OW45415   3.284  10.912   2.822 -0.2151 -0.8637 -0.3020
46826SOL    HW145416   3.259  10.995   2.782 -1.4996 -1.2677 -0.3906
46826SOL    HW245417   3.354  10.878   2.766  0.9637  0.5496  0.2358
46827SOL     OW45418   4.808   3.422   8.610  0.1360  0.4906  0.1059
46827SOL    HW145419   4.815   3.501   8.557  0.3908  0.8957  0.7348
46827SOL    HW245420   4.810   3.350   8.547  1.5968  0.9138 -0.3728
46828SOL     OW45421  10.928   4.954   3.850 -0.2555  0.2556 -0.0235
46828SOL    HW145422  10.929   4.922   3.941  0.6591  0.6303  0.1138
46828SOL    HW245423  10.989   4.897   3.804  0.8539  1.3167  0.0686
46829SOL     OW45424   5.252   6.878   1.031  0.1965  0.2510 -0.5424
46829SOL    HW145425   5.316   6.835   0.974  0.1147 -1.5050  0.6130
46829SOL    HW245426   5.304   6.938   1.084  0.4081  1.1625 -1.7404
46830SOL     OW45427   6.507   2.580  10.363 -0.3586 -0.0840  0.3591
46830SOL    HW145428   6.511   2.616  10.274  2.0348  0.2918  0.5338
46830SOL    HW245429   6.572   2.631  10.412  0.8868 -2.5201  1.4276
46831SOL     OW45430   5.010   2.123   2.181 -0.6785 -0.0842 -0.4240
46831SOL    HW145431   4.932   2.171   2.154 -1.3424 -0.8668  0.0503
46831SOL    HW245432   4.998   2.108   2.275  0.6949  0.9458 -0.0440
46832SOL     OW45433   4.825   9.112   1.664 -0.5721 -0.0722  0.4379
46832SOL    HW145434   4.731   9.125   1.675 -0.1965  0.5069  3.9438
46832SOL    HW245435   4.861   9.200   1.650 -0.3914 -0.1019  0.7084
46833SOL     OW45436   4.685   3.300   0.290  0.3388  0.4691  0.5212
46833SOL    HW145437   4.769   3.265   0.320  0.4189  0.6366  0.4914
46833SOL    HW245438   4.682   3.389   0.325  1.5933  1.6388 -2.0605
46834SOL     OW45439   2.304  11.274   2.815 -0.0455  0.2002 -0.1303
46834SOL    HW145440   2.321  11.245   2.905 -1.8486 -3.1643 -0.6945
46834SOL    HW245441   2.216  11.313   2.818 -1.3532 -2.4193 -0.7155
46835SOL     OW45442   8.454   9.589   4.408 -0.1385 -0.4920 -0.1089
46835SOL    HW145443   8.405   9.511   4.432  0.7833 -1.3110 -0.7809
46835SOL    HW245444   8.435   9.601   4.315 -2.0324  1.4235  0.4413
46836SOL     OW45445   8.950   0.249   2.620  0.3531  0.1824  0.1368
46836SOL    HW145446   8.873   0.236   2.674  1.3038  0.4920  1.6280
46836SOL    HW245447   9.014   0.186   2.654  0.9956  0.4234 -0.5906
46837SOL     OW45448   6.332   3.455   4.534  0.0422  0.6609  0.0219
46837SOL    HW145449   6.325   3.508   4.455 -2.6623  1.7658  0.8748
46837SOL    HW245450   6.330   3.365   4.503 -1.8847  1.0591 -1.1871
46838SOL     OW45451   6.951  11.017   3.878 -0.0899 -0.4794 -0.7435
46838SOL    HW145452   6.907  10.954   3.820  0.6326 -0.7881 -0.9711
46838SOL    HW245453   6.996  11.077   3.818  0.9194 -0.9859 -0.5153
46839SOL     OW45454   7.382  10.834   3.215  0.4770  0.2551 -0.2028
46839SOL    HW145455   7.400  10.751   3.172  0.4051 -0.9011  1.8488
46839SOL    HW245456   7.463  10.884   3.206  0.7038 -0.2486 -0.9948
46840SOL     OW45457   0.347   8.178   6.506 -0.0109 -0.1204 -0.2978
46840SOL    HW145458   0.294   8.134   6.439  0.2528  0.4910 -0.9127
46840SOL    HW245459   0.436   8.148   6.489  0.0971  0.2587 -0.3957
46841SOL     OW45460  11.384   6.510  11.355  0.2030 -0.0819  0.0293
46841SOL    HW145461  11.468   6.466  11.345 -0.4832 -1.1271 -1.5883
46841SOL    HW245462  11.354   6.485  11.442  0.8486 -1.0458 -0.0087
46842SOL     OW45463   4.472   0.654   5.443 -0.3138  0.0025  0.9002
46842SOL    HW145464   4.405   0.699   5.494 -0.4530  0.5513  0.2510
46842SOL    HW245465   4.428   0.577   5.408 -0.4846  0.1405  0.8120
46843SOL     OW45466   9.925   5.565   7.195 -0.2316  0.1627 -0.1078
46843SOL    HW145467   9.931   5.638   7.257  0.7629  0.4383 -0.5086
46843SOL    HW245468   9.863   5.504   7.236 -0.4625  0.8580  0.6127
46844SOL     OW45469   1.250  11.133   6.961 -0.0495 -0.2048 -0.1047
46844SOL    HW145470   1.166  11.095   6.989 -1.5046  2.9520  0.2310
46844SOL    HW245471   1.232  11.166   6.872  1.3078 -0.7364 -0.6010
46845SOL     OW45472   7.132   7.113  10.363  0.4133  0.2667 -0.2845
46845SOL    HW145473   7.141   7.026  10.401  1.1844  0.2525 -0.4684
46845SOL    HW245474   7.038   7.126  10.354  0.2290  0.0316  1.0592
46846SOL     OW45475   5.422   0.059  10.316  0.1094  0.4353  0.1852
46846SOL    HW145476   5.371   0.124  10.268 -1.2377 -0.8536 -0.2335
46846SOL    HW245477   5.452  -0.002  10.248  0.6961  0.2081  0.6474
46847SOL     OW45478   2.125  11.275   9.859 -0.1393  0.1874  0.7811
46847SOL    HW145479   2.048  11.242   9.904 -0.9580  0.0306 -0.6847
46847SOL    HW245480   2.189  11.290   9.929 -0.5825 -2.1307  1.7724
46848SOL     OW45481   4.636   2.033   8.216  0.3327  0.0139  0.0476
46848SOL    HW145482   4.706   2.091   8.187  0.4220 -1.3894 -2.8859
46848SOL    HW245483   4.680   1.949   8.234 -0.2311 -0.0804  1.0778
46849SOL     OW45484   7.705  10.788   2.483 -0.3794 -0.2871  0.2998
46849SOL    HW145485   7.775  10.780   2.418 -1.2645  1.2708 -0.9031
46849SOL    HW245486   7.708  10.879   2.511 -0.6944 -0.6788  1.7178
46850SOL     OW45487   6.354   0.404   2.059  0.1336 -0.5734  0.8088
46850SOL    HW145488   6.272   0.373   2.020  0.7129 -0.9439 -0.1362
46850SOL    HW245489   6.327   0.476   2.116 -0.9476 -1.2200  1.1659
46851SOL     OW45490   6.340   7.779  11.249  0.4733  0.1496 -0.1958
46851SOL    HW145491   6.318   7.854  11.194 -1.1641  0.8617  1.3058
46851SOL    HW245492   6.255   7.737  11.266  0.8896  0.0007  1.7693
46852SOL     OW45493   1.077   8.710   5.069  0.7087 -0.4527  0.1228
46852SOL    HW145494   1.120   8.628   5.095  2.4444  0.1468 -0.6972
46852SOL    HW245495   1.006   8.683   5.012 -0.1337 -1.4941  1.5837
46853SOL     OW45496   0.878   5.590   1.468  0.1064  0.4690 -0.2437
46853SOL    HW145497   0.970   5.613   1.458 -0.2756  2.5863  0.7515
46853SOL    HW245498   0.846   5.645   1.539 -1.8938 -0.3712 -0.4212
46854SOL     OW45499   5.793   6.338   4.102 -0.1860 -0.3248  0.4621
46854SOL    HW145500   5.740   6.330   4.181 -0.2393  1.8160  0.7000
46854SOL    HW245501   5.796   6.432   4.085 -1.4075 -0.7694 -2.9347
46855SOL     OW45502  10.962   6.446   2.744  0.4682  0.1182 -0.0187
46855SOL    HW145503  10.992   6.536   2.730 -0.4701  0.4817  0.2448
46855SOL    HW245504  10.909   6.427   2.666  0.4977 -0.1356  0.0233
46856SOL     OW45505   5.713  11.160  10.049 -0.1549  0.3562 -0.2285
46856SOL    HW145506   5.803  11.148  10.020 -1.3126 -0.3774 -4.0397
46856SOL    HW245507   5.708  11.253  10.072  1.1603  0.8614 -1.7877
46857SOL     OW45508   3.703   8.475   2.415  0.1951 -0.2087 -0.2547
46857SOL    HW145509   3.664   8.388   2.408  1.0632 -0.7540  1.2869
46857SOL    HW245510   3.635   8.528   2.456  0.4997 -0.7888  1.0571
46858SOL     OW45511   0.294  11.139   5.576  0.4317  0.7498 -0.6055
46858SOL    HW145512   0.207  11.153   5.539  1.3789  2.1126 -2.5219
46858SOL    HW245513   0.343  11.096   5.506  1.4477  0.5148  0.2246
46859SOL     OW45514   0.365   1.516   8.953  0.2054  0.1790 -0.0673
46859SOL    HW145515   0.287   1.539   9.002 -0.4666  0.0760 -1.0619
46859SOL    HW245516   0.377   1.589   8.893 -0.3579 -0.7584 -1.3663
46860SOL     OW45517   3.056   1.533  11.078 -0.6652 -0.2654 -0.1660
46860SOL    HW145518   3.151   1.521  11.080 -0.7009 -0.4987  0.7418
46860SOL    HW245519   3.023   1.463  11.134 -1.2547  0.7896  0.8636
46861SOL     OW45520   0.079   7.888  11.193 -0.3378  0.1194 -0.4161
46861SOL    HW145521   0.033   7.941  11.258 -2.3499  0.4784 -2.0303
46861SOL    HW245522   0.127   7.952  11.140 -0.7403  0.0834 -0.8247
46862SOL     OW45523   5.123   6.258   1.652  0.2110  0.1594 -0.1355
46862SOL    HW145524   5.116   6.256   1.557 -0.5253  0.3920 -0.0904
46862SOL    HW245525   5.143   6.167   1.677  0.2051  0.0593 -0.4916
46863SOL     OW45526   6.245   6.466  11.103 -0.3062 -0.0820 -0.0756
46863SOL    HW145527   6.299   6.545  11.097  1.0140 -1.0065 -1.0015
46863SOL    HW245528   6.198   6.462  11.019 -3.7291  1.9273  1.5294
46864SOL     OW45529   8.042   4.023   2.933 -0.3454  0.8641 -1.1522
46864SOL    HW145530   7.971   4.031   2.997 -1.3265  1.6661 -2.3054
46864SOL    HW245531   8.092   3.947   2.963 -1.6000  0.3597 -0.2317
46865SOL     OW45532   2.887   6.093   5.642  0.6378  0.4566  0.5527
46865SOL    HW145533   2.851   6.128   5.724  1.2200  0.8969  0.6245
46865SOL    HW245534   2.810   6.074   5.588  0.2699  0.6441  1.0014
46866SOL     OW45535  10.138   4.263   0.454 -0.1884  0.5467 -0.1064
46866SOL    HW145536  10.230   4.244   0.436 -0.6691 -0.0669 -2.0685
46866SOL    HW245537  10.136   4.358   0.471  0.5307  0.9658 -2.1311
46867SOL     OW45538   3.574   9.689   9.680 -0.6178 -0.9458 -0.1488
46867SOL    HW145539   3.656   9.728   9.711 -0.4297 -3.0203  2.3008
46867SOL    HW245540   3.509   9.758   9.688  0.4296  0.0228  0.1857
46868SOL     OW45541   8.636   9.406   3.328 -0.1275  0.3689  0.0905
46868SOL    HW145542   8.617   9.340   3.394  1.5127  1.0067  1.2504
46868SOL    HW245543   8.598   9.487   3.363 -0.6331  0.4089 -0.5176
46869SOL     OW45544   5.690   6.136  11.339  0.1088  0.4380 -0.3570
46869SOL    HW145545   5.774   6.178  11.355  0.6668 -1.0075  0.6208
46869SOL    HW245546   5.646   6.139  11.424  0.4191 -1.4923 -0.1022
46870SOL     OW45547  10.089  11.110   0.015 -0.0374  1.1632  0.4376
46870SOL    HW145548  10.069  11.200   0.040  0.2046  1.1769  0.5817
46870SOL    HW245549  10.036  11.056   0.074 -0.2267  1.2102  0.3128
46871SOL     OW45550   7.434   1.695   2.072 -0.2117 -0.2569 -0.2373
46871SOL    HW145551   7.408   1.663   2.158  0.1944 -0.8012 -0.3108
46871SOL    HW245552   7.392   1.780   2.064  0.7487  0.3695  1.0163
46872SOL     OW45553   6.957   9.845   4.290 -0.0442  0.0169 -0.1716
46872SOL    HW145554   6.894   9.794   4.239  0.6966 -0.0418 -1.0480
46872SOL    HW245555   7.033   9.855   4.232 -0.2554  2.3387 -0.1248
46873SOL     OW45556   1.886   5.758   3.414 -0.2034 -0.0742 -0.0126
46873SOL    HW145557   1.867   5.709   3.494 -2.3110 -1.3771 -1.2240
46873SOL    HW245558   1.820   5.729   3.351 -0.5099  3.1214 -1.3495
46874SOL     OW45559   8.798   5.705   6.757 -0.4318 -0.2582  0.2729
46874SOL    HW145560   8.829   5.650   6.685 -0.5725 -1.4214  1.0757
46874SOL    HW245561   8.727   5.756   6.719  1.3131  1.2431 -1.1491
46875SOL     OW45562   6.501  10.693   6.817 -0.2331  0.3874 -0.6006
46875SOL    HW145563   6.406  10.692   6.825 -0.4322  0.3962 -2.5355
46875SOL    HW245564   6.531  10.624   6.876 -1.5605 -0.5767 -1.0197
46876SOL     OW45565   3.767   9.528   9.368 -0.0904  0.1562 -0.5831
46876SOL    HW145566   3.701   9.524   9.438 -1.5523  0.9968 -1.8522
46876SOL    HW245567   3.821   9.451   9.382  0.6988  1.1092  2.4310
46877SOL     OW45568   9.175   8.053  10.919  0.4519 -0.1278  0.0827
46877SOL    HW145569   9.122   7.974  10.920  0.2924 -0.0164  0.2911
46877SOL    HW245570   9.255   8.028  10.965  0.6237 -0.3212 -0.3071
46878SOL     OW45571   7.625   7.928   0.078  0.2917 -0.1362 -0.1721
46878SOL    HW145572   7.711   7.895   0.052  0.5632  1.1705 -1.0282
46878SOL    HW245573   7.571   7.921  -0.000  0.2625  1.0740 -0.2770
46879SOL     OW45574   9.631   6.747   1.964 -0.5968  0.3725 -0.0358
46879SOL    HW145575   9.713   6.701   1.981 -0.0198  1.0408 -0.9266
46879SOL    HW245576   9.658   6.837   1.942 -1.2884 -0.0885 -3.2560
46880SOL     OW45577   1.404   1.148   8.268  0.0728 -0.1008 -0.2606
46880SOL    HW145578   1.426   1.141   8.361 -2.1921  0.4241  0.3737
46880SOL    HW245579   1.454   1.224   8.237  3.2190 -2.0187 -0.3203
46881SOL     OW45580  10.819   0.689   2.879 -0.2770 -0.4914  0.2767
46881SOL    HW145581  10.803   0.728   2.966 -3.2774  1.1849 -0.8818
46881SOL    HW245582  10.816   0.763   2.819  0.5265 -1.7747 -1.4351
46882SOL     OW45583   8.933   1.306   6.293  0.1071 -0.3414  0.4762
46882SOL    HW145584   8.954   1.344   6.207  0.2935  0.5618  0.9056
46882SOL    HW245585   8.862   1.361   6.326 -1.7797 -2.2425 -0.1712
46883SOL     OW45586   3.064   4.389  11.393  0.8945  0.0934  0.1403
46883SOL    HW145587   3.123   4.411  11.465 -0.2639 -1.5121  1.6774
46883SOL    HW245588   3.117   4.333  11.335  1.3617  0.0402  0.6116
46884SOL     OW45589  10.381   2.091   3.208 -0.6503  0.1043 -0.4366
46884SOL    HW145590  10.304   2.140   3.180  0.0344  0.4299 -1.8862
46884SOL    HW245591  10.353   1.999   3.207 -1.3761  0.3090  0.3368
46885SOL     OW45592   2.200   7.753   9.694  0.1765 -0.4948  0.2024
46885SOL    HW145593   2.274   7.697   9.716  0.3298  0.3377  1.9666
46885SOL    HW245594   2.221   7.787   9.607  1.0482 -1.5563 -0.0220
46886SOL     OW45595   5.061   3.454   2.069 -0.0333 -0.1255  0.3370
46886SOL    HW145596   5.046   3.417   1.982 -0.3307  0.9468 -0.0882
46886SOL    HW245597   5.102   3.384   2.119 -2.6449 -1.8366  0.2782
46887SOL     OW45598   5.550   3.110   3.054 -0.2357 -0.2047 -0.2362
46887SOL    HW145599   5.545   3.203   3.076 -1.2701  0.0092 -1.2499
46887SOL    HW245600   5.459   3.085   3.036  0.0646 -1.3505 -0.2257
46888SOL     OW45601   9.529   3.514   1.804 -0.1239 -0.1511  0.7446
46888SOL    HW145602   9.461   3.574   1.773 -1.1736 -1.2194  0.9249
46888SOL    HW245603   9.597   3.572   1.839 -0.4102  0.9755 -0.4561
46889SOL     OW45604   5.010  11.605   6.180 -0.2795 -0.1431 -0.5452
46889SOL    HW145605   5.056  11.581   6.100 -0.9328 -0.8050 -0.7351
46889SOL    HW245606   5.038  11.541   6.245 -3.7169 -3.0906 -1.6132
46890SOL     OW45607   9.650   9.723   1.077 -0.1065 -0.0913  0.0832
46890SOL    HW145608   9.680   9.814   1.078 -1.5192  0.4006  1.0507
46890SOL    HW245609   9.601   9.713   1.159  2.3723 -2.5801  1.3939
46891SOL     OW45610   6.172   0.970   0.765 -0.3415  0.8269 -0.1308
46891SOL    HW145611   6.244   1.018   0.805  0.7903 -0.8506 -0.0691
46891SOL    HW245612   6.203   0.879   0.760 -2.9922 -0.2788  1.3131
46892SOL     OW45613   0.842   9.360   6.830 -0.4264 -0.0840 -0.2612
46892SOL    HW145614   0.812   9.302   6.900 -1.1314  0.2031 -0.3250
46892SOL    HW245615   0.919   9.315   6.794  0.1297 -0.0980  0.8804
46893SOL     OW45616   0.557   8.544   5.098 -0.1771 -0.2159  0.9551
46893SOL    HW145617   0.533   8.585   5.014 -0.1405  0.2939  1.1895
46893SOL    HW245618   0.483   8.563   5.156  0.7516  1.3685  1.6859
46894SOL     OW45619   6.034   8.711  10.609  0.4428 -0.0753 -0.0116
46894SOL    HW145620   6.109   8.751  10.567 -0.0536  0.8176 -0.0646
46894SOL    HW245621   6.061   8.698  10.700  0.6695  0.2225 -0.0360
46895SOL     OW45622  10.418   5.667   2.346 -0.1911 -0.2079 -0.2066
46895SOL    HW145623  10.453   5.732   2.286  0.2820  0.4179  0.7330
46895SOL    HW245624  10.329   5.697   2.366  0.1945  0.4385  0.6065
46896SOL     OW45625   9.869   3.352   0.054 -0.0134 -0.0721 -0.0634
46896SOL    HW145626   9.874   3.347   0.149 -0.6502 -1.7855 -0.0928
46896SOL    HW245627   9.851   3.444   0.036 -0.0457  0.2465  1.4728
46897SOL     OW45628   8.603  11.383   9.078  0.2217 -0.3860  0.3500
46897SOL    HW145629   8.657  11.459   9.054  0.5685 -0.8164 -0.2575
46897SOL    HW245630   8.533  11.382   9.012  0.1225 -0.5061  0.4570
46898SOL     OW45631   9.949   5.718   1.579 -0.0602 -0.0630 -0.9860
46898SOL    HW145632   9.876   5.697   1.521  1.1719 -0.9529 -2.2797
46898SOL    HW245633  10.001   5.781   1.530  0.9989 -0.8230 -0.8739
46899SOL     OW45634   3.923  10.568   6.387  0.1138  0.5414 -0.3139
46899SOL    HW145635   3.885  10.607   6.308  0.6325  0.0448 -0.8252
46899SOL    HW245636   3.981  10.499   6.354 -1.7407 -1.5826  0.5981
46900SOL     OW45637   6.934  11.112   5.937  0.6715  0.5386 -0.2437
46900SOL    HW145638   6.865  11.159   5.984 -0.5266  0.4843 -1.8873
46900SOL    HW245639   6.929  11.023   5.971  0.2315  0.6389 -0.0338
46901SOL     OW45640  11.216  10.614  10.359  0.6104 -0.2282 -0.3804
46901SOL    HW145641  11.257  10.562  10.427  1.3772 -1.3412 -1.6511
46901SOL    HW245642  11.265  10.696  10.358  1.3534 -0.6673 -0.3737
46902SOL     OW45643   7.217   8.417   3.987 -0.4023  0.2739 -0.4011
46902SOL    HW145644   7.262   8.500   4.006 -0.6302  0.2602  0.2157
46902SOL    HW245645   7.235   8.401   3.894  0.0375  0.7744 -0.4084
46903SOL     OW45646   8.812  11.140   8.049 -0.3021 -0.0320 -0.2809
46903SOL    HW145647   8.808  11.235   8.045  0.4349 -0.0173 -0.9922
46903SOL    HW245648   8.738  11.111   7.995  0.3957  0.1553 -1.3652
46904SOL     OW45649   5.107   9.154   9.719 -0.1179 -0.2860 -0.4155
46904SOL    HW145650   5.038   9.217   9.740 -0.6842 -0.6552 -1.1669
46904SOL    HW245651   5.133   9.175   9.630  0.0860 -0.7578 -0.4686
46905SOL     OW45652   6.943   7.782  11.497 -0.0342  0.3079 -0.0076
46905SOL    HW145653   6.869   7.813  11.446  0.6399 -1.2754 -2.0839
46905SOL    HW245654   6.926   7.689  11.510  0.6160  0.3428  1.2800
46906SOL     OW45655   5.747   7.593   7.390 -0.1376 -0.0342  0.1047
46906SOL    HW145656   5.841   7.603   7.402 -0.2550 -0.0466  1.2027
46906SOL    HW245657   5.712   7.591   7.479 -1.2573  0.7573 -0.2931
46907SOL     OW45658   7.934   8.300   8.135 -0.3013  0.6397 -0.2054
46907SOL    HW145659   7.906   8.254   8.056  1.8789  1.2266 -1.3752
46907SOL    HW245660   8.000   8.243   8.174  0.0876  1.2814  0.0830
46908SOL     OW45661   9.690  10.187   5.140 -0.4424  0.5530  0.1288
46908SOL    HW145662   9.631  10.150   5.206 -1.0502  1.3795  0.0616
46908SOL    HW245663   9.647  10.268   5.112 -0.2752  0.1254 -1.4213
46909SOL     OW45664   8.842   3.013  10.928 -0.1900 -0.4386  0.2731
46909SOL    HW145665   8.750   3.031  10.949  0.1973  0.7968  0.9670
46909SOL    HW245666   8.873   2.958  11.001 -0.1229 -0.0733  0.5193
46910SOL     OW45667   8.546   0.301   8.880 -0.1783 -0.4798  0.1584
46910SOL    HW145668   8.457   0.332   8.899 -0.0583 -0.1685  0.2140
46910SOL    HW245669   8.596   0.380   8.863  0.2426 -0.6030  0.7652
46911SOL     OW45670  11.675  10.709   7.430  0.0072  0.3972  0.2159
46911SOL    HW145671  11.632  10.785   7.391  0.1627  0.5058  0.2503
46911SOL    HW245672  11.626  10.634   7.399 -0.5344  0.5485  0.6839
46912SOL     OW45673   4.958   4.797   8.342 -0.4957 -0.3206 -0.5874
46912SOL    HW145674   5.008   4.874   8.369 -0.8718 -0.5205  0.7337
46912SOL    HW245675   4.951   4.743   8.421 -4.0073  0.3414 -0.2842
46913SOL     OW45676   4.337   3.531   2.024 -0.5680 -0.2155 -0.2568
46913SOL    HW145677   4.255   3.581   2.026  0.0568  0.8194  1.2414
46913SOL    HW245678   4.368   3.539   1.934 -1.6197  0.1983 -0.5978
46914SOL     OW45679  10.467   0.546   1.753  0.1797  0.3056  0.0745
46914SOL    HW145680  10.516   0.493   1.690  0.6007 -0.3752  0.9596
46914SOL    HW245681  10.393   0.492   1.778  0.5984  0.1363  0.9670
46915SOL     OW45682  11.158   5.892   3.734 -0.4995 -0.1863 -0.1123
46915SOL    HW145683  11.144   5.815   3.679  2.7338 -1.1755  0.2141
46915SOL    HW245684  11.201   5.858   3.813 -0.1959  1.8092  0.6566
46916SOL     OW45685   1.961   4.997  10.134 -0.7424  0.1038  0.1780
46916SOL    HW145686   1.875   4.980  10.097 -0.5418  0.7528 -0.6118
46916SOL    HW245687   1.996   5.069  10.081 -0.4080  1.0005  1.5720
46917SOL     OW45688  10.108   3.459   5.567  0.5229  0.3180  0.3853
46917SOL    HW145689  10.195   3.494   5.586  1.7252  0.4929 -4.3396
46917SOL    HW245690  10.119   3.364   5.573  0.9735  0.3495  0.1141
46918SOL     OW45691   7.280   1.463   7.153  1.1611  0.0879 -0.3268
46918SOL    HW145692   7.358   1.488   7.103  0.9758  0.7533 -0.2877
46918SOL    HW245693   7.315   1.419   7.231  1.7642  3.7424  1.7074
46919SOL     OW45694   4.055   7.341   9.729  0.8937 -0.0348  0.2635
46919SOL    HW145695   4.116   7.399   9.773  1.7457 -1.1544  0.6153
46919SOL    HW245696   4.035   7.274   9.794  1.7621 -1.4333 -0.8404
46920SOL     OW45697   3.431  11.521   7.341  0.2467  0.0126 -0.3893
46920SOL    HW145698   3.433  11.544   7.248  1.3340  0.3575 -0.3008
46920SOL    HW245699   3.354  11.565   7.376 -0.0379  0.0644 -1.0790
46921SOL     OW45700   2.656   7.999   7.768 -0.1590 -0.0546 -0.0025
46921SOL    HW145701   2.734   7.999   7.823  0.0894  0.1053 -0.3532
46921SOL    HW245702   2.640   8.091   7.748 -1.1624  0.0344  1.0721
46922SOL     OW45703   1.222   6.023   8.484  0.7377 -1.1224  0.0111
46922SOL    HW145704   1.219   5.982   8.398 -2.8617 -1.4186  0.1291
46922SOL    HW245705   1.239   5.951   8.545  1.2541 -1.2511 -0.2813
46923SOL     OW45706  10.136   5.638   1.739 -0.2955 -0.0179  0.0801
46923SOL    HW145707  10.074   5.677   1.678  0.4947  0.6385 -0.3156
46923SOL    HW245708  10.081   5.598   1.807 -1.1616 -0.0556 -0.6241
46924SOL     OW45709   9.948   3.945   1.498  0.1564  0.4821  0.4769
46924SOL    HW145710   9.933   3.899   1.416  0.0601 -0.2502  0.8912
46924SOL    HW245711  10.025   4.000   1.482  0.0855  0.4081 -0.1212
46925SOL     OW45712   7.093   3.809   2.966 -0.4398 -0.4244  0.3003
46925SOL    HW145713   7.109   3.762   2.885 -0.5044 -0.4597  0.3081
46925SOL    HW245714   7.085   3.741   3.033 -0.7262 -0.4119  0.2798
46926SOL     OW45715   8.908  10.615   0.111  0.3949 -0.1834  0.4471
46926SOL    HW145716   8.899  10.705   0.143  0.1607  0.3948 -1.1448
46926SOL    HW245717   8.819  10.590   0.087  0.6043 -0.4870 -0.0119
46927SOL     OW45718   6.104  11.010  10.316 -0.2753 -0.5399 -0.0892
46927SOL    HW145719   6.100  11.101  10.346  0.1530 -1.0203  1.5151
46927SOL    HW245720   6.033  10.966  10.363  1.1234 -1.5556  1.1321
46928SOL     OW45721   5.901   3.595   2.653 -0.3282 -0.0555 -0.1880
46928SOL    HW145722   5.904   3.499   2.653  0.6204 -0.0450  0.6681
46928SOL    HW245723   5.866   3.618   2.566 -0.4201 -1.1664 -0.4612
46929SOL     OW45724   4.489   5.841   7.769 -0.1358  0.4036  0.4125
46929SOL    HW145725   4.455   5.786   7.840  0.4904 -0.3835  0.1277
46929SOL    HW245726   4.453   5.801   7.689  0.5887  0.2027  0.1801
46930SOL     OW45727   0.593   5.408   3.762 -0.1916  0.1330  0.6775
46930SOL    HW145728   0.677   5.441   3.729  0.2225  0.0539  1.6220
46930SOL    HW245729   0.548   5.375   3.684  0.4775  0.5599  0.0978
46931SOL     OW45730  11.425   7.598   5.527  0.1685 -0.1046  0.0578
46931SOL    HW145731  11.459   7.645   5.451  0.9641 -1.5379 -0.5269
46931SOL    HW245732  11.338   7.634   5.541 -0.2109 -0.1700 -1.8806
46932SOL     OW45733   1.942   9.436   4.859  0.0136 -0.6020  0.3920
46932SOL    HW145734   1.927   9.493   4.934  0.4911 -1.6801  1.3311
46932SOL    HW245735   2.033   9.409   4.868 -0.0028 -0.9557 -0.4375
46933SOL     OW45736   6.151   3.283   3.429  0.1781 -0.7233 -0.8313
46933SOL    HW145737   6.210   3.349   3.392  2.0543 -0.7117  1.8816
46933SOL    HW245738   6.074   3.333   3.458  1.5453  0.3625  1.1228
46934SOL     OW45739   8.847   3.567  10.175 -0.5943  0.3624 -0.5802
46934SOL    HW145740   8.859   3.541  10.084 -1.5799  0.6581 -0.8128
46934SOL    HW245741   8.763   3.615  10.175 -0.6266  0.3249  0.4838
46935SOL     OW45742   9.357  10.840  10.186 -0.4634 -0.0838 -0.0520
46935SOL    HW145743   9.340  10.756  10.143 -1.6801  0.5088 -0.7701
46935SOL    HW245744   9.304  10.838  10.266 -0.3617 -0.0578  0.0173
46936SOL     OW45745   5.536   4.447   4.151  0.2142 -0.4754 -0.2630
46936SOL    HW145746   5.540   4.452   4.056  1.2128 -0.2513 -0.2128
46936SOL    HW245747   5.596   4.376   4.174  0.0268 -0.4855  0.2117
46937SOL     OW45748   6.070   6.679   3.701  0.4651 -0.5741  0.3226
46937SOL    HW145749   6.016   6.602   3.717  0.0595 -0.4791 -0.5358
46937SOL    HW245750   6.077   6.685   3.606  2.9668 -1.2467  0.3844
46938SOL     OW45751   9.285   6.591   3.169 -0.9514 -0.0769 -0.1040
46938SOL    HW145752   9.249   6.527   3.107 -0.6211 -0.8033  0.4363
46938SOL    HW245753   9.284   6.674   3.121 -0.4636 -0.6666 -1.1872
46939SOL     OW45754   3.727   8.326   5.450 -0.3286 -0.4494  0.1256
46939SOL    HW145755   3.786   8.253   5.430  0.9554 -0.1568  2.6082
46939SOL    HW245756   3.765   8.401   5.405  1.0486 -0.3455  1.3994
46940SOL     OW45757   7.976   9.951   0.522 -0.1764 -0.0210 -0.4119
46940SOL    HW145758   8.062   9.915   0.542  0.5483  1.2852 -1.0016
46940SOL    HW245759   7.985   9.985   0.432 -1.1815  0.4584 -0.3420
46941SOL     OW45760   2.042   7.512   3.279 -0.4198 -0.4953  0.4751
46941SOL    HW145761   1.958   7.468   3.264 -1.0202  1.0834 -1.2706
46941SOL    HW245762   2.108   7.446   3.259 -1.2070 -1.7013  1.6775
46942SOL     OW45763   5.451   1.587   8.261 -0.3736  0.9249  0.0778
46942SOL    HW145764   5.517   1.639   8.308  0.6879  0.1847 -0.5496
46942SOL    HW245765   5.411   1.649   8.200 -3.4258  2.5572  3.3631
46943SOL     OW45766  10.935   3.895   6.696  0.0655 -0.3105 -0.4363
46943SOL    HW145767  10.885   3.830   6.647 -0.7814 -0.4294  0.5509
46943SOL    HW245768  10.898   3.892   6.784  2.2795 -0.9293  0.5686
46944SOL     OW45769   1.802   6.695  10.681 -0.0824 -0.0659  0.2328
46944SOL    HW145770   1.803   6.646  10.764 -0.3142 -0.2078  0.1490
46944SOL    HW245771   1.813   6.787  10.708  0.7301 -0.1891  0.3662
46945SOL     OW45772   2.602   5.129   8.107 -0.0143  0.3568 -0.1536
46945SOL    HW145773   2.508   5.148   8.099 -0.4707 -1.5461  0.2546
46945SOL    HW245774   2.623   5.150   8.198 -1.0927 -3.0344  1.0522
46946SOL     OW45775   3.306   7.997   6.885  0.3403  0.3904 -0.4198
46946SOL    HW145776   3.389   8.040   6.864  1.6467 -1.4583  0.6568
46946SOL    HW245777   3.278   8.036   6.967 -1.0001  2.4785 -1.7848
46947SOL     OW45778   1.028   6.750   1.957  0.0206 -0.3576  0.4285
46947SOL    HW145779   1.087   6.821   1.933  0.8972 -0.9079  0.8841
46947SOL    HW245780   1.044   6.736   2.050 -0.8967 -0.4681  0.5810
46948SOL     OW45781   5.900   9.521   7.880 -0.4186  0.0157  0.3991
46948SOL    HW145782   5.901   9.552   7.789  1.9301  1.9205  0.9463
46948SOL    HW245783   5.854   9.589   7.928 -0.9690 -0.6066  0.7701
46949SOL     OW45784  10.739   1.197   2.865 -0.0530  0.1996  0.6158
46949SOL    HW145785  10.751   1.250   2.944  1.0972  2.4612 -0.9674
46949SOL    HW245786  10.780   1.113   2.886 -0.0111  0.6546  2.4984
46950SOL     OW45787  11.425   1.843   7.535  0.1833  0.2780 -0.0045
46950SOL    HW145788  11.401   1.773   7.596  3.1568 -0.6321  0.2756
46950SOL    HW245789  11.465   1.910   7.590  2.4815 -0.3488 -0.8133
46951SOL     OW45790  10.051   5.469   9.507 -0.6183 -0.1763  0.2191
46951SOL    HW145791   9.983   5.432   9.563 -0.0602 -1.5321  0.0383
46951SOL    HW245792  10.006   5.488   9.424 -0.9440 -0.3446  0.3543
46952SOL     OW45793   3.497  11.316   5.504  0.8928  0.0547  0.2347
46952SOL    HW145794   3.441  11.377   5.551  0.1334  0.9227 -1.6840
46952SOL    HW245795   3.524  11.364   5.425  1.4513 -1.5789 -0.6217
46953SOL     OW45796   6.945   4.583   7.722 -0.2552 -0.2195 -0.9269
46953SOL    HW145797   6.926   4.496   7.755 -2.1628 -0.2863 -2.0248
46953SOL    HW245798   7.019   4.614   7.774 -0.8151 -1.6965  0.8375
46954SOL     OW45799   6.395   6.176   0.445  0.3141  0.3301  0.1269
46954SOL    HW145800   6.332   6.106   0.427  1.5922 -0.8089 -0.1043
46954SOL    HW245801   6.416   6.211   0.358 -1.0698  1.7204  0.3168
46955SOL     OW45802   6.363   8.312   4.466  0.3482  0.0457  0.0492
46955SOL    HW145803   6.424   8.370   4.511  0.0983 -0.8717  1.6516
46955SOL    HW245804   6.416   8.238   4.438  0.2028 -0.1693  0.3354
46956SOL     OW45805   7.668   1.279   6.126  0.3040 -0.0739  0.7360
46956SOL    HW145806   7.627   1.305   6.208 -1.5975  1.7609 -0.6896
46956SOL    HW245807   7.635   1.191   6.109  1.9388 -1.1376  2.5995
46957SOL     OW45808   7.695   6.918   2.222  0.0902  0.1475 -0.2730
46957SOL    HW145809   7.651   7.001   2.204  0.0193 -0.0417 -1.0206
46957SOL    HW245810   7.763   6.911   2.155  0.7370  0.0571  0.3834
46958SOL     OW45811   1.729   6.189   5.614 -0.4012 -0.1470 -0.4036
46958SOL    HW145812   1.754   6.244   5.688 -0.5467 -0.6490  0.0264
46958SOL    HW245813   1.715   6.251   5.542  0.5593  0.2749 -0.2472
46959SOL     OW45814   4.554  11.494  10.590  0.4111  0.8652  0.3759
46959SOL    HW145815   4.471  11.511  10.545  0.2609 -1.3453 -0.2773
46959SOL    HW245816   4.541  11.409  10.633  2.0497  0.8872  0.9921
46960SOL     OW45817   6.828   4.269   3.431 -0.5619 -0.2602  0.3393
46960SOL    HW145818   6.743   4.274   3.386 -1.9091 -1.5614  2.5573
46960SOL    HW245819   6.875   4.347   3.402 -3.3349  1.6450  0.5435
46961SOL     OW45820   7.543   5.639  10.049 -0.3640  0.1128  0.5315
46961SOL    HW145821   7.509   5.661   9.962 -0.7735 -0.3569  0.5681
46961SOL    HW245822   7.636   5.662  10.045 -0.7029  1.5536  0.4748
46962SOL     OW45823   9.605   2.821   1.301 -0.3868  0.3554  0.2777
46962SOL    HW145824   9.535   2.854   1.244  0.3674 -1.1412 -1.6618
46962SOL    HW245825   9.561   2.794   1.381 -2.0861 -0.6752 -0.9457
46963SOL     OW45826   7.839  10.873   8.802  0.1525 -0.0900  0.1912
46963SOL    HW145827   7.848  10.856   8.896 -0.3313 -2.0538 -0.0819
46963SOL    HW245828   7.758  10.923   8.795 -0.8369 -1.5562  0.6924
46964SOL     OW45829   4.510   5.653   4.597 -0.4234 -0.0101 -0.0657
46964SOL    HW145830   4.420   5.631   4.574 -0.2761 -3.3090  1.7831
46964SOL    HW245831   4.509   5.660   4.693  1.0743  1.0808 -0.1079
46965SOL     OW45832   4.487   3.789   7.977  0.0176 -0.9756  0.1229
46965SOL    HW145833   4.484   3.831   8.063 -0.4248  1.9565 -1.2174
46965SOL    HW245834   4.577   3.799   7.948 -0.2251 -0.4159 -0.4516
46966SOL     OW45835   6.186   8.540   6.423  0.0623  0.3795  0.3443
46966SOL    HW145836   6.170   8.511   6.334 -0.3404 -0.3940  0.6571
46966SOL    HW245837   6.281   8.532   6.434 -0.0604 -1.2264  0.5310
46967SOL     OW45838   9.527   1.731  11.244  0.2215 -0.2707  0.3538
46967SOL    HW145839   9.602   1.723  11.184 -0.3793 -1.9230 -0.2561
46967SOL    HW245840   9.458   1.679  11.202 -0.0398 -2.0016  2.7468
46968SOL     OW45841   0.203  10.022   9.652  0.6432  0.6336 -0.4883
46968SOL    HW145842   0.265   9.953   9.627  2.2516  1.4354  1.0072
46968SOL    HW245843   0.150   9.983   9.721 -0.3036  0.0547 -1.5286
46969SOL     OW45844   2.303   5.732   5.764  0.1604  0.3341 -0.5084
46969SOL    HW145845   2.362   5.793   5.808  0.6912 -0.5309  0.0118
46969SOL    HW245846   2.295   5.659   5.824 -3.2439  1.3384  0.4943
46970SOL     OW45847   7.560   4.733   6.417  0.4504  0.1508  0.5481
46970SOL    HW145848   7.519   4.716   6.331 -0.2838  1.0102  0.7193
46970SOL    HW245849   7.499   4.792   6.461  1.3421  0.5523  1.2607
46971SOL     OW45850   8.498   3.443   3.033 -0.3684 -0.0248  0.2482
46971SOL    HW145851   8.470   3.364   2.989 -1.9333  0.3758  0.4556
46971SOL    HW245852   8.566   3.414   3.094  1.3546 -0.6850 -1.8707
46972SOL     OW45853   9.152   8.363   5.568 -0.3169  0.0805  0.7834
46972SOL    HW145854   9.191   8.360   5.655  2.4126 -2.9391 -0.3359
46972SOL    HW245855   9.162   8.273   5.534 -1.3809  1.0719 -2.5856
46973SOL     OW45856   9.284   0.083   6.771 -0.2471 -0.4218 -0.0933
46973SOL    HW145857   9.252  -0.006   6.753 -0.4350 -0.2753 -0.4918
46973SOL    HW245858   9.205   0.136   6.777 -0.1255 -0.2424 -0.0770
46974SOL     OW45859   1.740   1.784  10.360 -0.5437  0.2562 -0.2841
46974SOL    HW145860   1.734   1.827  10.274 -0.7709 -0.4483 -0.6252
46974SOL    HW245861   1.727   1.691  10.341 -1.6702  0.2059  0.6434
46975SOL     OW45862   5.243  10.708  10.935  0.5892 -0.3573 -0.3304
46975SOL    HW145863   5.167  10.724  10.878 -0.3857 -0.3747  0.9369
46975SOL    HW245864   5.305  10.777  10.910  0.4176 -0.6806 -1.7721
46976SOL     OW45865  10.946   3.433   9.902  0.1701 -0.1948 -0.5736
46976SOL    HW145866  11.027   3.480   9.922 -1.2989  1.7234  1.3679
46976SOL    HW245867  10.922   3.391   9.984 -0.7457 -0.8527 -1.1638
46977SOL     OW45868   0.821   1.925   8.415 -0.4377  0.0665  0.1619
46977SOL    HW145869   0.734   1.949   8.382  0.4619  0.7045 -1.9556
46977SOL    HW245870   0.876   1.923   8.337  1.5360  0.0099  1.4841
46978SOL     OW45871   7.507   8.328   3.398  1.1879 -0.2078  0.4584
46978SOL    HW145872   7.590   8.280   3.403  1.8975  1.1142  2.3292
46978SOL    HW245873   7.440   8.259   3.395  2.3151 -1.3046 -1.1535
46979SOL     OW45874  11.618   5.236   5.395 -0.0130 -0.6828  0.0951
46979SOL    HW145875  11.640   5.145   5.373  0.8925 -0.4020 -0.2186
46979SOL    HW245876  11.702   5.277   5.413 -0.5164 -0.2439  1.6384
46980SOL     OW45877  10.487   5.894   0.366 -0.3116 -0.2156 -0.6245
46980SOL    HW145878  10.572   5.938   0.368 -0.7247  0.5742 -0.0773
46980SOL    HW245879  10.495   5.822   0.429 -0.0353 -0.1850 -0.6239
46981SOL     OW45880   1.799   4.117  11.242  0.2161 -0.1806 -0.8134
46981SOL    HW145881   1.709   4.147  11.239  0.2514  0.0385 -0.0298
46981SOL    HW245882   1.848   4.178  11.187  0.3486  1.4803  1.0156
46982SOL     OW45883   8.874   2.242  10.660  0.1998 -0.9277 -0.0997
46982SOL    HW145884   8.848   2.262  10.750 -0.6278 -1.0068 -0.3122
46982SOL    HW245885   8.890   2.148  10.660 -1.5445 -1.2580 -0.4289
46983SOL     OW45886   6.106   0.551   6.328 -0.0257  0.0193 -0.9228
46983SOL    HW145887   6.154   0.511   6.401 -1.8250  2.7162  1.9893
46983SOL    HW245888   6.175   0.582   6.269  1.5095 -2.2231 -0.4396
46984SOL     OW45889  10.809   6.709   4.493 -0.3084  0.3240 -0.2396
46984SOL    HW145890  10.764   6.762   4.559 -0.5501 -0.0479 -0.1038
46984SOL    HW245891  10.886   6.674   4.539 -1.0912 -0.8925  0.2141
46985SOL     OW45892  10.391   0.791  11.254 -0.1711 -0.0926  0.1933
46985SOL    HW145893  10.471   0.760  11.211 -1.6447 -2.0088 -1.4058
46985SOL    HW245894  10.397   0.755  11.343  0.9898  0.3026  0.3008
46986SOL     OW45895   0.680   8.377   2.989 -0.1096  0.1797 -0.5434
46986SOL    HW145896   0.662   8.343   2.901 -0.5809  0.5474 -0.5951
46986SOL    HW245897   0.744   8.447   2.974 -0.1149  0.1761 -0.5837
46987SOL     OW45898  10.969   5.688   4.957 -0.5212 -0.3406  0.2487
46987SOL    HW145899  10.924   5.646   5.031 -1.2531  1.2162  0.7267
46987SOL    HW245900  10.906   5.752   4.925  0.6242  0.5016 -0.3570
46988SOL     OW45901  10.491  10.419   5.169  0.8141 -0.0293 -0.2969
46988SOL    HW145902  10.505  10.455   5.081 -0.7540 -0.6508 -0.8321
46988SOL    HW245903  10.549  10.343   5.173  1.3378  0.3525 -0.5749
46989SOL     OW45904   6.425   2.924   0.935 -0.2074 -0.8629 -0.2304
46989SOL    HW145905   6.436   2.919   1.030 -2.8613  0.9038  0.2548
46989SOL    HW245906   6.501   2.974   0.905  0.6609 -1.4436  0.9254
46990SOL     OW45907   5.126   8.617   6.424 -0.5152  1.1107 -0.9739
46990SOL    HW145908   5.055   8.674   6.395 -1.0060  1.5479  0.9033
46990SOL    HW245909   5.123   8.623   6.520 -0.4622 -1.8998 -0.6798
46991SOL     OW45910  10.302  10.473   2.399  0.1250 -0.0308  0.2789
46991SOL    HW145911  10.302  10.438   2.489  0.1111  0.1496  0.3489
46991SOL    HW245912  10.216  10.514   2.389 -0.0235 -0.3877  0.0496
46992SOL     OW45913  10.863   2.909   0.846 -0.1125  0.3062  0.4161
46992SOL    HW145914  10.844   2.980   0.784 -1.5557  0.0324  0.5046
46992SOL    HW245915  10.777   2.878   0.873  0.4933 -1.4604  0.4221
46993SOL     OW45916   3.292   8.972   9.681 -0.0608 -0.2895 -0.5667
46993SOL    HW145917   3.355   9.013   9.741 -0.3811 -1.0020  0.2822
46993SOL    HW245918   3.276   9.039   9.614 -1.3111  1.4172  1.3012
46994SOL     OW45919   7.577   0.825   2.319 -0.2110  0.1685  0.1813
46994SOL    HW145920   7.610   0.905   2.278 -0.9859  1.5105  2.0267
46994SOL    HW245921   7.539   0.855   2.402 -0.6273 -2.1141  0.8746
46995SOL     OW45922   4.340   8.817   3.457 -0.5605 -0.2263 -0.5266
46995SOL    HW145923   4.287   8.825   3.535 -0.1974  1.3487 -0.4144
46995SOL    HW245924   4.419   8.771   3.486  0.4426  2.0078  0.5333
46996SOL     OW45925  10.172   3.367   5.088  0.1324 -0.3905  0.0956
46996SOL    HW145926  10.115   3.313   5.142 -0.1957 -0.3868 -0.2457
46996SOL    HW245927  10.256   3.367   5.135  0.5407 -2.2556 -0.5606
46997SOL     OW45928   2.597   5.932   3.294  0.0979 -0.2461 -0.0527
46997SOL    HW145929   2.508   5.967   3.291  0.6377  1.2534 -3.6774
46997SOL    HW245930   2.649   6.002   3.335 -0.1494 -0.4990  0.6995
46998SOL     OW45931   5.796   9.026   8.620  0.2070  0.4525  0.5684
46998SOL    HW145932   5.852   9.002   8.694  0.8301  0.7755  0.2092
46998SOL    HW245933   5.817   9.118   8.603  0.0443  0.3895  0.0074
46999SOL     OW45934   4.323   0.329   3.359 -0.0724  0.2467 -0.3609
46999SOL    HW145935   4.298   0.389   3.430  1.1770 -0.1684  0.4590
46999SOL    HW245936   4.287   0.244   3.385  1.7458 -0.2661  0.6287
47000SOL     OW45937   5.757   5.144   8.259  0.3172  0.3804  0.2214
47000SOL    HW145938   5.751   5.180   8.170  3.7309 -0.3700 -0.4444
47000SOL    HW245939   5.786   5.054   8.246 -1.7010 -0.6395  2.1039
47001SOL     OW45940   1.912   1.289   1.006  0.5007  0.0378 -0.0352
47001SOL    HW145941   1.869   1.348   1.068  0.6089  0.1841 -0.0970
47001SOL    HW245942   1.845   1.271   0.940 -0.2834 -1.7441  1.1750
47002SOL     OW45943   9.986   9.750   8.573 -0.4933  0.1326 -0.2237
47002SOL    HW145944   9.996   9.743   8.668  1.6250  0.5483 -0.3708
47002SOL    HW245945   9.996   9.844   8.555  0.5861 -0.1101 -0.9718
47003SOL     OW45946   6.705   4.279   3.693 -0.0406 -0.1000 -0.3298
47003SOL    HW145947   6.669   4.349   3.640  0.2479  0.1769 -0.1625
47003SOL    HW245948   6.629   4.231   3.726 -0.3077  1.0995  0.8776
47004SOL     OW45949   5.834   2.199   6.805  0.3017  0.1596 -0.7581
47004SOL    HW145950   5.813   2.184   6.898  2.2403 -0.0003 -0.3100
47004SOL    HW245951   5.913   2.148   6.790  1.4989  2.2074 -1.8178
47005SOL     OW45952   5.217   6.475   5.406  0.0292 -0.5795  0.6822
47005SOL    HW145953   5.197   6.560   5.446 -1.4451 -0.7183  0.3143
47005SOL    HW245954   5.185   6.411   5.470  0.3092 -0.8441  0.5580
47006SOL     OW45955   9.202   2.392   3.119  0.1452 -0.3263 -0.4046
47006SOL    HW145956   9.143   2.324   3.087  1.2565 -1.1499 -0.7799
47006SOL    HW245957   9.146   2.453   3.166 -0.7028 -2.3357  1.3480
47007SOL     OW45958   8.649   7.695   9.027 -0.5160 -0.6092  0.0094
47007SOL    HW145959   8.692   7.627   9.079 -0.4515 -0.1489  0.5602
47007SOL    HW245960   8.683   7.682   8.938  0.6802 -0.3363  0.4108
47008SOL     OW45961   7.168   2.247   4.561 -0.0377 -0.3778 -0.6354
47008SOL    HW145962   7.086   2.201   4.581  0.0773 -0.7706 -1.0452
47008SOL    HW245963   7.173   2.247   4.466 -0.6506  1.5955 -0.7127
47009SOL     OW45964   4.846   6.924  11.480  0.4770  0.1263  0.0054
47009SOL    HW145965   4.831   6.936  11.387 -2.5535  1.2410  0.5456
47009SOL    HW245966   4.769   6.876  11.511  1.6338 -0.6241  1.8842
47010SOL     OW45967  10.968   4.515   8.034 -0.1220 -0.2832 -0.2179
47010SOL    HW145968  10.913   4.585   8.000  1.8431  2.1227  1.2123
47010SOL    HW245969  11.011   4.479   7.957 -0.1097  1.0627 -0.8785
47011SOL     OW45970   8.680   8.145   0.633  0.0176  0.3531  0.0906
47011SOL    HW145971   8.586   8.131   0.642  0.1352  0.0407  0.8640
47011SOL    HW245972   8.697   8.134   0.539 -1.0068  2.2797 -0.3671
47012SOL     OW45973   2.417   3.547   7.381 -0.3814  0.4424  0.6145
47012SOL    HW145974   2.404   3.641   7.393  2.2966  0.9361  0.1775
47012SOL    HW245975   2.371   3.527   7.300 -0.6450  1.4655  0.4934
47013SOL     OW45976   6.195   2.230   0.068  0.0321 -0.2515 -0.1123
47013SOL    HW145977   6.164   2.279   0.144 -0.2763 -0.3100 -0.1995
47013SOL    HW245978   6.149   2.269  -0.007 -1.5212 -1.7559 -0.0031
47014SOL     OW45979   0.119   6.208   3.079  0.8433 -0.6364  0.4105
47014SOL    HW145980   0.132   6.128   3.130 -1.2994 -0.5256  1.2083
47014SOL    HW245981   0.036   6.244   3.110  1.1503  1.2747 -0.7845
47015SOL     OW45982   4.010  11.451   0.940  0.1486  0.2208  0.0379
47015SOL    HW145983   3.977  11.367   0.908  0.7223 -0.2897  0.7425
47015SOL    HW245984   3.932  11.504   0.956 -0.2421 -0.3733  0.1029
47016SOL     OW45985   2.027   2.023   9.591 -0.4405 -0.3493 -0.4594
47016SOL    HW145986   1.948   1.994   9.635 -0.7801 -0.4384 -1.1136
47016SOL    HW245987   2.070   1.942   9.564 -1.3943 -0.2838 -2.3009
47017SOL     OW45988   6.873   6.976   7.832  0.4855 -0.1188 -0.3094
47017SOL    HW145989   6.931   6.927   7.891  1.7031  1.3489 -0.2479
47017SOL    HW245990   6.915   6.969   7.746 -0.2180 -0.5435 -0.6300
47018SOL     OW45991   0.009   8.616   4.747 -0.0804 -0.2759 -0.0994
47018SOL    HW145992   0.026   8.523   4.758 -0.8907 -0.3000  1.0979
47018SOL    HW245993  -0.043   8.641   4.824  0.5275  1.2636 -0.1471
47019SOL     OW45994  11.348   6.565  11.051 -0.0930 -0.6211 -0.0276
47019SOL    HW145995  11.363   6.562  11.145  0.6927  1.1189 -0.0582
47019SOL    HW245996  11.435   6.573  11.013 -0.4911  0.4746 -0.7709
47020SOL     OW45997   8.229   2.638   3.557 -0.2943  0.1452 -0.2109
47020SOL    HW145998   8.173   2.689   3.616 -1.0486  0.1054 -0.8849
47020SOL    HW245999   8.220   2.682   3.472 -2.1632 -1.9490 -1.1874
47021SOL     OW46000   8.272   7.677   9.631  0.6186 -0.4504  0.2684
47021SOL    HW146001   8.253   7.751   9.689  0.4206  2.2757 -2.9981
47021SOL    HW246002   8.363   7.689   9.605  0.8346 -1.8673  0.2924
47022SOL     OW46003  11.400   8.904   2.787  0.0296  0.3031  0.2718
47022SOL    HW146004  11.342   8.867   2.854  1.0113  0.9945  1.5745
47022SOL    HW246005  11.488   8.896   2.825  0.8588 -0.9269 -1.7319
47023SOL     OW46006   4.003   5.575   9.505 -0.2193 -0.3481  0.0632
47023SOL    HW146007   4.006   5.669   9.491  3.9592 -0.4799 -1.3162
47023SOL    HW246008   3.928   5.545   9.454  0.3955  1.9307 -2.3856
47024SOL     OW46009   1.477   2.486   2.632  0.3448  0.2406  0.5649
47024SOL    HW146010   1.560   2.507   2.676 -0.3132  1.9949  1.0331
47024SOL    HW246011   1.420   2.560   2.651 -0.8027 -0.1418 -1.1483
47025SOL     OW46012   6.529   5.113   5.104 -0.4649  0.3209 -0.4411
47025SOL    HW146013   6.445   5.143   5.138 -1.2088 -1.9507 -0.1124
47025SOL    HW246014   6.511   5.026   5.068  1.7690 -0.2871 -0.2446
47026SOL     OW46015   4.816   7.400   4.774 -0.6765 -0.1694  0.6744
47026SOL    HW146016   4.803   7.336   4.845 -0.7396  0.8940  1.6542
47026SOL    HW246017   4.796   7.485   4.815 -0.4038  0.4988 -0.5435
47027SOL     OW46018   0.557   7.076  11.419  0.1551 -0.4943 -0.1021
47027SOL    HW146019   0.605   7.063  11.501  1.3337 -0.8636 -0.8278
47027SOL    HW246020   0.467   7.094  11.446  1.0062  2.1127  1.4188
47028SOL     OW46021   9.160   0.579   8.248  0.1315 -0.0467  0.3005
47028SOL    HW146022   9.192   0.589   8.159 -2.7006  1.5688 -0.6649
47028SOL    HW246023   9.207   0.647   8.298  2.1600 -1.3432  0.2616
47029SOL     OW46024   4.638   5.443   8.836 -0.2416 -0.1862 -0.4458
47029SOL    HW146025   4.638   5.411   8.926 -0.9137  0.0905 -0.3424
47029SOL    HW246026   4.550   5.477   8.822 -0.4197 -1.0038 -1.4902
47030SOL     OW46027  11.135   1.339   8.570 -0.3725 -0.4820  0.3379
47030SOL    HW146028  11.092   1.263   8.530 -1.7206 -0.2831  1.3365
47030SOL    HW246029  11.110   1.413   8.515 -2.7237 -0.1122  1.7706
47031SOL     OW46030   0.673   1.051   9.069 -0.5011 -0.0704 -0.8453
47031SOL    HW146031   0.638   1.133   9.104 -0.8043 -1.1184  1.5511
47031SOL    HW246032   0.765   1.051   9.095 -0.5383 -0.5510 -0.7007
47032SOL     OW46033   1.168   9.539   4.862 -0.4298  0.6350 -0.5449
47032SOL    HW146034   1.110   9.555   4.937  0.3820  0.8405  0.0603
47032SOL    HW246035   1.115   9.489   4.801 -0.6724 -0.9022  0.8346
47033SOL     OW46036   7.735   7.362   1.700  0.4850 -0.0419 -0.1069
47033SOL    HW146037   7.665   7.369   1.765  0.0824  0.4210 -0.5808
47033SOL    HW246038   7.796   7.299   1.738 -0.5245 -0.9901  0.0089
47034SOL     OW46039   7.591   5.703   9.359 -0.2557  0.1474 -0.9880
47034SOL    HW146040   7.501   5.718   9.388 -0.6349 -1.3979 -1.3015
47034SOL    HW246041   7.645   5.735   9.431 -1.1274 -1.2359  0.3405
47035SOL     OW46042   1.004   6.773   4.818  0.7399 -0.6529 -0.2802
47035SOL    HW146043   0.982   6.686   4.785  1.4305 -1.0757  0.3410
47035SOL    HW246044   1.037   6.758   4.906  0.9832  0.2273 -0.2098
47036SOL     OW46045  11.078   5.183   3.949 -0.0103  0.2583  0.1643
47036SOL    HW146046  11.162   5.163   3.907  0.5363 -0.5301  1.5296
47036SOL    HW246047  11.020   5.111   3.922  0.6435 -0.8265  1.5173
47037SOL     OW46048   9.722   8.492   0.025  0.7361 -0.2038 -0.3108
47037SOL    HW146049   9.643   8.544   0.039 -0.0500 -1.3364 -0.3629
47037SOL    HW246050   9.773   8.503   0.105  0.4738  0.4476 -0.2297
47038SOL     OW46051   6.829   7.039   4.342  0.7780 -0.3663  0.0794
47038SOL    HW146052   6.903   6.990   4.377  1.0932  0.1326  0.1241
47038SOL    HW246053   6.840   7.036   4.247  0.5112 -0.8184  0.0624
47039SOL     OW46054   7.525   4.584  10.060  0.0484 -0.0542  0.0536
47039SOL    HW146055   7.546   4.494  10.038  1.2616  0.5193 -1.3037
47039SOL    HW246056   7.512   4.584  10.155  1.1248 -1.4408  0.2171
47040SOL     OW46057   2.616  11.054   5.946  0.0682 -0.2801  0.9358
47040SOL    HW146058   2.655  11.141   5.957 -1.5587  0.5840  0.1271
47040SOL    HW246059   2.683  10.994   5.979  0.0451  1.3993  4.5163
47041SOL     OW46060   7.111   5.899   3.908 -0.5928 -0.5247  0.4079
47041SOL    HW146061   7.103   5.832   3.976 -2.7366  0.8090  1.5829
47041SOL    HW246062   7.032   5.890   3.855 -0.3506  0.3208 -0.1266
47042SOL     OW46063   3.205   6.000   3.584  0.0019 -0.1435 -0.7388
47042SOL    HW146064   3.124   6.012   3.534 -0.3197  0.1477 -0.1653
47042SOL    HW246065   3.256   5.937   3.533 -0.3952  0.0011 -1.3310
47043SOL     OW46066   5.519   7.699   6.512 -0.2108  0.4505 -0.3137
47043SOL    HW146067   5.555   7.692   6.423  0.6357 -2.6424  0.1716
47043SOL    HW246068   5.594   7.725   6.566  0.8422 -3.1497  0.2366
47044SOL     OW46069   6.323   1.610   2.203 -0.6329 -0.2274 -0.4866
47044SOL    HW146070   6.353   1.686   2.153  0.1191  0.2512  0.6578
47044SOL    HW246071   6.258   1.645   2.263  0.1699 -0.3394  0.4808
47045SOL     OW46072   5.289   0.243   6.502  0.1436  0.3735 -0.5730
47045SOL    HW146073   5.311   0.323   6.455 -1.1935  1.2507  0.2097
47045SOL    HW246074   5.197   0.255   6.529  0.3915 -0.7226  0.9420
47046SOL     OW46075   7.584   2.283   3.957  0.3245  0.3385  1.0640
47046SOL    HW146076   7.527   2.255   4.029  2.0347 -0.3239  2.2409
47046SOL    HW246077   7.665   2.232   3.970  0.7598  0.3461 -1.2329
47047SOL     OW46078   4.887   5.535   8.808 -0.4658  0.6718  0.6051
47047SOL    HW146079   4.885   5.618   8.759 -0.2354  0.7665  0.7548
47047SOL    HW246080   4.796   5.506   8.809 -0.7120  1.4374  1.4191
47048SOL     OW46081  10.706   0.897   3.133  0.2289  0.1212  0.9921
47048SOL    HW146082  10.690   0.805   3.155  1.5158 -0.2263  0.5459
47048SOL    HW246083  10.622   0.940   3.149 -1.5050 -1.7297 -2.0710
47049SOL     OW46084   4.548   0.987   2.161  0.1940 -0.1180  0.4098
47049SOL    HW146085   4.461   1.027   2.166  1.1582  2.7401 -2.3528
47049SOL    HW246086   4.543   0.929   2.085  0.6216 -0.2666  0.4945
47050SOL     OW46087   8.130  10.143   3.958  0.0714  0.0125  0.4632
47050SOL    HW146088   8.180  10.066   3.983  2.1287  0.8814 -0.7792
47050SOL    HW246089   8.059  10.109   3.904  1.1361 -1.0112 -0.3379
47051SOL     OW46090   3.970  10.683  11.218 -0.1597 -0.2501  0.4229
47051SOL    HW146091   4.010  10.653  11.137 -1.2875  0.9854 -0.6484
47051SOL    HW246092   3.931  10.605  11.257  1.6674 -1.1234  0.5659
47052SOL     OW46093   2.744   6.135   9.948  0.5906 -0.0733  0.3643
47052SOL    HW146094   2.678   6.204   9.939  0.3074 -0.3684  0.1396
47052SOL    HW246095   2.827   6.179   9.932  0.4704  0.3549  0.8947
47053SOL     OW46096   5.458   9.820   4.044  0.2119 -0.0506  0.1785
47053SOL    HW146097   5.429   9.776   3.964 -0.6657  0.5613  0.1373
47053SOL    HW246098   5.448   9.913   4.025 -2.2374  0.0972  1.7438
47054SOL     OW46099   2.973   1.132   2.530  0.5536 -0.5164  0.1219
47054SOL    HW146100   3.028   1.089   2.465 -0.2385 -0.3347 -0.6734
47054SOL    HW246101   3.035   1.177   2.588  1.2673 -0.8204 -0.4032
47055SOL     OW46102   0.801  10.316   0.625  0.6629  0.4911  0.7980
47055SOL    HW146103   0.721  10.338   0.672  0.7620 -0.0822  1.2425
47055SOL    HW246104   0.872  10.348   0.681  0.7435  1.6079  0.0930
47056SOL     OW46105   4.100   1.774   1.754  0.6104  0.0464 -0.4494
47056SOL    HW146106   4.080   1.783   1.847  0.7944 -0.2798 -0.3798
47056SOL    HW246107   4.072   1.858   1.716 -2.0490 -0.7961 -0.5709
47057SOL     OW46108   6.658   6.685   3.221 -0.0813  0.7259 -0.8733
47057SOL    HW146109   6.736   6.628   3.225 -0.4394  0.3228  1.6947
47057SOL    HW246110   6.688   6.769   3.254 -0.8993  0.3038  1.0567
47058SOL     OW46111   8.202   3.391   2.342  0.3805  0.5061  0.0851
47058SOL    HW146112   8.179   3.348   2.260  1.9011 -1.1306  0.4515
47058SOL    HW246113   8.182   3.484   2.328 -1.1759 -0.0280 -1.4302
47059SOL     OW46114   0.525   4.628   9.161 -0.5126  0.0311  0.1707
47059SOL    HW146115   0.469   4.553   9.142  0.7752 -1.1892  0.9937
47059SOL    HW246116   0.576   4.641   9.081  1.3943 -1.9599  0.9471
47060SOL     OW46117   8.195   9.496   5.153  0.3754  0.5710  0.0991
47060SOL    HW146118   8.235   9.579   5.179 -2.1212  1.8220  0.2369
47060SOL    HW246119   8.128   9.520   5.089  1.3705 -1.6829 -1.9510
47061SOL     OW46120   9.544   8.509   8.426  0.1292  0.0751 -0.2626
47061SOL    HW146121   9.458   8.470   8.409  0.6891 -1.2883 -0.0856
47061SOL    HW246122   9.537   8.544   8.515  0.5763 -2.5899  0.9387
47062SOL     OW46123   6.691   7.570   8.628 -0.2041 -0.5775 -0.2866
47062SOL    HW146124   6.620   7.628   8.599 -1.8229 -1.5421  1.4870
47062SOL    HW246125   6.670   7.486   8.588  1.0153 -0.4356 -1.2514
47063SOL     OW46126   5.185   3.046   8.558 -0.2967 -0.4203  0.0941
47063SOL    HW146127   5.124   2.973   8.553 -2.2887  1.1641 -0.4428
47063SOL    HW246128   5.216   3.046   8.648 -1.4405 -1.0679  0.5136
47064SOL     OW46129   4.651   9.124   5.192 -0.1070 -0.2709 -0.0292
47064SOL    HW146130   4.564   9.165   5.195 -0.4089 -0.7713 -1.2153
47064SOL    HW246131   4.712   9.198   5.189 -0.5141  0.0859  0.2841
47065SOL     OW46132  10.813   7.623   4.981 -0.1468  0.0164 -0.1177
47065SOL    HW146133  10.738   7.613   5.040 -0.0400  1.2791  0.2638
47065SOL    HW246134  10.888   7.637   5.039 -0.1971  2.3112 -0.4942
47066SOL     OW46135   8.021   6.388   1.638  0.3688 -0.6814 -0.3025
47066SOL    HW146136   8.042   6.474   1.603 -0.4456 -0.5487 -0.4875
47066SOL    HW246137   8.106   6.345   1.650  1.0255  1.1125  2.3475
47067SOL     OW46138   9.461   3.747   0.305 -0.1104  0.4835 -0.0806
47067SOL    HW146139   9.378   3.772   0.264 -1.1583 -1.8127  0.4451
47067SOL    HW246140   9.494   3.827   0.345 -1.8642  1.5494 -0.6726
47068SOL     OW46141   7.042   8.272   2.251 -0.6566 -0.3253 -0.2706
47068SOL    HW146142   7.006   8.290   2.163  1.8609 -2.2716 -1.8339
47068SOL    HW246143   7.099   8.347   2.269 -1.7949  0.4767  0.1243
47069SOL     OW46144  11.364   4.143   7.568  0.1582  0.2228  0.2779
47069SOL    HW146145  11.441   4.098   7.532  1.5199  0.2313  2.9184
47069SOL    HW246146  11.347   4.097   7.651 -3.0391 -0.0912 -0.4443
47070SOL     OW46147   6.081   5.283   3.099 -0.4675 -0.1163 -0.4791
47070SOL    HW146148   6.154   5.296   3.038 -0.4518  0.0334 -0.4290
47070SOL    HW246149   6.122   5.278   3.185 -0.5427  0.2620 -0.4206
47071SOL     OW46150   5.036   6.060   4.633 -0.3692 -0.1319 -0.3612
47071SOL    HW146151   5.065   5.978   4.593 -0.0261 -0.4968  0.5924
47071SOL    HW246152   5.059   6.050   4.726  1.1882  1.7053 -0.4777
47072SOL     OW46153   4.010  11.012   2.570  0.3701 -0.7543  0.6488
47072SOL    HW146154   4.037  11.025   2.661  0.5243 -1.2725  0.6843
47072SOL    HW246155   3.973  11.096   2.543  1.5735 -0.1799  0.7492
47073SOL     OW46156   7.295   1.931   2.030 -0.1596 -0.6726  0.0080
47073SOL    HW146157   7.206   1.931   1.996  0.3004 -0.7296 -1.2210
47073SOL    HW246158   7.286   1.968   2.118 -1.6765 -2.5202  0.7070
47074SOL     OW46159   4.269   0.962   0.326 -0.2335  0.2545  0.0268
47074SOL    HW146160   4.312   1.030   0.378  0.2853  0.1004 -0.1862
47074SOL    HW246161   4.176   0.983   0.330 -0.0442  1.2572 -0.4193
47075SOL     OW46162   5.436   0.480   4.360  0.8816  0.1946 -0.3253
47075SOL    HW146163   5.402   0.569   4.360 -1.6947 -0.7107 -1.3328
47075SOL    HW246164   5.471   0.467   4.448 -1.6514  1.1670  0.8938
47076SOL     OW46165  11.171   3.573  10.573  0.1185  0.0378 -0.0365
47076SOL    HW146166  11.264   3.595  10.579  0.5080 -1.3286 -0.6013
47076SOL    HW246167  11.145   3.603  10.486  0.3070 -0.5119 -0.2857
47077SOL     OW46168   2.158   8.127   7.835  0.3404  0.4474  0.3193
47077SOL    HW146169   2.252   8.117   7.851  0.5870 -1.1150 -1.6928
47077SOL    HW246170   2.120   8.042   7.860  0.1138 -0.4114 -2.5843
47078SOL     OW46171   5.035   8.371   8.844  0.1670  0.1086  0.1734
47078SOL    HW146172   4.987   8.289   8.860 -1.2432  1.0809  1.1195
47078SOL    HW246173   5.067   8.396   8.931  0.1664  0.8155 -0.0322
47079SOL     OW46174   5.666   6.439   5.858  0.0435 -0.1284  0.1905
47079SOL    HW146175   5.629   6.503   5.920  0.5358 -1.1830  1.6105
47079SOL    HW246176   5.754   6.472   5.840 -0.9869  1.7058 -2.2306
47080SOL     OW46177   2.509   2.417   1.489 -0.1929  0.5461 -0.2289
47080SOL    HW146178   2.443   2.485   1.488  0.9824  1.7490 -1.3417
47080SOL    HW246179   2.573   2.445   1.555 -0.1191  0.0924 -0.1005
47081SOL     OW46180   2.676   6.775   0.470 -0.3850  0.9102  0.2962
47081SOL    HW146181   2.705   6.686   0.491  0.5668  0.8509 -1.1062
47081SOL    HW246182   2.751   6.830   0.493 -1.0354  1.4084  1.3319
47082SOL     OW46183   8.308   3.445   4.102  0.3444  0.0454 -0.0279
47082SOL    HW146184   8.217   3.420   4.121  1.0839 -0.6879  3.2109
47082SOL    HW246185   8.356   3.363   4.104  1.2213  0.5111 -1.0033
47083SOL     OW46186   3.229   4.909   7.553  0.3123  0.4411  0.1148
47083SOL    HW146187   3.317   4.932   7.582  0.1095  0.1811  0.9560
47083SOL    HW246188   3.171   4.946   7.619  0.0084 -3.7234  2.5207
47084SOL     OW46189   3.630   8.099  10.522  0.4757  0.0227  0.7168
47084SOL    HW146190   3.544   8.125  10.488  0.5542 -0.3433  0.2184
47084SOL    HW246191   3.624   8.114  10.616 -0.2470 -0.2861  0.7295
47085SOL     OW46192  10.914  10.695   0.838 -0.3903  0.2072  0.1408
47085SOL    HW146193  10.954  10.732   0.916 -1.6634  0.6163  0.6232
47085SOL    HW246194  10.987  10.679   0.778  0.2129  3.7884 -0.2556
47086SOL     OW46195   0.833  10.603  10.794 -0.0033  0.2994  0.0744
47086SOL    HW146196   0.802  10.675  10.849  0.3150  2.4239 -2.3107
47086SOL    HW246197   0.889  10.646  10.729 -0.4930 -1.9902 -2.0062
47087SOL     OW46198   9.302   0.938   2.778 -0.5950 -0.5295 -0.1911
47087SOL    HW146199   9.286   0.953   2.685 -1.4698 -0.7608 -0.0902
47087SOL    HW246200   9.352   0.856   2.782 -0.6480 -0.5741 -0.4496
47088SOL     OW46201   3.864   0.554   5.741  0.3183 -0.7279  0.0323
47088SOL    HW146202   3.803   0.603   5.685  0.4730 -2.0901 -1.3850
47088SOL    HW246203   3.828   0.564   5.829 -1.8128 -1.2156 -0.7108
47089SOL     OW46204   3.425   3.910   2.828  0.3972  0.1315  0.1693
47089SOL    HW146205   3.371   3.974   2.875  0.8758  1.5031 -1.0753
47089SOL    HW246206   3.376   3.891   2.748  0.3102 -1.0091  0.4768
47090SOL     OW46207   2.813   2.952   9.549 -0.2731 -0.0513 -0.1292
47090SOL    HW146208   2.851   3.011   9.484  2.9020 -0.9052  0.7649
47090SOL    HW246209   2.820   2.865   9.510 -2.5202 -0.1804 -0.3840
47091SOL     OW46210   5.415   1.872   3.991  1.0549 -0.0710  0.1891
47091SOL    HW146211   5.392   1.934   4.060  0.6432 -2.0821  2.0062
47091SOL    HW246212   5.502   1.900   3.961  0.6504  1.6614  0.5591
47092SOL     OW46213   5.151   2.743   3.540 -0.2356  0.0216 -0.1424
47092SOL    HW146214   5.121   2.721   3.628  0.6787 -0.2599  0.1189
47092SOL    HW246215   5.247   2.740   3.547 -0.1556  0.0328 -1.1368
47093SOL     OW46216   2.632   9.935   8.265 -0.2017 -0.0382  0.3438
47093SOL    HW146217   2.575   9.930   8.189  0.8019 -0.8465 -0.3749
47093SOL    HW246218   2.716   9.966   8.230  0.3797 -0.7731  1.0576
47094SOL     OW46219   5.980  10.018  10.960  0.2766 -0.1319  0.6108
47094SOL    HW146220   5.941  10.085  10.904  0.1806  0.0420  0.8854
47094SOL    HW246221   5.995  10.062  11.044  0.5276 -0.3576  0.6887
47095SOL     OW46222   9.536  10.537   9.480  0.1257 -0.2993  0.8925
47095SOL    HW146223   9.605  10.538   9.414 -0.8377  1.3969 -0.1632
47095SOL    HW246224   9.579  10.564   9.561  0.6661  1.1444  0.1578
47096SOL     OW46225   6.235   5.354   3.712 -0.0807 -0.9966  0.3636
47096SOL    HW146226   6.143   5.381   3.717  0.5466  1.0985  1.8128
47096SOL    HW246227   6.237   5.270   3.758 -0.9385  0.0307  2.4116
47097SOL     OW46228   7.174   0.706   2.319 -0.0681  0.2895  0.3810
47097SOL    HW146229   7.206   0.694   2.229 -1.2501  2.3214 -0.3879
47097SOL    HW246230   7.082   0.678   2.315  0.1685 -0.6317  1.2424
47098SOL     OW46231  11.366   4.619  11.177 -0.7304  0.1821  0.3565
47098SOL    HW146232  11.453   4.629  11.217 -0.3335  1.0881 -0.6714
47098SOL    HW246233  11.329   4.542  11.220  0.3661  0.0906  1.2028
47099SOL     OW46234   9.396   4.984   9.884  0.7045 -0.6130 -0.3538
47099SOL    HW146235   9.453   4.978   9.961 -0.0566  0.5153  0.3357
47099SOL    HW246236   9.307   4.975   9.921  0.3393 -0.1974 -1.1260
47100SOL     OW46237   3.197   5.752   1.938 -0.0352  0.3728 -0.0005
47100SOL    HW146238   3.132   5.775   2.005 -0.7087  2.0565 -1.1538
47100SOL    HW246239   3.256   5.827   1.936 -0.0819  0.3886 -1.3361
47101SOL     OW46240   2.211  10.919  10.068 -0.2583  0.1991 -0.2317
47101SOL    HW146241   2.249  10.833  10.089 -0.3655  0.5706  1.6909
47101SOL    HW246242   2.120  10.912  10.097 -0.9183  0.2744 -2.1256
47102SOL     OW46243   8.813  11.118   0.046 -0.4876  0.1016 -0.4657
47102SOL    HW146244   8.758  11.188   0.081 -0.6348  0.8509 -2.0763
47102SOL    HW246245   8.751  11.057   0.005 -0.6413 -2.4597  3.0716
47103SOL     OW46246   8.042   1.993   6.570 -0.0925  0.5039 -0.3278
47103SOL    HW146247   8.018   1.900   6.565 -0.3842  0.5605 -0.0592
47103SOL    HW246248   8.054   2.009   6.664  3.1892 -0.0590 -0.5473
47104SOL     OW46249  10.648   9.814   5.657 -0.4616 -0.3539  0.2104
47104SOL    HW146250  10.625   9.889   5.711  0.3901 -1.5881  2.4140
47104SOL    HW246251  10.567   9.763   5.652 -0.9295  0.4428 -0.9477
47105SOL     OW46252   0.677   7.375  10.233 -0.2682  0.7269 -0.5239
47105SOL    HW146253   0.710   7.344  10.148  1.0581  0.5218  0.0398
47105SOL    HW246254   0.587   7.341  10.237  0.4408 -1.3823 -0.8128
47106SOL     OW46255   0.984   0.218   0.629 -0.3956  0.8915  0.0406
47106SOL    HW146256   1.073   0.183   0.629 -0.8304 -0.2690 -0.4647
47106SOL    HW246257   0.994   0.308   0.660  0.8108  0.4535  1.0335
47107SOL     OW46258   5.457  10.098   3.490 -0.2957  0.0025  0.0620
47107SOL    HW146259   5.380  10.126   3.440  0.4619 -0.7408 -1.6122
47107SOL    HW246260   5.487  10.020   3.445 -0.4600 -1.6943  2.6812
47108SOL     OW46261   1.112   9.715   1.167  0.3505 -0.1719 -0.2940
47108SOL    HW146262   1.028   9.756   1.144 -0.4982 -1.1470  0.9202
47108SOL    HW246263   1.174   9.787   1.171 -0.8055  0.8192  0.4341
47109SOL     OW46264   4.037   9.542   1.419  0.0638 -0.1439 -0.0292
47109SOL    HW146265   4.108   9.521   1.479 -0.1903 -2.0849 -0.3426
47109SOL    HW246266   3.961   9.496   1.455 -1.3595  2.6579  0.8449
47110SOL     OW46267   7.090   6.012   6.156  0.5730 -0.1112 -0.1041
47110SOL    HW146268   7.120   5.996   6.246 -2.4101 -2.2919  0.6514
47110SOL    HW246269   7.025   6.081   6.164 -1.6182 -2.0502 -0.0272
47111SOL     OW46270   1.623   7.476   4.693  0.4988 -0.1210  0.5315
47111SOL    HW146271   1.670   7.521   4.764 -0.2577 -0.2337  1.1213
47111SOL    HW246272   1.533   7.471   4.724 -0.3683  1.8188 -1.3860
47112SOL     OW46273  10.322   6.591   9.373 -0.4324 -0.0225 -0.1960
47112SOL    HW146274  10.277   6.536   9.309  1.1374  0.2093 -1.5938
47112SOL    HW246275  10.323   6.678   9.333 -1.5819  0.7332  1.3128
47113SOL     OW46276   7.732   5.103  11.628 -0.1288 -0.2735  0.3819
47113SOL    HW146277   7.797   5.152  11.578 -0.5904 -0.2993 -0.2557
47113SOL    HW246278   7.727   5.148  11.712  0.1344  0.2126  0.1387
47114SOL     OW46279   2.972  11.158   4.392 -0.2282  0.6940 -0.3199
47114SOL    HW146280   3.015  11.122   4.315 -0.8576 -0.5106 -0.1402
47114SOL    HW246281   3.014  11.243   4.407 -1.1068  1.6830 -2.8767
47115SOL     OW46282   7.464   4.832   8.955 -0.3059 -0.2818  1.0768
47115SOL    HW146283   7.426   4.852   8.870  2.1199 -0.7544 -0.1896
47115SOL    HW246284   7.533   4.897   8.966 -0.3666 -0.4353  2.5487
47116SOL     OW46285   1.113   7.247   4.941  1.0613  0.0609  0.3479
47116SOL    HW146286   1.173   7.246   5.016  1.6108 -2.6731 -0.0415
47116SOL    HW246287   1.056   7.172   4.953  0.1562  0.4390 -1.2122
47117SOL     OW46288   7.600  11.448   5.616  0.1261 -0.8025 -0.0834
47117SOL    HW146289   7.614  11.524   5.560  3.8616 -0.3534  1.1818
47117SOL    HW246290   7.592  11.484   5.705  0.2037 -1.7630  0.3353
47118SOL     OW46291   9.882   5.090   6.528 -0.2305  0.2150  0.2255
47118SOL    HW146292   9.917   5.049   6.449 -0.2000 -0.6056  0.6490
47118SOL    HW246293   9.889   5.021   6.595  0.0660  1.0108  1.0240
47119SOL     OW46294   8.612   1.420   2.501 -0.0919 -0.2851 -0.1180
47119SOL    HW146295   8.603   1.363   2.577  1.3726 -1.0883 -0.5071
47119SOL    HW246296   8.655   1.366   2.434 -1.3769  0.3806 -1.5581
47120SOL     OW46297   4.545   8.595   6.868  0.2210 -0.0451  0.1546
47120SOL    HW146298   4.543   8.648   6.789  1.6144  1.5183  1.1080
47120SOL    HW246299   4.565   8.506   6.837 -1.5942  0.0238 -1.4110
47121SOL     OW46300   2.761  11.270   2.662 -0.2763  0.3293 -0.6917
47121SOL    HW146301   2.752  11.288   2.755  0.7642 -1.1588 -0.2723
47121SOL    HW246302   2.823  11.336   2.630 -0.6751  0.8727 -0.3757
47122SOL     OW46303   4.258   2.322  10.677 -0.1428 -0.0488 -0.4277
47122SOL    HW146304   4.274   2.320  10.771 -2.3352 -0.3489 -0.0095
47122SOL    HW246305   4.196   2.251  10.662 -1.8448  1.6183 -1.6693
47123SOL     OW46306   3.327   1.176   2.492 -0.1695  0.4739  0.3583
47123SOL    HW146307   3.286   1.089   2.494  0.2049  0.2995  0.6039
47123SOL    HW246308   3.255   1.236   2.473 -0.7984  0.3067  1.9992
47124SOL     OW46309   3.557   6.687   5.803 -0.6051 -0.1078 -0.1886
47124SOL    HW146310   3.592   6.775   5.817  0.5669 -0.4608 -0.7624
47124SOL    HW246311   3.482   6.700   5.745 -1.8410  0.7241  1.5034
47125SOL     OW46312  10.114   4.491   3.223 -0.3566 -0.3193  0.4987
47125SOL    HW146313  10.170   4.462   3.296 -0.2381  0.2211  0.6297
47125SOL    HW246314  10.167   4.477   3.145 -0.3535 -0.5850  0.5498
47126SOL     OW46315   6.671   5.392   6.999  0.0400 -0.4307 -0.4895
47126SOL    HW146316   6.722   5.411   7.078 -1.0440  1.7538 -0.2466
47126SOL    HW246317   6.736   5.392   6.928  0.7053  0.0723  0.1045
47127SOL     OW46318   5.777   9.664   7.661 -0.3865 -0.7411 -0.7304
47127SOL    HW146319   5.730   9.746   7.675  0.0478 -0.4510 -0.9765
47127SOL    HW246320   5.708   9.601   7.637 -1.0403 -1.0033  1.5631
47128SOL     OW46321   1.819   7.869   5.280 -0.4724 -0.8198 -0.0740
47128SOL    HW146322   1.881   7.813   5.328  2.5520  0.2025 -2.5023
47128SOL    HW246323   1.813   7.949   5.332 -0.8668 -1.4383  0.8583
47129SOL     OW46324   1.191   0.297   4.091 -0.0744  0.3016  0.1241
47129SOL    HW146325   1.239   0.344   4.023  0.8067 -0.9412 -0.1548
47129SOL    HW246326   1.147   0.225   4.045 -1.6527  0.9890  0.4858
47130SOL     OW46327   3.129   9.777   8.298  0.1267  0.6431 -0.1442
47130SOL    HW146328   3.218   9.811   8.310  1.1041 -1.7904  0.1854
47130SOL    HW246329   3.117   9.715   8.370 -1.0826 -0.5149 -1.2824
47131SOL     OW46330   7.482   7.295   3.390 -0.1643 -0.0762 -0.4589
47131SOL    HW146331   7.508   7.217   3.439 -0.5189 -0.2683 -0.5731
47131SOL    HW246332   7.390   7.307   3.411 -1.3888 -2.2770 -3.8508
47132SOL     OW46333   3.017   5.321   1.666 -0.5314 -0.3910  0.1273
47132SOL    HW146334   3.061   5.321   1.581  1.9586 -0.2703  1.3248
47132SOL    HW246335   3.035   5.408   1.702 -0.2585 -0.9352  1.3605
47133SOL     OW46336   2.972   6.277   7.466 -0.0455 -0.0619 -0.5374
47133SOL    HW146337   3.027   6.303   7.391  1.1200  0.2974  0.4182
47133SOL    HW246338   3.026   6.293   7.543 -0.3500 -2.5647  0.3000
47134SOL     OW46339   2.223   6.440   8.493 -0.1212  0.2511 -0.0242
47134SOL    HW146340   2.290   6.389   8.538 -0.6883  0.9775  1.7240
47134SOL    HW246341   2.270   6.483   8.421  0.9388 -0.4805  0.2067
47135SOL     OW46342   6.362  10.252   6.555 -0.0922  0.0805 -0.2050
47135SOL    HW146343   6.269  10.274   6.565  0.3281  2.1553 -0.5333
47135SOL    HW246344   6.391  10.304   6.481  0.8474 -2.2630 -1.5928
47136SOL     OW46345   5.014   0.200   7.813  0.0082  0.0513  0.4708
47136SOL    HW146346   4.979   0.242   7.891  0.7164 -1.2095  1.5262
47136SOL    HW246347   5.093   0.154   7.844 -0.2732 -1.3451 -0.7460
47137SOL     OW46348   7.944  10.139   8.777 -0.1573 -0.1508  0.3384
47137SOL    HW146349   7.937  10.109   8.686  1.2042 -0.3174  0.2607
47137SOL    HW246350   8.028  10.185   8.780 -0.0824 -0.3496  1.5682
47138SOL     OW46351   6.451   2.503   1.885 -0.0091 -0.1026 -0.2835
47138SOL    HW146352   6.364   2.513   1.923 -0.4215  0.5100 -1.3454
47138SOL    HW246353   6.503   2.572   1.927 -1.2170  2.6320 -2.8571
47139SOL     OW46354   8.055   8.065   2.380  0.1328  0.1500  0.4384
47139SOL    HW146355   8.085   8.070   2.471 -0.1790 -0.0923  0.5565
47139SOL    HW246356   8.055   7.971   2.360  4.3436  0.3066 -1.2060
47140SOL     OW46357  11.068  10.747   3.534  0.6070  0.3346 -0.0840
47140SOL    HW146358  11.127  10.821   3.548  1.3478 -0.2799  0.1439
47140SOL    HW246359  11.089  10.716   3.446  2.7379 -1.6634  1.0160
47141SOL     OW46360   4.241   8.506   3.654 -0.6623 -0.3554 -0.2661
47141SOL    HW146361   4.330   8.541   3.658 -0.4097 -0.9283 -0.7087
47141SOL    HW246362   4.221   8.483   3.745 -0.6874  0.5746 -0.0342
47142SOL     OW46363   1.221   8.763   9.505 -0.8107 -0.4715  0.3740
47142SOL    HW146364   1.164   8.840   9.495 -0.5464 -0.4889 -1.6474
47142SOL    HW246365   1.294   8.795   9.558 -0.3267  0.9267 -1.0624
47143SOL     OW46366   6.045   4.902  10.497  0.5947  0.3609  0.2385
47143SOL    HW146367   5.987   4.918  10.573 -0.3750 -3.3281  0.4436
47143SOL    HW246368   6.127   4.945  10.521 -0.5047  1.5878  2.1480
47144SOL     OW46369   6.463   2.391   9.868  0.3555  0.4792  0.1120
47144SOL    HW146370   6.547   2.405   9.912  1.1188  1.1852 -1.4978
47144SOL    HW246371   6.448   2.296   9.873  2.1861  0.0842 -1.1972
47145SOL     OW46372  11.213  10.663   4.709 -0.2988 -0.4825 -0.2972
47145SOL    HW146373  11.239  10.705   4.627  1.5254  0.1668  0.5539
47145SOL    HW246374  11.296  10.635   4.749 -1.3140 -3.6556 -0.1215
47146SOL     OW46375   2.850  10.090   8.136 -0.7410 -0.2356  0.2215
47146SOL    HW146376   2.788  10.115   8.067 -1.1593  0.7849  0.9526
47146SOL    HW246377   2.903  10.168   8.152  0.8862 -1.1431 -0.5085
47147SOL     OW46378   3.988   9.585   2.160 -0.4522  0.3871  0.3362
47147SOL    HW146379   4.002   9.514   2.097 -0.4694 -0.2182  0.9966
47147SOL    HW246380   3.965   9.540   2.242  0.4644  1.1086  1.0169
47148SOL     OW46381   7.689   7.392   9.934 -0.2808 -0.2830  0.6970
47148SOL    HW146382   7.599   7.386   9.964 -0.7047  2.1933  0.1541
47148SOL    HW246383   7.686   7.455   9.862  1.4948 -2.1523 -1.1530
47149SOL     OW46384   0.766   6.989   3.312  0.9025  0.4295  0.1445
47149SOL    HW146385   0.778   7.080   3.340 -1.7686  0.3489  1.8871
47149SOL    HW246386   0.812   6.937   3.378 -0.6631  0.4549  1.3197
47150SOL     OW46387   1.921   3.302   3.859  0.0881  0.8313  0.3401
47150SOL    HW146388   2.007   3.334   3.832  2.5373 -1.4767  4.3434
47150SOL    HW246389   1.902   3.351   3.939 -1.1836 -0.3143  0.7631
47151SOL     OW46390  10.281  11.565   0.532 -0.2930  0.0320  0.1565
47151SOL    HW146391  10.363  11.561   0.581  1.6095  0.9826 -2.6902
47151SOL    HW246392  10.246  11.476   0.534 -0.1406 -0.0299  2.8194
47152SOL     OW46393   1.696   9.047   7.375 -0.9212 -0.1724  0.4764
47152SOL    HW146394   1.705   8.961   7.417  1.5151  0.5366  1.6113
47152SOL    HW246395   1.653   9.102   7.441 -1.3302 -0.1948  0.2321
47153SOL     OW46396   2.451   8.139   4.473 -1.1409  0.1137 -0.0684
47153SOL    HW146397   2.455   8.164   4.565 -0.7651 -1.8837  0.5220
47153SOL    HW246398   2.541   8.116   4.450 -1.5452 -1.4057 -0.2753
47154SOL     OW46399  10.192   0.615   9.867 -0.3185  0.3517 -0.2542
47154SOL    HW146400  10.197   0.519   9.873 -0.4591  0.4212  1.2619
47154SOL    HW246401  10.103   0.632   9.835 -0.7089  0.0049  0.6335
47155SOL     OW46402   7.858   9.983   3.610 -0.3908 -0.0789 -0.3053
47155SOL    HW146403   7.939   9.954   3.650 -0.6982 -0.8994 -0.2672
47155SOL    HW246404   7.875  10.074   3.585  0.8282 -0.4931 -1.0705
47156SOL     OW46405   9.578   9.562   8.284  0.4740  0.3856 -0.5016
47156SOL    HW146406   9.546   9.482   8.242  0.9282  1.1683 -2.4561
47156SOL    HW246407   9.499   9.613   8.302 -0.0341 -1.2672  2.6644
47157SOL     OW46408   9.618   6.167   2.477 -0.3438 -0.3456  0.2236
47157SOL    HW146409   9.557   6.230   2.516 -0.7620  0.8576 -2.2042
47157SOL    HW246410   9.677   6.220   2.425  0.8127 -1.7916  0.0048
47158SOL     OW46411   1.011   0.142   8.793 -0.2977 -0.4667 -0.1766
47158SOL    HW146412   1.067   0.219   8.799 -0.8042 -0.0470 -0.8801
47158SOL    HW246413   1.073   0.069   8.787  0.2091 -0.2492  1.5726
47159SOL     OW46414   8.937   3.246  10.702  0.1346 -0.1719 -0.0466
47159SOL    HW146415   8.867   3.311  10.695  0.4337  0.3692  1.5296
47159SOL    HW246416   8.965   3.251  10.793  0.3379 -2.3558  0.0719
47160SOL     OW46417   9.702  11.653  11.153  0.1262 -0.1058 -0.8093
47160SOL    HW146418   9.774  11.705  11.119  0.1123  0.2162 -0.3619
47160SOL    HW246419   9.633  11.717  11.173  0.0295 -0.3173 -0.4493
47161SOL     OW46420   7.393   1.098  10.504  0.3020  0.1843 -0.1670
47161SOL    HW146421   7.398   1.082  10.410 -0.9147 -0.1688 -0.1860
47161SOL    HW246422   7.426   1.018  10.544  0.7505  0.3071 -0.2798
47162SOL     OW46423   1.816   4.063   0.369  0.2003  0.4436  0.1671
47162SOL    HW146424   1.884   4.053   0.435  0.6428  0.2821 -0.3054
47162SOL    HW246425   1.738   4.024   0.408  0.4970  0.2036  0.5231
47163SOL     OW46426   0.480   6.189   8.068 -0.2020  0.0913 -0.8871
47163SOL    HW146427   0.539   6.125   8.109 -0.3477 -1.0808 -2.4105
47163SOL    HW246428   0.418   6.211   8.137  0.2308 -0.9470 -0.1314
47164SOL     OW46429  11.569   0.741   1.513 -0.6071 -0.4427 -0.2566
47164SOL    HW146430  11.478   0.770   1.504 -0.3735 -0.1118 -1.8246
47164SOL    HW246431  11.621   0.819   1.494  0.0211 -0.6985  0.3644
47165SOL     OW46432   3.040   2.527  10.091  0.6912  0.1023  0.0369
47165SOL    HW146433   3.031   2.554   9.999  1.9729  0.5384  0.0226
47165SOL    HW246434   2.949   2.516  10.121  0.2399  0.2554 -1.1803
47166SOL     OW46435   4.945   2.062   0.140  0.5127 -0.7546  0.1492
47166SOL    HW146436   4.890   1.995   0.180 -1.5768  0.1624 -1.0245
47166SOL    HW246437   4.894   2.095   0.066  1.2611  2.3836  0.8569
47167SOL     OW46438   6.188  10.247   3.244  0.5308 -0.2521 -0.4167
47167SOL    HW146439   6.096  10.269   3.226  0.7965  0.8537 -0.5390
47167SOL    HW246440   6.211  10.303   3.318  0.5468 -2.0012  0.9540
47168SOL     OW46441   4.923   3.592   0.864 -0.0940  0.0985 -0.0087
47168SOL    HW146442   4.954   3.513   0.820  0.7235  0.7943 -0.7050
47168SOL    HW246443   4.994   3.615   0.924 -0.2971  0.3502  0.1345
47169SOL     OW46444   1.832   3.883  11.068  0.3673  0.1534  0.6584
47169SOL    HW146445   1.872   3.922  11.146 -1.7430  1.4743  1.1476
47169SOL    HW246446   1.841   3.950  11.001  0.5448 -0.2644  0.2576
47170SOL     OW46447  11.535  11.527   1.915 -0.0466  0.0358 -0.0904
47170SOL    HW146448  11.601  11.577   1.868 -0.8397  0.2063 -1.0358
47170SOL    HW246449  11.557  11.435   1.897  1.8368 -0.0680  2.2180
47171SOL     OW46450   1.843  11.159   2.021 -0.5140  0.4055 -0.9799
47171SOL    HW146451   1.790  11.113   2.087 -0.5041  0.4409 -0.9470
47171SOL    HW246452   1.919  11.103   2.007 -0.3311  0.5761 -0.6883
47172SOL     OW46453   5.582   1.326   9.294 -0.9274  0.1791  0.8636
47172SOL    HW146454   5.543   1.411   9.274 -0.3186  0.0435 -1.0627
47172SOL    HW246455   5.555   1.308   9.384 -1.7448  2.0243  1.0273
47173SOL     OW46456   5.776   6.633   7.042 -0.2513  0.6132  0.1419
47173SOL    HW146457   5.777   6.641   7.138 -3.2854 -1.1040  0.4377
47173SOL    HW246458   5.713   6.699   7.013  0.2060  0.7134 -0.6601
47174SOL     OW46459  11.290   6.557   0.761  0.3232  0.2686  0.8819
47174SOL    HW146460  11.317   6.646   0.782 -0.2104  1.5709 -3.1418
47174SOL    HW246461  11.194   6.558   0.768  0.3015  0.0511  0.6334
47175SOL     OW46462   3.418   5.238   6.009  0.0362 -0.0091 -0.0434
47175SOL    HW146463   3.394   5.310   6.067  0.7617  0.3739 -0.2025
47175SOL    HW246464   3.504   5.210   6.040 -0.9588 -1.9712  1.1054
47176SOL     OW46465   2.310   2.630   2.728 -0.2158  0.4741  0.0380
47176SOL    HW146466   2.278   2.645   2.639 -0.0509  2.5110  0.2625
47176SOL    HW246467   2.241   2.581   2.771 -1.6356  1.9840 -0.4120
47177SOL     OW46468   8.244   6.247   5.957 -0.3106 -1.1484  0.1616
47177SOL    HW146469   8.311   6.210   5.900  1.7584  1.6966  0.5176
47177SOL    HW246470   8.236   6.338   5.929 -1.2829 -0.3992  2.5691
47178SOL     OW46471   4.387   4.282   7.627  0.3784 -0.1068  0.1597
47178SOL    HW146472   4.469   4.235   7.608  0.7761 -0.2287  1.9652
47178SOL    HW246473   4.360   4.249   7.713  0.1666  2.2588  1.0840
47179SOL     OW46474   7.624   4.883   5.769  0.1171  0.6414 -0.6076
47179SOL    HW146475   7.604   4.928   5.851  0.4088 -1.1404  0.4847
47179SOL    HW246476   7.632   4.954   5.705  0.3290  2.1173  0.9690
47180SOL     OW46477   3.129   0.642   9.524  0.2789  0.2550 -0.6326
47180SOL    HW146478   3.085   0.706   9.580 -0.7628 -1.5685  0.7782
47180SOL    HW246479   3.220   0.644   9.552  0.4500  1.6918 -1.2181
47181SOL     OW46480   1.775   8.797   3.669  0.1504 -0.2170 -0.7599
47181SOL    HW146481   1.720   8.721   3.652  1.5443 -1.2694 -0.6968
47181SOL    HW246482   1.748   8.827   3.756  0.6917 -1.6499 -0.0718
47182SOL     OW46483   5.114   2.917   8.027  0.2325  0.3464 -0.2214
47182SOL    HW146484   5.119   2.928   8.122  0.1549  1.5113 -0.3322
47182SOL    HW246485   5.193   2.870   8.004 -0.3915 -1.1444  0.5701
47183SOL     OW46486   9.543   1.596   1.045  0.4152  0.0556  0.1114
47183SOL    HW146487   9.638   1.599   1.032  0.3965 -0.6463 -0.2472
47183SOL    HW246488   9.527   1.650   1.122  1.3138 -1.3077  1.2911
47184SOL     OW46489   3.672   1.012   6.585 -0.4381 -0.6295 -0.0981
47184SOL    HW146490   3.610   1.016   6.513 -0.9241  0.9280  0.3644
47184SOL    HW246491   3.757   0.998   6.543 -0.8896 -1.1620 -0.8567
47185SOL     OW46492   4.188   9.901   2.307 -0.3546 -0.2688  0.0088
47185SOL    HW146493   4.200   9.990   2.340  0.2784 -0.4056  0.1632
47185SOL    HW246494   4.122   9.863   2.364  0.5073 -0.4026  0.9518
47186SOL     OW46495   8.597   1.596   0.375 -0.3039 -0.5131  0.3058
47186SOL    HW146496   8.617   1.681   0.335  2.3764 -1.2199 -0.0462
47186SOL    HW246497   8.619   1.607   0.467 -0.7215 -0.6024  0.4175
47187SOL     OW46498   8.008   1.164   7.568 -0.2577  0.1817 -0.1006
47187SOL    HW146499   7.965   1.082   7.542  0.2827 -0.2413  0.3253
47187SOL    HW246500   7.937   1.220   7.598 -0.8735  0.5604 -2.1223
47188SOL     OW46501   8.217   9.069   3.404  0.1059  0.5885 -0.7886
47188SOL    HW146502   8.164   8.993   3.381  1.1013 -0.5632  0.4930
47188SOL    HW246503   8.173   9.106   3.481  0.4110  0.4120 -0.5234
47189SOL     OW46504   2.580   7.010   2.619  0.2868 -0.5821  0.0937
47189SOL    HW146505   2.582   6.997   2.524  0.4619  1.4368 -0.2210
47189SOL    HW246506   2.670   6.996   2.647  0.4944  0.0622 -0.2380
47190SOL     OW46507  10.285   3.530   7.042  0.1035 -0.7495 -0.0808
47190SOL    HW146508  10.329   3.562   7.120 -1.1773  0.9060  0.0083
47190SOL    HW246509  10.262   3.608   6.993 -2.9560 -1.4620  0.0175
47191SOL     OW46510   3.748   7.663   4.447  0.3318 -0.1270  0.5896
47191SOL    HW146511   3.717   7.595   4.387 -0.2508  0.9198 -0.3292
47191SOL    HW246512   3.746   7.622   4.534 -1.1661 -0.9028  0.2087
47192SOL     OW46513   6.249   3.162   6.288  0.3882 -0.4073  0.3786
47192SOL    HW146514   6.342   3.146   6.305  0.7569  1.2624  0.0639
47192SOL    HW246515   6.214   3.075   6.269  1.4217 -1.3763  2.5253
47193SOL     OW46516   8.175  10.598   9.702 -0.3909 -0.1982 -0.1032
47193SOL    HW146517   8.180  10.585   9.797  0.7522 -1.3238 -0.2804
47193SOL    HW246518   8.086  10.629   9.687 -0.4037  0.6224  1.3947
47194SOL     OW46519   5.278   4.998   8.207 -0.6215  0.4576 -0.0462
47194SOL    HW146520   5.214   5.062   8.238 -2.5233 -1.6902  0.7441
47194SOL    HW246521   5.309   4.954   8.286 -0.0556 -0.2118 -0.6282
47195SOL     OW46522   4.907   8.627   8.342 -0.3562  0.5040 -0.0703
47195SOL    HW146523   4.836   8.578   8.299  0.9710  1.0813 -3.2143
47195SOL    HW246524   4.985   8.606   8.291  1.6922  0.4240  2.8618
47196SOL     OW46525   1.798  11.663   0.496 -0.8615 -0.0189  0.7468
47196SOL    HW146526   1.781  11.673   0.403  0.5820 -1.9913  0.2093
47196SOL    HW246527   1.853  11.738   0.518 -1.2073  0.4592  0.0362
47197SOL     OW46528   7.028  11.561   0.941  0.0469 -0.2224 -0.0532
47197SOL    HW146529   7.014  11.592   0.852  0.2789 -1.4104 -0.5277
47197SOL    HW246530   6.972  11.483   0.948 -0.7779  0.4461  1.2021
47198SOL     OW46531   0.111  10.652  10.849  0.3626 -0.1216  0.0886
47198SOL    HW146532   0.047  10.653  10.921 -2.6443  0.7885 -2.3724
47198SOL    HW246533   0.129  10.744  10.832  0.3303 -0.2851 -0.8714
47199SOL     OW46534   1.308   5.228   2.913 -0.3688 -0.6676 -0.4639
47199SOL    HW146535   1.360   5.286   2.968  1.4977 -1.0936 -1.6720
47199SOL    HW246536   1.328   5.254   2.823  0.3824 -2.9656 -1.0486
47200SOL     OW46537   4.959  11.388   1.307 -0.8648 -0.2040 -0.3041
47200SOL    HW146538   4.909  11.346   1.237 -0.8834  1.0472 -1.0791
47200SOL    HW246539   5.050  11.360   1.293 -1.0987 -1.2521  0.1788
47201SOL     OW46540   7.702   9.020   1.378 -0.4369 -0.2654 -0.1593
47201SOL    HW146541   7.716   8.951   1.313  0.6225 -1.2416  1.0501
47201SOL    HW246542   7.625   8.992   1.427  0.2540 -0.8631  0.6220
47202SOL     OW46543  10.483   4.687  10.653  0.4515  0.4358 -0.3338
47202SOL    HW146544  10.546   4.746  10.611  1.1855 -0.1730 -0.1228
47202SOL    HW246545  10.443   4.639  10.580 -0.9131  1.8743 -0.6008
47203SOL     OW46546   5.112   9.215   2.361  0.3805 -0.2631 -1.1701
47203SOL    HW146547   5.182   9.161   2.396  1.1525  2.4378  2.0160
47203SOL    HW246548   5.034   9.159   2.365  1.4371 -1.7379  0.1935
47204SOL     OW46549   1.469  10.288  10.872 -0.3968 -0.0417  0.1632
47204SOL    HW146550   1.534  10.278  10.941 -1.1526 -0.9355  0.7710
47204SOL    HW246551   1.489  10.219  10.809  0.6427  1.1184 -0.8516
47205SOL     OW46552  11.178   9.599   1.926 -0.0447 -0.2705 -0.0771
47205SOL    HW146553  11.211   9.678   1.969 -0.5654  0.1778 -0.4816
47205SOL    HW246554  11.152   9.628   1.839  1.0925 -1.1946 -0.7489
47206SOL     OW46555   0.518  10.815  11.142  0.0014 -0.4193  0.1345
47206SOL    HW146556   0.430  10.785  11.120  0.1400 -0.0258 -1.0074
47206SOL    HW246557   0.572  10.735  11.139  0.2998 -0.2051 -2.5294
47207SOL     OW46558   2.715   0.821   6.089 -0.2618  0.3795 -0.4458
47207SOL    HW146559   2.768   0.867   6.155 -1.6108  1.0068  0.2295
47207SOL    HW246560   2.712   0.731   6.120 -0.4496  0.5590  0.0700
47208SOL     OW46561   0.980  11.573   9.372 -0.3730  0.2311  0.4327
47208SOL    HW146562   1.022  11.488   9.364 -1.5402 -0.2685 -0.9432
47208SOL    HW246563   0.917  11.563   9.443  0.0059  0.1783  0.7605
47209SOL     OW46564   3.813   4.549   6.198  0.0778  0.0392  0.6352
47209SOL    HW146565   3.778   4.477   6.146 -1.8579 -0.7669  2.8821
47209SOL    HW246566   3.776   4.628   6.159  0.4601 -0.3274 -0.5125
47210SOL     OW46567   9.833   2.581   1.339 -0.0194  0.0332 -0.2747
47210SOL    HW146568   9.764   2.644   1.359  2.7847  2.7832  1.7982
47210SOL    HW246569   9.863   2.551   1.425  0.1005 -2.6526 -1.1753
47211SOL     OW46570  10.586   4.599   3.821  0.2691  0.1170 -0.5014
47211SOL    HW146571  10.669   4.553   3.806  0.8368  1.2135 -0.7880
47211SOL    HW246572  10.551   4.613   3.733 -0.2427 -0.3538 -0.3816
47212SOL     OW46573   1.242   6.574   9.332  0.2248 -0.3022 -0.4637
47212SOL    HW146574   1.281   6.488   9.353  1.1444  0.1471 -0.2656
47212SOL    HW246575   1.284   6.599   9.250  0.8692  0.4832  0.0848
47213SOL     OW46576  11.634   2.543   2.391 -0.1017  0.1845  0.2108
47213SOL    HW146577  11.546   2.564   2.360 -0.3953 -0.2914  0.7260
47213SOL    HW246578  11.677   2.629   2.397 -0.8488  0.5310  0.9226
47214SOL     OW46579   9.070   3.211   6.627  0.3080 -0.1312  0.4316
47214SOL    HW146580   9.000   3.274   6.608 -0.1063 -0.7554 -0.1197
47214SOL    HW246581   9.148   3.248   6.586  0.2737  0.4716  0.8880
47215SOL     OW46582  10.447   0.165   9.983  0.1119 -0.3765  0.2897
47215SOL    HW146583  10.406   0.103   9.923 -2.1069 -0.4859  1.8167
47215SOL    HW246584  10.429   0.251   9.944  0.7785 -0.5383 -0.4026
47216SOL     OW46585   7.584   0.851   8.617  0.1073  0.3043 -0.0746
47216SOL    HW146586   7.656   0.838   8.556  0.5146  1.3600  0.1554
47216SOL    HW246587   7.513   0.797   8.582  0.7842 -0.2064 -0.6885
47217SOL     OW46588   7.259   8.229   3.672 -0.5591 -0.5969  0.2009
47217SOL    HW146589   7.234   8.190   3.755 -0.6241 -1.5650 -0.2534
47217SOL    HW246590   7.188   8.205   3.612  0.4124 -1.5722 -0.5924
47218SOL     OW46591   3.645   2.967   6.411  0.3946  0.7864 -0.0090
47218SOL    HW146592   3.727   2.951   6.458  0.8899  3.1349  0.0762
47218SOL    HW246593   3.582   2.989   6.479  0.3852  1.5041 -0.2441
47219SOL     OW46594   9.896   9.060  11.148 -0.3812 -0.0239  1.0697
47219SOL    HW146595   9.901   9.002  11.072 -0.3511 -0.5556  1.4733
47219SOL    HW246596   9.967   9.123  11.135  0.1997 -0.6577  1.1043
47220SOL     OW46597   2.731   9.777   4.697 -0.9261  0.1047 -0.0242
47220SOL    HW146598   2.770   9.772   4.784  0.4350 -1.5279 -0.6650
47220SOL    HW246599   2.806   9.779   4.638 -1.8259  1.1138 -1.1923
47221SOL     OW46600   3.326   3.271   4.647  0.0934 -0.4504 -0.3715
47221SOL    HW146601   3.259   3.283   4.715 -0.5411 -1.1375 -0.8652
47221SOL    HW246602   3.344   3.177   4.648 -0.3295 -0.5531 -1.5351
47222SOL     OW46603   7.401   1.250   6.695 -0.3381 -0.3770 -0.0029
47222SOL    HW146604   7.463   1.209   6.635 -1.1784 -1.3080 -0.2684
47222SOL    HW246605   7.335   1.183   6.711 -1.3979  0.6582  0.0955
47223SOL     OW46606   2.563   4.945   9.147 -0.4645 -0.7474 -0.5233
47223SOL    HW146607   2.651   4.924   9.178  0.0148  0.2092 -1.2007
47223SOL    HW246608   2.509   4.945   9.226 -0.0363 -2.1729 -0.2093
47224SOL     OW46609   3.855   2.691   4.205 -0.2807  0.1183  0.6318
47224SOL    HW146610   3.880   2.650   4.287  1.6886 -0.5004 -0.2227
47224SOL    HW246611   3.851   2.785   4.225  0.5380  0.0086  1.3499
47225SOL     OW46612   9.606   0.632   0.372  0.1737  0.3420 -0.1767
47225SOL    HW146613   9.517   0.597   0.367  0.1089  0.2721  1.0769
47225SOL    HW246614   9.619   0.652   0.465  1.9127 -0.8815 -0.0987
47226SOL     OW46615   0.601   9.499   4.500 -0.2186  0.4227  0.8765
47226SOL    HW146616   0.569   9.580   4.460 -1.4368 -0.5719 -0.2578
47226SOL    HW246617   0.658   9.529   4.571 -0.9974  2.2705  0.7960
47227SOL     OW46618   2.372   9.468   8.129 -0.4385  0.0185 -0.5096
47227SOL    HW146619   2.280   9.479   8.152 -0.4227 -0.5607 -0.1592
47227SOL    HW246620   2.373   9.472   8.033 -0.8836 -0.3996 -0.5327
47228SOL     OW46621   6.689   5.407   1.430 -0.1905  0.3039  0.0072
47228SOL    HW146622   6.684   5.323   1.384  0.9220 -0.3826  1.0815
47228SOL    HW246623   6.627   5.398   1.502 -0.4467  0.6069 -0.1746
47229SOL     OW46624   6.825   2.990   5.502 -0.1487 -0.0007  0.2253
47229SOL    HW146625   6.807   3.026   5.415 -0.0866 -0.6564 -0.0706
47229SOL    HW246626   6.776   3.045   5.562 -1.9150 -0.7815 -0.4119
47230SOL     OW46627   2.530   9.045  10.711 -0.2832  0.4448  0.4801
47230SOL    HW146628   2.444   9.008  10.692 -0.0579  0.0547  0.2004
47230SOL    HW246629   2.553   9.011  10.798  0.6063 -1.3885 -0.4224
47231SOL     OW46630   3.934   7.526   5.002  0.1645 -0.2829 -0.1461
47231SOL    HW146631   3.936   7.431   4.997 -2.2476 -0.3667 -0.4748
47231SOL    HW246632   4.001   7.554   4.939  1.0638 -1.7193  0.1197
47232SOL     OW46633   2.360   0.775   7.779 -0.1280  0.3436  0.0759
47232SOL    HW146634   2.443   0.823   7.775  0.5242 -0.7722 -0.2445
47232SOL    HW246635   2.298   0.831   7.732  0.5235  1.0265  0.0112
47233SOL     OW46636   1.196   5.982   4.045 -0.4189 -0.4000 -0.1291
47233SOL    HW146637   1.262   5.912   4.043  1.0451  0.8930  0.1977
47233SOL    HW246638   1.146   5.970   3.965 -1.0455 -2.5508  0.5105
47234SOL     OW46639   1.515   3.996   0.473 -0.4343  0.0137  0.0973
47234SOL    HW146640   1.590   3.976   0.529 -0.7958  0.8197  0.8780
47234SOL    HW246641   1.479   3.910   0.450  1.6510 -0.4995 -1.6103
47235SOL     OW46642   7.966   0.179   3.949  0.3831  0.1949  0.2180
47235SOL    HW146643   7.960   0.084   3.963  0.4467  0.2300  0.4740
47235SOL    HW246644   7.884   0.201   3.905  0.9169 -0.1861 -1.0171
47236SOL     OW46645   1.918  10.594   1.745  0.0711  0.0557 -0.2268
47236SOL    HW146646   1.981  10.659   1.717  0.3660  1.3717  3.0003
47236SOL    HW246647   1.837  10.616   1.700  0.5626  1.7659 -0.3212
47237SOL     OW46648  11.482   7.578   3.021  0.4304 -0.0772 -0.1349
47237SOL    HW146649  11.558   7.614   3.066  1.1040 -0.9347 -0.5658
47237SOL    HW246650  11.477   7.487   3.049  0.5030 -0.4612 -1.2894
47238SOL     OW46651   6.979   1.151  10.631 -0.1656 -0.0742 -0.3338
47238SOL    HW146652   6.977   1.110  10.544 -0.9996 -0.2281 -0.2498
47238SOL    HW246653   7.069   1.140  10.660  0.2201  0.2923 -1.3269
47239SOL     OW46654  11.005   4.307  11.012 -0.2640 -0.1904  0.4568
47239SOL    HW146655  11.086   4.358  11.019  0.0939 -0.8373  1.2576
47239SOL    HW246656  11.025   4.241  10.946 -0.5065  0.3040 -0.1149
47240SOL     OW46657   8.876   5.943   0.995 -0.6496 -0.3778 -0.5182
47240SOL    HW146658   8.798   5.966   1.047 -0.7965  0.7622 -1.2016
47240SOL    HW246659   8.920   6.026   0.981  0.6479 -0.9983 -0.2539
47241SOL     OW46660   1.344   2.324   2.924  0.6523  0.1150 -0.4002
47241SOL    HW146661   1.327   2.242   2.971 -0.1192  0.8971  0.7524
47241SOL    HW246662   1.276   2.327   2.856  0.2658  0.0916 -0.0232
47242SOL     OW46663   6.704   8.523  11.158  0.6163  0.1142 -0.1112
47242SOL    HW146664   6.741   8.505  11.072  2.3885  2.5850  0.0203
47242SOL    HW246665   6.745   8.459  11.216  3.8751  1.8451 -0.2393
47243SOL     OW46666   5.963   1.916   4.020  0.4843 -0.0423  0.1495
47243SOL    HW146667   5.999   1.992   4.066  0.0397 -0.1033  0.6042
47243SOL    HW246668   5.921   1.864   4.089  0.3578 -0.4514 -0.2337
47244SOL     OW46669   9.175   5.858   2.772  0.4474  0.2714  0.1602
47244SOL    HW146670   9.225   5.798   2.827 -0.0566 -1.1963 -0.9195
47244SOL    HW246671   9.140   5.803   2.702  0.1127  1.8684 -0.9874
47245SOL     OW46672   6.775   9.665   4.035 -0.6315  0.1091  0.3213
47245SOL    HW146673   6.753   9.622   3.953 -1.7798  1.0271  0.1189
47245SOL    HW246674   6.840   9.731   4.011  1.4757 -1.7080  0.7024
47246SOL     OW46675   6.138   5.513   5.666 -0.3976 -0.4898  0.1515
47246SOL    HW146676   6.118   5.429   5.624  0.6188 -1.6090  1.7502
47246SOL    HW246677   6.136   5.493   5.760  0.3843  1.1485  0.5529
47247SOL     OW46678   2.664  10.644   8.457  0.0138  0.4109  0.3503
47247SOL    HW146679   2.734  10.582   8.477 -0.5677 -0.0801  0.9250
47247SOL    HW246680   2.709  10.726   8.440  0.7792 -0.0821 -0.0909
47248SOL     OW46681   1.643   5.650   4.123  0.0718 -0.0597  0.0263
47248SOL    HW146682   1.713   5.589   4.099  0.6391  0.4003  0.4932
47248SOL    HW246683   1.687   5.719   4.172 -0.7814 -0.0086  0.7445
47249SOL     OW46684   8.677   1.732   3.678 -0.1421 -0.1776  0.3991
47249SOL    HW146685   8.643   1.645   3.698 -0.8283  0.0009  0.0028
47249SOL    HW246686   8.664   1.782   3.759  1.4131 -0.7829  1.0599
47250SOL     OW46687   2.535   6.195   2.988 -0.3172 -0.0703  0.3069
47250SOL    HW146688   2.552   6.101   2.996 -1.3770 -0.4328 -1.3013
47250SOL    HW246689   2.442   6.205   3.009 -0.3400  0.5577 -0.0623
47251SOL     OW46690   8.948   7.503   6.273 -0.2630 -0.1658 -0.3418
47251SOL    HW146691   8.860   7.479   6.242  0.2448  0.1338 -2.1539
47251SOL    HW246692   9.004   7.431   6.244  0.2034 -0.0482  0.2428
47252SOL     OW46693   1.840   2.029   4.177 -0.1959  0.4343  0.4530
47252SOL    HW146694   1.776   2.008   4.109 -1.2182  0.2835  1.4266
47252SOL    HW246695   1.788   2.042   4.256  0.9338  0.9111  1.1514
47253SOL     OW46696  11.033   9.328   3.936  0.0648  0.0340 -0.0303
47253SOL    HW146697  10.984   9.278   4.001  1.1361 -3.6037 -1.7040
47253SOL    HW246698  11.122   9.331   3.969 -0.3752  3.3402  1.2371
47254SOL     OW46699   7.918   2.167   5.305  0.1261  0.0759  0.2776
47254SOL    HW146700   7.829   2.174   5.339  0.3849 -1.0373  1.2210
47254SOL    HW246701   7.967   2.233   5.354 -0.0922  0.4551 -0.0029
47255SOL     OW46702   1.804  10.750   9.379  0.0993 -0.0890  0.0225
47255SOL    HW146703   1.874  10.800   9.338  0.3588 -1.3629 -1.1978
47255SOL    HW246704   1.733  10.751   9.314 -0.3422 -0.2994  0.4890
47256SOL     OW46705   3.880   4.314   9.802 -0.4202 -0.6349  0.2910
47256SOL    HW146706   3.958   4.261   9.784  0.5668  0.3285  1.5307
47256SOL    HW246707   3.811   4.274   9.749  0.7606 -1.9029 -0.3560
47257SOL     OW46708   2.639   9.026   0.140  0.1786  0.2827 -0.3223
47257SOL    HW146709   2.669   8.968   0.210  0.8046  1.4450  0.3967
47257SOL    HW246710   2.649   8.975   0.060 -0.3062 -0.9782  0.3961
47258SOL     OW46711   4.657   6.850   1.038  0.0869 -0.2115 -0.9054
47258SOL    HW146712   4.692   6.842   1.127 -0.5788 -0.7542 -0.6854
47258SOL    HW246713   4.645   6.759   1.009 -0.6277 -0.0300 -1.1781
47259SOL     OW46714   4.009   9.376   4.466 -0.1694  0.4906 -0.0258
47259SOL    HW146715   3.999   9.340   4.554  2.2741  1.5146  0.7464
47259SOL    HW246716   3.951   9.323   4.412 -0.4721 -1.2714  1.9085
47260SOL     OW46717  10.850   7.604   5.374 -0.1999 -0.2656 -0.0843
47260SOL    HW146718  10.799   7.534   5.416  0.3331 -1.1746 -0.9114
47260SOL    HW246719  10.868   7.666   5.445  2.4367 -2.7104  1.6247
47261SOL     OW46720  10.415   7.063  10.469  0.4611  0.1386  0.4853
47261SOL    HW146721  10.506   7.091  10.468  0.4176  0.3842  1.7247
47261SOL    HW246722  10.393   7.048  10.377  0.9613  2.6582 -0.1215
47262SOL     OW46723   2.820   0.327   2.841 -0.2050  0.2671 -0.6315
47262SOL    HW146724   2.913   0.305   2.834 -0.4173 -0.4272 -1.4259
47262SOL    HW246725   2.786   0.265   2.906 -0.1389  0.4500 -0.4207
47263SOL     OW46726   8.515  10.547   7.307  0.3650  0.0396 -0.5345
47263SOL    HW146727   8.610  10.537   7.298  0.4247  1.1751 -1.3974
47263SOL    HW246728   8.485  10.573   7.220 -0.4965  1.3213  0.1023
47264SOL     OW46729   5.289   7.854   6.574  0.2729  0.1858  0.1037
47264SOL    HW146730   5.303   7.938   6.617  1.0864 -0.0648  0.3419
47264SOL    HW246731   5.375   7.811   6.575  0.0366 -0.3304 -0.6945
47265SOL     OW46732   3.372   1.577  11.485  0.1197 -0.4541 -0.1726
47265SOL    HW146733   3.379   1.658  11.435  0.6235 -1.1905 -1.3467
47265SOL    HW246734   3.358   1.605  11.575  0.4658  0.9301 -0.5276
47266SOL     OW46735   6.179  10.032   1.781  0.2144 -0.4376 -0.2927
47266SOL    HW146736   6.253  10.059   1.727  0.0863  0.5712  0.0125
47266SOL    HW246737   6.102  10.047   1.726  0.1864 -0.8401 -0.3658
47267SOL     OW46738   8.957   6.434   0.196 -0.2039  0.0983  0.1993
47267SOL    HW146739   8.976   6.348   0.234 -0.5055 -1.6179 -3.1506
47267SOL    HW246740   8.874   6.421   0.150  1.7504  0.7956 -3.9453
47268SOL     OW46741   6.636   4.449   6.008  0.3927  0.0035  0.2184
47268SOL    HW146742   6.563   4.420   6.062 -0.6799  0.4584 -0.9461
47268SOL    HW246743   6.655   4.374   5.951  0.8200 -0.0985  0.4870
47269SOL     OW46744   5.346  11.467   2.110 -0.2964  0.8380  0.1011
47269SOL    HW146745   5.405  11.412   2.058  1.2303  0.2733  2.2992
47269SOL    HW246746   5.398  11.544   2.132 -0.9266  1.0891  0.7677
47270SOL     OW46747   3.533   9.256   6.213  0.3582 -0.0888  0.4150
47270SOL    HW146748   3.614   9.224   6.175 -0.5134  0.1310 -1.7867
47270SOL    HW246749   3.467   9.239   6.146 -1.2154  0.7545  1.6827
47271SOL     OW46750   6.255   2.715   7.127 -0.2434 -0.8554  0.2446
47271SOL    HW146751   6.210   2.751   7.050  1.8241  0.9206 -0.2515
47271SOL    HW246752   6.222   2.626   7.134 -0.3319 -1.2054 -2.8828
47272SOL     OW46753   9.665   8.473   6.876 -0.5546 -0.2847  0.6537
47272SOL    HW146754   9.635   8.554   6.918  0.0512 -0.7459  2.0405
47272SOL    HW246755   9.754   8.492   6.847  0.0387 -0.7861  2.0542
47273SOL     OW46756   8.217   3.079   1.171  0.5154  0.3096  0.4163
47273SOL    HW146757   8.148   3.143   1.190  0.0907 -0.5003  1.7034
47273SOL    HW246758   8.212   3.016   1.243  2.1222 -0.1807  0.1333
47274SOL     OW46759   3.237   3.851   5.133 -0.2294 -0.3478  0.1814
47274SOL    HW146760   3.143   3.857   5.117 -0.3227 -0.2617  0.7406
47274SOL    HW246761   3.275   3.925   5.086 -0.5883  0.4005  1.0337
47275SOL     OW46762   4.439   5.154  10.385 -0.1327  0.1806 -0.3084
47275SOL    HW146763   4.366   5.199  10.342 -1.9322 -0.4466  1.8697
47275SOL    HW246764   4.445   5.070  10.339 -0.4917  0.4027 -0.7790
47276SOL     OW46765  10.599   8.529   4.096 -0.0791 -0.4634  0.1262
47276SOL    HW146766  10.675   8.477   4.121 -1.5421 -1.2375  3.7233
47276SOL    HW246767  10.540   8.467   4.053 -0.2961 -0.9126  1.0441
47277SOL     OW46768   9.462   3.155   5.729 -0.0128  0.6494  0.0349
47277SOL    HW146769   9.398   3.173   5.660 -0.1369  0.9127  0.2146
47277SOL    HW246770   9.529   3.102   5.687  0.1356  1.1797 -0.3971
47278SOL     OW46771   3.982   5.377   0.832  0.1888 -0.2160 -0.1636
47278SOL    HW146772   3.955   5.314   0.899  2.2573  0.0450  1.0045
47278SOL    HW246773   3.956   5.336   0.749 -0.5233 -1.5577  0.6818
47279SOL     OW46774   6.541   3.313   4.651 -0.3809  0.1258  0.1425
47279SOL    HW146775   6.548   3.343   4.742  2.8060 -0.3536  0.1364
47279SOL    HW246776   6.457   3.349   4.621 -0.6937  1.7880  2.7086
47280SOL     OW46777   9.192   6.416   2.583 -0.4917  0.3343 -0.6045
47280SOL    HW146778   9.101   6.409   2.612 -0.4095  0.3370 -0.3482
47280SOL    HW246779   9.215   6.326   2.556 -0.0004 -0.0473  1.0204
47281SOL     OW46780  11.285   6.346  10.100 -0.4051  0.6854 -0.4742
47281SOL    HW146781  11.224   6.417  10.078 -0.0573  1.2315  0.2898
47281SOL    HW246782  11.271   6.331  10.193 -1.3822 -1.1459 -0.8658
47282SOL     OW46783  11.441  11.150   7.565 -0.4965  0.4478  0.1459
47282SOL    HW146784  11.472  11.226   7.515 -1.7041  1.3452  0.6886
47282SOL    HW246785  11.435  11.079   7.501 -1.1325  1.3305 -0.8086
47283SOL     OW46786  10.618   5.981   0.675 -0.2909  0.0314 -0.2126
47283SOL    HW146787  10.528   5.954   0.656 -0.5847  1.4636 -1.0360
47283SOL    HW246788  10.652   5.913   0.733 -2.5436  0.4097  1.7446
47284SOL     OW46789   1.661   7.955   3.453  0.0976 -0.0817 -0.4582
47284SOL    HW146790   1.645   8.050   3.457 -0.7272 -0.2279  2.9892
47284SOL    HW246791   1.754   7.946   3.475  0.0668 -0.0828 -0.3271
47285SOL     OW46792  10.876   6.328   3.753  0.2917  0.2273 -0.4777
47285SOL    HW146793  10.924   6.255   3.715  1.2398  0.2337  0.6389
47285SOL    HW246794  10.824   6.288   3.823 -1.1902  0.2540 -1.5350
47286SOL     OW46795   4.495   3.612   4.979  0.2327 -0.0751 -0.4281
47286SOL    HW146796   4.585   3.590   4.955  0.1117  0.1198 -1.0677
47286SOL    HW246797   4.501   3.699   5.018  0.0912  0.7244 -2.1163
47287SOL     OW46798   9.729   7.451   6.224 -0.1712  0.4866 -0.0281
47287SOL    HW146799   9.761   7.538   6.199 -0.2323  0.4337 -0.2971
47287SOL    HW246800   9.729   7.452   6.320  1.5060  0.1645 -0.0017
47288SOL     OW46801   4.393   7.104   9.027 -1.5377 -0.3952 -0.0338
47288SOL    HW146802   4.317   7.148   8.989 -1.7491 -1.7661 -1.2886
47288SOL    HW246803   4.419   7.039   8.961 -0.2729 -1.0617  1.0678
47289SOL     OW46804  10.331   3.044   8.191  0.1054 -0.0291  0.5214
47289SOL    HW146805  10.261   3.044   8.257 -0.3391 -0.8750  0.0723
47289SOL    HW246806  10.383   3.122   8.212 -0.8306  0.4969  1.0103
47290SOL     OW46807   3.279  11.620   1.340 -0.0276  0.1079 -0.2626
47290SOL    HW146808   3.340  11.679   1.385 -0.3928  1.8441 -1.9069
47290SOL    HW246809   3.324  11.598   1.258 -1.7028  1.7887 -1.7158
47291SOL     OW46810   7.752   2.084   6.838 -0.0059  0.4765 -0.3582
47291SOL    HW146811   7.697   2.023   6.789  0.1445 -2.0183  2.2876
47291SOL    HW246812   7.758   2.046   6.926  1.3250  3.6231  1.0804
47292SOL     OW46813   2.219   4.481   6.481  0.3057 -0.0870  0.3370
47292SOL    HW146814   2.153   4.430   6.434  1.0168 -0.0096 -0.7815
47292SOL    HW246815   2.296   4.480   6.423  0.7044  1.3092  0.8010
47293SOL     OW46816   3.845   7.163   1.901 -0.4316 -0.0460 -0.1410
47293SOL    HW146817   3.813   7.182   1.989 -1.6797 -1.5587 -0.2189
47293SOL    HW246818   3.937   7.140   1.913 -0.7308 -0.7721  0.8666
47294SOL     OW46819   5.401   2.556   1.157  0.1290 -0.6118 -0.4884
47294SOL    HW146820   5.405   2.479   1.213 -1.1215 -0.3947 -0.0790
47294SOL    HW246821   5.425   2.629   1.214  1.7649 -0.7079 -0.9840
47295SOL     OW46822  11.359   1.569   2.483  0.5639 -0.5306  0.7006
47295SOL    HW146823  11.379   1.529   2.567  0.2306  0.0905  1.0769
47295SOL    HW246824  11.268   1.545   2.466 -0.2976  1.6614  1.8686
47296SOL     OW46825  11.148   9.480   5.517 -0.1701  0.5405 -0.0238
47296SOL    HW146826  11.082   9.548   5.526  0.3991  1.0038  0.7926
47296SOL    HW246827  11.223   9.512   5.569  0.1714 -0.6130  0.2222
47297SOL     OW46828  11.420  11.367   9.810 -0.5975  0.3090 -0.4312
47297SOL    HW146829  11.471  11.340   9.886  0.7510  2.7173 -0.3515
47297SOL    HW246830  11.356  11.298   9.798  0.8123 -1.4204  1.2958
47298SOL     OW46831   1.257   7.603   5.321  0.0828  0.0992  0.2117
47298SOL    HW146832   1.292   7.585   5.409 -0.7586  2.0542  0.9928
47298SOL    HW246833   1.231   7.517   5.288  0.0119 -0.6383  2.0582
47299SOL     OW46834   3.136   0.528   0.515 -0.0528  0.6589  0.0759
47299SOL    HW146835   3.228   0.530   0.540  0.5957 -0.8303 -1.8971
47299SOL    HW246836   3.100   0.610   0.547  2.0970  1.5284  0.4078
47300SOL     OW46837   5.188   0.470   5.169  0.2882  0.2299  0.5753
47300SOL    HW146838   5.154   0.488   5.082 -1.0996 -1.5833  0.6710
47300SOL    HW246839   5.147   0.535   5.225  0.7658  1.0625 -0.0195
47301SOL     OW46840   9.141   2.409   3.840  0.0449  0.1200 -0.1147
47301SOL    HW146841   9.228   2.416   3.878  0.9656 -1.3327 -1.8072
47301SOL    HW246842   9.155   2.367   3.755 -2.3990 -0.8453 -0.1156
47302SOL     OW46843   4.703   9.789   4.436  0.1252 -1.1063  0.0171
47302SOL    HW146844   4.682   9.701   4.405 -0.4280 -1.7199  1.9955
47302SOL    HW246845   4.675   9.789   4.528  1.3839  0.7007  0.4409
47303SOL     OW46846  10.344   8.211   9.777 -0.0041 -0.0342 -0.1141
47303SOL    HW146847  10.376   8.228   9.689 -2.2266 -1.6419 -1.3236
47303SOL    HW246848  10.326   8.117   9.778 -0.6084  0.0541  1.8513
47304SOL     OW46849   9.415   9.981   1.278  0.2189  0.1876  0.4899
47304SOL    HW146850   9.484   9.998   1.342 -2.6218  2.4527  3.2443
47304SOL    HW246851   9.363  10.061   1.277 -0.1312  0.2276 -4.6359
47305SOL     OW46852   3.198   6.315   1.981  0.2820  0.1275  0.0887
47305SOL    HW146853   3.122   6.258   1.972 -0.0965  0.5489  0.5551
47305SOL    HW246854   3.161   6.401   1.998  0.8625  0.3446  0.2686
47306SOL     OW46855   2.561   7.919  11.602 -0.5572  0.2994  0.8764
47306SOL    HW146856   2.471   7.907  11.572 -0.6021 -1.2818  1.5533
47306SOL    HW246857   2.604   7.965  11.530 -1.1636 -1.6043 -0.8118
47307SOL     OW46858   8.706   6.244   0.968 -0.0150  0.2602  0.0505
47307SOL    HW146859   8.795   6.212   0.953  1.0640  3.0718 -0.0319
47307SOL    HW246860   8.664   6.174   1.019  2.4740 -0.8325  0.7499
47308SOL     OW46861   9.327   6.009   7.940 -0.0453  0.1053  0.0775
47308SOL    HW146862   9.369   6.088   7.973 -0.1092  0.1899 -0.0440
47308SOL    HW246863   9.241   6.037   7.911  1.2693  0.8635 -3.6870
47309SOL     OW46864   9.793  10.540   7.496 -0.6722  0.1242  0.3731
47309SOL    HW146865   9.726  10.475   7.514 -1.0539  0.0388 -1.2026
47309SOL    HW246866   9.812  10.530   7.403  1.7335 -0.0274  0.8202
47310SOL     OW46867   5.182  11.345   8.239  0.4558 -0.3479 -0.0931
47310SOL    HW146868   5.088  11.332   8.227  0.3621 -2.3051  2.0323
47310SOL    HW246869   5.221  11.311   8.159 -0.5556 -2.4580  0.2334
47311SOL     OW46870   7.222   5.420   5.944 -0.1519  0.3869 -0.7932
47311SOL    HW146871   7.298   5.418   5.886  0.7799 -0.1076  0.3834
47311SOL    HW246872   7.220   5.333   5.983  1.4643  1.6742  2.5780
47312SOL     OW46873   9.224   7.084   5.097 -0.5578 -0.5076  0.7632
47312SOL    HW146874   9.252   7.175   5.087  2.6694 -1.3082  1.5291
47312SOL    HW246875   9.142   7.089   5.147  0.5148  1.9107  2.4414
47313SOL     OW46876   8.515   5.917   2.544  0.2804 -0.4028  0.2888
47313SOL    HW146877   8.473   5.887   2.625  0.6986 -2.9123 -0.3429
47313SOL    HW246878   8.578   5.848   2.523  1.6299  1.1626 -1.1286
47314SOL     OW46879  10.881   5.887   4.214  0.4333  0.4591  0.0182
47314SOL    HW146880  10.937   5.875   4.291  0.8070  2.0611  0.0464
47314SOL    HW246881  10.820   5.814   4.217  0.1044  0.7425  2.1499
47315SOL     OW46882   8.414   1.128   4.330  0.2720  0.3040 -0.3053
47315SOL    HW146883   8.441   1.040   4.301 -0.9990 -0.5731  1.0394
47315SOL    HW246884   8.321   1.118   4.353  0.6658  1.4288  2.0325
47316SOL     OW46885   8.029   6.659   5.536  0.2943  0.2438  0.6046
47316SOL    HW146886   8.045   6.693   5.448  0.6725  0.9922  0.9533
47316SOL    HW246887   8.112   6.620   5.562  0.1836  0.0246  0.6286
47317SOL     OW46888   8.765   9.119   1.767  0.6377 -0.2214  0.3617
47317SOL    HW146889   8.753   9.094   1.859  1.0066  0.8319  0.7129
47317SOL    HW246890   8.857   9.101   1.749  0.6916  0.0719  0.3524
47318SOL     OW46891   3.220   6.412  10.301  0.2471 -0.1468 -0.1363
47318SOL    HW146892   3.296   6.358  10.326 -1.2565 -1.4522  1.8788
47318SOL    HW246893   3.181   6.365  10.227  1.3032  0.4934 -1.1373
47319SOL     OW46894  11.096   6.804   0.373  0.2240  0.3971  0.6028
47319SOL    HW146895  11.156   6.733   0.351  1.0849  1.1250  0.5579
47319SOL    HW246896  11.099   6.863   0.298  1.6245  1.8605  1.7483
47320SOL     OW46897   5.808   9.433   6.014  0.4696  0.0549 -0.0549
47320SOL    HW146898   5.868   9.364   5.985  0.7939  0.5538 -0.5800
47320SOL    HW246899   5.851   9.514   5.990  0.9677  0.5441  2.2197
47321SOL     OW46900  10.740   4.484   5.662  0.2497 -0.3040  0.1896
47321SOL    HW146901  10.808   4.522   5.718 -0.0858  1.5430 -0.5823
47321SOL    HW246902  10.673   4.453   5.722  1.2561 -1.1388  0.9150
47322SOL     OW46903   1.972   5.814   9.214  0.1338 -0.1350 -0.5621
47322SOL    HW146904   1.967   5.884   9.279  1.6137 -1.2059  0.8026
47322SOL    HW246905   2.061   5.779   9.224 -0.2737 -1.6386 -1.8051
47323SOL     OW46906   6.880   1.306   6.046  0.2426  0.2286  0.1414
47323SOL    HW146907   6.803   1.319   5.990  0.5852 -2.1799 -1.0297
47323SOL    HW246908   6.894   1.391   6.088 -1.2374  1.5968 -1.9218
47324SOL     OW46909   5.315   2.485   9.141  0.1533 -0.5813 -0.1430
47324SOL    HW146910   5.293   2.410   9.085 -1.2684 -0.2921 -0.0211
47324SOL    HW246911   5.247   2.549   9.123  0.6256  0.1774  0.6929
47325SOL     OW46912   2.749   9.163   6.819  0.7469 -0.4052 -0.2460
47325SOL    HW146913   2.682   9.192   6.880 -1.0944 -0.3384 -2.1905
47325SOL    HW246914   2.715   9.186   6.732  3.5109  0.1050 -1.3205
47326SOL     OW46915   4.985  10.300   7.449  0.0491  0.1474  0.1217
47326SOL    HW146916   5.062  10.333   7.402 -1.4943  0.8923 -2.0425
47326SOL    HW246917   4.957  10.373   7.504 -1.4095  1.4279 -2.1646
47327SOL     OW46918   7.188   6.625   7.731  0.3674 -0.6346  0.0836
47327SOL    HW146919   7.269   6.574   7.739  0.8455 -0.3815 -2.3220
47327SOL    HW246920   7.118   6.559   7.730  0.8529 -1.1618 -1.3557
47328SOL     OW46921   9.201   2.283   6.986  0.2075 -0.5557  0.4810
47328SOL    HW146922   9.262   2.297   7.058 -0.0597 -0.2527  0.6501
47328SOL    HW246923   9.238   2.334   6.913  0.0796 -0.2468  0.6281
47329SOL     OW46924  10.585   2.656   1.571  0.2483 -0.0723 -0.1664
47329SOL    HW146925  10.497   2.619   1.563  0.1022  0.5238 -1.4648
47329SOL    HW246926  10.586   2.731   1.512  1.7206 -0.2397 -0.3983
47330SOL     OW46927   2.085   1.068   5.739 -0.3493 -0.2539  0.5830
47330SOL    HW146928   2.154   1.127   5.708  0.1352 -0.9414  0.3142
47330SOL    HW246929   2.132   0.990   5.767 -1.1011 -1.1828 -0.6442
47331SOL     OW46930   3.625   2.231   1.384 -0.2761 -0.1587 -0.0972
47331SOL    HW146931   3.701   2.272   1.342 -1.1485  1.5582 -0.1168
47331SOL    HW246932   3.556   2.236   1.319 -1.1727  0.9461  0.8940
47332SOL     OW46933   4.162   7.807   5.901 -0.3804  0.0098  0.1290
47332SOL    HW146934   4.068   7.815   5.884 -0.5680 -2.7871 -0.6496
47332SOL    HW246935   4.187   7.726   5.858  1.8959 -0.6571  2.4872
47333SOL     OW46936   6.222   0.715  10.677 -0.4881 -0.4185  0.1532
47333SOL    HW146937   6.237   0.796  10.628 -0.2010 -0.5286  0.0508
47333SOL    HW246938   6.295   0.710  10.738 -1.1611  0.0103  1.0044
47334SOL     OW46939   9.805   4.363  11.567  0.3954 -0.0076  0.0098
47334SOL    HW146940   9.749   4.429  11.526 -0.3359  0.9480  2.3635
47334SOL    HW246941   9.892   4.402  11.567  0.2640  0.2890 -0.0282
47335SOL     OW46942   8.552   5.226   9.011 -0.2615  0.6858 -0.3622
47335SOL    HW146943   8.568   5.198   9.101 -0.9413 -0.2474 -0.5084
47335SOL    HW246944   8.631   5.275   8.986  0.4459 -0.0595  0.3460
47336SOL     OW46945   3.885   3.142   8.880  0.2926 -0.0989 -0.2805
47336SOL    HW146946   3.845   3.086   8.947 -0.8493  0.3319 -0.5875
47336SOL    HW246947   3.838   3.122   8.800  0.9070  0.2025 -0.7268
47337SOL     OW46948   0.627  11.670   3.206 -0.4540  0.3527  0.3748
47337SOL    HW146949   0.683  11.602   3.242  1.5725 -0.0838 -3.1870
47337SOL    HW246950   0.553  11.623   3.167  0.3565  0.2252 -1.0675
47338SOL     OW46951  10.949   3.632   1.663  0.2443 -0.7177  0.1354
47338SOL    HW146952  10.935   3.601   1.752  0.8732 -0.8377  0.1978
47338SOL    HW246953  10.999   3.713   1.673  0.0248 -0.5534 -0.0931
47339SOL     OW46954   1.231  10.531   1.393 -1.0807 -0.1648 -0.2983
47339SOL    HW146955   1.190  10.459   1.441  0.8701 -0.2930  1.3131
47339SOL    HW246956   1.259  10.492   1.310 -0.8920 -1.0488  0.1646
47340SOL     OW46957   2.281   9.928   8.774  0.3101  0.0641 -0.5632
47340SOL    HW146958   2.312   9.985   8.845  2.2973 -1.0238 -0.4845
47340SOL    HW246959   2.317   9.968   8.694  1.2513 -0.7202 -0.5565
47341SOL     OW46960   1.643  11.652   7.714  0.2860  0.4002  0.2200
47341SOL    HW146961   1.636  11.557   7.705  2.3331  0.3122 -0.9784
47341SOL    HW246962   1.576  11.674   7.779 -0.3287 -1.8232  0.4453
47342SOL     OW46963   2.324   1.964  10.897 -0.3855  0.1548 -0.1990
47342SOL    HW146964   2.325   1.871  10.920 -0.3274  0.5115  1.3172
47342SOL    HW246965   2.231   1.987  10.898 -0.5054 -0.1502 -1.7994
47343SOL     OW46966  10.208   1.311   2.072  0.2658  0.4885 -0.2458
47343SOL    HW146967  10.155   1.231   2.072  0.8519  0.0932 -0.4542
47343SOL    HW246968  10.296   1.281   2.095 -0.0683  1.4502  2.6733
47344SOL     OW46969   2.108   7.832   4.664  0.0370 -0.4411 -0.3510
47344SOL    HW146970   2.187   7.869   4.624  0.5634  0.0311  1.0803
47344SOL    HW246971   2.038   7.855   4.603  0.6873  0.9433 -0.6224
47345SOL     OW46972   3.452  10.593   2.876 -0.1343  0.0378 -0.2509
47345SOL    HW146973   3.519  10.612   2.941 -1.0941 -0.2412  0.8564
47345SOL    HW246974   3.437  10.677   2.832  0.0904  0.3893  0.3261
47346SOL     OW46975   7.341   7.687   6.351  0.1831  0.0091 -0.2007
47346SOL    HW146976   7.316   7.694   6.259 -2.6249  1.5742  0.5729
47346SOL    HW246977   7.290   7.755   6.396  1.6727 -0.4827  2.4998
47347SOL     OW46978   3.272   2.299   2.212 -0.4422  0.1517 -0.7201
47347SOL    HW146979   3.316   2.364   2.267 -1.0518  0.7186 -0.8889
47347SOL    HW246980   3.191   2.280   2.259 -0.3670 -0.3248 -0.7849
47348SOL     OW46981  10.087  10.506   9.122 -0.3125  0.5861  0.4400
47348SOL    HW146982  10.058  10.431   9.173 -0.2868  1.0268  1.1035
47348SOL    HW246983  10.182  10.496   9.116 -0.4867 -0.5094 -1.1906
47349SOL     OW46984   0.672   7.785   8.402  0.2648  0.3988 -0.0947
47349SOL    HW146985   0.730   7.723   8.358  1.5853  0.8860  0.8703
47349SOL    HW246986   0.600   7.799   8.341  0.2693 -1.5675 -0.6059
47350SOL     OW46987   3.193   2.248   5.737  0.0620  0.0380 -0.6098
47350SOL    HW146988   3.098   2.240   5.744 -0.2209  2.6006 -0.6921
47350SOL    HW246989   3.225   2.249   5.828 -0.0772 -0.0158 -0.5614
47351SOL     OW46990   7.535   7.604   5.191 -0.5917 -0.3085  0.5061
47351SOL    HW146991   7.558   7.646   5.108 -2.1026  1.3821  0.8819
47351SOL    HW246992   7.618   7.569   5.224  0.9926  3.0449  0.4898
47352SOL     OW46993   8.642   7.587   7.991  0.4114  0.2469 -0.6050
47352SOL    HW146994   8.671   7.605   8.080  1.8138 -1.0984 -0.7404
47352SOL    HW246995   8.579   7.657   7.971 -0.2371  0.3338  1.5511
47353SOL     OW46996   7.973   0.957   7.285  0.6209 -0.1375  0.0762
47353SOL    HW146997   7.946   1.047   7.303  0.2420 -0.3991  0.8594
47353SOL    HW246998   7.934   0.937   7.200 -0.0922  0.1277  0.3296
47354SOL     OW46999  10.081  10.062  11.088  0.3358  0.0709  0.0728
47354SOL    HW147000  10.100   9.973  11.059 -1.9076 -0.6888  0.7588
47354SOL    HW247001   9.998  10.055  11.135  0.9428  2.2453  1.6217
47355SOL     OW47002   6.361   8.620   8.241 -0.0489 -0.0162  0.4467
47355SOL    HW147003   6.329   8.655   8.158  1.3585  1.5466  0.5229
47355SOL    HW247004   6.289   8.633   8.303 -0.3907  0.6000 -0.0788
47356SOL     OW47005   7.406   9.457   9.850 -0.1447 -0.2574 -0.1675
47356SOL    HW147006   7.388   9.377   9.900  0.2685 -0.5193 -0.4284
47356SOL    HW247007   7.467   9.506   9.905 -1.1434  0.3466  0.4406
47357SOL     OW47008   6.433   3.900   8.958  0.1541  0.1742  0.1977
47357SOL    HW147009   6.406   3.911   9.049  1.8289  1.1000  0.6354
47357SOL    HW247010   6.456   3.808   8.950  0.1176  0.1161  0.7532
47358SOL     OW47011   8.472  10.047   9.737  0.7114  0.3168  0.3147
47358SOL    HW147012   8.405  10.057   9.669  0.7420  0.4699  0.3077
47358SOL    HW247013   8.535  10.116   9.719  0.7482  0.3221  0.4671
47359SOL     OW47014   9.189   2.694   0.044  0.1432 -0.2716 -0.5401
47359SOL    HW147015   9.263   2.694  -0.016  0.0148 -0.8691 -0.7060
47359SOL    HW247016   9.122   2.746   0.000 -0.0262 -0.8807 -1.0242
47360SOL     OW47017   4.084   3.377   4.376  0.1503  0.3475  0.2149
47360SOL    HW147018   4.021   3.444   4.350  1.4949  0.9879 -1.5986
47360SOL    HW247019   4.165   3.426   4.394  1.4991 -0.7824 -2.2386
47361SOL     OW47020  10.657   9.791   0.254  0.7020  0.3260 -0.6430
47361SOL    HW147021  10.610   9.724   0.203  2.8575 -0.1168 -2.1688
47361SOL    HW247022  10.746   9.790   0.218  1.1994  2.9730  0.3561
47362SOL     OW47023   6.456   5.692   7.793  0.0253  0.4903  0.8203
47362SOL    HW147024   6.548   5.665   7.789 -0.1768 -0.2099  0.6616
47362SOL    HW247025   6.453   5.759   7.860  1.1557  2.6096 -1.1023
47363SOL     OW47026   4.846   6.391   3.583  0.1754  0.0067 -0.1312
47363SOL    HW147027   4.782   6.320   3.582 -0.2265  0.2699  2.2589
47363SOL    HW247028   4.793   6.471   3.594  0.6924  0.6430 -1.8552
47364SOL     OW47029   5.565  11.234   8.917 -0.1439 -0.3869  0.1537
47364SOL    HW147030   5.487  11.268   8.961  0.0434  0.9598 -0.4921
47364SOL    HW247031   5.580  11.297   8.846  1.4543 -0.7015  0.1986
47365SOL     OW47032  10.753   6.516   0.914  0.1424  0.3718  0.2141
47365SOL    HW147033  10.692   6.469   0.972 -0.3761  1.5341  0.6373
47365SOL    HW247034  10.698   6.552   0.845  0.6163 -0.0902 -0.4155
47366SOL     OW47035   7.313   1.533   0.234 -0.2756  0.1200  0.3056
47366SOL    HW147036   7.310   1.626   0.216 -0.4320 -0.1138 -0.9439
47366SOL    HW247037   7.314   1.527   0.330 -1.7337  1.3513  0.4268
47367SOL     OW47038   7.287   6.503   4.536 -0.2674  0.1374  0.4891
47367SOL    HW147039   7.254   6.435   4.594  2.5961 -0.5880  1.3998
47367SOL    HW247040   7.280   6.584   4.587 -0.9827  0.0800  0.4934
47368SOL     OW47041   1.980  10.997   5.135 -0.1918  0.3148 -0.4633
47368SOL    HW147042   1.913  10.964   5.075 -2.8006 -0.2401  2.4810
47368SOL    HW247043   2.057  10.943   5.118 -1.5751 -1.3526 -1.7430
47369SOL     OW47044   2.430   5.578   6.285 -0.3227 -0.2277  0.1266
47369SOL    HW147045   2.351   5.632   6.289 -0.1914 -0.0290  0.0070
47369SOL    HW247046   2.406   5.506   6.227 -0.2789  0.0581 -0.2494
47370SOL     OW47047   9.098   9.823   3.912  0.0297  0.6248  0.0533
47370SOL    HW147048   9.192   9.822   3.897  0.1187 -1.9081  0.2452
47370SOL    HW247049   9.059   9.829   3.825  0.4940 -3.3097 -0.6200
47371SOL     OW47050  10.629   1.804  10.279 -0.0096 -0.2981  0.1035
47371SOL    HW147051  10.616   1.861  10.355 -0.7558  0.9810 -0.9323
47371SOL    HW247052  10.712   1.832  10.241 -0.4737  0.2583 -0.5215
47372SOL     OW47053   0.495  10.120   1.997  0.0377  0.2436  0.4744
47372SOL    HW147054   0.437  10.147   2.068 -0.4274 -0.2048  0.2737
47372SOL    HW247055   0.531  10.036   2.025 -2.3271 -1.4007 -0.9617
47373SOL     OW47056   6.239   7.729  10.842  0.1920  0.2607 -0.3396
47373SOL    HW147057   6.146   7.726  10.865  0.3008  0.4619  0.1333
47373SOL    HW247058   6.282   7.674  10.908  0.1103 -2.0902 -2.0981
47374SOL     OW47059   6.446   2.239  11.147 -0.2697  0.2481  0.3515
47374SOL    HW147060   6.496   2.190  11.213 -1.9223  0.9087  2.1796
47374SOL    HW247061   6.378   2.178  11.119 -0.7293  0.6110  0.6775
47375SOL     OW47062   5.837   9.353   6.945  0.0794  0.5095  0.4783
47375SOL    HW147063   5.817   9.293   6.874  1.0675 -1.3160  1.6691
47375SOL    HW247064   5.930   9.340   6.963  0.0152  1.4381  1.6501
47376SOL     OW47065   0.635   1.607   1.879 -0.0746 -0.2618 -0.1182
47376SOL    HW147066   0.610   1.695   1.849 -0.0112  0.1504  1.0113
47376SOL    HW247067   0.576   1.590   1.952  0.5031 -0.8110  0.2180
47377SOL     OW47068  11.291   6.429   7.824 -0.4861 -0.0936  0.0529
47377SOL    HW147069  11.229   6.359   7.842 -0.9420  0.3076  0.0646
47377SOL    HW247070  11.325   6.454   7.910 -0.1947 -0.4152  0.0319
47378SOL     OW47071   0.976   6.715  10.728  0.2769  0.7769 -0.1259
47378SOL    HW147072   0.950   6.758  10.647 -2.1497 -0.4668 -0.1045
47378SOL    HW247073   0.933   6.765  10.797 -2.2083 -1.1971 -0.0746
47379SOL     OW47074   5.998   4.615   0.911  0.2355 -0.2770 -0.1014
47379SOL    HW147075   5.976   4.523   0.894  0.2210 -0.2699 -0.1232
47379SOL    HW247076   5.914   4.660   0.906  0.3336 -0.1557 -0.8025
47380SOL     OW47077   6.119   5.814   3.550  0.3839 -0.0632 -0.2019
47380SOL    HW147078   6.118   5.908   3.528  0.1035  0.1398  0.6452
47380SOL    HW247079   6.193   5.779   3.501 -1.7640 -0.2060 -3.6549
47381SOL     OW47080   8.568   5.205   9.355  0.1758 -0.0641 -0.7107
47381SOL    HW147081   8.643   5.209   9.415  0.4542  2.5294 -1.1142
47381SOL    HW247082   8.498   5.251   9.402  0.0116  0.8739 -1.8271
47382SOL     OW47083   9.643   7.546   6.955  0.6682 -0.4177 -0.0023
47382SOL    HW147084   9.628   7.553   6.861  0.1097 -1.5353 -0.0140
47382SOL    HW247085   9.556   7.539   6.993  0.8061  1.4879  0.7649
47383SOL     OW47086   4.236   8.050   1.588  0.5577  0.5497  0.1547
47383SOL    HW147087   4.164   7.999   1.626  1.2617 -0.1537  0.5927
47383SOL    HW247088   4.193   8.117   1.535 -0.4271  0.4489  0.7898
47384SOL     OW47089  11.353   2.055   7.358  0.2952  0.1308  0.2478
47384SOL    HW147090  11.427   2.114   7.341 -1.4405  2.1722 -0.6213
47384SOL    HW247091  11.389   1.989   7.417  2.8254  0.9886 -0.1944
47385SOL     OW47092   0.579   6.702   1.670  0.2907  0.1379  0.3372
47385SOL    HW147093   0.583   6.631   1.605  0.5119  0.4811 -0.0316
47385SOL    HW247094   0.669   6.712   1.701  0.1041 -0.3419  1.0518
47386SOL     OW47095   4.286   9.155  10.892  0.3053  0.2443  0.4329
47386SOL    HW147096   4.353   9.189  10.950 -0.1139 -0.7320  1.5079
47386SOL    HW247097   4.229   9.231  10.874  1.5925  1.0507 -0.4144
47387SOL     OW47098   5.076   4.442   9.432  0.5655 -0.1455  0.7092
47387SOL    HW147099   5.171   4.457   9.438  0.9355 -1.8823 -0.1474
47387SOL    HW247100   5.067   4.347   9.434 -1.1137 -0.0252  0.0692
47388SOL     OW47101   5.527   9.860   3.401  0.0480  0.9063 -0.2203
47388SOL    HW147102   5.514   9.866   3.307  0.5112  0.8288 -0.2930
47388SOL    HW247103   5.594   9.792   3.411  0.0898  1.0018  0.1576
47389SOL     OW47104  10.445   7.895  10.115 -0.4375  0.2231  0.3846
47389SOL    HW147105  10.420   7.928  10.202  0.4143  1.3305  0.2362
47389SOL    HW247106  10.530   7.853  10.130 -0.1953  0.5919  0.0616
47390SOL     OW47107   5.340   3.408   1.823 -0.0009 -0.0898  0.1037
47390SOL    HW147108   5.261   3.462   1.816  0.7211  0.9433 -0.3623
47390SOL    HW247109   5.333   3.347   1.749  0.2864  0.9141 -0.7839
47391SOL     OW47110   4.067   7.729   1.942  0.4025 -0.0511  0.3721
47391SOL    HW147111   4.066   7.663   2.012 -0.7694 -0.4386  0.0051
47391SOL    HW247112   4.153   7.770   1.950  0.2685 -0.0191  2.1068
47392SOL     OW47113   4.987   4.858   3.576  0.2571 -0.2876  0.0933
47392SOL    HW147114   5.020   4.947   3.565  0.9038 -0.7481 -2.0376
47392SOL    HW247115   5.028   4.826   3.657  2.6057  0.2367 -0.8431
47393SOL     OW47116   5.521  10.676   8.262 -0.2239 -0.4949 -0.2612
47393SOL    HW147117   5.572  10.647   8.338  0.5233 -0.7417 -0.8389
47393SOL    HW247118   5.527  10.604   8.199  0.4450  0.2931 -1.1465
47394SOL     OW47119   8.567   3.785   9.775  0.2870  0.2422  0.1450
47394SOL    HW147120   8.546   3.731   9.851 -1.2571 -0.6809 -0.8878
47394SOL    HW247121   8.659   3.766   9.757  0.0760 -1.2368  0.4656
47395SOL     OW47122   4.314   0.486   9.816 -0.0339 -0.3342 -0.2142
47395SOL    HW147123   4.284   0.510   9.904 -0.4653 -2.0198  0.1343
47395SOL    HW247124   4.294   0.562   9.762  0.8379  0.9989  1.2515
47396SOL     OW47125   8.755   8.618   3.258 -0.3027 -0.3833  0.1779
47396SOL    HW147126   8.666   8.604   3.226 -0.3055 -0.8332  0.3778
47396SOL    HW247127   8.746   8.628   3.353 -0.1751 -0.1103  0.1631
47397SOL     OW47128   5.009   2.467   2.133 -0.3923 -0.2317  0.1753
47397SOL    HW147129   5.042   2.514   2.209  1.5005 -1.2866  0.0712
47397SOL    HW247130   4.947   2.404   2.168 -0.5174  0.1709  0.6864
47398SOL     OW47131   8.658   5.617  10.442  0.1794  0.4703 -0.4527
47398SOL    HW147132   8.629   5.692  10.494 -1.6372 -0.2766 -0.3368
47398SOL    HW247133   8.661   5.545  10.504  1.0556  0.2409 -0.7513
47399SOL     OW47134   7.436   4.181   4.321  0.2635 -0.0553 -0.5309
47399SOL    HW147135   7.438   4.086   4.330  0.2229 -0.0326 -0.2802
47399SOL    HW247136   7.383   4.196   4.242  1.7637 -0.2998 -1.6357
47400SOL     OW47137   9.526   3.113   3.216 -0.5505 -0.4731 -0.0075
47400SOL    HW147138   9.473   3.066   3.151 -2.0336 -0.9566  1.4841
47400SOL    HW247139   9.521   3.205   3.189 -0.4891 -0.7554 -1.0136
47401SOL     OW47140   1.835   2.727   0.236  0.2028 -0.3778 -0.0544
47401SOL    HW147141   1.783   2.762   0.308  0.4691 -0.7983  0.3537
47401SOL    HW247142   1.891   2.661   0.277  1.7338  0.7149 -0.3000
47402SOL     OW47143   9.409   9.210   9.742 -0.3370 -0.3617  0.3023
47402SOL    HW147144   9.339   9.264   9.707  0.3289 -0.2155 -0.8608
47402SOL    HW247145   9.426   9.146   9.673  0.2415 -0.7926  0.8352
47403SOL     OW47146   7.483   6.698   8.673 -0.4041 -0.2812  0.1413
47403SOL    HW147147   7.462   6.756   8.600  1.6678  1.4629  0.8079
47403SOL    HW247148   7.522   6.621   8.631 -0.9156 -0.1193 -0.6573
47404SOL     OW47149   6.047   2.745   6.923  0.2717  0.1648  0.3394
47404SOL    HW147150   6.001   2.675   6.969 -1.3487  1.2068  0.3844
47404SOL    HW247151   6.007   2.748   6.837  0.2206  1.1207  0.3846
47405SOL     OW47152   7.391   9.787  10.978 -0.2783  0.3665 -0.2649
47405SOL    HW147153   7.344   9.869  10.966 -0.7330 -0.0341 -1.4143
47405SOL    HW247154   7.479   9.814  11.005 -0.2948  1.2559 -1.0280
47406SOL     OW47155   7.013  10.518   4.252 -0.1894 -0.0569  0.0829
47406SOL    HW147156   7.027  10.613   4.249 -2.0238  0.2827  1.0301
47406SOL    HW247157   7.097  10.483   4.282 -0.0405  1.4340  1.5322
47407SOL     OW47158   5.260   4.162   3.665 -0.8670 -0.7128 -0.4839
47407SOL    HW147159   5.206   4.102   3.716 -0.6274 -0.1761  0.4130
47407SOL    HW247160   5.227   4.249   3.687 -1.2333 -0.5033 -1.7982
47408SOL     OW47161   2.416  10.464   0.828 -0.0977  0.4339  0.1184
47408SOL    HW147162   2.419  10.517   0.907  1.7787 -1.8777  1.7421
47408SOL    HW247163   2.340  10.408   0.839 -1.0141  1.4715 -0.7290
47409SOL     OW47164  10.538   3.417   9.429 -0.4949  0.2495  0.4396
47409SOL    HW147165  10.447   3.427   9.400 -0.3688 -0.1547 -0.0892
47409SOL    HW247166  10.565   3.506   9.452 -0.8015  0.4745 -0.0638
47410SOL     OW47167   9.526   0.898  10.663  0.2166 -0.5526 -0.5420
47410SOL    HW147168   9.619   0.903  10.641 -0.1177  1.1329 -1.7277
47410SOL    HW247169   9.512   0.969  10.725 -0.1682 -1.2545  0.2010
47411SOL     OW47170  10.512   3.099   6.852 -0.2476  0.4550 -0.1606
47411SOL    HW147171  10.480   3.044   6.924  0.6857 -0.6056 -0.5173
47411SOL    HW247172  10.472   3.184   6.867 -0.5659  0.0842  1.2632
47412SOL     OW47173   6.867   5.999  10.886  0.4023 -0.1576 -0.3708
47412SOL    HW147174   6.831   5.950  10.960  1.6501 -0.4246  0.0797
47412SOL    HW247175   6.842   6.089  10.903  0.2141 -0.2906  0.0950
47413SOL     OW47176   2.962   7.617   9.739  0.1646  0.4770 -0.1198
47413SOL    HW147177   2.873   7.581   9.741  0.4959 -0.6213 -2.1496
47413SOL    HW247178   2.955   7.696   9.686 -0.2749  2.8029  3.1007
47414SOL     OW47179   7.673   6.285   9.788 -0.0545  0.2185 -0.0003
47414SOL    HW147180   7.729   6.362   9.805 -1.9871  1.3638  1.7606
47414SOL    HW247181   7.608   6.317   9.726 -1.8229  0.6231  1.9229
47415SOL     OW47182  10.662   9.754   3.434  0.2191  0.1921  0.0185
47415SOL    HW147183  10.617   9.686   3.482 -0.1811 -0.1171 -0.7715
47415SOL    HW247184  10.592   9.806   3.394  0.4343  2.1675  2.0172
47416SOL     OW47185   9.546   6.698  10.010  0.1308  0.2029 -0.5372
47416SOL    HW147186   9.624   6.650  10.039 -1.0994 -1.1927  0.5759
47416SOL    HW247187   9.486   6.630   9.979 -1.0071  1.1807 -0.5493
47417SOL     OW47188   8.428   7.832   2.016 -0.1535 -0.0645  0.1555
47417SOL    HW147189   8.443   7.850   1.923  2.1075 -0.1745  0.4337
47417SOL    HW247190   8.348   7.880   2.037  0.6750  2.1144 -1.2673
47418SOL     OW47191   0.687  11.485   0.760 -0.0717  0.4472 -0.7595
47418SOL    HW147192   0.723  11.569   0.733  0.6359  0.3456 -0.1511
47418SOL    HW247193   0.693  11.486   0.856  2.8786 -1.5308 -0.7958
47419SOL     OW47194   6.063  11.061   9.529 -0.0825  0.1856  0.6197
47419SOL    HW147195   6.091  11.151   9.546  0.4117 -0.0503  1.0538
47419SOL    HW247196   5.970  11.069   9.508  0.3862  1.0462 -1.3964
47420SOL     OW47197   5.815   4.523   0.663  0.7442 -0.6153  0.1700
47420SOL    HW147198   5.784   4.563   0.743  1.0613 -0.0316  0.0041
47420SOL    HW247199   5.823   4.595   0.600 -0.2018 -1.1652 -0.6190
47421SOL     OW47200   5.478   5.924   6.582  0.3762 -0.5284  0.0556
47421SOL    HW147201   5.564   5.915   6.541  0.2006  1.1160 -0.7542
47421SOL    HW247202   5.418   5.940   6.508 -0.1163  1.4361  0.8181
47422SOL     OW47203   7.517   0.314   9.891 -0.1813 -0.2181  0.6082
47422SOL    HW147204   7.534   0.220   9.886 -0.0682 -0.2208  0.9949
47422SOL    HW247205   7.422   0.321   9.897 -0.5178 -0.1555 -2.6913
47423SOL     OW47206  11.093   2.661   2.846 -0.0478  0.3110  0.6155
47423SOL    HW147207  11.123   2.749   2.868 -0.2186  0.6310 -0.3875
47423SOL    HW247208  11.017   2.675   2.789  1.1764 -0.4320 -1.2956
47424SOL     OW47209  10.086   3.629   9.335  0.6314  0.3927  0.1022
47424SOL    HW147210  10.084   3.709   9.283 -0.1441  0.0489 -0.4054
47424SOL    HW247211   9.995   3.601   9.340  0.5973  0.7046  2.1110
47425SOL     OW47212   9.825  11.074   3.803 -0.2153  0.2103 -0.2503
47425SOL    HW147213   9.849  11.160   3.770  0.4612 -0.2505 -0.9862
47425SOL    HW247214   9.763  11.040   3.738 -0.5851  0.1917  0.1079
47426SOL     OW47215   7.859   9.621  10.021 -0.7147 -0.4561 -0.1802
47426SOL    HW147216   7.881   9.676  10.096 -0.8232 -0.0346 -0.4545
47426SOL    HW247217   7.928   9.555  10.018 -2.1360 -2.1579  1.9142
47427SOL     OW47218   8.074  10.163   1.109  0.0069  0.2280  0.1879
47427SOL    HW147219   8.109  10.117   1.033 -0.8875 -0.4429  0.1600
47427SOL    HW247220   8.147  10.216   1.141  0.6338 -0.1058 -0.6473
47428SOL     OW47221  10.376   5.213   4.072 -0.1009 -0.1889 -0.7797
47428SOL    HW147222  10.306   5.177   4.019  0.7013  0.8848 -2.6637
47428SOL    HW247223  10.362   5.308   4.070  0.9061 -0.0142 -0.4967
47429SOL     OW47224   1.545  11.494   7.270  0.0854 -0.4573  0.6924
47429SOL    HW147225   1.468  11.520   7.220 -0.2012 -0.9526  0.8670
47429SOL    HW247226   1.547  11.554   7.345 -0.4809 -0.8268  1.0089
47430SOL     OW47227   0.710   8.874   1.237 -0.0586 -0.4124  0.6268
47430SOL    HW147228   0.782   8.863   1.300  2.9855 -0.3146 -2.5106
47430SOL    HW247229   0.686   8.786   1.211  1.7037 -0.4695 -1.0402
47431SOL     OW47230   9.745   7.189   3.006  0.7077  0.2830  0.3157
47431SOL    HW147231   9.747   7.218   3.097  0.6831  1.6378 -0.0962
47431SOL    HW247232   9.810   7.243   2.962 -1.1790  1.6283 -1.0042
47432SOL     OW47233   8.564   0.896   2.145 -0.1961  0.3984  0.0893
47432SOL    HW147234   8.592   0.984   2.172 -1.1046  0.3121  1.4041
47432SOL    HW247235   8.519   0.909   2.062 -4.6454  1.9979  2.4506
47433SOL     OW47236   0.980   4.273   8.757 -0.3893  0.5651  0.2759
47433SOL    HW147237   1.017   4.258   8.670 -0.9328 -0.9734  0.2890
47433SOL    HW247238   0.949   4.364   8.754  1.4336  1.2009 -0.4333
47434SOL     OW47239   3.861   9.745   5.122  0.1180 -0.3427 -0.0565
47434SOL    HW147240   3.792   9.796   5.079 -0.8274 -1.8213 -0.3638
47434SOL    HW247241   3.940   9.764   5.071 -0.2598  0.5789 -0.3289
47435SOL     OW47242  10.552   9.243   0.593  0.5993  0.1526  0.6870
47435SOL    HW147243  10.526   9.229   0.684  1.8722  1.2955  1.2650
47435SOL    HW247244  10.469   9.252   0.545 -0.0955 -1.2151  1.5826
47436SOL     OW47245   7.623   0.489   4.288  0.3415 -0.5139 -0.0480
47436SOL    HW147246   7.551   0.430   4.267 -0.3606  0.2204  0.2806
47436SOL    HW247247   7.697   0.430   4.307 -0.3926 -1.2963  0.4271
47437SOL     OW47248   5.157   7.424   7.207  0.6142  0.2468 -0.0197
47437SOL    HW147249   5.226   7.378   7.160  1.6400  0.9054  0.8021
47437SOL    HW247250   5.203   7.481   7.268 -0.6497  1.2094  0.0742
47438SOL     OW47251   4.019  10.206   8.172  0.0511  0.2372  0.2043
47438SOL    HW147252   4.001  10.238   8.261 -0.2837 -0.0806  0.2540
47438SOL    HW247253   4.029  10.286   8.120  1.5467  0.4546  0.7685
47439SOL     OW47254  10.846   3.670   0.734  0.0732 -0.2093  0.3901
47439SOL    HW147255  10.817   3.632   0.651 -3.8053  0.9228  1.0704
47439SOL    HW247256  10.814   3.610   0.801 -1.8893  1.6892  1.2538
47440SOL     OW47257   6.566   4.208   1.422  0.1947 -0.0441 -0.2991
47440SOL    HW147258   6.539   4.117   1.433 -0.8570  0.5003  2.6249
47440SOL    HW247259   6.489   4.259   1.449  2.1623  1.5920  2.8826
47441SOL     OW47260   7.036   1.935   1.950 -0.4418 -0.1911  0.1216
47441SOL    HW147261   6.952   1.910   1.986  0.2392 -0.3694  1.6373
47441SOL    HW247262   7.014   1.995   1.879 -1.8382 -0.3646  0.3723
47442SOL     OW47263   3.000   5.033   7.436 -0.5338 -1.1670 -0.3800
47442SOL    HW147264   2.943   4.985   7.376  1.0706 -2.1014 -1.2315
47442SOL    HW247265   3.065   4.969   7.463  0.4629  0.0125  0.0967
47443SOL     OW47266   6.091   7.227   9.026 -0.5224  0.5524  0.2666
47443SOL    HW147267   6.064   7.154   9.082  2.6003 -0.5324  0.5292
47443SOL    HW247268   6.110   7.187   8.941 -0.0397  1.2824  0.0234
47444SOL     OW47269   3.058  10.939   7.295  0.3206  0.3847 -0.0133
47444SOL    HW147270   3.105  10.976   7.370  0.7028 -0.0201 -0.0526
47444SOL    HW247271   3.112  10.961   7.220  0.6557 -0.4145 -0.0192
47445SOL     OW47272   4.331   9.878   6.098 -0.2038  0.0515  0.4446
47445SOL    HW147273   4.303   9.958   6.053 -0.3957 -0.5411 -0.5173
47445SOL    HW247274   4.421   9.898   6.127 -0.5333  0.8922  0.9309
47446SOL     OW47275   4.250   5.689   0.545  0.0066 -0.2045  0.5585
47446SOL    HW147276   4.225   5.615   0.601 -1.1515 -0.7337 -0.5860
47446SOL    HW247277   4.262   5.650   0.458  2.4796  0.4718  0.5276
47447SOL     OW47278   6.024   9.935   5.443  0.0361  0.4020  0.5307
47447SOL    HW147279   6.099   9.922   5.385 -1.3299  0.8426 -1.3877
47447SOL    HW247280   6.064   9.948   5.530  2.1222 -0.2179 -0.2726
47448SOL     OW47281   0.997   1.115  10.810 -0.0258 -0.7628  0.0617
47448SOL    HW147282   0.971   1.146  10.723 -1.0453  1.7372  1.1498
47448SOL    HW247283   1.054   1.040  10.792 -0.9683 -0.9645 -2.7016
47449SOL     OW47284  10.555  11.450   0.598 -0.0218 -0.2197  0.8159
47449SOL    HW147285  10.561  11.359   0.567  2.0620 -0.5434  1.9575
47449SOL    HW247286  10.604  11.501   0.534 -0.7406  0.0476  0.4627
47450SOL     OW47287   3.060   1.748   1.879 -0.4682 -0.1435 -0.3743
47450SOL    HW147288   3.145   1.773   1.916 -0.8196  0.7033 -0.1104
47450SOL    HW247289   3.017   1.699   1.949 -0.8362  0.8208  0.0883
47451SOL     OW47290   9.708   6.373   9.025  0.3022 -0.5805 -0.2533
47451SOL    HW147291   9.769   6.301   9.040 -0.2933 -0.7758  1.5755
47451SOL    HW247292   9.673   6.392   9.112  0.9393  2.3766 -0.5555
47452SOL     OW47293   8.818   5.518   6.966 -0.3735 -0.3770  0.4030
47452SOL    HW147294   8.817   5.565   6.882  0.6036  0.4371  0.8303
47452SOL    HW247295   8.770   5.437   6.948  0.6619 -0.6846 -1.2266
47453SOL     OW47296   4.893   1.124   7.387 -0.1400  0.1446 -0.2726
47453SOL    HW147297   4.958   1.191   7.404  0.4736 -0.5557  0.2101
47453SOL    HW247298   4.896   1.067   7.465 -0.1825 -0.8037 -0.9496
47454SOL     OW47299   5.442   7.555   9.420 -0.1530 -0.5176 -0.0524
47454SOL    HW147300   5.484   7.549   9.505 -1.6242  2.0891  0.9778
47454SOL    HW247301   5.480   7.633   9.380 -0.5394 -0.8704 -1.1542
47455SOL     OW47302   7.122   9.007   4.600 -0.6295 -0.4973  0.3729
47455SOL    HW147303   7.052   9.072   4.604 -2.6589 -2.0612 -3.7188
47455SOL    HW247304   7.079   8.925   4.626  0.4550 -1.0482  0.4597
47456SOL     OW47305   3.309   5.400   4.234  0.0392  0.4354  0.7973
47456SOL    HW147306   3.225   5.396   4.280  0.0635 -3.3091  0.8783
47456SOL    HW247307   3.373   5.411   4.304 -0.2413  0.4235  1.0607
47457SOL     OW47308   4.047   8.401   7.984 -0.8595  0.0682 -0.1843
47457SOL    HW147309   4.041   8.336   7.914 -0.8916  1.3720 -1.4348
47457SOL    HW247310   3.956   8.425   8.003 -0.8577 -0.3591  0.4002
47458SOL     OW47311   5.750   7.109   7.257 -0.3353  0.1591  0.0652
47458SOL    HW147312   5.791   7.048   7.194 -2.4388 -1.2018 -0.0612
47458SOL    HW247313   5.785   7.194   7.232  0.9446 -0.6850 -1.2384
47459SOL     OW47314   0.012  10.166   1.615 -0.1539  0.2317 -0.4539
47459SOL    HW147315   0.001  10.153   1.520  0.6070  1.9883 -0.8198
47459SOL    HW247316   0.074  10.238   1.622 -0.3335  0.2428  1.4007
47460SOL     OW47317  10.988   3.307   1.485  0.1604  0.2880  0.1012
47460SOL    HW147318  11.061   3.257   1.522  1.9440  1.1931 -1.9643
47460SOL    HW247319  10.950   3.248   1.419 -1.9371 -0.6890  2.0498
47461SOL     OW47320   3.373   9.263   7.920  0.1441 -0.0979 -0.3265
47461SOL    HW147321   3.442   9.320   7.953 -1.4076  1.3111  0.6049
47461SOL    HW247322   3.412   9.175   7.923  1.8660  0.6294  0.1883
47462SOL     OW47323   3.732   2.438   4.845  0.2289  0.2183 -0.0497
47462SOL    HW147324   3.646   2.424   4.805 -1.1696  0.9336  2.5002
47462SOL    HW247325   3.773   2.352   4.844 -0.7848 -0.2808 -0.6937
47463SOL     OW47326   2.165   6.929  11.566  0.2929 -0.2033 -0.8985
47463SOL    HW147327   2.123   6.936  11.651  2.4992 -2.1460  0.4727
47463SOL    HW247328   2.106   6.875  11.513 -0.3113 -0.4232 -0.0094
47464SOL     OW47329   4.764   2.147   4.062 -0.0589 -0.3062  0.2272
47464SOL    HW147330   4.771   2.136   4.157  0.1388  2.2632  0.5580
47464SOL    HW247331   4.670   2.146   4.044 -0.0913 -0.9999  0.3921
47465SOL     OW47332   3.442   7.594   0.213 -0.2909  0.3573  0.0896
47465SOL    HW147333   3.407   7.505   0.210  1.3773 -0.3742  0.9336
47465SOL    HW247334   3.515   7.589   0.274  0.8709  1.9265 -1.0823
47466SOL     OW47335   8.099   2.969   4.348 -0.2894 -0.2960  0.6372
47466SOL    HW147336   8.143   2.890   4.317 -0.1054  0.9701 -2.7126
47466SOL    HW247337   8.142   2.989   4.431  2.5268 -1.4409 -0.4411
47467SOL     OW47338   3.751   9.763   7.605  0.0610  0.4505  0.1135
47467SOL    HW147339   3.704   9.722   7.677 -1.5993  1.3071 -0.4406
47467SOL    HW247340   3.791   9.841   7.643  1.9488 -0.7868  0.8132
47468SOL     OW47341   1.894   6.912   6.148 -0.0965  0.1201  0.0956
47468SOL    HW147342   1.867   6.958   6.227  0.3210  2.0535 -0.8285
47468SOL    HW247343   1.977   6.871   6.171 -0.4491 -0.1504  0.9190
47469SOL     OW47344   0.725   8.286   7.608  0.5084 -0.5879 -0.3913
47469SOL    HW147345   0.637   8.280   7.644  1.4836 -1.4526  2.0495
47469SOL    HW247346   0.731   8.214   7.545  0.1726 -1.9803  1.1272
47470SOL     OW47347   1.649  11.109  11.681  0.4212 -0.3079  0.2159
47470SOL    HW147348   1.564  11.068  11.666  0.8690 -0.8222 -1.0626
47470SOL    HW247349   1.705  11.037  11.712 -0.1258  0.4573  3.2733
47471SOL     OW47350   4.076   0.329   6.656 -0.1971  0.1899  0.0494
47471SOL    HW147351   4.058   0.235   6.649  1.0385 -0.0530 -0.2574
47471SOL    HW247352   4.127   0.337   6.737  0.1782  0.5118 -0.2166
47472SOL     OW47353   1.608   0.527   9.482  0.1868  0.1442 -0.0138
47472SOL    HW147354   1.523   0.554   9.449 -0.0266 -0.3808  0.1062
47472SOL    HW247355   1.595   0.514   9.576  0.3686 -0.0409 -0.0122
47473SOL     OW47356  10.922   6.838   9.406 -0.6847 -0.4545 -0.0401
47473SOL    HW147357  10.860   6.765   9.408  0.7897 -1.7652  1.9453
47473SOL    HW247358  10.937   6.860   9.498  1.5476 -0.0234 -0.4498
47474SOL     OW47359   1.386   1.479   5.632 -0.0061 -0.2910 -0.2736
47474SOL    HW147360   1.409   1.399   5.679  1.2284  0.3817  0.3179
47474SOL    HW247361   1.458   1.492   5.570 -0.0061  0.5343 -0.1181
47475SOL     OW47362   2.288   0.429   5.351  0.0623 -0.3982 -0.6615
47475SOL    HW147363   2.253   0.515   5.326 -1.3655 -0.8832 -0.3839
47475SOL    HW247364   2.290   0.379   5.270 -0.0180 -0.4197 -0.6497
47476SOL     OW47365   3.765   2.257   6.880 -0.3716 -0.5093  0.3678
47476SOL    HW147366   3.744   2.229   6.791 -0.1564 -0.7510  0.3916
47476SOL    HW247367   3.799   2.346   6.870  1.0712 -1.0797  0.0386
47477SOL     OW47368  10.808   7.136   6.950 -0.1211  0.5578  0.0687
47477SOL    HW147369  10.877   7.095   7.002 -0.0810  1.2126  0.5404
47477SOL    HW247370  10.755   7.062   6.919  0.9947  0.0262 -0.6108
47478SOL     OW47371   2.293   9.769   5.961  0.2088 -0.0473 -0.9560
47478SOL    HW147372   2.353   9.789   6.033 -0.2203 -2.3325  0.1294
47478SOL    HW247373   2.208   9.757   6.004 -0.4687  0.4283 -2.1186
47479SOL     OW47374   8.412  11.150  11.536 -0.0216  0.2552  0.0003
47479SOL    HW147375   8.418  11.063  11.495  3.1438  0.5875 -0.5310
47479SOL    HW247376   8.384  11.131  11.626  0.8214 -1.3805 -0.0285
47480SOL     OW47377   5.625   8.998   5.705 -0.2684 -0.4314  0.4269
47480SOL    HW147378   5.673   8.965   5.781 -1.0156 -1.7664  0.3476
47480SOL    HW247379   5.533   8.980   5.726 -0.5714  0.1996 -0.3248
47481SOL     OW47380   7.408   0.408   0.079  0.2131  0.0761  0.5096
47481SOL    HW147381   7.406   0.402   0.175  0.1889 -0.7560  0.4593
47481SOL    HW247382   7.357   0.487   0.060 -0.5824 -0.2625  1.1393
47482SOL     OW47383   0.388   4.686  10.941  0.3149 -0.2408 -0.1567
47482SOL    HW147384   0.309   4.645  10.907  0.2029 -0.8340  0.7836
47482SOL    HW247385   0.366   4.710  11.031  2.2647 -3.6758  1.4030
47483SOL     OW47386   2.049   9.647   3.858  0.3968  0.3509 -0.2015
47483SOL    HW147387   1.994   9.586   3.908  0.8820  0.6899  0.7692
47483SOL    HW247388   2.139   9.622   3.880  0.6027  1.6426  0.5131
47484SOL     OW47389   3.488   2.886   1.004 -0.1860 -0.2207  0.4178
47484SOL    HW147390   3.572   2.867   0.963  0.1634 -1.0308  1.4678
47484SOL    HW247391   3.483   2.982   1.005  1.3342 -0.1288  1.5135
47485SOL     OW47392   6.250   3.442   9.712 -0.3440 -0.0972 -0.2134
47485SOL    HW147393   6.274   3.359   9.753 -0.8605 -0.4192 -0.5537
47485SOL    HW247394   6.199   3.418   9.635 -0.0734  0.5247 -0.6047
47486SOL     OW47395   1.641   0.295   9.323  0.0999 -0.1597  0.1463
47486SOL    HW147396   1.601   0.356   9.262  0.1697 -0.9060 -0.6577
47486SOL    HW247397   1.621   0.331   9.410 -0.5541  0.5559 -0.2944
47487SOL     OW47398   1.385  11.208   3.833 -0.4075 -0.3423  0.5283
47487SOL    HW147399   1.304  11.197   3.783  0.3006 -2.7131 -0.2433
47487SOL    HW247400   1.431  11.279   3.789 -2.3451  1.6049  1.4649
47488SOL     OW47401   2.311   0.430   5.934  0.7489 -0.1226 -1.0276
47488SOL    HW147402   2.350   0.353   5.975 -0.7480 -0.5277 -0.2972
47488SOL    HW247403   2.352   0.505   5.977  1.0944 -0.5232 -0.6593
47489SOL     OW47404   0.408   7.953   7.783  0.2519  0.1938 -0.2368
47489SOL    HW147405   0.454   7.989   7.706 -2.6421  1.4280 -1.5321
47489SOL    HW247406   0.318   7.985   7.774 -0.8011 -1.7120  2.3809
47490SOL     OW47407   3.710   2.796   1.612 -0.4277  0.0455  0.4476
47490SOL    HW147408   3.650   2.725   1.634 -0.2876  0.5287  2.6155
47490SOL    HW247409   3.743   2.826   1.697  0.7138  1.6629 -0.5231
47491SOL     OW47410   3.916   4.481   0.378 -0.4680  0.8398 -0.1844
47491SOL    HW147411   3.858   4.442   0.444  0.2517 -2.1504 -1.2059
47491SOL    HW247412   3.985   4.523   0.430 -0.0423 -1.2358  1.0431
47492SOL     OW47413   9.105   4.137   8.922  0.4711  0.2389 -0.5559
47492SOL    HW147414   9.045   4.154   8.850  2.4755 -0.4084 -2.4899
47492SOL    HW247415   9.177   4.198   8.908  1.0159 -0.0474  0.8059
47493SOL     OW47416   7.725   8.429   3.156 -0.0728  0.7294 -0.0496
47493SOL    HW147417   7.691   8.348   3.117  0.6971  0.2631  0.2118
47493SOL    HW247418   7.795   8.457   3.097  0.4951  0.5144  0.5131
47494SOL     OW47419   2.034   9.945   9.881  0.2535 -0.0393  0.1369
47494SOL    HW147420   2.042   9.922   9.974  0.5492  0.5886  0.2788
47494SOL    HW247421   1.994  10.032   9.881 -0.0379 -0.1711 -0.3366
47495SOL     OW47422  10.111   2.640   0.352 -0.4518  0.6142 -0.1433
47495SOL    HW147423  10.180   2.675   0.408 -0.7730  0.0594  0.6197
47495SOL    HW247424  10.120   2.688   0.270  1.1510  0.2190 -0.2398
47496SOL     OW47425   2.359   9.843   0.709 -0.7630 -0.5200 -0.3002
47496SOL    HW147426   2.411   9.763   0.722  0.7460  0.7089  2.1416
47496SOL    HW247427   2.420   9.904   0.669 -0.1543  0.9675  2.6540
47497SOL     OW47428   5.951   5.850   6.608 -0.1936 -0.2819 -0.1870
47497SOL    HW147429   5.876   5.850   6.667  0.4077  0.5049  0.6161
47497SOL    HW247430   6.019   5.802   6.656  0.7520  1.5619  0.4128
47498SOL     OW47431   9.325   2.367  10.878  0.0740  0.2290  0.0580
47498SOL    HW147432   9.359   2.437  10.934 -0.5224 -0.2440  1.0408
47498SOL    HW247433   9.270   2.315  10.936 -0.8599 -0.0700 -1.0545
47499SOL     OW47434   2.014   6.229   6.239  0.3846 -0.0647  0.2543
47499SOL    HW147435   2.108   6.243   6.237  0.4881 -0.6362  0.8705
47499SOL    HW247436   2.002   6.144   6.281 -0.4336  0.3302  0.8648
47500SOL     OW47437   2.598  10.605   4.260 -0.6488 -0.1234  0.3165
47500SOL    HW147438   2.552  10.528   4.226 -0.0812 -0.1467 -0.3968
47500SOL    HW247439   2.539  10.678   4.241 -1.2053 -0.3636  1.0248
47501SOL     OW47440  10.242  10.778   6.799  0.0999  0.5521 -0.1421
47501SOL    HW147441  10.159  10.821   6.781 -0.9046 -1.2358  0.0854
47501SOL    HW247442  10.246  10.705   6.738 -0.1382 -1.4359  2.0680
47502SOL     OW47443  10.856   2.957  11.179  0.4357 -0.2843  0.0039
47502SOL    HW147444  10.809   2.935  11.259 -1.4592 -0.2945 -1.0544
47502SOL    HW247445  10.873   2.872  11.138  0.9015 -0.2456  0.1113
47503SOL     OW47446   5.081   9.496   3.160  0.2496 -0.3373 -0.1426
47503SOL    HW147447   5.041   9.560   3.219  1.9567  1.1987 -0.5690
47503SOL    HW247448   5.105   9.423   3.216 -1.5857 -0.5889  0.3841
47504SOL     OW47449   7.703   7.985   9.542 -0.3388  0.0441  0.0869
47504SOL    HW147450   7.697   8.080   9.534  1.9209  0.0857 -2.3157
47504SOL    HW247451   7.725   7.971   9.634 -0.2128  1.8896  0.3819
47505SOL     OW47452   0.925   3.271   0.824 -0.2746  0.0575 -0.6368
47505SOL    HW147453   0.935   3.224   0.741 -2.1310 -1.5389 -0.0398
47505SOL    HW247454   0.959   3.210   0.890  1.7673  1.5486 -0.1923
47506SOL     OW47455   4.432  10.541   9.324  0.1017  0.1526  0.0709
47506SOL    HW147456   4.460  10.455   9.292 -0.0576  0.5528 -1.2188
47506SOL    HW247457   4.478  10.553   9.407  0.6203 -0.8976 -0.0556
47507SOL     OW47458   2.114   3.415   1.494  0.0420  0.0269 -0.1701
47507SOL    HW147459   2.123   3.354   1.421 -0.5652  0.1138 -0.3199
47507SOL    HW247460   2.049   3.478   1.465  0.9576  0.9898 -0.1766
47508SOL     OW47461   6.023   6.381   8.479 -0.0934  0.8278 -0.0100
47508SOL    HW147462   6.054   6.470   8.495 -0.3568  0.9566 -0.2197
47508SOL    HW247463   5.972   6.359   8.558 -1.1373  1.3517 -0.5186
47509SOL     OW47464   6.329  10.185   7.225  0.7130  0.4742 -0.0902
47509SOL    HW147465   6.344  10.234   7.306  0.4946 -0.5845  0.6023
47509SOL    HW247466   6.348  10.094   7.247 -2.3607 -0.3247 -0.3371
47510SOL     OW47467   8.670   3.955   7.545  0.2269  0.1038 -0.5720
47510SOL    HW147468   8.746   3.969   7.488 -0.0250  0.7055 -0.7624
47510SOL    HW247469   8.599   4.002   7.503 -0.5618 -1.3929 -1.0002
47511SOL     OW47470   5.349   6.581   6.078  0.2612  0.1982 -0.1394
47511SOL    HW147471   5.410   6.508   6.070 -0.0018 -0.0362 -0.0162
47511SOL    HW247472   5.263   6.543   6.060  0.1499  0.5241 -0.3041
47512SOL     OW47473   7.869   6.248   1.055 -0.6471  0.1341 -0.4291
47512SOL    HW147474   7.916   6.213   1.130 -0.6745 -0.2914 -0.6119
47512SOL    HW247475   7.841   6.336   1.084 -0.2861  0.1444 -0.1017
47513SOL     OW47476  10.970   0.926  10.897  0.2316 -0.0849  0.1439
47513SOL    HW147477  11.038   0.918  10.964 -0.5720 -1.1779  0.8702
47513SOL    HW247478  10.923   1.006  10.919 -0.0506 -0.4522  0.9402
47514SOL     OW47479   6.499   6.128   9.698  0.2423 -0.2047 -0.2070
47514SOL    HW147480   6.589   6.107   9.675 -0.1736 -2.3626 -0.0955
47514SOL    HW247481   6.450   6.048   9.677 -1.4737  0.5654  0.6737
47515SOL     OW47482   2.818   1.215   3.411 -0.5162 -0.0793 -0.5862
47515SOL    HW147483   2.789   1.149   3.348 -2.0788 -0.8906  0.9069
47515SOL    HW247484   2.815   1.171   3.496  0.0665  1.4224  0.2626
47516SOL     OW47485   4.391   7.026   3.393  0.5016 -0.2482  0.3775
47516SOL    HW147486   4.363   6.949   3.443  1.5612  0.0313  1.4685
47516SOL    HW247487   4.362   7.100   3.446 -1.2568  0.1597 -1.0861
47517SOL     OW47488   4.960   9.162  10.396 -0.6047  0.1876  0.3296
47517SOL    HW147489   4.975   9.086  10.452 -2.3562  0.8901  1.8523
47517SOL    HW247490   5.043   9.211  10.400  0.6662 -1.7600 -0.9650
47518SOL     OW47491   9.888   3.834   8.050  0.1215 -0.2451  0.1901
47518SOL    HW147492   9.964   3.858   7.997 -0.6490 -0.9640 -1.3211
47518SOL    HW247493   9.923   3.817   8.137  1.8047 -1.1493 -0.6188
47519SOL     OW47494  11.468   6.953   8.995  0.1755 -0.7031  0.0564
47519SOL    HW147495  11.456   6.870   9.042  1.7476 -1.0487 -0.0805
47519SOL    HW247496  11.562   6.956   8.977 -0.0452  0.5612 -0.9855
47520SOL     OW47497   0.074   8.269  11.267  0.2644 -0.2753  0.3608
47520SOL    HW147498   0.135   8.333  11.304  0.3124 -0.5067  0.6968
47520SOL    HW247499  -0.001   8.320  11.239 -0.4321 -0.2336  2.1666
47521SOL     OW47500   2.652  11.147  11.686 -0.0882  0.1155 -0.3552
47521SOL    HW147501   2.565  11.164  11.722 -0.0252  0.6884 -0.4509
47521SOL    HW247502   2.712  11.190  11.748  0.1204 -0.1810 -0.3473
47522SOL     OW47503   4.581   2.758   4.496 -0.2268 -0.3040 -0.0409
47522SOL    HW147504   4.654   2.729   4.551  0.2083  1.3867  0.3376
47522SOL    HW247505   4.622   2.785   4.414 -0.3837  0.7251  0.1984
47523SOL     OW47506   9.016   4.182   8.525  0.3595  0.1955 -0.0208
47523SOL    HW147507   8.982   4.188   8.614  0.5516 -0.0517  0.0693
47523SOL    HW247508   9.063   4.265   8.512 -1.6744  1.3049 -0.7436
47524SOL     OW47509   8.539   4.977   4.796 -0.4883 -0.7863 -0.1063
47524SOL    HW147510   8.618   5.006   4.841 -0.7608 -0.4234  0.1373
47524SOL    HW247511   8.516   5.049   4.737  0.2560 -1.5285 -1.3505
47525SOL     OW47512   1.441   8.014   2.679  0.0647 -0.3858 -0.2148
47525SOL    HW147513   1.437   7.918   2.680  1.7706 -0.5138 -1.0277
47525SOL    HW247514   1.417   8.038   2.590 -1.7638  0.0716  0.3705
47526SOL     OW47515  10.962   8.944   4.917  0.2322 -0.1661 -0.2392
47526SOL    HW147516  11.006   8.859   4.914 -0.9607 -0.7970 -1.6471
47526SOL    HW247517  11.032   9.008   4.925  1.5307 -1.0604 -3.1420
47527SOL     OW47518   8.629   6.270   8.932  1.0145  0.0504 -0.4096
47527SOL    HW147519   8.588   6.344   8.976  0.9196 -0.9308  1.2195
47527SOL    HW247520   8.566   6.199   8.939  1.7852 -0.6598 -0.4593
47528SOL     OW47521   4.849   7.436   3.623  0.1436  0.0557  0.0941
47528SOL    HW147522   4.835   7.341   3.625  0.4345 -0.0440  3.1258
47528SOL    HW247523   4.761   7.473   3.616 -0.0040 -0.4227 -0.7157
47529SOL     OW47524  11.039  11.004   0.906 -0.2239  0.1797  0.4188
47529SOL    HW147525  11.118  10.965   0.868 -1.5425 -2.1027 -0.2190
47529SOL    HW247526  11.021  10.951   0.984 -1.6729 -0.0478 -0.0385
47530SOL     OW47527   4.083   6.628   8.878 -0.6858 -0.3532 -0.2405
47530SOL    HW147528   4.051   6.549   8.922 -0.1196 -0.6919 -0.4201
47530SOL    HW247529   4.116   6.596   8.793 -0.6647  0.1078 -0.4066
47531SOL     OW47530   4.319   2.605   0.620  0.5423  0.1258 -0.3710
47531SOL    HW147531   4.394   2.620   0.677 -0.0860 -0.6197  0.6872
47531SOL    HW247532   4.354   2.556   0.546  0.9526 -1.0803  0.5805
47532SOL     OW47533   7.423   1.692   8.959  0.2314 -0.7119 -0.0351
47532SOL    HW147534   7.443   1.663   8.870  2.0552 -1.8858  0.6872
47532SOL    HW247535   7.436   1.614   9.013 -0.9566 -0.0557  1.2561
47533SOL     OW47536  10.099   6.370   0.634 -0.1819 -0.1480 -0.0360
47533SOL    HW147537  10.080   6.443   0.693 -0.3946  0.2856 -0.6382
47533SOL    HW247538  10.142   6.305   0.690 -1.6311 -0.3335  0.9195
47534SOL     OW47539   8.084   9.196   8.628  0.2087  0.2334 -0.2351
47534SOL    HW147540   8.007   9.211   8.573 -0.3856  0.7579  0.7185
47534SOL    HW247541   8.050   9.151   8.705  0.8785  0.3458  0.1301
47535SOL     OW47542   7.579   8.789   5.361  0.4370  0.4068 -0.0636
47535SOL    HW147543   7.628   8.755   5.436  0.3529 -0.9268 -0.5903
47535SOL    HW247544   7.646   8.830   5.306  0.7529 -0.0874 -0.0569
47536SOL     OW47545   3.966   7.732   9.894 -0.1449  1.2037 -0.1929
47536SOL    HW147546   3.988   7.737   9.987  1.0259  0.9475 -0.4395
47536SOL    HW247547   4.046   7.700   9.852 -2.1490 -4.3670 -0.6445
47537SOL     OW47548   7.396  11.235  10.586 -0.3770 -0.5263  0.2066
47537SOL    HW147549   7.302  11.242  10.605  0.0081  1.5528  1.7046
47537SOL    HW247550   7.433  11.195  10.664  0.1875  0.1857  0.3070
47538SOL     OW47551   7.572   7.944   3.848  0.3054  0.0173 -0.1468
47538SOL    HW147552   7.651   7.932   3.795  1.0157 -0.2448  0.9424
47538SOL    HW247553   7.596   8.010   3.913 -0.2602 -0.3343  0.4305
47539SOL     OW47554   0.090   0.008  11.460  0.0505 -0.1533 -0.4087
47539SOL    HW147555   0.179   0.000  11.425 -0.9927 -1.1473 -3.1015
47539SOL    HW247556   0.079   0.101  11.478  0.7537  0.4253 -2.6828
47540SOL     OW47557   9.890   6.471   7.518  0.2976  0.3352  0.5372
47540SOL    HW147558   9.911   6.382   7.547  0.0382 -0.6556 -2.0405
47540SOL    HW247559   9.800   6.485   7.547 -0.6456 -1.3863 -1.3538
47541SOL     OW47560   4.521   1.402   4.343  0.5244  0.0841 -0.3471
47541SOL    HW147561   4.431   1.376   4.322  0.0786  1.7592 -0.7031
47541SOL    HW247562   4.528   1.388   4.437 -1.1869  2.7231  0.2917
47542SOL     OW47563   4.417   5.949   0.427  0.2144  0.6178  0.4330
47542SOL    HW147564   4.366   5.887   0.480  1.4193 -0.0794  0.8293
47542SOL    HW247565   4.411   6.031   0.475 -1.5219  0.8918 -0.1686
47543SOL     OW47566   8.513   1.388   6.403 -0.7331  0.0618  0.2929
47543SOL    HW147567   8.451   1.320   6.375 -2.5016  1.3683  0.8682
47543SOL    HW247568   8.459   1.453   6.448  1.0795  1.2723  0.8309
47544SOL     OW47569   5.125   4.650   0.568  0.5326  0.0115 -0.5605
47544SOL    HW147570   5.042   4.696   0.567 -0.8552 -2.3130 -0.6941
47544SOL    HW247571   5.159   4.659   0.479 -1.1596 -1.5271 -1.4455
47545SOL     OW47572  10.019   2.152   8.108  0.3965 -0.6059  0.0517
47545SOL    HW147573   9.976   2.071   8.080 -1.1670  0.0224  0.5631
47545SOL    HW247574   9.948   2.210   8.134  1.5553  0.4933  0.9160
47546SOL     OW47575   3.374   8.345   3.445 -0.1674 -0.2486  0.2606
47546SOL    HW147576   3.323   8.346   3.526 -1.6072 -0.1914 -0.6159
47546SOL    HW247577   3.342   8.420   3.395  0.8311 -0.1742 -0.3028
47547SOL     OW47578   9.559   5.619   8.238  0.0698  0.6627  0.5475
47547SOL    HW147579   9.639   5.669   8.248  2.1594 -1.3359 -3.7006
47547SOL    HW247580   9.529   5.637   8.149 -2.8278 -0.6101  1.1361
47548SOL     OW47581   8.408   0.668   6.118  0.2038 -0.0476  0.7567
47548SOL    HW147582   8.473   0.638   6.181 -1.0349  1.7995  3.0679
47548SOL    HW247583   8.457   0.681   6.037  2.2113 -0.8395  1.7728
47549SOL     OW47584   7.956   1.506   2.857 -0.1941 -0.6010  0.9455
47549SOL    HW147585   7.936   1.421   2.818 -0.6839 -0.0544 -0.0430
47549SOL    HW247586   7.880   1.527   2.910 -0.5660 -0.2832  0.2966
47550SOL     OW47587   4.497   2.568   8.102 -0.5363 -0.1280 -0.7980
47550SOL    HW147588   4.538   2.496   8.149  0.2701  0.1615 -1.0517
47550SOL    HW247589   4.425   2.527   8.054 -0.6212 -0.6192 -0.2589
47551SOL     OW47590   2.333   1.947  10.506 -0.2233 -0.3335 -0.9118
47551SOL    HW147591   2.347   2.042  10.507 -0.6543 -0.2706  0.0308
47551SOL    HW247592   2.241   1.936  10.533 -1.0648 -0.8981 -3.7175
47552SOL     OW47593   6.299   7.412   1.480  0.2140 -0.0158 -0.0055
47552SOL    HW147594   6.224   7.381   1.529 -1.5205  0.4410 -2.2059
47552SOL    HW247595   6.337   7.480   1.535 -1.6875  0.5421  0.6998
47553SOL     OW47596   4.027   6.744  11.379 -0.4368 -0.1625  0.3333
47553SOL    HW147597   4.062   6.712  11.296  1.5485  2.3808  0.0400
47553SOL    HW247598   4.085   6.707  11.446  1.4175  1.9883  0.0499
47554SOL     OW47599   5.872   2.716   0.971  0.5242 -0.2404 -0.2662
47554SOL    HW147600   5.953   2.665   0.973  1.3356  0.9636 -1.2178
47554SOL    HW247601   5.880   2.771   0.893 -0.4127  1.1955  0.6093
47555SOL     OW47602   9.268   8.995   2.655  0.0682 -0.4668  0.0364
47555SOL    HW147603   9.185   9.042   2.659 -0.2990 -1.1486  0.5697
47555SOL    HW247604   9.328   9.056   2.613 -0.7347 -0.0137 -0.4770
47556SOL     OW47605   1.565   3.275   8.637  0.0871  0.0076  0.8282
47556SOL    HW147606   1.611   3.200   8.597 -1.0632 -0.4295  0.2936
47556SOL    HW247607   1.636   3.334   8.664  0.9760  0.6558 -2.4282
47557SOL     OW47608   3.538   0.599   1.464 -0.3641 -0.5430 -0.1159
47557SOL    HW147609   3.519   0.665   1.397 -0.8313  0.3165  0.8311
47557SOL    HW247610   3.571   0.524   1.415  1.7047  0.9180 -1.1327
47558SOL     OW47611   3.356   3.933   7.943 -0.2245  0.1123  0.4210
47558SOL    HW147612   3.336   4.001   7.878  1.1327  2.4540  2.2712
47558SOL    HW247613   3.306   3.960   8.020  0.9636 -0.5524  1.4420
47559SOL     OW47614   6.100   3.364  10.219  0.6833  0.2671  0.0711
47559SOL    HW147615   6.163   3.434  10.236  2.4000 -1.2051  0.1200
47559SOL    HW247616   6.019   3.409  10.194  1.7707  2.2350 -0.0816
47560SOL     OW47617   0.916   2.218   9.705  0.0025 -0.1084  0.4588
47560SOL    HW147618   0.883   2.307   9.696  1.9816  0.7417  1.0909
47560SOL    HW247619   0.976   2.221   9.780  1.3966 -1.5517 -0.5124
47561SOL     OW47620   5.630  11.474   8.747 -0.0227  0.5008  0.1237
47561SOL    HW147621   5.599  11.550   8.797 -1.4470  0.1417 -0.1624
47561SOL    HW247622   5.561  11.458   8.683  0.1487 -1.1867  0.3240
47562SOL     OW47623   2.830   3.707   9.292 -0.4039  0.3739 -0.5702
47562SOL    HW147624   2.861   3.722   9.381  0.3841 -0.5872 -0.6694
47562SOL    HW247625   2.763   3.774   9.278 -1.0907  0.0467  1.0111
47563SOL     OW47626   3.324   2.360  11.536 -0.4767 -0.9866 -0.0810
47563SOL    HW147627   3.375   2.324  11.464 -0.4680  0.1566 -0.6558
47563SOL    HW247628   3.316   2.287  11.598 -0.7730 -2.0906 -1.3730
47564SOL     OW47629   5.469   8.542   1.951 -0.1023  0.1653  0.2394
47564SOL    HW147630   5.442   8.606   2.018 -3.3135  0.2839 -0.9944
47564SOL    HW247631   5.425   8.461   1.977 -1.0876  0.1181 -1.4435
47565SOL     OW47632   5.702   3.628   4.065 -0.5427 -0.1718  0.8297
47565SOL    HW147633   5.794   3.656   4.065 -0.7115  0.4215  0.1150
47565SOL    HW247634   5.702   3.545   4.114  0.5740 -0.8331 -0.2396
47566SOL     OW47635   9.983   7.919   3.912 -0.2651 -1.0353 -0.3530
47566SOL    HW147636  10.032   7.984   3.862 -1.2728  0.1156  0.1011
47566SOL    HW247637   9.930   7.873   3.847  1.0700 -2.0186 -0.7899
47567SOL     OW47638   9.295  10.441   9.662 -0.1803 -0.0306 -0.2083
47567SOL    HW147639   9.218  10.459   9.609 -0.5701  0.1551  0.4173
47567SOL    HW247640   9.367  10.436   9.599 -0.4511  1.3056 -0.6490
47568SOL     OW47641   1.280   4.637   9.450 -0.3479 -0.4213 -0.5995
47568SOL    HW147642   1.353   4.699   9.457 -0.0253 -0.7892 -0.7195
47568SOL    HW247643   1.249   4.627   9.540  0.3473 -0.9778 -0.4155
47569SOL     OW47644   2.830   7.277   7.166 -0.3234 -0.1315 -0.0715
47569SOL    HW147645   2.893   7.254   7.234  0.6460  1.8081 -0.2497
47569SOL    HW247646   2.875   7.259   7.084 -0.5596 -0.1255 -0.2045
47570SOL     OW47647  10.799   1.680   0.156  0.0020  0.7005 -0.1884
47570SOL    HW147648  10.771   1.598   0.197 -2.9649  0.8300 -1.6801
47570SOL    HW247649  10.858   1.653   0.086 -0.1963 -0.1078 -0.0519
47571SOL     OW47650   3.612   7.388   7.693 -0.7146 -0.1072 -0.3535
47571SOL    HW147651   3.705   7.390   7.671 -0.1658  1.1617  1.7492
47571SOL    HW247652   3.607   7.331   7.770 -1.1827  1.8870  1.1884
47572SOL     OW47653   8.724   9.444   2.290 -0.1704 -0.8897 -0.0339
47572SOL    HW147654   8.693   9.358   2.321 -1.2515 -0.7143 -0.5724
47572SOL    HW247655   8.673   9.460   2.210  0.1085  0.1980 -0.0042
47573SOL     OW47656   2.022   0.732   8.566 -0.1025  0.2399 -0.0536
47573SOL    HW147657   1.982   0.816   8.586 -0.2956  0.0878  0.2121
47573SOL    HW247658   1.994   0.674   8.637 -0.9196 -0.3564 -0.8364
47574SOL     OW47659   5.852  10.839  10.643  0.1806  0.5954  0.5055
47574SOL    HW147660   5.795  10.773  10.603 -0.3529  1.3411  0.0162
47574SOL    HW247661   5.872  10.899  10.571  1.0044  0.7321  0.8512
47575SOL     OW47662   6.337  10.025   5.399 -0.4693  0.2658 -0.5058
47575SOL    HW147663   6.420  10.060   5.365 -0.7883 -0.0328 -1.6165
47575SOL    HW247664   6.330   9.938   5.359 -0.5405 -0.3899  0.8590
47576SOL     OW47665   4.237   5.537   9.260 -0.2160  0.1918  0.5333
47576SOL    HW147666   4.173   5.486   9.309  0.8414 -0.6273  1.1130
47576SOL    HW247667   4.318   5.526   9.309  0.0121  2.6411  0.8075
47577SOL     OW47668   9.715   5.679   8.851  0.1377 -0.2024 -0.5752
47577SOL    HW147669   9.666   5.644   8.777  1.1279  0.6776 -1.6943
47577SOL    HW247670   9.716   5.774   8.836 -0.0797  0.0514  0.8605
47578SOL     OW47671  11.517  10.837   1.530  0.0220 -0.2975  0.3004
47578SOL    HW147672  11.445  10.880   1.575  1.6594 -0.2721  3.1455
47578SOL    HW247673  11.506  10.743   1.549 -0.4971 -0.5889 -1.2509
47579SOL     OW47674   5.979   2.278   9.652  0.0008  0.3121  0.1653
47579SOL    HW147675   6.058   2.303   9.605  0.4946 -0.9983  0.2590
47579SOL    HW247676   5.928   2.227   9.589  0.2575 -0.6967  0.7480
47580SOL     OW47677  11.402   4.447  10.139  0.1656 -0.4566  0.6950
47580SOL    HW147678  11.356   4.530  10.133  0.4941 -0.2660  0.7787
47580SOL    HW247679  11.416   4.434  10.232 -0.7842 -1.1120  0.7624
47581SOL     OW47680   9.683   9.091   8.875  0.4984  0.1399 -0.3706
47581SOL    HW147681   9.743   9.058   8.808  1.3451 -1.4280  1.0977
47581SOL    HW247682   9.603   9.039   8.863  1.2606 -1.4214  0.8852
47582SOL     OW47683  10.370   7.869   0.748  0.0813  0.4603 -0.0829
47582SOL    HW147684  10.422   7.805   0.699 -0.9681 -1.3211  1.0362
47582SOL    HW247685  10.435   7.921   0.796  0.9127 -0.8559  0.2763
47583SOL     OW47686   7.813   3.291   6.530 -0.6856 -0.3485 -0.1431
47583SOL    HW147687   7.736   3.342   6.556 -1.1274  0.1588 -2.2579
47583SOL    HW247688   7.883   3.322   6.588 -0.9202  2.8109 -1.3536
47584SOL     OW47689  10.443   7.045   5.584  0.0000 -0.0410  0.6309
47584SOL    HW147690  10.405   7.068   5.670  1.9865  1.3986  1.1990
47584SOL    HW247691  10.483   6.960   5.598  0.4857  0.2731  1.2173
47585SOL     OW47692   6.167   0.687   1.126  0.1536 -0.0872  0.1940
47585SOL    HW147693   6.232   0.741   1.081 -0.2176 -0.1900 -0.4919
47585SOL    HW247694   6.098   0.748   1.151  0.7705  0.1188  1.4436
47586SOL     OW47695   1.628   0.863   3.568 -0.2520  0.5160  0.2817
47586SOL    HW147696   1.544   0.846   3.525  0.7364 -3.1884 -0.4647
47586SOL    HW247697   1.669   0.930   3.513 -2.1712  1.5423 -0.0067
47587SOL     OW47698   8.424   0.586   4.558  0.3935 -0.3300 -0.0896
47587SOL    HW147699   8.509   0.631   4.549  1.7809 -2.5711  0.8932
47587SOL    HW247700   8.383   0.596   4.472 -0.2468  4.2171  0.5032
47588SOL     OW47701   5.691  10.727   8.986  0.2401 -0.3519  0.3804
47588SOL    HW147702   5.636  10.792   9.030  0.4958 -0.6776  1.1931
47588SOL    HW247703   5.776  10.734   9.029  0.9210  0.2892 -1.0084
47589SOL     OW47704   2.110   3.999   5.342 -0.3688  0.0393 -0.2633
47589SOL    HW147705   2.074   3.931   5.399  0.2442  0.4143  0.5785
47589SOL    HW247706   2.146   3.951   5.267 -0.7766 -0.4845 -0.1328
47590SOL     OW47707   1.039   1.045   8.922 -0.0165  0.4371  0.0924
47590SOL    HW147708   0.984   1.096   8.982 -2.8951 -0.7884 -1.2634
47590SOL    HW247709   1.065   0.968   8.972 -0.1677  0.6864  0.5588
47591SOL     OW47710  11.373  11.231   3.977 -1.2042  0.2404  0.3137
47591SOL    HW147711  11.289  11.216   4.020 -0.5630 -2.3057  0.8496
47591SOL    HW247712  11.434  11.174   4.023  0.3246  0.2539 -1.5564
47592SOL     OW47713   2.544   2.335   5.651 -0.1669 -0.2749  0.4019
47592SOL    HW147714   2.553   2.412   5.596 -0.4940 -0.9951 -0.7067
47592SOL    HW247715   2.489   2.363   5.724  1.9651  1.2603  1.5181
47593SOL     OW47716   4.633   6.575   3.181  0.2311 -0.2863 -0.5301
47593SOL    HW147717   4.673   6.488   3.187  1.3527  0.2026 -0.7073
47593SOL    HW247718   4.682   6.620   3.113  0.3696  0.8553  0.2897
47594SOL     OW47719   4.931   0.283   8.074  0.2019 -0.1561 -0.0740
47594SOL    HW147720   4.903   0.313   8.161  0.2915 -2.0227  0.6338
47594SOL    HW247721   4.850   0.284   8.022 -0.0976 -0.1951  0.3805
47595SOL     OW47722   2.960  10.073   6.052 -0.2899  0.0030 -0.2995
47595SOL    HW147723   2.996  10.148   6.004 -1.2061  0.6094 -0.0589
47595SOL    HW247724   2.958  10.102   6.143 -1.0412 -0.1467 -0.2611
47596SOL     OW47725  11.260   2.333   9.902  0.0437 -0.1535 -0.0238
47596SOL    HW147726  11.349   2.355   9.931  0.4616 -0.5103 -1.0229
47596SOL    HW247727  11.224   2.283   9.976  0.4744  0.4479  0.6155
47597SOL     OW47728   0.297   4.729  11.209  0.3946  0.7061 -0.0041
47597SOL    HW147729   0.304   4.648  11.259  2.8305 -0.5064 -2.0812
47597SOL    HW247730   0.333   4.796  11.266  2.8466 -0.5884  0.0844
47598SOL     OW47731   0.966   4.557   0.225  0.1581  0.1319  0.0095
47598SOL    HW147732   1.013   4.580   0.145  0.3595  0.2079  0.1483
47598SOL    HW247733   0.888   4.511   0.195  0.3040  0.0355 -0.2233
47599SOL     OW47734  11.165   2.890   4.545  0.8628 -0.2584 -0.2272
47599SOL    HW147735  11.231   2.829   4.578  1.6770  1.0363  0.6280
47599SOL    HW247736  11.150   2.863   4.455  3.3677  0.0361 -0.8088
47600SOL     OW47737   0.234   5.847   5.761  0.0162 -0.1875  0.1344
47600SOL    HW147738   0.182   5.768   5.749 -0.8735  0.6908 -2.5320
47600SOL    HW247739   0.169   5.916   5.775  0.1947  1.0490 -3.8963
47601SOL     OW47740   1.418   6.930   4.588 -0.0610 -0.0801 -0.2032
47601SOL    HW147741   1.444   7.018   4.612  1.0373 -0.5500  0.3840
47601SOL    HW247742   1.346   6.909   4.647 -1.0860  0.8171 -1.0955
47602SOL     OW47743  10.743   8.927   4.756 -0.1726  0.3498 -0.1376
47602SOL    HW147744  10.676   8.947   4.822  0.2694  0.7617  0.1927
47602SOL    HW247745  10.824   8.917   4.807  0.4438  1.9941 -0.7490
47603SOL     OW47746  10.000   2.181  10.485  0.0219 -0.2806 -0.0647
47603SOL    HW147747  10.048   2.219  10.412 -1.9602  2.1747 -0.2083
47603SOL    HW247748   9.923   2.139  10.445 -2.2825  2.9605  0.5278
47604SOL     OW47749   8.419   3.087   9.707  0.2167  0.1856  0.1768
47604SOL    HW147750   8.473   3.140   9.765  0.0390 -0.8884  1.3654
47604SOL    HW247751   8.478   3.020   9.674  0.5091  1.2323 -1.5358
47605SOL     OW47752   0.095   7.356   2.529  0.0873  0.1294  0.5090
47605SOL    HW147753   0.088   7.289   2.598 -1.2712  0.5737  0.8274
47605SOL    HW247754   0.006   7.386   2.516  0.5164  1.0013 -0.5324
47606SOL     OW47755   4.432  11.222   8.463  0.5952  0.1509  0.5158
47606SOL    HW147756   4.390  11.305   8.438  2.4029  1.4382  1.5089
47606SOL    HW247757   4.415  11.213   8.556  0.1004 -0.8110  0.3440
47607SOL     OW47758   1.484   8.918   5.750  0.2096 -0.8143 -0.1295
47607SOL    HW147759   1.430   8.902   5.672 -0.5293  1.3634 -0.1290
47607SOL    HW247760   1.573   8.926   5.716 -0.2872  1.7015 -1.0798
47608SOL     OW47761  11.359   6.141   9.946  0.0151  0.0541 -0.7794
47608SOL    HW147762  11.453   6.157   9.936 -0.1088 -0.0718 -2.2777
47608SOL    HW247763  11.327   6.216   9.996  0.7388  0.5861 -1.1020
47609SOL     OW47764   7.445   9.759   7.683  0.0785 -0.1796  1.0663
47609SOL    HW147765   7.427   9.853   7.683  0.3022 -0.1018 -1.0517
47609SOL    HW247766   7.379   9.722   7.625  1.5023 -0.9798 -0.1069
47610SOL     OW47767   0.449  10.520   4.600  0.1449 -0.5444 -0.4963
47610SOL    HW147768   0.445  10.526   4.696  0.1902  0.4429 -0.5524
47610SOL    HW247769   0.419  10.431   4.581  1.1238 -1.1172  0.4997
47611SOL     OW47770   2.667  10.680   6.751  0.1630  0.2868  0.6154
47611SOL    HW147771   2.702  10.766   6.771  2.4089 -0.2947 -0.5045
47611SOL    HW247772   2.584  10.676   6.799  0.7118  2.4788  1.8735
47612SOL     OW47773   7.534   9.662   6.980  0.1614  0.1089 -1.0063
47612SOL    HW147774   7.625   9.680   7.004 -0.3136  0.6393  0.4938
47612SOL    HW247775   7.482   9.698   7.052 -1.2600  0.0596 -1.9622
47613SOL     OW47776   1.245   3.369   3.867 -0.2916  0.1522 -0.0737
47613SOL    HW147777   1.241   3.454   3.824  0.6837  0.8105  1.0914
47613SOL    HW247778   1.330   3.332   3.842  0.0568  0.3110  0.8190
47614SOL     OW47779   7.155  11.618   3.948  0.1950  0.3660  0.9713
47614SOL    HW147780   7.064  11.592   3.961  0.4678 -2.1239 -1.3043
47614SOL    HW247781   7.179  11.582   3.862  2.9034  2.2294  0.7997
47615SOL     OW47782   7.324   1.904  11.476  0.0897 -0.3558 -0.1088
47615SOL    HW147783   7.392   1.934  11.537 -1.1160  2.3285  0.0545
47615SOL    HW247784   7.285   1.828  11.519  0.5470  0.3204  1.5747
47616SOL     OW47785  11.623   6.284   4.990 -0.3266 -0.1071  0.2224
47616SOL    HW147786  11.636   6.364   4.940 -0.4487  1.5388  2.6750
47616SOL    HW247787  11.530   6.284   5.013 -0.6167 -1.6572 -0.7922
47617SOL     OW47788   6.180   9.239   3.372  0.3472  0.2692  0.0311
47617SOL    HW147789   6.118   9.167   3.384  0.4044 -0.0936 -1.5757
47617SOL    HW247790   6.137   9.296   3.308  0.3966  1.5798  1.1305
47618SOL     OW47791   1.518   4.243   6.179  0.3053 -0.1892  0.4363
47618SOL    HW147792   1.612   4.226   6.179  0.3084 -0.5757 -2.1292
47618SOL    HW247793   1.508   4.322   6.126 -0.8941 -0.9066 -0.4594
47619SOL     OW47794   3.526  10.347   5.584  0.1823 -0.1135  0.2959
47619SOL    HW147795   3.481  10.271   5.548 -0.8892 -0.6580  2.6149
47619SOL    HW247796   3.457  10.411   5.600 -0.2661 -1.4648  5.1906
47620SOL     OW47797  10.717   2.309   3.233  0.0882 -0.2610  0.0061
47620SOL    HW147798  10.641   2.329   3.178  0.8114  2.4949 -0.1466
47620SOL    HW247799  10.787   2.366   3.199  0.4946  1.9185  3.8552
47621SOL     OW47800   4.587   2.874   0.127  0.3249  0.1220  0.0704
47621SOL    HW147801   4.662   2.927   0.100  0.0979  1.0126  1.1392
47621SOL    HW247802   4.576   2.810   0.056  1.4019  0.6813 -0.6213
47622SOL     OW47803   9.671   3.890   8.975  0.2926  0.2518  0.2940
47622SOL    HW147804   9.636   3.902   8.886 -1.4548 -1.0592  0.7641
47622SOL    HW247805   9.604   3.925   9.032  1.7891  1.9177  1.1419
47623SOL     OW47806   7.525   5.716   4.689  0.2861  0.3737  0.2576
47623SOL    HW147807   7.430   5.702   4.687  0.2875  0.3613 -1.5664
47623SOL    HW247808   7.554   5.675   4.770 -0.9311 -1.9870 -0.4052
47624SOL     OW47809  10.744   8.846   5.134  0.5371 -0.9425  0.5315
47624SOL    HW147810  10.781   8.929   5.104  0.3342 -0.9946  0.1260
47624SOL    HW247811  10.657   8.868   5.166  0.7558 -0.8856  1.1029
47625SOL     OW47812   7.368   0.972   8.014 -0.3320  0.4163 -0.3383
47625SOL    HW147813   7.440   0.928   7.967 -0.1322 -1.2240  1.3872
47625SOL    HW247814   7.398   0.978   8.104 -1.4105  1.9363 -0.0485
47626SOL     OW47815   3.507  11.237   8.272  0.1183 -0.3214 -0.1532
47626SOL    HW147816   3.453  11.316   8.266  0.2680 -0.0919  1.1777
47626SOL    HW247817   3.497  11.194   8.187  0.5285  1.4439 -1.1402
47627SOL     OW47818   0.021   6.239   0.331 -0.0952 -0.9809  0.0160
47627SOL    HW147819   0.097   6.280   0.372 -0.4044 -0.9365  0.5596
47627SOL    HW247820   0.043   6.146   0.325  0.8645 -0.6906 -1.7876
47628SOL     OW47821   2.493   8.501  10.074 -0.1760  0.1578 -0.1572
47628SOL    HW147822   2.546   8.487   9.995  0.5145 -1.9917  0.5974
47628SOL    HW247823   2.555   8.494  10.146 -0.7777  2.1935  0.6289
47629SOL     OW47824   8.116   3.640   5.320 -0.4001  0.4586 -0.3692
47629SOL    HW147825   8.102   3.735   5.324  0.1118  0.5416 -0.5657
47629SOL    HW247826   8.182   3.628   5.253 -0.8488 -0.0840 -0.7220
47630SOL     OW47827   4.207   0.155   5.051  0.0621  0.1048  0.1704
47630SOL    HW147828   4.172   0.097   5.119 -2.1532  2.0128  0.7718
47630SOL    HW247829   4.301   0.136   5.050  0.1107 -0.4125  3.3673
47631SOL     OW47830   0.245   6.723   2.563 -0.1279 -0.0933 -0.0835
47631SOL    HW147831   0.326   6.746   2.519 -0.5489  1.7428 -0.0083
47631SOL    HW247832   0.250   6.629   2.577  2.6441  0.1477  1.2117
47632SOL     OW47833   9.292   6.184   8.554  0.2998 -0.0958  0.2345
47632SOL    HW147834   9.354   6.250   8.586 -0.9949 -0.1176  3.1484
47632SOL    HW247835   9.210   6.232   8.541 -0.8149 -1.0377  2.9166
47633SOL     OW47836   2.420   9.143   6.215 -0.1498  0.0342 -0.2568
47633SOL    HW147837   2.423   9.174   6.124 -0.9826  0.8191 -0.0330
47633SOL    HW247838   2.467   9.210   6.264  0.5014 -0.5069 -0.1349
47634SOL     OW47839   9.835   0.687   1.874  0.0173  0.3378 -0.4871
47634SOL    HW147840   9.886   0.618   1.831  1.3346  1.5822 -1.0231
47634SOL    HW247841   9.791   0.732   1.801  0.6480  1.1831 -0.3755
47635SOL     OW47842   0.854   2.897   0.196  0.4903 -0.3124  0.2861
47635SOL    HW147843   0.910   2.928   0.125 -0.4621 -0.3583 -0.5102
47635SOL    HW247844   0.837   2.805   0.176 -0.5781 -0.0741  0.0112
47636SOL     OW47845  11.422   1.587  10.323 -0.1708  0.2137  0.3366
47636SOL    HW147846  11.431   1.494  10.301 -0.2245  0.2837  0.0075
47636SOL    HW247847  11.496   1.605  10.382  0.4337  0.1971 -0.3922
47637SOL     OW47848   7.365   2.240   4.794 -0.8599 -0.2957 -0.0477
47637SOL    HW147849   7.328   2.293   4.723  2.7732 -0.1107 -2.0322
47637SOL    HW247850   7.358   2.150   4.762 -1.2068 -0.4253  0.3912
47638SOL     OW47851  10.603   5.822   6.797 -0.0877  0.3817  0.4361
47638SOL    HW147852  10.579   5.826   6.705  3.0242 -0.4421 -0.5616
47638SOL    HW247853  10.657   5.743   6.804  3.3668  2.5913  1.8722
47639SOL     OW47854   6.416   4.748   0.581  0.0091  0.3118 -0.1485
47639SOL    HW147855   6.351   4.731   0.513  0.7101  1.9111 -1.3093
47639SOL    HW247856   6.500   4.726   0.540  0.4380  1.2046  0.2038
47640SOL     OW47857   8.718   4.797   2.279 -1.0441 -0.1445  0.2995
47640SOL    HW147858   8.675   4.880   2.255 -0.3266  0.4272  0.9492
47640SOL    HW247859   8.646   4.734   2.284 -1.5536  0.3301 -0.6387
47641SOL     OW47860   6.548   0.052   8.496  0.5342  0.6741  0.0335
47641SOL    HW147861   6.548   0.145   8.474 -2.5550  0.6340 -0.5711
47641SOL    HW247862   6.486   0.044   8.569 -0.1202 -1.0229 -0.6483
47642SOL     OW47863   1.882   5.349  11.652 -0.3078 -0.1618  0.3252
47642SOL    HW147864   1.893   5.257  11.678  2.1732  0.1806  0.6840
47642SOL    HW247865   1.909   5.399  11.728 -0.2792  0.8705 -0.3489
47643SOL     OW47866   7.085   6.161   3.178  1.0613 -0.2659  0.8005
47643SOL    HW147867   7.154   6.114   3.225  0.7545 -0.4345  1.0828
47643SOL    HW247868   7.007   6.149   3.231  0.4244 -1.4634 -0.3705
47644SOL     OW47869   0.743   5.638   7.033  0.0164  0.0334 -1.0251
47644SOL    HW147870   0.820   5.691   7.056  0.1770 -1.3459  2.2359
47644SOL    HW247871   0.669   5.697   7.047  0.3411  0.3483 -0.5932
47645SOL     OW47872   2.356   1.224   6.830  0.1072 -0.1139 -0.0719
47645SOL    HW147873   2.403   1.306   6.844 -3.7067  2.4265 -0.7200
47645SOL    HW247874   2.347   1.186   6.917 -1.4880  2.3265  0.9239
47646SOL     OW47875  11.569   8.450   7.004  0.5896 -0.2294  0.0073
47646SOL    HW147876  11.659   8.481   7.006  0.5400  0.1210 -1.7772
47646SOL    HW247877  11.564   8.385   7.074  2.2652 -0.3901  0.0096
47647SOL     OW47878  11.083   6.418   4.028  0.4890  0.0543 -0.1120
47647SOL    HW147879  11.140   6.426   3.952  1.1730 -1.6258  0.1723
47647SOL    HW247880  11.003   6.377   3.995  0.1657  0.7384 -0.1890
47648SOL     OW47881   3.829  10.389   1.784 -0.0224 -0.2812  0.3407
47648SOL    HW147882   3.776  10.417   1.710  0.5456 -0.7029 -0.2353
47648SOL    HW247883   3.782  10.421   1.861 -1.6087 -1.4555 -0.0987
47649SOL     OW47884   9.620   7.825   0.390 -0.1616 -0.2077 -0.5450
47649SOL    HW147885   9.690   7.764   0.414 -0.1703 -0.0140 -0.0182
47649SOL    HW247886   9.544   7.769   0.377  0.1976 -0.4731 -1.5903
47650SOL     OW47887   6.229   6.259   2.000  0.2659 -0.2926 -0.1186
47650SOL    HW147888   6.238   6.188   1.936  2.4258  0.1699 -0.3975
47650SOL    HW247889   6.301   6.245   2.062  1.4216  2.1827 -0.7729
47651SOL     OW47890   6.649   3.354   4.967  0.7091  0.1335  0.1807
47651SOL    HW147891   6.643   3.405   5.048 -0.3293 -0.0064  0.2137
47651SOL    HW247892   6.568   3.303   4.965  0.6254  0.2760 -1.0423
47652SOL     OW47893   5.510   3.620   1.790  0.0807  0.3125  0.3408
47652SOL    HW147894   5.461   3.539   1.803 -1.9380  1.6388  1.5103
47652SOL    HW247895   5.539   3.616   1.699  0.1545 -1.7543  0.4153
47653SOL     OW47896   6.989   4.536   5.132 -0.2014  0.0977 -0.0060
47653SOL    HW147897   7.073   4.537   5.086  0.6128 -1.0720  1.3812
47653SOL    HW247898   6.980   4.447   5.164 -1.2126  0.6234  1.2533
47654SOL     OW47899   6.094   8.143   8.079 -0.0694 -0.0356 -0.1949
47654SOL    HW147900   6.038   8.200   8.027  1.3064  1.2414 -0.3317
47654SOL    HW247901   6.088   8.057   8.036  0.1814  0.7215 -1.8020
47655SOL     OW47902  10.048   1.457   2.409  0.0709 -0.0915 -0.4015
47655SOL    HW147903   9.970   1.495   2.369  0.6774  0.6572 -0.9007
47655SOL    HW247904  10.015   1.384   2.462 -1.2363  1.5282  1.1621
47656SOL     OW47905   2.310   6.709  10.193  0.2249  0.1406 -0.1710
47656SOL    HW147906   2.280   6.777  10.253 -1.1207  0.5620 -1.2704
47656SOL    HW247907   2.257   6.632  10.215 -0.7271  0.4770 -1.1854
47657SOL     OW47908   6.756   4.908   3.256  0.3256 -0.2563  0.0867
47657SOL    HW147909   6.667   4.940   3.245 -0.3198 -1.7033  0.7361
47657SOL    HW247910   6.809   4.958   3.194 -1.3647 -1.0759 -2.1242
47658SOL     OW47911   5.509   0.134   5.340 -0.2157 -0.5289 -0.2428
47658SOL    HW147912   5.515   0.123   5.245 -1.9455 -1.5052 -0.2692
47658SOL    HW247913   5.596   0.110   5.372  0.2164 -0.7523 -1.5301
47659SOL     OW47914   4.299   0.759   2.388 -0.2844  0.0817 -0.2399
47659SOL    HW147915   4.317   0.853   2.392 -1.5616  0.3468 -0.2793
47659SOL    HW247916   4.324   0.734   2.300  0.5230  0.2803 -0.0738
47660SOL     OW47917   0.086   3.828   5.651  0.1838 -0.0624 -0.2223
47660SOL    HW147918  -0.009   3.817   5.663  0.1996 -0.0258 -0.0587
47660SOL    HW247919   0.097   3.838   5.556 -0.1565  1.5934 -0.1220
47661SOL     OW47920   6.764   3.330   0.711 -0.1061  0.1251 -0.0811
47661SOL    HW147921   6.781   3.405   0.766  2.9652  0.6059 -1.5201
47661SOL    HW247922   6.695   3.359   0.651 -0.0389  1.2274  0.3659
47662SOL     OW47923   3.287   1.141  10.116 -0.1939  0.3222  0.0781
47662SOL    HW147924   3.329   1.217  10.074 -0.4434  0.6428  0.4062
47662SOL    HW247925   3.351   1.113  10.182 -0.0030  0.1043 -0.1966
47663SOL     OW47926  10.955   6.140  11.261  0.2072  0.8181  0.5692
47663SOL    HW147927  11.033   6.124  11.315 -0.4553  0.0265  1.3101
47663SOL    HW247928  10.897   6.191  11.317  0.4747  2.0694 -0.2463
47664SOL     OW47929   2.360   0.193  11.672  0.0156  0.5648  0.2613
47664SOL    HW147930   2.392   0.212  11.584  1.9661 -0.8654  0.5807
47664SOL    HW247931   2.267   0.174  11.661 -0.3837  2.9084 -1.0557
47665SOL     OW47932   4.770   9.721   2.202  0.5385  0.2548 -0.0333
47665SOL    HW147933   4.780   9.654   2.269 -3.0316  0.5155  0.9483
47665SOL    HW247934   4.767   9.804   2.250 -2.0881  0.4422 -0.3283
47666SOL     OW47935   8.312   5.091   9.300 -0.6208  0.0683  0.1378
47666SOL    HW147936   8.407   5.084   9.305 -0.6682 -1.3337 -0.4883
47666SOL    HW247937   8.281   5.068   9.387 -0.4929 -2.7704 -0.4685
47667SOL     OW47938   6.405   9.210   8.830  0.2537 -0.2761 -0.4137
47667SOL    HW147939   6.434   9.127   8.792 -0.6114 -0.5239 -0.5577
47667SOL    HW247940   6.310   9.203   8.833  0.2669 -0.2539  1.7570
47668SOL     OW47941  10.139   9.173   2.127  0.5260  0.5478  0.3159
47668SOL    HW147942  10.110   9.083   2.145  1.9416  0.1595  0.8174
47668SOL    HW247943  10.079   9.228   2.177 -0.6104 -0.0896 -0.3190
47669SOL     OW47944   8.292   6.582   8.686  0.1414  0.3800 -0.4329
47669SOL    HW147945   8.343   6.502   8.683 -0.9357 -0.3368 -0.0703
47669SOL    HW247946   8.271   6.593   8.779  1.0856  1.6166 -0.3380
47670SOL     OW47947   5.063   5.607  10.985  0.6011 -0.0785 -0.0343
47670SOL    HW147948   4.974   5.573  10.977  0.7249 -0.4952  0.3301
47670SOL    HW247949   5.055   5.700  10.966  0.5574 -0.5998 -3.0642
47671SOL     OW47950   4.921  10.270   4.920 -0.4083  0.0273 -0.1285
47671SOL    HW147951   4.948  10.194   4.867  1.7990  0.3266  0.4473
47671SOL    HW247952   4.833  10.249   4.950  0.2952 -2.5524  0.3818
47672SOL     OW47953   8.976  10.323   9.976 -0.6549 -0.2225 -0.6664
47672SOL    HW147954   9.026  10.397  10.011  0.7747 -0.4169 -2.1713
47672SOL    HW247955   9.033  10.248   9.989 -0.3707 -0.4158 -2.6674
47673SOL     OW47956   5.789   3.956   2.925 -0.1104  0.6168 -0.5477
47673SOL    HW147957   5.716   3.922   2.872 -0.2852 -1.4403  0.9077
47673SOL    HW247958   5.866   3.941   2.871 -0.5301  0.8295 -1.2225
47674SOL     OW47959   8.873   0.843   4.500 -0.5385  0.0330  0.1884
47674SOL    HW147960   8.857   0.794   4.580 -0.4444 -1.1304 -0.4941
47674SOL    HW247961   8.796   0.827   4.446  0.4528 -1.1584 -0.9178
47675SOL     OW47962   2.842  11.088  11.139 -0.2158  0.4169 -0.3198
47675SOL    HW147963   2.878  11.046  11.217 -0.8230 -0.8910 -0.7182
47675SOL    HW247964   2.819  11.176  11.168 -0.7064 -0.1316  1.0811
47676SOL     OW47965   2.920   0.593   1.860 -0.5034  0.2059 -0.1633
47676SOL    HW147966   2.903   0.504   1.828  0.7549 -0.0948 -0.0684
47676SOL    HW247967   2.963   0.637   1.787 -1.0494  0.7296 -0.1814
47677SOL     OW47968  11.216   5.305   4.405  0.2774  0.0531 -0.0043
47677SOL    HW147969  11.138   5.288   4.352 -0.1425  1.0256  0.2732
47677SOL    HW247970  11.255   5.219   4.419 -0.6823 -0.4365 -0.2451
47678SOL     OW47971   0.339   7.621   9.787  0.8518 -0.0374  0.1009
47678SOL    HW147972   0.413   7.582   9.740  1.1189  0.6445 -0.0477
47678SOL    HW247973   0.351   7.593   9.878  1.0934 -0.2199  0.0132
47679SOL     OW47974   4.472   8.552   1.115  0.6829  0.6600  0.1807
47679SOL    HW147975   4.539   8.553   1.045  0.9981 -1.2739  0.3764
47679SOL    HW247976   4.389   8.556   1.068  0.8906  2.3394 -0.1100
47680SOL     OW47977   4.855   7.583   1.040 -0.2128  0.3229 -0.0552
47680SOL    HW147978   4.811   7.649   1.093 -1.2841 -0.3013 -0.1447
47680SOL    HW247979   4.941   7.621   1.021 -0.7403  1.6122  0.0442
47681SOL     OW47980   9.649   5.950   1.969 -0.3617  0.3071  0.0478
47681SOL    HW147981   9.607   6.032   1.996  2.4424  0.9690  2.9156
47681SOL    HW247982   9.601   5.882   2.017  0.0481  0.7779  1.1614
47682SOL     OW47983   3.752   8.887   8.365 -0.6660 -0.0534  0.0903
47682SOL    HW147984   3.805   8.815   8.399 -1.1795 -0.4216  0.1174
47682SOL    HW247985   3.754   8.954   8.434  1.7252  0.9650 -0.8533
47683SOL     OW47986   6.288  10.733  10.627  0.1162 -0.3831 -0.1129
47683SOL    HW147987   6.217  10.794  10.644 -0.5517 -1.4049  0.8907
47683SOL    HW247988   6.331  10.722  10.712 -0.2596 -1.8937 -0.1026
47684SOL     OW47989   7.494   8.273   0.367 -0.0251  0.2501 -0.3505
47684SOL    HW147990   7.447   8.202   0.410  2.5479 -1.6029 -0.3399
47684SOL    HW247991   7.525   8.328   0.440  0.5446 -0.3666 -0.1138
47685SOL     OW47992   1.182   1.361   5.033 -0.0512 -0.3284 -0.2183
47685SOL    HW147993   1.127   1.285   5.012  0.8244 -0.8768 -0.6026
47685SOL    HW247994   1.261   1.323   5.073 -0.3180  0.5078  1.1166
47686SOL     OW47995   9.403   4.801   7.381 -0.3652 -0.2764  0.1057
47686SOL    HW147996   9.307   4.807   7.380 -0.3076  0.9822  0.2966
47686SOL    HW247997   9.424   4.765   7.467 -0.6878 -1.3528 -0.2482
47687SOL     OW47998   2.173   1.699   4.152 -0.2924  0.2275 -0.3087
47687SOL    HW147999   2.256   1.681   4.195  0.9991  1.0407 -2.2904
47687SOL    HW248000   2.185   1.667   4.062 -2.6516 -0.9284 -0.2899
47688SOL     OW48001   0.955   9.153   7.351 -0.3431 -0.4903 -0.2712
47688SOL    HW148002   0.882   9.092   7.361 -0.2228 -0.6697 -0.4841
47688SOL    HW248003   0.915   9.233   7.317 -0.2655 -1.0159 -1.6586
47689SOL     OW48004   6.051   7.634   1.225  0.2949 -0.2431  0.9169
47689SOL    HW148005   6.065   7.621   1.132  1.0430 -0.5583  1.0646
47689SOL    HW248006   5.959   7.614   1.239  0.0097  0.4818  0.1386
47690SOL     OW48007   3.116  11.680   9.755  0.2352 -0.4569 -0.1336
47690SOL    HW148008   3.052  11.610   9.760  0.4299 -0.6133  0.1826
47690SOL    HW248009   3.116  11.720   9.841 -0.3469  0.3613 -0.5042
47691SOL     OW48010  10.341   6.258   6.301  0.0849 -0.0541 -0.1678
47691SOL    HW148011  10.405   6.236   6.369 -0.6811 -0.0235  0.5808
47691SOL    HW248012  10.262   6.212   6.327 -1.2649  2.6458  0.8493
47692SOL     OW48013   2.972   2.722   0.579  0.0147 -0.3521  0.4123
47692SOL    HW148014   2.913   2.651   0.605  0.7747 -1.4595 -0.7621
47692SOL    HW248015   2.925   2.768   0.509 -0.1454 -0.1749  0.6331
47693SOL     OW48016   5.180   5.550   5.111  0.5638  0.0646 -0.1517
47693SOL    HW148017   5.150   5.501   5.034  0.7368 -0.3574  0.0446
47693SOL    HW248018   5.100   5.588   5.147  0.4325 -0.0356 -0.3350
47694SOL     OW48019   8.589   9.758   3.705 -0.4922 -0.0855 -0.3605
47694SOL    HW148020   8.626   9.833   3.659 -0.0533 -0.6538 -0.9453
47694SOL    HW248021   8.519   9.795   3.758  1.4107  1.1903  1.4423
47695SOL     OW48022   9.179   8.418   1.797 -0.4502  0.5189  0.7502
47695SOL    HW148023   9.125   8.449   1.869 -1.1350  0.0232  0.4571
47695SOL    HW248024   9.128   8.437   1.718 -0.4331 -0.4164  0.5013
47696SOL     OW48025   5.031   1.861   5.792 -0.3495  0.0081  0.6458
47696SOL    HW148026   5.034   1.957   5.797  1.3873  0.1916 -1.9503
47696SOL    HW248027   5.122   1.834   5.788 -0.8215 -1.6662  0.3141
47697SOL     OW48028   1.994   7.630   5.968  0.5364 -0.0761  0.2818
47697SOL    HW148029   1.919   7.596   5.920  1.8353 -1.1522 -1.0453
47697SOL    HW248030   1.962   7.712   6.007 -0.6159  0.7890 -2.2971
47698SOL     OW48031   4.685   6.735   9.348  0.3416  0.4948 -0.0318
47698SOL    HW148032   4.631   6.814   9.349 -0.8698 -0.2938 -0.3258
47698SOL    HW248033   4.677   6.701   9.259 -1.1649 -1.2384  0.6828
47699SOL     OW48034   6.725   9.697  11.305  0.5050 -0.1836 -0.0815
47699SOL    HW148035   6.793   9.699  11.238  0.4517 -1.9016 -0.2109
47699SOL    HW248036   6.669   9.772  11.283  0.5293 -0.6528 -1.9458
47700SOL     OW48037   2.005   8.348   6.415  0.8029 -0.5463  0.2845
47700SOL    HW148038   2.030   8.269   6.463  0.1911 -1.2090 -0.4668
47700SOL    HW248039   2.034   8.332   6.325 -0.0270 -0.2577 -0.0455
47701SOL     OW48040   0.848   3.856  10.200 -0.0300 -0.0670 -0.4463
47701SOL    HW148041   0.766   3.849  10.151 -0.5775 -1.0643  0.5695
47701SOL    HW248042   0.831   3.809  10.281  0.7151  1.8848  0.9147
47702SOL     OW48043   4.292   8.185   1.001 -0.2145 -0.5427  0.5621
47702SOL    HW148044   4.264   8.242   0.930 -1.0652 -0.9339  0.5642
47702SOL    HW248045   4.258   8.226   1.080  2.4408  0.9775  1.0182
47703SOL     OW48046   7.331   2.914   5.160 -0.4007 -0.0664 -0.1046
47703SOL    HW148047   7.266   2.884   5.224 -0.6991 -1.6374 -1.1082
47703SOL    HW248048   7.337   3.008   5.175 -3.3300  0.2492 -0.3280
47704SOL     OW48049   1.635  10.080   8.209  0.4318  0.4601  0.0418
47704SOL    HW148050   1.548  10.065   8.245 -0.2154  0.7160 -1.3634
47704SOL    HW248051   1.694  10.060   8.281 -0.7433 -0.5397  0.7732
47705SOL     OW48052  10.748  10.999   2.338 -0.3498 -0.2212  0.1820
47705SOL    HW148053  10.655  10.975   2.330 -0.4834 -1.0440  3.1445
47705SOL    HW248054  10.750  11.061   2.411  1.2939  1.1102 -0.9144
47706SOL     OW48055   7.961   5.332   4.633  0.1209  0.6177  1.1469
47706SOL    HW148056   7.980   5.410   4.581  0.1738  0.7032  1.2943
47706SOL    HW248057   7.910   5.276   4.574  0.7283  0.4361  0.7890
47707SOL     OW48058   8.178   7.800   8.447  0.0313  0.1982  0.2715
47707SOL    HW148059   8.208   7.889   8.427 -1.4317  0.5010 -0.6903
47707SOL    HW248060   8.237   7.744   8.397  0.2691  0.6698  0.0093
47708SOL     OW48061   2.293   5.245   4.946 -0.0671 -0.4552 -0.0691
47708SOL    HW148062   2.383   5.273   4.930 -0.1444 -1.2592 -2.1116
47708SOL    HW248063   2.250   5.324   4.979  1.1716  0.1605  0.1617
47709SOL     OW48064   4.100   7.828   3.584 -0.4508  0.4939 -0.3911
47709SOL    HW148065   4.145   7.772   3.647 -1.1567  1.3947  0.9619
47709SOL    HW248066   4.160   7.831   3.509 -0.0159 -1.3469 -0.1716
47710SOL     OW48067  11.384   2.789   0.086  0.2294 -0.2693  0.1347
47710SOL    HW148068  11.396   2.809  -0.007 -1.5542 -0.0299 -0.0855
47710SOL    HW248069  11.427   2.861   0.132 -1.7161  1.4580 -0.5961
47711SOL     OW48070   9.275   0.946  10.567 -0.0449  0.6254  0.1065
47711SOL    HW148071   9.278   0.998  10.487 -0.3980 -1.3047 -1.2181
47711SOL    HW248072   9.367   0.935  10.593  0.2340 -0.4546 -1.2357
47712SOL     OW48073   3.947   1.196   0.683 -0.0059 -0.1209  0.2004
47712SOL    HW148074   3.972   1.265   0.745 -0.4886 -0.3616  0.6768
47712SOL    HW248075   4.027   1.146   0.669 -0.4292 -1.7958  2.8640
47713SOL     OW48076   1.832   5.833   8.952  0.5487 -0.6226  0.1198
47713SOL    HW148077   1.840   5.819   9.047  2.7034 -2.4728 -0.2259
47713SOL    HW248078   1.815   5.746   8.917  0.3611 -0.0577 -1.2342
47714SOL     OW48079   9.373   0.229  11.626  0.6071 -0.3756 -0.2239
47714SOL    HW148080   9.286   0.251  11.593  0.9208  3.2960  1.0106
47714SOL    HW248081   9.433   0.268  11.562  1.3025 -0.2825  0.4794
47715SOL     OW48082   1.550   3.830   6.409 -0.0227  0.4466 -0.5029
47715SOL    HW148083   1.511   3.874   6.333 -1.9026  1.3674  0.9247
47715SOL    HW248084   1.484   3.769   6.438  0.9199 -0.3270  0.0761
47716SOL     OW48085   7.281   8.423   6.542  0.0155  0.2885  0.0537
47716SOL    HW148086   7.226   8.485   6.591 -1.2365 -0.7367 -0.0143
47716SOL    HW248087   7.366   8.428   6.586  0.4552  3.1613 -0.8652
47717SOL     OW48088   9.525   0.636  11.666 -0.0688 -0.2767 -0.3900
47717SOL    HW148089   9.499   0.727  11.681 -0.0489 -0.1976 -0.8420
47717SOL    HW248090   9.467   0.606  11.597 -1.1552 -1.0935  0.8200
47718SOL     OW48091   3.822   9.290   8.471 -0.1346  0.1105 -0.3343
47718SOL    HW148092   3.862   9.230   8.535  0.7980  0.6993 -0.3522
47718SOL    HW248093   3.728   9.272   8.478  0.0249 -0.4729  0.5580
47719SOL     OW48094  10.635  10.066   0.770 -0.1210 -0.6136  0.5535
47719SOL    HW148095  10.726  10.056   0.742 -0.0728  0.2527  0.3625
47719SOL    HW248096  10.587  10.000   0.720  0.4028 -1.0803  0.6643
47720SOL     OW48097   2.796   7.516   7.312  0.4009 -0.1417 -0.4856
47720SOL    HW148098   2.796   7.431   7.269  0.4595 -1.4072  1.8226
47720SOL    HW248099   2.888   7.533   7.334  0.3874  0.5199 -0.8943
47721SOL     OW48100   6.650   3.485   6.723 -0.1439 -0.1906  0.4237
47721SOL    HW148101   6.580   3.447   6.776 -0.2001 -0.8992 -0.1431
47721SOL    HW248102   6.624   3.576   6.710 -1.9450 -0.8886 -1.3402
47722SOL     OW48103   3.656  11.654   1.538  0.6155 -0.1136 -0.0485
47722SOL    HW148104   3.638  11.566   1.572 -1.5103  1.0496  2.1382
47722SOL    HW248105   3.722  11.689   1.597  0.0991  0.3818  0.2477
47723SOL     OW48106   5.423  11.430   8.585 -0.2080  0.5355  0.4014
47723SOL    HW148107   5.379  11.504   8.544 -2.0743 -0.8615 -0.2700
47723SOL    HW248108   5.352  11.377   8.621  0.9686 -1.4635 -0.0712
47724SOL     OW48109   3.696   1.654   0.412  0.2716 -0.4154  0.3665
47724SOL    HW148110   3.626   1.710   0.445  0.8445  1.3089 -1.2065
47724SOL    HW248111   3.651   1.574   0.384 -0.6448 -0.5158  1.9958
47725SOL     OW48112   5.351  11.383   9.042  0.2540 -0.1350  0.2830
47725SOL    HW148113   5.311  11.362   9.126  0.0141  1.1282  0.5118
47725SOL    HW248114   5.299  11.456   9.008  0.8596 -0.0758 -0.5641
47726SOL     OW48115   3.204   7.935   6.057 -0.8521 -0.3202  0.6711
47726SOL    HW148116   3.215   7.973   6.144 -1.1544  0.4449  0.3774
47726SOL    HW248117   3.282   7.961   6.009 -0.9587 -0.2465  0.5364
47727SOL     OW48118   3.890   6.537   4.896  0.2298  0.0123 -0.7406
47727SOL    HW148119   3.955   6.486   4.945 -0.2041  0.3442  0.1977
47727SOL    HW248120   3.939   6.612   4.863  0.2186  0.5411  0.4154
47728SOL     OW48121   0.347   4.788   5.491  0.2405 -0.1529  0.2690
47728SOL    HW148122   0.351   4.704   5.536  0.1245  0.2436  1.0423
47728SOL    HW248123   0.255   4.800   5.469  0.2012 -0.0739  0.4715
47729SOL     OW48124   4.072  11.266  11.251 -0.5825 -0.9050 -0.1231
47729SOL    HW148125   4.049  11.233  11.338 -1.1260 -0.9183 -0.2697
47729SOL    HW248126   4.141  11.331  11.268 -0.4622 -1.1314  0.2870
47730SOL     OW48127   5.505   9.311   0.459 -0.4353  0.3168  0.2859
47730SOL    HW148128   5.542   9.377   0.518  1.2361 -0.2390 -0.0663
47730SOL    HW248129   5.527   9.342   0.371 -0.5520 -0.1794  0.0786
47731SOL     OW48130   9.878   9.965   7.965 -0.0546  0.0226  0.2514
47731SOL    HW148131   9.970   9.975   7.990  0.0793  0.8243 -0.5102
47731SOL    HW248132   9.860   9.872   7.978  2.0349 -1.0927 -3.4125
47732SOL     OW48133   3.590   8.106   1.183 -0.3222 -0.3103 -0.2939
47732SOL    HW148134   3.557   8.044   1.247  0.1605 -1.6603 -1.3067
47732SOL    HW248135   3.513   8.154   1.154 -0.6128 -0.0101  0.9313
47733SOL     OW48136   5.173   1.790   4.602  0.6223  0.3587 -0.0546
47733SOL    HW148137   5.173   1.697   4.626  1.3829 -0.3058 -2.3760
47733SOL    HW248138   5.250   1.800   4.547 -1.3476  1.4891 -2.8415
47734SOL     OW48139   2.155   5.647  10.642  0.3290 -0.1161  0.0695
47734SOL    HW148140   2.201   5.567  10.670  1.2899  0.2095 -0.5211
47734SOL    HW248141   2.223   5.700  10.600  0.1199  1.7488  1.9016
47735SOL     OW48142  10.286   0.528   6.603  0.0080 -0.6285  0.0760
47735SOL    HW148143  10.221   0.536   6.673 -0.7566  1.5575 -0.8104
47735SOL    HW248144  10.250   0.460   6.546  0.2634 -1.8898  1.3639
47736SOL     OW48145   2.949  10.870   0.362 -0.1142 -0.0675 -0.0177
47736SOL    HW148146   2.940  10.906   0.450  2.0083 -0.0164  0.2382
47736SOL    HW248147   2.963  10.947   0.306  1.1322 -0.2458  0.0241
47737SOL     OW48148   7.869  11.356  10.058  0.0497  0.2771  0.3182
47737SOL    HW148149   7.787  11.402  10.042 -0.2639 -0.2764  0.3305
47737SOL    HW248150   7.865  11.330  10.150 -0.6005 -1.3914 -0.1530
47738SOL     OW48151   4.357  11.051   2.027  0.8439 -0.0544 -0.3644
47738SOL    HW148152   4.396  11.125   1.981 -0.3463 -0.5681 -2.3374
47738SOL    HW248153   4.303  11.091   2.095  1.8671  0.7771 -0.0123
47739SOL     OW48154   4.796   3.063   0.111 -0.5506  0.3251  0.4641
47739SOL    HW148155   4.730   3.131   0.125  0.0885  0.5854  2.4792
47739SOL    HW248156   4.872   3.093   0.161  0.7567 -0.4803 -0.9577
47740SOL     OW48157   6.421   7.142   3.753  0.6579 -0.1842  0.4703
47740SOL    HW148158   6.400   7.049   3.740  2.8463 -0.5766 -0.6507
47740SOL    HW248159   6.336   7.186   3.744 -0.0034 -1.7303 -2.6916
47741SOL     OW48160   9.130   6.725   2.257 -0.1285  0.1168  0.2443
47741SOL    HW148161   9.159   6.716   2.348  1.4200  0.2257 -0.2062
47741SOL    HW248162   9.042   6.689   2.256 -0.5525  1.0059  1.9914
47742SOL     OW48163   9.840   6.641   3.191 -0.1318  0.3097  0.2184
47742SOL    HW148164   9.793   6.703   3.136 -1.0329  0.8584  1.5460
47742SOL    HW248165   9.913   6.691   3.228  0.7030 -0.1622 -0.7583
47743SOL     OW48166   5.620   6.958   4.190 -0.0646  0.4286  0.5829
47743SOL    HW148167   5.654   6.884   4.140 -0.5635 -0.8265  2.0498
47743SOL    HW248168   5.697   7.013   4.206  0.4766 -0.2266  0.2690
47744SOL     OW48169   9.780   5.584   4.761  0.2313 -0.4132 -0.1475
47744SOL    HW148170   9.824   5.663   4.729 -0.4399 -1.2906 -3.7268
47744SOL    HW248171   9.841   5.546   4.824  1.0597  2.3160  0.8354
47745SOL     OW48172   7.063   0.490  11.518 -0.2998  0.2840  0.0044
47745SOL    HW148173   7.020   0.404  11.515 -1.0610  0.6446  0.2816
47745SOL    HW248174   7.004   0.545  11.569 -0.9408  1.5663 -1.9869
47746SOL     OW48175  10.174   4.104   1.454  0.5416 -0.1107 -0.4801
47746SOL    HW148176  10.202   4.188   1.489  1.3579  0.1571 -1.6810
47746SOL    HW248177  10.232   4.040   1.497  0.6509  0.0635 -0.3656
47747SOL     OW48178   5.933   9.449   2.839  0.7546  0.4250  0.0169
47747SOL    HW148179   5.839   9.467   2.828  0.9346  0.6855 -1.2643
47747SOL    HW248180   5.937   9.379   2.905 -0.2731  1.1299  0.8610
47748SOL     OW48181   8.662  11.384   3.096 -0.0087  0.1631  0.0594
47748SOL    HW148182   8.633  11.446   3.029  0.4618 -0.0253 -0.3245
47748SOL    HW248183   8.588  11.377   3.156 -0.6085 -0.0137 -0.6875
47749SOL     OW48184   4.396   2.512   9.688  0.2517  0.4583 -0.6473
47749SOL    HW148185   4.415   2.422   9.661 -2.2921 -0.7514  1.0961
47749SOL    HW248186   4.465   2.533   9.752  0.2050 -0.7690 -0.1587
47750SOL     OW48187   6.376   5.692   3.429 -0.1047  0.1067  1.2027
47750SOL    HW148188   6.463   5.691   3.388  0.8404  1.2624  3.0182
47750SOL    HW248189   6.346   5.601   3.426  1.2689 -0.3482  0.7126
47751SOL     OW48190   5.935   7.687   2.306  0.2749  0.3264 -0.5190
47751SOL    HW148191   5.942   7.665   2.399  0.2054  3.5500  0.3622
47751SOL    HW248192   6.020   7.662   2.269  0.4482 -0.6359  0.4822
47752SOL     OW48193   1.205   8.415   2.735  0.1357  0.0474  0.1692
47752SOL    HW148194   1.238   8.466   2.661  0.5474  0.6540  0.7558
47752SOL    HW248195   1.181   8.330   2.697  0.7403  0.1995 -0.5754
47753SOL     OW48196   5.926   0.470  10.329  0.3358 -0.5360  0.2727
47753SOL    HW148197   5.993   0.456  10.262  0.6630  0.3628  0.4026
47753SOL    HW248198   5.937   0.561  10.355 -3.1541  0.8021 -2.1785
47754SOL     OW48199   2.913   0.026   9.136 -0.0030  0.3819  0.2627
47754SOL    HW148200   2.906   0.025   9.040  0.6677 -1.8844  0.1832
47754SOL    HW248201   2.999  -0.010   9.154  0.3958  1.9560  1.7486
47755SOL     OW48202   3.587  10.244  11.539 -0.2674  0.0094 -0.4919
47755SOL    HW148203   3.638  10.167  11.514 -1.0152  0.1425 -2.6806
47755SOL    HW248204   3.576  10.292  11.457 -1.5701  1.3837  0.4462
47756SOL     OW48205   3.765   9.712   6.620 -1.0075  0.1590  0.1338
47756SOL    HW148206   3.713   9.744   6.547  0.7266  0.7936 -0.8825
47756SOL    HW248207   3.745   9.619   6.626 -1.8548  0.2880 -0.5457
47757SOL     OW48208   3.430   7.293   8.056 -0.2836  0.1563 -0.1767
47757SOL    HW148209   3.399   7.260   7.972 -0.8548 -0.3158  0.2143
47757SOL    HW248210   3.350   7.309   8.106  0.0771 -0.6202  0.6708
47758SOL     OW48211   1.834   6.463   9.706  0.1911 -0.1936  0.1419
47758SOL    HW148212   1.823   6.550   9.669  0.8353  0.1877  0.8092
47758SOL    HW248213   1.793   6.468   9.793 -1.1454 -1.0208 -0.4143
47759SOL     OW48214  10.179   5.269   1.745 -0.3271 -0.5290 -0.1049
47759SOL    HW148215  10.236   5.277   1.821 -0.3765 -1.5842  0.0573
47759SOL    HW248216  10.207   5.339   1.686  1.0675 -0.9631  0.0175
47760SOL     OW48217   0.858   4.208  11.319  0.0526  0.4825 -0.8666
47760SOL    HW148218   0.863   4.284  11.378 -0.2399 -1.8256  2.4156
47760SOL    HW248219   0.938   4.212  11.268 -0.5427  3.6211 -1.7810
47761SOL     OW48220   9.223   6.706   2.012  0.5146  0.0128  0.3571
47761SOL    HW148221   9.141   6.721   1.965  1.1476  1.5969 -0.2935
47761SOL    HW248222   9.197   6.705   2.105 -0.5268 -1.7452  0.1102
47762SOL     OW48223   3.994   8.746   7.068 -0.7475  0.4747 -0.0001
47762SOL    HW148224   4.020   8.794   6.989 -1.1691 -0.3860 -0.6712
47762SOL    HW248225   4.031   8.659   7.057 -0.3094  0.5088  1.0444
47763SOL     OW48226   9.529   4.501   2.012  0.6685  0.0626  0.2789
47763SOL    HW148227   9.507   4.594   2.010  0.7847  0.0846 -0.4498
47763SOL    HW248228   9.473   4.464   2.080 -0.1916  0.4702 -0.1922
47764SOL     OW48229  10.446   7.463   0.442  0.8847 -0.2392  0.6152
47764SOL    HW148230  10.397   7.432   0.366  1.0637  0.7000  0.1060
47764SOL    HW248231  10.394   7.434   0.517 -0.9296  1.4032  0.0805
47765SOL     OW48232   8.140   7.666   5.898  0.2127  0.1076  0.1012
47765SOL    HW148233   8.070   7.714   5.944 -0.5664 -0.9018 -0.0052
47765SOL    HW248234   8.108   7.657   5.808  1.1379  0.8922 -0.3279
47766SOL     OW48235   7.568   9.871   8.231 -0.3478  0.0739  0.3933
47766SOL    HW148236   7.516   9.857   8.152 -1.0426  1.7510  0.5267
47766SOL    HW248237   7.631   9.939   8.207 -0.9078  0.9831  1.4076
47767SOL     OW48238   8.632   6.187   1.301  0.1461 -0.5227  0.2749
47767SOL    HW148239   8.645   6.149   1.388 -0.2051 -0.9073  0.1609
47767SOL    HW248240   8.608   6.113   1.246 -0.4176 -0.1527  0.0229
47768SOL     OW48241   9.012   4.359   1.666  0.1510 -0.0887 -0.1106
47768SOL    HW148242   8.925   4.380   1.634  0.1955  2.9264  1.3536
47768SOL    HW248243   9.006   4.369   1.761  1.8477 -0.8909  0.1350
47769SOL     OW48244   5.562   1.680   2.805  0.2831 -0.3717  0.4985
47769SOL    HW148245   5.488   1.698   2.863  0.7095  0.3155  0.8363
47769SOL    HW248246   5.559   1.586   2.791 -0.1867 -0.4603  1.1521
47770SOL     OW48247   7.490  10.227   3.898  0.0572 -0.1576 -0.0659
47770SOL    HW148248   7.463  10.189   3.982  0.3613  0.3922  0.2799
47770SOL    HW248249   7.482  10.154   3.836 -0.6325 -0.4433  0.3425
47771SOL     OW48250   9.494   6.379   0.065 -0.5787 -0.1126 -0.1876
47771SOL    HW148251   9.438   6.303   0.075  0.0430 -0.9448 -2.5808
47771SOL    HW248252   9.554   6.374   0.140  0.2267 -2.6892 -0.9045
47772SOL     OW48253   2.082   4.338   2.510 -0.4064  0.2483  0.5082
47772SOL    HW148254   2.080   4.267   2.574 -0.6895 -0.4099 -0.2199
47772SOL    HW248255   1.994   4.374   2.511  0.0694  1.5300  1.8700
47773SOL     OW48256   2.920   0.805   0.381  0.1596  0.3610 -0.2799
47773SOL    HW148257   2.876   0.721   0.367 -0.0866 -0.2205  3.0840
47773SOL    HW248258   2.984   0.788   0.450  1.3128  2.5931 -0.6969
47774SOL     OW48259  11.105   8.678   7.500  0.5763  0.3549  0.3182
47774SOL    HW148260  11.103   8.586   7.472 -2.9361  0.6298 -0.8176
47774SOL    HW248261  11.114   8.728   7.419 -2.2419  1.0175  0.3279
47775SOL     OW48262   6.733   3.966   4.189 -0.1306 -0.2134 -0.0821
47775SOL    HW148263   6.713   4.011   4.107  1.7485 -0.1402 -0.5433
47775SOL    HW248264   6.766   4.035   4.247  0.8696 -0.6455 -0.1163
47776SOL     OW48265   3.168   5.495   9.445 -0.5002 -0.2805  0.4842
47776SOL    HW148266   3.124   5.419   9.483 -0.9574  0.6218  1.8212
47776SOL    HW248267   3.256   5.494   9.484 -1.3787  1.3620  2.6614
47777SOL     OW48268   2.883  10.299   8.693  0.2469  0.4704  0.2864
47777SOL    HW148269   2.978  10.299   8.701  0.3800 -2.4872 -0.2712
47777SOL    HW248270   2.851  10.280   8.781  0.1813  0.6817  0.3108
47778SOL     OW48271   8.771  10.940   0.408  0.4098  0.5201 -0.1329
47778SOL    HW148272   8.832  10.961   0.479 -1.0411  0.9508  1.0626
47778SOL    HW248273   8.826  10.926   0.332  2.2133 -1.8661  1.4602
47779SOL     OW48274   3.640   2.087   7.215 -0.0287  0.2577 -0.4452
47779SOL    HW148275   3.697   2.012   7.198  0.3497  0.4601 -0.1048
47779SOL    HW248276   3.551   2.053   7.205  0.1556  0.0312 -1.3771
47780SOL     OW48277   6.083   7.360   1.662  0.8664 -0.1613 -0.3375
47780SOL    HW148278   6.061   7.404   1.744  0.6424 -1.7177  0.4891
47780SOL    HW248279   6.118   7.275   1.690 -0.6306 -1.3581 -1.8716
47781SOL     OW48280  11.477   7.668   0.773  0.7706 -0.3089 -0.5904
47781SOL    HW148281  11.423   7.708   0.841  0.1987  0.6473 -1.5517
47781SOL    HW248282  11.566   7.698   0.792  0.6910 -0.4570  0.0154
47782SOL     OW48283   1.645   7.478   7.029  0.1063 -0.1982  0.4952
47782SOL    HW148284   1.715   7.459   7.092 -1.6504 -0.6386  2.4016
47782SOL    HW248285   1.577   7.522   7.080 -1.3095 -0.3689 -1.1451
47783SOL     OW48286   2.890  10.991   1.302  0.7140  0.3359 -0.2700
47783SOL    HW148287   2.858  10.922   1.360 -0.3261  1.3249  0.3851
47783SOL    HW248288   2.975  10.961   1.272 -0.1066 -1.6546 -0.7316
47784SOL     OW48289  10.801  11.096   5.760 -0.1350  0.4139 -0.7347
47784SOL    HW148290  10.843  11.135   5.837 -2.3933  1.3086  0.1105
47784SOL    HW248291  10.857  11.123   5.687  1.1764  0.8875  0.3896
47785SOL     OW48292   3.387  10.274   1.491  0.1368  0.0570 -0.5101
47785SOL    HW148293   3.325  10.315   1.431 -1.4234  0.5436  1.3077
47785SOL    HW248294   3.417  10.345   1.547  0.0610 -0.6597  0.4778
47786SOL     OW48295   2.452   8.597   7.407  0.6827  0.2753  0.0361
47786SOL    HW148296   2.487   8.509   7.408 -0.4291 -0.1884 -0.0589
47786SOL    HW248297   2.505   8.643   7.341  1.6567 -0.1372  0.5126
47787SOL     OW48298   8.333  10.529   6.772 -0.0178  0.3568  0.5168
47787SOL    HW148299   8.383  10.590   6.827  0.6963  1.9495 -1.7366
47787SOL    HW248300   8.328  10.572   6.686 -0.4909 -2.2612 -0.8976
47788SOL     OW48301   1.659   8.890   0.186  0.3477  0.8198  0.0648
47788SOL    HW148302   1.684   8.963   0.243  1.2564  0.8196 -0.3080
47788SOL    HW248303   1.564   8.890   0.187  0.2912  0.0339  2.5889
47789SOL     OW48304  11.066   8.729   6.933 -0.3463 -0.4509  0.0638
47789SOL    HW148305  11.155   8.718   6.968 -0.6646 -0.0571  1.0261
47789SOL    HW248306  11.080   8.771   6.847  0.3685  0.3805  0.5646
47790SOL     OW48307   1.058   7.889   6.333 -0.1884  0.0324 -0.5031
47790SOL    HW148308   1.055   7.981   6.358  0.0602  0.1542 -0.8946
47790SOL    HW248309   1.142   7.858   6.367 -0.9532 -0.4825  1.0143
47791SOL     OW48310   1.198  11.366   8.432  0.4805 -0.5636  0.5855
47791SOL    HW148311   1.255  11.328   8.498  0.1466 -1.9651  0.1178
47791SOL    HW248312   1.109  11.355   8.467  0.3066 -1.2302 -0.0181
47792SOL     OW48313   2.370   5.490   4.101 -0.0073 -0.3044  0.1048
47792SOL    HW148314   2.301   5.427   4.080 -0.3418  0.5470 -1.5060
47792SOL    HW248315   2.345   5.570   4.055  1.1580  0.5628  0.9226
47793SOL     OW48316   2.822   5.547  10.987 -0.1240 -0.3690 -0.0523
47793SOL    HW148317   2.736   5.575  11.020 -0.0002  0.7596 -0.6221
47793SOL    HW248318   2.874   5.628  10.985  1.0697 -1.0970  0.6058
47794SOL     OW48319   4.098   6.753  10.579 -0.0062  0.1344 -0.0283
47794SOL    HW148320   4.017   6.712  10.609  0.4997 -0.5949  0.3667
47794SOL    HW248321   4.147   6.683  10.536  0.7217  0.3841  0.3573
47795SOL     OW48322   0.015   6.206   8.344  0.0986 -0.0336  0.0460
47795SOL    HW148323   0.092   6.263   8.342  0.7487 -0.9004  0.0200
47795SOL    HW248324   0.047   6.120   8.319 -0.6236 -0.7033  1.3195
47796SOL     OW48325   0.685   7.882   9.053  0.2435  0.2190  0.1471
47796SOL    HW148326   0.595   7.909   9.036 -0.0766 -0.1741  1.1892
47796SOL    HW248327   0.679   7.819   9.124  1.4343  0.9626  0.9544
47797SOL     OW48328   7.822   8.715   0.423  0.0024  0.3065 -0.0846
47797SOL    HW148329   7.772   8.793   0.400 -0.1154  0.1128 -0.4926
47797SOL    HW248330   7.913   8.737   0.400 -0.2198 -0.1772 -1.5474
47798SOL     OW48331   2.115   2.725  10.624 -0.6654  0.0659 -0.2155
47798SOL    HW148332   2.071   2.690  10.702  0.0624 -0.2781  0.0460
47798SOL    HW248333   2.108   2.820  10.634 -2.7399  0.0497 -0.9796
47799SOL     OW48334   5.831   2.154   0.621  0.1911  0.2853  0.2730
47799SOL    HW148335   5.917   2.185   0.649  2.1317 -1.4849 -3.0278
47799SOL    HW248336   5.795   2.226   0.569  0.7605  0.1973 -0.2487
47800SOL     OW48337   9.451   7.240   8.400 -0.1795  0.2123  0.5518
47800SOL    HW148338   9.472   7.334   8.400  2.7195 -0.3172 -1.3122
47800SOL    HW248339   9.487   7.208   8.483  1.4226  0.3183 -0.0684
47801SOL     OW48340  10.629   5.366   4.886  0.5633  0.0622 -0.3619
47801SOL    HW148341  10.576   5.366   4.806  0.2097  1.9147 -0.1735
47801SOL    HW248342  10.719   5.356   4.855  0.2542 -2.0397 -0.7592
47802SOL     OW48343   2.232   3.782  10.119  0.1121  0.5031 -0.0671
47802SOL    HW148344   2.211   3.858  10.174  0.1388  0.7712 -0.4222
47802SOL    HW248345   2.314   3.749  10.154  0.0670  0.5994  0.1314
47803SOL     OW48346   1.616   6.101   9.800  0.0273 -0.0660 -0.2316
47803SOL    HW148347   1.619   6.006   9.787 -0.2046  0.1762 -2.4234
47803SOL    HW248348   1.701   6.122   9.838  0.9353 -0.9442 -1.6624
47804SOL     OW48349   6.715   0.700   7.153  0.7447  0.8161  0.3647
47804SOL    HW148350   6.656   0.762   7.195  0.5855  1.9793 -1.4827
47804SOL    HW248351   6.734   0.738   7.067  1.3942 -1.2287 -0.4691
47805SOL     OW48352   2.447   4.486   6.288  0.5609 -0.8267  1.0507
47805SOL    HW148353   2.468   4.393   6.282  1.7325 -0.6792  2.3360
47805SOL    HW248354   2.532   4.529   6.297  0.0082  0.3323  0.8276
47806SOL     OW48355   4.080   0.789   7.870  0.0872 -0.4307  0.4361
47806SOL    HW148356   4.101   0.836   7.789 -0.8933 -0.2374  0.2735
47806SOL    HW248357   4.104   0.850   7.940 -2.1082  0.8009  0.2171
47807SOL     OW48358   4.732   3.898   9.047 -0.4689  0.5318 -0.2830
47807SOL    HW148359   4.638   3.911   9.031 -1.0609 -1.3724  1.2831
47807SOL    HW248360   4.751   3.812   9.009  0.3855  0.4237  0.3639
47808SOL     OW48361   1.478   5.027  10.009  0.4401  0.0582 -0.4725
47808SOL    HW148362   1.426   5.078  10.071  0.7305 -1.0393  0.7380
47808SOL    HW248363   1.416   5.002   9.940 -0.2706  0.0603  0.1497
47809SOL     OW48364   0.360   9.973  10.367  0.0917 -0.1100 -0.1942
47809SOL    HW148365   0.420  10.048  10.360  0.5470 -0.4210  0.2759
47809SOL    HW248366   0.323   9.980  10.456  2.3385 -2.0320  1.0024
47810SOL     OW48367   2.346   2.678  10.434  0.4161  0.5551 -0.4611
47810SOL    HW148368   2.353   2.768  10.404  0.7162  0.9173  0.6313
47810SOL    HW248369   2.409   2.671  10.506  0.0971 -0.4046 -0.2492
47811SOL     OW48370   2.781   1.604   2.051  0.0843  0.2386 -0.0924
47811SOL    HW148371   2.729   1.662   2.106  0.6916  0.3298  0.3885
47811SOL    HW248372   2.868   1.605   2.090  0.1451 -0.8582 -0.1843
47812SOL     OW48373   8.269   1.321   2.818  0.0695 -0.1397  0.6389
47812SOL    HW148374   8.271   1.280   2.731  3.9346 -0.1062  0.5641
47812SOL    HW248375   8.268   1.415   2.800 -1.0244 -0.1224  0.7118
47813SOL     OW48376   1.027   8.004   9.162  0.3057 -0.0351 -0.1516
47813SOL    HW148377   1.014   7.970   9.074  0.1171  0.5224 -0.3432
47813SOL    HW248378   1.055   7.928   9.213 -1.1559 -0.7274 -0.3300
47814SOL     OW48379   5.079   7.472   3.431  0.3215  0.0172 -0.0539
47814SOL    HW148380   5.032   7.547   3.395 -0.5559 -0.4813  0.0199
47814SOL    HW248381   5.016   7.430   3.489  0.4184 -1.4233 -0.9520
47815SOL     OW48382   5.638   0.891   3.676 -0.0195 -0.0555 -0.2223
47815SOL    HW148383   5.639   0.981   3.708 -1.9877  0.0499 -0.3479
47815SOL    HW248384   5.574   0.846   3.731 -2.1865 -0.3121 -2.7233
47816SOL     OW48385   9.392   6.476   3.707 -0.1214 -0.2245 -0.4150
47816SOL    HW148386   9.474   6.485   3.660 -0.8195 -0.8162 -1.7914
47816SOL    HW248387   9.331   6.439   3.644 -1.7277  1.0714  0.2716
47817SOL     OW48388   6.884  10.184  10.358  0.8110 -0.3432 -0.2234
47817SOL    HW148389   6.838  10.216  10.436  2.6033 -0.6035  1.0020
47817SOL    HW248390   6.879  10.256  10.295 -3.0288 -1.0937 -1.0165
47818SOL     OW48391   9.328   8.381  11.508  0.3295 -0.1756  0.7592
47818SOL    HW148392   9.308   8.303  11.456  1.1700  0.1657 -0.0962
47818SOL    HW248393   9.416   8.365  11.542 -0.0813 -0.2528  1.8425
47819SOL     OW48394  10.789   7.210   8.085  0.0845  0.2765 -0.8803
47819SOL    HW148395  10.693   7.218   8.089 -0.0580 -1.4053 -0.0031
47819SOL    HW248396  10.804   7.133   8.030  0.7918 -1.0126  1.0020
47820SOL     OW48397  10.832   3.580   2.858 -0.3204 -0.1813 -0.0035
47820SOL    HW148398  10.757   3.604   2.803 -1.1672 -2.2064  0.2047
47820SOL    HW248399  10.905   3.631   2.822 -1.2623 -0.0069 -1.7761
47821SOL     OW48400   2.728   7.941   5.064 -0.2228 -0.2822 -0.3784
47821SOL    HW148401   2.707   8.022   5.018  2.9185  1.6133  1.2093
47821SOL    HW248402   2.653   7.927   5.123 -1.2168  0.9521 -1.2940
47822SOL     OW48403   0.286   7.447   6.041  0.3866  0.4971  0.0234
47822SOL    HW148404   0.222   7.490   5.985  0.7660  1.4590  0.3071
47822SOL    HW248405   0.263   7.475   6.130  0.9069  0.4698  0.1734
47823SOL     OW48406   7.705   0.448   5.073  0.2574 -0.2611 -0.0444
47823SOL    HW148407   7.657   0.517   5.027  0.2019 -0.9038 -0.9836
47823SOL    HW248408   7.714   0.378   5.008  0.2983 -1.1497  0.8897
47824SOL     OW48409   8.933   5.773   8.980  0.6911  0.5483  0.0431
47824SOL    HW148410   8.990   5.749   9.053  2.1489 -0.4905 -1.3502
47824SOL    HW248411   8.993   5.784   8.906 -0.8151  0.6156 -1.2166
47825SOL     OW48412   8.767  10.783   1.629 -0.0716  0.4811  0.2933
47825SOL    HW148413   8.792  10.868   1.594 -3.0221  1.3568 -0.0065
47825SOL    HW248414   8.802  10.783   1.718 -0.4371  2.2606  0.4778
47826SOL     OW48415   5.549   5.077  10.670 -0.0152 -0.1299  0.3806
47826SOL    HW148416   5.512   5.151  10.621  0.3604 -0.5535 -0.5663
47826SOL    HW248417   5.583   5.117  10.751  1.5241  1.0309 -0.7584
47827SOL     OW48418   1.966   4.807  11.532  0.3191  0.0640  0.2856
47827SOL    HW148419   1.942   4.825  11.623  1.2852  1.4067  0.2989
47827SOL    HW248420   2.056   4.775  11.537 -0.1229 -1.2938 -0.0912
47828SOL     OW48421   7.315  10.109  10.907 -0.0499  0.1178  0.1362
47828SOL    HW148422   7.407  10.130  10.925  0.0045 -1.0548  1.4144
47828SOL    HW248423   7.267  10.146  10.980 -0.4138 -0.5398  0.2376
47829SOL     OW48424   1.320   9.356   3.352 -0.0839 -0.2428 -0.2749
47829SOL    HW148425   1.290   9.331   3.439  0.1135 -1.8141 -0.6212
47829SOL    HW248426   1.404   9.310   3.342  0.2996  0.5851 -0.9711
47830SOL     OW48427  11.383  10.559   1.632 -0.3911 -0.0078 -0.6228
47830SOL    HW148428  11.312  10.494   1.629  0.0219 -0.4392 -1.1649
47830SOL    HW248429  11.386  10.586   1.724  0.0085 -1.3948 -0.2045
47831SOL     OW48430   2.959   5.995   8.250  0.3264  0.2669  0.3383
47831SOL    HW148431   2.920   5.909   8.266  0.3458 -0.4530 -2.9022
47831SOL    HW248432   2.887   6.049   8.218  0.6992  0.9342  0.6007
47832SOL     OW48433   5.238   7.805   4.989 -0.5428 -0.3095 -0.2770
47832SOL    HW148434   5.302   7.839   5.051 -1.8336  0.7286  0.5457
47832SOL    HW248435   5.290   7.774   4.915  1.0075 -1.0999  1.0675
47833SOL     OW48436   8.507  11.564  10.772  0.5316  0.3428 -0.2108
47833SOL    HW148437   8.423  11.606  10.790  0.4824  0.3502 -0.4633
47833SOL    HW248438   8.572  11.633  10.790  0.4096  0.8025 -1.4497
47834SOL     OW48439   2.186   9.498   5.108  0.5313 -0.2302 -0.3533
47834SOL    HW148440   2.245   9.467   5.040 -1.7935  1.9533 -3.6761
47834SOL    HW248441   2.127   9.425   5.124 -0.9873  0.2249 -3.3551
47835SOL     OW48442   8.152   0.073   3.588 -0.2972 -0.1597  0.9965
47835SOL    HW148443   8.183   0.115   3.668 -2.0355  1.6509  0.7955
47835SOL    HW248444   8.090   0.007   3.618 -1.9417  1.3803  1.2035
47836SOL     OW48445   4.532   3.910   9.553  0.2609 -0.5167 -0.3811
47836SOL    HW148446   4.487   3.828   9.534 -3.1417  1.1633 -0.3499
47836SOL    HW248447   4.588   3.925   9.476  1.2628 -2.9613 -0.2103
47837SOL     OW48448   2.963   1.340   0.006 -0.2053  0.2449 -0.0081
47837SOL    HW148449   2.951   1.265  -0.053 -1.6079  0.8067 -0.4763
47837SOL    HW248450   2.945   1.416  -0.049 -2.0163  0.7589  1.2224
47838SOL     OW48451   0.254   5.844   9.393 -0.6406 -0.1777 -0.1595
47838SOL    HW148452   0.278   5.937   9.397 -1.9648  0.3230 -2.2938
47838SOL    HW248453   0.336   5.798   9.376 -0.3492  0.9144 -1.9174
47839SOL     OW48454   6.674   7.944   0.128  0.0565  0.4499  0.5863
47839SOL    HW148455   6.753   7.899   0.098  0.4036 -0.0701  2.1918
47839SOL    HW248456   6.689   7.959   0.222 -2.0906 -0.4130  1.1178
47840SOL     OW48457   4.696   9.603   8.722 -0.1179 -0.1346  0.5856
47840SOL    HW148458   4.671   9.694   8.736 -0.0689 -0.0010 -0.1314
47840SOL    HW248459   4.716   9.599   8.628  1.8347 -0.3899  0.9637
47841SOL     OW48460   9.503   6.663   0.422 -0.3052  0.6612 -0.1797
47841SOL    HW148461   9.458   6.578   0.423  0.6762  0.1268  0.3389
47841SOL    HW248462   9.504   6.691   0.514 -0.8530  1.3723 -0.3807
47842SOL     OW48463  11.142   6.526   6.018 -0.0521  0.0151 -0.5108
47842SOL    HW148464  11.050   6.543   6.039 -0.6708 -2.5011 -0.7785
47842SOL    HW248465  11.163   6.587   5.948 -1.1498  1.3861  0.3101
47843SOL     OW48466   3.077   8.350   7.358 -0.1617  0.2658 -0.0618
47843SOL    HW148467   3.105   8.317   7.443  0.7846  1.2836  0.0536
47843SOL    HW248468   3.020   8.282   7.323  1.4458 -1.3495  0.2855
47844SOL     OW48469   2.100   3.475   8.620  0.0033 -0.1019 -0.2288
47844SOL    HW148470   2.094   3.394   8.671  0.5735  0.4990  0.8533
47844SOL    HW248471   2.192   3.482   8.597 -0.4364 -0.9549 -2.4091
47845SOL     OW48472   0.784   6.852   0.292  0.4172  0.2785  0.0442
47845SOL    HW148473   0.837   6.928   0.266  1.1570 -0.1255  0.3802
47845SOL    HW248474   0.835   6.809   0.360 -1.0096  0.7124  1.4488
47846SOL     OW48475   5.322  10.450   2.529 -0.0934  0.3138 -0.1578
47846SOL    HW148476   5.409  10.408   2.524  0.1226  0.8754 -2.1774
47846SOL    HW248477   5.267  10.397   2.471 -1.3587 -0.4956  1.6988
47847SOL     OW48478   5.665   7.755  11.167 -0.0035 -0.3692 -0.1162
47847SOL    HW148479   5.716   7.811  11.109  1.6274 -0.6048  1.0329
47847SOL    HW248480   5.589   7.808  11.192  0.7007  0.7370 -0.2985
47848SOL     OW48481   3.915   1.587   0.981 -0.6067 -0.3572  0.5631
47848SOL    HW148482   3.950   1.564   0.895  0.3380 -0.8456  1.0566
47848SOL    HW248483   3.982   1.556   1.042 -1.0451  0.4031  1.4463
47849SOL     OW48484   1.561   2.009   0.001 -0.0071  0.2767  0.3237
47849SOL    HW148485   1.589   2.095   0.033  0.5835 -0.0573  0.7341
47849SOL    HW248486   1.506   2.028  -0.075 -1.8817  1.1102  1.8092
47850SOL     OW48487   9.942   5.629   4.266 -0.3057  0.0582 -0.1475
47850SOL    HW148488   9.890   5.614   4.345 -0.4075  0.7279 -0.0852
47850SOL    HW248489   9.886   5.684   4.211  0.2483  0.5990 -0.1757
47851SOL     OW48490   1.891   9.320   3.855 -0.3041 -0.5856 -0.0987
47851SOL    HW148491   1.856   9.353   3.772 -0.7213  0.6503  0.5571
47851SOL    HW248492   1.830   9.250   3.880  0.0201 -1.2138 -0.9839
47852SOL     OW48493   9.706   5.054   4.272 -0.4292 -0.0233  0.2131
47852SOL    HW148494   9.736   5.131   4.320  1.7437 -1.6800  1.7105
47852SOL    HW248495   9.752   5.060   4.188 -1.7610  1.2333 -0.4745
47853SOL     OW48496   8.687   3.640   7.365  0.6514  0.3100 -0.1555
47853SOL    HW148497   8.742   3.716   7.343  0.7698  0.6963  1.3271
47853SOL    HW248498   8.597   3.671   7.354  0.6051  1.5165  2.6905
47854SOL     OW48499   6.199   6.080   3.799 -0.2746 -0.1645  0.4842
47854SOL    HW148500   6.280   6.047   3.839  1.5366  1.5057 -1.5733
47854SOL    HW248501   6.172   6.151   3.857  1.1356  0.8402 -0.0223
47855SOL     OW48502   4.477   1.379   7.747 -0.0667 -0.3113 -0.0320
47855SOL    HW148503   4.547   1.443   7.762  0.4336 -1.0142  0.7410
47855SOL    HW248504   4.494   1.345   7.659 -0.9944  1.3964 -0.9055
47856SOL     OW48505   4.703   3.775  10.859  0.0684 -0.2348  0.2721
47856SOL    HW148506   4.647   3.852  10.854 -1.4942 -1.3460 -0.3770
47856SOL    HW248507   4.713   3.758  10.953 -0.1611  0.3499  0.4056
47857SOL     OW48508   8.519   0.464   1.621 -0.3697 -0.2189 -0.6927
47857SOL    HW148509   8.595   0.506   1.581 -0.1159 -2.0648 -2.3091
47857SOL    HW248510   8.491   0.399   1.557 -0.8226 -2.4085  1.5754
47858SOL     OW48511   2.109   1.632   1.530  0.1374 -0.1503 -0.2135
47858SOL    HW148512   2.162   1.658   1.455 -1.0817  2.6801 -0.2269
47858SOL    HW248513   2.124   1.701   1.595 -1.5145 -0.6714  0.7735
47859SOL     OW48514   7.943   4.833  10.584 -0.5260  0.3535  0.1228
47859SOL    HW148515   7.861   4.880  10.601 -0.0198  0.7025  1.7523
47859SOL    HW248516   7.963   4.789  10.667 -0.2844 -1.6865 -0.9580
47860SOL     OW48517   7.524   1.109   9.843  0.2606  0.5544 -0.4808
47860SOL    HW148518   7.505   1.136   9.933  0.5347  0.2206 -0.3203
47860SOL    HW248519   7.620   1.108   9.838  0.2653 -0.5918 -0.4122
47861SOL     OW48520   1.130   6.674   5.025 -0.4173  0.0501  0.3711
47861SOL    HW148521   1.215   6.688   5.067  0.1073 -1.8867  0.0459
47861SOL    HW248522   1.133   6.583   4.995 -1.6755  0.6658 -1.8125
47862SOL     OW48523   0.914   6.914  11.664 -0.4431 -0.0296  0.0172
47862SOL    HW148524   0.932   6.820  11.676  1.2238  0.3529  0.8030
47862SOL    HW248525   0.950   6.934  11.578 -0.7355 -0.0874 -0.1198
47863SOL     OW48526   8.892   3.686  10.880 -0.2263  0.1171 -0.8597
47863SOL    HW148527   8.974   3.650  10.847 -0.5162 -0.8926 -0.5429
47863SOL    HW248528   8.853   3.613  10.929 -0.7106  0.9769  0.0619
47864SOL     OW48529   4.587   1.070   2.482  0.0929  0.0888 -0.0040
47864SOL    HW148530   4.502   1.092   2.444  0.1021  1.5183  0.7303
47864SOL    HW248531   4.642   1.146   2.463  0.8280 -0.2547  0.6734
47865SOL     OW48532   7.229   7.428   1.849 -0.3625 -1.0047 -0.3000
47865SOL    HW148533   7.173   7.355   1.823 -1.2255  0.2198 -2.1193
47865SOL    HW248534   7.313   7.409   1.807 -0.7784 -0.6879 -1.3273
47866SOL     OW48535   3.173   6.853   4.663  0.0643  0.3202  0.2460
47866SOL    HW148536   3.241   6.795   4.696  0.0274 -0.8325 -1.5594
47866SOL    HW248537   3.181   6.933   4.716  0.7151 -0.9574  2.1809
47867SOL     OW48538   3.055   4.602   3.272 -0.0972  0.0528 -0.3452
47867SOL    HW148539   3.040   4.589   3.178 -1.7617  2.3749 -0.4911
47867SOL    HW248540   3.128   4.663   3.277  0.0667 -0.1617 -0.1391
47868SOL     OW48541   8.469   1.801   4.574 -0.6668 -0.4331 -0.0676
47868SOL    HW148542   8.512   1.817   4.658 -0.7622  0.5461 -0.1875
47868SOL    HW248543   8.512   1.723   4.538 -2.2759 -2.3846  1.9818
47869SOL     OW48544   9.994  10.587   2.570  0.2808 -0.6899 -0.7483
47869SOL    HW148545  10.066  10.577   2.632 -0.2708 -1.5275 -0.2210
47869SOL    HW248546   9.923  10.534   2.607 -1.1253  1.2874 -0.4713
47870SOL     OW48547   1.105   4.796   8.768 -0.7628 -0.1319  0.2801
47870SOL    HW148548   1.084   4.703   8.758 -0.0352 -0.3675  0.8612
47870SOL    HW248549   1.121   4.807   8.862  0.4455  0.2897  0.0377
47871SOL     OW48550  11.650   1.818   4.346 -0.1360 -0.2213  0.7429
47871SOL    HW148551  11.664   1.724   4.346  0.9351 -0.1629 -2.2690
47871SOL    HW248552  11.570   1.830   4.295  0.3367  0.5423  0.1670
47872SOL     OW48553   5.614   0.089   4.187 -0.1658  0.1065 -0.0170
47872SOL    HW148554   5.632   0.031   4.261  1.2187 -0.1742 -0.5446
47872SOL    HW248555   5.697   0.132   4.168 -1.5825  4.2310  1.8876
47873SOL     OW48556   0.200   6.800   9.333  0.2138  0.3052  0.2418
47873SOL    HW148557   0.131   6.824   9.395 -0.9304  1.6260 -1.4735
47873SOL    HW248558   0.161   6.733   9.278  0.5933  0.4352 -0.1904
47874SOL     OW48559   6.001   1.889  10.172  0.5184 -0.2884  0.7324
47874SOL    HW148560   5.939   1.962  10.168  1.6937  0.6932 -1.2524
47874SOL    HW248561   5.957   1.818  10.126  0.6356  0.2557 -0.2585
47875SOL     OW48562   6.628  11.073   2.211  0.0528 -0.4763 -0.6412
47875SOL    HW148563   6.697  11.139   2.214 -1.5368  1.2814  2.7359
47875SOL    HW248564   6.663  11.000   2.263  0.0039 -0.2771 -0.3250
47876SOL     OW48565   5.296   9.363   5.777  0.0729  0.6221 -0.5621
47876SOL    HW148566   5.326   9.451   5.798  2.2710  0.4545 -2.5249
47876SOL    HW248567   5.351   9.305   5.829 -0.8179  0.3580  0.1175
47877SOL     OW48568   6.876   0.592  11.049  0.0297 -0.2732  0.1701
47877SOL    HW148569   6.829   0.518  11.088  1.9975 -1.9759 -0.4623
47877SOL    HW248570   6.958   0.596  11.097  1.0075 -0.1320 -1.4319
47878SOL     OW48571  10.606   2.939   1.020 -0.4807 -0.6951  0.6575
47878SOL    HW148572  10.603   2.971   1.110 -2.1941 -0.2666  0.4839
47878SOL    HW248573  10.588   2.845   1.027 -2.6024 -0.3445  0.6733
47879SOL     OW48574   0.021   5.640   1.435 -0.0471  0.0220 -0.0648
47879SOL    HW148575   0.082   5.613   1.504 -0.4303  0.9118  0.6402
47879SOL    HW248576   0.074   5.644   1.356  0.7113  0.3353  0.4503
47880SOL     OW48577  11.408   9.319   6.130 -0.3150  0.0314  0.0921
47880SOL    HW148578  11.406   9.336   6.035 -1.8962  3.3937  0.5679
47880SOL    HW248579  11.320   9.288   6.151 -0.4621  0.7978  0.6494
47881SOL     OW48580   3.653  11.549   2.007 -0.8505  0.2554  0.0907
47881SOL    HW148581   3.669  11.532   1.914  2.2675 -0.0543  0.5590
47881SOL    HW248582   3.580  11.491   2.030 -1.3275 -0.0506 -2.0198
47882SOL     OW48583   0.943   4.488   4.634  0.2973 -0.2892 -0.2565
47882SOL    HW148584   0.863   4.539   4.649  0.3428  0.4652 -2.3529
47882SOL    HW248585   0.920   4.429   4.562  1.6667  0.0324 -0.9782
47883SOL     OW48586   1.672  10.934  10.515 -0.2114 -1.0375  0.3754
47883SOL    HW148587   1.614  11.010  10.526 -0.5906 -1.1455 -0.6985
47883SOL    HW248588   1.757  10.972  10.495 -0.2517 -0.8793  0.5077
47884SOL     OW48589   4.269   8.231   6.376 -0.3802  0.3381  0.3100
47884SOL    HW148590   4.360   8.203   6.386  0.3287  1.2908 -2.5506
47884SOL    HW248591   4.269   8.324   6.396 -0.3463  0.6850 -1.1495
47885SOL     OW48592   4.436  10.228   2.073 -0.2111 -0.4652 -0.3621
47885SOL    HW148593   4.438  10.320   2.049 -0.7766  0.0057  1.2634
47885SOL    HW248594   4.343  10.204   2.073  0.0144 -1.5589 -2.5132
47886SOL     OW48595   1.230   1.896   6.326 -0.5097 -0.0695 -0.3304
47886SOL    HW148596   1.286   1.904   6.403  1.7287 -5.1764 -1.0002
47886SOL    HW248597   1.172   1.823   6.346 -0.6138 -0.8338 -2.9887
47887SOL     OW48598  10.445   5.985   1.464 -0.1239 -0.3008  0.1072
47887SOL    HW148599  10.416   6.042   1.393  0.0022 -0.1199  0.2018
47887SOL    HW248600  10.405   5.900   1.444  1.2548 -0.7063 -1.0968
47888SOL     OW48601   6.578   9.167   6.602 -0.3607  0.0619 -0.0894
47888SOL    HW148602   6.531   9.103   6.656 -1.7101  0.3376 -0.8970
47888SOL    HW248603   6.519   9.243   6.597  0.9062  1.1220  0.2740
47889SOL     OW48604  10.285   0.186   1.780 -0.1842  0.4062  0.1926
47889SOL    HW148605  10.230   0.131   1.723  0.5505  0.2628 -0.4039
47889SOL    HW248606  10.357   0.128   1.807 -0.9525  0.2217  1.9763
47890SOL     OW48607   6.977   6.498  11.331 -0.0144  0.0529 -0.1880
47890SOL    HW148608   7.056   6.496  11.276 -0.1815 -1.8775 -0.4281
47890SOL    HW248609   6.914   6.550  11.282  0.0049 -1.2234 -1.6259
47891SOL     OW48610   9.458   9.216   4.637 -0.6057  0.1400  0.2584
47891SOL    HW148611   9.363   9.229   4.628 -0.7586 -0.6102  0.7164
47891SOL    HW248612   9.474   9.131   4.595  0.0794  0.8829 -1.0301
47892SOL     OW48613   6.270   8.836   6.222  0.0002  0.4963 -0.2244
47892SOL    HW148614   6.272   8.801   6.133 -0.8765 -0.0020 -0.0597
47892SOL    HW248615   6.286   8.760   6.278 -0.8128  0.5457  0.0924
47893SOL     OW48616   3.340   4.112   0.833  0.4117 -0.0351 -0.3565
47893SOL    HW148617   3.332   4.154   0.748 -1.8591 -0.0905 -0.2466
47893SOL    HW248618   3.295   4.171   0.894  0.4264 -0.8419  0.4722
47894SOL     OW48619   3.850   7.652   3.709  0.5078 -0.2621 -0.0421
47894SOL    HW148620   3.821   7.667   3.799  0.9442  0.9253 -0.0711
47894SOL    HW248621   3.841   7.738   3.667  1.6267 -0.4572 -0.7326
47895SOL     OW48622   7.560  10.058  11.254  0.1058  0.6456  0.8510
47895SOL    HW148623   7.541   9.978  11.206  0.8874  1.1121 -0.2787
47895SOL    HW248624   7.528  10.041  11.343 -1.1136 -0.3384  0.2518
47896SOL     OW48625   0.337   7.140   7.677  0.0930  0.1643 -0.0432
47896SOL    HW148626   0.397   7.215   7.687  1.0321 -0.3358 -1.5914
47896SOL    HW248627   0.265   7.174   7.624  0.6427 -0.0581 -0.9609
47897SOL     OW48628   1.808  10.791   6.905  0.0223 -0.0684 -0.0134
47897SOL    HW148629   1.757  10.769   6.983 -0.4552 -0.8468 -0.5310
47897SOL    HW248630   1.861  10.866   6.931 -0.8803  0.3176  0.7472
47898SOL     OW48631   5.534  10.638   7.845 -0.3236  0.3694  0.0880
47898SOL    HW148632   5.530  10.651   7.750  0.1823  0.4566  0.0790
47898SOL    HW248633   5.538  10.543   7.856 -1.2695  0.3097  0.0602
47899SOL     OW48634   0.674   1.813  10.367 -0.4877 -0.3026  0.4931
47899SOL    HW148635   0.687   1.748  10.298 -0.4516 -1.4028  1.5205
47899SOL    HW248636   0.614   1.877  10.328  0.2575 -0.3905 -0.8775
47900SOL     OW48637  10.141   8.423   4.671  0.0314 -0.0015 -0.0834
47900SOL    HW148638  10.116   8.335   4.644  1.6899  0.2486 -2.7497
47900SOL    HW248639  10.237   8.422   4.670  0.0982  1.5650  0.8620
47901SOL     OW48640   8.580   2.776   1.571  0.1192 -0.1153 -0.5815
47901SOL    HW148641   8.662   2.821   1.558 -0.1925  0.5133 -0.4111
47901SOL    HW248642   8.513   2.838   1.543 -0.2716 -0.8505 -1.3118
47902SOL     OW48643   6.762   0.990   3.580 -0.3897  0.1052 -0.0330
47902SOL    HW148644   6.750   0.907   3.626  1.1157 -0.0737  0.0919
47902SOL    HW248645   6.847   1.022   3.610 -0.9781  1.7480 -0.0087
47903SOL     OW48646   8.449   7.394  10.615 -0.3574  0.2947  0.3157
47903SOL    HW148647   8.514   7.336  10.576 -0.4291  0.7833 -0.5453
47903SOL    HW248648   8.488   7.422  10.698 -0.0885 -0.5306  0.4807
47904SOL     OW48649   7.126   9.869  10.887  0.4004  0.0465 -0.3264
47904SOL    HW148650   7.163   9.942  10.836  0.7221 -0.5407 -0.9539
47904SOL    HW248651   7.042   9.851  10.844  0.2345  0.1753 -0.0535
47905SOL     OW48652   6.990  10.794   9.339 -0.0339  0.1465  0.1005
47905SOL    HW148653   7.015  10.878   9.300 -1.2985  0.3008 -0.4521
47905SOL    HW248654   7.022  10.729   9.276 -0.2505  0.2936 -0.1679
47906SOL     OW48655   0.796   7.585   2.837 -0.1772  0.5106 -0.2010
47906SOL    HW148656   0.760   7.497   2.824  2.3148 -0.4562 -1.3470
47906SOL    HW248657   0.844   7.579   2.919 -1.3698  1.3466  0.5811
47907SOL     OW48658   9.000   6.528   3.290 -0.0707  0.1257 -0.2775
47907SOL    HW148659   8.944   6.558   3.362 -0.2787  0.2432 -0.4850
47907SOL    HW248660   9.089   6.534   3.324 -0.1408  0.5815 -0.1748
47908SOL     OW48661   8.813   4.946  10.137 -0.1520  0.4759 -0.1309
47908SOL    HW148662   8.719   4.961  10.122 -0.0752  0.3795 -0.7252
47908SOL    HW248663   8.819   4.855  10.165 -0.1390  0.1936 -1.0322
47909SOL     OW48664   0.871  10.239   1.416  0.1470  0.2452 -0.2928
47909SOL    HW148665   0.790  10.234   1.467 -0.2532  0.5023 -0.8934
47909SOL    HW248666   0.884  10.150   1.382  0.4111  0.0754  0.2492
47910SOL     OW48667   7.750   4.964   9.595 -0.4118  0.6070  0.4633
47910SOL    HW148668   7.687   4.971   9.667 -0.8554  0.6819  0.0760
47910SOL    HW248669   7.760   4.870   9.581 -1.0201  0.6034  0.0294
47911SOL     OW48670   5.752   7.544   1.142 -0.6417  0.6299  0.2673
47911SOL    HW148671   5.734   7.636   1.161  1.1187  0.6890  2.0530
47911SOL    HW248672   5.696   7.496   1.202 -0.9120  0.5746 -0.0321
47912SOL     OW48673   3.961   6.966   0.574  0.6973  0.4074  0.0675
47912SOL    HW148674   3.942   7.000   0.486 -0.1217 -0.9384 -0.3068
47912SOL    HW248675   4.045   6.922   0.564  0.5957  0.2382 -0.0451
47913SOL     OW48676   7.118   3.793   1.731  0.4784 -0.4762  0.0005
47913SOL    HW148677   7.115   3.724   1.665  1.9545  1.5256 -2.3273
47913SOL    HW248678   7.188   3.767   1.790  2.4128 -0.1476 -2.0078
47914SOL     OW48679   2.619   2.903  10.726  0.0565  0.7684 -0.0836
47914SOL    HW148680   2.603   2.837  10.794 -0.5801  0.7308 -0.2674
47914SOL    HW248681   2.610   2.856  10.644 -1.1035  1.2270 -0.2333
47915SOL     OW48682   2.883   2.796   3.160 -0.9655  0.0943 -0.3239
47915SOL    HW148683   2.976   2.784   3.179 -0.9406 -1.6251 -1.2509
47915SOL    HW248684   2.863   2.885   3.188  1.0641  0.6551 -0.5050
47916SOL     OW48685   8.285   6.032   1.829 -0.6413 -0.2247  0.4896
47916SOL    HW148686   8.326   6.114   1.858 -0.4939 -0.4212  0.8515
47916SOL    HW248687   8.191   6.049   1.836 -0.6104 -0.1704  0.8190
47917SOL     OW48688   8.718   3.260   3.217 -0.1109  0.2503  0.0870
47917SOL    HW148689   8.631   3.228   3.239 -0.0171  0.5528  0.9352
47917SOL    HW248690   8.755   3.289   3.300  0.1408  1.7346 -0.5153
47918SOL     OW48691   4.352   1.102   9.132  0.1785  0.4605 -0.2936
47918SOL    HW148692   4.318   1.186   9.101  1.9670  0.6243 -2.0136
47918SOL    HW248693   4.322   1.038   9.067 -2.0477 -0.4954  1.5458
47919SOL     OW48694   4.311   3.252   4.287 -0.0170 -0.2849  0.3548
47919SOL    HW148695   4.364   3.329   4.307 -0.8082  0.0796  1.1029
47919SOL    HW248696   4.220   3.283   4.290 -0.2978 -0.8641 -1.0552
47920SOL     OW48697   3.419  11.025   1.455 -0.1557 -0.2246  0.1229
47920SOL    HW148698   3.476  11.084   1.505 -1.2513  0.1308  1.0100
47920SOL    HW248699   3.438  10.938   1.490 -0.3722 -0.0708  0.6351
47921SOL     OW48700   8.854   4.342   5.158 -0.4313 -0.1824 -0.1288
47921SOL    HW148701   8.798   4.283   5.108  0.7260 -0.0578 -1.6129
47921SOL    HW248702   8.903   4.391   5.092  0.0192  1.0926  1.1017
47922SOL     OW48703   0.443   5.807   1.084 -0.3997 -0.3497  0.2523
47922SOL    HW148704   0.516   5.762   1.041 -0.9579  1.4438 -2.9585
47922SOL    HW248705   0.381   5.825   1.012 -1.5985  2.6943  1.8725
47923SOL     OW48706   1.088   4.525   5.774  0.0590 -0.8971 -0.7480
47923SOL    HW148707   1.145   4.579   5.719 -0.0958 -0.1437 -0.1905
47923SOL    HW248708   0.999   4.553   5.750 -0.0190  1.6373  1.9131
47924SOL     OW48709   8.194   5.100  11.563  0.2844  0.7751  0.1502
47924SOL    HW148710   8.264   5.101  11.628 -0.9555  1.6026  1.5482
47924SOL    HW248711   8.140   5.024  11.586 -0.3820  1.2992  0.3339
47925SOL     OW48712   3.679   1.373   7.178  0.0833  0.0388 -0.1483
47925SOL    HW148713   3.609   1.419   7.225  0.9781 -0.8986  2.2263
47925SOL    HW248714   3.632   1.310   7.123 -0.9775  0.5028  0.1853
47926SOL     OW48715   5.166   3.260   8.996  0.4286 -0.4384  0.2358
47926SOL    HW148716   5.076   3.267   8.964  0.2322 -1.9676  0.3926
47926SOL    HW248717   5.164   3.299   9.083 -0.3230 -1.3964  0.6579
47927SOL     OW48718   1.146   9.747   7.949  0.2111 -0.2350  0.2577
47927SOL    HW148719   1.226   9.800   7.953 -0.3958  0.8466 -0.9405
47927SOL    HW248720   1.141   9.719   7.857 -2.5641  2.7351 -0.6965
47928SOL     OW48721   2.923   3.938   8.877 -0.1199  0.3766  0.1669
47928SOL    HW148722   2.850   3.877   8.887  0.7524 -0.6663  0.3186
47928SOL    HW248723   2.999   3.883   8.860  0.7431  1.4043  0.5619
47929SOL     OW48724   6.799  10.111  11.681  0.0638  0.6076  0.5766
47929SOL    HW148725   6.726  10.118  11.743 -0.3197  0.8199  0.1125
47929SOL    HW248726   6.784  10.182  11.619  1.4929  1.5895  1.3122
47930SOL     OW48727   3.040   9.275  10.148  0.3824 -0.7923 -0.3781
47930SOL    HW148728   3.052   9.313  10.061  2.7327 -0.4231  0.0535
47930SOL    HW248729   2.946   9.258  10.153  0.2134 -1.0998 -3.0816
47931SOL     OW48730   5.916   1.251   5.362 -0.1363  0.2098  0.6711
47931SOL    HW148731   5.886   1.295   5.441 -0.7485  0.5369  0.2601
47931SOL    HW248732   5.899   1.314   5.292  0.6297  0.0206  0.3091
47932SOL     OW48733   3.462   9.673  10.822 -0.0070  0.7487 -0.2347
47932SOL    HW148734   3.435   9.714  10.904 -0.0946 -0.2401  0.2508
47932SOL    HW248735   3.525   9.734  10.784 -1.3846  2.1333 -0.3964
47933SOL     OW48736   7.219   9.957   8.107  0.2022 -0.0577 -0.7638
47933SOL    HW148737   7.306   9.997   8.101 -0.0129  0.7194  0.7340
47933SOL    HW248738   7.163  10.011   8.053  0.7946 -1.0945 -2.4778
47934SOL     OW48739   3.613   6.635   2.549 -0.0159 -0.4926  0.0358
47934SOL    HW148740   3.673   6.608   2.618 -0.5849 -0.7664  0.4246
47934SOL    HW248741   3.547   6.565   2.546 -0.5984  0.0583 -0.0465
47935SOL     OW48742   2.354   1.973  11.222  0.5632 -0.2107  0.1934
47935SOL    HW148743   2.354   1.896  11.166  0.6427 -0.1142  0.0580
47935SOL    HW248744   2.283   2.027  11.189  2.6741  1.4344 -2.0600
47936SOL     OW48745   1.662   0.332  10.109  0.0282 -0.0641  1.1313
47936SOL    HW148746   1.630   0.273  10.041  4.0851  0.1612 -1.2424
47936SOL    HW248747   1.679   0.275  10.184 -2.7942 -0.6012  1.4749
47937SOL     OW48748   4.986   5.641   1.746 -0.3330  0.1125  0.0205
47937SOL    HW148749   5.065   5.616   1.699  0.2454  0.8703  0.5773
47937SOL    HW248750   4.987   5.589   1.826  0.1978  0.9481  0.5648
47938SOL     OW48751   6.490   4.575   6.489 -0.6187 -0.1121 -0.3531
47938SOL    HW148752   6.469   4.653   6.540 -0.5311 -0.5408  0.3533
47938SOL    HW248753   6.411   4.521   6.493 -0.5509 -0.2277 -0.5277
47939SOL     OW48754   6.414   2.137   8.324 -1.1169  0.4054 -0.4483
47939SOL    HW148755   6.413   2.041   8.330  1.2565  0.4172  1.2615
47939SOL    HW248756   6.333   2.164   8.368 -2.7513 -0.7741 -2.5248
47940SOL     OW48757   0.828  10.678   3.382 -0.1400 -0.0647  0.3376
47940SOL    HW148758   0.811  10.641   3.296  0.7598  2.4104 -1.0148
47940SOL    HW248759   0.883  10.614   3.426 -0.0187 -1.0605 -1.1942
47941SOL     OW48760   6.312   6.269   0.137  0.1674 -0.0819 -0.5385
47941SOL    HW148761   6.388   6.271   0.079  0.3520 -1.4170 -0.3720
47941SOL    HW248762   6.259   6.197   0.105  1.3758 -2.4047  2.2141
47942SOL     OW48763   4.517   9.037  11.580  0.1757 -0.1555  0.1860
47942SOL    HW148764   4.574   8.970  11.542 -0.6940 -0.9271  0.2056
47942SOL    HW248765   4.434   9.027  11.533  0.3152  1.5848 -0.5183
47943SOL     OW48766   0.599   2.198   2.267  0.3270  0.2747  0.0234
47943SOL    HW148767   0.618   2.124   2.324 -0.9653  0.8747  1.3158
47943SOL    HW248768   0.586   2.272   2.327  0.9611  1.4181 -1.1911
47944SOL     OW48769   6.089   5.013   3.903 -0.3249 -0.1943 -0.0879
47944SOL    HW148770   6.008   4.995   3.855 -0.3530  1.1211 -0.5593
47944SOL    HW248771   6.073   4.978   3.990 -1.4606  0.1811 -0.1294
47945SOL     OW48772   5.232   3.491   7.370 -0.0664 -0.6089  0.0060
47945SOL    HW148773   5.326   3.503   7.366 -0.2466  0.4799 -1.5758
47945SOL    HW248774   5.206   3.528   7.455  0.5405  2.1980 -0.9480
47946SOL     OW48775   4.814   0.102   6.266  0.5872  0.3186 -0.5313
47946SOL    HW148776   4.888   0.042   6.258  0.1663 -0.0341 -1.9211
47946SOL    HW248777   4.754   0.076   6.197 -0.7010  0.8087  0.3782
47947SOL     OW48778   5.328   2.299   7.504 -0.3015 -0.5001 -0.4120
47947SOL    HW148779   5.360   2.234   7.441  0.6416  2.1898 -2.9295
47947SOL    HW248780   5.397   2.303   7.570  0.5247 -0.8080 -1.2199
47948SOL     OW48781   8.421   4.183   0.496 -0.0756 -0.1932 -0.5598
47948SOL    HW148782   8.359   4.196   0.425  2.3384 -0.6810 -2.9336
47948SOL    HW248783   8.442   4.272   0.527 -0.3576  0.0968 -1.1996
47949SOL     OW48784   7.521   7.308   9.263  0.3122 -0.5445  0.2891
47949SOL    HW148785   7.534   7.245   9.192  0.8690 -0.6522  0.4854
47949SOL    HW248786   7.572   7.384   9.238  1.0406 -0.8249  0.8749
47950SOL     OW48787   7.176  11.688   2.217  0.4023  0.1266 -0.3518
47950SOL    HW148788   7.152  11.763   2.272  1.8334 -1.3103  2.4405
47950SOL    HW248789   7.237  11.725   2.153  2.0533  1.2454  1.7318
47951SOL     OW48790   5.518   7.155   1.355  0.1988  0.1196  0.4715
47951SOL    HW148791   5.603   7.125   1.385  1.0673 -0.0195 -1.8816
47951SOL    HW248792   5.476   7.192   1.432  2.7100  0.9301  1.5340
47952SOL     OW48793  10.442   5.304  10.816 -0.0672 -0.5003 -0.3927
47952SOL    HW148794  10.488   5.223  10.837 -0.0714 -0.8010 -1.5227
47952SOL    HW248795  10.407   5.333  10.900  2.5265 -0.0142  0.6330
47953SOL     OW48796   3.481   4.397   0.366 -0.2194  0.2617  0.1130
47953SOL    HW148797   3.440   4.464   0.421 -0.6984  0.3624 -0.3565
47953SOL    HW248798   3.409   4.340   0.341  0.4377 -1.4343  1.8802
47954SOL     OW48799   8.860   9.308   8.580  0.2541  0.4392  0.8897
47954SOL    HW148800   8.846   9.223   8.537  0.8052 -0.5824  2.6238
47954SOL    HW248801   8.780   9.320   8.632 -0.4184  1.6732 -0.3692
47955SOL     OW48802   1.297   1.596   9.040 -0.1987  0.1401 -0.0477
47955SOL    HW148803   1.281   1.526   9.103 -0.1289 -2.1958 -2.4288
47955SOL    HW248804   1.391   1.613   9.046  0.3047 -1.9055 -1.1938
47956SOL     OW48805   8.783  11.315   1.481 -0.4256 -1.1508 -0.0221
47956SOL    HW148806   8.865  11.298   1.435 -0.4419  0.6992 -0.8611
47956SOL    HW248807   8.721  11.253   1.444  0.1110 -1.1707 -0.9304
47957SOL     OW48808   9.810   3.371   3.256 -0.4766 -0.0530 -0.3777
47957SOL    HW148809   9.820   3.413   3.171  0.5582  1.4831  0.4579
47957SOL    HW248810   9.740   3.420   3.299  1.4726  1.6411  1.0308
47958SOL     OW48811  10.040   8.988   7.167  0.4222  0.2475 -0.2365
47958SOL    HW148812   9.995   9.054   7.115  1.6941  0.0774 -1.6445
47958SOL    HW248813  10.105   9.037   7.218  0.1929  0.2650  0.0365
47959SOL     OW48814   3.181   2.026   3.006 -0.3852 -0.2232 -0.4587
47959SOL    HW148815   3.244   1.962   3.038 -1.4932 -1.6424 -1.0128
47959SOL    HW248816   3.128   1.978   2.943 -0.7094  1.4823 -1.5563
47960SOL     OW48817  10.761   7.835   9.152  0.0994 -0.1173  0.7240
47960SOL    HW148818  10.691   7.860   9.092  0.9467  0.1408 -0.1864
47960SOL    HW248819  10.804   7.761   9.109  2.2358  1.5553 -0.2491
47961SOL     OW48820   8.912   1.388   3.765  0.5385 -0.2938  0.0865
47961SOL    HW148821   8.817   1.377   3.757  0.5875 -0.3448 -0.4792
47961SOL    HW248822   8.938   1.323   3.830  0.4458 -1.6927 -1.2101
47962SOL     OW48823   1.409   4.088  11.460  0.4484  0.4398 -0.5134
47962SOL    HW148824   1.453   4.172  11.447 -0.9031  0.9937 -1.8159
47962SOL    HW248825   1.352   4.101  11.536 -0.1219  0.8814 -1.0056
47963SOL     OW48826  11.565   9.604   5.280  0.1454 -0.8714 -0.1130
47963SOL    HW148827  11.597   9.666   5.215  0.6972 -0.6586  0.3542
47963SOL    HW248828  11.489   9.647   5.319  1.1219 -0.0264  0.9181
47964SOL     OW48829   0.430   1.465  11.613 -0.3304 -0.0719  0.3088
47964SOL    HW148830   0.405   1.454  11.705 -1.1984 -1.2096 -0.0314
47964SOL    HW248831   0.485   1.389  11.594 -0.6525 -0.1710 -0.2633
47965SOL     OW48832   6.229  10.254   7.621  0.2920 -0.3885  0.0648
47965SOL    HW148833   6.135  10.262   7.634  0.1660  0.6406 -1.2110
47965SOL    HW248834   6.268  10.310   7.689 -0.0038 -0.9113  0.6685
47966SOL     OW48835   4.204   5.440   3.143 -0.3938  0.2784 -0.2076
47966SOL    HW148836   4.114   5.463   3.167 -0.7173 -0.4092 -0.7410
47966SOL    HW248837   4.258   5.482   3.211 -1.2450 -1.2889  1.5525
47967SOL     OW48838  10.103   0.919   0.311  0.7268  0.3732 -0.0832
47967SOL    HW148839  10.170   0.988   0.310  1.1193  0.0284  0.9207
47967SOL    HW248840  10.057   0.933   0.393  1.4059 -1.1073  0.5738
47968SOL     OW48841   6.913   9.697  10.742 -0.5029  0.5537  0.5958
47968SOL    HW148842   6.991   9.643  10.730 -1.1269 -0.4484  0.9153
47968SOL    HW248843   6.855   9.644  10.797 -0.3044  2.4146  2.7361
47969SOL     OW48844   7.386   6.048   8.222 -0.2563 -0.2014  0.2125
47969SOL    HW148845   7.467   6.066   8.270  0.5920 -0.5335 -1.0415
47969SOL    HW248846   7.414   5.996   8.147 -1.6662 -0.4401 -0.1816
47970SOL     OW48847   7.553   9.569   3.038  0.1782  0.3465  0.3002
47970SOL    HW148848   7.581   9.504   3.102  1.0103 -0.8851 -1.2096
47970SOL    HW248849   7.522   9.517   2.963 -1.5940  1.7145  0.0199
47971SOL     OW48850   3.964   0.445  11.607  0.1275 -0.1449 -0.3190
47971SOL    HW148851   4.006   0.527  11.631 -1.9087  0.8764 -0.0141
47971SOL    HW248852   3.949   0.400  11.690 -1.2909  0.5147 -0.1871
47972SOL     OW48853   8.782   6.618   3.502  0.0965 -0.2416  0.4192
47972SOL    HW148854   8.727   6.677   3.451 -1.4777 -0.5798  1.6353
47972SOL    HW248855   8.852   6.674   3.536  0.7963  0.1104 -1.4913
47973SOL     OW48856   3.541   2.352   6.078 -0.4793  0.6761  0.1314
47973SOL    HW148857   3.573   2.435   6.113 -0.5543  0.5254  0.5710
47973SOL    HW248858   3.464   2.331   6.132 -0.8571  0.6469 -0.4032
47974SOL     OW48859   8.340   4.919   4.121 -0.0139  0.3301  0.2541
47974SOL    HW148860   8.296   4.843   4.158 -0.4566  0.4041 -0.1131
47974SOL    HW248861   8.310   4.923   4.030  1.0802  0.1247 -0.1364
47975SOL     OW48862   9.608   8.635   6.637 -0.1950  0.3952 -0.1201
47975SOL    HW148863   9.626   8.575   6.709  1.5983  1.7763  0.6565
47975SOL    HW248864   9.667   8.606   6.567  0.9728  1.4568  0.3996
47976SOL     OW48865   8.850   7.397   0.222  0.3873  0.0759  0.6767
47976SOL    HW148866   8.912   7.409   0.150 -0.4929  0.6426 -0.0041
47976SOL    HW248867   8.886   7.448   0.294  0.6432  0.5281  0.2343
47977SOL     OW48868  11.221   8.524   0.905 -0.0522 -0.0130 -0.0475
47977SOL    HW148869  11.175   8.594   0.858 -0.8244 -0.2677  0.3123
47977SOL    HW248870  11.298   8.506   0.851 -0.8247 -0.1752 -1.1305
47978SOL     OW48871  10.170   3.431  10.031 -0.4014 -0.2247 -0.2870
47978SOL    HW148872  10.201   3.404  10.118  0.3493 -1.8390 -1.0181
47978SOL    HW248873  10.246   3.470   9.989 -0.6969  0.3272 -0.3180
47979SOL     OW48874   4.003  11.441   5.051  0.0392  0.3208  0.9433
47979SOL    HW148875   4.082  11.391   5.074  0.6568  1.3102  1.0432
47979SOL    HW248876   3.933  11.376   5.051  0.9305 -0.6826  0.3744
47980SOL     OW48877   0.616   6.618   8.764 -0.3032 -0.1867 -0.1070
47980SOL    HW148878   0.708   6.608   8.787 -0.3102  0.8366  0.4032
47980SOL    HW248879   0.568   6.597   8.845 -0.4152  1.2880  0.2401
47981SOL     OW48880   7.075   6.507   2.804  0.2466  0.4603 -0.0379
47981SOL    HW148881   7.081   6.443   2.734  2.2982 -0.6883  1.0790
47981SOL    HW248882   6.989   6.492   2.844 -0.6935  0.7356 -1.8462
47982SOL     OW48883   2.866   5.266   6.806  0.3689  0.7822 -0.0920
47982SOL    HW148884   2.949   5.238   6.767  0.8003  2.3830 -0.4201
47982SOL    HW248885   2.885   5.354   6.840 -1.0085  0.8872  0.4356
47983SOL     OW48886   0.845  10.414   3.050 -0.0892  0.2327  0.7785
47983SOL    HW148887   0.798  10.383   3.127  3.6387 -0.9516  2.8275
47983SOL    HW248888   0.824  10.351   2.981 -0.1149 -1.2846  2.1318
47984SOL     OW48889   7.182   9.903   4.978 -0.1220 -0.0264  0.1122
47984SOL    HW148890   7.100   9.923   5.022 -0.0787  1.6471 -0.5255
47984SOL    HW248891   7.205   9.983   4.931  1.0783 -0.9738 -0.9883
47985SOL     OW48892   2.854   2.072   2.602  0.5295 -0.1720 -0.2043
47985SOL    HW148893   2.856   2.166   2.614  0.1817 -0.0588 -0.9607
47985SOL    HW248894   2.924   2.054   2.539  1.4311 -0.5799  0.8858
47986SOL     OW48895   4.612   5.608   1.097  0.5926  0.3399  0.0693
47986SOL    HW148896   4.658   5.594   1.180  0.6426 -0.1616 -0.0397
47986SOL    HW248897   4.520   5.616   1.121  0.0423 -3.4977 -0.0937
47987SOL     OW48898   0.270  10.719  11.215 -0.2463 -0.4382  0.3031
47987SOL    HW148899   0.244  10.690  11.302 -0.9539  2.6926  1.2724
47987SOL    HW248900   0.210  10.791  11.195  1.6933  0.7845 -1.5360
47988SOL     OW48901  11.669  11.386   7.010 -0.5380 -0.2771 -0.1809
47988SOL    HW148902  11.628  11.299   7.008 -1.4476  0.1154  0.8286
47988SOL    HW248903  11.668  11.411   7.102  1.6972 -0.1018 -0.1453
47989SOL     OW48904   6.878   0.610   9.326  0.6538 -0.2388 -0.0842
47989SOL    HW148905   6.898   0.628   9.234 -0.3756 -0.5111 -0.3825
47989SOL    HW248906   6.939   0.664   9.375  1.6628 -0.5785 -0.9215
47990SOL     OW48907   1.671  10.875   2.606  0.0072  0.3627  0.1416
47990SOL    HW148908   1.717  10.907   2.684  0.8002 -0.1513 -0.1076
47990SOL    HW248909   1.725  10.803   2.574  0.5357  1.5483 -1.7808
47991SOL     OW48910  10.359   5.473   3.715 -0.1588 -0.3633  0.0096
47991SOL    HW148911  10.367   5.492   3.808  0.8270  2.3535 -0.5590
47991SOL    HW248912  10.306   5.545   3.680 -1.9427 -2.2028 -1.3191
47992SOL     OW48913   8.895   4.132   3.732  0.4128  0.1736 -0.2440
47992SOL    HW148914   8.815   4.165   3.691  0.4461 -1.2434 -1.5431
47992SOL    HW248915   8.920   4.201   3.794 -2.3754  0.1806  1.0042
47993SOL     OW48916   6.683   3.753   9.312 -0.0320 -0.5298  0.0476
47993SOL    HW148917   6.719   3.671   9.345 -0.8480 -0.1505  2.0253
47993SOL    HW248918   6.597   3.760   9.353 -0.4963  0.7426 -1.0463
47994SOL     OW48919   8.766   5.747   7.112  0.5995 -0.2812  0.1719
47994SOL    HW148920   8.777   5.669   7.058 -3.5696 -2.3488  1.8277
47994SOL    HW248921   8.722   5.715   7.191  0.2446  3.5481  1.7414
47995SOL     OW48922   4.577   4.390   8.666 -0.0411 -0.6656  0.1450
47995SOL    HW148923   4.618   4.443   8.735 -0.3004  1.6039 -1.3380
47995SOL    HW248924   4.648   4.365   8.608  0.3620 -3.5329  1.6888
47996SOL     OW48925   0.151   2.859   0.667  0.8522 -0.3024 -0.3113
47996SOL    HW148926   0.065   2.827   0.696  0.6930  0.7550  0.4327
47996SOL    HW248927   0.145   2.861   0.572  0.7069 -2.0058 -0.3706
47997SOL     OW48928   3.424   9.312   2.140  0.5789 -0.3251 -0.2289
47997SOL    HW148929   3.487   9.282   2.074  1.6358  0.4319  0.4103
47997SOL    HW248930   3.339   9.300   2.098  1.0747 -2.0684 -0.8474
47998SOL     OW48931  10.371   4.119   3.467  0.3701  0.2706 -0.4209
47998SOL    HW148932  10.429   4.180   3.512  0.1980 -0.5635  0.9992
47998SOL    HW248933  10.367   4.151   3.377  2.6434  0.6159 -0.4507
47999SOL     OW48934   9.634  10.124   7.948 -0.5008 -0.0087  0.3211
47999SOL    HW148935   9.720  10.082   7.949 -0.7833 -0.8267 -2.3377
47999SOL    HW248936   9.574  10.057   7.982 -0.4912 -0.6428 -0.8526
48000SOL     OW48937   3.999   6.365   5.940  0.3409 -0.2997  0.3060
48000SOL    HW148938   3.990   6.428   6.011 -0.1715  0.0241 -0.0395
48000SOL    HW248939   3.921   6.378   5.886  0.8778 -0.3143 -0.4962
48001SOL     OW48940   9.543   4.389   6.293  0.1390 -0.1224  0.6651
48001SOL    HW148941   9.590   4.468   6.267  1.2441 -0.3932  1.7777
48001SOL    HW248942   9.592   4.317   6.252  0.2878 -0.3592  1.2493
48002SOL     OW48943   1.852   1.017   1.483 -0.1909 -0.4549 -0.6883
48002SOL    HW148944   1.873   0.944   1.542  0.3270 -0.1427 -0.4727
48002SOL    HW248945   1.765   0.997   1.450  0.1219 -1.3900 -0.9706
48003SOL     OW48946   1.500  10.330   3.911 -0.2230 -0.3414 -0.3089
48003SOL    HW148947   1.544  10.411   3.938 -0.9391 -0.1845  0.4401
48003SOL    HW248948   1.571  10.272   3.886  0.3365  0.3442 -0.3587
48004SOL     OW48949   4.132   1.526   2.050 -0.5083 -0.7880  0.4653
48004SOL    HW148950   4.112   1.620   2.043 -0.8823 -0.8326  0.8671
48004SOL    HW248951   4.147   1.498   1.960 -1.3106 -0.5322  0.2390
48005SOL     OW48952   4.421   1.928  11.104 -0.5662  0.2525 -0.4356
48005SOL    HW148953   4.509   1.952  11.075 -0.0703 -2.6810 -1.7141
48005SOL    HW248954   4.436   1.872  11.180 -1.4450  0.8004  0.1564
48006SOL     OW48955  11.475   2.721   5.133 -0.6655 -0.4053  0.1771
48006SOL    HW148956  11.569   2.724   5.153 -0.9398  0.4874  1.4525
48006SOL    HW248957  11.471   2.688   5.044  0.8405 -0.9995  0.2973
48007SOL     OW48958   3.264  10.111   0.630 -0.3292 -0.3525  0.6689
48007SOL    HW148959   3.248  10.076   0.542 -0.0084  1.5407 -0.1931
48007SOL    HW248960   3.297  10.036   0.680  1.0096 -1.1295 -1.2533
48008SOL     OW48961   1.300   6.279   1.773  0.0170 -0.0909 -0.9201
48008SOL    HW148962   1.237   6.347   1.793  1.8015  1.1749  0.7712
48008SOL    HW248963   1.297   6.220   1.848  1.4950  0.5450 -0.3214
48009SOL     OW48964   0.792   6.833   3.537  0.0906  0.2550  0.2068
48009SOL    HW148965   0.818   6.883   3.615 -0.6063 -1.0584  1.3316
48009SOL    HW248966   0.860   6.766   3.528 -0.5334 -0.4325  0.5119
48010SOL     OW48967   7.924   5.061  10.948  0.7734  0.0289 -0.0789
48010SOL    HW148968   7.930   5.098  11.037 -1.2994 -0.1433  0.1882
48010SOL    HW248969   7.831   5.038  10.938  0.7761  0.8232 -2.6161
48011SOL     OW48970  10.031   1.545  10.322 -0.1209 -0.0425 -0.0505
48011SOL    HW148971   9.961   1.588  10.273 -0.8667 -0.8172  0.3040
48011SOL    HW248972  10.111   1.568  10.275 -0.6123  0.7902 -0.5120
48012SOL     OW48973   8.869   6.387   4.985  0.5267 -0.4740  0.6486
48012SOL    HW148974   8.945   6.338   4.954 -0.1447 -0.7849 -0.5530
48012SOL    HW248975   8.821   6.410   4.906  0.5113  1.6598  1.2181
48013SOL     OW48976  10.574   7.165   3.977 -0.0620  0.3849 -0.4523
48013SOL    HW148977  10.497   7.158   4.033  1.3705 -1.0945  1.4766
48013SOL    HW248978  10.548   7.123   3.895 -1.3532  0.1003  0.0790
48014SOL     OW48979   9.120   4.438  10.045 -0.1814  0.0139 -0.4520
48014SOL    HW148980   9.128   4.356  10.094  2.6072  0.8668  0.7274
48014SOL    HW248981   9.114   4.505  10.112 -3.5853  0.8398 -1.3877
48015SOL     OW48982   7.138   3.664   0.563  0.0269 -0.6107  0.1814
48015SOL    HW148983   7.102   3.575   0.564 -3.0347  0.5353  1.1180
48015SOL    HW248984   7.102   3.703   0.483 -1.1394  0.6476  1.2697
48016SOL     OW48985   8.167   2.108   2.876  0.0008  0.5169 -0.1604
48016SOL    HW148986   8.078   2.079   2.856 -0.2429  1.0284  0.1734
48016SOL    HW248987   8.223   2.040   2.838 -0.4414  1.3074 -2.4009
48017SOL     OW48988   4.500   1.423   5.674 -0.3388  0.1491  0.6433
48017SOL    HW148989   4.566   1.373   5.722 -0.5448 -0.6117  0.1516
48017SOL    HW248990   4.431   1.441   5.738  0.1547  0.6063  1.0575
48018SOL     OW48991   1.689   1.297   2.092 -0.1547  0.2994 -0.1346
48018SOL    HW148992   1.604   1.340   2.082  0.0535  0.5398 -0.9798
48018SOL    HW248993   1.674   1.207   2.064 -0.0609  0.4257 -0.5985
48019SOL     OW48994   9.335   8.923   3.779  0.0707  0.4752  0.4022
48019SOL    HW148995   9.296   9.008   3.761  0.3616  0.4567 -0.3600
48019SOL    HW248996   9.330   8.876   3.696 -0.1331 -0.2726  0.8314
48020SOL     OW48997   3.411  11.291   6.094 -0.8583 -0.2227 -0.3458
48020SOL    HW148998   3.433  11.370   6.045 -2.0483  0.3720  0.0471
48020SOL    HW248999   3.345  11.247   6.040 -2.2512  0.4882  0.7188
48021SOL     OW49000   4.332   7.827   4.058 -0.1851  0.6418  0.3316
48021SOL    HW149001   4.331   7.872   3.974 -1.7831  1.5287  0.7835
48021SOL    HW249002   4.283   7.746   4.043  0.5596  0.2137  0.1370
48022SOL     OW49003   4.062   7.979   9.095  0.1022  0.1971 -0.1136
48022SOL    HW149004   4.095   7.916   9.158  0.8902  0.0014 -0.7099
48022SOL    HW249005   4.124   8.052   9.098 -1.2362  1.3631  1.1755
48023SOL     OW49006   0.114   3.799   4.383  0.1896  0.2822 -0.4071
48023SOL    HW149007   0.050   3.841   4.441 -0.6570  0.1966 -1.2457
48023SOL    HW249008   0.163   3.739   4.439 -1.0454 -0.2799  0.1053
48024SOL     OW49009   7.112   8.431   0.227 -0.3540  0.2212  0.2257
48024SOL    HW149010   7.125   8.525   0.216 -0.8180  0.0413 -2.6377
48024SOL    HW249011   7.130   8.394   0.140  0.3639 -2.4180  1.4146
48025SOL     OW49012   1.056   2.866   9.710  0.0999 -0.3260 -0.3730
48025SOL    HW149013   1.086   2.776   9.701 -1.3037 -0.8378 -0.3038
48025SOL    HW249014   1.135   2.919   9.702  0.9088 -1.5402 -0.7484
48026SOL     OW49015  10.158   4.673   9.756 -0.4381  0.4859 -0.3626
48026SOL    HW149016  10.078   4.711   9.721  0.6570  2.5745 -0.7659
48026SOL    HW249017  10.228   4.730   9.724  0.9830  0.2420  2.0485
48027SOL     OW49018   7.036   8.993   7.240  0.2191 -0.4679  0.2255
48027SOL    HW149019   7.051   8.902   7.265  1.0010 -0.8348 -1.4407
48027SOL    HW249020   7.113   9.018   7.189  0.0789  1.1770  0.7419
48028SOL     OW49021   2.025   3.949   7.101 -0.0235  0.2379  0.0034
48028SOL    HW149022   1.976   3.916   7.177 -0.2592  1.1070  0.2546
48028SOL    HW249023   2.075   3.874   7.069 -1.6949 -0.7548 -0.3976
48029SOL     OW49024   3.629  10.256   5.838  0.4925  1.0469 -0.3891
48029SOL    HW149025   3.610  10.290   5.750  3.4182  2.1987 -0.6922
48029SOL    HW249026   3.557  10.196   5.856 -0.4450  1.0684 -3.4068
48030SOL     OW49027   9.672   6.341  11.412  0.0750 -0.1297 -0.1208
48030SOL    HW149028   9.644   6.408  11.474  0.3180  0.4919 -0.6718
48030SOL    HW249029   9.745   6.381  11.365 -1.8931  0.5689 -2.8318
48031SOL     OW49030   7.331   9.650  10.163  0.3409  1.0869  0.5719
48031SOL    HW149031   7.295   9.590  10.228 -1.7767 -1.4958 -2.6219
48031SOL    HW249032   7.420   9.618  10.147 -0.6522 -1.2529 -0.8581
48032SOL     OW49033   0.585   4.223  11.314  0.1591 -0.2596  0.3500
48032SOL    HW149034   0.571   4.301  11.368  1.0489 -1.3348  2.2273
48032SOL    HW249035   0.679   4.207  11.319  0.2026 -0.6544 -1.2148
48033SOL     OW49036   8.027   3.446   3.061  0.2261 -0.2678  0.2799
48033SOL    HW149037   8.050   3.497   2.984  0.6250 -0.7965  0.0396
48033SOL    HW249038   7.985   3.367   3.025  0.9211 -0.7787  0.5704
48034SOL     OW49039  10.978   7.715   9.500  0.1281  0.2417 -0.0613
48034SOL    HW149040  10.975   7.664   9.581  2.7399  1.9552  1.2462
48034SOL    HW249041  11.014   7.800   9.526  0.4434  1.1030 -2.9236
48035SOL     OW49042   6.679   7.003   4.570 -0.0824 -0.3691 -0.0320
48035SOL    HW149043   6.739   7.021   4.498  0.1946 -0.5048  0.1581
48035SOL    HW249044   6.681   6.907   4.579 -1.4002 -0.4876 -0.9224
48036SOL     OW49045   1.491   0.223   6.137  0.1148 -0.3050 -0.3141
48036SOL    HW149046   1.523   0.189   6.221  0.7123 -0.9248 -0.7889
48036SOL    HW249047   1.409   0.267   6.160  1.4742  1.7085  1.0020
48037SOL     OW49048   3.722   6.072   1.666 -0.3986 -0.0647  0.2117
48037SOL    HW149049   3.737   6.133   1.737  1.3450  0.2099 -0.3608
48037SOL    HW249050   3.761   5.990   1.696 -0.2179 -0.1204 -0.1730
48038SOL     OW49051  10.473   2.239  10.210 -0.3163  0.4151  0.2221
48038SOL    HW149052  10.499   2.280  10.127  0.1409 -0.2472  0.0355
48038SOL    HW249053  10.555   2.210  10.250 -0.5072  0.9620  1.0403
48039SOL     OW49054  11.503   3.037   5.746  1.0239  0.9116  0.4301
48039SOL    HW149055  11.534   3.002   5.829 -0.6042  0.0964  0.7139
48039SOL    HW249056  11.523   3.131   5.751 -1.5108  1.4198  2.9451
48040SOL     OW49057   2.367   2.773  10.968 -0.0362  0.2754 -0.0949
48040SOL    HW149058   2.373   2.866  10.946 -1.0889  0.2712 -0.4567
48040SOL    HW249059   2.425   2.762  11.044  3.1994  0.4393 -2.3323
48041SOL     OW49060   9.179   7.014   4.733  0.4710 -0.4034 -0.2098
48041SOL    HW149061   9.243   7.058   4.677  0.7007 -1.2616 -0.6461
48041SOL    HW249062   9.141   6.946   4.677 -1.0295  0.2612 -0.0396
48042SOL     OW49063   7.465   9.934   3.045 -0.1801  0.1024  0.1183
48042SOL    HW149064   7.388   9.985   3.021  0.9258  1.3511 -0.8809
48042SOL    HW249065   7.431   9.865   3.102 -1.8612  1.3013  0.6207
48043SOL     OW49066  10.352  10.659   2.204  0.0466 -0.2035 -0.1208
48043SOL    HW149067  10.266  10.697   2.190 -0.3806  0.0057  2.5570
48043SOL    HW249068  10.340  10.598   2.276  2.3276  0.7240  1.1522
48044SOL     OW49069   7.450  10.079  11.501  0.1652  0.0037  0.3528
48044SOL    HW149070   7.371  10.108  11.456 -0.2031 -0.5369  0.6423
48044SOL    HW249071   7.430  10.090  11.594  0.2645 -0.5503  0.4434
48045SOL     OW49072   1.193   6.071  10.871 -0.5428  0.1880  0.4642
48045SOL    HW149073   1.162   5.981  10.879  0.7099 -0.4618 -1.3283
48045SOL    HW249074   1.116   6.122  10.848 -0.8147 -0.9057 -1.1681
48046SOL     OW49075   6.305  10.877   0.734 -0.9853  0.3012  0.0711
48046SOL    HW149076   6.282  10.795   0.690 -0.2117  0.5942 -0.9064
48046SOL    HW249077   6.351  10.848   0.813  0.4100 -0.2297 -0.8942
48047SOL     OW49078   5.968   0.731   7.285 -0.1887  0.2566 -0.2290
48047SOL    HW149079   5.924   0.814   7.300 -1.2873  0.5240 -3.9214
48047SOL    HW249080   5.924   0.670   7.344 -0.5261  1.9058  1.3151
48048SOL     OW49081  10.934   2.421  10.149 -0.5748  0.2636 -0.1256
48048SOL    HW149082  10.925   2.465  10.065  0.3344 -1.1959 -1.0471
48048SOL    HW249083  10.855   2.443  10.198 -1.0914  1.1688 -1.3548
48049SOL     OW49084   1.717  10.971   9.720  0.1257  0.0269  0.2183
48049SOL    HW149085   1.724  10.943   9.811 -1.1728  2.3678  1.1197
48049SOL    HW249086   1.710  11.066   9.725 -1.7552  0.0954 -2.2164
48050SOL     OW49087   3.580   1.366  10.942 -0.1768  0.5467  0.4257
48050SOL    HW149088   3.660   1.313  10.940 -0.9755 -0.8513  2.5942
48050SOL    HW249089   3.509   1.302  10.935 -1.1581  1.7116 -0.7167
48051SOL     OW49090   6.722  11.268   5.665  0.4492  0.3764  0.1829
48051SOL    HW149091   6.639  11.313   5.682  0.6556  0.7004  0.3413
48051SOL    HW249092   6.697  11.178   5.648 -0.0714  0.7715 -1.2642
48052SOL     OW49093  10.727   3.355   2.968 -0.0797  0.4036  0.3379
48052SOL    HW149094  10.746   3.445   2.941  1.1468  0.2414  0.6073
48052SOL    HW249095  10.753   3.302   2.893 -3.0318  0.3650 -0.8170
48053SOL     OW49096   8.907   3.262   7.530  0.1453 -0.3592  0.1335
48053SOL    HW149097   8.999   3.236   7.527 -0.0469 -1.0301 -2.0814
48053SOL    HW249098   8.859   3.179   7.528 -0.4647 -0.0383 -2.6892
48054SOL     OW49099   5.682   1.117   1.948  0.2591  0.3467 -0.4764
48054SOL    HW149100   5.710   1.028   1.969 -0.4216  0.3897  0.7479
48054SOL    HW249101   5.608   1.106   1.889 -0.3390  0.0547  0.3112
48055SOL     OW49102   7.561   3.826   1.727  0.1968  0.3822  0.1275
48055SOL    HW149103   7.535   3.918   1.716 -0.0136  0.2398 -0.6624
48055SOL    HW249104   7.539   3.805   1.818  0.0645  1.0567  0.2581
48056SOL     OW49105   6.337  10.992   7.413 -0.3778 -0.6814  0.8472
48056SOL    HW149106   6.357  11.075   7.371  0.5976 -0.1738  2.2127
48056SOL    HW249107   6.263  11.012   7.471  1.0386 -0.2069  2.6077
48057SOL     OW49108   2.946  10.498   4.243 -0.6033  0.3397  0.5582
48057SOL    HW149109   2.945  10.582   4.197  1.3082  0.1759  0.1426
48057SOL    HW249110   2.923  10.520   4.334  0.2198  1.3786  0.5329
48058SOL     OW49111   5.828   4.428  11.265  0.0645  0.1879 -0.0953
48058SOL    HW149112   5.776   4.468  11.335  1.2718  1.5096  0.0898
48058SOL    HW249113   5.913   4.470  11.272  1.0563 -1.6475 -0.6363
48059SOL     OW49114   7.872   6.952   6.723 -0.1741  0.0006 -0.1762
48059SOL    HW149115   7.868   7.016   6.652 -0.4539 -1.0694 -1.1531
48059SOL    HW249116   7.901   7.002   6.799 -0.9110  1.4028 -0.7772
48060SOL     OW49117   5.757   3.667   8.726  0.3484 -0.1111  0.3201
48060SOL    HW149118   5.826   3.649   8.662 -1.4877 -0.6196 -1.6453
48060SOL    HW249119   5.723   3.580   8.749 -0.4673  0.1759  0.2427
48061SOL     OW49120   6.755   7.776   9.009  0.2388  0.5917  0.2626
48061SOL    HW149121   6.816   7.708   8.982  0.7287  1.0889  0.1226
48061SOL    HW249122   6.694   7.785   8.936 -0.6785 -0.6589  0.8236
48062SOL     OW49123   6.816   5.993   0.501  0.1728 -0.5053 -0.4323
48062SOL    HW149124   6.748   5.997   0.568  0.9318 -0.6688  0.3635
48062SOL    HW249125   6.819   6.082   0.465 -0.9276 -0.6677 -0.9668
48063SOL     OW49126   3.260   7.661   5.866 -0.0688  0.1472  0.1101
48063SOL    HW149127   3.287   7.742   5.908  0.5183  0.9344 -1.6847
48063SOL    HW249128   3.336   7.634   5.814 -1.3507  0.3551 -2.0318
48064SOL     OW49129   6.663   1.365   2.503 -0.6999  0.3962  0.3985
48064SOL    HW149130   6.585   1.361   2.558 -0.3411 -0.0730  0.8777
48064SOL    HW249131   6.642   1.431   2.436 -0.7184  1.8340  1.7695
48065SOL     OW49132   2.666   9.994   3.144  0.2429 -0.3212 -0.3391
48065SOL    HW149133   2.665  10.056   3.071 -1.0763 -0.0709 -0.1251
48065SOL    HW249134   2.612   9.921   3.115  2.1097 -1.6179 -0.7531
48066SOL     OW49135  11.073   8.208   2.955 -0.5394  0.3168  0.1087
48066SOL    HW149136  11.126   8.131   2.974 -0.8919  0.1053  0.2635
48066SOL    HW249137  11.115   8.249   2.879  0.4055  0.7055  0.8199
48067SOL     OW49138   0.071   3.728   4.748  0.1445 -0.4930 -0.5484
48067SOL    HW149139   0.101   3.649   4.793  2.7007 -0.1991 -1.5855
48067SOL    HW249140   0.106   3.719   4.659 -2.3415  0.2754 -1.6845
48068SOL     OW49141   9.792   2.269   8.246 -0.2056  0.1661  0.4470
48068SOL    HW149142   9.846   2.308   8.315  0.7411  0.6768 -0.5342
48068SOL    HW249143   9.770   2.182   8.279  2.3692 -0.6106  0.3962
48069SOL     OW49144   0.706   8.835   4.918 -0.1702 -0.6968 -0.3663
48069SOL    HW149145   0.747   8.755   4.884 -0.4043 -0.5281 -1.0640
48069SOL    HW249146   0.615   8.810   4.933  0.3161 -1.3131  1.9838
48070SOL     OW49147   2.955   4.251   9.822 -0.2322 -0.3801 -0.1017
48070SOL    HW149148   2.898   4.320   9.855  1.7856  2.3943 -1.9644
48070SOL    HW249149   2.929   4.241   9.730 -0.0999 -1.7002 -0.0080
48071SOL     OW49150   9.559   0.674   2.566  0.0526 -0.9502  0.4457
48071SOL    HW149151   9.549   0.593   2.516 -2.6847 -0.2315 -0.4040
48071SOL    HW249152   9.530   0.652   2.654  0.7062 -1.2177  0.5965
48072SOL     OW49153   1.624   4.764   1.089 -0.5590 -0.3624  0.1451
48072SOL    HW149154   1.558   4.712   1.134 -1.9273  0.0883 -1.2271
48072SOL    HW249155   1.582   4.849   1.075  0.2424 -0.1041 -0.8992
48073SOL     OW49156   3.663   2.346   4.081 -0.3363 -0.1356  0.6552
48073SOL    HW149157   3.738   2.396   4.048  1.8058 -2.9201  0.8695
48073SOL    HW249158   3.596   2.355   4.013  0.5977  1.4806 -0.1187
48074SOL     OW49159   9.040  10.899   1.797  0.2062  0.5460 -0.6731
48074SOL    HW149160   9.014  10.848   1.874  0.2504  0.3482 -0.7881
48074SOL    HW249161   9.130  10.872   1.780 -0.3246 -0.6326 -1.7746
48075SOL     OW49162   4.742   4.054   3.970 -0.1684 -0.3180 -0.7799
48075SOL    HW149163   4.712   4.086   3.885 -0.7317 -0.6254 -0.6932
48075SOL    HW249164   4.824   4.008   3.950  0.1173  0.2849 -1.0464
48076SOL     OW49165   9.555   9.606  11.473  0.3897 -0.2827 -0.1870
48076SOL    HW149166   9.639   9.591  11.518 -0.5492 -1.8043  1.1813
48076SOL    HW249167   9.496   9.635  11.543  0.2636  3.0748 -1.5106
48077SOL     OW49168   3.637   1.917   5.137  0.1051  0.6644 -0.0346
48077SOL    HW149169   3.582   1.838   5.135 -0.3638  0.9988 -0.3247
48077SOL    HW249170   3.634   1.945   5.229  0.3335  0.3076  0.0864
48078SOL     OW49171   4.678   8.395  10.265 -0.6533 -0.9509  0.3971
48078SOL    HW149172   4.740   8.456  10.223 -2.3379  1.0996  0.7172
48078SOL    HW249173   4.734   8.331  10.309  1.2248  0.1845 -0.1943
48079SOL     OW49174  10.237   7.223  10.563  1.0620  0.1192  0.1447
48079SOL    HW149175  10.277   7.310  10.565  0.1773  0.5610 -0.5383
48079SOL    HW249176  10.308   7.165  10.534  0.8708  1.1206 -2.6405
48080SOL     OW49177  11.568   3.446   3.338  0.6528  0.2417  0.0767
48080SOL    HW149178  11.602   3.528   3.302  1.0661  0.9297  1.9301
48080SOL    HW249179  11.589   3.380   3.271  0.5726  1.5760 -1.3142
48081SOL     OW49180  10.306   2.342  11.114  0.1929 -0.0943 -0.4771
48081SOL    HW149181  10.259   2.355  11.196  1.6288 -0.9936  0.5257
48081SOL    HW249182  10.237   2.345  11.047 -0.5891  4.6323  0.2280
48082SOL     OW49183   4.736   8.363  11.146 -0.1439  0.5405 -0.2613
48082SOL    HW149184   4.727   8.384  11.053  1.6545  1.8310 -0.1824
48082SOL    HW249185   4.727   8.268  11.150  1.2347  0.2952 -1.9685
48083SOL     OW49186   9.964   9.997  10.149  0.1207  0.8775  0.1878
48083SOL    HW149187  10.030  10.033  10.090 -0.1702 -1.3709 -1.6440
48083SOL    HW249188  10.012   9.937  10.205 -0.1324  0.3861 -0.1197
48084SOL     OW49189   1.628   2.380  10.747 -0.2256  0.7035  0.1904
48084SOL    HW149190   1.537   2.388  10.721 -0.4588 -1.9009 -0.0463
48084SOL    HW249191   1.671   2.455  10.705 -1.6156 -0.0608 -2.9193
48085SOL     OW49192   2.867   8.086   4.761 -0.3585  0.1944 -0.1103
48085SOL    HW149193   2.806   8.101   4.833  0.5148  0.5419  0.5748
48085SOL    HW249194   2.863   7.991   4.746 -0.4890  0.1084  0.4511
48086SOL     OW49195  11.050   5.836   5.688  0.0730  0.4998  0.2415
48086SOL    HW149196  10.997   5.886   5.750 -0.6583  0.2977 -0.2010
48086SOL    HW249197  11.025   5.870   5.602 -2.1323 -2.0321 -0.2760
48087SOL     OW49198   5.041  10.245   5.615  0.2605  0.3708  0.1070
48087SOL    HW149199   5.007  10.279   5.532  1.5720 -1.4752 -1.2609
48087SOL    HW249200   5.029  10.317   5.677 -0.1850  2.0437 -1.8128
48088SOL     OW49201   4.503  11.263   6.760 -0.2292  0.1792  0.4543
48088SOL    HW149202   4.595  11.284   6.781 -0.2223 -0.0358  0.6470
48088SOL    HW249203   4.479  11.195   6.824 -1.3394  2.0570  2.1486
48089SOL     OW49204   9.309   8.013   3.998  0.4196 -0.2978  0.0718
48089SOL    HW149205   9.332   8.086   3.940  0.3246 -0.5580 -0.2980
48089SOL    HW249206   9.308   8.051   4.086  1.3436 -0.0650 -0.0052
48090SOL     OW49207  10.000   5.366   5.164 -0.5368 -0.8796 -0.3442
48090SOL    HW149208   9.997   5.437   5.099 -1.0337  0.1123  0.7183
48090SOL    HW249209   9.939   5.300   5.131 -1.8446  0.2289 -0.2318
48091SOL     OW49210   0.668   5.352   1.130  0.8033 -1.0810 -0.0539
48091SOL    HW149211   0.698   5.441   1.149  0.7295 -1.2599  0.9259
48091SOL    HW249212   0.736   5.295   1.165 -0.3734 -1.4732  1.7188
48092SOL     OW49213   5.972   4.210  11.359  0.3497 -0.6703  0.2291
48092SOL    HW149214   5.983   4.157  11.280 -0.2467 -0.2729 -0.1293
48092SOL    HW249215   5.900   4.269  11.338  0.7035 -0.0275  0.7921
48093SOL     OW49216   6.813   1.293   9.868 -0.3953  0.3053 -0.4432
48093SOL    HW149217   6.777   1.373   9.829 -1.4147  0.0283 -0.1001
48093SOL    HW249218   6.737   1.235   9.877  0.1614 -0.3302  0.2192
48094SOL     OW49219   3.080  11.186   3.042 -0.1527 -0.0166  0.6262
48094SOL    HW149220   3.136  11.198   2.965  1.2096 -0.0659  1.5728
48094SOL    HW249221   2.991  11.186   3.007  0.4607 -1.1158 -1.0892
48095SOL     OW49222   0.157   7.234   8.463 -0.2746 -0.8023 -0.1540
48095SOL    HW149223   0.065   7.243   8.439 -0.4952 -1.0241  0.5904
48095SOL    HW249224   0.175   7.310   8.517  0.3500 -0.0569 -1.3655
48096SOL     OW49225   4.021  10.522  11.615 -0.0155  0.1202 -0.1373
48096SOL    HW149226   4.010  10.577  11.692  1.2295  0.9636 -0.5286
48096SOL    HW249227   4.111  10.538  11.587 -0.1772 -0.8209 -1.2666
48097SOL     OW49228  11.504   4.272   6.374 -0.2720 -0.1405 -0.0959
48097SOL    HW149229  11.437   4.269   6.305 -1.8361  2.0999  1.1893
48097SOL    HW249230  11.455   4.253   6.454 -0.1143  4.1987  1.2590
48098SOL     OW49231   0.084   1.511   9.954 -0.3092 -0.3365  0.1790
48098SOL    HW149232   0.166   1.546   9.988  0.1739 -2.0385  0.8507
48098SOL    HW249233   0.026   1.507  10.029  0.5414 -3.4630  0.8140
48099SOL     OW49234   5.779   0.033   8.158  0.5784  0.0877  0.1938
48099SOL    HW149235   5.757  -0.059   8.172 -0.1581  0.4190  1.3440
48099SOL    HW249236   5.698   0.072   8.124  0.8145  0.3710 -0.0540
48100SOL     OW49237   7.440   4.364   7.374 -0.1465 -0.0608  0.1432
48100SOL    HW149238   7.423   4.280   7.415  0.0235 -0.3632 -0.3994
48100SOL    HW249239   7.408   4.354   7.285  0.7799  0.1183 -0.2126
48101SOL     OW49240  11.124   5.043   1.545 -0.2327 -0.8163 -0.0001
48101SOL    HW149241  11.108   5.037   1.451 -0.8612 -0.7076  0.0989
48101SOL    HW249242  11.051   4.995   1.585 -0.3790 -0.2126  0.4607
48102SOL     OW49243   5.703   6.417   2.977 -0.2971 -0.0511 -0.2304
48102SOL    HW149244   5.696   6.457   3.063  0.3494  0.2671 -0.3264
48102SOL    HW249245   5.630   6.454   2.928  0.3444  1.1025 -0.3517
48103SOL     OW49246  10.381   0.815  10.236 -0.0274 -0.6323 -0.3005
48103SOL    HW149247  10.313   0.815  10.168  0.5895  0.5685 -0.9472
48103SOL    HW249248  10.444   0.749  10.207 -0.0491 -0.5174 -0.6218
48104SOL     OW49249   3.808   0.277   4.929  0.3648  0.1077 -0.1714
48104SOL    HW149250   3.881   0.225   4.896  0.7705  1.5771 -1.7197
48104SOL    HW249251   3.830   0.367   4.905 -0.7546  0.9046  1.5980
48105SOL     OW49252   8.765   4.640   4.857  0.3680 -0.5962 -0.2167
48105SOL    HW149253   8.749   4.610   4.768  2.0580 -2.0021 -0.0964
48105SOL    HW249254   8.740   4.732   4.856 -0.1848 -0.7262 -1.9666
48106SOL     OW49255   7.117   0.930   7.170 -0.5911  0.2723 -0.5501
48106SOL    HW149256   7.048   0.972   7.221 -1.5118 -0.7633 -0.9053
48106SOL    HW249257   7.198   0.955   7.214 -1.2540  0.7299  0.4375
48107SOL     OW49258   3.448   3.658   1.303  0.2954 -0.2085  0.4678
48107SOL    HW149259   3.357   3.686   1.313 -0.4827 -1.6475 -1.6139
48107SOL    HW249260   3.488   3.674   1.388 -1.5807  1.5503  1.1062
48108SOL     OW49261   4.874  10.174  10.028  0.0376  0.0041 -0.2326
48108SOL    HW149262   4.882  10.251  10.086 -0.3881  1.0019 -1.4501
48108SOL    HW249263   4.920  10.200   9.949  0.8794 -1.4722 -0.2470
48109SOL     OW49264  10.697   3.886   2.584  0.2919 -0.3830 -0.3504
48109SOL    HW149265  10.771   3.945   2.574  0.3029 -0.7797 -3.4887
48109SOL    HW249266  10.620   3.944   2.588  0.5629 -0.0671  0.7843
48110SOL     OW49267  10.160   4.124  10.286 -0.0384  0.1867  0.0677
48110SOL    HW149268  10.083   4.127  10.229 -0.0782  0.4064  0.1328
48110SOL    HW249269  10.142   4.052  10.346  0.5970 -0.9312 -1.0312
48111SOL     OW49270  10.260   5.474   1.543  0.4865 -0.2090 -0.1060
48111SOL    HW149271  10.318   5.495   1.616  1.2211 -0.4370 -0.6140
48111SOL    HW249272  10.194   5.543   1.545  0.6029 -0.1045  0.6537
48112SOL     OW49273   0.280   1.876   1.928 -0.3437 -0.6183  0.1639
48112SOL    HW149274   0.224   1.953   1.927 -0.9234 -1.0367  0.0906
48112SOL    HW249275   0.337   1.889   2.004  1.5544  1.2664 -1.4336
48113SOL     OW49276   8.878   8.182   8.270  0.1456 -0.1378  0.0929
48113SOL    HW149277   8.806   8.241   8.246  0.3990  0.3760  0.5548
48113SOL    HW249278   8.836   8.097   8.284 -0.2900  0.0293 -0.1700
48114SOL     OW49279   4.936   1.184   8.508  0.3205 -0.1102 -0.1859
48114SOL    HW149280   4.996   1.174   8.434  1.0738  0.0510  0.3865
48114SOL    HW249281   4.979   1.137   8.580 -0.5063 -0.4567  0.0987
48115SOL     OW49282   5.381   0.445   8.432  0.3569  0.0442 -0.0252
48115SOL    HW149283   5.327   0.394   8.491  0.7390 -0.6203 -0.2345
48115SOL    HW249284   5.431   0.504   8.489  0.1288 -0.0203  0.2408
48116SOL     OW49285   4.848   2.909   7.977  0.1250  0.1161  0.6877
48116SOL    HW149286   4.807   2.883   8.060 -0.6443 -1.5896 -0.1841
48116SOL    HW249287   4.942   2.908   7.996  0.0141 -1.3627  1.2646
48117SOL     OW49288   7.795   7.246   7.958  0.0297 -0.3655  0.0812
48117SOL    HW149289   7.842   7.328   7.944 -0.3172  0.2622  2.2574
48117SOL    HW249290   7.778   7.213   7.870  1.2065  1.2984 -0.8209
48118SOL     OW49291   7.233   5.280   9.362  0.2365  0.8293 -0.5326
48118SOL    HW149292   7.145   5.293   9.397  1.1514  0.4421  2.1341
48118SOL    HW249293   7.292   5.319   9.427  2.0797  1.4050 -2.3921
48119SOL     OW49294   5.904  11.030  11.281  0.2426 -0.1073  0.6469
48119SOL    HW149295   5.947  11.096  11.227 -0.9723  0.2424  0.0849
48119SOL    HW249296   5.914  11.062  11.371 -1.1129  1.3388  0.3232
48120SOL     OW49297   7.262   2.309   7.085 -0.0377 -0.1996  0.3318
48120SOL    HW149298   7.328   2.321   7.153  1.5526 -0.7286 -1.0358
48120SOL    HW249299   7.293   2.233   7.035 -1.5444 -0.2912 -0.5303
48121SOL     OW49300   7.752   4.480   2.136  0.2793  0.0117  0.6905
48121SOL    HW149301   7.769   4.571   2.158 -0.7230  0.4725 -0.3351
48121SOL    HW249302   7.776   4.472   2.044 -0.3846 -0.5594  0.5565
48122SOL     OW49303   9.389   3.467   7.375  0.3290 -0.0830  0.3682
48122SOL    HW149304   9.339   3.427   7.305  0.5130 -0.1831  0.2941
48122SOL    HW249305   9.423   3.394   7.427  0.3809 -0.0164  0.4297
48123SOL     OW49306  10.631   9.175   1.781  0.2187  0.3804  0.0339
48123SOL    HW149307  10.723   9.200   1.788  0.0468  1.1285 -0.3162
48123SOL    HW249308  10.632   9.079   1.778  0.8705  0.2952  1.7315
48124SOL     OW49309   2.267   7.263   5.098 -0.5043  0.2350 -1.0206
48124SOL    HW149310   2.209   7.334   5.125 -1.0388 -0.9202  1.0631
48124SOL    HW249311   2.348   7.307   5.072  0.2627  1.5824  2.9702
48125SOL     OW49312   1.344   3.447   1.596 -0.2522 -0.5571  0.2956
48125SOL    HW149313   1.269   3.500   1.571 -0.2175 -0.0949  1.1405
48125SOL    HW249314   1.316   3.401   1.675 -0.3398 -1.9453 -0.4991
48126SOL     OW49315   5.234  11.597   5.124 -0.3707  0.4351 -0.0613
48126SOL    HW149316   5.207  11.530   5.061  1.5967 -0.4334 -0.0408
48126SOL    HW249317   5.230  11.679   5.074  1.5391 -0.2800 -1.5100
48127SOL     OW49318  10.395   7.261   7.431 -0.5709 -0.4540 -0.1740
48127SOL    HW149319  10.318   7.301   7.473 -0.9694 -0.9831 -0.3949
48127SOL    HW249320  10.409   7.180   7.479  1.2622  0.6990  1.3792
48128SOL     OW49321   5.258   9.182   9.478 -0.1629 -0.1247 -0.0947
48128SOL    HW149322   5.345   9.190   9.439  1.2663 -0.5651  2.7569
48128SOL    HW249323   5.207   9.133   9.413  1.9242 -0.4883 -1.5483
48129SOL     OW49324   3.740   2.804   4.752 -0.5865  0.2688  0.1295
48129SOL    HW149325   3.789   2.736   4.798  0.8487  1.9274  1.1767
48129SOL    HW249326   3.706   2.760   4.674 -0.1993 -1.7629  1.0269
48130SOL     OW49327   1.496   0.408   8.130  0.0940 -0.5295 -0.0258
48130SOL    HW149328   1.555   0.483   8.137  0.3205 -0.7386  0.3979
48130SOL    HW249329   1.410   0.446   8.116 -0.0253 -0.1111  1.6032
48131SOL     OW49330   2.653   9.565   3.010 -0.2645  0.0287 -0.5147
48131SOL    HW149331   2.721   9.522   2.958  0.0424  0.4948 -0.4992
48131SOL    HW249332   2.700   9.605   3.083 -0.5351  0.5006 -0.5963
48132SOL     OW49333   5.584   8.106   0.493 -0.3040 -0.2967  0.3543
48132SOL    HW149334   5.524   8.164   0.539  0.9984  1.5866 -0.2008
48132SOL    HW249335   5.622   8.160   0.424  0.9014 -1.8489 -0.2666
48133SOL     OW49336   2.105   1.360   3.894  0.0004 -0.5017  0.0300
48133SOL    HW149337   2.191   1.327   3.922  0.8551  0.3518 -1.4303
48133SOL    HW249338   2.117   1.455   3.889 -1.1618 -0.3332  0.1893
48134SOL     OW49339   0.491   9.010   1.335  0.0064 -0.0630  0.1665
48134SOL    HW149340   0.554   9.029   1.404  1.3184 -0.3974 -0.8923
48134SOL    HW249341   0.527   8.934   1.289 -0.4522  0.5760 -1.3302
48135SOL     OW49342   1.450   4.502   8.230 -0.2117 -0.4378 -0.3214
48135SOL    HW149343   1.540   4.514   8.200  0.6690 -3.5594  0.7082
48135SOL    HW249344   1.449   4.537   8.319  0.3863 -1.5365  0.1374
48136SOL     OW49345   4.504   1.048  10.443 -0.2561  0.1274  0.1744
48136SOL    HW149346   4.442   1.117  10.423  0.1664  0.4013 -0.2148
48136SOL    HW249347   4.503   0.991  10.365  1.1095  0.9821 -0.5162
48137SOL     OW49348   2.642   7.458   7.078  0.4599  0.2694 -0.0453
48137SOL    HW149349   2.663   7.520   7.009  2.0170  0.8533  0.8913
48137SOL    HW249350   2.721   7.405   7.088  0.5242  0.6047  1.6671
48138SOL     OW49351   7.484   3.482   4.619  0.3968 -0.6341  0.1602
48138SOL    HW149352   7.471   3.562   4.568 -0.7384 -1.2811 -0.5979
48138SOL    HW249353   7.549   3.432   4.569  0.7007 -0.4404  0.3537
48139SOL     OW49354   3.649   9.372   4.316  0.2757  0.3445  0.0567
48139SOL    HW149355   3.624   9.371   4.409  2.4055  0.2070  0.6810
48139SOL    HW249356   3.708   9.447   4.308 -0.4084  0.7705 -1.3760
48140SOL     OW49357   6.609   2.942   6.470  0.0596 -0.0776  0.3305
48140SOL    HW149358   6.575   2.861   6.433  1.0292 -0.8773  1.1339
48140SOL    HW249359   6.673   2.973   6.406 -1.1047  0.6772 -0.5092
48141SOL     OW49360   4.203   8.015   4.790 -0.0544  0.0006 -0.1237
48141SOL    HW149361   4.232   8.105   4.802 -0.0515 -0.0160 -0.0090
48141SOL    HW249362   4.284   7.964   4.781 -0.0451 -0.0616  0.2967
48142SOL     OW49363   5.660   9.762   5.803 -0.0431 -0.4452 -0.2229
48142SOL    HW149364   5.672   9.809   5.720  1.0742  0.4270  0.3999
48142SOL    HW249365   5.737   9.705   5.809 -0.0106 -0.3500  0.2977
48143SOL     OW49366  11.066   3.436   2.523 -0.2478 -0.4648 -0.3644
48143SOL    HW149367  11.119   3.514   2.506 -2.6647  1.6849  1.1998
48143SOL    HW249368  11.061   3.430   2.618 -2.8781 -0.4416 -0.4316
48144SOL     OW49369   7.044   2.537   4.788  0.4738 -0.1553  0.5861
48144SOL    HW149370   7.079   2.553   4.701  0.8869 -1.5208  0.4747
48144SOL    HW249371   6.965   2.591   4.793  0.0296 -0.6126 -0.9109
48145SOL     OW49372  11.356  10.792   4.496 -0.3982 -1.0583  0.1344
48145SOL    HW149373  11.416  10.844   4.550 -2.3790 -0.4940  1.9330
48145SOL    HW249374  11.363  10.830   4.409  1.2060 -0.4572  0.4868
48146SOL     OW49375  11.221   3.826   9.576 -0.0413  0.5216  0.0944
48146SOL    HW149376  11.299   3.860   9.620  0.1265 -1.0187  1.0863
48146SOL    HW249377  11.192   3.897   9.519  2.8488  0.6862 -1.3396
48147SOL     OW49378   3.730   9.102   8.041  0.6787  0.3093 -0.5390
48147SOL    HW149379   3.738   9.069   7.952  1.1443  0.4575 -0.5581
48147SOL    HW249380   3.758   9.194   8.035  0.2049  0.4693 -0.3369
48148SOL     OW49381   3.049   0.193   0.062  0.2461  0.7300 -0.1354
48148SOL    HW149382   2.957   0.182   0.038  0.3915  1.4661 -1.0958
48148SOL    HW249383   3.063   0.132   0.135 -0.8441  0.1819 -0.3698
48149SOL     OW49384   9.999   5.969   7.154 -1.1101 -0.4915  0.1488
48149SOL    HW149385  10.032   5.987   7.066  0.3507  0.3950  0.8253
48149SOL    HW249386   9.963   6.053   7.184  0.2053 -0.2283  1.0933
48150SOL     OW49387   8.923   7.314   2.681  0.1769  0.2420 -0.2451
48150SOL    HW149388   8.998   7.348   2.632  0.1091 -1.3159 -1.4903
48150SOL    HW249389   8.851   7.315   2.618 -0.5936  0.6713  0.6225
48151SOL     OW49390   5.633   5.726   3.155  0.0861  0.3484 -0.0057
48151SOL    HW149391   5.546   5.762   3.135 -0.0273  0.1965  0.1990
48151SOL    HW249392   5.649   5.753   3.246 -0.4099 -0.8950  0.4772
48152SOL     OW49393   3.785   7.598   1.846 -0.6898 -0.0368  0.1302
48152SOL    HW149394   3.843   7.624   1.917  1.3135 -0.1696 -1.3713
48152SOL    HW249395   3.699   7.630   1.873  0.4411  2.2117  1.4165
48153SOL     OW49396   8.983   7.270  10.248 -0.1709  0.5253  0.1821
48153SOL    HW149397   8.983   7.246  10.340 -2.2348  1.4671  0.4931
48153SOL    HW249398   9.036   7.349  10.243  2.7062 -1.2870 -0.0639
48154SOL     OW49399   9.104   9.221   4.300  0.6642 -0.7300 -0.6590
48154SOL    HW149400   9.044   9.188   4.232  0.3088 -2.4515  0.4269
48154SOL    HW249401   9.059   9.298   4.336 -0.0507 -0.9387 -1.0735
48155SOL     OW49402   0.986  10.393   3.864 -0.2818 -0.2504  0.1077
48155SOL    HW149403   0.965  10.390   3.958  0.6150  2.0254  0.4519
48155SOL    HW249404   0.902  10.412   3.822 -0.1696  2.3804  0.8620
48156SOL     OW49405  10.849   6.456   7.878  0.4639  0.2970 -0.8347
48156SOL    HW149406  10.888   6.387   7.825  2.7761  2.1993 -1.7750
48156SOL    HW249407  10.921   6.490   7.931 -1.2722 -0.0013  1.9689
48157SOL     OW49408   1.388   5.612   8.146 -0.5625 -0.5908  0.6094
48157SOL    HW149409   1.438   5.533   8.166  1.0294  0.3205  0.4303
48157SOL    HW249410   1.411   5.674   8.216 -1.1964 -0.0369  0.3408
48158SOL     OW49411   6.547   9.582   5.756  0.1826  0.1263  0.0157
48158SOL    HW149412   6.636   9.570   5.788 -0.3217 -1.0642  1.0238
48158SOL    HW249413   6.558   9.633   5.675  1.5542  2.3429  1.4844
48159SOL     OW49414   0.598   9.868   3.962 -0.2007 -0.4311 -0.2630
48159SOL    HW149415   0.648   9.919   4.026  0.7516 -1.6900  0.0315
48159SOL    HW249416   0.551   9.934   3.911  0.1494  0.6785  0.7867
48160SOL     OW49417  10.127   8.706   2.563 -0.0573 -0.7324  0.7421
48160SOL    HW149418  10.138   8.629   2.508  1.7656  0.8724 -1.2952
48160SOL    HW249419  10.170   8.683   2.645  2.7551 -1.0722 -0.7161
48161SOL     OW49420   3.955   5.119   2.818 -0.0460  0.3259  0.3946
48161SOL    HW149421   3.871   5.088   2.853 -0.8538  2.5363  0.5753
48161SOL    HW249422   4.020   5.090   2.882 -0.8418 -0.1526  1.0051
48162SOL     OW49423   5.690   2.204   7.808 -0.1471 -0.1341 -0.0783
48162SOL    HW149424   5.674   2.236   7.897 -1.1512 -0.2823 -0.1931
48162SOL    HW249425   5.717   2.282   7.759  0.7727 -0.1173  0.4225
48163SOL     OW49426  10.204   6.970   7.520 -0.0207 -0.0561 -0.8712
48163SOL    HW149427  10.122   6.967   7.570 -0.2798 -0.6023 -1.3121
48163SOL    HW249428  10.257   7.036   7.565 -1.1057  1.0930 -1.2187
48164SOL     OW49429   1.326   7.225  10.072  0.5638 -0.1132 -0.4636
48164SOL    HW149430   1.360   7.311  10.096 -0.2327 -0.0070  0.3387
48164SOL    HW249431   1.235   7.240  10.048  0.3241 -0.7728 -0.0149
48165SOL     OW49432   1.590   6.347  10.766 -0.0423 -0.6928  0.0994
48165SOL    HW149433   1.539   6.266  10.759 -0.5289 -0.3911  0.1240
48165SOL    HW249434   1.573   6.379  10.854 -1.5944  0.5686 -0.6069
48166SOL     OW49435   8.588   2.253   4.446  1.0203 -0.3611 -0.1641
48166SOL    HW149436   8.536   2.329   4.468  1.8092 -0.3317  1.8178
48166SOL    HW249437   8.669   2.289   4.409  0.4152 -0.3618 -1.5761
48167SOL     OW49438   7.077   9.251   3.476  0.0508  0.1978 -0.3947
48167SOL    HW149439   7.042   9.195   3.545  0.7042  2.8472  2.3220
48167SOL    HW249440   7.139   9.196   3.429 -0.6702 -1.8266  0.8967
48168SOL     OW49441  11.538   6.012   9.235 -0.1472  0.1512 -0.2046
48168SOL    HW149442  11.442   6.010   9.227 -0.1882 -1.9697  0.1944
48168SOL    HW249443  11.564   6.092   9.188 -1.9685 -0.1786 -1.9460
48169SOL     OW49444   8.101  10.740   1.577  0.1877 -0.0169  0.0382
48169SOL    HW149445   8.024  10.724   1.523  1.4087  0.7089 -2.0426
48169SOL    HW249446   8.150  10.658   1.575  0.4502  0.1447 -0.3650
48170SOL     OW49447   6.648   1.951  11.164  1.0581  0.3346 -0.1590
48170SOL    HW149448   6.724   1.948  11.106  0.6088  1.1040 -0.7980
48170SOL    HW249449   6.573   1.956  11.105  0.4983 -0.3621  0.4663
48171SOL     OW49450  11.158  10.152   2.153 -0.3198  0.7606  0.3894
48171SOL    HW149451  11.096  10.085   2.125 -0.9633  1.1578  0.8445
48171SOL    HW249452  11.187  10.193   2.072 -1.2440  1.0902  0.2123
48172SOL     OW49453   1.160   0.147   7.261 -0.1744 -0.0363  0.1128
48172SOL    HW149454   1.116   0.224   7.297  0.1371  0.0972  0.2150
48172SOL    HW249455   1.253   0.165   7.273 -0.1096 -1.0967  1.5860
48173SOL     OW49456   8.657   8.662   1.207 -0.0534  0.8240 -0.0335
48173SOL    HW149457   8.574   8.621   1.180  0.3221  0.6091 -0.9095
48173SOL    HW249458   8.716   8.647   1.133  0.9900  0.3593  0.8687
48174SOL     OW49459   0.324  11.106   4.303 -0.1630  0.0034  0.3594
48174SOL    HW149460   0.383  11.083   4.374  0.4159 -0.3216 -0.2139
48174SOL    HW249461   0.368  11.075   4.224  0.0985  1.9702 -0.3446
48175SOL     OW49462   9.904   6.955   3.456  0.1030  0.7652 -0.0681
48175SOL    HW149463   9.885   7.043   3.425 -0.5443  1.4590  2.1236
48175SOL    HW249464   9.821   6.924   3.494 -0.0100 -1.2738 -1.8105
48176SOL     OW49465   7.556   2.016   7.064  0.6721 -0.1968  0.0738
48176SOL    HW149466   7.519   1.998   6.978 -0.4405  1.1653  0.2235
48176SOL    HW249467   7.487   1.993   7.126  0.5878  0.9644  0.4458
48177SOL     OW49468   9.076   6.964   5.432 -0.3463  0.2386 -0.2295
48177SOL    HW149469   8.985   6.991   5.446 -1.0014 -1.3920 -1.1131
48177SOL    HW249470   9.104   7.013   5.354 -0.0198  1.6738  0.7449
48178SOL     OW49471   8.631   4.090   0.039 -0.5251 -0.5984 -0.2509
48178SOL    HW149472   8.626   4.014  -0.020  0.1180 -1.0839  0.3006
48178SOL    HW249473   8.677   4.156  -0.012  1.6016 -1.6063  0.2594
48179SOL     OW49474   5.470   1.413   9.971 -0.9263 -0.0081  0.0524
48179SOL    HW149475   5.542   1.457  10.015 -1.5658  1.1045  0.0456
48179SOL    HW249476   5.444   1.474   9.901  0.2952 -1.8721 -2.1542
48180SOL     OW49477   0.166  10.831   0.541  0.2510 -0.0481 -0.4169
48180SOL    HW149478   0.130  10.911   0.579 -1.2790  0.1169 -2.1214
48180SOL    HW249479   0.138  10.761   0.602  3.7279  0.7922  2.5212
48181SOL     OW49480   4.635  10.928  11.681  0.5437  0.2143 -0.1822
48181SOL    HW149481   4.555  10.973  11.709  0.9343 -0.1183  1.5895
48181SOL    HW249482   4.643  10.854  11.742  0.8544 -1.2521 -1.9304
48182SOL     OW49483   0.539   6.831   0.185  0.8180 -0.2602  0.9227
48182SOL    HW149484   0.484   6.877   0.248  0.0501  1.2481 -0.7705
48182SOL    HW249485   0.618   6.808   0.234 -0.5956 -1.0285  2.9669
48183SOL     OW49486   9.179   7.325   7.660  0.3215 -0.0665  0.5859
48183SOL    HW149487   9.132   7.286   7.735  0.6332 -0.4720  0.5722
48183SOL    HW249488   9.266   7.342   7.694 -0.3725  2.6191  1.2553
48184SOL     OW49489   2.048   4.725   8.676 -0.1906  0.4388 -0.0427
48184SOL    HW149490   2.058   4.812   8.715 -0.2091  0.4874 -0.1452
48184SOL    HW249491   2.110   4.670   8.724 -1.3274  0.1419  1.1260
48185SOL     OW49492   8.064   7.768   2.407  0.5071 -0.4604  0.1882
48185SOL    HW149493   8.131   7.703   2.388 -0.5018 -1.5604  0.3012
48185SOL    HW249494   8.053   7.765   2.502 -0.0111 -0.6054  0.1275
48186SOL     OW49495   6.423   5.273   4.198  0.8024 -0.1086 -0.0843
48186SOL    HW149496   6.421   5.177   4.204  2.2120 -0.1571 -0.0242
48186SOL    HW249497   6.427   5.303   4.289 -0.3599  0.0452 -0.0747
48187SOL     OW49498   8.245  11.573   9.789  0.1954  0.8648  0.8533
48187SOL    HW149499   8.305  11.562   9.863  2.0992 -0.8409 -0.8113
48187SOL    HW249500   8.291  11.631   9.728 -0.0310 -0.0681 -0.2438
48188SOL     OW49501  11.531   8.005   7.962 -0.2604  0.9345  0.2514
48188SOL    HW149502  11.624   8.003   7.986 -0.0198  1.2663 -0.5974
48188SOL    HW249503  11.506   8.097   7.972  0.2281  1.3796 -2.0540
48189SOL     OW49504   5.188   7.075   0.831 -0.0492  0.0999  0.2477
48189SOL    HW149505   5.213   6.993   0.875  1.7372  0.6061  0.2673
48189SOL    HW249506   5.104   7.055   0.789  0.1503 -1.6226  0.5808
48190SOL     OW49507   3.351   5.983   1.933 -0.1952  0.3102 -0.0521
48190SOL    HW149508   3.319   6.060   1.980 -1.7801 -0.0623 -0.4597
48190SOL    HW249509   3.325   5.998   1.842 -0.2027 -0.5437 -0.2019
48191SOL     OW49510   6.688   1.812   8.209 -0.2407 -0.1321 -0.3380
48191SOL    HW149511   6.626   1.793   8.138 -0.5985 -1.6961  0.3339
48191SOL    HW249512   6.722   1.726   8.234  0.1536  0.4149  1.1314
48192SOL     OW49513   6.427   0.986   6.657 -0.2733 -0.0632 -0.0669
48192SOL    HW149514   6.416   1.079   6.679  0.3786 -0.0554  0.2508
48192SOL    HW249515   6.449   0.987   6.564 -0.0633  0.1167 -0.0171
48193SOL     OW49516  11.453   8.319   6.795 -0.2282 -0.2593  0.3785
48193SOL    HW149517  11.452   8.384   6.865 -0.7344  0.7385 -0.5313
48193SOL    HW249518  11.365   8.281   6.796 -0.7845  0.9314 -0.7573
48194SOL     OW49519   2.427   5.271   4.361  0.5706  0.1470 -0.4313
48194SOL    HW149520   2.510   5.230   4.383  0.9552  0.5702 -1.0375
48194SOL    HW249521   2.407   5.239   4.273 -0.6717 -1.1234  0.2848
48195SOL     OW49522   7.341   4.006   3.561 -0.4095  0.4856 -0.1625
48195SOL    HW149523   7.419   4.052   3.532  1.8842 -2.6867  0.4466
48195SOL    HW249524   7.328   4.035   3.651  1.4540 -0.5185  0.4738
48196SOL     OW49525   2.988   8.495   8.115  0.4793 -0.6837 -0.0149
48196SOL    HW149526   2.916   8.440   8.144  1.1908 -0.9561  1.3123
48196SOL    HW249527   3.053   8.433   8.082  1.6423 -0.7853  2.2751
48197SOL     OW49528   4.874   1.506   3.789 -0.2987 -0.7242  0.6970
48197SOL    HW149529   4.840   1.587   3.751 -1.6953 -1.3530  0.5374
48197SOL    HW249530   4.860   1.516   3.883  1.8689  0.2457  0.9686
48198SOL     OW49531  11.158   7.604  10.750 -0.1310  0.9483 -0.8486
48198SOL    HW149532  11.121   7.619  10.663 -0.2286 -0.9510 -1.1731
48198SOL    HW249533  11.251   7.588  10.735  0.0543  1.6514 -0.4799
48199SOL     OW49534   6.667   3.138  10.798 -0.4283 -0.1897  0.4795
48199SOL    HW149535   6.744   3.087  10.825 -0.5442 -0.3221  0.5632
48199SOL    HW249536   6.664   3.211  10.861  0.6171  0.7903 -0.5451
48200SOL     OW49537   8.387   3.571   5.529  0.5632 -0.2883 -0.6104
48200SOL    HW149538   8.460   3.632   5.529  0.8083 -0.5776 -0.1151
48200SOL    HW249539   8.399   3.518   5.608 -0.3998 -0.0674 -0.2908
48201SOL     OW49540   4.875   0.305  11.592 -0.4485 -0.3648  0.7931
48201SOL    HW149541   4.839   0.393  11.584  1.4330  0.3900 -0.0621
48201SOL    HW249542   4.912   0.301  11.680 -0.0567 -0.0925  0.6428
48202SOL     OW49543   9.628   6.578   7.278  0.1286  0.2987 -0.0187
48202SOL    HW149544   9.594   6.542   7.196  0.9892  1.2417 -0.8202
48202SOL    HW249545   9.576   6.536   7.346 -1.9630  0.9406 -1.1224
48203SOL     OW49546   3.259   8.158   7.500  0.2053 -0.0901 -0.4033
48203SOL    HW149547   3.232   8.157   7.592  2.3175  2.9463  0.4206
48203SOL    HW249548   3.214   8.083   7.461 -2.2879 -0.3941  2.6319
48204SOL     OW49549   6.447   6.550   3.110  0.0368 -0.3820  0.3916
48204SOL    HW149550   6.460   6.463   3.074  0.7043 -0.2804  0.3730
48204SOL    HW249551   6.535   6.583   3.126 -0.1997  0.3978  0.1384
48205SOL     OW49552  11.092  11.388   9.601  0.2622 -0.2266  0.9734
48205SOL    HW149553  11.139  11.409   9.520  0.6785 -0.8867  1.0350
48205SOL    HW249554  11.161  11.370   9.665 -0.0669 -0.3094  1.3068
48206SOL     OW49555   7.068   6.452   7.343  0.2321  0.0636  0.4846
48206SOL    HW149556   7.029   6.532   7.308 -1.1451 -1.4530 -1.7101
48206SOL    HW249557   7.155   6.448   7.301  0.8565  1.0208  1.6319
48207SOL     OW49558   5.491  10.428   1.753 -0.2253  0.3239  0.2593
48207SOL    HW149559   5.548  10.437   1.677 -1.8637  2.8939 -0.7890
48207SOL    HW249560   5.485  10.333   1.767 -0.0884 -0.2661 -2.9932
48208SOL     OW49561   9.202   3.819   2.857  0.0795 -0.2590 -0.4075
48208SOL    HW149562   9.284   3.830   2.810  0.4891 -0.3509  0.2629
48208SOL    HW249563   9.201   3.726   2.882  2.3497  0.6178  4.0646
48209SOL     OW49564   4.830   2.275   4.566  0.1978  0.1916 -0.1776
48209SOL    HW149565   4.765   2.345   4.561  0.3990  0.3545 -0.6145
48209SOL    HW249566   4.912   2.319   4.588 -0.1039 -0.1866  1.9078
48210SOL     OW49567   2.797   9.150   4.717 -0.4825 -0.3236 -0.1275
48210SOL    HW149568   2.846   9.211   4.661  1.0554 -0.5891  0.8702
48210SOL    HW249569   2.739   9.207   4.768  0.6469  0.2960  0.5060
48211SOL     OW49570   1.428   7.526  11.347  0.4312 -0.0183 -0.8240
48211SOL    HW149571   1.449   7.466  11.419  1.8399 -0.0772 -1.2384
48211SOL    HW249572   1.365   7.479  11.294 -0.5938  0.0049  0.3342
48212SOL     OW49573   5.469   4.617  10.208  0.4983 -0.4073 -0.3223
48212SOL    HW149574   5.459   4.548  10.273  0.8721 -1.6723 -1.5492
48212SOL    HW249575   5.531   4.679  10.247 -0.8713 -0.0441  1.3469
48213SOL     OW49576   2.965   2.808   6.678  0.2433 -1.3259 -0.3039
48213SOL    HW149577   2.989   2.886   6.628 -0.2647 -1.5702 -0.9379
48213SOL    HW249578   2.928   2.843   6.759 -1.8566 -0.8074 -1.4002
48214SOL     OW49579   0.144   2.447   4.230 -0.0269  0.5574 -0.2022
48214SOL    HW149580   0.226   2.398   4.241 -2.1458 -3.0394  1.5918
48214SOL    HW249581   0.127   2.445   4.135  0.7589 -0.8525 -0.3375
48215SOL     OW49582   0.918   3.281   4.480 -0.2498  0.7475  0.0251
48215SOL    HW149583   0.889   3.263   4.391 -0.4615  0.5000  0.1444
48215SOL    HW249584   0.999   3.331   4.469 -0.4148  0.9472 -0.3058
48216SOL     OW49585   9.470   1.835   7.093  0.0597 -0.0463 -0.5496
48216SOL    HW149586   9.386   1.863   7.130  0.9713 -0.4453  1.9838
48216SOL    HW249587   9.529   1.909   7.111  0.5490 -0.2690 -1.2180
48217SOL     OW49588   5.232   0.780   3.292 -0.2705 -0.4151 -0.6127
48217SOL    HW149589   5.203   0.690   3.308 -0.6538  0.0791  2.0209
48217SOL    HW249590   5.325   0.779   3.313 -0.6315  0.1070  1.1970
48218SOL     OW49591   9.514   2.926   2.929 -0.1915  0.2480 -0.2648
48218SOL    HW149592   9.514   3.020   2.909 -0.4672 -0.1706 -2.4878
48218SOL    HW249593   9.426   2.897   2.908 -0.0905 -0.5289  0.3442
48219SOL     OW49594   2.168   3.616   5.469  0.2479 -0.0725 -0.1629
48219SOL    HW149595   2.168   3.578   5.381 -1.2023 -2.4515  0.7653
48219SOL    HW249596   2.167   3.540   5.528 -3.3125  1.2777  1.8569
48220SOL     OW49597   9.523   3.786   2.475  0.1914 -0.0174  0.4001
48220SOL    HW149598   9.607   3.806   2.517  0.8339  0.8668 -1.2002
48220SOL    HW249599   9.505   3.695   2.500  2.7428 -1.0003 -0.9303
48221SOL     OW49600   8.085   6.309   0.732  0.1328 -0.2608  0.3226
48221SOL    HW149601   8.101   6.356   0.813 -0.8993  0.6693  0.0093
48221SOL    HW249602   8.040   6.229   0.759  1.5643 -0.9452  0.8185
48222SOL     OW49603   4.255   4.132   4.790  0.0776  0.1055 -0.1698
48222SOL    HW149604   4.271   4.183   4.869  2.1717  2.9238 -2.2232
48222SOL    HW249605   4.341   4.104   4.762 -0.7940 -2.3300 -0.6351
48223SOL     OW49606   7.630   5.173  10.718 -0.7693 -0.3764  0.0572
48223SOL    HW149607   7.553   5.220  10.688 -0.5671 -0.7077 -1.0033
48223SOL    HW249608   7.699   5.199  10.657 -0.4664 -1.4464 -0.0674
48224SOL     OW49609   4.635   0.659   9.661  0.4368 -0.0833  0.6051
48224SOL    HW149610   4.564   0.719   9.683 -0.1169 -0.4205 -0.1997
48224SOL    HW249611   4.712   0.715   9.651 -0.4736  0.8166 -2.1766
48225SOL     OW49612   1.203   8.712   7.574  0.3265 -0.2189  0.2514
48225SOL    HW149613   1.116   8.697   7.536  0.0036 -1.2787  1.3585
48225SOL    HW249614   1.253   8.634   7.552  1.0648  0.4290 -0.4662
48226SOL     OW49615   9.244   7.014  10.494 -0.4294 -0.1860 -0.0181
48226SOL    HW149616   9.179   7.084  10.495 -1.6644 -1.3063  0.8370
48226SOL    HW249617   9.194   6.934  10.507  1.1109 -1.1047  0.5437
48227SOL     OW49618   1.627   7.092   2.578  0.0571  0.7999 -0.1038
48227SOL    HW149619   1.677   7.042   2.513  0.0572  1.3957 -0.5711
48227SOL    HW249620   1.647   7.049   2.661  1.2344  0.9233 -0.2938
48228SOL     OW49621   7.172   1.541   9.900 -0.1763 -0.3900  0.2232
48228SOL    HW149622   7.248   1.569   9.951  0.0141 -0.1615 -0.1860
48228SOL    HW249623   7.143   1.461   9.944 -0.0250 -0.1890  0.7007
48229SOL     OW49624   6.698   6.455   4.376 -0.0712  0.1218  0.4208
48229SOL    HW149625   6.664   6.522   4.434 -0.1189 -0.3326  0.9238
48229SOL    HW249626   6.635   6.383   4.383  1.4455 -1.1234  2.1093
48230SOL     OW49627   2.835   2.860   6.941 -0.5271  0.2972 -0.5633
48230SOL    HW149628   2.798   2.778   6.909  1.1020 -1.3042  1.3455
48230SOL    HW249629   2.779   2.884   7.015 -0.4495  0.3395 -0.5176
48231SOL     OW49630  11.432   9.623  10.582 -0.1900  0.5218 -0.0647
48231SOL    HW149631  11.413   9.611  10.489  0.6176 -2.9379  0.0951
48231SOL    HW249632  11.527   9.614  10.588 -0.4181 -1.4285  1.3069
48232SOL     OW49633   9.728   7.750  11.202 -0.1704 -0.1366  0.0065
48232SOL    HW149634   9.651   7.711  11.160 -0.8162 -0.1047  1.1419
48232SOL    HW249635   9.695   7.785  11.285  1.2136 -0.8256  0.8750
48233SOL     OW49636   1.618   7.979   7.401 -0.4928 -0.3233  0.4368
48233SOL    HW149637   1.651   8.009   7.316  0.8413 -0.1619  0.9828
48233SOL    HW249638   1.530   7.948   7.383 -0.6084  0.6528 -0.8165
48234SOL     OW49639   0.210   6.680   1.970  0.1227  0.8624  0.4217
48234SOL    HW149640   0.142   6.617   1.992  2.1123 -0.6312  2.8036
48234SOL    HW249641   0.217   6.675   1.874 -1.3854 -0.7517  0.3473
48235SOL     OW49642   9.740  10.028   5.740 -0.4218 -0.4370  0.2498
48235SOL    HW149643   9.677   9.982   5.683 -0.6862  0.8189 -0.4979
48235SOL    HW249644   9.687  10.061   5.812  0.0479 -2.7930  1.7937
48236SOL     OW49645   7.329   8.730   4.412  0.6912  0.2350 -0.1137
48236SOL    HW149646   7.395   8.708   4.347  1.4227  4.1506 -0.9657
48236SOL    HW249647   7.251   8.752   4.361 -0.6247 -2.0475  0.7657
48237SOL     OW49648   9.941  10.841   2.632  0.0051  0.4125 -0.1875
48237SOL    HW149649  10.026  10.882   2.642 -0.2813  1.4252 -1.6969
48237SOL    HW249650   9.960  10.755   2.594  0.5039 -0.4625  1.8679
48238SOL     OW49651   9.654   7.423  11.635  0.4898  0.4733 -0.3232
48238SOL    HW149652   9.716   7.429  11.707  2.1339 -1.8542 -1.4303
48238SOL    HW249653   9.587   7.361  11.665  1.2291 -0.5746 -0.7676
48239SOL     OW49654  10.663   4.964   0.956  0.4160 -0.3183 -0.5837
48239SOL    HW149655  10.742   4.932   0.911 -0.1335  1.2603 -2.8241
48239SOL    HW249656  10.599   4.894   0.945  1.1552 -1.1829  0.3709
48240SOL     OW49657   7.472   7.229   8.507 -0.3038  0.8415 -0.0272
48240SOL    HW149658   7.559   7.203   8.536 -0.8727 -0.2508  0.8061
48240SOL    HW249659   7.487   7.295   8.439  1.3286 -1.9934 -2.6786
48241SOL     OW49660   3.432  11.626  11.157 -0.2148  0.1392 -0.2345
48241SOL    HW149661   3.450  11.717  11.183 -0.6047  0.0260  0.4693
48241SOL    HW249662   3.426  11.629  11.061  0.6615  0.6858 -0.2798
48242SOL     OW49663   9.282   4.142   5.053  0.0231 -0.1596  0.9871
48242SOL    HW149664   9.278   4.212   5.119 -0.8462  1.0981 -0.3489
48242SOL    HW249665   9.193   4.138   5.017 -0.0139 -2.1285  1.1626
48243SOL     OW49666  10.934   1.991   1.314 -0.2990  0.3189  0.2800
48243SOL    HW149667  10.969   2.078   1.328  1.1771 -0.3844  1.1470
48243SOL    HW249668  10.855   2.005   1.261  0.7919  2.0220 -0.9731
48244SOL     OW49669   2.985   8.689   8.685  0.5435  0.0241  0.3571
48244SOL    HW149670   2.988   8.753   8.614  1.0217  0.0655  0.4166
48244SOL    HW249671   3.041   8.725   8.753  0.2839 -0.1387  0.6593
48245SOL     OW49672   5.608   5.650  11.496  0.3176 -0.3019 -0.1633
48245SOL    HW149673   5.587   5.648  11.589  1.3969 -1.0551  0.0892
48245SOL    HW249674   5.523   5.653  11.452 -0.2132 -0.2649  0.8335
48246SOL     OW49675   9.300   5.458   2.627 -0.2967 -0.3035 -0.4475
48246SOL    HW149676   9.302   5.541   2.579  0.4176 -0.0656 -0.0313
48246SOL    HW249677   9.207   5.442   2.645 -0.3760  0.9046  0.3079
48247SOL     OW49678   8.076   0.232  11.551 -0.1988 -0.0358 -0.3847
48247SOL    HW149679   7.992   0.217  11.506 -0.9375  1.9147  0.2537
48247SOL    HW249680   8.142   0.217  11.484 -1.0612 -1.2779 -0.9971
48248SOL     OW49681   3.202   4.354   0.346 -0.0948 -0.0259  0.7885
48248SOL    HW149682   3.168   4.416   0.280  1.5661  0.3224  0.1928
48248SOL    HW249683   3.127   4.300   0.369 -0.8999  0.2642 -0.9340
48249SOL     OW49684   0.865   9.022   0.075  0.1411  0.4842  0.0599
48249SOL    HW149685   0.793   9.062   0.125  2.0429  0.0265  3.5261
48249SOL    HW249686   0.865   8.931   0.103  1.4269  0.2329 -0.6916
48250SOL     OW49687  11.441   1.616   3.651 -0.0283  0.0473  0.3625
48250SOL    HW149688  11.381   1.543   3.636  0.3292 -0.5474  1.7185
48250SOL    HW249689  11.518   1.595   3.597 -0.1506 -0.2953  0.3217
48251SOL     OW49690   1.681  10.697   3.171 -0.0812 -0.5194  0.2296
48251SOL    HW149691   1.630  10.680   3.092  1.1143 -1.7317 -0.3328
48251SOL    HW249692   1.760  10.645   3.159  1.0267  0.8355  1.3281
48252SOL     OW49693  10.705   5.242   9.077 -0.0364  0.3018  0.0790
48252SOL    HW149694  10.655   5.304   9.024  0.4531  0.5535 -0.0877
48252SOL    HW249695  10.716   5.285   9.161  0.6227  0.6002 -0.1558
48253SOL     OW49696   0.871   3.161   4.849 -0.3014 -0.2809 -0.3954
48253SOL    HW149697   0.887   3.161   4.943  0.5123  1.0775 -0.5097
48253SOL    HW249698   0.916   3.238   4.817 -1.0814 -0.3814 -1.8260
48254SOL     OW49699   7.023   6.238   8.070 -0.0013 -0.2162  0.3702
48254SOL    HW149700   7.089   6.226   8.138 -0.1516 -0.2991  0.5003
48254SOL    HW249701   6.968   6.161   8.076 -0.4809  0.1423  0.6675
48255SOL     OW49702   5.242   5.151  10.797  0.2241  0.2063 -0.2859
48255SOL    HW149703   5.166   5.209  10.788  0.0083  0.5762  2.7216
48255SOL    HW249704   5.305   5.201  10.849  1.6159 -0.9054 -0.8292
48256SOL     OW49705  11.217   7.829   0.146 -0.3189  0.9274  0.6028
48256SOL    HW149706  11.238   7.776   0.069 -1.4590  2.0374 -0.5207
48256SOL    HW249707  11.234   7.771   0.220 -1.4109 -0.9861 -0.5585
48257SOL     OW49708   0.620   9.132   4.001  0.1770 -0.2991 -0.5258
48257SOL    HW149709   0.675   9.128   4.079  0.7543 -0.9525 -0.9588
48257SOL    HW249710   0.531   9.128   4.034  0.4298 -2.3459  0.0301
48258SOL     OW49711   1.555   7.189   4.040 -0.2279 -0.0524 -0.0456
48258SOL    HW149712   1.646   7.175   4.069  0.8946  1.4476 -2.5844
48258SOL    HW249713   1.509   7.109   4.067  2.4218 -1.9762 -0.8445
48259SOL     OW49714   4.032  11.548  11.585 -0.2735  0.1134 -0.0758
48259SOL    HW149715   4.127  11.564  11.582 -0.1414 -0.3333  1.1203
48259SOL    HW249716   4.009  11.561  11.677 -1.7243  2.0913 -0.6608
48260SOL     OW49717   1.719   1.474   8.352 -0.0344  0.1423 -0.1205
48260SOL    HW149718   1.805   1.434   8.368 -0.3632 -0.3382  0.4967
48260SOL    HW249719   1.685   1.428   8.276 -0.1821 -0.3930  0.2640
48261SOL     OW49720   9.449   8.699   1.653 -0.0525  0.3431 -0.3959
48261SOL    HW149721   9.444   8.624   1.712  2.0728 -0.0664 -0.6625
48261SOL    HW249722   9.379   8.757   1.682  0.4204 -0.2085  2.0022
48262SOL     OW49723   9.294   8.724   8.945 -0.4538  0.1957 -0.1067
48262SOL    HW149724   9.238   8.795   8.976 -0.0952  0.5544 -0.2843
48262SOL    HW249725   9.383   8.754   8.962 -0.2485  0.3687 -1.4255
48263SOL     OW49726   4.594  11.202   2.227 -0.2435 -0.4621 -0.1936
48263SOL    HW149727   4.518  11.254   2.254  0.2867  0.0415  0.3724
48263SOL    HW249728   4.607  11.140   2.299  0.2797 -0.1036  0.0269
48264SOL     OW49729   5.656   4.243   1.071 -0.4138 -0.0533 -0.1746
48264SOL    HW149730   5.627   4.182   1.139 -0.1515  0.7050  0.6207
48264SOL    HW249731   5.751   4.244   1.078 -0.2709 -0.9741 -1.4460
48265SOL     OW49732   6.188   8.027   6.112  1.1602  0.1269 -0.1230
48265SOL    HW149733   6.153   7.938   6.101  1.4655 -0.0188  0.0496
48265SOL    HW249734   6.231   8.046   6.029  0.4628  0.4051 -0.4273
48266SOL     OW49735  10.534   0.125   1.436  0.2646  0.3185  0.0788
48266SOL    HW149736  10.585   0.110   1.356  0.2629  2.7195 -0.4391
48266SOL    HW249737  10.589   0.088   1.506  0.2835 -1.7995 -0.9595
48267SOL     OW49738  10.245   1.592   2.250  0.4597  0.2215  0.1060
48267SOL    HW149739  10.204   1.519   2.297 -0.4555  0.0435 -0.9421
48267SOL    HW249740  10.328   1.556   2.217 -1.1284 -1.2553 -2.6732
48268SOL     OW49741   9.385  11.638  11.419  0.2075 -0.0353  0.7258
48268SOL    HW149742   9.451  11.572  11.438  1.6688  0.4061 -2.1776
48268SOL    HW249743   9.357  11.618  11.329 -2.7716  0.5248  1.4473
48269SOL     OW49744   1.767   3.159   8.111  0.1305  0.0417  0.0549
48269SOL    HW149745   1.674   3.139   8.117  0.1943 -0.1307  0.4497
48269SOL    HW249746   1.784   3.163   8.016  0.5407 -3.8610 -0.1843
48270SOL     OW49747   5.239   1.337   6.585 -0.1593  0.1395 -0.3654
48270SOL    HW149748   5.155   1.371   6.555 -0.8298  0.6129  1.8359
48270SOL    HW249749   5.276   1.293   6.509 -1.1241  2.2701 -2.1562
48271SOL     OW49750   7.142  10.418  10.239 -0.1262  0.1004 -0.2536
48271SOL    HW149751   7.055  10.440  10.207 -1.4404 -0.5123  2.5218
48271SOL    HW249752   7.129  10.338  10.290  1.8547  0.4714  0.9600
48272SOL     OW49753   3.576   7.301   4.752 -0.5556 -0.5221  0.1193
48272SOL    HW149754   3.524   7.358   4.808  1.1123  1.8977 -0.6486
48272SOL    HW249755   3.562   7.335   4.664  1.7103 -0.2454 -0.1836
48273SOL     OW49756   4.532   7.563   9.160 -0.2962  0.0463 -0.2292
48273SOL    HW149757   4.553   7.531   9.072  0.4970 -1.5843  0.5239
48273SOL    HW249758   4.617   7.578   9.202 -0.6368 -0.7602  0.7934
48274SOL     OW49759   2.826   9.967   7.300  0.1983 -0.4224  0.1626
48274SOL    HW149760   2.916   9.999   7.299  0.5504 -1.3850 -0.6295
48274SOL    HW249761   2.786  10.009   7.376  1.2677  0.1359  0.4307
48275SOL     OW49762   7.675   8.407   5.978  0.0837 -0.3990  0.0034
48275SOL    HW149763   7.749   8.347   5.989  0.4013  0.2002  1.2320
48275SOL    HW249764   7.610   8.377   6.041 -0.6375 -0.7723 -0.9021
48276SOL     OW49765   0.394   1.307   2.878 -0.3850  0.8138 -0.1599
48276SOL    HW149766   0.450   1.258   2.818 -0.6998  0.7943 -0.4412
48276SOL    HW249767   0.454   1.340   2.945 -0.0360  0.8009 -0.4602
48277SOL     OW49768   2.870  11.326   8.705  0.4782  0.5650 -0.0173
48277SOL    HW149769   2.860  11.364   8.617 -2.5183  3.9216  1.4804
48277SOL    HW249770   2.950  11.366   8.739  0.1905  1.4196 -0.3129
48278SOL     OW49771   3.755  10.236   1.204  0.2479 -0.1981  0.5838
48278SOL    HW149772   3.792  10.276   1.125 -3.2347  0.9518 -0.6523
48278SOL    HW249773   3.758  10.305   1.270 -0.0209  0.0104  0.3792
48279SOL     OW49774   3.983   2.797   2.108  0.1668  0.8932  0.7952
48279SOL    HW149775   4.032   2.879   2.110 -0.7528  1.4481  0.9644
48279SOL    HW249776   4.051   2.729   2.107  0.9367  1.6344  1.1930
48280SOL     OW49777   8.193   4.962   5.193 -0.6051  0.3567 -0.0510
48280SOL    HW149778   8.270   4.907   5.180  0.0324  1.1977  0.0073
48280SOL    HW249779   8.132   4.908   5.242  0.6871  0.2731  1.5398
48281SOL     OW49780   0.929   3.987   6.894 -0.4616  0.4883 -0.2614
48281SOL    HW149781   1.023   3.992   6.911 -0.6701  1.4201  0.7238
48281SOL    HW249782   0.908   4.071   6.852 -0.9706  0.5957  0.1902
48282SOL     OW49783   4.384   5.171   3.960 -0.5922 -0.0811 -0.0269
48282SOL    HW149784   4.319   5.178   4.030  0.3570 -1.6803  1.0781
48282SOL    HW249785   4.378   5.080   3.931  1.4010 -0.3689  0.3674
48283SOL     OW49786  10.529   8.658   5.429  0.0539  0.3394  0.1617
48283SOL    HW149787  10.542   8.753   5.430  0.4454  0.2938  1.4810
48283SOL    HW249788  10.607   8.622   5.472  1.3937 -0.8371 -2.9851
48284SOL     OW49789   6.827   7.201   3.652  0.7219 -0.5373  0.4604
48284SOL    HW149790   6.794   7.234   3.568  0.9207 -0.2117  0.5083
48284SOL    HW249791   6.871   7.276   3.691 -1.6314  0.1123  2.0582
48285SOL     OW49792   6.373   8.934   0.898 -0.2635  0.2881  0.4027
48285SOL    HW149793   6.420   9.014   0.874 -0.4619  0.1137 -0.6086
48285SOL    HW249794   6.281   8.956   0.885 -0.2544 -0.5118 -1.2393
48286SOL     OW49795   8.872  10.385  10.304 -0.4385 -0.2543  0.3326
48286SOL    HW149796   8.879  10.480  10.306  2.6321 -0.2781 -2.1821
48286SOL    HW249797   8.793  10.369  10.251 -1.6567  0.8031  1.7469
48287SOL     OW49798   3.366   6.494   5.125 -0.4538 -0.9097  0.1313
48287SOL    HW149799   3.428   6.564   5.104  0.4695 -0.8641  2.7227
48287SOL    HW249800   3.406   6.415   5.087 -0.7250 -0.3319 -1.4318
48288SOL     OW49801   3.311  11.474   5.907 -0.6346 -0.1178 -0.0231
48288SOL    HW149802   3.232  11.452   5.858 -0.5483  0.5799 -0.5008
48288SOL    HW249803   3.382  11.431   5.859 -0.7838 -1.3950  0.8461
48289SOL     OW49804   7.844   4.650   1.082  0.1989 -0.0945  0.3609
48289SOL    HW149805   7.894   4.674   1.160 -2.2330 -2.3357  2.8338
48289SOL    HW249806   7.853   4.555   1.077 -1.0553 -0.1623 -1.1018
48290SOL     OW49807   9.318   7.075   6.392  0.1285 -0.1419  0.0134
48290SOL    HW149808   9.284   7.147   6.445  1.7863  0.1453  0.7606
48290SOL    HW249809   9.241   7.031   6.357 -0.9390  1.1373  0.7117
48291SOL     OW49810   9.870   6.627   2.000 -0.2278 -0.4281 -0.4286
48291SOL    HW149811   9.869   6.535   2.026  0.9091 -0.1270  0.7482
48291SOL    HW249812   9.962   6.650   1.995 -0.4397  1.2989  1.8110
48292SOL     OW49813   9.613   5.646   5.899 -0.1118  0.5420 -0.0324
48292SOL    HW149814   9.520   5.644   5.919 -0.2023 -2.4339 -0.2049
48292SOL    HW249815   9.654   5.593   5.967  1.6952  2.7599  0.7424
48293SOL     OW49816   4.778  11.015   8.429  0.5666 -0.4322  0.1133
48293SOL    HW149817   4.815  11.067   8.501  0.3607 -0.2097  0.0572
48293SOL    HW249818   4.855  10.981   8.383  0.7195  0.6094 -0.4300
48294SOL     OW49819   9.470  10.349   7.259  0.8281  0.0541 -0.7395
48294SOL    HW149820   9.476  10.344   7.163  0.1490 -1.7599 -0.7324
48294SOL    HW249821   9.386  10.392   7.275  1.4451  1.3765 -0.9271
48295SOL     OW49822   5.947   7.695  10.644 -0.2657  0.1807 -0.0497
48295SOL    HW149823   5.906   7.732  10.566 -1.4130 -2.0861 -0.5853
48295SOL    HW249824   6.017   7.640  10.611  0.2970  0.4634  0.6423
48296SOL     OW49825   4.838   8.393   3.749 -0.3269  0.0880 -0.1205
48296SOL    HW149826   4.903   8.333   3.713  0.6156  0.0290  1.5410
48296SOL    HW249827   4.754   8.352   3.730  0.2894 -1.8103  0.9546
48297SOL     OW49828   9.744   8.226   2.592  0.4927  0.0261 -0.4282
48297SOL    HW149829   9.652   8.225   2.567  0.0283  0.2688  1.1815
48297SOL    HW249830   9.748   8.176   2.673  1.4047  1.7870  0.6831
48298SOL     OW49831   0.941   0.303  10.325 -0.0389 -0.1319  0.1550
48298SOL    HW149832   0.967   0.211  10.323  1.8556  0.3708 -0.3912
48298SOL    HW249833   0.852   0.304  10.289 -0.3775 -1.8104  0.8738
48299SOL     OW49834   9.950  11.673   0.382  0.4584  0.8103 -0.4712
48299SOL    HW149835  10.020  11.652   0.444  0.2374 -1.1213 -0.8149
48299SOL    HW249836   9.930  11.765   0.399  1.9313  0.9450  0.7728
48300SOL     OW49837   4.561  11.390  11.197  0.4713 -0.8777  0.1289
48300SOL    HW149838   4.625  11.461  11.189 -0.5208 -0.0667 -1.2107
48300SOL    HW249839   4.572  11.356  11.286  1.4128  0.5308  0.5772
48301SOL     OW49840  10.405   3.104   6.075 -0.6423  0.3727  0.2615
48301SOL    HW149841  10.422   3.012   6.096 -2.0936  0.2870  1.1700
48301SOL    HW249842  10.381   3.144   6.159 -0.6831  1.4368 -0.2424
48302SOL     OW49843  11.490   6.373   5.715  0.1416  0.2961 -0.1074
48302SOL    HW149844  11.450   6.434   5.652  1.1270 -0.3244 -1.3884
48302SOL    HW249845  11.554   6.426   5.763  1.2269  0.2528 -1.4351
48303SOL     OW49846   8.445  10.559   5.417 -0.7295  0.0537  0.0060
48303SOL    HW149847   8.441  10.613   5.496 -0.6693  0.6536 -0.3860
48303SOL    HW249848   8.401  10.612   5.350  0.5631  0.2519 -0.7339
48304SOL     OW49849   0.998   2.996   8.130 -0.2779 -0.3728 -0.6306
48304SOL    HW149850   0.979   3.079   8.085  0.1545 -1.0102 -2.0335
48304SOL    HW249851   1.081   3.012   8.175 -1.4249  0.7413  1.2309
48305SOL     OW49852   2.648   7.870   9.011  0.3305  0.0417  0.5021
48305SOL    HW149853   2.692   7.828   8.936  0.6867 -1.7270  1.6314
48305SOL    HW249854   2.626   7.957   8.980 -0.8554 -1.0871 -2.1865
48306SOL     OW49855   9.528   7.354   5.263  0.4822 -0.1995 -0.5006
48306SOL    HW149856   9.570   7.298   5.198  1.5991  0.1839 -0.1387
48306SOL    HW249857   9.460   7.299   5.303 -0.8774 -0.1550 -2.5976
48307SOL     OW49858   8.234   0.573   3.142  0.2490 -0.3564  0.3601
48307SOL    HW149859   8.285   0.652   3.160  1.4860 -1.5605  2.4876
48307SOL    HW249860   8.281   0.529   3.071  0.4535  0.0160  0.2645
48308SOL     OW49861   1.234   1.554   3.808  0.5562 -0.1472  0.4236
48308SOL    HW149862   1.176   1.566   3.883  0.9623  2.0849  0.4437
48308SOL    HW249863   1.306   1.502   3.842  0.5164  0.4632  1.4880
48309SOL     OW49864   6.947   8.107   0.193 -0.2382  0.4051 -0.7563
48309SOL    HW149865   6.940   8.023   0.148  1.3512  1.2824 -2.8146
48309SOL    HW249866   7.027   8.146   0.158  0.8036  1.4632  2.4846
48310SOL     OW49867  11.637   6.800   3.903 -0.1046 -0.4816 -0.0741
48310SOL    HW149868  11.631   6.768   3.813  1.0757  2.1442 -1.2180
48310SOL    HW249869  11.719   6.850   3.904 -1.4639  1.8810  1.6271
48311SOL     OW49870   8.038   8.455   7.398 -0.2133  0.3356 -0.2619
48311SOL    HW149871   8.130   8.438   7.376 -0.0218  0.3226  0.5182
48311SOL    HW249872   7.990   8.386   7.352 -0.0597  1.5732 -2.3979
48312SOL     OW49873   1.339   6.430   6.904 -0.1492 -0.4339 -0.6199
48312SOL    HW149874   1.374   6.366   6.842  0.3385  0.1109 -0.9151
48312SOL    HW249875   1.414   6.453   6.959 -0.3703 -0.2542 -0.3897
48313SOL     OW49876   1.933   4.296   6.492  0.2201  0.2371  0.2957
48313SOL    HW149877   1.916   4.385   6.461 -1.9899  0.2646  1.3757
48313SOL    HW249878   1.847   4.254   6.493  1.2240 -1.9725 -0.2681
48314SOL     OW49879   0.223   3.264   8.613  0.4272  0.0281  0.2499
48314SOL    HW149880   0.203   3.197   8.546 -0.7388  0.5251  0.0738
48314SOL    HW249881   0.240   3.214   8.692  0.0134 -0.5114  0.0087
48315SOL     OW49882   8.929   8.199   2.128 -0.4514  0.4681  0.1949
48315SOL    HW149883   8.890   8.241   2.051  1.3316 -0.3118 -1.2012
48315SOL    HW249884   9.019   8.232   2.130  0.3249 -1.5646  0.3614
48316SOL     OW49885   0.282   7.932   6.708 -0.0600 -0.1276  0.1782
48316SOL    HW149886   0.353   7.947   6.770  1.0155 -1.7325 -0.6113
48316SOL    HW249887   0.322   7.884   6.636 -1.3183  1.4785 -1.7114
48317SOL     OW49888   5.052   8.319   6.477  0.6207 -0.1773  0.4022
48317SOL    HW149889   5.036   8.401   6.432 -2.1726 -0.8487 -0.0620
48317SOL    HW249890   5.067   8.255   6.408  1.9586 -0.2336  0.7212
48318SOL     OW49891   0.168  10.488   4.144 -0.0685  0.0970 -0.3377
48318SOL    HW149892   0.127  10.487   4.057 -0.1970 -0.0548 -0.2754
48318SOL    HW249893   0.122  10.558   4.191 -0.5023 -0.3094 -0.1503
48319SOL     OW49894   6.151   2.912   7.971 -0.2551 -0.2667 -0.2257
48319SOL    HW149895   6.181   2.836   8.021 -1.3607 -1.0490 -0.7114
48319SOL    HW249896   6.111   2.969   8.036  0.4126 -0.1721  0.1136
48320SOL     OW49897   4.853  10.530   9.485  0.3218  0.3536  0.4156
48320SOL    HW149898   4.879  10.439   9.478 -1.3158 -0.1845  0.8791
48320SOL    HW249899   4.883  10.570   9.403  0.4059 -0.7656 -0.1192
48321SOL     OW49900   0.045   2.832   2.374  0.2257 -0.1668  0.4105
48321SOL    HW149901   0.101   2.883   2.316  0.8667 -0.4867  0.7429
48321SOL    HW249902  -0.028   2.890   2.395  0.7388  0.4624  0.4619
48322SOL     OW49903   4.432   4.446   4.952  0.0333 -0.0664 -0.1019
48322SOL    HW149904   4.345   4.405   4.954  0.6845 -1.6689 -1.8855
48322SOL    HW249905   4.491   4.378   4.984  1.1426 -0.6383 -3.0828
48323SOL     OW49906   1.815   3.938   4.330  0.3399  0.4269 -0.1013
48323SOL    HW149907   1.756   4.005   4.366 -1.1429 -0.8051 -0.0976
48323SOL    HW249908   1.902   3.962   4.362 -0.6170  0.5142  2.7215
48324SOL     OW49909   3.418   3.278   7.707 -0.0027  0.0200  0.1460
48324SOL    HW149910   3.372   3.296   7.624  0.5163 -0.1514 -0.1837
48324SOL    HW249911   3.382   3.194   7.736 -1.2606  0.7698  0.8640
48325SOL     OW49912   5.254   7.109   9.213  0.7526  0.0004  0.9570
48325SOL    HW149913   5.247   7.046   9.141 -1.3507 -0.5061  1.5241
48325SOL    HW249914   5.215   7.064   9.288  0.7561  1.3609  1.8129
48326SOL     OW49915   7.978   9.624   8.090 -0.0736 -0.5017  0.3114
48326SOL    HW149916   8.018   9.649   8.174 -0.2657 -0.9884  0.5498
48326SOL    HW249917   8.046   9.575   8.044 -0.2664 -0.9974  0.5549
48327SOL     OW49918  10.211   6.298   0.043 -0.2192  0.4355 -0.0287
48327SOL    HW149919  10.252   6.366   0.097  1.3716 -0.2001 -0.3738
48327SOL    HW249920  10.239   6.216   0.083 -1.3149 -0.0402 -0.1993
48328SOL     OW49921   6.239   2.076  10.782  0.4651  0.7200 -0.0426
48328SOL    HW149922   6.211   2.084  10.691  2.5200  1.8461 -0.6332
48328SOL    HW249923   6.201   2.152  10.825  1.6004  1.6303 -0.5881
48329SOL     OW49924   8.200   5.755   9.624 -0.9174  0.3762 -0.5949
48329SOL    HW149925   8.141   5.759   9.700 -2.9511 -2.6561 -1.8198
48329SOL    HW249926   8.149   5.791   9.552  0.5166  1.9831 -0.8680
48330SOL     OW49927  11.487   3.869   0.233 -0.2699 -0.2331 -0.4095
48330SOL    HW149928  11.514   3.958   0.214 -3.7588  0.7722 -1.2657
48330SOL    HW249929  11.420   3.877   0.301  0.1663 -2.3401  0.3737
48331SOL     OW49930   8.471   8.253   8.814  0.3838  0.4738  0.0270
48331SOL    HW149931   8.487   8.312   8.887 -0.1364 -0.9202  1.3336
48331SOL    HW249932   8.394   8.203   8.840 -1.8598  2.0502 -2.8678
48332SOL     OW49933   9.856   8.005   7.777  0.3592  0.1340 -0.3155
48332SOL    HW149934   9.922   7.956   7.729  0.3965  0.6526 -0.8032
48332SOL    HW249935   9.905   8.056   7.841  0.2194 -1.5124  1.1630
48333SOL     OW49936  10.882   6.764   2.763  0.1700  0.8945 -0.3141
48333SOL    HW149937  10.827   6.840   2.742  1.1967  1.9107  0.5249
48333SOL    HW249938  10.962   6.778   2.713 -1.3372 -2.1600 -4.0582
48334SOL     OW49939  11.220  11.016  10.503 -0.5106 -0.0177  0.3087
48334SOL    HW149940  11.171  11.067  10.439  1.2093  1.6771  0.2580
48334SOL    HW249941  11.278  10.961  10.451 -0.1160  0.3306  0.3686
48335SOL     OW49942   6.878   7.349   2.271  0.5004  0.6005 -0.5771
48335SOL    HW149943   6.885   7.257   2.244  1.1485  0.5693 -0.3275
48335SOL    HW249944   6.792   7.355   2.313  1.1513 -0.3467  1.0105
48336SOL     OW49945  10.481  11.219   2.964  0.1418 -0.0215  0.4423
48336SOL    HW149946  10.455  11.208   3.056 -2.6153 -0.7633 -0.3385
48336SOL    HW249947  10.551  11.155   2.952  0.1678 -0.3163  1.8874
48337SOL     OW49948   4.942   8.466   9.287  0.1361 -0.5107 -0.0249
48337SOL    HW149949   4.991   8.484   9.367 -0.7326  1.0834  0.1901
48337SOL    HW249950   5.008   8.437   9.224  1.3955  1.4910  0.2703
48338SOL     OW49951  10.495   7.039   1.278  0.1727 -0.2257 -0.3344
48338SOL    HW149952  10.506   7.053   1.184  1.2179  2.5001  0.1215
48338SOL    HW249953  10.583   7.042   1.314 -0.2454 -0.8744  0.8195
48339SOL     OW49954   4.663   7.271   6.597  0.2784 -0.4282 -0.5442
48339SOL    HW149955   4.589   7.292   6.654 -0.2500 -2.9668 -0.1607
48339SOL    HW249956   4.740   7.301   6.646 -0.3991  1.5684 -0.6199
48340SOL     OW49957  10.781   8.925  10.430  0.5094  0.4442  0.3648
48340SOL    HW149958  10.871   8.946  10.402  0.4456 -0.3915 -0.5649
48340SOL    HW249959  10.778   8.829  10.426 -0.9211  0.5131 -1.3313
48341SOL     OW49960   2.805   5.559   0.582 -0.3410  0.4252  0.0996
48341SOL    HW149961   2.774   5.632   0.528 -1.5630 -1.5434 -1.9972
48341SOL    HW249962   2.886   5.530   0.540 -1.7142 -1.6336 -1.3251
48342SOL     OW49963   9.597   1.809   1.704  0.5856 -0.3899  0.6764
48342SOL    HW149964   9.549   1.889   1.681  0.5507 -0.3597  0.8521
48342SOL    HW249965   9.663   1.800   1.636  2.1926  1.1243  1.9469
48343SOL     OW49966   3.585   0.146  10.850 -0.4244  0.1883 -0.3925
48343SOL    HW149967   3.505   0.102  10.878 -1.8393  1.3283 -2.3706
48343SOL    HW249968   3.566   0.239  10.862  0.8277  0.4525 -0.3676
48344SOL     OW49969   9.586   5.333   8.840 -0.0327  0.1512 -0.2514
48344SOL    HW149970   9.570   5.333   8.746 -3.1809 -0.1385  0.1627
48344SOL    HW249971   9.582   5.240   8.865  0.7581  0.2259  0.1627
48345SOL     OW49972   8.260   9.469   4.573 -0.3047  0.0329 -0.0957
48345SOL    HW149973   8.270   9.555   4.614 -0.4906 -0.9501  2.1533
48345SOL    HW249974   8.294   9.407   4.637 -0.1267 -1.6131 -1.6693
48346SOL     OW49975   5.615   1.215   4.722  0.5961 -0.2961  0.4598
48346SOL    HW149976   5.530   1.188   4.689 -0.0442  0.4031  1.4839
48346SOL    HW249977   5.678   1.179   4.659 -0.5015  0.0367 -0.8632
48347SOL     OW49978   4.041   3.233   4.069  0.0722  0.7036  0.3283
48347SOL    HW149979   3.970   3.247   4.131 -1.0002  0.3888 -0.7912
48347SOL    HW249980   4.012   3.158   4.016  1.0006  0.8994 -0.4874
48348SOL     OW49981   9.039   6.478   6.422  0.3979  0.0771  0.7127
48348SOL    HW149982   9.116   6.513   6.467  0.5222 -0.0918  0.6327
48348SOL    HW249983   8.971   6.477   6.489  0.0157  1.7087  0.3894
48349SOL     OW49984  10.895   9.130  10.948  0.2650 -0.0187  0.0599
48349SOL    HW149985  10.970   9.089  10.992  1.2878  0.7206 -0.9303
48349SOL    HW249986  10.872   9.204  11.004 -1.3540 -1.6439  1.6628
48350SOL     OW49987  10.802  10.676   9.295  0.3337 -0.2159  0.2782
48350SOL    HW149988  10.826  10.584   9.292  0.6889 -0.1159 -0.0512
48350SOL    HW249989  10.803  10.704   9.203 -0.8864 -0.1638  0.2561
48351SOL     OW49990   0.012   7.733   1.377  0.1464 -0.2791 -0.3173
48351SOL    HW149991   0.010   7.686   1.460 -2.3307  1.3346  0.6534
48351SOL    HW249992  -0.080   7.756   1.360  0.9365  1.9810 -2.0020
48352SOL     OW49993   4.607   2.055  10.739 -0.4183 -0.0097  0.0681
48352SOL    HW149994   4.609   1.967  10.701  2.6915 -0.6942  1.5096
48352SOL    HW249995   4.650   2.110  10.674 -1.1082  0.1824 -0.2321
48353SOL     OW49996  10.088   0.621   2.897 -0.0179  0.3579 -0.0930
48353SOL    HW149997  10.104   0.537   2.941  0.4838  0.1577 -0.6511
48353SOL    HW249998  10.165   0.633   2.841 -1.0778  0.1652 -1.6226
48354SOL     OW49999   4.357   8.694   5.019 -0.3592 -0.0156 -0.0541
48354SOL    HW150000   4.376   8.785   4.998 -1.2279  0.8167  2.4714
48354SOL    HW250001   4.305   8.662   4.945  1.8109  0.7907 -2.0488
48355SOL     OW50002   9.042   0.010  11.449  0.7956 -0.0188 -0.3203
48355SOL    HW150003   9.091   0.087  11.423  0.7518 -0.5819 -2.2364
48355SOL    HW250004   8.959   0.017  11.403 -0.9916  0.8243  2.7123
48356SOL     OW50005   1.542   5.293   9.793 -0.0064  0.1392  0.4442
48356SOL    HW150006   1.585   5.228   9.849  2.4926  1.5423  0.2856
48356SOL    HW250007   1.591   5.291   9.711 -0.5084  1.5333  0.0860
48357SOL     OW50008   6.971   1.043   6.589  0.1660 -0.3610 -0.3171
48357SOL    HW150009   6.894   1.097   6.572 -0.0687 -0.7517 -0.5187
48357SOL    HW250010   6.937   0.969   6.640  0.5190 -0.2157  0.1281
48358SOL     OW50011   5.269   4.310   6.221  0.2066  0.2614  0.7072
48358SOL    HW150012   5.218   4.260   6.285 -0.4536 -0.0774 -0.0774
48358SOL    HW250013   5.218   4.390   6.207 -1.1787 -0.9236 -1.5426
48359SOL     OW50014   0.306   8.414  11.636  0.6078  0.4749 -0.2326
48359SOL    HW150015   0.289   8.490  11.692  0.8996  0.4439 -0.0955
48359SOL    HW250016   0.221   8.373  11.624  0.5655  0.3783  0.3469
48360SOL     OW50017   6.920   0.455   6.712  0.5939 -0.2025 -0.2651
48360SOL    HW150018   6.997   0.487   6.760 -0.1152  0.4458  0.4860
48360SOL    HW250019   6.847   0.507   6.747 -0.2259 -0.9755 -0.7775
48361SOL     OW50020   3.715  10.731   4.342 -0.4034  0.3179 -0.1205
48361SOL    HW150021   3.773  10.691   4.407  0.6219 -2.8467 -2.7111
48361SOL    HW250022   3.673  10.804   4.388  1.6287 -0.5608  3.4465
48362SOL     OW50023   4.719  10.646   5.966  0.1956  0.0915  0.3502
48362SOL    HW150024   4.652  10.583   5.996  0.5506  0.1530  1.3114
48362SOL    HW250025   4.703  10.724   6.019 -0.8148  1.1646 -1.4552
48363SOL     OW50026   5.057  11.022   3.921 -0.5655  0.4212 -0.2427
48363SOL    HW150027   4.981  10.978   3.882  0.6856 -1.7928 -0.3308
48363SOL    HW250028   5.099  11.067   3.848 -0.9695  0.4498 -0.4617
48364SOL     OW50029  10.746   5.023   4.808 -0.6477 -0.6829 -0.1422
48364SOL    HW150030  10.774   5.114   4.810 -0.2381 -0.8172  0.7663
48364SOL    HW250031  10.792   4.986   4.733 -0.5317 -0.2320 -0.2973
48365SOL     OW50032  11.036   8.477   5.090  0.0527  0.1865  0.5578
48365SOL    HW150033  11.024   8.486   4.995 -0.1921 -1.2709  0.4239
48365SOL    HW250034  11.001   8.558   5.126 -2.4143 -0.3284 -0.4483
48366SOL     OW50035   5.355   5.694  11.390 -0.6214 -0.2311  0.1147
48366SOL    HW150036   5.272   5.658  11.358 -0.3729 -0.4661 -0.2673
48366SOL    HW250037   5.342   5.789  11.387 -0.8565 -0.2654  0.0028
48367SOL     OW50038   8.446   2.221   2.245  0.4140 -0.1702  0.3532
48367SOL    HW150039   8.492   2.245   2.325 -0.4238  1.1895  0.4611
48367SOL    HW250040   8.398   2.142   2.268  0.3200  0.1086  1.1582
48368SOL     OW50041   4.538   5.460  10.382  0.5330  1.0926  0.0020
48368SOL    HW150042   4.502   5.372  10.367 -0.5464  1.3005  1.1408
48368SOL    HW250043   4.608   5.447  10.446 -0.0354  1.1061  0.6470
48369SOL     OW50044   3.994  11.475  10.025 -0.0604  0.1349  0.5941
48369SOL    HW150045   4.080  11.478   9.985  0.2650  0.8905  1.3036
48369SOL    HW250046   3.933  11.485   9.952  0.4479 -0.4359  0.0832
48370SOL     OW50047   6.320   1.786   5.583 -0.1669  0.3831  0.5811
48370SOL    HW150048   6.357   1.814   5.499 -1.2152 -0.3676 -0.1422
48370SOL    HW250049   6.248   1.847   5.599 -1.4002 -0.8110 -0.1922
48371SOL     OW50050   7.930  10.736   0.121  0.1587  0.1565 -0.3279
48371SOL    HW150051   7.983  10.728   0.201 -0.5477  0.9735  0.2379
48371SOL    HW250052   7.989  10.709   0.051  0.7714 -0.6686  0.4684
48372SOL     OW50053   3.201  11.539   8.410 -0.1705 -0.1261 -0.1446
48372SOL    HW150054   3.272  11.502   8.463  0.2464  0.5469 -0.2180
48372SOL    HW250055   3.234  11.537   8.320  0.1434  1.0370 -0.0708
48373SOL     OW50056   7.479   3.356   6.914 -0.2107 -0.1284 -0.0504
48373SOL    HW150057   7.388   3.350   6.885  0.1018 -0.0242 -1.0622
48373SOL    HW250058   7.506   3.445   6.889  0.6173 -0.6616 -1.1023
48374SOL     OW50059   0.919   5.379  11.307  0.1980 -0.1998  0.8512
48374SOL    HW150060   0.921   5.430  11.225 -0.6486 -0.8090  0.4297
48374SOL    HW250061   0.953   5.439  11.373 -2.2289  1.5476  0.6826
48375SOL     OW50062   8.978   3.931   7.479 -1.0760 -0.0417 -0.3609
48375SOL    HW150063   9.070   3.907   7.480 -1.3698 -1.2813 -0.9749
48375SOL    HW250064   8.968   3.992   7.552  0.1437 -0.1827 -0.0549
48376SOL     OW50065   7.471   3.720   5.858  0.2041  0.3491  0.5302
48376SOL    HW150066   7.540   3.699   5.796 -0.8915 -0.6386 -0.3774
48376SOL    HW250067   7.394   3.675   5.825 -0.8453  1.2873  1.6205
48377SOL     OW50068   6.227   7.712   9.583 -0.2540 -0.0232  0.0886
48377SOL    HW150069   6.250   7.619   9.580  2.3664  0.5422  0.3473
48377SOL    HW250070   6.149   7.719   9.528  0.5310 -2.0897 -1.4255
48378SOL     OW50071   9.151   7.499   3.615  0.2075 -0.4001  0.2282
48378SOL    HW150072   9.219   7.502   3.547  0.2144  0.1993  0.2592
48378SOL    HW250073   9.161   7.582   3.662 -1.2038  0.1695 -0.4145
48379SOL     OW50074   8.160   5.912   8.968  0.0265  0.6532  0.5360
48379SOL    HW150075   8.147   5.821   8.994  1.0843  0.4140  0.2703
48379SOL    HW250076   8.252   5.931   8.990 -0.4121  1.9281  1.3991
48380SOL     OW50077   9.359  10.640   4.787  0.3607  0.4993 -0.5420
48380SOL    HW150078   9.398  10.558   4.756  0.0894 -0.3244  1.1699
48380SOL    HW250079   9.427  10.706   4.772  0.4951  0.0306 -2.1606
48381SOL     OW50080   0.268  11.254   1.464 -0.1115  0.8900 -0.1325
48381SOL    HW150081   0.269  11.192   1.391  0.4332 -1.1372  1.4982
48381SOL    HW250082   0.361  11.273   1.480 -0.0557 -0.5470  1.4740
48382SOL     OW50083   1.536   7.098   4.915 -0.0674 -0.2338 -0.0245
48382SOL    HW150084   1.563   7.167   4.975 -0.0272  0.4493 -0.8067
48382SOL    HW250085   1.494   7.144   4.843 -1.7181 -1.1582  0.3127
48383SOL     OW50086   8.770   5.097   5.422 -1.1091  0.7367  1.0369
48383SOL    HW150087   8.747   5.189   5.414  0.0946  1.2996  3.2488
48383SOL    HW250088   8.719   5.065   5.496  0.0621  0.2015  1.6422
48384SOL     OW50089   5.416   1.863   3.248  0.4023 -0.0428  0.2053
48384SOL    HW150090   5.365   1.936   3.215  0.7021 -0.3382 -0.9570
48384SOL    HW250091   5.470   1.901   3.318 -2.3769 -0.0093  2.5350
48385SOL     OW50092   6.182   7.120   1.690  0.2168  0.1158  0.2846
48385SOL    HW150093   6.186   7.031   1.726  1.0870  0.3927  0.9438
48385SOL    HW250094   6.187   7.108   1.596 -0.2259 -0.5587  0.3361
48386SOL     OW50095   1.705   2.258   3.836  0.5691  0.4302 -0.3507
48386SOL    HW150096   1.618   2.220   3.826  1.3382 -1.3533 -0.6485
48386SOL    HW250097   1.700   2.310   3.916 -1.2242  1.7852 -1.2944
48387SOL     OW50098   9.426   4.765   9.502  0.4315 -0.8569  0.1871
48387SOL    HW150099   9.419   4.735   9.412 -0.6697 -0.0619 -0.0208
48387SOL    HW250100   9.409   4.860   9.498 -1.1809 -1.0370  1.3617
48388SOL     OW50101  11.348  11.113   3.721  0.1319 -0.4105 -0.7261
48388SOL    HW150102  11.266  11.147   3.684 -1.1545 -3.1392 -0.5743
48388SOL    HW250103  11.352  11.149   3.809 -0.6569  0.1199 -0.9023
48389SOL     OW50104   6.575  10.685   5.648 -0.0958 -0.9450  0.9346
48389SOL    HW150105   6.506  10.750   5.658 -1.5468 -1.7135 -2.5127
48389SOL    HW250106   6.543  10.608   5.696 -1.6161 -1.2103 -0.4272
48390SOL     OW50107   3.143   8.335   4.891  0.0230  0.4556 -0.1373
48390SOL    HW150108   3.169   8.393   4.962 -0.6424  1.1125 -0.4174
48390SOL    HW250109   3.065   8.376   4.854  1.2900  0.9987 -2.3345
48391SOL     OW50110  11.507   8.678  11.385 -0.5035  0.6922  0.9871
48391SOL    HW150111  11.539   8.725  11.308 -0.4613 -0.5481  0.2016
48391SOL    HW250112  11.448   8.739  11.429 -0.6843  1.3621 -0.1505
48392SOL     OW50113   2.262   0.853   9.042 -0.2207 -0.3010  0.7320
48392SOL    HW150114   2.210   0.892   8.972  2.0601  2.1122  0.2723
48392SOL    HW250115   2.251   0.912   9.117  1.3408 -0.0457  0.7971
48393SOL     OW50116   2.309   8.795   2.312  0.1703  0.3679 -0.3397
48393SOL    HW150117   2.260   8.795   2.229  1.6368 -2.0058 -1.3180
48393SOL    HW250118   2.252   8.843   2.373 -2.7172 -1.0059 -1.7309
48394SOL     OW50119   7.686  11.072   9.741 -0.1870  0.1302 -0.4593
48394SOL    HW150120   7.602  11.075   9.786 -0.2038  1.4366 -0.5608
48394SOL    HW250121   7.745  11.125   9.795  0.0327  0.9467 -1.4712
48395SOL     OW50122  10.124   0.211  10.872 -0.5369 -0.1430  0.3217
48395SOL    HW150123  10.080   0.242  10.793  1.0918  1.2782 -0.0922
48395SOL    HW250124  10.154   0.291  10.916  0.7110 -0.9989  1.0950
48396SOL     OW50125   2.107   7.247   8.980 -0.9001 -0.0918  0.3452
48396SOL    HW150126   2.050   7.314   9.020 -2.7130 -0.0200 -2.1572
48396SOL    HW250127   2.057   7.166   8.987  0.2017 -0.7358  1.0805
48397SOL     OW50128   6.738   7.108   3.080 -0.3324  0.4310 -0.4681
48397SOL    HW150129   6.793   7.035   3.107 -0.6500  0.4950  0.3789
48397SOL    HW250130   6.661   7.067   3.040  0.0435  0.3313 -1.0973
48398SOL     OW50131   7.041   7.480  10.524 -0.2433  0.4067  0.3629
48398SOL    HW150132   7.012   7.444  10.608 -0.6864 -0.4869 -0.1567
48398SOL    HW250133   6.960   7.502  10.478 -0.1643 -1.6009 -0.8838
48399SOL     OW50134   5.077   4.063   3.881  0.2457  0.9186 -0.0913
48399SOL    HW150135   5.022   3.991   3.913  1.2348  0.6354  1.0499
48399SOL    HW250136   5.016   4.124   3.842 -0.7283 -0.0713 -0.1688
48400SOL     OW50137   0.322   2.240   6.060 -0.0743 -0.2056  0.6407
48400SOL    HW150138   0.267   2.201   5.991  0.8330 -0.4241  0.0232
48400SOL    HW250139   0.307   2.334   6.051  0.5027 -0.1854 -0.2843
48401SOL     OW50140   0.684   9.992   1.127  1.2478  0.0823 -0.2567
48401SOL    HW150141   0.599   9.949   1.123  1.2644  0.1153 -3.0838
48401SOL    HW250142   0.668  10.074   1.175 -0.3486  0.1614 -0.8815
48402SOL     OW50143   7.371   1.617   1.440  0.3983  0.5413  0.4479
48402SOL    HW150144   7.350   1.574   1.523  1.5881  0.9018  0.9570
48402SOL    HW250145   7.301   1.681   1.427 -0.2309 -0.0784  0.7555
48403SOL     OW50146   9.256   7.603   3.354 -0.0865 -0.4665  0.0457
48403SOL    HW150147   9.278   7.688   3.393 -1.4905 -0.0957  0.0535
48403SOL    HW250148   9.313   7.598   3.277 -1.3987  1.4221 -1.1291
48404SOL     OW50149  10.856  10.475  10.096  0.1548  0.3406 -0.2197
48404SOL    HW150150  10.850  10.567  10.072 -1.2249  0.5783  0.8990
48404SOL    HW250151  10.818  10.428  10.022 -1.4801  0.8659  0.2520
48405SOL     OW50152   9.840   2.427   1.105 -0.2094 -0.0393 -0.1225
48405SOL    HW150153   9.829   2.468   1.191 -0.2003  0.4197 -0.3415
48405SOL    HW250154   9.867   2.498   1.047 -0.1388 -0.3629 -0.4921
48406SOL     OW50155   8.188   7.687   8.946  0.6306 -0.1193 -0.1706
48406SOL    HW150156   8.099   7.714   8.968  0.9385 -0.4862  1.6516
48406SOL    HW250157   8.213   7.744   8.873 -0.6354  0.8448  0.1187
48407SOL     OW50158  10.885   8.151   0.209  0.0169  0.5624 -0.4517
48407SOL    HW150159  10.921   8.112   0.130  0.5189  1.2347 -0.5683
48407SOL    HW250160  10.937   8.230   0.222 -0.8605  1.0967 -0.1270
48408SOL     OW50161   7.560   1.679  10.403  0.7271 -0.5661 -0.1185
48408SOL    HW150162   7.581   1.770  10.382  1.8639 -0.6616  0.5354
48408SOL    HW250163   7.514   1.647  10.325  2.0639  0.0019 -1.1892
48409SOL     OW50164   7.350  11.581   1.197 -1.2919 -0.1963 -0.1754
48409SOL    HW150165   7.437  11.561   1.163 -1.1027  1.4334 -0.7568
48409SOL    HW250166   7.306  11.496   1.202  0.3431 -1.0675  0.2297
48410SOL     OW50167   6.140   9.491   8.625 -0.1741  0.5712  0.4318
48410SOL    HW150168   6.096   9.517   8.706 -0.9218  1.6895 -0.3109
48410SOL    HW250169   6.175   9.572   8.589 -0.3368  0.1861 -0.6404
48411SOL     OW50170   4.012   0.750   2.554  0.0542  0.2324 -0.1238
48411SOL    HW150171   3.966   0.769   2.472  0.9793 -1.2974 -1.0539
48411SOL    HW250172   4.105   0.749   2.529  0.2403 -2.4297  0.4225
48412SOL     OW50173   1.383   7.477   5.526 -0.3106  0.4144  0.1022
48412SOL    HW150174   1.422   7.398   5.565  1.3570  0.8760 -0.5244
48412SOL    HW250175   1.340   7.520   5.599 -0.3859 -0.5708  0.6661
48413SOL     OW50176   1.372   9.227   5.750  0.1432  0.1212  0.1767
48413SOL    HW150177   1.410   9.315   5.747  0.2563  0.0745  0.2598
48413SOL    HW250178   1.446   9.168   5.737  0.3354 -0.0191  1.7238
48414SOL     OW50179   0.434   7.448   1.721 -0.4409 -0.4519  0.5873
48414SOL    HW150180   0.372   7.511   1.756  0.7460  0.1880  1.5893
48414SOL    HW250181   0.442   7.382   1.789 -0.8169 -1.1189  0.0064
48415SOL     OW50182   2.038  11.298   2.256  0.5284 -0.5509 -0.4197
48415SOL    HW150183   2.077  11.241   2.322  1.1685 -0.6359 -0.8648
48415SOL    HW250184   1.943  11.284   2.264  0.6491 -1.1990 -0.1027
48416SOL     OW50185   4.855  10.577  11.671  0.2074 -0.0169 -0.2909
48416SOL    HW150186   4.802  10.497  11.670 -0.0842  0.1779 -0.1644
48416SOL    HW250187   4.852  10.609  11.581 -1.2125  0.8769  0.0558
48417SOL     OW50188  10.263   4.921  10.492 -0.3628 -0.3648 -0.6199
48417SOL    HW150189  10.176   4.928  10.532  0.3190 -1.3720  1.1461
48417SOL    HW250190  10.254   4.852  10.427 -0.6452 -1.1935  0.2812
48418SOL     OW50191   3.964   8.419   4.207 -0.1590 -0.1219  0.3145
48418SOL    HW150192   3.928   8.499   4.170 -0.7379 -1.0761 -1.2644
48418SOL    HW250193   4.059   8.430   4.202 -0.1714 -0.7099 -2.7094
48419SOL     OW50194   1.233   1.091   5.015  0.0147 -0.1742 -0.4566
48419SOL    HW150195   1.291   1.064   5.086  1.0437  0.5100 -1.0100
48419SOL    HW250196   1.159   1.030   5.019 -0.0592 -0.0111  1.3235
48420SOL     OW50197   9.990   4.520   0.753 -0.0562 -0.1996  0.7618
48420SOL    HW150198   9.978   4.550   0.663 -0.0171 -1.2390  0.3931
48420SOL    HW250199  10.026   4.595   0.799 -0.1738  0.3769 -0.0689
48421SOL     OW50200   0.260   0.478   9.983 -0.3949  0.4141  0.2415
48421SOL    HW150201   0.268   0.394  10.029 -1.3522  0.3893  0.3921
48421SOL    HW250202   0.189   0.463   9.921 -0.3978  1.0387  0.0942
48422SOL     OW50203   7.784   3.428   8.419 -0.5156  0.1204  0.3565
48422SOL    HW150204   7.793   3.364   8.349 -0.0728  0.5478  0.0122
48422SOL    HW250205   7.854   3.407   8.480 -0.2488  0.3893  0.1467
48423SOL     OW50206   9.447   5.077   0.320 -0.1351  0.0919  0.4534
48423SOL    HW150207   9.393   5.131   0.263  0.3281  0.4941  0.3820
48423SOL    HW250208   9.535   5.115   0.313  0.5809 -1.6405 -0.8517
48424SOL     OW50209  10.488   1.239   1.722 -0.2234 -0.0807 -0.0353
48424SOL    HW150210  10.468   1.283   1.639 -0.5076 -0.1368  0.0030
48424SOL    HW250211  10.430   1.280   1.786  1.0412  1.0276  0.4518
48425SOL     OW50212   3.673   3.641   5.395 -0.3379 -0.4136 -0.0514
48425SOL    HW150213   3.594   3.672   5.351  0.4602 -1.0186 -1.9832
48425SOL    HW250214   3.642   3.613   5.482 -1.9719  0.7013 -0.2260
48426SOL     OW50215  10.346  11.369   7.964  0.1021  0.3036 -0.5945
48426SOL    HW150216  10.285  11.380   7.891  1.5736  1.5512 -1.6904
48426SOL    HW250217  10.365  11.458   7.994 -0.4816 -0.1834  1.3509
48427SOL     OW50218  11.598   6.257   4.241  0.1031  0.2455 -0.1304
48427SOL    HW150219  11.594   6.280   4.334 -1.9103  0.8481 -0.3099
48427SOL    HW250220  11.590   6.161   4.240  1.7687  0.0696  0.3458
48428SOL     OW50221   4.622   4.232   9.811 -0.2481  0.1410  0.2989
48428SOL    HW150222   4.555   4.283   9.857 -0.8933 -0.0389 -0.4292
48428SOL    HW250223   4.608   4.142   9.840  0.6087  0.3020  1.2456
48429SOL     OW50224   5.633   9.927   8.797 -0.0219 -0.7696 -0.0794
48429SOL    HW150225   5.593  10.001   8.843 -1.0096 -1.1355 -0.3165
48429SOL    HW250226   5.653   9.961   8.710 -0.4047 -0.7541 -0.1637
48430SOL     OW50227   6.477   6.513  10.179 -0.3802 -0.5108 -0.4206
48430SOL    HW150228   6.490   6.607  10.184 -1.2273 -0.4246  0.4124
48430SOL    HW250229   6.559   6.479  10.144 -0.0081  0.5157 -0.5721
48431SOL     OW50230  10.529   9.550   7.700 -0.5202  0.0213  0.3006
48431SOL    HW150231  10.583   9.628   7.688 -1.1503  0.4671  0.3001
48431SOL    HW250232  10.591   9.480   7.721  0.2717  0.0508 -1.7525
48432SOL     OW50233   8.429   7.321   9.363  0.0056 -0.4850 -0.1885
48432SOL    HW150234   8.450   7.246   9.418 -0.1782  0.1620  0.7775
48432SOL    HW250235   8.425   7.395   9.423 -2.2110 -0.0922 -0.7178
48433SOL     OW50236   4.654   2.737   8.972  0.4250 -0.3791 -0.2776
48433SOL    HW150237   4.703   2.778   9.044  0.4313  0.2649 -0.6412
48433SOL    HW250238   4.721   2.717   8.906  0.5455 -1.7429  0.2281
48434SOL     OW50239   3.707   7.604  10.813 -0.5009  0.1588  0.0920
48434SOL    HW150240   3.785   7.608  10.869 -1.0540  1.5221  0.8031
48434SOL    HW250241   3.711   7.684  10.761 -0.2892 -0.8223 -1.4746
48435SOL     OW50242   0.069   7.947   3.448 -0.1090  0.4192  0.4201
48435SOL    HW150243   0.048   7.859   3.479  1.2981 -0.8409 -1.9022
48435SOL    HW250244   0.031   8.006   3.514 -1.4203 -1.8844  1.8544
48436SOL     OW50245   4.390   1.171   2.638  0.1620 -0.2512  0.3180
48436SOL    HW150246   4.403   1.119   2.717  1.9487 -1.3400 -0.6217
48436SOL    HW250247   4.472   1.219   2.627 -0.5290  0.8546 -0.2170
48437SOL     OW50248   4.947   8.474   4.362 -0.0049  0.0751 -0.0654
48437SOL    HW150249   5.026   8.446   4.408  0.7243  1.2153 -0.5697
48437SOL    HW250250   4.931   8.563   4.394 -0.8608  0.0029 -0.2627
48438SOL     OW50251   1.046   8.733   2.049 -0.3157  0.5491 -0.9897
48438SOL    HW150252   1.128   8.767   2.013  1.7148 -2.9294 -0.1601
48438SOL    HW250253   1.043   8.766   2.139  1.6027 -1.2254 -0.1952
48439SOL     OW50254   7.583   4.595   6.810 -0.1054  0.2666  0.5917
48439SOL    HW150255   7.675   4.591   6.836 -0.1181 -1.9511  0.5334
48439SOL    HW250256   7.543   4.518   6.852 -1.5046  0.1235 -0.8731
48440SOL     OW50257   5.818   3.016   5.552 -0.3222  0.6361  0.1503
48440SOL    HW150258   5.863   2.962   5.486  0.3002  0.4934  0.6826
48440SOL    HW250259   5.847   2.980   5.636 -2.6887 -0.5592  0.5629
48441SOL     OW50260   3.476  10.357   6.609 -0.6983 -0.1901 -0.2167
48441SOL    HW150261   3.476  10.377   6.702  2.0282 -0.5501 -0.0795
48441SOL    HW250262   3.561  10.387   6.577 -1.0196 -1.2867 -2.3139
48442SOL     OW50263   1.565   5.461   4.919  0.4948  0.1545 -0.3031
48442SOL    HW150264   1.534   5.486   4.832 -2.1362 -1.0237  0.2192
48442SOL    HW250265   1.497   5.405   4.955  1.8578 -0.0542  2.2449
48443SOL     OW50266  10.655   6.254   5.483  0.2577 -0.0501 -0.0509
48443SOL    HW150267  10.607   6.175   5.458  1.7335 -0.5084 -1.6297
48443SOL    HW250268  10.736   6.250   5.432  1.4330  1.3071  1.5886
48444SOL     OW50269   3.333   3.001   4.559  0.0484  0.0612 -0.7743
48444SOL    HW150270   3.240   2.978   4.554 -0.1154  0.8052 -1.2239
48444SOL    HW250271   3.366   2.986   4.471 -0.0583  1.4813 -1.0810
48445SOL     OW50272  10.300   8.859   2.380 -0.9669  0.7684  0.2296
48445SOL    HW150273  10.240   8.823   2.445  1.2447  0.3232  2.1553
48445SOL    HW250274  10.330   8.942   2.417  0.3604  0.4963 -0.1733
48446SOL     OW50275   3.119  10.484   0.576  0.1343  0.5548 -0.7823
48446SOL    HW150276   3.069  10.403   0.575 -0.3010  0.5156  3.7148
48446SOL    HW250277   3.191  10.467   0.637 -0.8083  3.8054  1.5406
48447SOL     OW50278   1.189   2.578   1.424  0.2785 -0.2146 -0.2634
48447SOL    HW150279   1.159   2.657   1.380  0.0683 -0.5780 -0.7710
48447SOL    HW250280   1.122   2.513   1.405 -2.2339  0.6629  4.1374
48448SOL     OW50281   9.359   3.292   6.315  0.5333  0.0376 -0.4520
48448SOL    HW150282   9.415   3.253   6.382 -0.7209 -0.9078  0.0731
48448SOL    HW250283   9.420   3.337   6.256  1.6675  0.9904  1.3641
48449SOL     OW50284   7.317   1.418   8.030 -0.2280 -0.4107 -0.5827
48449SOL    HW150285   7.296   1.425   8.123 -2.3125  1.6262 -1.1139
48449SOL    HW250286   7.402   1.374   8.028 -1.1473 -2.6004  2.1338
48450SOL     OW50287   3.602   9.964  10.192  0.1835 -0.1440 -0.4495
48450SOL    HW150288   3.597   9.873  10.220  0.3324 -0.6502 -1.9356
48450SOL    HW250289   3.626  10.013  10.271 -2.0666 -1.0657  0.8741
48451SOL     OW50290   2.513   8.620   0.885  1.2985 -0.0231  0.4769
48451SOL    HW150291   2.608   8.611   0.899  1.6933  2.1309 -0.4323
48451SOL    HW250292   2.502   8.711   0.857 -0.7785 -0.8492 -1.6795
48452SOL     OW50293   7.453  10.978  10.891  0.1619  0.0211  0.0636
48452SOL    HW150294   7.394  10.969  10.816 -0.3986 -0.4463  0.5534
48452SOL    HW250295   7.469  11.072  10.898  0.2371  0.0674 -0.6511
48453SOL     OW50296  10.578   3.427  11.278 -0.0713 -0.3829 -0.0633
48453SOL    HW150297  10.547   3.513  11.304  1.2961  1.1928 -3.1021
48453SOL    HW250298  10.511   3.366  11.310 -0.3764  1.5493  3.4125
48454SOL     OW50299  10.854   5.094   9.344 -0.7654  0.2165  0.1135
48454SOL    HW150300  10.831   5.010   9.383 -0.7492  0.6577  1.1080
48454SOL    HW250301  10.871   5.074   9.252  2.4464 -1.5034  0.9310
48455SOL     OW50302   8.142  11.309   1.945 -0.4295  0.2262  0.1977
48455SOL    HW150303   8.217  11.278   1.894 -1.2702 -0.3501 -0.7287
48455SOL    HW250304   8.076  11.333   1.879 -0.6759  1.7756  0.9604
48456SOL     OW50305   9.191   8.413   9.252 -0.7295  0.0247 -0.5053
48456SOL    HW150306   9.173   8.435   9.160 -0.0362 -1.7709 -1.1138
48456SOL    HW250307   9.152   8.326   9.264 -0.0408 -0.1493  0.6446
48457SOL     OW50308   2.305   4.370   9.639  0.1711  0.6355 -0.3824
48457SOL    HW150309   2.221   4.394   9.678 -0.6704 -0.6546 -1.2828
48457SOL    HW250310   2.347   4.315   9.704 -0.3760  0.0459 -0.5131
48458SOL     OW50311   8.459  11.315  10.862  0.4630  0.2014 -0.2929
48458SOL    HW150312   8.389  11.340  10.922  0.7344  0.1519  0.0491
48458SOL    HW250313   8.493  11.399  10.829 -0.6734  0.1981 -1.5428
48459SOL     OW50314  10.579   2.939   8.492 -0.2182  0.0311 -0.0548
48459SOL    HW150315  10.625   3.015   8.527 -0.8597  0.1756  0.4953
48459SOL    HW250316  10.643   2.897   8.434 -0.0496  1.3209 -0.8505
48460SOL     OW50317   4.971   6.450   3.127  0.1930 -0.1194  0.5240
48460SOL    HW150318   4.888   6.402   3.134 -0.5985  1.1225  0.0797
48460SOL    HW250319   5.021   6.423   3.204 -0.7862 -0.5888  1.0200
48461SOL     OW50320   8.730   2.733  10.386  0.4864 -0.1018  0.2385
48461SOL    HW150321   8.685   2.653  10.356  0.5863 -0.5333  1.1987
48461SOL    HW250322   8.804   2.743  10.326  0.8807 -1.1449  0.5186
48462SOL     OW50323   7.617   8.292   8.899 -0.3244 -0.8686  0.1159
48462SOL    HW150324   7.674   8.348   8.952 -0.0619 -0.2870 -0.7670
48462SOL    HW250325   7.667   8.275   8.819 -1.7098  0.3939 -1.0906
48463SOL     OW50326  10.437   7.446   9.628 -0.1601  0.6258 -0.6954
48463SOL    HW150327  10.481   7.368   9.660 -0.1013 -0.0077 -2.2197
48463SOL    HW250328  10.501   7.489   9.572  0.1925  2.3961  0.9664
48464SOL     OW50329   7.196   2.791   3.031  0.5660 -0.3266 -0.1369
48464SOL    HW150330   7.265   2.727   3.045  2.0796  1.3112  0.2232
48464SOL    HW250331   7.122   2.759   3.083  0.0155 -3.5183 -2.5681
48465SOL     OW50332   5.354  10.129   3.099  0.2872  0.0778 -0.5811
48465SOL    HW150333   5.306  10.100   3.177 -0.4398  1.1588 -0.6040
48465SOL    HW250334   5.335  10.223   3.093 -2.0352 -0.4474 -3.6668
48466SOL     OW50335   2.550   3.306  10.914 -0.2046 -0.2305  0.0930
48466SOL    HW150336   2.500   3.283  10.836  0.9260 -3.1280  0.1049
48466SOL    HW250337   2.641   3.286  10.891  0.5962  1.8275  1.1570
48467SOL     OW50338  10.904  10.664   2.870 -0.1111  0.1670 -0.5041
48467SOL    HW150339  10.883  10.572   2.854 -1.3410  0.4517 -0.6040
48467SOL    HW250340  11.000  10.667   2.868 -0.0622 -1.0285 -0.9497
48468SOL     OW50341   0.811   8.374   6.303  0.6718 -0.4699 -0.2857
48468SOL    HW150342   0.887   8.321   6.328  0.9036  0.1867  0.4330
48468SOL    HW250343   0.829   8.402   6.214  0.4706 -1.7296 -0.7383
48469SOL     OW50344   2.676   2.758   9.987  0.0777  0.4782 -0.2361
48469SOL    HW150345   2.726   2.791   9.913  1.2685  2.4485  1.3252
48469SOL    HW250346   2.721   2.794  10.064 -1.6518 -0.6770  1.4057
48470SOL     OW50347   8.758   3.936   5.415  0.7065 -0.0553 -0.0079
48470SOL    HW150348   8.802   3.955   5.498  0.4777  0.2714  0.0392
48470SOL    HW250349   8.720   4.020   5.389 -1.2623 -0.6726  0.7508
48471SOL     OW50350   7.950   5.749   0.975 -0.2046  0.2139  0.6445
48471SOL    HW150351   7.932   5.754   1.069  0.9845  0.7599  0.8648
48471SOL    HW250352   7.886   5.686   0.942 -0.6631  0.0318  1.8124
48472SOL     OW50353  10.803   4.339   6.929  0.3896 -0.5627 -0.2185
48472SOL    HW150354  10.715   4.367   6.904  0.6262 -0.7804 -1.3841
48472SOL    HW250355  10.791   4.252   6.967 -0.4269  1.1691  3.9703
48473SOL     OW50356   0.194   0.273  11.543  0.3082 -0.1770  0.2467
48473SOL    HW150357   0.209   0.358  11.503  0.4281  0.0657  0.7899
48473SOL    HW250358   0.099   0.264  11.548  0.2924 -0.2249 -0.1139
48474SOL     OW50359   9.233   1.830   5.702 -0.3812 -0.1238  0.4587
48474SOL    HW150360   9.207   1.739   5.716 -1.2488  0.0272 -0.0654
48474SOL    HW250361   9.158   1.881   5.733 -0.8678  0.3258 -1.3530
48475SOL     OW50362   2.824   6.982   8.918  0.9608  0.0339  0.6579
48475SOL    HW150363   2.892   6.915   8.927  1.7015  0.7555  0.5109
48475SOL    HW250364   2.835   7.038   8.995  0.3449 -0.0071  0.7791
48476SOL     OW50365   5.081   9.478   2.244 -0.2312  0.2600 -0.4372
48476SOL    HW150366   4.987   9.487   2.230 -0.2494  0.6925 -0.0531
48476SOL    HW250367   5.090   9.396   2.293 -0.4952  0.7042  0.3704
48477SOL     OW50368   6.500   8.806   2.890  0.3939  0.3582 -0.3531
48477SOL    HW150369   6.461   8.719   2.884 -0.4152  0.6858 -0.0254
48477SOL    HW250370   6.578   8.801   2.836  0.3859 -0.5888 -0.2988
48478SOL     OW50371   7.064   3.716   3.550 -0.0491 -0.1440 -0.4902
48478SOL    HW150372   6.979   3.688   3.517  0.1308  0.6372 -1.6694
48478SOL    HW250373   7.084   3.795   3.500  0.6783  0.5418  0.8414
48479SOL     OW50374   1.062   1.424   8.919 -0.3231 -0.2162 -0.2403
48479SOL    HW150375   0.983   1.384   8.954 -0.2640 -1.4093 -1.4192
48479SOL    HW250376   1.069   1.393   8.829  0.9250  0.7078 -0.5084
48480SOL     OW50377   6.164   6.951   7.597  0.0275  0.2272  0.3975
48480SOL    HW150378   6.207   6.887   7.654 -0.1935 -0.0925  0.2124
48480SOL    HW250379   6.080   6.968   7.641 -0.2996 -0.2925 -0.0055
48481SOL     OW50380   8.006   8.887   3.380  0.0004  0.0126  0.3069
48481SOL    HW150381   8.014   8.858   3.471  0.7332  2.4477  1.0906
48481SOL    HW250382   7.930   8.944   3.379  0.1381  0.2005 -0.5599
48482SOL     OW50383   5.762   6.468   5.503 -0.1156 -0.0029 -0.2265
48482SOL    HW150384   5.681   6.462   5.554 -0.3826 -1.0193 -0.7393
48482SOL    HW250385   5.753   6.401   5.435  0.7681  0.4811 -0.8520
48483SOL     OW50386   3.983   3.110   9.231 -0.8850  0.5219  0.2510
48483SOL    HW150387   4.071   3.133   9.202  0.5982 -3.3711  1.0881
48483SOL    HW250388   3.991   3.098   9.326 -2.0130 -0.9547  0.1904
48484SOL     OW50389   3.691   9.372  10.296  0.3553  0.3751  0.2070
48484SOL    HW150390   3.741   9.437  10.346  1.2247  0.4342 -0.6916
48484SOL    HW250391   3.684   9.411  10.208 -0.3102 -0.1410  0.0338
48485SOL     OW50392   2.299   5.737   3.567  0.1360 -0.6719 -0.7827
48485SOL    HW150393   2.387   5.747   3.601 -0.9376  1.1090  1.8250
48485SOL    HW250394   2.294   5.799   3.494  0.8477 -0.2908 -0.5184
48486SOL     OW50395   4.978   7.023   0.664  0.5846  0.1257 -0.8305
48486SOL    HW150396   4.987   7.065   0.578 -0.0552 -2.3916 -2.2175
48486SOL    HW250397   4.885   7.034   0.686  0.5945  0.1398 -0.7957
48487SOL     OW50398   7.836   2.332  10.341  1.1145 -0.4969  0.4751
48487SOL    HW150399   7.897   2.289  10.400  2.4508 -0.9731 -1.1590
48487SOL    HW250400   7.891   2.360  10.267 -0.1974  1.4730  0.1678
48488SOL     OW50401   3.045   3.489   0.442  0.0374 -0.3959 -0.0514
48488SOL    HW150402   3.052   3.490   0.346  1.5100 -0.8344  0.0232
48488SOL    HW250403   3.119   3.542   0.472  0.1256 -1.0027  0.8532
48489SOL     OW50404  11.542  10.167   0.256 -0.2022 -0.4367  0.2798
48489SOL    HW150405  11.609  10.119   0.207 -0.7356 -1.4639  0.5109
48489SOL    HW250406  11.534  10.118   0.338 -1.5339 -0.6091  0.0731
48490SOL     OW50407  11.555   2.300   0.820 -0.2236 -0.1651 -0.0390
48490SOL    HW150408  11.649   2.317   0.809 -0.1959  0.8685  1.4516
48490SOL    HW250409  11.532   2.346   0.901 -2.1738  0.1948 -0.7418
48491SOL     OW50410   2.423   0.051   0.869 -0.3717  0.4464 -0.0941
48491SOL    HW150411   2.496   0.095   0.825  0.8097 -1.6101 -0.3145
48491SOL    HW250412   2.366   0.123   0.897  0.7415  2.0302 -1.6137
48492SOL     OW50413   0.591   8.855   1.894  0.8660  0.0428  0.2596
48492SOL    HW150414   0.504   8.884   1.920 -0.4454 -2.1617 -1.2617
48492SOL    HW250415   0.623   8.804   1.969  0.5592  0.2942  0.5624
48493SOL     OW50416  11.422   2.342   4.685  0.0737 -0.6702  0.3176
48493SOL    HW150417  11.474   2.262   4.681 -0.4775 -1.0327  0.4979
48493SOL    HW250418  11.479   2.408   4.645  0.5521 -1.1321  0.2225
48494SOL     OW50419  10.569   2.347   3.519  0.3747 -0.1751  0.0281
48494SOL    HW150420  10.500   2.281   3.532  1.0728 -1.0715 -0.6922
48494SOL    HW250421  10.639   2.300   3.474  2.1332  0.3032  2.1090
48495SOL     OW50422   7.299   6.204   5.013  0.0738 -0.4836  0.2223
48495SOL    HW150423   7.254   6.284   5.039  0.6725 -0.5015  1.3931
48495SOL    HW250424   7.343   6.227   4.931 -2.2279 -0.5520 -1.1242
48496SOL     OW50425   4.004   3.986   4.741 -0.6714  0.5238  0.3303
48496SOL    HW150426   4.088   4.010   4.781 -0.8240  1.4180  0.1388
48496SOL    HW250427   4.025   3.915   4.681  0.1653  1.4847 -0.5662
48497SOL     OW50428   2.748   8.957   0.622 -0.2369  0.3377 -0.0614
48497SOL    HW150429   2.676   8.898   0.644  0.4450 -0.2847  0.6098
48497SOL    HW250430   2.815   8.938   0.689  0.7942  0.4243 -1.0348
48498SOL     OW50431   0.531   9.237   9.794  0.1291  0.2972  0.2083
48498SOL    HW150432   0.622   9.214   9.772  0.2181  1.0783 -0.2795
48498SOL    HW250433   0.524   9.329   9.772 -1.1102 -0.0197 -0.8271
48499SOL     OW50434  11.433   5.123   8.180  0.1113  0.6196  0.3370
48499SOL    HW150435  11.414   5.036   8.145  1.3935  0.4779 -0.0761
48499SOL    HW250436  11.454   5.108   8.272 -0.9825  0.6832  0.6084
48500SOL     OW50437   6.798   9.243   4.791  0.3211 -0.1048 -0.1551
48500SOL    HW150438   6.875   9.255   4.845  1.7884  1.1296 -2.3457
48500SOL    HW250439   6.832   9.237   4.701 -2.1228  0.9148 -1.2658
48501SOL     OW50440   1.269   8.035  10.108  0.1791 -0.1079  0.0106
48501SOL    HW150441   1.215   8.009  10.034  1.1870 -0.1982 -0.7151
48501SOL    HW250442   1.266   7.960  10.168  1.6535 -1.2396 -1.2602
48502SOL     OW50443   2.708  10.000   0.959 -0.9786  0.7115  0.4835
48502SOL    HW150444   2.690   9.912   0.924 -2.9229  1.7532 -1.3404
48502SOL    HW250445   2.639  10.014   1.024 -0.5926  0.8524  0.8645
48503SOL     OW50446   9.991   3.360   2.852  0.1744  0.3218  0.1182
48503SOL    HW150447   9.986   3.452   2.878 -0.2081  0.0036  1.2335
48503SOL    HW250448  10.077   3.350   2.812  0.5397  0.9753  0.7406
48504SOL     OW50449   6.497   9.947   2.902  0.3565 -0.1923 -0.1441
48504SOL    HW150450   6.499   9.996   2.820 -1.1051  0.5778  0.2361
48504SOL    HW250451   6.439   9.998   2.959 -0.5570 -1.9092  0.5603
48505SOL     OW50452   7.626   6.642   1.726 -0.4659  0.3912  0.2011
48505SOL    HW150453   7.661   6.684   1.647 -1.5991 -0.4783 -0.7971
48505SOL    HW250454   7.620   6.713   1.790  2.2559  0.7533  0.1668
48506SOL     OW50455   4.317   2.630   8.794 -0.3679 -0.6044 -0.0261
48506SOL    HW150456   4.291   2.717   8.765 -1.9169 -0.5305  1.3982
48506SOL    HW250457   4.411   2.625   8.777 -0.7169  0.3480 -2.5152
48507SOL     OW50458   0.153   7.123   4.782 -0.1942 -0.1757  0.2285
48507SOL    HW150459   0.142   7.184   4.855 -0.7453  0.7629 -0.6101
48507SOL    HW250460   0.205   7.051   4.818 -1.7033 -0.4811  1.9628
48508SOL     OW50461   0.464   1.558   2.097 -0.4426 -0.6900 -0.0383
48508SOL    HW150462   0.497   1.516   2.177  1.7750  1.4147  0.2881
48508SOL    HW250463   0.377   1.589   2.120 -0.0448 -0.5768  1.4113
48509SOL     OW50464   6.180   1.055  11.582 -0.5274 -0.2819 -0.3384
48509SOL    HW150465   6.111   0.997  11.550  1.1879 -2.2652 -0.6161
48509SOL    HW250466   6.134   1.137  11.603 -3.0146 -1.6552 -0.0329
48510SOL     OW50467   7.468  10.243   5.525  0.0481  0.4421 -0.7085
48510SOL    HW150468   7.557  10.212   5.540 -0.2206 -1.1854 -2.1117
48510SOL    HW250469   7.479  10.320   5.468  0.5694  0.3342 -0.7574
48511SOL     OW50470   4.795   2.534   1.364  0.5293  0.2140 -0.1572
48511SOL    HW150471   4.854   2.459   1.351  0.1968 -0.3798  1.5083
48511SOL    HW250472   4.741   2.509   1.439 -1.2347  1.1269 -1.0625
48512SOL     OW50473  11.089   3.581   4.539  0.3947 -0.2351 -0.0374
48512SOL    HW150474  11.144   3.505   4.522  1.7427  0.5553  0.6322
48512SOL    HW250475  11.036   3.591   4.459  2.9042  0.3657 -1.7361
48513SOL     OW50476   5.810   4.047   4.091 -0.0146  0.5733  0.0935
48513SOL    HW150477   5.720   4.018   4.078 -0.2583  1.8058 -1.1746
48513SOL    HW250478   5.854   3.972   4.131 -1.4764 -0.2090  0.2974
48514SOL     OW50479   2.924   1.091   4.060  0.1864 -0.2347  0.6682
48514SOL    HW150480   2.843   1.124   4.021 -0.3823 -1.6225  0.6174
48514SOL    HW250481   2.988   1.160   4.044 -0.8347  0.6277  0.1687
48515SOL     OW50482   7.383   5.615   1.437 -0.0557  0.1723  0.1646
48515SOL    HW150483   7.372   5.521   1.422 -0.0189  0.2078 -0.0898
48515SOL    HW250484   7.295   5.651   1.422  0.4526  0.5347 -2.4376
48516SOL     OW50485  10.200   0.850   9.986  0.4497  0.1358 -0.3369
48516SOL    HW150486  10.133   0.837  10.053  0.4912 -0.9770 -0.4828
48516SOL    HW250487  10.217   0.762   9.952  1.1884  0.5452 -1.0745
48517SOL     OW50488   6.714   9.591   3.765 -0.7749 -0.4675  0.0916
48517SOL    HW150489   6.719   9.499   3.739 -0.5672 -0.4807  0.1696
48517SOL    HW250490   6.658   9.632   3.700 -2.1392 -0.9563  0.9241
48518SOL     OW50491  10.326   2.239   2.183  0.2529 -0.2507  0.4293
48518SOL    HW150492  10.313   2.327   2.220 -0.9311 -0.5020  0.6329
48518SOL    HW250493  10.321   2.252   2.088  1.6448  0.1330  0.3878
48519SOL     OW50494   8.943   0.683   0.066  0.0519  0.9395  0.3073
48519SOL    HW150495   8.869   0.664   0.008 -0.8570  0.2731  1.6147
48519SOL    HW250496   8.903   0.721   0.144  0.8264 -1.2131  1.8519
48520SOL     OW50497   2.811   5.271   3.180 -0.3480  0.1673 -0.3002
48520SOL    HW150498   2.853   5.308   3.102 -0.3335 -0.6884 -0.7097
48520SOL    HW250499   2.738   5.331   3.199  1.6492  2.3110  1.0909
48521SOL     OW50500   6.638   3.051   0.801  0.3879  0.0610  0.4618
48521SOL    HW150501   6.667   3.113   0.734  2.0632 -1.8572 -0.7363
48521SOL    HW250502   6.719   3.013   0.835 -0.5164 -0.2843  2.3654
48522SOL     OW50503   4.268   8.129   0.205  0.5695  0.0759  0.2050
48522SOL    HW150504   4.278   8.217   0.169 -0.2005 -0.5049 -1.5163
48522SOL    HW250505   4.279   8.140   0.300  0.7009  1.9789 -0.0072
48523SOL     OW50506   9.672  11.411   9.543 -0.6409  0.0513 -0.0658
48523SOL    HW150507   9.598  11.471   9.555 -0.3827  0.6285 -1.2540
48523SOL    HW250508   9.698  11.388   9.632 -0.8944  1.5156  0.4156
48524SOL     OW50509   3.854   3.190   9.649 -0.0145 -0.2520 -0.6350
48524SOL    HW150510   3.898   3.213   9.730  0.7814 -1.6218 -0.6541
48524SOL    HW250511   3.848   3.272   9.600  1.0457  0.2541  0.0683
48525SOL     OW50512  10.247   8.770   3.383 -0.5562  0.3414  0.4555
48525SOL    HW150513  10.311   8.723   3.437 -0.1870 -0.2535 -0.4907
48525SOL    HW250514  10.287   8.855   3.367 -0.3516  0.2571  0.5157
48526SOL     OW50515   9.969   8.744   5.777  0.0400 -0.3672 -0.2310
48526SOL    HW150516  10.018   8.664   5.760 -0.2211 -0.5943  0.0855
48526SOL    HW250517   9.916   8.725   5.854 -0.3785 -0.0499 -0.4303
48527SOL     OW50518   7.289   7.733   5.540  0.5015  0.4220  0.4240
48527SOL    HW150519   7.319   7.811   5.493 -0.8844 -0.2429 -1.6794
48527SOL    HW250520   7.327   7.659   5.491 -1.4231 -0.3045 -0.0530
48528SOL     OW50521   3.811   8.234   4.677 -0.5844 -0.4762  0.9842
48528SOL    HW150522   3.861   8.252   4.756 -0.6654  0.0244  0.9258
48528SOL    HW250523   3.876   8.203   4.614 -0.2429  0.6359  0.7535
48529SOL     OW50524  10.166   1.695  11.147  0.5030  0.0738  0.0659
48529SOL    HW150525  10.232   1.764  11.153  0.7010 -0.1900  1.2256
48529SOL    HW250526  10.171   1.650  11.232 -0.1857 -0.8461 -0.3650
48530SOL     OW50527   5.466   6.337  11.354  0.0390  0.1260  0.4158
48530SOL    HW150528   5.507   6.423  11.365 -1.3527  0.6071  2.1817
48530SOL    HW250529   5.539   6.276  11.355  0.8823  1.1001  1.6560
48531SOL     OW50530   7.047  10.747   7.728  0.0600 -0.0883 -0.2460
48531SOL    HW150531   7.012  10.758   7.817 -0.0549 -0.4774 -0.2437
48531SOL    HW250532   7.135  10.785   7.732 -0.3062  0.7740 -0.2178
48532SOL     OW50533  10.624   3.140   5.495 -0.3351  0.0182  0.4256
48532SOL    HW150534  10.695   3.203   5.483 -0.3289  0.4333  2.3362
48532SOL    HW250535  10.569   3.150   5.418  1.3147  0.1470 -0.7929
48533SOL     OW50536   2.447  11.106   6.206 -0.2516 -0.0062 -0.0251
48533SOL    HW150537   2.507  11.180   6.215 -0.2023 -0.0656  0.1298
48533SOL    HW250538   2.482  11.055   6.132  0.8642 -0.9614  1.1132
48534SOL     OW50539  10.145   2.281  10.248  0.6056 -0.2166  0.3987
48534SOL    HW150540  10.182   2.194  10.257 -1.3704 -0.9180  3.6289
48534SOL    HW250541  10.181   2.330  10.322 -0.9732  0.5534  0.7118
48535SOL     OW50542   6.177   1.840  10.386 -0.0430  0.3009  0.2967
48535SOL    HW150543   6.103   1.845  10.326  0.1505 -0.4395 -0.0053
48535SOL    HW250544   6.207   1.931  10.393  0.5120  0.2892 -1.4534
48536SOL     OW50545  11.008   8.100   5.831  0.1679 -0.8495  0.1663
48536SOL    HW150546  11.101   8.110   5.850  0.6698 -2.9487 -0.9740
48536SOL    HW250547  10.974   8.050   5.905  0.3765 -1.8128 -0.3825
48537SOL     OW50548   5.719   1.899  11.334 -0.0788 -0.5531 -0.5050
48537SOL    HW150549   5.633   1.919  11.372 -0.1560 -1.6652 -0.0689
48537SOL    HW250550   5.769   1.980  11.346 -0.9077 -0.0457 -0.3385
48538SOL     OW50551  10.108   2.957   0.801 -0.5222 -0.4127 -0.1529
48538SOL    HW150552  10.108   2.869   0.764  1.5825 -0.7031  0.3996
48538SOL    HW250553  10.121   2.943   0.895 -1.5609  0.4727  0.1497
48539SOL     OW50554   2.668   1.815  11.182  0.0982 -0.2042  0.4645
48539SOL    HW150555   2.693   1.843  11.270  0.5709 -0.1589  0.3136
48539SOL    HW250556   2.750   1.794  11.138  0.0983  1.9335 -0.7249
48540SOL     OW50557   3.065   6.340   7.014 -0.3604 -0.4412 -0.0591
48540SOL    HW150558   3.104   6.419   6.977 -0.6803  0.4412  1.4246
48540SOL    HW250559   3.129   6.271   6.995  1.2790  0.7016  1.0260
48541SOL     OW50560   2.473   9.570   0.703  0.1005 -0.2357 -0.2271
48541SOL    HW150561   2.552   9.516   0.712 -0.8625 -1.5895  0.4577
48541SOL    HW250562   2.403   9.515   0.737 -1.0678  1.1507 -0.3191
48542SOL     OW50563   8.647   2.066   2.122 -0.1350  0.1353  0.6373
48542SOL    HW150564   8.600   2.143   2.153 -0.1061 -0.6337  2.7035
48542SOL    HW250565   8.589   2.027   2.056 -1.9522 -0.1919  2.3437
48543SOL     OW50566   6.174   1.205   1.196 -0.5025 -0.1042  0.0687
48543SOL    HW150567   6.239   1.203   1.266 -0.8253 -0.8117  0.3600
48543SOL    HW250568   6.124   1.285   1.212  0.5477  0.6704 -0.4042
48544SOL     OW50569   5.428   4.374   1.667  0.3396  0.2797  0.5108
48544SOL    HW150570   5.448   4.317   1.593  0.6227  0.6850  0.2746
48544SOL    HW250571   5.452   4.323   1.744 -0.5308 -0.3887  0.3613
48545SOL     OW50572   4.300   9.548   2.039 -0.0530  0.1884 -0.1058
48545SOL    HW150573   4.291   9.605   2.115  2.1068  1.1204 -0.4693
48545SOL    HW250574   4.347   9.472   2.072 -0.1828  0.0322 -0.2779
48546SOL     OW50575   3.994   4.260  10.895 -0.3730 -0.0470 -0.1523
48546SOL    HW150576   3.984   4.330  10.831 -1.0382 -0.1883 -0.2082
48546SOL    HW250577   4.057   4.294  10.958 -2.1518  1.4304  0.9393
48547SOL     OW50578   0.850   8.604   3.246 -0.3843  0.0962 -0.0398
48547SOL    HW150579   0.941   8.573   3.247 -0.9322 -1.8962 -1.7576
48547SOL    HW250580   0.848   8.669   3.176 -0.3133 -0.0318 -0.1624
48548SOL     OW50581   9.093  11.533  10.964  0.3838 -0.2235  0.7322
48548SOL    HW150582   9.009  11.525  11.010 -0.5965  0.9819 -0.7676
48548SOL    HW250583   9.141  11.454  10.990 -0.7642 -0.4103  2.4864
48549SOL     OW50584   6.377   8.759   2.334  0.1132  0.1225 -0.4342
48549SOL    HW150585   6.335   8.836   2.294  2.6069  1.8673  0.0214
48549SOL    HW250586   6.306   8.695   2.344 -2.0718  2.2989 -0.9422
48550SOL     OW50587   6.000   0.321   5.072 -0.4446 -0.0610 -0.4247
48550SOL    HW150588   5.933   0.259   5.044  0.1266 -1.1132  0.4463
48550SOL    HW250589   6.064   0.321   5.001 -1.2420  0.8235 -1.1847
48551SOL     OW50590   3.285   7.899   5.112  0.1920 -0.4985 -0.1431
48551SOL    HW150591   3.263   7.870   5.023  0.0978 -0.4376 -0.1386
48551SOL    HW250592   3.273   7.994   5.111 -1.5473 -0.6805  0.4345
48552SOL     OW50593   9.105   7.344   6.969  0.1810 -0.3232 -0.1758
48552SOL    HW150594   9.177   7.337   7.031  0.9583  1.8042 -0.7347
48552SOL    HW250595   9.054   7.419   7.001 -0.5251 -0.4256 -1.0211
48553SOL     OW50596   5.302   8.379   6.945  0.4874  0.0034 -0.4608
48553SOL    HW150597   5.321   8.454   7.001  1.9202 -0.2705 -0.5475
48553SOL    HW250598   5.245   8.323   6.999  1.5415 -0.0767  0.5915
48554SOL     OW50599  10.709   4.128   4.480 -0.9041 -0.1880 -0.2099
48554SOL    HW150600  10.710   4.222   4.499 -1.6849 -0.3929  0.9559
48554SOL    HW250601  10.785   4.093   4.527 -1.0813 -0.2548  0.0288
48555SOL     OW50602   6.518   4.576   1.215 -0.2134 -0.0607 -1.1327
48555SOL    HW150603   6.429   4.559   1.185 -0.8109  0.7884  0.0731
48555SOL    HW250604   6.565   4.495   1.198 -1.8952 -1.4975  0.6518
48556SOL     OW50605   4.217   1.612  10.629  0.4897 -0.0842 -0.3770
48556SOL    HW150606   4.221   1.611  10.533 -2.2772 -0.1890 -0.5823
48556SOL    HW250607   4.159   1.539  10.651  2.3804 -1.0971  1.5326
48557SOL     OW50608   3.091   7.966   1.501  0.4606 -0.1123 -0.0556
48557SOL    HW150609   3.092   7.872   1.518  1.5617  0.0716  1.1187
48557SOL    HW250610   3.151   7.978   1.428 -0.6163 -0.4210 -1.0246
48558SOL     OW50611   2.957  11.080   8.689  0.2459 -0.0557 -0.1662
48558SOL    HW150612   2.905  11.033   8.624 -0.1768  0.1912 -0.0095
48558SOL    HW250613   2.914  11.165   8.697 -0.1656 -0.3571  1.0026
48559SOL     OW50614   0.848   7.659   0.989  0.0708 -0.5023  0.2930
48559SOL    HW150615   0.876   7.750   0.998  0.2135 -0.4824 -0.3362
48559SOL    HW250616   0.753   7.664   0.977  0.2948 -0.2789 -1.7928
48560SOL     OW50617  10.861   0.052   8.948 -0.2412  0.3943  0.9433
48560SOL    HW150618  10.913  -0.002   8.887  0.8153  0.3899  1.8294
48560SOL    HW250619  10.900   0.139   8.943  0.0801  0.3128  1.8658
48561SOL     OW50620   5.390   7.934   9.098  0.3864 -0.3179  0.2925
48561SOL    HW150621   5.463   7.909   9.042  1.1889  0.7853  0.7930
48561SOL    HW250622   5.314   7.888   9.062  1.0124 -0.1958 -1.2573
48562SOL     OW50623   0.368   4.416   4.484 -0.0103  0.0738 -0.0763
48562SOL    HW150624   0.347   4.400   4.392 -0.0538 -0.2432 -0.0115
48562SOL    HW250625   0.459   4.387   4.492  0.7949  2.2171 -0.5616
48563SOL     OW50626   3.005   1.394   9.707  0.1233  0.2018  0.3502
48563SOL    HW150627   3.034   1.381   9.617 -0.5141 -1.3934  0.3467
48563SOL    HW250628   3.030   1.484   9.728  0.5166  0.5033 -1.3216
48564SOL     OW50629   7.147   2.580   7.500 -0.4094  0.0264  0.0345
48564SOL    HW150630   7.088   2.552   7.430 -2.2799  1.1407  1.0815
48564SOL    HW250631   7.089   2.613   7.569  1.2843 -1.9147  2.5791
48565SOL     OW50632   6.005   7.695   8.172 -0.3854  0.4436 -0.0429
48565SOL    HW150633   5.933   7.758   8.165 -2.4083 -1.8060 -0.9900
48565SOL    HW250634   5.972   7.629   8.233  0.7771 -0.7849 -0.7110
48566SOL     OW50635   4.666  10.159   4.967 -0.2426 -0.1434 -0.3776
48566SOL    HW150636   4.639  10.173   4.877  0.1886  0.3743 -0.4258
48566SOL    HW250637   4.586  10.132   5.012 -0.6344  0.4229 -0.7302
48567SOL     OW50638   2.007  10.209   3.370  0.1574 -0.0401  0.6442
48567SOL    HW150639   2.031  10.117   3.356  1.2237  0.2824  0.2462
48567SOL    HW250640   2.030  10.226   3.462  1.4421  0.2319  0.3015
48568SOL     OW50641   1.940   2.310   4.391 -0.0636 -0.0087  0.1921
48568SOL    HW150642   1.909   2.220   4.391 -0.4274  0.0556 -2.1670
48568SOL    HW250643   1.862   2.363   4.374 -0.1440  0.9589  3.0442
48569SOL     OW50644   8.684   6.847   0.799  0.2510 -0.6239 -0.2692
48569SOL    HW150645   8.640   6.770   0.836  0.4457 -0.5189  0.1931
48569SOL    HW250646   8.621   6.883   0.737  0.1046 -1.0781 -0.3903
48570SOL     OW50647   8.951   5.641   4.757  0.5596  0.1407 -0.1773
48570SOL    HW150648   9.002   5.572   4.799 -0.3624  0.6935  1.9726
48570SOL    HW250649   8.878   5.595   4.715  0.7179 -0.3139  0.0434
48571SOL     OW50650   1.046   7.425   0.275  0.4644  0.2074  0.0977
48571SOL    HW150651   1.045   7.383   0.361 -1.5632  1.2302  0.6144
48571SOL    HW250652   0.960   7.464   0.266  0.8770  0.7240 -2.1304
48572SOL     OW50653   0.562   2.004   9.916  0.1981 -0.8740  0.4153
48572SOL    HW150654   0.582   2.030   9.826  0.1318 -1.2709  0.2864
48572SOL    HW250655   0.639   2.029   9.966  0.5967 -1.4606  0.0974
48573SOL     OW50656   1.720   4.575   8.159  0.1221 -0.2838  0.4694
48573SOL    HW150657   1.811   4.545   8.159  1.6833  3.7748  1.1688
48573SOL    HW250658   1.701   4.594   8.251 -0.7385  0.6797  0.1155
48574SOL     OW50659  10.878   4.836   0.876 -0.1231  0.1368 -0.1836
48574SOL    HW150660  10.896   4.771   0.809 -0.0034  2.0113 -2.0831
48574SOL    HW250661  10.961   4.847   0.922 -0.3202 -1.4815  0.6038
48575SOL     OW50662   1.541   7.678   4.098  0.1409 -0.7566  0.5499
48575SOL    HW150663   1.463   7.681   4.044  0.0380  0.6793  0.7283
48575SOL    HW250664   1.612   7.652   4.039 -0.1482 -0.2034 -0.0464
48576SOL     OW50665   2.388   8.589   3.572 -0.2049 -0.3875  0.3828
48576SOL    HW150666   2.373   8.528   3.500  3.2616 -1.2223  0.1840
48576SOL    HW250667   2.343   8.549   3.647 -1.5287 -0.9411 -0.6647
48577SOL     OW50668   6.780   3.140   5.906 -0.5057  0.1233 -0.7484
48577SOL    HW150669   6.852   3.163   5.964  1.0948  1.5254 -3.1065
48577SOL    HW250670   6.762   3.048   5.924  1.6049 -0.1580  0.2001
48578SOL     OW50671   9.703  10.393  11.534  0.1802 -0.4715  0.3274
48578SOL    HW150672   9.742  10.334  11.470  0.7745  1.8018 -1.5869
48578SOL    HW250673   9.745  10.371  11.617  2.6742 -0.7236 -0.9078
48579SOL     OW50674   5.175  10.705   2.581 -0.1320  0.3369  0.3227
48579SOL    HW150675   5.145  10.717   2.491 -0.9365  0.2465  0.5667
48579SOL    HW250676   5.236  10.632   2.577 -0.6624 -0.0877 -0.0472
48580SOL     OW50677   0.673  10.417  10.562 -0.3736  0.2970  0.5652
48580SOL    HW150678   0.725  10.474  10.619 -1.3794  0.5089  1.2874
48580SOL    HW250679   0.735  10.387  10.495  0.6408  0.6554  1.3260
48581SOL     OW50680   3.726   8.863   3.914 -0.0511  0.1339  0.0608
48581SOL    HW150681   3.686   8.943   3.881 -0.0503  1.4667  2.9188
48581SOL    HW250682   3.678   8.792   3.872 -2.5481  1.6601  0.1619
48582SOL     OW50683   1.930   9.238   6.547  0.1851 -0.0777 -0.1175
48582SOL    HW150684   1.859   9.173   6.545  0.6121 -0.5446 -0.7238
48582SOL    HW250685   1.887   9.321   6.528 -0.0684 -0.5091 -1.5344
48583SOL     OW50686   5.555   4.832   4.884 -0.7887 -0.9333  0.4111
48583SOL    HW150687   5.622   4.881   4.931 -1.2537 -1.5991  1.8239
48583SOL    HW250688   5.482   4.826   4.946 -1.6675 -1.2946 -0.6344
48584SOL     OW50689   2.381   0.992   3.452 -0.5707  0.3062 -0.1762
48584SOL    HW150690   2.377   1.087   3.446  1.0937  0.3773 -0.6118
48584SOL    HW250691   2.437   0.975   3.527  2.7132 -0.1958 -2.5174
48585SOL     OW50692   7.922   7.782   6.034  0.2411  0.4066  0.4002
48585SOL    HW150693   7.843   7.775   6.087 -0.5995  2.7000 -0.4330
48585SOL    HW250694   7.895   7.830   5.956  2.1892  0.1140 -0.5189
48586SOL     OW50695   3.271   4.150   4.733  0.1492  0.3603 -0.1604
48586SOL    HW150696   3.248   4.233   4.690 -3.0337 -1.1673 -1.6943
48586SOL    HW250697   3.324   4.104   4.668  0.0960  0.3198 -0.1750
48587SOL     OW50698   6.444   8.724   8.993 -0.3691 -0.5005 -0.2114
48587SOL    HW150699   6.437   8.687   8.905 -1.3381 -0.3444 -0.2103
48587SOL    HW250700   6.378   8.794   8.995  0.6355  0.4776  0.1618
48588SOL     OW50701   5.003   1.632   9.192  0.2512 -0.5071 -0.9977
48588SOL    HW150702   5.017   1.538   9.203 -0.8182 -0.4798  1.1881
48588SOL    HW250703   4.959   1.640   9.107  2.0591 -1.7430 -2.1052
48589SOL     OW50704   8.765  11.294   3.699  0.2480 -0.3242  0.1709
48589SOL    HW150705   8.824  11.297   3.775  1.5674 -0.7017 -0.8128
48589SOL    HW250706   8.772  11.381   3.660 -1.8434  0.5023  1.4732
48590SOL     OW50707   2.651   8.130   9.590  0.3076 -0.7747 -0.5621
48590SOL    HW150708   2.564   8.129   9.630 -0.0458  0.0719 -1.2959
48590SOL    HW250709   2.708   8.089   9.656 -0.3423  0.1504  0.6160
48591SOL     OW50710  10.166   2.352   0.409 -0.5202  0.2938 -0.4916
48591SOL    HW150711  10.257   2.321   0.398  0.1516  1.5963  0.9783
48591SOL    HW250712  10.167   2.441   0.374 -0.9714  0.6583  0.3994
48592SOL     OW50713   6.108   6.015   2.465  0.1904  0.3001  0.5000
48592SOL    HW150714   6.048   6.083   2.433 -0.7193 -0.4756  0.5098
48592SOL    HW250715   6.109   6.028   2.560 -0.2924  0.0530  0.5406
48593SOL     OW50716   3.504   1.237   0.853  0.1061 -0.3815  0.0198
48593SOL    HW150717   3.432   1.230   0.916 -0.9266 -0.1427 -1.0835
48593SOL    HW250718   3.468   1.292   0.783  1.7801  0.7423 -0.0015
48594SOL     OW50719   9.988   3.848   6.741  0.1379 -0.1591  0.1978
48594SOL    HW150720  10.053   3.883   6.680  0.8038 -0.5185  0.6888
48594SOL    HW250721  10.002   3.897   6.822  0.3810 -0.8370  0.5732
48595SOL     OW50722   4.473   2.751   0.367  0.2763  0.1164 -0.4350
48595SOL    HW150723   4.517   2.762   0.283  0.7966 -0.3294 -0.2233
48595SOL    HW250724   4.379   2.755   0.346  0.4055  0.0476 -1.0243
48596SOL     OW50725   1.095   8.003   4.786  0.3744  0.1426 -0.2120
48596SOL    HW150726   1.020   7.954   4.818  1.4322 -0.4743  1.4604
48596SOL    HW250727   1.071   8.029   4.697 -1.9452  0.3102  0.4143
48597SOL     OW50728   2.271   3.274   5.050 -0.1089 -0.1731 -0.3285
48597SOL    HW150729   2.347   3.325   5.024  0.8716 -1.4326 -0.0461
48597SOL    HW250730   2.303   3.216   5.120 -1.6510  0.1782  0.7226
48598SOL     OW50731   4.203   4.524   9.745 -0.1036  0.0879  0.1164
48598SOL    HW150732   4.271   4.523   9.812  0.7261  1.6592 -0.6361
48598SOL    HW250733   4.222   4.603   9.693 -1.4397 -0.4129 -1.2091
48599SOL     OW50734   3.681   9.577   3.384  0.2237  0.6897 -0.0996
48599SOL    HW150735   3.614   9.515   3.355  1.3786  0.3131 -2.1521
48599SOL    HW250736   3.635   9.660   3.393 -1.1839 -0.2055  1.9213
48600SOL     OW50737   6.661  10.698   4.444 -0.3617 -0.2491  0.3741
48600SOL    HW150738   6.747  10.741   4.450 -1.0159  1.1231  0.1080
48600SOL    HW250739   6.613  10.748   4.379  0.1395 -3.7026 -3.0273
48601SOL     OW50740   2.045   8.225   0.106  0.1080 -0.3426 -0.1189
48601SOL    HW150741   2.006   8.144   0.139  0.5250 -0.5734 -0.1829
48601SOL    HW250742   2.137   8.220   0.134  0.3522 -0.3190 -0.9000
48602SOL     OW50743   2.511   9.704  10.989 -0.5506 -0.6687 -0.3736
48602SOL    HW150744   2.604   9.726  10.991 -1.1823  2.4676  0.3240
48602SOL    HW250745   2.493   9.663  11.073  0.3075 -1.9978 -0.8163
48603SOL     OW50746   1.362   8.493   7.481 -0.1697  0.6225  0.2761
48603SOL    HW150747   1.354   8.425   7.414 -0.1294  1.7417 -0.8872
48603SOL    HW250748   1.406   8.449   7.554 -1.4611 -0.9953  0.1295
48604SOL     OW50749  11.327   2.830   7.674 -0.2260  0.2787 -0.1223
48604SOL    HW150750  11.250   2.859   7.626 -1.0972 -0.0845  1.0117
48604SOL    HW250751  11.312   2.737   7.691  1.5651 -0.4152 -1.8956
48605SOL     OW50752   3.082   4.448   1.754  0.6626  0.2438 -0.1324
48605SOL    HW150753   3.150   4.421   1.692  2.1834  2.2853  0.5319
48605SOL    HW250754   3.123   4.516   1.807 -1.7712  1.2648  0.6172
48606SOL     OW50755   7.312   7.476   9.583 -0.0167  0.2146 -0.9728
48606SOL    HW150756   7.345   7.397   9.624 -0.0871 -0.5191 -2.2533
48606SOL    HW250757   7.389   7.520   9.548 -0.2063 -1.8825 -4.6328
48607SOL     OW50758   9.475   9.910   5.646 -0.2192  0.6437  0.2835
48607SOL    HW150759   9.502   9.886   5.557 -0.8489  1.7879 -0.2464
48607SOL    HW250760   9.404   9.973   5.633 -0.3512  0.7927  1.6011
48608SOL     OW50761   8.609   9.899   0.850 -0.2783 -0.2354 -0.1266
48608SOL    HW150762   8.648   9.811   0.852 -0.2847 -0.2403  1.7485
48608SOL    HW250763   8.678   9.956   0.886  0.0595  0.7230 -2.1200
48609SOL     OW50764   0.389   3.814   9.561  0.4556  0.0276  0.2089
48609SOL    HW150765   0.451   3.885   9.545 -0.4130  0.4760 -1.4048
48609SOL    HW250766   0.368   3.779   9.474  0.2035 -1.6542  0.8978
48610SOL     OW50767   9.912   0.061  11.023 -0.1963 -0.3864  0.1786
48610SOL    HW150768  10.004   0.037  11.024 -0.6046 -2.1122  0.4084
48610SOL    HW250769   9.908   0.139  10.967  1.2257 -1.0975 -0.9949
48611SOL     OW50770  11.415   5.808   8.763  0.1386 -0.5623 -0.2141
48611SOL    HW150771  11.324   5.792   8.739  0.5992 -2.1904 -1.0265
48611SOL    HW250772  11.454   5.721   8.770  1.7144  0.1064 -0.1801
48612SOL     OW50773   4.462   9.696  11.048  0.0307 -0.5676 -0.4451
48612SOL    HW150774   4.442   9.635  11.119 -1.3297  1.9248  1.4555
48612SOL    HW250775   4.552   9.674  11.023  0.9848 -0.9543  2.7979
48613SOL     OW50776   2.202  10.993   6.908 -0.3873 -0.0396  0.0872
48613SOL    HW150777   2.113  10.995   6.942 -1.0633 -0.2813 -1.6001
48613SOL    HW250778   2.253  10.947   6.975 -2.0901 -2.4684 -0.1786
48614SOL     OW50779   2.709   7.556   8.317  0.1177  0.2045 -0.1865
48614SOL    HW150780   2.675   7.489   8.376 -0.0230  0.6871  0.2957
48614SOL    HW250781   2.748   7.622   8.375  1.9777 -0.3548 -0.7167
48615SOL     OW50782   5.589   3.832   7.624 -0.0254  0.1707  0.5271
48615SOL    HW150783   5.646   3.833   7.546  0.7146 -0.8413  1.0233
48615SOL    HW250784   5.614   3.910   7.673 -0.4242  0.7613 -0.1894
48616SOL     OW50785   1.959   3.700   8.756  0.5583  0.4041 -0.1674
48616SOL    HW150786   1.987   3.621   8.709 -0.4120 -1.0367  1.5641
48616SOL    HW250787   1.867   3.684   8.778  0.5366  1.7185  0.8262
48617SOL     OW50788   6.479   9.706   2.015  0.1977  0.1186  0.1855
48617SOL    HW150789   6.412   9.706   1.946 -1.1654 -0.3575  1.4758
48617SOL    HW250790   6.556   9.743   1.972 -1.3677  2.3651 -0.8667
48618SOL     OW50791   3.305  10.381   3.019 -0.2888 -0.6907  0.4837
48618SOL    HW150792   3.366  10.447   2.985  0.8801 -0.3254  3.0111
48618SOL    HW250793   3.218  10.418   3.002  0.2758  0.2327 -0.5236
48619SOL     OW50794  10.705   1.058   1.772 -0.7293 -0.6243 -0.5183
48619SOL    HW150795  10.656   1.140   1.765  0.0285 -0.3125 -3.7763
48619SOL    HW250796  10.693   1.016   1.687  2.1854 -1.9660 -0.3642
48620SOL     OW50797   2.126   0.154   7.554  0.3580 -0.0031  0.2306
48620SOL    HW150798   2.111   0.180   7.645  2.6070 -0.4596  0.7909
48620SOL    HW250799   2.043   0.114   7.526 -0.7955  1.2997  1.6372
48621SOL     OW50800   2.491   2.003   4.813 -0.4766  0.0096 -0.5964
48621SOL    HW150801   2.533   2.002   4.727 -0.7855 -0.2199 -0.7491
48621SOL    HW250802   2.413   1.947   4.802 -0.4224 -0.1643 -0.1215
48622SOL     OW50803   8.582   9.798   7.707  0.5349 -0.0657 -0.2715
48622SOL    HW150804   8.594   9.720   7.654  5.2968  1.1313 -1.4536
48622SOL    HW250805   8.594   9.768   7.797  0.0812 -0.9599 -0.4969
48623SOL     OW50806   0.456   8.764   4.863  0.1358  0.3982  0.5880
48623SOL    HW150807   0.368   8.799   4.874  0.0274 -0.2218  1.9218
48623SOL    HW250808   0.443   8.672   4.840  0.4383  0.5448 -0.2060
48624SOL     OW50809   9.408   5.763   0.321  0.4439 -0.4494 -0.0579
48624SOL    HW150810   9.411   5.849   0.363 -0.1243 -0.7407  0.6138
48624SOL    HW250811   9.391   5.781   0.229  0.3634  0.1613  0.0760
48625SOL     OW50812   9.590   9.106   0.650  0.2417 -0.1710 -0.0313
48625SOL    HW150813   9.559   9.127   0.562 -0.4480  0.5831  0.3796
48625SOL    HW250814   9.532   9.036   0.680 -0.5688  0.6563  0.4090
48626SOL     OW50815   6.573   6.079   5.411 -0.2344 -0.5765 -0.0833
48626SOL    HW150816   6.587   6.012   5.479 -0.9826 -2.2654 -1.5193
48626SOL    HW250817   6.565   6.029   5.330 -0.3181  1.3273 -1.2979
48627SOL     OW50818   9.843   1.790   9.925 -0.0326  0.1454 -0.6670
48627SOL    HW150819   9.787   1.764   9.852  0.0894  0.3211 -0.8224
48627SOL    HW250820   9.824   1.725   9.993 -0.6176  0.3587 -0.6188
48628SOL     OW50821  11.463  10.208   7.277 -0.2188 -0.1902  0.1183
48628SOL    HW150822  11.479  10.127   7.326  0.8352 -1.0878 -1.5836
48628SOL    HW250823  11.550  10.235   7.247 -0.8217  0.2745 -1.2845
48629SOL     OW50824   0.418   2.555   9.734  0.8097  0.8133  0.0838
48629SOL    HW150825   0.391   2.637   9.775 -1.4378 -0.1043  0.6452
48629SOL    HW250826   0.477   2.514   9.797 -2.2476 -0.3747  2.4345
48630SOL     OW50827   9.897   0.245   0.405  0.0678 -0.1351  0.3434
48630SOL    HW150828   9.920   0.335   0.381  1.7033 -0.6150  0.0140
48630SOL    HW250829   9.871   0.251   0.497  0.2006  0.6665  0.3330
48631SOL     OW50830   3.798   4.687   8.705 -0.0334  0.0290 -0.1784
48631SOL    HW150831   3.872   4.690   8.765 -0.6424 -1.4268  0.6968
48631SOL    HW250832   3.814   4.610   8.651 -0.9896 -0.4391  0.1754
48632SOL     OW50833   3.170   3.583   1.456  0.1835 -0.1550 -0.0122
48632SOL    HW150834   3.109   3.542   1.518  2.0214 -0.3685  1.7994
48632SOL    HW250835   3.162   3.531   1.376 -1.0856 -0.9345  0.5928
48633SOL     OW50836   0.292   9.162   1.209  0.4730  0.8388 -0.1041
48633SOL    HW150837   0.344   9.083   1.221  0.3496  0.6897 -0.5194
48633SOL    HW250838   0.203   9.136   1.233  0.1686  0.4571 -1.5413
48634SOL     OW50839  10.178   8.619   9.894 -0.3819  0.1144 -0.2405
48634SOL    HW150840  10.171   8.629   9.989 -1.0952  1.7815 -0.4319
48634SOL    HW250841  10.222   8.699   9.864 -1.9057  0.5535 -1.4725
48635SOL     OW50842  11.589   2.125   4.728  0.1639  0.7857 -0.0249
48635SOL    HW150843  11.627   2.161   4.809  0.4024  1.6559 -0.5065
48635SOL    HW250844  11.655   2.063   4.696  0.8062  1.6279 -0.3816
48636SOL     OW50845   0.831  10.180   8.846 -0.5373 -0.3981 -0.2962
48636SOL    HW150846   0.807  10.178   8.753  0.8516 -1.8017 -0.6692
48636SOL    HW250847   0.886  10.103   8.858  0.3369  0.4339  1.4145
48637SOL     OW50848   4.963  10.098   7.788  0.1306 -0.4010  0.1222
48637SOL    HW150849   4.937  10.056   7.706 -1.2213  0.2522  0.1753
48637SOL    HW250850   4.980  10.189   7.763  1.1273 -0.5262  0.3301
48638SOL     OW50851   4.401   4.007   1.746  0.3148  0.2332 -0.0145
48638SOL    HW150852   4.390   4.095   1.710 -2.6945  0.6897  1.6410
48638SOL    HW250853   4.444   4.021   1.830 -0.6930  0.2365  0.5166
48639SOL     OW50854   5.821   3.595   2.358 -0.4139  0.1723 -0.2887
48639SOL    HW150855   5.748   3.627   2.411 -0.3707  0.5914 -0.4719
48639SOL    HW250856   5.789   3.604   2.268 -0.8411 -1.4003 -0.3106
48640SOL     OW50857   0.523   9.554  11.251  0.2670 -0.0376  0.2722
48640SOL    HW150858   0.619   9.547  11.249  0.2600  0.0450 -0.8508
48640SOL    HW250859   0.497   9.497  11.324  1.0589 -1.6820 -0.6549
48641SOL     OW50860   3.026   1.203   9.270 -0.0717  0.4728  0.1465
48641SOL    HW150861   3.045   1.152   9.349 -1.3797 -1.6721 -0.8194
48641SOL    HW250862   3.105   1.195   9.217 -0.7876 -1.9753 -0.6547
48642SOL     OW50863   3.402   9.202   5.330  0.0709  0.4284  0.9936
48642SOL    HW150864   3.489   9.217   5.292 -0.4569 -1.4065 -1.1907
48642SOL    HW250865   3.406   9.114   5.365 -0.9610  0.2295  0.6472
48643SOL     OW50866   5.778   0.147   8.555 -0.6463  0.0592  0.3113
48643SOL    HW150867   5.842   0.092   8.510 -1.4423  0.2561 -1.0982
48643SOL    HW250868   5.783   0.118   8.647  1.1885 -0.1662  0.1918
48644SOL     OW50869   4.328   8.087   1.837 -0.3104  0.0562  0.0451
48644SOL    HW150870   4.393   8.155   1.819 -2.0384  1.5947 -0.6440
48644SOL    HW250871   4.305   8.052   1.751 -1.1950  0.2977  0.1781
48645SOL     OW50872   9.310   8.105   8.736 -0.1390  0.5874  0.1887
48645SOL    HW150873   9.230   8.120   8.686 -0.1901  0.7932  0.3318
48645SOL    HW250874   9.376   8.084   8.671 -0.1850  0.9449  0.0302
48646SOL     OW50875   8.798  10.593   4.800  0.4226 -0.3211  0.1161
48646SOL    HW150876   8.783  10.661   4.735  0.9216 -1.2379 -0.9799
48646SOL    HW250877   8.856  10.634   4.864 -1.8969  1.3652  1.3121
48647SOL     OW50878   8.435   3.256   2.387 -0.2644 -0.8270  0.2007
48647SOL    HW150879   8.390   3.193   2.444  0.8425 -1.5228  0.3267
48647SOL    HW250880   8.368   3.322   2.368 -1.0886 -1.3742  1.0812
48648SOL     OW50881   5.904   9.554   9.272  0.0465  0.5253 -0.4752
48648SOL    HW150882   5.916   9.548   9.178  0.9667 -0.7880 -0.3083
48648SOL    HW250883   5.964   9.624   9.300 -0.4423  1.1136 -0.8826
48649SOL     OW50884   9.936   4.555   7.790 -0.1321  0.2382  0.9326
48649SOL    HW150885   9.841   4.557   7.787 -0.1109  2.3674 -0.3514
48649SOL    HW250886   9.957   4.525   7.878 -2.0086  1.3394  1.8108
48650SOL     OW50887   4.772   1.142   3.160 -0.2426 -0.2148 -1.0316
48650SOL    HW150888   4.822   1.072   3.202 -0.8156  0.3711  0.6912
48650SOL    HW250889   4.837   1.211   3.145  0.1868 -0.8244 -2.1574
48651SOL     OW50890   5.478   6.531   2.834 -0.5817  0.3972 -0.0622
48651SOL    HW150891   5.456   6.548   2.742 -0.3244 -0.0693 -0.2152
48651SOL    HW250892   5.433   6.600   2.882 -0.0610  1.1375 -0.6005
48652SOL     OW50893  10.982   4.513   8.745 -0.1090 -0.0979 -0.3448
48652SOL    HW150894  10.906   4.570   8.733 -0.5347 -0.3020  1.1577
48652SOL    HW250895  11.035   4.527   8.667 -0.2373  2.3115 -0.0944
48653SOL     OW50896  11.581   7.428   3.472  0.8665 -0.1404  0.1862
48653SOL    HW150897  11.548   7.378   3.398 -0.2085 -1.2047  1.3309
48653SOL    HW250898  11.580   7.519   3.442 -0.4084 -0.4499 -0.7994
48654SOL     OW50899   6.081   9.605   6.405 -0.0337  0.4589  0.1711
48654SOL    HW150900   6.164   9.620   6.449 -0.4209  0.4086  0.9348
48654SOL    HW250901   6.061   9.513   6.422  0.8237 -0.1684 -1.8797
48655SOL     OW50902  10.819   8.935   5.803  0.1037 -0.2505  0.2015
48655SOL    HW150903  10.902   8.976   5.778 -0.4233  0.1995 -0.9291
48655SOL    HW250904  10.762   9.009   5.825  0.1009 -0.5749  1.3271
48656SOL     OW50905   8.471  10.894  10.158 -0.2730 -0.2211 -0.4332
48656SOL    HW150906   8.420  10.958  10.209  0.4756 -0.6001  0.8411
48656SOL    HW250907   8.553  10.940  10.139 -0.5763 -0.0592 -1.3830
48657SOL     OW50908   1.002   8.181   0.207  0.0107  0.2818  0.1494
48657SOL    HW150909   0.929   8.121   0.223 -0.7429  0.8891 -0.8549
48657SOL    HW250910   1.074   8.146   0.258 -0.5240 -1.2529 -0.0958
48658SOL     OW50911   6.253   1.672   8.113  0.3177  0.2998  0.1179
48658SOL    HW150912   6.291   1.585   8.127 -0.5364 -0.2794 -0.9587
48658SOL    HW250913   6.207   1.664   8.029 -0.7542  1.4581  0.5775
48659SOL     OW50914   2.040   7.836   7.100  0.0994 -0.4771  0.4571
48659SOL    HW150915   1.968   7.801   7.152  2.2671 -1.4394  3.0439
48659SOL    HW250916   2.107   7.767   7.102  1.2697  0.4948 -1.5594
48660SOL     OW50917   1.228   3.674   6.156  0.3556  0.4938  0.3653
48660SOL    HW150918   1.289   3.739   6.124  0.3341  0.2151 -0.2482
48660SOL    HW250919   1.145   3.721   6.165  0.3225  0.5311 -0.1425
48661SOL     OW50920   8.361   2.285   6.835 -0.1809  0.0615  0.0298
48661SOL    HW150921   8.355   2.378   6.858  0.8996 -0.0380  0.7731
48661SOL    HW250922   8.448   2.274   6.799 -0.0216 -0.8052  0.6393
48662SOL     OW50923  11.163  10.059  10.985  0.3032  0.4837  0.0686
48662SOL    HW150924  11.126  10.005  10.916 -0.6769  0.9642  0.2015
48662SOL    HW250925  11.088  10.088  11.037  0.9382  0.8216  0.8379
48663SOL     OW50926   3.529   5.275   1.335 -0.2887 -0.3961  0.5218
48663SOL    HW150927   3.494   5.241   1.418  0.3637  0.6640  1.2601
48663SOL    HW250928   3.615   5.234   1.327 -1.2625 -2.2914 -0.8304
48664SOL     OW50929   6.194   6.040   0.299  0.0705  0.3550  0.2050
48664SOL    HW150930   6.158   5.974   0.239  0.2429  1.8292 -1.6111
48664SOL    HW250931   6.119   6.095   0.322 -0.2971 -0.9910  2.5652
48665SOL     OW50932   6.713   9.331  11.090 -0.4003 -0.1671  0.2667
48665SOL    HW150933   6.665   9.401  11.134  0.2205  1.2338 -1.1925
48665SOL    HW250934   6.776   9.301  11.156 -1.4956 -0.2317  1.3219
48666SOL     OW50935   5.990   0.177   2.230 -0.4791 -0.8718 -0.2955
48666SOL    HW150936   5.949   0.092   2.222 -0.4056 -1.0272  0.8408
48666SOL    HW250937   6.084   0.159   2.222 -0.4614 -0.9085 -0.0207
48667SOL     OW50938   4.024  11.681   8.681 -0.0793  0.1912  0.1302
48667SOL    HW150939   4.101  11.673   8.625 -0.6716  1.7854 -1.0108
48667SOL    HW250940   3.953  11.642   8.629 -0.3125  0.0402  0.5564
48668SOL     OW50941   5.370   9.622  11.156  0.3208 -0.3611 -0.1292
48668SOL    HW150942   5.306   9.661  11.096  0.0696  0.7515  0.8369
48668SOL    HW250943   5.430   9.693  11.177  0.2519 -0.6605  1.1331
48669SOL     OW50944  11.547   1.175   0.692  0.4129 -0.2826 -0.2254
48669SOL    HW150945  11.605   1.107   0.658  0.0236 -1.5346  1.4763
48669SOL    HW250946  11.474   1.177   0.630  1.7945  0.7248 -1.9256
48670SOL     OW50947   6.262   9.159   6.111 -0.3586 -0.5902 -0.2798
48670SOL    HW150948   6.231   9.070   6.123  0.8356 -1.0915 -0.7528
48670SOL    HW250949   6.310   9.157   6.028 -1.0925  0.7181 -0.7800
48671SOL     OW50950   3.160  11.510  10.750  0.1928  0.2525  0.2004
48671SOL    HW150951   3.130  11.587  10.702  0.5608 -0.2063 -0.8023
48671SOL    HW250952   3.155  11.439  10.686  1.2773 -0.2653  0.6652
48672SOL     OW50953   6.513   6.333   4.088  0.2566  0.2165 -0.1779
48672SOL    HW150954   6.493   6.253   4.137  0.0353  0.5430  0.2726
48672SOL    HW250955   6.436   6.389   4.100 -1.0933 -0.7509 -3.1919
48673SOL     OW50956   3.346   1.208   9.134 -0.0170  0.5944 -0.2030
48673SOL    HW150957   3.399   1.160   9.197 -1.0360  1.0385  1.0242
48673SOL    HW250958   3.344   1.152   9.057  1.6202  0.2477 -0.0240
48674SOL     OW50959   5.931   9.014  11.122  0.7375  0.1735  0.1505
48674SOL    HW150960   5.925   8.918  11.118  0.5296  0.2243 -1.2290
48674SOL    HW250961   5.952   9.033  11.214  1.5308 -1.2319  0.2891
48675SOL     OW50962  10.949   0.487   3.307  0.2949  0.6304 -0.2303
48675SOL    HW150963  10.974   0.448   3.224  0.3718 -0.2181  0.1837
48675SOL    HW250964  10.984   0.428   3.373 -2.6707 -0.5710  0.3953
48676SOL     OW50965   2.652   8.768   4.693  0.2090 -0.0012 -0.6927
48676SOL    HW150966   2.598   8.782   4.771  1.4528 -0.0458  0.2031
48676SOL    HW250967   2.647   8.850   4.645 -1.4585 -0.3436 -1.1520
48677SOL     OW50968  10.372   3.788   2.116  0.1433 -0.0925  0.4034
48677SOL    HW150969  10.392   3.702   2.153  0.3525  0.3011  1.2270
48677SOL    HW250970  10.283   3.808   2.147 -1.3171 -1.4588 -2.5393
48678SOL     OW50971   4.099  10.654  10.628 -0.1830  0.3952 -0.2228
48678SOL    HW150972   4.155  10.727  10.604  0.0113 -0.0023 -1.0150
48678SOL    HW250973   4.045  10.687  10.699  1.9433  0.4076  1.4871
48679SOL     OW50974   3.222   0.389  10.838 -0.0111 -0.0927 -0.1198
48679SOL    HW150975   3.304   0.422  10.875  1.2486 -2.5288 -0.4846
48679SOL    HW250976   3.190   0.328  10.904 -2.2747  1.7242  0.5723
48680SOL     OW50977   6.622   2.030   1.764  0.4236  0.4321 -0.0348
48680SOL    HW150978   6.655   2.110   1.723 -1.0505  0.4008 -1.3718
48680SOL    HW250979   6.645   1.960   1.703  1.0983 -0.0985  0.7995
48681SOL     OW50980   2.386   3.284   5.967 -0.2795 -0.2623 -0.4209
48681SOL    HW150981   2.306   3.249   5.926 -0.3254 -0.8539  0.1518
48681SOL    HW250982   2.444   3.302   5.894 -0.8905  0.0573 -0.8423
48682SOL     OW50983   5.968   8.172   6.712 -0.1369 -0.3451  0.0064
48682SOL    HW150984   6.042   8.186   6.654  0.0632  2.0773  0.7510
48682SOL    HW250985   6.007   8.151   6.797 -0.2798  0.6051  0.3197
48683SOL     OW50986   8.328   0.406   5.362  0.0567  0.0435 -0.0722
48683SOL    HW150987   8.324   0.443   5.451 -0.3553 -1.4496  0.5651
48683SOL    HW250988   8.420   0.411   5.338  0.1417  0.6546  0.3514
48684SOL     OW50989  10.436   6.426   3.618  0.1933  0.3249  0.5655
48684SOL    HW150990  10.353   6.459   3.654  0.5747 -0.3785  2.1782
48684SOL    HW250991  10.473   6.374   3.689  0.4203 -2.2270 -1.2898
48685SOL     OW50992  11.602   1.807   1.782  0.4241 -0.2572 -0.2951
48685SOL    HW150993  11.567   1.881   1.831  0.9383 -0.1122 -0.1409
48685SOL    HW250994  11.532   1.782   1.722 -0.1583 -0.3511  0.4135
48686SOL     OW50995  10.476  11.234   9.269  0.3536 -0.0588 -0.3284
48686SOL    HW150996  10.442  11.323   9.282 -0.1140 -0.3378  0.4418
48686SOL    HW250997  10.516  11.211   9.353  1.8038 -0.0354 -0.9743
48687SOL     OW50998   9.812   7.952   8.178 -0.4720  0.3393 -0.1128
48687SOL    HW150999   9.886   8.003   8.211 -0.5087  1.8178 -2.1739
48687SOL    HW251000   9.735   8.001   8.207 -0.5187  1.1141 -1.4544
48688SOL     OW51001   6.977   5.760   1.147 -0.2901  0.4998  0.1333
48688SOL    HW151002   6.979   5.832   1.084 -1.0322 -0.6367 -1.2549
48688SOL    HW251003   6.887   5.757   1.178 -0.8597 -1.1183 -1.4656
48689SOL     OW51004   7.396   0.880   9.763 -0.7325 -0.3455 -0.1986
48689SOL    HW151005   7.376   0.851   9.852 -2.2165  2.0138  0.3393
48689SOL    HW251006   7.455   0.955   9.776  0.5335 -1.0960 -1.3388
48690SOL     OW51007   9.421   1.791  10.190  0.3774 -0.3116  0.7866
48690SOL    HW151008   9.335   1.768  10.225 -0.2900  0.0069 -0.5739
48690SOL    HW251009   9.428   1.741  10.109  1.8148 -0.9219  1.2492
48691SOL     OW51010   0.535   2.279   2.000  0.7026 -0.1621 -0.2322
48691SOL    HW151011   0.556   2.275   2.093  1.0773 -0.4808 -0.3287
48691SOL    HW251012   0.540   2.189   1.970 -0.3559 -0.1936 -0.3656
48692SOL     OW51013   3.672   3.713   9.113 -0.0122 -0.2732  0.4043
48692SOL    HW151014   3.746   3.654   9.098 -0.5236 -0.8600  0.1772
48692SOL    HW251015   3.609   3.661   9.162  0.1696  0.5612  1.5927
48693SOL     OW51016   7.200   4.300   3.380 -0.0356  0.3043  0.3170
48693SOL    HW151017   7.290   4.330   3.380  0.7041 -1.7296  0.1782
48693SOL    HW251018   7.181   4.282   3.472  0.3268 -0.8781  0.1836
48694SOL     OW51019   7.511  11.191   0.517  0.2270  0.1494 -0.1842
48694SOL    HW151020   7.452  11.162   0.447  0.9649 -2.6545  0.2344
48694SOL    HW251021   7.595  11.150   0.497  0.4899 -0.6710  2.2214
48695SOL     OW51022   6.020   7.095   1.113 -0.3960  0.0434 -0.6366
48695SOL    HW151023   5.965   7.037   1.166 -0.0262 -0.1205 -0.4242
48695SOL    HW251024   5.968   7.174   1.102 -0.2643  0.2991  0.4521
48696SOL     OW51025   8.108   5.847   7.092  0.4137 -0.8182 -0.1758
48696SOL    HW151026   8.181   5.909   7.087  0.1318 -0.4465  0.2516
48696SOL    HW251027   8.110   5.800   7.008 -0.4867  1.0135 -1.2800
48697SOL     OW51028   4.976   1.753   5.061 -0.2148 -0.4253 -0.0202
48697SOL    HW151029   4.928   1.797   5.132  1.4921 -0.6676  1.3339
48697SOL    HW251030   4.932   1.669   5.051 -0.3551 -0.4696  0.8993
48698SOL     OW51031   8.922  10.919   4.441  0.4311 -0.6156 -0.4678
48698SOL    HW151032   8.840  10.947   4.400  0.7076 -1.5458 -1.7139
48698SOL    HW251033   8.978  10.996   4.437 -0.1334 -0.1870 -0.2685
48699SOL     OW51034  11.644   5.568  11.280 -0.2294 -0.5456  0.0237
48699SOL    HW151035  11.656   5.663  11.278 -0.7310 -0.4845 -1.9267
48699SOL    HW251036  11.695   5.539  11.356  1.6151  1.0632 -0.5168
48700SOL     OW51037   5.961   7.509   2.863  0.1150  0.0958  0.0419
48700SOL    HW151038   6.037   7.500   2.805 -0.7021  2.4756 -1.5332
48700SOL    HW251039   5.890   7.464   2.816 -0.1467  0.5212  0.0277
48701SOL     OW51040  10.115   8.869  10.922  0.3576 -0.3247  0.2714
48701SOL    HW151041  10.117   8.773  10.929  1.6537 -0.3040  0.3353
48701SOL    HW251042  10.022   8.890  10.921  0.0496 -1.5618  0.6045
48702SOL     OW51043   9.204  11.581   7.097  0.6586  0.3764  0.2693
48702SOL    HW151044   9.162  11.667   7.095  1.8699  1.0241  1.0641
48702SOL    HW251045   9.132  11.519   7.092 -0.4427  1.4253  1.9151
48703SOL     OW51046   3.668   6.625   5.109  0.5981 -0.1796  0.1912
48703SOL    HW151047   3.617   6.671   5.042  1.0134  0.6212  0.4088
48703SOL    HW251048   3.741   6.586   5.061  1.2711  0.9637  0.2567
48704SOL     OW51049   7.943   0.197  10.571 -0.0221  0.6326  0.7103
48704SOL    HW151050   7.919   0.288  10.557 -1.2982  0.4564  1.6065
48704SOL    HW251051   7.870   0.146  10.536 -0.5680  0.0536  2.5746
48705SOL     OW51052   3.391   1.971   8.650 -0.2448 -0.5789 -0.3656
48705SOL    HW151053   3.358   1.922   8.575 -2.1622 -0.2576  0.2295
48705SOL    HW251054   3.379   1.912   8.725 -0.8658  0.1075  0.0849
48706SOL     OW51055   9.337   4.096   5.856 -0.1885 -0.1971 -0.7429
48706SOL    HW151056   9.314   4.123   5.945  2.0451 -1.4071  0.2756
48706SOL    HW251057   9.318   4.173   5.802 -1.3322  0.6556  0.8112
48707SOL     OW51058   5.893   6.157  10.421  0.5420  0.0560 -0.6760
48707SOL    HW151059   5.897   6.112  10.337  1.0883 -1.0172 -0.1063
48707SOL    HW251060   5.819   6.217  10.414 -1.2302 -2.0537 -0.9546
48708SOL     OW51061  10.848   9.686   4.053  0.0036 -0.1942  0.0967
48708SOL    HW151062  10.849   9.609   4.110  1.9855  0.1093  0.5378
48708SOL    HW251063  10.851   9.761   4.112  4.0068  0.1153 -0.2752
48709SOL     OW51064   3.811   5.325   5.028 -0.1524 -0.2024 -0.3622
48709SOL    HW151065   3.730   5.348   4.983  0.5060  1.6932 -0.6776
48709SOL    HW251066   3.854   5.263   4.969 -0.9219 -0.4813 -0.6446
48710SOL     OW51067  10.341   9.427   8.547 -0.2525 -0.0760  0.5506
48710SOL    HW151068  10.247   9.417   8.538 -0.4992  2.0506  0.1833
48710SOL    HW251069  10.353   9.467   8.633  0.4182 -1.2837  1.0378
48711SOL     OW51070   8.758   3.658   4.140  0.6397 -0.1266 -0.5355
48711SOL    HW151071   8.717   3.646   4.055  2.0135  1.2510 -1.4470
48711SOL    HW251072   8.688   3.639   4.203 -1.0695  1.0388 -1.9767
48712SOL     OW51073   7.354  10.697   4.147  0.0613 -0.1278 -0.4753
48712SOL    HW151074   7.384  10.607   4.133 -1.3569 -0.5520 -0.9532
48712SOL    HW251075   7.344  10.732   4.058  0.9674  0.6445 -0.2886
48713SOL     OW51076   3.652   5.289   9.758  0.1310 -0.1423 -0.6008
48713SOL    HW151077   3.564   5.270   9.791 -0.0221  0.2555 -0.7747
48713SOL    HW251078   3.638   5.312   9.666  0.6157 -1.7798 -1.1047
48714SOL     OW51079   4.179   5.223   0.108  0.3485 -0.2112 -0.1343
48714SOL    HW151080   4.226   5.233   0.025  0.5918  0.2161  0.0509
48714SOL    HW251081   4.098   5.273   0.096  1.6469  2.2817  0.8563
48715SOL     OW51082  10.629   2.751   7.149  0.1150 -0.8177 -0.1741
48715SOL    HW151083  10.621   2.680   7.085  1.6279 -2.4499  1.3389
48715SOL    HW251084  10.720   2.781   7.140 -0.0639 -0.1271  0.2620
48716SOL     OW51085  10.427   1.208   1.379  0.1260  0.2633 -0.5913
48716SOL    HW151086  10.334   1.196   1.360  0.2414  0.0400 -1.0251
48716SOL    HW251087  10.458   1.268   1.311  0.2490  0.5233 -0.3078
48717SOL     OW51088   5.972   6.266   8.212 -0.4845 -0.3203  0.1206
48717SOL    HW151089   5.992   6.306   8.297 -0.0269  0.1447 -0.1988
48717SOL    HW251090   6.056   6.266   8.165 -0.8726  0.0441 -0.5896
48718SOL     OW51091   4.111   1.895   0.277  0.0645 -0.5663  0.6120
48718SOL    HW151092   4.147   1.809   0.254 -0.6968 -0.8705  0.5358
48718SOL    HW251093   4.018   1.888   0.258  0.0541  0.4096  0.2497
48719SOL     OW51094   8.665   9.105   6.031 -0.1274  0.0024 -0.3258
48719SOL    HW151095   8.702   9.109   5.943  1.0903  1.4783  0.2047
48719SOL    HW251096   8.706   9.027   6.071  0.0796 -0.1009 -0.7383
48720SOL     OW51097   2.441   5.185   8.489 -0.0853 -0.4398  0.2081
48720SOL    HW151098   2.422   5.095   8.464 -2.1597 -0.8622  2.8427
48720SOL    HW251099   2.533   5.184   8.517  0.9920 -0.8420 -3.0017
48721SOL     OW51100   2.450   2.277   4.630  0.4107 -0.8270 -0.3195
48721SOL    HW151101   2.482   2.188   4.645  1.4263 -0.0848  2.7192
48721SOL    HW251102   2.403   2.299   4.711 -0.2475  1.2180 -1.2065
48722SOL     OW51103   4.513  10.974   8.395 -0.2872  0.2365  0.2182
48722SOL    HW151104   4.460  11.051   8.418 -0.3142  0.2789  0.0183
48722SOL    HW251105   4.603  11.004   8.404 -0.2980  0.3851 -0.1661
48723SOL     OW51106   6.867   8.540   7.115  0.6987 -0.2254 -0.2347
48723SOL    HW151107   6.855   8.517   7.207  0.2602 -0.2788 -0.3007
48723SOL    HW251108   6.884   8.457   7.071  2.0345 -0.0773 -0.0427
48724SOL     OW51109   8.784   4.773   7.744 -1.0020 -0.3015 -0.3044
48724SOL    HW151110   8.797   4.720   7.665 -0.2767  0.3009 -0.6065
48724SOL    HW251111   8.792   4.863   7.714  3.9041  0.0086  1.0811
48725SOL     OW51112   1.284   8.281  11.167  0.4307  0.0788 -0.3523
48725SOL    HW151113   1.283   8.359  11.223  0.9712  1.3815 -2.0951
48725SOL    HW251114   1.284   8.208  11.229  1.4549  1.4562  1.3741
48726SOL     OW51115   1.404   4.829   2.900 -0.2450  0.0585  0.2962
48726SOL    HW151116   1.456   4.885   2.842 -0.1432 -1.2035 -0.8822
48726SOL    HW251117   1.337   4.888   2.935  0.6178  1.1997  0.1057
48727SOL     OW51118   0.235   4.732   0.524 -0.3593 -0.0824 -1.2867
48727SOL    HW151119   0.166   4.666   0.515  0.1701 -0.4716 -2.7792
48727SOL    HW251120   0.240   4.773   0.438 -0.2347  1.4920 -0.5557
48728SOL     OW51121   0.187   0.428   6.224  0.7625  0.5105  0.4000
48728SOL    HW151122   0.279   0.442   6.199  0.8850  1.7111  1.4442
48728SOL    HW251123   0.140   0.501   6.182  0.5205  0.7756  1.1206
48729SOL     OW51124   5.662   4.011   9.076  0.2276 -1.1009  0.0747
48729SOL    HW151125   5.720   3.965   9.015 -1.7159 -0.2984 -2.5400
48729SOL    HW251126   5.678   4.104   9.060  0.3663 -0.8503  1.5262
48730SOL     OW51127   3.961   5.504   2.153  0.1444  0.0113 -0.0800
48730SOL    HW151128   4.031   5.565   2.131 -0.6035  0.1463 -2.2347
48730SOL    HW251129   3.981   5.424   2.104 -0.7906 -0.2189 -0.1156
48731SOL     OW51130  11.322   3.745   4.099  0.3438  0.2189 -0.4138
48731SOL    HW151131  11.337   3.718   4.008 -0.6850 -1.5555 -0.1138
48731SOL    HW251132  11.229   3.728   4.114  0.1666  1.8528  0.5724
48732SOL     OW51133   7.891   2.014   4.274  0.7710 -0.4042  0.2650
48732SOL    HW151134   7.891   2.063   4.356  0.6642  0.8585 -0.4594
48732SOL    HW251135   7.982   1.985   4.264  0.7329 -0.7823  0.9423
48733SOL     OW51136   5.059   1.378   4.330 -0.5309  0.4142 -0.2046
48733SOL    HW151137   5.091   1.359   4.242 -1.1289 -1.2044 -0.0978
48733SOL    HW251138   4.975   1.420   4.316 -0.4361  0.5424 -0.4049
48734SOL     OW51139   5.097   2.078   6.980  0.3763 -0.0177  0.1819
48734SOL    HW151140   5.005   2.087   6.957  0.5695 -1.9920 -1.7238
48734SOL    HW251141   5.128   2.168   6.992 -1.3972  0.7786 -0.8162
48735SOL     OW51142   7.634   4.715   3.011 -0.0049 -0.4141  0.1855
48735SOL    HW151143   7.650   4.710   2.917  0.4412  0.8591  0.1679
48735SOL    HW251144   7.554   4.768   3.019  0.6238  0.5148  0.5383
48736SOL     OW51145   8.807   4.319  10.151  0.2246  0.3920  0.1363
48736SOL    HW151146   8.846   4.333  10.237  0.6327 -0.3895  0.0900
48736SOL    HW251147   8.719   4.356  10.158  0.4218  0.7510  0.7416
48737SOL     OW51148   9.112   5.704   9.739 -0.0750 -0.1865 -0.0763
48737SOL    HW151149   9.076   5.616   9.750 -1.4098  0.2172 -1.0265
48737SOL    HW251150   9.036   5.761   9.731  0.6727  1.4692  2.9500
48738SOL     OW51151   4.778  10.190   1.402  0.3554 -0.0123 -0.3543
48738SOL    HW151152   4.825  10.129   1.346  0.4777 -0.0603 -0.2010
48738SOL    HW251153   4.812  10.276   1.377 -0.7495  0.1257 -1.4777
48739SOL     OW51154  10.410  10.095   7.153  0.3205 -0.2399  0.8286
48739SOL    HW151155  10.469  10.050   7.093  1.0278  0.7029  0.7992
48739SOL    HW251156  10.374  10.168   7.102 -3.1974 -2.3667 -0.1420
48740SOL     OW51157   4.908   6.724   4.704 -0.3749  0.3464  0.5859
48740SOL    HW151158   4.872   6.780   4.772  2.6416  1.1154  1.7119
48740SOL    HW251159   4.868   6.639   4.718 -0.9607  0.8822  2.3298
48741SOL     OW51160  10.898   2.844   9.972 -0.1489 -0.3235  0.1415
48741SOL    HW151161  10.899   2.866   9.879  2.2958  0.5680  0.3180
48741SOL    HW251162  10.948   2.763   9.978 -0.0359 -0.2188  0.7100
48742SOL     OW51163  11.177   6.994   9.803 -0.3537 -0.1087  0.2248
48742SOL    HW151164  11.145   7.058   9.739 -0.5556  0.9242  1.3277
48742SOL    HW251165  11.119   6.918   9.792 -1.5494  0.7518  0.4042
48743SOL     OW51166   6.420   0.859   9.368  0.2134 -0.2757 -0.3999
48743SOL    HW151167   6.454   0.809   9.441  1.0547 -0.4906 -0.9294
48743SOL    HW251168   6.479   0.934   9.360 -0.7117  0.5189  0.0380
48744SOL     OW51169   1.086   0.369   9.997 -0.9769  0.6792  0.2037
48744SOL    HW151170   1.047   0.455  10.011 -1.0981  0.3795  1.9840
48744SOL    HW251171   1.174   0.376  10.033 -1.0384  0.0467  0.5070
48745SOL     OW51172   4.740   7.248  11.647  0.3790 -0.1524 -0.3152
48745SOL    HW151173   4.790   7.168  11.660  0.4125 -0.0833 -0.0024
48745SOL    HW251174   4.724   7.281  11.735 -1.9326 -1.2330 -0.2417
48746SOL     OW51175   5.250   1.725   9.116  0.6063  0.2813 -0.0336
48746SOL    HW151176   5.164   1.694   9.146 -0.7292  1.3763 -2.4333
48746SOL    HW251177   5.311   1.694   9.183 -1.7865  0.5983  2.4913
48747SOL     OW51178   5.742   7.872   1.861  0.0469  0.1285 -0.1666
48747SOL    HW151179   5.765   7.780   1.865 -0.2784  0.0841  1.0566
48747SOL    HW251180   5.741   7.901   1.952 -0.4052  1.2010 -0.4914
48748SOL     OW51181   4.835   0.199   8.764 -0.2335 -0.0054  0.4271
48748SOL    HW151182   4.739   0.194   8.763 -0.1804 -1.2901  0.3218
48748SOL    HW251183   4.862   0.154   8.684  0.4104  2.8361 -1.0748
48749SOL     OW51184   3.908   9.933   1.844  0.1515 -0.0291 -0.6072
48749SOL    HW151185   3.830   9.971   1.804 -0.5669 -0.1215  0.6507
48749SOL    HW251186   3.876   9.856   1.891  1.1076 -0.4385 -0.6047
48750SOL     OW51187   6.753  11.091   6.487  0.0332  0.0003  0.3863
48750SOL    HW151188   6.824  11.039   6.524  0.6043  0.4794 -0.0096
48750SOL    HW251189   6.761  11.176   6.528  1.1339  0.7742 -1.3179
48751SOL     OW51190   7.149   6.093   1.115  0.4346  0.5125 -0.5960
48751SOL    HW151191   7.218   6.142   1.071  0.7445 -1.4435 -2.4086
48751SOL    HW251192   7.195   6.043   1.183  0.1618  2.2812  1.0136
48752SOL     OW51193   6.683   9.221   9.764 -0.2503  0.2618 -0.4645
48752SOL    HW151194   6.746   9.153   9.742  0.1216  0.4410  0.0470
48752SOL    HW251195   6.606   9.174   9.795  0.4087  0.0826  0.9722
48753SOL     OW51196   7.393   4.107   9.217  0.4696 -0.1322 -0.1319
48753SOL    HW151197   7.318   4.053   9.240 -0.2756  0.6926 -0.5823
48753SOL    HW251198   7.387   4.117   9.122  0.1043  1.4348  0.0368
48754SOL     OW51199   1.061   3.070   4.568 -0.5701  0.1407 -0.5469
48754SOL    HW151200   1.039   3.134   4.500  0.2088  0.5835 -0.3960
48754SOL    HW251201   0.995   3.084   4.636  0.5100  1.9245  0.2098
48755SOL     OW51202   7.979   1.568   4.812 -0.0215 -0.5936 -0.4793
48755SOL    HW151203   8.025   1.520   4.881 -1.0198  0.1675  0.7701
48755SOL    HW251204   8.041   1.635   4.784 -1.0592  2.1479  3.0215
48756SOL     OW51205   9.123   6.854  10.901 -0.4088 -0.0508 -0.1930
48756SOL    HW151206   9.200   6.806  10.933 -0.4486  1.0812  1.7863
48756SOL    HW251207   9.160   6.932  10.859 -0.4087  0.6725  1.0667
48757SOL     OW51208   7.548  10.987  10.444 -0.4403 -0.2777  0.5594
48757SOL    HW151209   7.532  11.058  10.381 -0.3245 -0.9127 -0.2053
48757SOL    HW251210   7.538  10.907  10.392 -0.2902 -0.8133  1.3463
48758SOL     OW51211   8.217   6.507   5.894  0.3596 -0.3230 -0.2892
48758SOL    HW151212   8.311   6.513   5.909  0.5658 -1.8488 -0.7564
48758SOL    HW251213   8.181   6.584   5.936  1.8679  0.5737 -0.5655
48759SOL     OW51214  10.231  10.960  10.559  0.4860  0.5588  0.5889
48759SOL    HW151215  10.222  10.984  10.467 -0.4784  0.7769  0.7304
48759SOL    HW251216  10.269  11.037  10.601  0.2332  0.7309  0.5026
48760SOL     OW51217   0.839   6.353   2.278  0.1882 -0.0583 -0.5933
48760SOL    HW151218   0.747   6.355   2.252  0.3815  1.8819 -1.2305
48760SOL    HW251219   0.854   6.262   2.304 -2.5080  0.0082  1.7265
48761SOL     OW51220   6.552  11.280   9.707  0.2560 -0.4372 -0.2832
48761SOL    HW151221   6.466  11.324   9.707  0.2527 -0.4454 -0.3813
48761SOL    HW251222   6.557  11.237   9.622  1.0405  0.8884 -0.9404
48762SOL     OW51223   6.784  11.187   9.198  0.4965 -0.0882 -0.3241
48762SOL    HW151224   6.866  11.139   9.185  0.4771 -0.2025 -0.0311
48762SOL    HW251225   6.800  11.272   9.158  0.7616 -0.1105 -0.2700
48763SOL     OW51226   9.951   8.317   5.104 -0.0075  0.0494 -0.0655
48763SOL    HW151227   9.966   8.398   5.055 -1.3661  0.4730  0.1660
48763SOL    HW251228  10.025   8.261   5.082  0.5422  1.0627 -0.8596
48764SOL     OW51229   5.664   3.103   1.306 -0.5054  0.7053  0.1613
48764SOL    HW151230   5.701   3.019   1.280  0.0306  0.9967 -0.0420
48764SOL    HW251231   5.603   3.125   1.236 -1.3661  0.0439  0.6837
48765SOL     OW51232   1.642   0.101   9.966  0.3363 -0.4418 -0.6153
48765SOL    HW151233   1.638   0.056   9.881 -1.2812 -0.4356 -0.5790
48765SOL    HW251234   1.639   0.030  10.030  1.4238 -0.4390 -0.5448
48766SOL     OW51235   6.669   0.929   9.369 -0.7135  0.3036 -0.5331
48766SOL    HW151236   6.668   1.008   9.423 -0.7011  0.4681 -0.7729
48766SOL    HW251237   6.725   0.868   9.416 -0.4176  0.5719 -0.5369
48767SOL     OW51238   2.088  11.021   7.282  0.0739 -0.3361 -0.2336
48767SOL    HW151239   2.012  11.018   7.341  0.4275  0.2844  0.2678
48767SOL    HW251240   2.064  10.963   7.209 -1.2681  0.5816 -0.5550
48768SOL     OW51241   7.521   6.783   7.343  0.8628  0.2022  0.3259
48768SOL    HW151242   7.447   6.762   7.286  0.3014  0.4015  0.9601
48768SOL    HW251243   7.534   6.877   7.331  4.3821 -0.5149 -3.7075
48769SOL     OW51244   6.958   3.392  10.660 -0.0834  0.0745 -0.4599
48769SOL    HW151245   6.914   3.420  10.740 -0.7764 -1.1602 -0.3762
48769SOL    HW251246   6.926   3.451  10.592 -0.8136  0.0620 -0.1321
48770SOL     OW51247  11.176   4.588   5.106 -0.0927  0.0249  0.0997
48770SOL    HW151248  11.098   4.610   5.158  0.5281  1.2325  0.5361
48770SOL    HW251249  11.158   4.625   5.019 -0.3250 -0.3619 -0.0199
48771SOL     OW51250  11.545   5.231  10.196  0.0683 -0.4381 -0.3963
48771SOL    HW151251  11.576   5.143  10.219 -2.2888 -1.4327 -0.7596
48771SOL    HW251252  11.467   5.243  10.249  0.2829  1.4209 -0.4529
48772SOL     OW51253   3.919   6.623   3.085 -0.1765 -0.2852  0.2519
48772SOL    HW151254   3.988   6.622   3.020  1.4182 -0.3680  1.8636
48772SOL    HW251255   3.953   6.570   3.157 -1.2649  0.9109  1.7131
48773SOL     OW51256   0.541   8.671   8.998  0.5157  0.4833  0.2147
48773SOL    HW151257   0.587   8.741   9.044  0.5099  0.3290  0.4535
48773SOL    HW251258   0.497   8.620   9.066 -1.4483  1.6259 -0.1278
48774SOL     OW51259   0.599   4.196   6.084 -0.2954  0.8529  0.2840
48774SOL    HW151260   0.686   4.237   6.090 -0.0354  0.5290 -0.9908
48774SOL    HW251261   0.540   4.269   6.067 -0.0453  0.9078 -0.4027
48775SOL     OW51262   1.801   7.187  11.443 -0.0436  0.1251 -0.2963
48775SOL    HW151263   1.840   7.198  11.529  0.0012  1.8749 -0.5069
48775SOL    HW251264   1.766   7.273  11.421  0.5313 -0.0989 -2.3062
48776SOL     OW51265   0.184  10.032   8.714 -0.2449 -0.4768 -0.1054
48776SOL    HW151266   0.118   9.978   8.757  0.5761 -1.3042  0.1574
48776SOL    HW251267   0.261  10.026   8.771  1.1072 -2.1446 -1.9269
48777SOL     OW51268   5.235   2.726   9.014  0.3481  0.3292  0.4718
48777SOL    HW151269   5.325   2.751   9.036  0.9139 -0.9453 -0.2904
48777SOL    HW251270   5.244   2.664   8.941 -1.2487  1.6254 -0.9189
48778SOL     OW51271   2.226  10.372   8.219 -0.5183 -0.5975 -0.5038
48778SOL    HW151272   2.281  10.449   8.227 -2.7199  0.8949  1.5064
48778SOL    HW251273   2.194  10.374   8.128  1.9229 -1.0501 -1.4506
48779SOL     OW51274  10.950  11.674   8.156  0.1020 -0.1437 -0.3613
48779SOL    HW151275  10.878  11.610   8.152 -3.0617  3.0398  0.4675
48779SOL    HW251276  10.939  11.727   8.077  2.3460 -0.2316 -0.7953
48780SOL     OW51277   1.036   4.319  10.359  0.0964  0.7445  0.1208
48780SOL    HW151278   1.047   4.232  10.321  1.4156  1.0152 -0.1622
48780SOL    HW251279   1.122   4.361  10.349 -0.0446  1.4895  1.7477
48781SOL     OW51280   3.242   0.831   6.860  0.4673  0.3674 -0.0785
48781SOL    HW151281   3.288   0.791   6.786 -1.6797 -0.1313 -1.2306
48781SOL    HW251282   3.272   0.921   6.861  1.8766 -0.0701 -0.3972
48782SOL     OW51283   3.877   4.504   3.281 -0.2448 -0.1673  0.4557
48782SOL    HW151284   3.920   4.419   3.270  0.5776  0.1069  1.4438
48782SOL    HW251285   3.918   4.561   3.216 -0.5236 -0.4067  0.0591
48783SOL     OW51286  11.617   3.826   8.430  0.2110 -0.2440 -0.5765
48783SOL    HW151287  11.690   3.883   8.456  0.3463  0.2818 -1.9977
48783SOL    HW251288  11.551   3.840   8.497  1.0749 -0.0511  0.2644
48784SOL     OW51289  11.092   2.067   7.362 -0.2907 -0.3099  0.3760
48784SOL    HW151290  11.074   1.985   7.315  0.1020  1.1122 -2.4797
48784SOL    HW251291  11.187   2.073   7.366 -0.3099  0.2264  0.1294
48785SOL     OW51292   7.588  10.581   1.097  0.1577 -0.3331  0.5217
48785SOL    HW151293   7.512  10.541   1.140 -0.3692 -0.6663 -0.6920
48785SOL    HW251294   7.551  10.647   1.039  0.8424 -0.0359  0.4171
48786SOL     OW51295   6.493   8.338  11.566  0.2137  0.1044  0.4368
48786SOL    HW151296   6.425   8.383  11.515 -0.5897  0.3409  1.6627
48786SOL    HW251297   6.499   8.389  11.647  0.8489 -0.7349  0.9317
48787SOL     OW51298   0.920   8.154   0.832  0.4861 -0.2826 -0.4251
48787SOL    HW151299   0.953   8.196   0.753  1.6585  0.4621  0.4299
48787SOL    HW251300   0.989   8.167   0.897  0.0382 -1.8509  0.4207
48788SOL     OW51301   6.064   0.613   5.455 -0.3213  0.0889 -0.0700
48788SOL    HW151302   6.111   0.690   5.488  1.2685 -0.5758 -0.7107
48788SOL    HW251303   6.104   0.594   5.370 -0.9356 -1.2307 -0.0911
48789SOL     OW51304   3.659   1.242   0.098 -0.4697  0.0134  0.2657
48789SOL    HW151305   3.634   1.308   0.162 -1.2320 -0.1176  0.1142
48789SOL    HW251306   3.577   1.216   0.056 -0.2236 -1.1959  0.4910
48790SOL     OW51307   6.252   6.815   7.804  0.0543 -0.4491 -0.2110
48790SOL    HW151308   6.308   6.872   7.857  0.4571 -0.7240 -0.3418
48790SOL    HW251309   6.298   6.731   7.801 -1.1791 -1.2324  1.1399
48791SOL     OW51310   2.584   8.989   8.941 -0.3786 -0.0008 -0.7963
48791SOL    HW151311   2.489   9.000   8.935 -0.7340 -2.7273 -1.2528
48791SOL    HW251312   2.601   8.969   9.033  0.0124  2.0650 -0.3735
48792SOL     OW51313  11.203   0.594   1.677  0.0538  0.0841  0.1802
48792SOL    HW151314  11.241   0.577   1.591  3.0122 -0.2878  1.4498
48792SOL    HW251315  11.277   0.592   1.737 -2.1047 -1.7059  3.0616
48793SOL     OW51316   4.679   3.976   5.648  0.1215 -0.0834  0.6763
48793SOL    HW151317   4.745   3.906   5.642 -1.2356 -1.3251 -3.2347
48793SOL    HW251318   4.599   3.931   5.676 -0.3492  0.2110 -0.1509
48794SOL     OW51319  10.047   0.762  10.205  0.2208 -0.6087  0.1802
48794SOL    HW151320  10.122   0.765  10.265  1.6241  0.8293 -1.5337
48794SOL    HW251321   9.984   0.823  10.243  0.8518 -0.1532  0.5167
48795SOL     OW51322   5.094   8.070  10.516  0.2110  0.2902  0.1536
48795SOL    HW151323   5.188   8.054  10.508 -0.0354 -1.3184  0.1396
48795SOL    HW251324   5.079   8.077  10.610  0.2210 -0.4469  0.2205
48796SOL     OW51325   8.738   9.411  11.380 -0.3674  0.1059 -0.1648
48796SOL    HW151326   8.722   9.407  11.474 -0.4271  0.1574 -0.1715
48796SOL    HW251327   8.676   9.477  11.348 -0.6319 -0.1999 -0.2960
48797SOL     OW51328   8.668   4.622   3.087 -0.4006 -0.9852  0.2728
48797SOL    HW151329   8.671   4.711   3.052  0.6027 -1.5524 -1.1524
48797SOL    HW251330   8.613   4.629   3.166  0.2356  1.0073  0.5902
48798SOL     OW51331   0.440   5.018   1.900 -0.1832 -0.2544  0.4631
48798SOL    HW151332   0.444   4.927   1.872 -0.4628 -0.2636  0.4539
48798SOL    HW251333   0.407   5.065   1.824 -2.9484 -0.5558  1.3830
48799SOL     OW51334  10.015   9.584   5.235  0.4532  0.6872  0.7622
48799SOL    HW151335   9.932   9.615   5.271 -0.9319 -1.7447 -0.1015
48799SOL    HW251336  10.073   9.660   5.238 -1.6861  2.3621  1.7362
48800SOL     OW51337   4.740   7.398   1.699 -0.2324 -0.5531 -0.0089
48800SOL    HW151338   4.698   7.398   1.785 -2.5054  0.3748 -1.0237
48800SOL    HW251339   4.824   7.441   1.713  1.0146 -3.3750  2.3237
48801SOL     OW51340   8.065   2.815   9.820 -0.0703  0.1676  0.4943
48801SOL    HW151341   7.978   2.811   9.779  0.3938  1.3010 -0.6855
48801SOL    HW251342   8.123   2.844   9.749  1.4455 -1.4215  1.0249
48802SOL     OW51343   4.067   0.845   9.232 -0.2995  0.0165  0.1983
48802SOL    HW151344   4.112   0.797   9.162 -0.5726 -2.2193  1.4715
48802SOL    HW251345   4.029   0.921   9.188  0.2913 -0.8324 -1.9088
48803SOL     OW51346  11.542   7.320   7.316 -0.0864 -0.5236 -0.1282
48803SOL    HW151347  11.474   7.257   7.341 -0.3685 -0.1733 -0.0010
48803SOL    HW251348  11.493   7.397   7.285  0.2565 -0.4962 -0.6083
48804SOL     OW51349   9.533   7.119   8.629 -0.3911 -0.5249  0.1694
48804SOL    HW151350   9.503   7.071   8.707 -1.6169 -0.7256 -0.3983
48804SOL    HW251351   9.628   7.127   8.640 -0.4154 -1.4609  1.1744
48805SOL     OW51352   6.576   3.244  11.056 -0.2474  0.5250  0.0616
48805SOL    HW151353   6.482   3.262  11.051 -0.2689  0.1182 -1.2910
48805SOL    HW251354   6.581   3.148  11.061  0.1225  0.4782 -1.0325
48806SOL     OW51355   6.713   8.808   2.731 -0.2544  0.0720  0.7651
48806SOL    HW151356   6.740   8.718   2.748  0.3895  0.4022  1.5716
48806SOL    HW251357   6.633   8.800   2.679 -0.5168 -0.9635  1.3052
48807SOL     OW51358   3.697   9.282   9.468 -0.5720  0.1725 -0.8762
48807SOL    HW151359   3.607   9.262   9.441  0.1738 -3.8074 -0.9643
48807SOL    HW251360   3.752   9.243   9.400  1.2035 -0.9188  1.0695
48808SOL     OW51361   4.143   1.634   0.124 -0.1145 -0.5013  0.1796
48808SOL    HW151362   4.056   1.652   0.090  0.0853 -1.1043 -0.6643
48808SOL    HW251363   4.198   1.622   0.047  0.3960 -1.6933  0.7022
48809SOL     OW51364   1.014  10.478   3.504  0.2321  0.3633 -0.3855
48809SOL    HW151365   1.036  10.511   3.591 -0.5781  0.5298 -0.2372
48809SOL    HW251366   1.011  10.383   3.516 -1.1352  0.4440  0.0879
48810SOL     OW51367  11.102   8.351  11.203 -0.1918 -0.6602 -0.7019
48810SOL    HW151368  11.016   8.369  11.239 -0.5177 -2.7189 -0.3467
48810SOL    HW251369  11.127   8.267  11.240  2.1070  0.0005 -0.5844
48811SOL     OW51370  10.708   3.039   1.898  0.5891 -0.2660  0.2940
48811SOL    HW151371  10.779   2.994   1.944  0.0201  0.3579  1.8297
48811SOL    HW251372  10.708   3.128   1.934 -0.2567  0.0763 -0.5040
48812SOL     OW51373   8.297  10.977   8.536  0.3661 -0.2970  0.5490
48812SOL    HW151374   8.361  10.909   8.555  1.0468  0.3202  0.5199
48812SOL    HW251375   8.274  11.012   8.621  2.3301  1.4895  0.4359
48813SOL     OW51376   5.858   6.065   1.859 -0.2524  0.2577 -0.1086
48813SOL    HW151377   5.809   6.020   1.929  0.7814 -1.8087 -0.6092
48813SOL    HW251378   5.866   5.999   1.790  2.4677  0.7583 -0.3849
48814SOL     OW51379   3.634   8.434   6.205  0.4908 -0.2399 -0.5231
48814SOL    HW151380   3.666   8.429   6.115 -1.2295 -0.5259 -1.1520
48814SOL    HW251381   3.580   8.513   6.208  1.9415  0.7746  0.7783
48815SOL     OW51382   9.769   1.234  10.922  0.0703  0.3845  0.3620
48815SOL    HW151383   9.797   1.145  10.940 -1.3290  0.1761  1.7779
48815SOL    HW251384   9.674   1.233  10.938 -0.3991  1.5597 -1.9629
48816SOL     OW51385   6.637   9.970   2.213 -0.2934  0.0385  0.1831
48816SOL    HW151386   6.548   9.995   2.239  0.0172  0.3635  0.9860
48816SOL    HW251387   6.647  10.006   2.125 -1.3622 -1.0241 -0.3954
48817SOL     OW51388  11.659   3.862   3.081  0.0941  0.0678  0.0826
48817SOL    HW151389  11.646   3.938   3.137 -1.3224 -0.0740 -0.0098
48817SOL    HW251390  11.750   3.867   3.053  0.5285  0.7168  1.5339
48818SOL     OW51391   6.948   4.332   2.797 -0.0092 -0.1845  0.0462
48818SOL    HW151392   7.009   4.381   2.741 -0.5299 -0.3543 -0.6921
48818SOL    HW251393   6.947   4.244   2.759 -0.5652 -0.2345  0.1669
48819SOL     OW51394   1.480   7.941   1.757  0.4690  0.1918 -0.2451
48819SOL    HW151395   1.545   7.984   1.702  0.3203  1.9986  0.9030
48819SOL    HW251396   1.397   7.983   1.733  0.3549  0.7850  1.0673
48820SOL     OW51397   5.399   6.895  11.216 -0.3304  0.1587  0.2454
48820SOL    HW151398   5.305   6.877  11.212 -0.7132  2.0914 -0.4307
48820SOL    HW251399   5.423   6.918  11.126  0.6869  0.1412  0.5042
48821SOL     OW51400  10.727   6.986   1.066 -0.4120  0.0594  0.3200
48821SOL    HW151401  10.695   6.989   0.976 -2.5538 -0.8231  0.9864
48821SOL    HW251402  10.738   7.078   1.091 -1.8649  0.3978 -0.1862
48822SOL     OW51403   7.879   2.935   1.122 -0.2883 -0.1614  0.1701
48822SOL    HW151404   7.943   2.867   1.140  1.4031  1.3508  0.1302
48822SOL    HW251405   7.924   3.017   1.144 -0.8973  1.2407 -3.2602
48823SOL     OW51406   6.192   2.344   9.195 -0.2035 -0.7949 -0.6176
48823SOL    HW151407   6.161   2.435   9.198 -3.5566 -1.7373 -1.9745
48823SOL    HW251408   6.286   2.352   9.178  0.0870  2.3818  1.5889
48824SOL     OW51409   3.589   7.371   6.984 -0.3299  0.4029 -0.0100
48824SOL    HW151410   3.575   7.450   7.035 -1.7848  0.9937 -1.2481
48824SOL    HW251411   3.683   7.368   6.969 -0.1425  1.3582  0.8815
48825SOL     OW51412   2.644  10.219  10.025 -0.0580 -0.1899 -0.2017
48825SOL    HW151413   2.657  10.213  10.120  3.3438  1.6436 -0.3745
48825SOL    HW251414   2.579  10.288  10.014  1.4316  1.4766  0.8738
48826SOL     OW51415   5.875   3.299   1.498 -0.6440  0.3653  0.0816
48826SOL    HW151416   5.859   3.228   1.436 -0.2055  0.4863 -0.1757
48826SOL    HW251417   5.808   3.289   1.565 -1.4021  0.5034 -0.6465
48827SOL     OW51418   2.802   6.518   5.172 -0.5110  0.0475 -0.2202
48827SOL    HW151419   2.894   6.494   5.162  0.1518  2.6177 -0.9557
48827SOL    HW251420   2.798   6.565   5.255  0.1226  4.7637 -2.5469
48828SOL     OW51421   1.905   3.898  10.552 -0.3018  0.1377 -0.2641
48828SOL    HW151422   1.865   3.866  10.472 -1.2507 -1.6058  0.8335
48828SOL    HW251423   1.871   3.841  10.621  1.2907  0.8919  1.2517
48829SOL     OW51424   0.823   8.532   4.526 -0.1224  0.1269 -0.4214
48829SOL    HW151425   0.825   8.565   4.437 -0.8425 -2.3285 -1.4192
48829SOL    HW251426   0.730   8.531   4.549 -0.4720 -3.2827 -1.3801
48830SOL     OW51427  10.937   1.873  10.830  0.1341 -0.6175  0.4941
48830SOL    HW151428  10.892   1.956  10.845 -0.8859 -1.2956  1.3790
48830SOL    HW251429  10.889   1.833  10.757 -0.6183 -1.2470  1.3014
48831SOL     OW51430   7.738  10.752   4.481 -0.0204  0.0304  0.6264
48831SOL    HW151431   7.831  10.771   4.473 -0.1357  0.5298  0.3947
48831SOL    HW251432   7.698  10.801   4.409 -0.4846  0.0242  0.8786
48832SOL     OW51433   8.678   3.940   8.867 -0.1353  0.0624 -0.1193
48832SOL    HW151434   8.712   3.991   8.941  2.0518 -0.6204 -0.5778
48832SOL    HW251435   8.684   3.999   8.792  2.4959 -0.7437 -0.6712
48833SOL     OW51436   8.120  10.366   3.201 -0.0131  0.3115  0.6763
48833SOL    HW151437   8.066  10.287   3.200 -1.1018  1.0391  0.4480
48833SOL    HW251438   8.121  10.395   3.110  2.3668 -0.7170  0.2971
48834SOL     OW51439  10.633   2.560  11.275 -0.0252  0.6882  0.2014
48834SOL    HW151440  10.576   2.637  11.276 -1.3644 -0.2504 -0.7170
48834SOL    HW251441  10.707   2.585  11.220  0.0082  1.6156  0.6513
48835SOL     OW51442   8.168   9.721   9.288  0.0147  0.8433 -0.1679
48835SOL    HW151443   8.137   9.759   9.370  0.2398 -0.7539  0.7012
48835SOL    HW251444   8.209   9.794   9.241  2.4495  1.3186  2.3899
48836SOL     OW51445   3.233   4.327  10.932  0.4938  0.3659 -0.3376
48836SOL    HW151446   3.317   4.369  10.913  2.2355 -1.9296  1.6321
48836SOL    HW251447   3.225   4.259  10.864 -0.3654  1.2601 -1.1643
48837SOL     OW51448   8.704   6.122   2.048  0.1077 -0.1321 -0.3460
48837SOL    HW151449   8.624   6.070   2.052 -0.4456  0.7906  2.3827
48837SOL    HW251450   8.678   6.210   2.076  1.9243  0.3475 -0.0229
48838SOL     OW51451  11.515   9.412   5.592 -0.2182  0.1063 -0.0734
48838SOL    HW151452  11.475   9.389   5.508 -0.4063 -0.0975  0.0694
48838SOL    HW251453  11.455   9.475   5.631 -2.5595 -3.0390  1.8993
48839SOL     OW51454   8.299   7.603   5.373  0.4624 -0.2545  0.3435
48839SOL    HW151455   8.341   7.666   5.314 -0.2829  0.6427  0.7583
48839SOL    HW251456   8.362   7.531   5.378  1.0237  0.1374 -0.6845
48840SOL     OW51457   1.404  10.588   4.346 -0.0578 -0.0929  0.1615
48840SOL    HW151458   1.418  10.578   4.441 -2.1893  1.1986  0.6828
48840SOL    HW251459   1.309  10.590   4.336  0.1232  1.0858 -1.8629
48841SOL     OW51460  10.680  11.266  10.152  0.3948 -0.5739  0.0778
48841SOL    HW151461  10.648  11.327  10.218  0.6259 -0.5681  0.1876
48841SOL    HW251462  10.602  11.222  10.119  0.3815 -1.4097  1.1806
48842SOL     OW51463   6.713   8.741   7.790 -0.0010  0.1966 -0.7640
48842SOL    HW151464   6.695   8.661   7.838  0.3879  1.2853  1.3462
48842SOL    HW251465   6.641   8.750   7.728  0.2225 -1.9960 -1.4142
48843SOL     OW51466   6.189   1.168   3.003 -0.0252  1.1660 -0.2973
48843SOL    HW151467   6.273   1.149   3.046 -0.3389 -0.1596 -0.2152
48843SOL    HW251468   6.137   1.210   3.071 -0.9424 -2.0000  1.1403
48844SOL     OW51469   9.958   2.823   4.472 -0.1409 -0.9276  0.0949
48844SOL    HW151470  10.029   2.782   4.423  1.6133  1.8528  0.1263
48844SOL    HW251471  10.000   2.860   4.549 -1.1557  2.5798 -0.8767
48845SOL     OW51472   2.408   8.341   1.837 -0.8147  0.0537  0.2462
48845SOL    HW151473   2.458   8.273   1.792 -0.9663 -0.0211  0.1902
48845SOL    HW251474   2.347   8.293   1.893 -0.9420  0.1432  0.1846
48846SOL     OW51475   3.331   9.352   9.188  0.5160  0.1189 -0.3490
48846SOL    HW151476   3.416   9.352   9.143  0.9895 -0.4295  0.5094
48846SOL    HW251477   3.327   9.267   9.231 -0.1249  0.4513  0.2681
48847SOL     OW51478   3.937   4.222  11.423  0.0440  0.3100  0.0948
48847SOL    HW151479   3.914   4.155  11.487  1.2837  0.3148  0.5699
48847SOL    HW251480   3.990   4.285  11.472  0.4888  0.6394 -0.7830
48848SOL     OW51481   7.173   5.850   9.407 -0.2277 -0.1692  0.5032
48848SOL    HW151482   7.246   5.888   9.454 -0.1166 -1.9223  1.8638
48848SOL    HW251483   7.208   5.769   9.370 -0.7590  0.3623 -1.2845
48849SOL     OW51484   8.637   0.791   4.012 -0.3790 -0.2140 -0.1237
48849SOL    HW151485   8.711   0.841   4.046  0.7912 -1.3364 -0.9170
48849SOL    HW251486   8.635   0.811   3.918 -1.1842 -0.0774 -0.0820
48850SOL     OW51487   8.611  10.340   4.801 -0.2316  0.3035  0.4045
48850SOL    HW151488   8.641  10.301   4.883 -0.6324 -0.7769  0.0557
48850SOL    HW251489   8.614  10.434   4.816 -2.0489  0.1317  2.3110
48851SOL     OW51490   4.068   9.405  11.611 -0.2753  0.4428  0.7581
48851SOL    HW151491   4.083   9.314  11.639 -1.8419 -0.0323  0.1825
48851SOL    HW251492   3.973   9.411  11.600 -0.0840  1.8048 -0.4014
48852SOL     OW51493   3.252   6.497   6.014  0.4370 -0.2904 -0.1451
48852SOL    HW151494   3.209   6.503   5.929 -0.2638 -1.8053  0.0828
48852SOL    HW251495   3.344   6.515   5.995  0.6504 -2.5445 -1.5977
48853SOL     OW51496   7.362  10.805   2.379  0.4328 -0.5375  0.2513
48853SOL    HW151497   7.431  10.870   2.395 -0.1053  0.0993  0.0103
48853SOL    HW251498   7.309  10.805   2.459  0.0649 -0.2250  0.0090
48854SOL     OW51499   5.982   9.558  11.272  0.2670 -0.0641  0.1328
48854SOL    HW151500   5.963   9.479  11.221  1.1928  0.6099 -1.2844
48854SOL    HW251501   5.973   9.529  11.363 -1.2860 -1.3194 -0.3678
48855SOL     OW51502  10.364   8.243   8.184 -0.0541  0.2030 -0.3434
48855SOL    HW151503  10.374   8.186   8.261 -0.5417 -0.4867 -0.7811
48855SOL    HW251504  10.449   8.239   8.140  0.2803  0.7280  0.2359
48856SOL     OW51505   5.476   3.231   7.414  0.3915 -0.2175  0.7541
48856SOL    HW151506   5.561   3.235   7.457  1.3572  0.3273 -1.1037
48856SOL    HW251507   5.415   3.203   7.483  1.7147  1.2429  2.5954
48857SOL     OW51508   7.977  11.022  10.512  0.5481  0.0486  0.4784
48857SOL    HW151509   8.050  11.084  10.507  1.3107 -0.8457  0.3055
48857SOL    HW251510   8.017  10.940  10.541 -0.3844 -0.4779  0.3139
48858SOL     OW51511   4.363  10.606  11.289  0.3019  0.1122  0.0133
48858SOL    HW151512   4.344  10.547  11.362 -0.4496 -1.1960 -1.1718
48858SOL    HW251513   4.343  10.693  11.321 -0.1479 -0.4515  1.3203
48859SOL     OW51514   1.469   8.207   5.858 -0.3802 -0.2539  0.0517
48859SOL    HW151515   1.511   8.285   5.893 -1.6458  0.7056 -0.4782
48859SOL    HW251516   1.533   8.170   5.797 -0.2127  1.0341 -0.5662
48860SOL     OW51517   8.549   4.359   4.875  0.5659 -0.5937 -0.1272
48860SOL    HW151518   8.608   4.321   4.809 -0.0427  0.7058 -1.4812
48860SOL    HW251519   8.462   4.355   4.834  0.3694  1.4531  0.0266
48861SOL     OW51520   1.899   1.368   4.690 -0.3636  0.4899  0.1407
48861SOL    HW151521   1.898   1.302   4.760  0.7248  0.4624  0.1528
48861SOL    HW251522   1.837   1.434   4.719 -1.4615 -0.5178  0.1430
48862SOL     OW51523  11.099   7.519   5.913  0.1538  0.0979  0.2763
48862SOL    HW151524  11.135   7.591   5.965  0.1351  1.2171 -1.1806
48862SOL    HW251525  11.004   7.532   5.916  0.1865  0.7591 -0.7708
48863SOL     OW51526   2.534   0.234   6.379 -0.0986  0.6678  0.2891
48863SOL    HW151527   2.458   0.181   6.405 -0.0344  0.7546  0.6638
48863SOL    HW251528   2.603   0.209   6.440  1.4293 -2.2864 -2.4064
48864SOL     OW51529   4.803   9.816   5.299 -0.1070  0.1217 -0.0453
48864SOL    HW151530   4.780   9.887   5.360 -0.3361 -0.0033  0.0131
48864SOL    HW251531   4.837   9.861   5.222 -1.6444  0.3685 -0.6162
48865SOL     OW51532   3.775   0.117   2.427 -0.0289  0.0626  0.3258
48865SOL    HW151533   3.813   0.061   2.495 -0.6534 -0.5232  0.2068
48865SOL    HW251534   3.848   0.136   2.368  0.0720 -1.1490  0.0324
48866SOL     OW51535  11.113   9.339   9.754  0.0842  0.1759  0.0660
48866SOL    HW151536  11.107   9.374   9.665  0.3211 -0.2201 -0.1091
48866SOL    HW251537  11.152   9.409   9.805  0.1573  0.3246 -0.1907
48867SOL     OW51538   1.749   1.019   0.383  0.0094 -0.0243  0.0776
48867SOL    HW151539   1.669   1.067   0.404 -0.9824 -1.1674 -0.9095
48867SOL    HW251540   1.799   1.079   0.327 -0.8121  0.1827 -0.4433
48868SOL     OW51541   9.278   3.248   1.779  0.4176 -0.2445  0.0650
48868SOL    HW151542   9.246   3.286   1.861 -1.2207  0.2496 -0.7663
48868SOL    HW251543   9.366   3.217   1.800  0.6434  1.2919  1.5869
48869SOL     OW51544   4.622  11.223   9.820 -0.2401  0.4803  0.3652
48869SOL    HW151545   4.606  11.155   9.885  1.6448 -1.0384 -0.6570
48869SOL    HW251546   4.583  11.191   9.739  0.0938  0.9078  0.0224
48870SOL     OW51547   5.222   1.685   5.962 -0.8312  0.0731 -0.4005
48870SOL    HW151548   5.208   1.753   6.028 -2.0658 -1.0110  0.4912
48870SOL    HW251549   5.311   1.701   5.930 -0.9825  1.9068 -0.0029
48871SOL     OW51550  11.062   5.286   8.769  0.0531 -0.6722 -0.6354
48871SOL    HW151551  11.057   5.377   8.799  0.8852 -0.9946  0.5743
48871SOL    HW251552  11.136   5.249   8.817  0.1620 -1.8101 -1.6266
48872SOL     OW51553  10.119   4.568   6.276 -0.0587 -0.3973  0.5502
48872SOL    HW151554  10.171   4.607   6.347  0.3827 -0.0976  0.0776
48872SOL    HW251555  10.178   4.505   6.235  0.1020  0.2842 -0.2879
48873SOL     OW51556   1.643   4.871   7.032  0.0986 -0.0755 -0.1702
48873SOL    HW151557   1.588   4.942   6.998 -0.2629 -0.0890  0.3832
48873SOL    HW251558   1.624   4.868   7.125  1.2428  0.0933  0.0923
48874SOL     OW51559   2.717   6.859   4.445 -0.0960  0.1475 -0.0924
48874SOL    HW151560   2.726   6.954   4.445 -2.7693  0.5226  1.7710
48874SOL    HW251561   2.650   6.841   4.379 -0.5426 -0.2871  0.4680
48875SOL     OW51562   3.029   3.864   4.771  0.2596  0.2666 -0.1775
48875SOL    HW151563   3.122   3.879   4.786 -0.0595  1.6117  0.6031
48875SOL    HW251564   2.993   3.951   4.753 -0.9350 -0.1700  0.0097
48876SOL     OW51565   9.150  10.877   0.007 -0.2486  0.0566 -0.3085
48876SOL    HW151566   9.154  10.962  -0.037  0.6330 -0.7782 -1.9488
48876SOL    HW251567   9.190  10.892   0.093 -0.0879  1.2883 -0.5815
48877SOL     OW51568   0.688   1.937   1.063 -0.1740  0.0679  0.5908
48877SOL    HW151569   0.721   1.892   0.986  2.1136  1.9278  0.3555
48877SOL    HW251570   0.765   1.953   1.117 -1.3805  0.7433  2.2310
48878SOL     OW51571   9.868   5.147   8.339  0.5817 -0.0138 -0.5298
48878SOL    HW151572   9.951   5.195   8.343  0.7250 -0.2495 -0.6347
48878SOL    HW251573   9.871   5.088   8.413  1.1300 -1.0130 -1.3219
48879SOL     OW51574   4.052   5.375   8.588  0.0421  0.2690  0.2492
48879SOL    HW151575   4.141   5.353   8.615  0.2753  1.5722  0.6440
48879SOL    HW251576   4.063   5.422   8.505 -0.2595  0.5202  0.3486
48880SOL     OW51577   9.669   3.451   3.591 -0.2378 -0.0006 -0.8116
48880SOL    HW151578   9.734   3.386   3.564  0.1961  0.4177 -0.8019
48880SOL    HW251579   9.599   3.401   3.632  1.1841 -0.2881  1.3972
48881SOL     OW51580   1.885   1.257   8.428 -0.3111 -0.1398  0.0577
48881SOL    HW151581   1.922   1.288   8.511 -1.7713 -0.0317  0.7139
48881SOL    HW251582   1.960   1.247   8.370  0.6312  0.8208  1.0637
48882SOL     OW51583  11.579   5.287  10.643 -0.1267 -0.3066 -0.7379
48882SOL    HW151584  11.570   5.258  10.733 -0.2808 -0.1113 -0.6875
48882SOL    HW251585  11.489   5.292  10.610 -0.1971  1.0579 -0.4326
48883SOL     OW51586   4.017   1.320  10.207  0.1676 -0.4522  0.2514
48883SOL    HW151587   4.022   1.258  10.280 -1.0974  0.1219  0.8644
48883SOL    HW251588   4.019   1.406  10.248  0.3712 -0.1045 -0.4691
48884SOL     OW51589   5.852  10.427   8.497  0.6688 -0.4729 -0.0272
48884SOL    HW151590   5.852  10.333   8.512 -3.0484 -0.3502  1.8361
48884SOL    HW251591   5.865  10.437   8.402  4.9420 -2.4915  0.1329
48885SOL     OW51592   3.425   3.622  11.242  0.2239  0.2772  0.1349
48885SOL    HW151593   3.465   3.705  11.266  2.2565 -0.3595 -0.8303
48885SOL    HW251594   3.435   3.567  11.320  2.0232 -0.1210 -0.3384
48886SOL     OW51595   7.051   6.086   7.478 -0.0853  0.2815  0.1840
48886SOL    HW151596   7.130   6.031   7.480  2.0827  3.0836 -1.2223
48886SOL    HW251597   7.061   6.144   7.553 -0.9962  0.4587  0.1693
48887SOL     OW51598   2.108   7.637   1.021 -0.3069 -0.4683 -0.3685
48887SOL    HW151599   2.064   7.552   1.018 -1.3897  0.0081  1.2059
48887SOL    HW251600   2.169   7.634   0.947 -0.8321 -2.3219 -0.7867
48888SOL     OW51601   9.289   8.804   2.125 -0.7996 -0.3965 -0.3261
48888SOL    HW151602   9.369   8.857   2.131  0.2460 -1.9816  0.3221
48888SOL    HW251603   9.250   8.812   2.212 -0.5845 -0.7687 -0.1946
48889SOL     OW51604   2.003   4.388   5.125  0.2576 -0.1506 -0.1607
48889SOL    HW151605   1.977   4.476   5.098  0.1865 -0.2223 -0.3229
48889SOL    HW251606   1.956   4.374   5.207  3.2811  1.5502  2.1027
48890SOL     OW51607   8.307   3.885   6.356 -0.4742 -0.2214  0.4726
48890SOL    HW151608   8.331   3.965   6.309  1.0989 -0.5563  0.6314
48890SOL    HW251609   8.309   3.816   6.289 -0.2647 -0.3706  0.6297
48891SOL     OW51610   0.114   5.326   5.029 -0.1087  0.0929 -0.1503
48891SOL    HW151611   0.048   5.260   5.051  1.4526 -2.0688 -1.5548
48891SOL    HW251612   0.092   5.401   5.084 -4.6376  0.1299 -1.6335
48892SOL     OW51613   5.171   2.483   1.411  0.2827  0.1122  0.0634
48892SOL    HW151614   5.248   2.440   1.374 -1.0934 -0.2649 -2.5830
48892SOL    HW251615   5.097   2.430   1.381 -1.1718  1.7507  0.5702
48893SOL     OW51616   1.497   1.162   0.335 -0.6098  0.3157 -0.2988
48893SOL    HW151617   1.440   1.204   0.400 -0.0777  0.6063 -0.0128
48893SOL    HW251618   1.548   1.234   0.298  2.4634 -0.3476  2.2949
48894SOL     OW51619   6.036   0.000  11.635 -0.0698 -0.0183  0.3532
48894SOL    HW151620   5.958   0.016  11.689 -0.4671 -1.6571  0.3127
48894SOL    HW251621   6.010   0.026  11.547 -0.9134 -1.4326  0.1632
48895SOL     OW51622   3.113  10.880   6.587 -0.2770 -0.5335 -0.1428
48895SOL    HW151623   3.137  10.787   6.587  0.3130 -0.3953 -0.9474
48895SOL    HW251624   3.048  10.887   6.517  0.3886 -0.1868 -0.7439
48896SOL     OW51625   3.287   1.829   9.549 -0.2200  0.2863  0.4848
48896SOL    HW151626   3.281   1.851   9.456  1.4474 -0.5611  0.1374
48896SOL    HW251627   3.336   1.747   9.551 -0.5195  0.1185  2.1017
48897SOL     OW51628   5.997   5.435   4.751  0.2749 -0.2098  0.0294
48897SOL    HW151629   6.079   5.425   4.702  0.3343 -0.0347  0.0937
48897SOL    HW251630   5.995   5.360   4.810  0.7778  0.2157  0.5937
48898SOL     OW51631   0.270   2.517   6.173  0.3516  0.3604 -0.3576
48898SOL    HW151632   0.337   2.497   6.239 -0.8481 -2.0310  0.2636
48898SOL    HW251633   0.189   2.526   6.224 -0.2805  0.3160 -1.3392
48899SOL     OW51634   6.827   1.719   1.960 -0.1525  0.4144 -0.6951
48899SOL    HW151635   6.799   1.631   1.934 -1.5198 -0.1124  2.1483
48899SOL    HW251636   6.910   1.705   2.005 -1.3860  0.1214  1.6961
48900SOL     OW51637   0.714   6.344   9.099  0.1823 -0.1260 -0.0074
48900SOL    HW151638   0.719   6.249   9.106 -0.8899 -0.2833 -1.0503
48900SOL    HW251639   0.705   6.374   9.189 -3.3323 -1.3124  0.1974
48901SOL     OW51640   4.489  10.808   1.423 -0.2195  0.3282 -0.0655
48901SOL    HW151641   4.484  10.847   1.336 -0.9008 -0.8904 -0.5936
48901SOL    HW251642   4.581  10.783   1.433  0.0694  1.3797 -0.0150
48902SOL     OW51643   0.318   5.827  10.019  0.5124 -0.5361  0.1450
48902SOL    HW151644   0.403   5.867  10.040  0.0708 -0.2985  1.5885
48902SOL    HW251645   0.339   5.737   9.995  1.1164 -0.7728  1.4427
48903SOL     OW51646   6.736   3.549   9.630 -0.0678 -0.2918 -0.0527
48903SOL    HW151647   6.807   3.559   9.566 -0.6034  0.9840 -0.4913
48903SOL    HW251648   6.672   3.494   9.585 -0.7304  1.1130 -0.9328
48904SOL     OW51649   4.774   2.316   2.826  0.1147  0.4893 -0.1137
48904SOL    HW151650   4.799   2.406   2.803  1.8939 -0.1351 -0.7883
48904SOL    HW251651   4.761   2.318   2.921  0.4762  1.3768 -0.0714
48905SOL     OW51652   2.197  11.304   8.054  0.2951  0.1501  0.7547
48905SOL    HW151653   2.134  11.298   7.983  0.3774 -0.1618  0.7063
48905SOL    HW251654   2.167  11.377   8.108  0.0899  0.2221  0.5416
48906SOL     OW51655   3.791   7.504   0.916 -0.2971 -0.2251 -0.4624
48906SOL    HW151656   3.872   7.473   0.874 -0.9443 -0.8814 -1.2614
48906SOL    HW251657   3.741   7.425   0.932 -0.3677  0.0827  0.9583
48907SOL     OW51658   1.220   7.502   1.775 -0.6088  0.2346 -0.7022
48907SOL    HW151659   1.187   7.592   1.774 -2.0595 -0.2224  0.8717
48907SOL    HW251660   1.143   7.449   1.795  0.1499 -1.4207 -1.8789
48908SOL     OW51661   5.039   4.746   2.792  0.4255 -0.4986  0.4138
48908SOL    HW151662   5.011   4.730   2.882  0.2503 -0.1527  0.4239
48908SOL    HW251663   5.037   4.660   2.750  1.3313 -0.8091  0.9635
48909SOL     OW51664   1.260   3.875   7.181 -0.2924  0.2745  0.1999
48909SOL    HW151665   1.253   3.960   7.225 -2.0142 -0.4292  1.3785
48909SOL    HW251666   1.201   3.883   7.106  0.4256  0.4938 -0.3469
48910SOL     OW51667   0.898   5.544   4.523  0.1742 -0.8117 -0.8281
48910SOL    HW151668   0.843   5.478   4.482 -1.9536  0.0988  0.3741
48910SOL    HW251669   0.920   5.507   4.609  1.9367 -1.3741 -1.4736
48911SOL     OW51670   0.970   0.373   3.478 -0.1157  0.2160 -0.0083
48911SOL    HW151671   0.981   0.452   3.530  0.3852  2.1833 -2.9141
48911SOL    HW251672   1.059   0.341   3.463 -0.2932 -0.7398  0.8025
48912SOL     OW51673   4.017   3.076  11.377 -0.4502 -0.6503  0.3994
48912SOL    HW151674   4.099   3.124  11.375  0.1479 -1.6450  0.2419
48912SOL    HW251675   3.996   3.059  11.285 -0.5803 -0.7989  0.4544
48913SOL     OW51676   0.947   9.770   5.116 -0.5584  0.6152  0.1453
48913SOL    HW151677   1.023   9.747   5.170 -0.1021  0.3629 -0.5866
48913SOL    HW251678   0.877   9.712   5.148  0.1482 -0.7001 -0.6076
48914SOL     OW51679   0.754   1.318   2.615  0.5758  0.3229  0.0925
48914SOL    HW151680   0.774   1.229   2.586 -0.6014 -0.9166  2.6961
48914SOL    HW251681   0.670   1.338   2.572  0.5402 -0.0831 -0.0395
48915SOL     OW51682   3.961   6.628   6.657 -0.2769 -0.2358  0.2944
48915SOL    HW151683   3.902   6.675   6.597  0.0838 -1.5415 -1.1425
48915SOL    HW251684   3.994   6.696   6.716 -0.9742  1.0367 -0.7240
48916SOL     OW51685   4.811   8.332   4.022 -0.6910  0.2375 -0.5291
48916SOL    HW151686   4.744   8.395   4.049  1.2833  2.8619 -1.3643
48916SOL    HW251687   4.834   8.357   3.933  1.1364 -0.8322 -0.4153
48917SOL     OW51688   7.375  10.181   6.772  0.0093  0.0114  0.6659
48917SOL    HW151689   7.418  10.180   6.687 -0.4462  1.6174  0.3914
48917SOL    HW251690   7.330  10.096   6.778 -1.6290  0.6370 -1.5904
48918SOL     OW51691  11.526   7.441   0.464 -0.2184 -0.5600 -0.1418
48918SOL    HW151692  11.505   7.357   0.424  0.1590 -0.3266 -0.8720
48918SOL    HW251693  11.450   7.497   0.444  0.3978 -0.1454 -1.4785
48919SOL     OW51694  11.361   2.852   3.768 -0.0604 -0.7317 -0.3161
48919SOL    HW151695  11.363   2.849   3.864  1.5817  0.0979 -0.2938
48919SOL    HW251696  11.373   2.945   3.746 -0.5836 -0.8891 -1.3254
48920SOL     OW51697   9.566   4.553  11.659 -0.1428 -0.4948 -0.4753
48920SOL    HW151698   9.563   4.623  11.593  1.9408 -1.1411 -1.3394
48920SOL    HW251699   9.499   4.578  11.723 -1.4888  0.7432 -2.2452
48921SOL     OW51700   8.547   9.844   7.037  0.0612  0.1755  0.4341
48921SOL    HW151701   8.460   9.804   7.043 -0.1666  0.7971  1.6147
48921SOL    HW251702   8.530   9.938   7.047  0.7122  0.4792 -1.0424
48922SOL     OW51703   6.608   2.981  11.118 -0.2886 -0.3603  0.0292
48922SOL    HW151704   6.640   2.996  11.207  0.7038 -0.1456 -0.3504
48922SOL    HW251705   6.679   2.934  11.075 -0.7333 -0.3966 -0.6700
48923SOL     OW51706   9.399   1.126  11.551 -0.4533 -0.4979  0.5984
48923SOL    HW151707   9.307   1.113  11.527 -0.1564 -1.8286  0.0823
48923SOL    HW251708   9.410   1.221  11.551 -0.9828 -0.3062 -2.8010
48924SOL     OW51709   6.513   1.249   1.165  0.2740  0.0486 -0.0141
48924SOL    HW151710   6.518   1.338   1.130  3.7710 -0.0442 -0.1059
48924SOL    HW251711   6.460   1.257   1.244  0.1680  2.1176 -0.2345
48925SOL     OW51712   2.915   0.955   1.074  0.0131 -0.0835 -0.6917
48925SOL    HW151713   2.914   0.963   0.978 -0.0663 -1.2722 -0.7990
48925SOL    HW251714   2.962   0.874   1.091 -1.8073 -1.0190  0.1762
48926SOL     OW51715   1.507   4.905   4.132  0.3041 -0.0942 -0.4007
48926SOL    HW151716   1.504   4.952   4.215 -0.0974 -1.2692  0.2810
48926SOL    HW251717   1.545   4.820   4.154 -1.3945 -1.0871 -1.0584
48927SOL     OW51718  11.243   4.926   6.294 -0.3614  0.6065  0.4876
48927SOL    HW151719  11.326   4.915   6.247 -0.3817 -0.0100  0.5840
48927SOL    HW251720  11.195   4.992   6.244 -0.9019 -0.9355 -1.0883
48928SOL     OW51721   1.113   6.425   0.551 -0.2919 -0.3465  0.4260
48928SOL    HW151722   1.193   6.478   0.559  0.8208 -2.0419  1.1430
48928SOL    HW251723   1.132   6.364   0.479 -1.0073 -0.6726  0.5017
48929SOL     OW51724   4.007   4.062   0.723 -0.3296 -0.0393  0.2088
48929SOL    HW151725   3.964   3.977   0.715 -0.0261 -0.2085  0.3489
48929SOL    HW251726   4.012   4.078   0.817 -0.4477  0.1688  0.1817
48930SOL     OW51727   0.038  11.071   2.817 -0.3194  0.2744 -0.8571
48930SOL    HW151728   0.118  11.060   2.868  0.4830 -1.1620 -2.3341
48930SOL    HW251729  -0.011  10.989   2.830 -0.5785  0.3068 -1.5895
48931SOL     OW51730   5.911   3.243  11.559  0.3193 -0.0816  0.0730
48931SOL    HW151731   5.992   3.276  11.599 -0.5287  0.5597  1.3146
48931SOL    HW251732   5.842   3.271  11.618 -0.9168  0.1084 -1.3882
48932SOL     OW51733  11.151  11.507  10.088 -0.2217  0.1166  0.0094
48932SOL    HW151734  11.063  11.479  10.111 -0.5714  1.1383 -0.0138
48932SOL    HW251735  11.159  11.489   9.995  0.0928 -1.2103  0.2747
48933SOL     OW51736   8.924   6.082   5.059  0.3277 -0.0501  0.1389
48933SOL    HW151737   8.978   6.003   5.062  1.1849  0.4870 -0.4580
48933SOL    HW251738   8.959   6.132   4.985  0.2073  1.1666  0.8668
48934SOL     OW51739   7.090   2.472   6.969  0.3597 -0.8688  0.1220
48934SOL    HW151740   7.160   2.425   7.015  1.4812  1.7865  1.2879
48934SOL    HW251741   7.134   2.516   6.896 -0.1537  0.4300  0.5672
48935SOL     OW51742   8.937   4.546  10.663 -0.1750 -0.0442  0.0479
48935SOL    HW151743   8.955   4.576  10.752 -0.6756 -0.7715  0.4109
48935SOL    HW251744   8.882   4.468  10.675  1.0549 -1.1050 -0.8375
48936SOL     OW51745  10.660   5.820   8.521 -0.4217  0.4654 -0.0454
48936SOL    HW151746  10.652   5.915   8.525  1.8132  0.6831  1.1322
48936SOL    HW251747  10.694   5.802   8.433 -0.1866  0.8404 -0.0344
48937SOL     OW51748  11.626   4.209  10.241  0.2608 -0.4155 -0.0762
48937SOL    HW151749  11.602   4.119  10.219  1.5200 -0.6155 -0.7195
48937SOL    HW251750  11.575   4.263  10.180  0.7438 -0.7849 -0.8157
48938SOL     OW51751   4.968   4.401   1.361 -0.4689  0.5878 -0.1790
48938SOL    HW151752   4.919   4.461   1.417  0.5683  1.0908  0.2008
48938SOL    HW251753   5.055   4.441   1.352  0.7726 -1.5798  1.3456
48939SOL     OW51754   6.703   7.667   2.293  0.9219 -0.2124 -0.1981
48939SOL    HW151755   6.769   7.700   2.354  0.0537  0.7076  0.2672
48939SOL    HW251756   6.680   7.743   2.240 -0.3554 -0.3032  0.1987
48940SOL     OW51757   6.352   4.609   5.530 -0.5812  0.1969 -0.3277
48940SOL    HW151758   6.432   4.596   5.479 -0.6150 -0.4348 -0.2301
48940SOL    HW251759   6.373   4.574   5.616 -0.6761  0.8404 -0.0423
48941SOL     OW51760   5.270   0.245   0.962  0.2268 -0.3542 -0.2025
48941SOL    HW151761   5.346   0.302   0.977  0.3092 -0.7164  0.8432
48941SOL    HW251762   5.307   0.165   0.924  0.1847  0.0254 -1.0675
48942SOL     OW51763   9.818   6.123  10.799 -0.0343 -0.8930 -0.1401
48942SOL    HW151764   9.799   6.201  10.746  2.3115 -0.9077 -1.1394
48942SOL    HW251765   9.764   6.054  10.760  0.3767 -0.5045 -1.4852
48943SOL     OW51766   0.774   4.840   0.869  0.1891 -0.4739  0.3662
48943SOL    HW151767   0.739   4.892   0.941  0.2364  0.5649 -0.3366
48943SOL    HW251768   0.857   4.805   0.901 -0.3813 -1.0535  1.2372
48944SOL     OW51769   7.252   5.262   8.828 -0.3155 -0.0249  0.7030
48944SOL    HW151770   7.275   5.352   8.806  1.2871 -0.9416 -1.8458
48944SOL    HW251771   7.323   5.233   8.886  0.1521 -0.1524  0.0792
48945SOL     OW51772   7.509   5.053   0.959 -0.4265  0.2147 -0.8087
48945SOL    HW151773   7.571   4.989   0.994 -1.6947 -1.3460 -1.2888
48945SOL    HW251774   7.540   5.070   0.870  1.5600  2.5415  0.2223
48946SOL     OW51775  11.079   9.864   4.000 -0.5230  0.3585  0.1284
48946SOL    HW151776  11.094   9.905   4.085 -1.9189  0.6947  0.2334
48946SOL    HW251777  11.002   9.807   4.015  0.7444 -1.5505 -0.2607
48947SOL     OW51778   4.772   8.639   0.001 -0.4156 -0.5822  0.1063
48947SOL    HW151779   4.757   8.721  -0.046  1.1717 -0.3533 -0.0722
48947SOL    HW251780   4.795   8.667   0.090  0.4687 -0.8026 -0.0463
48948SOL     OW51781   2.924   9.370   3.599 -0.2169 -0.0829  0.7194
48948SOL    HW151782   2.953   9.460   3.613 -0.2601  0.1549 -0.6393
48948SOL    HW251783   2.903   9.365   3.506 -0.2319 -1.4972  0.7733
48949SOL     OW51784  10.310  10.365   0.937 -0.4555 -0.6323 -0.5244
48949SOL    HW151785  10.275  10.291   0.887  0.4589 -0.6020 -1.2449
48949SOL    HW251786  10.396  10.335   0.967  0.4932  0.5495 -1.9188
48950SOL     OW51787  11.280   9.776  11.462  0.2310 -0.1833  0.2316
48950SOL    HW151788  11.262   9.842  11.529 -0.9342  0.9774 -1.1618
48950SOL    HW251789  11.218   9.796  11.392 -0.4711 -3.0620 -0.0691
48951SOL     OW51790   2.409   7.650   7.006  0.8170 -0.2748  0.3395
48951SOL    HW151791   2.470   7.577   6.991 -0.0222 -0.6014 -1.9792
48951SOL    HW251792   2.327   7.620   6.965 -0.2501  1.0361  1.4444
48952SOL     OW51793   6.295   4.457  10.710 -0.0717 -0.0166  0.5133
48952SOL    HW151794   6.254   4.387  10.761 -1.3120  0.2108 -0.1472
48952SOL    HW251795   6.282   4.536  10.763 -1.8931  0.3281 -0.3715
48953SOL     OW51796   6.392   6.584   2.782  0.3704  0.1883  0.1319
48953SOL    HW151797   6.352   6.514   2.730 -2.0687  2.1528 -0.8114
48953SOL    HW251798   6.448   6.537   2.845 -0.6798 -2.5498 -0.8049
48954SOL     OW51799   8.099   9.246   5.154  0.0437 -0.4924 -0.1663
48954SOL    HW151800   8.100   9.241   5.059  0.0045 -1.6156 -0.1172
48954SOL    HW251801   8.162   9.316   5.175 -0.2961  0.0866 -1.0159
48955SOL     OW51802   3.630  10.841  10.048 -0.4453  0.0084 -0.4786
48955SOL    HW151803   3.578  10.779   9.996 -1.9107 -1.1259  2.1480
48955SOL    HW251804   3.715  10.844  10.003 -1.5723 -0.8882 -2.8712
48956SOL     OW51805  11.330  11.006   3.138  0.0918  0.1744 -0.1560
48956SOL    HW151806  11.265  11.065   3.176 -0.5419 -0.3726 -0.3707
48956SOL    HW251807  11.412  11.029   3.183 -0.0105  1.6030 -0.6503
48957SOL     OW51808   0.704   5.469   2.535 -0.2778 -0.0556 -0.2335
48957SOL    HW151809   0.789   5.481   2.578  0.3083 -3.1007 -0.3318
48957SOL    HW251810   0.721   5.490   2.443  0.5381 -1.0208 -0.3290
48958SOL     OW51811   8.496   9.302   0.840  0.1703  0.1508  0.6433
48958SOL    HW151812   8.502   9.263   0.753  0.6358 -0.6923  1.0361
48958SOL    HW251813   8.563   9.257   0.891  1.1973  1.9419  0.9611
48959SOL     OW51814   0.960   5.880   1.219  0.5370  0.4948  0.0763
48959SOL    HW151815   0.872   5.855   1.192  1.0713 -1.7094  0.1813
48959SOL    HW251816   0.996   5.926   1.143 -0.0377 -0.3488 -0.7312
48960SOL     OW51817   5.009   6.337   9.496 -0.3468 -0.6446  0.1785
48960SOL    HW151818   4.958   6.258   9.479 -0.5442 -0.6387  0.7155
48960SOL    HW251819   4.955   6.388   9.556 -0.7496  0.4416 -1.0490
48961SOL     OW51820  10.295   7.067   0.402 -0.7830  0.5511 -0.2288
48961SOL    HW151821  10.205   7.073   0.435 -0.8081 -1.8521  0.2956
48961SOL    HW251822  10.287   7.024   0.317 -0.0963 -0.5315  0.2312
48962SOL     OW51823   4.726   8.953   8.555 -0.0814 -0.0398 -0.0921
48962SOL    HW151824   4.721   8.943   8.460  0.0433  2.6656 -0.4515
48962SOL    HW251825   4.817   8.979   8.571  0.1745 -1.4410  0.9292
48963SOL     OW51826   0.427   4.130   5.825 -0.5472 -0.1169  0.1458
48963SOL    HW151827   0.367   4.146   5.898  0.5780 -0.9812  1.3092
48963SOL    HW251828   0.478   4.211   5.817  0.3071 -0.5050  1.3226
48964SOL     OW51829   8.218   2.357   8.974  0.0337  0.7016  0.2734
48964SOL    HW151830   8.263   2.440   8.987 -0.1111  0.8483 -0.1593
48964SOL    HW251831   8.149   2.376   8.912  0.1276  0.2107  0.0097
48965SOL     OW51832   0.371   3.964   7.593 -0.1169  0.2719 -0.0267
48965SOL    HW151833   0.400   3.915   7.670 -0.1680 -2.3182 -1.5609
48965SOL    HW251834   0.341   4.048   7.628  0.0716 -0.7272  2.7399
48966SOL     OW51835   7.097   0.814   1.374 -0.1911  0.0188 -0.5985
48966SOL    HW151836   7.114   0.900   1.412 -0.1277 -0.2836  0.0654
48966SOL    HW251837   7.097   0.754   1.448  1.4855 -0.8205 -1.2348
48967SOL     OW51838   5.477   8.121   1.699  0.4495 -0.1711 -0.1014
48967SOL    HW151839   5.443   8.081   1.779  1.5478 -1.3038 -0.1780
48967SOL    HW251840   5.415   8.095   1.630 -1.9028  2.8098  0.6792
48968SOL     OW51841  11.461  11.378   1.267  0.9198  0.6546 -0.1293
48968SOL    HW151842  11.535  11.345   1.319  0.1268 -0.2740  0.4335
48968SOL    HW251843  11.401  11.304   1.260 -1.0507  2.0087  1.4206
48969SOL     OW51844   8.859   9.705   5.033 -0.1573  0.0497  0.2321
48969SOL    HW151845   8.845   9.777   5.095 -0.3712  0.2382 -0.0314
48969SOL    HW251846   8.878   9.750   4.950 -0.3215 -0.2016  0.0609
48970SOL     OW51847  10.255   1.415   1.790  0.0433 -0.1487 -0.4389
48970SOL    HW151848  10.189   1.366   1.741 -1.2781  0.7551  0.3283
48970SOL    HW251849  10.258   1.372   1.876 -2.4397  1.9966  0.8773
48971SOL     OW51850   2.386   8.863   3.398  0.0350 -0.3735 -0.1677
48971SOL    HW151851   2.459   8.888   3.341 -0.0346 -0.4452 -0.2892
48971SOL    HW251852   2.410   8.776   3.431  0.6569  0.1720  0.8911
48972SOL     OW51853   9.400  11.628   0.806 -0.6079  0.0532  0.2295
48972SOL    HW151854   9.360  11.676   0.879 -0.0037 -0.4628  0.9182
48972SOL    HW251855   9.376  11.678   0.728 -3.3501 -0.7103  0.4969
48973SOL     OW51856  10.586   1.805   6.355 -0.0240 -0.1534  0.0209
48973SOL    HW151857  10.519   1.871   6.338  0.7961  0.4028 -1.1504
48973SOL    HW251858  10.588   1.798   6.451 -0.3627  1.2780  0.1588
48974SOL     OW51859   5.968   7.811   6.979 -0.4369  0.3657  0.5646
48974SOL    HW151860   5.918   7.748   6.927  1.5601  0.2065 -1.2862
48974SOL    HW251861   5.999   7.761   7.054  0.0248 -0.5122 -0.1968
48975SOL     OW51862   5.773   3.072   0.242  0.1558  0.3778 -0.2449
48975SOL    HW151863   5.836   3.113   0.300 -0.1576  1.9189 -0.9598
48975SOL    HW251864   5.816   3.070   0.157 -0.0405 -0.3202 -0.3398
48976SOL     OW51865   4.255   3.626   2.563  0.5326  0.4421 -0.1203
48976SOL    HW151866   4.325   3.569   2.532  0.5599  0.7698 -0.6787
48976SOL    HW251867   4.243   3.689   2.492 -0.9466 -0.1627 -0.4402
48977SOL     OW51868   6.637   7.738  10.843 -0.0644  0.1626  0.5648
48977SOL    HW151869   6.573   7.686  10.794 -0.6779  1.5652 -0.1822
48977SOL    HW251870   6.721   7.715  10.803 -0.3708  0.0333 -0.0191
48978SOL     OW51871   2.911   0.984   5.548 -0.1179  0.1469 -0.2406
48978SOL    HW151872   2.978   1.031   5.597 -1.0413  0.7040  0.5244
48978SOL    HW251873   2.894   1.040   5.471 -0.4649  0.5440  0.1220
48979SOL     OW51874   2.911   8.027  10.812  0.4665 -0.1730 -0.1561
48979SOL    HW151875   2.901   8.122  10.815 -0.3976 -0.2230 -0.8416
48979SOL    HW251876   2.845   7.998  10.749 -0.3094 -1.3647  1.1309
48980SOL     OW51877   7.066   3.347   3.543 -0.2263  0.1014 -0.2165
48980SOL    HW151878   7.052   3.321   3.634 -1.3969 -1.9490 -0.9023
48980SOL    HW251879   7.099   3.437   3.548  0.0433 -0.0640  2.2202
48981SOL     OW51880  11.215   9.264  10.012 -0.1396  0.2144 -0.1685
48981SOL    HW151881  11.212   9.212   9.932  1.1294  0.2389 -0.2570
48981SOL    HW251882  11.251   9.204  10.078  1.3334  0.9429 -0.2710
48982SOL     OW51883   3.861   7.812   4.713  0.3318 -0.0036 -0.2233
48982SOL    HW151884   3.797   7.745   4.737  1.5615 -0.7106  1.2828
48982SOL    HW251885   3.839   7.836   4.623 -1.5704 -0.7449  0.0038
48983SOL     OW51886   9.184  11.689   9.902  0.1077  0.2442 -0.3992
48983SOL    HW151887   9.166  11.662   9.993  2.0713 -0.5527 -0.1904
48983SOL    HW251888   9.155  11.614   9.850 -1.2014  0.7791 -0.4900
48984SOL     OW51889   1.000   1.833   5.999 -0.1401 -0.0267  0.4658
48984SOL    HW151890   1.094   1.835   6.020  0.0333  1.2278 -0.3451
48984SOL    HW251891   0.993   1.764   5.932  0.3675  0.4712 -0.1225
48985SOL     OW51892   3.624   6.314   6.863 -0.0736  0.5406  0.3841
48985SOL    HW151893   3.661   6.322   6.951  0.7525  0.9916 -0.0015
48985SOL    HW251894   3.695   6.338   6.804 -0.7546  0.6828 -0.3978
48986SOL     OW51895   4.189   2.351   8.573  0.1696 -0.0451  0.2993
48986SOL    HW151896   4.176   2.256   8.568 -2.4288  0.2138  0.8382
48986SOL    HW251897   4.192   2.369   8.667 -0.5801  0.5205  0.2214
48987SOL     OW51898   3.056   2.008  11.512  0.1480  0.1983  0.5461
48987SOL    HW151899   3.084   2.078  11.571  2.9012  0.6204 -1.0890
48987SOL    HW251900   3.006   2.053  11.443 -0.0476  0.2195  0.7022
48988SOL     OW51901   7.952  10.663   7.976  0.5077 -0.3851  0.4451
48988SOL    HW151902   7.870  10.689   8.018  0.3871  0.0330 -0.0377
48988SOL    HW251903   7.933  10.580   7.933  0.0578  0.1875 -0.4829
48989SOL     OW51904  10.514   8.826   6.264  0.5108  0.3063 -0.2633
48989SOL    HW151905  10.531   8.757   6.200  0.5415  1.4640 -1.5347
48989SOL    HW251906  10.483   8.900   6.213 -1.4281  0.6455  1.2553
48990SOL     OW51907   1.049   2.607   5.950  0.3314  0.3743 -0.2051
48990SOL    HW151908   1.036   2.565   5.864  0.8264 -1.5565  0.6038
48990SOL    HW251909   1.108   2.680   5.932 -1.1180  1.2373 -1.7974
48991SOL     OW51910  10.611   6.355  10.268  0.2786  0.4848 -0.6620
48991SOL    HW151911  10.583   6.444  10.287  0.3415  0.5460 -0.8464
48991SOL    HW251912  10.702   6.365  10.239  0.8366  0.1825  0.8992
48992SOL     OW51913   1.335  11.098  11.127  0.6411  0.3234  0.2380
48992SOL    HW151914   1.251  11.074  11.166  1.5512 -2.5677  0.6342
48992SOL    HW251915   1.363  11.175  11.176 -0.8803  0.1653  1.4319
48993SOL     OW51916   2.747  11.112   6.331  0.1436 -0.8006  0.1633
48993SOL    HW151917   2.736  11.018   6.346  2.2502 -0.9156  1.4085
48993SOL    HW251918   2.803  11.117   6.253 -0.6732 -0.5263 -0.4215
48994SOL     OW51919   9.271   9.695  11.658 -0.2675  0.5605  0.2472
48994SOL    HW151920   9.318   9.752  11.719 -0.7106 -0.3807  1.5062
48994SOL    HW251921   9.235   9.625  11.713  2.0842 -2.2071 -1.4547
48995SOL     OW51922   0.934   7.010   4.941 -0.6900 -0.5854  0.3950
48995SOL    HW151923   0.839   6.998   4.937 -0.6434 -3.0044  3.0930
48995SOL    HW251924   0.969   6.943   4.881 -0.6898 -0.8768  0.7154
48996SOL     OW51925   6.970   3.961   6.802 -0.6089 -0.1693 -0.2163
48996SOL    HW151926   6.974   3.981   6.896  0.4762  1.0859 -0.5071
48996SOL    HW251927   6.979   4.045   6.759  1.9710 -0.9933 -1.4977
48997SOL     OW51928   4.238   5.636  11.531  0.4393  0.0305 -0.1297
48997SOL    HW151929   4.192   5.571  11.477  1.9351 -1.1654 -0.0502
48997SOL    HW251930   4.304   5.673  11.472  0.0214  1.0166  0.0155
48998SOL     OW51931   2.296   1.856   4.729  0.5677 -0.1891  0.0555
48998SOL    HW151932   2.215   1.891   4.692  0.5105 -0.9910 -0.5931
48998SOL    HW251933   2.276   1.765   4.748  0.7844  0.0530  1.5352
48999SOL     OW51934   5.239   9.031   1.723  0.3210 -0.5971  0.0307
48999SOL    HW151935   5.198   8.948   1.749  1.5828 -1.7597 -1.5257
48999SOL    HW251936   5.209   9.046   1.633  0.7891  0.1976 -0.0054
49000SOL     OW51937   4.728   9.644   1.228 -0.2083 -0.9402 -0.3681
49000SOL    HW151938   4.647   9.613   1.267 -1.1371  0.4704 -1.0883
49000SOL    HW251939   4.747   9.726   1.275  1.7130 -2.0396  0.9139
49001SOL     OW51940   2.608   0.736   9.556  0.8866  0.2672 -0.1972
49001SOL    HW151941   2.664   0.809   9.530  1.1156 -0.4480 -1.8435
49001SOL    HW251942   2.519   0.770   9.549  0.9071  0.0108 -2.4676
49002SOL     OW51943  11.349   6.416   3.907  0.4799  0.7388 -0.3093
49002SOL    HW151944  11.432   6.420   3.954 -0.3635  0.6591  1.2298
49002SOL    HW251945  11.327   6.323   3.905  1.1694  0.5788 -2.1102
49003SOL     OW51946   0.485   6.418   0.519  0.2137 -0.8002 -0.1687
49003SOL    HW151947   0.481   6.449   0.429 -0.1325  0.1221  0.1535
49003SOL    HW251948   0.515   6.494   0.570 -0.9765 -0.8634  0.6819
49004SOL     OW51949   8.717   0.732  10.322  0.3314  0.2224  0.0690
49004SOL    HW151950   8.732   0.729  10.416  0.8360 -1.5413 -0.0359
49004SOL    HW251951   8.750   0.818  10.295  2.6273 -0.2530  1.1134
49005SOL     OW51952   8.438   4.143  10.175  0.2626  1.1875  0.3502
49005SOL    HW151953   8.489   4.137  10.256 -0.0714 -0.0216  0.4914
49005SOL    HW251954   8.386   4.222  10.186 -0.1104  0.8040  1.5316
49006SOL     OW51955   3.540   4.134  10.425  0.2025  0.2021 -0.0652
49006SOL    HW151956   3.446   4.149  10.412 -0.0408  0.1109  1.4478
49006SOL    HW251957   3.549   4.113  10.518  1.8493  1.1221  0.0267
49007SOL     OW51958   6.665   8.603   4.959 -0.1902  0.5312 -0.6607
49007SOL    HW151959   6.687   8.669   5.024 -0.7459  1.6841 -1.6125
49007SOL    HW251960   6.569   8.606   4.953 -0.1029  0.9302 -2.0287
49008SOL     OW51961   9.321   0.335   7.109 -0.5939  0.0392 -0.4781
49008SOL    HW151962   9.346   0.392   7.036 -0.0753  1.6328  0.8865
49008SOL    HW251963   9.264   0.389   7.164 -0.8791 -1.0882  0.3633
49009SOL     OW51964  11.086   3.919  11.653  0.1491  0.0809 -0.0860
49009SOL    HW151965  11.104   3.855  11.584 -3.9463 -0.1336 -1.2415
49009SOL    HW251966  11.114   4.003  11.617 -0.9493 -0.1852 -1.6549
49010SOL     OW51967   9.118   6.085  11.668  0.4552 -0.2670 -0.9668
49010SOL    HW151968   9.153   5.998  11.646  2.1189  0.1941 -0.2656
49010SOL    HW251969   9.079   6.116  11.586 -0.2875 -1.7074 -1.1971
49011SOL     OW51970   7.501   6.862   3.730 -0.2200  0.1689 -0.0172
49011SOL    HW151971   7.429   6.811   3.693 -1.2861  0.8993  0.9236
49011SOL    HW251972   7.509   6.830   3.820  0.2281  0.5077  0.0679
49012SOL     OW51973   0.338   5.437   5.233 -0.1838  0.1029 -0.7492
49012SOL    HW151974   0.365   5.529   5.237  0.7738 -0.1220 -1.4312
49012SOL    HW251975   0.243   5.439   5.236 -0.1485  1.0571  0.2044
49013SOL     OW51976   8.407   9.330   4.764  0.6643 -0.4496  0.0115
49013SOL    HW151977   8.397   9.340   4.858  0.7932 -0.9455  0.0831
49013SOL    HW251978   8.499   9.306   4.752  0.8407  0.3522 -0.3078
49014SOL     OW51979   4.807   5.016  10.409  0.1149  0.3934  0.7151
49014SOL    HW151980   4.757   4.990  10.486 -1.7464  1.0787 -0.1787
49014SOL    HW251981   4.824   4.934  10.363  0.0864  0.1192  1.1873
49015SOL     OW51982   5.362   3.526   9.866 -0.3209  0.0419 -0.1531
49015SOL    HW151983   5.349   3.441   9.824  0.9351 -0.5440  0.5927
49015SOL    HW251984   5.364   3.507   9.960  2.6695  0.4503 -0.0473
49016SOL     OW51985   5.193   3.361   8.489 -0.3385 -0.4200 -0.0104
49016SOL    HW151986   5.224   3.270   8.494 -0.7838 -0.5149  1.4651
49016SOL    HW251987   5.187   3.389   8.580  0.1810  1.2402 -0.4598
49017SOL     OW51988  10.615  10.733   6.814  0.5125 -0.2571  0.3704
49017SOL    HW151989  10.588  10.673   6.884  1.1825 -0.1846  0.6931
49017SOL    HW251990  10.601  10.820   6.852 -2.1813 -0.1022 -0.7051
49018SOL     OW51991   3.908   8.556   4.596 -0.5619 -0.0920 -0.7154
49018SOL    HW151992   3.894   8.618   4.524  1.4998 -0.4684 -1.4972
49018SOL    HW251993   3.886   8.471   4.559 -3.6793  0.0804  0.4467
49019SOL     OW51994   7.567   1.309  11.389 -0.3898 -0.3545 -0.8905
49019SOL    HW151995   7.517   1.383  11.423  0.5635 -0.4179  0.7258
49019SOL    HW251996   7.650   1.347  11.360  0.3026 -0.8382  0.4021
49020SOL     OW51997   6.008   9.706   8.292 -0.3051  0.2489  0.1303
49020SOL    HW151998   6.028   9.633   8.351 -0.5995  0.3776  0.3916
49020SOL    HW251999   6.082   9.709   8.232  0.5007  0.7625  1.1268
49021SOL     OW52000   2.376   8.187   8.827  0.1407  0.1984  0.1050
49021SOL    HW152001   2.381   8.171   8.733  1.6445 -1.5071  0.4132
49021SOL    HW252002   2.301   8.136   8.857  0.9808 -1.0752  0.1134
49022SOL     OW52003   7.896  11.254   1.761 -0.4596 -0.2610  0.2198
49022SOL    HW152004   7.843  11.330   1.784  0.9223  0.3318  1.7024
49022SOL    HW252005   7.851  11.181   1.804 -0.5355  0.1052  0.7884
49023SOL     OW52006   8.354   4.347   1.426  0.2414  0.1377 -0.2320
49023SOL    HW152007   8.328   4.348   1.518 -2.2211  0.0168 -0.8548
49023SOL    HW252008   8.324   4.431   1.392 -0.3049 -0.4395 -1.2417
49024SOL     OW52009   8.220   9.479   8.815 -0.2371 -0.1921  0.0599
49024SOL    HW152010   8.249   9.420   8.745 -0.5715 -0.6206  0.2798
49024SOL    HW252011   8.266   9.448   8.893  0.2351  0.3651  0.0131
49025SOL     OW52012   2.934   6.866   6.798  0.4320  0.0396 -0.5145
49025SOL    HW152013   2.936   6.770   6.792  0.4857 -0.1560  1.6460
49025SOL    HW252014   2.898   6.895   6.714 -0.9978 -1.9664 -0.6676
49026SOL     OW52015   0.395   2.243   9.618  0.1037 -0.1448  0.0383
49026SOL    HW152016   0.446   2.162   9.610 -2.0775 -1.4591 -1.4726
49026SOL    HW252017   0.313   2.216   9.658 -0.4896  1.4342 -0.0452
49027SOL     OW52018   4.284   3.141   5.616 -0.5210  0.1375  0.2638
49027SOL    HW152019   4.197   3.171   5.644 -0.6883  0.3191 -0.4242
49027SOL    HW252020   4.285   3.156   5.521  0.6644  1.1819  0.4171
49028SOL     OW52021   2.568   7.662  10.064  0.2196 -0.0321  0.6057
49028SOL    HW152022   2.505   7.611  10.116  2.0426 -0.9549  2.0331
49028SOL    HW252023   2.521   7.683   9.983 -2.0494 -0.2942  1.7775
49029SOL     OW52024   4.665   0.690   9.187 -0.1636  0.5850  0.2048
49029SOL    HW152025   4.610   0.681   9.110  0.8533 -0.9880 -0.4102
49029SOL    HW252026   4.608   0.668   9.260 -0.8698  1.0487 -0.1980
49030SOL     OW52027   8.009   7.172   6.491 -0.2167  0.3243 -1.0799
49030SOL    HW152028   7.967   7.179   6.405  2.1952  3.2305 -2.2078
49030SOL    HW252029   8.098   7.144   6.473 -0.1476 -0.7763  0.7063
49031SOL     OW52030   8.355   6.426   3.646 -0.2040  0.1848 -0.4953
49031SOL    HW152031   8.395   6.456   3.564  2.6070  1.2005  1.0901
49031SOL    HW252032   8.327   6.507   3.689  0.5787 -0.0901  0.5667
49032SOL     OW52033  11.037   6.767   2.016 -0.2511  0.0453 -0.3907
49032SOL    HW152034  11.081   6.804   2.093 -2.1776  0.6342  0.4905
49032SOL    HW252035  11.097   6.785   1.943  0.2495  2.2566  0.4888
49033SOL     OW52036   5.655   8.782   3.398  0.1586  0.1610 -0.1485
49033SOL    HW152037   5.600   8.738   3.463  0.7839 -1.2888 -0.5743
49033SOL    HW252038   5.604   8.859   3.373 -0.9377 -0.2679  0.6735
49034SOL     OW52039   2.340   8.619   4.054 -0.4784  0.8274 -0.2805
49034SOL    HW152040   2.364   8.712   4.053  0.9566  0.4759 -1.1798
49034SOL    HW252041   2.367   8.588   4.140 -1.0908  1.2614  0.0782
49035SOL     OW52042   3.082   7.788   5.271  0.1737  0.6926 -0.4295
49035SOL    HW152043   3.052   7.879   5.275  3.1798  1.7812  0.1423
49035SOL    HW252044   3.165   7.793   5.223 -0.1673 -1.9725 -1.4517
49036SOL     OW52045   4.413   6.081   5.600 -0.1718  0.4167  0.1511
49036SOL    HW152046   4.400   6.031   5.519 -0.1739  0.0900  0.3508
49036SOL    HW252047   4.331   6.130   5.611 -0.8366 -0.8026  0.8268
49037SOL     OW52048  10.507   3.993   5.273 -0.2950  0.1642  0.2653
49037SOL    HW152049  10.482   3.906   5.243  2.0366 -0.8601  1.0694
49037SOL    HW252050  10.527   4.042   5.193  2.8165 -1.5479 -0.1535
49038SOL     OW52051   6.236   4.679  10.510  0.4779  0.7684 -0.3018
49038SOL    HW152052   6.261   4.658  10.600  0.2293 -0.2097 -0.4510
49038SOL    HW252053   6.156   4.731  10.519 -0.2682 -0.3808  0.0267
49039SOL     OW52054   4.306  11.625  11.046  0.3535  0.2049 -0.2529
49039SOL    HW152055   4.243  11.672  10.990  0.2709 -0.4429 -0.7139
49039SOL    HW252056   4.382  11.611  10.990  0.1561 -0.7095 -0.3031
49040SOL     OW52057  11.455  11.111   2.920  0.3493  0.6423  0.1524
49040SOL    HW152058  11.408  11.072   2.994 -1.6351  0.8817 -0.9278
49040SOL    HW252059  11.543  11.074   2.927  0.1147  0.3184  2.3609
49041SOL     OW52060   7.488   9.335   5.484  0.1723 -0.3956 -0.0392
49041SOL    HW152061   7.532   9.292   5.411  1.3089  0.1274  0.3111
49041SOL    HW252062   7.428   9.397   5.444 -0.6866 -1.5070 -0.5356
49042SOL     OW52063   4.956   3.371  11.284  0.5925  0.0344 -0.4990
49042SOL    HW152064   4.989   3.314  11.353  0.4794  3.0772  2.2760
49042SOL    HW252065   5.034   3.412  11.247  0.4499  2.1035  1.3441
49043SOL     OW52066   1.830  11.144  11.459  0.4308 -0.3654 -0.1738
49043SOL    HW152067   1.856  11.233  11.435 -0.2603  0.1439  0.8876
49043SOL    HW252068   1.775  11.155  11.536  1.1056 -1.7868  0.5551
49044SOL     OW52069   0.865   6.738  11.418 -0.1898  0.5692 -0.2283
49044SOL    HW152070   0.792   6.676  11.412 -0.4187  0.6726  1.1098
49044SOL    HW252071   0.838   6.813  11.366 -0.8131  0.3868 -0.1758
49045SOL     OW52072   4.296   5.266   3.412 -0.1682 -0.1786  0.2510
49045SOL    HW152073   4.300   5.284   3.506 -0.8049  1.2367  0.0326
49045SOL    HW252074   4.318   5.349   3.370 -1.1802 -0.4352 -0.8521
49046SOL     OW52075   8.949  11.423   6.835  0.0718  0.1112 -0.9416
49046SOL    HW152076   8.927  11.339   6.794 -0.6254 -0.1843 -0.0041
49046SOL    HW252077   8.948  11.404   6.929 -1.4820  1.4755 -0.6310
49047SOL     OW52078   7.833   7.893   5.066  0.3778 -0.6029 -0.0742
49047SOL    HW152079   7.877   7.822   5.113 -1.3826 -1.0272  1.0647
49047SOL    HW252080   7.881   7.972   5.091  1.1964 -1.1686  0.1798
49048SOL     OW52081  10.124   7.316   9.938  0.6579 -0.2064 -0.1423
49048SOL    HW152082  10.213   7.334   9.908  0.8852  3.6352  2.1157
49048SOL    HW252083  10.134   7.286  10.028 -0.2538  1.2541  0.4911
49049SOL     OW52084   5.770   4.202   9.499 -0.6805 -0.0883  0.4412
49049SOL    HW152085   5.679   4.174   9.504 -0.2682 -1.8093 -0.9199
49049SOL    HW252086   5.808   4.177   9.583 -1.3740  0.4100  0.9173
49050SOL     OW52087   4.507   5.597   7.947  0.5425  0.3376 -0.5180
49050SOL    HW152088   4.449   5.523   7.964 -0.0904  1.3127  2.0464
49050SOL    HW252089   4.572   5.562   7.886 -0.3199 -2.0203 -0.2188
49051SOL     OW52090   0.075   2.195   0.087  0.5211  0.6380  0.3079
49051SOL    HW152091   0.026   2.246   0.152  0.3094  1.1405 -0.2459
49051SOL    HW252092   0.099   2.258   0.020 -0.9425 -0.2219 -1.1021
49052SOL     OW52093   6.715   7.226   0.736 -0.3063 -0.2787 -0.7969
49052SOL    HW152094   6.633   7.208   0.780  0.1697 -0.0306  0.2174
49052SOL    HW252095   6.739   7.143   0.695 -0.4596 -0.6855 -0.0757
49053SOL     OW52096   4.641   2.268   4.915  0.3806 -0.7437 -0.1831
49053SOL    HW152097   4.684   2.184   4.901  0.5142 -0.7434  0.1902
49053SOL    HW252098   4.549   2.252   4.896  0.5473 -0.7449 -0.9866
49054SOL     OW52099   2.379   4.316   9.208 -0.1276  0.0132 -0.0901
49054SOL    HW152100   2.424   4.392   9.243  0.2914 -0.0772 -0.4217
49054SOL    HW252101   2.448   4.254   9.187 -0.4295 -0.2735 -0.2612
49055SOL     OW52102   7.684   7.056   1.508  0.1257 -0.2300  0.3593
49055SOL    HW152103   7.738   7.008   1.572  1.3701  0.0278 -0.4563
49055SOL    HW252104   7.595   7.024   1.523  0.8061 -2.3259  0.2867
49056SOL     OW52105   7.171   4.300   0.961 -0.1703  0.0443 -0.6327
49056SOL    HW152106   7.119   4.280   1.039 -1.0214  2.5084 -0.4502
49056SOL    HW252107   7.220   4.379   0.985 -0.7206  1.0763 -2.6552
49057SOL     OW52108   3.989   6.760   2.107 -0.4538  0.1128 -0.6055
49057SOL    HW152109   3.926   6.760   2.035 -0.5673 -3.4630 -0.6887
49057SOL    HW252110   4.070   6.794   2.069 -1.7035  2.8014 -1.0490
49058SOL     OW52111   6.258   4.447   6.528 -0.0459 -0.5429 -0.0454
49058SOL    HW152112   6.238   4.511   6.460 -2.5957 -1.0468  0.1352
49058SOL    HW252113   6.193   4.378   6.515  1.8070 -2.5047  0.5693
49059SOL     OW52114   1.256   5.024   5.262  0.0549 -0.1688 -0.0011
49059SOL    HW152115   1.181   5.038   5.320  0.6727  0.9231  0.5890
49059SOL    HW252116   1.318   5.093   5.288  0.6733 -0.1576 -1.4371
49060SOL     OW52117   9.014  11.319   7.584 -0.1279 -0.2479  0.3533
49060SOL    HW152118   8.944  11.289   7.527  0.4433 -1.4592  0.2703
49060SOL    HW252119   8.980  11.305   7.673  0.7925 -2.9568  0.3686
49061SOL     OW52120   6.947  10.545  10.453 -0.4556  0.0974  0.0768
49061SOL    HW152121   6.919  10.637  10.456 -1.6897 -0.2708  0.4374
49061SOL    HW252122   6.912  10.512  10.370  1.7957  0.4748 -1.1022
49062SOL     OW52123   2.098   9.424   8.425  0.0339  0.4679 -0.1105
49062SOL    HW152124   2.118   9.424   8.331  2.3708 -1.6594  0.3159
49062SOL    HW252125   2.056   9.340   8.441  0.4097  0.4667  0.9190
49063SOL     OW52126   2.743   4.614  10.143  0.0992 -0.6639 -0.0358
49063SOL    HW152127   2.726   4.521  10.127 -0.9064 -0.4054 -0.5498
49063SOL    HW252128   2.833   4.617  10.173 -0.0454 -1.8766  0.5850
49064SOL     OW52129   2.560   5.877   0.639  0.1660  0.3025 -0.1277
49064SOL    HW152130   2.596   5.960   0.607  2.0765 -0.1618  0.6369
49064SOL    HW252131   2.473   5.872   0.601  0.6132  1.9021 -1.4987
49065SOL     OW52132   2.310   8.323   7.659 -0.0068 -0.1941  0.1407
49065SOL    HW152133   2.220   8.334   7.691  0.3469 -0.5792  1.3239
49065SOL    HW252134   2.304   8.250   7.597 -0.4776 -0.3308  0.3416
49066SOL     OW52135  11.674   7.154   6.110 -0.0223  0.5483 -0.1557
49066SOL    HW152136  11.706   7.190   6.028  0.4708  1.3711  0.3823
49066SOL    HW252137  11.644   7.066   6.087  3.4296 -0.6787 -0.5938
49067SOL     OW52138   8.559   8.464   7.353  0.6312  0.3430 -0.3367
49067SOL    HW152139   8.648   8.462   7.316  0.6730 -0.9746 -0.2273
49067SOL    HW252140   8.572   8.471   7.447  0.5934  0.9895 -0.3778
49068SOL     OW52141   1.710   8.652   9.514  0.0830  0.4569  0.7308
49068SOL    HW152142   1.685   8.581   9.454 -0.1708  1.5884 -0.5582
49068SOL    HW252143   1.784   8.616   9.564  0.8352 -0.2684 -0.8258
49069SOL     OW52144   0.536  11.323   2.710  0.3601 -0.0217  0.3226
49069SOL    HW152145   0.511  11.381   2.638 -0.7739  1.1287  1.5844
49069SOL    HW252146   0.469  11.337   2.777  0.7507 -1.8886  1.1820
49070SOL     OW52147   5.881   7.702   9.534  0.9640  0.3525  0.4635
49070SOL    HW152148   5.831   7.778   9.565  1.1713  0.4749  0.5019
49070SOL    HW252149   5.849   7.686   9.446  0.8137  0.3912  0.5102
49071SOL     OW52150  10.897   9.542   7.774  0.1996 -0.5981 -0.0949
49071SOL    HW152151  10.958   9.579   7.838  0.8535 -1.8308  0.0197
49071SOL    HW252152  10.929   9.574   7.689 -1.4888  2.2074  0.1985
49072SOL     OW52153   8.950   4.667   6.854 -0.0143 -0.1585 -0.0975
49072SOL    HW152154   8.896   4.625   6.787  0.9673  1.1184 -1.7804
49072SOL    HW252155   9.030   4.691   6.808  0.1517  2.0064  1.1924
49073SOL     OW52156   6.704   3.473   5.500 -0.0774 -0.2555 -0.1941
49073SOL    HW152157   6.742   3.514   5.578  1.2251  0.2315 -1.0596
49073SOL    HW252158   6.694   3.381   5.524  0.8890 -0.2318  0.3420
49074SOL     OW52159   9.700  11.323   1.766 -0.4140  0.0328  0.0825
49074SOL    HW152160   9.660  11.345   1.682 -1.7508 -0.7394  0.4842
49074SOL    HW252161   9.683  11.399   1.822 -1.0447 -0.1467  0.1453
49075SOL     OW52162   7.150   6.644   9.044  0.0787 -0.8417 -0.0930
49075SOL    HW152163   7.066   6.599   9.050 -1.4149  1.8932  1.9345
49075SOL    HW252164   7.128   6.732   9.012  1.8528  0.4353  1.8931
49076SOL     OW52165   2.635   2.407  11.594 -0.6112 -0.3004  0.0294
49076SOL    HW152166   2.707   2.409  11.657 -0.2660 -0.7313 -0.3461
49076SOL    HW252167   2.559   2.380  11.646 -0.1740 -1.3951  0.1255
49077SOL     OW52168   4.224   2.501  10.022  0.4770 -0.3173 -0.0597
49077SOL    HW152169   4.205   2.515   9.930 -1.6701 -0.9524  0.2377
49077SOL    HW252170   4.308   2.545  10.036 -0.1908  1.6819 -1.8123
49078SOL     OW52171  11.417   5.665   4.332 -0.2220 -0.5609 -0.1968
49078SOL    HW152172  11.473   5.632   4.261  1.1468 -1.8742  1.4161
49078SOL    HW252173  11.474   5.668   4.409 -1.6314  0.9267  0.8706
49079SOL     OW52174   1.331  10.466   9.121  0.8949  0.2406  0.6651
49079SOL    HW152175   1.306  10.403   9.054  0.2482  0.2109  0.9193
49079SOL    HW252176   1.395  10.420   9.176  0.4230 -0.2018  0.8496
49080SOL     OW52177   2.886   2.008   8.032 -0.0917  0.3221  0.0813
49080SOL    HW152178   2.903   1.995   7.939 -1.7028  0.2165 -0.2270
49080SOL    HW252179   2.874   2.103   8.041  0.7444  0.4171  0.3290
49081SOL     OW52180   6.304   1.378   0.932 -0.4817 -0.4221 -0.5459
49081SOL    HW152181   6.229   1.369   0.874 -0.9211 -1.1848  0.1186
49081SOL    HW252182   6.290   1.460   0.978 -1.2993 -0.9126  0.1028
49082SOL     OW52183  10.504   3.081   1.249  0.0566  0.7371 -0.7524
49082SOL    HW152184  10.531   3.173   1.239 -1.1739  1.2433  0.3113
49082SOL    HW252185  10.433   3.070   1.186 -0.2478  0.7117 -0.4060
49083SOL     OW52186   4.303   9.410   5.742 -0.0020  0.5903  0.1233
49083SOL    HW152187   4.221   9.453   5.719 -0.4714  0.5577  1.6890
49083SOL    HW252188   4.367   9.482   5.746 -0.2749  0.8148  0.4154
49084SOL     OW52189  11.015   4.729  11.331  0.2798  0.2860  0.3158
49084SOL    HW152190  10.953   4.794  11.297  0.2200  0.4396  0.7104
49084SOL    HW252191  11.031   4.669  11.258 -0.4087  0.1909  0.2449
49085SOL     OW52192   0.001   9.599   5.511 -0.0685 -0.4989  0.4662
49085SOL    HW152193  -0.038   9.518   5.545 -0.0273 -1.4230 -1.5497
49085SOL    HW252194  -0.039   9.610   5.425  0.6948  1.0991  0.2869
49086SOL     OW52195   6.781   8.062   7.188  0.3151 -0.0045  0.2519
49086SOL    HW152196   6.812   8.152   7.178  0.8277 -0.0361  1.3945
49086SOL    HW252197   6.694   8.072   7.227 -0.3189  0.0201 -1.0932
49087SOL     OW52198   0.653   7.147   1.309  0.5526  0.2196 -0.5232
49087SOL    HW152199   0.607   7.181   1.385 -3.1022  1.3338 -2.9815
49087SOL    HW252200   0.657   7.053   1.323 -1.0405  0.2774  0.5657
49088SOL     OW52201   6.210  10.843  11.146 -0.1756 -0.2994  0.3148
49088SOL    HW152202   6.141  10.792  11.104  0.6971 -1.2159 -0.0557
49088SOL    HW252203   6.232  10.912  11.083 -1.2139  0.4359  0.7293
49089SOL     OW52204   4.873   2.147   1.474 -0.0843  0.2543  0.0580
49089SOL    HW152205   4.794   2.200   1.460 -1.0682 -0.9044  0.9560
49089SOL    HW252206   4.876   2.134   1.569  0.5649 -0.6463 -0.0728
49090SOL     OW52207   2.086   0.179   2.231  0.5606  0.2658  0.1347
49090SOL    HW152208   2.126   0.214   2.311 -1.9492 -1.3849  2.2866
49090SOL    HW252209   2.018   0.243   2.210  0.4136  0.0842  0.0631
49091SOL     OW52210   3.445   1.125   3.062 -0.0043  0.5571 -0.2198
49091SOL    HW152211   3.500   1.089   2.993 -0.2945 -0.4689  0.0736
49091SOL    HW252212   3.356   1.117   3.028 -0.3254 -1.5874  0.9319
49092SOL     OW52213   3.339   3.193   7.080  0.4088  0.2002  0.2728
49092SOL    HW152214   3.263   3.167   7.028  0.8164  0.3717 -0.4239
49092SOL    HW252215   3.343   3.129   7.151  0.0611 -0.2665 -0.1232
49093SOL     OW52216   6.146  10.580   5.586 -0.2023  0.3526 -0.4260
49093SOL    HW152217   6.116  10.570   5.676  0.5430 -0.8730 -0.2925
49093SOL    HW252218   6.097  10.514   5.537 -0.2377  0.6809 -0.8470
49094SOL     OW52219   4.973   6.590  10.275  0.0144 -0.4752  0.1244
49094SOL    HW152220   4.948   6.682  10.263  1.1480 -0.0122  1.0376
49094SOL    HW252221   5.011   6.564  10.192  0.1771  0.0515  0.0315
49095SOL     OW52222  10.052   1.697   2.963  0.7354  0.1960 -0.0341
49095SOL    HW152223  10.007   1.696   3.048 -0.4431  0.7120 -0.6268
49095SOL    HW252224   9.999   1.756   2.909  2.4498  1.2372 -0.6246
49096SOL     OW52225   6.917   9.139   9.599 -0.2135 -0.0962 -0.0834
49096SOL    HW152226   6.970   9.218   9.595  0.7460 -0.6681  0.9322
49096SOL    HW252227   6.939   9.099   9.683 -1.6437 -0.7808 -0.0024
49097SOL     OW52228   1.466   8.962  10.266  0.5669  0.7712  0.3425
49097SOL    HW152229   1.442   8.994  10.353  0.0986  0.4415  0.3394
49097SOL    HW252230   1.417   8.880  10.256  1.4779  0.2309  0.2113
49098SOL     OW52231   1.143   0.402   8.705 -0.3206  0.3399  0.2591
49098SOL    HW152232   1.210   0.360   8.651  0.2571  1.1492  0.3186
49098SOL    HW252233   1.093   0.456   8.644 -1.1395 -0.5150  0.1599
49099SOL     OW52234   9.287   2.386   4.556 -0.4933 -0.1722 -0.8463
49099SOL    HW152235   9.293   2.427   4.642  0.1608  0.0535 -0.9950
49099SOL    HW252236   9.376   2.390   4.521 -0.2365 -2.3029 -0.5928
49100SOL     OW52237   2.371  11.181   6.558 -0.1417 -0.5803 -0.1768
49100SOL    HW152238   2.360  11.087   6.546 -0.8234 -0.5408  0.0973
49100SOL    HW252239   2.463  11.197   6.541 -0.1684 -1.1910 -0.9496
49101SOL     OW52240   1.417   6.985   9.522  1.0130  0.1711 -0.1236
49101SOL    HW152241   1.327   7.017   9.519  0.6830 -0.6934  0.1997
49101SOL    HW252242   1.436   6.953   9.434  0.3325 -1.3708  0.2511
49102SOL     OW52243   0.267  11.447  10.411  0.1862 -0.0364  0.1687
49102SOL    HW152244   0.297  11.537  10.399  0.5100 -0.2207 -0.4642
49102SOL    HW252245   0.295  11.423  10.499  2.6169 -0.4519 -0.6532
49103SOL     OW52246   7.828   4.896   7.504 -0.1323 -0.3371 -0.2270
49103SOL    HW152247   7.902   4.859   7.553 -0.3657 -1.9069 -1.0264
49103SOL    HW252248   7.867   4.969   7.456  0.8870 -1.0650 -0.5500
49104SOL     OW52249   8.359  10.352   0.967  0.1531  0.0904  0.6213
49104SOL    HW152250   8.425  10.300   1.013  0.5260  1.5984  1.8938
49104SOL    HW252251   8.371  10.441   1.001 -1.2166  0.7923 -0.6158
49105SOL     OW52252   6.924   7.880   7.413  0.0978  0.1349 -0.0140
49105SOL    HW152253   6.985   7.826   7.462 -0.5138 -0.1480  0.4501
49105SOL    HW252254   6.945   7.863   7.321  1.5216  0.9845  0.1344
49106SOL     OW52255   2.288   0.738   7.445 -0.5407  0.2962 -0.2194
49106SOL    HW152256   2.221   0.676   7.475 -1.4874 -0.4201 -3.4518
49106SOL    HW252257   2.263   0.759   7.355  2.5931  1.4716 -0.9342
49107SOL     OW52258   8.768   8.554   6.194 -0.5070 -0.0400  0.2927
49107SOL    HW152259   8.693   8.579   6.247  0.4766 -0.0017  1.7074
49107SOL    HW252260   8.729   8.517   6.114 -2.0160  1.8144  0.0767
49108SOL     OW52261   3.823   8.965   9.136  0.4159  0.0530 -0.2660
49108SOL    HW152262   3.810   8.981   9.042 -1.2381  0.9593  0.0680
49108SOL    HW252263   3.850   9.050   9.171 -2.4107  0.7146  0.5680
49109SOL     OW52264   6.229   0.862   3.056 -0.2801  0.0840 -0.2309
49109SOL    HW152265   6.194   0.775   3.078 -1.3643 -0.0211 -2.1467
49109SOL    HW252266   6.198   0.919   3.126  0.4988 -1.0696  1.0924
49110SOL     OW52267   3.438   5.571   9.787 -0.9327 -0.3917 -0.0205
49110SOL    HW152268   3.523   5.553   9.829 -0.7665 -2.3982 -1.1219
49110SOL    HW252269   3.400   5.641   9.840  0.8381 -0.3494  1.2865
49111SOL     OW52270   2.932   9.370   7.016 -0.1867  0.1556  0.0119
49111SOL    HW152271   2.968   9.422   7.088 -0.7894 -0.7326  0.9729
49111SOL    HW252272   2.837   9.384   7.022 -0.2560 -0.0667 -0.5034
49112SOL     OW52273   9.363   8.466   2.126  0.7042  0.4137 -0.0246
49112SOL    HW152274   9.451   8.474   2.089  0.1569 -1.1530 -1.8512
49112SOL    HW252275   9.348   8.550   2.169  1.8943  1.9811 -2.3958
49113SOL     OW52276   0.583   6.773   6.687  0.6745  0.2677 -0.2095
49113SOL    HW152277   0.580   6.684   6.654  1.1207  1.4629 -3.8636
49113SOL    HW252278   0.492   6.801   6.692  0.6333  0.6258 -2.3366
49114SOL     OW52279   7.197   9.214  10.495  1.0867 -0.0774  0.2863
49114SOL    HW152280   7.207   9.187  10.404  0.4475  1.3647 -0.2257
49114SOL    HW252281   7.123   9.163  10.527  0.8587 -0.0527 -0.2040
49115SOL     OW52282   1.845   5.129   2.541 -0.1809 -0.3923  0.4166
49115SOL    HW152283   1.771   5.070   2.525  0.7160 -1.4543  0.0680
49115SOL    HW252284   1.914   5.097   2.482  0.6342  0.4320  0.9055
49116SOL     OW52285  11.393   5.064   4.188 -0.7348 -0.1364  0.2338
49116SOL    HW152286  11.477   5.021   4.172 -0.4879 -0.5096  2.2589
49116SOL    HW252287  11.386   5.130   4.120  0.9223 -0.5121 -0.3296
49117SOL     OW52288   9.477   4.956  10.145  0.1154 -0.1393 -0.4075
49117SOL    HW152289   9.547   5.006  10.187  0.0036 -0.9912  0.8908
49117SOL    HW252290   9.399   4.978  10.196 -0.0455 -1.1328 -0.2009
49118SOL     OW52291   6.459   2.608   5.646  0.3319  0.0059  0.5680
49118SOL    HW152292   6.415   2.614   5.731 -1.3233  1.8968 -0.3366
49118SOL    HW252293   6.420   2.530   5.605 -2.5461  1.7446 -0.2957
49119SOL     OW52294   1.704   4.070   7.409 -0.0492 -0.0767 -0.4335
49119SOL    HW152295   1.766   4.022   7.464 -0.0339  0.3830 -0.0468
49119SOL    HW252296   1.758   4.126   7.354 -0.1573  1.3649  0.8757
49120SOL     OW52297   8.842   9.275   8.908  0.0127  0.1000 -0.1287
49120SOL    HW152298   8.837   9.196   8.961  0.8773 -0.6491 -1.1105
49120SOL    HW252299   8.847   9.346   8.971 -1.2304 -0.5699  0.7834
49121SOL     OW52300   9.606   4.929   3.557  0.2024 -0.1244 -0.1987
49121SOL    HW152301   9.561   4.846   3.542 -0.0997 -0.6893  3.0931
49121SOL    HW252302   9.697   4.904   3.573  0.3110  0.2850 -0.1685
49122SOL     OW52303   5.767   4.251   1.396  0.3158 -0.8571 -0.5203
49122SOL    HW152304   5.851   4.241   1.351  0.4201 -3.0839  0.0519
49122SOL    HW252305   5.709   4.187   1.354 -0.7303 -0.2605 -0.0426
49123SOL     OW52306   2.061   4.095   8.670  0.0532 -0.0278  0.3520
49123SOL    HW152307   2.124   4.023   8.661 -0.3982 -0.2617 -1.1385
49123SOL    HW252308   2.066   4.142   8.587  1.9041  3.0547  2.0102
49124SOL     OW52309   2.064   8.194   9.784 -0.5806 -0.9301 -0.0984
49124SOL    HW152310   2.089   8.141   9.860 -2.1218 -1.5850 -0.0068
49124SOL    HW252311   2.073   8.284   9.814  0.5307 -1.1574  0.2765
49125SOL     OW52312   1.789   4.857   8.721  0.9431  0.0101  0.2768
49125SOL    HW152313   1.850   4.784   8.711 -0.7045 -1.4285  0.3408
49125SOL    HW252314   1.765   4.855   8.814  1.9991  1.6156  0.6350
49126SOL     OW52315  11.009   0.418  10.959 -0.0098  0.6575  0.1408
49126SOL    HW152316  11.057   0.464  10.890  1.6752 -0.3311  0.6016
49126SOL    HW252317  11.064   0.343  10.981 -2.9009 -1.9829 -0.9468
49127SOL     OW52318   5.787   6.743   5.053 -0.5721  0.1912  0.1314
49127SOL    HW152319   5.719   6.678   5.035 -0.3959 -0.0584  0.3551
49127SOL    HW252320   5.757   6.822   5.008  0.2279 -0.6060 -1.8807
49128SOL     OW52321   2.819   0.558   8.782  0.1390  0.0904  0.2343
49128SOL    HW152322   2.808   0.582   8.691 -0.8383  0.4261  0.4337
49128SOL    HW252323   2.905   0.595   8.806 -0.2792  1.3461 -0.1239
49129SOL     OW52324   1.604   4.982   2.293  0.4151  0.2838  0.2593
49129SOL    HW152325   1.578   5.074   2.293 -1.2795 -0.1384  2.0296
49129SOL    HW252326   1.621   4.962   2.201 -2.3011  1.5503 -0.6120
49130SOL     OW52327   1.997   8.380  11.562 -0.0400  0.5153  0.2173
49130SOL    HW152328   2.021   8.330  11.640 -0.5514 -2.0378 -1.1644
49130SOL    HW252329   1.917   8.427  11.587  0.4330  0.6543  1.5454
49131SOL     OW52330  10.899   4.736   9.816  0.3616 -0.0012  0.5669
49131SOL    HW152331  10.807   4.711   9.824  0.3007  0.4302  1.4039
49131SOL    HW252332  10.906   4.776   9.730 -0.1150 -0.5089  0.2864
49132SOL     OW52333   9.681   8.239   2.996 -0.1127  0.5135 -0.2396
49132SOL    HW152334   9.649   8.320   2.956 -0.3615  0.9960  0.8966
49132SOL    HW252335   9.762   8.265   3.039 -0.5502  0.3236  0.7191
49133SOL     OW52336   8.275  10.567   7.492 -0.1782 -0.3541 -0.0303
49133SOL    HW152337   8.243  10.484   7.529  0.1734 -0.9563 -1.0351
49133SOL    HW252338   8.359  10.545   7.453  1.9728  1.3589  3.1971
49134SOL     OW52339   9.921   9.522   2.539  0.0900  0.2443 -0.0422
49134SOL    HW152340   9.829   9.550   2.541 -0.6442 -1.4844 -3.3072
49134SOL    HW252341   9.918   9.429   2.558  1.3673  0.3825  0.9512
49135SOL     OW52342   1.750   2.489   0.458  0.0398 -0.4657 -0.4323
49135SOL    HW152343   1.795   2.570   0.483  0.5586 -0.3633 -1.6263
49135SOL    HW252344   1.802   2.454   0.385 -1.1707 -0.9500 -1.0835
49136SOL     OW52345   7.806   8.734   8.404  0.1833 -0.1916  0.1536
49136SOL    HW152346   7.828   8.643   8.383  2.2750 -0.0587  1.4364
49136SOL    HW252347   7.886   8.770   8.443 -0.4127  2.3564 -0.7385
49137SOL     OW52348   4.428   6.107   9.121  0.6576  0.0840  0.1494
49137SOL    HW152349   4.424   6.185   9.177  2.7592 -0.2771  0.9048
49137SOL    HW252350   4.509   6.118   9.071  0.7253 -1.3737 -0.0955
49138SOL     OW52351   5.969   7.410   4.038  0.1800 -0.6336  0.0697
49138SOL    HW152352   6.048   7.441   3.994  0.0155 -0.7869 -0.3389
49138SOL    HW252353   5.993   7.322   4.070  1.5993  0.8455  3.6771
49139SOL     OW52354   7.177   9.225   9.022 -0.0479 -0.3727  0.0976
49139SOL    HW152355   7.187   9.152   8.960  0.8612 -0.3410  0.1926
49139SOL    HW252356   7.125   9.290   8.975 -2.3054 -1.7186  0.5745
49140SOL     OW52357   5.134   2.882   5.824  0.1130 -0.1593 -0.5593
49140SOL    HW152358   5.134   2.791   5.794 -0.7017 -0.6099  0.7129
49140SOL    HW252359   5.226   2.903   5.839  0.2569 -1.0001 -0.2203
49141SOL     OW52360   8.471  11.097   3.883 -0.1290  0.4696 -0.0711
49141SOL    HW152361   8.414  11.049   3.823 -0.4209  0.0905  0.4989
49141SOL    HW252362   8.474  11.186   3.847 -0.1004  0.1930 -0.7763
49142SOL     OW52363   1.929  10.665  11.242  0.0927 -0.6641 -0.4449
49142SOL    HW152364   1.947  10.758  11.258 -0.4973 -0.6766  0.3983
49142SOL    HW252365   1.862  10.643  11.307 -0.4045 -1.4616 -1.2129
49143SOL     OW52366   9.330   5.659  11.297  0.1670 -0.1752  0.0821
49143SOL    HW152367   9.291   5.677  11.383  1.2906 -1.0064  0.7949
49143SOL    HW252368   9.423   5.646  11.315  0.2468 -1.5029 -1.0914
49144SOL     OW52369   8.199   2.846   3.069 -0.2588 -0.0843  0.5480
49144SOL    HW152370   8.147   2.895   3.005  1.6974  1.0694 -0.2359
49144SOL    HW252371   8.187   2.754   3.044  0.6795  0.3498 -1.7160
49145SOL     OW52372   1.220   3.125   0.789  0.4346  0.2282 -0.2470
49145SOL    HW152373   1.146   3.100   0.733  0.5009 -0.1259 -0.1747
49145SOL    HW252374   1.246   3.211   0.756 -1.4271  1.3999  1.1598
49146SOL     OW52375   6.253   3.714   5.065  0.1553 -0.5414 -0.0250
49146SOL    HW152376   6.286   3.802   5.086 -1.0219  0.1835 -1.0762
49146SOL    HW252377   6.322   3.675   5.011 -0.4366  0.7985 -1.8547
49147SOL     OW52378   4.437   5.193   0.297  0.2852 -0.1664 -0.1052
49147SOL    HW152379   4.451   5.261   0.363 -0.4635  0.9219 -1.0337
49147SOL    HW252380   4.453   5.236   0.214 -3.1872 -0.1827 -0.9486
49148SOL     OW52381  11.245   7.060  10.220  0.5320 -0.2092 -0.4175
49148SOL    HW152382  11.248   7.126  10.151  0.9303 -1.3341 -1.4944
49148SOL    HW252383  11.248   7.111  10.301  0.2377  1.1214 -1.2149
49149SOL     OW52384   9.043   6.669   3.591  0.5026 -0.1858  0.0077
49149SOL    HW152385   9.045   6.618   3.672  0.4450 -0.8083 -0.3784
49149SOL    HW252386   9.125   6.647   3.547  0.1216 -0.5434 -0.5246
49150SOL     OW52387   1.917   6.956   1.477  0.1768 -0.0452 -0.3947
49150SOL    HW152388   1.952   7.028   1.531 -0.5336 -0.5486  0.7666
49150SOL    HW252389   1.898   6.887   1.540 -0.8455 -0.5849 -1.2848
49151SOL     OW52390   5.624   1.765   1.982 -0.6400 -0.2129  1.1283
49151SOL    HW152391   5.545   1.808   2.012 -2.0824  0.2647 -2.7536
49151SOL    HW252392   5.610   1.672   2.002 -1.9266 -0.0602  0.9987
49152SOL     OW52393   1.455   3.872   8.215  0.3785 -0.3195  0.2812
49152SOL    HW152394   1.474   3.799   8.274  0.4316 -0.4444  0.1088
49152SOL    HW252395   1.426   3.942   8.273 -1.5648 -1.0806  0.3053
49153SOL     OW52396   5.417   7.079   4.095 -0.3910  1.0695  0.5357
49153SOL    HW152397   5.476   7.025   4.147 -0.8898  0.4769  0.5071
49153SOL    HW252398   5.427   7.046   4.006 -0.3713  1.3217  0.4451
49154SOL     OW52399   5.391   8.569   7.169  0.3381 -0.0876 -0.1177
49154SOL    HW152400   5.372   8.494   7.226 -0.8110 -1.3143 -2.0123
49154SOL    HW252401   5.364   8.645   7.220 -0.4701 -1.1168  1.0628
49155SOL     OW52402   5.879  10.836   0.147 -0.1111 -0.2177 -0.1437
49155SOL    HW152403   5.787  10.856   0.158 -0.2217 -0.6582 -0.2411
49155SOL    HW252404   5.883  10.740   0.143  0.2032 -0.1743 -1.4115
49156SOL     OW52405   3.046   8.522  11.013 -0.0554  0.2570 -0.0187
49156SOL    HW152406   2.952   8.503  11.020  0.0267 -0.5465 -0.9995
49156SOL    HW252407   3.061   8.588  11.082 -1.2822  0.2349  0.3079
49157SOL     OW52408   3.303   4.589  10.394 -0.2021  0.3231  0.2172
49157SOL    HW152409   3.324   4.538  10.473 -1.7562  0.2113  0.5771
49157SOL    HW252410   3.261   4.526  10.336  0.5254  0.5190 -0.5472
49158SOL     OW52411   1.822   3.331   9.917 -0.2473  0.7350 -0.8579
49158SOL    HW152412   1.818   3.346   9.823  0.5337  0.0648 -1.0105
49158SOL    HW252413   1.872   3.250   9.927  2.2932  2.3078  0.2198
49159SOL     OW52414  10.372  10.452   0.436  0.3421 -0.3641 -1.0580
49159SOL    HW152415  10.298  10.442   0.497 -0.5478  0.2151 -2.0030
49159SOL    HW252416  10.449  10.427   0.487 -0.1737  1.5187  0.7959
49160SOL     OW52417   7.025   5.814   5.213  0.3682 -0.2580  0.2728
49160SOL    HW152418   7.076   5.862   5.148  0.5199  1.5062  1.6326
49160SOL    HW252419   7.072   5.731   5.224  1.1835  0.0503 -0.7300
49161SOL     OW52420   4.403   2.781   3.847 -0.2494  0.3215 -0.2903
49161SOL    HW152421   4.472   2.751   3.787 -1.6011 -0.6332 -1.4511
49161SOL    HW252422   4.412   2.726   3.924 -0.5746 -0.7839 -1.0187
49162SOL     OW52423   9.843   7.977   2.222  0.0257  0.5935  0.2638
49162SOL    HW152424   9.799   7.913   2.166  2.3561 -1.7639  0.9372
49162SOL    HW252425   9.817   7.953   2.311  1.3389  0.1887  0.5614
49163SOL     OW52426   7.422   6.890   6.900  0.5963 -0.0550 -0.5401
49163SOL    HW152427   7.351   6.920   6.843 -0.6771 -3.3801 -0.9394
49163SOL    HW252428   7.496   6.876   6.840  0.8363  1.0620 -0.5264
49164SOL     OW52429   3.503   9.889   3.060 -0.0034 -0.1703  0.1771
49164SOL    HW152430   3.592   9.904   3.093  0.2044 -0.2561 -0.3251
49164SOL    HW252431   3.450   9.875   3.138 -0.2937  3.3657  0.7702
49165SOL     OW52432   4.172   5.639   6.483  0.4237 -0.5866 -0.2339
49165SOL    HW152433   4.162   5.734   6.471 -0.5683 -0.6560 -0.0844
49165SOL    HW252434   4.082   5.606   6.481  0.7793 -1.5508 -0.4850
49166SOL     OW52435   8.976   6.315   3.095 -0.7530  0.0411 -0.4000
49166SOL    HW152436   8.969   6.367   3.175  1.8027 -1.4765  0.9277
49166SOL    HW252437   8.962   6.225   3.122 -2.4629 -0.3063 -2.1906
49167SOL     OW52438   4.376   8.752   4.230  0.4000 -0.0824 -0.5053
49167SOL    HW152439   4.396   8.811   4.157 -0.0563 -0.4127 -0.8992
49167SOL    HW252440   4.351   8.670   4.189 -0.4695 -0.0859  0.0090
49168SOL     OW52441   9.779   8.142   9.369 -0.1805 -0.1649 -0.3086
49168SOL    HW152442   9.726   8.219   9.345  0.5307  0.5230  0.2695
49168SOL    HW252443   9.719   8.087   9.420 -0.8515 -0.2590 -1.1772
49169SOL     OW52444   7.425   3.599   6.790 -0.5759 -0.0990 -0.3620
49169SOL    HW152445   7.458   3.651   6.863  0.2827 -1.5466  0.3293
49169SOL    HW252446   7.334   3.627   6.779 -0.5324  0.5650  0.8599
49170SOL     OW52447   8.860  10.258   6.076 -0.3811  0.3485  0.5372
49170SOL    HW152448   8.894  10.334   6.028 -0.7459  0.8198  1.0111
49170SOL    HW252449   8.800  10.216   6.014 -1.6867  1.5708  0.9177
49171SOL     OW52450  10.459   1.583   2.030 -0.4445 -0.4469  0.8131
49171SOL    HW152451  10.463   1.492   2.059  3.8010 -0.6731  0.1350
49171SOL    HW252452  10.513   1.630   2.093  0.3856  0.9200 -0.8528
49172SOL     OW52453   1.762   6.730   7.197 -0.3499  0.0239  0.0941
49172SOL    HW152454   1.715   6.798   7.244  0.7229  1.0198 -0.2260
49172SOL    HW252455   1.753   6.652   7.251 -0.6378  0.7001  1.0371
49173SOL     OW52456  10.633   4.406   2.896 -0.2646 -0.3426 -0.4143
49173SOL    HW152457  10.695   4.471   2.863  0.5942 -1.7700 -1.7606
49173SOL    HW252458  10.550   4.428   2.854 -0.1427  0.2384 -0.3608
49174SOL     OW52459   1.044   9.976   8.544  0.1476 -0.3915  0.6239
49174SOL    HW152460   1.067  10.055   8.496  1.8976 -1.4770 -0.4645
49174SOL    HW252461   1.111   9.968   8.612  0.6007 -1.4159  0.0908
49175SOL     OW52462   0.605   8.920  11.561 -0.2612 -0.2298 -0.0235
49175SOL    HW152463   0.688   8.965  11.576 -1.1314  1.3788  0.1631
49175SOL    HW252464   0.619   8.831  11.596  1.3512  0.0116  0.0155
49176SOL     OW52465   0.225   5.508   6.995  0.0704 -0.3240 -0.4925
49176SOL    HW152466   0.241   5.429   6.942 -1.3689 -1.4274  0.6050
49176SOL    HW252467   0.130   5.509   7.007  0.3180 -0.2242  2.1478
49177SOL     OW52468   5.970  10.084   1.615 -0.1315 -0.4435 -0.3558
49177SOL    HW152469   6.004  10.038   1.539  0.5994  0.9606 -0.9183
49177SOL    HW252470   5.883  10.048   1.628  0.9251 -3.0275  0.1667
49178SOL     OW52471   2.873   6.010   9.133 -0.0620 -0.1448  0.1773
49178SOL    HW152472   2.800   5.958   9.101  0.6279 -1.0593  0.0424
49178SOL    HW252473   2.934   5.946   9.171  2.3942  0.0330 -2.9647
49179SOL     OW52474  10.830   5.446   5.938  0.0990 -0.0396 -0.2208
49179SOL    HW152475  10.906   5.499   5.962 -0.9098 -0.1719  3.9293
49179SOL    HW252476  10.777   5.442   6.017 -3.8428 -0.7472 -2.5956
49180SOL     OW52477   9.334   9.439  11.031  0.5396 -0.1051 -0.4077
49180SOL    HW152478   9.377   9.353  11.034 -4.2695 -2.9216 -1.4513
49180SOL    HW252479   9.278   9.440  11.109  0.0353  1.8972 -0.7499
49181SOL     OW52480   9.402   3.512   3.017 -0.2872  0.0810 -0.1462
49181SOL    HW152481   9.370   3.524   2.928  0.7069 -1.0825 -0.6848
49181SOL    HW252482   9.323   3.501   3.070 -1.0956  3.7116 -0.3324
49182SOL     OW52483   0.799  10.186  11.530  0.7614 -0.2677 -0.1316
49182SOL    HW152484   0.741  10.149  11.464 -0.1878  0.4275  0.2986
49182SOL    HW252485   0.761  10.161  11.614  0.1924  1.4786  0.1676
49183SOL     OW52486   8.296  10.014  10.848 -0.2584 -0.4311 -0.3021
49183SOL    HW152487   8.349   9.966  10.911 -1.1674 -1.2700 -0.1687
49183SOL    HW252488   8.318  10.106  10.864 -0.2891 -0.6411  1.0772
49184SOL     OW52489   5.533   2.638   9.157  0.0899 -0.0074 -0.2176
49184SOL    HW152490   5.593   2.580   9.204 -0.7336  0.1471  1.0643
49184SOL    HW252491   5.452   2.587   9.150  0.3309 -0.2146 -1.9315
49185SOL     OW52492   5.933   6.687  11.244 -0.3972 -0.1823  0.0988
49185SOL    HW152493   5.890   6.758  11.196 -2.0644 -0.4610  1.1359
49185SOL    HW252494   5.999   6.732  11.297  0.8496  0.2225 -1.6779
49186SOL     OW52495   4.293   3.556  10.576  0.4592 -0.3939 -0.0644
49186SOL    HW152496   4.320   3.638  10.535  0.0033  0.2282  0.8317
49186SOL    HW252497   4.315   3.566  10.669  0.6398 -1.3964  0.0177
49187SOL     OW52498   7.341   2.147   6.834 -0.3317  0.1339 -0.0184
49187SOL    HW152499   7.394   2.225   6.816 -0.9146  0.6512  0.4658
49187SOL    HW252500   7.405   2.076   6.844  0.1888  0.4891 -0.7229
49188SOL     OW52501   8.397   3.626   2.259 -0.2955 -0.5954  0.2187
49188SOL    HW152502   8.442   3.590   2.336 -0.3432 -0.5335  0.2757
49188SOL    HW252503   8.389   3.552   2.199 -0.9710 -0.8345  0.5996
49189SOL     OW52504   4.650   4.056   7.045 -0.2800  1.2270  0.0355
49189SOL    HW152505   4.625   4.148   7.034  0.5834  1.5030  0.2898
49189SOL    HW252506   4.742   4.053   7.017 -0.5307  0.2807 -0.7249
49190SOL     OW52507  11.517   3.033  10.884  0.1800  0.0268 -0.5809
49190SOL    HW152508  11.580   2.994  10.944 -0.0336  0.6798  0.0925
49190SOL    HW252509  11.566   3.048  10.804  0.6421 -0.2963 -0.3639
49191SOL     OW52510   0.566   1.798   1.305 -0.3400 -0.0069 -0.3263
49191SOL    HW152511   0.476   1.764   1.308 -0.0978 -1.1123 -2.7626
49191SOL    HW252512   0.574   1.833   1.216  1.4091  0.7759  0.1101
49192SOL     OW52513  11.528   9.261   0.743 -0.2908  1.0688  0.1517
49192SOL    HW152514  11.588   9.190   0.766 -0.5945  0.8585  0.2865
49192SOL    HW252515  11.495   9.238   0.657 -1.2544  0.4752  0.6720
49193SOL     OW52516   3.699  11.459   8.251 -0.1552 -0.2146 -0.4654
49193SOL    HW152517   3.608  11.473   8.226 -1.1222 -2.0477  1.7062
49193SOL    HW252518   3.708  11.363   8.257  1.0501 -0.0060  2.1676
49194SOL     OW52519   2.678   3.963   7.906 -0.0859  0.1759  0.3676
49194SOL    HW152520   2.755   3.981   7.852  1.5637  0.0616  2.5582
49194SOL    HW252521   2.656   3.871   7.886  0.5629  0.0980 -0.0224
49195SOL     OW52522   7.982   9.248  11.460  0.1399 -0.6587 -0.0432
49195SOL    HW152523   8.008   9.166  11.418  0.7508 -0.0731 -0.8455
49195SOL    HW252524   8.003   9.315  11.395 -0.8587  0.0881  0.3876
49196SOL     OW52525   2.777   3.069   5.116  0.0923  0.2247  0.5251
49196SOL    HW152526   2.861   3.026   5.128  0.6308  1.3740  1.0330
49196SOL    HW252527   2.740   3.029   5.038  1.1052 -0.2971  0.3051
49197SOL     OW52528   7.134  10.442  10.881  0.0987 -0.1528 -0.0230
49197SOL    HW152529   7.174  10.529  10.879 -1.0260  0.3776 -0.5278
49197SOL    HW252530   7.105  10.427  10.792  0.1125 -0.9762  0.1044
49198SOL     OW52531   8.586  10.913   2.148  0.5010 -0.0672  0.5078
49198SOL    HW152532   8.545  10.984   2.098 -1.1597 -1.9787 -1.0029
49198SOL    HW252533   8.549  10.833   2.111  1.4501 -1.7156  2.8770
49199SOL     OW52534   7.415   8.814   3.150 -0.3107  0.1469  0.5516
49199SOL    HW152535   7.322   8.837   3.146  0.0668  1.7138 -0.3990
49199SOL    HW252536   7.416   8.719   3.159 -2.0070  0.1208  0.8621
49200SOL     OW52537   2.524   7.144   5.983  0.4584 -0.0866  0.2856
49200SOL    HW152538   2.470   7.173   6.056 -0.9999 -0.8707 -0.4371
49200SOL    HW252539   2.599   7.101   6.024 -0.9174 -1.5579  1.3635
49201SOL     OW52540  10.212   6.194   1.596 -0.2377 -0.1371 -0.5057
49201SOL    HW152541  10.135   6.213   1.651 -0.3726 -3.7520  0.7944
49201SOL    HW252542  10.180   6.202   1.507 -2.3522 -1.9167  0.0012
49202SOL     OW52543  10.038   4.031   6.962  0.0533  0.2440 -0.4559
49202SOL    HW152544  10.043   4.089   6.886 -1.7138  2.0170  0.6859
49202SOL    HW252545   9.962   4.062   7.011  0.4344 -1.5937  1.4394
49203SOL     OW52546   8.594   5.517   0.130 -0.2946  0.0704  0.2679
49203SOL    HW152547   8.511   5.530   0.175 -0.8588  0.7027 -0.9088
49203SOL    HW252548   8.638   5.602   0.137 -0.0603 -0.0506  0.2709
49204SOL     OW52549   5.728   3.463   7.650  0.0265 -0.4500 -0.0190
49204SOL    HW152550   5.664   3.406   7.693  1.3270 -0.7696  1.6124
49204SOL    HW252551   5.809   3.449   7.698  0.6952  1.9307 -0.2901
49205SOL     OW52552   1.440   5.737   5.191 -0.2380 -0.6099 -0.5971
49205SOL    HW152553   1.451   5.814   5.247  1.6372 -0.5191 -1.0044
49205SOL    HW252554   1.473   5.766   5.105 -1.8224 -1.1425 -1.4268
49206SOL     OW52555   9.339  10.767   3.410  0.1577  0.2033  0.5803
49206SOL    HW152556   9.266  10.781   3.470  0.1095  0.6849  0.4177
49206SOL    HW252557   9.350  10.672   3.406  0.3230  0.1722  1.5424
49207SOL     OW52558   1.463  10.171   2.113 -0.0209  0.1036 -0.1687
49207SOL    HW152559   1.424  10.191   2.198 -0.7375  0.4203 -0.5646
49207SOL    HW252560   1.522  10.098   2.131  0.5065  0.7413  0.7617
49208SOL     OW52561   2.518   4.032   5.296  0.0314 -0.4892  0.1117
49208SOL    HW152562   2.450   4.088   5.334 -0.6871 -1.1773 -0.1443
49208SOL    HW252563   2.552   3.981   5.370  2.2449  1.7644  0.8174
49209SOL     OW52564  10.344   8.348   2.995 -0.1739  0.0510  0.3657
49209SOL    HW152565  10.276   8.358   2.929  0.7080 -0.8113 -0.7012
49209SOL    HW252566  10.400   8.277   2.962  0.0574 -0.7026  2.2300
49210SOL     OW52567   4.486  10.707   3.392  0.8430 -0.2677  0.3346
49210SOL    HW152568   4.471  10.799   3.414  1.7447 -0.3229  1.2645
49210SOL    HW252569   4.561  10.681   3.446  1.5250 -1.1501 -0.9828
49211SOL     OW52570  10.340   7.019   2.563 -0.1290 -0.1466 -0.1053
49211SOL    HW152571  10.363   7.001   2.654  0.8282  1.6998  0.0533
49211SOL    HW252572  10.297   7.105   2.565 -1.4061 -0.7141 -1.2336
49212SOL     OW52573   9.370   5.439   4.227  0.7506  0.2274  0.1420
49212SOL    HW152574   9.284   5.479   4.242  0.5379  0.4143 -1.3903
49212SOL    HW252575   9.353   5.344   4.231  1.1782  0.1856  3.3566
49213SOL     OW52576   9.550   9.406   3.647  0.0893  0.1840 -0.0953
49213SOL    HW152577   9.456   9.400   3.662  0.1885 -0.0439  0.4732
49213SOL    HW252578   9.559   9.465   3.572 -0.4396  1.3956  0.7660
49214SOL     OW52579   1.665   9.593   3.840 -0.0341  0.0738 -0.5392
49214SOL    HW152580   1.732   9.569   3.777 -0.6255  1.5784 -1.7953
49214SOL    HW252581   1.590   9.537   3.818  0.8495 -1.8874  1.1128
49215SOL     OW52582   7.063   7.980   3.732  0.2621  0.0232  0.2312
49215SOL    HW152583   6.990   7.926   3.761 -1.8186  2.5400  0.0495
49215SOL    HW252584   7.095   8.022   3.812  0.5714  0.0122  0.1158
49216SOL     OW52585   6.625   0.559   1.731  0.6779 -0.6682 -0.1384
49216SOL    HW152586   6.580   0.543   1.648  1.3990 -2.0944 -0.2787
49216SOL    HW252587   6.649   0.472   1.762 -0.5913 -0.2624  2.1738
49217SOL     OW52588   4.546  10.285   6.125  0.0296  0.8404  0.4143
49217SOL    HW152589   4.464  10.278   6.174  1.1275 -0.0960  2.2668
49217SOL    HW252590   4.547  10.209   6.068  0.2829 -0.0367  1.5495
49218SOL     OW52591   8.439   5.834   0.494 -0.3946 -0.0953  0.0983
49218SOL    HW152592   8.397   5.801   0.573 -1.0302  1.2111  0.3190
49218SOL    HW252593   8.414   5.926   0.489 -0.2004 -0.0992 -1.5160
49219SOL     OW52594   2.657   0.458   2.471 -0.1314 -0.3169  0.0917
49219SOL    HW152595   2.640   0.505   2.389 -0.2356  0.8362  0.7483
49219SOL    HW252596   2.699   0.376   2.444  3.4160  1.6356 -0.9467
49220SOL     OW52597   3.771   3.738   2.002 -0.2259  0.1246 -0.1533
49220SOL    HW152598   3.731   3.821   1.977 -3.7681 -0.9391  1.4119
49220SOL    HW252599   3.838   3.762   2.067 -1.8100  1.7653  0.9653
49221SOL     OW52600   9.726   3.545  10.491 -0.2917 -0.5293 -0.3588
49221SOL    HW152601   9.821   3.545  10.500 -0.3572 -1.1549  0.3916
49221SOL    HW252602   9.693   3.530  10.580 -1.1272  1.1727 -0.3307
49222SOL     OW52603   9.544   4.385   5.916 -0.3220  0.1822 -0.5529
49222SOL    HW152604   9.490   4.463   5.928  1.1602  1.1089  0.5459
49222SOL    HW252605   9.623   4.418   5.871 -0.9219 -1.2594 -2.8598
49223SOL     OW52606   4.934   4.219   7.687 -0.1119  0.3931 -0.2858
49223SOL    HW152607   4.878   4.200   7.763  1.9713 -0.8076  1.0508
49223SOL    HW252608   4.919   4.145   7.627  1.4005 -1.0006  0.9531
49224SOL     OW52609   3.767  11.262   7.955 -0.4514 -0.3160  0.0243
49224SOL    HW152610   3.747  11.174   7.924 -1.2848 -0.4301  0.8466
49224SOL    HW252611   3.846  11.252   8.009  0.8548 -0.1570 -1.7534
49225SOL     OW52612   9.984   7.304   4.521  0.3801 -0.2161 -0.0504
49225SOL    HW152613   9.914   7.244   4.546  0.0377  1.1761  2.7105
49225SOL    HW252614  10.064   7.253   4.532 -0.0271 -1.0410 -0.7356
49226SOL     OW52615   4.340   8.390   2.456  0.2242 -0.1375 -0.5909
49226SOL    HW152616   4.427   8.353   2.467  0.2142  0.0989  0.3132
49226SOL    HW252617   4.356   8.481   2.429  0.3185  0.6290  1.8120
49227SOL     OW52618   4.858   8.675   7.627  0.2087  0.0531  0.0448
49227SOL    HW152619   4.949   8.701   7.631  1.0902 -2.7136  0.4796
49227SOL    HW252620   4.831   8.695   7.537  1.9018 -0.9331 -0.7261
49228SOL     OW52621  11.418  10.440   0.036 -0.2480  0.1627 -0.5236
49228SOL    HW152622  11.508  10.424   0.010 -0.8165 -0.9365 -1.9555
49228SOL    HW252623  11.382  10.353   0.053 -1.7214  0.3459 -2.4451
49229SOL     OW52624   1.049   4.114   1.705  0.4142  0.1120 -0.1831
49229SOL    HW152625   0.992   4.156   1.769 -0.1233 -0.9885  0.0843
49229SOL    HW252626   1.137   4.145   1.728  0.1366  0.3751  0.5587
49230SOL     OW52627   9.187  11.486   0.954  0.2658  0.7413  0.5247
49230SOL    HW152628   9.222  11.573   0.973  0.1261  0.8540  0.2683
49230SOL    HW252629   9.264  11.429   0.953  0.3960  0.9199  0.3503
49231SOL     OW52630   7.166   8.959   5.148 -0.4061  0.5513  0.7199
49231SOL    HW152631   7.166   9.021   5.075 -0.7334  0.1679  0.3868
49231SOL    HW252632   7.202   9.008   5.221  1.0967  0.5865 -0.0070
49232SOL     OW52633  11.363   8.883   8.320 -0.5157  0.0751 -0.0373
49232SOL    HW152634  11.364   8.870   8.225 -1.0299  1.4284 -0.2517
49232SOL    HW252635  11.295   8.824   8.351  0.9796 -1.8526 -0.2323
49233SOL     OW52636   0.191   5.135   9.912 -0.1845  0.5216  0.0901
49233SOL    HW152637   0.227   5.049   9.894 -0.3814  0.5470 -0.4411
49233SOL    HW252638   0.243   5.168   9.986 -0.6699 -0.3868  0.8525
49234SOL     OW52639   9.665   1.058   1.709 -0.7236  0.6082 -0.0260
49234SOL    HW152640   9.705   1.054   1.796 -0.3158  0.4221 -0.2199
49234SOL    HW252641   9.619   0.975   1.700  1.9302 -0.8355 -1.2650
49235SOL     OW52642   8.826  10.843   4.106 -0.2087 -0.1094  0.1298
49235SOL    HW152643   8.884  10.890   4.047  0.2998 -0.4854  0.3248
49235SOL    HW252644   8.764  10.909   4.136 -1.2861 -0.1615 -1.8003
49236SOL     OW52645   2.064   1.987   1.089  0.0501 -0.3766  0.0800
49236SOL    HW152646   2.118   1.910   1.109  0.1207 -0.3323  0.0611
49236SOL    HW252647   1.997   1.988   1.157  0.0485 -0.4551  0.0799
49237SOL     OW52648   1.675   6.201   9.528 -0.5248  0.4272  0.2386
49237SOL    HW152649   1.729   6.275   9.557 -1.0538  0.0804  2.2338
49237SOL    HW252650   1.626   6.175   9.606 -0.8047 -1.6586 -0.5750
49238SOL     OW52651  10.008   0.339  10.649 -0.1996  0.3787 -0.1684
49238SOL    HW152652   9.931   0.300  10.689  0.6485 -1.2586 -0.0283
49238SOL    HW252653  10.015   0.297  10.564  1.7864 -1.3082  0.7265
49239SOL     OW52654  11.196   9.078   3.761  0.6899  0.3960 -0.3335
49239SOL    HW152655  11.258   9.010   3.785 -1.7843 -1.1742  2.3586
49239SOL    HW252656  11.198   9.139   3.835 -0.8204  0.3623 -0.2346
49240SOL     OW52657   1.277  11.222   1.021  0.2117 -0.2059 -0.6797
49240SOL    HW152658   1.246  11.313   1.029 -2.6029 -1.2189  2.0377
49240SOL    HW252659   1.238  11.191   0.940  1.8307  1.1224 -2.0566
49241SOL     OW52660   3.005   4.068  11.000  0.4360  0.5027  0.3758
49241SOL    HW152661   2.953   4.033  10.927 -0.0572 -0.9857  1.3759
49241SOL    HW252662   3.058   3.994  11.029  1.2823  1.3228  0.9699
49242SOL     OW52663   0.594  11.253   8.214 -0.1014  0.3717  0.2277
49242SOL    HW152664   0.555  11.211   8.137  1.1350 -3.6449  1.5081
49242SOL    HW252665   0.521  11.262   8.275 -0.0756 -2.5812  0.8469
49243SOL     OW52666   8.696   3.086   7.790 -0.7057  0.2487  0.0333
49243SOL    HW152667   8.638   3.150   7.750 -0.8772 -0.7257 -1.3401
49243SOL    HW252668   8.644   3.006   7.795  0.6104 -0.7928 -1.6924
49244SOL     OW52669  10.917  10.606   1.359  0.7101  0.0381 -0.0365
49244SOL    HW152670  10.867  10.534   1.321  1.2787 -0.8781  0.9087
49244SOL    HW252671  10.964  10.645   1.285  0.4206 -0.5820 -0.5506
49245SOL     OW52672   4.586   0.584   5.802  0.3286  0.4126 -0.0179
49245SOL    HW152673   4.524   0.521   5.766  1.1967 -0.4839  0.0421
49245SOL    HW252674   4.641   0.609   5.728  1.0230 -0.1411  0.3041
49246SOL     OW52675   0.460   6.117   3.003 -0.6034 -0.1729  0.0442
49246SOL    HW152676   0.436   6.029   2.977  2.9637 -1.1365 -0.5860
49246SOL    HW252677   0.433   6.172   2.930  0.3152 -1.3502 -1.2311
49247SOL     OW52678   7.897  10.904  10.792  0.6823  0.5913 -0.1810
49247SOL    HW152679   7.952  10.894  10.715 -0.9943  3.3565 -1.9409
49247SOL    HW252680   7.814  10.864  10.768 -0.1227  2.1977 -0.2061
49248SOL     OW52681   5.038   1.968   4.410  0.1152 -0.2478  0.0528
49248SOL    HW152682   5.037   1.909   4.485 -0.8388  0.3499  0.5471
49248SOL    HW252683   5.010   1.914   4.337 -1.0363 -0.3667  0.5551
49249SOL     OW52684   4.156   6.201   4.932  0.2146 -0.2539 -0.0642
49249SOL    HW152685   4.246   6.233   4.933  0.0403  0.4451 -2.0098
49249SOL    HW252686   4.151   6.140   5.006  2.0566  0.2543  0.5303
49250SOL     OW52687   7.283   1.816   0.516  0.2354 -0.5530  0.1940
49250SOL    HW152688   7.236   1.739   0.548 -0.4596  0.0971  0.7799
49250SOL    HW252689   7.281   1.808   0.421  2.6372 -2.7122  0.2189
49251SOL     OW52690   9.053   8.831   9.655 -0.2881  0.3056 -0.5715
49251SOL    HW152691   9.037   8.913   9.702  1.8016  0.9083 -0.7686
49251SOL    HW252692   9.042   8.855   9.562 -1.2657 -0.0562 -0.5499
49252SOL     OW52693   5.149   3.593   7.602  1.0243 -0.0143  0.2936
49252SOL    HW152694   5.118   3.526   7.662  2.0440 -1.9384 -1.2295
49252SOL    HW252695   5.173   3.667   7.659 -1.8364 -0.1584  1.8591
49253SOL     OW52696   9.330   2.974   1.243 -0.0671 -0.5700  0.1570
49253SOL    HW152697   9.357   2.930   1.324  0.9864 -2.6070 -1.2429
49253SOL    HW252698   9.258   2.921   1.209  0.3832 -0.5096 -0.9189
49254SOL     OW52699   5.008   8.295   2.993 -0.5305 -0.6511  1.0006
49254SOL    HW152700   4.926   8.333   2.962 -0.0589  0.2771  0.8543
49254SOL    HW252701   4.984   8.206   3.021 -1.5405 -0.4607  0.7894
49255SOL     OW52702   7.127   0.725   5.181 -0.4961 -0.3919  0.1882
49255SOL    HW152703   7.188   0.754   5.113 -2.7864  0.6676 -1.5766
49255SOL    HW252704   7.109   0.804   5.232 -1.2844 -0.3823 -0.0903
49256SOL     OW52705   3.337   8.805   6.856  0.0109  0.2552  0.0820
49256SOL    HW152706   3.423   8.764   6.854  0.5951  1.3676  1.2440
49256SOL    HW252707   3.353   8.896   6.833 -1.0984  0.1407 -1.2565
49257SOL     OW52708   4.643   5.820   5.671 -0.3568 -0.2688  0.5828
49257SOL    HW152709   4.656   5.914   5.660  1.9852 -0.2872  2.3105
49257SOL    HW252710   4.646   5.806   5.766 -2.2904 -1.9421  0.4918
49258SOL     OW52711   0.721   1.583   3.427 -0.1878  0.2544 -0.7898
49258SOL    HW152712   0.787   1.641   3.390  0.0781  0.2715 -0.3079
49258SOL    HW252713   0.655   1.574   3.359  0.1317  0.5348 -1.1397
49259SOL     OW52714   5.024   5.893   6.513 -0.4414 -0.3869 -0.9302
49259SOL    HW152715   4.957   5.862   6.452 -0.3517  0.5980 -1.5449
49259SOL    HW252716   4.991   5.977   6.545  0.7846  0.4358 -1.7487
49260SOL     OW52717   0.113  11.395   9.538  0.1102  0.2758 -0.2981
49260SOL    HW152718   0.018  11.385   9.533  0.1258 -0.3262  0.4539
49260SOL    HW252719   0.145  11.355   9.457 -0.3378  1.6425 -1.1824
49261SOL     OW52720  10.289   9.751   2.228 -0.0163 -0.6414  0.1155
49261SOL    HW152721  10.253   9.763   2.140 -0.0033  2.7361  0.4418
49261SOL    HW252722  10.223   9.788   2.287  1.6848  0.9493  1.1394
49262SOL     OW52723   4.659   0.191   4.647 -0.0586  0.2566 -0.0742
49262SOL    HW152724   4.690   0.130   4.714  1.1625  1.5702  0.6173
49262SOL    HW252725   4.564   0.177   4.643  0.0441 -0.8535  0.8865
49263SOL     OW52726  10.751   8.446   3.026  0.1764 -0.0754 -0.5764
49263SOL    HW152727  10.694   8.370   3.028 -0.5745  0.4714 -0.5941
49263SOL    HW252728  10.793   8.447   3.113 -0.7994  0.2132 -0.0904
49264SOL     OW52729   0.611   1.859  10.682 -0.0366  0.0899 -0.2302
49264SOL    HW152730   0.527   1.826  10.649  0.6179 -2.5873  0.5148
49264SOL    HW252731   0.653   1.898  10.605 -1.4767  0.4556 -0.8663
49265SOL     OW52732   7.282   9.457   1.847 -0.4446  0.0169  0.0734
49265SOL    HW152733   7.223   9.450   1.923 -0.7619 -0.7371 -0.2390
49265SOL    HW252734   7.329   9.539   1.862 -1.1059  0.3065  0.6634
49266SOL     OW52735   6.438   0.416   0.169 -0.2010  0.3736  0.2944
49266SOL    HW152736   6.495   0.487   0.137  0.5363  0.4027  1.6181
49266SOL    HW252737   6.428   0.433   0.262 -0.8957 -0.6795  0.4276
49267SOL     OW52738   5.819   9.802  11.274 -0.7387  0.8805  0.1559
49267SOL    HW152739   5.895   9.754  11.306 -0.2768  0.9954 -0.7150
49267SOL    HW252740   5.793   9.756  11.194 -2.9197 -0.4401  1.5199
49268SOL     OW52741   7.212   5.782  10.823 -0.2530  0.0211 -0.0797
49268SOL    HW152742   7.279   5.808  10.760 -0.0433  0.8542  0.4679
49268SOL    HW252743   7.147   5.851  10.819  0.0937  0.4441  1.0881
49269SOL     OW52744   4.354   3.219   9.364  0.1355 -0.3774 -0.3344
49269SOL    HW152745   4.440   3.258   9.349 -0.4281  0.6074 -1.1552
49269SOL    HW252746   4.349   3.147   9.300 -0.2823  0.6344 -1.4895
49270SOL     OW52747   2.717   0.182   7.678  0.3350 -0.6056  0.2699
49270SOL    HW152748   2.756   0.248   7.736 -0.1914  0.4270 -0.5250
49270SOL    HW252749   2.791   0.127   7.652  0.9972  0.3701  0.0339
49271SOL     OW52750   0.929  10.996   2.804  0.1957 -0.5242  0.2397
49271SOL    HW152751   0.867  11.044   2.750  0.4617 -0.3734  0.0681
49271SOL    HW252752   1.006  11.052   2.809 -0.0518 -0.2576  1.2835
49272SOL     OW52753   5.811   8.011   4.035 -0.0536  0.0269 -0.3312
49272SOL    HW152754   5.832   8.034   3.944  0.0471 -1.6125 -0.7516
49272SOL    HW252755   5.717   7.995   4.034  0.1709 -1.4397 -0.5175
49273SOL     OW52756   4.571   0.997   0.958 -0.1747 -0.5437  0.5680
49273SOL    HW152757   4.636   1.013   1.026 -0.5495 -1.0394  1.0486
49273SOL    HW252758   4.544   1.085   0.930  0.0481 -0.3384  0.9900
49274SOL     OW52759   6.254   3.707   9.636 -0.5752 -0.2716 -0.0053
49274SOL    HW152760   6.267   3.753   9.719  1.6064  0.1521 -0.5267
49274SOL    HW252761   6.273   3.615   9.656 -0.8308 -0.2993  0.1201
49275SOL     OW52762   8.963   3.851   6.994  0.4053 -0.6260  0.4763
49275SOL    HW152763   9.049   3.809   6.988  1.1486  0.8668  0.3086
49275SOL    HW252764   8.979   3.942   6.972 -1.6563 -0.7764 -2.0985
49276SOL     OW52765   5.339   4.729   4.710  0.0475  0.3875 -0.3825
49276SOL    HW152766   5.341   4.636   4.731  0.9017  0.1716 -1.3476
49276SOL    HW252767   5.424   4.762   4.738 -0.7854  1.2205  1.3245
49277SOL     OW52768  10.121   5.730  11.558 -0.1827 -0.2035  0.1027
49277SOL    HW152769  10.191   5.667  11.575 -0.1242 -0.9033 -2.3208
49277SOL    HW252770  10.164   5.801  11.510 -1.0690 -0.6270 -1.3902
49278SOL     OW52771   7.104   9.130   0.135 -0.1609 -0.1363  0.2482
49278SOL    HW152772   7.139   9.074   0.204  2.2600 -0.6339 -1.2462
49278SOL    HW252773   7.179   9.183   0.106 -1.2316  0.5170 -1.5268
49279SOL     OW52774   1.428   2.898   1.747 -0.0157 -0.6512 -0.4923
49279SOL    HW152775   1.469   2.967   1.798  1.9142 -0.8134 -1.7235
49279SOL    HW252776   1.334   2.918   1.750  0.2613  0.5689  1.2187
49280SOL     OW52777   2.052   4.685   2.976  0.6583 -0.1736  0.5721
49280SOL    HW152778   2.134   4.641   2.953  0.4116  0.7182 -2.5374
49280SOL    HW252779   2.079   4.765   3.021  1.8498  1.5028 -2.7592
49281SOL     OW52780   4.193   3.410   6.172  0.7207  0.5605  0.1192
49281SOL    HW152781   4.278   3.393   6.133  0.0916  0.2831 -1.1709
49281SOL    HW252782   4.193   3.358   6.253  1.0250 -1.0377 -0.8670
49282SOL     OW52783   1.924   4.988   0.865 -0.1668 -0.1598  0.1526
49282SOL    HW152784   1.872   4.908   0.855 -0.8892  0.2677  0.4854
49282SOL    HW252785   1.990   4.982   0.796 -0.3703 -0.9186  0.0136
49283SOL     OW52786  10.910   9.101  10.069  0.1652 -0.3587  0.8115
49283SOL    HW152787  10.970   9.175  10.078 -0.5084  0.0357  2.2799
49283SOL    HW252788  10.826   9.141  10.044  0.7653 -1.0151 -2.8951
49284SOL     OW52789   3.825  10.915   6.637  0.5628  0.4833 -0.0725
49284SOL    HW152790   3.798  10.968   6.712 -0.6009 -0.4701  0.2207
49284SOL    HW252791   3.830  10.825   6.672  0.5253  0.1055 -1.0080
49285SOL     OW52792   4.888   5.189   9.088 -0.6367  0.3397  0.4701
49285SOL    HW152793   4.893   5.095   9.073 -0.1330  0.3474  0.5548
49285SOL    HW252794   4.980   5.218   9.084 -0.8571  0.9736 -0.5322
49286SOL     OW52795   0.386   2.151  10.128 -0.1427 -0.0824  0.7675
49286SOL    HW152796   0.330   2.115  10.059 -0.9496  0.6884  1.0145
49286SOL    HW252797   0.453   2.201  10.081  0.9204 -1.7537  0.4242
49287SOL     OW52798   0.543   0.256   5.209 -0.4462  0.0303 -0.2951
49287SOL    HW152799   0.516   0.300   5.128 -1.0186 -1.1383 -0.7639
49287SOL    HW252800   0.638   0.264   5.211 -0.4101 -0.1278 -1.1951
49288SOL     OW52801   1.046   3.377   3.370 -0.2389  0.1134  0.1922
49288SOL    HW152802   1.029   3.308   3.306  2.2169 -0.3384 -0.0786
49288SOL    HW252803   1.068   3.331   3.450 -0.8442  0.6529  0.6851
49289SOL     OW52804  11.506   5.339   1.319 -0.4193  0.0043  0.7072
49289SOL    HW152805  11.559   5.345   1.240 -0.3198 -0.1051  0.7657
49289SOL    HW252806  11.533   5.257   1.360  2.1641  1.7205  2.7643
49290SOL     OW52807   8.122   5.238   3.234  0.0052  0.4030 -0.1000
49290SOL    HW152808   8.049   5.200   3.284 -2.6259  2.1989 -2.3013
49290SOL    HW252809   8.151   5.312   3.287 -1.1204  0.8395 -0.0604
49291SOL     OW52810  10.836  10.136   2.229  0.1592 -0.2451  0.8278
49291SOL    HW152811  10.839  10.081   2.151 -0.0395 -1.2203  1.4845
49291SOL    HW252812  10.779  10.088   2.290 -1.9963  1.8253  0.5923
49292SOL     OW52813   9.801   7.497   7.890 -0.4544 -0.3687  0.0669
49292SOL    HW152814   9.761   7.575   7.850  1.9822  0.9706  0.0505
49292SOL    HW252815   9.884   7.529   7.926  0.2422 -2.8193  0.7896
49293SOL     OW52816   1.922   7.874   6.563 -0.1954  0.1593  0.1574
49293SOL    HW152817   1.948   7.867   6.655 -1.8885  2.4528  0.9153
49293SOL    HW252818   1.960   7.957   6.533 -0.6021 -0.0001 -0.8454
49294SOL     OW52819   0.811   7.192   2.660  0.8623  0.3025 -0.1305
49294SOL    HW152820   0.766   7.274   2.642  0.8302  0.4257  0.4860
49294SOL    HW252821   0.788   7.171   2.750  1.5497  0.0589 -0.0016
49295SOL     OW52822   5.785   2.621   2.827 -0.2270 -0.1252  0.1052
49295SOL    HW152823   5.869   2.626   2.782 -0.4159 -0.1271 -0.2518
49295SOL    HW252824   5.781   2.532   2.862 -0.4010 -0.3702 -0.5207
49296SOL     OW52825  11.186   2.830  11.224 -0.2393 -0.2655  0.4127
49296SOL    HW152826  11.100   2.852  11.188  0.5839 -0.0194 -1.5336
49296SOL    HW252827  11.190   2.735  11.221  0.2161 -0.2237 -1.2421
49297SOL     OW52828   2.485  11.243   9.649 -0.5746  0.1196  0.0276
49297SOL    HW152829   2.511  11.154   9.673  0.5613  0.2333 -0.6797
49297SOL    HW252830   2.546  11.299   9.697 -0.9843  0.5011  0.1100
49298SOL     OW52831   7.340   8.094   0.504 -0.2424  0.8197  0.2529
49298SOL    HW152832   7.246   8.094   0.490 -0.1887 -1.3950 -0.5431
49298SOL    HW252833   7.354   8.027   0.571  0.7220  1.6742  0.9378
49299SOL     OW52834   2.335   1.790   9.290 -0.1829 -0.5398  0.5491
49299SOL    HW152835   2.425   1.795   9.257  0.7731 -1.7233  2.7993
49299SOL    HW252836   2.296   1.718   9.240 -0.3476  0.7297 -1.2858
49300SOL     OW52837   0.403   3.672   6.617 -0.1526 -1.0051  0.1645
49300SOL    HW152838   0.320   3.701   6.581  0.0106 -0.6198  0.0960
49300SOL    HW252839   0.469   3.702   6.554 -0.0530 -2.4295 -0.4705
49301SOL     OW52840   8.592   0.619   3.344  0.6009  0.1736 -0.1592
49301SOL    HW152841   8.622   0.648   3.257 -0.4802  0.4617 -0.4506
49301SOL    HW252842   8.643   0.541   3.362  1.3461  0.5135 -0.7465
49302SOL     OW52843   2.635  10.427  10.620 -0.6231  0.2791 -0.1475
49302SOL    HW152844   2.718  10.448  10.577 -1.4487  0.7112 -1.6364
49302SOL    HW252845   2.657  10.361  10.685  1.2509  2.0976  1.1726
49303SOL     OW52846   8.128   0.103   4.647 -0.6581  0.4128  0.6632
49303SOL    HW152847   8.191   0.171   4.621 -0.4106 -0.1238 -0.1474
49303SOL    HW252848   8.095   0.133   4.732 -1.3349  2.0949 -0.1410
49304SOL     OW52849  10.805   2.056  10.626  0.6522  0.4798  0.4027
49304SOL    HW152850  10.866   2.124  10.597  1.8648 -0.7690 -0.0962
49304SOL    HW252851  10.806   2.062  10.722  3.8741 -1.3167  0.6338
49305SOL     OW52852   0.916   2.450   6.459  0.2221  0.5668  0.3067
49305SOL    HW152853   0.921   2.504   6.538  0.7281 -0.7519  1.2296
49305SOL    HW252854   0.847   2.386   6.478 -0.2229  0.7448 -0.6639
49306SOL     OW52855   7.857   2.941   2.500 -0.8653 -0.1481 -0.7119
49306SOL    HW152856   7.803   2.952   2.578  0.5674 -1.5341  0.5408
49306SOL    HW252857   7.884   3.030   2.477 -0.0773  0.1942  1.3261
49307SOL     OW52858  11.284   5.262   5.831 -0.1943  0.7949  0.7191
49307SOL    HW152859  11.264   5.251   5.738 -3.0911  0.7691  1.2495
49307SOL    HW252860  11.337   5.342   5.835  0.9376  0.1901 -1.0031
49308SOL     OW52861   4.471   3.781  10.464 -0.4237 -0.1127  0.4016
49308SOL    HW152862   4.549   3.803  10.515 -1.9624  1.7830  2.1052
49308SOL    HW252863   4.424   3.864  10.455 -1.8157 -1.0252 -1.3939
49309SOL     OW52864   4.918  11.592   1.685  0.4077  0.0945  0.2439
49309SOL    HW152865   4.909  11.498   1.669 -0.6632  0.4312 -1.3566
49309SOL    HW252866   4.871  11.606   1.767 -2.0349 -0.3606 -0.9925
49310SOL     OW52867   6.837   5.801  11.224 -0.6509 -0.4119  0.0492
49310SOL    HW152868   6.877   5.733  11.279 -2.0849 -0.5791  0.9558
49310SOL    HW252869   6.852   5.882  11.273 -1.2659 -0.4591  0.3303
49311SOL     OW52870   1.028   8.665   2.368  0.3323  0.1405  0.6117
49311SOL    HW152871   1.058   8.574   2.377  1.1273  0.1881 -1.1039
49311SOL    HW252872   1.059   8.708   2.447  0.5762 -0.9287  1.1253
49312SOL     OW52873   7.175   1.129   6.761  0.0156 -0.3557 -0.0119
49312SOL    HW152874   7.103   1.098   6.706  0.3975 -0.7335 -0.3103
49312SOL    HW252875   7.225   1.050   6.782  1.7673  0.1554 -1.8837
49313SOL     OW52876   5.278   0.591  10.745 -0.1196  0.3196  0.0879
49313SOL    HW152877   5.366   0.555  10.754  0.4155  1.5356 -0.0910
49313SOL    HW252878   5.226   0.544  10.810  0.9010  0.3493  0.9461
49314SOL     OW52879   7.982  10.139   7.987 -0.0795  0.1873  0.1110
49314SOL    HW152880   7.955  10.154   7.896 -1.8228 -0.4387  0.4767
49314SOL    HW252881   8.017  10.050   7.987 -2.5761 -0.8861  0.4849
49315SOL     OW52882   1.655   3.733   2.220  0.3278 -0.3274 -0.6230
49315SOL    HW152883   1.597   3.689   2.158  0.5044  0.3737 -1.2947
49315SOL    HW252884   1.600   3.749   2.297  0.1850 -1.4641 -0.4594
49316SOL     OW52885   2.453   5.339   6.941 -0.6008 -0.1529  0.3047
49316SOL    HW152886   2.485   5.286   6.868  0.1025  0.7393 -0.0417
49316SOL    HW252887   2.498   5.422   6.933 -3.1508  1.2832 -0.3540
49317SOL     OW52888   6.277  11.170   8.715 -0.2140  0.1816  0.1962
49317SOL    HW152889   6.201  11.202   8.764 -0.9061 -0.4274 -0.4568
49317SOL    HW252890   6.352  11.190   8.771 -0.9338  0.0177  1.2377
49318SOL     OW52891   4.895   1.171   5.653  0.3755 -0.3758 -0.5899
49318SOL    HW152892   4.812   1.201   5.691  1.4307  1.2536  0.5993
49318SOL    HW252893   4.942   1.133   5.727  2.4018  2.6948 -0.0896
49319SOL     OW52894   2.648   3.063   6.803  0.3664  0.1148  0.6311
49319SOL    HW152895   2.702   3.011   6.862  0.3665 -0.1896  0.3693
49319SOL    HW252896   2.682   3.152   6.811  1.6992 -0.2698 -0.4216
49320SOL     OW52897   4.976   0.904   3.189  0.3964 -0.1233 -0.2030
49320SOL    HW152898   4.981   0.904   3.094  1.0371 -2.0097 -0.2108
49320SOL    HW252899   5.067   0.913   3.218  0.1608  0.9815  0.2747
49321SOL     OW52900   1.712   9.319   5.142 -0.7563 -0.3411 -0.5584
49321SOL    HW152901   1.707   9.287   5.052 -2.1152  0.4182 -0.7843
49321SOL    HW252902   1.678   9.409   5.138  3.5297  1.5189 -0.0623
49322SOL     OW52903  10.334   3.652   6.501  0.0539 -0.3115  0.4287
49322SOL    HW152904  10.280   3.729   6.519  0.3249 -0.2890  1.1603
49322SOL    HW252905  10.275   3.578   6.516 -0.0858 -0.2663  0.1289
49323SOL     OW52906   0.050   7.050   7.675  1.1827 -0.1904 -0.0165
49323SOL    HW152907   0.051   7.009   7.588 -1.5679 -0.7486  0.1210
49323SOL    HW252908   0.098   6.988   7.731  2.9059  0.1337 -1.0746
49324SOL     OW52909   0.750   7.845   1.355 -0.0470 -0.2393 -0.4528
49324SOL    HW152910   0.760   7.937   1.329  0.9871  0.4727  2.1125
49324SOL    HW252911   0.656   7.835   1.372 -0.4052 -0.1384 -2.2466
49325SOL     OW52912   3.910   9.843   4.775  0.1471 -0.3913  0.1718
49325SOL    HW152913   3.957   9.837   4.858 -0.2878  0.0786  0.4593
49325SOL    HW252914   3.924   9.758   4.733  0.8905 -0.4071  0.4431
49326SOL     OW52915   2.513   4.058   8.472 -0.0059  0.0630  0.2916
49326SOL    HW152916   2.457   4.025   8.402 -0.2326  1.3120 -0.1278
49326SOL    HW252917   2.534   3.980   8.524 -0.4205 -0.7544 -0.7416
49327SOL     OW52918   5.524   7.111   9.914  0.2273 -0.0299  0.5036
49327SOL    HW152919   5.532   7.022   9.948 -1.0267 -1.4337 -2.4190
49327SOL    HW252920   5.484   7.099   9.827  1.3099  3.2946 -0.6091
49328SOL     OW52921   5.580   9.780   8.478  0.4543  1.3925  0.5209
49328SOL    HW152922   5.648   9.838   8.513  1.0946  1.7450 -1.2238
49328SOL    HW252923   5.615   9.750   8.394 -0.7076 -0.0062  0.5021
49329SOL     OW52924   4.600   2.093  11.412  0.0863 -0.0744 -0.3580
49329SOL    HW152925   4.519   2.043  11.403  0.7434 -1.3074  0.3473
49329SOL    HW252926   4.572   2.179  11.445 -0.7990 -1.0733  1.6419
49330SOL     OW52927  10.190  11.442  11.526  0.3463  0.0069 -0.4477
49330SOL    HW152928  10.098  11.425  11.510  0.1920 -0.2981  0.6762
49330SOL    HW252929  10.196  11.537  11.536  0.0089 -0.0427  0.2797
49331SOL     OW52930   0.810   1.366  10.441 -0.2282  1.1078  0.4072
49331SOL    HW152931   0.725   1.325  10.429  0.6057 -0.3390 -0.9320
49331SOL    HW252932   0.844   1.378  10.352  1.8731 -0.4050  0.9077
49332SOL     OW52933  10.403   8.250   5.218  0.0437  0.3501 -0.0862
49332SOL    HW152934  10.426   8.320   5.157  1.2122  0.2788  0.2421
49332SOL    HW252935  10.406   8.170   5.166  0.7523  0.3226 -0.0149
49333SOL     OW52936  10.344  10.949   2.920  0.2499  0.2336 -0.0049
49333SOL    HW152937  10.373  10.908   2.839  1.0243 -0.6988  0.7192
49333SOL    HW252938  10.381  11.038   2.916  0.1855  0.2309 -0.7190
49334SOL     OW52939   5.890   5.021   5.719 -0.0909  0.1561 -0.5274
49334SOL    HW152940   5.931   4.994   5.801 -2.8938 -0.2808  0.8542
49334SOL    HW252941   5.883   4.940   5.669  1.2867  0.3593 -1.0964
49335SOL     OW52942  11.690   2.237   4.992 -0.3834 -0.1427 -0.3276
49335SOL    HW152943  11.679   2.270   5.082 -0.3775 -3.1812  0.9081
49335SOL    HW252944  11.779   2.202   4.991 -0.5532 -0.5612 -1.3807
49336SOL     OW52945   2.529   9.614   5.542  0.0704 -0.0098  0.1628
49336SOL    HW152946   2.601   9.666   5.507  0.0719  0.4965  0.9128
49336SOL    HW252947   2.457   9.629   5.481  0.3810  0.0398 -0.1964
49337SOL     OW52948   8.814  11.269   4.096  0.2211 -0.3963 -0.4362
49337SOL    HW152949   8.906  11.256   4.073  0.7176  0.0894  1.1813
49337SOL    HW252950   8.798  11.362   4.081  0.9679  0.2774  2.3494
49338SOL     OW52951   7.573   6.919   1.821 -0.8403 -0.3131  0.3246
49338SOL    HW152952   7.526   6.993   1.859 -1.1622 -0.3651  0.0347
49338SOL    HW252953   7.655   6.914   1.870 -1.6001 -0.8945  1.5806
49339SOL     OW52954   1.629   0.256   4.042 -0.2721 -0.5450  0.8912
49339SOL    HW152955   1.556   0.196   4.058 -0.9190 -0.3795 -1.1547
49339SOL    HW252956   1.673   0.219   3.966 -1.7098  2.3630 -1.5709
49340SOL     OW52957  10.002   7.183   9.123 -0.2668  0.3739  0.1052
49340SOL    HW152958   9.979   7.093   9.144  0.4166  0.0623 -0.4629
49340SOL    HW252959   9.932   7.235   9.162 -0.6151 -0.3930  0.5180
49341SOL     OW52960   6.194   3.212   0.850 -0.4373 -0.3892  0.1262
49341SOL    HW152961   6.157   3.185   0.935 -0.1130 -1.5424 -0.0856
49341SOL    HW252962   6.170   3.304   0.842 -2.8048 -0.9227  0.2673
49342SOL     OW52963   5.863   5.302   8.947 -0.3751  0.6343 -0.2055
49342SOL    HW152964   5.769   5.291   8.964 -0.6432 -0.6339 -2.1978
49342SOL    HW252965   5.876   5.262   8.861  1.5864  2.7492 -0.9982
49343SOL     OW52966   7.895   2.645   6.591 -0.1293  0.5715  0.6777
49343SOL    HW152967   7.870   2.573   6.533 -1.2049 -0.0656  1.8843
49343SOL    HW252968   7.848   2.721   6.556 -1.3156  0.0472  1.0868
49344SOL     OW52969   6.199   7.795   4.197  0.1692  0.1087  1.0999
49344SOL    HW152970   6.122   7.738   4.198  1.8421 -2.3931 -0.0731
49344SOL    HW252971   6.196   7.841   4.281 -2.4457 -0.0653  1.1821
49345SOL     OW52972   2.782   4.393   3.199  0.2411 -0.4040 -0.5799
49345SOL    HW152973   2.792   4.349   3.115 -2.5721 -4.0873  0.7160
49345SOL    HW252974   2.699   4.440   3.193  0.5668  0.2218 -0.2253
49346SOL     OW52975   9.262   4.835   4.567 -0.1038 -0.5094 -0.0436
49346SOL    HW152976   9.187   4.789   4.604 -0.1600 -0.4139 -0.0360
49346SOL    HW252977   9.228   4.876   4.487 -0.3821  0.5501  0.5918
49347SOL     OW52978  10.546   8.427   6.821  0.0580 -0.1258 -0.1300
49347SOL    HW152979  10.460   8.387   6.804 -1.0568  1.5338  1.2710
49347SOL    HW252980  10.548   8.503   6.762 -0.3729  1.0066  1.2439
49348SOL     OW52981   9.087   5.415   6.896 -0.0854 -0.0727 -0.6742
49348SOL    HW152982   9.015   5.464   6.934  1.2155  1.0477  0.4629
49348SOL    HW252983   9.069   5.414   6.802 -0.2850  2.4728 -0.7188
49349SOL     OW52984  11.237   9.843   6.667 -0.3274 -0.1012 -0.3741
49349SOL    HW152985  11.256   9.825   6.575 -0.9445 -0.0324 -0.5213
49349SOL    HW252986  11.150   9.883   6.666  0.4088  1.5773  0.0798
49350SOL     OW52987  10.246   3.408  10.561  0.4926 -0.1054 -0.1522
49350SOL    HW152988  10.254   3.462  10.640  0.7420  0.0878 -0.3072
49350SOL    HW252989  10.317   3.343  10.569 -0.1942 -0.8121  0.3390
49351SOL     OW52990   6.847   9.528   4.268 -0.1509 -0.0537  0.2165
49351SOL    HW152991   6.881   9.441   4.246  0.3780 -0.3885  2.1575
49351SOL    HW252992   6.838   9.572   4.184 -0.6531 -2.0546 -0.8481
49352SOL     OW52993  11.287   3.715   4.747  0.3842 -0.2580 -0.0321
49352SOL    HW152994  11.315   3.663   4.823  0.0362  1.3721  1.2881
49352SOL    HW252995  11.293   3.655   4.673 -1.1546 -2.5340  1.5438
49353SOL     OW52996   9.508   6.835   9.092  0.0062 -0.4882  0.1586
49353SOL    HW152997   9.423   6.815   9.052 -0.4393 -0.7388  1.1878
49353SOL    HW252998   9.515   6.930   9.089 -0.8425 -0.3798  1.0749
49354SOL     OW52999   6.117   5.955   3.018  0.1193 -0.6074  0.1966
49354SOL    HW153000   6.155   5.870   3.040  0.5457 -0.0177  1.9095
49354SOL    HW253001   6.030   5.954   3.059  1.3819  0.9642  3.2673
49355SOL     OW53002   1.643   9.812   8.229  0.3368  0.2526 -0.7213
49355SOL    HW153003   1.668   9.894   8.185  1.2143 -0.2091 -1.1019
49355SOL    HW253004   1.700   9.746   8.191  0.7792 -0.2624  0.7699
49356SOL     OW53005   6.912  10.518  11.017 -0.0984  0.0385 -0.2304
49356SOL    HW153006   6.985  10.480  10.968  0.6531  0.2354  0.7144
49356SOL    HW253007   6.878  10.445  11.069  0.4513  0.3226  0.5336
49357SOL     OW53008  11.370   5.731   4.855  0.0667 -0.2821 -0.4605
49357SOL    HW153009  11.321   5.768   4.929  0.7323 -0.3423  0.0160
49357SOL    HW253010  11.332   5.644   4.843  0.1612 -0.3962  0.0204
49358SOL     OW53011   8.101   2.878  10.325 -0.0940  0.1647 -0.3859
49358SOL    HW153012   8.131   2.787  10.317  0.3296  0.1237  1.1691
49358SOL    HW253013   8.006   2.873  10.318 -0.0823 -0.4305 -0.1871
49359SOL     OW53014   6.819   6.286  10.897  0.4660  0.0850 -0.4905
49359SOL    HW153015   6.887   6.349  10.870  0.7075 -0.7939 -2.0817
49359SOL    HW253016   6.758   6.338  10.949  1.3712  1.3257 -0.6081
49360SOL     OW53017   7.794   9.497   4.403 -0.2302 -0.2531  0.6041
49360SOL    HW153018   7.765   9.587   4.417 -0.9525 -0.0264 -1.8722
49360SOL    HW253019   7.887   9.505   4.380 -0.0290 -0.2587  1.3959
49361SOL     OW53020   2.100   6.852   9.779 -0.2101 -0.7473 -1.3117
49361SOL    HW153021   2.067   6.813   9.859 -2.0618  0.7327 -1.2746
49361SOL    HW253022   2.187   6.885   9.802 -0.9123  0.1247  0.2811
49362SOL     OW53023   7.861   1.803   2.653 -0.2775  0.1544  0.5849
49362SOL    HW153024   7.821   1.843   2.731  1.2057  1.9602  0.4837
49362SOL    HW253025   7.811   1.838   2.580 -0.7516 -0.4138  0.6264
49363SOL     OW53026   5.528   9.285  10.486  0.2843  0.6071  0.2158
49363SOL    HW153027   5.454   9.236  10.449  0.2655  1.6851 -1.2467
49363SOL    HW253028   5.542   9.245  10.572 -0.9259 -0.7110 -0.1577
49364SOL     OW53029   8.217  10.515   4.875  0.0973 -0.2564 -0.2572
49364SOL    HW153030   8.139  10.570   4.878  0.9087  0.9034  0.8037
49364SOL    HW253031   8.290  10.577   4.870  1.0311 -1.2385  0.5687
49365SOL     OW53032   0.884   8.132   1.379  0.3072 -0.6823  0.0385
49365SOL    HW153033   0.957   8.182   1.415 -0.5262 -0.2411  1.1895
49365SOL    HW253034   0.808   8.163   1.428 -0.7538 -0.7130 -1.5154
49366SOL     OW53035   3.866  10.408   2.251 -0.0106 -0.2175  0.1345
49366SOL    HW153036   3.926  10.355   2.305 -0.4516 -1.3516 -0.4461
49366SOL    HW253037   3.879  10.498   2.282  1.2248 -0.5734  0.7336
49367SOL     OW53038   8.809   2.459   9.912 -0.3715  0.5404 -0.0273
49367SOL    HW153039   8.850   2.478   9.997 -0.2038 -1.2751  0.3389
49367SOL    HW253040   8.750   2.533   9.897 -0.0160  1.1575  1.4148
49368SOL     OW53041  10.660   2.350   9.723  0.6637 -0.7767  0.0819
49368SOL    HW153042  10.615   2.344   9.639 -3.0554 -0.8193  1.8613
49368SOL    HW253043  10.704   2.435   9.721 -1.0031  0.1117 -1.1700
49369SOL     OW53044  10.789   3.374   3.235 -0.0934  0.0903  0.4045
49369SOL    HW153045  10.781   3.365   3.140 -0.0896 -0.6552  0.4689
49369SOL    HW253046  10.880   3.401   3.249  0.2257 -0.8702  0.2545
49370SOL     OW53047   6.851   4.636  10.404 -0.8208 -0.3167  0.4930
49370SOL    HW153048   6.923   4.672  10.352 -2.3525  0.9357 -0.8756
49370SOL    HW253049   6.873   4.658  10.494 -0.5336  2.0609 -0.0870
49371SOL     OW53050   8.803   3.777  10.645 -0.2786  0.8293 -0.7016
49371SOL    HW153051   8.803   3.742  10.734 -1.3814  1.3105 -0.4905
49371SOL    HW253052   8.822   3.702  10.590 -1.7644  0.0334 -0.2013
49372SOL     OW53053   8.541   5.398   0.609 -0.4506 -0.6053  0.3376
49372SOL    HW153054   8.508   5.469   0.665 -0.2989 -0.3316  0.0862
49372SOL    HW253055   8.586   5.339   0.669 -1.9907 -1.3702  0.7963
49373SOL     OW53056  11.046   5.396   5.340  0.2558  0.1945 -0.1447
49373SOL    HW153057  11.050   5.310   5.382  1.3396 -0.5176 -1.6129
49373SOL    HW253058  11.044   5.458   5.413 -0.3946 -1.0465  0.9469
49374SOL     OW53059   7.481   3.047   7.132 -0.3799  0.4463 -0.4274
49374SOL    HW153060   7.552   2.990   7.161 -0.6783  0.2827 -0.0195
49374SOL    HW253061   7.492   3.052   7.037 -1.2757 -1.5554 -0.6792
49375SOL     OW53062   4.600   9.745   2.450 -0.1809  0.4457 -0.3484
49375SOL    HW153063   4.632   9.660   2.479  0.6351  1.3417  1.6258
49375SOL    HW253064   4.538   9.726   2.381 -1.3366 -1.8651  1.2067
49376SOL     OW53065   1.428   8.857   6.788  0.3036 -0.1233 -0.6605
49376SOL    HW153066   1.341   8.860   6.748 -0.1602  0.2654  0.3570
49376SOL    HW253067   1.466   8.775   6.757  0.0686  0.2911 -2.1186
49377SOL     OW53068   9.262   6.939   5.659 -0.0021 -0.0884 -0.7302
49377SOL    HW153069   9.255   7.031   5.684  1.2023 -0.4241  1.0445
49377SOL    HW253070   9.203   6.930   5.584 -1.4298  1.7540  0.0789
49378SOL     OW53071   6.418   1.705   9.745  0.2603  0.2446 -0.1131
49378SOL    HW153072   6.408   1.766   9.817  0.2537  1.3793 -1.0519
49378SOL    HW253073   6.512   1.687   9.742  0.3135  0.5229 -0.0863
49379SOL     OW53074   1.113   7.708  10.037 -0.4344 -0.0843 -0.0752
49379SOL    HW153075   1.152   7.766  10.102  0.0669  0.7998 -1.1309
49379SOL    HW253076   1.185   7.654  10.006 -0.8870 -1.2552  0.8581
49380SOL     OW53077   9.909  11.535   9.449 -0.0272 -0.3613 -0.2459
49380SOL    HW153078   9.867  11.549   9.365 -2.1530  0.6160  0.8951
49380SOL    HW253079   9.853  11.472   9.494  0.6157 -0.2487  0.7558
49381SOL     OW53080   0.051   8.412   8.667  0.1759  0.0381  0.1141
49381SOL    HW153081  -0.030   8.382   8.627  0.0881  0.0208  0.3064
49381SOL    HW253082   0.119   8.356   8.628  0.1301  0.2240 -0.2366
49382SOL     OW53083   6.519   6.664   8.407  0.0375 -0.2541 -0.2349
49382SOL    HW153084   6.513   6.659   8.312 -0.4327 -2.4559 -0.1416
49382SOL    HW253085   6.565   6.584   8.433  0.3207  0.3845  1.3914
49383SOL     OW53086   2.088   2.631   6.600  0.1353  0.6495  0.2626
49383SOL    HW153087   2.159   2.579   6.563 -1.4888 -0.7673 -0.9998
49383SOL    HW253088   2.048   2.675   6.525 -0.2821  1.5192  0.9684
49384SOL     OW53089   1.355   9.195   9.938 -0.1299 -0.7506 -0.2348
49384SOL    HW153090   1.378   9.119   9.991 -0.4277 -0.2620  0.6147
49384SOL    HW253091   1.291   9.161   9.875  0.6628 -1.4623 -0.6778
49385SOL     OW53092   1.982   8.002   9.183  0.5669  0.7080  0.1641
49385SOL    HW153093   1.916   7.970   9.122  0.2100  2.0552 -0.1931
49385SOL    HW253094   1.932   8.034   9.258  0.9798 -0.5591  1.0187
49386SOL     OW53095   4.167   7.505  10.809 -0.0749  0.1527  0.5842
49386SOL    HW153096   4.248   7.555  10.799  0.0679 -0.1804  0.0520
49386SOL    HW253097   4.122   7.516  10.725 -0.7373  0.5970  0.9841
49387SOL     OW53098   0.729   0.999   1.675 -0.4390  0.6662 -0.4587
49387SOL    HW153099   0.647   1.047   1.673 -0.5383  0.4836 -0.8444
49387SOL    HW253100   0.703   0.907   1.684 -0.2685  0.6229 -0.3934
49388SOL     OW53101   4.549   4.374   2.789  0.7489  0.4388  0.2193
49388SOL    HW153102   4.564   4.440   2.722 -0.1796  0.3054 -0.1374
49388SOL    HW253103   4.544   4.291   2.742 -1.6215  0.5296  0.1833
49389SOL     OW53104   8.309   1.077   9.041  0.5804  0.0815  0.2054
49389SOL    HW153105   8.337   1.068   8.950  1.2926 -1.2103  0.5348
49389SOL    HW253106   8.231   1.133   9.036 -0.4919 -1.4391 -1.3995
49390SOL     OW53107  11.554   6.976   0.709 -0.0388  0.0269  0.1909
49390SOL    HW153108  11.622   6.997   0.773 -1.1406  1.1268  1.0426
49390SOL    HW253109  11.503   7.056   0.701 -1.0534 -0.6788 -0.6689
49391SOL     OW53110   4.319   7.907   1.048 -0.0713  0.1568  0.0685
49391SOL    HW153111   4.279   7.887   1.132 -0.4871 -0.5552 -0.2902
49391SOL    HW253112   4.298   7.999   1.033 -0.3593  0.1723  0.5438
49392SOL     OW53113   6.865   1.636   7.524  0.4907 -0.0545  0.1698
49392SOL    HW153114   6.830   1.607   7.439  1.6611 -1.1612  0.0317
49392SOL    HW253115   6.952   1.670   7.504 -0.0814  1.8045  0.6387
49393SOL     OW53116  10.317   6.632   9.952  0.1835  0.3853 -0.9539
49393SOL    HW153117  10.412   6.624   9.953  0.2392  0.7824 -1.9184
49393SOL    HW253118  10.294   6.656  10.042  0.8360 -1.2686 -0.3176
49394SOL     OW53119   8.260  10.404   3.413 -0.0548 -0.2894 -0.2712
49394SOL    HW153120   8.321  10.473   3.389  0.4235 -0.8143 -0.6108
49394SOL    HW253121   8.200  10.397   3.338  0.1659 -0.5278 -0.4300
49395SOL     OW53122   5.288   7.880   6.956  0.0640  0.0691  0.0582
49395SOL    HW153123   5.291   7.910   7.047  0.2262 -1.0541  0.4408
49395SOL    HW253124   5.230   7.803   6.959 -0.3132  0.3121 -0.8749
49396SOL     OW53125   6.103   1.017   7.190 -0.1115  0.7212  0.1630
49396SOL    HW153126   6.077   1.102   7.225  0.3204  0.4955  1.0679
49396SOL    HW253127   6.127   0.966   7.267 -1.2448 -0.5276 -0.2686
49397SOL     OW53128   3.159   2.900   0.721  0.0609 -0.5150  0.3968
49397SOL    HW153129   3.150   2.817   0.674  0.1416 -0.1881 -0.2061
49397SOL    HW253130   3.249   2.927   0.704  0.3341 -0.7658  1.3827
49398SOL     OW53131   1.231   0.665   6.856 -0.2002  0.4106 -0.7637
49398SOL    HW153132   1.309   0.620   6.888 -0.4656  0.5394  0.0790
49398SOL    HW253133   1.172   0.595   6.830  0.0204  0.3074 -1.0027
49399SOL     OW53134   6.520   6.189   1.783 -0.4886 -0.4794 -0.4028
49399SOL    HW153135   6.534   6.281   1.807  0.8291 -0.8406  0.3560
49399SOL    HW253136   6.435   6.167   1.821 -0.1544  0.0370  0.6859
49400SOL     OW53137   2.118   1.234   6.639  0.0894 -0.0252 -0.6356
49400SOL    HW153138   2.126   1.329   6.649  2.1706 -0.1928 -0.2936
49400SOL    HW253139   2.163   1.198   6.715 -0.9187 -1.3034 -0.6161
49401SOL     OW53140   0.245  10.801   7.488  0.1603 -0.2060  0.0031
49401SOL    HW153141   0.159  10.775   7.455 -0.3978  1.2609  0.1876
49401SOL    HW253142   0.238  10.794   7.583  0.3708 -0.4447  0.0012
49402SOL     OW53143   4.839   9.414   6.670 -0.4891 -0.3558  0.2348
49402SOL    HW153144   4.921   9.425   6.718 -0.8295 -1.2257  1.0631
49402SOL    HW253145   4.781   9.371   6.732 -1.8653  1.0002 -0.0526
49403SOL     OW53146   3.307   2.631   9.476  0.5895  0.0157 -0.8572
49403SOL    HW153147   3.330   2.650   9.385 -1.0341  0.7719 -1.1324
49403SOL    HW253148   3.233   2.688   9.495  1.1388  0.1550  1.0711
49404SOL     OW53149   3.061   7.430   4.540 -0.2067  0.1649 -0.2854
49404SOL    HW153150   2.980   7.475   4.561  0.0219  0.3263  0.2839
49404SOL    HW253151   3.052   7.344   4.582  0.0945  0.3460  0.1586
49405SOL     OW53152   2.743   4.693   9.302  0.0602 -0.3789 -0.1027
49405SOL    HW153153   2.820   4.649   9.267  0.3676  0.3480 -0.3469
49405SOL    HW253154   2.778   4.763   9.357 -0.4192  0.5095 -0.9041
49406SOL     OW53155  11.163   8.038   7.565  0.0303  0.0559  0.0381
49406SOL    HW153156  11.118   8.016   7.647 -0.5440  0.6459 -0.1130
49406SOL    HW253157  11.254   8.013   7.581  0.2698  1.5939  1.4610
49407SOL     OW53158   7.356  11.640   9.098 -0.6266  0.3835 -0.1961
49407SOL    HW153159   7.394  11.670   9.016 -0.1532 -0.7790 -0.4077
49407SOL    HW253160   7.396  11.697   9.165 -0.6450  1.0048 -0.7082
49408SOL     OW53161   7.618   0.239   1.671  0.2935 -0.8762 -0.1672
49408SOL    HW153162   7.541   0.186   1.688 -0.5915 -0.1562 -1.6700
49408SOL    HW253163   7.623   0.299   1.745 -1.8801  0.4741 -1.0258
49409SOL     OW53164  10.066   5.385   8.514  0.0044 -0.2205  0.2992
49409SOL    HW153165  10.005   5.432   8.458 -0.3758 -1.5668 -0.4502
49409SOL    HW253166  10.125   5.340   8.453 -1.3700 -2.9807  0.8327
49410SOL     OW53167   2.428   2.799   9.299 -0.9217  0.6251  0.2470
49410SOL    HW153168   2.456   2.797   9.207  0.8282  0.7665  0.7417
49410SOL    HW253169   2.375   2.878   9.306 -1.3586  0.4413 -0.7049
49411SOL     OW53170  11.059   6.910   6.800  1.0170  0.0159 -0.2622
49411SOL    HW153171  10.965   6.928   6.797  0.9258 -0.5740 -2.2308
49411SOL    HW253172  11.070   6.855   6.877 -0.4406 -0.7989 -0.5856
49412SOL     OW53173   8.092   2.616   5.999 -0.0507  0.0919  0.5825
49412SOL    HW153174   8.036   2.666   5.939  0.9122 -0.5750 -0.9455
49412SOL    HW253175   8.123   2.680   6.063  0.2588  1.2104 -0.6484
49413SOL     OW53176  11.071   9.035   1.233  0.1458  0.0615 -0.2776
49413SOL    HW153177  11.030   8.956   1.197 -0.5844  0.8347 -1.1813
49413SOL    HW253178  11.129   9.002   1.301 -1.1548 -1.1606  0.2955
49414SOL     OW53179   5.203   4.551   5.963 -0.0608 -0.3411  0.6794
49414SOL    HW153180   5.137   4.541   6.032  0.2293  0.8240  1.1573
49414SOL    HW253181   5.164   4.510   5.887  0.0886 -2.7138  1.8017
49415SOL     OW53182   0.912   8.498   2.924 -0.3963 -0.0867 -0.0494
49415SOL    HW153183   0.921   8.593   2.914  0.3176 -0.2827 -1.3483
49415SOL    HW253184   0.993   8.471   2.968 -0.0719 -0.2421 -0.7360
49416SOL     OW53185   2.632   7.350  11.265  0.5732 -0.4493  0.2797
49416SOL    HW153186   2.622   7.276  11.205 -0.2273 -0.4908  0.4541
49416SOL    HW253187   2.596   7.425  11.217  2.1388  0.0145 -0.2228
49417SOL     OW53188   0.389   6.621  10.674 -0.3054 -0.5047 -0.3151
49417SOL    HW153189   0.437   6.611  10.591 -0.4843  0.8801 -0.6211
49417SOL    HW253190   0.400   6.714  10.696 -2.0092 -0.3708  0.1274
49418SOL     OW53191   6.678   9.864   4.529  0.0525  0.3458  0.4236
49418SOL    HW153192   6.757   9.814   4.548 -1.0735 -1.7796 -0.2474
49418SOL    HW253193   6.619   9.802   4.486 -2.9654  1.1164  3.0464
49419SOL     OW53194   4.070   9.308   2.421 -0.3084 -0.1061 -0.5754
49419SOL    HW153195   4.032   9.274   2.502 -1.3561  0.7039 -0.7125
49419SOL    HW253196   3.997   9.346   2.374  0.4658  0.3493 -1.4386
49420SOL     OW53197   5.234   5.306   5.525 -0.6600  0.2306  0.1086
49420SOL    HW153198   5.218   5.251   5.602  2.1502  0.5769  1.0734
49420SOL    HW253199   5.275   5.247   5.462 -1.3029  0.3563 -0.4356
49421SOL     OW53200  10.528   6.632   4.399 -0.3249 -0.2251 -0.2253
49421SOL    HW153201  10.474   6.644   4.321 -0.5827 -2.2190 -0.4172
49421SOL    HW253202  10.599   6.695   4.390 -1.2357  0.6971 -1.2427
49422SOL     OW53203   4.214   9.891   3.267  0.3341  0.3502 -0.0606
49422SOL    HW153204   4.309   9.879   3.261  0.3555  0.5960 -0.2177
49422SOL    HW253205   4.186   9.907   3.177 -0.0847 -1.3517 -0.2717
49423SOL     OW53206   5.217   7.330   9.769  0.1452 -0.0058 -0.3835
49423SOL    HW153207   5.282   7.375   9.823 -1.0892 -1.0664  2.1582
49423SOL    HW253208   5.153   7.398   9.747 -0.0522  0.1944  0.7294
49424SOL     OW53209   9.760   4.236   5.410 -0.5787 -0.5908  0.4398
49424SOL    HW153210   9.677   4.192   5.427 -1.3181  0.4563 -0.3065
49424SOL    HW253211   9.799   4.186   5.338 -1.7053  0.2892 -0.8321
49425SOL     OW53212   5.819   7.147   0.467  0.5360  0.0369  0.2167
49425SOL    HW153213   5.838   7.169   0.376 -0.2348  0.6835  0.2027
49425SOL    HW253214   5.735   7.188   0.485 -0.2472 -1.6486  0.6500
49426SOL     OW53215   2.478   5.621   7.741  0.1206 -0.6595 -0.4985
49426SOL    HW153216   2.449   5.530   7.736 -1.4978 -0.4798  2.7063
49426SOL    HW253217   2.400   5.669   7.769  1.5981  1.2390  0.6191
49427SOL     OW53218   2.310   8.994   8.880 -0.2884 -0.2935 -0.0447
49427SOL    HW153219   2.249   9.033   8.943  0.2584 -0.1534  0.4142
49427SOL    HW253220   2.257   8.977   8.802 -0.4495  1.9401 -0.4931
49428SOL     OW53221   3.923  11.228   3.807 -0.4831 -0.2138  0.7126
49428SOL    HW153222   3.976  11.242   3.728 -0.5063  1.6439  0.9928
49428SOL    HW253223   3.977  11.171   3.862  0.1599 -0.3356 -0.0314
49429SOL     OW53224  11.591  10.413   0.403  0.4427  0.1185  0.5071
49429SOL    HW153225  11.550  10.343   0.352 -0.5995  3.5631 -4.1372
49429SOL    HW253226  11.684  10.391   0.404  0.0622 -1.7014 -0.0485
49430SOL     OW53227  11.401   8.583   5.964 -0.0204 -0.2417  0.2032
49430SOL    HW153228  11.432   8.641   5.894  0.1858 -0.0147  0.4797
49430SOL    HW253229  11.316   8.552   5.934 -0.7263  1.2080  0.6201
49431SOL     OW53230  10.579   8.299   1.019  0.4861  1.1005 -0.6656
49431SOL    HW153231  10.668   8.264   1.013  1.0308  2.1528  0.5691
49431SOL    HW253232  10.589   8.392   0.997 -0.0299  1.5446  0.8156
49432SOL     OW53233   1.387   0.442   9.765  0.0762 -0.0640  0.0594
49432SOL    HW153234   1.426   0.360   9.735  1.1428  0.1550  0.7673
49432SOL    HW253235   1.308   0.453   9.712  1.3524 -0.1608 -1.9551
49433SOL     OW53236   5.237   0.904   7.968 -0.3853  0.5371 -0.3894
49433SOL    HW153237   5.191   0.848   8.030 -0.3483  2.7452  1.7839
49433SOL    HW253238   5.170   0.965   7.937  0.0094  0.6256 -1.0881
49434SOL     OW53239  10.653   8.192   1.797 -0.1180 -0.3972 -0.3698
49434SOL    HW153240  10.598   8.142   1.737 -0.2989 -1.1823  0.4362
49434SOL    HW253241  10.736   8.144   1.801  0.3936  0.3999 -1.0366
49435SOL     OW53242   6.258  11.334   3.542 -0.1147 -0.3385 -0.4658
49435SOL    HW153243   6.226  11.270   3.479 -1.8772  0.7531 -0.7335
49435SOL    HW253244   6.251  11.418   3.497  0.0838  0.2813  0.6289
49436SOL     OW53245   3.410   7.022   5.615 -0.3934 -0.3436  0.0536
49436SOL    HW153246   3.409   6.935   5.655 -1.6595 -0.1720  0.4413
49436SOL    HW253247   3.377   7.080   5.684  0.3454  0.4445 -0.2317
49437SOL     OW53248   4.343   5.319   7.223 -0.2142 -0.4481 -0.1059
49437SOL    HW153249   4.346   5.230   7.187 -0.0450 -0.4436 -0.1035
49437SOL    HW253250   4.430   5.355   7.204  0.1426 -0.7078  0.9715
49438SOL     OW53251   9.492   5.450   5.257 -0.2122 -0.6347  0.0997
49438SOL    HW153252   9.450   5.520   5.208  0.2239 -0.0148  0.5960
49438SOL    HW253253   9.463   5.369   5.214 -0.1702 -0.1249 -0.9150
49439SOL     OW53254   0.167   9.432  11.295 -0.5715  0.6905 -0.3773
49439SOL    HW153255   0.227   9.384  11.352 -0.1764  0.7857 -0.7102
49439SOL    HW253256   0.083   9.388  11.307 -0.3065  0.1772 -0.3590
49440SOL     OW53257   2.114   3.785   9.709  0.0252  0.1550 -0.0704
49440SOL    HW153258   2.072   3.761   9.792  0.3939  0.1205  0.1089
49440SOL    HW253259   2.077   3.725   9.645 -0.0231 -0.0311  0.1307
49441SOL     OW53260   5.572   8.855   6.512 -0.3835 -0.5201 -0.6400
49441SOL    HW153261   5.517   8.779   6.492 -1.0642 -0.3362  0.4242
49441SOL    HW253262   5.661   8.820   6.515 -0.3717 -0.7785 -2.6347
49442SOL     OW53263   8.368   6.808  10.776  0.0185 -0.1501  0.0147
49442SOL    HW153264   8.429   6.818  10.849 -0.1529 -0.5687  0.2203
49442SOL    HW253265   8.294   6.759  10.814 -0.7231  0.8792 -0.0705
49443SOL     OW53266  10.724   8.546   1.058  0.0806  0.3821  0.4218
49443SOL    HW153267  10.720   8.616   0.993 -0.0750  0.2457  0.2838
49443SOL    HW253268  10.806   8.562   1.105  1.4224 -0.8587 -1.3444
49444SOL     OW53269   1.075   5.055   9.895  0.8096  0.4709  0.0615
49444SOL    HW153270   1.153   5.110   9.895  0.7383  0.5795 -0.3812
49444SOL    HW253271   1.021   5.091   9.825  0.8221 -0.2570 -0.3322
49445SOL     OW53272   0.727   1.300   6.812 -0.4082  0.2606 -0.6059
49445SOL    HW153273   0.676   1.283   6.892 -0.4644  1.1037 -0.4557
49445SOL    HW253274   0.756   1.390   6.822 -2.1823  1.1079 -2.5227
49446SOL     OW53275   3.198   4.799   8.488 -0.2131  0.3674  0.2339
49446SOL    HW153276   3.130   4.782   8.423  0.2021 -0.7840  0.0762
49446SOL    HW253277   3.217   4.893   8.480  1.6355 -0.1260 -3.1510
49447SOL     OW53278   6.729   8.033   0.715 -0.5019  0.4343  0.2669
49447SOL    HW153279   6.813   8.024   0.761  0.1079  0.6195 -0.7679
49447SOL    HW253280   6.678   7.958   0.745  0.0020  0.3621  0.9821
49448SOL     OW53281   0.986   8.270   6.578  0.0677 -0.1431  0.1462
49448SOL    HW153282   1.066   8.237   6.617  1.6881  1.8823 -1.2453
49448SOL    HW253283   0.963   8.347   6.630 -1.2717 -0.9308  0.7888
49449SOL     OW53284   8.647   4.485   3.737  0.0026 -0.1282 -0.3302
49449SOL    HW153285   8.719   4.499   3.798  0.0932  1.6745 -0.7932
49449SOL    HW253286   8.574   4.534   3.775 -0.2884  0.0167 -1.0654
49450SOL     OW53287   7.655   8.043   0.324  0.4700  0.6503 -0.3994
49450SOL    HW153288   7.665   7.995   0.241 -0.0410  1.6078 -1.0367
49450SOL    HW253289   7.581   8.102   0.308 -0.7673 -0.3458  1.3267
49451SOL     OW53290   8.157   0.351   2.820 -0.1710 -0.2422  0.1069
49451SOL    HW153291   8.087   0.411   2.793 -0.3143 -0.6036 -0.3222
49451SOL    HW253292   8.136   0.330   2.911 -0.0873  0.4057  0.2801
49452SOL     OW53293   9.044   6.190   3.870 -0.0493  0.3654  0.1700
49452SOL    HW153294   9.136   6.163   3.866 -0.6343 -1.6714 -1.7081
49452SOL    HW253295   8.997   6.111   3.900 -1.2224  1.3225  0.9412
49453SOL     OW53296   9.813   5.523  10.942  0.0695 -0.0269  0.0938
49453SOL    HW153297   9.756   5.454  10.976 -0.4649 -0.3776 -1.4579
49453SOL    HW253298   9.901   5.497  10.971 -0.1711 -1.1798 -0.1460
49454SOL     OW53299   7.124   2.333  10.543  0.4337  0.7282 -0.7571
49454SOL    HW153300   7.116   2.241  10.568  2.8067  0.4307 -0.8813
49454SOL    HW253301   7.090   2.337  10.454  0.2584 -0.0176 -0.7269
49455SOL     OW53302   2.939   4.532   8.192 -0.3893 -0.1195  0.5218
49455SOL    HW153303   2.904   4.499   8.275  0.3067  3.3442  2.3688
49455SOL    HW253304   3.034   4.534   8.206 -0.3194  1.1913 -0.0377
49456SOL     OW53305   1.426   3.050   2.339  0.2506 -0.5427 -0.5752
49456SOL    HW153306   1.513   3.091   2.335  0.3128 -0.7307 -1.4506
49456SOL    HW253307   1.415   3.011   2.252 -0.4203 -1.1237 -0.2326
49457SOL     OW53308   5.431   0.785   9.851  0.6332 -0.2776  0.3611
49457SOL    HW153309   5.440   0.740   9.767  1.9814 -0.0585  0.3601
49457SOL    HW253310   5.469   0.871   9.836 -0.3068  0.2346  0.8483
49458SOL     OW53311   6.282  10.433   3.460 -0.0022 -0.4621  0.1255
49458SOL    HW153312   6.328  10.385   3.529  0.4964  0.3763  0.3873
49458SOL    HW253313   6.336  10.511   3.444 -0.6289 -0.1422 -0.5154
49459SOL     OW53314   7.843   6.138   2.858  0.1192 -0.9282  0.0188
49459SOL    HW153315   7.897   6.063   2.836 -0.2103 -0.5598 -2.2310
49459SOL    HW253316   7.879   6.210   2.806 -0.1252  0.2893  1.4484
49460SOL     OW53317  11.688   0.565   3.207  0.0279  0.2527  0.0794
49460SOL    HW153318  11.652   0.585   3.121 -0.9218  0.9166  0.6109
49460SOL    HW253319  11.783   0.565   3.194 -0.0613  1.4762 -0.7347
49461SOL     OW53320   3.538  10.332  11.280  0.4501  0.1594 -0.2582
49461SOL    HW153321   3.584  10.357  11.200 -0.9735  3.0040 -0.2844
49461SOL    HW253322   3.446  10.331  11.256  0.1110 -0.4884  0.9964
49462SOL     OW53323   6.853   2.395   9.581 -0.1497 -0.0532  0.1290
49462SOL    HW153324   6.806   2.314   9.563  0.0855 -0.0727 -0.4266
49462SOL    HW253325   6.856   2.440   9.497 -0.7445  0.7845  0.5417
49463SOL     OW53326   7.349   5.791  11.049  0.1938  0.2008 -0.2693
49463SOL    HW153327   7.286   5.784  10.978 -1.9757 -0.5549  1.5876
49463SOL    HW253328   7.318   5.864  11.102 -0.0469 -1.0736  1.4573
49464SOL     OW53329   9.289   5.913   3.255 -0.1934  0.1431  0.8083
49464SOL    HW153330   9.316   5.988   3.307  0.4019  0.9263 -0.5650
49464SOL    HW253331   9.342   5.919   3.175 -2.1306 -0.1368 -0.5609
49465SOL     OW53332   0.511   4.622   1.276 -0.4969  0.2038 -0.0634
49465SOL    HW153333   0.554   4.700   1.312 -0.3668  0.4921 -0.8199
49465SOL    HW253334   0.453   4.593   1.346  0.5305  0.1144  0.7789
49466SOL     OW53335   4.161   6.360   9.620 -0.2288  0.2764 -0.2861
49466SOL    HW153336   4.246   6.331   9.654 -0.4765 -0.1645 -0.0259
49466SOL    HW253337   4.111   6.279   9.609 -0.7850  0.5655  0.0386
49467SOL     OW53338   2.340   4.633   1.855 -0.2608  0.3778  0.5341
49467SOL    HW153339   2.373   4.718   1.883 -0.6129  0.5653  0.3877
49467SOL    HW253340   2.357   4.631   1.760 -1.3051  0.7736  0.3254
49468SOL     OW53341   4.316   3.530   6.614 -0.2004  0.4974 -0.1907
49468SOL    HW153342   4.285   3.540   6.704 -2.0643 -0.5360 -0.6781
49468SOL    HW253343   4.279   3.605   6.568 -0.1724  0.4287 -0.3257
49469SOL     OW53344   0.724   5.133   6.592 -0.5363  0.3859 -0.1437
49469SOL    HW153345   0.733   5.078   6.513  1.4514 -2.1132  1.6481
49469SOL    HW253346   0.686   5.074   6.657 -1.1041  2.0820  1.1230
49470SOL     OW53347   3.964  11.277  11.506  0.2761 -0.1420  0.1476
49470SOL    HW153348   3.878  11.239  11.487 -0.1624  0.7712  0.2309
49470SOL    HW253349   3.957  11.368  11.477  1.8444 -0.5106 -1.6285
49471SOL     OW53350  11.523   2.818   7.382 -0.3155  0.2980  0.0532
49471SOL    HW153351  11.557   2.890   7.330 -0.3655  1.1692  1.1806
49471SOL    HW253352  11.558   2.833   7.470  0.8155 -1.8324  0.0368
49472SOL     OW53353   4.822  10.894   3.783  0.4023  0.4205 -0.2498
49472SOL    HW153354   4.753  10.960   3.791  0.4426  0.6028 -1.2403
49472SOL    HW253355   4.796  10.840   3.709  1.3209  0.4970 -0.6447
49473SOL     OW53356   3.094  11.450   0.000  0.1745 -0.4976 -0.2688
49473SOL    HW153357   3.182  11.443   0.038 -0.3326 -0.4269  0.9465
49473SOL    HW253358   3.036  11.465   0.075 -1.1101 -2.2497 -0.8434
49474SOL     OW53359   9.334  11.421   2.441  0.7630  0.0865  0.3571
49474SOL    HW153360   9.245  11.392   2.419  1.0503  0.7962 -2.0605
49474SOL    HW253361   9.372  11.349   2.490 -1.3194  0.0004  1.9777
49475SOL     OW53362   7.842  11.180   2.585 -0.0672  0.2023  0.1576
49475SOL    HW153363   7.885  11.203   2.502  0.1452 -1.0288 -0.0927
49475SOL    HW253364   7.857  11.256   2.641  2.5694 -0.1743  0.1323
49476SOL     OW53365   9.758   4.526   9.584  0.3101  0.6835  0.1094
49476SOL    HW153366   9.674   4.508   9.628  0.1889  0.1824 -0.3160
49476SOL    HW253367   9.757   4.620   9.568 -0.0062  0.7421  0.4444
49477SOL     OW53368   3.992   5.463   3.328 -0.3331  0.2683 -0.5473
49477SOL    HW153369   3.902   5.435   3.347  0.5535 -1.2608  1.8941
49477SOL    HW253370   4.011   5.530   3.394  0.6913 -0.2702 -0.2749
49478SOL     OW53371   7.172   7.966  10.500  0.7277 -0.5415  0.5433
49478SOL    HW153372   7.087   8.002  10.523  0.2091 -0.6135 -1.1201
49478SOL    HW253373   7.156   7.872  10.489  0.9457 -0.5160 -0.0384
49479SOL     OW53374   4.421   3.512   0.760 -0.5544  0.0049  0.2371
49479SOL    HW153375   4.500   3.566   0.753 -0.8799  0.4661  0.0304
49479SOL    HW253376   4.452   3.427   0.789  0.0341  0.1471  0.0329
49480SOL     OW53377   8.110   7.353   4.842  0.4303 -0.4493 -0.9503
49480SOL    HW153378   8.156   7.274   4.868 -2.2971 -1.3620  1.6411
49480SOL    HW253379   8.038   7.323   4.787 -1.5004 -0.0781  1.2292
49481SOL     OW53380   0.621   5.850   9.034 -0.3062 -0.2550  0.5311
49481SOL    HW153381   0.648   5.927   8.984 -0.0233 -0.5168  0.2765
49481SOL    HW253382   0.539   5.822   8.993 -1.5384  1.1108  1.9063
49482SOL     OW53383   2.586   2.443   4.952  0.0559 -0.0914 -0.1080
49482SOL    HW153384   2.604   2.352   4.973 -0.0671  0.2411  1.5636
49482SOL    HW253385   2.513   2.468   5.009 -0.0066  1.0050 -0.6304
49483SOL     OW53386   4.515   2.977   9.221  0.3711  0.3569 -0.2444
49483SOL    HW153387   4.470   2.934   9.149 -0.9440  0.1221  0.6847
49483SOL    HW253388   4.607   2.976   9.196 -0.0591  0.2953 -1.9147
49484SOL     OW53389   2.744  10.319   2.423 -0.6943 -0.3439 -0.2080
49484SOL    HW153390   2.818  10.378   2.435 -1.7410  0.9185  0.3129
49484SOL    HW253391   2.783  10.233   2.410  0.8538  0.3168 -0.0867
49485SOL     OW53392  11.570   6.015   3.402 -0.2044 -0.1508 -0.4275
49485SOL    HW153393  11.540   5.925   3.412 -0.8746 -0.2510 -2.8633
49485SOL    HW253394  11.493   6.068   3.421  0.1550 -0.0415  0.8700
49486SOL     OW53395   7.331   8.145   3.351  0.0158  0.4566  0.1284
49486SOL    HW153396   7.277   8.200   3.294  0.4800  2.5000  1.5658
49486SOL    HW253397   7.267   8.101   3.407 -0.2800  2.0191  1.0846
49487SOL     OW53398   7.103  10.510   3.221 -0.2546 -0.0908  0.0004
49487SOL    HW153399   7.098  10.433   3.278 -2.7745  0.2044  0.3014
49487SOL    HW253400   7.115  10.584   3.280 -0.1052 -0.0369 -0.0958
49488SOL     OW53401   1.822   1.927   8.291  0.6312  0.4143  0.0116
49488SOL    HW153402   1.900   1.958   8.245 -0.1770  0.2679 -1.5247
49488SOL    HW253403   1.764   1.896   8.221 -0.3432 -0.5301  1.1975
49489SOL     OW53404  11.648   6.578   2.325 -0.1194 -0.1816  0.3509
49489SOL    HW153405  11.639   6.529   2.407 -0.0293  0.6654  0.8773
49489SOL    HW253406  11.609   6.663   2.344  1.4410  0.6401  0.0644
49490SOL     OW53407   9.154   8.709  10.431 -0.4381  0.6064  0.4208
49490SOL    HW153408   9.152   8.710  10.527  1.5269  0.4064  0.4873
49490SOL    HW253409   9.169   8.800  10.407  1.7747  0.2902  0.4332
49491SOL     OW53410   2.726   3.245   3.535 -0.6435 -0.0210  0.2449
49491SOL    HW153411   2.723   3.325   3.587 -1.2696 -0.4908  0.9599
49491SOL    HW253412   2.798   3.195   3.573  0.6322  0.7588 -1.0706
49492SOL     OW53413   2.473   1.782   8.064  0.2997 -0.1250  0.3208
49492SOL    HW153414   2.481   1.728   7.985 -0.9500 -0.0298  0.1039
49492SOL    HW253415   2.427   1.726   8.126  2.4807 -0.6982  1.5040
49493SOL     OW53416   9.923   3.447   1.154 -0.0227  0.3199 -0.0404
49493SOL    HW153417   9.972   3.504   1.213 -1.1718 -0.8338  2.1698
49493SOL    HW253418   9.976   3.443   1.074  2.3941  0.7458  1.4556
49494SOL     OW53419   4.452   8.385   3.080 -0.4511  0.5642  0.5778
49494SOL    HW153420   4.480   8.399   3.171  1.0137 -0.6169  0.3399
49494SOL    HW253421   4.477   8.295   3.061 -1.3585  0.5803 -0.7997
49495SOL     OW53422   7.214   0.456   0.458 -0.3597 -0.0004 -0.5210
49495SOL    HW153423   7.305   0.452   0.429  0.4550 -1.9407  1.9146
49495SOL    HW253424   7.215   0.519   0.530 -1.1049  0.4869 -0.9284
49496SOL     OW53425   8.493  11.604   3.665  0.0805  0.3686  0.0961
49496SOL    HW153426   8.537  11.556   3.595 -1.4409 -0.0091 -0.6381
49496SOL    HW253427   8.470  11.688   3.626  0.6189  0.7966  0.6573
49497SOL     OW53428   2.604   4.101   6.581 -0.4021 -0.2828 -0.0722
49497SOL    HW153429   2.565   4.163   6.643  3.1423  0.0720  2.0818
49497SOL    HW253430   2.684   4.144   6.552  1.5905 -3.2525  0.5515
49498SOL     OW53431   3.013   9.628   2.670  0.6375  0.1534 -0.0154
49498SOL    HW153432   2.991   9.538   2.697  0.6153 -0.1645 -1.0530
49498SOL    HW253433   2.957   9.684   2.724 -1.6956 -0.5676 -1.5439
49499SOL     OW53434   8.901   7.360   8.150 -0.5749 -0.4105 -0.4391
49499SOL    HW153435   8.866   7.272   8.133 -1.9149  0.1332 -0.6284
49499SOL    HW253436   8.904   7.366   8.246 -1.2983 -0.3607 -0.4160
49500SOL     OW53437   4.397   0.801  10.731  0.5050  0.2460  0.0944
49500SOL    HW153438   4.437   0.717  10.708 -0.9924 -0.4218 -0.2047
49500SOL    HW253439   4.321   0.807  10.673 -0.0887  1.2480  0.9583
49501SOL     OW53440   1.370   9.634   1.528 -0.6521  0.2470  0.3655
49501SOL    HW153441   1.461   9.609   1.510 -0.3464 -1.1617  3.3243
49501SOL    HW253442   1.373   9.729   1.537  0.1900  0.3853 -1.0388
49502SOL     OW53443   6.684   1.047   1.150  0.0161 -0.0097  0.1341
49502SOL    HW153444   6.608   1.105   1.152  0.1418  0.1565  0.0465
49502SOL    HW253445   6.710   1.039   1.242 -1.3449 -1.6972  0.4202
49503SOL     OW53446  11.118  11.217  10.879  0.0845  0.4247  0.3772
49503SOL    HW153447  11.104  11.122  10.872  0.3176  0.3984  0.2442
49503SOL    HW253448  11.208  11.226  10.912 -0.1814  0.5915  1.0783
49504SOL     OW53449   9.028   8.101   1.650 -0.6603  0.4236  0.2337
49504SOL    HW153450   8.998   8.037   1.585  0.8823  0.7041 -0.8180
49504SOL    HW253451   8.949   8.145   1.680 -1.5464 -0.6686 -0.4253
49505SOL     OW53452   1.479   4.248   0.929  0.0066 -0.0630  0.6105
49505SOL    HW153453   1.454   4.242   0.836  0.3290 -1.5322  0.5903
49505SOL    HW253454   1.414   4.194   0.974 -0.7295  1.4248  1.3871
49506SOL     OW53455   3.629   1.646  10.869 -0.6234 -0.2437  0.4111
49506SOL    HW153456   3.588   1.699  10.801 -1.8206  0.1359  1.3854
49506SOL    HW253457   3.584   1.561  10.864  0.1331 -0.6283 -0.0550
49507SOL     OW53458   9.449   5.909   9.270  1.1053  0.1748 -0.0028
49507SOL    HW153459   9.399   5.962   9.207  2.0955  2.2063  0.8424
49507SOL    HW253460   9.429   5.818   9.246 -3.7042  0.7636  0.7841
49508SOL     OW53461   9.818  11.509  10.102  0.3731  0.5201  0.4379
49508SOL    HW153462   9.777  11.485  10.185 -0.3841  0.2279 -0.0103
49508SOL    HW253463   9.752  11.490  10.036  1.0517  0.5179 -0.2619
49509SOL     OW53464   2.335   7.093   2.325 -0.0452  0.3187  0.5173
49509SOL    HW153465   2.257   7.064   2.373 -0.2093 -0.9578 -0.4609
49509SOL    HW253466   2.390   7.133   2.392 -0.8994 -0.0837  1.5042
49510SOL     OW53467   6.773   6.132   1.053 -0.1766 -0.1319 -0.3402
49510SOL    HW153468   6.679   6.149   1.051  0.2887  3.0912  0.1033
49510SOL    HW253469   6.798   6.149   1.144  1.0567  0.6276 -0.8052
49511SOL     OW53470   5.248  10.491   7.725  0.1423  0.1517  1.0625
49511SOL    HW153471   5.299  10.545   7.665 -3.3072  2.0445 -0.4859
49511SOL    HW253472   5.284  10.403   7.715  3.0017  1.3337  0.1636
49512SOL     OW53473  11.320   2.048   0.966  0.0040 -0.5527 -0.2422
49512SOL    HW153474  11.270   2.126   0.990  0.3325 -0.8408  1.5159
49512SOL    HW253475  11.271   2.009   0.894 -1.9147 -0.4429  0.9474
49513SOL     OW53476   8.567   1.340   5.267 -0.5048  0.5813  0.0038
49513SOL    HW153477   8.528   1.307   5.186  1.7601  0.1718 -0.9805
49513SOL    HW253478   8.492   1.353   5.325 -1.8725 -3.4863 -0.5392
49514SOL     OW53479   8.547   2.507   9.491  0.0080 -0.1171  0.3479
49514SOL    HW153480   8.580   2.463   9.413 -0.5563 -2.0312  1.1109
49514SOL    HW253481   8.522   2.435   9.550 -1.9850  1.2431  1.2759
49515SOL     OW53482   3.915   8.930   8.631  0.2501 -0.8478  0.0568
49515SOL    HW153483   3.950   9.016   8.608 -1.5060 -0.0546  0.1438
49515SOL    HW253484   3.991   8.880   8.659  1.3913  0.5176 -0.4543
49516SOL     OW53485   1.946   9.832   5.098  0.1883 -0.5092  0.2044
49516SOL    HW153486   1.973   9.924   5.098  0.0143 -0.3987  2.2486
49516SOL    HW253487   1.882   9.827   5.169  1.0491 -2.4526  0.8930
49517SOL     OW53488   1.975   5.311   4.238 -0.2759 -0.2473 -0.2956
49517SOL    HW153489   1.996   5.220   4.217 -1.0570 -1.3173  3.0831
49517SOL    HW253490   2.031   5.332   4.313 -1.9485  1.1590  0.6358
49518SOL     OW53491   4.615   8.006   8.106  0.2539  0.3252  0.1602
49518SOL    HW153492   4.624   7.982   8.198 -0.1702  0.7235  0.3058
49518SOL    HW253493   4.678   8.077   8.093  1.6187 -0.9128 -0.3089
49519SOL     OW53494  10.495   8.255   9.279 -0.0085 -0.0253  0.4580
49519SOL    HW153495  10.463   8.191   9.216  0.4783 -0.7859  0.9758
49519SOL    HW253496  10.518   8.331   9.225 -0.4840 -0.3208 -0.1721
49520SOL     OW53497   6.105   8.012  11.425 -0.0454 -0.2569 -0.3750
49520SOL    HW153498   6.172   8.049  11.368 -1.4449  1.8995 -0.7392
49520SOL    HW253499   6.056   7.952  11.369  0.1914 -0.1293 -0.7218
49521SOL     OW53500   8.063   8.482   2.503  0.2280  0.4861  0.2374
49521SOL    HW153501   7.992   8.492   2.566  0.1377  0.8586  0.0791
49521SOL    HW253502   8.035   8.411   2.446  0.8326 -0.6588  1.3200
49522SOL     OW53503   2.588   3.078   9.343  0.3210  0.3596  0.0532
49522SOL    HW153504   2.605   3.094   9.436 -0.1111 -2.7848  0.7845
49522SOL    HW253505   2.493   3.072   9.337  0.3413  0.6668 -0.6216
49523SOL     OW53506   8.681   7.732   8.761 -0.1405 -0.1595 -0.6138
49523SOL    HW153507   8.636   7.792   8.702  0.1455  1.1319  0.4408
49523SOL    HW253508   8.770   7.728   8.727 -0.0820  0.2522 -0.5103
49524SOL     OW53509  10.603   2.384   9.405 -0.0890 -0.6163  0.4444
49524SOL    HW153510  10.554   2.447   9.352  0.3633  0.7746  1.6403
49524SOL    HW253511  10.687   2.375   9.360  0.3604  0.6932  0.9962
49525SOL     OW53512   1.811   3.644   9.718  0.2377  0.5119  0.4072
49525SOL    HW153513   1.790   3.642   9.811 -0.8247 -1.4704  0.1936
49525SOL    HW253514   1.802   3.553   9.690  3.9582  0.4111 -0.9590
49526SOL     OW53515   9.098  10.012   4.489 -0.7184 -0.2071  0.1128
49526SOL    HW153516   9.126  10.097   4.456 -0.2323 -0.8381 -1.1615
49526SOL    HW253517   9.012  10.029   4.528 -0.1554  1.0666  0.8846
49527SOL     OW53518   5.692   2.634   3.362 -0.3255 -0.2158  0.1781
49527SOL    HW153519   5.689   2.538   3.368  0.6124 -0.3503 -1.0569
49527SOL    HW253520   5.767   2.652   3.306  0.5648  1.3320  1.7749
49528SOL     OW53521   3.738   2.015   6.473  0.1909  0.0172  0.2577
49528SOL    HW153522   3.748   2.029   6.379  0.8082  0.0352  0.3215
49528SOL    HW253523   3.770   1.926   6.488  1.0733  0.3840  0.5959
49529SOL     OW53524   2.824   2.674   9.472  0.3291 -0.3238  0.0620
49529SOL    HW153525   2.877   2.624   9.410  1.4561  1.0977 -0.1662
49529SOL    HW253526   2.808   2.614   9.544  0.9888 -1.2603 -0.5490
49530SOL     OW53527   8.480   6.397   8.704  0.5966  0.4971 -0.0030
49530SOL    HW153528   8.503   6.433   8.789  2.8646  0.1383 -0.4045
49530SOL    HW253529   8.474   6.303   8.718 -2.5107  0.6475  0.4309
49531SOL     OW53530   3.978   1.622  11.371  0.2634 -0.6686 -0.5218
49531SOL    HW153531   3.989   1.533  11.403 -2.3065 -0.9918 -0.3987
49531SOL    HW253532   3.905   1.658  11.421  1.4226  1.6574 -0.3434
49532SOL     OW53533   5.920   7.221   0.151  0.4466 -0.4417 -0.3574
49532SOL    HW153534   5.888   7.288   0.212  0.4853 -1.0590  0.3593
49532SOL    HW253535   5.925   7.266   0.067  1.7846  0.8449  0.3628
49533SOL     OW53536   1.679   0.082   8.479  0.4559 -0.0915 -0.2555
49533SOL    HW153537   1.708  -0.009   8.481 -1.3452 -0.7081  0.0002
49533SOL    HW253538   1.732   0.126   8.546  2.0626 -0.6931 -1.0992
49534SOL     OW53539   2.759   2.542   5.250 -0.2502  0.5610  0.0563
49534SOL    HW153540   2.806   2.591   5.182 -0.4702  0.4721 -0.1598
49534SOL    HW253541   2.757   2.452   5.217  1.5966  0.0386  1.1854
49535SOL     OW53542   6.378   3.676   0.733 -0.5689  0.1373  0.2865
49535SOL    HW153543   6.315   3.706   0.668 -0.8204 -0.2654  0.3384
49535SOL    HW253544   6.447   3.742   0.732  1.1744 -1.5215 -2.8408
49536SOL     OW53545   5.761   2.889  11.316 -0.2866  0.1558 -0.0019
49536SOL    HW153546   5.738   2.894  11.223 -0.1672 -1.3507 -0.1381
49536SOL    HW253547   5.835   2.948  11.326 -0.3190  0.3488 -0.8543
49537SOL     OW53548   8.534   5.672   3.317  0.2670  0.2726  0.6716
49537SOL    HW153549   8.491   5.692   3.401  0.6763 -0.9410  1.1893
49537SOL    HW253550   8.615   5.627   3.342  1.1386  1.2500 -0.3455
49538SOL     OW53551   9.036   3.941   3.625  1.0405  0.0505 -0.0961
49538SOL    HW153552   9.094   4.010   3.592  0.1054  0.4823 -0.8879
49538SOL    HW253553   8.960   3.987   3.659  0.0014 -0.5834 -1.4437
49539SOL     OW53554   9.700   9.815   3.913 -0.3065  0.4468  0.7772
49539SOL    HW153555   9.721   9.858   3.830  1.5596 -0.3540  0.7835
49539SOL    HW253556   9.675   9.726   3.888 -0.7589  0.4988  1.0226
49540SOL     OW53557   0.692   3.970   9.977 -0.4280 -0.3740  0.2113
49540SOL    HW153558   0.732   4.047  10.018 -0.8580  0.0037 -0.0618
49540SOL    HW253559   0.642   4.006   9.904  1.1492 -1.1127 -1.3148
49541SOL     OW53560   0.979   4.667   7.556 -0.0106  0.1763  0.5145
49541SOL    HW153561   0.910   4.603   7.569  0.3155 -0.0922  0.9597
49541SOL    HW253562   1.056   4.628   7.597  0.6768  0.0135 -0.8654
49542SOL     OW53563   3.700   5.781   8.862 -0.1309 -0.2536  0.0755
49542SOL    HW153564   3.637   5.755   8.930 -0.3802 -0.6860 -0.3216
49542SOL    HW253565   3.696   5.877   8.863 -0.2368 -0.2603  0.5765
49543SOL     OW53566   3.205   1.787   7.318  0.3614  0.2204  0.2840
49543SOL    HW153567   3.226   1.762   7.408  1.1545  0.2063  0.1104
49543SOL    HW253568   3.217   1.707   7.267 -0.8626  0.0315  0.2714
49544SOL     OW53569   1.042  10.363   5.593  0.6859  0.0326  0.2881
49544SOL    HW153570   1.085  10.333   5.513  0.8470 -0.0887  0.4178
49544SOL    HW253571   1.039  10.285   5.649  0.4462  0.0833  0.3444
49545SOL     OW53572   5.801   6.761   0.341 -0.2996 -0.1714 -0.0317
49545SOL    HW153573   5.854   6.688   0.373  0.5921  0.1195 -0.7731
49545SOL    HW253574   5.711   6.730   0.346 -0.1385 -0.4398  1.8868
49546SOL     OW53575   3.991   9.651   8.730  0.1332 -0.0522 -0.1320
49546SOL    HW153576   3.973   9.744   8.719 -0.9778 -0.0810  1.1833
49546SOL    HW253577   4.021   9.643   8.821 -2.1070 -1.2622  0.5760
49547SOL     OW53578   6.239   1.602   7.054 -0.5953  0.0643  0.0712
49547SOL    HW153579   6.280   1.688   7.047 -0.7341  0.2082  0.9054
49547SOL    HW253580   6.311   1.543   7.076 -0.2577 -0.2917 -1.7899
49548SOL     OW53581  10.860   5.185   2.950  0.3136 -0.0176  0.0326
49548SOL    HW153582  10.768   5.202   2.974  0.2588  1.2077 -0.9207
49548SOL    HW253583  10.905   5.174   3.034 -0.9951 -2.5059  0.5006
49549SOL     OW53584   8.334   8.431   3.014 -0.2930  0.6096 -0.4225
49549SOL    HW153585   8.248   8.406   3.048  0.7665 -0.0566  1.9868
49549SOL    HW253586   8.368   8.350   2.976 -0.1055  0.4478  0.0794
49550SOL     OW53587   1.177   6.073   4.313 -0.4596  0.8921  0.5920
49550SOL    HW153588   1.153   6.018   4.238  0.2695  1.1466  0.1673
49550SOL    HW253589   1.208   6.012   4.379 -0.5003  0.7197  0.4520
49551SOL     OW53590  11.386   5.521   2.897 -0.1832  0.0942  0.2650
49551SOL    HW153591  11.462   5.529   2.840  0.3584 -0.6729  0.8484
49551SOL    HW253592  11.316   5.490   2.840  0.4063 -0.8684  0.0294
49552SOL     OW53593   3.814  10.033   8.123 -0.1434  0.1610  0.4971
49552SOL    HW153594   3.881  10.086   8.167 -0.9222 -0.1654  2.1652
49552SOL    HW253595   3.745  10.023   8.189 -1.8002  0.4068 -1.1311
49553SOL     OW53596   7.098   6.859   9.891 -0.5748  0.2752 -0.5161
49553SOL    HW153597   7.039   6.822   9.825  1.0038 -0.5072 -1.5510
49553SOL    HW253598   7.100   6.794   9.961 -0.2793 -0.0972 -0.8706
49554SOL     OW53599   2.439   6.476   0.576 -0.5364  0.3327  0.1361
49554SOL    HW153600   2.466   6.410   0.639  1.0022  1.9313  1.2458
49554SOL    HW253601   2.434   6.557   0.627 -0.4681  1.4554 -1.5590
49555SOL     OW53602   4.558  10.645   7.982  0.0064  0.5976 -0.3709
49555SOL    HW153603   4.495  10.580   8.012 -0.0339  0.6166 -0.4162
49555SOL    HW253604   4.611  10.599   7.916  0.3370  0.4442 -0.0040
49556SOL     OW53605   4.310   2.783   3.220  0.7354  0.6514  0.0923
49556SOL    HW153606   4.314   2.878   3.206  0.2041  1.0222  2.1617
49556SOL    HW253607   4.398   2.760   3.250  0.4078  0.8109  1.2222
49557SOL     OW53608   7.310  11.270   3.383  0.0242 -0.0567 -0.1013
49557SOL    HW153609   7.227  11.298   3.346  0.5030  0.7457 -0.6044
49557SOL    HW253610   7.374  11.331   3.347  1.2218 -2.0959 -1.7054
49558SOL     OW53611   1.560  11.689   4.660  0.5303  0.3596 -0.5622
49558SOL    HW153612   1.507  11.744   4.603  1.5248 -0.6189 -2.5307
49558SOL    HW253613   1.528  11.600   4.644  0.8304  0.0502  0.4514
49559SOL     OW53614   7.109   5.831  11.654 -0.7186  0.1409 -0.6317
49559SOL    HW153615   7.091   5.894  11.584  0.6636  2.2027  0.7807
49559SOL    HW253616   7.204   5.836  11.667 -0.8201 -0.9471  0.7323
49560SOL     OW53617   4.807  10.849   7.814 -0.2143 -0.1877  0.0728
49560SOL    HW153618   4.828  10.925   7.869  0.0161  0.4296 -0.8482
49560SOL    HW253619   4.890  10.804   7.802 -0.4253 -0.8319  0.9653
49561SOL     OW53620  10.763   2.246  11.194  0.4058  0.9736 -0.0514
49561SOL    HW153621  10.756   2.154  11.218 -1.5330  1.0477 -0.2239
49561SOL    HW253622  10.750   2.293  11.276 -0.8467  1.1223 -0.3239
49562SOL     OW53623   3.096   0.914   6.384 -0.9785  0.0126 -0.0206
49562SOL    HW153624   3.102   0.998   6.338  1.2247  0.5554  1.1291
49562SOL    HW253625   3.046   0.858   6.325  0.5401  1.0748 -2.4844
49563SOL     OW53626   9.398   9.904   9.620 -0.2548  0.2409 -0.0100
49563SOL    HW153627   9.363   9.983   9.663  1.7608  0.6682  0.9619
49563SOL    HW253628   9.486   9.895   9.655 -0.1011 -1.9515 -0.8218
49564SOL     OW53629   3.279   2.668   3.763  0.1051 -0.0044 -0.2398
49564SOL    HW153630   3.192   2.644   3.795 -0.0357 -1.2016 -1.3967
49564SOL    HW253631   3.339   2.614   3.814 -0.1713 -2.5787 -2.3967
49565SOL     OW53632   5.477   0.892   6.180  0.5553 -0.0720  0.3333
49565SOL    HW153633   5.494   0.946   6.257 -1.1450  2.6240 -1.0151
49565SOL    HW253634   5.558   0.897   6.129  0.1573  2.1755 -0.2112
49566SOL     OW53635   0.246   6.380  11.340 -0.1917 -0.2096  0.3508
49566SOL    HW153636   0.236   6.348  11.429 -3.8202  1.9527  0.9228
49566SOL    HW253637   0.265   6.473  11.350 -0.8129  0.1015 -1.0999
49567SOL     OW53638   5.295   2.448   3.450 -0.0586 -0.2074  0.1075
49567SOL    HW153639   5.272   2.434   3.358  0.3272 -0.2355  0.0127
49567SOL    HW253640   5.322   2.540   3.454  1.4373 -0.6146 -0.1380
49568SOL     OW53641   7.612   4.537   0.871  0.0267  0.3012  0.0348
49568SOL    HW153642   7.663   4.618   0.876  1.8707 -0.8416  0.6267
49568SOL    HW253643   7.605   4.519   0.778 -2.0070  2.0658 -0.2188
49569SOL     OW53644   7.964   1.434   4.562 -0.8830 -0.5741  0.3895
49569SOL    HW153645   8.057   1.416   4.577 -1.2016 -2.0008  0.7786
49569SOL    HW253646   7.936   1.481   4.640 -0.2835  0.7465 -0.1601
49570SOL     OW53647   4.363   8.060   8.199 -0.0508 -0.5044  0.5009
49570SOL    HW153648   4.440   8.048   8.145  0.1254  1.3996  0.2769
49570SOL    HW253649   4.290   8.034   8.143  0.1948  0.6720 -0.4160
49571SOL     OW53650   0.264   0.004   7.073  0.6163 -0.4869  0.2561
49571SOL    HW153651   0.292  -0.040   7.153 -0.4934  0.3290  1.1116
49571SOL    HW253652   0.289   0.095   7.085 -1.3431  0.0459  0.5756
49572SOL     OW53653   3.020   3.649   9.850  0.1129 -0.1397  0.5678
49572SOL    HW153654   3.073   3.570   9.837  2.2686  1.3928 -0.6122
49572SOL    HW253655   2.945   3.637   9.792 -0.6357 -2.1208  1.8474
49573SOL     OW53656   2.447   8.748   6.429 -0.0725  0.7252 -0.4530
49573SOL    HW153657   2.463   8.842   6.433 -1.7911  1.0878 -1.2667
49573SOL    HW253658   2.361   8.740   6.388 -0.4602 -1.1638  0.6149
49574SOL     OW53659   0.417   7.647   2.603 -0.5029 -0.0288  0.2319
49574SOL    HW153660   0.491   7.618   2.550 -0.1241 -0.9566  1.2393
49574SOL    HW253661   0.380   7.567   2.639 -1.9904  0.4177 -0.2050
49575SOL     OW53662   0.673   0.792   2.327  0.1099  0.2747 -0.0934
49575SOL    HW153663   0.704   0.715   2.280  2.2818  0.6847  0.5854
49575SOL    HW253664   0.656   0.857   2.258  0.6433 -0.0130 -0.5030
49576SOL     OW53665   3.963  11.130   1.235 -1.1059  0.1001 -0.5303
49576SOL    HW153666   4.017  11.137   1.314 -1.7071  2.6679 -0.2505
49576SOL    HW253667   4.023  11.146   1.163 -0.7113 -1.4467 -0.5766
49577SOL     OW53668   8.628   2.586   4.701 -0.3751  0.3435  0.2768
49577SOL    HW153669   8.593   2.626   4.780 -2.6238 -0.3000 -0.3070
49577SOL    HW253670   8.551   2.559   4.652  0.9675  0.1301 -1.8438
49578SOL     OW53671   6.465   6.343   6.988 -0.1279 -0.1013 -0.1311
49578SOL    HW153672   6.488   6.256   6.956  2.0770  0.6104 -0.6273
49578SOL    HW253673   6.420   6.327   7.071  0.8193 -1.6827  0.1114
49579SOL     OW53674   1.182  11.379   6.563  0.4606  0.2594  0.2158
49579SOL    HW153675   1.104  11.363   6.508  1.1477 -2.1919 -0.1999
49579SOL    HW253676   1.223  11.456   6.524 -1.9359  1.8775  0.7069
49580SOL     OW53677   6.018   1.391   8.027 -0.4281 -0.1875 -0.6042
49580SOL    HW153678   6.044   1.303   8.054 -0.6583  0.3140  1.4439
49580SOL    HW253679   6.085   1.418   7.964  0.5274 -1.2316 -0.0683
49581SOL     OW53680   0.019   6.815   6.797  0.1075 -0.7875 -0.3332
49581SOL    HW153681   0.049   6.764   6.872  2.3713 -1.9660 -1.9114
49581SOL    HW253682  -0.055   6.865   6.830  2.3865  0.5953  3.3466
49582SOL     OW53683   3.847   8.892   2.040 -0.0478 -0.0497  0.4530
49582SOL    HW153684   3.929   8.853   2.071  0.5767 -0.1278 -1.2202
49582SOL    HW253685   3.874   8.958   1.976 -1.2729  0.3984  0.3632
49583SOL     OW53686   7.083   3.152   1.813 -0.2613 -0.0216 -0.4490
49583SOL    HW153687   7.099   3.162   1.907  0.7825 -0.8699 -0.5116
49583SOL    HW253688   7.115   3.233   1.774 -1.2266  0.5752 -0.0287
49584SOL     OW53689   5.318   3.203   1.554  0.1304 -0.0734  0.6322
49584SOL    HW153690   5.341   3.114   1.529 -0.0012  0.3945 -1.4169
49584SOL    HW253691   5.242   3.194   1.612  0.1404 -1.2846  0.4709
49585SOL     OW53692  11.125   6.796  10.218  0.6253  0.2657 -1.0394
49585SOL    HW153693  11.045   6.807  10.270  1.8229 -0.4286  1.0781
49585SOL    HW253694  11.153   6.885  10.199 -0.3424  0.5267 -1.3158
49586SOL     OW53695   5.043   2.994   7.580 -0.4367  0.6992  0.2773
49586SOL    HW153696   5.061   3.065   7.519  3.0019  0.3767  0.7485
49586SOL    HW253697   5.123   2.942   7.581 -2.2189 -2.2622  1.2355
49587SOL     OW53698   3.961   4.749   2.655  0.0505 -0.0620  0.8499
49587SOL    HW153699   4.046   4.772   2.693  0.5473  0.9373 -0.7339
49587SOL    HW253700   3.939   4.823   2.599 -2.9567  0.6872  2.8126
49588SOL     OW53701   8.976   2.541   0.685  0.4695 -0.1673  0.6804
49588SOL    HW153702   8.982   2.637   0.693  0.1124 -0.2067  1.4972
49588SOL    HW253703   9.061   2.509   0.716  0.3314 -0.1475  1.0812
49589SOL     OW53704   6.326   8.732   9.672  0.7610  0.5449  0.2676
49589SOL    HW153705   6.323   8.691   9.759 -1.3413  1.0946  0.4993
49589SOL    HW253706   6.335   8.658   9.611 -0.1584 -0.0482  0.8315
49590SOL     OW53707   4.060   6.845   1.398  0.6078 -0.0608  1.1990
49590SOL    HW153708   4.074   6.925   1.347  1.8013 -0.4728  0.8364
49590SOL    HW253709   3.965   6.833   1.399  0.4359  1.1752  0.9824
49591SOL     OW53710   6.228   2.151   6.356 -0.3072 -0.6553  0.4760
49591SOL    HW153711   6.269   2.118   6.276  0.2801 -1.3003  1.0257
49591SOL    HW253712   6.135   2.154   6.336 -0.0630  0.2650 -0.6049
49592SOL     OW53713  10.806   9.121   5.422  0.0292  0.2378 -0.2536
49592SOL    HW153714  10.892   9.128   5.463 -0.2527  0.8165  0.2588
49592SOL    HW253715  10.772   9.210   5.420 -0.9658 -0.1017  0.4708
49593SOL     OW53716  10.836   4.970   0.599  0.1761  0.1033 -0.5161
49593SOL    HW153717  10.742   4.959   0.613  0.2640 -0.8651 -0.5987
49593SOL    HW253718  10.860   5.045   0.653 -0.6197  0.2787 -0.3962
49594SOL     OW53719   6.563   9.482   1.549  0.1835 -0.5079 -0.2792
49594SOL    HW153720   6.532   9.418   1.484  0.1391 -0.4523 -0.3124
49594SOL    HW253721   6.487   9.537   1.566 -0.0842 -1.1102  0.5236
49595SOL     OW53722   8.153   6.007   6.607  0.3946 -0.2101 -0.7110
49595SOL    HW153723   8.222   6.050   6.555  0.8120 -1.1094 -0.9288
49595SOL    HW253724   8.143   6.063   6.684 -0.4434  1.3131 -1.8699
49596SOL     OW53725   2.495   5.884   3.702  0.0919  0.4564 -0.0578
49596SOL    HW153726   2.567   5.836   3.744 -0.7807 -0.6546  0.2376
49596SOL    HW253727   2.533   5.968   3.679  1.6040 -0.2467 -0.2917
49597SOL     OW53728   6.142  10.194   9.199  0.0715 -0.0050  0.4592
49597SOL    HW153729   6.082  10.252   9.245 -0.5582 -0.5796  0.3790
49597SOL    HW253730   6.226  10.240   9.201 -0.5724  1.2607 -0.2755
49598SOL     OW53731  10.824   9.158   7.414  0.3127 -0.4087 -0.0570
49598SOL    HW153732  10.853   9.154   7.322 -0.7411 -0.8886 -0.3877
49598SOL    HW253733  10.741   9.111   7.414  0.1889 -0.2057  1.1135
49599SOL     OW53734   9.576   1.922   0.347 -0.3057 -0.2062 -0.6761
49599SOL    HW153735   9.638   1.991   0.372 -1.4854  0.7816 -0.3819
49599SOL    HW253736   9.527   1.904   0.428 -2.1691  0.9259 -1.4873
49600SOL     OW53737  10.922  10.975   3.827  0.3909 -0.1948 -0.4423
49600SOL    HW153738  10.876  11.052   3.793 -0.0365 -0.7301 -1.0785
49600SOL    HW253739  11.000  11.011   3.870 -1.6004  0.9534  2.5659
49601SOL     OW53740   3.668   6.323  11.575  0.4344  0.2233 -0.2105
49601SOL    HW153741   3.609   6.301  11.647  0.5937 -0.8149 -0.3789
49601SOL    HW253742   3.728   6.249  11.570  0.1406  0.0510 -1.6921
49602SOL     OW53743   1.916   3.066   6.017 -0.3181 -0.0756 -0.1444
49602SOL    HW153744   1.898   3.085   6.109 -0.8039 -1.1012 -0.0138
49602SOL    HW253745   1.939   2.973   6.015 -0.5930 -0.1354 -1.0930
49603SOL     OW53746   1.087   4.242   4.049  0.2056 -0.0662 -0.1655
49603SOL    HW153747   1.174   4.216   4.080  0.0951  0.4597  0.6366
49603SOL    HW253748   1.065   4.318   4.103 -1.3520 -1.0451  0.6483
49604SOL     OW53749   2.870  11.465   7.701 -0.3258 -0.4005 -0.0189
49604SOL    HW153750   2.878  11.453   7.606 -1.3583 -0.0098 -0.1637
49604SOL    HW253751   2.784  11.429   7.723 -0.0451 -0.5977  0.7979
49605SOL     OW53752   6.626   5.356   6.019  0.4843 -0.0107 -0.0580
49605SOL    HW153753   6.543   5.330   6.058  1.4320  1.8707  3.6765
49605SOL    HW253754   6.603   5.427   5.959 -0.7038  0.0399  0.4273
49606SOL     OW53755   1.941   6.220   4.108 -0.3731 -0.5899 -0.0453
49606SOL    HW153756   1.901   6.239   4.023  2.5089 -1.4769 -1.7719
49606SOL    HW253757   2.007   6.153   4.089  0.5930 -0.6259  2.8608
49607SOL     OW53758   5.178   9.508   7.390  0.3277 -0.5891 -0.0925
49607SOL    HW153759   5.096   9.480   7.347  1.1328 -0.9805 -1.4437
49607SOL    HW253760   5.168   9.603   7.399 -0.8983 -0.8072  1.1651
49608SOL     OW53761   9.904   3.046   1.344 -0.1530  0.3161 -0.1399
49608SOL    HW153762   9.890   2.990   1.421 -1.5922 -0.3065 -0.8175
49608SOL    HW253763   9.992   3.022   1.314 -0.5616 -1.3146 -0.1608
49609SOL     OW53764   7.850   9.388   4.082  0.4502 -0.0035  0.0571
49609SOL    HW153765   7.853   9.396   4.177 -0.9453  0.5825  0.0703
49609SOL    HW253766   7.870   9.296   4.065 -0.5508 -0.4242  1.0258
49610SOL     OW53767   8.226   3.478   7.811  0.2608  0.4711  0.2613
49610SOL    HW153768   8.197   3.390   7.790 -0.4589  0.8200 -0.2438
49610SOL    HW253769   8.278   3.468   7.891  0.1513 -0.3975  0.2277
49611SOL     OW53770   6.058   5.457   8.516  0.3282  0.0806  0.1419
49611SOL    HW153771   6.081   5.398   8.444  1.4221 -0.6930  1.0917
49611SOL    HW253772   5.982   5.506   8.483  0.0875 -1.0518 -1.0923
49612SOL     OW53773   2.056  11.303   1.368 -0.2547 -0.4121  0.5355
49612SOL    HW153774   1.991  11.328   1.433  1.2270  1.2607  1.4678
49612SOL    HW253775   2.048  11.370   1.300 -0.7754 -1.2944 -0.2961
49613SOL     OW53776   2.343   7.779   1.550 -0.0604  0.1002 -0.2137
49613SOL    HW153777   2.344   7.688   1.581  0.5587 -0.6148 -2.1763
49613SOL    HW253778   2.435   7.801   1.537 -0.1759  1.2094  0.7190
49614SOL     OW53779   4.859   3.783   5.664 -0.0665 -0.3823  0.8437
49614SOL    HW153780   4.866   3.699   5.619 -0.7560 -0.0579  0.1028
49614SOL    HW253781   4.905   3.845   5.608 -0.3589 -0.0968  0.9128
49615SOL     OW53782   0.718  11.519   1.048  0.4357 -0.1377  0.0293
49615SOL    HW153783   0.687  11.482   1.131 -0.2158 -1.2715 -0.7077
49615SOL    HW253784   0.798  11.567   1.072 -1.0479  1.6553  1.7288
49616SOL     OW53785   5.422   2.944   9.238  0.1814 -0.5702  0.1890
49616SOL    HW153786   5.352   2.910   9.293  0.2505  0.5040  0.9670
49616SOL    HW253787   5.488   2.874   9.236 -1.0673 -1.7621 -0.8998
49617SOL     OW53788   1.976   3.943   1.340 -0.9450  0.2573  0.6093
49617SOL    HW153789   1.993   4.012   1.405  0.1670 -0.0293  0.6506
49617SOL    HW253790   2.048   3.952   1.277  0.1152 -1.7783  1.4134
49618SOL     OW53791   1.652   1.552   1.528 -0.2060 -0.3744 -0.8109
49618SOL    HW153792   1.582   1.595   1.576  0.3285  0.0487 -0.3992
49618SOL    HW253793   1.617   1.541   1.439 -1.0359 -0.7718 -0.4449
49619SOL     OW53794   4.811   2.411   4.223 -0.7684  0.4947 -0.1318
49619SOL    HW153795   4.903   2.419   4.244 -0.4810 -2.2687  0.0957
49619SOL    HW253796   4.785   2.325   4.258 -2.7305  0.0217 -2.3990
49620SOL     OW53797   2.160  10.348   7.002 -0.3040 -0.1627  0.8009
49620SOL    HW153798   2.080  10.300   6.981  0.6373 -1.9280  1.0523
49620SOL    HW253799   2.230  10.283   6.995  1.2632  1.5365 -0.3554
49621SOL     OW53800   5.970   8.665   1.884  0.3362 -0.0142  0.0012
49621SOL    HW153801   5.933   8.743   1.843 -0.5204 -0.0323  0.7212
49621SOL    HW253802   5.962   8.597   1.816  0.2016  0.2873 -0.2883
49622SOL     OW53803   3.219   1.621   6.571  0.5436 -0.0617 -0.0197
49622SOL    HW153804   3.273   1.550   6.605  0.6037 -0.5412 -1.0635
49622SOL    HW253805   3.270   1.657   6.498 -0.7802 -0.9421 -1.4384
49623SOL     OW53806   2.824   1.825   0.344 -0.2800 -0.1555 -0.3027
49623SOL    HW153807   2.839   1.840   0.437  0.6905  1.6561 -0.7073
49623SOL    HW253808   2.846   1.733   0.331  2.0464  0.1607  0.8394
49624SOL     OW53809   8.815   0.268   1.698  0.2405  0.5616  0.1777
49624SOL    HW153810   8.899   0.256   1.654  0.1388  1.3174 -0.2313
49624SOL    HW253811   8.760   0.198   1.662  0.9929 -0.6204  1.2515
49625SOL     OW53812   5.386   5.153   8.515  0.0475 -0.3218  0.1391
49625SOL    HW153813   5.337   5.182   8.593  0.7343  0.6115  0.2280
49625SOL    HW253814   5.352   5.065   8.498 -0.2383 -0.4709  1.3905
49626SOL     OW53815   3.651   5.364   9.068 -0.6440  0.8184 -0.1192
49626SOL    HW153816   3.660   5.391   8.977  0.0373  0.4488 -0.1722
49626SOL    HW253817   3.620   5.442   9.114 -0.6529  1.1044 -0.6102
49627SOL     OW53818   0.962   2.078   3.131  0.1879 -0.2041  0.4963
49627SOL    HW153819   1.011   2.062   3.212 -0.0826 -0.9058  0.5195
49627SOL    HW253820   1.009   2.029   3.064  0.8397  0.9562  0.0653
49628SOL     OW53821   2.484   5.080   4.590  0.0470 -0.2538 -0.5194
49628SOL    HW153822   2.547   5.111   4.525  2.3883 -2.4267  0.5371
49628SOL    HW253823   2.507   4.988   4.604 -1.2875 -0.2711  2.2915
49629SOL     OW53824   9.870   5.121   8.017  0.6429 -0.3834  0.0316
49629SOL    HW153825   9.896   5.203   8.059 -0.2016 -0.5750  0.9828
49629SOL    HW253826   9.806   5.082   8.078  0.3579 -1.3105 -0.8277
49630SOL     OW53827   7.695   3.270   7.652  0.0646  0.4352 -0.0280
49630SOL    HW153828   7.745   3.303   7.727 -1.8358  0.6493  1.2218
49630SOL    HW253829   7.710   3.335   7.583  0.3269  1.2579  0.7879
49631SOL     OW53830   1.410   0.036   2.223 -0.1290 -0.4672  0.4303
49631SOL    HW153831   1.450   0.025   2.136 -0.0496  1.4323  0.1675
49631SOL    HW253832   1.474  -0.001   2.284  0.7263 -0.0803 -0.1995
49632SOL     OW53833   1.366   7.983   4.059  0.6327 -0.4550 -0.3637
49632SOL    HW153834   1.376   8.006   4.151  0.0977 -1.9327  0.0866
49632SOL    HW253835   1.314   8.054   4.022  1.4745  0.5297  0.2802
49633SOL     OW53836   5.633   6.184   5.875  0.1803  0.2477  0.0360
49633SOL    HW153837   5.575   6.143   5.811  2.8921 -1.7654 -1.3651
49633SOL    HW253838   5.638   6.275   5.847  0.3143 -0.3036 -1.9082
49634SOL     OW53839   3.355  10.737   5.746 -0.0284  0.1997 -0.1674
49634SOL    HW153840   3.273  10.716   5.792  0.3513 -1.9397 -0.3545
49634SOL    HW253841   3.352  10.831   5.734 -0.7792  0.7309  3.0667
49635SOL     OW53842  11.288   3.780   9.986  0.2070 -0.6464  0.0450
49635SOL    HW153843  11.240   3.847  10.034  0.9342  0.7937 -1.1448
49635SOL    HW253844  11.224   3.710   9.972 -0.4617 -0.4101  1.6545
49636SOL     OW53845   0.539   6.542   1.213  0.3259  0.0410  0.2259
49636SOL    HW153846   0.584   6.583   1.140  1.1649  0.1209  0.7696
49636SOL    HW253847   0.609   6.515   1.273 -0.2779 -0.9636  0.5126
49637SOL     OW53848   7.448   4.927   3.030 -0.2429  0.2471 -0.0900
49637SOL    HW153849   7.407   5.008   3.061 -1.9091  0.0384 -1.5686
49637SOL    HW253850   7.388   4.858   3.058 -0.1990 -0.2085 -1.0870
49638SOL     OW53851   9.785  11.476   3.344  0.1021  0.1305  0.1979
49638SOL    HW153852   9.776  11.388   3.381 -1.0644  0.4961  0.8312
49638SOL    HW253853   9.870  11.475   3.301  0.2616 -1.1991  0.4982
49639SOL     OW53854   9.063   1.459   4.090 -0.1216  0.3414 -0.6336
49639SOL    HW153855   9.137   1.432   4.144 -0.0957  0.3012 -0.6895
49639SOL    HW253856   9.094   1.449   4.000 -0.2269  0.2356 -0.6581
49640SOL     OW53857   6.729  10.894   7.319  0.1457  0.0558  0.0472
49640SOL    HW153858   6.806  10.889   7.376  0.0343  1.4246  0.3486
49640SOL    HW253859   6.764  10.879   7.231  1.1013  2.3302 -0.0454
49641SOL     OW53860   3.239  10.226   2.593 -0.4802 -0.2234 -0.4441
49641SOL    HW153861   3.331  10.248   2.608 -1.3339  1.8182  2.9960
49641SOL    HW253862   3.232  10.135   2.621  0.2923 -0.0294  0.4522
49642SOL     OW53863   7.862   4.359   5.717 -0.2175 -0.3659  0.1175
49642SOL    HW153864   7.883   4.271   5.747 -1.2918 -0.7095 -0.0898
49642SOL    HW253865   7.769   4.355   5.693 -0.5222  1.0533  0.9505
49643SOL     OW53866   0.953   5.722   7.681  0.1613  0.4791 -0.3731
49643SOL    HW153867   1.042   5.714   7.646  0.6236  2.1008  0.3707
49643SOL    HW253868   0.899   5.744   7.605  0.6365  0.8732 -0.5982
49644SOL     OW53869   4.690   9.595   5.458  0.1681 -0.0416  0.0833
49644SOL    HW153870   4.737   9.653   5.398 -0.0602  1.0400  0.9273
49644SOL    HW253871   4.598   9.622   5.449  0.0870 -0.1384  0.6329
49645SOL     OW53872   4.080   8.851   5.536  0.1295  0.2635  0.3609
49645SOL    HW153873   4.154   8.911   5.523 -0.1052  0.6632  0.8825
49645SOL    HW253874   4.091   8.786   5.466  1.1794  0.1124  0.6382
49646SOL     OW53875   5.931   6.425   9.200 -0.5147 -0.6867  0.0389
49646SOL    HW153876   5.856   6.484   9.210 -0.4161  0.0839 -2.7825
49646SOL    HW253877   5.905   6.346   9.246 -1.9957  0.4436  1.2489
49647SOL     OW53878   2.382   6.551   3.250  0.1261 -0.2710  0.9027
49647SOL    HW153879   2.332   6.542   3.168 -2.8933  0.0357  2.5640
49647SOL    HW253880   2.392   6.645   3.262  4.1392 -0.2433 -0.9283
49648SOL     OW53881   2.132   6.668   0.703  0.3947  0.0479  0.0801
49648SOL    HW153882   2.215   6.652   0.747  0.3139 -3.9829 -0.8013
49648SOL    HW253883   2.065   6.647   0.769  0.0757  1.2069  0.1519
49649SOL     OW53884   0.951   9.764   3.511  0.3529 -0.2941 -0.3171
49649SOL    HW153885   0.917   9.683   3.551 -0.0766 -0.2183 -0.5159
49649SOL    HW253886   0.873   9.820   3.502  0.6478  0.1353 -0.1952
49650SOL     OW53887   5.527   5.107   7.834  0.6922 -0.4471  0.4643
49650SOL    HW153888   5.591   5.085   7.766 -0.1936 -0.9126 -0.2264
49650SOL    HW253889   5.492   5.192   7.806 -1.5246 -1.7700 -1.1082
49651SOL     OW53890   1.898   5.488   1.685  0.0446 -0.3061 -0.4126
49651SOL    HW153891   1.984   5.481   1.726 -0.5043  1.6517  1.1968
49651SOL    HW253892   1.916   5.522   1.597  0.8388  2.0342  0.5951
49652SOL     OW53893  11.593   3.193   1.154  0.1228 -0.0170 -0.7325
49652SOL    HW153894  11.501   3.220   1.149  0.4035  1.8387  2.2744
49652SOL    HW253895  11.633   3.231   1.075 -1.3269  0.6313 -1.1965
49653SOL     OW53896  11.654   5.658   5.511  0.3719 -0.7446  0.2381
49653SOL    HW153897  11.679   5.743   5.475  1.1738 -0.8486  0.5476
49653SOL    HW253898  11.565   5.644   5.478  0.9588 -0.7105 -1.5011
49654SOL     OW53899   4.685   5.347   8.579  0.6781 -0.7287 -0.3754
49654SOL    HW153900   4.707   5.361   8.671 -2.1905 -1.4123  0.5233
49654SOL    HW253901   4.681   5.435   8.542  1.1138 -0.3841  0.3710
49655SOL     OW53902   7.246   6.887   0.765  0.5767  0.4627 -0.5366
49655SOL    HW153903   7.278   6.975   0.743 -0.4409  0.9804 -0.0476
49655SOL    HW253904   7.226   6.847   0.681  2.6742  0.0173 -0.8868
49656SOL     OW53905   2.270   0.561   8.251 -0.6113 -0.0266  1.0751
49656SOL    HW153906   2.222   0.616   8.189  0.4904 -0.0016  0.1967
49656SOL    HW253907   2.209   0.491   8.273 -1.6620  0.9562  1.3831
49657SOL     OW53908   2.720   8.860   6.027  0.0564  0.1893  0.2323
49657SOL    HW153909   2.736   8.783   6.082 -0.3266  0.2946  0.4882
49657SOL    HW253910   2.771   8.930   6.069  2.2559 -0.4164 -1.2381
49658SOL     OW53911  10.450   1.363   0.237 -0.7991  0.5217  0.5546
49658SOL    HW153912  10.384   1.318   0.290  0.8882 -1.6377  0.9441
49658SOL    HW253913  10.497   1.418   0.300 -1.9699  1.8451  0.3259
49659SOL     OW53914   2.572   7.470   4.056 -0.7572 -0.1727  0.5112
49659SOL    HW153915   2.621   7.409   4.002 -0.8545 -0.1615  0.4106
49659SOL    HW253916   2.505   7.505   3.998 -0.8436 -0.1394  0.6307
49660SOL     OW53917   8.781   1.221   8.402  0.2734  0.2099  0.2952
49660SOL    HW153918   8.796   1.175   8.319 -0.0912 -0.1978  0.4561
49660SOL    HW253919   8.863   1.268   8.417  0.2442  0.5223 -0.4469
49661SOL     OW53920   4.434   7.031   6.497  0.2460  0.0559 -0.3176
49661SOL    HW153921   4.416   6.960   6.558 -1.1345 -1.3043 -2.1732
49661SOL    HW253922   4.529   7.041   6.497  0.4366 -1.6018  0.2043
49662SOL     OW53923   6.771   2.841   0.471  0.0536  0.0960  0.3977
49662SOL    HW153924   6.837   2.881   0.528 -0.3051  0.3967  0.6020
49662SOL    HW253925   6.794   2.871   0.383 -0.0435  0.5222  0.5161
49663SOL     OW53926  10.702   1.905   2.072  0.2111  0.3980  0.0387
49663SOL    HW153927  10.797   1.906   2.055  0.0428  1.2836 -0.8608
49663SOL    HW253928  10.687   1.982   2.127  0.0180  0.1977  0.2703
49664SOL     OW53929   5.017  10.470   2.412  0.6190  0.1448 -0.3518
49664SOL    HW153930   4.991  10.541   2.471 -0.1680  1.5073 -2.2113
49664SOL    HW253931   5.007  10.390   2.464  1.1582  1.3507  1.6946
49665SOL     OW53932  10.286   2.057  10.214  1.2365 -0.2805  0.5448
49665SOL    HW153933  10.351   2.128  10.219  0.4899  0.4549  0.0479
49665SOL    HW253934  10.281   2.036  10.120  0.9638 -0.5346  0.6154
49666SOL     OW53935   6.793  10.852   1.004 -0.1089 -0.1628  0.3837
49666SOL    HW153936   6.736  10.776   1.011  0.2375 -0.3661  1.1100
49666SOL    HW253937   6.781  10.899   1.087 -0.4156  0.6432 -0.1058
49667SOL     OW53938   9.770  10.898   2.825 -0.2231  0.1608  0.0936
49667SOL    HW153939   9.835  10.897   2.755  1.0313 -0.3029  1.2268
49667SOL    HW253940   9.779  10.984   2.866  1.5774 -0.7998  1.9043
49668SOL     OW53941   5.965   2.639   1.986 -0.2452 -0.1732  0.8649
49668SOL    HW153942   6.042   2.583   1.975  0.1044  0.4499 -0.0017
49668SOL    HW253943   5.933   2.653   1.897  0.5314  2.1346  0.8756
49669SOL     OW53944   9.729   8.508  10.591  0.5565  0.1446  0.0821
49669SOL    HW153945   9.824   8.494  10.598  0.5306 -0.4212 -0.5928
49669SOL    HW253946   9.721   8.591  10.543  0.7153 -0.2394 -0.6215
49670SOL     OW53947   6.129   9.798  10.655  0.0657  0.0345  0.4137
49670SOL    HW153948   6.211   9.751  10.637 -0.2741 -0.5810  0.4160
49670SOL    HW253949   6.127   9.806  10.750 -0.0252 -0.2366  0.4365
49671SOL     OW53950  10.603  10.467   6.050  0.2325  0.3191  0.5147
49671SOL    HW153951  10.520  10.432   6.018 -0.3072  1.6926  0.3762
49671SOL    HW253952  10.607  10.439   6.142  0.4627 -1.2226  0.0731
49672SOL     OW53953   9.433   5.357  10.031  0.1640 -0.0095  0.5451
49672SOL    HW153954   9.409   5.338  10.121  1.0602  1.2504  1.0878
49672SOL    HW253955   9.350   5.378   9.988 -0.4563 -2.0334  0.6596
49673SOL     OW53956   9.765  10.224  10.246  0.8144  0.2583 -0.2036
49673SOL    HW153957   9.811  10.143  10.225  0.5374 -0.2616  1.0666
49673SOL    HW253958   9.818  10.294  10.208  2.7122 -0.3099  1.2754
49674SOL     OW53959   0.254   4.662   8.074  0.0826  0.0640  0.1538
49674SOL    HW153960   0.203   4.603   8.129  1.2241 -1.4816 -0.3838
49674SOL    HW253961   0.281   4.609   7.999  0.0525  1.6338 -1.0253
49675SOL     OW53962   9.184  10.502   2.393 -0.0101  0.0493  0.3825
49675SOL    HW153963   9.195  10.591   2.425 -0.9957  0.3127  0.0143
49675SOL    HW253964   9.103  10.504   2.342  1.0736 -0.5621 -1.4493
49676SOL     OW53965   4.298   0.253  11.474 -0.3749 -0.3085  0.4324
49676SOL    HW153966   4.332   0.213  11.394 -0.6124 -1.6255  0.9605
49676SOL    HW253967   4.359   0.225  11.543  0.2118  1.3551  0.6406
49677SOL     OW53968   3.337   1.877   4.375  0.2709 -0.5281  1.1441
49677SOL    HW153969   3.403   1.894   4.307  0.6092  2.2801  2.0401
49677SOL    HW253970   3.387   1.839   4.447  0.5396 -0.3255  1.0662
49678SOL     OW53971   8.740   5.369   5.731 -0.5117  0.0680  0.1097
49678SOL    HW153972   8.800   5.444   5.737  0.7824 -1.0422  3.0547
49678SOL    HW253973   8.795   5.293   5.748 -2.1130 -1.4235 -1.0512
49679SOL     OW53974   8.114   1.129   4.885 -0.2334 -0.3023  0.3282
49679SOL    HW153975   8.036   1.131   4.830  1.5837 -0.7613 -2.5279
49679SOL    HW253976   8.132   1.036   4.898 -1.4295 -0.2426  3.1357
49680SOL     OW53977   3.210   9.592   3.150 -0.4829 -0.1452 -0.0039
49680SOL    HW153978   3.208   9.618   3.057 -0.2663  1.5402  0.4368
49680SOL    HW253979   3.189   9.498   3.148 -1.4200  0.0440 -1.6860
49681SOL     OW53980  10.547   8.456   7.096  0.1494  1.4690  0.1973
49681SOL    HW153981  10.641   8.458   7.076  0.4956 -2.1416  0.8007
49681SOL    HW253982  10.506   8.434   7.012  0.1975  0.0099  0.5373
49682SOL     OW53983   5.637   4.073   7.144  0.1458 -0.3857  1.0399
49682SOL    HW153984   5.580   4.148   7.154  1.4958  0.7270  0.7568
49682SOL    HW253985   5.600   4.023   7.071  0.5271  1.2868 -0.3553
49683SOL     OW53986  11.292   7.487   9.771 -0.4377 -0.1492 -0.3830
49683SOL    HW153987  11.267   7.428   9.842 -1.6749  0.6763 -0.0884
49683SOL    HW253988  11.301   7.573   9.813  1.0230 -0.0394 -0.8545
49684SOL     OW53989   9.814   4.522   1.990  0.3920 -0.0733 -0.1656
49684SOL    HW153990   9.743   4.469   2.026 -0.4307  1.4574  0.5637
49684SOL    HW253991   9.891   4.464   1.992 -0.8296 -1.8389 -1.1648
49685SOL     OW53992   2.918   3.015  10.922 -0.6381  0.0379 -0.0758
49685SOL    HW153993   2.973   2.966  10.984 -0.1563  2.2551  1.3691
49685SOL    HW253994   2.964   3.009  10.839 -0.4008 -1.5998  0.1473
49686SOL     OW53995   6.995   8.636   0.991  0.4072 -0.3124  0.0492
49686SOL    HW153996   7.060   8.680   0.937  0.1201 -0.2933 -0.2794
49686SOL    HW253997   7.046   8.600   1.064  0.5120  1.4386  0.8835
49687SOL     OW53998  10.297   3.470   9.220 -0.3889  0.5625  0.1226
49687SOL    HW153999  10.240   3.394   9.231  0.4167 -0.3253 -1.4412
49687SOL    HW254000  10.238   3.545   9.225 -1.3652 -0.2189  0.6177
49688SOL     OW54001   5.119   7.247   6.894 -0.3105 -0.1015  0.0955
49688SOL    HW154002   5.166   7.222   6.973 -1.5403 -1.7970  0.3499
49688SOL    HW254003   5.187   7.251   6.826  0.8785  2.1507  1.3375
49689SOL     OW54004   2.942   4.159  10.268  0.2512 -0.2339  0.1625
49689SOL    HW154005   2.994   4.175  10.348  2.0743  1.2353 -1.2087
49689SOL    HW254006   2.951   4.065  10.252 -0.3423 -0.6038  1.7799
49690SOL     OW54007   9.433   1.910   5.897 -0.0651  0.1342 -0.4318
49690SOL    HW154008   9.374   1.869   5.834  1.0739  0.2287 -1.6095
49690SOL    HW254009   9.491   1.839   5.925 -0.4416  0.1351  0.4085
49691SOL     OW54010   8.507   2.832   6.328  0.1440 -0.9600  0.5928
49691SOL    HW154011   8.534   2.761   6.270  1.1003 -0.2495  0.1187
49691SOL    HW254012   8.523   2.911   6.277 -2.8485 -0.4410  0.3245
49692SOL     OW54013   9.149   6.669   6.804 -0.0615  0.1486 -0.1433
49692SOL    HW154014   9.096   6.742   6.835 -0.2750 -0.3219  0.6229
49692SOL    HW254015   9.195   6.637   6.882 -1.5937 -1.8752  0.0366
49693SOL     OW54016   1.608   8.203  10.045 -0.1255  0.0530 -0.0226
49693SOL    HW154017   1.579   8.116  10.018  0.3035  0.6539 -2.7015
49693SOL    HW254018   1.697   8.210  10.010 -0.3637  1.7613 -0.3533
49694SOL     OW54019   3.324   4.147   1.780  0.0581 -0.2194  0.0500
49694SOL    HW154020   3.246   4.093   1.792  1.5831 -2.5580  0.0864
49694SOL    HW254021   3.301   4.206   1.708 -1.2579 -1.8843 -0.9942
49695SOL     OW54022   4.182   1.755  11.257 -0.0591  0.0166  0.1551
49695SOL    HW154023   4.126   1.695  11.306 -0.0234 -1.1355 -1.1532
49695SOL    HW254024   4.169   1.731  11.165  2.7450 -0.4558 -0.2129
49696SOL     OW54025   1.010   0.486   0.620 -0.0304 -0.1628 -0.3761
49696SOL    HW154026   1.055   0.476   0.536  0.9337  0.0700  0.1019
49696SOL    HW254027   0.951   0.560   0.606  0.1492 -0.1008 -0.8406
49697SOL     OW54028   5.544   4.432   6.882  0.4661  0.2516  0.3457
49697SOL    HW154029   5.481   4.497   6.849  1.5910  1.3260  0.2462
49697SOL    HW254030   5.557   4.456   6.973 -0.7636 -1.2186  0.9636
49698SOL     OW54031   0.507   6.115  10.901 -0.1607  0.4714  0.4151
49698SOL    HW154032   0.550   6.066  10.832 -0.2383 -1.9065  1.9379
49698SOL    HW254033   0.577   6.139  10.962 -0.4883 -0.4072  1.1675
49699SOL     OW54034   5.818   2.187   5.844  0.5186  0.2050  0.6136
49699SOL    HW154035   5.837   2.250   5.774 -0.8105  0.4830  0.4788
49699SOL    HW254036   5.848   2.231   5.923 -0.8345  1.2645  0.5854
49700SOL     OW54037   4.840   5.567  11.430 -0.2011 -0.6226 -0.1153
49700SOL    HW154038   4.909   5.614  11.477  0.1827 -0.4063 -0.8781
49700SOL    HW254039   4.854   5.475  11.452  0.5294 -0.6120 -0.5185
49701SOL     OW54040   4.475   3.789   8.551 -0.0816 -1.1417 -0.4387
49701SOL    HW154041   4.446   3.864   8.500 -1.1415 -2.0704 -1.2637
49701SOL    HW254042   4.421   3.716   8.520  0.6791 -2.1822  0.5623
49702SOL     OW54043   7.644   7.212   6.516  0.4204  0.1087 -0.4600
49702SOL    HW154044   7.705   7.158   6.466  1.1724 -0.9449  1.4813
49702SOL    HW254045   7.561   7.165   6.510  1.0113 -1.2384  1.0087
49703SOL     OW54046   8.199   2.433   9.960 -0.1044  0.8231 -0.6636
49703SOL    HW154047   8.214   2.527   9.948 -0.9619  1.0472 -0.1067
49703SOL    HW254048   8.119   2.429  10.012 -0.3176 -0.2307 -1.0613
49704SOL     OW54049   7.989   5.957  11.069  0.3761  0.6450 -0.2179
49704SOL    HW154050   7.902   5.938  11.032  0.1686  1.1179  0.0172
49704SOL    HW254051   7.973   5.966  11.163  0.7135  0.5536 -0.1522
49705SOL     OW54052   6.411  11.241   8.271 -0.5950 -0.4213 -0.1084
49705SOL    HW154053   6.457  11.307   8.322 -2.7765  2.1694 -1.2443
49705SOL    HW254054   6.399  11.168   8.332  0.6547  0.7755  1.6878
49706SOL     OW54055   5.858   3.878   8.893 -0.2821  0.0620 -0.1390
49706SOL    HW154056   5.830   3.799   8.846 -0.9242  0.3793 -0.3065
49706SOL    HW254057   5.915   3.846   8.962  0.9926 -0.3902 -1.3556
49707SOL     OW54058   1.604   3.897   4.897  0.1090  0.2806  0.4524
49707SOL    HW154059   1.636   3.883   4.808  1.2855 -0.0496  0.9016
49707SOL    HW254060   1.632   3.819   4.945 -0.4866  0.4664  1.1166
49708SOL     OW54061   2.031   3.890  11.680  0.5807 -0.5168  0.5815
49708SOL    HW154062   2.079   3.808  11.691  1.1652 -0.2788 -0.1207
49708SOL    HW254063   2.078   3.952  11.736 -1.1056 -1.1156  2.7852
49709SOL     OW54064   8.779   7.440   4.566  0.4541 -0.0724 -0.2193
49709SOL    HW154065   8.704   7.382   4.550  1.4140 -1.6561  0.7482
49709SOL    HW254066   8.799   7.476   4.479 -0.3373 -0.9894 -0.8148
49710SOL     OW54067   2.318   0.942   6.580  0.0979 -0.4362 -0.3661
49710SOL    HW154068   2.394   0.894   6.547  0.0365 -0.2688 -0.7574
49710SOL    HW254069   2.270   0.878   6.633  0.9957 -0.2953  0.6573
49711SOL     OW54070   6.191   0.103   9.034  0.2108 -0.4460  0.5880
49711SOL    HW154071   6.123   0.051   8.991  0.9353  0.0086 -1.1780
49711SOL    HW254072   6.149   0.134   9.114 -1.0751 -1.6172  0.4226
49712SOL     OW54073   0.903   5.469   5.143 -0.0575  0.7595 -0.1640
49712SOL    HW154074   0.893   5.550   5.093 -0.1735  1.2011  0.5530
49712SOL    HW254075   0.855   5.486   5.225 -0.2078 -0.0883 -0.0708
49713SOL     OW54076   4.984   7.524   2.285  0.1729 -0.3720  0.2834
49713SOL    HW154077   4.977   7.617   2.262 -1.0721  0.2050  2.5735
49713SOL    HW254078   4.931   7.479   2.220 -0.3653  0.7127 -0.0558
49714SOL     OW54079  10.685   8.876   6.452  0.4339  0.0238 -0.5024
49714SOL    HW154080  10.620   8.841   6.391  0.6338 -0.5924 -0.3668
49714SOL    HW254081  10.738   8.801   6.477  1.1270  0.5015 -0.5135
49715SOL     OW54082   4.669   3.644   0.776  0.2816 -0.1112 -0.0065
49715SOL    HW154083   4.672   3.739   0.788  1.3249 -0.1361  0.0174
49715SOL    HW254084   4.758   3.615   0.794  0.6873 -0.7611 -2.7277
49716SOL     OW54085   8.046   2.837  11.666 -0.2738 -0.1263 -0.1565
49716SOL    HW154086   8.126   2.890  11.658 -0.4808  0.2510  0.2421
49716SOL    HW254087   7.981   2.883  11.614 -0.0795 -0.7585 -0.9829
49717SOL     OW54088   4.020   3.388   3.330  0.0430 -1.1750  0.2809
49717SOL    HW154089   4.094   3.332   3.306  0.4827 -1.3069  1.8220
49717SOL    HW254090   3.960   3.383   3.255  1.6204 -0.9897 -1.0516
49718SOL     OW54091   5.235   0.453   5.604 -0.0498 -0.3222  0.2091
49718SOL    HW154092   5.142   0.439   5.623 -0.2827 -0.5488 -1.0681
49718SOL    HW254093   5.278   0.439   5.689 -1.1635 -0.2809  0.8031
49719SOL     OW54094  10.405   3.784   5.751  0.0418  0.2310 -0.6048
49719SOL    HW154095  10.383   3.849   5.817  1.1777 -1.8279  1.9770
49719SOL    HW254096  10.464   3.829   5.691 -2.2176  2.6011 -1.2144
49720SOL     OW54097  10.058   7.671   4.608  0.6652 -0.1233 -0.3556
49720SOL    HW154098  10.072   7.765   4.615  0.1782 -0.1048  0.6927
49720SOL    HW254099  10.146   7.634   4.600  0.9608  0.3433  0.5351
49721SOL     OW54100  11.473  11.667   0.800  0.5654  0.2706  0.8385
49721SOL    HW154101  11.553  11.615   0.796 -0.6650 -1.7537  1.1079
49721SOL    HW254102  11.467  11.696   0.891  1.0492  0.5348  0.7876
49722SOL     OW54103  10.788   9.336  11.072 -0.1107 -0.0032  0.0775
49722SOL    HW154104  10.707   9.386  11.069 -0.1452 -0.0757 -0.1583
49722SOL    HW254105  10.836   9.373  11.146  0.2887  1.0159 -0.6683
49723SOL     OW54106  11.297   1.886   9.509 -0.0428 -0.0805 -0.2568
49723SOL    HW154107  11.230   1.936   9.463  0.6034  0.9198 -0.1528
49723SOL    HW254108  11.266   1.881   9.600  1.4623  3.2378  0.5969
49724SOL     OW54109   6.028   5.508   5.260 -0.0848 -0.4227 -0.1941
49724SOL    HW154110   5.946   5.460   5.269  1.1601 -2.6483  0.0456
49724SOL    HW254111   6.087   5.448   5.214  1.0922  1.5398 -1.3933
49725SOL     OW54112   8.012   6.297   0.408 -0.4437  0.4051  0.2626
49725SOL    HW154113   8.030   6.221   0.463  1.1679  0.8285  0.3676
49725SOL    HW254114   8.009   6.371   0.468 -0.2862  0.6594 -0.0380
49726SOL     OW54115   2.334   1.876   2.065  0.0944  0.7920  0.4431
49726SOL    HW154116   2.410   1.850   2.117 -0.4547  0.1623  0.9418
49726SOL    HW254117   2.262   1.823   2.099 -0.5501  1.3069 -0.0926
49727SOL     OW54118   3.063   1.152   3.697  0.1681  0.0514  0.2842
49727SOL    HW154119   3.126   1.125   3.763 -1.0330  0.4661  1.6502
49727SOL    HW254120   3.046   1.244   3.715 -2.0109 -0.4219  1.0428
49728SOL     OW54121   1.738   2.057   9.258 -0.1884  0.0406  0.3633
49728SOL    HW154122   1.711   2.110   9.183 -0.1190 -0.8638 -0.3184
49728SOL    HW254123   1.811   2.005   9.225  0.9683  0.8371  1.5478
49729SOL     OW54124   8.377   0.263   1.487  0.0317 -0.6189  0.0050
49729SOL    HW154125   8.309   0.197   1.494 -0.2322 -0.1889  2.6924
49729SOL    HW254126   8.454   0.216   1.456 -0.8582 -1.5761 -0.8129
49730SOL     OW54127   3.901   8.856  10.264  0.2360  0.3959  0.3890
49730SOL    HW154128   3.852   8.938  10.260  0.3998  0.4405 -1.8732
49730SOL    HW254129   3.992   8.882  10.276  0.3050  0.5794 -0.4644
49731SOL     OW54130   0.047  10.271   7.169  0.1846  0.0114  0.0684
49731SOL    HW154131   0.040  10.212   7.095 -0.2470  0.0615  0.0698
49731SOL    HW254132   0.141  10.273   7.189  0.2355 -0.4317 -0.1212
49732SOL     OW54133   9.436   2.063  10.106 -0.7214  0.9611  0.5601
49732SOL    HW154134   9.443   1.982  10.157 -0.3479  0.7849  0.2360
49732SOL    HW254135   9.499   2.052  10.034  0.1895  2.0139  1.1547
49733SOL     OW54136   7.233   4.126  11.422  0.5424  0.5655  0.2042
49733SOL    HW154137   7.185   4.186  11.364  1.9234  3.0400  1.4408
49733SOL    HW254138   7.247   4.177  11.502  3.8994 -0.4980  0.4223
49734SOL     OW54139   0.095   0.139   5.113  0.6961  0.3082 -0.1618
49734SOL    HW154140   0.080   0.128   5.020  0.6653  0.5973 -0.1941
49734SOL    HW254141   0.183   0.175   5.119  0.0860  1.8915 -0.1937
49735SOL     OW54142   6.121   7.485   4.388  0.4621 -0.2880  0.1631
49735SOL    HW154143   6.069   7.543   4.333 -1.4159 -1.0463  1.0308
49735SOL    HW254144   6.143   7.537   4.465 -0.2667 -0.3538  0.4310
49736SOL     OW54145   9.589   7.833   6.407 -0.7097 -0.0912 -0.0214
49736SOL    HW154146   9.565   7.765   6.344  1.3817 -1.4658  0.5798
49736SOL    HW254147   9.684   7.830   6.411 -0.6928  1.1895  1.8762
49737SOL     OW54148   9.642   9.898   6.801  0.3518  0.4836 -0.1729
49737SOL    HW154149   9.679   9.835   6.862 -1.6857 -1.6242 -0.9541
49737SOL    HW254150   9.718   9.941   6.762  1.7329  0.7432  2.5881
49738SOL     OW54151  10.188   6.248   8.776  0.0603  0.1830  0.1862
49738SOL    HW154152  10.201   6.247   8.871  2.9015 -1.0235 -0.1124
49738SOL    HW254153  10.267   6.289   8.742  0.2872 -1.7070 -1.7664
49739SOL     OW54154   1.917   0.127   8.642 -0.1770  0.3668 -0.1549
49739SOL    HW154155   1.987   0.134   8.706  2.2725  2.2019 -2.8018
49739SOL    HW254156   1.921   0.036   8.612  0.2250  0.1323  0.5888
49740SOL     OW54157   2.988   3.044   3.964  0.3541 -0.8921 -0.6103
49740SOL    HW154158   3.057   2.978   3.956 -0.2264 -1.6316  0.2516
49740SOL    HW254159   2.910   3.002   3.929  0.4389  0.1581 -2.1512
49741SOL     OW54160   2.043   7.003   5.130 -0.0681 -0.5435 -0.3888
49741SOL    HW154161   2.109   7.049   5.079 -0.4024  0.6154  0.1912
49741SOL    HW254162   1.977   7.070   5.149  0.2948 -0.7811  2.0119
49742SOL     OW54163   4.460   9.025   9.729  0.1976 -0.1119 -0.0464
49742SOL    HW154164   4.403   8.976   9.789 -0.6992 -0.4425 -1.1435
49742SOL    HW254165   4.545   8.980   9.735 -0.1240 -0.6908  0.2995
49743SOL     OW54166   7.001   6.293   4.747  0.1495 -0.3492 -0.2597
49743SOL    HW154167   6.949   6.214   4.735 -2.1041  1.0296 -0.1308
49743SOL    HW254168   7.001   6.334   4.660  0.3832  0.0345 -0.0785
49744SOL     OW54169   0.555   8.142   2.486 -0.2958  0.3867 -0.1965
49744SOL    HW154170   0.599   8.144   2.400 -1.6055  2.1719 -0.8763
49744SOL    HW254171   0.495   8.068   2.479  1.4821 -1.1930  0.2323
49745SOL     OW54172  10.734   7.396  11.388 -0.3506  0.8255 -0.1094
49745SOL    HW154173  10.797   7.462  11.416  1.9491 -1.2901  0.1222
49745SOL    HW254174  10.731   7.333  11.460  0.1077 -0.9638 -1.5577
49746SOL     OW54175   1.803   0.042   1.606 -0.9933  0.2948  0.2377
49746SOL    HW154176   1.882   0.043   1.550 -1.4752 -1.9873 -0.6071
49746SOL    HW254177   1.835   0.014   1.691 -0.6847  0.8807  0.3217
49747SOL     OW54178   4.482   1.734   0.005  0.6269 -0.2644  0.3266
49747SOL    HW154179   4.412   1.712  -0.056  1.3222 -0.0584 -0.5750
49747SOL    HW254180   4.447   1.804   0.060  1.2309  2.3691 -2.3865
49748SOL     OW54181   5.427   5.670   7.004  0.1779  0.3468  0.0516
49748SOL    HW154182   5.448   5.697   7.093 -0.4538 -1.5495  0.8319
49748SOL    HW254183   5.335   5.643   7.008  0.7057 -1.8013 -0.6021
49749SOL     OW54184   2.473   5.869   5.140  0.6952 -0.4816  0.1466
49749SOL    HW154185   2.412   5.817   5.192 -0.6763  1.0035  0.0763
49749SOL    HW254186   2.488   5.948   5.192  2.0366 -0.5038 -0.1638
49750SOL     OW54187   1.237   1.375   6.672 -0.4816 -0.1328 -0.0127
49750SOL    HW154188   1.250   1.448   6.612 -0.3048 -1.5968 -1.8398
49750SOL    HW254189   1.325   1.345   6.692 -0.5416  0.3047  0.9835
49751SOL     OW54190   8.466   9.183   1.838  0.5586  0.5031 -0.1034
49751SOL    HW154191   8.543   9.187   1.782 -0.5492  2.0642 -1.6246
49751SOL    HW254192   8.393   9.205   1.780 -0.8458  0.6119  1.6165
49752SOL     OW54193   1.015   7.422   5.798  0.3161  0.1331  0.1713
49752SOL    HW154194   0.959   7.344   5.797 -0.0530  0.3988 -0.7872
49752SOL    HW254195   0.955   7.495   5.784  0.8973  0.4139 -1.0040
49753SOL     OW54196   3.113   4.314   2.833 -0.4188  0.0581  0.0078
49753SOL    HW154197   3.117   4.234   2.780 -3.0267 -0.5855  0.6199
49753SOL    HW254198   3.033   4.358   2.804  0.8313  2.3662 -0.1339
49754SOL     OW54199   1.745   4.667   5.493 -0.1084 -0.2825  0.2124
49754SOL    HW154200   1.739   4.763   5.489  0.3719 -0.2906 -1.8570
49754SOL    HW254201   1.833   4.647   5.462 -0.0391 -1.3885  1.0765
49755SOL     OW54202   5.135   7.060   6.226  0.0629  0.0529  0.5438
49755SOL    HW154203   5.154   7.073   6.318  1.9018  0.8411  0.0937
49755SOL    HW254204   5.126   7.149   6.190  0.0817 -0.2222 -0.1638
49756SOL     OW54205   9.258   0.801   3.376 -0.0690 -0.0622  0.5146
49756SOL    HW154206   9.163   0.791   3.389 -0.0913  0.1910  0.5463
49756SOL    HW254207   9.285   0.719   3.335 -0.5688  0.4819 -0.9623
49757SOL     OW54208   4.274   5.381   5.259 -0.2947  0.1743  0.5142
49757SOL    HW154209   4.269   5.296   5.304  0.1276  0.5392  1.2643
49757SOL    HW254210   4.306   5.359   5.172  2.0065 -0.2236  1.4027
49758SOL     OW54211   6.515   8.425   8.997  0.2421  0.2238 -0.4955
49758SOL    HW154212   6.509   8.469   8.912 -0.3771 -0.5382 -0.8602
49758SOL    HW254213   6.587   8.363   8.987 -1.6634 -2.0031 -1.5253
49759SOL     OW54214   9.581   3.615   6.529 -0.1987  0.1559  0.2847
49759SOL    HW154215   9.634   3.694   6.543 -0.2406  0.1315  0.5768
49759SOL    HW254216   9.552   3.590   6.617  1.7683 -1.5505  0.5239
49760SOL     OW54217  11.225   1.762  10.168 -0.0798 -0.1308  0.0047
49760SOL    HW154218  11.282   1.701  10.215  1.0695  0.6574 -0.3336
49760SOL    HW254219  11.261   1.765  10.079 -1.9123 -1.2090 -0.8409
49761SOL     OW54220   2.156   6.903  10.349 -0.1764  1.0457  0.5214
49761SOL    HW154221   2.228   6.948  10.393 -0.2851 -0.1664  2.0262
49761SOL    HW254222   2.083   6.909  10.410  0.1095 -2.0645  1.3288
49762SOL     OW54223   8.959   8.741   7.720  0.0442  0.8960  0.3942
49762SOL    HW154224   9.018   8.750   7.796 -0.4374  0.4544  0.8327
49762SOL    HW254225   8.921   8.828   7.709 -0.1487  0.8797  0.8898
49763SOL     OW54226  10.042   3.629   9.903 -0.7055 -0.3223 -0.5147
49763SOL    HW154227   9.958   3.667   9.931 -1.9944 -2.0733 -1.8530
49763SOL    HW254228  10.060   3.561   9.968 -2.2634 -2.4438 -2.1514
49764SOL     OW54229   9.115   2.468  10.709  0.3068 -0.4288 -0.0499
49764SOL    HW154230   9.166   2.547  10.691 -0.3960  0.0634  0.0584
49764SOL    HW254231   9.157   2.430  10.786  0.6235 -0.1335 -0.0730
49765SOL     OW54232   7.579   9.387  10.935  0.8629 -1.1408  0.1158
49765SOL    HW154233   7.534   9.309  10.968 -4.0057  1.4796  0.6585
49765SOL    HW254234   7.560   9.388  10.841 -1.1707  0.3387  0.4586
49766SOL     OW54235   3.176  10.333   4.812  0.2371 -0.4462 -0.6493
49766SOL    HW154236   3.165  10.241   4.789  0.1655 -0.4196 -0.7241
49766SOL    HW254237   3.144  10.339   4.902  1.7265 -0.8079 -0.0685
49767SOL     OW54238   6.481   5.743   2.870  0.2858  0.9476 -0.1400
49767SOL    HW154239   6.408   5.686   2.893 -0.0248  1.5456  0.3850
49767SOL    HW254240   6.508   5.714   2.783 -1.3444  1.4910 -0.8626
49768SOL     OW54241   4.295   4.767   7.244 -0.0088 -0.1184 -0.5177
49768SOL    HW154242   4.358   4.752   7.315  1.1984  0.0841 -1.5127
49768SOL    HW254243   4.257   4.681   7.229  0.0127 -0.2462  0.1130
49769SOL     OW54244   5.920   7.082  11.549 -0.1222 -0.2348 -0.0068
49769SOL    HW154245   6.001   7.100  11.597 -0.5383 -0.7997  0.9403
49769SOL    HW254246   5.857   7.055  11.616 -1.6471  1.8928 -0.4774
49770SOL     OW54247   9.632   3.829   4.681  0.3284 -0.5159  0.0619
49770SOL    HW154248   9.726   3.824   4.700  0.2087 -3.1387  0.2417
49770SOL    HW254249   9.597   3.889   4.747  1.6780 -0.4157  0.7122
49771SOL     OW54250   4.971   4.526   6.126 -0.5908 -0.1805  0.3100
49771SOL    HW154251   4.895   4.533   6.184 -1.8187 -0.9780 -1.1322
49771SOL    HW254252   4.942   4.470   6.054  1.4962 -0.8210 -0.1140
49772SOL     OW54253   0.195   1.132   3.786 -0.1961 -0.1934 -0.1297
49772SOL    HW154254   0.197   1.141   3.690 -0.6177 -4.6363 -0.7748
49772SOL    HW254255   0.283   1.157   3.814  0.0397  0.8757 -1.6551
49773SOL     OW54256   0.849  10.915   3.633 -0.1465  0.6746 -0.3834
49773SOL    HW154257   0.916  10.855   3.599 -0.2095 -0.2801  1.0746
49773SOL    HW254258   0.779  10.911   3.568 -0.8023 -2.0571  0.3557
49774SOL     OW54259   7.297   5.761   6.218  0.5035 -0.4231 -0.1102
49774SOL    HW154260   7.321   5.758   6.126  0.2087 -0.7366 -0.1743
49774SOL    HW254261   7.375   5.797   6.261  0.1935  0.9521 -0.6342
49775SOL     OW54262   1.190   7.546   5.029 -0.0599  0.1960  0.5166
49775SOL    HW154263   1.117   7.604   5.051 -1.5323 -1.6088  0.6818
49775SOL    HW254264   1.177   7.469   5.085  1.5852 -0.4612  0.0413
49776SOL     OW54265   7.404   4.729   0.361  0.1133 -0.1812 -0.5859
49776SOL    HW154266   7.434   4.639   0.378  1.1541  0.2141 -0.2179
49776SOL    HW254267   7.464   4.784   0.412 -0.9907  0.6881 -0.1918
49777SOL     OW54268   7.659   8.876   9.776  0.4763 -0.2180 -0.8570
49777SOL    HW154269   7.721   8.949   9.773 -0.1904  0.3393 -2.5394
49777SOL    HW254270   7.709   8.801   9.743  0.0789  0.4435 -3.1706
49778SOL     OW54271   3.413   3.048   1.544 -0.1088  0.5147 -0.2812
49778SOL    HW154272   3.435   3.018   1.456 -0.7179  0.3693 -0.3927
49778SOL    HW254273   3.409   3.143   1.537 -1.7283  0.4463 -0.8219
49779SOL     OW54274   4.062   2.905   2.438  0.5563  0.3429  0.2816
49779SOL    HW154275   4.002   2.962   2.390  0.3304  0.1724  0.3597
49779SOL    HW254276   4.009   2.868   2.509  0.1773 -1.4034 -0.8471
49780SOL     OW54277   3.314   3.681   6.326  0.4723 -0.2745  1.0063
49780SOL    HW154278   3.378   3.671   6.255 -1.1982 -0.7783 -0.4984
49780SOL    HW254279   3.260   3.754   6.298 -1.0347 -1.3265  1.0865
49781SOL     OW54280   7.624   1.414   0.999 -0.4575  0.4405  0.9594
49781SOL    HW154281   7.667   1.380   1.078  0.3135  0.0631  0.3937
49781SOL    HW254282   7.531   1.414   1.021 -0.4195 -1.2219  1.3017
49782SOL     OW54283   8.878   7.915   6.942 -0.0361  0.0389 -0.1506
49782SOL    HW154284   8.791   7.915   6.903 -0.4603 -0.5795  0.7618
49782SOL    HW254285   8.864   7.891   7.034  1.2748 -1.8414 -0.3869
49783SOL     OW54286   2.588   7.811   6.284  0.4550 -0.2544 -0.4097
49783SOL    HW154287   2.519   7.846   6.342  2.0899  0.0752  1.4635
49783SOL    HW254288   2.591   7.873   6.211  0.7726  1.5052  1.0006
49784SOL     OW54289   8.174  10.059   7.141  0.0491 -0.4743 -0.0075
49784SOL    HW154290   8.146  10.091   7.055 -0.0447  0.8552  0.4878
49784SOL    HW254291   8.122  10.110   7.203 -1.3833 -2.8214  0.8535
49785SOL     OW54292   7.067   8.002   2.332  0.1982 -0.1791 -0.0128
49785SOL    HW154293   7.119   7.967   2.260  1.9244  0.1274  1.0348
49785SOL    HW254294   7.065   8.096   2.317 -0.0796 -0.1894 -0.0507
49786SOL     OW54295   1.343   9.082   2.918 -0.6101 -0.3049  0.1531
49786SOL    HW154296   1.303   9.113   3.000 -0.8444 -0.0357 -0.0582
49786SOL    HW254297   1.281   9.017   2.884 -0.0550 -1.1127  0.6608
49787SOL     OW54298   2.770   5.744   9.465 -0.4530 -0.2336  0.9815
49787SOL    HW154299   2.851   5.736   9.515  0.5091 -1.6386 -0.7080
49787SOL    HW254300   2.778   5.829   9.421  0.0231 -0.2894  0.9526
49788SOL     OW54301   8.442   7.520   3.604 -0.0650  0.1344  0.0849
49788SOL    HW154302   8.435   7.543   3.512 -2.3693  0.6474  0.3260
49788SOL    HW254303   8.490   7.593   3.643  0.7531  0.0067 -0.6445
49789SOL     OW54304   9.048   7.283   5.924 -0.4450  0.2459  0.4615
49789SOL    HW154305   9.082   7.263   5.837 -0.9327  0.6683  0.1663
49789SOL    HW254306   9.126   7.289   5.980 -0.1994 -1.1701  0.3066
49790SOL     OW54307   9.507   4.316  10.335 -0.2194  0.0861  0.3603
49790SOL    HW154308   9.511   4.312  10.431 -1.4039 -0.1512  0.4106
49790SOL    HW254309   9.484   4.407  10.317  0.3767  0.2250  0.2764
49791SOL     OW54310   2.294   6.763   9.320 -0.2748  0.2975 -0.0524
49791SOL    HW154311   2.278   6.674   9.286  0.2132  0.3367 -0.4069
49791SOL    HW254312   2.250   6.765   9.405  0.9746 -0.8056  0.6731
49792SOL     OW54313   4.778   6.846   5.435  0.2448 -0.2011 -0.0009
49792SOL    HW154314   4.703   6.832   5.376  0.6125 -0.7727 -0.3447
49792SOL    HW254315   4.854   6.849   5.377  0.5524 -0.2114  0.3985
49793SOL     OW54316   4.363   6.475  10.764  0.0146  0.0852 -0.0430
49793SOL    HW154317   4.320   6.492  10.848  0.7475  0.0112  0.3482
49793SOL    HW254318   4.453   6.454  10.787  0.4383  0.9212 -0.9118
49794SOL     OW54319   1.271   9.746   0.735 -0.1984  0.1703 -0.4370
49794SOL    HW154320   1.359   9.711   0.725 -0.1114  0.1512  0.3140
49794SOL    HW254321   1.284   9.837   0.764 -0.4265  0.3936 -1.0177
49795SOL     OW54322   4.315   4.275   7.349  0.3627 -0.3370 -0.3445
49795SOL    HW154323   4.372   4.284   7.426  0.8670 -0.2411 -0.7265
49795SOL    HW254324   4.374   4.288   7.274  0.0152 -1.1533 -0.7673
49796SOL     OW54325   6.079   1.419   1.478  0.0235  0.4888 -0.4839
49796SOL    HW154326   6.029   1.400   1.398  0.9740 -2.1821 -0.5485
49796SOL    HW254327   6.078   1.336   1.527  1.2546  1.4514  1.2586
49797SOL     OW54328   7.572   1.878  11.311 -0.0455 -0.2041 -0.2106
49797SOL    HW154329   7.619   1.943  11.259  0.2338 -0.9037 -0.8523
49797SOL    HW254330   7.480   1.891  11.287 -0.1207  0.6871  0.5063
49798SOL     OW54331   1.781  11.277   2.288 -0.2675 -0.5209 -0.6860
49798SOL    HW154332   1.758  11.199   2.339  2.0474 -0.3690  0.7878
49798SOL    HW254333   1.708  11.337   2.302 -1.0360 -1.5788  0.0466
49799SOL     OW54334   3.839   5.800  10.561 -0.4230  0.0986  0.5138
49799SOL    HW154335   3.824   5.874  10.619 -4.4323  1.3138 -1.6647
49799SOL    HW254336   3.860   5.839  10.476  0.5953 -1.4451 -0.0043
49800SOL     OW54337   4.209   2.469   6.501  0.2320  0.5259 -0.1395
49800SOL    HW154338   4.267   2.419   6.558  2.2065 -0.0051 -2.4783
49800SOL    HW254339   4.209   2.558   6.539  0.5891 -0.0389  1.2588
49801SOL     OW54340   8.653   9.051  11.354 -0.5273 -0.1606 -0.2056
49801SOL    HW154341   8.743   9.060  11.384  0.5252 -0.8317 -2.8749
49801SOL    HW254342   8.615   9.138  11.366  0.2619 -0.0119  1.4694
49802SOL     OW54343   9.987   4.380   9.591  0.4418  0.3693 -0.3848
49802SOL    HW154344   9.909   4.434   9.601  0.7804  1.0895 -1.4713
49802SOL    HW254345   9.972   4.305   9.649 -1.7536 -0.2940 -1.6786
49803SOL     OW54346  11.132  10.789   4.943  0.1072 -0.2498  0.1903
49803SOL    HW154347  11.156  10.738   4.866 -1.8097  0.8669 -1.2199
49803SOL    HW254348  11.205  10.850   4.955  0.9541 -1.1864 -0.0023
49804SOL     OW54349   3.858   2.819   6.145  0.0179  0.5251 -0.2516
49804SOL    HW154350   3.911   2.774   6.079 -0.2529  1.1332 -0.8946
49804SOL    HW254351   3.919   2.874   6.193  0.0730  0.7814 -0.6092
49805SOL     OW54352   1.512   1.655   4.478  0.0112 -0.2303  0.0966
49805SOL    HW154353   1.485   1.724   4.539  0.5564 -1.0647  1.3283
49805SOL    HW254354   1.433   1.603   4.464 -0.6805  1.1958 -1.6715
49806SOL     OW54355   8.737  11.054   4.272 -0.5112  0.0004  0.0306
49806SOL    HW154356   8.755  11.144   4.246  0.9474 -0.4973 -0.7613
49806SOL    HW254357   8.647  11.038   4.243 -0.2979  0.7528 -1.0915
49807SOL     OW54358   7.936   2.964   0.753  0.3270  0.2636  0.1963
49807SOL    HW154359   8.030   2.984   0.759  0.2479  1.2318 -1.2442
49807SOL    HW254360   7.893   3.048   0.770 -0.2445  0.0213 -0.0460
49808SOL     OW54361   1.904   9.457   4.098  0.3092  0.3811 -0.3578
49808SOL    HW154362   1.912   9.409   4.016  0.8642  0.7128 -0.5002
49808SOL    HW254363   1.863   9.395   4.159  0.7031 -0.1531 -0.6348
49809SOL     OW54364   2.916   3.817   0.908 -0.1276  0.6259 -0.0293
49809SOL    HW154365   2.975   3.815   0.983 -1.9741  1.1988  1.5159
49809SOL    HW254366   2.917   3.907   0.877 -0.4831  0.7353  0.2663
49810SOL     OW54367   8.652  11.055   1.406 -0.1196  0.1049  0.6802
49810SOL    HW154368   8.580  11.051   1.469 -1.2739  0.8067 -0.5445
49810SOL    HW254369   8.624  11.002   1.333  0.6329  0.3495  0.1973
49811SOL     OW54370  10.789   0.374   7.035 -0.2354  0.5652  0.2009
49811SOL    HW154371  10.826   0.407   7.117  0.0301  0.4000  0.1509
49811SOL    HW254372  10.814   0.281   7.033 -0.1297  0.5964 -0.1238
49812SOL     OW54373   7.399   1.838   5.221 -0.2114  0.0387  0.2556
49812SOL    HW154374   7.344   1.762   5.241  1.3088 -0.6296  2.2418
49812SOL    HW254375   7.463   1.805   5.158 -1.7443  0.6980 -1.7113
49813SOL     OW54376  11.518  10.541   0.647 -0.6960 -0.3777  0.0890
49813SOL    HW154377  11.532  10.508   0.558  1.6604 -0.9579  0.6146
49813SOL    HW254378  11.522  10.463   0.702  0.2022  0.2343  0.9131
49814SOL     OW54379   7.108   9.646   6.474 -0.5283 -0.0502 -0.2588
49814SOL    HW154380   7.087   9.740   6.481 -0.5347 -0.1512  1.6442
49814SOL    HW254381   7.041   9.603   6.528  0.1615 -1.0466 -0.1843
49815SOL     OW54382   0.939  11.627   1.219 -0.2826 -0.2603  0.3061
49815SOL    HW154383   1.007  11.672   1.269 -1.0403  0.5263  0.6548
49815SOL    HW254384   0.872  11.605   1.284 -1.3805  0.9740 -0.3782
49816SOL     OW54385   2.825   2.461   0.086 -0.2898  0.0217 -0.0904
49816SOL    HW154386   2.803   2.488   0.175  0.6278 -0.7548  0.3910
49816SOL    HW254387   2.881   2.532   0.053  0.2368 -0.1863  0.3391
49817SOL     OW54388   6.617   3.471   5.208 -0.3249  0.4642  0.5280
49817SOL    HW154389   6.664   3.460   5.291 -1.9525 -2.4592  1.2035
49817SOL    HW254390   6.526   3.484   5.233 -1.1993 -2.5493 -0.6977
49818SOL     OW54391   1.545   0.806   4.699  0.0462  0.4067  0.0559
49818SOL    HW154392   1.469   0.781   4.750  0.4547  0.6910  0.8140
49818SOL    HW254393   1.610   0.739   4.718  0.6764  1.2605  1.0207
49819SOL     OW54394   0.582   2.932  10.947  0.8661 -0.3227 -0.7647
49819SOL    HW154395   0.524   2.958  10.876 -0.5283 -1.8135 -0.2395
49819SOL    HW254396   0.661   2.985  10.935 -0.0460  0.7495 -2.3307
49820SOL     OW54397   4.556   5.733   3.761 -0.3225 -0.1330 -0.7283
49820SOL    HW154398   4.516   5.820   3.764 -1.2846 -0.5943  0.5749
49820SOL    HW254399   4.506   5.685   3.695 -0.3265  0.0231 -0.8407
49821SOL     OW54400  11.356   3.316  10.862  0.8404  0.1030  0.0754
49821SOL    HW154401  11.273   3.353  10.832  1.2496  0.4692 -0.6520
49821SOL    HW254402  11.418   3.336  10.791  1.1103 -1.8998 -0.3199
49822SOL     OW54403   7.878   6.816   4.870 -0.8266 -0.8079 -0.4358
49822SOL    HW154404   7.950   6.761   4.899 -0.2954 -0.1796 -0.5516
49822SOL    HW254405   7.887   6.822   4.775  0.9098  1.8570 -0.2138
49823SOL     OW54406   0.794  11.453   3.954 -0.0822 -0.1223  0.6300
49823SOL    HW154407   0.788  11.537   4.000 -1.3126 -1.3000  2.8035
49823SOL    HW254408   0.788  11.387   4.024  0.1971 -2.0402 -1.0586
49824SOL     OW54409   9.467   9.294   8.186 -0.4740  0.0342  0.4284
49824SOL    HW154410   9.536   9.228   8.192  0.3385  0.7729 -0.5961
49824SOL    HW254411   9.458   9.313   8.093  1.2134  3.2930  0.7824
49825SOL     OW54412   9.674   9.295   5.015 -0.1519 -0.1108 -0.2549
49825SOL    HW154413   9.654   9.276   5.107  0.0487 -0.7916 -0.3423
49825SOL    HW254414   9.727   9.375   5.018  0.9109 -0.8060  0.3286
49826SOL     OW54415  11.579   0.581   6.210  0.1113  0.5974 -0.1932
49826SOL    HW154416  11.594   0.675   6.209 -1.0750  0.8261  0.7481
49826SOL    HW254417  11.489   0.570   6.177  0.5513 -0.2821 -1.1563
49827SOL     OW54418   2.584   5.338   4.977  0.1086  0.1208  0.1140
49827SOL    HW154419   2.580   5.345   5.073  2.3435  0.0971  0.2656
49827SOL    HW254420   2.667   5.380   4.954 -0.6075  0.5294 -1.8755
49828SOL     OW54421   9.094   9.910   3.624 -0.4363 -0.0303 -0.4984
49828SOL    HW154422   9.003   9.887   3.644 -1.1550  1.1744 -2.2123
49828SOL    HW254423   9.103  10.001   3.652  1.0157 -0.8069  1.8947
49829SOL     OW54424   7.079   6.635   4.107  0.3009 -0.4390  0.3659
49829SOL    HW154425   6.996   6.654   4.150  0.3529  3.2568 -0.7881
49829SOL    HW254426   7.065   6.659   4.015  1.9605 -2.1297 -0.4054
49830SOL     OW54427   5.700   4.494   4.931  0.4653 -0.7988  0.1690
49830SOL    HW154428   5.740   4.540   4.856 -0.3291  0.3552  0.4215
49830SOL    HW254429   5.614   4.535   4.940  0.9060 -0.2535  2.2897
49831SOL     OW54430   6.815  11.537   5.595  0.3037  0.1335 -0.1481
49831SOL    HW154431   6.790  11.467   5.655  1.2646 -0.3458 -0.2978
49831SOL    HW254432   6.895  11.506   5.552  0.1436  0.8570 -1.0098
49832SOL     OW54433   7.690   5.113   5.610  0.4088  0.4310 -0.0885
49832SOL    HW154434   7.626   5.179   5.638 -0.6547 -1.2668  1.7566
49832SOL    HW254435   7.774   5.159   5.612 -0.5740  2.4384 -1.5777
49833SOL     OW54436   9.862   9.870   2.706  0.3761 -0.2038  0.0999
49833SOL    HW154437   9.901   9.916   2.781  1.6048  2.3307 -1.8892
49833SOL    HW254438   9.937   9.829   2.662  0.0870  0.4190 -1.0181
49834SOL     OW54439   9.802   1.547   1.646  0.3938 -0.7079 -0.6631
49834SOL    HW154440   9.710   1.544   1.620  0.3894  1.1177 -1.0073
49834SOL    HW254441   9.815   1.470   1.701 -0.7525 -2.2116 -2.4059
49835SOL     OW54442   1.121   0.807  10.926  0.6647 -0.1254  0.0997
49835SOL    HW154443   1.155   0.870  10.990  0.8328 -0.5280  0.4131
49835SOL    HW254444   1.198   0.778  10.877  0.5781 -0.0398 -0.0880
49836SOL     OW54445   4.041   0.576  11.209 -0.1939 -0.1476 -0.2577
49836SOL    HW154446   3.950   0.599  11.226 -0.2158  0.0953 -0.6964
49836SOL    HW254447   4.062   0.510  11.276 -1.2924 -1.7219 -1.4009
49837SOL     OW54448   1.864   6.606   6.967 -0.4241 -0.6996  0.2305
49837SOL    HW154449   1.809   6.637   7.039  1.7338 -2.0539  2.6388
49837SOL    HW254450   1.829   6.520   6.945 -1.2454 -0.1774 -0.5972
49838SOL     OW54451   9.832   0.264  10.856 -0.1640  0.5557 -0.0129
49838SOL    HW154452   9.823   0.334  10.921  0.3326  0.9835 -0.3994
49838SOL    HW254453   9.744   0.228  10.847 -0.6457  1.8476 -0.6004
49839SOL     OW54454  10.241  11.594   3.617 -0.3116  0.5892  0.4093
49839SOL    HW154455  10.255  11.669   3.674 -2.2174  0.8498  0.6179
49839SOL    HW254456  10.304  11.529   3.646  0.4848  1.6320  1.0947
49840SOL     OW54457   5.254   1.647   6.840  0.0492  0.1526 -0.1867
49840SOL    HW154458   5.293   1.694   6.766 -0.4450  2.6572  1.0364
49840SOL    HW254459   5.160   1.648   6.822 -0.1285  1.2836  0.7039
49841SOL     OW54460   9.072  10.124  11.084 -0.0775 -0.0327 -0.1543
49841SOL    HW154461   9.086  10.065  11.010  0.5117 -0.2564  0.1333
49841SOL    HW254462   9.025  10.199  11.046  0.7980  0.1612 -0.8999
49842SOL     OW54463   3.827   9.391   2.263  1.4047 -0.1613  0.0627
49842SOL    HW154464   3.742   9.433   2.249  1.6279  1.4379  2.8293
49842SOL    HW254465   3.821   9.308   2.215 -1.3342  0.3201 -0.5912
49843SOL     OW54466   2.377   6.757   4.070 -0.1059  0.0647  0.0065
49843SOL    HW154467   2.399   6.682   4.126 -0.2061  0.5955  0.7794
49843SOL    HW254468   2.309   6.724   4.011 -0.1754 -0.4421  0.3645
49844SOL     OW54469   7.480   4.798   9.571 -0.4361 -0.3494 -0.0070
49844SOL    HW154470   7.545   4.740   9.533 -0.1519  0.7259 -1.2373
49844SOL    HW254471   7.442   4.748   9.643  0.2716 -1.7865 -0.5931
49845SOL     OW54472   5.112   9.568   5.253  0.2260  0.5950  0.1752
49845SOL    HW154473   5.046   9.502   5.273  1.2181 -0.0869  1.2558
49845SOL    HW254474   5.195   9.522   5.260  0.8343  1.4305 -1.2353
49846SOL     OW54475   7.437   9.179   2.107 -0.0253  0.0837  0.4875
49846SOL    HW154476   7.491   9.125   2.164 -0.8393  0.1820  1.3892
49846SOL    HW254477   7.405   9.249   2.164 -0.0913  0.7253 -0.3278
49847SOL     OW54478   0.730   3.213   9.670  0.2644 -0.2056 -0.0994
49847SOL    HW154479   0.793   3.146   9.645 -1.3161 -2.3319  1.2154
49847SOL    HW254480   0.750   3.288   9.615  2.1166 -1.7709 -1.6712
49848SOL     OW54481   4.519   9.417   2.609 -0.0648  0.6767 -0.1482
49848SOL    HW154482   4.481   9.432   2.695 -0.7595 -3.8386  0.5450
49848SOL    HW254483   4.610   9.393   2.626 -0.8977 -3.0481 -0.1693
49849SOL     OW54484  10.892   0.112  10.126 -0.0308 -0.0688 -0.3763
49849SOL    HW154485  10.926   0.135  10.213  0.5433 -0.7048 -0.4261
49849SOL    HW254486  10.954   0.151  10.065  0.8609 -1.5566 -0.4633
49850SOL     OW54487   9.437   2.351   0.695 -0.3017 -0.4627 -0.8196
49850SOL    HW154488   9.508   2.343   0.632  0.0628 -0.1450 -0.4620
49850SOL    HW254489   9.464   2.296   0.769 -0.0704  0.2378 -0.3740
49851SOL     OW54490  10.435   7.808  10.638  0.0424 -0.2290 -0.2751
49851SOL    HW154491  10.444   7.717  10.611  1.7378 -0.7622  1.8621
49851SOL    HW254492  10.360   7.808  10.697  0.4258 -0.3875  0.2206
49852SOL     OW54493   3.308  10.843   3.785 -0.2320  0.4714  0.4935
49852SOL    HW154494   3.245  10.803   3.845 -0.2694  0.1407  0.2381
49852SOL    HW254495   3.373  10.774   3.770 -0.3874  0.4418 -0.0800
49853SOL     OW54496   1.065   1.732   5.027 -0.5338 -0.6454  0.2367
49853SOL    HW154497   0.975   1.759   5.043 -0.4492 -0.3948  0.2875
49853SOL    HW254498   1.097   1.703   5.113  1.3397  4.7356  1.7581
49854SOL     OW54499   4.723   4.225   3.150  0.0030 -0.3218  0.3981
49854SOL    HW154500   4.753   4.303   3.104  3.1504 -0.6482  1.6547
49854SOL    HW254501   4.729   4.155   3.084  0.4476 -0.0762  0.1710
49855SOL     OW54502   9.942  11.511  11.232 -0.3000 -0.4477  0.4795
49855SOL    HW154503   9.896  11.574  11.177  0.1717  0.6054  1.2582
49855SOL    HW254504   9.936  11.428  11.184 -0.4421  0.3050 -0.8368
49856SOL     OW54505   2.248  10.883   9.380 -0.7496 -0.1105 -0.4630
49856SOL    HW154506   2.186  10.956   9.380  0.2322  0.7552 -1.2355
49856SOL    HW254507   2.329  10.921   9.412  0.3894 -0.2765 -2.9513
49857SOL     OW54508   0.050  10.097   8.191 -0.2216 -0.1091 -0.6180
49857SOL    HW154509   0.069  10.159   8.261 -1.0864  1.0583 -1.3935
49857SOL    HW254510  -0.031  10.055   8.218  0.2071 -0.7162 -0.2384
49858SOL     OW54511   5.793   3.743   5.995  0.2948  0.0123  0.0108
49858SOL    HW154512   5.840   3.697   6.064  1.3685  2.0702  0.7336
49858SOL    HW254513   5.858   3.756   5.926 -0.8840 -2.4348 -1.7164
49859SOL     OW54514   4.430   7.893   4.638  0.4534 -0.2460  0.1994
49859SOL    HW154515   4.465   7.805   4.621  1.9480  0.4102 -0.2739
49859SOL    HW254516   4.340   7.890   4.604 -0.6406 -2.4764  2.9067
49860SOL     OW54517   9.106   8.471  10.942 -0.2573 -0.4997  0.4326
49860SOL    HW154518   9.166   8.421  10.997  0.4837 -0.9949 -0.7723
49860SOL    HW254519   9.066   8.535  11.001  0.0827 -1.3688  1.6424
49861SOL     OW54520   5.431   6.648  10.777 -0.1874  0.2632 -0.7877
49861SOL    HW154521   5.476   6.628  10.695 -1.6672 -0.2388 -1.5279
49861SOL    HW254522   5.339   6.631  10.758 -0.3958 -1.6835  1.5298
49862SOL     OW54523   3.621  11.044   3.519  0.0071  0.3593  0.2026
49862SOL    HW154524   3.664  11.033   3.604  0.0708 -1.4967 -0.0218
49862SOL    HW254525   3.529  11.060   3.541  0.0524  0.0651  0.6364
49863SOL     OW54526   5.233   2.160   1.911  0.1277  0.2255  0.7594
49863SOL    HW154527   5.152   2.205   1.888  0.1399 -0.7906 -1.5168
49863SOL    HW254528   5.275   2.218   1.975 -0.2722  3.0271 -1.3248
49864SOL     OW54529   1.749   3.922   5.959  0.0565  0.7888 -0.4924
49864SOL    HW154530   1.678   3.930   5.895  0.2033 -0.0518 -0.7609
49864SOL    HW254531   1.767   4.012   5.985 -1.9023  0.9573  0.4387
49865SOL     OW54532   9.756   7.518   8.961  0.0208  0.5856 -0.1764
49865SOL    HW154533   9.791   7.524   8.872 -0.5652  1.1697 -0.3722
49865SOL    HW254534   9.675   7.569   8.959 -1.2173 -1.2751  0.0825
49866SOL     OW54535   2.508   5.535   1.980 -0.0627  0.0720 -0.0293
49866SOL    HW154536   2.522   5.466   1.915  1.0702 -0.3515  0.6483
49866SOL    HW254537   2.433   5.505   2.031  1.1753 -1.2989  1.0537
49867SOL     OW54538   3.367   0.685  10.859  0.2834 -0.0159  0.5228
49867SOL    HW154539   3.407   0.672  10.773  0.3460  0.5941  0.4574
49867SOL    HW254540   3.426   0.746  10.904  0.7892 -1.0973  1.3653
49868SOL     OW54541   1.483  10.868   4.378  0.3764  0.0523  0.1305
49868SOL    HW154542   1.432  10.787   4.380  0.9174 -0.2837  1.1624
49868SOL    HW254543   1.548  10.857   4.448  1.2406  0.8712 -0.5206
49869SOL     OW54544   4.119   8.797   4.477  0.2183  0.1103  0.3387
49869SOL    HW154545   4.027   8.770   4.480 -0.3642  2.0827  2.6260
49869SOL    HW254546   4.118   8.883   4.436  1.1314  0.0413  0.1305
49870SOL     OW54547   9.652  10.789   5.423 -0.0736 -0.1598  0.5729
49870SOL    HW154548   9.706  10.830   5.491 -1.2823 -1.5214  2.4214
49870SOL    HW254549   9.690  10.702   5.412 -0.5237 -0.3166  0.2523
49871SOL     OW54550  10.878   5.298   4.744 -0.2434  0.2024 -0.0054
49871SOL    HW154551  10.959   5.339   4.774  0.7770 -2.2928  0.8731
49871SOL    HW254552  10.881   5.306   4.649  1.2984 -0.2926 -0.0144
49872SOL     OW54553   5.137  10.608   3.846  0.5611 -0.1436  0.4982
49872SOL    HW154554   5.209  10.671   3.840  0.1352  0.3489  0.5288
49872SOL    HW254555   5.160  10.553   3.921  0.8996  0.0219  0.5182
49873SOL     OW54556   8.722   2.879  10.148 -0.3154  0.4199 -0.7888
49873SOL    HW154557   8.791   2.877  10.082  0.0938 -0.3545 -0.3526
49873SOL    HW254558   8.755   2.938  10.216 -0.4800  0.7574 -1.0005
49874SOL     OW54559   2.342   1.492   0.691 -0.2840  0.2436  0.1486
49874SOL    HW154560   2.291   1.422   0.733 -0.5320  0.7155  0.6469
49874SOL    HW254561   2.406   1.445   0.637 -0.8085 -0.3634  0.0324
49875SOL     OW54562   8.361   6.459   2.770 -0.0188  0.2466 -0.2568
49875SOL    HW154563   8.442   6.496   2.805  0.3002 -1.0976  0.4954
49875SOL    HW254564   8.371   6.464   2.675 -0.0243  2.0860 -0.2119
49876SOL     OW54565   6.250   3.568  10.358  0.2620  0.5768  0.1755
49876SOL    HW154566   6.216   3.656  10.346  3.6354  1.9999 -0.2422
49876SOL    HW254567   6.249   3.555  10.453 -2.4645 -0.0247  0.1409
49877SOL     OW54568   0.805   7.878   5.660  0.2708  0.3490 -0.6547
49877SOL    HW154569   0.832   7.928   5.737 -0.7103 -0.5349  0.2938
49877SOL    HW254570   0.839   7.928   5.586  1.5331  1.0422  0.3504
49878SOL     OW54571   3.651   8.028   5.014  0.4604  0.0800  0.3573
49878SOL    HW154572   3.721   8.056   4.956 -1.2289  0.8783 -1.4160
49878SOL    HW254573   3.576   8.012   4.956 -1.1573  0.3707  2.2472
49879SOL     OW54574   3.258   0.525   0.947 -0.2281 -0.2141  0.3351
49879SOL    HW154575   3.180   0.509   0.893 -0.6857 -0.3889  1.0444
49879SOL    HW254576   3.330   0.488   0.896 -0.6593 -0.3963 -0.1500
49880SOL     OW54577   2.927   0.681   7.503  0.0107  0.5004  0.5225
49880SOL    HW154578   2.948   0.737   7.578 -1.2172  0.9527  0.5503
49880SOL    HW254579   2.876   0.737   7.444  2.7610  0.8529 -1.7355
49881SOL     OW54580   6.229   9.203   0.997 -0.2200 -0.3821 -0.2058
49881SOL    HW154581   6.140   9.233   1.013  1.0856  2.9914  1.7969
49881SOL    HW254582   6.252   9.152   1.075  0.1127  0.1905  0.0786
49882SOL     OW54583   0.418   4.886   9.114 -0.0955 -0.2348 -0.2325
49882SOL    HW154584   0.431   4.801   9.158 -4.2562 -1.2063 -0.4456
49882SOL    HW254585   0.428   4.866   9.021  0.4153 -0.1402 -0.1975
49883SOL     OW54586   2.211   3.323   9.788  0.3782  0.4309  0.1875
49883SOL    HW154587   2.240   3.350   9.875  0.3487 -0.5514  0.5121
49883SOL    HW254588   2.138   3.264   9.804  0.5226  0.0548 -0.4884
49884SOL     OW54589   7.002  10.830   3.179  0.2873  0.6802  0.7753
49884SOL    HW154590   6.922  10.828   3.232  0.9772 -1.1691  1.8317
49884SOL    HW254591   7.073  10.813   3.241  1.2515 -0.3366 -0.5333
49885SOL     OW54592   4.664  11.329   6.030 -0.4803  0.2791  0.5884
49885SOL    HW154593   4.685  11.419   6.005 -0.6500  0.0986 -0.2617
49885SOL    HW254594   4.572  11.331   6.057 -0.0754  0.6281  2.0293
49886SOL     OW54595   2.753   4.489   0.759 -0.0048  0.8884 -0.1149
49886SOL    HW154596   2.706   4.541   0.824  1.2793  1.2681  0.5435
49886SOL    HW254597   2.846   4.503   0.780  0.3951 -1.4936 -0.0394
49887SOL     OW54598   0.719   5.273  10.113  0.3555 -0.1963  0.2052
49887SOL    HW154599   0.652   5.324  10.159 -1.2594 -0.1453 -2.0674
49887SOL    HW254600   0.785   5.338  10.088  0.1245  0.1478  0.4672
49888SOL     OW54601   7.071   9.604   4.002 -0.1039 -0.2884  0.4759
49888SOL    HW154602   7.032   9.691   4.007  1.8731  0.6177  1.7160
49888SOL    HW254603   7.002   9.548   3.968 -1.5666  1.6856  0.0225
49889SOL     OW54604   3.655  10.102  10.976  0.0759 -0.3928  0.0996
49889SOL    HW154605   3.696  10.189  10.972  1.0795 -0.7983  1.2116
49889SOL    HW254606   3.625  10.087  10.886  0.7008  0.7127 -0.3244
49890SOL     OW54607   0.863   9.804   1.077 -0.2261  0.2954 -0.0018
49890SOL    HW154608   0.917   9.834   1.004  1.3554  1.6090  1.6198
49890SOL    HW254609   0.799   9.874   1.090  0.9933  1.2352  1.2981
49891SOL     OW54610   8.493   9.768   1.739  0.3608 -0.5916  0.1104
49891SOL    HW154611   8.549   9.747   1.664  0.2276  1.5141 -0.6430
49891SOL    HW254612   8.404   9.764   1.705  0.3552  2.3933 -0.5290
49892SOL     OW54613   5.499   6.008   4.576 -0.0744 -0.1050 -0.2024
49892SOL    HW154614   5.545   6.091   4.563 -2.4701  1.3406 -0.1467
49892SOL    HW254615   5.504   5.993   4.671  1.5888 -0.8328 -0.3776
49893SOL     OW54616   6.160   0.717   8.993 -0.0773 -0.0619 -0.0618
49893SOL    HW154617   6.080   0.703   8.943 -0.1508 -1.0440  0.3145
49893SOL    HW254618   6.212   0.638   8.979  1.6009  1.2257 -1.6653
49894SOL     OW54619   1.539   1.171   7.817  0.3385 -0.1208  0.3770
49894SOL    HW154620   1.554   1.085   7.776 -1.5197 -1.4209  2.1802
49894SOL    HW254621   1.625   1.200   7.846  1.1481 -0.8715 -1.1227
49895SOL     OW54622   3.429   3.442   0.913 -0.0355 -0.3362  0.0033
49895SOL    HW154623   3.365   3.380   0.949  0.1959  0.5355  2.0638
49895SOL    HW254624   3.460   3.401   0.833 -2.8394 -0.9887 -0.8354
49896SOL     OW54625   8.580   0.196   3.367  0.1110  0.3942 -0.2083
49896SOL    HW154626   8.563   0.111   3.327  2.9197 -1.7591  2.6412
49896SOL    HW254627   8.546   0.187   3.457  2.6728  1.2543  0.9256
49897SOL     OW54628   4.599  10.361  10.986  0.1850 -0.1233  0.1196
49897SOL    HW154629   4.653  10.437  11.009 -0.2438  0.8368 -1.8522
49897SOL    HW254630   4.578  10.374  10.893 -2.2806 -1.1989  0.4716
49898SOL     OW54631   5.605   6.112   6.783  0.3686 -0.4657 -0.1460
49898SOL    HW154632   5.557   6.051   6.727 -1.2693 -1.1245  1.8210
49898SOL    HW254633   5.536   6.163   6.826  1.4487 -0.7254  2.0268
49899SOL     OW54634   8.279   2.094   9.706 -0.1640 -0.3669 -0.1255
49899SOL    HW154635   8.190   2.087   9.740  0.1298 -0.8565  0.5630
49899SOL    HW254636   8.325   2.019   9.743  0.3744 -0.4799 -0.9882
49900SOL     OW54637  11.573   0.468   1.405 -0.3583 -0.6100  0.1956
49900SOL    HW154638  11.563   0.553   1.449  0.4170  0.7819 -2.1502
49900SOL    HW254639  11.602   0.490   1.317 -1.0342 -3.3054 -0.7908
49901SOL     OW54640   0.037   6.554   0.474  0.7331  0.4711 -0.1070
49901SOL    HW154641   0.047   6.473   0.525  0.9912  0.0740 -0.7675
49901SOL    HW254642  -0.057   6.568   0.471  0.7485  0.9866  1.2081
49902SOL     OW54643  10.719   8.511   2.335  0.1169 -0.5617  0.9217
49902SOL    HW154644  10.740   8.528   2.243 -0.5009  0.4218  0.9446
49902SOL    HW254645  10.649   8.573   2.355 -1.4723 -2.4109  1.3909
49903SOL     OW54646   9.483  10.685   5.083 -0.6003  0.1425  0.9386
49903SOL    HW154647   9.536  10.734   5.146  0.2311  1.2796 -0.6034
49903SOL    HW254648   9.416  10.747   5.055  0.2636  0.3417 -0.7893
49904SOL     OW54649   1.983   3.991   6.821  0.2353 -0.5375 -0.4027
49904SOL    HW154650   2.067   3.965   6.781 -0.3279 -1.2864 -1.1247
49904SOL    HW254651   2.003   3.999   6.914  1.4789  0.7982 -0.7411
49905SOL     OW54652   2.672   8.489   1.536  0.0477  0.2916  0.3823
49905SOL    HW154653   2.596   8.528   1.579 -0.2416  0.2773 -0.1075
49905SOL    HW254654   2.635   8.427   1.472  0.4628  0.3635  0.0647
49906SOL     OW54655   8.058   0.796   2.174  0.1316 -0.1695  0.3452
49906SOL    HW154656   8.114   0.752   2.238  0.6980  0.3901  0.2411
49906SOL    HW254657   7.981   0.824   2.224 -0.6728 -2.0347  0.2486
49907SOL     OW54658  10.295   3.649   4.618  0.1548 -0.3960 -0.7507
49907SOL    HW154659  10.277   3.556   4.626 -0.8640 -0.6504 -4.2498
49907SOL    HW254660  10.218   3.685   4.573  0.7384  2.0496  0.0326
49908SOL     OW54661   3.046   2.300  11.598 -0.6202  0.3750 -0.0100
49908SOL    HW154662   3.037   2.349  11.517  0.8902 -0.9785 -1.0469
49908SOL    HW254663   3.117   2.343  11.645  0.7432 -0.7883 -0.9451
49909SOL     OW54664  11.280  11.411   9.194  0.6375  0.4920  0.1718
49909SOL    HW154665  11.277  11.451   9.281  2.0822 -0.1787  0.5625
49909SOL    HW254666  11.337  11.335   9.205  0.3720  0.0669 -1.2415
49910SOL     OW54667   7.423   0.227   4.702  0.2260  0.5349 -0.0714
49910SOL    HW154668   7.382   0.312   4.712 -1.8328  0.1678 -3.8031
49910SOL    HW254669   7.511   0.246   4.671  0.0880  1.2729 -0.0231
49911SOL     OW54670   3.373   4.160  10.162  0.3084 -0.0153  0.1592
49911SOL    HW154671   3.353   4.100  10.090  1.0994 -1.0979  0.8228
49911SOL    HW254672   3.310   4.137  10.230 -1.0723  1.6404 -0.4786
49912SOL     OW54673   8.997   3.731   3.185 -0.0113  0.3802  0.4021
49912SOL    HW154674   8.991   3.795   3.115  0.6577  0.6517  0.5825
49912SOL    HW254675   8.911   3.731   3.227  0.2098  1.7082  0.8824
49913SOL     OW54676   7.923   5.620   8.598  0.1223  0.7738  0.2836
49913SOL    HW154677   7.919   5.549   8.662  1.2852 -0.6708 -1.1329
49913SOL    HW254678   7.955   5.695   8.647  1.4342 -0.4080  1.3312
49914SOL     OW54679   9.186   7.240   1.202 -0.4383  0.0316  0.0980
49914SOL    HW154680   9.269   7.280   1.178 -0.8290  0.6523 -0.2364
49914SOL    HW254681   9.167   7.178   1.131 -0.3204 -0.0291  0.1193
49915SOL     OW54682   5.103   7.836   7.747  0.0721  0.0138  0.4506
49915SOL    HW154683   5.116   7.900   7.816 -1.7722  0.3551  0.5112
49915SOL    HW254684   5.090   7.888   7.668 -1.2742 -0.2540  0.4715
49916SOL     OW54685   5.783   2.330   6.310 -0.3919  1.1045 -0.3931
49916SOL    HW154686   5.694   2.305   6.284 -0.0740  0.5441 -0.9782
49916SOL    HW254687   5.784   2.425   6.303 -1.2514  1.2034  0.6335
49917SOL     OW54688   2.109   0.513   0.617 -0.4806  0.3892  0.2197
49917SOL    HW154689   2.047   0.441   0.609  1.1791 -0.9031 -2.2307
49917SOL    HW254690   2.077   0.578   0.554  0.3585 -0.1189 -0.7687
49918SOL     OW54691  10.341   0.562   2.372 -0.4434 -0.3645 -0.5698
49918SOL    HW154692  10.366   0.493   2.433  0.0772 -0.0515 -0.4289
49918SOL    HW254693  10.290   0.623   2.425  1.7526  0.9845  0.0755
49919SOL     OW54694  10.439   6.943   5.869  0.7143  0.2041  0.6143
49919SOL    HW154695  10.347   6.917   5.858  1.0791 -0.2499 -2.0154
49919SOL    HW254696  10.488   6.877   5.820  2.1835  2.1729 -0.7091
49920SOL     OW54697   8.694   8.675   6.779  0.7742  0.4749  0.2401
49920SOL    HW154698   8.653   8.761   6.792 -2.1707 -0.9661  1.3176
49920SOL    HW254699   8.734   8.655   6.863  0.7989  0.4798  0.2295
49921SOL     OW54700   1.724   3.751  10.337 -0.4488 -1.1464 -0.2711
49921SOL    HW154701   1.737   3.831  10.287  0.4915 -1.0427  0.1140
49921SOL    HW254702   1.638   3.719  10.310 -0.2916 -0.6818 -1.3516
49922SOL     OW54703   9.224   7.767   4.959  0.0107  0.5308 -0.1206
49922SOL    HW154704   9.261   7.772   4.871 -0.1382  2.0631 -0.1128
49922SOL    HW254705   9.134   7.735   4.945 -0.4298  1.9516 -0.6668
49923SOL     OW54706   0.932   2.884  10.330 -0.1427 -0.1827  0.3493
49923SOL    HW154707   1.021   2.889  10.364 -0.4620  0.0491  1.2030
49923SOL    HW254708   0.923   2.794  10.300  0.5529 -0.0544 -0.2584
49924SOL     OW54709   1.165   6.595   7.459  0.1249 -0.1843 -0.1126
49924SOL    HW154710   1.080   6.638   7.455  0.0069 -0.4980 -1.8773
49924SOL    HW254711   1.216   6.637   7.389  0.7908 -1.2573 -0.2914
49925SOL     OW54712   2.140  11.203   3.545  0.0320 -0.0921 -0.4158
49925SOL    HW154713   2.205  11.169   3.484  0.5063 -0.0315  0.0471
49925SOL    HW254714   2.153  11.298   3.544  1.7773 -0.2272  1.6420
49926SOL     OW54715   3.163   9.225   5.000 -0.1761 -0.5339 -0.0100
49926SOL    HW154716   3.169   9.180   5.085 -3.1423 -1.6044 -0.2671
49926SOL    HW254717   3.083   9.276   5.006 -0.3601 -0.5125 -2.1078
49927SOL     OW54718   9.183   7.380   0.549 -0.2589  0.2868 -0.0127
49927SOL    HW154719   9.096   7.410   0.521  0.4722  1.6692 -0.8844
49927SOL    HW254720   9.211   7.444   0.614 -0.7343 -1.3332  1.8949
49928SOL     OW54721  11.065   4.953   9.955 -0.0125  0.0387  0.5062
49928SOL    HW154722  11.146   4.931   9.908 -1.2412  2.8899 -3.4027
49928SOL    HW254723  11.008   4.878   9.941  0.0184  0.3980 -1.8528
49929SOL     OW54724  10.387   3.318   2.351 -0.1274  0.1959  0.0784
49929SOL    HW154725  10.332   3.381   2.399  0.8100  1.5171 -0.5292
49929SOL    HW254726  10.394   3.243   2.410 -1.6200  0.4638  0.6547
49930SOL     OW54727   5.968   3.925   2.720  0.0812 -0.5210  0.3135
49930SOL    HW154728   5.984   3.903   2.628  1.8791 -1.6153  0.8376
49930SOL    HW254729   6.015   4.007   2.733 -1.0380  0.1981  0.0455
49931SOL     OW54730   8.382   0.561   9.285 -0.3626  0.7523  0.3227
49931SOL    HW154731   8.352   0.475   9.316 -1.6741  1.1807  0.2968
49931SOL    HW254732   8.472   0.546   9.259 -0.2342 -0.3743  1.3153
49932SOL     OW54733   7.194  11.691   2.579  0.6497  0.0991 -0.2676
49932SOL    HW154734   7.112  11.648   2.604 -0.1812  0.9073 -1.5328
49932SOL    HW254735   7.262  11.639   2.623 -0.5056 -0.7252  0.6131
49933SOL     OW54736   7.512   6.527   9.377 -0.5365  0.3634 -0.7264
49933SOL    HW154737   7.485   6.518   9.285 -0.1899 -0.6716 -0.7305
49933SOL    HW254738   7.545   6.617   9.383 -3.8004  1.6984 -0.7621
49934SOL     OW54739   1.263   5.187  11.273  0.2319  0.1635  0.3313
49934SOL    HW154740   1.256   5.271  11.319 -0.8778 -0.2483  0.9345
49934SOL    HW254741   1.282   5.211  11.182  0.1532  1.0557  0.5450
49935SOL     OW54742   7.690   0.723   4.431  0.3138  0.1060 -0.1751
49935SOL    HW154743   7.762   0.753   4.375  0.6267  1.4044  0.8525
49935SOL    HW254744   7.661   0.641   4.391  1.2630  0.3995 -1.5672
49936SOL     OW54745   5.517   0.567   8.615  0.2803 -0.0552  0.3751
49936SOL    HW154746   5.497   0.656   8.646  0.1530 -0.0592  0.3075
49936SOL    HW254747   5.532   0.516   8.694 -1.8746 -0.5155  0.5488
49937SOL     OW54748   8.911   3.136   2.194 -0.2583  0.4258  0.0227
49937SOL    HW154749   8.961   3.217   2.184 -1.5050  1.1788 -0.4127
49937SOL    HW254750   8.821   3.166   2.208 -1.0725 -0.8780 -1.9925
49938SOL     OW54751   2.407   7.835   5.025 -0.1701  0.0922  0.3663
49938SOL    HW154752   2.417   7.743   5.048 -1.8574 -0.4821 -1.0060
49938SOL    HW254753   2.327   7.863   5.070 -0.3131  0.5443 -0.1467
49939SOL     OW54754   1.406   5.229   5.372  0.1935 -0.1343 -0.2895
49939SOL    HW154755   1.368   5.315   5.350  1.2551  0.3163 -0.4375
49939SOL    HW254756   1.411   5.229   5.467  3.4651  1.5168 -0.3196
49940SOL     OW54757   2.908   2.115   3.341 -0.2827 -0.3055  0.4211
49940SOL    HW154758   2.855   2.151   3.412  0.5898  1.3220  0.2711
49940SOL    HW254759   2.845   2.065   3.288 -1.7462  1.6640  0.1803
49941SOL     OW54760   8.358  10.984   2.337 -0.1837  0.6715  0.1243
49941SOL    HW154761   8.401  11.013   2.257  0.4868 -0.1757  0.1574
49941SOL    HW254762   8.283  11.043   2.348 -1.5253 -0.4692 -2.2609
49942SOL     OW54763   5.562   8.628   1.186  0.1267 -0.3059  0.1846
49942SOL    HW154764   5.609   8.672   1.115 -0.1504  2.1781  1.4429
49942SOL    HW254765   5.621   8.558   1.214  0.9192 -0.3370 -1.4226
49943SOL     OW54766   4.234   4.184  11.657 -0.1473  0.1591  0.6008
49943SOL    HW154767   4.315   4.207  11.703  0.5920  1.2580 -1.1241
49943SOL    HW254768   4.251   4.097  11.620 -0.5469 -0.4940  1.9034
49944SOL     OW54769   6.146   7.548  10.163  0.3736  0.5727  0.3110
49944SOL    HW154770   6.053   7.541  10.187  0.5751  0.7966  1.1925
49944SOL    HW254771   6.154   7.634  10.122  0.2670  0.7084  0.5752
49945SOL     OW54772   1.231   6.890   1.836 -0.1084  0.1173  0.6019
49945SOL    HW154773   1.248   6.978   1.803  0.9107  0.2823  1.5291
49945SOL    HW254774   1.268   6.832   1.770 -1.0639  0.3573 -0.1699
49946SOL     OW54775   5.111   9.488  10.016  0.7037 -0.4272 -0.0026
49946SOL    HW154776   5.068   9.407  10.043 -1.6431  0.8170  0.2948
49946SOL    HW254777   5.065   9.514   9.937  1.2293  0.7423  0.0583
49947SOL     OW54778   6.269   5.727   5.764 -0.6044 -0.0142 -0.3354
49947SOL    HW154779   6.229   5.653   5.718 -1.5455  1.1660 -1.5058
49947SOL    HW254780   6.195   5.779   5.794  0.0389  0.0689  1.1873
49948SOL     OW54781  11.238   5.115   1.142 -0.0681  0.2043 -0.4027
49948SOL    HW154782  11.317   5.139   1.094 -0.3889 -1.2855 -1.7858
49948SOL    HW254783  11.181   5.192   1.134  1.4106  1.5450  1.1671
49949SOL     OW54784  11.424   7.676   5.225  0.0636 -0.7788  0.7292
49949SOL    HW154785  11.457   7.764   5.243  0.7408 -1.0060  0.6289
49949SOL    HW254786  11.335   7.676   5.260 -0.7093  0.5938 -1.0525
49950SOL     OW54787   1.796   6.622   2.852  0.0076  0.4723 -0.1303
49950SOL    HW154788   1.717   6.588   2.894  0.4856  0.1640  0.5310
49950SOL    HW254789   1.763   6.679   2.782 -0.7961  0.1298 -0.0432
49951SOL     OW54790   1.008   3.105   7.227  1.1320 -0.6951 -0.2609
49951SOL    HW154791   1.093   3.149   7.225  0.2556  1.0988  0.0622
49951SOL    HW254792   1.014   3.043   7.300  0.9093  2.2119  2.4337
49952SOL     OW54793   2.021   2.494   4.615 -0.5503 -0.3715 -0.0375
49952SOL    HW154794   2.020   2.440   4.537 -0.4917  2.2321 -1.9849
49952SOL    HW254795   1.931   2.526   4.623 -0.5627 -0.6252  0.9964
49953SOL     OW54796   4.661   1.685   6.955 -0.1580 -0.2908 -0.3780
49953SOL    HW154797   4.633   1.728   6.874 -0.1236  0.1863 -0.1372
49953SOL    HW254798   4.582   1.641   6.987 -0.1832 -0.4442 -0.6434
49954SOL     OW54799   1.969   1.254   2.020  0.2142  0.3120 -0.0462
49954SOL    HW154800   2.010   1.211   1.944  1.4369 -1.6611  1.6348
49954SOL    HW254801   1.877   1.232   2.012  0.4808 -0.7308 -0.4426
49955SOL     OW54802   2.493   3.199  10.661 -0.1988 -0.1130 -0.2258
49955SOL    HW154803   2.511   3.238  10.575  0.1054  0.0993 -0.0676
49955SOL    HW254804   2.547   3.120  10.663  0.9873  0.6764  0.3651
49956SOL     OW54805   7.733   5.962  10.994  0.3912  0.8088  0.2376
49956SOL    HW154806   7.749   5.999  10.907 -0.2512  1.7591  0.5079
49956SOL    HW254807   7.744   6.036  11.054  0.1783  0.3111  0.9076
49957SOL     OW54808  11.388   2.848   2.812  0.6191  0.5868 -0.4251
49957SOL    HW154809  11.483   2.842   2.821  0.7870  1.1679 -1.5755
49957SOL    HW254810  11.367   2.786   2.742 -0.1653 -1.2715  1.3753
49958SOL     OW54811   5.497   0.827   9.344  0.3701 -0.0282 -0.7189
49958SOL    HW154812   5.412   0.841   9.302  0.1980 -0.9295 -0.6913
49958SOL    HW254813   5.547   0.907   9.325 -0.2104  0.1843 -1.3885
49959SOL     OW54814   7.401   4.695  10.297 -0.3129  0.3721 -0.0590
49959SOL    HW154815   7.493   4.718  10.312 -0.4222  0.8423 -0.0859
49959SOL    HW254816   7.376   4.644  10.374 -0.1179  0.5032  0.0931
49960SOL     OW54817   8.200  11.534  11.538 -0.3380 -0.0448 -0.3305
49960SOL    HW154818   8.111  11.547  11.569  0.5056  1.0847  1.8047
49960SOL    HW254819   8.211  11.601  11.470 -0.8713  0.3035 -0.0810
49961SOL     OW54820   2.685  10.650   7.091  0.9545  0.2871 -0.1166
49961SOL    HW154821   2.644  10.641   7.177  2.3371 -2.4688  0.3591
49961SOL    HW254822   2.760  10.708   7.106  2.3807 -1.7477  1.0884
49962SOL     OW54823   9.861   9.190   7.526  0.0663  0.1703  0.4895
49962SOL    HW154824   9.899   9.240   7.454 -1.4022  1.3091  0.4553
49962SOL    HW254825   9.871   9.099   7.499 -1.4578  0.5753 -1.7334
49963SOL     OW54826   5.366   3.303   9.452  0.2744  0.0116 -0.8235
49963SOL    HW154827   5.451   3.338   9.477 -0.2631  1.2028 -0.6115
49963SOL    HW254828   5.376   3.208   9.461  1.4600  0.1561 -0.4412
49964SOL     OW54829   5.295   7.335   0.386 -0.0331  0.0077  0.3667
49964SOL    HW154830   5.231   7.300   0.323  0.9623 -2.3606  0.5543
49964SOL    HW254831   5.380   7.324   0.342  0.3922  1.7713  0.6915
49965SOL     OW54832   3.746   0.394   7.427 -0.8093 -0.1271  0.2100
49965SOL    HW154833   3.696   0.473   7.446  0.2749  0.1388  2.1799
49965SOL    HW254834   3.837   0.421   7.433 -0.4069 -1.2395 -0.4954
49966SOL     OW54835   7.918   3.726   9.440 -0.0655  0.5529 -0.6700
49966SOL    HW154836   7.896   3.808   9.484 -0.5552 -0.0003  0.1661
49966SOL    HW254837   7.834   3.680   9.432  0.2221  0.0712 -0.9790
49967SOL     OW54838   7.864   1.485   4.284  0.9023 -0.1817 -0.0290
49967SOL    HW154839   7.900   1.473   4.371 -0.1863 -0.1859  0.4360
49967SOL    HW254840   7.858   1.397   4.247 -1.7909 -0.6068  1.2149
49968SOL     OW54841  10.918   4.261   6.125  0.1683  0.0576 -0.3568
49968SOL    HW154842  10.885   4.188   6.178  1.2575 -0.4144 -0.2955
49968SOL    HW254843  10.929   4.224   6.037  0.9449  0.0681 -0.2726
49969SOL     OW54844   8.103   3.381   6.250 -0.0202  0.0396  0.8787
49969SOL    HW154845   8.084   3.454   6.309 -1.9712 -0.1718  0.5860
49969SOL    HW254846   8.078   3.303   6.299 -1.0946 -0.1754  0.0499
49970SOL     OW54847   0.890  10.894  11.623  0.0446  0.2756  0.0821
49970SOL    HW154848   0.862  10.890  11.531  0.4476 -1.1253 -0.0010
49970SOL    HW254849   0.978  10.856  11.623  0.2235  0.6632  0.9905
49971SOL     OW54850   3.480   4.814   8.163 -0.2151  0.0065  0.2807
49971SOL    HW154851   3.560   4.770   8.134 -0.6776 -0.2957 -0.5694
49971SOL    HW254852   3.412   4.784   8.102 -0.8750  0.6482  0.6782
49972SOL     OW54853   4.746   3.938   4.376  0.1010  0.7997 -0.5573
49972SOL    HW154854   4.671   3.984   4.337  0.6993  2.1884 -0.1507
49972SOL    HW254855   4.727   3.845   4.363 -1.0206  1.1578 -1.6950
49973SOL     OW54856   7.853   6.103  10.261  0.1224 -0.4721  0.0952
49973SOL    HW154857   7.804   6.140  10.188 -0.6266  1.2626  1.4098
49973SOL    HW254858   7.924   6.165  10.277 -0.3150 -0.2903  1.4688
49974SOL     OW54859  10.363   5.143   6.267  0.3828 -0.1634 -0.0766
49974SOL    HW154860  10.295   5.207   6.286  0.1647 -0.9275  1.9429
49974SOL    HW254861  10.323   5.058   6.287  1.0426 -0.8761 -1.5706
49975SOL     OW54862   6.898  10.026   1.439  0.4084  0.8197  0.2059
49975SOL    HW154863   6.994  10.017   1.441  0.6409  2.3742 -1.4137
49975SOL    HW254864   6.872  10.024   1.531  2.0238  0.6495  0.6968
49976SOL     OW54865   5.534   6.029   4.919 -0.2618 -0.3392 -0.3635
49976SOL    HW154866   5.518   6.118   4.888 -0.4892 -0.2347  0.0416
49976SOL    HW254867   5.537   6.037   5.015 -0.4667 -0.7945 -0.3141
49977SOL     OW54868   8.702   3.890   3.633  0.1436  0.1264  0.4462
49977SOL    HW154869   8.716   3.917   3.542 -0.3856  0.1281  0.3655
49977SOL    HW254870   8.647   3.958   3.671  2.0264  1.2032  1.3609
49978SOL     OW54871   1.786   3.406   5.692  0.2110 -0.3700 -0.0581
49978SOL    HW154872   1.844   3.366   5.628 -2.2608 -1.8665 -1.5458
49978SOL    HW254873   1.829   3.488   5.717  1.1371  0.5498 -4.0326
49979SOL     OW54874   6.836   5.847   6.197 -0.2684  0.3915  0.2973
49979SOL    HW154875   6.786   5.765   6.190 -0.7730  0.4444  2.4959
49979SOL    HW254876   6.809   5.884   6.281 -0.0236  2.8189 -0.6173
49980SOL     OW54877   5.533   3.385   3.076 -0.1339 -0.4680  0.1135
49980SOL    HW154878   5.548   3.418   2.988  1.4410  0.5559  0.7254
49980SOL    HW254879   5.505   3.461   3.127 -1.1561 -1.0734  0.5018
49981SOL     OW54880   7.537   7.132   8.020 -0.6736 -0.9242  0.7637
49981SOL    HW154881   7.548   7.095   7.932 -1.3698  0.0727  0.2420
49981SOL    HW254882   7.604   7.200   8.026 -1.4476 -0.1146  0.4999
49982SOL     OW54883   7.585   5.781   0.971  0.1783  0.0322  0.3837
49982SOL    HW154884   7.566   5.813   1.059  1.5795  0.5217  0.5250
49982SOL    HW254885   7.505   5.799   0.921 -0.7912 -0.6256  1.6316
49983SOL     OW54886   3.376   3.740   9.001 -0.3921  0.4895 -0.2157
49983SOL    HW154887   3.400   3.670   9.062 -1.8458  0.9460  0.9608
49983SOL    HW254888   3.444   3.806   9.012  0.5420 -0.3596 -0.7242
49984SOL     OW54889  10.334   7.259   7.182 -1.0876 -0.3634 -0.1181
49984SOL    HW154890  10.422   7.257   7.146 -1.2214  2.0575 -0.7220
49984SOL    HW254891  10.346   7.251   7.277  0.0457  2.3618  0.0532
49985SOL     OW54892   6.425  11.108   4.197 -0.0987  0.4381 -0.4253
49985SOL    HW154893   6.438  11.202   4.185  0.3941  0.3249 -0.7986
49985SOL    HW254894   6.372  11.080   4.123  0.4600  0.2743 -0.7699
49986SOL     OW54895  11.662   9.110   1.956 -0.2657  0.0103  0.1120
49986SOL    HW154896  11.639   9.023   1.924  0.0019  0.2041 -0.6222
49986SOL    HW254897  11.579   9.156   1.964 -0.2260  0.5766 -2.1384
49987SOL     OW54898   0.209   8.130   5.271 -0.3625  0.1108 -0.5413
49987SOL    HW154899   0.285   8.073   5.280  0.0279  0.2730 -2.4081
49987SOL    HW254900   0.188   8.157   5.360  2.3642  0.8629 -0.0555
49988SOL     OW54901   7.961   2.061   5.659 -0.1561  0.1616 -0.1720
49988SOL    HW154902   7.890   2.108   5.703  0.0916  0.1955  0.1947
49988SOL    HW254903   7.939   1.969   5.670 -1.1241  0.1906 -1.6869
49989SOL     OW54904   1.941   8.602   6.850 -0.1941 -0.0338 -0.4426
49989SOL    HW154905   1.957   8.690   6.883  0.9940 -0.2780 -0.3381
49989SOL    HW254906   1.926   8.549   6.929  3.3829 -0.7723 -0.0844
49990SOL     OW54907   3.161   8.478   3.035 -0.1068  0.2736 -0.2367
49990SOL    HW154908   3.102   8.402   3.030  3.3785 -2.6544 -0.6523
49990SOL    HW254909   3.185   8.484   3.127 -1.3253  1.8041  0.0260
49991SOL     OW54910  10.178   5.152   7.544 -0.3178  0.0548 -0.7935
49991SOL    HW154911  10.123   5.147   7.622 -1.2595 -1.8135 -1.4955
49991SOL    HW254912  10.183   5.245   7.524  1.7922  0.8770  2.6852
49992SOL     OW54913   5.474   2.625   4.944 -0.1979 -0.1369 -0.0597
49992SOL    HW154914   5.480   2.720   4.949  1.3752 -0.1024 -1.7915
49992SOL    HW254915   5.544   2.594   5.001 -0.0606 -0.2385 -0.2832
49993SOL     OW54916   0.886   5.031   8.014 -0.3991 -0.0054  0.2590
49993SOL    HW154917   0.852   4.994   8.095  1.8781 -0.6014  1.0215
49993SOL    HW254918   0.833   5.110   7.999 -0.6927  0.2746  2.4921
49994SOL     OW54919   0.481  10.451   7.343  0.4848 -0.0900 -0.7219
49994SOL    HW154920   0.503  10.413   7.428 -1.1215  1.0801  0.2675
49994SOL    HW254921   0.406  10.399   7.312  0.2516  0.2904 -0.8064
49995SOL     OW54922   4.228   4.531   2.285 -0.2847 -0.2607  1.0749
49995SOL    HW154923   4.296   4.569   2.342  0.4820  1.7538 -1.0344
49995SOL    HW254924   4.166   4.603   2.271 -1.1083 -1.0980  0.3721
49996SOL     OW54925  11.635   9.403   3.414  0.0883 -0.6092  0.1634
49996SOL    HW154926  11.684   9.481   3.390 -1.1367 -0.2922 -1.4542
49996SOL    HW254927  11.606   9.420   3.504 -0.5161  1.0070 -0.3024
49997SOL     OW54928  11.130   3.735  11.438  0.2541  0.3943 -0.0418
49997SOL    HW154929  11.096   3.652  11.404 -0.4542  0.4993  0.3846
49997SOL    HW254930  11.213   3.712  11.480 -0.1119 -0.1669  0.3864
49998SOL     OW54931   0.969   5.854   5.317 -0.2275  0.0171 -0.1194
49998SOL    HW154932   1.012   5.876   5.400 -1.2157 -1.5376  0.8491
49998SOL    HW254933   0.876   5.863   5.335 -0.4604  2.6279 -1.9913
49999SOL     OW54934   0.192   6.406  10.927  0.2421  0.1506  0.1884
49999SOL    HW154935   0.153   6.458  10.856 -2.6325 -3.2868 -1.0873
49999SOL    HW254936   0.152   6.440  11.007 -0.7473  0.6189 -0.4807
50000SOL     OW54937   0.508   7.011   8.137 -0.1689  0.5331 -0.3044
50000SOL    HW154938   0.425   7.006   8.090  1.1306 -1.3766 -2.6204
50000SOL    HW254939   0.565   7.063   8.080  0.6304  0.6968  0.6145
50001SOL     OW54940   7.863   9.310   9.490 -0.1367 -0.1056 -0.1925
50001SOL    HW154941   7.792   9.369   9.464  1.3930  2.2193  0.5121
50001SOL    HW254942   7.933   9.369   9.518  1.2761 -2.3194  1.2420
50002SOL     OW54943   8.587   2.784   0.934  0.3728  0.3183  0.1805
50002SOL    HW154944   8.569   2.875   0.958 -1.1484 -0.2588  1.4361
50002SOL    HW254945   8.657   2.757   0.993 -1.1070 -0.1111  1.8353
50003SOL     OW54946   4.799   4.261  10.450 -0.1492 -0.0365 -0.2735
50003SOL    HW154947   4.829   4.181  10.492  0.6689  0.7830  0.7879
50003SOL    HW254948   4.746   4.305  10.517 -1.9937 -0.4391 -1.3992
50004SOL     OW54949   4.615   1.383   4.613  0.2548 -0.4699 -0.1536
50004SOL    HW154950   4.677   1.379   4.686  0.6685  2.1036 -0.2507
50004SOL    HW254951   4.530   1.399   4.655  0.1904 -0.8229 -0.1513
50005SOL     OW54952   4.927   1.474   1.641 -0.1184 -0.2243 -0.5250
50005SOL    HW154953   4.836   1.497   1.659 -0.5338 -0.8122 -1.7647
50005SOL    HW254954   4.958   1.432   1.721 -0.6886  0.6939  0.1870
50006SOL     OW54955   5.926   2.249   9.201 -0.0238  0.2195 -0.1124
50006SOL    HW154956   5.917   2.172   9.257 -1.0772  1.0403  0.8879
50006SOL    HW254957   6.018   2.273   9.209  0.3480 -0.9833 -0.5332
50007SOL     OW54958   8.222   9.701   4.732 -0.0115  0.3608 -0.3412
50007SOL    HW154959   8.230   9.776   4.674  1.1711  1.9635  1.7562
50007SOL    HW254960   8.130   9.703   4.761  0.1222  1.2792  0.0341
50008SOL     OW54961   9.649   4.635   7.751 -0.2069 -0.1697 -0.2149
50008SOL    HW154962   9.645   4.620   7.657 -0.9212 -1.0294 -0.0626
50008SOL    HW254963   9.583   4.576   7.788 -1.2412  1.4462  0.6726
50009SOL     OW54964   3.444  10.608   8.478 -0.2405  0.2943  0.1478
50009SOL    HW154965   3.449  10.699   8.450  1.4704  0.6476  1.4161
50009SOL    HW254966   3.353  10.582   8.462 -0.0936  1.2772 -2.9438
50010SOL     OW54967   2.766   0.638   3.732 -0.6037 -0.0034 -0.2831
50010SOL    HW154968   2.674   0.635   3.758 -0.7715 -0.0127 -0.8565
50010SOL    HW254969   2.813   0.656   3.813 -0.8888 -2.2993  0.4622
50011SOL     OW54970   7.710   5.715   7.125  0.3777  0.4185  0.6192
50011SOL    HW154971   7.782   5.714   7.061  0.0245  0.0390  0.2178
50011SOL    HW254972   7.663   5.796   7.106 -0.3476 -0.2025 -0.3250
50012SOL     OW54973  10.230   2.425  10.453 -0.4327 -0.0224  0.0486
50012SOL    HW154974  10.292   2.494  10.430 -0.0081 -0.7400 -1.0096
50012SOL    HW254975  10.202   2.447  10.542 -0.6997  1.7865 -0.4487
50013SOL     OW54976   1.696   6.979  10.048 -0.1166  0.5674 -0.7274
50013SOL    HW154977   1.709   6.884  10.046 -1.4653  0.3070  0.8384
50013SOL    HW254978   1.625   6.995   9.987  0.9856  0.7791 -2.0061
50014SOL     OW54979   7.397   8.455   8.842  0.8034 -0.4245 -0.6829
50014SOL    HW154980   7.424   8.466   8.751  0.5664  0.6224 -0.6279
50014SOL    HW254981   7.472   8.410   8.883  0.6433 -1.5060 -1.5263
50015SOL     OW54982   2.706   1.949   3.202  0.3785  0.4299  0.5333
50015SOL    HW154983   2.637   1.895   3.164  0.2506  0.6000  0.5202
50015SOL    HW254984   2.674   2.039   3.192 -0.1571  0.4255  1.9966
50016SOL     OW54985   3.891   3.582   6.914  0.1354  0.4990  0.0801
50016SOL    HW154986   3.874   3.506   6.858  0.6849  0.9322 -0.6892
50016SOL    HW254987   3.923   3.649   6.854 -0.3011  1.3308  0.7543
50017SOL     OW54988   4.424   2.876   8.959 -0.0177 -0.3296 -0.0703
50017SOL    HW154989   4.504   2.823   8.954  0.6555  0.7284 -0.8049
50017SOL    HW254990   4.396   2.885   8.868  0.1495  0.9748 -0.0013
50018SOL     OW54991   6.251   6.424   3.283 -0.4232  0.5581  0.1844
50018SOL    HW154992   6.346   6.430   3.278 -0.3051 -1.0696 -0.3547
50018SOL    HW254993   6.219   6.483   3.215  0.2241  0.6087 -0.0797
50019SOL     OW54994   4.893  10.635  10.641 -0.5284 -0.6197 -0.2109
50019SOL    HW154995   4.967  10.633  10.580  0.1580 -1.1680  0.6050
50019SOL    HW254996   4.829  10.692  10.599  0.3570 -0.1262 -0.9487
50020SOL     OW54997   1.923   7.512   9.675  0.2607 -0.1947 -0.1473
50020SOL    HW154998   1.898   7.588   9.623  1.4280  1.9736  2.1934
50020SOL    HW254999   1.987   7.465   9.621 -0.6363  0.3394 -1.7321
50021SOL     OW55000   5.531   0.273   3.869  0.1163 -0.6861 -0.2303
50021SOL    HW155001   5.508   0.180   3.870 -1.3912 -0.3964  2.7583
50021SOL    HW255002   5.563   0.291   3.957  0.9242  1.5498 -0.9047
50022SOL     OW55003   0.811   2.314   4.716  0.1556 -0.1109 -0.1455
50022SOL    HW155004   0.787   2.370   4.642 -0.2684 -0.0547  0.0303
50022SOL    HW255005   0.854   2.238   4.676 -1.3152 -0.7558 -0.5727
50023SOL     OW55006   4.480   4.901   5.431 -0.3355  0.1367 -0.2900
50023SOL    HW155007   4.547   4.909   5.363 -0.9926 -0.8685 -1.0906
50023SOL    HW255008   4.407   4.857   5.388 -1.0060  0.0056  0.9203
50024SOL     OW55009   0.143   8.464   0.951  0.2937 -0.1285  0.8252
50024SOL    HW155010   0.204   8.439   0.882 -0.5788 -0.1459  0.0491
50024SOL    HW255011   0.114   8.381   0.989 -0.0455 -0.1652  0.4894
50025SOL     OW55012  11.519   8.530  10.723  0.3273  0.7638 -0.5074
50025SOL    HW155013  11.478   8.446  10.703 -1.7071  1.8425 -1.1696
50025SOL    HW255014  11.613   8.514  10.714  0.0160 -1.4738 -0.3830
50026SOL     OW55015   9.710   4.295   3.272  0.3850 -0.2074 -0.0325
50026SOL    HW155016   9.643   4.282   3.340  0.7179  0.0675  0.3513
50026SOL    HW255017   9.786   4.245   3.304 -0.5066 -2.9451 -1.8224
50027SOL     OW55018   0.463   3.346  10.742 -0.4112 -0.2847 -0.1629
50027SOL    HW155019   0.488   3.438  10.746 -0.1519 -0.3967  1.0542
50027SOL    HW255020   0.467   3.316  10.832  2.2307 -2.1877 -0.7675
50028SOL     OW55021   9.164   4.355   0.917  0.0218 -0.0467 -0.1860
50028SOL    HW155022   9.130   4.437   0.882 -2.2762 -0.0473  1.8185
50028SOL    HW255023   9.189   4.304   0.839 -1.8417  1.1609 -1.6539
50029SOL     OW55024   7.290   4.096   3.816  0.2048 -0.1719 -0.0261
50029SOL    HW155025   7.345   4.153   3.870  2.1891 -0.0654 -1.9891
50029SOL    HW255026   7.299   4.009   3.856 -1.1659  0.4730  1.7708
50030SOL     OW55027   5.739   2.449  10.154 -0.1654 -0.1528  0.5591
50030SOL    HW155028   5.708   2.532  10.117  0.5069  0.1783  0.7136
50030SOL    HW255029   5.666   2.389  10.142 -2.0487  1.3030  3.4061
50031SOL     OW55030   3.479   6.547   1.050  0.1909  0.5287 -0.5296
50031SOL    HW155031   3.474   6.633   1.092  0.9145  0.0553  0.5812
50031SOL    HW255032   3.573   6.532   1.037  0.3020 -1.0731  1.4944
50032SOL     OW55033   4.973   3.223   4.262  0.5734  0.1340 -0.3838
50032SOL    HW155034   4.966   3.132   4.291 -1.6028  0.5835  0.7278
50032SOL    HW255035   4.955   3.220   4.169 -3.0121 -0.3047  0.1949
50033SOL     OW55036   5.619   1.469   4.841  0.4807  0.5590  0.0973
50033SOL    HW155037   5.689   1.470   4.906  1.3065  0.6236 -0.7716
50033SOL    HW255038   5.630   1.385   4.796  0.8725  1.1541 -0.9531
50034SOL     OW55039   4.394   6.973   5.687  0.5226 -0.2648  0.0022
50034SOL    HW155040   4.317   7.027   5.706 -0.6216 -1.9902  0.5408
50034SOL    HW255041   4.441   6.969   5.770  0.8040  0.1729 -0.1315
50035SOL     OW55042   9.303   3.110   0.048  0.6258 -0.0636 -0.7837
50035SOL    HW155043   9.228   3.169   0.054 -1.2725 -2.1944 -2.0995
50035SOL    HW255044   9.343   3.131  -0.037  0.2475 -0.3121 -1.0264
50036SOL     OW55045   8.552  10.601   9.780  0.4291 -0.3125  0.4690
50036SOL    HW155046   8.546  10.521   9.832 -2.2744 -0.5665 -0.0660
50036SOL    HW255047   8.482  10.657   9.814  1.7956  1.5603  0.3520
50037SOL     OW55048   9.754  10.031   9.389 -0.0416 -0.2315  0.1085
50037SOL    HW155049   9.760   9.938   9.371 -0.3219 -0.5476  1.5283
50037SOL    HW255050   9.754  10.037   9.485  0.5682  1.2638  0.0402
50038SOL     OW55051   7.025   0.750   3.238 -0.4855 -0.5077 -0.3011
50038SOL    HW155052   6.929   0.750   3.241 -0.5085 -1.0935 -0.8569
50038SOL    HW255053   7.051   0.688   3.306 -0.4900 -0.1470  0.0325
50039SOL     OW55054   6.483   5.835  10.436 -0.0535  0.3822  0.5841
50039SOL    HW155055   6.404   5.785  10.412  0.4506  0.8025 -2.2871
50039SOL    HW255056   6.452   5.925  10.446 -0.2300  0.2392  1.3982
50040SOL     OW55057  10.933   7.413  10.464 -0.2572 -0.1107 -0.6113
50040SOL    HW155058  10.897   7.420  10.552  0.8289 -2.2343  0.0758
50040SOL    HW255059  11.017   7.459  10.468 -0.7066  0.7432 -0.8667
50041SOL     OW55060  11.125  10.741  11.020  0.2076 -0.7814  0.3887
50041SOL    HW155061  11.051  10.681  11.020  0.0384 -0.6025 -0.9973
50041SOL    HW255062  11.088  10.825  10.994  0.6551 -0.3539  1.1018
50042SOL     OW55063   9.055   4.672   4.603  0.1840 -0.4382 -0.4029
50042SOL    HW155064   9.080   4.582   4.624 -1.5566 -1.1049 -1.0785
50042SOL    HW255065   9.046   4.673   4.508  1.0761  0.7060 -0.4918
50043SOL     OW55066   6.104   4.752   4.961 -0.3950 -0.4674 -0.2836
50043SOL    HW155067   6.064   4.826   4.916  0.5638  1.2667  1.5961
50043SOL    HW255068   6.091   4.770   5.054  0.6162 -2.2487  0.2473
50044SOL     OW55069   6.371   7.653   4.041 -0.0633 -0.6301  0.0952
50044SOL    HW155070   6.371   7.704   3.960  3.1786  1.9572  1.4587
50044SOL    HW255071   6.316   7.704   4.101  1.4069  0.1506  0.8303
50045SOL     OW55072   8.722   4.414   6.149  0.2460 -0.5855 -0.3631
50045SOL    HW155073   8.798   4.463   6.118  1.4062 -2.9562 -1.5534
50045SOL    HW255074   8.754   4.324   6.157 -1.7694 -1.2015  1.6676
50046SOL     OW55075   4.024   1.069   9.556  0.4731  0.1316 -0.0254
50046SOL    HW155076   4.096   1.013   9.586 -0.1909  0.6305  2.8053
50046SOL    HW255077   4.048   1.157   9.583  0.4679  0.9426 -2.4328
50047SOL     OW55078   1.359   3.175   7.342 -0.3069  0.7009  0.0034
50047SOL    HW155079   1.325   3.086   7.339  0.0840  0.5329  0.5139
50047SOL    HW255080   1.337   3.211   7.256 -0.0796 -0.0307 -0.3719
50048SOL     OW55081   2.568   1.013   1.972 -0.6278 -0.1397 -0.1458
50048SOL    HW155082   2.571   0.944   1.906 -0.4401 -0.8834  0.6173
50048SOL    HW255083   2.648   1.000   2.023 -1.9968 -1.2281  1.8299
50049SOL     OW55084   4.190   5.125  11.525  0.0668  0.0753  0.6384
50049SOL    HW155085   4.243   5.056  11.564  0.1718  0.5865  1.4101
50049SOL    HW255086   4.252   5.194  11.502  0.0293 -0.2906 -0.6074
50050SOL     OW55087   8.675   7.453   8.640 -0.1095  0.4813 -0.2634
50050SOL    HW155088   8.604   7.496   8.593 -1.4339  0.0712  1.2586
50050SOL    HW255089   8.693   7.512   8.714 -1.2041 -0.9719  1.2303
50051SOL     OW55090   4.650  11.440   8.300  0.0828 -0.3661 -0.2837
50051SOL    HW155091   4.727  11.426   8.355 -0.5126 -3.0037  0.0114
50051SOL    HW255092   4.634  11.534   8.306  2.5144  0.0740  0.6485
50052SOL     OW55093   3.198   9.936   6.805 -0.7185 -0.4740 -0.1190
50052SOL    HW155094   3.149   9.973   6.878 -0.0115  0.7971 -0.2588
50052SOL    HW255095   3.203  10.007   6.741 -0.2037 -1.1465 -0.8474
50053SOL     OW55096  11.031   6.496   1.966  0.0371 -0.0941  0.1184
50053SOL    HW155097  10.939   6.504   1.993  0.0468  0.3363  0.0241
50053SOL    HW255098  11.064   6.586   1.966  0.6001 -0.2945  0.6297
50054SOL     OW55099   9.138   6.805   4.575 -0.2271 -0.6169 -0.2629
50054SOL    HW155100   9.117   6.750   4.499  1.0711 -0.6095 -0.6473
50054SOL    HW255101   9.230   6.787   4.593 -0.4582 -0.4437  1.1806
50055SOL     OW55102   1.760  10.221   9.774 -0.3054  0.1394 -0.0124
50055SOL    HW155103   1.832  10.207   9.835  1.6433  1.1922 -1.9432
50055SOL    HW255104   1.720  10.134   9.764  1.6105 -0.7980  0.0259
50056SOL     OW55105   0.850   2.762   6.104  0.3486  0.2444  0.3354
50056SOL    HW155106   0.907   2.717   6.041 -1.7376 -1.4146 -0.5062
50056SOL    HW255107   0.793   2.817   6.050  1.9360  3.0163  1.2658
50057SOL     OW55108   6.719   6.626   2.713  0.4088  0.2971 -0.0012
50057SOL    HW155109   6.762   6.703   2.674 -0.7161  1.0002  0.1025
50057SOL    HW255110   6.680   6.659   2.794 -2.3368  0.2802 -1.2230
50058SOL     OW55111   7.670   8.491   0.383  0.1998  0.0584 -0.3052
50058SOL    HW155112   7.738   8.557   0.394  0.0304  0.3165 -0.7740
50058SOL    HW255113   7.609   8.529   0.319  0.3838 -0.7558 -0.9919
50059SOL     OW55114   4.912   3.829   0.239 -0.2677  0.1930  0.0446
50059SOL    HW155115   4.939   3.774   0.165  2.4453 -1.3436  2.0022
50059SOL    HW255116   4.994   3.854   0.282 -1.6839  1.8091  2.0137
50060SOL     OW55117   7.066   7.197   9.231  0.5135 -0.0708  0.1616
50060SOL    HW155118   7.005   7.125   9.248 -0.7442  0.8990 -0.0914
50060SOL    HW255119   7.117   7.205   9.312 -1.1309  0.4231  1.1961
50061SOL     OW55120   3.807   6.918   5.281 -0.6020  0.1066 -0.5367
50061SOL    HW155121   3.773   6.941   5.195  0.8223  1.0207 -0.8936
50061SOL    HW255122   3.737   6.868   5.322 -1.8261  0.7974 -1.7094
50062SOL     OW55123   2.797   1.015  10.183  0.1457  0.0334  0.2703
50062SOL    HW155124   2.768   0.965  10.259  0.0209 -1.5522 -0.7749
50062SOL    HW255125   2.883   0.980  10.161 -0.4755 -0.6452 -1.2359
50063SOL     OW55126  10.458   3.276  10.844 -0.1201  0.2842 -0.3438
50063SOL    HW155127  10.493   3.226  10.918  0.0916  1.5042  0.4136
50063SOL    HW255128  10.504   3.360  10.848 -0.0667  0.3524 -1.9098
50064SOL     OW55129   2.583   5.684   8.628 -0.3710 -0.1083 -0.1058
50064SOL    HW155130   2.508   5.744   8.622 -0.7451 -0.0001  3.3293
50064SOL    HW255131   2.589   5.643   8.542 -2.8433  1.6582 -1.2353
50065SOL     OW55132   7.849   6.396   7.115 -0.2718 -0.7308 -0.0309
50065SOL    HW155133   7.929   6.394   7.168  1.7280 -2.8750 -2.8404
50065SOL    HW255134   7.861   6.468   7.054 -1.1159 -0.2508  0.3492
50066SOL     OW55135   6.089   7.802   8.552  0.1907  0.5181  0.8080
50066SOL    HW155136   6.146   7.840   8.486  0.0259 -1.5922 -0.6601
50066SOL    HW255137   6.137   7.726   8.584 -0.8090  0.0481  1.2306
50067SOL     OW55138   6.345   4.213   2.710  0.5480 -0.1777  0.3152
50067SOL    HW155139   6.404   4.286   2.728  1.7355 -0.8456 -0.6836
50067SOL    HW255140   6.398   4.135   2.730 -0.9682 -0.8034  2.2087
50068SOL     OW55141   4.613   6.357   8.411  0.0137  0.2748 -0.4516
50068SOL    HW155142   4.520   6.339   8.398  0.3081 -2.1660  0.2708
50068SOL    HW255143   4.653   6.338   8.326 -0.1734  1.9039 -0.9364
50069SOL     OW55144   0.370   6.784   0.526  0.4427  0.5380 -0.2906
50069SOL    HW155145   0.320   6.740   0.458  2.9430  1.9064 -3.2264
50069SOL    HW255146   0.446   6.728   0.540 -0.6854 -0.4649  2.5965
50070SOL     OW55147   5.882   3.736   9.587 -0.2569 -0.4426 -0.3132
50070SOL    HW155148   5.966   3.761   9.548  0.2932 -0.8366  0.5903
50070SOL    HW255149   5.849   3.666   9.531  0.7572 -1.3412  0.1740
50071SOL     OW55150   9.335   5.050   6.836 -0.0317 -0.3509 -0.6590
50071SOL    HW155151   9.258   5.058   6.780 -0.2258  0.3654 -0.3051
50071SOL    HW255152   9.312   4.982   6.898 -1.3891  1.4609  0.9652
50072SOL     OW55153   3.027   9.615   3.561  0.7244  0.5040 -0.0422
50072SOL    HW155154   3.122   9.616   3.572  1.1160  0.5310 -2.7906
50072SOL    HW255155   3.000   9.706   3.573  1.2299  0.7139 -0.4800
50073SOL     OW55156   3.604   8.800   5.287 -0.7430  0.2531 -0.4425
50073SOL    HW155157   3.575   8.826   5.200 -0.8429 -0.6999 -0.7072
50073SOL    HW255158   3.527   8.812   5.343 -0.9858 -0.0973 -0.6951
50074SOL     OW55159  10.194   3.497  11.198 -0.0592 -0.0201  0.7371
50074SOL    HW155160  10.280   3.506  11.156  0.3685  2.0886  1.9101
50074SOL    HW255161  10.211   3.443  11.275 -0.6138 -2.8808 -1.0168
50075SOL     OW55162  11.468   5.970   3.097  0.3023 -0.1427  0.3771
50075SOL    HW155163  11.525   5.975   3.173  0.1921 -0.0440  0.4528
50075SOL    HW255164  11.384   6.006   3.127  0.6324  1.1440 -0.1456
50076SOL     OW55165   6.227   5.264   7.616 -0.4908 -0.2428  0.4714
50076SOL    HW155166   6.154   5.271   7.678 -0.2795  1.8811  0.5560
50076SOL    HW255167   6.297   5.315   7.656 -0.3646  1.2253 -1.4762
50077SOL     OW55168  10.159   8.641   2.145  0.9082 -0.3997  0.2181
50077SOL    HW155169  10.219   8.704   2.184  0.8725  0.6943 -1.3968
50077SOL    HW255170  10.134   8.583   2.217  1.5870  0.9285  1.5653
50078SOL     OW55171  11.056   4.649   4.853  0.2130  0.6126 -0.1902
50078SOL    HW155172  10.977   4.623   4.805 -1.2951  1.3607  1.7494
50078SOL    HW255173  11.075   4.737   4.821  0.9547  0.0052 -1.4712
50079SOL     OW55174   3.781   1.265   9.626  0.7315  0.1376  0.6826
50079SOL    HW155175   3.744   1.351   9.606  0.0311 -0.1048  0.8992
50079SOL    HW255176   3.825   1.238   9.545  1.5623  0.9967  0.8347
50080SOL     OW55177   0.985   0.201   0.985  0.0914  0.1251 -0.2674
50080SOL    HW155178   1.009   0.292   0.970  0.5578  0.2260  0.9444
50080SOL    HW255179   1.065   0.152   0.965  0.1639  0.0933  0.0855
50081SOL     OW55180   4.208   6.744   2.581 -0.6138 -0.3772  0.1925
50081SOL    HW155181   4.221   6.742   2.486 -0.3795  0.6778  0.1872
50081SOL    HW255182   4.159   6.824   2.597  0.4113  0.0923  1.0783
50082SOL     OW55183   9.987   8.795   1.354 -0.7446  0.0854  0.2862
50082SOL    HW155184   9.893   8.781   1.350 -1.3029  2.3574  2.5725
50082SOL    HW255185  10.002   8.836   1.439  2.5678 -1.7009  0.7456
50083SOL     OW55186   9.945   5.427   7.703  0.3432 -0.5797  0.8596
50083SOL    HW155187  10.003   5.387   7.768 -0.1371 -2.4167  0.2328
50083SOL    HW255188   9.908   5.504   7.747  1.0318 -1.0319  2.2881
50084SOL     OW55189   0.125   6.117   5.623 -0.5210 -0.2769 -0.2044
50084SOL    HW155190   0.101   6.083   5.709  1.1187  0.7634  0.7312
50084SOL    HW255191   0.107   6.211   5.628  0.9021  0.0415 -0.4479
50085SOL     OW55192   5.104   5.481   8.932  0.1860  0.0459  0.2613
50085SOL    HW155193   5.082   5.490   9.025 -0.2679  2.4433 -0.0162
50085SOL    HW255194   5.020   5.489   8.887  0.4180 -1.0135 -0.3840
50086SOL     OW55195   7.218   7.218   1.589 -0.3547 -0.0153 -0.1769
50086SOL    HW155196   7.204   7.125   1.573  0.0474 -0.2943  1.0255
50086SOL    HW255197   7.229   7.256   1.501 -1.4833 -0.9166 -0.7440
50087SOL     OW55198   3.687   8.330   0.987 -0.6446  0.3383  0.0688
50087SOL    HW155199   3.627   8.306   0.917 -0.4887 -0.8537  0.3237
50087SOL    HW255200   3.631   8.343   1.064 -0.6432 -0.3091  0.1903
50088SOL     OW55201  11.438   6.372   0.651  0.1019  0.6570 -0.6493
50088SOL    HW155202  11.382   6.301   0.620  0.1505  0.2151  0.2496
50088SOL    HW255203  11.377   6.436   0.689  0.2195 -0.2930  1.2761
50089SOL     OW55204   1.883   2.937   6.883 -0.0518  0.2405  0.2749
50089SOL    HW155205   1.965   2.902   6.848 -0.2873 -0.2931  0.2449
50089SOL    HW255206   1.816   2.876   6.852 -0.5229  0.9426 -0.1176
50090SOL     OW55207   5.137   2.027   3.726  0.3381  0.0370 -0.1396
50090SOL    HW155208   5.061   2.045   3.782 -0.2849 -0.7282 -0.7156
50090SOL    HW255209   5.213   2.050   3.780 -0.2104 -1.4305  1.3216
50091SOL     OW55210   6.826   5.122  11.308  0.0403  0.4204  0.0287
50091SOL    HW155211   6.806   5.162  11.393  1.2368  1.3522 -0.1000
50091SOL    HW255212   6.844   5.197  11.250  0.0798 -0.2374 -0.8283
50092SOL     OW55213   8.485   1.667   6.892  0.2598 -0.4184  0.4955
50092SOL    HW155214   8.449   1.737   6.945  0.3402 -0.2400  0.3189
50092SOL    HW255215   8.576   1.694   6.876 -0.4602  0.8910 -1.9571
50093SOL     OW55216   3.927  10.390   3.085  0.3076 -0.2521  0.3629
50093SOL    HW155217   3.898  10.321   3.144  0.2930 -1.3029 -0.8396
50093SOL    HW255218   4.014  10.414   3.116 -0.1080 -0.0710  1.4126
50094SOL     OW55219   2.736   9.784   5.422 -0.2611 -0.0467  0.2555
50094SOL    HW155220   2.783   9.761   5.342 -1.0574  0.9621 -0.5374
50094SOL    HW255221   2.753   9.878   5.434  0.0370 -0.2299  1.4183
50095SOL     OW55222   9.306   7.661  10.913 -0.1657 -0.2763 -0.1722
50095SOL    HW155223   9.294   7.568  10.899  1.6459 -0.8340  1.5553
50095SOL    HW255224   9.219   7.693  10.940 -0.9735 -1.2607 -1.4730
50096SOL     OW55225   0.062   1.783   3.274  0.1979 -0.8495 -0.1272
50096SOL    HW155226  -0.027   1.758   3.297 -0.4782  0.0171 -1.6355
50096SOL    HW255227   0.094   1.709   3.222  0.5863 -1.4125  0.8888
50097SOL     OW55228   0.147   4.660   5.105 -0.1117 -0.0804 -0.0884
50097SOL    HW155229   0.056   4.640   5.130 -1.1512  1.1352 -2.5628
50097SOL    HW255230   0.139   4.714   5.027  2.8153 -1.4028 -1.4563
50098SOL     OW55231   4.754   5.278  10.760 -0.0051 -1.1650 -1.0489
50098SOL    HW155232   4.823   5.221  10.795  0.9427 -1.1212 -2.7432
50098SOL    HW255233   4.672   5.239  10.791  0.7282 -0.7750  1.6893
50099SOL     OW55234  11.536   3.757   4.926 -0.0140 -0.1245 -0.0985
50099SOL    HW155235  11.577   3.741   4.841  0.0144 -1.4410  0.1457
50099SOL    HW255236  11.582   3.699   4.986 -0.6054  0.1714  0.6540
50100SOL     OW55237   8.303  10.968   7.822  0.0703  0.7553  0.4182
50100SOL    HW155238   8.321  10.933   7.735  0.2143  1.0636  0.3208
50100SOL    HW255239   8.281  10.892   7.876 -0.7467  0.6403 -0.0670
50101SOL     OW55240   7.154   5.938   4.763 -0.4807  0.1608 -0.0310
50101SOL    HW155241   7.200   5.994   4.701 -1.8678 -0.4928 -1.7346
50101SOL    HW255242   7.064   5.935   4.732 -1.2006 -0.3972  1.9049
50102SOL     OW55243   0.875   3.134   0.397  0.0686 -0.0994 -0.2422
50102SOL    HW155244   0.876   3.218   0.351 -1.4763  0.9793  1.5529
50102SOL    HW255245   0.867   3.068   0.328  2.4285  1.0768 -1.7809
50103SOL     OW55246   8.787  10.174   1.515 -0.5093  0.0557 -0.0519
50103SOL    HW155247   8.865  10.229   1.520 -1.5928  1.5196  2.8134
50103SOL    HW255248   8.807  10.099   1.570 -1.1247  0.4884  0.7795
50104SOL     OW55249   7.238   3.304   9.629  0.0602  0.0784  0.1873
50104SOL    HW155250   7.250   3.214   9.657 -0.4261 -0.1314 -0.2434
50104SOL    HW255251   7.326   3.337   9.612  0.3569  0.1612  1.7491
50105SOL     OW55252   0.099   9.416   2.219  0.1692  0.8765  0.0388
50105SOL    HW155253   0.048   9.436   2.141  0.5313  1.6924  0.0031
50105SOL    HW255254   0.183   9.385   2.185  0.0452  0.4665  0.1025
50106SOL     OW55255   5.938   4.683   9.142 -0.6146 -0.2315 -0.1011
50106SOL    HW155256   5.872   4.751   9.133  0.4118  0.9557  0.9225
50106SOL    HW255257   5.982   4.681   9.057 -0.1868  0.9041  0.0787
50107SOL     OW55258   7.221   3.322   2.763 -0.3531  0.6505  0.0693
50107SOL    HW155259   7.149   3.280   2.810 -0.2208  1.1297  0.7138
50107SOL    HW255260   7.194   3.321   2.671 -1.1718  0.8020  0.3035
50108SOL     OW55261   5.130   0.127   4.937  0.0544 -0.0449 -0.0856
50108SOL    HW155262   5.199   0.123   4.870 -0.4084  0.4946 -0.6032
50108SOL    HW255263   5.062   0.181   4.898 -1.7448 -2.4638 -0.5803
50109SOL     OW55264   7.805  10.334   3.382 -0.0912  0.1657  0.6611
50109SOL    HW155265   7.818  10.242   3.358 -0.6728 -0.0985  1.3369
50109SOL    HW255266   7.813  10.336   3.477  1.1053  1.0257  0.5579
50110SOL     OW55267   3.967  10.202   9.048  0.0435 -0.0742 -0.2232
50110SOL    HW155268   3.948  10.108   9.044 -0.3112  0.0131 -0.5662
50110SOL    HW255269   4.046  10.212   8.994  1.4965 -0.5309  1.6904
50111SOL     OW55270   4.744   6.177   1.389 -0.1035 -0.7889 -0.8524
50111SOL    HW155271   4.707   6.244   1.446  1.6677  0.0045 -0.5769
50111SOL    HW255272   4.731   6.210   1.300 -0.8782 -0.9721 -0.8123
50112SOL     OW55273   6.347   5.392   2.996 -0.0304 -0.2589  0.1598
50112SOL    HW155274   6.345   5.298   2.976 -0.3075  0.0408 -1.3804
50112SOL    HW255275   6.438   5.410   3.016  0.0620 -0.8332  0.2717
50113SOL     OW55276   0.497  10.678   8.413  0.0762  0.1571  0.1968
50113SOL    HW155277   0.491  10.618   8.488  1.1350 -0.1797  0.0278
50113SOL    HW255278   0.571  10.736   8.435 -0.3720  0.8376 -0.0503
50114SOL     OW55279   6.460   4.058   5.737  0.5533 -0.1373 -1.0640
50114SOL    HW155280   6.408   4.017   5.668 -0.4528  1.3320 -1.2201
50114SOL    HW255281   6.490   4.140   5.700 -0.3148  0.8615  0.3260
50115SOL     OW55282  10.570   3.395   3.852  0.1023  0.1513  0.0079
50115SOL    HW155283  10.572   3.412   3.946  2.5632 -0.5155  0.1445
50115SOL    HW255284  10.541   3.305   3.845  0.3668  0.0506  0.1753
50116SOL     OW55285   1.468   9.805   1.864 -0.2293  0.1991 -0.1300
50116SOL    HW155286   1.498   9.720   1.897  1.3045  0.6550 -0.2926
50116SOL    HW255287   1.381   9.816   1.903  0.7565 -0.1147  2.3305
50117SOL     OW55288   0.336   4.311   2.213 -0.1273 -0.5127  0.0431
50117SOL    HW155289   0.301   4.325   2.125  0.0469  0.8023  0.1748
50117SOL    HW255290   0.272   4.351   2.272  1.3915  1.6730  0.3086
50118SOL     OW55291   4.467   6.007   3.769 -0.1086 -0.1056  0.4082
50118SOL    HW155292   4.535   6.060   3.729  0.2986 -0.5239  0.5401
50118SOL    HW255293   4.390   6.064   3.772  0.2315  0.3609  0.2479
50119SOL     OW55294   3.486   7.125   3.558 -0.1480 -0.0172 -0.0022
50119SOL    HW155295   3.570   7.107   3.601  0.9210  1.4976 -1.3461
50119SOL    HW255296   3.503   7.201   3.503 -1.7802 -1.0934 -2.1540
50120SOL     OW55297   4.997   9.448   8.710 -0.0087 -0.5237 -0.7710
50120SOL    HW155298   5.079   9.440   8.663  1.1264  2.5303  0.4589
50120SOL    HW255299   4.959   9.530   8.681 -2.0385 -1.2471 -0.3746
50121SOL     OW55300   4.120   8.877   7.286 -0.4468  0.5182 -0.2259
50121SOL    HW155301   4.102   8.835   7.202 -1.5686  0.8856 -0.1807
50121SOL    HW255302   4.079   8.963   7.279  0.7404  1.1330  0.1477
50122SOL     OW55303  11.243  10.491   3.359  0.1277  0.5622  0.3873
50122SOL    HW155304  11.273  10.450   3.277 -2.2872 -0.6804  0.0358
50122SOL    HW255305  11.185  10.562   3.331  1.3975  1.9076  1.0504
50123SOL     OW55306   2.927   1.179   9.855 -0.1985  0.0591  0.4046
50123SOL    HW155307   2.883   1.127   9.787 -2.8160  2.2087  0.2658
50123SOL    HW255308   2.982   1.241   9.808  1.1392 -1.0160  0.4862
50124SOL     OW55309   6.224   3.166  11.242  0.0521  0.3003 -0.0194
50124SOL    HW155310   6.240   3.218  11.163 -1.5589  1.0380  0.0924
50124SOL    HW255311   6.251   3.077  11.218  0.7574  0.7610 -0.9717
50125SOL     OW55312   5.934  10.985   3.209 -0.2381  0.0441  0.4561
50125SOL    HW155313   5.877  11.060   3.190 -0.0636  0.1530  0.3606
50125SOL    HW255314   6.009  11.023   3.255  0.2938  0.0533 -0.4141
50126SOL     OW55315  10.968   8.086   2.656  0.2776  0.7629 -0.3439
50126SOL    HW155316  11.029   8.155   2.628 -1.1047  1.3713 -2.0242
50126SOL    HW255317  10.910   8.130   2.719  0.4858  0.6593 -0.0797
50127SOL     OW55318   8.483   2.965   3.046  0.3372 -0.0112 -0.0095
50127SOL    HW155319   8.547   2.920   2.990  0.9105 -0.2676  0.8359
50127SOL    HW255320   8.420   2.897   3.069 -1.5740  0.7265 -2.6702
50128SOL     OW55321   8.923   4.448   2.357  1.0052  0.8094  0.2162
50128SOL    HW155322   8.858   4.384   2.386 -0.2419  2.3524  1.0012
50128SOL    HW255323   8.965   4.408   2.282  0.9421 -1.3207  1.2525
50129SOL     OW55324   2.728   6.767   3.962  0.2152 -0.1772  0.1552
50129SOL    HW155325   2.796   6.717   4.007  0.7222 -0.6019 -1.0547
50129SOL    HW255326   2.724   6.851   4.009  1.5584 -0.1567  0.2550
50130SOL     OW55327   9.583   7.438  10.935 -0.1263 -0.3476 -0.2553
50130SOL    HW155328   9.598   7.377  11.007  0.6075 -0.6180 -0.6263
50130SOL    HW255329   9.597   7.385  10.856 -1.1295 -0.1130 -0.6085
50131SOL     OW55330   3.961   3.434   7.225 -0.1366 -0.3991 -0.1777
50131SOL    HW155331   4.052   3.407   7.239 -0.1520 -0.2551  0.2124
50131SOL    HW255332   3.958   3.463   7.134  0.1177 -0.7684 -0.3051
50132SOL     OW55333   6.373   8.653   6.910 -0.0673  0.2831 -0.7685
50132SOL    HW155334   6.286   8.692   6.901 -2.2924 -3.3290  2.0099
50132SOL    HW255335   6.386   8.645   7.005  1.8503 -2.0482 -1.1046
50133SOL     OW55336   4.098  10.494   4.238  0.5803 -0.1270 -0.4041
50133SOL    HW155337   4.002  10.493   4.242  0.5307  1.6165 -0.0763
50133SOL    HW255338   4.118  10.518   4.147  0.5934  1.9275  0.0815
50134SOL     OW55339  10.229  11.612  10.520  0.4681 -0.0223 -0.2594
50134SOL    HW155340  10.214  11.540  10.459  0.8585 -0.3645  0.0405
50134SOL    HW255341  10.299  11.580  10.577  2.2506  1.4222 -1.5094
50135SOL     OW55342   9.673   4.601   6.622 -0.1392  0.2566  0.8176
50135SOL    HW155343   9.677   4.526   6.681  0.3262 -0.1845  0.2308
50135SOL    HW255344   9.616   4.573   6.550 -1.6301  1.1792  1.5686
50136SOL     OW55345   1.593   3.569   5.483  0.1561  0.0423  0.0452
50136SOL    HW155346   1.608   3.480   5.515  0.3874  0.1729  0.3111
50136SOL    HW255347   1.509   3.594   5.521  0.1230 -0.0393  0.0257
50137SOL     OW55348   3.746   1.115   3.576  0.0339  0.1769 -0.5672
50137SOL    HW155349   3.801   1.039   3.557 -1.4170 -1.0276 -0.1305
50137SOL    HW255350   3.716   1.145   3.490  1.0545  0.6212 -0.7808
50138SOL     OW55351   9.922   6.229   0.770 -0.3010  0.5823  0.0311
50138SOL    HW155352   9.919   6.298   0.704 -2.0090  1.0321  0.5445
50138SOL    HW255353   9.951   6.151   0.721  0.0597  1.2732 -0.8852
50139SOL     OW55354   3.459   0.195   7.055 -0.4242  0.3465 -0.2093
50139SOL    HW155355   3.455   0.271   7.112 -0.6087  1.4016 -1.5987
50139SOL    HW255356   3.368   0.173   7.037 -0.4032  1.5976 -2.0986
50140SOL     OW55357   8.500   9.262  11.111 -0.2153 -0.0168  0.3683
50140SOL    HW155358   8.470   9.172  11.124 -1.0545  0.2840  0.5857
50140SOL    HW255359   8.427   9.316  11.141 -0.7537  0.7603 -2.1073
50141SOL     OW55360   2.305   9.020   5.299 -0.1183  0.0603  0.4545
50141SOL    HW155361   2.396   9.046   5.284 -0.7473  1.4808 -1.3093
50141SOL    HW255362   2.295   9.021   5.395  1.7799 -0.4714  0.6943
50142SOL     OW55363   9.095   8.006   6.739 -0.0304  0.4489 -0.0196
50142SOL    HW155364   9.025   8.009   6.804 -0.4233 -0.3743 -0.3842
50142SOL    HW255365   9.057   7.959   6.665  0.1020  2.1603 -1.2394
50143SOL     OW55366   9.084   7.178   5.661  0.2764  0.0720  0.4014
50143SOL    HW155367   9.051   7.100   5.707 -1.6363  1.3970  1.4358
50143SOL    HW255368   9.013   7.201   5.601  1.3757  0.2774 -0.8339
50144SOL     OW55369   4.411   7.416   4.080 -0.3462  0.2972 -0.4070
50144SOL    HW155370   4.354   7.403   4.156  0.3846  1.5973  0.4025
50144SOL    HW255371   4.490   7.367   4.101 -1.2147 -1.7334 -1.6528
50145SOL     OW55372   5.991   6.120  11.656 -0.0279 -0.6921  0.3569
50145SOL    HW155373   5.986   6.168  11.573 -0.5072  0.4957  1.0610
50145SOL    HW255374   6.068   6.064  11.646  2.1658  2.0788  0.4416
50146SOL     OW55375  10.014   2.660   4.214  0.1653  0.6042  0.0986
50146SOL    HW155376  10.101   2.680   4.247  0.5254  1.2913 -1.2060
50146SOL    HW255377  10.029   2.630   4.124 -0.7362 -1.6398  0.6323
50147SOL     OW55378   5.850   9.232   5.119  0.1188 -0.7240 -0.4319
50147SOL    HW155379   5.822   9.159   5.175  0.6583  0.3413  1.2915
50147SOL    HW255380   5.884   9.189   5.041 -0.1338 -2.3083  0.2800
50148SOL     OW55381   0.777   5.511  10.354  0.3037  0.5828 -0.2727
50148SOL    HW155382   0.766   5.458  10.432 -1.0323  0.7088 -0.3443
50148SOL    HW255383   0.861   5.556  10.366 -0.5297  1.7189  1.7966
50149SOL     OW55384   9.747   2.349   8.996  0.6172 -0.1564 -0.0669
50149SOL    HW155385   9.798   2.430   8.994 -0.3128  0.4474 -1.0700
50149SOL    HW255386   9.688   2.360   9.071 -1.8017  1.6689 -2.0219
50150SOL     OW55387   4.080   1.607   5.614 -0.7508 -0.1874 -0.2535
50150SOL    HW155388   4.043   1.562   5.538 -1.8832  1.2614 -0.6096
50150SOL    HW255389   4.016   1.674   5.636  0.3059  0.4660  0.9935
50151SOL     OW55390   5.112   5.511   3.230 -0.2699  0.0423  0.1929
50151SOL    HW155391   5.187   5.468   3.190  0.4530  1.1266  0.3444
50151SOL    HW255392   5.143   5.540   3.315 -0.9710  0.1807  0.4097
50152SOL     OW55393   3.577   3.883   9.378 -0.3641 -0.7745  0.3062
50152SOL    HW155394   3.543   3.961   9.421 -2.1310 -2.0571  1.3843
50152SOL    HW255395   3.505   3.820   9.384  1.5617 -3.0300  0.9406
50153SOL     OW55396   7.704   2.963   7.574 -0.1142 -0.4260 -0.0627
50153SOL    HW155397   7.794   2.932   7.565 -0.0476 -1.0839  2.1382
50153SOL    HW255398   7.711   3.058   7.569  0.5441 -0.5139 -1.0017
50154SOL     OW55399   1.029   9.309  10.629  0.0183  0.1848 -0.0793
50154SOL    HW155400   1.074   9.258  10.561  1.9660  0.5170  0.8910
50154SOL    HW255401   1.084   9.387  10.641 -1.0765  0.8412  0.8618
50155SOL     OW55402   2.338   0.268  10.853  0.2246 -0.2382 -0.2531
50155SOL    HW155403   2.363   0.294  10.764  2.7639  0.2490  0.5251
50155SOL    HW255404   2.247   0.297  10.861 -0.7779 -2.0345 -3.2908
50156SOL     OW55405   0.192   4.406  11.116 -0.5086  0.1870 -0.1854
50156SOL    HW155406   0.228   4.330  11.072  0.4764 -0.2992  1.3673
50156SOL    HW255407   0.186   4.473  11.049  0.9325 -0.5096 -1.0491
50157SOL     OW55408   5.870   7.603   5.969 -0.5776 -0.8863  0.4595
50157SOL    HW155409   5.829   7.552   6.039  1.1495 -2.9943  0.0414
50157SOL    HW255410   5.841   7.693   5.984 -0.8950 -1.4005  3.3955
50158SOL     OW55411   7.034   5.371   2.955 -0.2428 -0.3259 -0.3868
50158SOL    HW155412   7.027   5.395   3.048  0.6301 -0.7521 -0.1999
50158SOL    HW255413   7.087   5.291   2.955 -0.1391 -0.2608 -1.2582
50159SOL     OW55414   1.630   9.375   9.116  0.1796 -0.3934  0.1998
50159SOL    HW155415   1.555   9.324   9.146  1.1029 -2.4375 -0.7197
50159SOL    HW255416   1.697   9.362   9.183  0.4985 -0.5762 -0.1504
50160SOL     OW55417   5.686   3.709   7.156 -0.4361 -0.2668  0.1009
50160SOL    HW155418   5.751   3.768   7.118 -0.0241  0.2740  1.6055
50160SOL    HW255419   5.735   3.628   7.173 -0.8860 -0.9291 -1.4955
50161SOL     OW55420   1.870  11.172   0.686 -0.2431  0.0138  0.5862
50161SOL    HW155421   1.896  11.121   0.608 -2.8252 -1.5448  0.6223
50161SOL    HW255422   1.776  11.154   0.695 -0.2932  1.2941  3.2600
50162SOL     OW55423   5.671   2.881   6.161 -0.1653  0.8005 -0.5645
50162SOL    HW155424   5.580   2.906   6.148 -0.5645 -0.2489  0.0732
50162SOL    HW255425   5.667   2.803   6.217  1.0755  0.0652 -1.4558
50163SOL     OW55426   4.036   2.400  11.309  0.1854  0.0138 -0.4872
50163SOL    HW155427   3.948   2.410  11.345  0.6660  2.4654  0.1491
50163SOL    HW255428   4.027   2.421  11.216  0.3464  1.9413 -0.0947
50164SOL     OW55429   3.481   9.266  11.541  0.2021 -0.5844  0.1758
50164SOL    HW155430   3.396   9.232  11.569 -0.1867  0.0351 -0.2207
50164SOL    HW255431   3.544   9.218  11.594 -0.3265 -1.8520 -0.2987
50165SOL     OW55432   9.239   7.353   5.065  0.2928 -0.2201 -0.7489
50165SOL    HW155433   9.194   7.375   4.983 -1.7282  0.4848  0.4992
50165SOL    HW255434   9.315   7.411   5.067 -0.4865  0.8486 -1.4068
50166SOL     OW55435   4.138   7.682   0.885  0.2071 -0.1566  0.1147
50166SOL    HW155436   4.096   7.689   0.970 -0.1270  0.3603 -0.0871
50166SOL    HW255437   4.227   7.712   0.900  0.3395 -0.6909  0.4189
50167SOL     OW55438   5.370   9.691   8.628  0.2747  0.2312  0.0728
50167SOL    HW155439   5.429   9.741   8.571 -1.0392  1.2765 -0.4294
50167SOL    HW255440   5.308   9.757   8.662  0.0050 -0.6553  1.3882
50168SOL     OW55441   1.382   9.113   4.864  0.0791 -0.2212  0.2152
50168SOL    HW155442   1.323   9.040   4.848 -0.3044 -0.0804  0.9663
50168SOL    HW255443   1.400   9.110   4.958  0.4129  0.3803  0.1796
50169SOL     OW55444   8.025   6.418   3.953 -0.2385  0.0235 -0.3079
50169SOL    HW155445   8.051   6.434   3.862 -1.1752 -2.7023 -1.1527
50169SOL    HW255446   8.010   6.324   3.957 -3.0163  0.4211  1.9135
50170SOL     OW55447   2.054   8.602   2.782 -0.0361  0.2221 -0.3615
50170SOL    HW155448   2.102   8.523   2.758  2.2434  1.7301 -1.0253
50170SOL    HW255449   1.962   8.578   2.772  0.5113 -2.8127  1.0528
50171SOL     OW55450   9.496  10.838   8.064 -0.2452 -0.0556 -0.5681
50171SOL    HW155451   9.458  10.754   8.090  0.4497 -0.1897  0.0408
50171SOL    HW255452   9.520  10.826   7.972  0.0903 -0.6176 -0.4121
50172SOL     OW55453   1.953   7.533   6.799  0.5596 -0.5197  0.0983
50172SOL    HW155454   1.909   7.454   6.829  0.1195 -0.3460 -0.0752
50172SOL    HW255455   1.960   7.522   6.704 -0.9615  0.3453 -0.1534
50173SOL     OW55456  11.333   9.180  10.740  0.1930  0.1234  0.0093
50173SOL    HW155457  11.417   9.152  10.775  0.1074 -1.4365 -0.9655
50173SOL    HW255458  11.300   9.243  10.805  2.1966  0.9728  0.2790
50174SOL     OW55459   7.868  11.031   1.914 -0.3607  0.0984 -0.1300
50174SOL    HW155460   7.792  10.972   1.912 -0.5938  0.3717  0.4358
50174SOL    HW255461   7.925  10.994   1.982 -0.4658  0.4706  0.1636
50175SOL     OW55462  10.343   3.926   1.630  0.0309  0.1974  0.4499
50175SOL    HW155463  10.431   3.916   1.593 -0.1139  3.1779 -1.0354
50175SOL    HW255464  10.357   3.954   1.720  0.4929 -1.7075  1.0144
50176SOL     OW55465   4.128   6.914  10.284 -0.4660  0.4129 -0.0266
50176SOL    HW155466   4.175   6.987  10.324 -0.7170  1.0309 -0.8253
50176SOL    HW255467   4.075   6.878  10.355  0.3596  0.4037  0.6054
50177SOL     OW55468   5.369   0.493   0.143  0.2715 -0.6867  0.1470
50177SOL    HW155469   5.333   0.444   0.069  2.1656 -1.4291 -0.3710
50177SOL    HW255470   5.432   0.553   0.103 -0.7441  0.9801  0.9390
50178SOL     OW55471  10.114   7.142   5.779 -0.1191 -0.2627 -0.1840
50178SOL    HW155472  10.129   7.048   5.783  0.9432 -0.0832  0.4926
50178SOL    HW255473  10.035   7.156   5.832  0.3657 -0.6585  0.6742
50179SOL     OW55474   6.230   2.518   5.414  0.0646  0.3802 -0.1068
50179SOL    HW155475   6.148   2.478   5.388  0.8720 -0.5260 -1.4216
50179SOL    HW255476   6.263   2.463   5.485 -0.2558  0.4945  0.1310
50180SOL     OW55477   1.828   9.409   4.586  0.4084  0.4316 -0.5108
50180SOL    HW155478   1.912   9.424   4.542  1.8803  1.3591  2.3542
50180SOL    HW255479   1.849   9.416   4.679 -2.5615 -1.0381  0.3760
50181SOL     OW55480   5.301   1.347   8.718  0.4494 -0.5047 -0.3656
50181SOL    HW155481   5.253   1.430   8.718  0.1458 -0.6772 -1.3390
50181SOL    HW255482   5.312   1.327   8.811 -2.2325 -0.9569 -0.0689
50182SOL     OW55483   8.211   4.953   3.169  0.1496  0.5074  0.1694
50182SOL    HW155484   8.188   4.945   3.076  1.6633  2.2211 -0.4245
50182SOL    HW255485   8.213   5.047   3.185  0.8279  0.2665  1.6915
50183SOL     OW55486   5.474   4.386   8.408  0.1384  0.1289 -0.2358
50183SOL    HW155487   5.423   4.410   8.331  0.7243 -0.6937 -0.9092
50183SOL    HW255488   5.501   4.295   8.391  1.2206  0.3116  0.4203
50184SOL     OW55489   0.837   9.297   9.935 -0.3933  0.0843 -0.1280
50184SOL    HW155490   0.790   9.228   9.982 -0.1818 -1.4381 -2.0024
50184SOL    HW255491   0.820   9.278   9.843  0.8633  1.7229 -0.7416
50185SOL     OW55492   9.599   2.528   0.034  0.1819 -0.0779  0.2432
50185SOL    HW155493   9.564   2.617   0.027 -1.8881 -0.7882  0.8383
50185SOL    HW255494   9.533   2.473  -0.009  1.1309 -1.3937  0.4149
50186SOL     OW55495   8.786   4.427   8.990 -0.5832 -0.0976  0.6210
50186SOL    HW155496   8.867   4.397   9.031  0.0529  0.7141 -0.0106
50186SOL    HW255497   8.787   4.522   9.001 -1.2487 -0.0394  0.2439
50187SOL     OW55498   2.367   9.219  10.177 -0.2979 -0.0791  0.2422
50187SOL    HW155499   2.367   9.160  10.101 -2.3414 -1.7459  1.4241
50187SOL    HW255500   2.405   9.166  10.247 -2.2590 -0.0661  1.3596
50188SOL     OW55501   4.959   2.412   7.330 -0.6208 -0.4838 -0.6467
50188SOL    HW155502   4.977   2.333   7.381 -0.7382  0.1999  0.4988
50188SOL    HW255503   4.873   2.396   7.289 -1.0246 -0.6310  0.2400
50189SOL     OW55504   8.065   3.109   9.894  0.0664  0.9360 -0.7808
50189SOL    HW155505   7.991   3.129   9.952  1.3159  0.4147  1.0849
50189SOL    HW255506   8.045   3.023   9.858 -0.7146  1.2489 -1.1043
50190SOL     OW55507  10.489   2.884   2.298 -0.0811  0.2384 -0.1278
50190SOL    HW155508  10.535   2.801   2.286 -1.3184 -0.8674  2.1075
50190SOL    HW255509  10.415   2.880   2.237 -0.4751 -0.6210  0.3818
50191SOL     OW55510   0.778   4.306   0.049  0.2710 -0.3082 -0.1207
50191SOL    HW155511   0.706   4.363   0.074  0.8241  0.0432  0.7161
50191SOL    HW255512   0.828   4.356  -0.015  0.1122 -0.3149 -0.2505
50192SOL     OW55513   5.009   4.854   1.092 -0.2502 -0.0588 -0.1250
50192SOL    HW155514   5.085   4.910   1.079  0.0450 -0.5907 -0.7595
50192SOL    HW255515   4.936   4.915   1.103  0.0530  0.4521 -0.8789
50193SOL     OW55516   0.272   0.020   8.634 -0.2086  0.4873 -0.4078
50193SOL    HW155517   0.226  -0.057   8.667 -2.1327  1.0578 -1.5844
50193SOL    HW255518   0.317   0.055   8.711  0.2013 -1.4278  0.2894
50194SOL     OW55519   5.004   8.162   4.114 -0.0077 -0.6418  0.3959
50194SOL    HW155520   4.952   8.099   4.164 -0.4261  1.3905  2.7221
50194SOL    HW255521   4.939   8.224   4.079  0.3763 -1.4685 -1.9843
50195SOL     OW55522   7.774   7.367   0.970  0.2445 -0.3074 -0.7114
50195SOL    HW155523   7.714   7.337   1.038 -0.1328 -2.1596 -1.7896
50195SOL    HW255524   7.771   7.463   0.976  0.4598 -0.3865  2.0266
50196SOL     OW55525  10.547   6.203   1.715  0.0258  0.3570  0.6663
50196SOL    HW155526  10.603   6.216   1.639  0.7925 -0.7986  0.9991
50196SOL    HW255527  10.482   6.138   1.687  0.1264  0.1507  0.9065
50197SOL     OW55528  11.571   8.142   4.899  0.6600 -0.6837  0.5786
50197SOL    HW155529  11.545   8.072   4.959 -1.5074 -0.5080 -0.0507
50197SOL    HW255530  11.575   8.099   4.813 -1.2223 -0.0049  0.0980
50198SOL     OW55531   5.749   5.530   2.359 -0.0030  0.1053  0.0686
50198SOL    HW155532   5.744   5.625   2.348  2.1997  0.2438 -0.2110
50198SOL    HW255533   5.659   5.503   2.373 -0.5661  2.4087  1.5532
50199SOL     OW55534   0.049   5.414   4.302 -0.0632  0.0903 -0.1243
50199SOL    HW155535   0.078   5.431   4.392  0.1530 -1.6161  0.1548
50199SOL    HW255536   0.069   5.322   4.287  1.9498  0.8295 -2.7101
50200SOL     OW55537   9.100   2.445   0.071 -0.0721  0.4595  0.3584
50200SOL    HW155538   9.127   2.536   0.080 -0.1434  0.5505 -0.3076
50200SOL    HW255539   9.147   2.414  -0.007 -0.0925 -0.0556  0.5481
50201SOL     OW55540   7.972  10.153   5.929  0.5228  0.2114  0.1923
50201SOL    HW155541   7.946  10.061   5.932  0.4562  0.1896 -0.7603
50201SOL    HW255542   8.053  10.153   5.879  1.1146  0.5554  1.1240
50202SOL     OW55543   3.007   1.203   6.651  0.5122 -0.0902  0.6341
50202SOL    HW155544   3.068   1.135   6.679  1.0302  0.3439  0.5717
50202SOL    HW255545   2.928   1.156   6.627  0.7927 -0.6526  0.8029
50203SOL     OW55546   5.680   8.326   5.933  0.4400  0.3158  0.9220
50203SOL    HW155547   5.749   8.391   5.921  0.8624 -0.3314 -0.3969
50203SOL    HW255548   5.621   8.339   5.858 -1.0786  1.0516  2.1725
50204SOL     OW55549   8.331   4.488   4.640 -0.7533 -0.4308 -0.1085
50204SOL    HW155550   8.341   4.572   4.685 -1.9001  0.1445 -0.8738
50204SOL    HW255551   8.394   4.492   4.568 -0.5518 -0.3718  0.0701
50205SOL     OW55552   0.793   2.539  11.064  0.1813  0.0792 -0.2416
50205SOL    HW155553   0.812   2.577  11.150  0.5158  0.8850 -0.6701
50205SOL    HW255554   0.815   2.446  11.074 -0.3400  0.0412  0.7147
50206SOL     OW55555   5.094   4.294  11.452 -0.1731 -0.3207  0.5052
50206SOL    HW155556   5.151   4.363  11.417 -0.0806 -0.9016 -0.5193
50206SOL    HW255557   5.047   4.337  11.524  0.2806  0.6559  0.2425
50207SOL     OW55558   9.251   3.652   8.894 -0.7343  0.3907 -0.3261
50207SOL    HW155559   9.237   3.650   8.799  1.4027  1.2076 -0.7127
50207SOL    HW255560   9.199   3.726   8.924 -1.1422  0.3505 -0.9106
50208SOL     OW55561   1.424   2.614   5.306  0.3861 -0.6325 -0.2338
50208SOL    HW155562   1.427   2.566   5.223 -3.9450 -1.2244 -0.2491
50208SOL    HW255563   1.485   2.566   5.363  0.6113 -2.5270 -1.9486
50209SOL     OW55564   6.555   5.354   7.685 -0.0579 -0.0577 -0.6140
50209SOL    HW155565   6.496   5.307   7.744  0.5191  0.9101  0.7697
50209SOL    HW255566   6.637   5.361   7.733 -0.0221  2.0331 -0.9058
50210SOL     OW55567   9.022   8.960  11.170 -0.6537  0.3987  0.2317
50210SOL    HW155568   8.951   9.004  11.218 -1.3942 -1.2094  0.6552
50210SOL    HW255569   9.004   8.979  11.078 -0.5002  1.6297  0.4365
50211SOL     OW55570   6.889   4.502   8.155  0.0396  0.3300 -0.1050
50211SOL    HW155571   6.897   4.596   8.167  1.3478  0.2781 -0.3968
50211SOL    HW255572   6.883   4.466   8.243  1.3327  0.5710  0.1078
50212SOL     OW55573   5.376  11.215   0.839 -0.3968  0.3938  0.0688
50212SOL    HW155574   5.434  11.193   0.766 -1.5345 -0.2235 -0.6802
50212SOL    HW255575   5.385  11.142   0.900 -1.6282 -0.5581 -0.8426
50213SOL     OW55576  10.592  11.034   6.338  0.2117 -1.2749  0.0873
50213SOL    HW155577  10.499  11.017   6.325  0.0600 -0.4392  0.0270
50213SOL    HW255578  10.634  10.948   6.330 -0.8163 -2.0967  2.5737
50214SOL     OW55579   3.511   0.337   7.282 -0.3882  1.0557 -0.9947
50214SOL    HW155580   3.481   0.278   7.352 -0.8641 -0.8447 -2.7009
50214SOL    HW255581   3.603   0.353   7.302 -0.4650  0.4047 -0.0467
50215SOL     OW55582  10.862   8.483   8.590  0.1118  0.3680  0.5019
50215SOL    HW155583  10.859   8.577   8.572 -0.7569  0.5430  1.4729
50215SOL    HW255584  10.846   8.476   8.684  1.9102 -0.6582  0.7680
50216SOL     OW55585   4.323   9.077   1.477 -0.5837 -0.7172  0.1546
50216SOL    HW155586   4.236   9.076   1.436 -0.2853 -2.1396 -0.4973
50216SOL    HW255587   4.373   9.141   1.425 -1.3086  0.3406  0.7267
50217SOL     OW55588  11.369   7.563  11.017 -0.3124  0.0497 -0.2142
50217SOL    HW155589  11.441   7.612  11.057 -0.1614  0.0990 -0.5485
50217SOL    HW255590  11.306   7.630  10.989 -0.0224  0.0654 -0.8366
50218SOL     OW55591   1.903   0.808   5.125 -0.1952  0.4801  0.0662
50218SOL    HW155592   1.926   0.716   5.109 -2.3873 -0.1909  0.4785
50218SOL    HW255593   1.928   0.853   5.044  0.7597 -0.4923 -0.2043
50219SOL     OW55594   2.726   0.907  10.680  0.2718  0.2565  0.3927
50219SOL    HW155595   2.641   0.863  10.690  0.4364 -0.8468 -2.2848
50219SOL    HW255596   2.705   0.991  10.639  0.4080  0.3847  0.5828
50220SOL     OW55597   7.993   4.239   3.183 -0.1798 -0.4525 -0.4455
50220SOL    HW155598   8.007   4.328   3.149 -2.7900  0.0931 -0.3139
50220SOL    HW255599   8.073   4.192   3.161  2.4577  2.5524  1.7482
50221SOL     OW55600   7.323  10.491   0.964 -0.5929 -0.1991  0.6226
50221SOL    HW155601   7.311  10.559   1.030 -1.4699  0.4938 -0.2070
50221SOL    HW255602   7.379  10.532   0.898  0.2446 -0.8710  0.8990
50222SOL     OW55603   6.553   9.156   7.341  0.0140 -0.2344  0.4208
50222SOL    HW155604   6.504   9.236   7.358 -1.7086 -1.0104 -0.6569
50222SOL    HW255605   6.514   9.120   7.261  1.5070 -1.5586  0.2284
50223SOL     OW55606   5.047   3.423   1.808 -0.0379  0.1110 -0.3689
50223SOL    HW155607   5.087   3.354   1.754  0.5782  0.6047 -0.5466
50223SOL    HW255608   4.977   3.459   1.753  1.1312  1.1916 -1.2033
50224SOL     OW55609   4.369   4.810  10.538  0.3816  0.1569  0.1228
50224SOL    HW155610   4.342   4.736  10.592  0.5580  0.1624  0.2205
50224SOL    HW255611   4.320   4.800  10.457 -1.1949  1.0698  0.9078
50225SOL     OW55612   2.455   7.638   5.295  0.0016  0.0875  0.8676
50225SOL    HW155613   2.413   7.594   5.221  1.3234  0.0677  0.0900
50225SOL    HW255614   2.545   7.654   5.265  1.0462 -1.2700  2.9867
50226SOL     OW55615   5.317   8.491   3.835  0.2848  0.4197 -0.0929
50226SOL    HW155616   5.396   8.448   3.867  1.1808  0.1727 -2.4855
50226SOL    HW255617   5.347   8.573   3.795 -0.5965  0.1891 -1.3024
50227SOL     OW55618  11.449   3.205   2.827 -0.1886 -0.0882 -0.2951
50227SOL    HW155619  11.518   3.138   2.832 -0.7315 -0.5959  0.6311
50227SOL    HW255620  11.490   3.278   2.780  0.5045 -0.9563 -1.0653
50228SOL     OW55621  10.404   4.216   3.777 -0.9804 -0.2716  0.2926
50228SOL    HW155622  10.489   4.233   3.737 -1.9781 -0.4818 -2.1317
50228SOL    HW255623  10.349   4.288   3.746 -2.9324 -2.7347 -2.5264
50229SOL     OW55624   1.398   8.954   0.491 -0.1981  0.5364  0.2309
50229SOL    HW155625   1.478   8.934   0.539 -0.8277  0.0687  1.1138
50229SOL    HW255626   1.406   8.905   0.410 -0.2160 -0.6413  0.9243
50230SOL     OW55627   8.617   9.146   3.102 -0.5878 -0.1597  0.0023
50230SOL    HW155628   8.581   9.227   3.067  0.0919  0.4999  0.8013
50230SOL    HW255629   8.708   9.146   3.074  0.0705  0.5524  1.9878
50231SOL     OW55630   3.437   7.202   3.845  0.4364  0.6687 -0.0286
50231SOL    HW155631   3.457   7.206   3.751  0.0559  0.6126 -0.1120
50231SOL    HW255632   3.377   7.128   3.853 -1.3545  2.0728 -0.0665
50232SOL     OW55633   2.353   5.450   6.585 -0.4625  0.1595 -0.1029
50232SOL    HW155634   2.259   5.471   6.585 -0.4991  0.0321 -0.6910
50232SOL    HW255635   2.396   5.534   6.575 -0.4000  0.5259  2.6885
50233SOL     OW55636   2.099   2.813  10.349 -0.2053 -0.5436  0.0884
50233SOL    HW155637   2.167   2.791  10.285  0.5601 -0.9567  1.0184
50233SOL    HW255638   2.145   2.814  10.433 -1.2689 -0.3947  0.6804
50234SOL     OW55639   6.395   0.160   1.676  0.3889  0.0470  0.0454
50234SOL    HW155640   6.401   0.122   1.588  0.4645 -0.1794  0.1473
50234SOL    HW255641   6.474   0.213   1.685  0.1136  0.5081 -0.2275
50235SOL     OW55642   1.883   1.182   5.606  0.0139  0.3648 -0.1504
50235SOL    HW155643   1.975   1.157   5.609 -0.2602 -0.6610  0.2843
50235SOL    HW255644   1.848   1.156   5.692 -0.1413  3.0270  0.6605
50236SOL     OW55645   2.801   4.452   9.856  0.1899  0.5818 -0.5393
50236SOL    HW155646   2.831   4.543   9.860  0.2714  0.5371 -0.1017
50236SOL    HW255647   2.748   4.448   9.777 -1.3511  1.4605  0.4104
50237SOL     OW55648   3.265   6.561   7.190  0.3778  0.0264 -0.1704
50237SOL    HW155649   3.246   6.546   7.097  0.7050  0.5128 -0.3192
50237SOL    HW255650   3.360   6.554   7.196  0.3042 -0.7803  0.2775
50238SOL     OW55651   7.627   8.483   2.851 -0.6998  0.2790  0.1215
50238SOL    HW155652   7.599   8.575   2.850 -1.0722  0.1853 -1.9952
50238SOL    HW255653   7.545   8.433   2.854 -0.6943  0.0437 -1.9121
50239SOL     OW55654   7.056   1.228   0.215  0.2721 -0.1016  0.0318
50239SOL    HW155655   7.149   1.227   0.192  0.3393  0.1186  0.2752
50239SOL    HW255656   7.055   1.205   0.308  0.2007  1.2173  0.3748
50240SOL     OW55657   8.946   0.176   3.370  0.5892  0.0512  0.1266
50240SOL    HW155658   9.036   0.195   3.343  1.5347  0.0910  3.0076
50240SOL    HW255659   8.895   0.187   3.290  3.0964  0.2067 -1.5763
50241SOL     OW55660   0.459  10.543  10.716  0.8179 -0.0691  0.2800
50241SOL    HW155661   0.398  10.470  10.727  1.1156 -0.6288 -1.3906
50241SOL    HW255662   0.523  10.511  10.653  1.4484  1.3521  0.1570
50242SOL     OW55663   7.745   6.744   5.988  1.3508 -0.5531 -0.1845
50242SOL    HW155664   7.802   6.703   5.923  0.7260 -0.2903 -0.9049
50242SOL    HW255665   7.679   6.678   6.007 -0.1310  0.3644 -1.9454
50243SOL     OW55666   0.857   1.896   3.872  0.3881  0.2844 -0.0185
50243SOL    HW155667   0.827   1.828   3.812  0.2475  0.4999 -0.1934
50243SOL    HW255668   0.951   1.880   3.881  0.1860 -0.5608  0.7488
50244SOL     OW55669   6.834   1.602  10.872 -0.0524 -0.1836  0.2279
50244SOL    HW155670   6.918   1.617  10.828 -0.6461 -1.5662 -1.5069
50244SOL    HW255671   6.769   1.633  10.810 -0.8740 -0.3517  0.9930
50245SOL     OW55672   9.599   6.591   9.684  0.2012 -0.6209  0.1137
50245SOL    HW155673   9.585   6.514   9.738 -0.3624 -1.0881 -0.6677
50245SOL    HW255674   9.679   6.573   9.635 -0.8745 -1.5511 -1.4109
50246SOL     OW55675   3.532   7.210  11.589  0.0017  1.1090  0.2424
50246SOL    HW155676   3.499   7.145  11.651  1.7949 -0.8322 -0.6893
50246SOL    HW255677   3.548   7.160  11.509 -2.6738  3.6026 -2.0464
50247SOL     OW55678  11.567  10.392   9.574 -0.3250  0.1708  0.4345
50247SOL    HW155679  11.528  10.332   9.638 -1.8932  1.0917  0.3773
50247SOL    HW255680  11.604  10.334   9.507 -1.5567 -0.7664  0.5226
50248SOL     OW55681  11.168   1.319   3.310 -0.0023 -0.1325  0.0819
50248SOL    HW155682  11.221   1.319   3.230  0.2421 -0.8084  0.2418
50248SOL    HW255683  11.090   1.370   3.286  1.0097  1.4796  0.0595
50249SOL     OW55684   9.735   7.425   3.585 -0.0515 -0.1209  0.2310
50249SOL    HW155685   9.792   7.434   3.661  2.1246 -0.5972 -1.2295
50249SOL    HW255686   9.791   7.449   3.511 -2.7384  2.6834 -1.0952
50250SOL     OW55687   2.289   5.627   2.713 -0.0492  0.0720 -0.9340
50250SOL    HW155688   2.317   5.592   2.797 -1.3273  1.5348  0.1665
50250SOL    HW255689   2.201   5.591   2.701 -0.4758  1.0751 -0.8832
50251SOL     OW55690   7.232   0.903   5.671  0.0861  1.0699 -0.2202
50251SOL    HW155691   7.221   0.851   5.751  1.2566  1.2969  0.0996
50251SOL    HW255692   7.288   0.850   5.615  1.6954  2.1507  0.2995
50252SOL     OW55693   8.447  11.650  10.284  0.1312 -0.0671  0.3206
50252SOL    HW155694   8.430  11.737  10.320  3.8583  0.8459  0.2661
50252SOL    HW255695   8.490  11.602  10.355  0.3971 -0.9909 -0.4453
50253SOL     OW55696   9.846   0.416   1.188 -0.5397 -0.1216 -0.6632
50253SOL    HW155697   9.900   0.454   1.119 -0.9746 -0.8940 -1.4564
50253SOL    HW255698   9.866   0.323   1.185  1.6935  0.1495  2.2963
50254SOL     OW55699   5.965   0.349   1.532  0.0738  0.0865  0.6238
50254SOL    HW155700   5.918   0.288   1.476  1.4986  0.5817 -1.1931
50254SOL    HW255701   6.019   0.293   1.588  0.6024 -0.3863 -0.3252
50255SOL     OW55702   8.269   5.103   1.957  0.2704  0.0281 -0.1979
50255SOL    HW155703   8.234   5.093   1.869 -1.2301 -1.6532  0.5240
50255SOL    HW255704   8.264   5.197   1.974  0.5220  0.3708 -1.8478
50256SOL     OW55705   9.020   8.438   5.327  0.1668  0.2455  0.5507
50256SOL    HW155706   9.036   8.350   5.293  0.1593  0.1782  0.7209
50256SOL    HW255707   9.052   8.435   5.417  0.9391  0.6475  0.3063
50257SOL     OW55708   5.484   7.626   8.810  0.4296  0.0174 -0.4555
50257SOL    HW155709   5.450   7.704   8.767 -1.4413 -0.7003 -0.3989
50257SOL    HW255710   5.408   7.569   8.819  1.5554 -1.4404  0.3347
50258SOL     OW55711   2.670   9.548   4.459 -0.0604 -0.0142  0.6826
50258SOL    HW155712   2.616   9.474   4.432 -0.0716  0.4108 -0.5195
50258SOL    HW255713   2.648   9.560   4.551 -1.4311 -0.3613  0.4339
50259SOL     OW55714   2.806   1.275   2.321 -0.8231 -0.3257 -0.1148
50259SOL    HW155715   2.766   1.356   2.354  0.7305  1.0578 -1.4803
50259SOL    HW255716   2.846   1.235   2.398  0.5732  1.5404  0.2016
50260SOL     OW55717   6.280   6.753   6.480 -0.1177 -0.0709  0.1049
50260SOL    HW155718   6.196   6.708   6.475  0.1234 -0.3909 -1.9993
50260SOL    HW255719   6.278   6.815   6.407  0.0620  2.5281  2.1691
50261SOL     OW55720   9.636   8.689   3.130 -0.0839 -0.4214  0.0725
50261SOL    HW155721   9.628   8.616   3.191  0.8853  0.3923  1.2197
50261SOL    HW255722   9.728   8.688   3.103 -0.3734 -0.4306 -0.9657
50262SOL     OW55723   2.094   3.653   8.013  0.5166  0.1640  0.3061
50262SOL    HW155724   2.130   3.660   7.925 -0.4747  0.6265 -0.0697
50262SOL    HW255725   2.096   3.559   8.032 -1.6014 -0.2514 -1.2212
50263SOL     OW55726  10.780   5.185   8.417  0.1958 -0.5951 -0.1340
50263SOL    HW155727  10.761   5.278   8.427 -1.5345 -0.8802 -0.4788
50263SOL    HW255728  10.860   5.171   8.468  0.8458  1.1896 -0.6147
50264SOL     OW55729   7.099   8.080   7.710 -0.3045  0.1796  0.3475
50264SOL    HW155730   7.156   8.152   7.735 -0.5538  0.3439  0.4505
50264SOL    HW255731   7.051   8.113   7.634  0.4451 -0.3117 -0.3615
50265SOL     OW55732   5.610   7.336   9.315  0.7502  0.3672 -0.1087
50265SOL    HW155733   5.665   7.373   9.245  1.1805  0.2347  0.1524
50265SOL    HW255734   5.545   7.404   9.332  1.4564  0.9653  0.2794
50266SOL     OW55735   4.775   9.237   1.381  0.5017  0.4241  0.1922
50266SOL    HW155736   4.743   9.152   1.350 -0.2653  0.5332  0.6569
50266SOL    HW255737   4.776   9.292   1.302  1.6427 -0.1822 -0.2476
50267SOL     OW55738   9.734   2.924   0.672 -0.2635  0.9051  0.3252
50267SOL    HW155739   9.789   2.869   0.617  0.6009  2.3843 -0.3646
50267SOL    HW255740   9.649   2.924   0.628  0.2316  1.5274 -0.6761
50268SOL     OW55741   8.848   2.040   3.716 -0.4887 -0.6869  0.0408
50268SOL    HW155742   8.773   2.016   3.771 -0.7852 -2.0303 -0.8941
50268SOL    HW255743   8.813   2.036   3.627  0.3906 -0.0956 -0.3378
50269SOL     OW55744   4.948   6.311  10.067  0.2583 -0.2254 -0.0094
50269SOL    HW155745   4.995   6.384  10.026 -0.2834  0.1290 -0.0123
50269SOL    HW255746   4.872   6.297  10.010  0.2206 -0.6217  0.1352
50270SOL     OW55747   0.490  10.860  11.428  0.6629 -0.3685 -0.0368
50270SOL    HW155748   0.415  10.903  11.470 -0.0292 -1.3813 -0.1913
50270SOL    HW255749   0.454  10.825  11.347  0.9954 -1.8956  0.4421
50271SOL     OW55750   6.867   0.873   2.219  0.2721  0.0509  0.3402
50271SOL    HW155751   6.858   0.939   2.289 -0.0068 -0.1253  0.4737
50271SOL    HW255752   6.940   0.904   2.166  2.0332 -1.0154  2.0204
50272SOL     OW55753   1.390   0.319   0.280  0.4623 -0.1997 -0.3866
50272SOL    HW155754   1.484   0.298   0.277  0.1071 -2.1018  0.2769
50272SOL    HW255755   1.384   0.393   0.341  1.4269 -0.8687  0.5643
50273SOL     OW55756   7.032   2.197   2.150  0.6990 -0.1481 -0.3114
50273SOL    HW155757   6.980   2.118   2.139 -0.8913  0.6509  1.0674
50273SOL    HW255758   7.089   2.199   2.073 -1.4872 -0.9195 -2.0450
50274SOL     OW55759  11.576   4.663   0.449 -0.1784  0.3476  0.0705
50274SOL    HW155760  11.571   4.587   0.391 -1.1896 -0.7592  1.5290
50274SOL    HW255761  11.645   4.641   0.512  1.3226  1.7858 -0.9812
50275SOL     OW55762   0.762  10.427   3.728  0.0318 -0.0774 -0.1425
50275SOL    HW155763   0.725  10.343   3.702 -0.0306  0.1602 -0.8618
50275SOL    HW255764   0.696  10.491   3.701 -0.0892  0.1731  0.7441
50276SOL     OW55765   1.369   9.375   2.893  0.1467 -0.6909 -0.2723
50276SOL    HW155766   1.429   9.309   2.929 -1.2785 -1.4767  0.7262
50276SOL    HW255767   1.426   9.449   2.872  1.6089 -1.7434 -0.2415
50277SOL     OW55768   8.352   1.299  10.277 -0.0395  0.6245 -0.2031
50277SOL    HW155769   8.287   1.335  10.338 -0.4798  1.1289 -0.9468
50277SOL    HW255770   8.306   1.228  10.232 -0.0754  0.9517 -0.6976
50278SOL     OW55771   4.076   5.678   0.041 -0.6026  0.0420  0.0695
50278SOL    HW155772   4.126   5.647  -0.035  0.2193  0.3649  0.4767
50278SOL    HW255773   3.995   5.714   0.003 -0.4085 -0.2273 -0.6136
50279SOL     OW55774  10.822   2.082   3.322 -0.1181  0.3671 -0.2975
50279SOL    HW155775  10.827   2.087   3.418  1.3236 -1.5421 -0.2030
50279SOL    HW255776  10.769   2.157   3.297  0.2973  1.4964  1.9213
50280SOL     OW55777   3.175   6.786   6.458 -0.5046 -0.1133  0.3883
50280SOL    HW155778   3.097   6.731   6.457 -0.7175  0.1869 -0.0339
50280SOL    HW255779   3.183   6.817   6.367  0.5262 -0.7313  0.2527
50281SOL     OW55780   2.605   7.569   9.357  0.7529  0.1411 -0.0120
50281SOL    HW155781   2.583   7.631   9.427  0.4843  1.1913 -0.9942
50281SOL    HW255782   2.542   7.588   9.288 -0.5265 -2.4542  0.3056
50282SOL     OW55783   5.160   8.767   1.223  0.0339  0.4238 -0.7364
50282SOL    HW155784   5.135   8.788   1.313 -0.0151 -1.5985 -0.2334
50282SOL    HW255785   5.116   8.834   1.170  0.1250  1.7018  0.7115
50283SOL     OW55786   5.923  10.182   8.527 -0.0953 -0.7343  0.0982
50283SOL    HW155787   5.902  10.141   8.612  0.1801 -0.7797  0.1450
50283SOL    HW255788   6.013  10.156   8.510  0.4196  0.6484  0.5929
50284SOL     OW55789   9.192   2.048   6.803  0.0008 -0.2204 -0.5741
50284SOL    HW155790   9.159   2.103   6.874 -1.2496  0.4393 -1.6183
50284SOL    HW255791   9.113   2.007   6.766  0.4180  0.4940 -2.4069
50285SOL     OW55792   1.705   0.979  10.536  0.4363 -0.1730 -0.6762
50285SOL    HW155793   1.750   0.894  10.530  1.2747  0.3315 -2.2056
50285SOL    HW255794   1.633   0.971  10.474 -0.8564 -0.5222  0.8289
50286SOL     OW55795   7.772   7.907   5.402 -0.5856  0.6620  0.3210
50286SOL    HW155796   7.794   7.995   5.432  0.2946  1.3122 -2.0447
50286SOL    HW255797   7.702   7.921   5.337 -0.8145 -0.4439  0.3178
50287SOL     OW55798  10.057   3.077  11.261 -0.7557  0.3990 -0.0556
50287SOL    HW155799  10.134   3.063  11.315 -0.7794 -0.1718 -0.1640
50287SOL    HW255800   9.999   3.004  11.282 -1.5630  1.1867  0.5226
50288SOL     OW55801   4.186   6.930   7.941 -0.8957 -0.2842 -0.4570
50288SOL    HW155802   4.231   7.003   7.983 -0.4874 -0.7631 -0.0428
50288SOL    HW255803   4.255   6.886   7.890 -0.4602 -1.9859  1.4700
50289SOL     OW55804   4.446  10.875   5.230 -0.5166  0.1882  0.3168
50289SOL    HW155805   4.372  10.914   5.277 -0.6149  3.1935 -2.0107
50289SOL    HW255806   4.522  10.925   5.259 -0.4044  1.2862 -1.6709
50290SOL     OW55807   7.064   0.493   8.101 -0.7159 -0.3947  0.4640
50290SOL    HW155808   7.141   0.464   8.052 -0.6686 -0.7749  0.7621
50290SOL    HW255809   7.075   0.588   8.109  1.1670 -0.7358  2.9712
50291SOL     OW55810   5.001   3.823   9.139  0.1988  0.2595 -0.4116
50291SOL    HW155811   5.058   3.899   9.124  0.3578  0.4053  0.7984
50291SOL    HW255812   4.917   3.862   9.164  0.7708  0.1165  2.0444
50292SOL     OW55813   8.663   4.233   9.276  0.1241 -0.6452 -0.0482
50292SOL    HW155814   8.629   4.309   9.229 -0.0738 -0.5526  0.2384
50292SOL    HW255815   8.608   4.227   9.354  1.5466  0.2767  1.0785
50293SOL     OW55816   7.434   4.953   7.401  0.3447  0.6103  0.3064
50293SOL    HW155817   7.460   4.976   7.312  0.5371  0.4697  0.3240
50293SOL    HW255818   7.339   4.963   7.402 -0.0151 -1.8257 -0.6640
50294SOL     OW55819   9.304   0.518   1.870 -0.7731 -0.1486  0.2072
50294SOL    HW155820   9.400   0.512   1.863 -0.1699  3.6594  2.2081
50294SOL    HW255821   9.273   0.512   1.780  1.3323 -1.2584 -0.5322
50295SOL     OW55822   3.050   8.176   1.675  0.1868 -0.0723 -0.0151
50295SOL    HW155823   3.070   8.102   1.618  1.1686  1.4346 -1.7439
50295SOL    HW255824   3.135   8.200   1.713 -0.0114  0.5403  0.0515
50296SOL     OW55825   1.026  10.048   7.267 -0.8993 -0.1503 -0.3982
50296SOL    HW155826   0.936  10.030   7.243 -0.5202  0.9038 -2.8863
50296SOL    HW255827   1.061  10.101   7.195  1.7543 -0.6779  0.3597
50297SOL     OW55828   7.359   0.256   0.871 -0.4128 -0.0366 -0.4518
50297SOL    HW155829   7.453   0.245   0.856 -0.0356  0.4583  1.3425
50297SOL    HW255830   7.330   0.171   0.903  0.0544  0.5996  1.8031
50298SOL     OW55831  10.996   9.362   3.226 -0.4263 -0.4039 -0.3731
50298SOL    HW155832  10.913   9.408   3.216 -0.4929 -0.5714 -0.6319
50298SOL    HW255833  11.015   9.365   3.319  0.1628  1.1749 -0.5109
50299SOL     OW55834   6.066   5.743   1.365  0.3640  0.0991  0.3117
50299SOL    HW155835   6.143   5.797   1.345  0.0728  0.5402  0.3795
50299SOL    HW255836   6.102   5.669   1.414  0.7669  0.2301  0.2243
50300SOL     OW55837   1.892   8.618   8.204 -0.4564 -0.1166 -0.0143
50300SOL    HW155838   1.921   8.706   8.226  1.6056 -0.5300 -0.7818
50300SOL    HW255839   1.842   8.589   8.279  0.8514  0.8613  1.2908
50301SOL     OW55840   2.197   8.615   5.005 -0.4091  0.2159 -0.6376
50301SOL    HW155841   2.179   8.530   4.965 -0.1671 -0.3035  0.3219
50301SOL    HW255842   2.268   8.598   5.067 -0.6137  1.0433 -0.1577
50302SOL     OW55843   9.437   4.483   3.193 -0.6738 -0.1095 -0.9628
50302SOL    HW155844   9.454   4.537   3.116  0.6674  0.4690 -0.3006
50302SOL    HW255845   9.348   4.451   3.181 -1.6931  2.6012 -1.1586
50303SOL     OW55846  10.561  11.237   8.642 -0.1833 -0.2091 -0.1390
50303SOL    HW155847  10.517  11.265   8.723 -0.7269 -0.4131 -0.3616
50303SOL    HW255848  10.516  11.156   8.617 -0.2999  0.0756 -0.8749
50304SOL     OW55849   6.426   4.276   7.256 -0.1762 -0.2674 -0.1409
50304SOL    HW155850   6.386   4.261   7.170 -0.3108 -2.6039  0.2456
50304SOL    HW255851   6.362   4.330   7.303 -0.4678  0.3639 -1.2476
50305SOL     OW55852   2.212   9.582   4.620 -0.2029  0.0044 -0.0205
50305SOL    HW155853   2.128   9.626   4.616  1.5769  3.8954  0.6436
50305SOL    HW255854   2.218   9.532   4.539 -3.0183 -0.3210 -0.0996
50306SOL     OW55855   7.380   3.296   0.974 -0.3996  0.0135  0.1141
50306SOL    HW155856   7.371   3.241   1.052  1.1604 -0.6460 -0.1211
50306SOL    HW255857   7.301   3.280   0.923 -1.2409  0.1258  1.3538
50307SOL     OW55858   8.408   1.523  10.084 -0.2777 -0.2279  0.1603
50307SOL    HW155859   8.403   1.456  10.152 -0.8154 -1.0805 -0.6902
50307SOL    HW255860   8.322   1.521  10.042  0.5462 -0.9192 -1.6141
50308SOL     OW55861   7.805   4.395   7.020  0.0031  0.1971  0.0217
50308SOL    HW155862   7.713   4.422   7.019 -0.6552 -1.8018  1.4922
50308SOL    HW255863   7.804   4.306   7.054  2.3633 -0.5097 -1.4912
50309SOL     OW55864   3.131  10.480   3.628  0.0439 -0.1745  0.0072
50309SOL    HW155865   3.118  10.469   3.722  0.1535  0.9955  0.1663
50309SOL    HW255866   3.045  10.468   3.589 -0.1295  0.0423  0.3271
50310SOL     OW55867   2.798   3.809  10.059 -0.4693 -0.2184  0.2790
50310SOL    HW155868   2.852   3.830   9.983 -0.4282  1.9695  0.8416
50310SOL    HW255869   2.712   3.845  10.038 -1.0986 -1.6527  0.3384
50311SOL     OW55870  11.523   8.647   3.499  0.0865  0.1720  0.4480
50311SOL    HW155871  11.508   8.742   3.498  1.1988  0.3612 -0.7244
50311SOL    HW255872  11.527   8.622   3.407 -0.4432 -1.0685  0.7500
50312SOL     OW55873   9.840  11.664   0.043  0.2934 -0.0432 -0.1381
50312SOL    HW155874   9.863  11.752   0.015  1.4252 -0.1153  0.4903
50312SOL    HW255875   9.746  11.668   0.061 -0.1173  0.4504 -2.1420
50313SOL     OW55876   7.203   6.647   6.244 -0.0756  0.3396 -0.2955
50313SOL    HW155877   7.155   6.636   6.326 -1.4847  0.8002 -1.0239
50313SOL    HW255878   7.265   6.574   6.242 -0.9193 -0.4232  0.5682
50314SOL     OW55879   1.882   8.810   8.477 -0.3463  0.3050  0.2480
50314SOL    HW155880   1.860   8.805   8.570 -1.2145 -1.6751 -0.0016
50314SOL    HW255881   1.804   8.847   8.436  0.5750  2.5898  0.4104
50315SOL     OW55882   5.709   8.988   7.892 -0.1485 -0.2089 -0.3607
50315SOL    HW155883   5.776   9.040   7.848 -1.2787 -0.4478 -2.5213
50315SOL    HW255884   5.633   9.046   7.897 -0.7540 -0.9394 -0.8515
50316SOL     OW55885   5.470   5.068   0.767  0.1504 -0.4098 -0.0990
50316SOL    HW155886   5.381   5.044   0.740  0.1567 -0.0078 -0.4980
50316SOL    HW255887   5.460   5.156   0.805  0.1561 -0.9267  1.1475
50317SOL     OW55888  11.443   0.251   4.002  0.7308 -0.3786  0.3589
50317SOL    HW155889  11.460   0.205   3.920  2.8308 -0.4121  0.7620
50317SOL    HW255890  11.424   0.341   3.975 -2.3275 -1.1170 -0.3532
50318SOL     OW55891   6.088   5.015   5.936  0.0141 -0.0163  0.4817
50318SOL    HW155892   6.139   4.951   5.985  1.8568  2.2543  1.6471
50318SOL    HW255893   6.131   5.020   5.851  1.0967  1.0875  1.0798
50319SOL     OW55894   0.653   3.185   6.899  0.1765 -0.2316 -0.5455
50319SOL    HW155895   0.610   3.248   6.842  0.6492 -0.2294 -0.9065
50319SOL    HW255896   0.647   3.224   6.986  0.1471  0.1415 -0.7111
50320SOL     OW55897   9.728  10.411   7.263 -0.3780  0.7640 -0.4993
50320SOL    HW155898   9.731  10.484   7.200 -0.9943  1.2933  0.0797
50320SOL    HW255899   9.637  10.381   7.261 -0.7994  1.7848  1.2439
50321SOL     OW55900   4.058   9.320   6.421  0.4141 -0.0211 -0.5597
50321SOL    HW155901   4.047   9.416   6.424  4.3116  0.5823 -0.6789
50321SOL    HW255902   3.994   9.287   6.484  0.7820  2.9150  1.5723
50322SOL     OW55903   8.788   3.812   1.553 -0.3967 -0.0644 -0.0246
50322SOL    HW155904   8.723   3.743   1.537 -0.4767 -0.1019  0.4427
50322SOL    HW255905   8.752   3.890   1.511 -1.3345  0.2215  1.2399
50323SOL     OW55906   0.258   7.598   6.605 -0.4526  0.6436  0.0567
50323SOL    HW155907   0.212   7.663   6.553 -1.0069  0.8947  0.8336
50323SOL    HW255908   0.195   7.572   6.672  0.0728 -0.0293  0.3061
50324SOL     OW55909   2.787   7.408   8.980  0.1107 -0.1729 -0.3301
50324SOL    HW155910   2.854   7.475   8.967  0.0626  0.3683  1.9635
50324SOL    HW255911   2.710   7.456   9.010 -0.5943 -1.0431 -0.7096
50325SOL     OW55912  10.288   5.465   4.010  0.0208 -0.2100  0.1553
50325SOL    HW155913  10.321   5.552   4.030 -0.0231 -0.1620  0.0225
50325SOL    HW255914  10.205   5.459   4.057 -0.1468 -0.0483 -0.1200
50326SOL     OW55915   8.658   0.080   1.880 -0.0840  0.4897 -0.1155
50326SOL    HW155916   8.620   0.151   1.828  0.6155  0.3933 -0.7650
50326SOL    HW255917   8.752   0.096   1.877  0.0217 -0.0161  0.4027
50327SOL     OW55918   6.443  10.039   7.813  0.2369  0.5389  0.3200
50327SOL    HW155919   6.349  10.054   7.816  0.3044  0.8502  1.1832
50327SOL    HW255920   6.458   9.995   7.729 -0.6371  0.7186  0.0617
50328SOL     OW55921   1.820   1.551   9.957  0.5128 -0.0672  0.1464
50328SOL    HW155922   1.826   1.459   9.929  0.0796 -0.3059  0.8252
50328SOL    HW255923   1.867   1.600   9.888  0.8227 -0.7995 -0.1748
50329SOL     OW55924   0.827   1.386   1.883  0.0945 -1.0214 -0.3070
50329SOL    HW155925   0.786   1.302   1.901  0.6181 -1.5603 -1.4619
50329SOL    HW255926   0.755   1.447   1.873 -0.4086 -1.7470 -1.3279
50330SOL     OW55927  11.518   3.958   0.933  0.6155  0.4341 -0.0561
50330SOL    HW155928  11.580   4.019   0.893  1.6484  0.4505  1.5054
50330SOL    HW255929  11.549   3.946   1.023 -0.0900 -1.6699 -0.0294
50331SOL     OW55930  11.381   4.701   9.948 -0.0613  0.7091  0.5800
50331SOL    HW155931  11.404   4.793   9.941  3.5262  0.0534  1.5316
50331SOL    HW255932  11.427   4.659   9.875  0.0076 -0.5232  1.2944
50332SOL     OW55933   7.657   8.490   7.107 -0.5515 -0.1994 -0.1258
50332SOL    HW155934   7.644   8.487   7.012 -1.1253  1.6674 -0.1540
50332SOL    HW255935   7.740   8.446   7.122 -0.6739 -0.9234 -1.4385
50333SOL     OW55936   1.084   4.171   7.671 -0.8289 -0.1416 -0.2444
50333SOL    HW155937   1.114   4.134   7.754 -3.1383  1.6345  1.4891
50333SOL    HW255938   0.989   4.169   7.676 -1.0485  2.8605 -1.4736
50334SOL     OW55939   6.560   0.331   3.340  0.7997 -0.2091 -0.2363
50334SOL    HW155940   6.494   0.396   3.364  2.2792  1.2812 -0.0315
50334SOL    HW255941   6.525   0.290   3.261  0.0229  1.1818 -0.6598
50335SOL     OW55942   8.156   4.201   4.464  0.5516  0.4987 -0.5919
50335SOL    HW155943   8.172   4.119   4.512 -1.6312 -0.5049 -1.4626
50335SOL    HW255944   8.129   4.263   4.531  0.5095  0.0116 -0.1460
50336SOL     OW55945   0.463   4.606   7.656 -0.4086 -0.0878  0.5463
50336SOL    HW155946   0.542   4.622   7.605  0.1319  1.3203  1.7476
50336SOL    HW255947   0.408   4.551   7.600  1.4466 -1.1737 -0.2779
50337SOL     OW55948   2.886  11.512   1.492  0.4478 -0.9913 -0.0113
50337SOL    HW155949   2.947  11.541   1.424 -1.0595 -0.8197 -1.3298
50337SOL    HW255950   2.813  11.473   1.445 -0.8181 -0.5691  1.5013
50338SOL     OW55951   1.773   5.574   8.871 -0.2740  0.6305 -0.8794
50338SOL    HW155952   1.767   5.489   8.914  1.1944 -0.5808 -2.8638
50338SOL    HW255953   1.699   5.576   8.810 -1.0970  1.3871  0.1323
50339SOL     OW55954   1.822   4.871   3.900 -0.2487 -0.5289 -0.0771
50339SOL    HW155955   1.901   4.837   3.858 -0.4655  0.0982 -1.0085
50339SOL    HW255956   1.770   4.907   3.829  0.3711  2.5963  0.9074
50340SOL     OW55957   6.014   3.030   8.440 -0.3874 -0.3164  0.3665
50340SOL    HW155958   6.014   2.952   8.496 -0.7758 -1.3736 -1.0531
50340SOL    HW255959   5.949   3.088   8.479 -0.9576 -1.2079  0.7667
50341SOL     OW55960   5.338   6.258   1.220  0.2149 -0.4764  0.3903
50341SOL    HW155961   5.421   6.286   1.258  1.1784 -0.7586 -1.3968
50341SOL    HW255962   5.280   6.333   1.232  0.8713 -0.0773  1.1981
50342SOL     OW55963   5.207   5.289   1.216 -0.1879 -0.4556 -0.4468
50342SOL    HW155964   5.289   5.339   1.212 -0.4372  0.0075  0.0875
50342SOL    HW255965   5.154   5.323   1.144  0.1220 -0.8286 -0.8596
50343SOL     OW55966   5.625   1.827   3.796  0.2161  0.5164  0.4576
50343SOL    HW155967   5.606   1.898   3.734 -1.9530  2.5746  3.1900
50343SOL    HW255968   5.560   1.760   3.776  1.0675  0.0588 -0.9344
50344SOL     OW55969   6.210   0.744  10.994  0.4801 -0.3520  1.1887
50344SOL    HW155970   6.146   0.790  11.049  0.3063  0.9393 -0.0198
50344SOL    HW255971   6.233   0.666  11.044 -0.8784 -0.0566  2.3463
50345SOL     OW55972   0.828   4.589  10.708  0.3413  0.1363  0.2293
50345SOL    HW155973   0.753   4.541  10.743 -0.0428  1.0339  0.6854
50345SOL    HW255974   0.892   4.521  10.686 -0.1641 -0.5747  0.8914
50346SOL     OW55975  10.318  10.404   4.114 -0.1154  0.5722  0.0080
50346SOL    HW155976  10.380  10.473   4.137  0.5779 -0.2530  0.6459
50346SOL    HW255977  10.311  10.350   4.192 -2.0685  0.9333  0.1536
50347SOL     OW55978   1.236   8.760   8.113 -0.2989 -0.1595  0.2522
50347SOL    HW155979   1.213   8.793   8.199 -2.0513  0.8212 -0.5443
50347SOL    HW255980   1.183   8.681   8.102  1.7225 -1.7021  0.9862
50348SOL     OW55981  10.579   7.829   8.647  0.3364  0.1953 -0.0536
50348SOL    HW155982  10.634   7.834   8.725  0.1461  0.1522  0.0836
50348SOL    HW255983  10.603   7.745   8.606 -0.1476 -0.1686  0.3988
50349SOL     OW55984  11.646  11.296   1.829 -0.0218  0.1049  0.0467
50349SOL    HW155985  11.602  11.212   1.842  1.7114 -0.7663  0.6195
50349SOL    HW255986  11.725  11.275   1.780 -1.0269  1.8716 -2.5636
50350SOL     OW55987   3.547   7.628   1.972  0.0557  0.1563  0.4982
50350SOL    HW155988   3.482   7.609   1.906 -0.5741  0.8936  0.8914
50350SOL    HW255989   3.497   7.650   2.050  0.7330  1.9781  0.4666
50351SOL     OW55990   5.517   9.946  10.122 -0.0609 -0.2005  0.0278
50351SOL    HW155991   5.496   9.854  10.134  0.8313 -0.5254 -0.7775
50351SOL    HW255992   5.555   9.974  10.206  0.9945 -0.9584 -0.1788
50352SOL     OW55993   4.311   0.452   3.973  0.3979 -0.5389  0.4188
50352SOL    HW155994   4.245   0.413   4.031  0.5559 -1.7088 -0.1595
50352SOL    HW255995   4.285   0.544   3.966 -0.4476 -0.7028  1.2023
50353SOL     OW55996   4.792   2.417   8.970 -0.3587 -0.3835 -0.7218
50353SOL    HW155997   4.700   2.427   8.994 -0.1776 -1.1083  0.3443
50353SOL    HW255998   4.827   2.506   8.975 -1.2972  0.1218 -2.5288
50354SOL     OW55999   6.515   8.403   8.133 -0.1562  0.1063  0.1743
50354SOL    HW156000   6.446   8.460   8.166 -1.7941 -0.9167 -1.2943
50354SOL    HW256001   6.558   8.370   8.211 -1.1773  0.9483  1.1320
50355SOL     OW56002   9.887   7.120  10.141  0.6271  0.4148  0.0902
50355SOL    HW156003   9.840   7.041  10.167  3.6251 -2.6177 -2.7415
50355SOL    HW256004   9.935   7.146  10.220  1.0118 -1.7908  0.6431
50356SOL     OW56005   7.368   7.581   1.045  0.1778 -0.1095 -0.4827
50356SOL    HW156006   7.320   7.628   0.977 -1.7167  0.6694  1.2601
50356SOL    HW256007   7.417   7.649   1.092  0.0566 -0.3570  0.0167
50357SOL     OW56008   4.879   9.294  11.473  0.5103  0.0078 -0.2600
50357SOL    HW156009   4.952   9.300  11.411  2.0773  1.0756  1.5551
50357SOL    HW256010   4.918   9.316  11.557 -2.1711  2.0265  0.6134
50358SOL     OW56011   8.536   1.738  11.276 -0.5669 -0.7350  0.0869
50358SOL    HW156012   8.536   1.730  11.372 -1.9252 -0.9795  0.0888
50358SOL    HW256013   8.540   1.647  11.245 -0.1103 -0.6542 -0.0969
50359SOL     OW56014   8.176  11.279   1.158 -0.2398 -0.5143  0.0894
50359SOL    HW156015   8.236  11.272   1.232 -0.0091  4.1432  0.6407
50359SOL    HW256016   8.089  11.287   1.198 -0.2098  1.1257 -0.0949
50360SOL     OW56017  11.490   0.590   2.649 -0.0571  0.2366 -0.2237
50360SOL    HW156018  11.541   0.598   2.729  0.3505  1.6409 -0.5953
50360SOL    HW256019  11.480   0.496   2.636  2.9586 -0.1485 -0.4585
50361SOL     OW56020   6.988   3.747   4.211  0.7113 -0.3250  0.4685
50361SOL    HW156021   7.020   3.760   4.122  0.4427 -0.4729  0.3518
50361SOL    HW256022   6.928   3.820   4.226  1.8602  0.5471  1.0515
50362SOL     OW56023   3.471  11.099   4.809 -0.8240 -0.1936 -0.1270
50362SOL    HW156024   3.513  11.164   4.865  0.8244 -1.0122 -0.3336
50362SOL    HW256025   3.445  11.029   4.868 -0.8899 -0.1814 -0.1411
50363SOL     OW56026   2.792   9.281   0.160  0.4582  0.0860  0.2145
50363SOL    HW156027   2.815   9.196   0.198  1.6060 -0.1582 -0.9982
50363SOL    HW256028   2.712   9.264   0.110 -0.2525  0.1012  1.3125
50364SOL     OW56029   0.326   7.772   0.610 -0.4577 -0.1284 -0.2583
50364SOL    HW156030   0.247   7.824   0.596 -0.5949 -0.2582  0.0298
50364SOL    HW256031   0.344   7.732   0.525 -1.1639 -0.7447 -0.1197
50365SOL     OW56032   6.579   4.260   6.962  0.2637 -0.3640 -0.5479
50365SOL    HW156033   6.531   4.253   6.879 -0.2726 -0.2024 -0.2547
50365SOL    HW256034   6.531   4.327   7.011 -0.1033 -1.2703  0.3506
50366SOL     OW56035  10.530   2.970   0.715 -0.3665 -0.5758  0.4241
50366SOL    HW156036  10.451   3.006   0.675  0.6569  0.1012 -1.0804
50366SOL    HW256037  10.551   3.031   0.785 -1.8045 -1.4057  1.6311
50367SOL     OW56038   0.813   1.996   6.122 -0.6135 -0.4030  0.0907
50367SOL    HW156039   0.872   1.937   6.075  1.2254  0.5447  1.0767
50367SOL    HW256040   0.767   2.044   6.052  0.2205 -0.7702 -0.7386
50368SOL     OW56041   3.860   9.122  10.229  0.8309  0.1420  0.1383
50368SOL    HW156042   3.881   9.143  10.138 -1.5659 -0.1295 -0.5542
50368SOL    HW256043   3.811   9.199  10.260 -1.6390 -1.2618 -0.0676
50369SOL     OW56044   6.011   6.296   0.884 -0.3836 -0.2515 -0.3159
50369SOL    HW156045   5.933   6.341   0.917  0.7261  1.1226  0.4900
50369SOL    HW256046   5.978   6.210   0.857 -2.0265 -0.0204  0.7881
50370SOL     OW56047   3.090  10.615   1.642  0.5644  0.0022 -0.1828
50370SOL    HW156048   3.055  10.616   1.731 -0.5958 -0.4667 -0.6121
50370SOL    HW256049   3.022  10.656   1.589 -0.3052 -2.6978 -1.3475
50371SOL     OW56050   7.840   3.147   6.051 -0.2397 -0.1839  0.4205
50371SOL    HW156051   7.823   3.067   6.101 -1.8228 -0.3439 -0.3164
50371SOL    HW256052   7.814   3.218   6.109 -0.6424 -0.2985  0.3804
50372SOL     OW56053   2.573   0.279  11.108 -0.0776 -0.6968 -0.4079
50372SOL    HW156054   2.534   0.193  11.093 -0.4642 -0.4724 -0.6802
50372SOL    HW256055   2.625   0.296  11.029 -1.5492  0.1697 -1.2401
50373SOL     OW56056   3.818  10.830   3.858  0.1170  0.5491  0.6486
50373SOL    HW156057   3.792  10.804   3.946 -0.1363  0.9010  0.6800
50373SOL    HW256058   3.825  10.747   3.810  0.4669  0.3425  1.0526
50374SOL     OW56059   5.088   4.056   9.047  0.0245  0.1176 -0.0331
50374SOL    HW156060   5.183   4.072   9.047  0.0457  0.3235 -2.4120
50374SOL    HW256061   5.050   4.143   9.062  0.1316 -0.2104  2.7189
50375SOL     OW56062   4.102   4.980   5.801 -0.0837 -0.1926  0.2466
50375SOL    HW156063   4.047   4.911   5.764 -0.1720 -0.6019  1.1057
50375SOL    HW256064   4.084   4.977   5.895  0.0958  0.8455  0.3316
50376SOL     OW56065   7.776  11.160   0.035  0.0666 -0.0950  0.1934
50376SOL    HW156066   7.714  11.211  -0.017  0.9846 -0.3023 -1.1245
50376SOL    HW256067   7.736  11.073   0.042 -0.5868  0.2344  0.8325
50377SOL     OW56068   2.578   7.057   6.483  0.1195  0.0935  0.0471
50377SOL    HW156069   2.501   7.052   6.540 -1.3817  1.0280 -1.7824
50377SOL    HW256070   2.544   7.044   6.395  2.3716 -1.3836 -0.6854
50378SOL     OW56071   7.950   0.441   1.798  0.4188  0.1614  0.4524
50378SOL    HW156072   8.013   0.381   1.837  0.7712 -1.0694 -1.8556
50378SOL    HW256073   7.865   0.398   1.812  0.3229  0.6363  1.4265
50379SOL     OW56074   9.506   9.887   8.027 -0.0209 -0.1045  0.1091
50379SOL    HW156075   9.478   9.937   8.104  0.5394  1.8920 -0.8972
50379SOL    HW256076   9.591   9.850   8.053 -0.3219 -0.3141  0.8029
50380SOL     OW56077   3.065   3.843   6.267 -0.5145 -0.1144 -0.1481
50380SOL    HW156078   3.055   3.793   6.186 -1.2378 -0.7640  0.3277
50380SOL    HW256079   3.001   3.804   6.327 -3.5801  3.4124 -0.7353
50381SOL     OW56080  10.341   2.465   8.395  0.0152  0.1579 -0.1205
50381SOL    HW156081  10.374   2.554   8.411 -0.2516  0.1298  0.6458
50381SOL    HW256082  10.400   2.408   8.444  0.3438 -0.1224 -0.8246
50382SOL     OW56083  11.484   1.966   7.787 -0.2723  0.4731  0.0347
50382SOL    HW156084  11.556   1.926   7.836 -0.4960  1.3499  1.1236
50382SOL    HW256085  11.418   1.985   7.853 -0.5358  1.8120 -0.5823
50383SOL     OW56086   3.154   4.965   9.091 -0.0864  0.3790  0.4935
50383SOL    HW156087   3.101   4.990   9.015 -0.2165 -1.6799 -0.1442
50383SOL    HW256088   3.092   4.968   9.164 -0.5076  0.2836  0.1502
50384SOL     OW56089   2.380   7.520  11.623 -0.0705 -0.2729  0.2294
50384SOL    HW156090   2.388   7.425  11.612 -0.9563 -0.1538 -1.8632
50384SOL    HW256091   2.454   7.544  11.678  3.1993 -1.5454 -3.1874
50385SOL     OW56092   6.309   9.103   7.223 -0.1902 -0.0979  0.0289
50385SOL    HW156093   6.239   9.038   7.226  1.1850 -1.5927  2.3093
50385SOL    HW256094   6.333   9.107   7.130 -1.8335 -1.1435 -0.4876
50386SOL     OW56095  10.710   6.517   1.587  0.5893  0.6359 -0.1827
50386SOL    HW156096  10.785   6.476   1.631 -1.5037 -2.8134  0.5192
50386SOL    HW256097  10.653   6.444   1.563 -1.4449  2.8956 -2.9456
50387SOL     OW56098   3.678   9.501   0.269 -0.0525  0.0298 -0.5559
50387SOL    HW156099   3.627   9.423   0.289  0.1619  0.2023  0.7711
50387SOL    HW256100   3.734   9.514   0.346 -0.2313  1.5948 -0.6447
50388SOL     OW56101   3.525   2.601   5.903  0.0537 -0.1711  0.5924
50388SOL    HW156102   3.558   2.590   5.992 -0.4594 -0.4255  0.7559
50388SOL    HW256103   3.546   2.518   5.860  2.7278  0.8797 -0.3509
50389SOL     OW56104   5.123   9.292  11.336  0.4979 -0.4024 -0.0495
50389SOL    HW156105   5.191   9.345  11.378 -0.3841  0.1027  0.7654
50389SOL    HW256106   5.168   9.251  11.262  1.8994 -0.7183  0.9288
50390SOL     OW56107   0.537   0.522   7.538  0.0535  0.5754 -0.0222
50390SOL    HW156108   0.617   0.528   7.486  1.4581 -0.0816  1.9629
50390SOL    HW256109   0.561   0.559   7.623 -1.9486  0.9225  0.4407
50391SOL     OW56110   0.713   0.447   0.778  0.4779 -0.0792  0.3475
50391SOL    HW156111   0.716   0.461   0.873  0.3211 -1.0785  0.5048
50391SOL    HW256112   0.774   0.513   0.743 -2.0213  2.6919  0.8373
50392SOL     OW56113   5.092   5.987   5.586 -0.3357  0.0077  0.5750
50392SOL    HW156114   5.000   5.966   5.569 -0.5003 -0.4446  1.9558
50392SOL    HW256115   5.133   5.903   5.605  0.0867  0.3533  1.2223
50393SOL     OW56116   5.281   8.007   5.691  0.8442 -0.2623 -0.4143
50393SOL    HW156117   5.192   8.039   5.678 -0.1766 -3.0783 -1.2057
50393SOL    HW256118   5.320   8.008   5.603  1.0734 -0.3765 -0.3165
50394SOL     OW56119   6.108   4.836   9.780 -0.2211  0.1092 -0.5363
50394SOL    HW156120   6.182   4.837   9.841 -0.3938  0.2102 -0.3227
50394SOL    HW256121   6.066   4.751   9.795  0.8401 -0.6865 -1.8816
50395SOL     OW56122  10.772   3.202  11.087 -0.1778 -0.3772  0.2325
50395SOL    HW156123  10.818   3.119  11.104 -1.1294 -0.9347  0.1732
50395SOL    HW256124  10.680   3.183  11.109 -0.1157  1.2610  2.1377
50396SOL     OW56125  10.651   4.989   7.926  0.4277  0.6359 -0.2787
50396SOL    HW156126  10.739   4.997   7.892  0.0929  2.4354 -0.8262
50396SOL    HW256127  10.653   5.036   8.010  0.1591  0.0751  0.0500
50397SOL     OW56128   2.876   8.614   1.626  0.1232 -0.2260  0.4356
50397SOL    HW156129   2.949   8.555   1.606  0.3090 -0.8309  2.6944
50397SOL    HW256130   2.798   8.559   1.623  0.1193 -0.2579  1.0157
50398SOL     OW56131   8.541   9.058   2.253  0.3566  0.8245 -0.3184
50398SOL    HW156132   8.522   9.125   2.187 -3.2548  0.1311 -0.1951
50398SOL    HW256133   8.541   9.106   2.336  1.5281  1.1908 -0.5178
50399SOL     OW56134   1.115   1.100   5.591  0.0768  0.3403  0.0664
50399SOL    HW156135   1.127   1.173   5.652 -2.9175  1.5465 -0.6048
50399SOL    HW256136   1.111   1.023   5.647 -0.3708  1.1456  1.1889
50400SOL     OW56137   9.118   8.207   4.554  0.4097 -0.2686 -0.1959
50400SOL    HW156138   9.089   8.144   4.619 -1.2874 -0.6986 -1.3021
50400SOL    HW256139   9.191   8.253   4.595 -1.1846  0.1296  2.3519
50401SOL     OW56140   4.967   2.747   2.504  0.0510 -0.3345  0.5925
50401SOL    HW156141   5.001   2.712   2.585  0.2514 -1.2446  0.1239
50401SOL    HW256142   4.955   2.841   2.521  1.1922 -0.3035  1.2873
50402SOL     OW56143   9.295   8.329   6.947  0.1421 -0.1734  0.0116
50402SOL    HW156144   9.355   8.329   6.873 -0.2073  1.4939 -0.3250
50402SOL    HW256145   9.352   8.324   7.024  0.6273 -0.0473 -0.3334
50403SOL     OW56146   0.322   2.546   4.821  0.0292 -0.1528  0.1571
50403SOL    HW156147   0.235   2.586   4.825 -0.0660 -0.4431  1.6654
50403SOL    HW256148   0.382   2.616   4.849  0.1483 -0.2756  0.2149
50404SOL     OW56149   2.167   8.180   1.286  0.1592  0.5741 -0.0715
50404SOL    HW156150   2.219   8.202   1.363 -0.0888 -1.2841  0.6975
50404SOL    HW256151   2.163   8.084   1.287 -1.5030  0.5871 -1.2909
50405SOL     OW56152   9.710   4.897   8.725  0.3625 -0.1285  0.2203
50405SOL    HW156153   9.671   4.961   8.783 -2.9791 -0.8414 -1.0134
50405SOL    HW256154   9.771   4.947   8.671  0.0641  1.3987  1.2438
50406SOL     OW56155   8.401   1.862   5.373 -0.3479 -0.3135  0.3368
50406SOL    HW156156   8.451   1.941   5.352  0.8279 -0.8824  0.9488
50406SOL    HW256157   8.383   1.823   5.288 -0.4920  0.3365  0.0597
50407SOL     OW56158   5.420   1.802  11.332 -0.2661 -0.6400 -0.6065
50407SOL    HW156159   5.449   1.757  11.253 -2.0116 -2.1687 -0.4553
50407SOL    HW256160   5.428   1.736  11.401 -0.1441  0.2112  0.2205
50408SOL     OW56161   9.076   9.256  11.436 -0.0265  0.0133 -0.3221
50408SOL    HW156162   9.132   9.196  11.485 -1.9111  0.5104  2.7214
50408SOL    HW256163   9.016   9.199  11.387 -0.7509 -0.6537  1.2619
50409SOL     OW56164   4.971   9.279  10.123 -0.0001  0.6400  0.2928
50409SOL    HW156165   4.982   9.196  10.076  2.4132  0.7402  0.5545
50409SOL    HW256166   4.966   9.253  10.215  0.9771  0.7519  0.3938
50410SOL     OW56167   3.601   2.170   8.580  0.1228  0.1485 -0.3101
50410SOL    HW156168   3.536   2.195   8.514  0.3656  0.8277 -0.3041
50410SOL    HW256169   3.550   2.132   8.651 -0.1804 -0.1939 -0.7029
50411SOL     OW56170   8.086   0.341   3.220 -0.0842  0.5902  0.1714
50411SOL    HW156171   8.139   0.417   3.197 -0.0181  1.1055  1.9320
50411SOL    HW256172   8.149   0.274   3.245 -0.2016  0.4972  0.2201
50412SOL     OW56173   3.470  11.073   3.862 -0.4516  0.4722  0.3926
50412SOL    HW156174   3.422  10.992   3.847 -1.1026  1.1181 -1.2234
50412SOL    HW256175   3.553  11.061   3.815 -0.4007  0.6121  0.4455
50413SOL     OW56176   0.304   1.546   2.567 -0.2641  0.4708 -0.5263
50413SOL    HW156177   0.277   1.611   2.502  1.0106  0.4770 -1.0919
50413SOL    HW256178   0.391   1.575   2.595  0.0263 -0.5990 -0.2621
50414SOL     OW56179   7.128   0.605   0.718 -0.0013 -0.0845 -0.2197
50414SOL    HW156180   7.035   0.587   0.707  0.1678 -1.1678 -0.0018
50414SOL    HW256181   7.160   0.533   0.772  1.0069  0.1461 -0.4950
50415SOL     OW56182  11.647  10.373   9.207 -0.9035 -0.0364 -0.6505
50415SOL    HW156183  11.720  10.351   9.265 -2.1831  0.2281  1.1582
50415SOL    HW256184  11.685  10.434   9.144  0.3248  0.5825  0.6173
50416SOL     OW56185   8.165   7.015   2.208  0.0746 -0.2474  0.5299
50416SOL    HW156186   8.252   7.018   2.248  0.8805  0.6109 -1.1911
50416SOL    HW256187   8.123   7.096   2.236  0.2610 -0.1057  0.3938
50417SOL     OW56188   9.774   7.442   7.269  0.5616  0.0901 -0.5503
50417SOL    HW156189   9.831   7.413   7.197  3.2072  1.1745  0.9524
50417SOL    HW256190   9.777   7.537   7.264 -0.3842  0.1630  0.1568
50418SOL     OW56191   9.046   3.421   0.280 -0.0829 -0.1752 -0.0006
50418SOL    HW156192   8.999   3.437   0.362  0.6987  1.2442  0.1974
50418SOL    HW256193   9.138   3.415   0.306  0.1349 -0.0593 -0.7274
50419SOL     OW56194   8.492   5.059   2.729  0.4847 -0.1570 -0.3586
50419SOL    HW156195   8.587   5.053   2.745  0.3231 -0.1163  0.6929
50419SOL    HW256196   8.469   5.148   2.754  0.1683 -0.1626 -0.6273
50420SOL     OW56197   2.380   8.619   4.329  0.4744 -0.5815  0.1172
50420SOL    HW156198   2.463   8.627   4.376  0.5318  1.6470 -0.2307
50420SOL    HW256199   2.314   8.630   4.396  0.4899 -1.0266  0.2046
50421SOL     OW56200   1.848   4.950   4.952 -0.2406 -0.1144 -0.2108
50421SOL    HW156201   1.918   5.014   4.940  1.8376 -1.9637  1.1627
50421SOL    HW256202   1.863   4.914   5.039 -3.2777 -0.2558  0.3372
50422SOL     OW56203   6.350   8.909   4.897 -0.1952  0.1717  0.5559
50422SOL    HW156204   6.280   8.952   4.947 -2.3088 -1.9756 -0.3830
50422SOL    HW256205   6.362   8.966   4.821 -0.4937  0.8767  1.0224
50423SOL     OW56206   6.188   5.974   0.651 -0.3015 -0.3718 -0.2323
50423SOL    HW156207   6.280   5.951   0.634 -0.0167  1.2338 -1.0087
50423SOL    HW256208   6.141   5.945   0.573 -0.3529 -0.5338 -0.1435
50424SOL     OW56209   1.816   8.149   4.424 -0.9545 -0.2856 -0.7815
50424SOL    HW156210   1.808   8.177   4.332  0.0501 -3.6839 -2.0503
50424SOL    HW256211   1.729   8.116   4.446 -1.1123  0.2467 -0.5900
50425SOL     OW56212   9.918  11.194   7.421 -0.3762  0.0291  0.3560
50425SOL    HW156213   9.865  11.146   7.485 -0.4318  0.2962  0.5096
50425SOL    HW256214  10.002  11.147   7.421 -1.3453 -1.8386 -1.5962
50426SOL     OW56215   4.041  11.303   7.804 -0.2195 -0.0116  0.2144
50426SOL    HW156216   4.124  11.332   7.842  0.1851 -0.0057 -0.6386
50426SOL    HW256217   4.043  11.208   7.811 -0.4534  0.0236  0.8108
50427SOL     OW56218   0.413  11.152   1.884 -0.5833 -0.2226 -0.3110
50427SOL    HW156219   0.337  11.164   1.826 -0.8512 -0.3778  0.0014
50427SOL    HW256220   0.412  11.228   1.942 -0.4779 -0.2044 -0.3345
50428SOL     OW56221   8.071   2.655   4.920  0.4266 -0.6634  0.5570
50428SOL    HW156222   7.989   2.703   4.934  0.6267 -0.8273  2.5695
50428SOL    HW256223   8.074   2.591   4.991  1.1822 -2.2711 -0.8578
50429SOL     OW56224  10.307  11.043   2.110  0.5913 -0.3685  0.3788
50429SOL    HW156225  10.319  10.982   2.038  0.6744  1.7805 -1.5454
50429SOL    HW256226  10.223  11.086   2.092 -0.1709 -0.8565  2.4657
50430SOL     OW56227   6.429  11.394   4.227  0.3501 -0.1792  0.5840
50430SOL    HW156228   6.383  11.428   4.304 -1.0439 -1.4878  0.3641
50430SOL    HW256229   6.415  11.460   4.160  1.2321  0.7769  1.2865
50431SOL     OW56230   4.313   9.529   3.715 -0.0963 -0.1790 -0.6212
50431SOL    HW156231   4.393   9.480   3.697  0.6905  1.1550 -0.9916
50431SOL    HW256232   4.279   9.492   3.796  0.0980 -1.7282 -1.2174
50432SOL     OW56233   2.432   9.212  11.450 -0.2753 -0.2917  0.0181
50432SOL    HW156234   2.471   9.268  11.517 -2.4157  0.5092  0.6769
50432SOL    HW256235   2.454   9.254  11.367  2.3229 -1.2431  0.1377
50433SOL     OW56236   4.046   3.186   1.040 -0.1888 -0.5631 -0.2370
50433SOL    HW156237   4.138   3.211   1.040  0.4125 -2.3720  2.8271
50433SOL    HW256238   4.032   3.148   0.953  1.4947  1.0103 -1.2869
50434SOL     OW56239   2.468   9.481   9.182  0.5806 -0.6262 -0.4054
50434SOL    HW156240   2.458   9.545   9.111  1.6908 -0.8775 -0.8048
50434SOL    HW256241   2.490   9.533   9.259 -1.6491 -0.2428  0.0551
50435SOL     OW56242   5.427  10.570   4.374 -0.3285 -0.3384 -0.0674
50435SOL    HW156243   5.383  10.647   4.337 -1.8476 -0.3945  1.5144
50435SOL    HW256244   5.426  10.585   4.468 -1.1688 -2.5319  0.3283
50436SOL     OW56245   0.139  11.461  11.624  0.0380  0.2349  0.1140
50436SOL    HW156246   0.128  11.485  11.716  2.3800 -0.0214  0.5412
50436SOL    HW256247   0.099  11.533  11.575 -1.3912  0.2909  1.3159
50437SOL     OW56248   2.893  10.265   2.776 -0.6781 -0.8410  0.9373
50437SOL    HW156249   2.955  10.334   2.751  0.4494 -1.9227  0.6602
50437SOL    HW256250   2.808  10.309   2.776  0.3187  1.5244  4.3659
50438SOL     OW56251   4.281   7.808   7.445  0.2103  0.0421  0.7261
50438SOL    HW156252   4.342   7.738   7.421 -0.9732 -0.9656  0.5264
50438SOL    HW256253   4.305   7.831   7.535  1.6430  0.5313  0.2474
50439SOL     OW56254   8.245   7.751   8.698  0.3845 -0.6145  0.0520
50439SOL    HW156255   8.207   7.773   8.613  0.7294 -0.2861 -0.0176
50439SOL    HW256256   8.338   7.773   8.689  0.3844 -0.3906  0.5745
50440SOL     OW56257  10.896  10.693   5.404 -0.0479  0.6092 -0.5058
50440SOL    HW156258  10.822  10.641   5.372 -0.7148  0.2998  1.4075
50440SOL    HW256259  10.892  10.684   5.499  1.9746  1.2723 -0.3160
50441SOL     OW56260   5.375   6.649  11.643  0.0346  0.3623  0.5067
50441SOL    HW156261   5.318   6.641  11.567  0.7657  1.8092 -0.2208
50441SOL    HW256262   5.347   6.577  11.701  0.4973 -1.7923 -1.7588
50442SOL     OW56263   8.205   0.566   8.089 -0.1065  0.1103  0.4304
50442SOL    HW156264   8.236   0.655   8.102  1.0668 -0.0203 -1.1576
50442SOL    HW256265   8.151   0.570   8.010 -2.1196 -0.1587  1.7222
50443SOL     OW56266   3.293   0.205  10.592 -0.0884  0.4152  0.2283
50443SOL    HW156267   3.222   0.261  10.625 -1.1027 -1.1385  0.7922
50443SOL    HW256268   3.249   0.126  10.562  1.4592 -0.8466  1.1326
50444SOL     OW56269   5.892  10.008   0.893  0.2689 -0.0732 -0.0095
50444SOL    HW156270   5.821  10.045   0.840 -0.0674 -0.8422 -0.1170
50444SOL    HW256271   5.919  10.079   0.951  0.3867  0.6619 -0.9532
50445SOL     OW56272   7.421   0.609   3.964 -0.2970 -0.0835 -0.1906
50445SOL    HW156273   7.336   0.628   4.003 -0.9383 -0.2395 -1.4785
50445SOL    HW256274   7.447   0.692   3.922  0.0437 -0.1268 -0.0678
50446SOL     OW56275   3.152   3.496  10.070 -0.4235 -0.1076 -0.0443
50446SOL    HW156276   3.238   3.490  10.111 -0.4995 -1.8974 -0.0468
50446SOL    HW256277   3.168   3.478   9.977 -0.6011  1.2681 -0.3621
50447SOL     OW56278   3.577   0.784  11.396 -0.0626  0.5349  0.0860
50447SOL    HW156279   3.531   0.746  11.471  0.5359  0.4914  0.4367
50447SOL    HW256280   3.507   0.816  11.339 -0.5266  0.8296  0.7971
50448SOL     OW56281   0.914  10.573   4.904 -0.0103 -0.6345 -0.2767
50448SOL    HW156282   0.979  10.637   4.875 -1.5073  1.3132  0.4527
50448SOL    HW256283   0.893  10.599   4.994 -1.7278 -1.2712 -0.4541
50449SOL     OW56284   7.778   8.675  10.664 -0.0202 -0.3799  0.3107
50449SOL    HW156285   7.731   8.643  10.588  0.6145 -1.2904  0.2872
50449SOL    HW256286   7.745   8.622  10.737 -0.8407  0.6834  0.7350
50450SOL     OW56287   0.902   2.868  11.175 -0.2299 -0.0951 -0.2253
50450SOL    HW156288   0.832   2.932  11.187 -0.4763 -0.6368  1.5441
50450SOL    HW256289   0.905   2.853  11.081 -0.5946  2.0027 -0.6303
50451SOL     OW56290   2.053   7.252   2.734  0.5473 -0.7526  1.1378
50451SOL    HW156291   2.005   7.179   2.694 -1.2725  0.7938  0.2774
50451SOL    HW256292   2.095   7.296   2.660  0.7106 -0.3027  1.4944
50452SOL     OW56293  10.685   1.528  11.279 -0.1441 -0.1713  0.4165
50452SOL    HW156294  10.664   1.607  11.230  1.3177  0.1283  0.2037
50452SOL    HW256295  10.781   1.522  11.273 -0.1741 -1.5553  1.0480
50453SOL     OW56296   3.049  10.257   2.231 -0.6144  0.2893 -0.2269
50453SOL    HW156297   3.001  10.180   2.261 -2.2438  0.9186 -1.0854
50453SOL    HW256298   3.135  10.224   2.205 -1.0420 -1.1172  0.0905
50454SOL     OW56299   9.271   6.103   4.551 -0.0551  0.0188  0.3270
50454SOL    HW156300   9.206   6.046   4.510 -1.1959  2.2039 -1.1374
50454SOL    HW256301   9.239   6.117   4.640 -0.5919 -0.4018  0.2015
50455SOL     OW56302   8.675  11.146   2.919 -0.1205  0.1546 -0.1605
50455SOL    HW156303   8.591  11.179   2.951 -0.6412 -1.1482 -0.1058
50455SOL    HW256304   8.658  11.054   2.899  1.1275  0.0431 -0.7969
50456SOL     OW56305   5.126   0.761   2.691 -0.3748  0.4916  0.1100
50456SOL    HW156306   5.095   0.845   2.657 -1.4455 -0.2108 -0.7234
50456SOL    HW256307   5.047   0.708   2.701  0.3424 -0.6341  0.0070
50457SOL     OW56308   2.302   9.415   0.855 -0.5673 -0.9623  0.1382
50457SOL    HW156309   2.226   9.389   0.804 -0.6738 -0.8661  0.2489
50457SOL    HW256310   2.268   9.429   0.944 -0.1819 -2.3098  0.5319
50458SOL     OW56311  10.132   0.929   0.845 -0.5829  0.3002 -0.6887
50458SOL    HW156312  10.131   1.019   0.812  0.2938 -0.0720 -1.7937
50458SOL    HW256313  10.066   0.884   0.792 -3.0145  0.8283  1.6509
50459SOL     OW56314   7.861   7.452   3.429  0.1038 -0.2475  0.1846
50459SOL    HW156315   7.936   7.481   3.377 -0.4071  2.2895  0.7277
50459SOL    HW256316   7.788   7.452   3.367  0.0698 -0.2525  0.2251
50460SOL     OW56317   4.904  10.092   5.957 -0.6340  0.2277  0.7571
50460SOL    HW156318   4.978  10.089   5.897 -0.0468 -0.4792  1.4944
50460SOL    HW256319   4.884  10.186   5.966 -0.3330  0.3751 -0.0367
50461SOL     OW56320   8.679   2.983   7.408  0.0514  0.0492  0.6225
50461SOL    HW156321   8.706   2.891   7.408  3.0239  0.8232  0.8877
50461SOL    HW256322   8.692   3.012   7.317 -0.7037  0.2898  0.5791
50462SOL     OW56323   9.785  10.245   1.052  0.5526 -0.0902 -0.2999
50462SOL    HW156324   9.873  10.272   1.078 -0.7625  2.0878  2.3702
50462SOL    HW256325   9.756  10.315   0.993  0.8866 -1.3173 -1.9973
50463SOL     OW56326   7.198   2.784  11.432 -0.5674 -0.8151 -0.0525
50463SOL    HW156327   7.266   2.771  11.367 -0.2507  1.0044 -0.1423
50463SOL    HW256328   7.243   2.781  11.516  0.1518  2.5776 -0.1671
50464SOL     OW56329  11.684   8.600   5.604 -0.4240 -0.0645  0.1285
50464SOL    HW156330  11.763   8.561   5.642 -0.5372 -0.6010 -0.1670
50464SOL    HW256331  11.716   8.670   5.548 -0.1567 -0.2424  0.0561
50465SOL     OW56332   8.742   6.751   1.753 -0.9537  0.3029  0.5083
50465SOL    HW156333   8.808   6.697   1.711 -0.1893  2.1646 -0.7768
50465SOL    HW256334   8.733   6.714   1.841  1.1601 -0.5041  0.4220
50466SOL     OW56335   5.230   2.411  10.690 -0.1556  0.5249  0.2099
50466SOL    HW156336   5.324   2.416  10.674 -0.0770 -1.0524 -0.0680
50466SOL    HW256337   5.222   2.395  10.784  0.0415 -1.8797 -0.1140
50467SOL     OW56338  10.329   1.053  10.534 -0.0342  0.1109 -0.4712
50467SOL    HW156339  10.282   1.049  10.616  1.0463 -0.7865  0.1437
50467SOL    HW256340  10.263   1.033  10.467 -0.7191 -0.1161  0.2589
50468SOL     OW56341   3.228   6.037  11.641 -0.0898  0.4868  0.3477
50468SOL    HW156342   3.225   6.116  11.586 -2.1409 -0.8308 -1.5894
50468SOL    HW256343   3.144   5.995  11.627  1.8134 -3.4163 -0.8288
50469SOL     OW56344   6.537   5.160   6.937  0.0040 -0.3659  0.3995
50469SOL    HW156345   6.593   5.091   6.971 -0.1899 -0.4294  0.5896
50469SOL    HW256346   6.593   5.238   6.935  0.8070 -0.9291 -1.5998
50470SOL     OW56347   3.002  10.928  10.621  0.2527 -0.7269 -0.6498
50470SOL    HW156348   3.014  10.904  10.713  0.3175 -0.1265 -0.4948
50470SOL    HW256349   2.919  10.888  10.596 -0.4104  0.1811  0.0501
50471SOL     OW56350   8.031   9.536   4.932  0.2464  0.7030  0.3532
50471SOL    HW156351   8.032   9.627   4.959 -1.2769  0.5623  0.9622
50471SOL    HW256352   7.943   9.521   4.898  0.9855 -0.1100 -1.3427
50472SOL     OW56353   7.375   9.330   4.098  0.3918  0.6939  0.0680
50472SOL    HW156354   7.461   9.323   4.056  0.5173  0.0639  0.4279
50472SOL    HW256355   7.376   9.265   4.168 -1.7129 -2.0587 -2.1973
50473SOL     OW56356   9.630   8.471   2.855 -0.1159 -0.0730  0.0309
50473SOL    HW156357   9.687   8.492   2.782 -0.7813 -0.8691 -0.7390
50473SOL    HW256358   9.628   8.551   2.908  0.6673  0.3881 -0.6179
50474SOL     OW56359   6.605   6.186  11.237  0.0199  0.1072 -0.0402
50474SOL    HW156360   6.648   6.259  11.281  1.2021 -0.3587 -0.3803
50474SOL    HW256361   6.581   6.220  11.150 -0.1310  0.3159  0.0836
50475SOL     OW56362   2.280   0.497   2.253 -0.0051 -0.2368  0.2267
50475SOL    HW156363   2.311   0.435   2.188 -0.9171  0.4944 -0.9604
50475SOL    HW256364   2.317   0.581   2.226 -0.3535  0.0687  0.6763
50476SOL     OW56365   2.257   5.163   7.262  0.7204  0.0684  0.2455
50476SOL    HW156366   2.204   5.228   7.215  0.5561 -0.8470 -0.8914
50476SOL    HW256367   2.346   5.196   7.256  0.6709  0.0778 -0.5292
50477SOL     OW56368  11.439   8.475   2.012  0.2457  0.0766 -0.1458
50477SOL    HW156369  11.386   8.415   1.959 -0.0629  0.2488 -0.0381
50477SOL    HW256370  11.375   8.520   2.067  0.5644 -0.1350  0.4116
50478SOL     OW56371  10.032   8.036  11.248  0.4652  0.5422 -0.0187
50478SOL    HW156372  10.021   8.052  11.154  0.5523 -1.3181 -0.3857
50478SOL    HW256373  10.042   7.941  11.255  1.5534  0.7518  1.7758
50479SOL     OW56374  10.750   1.212   2.562  0.8935 -0.3745 -0.2549
50479SOL    HW156375  10.770   1.304   2.542  0.8598 -0.6316 -1.5354
50479SOL    HW256376  10.779   1.201   2.653  2.0577  0.5787 -0.4791
50480SOL     OW56377  10.952   1.190   0.302 -0.3240 -0.3458 -0.4611
50480SOL    HW156378  10.885   1.144   0.250 -0.6147 -0.1377 -0.2708
50480SOL    HW256379  11.003   1.239   0.238 -0.2090 -0.6864 -0.6326
50481SOL     OW56380   0.304   8.683   8.176  0.1250 -0.2907  0.1477
50481SOL    HW156381   0.302   8.646   8.264  1.5190 -0.8091 -0.0042
50481SOL    HW256382   0.374   8.748   8.179 -0.3605  0.2601 -0.3671
50482SOL     OW56383   3.476   4.439  10.903 -0.5255  0.1152  0.3209
50482SOL    HW156384   3.513   4.398  10.825 -1.5929 -0.4201  0.0690
50482SOL    HW256385   3.551   4.476  10.949  0.3405 -1.0578 -0.0860
50483SOL     OW56386   2.540   2.513   0.898 -0.2118  0.0766  0.0667
50483SOL    HW156387   2.619   2.461   0.879 -0.1934 -0.4907  1.5591
50483SOL    HW256388   2.513   2.484   0.985  0.4262  3.3651  1.4697
50484SOL     OW56389   2.018   7.870   7.872  0.0423 -0.3164  0.2045
50484SOL    HW156390   2.040   7.818   7.949  0.2452 -1.0871 -0.3691
50484SOL    HW256391   1.938   7.830   7.838  2.3236 -2.9475 -2.6037
50485SOL     OW56392   9.828   3.032   8.744  0.2635 -0.3492  0.0965
50485SOL    HW156393   9.799   2.965   8.683 -2.2417  1.5044 -0.8864
50485SOL    HW256394   9.776   3.018   8.823  0.3944 -0.1149  0.2281
50486SOL     OW56395  10.766   4.379   7.797 -0.6441  0.3783 -0.4441
50486SOL    HW156396  10.797   4.321   7.866  1.1267  0.2260 -1.3119
50486SOL    HW256397  10.798   4.466   7.821 -0.7830  0.4789 -0.6145
50487SOL     OW56398   7.847   6.231   0.094 -0.3149 -0.2247  0.3824
50487SOL    HW156399   7.806   6.191   0.170  0.5850 -2.0847 -0.0462
50487SOL    HW256400   7.938   6.202   0.098  0.5587  2.2940  0.3229
50488SOL     OW56401   1.527   9.148   8.248 -0.6508  0.0751  0.5942
50488SOL    HW156402   1.464   9.108   8.309  0.6071 -0.8133  1.3556
50488SOL    HW256403   1.530   9.240   8.274 -0.4840 -0.1956  1.5624
50489SOL     OW56404   6.756   3.108   4.412  0.5654  0.5029 -0.6161
50489SOL    HW156405   6.848   3.134   4.411  0.5291  0.7973  1.3182
50489SOL    HW256406   6.707   3.191   4.405  0.4545  0.4520 -0.4560
50490SOL     OW56407   9.262  10.138  11.427  0.7381  0.1548 -0.0040
50490SOL    HW156408   9.356  10.121  11.424  0.4536 -1.5208 -0.2479
50490SOL    HW256409   9.223  10.066  11.378 -0.8715 -0.8633  2.5557
50491SOL     OW56410   6.106   9.441  10.739  1.0683 -0.3551  0.1317
50491SOL    HW156411   6.105   9.350  10.771 -0.8134 -0.3356  0.2826
50491SOL    HW256412   6.171   9.485  10.793  1.0079 -1.3085  1.0116
50492SOL     OW56413   0.331   9.449   6.487  0.2710 -0.1554  0.2466
50492SOL    HW156414   0.286   9.533   6.491 -0.4695 -0.4747 -0.8641
50492SOL    HW256415   0.313   9.408   6.571  0.5094  0.7174  0.7417
50493SOL     OW56416   7.583   9.040   4.007 -0.0221 -0.4017 -0.3794
50493SOL    HW156417   7.579   8.949   3.977 -0.3096 -0.4399 -0.2255
50493SOL    HW256418   7.647   9.081   3.949 -0.7774 -0.4057 -1.2373
50494SOL     OW56419   7.909   9.633  10.682 -0.3104  0.2418  0.2798
50494SOL    HW156420   7.978   9.663  10.741  1.3040 -0.0391 -1.3449
50494SOL    HW256421   7.862   9.713  10.657  0.6375  0.7189 -0.0267
50495SOL     OW56422   5.082   2.601   8.298 -0.0194 -0.2669  0.2992
50495SOL    HW156423   5.058   2.642   8.215  0.9070 -0.3054  0.0007
50495SOL    HW256424   5.028   2.522   8.303 -1.1463  0.4949  0.4396
50496SOL     OW56425  10.489   3.457   2.804  0.2739  0.0393 -0.0696
50496SOL    HW156426  10.560   3.395   2.785  0.8080  0.2963  1.0000
50496SOL    HW256427  10.509   3.533   2.749  0.2690 -0.2704 -0.5092
50497SOL     OW56428   5.293   1.672   4.145  0.4203 -0.5080 -0.2819
50497SOL    HW156429   5.339   1.737   4.092  0.2863 -1.5358 -1.6993
50497SOL    HW256430   5.200   1.687   4.125  0.3355 -0.5709  0.0620
50498SOL     OW56431  11.613   1.183   2.061 -0.0724 -0.1342  0.2341
50498SOL    HW156432  11.628   1.111   2.001 -1.0649  0.1653 -0.3945
50498SOL    HW256433  11.611   1.261   2.006  0.0852  0.2749  0.7928
50499SOL     OW56434  10.906   6.731   7.719  0.2292 -0.0871  0.0510
50499SOL    HW156435  10.947   6.804   7.766  2.5033 -0.7128 -0.8469
50499SOL    HW256436  10.977   6.669   7.703 -1.4312 -2.0828 -0.0942
50500SOL     OW56437   8.575   9.536   7.562  0.4964  0.2335  0.0868
50500SOL    HW156438   8.608   9.449   7.585 -0.4149 -0.2636 -0.3998
50500SOL    HW256439   8.596   9.546   7.469 -0.1815  0.1510 -0.0822
50501SOL     OW56440   8.159  11.420   0.307 -0.1878 -0.1431 -0.0532
50501SOL    HW156441   8.119  11.347   0.259  1.2551 -0.1270 -1.3952
50501SOL    HW256442   8.217  11.461   0.242  1.1959  0.4272  1.4903
50502SOL     OW56443   2.981   4.539   6.665  0.6293 -0.8424 -0.1494
50502SOL    HW156444   2.969   4.577   6.752 -0.0867  2.8885 -1.6817
50502SOL    HW256445   3.064   4.573   6.634 -0.2036 -0.1602 -1.7725
50503SOL     OW56446   2.280   2.638   0.443  0.3263 -0.2475  0.4578
50503SOL    HW156447   2.248   2.683   0.522  0.6826 -0.4629  0.7278
50503SOL    HW256448   2.350   2.694   0.410  1.3879 -1.0298  1.3032
50504SOL     OW56449   4.244   0.633   4.965 -0.2120 -0.7112 -0.5734
50504SOL    HW156450   4.294   0.603   5.041 -2.0078 -2.8813 -0.1391
50504SOL    HW256451   4.266   0.571   4.896 -2.5977 -2.1261 -0.1969
50505SOL     OW56452   0.644   2.531   1.375 -0.7267 -0.6435 -0.0900
50505SOL    HW156453   0.661   2.602   1.437  1.6246 -0.9670 -0.3070
50505SOL    HW256454   0.650   2.451   1.427  1.9284 -0.9641 -0.7600
50506SOL     OW56455   2.702   5.181   8.700 -0.2081 -0.0265 -0.1620
50506SOL    HW156456   2.744   5.101   8.668 -1.0849  0.0682 -1.6440
50506SOL    HW256457   2.755   5.207   8.775  0.1801 -1.9076  0.2649
50507SOL     OW56458   5.119   0.756   4.010 -0.1609 -0.6706  0.0311
50507SOL    HW156459   5.083   0.844   4.000 -0.1845 -0.5853  0.8268
50507SOL    HW256460   5.211   0.765   3.987 -0.1751 -0.4435  0.0616
50508SOL     OW56461   2.074   3.138   8.115 -0.3706 -0.3838  0.4244
50508SOL    HW156462   2.073   3.165   8.207 -0.9111 -0.2844  0.3970
50508SOL    HW256463   1.991   3.092   8.103  0.5450 -2.1017  0.4676
50509SOL     OW56464   4.824  10.587   0.406 -0.6026 -0.0321 -0.0718
50509SOL    HW156465   4.741  10.580   0.454 -2.3911  1.5050 -2.6883
50509SOL    HW256466   4.856  10.675   0.426  0.4200 -0.6075  0.8980
50510SOL     OW56467   1.352  10.756   3.018  0.1910 -0.1893  0.3959
50510SOL    HW156468   1.335  10.849   3.006 -2.3465 -0.6714 -0.1728
50510SOL    HW256469   1.350  10.743   3.112 -1.6097  0.0134  0.4165
50511SOL     OW56470   0.997   5.950   9.363 -0.1494  0.1705  0.2708
50511SOL    HW156471   1.032   5.902   9.438  0.9391 -0.3519 -0.5432
50511SOL    HW256472   0.926   5.895   9.330  0.4845 -0.4290 -0.1000
50512SOL     OW56473   3.103  11.454   8.849 -0.2828 -0.1920  0.2527
50512SOL    HW156474   3.086  11.520   8.781 -2.9903 -0.5790  0.4373
50512SOL    HW256475   3.113  11.504   8.929 -3.9930  0.1173  0.7051
50513SOL     OW56476  11.428   7.839   2.179  0.2267  0.4235 -0.4329
50513SOL    HW156477  11.498   7.802   2.125 -0.8369  0.3220 -1.8123
50513SOL    HW256478  11.396   7.914   2.130 -2.8589 -1.4487 -1.6367
50514SOL     OW56479   8.813   9.551   7.065 -0.3727  0.3332 -0.0002
50514SOL    HW156480   8.875   9.618   7.036  0.3740 -0.6023 -0.6790
50514SOL    HW256481   8.751   9.543   6.993 -0.5617  0.4097  0.1526
50515SOL     OW56482   7.479   5.646   8.559  0.3737  0.0227  0.1561
50515SOL    HW156483   7.411   5.706   8.529  0.9945  0.3208 -0.7224
50515SOL    HW256484   7.554   5.665   8.502  1.7729  0.9131  2.1604
50516SOL     OW56485   5.786  11.215   8.364 -0.5336  0.8294  0.2332
50516SOL    HW156486   5.695  11.241   8.356  0.2226  3.1487 -3.0412
50516SOL    HW256487   5.836  11.296   8.354  1.8933 -0.5754 -0.0070
50517SOL     OW56488   8.465   0.030   9.679  0.2108  0.1042 -0.4710
50517SOL    HW156489   8.488   0.097   9.744  2.1124  0.0596 -1.0382
50517SOL    HW256490   8.481   0.073   9.595 -2.4744  0.2566 -0.9949
50518SOL     OW56491   3.463   8.848   1.541  0.0044 -0.4075 -0.0605
50518SOL    HW156492   3.476   8.867   1.634  0.2343 -0.9757  0.0271
50518SOL    HW256493   3.549   8.866   1.501  0.7753 -2.9045  0.3092
50519SOL     OW56494  11.452   4.731   8.275 -0.1959  0.5599 -0.0622
50519SOL    HW156495  11.532   4.678   8.273 -1.0302 -0.7373 -0.1609
50519SOL    HW256496  11.398   4.690   8.342 -0.8657  1.3023 -0.1396
50520SOL     OW56497   4.941   7.818   9.118  0.3777 -0.2169  0.4139
50520SOL    HW156498   4.936   7.909   9.149  1.6457  0.7405 -1.9278
50520SOL    HW256499   4.876   7.812   9.049 -0.4499 -1.4706  1.2536
50521SOL     OW56500   2.553  11.164   2.524 -0.3302  0.5779  0.2694
50521SOL    HW156501   2.565  11.195   2.434  1.8681 -1.4663 -0.2353
50521SOL    HW256502   2.634  11.188   2.569 -1.2785  1.3204  1.6811
50522SOL     OW56503   2.601  11.369   5.851 -0.3441  0.9133  0.4510
50522SOL    HW156504   2.510  11.397   5.842 -0.5048 -0.1959 -2.1737
50522SOL    HW256505   2.608  11.290   5.797  1.5386 -0.6910  2.7922
50523SOL     OW56506   1.852   0.181   0.844  0.2572  0.3779 -0.3201
50523SOL    HW156507   1.858   0.275   0.827  0.6096  0.4782  0.3617
50523SOL    HW256508   1.771   0.154   0.799 -0.0606  1.0757 -0.1792
50524SOL     OW56509  10.378   3.483   5.615 -0.2478 -0.1870  0.4715
50524SOL    HW156510  10.438   3.525   5.677  0.9145 -1.2576  0.1320
50524SOL    HW256511  10.371   3.392   5.645 -1.8399 -0.0576  0.5754
50525SOL     OW56512   9.241   3.565   5.263 -0.4418 -0.2453  0.3962
50525SOL    HW156513   9.280   3.621   5.196 -1.6024  0.3811  0.2224
50525SOL    HW256514   9.147   3.570   5.247 -0.6341 -1.4924  0.9782
50526SOL     OW56515   3.033   5.046   9.666  0.8466  0.2011  0.2418
50526SOL    HW156516   2.946   5.010   9.651  1.0700  0.2254 -1.1913
50526SOL    HW256517   3.024   5.095   9.748  0.0630 -1.5174  1.2377
50527SOL     OW56518   5.305  10.511  10.684 -0.0290  0.6359 -0.6863
50527SOL    HW156519   5.268  10.427  10.712 -0.2694  1.2770  0.9889
50527SOL    HW256520   5.374  10.529  10.747 -0.7210  2.2294 -0.3461
50528SOL     OW56521   8.764   1.158   1.331  0.3668  0.4961  0.5514
50528SOL    HW156522   8.831   1.161   1.262  0.1864  2.1285  0.4051
50528SOL    HW256523   8.717   1.241   1.322  0.4144  0.8165  2.7136
50529SOL     OW56524   9.480   9.858   7.732 -0.3191  0.4624  0.4509
50529SOL    HW156525   9.504   9.857   7.825  0.3947 -0.5698  0.2666
50529SOL    HW256526   9.562   9.874   7.686 -0.2206 -1.4373 -0.1056
50530SOL     OW56527  10.754   9.151   3.383 -0.0336 -0.4251 -0.2615
50530SOL    HW156528  10.743   9.091   3.309 -2.3680 -0.7080  0.2363
50530SOL    HW256529  10.715   9.105   3.457 -0.0006  0.8697  0.5870
50531SOL     OW56530   0.112   3.753   0.984 -0.0497 -0.2003  0.1528
50531SOL    HW156531   0.180   3.798   1.034  0.7791 -2.1205  0.8745
50531SOL    HW256532   0.141   3.759   0.893 -0.5136  1.5731  0.0885
50532SOL     OW56533   2.436   5.528   7.309 -0.3101  0.0463 -0.3981
50532SOL    HW156534   2.351   5.498   7.342 -0.0374 -0.5239 -0.2050
50532SOL    HW256535   2.495   5.455   7.325  0.2477  0.4855 -0.4197
50533SOL     OW56536   6.624  11.594   6.321  0.1543  0.7456  0.6104
50533SOL    HW156537   6.553  11.654   6.300 -1.8374 -1.3289  0.9336
50533SOL    HW256538   6.579  11.515   6.352  2.4985 -1.5758 -1.4491
50534SOL     OW56539   2.749  10.087   5.266  0.3343  0.6390  0.6596
50534SOL    HW156540   2.674  10.147   5.268 -1.2020 -1.1347 -0.0385
50534SOL    HW256541   2.754  10.051   5.355  1.9110  2.4741  1.3718
50535SOL     OW56542   2.278   1.773   1.345 -0.3124  0.6459 -0.0346
50535SOL    HW156543   2.361   1.741   1.380 -0.6914 -1.0933 -0.6044
50535SOL    HW256544   2.297   1.795   1.254 -0.5357 -0.1447 -0.2851
50536SOL     OW56545   1.639   4.171   8.082 -0.0808 -0.8290  0.0889
50536SOL    HW156546   1.651   4.161   8.177 -1.6034 -1.3652  0.2499
50536SOL    HW256547   1.641   4.081   8.048  1.1663 -0.5997 -0.5064
50537SOL     OW56548   9.987   0.181   9.876 -0.3552 -0.2377  0.5274
50537SOL    HW156549   9.961   0.242   9.807 -0.1122 -0.6216  0.0841
50537SOL    HW256550  10.001   0.235   9.953  0.1250  0.2998  0.0694
50538SOL     OW56551   3.518   4.099  10.973 -0.4083  0.2090 -0.1038
50538SOL    HW156552   3.504   4.020  10.921  1.7651 -0.5472  0.3641
50538SOL    HW256553   3.588   4.147  10.928 -0.6384  1.1067  0.4495
50539SOL     OW56554   1.199  11.384   4.992  0.1922  0.4462  0.0037
50539SOL    HW156555   1.178  11.426   4.909  1.0457  1.0899  0.1063
50539SOL    HW256556   1.294  11.393   5.001  0.5680 -2.2522 -0.3878
50540SOL     OW56557   8.998   1.770  10.502  0.0286 -0.6091 -0.5500
50540SOL    HW156558   9.067   1.835  10.518 -0.3633 -0.1279 -0.7812
50540SOL    HW256559   8.937   1.814  10.442 -0.3985 -1.0824 -0.4707
50541SOL     OW56560   5.256  10.598   4.844 -0.8080  0.0539  0.1918
50541SOL    HW156561   5.201  10.530   4.883 -0.3290 -1.4898 -1.6506
50541SOL    HW256562   5.316  10.550   4.787  2.3670  1.6709  1.9256
50542SOL     OW56563   3.952   4.229   8.801 -0.6811 -0.2194 -0.3416
50542SOL    HW156564   3.893   4.174   8.853 -1.0783  1.3062  0.8688
50542SOL    HW256565   3.947   4.315   8.841 -1.3346  1.1719 -3.1850
50543SOL     OW56566   2.789   6.475   7.991  0.6293 -0.2553 -0.2154
50543SOL    HW156567   2.868   6.436   7.954 -0.2527 -2.0226 -0.3687
50543SOL    HW256568   2.718   6.444   7.934 -0.2252  0.9430  0.1579
50544SOL     OW56569   4.356   0.354   7.839  0.4422  0.6309  0.0732
50544SOL    HW156570   4.267   0.378   7.868 -0.3049  0.1868 -1.7187
50544SOL    HW256571   4.363   0.392   7.751  2.3437  1.3325  0.4985
50545SOL     OW56572   8.775  10.870  11.549 -0.3770 -0.2323  0.1719
50545SOL    HW156573   8.739  10.857  11.461 -1.7022 -1.1134  0.8166
50545SOL    HW256574   8.853  10.814  11.551  0.9180  1.4347 -1.1210
50546SOL     OW56575   8.401   9.001   9.182 -0.3735 -0.1831  0.2657
50546SOL    HW156576   8.488   8.996   9.221  0.4164 -2.1172 -1.6001
50546SOL    HW256577   8.350   8.935   9.228 -0.8378  0.7596  1.1659
50547SOL     OW56578   9.203   9.759  10.781 -0.3202  0.1602 -0.2293
50547SOL    HW156579   9.251   9.698  10.837 -0.7222  0.0737  0.0347
50547SOL    HW256580   9.255   9.766  10.701  0.6916  0.9142  0.4697
50548SOL     OW56581   5.233   3.737   0.933  0.4730  0.0603 -0.0343
50548SOL    HW156582   5.303   3.802   0.944  0.9259 -0.5203  0.6186
50548SOL    HW256583   5.250   3.672   1.001 -2.2218  1.2272  1.9399
50549SOL     OW56584   9.470   7.570   3.606  0.3392 -0.0541 -0.0860
50549SOL    HW156585   9.556   7.550   3.570 -0.1401 -0.9419 -0.7756
50549SOL    HW256586   9.438   7.642   3.551 -0.0090 -0.7923 -0.8730
50550SOL     OW56587   5.548   6.076   4.225  0.4676 -0.5820 -0.2348
50550SOL    HW156588   5.490   6.006   4.193 -2.5758  0.7739  1.9013
50550SOL    HW256589   5.594   6.036   4.299 -0.5451 -0.6470  0.3795
50551SOL     OW56590   1.492   5.986   2.175 -0.3051  0.0590  0.0928
50551SOL    HW156591   1.445   6.048   2.120  0.8861 -0.4171 -1.5600
50551SOL    HW256592   1.502   6.031   2.259  2.0051  2.9307 -1.5049
50552SOL     OW56593   4.556   1.071   4.517  0.1492  0.1511  0.1539
50552SOL    HW156594   4.617   1.143   4.527 -0.8215  0.9033  0.9006
50552SOL    HW256595   4.563   1.046   4.425  1.3717  0.3834  0.1649
50553SOL     OW56596   1.112   2.428   7.627 -0.3725 -0.2956  0.3075
50553SOL    HW156597   1.141   2.485   7.698  0.1570 -0.7245  0.4405
50553SOL    HW256598   1.185   2.367   7.613 -0.7593 -0.6713 -0.1181
50554SOL     OW56599   4.907   4.197   3.345 -0.5044 -0.1223  0.5535
50554SOL    HW156600   4.828   4.190   3.291 -1.1833 -0.7957  1.5868
50554SOL    HW256601   4.914   4.111   3.386  1.9976 -0.8147 -1.1231
50555SOL     OW56602   7.616  11.119   2.058 -0.8359  0.4947  0.3205
50555SOL    HW156603   7.550  11.175   2.099 -1.7145  0.1910 -0.6413
50555SOL    HW256604   7.596  11.031   2.090  0.8033  0.7185  2.1693
50556SOL     OW56605   7.743   0.043  10.450 -0.1430 -0.3545  0.3041
50556SOL    HW156606   7.780  -0.037  10.486 -2.1286 -0.7917  1.4900
50556SOL    HW256607   7.694   0.082  10.522  0.3799  1.7261 -0.3748
50557SOL     OW56608   1.529   1.483   0.939 -0.4031 -0.3009  0.1180
50557SOL    HW156609   1.479   1.525   0.868  0.7674  2.7117  0.9265
50557SOL    HW256610   1.466   1.477   1.011 -0.9074 -1.0333 -0.3721
50558SOL     OW56611   3.811   4.744   5.281  0.3068 -0.3686  0.1583
50558SOL    HW156612   3.779   4.690   5.353  0.1337 -0.9514 -0.3461
50558SOL    HW256613   3.895   4.778   5.312 -0.7009  1.0494  1.4384
50559SOL     OW56614   4.772   5.098   6.128 -0.4846 -0.2284 -0.1904
50559SOL    HW156615   4.820   5.138   6.055 -1.6397 -0.9161 -1.3651
50559SOL    HW256616   4.681   5.101   6.101 -0.8369 -1.4259  0.7866
50560SOL     OW56617   9.172   6.639  10.210 -0.1575  0.7825 -0.0625
50560SOL    HW156618   9.236   6.658  10.279  0.9050  1.0580 -1.0867
50560SOL    HW256619   9.173   6.717  10.154  0.1458 -0.0305 -1.2345
50561SOL     OW56620  10.398   4.307   4.300  0.0320  0.4098  0.3653
50561SOL    HW156621  10.411   4.213   4.309  2.6175  0.7461  1.1658
50561SOL    HW256622  10.398   4.322   4.205 -0.4790 -0.3845  0.2327
50562SOL     OW56623   2.783  10.221  10.749  0.3493  0.2993  0.1659
50562SOL    HW156624   2.811  10.169  10.674 -0.1878  1.7162 -1.0550
50562SOL    HW256625   2.846  10.293  10.753  0.9979 -0.2898  1.7561
50563SOL     OW56626   3.925   5.044   9.634 -0.1696  0.2088 -0.6678
50563SOL    HW156627   4.004   5.032   9.581  0.2013 -0.6784  0.0632
50563SOL    HW256628   3.871   4.967   9.615  0.5436 -0.8257  1.1791
50564SOL     OW56629   4.831   6.005   9.763  0.2783 -0.2973  0.8531
50564SOL    HW156630   4.781   5.935   9.806  0.1190  0.2740  1.6188
50564SOL    HW256631   4.918   5.967   9.750 -1.0458 -2.4593 -3.3529
50565SOL     OW56632  11.507  10.165   9.133  0.9511 -0.2290 -0.0405
50565SOL    HW156633  11.537  10.251   9.162  0.9481 -0.5792  1.0334
50565SOL    HW256634  11.546  10.154   9.046  1.0994  0.7741 -0.1134
50566SOL     OW56635  11.310   5.235   6.788  0.6410  0.1617  0.3421
50566SOL    HW156636  11.299   5.326   6.760 -0.3814  0.4454  1.5493
50566SOL    HW256637  11.294   5.183   6.709  1.4331  1.0266 -0.4105
50567SOL     OW56638   2.578   2.400  10.309  0.4073  0.3877 -0.1789
50567SOL    HW156639   2.639   2.407  10.236 -0.1425  0.5948 -0.6182
50567SOL    HW256640   2.632   2.418  10.386  0.8367  0.8731 -0.5851
50568SOL     OW56641   9.750   5.961   9.385  0.4692  0.7167  0.0641
50568SOL    HW156642   9.787   5.873   9.379 -0.9912 -0.0638  1.6216
50568SOL    HW256643   9.791   5.999   9.462 -0.3886  0.6034  0.5955
50569SOL     OW56644  11.075  11.690   2.209  0.1108  0.0723 -0.1177
50569SOL    HW156645  11.037  11.778   2.217  0.3075  0.0986  0.5745
50569SOL    HW256646  11.014  11.643   2.152 -1.0467  0.0827  1.0660
50570SOL     OW56647  10.724   3.864   5.067  0.1099  0.1311 -0.8006
50570SOL    HW156648  10.761   3.916   4.995  1.8722 -0.4008 -0.3311
50570SOL    HW256649  10.734   3.773   5.038  0.3639 -0.0672 -0.1036
50571SOL     OW56650  11.640   1.849   9.940  0.6496  0.3287  0.1996
50571SOL    HW156651  11.571   1.911   9.914  1.6678  0.9056 -1.2346
50571SOL    HW256652  11.595   1.786   9.996 -0.6969  1.6304  0.6687
50572SOL     OW56653   4.202   2.778  10.717 -0.3064 -0.2330 -0.0336
50572SOL    HW156654   4.261   2.737  10.655  0.3054 -2.1707  1.7188
50572SOL    HW256655   4.235   2.752  10.803 -1.1290  2.3073  1.1504
50573SOL     OW56656   7.514   4.369   1.806  0.5931  0.7307 -0.2464
50573SOL    HW156657   7.518   4.419   1.887  1.5480  1.4976 -0.7412
50573SOL    HW256658   7.426   4.385   1.772 -0.0333 -0.0988  0.9238
50574SOL     OW56659   0.695   4.388  11.091  0.6589  1.3675  0.4553
50574SOL    HW156660   0.758   4.457  11.113  0.1194  1.4936  1.6665
50574SOL    HW256661   0.686   4.336  11.171  0.2415  0.5379 -0.1159
50575SOL     OW56662  11.230   9.576  11.051  0.3116 -0.4738  0.2681
50575SOL    HW156663  11.280   9.655  11.072 -0.3456  0.0799 -0.2149
50575SOL    HW256664  11.285   9.504  11.081  0.7238  0.1807  1.1239
50576SOL     OW56665   2.439   8.879   0.829 -0.5880  0.0334  0.5975
50576SOL    HW156666   2.380   8.948   0.798  1.6554  1.2812 -1.2495
50576SOL    HW256667   2.499   8.924   0.888  0.1284 -0.6208  0.3780
50577SOL     OW56668  10.725   2.220  10.346  0.2471  0.0615  0.4613
50577SOL    HW156669  10.758   2.194  10.431  1.1659  1.1213  0.4448
50577SOL    HW256670  10.737   2.315  10.343  2.2402 -0.1630 -1.6593
50578SOL     OW56671   4.470   4.925  10.225 -0.4959  0.6823 -0.5551
50578SOL    HW156672   4.404   4.871  10.181 -0.7017  0.9831 -0.6213
50578SOL    HW256673   4.514   4.865  10.285 -0.3562  0.3184 -1.0152
50579SOL     OW56674   8.519   7.087   0.226  0.3436  0.0550 -0.4012
50579SOL    HW156675   8.529   7.037   0.307  1.6080 -0.9502 -1.1316
50579SOL    HW256676   8.425   7.086   0.208  0.1317 -0.3283  0.6743
50580SOL     OW56677   7.170   7.284  10.090  0.2131 -0.2646 -0.2950
50580SOL    HW156678   7.164   7.226  10.166 -0.9816  0.6378  0.3237
50580SOL    HW256679   7.175   7.224  10.015 -0.2363 -1.1743  0.3770
50581SOL     OW56680   5.647   3.771   5.110  0.1456  0.4187 -0.2831
50581SOL    HW156681   5.643   3.701   5.176 -0.6273  1.3090  0.6430
50581SOL    HW256682   5.672   3.849   5.160 -1.4152  1.3185 -0.8490
50582SOL     OW56683   9.033   4.730  10.469 -0.1953 -0.3943  0.7693
50582SOL    HW156684   8.956   4.720  10.413  0.6025  0.7002 -0.5676
50582SOL    HW256685   9.031   4.653  10.526 -0.5321 -2.0782 -1.3898
50583SOL     OW56686   1.940  10.461   2.721  0.1353  0.1452  0.1902
50583SOL    HW156687   1.880  10.386   2.727 -0.6502  0.5420 -1.8302
50583SOL    HW256688   1.923  10.511   2.801 -1.0190 -0.6391  0.4739
50584SOL     OW56689   1.329  11.009   4.985 -0.0933 -0.6169 -0.8513
50584SOL    HW156690   1.287  11.059   5.055 -0.6481  1.1113 -2.3621
50584SOL    HW256691   1.419  10.998   5.015 -0.0024  1.1555 -0.3682
50585SOL     OW56692   9.735   8.980   5.275 -0.1474  0.4649  0.0983
50585SOL    HW156693   9.700   9.069   5.273  0.3060  0.6516  0.2949
50585SOL    HW256694   9.659   8.924   5.295 -0.7918  0.6050 -1.7937
50586SOL     OW56695   3.577  10.244   5.236  0.0110  0.4494 -0.3024
50586SOL    HW156696   3.574  10.329   5.280 -0.2207 -0.4935  1.6560
50586SOL    HW256697   3.669  10.217   5.244  0.1648  0.6583 -1.2582
50587SOL     OW56698   6.731   0.978   7.214  0.0747 -0.3273 -0.0758
50587SOL    HW156699   6.749   1.037   7.140 -0.5205  1.1570  0.9055
50587SOL    HW256700   6.794   1.004   7.281 -1.2501  0.3448  0.9569
50588SOL     OW56701   2.111   2.307   7.184 -0.1520  0.2895 -0.0486
50588SOL    HW156702   2.019   2.284   7.197 -0.3152  1.6106  1.6446
50588SOL    HW256703   2.109   2.387   7.133  0.1357 -0.3530 -1.0872
50589SOL     OW56704  11.626   6.162   7.176  0.0021  0.0141  0.6378
50589SOL    HW156705  11.586   6.102   7.239 -1.7050 -1.0981 -1.3406
50589SOL    HW256706  11.658   6.105   7.106 -1.1421  1.3376 -1.0467
50590SOL     OW56707   6.813  10.615   9.806 -0.5755  0.0884 -0.3642
50590SOL    HW156708   6.865  10.540   9.776  0.2974  0.8650 -0.8274
50590SOL    HW256709   6.866  10.691   9.784 -1.0501  0.8065  0.9201
50591SOL     OW56710  11.249   8.916  10.744 -0.1073 -0.3178 -0.5381
50591SOL    HW156711  11.255   8.857  10.820  0.8410 -1.0058 -1.1214
50591SOL    HW256712  11.233   9.002  10.782  0.1367 -0.6848  0.4354
50592SOL     OW56713   5.030  10.414  11.090  0.0507  0.4554  0.3837
50592SOL    HW156714   5.009  10.453  11.005 -0.2392  2.2496  1.2255
50592SOL    HW256715   5.121  10.438  11.106  0.8244 -1.7251 -0.3255
50593SOL     OW56716   6.668   1.652   0.424 -0.1223 -0.2972 -0.3733
50593SOL    HW156717   6.620   1.570   0.431 -0.3927 -0.3482 -2.2711
50593SOL    HW256718   6.758   1.630   0.445 -0.3453 -0.8944 -0.0226
50594SOL     OW56719   3.407   8.676  11.190 -0.1208  0.1537  0.0780
50594SOL    HW156720   3.397   8.583  11.171  0.9831  0.0953 -0.2707
50594SOL    HW256721   3.415   8.717  11.103 -0.7464  0.6007  0.2210
50595SOL     OW56722   3.837   5.959   5.607  0.0539  0.3357 -0.2281
50595SOL    HW156723   3.849   6.002   5.692 -0.7679 -0.3470  0.2477
50595SOL    HW256724   3.836   5.866   5.628  0.4525  0.1371 -1.0722
50596SOL     OW56725   2.519   7.173   3.241  0.3339 -0.3415 -0.4883
50596SOL    HW156726   2.530   7.238   3.172  2.2148 -0.4121 -0.3045
50596SOL    HW256727   2.522   7.089   3.195  1.2710 -0.3801 -0.3613
50597SOL     OW56728  11.491  10.015   9.380  0.3122 -0.3927  0.1719
50597SOL    HW156729  11.478  10.086   9.318 -0.5637 -0.0015  0.7777
50597SOL    HW256730  11.403   9.995   9.413  0.8990  0.4965  2.4546
50598SOL     OW56731   2.001   5.755   9.596 -0.0060 -0.0138  0.4276
50598SOL    HW156732   2.059   5.772   9.670 -1.5694  1.1296  1.4459
50598SOL    HW256733   1.993   5.839   9.551  1.5214 -0.8328 -1.5906
50599SOL     OW56734   5.838   3.781   7.960 -0.5496  0.5390 -0.3006
50599SOL    HW156735   5.823   3.789   7.865  0.1686 -0.2765 -0.4969
50599SOL    HW256736   5.893   3.703   7.969 -0.3597  0.7811  0.7681
50600SOL     OW56737   0.784  11.369   2.015 -0.3835 -0.1868  0.0373
50600SOL    HW156738   0.778  11.301   2.082  0.8653 -0.0959  0.2655
50600SOL    HW256739   0.746  11.446   2.056  2.0381  0.3914  1.4136
50601SOL     OW56740   8.985  10.364  10.909  0.8099  0.0645 -0.8756
50601SOL    HW156741   8.912  10.336  10.853 -1.6131 -0.3268  2.1722
50601SOL    HW256742   9.019  10.443  10.866 -0.3655 -0.5933 -3.2108
50602SOL     OW56743   0.522   9.757   8.876 -0.0918 -0.2897  0.6077
50602SOL    HW156744   0.509   9.778   8.784 -0.4238  0.8417  0.8905
50602SOL    HW256745   0.550   9.840   8.916 -1.1010 -0.4532  1.7298
50603SOL     OW56746   4.787   0.862  10.182  0.4101  0.0103  0.0840
50603SOL    HW156747   4.799   0.831  10.092  1.5172  3.1418 -1.0166
50603SOL    HW256748   4.857   0.822  10.232 -0.4410 -2.0704 -0.2916
50604SOL     OW56749   7.645   0.322   3.099  0.0174  0.6866 -0.3371
50604SOL    HW156750   7.604   0.408   3.093  1.5335  1.3923 -1.1061
50604SOL    HW256751   7.584   0.270   3.151 -1.9545  1.5886 -1.6587
50605SOL     OW56752  11.666  11.343  10.941  0.7121  0.1854 -0.2175
50605SOL    HW156753  11.685  11.276  10.875 -2.4261 -0.2897 -0.7822
50605SOL    HW256754  11.723  11.416  10.918 -0.6233  0.2486 -3.9033
50606SOL     OW56755   0.086   3.328   0.635  0.4037 -0.1144  0.4291
50606SOL    HW156756   0.097   3.423   0.625  0.5250 -0.1227  0.4888
50606SOL    HW256757   0.172   3.291   0.614  0.0898 -0.2868 -0.6009
50607SOL     OW56758   7.327   4.705   2.910  0.1675  0.7012 -0.2106
50607SOL    HW156759   7.300   4.778   2.854  0.1143  1.5593  0.9187
50607SOL    HW256760   7.253   4.643   2.905 -0.2556  1.2082 -0.3097
50608SOL     OW56761   8.597   6.513   6.985 -0.0415  0.1746  0.1872
50608SOL    HW156762   8.526   6.475   6.933 -1.0078 -0.7427  2.0849
50608SOL    HW256763   8.614   6.449   7.054  0.9081  1.5100  1.2599
50609SOL     OW56764   8.809   1.727   4.474  0.1981 -0.0001 -0.8759
50609SOL    HW156765   8.745   1.667   4.435 -0.1709  1.1235 -2.0636
50609SOL    HW256766   8.768   1.753   4.557 -0.2916 -0.2962 -1.0145
50610SOL     OW56767   8.792   4.448   2.910  0.5454 -0.1193 -0.3769
50610SOL    HW156768   8.821   4.389   2.979 -0.8985  0.4200  0.7355
50610SOL    HW256769   8.752   4.521   2.956 -0.2829  0.3518 -1.7869
50611SOL     OW56770   1.903   0.569   8.740 -0.1185  0.5739  0.8337
50611SOL    HW156771   1.809   0.579   8.750 -0.4053 -0.9275 -0.0011
50611SOL    HW256772   1.926   0.500   8.802  0.4164  0.8957  0.9945
50612SOL     OW56773   5.409   1.345   2.160  0.0651 -0.2297 -0.0485
50612SOL    HW156774   5.363   1.263   2.143  2.0716 -2.0420  2.4444
50612SOL    HW256775   5.375   1.374   2.245  0.7653  0.4656  0.0075
50613SOL     OW56776   1.911   9.918   3.924 -0.3123 -0.2593 -0.1562
50613SOL    HW156777   1.965   9.851   3.881 -1.0291 -0.6810 -0.4167
50613SOL    HW256778   1.845   9.868   3.971 -2.0136  0.2699 -1.8744
50614SOL     OW56779   3.630   7.841   5.768  0.2377  0.4358  0.1155
50614SOL    HW156780   3.725   7.838   5.758  0.0981 -1.0803 -1.2832
50614SOL    HW256781   3.606   7.751   5.790 -0.9225  0.6388 -0.2632
50615SOL     OW56782   8.892   1.896   0.511  0.2746 -0.1831  0.0611
50615SOL    HW156783   8.842   1.966   0.468 -0.1787 -0.5120  0.0519
50615SOL    HW256784   8.853   1.815   0.478 -0.1205 -0.4427  1.1329
50616SOL     OW56785   8.226   0.630   0.391  0.1799  0.2143 -0.1562
50616SOL    HW156786   8.232   0.558   0.454  0.4155 -0.6447 -1.1173
50616SOL    HW256787   8.305   0.682   0.405 -0.0836  0.4000  0.6742
50617SOL     OW56788   2.700   5.245   8.359  0.8270 -0.2683 -0.2507
50617SOL    HW156789   2.723   5.317   8.417  2.2115 -0.2756 -0.7563
50617SOL    HW256790   2.771   5.182   8.368 -0.2028 -1.4562 -0.0494
50618SOL     OW56791   5.612  11.547   4.712 -0.4124  0.0903  0.7706
50618SOL    HW156792   5.618  11.552   4.808  0.2216  0.6924  0.7044
50618SOL    HW256793   5.648  11.461   4.691 -0.0250  0.1865  1.0331
50619SOL     OW56794   0.123   7.959   9.162 -0.1645  0.8430  0.2520
50619SOL    HW156795   0.112   7.967   9.067  0.9119 -1.8690 -0.1712
50619SOL    HW256796   0.162   8.043   9.188  2.5245  0.5322 -2.2474
50620SOL     OW56797   1.520   7.428   4.280  0.4492 -0.3245 -0.0923
50620SOL    HW156798   1.600   7.419   4.332 -0.7667 -1.6213  1.6506
50620SOL    HW256799   1.533   7.509   4.230  1.8675  0.7916  1.9537
50621SOL     OW56800   7.736   6.806  10.810  0.0956  0.3933 -0.2844
50621SOL    HW156801   7.735   6.765  10.723 -1.9799  0.5705 -0.3875
50621SOL    HW256802   7.828   6.829  10.824  0.7829 -1.2912 -1.6314
50622SOL     OW56803   0.306   3.604  11.670 -0.4265 -0.7097 -0.3817
50622SOL    HW156804   0.304   3.510  11.649  1.6859 -0.8814 -0.0849
50622SOL    HW256805   0.399   3.624  11.678 -0.8304  1.4793 -0.6326
50623SOL     OW56806   4.632   2.640   8.673 -0.7561  0.5514 -0.7682
50623SOL    HW156807   4.613   2.713   8.613  1.3103  0.5958 -1.4585
50623SOL    HW256808   4.676   2.575   8.618 -1.6703 -0.8110  0.0586
50624SOL     OW56809   0.103   4.765   2.843 -0.7115  0.0117 -0.2927
50624SOL    HW156810   0.021   4.716   2.844 -0.9248  0.3234 -1.5638
50624SOL    HW256811   0.114   4.796   2.933 -1.5114 -0.8069  0.0951
50625SOL     OW56812   6.542   6.998   0.989 -0.4634 -0.3459  0.1934
50625SOL    HW156813   6.461   7.044   0.967  0.7027  1.2499 -1.0207
50625SOL    HW256814   6.562   6.946   0.911 -0.0441 -0.3070  0.2732
50626SOL     OW56815   7.564   9.445  11.343  0.0209  0.0649 -0.3148
50626SOL    HW156816   7.470   9.425  11.344 -0.0150  0.2387 -0.1199
50626SOL    HW256817   7.569   9.538  11.363  0.3219 -0.3080  1.5161
50627SOL     OW56818   5.590  10.256   5.764  0.3321  0.0958  0.0862
50627SOL    HW156819   5.511  10.212   5.734 -0.5307  0.5772  1.5593
50627SOL    HW256820   5.559  10.337   5.805  1.5320  0.1000  1.0498
50628SOL     OW56821   9.212   9.401   5.380  0.3478 -0.3827  0.3471
50628SOL    HW156822   9.262   9.481   5.396  0.1824 -0.1972 -0.0494
50628SOL    HW256823   9.219   9.387   5.286  0.1109 -0.6610  0.3706
50629SOL     OW56824   5.812   4.580   9.491 -0.3342  0.2794 -0.3203
50629SOL    HW156825   5.802   4.672   9.513  0.4392  0.7265 -1.6923
50629SOL    HW256826   5.898   4.574   9.449  0.0384 -1.2420  0.5572
50630SOL     OW56827   1.082   2.726   6.338 -0.1284 -0.2300 -0.6750
50630SOL    HW156828   1.060   2.818   6.325  0.8163  0.1780  0.4259
50630SOL    HW256829   1.159   2.712   6.282 -2.2038 -1.3029 -3.4942
50631SOL     OW56830   1.809   7.038   9.596 -0.1852 -0.6989 -0.2441
50631SOL    HW156831   1.727   7.065   9.638 -0.6156  0.2289 -1.6034
50631SOL    HW256832   1.781   6.988   9.519  0.5965 -4.1640  1.5103
50632SOL     OW56833   2.632   3.938   0.377  0.1235  0.2797  0.1889
50632SOL    HW156834   2.679   3.939   0.461 -0.5905  0.1688  0.5997
50632SOL    HW256835   2.581   3.857   0.380 -0.0811  0.3927 -0.2574
50633SOL     OW56836   8.157   5.422   2.522 -0.1543 -0.3955 -0.4010
50633SOL    HW156837   8.220   5.466   2.466  0.3266  0.1643  0.5578
50633SOL    HW256838   8.096   5.380   2.461  2.3970 -2.9152 -1.4370
50634SOL     OW56839   8.764  11.666   2.425 -0.2493  0.2009 -0.1908
50634SOL    HW156840   8.681  11.713   2.419  0.1544  0.7358 -1.9149
50634SOL    HW256841   8.826  11.719   2.375  2.2212  1.9716  4.0842
50635SOL     OW56842   6.905   6.200   4.177 -0.1852 -0.2731  0.3114
50635SOL    HW156843   6.991   6.231   4.150  0.2543 -0.7308  1.1577
50635SOL    HW256844   6.848   6.276   4.165  0.5972  0.4502  0.9854
50636SOL     OW56845  11.329   5.754   2.119  0.2361  0.0488 -0.2261
50636SOL    HW156846  11.305   5.793   2.203 -0.8892  1.3424 -1.1146
50636SOL    HW256847  11.285   5.808   2.053  0.6876 -1.2254 -1.6414
50637SOL     OW56848   1.420   3.411   4.475  0.2331  0.2044 -0.4533
50637SOL    HW156849   1.473   3.481   4.511 -0.1397  0.2644 -0.0054
50637SOL    HW256850   1.471   3.377   4.401  1.0751  0.0052  0.1935
50638SOL     OW56851   4.074  11.527   6.333  0.3107  0.4605 -0.2192
50638SOL    HW156852   4.016  11.602   6.347 -0.2847  0.1380 -0.9160
50638SOL    HW256853   4.019  11.461   6.292  0.4561 -0.8870  1.6037
50639SOL     OW56854   4.126   0.944   5.867  0.5167  0.8097  0.5625
50639SOL    HW156855   4.086   0.938   5.954 -1.2039  1.0259 -0.1683
50639SOL    HW256856   4.207   0.893   5.874 -0.8486 -1.3677  1.5932
50640SOL     OW56857   7.462   8.475   0.626 -0.0339  0.5098  0.3757
50640SOL    HW156858   7.376   8.447   0.592  0.8961 -2.0059 -0.1346
50640SOL    HW256859   7.464   8.569   0.611 -1.5119  0.2158 -2.4154
50641SOL     OW56860   6.233   9.456   9.334 -0.0915  0.4607  0.6772
50641SOL    HW156861   6.264   9.477   9.422 -1.3047  0.5668  1.1001
50641SOL    HW256862   6.206   9.539   9.297 -2.4283  0.0968  1.3758
50642SOL     OW56863  10.192   1.000  11.307  0.2256  0.1964  0.0911
50642SOL    HW156864  10.253   0.932  11.277 -1.9754 -1.1214 -1.7024
50642SOL    HW256865  10.177   0.979  11.399  2.1543  0.3485  0.4882
50643SOL     OW56866  11.443  10.443   0.977  0.2755  0.1127 -0.2200
50643SOL    HW156867  11.419  10.412   1.064  0.0325 -0.9133 -0.6414
50643SOL    HW256868  11.486  10.368   0.936  2.2370  1.1987 -0.2795
50644SOL     OW56869   1.477   1.972   4.871 -0.0480  0.8188  0.3728
50644SOL    HW156870   1.497   2.057   4.830 -0.8612 -0.7694 -3.7937
50644SOL    HW256871   1.386   1.955   4.847  0.2799 -1.4815  0.5962
50645SOL     OW56872  11.491   7.661   7.437  0.1351 -0.5383  0.2337
50645SOL    HW156873  11.578   7.686   7.405  0.8442 -0.6444  1.9298
50645SOL    HW256874  11.451   7.615   7.364  0.8620  0.8979 -1.1527
50646SOL     OW56875   7.725   2.238   9.778  0.0571  0.3549  0.3499
50646SOL    HW156876   7.723   2.143   9.787 -0.1449  0.2461 -0.6565
50646SOL    HW256877   7.818   2.259   9.775  0.1022  0.1466  0.2357
50647SOL     OW56878   8.449   6.620   1.843 -0.2067  0.1941  0.5384
50647SOL    HW156879   8.378   6.683   1.832 -0.9000 -0.5162  0.8882
50647SOL    HW256880   8.467   6.589   1.754  0.6883  1.4521  0.2518
50648SOL     OW56881   4.777   9.787   9.239 -0.2612 -0.5735  0.4427
50648SOL    HW156882   4.714   9.835   9.186 -0.4805 -1.2667  0.0585
50648SOL    HW256883   4.727   9.757   9.315 -0.1700 -0.3480  0.5916
50649SOL     OW56884  11.297   8.650   1.662 -0.3221  0.1993 -0.3002
50649SOL    HW156885  11.319   8.557   1.660 -0.9036  0.0604 -0.6813
50649SOL    HW256886  11.245   8.664   1.582 -1.1018  0.6277  0.2664
50650SOL     OW56887   5.148   4.707   4.070  0.0400 -0.6150  0.2908
50650SOL    HW156888   5.141   4.733   3.978 -1.0784 -2.9476 -0.3629
50650SOL    HW256889   5.241   4.696   4.085  0.1319 -2.4840 -1.3124
50651SOL     OW56890   9.621  10.275   1.298  0.4421  0.4504  0.1823
50651SOL    HW156891   9.637  10.276   1.204 -0.2980  1.1297  0.0538
50651SOL    HW256892   9.701  10.237   1.336  0.7092  0.0965 -0.7144
50652SOL     OW56893   1.617   2.335   8.889  0.1337 -0.7276  0.4351
50652SOL    HW156894   1.559   2.272   8.932  0.1413  0.2731  1.9934
50652SOL    HW256895   1.572   2.359   8.809 -0.1091 -2.3243  0.0653
50653SOL     OW56896   1.253   9.309   3.628 -1.0640  0.4802  0.2616
50653SOL    HW156897   1.222   9.246   3.693 -1.3975  1.9942  1.6510
50653SOL    HW256898   1.187   9.379   3.630  0.0395  1.5626 -0.1384
50654SOL     OW56899   6.300   1.158  11.028  0.2173  0.4672 -0.3786
50654SOL    HW156900   6.321   1.186  10.939  0.8096 -1.6655 -0.9756
50654SOL    HW256901   6.381   1.118  11.060 -0.9863 -2.0348 -0.2670
50655SOL     OW56902   6.314   2.301   2.924  0.0166  0.0650 -0.2940
50655SOL    HW156903   6.377   2.242   2.965  1.0127  1.3492  0.1047
50655SOL    HW256904   6.229   2.258   2.936  0.8959 -2.3887 -2.0360
50656SOL     OW56905   2.854   3.657  10.827  0.1220  0.1287  0.1023
50656SOL    HW156906   2.792   3.618  10.889  0.0112 -0.0556 -0.1233
50656SOL    HW256907   2.839   3.609  10.745 -0.1549  0.7696 -0.2328
50657SOL     OW56908   3.100  10.041   7.045  0.5090 -0.1835 -0.6995
50657SOL    HW156909   3.130  10.051   7.135  1.8248  2.3262 -1.3376
50657SOL    HW256910   3.011  10.076   7.045  0.4506 -0.3301 -0.3604
50658SOL     OW56911  10.658  10.776   2.957 -0.5472 -0.2710 -0.5936
50658SOL    HW156912  10.737  10.729   2.928 -0.4920 -0.4122 -0.2135
50658SOL    HW256913  10.627  10.727   3.032 -0.3965  0.3981 -0.0869
50659SOL     OW56914   2.604   4.152   9.099 -0.1711  0.3276 -0.1220
50659SOL    HW156915   2.651   4.069   9.093  0.7012  0.9005 -2.0663
50659SOL    HW256916   2.673   4.218   9.107 -0.7013  1.0642 -1.3570
50660SOL     OW56917  11.596   4.692  11.294  0.1463 -0.0718 -0.2046
50660SOL    HW156918  11.530   4.742  11.341 -0.6595 -1.0521 -0.2523
50660SOL    HW256919  11.678   4.712  11.338 -0.3976  0.0699  0.7569
50661SOL     OW56920   7.766   0.909   1.944 -0.1227  0.4350 -0.0892
50661SOL    HW156921   7.699   0.850   1.978  1.4449 -1.5065 -0.1861
50661SOL    HW256922   7.846   0.883   1.989  0.8569  1.7011 -1.0283
50662SOL     OW56923   0.066   7.410   1.858 -0.4267 -0.5636  0.2825
50662SOL    HW156924   0.057   7.382   1.949 -1.2487 -0.0496  0.3682
50662SOL    HW256925  -0.022   7.398   1.821 -0.1445 -0.5929 -0.3944
50663SOL     OW56926   0.939   3.798   7.146  0.1103 -0.0081 -0.1034
50663SOL    HW156927   0.910   3.713   7.113  2.2633 -0.8211 -0.0749
50663SOL    HW256928   0.874   3.860   7.112 -2.6865 -1.8225  1.5339
50664SOL     OW56929   6.801   6.093   8.088 -0.0384  0.2016  0.1235
50664SOL    HW156930   6.786   6.073   8.181 -1.2319 -0.1503 -0.1346
50664SOL    HW256931   6.784   6.011   8.043  4.9631 -1.0446 -0.0954
50665SOL     OW56932   2.681   6.043   5.470  0.1211 -0.1613 -0.3512
50665SOL    HW156933   2.619   6.085   5.409 -0.6504  1.7198  1.6070
50665SOL    HW256934   2.654   5.951   5.471  0.7084 -0.4908 -3.4177
50666SOL     OW56935   4.615   4.346   5.521  0.4654  0.5312 -0.2669
50666SOL    HW156936   4.601   4.328   5.428 -0.2498  0.7212 -0.2004
50666SOL    HW256937   4.551   4.413   5.543  2.7248  2.8799 -0.3776
50667SOL     OW56938   5.613   2.629   0.936 -0.1377 -0.4503  0.5598
50667SOL    HW156939   5.588   2.615   1.027  2.9188 -1.6867  1.3244
50667SOL    HW256940   5.702   2.664   0.940  0.3343 -1.1552 -1.9423
50668SOL     OW56941   5.185  10.261  10.817  0.1031 -0.0358  0.7299
50668SOL    HW156942   5.099  10.297  10.794 -0.2009 -0.7396  0.7335
50668SOL    HW256943   5.204  10.198  10.748  1.3625  1.2526 -0.1459
50669SOL     OW56944   3.996   9.770   2.439  0.3273 -0.1257  0.1719
50669SOL    HW156945   3.939   9.701   2.406  0.0389 -0.0353  0.4712
50669SOL    HW256946   3.989   9.763   2.534  1.0209 -0.2829  0.2168
50670SOL     OW56947   7.990  10.427   1.026  0.5068 -0.6635  0.1845
50670SOL    HW156948   7.934  10.460   1.096 -0.5554  1.1107 -1.3971
50670SOL    HW256949   8.011  10.337   1.052 -0.3645 -0.2816  2.4249
50671SOL     OW56950   6.511   9.033  10.407 -0.4185  0.3575 -0.1370
50671SOL    HW156951   6.490   8.997  10.320  0.2543  2.3514 -1.1678
50671SOL    HW256952   6.602   9.008  10.422 -0.1154  1.1394 -0.6206
50672SOL     OW56953   9.071   9.965  11.289  0.7709 -0.4445 -0.1945
50672SOL    HW156954   8.985   9.930  11.311  0.8130  0.2437  1.2103
50672SOL    HW256955   9.057  10.020  11.212  0.0091 -0.5312 -0.1199
50673SOL     OW56956  10.683   0.479   1.922 -0.3733  0.2180  0.1511
50673SOL    HW156957  10.705   0.541   1.991  0.7404  1.4410 -1.2339
50673SOL    HW256958  10.608   0.518   1.878 -0.6086 -0.1754  0.2014
50674SOL     OW56959   4.734   1.216   8.807  0.2682 -0.8570 -0.4106
50674SOL    HW156960   4.808   1.275   8.796  1.6595 -1.7513  2.8847
50674SOL    HW256961   4.683   1.255   8.879 -1.3828 -1.3080 -1.2768
50675SOL     OW56962   2.025  10.624  10.970  0.4458  0.3893  0.0704
50675SOL    HW156963   1.998  10.647  11.059 -0.6606 -0.6299  0.0178
50675SOL    HW256964   1.975  10.545  10.949  1.4982 -0.0042 -1.0609
50676SOL     OW56965   2.453   1.669   4.258  0.0027  0.4285 -0.1773
50676SOL    HW156966   2.546   1.660   4.239 -0.1002 -0.5884 -0.2720
50676SOL    HW256967   2.445   1.641   4.349 -0.1609  0.8483 -0.0629
50677SOL     OW56968  11.189  10.254   7.447  0.0197  0.1671 -0.4958
50677SOL    HW156969  11.243  10.246   7.368 -1.1130  1.4664 -1.4595
50677SOL    HW256970  11.186  10.166   7.483  1.1233 -0.3265 -1.5172
50678SOL     OW56971  10.940   8.692   5.271 -0.6861 -0.5373 -0.0846
50678SOL    HW156972  10.895   8.681   5.355 -0.1023 -0.9390  0.1826
50678SOL    HW256973  10.872   8.724   5.211 -0.8892  0.7312  0.7833
50679SOL     OW56974  11.604   4.509   2.854  0.4922 -0.1592  0.5615
50679SOL    HW156975  11.612   4.428   2.904 -1.5505  0.0454  1.3366
50679SOL    HW256976  11.581   4.480   2.766 -1.8535 -0.4925  1.1981
50680SOL     OW56977   6.011   0.554   7.005  0.1609 -0.5650  0.0385
50680SOL    HW156978   5.998   0.515   7.091 -1.1078  1.6943  0.9579
50680SOL    HW256979   6.047   0.640   7.023  0.9497 -0.4726 -1.7815
50681SOL     OW56980   2.426   0.420   1.769 -0.2654 -0.3323 -0.2807
50681SOL    HW156981   2.356   0.475   1.803 -0.7489  0.3143 -2.2541
50681SOL    HW256982   2.389   0.377   1.692  1.4698  0.0094 -1.3662
50682SOL     OW56983   5.282   9.590   6.801 -0.2753 -0.0301 -0.7766
50682SOL    HW156984   5.265   9.560   6.890  1.7142 -0.6495 -0.5488
50682SOL    HW256985   5.259   9.683   6.803 -1.8371 -0.3913 -0.1128
50683SOL     OW56986   8.636   4.037   9.631  0.2480  0.0412 -0.4203
50683SOL    HW156987   8.592   3.973   9.687  0.9193  1.2060  1.5595
50683SOL    HW256988   8.571   4.106   9.619 -0.1419 -0.5383 -1.7285
50684SOL     OW56989   8.622   1.778   3.153  0.3285 -0.1847  0.1355
50684SOL    HW156990   8.699   1.798   3.101 -1.6999 -0.2419 -3.2334
50684SOL    HW256991   8.633   1.686   3.178  1.6746  0.0277  0.3690
50685SOL     OW56992   9.606   4.658   8.161  0.1640  0.3311  0.0074
50685SOL    HW156993   9.666   4.721   8.121 -0.8957  0.9781 -0.5965
50685SOL    HW256994   9.658   4.578   8.172  1.8360  1.5601  1.6745
50686SOL     OW56995   9.362   4.300   2.151 -0.6446  0.0176 -0.2865
50686SOL    HW156996   9.330   4.360   2.218  0.2985  0.0011  0.2006
50686SOL    HW256997   9.410   4.233   2.199  1.3511  0.8216 -1.0303
50687SOL     OW56998   6.823   3.540   6.469  0.0832 -0.2441  0.5370
50687SOL    HW156999   6.867   3.456   6.483  2.0676  0.6197 -0.2627
50687SOL    HW257000   6.835   3.587   6.551  1.0691  0.1611  0.1681
50688SOL     OW57001   2.624   9.300   4.324 -0.5464  0.2695 -0.4264
50688SOL    HW157002   2.608   9.297   4.230 -0.5209 -2.1131 -0.4268
50688SOL    HW257003   2.708   9.255   4.336 -1.4375 -1.1803  0.8432
50689SOL     OW57004   4.589  11.618   9.107  0.2744  0.0223  0.1797
50689SOL    HW157005   4.554  11.595   9.021 -1.2089 -0.4319  0.8665
50689SOL    HW257006   4.545  11.701   9.129  1.5085  0.7449  0.0404
50690SOL     OW57007   1.944   6.476   8.912  0.5904 -0.6336  0.2269
50690SOL    HW157008   1.953   6.538   8.985  0.6882 -1.0349  0.5583
50690SOL    HW257009   2.034   6.451   8.890  0.9166  2.2702 -2.4904
50691SOL     OW57010   4.998  10.234   2.577  0.3009 -0.0853  0.1827
50691SOL    HW157011   5.008  10.174   2.651  2.1680  1.3307  1.1605
50691SOL    HW257012   5.069  10.211   2.517 -1.4342 -1.5013 -1.5018
50692SOL     OW57013   8.574  10.065   2.122 -0.3504  0.9131  0.2184
50692SOL    HW157014   8.554   9.980   2.083  1.2160  0.6612 -0.0918
50692SOL    HW257015   8.520  10.127   2.073  0.9855  0.5041 -1.8755
50693SOL     OW57016   4.302   3.869   4.377 -0.1753  0.0067  0.5669
50693SOL    HW157017   4.368   3.802   4.360  0.5266  0.6364  0.7907
50693SOL    HW257018   4.254   3.876   4.294  0.6918  0.2640  0.0696
50694SOL     OW57019   9.033  10.864   6.748  0.7004  0.6118 -0.1863
50694SOL    HW157020   9.009  10.794   6.688  0.7985  0.8201 -0.4721
50694SOL    HW257021   9.094  10.823   6.810 -1.9759 -0.5129  1.9186
50695SOL     OW57022   1.339   8.325   7.285 -0.1774  0.3099  0.0799
50695SOL    HW157023   1.433   8.325   7.269  0.1934  1.6133  1.9171
50695SOL    HW257024   1.305   8.393   7.227 -0.1594 -0.8468 -1.3175
50696SOL     OW57025   7.916   4.524   7.691 -0.2860  0.3116 -0.3097
50696SOL    HW157026   8.001   4.489   7.664 -0.5157 -0.3529 -0.2052
50696SOL    HW257027   7.856   4.498   7.621 -0.4971  0.3451 -0.1432
50697SOL     OW57028   9.750   4.071   6.762  0.2023  0.4667  0.2246
50697SOL    HW157029   9.836   4.111   6.753  0.4094 -0.0737 -0.2503
50697SOL    HW257030   9.767   3.977   6.761 -0.4963  0.3309 -1.1182
50698SOL     OW57031   9.227   7.049   7.048  0.0290 -0.3512 -0.0475
50698SOL    HW157032   9.173   7.121   7.080 -0.6964 -0.9734  0.1629
50698SOL    HW257033   9.317   7.082   7.053 -0.3783  1.0330 -1.2881
50699SOL     OW57034   7.250  10.135   0.320 -0.0228 -0.3988  0.7087
50699SOL    HW157035   7.154  10.130   0.326 -0.0436 -0.2614  0.4893
50699SOL    HW257036   7.281  10.095   0.401 -0.2554 -1.0532  0.4869
50700SOL     OW57037   2.085   5.804   8.029 -0.2915  0.0132 -0.2241
50700SOL    HW157038   2.050   5.720   8.058  0.5965 -0.7127 -1.1467
50700SOL    HW257039   2.113   5.848   8.109 -3.8077  0.9584  0.6618
50701SOL     OW57040   2.195   9.781   6.564 -0.0510  0.1223  0.0262
50701SOL    HW157041   2.181   9.836   6.641  1.4224  0.7242 -0.0964
50701SOL    HW257042   2.253   9.711   6.595  2.1528  1.4345 -0.9014
50702SOL     OW57043   6.316   8.766   3.691  0.6465  0.7445  0.2439
50702SOL    HW157044   6.234   8.743   3.648  0.3306  1.9034  0.2085
50702SOL    HW257045   6.301   8.854   3.726  1.5282  0.5569  1.1190
50703SOL     OW57046   7.506   3.731   4.210 -0.0538  0.4464  0.3645
50703SOL    HW157047   7.520   3.636   4.210 -0.3011  0.3705  2.2068
50703SOL    HW257048   7.475   3.751   4.122  0.9199 -1.0353 -0.3547
50704SOL     OW57049   8.256   3.720   0.645  0.1437  0.2172  0.5743
50704SOL    HW157050   8.164   3.732   0.669  0.5345 -0.4070  2.5731
50704SOL    HW257051   8.288   3.808   0.628 -0.8139  0.4450 -0.1075
50705SOL     OW57052   9.496  10.685   5.650 -0.2987  0.6333  0.5354
50705SOL    HW157053   9.452  10.603   5.625  0.2439  0.2603  0.7757
50705SOL    HW257054   9.519  10.672   5.742  0.0121  0.9563  0.5031
50706SOL     OW57055   4.021   3.955  11.638 -0.7182 -0.3943 -0.0506
50706SOL    HW157056   3.997   4.043  11.666 -1.2940 -0.0869 -1.4345
50706SOL    HW257057   3.942   3.920  11.596  0.1201 -0.7221 -1.4479
50707SOL     OW57058   9.912   5.485   9.256 -0.4815  0.2642  0.7544
50707SOL    HW157059   9.861   5.566   9.258 -0.2993  0.4224 -0.3559
50707SOL    HW257060   9.992   5.509   9.210 -0.4858 -0.5774  0.2985
50708SOL     OW57061   3.786   8.708   1.433 -0.2746 -0.7421 -0.0236
50708SOL    HW157062   3.867   8.712   1.382  0.4390 -0.3383  1.0855
50708SOL    HW257063   3.761   8.616   1.431  1.3239 -1.2503  1.2368
50709SOL     OW57064   5.799  10.592   0.470  0.2439 -0.0470  0.3880
50709SOL    HW157065   5.797  10.585   0.375 -2.6397  3.0170  0.0460
50709SOL    HW257066   5.881  10.637   0.490  0.4814  0.0105 -0.6919
50710SOL     OW57067   9.783   3.248   7.443  0.0388 -0.6028  0.7679
50710SOL    HW157068   9.784   3.315   7.512  0.8864 -0.3342  0.5086
50710SOL    HW257069   9.857   3.192   7.462 -0.4485 -1.2541  0.7646
50711SOL     OW57070   9.970   1.750   2.580 -0.3421  0.2061  0.3669
50711SOL    HW157071  10.046   1.777   2.529 -0.4791 -0.1635 -0.0471
50711SOL    HW257072   9.919   1.696   2.519 -0.4290 -0.3816  0.9481
50712SOL     OW57073   9.716   4.369   8.184  0.1491  0.6473  0.5601
50712SOL    HW157074   9.731   4.308   8.256 -0.9605 -1.0779 -0.5977
50712SOL    HW257075   9.762   4.331   8.110  2.8736  3.3427  0.6534
50713SOL     OW57076   2.241   6.694   4.826  0.5341  0.1283  0.1572
50713SOL    HW157077   2.256   6.769   4.885 -0.3060  0.5850 -0.1917
50713SOL    HW257078   2.254   6.729   4.738  0.4988 -0.2292  0.0071
50714SOL     OW57079   1.449  10.825  10.338 -0.0252 -0.0209 -0.0823
50714SOL    HW157080   1.383  10.761  10.310  0.8006 -1.7269  1.6721
50714SOL    HW257081   1.429  10.842  10.430  1.1035  0.5762  0.0660
50715SOL     OW57082   0.350   5.306   1.760  0.0329  0.1389  0.4334
50715SOL    HW157083   0.413   5.331   1.827 -0.0148 -2.8646  1.7290
50715SOL    HW257084   0.402   5.290   1.682  0.7110 -0.9629  1.1027
50716SOL     OW57085   2.230   3.563   9.265 -0.2167  0.0307  0.0375
50716SOL    HW157086   2.233   3.535   9.173 -0.5573 -1.4045  0.4377
50716SOL    HW257087   2.159   3.511   9.303  0.7758 -0.3474  1.4226
50717SOL     OW57088   1.742   7.505   1.746  0.1846  0.1502  0.2294
50717SOL    HW157089   1.797   7.581   1.728 -1.5857  1.2814 -0.7064
50717SOL    HW257090   1.664   7.541   1.789 -0.7106 -1.1038 -0.2547
50718SOL     OW57091   4.070   2.246   9.739  0.4082  0.7760 -0.3546
50718SOL    HW157092   4.105   2.198   9.664 -2.0344  1.9792 -2.4302
50718SOL    HW257093   4.097   2.337   9.725 -1.9915  1.4418 -1.1779
50719SOL     OW57094   5.340   9.155   1.950  0.4228  0.8069  0.0277
50719SOL    HW157095   5.337   9.107   1.868 -0.1253 -2.1263  1.6248
50719SOL    HW257096   5.259   9.207   1.950  0.5297  1.0041 -1.3250
50720SOL     OW57097   4.552   0.378   0.998 -0.1915 -0.1884 -0.3691
50720SOL    HW157098   4.643   0.402   0.982 -0.8880  2.0057 -1.5087
50720SOL    HW257099   4.553   0.330   1.081  1.9729 -0.2032 -0.3596
50721SOL     OW57100   6.311   7.189   9.915 -0.3425  0.7435  0.3279
50721SOL    HW157101   6.225   7.198   9.956 -0.4253  0.2956  0.2598
50721SOL    HW257102   6.298   7.217   9.825  0.1681  3.1738  0.9298
50722SOL     OW57103   6.004   2.260   6.066 -0.5300 -0.5089 -0.1809
50722SOL    HW157104   6.082   2.270   6.012  0.6818  0.7632  1.6864
50722SOL    HW257105   5.995   2.345   6.110 -1.5744 -1.4052  1.4252
50723SOL     OW57106   9.978  11.111   4.201  0.0152 -0.0615 -0.0164
50723SOL    HW157107   9.956  11.039   4.142  2.5204 -0.0031 -1.1662
50723SOL    HW257108  10.031  11.170   4.148  1.9892  0.2492  2.1069
50724SOL     OW57109   0.370   4.370   6.165  0.6703 -0.1721 -0.2000
50724SOL    HW157110   0.283   4.353   6.130  1.5517 -1.3852 -1.9451
50724SOL    HW257111   0.360   4.357   6.260 -1.1875  0.4652 -0.2749
50725SOL     OW57112   0.334   8.012   9.899 -0.3231 -0.1397  0.4466
50725SOL    HW157113   0.269   8.080   9.880 -1.0776 -0.8958  0.2282
50725SOL    HW257114   0.401   8.023   9.832 -0.7056  0.0647  0.0947
50726SOL     OW57115   5.853   6.531   6.352  0.0937  0.1444  0.1782
50726SOL    HW157116   5.770   6.495   6.320 -0.7239  1.3601  0.8308
50726SOL    HW257117   5.920   6.487   6.300 -0.9575 -0.8089 -0.4274
50727SOL     OW57118   0.614   7.354   6.938  0.1569  0.0369  0.1353
50727SOL    HW157119   0.527   7.367   6.899  0.7445 -0.4547 -1.3996
50727SOL    HW257120   0.603   7.383   7.029 -0.6001  3.8432 -0.9860
50728SOL     OW57121   5.094   1.627   3.018 -0.5779  0.5187 -0.6036
50728SOL    HW157122   5.013   1.678   3.018 -0.3625  0.8683 -0.8762
50728SOL    HW257123   5.081   1.561   3.086 -1.4965 -0.0665 -1.3144
50729SOL     OW57124   3.898  11.196   4.430  0.0118 -0.6592 -0.2412
50729SOL    HW157125   3.876  11.109   4.461 -1.5967 -0.2297 -0.0854
50729SOL    HW257126   3.830  11.253   4.466  0.5785  0.5353 -0.9732
50730SOL     OW57127   8.055   3.410  10.865 -0.0983  0.3067  0.5147
50730SOL    HW157128   8.102   3.454  10.936 -0.5097  1.4454  0.1035
50730SOL    HW257129   8.125   3.379  10.807  0.2729 -1.2132  1.7109
50731SOL     OW57130   2.314  10.663   7.308 -0.3870 -0.1685  1.0470
50731SOL    HW157131   2.256  10.660   7.384 -1.4800 -0.7983  0.2196
50731SOL    HW257132   2.274  10.603   7.246 -0.2369  1.3043 -0.5397
50732SOL     OW57133  10.278   5.769   1.349 -0.1208  0.2053 -0.3990
50732SOL    HW157134  10.221   5.723   1.286  1.0899 -0.5002 -1.0179
50732SOL    HW257135  10.217   5.814   1.407 -1.3291 -0.7084 -0.8929
50733SOL     OW57136   6.947   5.990   6.651  0.4609  0.2999 -0.8370
50733SOL    HW157137   6.879   5.931   6.685  1.5507  0.5144  1.9860
50733SOL    HW257138   6.899   6.066   6.620 -0.6720  0.7884  1.8027
50734SOL     OW57139   6.327   0.511   3.391 -0.4240  0.3130 -0.1045
50734SOL    HW157140   6.286   0.589   3.352 -0.7691 -0.6712 -1.7873
50734SOL    HW257141   6.253   0.460   3.424 -0.5489 -0.9583 -2.1951
50735SOL     OW57142   4.941   6.000  11.429 -0.3888 -0.0450  0.2431
50735SOL    HW157143   4.918   5.980  11.520  1.0880 -1.0537  0.4267
50735SOL    HW257144   5.036   6.015  11.431 -0.5773  1.4668 -0.8787
50736SOL     OW57145   4.602   7.399  11.465  0.2231  0.3013  0.4240
50736SOL    HW157146   4.522   7.352  11.439 -0.4405  1.6637 -0.0686
50736SOL    HW257147   4.641   7.344  11.533 -0.9481 -0.5618  0.4262
50737SOL     OW57148   4.215   6.277  10.062 -0.2314  0.0922  0.5830
50737SOL    HW157149   4.185   6.367  10.050  0.0267 -0.1198 -2.4267
50737SOL    HW257150   4.142   6.223  10.031  0.8357 -0.6048 -0.8075
50738SOL     OW57151   1.827   6.800  11.207 -0.5170  0.3591  0.3921
50738SOL    HW157152   1.856   6.731  11.147  1.1668  1.8306 -0.5977
50738SOL    HW257153   1.820   6.878  11.152 -1.5968  1.1725  1.6320
50739SOL     OW57154   2.226   8.376   0.436  0.2070  0.7440  0.1910
50739SOL    HW157155   2.255   8.436   0.505  0.5095  0.2335  0.5064
50739SOL    HW257156   2.282   8.396   0.362 -0.2850  1.4693  0.0000
50740SOL     OW57157  11.340   7.992   1.229  0.0995 -0.0725  0.2914
50740SOL    HW157158  11.253   7.978   1.265 -0.2372 -2.3670 -1.1683
50740SOL    HW257159  11.330   8.064   1.167 -0.5983  0.0900  0.5885
50741SOL     OW57160   1.153   4.332   8.518  0.0937  0.4040  0.3374
50741SOL    HW157161   1.181   4.241   8.532 -0.3967 -0.0649 -1.4022
50741SOL    HW257162   1.161   4.345   8.424 -0.5606  1.9359  0.4617
50742SOL     OW57163   1.131   0.002   4.221  0.6951 -0.1616 -0.2601
50742SOL    HW157164   1.122  -0.093   4.223  1.1129 -0.2456 -1.5446
50742SOL    HW257165   1.054   0.032   4.171  0.5480  0.1774  0.1674
50743SOL     OW57166   3.533   7.886   7.706  0.3605 -0.3060 -0.3257
50743SOL    HW157167   3.600   7.930   7.654  1.0802 -2.2111 -1.1264
50743SOL    HW257168   3.572   7.876   7.792 -0.1220  1.2458  0.1070
50744SOL     OW57169   3.691   6.070   7.308 -0.2322  0.1906  0.0831
50744SOL    HW157170   3.784   6.045   7.312 -0.3780 -0.3235  0.3746
50744SOL    HW257171   3.686   6.132   7.235  0.3671  0.3361  0.1583
50745SOL     OW57172   3.936   2.224  10.584  0.1075 -0.3006 -0.4925
50745SOL    HW157173   4.008   2.169  10.616 -0.1599 -1.0266 -1.1081
50745SOL    HW257174   3.867   2.214  10.649  0.2291 -0.3149 -0.3644
50746SOL     OW57175   3.632   7.859   0.799  0.1349 -0.1188 -0.3394
50746SOL    HW157176   3.653   7.826   0.712 -3.6087 -2.9948 -0.4242
50746SOL    HW257177   3.657   7.788   0.858 -0.1074  0.5480  0.5893
50747SOL     OW57178   8.634   9.300   5.677 -0.9132  0.3578 -0.0765
50747SOL    HW157179   8.581   9.359   5.730 -1.1417  0.9271 -0.9154
50747SOL    HW257180   8.624   9.332   5.588 -0.7210 -0.7154 -0.5055
50748SOL     OW57181   6.167   4.533   2.821  0.6916  0.7024 -0.2898
50748SOL    HW157182   6.095   4.485   2.863  0.8481  0.3278 -0.4459
50748SOL    HW257183   6.240   4.526   2.883  1.3421 -0.9964 -1.1778
50749SOL     OW57184   7.356   1.325   7.619 -0.4978 -0.3712  0.0706
50749SOL    HW157185   7.311   1.345   7.701  0.0535 -1.8662  0.7864
50749SOL    HW257186   7.387   1.235   7.631  2.2418  0.4012 -0.5755
50750SOL     OW57187   4.164  10.831   3.866 -0.0976  0.0358 -0.1199
50750SOL    HW157188   4.245  10.864   3.907  0.1613 -2.5437  1.7081
50750SOL    HW257189   4.167  10.865   3.777  3.0097  0.1264 -0.1074
50751SOL     OW57190   4.497   8.262   1.748  0.4605  0.0989 -0.3397
50751SOL    HW157191   4.507   8.322   1.822 -0.2634 -0.8656  0.5661
50751SOL    HW257192   4.587   8.237   1.726  0.9436  2.7530 -1.8529
50752SOL     OW57193   2.129   7.063   0.633  1.0057 -0.9441  0.3183
50752SOL    HW157194   2.204   7.079   0.690  1.8273  2.3816 -1.4618
50752SOL    HW257195   2.062   7.027   0.691  2.3742  0.5443  3.0012
50753SOL     OW57196   7.212   8.244   1.027  0.1471 -0.1565 -0.5331
50753SOL    HW157197   7.200   8.229   0.933 -2.0098  0.2438 -0.3530
50753SOL    HW257198   7.265   8.324   1.032 -0.4908  0.3386 -1.4237
50754SOL     OW57199   2.881   5.860   3.062 -0.1207  0.1581 -0.1282
50754SOL    HW157200   2.931   5.796   3.012 -0.2619 -1.7532  2.0046
50754SOL    HW257201   2.935   5.939   3.062  0.9159 -0.5237 -1.3105
50755SOL     OW57202   1.716   4.918  10.058 -0.4443  0.2869  0.2810
50755SOL    HW157203   1.631   4.957  10.040 -0.8153  0.5508  2.2899
50755SOL    HW257204   1.696   4.828  10.084  0.0463 -0.1150 -0.6925
50756SOL     OW57205   4.303   5.618   0.987 -0.4359 -0.5139  0.1341
50756SOL    HW157206   4.297   5.643   1.079 -1.4523 -0.1689 -0.0116
50756SOL    HW257207   4.331   5.698   0.942 -1.2491 -0.3048 -0.0161
50757SOL     OW57208   1.541   6.680   1.444  0.0845 -0.1556 -0.1182
50757SOL    HW157209   1.601   6.617   1.404 -1.5158 -2.1426  0.4611
50757SOL    HW257210   1.456   6.661   1.405 -0.9307 -0.0988  1.9362
50758SOL     OW57211   9.294   6.847  10.004 -0.4253 -0.1203 -0.3769
50758SOL    HW157212   9.294   6.938  10.032  0.3170 -0.2966  0.2300
50758SOL    HW257213   9.384   6.817  10.020 -0.5344 -0.8192 -1.0284
50759SOL     OW57214   1.949   9.222   6.189  0.2809 -0.1563  0.4098
50759SOL    HW157215   1.905   9.275   6.256 -0.6498 -1.8724  1.2265
50759SOL    HW257216   1.887   9.218   6.117  0.6869  0.4969  0.0116
50760SOL     OW57217   6.748   8.031   8.403  0.4366 -0.1404 -0.1309
50760SOL    HW157218   6.780   8.014   8.314  0.7259  0.6851 -0.1887
50760SOL    HW257219   6.800   7.972   8.459  2.4275  1.4847 -0.1651
50761SOL     OW57220   9.258   0.077   1.975 -0.7110  0.5752 -0.3148
50761SOL    HW157221   9.243   0.117   2.061 -1.2247 -0.0208 -0.1177
50761SOL    HW257222   9.190   0.009   1.969 -0.7729  0.7166 -1.2567
50762SOL     OW57223   5.430   1.063   3.253  0.5399 -0.0380 -0.0480
50762SOL    HW157224   5.483   0.992   3.290  1.3966  0.3173 -0.5412
50762SOL    HW257225   5.472   1.081   3.168  0.4624  1.1812  0.1639
50763SOL     OW57226   2.313   7.538   1.680  0.1780  0.1853 -0.3926
50763SOL    HW157227   2.285   7.564   1.768 -0.7422  1.0537 -0.9205
50763SOL    HW257228   2.390   7.484   1.694 -0.8899 -1.0372  1.0454
50764SOL     OW57229   2.289  10.215   1.105 -0.2317 -0.2561 -0.5319
50764SOL    HW157230   2.240  10.209   1.023  1.0054 -1.7035 -1.2035
50764SOL    HW257231   2.274  10.305   1.135 -2.7580 -0.4625 -1.0078
50765SOL     OW57232   7.636   6.798   3.955  0.2508 -0.0393  0.7013
50765SOL    HW157233   7.679   6.714   3.943  1.6504  0.5421  1.3908
50765SOL    HW257234   7.675   6.834   4.036 -1.2761  0.6853  1.1543
50766SOL     OW57235   8.381   1.802   1.724  0.2781  0.3743 -0.1685
50766SOL    HW157236   8.311   1.818   1.660  0.9317  2.0779 -0.4831
50766SOL    HW257237   8.369   1.870   1.790 -0.2790 -1.2545  1.4923
50767SOL     OW57238   7.737   4.659   9.477 -0.1113 -0.0242  0.0354
50767SOL    HW157239   7.800   4.600   9.518 -1.3502  0.5548  3.0823
50767SOL    HW257240   7.666   4.601   9.447 -0.4225 -0.2865  1.2270
50768SOL     OW57241   1.487   5.630   4.449  0.1023  0.1120 -0.4286
50768SOL    HW157242   1.512   5.579   4.372  1.1333  0.6531 -0.4697
50768SOL    HW257243   1.501   5.570   4.523  0.4850  0.0424 -0.5527
50769SOL     OW57244   1.401  10.854  11.662  0.1735  0.5198  0.3686
50769SOL    HW157245   1.423  10.896  11.579 -0.8080 -0.4698 -0.4153
50769SOL    HW257246   1.446  10.770  11.661 -0.3678  0.2160  0.5276
50770SOL     OW57247   0.586   8.237   8.645  0.1727 -0.1563  0.1721
50770SOL    HW157248   0.622   8.240   8.733 -1.6437  0.9195  0.9445
50770SOL    HW257249   0.614   8.153   8.610  2.5006  0.1784  1.0465
50771SOL     OW57250   1.055   2.088   0.577  0.3306 -0.2199 -0.3254
50771SOL    HW157251   0.967   2.093   0.541 -0.2445  1.6294  1.2220
50771SOL    HW257252   1.100   2.165   0.542  1.2938 -1.0107 -0.9012
50772SOL     OW57253   7.067   4.952   5.176  0.0003 -0.1849  0.0296
50772SOL    HW157254   7.155   4.916   5.166  0.1793  0.4641 -0.8597
50772SOL    HW257255   7.027   4.941   5.090 -0.2170  0.9710 -0.0375
50773SOL     OW57256   8.639   8.798   4.973 -0.0336  0.4490 -0.3397
50773SOL    HW157257   8.576   8.759   5.033  0.3848 -0.4948 -0.4985
50773SOL    HW257258   8.684   8.864   5.025 -0.8642  0.8464 -0.1117
50774SOL     OW57259  11.316   1.985   1.574 -0.4314  0.4711  0.1282
50774SOL    HW157260  11.337   1.892   1.588 -0.9121  0.3135 -0.1535
50774SOL    HW257261  11.220   1.989   1.579 -0.8341  0.2187 -3.7501
50775SOL     OW57262   3.884  11.616   5.227 -0.2817  0.0402 -0.4514
50775SOL    HW157263   3.909  11.533   5.186  0.7962 -0.0410  0.3284
50775SOL    HW257264   3.849  11.591   5.312  0.2467  0.3799 -0.1245
50776SOL     OW57265   3.961   3.008   3.949 -0.1445 -0.0452 -0.3606
50776SOL    HW157266   4.012   2.935   3.912 -0.0750  0.2793 -0.9223
50776SOL    HW257267   3.929   2.975   4.033 -0.6790 -0.9664 -0.9105
50777SOL     OW57268   4.362  11.241   7.170  0.8018 -0.1623  0.1960
50777SOL    HW157269   4.270  11.231   7.196  0.5140  0.9103 -0.3693
50777SOL    HW257270   4.371  11.333   7.147  1.2901 -0.7975 -2.4995
50778SOL     OW57271   4.515   5.224  10.981 -0.3452  0.1005  0.5095
50778SOL    HW157272   4.453   5.156  11.008  0.4606 -1.7518 -1.9171
50778SOL    HW257273   4.469   5.273  10.913  0.5872 -1.0271 -1.0155
50779SOL     OW57274  10.394   3.762   9.448  0.3385 -0.7304  0.0308
50779SOL    HW157275  10.374   3.822   9.520 -0.5390  1.6454 -2.0342
50779SOL    HW257276  10.308   3.737   9.413  0.7561 -0.5408 -1.1747
50780SOL     OW57277   9.896   8.027   1.589  0.6573 -0.6119  0.2756
50780SOL    HW157278   9.909   8.106   1.536 -0.2993 -1.2717 -1.0202
50780SOL    HW257279   9.803   8.029   1.611  0.0259 -2.5294 -1.8230
50781SOL     OW57280   5.337   9.729   6.138 -0.6207  0.4370 -0.1399
50781SOL    HW157281   5.289   9.801   6.180 -1.1637  0.1282 -0.2267
50781SOL    HW257282   5.418   9.769   6.107  0.3811  0.4297  2.2854
50782SOL     OW57283  10.801  11.035   9.515 -0.0804  0.0786 -0.0170
50782SOL    HW157284  10.721  11.083   9.495 -1.2166 -1.1869  1.2306
50782SOL    HW257285  10.811  11.043   9.610  1.7274  0.8307 -0.2222
50783SOL     OW57286   7.436  10.362   1.972 -0.3071 -0.2484  0.2537
50783SOL    HW157287   7.427  10.302   1.897  1.8455 -1.6487  1.0198
50783SOL    HW257288   7.518  10.336   2.013 -0.6421  1.5473  2.1975
50784SOL     OW57289   1.126   3.115  11.467 -0.3109 -0.2834  0.4232
50784SOL    HW157290   1.119   3.091  11.375 -0.4317 -0.3979  0.4625
50784SOL    HW257291   1.219   3.137  11.478 -0.1787 -0.8218  0.4063
50785SOL     OW57292  10.736   7.257   1.123 -0.1673 -0.2671  0.2067
50785SOL    HW157293  10.729   7.301   1.038 -1.4091 -1.2706 -0.2503
50785SOL    HW257294  10.740   7.328   1.187 -1.5325  0.5282 -0.5415
50786SOL     OW57295   1.018   5.388   1.739 -0.0255 -0.7252 -0.4983
50786SOL    HW157296   1.066   5.309   1.717  1.8134  0.6399 -1.6545
50786SOL    HW257297   1.020   5.441   1.659 -0.6352  0.7756  0.4263
50787SOL     OW57298   7.774  10.331   6.032 -0.0754 -0.4167  0.0836
50787SOL    HW157299   7.863  10.298   6.017 -0.0180  0.2304 -1.1467
50787SOL    HW257300   7.732  10.326   5.946 -1.8031 -2.2815  0.9574
50788SOL     OW57301   7.348   9.437   8.255  0.4973  0.0372 -0.3152
50788SOL    HW157302   7.425   9.492   8.241  0.2597  0.3795 -0.2940
50788SOL    HW257303   7.309   9.427   8.168  0.0340  0.6611 -0.1910
50789SOL     OW57304   8.466   3.843   4.093  0.5777  0.0684 -0.5066
50789SOL    HW157305   8.498   3.761   4.055  2.1387  0.4341 -0.0367
50789SOL    HW257306   8.434   3.818   4.180 -1.4234 -0.4695 -1.3442
50790SOL     OW57307   6.171   2.464   1.995  0.2803  0.1955 -0.4422
50790SOL    HW157308   6.186   2.412   2.074  3.2124  1.2386 -0.2055
50790SOL    HW257309   6.155   2.399   1.926  0.9839 -0.8758  0.3817
50791SOL     OW57310   7.841  10.022   8.513 -0.1685  0.2453  0.8940
50791SOL    HW157311   7.844  10.117   8.500 -0.8440  0.1575 -0.0683
50791SOL    HW257312   7.890   9.987   8.438 -0.9204 -0.1870  0.5873
50792SOL     OW57313   7.963   3.060   5.244 -0.3335  0.1936 -0.3154
50792SOL    HW157314   7.939   2.968   5.260  0.8885 -0.6605 -2.8181
50792SOL    HW257315   7.956   3.101   5.330 -0.7334 -2.2753  0.9507
50793SOL     OW57316   7.918  10.069   1.779 -0.2478 -0.2547 -0.1961
50793SOL    HW157317   7.959   9.982   1.779  0.2440 -0.0407 -1.5782
50793SOL    HW257318   7.824  10.051   1.787 -0.1848 -0.9407 -0.9105
50794SOL     OW57319   2.246   6.104   1.599  0.2520  0.5272  0.1703
50794SOL    HW157320   2.295   6.092   1.518  0.1047  1.1330 -0.0076
50794SOL    HW257321   2.172   6.159   1.575  1.0170  1.9920  1.0169
50795SOL     OW57322   1.046   9.728  11.324  0.0799 -0.5621  0.4770
50795SOL    HW157323   0.982   9.680  11.377 -1.3438  0.0324 -0.6474
50795SOL    HW257324   1.065   9.670  11.250  1.3903 -1.0160  1.1326
50796SOL     OW57325   9.835   7.218   3.951 -0.6005 -0.1585  0.6584
50796SOL    HW157326   9.755   7.269   3.963 -1.3375 -0.8027 -1.1029
50796SOL    HW257327   9.809   7.144   3.895  1.3852  0.0821 -0.7169
50797SOL     OW57328   3.205   6.368   3.374  0.0806  0.2414 -0.1035
50797SOL    HW157329   3.145   6.391   3.303  0.1529 -2.1341 -1.0448
50797SOL    HW257330   3.169   6.410   3.452 -0.7462  1.8319 -1.2937
50798SOL     OW57331   9.207   7.887   9.215  0.2395  0.3889 -0.0055
50798SOL    HW157332   9.226   7.946   9.142 -1.0432  0.9542  0.0906
50798SOL    HW257333   9.172   7.944   9.283  0.1031 -0.3199  0.5281
50799SOL     OW57334   3.523   1.177   8.169 -0.1257 -0.2670  0.0821
50799SOL    HW157335   3.618   1.186   8.175 -0.1723  0.8797 -0.5737
50799SOL    HW257336   3.492   1.267   8.154 -1.1552 -0.8707 -1.6057
50800SOL     OW57337   7.846   8.755   9.589 -0.1479 -0.7672 -0.6159
50800SOL    HW157338   7.812   8.667   9.608  1.9044 -1.2522  1.1912
50800SOL    HW257339   7.904   8.743   9.514  1.2240 -1.2707  0.4958
50801SOL     OW57340   5.985   3.813   4.418  0.1932  0.5600  0.3405
50801SOL    HW157341   5.970   3.723   4.447 -0.3425  0.7639  0.7152
50801SOL    HW257342   6.005   3.804   4.325 -0.9825  0.1334  0.1040
50802SOL     OW57343   1.706   0.049   2.136  0.6773 -0.2868  0.2215
50802SOL    HW157344   1.680   0.016   2.050 -0.1808 -0.8568  0.6903
50802SOL    HW257345   1.766  -0.017   2.170  1.8589  0.4610 -0.3746
50803SOL     OW57346   6.891   8.856  10.299 -0.1270 -0.2481  0.5395
50803SOL    HW157347   6.935   8.882  10.379 -1.1697 -0.4602  1.2013
50803SOL    HW257348   6.929   8.771  10.276  0.5549  0.0656  0.4988
50804SOL     OW57349  11.287   1.992   2.611  0.3889 -0.5460  0.7282
50804SOL    HW157350  11.298   2.079   2.574 -2.4548 -0.6080 -0.4949
50804SOL    HW257351  11.308   1.933   2.539 -2.6754 -0.7033 -0.1669
50805SOL     OW57352   4.074   8.159  10.540  0.2621  0.1141  0.0057
50805SOL    HW157353   4.016   8.125  10.472 -1.0264  0.1918  1.0130
50805SOL    HW257354   4.162   8.139  10.510 -0.3481 -1.2986 -0.9037
50806SOL     OW57355   6.707   2.161   9.548  0.0325  0.1964  0.4009
50806SOL    HW157356   6.661   2.224   9.492  0.3418  0.7322  0.7411
50806SOL    HW257357   6.641   2.129   9.609 -0.0441  0.4651  0.4606
50807SOL     OW57358  11.140   9.566   8.033  0.3335 -0.2014 -0.7686
50807SOL    HW157359  11.084   9.489   8.022  0.3850 -0.1019 -1.8874
50807SOL    HW257360  11.224   9.531   8.064 -0.3256 -0.3458  0.9883
50808SOL     OW57361   1.219   8.212   5.031 -0.5512 -0.4358 -0.2454
50808SOL    HW157362   1.313   8.205   5.051 -1.0472 -0.4404  2.4881
50808SOL    HW257363   1.185   8.124   5.043 -1.2050 -0.0670  0.7809
50809SOL     OW57364   8.015   6.089   1.867  0.2484 -0.5677  0.1936
50809SOL    HW157365   8.066   6.122   1.942  1.2706 -1.0965 -0.2511
50809SOL    HW257366   7.927   6.121   1.883  0.5428 -0.2848  1.4016
50810SOL     OW57367   5.092   3.122   0.650  0.3133  0.1176 -0.0349
50810SOL    HW157368   5.087   3.033   0.685 -3.3561  0.1019 -0.2088
50810SOL    HW257369   5.135   3.111   0.565 -0.0532 -1.5123 -0.0519
50811SOL     OW57370   6.927   8.142   7.523  0.1733  0.2849 -0.1974
50811SOL    HW157371   6.835   8.167   7.521 -0.1219 -0.7923 -0.5993
50811SOL    HW257372   6.928   8.052   7.489  1.3860  0.3431 -0.3423
50812SOL     OW57373   7.923   5.917   3.723  0.0286 -0.4938  0.1874
50812SOL    HW157374   7.849   5.940   3.780  0.5248 -0.6327  0.8972
50812SOL    HW257375   7.884   5.907   3.636 -0.5892  0.6604  0.3083
50813SOL     OW57376   5.086   2.425   5.100  0.6320  0.2704 -0.5945
50813SOL    HW157377   5.135   2.421   5.018 -0.1939  2.6782 -1.3010
50813SOL    HW257378   5.137   2.484   5.155  1.2707 -1.4625  0.7438
50814SOL     OW57379   6.812   7.788   5.881  0.3317 -0.3730  0.0644
50814SOL    HW157380   6.839   7.810   5.792 -1.3690 -0.0396 -0.4113
50814SOL    HW257381   6.747   7.855   5.904 -1.1451 -1.8917  0.5475
50815SOL     OW57382   7.033   9.437   4.815 -0.1479 -0.0725  0.2281
50815SOL    HW157383   7.056   9.528   4.796 -2.1521  0.4118 -0.1311
50815SOL    HW257384   7.002   9.402   4.731  1.3839 -1.3976  0.1547
50816SOL     OW57385   4.766   3.453   0.591 -0.1891  0.1650  0.1067
50816SOL    HW157386   4.715   3.508   0.651 -0.8030 -0.7378  0.4375
50816SOL    HW257387   4.759   3.498   0.506  1.8905  2.2439  0.9167
50817SOL     OW57388   7.817   1.251   4.734  0.4500 -0.0834 -0.1174
50817SOL    HW157389   7.856   1.303   4.663  2.3596 -0.8853  0.2756
50817SOL    HW257390   7.766   1.183   4.689 -0.0485  0.6455 -0.6695
50818SOL     OW57391   3.877   4.921   9.132  0.1457  0.6058  0.1615
50818SOL    HW157392   3.892   4.871   9.212 -0.7227  0.3396  0.1698
50818SOL    HW257393   3.804   4.979   9.153 -1.6739 -1.0757 -1.0849
50819SOL     OW57394   9.807   5.157   3.521 -0.5655 -0.3019  0.0968
50819SOL    HW157395   9.744   5.226   3.500 -0.1197 -0.1777 -0.8810
50819SOL    HW257396   9.800   5.096   3.448  1.9004  0.7557 -1.1453
50820SOL     OW57397   6.027   5.832   8.639 -0.8338 -0.3501  0.1006
50820SOL    HW157398   5.935   5.844   8.616 -0.5076  0.7156 -0.7350
50820SOL    HW257399   6.053   5.916   8.678 -0.4233 -0.9247  1.0974
50821SOL     OW57400   1.148   2.518   7.372 -0.1019  0.1690  0.1350
50821SOL    HW157401   1.087   2.474   7.314 -1.6814  1.3201  0.8434
50821SOL    HW257402   1.132   2.480   7.459  2.8080 -2.1367 -0.1773
50822SOL     OW57403   6.865   1.120  11.323 -0.0137 -0.8019  0.1283
50822SOL    HW157404   6.916   1.201  11.328  0.4960 -1.1902  2.2259
50822SOL    HW257405   6.913   1.065  11.261  0.0732  0.1802 -0.7099
50823SOL     OW57406   4.200   6.964   2.874 -0.4400 -0.6805  0.2432
50823SOL    HW157407   4.147   7.011   2.810  1.3220  2.2283  0.7294
50823SOL    HW257408   4.145   6.957   2.951 -0.9358  0.1635 -0.0228
50824SOL     OW57409   3.047   2.704   2.490 -0.0710 -0.4152  0.1306
50824SOL    HW157410   3.036   2.791   2.450 -2.4395 -1.0200 -0.6583
50824SOL    HW257411   3.062   2.722   2.583 -1.2343  0.8290  0.0998
50825SOL     OW57412   2.229   2.067   7.703 -0.0576  0.0773 -0.3322
50825SOL    HW157413   2.163   2.090   7.770 -1.2282  0.6253 -1.6209
50825SOL    HW257414   2.189   2.094   7.620  2.2237  1.3701 -1.0955
50826SOL     OW57415   3.374  10.562   1.602 -0.0574  0.8424  0.3688
50826SOL    HW157416   3.294  10.612   1.618 -0.4210  0.7717 -1.0934
50826SOL    HW257417   3.393  10.575   1.509 -0.3249 -1.9358 -0.1785
50827SOL     OW57418   7.706   0.005   1.045 -0.1957  0.7481  0.2436
50827SOL    HW157419   7.656   0.016   0.964 -1.6921  0.5803  1.1206
50827SOL    HW257420   7.640  -0.006   1.113  1.0521 -0.1743  1.3488
50828SOL     OW57421   1.450  10.758   0.886  0.0678  0.3378 -0.1759
50828SOL    HW157422   1.368  10.715   0.911  0.3075 -0.8634 -1.3101
50828SOL    HW257423   1.440  10.848   0.916 -2.1199  0.5132 -1.2359
50829SOL     OW57424   3.561   6.257   5.018 -0.0133 -0.4357  0.0417
50829SOL    HW157425   3.494   6.189   5.020 -0.9594  0.4672  0.2700
50829SOL    HW257426   3.621   6.230   4.949 -0.1147 -1.7163  0.4304
50830SOL     OW57427   5.584   1.779   0.293  0.0639  0.0194 -0.4778
50830SOL    HW157428   5.576   1.764   0.387  2.3656  1.7361  0.0625
50830SOL    HW257429   5.612   1.695   0.257 -0.9533 -0.6852  0.2913
50831SOL     OW57430   8.423   0.071   9.396 -0.3843  0.0769 -1.0227
50831SOL    HW157431   8.420   0.153   9.347  0.1884  1.1236  0.5750
50831SOL    HW257432   8.367   0.087   9.472  1.3666 -0.2136  0.3909
50832SOL     OW57433   3.800   7.988   3.171  0.2786 -0.5815 -0.3968
50832SOL    HW157434   3.776   7.998   3.079  0.9624  0.7432 -0.4629
50832SOL    HW257435   3.720   7.959   3.214 -0.9254  1.6617 -0.9349
50833SOL     OW57436   8.768   4.050  10.749 -0.1648 -0.6565 -0.2328
50833SOL    HW157437   8.720   3.971  10.724  2.1724 -1.6462 -1.9776
50833SOL    HW257438   8.832   4.019  10.814  0.3895 -0.1087 -0.5045
50834SOL     OW57439   7.860   5.953   2.141  0.2033 -0.1826 -0.4765
50834SOL    HW157440   7.798   5.880   2.139  0.1170 -0.1008 -0.9034
50834SOL    HW257441   7.809   6.030   2.117  0.4021 -0.0619 -0.5225
50835SOL     OW57442   2.322   0.257   3.522  0.1266  0.6018 -0.0738
50835SOL    HW157443   2.265   0.196   3.474 -0.3764  2.3932 -1.8844
50835SOL    HW257444   2.261   0.320   3.561  0.7524  2.4535 -1.9041
50836SOL     OW57445   2.060   3.383   6.557 -0.7364  0.4418  0.0628
50836SOL    HW157446   2.057   3.469   6.516 -0.7355 -0.7160 -2.6100
50836SOL    HW257447   2.138   3.341   6.520  0.0983 -0.2417  2.4121
50837SOL     OW57448   6.139  10.877   1.722  0.3119 -0.0675  0.8902
50837SOL    HW157449   6.082  10.861   1.797  1.2293 -0.7109  1.4666
50837SOL    HW257450   6.180  10.962   1.741  0.8004 -0.3907  1.2849
50838SOL     OW57451   3.118   6.232   4.456 -0.3504 -0.1888 -0.0175
50838SOL    HW157452   3.121   6.141   4.488 -0.3431  0.2589  1.3199
50838SOL    HW257453   3.032   6.263   4.481 -0.0926  0.3863  0.1692
50839SOL     OW57454   9.559   5.278   8.567 -0.3497  0.3856 -0.2057
50839SOL    HW157455   9.598   5.288   8.480  0.1485 -0.9599 -0.1642
50839SOL    HW257456   9.547   5.183   8.576 -1.7466  0.6243  0.6131
50840SOL     OW57457   7.071  10.519   3.864 -0.2692 -0.3213 -0.0075
50840SOL    HW157458   7.009  10.590   3.878  0.7165  0.6551 -0.4416
50840SOL    HW257459   7.154  10.563   3.846  0.1297 -1.5779 -1.3695
50841SOL     OW57460   4.133   0.027  10.834 -0.3007  0.1130 -0.0838
50841SOL    HW157461   4.121  -0.056  10.788 -0.4384  0.4582 -0.6899
50841SOL    HW257462   4.045   0.052  10.861 -0.1571 -0.3367  0.8223
50842SOL     OW57463   3.651  10.468   0.725  0.5233  0.0082  0.3709
50842SOL    HW157464   3.609  10.401   0.671  0.6842  1.8997 -2.2727
50842SOL    HW257465   3.585  10.493   0.789 -0.5601 -0.6035 -0.4829
50843SOL     OW57466   9.713   8.957   9.675 -0.2769 -1.0523  0.1653
50843SOL    HW157467   9.772   8.892   9.714 -0.3119 -1.2711 -0.1419
50843SOL    HW257468   9.767   9.035   9.664 -0.6309 -0.5141  1.9699
50844SOL     OW57469   5.571   9.469  10.278 -0.4340 -0.1051  0.1478
50844SOL    HW157470   5.513   9.404  10.239 -0.0298 -1.0089  1.0277
50844SOL    HW257471   5.584   9.439  10.368  2.2775 -0.5548 -0.3117
50845SOL     OW57472   0.559   7.506   1.484 -0.4119 -0.4884 -0.4576
50845SOL    HW157473   0.516   7.545   1.560  0.5031  0.2859 -0.3175
50845SOL    HW257474   0.588   7.420   1.515 -1.6465 -0.9491 -0.4988
50846SOL     OW57475   0.829   7.663   7.245  0.2986 -0.2007 -0.2780
50846SOL    HW157476   0.773   7.629   7.315 -0.7903  1.0573 -0.5146
50846SOL    HW257477   0.813   7.606   7.171 -1.2433  0.5592 -0.5631
50847SOL     OW57478   9.858   6.452  10.870 -0.0344 -0.8199  0.2936
50847SOL    HW157479   9.813   6.469  10.954  2.1292 -0.1981  1.4009
50847SOL    HW257480   9.934   6.399  10.894  0.9362 -0.1664 -1.1954
50848SOL     OW57481   3.520   9.174  11.164  0.2766 -0.2637  0.1557
50848SOL    HW157482   3.586   9.228  11.207 -1.1349  0.2525  1.7903
50848SOL    HW257483   3.540   9.085  11.194  0.3961 -0.1567  0.3969
50849SOL     OW57484   5.977   9.054   9.865  0.4520 -0.0789  0.0394
50849SOL    HW157485   6.003   9.135   9.910 -1.2668  0.3003  0.4079
50849SOL    HW257486   5.987   9.075   9.772  1.1498  0.1360  0.1492
50850SOL     OW57487   4.550   6.648   8.029  0.3693 -0.0903  0.7507
50850SOL    HW157488   4.491   6.642   8.104  1.3883  0.9988  1.6969
50850SOL    HW257489   4.617   6.581   8.046  0.0614 -0.5176  0.2954
50851SOL     OW57490   6.833   5.423   1.728  0.4450 -0.0440  0.0945
50851SOL    HW157491   6.928   5.413   1.723  0.3735 -2.4091  1.6770
50851SOL    HW257492   6.805   5.438   1.637  2.2131 -0.5691 -0.5713
50852SOL     OW57493  11.583   8.355   2.349  0.2395  0.0036  0.2537
50852SOL    HW157494  11.629   8.345   2.265 -0.7371 -1.8442 -0.1294
50852SOL    HW257495  11.589   8.268   2.389 -0.6207  0.4589  1.4111
50853SOL     OW57496   3.934   5.543   4.181  0.2987  0.7635 -0.7373
50853SOL    HW157497   3.862   5.529   4.121 -0.8701 -1.2512  0.9932
50853SOL    HW257498   4.007   5.570   4.126 -0.9186 -0.2164 -2.9228
50854SOL     OW57499   1.860   1.011   1.044  0.1555 -0.3432 -0.8647
50854SOL    HW157500   1.866   1.106   1.059 -0.0730 -0.5887  0.9356
50854SOL    HW257501   1.779   1.000   0.995  0.3193  0.4134 -1.3237
50855SOL     OW57502   0.993   0.263   1.597 -0.4023  0.8048  0.5328
50855SOL    HW157503   1.003   0.352   1.632  2.1758  1.1075 -0.6959
50855SOL    HW257504   0.911   0.265   1.548 -1.2711  1.9644  1.9517
50856SOL     OW57505   1.980   7.407  10.352  0.7310  0.4307 -0.5109
50856SOL    HW157506   1.969   7.373  10.263  1.8540  1.6599 -1.1567
50856SOL    HW257507   1.895   7.448  10.372  0.3070 -0.2825 -0.8023
50857SOL     OW57508   3.852   8.236  11.002  0.5782 -0.2880 -1.0432
50857SOL    HW157509   3.792   8.301  11.039 -1.3311 -1.0007 -2.7212
50857SOL    HW257510   3.935   8.252  11.048 -1.3718 -0.7632  3.1778
50858SOL     OW57511   0.648   9.146   7.242 -0.3430  0.1840  0.1922
50858SOL    HW157512   0.554   9.149   7.258 -0.2623  1.6232  0.5828
50858SOL    HW257513   0.676   9.062   7.277 -1.7219 -1.0544 -1.4793
50859SOL     OW57514  11.165   7.254   1.677 -0.1317  0.5560 -0.0568
50859SOL    HW157515  11.098   7.310   1.715 -1.3270 -0.9955  0.2043
50859SOL    HW257516  11.239   7.261   1.738 -1.2143 -0.1514  1.3976
50860SOL     OW57517   2.938  10.944   2.332 -0.1250 -0.0255 -0.6321
50860SOL    HW157518   2.988  10.911   2.407  1.4701  0.8424 -1.2692
50860SOL    HW257519   2.994  10.927   2.256 -0.5850  1.3921 -1.3162
50861SOL     OW57520   9.724   4.490   9.976 -0.0471 -0.6753 -0.1329
50861SOL    HW157521   9.645   4.437   9.965 -0.4097 -0.2606  0.4015
50861SOL    HW257522   9.704   4.548  10.050  1.4153 -1.8103  1.2333
50862SOL     OW57523   1.514  11.102   7.022 -0.1527  0.1185 -0.4451
50862SOL    HW157524   1.532  11.096   6.928 -0.1953  1.1575 -0.5255
50862SOL    HW257525   1.421  11.125   7.027  0.0805  1.0451 -0.1790
50863SOL     OW57526   1.512   8.313   2.449  0.2205  0.1910  0.1324
50863SOL    HW157527   1.489   8.221   2.435 -1.2362  0.4025  0.8802
50863SOL    HW257528   1.432   8.361   2.427  0.6518  1.2013  0.6929
50864SOL     OW57529   7.001   5.722   3.266  0.2406  0.5931 -0.0934
50864SOL    HW157530   6.919   5.771   3.257  0.3416  0.7823  0.0007
50864SOL    HW257531   7.062   5.785   3.303 -0.4080 -0.4032  2.9491
50865SOL     OW57532   2.167   5.818   2.287 -0.1947  0.6165  0.3501
50865SOL    HW157533   2.243   5.800   2.231 -0.5966 -1.0937  0.3011
50865SOL    HW257534   2.117   5.883   2.239  0.9745  1.4016  0.1457
50866SOL     OW57535   1.536   4.118  10.964 -0.7113 -0.6186  0.2456
50866SOL    HW157536   1.516   4.205  11.000  1.9591 -0.5885  1.9458
50866SOL    HW257537   1.529   4.059  11.039 -0.3571 -1.5003 -0.4005
50867SOL     OW57538   0.154  11.071   7.474 -0.4510 -0.4380  0.7456
50867SOL    HW157539   0.217  11.004   7.503  0.8045  0.7050  0.7818
50867SOL    HW257540   0.122  11.110   7.555 -0.6229 -0.4988  0.7067
50868SOL     OW57541   7.174   5.183   0.121  0.1077 -0.0018 -0.2509
50868SOL    HW157542   7.245   5.182   0.186 -0.2725 -0.9239  0.1800
50868SOL    HW257543   7.161   5.275   0.100  1.5834  0.1702 -0.5104
50869SOL     OW57544  10.468   7.993   2.372  0.0196 -0.0317 -0.1727
50869SOL    HW157545  10.444   7.924   2.310 -0.5813  0.2076 -0.2090
50869SOL    HW257546  10.512   7.946   2.443 -1.0715 -0.5615  0.1755
50870SOL     OW57547   1.293   5.214   9.848  0.0759 -0.6405  0.4259
50870SOL    HW157548   1.247   5.297   9.855  0.8793  0.0685 -1.8960
50870SOL    HW257549   1.383   5.238   9.826  0.7386 -2.0900  1.3857
50871SOL     OW57550   6.236   9.011   2.317 -0.3199 -0.3073  0.3396
50871SOL    HW157551   6.234   9.017   2.413  0.0190  2.8550  0.2642
50871SOL    HW257552   6.314   9.062   2.293 -0.0765 -1.5375 -1.6282
50872SOL     OW57553  11.415   8.146   9.172 -0.4783 -0.2438 -0.8449
50872SOL    HW157554  11.439   8.204   9.099 -0.1351  1.8691  0.8694
50872SOL    HW257555  11.319   8.153   9.178 -0.3327  1.1217  0.1038
50873SOL     OW57556   5.790   2.035   8.672 -0.1336 -0.1609 -0.6443
50873SOL    HW157557   5.701   2.059   8.647 -0.3598 -0.6561 -0.3318
50873SOL    HW257558   5.790   1.939   8.671  1.1250 -0.2238 -3.1743
50874SOL     OW57559   2.863  10.306   5.426  0.0223  0.6097  0.4693
50874SOL    HW157560   2.789  10.248   5.407 -0.0575  0.7801  0.2538
50874SOL    HW257561   2.927  10.250   5.470  1.1078 -0.3543 -2.1117
50875SOL     OW57562   7.297   1.329   1.893 -0.2387  0.1363 -0.8299
50875SOL    HW157563   7.240   1.393   1.937  0.8972 -1.2397  3.0596
50875SOL    HW257564   7.237   1.259   1.866 -0.8152 -0.0337  0.7460
50876SOL     OW57565   1.771   6.017   6.974 -0.4886 -0.0905  0.1910
50876SOL    HW157566   1.853   5.977   6.999 -0.5086  0.2089  0.7534
50876SOL    HW257567   1.706   5.946   6.980 -0.5333  0.0188  1.2227
50877SOL     OW57568   7.698   1.636  11.178 -0.8744  0.5913 -0.3335
50877SOL    HW157569   7.625   1.684  11.217 -0.0761  1.7875 -0.2681
50877SOL    HW257570   7.776   1.678  11.213 -0.1343  0.6094 -1.9198
50878SOL     OW57571   3.482   9.803   6.841  0.1427 -0.5030 -0.5402
50878SOL    HW157572   3.518   9.782   6.755 -0.8853  0.4139 -1.2153
50878SOL    HW257573   3.438   9.887   6.829 -0.1788 -0.4509  0.8415
50879SOL     OW57574  11.359   5.017   0.094  0.0409 -0.3966  0.2177
50879SOL    HW157575  11.396   5.075   0.160 -1.0816 -1.1525  1.5657
50879SOL    HW257576  11.339   4.936   0.141  0.6265 -1.5379 -1.3942
50880SOL     OW57577   9.632   9.053   8.158 -0.4983 -0.3046 -0.0372
50880SOL    HW157578   9.583   9.055   8.075 -0.4189  0.8347 -0.0713
50880SOL    HW257579   9.617   8.965   8.193 -1.8569 -0.2622 -0.4738
50881SOL     OW57580   9.546   7.087   7.990  0.1017 -0.3569 -0.0490
50881SOL    HW157581   9.549   7.067   7.896  0.4775 -1.7805  0.2457
50881SOL    HW257582   9.461   7.053   8.018  0.3064 -0.6198  0.2619
50882SOL     OW57583   3.607   3.971   3.392 -0.2661  0.0466  0.6437
50882SOL    HW157584   3.702   3.973   3.380 -0.0497 -0.2483  2.0546
50882SOL    HW257585   3.585   3.878   3.390 -0.3682  0.0497  1.2490
50883SOL     OW57586   3.772  10.137  11.332 -0.0107 -0.2226 -0.2131
50883SOL    HW157587   3.718  10.205  11.291 -0.0919 -1.1447 -1.7301
50883SOL    HW257588   3.734  10.055  11.301  0.2729 -0.9753  1.3393
50884SOL     OW57589   6.407   5.585   6.320  0.1966 -0.5611  0.4719
50884SOL    HW157590   6.444   5.671   6.303  0.1373 -0.9890 -2.1195
50884SOL    HW257591   6.321   5.586   6.278 -0.6268 -1.2916  2.0277
50885SOL     OW57592   2.911   8.710   7.607  0.1842  0.2107  0.5734
50885SOL    HW157593   2.826   8.665   7.605 -1.5079  3.0940  1.9366
50885SOL    HW257594   2.944   8.696   7.695  0.4143  0.3283  0.5067
50886SOL     OW57595   3.986   5.538   5.861 -0.4549  0.2432 -0.1265
50886SOL    HW157596   4.051   5.469   5.850 -0.2627  0.4710 -0.4550
50886SOL    HW257597   3.905   5.492   5.881 -0.2357 -0.0536  0.0848
50887SOL     OW57598   4.722   4.962   4.831  0.1588  0.3659  0.0855
50887SOL    HW157599   4.684   4.876   4.850  1.0462  0.3450  2.0038
50887SOL    HW257600   4.811   4.956   4.865  0.4488  1.8326 -0.3745
50888SOL     OW57601   4.408   9.037   8.231  0.4232 -0.3052  0.8035
50888SOL    HW157602   4.452   9.121   8.219 -1.2859  0.6672  1.0910
50888SOL    HW257603   4.320   9.059   8.260 -0.7166 -2.1182 -0.9841
50889SOL     OW57604   8.959   7.892   8.417  0.4544  1.1117  0.0900
50889SOL    HW157605   9.019   7.827   8.381 -2.2323 -1.2491 -0.5041
50889SOL    HW257606   8.936   7.859   8.503 -2.6004 -0.1274 -1.0308
50890SOL     OW57607   5.805   2.237   4.005  0.1094  0.5357 -0.5954
50890SOL    HW157608   5.813   2.331   3.993  0.1109  0.3623 -2.1682
50890SOL    HW257609   5.834   2.199   3.922 -2.2836 -0.7329 -0.9534
50891SOL     OW57610   5.148   6.271   7.106  0.4357 -0.2676  0.9423
50891SOL    HW157611   5.151   6.233   7.018  2.4301 -1.1531  1.3227
50891SOL    HW257612   5.085   6.343   7.099 -0.3395 -1.0535 -0.8852
50892SOL     OW57613   7.960   4.122   4.709  0.1554 -0.1632  0.0244
50892SOL    HW157614   7.869   4.098   4.695 -0.1708  0.3921  1.0824
50892SOL    HW257615   7.977   4.193   4.647  0.0340 -0.6299 -0.5450
50893SOL     OW57616  10.866  10.638   9.763 -0.1004 -0.1848 -1.2419
50893SOL    HW157617  10.813  10.664   9.839  0.6095 -1.1244 -0.3953
50893SOL    HW257618  10.802  10.609   9.698 -0.6892  0.0537 -0.7803
50894SOL     OW57619   0.147   5.554   9.907  0.3726 -0.3008  0.0345
50894SOL    HW157620   0.077   5.619   9.910  0.1768 -0.5307  0.5813
50894SOL    HW257621   0.169   5.539   9.999  0.7330 -0.6650 -0.1108
50895SOL     OW57622   6.840   0.706   0.425 -0.0983  0.4206 -0.1681
50895SOL    HW157623   6.772   0.740   0.367  0.4756 -0.2298 -1.2555
50895SOL    HW257624   6.901   0.779   0.436 -0.1395  0.5074 -0.5023
50896SOL     OW57625   4.857   4.214   1.551  0.1754  0.0168 -0.1954
50896SOL    HW157626   4.840   4.253   1.466  1.2475 -2.3079 -1.5782
50896SOL    HW257627   4.771   4.208   1.593 -0.8148 -1.2720 -2.2699
50897SOL     OW57628   5.870  11.495   6.541 -0.1005 -0.0388 -0.1816
50897SOL    HW157629   5.958  11.487   6.577 -0.3990 -0.2658  0.5311
50897SOL    HW257630   5.820  11.541   6.609 -0.2002  1.3646 -1.1700
50898SOL     OW57631   0.342   3.907   1.929  0.0178  0.5318  0.5430
50898SOL    HW157632   0.262   3.856   1.936 -1.2949  2.3981 -0.0797
50898SOL    HW257633   0.372   3.893   1.839  0.4426 -0.1718  0.7785
50899SOL     OW57634   8.436   4.802   9.373  0.2305 -0.0287 -0.0332
50899SOL    HW157635   8.364   4.756   9.330  0.8884 -0.6721 -0.4546
50899SOL    HW257636   8.393   4.875   9.418 -0.4142  1.0213 -2.2406
50900SOL     OW57637   6.887   9.568   7.177 -0.4761  0.1495  0.6925
50900SOL    HW157638   6.871   9.523   7.260 -0.0248  1.3379  1.4384
50900SOL    HW257639   6.837   9.518   7.113  0.5053 -1.8092  1.3657
50901SOL     OW57640   8.896   5.349  11.236  0.1130 -0.1772  0.3096
50901SOL    HW157641   8.849   5.397  11.304 -0.5796  2.0323 -1.5627
50901SOL    HW257642   8.988   5.358  11.258 -0.1149  0.3167  1.0836
50902SOL     OW57643   6.330   7.980   6.443  0.3941  0.2712  0.2070
50902SOL    HW157644   6.398   8.007   6.381  0.8699  1.6159  1.2731
50902SOL    HW257645   6.251   8.026   6.413  0.2897 -0.1625 -0.1927
50903SOL     OW57646   0.435   2.469   0.018 -0.2999 -0.0924  0.2237
50903SOL    HW157647   0.460   2.527  -0.054  0.7555 -0.5602  0.2003
50903SOL    HW257648   0.475   2.509   0.095  0.5823 -0.8659  0.1824
50904SOL     OW57649   3.259   7.373   3.580 -0.3172  0.2891  1.3618
50904SOL    HW157650   3.165   7.358   3.579 -0.3598  0.4734  0.0396
50904SOL    HW257651   3.297   7.286   3.593 -0.6577 -0.0079  0.4563
50905SOL     OW57652   3.602   8.423   7.600  0.2596 -0.0921 -0.1410
50905SOL    HW157653   3.554   8.448   7.679 -0.2297 -0.1110 -0.4270
50905SOL    HW257654   3.693   8.449   7.618  0.3695 -1.1128  0.8704
50906SOL     OW57655   9.499   1.695   2.361 -0.2956 -0.2391  0.0640
50906SOL    HW157656   9.485   1.661   2.272  0.4581 -0.5874  0.0715
50906SOL    HW257657   9.536   1.782   2.348 -0.7563 -0.0438  0.0423
50907SOL     OW57658   9.014   3.460   3.586 -0.1265 -0.5012  0.3896
50907SOL    HW157659   8.931   3.507   3.594 -0.5097 -1.0591 -0.2409
50907SOL    HW257660   9.079   3.520   3.623 -0.4706  0.9326 -1.2349
50908SOL     OW57661   6.909   7.564   6.437 -0.7225  0.5037 -0.2751
50908SOL    HW157662   6.999   7.577   6.469 -0.0096  2.4144 -2.7951
50908SOL    HW257663   6.854   7.581   6.514  0.9982 -0.1695  1.1948
50909SOL     OW57664   6.332   3.657   1.494  0.1784 -0.2679  0.1528
50909SOL    HW157665   6.332   3.672   1.589 -0.4306 -0.5604  0.2032
50909SOL    HW257666   6.263   3.592   1.480 -2.6583  2.6804 -0.9159
50910SOL     OW57667   2.358   4.753   0.819 -0.0742 -0.1256 -0.3750
50910SOL    HW157668   2.270   4.717   0.806 -0.2295  0.4308 -0.9283
50910SOL    HW257669   2.405   4.731   0.738 -0.0261  0.4763 -0.5193
50911SOL     OW57670   3.126   6.558   3.570 -0.1173  0.2851 -0.0178
50911SOL    HW157671   3.061   6.616   3.610 -0.7712 -0.2176 -0.3534
50911SOL    HW257672   3.209   6.586   3.609 -0.3355  1.8432 -0.5890
50912SOL     OW57673  10.880   5.941   2.252 -0.3349 -0.2050  0.6034
50912SOL    HW157674  10.824   5.865   2.268 -0.2465 -0.0195  1.8511
50912SOL    HW257675  10.954   5.930   2.311  1.3536 -0.7872 -1.4720
50913SOL     OW57676   8.796   4.796   1.281  0.6713  0.1227 -0.1836
50913SOL    HW157677   8.842   4.773   1.362  0.9795  1.3933  0.0175
50913SOL    HW257678   8.847   4.752   1.213 -0.4425 -2.2050  0.3835
50914SOL     OW57679   6.348   3.938   5.290 -0.4535 -0.3036 -0.0310
50914SOL    HW157680   6.379   3.867   5.345 -0.3155 -1.2338 -1.2629
50914SOL    HW257681   6.388   4.017   5.328 -0.8671 -0.8133  1.5423
50915SOL     OW57682   0.520   9.344   4.855  0.2024  0.5197 -0.5340
50915SOL    HW157683   0.605   9.342   4.898  0.2401 -1.3012 -0.6179
50915SOL    HW257684   0.457   9.359   4.925  0.4427 -0.0958 -0.1858
50916SOL     OW57685  10.081  11.007   3.182  0.8773  0.6085  0.0628
50916SOL    HW157686  10.161  10.973   3.222 -0.6381 -2.4823  0.8093
50916SOL    HW257687  10.079  10.968   3.095  0.3352  0.9086 -0.0621
50917SOL     OW57688   9.204   1.409   0.353  0.6317 -0.3240  0.4903
50917SOL    HW157689   9.188   1.491   0.306 -0.1546 -0.0900  1.1463
50917SOL    HW257690   9.132   1.352   0.327  1.0879 -0.7572  0.1624
50918SOL     OW57691   5.274   0.028   5.995 -0.4005 -0.5214 -0.3394
50918SOL    HW157692   5.300  -0.040   5.932 -0.5872 -0.1944 -0.7771
50918SOL    HW257693   5.343   0.026   6.062  0.3610 -0.1739 -1.0927
50919SOL     OW57694   3.027   2.025   6.317  0.1577 -0.1968  0.3026
50919SOL    HW157695   2.960   2.070   6.264  0.5279  1.6282  1.3083
50919SOL    HW257696   3.084   1.984   6.252  0.0857  1.2288 -0.7295
50920SOL     OW57697   2.910   4.270   8.622  0.1124  0.2207  0.0578
50920SOL    HW157698   2.916   4.349   8.676 -0.0830  1.0388 -1.0735
50920SOL    HW257699   2.848   4.214   8.668  1.8145 -0.2297  1.9905
50921SOL     OW57700   5.661   8.069  10.532  0.1196 -0.4910 -1.0359
50921SOL    HW157701   5.715   8.053  10.454  0.4691 -0.4366 -0.8051
50921SOL    HW257702   5.669   8.163  10.548  1.3772 -0.7537  0.0320
50922SOL     OW57703   3.827   7.059  10.444  0.1291  0.1242  0.0948
50922SOL    HW157704   3.878   7.108  10.379 -0.2971  0.2064 -0.1779
50922SOL    HW257705   3.890   7.040  10.514  0.3187  1.0354  0.1910
50923SOL     OW57706   6.131   8.982   8.498 -0.0525  0.1980 -0.2561
50923SOL    HW157707   6.200   8.917   8.512  1.4845  1.6504 -0.7134
50923SOL    HW257708   6.075   8.976   8.575  0.2066 -1.4654 -0.1733
50924SOL     OW57709   4.478   5.212   8.425  0.2429  0.0812 -0.2474
50924SOL    HW157710   4.533   5.273   8.474  0.7310 -0.4967 -0.0541
50924SOL    HW257711   4.444   5.264   8.351  2.4108  0.0691 -1.3466
50925SOL     OW57712   2.284   7.537  11.007 -0.1572  0.4919 -0.2173
50925SOL    HW157713   2.253   7.475  10.941  0.4167  1.1613 -1.1263
50925SOL    HW257714   2.218   7.607  11.007  0.2722  0.9002 -0.6792
50926SOL     OW57715   1.160   0.647  11.666 -0.2176  0.2518  0.0203
50926SOL    HW157716   1.188   0.669  11.577  1.3422 -0.1335  0.3854
50926SOL    HW257717   1.179   0.553  11.674 -1.9094 -0.1150  0.2307
50927SOL     OW57718   9.279  10.608   5.397  0.2072  0.5745 -0.1098
50927SOL    HW157719   9.201  10.598   5.343 -0.2251 -0.5041  0.6756
50927SOL    HW257720   9.301  10.701   5.391 -1.0674  0.8712 -0.4291
50928SOL     OW57721   6.915  10.913   7.530 -0.7702  0.5630 -0.3427
50928SOL    HW157722   6.973  10.878   7.462 -0.9650  0.9783 -0.7318
50928SOL    HW257723   6.916  10.847   7.599 -1.7104 -0.5811 -1.3726
50929SOL     OW57724   6.787   1.366   7.618 -0.2342 -0.2522  0.1359
50929SOL    HW157725   6.817   1.457   7.617  0.5654 -0.5083 -0.5125
50929SOL    HW257726   6.747   1.353   7.532 -1.9465 -0.0205  0.8552
50930SOL     OW57727   3.337   0.510   7.181  0.3414  0.4795  0.3237
50930SOL    HW157728   3.382   0.594   7.194  0.8166  0.1848  0.5886
50930SOL    HW257729   3.390   0.446   7.227 -1.0285  0.3056  1.7422
50931SOL     OW57730  10.720  10.665   7.666 -0.1275  0.4443 -0.4138
50931SOL    HW157731  10.731  10.630   7.755  0.8703  1.4786 -0.0942
50931SOL    HW257732  10.636  10.630   7.636  1.5746 -3.8439 -0.9388
50932SOL     OW57733   2.373   9.359   3.855 -0.1380 -0.2701 -0.0322
50932SOL    HW157734   2.367   9.355   3.760  0.4836 -1.4785 -0.0492
50932SOL    HW257735   2.306   9.298   3.886  0.4545 -0.8027  0.2442
50933SOL     OW57736   2.573   0.625   2.247  0.2748  0.2381  0.1219
50933SOL    HW157737   2.574   0.666   2.333  2.1571  1.6593 -0.5155
50933SOL    HW257738   2.508   0.674   2.197  2.2711  2.3932 -0.5324
50934SOL     OW57739   9.956   8.823   5.206 -0.1659 -0.2366  0.1152
50934SOL    HW157740   9.925   8.759   5.270  0.7793  0.8200  1.6952
50934SOL    HW257741   9.882   8.882   5.192 -0.6481 -0.9548 -0.4400
50935SOL     OW57742   3.913   5.921   8.656  0.6709 -0.4186  0.4107
50935SOL    HW157743   3.882   5.834   8.682 -1.5525  0.8241  2.3450
50935SOL    HW257744   3.848   5.951   8.592  0.3566  0.4910  1.1303
50936SOL     OW57745  11.199  11.072   9.501 -0.0437  0.0141  0.4662
50936SOL    HW157746  11.141  11.138   9.462  0.3540 -0.3857 -0.8749
50936SOL    HW257747  11.164  10.988   9.472  2.2739 -0.2066 -2.1571
50937SOL     OW57748   2.131   1.194   8.296 -0.4024 -0.1293  0.0727
50937SOL    HW157749   2.188   1.176   8.221  0.1352  0.8586  0.2338
50937SOL    HW257750   2.191   1.206   8.369 -0.8953 -0.4186  0.5280
50938SOL     OW57751   1.512   3.585   8.803 -0.1872  0.3332 -0.1519
50938SOL    HW157752   1.596   3.620   8.835 -0.6677 -0.4901  2.1943
50938SOL    HW257753   1.510   3.495   8.835 -1.6278  0.0750 -0.8879
50939SOL     OW57754   9.117   3.466   3.155  0.1280  0.5552  0.0395
50939SOL    HW157755   9.102   3.541   3.212 -0.6475  0.3711  0.0910
50939SOL    HW257756   9.086   3.391   3.205 -0.1915  0.3445 -0.4677
50940SOL     OW57757   0.952   8.175   3.945  0.1739 -0.2936 -0.4030
50940SOL    HW157758   0.863   8.145   3.963  0.4925 -1.6625 -0.9335
50940SOL    HW257759   0.988   8.108   3.886  0.9311  1.2255 -1.7438
50941SOL     OW57760   1.562  10.004   1.123  0.1900 -0.1451 -0.1198
50941SOL    HW157761   1.596   9.931   1.073 -0.9525 -0.4560 -0.4520
50941SOL    HW257762   1.619  10.008   1.201  2.0584  0.4289 -1.4458
50942SOL     OW57763   4.975   4.522   2.256 -0.2880  0.1446 -0.0222
50942SOL    HW157764   4.992   4.558   2.169  0.7110 -0.4978 -0.1114
50942SOL    HW257765   5.038   4.566   2.313 -0.2620 -0.1676  0.1914
50943SOL     OW57766   4.817   0.024   3.651 -0.5748  0.2080  0.5414
50943SOL    HW157767   4.817  -0.071   3.637  0.8428  0.2331  0.2097
50943SOL    HW257768   4.834   0.034   3.744  0.5550  0.1244  0.3616
50944SOL     OW57769   5.489   7.216   3.383 -0.0780  0.3438  0.4067
50944SOL    HW157770   5.488   7.310   3.399 -2.4425  0.5708 -0.6592
50944SOL    HW257771   5.491   7.208   3.287 -1.5629 -0.6027  0.4150
50945SOL     OW57772   5.511   1.678   0.543 -0.2534 -0.0659  0.1994
50945SOL    HW157773   5.419   1.678   0.568 -0.2561  0.9809  0.2567
50945SOL    HW257774   5.559   1.683   0.625 -0.2327  2.0862  0.1154
50946SOL     OW57775  11.312  10.544   5.953 -0.2687  0.0192  0.2380
50946SOL    HW157776  11.288  10.467   6.004 -0.4552  1.0796  1.8021
50946SOL    HW257777  11.245  10.550   5.885  1.1618 -2.6467 -1.6081
50947SOL     OW57778   9.795   4.958   9.953 -0.0863  0.0279 -0.0343
50947SOL    HW157779   9.737   5.034   9.956  0.1789  0.3873 -2.2272
50947SOL    HW257780   9.758   4.902   9.884  2.4145  0.5386 -1.9113
50948SOL     OW57781   7.550  10.345   8.508 -0.2923  0.1586  0.1373
50948SOL    HW157782   7.602  10.420   8.479 -1.2466  0.7816  0.0347
50948SOL    HW257783   7.505  10.314   8.429  0.4662 -0.8433  0.0688
50949SOL     OW57784   1.814   7.599   1.283  0.4927  0.0381  0.5305
50949SOL    HW157785   1.726   7.576   1.311  0.0737  0.4436 -0.3738
50949SOL    HW257786   1.823   7.560   1.196  1.0728  0.2970  0.4634
50950SOL     OW57787   3.383  11.327   3.795  0.2441 -0.0247  0.1064
50950SOL    HW157788   3.415  11.240   3.819  1.6687  0.3072 -0.4721
50950SOL    HW257789   3.454  11.386   3.818 -0.8410  1.0589  0.8113
50951SOL     OW57790   8.524   0.654   5.623  0.6562  0.1123  0.1360
50951SOL    HW157791   8.447   0.599   5.611 -0.2410  0.9626  1.6196
50951SOL    HW257792   8.559   0.666   5.535 -1.5164  0.5196 -0.7386
50952SOL     OW57793   0.220  11.596   6.389  0.5593 -0.5909 -0.1177
50952SOL    HW157794   0.205  11.675   6.337  0.5987 -1.1663 -1.0424
50952SOL    HW257795   0.135  11.552   6.391  0.1554  0.1916  1.6838
50953SOL     OW57796   8.879   1.042   6.284 -0.4161  0.0008  0.2549
50953SOL    HW157797   8.904   1.134   6.276  0.0679 -0.0836  0.7527
50953SOL    HW257798   8.789   1.045   6.316 -0.6909  0.2988 -0.5126
50954SOL     OW57799   0.231   5.640   8.302 -0.2383  0.1050  0.5234
50954SOL    HW157800   0.260   5.729   8.282  2.1164 -0.4559  1.0804
50954SOL    HW257801   0.137   5.642   8.290 -0.2573  2.6798  0.5525
50955SOL     OW57802   2.076   1.862   7.884  1.0624  0.4697 -0.5883
50955SOL    HW157803   2.034   1.794   7.832  0.9619 -0.5080  0.7192
50955SOL    HW257804   2.153   1.888   7.833  2.0365 -1.8110 -0.4252
50956SOL     OW57805   6.617   1.014   3.361 -0.4506  0.2957  0.0395
50956SOL    HW157806   6.563   0.937   3.374  1.1812 -0.9249 -0.1348
50956SOL    HW257807   6.691   1.002   3.421  1.7580 -0.1812 -2.5990
50957SOL     OW57808   4.359   4.221   6.873  0.1731 -0.1467 -0.0192
50957SOL    HW157809   4.299   4.293   6.854  1.0827  0.4991 -0.5866
50957SOL    HW257810   4.384   4.235   6.965 -0.8407 -0.6651  0.3472
50958SOL     OW57811   8.444   6.641   1.394 -0.2849 -0.3375 -0.0369
50958SOL    HW157812   8.485   6.709   1.448  0.6107 -0.8681 -0.0372
50958SOL    HW257813   8.517   6.589   1.360 -0.8946 -0.6664 -0.8971
50959SOL     OW57814  10.426   6.270   5.851 -0.5071 -0.1407 -0.3115
50959SOL    HW157815  10.353   6.288   5.911 -0.3246 -1.0154  0.1724
50959SOL    HW257816  10.406   6.184   5.814  0.2205 -0.3295 -0.2739
50960SOL     OW57817   1.147   1.582   5.607 -0.4368 -0.1095 -0.6131
50960SOL    HW157818   1.231   1.541   5.628 -0.7850 -0.2753  0.5223
50960SOL    HW257819   1.103   1.590   5.692 -2.1573 -1.3108 -1.3466
50961SOL     OW57820  11.315   3.197  10.460 -0.0094  1.0841  0.3070
50961SOL    HW157821  11.375   3.242  10.519  0.6830  0.7360 -0.1238
50961SOL    HW257822  11.361   3.117  10.435 -0.6459  0.8168 -0.0411
50962SOL     OW57823   7.810   9.384   5.396  0.2281 -0.3418 -0.9096
50962SOL    HW157824   7.798   9.467   5.349 -1.0324 -0.6137 -1.1109
50962SOL    HW257825   7.896   9.392   5.437 -0.7878  2.0285  0.9992
50963SOL     OW57826   8.479   0.913   3.322  0.5773  0.6245  0.1565
50963SOL    HW157827   8.510   0.831   3.361 -0.3244 -0.2829 -0.9824
50963SOL    HW257828   8.415   0.886   3.257  0.2375  2.2522 -0.2190
50964SOL     OW57829   8.587   8.543   7.014 -0.9706 -0.3423  0.0380
50964SOL    HW157830   8.659   8.501   7.060  0.7130  0.2569 -1.9088
50964SOL    HW257831   8.562   8.481   6.946 -1.0020  0.2279 -0.4814
50965SOL     OW57832   0.982   9.314   5.442 -0.0711 -0.1237 -0.0152
50965SOL    HW157833   1.043   9.255   5.486  0.0290 -0.3231 -0.4145
50965SOL    HW257834   1.032   9.395   5.431  1.1877 -1.1639 -2.9118
50966SOL     OW57835   4.909  11.363   0.951 -0.1813 -0.3166  0.0643
50966SOL    HW157836   4.840  11.367   0.885 -1.4908  0.8258  1.4228
50966SOL    HW257837   4.879  11.297   1.014  0.4005 -0.4372  0.2289
50967SOL     OW57838   7.235   0.329   8.837 -0.0645  0.5010  0.1020
50967SOL    HW157839   7.166   0.393   8.858 -0.2299 -0.4384  2.9082
50967SOL    HW257840   7.192   0.264   8.782  0.0496  2.5512 -2.6265
50968SOL     OW57841   0.162   5.695  10.782  0.1132  0.2464 -0.2557
50968SOL    HW157842   0.250   5.682  10.818  0.8046  1.5238 -1.3836
50968SOL    HW257843   0.148   5.617  10.728  0.5622  0.0348 -0.0803
50969SOL     OW57844   9.083  11.003   1.025 -0.1992 -0.4357  0.4018
50969SOL    HW157845   9.172  10.989   1.056 -1.0241 -2.0985  2.1996
50969SOL    HW257846   9.066  11.096   1.044  0.9462 -0.2305  0.5174
50970SOL     OW57847  11.376   2.034   3.326 -0.3518  0.5047 -0.2921
50970SOL    HW157848  11.306   2.005   3.384  0.5259  0.2914  0.6980
50970SOL    HW257849  11.333   2.051   3.242 -1.3051 -1.2090 -0.1855
50971SOL     OW57850   6.998   2.440   8.236 -0.3017 -0.0920 -0.2955
50971SOL    HW157851   7.056   2.490   8.293  0.8984  0.4951 -1.9684
50971SOL    HW257852   6.910   2.458   8.270  0.2626  1.3616  0.4839
50972SOL     OW57853   0.645   9.091   5.474  0.6602  0.9008 -0.1634
50972SOL    HW157854   0.564   9.129   5.508  0.8600  1.6198 -0.4747
50972SOL    HW257855   0.665   9.142   5.396  1.0780  0.3148 -0.4470
50973SOL     OW57856   4.732   2.340   0.405  0.6366 -0.2228 -0.7703
50973SOL    HW157857   4.821   2.305   0.409  0.3797 -0.8702 -0.6407
50973SOL    HW257858   4.677   2.264   0.385  0.1491  0.2289 -1.1933
50974SOL     OW57859   7.088   4.242   7.417 -0.0162 -0.0448  0.0677
50974SOL    HW157860   6.999   4.209   7.430 -0.9593  2.0946 -0.5554
50974SOL    HW257861   7.109   4.222   7.326  0.2351 -0.7378  0.2745
50975SOL     OW57862   8.593   0.667   5.363  0.0278  0.6444 -0.0977
50975SOL    HW157863   8.581   0.576   5.335 -1.6511  0.9731 -0.6077
50975SOL    HW257864   8.591   0.717   5.282  0.1576  1.2060  0.2436
50976SOL     OW57865   6.007   6.072  11.123  0.0862  0.3075  0.1242
50976SOL    HW157866   5.957   6.109  11.050  0.5318 -0.6675 -0.7021
50976SOL    HW257867   5.994   5.978  11.115 -1.9907  0.2489  2.8737
50977SOL     OW57868   7.082   6.654  11.530 -1.0298  0.6545  0.2205
50977SOL    HW157869   7.046   6.606  11.456 -0.8825  0.9917 -0.0775
50977SOL    HW257870   7.032   6.624  11.606 -1.0090  0.1154  0.0253
50978SOL     OW57871   3.822  11.540   5.922  0.1859 -0.3344 -0.0793
50978SOL    HW157872   3.804  11.606   5.855 -0.1426 -0.4699 -0.1285
50978SOL    HW257873   3.902  11.497   5.892  0.3223 -0.0549 -0.1212
50979SOL     OW57874   6.739  11.578   6.579  0.4056 -0.1799 -0.3628
50979SOL    HW157875   6.814  11.636   6.573  1.6392 -1.7833 -1.4030
50979SOL    HW257876   6.692  11.589   6.496 -0.9754  1.3476  0.5693
50980SOL     OW57877   3.020   3.334   2.000 -0.6491 -0.0911 -0.3277
50980SOL    HW157878   2.946   3.320   2.060  1.1599 -2.2784  1.5786
50980SOL    HW257879   3.026   3.253   1.950 -0.1165  0.4573 -1.1729
50981SOL     OW57880   3.187   4.408   7.168 -0.3867 -0.2412 -0.5889
50981SOL    HW157881   3.192   4.381   7.260  0.6436  0.9731 -0.2686
50981SOL    HW257882   3.237   4.342   7.121 -1.2011 -1.0604 -0.3461
50982SOL     OW57883   5.619   0.933  11.076 -0.2587  0.4203  0.4684
50982SOL    HW157884   5.574   0.890  11.148 -2.2356  1.0351 -0.3372
50982SOL    HW257885   5.684   0.869  11.046 -0.4211 -0.4056  1.8163
50983SOL     OW57886   3.224   7.984   1.262 -0.4711  0.3663  0.0922
50983SOL    HW157887   3.261   8.067   1.232  0.0602 -0.0142 -0.3304
50983SOL    HW257888   3.161   7.959   1.194  0.4202 -0.2820 -0.5276
50984SOL     OW57889  10.167   6.540   8.448 -0.0679 -0.2110 -0.0920
50984SOL    HW157890  10.258   6.514   8.463  0.3179 -0.9684 -3.1037
50984SOL    HW257891  10.117   6.458   8.452 -0.3310 -0.0621 -0.3096
50985SOL     OW57892   2.356  11.497   0.985  0.2693 -0.0379  0.7908
50985SOL    HW157893   2.377  11.584   0.952  1.4459 -0.1264  1.2662
50985SOL    HW257894   2.368  11.439   0.910  0.6090  0.0689  0.7595
50986SOL     OW57895   3.005   0.536   2.376  0.0563 -0.0195 -0.1799
50986SOL    HW157896   3.034   0.534   2.285  1.4512  1.9151  0.1706
50986SOL    HW257897   2.986   0.445   2.396  2.6509 -0.9753 -1.5120
50987SOL     OW57898   3.770  11.074   5.873 -0.1586  0.2066  0.2268
50987SOL    HW157899   3.718  11.083   5.953  0.2982  0.2043  0.5277
50987SOL    HW257900   3.855  11.112   5.896  0.0142  0.0912 -0.2213
50988SOL     OW57901   3.929   6.917   0.834  0.2282  0.5064  0.1281
50988SOL    HW157902   3.932   6.941   0.742  0.0581 -0.1852 -0.0607
50988SOL    HW257903   3.836   6.921   0.858  0.2029  0.0606  0.1023
50989SOL     OW57904  10.963   9.079   9.684  0.2466  0.6554 -0.7041
50989SOL    HW157905  10.888   9.104   9.738  0.7647 -2.0475  1.5061
50989SOL    HW257906  11.029   9.147   9.701 -0.7167  1.5920 -0.5751
50990SOL     OW57907   3.569   6.819   5.336 -0.3341 -0.0499 -0.4353
50990SOL    HW157908   3.571   6.745   5.276  0.1128  0.0528 -0.5525
50990SOL    HW257909   3.476   6.835   5.352 -0.5336  0.7834 -2.1710
50991SOL     OW57910   3.085   0.658   9.229  0.7048  0.4951  0.4144
50991SOL    HW157911   3.039   0.585   9.187  1.5261  0.4168 -0.3780
50991SOL    HW257912   3.050   0.660   9.318 -2.0273  1.4834 -0.5774
50992SOL     OW57913   5.404   7.948   5.171  0.5788  0.5947 -0.5956
50992SOL    HW157914   5.378   8.040   5.179  1.1810  0.6412  1.3236
50992SOL    HW257915   5.480   7.940   5.229 -0.9627 -1.6816  1.3045
50993SOL     OW57916   1.445   4.881   3.187  0.3553 -0.0003 -0.2793
50993SOL    HW157917   1.494   4.851   3.110  0.2127 -0.4564 -0.1974
50993SOL    HW257918   1.462   4.813   3.253 -2.5949 -1.6752 -1.0787
50994SOL     OW57919   1.599   4.841   5.135  0.3257 -0.3657 -0.0397
50994SOL    HW157920   1.665   4.824   5.069  1.3803 -0.0718  0.9127
50994SOL    HW257921   1.616   4.930   5.164  0.5776 -0.8567  1.3885
50995SOL     OW57922   2.199   6.198   1.321 -0.1439  0.2052 -0.1495
50995SOL    HW157923   2.236   6.285   1.305 -0.3133  0.3740  0.3515
50995SOL    HW257924   2.132   6.213   1.388  0.1940 -0.3886  0.3318
50996SOL     OW57925   9.860   1.988   6.701  0.2635 -0.4337  0.4812
50996SOL    HW157926   9.896   1.908   6.663 -0.0398 -0.3399 -0.0100
50996SOL    HW257927   9.789   1.958   6.758  1.5367 -0.6770  2.0043
50997SOL     OW57928   9.343   3.652  10.910 -0.1278 -0.2164  0.4676
50997SOL    HW157929   9.355   3.742  10.941 -0.0791 -0.5247  1.3928
50997SOL    HW257930   9.427   3.610  10.925 -0.6944 -0.9282  1.8938
50998SOL     OW57931   4.156   0.854   4.701 -0.0264  0.2777  0.2472
50998SOL    HW157932   4.197   0.939   4.683  0.2970 -0.4319 -2.7782
50998SOL    HW257933   4.228   0.799   4.733  0.1815  0.5720  0.2846
50999SOL     OW57934   8.114   5.379   3.739 -0.0240  0.2461  0.1815
50999SOL    HW157935   8.076   5.367   3.826 -1.2331  1.1663 -0.1843
50999SOL    HW257936   8.120   5.291   3.702  1.7921 -0.3119  1.6865
51000SOL     OW57937   9.442   2.566   2.726  0.2469 -0.0345  0.2971
51000SOL    HW157938   9.445   2.584   2.820  0.6448  0.6950  0.1589
51000SOL    HW257939   9.407   2.478   2.719  1.6884 -0.7221  1.2031
51001SOL     OW57940   4.093   1.328  11.309 -0.0386  0.3298  0.0641
51001SOL    HW157941   4.155   1.365  11.246 -1.5767 -0.8292 -2.3014
51001SOL    HW257942   4.119   1.236  11.316 -1.2092 -0.0716 -0.6382
51002SOL     OW57943   9.633  10.041   0.344  0.3764  0.2465 -0.1992
51002SOL    HW157944   9.547  10.008   0.372 -0.6390  2.2057 -0.8263
51002SOL    HW257945   9.613  10.101   0.272  2.1826  1.5182  0.3084
51003SOL     OW57946   8.067  10.801   2.074 -0.1880 -0.0339 -0.5188
51003SOL    HW157947   8.117  10.720   2.080  0.3586  0.3621  0.4570
51003SOL    HW257948   8.089  10.837   1.989  0.1685 -0.5184 -0.6348
51004SOL     OW57949   0.625   7.502   6.218  0.1951 -0.0599 -0.0791
51004SOL    HW157950   0.716   7.523   6.240  0.3204  1.6745 -1.9776
51004SOL    HW257951   0.631   7.433   6.153  0.0813 -0.7419  0.6206
51005SOL     OW57952   9.061   3.803   1.648 -0.2840  0.0201  0.2026
51005SOL    HW157953   8.975   3.789   1.607 -1.9179  1.7425  2.7322
51005SOL    HW257954   9.046   3.874   1.710  2.9941  0.2814  0.8528
51006SOL     OW57955   1.057   1.289   0.107 -0.1776  0.4324 -0.0253
51006SOL    HW157956   1.018   1.218   0.158  1.7073 -1.3779 -0.9311
51006SOL    HW257957   0.983   1.345   0.083 -1.3129  0.6046  3.4005
51007SOL     OW57958   9.362   3.090  10.925 -0.5963  0.1217 -0.2387
51007SOL    HW157959   9.304   3.018  10.950  1.9760 -2.6573 -1.6622
51007SOL    HW257960   9.372   3.141  11.005  0.7199 -3.5677  2.2340
51008SOL     OW57961   6.066   5.730   7.666  0.1694  0.4276  0.0640
51008SOL    HW157962   5.981   5.772   7.656  0.8100  1.4762 -1.3723
51008SOL    HW257963   6.110   5.779   7.735  1.6079  3.5181 -2.7823
51009SOL     OW57964   7.933  10.450   0.340 -0.7714 -0.4791  0.4334
51009SOL    HW157965   7.945  10.466   0.247 -2.6475 -1.2637  0.0031
51009SOL    HW257966   8.021  10.429   0.373 -0.0627 -0.0430 -1.1087
51010SOL     OW57967  11.521   3.172   4.534 -0.0029 -0.1783  0.0105
51010SOL    HW157968  11.529   3.145   4.442  1.1292  0.6447 -0.1519
51010SOL    HW257969  11.595   3.129   4.577  0.0719  0.2703  0.3307
51011SOL     OW57970   0.765   2.213   4.399  0.1103 -0.2150  0.2442
51011SOL    HW157971   0.839   2.249   4.448 -0.4993  0.9089  0.3689
51011SOL    HW257972   0.691   2.267   4.425 -0.4738 -0.4114 -0.9659
51012SOL     OW57973   5.486  10.450   0.901  0.5103  0.0139 -0.1561
51012SOL    HW157974   5.514  10.465   0.811 -0.7226  0.6455 -0.4417
51012SOL    HW257975   5.418  10.515   0.917 -0.8356 -1.4989  0.4977
51013SOL     OW57976  10.259   3.778   3.700 -0.1450 -0.4594 -0.2843
51013SOL    HW157977  10.344   3.740   3.678 -0.0137  0.0191 -0.5911
51013SOL    HW257978  10.274   3.823   3.783  0.0241  0.0521 -0.5918
51014SOL     OW57979   7.211   9.722   6.183  0.2098  0.4059 -0.6020
51014SOL    HW157980   7.178   9.793   6.127  1.3258  0.9295 -0.6290
51014SOL    HW257981   7.295   9.755   6.216 -0.0622 -0.2036  0.7823
51015SOL     OW57982   4.161  10.245  10.755  0.1244 -0.1145  1.0922
51015SOL    HW157983   4.145  10.183  10.826  0.2809 -1.7909 -0.2689
51015SOL    HW257984   4.075  10.279  10.732 -0.3279 -1.7917  0.1777
51016SOL     OW57985   8.538   2.472   5.269 -0.1904 -0.0079  0.5900
51016SOL    HW157986   8.605   2.403   5.268 -0.4843 -0.3269 -1.2345
51016SOL    HW257987   8.580   2.547   5.226 -1.2331 -0.5312 -1.4974
51017SOL     OW57988   5.379   6.749   4.081  0.0414  0.2996 -0.1172
51017SOL    HW157989   5.315   6.757   4.152  0.0464  0.2866 -0.1111
51017SOL    HW257990   5.340   6.800   4.009 -0.2017 -0.1053 -0.2737
51018SOL     OW57991   1.496   8.254   6.826 -0.0786  0.4581 -0.0348
51018SOL    HW157992   1.439   8.259   6.749  0.6484  0.2514 -0.5982
51018SOL    HW257993   1.580   8.223   6.792 -0.0077 -0.5528  0.9811
51019SOL     OW57994   6.968   2.247  10.076 -0.1678 -0.2845 -0.0580
51019SOL    HW157995   6.874   2.230  10.067 -0.8543  2.5189  0.8826
51019SOL    HW257996   6.999   2.261   9.987 -1.1806  1.1137 -0.2143
51020SOL     OW57997   6.410   4.457   2.954  0.3790  0.6058 -0.3436
51020SOL    HW157998   6.427   4.517   3.026  2.1108 -1.1452  0.8474
51020SOL    HW257999   6.497   4.436   2.920 -0.3265  0.4255 -2.1332
51021SOL     OW58000  11.543   3.296   6.018  0.5589 -0.5369 -0.0231
51021SOL    HW158001  11.478   3.323   6.083  1.6323  2.0470  0.1135
51021SOL    HW258002  11.508   3.328   5.934  1.4091  0.4996 -0.0046
51022SOL     OW58003   9.574  10.726   2.736  0.4182 -0.8794 -0.1708
51022SOL    HW158004   9.509  10.751   2.801  0.2770 -1.4323 -0.0898
51022SOL    HW258005   9.653  10.773   2.761  0.1901 -0.6028  0.0289
51023SOL     OW58006   4.591   3.308   1.987 -0.2716  0.4255  0.6165
51023SOL    HW158007   4.575   3.218   1.959  1.5875  0.8375 -2.1889
51023SOL    HW258008   4.530   3.360   1.936  0.6014  0.9478  0.0878
51024SOL     OW58009   7.049   7.915   5.008 -0.0112  0.2785 -0.3309
51024SOL    HW158010   7.094   7.915   5.092 -1.4092 -0.3164  0.4564
51024SOL    HW258011   7.030   8.007   4.990  1.6232  0.5679 -0.7800
51025SOL     OW58012   6.331  10.645   2.485 -0.2551 -0.4081 -0.1001
51025SOL    HW158013   6.375  10.693   2.555  0.6586 -1.6435  0.2244
51025SOL    HW258014   6.374  10.674   2.405 -0.0801 -0.2723  0.0414
51026SOL     OW58015   9.378   0.771   9.587 -0.2103  0.6649  0.4544
51026SOL    HW158016   9.390   0.684   9.549  1.7126  1.5003 -1.0548
51026SOL    HW258017   9.419   0.767   9.673  1.0820  0.4123 -0.1562
51027SOL     OW58018   7.664   5.223   2.188 -0.1685 -0.4069  0.3981
51027SOL    HW158019   7.631   5.275   2.115 -0.5147 -0.1040  0.7627
51027SOL    HW258020   7.749   5.261   2.209 -0.8282  0.6317  1.2688
51028SOL     OW58021   5.750   5.864   2.878 -0.0577  0.0366 -0.2183
51028SOL    HW158022   5.701   5.863   2.796 -1.3154 -2.6677  0.4563
51028SOL    HW258023   5.695   5.915   2.938  0.9412  2.1572 -1.0150
51029SOL     OW58024   0.482   4.712   4.454 -0.7885 -0.0838 -0.1571
51029SOL    HW158025   0.527   4.634   4.488 -1.3274 -0.7119 -0.8539
51029SOL    HW258026   0.538   4.743   4.383  0.1569  1.0230  1.0244
51030SOL     OW58027   1.335   8.440   4.501  0.2133 -0.4795  0.0872
51030SOL    HW158028   1.339   8.520   4.447  0.4497 -1.4943 -1.4497
51030SOL    HW258029   1.336   8.473   4.591 -0.5936  1.3069 -0.4862
51031SOL     OW58030  10.299   4.723   9.007  0.6711 -0.5760 -0.1165
51031SOL    HW158031  10.331   4.633   9.018  0.4065 -0.7506 -0.7086
51031SOL    HW258032  10.297   4.759   9.095  1.6046 -0.8691  0.0458
51032SOL     OW58033   8.236   9.539   3.439  0.5669  0.0845 -0.4124
51032SOL    HW158034   8.280   9.459   3.470 -0.0762  0.1971  0.8723
51032SOL    HW258035   8.299   9.609   3.458  0.7964 -0.0223 -0.7766
51033SOL     OW58036   3.039   0.468  10.642  0.4685  0.0155  0.7180
51033SOL    HW158037   2.953   0.444  10.678  0.9895 -1.1717  1.2001
51033SOL    HW258038   3.099   0.459  10.716  1.1783 -0.1087  0.1324
51034SOL     OW58039   3.249   6.133   7.105  0.2804  0.3270 -0.4483
51034SOL    HW158040   3.323   6.098   7.156  0.0298 -1.3768 -1.2104
51034SOL    HW258041   3.216   6.059   7.056 -0.5268  1.5758 -1.8766
51035SOL     OW58042   3.666   8.817   5.782  0.0116  0.1440 -0.1820
51035SOL    HW158043   3.592   8.764   5.751 -0.3048  0.6553 -0.3172
51035SOL    HW258044   3.722   8.828   5.705 -0.8125  1.4783 -0.6214
51036SOL     OW58045   6.532   6.171   9.956  0.3183 -0.6920  0.5368
51036SOL    HW158046   6.446   6.202   9.983  1.1863  0.7122  1.8667
51036SOL    HW258047   6.527   6.164   9.861 -1.2962 -0.8311  0.6093
51037SOL     OW58048   1.179   4.972  11.425  0.0490 -0.4670 -0.1060
51037SOL    HW158049   1.204   5.055  11.384  0.4137  1.3735  3.4701
51037SOL    HW258050   1.260   4.922  11.431  0.7165  0.7736  1.5252
51038SOL     OW58051   4.751   3.858   8.581 -0.1751  0.3204 -0.4898
51038SOL    HW158052   4.737   3.943   8.538  0.1471  0.3713 -0.4975
51038SOL    HW258053   4.663   3.826   8.600 -0.2863  1.4461  1.0739
51039SOL     OW58054   4.295  10.716   1.013 -0.3586 -0.0734 -0.4786
51039SOL    HW158055   4.281  10.654   1.085  0.2856  0.1768 -0.1286
51039SOL    HW258056   4.207  10.739   0.984 -0.6230 -0.3681  0.0691
51040SOL     OW58057   0.432   2.571  10.095  0.6109  0.1115 -0.6125
51040SOL    HW158058   0.463   2.613  10.015  1.1477 -0.3849 -0.6659
51040SOL    HW258059   0.489   2.495  10.107  0.8591  0.4528  0.5081
51041SOL     OW58060  11.090   5.098   4.818  0.4347 -0.1786 -0.0656
51041SOL    HW158061  11.066   5.020   4.769 -0.5868 -0.7616  1.2893
51041SOL    HW258062  11.083   5.170   4.755 -0.5546 -0.9328 -0.8349
51042SOL     OW58063   5.414   0.677   6.412  0.2816 -0.4989 -0.4124
51042SOL    HW158064   5.335   0.660   6.463 -0.2218 -0.9921 -1.3278
51042SOL    HW258065   5.391   0.650   6.323  0.3348  2.4162 -1.4262
51043SOL     OW58066   3.137  11.327   8.120 -0.0850 -0.6944  0.2515
51043SOL    HW158067   3.088  11.377   8.053  0.5608  0.1276  0.3734
51043SOL    HW258068   3.213  11.382   8.139  1.6357 -2.5497 -0.9228
51044SOL     OW58069  10.612  11.664   9.126 -0.3381 -0.3635  0.0056
51044SOL    HW158070  10.573  11.673   9.213  1.1981  1.2887  0.5686
51044SOL    HW258071  10.579  11.740   9.077  1.0203  0.2911  0.0627
51045SOL     OW58072   8.377   7.769   0.809  0.6353 -0.3596 -0.9693
51045SOL    HW158073   8.308   7.751   0.744  0.7764 -0.2966 -1.1352
51045SOL    HW258074   8.334   7.825   0.874  0.4070 -0.6683 -0.8469
51046SOL     OW58075   3.268  11.115  10.150 -0.7174 -0.0287  0.3556
51046SOL    HW158076   3.316  11.156  10.221 -0.2325  4.4036 -2.1491
51046SOL    HW258077   3.335  11.087  10.088 -1.1058  1.2530 -0.7182
51047SOL     OW58078   5.058   5.419   9.215  0.4177  0.4231 -0.4182
51047SOL    HW158079   4.989   5.381   9.269 -2.4597  2.1525 -2.5799
51047SOL    HW258080   5.113   5.467   9.276  0.6364 -2.1168  1.5553
51048SOL     OW58081   5.661   4.913   5.505  0.1929  0.2402  0.1649
51048SOL    HW158082   5.704   4.871   5.580 -0.1405  0.3335  0.4126
51048SOL    HW258083   5.690   5.005   5.510 -0.1275  0.3297  0.4027
51049SOL     OW58084   9.010   4.330   4.585  0.0793 -0.5400 -0.1673
51049SOL    HW158085   9.060   4.344   4.505  0.9581 -0.8783  0.3188
51049SOL    HW258086   9.064   4.273   4.639  1.2534  2.5721  2.2409
51050SOL     OW58087   1.292   3.563   7.140 -0.6417 -0.4220 -0.0556
51050SOL    HW158088   1.369   3.543   7.088 -1.5371 -1.6634 -0.9483
51050SOL    HW258089   1.271   3.654   7.118 -0.0954 -0.4396 -0.6706
51051SOL     OW58090   3.882   5.643   8.643  0.2741 -0.6446  0.3922
51051SOL    HW158091   3.952   5.581   8.664 -0.6322 -1.0139  2.6141
51051SOL    HW258092   3.844   5.610   8.562  2.5517 -0.4851 -0.8223
51052SOL     OW58093  10.684   4.448   6.210  0.9764  0.0881 -0.1705
51052SOL    HW158094  10.751   4.398   6.165 -1.0095 -0.3828 -2.8323
51052SOL    HW258095  10.644   4.385   6.270  1.3499 -0.2842 -0.3078
51053SOL     OW58096   9.299   0.584   0.389 -0.2572 -0.4382  0.3795
51053SOL    HW158097   9.260   0.646   0.451  1.1639  0.2136  0.6610
51053SOL    HW258098   9.328   0.511   0.443  2.6745  0.9428  0.8637
51054SOL     OW58099   7.818   5.671   3.243 -0.3096 -0.0042  0.0317
51054SOL    HW158100   7.801   5.762   3.267  0.4105 -0.2220  1.4257
51054SOL    HW258101   7.899   5.675   3.191 -0.3050  0.1533  0.0493
51055SOL     OW58102   6.722   6.875   8.246 -0.5508 -1.1362 -0.6487
51055SOL    HW158103   6.659   6.837   8.307  0.1397 -0.0766  0.7856
51055SOL    HW258104   6.668   6.912   8.176 -1.5867  0.1443  0.7785
51056SOL     OW58105  10.789   5.414  10.258 -0.6857 -0.8385  0.1191
51056SOL    HW158106  10.819   5.390  10.345 -0.7586 -0.7210  0.1764
51056SOL    HW258107  10.862   5.390  10.200 -0.1678  0.1146  0.3432
51057SOL     OW58108   6.076   3.820   2.461  0.6647  0.0451 -0.7201
51057SOL    HW158109   5.985   3.812   2.432  0.8058 -0.4009 -1.0660
51057SOL    HW258110   6.116   3.735   2.438  0.6117 -0.6127  1.4404
51058SOL     OW58111   6.569   8.904   4.482  0.5895  0.3689  0.1734
51058SOL    HW158112   6.608   8.817   4.487  0.6145  0.3570 -0.1838
51058SOL    HW258113   6.475   8.888   4.473  0.7012  0.3493 -1.0670
51059SOL     OW58114   9.931   7.130   1.147  0.1104  0.1798  0.0485
51059SOL    HW158115  10.017   7.170   1.132  0.1931 -0.7795 -2.4740
51059SOL    HW258116   9.872   7.177   1.089 -0.8918  0.1143  0.9784
51060SOL     OW58117   3.567   3.009   9.044  0.5573 -0.0109  0.0576
51060SOL    HW158118   3.519   2.976   8.967  2.0723 -1.0571 -0.4764
51060SOL    HW258119   3.657   2.980   9.030  1.1670  1.0869  1.5121
51061SOL     OW58120   9.271   9.023  10.141 -0.1816 -0.0397  0.0254
51061SOL    HW158121   9.323   8.969  10.082 -0.9733 -0.9453  0.1257
51061SOL    HW258122   9.248   8.964  10.214 -1.1560  0.3842  0.0857
51062SOL     OW58123   0.217   6.667   5.250 -0.0206  0.2775  0.5076
51062SOL    HW158124   0.277   6.600   5.281  1.3010  0.5517 -1.2951
51062SOL    HW258125   0.254   6.750   5.282 -2.0201  0.2256  3.3258
51063SOL     OW58126   1.828   8.348   9.656 -0.2812  0.1075  0.2455
51063SOL    HW158127   1.897   8.296   9.696  1.7488  1.0009 -1.8699
51063SOL    HW258128   1.786   8.289   9.593 -0.6958 -0.1039  0.7143
51064SOL     OW58129   2.000  10.810  11.635  0.0735 -0.0013  0.4672
51064SOL    HW158130   1.940  10.741  11.608  0.2227  0.2733 -0.6070
51064SOL    HW258131   2.078  10.764  11.666  0.9227 -0.3461 -1.9652
51065SOL     OW58132   7.849   6.231   3.802 -0.0091  0.1995 -0.0543
51065SOL    HW158133   7.933   6.241   3.756  0.0248 -0.5480 -0.1660
51065SOL    HW258134   7.865   6.162   3.865 -0.1231  1.0635  0.9508
51066SOL     OW58135   8.301   1.099  10.000  0.4755  0.9847  0.5457
51066SOL    HW158136   8.344   1.044  10.065 -0.3934  0.1631  0.4456
51066SOL    HW258137   8.216   1.058   9.986  0.8314  0.8037 -1.4946
51067SOL     OW58138  11.005   2.034   2.448  0.2954 -0.1967 -0.0372
51067SOL    HW158139  11.100   2.029   2.459  0.3948 -0.7903 -1.0337
51067SOL    HW258140  10.970   1.995   2.528  0.8438  1.3973  1.0266
51068SOL     OW58141   6.977  10.914  11.219 -0.5048 -0.3620 -0.4510
51068SOL    HW158142   6.932  10.903  11.302  2.4438  1.3883  1.5484
51068SOL    HW258143   6.944  10.996  11.183  0.0449  0.1913  0.2945
51069SOL     OW58144   2.785   3.272   2.166 -0.5600  0.1083  0.1007
51069SOL    HW158145   2.772   3.178   2.156  0.7489  0.0717 -1.5245
51069SOL    HW258146   2.789   3.286   2.261  1.9813 -1.9021  0.3793
51070SOL     OW58147   1.777   0.165   3.566  0.0349 -0.2591 -0.0877
51070SOL    HW158148   1.737   0.129   3.487  1.6736  1.3007 -1.7387
51070SOL    HW258149   1.827   0.240   3.535  2.1626 -0.6051  2.2023
51071SOL     OW58150   5.352   5.762   5.969 -0.4481  0.1825  0.1701
51071SOL    HW158151   5.416   5.720   6.027  0.1006  1.0623  0.2274
51071SOL    HW258152   5.322   5.692   5.912  0.2503 -0.3444  0.4342
51072SOL     OW58153   9.839   0.245   1.899 -0.2887  0.4399 -0.3771
51072SOL    HW158154   9.829   0.153   1.872 -0.2156  0.2858  0.1063
51072SOL    HW258155   9.750   0.274   1.918 -0.0839 -0.4457  2.3600
51073SOL     OW58156   8.568   1.424   0.110  0.2724 -0.0337  0.0899
51073SOL    HW158157   8.530   1.417   0.023  0.3218 -1.9162  0.1800
51073SOL    HW258158   8.549   1.513   0.138 -0.2821  0.4036 -1.5923
51074SOL     OW58159   5.614   7.068  10.983 -0.2744  0.9123 -0.3782
51074SOL    HW158160   5.669   7.064  10.905 -0.2074  0.2544 -0.2974
51074SOL    HW258161   5.538   7.015  10.961 -0.3328  0.8637 -0.0548
51075SOL     OW58162   2.192   1.038   5.200  0.1959  0.4419  0.7681
51075SOL    HW158163   2.103   1.067   5.222  0.2323  1.2022 -0.0524
51075SOL    HW258164   2.246   1.070   5.273 -0.0983  0.5616  0.9335
51076SOL     OW58165   7.483   5.525   2.460 -0.0009 -0.7654 -0.0582
51076SOL    HW158166   7.525   5.532   2.375 -1.0978  2.0744 -0.4906
51076SOL    HW258167   7.555   5.525   2.523  0.8305  2.6327 -0.8322
51077SOL     OW58168  10.700   6.986   7.396 -0.1090 -0.5182 -1.1820
51077SOL    HW158169  10.783   7.001   7.442 -1.0176  1.1305  0.0130
51077SOL    HW258170  10.694   7.057   7.333 -2.2356  1.6847  1.2537
51078SOL     OW58171   5.072   4.400   0.671  0.0778 -0.1152 -0.2744
51078SOL    HW158172   5.142   4.334   0.669  0.3123  0.0536  1.1665
51078SOL    HW258173   5.113   4.479   0.635  0.4639 -0.1749  0.0275
51079SOL     OW58174   8.034   9.879   8.018 -0.6732 -1.0421 -0.1683
51079SOL    HW158175   7.967   9.818   8.049 -0.1407 -1.3695  0.3495
51079SOL    HW258176   8.113   9.826   8.010 -0.1584 -0.3839  0.4648
51080SOL     OW58177   1.287   7.429  10.358 -0.1685 -0.2295  0.1347
51080SOL    HW158178   1.314   7.502  10.301 -0.5188  0.0021  0.2624
51080SOL    HW258179   1.230   7.469  10.423 -2.0672 -0.9179 -1.0093
51081SOL     OW58180  10.902   9.987   9.603 -0.1703  0.2932  0.1518
51081SOL    HW158181  10.981   9.997   9.551 -1.1443  0.6471 -1.3060
51081SOL    HW258182  10.934   9.960   9.690  1.4821 -0.2430 -0.5842
51082SOL     OW58183  10.469  11.517   9.868  0.4189 -0.1923 -0.1045
51082SOL    HW158184  10.553  11.556   9.845 -0.3813  2.6729  1.4325
51082SOL    HW258185  10.407  11.555   9.806 -0.3649  0.9711  1.3362
51083SOL     OW58186  10.914   9.219   0.914  0.1210 -0.5125 -0.3741
51083SOL    HW158187  10.855   9.202   0.987  0.5566  1.0642  0.3877
51083SOL    HW258188  10.935   9.132   0.879 -2.5397 -1.1243 -0.6486
51084SOL     OW58189   9.464   0.063   1.779  0.0751 -0.9463  0.5396
51084SOL    HW158190   9.378   0.102   1.794  0.3390  0.1408 -0.5521
51084SOL    HW258191   9.445  -0.021   1.737 -0.4590 -1.0460  0.9668
51085SOL     OW58192   4.388   2.884   2.227  0.7325 -0.2413 -0.5219
51085SOL    HW158193   4.467   2.902   2.176  0.2348  2.4010 -0.5295
51085SOL    HW258194   4.420   2.859   2.313  1.5914 -0.0297 -0.7708
51086SOL     OW58195   1.586   9.846   3.910 -0.3761 -0.3596 -0.5030
51086SOL    HW158196   1.597   9.857   3.815  0.6076 -0.0010 -0.3487
51086SOL    HW258197   1.619   9.758   3.927  2.6646  0.7511 -0.0256
51087SOL     OW58198   6.864  11.086   5.360  0.2964  0.2792 -0.3466
51087SOL    HW158199   6.898  11.101   5.448  0.8080  0.3465 -0.5549
51087SOL    HW258200   6.927  11.027   5.319  0.5008  0.8976 -0.9464
51088SOL     OW58201   4.982   0.314   7.100  0.3317  0.0285  0.3644
51088SOL    HW158202   4.939   0.293   7.018 -1.5373  0.6920  1.1231
51088SOL    HW258203   5.043   0.385   7.078  0.1911 -0.1150 -0.5089
51089SOL     OW58204   2.654  10.910   2.620  0.4179 -0.1722  0.3242
51089SOL    HW158205   2.632  10.847   2.551  0.4983  0.0749  0.0712
51089SOL    HW258206   2.593  10.983   2.606  0.0330 -0.3760  0.8832
51090SOL     OW58207  11.344   3.604   7.347 -0.2976 -0.5132 -0.3334
51090SOL    HW158208  11.336   3.677   7.409 -0.3965 -0.4364 -0.4343
51090SOL    HW258209  11.365   3.528   7.401  0.7373 -0.2294 -0.3265
51091SOL     OW58210   8.256   6.205  11.193 -0.0148  0.1854 -0.3007
51091SOL    HW158211   8.240   6.298  11.178  0.9179  0.2231 -1.1209
51091SOL    HW258212   8.265   6.197  11.288 -1.8847  0.6229 -0.0409
51092SOL     OW58213   2.591   9.517   8.287 -0.2149 -0.1456  0.0681
51092SOL    HW158214   2.527   9.488   8.222 -0.8796 -0.1590  0.7144
51092SOL    HW258215   2.674   9.516   8.241 -0.7067  0.0480 -0.8421
51093SOL     OW58216   5.781   4.397   5.639 -0.1987  0.0753  0.7542
51093SOL    HW158217   5.800   4.469   5.699  0.6191  1.2769 -0.8749
51093SOL    HW258218   5.724   4.338   5.689  1.0187  0.6524  2.9271
51094SOL     OW58219  10.866   3.959   6.052  0.1790  0.0876  0.2197
51094SOL    HW158220  10.794   3.971   5.990 -0.4115 -2.0286  0.4277
51094SOL    HW258221  10.834   3.893   6.114  1.7825  0.1358  1.1585
51095SOL     OW58222   1.117   5.566  10.885  0.6725 -0.5117 -0.1827
51095SOL    HW158223   1.172   5.497  10.847  3.0445 -0.5226  2.8852
51095SOL    HW258224   1.132   5.559  10.979 -1.5339  2.1652  0.4816
51096SOL     OW58225   1.911   6.623   7.823  0.5705  0.4009  0.2087
51096SOL    HW158226   1.956   6.539   7.827 -0.6742 -0.2665  1.3634
51096SOL    HW258227   1.848   6.614   7.751  1.0219  0.6690 -0.2249
51097SOL     OW58228   3.715   1.383   6.496 -0.0394 -0.0939 -0.5090
51097SOL    HW158229   3.753   1.380   6.408  0.4341  0.3574 -0.3203
51097SOL    HW258230   3.776   1.436   6.547  0.5216 -1.6419  0.4970
51098SOL     OW58231   4.541   2.969   9.499  0.7355  0.0245  0.1718
51098SOL    HW158232   4.547   3.055   9.541  1.7526  0.2431 -0.4035
51098SOL    HW258233   4.546   2.988   9.405 -0.1506 -0.5754 -0.0098
51099SOL     OW58234   2.762  11.237  10.757 -0.3114 -0.3810 -0.0214
51099SOL    HW158235   2.846  11.192  10.746 -0.2654 -0.7808  1.6032
51099SOL    HW258236   2.781  11.307  10.820 -1.3076 -0.8592  0.8437
51100SOL     OW58237   6.811  10.129   3.953  0.1032 -0.1471 -0.2542
51100SOL    HW158238   6.851  10.164   4.033  1.8275 -0.7282 -0.8151
51100SOL    HW258239   6.803  10.206   3.896 -1.2983  0.3046  0.4947
51101SOL     OW58240   6.621   0.742   2.911 -0.3297 -0.1684  0.3284
51101SOL    HW158241   6.681   0.712   2.979 -0.4521  0.7138  0.8369
51101SOL    HW258242   6.577   0.818   2.949  0.0902  0.7601 -0.9760
51102SOL     OW58243   1.544   3.401   6.089  0.1651 -0.1398  0.1867
51102SOL    HW158244   1.545   3.493   6.062 -1.4584 -0.1585 -0.0631
51102SOL    HW258245   1.550   3.352   6.007  2.8164 -0.3341  0.4128
51103SOL     OW58246   3.079   6.733   5.074  0.6280  0.0075  0.0140
51103SOL    HW158247   3.028   6.755   4.996  0.4472 -0.5177 -0.0221
51103SOL    HW258248   3.081   6.637   5.075  0.6552  0.0117  0.6382
51104SOL     OW58249   6.908  11.359   1.585 -0.3729  0.4992 -0.6657
51104SOL    HW158250   6.966  11.394   1.517  1.9023 -0.2187  0.7867
51104SOL    HW258251   6.940  11.270   1.600 -0.1260  0.9528  1.9791
51105SOL     OW58252   8.406   6.867  11.125  0.1284 -0.8123  0.0733
51105SOL    HW158253   8.371   6.954  11.142 -0.0909 -0.9787  0.5016
51105SOL    HW258254   8.499   6.881  11.107 -0.1483 -0.3617 -1.1189
51106SOL     OW58255   9.268   4.819   6.972 -0.8045  0.3183  0.1913
51106SOL    HW158256   9.331   4.756   6.938  0.1841  1.5194 -0.2861
51106SOL    HW258257   9.313   4.861   7.046 -1.0482  1.1391 -0.1109
51107SOL     OW58258   8.048   7.228   6.963 -0.0961 -0.6848 -0.3783
51107SOL    HW158259   7.986   7.294   6.934 -0.8281 -1.1908  0.0163
51107SOL    HW258260   8.084   7.263   7.044  0.9533  0.1067 -1.1579
51108SOL     OW58261   2.942   8.553  10.219  0.1657  0.2821  0.3818
51108SOL    HW158262   2.914   8.560  10.128 -0.0992 -3.2868  0.0444
51108SOL    HW258263   3.037   8.568  10.216 -0.0799  1.9691 -0.1276
51109SOL     OW58264   9.468   6.435   8.330 -0.2926 -0.1959 -0.3313
51109SOL    HW158265   9.448   6.437   8.424 -1.6397 -0.8164 -0.5894
51109SOL    HW258266   9.385   6.417   8.287  0.4851 -0.9850 -1.5950
51110SOL     OW58267   7.379   0.261   7.549 -0.7004 -0.0401  0.4929
51110SOL    HW158268   7.461   0.263   7.500  0.2458  0.2829  1.9982
51110SOL    HW258269   7.336   0.345   7.529  0.4546  0.8140  1.4358
51111SOL     OW58270   8.780   3.830   0.794 -0.5127 -0.4647 -0.5453
51111SOL    HW158271   8.792   3.741   0.828  0.5358 -0.4143 -0.7481
51111SOL    HW258272   8.728   3.818   0.714 -0.8675 -0.8393 -0.2590
51112SOL     OW58273   7.175   9.173   3.028 -0.2467 -0.5814  0.0471
51112SOL    HW158274   7.162   9.145   2.937 -1.2652 -1.4274  0.4295
51112SOL    HW258275   7.086   9.187   3.061  0.1691  1.9383  0.2651
51113SOL     OW58276   7.903   2.884   8.884 -0.4544  0.1520  0.0197
51113SOL    HW158277   7.898   2.888   8.788  0.4834 -1.2507 -0.1108
51113SOL    HW258278   7.813   2.868   8.912 -0.8538  1.2381 -0.5662
51114SOL     OW58279   2.209  10.215   4.282 -0.0664  0.1651 -0.2710
51114SOL    HW158280   2.192  10.158   4.207  1.3315 -0.2359 -0.3114
51114SOL    HW258281   2.167  10.172   4.356 -0.6445  0.0718 -0.6558
51115SOL     OW58282   7.945   0.994   7.840 -0.1179  0.3960  0.2358
51115SOL    HW158283   7.920   0.967   7.929  0.8774 -1.5067 -0.0136
51115SOL    HW258284   7.965   0.912   7.795 -1.0859  1.2784 -1.9278
51116SOL     OW58285   5.685   7.658   0.278  0.0902 -0.4765 -0.0511
51116SOL    HW158286   5.593   7.673   0.302 -0.2105 -1.2816 -0.6522
51116SOL    HW258287   5.713   7.741   0.239 -0.5315 -0.3790 -0.3008
51117SOL     OW58288   7.052  11.248   6.752  0.1438 -0.1037  0.1523
51117SOL    HW158289   6.989  11.197   6.804  0.9289 -0.8330  0.4246
51117SOL    HW258290   7.059  11.331   6.798 -2.6477  1.1095 -1.3819
51118SOL     OW58291   1.544   4.686   1.690  0.5816  0.1053  0.3535
51118SOL    HW158292   1.529   4.708   1.782 -1.1534  1.8682 -0.2826
51118SOL    HW258293   1.589   4.602   1.693  0.0226 -0.1910  2.8038
51119SOL     OW58294   0.743   8.359  11.211  0.4883  0.0209  0.0761
51119SOL    HW158295   0.764   8.274  11.248 -0.0531 -0.3842 -0.5195
51119SOL    HW258296   0.825   8.408  11.216  0.8327 -0.5682  0.3285
51120SOL     OW58297   1.562   8.943   0.919  0.1363 -0.6743  0.1740
51120SOL    HW158298   1.591   9.015   0.863  2.1861 -0.6577  1.1625
51120SOL    HW258299   1.475   8.970   0.949  0.4237  0.9087 -0.2998
51121SOL     OW58300   1.820   6.716   9.600  0.2835  0.0595  0.1023
51121SOL    HW158301   1.868   6.789   9.640  0.0449  0.2497  0.0384
51121SOL    HW258302   1.744   6.756   9.559 -0.8066 -0.4245  1.5776
51122SOL     OW58303   9.142   2.029  11.435 -0.2405  0.0162  0.2537
51122SOL    HW158304   9.160   2.012  11.343 -0.3443  0.0827  0.2207
51122SOL    HW258305   9.213   2.087  11.463 -0.3418  0.1917  0.1511
51123SOL     OW58306   5.114   2.344   7.051  0.1483 -0.6010 -0.8115
51123SOL    HW158307   5.083   2.361   7.140 -0.1966  2.1722 -1.3444
51123SOL    HW258308   5.208   2.357   7.055  0.5910 -3.3318 -0.3591
51124SOL     OW58309   7.415   0.258   2.306 -0.1172  0.7864 -0.2177
51124SOL    HW158310   7.429   0.352   2.316 -1.2633  0.9751 -0.2284
51124SOL    HW258311   7.333   0.241   2.352  1.4307 -0.7046  2.2026
51125SOL     OW58312  10.122   9.812   6.244  0.2177  0.4773 -0.3954
51125SOL    HW158313  10.158   9.872   6.178  0.2708 -0.8824 -1.6511
51125SOL    HW258314  10.197   9.787   6.298 -0.2016  3.5584  1.9518
51126SOL     OW58315  10.544   4.459   5.238 -0.5293  0.3585  0.0405
51126SOL    HW158316  10.529   4.384   5.295  0.8821  0.6653  0.8662
51126SOL    HW258317  10.460   4.475   5.196 -1.9000  0.6132  2.6565
51127SOL     OW58318   6.841   4.377   4.363  0.0170 -0.3142 -0.3328
51127SOL    HW158319   6.876   4.310   4.422 -0.2058  0.0938  0.2779
51127SOL    HW258320   6.914   4.398   4.305  0.2891 -0.6171 -0.1087
51128SOL     OW58321   0.924   1.070   9.187  0.1326 -0.5411 -0.0916
51128SOL    HW158322   0.978   1.149   9.198 -0.3204 -0.1207 -0.7644
51128SOL    HW258323   0.926   1.027   9.272 -0.8613  1.0049  0.7483
51129SOL     OW58324   5.371  10.844  11.396 -0.3982 -0.4736  0.2802
51129SOL    HW158325   5.457  10.856  11.357 -0.7282 -0.1997 -0.3753
51129SOL    HW258326   5.339  10.932  11.412  0.1818 -0.5712  2.2220
51130SOL     OW58327   4.595   3.500   9.589  0.2140  0.3419 -0.3859
51130SOL    HW158328   4.651   3.530   9.660 -1.6878  0.6301  1.0546
51130SOL    HW258329   4.599   3.404   9.595 -2.8310  0.2073  2.7048
51131SOL     OW58330   3.686   7.864   3.611 -0.4008  0.6964 -0.1217
51131SOL    HW158331   3.642   7.947   3.630  0.3450  1.1019 -0.0844
51131SOL    HW258332   3.699   7.866   3.516 -0.2021  0.7199 -0.0945
51132SOL     OW58333  10.007   2.881  10.092 -0.2686  0.1075 -0.3961
51132SOL    HW158334   9.954   2.857  10.016 -0.4162 -2.6925  0.4588
51132SOL    HW258335  10.034   2.797  10.129  2.0288  1.4162  1.1173
51133SOL     OW58336   1.333   0.987   3.326  0.2517 -0.1817  0.8339
51133SOL    HW158337   1.381   1.061   3.290  0.2303 -0.1746  0.8200
51133SOL    HW258338   1.349   0.916   3.263 -2.0384  0.5615 -0.7118
51134SOL     OW58339   4.496   4.799   0.676  0.1460  0.3130 -0.3512
51134SOL    HW158340   4.475   4.893   0.678  2.5714  0.9621 -1.5211
51134SOL    HW258341   4.502   4.777   0.584  1.9785 -0.3557 -0.1175
51135SOL     OW58342   7.678   0.447   0.116 -0.0555  0.2245  0.1043
51135SOL    HW158343   7.586   0.437   0.089 -0.5537  1.0502  1.3929
51135SOL    HW258344   7.717   0.500   0.046 -0.3859 -0.6288 -0.7581
51136SOL     OW58345   3.181   9.587   1.448 -0.1276 -0.0658 -0.3283
51136SOL    HW158346   3.129   9.632   1.381 -0.9252 -0.7290 -0.1789
51136SOL    HW258347   3.237   9.655   1.485  0.3236  0.3146 -1.6611
51137SOL     OW58348   2.374   9.011   9.442  0.2225  0.0386  0.6541
51137SOL    HW158349   2.315   8.962   9.384 -0.7010  0.4187  1.2364
51137SOL    HW258350   2.317   9.077   9.483  1.1969  0.8450  0.7522
51138SOL     OW58351   2.605  11.588   7.085 -0.6045 -0.3620  0.1721
51138SOL    HW158352   2.607  11.499   7.048 -0.5986 -0.8502  1.2985
51138SOL    HW258353   2.579  11.575   7.176 -1.4006  0.8827  0.1433
51139SOL     OW58354   8.014   4.463  11.638 -0.0383  0.3313  0.2336
51139SOL    HW158355   7.985   4.422  11.719  0.1110 -1.1267 -0.4293
51139SOL    HW258356   7.987   4.403  11.569  2.6684 -0.0700 -0.5807
51140SOL     OW58357   7.313   8.963   5.823  0.1330 -0.5237  0.0903
51140SOL    HW158358   7.361   9.007   5.752  1.5722 -1.8762  0.1579
51140SOL    HW258359   7.359   8.880   5.834  1.1170  0.3203  3.8190
51141NA      NA58360   9.138   0.502   8.951  0.0604 -0.9818 -0.2750
51142NA      NA58361   1.461   2.401   8.255 -0.3026 -0.0336  0.3036
51143NA      NA58362  10.051  10.688   8.401  0.5038 -0.2892  0.1460
51144NA      NA58363   0.553   3.914   4.702  0.2893  0.0723 -0.1549
51145NA      NA58364  10.559   3.218   5.946 -0.2417 -0.0082  0.3489
51146NA      NA58365  10.809   1.207   4.047 -0.6770 -0.5478  0.1620
51147NA      NA58366  10.982   0.908  10.003  0.5231 -0.0024  0.1036
51148NA      NA58367   8.966   2.383   3.964  0.0288  0.0696  0.1372
51149NA      NA58368   9.394   0.332   8.849  0.1294  0.2013  0.2956
51150NA      NA58369   9.913   1.887   3.258 -0.4729 -0.3210 -0.8507
51151NA      NA58370   5.276   6.243  11.383  0.0060 -0.1535  0.1490
51152NA      NA58371   8.586   8.555  10.275 -0.9204 -0.0518  0.1074
51153NA      NA58372   5.813   6.161   5.987  0.1039 -0.1599 -0.3375
51154NA      NA58373   9.741   2.787   8.361 -0.0595 -0.0673 -0.0595
51155NA      NA58374   8.826   8.112  10.753 -0.1303  0.2228 -0.0373
51156NA      NA58375  11.549   1.659   5.603  0.2042 -0.0136  0.2032
51157NA      NA58376  10.822   3.167   4.757  0.2554 -0.2466  0.0234
51158NA      NA58377   1.251   1.219   6.421 -0.0281 -0.2691 -0.0053
51159NA      NA58378  10.679   5.114   1.099 -0.4074 -0.1674 -0.4318
51160NA      NA58379   1.158   0.440   5.718  0.0661 -0.4954  0.1801
51161NA      NA58380   1.024   1.369   6.694 -0.0073 -0.2235  0.3199
51162NA      NA58381  11.404   1.813   5.850  0.0781 -0.8155  0.0046
51163NA      NA58382   1.095   1.048   6.647  0.2318  0.4043 -0.2987
51164NA      NA58383  10.702   1.950   5.577  0.2190 -0.0865  0.0578
51165NA      NA58384  10.802  11.302  11.114  0.1136 -0.0256 -0.1855
51166NA      NA58385   3.167   9.340   7.930  0.0260  0.4114 -0.0863
51167NA      NA58386  10.713   1.268   7.925 -0.2678  0.3839  0.4682
51168NA      NA58387  10.855   1.100   8.453  0.5433  0.4398  0.0612
51169NA      NA58388   3.495   0.676   9.749 -0.1162  0.1598  0.1660
51170NA      NA58389   9.127   0.697   9.174  0.3203  0.1712 -0.6405
51171NA      NA58390   1.683   5.990   8.897 -0.1896 -0.5916 -0.2029
51172NA      NA58391   0.910   0.577   5.874 -0.2179  0.0129 -0.1951
51173NA      NA58392  11.463   1.881   8.161  0.1956 -0.1755  0.4585
51174NA      NA58393  11.663   1.059   2.226  0.3800 -0.0867 -0.1499
51175NA      NA58394   7.792   2.144   7.489  0.6453 -0.1854 -0.1626
51176NA      NA58395   1.347   1.186   7.700  0.0611  0.0207  0.1023
51177NA      NA58396  11.179   2.858   5.447  0.1908  0.4542 -0.3202
51178NA      NA58397   8.483  10.907   6.824  0.2443 -0.3400 -0.5542
51179NA      NA58398  11.002   2.922   4.661  0.1775  0.1270 -0.2601
51180NA      NA58399   0.338   6.256  10.892  0.5998 -0.4643 -0.1740
51181NA      NA58400   8.148  11.231   7.378  0.3554  0.1318  0.0689
51182NA      NA58401   0.166   0.141   5.562 -0.0186 -0.3635  0.4647
51183NA      NA58402   8.139   0.376   5.310 -0.1393 -0.1038 -0.0078
51184NA      NA58403   1.274   1.894   8.342  0.9337  0.6321 -0.1667
51185NA      NA58404  11.294   2.988   5.701  0.2640 -0.1469  0.5384
51186NA      NA58405  10.962   2.470   4.230 -0.6038  0.2268 -0.2241
51187NA      NA58406  10.271  10.486   8.422  0.6615  0.1133 -0.3199
51188NA      NA58407   7.349   7.325   4.605 -0.3186 -0.0259 -0.1248
51189NA      NA58408  11.295   2.693   5.252  0.7888  0.2452  0.5261
51190NA      NA58409  11.672   1.431   9.039 -0.2639 -0.2480 -0.0852
51191NA      NA58410  10.826   1.994   3.955 -0.0213 -0.1382  0.0064
51192NA      NA58411   0.011   0.066   5.293  0.1214  0.4245 -0.2922
51193NA      NA58412  11.159   0.221   7.713 -0.3986 -0.0875  0.3862
51194NA      NA58413   7.774  11.239   6.734 -0.1006 -0.6491 -0.0321
51195NA      NA58414   9.058   0.528   8.660  0.2852 -0.0727  0.5352
51196NA      NA58415   3.706  11.627   7.817 -0.1005  0.4087  0.4991
51197NA      NA58416   8.517   8.305  11.167 -0.3900 -0.3931  0.1385
51198NA      NA58417   8.157  11.454   7.072 -0.3303  0.7536 -0.3318
51199NA      NA58418   5.944   7.725   2.919 -0.1109 -0.2251  0.4370
51200NA      NA58419   9.566   2.349   7.456  0.0490  0.1043  0.0657
51201NA      NA58420  11.304   1.335   4.223  0.0908  0.1269 -0.0149
51202NA      NA58421   9.230   2.739   5.845  0.4933  0.0461  0.0846
51203NA      NA58422  10.742   2.237   4.184  0.3804  0.1631 -0.1357
51204NA      NA58423   0.488   1.287   5.455 -0.4966 -0.2571  0.0610
51205NA      NA58424   0.178   1.984   5.603 -0.1295  0.6721 -0.2740
51206NA      NA58425  10.864  11.231   5.149 -0.3435  0.3444 -0.2407
51207NA      NA58426   9.964  11.309   4.619  0.3812 -0.1391 -0.1069
51208NA      NA58427   8.512   0.955  10.907  0.5376 -0.2857  0.8406
51209NA      NA58428  10.457   0.381   4.196 -0.0883 -0.3171 -0.1582
51210NA      NA58429   6.251   5.363   7.138  0.2464  0.1925 -0.0414
51211NA      NA58430   4.134   9.938   1.869 -0.2542  0.2389  0.1830
51212NA      NA58431   9.819   1.328   4.043 -0.0499 -0.5070  0.4171
51213NA      NA58432   7.907   7.424  10.000 -0.2196 -0.0947 -0.3101
51214NA      NA58433   4.359  10.328  10.716  0.0056 -0.1404  0.0140
51215NA      NA58434   6.685   2.657   7.052 -0.1812 -0.3996 -0.0359
51216NA      NA58435   5.318   3.353   5.848 -0.0224  0.0211  0.6197
51217NA      NA58436   4.332   1.221  11.668  0.3835  0.0662 -0.3510
51218NA      NA58437  10.872   0.466   7.808  0.0259 -0.0810  0.4788
51219NA      NA58438  10.026   7.074   5.343 -0.3717 -0.5148  0.2218
51220NA      NA58439   0.176   1.366   5.551  0.0645  0.3594  0.2521
51221NA      NA58440  10.625   1.182   4.270  0.0997 -0.0861  0.3620
51222NA      NA58441  10.996   2.941   4.961 -0.1615 -0.5360  0.0012
51223NA      NA58442   7.888   1.511   2.360 -0.1649 -0.5958  0.1544
51224NA      NA58443   5.154   4.815   4.645  0.3415 -0.1131 -0.1853
51225NA      NA58444   8.555  11.330   5.527  0.2626  0.0523  0.1589
51226NA      NA58445   8.844   3.248   8.900 -0.4207 -0.6288  0.2372
51227NA      NA58446   1.238   1.815   8.630  0.5508  0.3668  0.1603
51228NA      NA58447   0.834   2.065   9.333  0.1930  0.1246 -0.5228
51229NA      NA58448   1.396   0.961   7.875 -0.2534 -0.1190 -0.0095
51230NA      NA58449   5.691   2.271   2.753 -0.1971  0.2100  0.4950
51231NA      NA58450   2.681   5.515   2.128 -0.3296 -0.1164 -0.0547
51232NA      NA58451   1.161   0.986   7.744  0.1200  0.1119 -0.2003
51233NA      NA58452   3.069   8.608   9.852 -0.1198  0.0283  0.6549
51234NA      NA58453  11.061   1.376   4.031 -0.3370  0.6047 -0.3318
51235NA      NA58454   2.418   7.860   3.875  0.2170 -0.1002 -0.0726
51236NA      NA58455  11.250   0.908   9.845  0.1885  0.4985 -0.4588
51237NA      NA58456   4.013  11.193   0.011  0.0144 -0.3006 -0.2900
51238NA      NA58457   9.960   1.951   5.714 -0.3488 -0.7556 -0.5647
51239NA      NA58458   4.926   7.225   1.309 -0.0489 -0.2777  0.5089
51240NA      NA58459   0.502   9.571   6.803 -0.2239  0.1126  0.3284
51241NA      NA58460  11.283   1.309   8.720 -0.0770  0.3575  0.3291
51242NA      NA58461   6.990   5.858   6.042 -0.3580  0.2328 -0.6926
51243NA      NA58462  10.808   1.171   7.685 -0.4514  0.1701  0.5420
51244NA      NA58463   1.361   1.093   6.775  0.1133  0.2229  0.1611
51245NA      NA58464   1.022   0.880   7.946 -0.0880  0.1861 -0.3012
51246NA      NA58465  11.251   8.553   9.747 -0.1603  0.1438 -0.2383
51247NA      NA58466   0.197  10.754   2.554 -0.0614 -0.1953  0.0382
51248NA      NA58467   1.030   1.834   8.466 -0.5094 -0.0047 -0.2344
51249NA      NA58468   5.555   5.512  10.580  0.2327  0.0957 -0.0631
51250NA      NA58469  10.527  11.114   4.423  0.1885  0.1709 -0.4718
51251NA      NA58470  11.254   1.722   8.240 -0.0805  0.2609  0.4525
51252NA      NA58471   3.993   0.358   5.378  0.2002 -0.1980  0.2029
51253NA      NA58472  11.362   3.158  10.999 -0.2573  0.4924  0.1858
51254NA      NA58473   0.745   1.244   5.265 -0.2320  0.0140 -0.3109
51255NA      NA58474  11.493   1.139   8.895  0.3702  0.6712 -0.5572
51256NA      NA58475   0.005   1.445   4.462 -0.0390  0.2381 -0.1368
51257NA      NA58476  11.535  11.342   6.064  0.2944  0.3502  0.0334
51258NA      NA58477   1.069   3.881   4.961 -0.2500 -0.0318  0.2172
51259NA      NA58478  10.819  11.102   4.901  0.2423  0.5858 -0.0252
51260NA      NA58479  11.614  11.252   5.103 -0.4989 -0.0024 -0.0543
51261NA      NA58480   8.845   0.082   7.929  0.0096  0.0622 -0.0835
51262NA      NA58481   9.532   8.262   5.195  0.1770 -0.2583  0.2957
51263NA      NA58482   9.584   1.161   4.084  0.3077 -0.3448 -0.0947
51264NA      NA58483   4.312   3.703   7.903 -0.1777  0.5253  0.2319
51265NA      NA58484   9.338   1.787   5.146  0.1581  0.3344 -0.4377
51266NA      NA58485  10.992   2.726   5.167  0.1860  0.0177 -0.3863
51267NA      NA58486   9.888  11.661   4.149 -0.1147  0.0750 -0.3210
51268NA      NA58487   0.978   2.416   9.410  0.6680 -0.0626 -0.1410
51269NA      NA58488  10.044   1.795   8.028  0.0850 -0.0049  0.0252
51270NA      NA58489  11.021  10.828   7.421  0.0642  0.4395 -0.1120
51271NA      NA58490  10.857   2.398   5.240 -0.4703 -0.2161  0.0061
51272NA      NA58491  11.471   1.649   9.145  0.0064  0.4411  0.7987
51273NA      NA58492   1.091   2.784   8.903 -0.1195  0.4820 -0.2584
51274NA      NA58493   1.063   0.717   5.662 -0.1997  0.0404 -0.0829
51275NA      NA58494   0.732   0.352   5.912 -0.0035 -0.0435  0.1131
51276NA      NA58495   9.199   2.751   4.725 -0.0129  0.3654  0.0972
51277NA      NA58496   3.666   6.078   5.534 -0.1437  0.6327 -0.2480
51278NA      NA58497  10.883   0.658   7.609 -0.1923 -0.5892 -0.4655
51279NA      NA58498   2.319   0.762   4.898  0.2332  0.6134  0.0244
51280NA      NA58499   7.581   0.165   8.425  0.1616  0.2748  0.4599
51281NA      NA58500   8.062  11.301   5.683  0.3145  0.4274 -0.2444
51282NA      NA58501   0.913   6.419   9.046 -0.1658 -0.1367  0.6314
51283NA      NA58502   1.346   2.089   8.156 -0.6745  0.5761 -0.1010
51284NA      NA58503   0.655   2.306   9.418 -0.2056  0.0712  0.2406
51285NA      NA58504   9.675   2.021   5.543 -0.1131 -0.0934 -0.0650
51286NA      NA58505  10.520   2.159   5.712 -0.3918 -0.4930  0.8764
51287NA      NA58506   2.692   9.692   3.960  0.1337  0.4986  0.3172
51288NA      NA58507   9.166  11.173   5.225 -0.3870 -0.2191  0.6586
51289NA      NA58508   0.998   2.549   9.084  0.4446  0.3675 -0.7549
51290NA      NA58509  10.618   1.342   7.563  0.1907 -0.5210 -0.3212
51291NA      NA58510   3.319   1.989   9.686 -0.3354  0.3634  0.1288
51292NA      NA58511   7.291  10.621   5.798 -0.0515  0.0338 -0.2710
51293NA      NA58512   9.221   7.969   1.732  0.0204 -0.0872  0.3449
51294NA      NA58513   2.742   7.205   6.575  0.1659 -0.0281  0.3219
51295NA      NA58514   9.506   5.397   2.622  0.4245  0.4615  0.4811
51296NA      NA58515   9.841   2.407   7.562 -0.0702 -0.1571  0.0026
51297NA      NA58516   9.554   2.453   7.150 -0.1541  0.1540 -0.3402
51298NA      NA58517  11.363   0.664   9.637  0.3485 -0.1526  0.0996
51299NA      NA58518   8.763   2.517   7.000  0.2217 -0.2922 -0.0844
51300NA      NA58519  10.317   1.685   7.683 -0.1890 -0.3561  0.3581
51301NA      NA58520   9.481  10.893   5.551 -0.2909 -0.3436 -0.5567
51302NA      NA58521   9.426   6.687   1.995 -0.2524  0.2769 -0.5315
51303NA      NA58522   6.643   1.980  11.370  0.4851  0.6549 -0.1670
51304NA      NA58523   3.535   3.859   7.865 -0.7796  0.2722  0.1028
51305NA      NA58524   9.493   2.985   8.410  0.3927 -0.3530 -0.0330
51306NA      NA58525   0.392   0.254   5.368  0.3309  0.2263 -0.4738
51307NA      NA58526  10.928   2.278   3.959 -0.1158  0.4489  0.4511
51308NA      NA58527  11.689  11.473   5.315  0.0872  0.1090 -0.3163
51309NA      NA58528  10.839  11.306   8.026  0.4855 -0.1098 -0.1360
51310NA      NA58529   3.267  11.516   2.013 -0.2084  0.0532  0.3305
51311NA      NA58530   7.895   0.173   5.787 -0.0605  0.1432 -0.3060
51312NA      NA58531   9.440  11.032   5.304  0.5969 -0.1028 -0.0210
51313NA      NA58532   2.152   9.508   8.615  0.0018  0.0728  0.3015
51314NA      NA58533  10.066   1.177   4.072  0.4308 -0.1287  0.0925
51315NA      NA58534   5.808   8.546   2.299  0.4700  0.1341 -0.1991
51316NA      NA58535   0.361   1.532   5.348 -0.0714  0.6906  0.3107
51317NA      NA58536  10.450   0.906   4.393 -0.2429 -0.1674 -0.1746
51318NA      NA58537  11.200   8.494   8.853  0.1205  0.1283  0.4499
51319NA      NA58538   9.846   2.137   3.502 -0.0693 -0.5475  0.1035
51320NA      NA58539  10.671   2.183   5.419 -0.4183 -0.3311  0.4344
51321NA      NA58540   0.150   5.343   1.688  0.1242  0.2749 -0.4009
51322NA      NA58541   6.168  11.574   5.461 -0.2253 -0.1700 -0.0665
51323NA      NA58542   0.141   1.637   5.639  0.5667  0.0615 -0.4127
51324NA      NA58543  11.026   0.078   7.460  0.3647 -0.1319  0.4422
51325NA      NA58544   0.451   2.436   9.558 -0.1136  0.3838 -0.2658
51326NA      NA58545   9.274   3.222   7.919 -0.0585 -0.1287  0.3498
51327NA      NA58546   3.933   2.092   2.660  0.1434  0.0256  0.0465
51328NA      NA58547  10.847   0.336   7.456  0.2347  0.0813  0.3217
51329NA      NA58548  10.854  11.362   8.309 -0.2080 -0.1356 -0.5494
51330NA      NA58549   1.221   0.850   6.770 -0.3935  0.0409 -0.2262
51331NA      NA58550   5.050   4.267   9.751 -0.3894  0.4192  0.7439
51332NA      NA58551  10.499  11.176   4.716  0.0599  0.3379  0.1894
51333NA      NA58552   2.212   5.322   2.906  0.3170 -0.2346 -1.0604
51334NA      NA58553  10.015   1.706   7.754 -0.0665  0.4340 -0.3608
51335NA      NA58554  10.493   0.664   8.045  0.4859 -0.4458  0.0962
51336NA      NA58555  11.453   2.909   5.328 -0.0980  0.1034  0.0057
51337NA      NA58556  11.376   0.848   8.844 -0.2128  0.4416  0.3287
51338NA      NA58557  10.765   0.661   8.036 -0.6868 -0.2670 -0.3076
51339NA      NA58558   8.913  11.563   8.134 -0.1866  0.3063 -0.0872
51340NA      NA58559  11.019   0.256   7.206 -0.2284 -0.4849 -0.2954
51341NA      NA58560   8.394  10.698  10.113  0.2723  0.5231  0.0275
51342NA      NA58561  10.564   1.095   8.425  0.8734 -0.2558 -0.2014
51343NA      NA58562   9.651   0.963   3.824  0.0056 -0.3667 -0.5371
51344NA      NA58563   9.604   0.566  11.009  0.0763 -0.6435  0.8065
51345NA      NA58564  11.217   2.027   8.234  0.6416 -0.2718  0.0004
51346NA      NA58565   7.549   5.876  11.032 -0.6593  0.0718  0.6524
51347NA      NA58566   9.499   1.864   5.364  0.4932  0.0743  0.2306
51348NA      NA58567  10.686  11.052   7.842  0.0888 -0.0901  0.6558
51349NA      NA58568  10.069   6.652   7.138 -0.0989 -0.1102 -0.1094
51350NA      NA58569   1.367   3.341   8.577  0.0024  0.3731 -0.4864
51351NA      NA58570   8.412  11.402   6.182  0.0769 -0.0490 -0.2613
51352NA      NA58571   7.942   0.347   5.593  0.1641  0.1615 -0.3098
51353NA      NA58572   3.113  10.128   9.634 -0.3052 -0.2467  0.4153
51354NA      NA58573   4.617   8.840   2.667 -0.2076 -0.3822 -0.1436
51355NA      NA58574   1.407  10.648   2.845  0.2630 -0.4426  0.2353
51356NA      NA58575  11.504   1.724  11.035  0.4871 -0.9672 -0.4403
51357NA      NA58576   9.516   0.064   3.368  0.3483  0.1798 -0.1839
51358NA      NA58577  10.271  11.238   4.560  0.3283 -0.1456 -0.4143
51359NA      NA58578   8.042   0.440   5.863  0.2834 -0.0003  0.3520
51360NA      NA58579   1.820  10.600   9.537  0.1189 -0.2165 -0.0968
51361NA      NA58580   1.056   1.128   5.396  0.3272  0.4569 -0.3542
51362NA      NA58581   9.468   0.059   9.061 -0.6838 -0.2051  0.2210
51363NA      NA58582  11.009   1.829   8.246 -0.0369 -0.0779 -0.1731
51364NA      NA58583   9.731  11.417   4.329 -0.3960 -0.4683 -0.1410
51365NA      NA58584   9.499   6.253   5.530  0.4370  0.1410 -0.3121
51366NA      NA58585  11.628   1.481   9.343  0.0974 -0.0512  0.0047
51367NA      NA58586  10.084   2.237   5.839 -0.3119 -0.3599 -0.1154
51368NA      NA58587   9.245   0.477   0.186 -0.5350 -0.0158  0.1579
51369NA      NA58588   7.188   1.007   6.131 -0.4225 -0.0871 -0.1284
51370NA      NA58589   0.858   2.653   6.298 -0.0784  0.3190 -0.1073
51371NA      NA58590   9.751  11.661   9.060 -0.1285 -0.0449  0.0093
51372NA      NA58591  10.789  11.225   4.654  0.2665  0.2659  0.4958
51373NA      NA58592   9.490   2.148   7.202  0.0039  0.0979 -0.2588
51374NA      NA58593   2.109   5.887   4.576 -0.3241  0.2768  0.2221
51375NA      NA58594   7.657   2.465  10.328  0.1202  0.0001  0.2640
51376NA      NA58595   8.471  11.671   8.325  0.1594  0.0540 -0.0475
51377NA      NA58596   0.839   1.144   6.729  0.2068 -0.2776 -0.4595
51378NA      NA58597  11.665   7.503   9.982  0.1507 -0.2105  0.3504
51379NA      NA58598   9.368   0.600   8.772 -0.7015  0.0734  0.3510
51380NA      NA58599   8.246   3.354   8.332  0.4137  0.3742  0.3279
51381NA      NA58600   8.210   1.663   0.784  0.1960 -0.6023 -0.5446
51382NA      NA58601   8.632  11.456   8.182  0.0509 -0.2573  0.1527
51383NA      NA58602   1.212   2.900   4.573  0.4172 -0.2489 -0.1733
51384NA      NA58603   1.302   2.643   9.082 -0.6657 -0.2249 -0.2025
51385NA      NA58604   9.218   2.874   0.449 -0.3321  0.1405 -0.1710
51386NA      NA58605   3.562   8.289   5.571  0.2953 -0.0511 -0.0812
51387NA      NA58606   3.184   2.231   3.020  0.0430  0.2867  0.0825
51388NA      NA58607   8.002  11.341   7.625 -0.0995  0.1466 -0.3729
51389NA      NA58608  10.524  11.241   7.976  0.7377 -0.2560  0.3793
51390NA      NA58609   3.364   4.730   8.617 -0.5919 -0.4542 -0.1897
51391NA      NA58610  10.336   0.164   3.992  0.3621  0.1077 -0.0324
51392NA      NA58611   9.898   1.128   3.816  0.4199  0.5006  0.0572
51393NA      NA58612   9.204   0.070   3.133  0.1400  0.0939  0.5845
51394NA      NA58613  11.106   9.153   2.520 -0.4549 -0.4618 -0.5026
51395NA      NA58614   6.038  10.694   3.860  0.4012 -0.0876  0.3037
51396NA      NA58615  10.443  11.577   3.982 -0.2474  0.4351  0.5314
51397NA      NA58616   9.467   2.664   8.437 -0.3002  0.2877  0.3776
51398NA      NA58617   9.811   0.334   3.434  0.1562  0.4194  0.1579
51399NA      NA58618   0.965   9.297   3.955  0.4983  0.1453 -0.0366
51400NA      NA58619  10.716   1.053   8.164  0.3478  0.0991 -0.0909
51401NA      NA58620   5.375   8.894   8.869  0.0711  0.0938 -0.4005
51402NA      NA58621   1.055   6.227   4.360  0.2634 -0.6096  0.2430
51403NA      NA58622   9.820   0.406   3.755 -0.0298 -0.5852 -0.4105
51404NA      NA58623   8.657  11.290   6.336 -0.3544 -0.0198 -0.1884
51405NA      NA58624   8.473  11.433   5.888  0.6887 -0.0964 -0.3072
51406NA      NA58625   8.009   7.423   0.108 -0.5156 -0.4059 -0.7927
51407NA      NA58626   7.957  11.538   5.912  0.0355  0.9459  0.3151
51408NA      NA58627   7.690   0.821   8.069  0.2916  0.0853 -0.0344
51409NA      NA58628   8.334  11.274   5.679  0.0618  0.4911 -0.2265
51410NA      NA58629   0.554   5.478   0.121 -0.2642 -0.3655 -0.1725
51411NA      NA58630   3.796   7.586  11.548  0.1082 -0.0240 -0.1810
51412NA      NA58631   9.835   1.604   3.248 -0.0670 -0.6613  0.3554
51413NA      NA58632  10.028   5.487   7.012 -0.1242 -0.4170 -0.1534
51414NA      NA58633   2.702   6.144   7.022 -0.2913 -0.6700  0.0045
51415NA      NA58634   7.585   2.901   3.734 -0.1927  0.1666 -0.0355
51416NA      NA58635  10.003   0.045   9.200  0.4124  0.2528  0.1580
51417NA      NA58636   7.090   3.971  11.601  0.0692 -0.2561  0.1321
51418NA      NA58637   7.237   0.113   7.603 -0.2221  0.1749 -0.3969
51419NA      NA58638   7.987   0.802   8.139  0.0998 -0.0319 -0.3512
51420NA      NA58639   8.138   5.206   9.145 -0.0474  0.6296  0.2413
51421NA      NA58640   9.202  11.557  11.529 -0.1636 -0.6735 -0.1226
51422NA      NA58641  11.618   1.987   5.404  0.0073  0.0712 -0.1115
51423NA      NA58642   2.856   3.470   0.528  0.1460 -0.0638  0.7758
51424NA      NA58643  11.356   1.554   5.813  0.3422 -0.4514 -0.1908
51425NA      NA58644   9.142   3.093   9.207 -0.4155  0.5060  0.1787
51426NA      NA58645   4.019   3.470   5.440  0.4909  0.0583 -0.7974
51427NA      NA58646   8.224  11.310   5.962  0.2007  0.4986 -0.3491
51428NA      NA58647  11.180   1.660   5.591  0.1421  0.2317 -0.2476
51429NA      NA58648  10.560   2.762   9.179  0.2221 -0.1992 -0.0520
51430NA      NA58649   7.362  11.603   7.759  0.8154  0.1828 -0.2500
51431NA      NA58650   1.140   1.646   8.918  0.1007 -0.4071 -0.3203
51432NA      NA58651   8.699  11.422   6.075 -0.3504  0.5146 -0.3760
51433NA      NA58652   0.545   1.032   5.278  0.2995 -0.1807  0.6395
51434NA      NA58653   2.446  11.570   3.741  0.1563 -0.4247 -0.4421
51435NA      NA58654   8.826  11.563   6.272 -0.1695  0.5079 -0.1773
51436NA      NA58655   9.119   3.242   8.945  0.2692  0.5310 -0.0870
51437NA      NA58656  10.655   9.049  10.551  0.0266  0.2855 -0.3897
51438NA      NA58657   3.944   5.603  10.578  0.3867 -0.1301  0.0547
51439NA      NA58658   7.709  11.474   7.712 -0.1019 -0.2288  0.1507
51440NA      NA58659  10.164   1.950   7.796 -0.0902  0.1136  0.0361
51441NA      NA58660  11.336   1.388   9.018  0.0344  0.0361 -0.1078
51442NA      NA58661  10.598   0.812   8.329 -0.2710 -0.6283 -0.3190
51443NA      NA58662   9.864   0.778   3.722  0.2130  0.1228  0.3903
51444NA      NA58663  11.089   1.681   8.496 -0.4509 -0.0996  0.2858
51445NA      NA58664   2.927   5.232   7.494  0.1489  0.1994 -0.3909
51446NA      NA58665  11.289  11.671   0.679  0.0188 -0.0770  0.8239
51447NA      NA58666   8.576   0.995   8.676  0.0175 -0.0752  0.3591
51448NA      NA58667   8.616   1.278   8.529  0.2102 -0.1963 -0.4976
51449NA      NA58668   1.156   1.675  11.419  0.4080  0.2834  0.1957
51450NA      NA58669   9.330   3.191   8.655  0.4219 -0.2595 -0.1376
51451NA      NA58670   2.541   1.327  11.454  0.1109  0.1566 -0.9780
51452NA      NA58671   8.591   2.729   7.164  0.1599  0.3806 -0.4032
51453NA      NA58672   7.353   2.043   5.130 -0.1726  0.8545  0.1398
51454NA      NA58673   4.639   8.198   4.455  0.2434 -0.4748 -0.6182
51455NA      NA58674   3.682   5.222   2.287 -0.1330  0.1837  0.3075
51456NA      NA58675  10.005   0.143   3.953  0.0410 -0.1765 -0.2051
51457NA      NA58676  10.166   9.944   3.491  0.0408 -0.1626 -0.3274
51458NA      NA58677   2.062   1.430   1.581  0.4326  0.1679 -0.3049
51459NA      NA58678   6.910   4.260   3.689  0.2006 -0.4330 -0.0790
51460NA      NA58679   2.424   8.594   6.590  0.3162 -0.8656 -0.2564
51461NA      NA58680   9.895   4.746   2.023 -0.6189  0.1402  0.0779
51462NA      NA58681   5.198   6.515   7.811 -0.1386  0.2113  0.4589
51463NA      NA58682   8.748   0.082   8.227  0.0789  0.0412  0.0674
51464NA      NA58683   5.939  11.464   5.909 -0.0707  0.0385 -0.4976
51465NA      NA58684   7.764   0.617   8.268 -0.0338 -0.1091  0.7371
51466NA      NA58685   9.920   8.772   4.062 -0.2178  0.2008  0.1093
51467NA      NA58686   3.601   8.400   9.010 -0.7826  0.2319 -0.0919
51468NA      NA58687   6.510  10.326   3.027 -0.0603  0.2688 -0.0918
51469NA      NA58688   7.493   6.538   5.563 -0.2323 -0.2579  0.1451
51470NA      NA58689   4.223   8.461   3.439 -0.1956  0.1033 -0.3255
51471NA      NA58690   7.240   9.919   8.786  0.0618 -0.3231  0.5434
51472NA      NA58691   7.602   0.880   8.322 -0.5265  0.3507 -0.0433
51473NA      NA58692   9.288   4.443   1.081  0.0508  0.5262  0.3508
51474NA      NA58693   0.183   6.738   0.806  0.7599 -0.1457 -0.1115
51475NA      NA58694   9.702   5.857  11.152 -0.1450  0.6819  0.1371
51476NA      NA58695  11.442   1.140   9.852  0.1170  0.1602 -0.0795
51477NA      NA58696   8.879   1.513   4.164  0.1563 -0.3547  0.4192
51478NA      NA58697   8.454   1.252   8.798 -0.2847 -0.4975 -0.2905
51479NA      NA58698   5.121   6.449   1.769 -0.3205 -0.6065  0.3052
51480CL      CL58699  10.450  11.438   3.786  0.4506  0.2691 -0.0467
51481CL      CL58700   1.745   2.640   8.570 -0.3665 -0.2353 -0.2825
51482CL      CL58701   5.232   6.044  11.500  0.1019  0.1363 -0.4463
51483CL      CL58702   6.121   9.222   5.431  0.1453  0.4874  0.1487
51484CL      CL58703   0.221   0.685  10.385 -0.0668 -0.4396  0.2874
51485CL      CL58704  10.080   8.131   3.704 -0.1906  0.1532 -0.2683
51486CL      CL58705   8.061   8.525   6.928 -0.0306  0.3930 -0.1091
51487CL      CL58706   8.909   3.303  11.456 -0.0555 -0.1287  0.1242
51488CL      CL58707   0.559   2.806   1.909  0.2217 -0.0271 -0.2100
51489CL      CL58708   7.946  10.206   7.689  0.2314  0.0307  0.3390
51490CL      CL58709   6.004   2.333  11.546  0.1248 -0.1610 -0.4229
51491CL      CL58710   6.449   6.808   0.157  0.4786  0.0503 -0.0617
51492CL      CL58711   3.301   7.196   0.848 -0.1914 -0.0642 -0.0757
51493CL      CL58712   0.351   8.596   7.544  0.0363  0.3150  0.2509
51494CL      CL58713   0.036   5.652   1.005  0.1908 -0.0773  0.6996
51495CL      CL58714   3.814   1.346   6.183 -0.2161  0.3050  0.5148
51496CL      CL58715   6.234  10.894   3.366  0.1508  0.3968  0.0033
51497CL      CL58716   5.769   5.023   5.044  0.5030  0.4342 -0.0062
51498CL      CL58717   7.720   0.865   3.382  0.1748 -0.4960  0.1021
51499CL      CL58718   8.227   8.446  10.828 -0.3975  0.3340 -0.0162
51500CL      CL58719   4.314   2.239   4.920 -0.1403 -0.1608  0.3597
51501CL      CL58720   5.861   3.817   0.598  0.0197  0.0290  0.2488
51502CL      CL58721   1.062   9.017   9.605 -0.0301 -0.3431  0.0533
51503CL      CL58722   5.444   7.384   2.716  0.4733 -0.3655  0.1013
51504CL      CL58723   9.203   5.762  11.568  0.2988 -0.2647  0.1057
51505CL      CL58724   4.028   1.144  10.476 -0.0826 -0.1238  0.1314
51506CL      CL58725   0.121   6.991  11.572 -0.4227  0.0659 -0.3351
51507CL      CL58726   4.390   3.531   5.565 -0.1947  0.4731 -0.2666
51508CL      CL58727   4.824   2.939   9.188  0.0276  0.3102 -0.4084
51509CL      CL58728   6.678   1.535   5.418  0.4134 -0.0889 -0.5468
51510CL      CL58729   9.108   6.201   4.845  0.1291 -0.0767  0.1930
51511CL      CL58730   8.437   9.962   4.976 -0.4893 -0.5653 -0.0924
51512CL      CL58731   2.129   3.192  10.378 -0.1863  0.2126  0.3301
51513CL      CL58732   1.105   9.137   3.852  0.1506  0.2152  0.0694
51514CL      CL58733   2.016   4.029   0.648  0.0132  0.2263  0.0174
51515CL      CL58734   2.843   8.511   9.886  0.4667  0.0474  0.0340
51516CL      CL58735   3.795   2.140   5.787  0.5765 -0.1023  0.0668
51517CL      CL58736   9.238   7.746   0.098 -0.0604 -0.1670 -0.1269
51518CL      CL58737   3.390  11.502   8.153 -0.4098 -0.0429  0.1888
51519CL      CL58738   6.003  11.454  10.809 -0.2084  0.0164 -0.1246
51520CL      CL58739   0.665   8.210   1.556 -0.1977 -0.4628  0.1132
51521CL      CL58740   3.279   8.489   1.340 -0.0179 -0.0298  0.0737
51522CL      CL58741   0.342   4.915   0.015 -0.1789 -0.1678 -0.1477
51523CL      CL58742   6.845  10.843   8.345  0.4091 -0.4016  0.2862
51524CL      CL58743   3.275   6.726   5.672 -0.0541 -0.2034 -0.1897
51525CL      CL58744   1.480   1.237   3.187 -0.3172 -0.1029 -0.0896
51526CL      CL58745   0.540   3.079   5.150 -0.1941 -0.0027 -0.1439
51527CL      CL58746   0.666   3.722   5.163 -0.2543  0.1718  0.1275
51528CL      CL58747   4.529   2.118   0.339 -0.0703 -0.2593 -0.6352
51529CL      CL58748   3.567  10.879   0.636 -0.1056  0.2895  0.0559
51530CL      CL58749   1.040   5.314   5.809  0.0997  0.1304  0.3619
51531CL      CL58750   8.840   8.198   9.494 -0.2626 -0.0685 -0.1657
51532CL      CL58751   5.838  10.746   1.876 -0.0869 -0.1177  0.0911
51533CL      CL58752   4.846   2.047   8.659  0.3611 -0.2596  0.1233
51534CL      CL58753   5.866   2.967   7.547  0.1040 -0.2988 -0.2672
51535CL      CL58754   3.621   2.948   3.215  0.0382 -0.0167 -0.4041
51536CL      CL58755   0.382   0.855   1.966  0.1571  0.0320 -0.3018
51537CL      CL58756   5.997   3.770   4.098 -0.0696 -0.7339  0.0713
51538CL      CL58757   3.239   1.701   7.616 -0.5348  0.1201 -0.3170
51539CL      CL58758  10.330   0.163   3.741  0.3021  0.0022 -0.2249
51540CL      CL58759   6.528   9.637   7.170 -0.0560  0.0217 -0.4079
51541CL      CL58760   9.155   0.317  11.434 -0.3664 -0.0619 -0.0090
51542CL      CL58761   2.603   1.845   2.226  0.3676 -0.3909 -0.1244
51543CL      CL58762   1.234   7.000   8.755  0.2447 -0.0745  0.1235
51544CL      CL58763   7.296   4.482  10.532 -0.0681  0.0715 -0.4249
51545CL      CL58764   2.297   7.257   9.465 -0.0283  0.7222 -0.6107
51546CL      CL58765   7.002   6.525  10.803  0.2767  0.4841 -0.0839
51547CL      CL58766   9.249   8.593   8.121  0.0837  0.4608 -0.3950
51548CL      CL58767   2.011   3.396   9.422 -0.0186 -0.2317 -0.0800
51549CL      CL58768   2.918  11.547   4.534  0.0030 -0.1055 -0.3848
51550CL      CL58769   6.839  10.294  11.190  0.1464  0.1586 -0.0524
51551CL      CL58770   4.125   1.278   3.848 -0.0224  0.6865  0.4441
51552CL      CL58771   1.286   2.609  10.450 -0.5851 -0.0433 -0.2585
51553CL      CL58772   7.595   3.754   2.047  0.5267  0.4558 -0.2683
51554CL      CL58773   8.877  10.695  10.389 -0.5858 -0.0470 -0.3452
51555CL      CL58774   5.535   9.084   1.206 -0.1487 -0.1412 -0.0377
51556CL      CL58775   5.531   7.932  10.021 -0.2105 -0.1913 -0.1024
51557CL      CL58776   8.296   2.672   8.908 -0.0365 -0.1389  0.3032
51558CL      CL58777   1.992   7.404   0.758 -0.0240  0.3012  0.4974
51559CL      CL58778  10.888   2.667  11.082 -0.2133  0.0734 -0.1094
51560CL      CL58779   8.496   7.011   0.537  0.3645  0.1226  0.1131
51561CL      CL58780  10.655   7.327   3.200 -0.0449 -0.0710  0.1820
51562CL      CL58781   9.881   6.326   2.378 -0.3776 -0.0553  0.1447
51563CL      CL58782  10.651   4.881   6.754 -0.0724  0.0720 -0.4346
51564CL      CL58783   1.923   2.339   0.227 -0.0643  0.3676  0.0032
51565CL      CL58784   5.153   8.662   2.729 -0.1341  0.1512 -0.1188
51566CL      CL58785   2.766   5.937   2.273 -0.0514 -0.4709 -0.2750
51567CL      CL58786   3.088  10.222   9.852  0.1981  0.0548 -0.1158
51568CL      CL58787   4.396   0.103   0.194 -0.2468 -0.2957 -0.0776
51569CL      CL58788   5.321   0.771   0.463 -0.2226  0.5201  0.3000
51570CL      CL58789   8.422   2.545   4.436 -0.2617 -0.0132  0.1121
51571CL      CL58790   4.591   6.292   7.875 -0.0305 -0.1126  0.0897
51572CL      CL58791   8.091   1.023  10.590  0.2337 -0.4577 -0.2012
51573CL      CL58792  11.044  10.786   1.137  0.2569  0.2819 -0.2033
51574CL      CL58793   1.245   2.061   4.534 -0.2482 -0.2871  0.2005
51575CL      CL58794   2.920   4.985   9.286 -0.3032 -0.1037 -0.4407
51576CL      CL58795   2.771   8.390  11.116  0.5914 -0.2448 -0.1399
51577CL      CL58796   1.612   1.604   9.069 -0.2273  0.0475  0.0813
51578CL      CL58797   9.463   0.601  11.187  0.4639  0.0268 -0.1396
51579CL      CL58798   7.576   3.232  10.700 -0.1815 -0.5031  0.2547
51580CL      CL58799   0.535   5.657   0.272 -0.2872  0.1123 -0.4564
51581CL      CL58800   5.381   8.561   5.207  0.1256 -0.0759 -0.3390
51582CL      CL58801   9.650   1.720   5.975 -0.1443  0.0549  0.3484
51583CL      CL58802   6.569  11.605   2.835  0.0355  0.3389  0.1907
51584CL      CL58803  10.683   9.245   2.614  0.0051  0.0613  0.0783
51585CL      CL58804   2.930   7.187   6.410 -0.0048 -0.4273 -0.3056
51586CL      CL58805   1.618   5.374   9.051 -0.2468 -0.1674  0.3026
51587CL      CL58806  10.190   5.992   4.552 -0.1846 -0.1075  0.0398
51588CL      CL58807   8.115   9.894   3.729 -0.1865  0.0975  0.1753
51589CL      CL58808  11.358   9.109   6.815  0.1666  0.3301 -0.1969
51590CL      CL58809  11.174   3.856   7.830 -0.3773  0.2152  0.1823
51591CL      CL58810   9.848   7.794   0.857 -0.4311  0.1257  0.2300
51592CL      CL58811   6.293   6.578   5.739 -0.1467 -0.5683 -0.7550
51593CL      CL58812   4.465   8.456   3.396 -0.0353  0.3278  0.0577
51594CL      CL58813   8.753   0.602  11.530  0.1604 -0.0656 -0.1757
51595CL      CL58814  11.350   4.783   2.326 -0.7206  0.2157 -0.0356
51596CL      CL58815   2.768   7.872   4.135 -0.1308  0.2342  0.0341
51597CL      CL58816   9.808  11.234   1.151 -0.2369 -0.0702 -0.3490
51598CL      CL58817   4.203   6.659  11.641 -0.1975 -0.2033  0.2730
51599CL      CL58818   0.154   4.204   5.949  0.2729  0.2502 -0.1730
51600CL      CL58819   7.064  11.067   9.179 -0.3416  0.1471 -0.0342
51601CL      CL58820   6.643   2.626   7.473  0.2002  0.0384 -0.0879
51602CL      CL58821  10.923   7.284   9.662 -0.3182  0.0227  0.5831
51603CL      CL58822   8.475   5.393   2.121  0.1012 -0.3967 -0.2062
51604CL      CL58823   8.104   7.835  10.898  0.1871  0.0229  0.1340
51605CL      CL58824   7.374   3.680   8.487 -0.0644  0.0419  0.2860
51606CL      CL58825   1.086   4.746   1.773  0.5816  0.2477 -0.2690
51607CL      CL58826   7.163   4.304   4.185 -0.1362  0.2854 -0.1079
51608CL      CL58827   4.070   1.619  10.322 -0.1580 -0.7526 -0.2434
51609CL      CL58828   9.392   3.962  10.946  0.1206 -0.1368 -0.0445
51610CL      CL58829   4.159   6.270   3.502  0.0790 -0.1540 -0.1992
51611CL      CL58830   0.315   2.085   5.419 -0.0211 -0.4173 -0.3776
51612CL      CL58831   3.870   5.287   4.548 -0.1225 -0.1295 -0.0100
51613CL      CL58832   9.737  10.750  10.007 -0.4385 -0.0641  0.1612
51614CL      CL58833   7.794   2.886   4.615  0.1797 -0.0738  0.1822
51615CL      CL58834   0.226   9.984   7.335 -0.5500  0.3114 -0.3823
51616CL      CL58835   2.308  10.464   9.101  0.1857 -0.2636  0.3132
51617CL      CL58836   1.010   7.762   3.981 -0.4025  0.4170 -0.0342
51618CL      CL58837   4.519   4.334   7.108 -0.5807 -0.0664 -0.1986
51619CL      CL58838   0.348   5.172  10.185 -0.1530 -0.1822 -0.3213
51620CL      CL58839  10.019   9.760   3.548  0.1928 -0.2816 -0.0757
51621CL      CL58840   8.458   8.332  11.397 -0.2009  0.1383  0.2426
51622CL      CL58841   8.411   9.557   2.130 -0.0671 -0.1505  0.2812
51623CL      CL58842   5.246   3.535   5.046 -0.3093  0.1502 -0.5466
51624CL      CL58843   4.139   8.799   2.168  0.1006 -0.2422 -0.3542
51625CL      CL58844   3.221   8.484   5.237  0.1018 -0.2807  0.0449
51626CL      CL58845   2.503  10.572   3.273  0.1592 -0.1608  0.2656
  11.69162  11.69162  11.69162
